/*--------------------------------*- C++ -*----------------------------------*\
| =========                 |                                                 |
| \\      /  F ield         | OpenFOAM: The Open Source CFD Toolbox           |
|  \\    /   O peration     | Version:  2.1.1                                 |
|   \\  /    A nd           | Web:      www.OpenFOAM.org                      |
|    \\/     M anipulation  |                                                 |
\*---------------------------------------------------------------------------*/
FoamFile
{
    version     2.0;
    format      ascii;
    class       volScalarField;
    location    "0.19";
    object      nuSgs;
}
// * * * * * * * * * * * * * * * * * * * * * * * * * * * * * * * * * * * * * //

dimensions      [0 2 -1 0 0 0 0];

internalField   nonuniform List<scalar> 
6820
(
0.000556014
0.000457436
0.000368221
0.000306274
0.000269155
0.000243621
0.000224859
0.00021054
0.000199003
0.000189343
0.000181043
0.000173773
0.000167311
0.000161501
0.00015623
0.000151413
0.000146985
0.000142893
0.000139099
0.000135569
0.000132277
0.000129199
0.000126323
0.00012363
0.000121107
0.000118745
0.000116534
0.000114473
0.000112549
0.000110782
0.000109145
0.000107533
0.000105853
0.000103489
0.000170641
0.000223619
0.000239997
0.000235267
0.000224941
0.00021329
0.000202057
0.000191881
0.000182779
0.000174632
0.000167306
0.000160676
0.000154641
0.000149116
0.000144031
0.000139328
0.00013496
0.000130887
0.000127074
0.000123491
0.000120117
0.000116929
0.000113909
0.000111044
0.000108321
0.000105731
0.000103258
0.000100911
9.86303e-05
9.65696e-05
9.42998e-05
9.34045e-05
3.6776e-05
2.84863e-05
4.55699e-05
8.22031e-05
0.000107806
0.000123374
0.000131786
0.000135632
0.000136736
0.000136168
0.000134569
0.000132335
0.000129712
0.000126865
0.000123899
0.000120885
0.00011787
0.000114884
0.000111947
0.000109073
0.00010627
0.000103541
0.000100885
9.83033e-05
9.5794e-05
9.33532e-05
9.09778e-05
8.86634e-05
8.64102e-05
8.41982e-05
8.20539e-05
7.98373e-05
7.78035e-05
2.07363e-05
2.86937e-05
2.65835e-05
1.51422e-05
3.67609e-06
1.36869e-05
2.54412e-05
3.51882e-05
4.30294e-05
4.92395e-05
5.40939e-05
5.78364e-05
6.06694e-05
6.27514e-05
6.42147e-05
6.51693e-05
6.57053e-05
6.58967e-05
6.58041e-05
6.54775e-05
6.49575e-05
6.42774e-05
6.34651e-05
6.25436e-05
6.15305e-05
6.04383e-05
5.92738e-05
5.80447e-05
5.67606e-05
5.54218e-05
5.40443e-05
5.26178e-05
5.12446e-05
1.44172e-05
1.75973e-05
2.26153e-05
2.43083e-05
2.39889e-05
2.20336e-05
1.91837e-05
1.59784e-05
1.26506e-05
9.34969e-06
6.18333e-06
3.231e-06
7.99858e-07
2.2354e-06
4.44265e-06
6.43784e-06
8.1989e-06
9.73219e-06
1.105e-05
1.21665e-05
1.30965e-05
1.38545e-05
1.44542e-05
1.49085e-05
1.52297e-05
1.54299e-05
1.55237e-05
1.55186e-05
1.54229e-05
1.52409e-05
1.4982e-05
1.46501e-05
1.42602e-05
1.09155e-05
1.25118e-05
1.38411e-05
1.4344e-05
1.51166e-05
1.57413e-05
1.61051e-05
1.63027e-05
1.63392e-05
1.62209e-05
1.59727e-05
1.56188e-05
1.51839e-05
1.46848e-05
1.41397e-05
1.35665e-05
1.29803e-05
1.23942e-05
1.18184e-05
1.12613e-05
1.07291e-05
1.02268e-05
9.75769e-06
9.32406e-06
8.92657e-06
8.56608e-06
8.2383e-06
7.94253e-06
7.67716e-06
7.44317e-06
7.23762e-06
7.06407e-06
6.9169e-06
8.23796e-06
9.44169e-06
1.02705e-05
1.00705e-05
9.87874e-06
9.69511e-06
9.50297e-06
9.405e-06
9.39036e-06
9.415e-06
9.4521e-06
9.4841e-06
9.49932e-06
9.49536e-06
9.47079e-06
9.42499e-06
9.35849e-06
9.27267e-06
9.16932e-06
9.05044e-06
8.91808e-06
8.77426e-06
8.62103e-06
8.45979e-06
8.29322e-06
8.12217e-06
7.95247e-06
7.78628e-06
7.62444e-06
7.46926e-06
7.3203e-06
7.18394e-06
7.0597e-06
6.35226e-06
7.4218e-06
8.24016e-06
8.1074e-06
7.79827e-06
7.45896e-06
7.08131e-06
6.75689e-06
6.50445e-06
6.30306e-06
6.13978e-06
6.00552e-06
5.89141e-06
5.79077e-06
5.69925e-06
5.61384e-06
5.53223e-06
5.45265e-06
5.37388e-06
5.29507e-06
5.2157e-06
5.13555e-06
5.05462e-06
4.97322e-06
4.89187e-06
4.81176e-06
4.73321e-06
4.6568e-06
4.58355e-06
4.5151e-06
4.45159e-06
4.39674e-06
4.3516e-06
4.98997e-06
5.87043e-06
6.56645e-06
6.56563e-06
6.40005e-06
6.1939e-06
5.91225e-06
5.62797e-06
5.37972e-06
5.16377e-06
4.97534e-06
4.81098e-06
4.66585e-06
4.53576e-06
4.41786e-06
4.31001e-06
4.21054e-06
4.11817e-06
4.03196e-06
3.95117e-06
3.87527e-06
3.80387e-06
3.73665e-06
3.6735e-06
3.61412e-06
3.55835e-06
3.50625e-06
3.45795e-06
3.41349e-06
3.37336e-06
3.33755e-06
3.30754e-06
3.28447e-06
3.98265e-06
4.7173e-06
5.33368e-06
5.41188e-06
5.31316e-06
5.16717e-06
4.95266e-06
4.72532e-06
4.52319e-06
4.34551e-06
4.18781e-06
4.04794e-06
3.92287e-06
3.80967e-06
3.70634e-06
3.61145e-06
3.5239e-06
3.44281e-06
3.36751e-06
3.29745e-06
3.23219e-06
3.17138e-06
3.11476e-06
3.06205e-06
3.01307e-06
2.96773e-06
2.9257e-06
2.88671e-06
2.8506e-06
2.81754e-06
2.78732e-06
2.75987e-06
2.73542e-06
3.22149e-06
3.84274e-06
4.39032e-06
4.51138e-06
4.46223e-06
4.36603e-06
4.20841e-06
4.02695e-06
3.85672e-06
3.70226e-06
3.56225e-06
3.43674e-06
3.3244e-06
3.2232e-06
3.13149e-06
3.04802e-06
2.97171e-06
2.90165e-06
2.83712e-06
2.77756e-06
2.72249e-06
2.67154e-06
2.62439e-06
2.58076e-06
2.54042e-06
2.50308e-06
2.46844e-06
2.43623e-06
2.40616e-06
2.3779e-06
2.35078e-06
2.32384e-06
2.29656e-06
2.6334e-06
3.16514e-06
3.66157e-06
3.81894e-06
3.81635e-06
3.75933e-06
3.64177e-06
3.49272e-06
3.34563e-06
3.20912e-06
3.08381e-06
2.97055e-06
2.86884e-06
2.77724e-06
2.69446e-06
2.61943e-06
2.55123e-06
2.48908e-06
2.43232e-06
2.3804e-06
2.33285e-06
2.28926e-06
2.24926e-06
2.21249e-06
2.17863e-06
2.14734e-06
2.1182e-06
2.09075e-06
2.06442e-06
2.03857e-06
2.01231e-06
1.98431e-06
1.9535e-06
2.16875e-06
2.63226e-06
3.09086e-06
3.27414e-06
3.30762e-06
3.28147e-06
3.19777e-06
3.07956e-06
2.95614e-06
2.83769e-06
2.72627e-06
2.62363e-06
2.53035e-06
2.44584e-06
2.36934e-06
2.30011e-06
2.23745e-06
2.18068e-06
2.12918e-06
2.08243e-06
2.03992e-06
2.0012e-06
1.96585e-06
1.93346e-06
1.90362e-06
1.87588e-06
1.84974e-06
1.82464e-06
1.79992e-06
1.77482e-06
1.74829e-06
1.71897e-06
1.68555e-06
1.79395e-06
2.2066e-06
2.63708e-06
2.84071e-06
2.90543e-06
2.90669e-06
2.85156e-06
2.75909e-06
2.65507e-06
2.55108e-06
2.45086e-06
2.35701e-06
2.27085e-06
2.19241e-06
2.12126e-06
2.05689e-06
1.99871e-06
1.94615e-06
1.89864e-06
1.85566e-06
1.81673e-06
1.78138e-06
1.74917e-06
1.71965e-06
1.69235e-06
1.66678e-06
1.64239e-06
1.61856e-06
1.59457e-06
1.56958e-06
1.54255e-06
1.51224e-06
1.47725e-06
1.48554e-06
1.86198e-06
2.27232e-06
2.49251e-06
2.58329e-06
2.60742e-06
2.57559e-06
2.50491e-06
2.41827e-06
2.32773e-06
2.23808e-06
2.15244e-06
2.07265e-06
1.99925e-06
1.9322e-06
1.87126e-06
1.81605e-06
1.76612e-06
1.72099e-06
1.6802e-06
1.64327e-06
1.60975e-06
1.57918e-06
1.55109e-06
1.52498e-06
1.50034e-06
1.47659e-06
1.45311e-06
1.42917e-06
1.40399e-06
1.37661e-06
1.34604e-06
1.31099e-06
1.2269e-06
1.57972e-06
1.97638e-06
2.21038e-06
2.32331e-06
2.36755e-06
2.35592e-06
2.30428e-06
2.23294e-06
2.15401e-06
2.07317e-06
1.99411e-06
1.9192e-06
1.84951e-06
1.78535e-06
1.72672e-06
1.67341e-06
1.62509e-06
1.58135e-06
1.54177e-06
1.5059e-06
1.4733e-06
1.44351e-06
1.41605e-06
1.39044e-06
1.36615e-06
1.34262e-06
1.31926e-06
1.29539e-06
1.27033e-06
1.24325e-06
1.21344e-06
1.17978e-06
1.00606e-06
1.34652e-06
1.73498e-06
1.98087e-06
2.11272e-06
2.17451e-06
2.18013e-06
2.14471e-06
2.08659e-06
2.01779e-06
1.94466e-06
1.87136e-06
1.80064e-06
1.73394e-06
1.67189e-06
1.61472e-06
1.56239e-06
1.5147e-06
1.47132e-06
1.43192e-06
1.39609e-06
1.36342e-06
1.33348e-06
1.30582e-06
1.27997e-06
1.25542e-06
1.23168e-06
1.20819e-06
1.18437e-06
1.15964e-06
1.13336e-06
1.10507e-06
1.07388e-06
8.14428e-07
1.15308e-06
1.53801e-06
1.79426e-06
1.9423e-06
2.01951e-06
2.04016e-06
2.01887e-06
1.97242e-06
1.91254e-06
1.84601e-06
1.77743e-06
1.70987e-06
1.64514e-06
1.5842e-06
1.52751e-06
1.4752e-06
1.42721e-06
1.38335e-06
1.34331e-06
1.30678e-06
1.27338e-06
1.24271e-06
1.21436e-06
1.18789e-06
1.16285e-06
1.13879e-06
1.11522e-06
1.09168e-06
1.06771e-06
1.04283e-06
1.01681e-06
9.88982e-07
6.46116e-07
9.93374e-07
1.37851e-06
1.64378e-06
1.80562e-06
1.89632e-06
1.93005e-06
1.92094e-06
1.88456e-06
1.8323e-06
1.7713e-06
1.70647e-06
1.64123e-06
1.57769e-06
1.51709e-06
1.46009e-06
1.40703e-06
1.35796e-06
1.3128e-06
1.27136e-06
1.23337e-06
1.19852e-06
1.16647e-06
1.13686e-06
1.10932e-06
1.08344e-06
1.05884e-06
1.03512e-06
1.0119e-06
9.88855e-07
9.65641e-07
9.4217e-07
9.17972e-07
4.98049e-07
8.6421e-07
1.25195e-06
1.52482e-06
1.69825e-06
1.80063e-06
1.8457e-06
1.84711e-06
1.81944e-06
1.77375e-06
1.71737e-06
1.65552e-06
1.59185e-06
1.52877e-06
1.46778e-06
1.40977e-06
1.35522e-06
1.30437e-06
1.25723e-06
1.21372e-06
1.17365e-06
1.1368e-06
1.10288e-06
1.07159e-06
1.04263e-06
1.01567e-06
9.90369e-07
9.66432e-07
9.43561e-07
9.21521e-07
9.00092e-07
8.79293e-07
8.58814e-07
3.71641e-07
7.65146e-07
1.15578e-06
1.43448e-06
1.61734e-06
1.72965e-06
1.78443e-06
1.79478e-06
1.77446e-06
1.73416e-06
1.68135e-06
1.62147e-06
1.55843e-06
1.4949e-06
1.4326e-06
1.37265e-06
1.31573e-06
1.26221e-06
1.21224e-06
1.16584e-06
1.12292e-06
1.08335e-06
1.04691e-06
1.01339e-06
9.82531e-07
9.54079e-07
9.27778e-07
9.03383e-07
8.8067e-07
8.59468e-07
8.39618e-07
8.2117e-07
8.03898e-07
2.78249e-07
6.98111e-07
1.08895e-06
1.37118e-06
1.5613e-06
1.68183e-06
1.74481e-06
1.76274e-06
1.74863e-06
1.71286e-06
1.66295e-06
1.60451e-06
1.54166e-06
1.47727e-06
1.4133e-06
1.35105e-06
1.29135e-06
1.23472e-06
1.18144e-06
1.13164e-06
1.08535e-06
1.04249e-06
1.00297e-06
9.66641e-07
9.33329e-07
9.02855e-07
8.7503e-07
8.49678e-07
8.26634e-07
8.05779e-07
7.86997e-07
7.70366e-07
7.55712e-07
2.46647e-07
6.66439e-07
1.05155e-06
1.33441e-06
1.52951e-06
1.65645e-06
1.72602e-06
1.74994e-06
1.74058e-06
1.70794e-06
1.65957e-06
1.60124e-06
1.53724e-06
1.47069e-06
1.40376e-06
1.33795e-06
1.27428e-06
1.21342e-06
1.15578e-06
1.1016e-06
1.05101e-06
1.00404e-06
9.60657e-07
9.20806e-07
8.84387e-07
8.51287e-07
8.21377e-07
7.94531e-07
7.70621e-07
7.49546e-07
7.31186e-07
7.15563e-07
7.02511e-07
2.95753e-07
6.72923e-07
1.04436e-06
1.32458e-06
1.52244e-06
1.65423e-06
1.72923e-06
1.75831e-06
1.75317e-06
1.72349e-06
1.67675e-06
1.61875e-06
1.55394e-06
1.48557e-06
1.41598e-06
1.34682e-06
1.27925e-06
1.21408e-06
1.15184e-06
1.09289e-06
1.03745e-06
9.85665e-07
9.37603e-07
8.93288e-07
8.52714e-07
8.15846e-07
7.82631e-07
7.53006e-07
7.26893e-07
7.04234e-07
6.84921e-07
6.69011e-07
6.56291e-07
4.00741e-07
7.17911e-07
1.06838e-06
1.34261e-06
1.54079e-06
1.67535e-06
1.75366e-06
1.78557e-06
1.7822e-06
1.75293e-06
1.70524e-06
1.64508e-06
1.57709e-06
1.50472e-06
1.43049e-06
1.35623e-06
1.28325e-06
1.21247e-06
1.14451e-06
1.07983e-06
1.01872e-06
9.61378e-07
9.07946e-07
8.58512e-07
8.1313e-07
7.7183e-07
7.34616e-07
7.01477e-07
6.72371e-07
6.47259e-07
6.26024e-07
6.08651e-07
5.94943e-07
5.367e-07
7.99351e-07
1.12469e-06
1.39043e-06
1.58754e-06
1.72444e-06
1.80647e-06
1.84233e-06
1.84239e-06
1.81559e-06
1.76916e-06
1.70898e-06
1.63972e-06
1.56493e-06
1.48728e-06
1.40875e-06
1.3308e-06
1.25448e-06
1.18057e-06
1.10961e-06
1.04201e-06
9.7804e-07
9.17926e-07
8.61822e-07
8.09849e-07
7.62103e-07
7.18654e-07
6.79562e-07
6.44853e-07
6.14573e-07
5.88658e-07
5.67256e-07
5.50019e-07
6.95624e-07
9.15513e-07
1.2152e-06
1.4702e-06
1.66324e-06
1.79862e-06
1.87949e-06
1.91362e-06
1.91111e-06
1.88087e-06
1.83026e-06
1.76533e-06
1.6909e-06
1.61065e-06
1.52732e-06
1.44297e-06
1.35909e-06
1.27675e-06
1.19675e-06
1.11963e-06
1.04581e-06
9.75572e-07
9.0914e-07
8.46679e-07
7.88322e-07
7.34182e-07
6.84357e-07
6.38937e-07
5.97994e-07
5.61611e-07
5.29773e-07
5.02618e-07
4.79952e-07
8.77395e-07
1.06478e-06
1.34115e-06
1.58635e-06
1.77799e-06
1.91693e-06
2.00359e-06
2.04387e-06
2.04667e-06
2.02016e-06
1.97131e-06
1.90614e-06
1.8296e-06
1.74562e-06
1.65727e-06
1.56687e-06
1.47618e-06
1.38649e-06
1.29874e-06
1.21363e-06
1.13164e-06
1.0531e-06
9.78256e-07
9.07274e-07
8.40272e-07
7.77338e-07
7.18543e-07
6.63958e-07
6.1364e-07
5.67711e-07
5.26168e-07
4.89456e-07
4.56949e-07
1.08772e-06
1.25309e-06
1.51012e-06
1.74212e-06
1.92316e-06
2.05208e-06
2.12849e-06
2.15875e-06
2.15249e-06
2.11818e-06
2.06279e-06
1.99213e-06
1.91088e-06
1.82269e-06
1.73037e-06
1.63604e-06
1.54134e-06
1.44747e-06
1.35532e-06
1.26557e-06
1.17869e-06
1.095e-06
1.01474e-06
9.38061e-07
8.65044e-07
7.95739e-07
7.30162e-07
6.68314e-07
6.10172e-07
5.55742e-07
5.04928e-07
4.57943e-07
4.1428e-07
1.33112e-06
1.47703e-06
1.72017e-06
1.95131e-06
2.14328e-06
2.28967e-06
2.38382e-06
2.42819e-06
2.43089e-06
2.40021e-06
2.34369e-06
2.26812e-06
2.17922e-06
2.08158e-06
1.97873e-06
1.87336e-06
1.76748e-06
1.66254e-06
1.55958e-06
1.45933e-06
1.36228e-06
1.26874e-06
1.17891e-06
1.09286e-06
1.01063e-06
9.322e-07
8.57507e-07
7.86481e-07
7.19012e-07
6.55052e-07
5.94352e-07
5.37308e-07
4.82296e-07
1.62823e-06
1.77139e-06
2.00172e-06
2.20569e-06
2.36243e-06
2.47404e-06
2.53951e-06
2.56412e-06
2.55602e-06
2.52162e-06
2.46599e-06
2.39378e-06
2.30912e-06
2.21552e-06
2.11589e-06
2.01266e-06
1.90779e-06
1.80285e-06
1.69903e-06
1.59723e-06
1.4981e-06
1.40209e-06
1.30949e-06
1.22046e-06
1.13505e-06
1.05328e-06
9.75063e-07
9.00323e-07
8.28931e-07
7.60773e-07
6.95608e-07
6.33561e-07
5.73423e-07
1.97131e-06
2.09082e-06
2.33201e-06
2.58549e-06
2.80932e-06
2.98062e-06
3.08402e-06
3.12366e-06
3.11276e-06
3.06367e-06
2.98657e-06
2.89001e-06
2.78071e-06
2.66358e-06
2.54217e-06
2.41905e-06
2.29606e-06
2.1745e-06
2.05527e-06
1.93902e-06
1.82619e-06
1.71706e-06
1.61177e-06
1.5104e-06
1.41296e-06
1.31939e-06
1.22961e-06
1.14354e-06
1.06106e-06
9.82127e-07
9.06507e-07
8.34669e-07
7.64546e-07
2.45436e-06
2.60626e-06
2.79441e-06
2.92378e-06
3.02453e-06
3.11718e-06
3.19107e-06
3.23788e-06
3.25539e-06
3.24266e-06
3.20099e-06
3.13423e-06
3.04721e-06
2.9447e-06
2.83106e-06
2.71002e-06
2.5847e-06
2.45751e-06
2.33034e-06
2.20457e-06
2.08123e-06
1.96099e-06
1.84433e-06
1.73152e-06
1.62269e-06
1.51788e-06
1.41708e-06
1.32025e-06
1.22734e-06
1.13837e-06
1.05327e-06
9.72541e-07
8.94823e-07
2.93269e-06
3.03527e-06
3.40874e-06
3.80642e-06
4.10622e-06
4.28439e-06
4.34915e-06
4.33107e-06
4.25968e-06
4.153e-06
4.02216e-06
3.87514e-06
3.71755e-06
3.5533e-06
3.38553e-06
3.21685e-06
3.04949e-06
2.88533e-06
2.72588e-06
2.57233e-06
2.42556e-06
2.28617e-06
2.15451e-06
2.03073e-06
1.9148e-06
1.80658e-06
1.70584e-06
1.61229e-06
1.52565e-06
1.44577e-06
1.37231e-06
1.3061e-06
1.24471e-06
3.97265e-06
4.07225e-06
3.97306e-06
3.8811e-06
3.96614e-06
4.16067e-06
4.34159e-06
4.45794e-06
4.50549e-06
4.4939e-06
4.43998e-06
4.36234e-06
4.27621e-06
4.19218e-06
4.1168e-06
4.05341e-06
4.00295e-06
3.96489e-06
3.9379e-06
3.92032e-06
3.91045e-06
3.90673e-06
3.90775e-06
3.91231e-06
3.91936e-06
3.92798e-06
3.93735e-06
3.94673e-06
3.95551e-06
3.96329e-06
3.96984e-06
3.97639e-06
3.98135e-06
4.43071e-06
4.97768e-06
5.93021e-06
6.39475e-06
6.49019e-06
6.44452e-06
6.41573e-06
6.51281e-06
6.76802e-06
7.14979e-06
7.607e-06
8.09323e-06
8.57268e-06
9.02107e-06
9.42408e-06
9.77469e-06
1.00707e-05
1.0313e-05
1.05044e-05
1.06487e-05
1.07501e-05
1.08129e-05
1.08413e-05
1.08389e-05
1.08093e-05
1.07552e-05
1.06792e-05
1.05831e-05
1.04685e-05
1.03363e-05
1.01883e-05
1.00259e-05
9.85175e-06
7.62159e-06
5.86773e-06
4.60605e-06
6.15595e-06
8.88372e-06
1.16023e-05
1.39462e-05
1.58511e-05
1.73126e-05
1.83423e-05
1.89746e-05
1.92554e-05
1.92328e-05
1.89551e-05
1.84688e-05
1.78164e-05
1.70357e-05
1.61592e-05
1.52147e-05
1.42249e-05
1.32085e-05
1.21804e-05
1.11523e-05
1.01332e-05
9.12976e-06
8.14682e-06
7.18746e-06
6.25298e-06
5.34394e-06
4.45757e-06
3.59574e-06
2.7474e-06
1.94099e-06
8.59797e-06
1.46987e-05
1.878e-05
2.11631e-05
2.2223e-05
2.17082e-05
1.97957e-05
1.69469e-05
1.36584e-05
1.06314e-05
9.02731e-06
9.90087e-06
1.27174e-05
1.63427e-05
2.01509e-05
2.38696e-05
2.73784e-05
3.06239e-05
3.35865e-05
3.62644e-05
3.86662e-05
4.08059e-05
4.27001e-05
4.43669e-05
4.5824e-05
4.7089e-05
4.81786e-05
4.91091e-05
4.98964e-05
5.05606e-05
5.11166e-05
5.16237e-05
5.20708e-05
3.47064e-05
3.72817e-05
4.67674e-05
6.1979e-05
7.7796e-05
9.33259e-05
0.000107862
0.000120693
0.000131627
0.000140704
0.000148033
0.000153776
0.000158117
0.00016124
0.00016332
0.000164513
0.000164961
0.000164786
0.000164096
0.00016298
0.000161517
0.00015977
0.000157795
0.000155638
0.000153336
0.000150919
0.000148414
0.000145837
0.000143209
0.000140531
0.000137807
0.000135129
0.00013252
0.000608491
0.000582523
0.000556839
0.000530275
0.000504131
0.000478726
0.000454101
0.000430527
0.000408187
0.000387141
0.000367406
0.000348971
0.000331789
0.000315795
0.000300914
0.000287065
0.000274164
0.000262133
0.000250894
0.000240377
0.000230514
0.000221245
0.000212517
0.00020428
0.00019649
0.000189108
0.000182097
0.000175423
0.000169049
0.000162953
0.000157006
0.000151733
0.000146896
9.23504e-05
8.49427e-05
8.23952e-05
8.43784e-05
8.93073e-05
9.53982e-05
0.000101411
0.000106609
0.000110103
0.000109937
0.000100729
8.37477e-05
6.51605e-05
5.15146e-05
4.40326e-05
3.95305e-05
3.55579e-05
3.14996e-05
2.70129e-05
2.17304e-05
1.41788e-05
1.82531e-05
3.7571e-05
4.2167e-05
2.44953e-05
1.15424e-05
2.74088e-05
3.27806e-05
3.0208e-05
2.6291e-05
2.34828e-05
2.14729e-05
1.97474e-05
1.81516e-05
1.66754e-05
1.53159e-05
1.40659e-05
1.29267e-05
1.19098e-05
1.10297e-05
1.03039e-05
9.7717e-06
9.45338e-06
9.28093e-06
9.35512e-06
1.02126e-05
1.18079e-05
1.51429e-05
2.04652e-05
2.20375e-05
1.96655e-05
2.0007e-05
2.40774e-05
2.90961e-05
3.34452e-05
3.64129e-05
3.78969e-05
3.76898e-05
3.62196e-05
3.50604e-05
3.54053e-05
3.70826e-05
3.90695e-05
4.09154e-05
4.39895e-05
4.9674e-05
5.74022e-05
6.5307e-05
7.10303e-05
7.24857e-05
6.85112e-05
5.95681e-05
4.79106e-05
3.63775e-05
2.68575e-05
1.98405e-05
1.49011e-05
1.1386e-05
8.79911e-06
6.84612e-06
5.36527e-06
4.26742e-06
3.49992e-06
3.02762e-06
2.82615e-06
2.88733e-06
3.23513e-06
3.92366e-06
5.00474e-06
6.50741e-06
8.66861e-06
1.24179e-05
1.92448e-05
2.92641e-05
3.95102e-05
4.57166e-05
4.36495e-05
3.62307e-05
1.82012e-05
2.23952e-05
0.000119307
0.000112971
0.00010792
0.000105129
0.00010397
0.000104322
0.000105703
0.000107721
0.000110239
0.000112968
0.000114931
0.000112393
0.000101213
8.34591e-05
6.48714e-05
4.96733e-05
3.87886e-05
3.10902e-05
2.60543e-05
2.76293e-05
3.90132e-05
5.15632e-05
4.99596e-05
2.89238e-05
7.49648e-06
2.55376e-05
3.33744e-05
3.18841e-05
2.79848e-05
2.49277e-05
2.27824e-05
2.10205e-05
1.94135e-05
1.7921e-05
1.65359e-05
1.5251e-05
1.40653e-05
1.29854e-05
1.20243e-05
1.11966e-05
1.05171e-05
1.00206e-05
9.73972e-06
9.60922e-06
9.65605e-06
1.04224e-05
1.20576e-05
1.50346e-05
2.05151e-05
2.32087e-05
2.12923e-05
2.12297e-05
2.51559e-05
3.02398e-05
3.47505e-05
3.78662e-05
3.94289e-05
3.93406e-05
3.81248e-05
3.71339e-05
3.73878e-05
3.88699e-05
4.04232e-05
4.16868e-05
4.45864e-05
5.05547e-05
5.88526e-05
6.74812e-05
7.39115e-05
7.59018e-05
7.21482e-05
6.2957e-05
5.05969e-05
3.82038e-05
2.79884e-05
2.05469e-05
1.53895e-05
1.17581e-05
9.09091e-06
7.07345e-06
5.54163e-06
4.40524e-06
3.61032e-06
3.12271e-06
2.92115e-06
2.99768e-06
3.36845e-06
4.07966e-06
5.18756e-06
6.73497e-06
8.93674e-06
1.26463e-05
1.93629e-05
2.93993e-05
3.99037e-05
4.67205e-05
4.52523e-05
3.80162e-05
2.12843e-05
1.64914e-05
0.000101077
9.982e-05
9.75595e-05
9.5304e-05
9.34825e-05
9.24633e-05
9.23987e-05
9.33486e-05
9.52144e-05
9.7724e-05
0.000100563
0.000103738
0.000105301
0.000102268
9.39549e-05
8.28259e-05
7.23153e-05
6.48044e-05
6.22573e-05
6.38829e-05
6.33108e-05
5.2293e-05
2.82312e-05
4.90703e-06
2.45915e-05
3.36658e-05
3.3129e-05
2.94079e-05
2.61873e-05
2.39445e-05
2.21758e-05
2.05796e-05
1.90875e-05
1.76938e-05
1.63932e-05
1.51817e-05
1.40623e-05
1.30431e-05
1.21366e-05
1.13585e-05
1.07228e-05
1.02592e-05
1.00092e-05
9.92281e-06
9.9672e-06
1.06147e-05
1.22312e-05
1.48933e-05
2.03309e-05
2.42033e-05
2.30157e-05
2.25665e-05
2.62661e-05
3.13968e-05
3.60626e-05
3.93321e-05
4.09787e-05
4.10001e-05
3.99522e-05
3.89865e-05
3.90637e-05
4.02047e-05
4.11896e-05
4.20584e-05
4.48918e-05
5.10497e-05
5.97924e-05
6.90733e-05
7.62001e-05
7.87854e-05
7.5394e-05
6.6149e-05
5.32444e-05
4.00491e-05
2.91274e-05
2.12433e-05
1.5865e-05
1.21238e-05
9.38208e-06
7.30153e-06
5.71779e-06
4.54198e-06
3.71958e-06
3.21598e-06
3.01016e-06
3.09372e-06
3.48091e-06
4.2136e-06
5.34474e-06
6.92329e-06
9.15147e-06
1.28104e-05
1.93854e-05
2.94171e-05
4.02121e-05
4.77188e-05
4.70234e-05
4.01936e-05
2.52364e-05
1.06497e-05
6.64717e-05
6.54305e-05
6.36824e-05
6.18229e-05
6.01577e-05
5.90394e-05
5.87489e-05
5.94488e-05
6.12036e-05
6.40623e-05
6.77916e-05
7.21344e-05
7.67889e-05
8.09013e-05
8.30269e-05
8.23191e-05
7.91618e-05
7.47489e-05
6.89929e-05
5.91289e-05
4.21889e-05
1.80768e-05
7.84571e-06
2.66588e-05
3.44276e-05
3.38225e-05
3.02345e-05
2.70559e-05
2.48563e-05
2.31455e-05
2.1591e-05
2.01218e-05
1.87419e-05
1.74488e-05
1.62352e-05
1.51001e-05
1.40489e-05
1.3091e-05
1.22396e-05
1.1511e-05
1.09197e-05
1.04903e-05
1.02689e-05
1.02268e-05
1.02924e-05
1.08377e-05
1.24108e-05
1.48219e-05
1.99614e-05
2.49762e-05
2.48266e-05
2.4059e-05
2.74126e-05
3.25567e-05
3.73662e-05
4.08e-05
4.25496e-05
4.26814e-05
4.17322e-05
4.06892e-05
4.05034e-05
4.11727e-05
4.16551e-05
4.22463e-05
4.49603e-05
5.11295e-05
6.01608e-05
7.00213e-05
7.78571e-05
8.11317e-05
7.8264e-05
6.91623e-05
5.5878e-05
4.19487e-05
3.03124e-05
2.19625e-05
1.63541e-05
1.2504e-05
9.68784e-06
7.54018e-06
5.89822e-06
4.67689e-06
3.82245e-06
3.30069e-06
3.09141e-06
3.18516e-06
3.59047e-06
4.34264e-06
5.49155e-06
7.08963e-06
9.33057e-06
1.29302e-05
1.9331e-05
2.93243e-05
4.04419e-05
4.87217e-05
4.89565e-05
4.27406e-05
2.97781e-05
5.60494e-06
1.83588e-05
1.75776e-05
1.64018e-05
1.53193e-05
1.47145e-05
1.48425e-05
1.56662e-05
1.69873e-05
1.87664e-05
2.10709e-05
2.4178e-05
2.80511e-05
3.23486e-05
3.66354e-05
4.02706e-05
4.23241e-05
4.18462e-05
3.79457e-05
2.92393e-05
1.56743e-05
4.94333e-06
1.97857e-05
3.11358e-05
3.50398e-05
3.34889e-05
3.01746e-05
2.74006e-05
2.54569e-05
2.38832e-05
2.24039e-05
2.09844e-05
1.96446e-05
1.83838e-05
1.71917e-05
1.60643e-05
1.50049e-05
1.40215e-05
1.31246e-05
1.23277e-05
1.16477e-05
1.11002e-05
1.07052e-05
1.0509e-05
1.05076e-05
1.06085e-05
1.10653e-05
1.25532e-05
1.48258e-05
1.94502e-05
2.54198e-05
2.66405e-05
2.57462e-05
2.86138e-05
3.37173e-05
3.86559e-05
4.22686e-05
4.41445e-05
4.43778e-05
4.34506e-05
4.22408e-05
4.16896e-05
4.18174e-05
4.18765e-05
4.22866e-05
4.48047e-05
5.07197e-05
5.97723e-05
7.0039e-05
7.85419e-05
8.2603e-05
8.04569e-05
7.17511e-05
5.83245e-05
4.38027e-05
3.14907e-05
2.26739e-05
1.68369e-05
1.28851e-05
9.99956e-06
7.78381e-06
6.0792e-06
4.80766e-06
3.91759e-06
3.37561e-06
3.16203e-06
3.26516e-06
3.68873e-06
4.46219e-06
5.62932e-06
7.23994e-06
9.47789e-06
1.30045e-05
1.91872e-05
2.9065e-05
4.04945e-05
4.96169e-05
5.09479e-05
4.55797e-05
3.4741e-05
7.05832e-06
9.18372e-06
9.73201e-06
1.03551e-05
1.076e-05
1.0768e-05
1.02246e-05
9.00415e-06
7.05737e-06
4.47787e-06
2.05239e-06
3.93678e-06
7.78958e-06
1.14068e-05
1.41532e-05
1.57318e-05
1.61977e-05
1.59704e-05
1.62735e-05
1.90335e-05
2.44737e-05
3.02598e-05
3.36947e-05
3.38037e-05
3.16936e-05
2.91591e-05
2.71724e-05
2.56681e-05
2.43049e-05
2.29478e-05
2.16215e-05
2.03591e-05
1.91609e-05
1.80166e-05
1.69218e-05
1.58792e-05
1.48955e-05
1.39796e-05
1.31431e-05
1.24001e-05
1.17677e-05
1.12631e-05
1.0903e-05
1.07296e-05
1.0763e-05
1.0911e-05
1.13063e-05
1.26567e-05
1.48802e-05
1.88837e-05
2.54601e-05
2.83406e-05
2.76564e-05
2.99035e-05
3.48771e-05
3.9921e-05
4.37222e-05
4.57459e-05
4.60616e-05
4.50863e-05
4.36384e-05
4.264e-05
4.22087e-05
4.19395e-05
4.22378e-05
4.43805e-05
4.96741e-05
5.83949e-05
6.88339e-05
7.79663e-05
8.29566e-05
8.17708e-05
7.37454e-05
6.04576e-05
4.55399e-05
3.26342e-05
2.3369e-05
1.73112e-05
1.32674e-05
1.03183e-05
8.03345e-06
6.26056e-06
4.9323e-06
4.00109e-06
3.43518e-06
3.21646e-06
3.33162e-06
3.77732e-06
4.57494e-06
5.76204e-06
7.38238e-06
9.60295e-06
1.30399e-05
1.89636e-05
2.86197e-05
4.02952e-05
5.03059e-05
5.2917e-05
4.86476e-05
4.0026e-05
1.36816e-05
9.35571e-06
9.72128e-06
1.00473e-05
1.00898e-05
9.70433e-06
8.81665e-06
7.40478e-06
5.51141e-06
3.33543e-06
2.02013e-06
4.14236e-06
7.6196e-06
1.14922e-05
1.53708e-05
1.89114e-05
2.19024e-05
2.44379e-05
2.67457e-05
2.88288e-05
3.02499e-05
3.06167e-05
2.99248e-05
2.86784e-05
2.74523e-05
2.64157e-05
2.54142e-05
2.43196e-05
2.31512e-05
2.19796e-05
2.08422e-05
1.97422e-05
1.86748e-05
1.76394e-05
1.66395e-05
1.56809e-05
1.47718e-05
1.39225e-05
1.31455e-05
1.24554e-05
1.18695e-05
1.14065e-05
1.10816e-05
1.09298e-05
1.09902e-05
1.11912e-05
1.15596e-05
1.27321e-05
1.49331e-05
1.83567e-05
2.50602e-05
2.97691e-05
2.97931e-05
3.13461e-05
3.60405e-05
4.11482e-05
4.51386e-05
4.73298e-05
4.7709e-05
4.66344e-05
4.48947e-05
4.33973e-05
4.24138e-05
4.19167e-05
4.20641e-05
4.35076e-05
4.77137e-05
5.56509e-05
6.59979e-05
7.57956e-05
8.19363e-05
8.19867e-05
7.49504e-05
6.21227e-05
4.70643e-05
3.36985e-05
2.40311e-05
1.7771e-05
1.36486e-05
1.0644e-05
8.29001e-06
6.44328e-06
5.05138e-06
4.07344e-06
3.48023e-06
3.25524e-06
3.38244e-06
3.85104e-06
4.67522e-06
5.88652e-06
7.52012e-06
9.71606e-06
1.30459e-05
1.86764e-05
2.7992e-05
3.97854e-05
5.06752e-05
5.47351e-05
5.17944e-05
4.54712e-05
2.11932e-05
5.80382e-06
6.046e-06
6.24165e-06
6.23055e-06
5.90801e-06
5.21829e-06
4.13715e-06
2.67044e-06
8.59711e-07
1.32363e-06
3.71586e-06
6.3439e-06
9.19478e-06
1.22283e-05
1.53123e-05
1.8233e-05
2.07723e-05
2.27941e-05
2.42387e-05
2.50908e-05
2.54717e-05
2.5561e-05
2.54656e-05
2.51616e-05
2.46067e-05
2.38382e-05
2.29458e-05
2.20032e-05
2.10458e-05
2.00856e-05
1.9129e-05
1.81826e-05
1.72526e-05
1.63456e-05
1.54693e-05
1.46334e-05
1.38494e-05
1.31307e-05
1.24924e-05
1.19519e-05
1.15286e-05
1.12384e-05
1.11081e-05
1.11872e-05
1.14396e-05
1.18172e-05
1.28029e-05
1.49345e-05
1.79442e-05
2.42459e-05
3.07189e-05
3.20885e-05
3.30414e-05
3.72322e-05
4.23277e-05
4.64931e-05
4.88707e-05
4.9304e-05
4.80989e-05
4.60322e-05
4.40079e-05
4.25011e-05
4.18228e-05
4.15755e-05
4.1846e-05
4.43884e-05
5.09878e-05
6.1099e-05
7.18147e-05
7.94043e-05
8.09431e-05
7.51839e-05
6.31563e-05
4.82637e-05
3.46276e-05
2.46394e-05
1.82093e-05
1.40263e-05
1.09759e-05
8.55389e-06
6.62758e-06
5.16377e-06
4.13167e-06
3.50628e-06
3.27393e-06
3.41583e-06
3.91081e-06
4.76367e-06
6.00177e-06
7.65433e-06
9.82748e-06
1.30375e-05
1.83476e-05
2.72036e-05
3.89187e-05
5.05811e-05
5.6199e-05
5.47661e-05
5.08267e-05
2.8574e-05
4.38394e-06
4.54539e-06
4.65623e-06
4.60514e-06
4.30983e-06
3.72317e-06
2.82135e-06
1.60321e-06
1.83069e-07
1.72949e-06
3.74337e-06
5.93706e-06
8.24846e-06
1.06165e-05
1.298e-05
1.52645e-05
1.73563e-05
1.91564e-05
2.06238e-05
2.17753e-05
2.26232e-05
2.31435e-05
2.33228e-05
2.3197e-05
2.28344e-05
2.23032e-05
2.16557e-05
2.09294e-05
2.01517e-05
1.93427e-05
1.85173e-05
1.76862e-05
1.68578e-05
1.60409e-05
1.52447e-05
1.44803e-05
1.37601e-05
1.30983e-05
1.25104e-05
1.20138e-05
1.16282e-05
1.13712e-05
1.12631e-05
1.13539e-05
1.16489e-05
1.20656e-05
1.28932e-05
1.48579e-05
1.76585e-05
2.3142e-05
3.09707e-05
3.43569e-05
3.51074e-05
3.85237e-05
4.34629e-05
4.77612e-05
5.03405e-05
5.08383e-05
4.94938e-05
4.70843e-05
4.45224e-05
4.25242e-05
4.15402e-05
4.04297e-05
3.89516e-05
3.90419e-05
4.3723e-05
5.39981e-05
6.62447e-05
7.5494e-05
7.85883e-05
7.42967e-05
6.33979e-05
4.90178e-05
3.53567e-05
2.5169e-05
1.86189e-05
1.43982e-05
1.13133e-05
8.82576e-06
6.81485e-06
5.27036e-06
4.17568e-06
3.5127e-06
3.27177e-06
3.43024e-06
3.95408e-06
4.83718e-06
6.10388e-06
7.78172e-06
9.9428e-06
1.30321e-05
1.80058e-05
2.63025e-05
3.76924e-05
4.98918e-05
5.70586e-05
5.72137e-05
5.57107e-05
3.51144e-05
3.63117e-06
3.72192e-06
3.75679e-06
3.65837e-06
3.36405e-06
2.8356e-06
2.05445e-06
1.03377e-06
4.91064e-07
1.90387e-06
3.61728e-06
5.49945e-06
7.49086e-06
9.53171e-06
1.1561e-05
1.35187e-05
1.53495e-05
1.7009e-05
1.84441e-05
1.96042e-05
2.04647e-05
2.10323e-05
2.13331e-05
2.1395e-05
2.12456e-05
2.09208e-05
2.04618e-05
1.9906e-05
1.92823e-05
1.86117e-05
1.79094e-05
1.71874e-05
1.64562e-05
1.5726e-05
1.50074e-05
1.43125e-05
1.36545e-05
1.30478e-05
1.25085e-05
1.20538e-05
1.17036e-05
1.14777e-05
1.13923e-05
1.14904e-05
1.18133e-05
1.22867e-05
1.30152e-05
1.47189e-05
1.74341e-05
2.19645e-05
3.03647e-05
3.62622e-05
3.76125e-05
4.00703e-05
4.45931e-05
4.893e-05
5.17118e-05
5.23123e-05
5.08507e-05
4.80985e-05
4.49939e-05
4.24745e-05
4.07999e-05
3.82597e-05
3.43645e-05
3.07292e-05
3.34906e-05
4.5826e-05
6.02774e-05
7.07648e-05
7.50241e-05
7.21954e-05
6.27046e-05
4.9205e-05
3.58147e-05
2.55922e-05
1.89924e-05
1.4762e-05
1.16548e-05
9.10534e-06
7.0059e-06
5.37158e-06
4.20409e-06
3.49616e-06
3.24507e-06
3.42399e-06
3.98156e-06
4.89688e-06
6.1916e-06
7.89764e-06
1.0061e-05
1.30444e-05
1.76825e-05
2.53556e-05
3.61659e-05
4.8536e-05
5.70627e-05
5.87227e-05
5.96025e-05
4.00882e-05
3.03047e-06
3.07292e-06
3.05895e-06
2.93388e-06
2.65034e-06
2.17936e-06
1.51581e-06
7.48055e-07
8.60324e-07
2.05301e-06
3.51535e-06
5.13316e-06
6.85422e-06
8.62876e-06
1.04061e-05
1.21371e-05
1.37742e-05
1.52686e-05
1.65759e-05
1.76726e-05
1.855e-05
1.91991e-05
1.96149e-05
1.98076e-05
1.98029e-05
1.96335e-05
1.93314e-05
1.89256e-05
1.84404e-05
1.78957e-05
1.73071e-05
1.66877e-05
1.60489e-05
1.54019e-05
1.47584e-05
1.41307e-05
1.35326e-05
1.29789e-05
1.2486e-05
1.20712e-05
1.17541e-05
1.15561e-05
1.14932e-05
1.15974e-05
1.19314e-05
1.24625e-05
1.31609e-05
1.45703e-05
1.71691e-05
2.0938e-05
2.89051e-05
3.73301e-05
4.04387e-05
4.21258e-05
4.58426e-05
5.00224e-05
5.29625e-05
5.37279e-05
5.22202e-05
4.91482e-05
4.54947e-05
4.227e-05
3.93772e-05
3.50278e-05
2.77285e-05
1.81655e-05
2.29251e-05
4.09486e-05
5.63573e-05
6.61372e-05
7.04852e-05
6.88595e-05
6.09713e-05
4.87164e-05
3.59309e-05
2.58808e-05
1.9324e-05
1.51166e-05
1.19986e-05
9.39167e-06
7.20161e-06
5.46903e-06
4.21746e-06
3.45556e-06
3.19214e-06
3.39562e-06
3.99223e-06
4.9424e-06
6.26388e-06
7.99734e-06
1.01755e-05
1.30805e-05
1.74066e-05
2.44366e-05
3.44604e-05
4.65513e-05
5.60417e-05
5.89129e-05
6.1931e-05
4.28645e-05
2.56094e-06
2.56982e-06
2.52468e-06
2.38725e-06
2.12427e-06
1.71943e-06
1.1945e-06
7.61408e-07
1.1368e-06
2.13799e-06
3.38145e-06
4.77249e-06
6.26461e-06
7.81417e-06
9.37821e-06
1.09149e-05
1.23844e-05
1.37503e-05
1.49789e-05
1.60409e-05
1.69149e-05
1.75907e-05
1.80696e-05
1.83603e-05
1.84767e-05
1.84376e-05
1.82669e-05