/*--------------------------------*- C++ -*----------------------------------*\
| =========                 |                                                 |
| \\      /  F ield         | OpenFOAM: The Open Source CFD Toolbox           |
|  \\    /   O peration     | Version:  2.1.1                                 |
|   \\  /    A nd           | Web:      www.OpenFOAM.org                      |
|    \\/     M anipulation  |                                                 |
\*---------------------------------------------------------------------------*/
FoamFile
{
    version     2.0;
    format      ascii;
    class       surfaceScalarField;
    location    "0.19";
    object      phi;
}
// * * * * * * * * * * * * * * * * * * * * * * * * * * * * * * * * * * * * * //

dimensions      [0 3 -1 0 0 0 0];

internalField   nonuniform List<scalar> 
13452
(
4.6e-05
2.24873e-05
2.96677e-05
1.63322e-05
2.11956e-05
8.47217e-06
1.72992e-05
3.89633e-06
1.56629e-05
1.63635e-06
1.48619e-05
8.01021e-07
1.43594e-05
5.02472e-07
1.39786e-05
3.80832e-07
1.36594e-05
3.19204e-07
1.33864e-05
2.72948e-07
1.31552e-05
2.31179e-07
1.2962e-05
1.93205e-07
1.28026e-05
1.594e-07
1.26728e-05
1.29796e-07
1.25688e-05
1.04006e-07
1.24874e-05
8.14253e-08
1.2426e-05
6.14253e-08
1.23825e-05
4.34541e-08
1.23555e-05
2.70233e-08
1.23439e-05
1.16106e-08
1.2347e-05
-3.15082e-09
1.23638e-05
-1.67924e-08
1.23942e-05
-3.03845e-08
1.24379e-05
-4.36675e-08
1.2495e-05
-5.7129e-08
1.25658e-05
-7.0831e-08
1.26511e-05
-8.5289e-08
1.27509e-05
-9.98141e-08
1.28679e-05
-1.16984e-07
1.29958e-05
-1.27895e-07
1.31521e-05
-1.56299e-07
1.32552e-05
-1.03087e-07
-3.10314e-07
1.35655e-05
7.49138e-05
1.80174e-05
7.04176e-05
2.08284e-05
6.33355e-05
1.55543e-05
5.66912e-05
1.05406e-05
5.15879e-05
6.73971e-06
4.79481e-05
4.44073e-06
4.53463e-05
3.10431e-06
4.34405e-05
2.28664e-06
4.19979e-05
1.7618e-06
4.0869e-05
1.40187e-06
3.99617e-05
1.13843e-06
3.92185e-05
9.36411e-07
3.86018e-05
7.76121e-07
3.80861e-05
6.455e-07
3.76535e-05
5.36646e-07
3.72908e-05
4.44081e-07
3.69884e-05
3.63873e-07
3.67387e-05
2.93132e-07
3.6536e-05
2.29676e-07
3.63758e-05
1.718e-07
3.62544e-05
1.18298e-07
3.61694e-05
6.82095e-08
3.61188e-05
2.01755e-08
3.61012e-05
-2.60146e-08
3.61153e-05
-7.12095e-08
3.61603e-05
-1.15873e-07
3.6236e-05
-1.61021e-07
3.63429e-05
-2.06621e-07
3.64809e-05
-2.55075e-07
3.66542e-05
-3.01105e-07
3.68615e-05
-3.63665e-07
3.71607e-05
-4.02285e-07
-5.45578e-07
3.7396e-05
7.85212e-05
1.19527e-05
8.23365e-05
1.70132e-05
8.2999e-05
1.48918e-05
8.14919e-05
1.20477e-05
7.89815e-05
9.25005e-06
7.63114e-05
7.11088e-06
7.38128e-05
5.60289e-06
7.15891e-05
4.51038e-06
6.96535e-05
3.69737e-06
6.79818e-05
3.0736e-06
6.65408e-05
2.57934e-06
6.52991e-05
2.17818e-06
6.42284e-05
1.84678e-06
6.3305e-05
1.56896e-06
6.25087e-05
1.33295e-06
6.18228e-05
1.12991e-06
6.12336e-05
9.53091e-07
6.07295e-05
7.97237e-07
6.0301e-05
6.58193e-07
5.99402e-05
5.32625e-07
5.96406e-05
4.17877e-07
5.9397e-05
3.11834e-07
5.92047e-05
2.12486e-07
5.90602e-05
1.18453e-07
5.89611e-05
2.78666e-08
5.89061e-05
-6.08682e-08
5.88939e-05
-1.48823e-07
5.89236e-05
-2.36292e-07
5.89937e-05
-3.25241e-07
5.91066e-05
-4.13916e-07
5.92549e-05
-5.11987e-07
5.94549e-05
-6.02332e-07
-7.25957e-07
5.96353e-05
7.81469e-05
8.33249e-06
8.19235e-05
1.32366e-05
8.46199e-05
1.21954e-05
8.6244e-05
1.04236e-05
8.69259e-05
8.56818e-06
8.7019e-05
7.01772e-06
8.67664e-05
5.8555e-06
8.63107e-05
4.9661e-06
8.57437e-05
4.2644e-06
8.51214e-05
3.69591e-06
8.44786e-05
3.22209e-06
8.38383e-05
2.81847e-06
8.32162e-05
2.46886e-06
8.26233e-05
2.16192e-06
8.20663e-05
1.88994e-06
8.15492e-05
1.64695e-06
8.10742e-05
1.4281e-06
8.06421e-05
1.22939e-06
8.02528e-05
1.04749e-06
7.99058e-05
8.79633e-07
7.96002e-05
7.23473e-07
7.9335e-05
5.77025e-07
7.91091e-05
4.38406e-07
7.89214e-05
3.06114e-07
7.87706e-05
1.78727e-07
7.86549e-05
5.47554e-08
7.85737e-05
-6.75585e-08
7.85263e-05
-1.88919e-07
7.85121e-05
-3.11035e-07
7.85321e-05
-4.33899e-07
7.85823e-05
-5.62256e-07
7.86703e-05
-6.90287e-07
-8.30054e-07
7.87744e-05
7.89918e-05
5.99654e-06
8.15921e-05
1.06363e-05
8.35195e-05
1.02679e-05
8.49638e-05
8.97933e-06
8.59821e-05
7.54987e-06
8.67232e-05
6.2766e-06
8.72897e-05
5.289e-06
8.77298e-05
4.52602e-06
8.80752e-05
3.91899e-06
8.83473e-05
3.42377e-06
8.85608e-05
3.00866e-06
8.87269e-05
2.65228e-06
8.88544e-05
2.34137e-06
8.89497e-05
2.06669e-06
8.90188e-05
1.82077e-06
8.90677e-05
1.59807e-06
8.91014e-05
1.39442e-06
8.91242e-05
1.20655e-06
8.91399e-05
1.0318e-06
8.91516e-05
8.67944e-07
8.9162e-05
7.13125e-07
8.91732e-05
5.65753e-07
8.91873e-05
4.24356e-07
8.92056e-05
2.87751e-07
8.92297e-05
1.54692e-07
8.92595e-05
2.48914e-08
8.92946e-05
-1.02645e-07
8.93349e-05
-2.29227e-07
8.93807e-05
-3.56798e-07
8.94328e-05
-4.85971e-07
8.94899e-05
-6.19427e-07
8.95548e-05
-7.55176e-07
-8.99193e-07
8.9624e-05
8.04634e-05
4.37903e-06
8.25064e-05
8.59331e-06
8.39937e-05
8.78069e-06
8.50545e-05
7.91854e-06
8.57786e-05
6.82578e-06
8.62943e-05
5.76089e-06
8.67028e-05
4.88049e-06
8.70512e-05
4.1776e-06
8.73626e-05
3.60763e-06
8.76483e-05
3.13801e-06
8.79134e-05
2.74361e-06
8.81601e-05
2.40561e-06
8.83904e-05
2.11103e-06
8.86063e-05
1.8508e-06
8.88089e-05
1.61821e-06
8.89989e-05
1.40804e-06
8.91771e-05
1.21619e-06
8.93443e-05
1.0394e-06
8.95011e-05
8.75008e-07
8.96482e-05
7.20824e-07
8.97863e-05
5.7502e-07
8.9916e-05
4.36038e-07
9.00378e-05
3.0251e-07
9.01524e-05
1.73232e-07
9.02598e-05
4.72085e-08
9.03614e-05
-7.66128e-08
9.04583e-05
-1.99616e-07
9.05516e-05
-3.22491e-07
9.06412e-05
-4.464e-07
9.07273e-05
-5.72101e-07
9.08094e-05
-7.01543e-07
9.08888e-05
-8.34564e-07
-9.75921e-07
9.09656e-05
8.22344e-05
3.24313e-06
8.38956e-05
6.93218e-06
8.51846e-05
7.49165e-06
8.61201e-05
6.98303e-06
8.67643e-05
6.18163e-06
8.7207e-05
5.31814e-06
8.75361e-05
4.55141e-06
8.78007e-05
3.91299e-06
8.80274e-05
3.38094e-06
8.82314e-05
2.93399e-06
8.84208e-05
2.55419e-06
8.85999e-05
2.22659e-06
8.87708e-05
1.94007e-06
8.89351e-05
1.68652e-06
8.90936e-05
1.45973e-06
8.92468e-05
1.25482e-06
8.93951e-05
1.06789e-06
8.95387e-05
8.95805e-07
8.96777e-05
7.35971e-07
8.98123e-05
5.86236e-07
8.99426e-05
4.44784e-07
9.00685e-05
3.1006e-07
9.01903e-05
1.80701e-07
9.03081e-05
5.54657e-08
9.04221e-05
-6.68161e-08
9.05327e-05
-1.87179e-07
9.06398e-05
-3.06702e-07
9.07435e-05
-4.26161e-07
9.08436e-05
-5.46518e-07
9.09401e-05
-6.68573e-07
9.10323e-05
-7.93809e-07
9.11206e-05
-9.22824e-07
-1.05878e-06
9.12034e-05
8.42169e-05
2.44178e-06
8.55516e-05
5.59742e-06
8.66751e-05
6.36823e-06
8.75344e-05
6.12365e-06
8.81629e-05
5.55322e-06
8.86131e-05
4.86784e-06
8.89506e-05
4.21398e-06
8.92187e-05
3.64482e-06
8.94432e-05
3.15646e-06
8.964e-05
2.73721e-06
8.98186e-05
2.37561e-06
8.99845e-05
2.0607e-06
9.01411e-05
1.78348e-06
9.02906e-05
1.53704e-06
9.04344e-05
1.3159e-06
9.05735e-05
1.11565e-06
9.07087e-05
9.32703e-07
9.08404e-05
7.64093e-07
9.0969e-05
6.07372e-07
9.10948e-05
4.6048e-07
9.12179e-05
3.21668e-07
9.13385e-05
1.89438e-07
9.14568e-05
6.24563e-08
9.15727e-05
-6.04449e-08
9.16862e-05
-1.80316e-07
9.17972e-05
-2.98159e-07
9.19054e-05
-4.14964e-07
9.20108e-05
-5.31488e-07
9.21128e-05
-6.48537e-07
9.22111e-05
-7.66872e-07
9.23049e-05
-8.87612e-07
9.23936e-05
-1.01155e-06
-1.14044e-06
9.24753e-05
8.63723e-05
1.86823e-06
8.74423e-05
4.52739e-06
8.84151e-05
5.39544e-06
8.91945e-05
5.34427e-06
8.97936e-05
4.95411e-06
9.0243e-05
4.41841e-06
9.05899e-05
3.86714e-06
9.08706e-05
3.36415e-06
9.11075e-05
2.91947e-06
9.13154e-05
2.5294e-06
9.15032e-05
2.18779e-06
9.16767e-05
1.8872e-06
9.18395e-05
1.62068e-06
9.1994e-05
1.38251e-06
9.21419e-05
1.16798e-06
9.22844e-05
9.73165e-07
9.24223e-05
7.94792e-07
9.25563e-05
6.30137e-07
9.26867e-05
4.76909e-07
9.2814e-05
3.33165e-07
9.29385e-05
1.97249e-07
9.30602e-05
6.77321e-08
9.31793e-05
-5.66368e-08
9.32958e-05
-1.76951e-07
9.34097e-05
-2.94201e-07
9.35208e-05
-4.09293e-07
9.36289e-05
-5.23069e-07
9.37336e-05
-6.36234e-07
9.38346e-05
-7.49478e-07
9.39311e-05
-8.63438e-07
9.40224e-05
-9.78866e-07
9.41072e-05
-1.09637e-06
-1.21661e-06
9.41834e-05
8.86678e-05
1.45047e-06
8.95257e-05
3.66943e-06
9.0365e-05
4.55618e-06
9.10688e-05
4.64042e-06
9.16343e-05
4.38861e-06
9.20766e-05
3.97612e-06
9.24276e-05
3.51619e-06
9.27162e-05
3.07547e-06
9.29621e-05
2.67361e-06
9.31783e-05
2.3132e-06
9.33737e-05
1.99242e-06
9.35539e-05
1.70695e-06
9.37228e-05
1.45182e-06
9.38828e-05
1.22251e-06
9.40357e-05
1.01509e-06
9.41827e-05
8.26155e-07
9.43247e-05
6.5278e-07
9.44623e-05
4.92479e-07
9.45961e-05
3.4313e-07
9.47264e-05
2.02914e-07
9.48533e-05
7.02694e-08
9.49772e-05
-5.61553e-08
9.50981e-05
-1.77533e-07
9.52161e-05
-2.94886e-07
9.5331e-05
-4.0912e-07
9.54427e-05
-5.21046e-07
9.55511e-05
-6.31394e-07
9.56556e-05
-7.4077e-07
9.57558e-05
-8.49707e-07
9.5851e-05
-9.58659e-07
9.59402e-05
-1.06805e-06
9.6022e-05
-1.17818e-06
-1.28901e-06
9.60944e-05
9.10815e-05
1.14027e-06
9.17714e-05
2.97951e-06
9.24945e-05
3.83309e-06
9.31294e-05
4.00552e-06
9.36603e-05
3.85772e-06
9.40914e-05
3.54498e-06
9.44429e-05
3.16478e-06
9.47369e-05
2.78142e-06
9.49901e-05
2.42044e-06
9.5214e-05
2.08932e-06
9.54167e-05
1.78968e-06
9.56038e-05
1.51987e-06
9.57789e-05
1.2767e-06
9.59446e-05
1.05681e-06
9.61027e-05
8.57018e-07
9.62544e-05
6.74436e-07
9.64007e-05
5.06493e-07
9.65422e-05
3.50946e-07
9.66795e-05
2.05848e-07
9.68129e-05
6.95123e-08
9.69427e-05
-5.95195e-08
9.7069e-05
-1.82507e-07
9.7192e-05
-3.00541e-07
9.73117e-05
-4.14568e-07
9.7428e-05
-5.25411e-07
9.75407e-05
-6.33781e-07
9.76496e-05
-7.40286e-07
9.77543e-05
-8.45412e-07
9.78541e-05
-9.49543e-07
9.79484e-05
-1.05295e-06
9.80361e-05
-1.15578e-06
9.8116e-05
-1.25803e-06
-1.35922e-06
9.81862e-05
9.35998e-05
9.05079e-07
9.41575e-05
2.42184e-06
9.47799e-05
3.21074e-06
9.53514e-05
3.43399e-06
9.58474e-05
3.36169e-06
9.62648e-05
3.12762e-06
9.66145e-05
2.81509e-06
9.69126e-05
2.48326e-06
9.71725e-05
2.16054e-06
9.7404e-05
1.85786e-06
9.76143e-05
1.57941e-06
9.78085e-05
1.32566e-06
9.79902e-05
1.09498e-06
9.8162e-05
8.8505e-07
9.83256e-05
6.93413e-07
9.84823e-05
5.17679e-07
9.86332e-05
3.55629e-07
9.87789e-05
2.0527e-07
9.89199e-05
6.48377e-08
9.90566e-05
-6.72158e-08
9.91893e-05
-1.92237e-07
9.93182e-05
-3.11392e-07
9.94434e-05
-4.25689e-07
9.95648e-05
-5.35991e-07
9.96824e-05
-6.43034e-07
9.97961e-05
-7.47433e-07
9.99054e-05
-8.49684e-07
0.00010001
-9.5016e-07
0.00010011
-1.04911e-06
0.000100203
-1.14663e-06
0.00010029
-1.24266e-06
0.000100369
-1.33698e-06
-1.42886e-06
0.000100439
9.62142e-05
7.22927e-07
9.66682e-05
1.96785e-06
9.72042e-05
2.6748e-06
9.77182e-05
2.91993e-06
9.81804e-05
2.89956e-06
9.85822e-05
2.72582e-06
9.89279e-05
2.46938e-06
9.92282e-05
2.18288e-06
9.94935e-05
1.89528e-06
9.97317e-05
1.61963e-06
9.99492e-05
1.36195e-06
0.000100151
1.12433e-06
0.000100339
9.06442e-07
0.000100517
7.06896e-07
0.000100687
5.23884e-07
0.000100849
3.55483e-07
0.000101005
1.9981e-07
0.000101155
5.51132e-08
0.0001013
-8.01919e-08
0.00010144
-2.07513e-07
0.000101576
-3.28084e-07
0.000101708
-4.42977e-07
0.000101835
-5.53116e-07
0.000101958
-6.59279e-07
0.000102077
-7.62116e-07
0.000102192
-8.62152e-07
0.000102302
-9.59784e-07
0.000102407
-1.05528e-06
0.000102507
-1.14876e-06
0.000102601
-1.24021e-06
0.000102687
-1.32942e-06
0.000102766
-1.41599e-06
-1.49916e-06
0.000102837
9.89198e-05
5.78853e-07
9.92927e-05
1.59492e-06
9.97553e-05
2.21224e-06
0.000100218
2.45755e-06
0.000100647
2.4699e-06
0.000101032
2.34073e-06
0.000101372
2.12947e-06
0.000101673
1.88186e-06
0.000101943
1.62576e-06
0.000102187
1.37527e-06
0.000102412
1.13759e-06
0.00010262
9.15944e-07
0.000102815
7.11031e-07
0.000103
5.22223e-07
0.000103176
3.48279e-07
0.000103343
1.87692e-07
0.000103504
3.88891e-08
0.000103659
-9.96534e-08
0.000103808
-2.29345e-07
0.000103952
-3.51457e-07
0.000104091
-4.67116e-07
0.000104226
-5.77299e-07
0.000104355
-6.82843e-07
0.000104481
-7.84448e-07
0.000104601
-8.82682e-07
0.000104717
-9.77987e-07
0.000104828
-1.07067e-06
0.000104933
-1.16092e-06
0.000105033
-1.24877e-06
0.000105127
-1.3341e-06
0.000105215
-1.41664e-06
0.000105294
-1.4959e-06
-1.57116e-06
0.000105366
0.000101714
4.62554e-07
0.000102024
1.28529e-06
0.000102425
1.81141e-06
0.000102841
2.04113e-06
0.00010324
2.0706e-06
0.000103608
1.9726e-06
0.000103941
1.79654e-06
0.000104242
1.58145e-06
0.000104514
1.35306e-06
0.000104764
1.12561e-06
0.000104995
9.06878e-07
0.00010521
7.00823e-07
0.000105412
5.08886e-07
0.000105603
3.31046e-07
0.000105785
1.66531e-07
0.000105958
1.41917e-08
0.000106125
-1.27271e-07
0.000106284
-2.59172e-07
0.000106438
-3.8276e-07
0.000106585
-4.9918e-07
0.000106728
-6.09453e-07
0.000106865
-7.14468e-07
0.000106997
-8.1498e-07
0.000107124
-9.11614e-07
0.000107246
-1.00487e-06
0.000107363
-1.09511e-06
0.000107475
-1.18258e-06
0.000107582
-1.26739e-06
0.000107683
-1.34952e-06
0.000107777
-1.4288e-06
0.000107865
-1.50492e-06
0.000107947
-1.5774e-06
-1.64557e-06
0.000108021
0.000104596
3.66819e-07
0.000104856
1.02509e-06
0.000105206
1.46202e-06
0.000105582
1.66503e-06
0.000105953
1.69919e-06
0.000106305
1.6211e-06
0.00010663
1.47131e-06
0.000106929
1.28264e-06
0.000107204
1.07808e-06
0.000107458
8.71304e-07
0.000107695
6.70231e-07
0.000107916
4.79187e-07
0.000108125
3.00087e-07
0.000108323
1.33353e-07
0.000108511
-2.14265e-08
0.00010869
-1.65108e-07
0.000108862
-2.98764e-07
0.000109026
-4.23529e-07
0.000109184
-5.40511e-07
0.000109335
-6.50741e-07
0.000109481
-7.55143e-07
0.000109621
-8.54523e-07
0.000109756
-9.49564e-07
0.000109885
-1.04082e-06
0.000110009
-1.12873e-06
0.000110127
-1.2136e-06
0.00011024
-1.29562e-06
0.000110348
-1.37486e-06
0.000110449
-1.45125e-06
0.000110545
-1.52462e-06
0.000110635
-1.59465e-06
0.000110718
-1.66091e-06
-1.72285e-06
0.000110796
0.000107566
2.86509e-07
0.000107788
8.03505e-07
0.000108095
1.15512e-06
0.000108436
1.32388e-06
0.000108782
1.35291e-06
0.000109118
1.28532e-06
0.000109435
1.15394e-06
0.000109732
9.85959e-07
0.000110009
8.01378e-07
0.000110267
6.12854e-07
0.000110509
4.28021e-07
0.000110737
2.51273e-07
0.000110953
8.47628e-08
0.000111157
-7.08094e-08
0.000111351
-2.15601e-07
0.000111536
-3.50253e-07
0.000111713
-4.75658e-07
0.000111882
-5.92806e-07
0.000112044
-7.02685e-07
0.0001122
-8.06225e-07
0.000112349
-9.0427e-07
0.000112492
-9.97551e-07
0.000112629
-1.08669e-06
0.000112761
-1.17217e-06
0.000112886
-1.2544e-06
0.000113006
-1.33362e-06
0.000113121
-1.40999e-06
0.000113229
-1.48355e-06
0.000113332
-1.55423e-06
0.00011343
-1.62185e-06
0.000113521
-1.68613e-06
0.000113607
-1.7467e-06
-1.80313e-06
0.000113687
0.000110626
2.17878e-07
0.000110817
6.12028e-07
0.000111089
8.82932e-07
0.000111401
1.01251e-06
0.000111725
1.02875e-06
0.000112046
9.63891e-07
0.000112356
8.44092e-07
0.00011265
6.9156e-07
0.000112928
5.2329e-07
0.000113191
3.50579e-07
0.000113438
1.80489e-07
0.000113672
1.72251e-08
0.000113894
-1.37029e-07
0.000114105
-2.81448e-07
0.000114305
-4.16043e-07
0.000114496
-5.41317e-07
0.000114679
-6.58036e-07
0.000114853
-7.67082e-07
0.00011502
-8.69351e-07
0.000115179
-9.65695e-07
0.000115332
-1.05689e-06
0.000115478
-1.1436e-06
0.000115617
-1.22639e-06
0.000115751
-1.30572e-06
0.000115878
-1.38192e-06
0.000116
-1.45523e-06
0.000116116
-1.52577e-06
0.000116226
-1.59358e-06
0.00011633
-1.65857e-06
0.000116429
-1.7206e-06
0.000116522
-1.77944e-06
0.00011661
-1.83479e-06
-1.88633e-06
0.000116694
0.000113775
1.58132e-07
0.000113943
4.43945e-07
0.000114187
6.38772e-07
0.000114474
7.26045e-07
0.000114779
7.23584e-07
0.000115088
6.55054e-07
0.000115391
5.4097e-07
0.000115683
3.99176e-07
0.000115963
2.43776e-07
0.000116229
8.4517e-08
0.000116482
-7.23316e-08
0.000116722
-2.2296e-07
0.00011695
-3.65332e-07
0.000117168
-4.98638e-07
0.000117374
-6.2285e-07
0.000117571
-7.38407e-07
0.000117759
-8.46007e-07
0.000117939
-9.46464e-07
0.00011811
-1.04061e-06
0.000118274
-1.12924e-06
0.00011843
-1.21307e-06
0.000118579
-1.29273e-06
0.000118721
-1.36875e-06
0.000118857
-1.44152e-06
0.000118987
-1.51137e-06
0.00011911
-1.57851e-06
0.000119227
-1.64304e-06
0.000119338
-1.705e-06
0.000119444
-1.76432e-06
0.000119545
-1.82089e-06
0.00011964
-1.87454e-06
0.00011973
-1.92502e-06
-1.97214e-06
0.000119816
0.000117017
1.05129e-07
0.000117167
2.93875e-07
0.000117389
4.16839e-07
0.000117656
4.59895e-07
0.000117945
4.34161e-07
0.000118243
3.56721e-07
0.000118541
2.4336e-07
0.000118832
1.08147e-07
0.000119113
-3.75233e-08
0.000119383
-1.85539e-07
0.000119642
-3.30583e-07
0.000119888
-4.69404e-07
0.000120123
-6.00266e-07
0.000120347
-7.22502e-07
0.00012056
-8.36143e-07
0.000120763
-9.4164e-07
0.000120957
-1.03968e-06
0.000121142
-1.13104e-06
0.000121317
-1.21654e-06
0.000121485
-1.29692e-06
0.000121645
-1.37287e-06
0.000121797
-1.445e-06
0.000121942
-1.51378e-06
0.00012208
-1.5796e-06
0.000122212
-1.64276e-06
0.000122337
-1.70345e-06
0.000122455
-1.76178e-06
0.000122568
-1.81778e-06
0.000122675
-1.87142e-06
0.000122777
-1.92262e-06
0.000122874
-1.97123e-06
0.000122966
-2.01711e-06
-2.06013e-06
0.000123054
0.000120354
5.71776e-08
0.00012049
1.57423e-07
0.000120695
2.12059e-07
0.000120945
2.09694e-07
0.000121222
1.5713e-07
0.000121513
6.64845e-08
0.000121806
-5.03731e-08
0.000122097
-1.82629e-07
0.000122381
-3.21376e-07
0.000122656
-4.6016e-07
0.00012292
-5.94725e-07
0.000123173
-7.22504e-07
0.000123415
-8.42189e-07
0.000123646
-9.53367e-07
0.000123866
-1.05622e-06
0.000124075
-1.15128e-06
0.000124275
-1.23928e-06
0.000124465
-1.32101e-06
0.000124646
-1.39729e-06
0.000124818
-1.46886e-06
0.000124981
-1.53639e-06
0.000125137
-1.60045e-06
0.000125284
-1.66152e-06
0.000125425
-1.71997e-06
0.000125558
-1.77608e-06
0.000125685
-1.83003e-06
0.000125805
-1.88193e-06
0.000125919
-1.93183e-06
0.000126027
-1.97972e-06
0.00012613
-2.02553e-06
0.000126228
-2.06917e-06
0.000126321
-2.11057e-06
-2.14961e-06
0.000126411
0.000123787
1.28955e-08
0.000123914
3.09073e-08
0.000124106
1.99235e-08
0.000124345
-2.87348e-08
0.000124613
-1.10962e-07
0.000124897
-2.18347e-07
0.000125189
-3.42234e-07
0.000125481
-4.7462e-07
0.000125769
-6.0887e-07
0.000126049
-7.40169e-07
0.000126319
-8.65395e-07
0.00012658
-9.82766e-07
0.000126829
-1.09151e-06
0.000127067
-1.19156e-06
0.000127294
-1.28335e-06
0.000127511
-1.36754e-06
0.000127716
-1.44498e-06
0.000127912
-1.51651e-06
0.000128098
-1.58297e-06
0.000128274
-1.64513e-06
0.000128441
-1.70365e-06
0.0001286
-1.75911e-06
0.00012875
-1.81197e-06
0.000128893
-1.8626e-06
0.000129028
-1.91127e-06
0.000129156
-1.95815e-06
0.000129278
-2.00337e-06
0.000129393
-2.04697e-06
0.000129502
-2.08897e-06
0.000129606
-2.12932e-06
0.000129705
-2.16799e-06
0.000129799
-2.20491e-06
-2.24003e-06
0.000129889
0.00012732
-2.89041e-08
0.00012744
-8.88717e-08
0.000127624
-1.637e-07
0.000127854
-2.59484e-07
0.000128117
-3.73746e-07
0.0001284
-5.00827e-07
0.000128692
-6.34714e-07
0.000128987
-7.6984e-07
0.00012928
-9.0165e-07
0.000129567
-1.02693e-06
0.000129845
-1.14374e-06
0.000130114
-1.25117e-06
0.000130371
-1.34907e-06
0.000130618
-1.43781e-06
0.000130852
-1.51814e-06
0.000131076
-1.59094e-06
0.000131288
-1.6572e-06
0.000131489
-1.71786e-06
0.00013168
-1.77383e-06
0.000131861
-1.8259e-06
0.000132032
-1.87478e-06
0.000132194
-1.92103e-06
0.000132347
-1.96513e-06
0.000132492
-2.00743e-06
0.000132629
-2.04821e-06
0.000132758
-2.08765e-06
0.000132881
-2.12586e-06
0.000132997
-2.1629e-06
0.000133107
-2.1988e-06
0.000133211
-2.23353e-06
0.00013331
-2.26706e-06
0.000133404
-2.29937e-06
-2.3304e-06
0.000133495
0.000130955
-6.92629e-08
0.000131071
-2.04806e-07
0.00013125
-3.42708e-07
0.000131477
-4.86627e-07
0.000131739
-6.35018e-07
0.000132022
-7.84284e-07
0.000132318
-9.30608e-07
0.000132619
-1.07058e-06
0.000132919
-1.20156e-06
0.000133214
-1.32193e-06
0.000133501
-1.43096e-06
0.000133778
-1.52867e-06
0.000134045
-1.61562e-06
0.0001343
-1.69272e-06
0.000134543
-1.76107e-06
0.000134774
-1.82185e-06
0.000134993
-1.87622e-06
0.0001352
-1.92528e-06
0.000135396
-1.97001e-06
0.000135582
-2.01128e-06
0.000135757
-2.04981e-06
0.000135922
-2.08621e-06
0.000136078
-2.12094e-06
0.000136225
-2.15438e-06
0.000136363
-2.18679e-06
0.000136494
-2.21835e-06
0.000136617
-2.24919e-06
0.000136734
-2.27936e-06
0.000136844
-2.30888e-06
0.000136948
-2.33775e-06
0.000137047
-2.36595e-06
0.000137141
-2.39347e-06
-2.42025e-06
0.000137231
0.000134695
-1.09178e-07
0.00013481
-3.19679e-07
0.000134988
-5.20997e-07
0.000135216
-7.1447e-07
0.00013548
-8.99045e-07
0.000135769
-1.07272e-06
0.000136071
-1.23354e-06
0.000136381
-1.38005e-06
0.000136691
-1.51143e-06
0.000136996
-1.62762e-06
0.000137295
-1.72915e-06
0.000137583
-1.81707e-06
0.00013786
-1.8927e-06
0.000138125
-1.95755e-06
0.000138377
-2.01318e-06
0.000138616
-2.06109e-06
0.000138843
-2.10269e-06
0.000139057
-2.13924e-06
0.000139259
-2.17185e-06
0.000139449
-2.20146e-06
0.000139628
-2.22884e-06
0.000139796
-2.25463e-06
0.000139955
-2.27931e-06
0.000140103
-2.30325e-06
0.000140243
-2.32673e-06
0.000140375
-2.34992e-06
0.000140499
-2.37293e-06
0.000140615
-2.39583e-06
0.000140725
-2.41861e-06
0.000140828
-2.44129e-06
0.000140926
-2.46382e-06
0.000141019
-2.48618e-06
-2.50829e-06
0.000141107
0.000138543
-1.49644e-07
0.000138659
-4.36279e-07
0.000138841
-7.0253e-07
0.000139074
-9.47454e-07
0.000139345
-1.17025e-06
0.000139643
-1.37023e-06
0.000139956
-1.54713e-06
0.000140277
-1.70135e-06
0.0001406
-1.83385e-06
0.000140918
-1.94615e-06
0.000141229
-2.04011e-06
0.00014153
-2.11783e-06
0.000141819
-2.1815e-06
0.000142095
-2.2333e-06
0.000142357
-2.27528e-06
0.000142605
-2.30933e-06
0.000142839
-2.33713e-06
0.00014306
-2.36016e-06
0.000143268
-2.37966e-06
0.000143463
-2.39667e-06
0.000143647
-2.41201e-06
0.000143818
-2.42637e-06
0.000143979
-2.44024e-06
0.00014413
-2.45401e-06
0.000144271
-2.46793e-06
0.000144403
-2.48219e-06
0.000144527
-2.49687e-06
0.000144644
-2.51203e-06
0.000144753
-2.52767e-06
0.000144855
-2.54376e-06
0.000144952
-2.56027e-06
0.000145043
-2.57717e-06
-2.59435e-06
0.000145129
0.000142501
-1.91763e-07
0.000142623
-5.57727e-07
0.000142812
-8.91902e-07
0.000143056
-1.19102e-06
0.00014334
-1.45443e-06
0.000143652
-1.68262e-06
0.000143982
-1.87694e-06
0.00014432
-2.0396e-06
0.00014466
-2.17342e-06
0.000144995
-2.28153e-06
0.000145322
-2.36723e-06
0.000145638
-2.43379e-06
0.000145941
-2.48433e-06
0.00014623
-2.52178e-06
0.000146503
-2.54876e-06
0.000146761
-2.56759e-06
0.000147005
-2.58027e-06
0.000147233
-2.5885e-06
0.000147447
-2.59368e-06
0.000147647
-2.59696e-06
0.000147834
-2.59923e-06
0.000148009
-2.6012e-06
0.000148172
-2.6034e-06
0.000148325
-2.6062e-06
0.000148467
-2.60986e-06
0.000148599
-2.61453e-06
0.000148722
-2.6203e-06
0.000148838
-2.6272e-06
0.000148945
-2.63519e-06
0.000149045
-2.64422e-06
0.000149139
-2.65422e-06
0.000149227
-2.66512e-06
-2.67676e-06
0.00014931
0.000146574
-2.36701e-07
0.000146704
-6.87322e-07
0.000146906
-1.0938e-06
0.000147165
-1.45043e-06
0.000147468
-1.75683e-06
0.0001478
-2.01478e-06
0.00014815
-2.22734e-06
0.000148509
-2.39868e-06
0.000148869
-2.53351e-06
0.000149225
-2.63674e-06
0.00014957
-2.71315e-06
0.000149904
-2.76726e-06
0.000150223
-2.80323e-06
0.000150526
-2.82479e-06
0.000150812
-2.83519e-06
0.000151082
-2.83722e-06
0.000151335
-2.83324e-06
0.000151572
-2.8252e-06
0.000151792
-2.81467e-06
0.000151998
-2.80293e-06
0.00015219
-2.79094e-06
0.000152368
-2.77945e-06
0.000152534
-2.76898e-06
0.000152688
-2.75993e-06
0.00015283
-2.75252e-06
0.000152963
-2.7469e-06
0.000153086
-2.74311e-06
0.0001532
-2.74114e-06
0.000153305
-2.74095e-06
0.000153404
-2.74244e-06
0.000153495
-2.7455e-06
0.00015358
-2.75007e-06
-2.7559e-06
0.000153659
0.000150765
-2.86171e-07
0.000150908
-8.29875e-07
0.000151129
-1.31546e-06
0.000151413
-1.73449e-06
0.000151744
-2.08703e-06
0.000152105
-2.37637e-06
0.000152485
-2.60748e-06
0.000152873
-2.78676e-06
0.000153261
-2.92117e-06
0.000153642
-3.01759e-06
0.000154011
-3.08249e-06
0.000154366
-3.12182e-06
0.000154703
-3.14086e-06
0.000155023
-3.14421e-06
0.000155324
-3.13581e-06
0.000155605
-3.11895e-06
0.000155868
-3.09637e-06
0.000156113
-3.07027e-06
0.000156341
-3.04242e-06
0.000156552
-3.01418e-06
0.000156748
-2.98659e-06
0.000156929
-2.96042e-06
0.000157096
-2.93622e-06
0.000157251
-2.91434e-06
0.000157393
-2.89499e-06
0.000157525
-2.87828e-06
0.000157646
-2.86421e-06
0.000157757
-2.85274e-06
0.00015786
-2.84375e-06
0.000157955
-2.83711e-06
0.000158042
-2.83265e-06
0.000158122
-2.83021e-06
-2.82948e-06
0.000158196
0.000155077
-3.41576e-07
0.000155237
-9.89515e-07
0.000155484
-1.5623e-06
0.000155798
-2.04885e-06
0.000156161
-2.45052e-06
0.000156558
-2.77269e-06
0.000156973
-3.02257e-06
0.000157395
-3.20907e-06
0.000157816
-3.3416e-06
0.000158227
-3.42918e-06
0.000158625
-3.48018e-06
0.000159005
-3.50208e-06
0.000159366
-3.50142e-06
0.000159705
-3.4838e-06
0.000160023
-3.45391e-06
0.00016032
-3.41561e-06
0.000160596
-3.37204e-06
0.000160851
-3.32568e-06
0.000161087
-3.27849e-06
0.000161305
-3.23194e-06
0.000161505
-3.18713e-06
0.00016169
-3.14485e-06
0.000161859
-3.10562e-06
0.000162015
-3.06978e-06
0.000162157
-3.03749e-06
0.000162288
-3.0088e-06
0.000162407
-2.98368e-06
0.000162516
-2.962e-06
0.000162616
-2.9436e-06
0.000162707
-2.92831e-06
0.000162791
-2.9159e-06
0.000162867
-2.90618e-06
-2.89879e-06
0.000162936
0.000159516
-4.07126e-07
0.000159704
-1.17714e-06
0.000159992
-1.85016e-06
0.000160355
-2.41183e-06
0.00016077
-2.86588e-06
0.000161218
-3.22075e-06
0.000161682
-3.48697e-06
0.00016215
-3.67696e-06
0.000162612
-3.80327e-06
0.00016306
-3.87753e-06
0.00016349
-3.91021e-06
0.000163899
-3.91048e-06
0.000164284
-3.88623e-06
0.000164644
-3.84406e-06
0.000164979
-3.78941e-06
0.00016529
-3.72671e-06
0.000165578
-3.65948e-06
0.000165843
-3.59047e-06
0.000166086
-3.52181e-06
0.000166309
-3.45506e-06
0.000166513
-3.39134e-06
0.0001667
-3.33145e-06
0.00016687
-3.27588e-06
0.000167025
-3.22491e-06
0.000167166
-3.17864e-06
0.000167295
-3.13706e-06
0.000167411
-3.10005e-06
0.000167517
-3.06743e-06
0.000167612
-3.03896e-06
0.000167698
-3.01438e-06
0.000167775
-2.99337e-06
0.000167845
-2.97565e-06
-2.96075e-06
0.000167907
0.000164082
-4.82611e-07
0.000164299
-1.39487e-06
0.00016463
-2.18119e-06
0.000165045
-2.82606e-06
0.000165516
-3.3377e-06
0.000166024
-3.7279e-06
0.000166547
-4.01054e-06
0.000167072
-4.20202e-06
0.000167588
-4.3186e-06
0.000168085
-4.37499e-06
0.000168559
-4.38423e-06
0.000169006
-4.35758e-06
0.000169424
-4.30452e-06
0.000169813
-4.23283e-06
0.000170173
-4.14885e-06
0.000170503
-4.0576e-06
0.000170807
-3.96302e-06
0.000171085
-3.86812e-06
0.000171338
-3.77514e-06
0.000171569
-3.68571e-06
0.000171778
-3.60095e-06
0.000171968
-3.52162e-06
0.000172141
-3.44811e-06
0.000172296
-3.38064e-06
0.000172437
-3.31921e-06
0.000172564
-3.2637e-06
0.000172677
-3.21391e-06
0.00017278
-3.16958e-06
0.000172871
-3.13038e-06
0.000172953
-3.09599e-06
0.000173025
-3.06603e-06
0.00017309
-3.04018e-06
-3.01788e-06
0.000173147
0.000168794
-5.85222e-07
0.000169078
-1.67828e-06
0.000169496
-2.59898e-06
0.000170002
-3.33286e-06
0.000170564
-3.89922e-06
0.000171153
-4.31735e-06
0.00017175
-4.60743e-06
0.00017234
-4.7916e-06
0.000172912
-4.89033e-06
0.000173458
-4.92153e-06
0.000173975
-4.90075e-06
0.000174458
-4.84124e-06
0.000174908
-4.75398e-06
0.000175323
-4.64789e-06
0.000175704
-4.53012e-06
0.000176053
-4.40627e-06
0.00017637
-4.28066e-06
0.000176659
-4.15654e-06
0.00017692
-4.03627e-06
0.000177156
-3.92151e-06
0.000177368
-3.81335e-06
0.000177559
-3.71246e-06
0.00017773
-3.61917e-06
0.000177883
-3.53353e-06
0.000178019
-3.45546e-06
0.00017814
-3.38471e-06
0.000178247
-3.32096e-06
0.000178341
-3.26383e-06
0.000178424
-3.21292e-06
0.000178496
-3.16778e-06
0.000178558
-3.12794e-06
0.000178611
-3.09296e-06
-3.06214e-06
0.000178655
0.000173622
-6.9621e-07
0.000173952
-2.00757e-06
0.00017444
-3.08786e-06
0.000175039
-3.93137e-06
0.000175707
-4.56706e-06
0.000176408
-5.01847e-06
0.000177114
-5.31339e-06
0.000177805
-5.48251e-06
0.000178467
-5.55274e-06
0.000179092
-5.54672e-06
0.000179675
-5.4837e-06
0.000180214
-5.37966e-06
0.000180707
-5.24748e-06
0.000181157
-5.0974e-06
0.000181564
-4.93744e-06
0.000181932
-4.77375e-06
0.000182262
-4.61094e-06
0.000182558
-4.45237e-06
0.000182822
-4.30043e-06
0.000183057
-4.15667e-06
0.000183266
-4.02206e-06
0.00018345
-3.89709e-06
0.000183613
-3.7819e-06
0.000183756
-3.67637e-06
0.000183881
-3.58021e-06
0.000183989
-3.49302e-06
0.000184082
-3.41431e-06
0.000184162
-3.3436e-06
0.00018423
-3.28037e-06
0.000184286
-3.22413e-06
0.000184332
-3.17436e-06
0.00018437
-3.13063e-06
-3.09209e-06
0.0001844
0.000178681
-9.09004e-07
0.000179187
-2.51335e-06
0.000179856
-3.75692e-06
0.000180609
-4.68456e-06
0.000181405
-5.363e-06
0.000182212
-5.82502e-06
0.000183005
-6.10688e-06
0.00018377
-6.24672e-06
0.000184493
-6.27624e-06
0.000185168
-6.22207e-06
0.000185792
-6.10699e-06
0.000186362
-5.9496e-06
0.000186879
-5.76476e-06
0.000187346
-5.56406e-06
0.000187765
-5.35643e-06
0.000188139
-5.14853e-06
0.000188474
-4.94521e-06
0.000188771
-4.74985e-06
0.000189035
-4.56473e-06
0.00018927
-4.39123e-06
0.000189478
-4.23004e-06
0.000189662
-4.08139e-06
0.000189825
-3.94513e-06
0.00018997
-3.82086e-06
0.000190098
-3.70801e-06
0.000190211
-3.60595e-06
0.00019031
-3.51399e-06
0.000190398
-3.43146e-06
0.000190476
-3.35774e-06
0.000190544
-3.29223e-06
0.000190604
-3.23444e-06
0.000190657
-3.18388e-06
-3.13968e-06
0.000190705
0.000183745
-1.08637e-06
0.000184333
-3.102e-06
0.000185162
-4.58518e-06
0.000186126
-5.64937e-06
0.000187146
-6.38259e-06
0.000188157
-6.83642e-06
0.000189127
-7.07678e-06
0.000190041
-7.16084e-06
0.000190894
-7.12923e-06
0.000191686
-7.01382e-06
0.000192419
-6.84024e-06
0.000193098
-6.62828e-06
0.000193726
-6.39306e-06
0.000194309
-6.1461e-06
0.000194848
-5.89604e-06
0.000195349
-5.64923e-06
0.000195814
-5.41027e-06
0.000196246
-5.18231e-06
0.000196649
-4.9674e-06
0.000197024
-4.76673e-06
0.000197375
-4.58083e-06
0.000197704
-4.4097e-06
0.000198011
-4.25301e-06
0.000198301
-4.11016e-06
0.000198573
-3.98038e-06
0.00019883
-3.86284e-06
0.000199073
-3.75667e-06
0.000199302
-3.66108e-06
0.00019952
-3.5754e-06
0.000199727
-3.49903e-06
0.000199924
-3.43187e-06
0.000200114
-3.37345e-06
-3.32436e-06
0.000200298
0.000189416
-1.69068e-06
0.0001904
-4.08602e-06
0.000191476
-5.66085e-06
0.000192628
-6.80112e-06