/*--------------------------------*- C++ -*----------------------------------*\
| =========                 |                                                 |
| \\      /  F ield         | OpenFOAM: The Open Source CFD Toolbox           |
|  \\    /   O peration     | Version:  2.1.1                                 |
|   \\  /    A nd           | Web:      www.OpenFOAM.org                      |
|    \\/     M anipulation  |                                                 |
\*---------------------------------------------------------------------------*/
FoamFile
{
    version     2.0;
    format      ascii;
    class       volVectorField;
    location    "0.19";
    object      U;
}
// * * * * * * * * * * * * * * * * * * * * * * * * * * * * * * * * * * * * * //

dimensions      [0 1 -1 0 0 0 0];

internalField   nonuniform List<vector> 
6820
(
(6.3761 0.503704 0)
(4.42481 0.286807 0)
(2.97475 0.0201299 0)
(2.23636 -0.0620165 0)
(1.97172 -0.0601208 0)
(1.84604 -0.0347118 0)
(1.77243 -0.0152926 0)
(1.72176 -0.00490491 0)
(1.68001 -0.000193647 0)
(1.64414 0.00132042 0)
(1.61359 0.00130488 0)
(1.58789 0.00069595 0)
(1.56656 -7.43084e-05 0)
(1.54907 -0.000817855 0)
(1.53494 -0.00146118 0)
(1.52373 -0.00198704 0)
(1.5151 -0.00240376 0)
(1.50876 -0.00272746 0)
(1.5045 -0.00297494 0)
(1.50216 -0.00315175 0)
(1.50167 -0.00328759 0)
(1.50289 -0.00352733 0)
(1.50576 -0.00372986 0)
(1.51026 -0.00386158 0)
(1.51637 -0.00397766 0)
(1.52415 -0.00412462 0)
(1.53358 -0.00433167 0)
(1.54492 -0.00454701 0)
(1.55772 -0.00488582 0)
(1.57378 -0.00479245 0)
(1.58752 -0.00583008 0)
(1.61572 0.000917424 0)
(1.59778 -0.0269219 0)
(8.72022 0.959487 0)
(8.76518 1.0116 0)
(7.97024 0.678546 0)
(7.05814 0.393328 0)
(6.35881 0.201766 0)
(5.85441 0.10253 0)
(5.49476 0.0569007 0)
(5.23603 0.0362367 0)
(5.04328 0.0268558 0)
(4.89435 0.0221211 0)
(4.77587 0.0191806 0)
(4.6795 0.0169792 0)
(4.59988 0.0151209 0)
(4.53345 0.01344 0)
(4.47776 0.011854 0)
(4.431 0.0103172 0)
(4.39188 0.00880371 0)
(4.35938 0.0072975 0)
(4.33274 0.00578665 0)
(4.31138 0.00425847 0)
(4.29479 0.00271604 0)
(4.28261 0.00109213 0)
(4.27462 -0.000556037 0)
(4.27061 -0.00231845 0)
(4.27041 -0.004185 0)
(4.2739 -0.00612075 0)
(4.28102 -0.00818658 0)
(4.2918 -0.0103624 0)
(4.30619 -0.0128915 0)
(4.32466 -0.0151514 0)
(4.34658 -0.0190263 0)
(4.37602 -0.0193293 0)
(4.40973 -0.0277622 0)
(8.58611 0.583284 0)
(9.33137 0.76175 0)
(9.61497 0.659176 0)
(9.50592 0.525252 0)
(9.2412 0.395444 0)
(8.93069 0.297333 0)
(8.62721 0.228248 0)
(8.35393 0.178565 0)
(8.11508 0.142293 0)
(7.90841 0.115251 0)
(7.73023 0.0945205 0)
(7.57672 0.0782383 0)
(7.44439 0.0651817 0)
(7.33026 0.0545165 0)
(7.23182 0.0456445 0)
(7.14696 0.0381179 0)
(7.07394 0.0315984 0)
(7.01132 0.0258296 0)
(6.95789 0.0206143 0)
(6.91266 0.0157971 0)
(6.87482 0.0112566 0)
(6.84368 0.00692101 0)
(6.8187 0.00268771 0)
(6.79941 -0.00154505 0)
(6.78541 -0.00584459 0)
(6.77656 -0.0102699 0)
(6.7727 -0.014901 0)
(6.77372 -0.0197511 0)
(6.77943 -0.0249626 0)
(6.78993 -0.0303562 0)
(6.80496 -0.0368923 0)
(6.82476 -0.0429538 0)
(6.84887 -0.0545433 0)
(8.44094 0.3795 0)
(8.94596 0.583439 0)
(9.3585 0.55351 0)
(9.58645 0.485531 0)
(9.70104 0.405113 0)
(9.73787 0.335479 0)
(9.72355 0.282487 0)
(9.68043 0.241803 0)
(9.6214 0.209773 0)
(9.55377 0.183801 0)
(9.48227 0.162028 0)
(9.41003 0.143317 0)
(9.33907 0.12695 0)
(9.27088 0.112421 0)
(9.20643 0.0993864 0)
(9.14628 0.08759 0)
(9.09076 0.0768209 0)
(9.04 0.0668983 0)
(8.99406 0.0576649 0)
(8.9529 0.0489827 0)
(8.91641 0.0407325 0)
(8.88451 0.0328046 0)
(8.85706 0.0250842 0)
(8.83394 0.0174991 0)
(8.81505 0.00994764 0)
(8.80017 0.00230111 0)
(8.78915 -0.00556865 0)
(8.78195 -0.0137199 0)
(8.7785 -0.0222891 0)
(8.7788 -0.0312364 0)
(8.78277 -0.04106 0)
(8.7903 -0.0510966 0)
(8.80205 -0.0627615 0)
(8.40215 0.279842 0)
(8.71908 0.480016 0)
(8.99912 0.460789 0)
(9.17476 0.402816 0)
(9.2994 0.340295 0)
(9.39302 0.287331 0)
(9.46236 0.247752 0)
(9.51561 0.217554 0)
(9.55763 0.193415 0)
(9.59079 0.173425 0)
(9.61686 0.156316 0)
(9.63722 0.141289 0)
(9.65303 0.127851 0)
(9.66498 0.115654 0)
(9.67377 0.104435 0)
(9.68005 0.0939855 0)
(9.68441 0.084143 0)
(9.68738 0.0747741 0)
(9.68939 0.0657667 0)
(9.6908 0.0570235 0)
(9.69193 0.0484593 0)
(9.69305 0.0399972 0)
(9.69438 0.0315616 0)
(9.6961 0.0230833 0)
(9.69836 0.0144821 0)
(9.70133 0.00570432 0)
(9.70486 -0.00328159 0)
(9.70894 -0.0125731 0)
(9.7136 -0.0223263 0)
(9.71892 -0.0326011 0)
(9.72484 -0.0436719 0)
(9.73149 -0.0553219 0)
(9.73883 -0.0682348 0)
(8.37749 0.201926 0)
(8.60147 0.382812 0)
(8.81615 0.389401 0)
(8.94747 0.354533 0)
(9.03368 0.309688 0)
(9.09682 0.265672 0)
(9.14414 0.22926 0)
(9.18288 0.200119 0)
(9.21726 0.17645 0)
(9.24867 0.156906 0)
(9.27769 0.140387 0)
(9.30468 0.126056 0)
(9.32983 0.113358 0)
(9.35338 0.101923 0)
(9.37548 0.0914568 0)
(9.39621 0.081728 0)
(9.41566 0.0725605 0)
(9.4339 0.0638146 0)
(9.451 0.0553759 0)
(9.46705 0.0471469 0)
(9.48211 0.0390431 0)
(9.49625 0.0309888 0)
(9.50954 0.0229096 0)
(9.52201 0.0147401 0)
(9.53376 0.00641741 0)
(9.54474 -0.00210731 0)
(9.5552 -0.0108741 0)
(9.56526 -0.0199799 0)
(9.57492 -0.029551 0)
(9.58422 -0.0396624 0)
(9.59309 -0.0505033 0)
(9.60167 -0.062041 0)
(9.60977 -0.0746931 0)
(8.36129 0.148527 0)
(8.52284 0.310524 0)
(8.6978 0.335605 0)
(8.81291 0.31552 0)
(8.88797 0.281746 0)
(8.9416 0.245002 0)
(8.97998 0.212775 0)
(9.00929 0.186262 0)
(9.03393 0.164292 0)
(9.05581 0.145816 0)
(9.07587 0.129986 0)
(9.09472 0.116133 0)
(9.11265 0.103785 0)
(9.12985 0.0926001 0)
(9.14642 0.082327 0)
(9.16242 0.0727722 0)
(9.17791 0.0637802 0)
(9.1929 0.0552208 0)
(9.20742 0.0469831 0)
(9.22148 0.0389703 0)
(9.23508 0.0310974 0)
(9.24825 0.023287 0)
(9.26098 0.015468 0)
(9.27328 0.00757054 0)
(9.28518 -0.000466768 0)
(9.29672 -0.00872152 0)
(9.3079 -0.0173067 0)
(9.31874 -0.0262929 0)
(9.32921 -0.0357568 0)
(9.33932 -0.0457655 0)
(9.34902 -0.0564658 0)
(9.35833 -0.0679114 0)
(9.36709 -0.0804565 0)
(8.35117 0.11106 0)
(8.46752 0.250617 0)
(8.60851 0.284862 0)
(8.71057 0.276067 0)
(8.78082 0.253127 0)
(8.83301 0.22507 0)
(8.87145 0.198321 0)
(8.9007 0.174981 0)
(8.9247 0.154778 0)
(8.94546 0.137229 0)
(8.96403 0.121874 0)
(8.98112 0.108266 0)
(8.99717 0.0960384 0)
(9.01241 0.0849145 0)
(9.02703 0.0746742 0)
(9.04115 0.0651346 0)
(9.05484 0.056143 0)
(9.06816 0.047571 0)
(9.08116 0.0393091 0)
(9.09386 0.0312625 0)
(9.10629 0.0233474 0)
(9.11846 0.0154879 0)
(9.13039 0.0076122 0)
(9.14209 -0.000349148 0)
(9.15355 -0.00846851 0)
(9.16476 -0.0168185 0)
(9.17572 -0.0254662 0)
(9.1864 -0.0344624 0)
(9.19677 -0.0438799 0)
(9.20679 -0.0537978 0)
(9.2164 -0.0643383 0)
(9.22554 -0.0755922 0)
(9.23409 -0.0877827 0)
(8.34488 0.0843515 0)
(8.42949 0.202633 0)
(8.54249 0.241908 0)
(8.63154 0.24195 0)
(8.69594 0.22713 0)
(8.74554 0.205469 0)
(8.78357 0.182813 0)
(8.81326 0.161998 0)
(8.83786 0.143453 0)
(8.8592 0.127025 0)
(8.87825 0.112453 0)
(8.89568 0.0994095 0)
(8.91194 0.0875994 0)
(8.9273 0.0767836 0)
(8.94196 0.0667673 0)
(8.95604 0.0573875 0)
(8.96964 0.0485084 0)
(8.98283 0.0400151 0)
(8.99566 0.0318083 0)
(9.00817 0.0238006 0)
(9.02039 0.0159136 0)
(9.03234 0.0080759 0)
(9.04403 0.000219953 0)
(9.05548 -0.00771816 0)
(9.06667 -0.0157992 0)
(9.0776 -0.0240831 0)
(9.08825 -0.0326357 0)
(9.0986 -0.0415215 0)
(9.1086 -0.0508102 0)
(9.11821 -0.0605694 0)
(9.12736 -0.0708861 0)
(9.13594 -0.0818399 0)
(9.14382 -0.0935485 0)
(8.34094 0.0650732 0)
(8.40317 0.164199 0)
(8.49357 0.20464 0)
(8.57056 0.21049 0)
(8.62906 0.201633 0)
(8.67566 0.185376 0)
(8.71269 0.166772 0)
(8.7423 0.148748 0)
(8.76708 0.132104 0)
(8.78865 0.116941 0)
(8.80792 0.103192 0)
(8.82554 0.0906864 0)
(8.84195 0.0792302 0)
(8.85743 0.0686474 0)
(8.87217 0.0587846 0)
(8.88631 0.0495065 0)
(8.89994 0.0406941 0)
(8.91313 0.0322427 0)
(8.92594 0.0240595 0)
(8.9384 0.0160615 0)
(8.95054 0.00817388 0)
(8.96238 0.000328235 0)
(8.97393 -0.00753904 0)
(8.98521 -0.0154868 0)
(8.99621 -0.0235727 0)
(9.00692 -0.0318547 0)
(9.01731 -0.04039 0)
(9.02737 -0.0492291 0)
(9.03706 -0.058422 0)
(9.0463 -0.0680188 0)
(9.05504 -0.0780772 0)
(9.06314 -0.0886509 0)
(9.0705 -0.0997807 0)
(8.33846 0.0508833 0)
(8.38482 0.133284 0)
(8.45719 0.172495 0)
(8.52341 0.182241 0)
(8.5763 0.178003 0)
(8.61979 0.166178 0)
(8.65544 0.151021 0)
(8.68464 0.135372 0)
(8.70938 0.120344 0)
(8.73105 0.106283 0)
(8.75049 0.093291 0)
(8.76828 0.081322 0)
(8.78483 0.070257 0)
(8.80043 0.0599661 0)
(8.81526 0.0503244 0)
(8.82946 0.0412155 0)
(8.84312 0.0325332 0)
(8.85632 0.0241826 0)
(8.86911 0.0160783 0)
(8.88153 0.00814393 0)
(8.8936 0.000309802 0)
(8.90536 -0.00748756 0)
(8.91681 -0.0153068 0)
(8.92795 -0.0232024 0)
(8.93878 -0.0312262 0)
(8.9493 -0.039427 0)
(8.95948 -0.0478507 0)
(8.96929 -0.0565395 0)
(8.9787 -0.0655334 0)
(8.98763 -0.0748683 0)
(8.99601 -0.0845756 0)
(9.00373 -0.0946784 0)
(9.01069 -0.105164 0)
(8.33688 0.0402278 0)
(8.3719 0.108353 0)
(8.42999 0.144839 0)
(8.48671 0.156777 0)
(8.53426 0.155768 0)
(8.5746 0.147323 0)
(8.60869 0.135048 0)
(8.63731 0.121571 0)
(8.66191 0.108144 0)
(8.68365 0.0952549 0)
(8.70324 0.0831094 0)
(8.72119 0.0717498 0)
(8.7379 0.0611259 0)
(8.75363 0.051155 0)
(8.76856 0.0417462 0)
(8.78284 0.0328077 0)
(8.79655 0.0242512 0)
(8.80977 0.0159943 0)
(8.82256 0.00796117 0)
(8.83494 8.20696e-05 0)
(8.84697 -0.00770706 0)
(8.85864 -0.0154647 0)
(8.86997 -0.0232447 0)
(8.88098 -0.0310965 0)
(8.89165 -0.0390659 0)
(8.90198 -0.0471947 0)
(8.91194 -0.055521 0)
(8.92151 -0.0640769 0)
(8.93064 -0.0728885 0)
(8.93928 -0.081974 0)
(8.94737 -0.091341 0)
(8.95479 -0.100984 0)
(8.96148 -0.11086 0)
(8.33584 0.0320563 0)
(8.36271 0.0881145 0)
(8.40955 0.121021 0)
(8.45803 0.133863 0)
(8.50062 0.135052 0)
(8.53789 0.129206 0)
(8.57026 0.119337 0)
(8.59811 0.107767 0)
(8.62243 0.0957739 0)
(8.64411 0.0839442 0)
(8.66378 0.0725709 0)
(8.68187 0.0617751 0)
(8.69872 0.051569 0)
(8.71459 0.0419134 0)
(8.72964 0.0327468 0)
(8.74401 0.0239983 0)
(8.75779 0.0155938 0)
(8.77106 0.00746144 0)
(8.78386 -0.000467118 0)
(8.79623 -0.00825537 0)
(8.80821 -0.0159618 0)
(8.81981 -0.02364 0)
(8.83105 -0.0313388 0)
(8.84193 -0.0391025 0)
(8.85245 -0.0469708 0)
(8.86259 -0.0549785 0)
(8.87236 -0.0631547 0)
(8.8817 -0.0715218 0)
(8.8906 -0.0800943 0)
(8.899 -0.088877 0)
(8.90685 -0.0978608 0)
(8.91405 -0.107022 0)
(8.92058 -0.116298 0)
(8.33514 0.0256557 0)
(8.35608 0.0715546 0)
(8.39411 0.100491 0)
(8.43554 0.113264 0)
(8.47358 0.115778 0)
(8.50789 0.111791 0)
(8.53848 0.103802 0)
(8.56542 0.0938251 0)
(8.58932 0.0830962 0)
(8.61088 0.0722531 0)
(8.63056 0.0616401 0)
(8.64874 0.0514281 0)
(8.66572 0.0416732 0)
(8.68172 0.0323691 0)
(8.69689 0.0234792 0)
(8.71135 0.0149508 0)
(8.7252 0.00672446 0)
(8.73851 -0.00126114 0)
(8.75132 -0.00906567 0)
(8.76368 -0.0167456 0)
(8.77561 -0.0243537 0)
(8.78714 -0.0319381 0)
(8.79828 -0.0395426 0)
(8.80903 -0.0472063 0)
(8.8194 -0.0549627 0)
(8.82937 -0.0628401 0)
(8.83894 -0.0708603 0)
(8.84809 -0.0790375 0)
(8.85677 -0.0873765 0)
(8.86496 -0.0958713 0)
(8.87262 -0.104501 0)
(8.87968 -0.113228 0)
(8.88612 -0.121986 0)
(8.33466 0.020538 0)
(8.35125 0.0578707 0)
(8.38237 0.0827351 0)
(8.41785 0.0947257 0)
(8.4518 0.0978657 0)
(8.48331 0.0951317 0)
(8.51212 0.0885817 0)
(8.53806 0.0799213 0)
(8.56146 0.0702919 0)
(8.58279 0.0603368 0)
(8.60242 0.0504256 0)
(8.62065 0.0407627 0)
(8.63772 0.0314389 0)
(8.65381 0.0224768 0)
(8.66908 0.0138621 0)
(8.68363 0.00555948 0)
(8.69755 -0.0024778 0)
(8.71089 -0.010301 0)
(8.72372 -0.0179621 0)
(8.73606 -0.0255114 0)
(8.74796 -0.0329963 0)
(8.75942 -0.0404602 0)
(8.77046 -0.0479422 0)
(8.7811 -0.0554761 0)
(8.79132 -0.0630907 0)
(8.80114 -0.0708081 0)
(8.81054 -0.078644 0)
(8.8195 -0.0866057 0)
(8.82801 -0.0946909 0)
(8.83603 -0.102886 0)
(8.84355 -0.111164 0)
(8.85051 -0.119482 0)
(8.85693 -0.127775 0)
(8.33432 0.0163639 0)
(8.34768 0.0464347 0)
(8.37341 0.0673025 0)
(8.40391 0.0780112 0)
(8.43421 0.0812184 0)
(8.46315 0.0792223 0)
(8.49023 0.0736955 0)
(8.51513 0.0660609 0)
(8.53795 0.0573396 0)
(8.55899 0.0481535 0)
(8.57851 0.0388786 0)
(8.59674 0.0297364 0)
(8.61387 0.0208398 0)
(8.63005 0.0122316 0)
(8.6454 0.0039135 0)
(8.66003 -0.00413699 0)
(8.674 -0.0119562 0)
(8.68738 -0.0195871 0)
(8.70022 -0.027075 0)
(8.71255 -0.0344647 0)
(8.7244 -0.0417985 0)
(8.73579 -0.0491153 0)
(8.74674 -0.0564496 0)
(8.75726 -0.063831 0)
(8.76735 -0.0712833 0)
(8.77701 -0.078824 0)
(8.78625 -0.0864638 0)
(8.79505 -0.0942049 0)
(8.80339 -0.102041 0)
(8.81127 -0.109953 0)
(8.81868 -0.117913 0)
(8.82559 -0.125877 0)
(8.83201 -0.133786 0)
(8.33408 0.0128937 0)
(8.34502 0.0367554 0)
(8.36653 0.0537971 0)
(8.3929 0.0628851 0)
(8.42003 0.0657195 0)
(8.44663 0.0640328 0)
(8.47207 0.0591678 0)
(8.49592 0.0522958 0)
(8.51812 0.0443059 0)
(8.53883 0.0357752 0)
(8.55821 0.0270675 0)
(8.5764 0.0184072 0)
(8.59356 0.00991816 0)
(8.6098 0.00165623 0)
(8.62522 -0.00636483 0)
(8.63991 -0.0141571 0)
(8.65393 -0.0217481 0)
(8.66734 -0.0291737 0)
(8.68018 -0.0364731 0)
(8.69249 -0.0436861 0)
(8.7043 -0.0508506 0)
(8.71562 -0.0580012 0)
(8.72648 -0.0651686 0)
(8.73689 -0.0723784 0)
(8.74685 -0.0796508 0)
(8.75637 -0.0869994 0)
(8.76546 -0.0944313 0)
(8.77411 -0.101946 0)
(8.78232 -0.109533 0)
(8.79008 -0.117174 0)
(8.7974 -0.124841 0)
(8.80427 -0.132492 0)
(8.81072 -0.140079 0)
(8.3339 0.00995466 0)
(8.34301 0.0284483 0)
(8.36122 0.0418753 0)
(8.38422 0.049124 0)
(8.40861 0.0512439 0)
(8.43312 0.0495128 0)
(8.45704 0.0449931 0)
(8.47989 0.0386366 0)
(8.50147 0.0312001 0)
(8.52182 0.0232019 0)
(8.54102 0.014982 0)
(8.55915 0.00675747 0)
(8.57631 -0.00134563 0)
(8.59259 -0.00926489 0)
(8.60807 -0.0169794 0)
(8.62282 -0.0244946 0)
(8.63688 -0.0318322 0)
(8.65031 -0.0390231 0)
(8.66316 -0.0461021 0)
(8.67544 -0.0531051 0)
(8.6872 -0.0600666 0)
(8.69846 -0.0670181 0)
(8.70922 -0.073987 0)
(8.71952 -0.0809962 0)
(8.72936 -0.0880628 0)
(8.73875 -0.0951981 0)
(8.7477 -0.102407 0)
(8.75621 -0.109686 0)
(8.76429 -0.117026 0)
(8.77194 -0.124409 0)
(8.77918 -0.131809 0)
(8.78601 -0.139192 0)
(8.79247 -0.146517 0)
(8.33376 0.00741919 0)
(8.34148 0.0212106 0)
(8.35714 0.0312405 0)
(8.37738 0.0365158 0)
(8.39944 0.0376583 0)
(8.42213 0.0355918 0)
(8.44469 0.031145 0)
(8.4666 0.0250814 0)
(8.48759 0.0180319 0)
(8.50758 0.0104488 0)
(8.52659 0.0026384 0)
(8.54465 -0.00519914 0)
(8.5618 -0.0129436 0)
(8.57812 -0.0205326 0)
(8.59364 -0.0279429 0)
(8.60843 -0.0351769 0)
(8.62254 -0.0422527 0)
(8.63599 -0.0491976 0)
(8.64883 -0.0560433 0)
(8.66109 -0.0628227 0)
(8.67281 -0.0695673 0)
(8.68399 -0.0763061 0)
(8.69467 -0.0830639 0)
(8.70486 -0.0898611 0)
(8.71458 -0.096713 0)
(8.72384 -0.103629 0)
(8.73265 -0.110613 0)
(8.74103 -0.117661 0)
(8.74898 -0.124765 0)
(8.75653 -0.131909 0)
(8.76369 -0.13907 0)
(8.77047 -0.146222 0)
(8.77692 -0.153333 0)
(8.33366 0.00519075 0)
(8.34033 0.0148009 0)
(8.35399 0.0216361 0)
(8.37202 0.0248602 0)
(8.39215 0.0248241 0)
(8.41327 0.0221846 0)
(8.43465 0.0175784 0)
(8.45571 0.01161 0)
(8.47615 0.00479466 0)
(8.49581 -0.00248426 0)
(8.51464 -0.00996027 0)
(8.53262 -0.0174562 0)
(8.54977 -0.0248638 0)
(8.56611 -0.0321262 0)
(8.58168 -0.0392221 0)
(8.59651 -0.0461539 0)
(8.61064 -0.052939 0)
(8.62411 -0.0596035 0)
(8.63695 -0.0661778 0)
(8.64918 -0.0726933 0)
(8.66085 -0.07918 0)
(8.67196 -0.0856654 0)
(8.68255 -0.0921731 0)
(8.69263 -0.0987221 0)
(8.70223 -0.105327 0)
(8.71136 -0.111995 0)
(8.72003 -0.118732 0)
(8.72828 -0.125534 0)
(8.73611 -0.132395 0)
(8.74355 -0.139301 0)
(8.75061 -0.146236 0)
(8.75733 -0.153179 0)
(8.76374 -0.160107 0)
(8.33358 0.00319433 0)
(8.33945 0.0090244 0)
(8.35158 0.0128395 0)
(8.36787 0.0139683 0)
(8.38642 0.0125984 0)
(8.40624 0.00919039 0)
(8.42662 0.00422628 0)
(8.44696 -0.00182328 0)
(8.46692 -0.00854718 0)
(8.4863 -0.0156308 0)
(8.50498 -0.0228516 0)
(8.5229 -0.0300607 0)
(8.54005 -0.0371673 0)
(8.55643 -0.0441247 0)
(8.57204 -0.0509176 0)
(8.58692 -0.0575517 0)
(8.60109 -0.0640459 0)
(8.61458 -0.0704268 0)
(8.62742 -0.0767247 0)
(8.63963 -0.0829702 0)
(8.65124 -0.0891927 0)
(8.66229 -0.0954188 0)
(8.67279 -0.101671 0)
(8.68276 -0.107968 0)
(8.69224 -0.114323 0)
(8.70123 -0.120745 0)
(8.70978 -0.127239 0)
(8.71788 -0.133802 0)
(8.72558 -0.140431 0)
(8.73289 -0.147116 0)
(8.73984 -0.153845 0)
(8.74646 -0.160603 0)
(8.7528 -0.167375 0)
(8.33352 0.00136911 0)
(8.3388 0.00371917 0)
(8.34977 0.00465382 0)
(8.36471 0.00366017 0)
(8.38202 0.000834882 0)
(8.40081 -0.00350112 0)
(8.42037 -0.00898806 0)
(8.44014 -0.0152663 0)
(8.45972 -0.0220164 0)
(8.47887 -0.0289899 0)
(8.49744 -0.0360098 0)
(8.51534 -0.0429592 0)
(8.53251 -0.049769 0)
(8.54893 -0.0564074 0)
(8.5646 -0.0628688 0)
(8.57953 -0.0691657 0)
(8.59373 -0.0753215 0)
(8.60724 -0.0813659 0)
(8.62007 -0.0873312 0)
(8.63225 -0.0932493 0)
(8.64382 -0.0991503 0)
(8.65479 -0.105061 0)
(8.66519 -0.111005 0)
(8.67505 -0.117 0)
(8.68441 -0.123061 0)
(8.69327 -0.129197 0)
(8.70167 -0.135414 0)
(8.70963 -0.141711 0)
(8.71718 -0.148087 0)
(8.72435 -0.154537 0)
(8.73116 -0.161051 0)
(8.73766 -0.167622 0)
(8.74388 -0.17424 0)
(8.33348 -0.000334504 0)
(8.33832 -0.00125172 0)
(8.34845 -0.00309783 0)
(8.3624 -0.00623867 0)
(8.37878 -0.0106216 0)
(8.39678 -0.0160232 0)
(8.41575 -0.0221801 0)
(8.4351 -0.0288259 0)
(8.45442 -0.0357232 0)
(8.47345 -0.0426868 0)
(8.49198 -0.0495866 0)
(8.50991 -0.05634 0)
(8.52714 -0.0629028 0)
(8.54364 -0.0692606 0)
(8.5594 -0.0754205 0)
(8.5744 -0.0814033 0)
(8.58866 -0.0872389 0)
(8.60219 -0.0929611 0)
(8.61503 -0.098605 0)
(8.62719 -0.104205 0)
(8.63871 -0.109791 0)
(8.64961 -0.115393 0)
(8.65992 -0.121034 0)
(8.66967 -0.126732 0)
(8.67889 -0.132504 0)
(8.68761 -0.138359 0)
(8.69585 -0.144304 0)
(8.70365 -0.150342 0)
(8.71103 -0.156473 0)
(8.71804 -0.162694 0)
(8.72468 -0.169002 0)
(8.73101 -0.175392 0)
(8.73706 -0.181857 0)
(8.33345 -0.00196039 0)
(8.338 -0.00601016 0)
(8.34755 -0.0105794 0)
(8.36081 -0.0158977 0)
(8.37656 -0.0219244 0)
(8.39405 -0.0285006 0)
(8.41263 -0.0354363 0)
(8.43173 -0.042542 0)
(8.45093 -0.0496518 0)
(8.46992 -0.0566405 0)
(8.48849 -0.0634256 0)
(8.5065 -0.0699617 0)
(8.52383 -0.0762339 0)
(8.54044 -0.0822502 0)
(8.55629 -0.0880343 0)
(8.57138 -0.0936203 0)
(8.5857 -0.0990473 0)
(8.59927 -0.104357 0)
(8.61211 -0.109588 0)
(8.62425 -0.114781 0)
(8.63572 -0.119968 0)
(8.64654 -0.12518 0)
(8.65675 -0.130441 0)
(8.66639 -0.135774 0)
(8.67547 -0.141193 0)
(8.68403 -0.14671 0)
(8.69211 -0.152334 0)
(8.69974 -0.15807 0)
(8.70694 -0.163918 0)
(8.71376 -0.169881 0)
(8.72022 -0.175956 0)
(8.72635 -0.182143 0)
(8.7322 -0.188438 0)
(8.33343 -0.00354965 0)
(8.33781 -0.0106709 0)
(8.34702 -0.0179529 0)
(8.3599 -0.0254991 0)
(8.37531 -0.0332639 0)
(8.39255 -0.0411325 0)
(8.41098 -0.0489754 0)
(8.43005 -0.05667 0)
(8.4493 -0.064116 0)
(8.46841 -0.071245 0)
(8.48714 -0.0780206 0)
(8.50533 -0.0844348 0)
(8.52285 -0.0905018 0)
(8.53963 -0.0962521 0)
(8.55564 -0.101727 0)
(8.57085 -0.106974 0)
(8.58526 -0.112042 0)
(8.59889 -0.116981 0)
(8.61175 -0.121837 0)
(8.62388 -0.126651 0)
(8.6353 -0.131463 0)
(8.64604 -0.136304 0)
(8.65615 -0.141203 0)
(8.66565 -0.146181 0)
(8.67458 -0.151256 0)
(8.68298 -0.156442 0)
(8.69087 -0.161749 0)
(8.6983 -0.167182 0)
(8.70529 -0.172747 0)
(8.71188 -0.178444 0)
(8.71811 -0.184277 0)
(8.724 -0.190245 0)
(8.72959 -0.196345 0)
(8.33342 -0.005141 0)
(8.33774 -0.015344 0)
(8.34684 -0.0253736 0)
(8.35961 -0.0352096 0)
(8.37496 -0.044784 0)
(8.39221 -0.0540071 0)
(8.41073 -0.0627939 0)
(8.42995 -0.0710799 0)
(8.44941 -0.0788267 0)
(8.46876 -0.086024 0)
(8.48775 -0.0926872 0)
(8.50619 -0.0988522 0)
(8.52395 -0.104569 0)
(8.54095 -0.109899 0)
(8.55714 -0.114905 0)
(8.5725 -0.119654 0)
(8.58702 -0.124208 0)
(8.60072 -0.128627 0)
(8.61362 -0.132965 0)
(8.62574 -0.137271 0)
(8.63711 -0.141586 0)
(8.64779 -0.145946 0)
(8.65779 -0.150381 0)
(8.66716 -0.154914 0)
(8.67594 -0.159565 0)
(8.68416 -0.164349 0)
(8.69186 -0.169275 0)
(8.69907 -0.174353 0)
(8.70584 -0.179586 0)
(8.7122 -0.184979 0)
(8.71818 -0.190534 0)
(8.72381 -0.196254 0)
(8.72914 -0.202136 0)
(8.33343 -0.00677569 0)
(8.3378 -0.0201504 0)
(8.34702 -0.0330305 0)
(8.35998 -0.0452787 0)
(8.37559 -0.0568068 0)
(8.39318 -0.0675488 0)
(8.41211 -0.0774619 0)
(8.43177 -0.0865344 0)
(8.45169 -0.0947831 0)
(8.47151 -0.102249 0)
(8.49094 -0.108992 0)
(8.50979 -0.115087 0)
(8.52792 -0.120617 0)
(8.54523 -0.12567 0)
(8.56168 -0.130332 0)
(8.57724 -0.134688 0)
(8.59191 -0.138816 0)
(8.60569 -0.142787 0)
(8.61863 -0.146665 0)
(8.63074 -0.150506 0)
(8.64207 -0.154357 0)
(8.65265 -0.158259 0)
(8.66253 -0.162244 0)
(8.67175 -0.16634 0)
(8.68034 -0.170567 0)
(8.68836 -0.174943 0)
(8.69583 -0.179478 0)
(8.7028 -0.184183 0)
(8.70931 -0.189062 0)
(8.71539 -0.194122 0)
(8.72107 -0.199363 0)
(8.72638 -0.204789 0)
(8.73136 -0.210396 0)
(8.33345 -0.00849829 0)
(8.33798 -0.0252105 0)
(8.34754 -0.0410763 0)
(8.36097 -0.055822 0)
(8.37713 -0.0693223 0)
(8.39532 -0.0815226 0)
(8.41488 -0.0924214 0)
(8.43518 -0.102069 0)
(8.45573 -0.110555 0)
(8.47615 -0.117988 0)
(8.49615 -0.124491 0)
(8.51551 -0.130193 0)
(8.53409 -0.135221 0)
(8.55179 -0.139698 0)
(8.56857 -0.143737 0)
(8.58438 -0.147444 0)
(8.59925 -0.150913 0)
(8.61317 -0.154227 0)
(8.62618 -0.157458 0)
(8.63831 -0.160668 0)
(8.64962 -0.163909 0)
(8.66013 -0.167224 0)
(8.6699 -0.170648 0)
(8.67897 -0.174209 0)
(8.68739 -0.17793 0)
(8.6952 -0.181827 0)
(8.70245 -0.185913 0)
(8.70918 -0.190196 0)
(8.71542 -0.194683 0)
(8.72121 -0.199378 0)
(8.72659 -0.204283 0)
(8.7316 -0.209402 0)
(8.73626 -0.214728 0)
(8.33348 -0.0103655 0)
(8.33833 -0.0307079 0)
(8.34855 -0.0498503 0)
(8.36286 -0.0674017 0)
(8.38005 -0.0832248 0)
(8.39934 -0.0972845 0)
(8.42001 -0.109608 0)
(8.44138 -0.120287 0)
(8.46294 -0.129455 0)
(8.48426 -0.137272 0)
(8.50506 -0.143909 0)
(8.52512 -0.149539 0)
(8.54429 -0.154332 0)
(8.56247 -0.158446 0)
(8.57962 -0.16203 0)
(8.59573 -0.165214 0)
(8.61079 -0.168115 0)
(8.62484 -0.170833 0)
(8.6379 -0.173454 0)
(8.65003 -0.176051 0)
(8.66127 -0.178685 0)
(8.67168 -0.181403 0)
(8.6813 -0.184246 0)
(8.69018 -0.187243 0)
(8.69838 -0.19042 0)
(8.70594 -0.193794 0)
(8.71291 -0.197378 0)
(8.71934 -0.201181 0)
(8.72526 -0.20521 0)
(8.73071 -0.209466 0)
(8.73573 -0.213953 0)
(8.74035 -0.21867 0)
(8.7446 -0.223609 0)
(8.33352 -0.0124371 0)
(8.3388 -0.0367579 0)
(8.34991 -0.0593564 0)
(8.36538 -0.0796585 0)
(8.38382 -0.0975065 0)
(8.40441 -0.112919 0)
(8.4264 -0.126014 0)
(8.44905 -0.136996 0)
(8.47181 -0.146108 0)
(8.49426 -0.153602 0)
(8.51608 -0.159724 0)
(8.53703 -0.164705 0)
(8.55698 -0.168762 0)
(8.57581 -0.172088 0)
(8.5935 -0.174853 0)
(8.61003 -0.17721 0)
(8.62541 -0.179287 0)
(8.63968 -0.181196 0)
(8.65288 -0.18303 0)
(8.66507 -0.184868 0)
(8.6763 -0.186771 0)
(8.68664 -0.188793 0)
(8.69614 -0.190974 0)
(8.70486 -0.193345 0)
(8.71286 -0.19593 0)
(8.72019 -0.198748 0)
(8.7269 -0.201811 0)
(8.73304 -0.205128 0)
(8.73865 -0.208703 0)
(8.74378 -0.212538 0)
(8.74846 -0.216633 0)
(8.75273 -0.22099 0)
(8.75664 -0.225594 0)
(8.3336 -0.0148265 0)
(8.33966 -0.0438286 0)
(8.35232 -0.0706804 0)
(8.36979 -0.0946835 0)
(8.3904 -0.115669 0)
(8.41317 -0.133629 0)
(8.43721 -0.148667 0)
(8.46173 -0.161013 0)
(8.48613 -0.170968 0)
(8.51 -0.178856 0)
(8.53301 -0.185001 0)
(8.55497 -0.189715 0)
(8.57572 -0.193282 0)
(8.59521 -0.195956 0)
(8.61339 -0.197961 0)
(8.63029 -0.199487 0)
(8.64593 -0.200697 0)
(8.66035 -0.201723 0)
(8.67362 -0.202678 0)
(8.68579 -0.20365 0)
(8.69695 -0.204711 0)
(8.70715 -0.205918 0)
(8.71646 -0.207314 0)
(8.72495 -0.208932 0)
(8.73269 -0.210796 0)
(8.73971 -0.212923 0)
(8.7461 -0.215324 0)
(8.75189 -0.218007 0)
(8.75712 -0.220975 0)
(8.76186 -0.224228 0)
(8.76612 -0.227762 0)
(8.76996 -0.231574 0)
(8.77339 -0.235649 0)
(8.33366 -0.0175956 0)
(8.34048 -0.0516965 0)
(8.35473 -0.0824994 0)
(8.37421 -0.109137 0)
(8.39701 -0.131655 0)
(8.4221 -0.15032 0)
(8.44851 -0.165478 0)
(8.47533 -0.177553 0)
(8.50189 -0.186981 0)
(8.52772 -0.194171 0)
(8.55246 -0.199506 0)
(8.57591 -0.203332 0)
(8.59792 -0.205963 0)
(8.61844 -0.207673 0)
(8.63745 -0.208699 0)
(8.65498 -0.209247 0)
(8.67109 -0.209489 0)
(8.68585 -0.20957 0)
(8.69932 -0.209608 0)
(8.7116 -0.209698 0)
(8.72277 -0.209918 0)
(8.73291 -0.210326 0)
(8.74211 -0.210968 0)
(8.75043 -0.211878 0)
(8.75794 -0.213079 0)
(8.76472 -0.21459 0)
(8.77082 -0.21642 0)
(8.77629 -0.218574 0)
(8.7812 -0.221054 0)
(8.78559 -0.223858 0)
(8.7895 -0.226981 0)
(8.79297 -0.230418 0)
(8.79607 -0.234148 0)
(8.3339 -0.021126 0)
(8.34275 -0.0624288 0)
(8.36059 -0.100003 0)
(8.38417 -0.132651 0)
(8.41093 -0.160176 0)
(8.43961 -0.182624 0)
(8.46914 -0.200318 0)
(8.49862 -0.213826 0)
(8.52742 -0.223785 0)
(8.55513 -0.230809 0)
(8.58144 -0.235466 0)
(8.60619 -0.238264 0)
(8.62925 -0.239645 0)
(8.65062 -0.239977 0)
(8.67028 -0.239571 0)
(8.6883 -0.238678 0)
(8.70475 -0.237504 0)
(8.7197 -0.236213 0)
(8.73326 -0.234934 0)
(8.74552 -0.233768 0)
(8.75657 -0.232792 0)
(8.76651 -0.232065 0)
(8.77544 -0.231627 0)
(8.78342 -0.23151 0)
(8.79055 -0.231733 0)
(8.79689 -0.232309 0)
(8.80251 -0.233245 0)
(8.80747 -0.234543 0)
(8.81183 -0.236201 0)
(8.81563 -0.238214 0)
(8.81893 -0.240576 0)
(8.82175 -0.243277 0)
(8.82415 -0.246289 0)
(8.33386 -0.0251557 0)
(8.34353 -0.0725803 0)
(8.36377 -0.113106 0)
(8.39075 -0.146496 0)
(8.42158 -0.173833 0)
(8.45478 -0.195788 0)
(8.4889 -0.21292 0)
(8.52267 -0.225878 0)
(8.55531 -0.235282 0)
(8.58632 -0.241699 0)
(8.6154 -0.245663 0)
(8.64236 -0.247666 0)
(8.66715 -0.248147 0)
(8.68979 -0.247493 0)
(8.71035 -0.246034 0)
(8.72894 -0.24405 0)
(8.74567 -0.24177 0)
(8.76068 -0.239384 0)
(8.7741 -0.237038 0)
(8.78607 -0.234849 0)
(8.7967 -0.232903 0)
(8.80613 -0.231265 0)
(8.81445 -0.229981 0)
(8.82177 -0.22908 0)
(8.82818 -0.228582 0)
(8.83376 -0.228497 0)
(8.83859 -0.228828 0)
(8.84273 -0.229575 0)
(8.84626 -0.230734 0)
(8.84922 -0.232297 0)
(8.85168 -0.234254 0)
(8.85368 -0.236596 0)
(8.85531 -0.239285 0)
(8.33497 -0.032003 0)
(8.35124 -0.0947164 0)
(8.38013 -0.149461 0)
(8.41455 -0.194137 0)
(8.45103 -0.229117 0)
(8.48868 -0.25522 0)
(8.52631 -0.273769 0)
(8.56287 -0.286244 0)
(8.59772 -0.293924 0)
(8.63046 -0.297881 0)
(8.66083 -0.299015 0)
(8.68871 -0.298063 0)
(8.71409 -0.295615 0)
(8.73705 -0.292141 0)
(8.7577 -0.288016 0)
(8.7762 -0.283532 0)
(8.79272 -0.278922 0)
(8.80744 -0.274362 0)
(8.82052 -0.26999 0)
(8.83213 -0.265907 0)
(8.84244 -0.262185 0)
(8.85157 -0.258877 0)
(8.85966 -0.256016 0)
(8.86682 -0.253622 0)
(8.87316 -0.251704 0)
(8.87876 -0.250266 0)
(8.88371 -0.249305 0)
(8.88808 -0.248817 0)
(8.89192 -0.248796 0)
(8.89531 -0.249238 0)
(8.89829 -0.250134 0)
(8.90092 -0.25148 0)
(8.90326 -0.253232 0)
(8.33402 -0.0369551 0)
(8.34978 -0.100791 0)
(8.38351 -0.150832 0)
(8.426 -0.191827 0)
(8.47175 -0.225763 0)
(8.51834 -0.252382 0)
(8.56367 -0.272135 0)
(8.60657 -0.285918 0)
(8.64672 -0.294584 0)
(8.68406 -0.299005 0)
(8.71866 -0.300067 0)
(8.75067 -0.298581 0)
(8.78031 -0.295253 0)
(8.80775 -0.290678 0)
(8.83317 -0.285344 0)
(8.85676 -0.279634 0)
(8.87865 -0.273847 0)
(8.899 -0.268206 0)
(8.91793 -0.262876 0)
(8.93557 -0.257972 0)
(8.95203 -0.253572 0)
(8.96743 -0.249723 0)
(8.98185 -0.24645 0)
(8.99539 -0.243762 0)
(9.00812 -0.241656 0)
(9.02012 -0.240121 0)
(9.03145 -0.239142 0)
(9.04216 -0.238707 0)
(9.0523 -0.238804 0)
(9.06193 -0.239425 0)
(9.07109 -0.240577 0)
(9.07986 -0.242262 0)
(9.08832 -0.244462 0)
(8.33958 -0.0610205 0)
(8.37692 -0.171356 0)
(8.42588 -0.250822 0)
(8.47533 -0.305046 0)
(8.52735 -0.341159 0)
(8.5835 -0.363564 0)
(8.64226 -0.376381 0)
(8.70234 -0.382712 0)
(8.76286 -0.384519 0)
(8.82273 -0.383131 0)
(8.88098 -0.379487 0)
(8.93685 -0.374255 0)
(8.98982 -0.367925 0)
(9.03953 -0.360876 0)
(9.08579 -0.353415 0)
(9.12854 -0.345791 0)
(9.16784 -0.338211 0)
(9.2038 -0.330844 0)
(9.23659 -0.323823 0)
(9.26642 -0.317252 0)
(9.29349 -0.311205 0)
(9.31802 -0.305733 0)
(9.34021 -0.300864 0)
(9.36027 -0.29661 0)
(9.37836 -0.292973 0)
(9.39464 -0.28994 0)
(9.40926 -0.2875 0)
(9.42231 -0.285638 0)
(9.43391 -0.284353 0)
(9.44413 -0.283643 0)
(9.45307 -0.283571 0)
(9.46076 -0.284141 0)
(9.46741 -0.28558 0)
(8.33757 -0.0469371 0)
(8.39333 -0.122224 0)
(8.49342 -0.187206 0)
(8.60807 -0.250158 0)
(8.72983 -0.304594 0)
(8.85319 -0.347345 0)
(8.9712 -0.379127 0)
(9.07969 -0.400814 0)
(9.1764 -0.413542 0)
(9.26006 -0.418878 0)
(9.33036 -0.41843 0)
(9.3877 -0.413643 0)
(9.4329 -0.405764 0)
(9.46704 -0.395826 0)
(9.49132 -0.384658 0)
(9.50695 -0.372903 0)
(9.51508 -0.361051 0)
(9.51678 -0.349463 0)
(9.51301 -0.338392 0)
(9.5046 -0.328011 0)
(9.49229 -0.318425 0)
(9.47669 -0.309687 0)
(9.45833 -0.301814 0)
(9.43765 -0.29479 0)
(9.41501 -0.288581 0)
(9.39069 -0.283137 0)
(9.36494 -0.278397 0)
(9.33793 -0.274299 0)
(9.30978 -0.27079 0)
(9.28052 -0.267829 0)
(9.25029 -0.265496 0)
(9.21872 -0.263709 0)
(9.18663 -0.263625 0)
(8.40929 -0.221767 0)
(8.63506 -0.42973 0)
(8.83302 -0.525028 0)
(8.97616 -0.586763 0)
(9.06873 -0.620731 0)
(9.10967 -0.632527 0)
(9.1032 -0.629711 0)
(9.05869 -0.616336 0)
(8.98496 -0.595221 0)
(8.88944 -0.56892 0)
(8.77859 -0.53948 0)
(8.65776 -0.50848 0)
(8.53113 -0.477139 0)
(8.40191 -0.446372 0)
(8.27246 -0.416827 0)
(8.1445 -0.388933 0)
(8.01921 -0.362949 0)
(7.89735 -0.339004 0)
(7.77939 -0.317129 0)
(7.66556 -0.297285 0)
(7.55594 -0.27939 0)
(7.45048 -0.263328 0)
(7.34906 -0.248963 0)
(7.2515 -0.236151 0)
(7.15761 -0.224739 0)
(7.06716 -0.214573 0)
(6.97993 -0.205487 0)
(6.89567 -0.197326 0)
(6.81414 -0.18989 0)
(6.73497 -0.183002 0)
(6.65779 -0.176524 0)
(6.58162 -0.169487 0)
(6.50673 -0.165876 0)
(8.13696 -0.207456 0)
(7.84684 -0.38884 0)
(7.38308 -0.44062 0)
(6.85553 -0.441605 0)
(6.35323 -0.410586 0)
(5.87906 -0.361866 0)
(5.43567 -0.307736 0)
(5.03045 -0.254601 0)
(4.66451 -0.205689 0)
(4.33587 -0.162625 0)
(4.0422 -0.125859 0)
(3.78067 -0.0951699 0)
(3.54811 -0.0700181 0)
(3.3414 -0.0497115 0)
(3.15754 -0.033523 0)
(2.99377 -0.0207652 0)
(2.84756 -0.0108243 0)
(2.71665 -0.00317146 0)
(2.59903 0.00263797 0)
(2.49293 0.00697162 0)
(2.39681 0.0101303 0)
(2.30933 0.0123585 0)
(2.22933 0.0138552 0)
(2.1558 0.0147828 0)
(2.08789 0.0152797 0)
(2.02489 0.015464 0)
(1.96615 0.0154678 0)
(1.91129 0.0154174 0)
(1.85972 0.0155681 0)
(1.81176 0.016235 0)
(1.76622 0.0178784 0)
(1.72589 0.023211 0)
(1.68761 0.0184127 0)