/*--------------------------------*- C++ -*----------------------------------*\
| =========                 |                                                 |
| \\      /  F ield         | OpenFOAM: The Open Source CFD Toolbox           |
|  \\    /   O peration     | Version:  2.1.1                                 |
|   \\  /    A nd           | Web:      www.OpenFOAM.org                      |
|    \\/     M anipulation  |                                                 |
\*---------------------------------------------------------------------------*/
FoamFile
{
    version     2.0;
    format      ascii;
    class       volScalarField;
    location    "0.08";
    object      epsilon;
}
// * * * * * * * * * * * * * * * * * * * * * * * * * * * * * * * * * * * * * //

dimensions      [0 2 -3 0 0 0 0];

internalField   nonuniform List<scalar> 
6820
(
151.448
203.151
260.735
321.761
383.628
443.723
499.76
550.028
593.471
629.647
658.621
680.834
696.958
707.791
714.158
716.855
716.61
714.065
709.767
704.176
697.667
690.541
683.037
675.341
667.595
659.904
652.341
644.973
637.749
631.068
623.085
622.568
587.466
11.7448
21.4176
29.9445
38.6261
47.5834
56.5629
65.3278
73.6771
81.4487
88.5344
94.8795
100.477
105.358
109.578
113.21
116.332
119.021
121.351
123.388
125.19
126.809
128.285
129.655
130.948
132.191
133.407
134.617
135.848
137.127
138.53
140.084
142.225
144.804
5.83781
7.51676
9.20651
10.8091
12.3195
13.747
15.0879
16.3387
17.4976
18.5645
19.5413
20.4315
21.2405
21.9748
22.6416
23.2487
23.8037
24.3141
24.787
25.2286
25.645
26.0412
26.4219
26.791
27.152
27.508
27.8616
28.2157
28.5725
28.9352
29.3083
29.6866
30.132
5.2423
5.56004
6.00442
6.49343
6.98561
7.46176
7.91276
8.33432
8.72476
9.08391
9.41252
9.71195
9.98387
10.2302
10.453
10.6542
10.8358
10.9998
11.1481
11.2823
11.4042
11.5152
11.6167
11.7099
11.7959
11.8758
11.9503
12.0202
12.0858
12.1476
12.205
12.2588
12.3053
5.17349
5.18677
5.26821
5.39775
5.55636
5.72966
5.90776
6.08423
6.25505
6.41777
6.57102
6.71409
6.84675
6.96905
7.08127
7.18382
7.2772
7.36196
7.43867
7.50794
7.57035
7.62646
7.67683
7.72199
7.76244
7.79864
7.83101
7.85996
7.88583
7.90893
7.92948
7.94774
7.96364
5.16878
5.12131
5.09603
5.09482
5.11536
5.15307
5.20299
5.26075
5.32293
5.38694
5.45091
5.51352
5.57386
5.6313
5.68546
5.73612
5.78318
5.82664
5.86654
5.90301
5.93618
5.96621
5.99329
6.0176
6.03935
6.05871
6.07589
6.09107
6.10445
6.11619
6.12647
6.13542
6.14322
5.16887
5.11169
5.06116
5.01963
4.9884
4.96754
4.95615
4.95279
4.95587
4.96387
4.97544
4.98948
5.00507
5.02149
5.03819
5.05472
5.07078
5.08612
5.10058
5.11404
5.12644
5.13774
5.14794
5.15704
5.16508
5.17211
5.17816
5.18331
5.18761
5.19115
5.19399
5.19618
5.19782
5.16902
5.11063
5.05514
5.00339
4.95619
4.91413
4.87746
4.8461
4.81971
4.79779
4.77978
4.76509
4.75316
4.74349
4.73562
4.72918
4.72385
4.71934
4.71544
4.71195
4.70875
4.7057
4.70271
4.69972
4.69667
4.69353
4.69027
4.68689
4.68336
4.67971
4.67593
4.67204
4.66805
5.16904
5.11054
5.05431
5.00049
4.94927
4.9009
4.85558
4.81344
4.77453
4.73879
4.70607
4.67619
4.64892
4.62401
4.60121
4.5803
4.56103
4.54322
4.52668
4.51124
4.49676
4.48311
4.47019
4.4579
4.44616
4.4349
4.42407
4.41362
4.40351
4.39371
4.3842
4.37495
4.36595
5.16904
5.11054
5.0542
5.00002
4.94795
4.89803
4.85026
4.8047
4.76136
4.72025
4.68135
4.64461
4.60996
4.57729
4.54652
4.51751
4.49016
4.46433
4.43992
4.41681
4.39489
4.37407
4.35427
4.33538
4.31735
4.3001
4.28357
4.26771
4.25247
4.23781
4.22369
4.21008
4.19693
5.16904
5.11053
5.05418
4.99994
4.94772
4.89747
4.84912
4.80263
4.75797
4.71511
4.67402
4.63465
4.59698
4.56095
4.52652
4.49361
4.46217
4.43213
4.40342
4.37597
4.34972
4.32459
4.30053
4.27747
4.25536
4.23413
4.21375
4.19415
4.1753
4.15716
4.13969
4.12285
4.10661
5.16904
5.11053
5.05417
4.99991
4.94767
4.89735
4.84887
4.80217
4.75717
4.71382
4.67206
4.63184
4.59312
4.55584
4.51996
4.48544
4.45223
4.42027
4.38953
4.35996
4.3315
4.30412
4.27775
4.25237
4.22793
4.20437
4.18167
4.15979
4.13869
4.11833
4.09868
4.07971
4.06139
5.16904
5.11052
5.05416
4.99989
4.94764
4.8973
4.8488
4.80205
4.75697
4.71349
4.67155
4.63109
4.59205
4.55437
4.518
4.4829
4.44902
4.41632
4.38475
4.35427
4.32484
4.29642
4.26897
4.24246
4.21685
4.1921
4.16819
4.14507
4.12273
4.10113
4.08023
4.06003
4.04047
5.16904
5.11052
5.05415
4.99988
4.94762
4.89727
4.84876
4.80199
4.75689
4.71338
4.6714
4.63087
4.59173
4.55394
4.51742
4.48214
4.44804
4.41508
4.38321
4.35239
4.32258
4.29375
4.26586
4.23887
4.21275
4.18746
4.16299
4.1393
4.11635
4.09414
4.07262
4.05177
4.03157
5.16903
5.11051
5.05414
4.99987
4.9476
4.89725
4.84873
4.80195
4.75684
4.71332
4.67131
4.63076
4.5916
4.55377
4.51721
4.48187
4.44771
4.41466
4.3827
4.35177
4.32183
4.29285
4.26479
4.23762
4.21131
4.18581
4.16111
4.13718
4.11398
4.09149
4.0697
4.04857
4.02807
5.16903
5.11051
5.05414
4.99986
4.94758
4.89723
4.8487
4.80191
4.75679
4.71326
4.67125
4.63069
4.59152
4.55367
4.5171
4.48174
4.44755
4.41448
4.38248
4.35151
4.32153
4.29251
4.2644
4.23716
4.21078
4.18521
4.16043
4.1364
4.11311
4.09052
4.06861
4.04736
4.02675
5.16903
5.1105
5.05413
4.99985
4.94757
4.89721
4.84867
4.80188
4.75675
4.71321
4.67119
4.63062
4.59144
4.55359
4.517
4.48164
4.44744
4.41435
4.38234
4.35136
4.32137
4.29232
4.26419
4.23694
4.21053
4.18494
4.16013
4.13607
4.11274
4.09012
4.06817
4.04688
4.02622
5.16903
5.1105
5.05412
4.99984
4.94756
4.89719
4.84865
4.80185
4.75672
4.71317
4.67114
4.63057
4.59138
4.55352
4.51692
4.48155
4.44734
4.41425
4.38223
4.35124
4.32124
4.29219
4.26405
4.23679
4.21037
4.18476
4.15994
4.13587
4.11253
4.08989
4.06793
4.04663
4.02595
5.16903
5.1105
5.05412
4.99983
4.94755
4.89718
4.84863
4.80183
4.75669
4.71313
4.6711
4.63052
4.59132
4.55345
4.51685
4.48147
4.44725
4.41415
4.38213
4.35113
4.32113
4.29207
4.26392
4.23665
4.21023
4.18462
4.15979
4.13571
4.11237
4.08972
4.06775
4.04644
4.02575
5.16903
5.1105
5.05412
4.99983
4.94754
4.89716
4.84861
4.8018
4.75666
4.7131
4.67106
4.63047
4.59127
4.55339
4.51678
4.48139
4.44717
4.41407
4.38204
4.35103
4.32102
4.29196
4.2638
4.23653
4.2101
4.18448
4.15965
4.13557
4.11222
4.08957
4.06759
4.04627
4.02558
5.16903
5.1105
5.05411
4.99982
4.94753
4.89715
4.8486
4.80178
4.75663
4.71307
4.67102
4.63043
4.59122
4.55333
4.51672
4.48133
4.4471
4.41399
4.38195
4.35094
4.32092
4.29185
4.26369
4.23641
4.20998
4.18436
4.15952
4.13543
4.11207
4.08942
4.06744
4.04611
4.02541
5.16903
5.11049
5.05411
4.99982
4.94752
4.89714
4.84858
4.80177
4.75661
4.71304
4.67099
4.63039
4.59117
4.55329
4.51667
4.48127
4.44703
4.41392
4.38187
4.35086
4.32083
4.29175
4.26359
4.2363
4.20986
4.18424
4.15939
4.1353
4.11193
4.08927
4.06729
4.04595
4.02525
5.16903
5.11049
5.05411
4.99981
4.94752
4.89713
4.84857
4.80175
4.75659
4.71302
4.67096
4.63036
4.59113
4.55324
4.51662
4.48121
4.44697
4.41385
4.3818
4.35078
4.32075
4.29166
4.26349
4.2362
4.20975
4.18412
4.15927
4.13517
4.1118
4.08913
4.06714
4.04579
4.02508
5.16903
5.11049
5.05411
4.99981
4.94751
4.89713
4.84856
4.80174
4.75657
4.713
4.67094
4.63033
4.5911
4.5532
4.51657
4.48116
4.44691
4.41379
4.38173
4.3507
4.32067
4.29158
4.2634
4.23611
4.20965
4.18401
4.15915
4.13505
4.11167
4.08899
4.06699
4.04564
4.02492
5.16903
5.11049
5.0541
4.9998
4.94751
4.89712
4.84855
4.80173
4.75656
4.71298
4.67091
4.6303
4.59107
4.55317
4.51653
4.48111
4.44686
4.41373
4.38167
4.35064
4.32059
4.2915
4.26332
4.23601
4.20955
4.18391
4.15904
4.13493
4.11154
4.08886
4.06685
4.04549
4.02475
5.16903
5.11049
5.0541
4.9998
4.9475
4.89711
4.84855
4.80172
4.75655
4.71296
4.6709
4.63028
4.59104
4.55314
4.5165
4.48108
4.44682
4.41368
4.38162
4.35058
4.32053
4.29143
4.26324
4.23593
4.20946
4.18381
4.15894
4.13482
4.11142
4.08873
4.06671
4.04534
4.0246
5.16903
5.11049
5.0541
4.9998
4.9475
4.89711
4.84854
4.80171
4.75653
4.71295
4.67088
4.63025
4.59102
4.55311
4.51646
4.48104
4.44678
4.41363
4.38156
4.35052
4.32047
4.29136
4.26317
4.23585
4.20938
4.18371
4.15883
4.13471
4.1113
4.0886
4.06657
4.0452
4.02444
5.16903
5.11049
5.0541
4.9998
4.9475
4.89711
4.84854
4.8017
4.75653
4.71294
4.67087
4.63024
4.591
4.55309
4.51644
4.48101
4.44675
4.4136
4.38153
4.35048
4.32042
4.29131
4.26311
4.23578
4.2093
4.18363
4.15875
4.13461
4.1112
4.08849
4.06645
4.04506
4.0243
5.16903
5.11049
5.0541
4.9998
4.9475
4.8971
4.84853
4.80169
4.75652
4.71293
4.67085
4.63022
4.59098
4.55306
4.51641
4.48098
4.44671
4.41356
4.38148
4.35043
4.32036
4.29125
4.26304
4.23572
4.20923
4.18355
4.15866
4.13452
4.1111
4.08838
4.06633
4.04494
4.02416
5.16903
5.11049
5.0541
4.9998
4.9475
4.89711
4.84854
4.8017
4.75653
4.71294
4.67087
4.63024
4.59099
4.55308
4.51642
4.48099
4.44672
4.41356
4.38148
4.35042
4.32035
4.29123
4.26302
4.23568
4.20919
4.18351
4.15861
4.13446
4.11103
4.0883
4.06625
4.04484
4.02406
5.16903
5.11049
5.0541
4.9998
4.9475
4.8971
4.84853
4.80169
4.75651
4.71292
4.67084
4.63021
4.59097
4.55305
4.5164
4.48096
4.44669
4.41353
4.38145
4.35039
4.32032
4.2912
4.26299
4.23565
4.20916
4.18347
4.15857
4.13442
4.11099
4.08826
4.0662
4.04479
4.024
5.16903
5.11049
5.0541
4.99981
4.94752
4.89714
4.84859
4.80176
4.7566
4.71302
4.67095
4.63032
4.59108
4.55316
4.51651
4.48107
4.4468
4.41364
4.38156
4.3505
4.32043
4.29131
4.2631
4.23577
4.20928
4.1836
4.15871
4.13456
4.11114
4.08842
4.06637
4.04497
4.0242
5.16903
5.11051
5.05414
4.99985
4.94756
4.89718
4.84861
4.80178
4.75661
4.71303
4.67096
4.63035
4.59112
4.55322
4.51659
4.48118
4.44693
4.41381
4.38176
4.35075
4.32073
4.29166
4.2635
4.23623
4.20981
4.1842
4.15938
4.13531
4.11197
4.08934
4.06738
4.04608
4.0254
5.16903
5.1105
5.05415
4.99992
4.9477
4.89739
4.8489
4.80215
4.75704
4.71353
4.67153
4.63099
4.59184
4.55404
4.51752
4.48224
4.44814
4.41519
4.38333
4.35252
4.32273
4.29391
4.26603
4.23904
4.21293
4.18764
4.16316
4.13944
4.11647
4.09422
4.07265
4.05175
4.03148
5.16905
5.11063
5.0544
5.00025
4.94809
4.89785
4.84947
4.80288
4.75802
4.71483
4.67324
4.6332
4.59464
4.55752
4.52176
4.48733
4.45416
4.4222
4.39141
4.36174
4.33314
4.30556
4.27896
4.2533
4.22854
4.20464
4.18157
4.15929
4.13776
4.11696
4.09685
4.07741
4.0586
5.16908
5.11079
5.05488
5.00137
4.95017
4.90121
4.85442
4.80974
4.76713
4.72652
4.68785
4.65104
4.61601
4.58267
4.55094
4.52073
4.49196
4.46454
4.4384
4.41346
4.38964
4.36689
4.34512
4.3243
4.30434
4.28522
4.26687
4.24925
4.23232
4.21603
4.20035
4.18526
4.1707
5.16939
5.11358
5.06201
5.01464
4.97149
4.93251
4.8975
4.86621
4.83831
4.81349
4.79141
4.77178
4.75431
4.73874
4.72484
4.7124
4.70123
4.69116
4.68205
4.67378
4.66622
4.65928
4.65287
4.64693
4.64137
4.63614
4.6312
4.62649
4.62198
4.61764
4.61344
4.60935
4.60534
5.17809
5.16328
5.16952
5.19123
5.22444
5.26613
5.31391
5.36588
5.42063
5.47707
5.53435
5.59182
5.64897
5.70543
5.76088
5.81511
5.86795
5.9193
5.96907
6.01721
6.06369
6.10851
6.15168
6.1932
6.23312
6.27145
6.30824
6.34354
6.37738
6.40981
6.44089
6.47065
6.49918
5.63861
6.43044
7.14588
7.82558
8.49451
9.14666
9.77615
10.3806
10.9599
11.5149
12.0469
12.5576
13.0485
13.521
13.9763
14.4156
14.8399
15.25
15.6469
16.0312
16.4035
16.7645
17.1146
17.4545
17.7845
18.1051
18.4169
18.7201
19.0153
19.3027
19.5828
19.8559
20.1224
44.7794
48.3124
51.8864
55.4656
59.0311
62.5709
66.0744
69.5319
72.9347
76.2749
79.5457
82.7414
85.857
88.8885
91.8328
94.6876
97.451
100.122
102.701
105.186
107.58
109.882
112.094
114.217
116.254
118.205
120.073
121.861
123.57
125.204
126.763
128.252
129.673
697.203
828.576
945.603
1053.41
1151.21
1229.81
1277.86
1288.37
1262.37
1207.04
1133.14
1052.98
975.649
905.605
843.926
790.063
743.019
702.058
666.659
636.427
610.922
589.564
571.667
556.517
543.436
531.814
521.095
510.757
500.298
489.226
477.06
463.333
447.592
429.405
408.359
384.08
356.252
324.669
289.302
250.414
208.708
165.523
123.005
84.1052
52.092
29.3488
15.9599
9.5596
7.03786
6.22675
6.0834
6.18455
6.36151
6.54328
6.69869
6.81509
6.88953
6.92434
6.92454
6.89623
6.84561
6.77844
6.69984
6.61415
6.52497
6.43522
6.3472
6.26263
6.1828
6.10855
6.04042
5.97869
5.92342
5.8745
5.83169
5.79457
5.76258
5.735
5.71089
5.68913
5.66832
5.6468
5.62259
5.59339
5.55668
5.50976
5.44999
5.37499
5.28288
5.17248
5.04338
4.89592
4.73095
4.54951
4.35252
4.14037
3.91442
3.66885
3.43982
3.03512
149.934
157.743
170.315
190.441
221.002
264.641
322.818
394.743
476.563
561.435
640.091
703.039
744.036
761.729
759.041
741.491
714.752
684.332
654.051
625.833
600.243
577.16
556.251
537.176
519.623
503.269
487.742
472.618
457.435
441.721
425.016
406.885
386.921
364.76
340.088
312.67
282.391
249.324
213.815
176.609
138.968
102.755
70.3332
44.1005
25.5902
14.5713
9.1039
6.79693
5.96362
5.75416
5.80225
5.95078
6.12672
6.29345
6.43249
6.53577
6.60153
6.63189
6.63106
6.6042
6.55662
6.49335
6.4189
6.33718
6.25147
6.16448
6.07837
5.99483
5.91513
5.84021
5.77069
5.70698
5.64929
5.59764
5.55193
5.5119
5.47713
5.44701
5.42076
5.3974
5.37569
5.35414
5.33093
5.304
5.27097
5.22933
5.17657
5.11036
5.0288
4.93061
4.81518
4.68263
4.53354
4.36873
4.18893
3.9944
3.78634
3.55908
3.34673
2.9679
30.5633
31.0377
31.7134
32.8352
34.7488
38.0465
43.7297
53.2574
68.364
90.6161
120.915
159.018
203.304
250.973
298.517
342.452
380.178
409.196
428.214
437.724
439.427
435.497
427.959
418.335
407.561
396.077
383.981
371.173
357.46
342.606
326.371
308.521
288.843
267.173
243.421
217.614
189.959
160.901
131.204
101.996
74.7574
51.1449
32.5974
19.7672
12.1208
8.19083
6.40162
5.67468
5.44758
5.45641
5.57422
5.73489
5.90144
6.05264
6.17684
6.26865
6.32705
6.35383
6.35252
6.32743
6.28309
6.22388
6.15376
6.07623
5.99428
5.9104
5.82662
5.74457
5.66549
5.59036
5.51986
5.45449
5.39456
5.34024
5.29154
5.24833
5.21034
5.17711
5.148
5.12218
5.0986
5.07594
5.0526
5.02671
4.99612
4.95853
4.91156
4.85298
4.7809
4.69395
4.59137
4.47303
4.33928
4.19068
4.02779
3.85071
3.66047
3.45152
3.25593
2.9031
12.3566
12.423
12.4942
12.5589
12.6061
12.6268
12.6322
12.698
13.0292
14.0101
16.1869
20.1946
26.6478
36.0032
48.4238
63.7165
81.3131
100.58
121.052
141.636
161.052
178.147
192.087
202.449
209.182
212.502
212.753
210.292
205.416
198.336
189.179
178.027
164.953
150.072
133.58
115.802
97.2312
78.5483
60.6168
44.4076
30.8374
20.5188
13.5161
9.29743
7.00676
5.85829
5.33297
5.14407
5.13916
5.23314
5.37515
5.53322
5.68679
5.82278
5.93344
6.01508
6.06703
6.0908
6.08926
6.06602
6.02492
5.96973
5.90395
5.8307
5.75267
5.67215
5.59104
5.51088
5.43288
5.358
5.28698
5.22037
5.15855
5.10179
5.05021
5.0038
4.96242
4.92574
4.89329
4.86439
4.83817
4.8135
4.78902
4.76306
4.73373
4.69894
4.65649
4.60428
4.54047
4.46364
4.37288
4.26786
4.1487
4.01571
3.86924
3.70926
3.53659
3.3458
3.16686
2.83999
7.97965
7.99644
8.01192
8.025
8.03347
8.03244
8.0126
7.95993
7.86078
7.71673
7.56437
7.49287
7.64816
8.20914
9.3437
11.1768
13.7718
17.1619
21.2013
25.8716
31.1378
36.8914
42.9365
49.0018
54.7692
59.9112
64.1257
67.162
68.8349
69.0292
67.6986
64.865
60.6209
55.1359
48.6654
41.5533
34.2244
27.1529
20.8024
15.5382
11.5389
8.75595
6.96473
5.88275
5.26924
4.95701
4.83832
4.84319
4.9246
5.04973
5.19509
5.3436
5.48293
5.60451
5.70297
5.77558
5.82186
5.843
5.84135
5.81989
5.78188
5.73056
5.669
5.59997
5.5259
5.44888
5.37067
5.29272
5.21618
5.14201
5.07094
5.00355
4.94027
4.88145
4.82727
4.77783
4.7331
4.69288
4.65684
4.62447
4.59506
4.56771
4.54125
4.51427
4.48512
4.45194
4.41277
4.36566
4.30885
4.24089
4.16081
4.06809
3.96261
3.84447
3.71381
3.57041
3.4149
3.24195
3.07944
2.7783
6.1507
6.15741
6.16264
6.16681
6.17012
6.17252
6.17331
6.1705
6.15997
6.13553
6.09109
6.02553
5.9498
5.89179
5.89429
6.00794
6.278
6.76146
7.3894
8.1382
8.9951
9.94714
10.9766
12.0585
13.1586
14.2323
15.2252
16.0752
16.7168
17.0871
17.1339
16.8231
16.1479
15.1345
13.8458
12.3773
10.846
9.37137
8.05271
6.95233
6.09076
5.4558
5.01767
4.74152
4.59387
4.54504
4.56976
4.64682
4.75844
4.88978
5.02849
5.16444
5.28959
5.39796
5.48552
5.55017
5.59146
5.61032
5.60861
5.58882
5.55368
5.506
5.44845
5.38348
5.31331
5.23982
5.16465
5.08913
5.01437
4.94129
4.87061
4.8029
4.73865
4.6782
4.62182
4.56968
4.52183
4.47818
4.43854
4.40254
4.36964
4.33914
4.31007
4.28129
4.25139
4.21876
4.18169
4.13842
4.0873
4.02695
3.95631
3.87473
3.78189
3.67769
3.56205
3.43457
3.29566
3.14009
2.99363
2.71781
5.19895
5.19928
5.19866
5.19733
5.1956
5.19379
5.19212
5.19061
5.18886
5.18579
5.17953
5.16767
5.14831
5.12188
5.09298
5.07145
5.07086
5.10784
5.1833
5.29538
5.44001
5.61149
5.80287
6.00615
6.21237
6.41166
6.59332
6.74611
6.85867
6.92028
6.92193
6.85745
6.72492
6.52772
6.2752
5.98231
5.66826
5.35399
5.05948
4.80117
4.59058
4.43393
4.33267
4.28454
4.28452
4.32586
4.40073
4.50089
4.61807
4.74427
4.87204
4.99468
5.10649
5.20295
5.28089
5.33856
5.37549
5.39236
5.39064
5.37238
5.33989
5.29558
5.24178
5.18068
5.11426
5.04426
4.97215
4.89921
4.82646
4.75478
4.68487
4.61729
4.55252
4.49094
4.43284
4.37843
4.32783
4.28105
4.23798
4.1984
4.16193
4.12802
4.09596
4.06479
4.03338
4.0004
3.96436
3.92374
3.87704
3.82297
3.76047
3.68879
3.60745
3.51614
3.41459
3.30221
3.1792
3.04038
2.90945
2.65834
4.66321
4.65732
4.65097
4.64425
4.63733
4.63043
4.62375
4.61748
4.6117
4.60633
4.60103
4.59515
4.58776
4.57791
4.56506
4.54972
4.53389
4.5208
4.51339
4.51371
4.52273
4.54032
4.56532
4.59578
4.62915
4.66246
4.69253
4.71611
4.7301
4.73172
4.71877
4.68987
4.64469
4.58419
4.5107
4.42796
4.3409
4.25531
4.17729
4.11267
4.06645
4.04236
4.0426
4.06774
4.11683
4.18757
4.27657
4.37959
4.49189
4.60838
4.72396
4.83375
4.93338
5.01924
5.08872
5.14027
5.1734
5.18854
5.18685
5.17
5.13994
5.09873
5.04842
4.99096
4.92812
4.86149
4.79243
4.72212
4.65154
4.58149
4.51266
4.44559
4.38075
4.31851
4.25918
4.203
4.15011
4.10061
4.05446
4.01154
3.97161
3.93428
3.89902
3.86511
3.83166
3.79757
3.76165
3.72259
3.67912
3.63004
3.57435
3.51127
3.44018
3.36061
3.2721
3.17388
3.0659
2.94305
2.82699
2.59981
4.3557
4.34403
4.33222
4.32034
4.30846
4.29671
4.28522
4.27412
4.26353
4.25347
4.24392
4.23474
4.22564
4.21624
4.20608
4.19477
4.18219
4.16854
4.15433
4.14027
4.12703
4.11512
4.10482
4.09609
4.08859
4.08175
4.07478
4.06681
4.05697
4.04447
4.02871
4.0094
3.98662
3.96093
3.93336
3.90547
3.87928
3.85719
3.84177
3.83562
3.84108
3.86005
3.89378
3.94274
4.00655
4.08395
4.17295
4.27084
4.37435
4.47984
4.58344
4.68135
4.77005
4.84654
4.90858
4.95476
4.98455
4.99818
4.99655
4.98099
4.95315
4.9148
4.86772
4.81366
4.75421
4.69082
4.62474
4.55708
4.48874
4.4205
4.35299
4.28675
4.22222
4.15976
4.09968
4.04223
3.98758
3.93584
3.88706
3.84118
3.79808
3.7575
3.71907
3.68227
3.64642
3.6107
3.57416
3.53574
3.49439
3.44908
3.39891
3.34309
3.28096
3.21189
3.13526
3.05011
2.95616
2.84837
2.7464
2.54216
4.18215
4.16552
4.14896
4.13247
4.11611
4.09996
4.08411
4.06866
4.05369
4.03927
4.02542
4.01212
3.9993
3.98682
3.97448
3.96206
3.94932
3.93608
3.92224
3.90783
3.89294
3.87775
3.86242
3.84712
3.83196
3.817
3.80223
3.78759
3.77301
3.75846
3.74395
3.72961
3.71575
3.70284
3.6916
3.68294
3.67801
3.67809
3.68456
3.69882
3.72213
3.7555
3.79961
3.85467
3.92036
3.99577
4.07945
4.16938
4.26309
4.35772
4.45018
4.53736
4.61633
4.68454
4.74002
4.78146
4.80829
4.82058
4.81901
4.80463
4.77882
4.74309
4.69901
4.64812
4.59186
4.53155
4.46836
4.40331
4.33725
4.27091
4.20491
4.13975
4.07584
4.01355
3.95317
3.89493
3.83903
3.78559
3.73469
3.68634
3.64048
3.59697
3.55557
3.51593
3.47757
3.43989
3.40218
3.36365
3.32348
3.28083
3.23494
3.18508
3.13058
3.07072
3.00471
2.93146
2.85044
2.75668
2.66789
2.48544
4.08836
4.0679
4.04757
4.02739
4.0074
3.98765
3.96821
3.94916
3.93056
3.91247
3.89496
3.87803
3.86168
3.84586
3.83052
3.81554
3.8008
3.78616
3.77152
3.75678
3.74188
3.72682
3.71163
3.69637
3.68116
3.66609
3.65131
3.63696
3.6232
3.61023
3.59828
3.58765
3.57872
3.57197
3.56797
3.56742
3.57108
3.5798
3.59448
3.61596
3.64501
3.68226
3.72805
3.78244
3.84512
3.91534
3.99192
4.07324
4.15731
4.24178
4.3241
4.40168
4.47201
4.53289
4.58254
4.61977
4.64394
4.65504
4.6535
4.64018
4.61621
4.58288
4.54157
4.49363
4.44037
4.383
4.32258
4.26008
4.1963
4.13193
4.06756
4.00366
3.94064
3.87883
3.81853
3.75994
3.70327
3.64864
3.59616
3.54586
3.49774
3.45174
3.40772
3.36546
3.32466
3.2849
3.2457
3.20651
3.16673
3.12578
3.08303
3.0379
2.98973
2.93775
2.88108
2.81847
2.74919
2.6683
2.59169
2.42972
4.04079
4.01766
3.99467
3.97184
3.94918
3.92676
3.90462
3.88283
3.86144
3.84053
3.82015
3.80033
3.78109
3.76245
3.74439
3.72686
3.70983
3.69323
3.67699
3.66105
3.64538
3.62993
3.61471
3.59974
3.58508
3.57082
3.55709
3.54403
3.53183
3.52074
3.51101
3.50297
3.497
3.49353
3.49306
3.49614
3.50337
3.51537
3.53278
3.5562
3.58613
3.62298
3.66695
3.71802
3.77585
3.83982
3.90892
3.98182
4.05684
4.13202
4.20522
4.27422
4.33686
4.3912
4.43566
4.46909
4.49087
4.50084
4.4993
4.48692
4.46461
4.43348
4.39471
4.34951
4.29907
4.24447
4.18671
4.12668
4.06515
4.00278
3.94011
3.87761
3.81567
3.75461
3.69469
3.63614
3.57913
3.52379
3.47023
3.41852
3.36867
3.32068
3.27449
3.22997
3.18694
3.14517
3.10435
3.06415
3.0242
2.98414
2.94357
2.90202
2.85893
2.81354
2.7649
2.71164
2.65283
2.58359
2.51808
2.37514
4.01844
3.99368
3.96901
3.94447
3.92008
3.89588
3.87192
3.84824
3.82492
3.80201
3.77955
3.75761
3.73622
3.71541
3.69518
3.67555
3.6565
3.63802
3.62009
3.60269
3.5858
3.56942
3.55355
3.53822
3.52349
3.50941
3.49611
3.48372
3.4724
3.46237
3.45388
3.44722
3.44273
3.44078
3.44179
3.44623
3.45457
3.46731
3.48491
3.50784
3.53646
3.57104
3.61171
3.65838
3.71075
3.76827
3.83008
3.89504
3.96174
4.0285
4.09349
4.15481
4.21057
4.25906
4.29883
4.32883
4.3484
4.35731
4.35573
4.34415
4.32333
4.29418
4.25775
4.2151
4.16729
4.11531
4.06008
4.00245
3.94312
3.88273
3.82181
3.7608
3.70008
3.63996
3.58069
3.52248
3.46549
3.40987
3.35571
3.30308
3.25202
3.20256
3.15468
3.10833
3.06343
3.01986
2.97747
2.93611
2.89563
2.85587
2.81664
2.77767
2.73852
2.69849
2.65659
2.61137
2.56174
2.5029
2.44734
2.32188
4.00878
3.98313
3.95753
3.93202
3.90662
3.88137
3.8563
3.83146
3.80691
3.7827
3.75888
3.73551
3.71262
3.69026
3.66846
3.64723
3.62661
3.60659
3.58719
3.56842
3.55028
3.53279
3.51598
3.49989
3.48457
3.4701
3.45657
3.44411
3.43287
3.42304
3.41484
3.40852
3.40437
3.40271
3.40391
3.40833
3.41638
3.42844
3.4449
3.4661
3.49233
3.52377
3.56049
3.60241
3.64923
3.70046
3.75537
3.81297
3.87206
3.9312
3.98881
4.04322
4.0928
4.13601
4.17154
4.1984
4.21591
4.2238
4.22211
4.21121
4.1917
4.16436
4.13007
4.08976
4.0444
3.99489
3.94207
3.88673
3.82955
3.77113
3.71197
3.6525
3.5931
3.53406
3.47563
3.418
3.36134
3.30578
3.25142
3.19831
3.14653
3.0961
3.04703
2.99933
2.95297
2.90792
2.86416
2.82166
2.78046
2.74059
2.70208
2.66486
2.62864
2.59282
2.55645
2.51801
2.47627
2.42653
2.37977
2.27015
4.00492
3.97883
3.95278
3.92678
3.90086
3.87505
3.84938
3.82389
3.79864
3.77365
3.749
3.72472
3.70086
3.67747
3.65458
3.63223
3.61045
3.58926
3.5687
3.54878
3.52954
3.51101
3.49323
3.47624
3.46012
3.44493
3.43079
3.41779
3.40608
3.39584
3.38725
3.38054
3.37596
3.37379
3.37432
3.37788
3.38479
3.39538
3.40995
3.42878
3.45208
3.48
3.51256
3.54968
3.59108
3.63634
3.68482
3.73566
3.78781
3.84004
3.89098
3.93917
3.98316
4.02159
4.05325
4.0772
4.09278
4.09967
4.09782
4.08748
4.06912
4.04339
4.01104
3.9729
3.92982
3.88262
3.83209
3.77895
3.72384
3.66734
3.60993
3.55204
3.49402
3.43616
3.37871
3.32185
3.26576
3.21054
3.1563
3.1031
3.051
3.00004
2.95026
2.90167
2.85429
2.80815
2.7633
2.71982
2.67788
2.63768
2.59945
2.56332
2.52918
2.49657
2.46459
2.43173
2.39665
2.35475
2.31563
2.22019
4.00345
3.97718
3.95093
3.92471
3.89855
3.87247
3.8465
3.82067
3.79503
3.76962
3.74448
3.71966
3.69519
3.67113
3.64752
3.62439
3.60179
3.57974
3.55829
3.53747
3.51733
3.49789
3.47922
3.46136
3.44439
3.42839
3.41345
3.39968
3.38723
3.37623
3.36687
3.35934
3.35387
3.35069
3.35006
3.35227
3.35757
3.36624
3.37853
3.39468
3.41484
3.43912
3.46753
3.49999
3.53624
3.57591
3.61843
3.66306
3.7089
3.75487
3.79977
3.84233
3.88124
3.9153
3.9434
3.96466
3.97842
3.98432
3.98225
3.97235
3.95499
3.93069
3.90011
3.86395
3.82299
3.77796
3.72958
3.67854
3.62543
3.5708
3.51512
3.45881
3.4022
3.34559
3.28921
3.23327
3.17791
3.12325
3.06939
3.0164
2.96433
2.91323
2.86314
2.81409
2.76612
2.71928
2.67368
2.62946
2.58688
2.5463
2.50808
2.47256
2.43983
2.40957
2.38099
2.3526
2.32302
2.28775
2.25515
2.17224
4.00286
3.97652
3.95019
3.92388
3.89762
3.87142
3.8453
3.81931
3.79347
3.76782
3.74239
3.71724
3.69239
3.6679
3.64379
3.62013
3.59693
3.57426
3.55213
3.5306
3.50972
3.48952
3.47006
3.45141
3.43364
3.41682
3.40104
3.38643
3.3731
3.36119
3.35087
3.34231
3.33571
3.33128
3.32925
3.32985
3.33332
3.33988
3.34975
3.36311
3.3801
3.4008
3.42521
3.45323
3.48465
3.51912
3.55616
3.59512
3.6352
3.67547
3.71489
3.75232
3.78661
3.81667
3.84149
3.86023
3.87226
3.87718
3.87483
3.86527
3.84876
3.82574
3.79675
3.76241
3.7234
3.68039
3.63404
3.58499
3.53379
3.48098
3.427
3.37225
3.31707
3.26174
3.20651
3.15157
3.09707
3.04314
2.98986
2.9373
2.88554
2.83461
2.78455
2.7354
2.68721
2.64006
2.59404
2.54937
2.50636
2.46543
2.42712
2.3919
2.36007
2.33147
2.30543
2.28056
2.25541
2.22565
2.19851
2.12651
4.00257
3.9762
3.94984
3.92349
3.89718
3.87092
3.84474
3.81866
3.7927
3.7669
3.7413
3.71593
3.69083
3.66603
3.64158
3.61752
3.59389
3.57072
3.54806
3.52596
3.50447
3.48362
3.46349
3.44412
3.4256
3.40801
3.39142
3.37596
3.36173
3.34887
3.33752
3.32785
3.32004
3.31426
3.31073
3.30964
3.31121
3.31562
3.32305
3.33367
3.34758
3.36484
3.38545
3.40931
3.43623
3.4659
3.49791
3.53167
3.56651
3.60159
3.63601
3.66876
3.69883
3.72521
3.74699
3.76338
3.77375
3.7777
3.77502
3.7657
3.74992
3.72802
3.70046
3.66778
3.63058
3.58945
3.54501
3.49784
3.44848
3.39741
3.34508
3.29187
3.23811
3.18409
3.13005
3.07617
3.02262
2.96952
2.91696
2.86502
2.81377
2.76324
2.71348
2.66453
2.61644
2.56929
2.52319
2.47836
2.43513
2.394
2.35558
2.3205
2.28921
2.26174
2.23757
2.21538
2.19375
2.16849
2.14585
2.08322
4.00237
3.97599
3.9496
3.92324
3.8969
3.87061
3.84438
3.81824
3.79221
3.76631
3.74058
3.71505
3.68976
3.66473
3.64001
3.61564
3.59165
3.56809
3.545
3.52242
3.5004
3.47899
3.45826
3.43825
3.41905
3.40073
3.38338
3.36709
3.35199
3.33818
3.32581
3.31503
3.30599
3.29886
3.29383
3.29107
3.29075
3.29306
3.29814
3.30612
3.31709
3.33111
3.34816
3.36814
3.3909
3.41616
3.44354
3.47255
3.50259
3.53294
3.56279
3.59127
3.61746
3.64045
3.65941
3.67359
3.68239
3.68538
3.68232
3.67315
3.65798
3.63708
3.6108
3.57964
3.54409
3.50472
3.46207
3.41668
3.36905
3.31967
3.26893
3.21723
3.16488
3.11217
3.05933
3.00656
2.95401
2.90182
2.85009
2.79889
2.74829
2.69833
2.64907
2.60055
2.55281
2.50593
2.46002
2.41529
2.37208
2.33091
2.29246
2.25745
2.22648
2.19976
2.17692
2.15675
2.13785
2.1162
2.09722
2.04254
4.00219
3.97579
3.9494
3.92302
3.89666
3.87035
3.84408
3.81789
3.7918
3.76582
3.73999
3.71433
3.68887
3.66366
3.63871
3.61408
3.58979
3.56589
3.54242
3.51942
3.49694
3.47504
3.45376
3.43318
3.41335
3.39436
3.37628
3.35922
3.34328
3.32857
3.31521
3.30334
3.29312
3.28468
3.27819
3.27381
3.27169
3.27199
3.27482
3.28031
3.28853
3.29952
3.31325
3.32965
3.34856
3.36975
3.39289
3.41755
3.44321
3.46923
3.4949
3.51946
3.54208
3.56194
3.57828
3.59038
3.59767
3.59972
3.59626
3.58717
3.57251
3.55247
3.52735
3.49756
3.46354
3.42579
3.38482
3.34111
3.29515
3.24737
3.19818
3.14795
3.09698
3.04557
2.99394
2.94229
2.89079
2.83957
2.78873
2.73835
2.6885
2.63925
2.59063
2.54269
2.49548
2.44907
2.40356
2.35915
2.31617
2.27513
2.23675
2.20182
2.17107
2.14484
2.12292
2.10424
2.08744
2.06868
2.05263
2.00461
4.00201
3.97561
3.9492
3.9228
3.89643
3.87008
3.84379
3.81755
3.7914
3.76535
3.73943
3.71365
3.68806
3.66268
3.63754
3.61267
3.58812
3.56392
3.54012
3.51674
3.49385
3.4715
3.44973
3.42861
3.4082
3.38859
3.36984
3.35204
3.33531
3.31973
3.30544
3.29255
3.28119
3.2715
3.26363
3.25771
3.25388
3.25228
3.25301
3.25616
3.26181
3.26997
3.28063
3.29372
3.30909
3.32654
3.34578
3.36645
3.38809
3.41014
3.43199
3.45295
3.47229
3.48926
3.50315
3.5133
3.51916
3.52029
3.51639
3.50732
3.49308
3.4738
3.44972
3.42118
3.38857
3.35233
3.31292
3.2708
3.22642
3.18018
3.13249
3.08368
3.03408
2.98395
2.93353
2.88302
2.83258
2.78236
2.73245
2.68295
2.63393
2.58546
2.53757
2.49033
2.44378
2.39798
2.35303
2.3091
2.26652
2.22577
2.18757
2.15277
2.12218
2.09628
2.07501
2.05742
2.04222
2.02573
2.01201
1.96953
4.00183
3.97542
3.949
3.92258
3.89619
3.86982
3.84349
3.81721
3.791
3.76488
3.73887
3.713
3.68728
3.66175
3.63643
3.61136
3.58657
3.5621
3.53799
3.51428
3.49102
3.46825
3.44603
3.42441
3.40347
3.38327
3.36389
3.34542
3.32794
3.31155
3.29637
3.28251
3.27008
3.25921
3.25004
3.24267
3.23724
3.23386
3.23262
3.2336
3.23685
3.2424
3.25021
3.26024
3.27234
3.28635
3.30202
3.31903
3.33698
3.3554
3.37373
3.39138
3.40769
3.42198
3.4336
3.44193
3.44643
3.44666
3.44232
3.43322
3.41933
3.40071
3.37756
3.35015
3.31884
3.284
3.24607
3.20545
3.16256
3.11781
3.07156
3.02415
2.97589
2.92703
2.87782
2.82845
2.77909
2.72989
2.68095
2.63236
2.58422
2.53657
2.48948
2.44301
2.39719
2.35209
2.30781
2.26448
2.22241
2.18207
2.14415
2.10953
2.07909
2.05342
2.0326
2.01581
2.00184
1.98714
1.97527
1.93738
4.00166
3.97523
3.94879
3.92236
3.89594
3.86954
3.84318
3.81686
3.7906
3.76441
3.73833
3.71235
3.68652
3.66085
3.63537
3.61012
3.58511
3.5604
3.53601
3.51199
3.48838
3.46523
3.4426
3.42053
3.39909
3.37835
3.35839
3.33927
3.32109
3.30395
3.28794
3.27316
3.25973
3.24776
3.23736
3.22864
3.22172
3.21667
3.2136
3.21256
3.21359
3.21671
3.2219
3.22909
3.23819
3.24904
3.26142
3.27506
3.28962
3.30469
3.3198
3.3344
3.34792
3.35973
3.36924
3.37587
3.37908
3.37846
3.37367
3.36452
3.3509
3.33287
3.31055
3.28418
3.25405
3.22052
3.18396
3.14477
3.10332
3.06
3.01516
2.96912
2.92218
2.87459
2.82659
2.77838
2.73011
2.68195
2.63399
2.58635
2.53911
2.49233
2.44608
2.40041
2.35537
2.31103
2.26747
2.22482
2.18334
2.14348
2.10592
2.07152
2.04122
2.01572
1.99521
1.979
1.96596
1.95269
1.94231
1.9082
4.00148
3.97504
3.94859
3.92213
3.89569
3.86926
3.84286
3.8165
3.79019
3.76394
3.73778
3.71172
3.68578
3.65998
3.63436
3.60893
3.58373
3.55879
3.53415
3.50985
3.48593
3.46243
3.43941
3.41693
3.39503
3.37379
3.35328
3.33356
3.31474
3.29688
3.28009
3.26447
3.2501
3.23709
3.22555
3.21558
3.20725
3.20067
3.19589
3.19298
3.19195
3.19283
3.19559
3.20017
3.2065
3.21442
3.22377
3.23432
3.24576
3.25776
3.2699
3.2817
3.29264
3.30217
3.30973
3.31478
3.3168
3.31536
3.31014
3.30089
3.2875
3.26996
3.24838
3.22295
3.19391
3.16159
3.12634
3.0885
3.04845
3.00653
2.96308
2.91841
2.87279