/*--------------------------------*- C++ -*----------------------------------*\
| =========                 |                                                 |
| \\      /  F ield         | OpenFOAM: The Open Source CFD Toolbox           |
|  \\    /   O peration     | Version:  2.1.1                                 |
|   \\  /    A nd           | Web:      www.OpenFOAM.org                      |
|    \\/     M anipulation  |                                                 |
\*---------------------------------------------------------------------------*/
FoamFile
{
    version     2.0;
    format      ascii;
    class       volScalarField;
    location    "0.08";
    object      k;
}
// * * * * * * * * * * * * * * * * * * * * * * * * * * * * * * * * * * * * * //

dimensions      [0 2 -2 0 0 0 0];

internalField   nonuniform List<scalar> 
6820
(
0.288909
0.351398
0.415005
0.477466
0.536859
0.591554
0.640365
0.682617
0.718103
0.746996
0.769741
0.786951
0.799328
0.80759
0.812426
0.81447
0.814285
0.812356
0.809094
0.80484
0.799872
0.794417
0.788652
0.782718
0.776722
0.770746
0.764846
0.759077
0.7534
0.74813
0.741809
0.7414
0.713266
0.265532
0.269396
0.270523
0.271341
0.27256
0.274218
0.276231
0.278486
0.280873
0.283305
0.285728
0.288111
0.290445
0.292736
0.294998
0.297251
0.299516
0.301812
0.304155
0.30656
0.309038
0.311597
0.31424
0.316973
0.319798
0.322717
0.325736
0.328865
0.332123
0.335571
0.339241
0.343588
0.348264
0.262038
0.264253
0.263596
0.261556
0.259
0.256318
0.253626
0.250938
0.24824
0.245524
0.242794
0.240062
0.237346
0.234669
0.232053
0.22952
0.227089
0.224774
0.222589
0.220543
0.218643
0.216893
0.215295
0.213848
0.212553
0.211406
0.210406
0.20955
0.208834
0.208265
0.20783
0.207561
0.207404
0.259885
0.260272
0.259797
0.258535
0.256829
0.254891
0.252833
0.250709
0.248546
0.246357
0.244151
0.241933
0.239711
0.237492
0.235283
0.233092
0.230926
0.228792
0.226697
0.224646
0.222644
0.220696
0.218804
0.216972
0.215201
0.213493
0.211847
0.210264
0.208743
0.207284
0.205883
0.204544
0.203252
0.259299
0.258404
0.2576
0.256567
0.255295
0.25385
0.252292
0.250661
0.248984
0.247277
0.24555
0.243814
0.242073
0.240333
0.238598
0.236873
0.235161
0.233466
0.231791
0.230138
0.228511
0.226911
0.22534
0.223801
0.222294
0.220821
0.219382
0.217977
0.216606
0.215271
0.213969
0.212702
0.211468
0.259224
0.257848
0.256623
0.255437
0.254227
0.25297
0.251663
0.250312
0.248929
0.247522
0.2461
0.244669
0.243236
0.241803
0.240375
0.238954
0.237544
0.236147
0.234764
0.233398
0.232049
0.23072
0.229412
0.228124
0.226859
0.225617
0.224398
0.223203
0.222032
0.220885
0.219763
0.218664
0.217591
0.259217
0.257715
0.256309
0.25498
0.253698
0.252442
0.251196
0.249951
0.248704
0.247454
0.246204
0.244955
0.243708
0.242468
0.241234
0.24001
0.238797
0.237596
0.236408
0.235235
0.234077
0.232936
0.231811
0.230704
0.229615
0.228545
0.227493
0.22646
0.225446
0.224452
0.223477
0.222521
0.221585
0.259218
0.25769
0.256225
0.254822
0.253477
0.252181
0.250924
0.249696
0.248492
0.247306
0.246136
0.24498
0.243838
0.242709
0.241593
0.240491
0.239402
0.238328
0.237268
0.236224
0.235195
0.234182
0.233185
0.232204
0.231239
0.230291
0.22936
0.228446
0.227548
0.226667
0.225803
0.224956
0.224126
0.259218
0.257686
0.256207
0.25478
0.253405
0.25208
0.250799
0.24956
0.248356
0.247185
0.246042
0.244924
0.243829
0.242756
0.241703
0.240669
0.239654
0.238656
0.237677
0.236714
0.235768
0.23484
0.233928
0.233032
0.232154
0.231291
0.230445
0.229614
0.2288
0.228001
0.227219
0.226452
0.2257
0.259218
0.257686
0.256203
0.254769
0.253384
0.252045
0.250751
0.2495
0.248288
0.247114
0.245974
0.244866
0.243787
0.242736
0.241711
0.24071
0.239732
0.238776
0.237841
0.236926
0.236031
0.235154
0.234296
0.233455
0.232632
0.231826
0.231036
0.230263
0.229506
0.228765
0.22804
0.227329
0.226634
0.259218
0.257686
0.256202
0.254767
0.253378
0.252035
0.250735
0.249477
0.248259
0.24708
0.245937
0.244829
0.243753
0.242708
0.241692
0.240703
0.239741
0.238804
0.237891
0.237
0.236131
0.235283
0.234455
0.233646
0.232857
0.232085
0.231331
0.230594
0.229874
0.229171
0.228483
0.227811
0.227154
0.259218
0.257685
0.256201
0.254766
0.253376
0.252031
0.250729
0.249469
0.248248
0.247066
0.24592
0.244809
0.243732
0.242687
0.241673
0.240688
0.239731
0.2388
0.237895
0.237015
0.236158
0.235324
0.234511
0.233719
0.232947
0.232194
0.23146
0.230745
0.230046
0.229365
0.228701
0.228052
0.227419
0.259218
0.257685
0.256201
0.254765
0.253375
0.25203
0.250727
0.249465
0.248243
0.247059
0.245912
0.2448
0.243721
0.242675
0.24166
0.240675
0.239719
0.23879
0.237888
0.237011
0.236159
0.23533
0.234523
0.233739
0.232975
0.232232
0.231508
0.230803
0.230116
0.229447
0.228795
0.228159
0.22754
0.259218
0.257685
0.256201
0.254764
0.253374
0.252028
0.250725
0.249463
0.248241
0.247056
0.245908
0.244795
0.243715
0.242669
0.241653
0.240667
0.239711
0.238782
0.23788
0.237004
0.236153
0.235325
0.234521
0.233739
0.232979
0.232239
0.231519
0.230819
0.230137
0.229474
0.228828
0.2282
0.227588
0.259218
0.257685
0.256201
0.254764
0.253374
0.252028
0.250724
0.249462
0.248239
0.247054
0.245905
0.244792
0.243712
0.242664
0.241648
0.240662
0.239705
0.238776
0.237874
0.236997
0.236146
0.235319
0.234515
0.233734
0.232974
0.232236
0.231518
0.230819
0.23014
0.229479
0.228836
0.22821
0.227601
0.259218
0.257685
0.2562
0.254764
0.253373
0.252027
0.250723
0.249461
0.248237
0.247052
0.245903
0.244789
0.243709
0.242661
0.241645
0.240658
0.239701
0.238771
0.237869
0.236992
0.236141
0.235313
0.234509
0.233728
0.232969
0.232231
0.231513
0.230815
0.230136
0.229476
0.228834
0.228209
0.227602
0.259218
0.257685
0.2562
0.254763
0.253373
0.252026
0.250722
0.24946
0.248236
0.24705
0.245901
0.244787
0.243706
0.242658
0.241641
0.240655
0.239697
0.238767
0.237864
0.236988
0.236136
0.235308
0.234504
0.233723
0.232964
0.232225
0.231508
0.23081
0.230131
0.229471
0.228829
0.228205
0.227598
0.259218
0.257685
0.2562
0.254763
0.253372
0.252026
0.250722
0.249459
0.248235
0.247049
0.2459
0.244785
0.243704
0.242656
0.241639
0.240652
0.239694
0.238764
0.237861
0.236984
0.236132
0.235304
0.2345
0.233718
0.232959
0.23222
0.231502
0.230804
0.230126
0.229466
0.228824
0.228199
0.227592
0.259218
0.257684
0.2562
0.254763
0.253372
0.252025
0.250721
0.249458
0.248234
0.247048
0.245898
0.244783
0.243702
0.242654
0.241636
0.240649
0.239691
0.238761
0.237857
0.23698
0.236128
0.2353
0.234496
0.233714
0.232954
0.232216
0.231498
0.230799
0.230121
0.22946
0.228818
0.228194
0.227587
0.259218
0.257684
0.2562
0.254763
0.253371
0.252025
0.25072
0.249457
0.248233
0.247047
0.245897
0.244782
0.243701
0.242652
0.241634
0.240647
0.239688
0.238758
0.237854
0.236977
0.236124
0.235296
0.234492
0.23371
0.23295
0.232211
0.231493
0.230795
0.230116
0.229455
0.228813
0.228189
0.227581
0.259218
0.257684
0.256199
0.254762
0.253371
0.252024
0.25072
0.249456
0.248232
0.247046
0.245896
0.24478
0.243699
0.24265
0.241632
0.240645
0.239686
0.238755
0.237851
0.236974
0.236121
0.235293
0.234488
0.233706
0.232946
0.232207
0.231489
0.23079
0.230111
0.22945
0.228808
0.228183
0.227575
0.259218
0.257684
0.256199
0.254762
0.253371
0.252024
0.250719
0.249456
0.248231
0.247045
0.245895
0.244779
0.243698
0.242648
0.24163
0.240643
0.239684
0.238753
0.237849
0.236971
0.236118
0.23529
0.234485
0.233702
0.232942
0.232203
0.231484
0.230786
0.230106
0.229446
0.228803
0.228178
0.22757
0.259218
0.257684
0.256199
0.254762
0.253371
0.252024
0.250719
0.249455
0.248231
0.247044
0.245894
0.244778
0.243696
0.242647
0.241629
0.240641
0.239682
0.238751
0.237846
0.236968
0.236115
0.235287
0.234482
0.233699
0.232938
0.232199
0.23148
0.230781
0.230102
0.229441
0.228798
0.228173
0.227564
0.259218
0.257684
0.256199
0.254762
0.253371
0.252023
0.250719
0.249455
0.24823
0.247043
0.245893
0.244777
0.243695
0.242646
0.241627
0.240639
0.23968
0.238749
0.237844
0.236966
0.236113
0.235284
0.234479
0.233696
0.232935
0.232196
0.231476
0.230777
0.230097
0.229436
0.228793
0.228167
0.227559
0.259218
0.257684
0.256199
0.254762
0.25337
0.252023
0.250718
0.249454
0.24823
0.247043
0.245892
0.244776
0.243694
0.242645
0.241626
0.240638
0.239678
0.238747
0.237842
0.236964
0.23611
0.235281
0.234476
0.233693
0.232932
0.232192
0.231473
0.230773
0.230093
0.229432
0.228788
0.228162
0.227553
0.259218
0.257684
0.256199
0.254762
0.25337
0.252023
0.250718
0.249454
0.248229
0.247042
0.245891
0.244776
0.243693
0.242644
0.241625
0.240636
0.239677
0.238745
0.23784
0.236962
0.236108
0.235279
0.234473
0.23369
0.232929
0.232189
0.231469
0.23077
0.230089
0.229427
0.228783
0.228157
0.227548
0.259218
0.257684
0.256199
0.254762
0.25337
0.252023
0.250718
0.249454
0.248229
0.247042
0.245891
0.244775
0.243693
0.242643
0.241624
0.240635
0.239675
0.238744
0.237839
0.23696
0.236106
0.235277
0.234471
0.233687
0.232926
0.232186
0.231466
0.230766
0.230085
0.229423
0.228779
0.228152
0.227542
0.259218
0.257684
0.256199
0.254762
0.25337
0.252023
0.250718
0.249454
0.248229
0.247042
0.245891
0.244775
0.243692
0.242642
0.241623
0.240634
0.239675
0.238743
0.237838
0.236959
0.236105
0.235275
0.234469
0.233685
0.232924
0.232183
0.231463
0.230763
0.230082
0.229419
0.228775
0.228148
0.227538
0.259218
0.257684
0.256199
0.254762
0.25337
0.252023
0.250718
0.249453
0.248228
0.247041
0.24589
0.244774
0.243691
0.242641
0.241622
0.240633
0.239673
0.238741
0.237836
0.236957
0.236103
0.235273
0.234467
0.233683
0.232921
0.23218
0.23146
0.23076
0.230078
0.229416
0.228771
0.228143
0.227533
0.259218
0.257684
0.256199
0.254762
0.25337
0.252023
0.250718
0.249454
0.248229
0.247042
0.245891
0.244775
0.243692
0.242642
0.241623
0.240634
0.239674
0.238741
0.237836
0.236957
0.236103
0.235273
0.234466
0.233682
0.23292
0.232179
0.231459
0.230758
0.230076
0.229413
0.228768
0.22814
0.227529
0.259218
0.257684
0.256199
0.254762
0.25337
0.252023
0.250718
0.249453
0.248228
0.247041
0.24589
0.244774
0.243691
0.242641
0.241622
0.240633
0.239673
0.238741
0.237836
0.236956
0.236102
0.235272
0.234465
0.233681
0.232919
0.232178
0.231457
0.230756
0.230074
0.229411
0.228766
0.228138
0.227526
0.259218
0.257684
0.256199
0.254762
0.253371
0.252024
0.25072
0.249456
0.248232
0.247045
0.245894
0.244778
0.243695
0.242645
0.241626
0.240637
0.239677
0.238744
0.237839
0.23696
0.236105
0.235275
0.234468
0.233684
0.232921
0.23218
0.231459
0.230757
0.230075
0.229411
0.228765
0.228137
0.227525
0.259218
0.257685
0.2562
0.254764
0.253373
0.252026
0.250721
0.249457
0.248233
0.247046
0.245895
0.244779
0.243697
0.242647
0.241628
0.24064
0.23968
0.238747
0.237842
0.236963
0.236108
0.235278
0.234471
0.233686
0.232923
0.232181
0.23146
0.230758
0.230075
0.22941
0.228763
0.228134
0.227521
0.259218
0.257685
0.256201
0.254766
0.253378
0.252034
0.250731
0.249469
0.248246
0.247061
0.245911
0.244795
0.243713
0.242663
0.241644
0.240655
0.239694
0.238761
0.237855
0.236974
0.236118
0.235286
0.234477
0.233691
0.232926
0.232181
0.231457
0.230752
0.230066
0.229399
0.228748
0.228115
0.227498
0.259219
0.257689
0.25621
0.254777
0.25339
0.252045
0.250743
0.249482
0.248259
0.247074
0.245924
0.244809
0.243726
0.242676
0.241656
0.240664
0.239702
0.238766
0.237856
0.236971
0.23611
0.235272
0.234457
0.233664
0.232892
0.232139
0.231407
0.230693
0.229998
0.22932
0.22866
0.228016
0.227389
0.25922
0.257694
0.256221
0.254799
0.253423
0.252089
0.250795
0.249539
0.248318
0.247132
0.245979
0.244857
0.243767
0.242707
0.241674
0.24067
0.239692
0.238739
0.237812
0.236908
0.236027
0.235169
0.234332
0.233516
0.232721
0.231945
0.231188
0.230449
0.229729
0.229026
0.22834
0.22767
0.227016
0.259229
0.257738
0.256292
0.254882
0.253508
0.252172
0.250871
0.249603
0.248367
0.247162
0.245985
0.244837
0.243716
0.242621
0.241553
0.240509
0.23949
0.238495
0.237524
0.236575
0.235649
0.234744
0.23386
0.232997
0.232154
0.23133
0.230525
0.229739
0.22897
0.228219
0.227485
0.226768
0.226066
0.259265
0.257822
0.256453
0.255125
0.253805
0.252483
0.251164
0.249855
0.248562
0.247291
0.246046
0.244829
0.243641
0.242481
0.241351
0.240249
0.239174
0.238127
0.237105
0.236108
0.235135
0.234185
0.233258
0.232353
0.231469
0.230605
0.229761
0.228937
0.228132
0.227344
0.226575
0.225823
0.225089
0.259599
0.258632
0.257578
0.256541
0.255587
0.254713
0.253904
0.253149
0.252442
0.251779
0.25116
0.250584
0.25005
0.249557
0.249104
0.24869
0.248314
0.247973
0.247665
0.24739
0.247146
0.24693
0.246742
0.246579
0.246441
0.246327
0.246234
0.246162
0.24611
0.246077
0.246062
0.246064
0.246083
0.266719
0.280569
0.294241
0.307622
0.320668
0.333362
0.345692
0.357649
0.369224
0.380413
0.391212
0.401621
0.411641
0.421274
0.430526
0.439403
0.447911
0.456059
0.463856
0.471311
0.478434
0.485235
0.491725
0.497915
0.503816
0.509438
0.514792
0.519889
0.524739
0.529353
0.53374
0.53791
0.541876
0.83767
1.01338
1.21656
1.44896
1.69866
1.94304
2.15768
2.32522
2.44082
2.50975
2.54442
2.5603
2.56903
2.57642
2.58445
2.59382
2.60534
2.62058
2.64119
2.66843
2.70282
2.74401
2.79103
2.84242
2.89639
2.95087
3.00346
3.05153
3.09224
3.12259
3.13951
3.13987
3.1205
3.07825
3.00998
2.91265
2.78345
2.61998
2.42069
2.18539
1.91632
1.61957
1.30729
0.99983
0.725746
0.514841
0.382626
0.3189
0.297897
0.297672
0.306118
0.317509
0.329137
0.339691
0.348574
0.355593
0.36079
0.364345
0.366498
0.36751
0.367632
0.367091
0.366085
0.364785
0.363332
0.361837
0.360391
0.35906
0.357888
0.356903
0.356118
0.355533
0.355139
0.354921
0.354859
0.354926
0.355095
0.355335
0.355612
0.355886
0.356117
0.356255
0.356242
0.356011
0.355483
0.354563
0.353144
0.351106
0.348319
0.344647
0.339958
0.334129
0.32706
0.318676
0.308935
0.29782
0.285412
0.271504
0.258067
0.234536
0.357284
0.372035
0.396139
0.435563
0.497343
0.588804
0.715596
0.879178
1.0747
1.29027
1.50804
1.70856
1.87735
2.00844
2.10396
2.17145
2.21954
2.25722
2.29084
2.32375
2.35732
2.39204
2.42805
2.46521
2.50299
2.54024
2.57525
2.60576
2.62916
2.64262
2.64313
2.62766
2.59315
2.5366
2.45518
2.34634
2.20806
2.0392
1.84007
1.61332
1.36513
1.10675
0.855644
0.634485
0.465173
0.357861
0.30417
0.284955
0.283597
0.290462
0.300705
0.311843
0.322523
0.332008
0.339937
0.346199
0.350844
0.354024
0.355943
0.356819
0.35687
0.356295
0.355268
0.353944
0.35245
0.350894
0.349362
0.347919
0.346615
0.345483
0.344541
0.343799
0.343254
0.342897
0.342713
0.342681
0.342775
0.342968
0.343226
0.343512
0.343786
0.343999
0.344097
0.344014
0.343672
0.342983
0.341842
0.340131
0.337722
0.33448
0.330272
0.324973
0.318481
0.310718
0.301638
0.291223
0.279548
0.266409
0.253693
0.231281
0.207121
0.20702
0.207675
0.2097
0.213978
0.222001
0.236204
0.260172
0.298505
0.356123
0.437169
0.543494
0.673373
0.82128
0.978695
1.13604
1.28493
1.4174
1.52888
1.61953
1.69271
1.75293
1.80431
1.84972
1.89056
1.927
1.95832
1.98314
1.99965
2.00571
1.99895
1.97686
1.93691
1.87669
1.79415
1.68783
1.55721
1.40331
1.22931
1.04143
0.849733
0.668132
0.512587
0.396253
0.323075
0.285759
0.271819
0.270872
0.276645
0.28567
0.295956
0.306285
0.315902
0.324352
0.331404
0.336985
0.341142
0.343998
0.345719
0.346491
0.346497
0.34591
0.344886
0.343561
0.342052
0.340459
0.338863
0.33733
0.33591
0.33464
0.333546
0.33264
0.33193
0.331411
0.331075
0.330906
0.330882
0.33098
0.331168
0.331414
0.331677
0.331912
0.332068
0.332082
0.331881
0.33138
0.330479
0.329064
0.327009
0.324182
0.320448
0.315682
0.309777
0.302654
0.294262
0.284579
0.273672
0.261336
0.249376
0.228128
0.201819
0.200293
0.19885
0.197463
0.196144
0.194957
0.194052
0.193771
0.194791
0.198248
0.205704
0.218988
0.240057
0.270823
0.312851
0.36698
0.43286
0.509468
0.595348
0.686681
0.778783
0.867242
0.948692
1.02111
1.08368
1.13632
1.17922
1.2124
1.23544
1.24748
1.24724
1.23319
1.20381
1.15782
1.09451
1.01404
0.917943
0.809462
0.693994
0.579122
0.473949
0.387236
0.324472
0.285573
0.265663
0.258504
0.259175
0.264502
0.272478
0.281758
0.291399
0.300732
0.309294
0.316786
0.323045
0.328019
0.331742
0.334313
0.335866
0.336554
0.336533
0.335952
0.334947
0.333639
0.332136
0.330527
0.32889
0.327288
0.325772
0.324381
0.323143
0.322079
0.321198
0.320506
0.319997
0.319663
0.319487
0.319449
0.319523
0.319679
0.319881
0.320088
0.320249
0.320309
0.320199
0.319839
0.319134
0.317976
0.316243
0.313805
0.310528
0.306286
0.30097
0.294494
0.286805
0.277874
0.267759
0.256255
0.245076
0.225029
0.210075
0.208516
0.206966
0.205418
0.203864
0.2023
0.200721
0.199129
0.197556
0.196108
0.194998
0.194561
0.195257
0.197624
0.202202
0.209487
0.219905
0.233851
0.251456
0.273152
0.2992
0.329451
0.363256
0.399492
0.436692
0.473202
0.507345
0.537527
0.562288
0.58031
0.590422
0.59163
0.583208
0.564848
0.536856
0.500368
0.457516
0.411442
0.366049
0.325363
0.292577
0.26917
0.254729
0.247653
0.246115
0.248579
0.253859
0.261019
0.269297
0.278067
0.286815
0.295133
0.302714
0.309344
0.3149
0.319337
0.322678
0.324999
0.326407
0.327027
0.326992
0.326427
0.325452
0.324176
0.322693
0.321087
0.319429
0.31778
0.316188
0.314694
0.313329
0.312116
0.31107
0.3102
0.309509
0.308992
0.308639
0.308435
0.308358
0.308384
0.308479
0.308608
0.308726
0.308782
0.308712
0.308443
0.307887
0.306942
0.305493
0.303411
0.300567
0.296832
0.292096
0.286268
0.279289
0.271122
0.261816
0.251164
0.240785
0.221968
0.216369
0.214978
0.213579
0.212171
0.21075
0.209315
0.207864
0.2064
0.204923
0.203438
0.201965
0.200557
0.199309
0.198361
0.197879
0.198026
0.198942
0.200804
0.203442
0.206859
0.211116
0.216275
0.222372
0.229394
0.237248
0.245746
0.254594
0.263392
0.271651
0.278823
0.284342
0.287689
0.288466
0.286475
0.281807
0.274889
0.266473
0.257544
0.249142
0.242159
0.237189
0.2345
0.234105
0.235853
0.239498
0.244724
0.251184
0.258509
0.266333
0.274309
0.282117
0.289484
0.296185
0.302058
0.306999
0.310967
0.313975
0.316078
0.31736
0.317925
0.317882
0.31734
0.316403
0.315166
0.313716
0.312127
0.310465
0.308787
0.30714
0.305564
0.30409
0.302744
0.301544
0.300504
0.299629
0.298922
0.298378
0.297986
0.297731
0.297592
0.297543
0.297553
0.297582
0.297584
0.297505
0.297277
0.296821
0.296042
0.294832
0.293069
0.290625
0.287373
0.2832
0.278011
0.27174
0.264342
0.255854
0.246064
0.236499
0.218932
0.220516
0.219297
0.218062
0.216814
0.215553
0.214282
0.213002
0.211714
0.210421
0.209124
0.207828
0.20654
0.205278
0.204073
0.202974
0.202043
0.201345
0.200945
0.200845
0.201036
0.201509
0.202257
0.203271
0.204539
0.206043
0.207755
0.209629
0.211607
0.213612
0.215552
0.217329
0.218844
0.220017
0.2208
0.221196
0.221273
0.221166
0.221067
0.221201
0.221802
0.223076
0.225185
0.228228
0.232232
0.237156
0.242895
0.249293
0.256153
0.263258
0.270381
0.2773
0.283811
0.289741
0.294956
0.299366
0.302929
0.305648
0.307561
0.308736
0.309256
0.309211
0.308696
0.3078
0.306608
0.305197
0.303635
0.301983
0.300293
0.29861
0.296971
0.295408
0.293948
0.292611
0.291412
0.290362
0.289467
0.288727
0.288136
0.287685
0.287358
0.287136
0.286991
0.286891
0.286797
0.286662
0.286427
0.286021
0.285359
0.28434
0.282851
0.280768
0.277967
0.274332
0.269764
0.26419
0.257556
0.249886
0.240963
0.232216
0.215909
0.223177
0.222093
0.220994
0.219881
0.218755
0.21762
0.216478
0.215333
0.214189
0.213049
0.211917
0.210794
0.209686
0.2086
0.207547
0.206545
0.20562
0.204798
0.204099
0.203538
0.203121
0.202849
0.202721
0.202732
0.202878
0.20315
0.203541
0.204038
0.20463
0.205304
0.206045
0.206842
0.207691
0.208595
0.209567
0.210641
0.211866
0.213309
0.215054
0.217188
0.219799
0.222959
0.226717
0.231086
0.236043
0.241524
0.247429
0.253626
0.259964
0.266277
0.272395
0.278157
0.283419
0.288067
0.29202
0.295234
0.297703
0.299454
0.300538
0.30102
0.300978
0.300492
0.299639
0.298495
0.297128
0.295601
0.293969
0.29228
0.290576
0.288893
0.287261
0.285707
0.284252
0.282912
0.281702
0.280629
0.279697
0.278907
0.278252
0.277724
0.277307
0.276981
0.276721
0.276495
0.276262
0.275974
0.275569
0.274973
0.274096
0.272832
0.271066
0.268676
0.265546
0.261573
0.256676
0.250792
0.24393
0.235868
0.227936
0.212891
0.224841
0.22386
0.222867
0.221861
0.220845
0.219821
0.218793
0.217763
0.216735
0.215713
0.214701
0.213702
0.212718
0.211753
0.210811
0.209898
0.209021
0.20819
0.207417
0.206712
0.206084
0.205543
0.205092
0.204737
0.20448
0.204324
0.20427
0.20432
0.204477
0.204744
0.205127
0.205633
0.206273
0.207064
0.208027
0.20919
0.210587
0.21226
0.214253
0.216614
0.219386
0.222604
0.226289
0.230441
0.235034
0.240019
0.245319
0.250837
0.256454
0.262039
0.267455
0.272569
0.277257
0.281418
0.284977
0.28789
0.290145
0.291756
0.292761
0.293214
0.293178
0.292721
0.291912
0.290817
0.289498
0.288011
0.286406
0.284729
0.283018
0.281307
0.279624
0.277996
0.276444
0.274984
0.273631
0.272396
0.271286
0.270304
0.269448
0.268715
0.268093
0.267571
0.267128
0.266739
0.266374
0.265993
0.265545
0.264966
0.26418
0.263091
0.261591
0.259567
0.256901
0.253488
0.249239
0.244082
0.238008
0.230793
0.223664
0.209871
0.22584
0.224935
0.224019
0.223094
0.22216
0.22122
0.220277
0.219333
0.218393
0.21746
0.216538
0.215629
0.214736
0.213862
0.21301
0.212181
0.21138
0.21061
0.209877
0.209187
0.208545
0.20796
0.207437
0.206982
0.206603
0.206305
0.206095
0.20598
0.205967
0.206066
0.206288
0.206644
0.207152
0.207828
0.208696
0.20978
0.211108
0.21271
0.21462
0.216866
0.219476
0.222468
0.225852
0.229622
0.233753
0.238206
0.242917
0.247807
0.252781
0.25773
0.262539
0.267094
0.271289
0.27503
0.27825
0.280903
0.282971
0.28446
0.285399
0.285828
0.285801
0.285375
0.28461
0.283564
0.282294
0.280849
0.279278
0.277621
0.275913
0.274188
0.272472
0.270788
0.269159
0.2676
0.266126
0.26475
0.263479
0.26232
0.261274
0.260341
0.259516
0.25879
0.258151
0.257582
0.257058
0.25655
0.256019
0.255413
0.254668
0.253701
0.252417
0.250706
0.248457
0.245561
0.241923
0.23746
0.232147
0.225754
0.219408
0.206847
0.226405
0.225552
0.224691
0.223823
0.222949
0.22207
0.221189
0.220309
0.219433
0.218564
0.217705
0.21686
0.216031
0.21522
0.214429
0.213662
0.212919
0.212204
0.211518
0.210867
0.210254
0.209684
0.209161
0.208693
0.208286
0.207946
0.207681
0.207501
0.207414
0.207432
0.207566
0.20783
0.208242
0.208818
0.20958
0.21055
0.211751
0.213209
0.214947
0.216989
0.219353
0.222051
0.225088
0.228457
0.232136
0.23609
0.240268
0.244604
0.249017
0.253415
0.257702
0.261776
0.265544
0.268923
0.271848
0.274273
0.276178
0.277562
0.278442
0.278853
0.278835
0.27844
0.277718
0.276721
0.2755
0.274101
0.272567
0.270935
0.269241
0.267513
0.265777
0.264055
0.262367
0.26073
0.259157
0.257662
0.256252
0.254936
0.253717
0.252599
0.251579
0.250654
0.249817
0.249056
0.248358
0.247699
0.247053
0.246381
0.245631
0.244737
0.243613
0.242163
0.240278
0.237849
0.234776
0.230964
0.226375
0.220771
0.215178
0.203817
0.226699
0.22588
0.225056
0.224226
0.223392
0.222554
0.221716
0.22088
0.220047
0.219222
0.218407
0.217604
0.216817
0.216047
0.215297
0.214569
0.213864
0.213185
0.212534
0.211913
0.211326
0.210776
0.210267
0.209804
0.209394
0.209043
0.208757
0.208547
0.208421
0.208391
0.208468
0.208666
0.209001
0.209489
0.21015
0.211003
0.212069
0.213368
0.214921
0.216746
0.218858
0.221265
0.223969
0.226965
0.230233
0.233743
0.237453
0.241306
0.245233
0.249157
0.252991
0.256649
0.260047
0.26311
0.265775
0.268001
0.269761
0.27105
0.271879
0.272273
0.272266
0.2719
0.27122
0.270272
0.2691
0.267748
0.266253
0.264653
0.262978
0.261257
0.259512
0.257767
0.256038
0.254341
0.252691
0.251099
0.249574
0.248124
0.246755
0.24547
0.244272
0.24316
0.242132
0.241182
0.240301
0.239478
0.238694
0.237923
0.23713
0.23626
0.235246
0.234
0.232423
0.230406
0.227844
0.224635
0.220723
0.215865
0.210991
0.200787
0.226837
0.226039
0.225236
0.22443
0.223621
0.22281
0.221999
0.22119
0.220385
0.219588
0.218799
0.218023
0.217261
0.216516
0.215789
0.215083
0.214399
0.21374
0.213107
0.212502
0.211929
0.21139
0.210889
0.210429
0.210017
0.209659
0.20936
0.209129
0.208974
0.208907
0.208938
0.209081
0.209349
0.209758
0.210325
0.211067
0.212003
0.213151
0.214527
0.216147
0.218023
0.220162
0.222565
0.225227
0.228132
0.231253
0.234555
0.237988
0.241493
0.245004
0.248446
0.251741
0.254814
0.257598
0.260034
0.262081
0.263711
0.264915
0.265697
0.266076
0.266079
0.265741
0.265101
0.2642
0.263077
0.261771
0.260319
0.258753
0.257103
0.255396
0.253653
0.251896
0.25014
0.248402
0.246694
0.245026
0.243408
0.241849
0.240353
0.238926
0.237572
0.236292
0.235087
0.233957
0.232899
0.231906
0.230972
0.230081
0.229211
0.228326
0.227372
0.226277
0.224948
0.223284
0.221176
0.218513
0.215225
0.211064
0.206863
0.197763
0.226893
0.226106
0.225316
0.224522
0.223727
0.222931
0.222136
0.221343
0.220554
0.219772
0.218999
0.218236
0.217487
0.216753
0.216037
0.215339
0.214664
0.214011
0.213383
0.212783
0.212212
0.211673
0.21117
0.210707
0.210287
0.209916
0.209601
0.209349
0.209167
0.209065
0.209054
0.209144
0.20935
0.209686
0.210165
0.210805
0.21162
0.212627
0.21384
0.215273
0.216936
0.218834
0.220969
0.223336
0.22592
0.2287
0.231644
0.234711
0.237848
0.240998
0.244094
0.247069
0.249855
0.252391
0.254622
0.256507
0.258018
0.259143
0.259881
0.260246
0.260258
0.259946
0.259344
0.258487
0.257411
0.256152
0.254743
0.253215
0.251594
0.249907
0.248174
0.246414
0.244645
0.242879
0.241129
0.239406
0.237718
0.236071
0.234474
0.23293
0.231444
0.23002
0.22866
0.227368
0.226143
0.224987
0.223899
0.222876
0.221908
0.220974
0.220037
0.21904
0.217905
0.216533
0.214816
0.212637
0.209914
0.206392
0.202815
0.194756
0.226911
0.226129
0.225345
0.224558
0.22377
0.222982
0.222194
0.221409
0.220628
0.219853
0.219086
0.218329
0.217583
0.216852
0.216137
0.21544
0.214763
0.214107
0.213475
0.212869
0.212292
0.211745
0.211232
0.210756
0.210321
0.209933
0.209597
0.209319
0.209107
0.20897
0.208916
0.208956
0.209103
0.209368
0.209765
0.210308
0.211012
0.211889
0.212954
0.214217
0.215687
0.21737
0.219266
0.22137
0.223672
0.226151
0.22878
0.231522
0.234335
0.237165
0.239956
0.242646
0.245175
0.247487
0.249531
0.251269
0.252671
0.253721
0.254418
0.254767
0.254786
0.254497
0.25393
0.253116
0.252086
0.250873
0.249507
0.248017
0.246429
0.244766
0.243049
0.241295
0.239522
0.237741
0.235965
0.234203
0.232463
0.230752
0.229076
0.227439
0.225848
0.224305
0.222815
0.221382
0.22001
0.218704
0.21747
0.216313
0.215233
0.214227
0.213272
0.212329
0.211332
0.210192
0.208803
0.207044
0.204821
0.201877
0.198869
0.19178
0.226913
0.226133
0.225351
0.224568
0.223783
0.222998
0.222214
0.221432
0.220653
0.21988
0.219114
0.218356
0.21761
0.216876
0.216156
0.215453
0.214769
0.214104
0.213462
0.212845
0.212254
0.211692
0.211163
0.210669
0.210214
0.209803
0.209441
0.209135
0.20889
0.208714
0.208616
0.208606
0.208694
0.208892
0.209211
0.209664
0.210264
0.211022
0.21195
0.213058
0.214354
0.215843
0.217524
0.219394
0.221443
0.223654
0.226002
0.228458
0.23098
0.233525
0.236041
0.238475
0.240773
0.242881
0.244755
0.246356
0.247655
0.248635
0.24929
0.249623
0.249646
0.249378
0.248843
0.248068
0.247082
0.245913
0.24459
0.24314
0.241586
0.239951
0.238255
0.236514
0.234745
0.23296
0.231169
0.229383
0.227608
0.22585
0.224117
0.222411
0.220738
0.219102
0.217508
0.21596
0.214464
0.213028
0.211662
0.210376
0.209183
0.20809
0.207091
0.206163
0.205256
0.204292
0.20317
0.201765
0.199976
0.197544
0.195045
0.188849
0.226909
0.22613
0.225349
0.224567
0.223783
0.222999
0.222216
0.221434
0.220655
0.219881
0.219113
0.218353
0.217602
0.216862
0.216135
0.215423
0.214728
0.214052
0.213396
0.212763
0.212155
0.211575
0.211025
0.210509
0.210031
0.209594
0.209203
0.208865
0.208584
0.208369
0.208227
0.208166
0.208197
0.208329
0.208574
0.208941
0.209443
0.21009
0.210893
0.21186
0.212997
0.214309
0.215796
0.217455
0.219276
0.221245
0.223342
0.225538
0.2278
0.230087
0.232356
0.234557
0.236643
0.238565
0.240281
0.241755
0.242957
0.24387
0.244483
0.244799
0.244823
0.244572
0.244066
0.243327
0.242382
0.241256
0.239975
0.238563
0.237045
0.235441
0.233769
0.232047
0.230288
0.228507
0.226712
0.224913
0.223117
0.221329
0.219556
0.217802
0.21607
0.214365
0.212691
0.211054
0.209459
0.207916
0.206436
0.205037
0.203736
0.202551
0.201492
0.20055
0.199692
0.198853
0.197938
0.196824
0.195403
0.193417
0.191366
0.185979
0.226904
0.226125
0.225344
0.224562
0.223778
0.222994
0.22221
0.221428
0.220648
0.219872
0.2191
0.218336
0.217579
0.216832
0.216097
0.215375
0.214668
0.213978
0.213307
0.212657
0.212031
0.21143
0.210859
0.210319
0.209815
0.20935
0.208929
0.208557
0.20824
0.207985
0.207798
0.207687
0.207661
0.20773
0.207903
0.208189
0.2086
0.209143
0.209829
0.210664
0.211656
0.212806
0.214116
0.215582
0.217197
0.218947
0.220815
0.222777
0.224802
0.226855
0.228898
0.230887
0.232778
0.234529
0.236098
0.237451
0.238561
0.239408
0.239981
0.240276
0.2403
0.240062
0.239581
0.238875
0.237967
0.236881
0.235641
0.234268
0.232786
0.231214
0.22957
0.227869
0.226128
0.224356
0.222565
0.220763
0.218958
0.217154
0.215357
0.213571
0.211799
0.210046
0.208316
0.206613
0.204944
0.203318
0.201748
0.200252
0.198855
0.197582
0.196455
0.195479
0.194638
0.193879
0.193118
0.192236
0.191119
0.189512
0.187848
0.183186
0.226898
0.226119
0.225338
0.224555
0.223771
0.222987
0.222202
0.221418
0.220636
0.219857
0.219082
0.218313
0.21755
0.216796
0.216052
0.21532
0.214601
0.213898
0.213212
0.212545
0.2119
0.211279
0.210685
0.210122
0.209591
0.209098
0.208646
0.208241
0.207888
0.207592
0.207361
0.207201
0.207121
0.207128
0.207232
0.207442
0.207765
0.208212
0.208788
0.209502
0.210359
0.21136
0.212507
0.213797
0.215223
0.216773
0.218432
0.220179
0.221987
0.223827
0.225663
0.227456
0.229168
0.230758
0.23219
0.233431
0.234452
0.235235
0.235765
0.236039
0.236058
0.235831
0.23537
0.234694
0.23382
0.232772
0.23157
0.230236
0.22879
0.227251
0.225636
0.223961
0.22224
0.220484
0.218704
0.216908
0.215102
0.213293
0.211485
0.209681
0.207886
0.206103
0.204336
0.202589
0.200868
0.199181
0.197543
0.195972
0.194495
0.193143
0.191946
0.190926
0.190077
0.189364
0.188711
0.188005
0.187133
0.185843
0.184507
0.180484
0.226892
0.226113
0.225332
0.224549
0.223764
0.222978
0.222193
0.221407
0.220623
0.219841
0.219063
0.218289
0.217521
0.216759
0.216007
0.215265
0.214535
0.213818
0.213118
0.212435
0.211772
0.211131
0.210516
0.209929
0.209373
0.208852
0.20837
0.207932
0.207543
0.207208
0.206934
0.206727
0.206594
0.206543
0.206582
0.206718
0.20696
0.207315
0.20779
0.208391
0.209122
0.209985
0.210982
0.212109
0.21336
0.214727
0.216194
0.217744
0.219354
0.220997
0.222641
0.224254
0.225799
0.227241
0.228544
0.229677
0.230613
0.231332
0.231821
0.232071
0.232082
0.231861
0.231417
0.230765
0.229923
0.22891
0.227744
0.226447
0.225037
0.223532
0.221948
0.220302