/*--------------------------------*- C++ -*----------------------------------*\
| =========                 |                                                 |
| \\      /  F ield         | OpenFOAM: The Open Source CFD Toolbox           |
|  \\    /   O peration     | Version:  2.1.1                                 |
|   \\  /    A nd           | Web:      www.OpenFOAM.org                      |
|    \\/     M anipulation  |                                                 |
\*---------------------------------------------------------------------------*/
FoamFile
{
    version     2.0;
    format      ascii;
    class       volScalarField;
    location    "0.08";
    object      nut;
}
// * * * * * * * * * * * * * * * * * * * * * * * * * * * * * * * * * * * * * //

dimensions      [0 2 -1 0 0 0 0];

internalField   nonuniform List<scalar> 
6820
(
4.96025e-05
5.47044e-05
5.94497e-05
6.37667e-05
6.76166e-05
7.09774e-05
7.38477e-05
7.6245e-05
7.82018e-05
7.97595e-05
8.09646e-05
8.18648e-05
8.25061e-05
8.29314e-05
8.31794e-05
8.3284e-05
8.32746e-05
8.31759e-05
8.30088e-05
8.27903e-05
8.25345e-05
8.22527e-05
8.19538e-05
8.1645e-05
8.13318e-05
8.10184e-05
8.07079e-05
8.04031e-05
8.01021e-05
7.98216e-05
7.9484e-05
7.94623e-05
7.79405e-05
0.000540296
0.000304969
0.000219955
0.000171551
0.000140511
0.000119647
0.000105121
9.47366e-05
8.7172e-05
8.15904e-05
7.74417e-05
7.43523e-05
7.20616e-05
7.03834e-05
6.91825e-05
6.83585e-05
6.7836e-05
6.75573e-05
6.74777e-05
6.75622e-05
6.77826e-05
6.81166e-05
6.85454e-05
6.90539e-05
6.96292e-05
7.02602e-05
7.09374e-05
7.16518e-05
7.23965e-05
7.31591e-05
7.39385e-05
7.47037e-05
7.53843e-05
0.00105857
0.000836089
0.000679241
0.000569618
0.000490058
0.000430122
0.000383708
0.000346862
0.000316962
0.000292245
0.000271497
0.000253856
0.000238694
0.000225543
0.000214048
0.000203933
0.000194979
0.000187015
0.000179898
0.000173515
0.000167769
0.000162582
0.000157887
0.000153626
0.000149753
0.000146225
0.000143005
0.000140064
0.000137372
0.000134911
0.000132637
0.000130608
0.000128483
0.00115953
0.00109653
0.00101167
0.000926421
0.000849817
0.000783629
0.000727079
0.000678754
0.00063724
0.000601313
0.000569971
0.000542409
0.000517988
0.000496199
0.000476633
0.000458962
0.00044292
0.000428289
0.000414889
0.000402568
0.000391201
0.00038068
0.000370914
0.000361826
0.000353347
0.000345419
0.000337993
0.000331026
0.000324484
0.000318336
0.00031257
0.000307163
0.000302148
0.00116966
0.00115863
0.00113363
0.00109757
0.00105569
0.0010122
0.000969676
0.000929419
0.000891979
0.00085748
0.00082583
0.00079684
0.000770282
0.000745924
0.000723545
0.00070294
0.000683926
0.00066634
0.000650037
0.000634889
0.000620782
0.000607617
0.000595304
0.000583765
0.00057293
0.000562736
0.000553128
0.000544055
0.000535473
0.000527344
0.000519636
0.000512321
0.000505384
0.00117006
0.00116839
0.00116306
0.00115261
0.00113713
0.00111767
0.00109554
0.00107191
0.00104771
0.00102359
0.000999992
0.000977175
0.000955302
0.000934451
0.000914649
0.00089589
0.000878143
0.00086137
0.000845521
0.000830545
0.000816388
0.000803
0.000790329
0.000778327
0.000766948
0.000756148
0.000745886
0.000736123
0.000726822
0.000717952
0.000709479
0.000701382
0.000693633
0.00116996
0.00116938
0.00116821
0.00116569
0.00116123
0.00115458
0.00114584
0.00113528
0.00112328
0.00111023
0.00109648
0.00108233
0.001068
0.0010537
0.00103955
0.00102566
0.0010121
0.000998925
0.00098616
0.000973826
0.000961932
0.000950478
0.00093946
0.000928867
0.000918687
0.000908905
0.000899505
0.00089047
0.000881782
0.000873424
0.000865378
0.00085763
0.000850164
0.00116994
0.0011694
0.00116883
0.00116803
0.00116674
0.00116472
0.0011618
0.00115791
0.00115304
0.00114728
0.00114074
0.00113353
0.00112581
0.00111768
0.00110926
0.00110066
0.00109195
0.00108321
0.00107449
0.00106583
0.00105729
0.00104888
0.00104062
0.00103254
0.00102465
0.00101695
0.00100944
0.00100213
0.000995017
0.000988099
0.000981374
0.000974837
0.000968483
0.00116994
0.00116939
0.00116886
0.00116832
0.0011677
0.00116692
0.00116588
0.00116449
0.00116269
0.00116043
0.00115771
0.00115455
0.00115097
0.001147
0.00114271
0.00113813
0.00113331
0.0011283
0.00112314
0.00111788
0.00111254
0.00110715
0.00110174
0.00109634
0.00109096
0.00108562
0.00108032
0.00107509
0.00106993
0.00106484
0.00105984
0.00105492
0.00105009
0.00116994
0.00116938
0.00116885
0.00116833
0.00116782
0.00116729
0.00116671
0.00116605
0.00116526
0.00116432
0.00116319
0.00116185
0.00116029
0.00115852
0.00115653
0.00115434
0.00115195
0.00114939
0.00114668
0.00114383
0.00114086
0.00113779
0.00113463
0.00113141
0.00112814
0.00112483
0.00112149
0.00111814
0.00111478
0.00111143
0.00110808
0.00110475
0.00110144
0.00116994
0.00116938
0.00116884
0.00116832
0.00116782
0.00116732
0.00116683
0.00116634
0.00116582
0.00116527
0.00116466
0.00116399
0.00116324
0.00116239
0.00116145
0.00116041
0.00115926
0.00115801
0.00115666
0.00115522
0.00115368
0.00115207
0.00115037
0.00114861
0.00114679
0.00114491
0.00114299
0.00114103
0.00113903
0.00113701
0.00113496
0.0011329
0.00113083
0.00116994
0.00116938
0.00116884
0.00116832
0.00116781
0.00116732
0.00116684
0.00116637
0.00116591
0.00116545
0.00116499
0.00116451
0.00116402
0.0011635
0.00116296
0.00116237
0.00116175
0.00116108
0.00116037
0.00115961
0.0011588
0.00115795
0.00115705
0.00115611
0.00115513
0.0011541
0.00115304
0.00115195
0.00115083
0.00114968
0.00114851
0.00114731
0.0011461
0.00116994
0.00116938
0.00116884
0.00116832
0.00116781
0.00116732
0.00116684
0.00116637
0.00116592
0.00116547
0.00116504
0.00116461
0.00116419
0.00116376
0.00116334
0.00116291
0.00116247
0.00116203
0.00116156
0.00116109
0.0011606
0.00116009
0.00115956
0.00115901
0.00115844
0.00115785
0.00115725
0.00115662
0.00115598
0.00115532
0.00115465
0.00115396
0.00115326
0.00116994
0.00116938
0.00116884
0.00116832
0.00116781
0.00116731
0.00116683
0.00116636
0.00116591
0.00116547
0.00116504
0.00116462
0.00116421
0.00116381
0.00116342
0.00116303
0.00116265
0.00116227
0.00116189
0.00116152
0.00116114
0.00116076
0.00116038
0.00115999
0.0011596
0.00115921
0.00115881
0.0011584
0.00115799
0.00115757
0.00115715
0.00115672
0.00115629
0.00116994
0.00116938
0.00116884
0.00116832
0.00116781
0.00116731
0.00116683
0.00116636
0.00116591
0.00116546
0.00116503
0.00116462
0.00116421
0.00116381
0.00116343
0.00116305
0.00116268
0.00116232
0.00116197
0.00116162
0.00116128
0.00116094
0.00116061
0.00116028
0.00115996
0.00115964
0.00115932
0.001159
0.00115868
0.00115837
0.00115805
0.00115774
0.00115743
0.00116994
0.00116938
0.00116884
0.00116831
0.0011678
0.00116731
0.00116683
0.00116636
0.0011659
0.00116546
0.00116503
0.00116461
0.0011642
0.00116381
0.00116342
0.00116305
0.00116268
0.00116232
0.00116197
0.00116163
0.0011613
0.00116098
0.00116066
0.00116035
0.00116005
0.00115975
0.00115946
0.00115917
0.00115889
0.00115861
0.00115834
0.00115808
0.00115781
0.00116994
0.00116938
0.00116884
0.00116831
0.0011678
0.00116731
0.00116683
0.00116636
0.0011659
0.00116546
0.00116503
0.00116461
0.0011642
0.0011638
0.00116342
0.00116304
0.00116267
0.00116232
0.00116197
0.00116163
0.0011613
0.00116098
0.00116067
0.00116036
0.00116006
0.00115977
0.00115949
0.00115921
0.00115894
0.00115868
0.00115842
0.00115817
0.00115792
0.00116994
0.00116938
0.00116884
0.00116831
0.0011678
0.00116731
0.00116682
0.00116635
0.0011659
0.00116545
0.00116502
0.0011646
0.0011642
0.0011638
0.00116341
0.00116303
0.00116267
0.00116231
0.00116196
0.00116162
0.0011613
0.00116097
0.00116066
0.00116036
0.00116006
0.00115977
0.00115949
0.00115921
0.00115895
0.00115869
0.00115843
0.00115819
0.00115795
0.00116994
0.00116938
0.00116884
0.00116831
0.0011678
0.00116731
0.00116682
0.00116635
0.0011659
0.00116545
0.00116502
0.0011646
0.00116419
0.00116379
0.00116341
0.00116303
0.00116266
0.00116231
0.00116196
0.00116162
0.00116129
0.00116097
0.00116065
0.00116035
0.00116005
0.00115976
0.00115948
0.00115921
0.00115894
0.00115868
0.00115843
0.00115818
0.00115795
0.00116994
0.00116938
0.00116884
0.00116831
0.0011678
0.0011673
0.00116682
0.00116635
0.00116589
0.00116545
0.00116502
0.0011646
0.00116419
0.00116379
0.0011634
0.00116303
0.00116266
0.0011623
0.00116195
0.00116161
0.00116128
0.00116096
0.00116065
0.00116034
0.00116005
0.00115976
0.00115948
0.0011592
0.00115893
0.00115868
0.00115842
0.00115818
0.00115794
0.00116994
0.00116938
0.00116884
0.00116831
0.0011678
0.0011673
0.00116682
0.00116635
0.00116589
0.00116545
0.00116502
0.0011646
0.00116419
0.00116379
0.0011634
0.00116302
0.00116265
0.0011623
0.00116195
0.00116161
0.00116128
0.00116096
0.00116064
0.00116034
0.00116004
0.00115975
0.00115947
0.00115919
0.00115893
0.00115867
0.00115841
0.00115817
0.00115793
0.00116994
0.00116938
0.00116884
0.00116831
0.0011678
0.0011673
0.00116682
0.00116635
0.00116589
0.00116545
0.00116501
0.00116459
0.00116418
0.00116378
0.0011634
0.00116302
0.00116265
0.00116229
0.00116194
0.0011616
0.00116127
0.00116095
0.00116064
0.00116033
0.00116003
0.00115974
0.00115946
0.00115919
0.00115892
0.00115866
0.00115841
0.00115816
0.00115792
0.00116994
0.00116938
0.00116884
0.00116831
0.0011678
0.0011673
0.00116682
0.00116635
0.00116589
0.00116545
0.00116501
0.00116459
0.00116418
0.00116378
0.00116339
0.00116302
0.00116265
0.00116229
0.00116194
0.0011616
0.00116127
0.00116095
0.00116063
0.00116033
0.00116003
0.00115974
0.00115945
0.00115918
0.00115891
0.00115865
0.0011584
0.00115815
0.00115791
0.00116994
0.00116938
0.00116884
0.00116831
0.0011678
0.0011673
0.00116682
0.00116635
0.00116589
0.00116544
0.00116501
0.00116459
0.00116418
0.00116378
0.00116339
0.00116301
0.00116264
0.00116229
0.00116194
0.0011616
0.00116126
0.00116094
0.00116063
0.00116032
0.00116002
0.00115973
0.00115945
0.00115917
0.0011589
0.00115864
0.00115839
0.00115814
0.0011579
0.00116994
0.00116938
0.00116884
0.00116831
0.0011678
0.0011673
0.00116682
0.00116635
0.00116589
0.00116544
0.00116501
0.00116459
0.00116418
0.00116378
0.00116339
0.00116301
0.00116264
0.00116228
0.00116193
0.00116159
0.00116126
0.00116094
0.00116062
0.00116032
0.00116002
0.00115973
0.00115944
0.00115917
0.0011589
0.00115864
0.00115838
0.00115813
0.00115789
0.00116994
0.00116938
0.00116884
0.00116831
0.0011678
0.0011673
0.00116682
0.00116635
0.00116589
0.00116544
0.00116501
0.00116459
0.00116418
0.00116378
0.00116339
0.00116301
0.00116264
0.00116228
0.00116193
0.00116159
0.00116126
0.00116093
0.00116062
0.00116031
0.00116001
0.00115972
0.00115944
0.00115916
0.00115889
0.00115863
0.00115837
0.00115813
0.00115788
0.00116994
0.00116938
0.00116884
0.00116831
0.0011678
0.0011673
0.00116682
0.00116635
0.00116589
0.00116544
0.00116501
0.00116459
0.00116417
0.00116377
0.00116339
0.00116301
0.00116264
0.00116228
0.00116193
0.00116159
0.00116125
0.00116093
0.00116061
0.00116031
0.00116001
0.00115972
0.00115943
0.00115915
0.00115888
0.00115862
0.00115837
0.00115812
0.00115787
0.00116994
0.00116938
0.00116884
0.00116831
0.0011678
0.0011673
0.00116682
0.00116635
0.00116589
0.00116544
0.00116501
0.00116459
0.00116417
0.00116377
0.00116338
0.001163
0.00116264
0.00116228
0.00116192
0.00116158
0.00116125
0.00116093
0.00116061
0.0011603
0.00116
0.00115971
0.00115943
0.00115915
0.00115888
0.00115862
0.00115836
0.00115811
0.00115787
0.00116994
0.00116938
0.00116884
0.00116831
0.0011678
0.0011673
0.00116682
0.00116634
0.00116589
0.00116544
0.00116501
0.00116458
0.00116417
0.00116377
0.00116338
0.001163
0.00116263
0.00116227
0.00116192
0.00116158
0.00116125
0.00116092
0.00116061
0.0011603
0.00116
0.00115971
0.00115942
0.00115914
0.00115887
0.00115861
0.00115835
0.0011581
0.00115786
0.00116994
0.00116938
0.00116884
0.00116831
0.0011678
0.0011673
0.00116682
0.00116635
0.00116589
0.00116544
0.00116501
0.00116459
0.00116417
0.00116377
0.00116338
0.00116301
0.00116264
0.00116228
0.00116192
0.00116158
0.00116125
0.00116092
0.00116061
0.0011603
0.00116
0.00115971
0.00115942
0.00115914
0.00115887
0.00115861
0.00115835
0.0011581
0.00115785
0.00116994
0.00116938
0.00116884
0.00116831
0.0011678
0.0011673
0.00116682
0.00116635
0.00116589
0.00116544
0.00116501
0.00116459
0.00116418
0.00116378
0.00116339
0.00116301
0.00116264
0.00116228
0.00116193
0.00116158
0.00116125
0.00116093
0.00116061
0.0011603
0.00116
0.0011597
0.00115942
0.00115914
0.00115886
0.0011586
0.00115834
0.00115809
0.00115784
0.00116994
0.00116938
0.00116884
0.00116831
0.0011678
0.00116731
0.00116682
0.00116635
0.0011659
0.00116545
0.00116502
0.0011646
0.00116419
0.00116378
0.0011634
0.00116301
0.00116264
0.00116228
0.00116193
0.00116159
0.00116125
0.00116092
0.0011606
0.00116029
0.00115999
0.00115969
0.00115939
0.00115911
0.00115883
0.00115856
0.00115829
0.00115803
0.00115777
0.00116994
0.00116938
0.00116884
0.00116831
0.00116781
0.00116731
0.00116683
0.00116636
0.0011659
0.00116546
0.00116503
0.0011646
0.00116419
0.00116379
0.0011634
0.00116301
0.00116264
0.00116227
0.00116191
0.00116155
0.0011612
0.00116086
0.00116052
0.00116019
0.00115986
0.00115954
0.00115922
0.0011589
0.00115859
0.00115828
0.00115798
0.00115768
0.00115738
0.00116994
0.00116938
0.00116884
0.00116833
0.00116782
0.00116733
0.00116685
0.00116639
0.00116593
0.00116548
0.00116503
0.00116459
0.00116416
0.00116373
0.00116331
0.00116288
0.00116246
0.00116204
0.00116161
0.00116119
0.00116076
0.00116033
0.0011599
0.00115947
0.00115903
0.00115859
0.00115814
0.00115769
0.00115724
0.00115679
0.00115633
0.00115587
0.00115541
0.00116994
0.00116939
0.00116886
0.00116835
0.00116784
0.00116733
0.00116683
0.00116632
0.00116581
0.00116528
0.00116473
0.00116417
0.00116358
0.00116297
0.00116233
0.00116166
0.00116096
0.00116024
0.00115948
0.0011587
0.00115789
0.00115706
0.0011562
0.00115531
0.00115441
0.00115348
0.00115254
0.00115158
0.0011506
0.00114961
0.00114861
0.0011476
0.00114658
0.00116995
0.0011694
0.00116886
0.00116828
0.00116765
0.00116694
0.00116612
0.00116519
0.00116413
0.00116294
0.00116162
0.00116016
0.00115858
0.00115688
0.00115506
0.00115313
0.0011511
0.00114898
0.00114679
0.00114452
0.00114219
0.0011398
0.00113737
0.00113491
0.00113241
0.00112989
0.00112736
0.00112481
0.00112226
0.00111971
0.00111717
0.00111463
0.00111211
0.00116996
0.00116916
0.00116786
0.00116595
0.00116343
0.00116029
0.00115656
0.00115227
0.00114746
0.00114221
0.00113657
0.00113062
0.0011244
0.00111799
0.00111142
0.00110475
0.00109801
0.00109125
0.00108448
0.00107774
0.00107105
0.00106442
0.00105787
0.00105142
0.00104508
0.00103884
0.00103273
0.00102674
0.00102087
0.00101514
0.00100954
0.00100407
0.000998741
0.00116831
0.00115866
0.001145
0.00112844
0.00110969
0.00108947
0.00106843
0.00104707
0.0010258
0.00100488
0.000984487
0.000964751
0.000945741
0.000927494
0.000910022
0.000893321
0.000877375
0.000862161
0.00084765
0.000833812
0.000820615
0.000808028
0.000796018
0.000784555
0.00077361
0.000763154
0.000753162
0.000743606
0.000734465
0.000725715
0.000717334
0.000709304
0.000701603
0.00107567
0.000936196
0.000835611
0.000756902
0.00069212
0.000638385
0.000593492
0.000555613
0.00052331
0.000495478
0.000471269
0.000450031
0.000431257
0.000414549
0.00039959
0.000386126
0.000373951
0.000362893
0.000352813
0.000343591
0.000335129
0.000327341
0.000320156
0.000313509
0.000307347
0.000301622
0.000296293
0.000291323
0.000286681
0.000282336
0.000278264
0.000274442
0.000270848
0.000142979
0.000146644
0.000150174
0.000153551
0.000156773
0.000159846
0.000162776
0.000165567
0.000168225
0.000170754
0.000173161
0.00017545
0.000177625
0.000179691
0.000181654
0.000183517
0.000185285
0.000186963
0.000188554
0.000190063
0.000191494
0.00019285
0.000194136
0.000195354
0.000196508
0.000197601
0.000198637
0.000199618
0.000200547
0.000201426
0.000202259
0.000203048
0.000203795
9.05793e-05
0.000111546
0.000140865
0.000179375
0.00022558
0.000276292
0.000327893
0.000377687
0.000424744
0.000469659
0.000514204
0.000560281
0.000608818
0.000659686
0.00071232
0.000766407
0.000822187
0.000880368
0.000941754
0.00100695
0.00107619
0.00114943
0.00122639
0.00130659
0.00138934
0.00147361
0.00155801
0.00164083
0.00172012
0.00179376
0.00185949
0.00191502
0.00195799
0.00198602
0.00199677
0.00198792
0.00195727
0.00190283
0.00182293
0.0017165
0.00158357
0.00142621
0.00125043
0.00106972
0.000909999
0.000812827
0.000825584
0.000957443
0.00113484
0.00128073
0.00138636
0.00146706
0.00153262
0.00158714
0.00163246
0.00166984
0.00170044
0.0017254
0.0017458
0.00176267
0.00177688
0.0017892
0.00180029
0.00181069
0.00182083
0.00183107
0.00184166
0.00185276
0.00186445
0.00187674
0.00188957
0.00190281
0.00191632
0.0019299
0.00194338
0.00195658
0.00196932
0.00198146
0.00199292
0.00200364
0.0020136
0.00202284
0.00203141
0.00203936
0.00204675
0.0020535
0.00205944
0.00206415
0.00206693
0.00206678
0.00206239
0.00205228
0.00203493
0.00200899
0.00197349
0.00192801
0.00187292
0.00180828
0.0017425
0.00163112
7.66249e-05
7.89697e-05
8.29248e-05
8.96574e-05
0.00010073
0.000117904
0.000142764
0.000176231
0.000218122
0.000266874
0.000319761
0.000373701
0.000426322
0.000476607
0.00052487
0.000572316
0.000620317
0.000670077
0.000722137
0.000776535
0.000833207
0.000892242
0.000953862
0.00101821
0.00108511
0.00115397
0.00122374
0.001293
0.00136003
0.00142286
0.00147936
0.00152725
0.00156413
0.00158759
0.00159521
0.00158467
0.00155386
0.00150106
0.00142519
0.0013264
0.00120692
0.00107285
0.000936846
0.000821565
0.000761024
0.000790994
0.000914635
0.00107518
0.00121377
0.00131959
0.00140258
0.00147076
0.00152804
0.00157634
0.00161681
0.00165043
0.00167813
0.00170087
0.00171957
0.00173508
0.00174817
0.00175951
0.00176968
0.00177916
0.00178836
0.00179762
0.0018072
0.00181728
0.00182799
0.00183936
0.00185139
0.001864
0.00187707
0.00189045
0.00190397
0.00191743
0.00193067
0.00194353
0.00195588
0.00196762
0.00197872
0.00198915
0.00199895
0.00200812
0.0020167
0.00202461
0.00203166
0.00203744
0.00204126
0.00204213
0.00203879
0.00202977
0.00201359
0.00198893
0.00195484
0.00191092
0.00185753
0.00179474
0.00173077
0.00162209
0.000126325
0.000124274
0.000122397
0.000120531
0.000118589
0.000116584
0.000114826
0.000114389
0.000117305
0.000125961
0.000142253
0.000167181
0.000200728
0.000241879
0.00028878
0.000339179
0.000390852
0.000441872
0.000491276
0.000539288
0.00058684
0.000635016
0.00068464
0.000736086
0.000789276
0.000843777
0.000898876
0.000953613
0.00100675
0.00105678
0.00110189
0.00114002
0.00116895
0.00118641
0.00119016
0.00117818
0.00114889
0.00110151
0.00103661
0.000957017
0.000869266
0.000785534
0.000725428
0.000714897
0.000775024
0.000897253
0.00103875
0.00116367
0.0012644
0.00134606
0.0014142
0.00147221
0.00152191
0.00156434
0.00160027
0.00163039
0.00165544
0.00167617
0.00169334
0.00170765
0.00171976
0.00173025
0.00173962
0.0017483
0.00175667
0.00176504
0.00177367
0.00178277
0.00179246
0.00180285
0.00181395
0.00182574
0.00183814
0.00185104
0.00186429
0.00187771
0.00189114
0.0019044
0.00191735
0.00192987
0.00194187
0.00195332
0.00196418
0.00197446
0.00198415
0.00199316
0.00200129
0.00200814
0.00201304
0.00201503
0.00201286
0.00200511
0.00199033
0.00196721
0.00193484
0.00189281
0.00184148
0.00178087
0.001719
0.00161339
0.000296666
0.000290633
0.00028483
0.000279423
0.00027467
0.000270911
0.000268288
0.000266126
0.000262097
0.000252476
0.000235268
0.000213722
0.000194629
0.000183346
0.000181911
0.000190228
0.000207385
0.000232254
0.000263519
0.000299627
0.000338928
0.000379966
0.000421692
0.000463527
0.000505265
0.000546867
0.000588246
0.000629086
0.000668732
0.000706172
0.00074006
0.000768802
0.00079067
0.000803944
0.000807118
0.00079917
0.000779953
0.000750755
0.000715091
0.000679714
0.000655585
0.000657722
0.000701044
0.000789428
0.000906542
0.00102661
0.0011336
0.00122403
0.00130021
0.00136531
0.00142177
0.00147104
0.00151397
0.00155112
0.00158293
0.0016099
0.00163255
0.00165148
0.00166728
0.00168054
0.00169179
0.00170154
0.00171022
0.00171821
0.00172585
0.00173344
0.00174121
0.00174937
0.00175809
0.00176746
0.00177756
0.0017884
0.00179996
0.00181214
0.00182484
0.00183792
0.00185121
0.00186455
0.00187779
0.00189079
0.00190344
0.00191566
0.0019274
0.00193863
0.0019493
0.00195932
0.00196847
0.00197637
0.00198236
0.00198551
0.00198461
0.00197827
0.00196506
0.00194372
0.00191333
0.00187349
0.00182451
0.00176639
0.00170693
0.00160473
0.000497747
0.000489355
0.000481177
0.000473231
0.000465608
0.000458551
0.000452538
0.000448334
0.000446847
0.000448541
0.000452406
0.000454681
0.000448643
0.000428177
0.000393816
0.000353378
0.000316024
0.000286785
0.000268413
0.000259554
0.000258749
0.00026479
0.000276593
0.000293121
0.000313369
0.000336377
0.000361257
0.000387186
0.000413382
0.000439066
0.000463433
0.00048566
0.000504972
0.000520799
0.000533012
0.000542271
0.000550451
0.000561103
0.000579705
0.000613167
0.000667664
0.000744719
0.000838483
0.000938318
0.00103459
0.00112189
0.00119876
0.00126606
0.00132537
0.00137808
0.00142512
0.00146705
0.00150416
0.0015367
0.0015649
0.00158908
0.00160961
0.00162693
0.00164152
0.00165385
0.00166436
0.00167347
0.00168155
0.00168895
0.00169597
0.00170286
0.00170987
0.00171718
0.00172496
0.00173335
0.00174243
0.00175225
0.00176282
0.0017741
0.00178603
0.00179848
0.00181134
0.00182444
0.00183765
0.00185082
0.00186382
0.00187655
0.00188893
0.00190089
0.00191238
0.00192328
0.00193336
0.00194225
0.00194932
0.00195366
0.00195409
0.00194928
0.00193781
0.00191845
0.0018903
0.00185291
0.00180658
0.00175125
0.00169446
0.00159604
0.000685026
0.000675514
0.000666181
0.00065698
0.000647864
0.000638822
0.000629919
0.000621358
0.000613542
0.00060709
0.000602701
0.000600791
0.000600885
0.000601044
0.000597874
0.000587437
0.000567382
0.000536721
0.000504095
0.00047322
0.00044594
0.000423209
0.00040545
0.000392749
0.00038498
0.000381891
0.000383154
0.00038841
0.000397295
0.000409477
0.000424687
0.000442775
0.000463783
0.000488029
0.000516212
0.000549454
0.000589221
0.000637005
0.000693738
0.000759127
0.000831307
0.000907134
0.000983017
0.00105587
0.00112374
0.00118593
0.0012426
0.00129431
0.00134162
0.00138495
0.00142451
0.00146039
0.00149261
0.00152122
0.00154632
0.00156807
0.00158675
0.00160266
0.00161619
0.00162769
0.00163755
0.0016461
0.00165368
0.00166058
0.00166705
0.00167335
0.00167968
0.00168623
0.00169316
0.00170062
0.00170869
0.00171747
0.00172699
0.00173725
0.00174823
0.00175984
0.00177199
0.00178456
0.00179742
0.00181043
0.00182346
0.0018364
0.00184914
0.00186161
0.0018737
0.0018853
0.00189618
0.00190597
0.00191406
0.00191958
0.0019214
0.0019182
0.00190862
0.00189143
0.00186573
0.00183106
0.00178766
0.00173539
0.00168153
0.00158724
0.000841799
0.000832461
0.000823213
0.000814024
0.000804854
0.000795665
0.000786436
0.000777181
0.000767976
0.000758991
0.000750519
0.000742947
0.000736654
0.00073179
0.000728036
0.000724431
0.000719518
0.000711478
0.000700419
0.000686897
0.000671787
0.0006561
0.000640838
0.000626899
0.000615038
0.000605861
0.000599849
0.00059738
0.000598762
0.000604261
0.000614116
0.000628565
0.000647842
0.000672171
0.000701732
0.000736601
0.000776661
0.000821508
0.000870387
0.0009222
0.00097562
0.00102928
0.00108199
0.00113288
0.00118143
0.00122746
0.00127098
0.00131203
0.00135066
0.00138684
0.00142046
0.00145142
0.00147959
0.0015049
0.00152735
0.00154703
0.00156411
0.0015788
0.00159139
0.00160218
0.00161146
0.00161954
0.00162668
0.00163314
0.00163916
0.00164494
0.00165069
0.00165656
0.00166273
0.00166932
0.00167645
0.00168421
0.00169266
0.00170185
0.00171175
0.00172236
0.00173359
0.00174537
0.00175759
0.00177014
0.00178288
0.00179571
0.00180851
0.00182119
0.00183364
0.00184573
0.00185723
0.00186778
0.0018768
0.00188346
0.00188667
0.00188515
0.00187757
0.00186271
0.00183965
0.00180793
0.00176769
0.00171876
0.00166808
0.00157824
0.000961294
0.000953181
0.00094506
0.000936918
0.000928735
0.000920492
0.000912173
0.000903776
0.000895317
0.000886845
0.000878452
0.000870284
0.000862546
0.000855467
0.000849235
0.000843896
0.000839274
0.000834984
0.000830659
0.000826038
0.000821012
0.000815645
0.000810155
0.000804876
0.000800223
0.00079664
0.00079458
0.000794477
0.000796732
0.000801708
0.000809722
0.000821035
0.00083584
0.000854252
0.000876284
0.00090183
0.000930646
0.000962346
0.000996419
0.00103226
0.00106925
0.00110677
0.00114433
0.00118151
0.00121804
0.00125372
0.00128839
0.00132189
0.00135407
0.00138471
0.00141362
0.00144058
0.0014654
0.00148796
0.0015082
0.00152612
0.00154182
0.00155546
0.00156724
0.0015774
0.00158619
0.00159384
0.0016006
0.00160669
0.00161231
0.00161765
0.00162289
0.00162818
0.00163367
0.00163949
0.00164575
0.00165255
0.00165997
0.00166806
0.00167686
0.00168635
0.00169652
0.00170731
0.00171865
0.00173045
0.0017426
0.001755
0.00176755
0.00178014
0.00179266
0.00180498
0.00181688
0.00182801
0.00183782
0.00184554
0.0018501
0.00185028
0.00184476
0.00183235
0.00181212
0.00178353
0.00174669
0.00170131
0.00165403
0.00156898
0.00104457
0.00103826
0.00103186
0.00102538
0.00101882
0.00101215
0.00100539
0.000998533
0.000991589
0.000984585
0.000977562
0.000970583
0.000963739
0.000957145
0.000950939
0.000945257
0.000940194
0.00093579
0.000932027
0.000928845
0.00092618
0.000923982
0.000922244
0.000921012
0.000920388
0.000920523
0.000921611
0.000923871
0.000927535
0.000932835
0.000939987
0.000949179
0.000960558
0.000974219
0.000990194
0.00100844
0.00102886
0.00105125
0.00107539
0.00110098
0.00112773
0.00115536
0.00118358
0.00121217
0.00124089
0.00126956
0.00129796
0.0013259
0.00135315
0.00137947
0.0014046
0.00142831
0.00145039
0.00147067
0.00148904
0.00150547
0.00152001
0.00153274
0.00154383
0.00155344
0.00156179
0.00156908
0.00157551
0.00158128
0.00158655
0.00159152
0.00159632
0.0016011
0.001606
0.00161113
0.00161661
0.00162253
0.00162898
0.00163602
0.00164371
0.00165206
0.00166108
0.00167074
0.00168102
0.00169184
0.00170314
0.00171483
0.00172681
0.00173901
0.0017513
0.00176356
0.0017756
0.00178708
0.00179751
0.00180613
0.00181196
0.00181381
0.00181039
0.00180051
0.00178321
0.00175792
0.00172464
0.00168303
0.00163935
0.00155935
0.0010976
0.00109317
0.00108862
0.00108395
0.00107916
0.00107427
0.00106926
0.00106414
0.00105894
0.00105366
0.00104833
0.001043
0.00103769
0.00103249
0.00102745
0.00102267
0.00101823
0.00101423
0.00101074
0.0010078
0.00100546
0.00100374
0.00100266
0.00100224
0.00100252
0.00100355
0.0010054
0.00100816
0.00101193
0.00101683
0.00102296
0.00103045
0.00103938
0.00104982
0.00106183
0.00107541
0.00109053
0.00110713
0.00112511
0.00114436
0.00116473
0.00118607
0.00120824
0.00123106
0.00125439
0.00127804
0.00130183
0.00132555
0.00134898
0.00137187
0.00139397
0.00141504
0.00143486
0.00145324
0.00147005
0.00148523
0.00149877
0.00151073
0.00152121
0.00153036
0.00153833
0.0015453
0.00155144
0.00155693
0.00156191
0.00156654
0.00157097
0.00157531
0.0015797
0.00158423
0.00158902
0.00159415
0.00159971
0.00160578
0.0016124
0.00161963
0.00162748
0.00163596
0.00164506
0.00165475
0.00166499
0.00167572
0.00168687
0.00169837
0.00171013
0.00172204
0.00173392
0.00174549
0.0017563
0.00176565
0.00177261
0.00177604
0.00177469
0.00176735
0.00175305
0.00173116
0.0017016
0.0016639
0.00162397
0.0015493
0.0011284
0.00112555
0.00112259
0.00111951
0.00111632
0.00111302
0.00110962
0.00110612
0.00110254
0.00109888
0.00109516
0.00109142
0.00108767
0.00108396
0.00108032
0.00107681
0.00107349
0.00107041
0.00106763
0.00106523
0.00106326
0.00106178
0.00106082
0.00106043
0.00106066
0.00106155
0.00106314
0.00106548
0.00106863
0.00107265
0.0010776
0.00108356
0.00109056
0.00109868
0.00110795
0.0011184
0.00113004
0.00114286
0.00115683
0.00117191
0.00118803
0.00120513
0.00122311
0.00124187
0.00126129
0.00128123
0.00130152
0.00132199
0.00134241
0.00136258
0.00138223
0.00140115
0.0014191
0.0014359
0.0014514
0.00146551
0.0014782
0.00148949
0.00149946
0.00150819
0.00151584
0.00152253
0.00152842
0.00153366
0.00153839
0.00154274
0.00154684
0.0015508
0.00155474
0.00155876
0.00156294
0.00156738
0.00157215
0.00157733
0.00158298
0.00158914
0.00159585
0.00160315
0.00161103
0.00161951
0.00162855
0.00163815
0.00164824
0.0016588
0.00166975
0.00168101
0.00169244
0.00170382
0.00171474
0.00172458
0.00173247
0.00173734
0.00173795
0.00173313
0.00172184
0.0017034
0.00167762
0.00164396
0.00160789
0.00153875
0.00114466
0.00114295
0.00114115
0.00113926
0.00113728
0.00113522
0.00113308
0.00113085
0.00112856
0.00112621
0.00112382
0.00112139
0.00111895
0.00111653
0.00111414
0.00111182
0.0011096
0.00110752
0.00110562
0.00110396
0.00110257
0.0011015
0.00110081
0.00110053
0.00110071
0.0011014
0.00110264
0.00110447
0.00110695
0.00111011
0.00111401
0.00111869
0.0011242
0.00113058
0.00113788
0.00114612
0.00115534
0.00116555
0.00117675
0.00118894
0.0012021
0.00121619
0.00123116
0.00124695
0.00126346
0.00128059
0.0012982
0.00131612
0.00133418
0.00135215
0.00136982
0.00138697
0.00140337
0.00141884
0.00143323
0.00144642
0.00145838
0.00146909
0.0014786
0.00148698
0.00149433
0.00150078
0.00150646
0.00151148
0.00151599
0.00152009
0.00152391
0.00152755
0.00153111
0.00153467
0.00153834
0.00154217
0.00154625
0.00155065
0.00155541
0.0015606
0.00156626
0.00157242
0.00157912
0.00158636
0.00159415
0.0016025
0.0016114
0.00162081
0.00163072
0.00164108
0.00165179
0.00166267
0.00167341
0.00168347
0.00169205
0.00169815
0.00170058
0.00169815
0.00168982
0.00167481
0.00165284
0.00162324
0.00159112
0.00152765
0.00115242
0.00115142
0.00115037
0.00114925
0.00114808
0.00114685
0.00114556
0.00114422
0.00114284
0.00114142
0.00113997
0.00113851
0.00113704
0.00113557
0.00113413
0.00113274
0.00113141
0.00113018
0.00112906
0.00112809
0.00112729
0.00112671
0.00112638
0.00112634
0.00112663
0.00112728
0.00112835
0.00112987
0.00113188
0.00113442
0.00113755
0.0011413
0.00114572
0.00115086
0.00115674
0.00116343
0.00117093
0.0011793
0.00118854
0.00119867
0.0012097
0.00122161
0.00123437
0.00124795
0.00126227
0.00127725
0.00129277
0.0013087
0.00132485
0.00134105
0.0013571
0.00137277
0.00138787
0.00140221
0.00141564
0.00142805
0.00143936
0.00144956
0.00145866
0.00146673
0.00147383
0.00148006
0.00148555
0.00149039
0.0014947
0.00149859
0.00150217
0.00150553
0.00150875
0.00151193
0.00151515
0.00151846
0.00152194
0.00152565
0.00152965
0.00153398
0.00153868
0.0015438
0.00154938
0.00155543
0.00156199
0.00156907
0.00157669
0.00158485
0.00159356
0.0016028
0.00161255
0.00162268
0.00163295
0.00164292
0.00165191
0.00165898
0.001663
0.00166279
0.00165728
0.00164561
0.00162739
0.00160186
0.00157368