/*--------------------------------*- C++ -*----------------------------------*\
| =========                 |                                                 |
| \\      /  F ield         | OpenFOAM: The Open Source CFD Toolbox           |
|  \\    /   O peration     | Version:  2.1.1                                 |
|   \\  /    A nd           | Web:      www.OpenFOAM.org                      |
|    \\/     M anipulation  |                                                 |
\*---------------------------------------------------------------------------*/
FoamFile
{
    version     2.0;
    format      ascii;
    class       volScalarField;
    location    "0.08";
    object      p;
}
// * * * * * * * * * * * * * * * * * * * * * * * * * * * * * * * * * * * * * //

dimensions      [0 2 -2 0 0 0 0];

internalField   nonuniform List<scalar> 
6820
(
-11.1637
-13.01
-13.585
-13.7127
-13.8197
-13.8988
-13.9531
-13.9994
-14.0417
-14.0804
-14.1164
-14.1504
-14.1825
-14.2131
-14.2421
-14.2697
-14.296
-14.321
-14.3449
-14.3677
-14.3895
-14.4102
-14.4299
-14.4486
-14.466
-14.4821
-14.4964
-14.5085
-14.5173
-14.5214
-14.517
-14.4958
-14.4528
-15.1163
-14.5816
-14.1591
-13.9691
-13.9444
-13.9555
-13.9756
-14.0034
-14.0354
-14.0685
-14.1017
-14.1344
-14.1664
-14.1972
-14.2268
-14.2551
-14.2823
-14.3082
-14.333
-14.3566
-14.3792
-14.4007
-14.4212
-14.4406
-14.4589
-14.4759
-14.4916
-14.5057
-14.5177
-14.5293
-14.5382
-14.5684
-14.6067
-13.4737
-13.17
-13.4565
-13.7016
-13.8065
-13.8818
-13.9407
-13.9898
-14.0337
-14.0735
-14.1103
-14.1447
-14.1771
-14.2076
-14.2366
-14.2641
-14.2903
-14.3154
-14.3392
-14.3621
-14.384
-14.4049
-14.4249
-14.4439
-14.462
-14.4791
-14.495
-14.5099
-14.5236
-14.5372
-14.5509
-14.5713
-14.5936
-13.9807
-14.015
-14.0122
-13.953
-13.9452
-13.9656
-13.9918
-14.0205
-14.0512
-14.0823
-14.1132
-14.1435
-14.1731
-14.2018
-14.2295
-14.2563
-14.2821
-14.307
-14.3309
-14.354
-14.3761
-14.3974
-14.4179
-14.4375
-14.4563
-14.4743
-14.4914
-14.508
-14.524
-14.5409
-14.5587
-14.5849
-14.6144
-13.8253
-13.7253
-13.7695
-13.8354
-13.8883
-13.9348
-13.9754
-14.0126
-14.0482
-14.0824
-14.1151
-14.1464
-14.1766
-14.2055
-14.2332
-14.2599
-14.2855
-14.3101
-14.3337
-14.3564
-14.3784
-14.3995
-14.4198
-14.4395
-14.4584
-14.4767
-14.4945
-14.5119
-14.5294
-14.5478
-14.5677
-14.5926
-14.6202
-13.8804
-13.8637
-13.8889
-13.9119
-13.9342
-13.9634
-13.9948
-14.0263
-14.0579
-14.0891
-14.1195
-14.1491
-14.1779
-14.2057
-14.2326
-14.2585
-14.2836
-14.3078
-14.3312
-14.3538
-14.3757
-14.3969
-14.4174
-14.4373
-14.4567
-14.4756
-14.4941
-14.5127
-14.5314
-14.5512
-14.5725
-14.5972
-14.6239
-13.8786
-13.8575
-13.8733
-13.902
-13.9321
-13.9649
-13.9977
-14.0296
-14.061
-14.0917
-14.1217
-14.1509
-14.1792
-14.2066
-14.2331
-14.2588
-14.2836
-14.3076
-14.3308
-14.3533
-14.3752
-14.3964
-14.417
-14.4371
-14.4568
-14.4762
-14.4954
-14.5147
-14.5343
-14.555
-14.5769
-14.601
-14.6266
-13.8927
-13.885
-13.9003
-13.9248
-13.95
-13.9781
-14.0075
-14.0371
-14.0668
-14.0961
-14.1249
-14.1531
-14.1806
-14.2073
-14.2332
-14.2584
-14.2828
-14.3065
-14.3295
-14.3519
-14.3736
-14.3948
-14.4156
-14.4359
-14.4559
-14.4757
-14.4954
-14.5154
-14.5358
-14.557
-14.5793
-14.6031
-14.6279
-13.9057
-13.9018
-13.9139
-13.9354
-13.9593
-13.9861
-14.0143
-14.0428
-14.0714
-14.0997
-14.1276
-14.155
-14.1818
-14.2079
-14.2333
-14.2581
-14.2821
-14.3056
-14.3283
-14.3506
-14.3723
-14.3935
-14.4143
-14.4348
-14.4551
-14.4752
-14.4954
-14.5159
-14.5368
-14.5584
-14.5809
-14.6045
-14.6288
-13.9192
-13.9186
-13.9299
-13.9493
-13.9714
-13.9961
-14.0224
-14.0493
-14.0765
-14.1037
-14.1306
-14.1571
-14.1831
-14.2086
-14.2334
-14.2577
-14.2814
-14.3045
-14.327
-14.3491
-14.3707
-14.3919
-14.4127
-14.4334
-14.4538
-14.4743
-14.4948
-14.5156
-14.5369
-14.5587
-14.5814
-14.6048
-14.6289
-13.9328
-13.9338
-13.9441
-13.9616
-13.982
-14.0051
-14.0298
-14.0554
-14.0814
-14.1075
-14.1335
-14.1591
-14.1844
-14.2092
-14.2335
-14.2573
-14.2806
-14.3034
-14.3257
-14.3475
-14.369
-14.3902
-14.411
-14.4317
-14.4523
-14.473
-14.4937
-14.5148
-14.5363
-14.5583
-14.581
-14.6044
-14.6284
-13.946
-13.948
-13.9577
-13.9736
-13.9926
-14.0141
-14.0374
-14.0616
-14.0864
-14.1114
-14.1364
-14.1612
-14.1857
-14.2099
-14.2336
-14.2569
-14.2798
-14.3022
-14.3242
-14.3459
-14.3672
-14.3883
-14.4091
-14.4298
-14.4505
-14.4713
-14.4922
-14.5134
-14.535
-14.5571
-14.5798
-14.6032
-14.6271
-13.9588
-13.9613
-13.9705
-13.985
-14.0027
-14.0227
-14.0446
-14.0676
-14.0912
-14.1152
-14.1392
-14.1632
-14.187
-14.2105
-14.2337
-14.2565
-14.2789
-14.301
-14.3227
-14.3441
-14.3653
-14.3862
-14.407
-14.4277
-14.4484
-14.4691
-14.4901
-14.5114
-14.533
-14.5551
-14.5778
-14.601
-14.6248
-13.9711
-13.9737
-13.9824
-13.9958
-14.0123
-14.0311
-14.0517
-14.0735
-14.096
-14.1189
-14.1421
-14.1652
-14.1883
-14.2111
-14.2337
-14.256
-14.278
-14.2997
-14.3211
-14.3423
-14.3632
-14.3839
-14.4046
-14.4252
-14.4458
-14.4665
-14.4875
-14.5087
-14.5303
-14.5523
-14.5749
-14.5979
-14.6216
-13.9828
-13.9854
-13.9936
-14.0061
-14.0214
-14.039
-14.0584
-14.0791
-14.1005
-14.1225
-14.1448
-14.1671
-14.1895
-14.2117
-14.2337
-14.2555
-14.277
-14.2983
-14.3193
-14.3402
-14.3609
-14.3814
-14.4019
-14.4223
-14.4428
-14.4634
-14.4843
-14.5054
-14.5268
-14.5487
-14.571
-14.5939
-14.6173
-13.9938
-13.9963
-14.0041
-14.0157
-14.03
-14.0465
-14.0649
-14.0845
-14.1049
-14.126
-14.1474
-14.1689
-14.1905
-14.2121
-14.2335
-14.2548
-14.2758
-14.2967
-14.3174
-14.3379
-14.3583
-14.3786
-14.3988
-14.4191
-14.4394
-14.4598
-14.4804
-14.5013
-14.5225
-14.5441
-14.5662
-14.5887
-14.6118
-14.0041
-14.0065
-14.0138
-14.0247
-14.0381
-14.0536
-14.0709
-14.0895
-14.109
-14.1292
-14.1498
-14.1706
-14.1915
-14.2124
-14.2332
-14.254
-14.2745
-14.295
-14.3153
-14.3354
-14.3555
-14.3755
-14.3954
-14.4154
-14.4354
-14.4556
-14.476
-14.4965
-14.5174
-14.5387
-14.5603
-14.5824
-14.605
-14.0136
-14.016
-14.0228
-14.033
-14.0456
-14.0602
-14.0766
-14.0943
-14.1129
-14.1322
-14.152
-14.172
-14.1922
-14.2125
-14.2328
-14.2529
-14.273
-14.293
-14.3129
-14.3327
-14.3524
-14.372
-14.3916
-14.4112
-14.431
-14.4508
-14.4708
-14.491
-14.5115
-14.5323
-14.5534
-14.575
-14.597
-14.0224
-14.0246
-14.0311
-14.0406
-14.0525
-14.0663
-14.0818
-14.0986
-14.1164
-14.1349
-14.1539
-14.1732
-14.1928
-14.2124
-14.2321
-14.2517
-14.2713
-14.2908
-14.3103
-14.3296
-14.3489
-14.3681
-14.3874
-14.4066
-14.4259
-14.4454
-14.4649
-14.4847
-14.5047
-14.5249
-14.5455
-14.5664
-14.5877
-14.0304
-14.0325
-14.0386
-14.0476
-14.0588
-14.0719
-14.0866
-14.1026
-14.1196
-14.1373
-14.1555
-14.1742
-14.1931
-14.2121
-14.2312
-14.2503
-14.2694
-14.2884
-14.3073
-14.3262
-14.3451
-14.3639
-14.3827
-14.4015
-14.4203
-14.4393
-14.4583
-14.4775
-14.4969
-14.5166
-14.5364
-14.5566
-14.5771
-14.0376
-14.0396
-14.0454
-14.0539
-14.0644
-14.0768
-14.0908
-14.1061
-14.1223
-14.1393
-14.1569
-14.1748
-14.1931
-14.2115
-14.23
-14.2486
-14.2671
-14.2856
-14.3041
-14.3225
-14.3409
-14.3592
-14.3775
-14.3958
-14.4141
-14.4325
-14.451
-14.4696
-14.4883
-14.5072
-14.5263
-14.5456
-14.5652
-14.044
-14.0459
-14.0514
-14.0594
-14.0693
-14.0811
-14.0945
-14.109
-14.1246
-14.1409
-14.1578
-14.1751
-14.1928
-14.2106
-14.2286
-14.2466
-14.2646
-14.2826
-14.3005
-14.3184
-14.3363
-14.3541
-14.3718
-14.3896
-14.4074
-14.4251
-14.443
-14.4609
-14.4789
-14.4969
-14.5152
-14.5335
-14.5521
-14.0496
-14.0514
-14.0565
-14.0641
-14.0736
-14.0848
-14.0975
-14.1115
-14.1264
-14.1421
-14.1584
-14.1751
-14.1921
-14.2094
-14.2268
-14.2443
-14.2617
-14.2792
-14.2966
-14.314
-14.3313
-14.3485
-14.3657
-14.3829
-14.4
-14.4171
-14.4342
-14.4514
-14.4685
-14.4858
-14.503
-14.5204
-14.5378
-14.0543
-14.0559
-14.0608
-14.068
-14.0771
-14.0878
-14.0999
-14.1133
-14.1276
-14.1427
-14.1584
-14.1746
-14.191
-14.2078
-14.2246
-14.2415
-14.2585
-14.2754
-14.2922
-14.3091
-14.3258
-14.3424
-14.359
-14.3756
-14.392
-14.4084
-14.4248
-14.4411
-14.4574
-14.4737
-14.4899
-14.5062
-14.5224
-14.058
-14.0596
-14.0643
-14.0712
-14.0798
-14.09
-14.1017
-14.1146
-14.1284
-14.143
-14.1581
-14.1738
-14.1897
-14.2059
-14.2222
-14.2386
-14.255
-14.2713
-14.2877
-14.3039
-14.32
-14.3361
-14.352
-14.3678
-14.3836
-14.3992
-14.4147
-14.4302
-14.4455
-14.4608
-14.476
-14.4911
-14.5062
-14.0609
-14.0624
-14.0668
-14.0733
-14.0815
-14.0913
-14.1025
-14.1149
-14.1282
-14.1423
-14.157
-14.1721
-14.1876
-14.2033
-14.2191
-14.2349
-14.2508
-14.2666
-14.2824
-14.2981
-14.3136
-14.329
-14.3443
-14.3594
-14.3744
-14.3892
-14.4039
-14.4185
-14.4329
-14.4471
-14.4612
-14.4752
-14.489
-14.0628
-14.0643
-14.0685
-14.0748
-14.0828
-14.0923
-14.1032
-14.1152
-14.1282
-14.1419
-14.156
-14.1707
-14.1857
-14.2009
-14.2162
-14.2315
-14.2468
-14.2621
-14.2773
-14.2923
-14.3072
-14.322
-14.3365
-14.3509
-14.3651
-14.3791
-14.3929
-14.4065
-14.4199
-14.433
-14.446
-14.4587
-14.4712
-14.0636
-14.0649
-14.0688
-14.0746
-14.0821
-14.0912
-14.1016
-14.1132
-14.1258
-14.1391
-14.153
-14.1674
-14.182
-14.1968
-14.2117
-14.2266
-14.2415
-14.2563
-14.2709
-14.2854
-14.2998
-14.3139
-14.3278
-14.3414
-14.3549
-14.368
-14.381
-14.3936
-14.406
-14.4181
-14.4299
-14.4415
-14.4527
-14.0636
-14.0652
-14.0693
-14.0752
-14.0828
-14.0918
-14.1021
-14.1135
-14.1258
-14.1387
-14.1522
-14.1661
-14.1802
-14.1945
-14.2089
-14.2233
-14.2376
-14.2517
-14.2658
-14.2796
-14.2932
-14.3066
-14.3198
-14.3326
-14.3452
-14.3574
-14.3694
-14.381
-14.3924
-14.4033
-14.414
-14.4243
-14.4342
-14.0619
-14.0625
-14.0653
-14.0702
-14.077
-14.0856
-14.0957
-14.1069
-14.1192
-14.1321
-14.1456
-14.1595
-14.1736
-14.1878
-14.202
-14.2162
-14.2302
-14.2441
-14.2578
-14.2712
-14.2844
-14.2972
-14.3098
-14.322
-14.3339
-14.3454
-14.3565
-14.3672
-14.3776
-14.3876
-14.3971
-14.4062
-14.4149
-14.0612
-14.0637
-14.0682
-14.0741
-14.0814
-14.09
-14.0998
-14.1106
-14.1223
-14.1347
-14.1475
-14.1606
-14.174
-14.1874
-14.2009
-14.2143
-14.2276
-14.2407
-14.2536
-14.2663
-14.2786
-14.2906
-14.3023
-14.3136
-14.3245
-14.335
-14.3452
-14.3549
-14.3641
-14.3729
-14.3813
-14.3891
-14.3965
-14.0533
-14.0512
-14.0514
-14.0551
-14.0617
-14.0706
-14.0812
-14.0931
-14.1059
-14.1194
-14.1332
-14.1472
-14.1614
-14.1755
-14.1894
-14.2032
-14.2168
-14.23
-14.2429
-14.2555
-14.2677
-14.2794
-14.2908
-14.3016
-14.312
-14.322
-14.3314
-14.3404
-14.3488
-14.3568
-14.3642
-14.371
-14.3773
-14.0609
-14.0674
-14.0731
-14.0781
-14.0838
-14.091
-14.0997
-14.1095
-14.1202
-14.1316
-14.1435
-14.1557
-14.1682
-14.1807
-14.1932
-14.2056
-14.2179
-14.2299
-14.2416
-14.253
-14.2641
-14.2747
-14.285
-14.2948
-14.3041
-14.313
-14.3213
-14.3291
-14.3364
-14.3432
-14.3493
-14.3549
-14.36
-14.0289
-14.0154
-14.0104
-14.0155
-14.0255
-14.038
-14.052
-14.0669
-14.0824
-14.098
-14.1136
-14.129
-14.1442
-14.159
-14.1735
-14.1875
-14.201
-14.2141
-14.2267
-14.2387
-14.2502
-14.2611
-14.2715
-14.2813
-14.2905
-14.2992
-14.3072
-14.3146
-14.3213
-14.3275
-14.3329
-14.3378
-14.342
-14.0827
-14.1031
-14.1074
-14.1028
-14.1002
-14.1023
-14.1073
-14.1143
-14.1226
-14.1321
-14.1423
-14.1531
-14.1642
-14.1755
-14.1868
-14.198
-14.2091
-14.2199
-14.2305
-14.2407
-14.2504
-14.2598
-14.2687
-14.277
-14.2849
-14.2922
-14.2989
-14.305
-14.3105
-14.3154
-14.3197
-14.3233
-14.3263
-13.9599
-13.9103
-13.8984
-13.9244
-13.9524
-13.9766
-14.0003
-14.0233
-14.0452
-14.066
-14.0856
-14.1043
-14.1219
-14.1387
-14.1545
-14.1696
-14.1839
-14.1974
-14.2101
-14.2221
-14.2334
-14.2439
-14.2537
-14.2628
-14.2712
-14.2788
-14.2857
-14.2919
-14.2973
-14.302
-14.3059
-14.3091
-14.3116
-14.2081
-14.243
-14.212
-14.1694
-14.1406
-14.1295
-14.1265
-14.1271
-14.1307
-14.1366
-14.1441
-14.1525
-14.1617
-14.1713
-14.181
-14.1909
-14.2006
-14.2102
-14.2196
-14.2286
-14.2372
-14.2454
-14.253
-14.2602
-14.2668
-14.2728
-14.2782
-14.283
-14.2871
-14.2906
-14.2933
-14.2954
-14.2968
-13.7159
-13.5961
-13.6584
-13.7599
-13.8338
-13.8855
-13.9291
-13.9672
-14.0002
-14.0293
-14.0553
-14.0788
-14.1001
-14.1197
-14.1377
-14.1543
-14.1697
-14.184
-14.1972
-14.2095
-14.2208
-14.2312
-14.2407
-14.2493
-14.2571
-14.2641
-14.2702
-14.2754
-14.2799
-14.2835
-14.2862
-14.2882
-14.2893
-14.9303
-14.5914
-14.3276
-14.2105
-14.1603
-14.1349
-14.1197
-14.1133
-14.1133
-14.1171
-14.1233
-14.1313
-14.1403
-14.1499
-14.1599
-14.17
-14.18
-14.1898
-14.1993
-14.2084
-14.2171
-14.2253
-14.233
-14.24
-14.2464
-14.2522
-14.2573
-14.2617
-14.2654
-14.2684
-14.2706
-14.2721
-14.2728
-12.4267
-13.1333
-13.5378
-13.6901
-13.7947
-13.877
-13.9364
-13.9812
-14.0175
-14.0476
-14.0731
-14.0953
-14.115
-14.1328
-14.1489
-14.1638
-14.1775
-14.1901
-14.2018
-14.2125
-14.2224
-14.2315
-14.2397
-14.2471
-14.2537
-14.2594
-14.2643
-14.2684
-14.2717
-14.2741
-14.2758
-14.2765
-14.2765
-14.3103
-14.4648
-14.5668
-14.6068
-14.6157
-14.6338
-14.6904
-14.8062
-14.9845
-15.215
-15.4753
-15.774
-16.0917
-16.4143
-16.7307
-17.032
-17.3102
-17.5612
-17.7807
-17.9694
-18.1282
-18.2591
-18.3643
-18.4462
-18.5067
-18.5476
-18.5699
-18.5746
-18.5617
-18.5307
-18.4805
-18.4091
-18.3138
-18.191
-18.0362
-17.8439
-17.6077
-17.3203
-16.9736
-16.5589
-16.067
-15.4892
-14.8173
-14.0449
-13.1688
-12.1908
-11.1194
-9.97174
-8.77782
-7.57579
-6.40065
-5.28135
-4.24347
-3.30746
-2.48612
-1.78395
-1.19824
-0.720863
-0.340476
-0.0443084
0.180483
0.345998
0.463152
0.541496
0.589201
0.613133
0.618975
0.611362
0.594026
0.56993
0.541392
0.510198
0.477697
0.444886
0.41248
0.380976
0.350702
0.321856
0.294546
0.268806
0.24463
0.221974
0.200782
0.180989
0.162528
0.145343
0.129379
0.114602
0.100956
0.0884426
0.0769232
0.0665152
0.0567607
0.0482968
0.0395063
0.0331898
0.0235172
0.0213203
0.00618194
0.0151158
-14.9438
-15.0127
-14.8743
-14.7352
-14.6465
-14.6036
-14.6179
-14.6989
-14.8535
-15.0769
-15.357
-15.6689
-15.9983
-16.3295
-16.6485
-16.9463
-17.2142
-17.4548
-17.665
-17.8463
-18.0001
-18.1279
-18.2311
-18.3115
-18.3707
-18.4101
-18.4311
-18.4343
-18.4199
-18.3872
-18.335
-18.2612
-18.1631
-18.0368
-17.8779
-17.6808
-17.4391
-17.1456
-16.7923
-16.3708
-15.8723
-15.2884
-14.6115
-13.836
-12.9607
-11.99
-10.9353
-9.81763
-8.66609
-7.51038
-6.37849
-5.29778
-4.29301
-3.38352
-2.58156
-1.89186
-1.31252
-0.836557
-0.453846
-0.152734
0.0786907
0.251799
0.376965
0.463352
0.518869
0.550212
0.562961
0.561701
0.550149
0.531275
0.507421
0.480407
0.45162
0.422101
0.392605
0.36367
0.335658
0.308805
0.283245
0.259042
0.236212
0.214731
0.194564
0.175658
0.157961
0.14143
0.126019
0.111704
0.0984408
0.0862382
0.0749765
0.0647734
0.0552185
0.0468919
0.038346
0.0320509
0.0229174
0.0201944
0.00680533
0.0127001
-14.6335
-14.5884
-14.5667
-14.58
-14.6009
-14.6313
-14.6911
-14.7927
-14.9424
-15.1371
-15.3685
-15.6297
-15.9145
-16.2108
-16.5067
-16.7928
-17.0649
-17.3093
-17.5256
-17.7115
-17.8668
-17.9934
-18.0937
-18.1705
-18.2261
-18.2624
-18.2805
-18.281
-18.2638
-18.2282
-18.1728
-18.0954
-17.9932
-17.8623
-17.6981
-17.4951
-17.2469
-16.9464
-16.5857
-16.1565
-15.6503
-15.0592
-14.3771
-13.6011
-12.7327
-11.778
-10.7507
-9.67114
-8.56266
-7.44981
-6.35871
-5.31534
-4.34283
-3.45932
-2.67651
-1.99933
-1.4266
-0.952416
-0.567763
-0.262059
-0.0242922
0.15619
0.289219
0.383566
0.446865
0.485632
0.505336
0.510502
0.504821
0.491268
0.472204
0.449477
0.424512
0.398388
0.371901
0.345627
0.319964
0.295182
0.271446
0.248846
0.227421
0.207171
0.188077
0.170103
0.153211
0.137371
0.122545
0.108723
0.0958674
0.0839983
0.0730139
0.0630303
0.0536873
0.045502
0.0372084
0.030924
0.0223405
0.0190576
0.00745412
0.0102435
-14.691
-14.7656
-14.7825
-14.7626
-14.7425
-14.7427
-14.778
-14.8578
-14.9865
-15.1632
-15.3812
-15.6305
-15.8996
-16.1757
-16.4482
-16.7098
-16.9541
-17.1739
-17.3712
-17.545
-17.6947
-17.8204
-17.9225
-18.0018
-18.0593
-18.0963
-18.1137
-18.1123
-18.0923
-18.053
-17.9933
-17.9111
-17.8035
-17.6666
-17.4958
-17.2855
-17.0294
-16.7204
-16.3506
-15.9123
-15.3983
-14.8025
-14.1212
-13.353
-12.4997
-11.5691
-10.5745
-9.53324
-8.46514
-7.39294
-6.34117
-5.33397
-4.39282
-3.53469
-2.77078
-2.10617
-1.54031
-1.06826
-0.682059
-0.372132
-0.128336
0.0592793
0.200002
0.302204
0.373237
0.419425
0.446117
0.457768
0.458039
0.4499
0.435725
0.41739
0.396352
0.373725
0.350344
0.326824
0.303598
0.280968
0.259129
0.238201
0.218245
0.199282
0.181313
0.164319
0.148276
0.133164
0.118961
0.105663
0.0932453
0.0817349
0.0710495
0.0613016
0.0521832
0.0441441
0.036107
0.0298243
0.0217923
0.0179254
0.00811853
0.00776633
-14.6636
-14.6856
-14.6754
-14.67
-14.6846
-14.72
-14.7826
-14.8793
-15.0138
-15.1855
-15.389
-15.6168
-15.8612
-16.1133
-16.3653
-16.6098
-16.8414
-17.0542
-17.2451
-17.4122
-17.554
-17.6712
-17.7648
-17.8363
-17.8872
-17.9186
-17.9314
-17.9258
-17.9016
-17.8578
-17.7931
-17.7051
-17.5909
-17.4467
-17.2677
-17.0487
-16.7834
-16.4653
-16.0877
-15.6438
-15.1279
-14.5346
-13.8605
-13.1051
-12.2718
-11.3687
-10.4071
-9.40235
-8.37277
-7.33969
-6.32588
-5.35363
-4.44288
-3.60952
-2.86425
-2.21222
-1.65346
-1.18389
-0.796532
-0.482757
-0.233258
-0.0387704
0.109455
0.219388
0.298086
0.351676
0.385373
0.403555
0.409846
0.407203
0.398009
0.384163
0.367149
0.348117
0.327938
0.307262
0.286558
0.26616
0.246293
0.227103
0.208678
0.191059
0.174267
0.1583
0.143148
0.128805
0.11526
0.102517
0.0905661
0.0794389
0.0690739
0.0595783
0.0506975
0.0428105
0.035035
0.028748
0.0212684
0.0168007
0.00879198
0.00528346
-14.6608
-14.6962
-14.7179
-14.7358
-14.7584
-14.7935
-14.8507
-14.9378
-15.0586
-15.2131
-15.3972
-15.605
-15.8292
-16.0616
-16.2943
-16.5204
-16.7345
-16.9313
-17.1082
-17.2636
-17.3969
-17.5082
-17.5979
-17.6663
-17.7142
-17.7421
-17.7504
-17.7394
-17.7088
-17.658
-17.5854
-17.4892
-17.3662
-17.213
-17.0252
-16.7976
-16.5246
-16.2001
-15.8181
-15.3722
-14.857
-14.2683
-13.6039
-12.8644
-12.0534
-11.1776
-10.2477
-9.27786
-8.28534
-7.28994
-6.31268
-5.37418
-4.4929
-3.68369
-2.95676
-2.31731
-1.76587
-1.29912
-0.911002
-0.593763
-0.338898
-0.137815
0.0177057
0.135224
0.221503
0.282456
0.32316
0.347908
0.360274
0.3632
0.359072
0.349804
0.336908
0.321566
0.304681
0.286938
0.268839
0.250752
0.23293
0.215547
0.198714
0.182498
0.166935
0.152042
0.137825
0.12429
0.111438
0.0992833
0.087827
0.0771083
0.0670855
0.0578591
0.0492293
0.0415015
0.0339927
0.0276972
0.0207685
0.015689
0.00946929
0.00280975
-14.6585
-14.6903
-14.7117
-14.7308
-14.7584
-14.8014
-14.8656
-14.9559
-15.0747
-15.2216
-15.3937
-15.5858
-15.7918
-16.0052
-16.2192
-16.4279
-16.6262
-16.8096
-16.9753
-17.1214
-17.2466
-17.3505
-17.4331
-17.495
-17.5366
-17.5586
-17.5613
-17.5446
-17.5082
-17.4511
-17.3718
-17.2683
-17.1377
-16.9765
-16.7807
-16.5455
-16.2656
-15.9355
-15.5496
-15.1026
-14.5899
-14.0082
-13.3559
-12.6334
-11.8442
-10.9949
-10.0956
-9.1594
-8.2026
-7.24348
-6.30144
-5.39549
-4.54275
-3.75708
-3.04821
-2.42133
-1.8774
-1.4138
-1.0253
-0.704978
-0.445096
-0.237707
-0.0751184
0.0498245
0.143579
0.211842
0.259542
0.290875
0.309362
0.31792
0.318933
0.314328
0.305639
0.294076
0.280573
0.265849
0.250439
0.23474
0.219036
0.203528
0.188351
0.173593
0.159311
0.145541
0.132302
0.119615
0.107492
0.0959584
0.0850266
0.0747419
0.0650836
0.056144
0.047779
0.0402182
0.0329809
0.0266748
0.020293
0.0145964
0.010145
0.000360575
-14.6577
-14.6901
-14.7181
-14.7468
-14.7829
-14.8313
-14.897
-14.9845
-15.0962
-15.232
-15.3898
-15.5655
-15.7538
-15.9491
-16.1455
-16.3375
-16.5205
-16.6903
-16.8439
-16.9793
-17.0954
-17.1914
-17.2673
-17.3233
-17.3595
-17.3761
-17.3733
-17.3508
-17.3081
-17.2443
-17.1578
-17.0467
-16.9083
-16.7393
-16.5359
-16.2938
-16.008
-15.6737
-15.2857
-14.8395
-14.331
-13.7572
-13.1171
-12.4114
-11.6435
-10.82
-9.95021
-9.04663
-8.12428
-7.2001
-6.29198
-5.41745
-4.59234
-3.82959
-3.13846
-2.52412
-1.98788
-1.52775
-1.13924
-0.816231
-0.551688
-0.338297
-0.168881
-0.0366932
0.064417
0.13992
0.194587
0.232512
0.257154
0.271398
0.27762
0.277755
0.273356
0.265656
0.255621
0.244
0.231358
0.218124
0.204609
0.191042
0.177583
0.164341
0.151394
0.138794
0.126578
0.114778
0.103421
0.092541
0.0821632
0.0723387
0.0630675
0.0544327
0.0463466
0.0389615
0.0320002
0.0256834
0.0198418
0.0135289
0.0108136
-0.0020487
-14.6576
-14.6902
-14.7214
-14.7543
-14.7941
-14.8452
-14.9119
-14.9976
-15.1041
-15.2314
-15.3776
-15.5392
-15.7119
-15.8908
-16.0708
-16.247
-16.4152
-16.5717
-16.7135
-16.8387
-16.9458
-17.0341
-17.103
-17.1526
-17.1827
-17.1934
-17.1846
-17.1561
-17.1072
-17.0369
-16.9437
-16.8256
-16.6801
-16.5041
-16.294
-16.0458
-15.7552
-15.4175
-15.0284
-14.5836
-14.0797
-13.5143
-12.8865
-12.1975
-11.4507
-10.6523
-9.8113
-8.93925
-8.05013
-7.1596
-6.28414
-5.43991
-4.64154
-3.90112
-3.22742
-2.62557
-2.09718
-1.64081
-1.25267
-0.927352
-0.658509
-0.43943
-0.263443
-0.124204
-0.0158764
0.0667803
0.128373
0.172883
0.203701
0.223675
0.235166
0.24011
0.240077
0.236321
0.229835
0.221396
0.2116
0.200905
0.189651
0.178091
0.16641
0.154741
0.14318
0.131799
0.120649
0.109777
0.0992221
0.0890294
0.0792356
0.0698976
0.0610364
0.0527249
0.0449321
0.0377321
0.0310512
0.0247251
0.0194147
0.0124918
0.0114694
-0.0044029
-14.6574
-14.6905
-14.7244
-14.761
-14.8043
-14.8578
-14.9248
-15.0079
-15.1087
-15.2272
-15.3619
-15.51
-15.6678
-15.8312
-15.9956
-16.1568
-16.3108
-16.4544
-16.5846
-16.6994
-16.7974
-16.8775
-16.9392
-16.9821
-17.006
-17.0109
-16.9963
-16.9619
-16.9069
-16.8302
-16.7305
-16.6057
-16.4535
-16.271
-16.0549
-15.8014
-15.5066
-15.1665
-14.7769
-14.3342
-13.8356
-13.2789
-12.6638
-11.9914
-11.2654
-10.4916
-9.67854
-8.83699
-7.97993
-7.12181
-6.2778
-5.46278
-4.69028
-3.97158
-3.315
-2.72557
-2.20517
-1.75285
-1.36543
-1.03818
-0.765394
-0.540948
-0.358657
-0.212579
-0.0971865
-0.00747778
0.0609829
0.112059
0.149063
0.174798
0.191608
0.201425
0.205827
0.20609
0.20323
0.19805
0.191175
0.183091
0.174165
0.164677
0.154834
0.144793
0.134671
0.124555
0.114515
0.104611
0.094895
0.0854225
0.0762426
0.0674177
0.0589892
0.0510202
0.0435351
0.0365305
0.030134
0.0238021
0.0190114
0.0114902
0.0121073
-0.00668736
-14.6568
-14.6904
-14.726
-14.765
-14.8102
-14.8647
-14.9309
-15.0111
-15.1063
-15.2167
-15.3409
-15.4766
-15.6207
-15.7697
-15.9195
-16.0665
-16.207
-16.338
-16.4568
-16.5614
-16.6502
-16.7221
-16.7764
-16.8125
-16.8301
-16.8288
-16.8083
-16.7679
-16.7069
-16.6241
-16.5181
-16.387
-16.2286
-16.0402
-15.8186
-15.5606
-15.2624
-14.9205
-14.5312
-14.0913
-13.5984
-13.0509
-12.4486
-11.7929
-11.0873
-10.3376
-9.55168
-8.73964
-7.91349
-7.08656
-6.27282
-5.48595
-4.73848
-4.0409
-3.4011
-2.82402
-2.31173
-1.86371
-1.47735
-1.14854
-0.872178
-0.642693
-0.454378
-0.301681
-0.179393
-0.082749
-0.00749202
0.0501155
0.0933031
0.124823
0.146992
0.161735
0.170637
0.174988
0.175825
0.173976
0.170095
0.164691
0.158159
0.150805
0.14286
0.134502
0.125868
0.117064
0.108177
0.09928
0.0904392
0.0817198
0.0731835
0.0648983
0.0569254
0.0493182
0.0421553
0.0353569
0.0292486
0.0229158
0.0186315
0.0105285
0.0127219
-0.00888819
-14.6554
-14.6895
-14.7261
-14.7666
-14.813
-14.8677
-14.9326
-15.0094
-15.0991
-15.2016
-15.3159
-15.44
-15.5714
-15.7067
-15.8428
-15.9763
-16.1038
-16.2227
-16.3303
-16.4247
-16.5043
-16.5679
-16.6147
-16.6438
-16.655
-16.6475
-16.6209
-16.5746
-16.5076
-16.4188
-16.3069
-16.1698
-16.0057
-15.8118
-15.5855
-15.3235
-15.0226
-14.6796
-14.2912
-13.8548
-13.3682
-12.8301
-12.2408
-11.6017
-10.9163
-10.1901
-9.43051
-8.64699
-7.85063
-7.05372
-6.26909
-5.50935
-4.78607
-4.10902
-3.48566
-2.92083
-2.41674
-1.97326
-1.58829
-1.25828
-0.978701
-0.744507
-0.550452
-0.391373
-0.262369
-0.158921
-0.0769542
-0.0128619
0.0364945
0.0738099
0.101368
0.121084
0.134542
0.143044
0.147646
0.149197
0.148376
0.145718
0.141645
0.136485
0.130494
0.123872
0.116775
0.10933
0.101637
0.0937858
0.0858553
0.0779215
0.0700583
0.0623391
0.0548445
0.0476186
0.0407925
0.0342116
0.028395
0.0220678
0.0182744
0.00961072
0.0133087
-0.0109926
-14.6532
-14.6874
-14.7246
-14.7658
-14.8125
-14.8666
-14.9296
-15.0028
-15.087
-15.182
-15.287
-15.4003
-15.5196
-15.6423
-15.7655
-15.8861
-16.0012
-16.1083
-16.2051
-16.2894
-16.3599
-16.4151
-16.4542
-16.4764
-16.4809
-16.4672
-16.4345
-16.3822
-16.3094
-16.2148
-16.0971
-15.9545
-15.7849
-15.5862
-15.3556
-15.0903
-14.7874
-14.4439
-14.0571
-13.6246
-13.1447
-12.6165
-12.0402
-11.4176
-10.7521
-10.0488
-9.31482
-8.55886
-7.7912
-7.02316
-6.26653
-5.53292
-4.833
-4.17589
-3.56863
-3.01592
-2.52011
-2.08138
-1.6981
-1.36724
-1.0848
-0.846229
-0.646727
-0.48151
-0.345984
-0.235877
-0.147299
-0.0767823
-0.0212843
0.0218263
0.0547962
0.0795212
0.0975842
0.110294
0.118721
0.123737
0.12604
0.126192
0.124638
0.12173
0.117748
0.112912
0.107401
0.101357
0.0948993
0.0881313
0.0811457
0.0740289
0.0668676
0.0597402
0.0527465
0.0459211
0.0394462
0.0330947
0.0275731
0.0212591
0.0179396
0.00874014
0.0138634
-0.0129893
-14.6498
-14.684
-14.7213
-14.7625
-14.8089
-14.8618
-14.9225
-14.992
-15.0707
-15.1585
-15.2546
-15.3577
-15.4658
-15.5766
-15.6875
-15.796
-15.8993
-15.995
-16.0811
-16.1556
-16.217
-16.2639
-16.2953
-16.3103
-16.3081
-16.288
-16.2493
-16.1911
-16.1125
-16.0123
-15.889
-15.7412
-15.5667
-15.3635
-15.1292
-14.8612
-14.5568
-14.2135
-13.8289
-13.4009
-12.9281
-12.4099
-11.8468
-11.2406
-10.5946
-9.91367
-9.20446
-8.4751
-7.73506
-6.99477
-6.26506
-5.55659
-4.87924
-4.24148
-3.64995
-3.10923
-2.62175
-2.18796
-1.80666
-1.47528
-1.19032
-0.947701
-0.743048
-0.571944
-0.430101
-0.313491
-0.218415
-0.141547
-0.0799471
-0.0310527
0.00733929
0.0371021
0.0598109
0.0767783
0.0890874
0.0976255
0.103113
0.106134
0.107157
0.106556
0.104635
0.101635
0.0977542
0.0931541
0.0879705
0.0823215
0.0763138
0.0700446
0.0636129
0.0571025
0.0506316
0.0442258
0.0381163
0.0320061
0.0267826
0.0204905
0.0176268
0.00791946
0.0143828
-0.0148688
-14.6452
-14.6791
-14.7161
-14.7569
-14.8024
-14.8537
-14.9117
-14.9771
-15.0503
-15.1312
-15.219
-15.3125
-15.4101
-15.5097
-15.6091
-15.7059
-15.7979
-15.8827
-15.9585
-16.0233
-16.0757
-16.1143
-16.1379
-16.1458
-16.1369
-16.1104
-16.0656
-16.0016
-15.9173
-15.8116
-15.6831
-15.5303
-15.3513
-15.1441
-14.9066
-14.6364
-14.3312
-13.9886
-13.6067
-13.1836
-12.7183
-12.2104
-11.6605
-11.0705
-10.4436
-9.78444
-9.09924
-8.39555
-7.6821
-6.96846
-6.26461
-5.58034
-4.92476
-4.30576
-3.7296
-3.2007
-2.72157
-2.2929
-1.91383
-1.58225
-1.2951
-1.04876
-0.839257
-0.662524
-0.514578
-0.391634
-0.290184
-0.207051
-0.1394
-0.084745
-0.0409304
-0.00611107
0.0212764
0.0425443
0.0587844
0.0708986
0.0796264
0.0855715
0.0892246
0.0909838
0.0911729
0.0900553
0.0878483
0.0847321
0.0808595
0.0763638
0.0713654
0.0659725
0.060297
0.0544277
0.0485008
0.0425329
0.0368029
0.0309461
0.0260235
0.0197627
0.0173358
0.00715077
0.0148646
-0.0166238
-14.6393
-14.6726
-14.709
-14.7489
-14.793
-14.8423
-14.8973
-14.9586
-15.0265
-15.1006
-15.1805
-15.265
-15.3526
-15.4416
-15.5301
-15.616
-15.6971
-15.7715
-15.8372
-15.8926
-15.9361
-15.9664
-15.9824
-15.983
-15.9674
-15.9345
-15.8837
-15.8139
-15.724
-15.613
-15.4796
-15.3221
-15.1389
-14.9282
-14.688
-14.4162
-14.1106
-13.7693
-13.3905
-12.9728
-12.5152
-12.0178
-11.4811
-10.9071
-10.2989
-9.66098
-8.99903
-8.32008
-7.63219
-6.94416
-6.26514
-5.60414
-4.96955
-4.36872
-3.80755
-3.29029
-2.81951
-2.39609
-2.01949
-1.68801
-1.399
-1.14926
-0.935196
-0.753097
-0.599269
-0.470168
-0.362482
-0.273181
-0.199543
-0.139161
-0.0899338
-0.0500487
-0.0179585
0.00764504
0.027859
0.043597
0.0556148
0.0645352
0.0708695
0.0750372
0.0773831
0.0781915
0.0776991
0.0761046
0.0735779
0.0702674
0.0663078
0.0618186
0.0569241
0.0517187
0.0463558
0.0408433
0.0355064
0.029915
0.0252958
0.0190765
0.0170665
0.00643557
0.0153077
-0.0182498
-14.6319
-14.6645
-14.6999
-14.7386
-14.781
-14.8279
-14.8797
-14.9369
-14.9994
-15.0671
-15.1393
-15.2152
-15.2935
-15.3726
-15.4508
-15.5262
-15.597
-15.6613
-15.7173
-15.7634
-15.7982
-15.8204
-15.8287
-15.8222
-15.7998
-15.7606
-15.7038
-15.6283
-15.533
-15.4169
-15.2787
-15.1169
-14.9299
-14.7161
-14.4737
-14.2007
-13.8953
-13.5557
-13.1805
-12.7685
-12.319
-11.832
-11.3085
-10.7504
-10.1605
-9.54315
-8.90368
-8.24857
-7.58526
-6.92181
-6.26662
-5.62796
-5.01361
-4.43036
-3.88378
-3.37797
-2.9155
-2.49744
-2.12354
-1.79243
-1.50187
-1.24903
-1.03071
-0.843506
-0.684023
-0.548953
-0.435176
-0.339816
-0.260266
-0.194203
-0.139584
-0.0946338
-0.0578258
-0.0278594
-0.00363589
0.0157673
0.0311199
0.0430617
0.0521234
0.0587446
0.0632905
0.0660656
0.0673258
0.0672883
0.0661399
0.0640444
0.061151
0.0575906
0.0535001
0.0489796
0.0441995
0.039159
0.0342278
0.0289135
0.0245999
0.0184323
0.0168194
0.0057749
0.0157127
-0.0197451
-14.6232
-14.6547
-14.6889
-14.726
-14.7665
-14.8108
-14.8592
-14.9121
-14.9693
-15.0307
-15.0958
-15.1636
-15.233
-15.3027
-15.3711
-15.4367
-15.4975
-15.5521
-15.5988
-15.6359
-15.6622
-15.6763
-15.6771
-15.6635
-15.6344
-15.589
-15.5262
-15.4451
-15.3446
-15.2236
-15.0808
-14.915
-14.7246
-14.5081
-14.2638
-13.9901
-13.6853
-13.3479
-12.9767
-12.5707
-12.1294
-11.6531
-11.1427
-10.6001
-10.0282
-9.43082
-8.81308
-8.18093
-7.54122
-6.90134
-6.26901
-5.65182
-5.05693
-4.49068
-3.95829
-3.46371
-3.00951
-2.59689
-2.22587
-1.89538
-1.60355
-1.34793
-1.12563
-0.933592
-0.768685
-0.627839
-0.508128
-0.406829
-0.321453
-0.249766
-0.189786
-0.139782
-0.0982497
-0.0639018
-0.0356406
-0.0125376
0.00618848
0.0211927
0.0330232
0.0421388
0.0489241
0.0537033
0.0567511
0.0583029
0.0585626
0.0577095
0.0559072
0.0532983
0.0500327
0.0462163
0.0420359
0.0374829
0.0329691
0.0279428
0.0239368
0.0178313
0.0165956
0.00516935
0.0160816
-0.0211113
-14.6129
-14.6433
-14.676
-14.7114
-14.7496
-14.7911
-14.836
-14.8846
-14.9367
-14.992
-15.0501
-15.1102
-15.1712
-15.2321
-15.2913
-15.3474
-15.3988
-15.4441
-15.4817
-15.5102
-15.5282
-15.5344
-15.5277
-15.5071
-15.4714
-15.4197
-15.3511
-15.2645
-15.1589
-15.0332
-14.8862
-14.7167
-14.5232
-14.3043
-14.0586
-13.7846
-13.4809
-13.1461
-12.7792
-12.3795
-11.9466
-11.481
-10.9836
-10.4563
-9.90183
-9.32388
-8.72711
-8.11706
-7.5
-6.88274
-6.27231
-5.67572
-5.09956
-4.54971
-4.0311
-3.5475
-3.10148
-2.69437
-2.32637
-1.99674
-1.70392
-1.44579
-1.2198
-1.02319
-0.853096
-0.706675
-0.581194
-0.474085
-0.382979
-0.305735
-0.240437
-0.185399
-0.139147
-0.100408
-0.0680885
-0.0412581
-0.0191262
-0.00102451
0.0136112
0.0252573
0.0343173
0.0411341
0.0460011
0.0491715
0.0508661
0.0512799
0.050591
0.0489541
0.0465319
0.0434365
0.0398709
0.0358192
0.0317329
0.0270051
0.0233081
0.0172746