/*--------------------------------*- C++ -*----------------------------------*\
| =========                 |                                                 |
| \\      /  F ield         | OpenFOAM: The Open Source CFD Toolbox           |
|  \\    /   O peration     | Version:  2.1.1                                 |
|   \\  /    A nd           | Web:      www.OpenFOAM.org                      |
|    \\/     M anipulation  |                                                 |
\*---------------------------------------------------------------------------*/
FoamFile
{
    version     2.0;
    format      ascii;
    class       surfaceScalarField;
    location    "0.08";
    object      phi;
}
// * * * * * * * * * * * * * * * * * * * * * * * * * * * * * * * * * * * * * //

dimensions      [0 3 -1 0 0 0 0];

internalField   nonuniform List<scalar> 
13452
(
6.89922e-05
-5.04963e-07
6.88132e-05
1.78989e-07
6.82014e-05
6.11853e-07
6.72533e-05
9.48091e-07
6.61758e-05
1.07748e-06
6.50831e-05
1.09271e-06
6.40169e-05
1.06621e-06
6.29945e-05
1.02242e-06
6.20242e-05
9.70301e-07
6.11094e-05
9.14761e-07
6.02512e-05
8.58216e-07
5.94491e-05
8.02123e-07
5.87016e-05
7.47435e-07
5.80068e-05
6.94822e-07
5.73621e-05
6.44739e-07
5.67646e-05
5.97479e-07
5.62114e-05
5.53208e-07
5.56994e-05
5.11996e-07
5.52256e-05
4.73845e-07
5.47869e-05
4.38707e-07
5.43803e-05
4.06512e-07
5.40032e-05
3.77179e-07
5.36525e-05
3.50641e-07
5.33257e-05
3.26865e-07
5.30198e-05
3.05891e-07
5.27319e-05
2.87887e-07
5.24586e-05
2.73239e-07
5.21957e-05
2.62925e-07
5.19372e-05
2.58473e-07
5.16717e-05
2.65574e-07
5.13807e-05
2.9096e-07
5.1013e-05
3.67701e-07
5.71495e-07
5.04415e-05
7.01649e-05
-2.25954e-07
7.00411e-05
3.0286e-07
7.01816e-05
4.71294e-07
7.05088e-05
6.20897e-07
7.08592e-05
7.27144e-07
7.11578e-05
7.94041e-07
7.13822e-05
8.41854e-07
7.15339e-05
8.70728e-07
7.16208e-05
8.83364e-07
7.16518e-05
8.83746e-07
7.16352e-05
8.74829e-07
7.15784e-05
8.58946e-07
7.14879e-05
8.37913e-07
7.13695e-05
8.13204e-07
7.12283e-05
7.86007e-07
7.10685e-05
7.57273e-07
7.08939e-05
7.27767e-07
7.07078e-05
6.98096e-07
7.05129e-05
6.68739e-07
7.03115e-05
6.40074e-07
7.01056e-05
6.12402e-07
6.98969e-05
5.85974e-07
6.96865e-05
5.6101e-07
6.94756e-05
5.37732e-07
6.92651e-05
5.16404e-07
6.90556e-05
4.97362e-07
6.88477e-05
4.81182e-07
6.8642e-05
4.68588e-07
6.84391e-05
4.6141e-07
6.8244e-05
4.60704e-07
6.80612e-05
4.73731e-07
6.79401e-05
4.8878e-07
5.36703e-07
6.79749e-05
7.22816e-05
-5.09919e-08
7.23966e-05
1.87822e-07
7.25013e-05
3.66639e-07
7.25875e-05
5.34643e-07
7.26705e-05
6.44174e-07
7.27521e-05
7.12387e-07
7.28378e-05
7.56152e-07
7.2924e-05
7.84534e-07
7.30067e-05
8.00714e-07
7.30832e-05
8.07248e-07
7.31519e-05
8.06098e-07
7.3212e-05
7.98846e-07
7.32631e-05
7.86783e-07
7.33053e-05
7.71037e-07
7.33388e-05
7.52565e-07
7.33639e-05
7.32173e-07
7.33811e-05
7.10533e-07
7.3391e-05
6.88205e-07
7.33941e-05
6.65648e-07
7.33909e-05
6.43245e-07
7.3382e-05
6.21321e-07
7.33678e-05
6.00158e-07
7.33488e-05
5.80023e-07
7.33253e-05
5.61185e-07
7.32978e-05
5.4396e-07
7.32664e-05
5.28723e-07
7.32315e-05
5.16055e-07
7.31935e-05
5.06589e-07
7.31532e-05
5.01796e-07
7.3112e-05
5.019e-07
7.30736e-05
5.12065e-07
7.30409e-05
5.21467e-07
5.59753e-07
7.30179e-05
7.45184e-05
-4.28051e-08
7.44879e-05
2.1832e-07
7.44763e-05
3.78315e-07
7.45155e-05
4.95388e-07
7.45754e-05
5.84316e-07
7.46412e-05
6.46569e-07
7.47064e-05
6.90916e-07
7.47695e-05
7.21426e-07
7.48302e-05
7.40061e-07
7.48882e-05
7.49197e-07
7.49435e-05
7.50869e-07
7.49957e-05
7.46647e-07
7.50447e-05
7.37788e-07
7.50903e-05
7.25367e-07
7.51326e-05
7.10278e-07
7.51715e-05
6.93269e-07
7.52071e-05
6.74966e-07
7.52394e-05
6.55891e-07
7.52686e-05
6.36481e-07
7.52947e-05
6.17103e-07
7.5318e-05
5.98077e-07
7.53384e-05
5.79688e-07
7.53562e-05
5.62205e-07
7.53715e-05
5.45905e-07
7.53844e-05
5.31102e-07
7.5395e-05
5.18151e-07
7.54035e-05
5.07555e-07
7.54102e-05
4.99804e-07
7.54162e-05
4.9586e-07
7.54224e-05
4.95667e-07
7.54332e-05
5.01309e-07
7.54484e-05
5.06273e-07
5.17217e-07
7.54909e-05
7.66035e-05
9.53262e-09
7.6628e-05
1.93796e-07
7.66642e-05
3.42159e-07
7.6702e-05
4.57598e-07
7.67399e-05
5.4639e-07
7.67789e-05
6.07585e-07
7.68202e-05
6.49647e-07
7.68633e-05
6.78296e-07
7.69072e-05
6.96141e-07
7.69511e-05
7.05341e-07
7.69943e-05
7.07674e-07
7.70364e-05
7.04524e-07
7.70772e-05
6.97028e-07
7.71164e-05
6.86162e-07
7.71539e-05
6.72752e-07
7.71897e-05
6.57495e-07
7.72236e-05
6.40976e-07
7.72558e-05
6.2369e-07
7.72863e-05
6.06053e-07
7.7315e-05
5.88421e-07
7.73419e-05
5.71104e-07
7.73672e-05
5.54382e-07
7.73909e-05
5.3852e-07
7.7413e-05
5.23787e-07
7.74337e-05
5.10474e-07
7.74529e-05
4.98898e-07
7.7471e-05
4.89459e-07
7.74883e-05
4.825e-07
7.75056e-05
4.78588e-07
7.75238e-05
4.77477e-07
7.75452e-05
4.79886e-07
7.75699e-05
4.81623e-07
4.85041e-07
7.7602e-05
7.88311e-05
2.43365e-08
7.88386e-05
1.86303e-07
7.88565e-05
3.24258e-07
7.8885e-05
4.29082e-07
7.89209e-05
5.10513e-07
7.89595e-05
5.68976e-07
7.8999e-05
6.10198e-07
7.90385e-05
6.38705e-07
7.90779e-05
6.56802e-07
7.91168e-05
6.66477e-07
7.9155e-05
6.69464e-07
7.91924e-05
6.67133e-07
7.92288e-05
6.60598e-07
7.92641e-05
6.50803e-07
7.92983e-05
6.38543e-07
7.93314e-05
6.24486e-07
7.93631e-05
6.09194e-07
7.93937e-05
5.93143e-07
7.9423e-05
5.76736e-07
7.94511e-05
5.60318e-07
7.9478e-05
5.44192e-07
7.95038e-05
5.2863e-07
7.95284e-05
5.13889e-07
7.9552e-05
5.0022e-07
7.95746e-05
4.87888e-07
7.95963e-05
4.77159e-07
7.96174e-05
4.68333e-07
7.96383e-05
4.61633e-07
7.96595e-05
4.57335e-07
7.96819e-05
4.55147e-07
7.97067e-05
4.55072e-07
7.97337e-05
4.54592e-07
4.53939e-07
7.97648e-05
8.10847e-05
3.819e-08
8.10946e-05
1.76448e-07
8.11178e-05
3.01016e-07
8.11481e-05
3.98733e-07
8.11824e-05
4.76277e-07
8.12178e-05
5.33519e-07
8.12538e-05
5.74247e-07
8.129e-05
6.02478e-07
8.13262e-05
6.20611e-07
8.13621e-05
6.30591e-07
8.13975e-05
6.34087e-07
8.14322e-05
6.32423e-07
8.14661e-05
6.26677e-07
8.14991e-05
6.17756e-07
8.15313e-05
6.06426e-07
8.15624e-05
5.93332e-07
8.15926e-05
5.79018e-07
8.16218e-05
5.63944e-07
8.165e-05
5.48502e-07
8.16773e-05
5.33029e-07
8.17037e-05
5.17819e-07
8.17292e-05
5.03135e-07
8.17538e-05
4.89224e-07
8.17778e-05
4.76316e-07
8.1801e-05
4.64644e-07
8.18237e-05
4.54424e-07
8.18462e-05
4.45872e-07
8.18687e-05
4.3912e-07
8.18918e-05
4.34268e-07
8.19159e-05
4.31031e-07
8.19418e-05
4.2916e-07
8.19692e-05
4.27158e-07
4.24755e-07
8.19984e-05
8.341e-05
4.36941e-08
8.34198e-05
1.66642e-07
8.34405e-05
2.80403e-07
8.34677e-05
3.71508e-07
8.34996e-05
4.44318e-07
8.35339e-05
4.99259e-07
8.35691e-05
5.39036e-07
8.36046e-05
5.66973e-07
8.364e-05
5.85263e-07
8.36749e-05
5.95677e-07
8.37092e-05
5.9977e-07
8.37428e-05
5.98814e-07
8.37756e-05
5.93852e-07
8.38076e-05
5.85767e-07
8.38387e-05
5.75303e-07
8.3869e-05
5.63087e-07
8.38984e-05
5.49648e-07
8.39269e-05
5.35435e-07
8.39545e-05
5.2083e-07
8.39814e-05
5.06162e-07
8.40075e-05
4.91717e-07
8.40329e-05
4.77749e-07
8.40576e-05
4.64487e-07
8.40818e-05
4.52145e-07
8.41055e-05
4.40921e-07
8.4129e-05
4.3099e-07
8.41523e-05
4.22501e-07
8.41759e-05
4.15525e-07
8.42001e-05
4.10066e-07
8.42253e-05
4.05876e-07
8.42518e-05
4.02665e-07
8.42794e-05
3.99558e-07
3.96256e-07
8.43079e-05
8.57963e-05
4.61325e-08
8.5806e-05
1.56918e-07
8.5826e-05
2.6039e-07
8.58525e-05
3.45057e-07
8.58834e-05
4.13401e-07
8.59166e-05
4.66006e-07
8.59509e-05
5.04738e-07
8.59857e-05
5.32266e-07
8.60203e-05
5.50586e-07
8.60547e-05
5.61334e-07
8.60885e-05
5.65956e-07
8.61216e-05
5.65661e-07
8.6154e-05
5.61447e-07
8.61856e-05
5.54163e-07
8.62164e-05
5.44526e-07
8.62464e-05
5.33141e-07
8.62755e-05
5.20524e-07
8.63038e-05
5.0711e-07
8.63314e-05
4.93271e-07
8.63582e-05
4.79325e-07
8.63844e-05
4.65551e-07
8.64099e-05
4.5219e-07
8.6435e-05
4.39458e-07
8.64596e-05
4.27548e-07
8.64839e-05
4.16628e-07
8.6508e-05
4.06838e-07
8.65322e-05
3.98281e-07
8.65568e-05
3.90988e-07
8.65819e-05
3.84922e-07
8.66079e-05
3.79886e-07
8.66349e-05
3.7563e-07
8.66628e-05
3.71653e-07
3.67753e-07
8.66913e-05
8.825e-05
4.61007e-08
8.82599e-05
1.4701e-07
8.8279e-05
2.41334e-07
8.83041e-05
3.19954e-07
8.83336e-05
3.83938e-07
8.83657e-05
4.33916e-07
8.83991e-05
4.71264e-07
8.84333e-05
4.98131e-07
8.84675e-05
5.16299e-07
8.85016e-05
5.27252e-07
8.85353e-05
5.32313e-07
8.85683e-05
5.3261e-07
8.86007e-05
5.2909e-07
8.86323e-05
5.22559e-07
8.86631e-05
5.13705e-07
8.86931e-05
5.0311e-07
8.87224e-05
4.9127e-07
8.87509e-05
4.78606e-07
8.87787e-05
4.65479e-07
8.88058e-05
4.52196e-07
8.88323e-05
4.39024e-07
8.88583e-05
4.26192e-07
8.88839e-05
4.13901e-07
8.89091e-05
4.02324e-07
8.89341e-05
3.91605e-07
8.89591e-05
3.81856e-07
8.89843e-05
3.73148e-07
8.90098e-05
3.65493e-07
8.90358e-05
3.5884e-07
8.90627e-05
3.53042e-07
8.90904e-05
3.47911e-07
8.91189e-05
3.43167e-07
3.38699e-07
8.91479e-05
9.07727e-05
4.469e-08
9.07826e-05
1.37129e-07
9.08008e-05
2.23174e-07
9.08248e-05
2.95949e-07
9.08531e-05
3.55648e-07
9.08841e-05
4.0285e-07
9.09168e-05
4.38603e-07
9.09503e-05
4.64619e-07
9.09841e-05
4.82457e-07
9.10179e-05
4.93456e-07
9.10514e-05
4.98821e-07
9.10844e-05
4.99598e-07
9.11169e-05
4.96677e-07
9.11486e-05
4.90821e-07
9.11796e-05
4.82681e-07
9.12099e-05
4.72814e-07
9.12395e-05
4.61694e-07
9.12684e-05
4.49727e-07
9.12966e-05
4.37256e-07
9.13242e-05
4.24577e-07
9.13513e-05
4.11944e-07
9.13779e-05
3.99572e-07
9.14042e-05
3.87648e-07
9.14302e-05
3.76325e-07
9.1456e-05
3.65728e-07
9.14819e-05
3.55948e-07
9.15081e-05
3.47035e-07
9.15346e-05
3.38991e-07
9.15616e-05
3.31771e-07
9.15894e-05
3.25267e-07
9.1618e-05
3.1935e-07
9.16473e-05
3.13864e-07
3.08758e-07
9.16772e-05
9.33669e-05
4.24454e-08
9.33767e-05
1.27297e-07
9.33941e-05
2.05828e-07
9.3417e-05
2.73e-07
9.34442e-05
3.28514e-07
9.34742e-05
3.7284e-07
9.3506e-05
4.06801e-07
9.35388e-05
4.31767e-07
9.35722e-05
4.4909e-07
9.36057e-05
4.59968e-07
9.3639e-05
4.65493e-07
9.3672e-05
4.66627e-07
9.37045e-05
4.64197e-07
9.37364e-05
4.5892e-07
9.37676e-05
4.51411e-07
9.37982e-05
4.42197e-07
9.38282e-05
4.31728e-07
9.38575e-05
4.2039e-07
9.38863e-05
4.08512e-07
9.39145e-05
3.96374e-07
9.39422e-05
3.84214e-07
9.39696e-05
3.72236e-07
9.39966e-05
3.60609e-07
9.40234e-05
3.49471e-07
9.40502e-05
3.38931e-07
9.40771e-05
3.29062e-07
9.41043e-05
3.19904e-07
9.41318e-05
3.11456e-07
9.41599e-05
3.03679e-07
9.41887e-05
2.965e-07
9.42182e-05
2.89831e-07
9.42485e-05
2.83586e-07
2.77744e-07
9.42795e-05
9.60348e-05
3.97482e-08
9.60445e-05
1.17599e-07
9.60611e-05
1.89241e-07
9.6083e-05
2.51031e-07
9.61091e-05
3.02443e-07
9.61381e-05
3.43825e-07
9.61691e-05
3.7584e-07
9.62013e-05
3.9959e-07
9.62341e-05
4.16233e-07
9.62673e-05
4.26835e-07
9.63004e-05
4.32378e-07
9.63333e-05
4.33739e-07
9.63658e-05
4.31687e-07
9.63978e-05
4.26886e-07
9.64293e-05
4.19915e-07
9.64602e-05
4.11268e-07
9.64906e-05
4.01372e-07
9.65204e-05
3.90591e-07
9.65497e-05
3.79235e-07
9.65785e-05
3.67568e-07
9.66069e-05
3.55815e-07
9.66349e-05
3.44163e-07
9.66628e-05
3.32767e-07
9.66905e-05
3.21752e-07
9.67182e-05
3.1121e-07
9.67461e-05
3.01206e-07
9.67742e-05
2.91769e-07
9.68028e-05
2.829e-07
9.68319e-05
2.7457e-07
9.68616e-05
2.66727e-07
9.68922e-05
2.59313e-07
9.69235e-05
2.52275e-07
2.45606e-07
9.69556e-05
9.87786e-05
3.68259e-08
9.87882e-05
1.08087e-07
9.88041e-05
1.73345e-07
9.88251e-05
2.29967e-07
9.88502e-05
2.7736e-07
9.88783e-05
3.15762e-07
9.89084e-05
3.45711e-07
9.89399e-05
3.68096e-07
9.89722e-05
3.83908e-07
9.9005e-05
3.94086e-07
9.90378e-05
3.99509e-07
9.90706e-05
4.00973e-07
9.91031e-05
3.99183e-07
9.91352e-05
3.94755e-07
9.91669e-05
3.88226e-07
9.91981e-05
3.8006e-07
9.92288e-05
3.70656e-07
9.92591e-05
3.60355e-07
9.92889e-05
3.49448e-07
9.93183e-05
3.38184e-07
9.93473e-05
3.26769e-07
9.93761e-05
3.15378e-07
9.94047e-05
3.04152e-07
9.94332e-05
2.93201e-07
9.94619e-05
2.82609e-07
9.94906e-05
2.72428e-07
9.95197e-05
2.62685e-07
9.95492e-05
2.53381e-07
9.95793e-05
2.44495e-07
9.961e-05
2.35989e-07
9.96415e-05
2.27824e-07
9.96739e-05
2.19961e-07
2.12394e-07
9.97071e-05
0.000101601
3.3818e-08
0.00010161
9.8802e-08
0.000101625
1.58084e-07
0.000101646
2.09738e-07
0.00010167
2.53194e-07
0.000101697
2.88594e-07
0.000101726
3.1638e-07
0.000101757
3.37276e-07
0.000101789
3.5212e-07
0.000101821
3.61739e-07
0.000101854
3.66913e-07
0.000101886
3.68359e-07
0.000101919
3.6672e-07
0.000101951
3.62563e-07
0.000101983
3.56383e-07
0.000102014
3.48611e-07
0.000102045
3.39617e-07
0.000102076
3.29721e-07
0.000102106
3.19193e-07
0.000102136
3.08264e-07
0.000102166
2.97124e-07
0.000102195
2.85934e-07
0.000102225
2.74821e-07
0.000102254
2.63886e-07
0.000102283
2.53199e-07
0.000102313
2.42808e-07
0.000102343
2.32737e-07
0.000102373
2.22986e-07
0.000102404
2.13541e-07
0.000102436
2.04373e-07
0.000102468
1.9545e-07
0.000102501
1.86741e-07
1.78239e-07
0.000102536
0.000104503
3.08061e-08
0.000104512
8.97686e-08
0.000104527
1.43405e-07
0.000104547
1.90277e-07
0.00010457
2.29871e-07
0.000104596
2.62264e-07
0.000104625
2.87813e-07
0.000104655
3.0711e-07
0.000104686
3.20867e-07
0.000104718
3.29802e-07
0.00010475
3.34605e-07
0.000104783
3.35919e-07
0.000104815
3.34325e-07
0.000104848
3.3034e-07
0.000104879
3.24419e-07
0.000104911
3.16957e-07
0.000104942
3.08297e-07
0.000104973
2.98734e-07
0.000105004
2.88517e-07
0.000105035
2.7786e-07
0.000105065
2.66937e-07
0.000105095
2.55895e-07
0.000105125
2.44848e-07
0.000105155
2.33885e-07
0.000105185
2.23071e-07
0.000105215
2.12447e-07
0.000105246
2.02032e-07
0.000105277
1.9183e-07
0.000105309
1.81827e-07
0.000105341
1.72001e-07
0.000105374
1.62325e-07
0.000105408
1.52769e-07
1.43322e-07
0.000105443
0.000107489
2.78359e-08
0.000107498
8.09987e-08
0.000107512
1.29263e-07
0.000107531
1.71519e-07
0.000107553
2.07326e-07
0.000107579
2.36713e-07
0.000107607
2.59966e-07
0.000107636
2.77574e-07
0.000107667
2.90136e-07
0.000107698
2.98274e-07
0.00010773
3.02594e-07
0.000107763
3.03669e-07
0.000107795
3.02019e-07
0.000107827
2.98113e-07
0.000107859
2.92364e-07
0.000107891
2.85133e-07
0.000107923
2.76734e-07
0.000107954
2.67437e-07
0.000107985
2.5747e-07
0.000108016
2.47028e-07
0.000108046
2.36272e-07
0.000108077
2.25331e-07
0.000108108
2.14311e-07
0.000108138
2.03291e-07
0.000108169
1.92326e-07
0.0001082
1.81454e-07
0.000108231
1.70691e-07
0.000108263
1.6004e-07
0.000108295
1.49491e-07
0.000108328
1.39023e-07
0.000108362
1.28613e-07
0.000108397
1.18229e-07
1.07861e-07
0.000108432
0.00011056
2.49311e-08
0.000110568
7.24936e-08
0.000110582
1.15612e-07
0.0001106
1.53403e-07
0.000110622
1.85495e-07
0.000110647
2.11883e-07
0.000110674
2.32796e-07
0.000110703
2.48636e-07
0.000110733
2.59908e-07
0.000110764
2.67146e-07
0.000110796
2.70882e-07
0.000110828
2.71618e-07
0.00011086
2.69819e-07
0.000110892
2.65905e-07
0.000110924
2.60247e-07
0.000110956
2.53173e-07
0.000110988
2.44968e-07
0.00011102
2.35876e-07
0.000111051
2.26104e-07
0.000111082
2.1583e-07
0.000111113
2.05197e-07
0.000111144
1.94323e-07
0.000111175
1.83301e-07
0.000111207
1.72201e-07
0.000111238
1.61074e-07
0.000111269
1.4995e-07
0.000111301
1.38846e-07
0.000111333
1.27761e-07
0.000111366
1.16688e-07
0.0001114
1.05609e-07
0.000111434
9.44999e-08
0.000111469
8.3331e-08
7.20918e-08
0.000111504
0.000113718
2.21023e-08
0.000113727
6.42469e-08
0.00011374
1.02411e-07
0.000113757
1.35873e-07
0.000113778
1.64315e-07
0.000113803
1.87715e-07
0.000113829
2.06253e-07
0.000113858
2.20259e-07
0.000113887
2.30158e-07
0.000113918
2.36407e-07
0.000113949
2.39464e-07
0.000113981
2.39771e-07
0.000114013
2.37736e-07
0.000114046
2.33733e-07
0.000114078
2.28094e-07
0.00011411
2.21111e-07
0.000114142
2.13039e-07
0.000114173
2.04098e-07
0.000114205
1.94476e-07
0.000114237
1.84328e-07
0.000114268
1.73785e-07
0.000114299
1.62952e-07
0.000114331
1.5191e-07
0.000114362
1.40723e-07
0.000114394
1.29432e-07
0.000114426
1.18066e-07
0.000114458
1.06638e-07
0.000114491
9.51479e-08
0.000114524
8.35883e-08
0.000114557
7.19429e-08
0.000114592
6.01895e-08
0.000114627
4.82994e-08
3.62653e-08
0.000114663
0.000116967
1.93523e-08
0.000116975
5.62469e-08
0.000116988
8.96234e-08
0.000117005
1.18873e-07
0.000117025
1.43728e-07
0.000117049
1.64153e-07
0.000117075
1.80288e-07
0.000117103
1.92405e-07
0.000117132
2.00859e-07
0.000117163
2.06037e-07
0.000117194
2.08333e-07
0.000117225
2.08128e-07
0.000117257
2.0578e-07
0.000117289
2.01617e-07
0.000117322
1.95929e-07
0.000117354
1.88978e-07
0.000117386
1.80988e-07
0.000117418
1.72154e-07
0.000117449
1.62642e-07
0.000117481
1.52591e-07
0.000117513
1.42116e-07
0.000117545
1.31308e-07
0.000117576
1.20241e-07
0.000117608
1.08968e-07
0.00011764
9.75259e-08
0.000117672
8.59392e-08
0.000117704
7.42187e-08
0.000117737
6.23651e-08
0.00011777
5.03706e-08
0.000117804
3.82207e-08
0.000117838
2.58954e-08
0.000117873
1.33682e-08
6.36506e-10
0.000117909
0.000120309
1.66793e-08
0.000120316
4.8478e-08
0.000120329
7.721e-08
0.000120345
1.02352e-07
0.000120365
1.23675e-07
0.000120388
1.41137e-07
0.000120414
1.54848e-07
0.000120441
1.6503e-07
0.00012047
1.71976e-07
0.0001205
1.76013e-07
0.000120531
1.77473e-07
0.000120562
1.76685e-07
0.000120594
1.73956e-07
0.000120626
1.69568e-07
0.000120659
1.63777e-07
0.000120691
1.56807e-07
0.000120723
1.48856e-07
0.000120755
1.40093e-07
0.000120787
1.30664e-07
0.000120819
1.2069e-07
0.000120851
1.10271e-07
0.000120882
9.94865e-08
0.000120914
8.83991e-08
0.000120946
7.70552e-08
0.000120978
6.54872e-08
0.00012101
5.37149e-08
0.000121043
4.17478e-08
0.000121076
2.95863e-08
0.000121109
1.72234e-08
0.000121142
4.64678e-09
0.000121176
-8.16105e-09
0.000121211
-2.12235e-08
-3.45371e-08
0.000121246
0.000123746
1.40791e-08
0.000123753
4.09229e-08
0.000123765
6.51357e-08
0.000123781
8.62611e-08
0.000123801
1.04101e-07
0.000123824
1.18613e-07
0.000123849
1.29881e-07
0.000123876
1.38087e-07
0.000123904
1.43471e-07
0.000123934
1.46305e-07
0.000123964
1.46867e-07
0.000123996
1.45433e-07
0.000124027
1.42263e-07
0.000124059
1.37599e-07
0.000124091
1.31656e-07
0.000124124
1.24628e-07
0.000124156
1.16684e-07
0.000124188
1.07968e-07
0.00012422
9.86058e-08
0.000124252
8.87002e-08
0.000124284
7.83369e-08
0.000124316
6.75843e-08
0.000124348
5.64953e-08
0.00012438
4.51092e-08
0.000124412
3.34533e-08
0.000124444
2.15442e-08
0.000124476
9.38977e-09
0.000124509
-3.00951e-09
0.000124542
-1.56594e-08
0.000124575
-2.85701e-08
0.000124608
-4.17559e-08
0.000124642
-5.52362e-08
-6.90013e-08
0.000124677
0.000127281
1.1546e-08
0.000127288
3.35621e-08
0.0001273
5.3364e-08
0.000127316
7.05489e-08
0.000127335
8.49464e-08
0.000127357
9.65172e-08
0.000127382
1.05327e-07
0.000127408
1.11522e-07
0.000127436
1.15299e-07
0.000127466
1.1688e-07
0.000127496
1.1649e-07
0.000127527
1.14357e-07
0.000127559
1.107e-07
0.000127591
1.05717e-07
0.000127623
9.95876e-08
0.000127655
9.24727e-08
0.000127687
8.45137e-08
0.000127719
7.58318e-08
0.000127751
6.65308e-08
0.000127783
5.66972e-08
0.000127815
4.64025e-08
0.000127847
3.57036e-08
0.000127879
2.46445e-08
0.000127911
1.32576e-08
0.000127943
1.56556e-09
0.000127975
-1.04183e-08
0.000128007
-2.26869e-08
0.000128039
-3.52399e-08
0.000128071
-4.80817e-08
0.000128104
-6.12198e-08
0.000128137
-7.4665e-08
0.00012817
-8.84322e-08
-1.02505e-07
0.000128204
0.000130917
9.07563e-09
0.000130925
2.63807e-08
0.000130936
4.18671e-08
0.000130951
5.51753e-08
0.00013097
6.61616e-08
0.000130992
7.47942e-08
0.000131016
8.11269e-08
0.000131042
8.52791e-08
0.00013107
8.74083e-08
0.000131099
8.76929e-08
0.00013113
8.63049e-08
0.000131161
8.3432e-08
0.000131192
7.92508e-08
0.000131224
7.39186e-08
0.000131256
6.75788e-08
0.000131288
6.0361e-08
0.00013132
5.23794e-08
0.000131352
4.3731e-08
0.000131384
3.44998e-08
0.000131416
2.47551e-08
0.000131448
1.45551e-08
0.00013148
3.94531e-09
0.000131511
-7.0387e-09
0.000131543
-1.83712e-08
0.000131575
-3.00342e-08
0.000131606
-4.20166e-08
0.000131638
-5.4313e-08
0.00013167
-6.69226e-08
0.000131701
-7.9848e-08
0.000131733
-9.30945e-08
0.000131765
-1.06669e-07
0.000131797
-1.20582e-07
-1.34811e-07
0.00013183
0.000134658
6.6567e-09
0.000134665
1.93516e-08
0.000134676
3.05996e-08
0.000134691
4.00789e-08
0.000134709
4.76749e-08
0.000134731
5.33692e-08
0.000134755
5.72092e-08
0.000134781
5.92923e-08
0.000134808
5.97423e-08
0.000134837
5.87017e-08
0.000134867
5.62826e-08
0.000134898
5.26403e-08
0.00013493
4.79104e-08
0.000134961
4.22097e-08
0.000134993
3.56465e-08
0.000135025
2.83223e-08
0.000135057
2.03226e-08
0.000135089
1.17188e-08
0.000135121
2.57883e-09
0.000135153
-7.0489e-09
0.000135185
-1.71159e-08
0.000135216
-2.75882e-08
0.000135248
-3.84392e-08
0.000135279
-4.96493e-08
0.00013531
-6.12049e-08
0.000135341
-7.30974e-08
0.000135372
-8.53226e-08
0.000135403
-9.78791e-08
0.000135434
-1.10768e-07
0.000135465
-1.23993e-07
0.000135496
-1.37555e-07
0.000135527
-1.51463e-07
-1.65687e-07
0.000135558
0.000138505
4.30588e-09
0.000138511
1.24952e-08
0.000138522
1.95752e-08
0.000138537
2.52545e-08
0.000138556
2.9456e-08
0.000138577
3.21865e-08
0.0001386
3.34982e-08
0.000138626
3.34747e-08
0.000138654
3.22132e-08
0.000138683
2.98205e-08
0.000138713
2.63292e-08
0.000138743
2.19029e-08
0.000138775
1.66203e-08
0.000138806
1.05532e-08
0.000138838
3.77015e-09
0.00013887
-3.64922e-09
0.000138902
-1.16425e-08
0.000138934
-2.01723e-08
0.000138966
-2.91865e-08
0.000138997
-3.86493e-08
0.000139029
-4.85287e-08
0.00013906
-5.88004e-08
0.000139091
-6.9446e-08
0.000139122
-8.04518e-08
0.000139152
-9.18083e-08
0.000139183
-1.0351e-07
0.000139213
-1.15552e-07
0.000139243
-1.27935e-07
0.000139273
-1.40658e-07
0.000139303
-1.5372e-07
0.000139332
-1.67123e-07
0.000139362
-1.80868e-07
-1.94924e-07
0.000139391
0.000142462
1.94764e-09
0.000142468
5.70809e-09
0.000142479
8.67254e-09
0.000142494
1.05808e-08
0.000142512
1.13982e-08
0.000142533
1.11614e-08
0.000142557
9.93014e-09
0.000142582
7.77449e-09
0.00014261
4.77688e-09
0.000142638
1.08771e-09
0.000142668
-3.52778e-09
0.000142699
-8.76043e-09
0.00014273
-1.46074e-08
0.000142762
-2.10406e-08
0.000142794
-2.80213e-08
0.000142825
-3.55113e-08
0.000142857
-4.34783e-08
0.000142889
-5.18963e-08
0.000142921
-6.07373e-08
0.000142952
-6.998e-08
0.000142983
-7.96066e-08
0.000143014
-8.96031e-08
0.000143044
-9.9959e-08
0.000143075
-1.10667e-07
0.000143104
-1.21721e-07
0.000143134
-1.33118e-07
0.000143163
-1.44857e-07
0.000143192
-1.56935e-07
0.000143221
-1.69351e-07
0.000143249
-1.82103e-07
0.000143278
-1.95188e-07
0.000143305
-2.08605e-07
-2.22319e-07
0.000143333
0.000146531
-1.90722e-10
0.000146538
-7.34255e-10
0.000146548
-1.87199e-09
0.000146563
-3.81983e-09
0.000146581
-6.51013e-09
0.000146602
-9.83233e-09
0.000146625
-1.36948e-08
0.000146651
-1.8029e-08
0.000146679
-2.27918e-08
0.000146708
-2.79551e-08
0.000146738
-3.35651e-08
0.000146769
-3.95513e-08
0.0001468
-4.59194e-08
0.000146832
-5.26747e-08
0.000146863
-5.9812e-08
0.000146895
-6.73244e-08
0.000146927
-7.52042e-08
0.000146958
-8.34455e-08
0.00014699
-9.20418e-08
0.000147021
-1.00987e-07
0.000147051
-1.10276e-07
0.000147082
-1.19905e-07
0.000147112
-1.29872e-07
0.000147141
-1.40174e-07
0.00014717
-1.5081e-07
0.000147199
-1.61779e-07
0.000147227
-1.73081e-07
0.000147255
-1.84715e-07
0.000147282
-1.96677e-07
0.000147309
-2.08965e-07
0.000147335
-2.21574e-07
0.000147361
-2.34499e-07
-2.47705e-07
0.000147387
0.000150718
-2.70886e-09
0.000150725
-7.44032e-09
0.000150736
-1.25346e-08
0.00015075
-1.81983e-08
0.000150768
-2.43027e-08
0.000150789
-3.06735e-08
0.000150812
-3.71748e-08
0.000150838
-4.3724e-08
0.000150865
-5.02928e-08
0.000150894
-5.6884e-08
0.000150924
-6.35518e-08
0.000150955
-7.03184e-08
0.000150986
-7.72163e-08
0.000151018
-8.42838e-08
0.00015105
-9.15525e-08
0.000151081
-9.90475e-08
0.000151113
-1.06789e-07
0.000151144
-1.14794e-07
0.000151175
-1.23075e-07
0.000151206
-1.31643e-07
0.000151236
-1.40504e-07
0.000151266
-1.49667e-07
0.000151295
-1.59135e-07
0.000151324
-1.68914e-07
0.000151352
-1.79006e-07
0.00015138
-1.89414e-07
0.000151407
-2.00138e-07
0.000151433
-2.11178e-07
0.000151459
-2.2253e-07
0.000151484
-2.34191e-07
0.000151509
-2.46154e-07
0.000151533
-2.58412e-07
-2.70928e-07
0.000151556
0.000155023
-3.97408e-09
0.000155028
-1.27925e-08
0.000155038
-2.2266e-08
0.000155052
-3.23253e-08
0.00015507
-4.24376e-08
0.000155092
-5.22444e-08
0.000155116
-6.15709e-08
0.000155143
-7.0374e-08
0.000155171
-7.86938e-08
0.000155201
-8.66095e-08
0.000155232
-9.42254e-08
0.000155263
-1.01633e-07
0.000155295
-1.08918e-07
0.000155327
-1.16162e-07
0.000155358
-1.23434e-07
0.00015539
-1.3079e-07
0.000155422
-1.38276e-07
0.000155453
-1.45931e-07
0.000155484
-1.53784e-07
0.000155514
-1.61859e-07
0.000155543
-1.70177e-07
0.000155572
-1.78752e-07
0.000155601
-1.87598e-07
0.000155629
-1.96725e-07
0.000155656
-2.06138e-07
0.000155682
-2.15844e-07
0.000155708
-2.25843e-07
0.000155733
-2.36138e-07
0.000155757
-2.46725e-07
0.000155781
-2.57599e-07
0.000155803
-2.68754e-07
0.000155825
-2.80182e-07
-2.91846e-07
0.000155846
0.000159455
-7.93212e-09
0.000159462
-2.00007e-08
0.000159472
-3.2719e-08
0.000159486
-4.60736e-08
0.000159503
-5.95972e-08
0.000159524
-7.26954e-08
0.000159547
-8.4961e-08
0.000159573
-9.62381e-08
0.000159601
-1.06547e-07
0.00015963
-1.15994e-07
0.000159661
-1.24726e-07
0.000159692
-1.32896e-07
0.000159724
-1.40644e-07
0.000159756
-1.48101e-07
0.000159787
-1.55377e-07
0.000159819
-1.62566e-07
0.000159851
-1.69745e-07
0.000159882
-1.76976e-07
0.000159912
-1.84311e-07
0.000159942
-1.91791e-07
0.000159971
-1.9945e-07
0.00016
-2.07313e-07
0.000160028
-2.15403e-07
0.000160055
-2.23733e-07
0.000160081
-2.32318e-07
0.000160106
-2.41165e-07
0.000160131
-2.50279e-07
0.000160154
-2.59661e-07
0.000160177
-2.6931e-07
0.000160199
-2.79222e-07
0.000160219
-2.89388e-07
0.000160239
-2.99801e-07
-3.10423e-07
0.000160257
0.000164003
-5.3099e-09
0.000164005
-2.18987e-08
0.000164014
-4.1111e-08
0.000164029
-6.09519e-08
0.000164049
-7.97781e-08
0.000164073
-9.68451e-08
0.0001641
-1.11991e-07
0.000164129
-1.25335e-07
0.00016416
-1.37095e-07
0.000164191
-1.4752e-07
0.000164223
-1.56857e-07
0.000164256
-1.65338e-07
0.000164288
-1.73164e-07
0.000164321
-1.80508e-07
0.000164353
-1.87516e-07
0.000164385
-1.94308e-07
0.000164416
-2.00982e-07
0.000164446
-2.07618e-07
0.000164476
-2.1428e-07
0.000164506
-2.21021e-07
0.000164534
-2.27884e-07
0.000164562
-2.34902e-07
0.000164588
-2.42101e-07
0.000164614
-2.49503e-07
0.000164639
-2.57123e-07
0.000164663
-2.64972e-07
0.000164686
-2.73056e-07
0.000164707
-2.8138e-07
0.000164728
-2.89943e-07
0.000164747
-2.9874e-07
0.000164766
-3.07766e-07
0.000164783
-3.17014e-07
-3.26448e-07
0.000164799
0.000168701
-1.48151e-08
0.000168709
-3.00793e-08
0.000168717
-4.90392e-08
0.000168727
-7.08351e-08
0.000168741
-9.37685e-08
0.00016876
-1.15501e-07
0.000168783
-1.34823e-07
0.000168809
-1.51529e-07
0.000168838
-1.65852e-07
0.000168868
-1.78132e-07
0.0001689
-1.88726e-07
0.000168933
-1.97972e-07
0.000168966
-2.06165e-07
0.000168999
-2.13559e-07
0.000169032
-2.20363e-07
0.000169064
-2.26749e-07
0.000169096
-2.32854e-07
0.000169127
-2.38791e-07
0.000169158
-2.44649e-07
0.000169187
-2.505e-07
0.000169216
-2.564e-07
0.000169243
-2.62396e-07
0.000169269
-2.68523e-07
0.000169295
-2.74807e-07
0.000169319
-2.81271e-07
0.000169342
-2.87928e-07
0.000169364
-2.9479e-07
0.000169384
-3.0186e-07
0.000169403
-3.09141e-07
0.000169421
-3.1663e-07
0.000169438
-3.24322e-07
0.000169453
-3.32209e-07
-3.4026e-07
0.000169467
0.000173491
5.35318e-09
0.000173485
-2.37528e-08
0.000173495
-5.9081e-08
0.000173517
-9.26591e-08
0.000173545
-1.22214e-07
0.000173577
-1.47106e-07
0.00017361
-1.6799e-07
0.000173644
-1.85457e-07
0.000173678
-2.00075e-07
0.000173712
-2.12353e-07
0.000173746
-2.22745e-07
0.00017378
-2.31649e-07
0.000173813
-2.39392e-07
0.000173846
-2.46242e-07
0.000173878
-2.52417e-07
0.000173909
-2.58095e-07
0.00017394
-2.63421e-07
0.00017397
-2.6851e-07
0.000173998
-2.73456e-07
0.000174026
-2.78335e-07
0.000174053
-2.83208e-07
0.000174079
-2.88123e-07
0.000174103
-2.93119e-07
0.000174127
-2.98227e-07
0.000174149
-3.0347e-07
0.00017417
-3.08865e-07
0.00017419
-3.14426e-07
0.000174208
-3.20159e-07
0.000174225
-3.26067e-07
0.00017424
-3.32151e-07
0.000174254
-3.38407e-07
0.000174267
-3.44829e-07
-3.51389e-07
0.000174278
0.000178498
-2.41792e-08
0.000178501
-2.64896e-08
0.00017849
-4.82633e-08
0.000178481
-8.39849e-08
0.000178484
-1.24859e-07
0.000178498
-1.60976e-07
0.00017852
-1.90329e-07
0.000178548
-2.13586e-07
0.00017858
-2.32087e-07
0.000178615
-2.46842e-07
0.000178651
-2.58663e-07
0.000178687
-2.68223e-07
0.000178724
-2.76062e-07
0.00017876
-2.826e-07
0.000178796
-2.88169e-07
0.000178831
-2.93023e-07
0.000178865
-2.97364e-07
0.000178898
-3.01348e-07
0.000178929
-3.05097e-07
0.00017896
-3.08705e-07
0.000178989
-3.12247e-07
0.000179016
-3.15783e-07
0.000179043
-3.19357e-07
0.000179068
-3.23005e-07
0.000179091
-3.26755e-07
0.000179113
-3.30626e-07
0.000179133
-3.34634e-07
0.000179151
-3.38787e-07
0.000179168
-3.43091e-07
0.000179184
-3.47547e-07
0.000179198
-3.52155e-07
0.00017921
-3.56911e-07
-3.61791e-07
0.00017922
0.000183487
5.66646e-08
0.000183465
-4.5017e-09
0.000183501
-8.42038e-08
0.000183553
-1.36645e-07
0.000183605
-1.76546e-07
0.000183651
-2.07548e-07
0.000183693
-2.32145e-07
0.000183732
-2.52191e-07
0.000183768
-2.68422e-07
0.000183803
-2.81534e-07
0.000183836
-2.92192e-07
0.000183869
-3.00916e-07
0.000183901
-3.08109e-07
0.000183933
-3.14095e-07
0.000183964
-3.19138e-07
0.000183994
-3.23448e-07
0.000184024
-3.27192e-07
0.000184053
-3.30508e-07
0.000184081
-3.33505e-07
0.000184109
-3.36273e-07
0.000184136
-3.38885e-07
0.000184161
-3.41399e-07
0.000184186
-3.43864e-07
0.000184209
-3.4632e-07
0.000184231
-3.48797e-07
0.000184252
-3.51321e-07
0.000184271
-3.53911e-07
0.000184289
-3.56581e-07
0.000184305
-3.59341e-07
0.00018432
-3.62197e-07
0.000184333
-3.6515e-07
0.000184344
-3.682e-07
-3.71332e-07
0.000184354
0.000188861
7.68912e-09
0.000188796
6.03352e-08
0.000188711
1.03355e-09
0.000188647
-7.3205e-08
0.000188629
-1.58326e-07
0.000188643
-2.21461e-07
0.000188676
-2.64885e-07
0.000188719
-2.9563e-07
0.000188769
-3.17914e-07
0.000188822
-3.34338e-07
0.000188876
-3.46549e-07
0.000188931
-3.55681e-07
0.000188985
-3.62539e-07
0.000189039
-3.67702e-07
0.000189091
-3.7159e-07
0.000189142
-3.74517e-07
0.000189192
-3.76716e-07
0.00018924
-3.78366e-07
0.000189286
-3.79604e-07
0.00018933
-3.80539e-07
0.000189372