/*--------------------------------*- C++ -*----------------------------------*\
| =========                 |                                                 |
| \\      /  F ield         | OpenFOAM: The Open Source CFD Toolbox           |
|  \\    /   O peration     | Version:  2.1.1                                 |
|   \\  /    A nd           | Web:      www.OpenFOAM.org                      |
|    \\/     M anipulation  |                                                 |
\*---------------------------------------------------------------------------*/
FoamFile
{
    version     2.0;
    format      ascii;
    class       volVectorField;
    location    "0.08";
    object      U;
}
// * * * * * * * * * * * * * * * * * * * * * * * * * * * * * * * * * * * * * //

dimensions      [0 1 -1 0 0 0 0];

internalField   nonuniform List<vector> 
6820
(
(8.34337 -0.360076 0)
(8.40109 -0.24715 0)
(8.35607 -0.115288 0)
(8.24774 -0.0365496 0)
(8.11924 0.0060205 0)
(7.98575 0.0278884 0)
(7.85355 0.0386655 0)
(7.72605 0.0433737 0)
(7.60464 0.0446545 0)
(7.48986 0.0439651 0)
(7.38196 0.0421473 0)
(7.28094 0.0397059 0)
(7.18669 0.0369523 0)
(7.09898 0.0340825 0)
(7.01754 0.0312208 0)
(6.94203 0.0284454 0)
(6.87209 0.0258041 0)
(6.80735 0.0233249 0)
(6.74744 0.0210222 0)
(6.69199 0.0189019 0)
(6.64064 0.0169643 0)
(6.59303 0.0152071 0)
(6.54882 0.0136269 0)
(6.50767 0.0122218 0)
(6.46925 0.0109936 0)
(6.4332 0.00995171 0)
(6.39917 0.0091181 0)
(6.36667 0.00855247 0)
(6.33517 0.00835417 0)
(6.30371 0.00882428 0)
(6.27044 0.0107638 0)
(6.23303 0.0147014 0)
(6.17978 0.0345787 0)
(8.32138 0.166252 0)
(8.28709 0.190008 0)
(8.28543 0.132165 0)
(8.3174 0.0958734 0)
(8.36169 0.0750431 0)
(8.40173 0.0623877 0)
(8.43281 0.0549132 0)
(8.45488 0.0504003 0)
(8.46879 0.0475081 0)
(8.47555 0.0455236 0)
(8.4762 0.0440519 0)
(8.47168 0.0428557 0)
(8.46281 0.0417964 0)
(8.45031 0.0407977 0)
(8.43483 0.0398197 0)
(8.41692 0.0388445 0)
(8.39705 0.0378669 0)
(8.37564 0.0368893 0)
(8.35303 0.0359177 0)
(8.32954 0.0349605 0)
(8.3054 0.0340274 0)
(8.28083 0.0331292 0)
(8.256 0.0322784 0)
(8.23106 0.0314903 0)
(8.20611 0.0307856 0)
(8.18125 0.0301939 0)
(8.15656 0.0297634 0)
(8.13204 0.0295782 0)
(8.10794 0.029775 0)
(8.08395 0.0307265 0)
(8.06232 0.03276 0)
(8.03993 0.0381915 0)
(8.03912 0.0464507 0)
(8.3225 -0.0608833 0)
(8.31397 -0.0832739 0)
(8.33049 -0.0540833 0)
(8.34429 -0.0202794 0)
(8.35314 0.00243956 0)
(8.36214 0.0165763 0)
(8.37184 0.025828 0)
(8.38182 0.0320599 0)
(8.39162 0.0362962 0)
(8.40083 0.0391823 0)
(8.40922 0.0411134 0)
(8.41665 0.0423342 0)
(8.42305 0.0430192 0)
(8.42842 0.0433003 0)
(8.43276 0.0432777 0)
(8.43612 0.0430289 0)
(8.43855 0.0426145 0)
(8.4401 0.0420825 0)
(8.44083 0.0414718 0)
(8.44082 0.0408138 0)
(8.44011 0.0401351 0)
(8.43877 0.039459 0)
(8.43685 0.0388075 0)
(8.4344 0.0382027 0)
(8.43146 0.0376709 0)
(8.42807 0.0372434 0)
(8.42426 0.0369711 0)
(8.42005 0.0369069 0)
(8.41554 0.0372058 0)
(8.41074 0.0378434 0)
(8.4062 0.0395537 0)
(8.40169 0.0403896 0)
(8.39898 0.0448402 0)
(8.33365 0.0145677 0)
(8.32976 0.0477136 0)
(8.32735 0.053997 0)
(8.32867 0.0465904 0)
(8.33453 0.0411037 0)
(8.34202 0.0386144 0)
(8.34948 0.0378203 0)
(8.35665 0.0377939 0)
(8.36358 0.0380345 0)
(8.37023 0.0383223 0)
(8.37657 0.0385593 0)
(8.38258 0.038705 0)
(8.38825 0.0387505 0)
(8.39354 0.0387001 0)
(8.39846 0.0385632 0)
(8.403 0.0383522 0)
(8.40717 0.0380809 0)
(8.41096 0.0377636 0)
(8.4144 0.0374147 0)
(8.41749 0.0370484 0)
(8.42025 0.0366791 0)
(8.42269 0.0363216 0)
(8.42483 0.0359926 0)
(8.42668 0.0357111 0)
(8.42825 0.0355014 0)
(8.42955 0.035394 0)
(8.43062 0.0354341 0)
(8.43146 0.0356751 0)
(8.43216 0.0362122 0)
(8.43276 0.0370995 0)
(8.4337 0.038532 0)
(8.43491 0.0401964 0)
(8.43786 0.0426429 0)
(8.3302 -0.00530548 0)
(8.32721 -0.00749269 0)
(8.33135 -0.00242096 0)
(8.33601 0.00808085 0)
(8.34005 0.0172699 0)
(8.34418 0.0235032 0)
(8.34855 0.0277061 0)
(8.35315 0.0306909 0)
(8.3579 0.0328593 0)
(8.36269 0.0344441 0)
(8.36744 0.0355911 0)
(8.37209 0.0363954 0)
(8.3766 0.0369245 0)
(8.38095 0.037231 0)
(8.38512 0.0373584 0)
(8.38911 0.0373441 0)
(8.3929 0.0372199 0)
(8.3965 0.0370135 0)
(8.39991 0.0367494 0)
(8.40312 0.0364493 0)
(8.40615 0.0361331 0)
(8.40899 0.0358203 0)
(8.41165 0.0355303 0)
(8.41414 0.0352845 0)
(8.41646 0.0351076 0)
(8.41862 0.0350285 0)
(8.42065 0.0350864 0)
(8.42256 0.0353196 0)
(8.42443 0.0357958 0)
(8.42631 0.036511 0)
(8.42844 0.0375882 0)
(8.43085 0.0385893 0)
(8.43397 0.0398688 0)
(8.33238 0.00229402 0)
(8.33117 0.0133309 0)
(8.33277 0.0204329 0)
(8.33545 0.023843 0)
(8.33887 0.0260162 0)
(8.34288 0.0278456 0)
(8.34706 0.0295461 0)
(8.35124 0.031067 0)
(8.35542 0.0323282 0)
(8.35956 0.0333197 0)
(8.36364 0.0340644 0)
(8.36764 0.034591 0)
(8.37154 0.0349293 0)
(8.37534 0.0351095 0)
(8.37902 0.0351598 0)
(8.38257 0.035106 0)
(8.386 0.0349711 0)
(8.38929 0.0347758 0)
(8.39246 0.0345393 0)
(8.39549 0.0342792 0)
(8.3984 0.0340124 0)
(8.40118 0.0337557 0)
(8.40384 0.0335268 0)
(8.40639 0.0333448 0)
(8.40883 0.0332317 0)
(8.41116 0.0332125 0)
(8.41342 0.0333178 0)
(8.41563 0.0335763 0)
(8.41784 0.0340262 0)
(8.42012 0.0346608 0)
(8.42259 0.0355058 0)
(8.4253 0.0363334 0)
(8.42838 0.0371966 0)
(8.33232 0.000883732 0)
(8.33151 0.00581784 0)
(8.33339 0.0108154 0)
(8.3364 0.0156371 0)
(8.33977 0.0200459 0)
(8.34338 0.0235821 0)
(8.34708 0.0262929 0)
(8.35079 0.0283741 0)
(8.35452 0.0299629 0)
(8.35823 0.0311623 0)
(8.36189 0.0320505 0)
(8.3655 0.0326842 0)
(8.36903 0.033108 0)
(8.37247 0.0333594 0)
(8.37582 0.0334703 0)
(8.37907 0.0334689 0)
(8.38222 0.0333797 0)
(8.38527 0.0332249 0)
(8.38822 0.0330243 0)
(8.39108 0.0327964 0)
(8.39383 0.0325587 0)
(8.3965 0.0323282 0)
(8.39907 0.0321225 0)
(8.40157 0.0319599 0)
(8.40399 0.0318605 0)
(8.40635 0.0318456 0)
(8.40866 0.031939 0)
(8.41096 0.0321606 0)
(8.41329 0.0325311 0)
(8.4157 0.0330377 0)
(8.41826 0.0336749 0)
(8.42099 0.0343 0)
(8.42392 0.0348968 0)
(8.33272 0.00172117 0)
(8.33254 0.00732537 0)
(8.33415 0.0126438 0)
(8.33671 0.0169353 0)
(8.3397 0.0204146 0)
(8.34305 0.0231701 0)
(8.34655 0.025366 0)
(8.35009 0.0271363 0)
(8.35364 0.0285417 0)
(8.35716 0.0296293 0)
(8.36062 0.0304464 0)
(8.36401 0.0310342 0)
(8.36733 0.0314289 0)
(8.37057 0.0316629 0)
(8.37373 0.0317654 0)
(8.37679 0.0317621 0)
(8.37977 0.031676 0)
(8.38266 0.031528 0)
(8.38547 0.0313369 0)
(8.38819 0.0311201 0)
(8.39084 0.0308944 0)
(8.39341 0.0306758 0)
(8.39591 0.0304807 0)
(8.39835 0.0303256 0)
(8.40074 0.0302281 0)
(8.40309 0.0302058 0)
(8.40542 0.0302764 0)
(8.40776 0.0304532 0)
(8.41014 0.030746 0)
(8.41259 0.0311421 0)
(8.41517 0.0316254 0)
(8.41787 0.0321136 0)
(8.42068 0.0325813 0)
(8.33284 0.0018023 0)
(8.33292 0.006504 0)
(8.3344 0.0110486 0)
(8.33679 0.0149712 0)
(8.33962 0.0183728 0)
(8.34277 0.0212057 0)
(8.34608 0.0234974 0)
(8.34945 0.0253319 0)
(8.35282 0.0267759 0)
(8.35618 0.0278883 0)
(8.3595 0.0287238 0)
(8.36275 0.0293278 0)
(8.36594 0.0297385 0)
(8.36905 0.0299888 0)
(8.37208 0.0301078 0)
(8.37503 0.0301209 0)
(8.3779 0.0300508 0)
(8.38068 0.0299178 0)
(8.3834 0.0297405 0)
(8.38604 0.0295359 0)
(8.38861 0.0293201 0)
(8.39112 0.0291085 0)
(8.39358 0.0289164 0)
(8.39599 0.0287588 0)
(8.39836 0.028651 0)
(8.4007 0.0286072 0)
(8.40305 0.0286408 0)
(8.40541 0.0287603 0)
(8.40782 0.02897 0)
(8.41029 0.0292589 0)
(8.41286 0.029611 0)
(8.41553 0.0299795 0)
(8.41828 0.0303453 0)
(8.33294 0.00184588 0)
(8.33322 0.00618643 0)
(8.3346 0.010431 0)
(8.33679 0.014133 0)
(8.3394 0.0173092 0)
(8.34234 0.019949 0)
(8.34546 0.0220937 0)
(8.34867 0.0238235 0)
(8.35191 0.0251995 0)
(8.35514 0.0262707 0)
(8.35834 0.0270826 0)
(8.3615 0.0276746 0)
(8.36459 0.028081 0)
(8.36761 0.0283322 0)
(8.37056 0.0284554 0)
(8.37343 0.0284747 0)
(8.37623 0.0284116 0)
(8.37895 0.0282858 0)
(8.38161 0.0281149 0)
(8.3842 0.0279152 0)
(8.38674 0.0277021 0)
(8.38921 0.02749 0)
(8.39165 0.0272929 0)
(8.39404 0.0271242 0)
(8.39641 0.0269969 0)
(8.39877 0.0269226 0)
(8.40113 0.0269111 0)
(8.40351 0.0269681 0)
(8.40594 0.0270951 0)
(8.40844 0.0272837 0)
(8.41101 0.0275216 0)
(8.41367 0.0277834 0)
(8.41639 0.028059 0)
(8.33299 0.00181098 0)
(8.33337 0.00576508 0)
(8.33467 0.00961284 0)
(8.33667 0.0130198 0)
(8.33911 0.0159777 0)
(8.34186 0.0184796 0)
(8.34481 0.0205434 0)
(8.34786 0.0222223 0)
(8.35096 0.0235655 0)
(8.35408 0.0246162 0)
(8.35717 0.0254162 0)
(8.36023 0.0260028 0)
(8.36323 0.0264087 0)
(8.36618 0.0266629 0)
(8.36906 0.0267914 0)
(8.37188 0.0268173 0)
(8.37462 0.026761 0)
(8.37731 0.0266414 0)
(8.37993 0.0264752 0)
(8.38249 0.0262781 0)
(8.385 0.0260643 0)
(8.38746 0.0258475 0)
(8.38989 0.0256402 0)
(8.39228 0.0254545 0)
(8.39466 0.0253012 0)
(8.39703 0.0251897 0)
(8.39942 0.0251275 0)
(8.40183 0.0251184 0)
(8.40428 0.0251627 0)
(8.4068 0.0252548 0)
(8.40938 0.025386 0)
(8.41204 0.0255434 0)
(8.41476 0.0257232 0)
(8.33301 0.00173484 0)
(8.33346 0.00536638 0)
(8.33467 0.00888856 0)
(8.33653 0.0120463 0)
(8.33879 0.0148048 0)
(8.34136 0.0171549 0)
(8.34414 0.0191078 0)
(8.34704 0.0207049 0)
(8.35001 0.0219891 0)
(8.353 0.0229994 0)
(8.35599 0.0237726 0)
(8.35895 0.0243425 0)
(8.36187 0.024739 0)
(8.36475 0.024989 0)
(8.36757 0.0251165 0)
(8.37033 0.0251433 0)
(8.37304 0.0250887 0)
(8.37568 0.0249703 0)
(8.37827 0.024804 0)
(8.38081 0.0246045 0)
(8.38331 0.024385 0)
(8.38576 0.024158 0)
(8.38819 0.0239348 0)
(8.39059 0.0237259 0)
(8.39298 0.0235405 0)
(8.39538 0.0233861 0)
(8.39778 0.0232685 0)
(8.40022 0.0231904 0)
(8.4027 0.0231516 0)
(8.40523 0.0231486 0)
(8.40783 0.023176 0)
(8.4105 0.0232273 0)
(8.41323 0.0233021 0)
(8.33303 0.00163449 0)
(8.33349 0.00496791 0)
(8.33464 0.00818275 0)
(8.33635 0.0110898 0)
(8.33846 0.0136455 0)
(8.34087 0.0158402 0)
(8.34349 0.01768 0)
(8.34625 0.0191949 0)
(8.34908 0.0204196 0)
(8.35195 0.0213874 0)
(8.35483 0.0221308 0)
(8.3577 0.0226803 0)
(8.36054 0.0230633 0)
(8.36334 0.0233048 0)
(8.3661 0.0234272 0)
(8.36881 0.0234508 0)
(8.37147 0.0233937 0)
(8.37408 0.0232724 0)
(8.37664 0.0231018 0)
(8.37916 0.0228954 0)
(8.38164 0.0226656 0)
(8.38409 0.0224234 0)
(8.38651 0.0221792 0)
(8.38892 0.0219418 0)
(8.39132 0.021719 0)
(8.39373 0.021517 0)
(8.39616 0.0213401 0)
(8.39861 0.0211902 0)
(8.40111 0.0210674 0)
(8.40366 0.0209691 0)
(8.40628 0.0208922 0)
(8.40896 0.0208334 0)
(8.41171 0.0207934 0)
(8.33304 0.00152153 0)
(8.3335 0.00457723 0)
(8.33458 0.00751028 0)
(8.33617 0.0101802 0)
(8.33814 0.0125411 0)
(8.3404 0.0145809 0)
(8.34287 0.0163021 0)
(8.34548 0.0177264 0)
(8.34818 0.0188824 0)
(8.35094 0.0197988 0)
(8.35371 0.0205043 0)
(8.35648 0.021026 0)
(8.35924 0.0213888 0)
(8.36197 0.0216157 0)
(8.36466 0.0217274 0)
(8.36731 0.0217424 0)
(8.36993 0.0216777 0)
(8.3725 0.0215485 0)
(8.37503 0.0213686 0)
(8.37752 0.0211503 0)
(8.37999 0.020905 0)
(8.38243 0.0206426 0)
(8.38485 0.020372 0)
(8.38725 0.0201011 0)
(8.38966 0.0198361 0)
(8.39208 0.019582 0)
(8.39452 0.0193422 0)
(8.39699 0.019118 0)
(8.3995 0.0189094 0)
(8.40206 0.0187146 0)
(8.40468 0.0185315 0)
(8.40737 0.018358 0)
(8.41013 0.0181949 0)
(8.33304 0.00140297 0)
(8.33349 0.00419514 0)
(8.3345 0.00686449 0)
(8.33599 0.00930564 0)
(8.33783 0.0114747 0)
(8.33995 0.0133584 0)
(8.34228 0.0149568 0)
(8.34476 0.0162854 0)
(8.34734 0.0173673 0)
(8.34997 0.0182268 0)
(8.35264 0.0188888 0)
(8.35532 0.0193773 0)
(8.35799 0.0197148 0)
(8.36065 0.019922 0)
(8.36327 0.0200178 0)
(8.36587 0.0200194 0)
(8.36843 0.0199423 0)
(8.37096 0.0198005 0)
(8.37346 0.0196066 0)
(8.37593 0.0193718 0)
(8.37837 0.0191062 0)
(8.38079 0.0188188 0)
(8.3832 0.0185172 0)
(8.3856 0.0182081 0)
(8.38801 0.0178966 0)
(8.39043 0.0175868 0)
(8.39287 0.017281 0)
(8.39534 0.0169802 0)
(8.39785 0.016684 0)
(8.40041 0.0163911 0)
(8.40304 0.0160996 0)
(8.40573 0.0158077 0)
(8.40848 0.0155154 0)
(8.33304 0.00128297 0)
(8.33347 0.00382306 0)
(8.33442 0.00624409 0)
(8.33581 0.00846543 0)
(8.33753 0.0104474 0)
(8.33953 0.0121756 0)
(8.34173 0.0136484 0)
(8.34408 0.0148768 0)
(8.34654 0.015879 0)
(8.34907 0.0166757 0)
(8.35163 0.0172882 0)
(8.35422 0.0177377 0)
(8.35681 0.0180442 0)
(8.35939 0.0182263 0)
(8.36195 0.0183012 0)
(8.36448 0.0182844 0)
(8.367 0.0181902 0)
(8.36948 0.0180311 0)
(8.37194 0.0178185 0)
(8.37437 0.0175626 0)
(8.37679 0.0172724 0)
(8.37919 0.0169555 0)
(8.38158 0.0166188 0)
(8.38397 0.0162675 0)
(8.38636 0.015906 0)
(8.38877 0.0155372 0)
(8.3912 0.0151629 0)
(8.39367 0.0147836 0)
(8.39617 0.0143985 0)
(8.39873 0.0140063 0)
(8.40134 0.0136049 0)
(8.40401 0.0131922 0)
(8.40675 0.0127674 0)
(8.33304 0.00116393 0)
(8.33345 0.00346162 0)
(8.33435 0.00564681 0)
(8.33564 0.00765619 0)
(8.33726 0.00945481 0)
(8.33913 0.0110281 0)
(8.34122 0.012373 0)
(8.34345 0.0134973 0)
(8.3458 0.0144152 0)
(8.34822 0.0151439 0)
(8.35068 0.0157017 0)
(8.35318 0.0161069 0)
(8.35569 0.0163773 0)
(8.35819 0.0165295 0)
(8.36068 0.0165787 0)
(8.36316 0.016539 0)
(8.36562 0.0164232 0)
(8.36805 0.0162425 0)
(8.37047 0.0160071 0)
(8.37287 0.0157261 0)
(8.37525 0.0154072 0)
(8.37762 0.0150572 0)
(8.37999 0.0146816 0)
(8.38236 0.014285 0)
(8.38473 0.0138706 0)
(8.38713 0.0134406 0)
(8.38954 0.0129961 0)
(8.39198 0.0125371 0)
(8.39447 0.0120624 0)
(8.397 0.0115704 0)
(8.39958 0.0110588 0)
(8.40223 0.0105249 0)
(8.40493 0.00996703 0)
(8.33304 0.00104714 0)
(8.33343 0.00311102 0)
(8.33427 0.00507082 0)
(8.33549 0.00687545 0)
(8.337 0.00849457 0)
(8.33877 0.00991388 0)
(8.34074 0.0111295 0)
(8.34287 0.0121464 0)
(8.34511 0.0129759 0)
(8.34742 0.013632 0)
(8.3498 0.0141302 0)
(8.35221 0.0144863 0)
(8.35463 0.0147158 0)
(8.35706 0.0148333 0)
(8.35949 0.0148524 0)
(8.3619 0.0147855 0)
(8.3643 0.0146438 0)
(8.36669 0.0144376 0)
(8.36906 0.0141756 0)
(8.37142 0.0138658 0)
(8.37376 0.0135149 0)
(8.3761 0.0131286 0)
(8.37844 0.0127114 0)
(8.38078 0.012267 0)
(8.38313 0.0117977 0)
(8.38549 0.0113051 0)
(8.38787 0.0107896 0)
(8.39029 0.0102505 0)
(8.39274 0.00968661 0)
(8.39523 0.0090957 0)
(8.39778 0.00847509 0)
(8.40038 0.00782148 0)
(8.40304 0.00713274 0)
(8.33303 0.000933233 0)
(8.3334 0.00277113 0)
(8.3342 0.00451437 0)
(8.33534 0.00612066 0)
(8.33677 0.00756382 0)
(8.33844 0.0088302 0)
(8.34031 0.0099153 0)
(8.34233 0.0108223 0)
(8.34447 0.0115597 0)
(8.34669 0.012139 0)
(8.34897 0.0125731 0)
(8.35129 0.0128756 0)
(8.35364 0.0130598 0)
(8.356 0.0131383 0)
(8.35835 0.0131231 0)
(8.36071 0.013025 0)
(8.36305 0.0128539 0)
(8.36539 0.0126185 0)
(8.36771 0.0123267 0)
(8.37002 0.0119851 0)
(8.37233 0.0115994 0)
(8.37463 0.0111743 0)
(8.37693 0.0107135 0)
(8.37923 0.0102196 0)
(8.38154 0.00969447 0)
(8.38387 0.00913876 0)
(8.38621 0.00855234 0)
(8.38859 0.0079342 0)
(8.39099 0.00728253 0)
(8.39344 0.00659488 0)
(8.39593 0.00586814 0)
(8.39846 0.00509853 0)
(8.40106 0.00428362 0)
(8.33303 0.000822441 0)
(8.33338 0.00244155 0)
(8.33413 0.00397581 0)
(8.33521 0.00538949 0)
(8.33655 0.00666001 0)
(8.33814 0.00777466 0)
(8.33991 0.00872855 0)
(8.34183 0.00952343 0)
(8.34388 0.0101657 0)
(8.34601 0.0106647 0)
(8.3482 0.011031 0)
(8.35044 0.0112759 0)
(8.35271 0.0114108 0)
(8.355 0.0114466 0)
(8.35729 0.0113934 0)
(8.35958 0.0112606 0)
(8.36187 0.0110568 0)
(8.36415 0.0107893 0)
(8.36642 0.0104649 0)
(8.36868 0.010089 0)
(8.37094 0.00966645 0)
(8.3732 0.00920092 0)
(8.37545 0.00869522 0)
(8.37771 0.00815128 0)
(8.37998 0.00757009 0)
(8.38226 0.00695182 0)
(8.38455 0.00629579 0)
(8.38687 0.00560054 0)
(8.38922 0.00486394 0)
(8.39161 0.00408318 0)
(8.39403 0.00325486 0)
(8.39649 0.00237489 0)
(8.399 0.00144068 0)
(8.33303 0.000714763 0)
(8.33336 0.00212169 0)
(8.33407 0.00345353 0)
(8.33508 0.00467962 0)
(8.33636 0.00578044 0)
(8.33786 0.00674434 0)
(8.33954 0.00756635 0)
(8.34138 0.00824715 0)
(8.34333 0.0087915 0)
(8.34538 0.00920667 0)
(8.34749 0.00950136 0)
(8.34965 0.00968493 0)
(8.35185 0.00976686 0)
(8.35406 0.00975629 0)
(8.35629 0.00966183 0)
(8.35852 0.00949136 0)
(8.36075 0.00925199 0)
(8.36297 0.00895002 0)
(8.36519 0.00859084 0)
(8.3674 0.00817904 0)
(8.36961 0.00771832 0)
(8.37181 0.00721153 0)
(8.37401 0.00666068 0)
(8.37622 0.00606695 0)
(8.37844 0.00543072 0)
(8.38066 0.0047516 0)
(8.3829 0.00402845 0)
(8.38516 0.00325946 0)
(8.38744 0.00244217 0)
(8.38975 0.00157353 0)
(8.39209 0.000649961 0)
(8.39447 -0.000332828 0)
(8.39688 -0.00137735 0)
(8.33303 0.000610072 0)
(8.33334 0.00181089 0)
(8.33401 0.00294611 0)
(8.33497 0.00398917 0)
(8.33618 0.00492322 0)
(8.3376 0.00573776 0)
(8.33921 0.00642792 0)
(8.34096 0.00699362 0)
(8.34284 0.00743825 0)
(8.3448 0.0077674 0)
(8.34684 0.00798795 0)
(8.34892 0.00810746 0)
(8.35105 0.00813369 0)
(8.35319 0.00807412 0)
(8.35535 0.00793582 0)
(8.35752 0.00772527 0)
(8.35969 0.00744829 0)
(8.36185 0.00710994 0)
(8.36401 0.00671456 0)
(8.36617 0.00626571 0)
(8.36832 0.00576617 0)
(8.37047 0.00521798 0)
(8.37262 0.00462242 0)
(8.37477 0.00398 0)
(8.37692 0.00329054 0)
(8.37908 0.00255318 0)
(8.38125 0.00176638 0)
(8.38344 0.000928036 0)
(8.38564 3.54474e-05 0)
(8.38787 -0.000914578 0)
(8.39012 -0.00192572 0)
(8.39239 -0.00300231 0)
(8.3947 -0.00414667 0)
(8.33303 0.000508162 0)
(8.33332 0.0015083 0)
(8.33395 0.00245172 0)
(8.33487 0.00331515 0)
(8.33601 0.00408407 0)
(8.33737 0.00474925 0)
(8.33891 0.00530617 0)
(8.34059 0.00575435 0)
(8.34238 0.00609617 0)
(8.34427 0.00633589 0)
(8.34624 0.00647877 0)
(8.34825 0.00653081 0)
(8.3503 0.00649822 0)
(8.35238 0.00638694 0)
(8.35448 0.0062025 0)
(8.35658 0.00595001 0)
(8.35869 0.00563399 0)
(8.36079 0.00525835 0)
(8.3629 0.00482634 0)
(8.365 0.00434054 0)
(8.36709 0.00380287 0)
(8.36918 0.00321458 0)
(8.37126 0.00257624 0)
(8.37335 0.00188779 0)
(8.37543 0.00114854 0)
(8.37752 0.000357215 0)
(8.37962 -0.000488037 0)
(8.38172 -0.00138957 0)
(8.38384 -0.00235024 0)
(8.38597 -0.0033733 0)
(8.38811 -0.00446242 0)
(8.39028 -0.00562185 0)
(8.39246 -0.00685363 0)
(8.33303 0.000408837 0)
(8.33331 0.00121354 0)
(8.33391 0.0019702 0)
(8.33477 0.00265851 0)
(8.33587 0.00326609 0)
(8.33716 0.00378494 0)
(8.33863 0.00421088 0)
(8.34024 0.00454303 0)
(8.34197 0.00478286 0)
(8.34379 0.00493341 0)
(8.34568 0.0049983 0)
(8.34763 0.0049821 0)
(8.34962 0.00488952 0)
(8.35163 0.00472505 0)
(8.35367 0.00449294 0)
(8.35571 0.00419706 0)
(8.35776 0.00384076 0)
(8.3598 0.0034268 0)
(8.36184 0.0029575 0)
(8.36388 0.00243451 0)
(8.36591 0.00185902 0)
(8.36793 0.00123156 0)
(8.36995 0.000552112 0)
(8.37197 -0.000179922 0)
(8.37398 -0.000965658 0)
(8.37599 -0.00180672 0)
(8.378 -0.00270519 0)
(8.38002 -0.00366362 0)
(8.38203 -0.00468492 0)
(8.38406 -0.00577235 0)
(8.38609 -0.0069295 0)
(8.38813 -0.00816043 0)
(8.39018 -0.00946686 0)
(8.33303 0.000311735 0)
(8.33329 0.000924565 0)
(8.33386 0.001496 0)
(8.33469 0.00200811 0)
(8.33573 0.00245079 0)
(8.33697 0.00281794 0)
(8.33838 0.00310649 0)
(8.33993 0.00331596 0)
(8.3416 0.00344744 0)
(8.34335 0.0035031 0)
(8.34518 0.00348504 0)
(8.34707 0.00339714 0)
(8.349 0.00324261 0)
(8.35095 0.0030241 0)
(8.35292 0.00274424 0)
(8.3549 0.00240563 0)
(8.35689 0.00201056 0)
(8.35887 0.00156053 0)
(8.36085 0.00105676 0)
(8.36282 0.000500161 0)
(8.36478 -0.000108964 0)
(8.36674 -0.000770766 0)
(8.36869 -0.00148585 0)
(8.37063 -0.00225526 0)
(8.37256 -0.00308049 0)
(8.37448 -0.00396345 0)
(8.37641 -0.00490643 0)
(8.37832 -0.00591204 0)
(8.38024 -0.00698324 0)
(8.38215 -0.0081232 0)
(8.38406 -0.00933533 0)
(8.38597 -0.0106235 0)
(8.38788 -0.0119889 0)
(8.33302 0.000217211 0)
(8.33328 0.000645471 0)
(8.33382 0.0010415 0)
(8.3346 0.00138935 0)
(8.3356 0.00168028 0)
(8.33679 0.0019088 0)
(8.33815 0.00207191 0)
(8.33965 0.00216876 0)
(8.34126 0.00219991 0)
(8.34296 0.0021675 0)
(8.34473 0.00206944 0)
(8.34656 0.00190963 0)
(8.34843 0.00169115 0)
(8.35032 0.00141588 0)
(8.35224 0.0010854 0)
(8.35416 0.000700933 0)
(8.35609 0.00026344 0)
(8.35801 -0.000225994 0)
(8.35992 -0.0007669 0)
(8.36183 -0.00135918 0)
(8.36373 -0.00200323 0)
(8.36561 -0.00269977 0)
(8.36748 -0.00344989 0)
(8.36934 -0.00425503 0)
(8.37119 -0.00511702 0)
(8.37302 -0.00603797 0)
(8.37485 -0.00702031 0)
(8.37666 -0.00806672 0)
(8.37846 -0.0091801 0)
(8.38026 -0.0103635 0)
(8.38204 -0.0116203 0)
(8.38382 -0.0129538 0)
(8.38558 -0.0143651 0)
(8.33302 0.000122675 0)
(8.33327 0.000359461 0)
(8.33379 0.000563615 0)
(8.33455 0.000722672 0)
(8.33551 0.000833036 0)
(8.33665 0.000893927 0)
(8.33796 0.000905412 0)
(8.33941 0.000867815 0)
(8.34097 0.000781515 0)
(8.34262 0.000645845 0)
(8.34433 0.00046565 0)
(8.34611 0.000238184 0)
(8.34792 -3.79486e-05 0)
(8.34976 -0.000362354 0)
(8.35162 -0.000734685 0)
(8.35348 -0.00115506 0)
(8.35534 -0.00162377 0)
(8.3572 -0.00214084 0)
(8.35906 -0.00270674 0)
(8.3609 -0.00332234 0)
(8.36272 -0.00398866 0)
(8.36453 -0.00470696 0)
(8.36633 -0.00547879 0)
(8.3681 -0.00630599 0)
(8.36986 -0.00719061 0)
(8.3716 -0.00813494 0)
(8.37332 -0.00914147 0)
(8.37503 -0.0102129 0)
(8.37672 -0.011352 0)
(8.37839 -0.0125616 0)
(8.38004 -0.0138448 0)
(8.38167 -0.0152047 0)
(8.38328 -0.016642 0)
(8.33302 3.80888e-05 0)
(8.33324 0.000119562 0)
(8.33372 0.000184015 0)
(8.33444 0.000214802 0)
(8.33536 0.000204929 0)
(8.33647 0.000151302 0)
(8.33775 5.30807e-05 0)
(8.33916 -8.92091e-05 0)
(8.34068 -0.000274552 0)
(8.3423 -0.000503032 0)
(8.34398 -0.000769289 0)
(8.34571 -0.00107587 0)
(8.34748 -0.00142423 0)
(8.34928 -0.00181429 0)
(8.35108 -0.00224621 0)
(8.35289 -0.00272039 0)
(8.3547 -0.0032374 0)
(8.3565 -0.00379838 0)
(8.35829 -0.00440448 0)
(8.36006 -0.00505704 0)
(8.36181 -0.00575757 0)
(8.36355 -0.00650781 0)
(8.36526 -0.00730971 0)
(8.36695 -0.00816539 0)
(8.36862 -0.00907715 0)
(8.37026 -0.0100474 0)
(8.37188 -0.0110788 0)
(8.37347 -0.012174 0)
(8.37504 -0.0133357 0)
(8.37658 -0.0145667 0)
(8.37809 -0.0158698 0)
(8.37958 -0.0172479 0)
(8.38104 -0.0187013 0)
(8.33303 -6.42886e-05 0)
(8.33326 -0.000213323 0)
(8.33375 -0.000404843 0)
(8.33444 -0.000636881 0)
(8.33534 -0.000895025 0)
(8.33641 -0.00116817 0)
(8.33764 -0.00145112 0)
(8.339 -0.001743 0)
(8.34048 -0.00204571 0)
(8.34204 -0.00236189 0)
(8.34368 -0.0026992 0)
(8.34536 -0.00305984 0)
(8.34708 -0.0034465 0)
(8.34882 -0.00386264 0)
(8.35057 -0.00431147 0)
(8.35233 -0.00479578 0)
(8.35408 -0.0053181 0)
(8.35582 -0.00588081 0)
(8.35755 -0.0064861 0)
(8.35925 -0.0071361 0)
(8.36094 -0.00783294 0)
(8.3626 -0.00857881 0)
(8.36423 -0.00937595 0)
(8.36583 -0.0102267 0)
(8.36741 -0.0111333 0)
(8.36895 -0.0120983 0)
(8.37046 -0.0131242 0)
(8.37194 -0.0142135 0)
(8.37339 -0.0153687 0)
(8.3748 -0.0165922 0)
(8.37618 -0.0178865 0)
(8.37752 -0.0192542 0)
(8.37883 -0.0206951 0)
(8.333 -0.0001095 0)
(8.33315 -0.000288344 0)
(8.33355 -0.000469525 0)
(8.3342 -0.000689583 0)
(8.33507 -0.000960443 0)
(8.33614 -0.0012803 0)
(8.33739 -0.00164102 0)
(8.33876 -0.00203384 0)
(8.34025 -0.00245225 0)
(8.34182 -0.00289226 0)
(8.34345 -0.00335245 0)
(8.34511 -0.00383183 0)
(8.34681 -0.00433125 0)
(8.34852 -0.00485266 0)
(8.35024 -0.00539827 0)
(8.35195 -0.00597051 0)
(8.35365 -0.0065719 0)
(8.35534 -0.00720511 0)
(8.357 -0.00787281 0)
(8.35864 -0.00857771 0)
(8.36025 -0.00932255 0)
(8.36183 -0.0101101 0)
(8.36338 -0.010943 0)
(8.36489 -0.011824 0)
(8.36637 -0.012756 0)
(8.36781 -0.0137415 0)
(8.36921 -0.0147834 0)
(8.37057 -0.0158843 0)
(8.37189 -0.0170466 0)
(8.37317 -0.018273 0)
(8.37441 -0.0195657 0)
(8.3756 -0.0209272 0)
(8.37675 -0.0223574 0)
(8.33306 -0.000309181 0)
(8.33335 -0.000996411 0)
(8.33381 -0.00175764 0)
(8.33444 -0.00252449 0)
(8.33525 -0.00324142 0)
(8.33623 -0.00388884 0)
(8.33738 -0.00446874 0)
(8.33867 -0.00499227 0)
(8.34008 -0.00547355 0)
(8.34159 -0.00592669 0)
(8.34315 -0.00636489 0)
(8.34477 -0.00679939 0)
(8.34642 -0.0072396 0)
(8.34809 -0.00769337 0)
(8.34976 -0.00816717 0)
(8.35143 -0.00866634 0)
(8.35308 -0.00919536 0)
(8.35472 -0.00975807 0)
(8.35633 -0.0103578 0)
(8.35791 -0.0109976 0)
(8.35946 -0.0116801 0)
(8.36097 -0.0124079 0)
(8.36244 -0.0131836 0)
(8.36387 -0.0140094 0)
(8.36527 -0.0148877 0)
(8.36661 -0.0158207 0)
(8.36791 -0.0168107 0)
(8.36917 -0.0178599 0)
(8.37037 -0.0189703 0)
(8.37153 -0.0201438 0)
(8.37263 -0.0213822 0)
(8.37368 -0.0226876 0)
(8.37468 -0.0240594 0)
(8.33294 -6.44605e-05 0)
(8.33286 -0.00010437 0)
(8.33309 -0.000209864 0)
(8.33368 -0.000505429 0)
(8.33459 -0.00099581 0)
(8.33573 -0.00162414 0)
(8.33704 -0.00233105 0)
(8.33848 -0.00307468 0)
(8.34 -0.00382919 0)
(8.34158 -0.00457978 0)
(8.3432 -0.00531938 0)
(8.34485 -0.00604605 0)
(8.3465 -0.00676116 0)
(8.34815 -0.00746814 0)
(8.34979 -0.00817151 0)
(8.35142 -0.00887625 0)
(8.35302 -0.00958749 0)
(8.35459 -0.0103102 0)
(8.35613 -0.0110493 0)
(8.35764 -0.0118094 0)
(8.35911 -0.0125947 0)
(8.36053 -0.0134093 0)
(8.36191 -0.0142572 0)
(8.36324 -0.0151418 0)
(8.36453 -0.0160667 0)
(8.36576 -0.0170349 0)
(8.36695 -0.0180496 0)
(8.36808 -0.0191133 0)
(8.36916 -0.0202289 0)
(8.37018 -0.0213985 0)
(8.37114 -0.0226244 0)
(8.37204 -0.0239086 0)
(8.37289 -0.025251 0)
(8.33317 -0.000769065 0)
(8.33367 -0.00264976 0)
(8.33407 -0.00459347 0)
(8.33447 -0.006249 0)
(8.33504 -0.00754436 0)
(8.33584 -0.00853563 0)
(8.33688 -0.00929784 0)
(8.3381 -0.0098956 0)
(8.33946 -0.0103809 0)
(8.34094 -0.0107943 0)
(8.34249 -0.0111666 0)
(8.34408 -0.0115209 0)
(8.34571 -0.0118737 0)
(8.34735 -0.0122374 0)
(8.34898 -0.0126208 0)
(8.35059 -0.0130305 0)
(8.35218 -0.0134714 0)
(8.35374 -0.0139471 0)
(8.35526 -0.0144607 0)
(8.35674 -0.0150146 0)
(8.35817 -0.0156109 0)
(8.35956 -0.0162515 0)
(8.36089 -0.0169381 0)
(8.36217 -0.0176724 0)
(8.36339 -0.018456 0)
(8.36456 -0.0192905 0)
(8.36566 -0.0201772 0)
(8.3667 -0.0211178 0)
(8.36768 -0.0221134 0)
(8.3686 -0.0231654 0)
(8.36945 -0.024275 0)
(8.37024 -0.0254433 0)
(8.37096 -0.0266696 0)
(8.33263 0.000576809 0)
(8.33174 0.0019999 0)
(8.33175 0.00288766 0)
(8.3326 0.00281584 0)
(8.33387 0.00198587 0)
(8.33535 0.000759838 0)
(8.33691 -0.000626561 0)
(8.33853 -0.00204949 0)
(8.34017 -0.0034426 0)
(8.34182 -0.00477058 0)
(8.34346 -0.00601882 0)
(8.34509 -0.00718575 0)
(8.3467 -0.00827694 0)
(8.34828 -0.00930148 0)
(8.34984 -0.01027 0)
(8.35136 -0.0111934 0)
(8.35285 -0.0120822 0)
(8.3543 -0.0129463 0)
(8.3557 -0.0137948 0)
(8.35706 -0.0146358 0)
(8.35838 -0.0154766 0)
(8.35964 -0.0163238 0)
(8.36085 -0.0171832 0)
(8.362 -0.0180602 0)
(8.3631 -0.0189594 0)
(8.36414 -0.0198851 0)
(8.36511 -0.020841 0)
(8.36602 -0.0218305 0)
(8.36687 -0.0228565 0)
(8.36765 -0.0239218 0)
(8.36836 -0.0250285 0)
(8.369 -0.0261787 0)
(8.36957 -0.0273725 0)
(8.33358 -0.00195264 0)
(8.33467 -0.00687951 0)
(8.33443 -0.0116506 0)
(8.33373 -0.0148221 0)
(8.3335 -0.0165862 0)
(8.33391 -0.0175348 0)
(8.3348 -0.0179957 0)
(8.336 -0.0181632 0)
(8.33743 -0.0181722 0)
(8.33899 -0.0181107 0)
(8.34065 -0.0180333 0)
(8.34235 -0.0179736 0)
(8.34406 -0.0179509 0)
(8.34577 -0.0179763 0)
(8.34746 -0.0180553 0)
(8.34911 -0.0181901 0)
(8.35072 -0.0183812 0)
(8.35228 -0.0186281 0)
(8.35379 -0.0189296 0)
(8.35524 -0.0192846 0)
(8.35662 -0.0196919 0)
(8.35795 -0.0201507 0)
(8.35921 -0.0206602 0)
(8.3604 -0.0212197 0)
(8.36152 -0.0218291 0)
(8.36257 -0.0224879 0)
(8.36355 -0.0231964 0)
(8.36446 -0.0239544 0)
(8.3653 -0.0247622 0)
(8.36605 -0.0256199 0)
(8.36673 -0.0265277 0)
(8.36734 -0.0274861 0)
(8.36786 -0.0284939 0)
(8.33162 0.0036967 0)
(8.32827 0.0102543 0)
(8.32843 0.0134219 0)
(8.33099 0.0133779 0)
(8.33361 0.0113353 0)
(8.33581 0.00850592 0)
(8.33779 0.00551921 0)
(8.33961 0.00261884 0)
(8.3413 -8.35517e-05 0)
(8.34291 -0.00254049 0)
(8.34445 -0.00474707 0)
(8.34595 -0.00671985 0)
(8.34742 -0.00848378 0)
(8.34886 -0.0100664 0)
(8.35028 -0.0114949 0)
(8.35168 -0.0127944 0)
(8.35304 -0.0139877 0)
(8.35438 -0.0150944 0)
(8.35569 -0.0161321 0)
(8.35696 -0.0171155 0)
(8.35819 -0.0180577 0)
(8.35938 -0.0189697 0)
(8.36052 -0.0198612 0)
(8.36161 -0.0207403 0)
(8.36264 -0.0216142 0)
(8.36361 -0.0224892 0)
(8.36452 -0.0233706 0)
(8.36536 -0.024263 0)
(8.36613 -0.0251705 0)
(8.36684 -0.0260964 0)
(8.36746 -0.0270437 0)
(8.36802 -0.0280148 0)
(8.36849 -0.0290108 0)
(8.3343 -0.00642616 0)
(8.33463 -0.0206611 0)
(8.33074 -0.0298759 0)
(8.32674 -0.0338507 0)
(8.32483 -0.0347305 0)
(8.32492 -0.0341682 0)
(8.32611 -0.0329759 0)
(8.32785 -0.0315515 0)
(8.32994 -0.0301174 0)
(8.33222 -0.0287906 0)
(8.3346 -0.0276229 0)
(8.33702 -0.0266313 0)
(8.33943 -0.0258147 0)
(8.34182 -0.0251633 0)
(8.34417 -0.024663 0)
(8.34645 -0.024299 0)
(8.34868 -0.0240567 0)
(8.35083 -0.0239227 0)
(8.3529 -0.0238854 0)
(8.3549 -0.0239346 0)
(8.35681 -0.0240615 0)
(8.35864 -0.0242589 0)
(8.36038 -0.0245208 0)
(8.36203 -0.024842 0)
(8.36359 -0.0252185 0)
(8.36506 -0.0256471 0)
(8.36644 -0.0261249 0)
(8.36772 -0.0266498 0)
(8.36891 -0.02722 0)
(8.36999 -0.0278342 0)
(8.37099 -0.0284912 0)
(8.37188 -0.0291904 0)
(8.37269 -0.0299297 0)
(8.32884 0.0225995 0)
(8.32235 0.0427842 0)
(8.32668 0.0440222 0)
(8.33332 0.0380742 0)
(8.33784 0.030735 0)
(8.3407 0.023597 0)
(8.34301 0.0169727 0)
(8.34521 0.0110374 0)
(8.34742 0.00584669 0)
(8.3497 0.00135236 0)
(8.35208 -0.00252605 0)
(8.35456 -0.00587078 0)
(8.35711 -0.00875992 0)
(8.35972 -0.0112644 0)
(8.36236 -0.0134462 0)
(8.365 -0.0153581 0)
(8.36764 -0.017045 0)
(8.37024 -0.0185447 0)
(8.3728 -0.019889 0)
(8.37531 -0.0211046 0)
(8.37774 -0.022214 0)
(8.3801 -0.0232361 0)
(8.38237 -0.0241871 0)
(8.38455 -0.0250804 0)
(8.38663 -0.0259276 0)
(8.3886 -0.0267385 0)
(8.39048 -0.0275217 0)
(8.39224 -0.0282844 0)
(8.39389 -0.0290328 0)
(8.39543 -0.0297724 0)
(8.39685 -0.0305079 0)
(8.39816 -0.0312432 0)
(8.39935 -0.0319821 0)
(8.32436 -0.0380245 0)
(8.29386 -0.0683034 0)
(8.27216 -0.0716649 0)
(8.26669 -0.0685523 0)
(8.27357 -0.0641881 0)
(8.28618 -0.0593494 0)
(8.30091 -0.0546592 0)
(8.3162 -0.0504767 0)
(8.3312 -0.0468628 0)
(8.34546 -0.0437924 0)
(8.35877 -0.0412207 0)
(8.37107 -0.0390887 0)
(8.38237 -0.0373347 0)
(8.39271 -0.0359023 0)
(8.40216 -0.0347418 0)
(8.41077 -0.0338105 0)
(8.41861 -0.0330725 0)
(8.42575 -0.0324978 0)
(8.43224 -0.0320618 0)
(8.43814 -0.0317438 0)
(8.44349 -0.0315273 0)
(8.44833 -0.0313984 0)
(8.45271 -0.031346 0)
(8.45666 -0.031361 0)
(8.46022 -0.0314358 0)
(8.46341 -0.0315642 0)
(8.46626 -0.0317413 0)
(8.46879 -0.031963 0)
(8.47103 -0.0322257 0)
(8.47299 -0.0325267 0)
(8.4747 -0.0328635 0)
(8.47616 -0.033234 0)
(8.47741 -0.033635 0)
(8.34002 0.156991 0)
(8.38199 0.149001 0)
(8.4025 0.103388 0)
(8.39944 0.0645118 0)
(8.38349 0.0358671 0)
(8.36081 0.0154979 0)
(8.33427 0.00106629 0)