/*--------------------------------*- C++ -*----------------------------------*\
| =========                 |                                                 |
| \\      /  F ield         | OpenFOAM: The Open Source CFD Toolbox           |
|  \\    /   O peration     | Version:  2.1.1                                 |
|   \\  /    A nd           | Web:      www.OpenFOAM.org                      |
|    \\/     M anipulation  |                                                 |
\*---------------------------------------------------------------------------*/
FoamFile
{
    version     2.0;
    format      ascii;
    class       volScalarField;
    location    "0.13";
    object      nuSgs;
}
// * * * * * * * * * * * * * * * * * * * * * * * * * * * * * * * * * * * * * //

dimensions      [0 2 -1 0 0 0 0];

internalField   nonuniform List<scalar> 
6820
(
0.000556015
0.000457396
0.000368089
0.000306015
0.000268749
0.000243049
0.000224107
0.000209595
0.000197851
0.000187969
0.000179433
0.000171911
0.000165181
0.000159085
0.000153509
0.000148367
0.00014359
0.000139127
0.000134935
0.000130978
0.00012723
0.000123664
0.000120262
0.000117005
0.000113879
0.000110871
0.00010797
0.00010517
0.000102457
9.98532e-05
9.73143e-05
9.48313e-05
9.20861e-05
0.000103502
0.000170676
0.000223673
0.000240043
0.000235278
0.0002249
0.000213183
0.000201875
0.000191616
0.000182427
0.000174187
0.000166765
0.000160035
0.000153897
0.000148263
0.000143066
0.000138247
0.000133757
0.000129556
0.000125609
0.000121888
0.000118367
0.000115025
0.000111845
0.000108809
0.000105904
0.000103119
0.000100437
9.78634e-05
9.53358e-05
9.29882e-05
9.03964e-05
8.88903e-05
3.67746e-05
2.84713e-05
4.56439e-05
8.23607e-05
0.000108037
0.000123667
0.000132127
0.000136008
0.000137135
0.000136581
0.000134988
0.000132753
0.000130126
0.000127273
0.000124301
0.000121283
0.000118264
0.000115278
0.000112345
0.000109478
0.000106687
0.000103974
0.000101343
9.87939e-05
9.63252e-05
9.39353e-05
9.16219e-05
8.93798e-05
8.72088e-05
8.5085e-05
8.30296e-05
8.08985e-05
7.89302e-05
2.07371e-05
2.86785e-05
2.65458e-05
1.50541e-05
3.63985e-06
1.39477e-05
2.5829e-05
3.57065e-05
4.36816e-05
5.00268e-05
5.50161e-05
5.88929e-05
6.18589e-05
6.40723e-05
6.56675e-05
6.67561e-05
6.74296e-05
6.77637e-05
6.78205e-05
6.76515e-05
6.7299e-05
6.67983e-05
6.61783e-05
6.54633e-05
6.46731e-05
6.38243e-05
6.29305e-05
6.20015e-05
6.10473e-05
6.00676e-05
5.90755e-05
5.80705e-05
5.71309e-05
1.44218e-05
1.75784e-05
2.2598e-05
2.42945e-05
2.39672e-05
2.19848e-05
1.9086e-05
1.58098e-05
1.23899e-05
8.97761e-06
5.6823e-06
2.5895e-06
7.25224e-07
3.14738e-06
5.56781e-06
7.76505e-06
9.73572e-06
1.14896e-05
1.30408e-05
1.44047e-05
1.55975e-05
1.66351e-05
1.7533e-05
1.83056e-05
1.89666e-05
1.95283e-05
2.0002e-05
2.03975e-05
2.07241e-05
2.09886e-05
2.12e-05
2.1379e-05
2.1531e-05
1.09226e-05
1.2491e-05
1.38112e-05
1.43205e-05
1.51076e-05
1.57499e-05
1.61306e-05
1.63416e-05
1.63858e-05
1.62679e-05
1.60114e-05
1.564e-05
1.51767e-05
1.46365e-05
1.40388e-05
1.34012e-05
1.27391e-05
1.20655e-05
1.13907e-05
1.07228e-05
1.00678e-05
9.43037e-06
8.81349e-06
8.21924e-06
7.64881e-06
7.10279e-06
6.58121e-06
6.084e-06
5.61018e-06
5.15848e-06
4.72586e-06
4.30012e-06
3.88263e-06
8.24829e-06
9.42244e-06
1.0235e-05
1.00296e-05
9.83886e-06
9.66103e-06
9.47879e-06
9.39406e-06
9.39537e-06
9.4382e-06
9.49527e-06
9.54846e-06
9.58619e-06
9.60605e-06
9.60543e-06
9.58321e-06
9.53966e-06
9.47597e-06
9.39381e-06
9.29516e-06
9.18209e-06
9.05671e-06
8.92109e-06
8.77723e-06
8.62706e-06
8.47241e-06
8.31496e-06
8.15636e-06
7.9976e-06
7.83965e-06
7.68163e-06
7.52295e-06
7.36414e-06
6.36608e-06
7.40474e-06
8.20363e-06
8.06211e-06
7.74856e-06
7.40673e-06
7.02741e-06
6.70169e-06
6.44826e-06
6.24642e-06
6.08339e-06
5.9501e-06
5.83761e-06
5.73929e-06
5.65083e-06
5.56913e-06
5.49172e-06
5.41674e-06
5.34285e-06
5.26914e-06
5.19503e-06
5.12021e-06
5.0446e-06
4.96832e-06
4.89162e-06
4.81488e-06
4.7385e-06
4.66295e-06
4.58838e-06
4.51497e-06
4.44195e-06
4.36943e-06
4.29777e-06
5.00737e-06
5.85635e-06
6.52953e-06
6.51743e-06
6.34563e-06
6.13517e-06
5.84964e-06
5.56105e-06
5.30767e-06
5.08573e-06
4.89044e-06
4.71835e-06
4.56462e-06
4.42511e-06
4.29694e-06
4.17794e-06
4.06639e-06
3.96098e-06
3.86073e-06
3.76488e-06
3.67285e-06
3.58416e-06
3.49851e-06
3.41564e-06
3.33541e-06
3.25771e-06
3.18243e-06
3.10945e-06
3.03842e-06
2.96895e-06
2.90014e-06
2.83151e-06
2.76345e-06
4.0037e-06
4.70672e-06
5.29705e-06
5.36097e-06
5.25381e-06
5.10205e-06
4.88284e-06
4.65078e-06
4.44328e-06
4.25933e-06
4.09438e-06
3.9462e-06
3.81173e-06
3.68802e-06
3.57307e-06
3.46542e-06
3.36395e-06
3.26775e-06
3.17611e-06
3.08848e-06
3.0044e-06
2.9235e-06
2.84552e-06
2.77023e-06
2.69745e-06
2.62701e-06
2.55871e-06
2.49228e-06
2.42727e-06
2.36315e-06
2.29905e-06
2.23411e-06
2.1685e-06
3.2462e-06
3.83606e-06
4.35508e-06
4.45896e-06
4.39887e-06
4.29474e-06
4.13056e-06
3.94285e-06
3.76602e-06
3.60429e-06
3.45624e-06
3.32182e-06
3.19963e-06
3.08763e-06
2.98415e-06
2.8879e-06
2.79777e-06
2.71284e-06
2.63239e-06
2.55582e-06
2.48269e-06
2.41262e-06
2.3453e-06
2.28049e-06
2.21796e-06
2.15747e-06
2.09874e-06
2.04142e-06
1.98503e-06
1.92896e-06
1.8724e-06
1.81433e-06
1.75468e-06
2.66174e-06
3.16257e-06
3.62852e-06
3.76607e-06
3.75014e-06
3.68304e-06
3.55705e-06
3.40018e-06
3.24515e-06
3.10018e-06
2.96573e-06
2.84251e-06
2.72997e-06
2.62665e-06
2.53124e-06
2.44266e-06
2.35999e-06
2.28245e-06
2.20939e-06
2.14029e-06
2.07468e-06
2.0122e-06
1.95251e-06
1.89532e-06
1.84034e-06
1.78728e-06
1.7358e-06
1.68549e-06
1.63584e-06
1.58625e-06
1.53595e-06
1.48401e-06
1.43028e-06
2.20067e-06
2.6338e-06
3.06066e-06
3.22194e-06
3.23995e-06
3.20172e-06
3.10778e-06
2.98015e-06
2.84739e-06
2.71925e-06
2.5976e-06
2.48405e-06
2.37911e-06
2.28218e-06
2.19249e-06
2.1093e-06
2.03193e-06
1.9597e-06
1.89205e-06
1.82845e-06
1.76848e-06
1.71173e-06
1.65787e-06
1.60655e-06
1.55747e-06
1.51029e-06
1.46465e-06
1.42013e-06
1.37625e-06
1.33246e-06
1.28814e-06
1.24257e-06
1.19567e-06
1.82939e-06
2.21211e-06
2.61013e-06
2.79012e-06
2.83757e-06
2.82498e-06
2.75793e-06
2.65457e-06
2.53997e-06
2.42528e-06
2.31397e-06
2.20852e-06
2.11018e-06
2.01893e-06
1.93436e-06
1.85595e-06
1.78316e-06
1.71544e-06
1.65228e-06
1.59321e-06
1.53783e-06
1.48575e-06
1.43664e-06
1.39015e-06
1.34596e-06
1.30373e-06
1.26312e-06
1.22373e-06
1.18517e-06
1.147e-06
1.10879e-06
1.07016e-06
1.0312e-06
1.52441e-06
1.87113e-06
2.24878e-06
2.44428e-06
2.51644e-06
2.52532e-06
2.48019e-06
2.39736e-06
2.29907e-06
2.19694e-06
2.0955e-06
1.99775e-06
1.90543e-06
1.81909e-06
1.73868e-06
1.66399e-06
1.59467e-06
1.53032e-06
1.47053e-06
1.41492e-06
1.36309e-06
1.3147e-06
1.26942e-06
1.2269e-06
1.18684e-06
1.14892e-06
1.11282e-06
1.07822e-06
1.04482e-06
1.01235e-06
9.80582e-07
9.49459e-07
9.19255e-07
1.26904e-06
1.59201e-06
1.95613e-06
2.16501e-06
2.25849e-06
2.2865e-06
2.26056e-06
2.19583e-06
2.11204e-06
2.0209e-06
1.92786e-06
1.83648e-06
1.74906e-06
1.66663e-06
1.58953e-06
1.51779e-06
1.45125e-06
1.38962e-06
1.33258e-06
1.27979e-06
1.23092e-06
1.18563e-06
1.1436e-06
1.10454e-06
1.06815e-06
1.03415e-06
1.00227e-06
9.72285e-07
9.4399e-07
9.17273e-07
8.92087e-07
8.68644e-07
8.47331e-07
1.05123e-06
1.36119e-06
1.71763e-06
1.93859e-06
2.05073e-06
2.09583e-06
2.08659e-06
2.03753e-06
1.96654e-06
1.88527e-06
1.79984e-06
1.71433e-06
1.63141e-06
1.55252e-06
1.4783e-06
1.40901e-06
1.34467e-06
1.28513e-06
1.23016e-06
1.17951e-06
1.13289e-06
1.09001e-06
1.05059e-06
1.01436e-06
9.81064e-07
9.50463e-07
9.22354e-07
8.96574e-07
8.73021e-07
8.51691e-07
8.32652e-07
8.16251e-07
8.02866e-07
8.62183e-07
1.16906e-06
1.5229e-06
1.75504e-06
1.88371e-06
1.9443e-06
1.95005e-06
1.91505e-06
1.85572e-06
1.7835e-06
1.705e-06
1.62471e-06
1.54567e-06
1.46969e-06
1.39774e-06
1.3303e-06
1.26758e-06
1.20957e-06
1.15614e-06
1.10711e-06
1.06224e-06
1.02129e-06
9.84011e-07
9.50173e-07
9.19551e-07
8.91951e-07
8.67215e-07
8.45238e-07
8.25975e-07
8.09482e-07
7.95871e-07
7.85527e-07
7.78733e-07
6.95609e-07
1.00912e-06
1.3647e-06
1.60732e-06
1.75073e-06
1.82546e-06
1.84478e-06
1.8224e-06
1.77363e-06
1.70962e-06
1.6374e-06
1.5618e-06
1.4862e-06
1.41272e-06
1.34261e-06
1.27657e-06
1.21498e-06
1.15796e-06
1.10548e-06
1.05742e-06
1.01363e-06
9.73909e-07
9.38051e-07
9.05858e-07
8.77145e-07
8.51751e-07
8.29554e-07
8.10477e-07
7.94497e-07
7.81677e-07
7.72104e-07
7.661e-07
7.63812e-07
5.4753e-07
8.77631e-07
1.23824e-06
1.49062e-06
1.64717e-06
1.7348e-06
1.76649e-06
1.75559e-06
1.71652e-06
1.66016e-06
1.59377e-06
1.52252e-06
1.45006e-06
1.37879e-06
1.31021e-06
1.24525e-06
1.18443e-06
1.12802e-06
1.07607e-06
1.02857e-06
9.85392e-07
9.46405e-07
9.1144e-07
8.80331e-07
8.5292e-07
8.29071e-07
8.08675e-07
7.91664e-07
7.78009e-07
7.67749e-07
7.60921e-07
7.57787e-07
7.5834e-07
4.17017e-07
7.73401e-07
1.14073e-06
1.40184e-06
1.56999e-06
1.6693e-06
1.71225e-06
1.71178e-06
1.68153e-06
1.63211e-06
1.57095e-06
1.50345e-06
1.43352e-06
1.36384e-06
1.29613e-06
1.23153e-06
1.17073e-06
1.1141e-06
1.06182e-06
1.01395e-06
9.70434e-07
9.31186e-07
8.96078e-07
8.64976e-07
8.37745e-07
8.14262e-07
7.94425e-07
7.78156e-07
7.65402e-07
7.56156e-07
7.50384e-07
7.48237e-07
7.49601e-07
3.09399e-07
6.97826e-07
1.07107e-06
1.33937e-06
1.5175e-06
1.6273e-06
1.68054e-06
1.68962e-06
1.66757e-06
1.62471e-06
1.56858e-06
1.50477e-06
1.43741e-06
1.36937e-06
1.30261e-06
1.2384e-06
1.17758e-06
1.12064e-06
1.06786e-06
1.01935e-06
9.75129e-07
9.35146e-07
8.99316e-07
8.67534e-07
8.39687e-07
8.15665e-07
7.95367e-07
7.7871e-07
7.65616e-07
7.5605e-07
7.49927e-07
7.47382e-07
7.48149e-07
2.44506e-07
6.54336e-07
1.02939e-06
1.30268e-06
1.48901e-06
1.60797e-06
1.6703e-06
1.68778e-06
1.67281e-06
1.63545e-06
1.58325e-06
1.52199e-06
1.45599e-06
1.38834e-06
1.3212e-06
1.25605e-06
1.19387e-06
1.13528e-06
1.08064e-06
1.03015e-06
9.83885e-07
9.41844e-07
9.03971e-07
8.70185e-07
8.40389e-07
8.14479e-07
7.92352e-07
7.73911e-07
7.59057e-07
7.47713e-07
7.39741e-07
7.35176e-07
7.33735e-07
2.5462e-07
6.46996e-07
1.01683e-06
1.29234e-06
1.48512e-06
1.61212e-06
1.68284e-06
1.70834e-06
1.70044e-06
1.66889e-06
1.62122e-06
1.56326e-06
1.49945e-06
1.43302e-06
1.36628e-06
1.30082e-06
1.23774e-06
1.17777e-06
1.12136e-06
1.06877e-06
1.02014e-06
9.75528e-07
9.34913e-07
8.98251e-07
8.65471e-07
8.36492e-07
8.11223e-07
7.89575e-07
7.71448e-07
7.56772e-07
7.45397e-07
7.37439e-07
7.32431e-07
3.37196e-07
6.78327e-07
1.03495e-06
1.30952e-06
1.50658e-06
1.6398e-06
1.71702e-06
1.74838e-06
1.74515e-06
1.71686e-06
1.67103e-06
1.61366e-06
1.54937e-06
1.48161e-06
1.41286e-06
1.34488e-06
1.2789e-06
1.21573e-06
1.15589e-06
1.09971e-06
1.04736e-06
9.98905e-07
9.54362e-07
9.13694e-07
8.76837e-07
8.43715e-07
8.14241e-07
7.88324e-07
7.65861e-07
7.46765e-07
7.30869e-07
7.18198e-07
7.08381e-07
4.62355e-07
7.48083e-07
1.08553e-06
1.3566e-06
1.55682e-06
1.69626e-06
1.78088e-06
1.81975e-06
1.82347e-06
1.80108e-06
1.75988e-06
1.70578e-06
1.64344e-06
1.57637e-06
1.50718e-06
1.43777e-06
1.36951e-06
1.30334e-06
1.23991e-06
1.17963e-06
1.12277e-06
1.06945e-06
1.01976e-06
9.73676e-07
9.31186e-07
8.92234e-07
8.56754e-07
8.24677e-07
7.95918e-07
7.70435e-07
7.48077e-07
7.29058e-07
7.12705e-07
6.15202e-07
8.55176e-07
1.171e-06
1.43586e-06
1.63611e-06
1.77776e-06
1.86468e-06
1.90505e-06
1.90922e-06
1.88628e-06
1.84365e-06
1.78743e-06
1.72244e-06
1.6523e-06
1.57971e-06
1.50662e-06
1.43444e-06
1.36411e-06
1.2963e-06
1.23142e-06
1.16972e-06
1.11135e-06
1.05637e-06
1.00478e-06
9.5656e-07
9.11656e-07
8.70009e-07
8.31552e-07
7.96208e-07
7.6392e-07
7.34548e-07
7.08178e-07
6.84391e-07
7.93008e-07
9.97977e-07
1.29341e-06
1.5529e-06
1.75626e-06
1.90586e-06
2.00277e-06
2.05329e-06
2.06655e-06
2.05084e-06
2.01321e-06
1.95969e-06
1.89523e-06
1.82373e-06
1.74818e-06
1.67086e-06
1.59341e-06
1.51705e-06
1.4426e-06
1.37063e-06
1.3015e-06
1.23543e-06
1.17252e-06
1.11281e-06
1.05629e-06
1.00292e-06
9.52642e-07
9.05393e-07
8.61099e-07
8.19748e-07
7.8119e-07
7.45785e-07
7.12543e-07
1.00062e-06
1.18195e-06
1.45996e-06
1.70974e-06
1.9061e-06
2.04911e-06
2.13903e-06
2.18258e-06
2.18962e-06
2.16877e-06
2.12705e-06
2.07026e-06
2.00308e-06
1.92911e-06
1.85108e-06
1.77104e-06
1.69053e-06
1.61067e-06
1.53225e-06
1.45584e-06
1.38182e-06
1.31042e-06
1.24178e-06
1.17596e-06
1.11297e-06
1.05278e-06
9.95357e-07
9.4063e-07
8.88527e-07
8.38992e-07
7.91878e-07
7.47302e-07
7.04689e-07
1.24219e-06
1.40363e-06
1.67053e-06
1.92411e-06
2.1364e-06
2.30162e-06
2.4135e-06
2.47481e-06
2.4939e-06
2.47925e-06
2.43848e-06
2.37841e-06
2.3048e-06
2.22219e-06
2.13411e-06
2.04317e-06
1.95133e-06
1.85997e-06
1.77006e-06
1.68225e-06
1.59696e-06
1.51443e-06
1.4348e-06
1.35812e-06
1.28436e-06
1.21348e-06
1.14543e-06
1.08012e-06
1.01747e-06
9.57457e-07
8.99892e-07
8.45204e-07
7.91899e-07
1.53848e-06
1.69719e-06
1.9524e-06
2.18083e-06
2.36047e-06
2.49395e-06
2.58038e-06
2.62504e-06
2.63617e-06
2.62021e-06
2.58228e-06
2.52705e-06
2.45864e-06
2.38055e-06
2.29569e-06
2.20645e-06
2.11477e-06
2.02217e-06
1.9298e-06
1.83853e-06
1.74897e-06
1.66154e-06
1.57649e-06
1.49399e-06
1.41409e-06
1.33679e-06
1.26208e-06
1.18989e-06
1.12015e-06
1.05281e-06
9.87718e-07
9.25009e-07
8.63809e-07
1.8814e-06
2.01853e-06
2.29047e-06
2.57506e-06
2.82702e-06
3.02376e-06
3.15046e-06
3.21169e-06
3.22102e-06
3.19096e-06
3.1318e-06
3.05213e-06
2.95865e-06
2.85629e-06
2.74862e-06
2.63819e-06
2.52684e-06
2.41587e-06
2.30618e-06
2.19841e-06
2.09301e-06
1.99024e-06
1.89029e-06
1.79324e-06
1.69911e-06
1.60789e-06
1.51956e-06
1.43407e-06
1.3514e-06
1.27156e-06
1.19441e-06
1.1205e-06
1.04793e-06
2.36598e-06
2.53573e-06
2.75301e-06
2.91343e-06
3.04539e-06
3.1684e-06
3.27037e-06
3.34247e-06
3.38262e-06
3.39024e-06
3.36695e-06
3.31688e-06
3.24508e-06
3.15647e-06
3.05551e-06
2.94605e-06
2.83121e-06
2.71347e-06
2.59472e-06
2.47635e-06
2.35937e-06
2.24448e-06
2.13213e-06
2.0226e-06
1.91604e-06
1.8125e-06
1.71199e-06
1.6145e-06
1.52002e-06
1.42861e-06
1.34026e-06
1.2554e-06
1.1729e-06
2.84616e-06
2.97527e-06
3.39166e-06
3.82714e-06
4.15849e-06
4.36496e-06
4.45578e-06
4.46179e-06
4.41278e-06
4.32689e-06
4.21534e-06
4.08614e-06
3.94491e-06
3.79557e-06
3.6412e-06
3.48433e-06
3.32709e-06
3.17123e-06
3.01818e-06
2.86902e-06
2.72458e-06
2.58539e-06
2.45177e-06
2.32386e-06
2.20164e-06
2.08501e-06
1.97379e-06
1.86779e-06
1.76684e-06
1.67093e-06
1.57992e-06
1.49478e-06
1.41327e-06
3.89113e-06
4.01134e-06
3.94722e-06
3.89781e-06
4.02616e-06
4.25886e-06
4.47162e-06
4.61485e-06
4.68539e-06
4.69307e-06
4.65436e-06
4.5873e-06
4.50656e-06
4.42236e-06
4.34118e-06
4.26645e-06
4.19947e-06
4.14015e-06
4.08769e-06
4.04097e-06
3.99883e-06
3.96016e-06
3.92401e-06
3.88958e-06
3.85617e-06
3.82322e-06
3.79022e-06
3.75677e-06
3.7226e-06
3.68762e-06
3.65197e-06
3.61707e-06
3.58177e-06
4.35674e-06
4.95363e-06
5.95433e-06
6.45458e-06
6.58389e-06
6.57087e-06
6.5679e-06
6.6786e-06
6.93266e-06
7.29936e-06
7.73046e-06
8.18272e-06
8.62306e-06
9.02925e-06
9.38854e-06
9.69505e-06
9.9475e-06
1.01475e-05
1.02985e-05
1.04047e-05
1.04707e-05
1.05011e-05
1.05002e-05
1.0472e-05
1.04199e-05
1.0347e-05
1.02557e-05
1.0148e-05
1.00257e-05
9.88969e-06
9.74191e-06
9.58425e-06
9.41882e-06
7.55233e-06
5.82898e-06
4.65259e-06
6.25365e-06
8.98264e-06
1.16883e-05
1.40148e-05
1.59025e-05
1.73509e-05
1.83746e-05
1.90104e-05
1.93061e-05
1.93107e-05
1.90732e-05
1.86398e-05
1.80526e-05
1.73486e-05
1.65594e-05
1.57117e-05
1.48272e-05
1.39235e-05
1.30143e-05
1.21103e-05
1.12195e-05
1.03476e-05
9.49851e-06
8.67447e-06
7.87606e-06
7.1032e-06
6.3526e-06
5.62535e-06
4.90996e-06
4.22411e-06
8.58351e-06
1.47339e-05
1.8836e-05
2.12369e-05
2.23236e-05
2.18503e-05
1.99942e-05
1.72097e-05
1.39692e-05
1.09039e-05
9.03323e-06
9.42645e-06
1.18137e-05
1.51079e-05
1.86314e-05
2.20845e-05
2.53358e-05
2.83286e-05
3.10424e-05
3.34757e-05
3.56377e-05
3.75432e-05
3.921e-05
4.06566e-05
4.19018e-05
4.29638e-05
4.386e-05
4.46076e-05
4.5223e-05
4.57275e-05
4.61358e-05
4.65065e-05
4.68281e-05
3.46407e-05
3.72199e-05
4.66595e-05
6.17841e-05
7.74893e-05
9.28871e-05
0.000107278
0.000119956
0.000130736
0.000139662
0.000146846
0.00015245
0.000156662
0.000159666
0.000161637
0.000162731
0.000163091
0.000162838
0.000162078
0.000160903
0.000159389
0.000157601
0.000155594
0.000153412
0.000151094
0.00014867
0.000146166
0.000143599
0.000140988
0.000138337
0.000135648
0.000133013
0.000130443
0.000608445
0.000582499
0.000556869
0.000530396
0.000504383
0.000479147
0.000454728
0.000431395
0.000409327
0.00038858
0.000369168
0.000351075
0.000334252
0.000318632
0.000304134
0.000290675
0.000278171
0.000266538
0.000255699
0.000245578
0.000236109
0.000227229
0.000218882
0.000211017
0.000203588
0.000196556
0.000189881
0.00018353
0.000177463
0.000171661
0.000165993
0.000160994
0.000156437
8.05988e-05
7.12464e-05
6.47215e-05
6.35061e-05
6.53913e-05
6.91342e-05
7.38907e-05
7.89931e-05
8.32136e-05
8.46292e-05
8.24927e-05
7.8524e-05
7.45409e-05
7.09441e-05
6.76001e-05
6.52982e-05
6.46717e-05
6.60044e-05
6.89321e-05
7.26833e-05
7.58833e-05
7.59966e-05
7.12908e-05
6.16943e-05
4.82999e-05
3.27165e-05
1.76848e-05
1.11133e-05
1.72927e-05
2.3107e-05
2.53837e-05
2.49839e-05
2.34411e-05
2.20086e-05
2.13588e-05
2.16274e-05
2.26237e-05
2.41016e-05
2.58771e-05
2.7958e-05
3.08091e-05
3.50531e-05
4.1156e-05
4.83802e-05
5.33833e-05
5.25874e-05
4.62444e-05
3.72703e-05
2.81245e-05
1.96806e-05
1.18875e-05
5.18229e-06
6.80108e-06
1.43718e-05
2.27712e-05
3.08687e-05
3.62975e-05
3.72084e-05
3.43765e-05
3.01715e-05
2.6248e-05
2.29659e-05
2.01732e-05
1.774e-05
1.56099e-05
1.3746e-05
1.21148e-05
1.06947e-05
9.48802e-06
8.53494e-06
7.88765e-06
7.5362e-06
7.47703e-06
7.97864e-06
9.60232e-06
1.37924e-05
2.27772e-05
3.48097e-05
4.49037e-05
4.90978e-05
4.65321e-05
3.87069e-05
2.76965e-05
1.58109e-05
1.06512e-05
2.16386e-05
3.82246e-05
5.15568e-05
5.47251e-05
4.77924e-05
3.65322e-05
2.61965e-05
1.86397e-05
1.34428e-05
9.61988e-06
6.56371e-06
4.11427e-06
2.2869e-06
9.42543e-07
1.44724e-07
0.000113002
0.000106935
0.000101004
9.75812e-05
9.56774e-05
9.47275e-05
9.41434e-05
9.37435e-05
9.39937e-05
9.52694e-05
9.65639e-05
9.70079e-05
9.67886e-05
9.63144e-05
9.55734e-05
9.4975e-05
9.49492e-05
9.55743e-05
9.62816e-05
9.55251e-05
9.04665e-05
7.94054e-05
6.34965e-05
4.4555e-05
2.46626e-05
6.55383e-06
1.04596e-05
2.07393e-05
2.60634e-05
2.72801e-05
2.60662e-05
2.40221e-05
2.21983e-05
2.10804e-05
2.08023e-05
2.12994e-05
2.23792e-05
2.38434e-05
2.55711e-05
2.75534e-05
3.02316e-05
3.41287e-05
3.9581e-05
4.64129e-05
5.20413e-05
5.27335e-05
4.78045e-05
3.95666e-05
3.05143e-05
2.19488e-05
1.44671e-05
9.84117e-06
1.17496e-05
1.82236e-05
2.62923e-05
3.37272e-05
3.77341e-05
3.71951e-05
3.36833e-05
2.95124e-05
2.5838e-05
2.2754e-05
2.00973e-05
1.777e-05
1.57242e-05
1.39219e-05
1.23322e-05
1.09403e-05
9.75303e-06
8.80983e-06
8.16564e-06
7.82385e-06
7.76878e-06
8.22797e-06
9.75462e-06
1.3637e-05
2.23555e-05
3.46973e-05
4.55104e-05
5.04979e-05
4.8608e-05
4.12588e-05
3.06288e-05
1.96633e-05
1.53562e-05
2.46922e-05
4.09892e-05
5.39067e-05
5.60583e-05
4.82306e-05
3.68046e-05
2.68837e-05
1.97036e-05
1.44759e-05
1.03583e-05
6.98019e-06
4.26733e-06
2.26451e-06
8.06413e-07
4.94735e-08
0.000102754
0.000102266
0.000101025
0.000100585
0.000101072
0.000102307
0.000103821
0.000104899
0.000104975
0.000104438
0.000104151
0.000104365
0.000104827
0.000105256
0.000105382
0.000105062
0.000104114
0.000102155
9.80326e-05
8.93123e-05
7.47918e-05
5.59735e-05
3.51646e-05
1.48748e-05
2.70554e-06
1.5704e-05
2.36306e-05
2.69794e-05
2.71348e-05
2.56763e-05
2.38251e-05
2.223e-05
2.11108e-05
2.05285e-05
2.05226e-05
2.10844e-05
2.21132e-05
2.34769e-05
2.5108e-05
2.69977e-05
2.94589e-05
3.30329e-05
3.79129e-05
4.41704e-05
5.01687e-05
5.234e-05
4.91197e-05
4.20772e-05
3.3619e-05
2.54286e-05
1.87243e-05
1.54053e-05
1.71203e-05
2.2849e-05
3.03263e-05
3.64943e-05
3.86663e-05
3.67229e-05
3.27723e-05
2.87787e-05
2.53924e-05
2.25269e-05
2.00284e-05
1.78218e-05
1.5865e-05
1.41221e-05
1.25687e-05
1.11978e-05
1.00217e-05
9.08061e-06
8.42696e-06
8.0703e-06
8.00283e-06
8.42183e-06
9.86266e-06
1.34376e-05
2.17659e-05
3.4332e-05
4.59302e-05
5.18593e-05
5.08164e-05
4.4125e-05
3.40437e-05
2.39843e-05
1.99912e-05
2.81484e-05
4.41184e-05
5.6339e-05
5.7179e-05
4.83536e-05
3.68367e-05
2.74316e-05
2.06818e-05
1.54571e-05
1.10556e-05
7.34728e-06
4.37298e-06
2.20811e-06
6.49882e-07
6.12797e-08
7.5162e-05
7.58721e-05
7.64126e-05
7.76204e-05
7.96676e-05
8.25376e-05
8.61052e-05
9.00691e-05
9.40206e-05
9.73733e-05
9.97891e-05
0.000101364
0.000102261
0.000102438
0.000101688
9.97395e-05
9.6075e-05
8.95769e-05
7.83085e-05
6.16385e-05
4.16342e-05
2.12874e-05
3.59733e-06
1.09109e-05
1.99992e-05
2.46829e-05
2.60478e-05
2.5475e-05
2.41563e-05
2.2823e-05
2.17409e-05
2.09212e-05
2.03495e-05
2.00807e-05
2.02053e-05
2.0766e-05
2.17155e-05
2.29666e-05
2.44841e-05
2.62925e-05
2.8603e-05
3.1849e-05
3.62117e-05
4.17774e-05
4.77858e-05
5.12729e-05
4.99674e-05
4.45543e-05
3.71796e-05
2.97811e-05
2.39895e-05
2.14524e-05
2.30512e-05
2.82074e-05
3.45657e-05
3.87448e-05
3.88243e-05
3.57262e-05
3.16642e-05
2.79962e-05
2.49281e-05
2.22902e-05
1.9961e-05
1.78836e-05
1.60191e-05
1.43354e-05
1.2816e-05
1.14629e-05
1.02932e-05
9.34912e-06
8.68588e-06
8.31061e-06
8.21436e-06
8.57394e-06
9.92015e-06
1.3207e-05
2.10371e-05
3.37259e-05
4.61788e-05
5.32107e-05
5.31746e-05
4.72793e-05
3.78617e-05
2.86478e-05
2.49088e-05
3.22752e-05
4.76963e-05
5.87325e-05
5.79001e-05
4.80682e-05
3.6664e-05
2.79167e-05
2.1617e-05
1.63964e-05
1.17192e-05
7.67887e-06
4.44162e-06
2.12405e-06
4.82323e-07
1.74943e-07
2.91206e-05
3.03196e-05
3.16374e-05
3.36127e-05
3.64199e-05
4.00598e-05
4.44743e-05
4.95872e-05
5.52651e-05
6.12359e-05
6.70159e-05
7.19963e-05
7.55959e-05
7.73012e-05
7.66416e-05
7.31053e-05
6.58725e-05
5.38453e-05
3.74042e-05
1.94563e-05
3.32726e-06
9.41161e-06
1.75393e-05
2.18468e-05
2.33863e-05
2.33253e-05
2.26166e-05
2.18574e-05
2.12688e-05
2.082e-05
2.04158e-05
2.00242e-05
1.97053e-05
1.95745e-05
1.97446e-05
2.02705e-05
2.11306e-05
2.22685e-05
2.36661e-05
2.53695e-05
2.75368e-05
3.04949e-05
3.44229e-05
3.93089e-05
4.49526e-05
4.93784e-05
5.00155e-05
4.6593e-05
4.07695e-05
3.45434e-05
2.97318e-05
2.77645e-05
2.93028e-05
3.3677e-05
3.82044e-05
3.99028e-05
3.80657e-05
3.4312e-05
3.0462e-05
2.71983e-05
2.44473e-05
2.20398e-05
1.98881e-05
1.79449e-05
1.61734e-05
1.45475e-05
1.30596e-05
1.17204e-05
1.0552e-05
9.59747e-06
8.9172e-06
8.52455e-06
8.40279e-06
8.69732e-06
9.92839e-06
1.29445e-05
2.01727e-05
3.28105e-05
4.61339e-05
5.44281e-05
5.55726e-05
5.06199e-05
4.19999e-05
3.36344e-05
3.00995e-05
3.69297e-05
5.15711e-05
6.08934e-05
5.80769e-05
4.73371e-05
3.6294e-05
2.82949e-05
2.24072e-05
1.71789e-05
1.22582e-05
7.92485e-06
4.45492e-06
2.01297e-06
3.41274e-07
2.97356e-07
4.58709e-06
4.15913e-06
3.5789e-06
2.6073e-06
1.41419e-06
2.02878e-06
4.68686e-06
8.18381e-06
1.22767e-05
1.6781e-05
2.14396e-05
2.58263e-05
2.92923e-05
3.10062e-05
3.00818e-05
2.57402e-05
1.76682e-05
7.45165e-06
6.31667e-06
1.38741e-05
1.8702e-05
2.06531e-05
2.08363e-05
2.03308e-05
1.98054e-05
1.95418e-05
1.95436e-05
1.96638e-05
1.97399e-05
1.96814e-05
1.94884e-05
1.92302e-05
1.90139e-05
1.89544e-05
1.91468e-05
1.9638e-05
2.04198e-05
2.14585e-05
2.27436e-05
2.43283e-05
2.63463e-05
2.90206e-05
3.25397e-05
3.68258e-05
4.18343e-05
4.66345e-05
4.89694e-05
4.77373e-05
4.38658e-05
3.91556e-05
3.54158e-05
3.39778e-05
3.53274e-05
3.83639e-05
4.044e-05
3.9668e-05
3.65076e-05
3.26622e-05
2.92423e-05
2.63992e-05
2.39546e-05
2.17797e-05
1.9811e-05
1.80044e-05
1.6326e-05
1.47574e-05
1.33001e-05
1.19723e-05
1.08008e-05
9.82888e-06
9.12154e-06
8.70433e-06
8.55924e-06
8.79525e-06
9.89598e-06
1.26548e-05
1.9203e-05
3.15514e-05
4.5685e-05
5.53936e-05
5.79302e-05
5.41017e-05
4.64268e-05
3.88932e-05
3.55815e-05
4.21461e-05
5.56558e-05
6.26165e-05
5.75566e-05
4.61458e-05
3.57678e-05
2.85655e-05
2.3013e-05
1.77549e-05
1.26308e-05
8.05857e-06
4.40435e-06
1.88303e-06
3.32259e-07
4.22542e-07
9.66869e-06
9.87254e-06
9.98019e-06
9.78183e-06
9.21176e-06
8.33701e-06
7.34258e-06
6.57962e-06
6.47902e-06
7.16358e-06
8.30121e-06
9.50253e-06
1.05688e-05
1.14947e-05
1.25109e-05
1.42403e-05
1.70477e-05
1.97903e-05
2.11652e-05
2.08872e-05
1.95821e-05
1.81607e-05
1.72339e-05
1.69635e-05
1.71997e-05
1.768e-05
1.81705e-05
1.85281e-05
1.87003e-05
1.87001e-05
1.85801e-05
1.84154e-05
1.82928e-05
1.83006e-05
1.85137e-05
1.89743e-05
1.96853e-05
2.06311e-05
2.18075e-05
2.32631e-05
2.51216e-05
2.75202e-05
3.06251e-05
3.43826e-05
3.86693e-05
4.32325e-05
4.66546e-05
4.74684e-05
4.5756e-05
4.28178e-05
4.02662e-05
3.92869e-05
4.00325e-05
4.11415e-05
4.06805e-05
3.80923e-05
3.44461e-05
3.09643e-05
2.80569e-05
2.56058e-05
2.34516e-05
2.15099e-05
1.97272e-05
1.80588e-05
1.64749e-05
1.4965e-05
1.35384e-05
1.22201e-05
1.10414e-05
1.00463e-05
9.30257e-06
8.84989e-06
8.67731e-06
8.86367e-06
9.82979e-06
1.23404e-05
1.81734e-05
2.99498e-05
4.47384e-05
5.59844e-05
6.01509e-05
5.76577e-05
5.1084e-05
4.43722e-05
4.13949e-05
4.78559e-05
5.96795e-05
6.35798e-05
5.61911e-05
4.45392e-05
3.51518e-05
2.87274e-05
2.34016e-05
1.80851e-05
1.2804e-05
8.06556e-06
4.29667e-06
1.7604e-06
5.01081e-07
5.4809e-07
5.6697e-06
5.80692e-06
5.87829e-06
5.75477e-06
5.39537e-06
4.87681e-06
4.4119e-06
4.39495e-06
5.19468e-06
6.77311e-06
8.82919e-06
1.10727e-05
1.32837e-05
1.53137e-05
1.70567e-05
1.83663e-05
1.89827e-05
1.87879e-05
1.79249e-05
1.67986e-05
1.58478e-05
1.53392e-05
1.53108e-05
1.56384e-05
1.61434e-05
1.66726e-05
1.71264e-05
1.74535e-05
1.76409e-05
1.77036e-05
1.76776e-05
1.76156e-05
1.75827e-05
1.76496e-05
1.78795e-05
1.83124e-05
1.89592e-05
1.98175e-05
2.08902e-05
2.22152e-05
2.39091e-05
2.60627e-05
2.87757e-05
3.2046e-05
3.56745e-05
3.95935e-05
4.32528e-05
4.54668e-05
4.56964e-05
4.45321e-05
4.31566e-05
4.24169e-05
4.21563e-05
4.12908e-05
3.89997e-05
3.56632e-05
3.22615e-05
2.93473e-05
2.69148e-05
2.48099e-05
2.29348e-05
2.12283e-05
1.96344e-05
1.8107e-05
1.66208e-05
1.51722e-05
1.37772e-05
1.24665e-05
1.12762e-05
1.02518e-05
9.46294e-06
8.96383e-06
8.75641e-06
8.89941e-06
9.73694e-06
1.2003e-05
1.71341e-05
2.80369e-05
4.31938e-05
5.60268e-05
6.20751e-05
6.11724e-05
5.58846e-05
5.00238e-05
4.75743e-05
5.38979e-05
6.32267e-05
6.34061e-05
5.38874e-05
4.26216e-05
3.45099e-05
2.87787e-05
2.35694e-05
1.81734e-05
1.27855e-05
7.9606e-06
4.15834e-06
1.68591e-06
7.47972e-07
6.67575e-07
3.60427e-06
3.62287e-06
3.57349e-06
3.37186e-06
2.98784e-06
2.48578e-06
2.08963e-06
2.242e-06
3.13255e-06
4.51273e-06
6.17796e-06
8.0093e-06
9.89346e-06
1.16931e-05
1.32378e-05
1.43376e-05
1.49002e-05
1.50213e-05
1.48606e-05
1.45901e-05
1.43598e-05
1.42845e-05
1.44169e-05
1.47366e-05
1.51723e-05
1.56384e-05
1.60631e-05
1.64008e-05
1.6633e-05
1.67645e-05
1.68193e-05
1.68381e-05
1.68744e-05
1.69869e-05
1.72292e-05
1.76378e-05
1.82282e-05
1.90064e-05
1.99815e-05
2.11836e-05
2.27121e-05
2.46456e-05
2.70252e-05
2.98627e-05
3.29611e-05
3.61748e-05
3.9394e-05
4.2043e-05
4.34691e-05
4.36418e-05
4.31623e-05
4.24318e-05
4.1223e-05
3.91093e-05
3.61686e-05
3.30279e-05
3.02163e-05
2.78385e-05
2.57951e-05
2.40018e-05
2.24022e-05
2.09339e-05
1.95324e-05
1.81504e-05
1.67664e-05
1.53825e-05
1.40198e-05
1.27144e-05
1.15075e-05
1.04476e-05
9.60513e-06
9.04798e-06
8.79647e-06
8.89931e-06
9.62423e-06
1.16465e-05
1.61331e-05
2.58939e-05
4.09787e-05
5.53095e-05
6.34693e-05
6.44667e-05
6.06938e-05
5.57815e-05
5.40788e-05
5.98725e-05
6.5658e-05
6.16902e-05
5.06646e-05
4.05638e-05
3.38994e-05
2.87302e-05
2.3553e-05
1.8072e-05
1.26239e-05
7.78662e-06
4.0328e-06
1.70227e-06
1.01842e-06
7.79101e-07
2.80243e-06
2.77243e-06
2.67988e-06
2.47436e-06
2.14624e-06
1.77675e-06
1.61595e-06
1.9939e-06
2.87296e-06
4.03493e-06
5.3505e-06
6.74964e-06
8.17688e-06
9.56592e-06
1.08304e-05
1.18848e-05
1.26685e-05
1.31405e-05
1.33186e-05
1.3306e-05
1.32547e-05
1.32946e-05
1.34864e-05
1.382e-05
1.42422e-05
1.46888e-05
1.51051e-05
1.5453e-05
1.57143e-05
1.58898e-05
1.59985e-05
1.60737e-05
1.61592e-05
1.63035e-05
1.65513e-05
1.69354e-05
1.74736e-05
1.8177e-05
1.90591e-05
2.01458e-05
2.15169e-05
2.32449e-05
2.53469e-05
2.7819e-05
3.05117e-05
3.31931e-05
3.5783e-05
3.81252e-05
3.98218e-05
4.05916e-05
4.0546e-05
3.97638e-05
3.81566e-05
3.5826e-05
3.31734e-05
3.06276e-05
2.83693e-05
2.63938e-05
2.46712e-05
2.31755e-05
2.18533e-05
2.06268e-05
1.94226e-05
1.81921e-05
1.69156e-05
1.55992e-05
1.4269e-05
1.29657e-05
1.17366e-05
1.06341e-05
9.72929e-06
9.10225e-06
8.79643e-06
8.8597e-06
9.49594e-06
1.1281e-05
1.52027e-05
2.36546e-05
3.80886e-05
5.3608e-05
6.40147e-05
6.72543e-05
6.52658e-05
6.14915e-05
6.06375e-05
6.50198e-05
6.61498e-05
5.81278e-05
4.67235e-05
3.857e-05
3.33534e-05
2.86113e-05
2.34289e-05
1.78777e-05
1.24087e-05
7.61609e-06
3.97535e-06
1.82962e-06
1.28991e-06
8.79375e-07
2.25414e-06
2.20865e-06
2.1127e-06
1.94088e-06
1.70606e-06
1.51054e-06
1.57311e-06
2.04798e-06
2.85356e-06
3.86033e-06
4.98406e-06
6.16888e-06
7.36965e-06
8.54228e-06
9.63517e-06
1.05823e-05
1.13108e-05
1.17893e-05
1.20528e-05
1.21855e-05
1.22853e-05
1.24329e-05
1.26729e-05
1.30083e-05
1.34099e-05
1.38331e-05
1.42342e-05
1.45808e-05
1.48563e-05
1.50603e-05
1.52069e-05
1.53224e-05
1.54423e-05
1.56061e-05
1.58516e-05
1.62083e-05
1.66951e-05
1.73263e-05
1.81181e-05
1.90942e-05
2.03184e-05
2.18516e-05
2.371e-05
2.58736e-05
2.82389e-05
3.05782e-05
3.27142e-05
3.45746e-05
3.60007e-05
3.67745e-05
3.68063e-05
3.60711e-05
3.46097e-05
3.26681e-05
3.05675e-05
2.85242e-05
2.66356e-05
2.49593e-05
2.35309e-05
2.23321e-05
2.12898e-05
2.03092e-05
1.93086e-05
1.82362e-05
1.70724e-05
1.5826e-05
1.45277e-05
1.32229e-05
1.19648e-05
1.08116e-05
9.83511e-06
9.12503e-06
8.75227e-06
8.77394e-06
9.34931e-06
1.09233e-05
1.43567e-05
2.14868e-05
3.46324e-05
5.07324e-05
6.3305e-05
6.90806e-05
6.91565e-05
6.6774e-05
6.65239e-05
6.81448e-05
6.38407e-05
5.26969e-05
4.24734e-05
3.6819e-05
3.28891e-05
2.84801e-05
2.33052e-05
1.77134e-05
1.22495e-05
7.53108e-06
4.03313e-06
2.0544e-06
1.55391e-06
9.70425e-07
1.8284e-06
1.77995e-06
1.69545e-06
1.56938e-06
1.43404e-06
1.39414e-06
1.59617e-06
2.08973e-06
2.81091e-06
3.68404e-06
4.6531e-06
5.67501e-06
6.71169e-06
7.72501e-06
8.672e-06
9.50586e-06
1.01844e-05
1.06851e-05
1.10204e-05
1.12422e-05
1.14243e-05
1.16334e-05
1.19075e-05
1.22503e-05
1.26398e-05
1.30427e-05
1.34264e-05
1.37659e-05
1.40475e-05