/*--------------------------------*- C++ -*----------------------------------*\
| =========                 |                                                 |
| \\      /  F ield         | OpenFOAM: The Open Source CFD Toolbox           |
|  \\    /   O peration     | Version:  2.1.1                                 |
|   \\  /    A nd           | Web:      www.OpenFOAM.org                      |
|    \\/     M anipulation  |                                                 |
\*---------------------------------------------------------------------------*/
FoamFile
{
    version     2.0;
    format      ascii;
    class       volScalarField;
    location    "0.13";
    object      p;
}
// * * * * * * * * * * * * * * * * * * * * * * * * * * * * * * * * * * * * * //

dimensions      [0 2 -2 0 0 0 0];

internalField   nonuniform List<scalar> 
6820
(
8.0541
-9.78112
-12.7883
-12.9742
-13.1452
-13.0694
-13.0094
-13.0175
-13.0592
-13.1191
-13.1889
-13.2632
-13.3395
-13.4167
-13.4941
-13.5716
-13.6488
-13.7256
-13.8022
-13.8785
-13.9546
-14.0307
-14.1073
-14.1845
-14.263
-14.3434
-14.4264
-14.5129
-14.6048
-14.7006
-14.8113
-14.9107
-15.0826
1.37268
-9.60018
-12.4773
-12.7762
-13.0271
-13.0473
-13.0237
-13.0429
-13.0863
-13.1433
-13.2091
-13.2797
-13.353
-13.4278
-13.5035
-13.5797
-13.6559
-13.7321
-13.8082
-13.8841
-13.9599
-14.0359
-14.1122
-14.1893
-14.2675
-14.3476
-14.4302
-14.5162
-14.6073
-14.7031
-14.8118
-14.9206
-15.0934
-1.34239
-8.17034
-11.4575
-12.2143
-12.6808
-12.8757
-12.9309
-12.9829
-13.0456
-13.115
-13.1895
-13.2668
-13.3451
-13.4237
-13.5019
-13.5798
-13.6572
-13.734
-13.8104
-13.8865
-13.9622
-14.0379
-14.1139
-14.1904
-14.268
-14.3471
-14.4286
-14.5131
-14.602
-14.6949
-14.7962
-14.8943
-15.0025
-3.3282
-7.9436
-11.0366
-11.8949
-12.3655
-12.6396
-12.7651
-12.8612
-12.9552
-13.0452
-13.1329
-13.2191
-13.3042
-13.3881
-13.471
-13.5527
-13.6334
-13.7132
-13.7921
-13.8703
-13.9479
-14.0252
-14.1025
-14.18
-14.2582
-14.3377
-14.4189
-14.5024
-14.5892
-14.6789
-14.773
-14.8658
-14.9578
-4.96423
-8.04467
-10.6457
-11.5484
-12.0549
-12.4085
-12.6043
-12.7402
-12.859
-12.9661
-13.0658
-13.1614
-13.2537
-13.3432
-13.4306
-13.5162
-13.6002
-13.6828
-13.7641
-13.8444
-13.9238
-14.0025
-14.081
-14.1594
-14.2381
-14.3176
-14.3982
-14.4803
-14.5644
-14.6502
-14.7375
-14.8235
-14.9053
-6.18746
-8.22623
-10.3956
-11.3391
-11.8647
-12.2456
-12.4765
-12.6354
-12.7706
-12.8907
-13.0003
-13.1034
-13.202
-13.2968
-13.3886
-13.4778
-13.5648
-13.65
-13.7336
-13.8158
-13.8969
-13.9772
-14.0569
-14.1362
-14.2155
-14.2951
-14.3752
-14.4561
-14.5378
-14.62
-14.7023
-14.7829
-14.8615
-7.13878
-8.5133
-10.279
-11.1854
-11.6988
-12.088
-12.3492
-12.5339
-12.6872
-12.821
-12.9407
-13.0514
-13.1557
-13.2551
-13.3505
-13.4428
-13.5325
-13.62
-13.7055
-13.7894
-13.8719
-13.9532
-14.0336
-14.1134
-14.1927
-14.2718
-14.3509
-14.4299
-14.5087
-14.5871
-14.6643
-14.7391
-14.8106
-7.88541
-8.82013
-10.2286
-11.0704
-11.5724
-11.9634
-12.2435
-12.4456
-12.6111
-12.7547
-12.8823
-12.9992
-13.1088
-13.2126
-13.3118
-13.4073
-13.4998
-13.5896
-13.6771
-13.7626
-13.8465
-13.9289
-14.01
-14.0902
-14.1695
-14.2482
-14.3262
-14.4035
-14.4799
-14.5548
-14.6277
-14.6972
-14.7624
-8.4783
-9.12445
-10.2395
-11.0012
-11.4809
-11.8603
-12.147
-12.3608
-12.5367
-12.6893
-12.8247
-12.948
-13.0628
-13.171
-13.2739
-13.3725
-13.4675
-13.5595
-13.6489
-13.7359
-13.821
-13.9043
-13.9861
-14.0665
-14.1456
-14.2236
-14.3005
-14.376
-14.4499
-14.5216
-14.5905
-14.6553
-14.7148
-8.95532
-9.41062
-10.2883
-10.9615
-11.4122
-11.776
-12.0636
-12.2856
-12.4692
-12.6287
-12.7703
-12.8988
-13.018
-13.13
-13.2361
-13.3376
-13.435
-13.5291
-13.6202
-13.7087
-13.795
-13.8791
-13.9614
-14.042
-14.121
-14.1984
-14.2742
-14.3481
-14.4199
-14.4889
-14.5545
-14.6156
-14.6709
-9.34335
-9.67096
-10.3611
-10.9473
-11.3658
-11.7104
-11.9929
-12.2179
-12.4061
-12.5705
-12.7171
-12.8503
-12.9736
-13.0892
-13.1986
-13.3028
-13.4027
-13.4988
-13.5916
-13.6815
-13.7688
-13.8538
-13.9365
-14.0173
-14.096
-14.1728
-14.2476
-14.3201
-14.3899
-14.4567
-14.5196
-14.5778
-14.6302
-9.66205
-9.90311
-10.4472
-10.9519
-11.3356
-11.6589
-11.9324
-12.1573
-12.3482
-12.5162
-12.6668
-12.8039
-12.9308
-13.0496
-13.1618
-13.2685
-13.3706
-13.4685
-13.5629
-13.6541
-13.7424
-13.8281
-13.9112
-13.9921
-14.0706
-14.1469
-14.2208
-14.292
-14.3604
-14.4253
-14.4863
-14.5426
-14.5932
-9.92575
-10.1071
-10.5384
-10.97
-11.3186
-11.62
-11.8822
-12.104
-12.2954
-12.4654
-12.6188
-12.7589
-12.8888
-13.0105
-13.1253
-13.2344
-13.3385
-13.4383
-13.5342
-13.6266
-13.7159
-13.8022
-13.8858
-13.9668
-14.0452
-14.121
-14.1942
-14.2644
-14.3316
-14.3952
-14.4548
-14.5099
-14.5598
-10.145
-10.2845
-10.629
-10.9969
-11.3114
-11.5909
-11.8402
-12.057
-12.2473
-12.418
-12.5733
-12.7159
-12.8484
-12.9725
-13.0897
-13.201
-13.307
-13.4084
-13.5057
-13.5993
-13.6895
-13.7764
-13.8604
-13.9415
-14.0198
-14.0952
-14.1678
-14.2373
-14.3035
-14.3663
-14.4251
-14.4797
-14.5295
-10.3276
-10.4372
-10.7151
-11.0287
-11.3112
-11.5694
-11.8054
-12.0157
-12.2036
-12.3741
-12.5304
-12.6747
-12.8093
-12.9356
-13.0549
-13.168
-13.2758
-13.3788
-13.4775
-13.5721
-13.6632
-13.7508
-13.8351
-13.9164
-13.9946
-14.0698
-14.1419
-14.2109
-14.2766
-14.3389
-14.3974
-14.4519
-14.5023
-10.4795
-10.5673
-10.7941
-11.0622
-11.3155
-11.5537
-11.7763
-11.9793
-12.1638
-12.3332
-12.4898
-12.6354
-12.7716
-12.8998
-13.0209
-13.1359
-13.2453
-13.3498
-13.4497
-13.5454
-13.6372
-13.7254
-13.8101
-13.8915
-13.9697
-14.0447
-14.1166
-14.1853
-14.2507
-14.3127
-14.3712
-14.4261
-14.4773
-10.6051
-10.6767
-10.8643
-11.0948
-11.322
-11.5417
-11.7514
-11.9468
-12.1274
-12.2952
-12.4517
-12.598
-12.7355
-12.8653
-12.9881
-13.1046
-13.2156
-13.3214
-13.4225
-13.5191
-13.6118
-13.7005
-13.7856
-13.8673
-13.9455
-14.0205
-14.0922
-14.1607
-14.226
-14.288
-14.3468
-14.4023
-14.4545
-10.7076
-10.7671
-10.9246
-11.1243
-11.3288
-11.5318
-11.7296
-11.9174
-12.0938
-12.2596
-12.4156
-12.5624
-12.701
-12.832
-12.9563
-13.0744
-13.1867
-13.2938
-13.396
-13.4936
-13.5869
-13.6762
-13.7617
-13.8435
-13.9219
-13.9968
-14.0685
-14.1369
-14.2022
-14.2643
-14.3234
-14.3796
-14.4329
-10.7895
-10.8399
-10.9743
-11.1491
-11.3342
-11.5224
-11.7094
-11.8901
-12.0624
-12.2261
-12.3814
-12.5285
-12.668
-12.8003
-12.9259
-13.0454
-13.159
-13.2673
-13.3706
-13.4691
-13.5631
-13.653
-13.7388
-13.8209
-13.8994
-13.9744
-14.0461
-14.1145
-14.1799
-14.2423
-14.3018
-14.3587
-14.413
-10.8527
-10.8962
-11.0128
-11.1678
-11.3366
-11.5122
-11.6897
-11.8639
-12.0324
-12.1942
-12.3488
-12.4961
-12.6364
-12.7698
-12.8967
-13.0175
-13.1324
-13.2418
-13.3461
-13.4454
-13.5401
-13.6304
-13.7166
-13.7989
-13.8775
-13.9525
-14.0242
-14.0926
-14.1581
-14.2206
-14.2805
-14.3379
-14.3931
-10.8983
-10.9367
-11.0397
-11.1792
-11.3347
-11.4998
-11.6693
-11.8381
-12.0033
-12.1634
-12.3176
-12.4653
-12.6064
-12.741
-12.8693
-12.9914
-13.1076
-13.2182
-13.3234
-13.4236
-13.519
-13.6098
-13.6964
-13.7789
-13.8576
-13.9327
-14.0044
-14.0728
-14.1383
-14.201
-14.2612
-14.319
-14.3748
-10.9273
-10.9618
-11.0547
-11.1823
-11.3274
-11.4841
-11.6472
-11.8117
-11.9744
-12.1333
-12.2872
-12.4355
-12.5776
-12.7134
-12.843
-12.9664
-13.0838
-13.1955
-13.3017
-13.4026
-13.4986
-13.5898
-13.6766
-13.7593
-13.838
-13.913
-13.9846
-14.0529
-14.1183
-14.181
-14.2412
-14.2992
-14.3553
-10.9399
-10.9716
-11.0572
-11.1762
-11.3135
-11.464
-11.6225
-11.784
-11.9451
-12.1036
-12.258
-12.4072
-12.5507
-12.6881
-12.8192
-12.9441
-13.0629
-13.1758
-13.283
-13.3848
-13.4814
-13.5731
-13.6602
-13.743
-13.8217
-13.8967
-13.9681
-14.0363
-14.1015
-14.164
-14.2241
-14.282
-14.338
-10.9362
-10.966
-11.0467
-11.1598
-11.2919
-11.4384
-11.594
-11.754
-11.9146
-12.0734
-12.2288
-12.3794
-12.5244
-12.6634
-12.7962
-12.9226
-13.0427
-13.1567
-13.2649
-13.3673
-13.4644
-13.5564
-13.6436
-13.7264
-13.8049
-13.8796
-13.9507
-14.0184
-14.0832
-14.1453
-14.2049
-14.2624
-14.318
-10.9158
-10.9445
-11.0224
-11.1322
-11.2617
-11.4064
-11.5613
-11.7214
-11.883
-12.0435
-12.2009
-12.3538
-12.5012
-12.6425
-12.7773
-12.9057
-13.0275
-13.1429
-13.2521
-13.3554
-13.4531
-13.5455
-13.6328
-13.7155
-13.7939
-13.8682
-13.9388
-14.0061
-14.0702
-14.1316
-14.1905
-14.2473
-14.302
-10.8778
-10.9062
-10.9833
-11.0923
-11.2215
-11.3666
-11.5227
-11.6845
-11.8484
-12.0114
-12.1715
-12.327
-12.477
-12.6208
-12.7578
-12.8881
-13.0115
-13.1282
-13.2384
-13.3424
-13.4404
-13.5329
-13.6202
-13.7026
-13.7805
-13.8542
-13.9241
-13.9905
-14.0537
-14.1141
-14.1719
-14.2276
-14.2813
-10.8211
-10.8498
-10.9281
-11.0389
-11.1707
-11.3191
-11.479
-11.6452
-11.8135
-11.9811
-12.1457
-12.3054
-12.4593
-12.6064
-12.7465
-12.8792
-13.0047
-13.123
-13.2345
-13.3393
-13.4378
-13.5305
-13.6176
-13.6997
-13.777
-13.8499
-13.9189
-13.9842
-14.0462
-14.1053
-14.1617
-14.2158
-14.2678
-10.7437
-10.7736
-10.8549
-10.9701
-11.1068
-11.2605
-11.4261
-11.5979
-11.7719
-11.9449
-12.1145
-12.2789
-12.4369
-12.5877
-12.7309
-12.8663
-12.9938
-13.1137
-13.2263
-13.3318
-13.4306
-13.5232
-13.61
-13.6914
-13.7678
-13.8396
-13.9073
-13.9712
-14.0317
-14.0892
-14.1439
-14.1962
-14.2463
-10.6431
-10.6752
-10.7624
-10.8856
-11.0314
-11.1949
-11.3705
-11.5521
-11.7353
-11.9167
-12.0939
-12.265
-12.4287
-12.5843
-12.7315
-12.8701
-13.0001
-13.1218
-13.2355
-13.3417
-13.4408
-13.5332
-13.6194
-13.6999
-13.7752
-13.8457
-13.9118
-13.9739
-14.0325
-14.0878
-14.1402
-14.1901
-14.2375
-10.516
-10.5509
-10.6461
-10.7794
-10.936
-11.1106
-11.2972
-11.4895
-11.6827
-11.8735
-12.0591
-12.2377
-12.4079
-12.5691
-12.7208
-12.863
-12.9957
-13.1195
-13.2345
-13.3414
-13.4405
-13.5326
-13.618
-13.6974
-13.7713
-13.84
-13.9042
-13.9642
-14.0205
-14.0735
-14.1234
-14.1708
-14.2158
-10.358
-10.3983
-10.5072
-10.6586
-10.8344
-11.0283
-11.2335
-11.4427
-11.6508
-11.8545
-12.0512
-12.239
-12.4168
-12.5841
-12.7406
-12.8864
-13.0219
-13.1474
-13.2634
-13.3705
-13.4695
-13.5607
-13.6449
-13.7227
-13.7946
-13.8611
-13.9228
-13.9801
-14.0334
-14.0832
-14.1299
-14.1737
-14.2148
-10.1618
-10.2069
-10.3298
-10.4984
-10.692
-10.9045
-11.1286
-11.3562
-11.5815
-11.8008
-12.0113
-12.2109
-12.3988
-12.5742
-12.7372
-12.888
-13.027
-13.1548
-13.2722
-13.3799
-13.4785
-13.5689
-13.6517
-13.7276
-13.7973
-13.8613
-13.9203
-13.9746
-14.0249
-14.0715
-14.1149
-14.1555
-14.1936
-9.92227
-9.98197
-10.1377
-10.3444
-10.5738
-10.8188
-11.0714
-11.3231
-11.5685
-11.8045
-12.0287
-12.2396
-12.4363
-12.6188
-12.7871
-12.9417
-13.0832
-13.2125
-13.3303
-13.4375
-13.535
-13.6235
-13.704
-13.7771
-13.8435
-13.904
-13.959
-14.0092
-14.0551
-14.0972
-14.1358
-14.1713
-14.2041
-9.61715
-9.67927
-9.85496
-10.0884
-10.3485
-10.6286
-10.9171
-11.2025
-11.4782
-11.7406
-11.9869
-12.2159
-12.427
-12.6205
-12.7971
-12.9575
-13.1029
-13.2344
-13.353
-13.46
-13.5564
-13.6432
-13.7213
-13.7917
-13.855
-13.912
-13.9634
-14.0097
-14.0516
-14.0895
-14.124
-14.1556
-14.1846
-9.25684
-9.37428
-9.63555
-9.94027
-10.2515
-10.5723
-10.8939
-11.2058
-11.5035
-11.7843
-12.0462
-12.2879
-12.5094
-12.711
-12.8934
-13.0578
-13.2053
-13.3373
-13.4552
-13.5601
-13.6535
-13.7365
-13.8101
-13.8754
-13.9333
-13.9845
-14.0298
-14.0697
-14.105
-14.1361
-14.1636
-14.1879
-14.2096
-8.7286
-8.81985
-9.11879
-9.49131
-9.88347
-10.2879
-10.6841
-11.0583
-11.4069
-11.728
-12.0205
-12.2851
-12.523
-12.7361
-12.9263
-13.0954
-13.2455
-13.3784
-13.4958
-13.5994
-13.6906
-13.7708
-13.8412
-13.9029
-13.9569
-14.004
-14.0448
-14.0802
-14.1105
-14.1364
-14.1585
-14.1775
-14.194
-8.23456
-8.55716
-9.02568
-9.44563
-9.85724
-10.2877
-10.7088
-11.1071
-11.481
-11.8269
-12.1418
-12.4253
-12.6784
-12.9026
-13.0998
-13.2724
-13.4229
-13.5535
-13.6666
-13.7641
-13.8481
-13.9202
-13.9818
-14.0344
-14.0789
-14.1164
-14.1476
-14.1731
-14.1934
-14.2089
-14.2199
-14.2271
-14.2308
-6.93294
-7.25503
-8.02884
-8.72962
-9.36761
-9.97597
-10.5227
-11.0076
-11.4411
-11.8269
-12.1685
-12.4703
-12.736
-12.969
-13.1726
-13.3496
-13.5027
-13.6345
-13.7475
-13.8438
-13.9255
-13.9944
-14.0522
-14.1002
-14.1398
-14.1718
-14.197
-14.216
-14.2289
-14.2359
-14.2363
-14.2312
-14.2161
-6.92125
-7.66667
-8.27242
-8.74122
-9.34337
-9.9793
-10.5724
-11.1253
-11.6317
-12.0812
-12.473
-12.8107
-13.0984
-13.3411
-13.5441
-13.7127
-13.8515
-13.9651
-14.0573
-14.1315
-14.1907
-14.2372
-14.2733
-14.3008
-14.3211
-14.3354
-14.3445
-14.3489
-14.3486
-14.3426
-14.3282
-14.3023
-14.2513
-0.672092
-5.28029
-7.0657
-7.91813
-8.92233
-9.80075
-10.5039
-11.1147
-11.6495
-12.1089
-12.5019
-12.8368
-13.12
-13.3579
-13.5564
-13.7209
-13.8562
-13.9667
-14.0563
-14.1282
-14.1854
-14.2302
-14.2648
-14.291
-14.3103
-14.3239
-14.333
-14.3383
-14.3409
-14.3403
-14.3393
-14.3328
-14.3323
-15.0265
-15.4657
-16.0572
-16.1528
-15.8044
-15.0983
-14.2046
-13.335
-12.6728
-12.329
-12.3648
-12.7802
-13.5523
-14.6919
-16.2545
-18.2081
-20.4755
-22.9531
-25.5606
-28.2668
-31.0615
-33.8533
-36.4139
-38.4514
-39.6207
-39.6626
-38.4751
-36.1378
-32.8824
-29.0221
-24.8792
-20.73
-16.7681
-13.0928
-9.727
-6.66138
-3.9075
-1.52485
0.401137
1.80426
2.6217
2.77133
2.07518
0.150579
-3.6065
-9.59642
-17.4472
-26.061
-34.1753
-40.7425
-44.9984
-46.5144
-45.231
-41.4414
-35.8366
-29.2957
-22.7224
-16.8335
-11.9947
-8.24324
-5.43973
-3.40021
-1.9542
-0.95828
-0.296551
0.122
0.367384
0.492801
0.53786
0.530614
0.488775
0.419777
0.321637
0.184231
-0.0104472
-0.296863
-0.758645
-1.64192
-3.54347
-7.41773
-13.9988
-22.7689
-31.5646
-37.3183
-37.8516
-32.714
-23.7499
-14.4726
-7.61893
-3.67743
-1.71315
-0.770204
-0.305851
-0.0759135
0.0258462
0.055463
0.0519352
0.0328791
0.0198741
-0.0169935
-15.1579
-15.473
-15.9336
-15.9761
-15.5926
-14.8766
-13.9875
-13.133
-12.4977
-12.2012
-12.2689
-12.7029
-13.5146
-14.7298
-16.3862
-18.4348
-20.7685
-23.2446
-25.7484
-28.2317
-30.6828
-33.0665
-35.2255
-36.8891
-37.7591
-37.6302
-36.4379
-34.2605
-31.2882
-27.773
-23.9796
-20.1429
-16.4367
-12.9603
-9.75091
-6.81701
-4.18055
-1.8986
-0.0492456
1.3026
2.09034
2.23275
1.56182
-0.245436
-3.69935
-9.16299
-16.3493
-24.31
-31.8861
-38.0696
-42.112
-43.6026
-42.4805
-39.0238
-33.8811
-27.875
-21.8352
-16.3983
-11.8828
-8.32968
-5.63223
-3.63994
-2.20621
-1.20278
-0.523156
-0.0820494
0.187137
0.335566
0.401561
0.412376
0.385242
0.327656
0.23772
0.105323
-0.0872726
-0.372564
-0.825545
-1.66566
-3.43734
-7.0253
-13.1261
-21.2801
-29.4852
-34.8773
-35.4294
-30.6945
-22.3769
-13.762
-7.38437
-3.6747
-1.7784
-0.837078
-0.360767
-0.121191
-0.0121984
0.0251367
0.0299892
0.0183956
0.0140919
-0.0217461
-15.0807
-15.3754
-15.7356
-15.7459
-15.3696
-14.6978
-13.873
-13.0782
-12.4856
-12.217
-12.3249
-12.8129
-13.6822
-14.9529
-16.651
-18.7192
-21.026
-23.4044
-25.7233
-27.939
-30.0735
-32.106
-33.8969
-35.2214
-35.8483
-35.6203
-34.4845
-32.4959
-29.8013
-26.6054
-23.1307
-19.5819
-16.1172
-12.8355
-9.78398
-6.98499
-4.46842
-2.28956
-0.520486
0.775183
1.5285
1.6594
1.01156
-0.685984
-3.85513
-8.81132
-15.3343
-22.618
-29.6188
-35.3866
-39.1988
-40.661
-39.7062
-36.595
-31.93
-26.4709
-20.9656
-15.972
-11.7706
-8.41181
-5.82096
-3.87835
-2.45949
-1.45058
-0.754414
-0.291527
0.0011401
0.172585
0.259758
0.289038
0.27711
0.231517
0.150481
0.0240277
-0.165313
-0.448378
-0.892725
-1.69181
-3.33516
-6.63295
-12.2404
-19.7573
-27.3517
-32.3723
-32.941
-28.6176
-20.9705
-13.0436
-7.15529
-3.67946
-1.84995
-0.90905
-0.419712
-0.169366
-0.0520828
-0.00628861
0.00747213
0.00372393
0.00826549
-0.0261609
-15.0615
-15.2941
-15.5292
-15.4974
-15.1476
-14.554
-13.8365
-13.1505
-12.6506
-12.445
-12.5888
-13.1021
-13.9957
-15.2806
-16.9597
-18.9625
-21.1484
-23.3507
-25.4372
-27.3819
-29.2223
-30.9467
-32.4417
-33.5252
-34.0068
-33.7474
-32.6933
-30.8833
-28.4358
-25.5214
-22.3315
-19.0464
-15.8102
-12.7188
-9.82616
-7.16443
-4.76956
-2.69558
-1.00969
0.225833
0.941454
1.05942
0.433936
-1.16099
-4.06433
-8.53782
-14.4118
-21.0115
-27.4156
-32.7459
-36.3153
-37.7446
-36.9598
-34.2021
-30.0235
-25.112
-20.1288
-15.5601
-11.6587
-8.48882
-6.00488
-4.11454
-2.71329
-1.7011
-0.989919
-0.506168
-0.190451
0.00394362
0.112499
0.160669
0.16455
0.131627
0.0602532
-0.0593009
-0.244261
-0.523896
-0.958929
-1.71768
-3.23374
-6.23954
-11.3459
-18.2142
-25.1891
-29.8362
-30.4225
-26.5191
-19.5601
-12.3361
-6.93942
-3.69332
-1.92769
-0.986123
-0.483017
-0.220856
-0.0940926
-0.0389026
-0.0156257
-0.0111104
0.00236035
-0.0301238
-15.0018
-15.1663
-15.3132
-15.2709
-14.9855
-14.5068
-13.9282
-13.3732
-12.9706
-12.8231
-12.9928
-13.5078
-14.3809
-15.6162
-17.2001
-19.0569
-21.0473
-23.0094
-24.8506
-26.5726
-28.2043
-29.722
-31.021
-31.9407
-32.3187
-32.0393
-31.0568
-29.4008
-27.1687
-24.5051
-21.5747
-18.5355
-15.5175
-12.6126
-9.87879
-7.35554
-5.08335
-3.11529
-1.51463
-0.342092
0.333264
0.437424
-0.164095
-1.66078
-4.31844
-8.34277
-13.5983
-19.5258
-25.3263
-30.2052
-33.5195
-34.9081
-34.2916
-31.8885
-28.1938
-23.8165
-19.3319
-15.1643
-11.548
-8.56136
-6.18446
-4.34863
-2.96756
-1.95428
-1.22966
-0.726024
-0.387731
-0.170474
-0.0403355
0.0271361
0.0473975
0.0278452
-0.0330483
-0.144669
-0.323978
-0.598791
-1.02361
-1.74273
-3.13386
-5.85062
-10.4573
-16.6761
-23.0305
-27.3047
-27.9082
-24.4291
-18.1688
-11.653
-6.7426
-3.71869
-2.01326
-1.06984
-0.551983
-0.276528
-0.138665
-0.07283
-0.0392885
-0.0260344
-0.00362527
-0.0335728
-14.9511
-15.0686
-15.1575
-15.1123
-14.8898
-14.5237
-14.0852
-13.6683
-13.3737
-13.2868
-13.4665
-13.9476
-14.7475
-15.8682
-17.287
-18.9312
-20.6793
-22.4177
-24.0901
-25.6821
-27.1864
-28.5577
-29.6979
-30.4767
-30.7655
-30.4694
-29.5491
-28.0283
-25.9885
-23.5522
-20.8604
-18.0509
-15.2407
-12.5173
-9.94097
-7.55624
-5.40684
-3.545
-2.03067
-0.922851
-0.289191
-0.199541
-0.775647
-2.177
-4.60868
-8.22277
-12.9035
-18.1879
-23.3934
-27.8163
-30.8669
-32.2074
-31.7537
-29.6977
-26.4707
-22.5997
-18.5801
-14.7859
-11.4388
-8.62961
-6.35959
-4.58037
-3.22204
-2.20988
-1.47348
-0.951003
-0.590653
-0.350642
-0.198719
-0.111504
-0.0742262
-0.0796533
-0.129225
-0.231879
-0.404236
-0.672793
-1.08655
-1.76771
-3.03923
-5.47553
-9.59178
-15.1688
-20.9087
-24.8136
-25.4355
-22.3831
-16.8236
-11.0095
-6.57023
-3.75676
-2.10699
-1.16058
-0.627033
-0.336684
-0.185926
-0.108051
-0.063455
-0.0409651
-0.00968904
-0.0363941
-14.8884
-14.9733
-15.0268
-14.9846
-14.8154
-14.542
-14.2185
-13.9172
-13.717
-13.6879
-13.8814
-14.3296
-15.0494
-16.0418
-17.2862
-18.729
-20.291
-21.8813
-23.4275
-24.8943
-26.2591
-27.4772
-28.4667
-29.1199
-29.3302
-29.0191
-28.1541
-26.7549
-24.8892
-22.6599
-20.1875
-17.5924
-14.9799
-12.4326
-10.0115
-7.76446
-5.73726
-3.98126
-2.55356
-1.51122
-0.919732
-0.844464
-1.39366
-2.70149
-4.92466
-8.16828
-12.326
-17.0116
-21.6476
-25.6226
-28.408
-29.6938
-29.3924
-27.664
-24.8736
-21.4682
-17.8742
-14.4247
-11.3315
-8.69415
-6.53065
-4.80988
-3.4767
-2.46788
-1.72137
-1.18112
-0.799257
-0.536605
-0.362683
-0.255265
-0.200313
-0.190819
-0.228151
-0.320747
-0.48478
-0.745546
-1.14723
-1.79239
-2.95174
-5.12127
-8.76458
-13.7168
-18.8557
-22.3997
-23.0424
-20.4155
-15.5495
-10.4179
-6.4261
-3.80836
-2.20937
-1.25895
-0.708722
-0.40167
-0.236017
-0.144547
-0.0880587
-0.05582
-0.0158446
-0.0385553
-14.8311
-14.8978
-14.9334
-14.8979
-14.7703
-14.567
-14.3306
-14.1183
-13.9933
-14.0134
-14.2226
-14.6495
-15.3093
-16.203
-17.3144
-18.6013
-19.9966
-21.4216
-22.8164
-24.1445
-25.3736
-26.4538
-27.3107
-27.8542
-27.9974
-27.6762
-26.8636
-25.5752
-23.8671
-21.8261
-19.5555
-17.1604
-14.7355
-12.3583
-10.0893
-7.97815
-6.07177
-4.4205
-3.07888
-2.10177
-1.55178
-1.49003
-2.01111
-3.22689
-5.25636
-8.16679
-11.856
-15.998
-20.1053
-23.6543
-26.1812
-27.4069
-27.24
-25.8075
-23.4096
-20.4221
-17.2127
-14.0807
-11.2268
-8.75563
-6.69799
-5.03727
-3.73156
-2.72827
-1.97332
-1.41639
-1.01355
-0.728356
-0.53219
-0.40406
-0.330712
-0.30544
-0.329568
-0.410995
-0.565303
-0.816668
-1.20509
-1.81622
-2.87241
-4.79349
-7.98947
-12.3438
-16.9034
-20.0997
-20.7671
-18.5605
-14.37
-9.88874
-6.31254
-3.87358
-2.32043
-1.36509
-0.797096
-0.471405
-0.288782
-0.182139
-0.112962
-0.0704758
-0.0220678
-0.0399694
-14.7761
-14.8311
-14.8575
-14.8312
-14.7394
-14.595
-14.4311
-14.2928
-14.2305
-14.2913
-14.5131
-14.9215
-15.5298
-16.3384
-17.3321
-18.4755
-19.7153
-20.9923
-22.251
-23.4482
-24.5454
-25.4942
-26.2297
-26.6766
-26.7628
-26.4351
-25.6707
-24.4824
-22.917
-21.0477
-18.963
-16.7546
-14.5075
-12.294
-10.1733
-8.19544
-6.40784
-4.85959
-3.60278
-2.68985
-2.17998
-2.12995
-2.6216
-3.7469
-5.59521
-8.20531
-11.4781
-15.1352
-18.7647
-21.9208
-24.2023
-25.3628
-25.3068
-24.1294
-22.0743
-19.4562
-16.5933
-13.7537
-11.1255
-8.81491
-6.86217
-5.26289
-3.98681
-2.99114
-2.22941
-1.65687
-1.23358
-0.92592
-0.70722
-0.55782
-0.465301
-0.423328
-0.433202
-0.502297
-0.645449
-0.885742
-1.25957
-1.83848
-2.80164
-4.49665
-7.27865
-11.0717
-15.0822
-17.949
-18.6465
-16.8499
-13.3045
-9.42843
-6.23006
-3.95212
-2.44018
-1.47906
-0.892073
-0.545684
-0.344001
-0.220624
-0.13802
-0.0848178
-0.0283536
-0.040628
-14.7271
-14.7764
-14.8009
-14.7865
-14.7262
-14.6304
-14.5252
-14.4463
-14.4342
-14.5276
-14.7584
-15.1487
-15.7102
-16.4429
-17.3333
-18.3522
-19.4561
-20.5946
-21.7187
-22.7868
-23.7593
-24.5888
-25.2172
-25.5802
-25.618
-25.2867
-24.5673
-23.4703
-22.0347
-20.3223
-18.4089
-16.3747
-14.2957
-12.2393
-10.2623
-8.41455
-6.74307
-5.29552
-4.12156
-3.27108
-2.79936
-2.75881
-3.21957
-4.25622
-5.93443
-8.27223
-11.1746
-14.4023
-17.6066
-20.4082
-22.4608
-23.5508
-23.5799
-22.6162
-20.8565
-18.5642
-16.0139
-13.444
-11.0286
-8.8729
-7.02386
-5.48716
-4.24273
-3.25672
-2.4898
-1.90268
-1.45944
-1.12932
-0.887724
-0.716415
-0.60387
-0.544195
-0.538693
-0.594244
-0.724803
-0.952317
-1.31007
-1.85824
-2.73888
-4.23311
-6.64121
-9.91871
-13.4189
-15.9802
-16.7141
-15.3103
-12.3664
-9.03941
-6.1777
-4.04343
-2.56857
-1.60072
-0.993263
-0.624012
-0.401238
-0.259667
-0.163017
-0.0986808
-0.0346479
-0.0404688
-14.6833
-14.7303
-14.7568
-14.7548
-14.7214
-14.6656
-14.6082
-14.5777
-14.6064
-14.7259
-14.9625
-15.3351
-15.8536
-16.5176
-17.3154
-18.2223
-19.2031
-20.2157
-21.2164
-22.1647
-23.0209
-23.7403
-24.2718
-24.5608
-24.5574
-24.2249
-23.5474
-22.5337
-21.2162
-19.6472
-17.8918
-16.0199
-14.0998
-12.1934
-10.3551
-8.63363
-7.07504
-5.72535
-4.63176
-3.84142
-3.40553
-3.37203
-3.80048
-4.75054
-6.26893
-8.35862
-10.9298
-13.7767
-16.6033
-19.0872
-20.9301
-21.9443
-22.0353
-21.2494
-19.7446
-17.7407
-15.4731
-13.1521
-10.9372
-8.93065
-7.1839
-5.7107
-4.49978
-3.52533
-2.75475
-2.15403
-1.69124
-1.3386
-1.07366
-0.879708
-0.746192
-0.667726
-0.645635
-0.686359
-0.802885
-1.0159
-1.356
-1.87436
-2.68257
-4.00278
-6.08211
-8.89824
-11.9353
-14.2211
-14.9969
-13.9602
-11.5614
-8.71972
-6.15335
-4.14706
-2.70571
-1.72994
-1.10019
-0.705815
-0.460019
-0.29892
-0.187729
-0.111901
-0.0409045
-0.039479
-14.6449
-14.6922
-14.7234
-14.7341
-14.7242
-14.7017
-14.6831
-14.6913
-14.7522
-14.8912
-15.1302
-15.485
-15.9636
-16.5656
-17.2806
-18.0879
-18.958
-19.8547
-20.7396
-21.575
-22.3232
-22.9428
-23.3883
-23.613
-23.5748
-23.2432
-22.6051
-21.6675
-20.4578
-19.0201
-17.4104
-15.6897
-13.9192
-12.1556
-10.4505
-8.8509
-7.40145
-6.14629
-5.13009
-4.39715
-3.99445
-3.96558
-4.36052
-5.22634
-6.59477
-8.45794
-10.7319
-13.2394
-15.7295
-17.9277
-19.5782
-20.515
-20.6502
-20.0133
-18.7297
-16.9818
-14.97
-12.8785
-10.8524
-8.98927
-7.34324
-5.93427
-4.75855
-3.79746
-3.02465
-2.41122
-1.92918
-1.55383
-1.26497
-1.04752
-0.891969
-0.793524
-0.753546
-0.778087
-0.879134
-1.07597
-1.39676
-1.88567
-2.6304
-3.80303
-5.60134
-8.01663
-10.6454
-12.6907
-13.5116
-12.8067
-10.8862
-8.46377
-6.15455
-4.26294
-2.85195
-1.86657
-1.21232
-0.79045
-0.519797
-0.337962
-0.21187
-0.124261
-0.0470301
-0.0375832
-14.6114
-14.6606
-14.6977
-14.7206
-14.7308
-14.7354
-14.7479
-14.7867
-14.8724
-15.0256
-15.2641
-15.6008
-16.0423
-16.5875
-17.2277
-17.9454
-18.7155
-19.507
-20.2859
-21.0178
-21.6671
-22.196
-22.5646
-22.7328
-22.6652
-22.3363
-21.735
-20.8672
-19.7558
-18.4384
-16.963
-15.3831
-13.7531
-12.125
-10.5472
-9.06462
-7.72011
-6.55572
-5.61352
-4.9349
-4.56261
-4.53599
-4.89652
-5.68076
-6.90878
-8.56514
-10.572
-12.7765
-14.966
-16.9072
-18.3814
-19.2418
-19.4078
-18.8959
-17.8046
-16.2838
-14.5034
-12.6237
-10.7752
-9.04998
-7.503
-6.15885
-5.01987
-4.0738
-3.30007
-2.67465
-2.17355
-1.77514
-1.46162
-1.21965
-1.04086
-0.921134
-0.861878
-0.868799
-0.952905
-1.13193
-1.43175
-1.89105
-2.57953
-3.62889
-5.19346
-7.27158
-9.55264
-11.3946
-12.2597
-11.8428
-10.3292
-8.26381
-6.17928
-4.39169
-3.00797
-2.01066
-1.32923
-0.877355
-0.58005
-0.376381
-0.235141
-0.135529
-0.0529315
-0.0347155
-14.582
-14.6342
-14.6776
-14.7119
-14.7392
-14.766
-14.8034
-14.866
-14.9703
-15.133
-15.3682
-15.6865
-16.0932
-16.5865
-17.1593
-17.7962
-18.4759
-19.1715
-19.8531
-20.4897
-21.0487
-21.4961
-21.7966
-21.9157
-21.8236
-21.4988
-20.932
-20.1283
-19.1069
-17.8998
-16.5483
-15.099
-13.6007
-12.1007
-10.644
-9.2732
-8.02902
-6.95128
-6.07938
-5.45174
-5.10697
-5.08035
-5.40591
-6.11153
-7.20836
-8.676
-10.4428
-12.3769
-14.2981
-16.0083
-17.3215
-18.1078
-18.2941
-17.8868
-16.9624
-15.6434
-14.0724
-12.388
-10.7067
-9.11409
-7.66447
-6.3856
-5.28477
-4.35524
-3.58174
-2.94491
-2.4247
-2.00269
-1.66355
-1.39585
-1.19245
-1.05001
-0.969989
-0.957783
-1.02346
-1.18312
-1.46037
-1.88946
-2.52696
-3.47368
-4.84793
-6.6511
-8.64614
-10.3219
-11.2249
-11.0478
-9.87317
-8.11198
-6.22679
-4.53477
-3.17487
-2.16253
-1.4507
-0.966071
-0.64024
-0.413728
-0.257187
-0.145413
-0.0584808
-0.0307389
-14.5562
-14.6119
-14.6617
-14.7061
-14.7477
-14.7924
-14.8491
-14.9297
-15.0474
-15.2154
-15.445
-15.7446
-16.1178
-16.5639
-17.0754
-17.6394
-18.2374
-18.8463
-19.4398
-19.9898
-20.4672
-20.8414
-21.0815
-21.1579
-21.0454
-20.7259
-20.1916
-19.4468
-18.5078
-17.4018
-16.1643
-14.8364
-13.4611
-12.0817
-10.7397
-9.47514
-8.32637
-7.33086
-6.52531
-5.94515
-5.62502
-5.59635
-5.88669
-6.51692
-7.49145
-8.78698
-10.3381
-12.0309
-13.7129
-15.2155
-16.3823
-17.0976
-17.2959
-16.9761
-16.1968
-15.0569
-13.6757
-12.1718
-10.6481
-9.18301
-7.82913
-6.61592
-5.55454
-4.64293
-3.87063
-3.22275
-2.68315
-2.2367
-1.87074
-1.57588
-1.34628
-1.17951
-1.07714
-1.04424
-1.08997
-1.2288
-1.48198
-1.88002
-2.4699
-3.32993
-4.55049
-6.13426
-7.90051
-9.44262
-10.3743
-10.3916
-9.49944
-8.00242
-6.29807
-4.6945
-3.35424
-2.32285
-1.57679
-1.05632
-0.699901
-0.449536
-0.277618
-0.153591
-0.0635489
-0.0254984
-14.5329
-14.5923
-14.6481
-14.7013
-14.7547
-14.8135
-14.885
-14.9788
-15.1055
-15.2753
-15.4974
-15.7781
-16.1202
-16.5225
-16.9783
-17.4763
-18.0006
-18.5309
-19.0444
-19.5161
-19.9199
-20.2288
-20.4158
-20.4554
-20.3262
-20.013
-19.5094
-18.8188
-17.9553
-16.9419
-15.8096
-14.5939
-13.3334
-12.0671
-10.8333
-9.66909
-8.61056
-7.69263
-6.94929
-6.41303
-6.11475
-6.08212
-6.33735
-6.89564
-7.75649
-8.89515
-10.2524
-11.7299
-13.1987
-14.5158
-15.5492
-16.1973
-16.401
-16.1546
-15.5014
-14.5211
-13.3121
-11.9753
-10.6004
-9.25828
-7.99864
-6.85151
-5.83078
-4.93832
-4.16799
-3.50915
-2.94955
-2.47752
-2.08319
-1.75943
-1.50179
-1.30891
-1.18249
-1.12726
-1.15153
-1.26813
-1.49593
-1.86199
-2.40611
-3.19064
-4.2855
-5.69448
-7.27913
-8.71327
-9.66522
-9.84215
-9.19265
-7.93274
-6.39587
-4.87408
-3.54835
-2.49281
-1.7078
-1.14788
-0.758589
-0.483273
-0.295973
-0.159673
-0.0679822
-0.0187744
-14.5121
-14.5749
-14.636
-14.6967
-14.7596
-14.8292
-14.9116
-15.0146
-15.1464
-15.3152
-15.528
-15.7897
-16.1022
-16.4639
-16.8689
-17.3073
-17.765
-18.2247
-18.6662
-19.0676
-19.4056
-19.6565
-19.7968
-19.8047
-19.662
-19.356
-18.8812
-18.2407
-17.4463
-16.5179
-15.4822
-14.3704
-13.2166
-12.0559
-10.9236
-9.85385
-8.88021
-8.03506
-7.3497
-6.85371
-6.57458
-6.53628
-6.75688
-7.24687
-8.0023
-8.99815
-10.1811
-11.4666
-12.7454
-13.8968
-14.8092
-15.394
-15.5986
-15.4135
-14.8705
-14.0326
-12.9804
-11.7987
-10.5648
-9.34155
-8.17493
-7.09436
-6.11548
-5.24327
-4.47543
-3.80538
-3.2248
-2.72558
-2.30092
-1.94614
-1.65837
-1.43738
-1.28505
-1.20584
-1.20712
-1.30017
-1.50146
-1.83476
-2.33407
-3.05031
-4.03894
-5.30538
-6.74274
-8.08865
-9.05777
-9.37447
-8.94417
-7.90411
-6.52445
-5.07767
-3.7602
-2.67402
-1.84426
-1.24049
-0.815818
-0.514334
-0.311719
-0.16322
-0.0716195
-0.0103244
-14.4923
-14.5583
-14.624
-14.6906
-14.7608
-14.8384
-14.9285
-15.0372
-15.1711
-15.3365
-15.5388
-15.7816
-16.066
-16.3903
-16.749
-17.1333
-17.5312
-17.9274
-18.3043
-18.6426
-18.922
-19.1216
-19.2213
-19.2022
-19.0489
-18.7507
-18.3031
-17.7088
-16.9779
-16.1274
-15.1805
-14.1644
-13.1095
-12.0473
-11.0097
-10.0284
-9.13418
-8.35692
-7.72524
-7.26594
-7.00335
-6.95802
-7.14471
-7.57012
-8.22807
-9.09405
-10.1205
-11.2348
-12.3443
-13.3478
-14.1507
-14.6766
-14.8786
-14.7451
-14.2986
-13.5882
-12.6794
-11.6422
-10.5424
-9.43464
-8.36016
-7.34686
-6.41105
-5.56007
-4.79499
-4.11307
-3.51001
-2.98149
-2.52403
-2.13563
-1.81531
-1.56393
-1.38373
-1.27881
-1.25565
-1.32393
-1.49781
-1.79781
-2.25298
-2.90561
-3.801
-4.94679
-6.26081
-7.5357
-8.52639
-8.97544
-8.75172
-7.9201
-6.68935
-5.3106
-3.99368
-2.86859
-1.98685
-1.33387
-0.870984
-0.541993
-0.324227
-0.163716
-0.0742705
0.000145475
-14.474
-14.5426
-14.6119
-14.6832
-14.7588
-14.842
-14.9369
-15.0485
-15.1818
-15.3418
-15.5326
-15.7566
-16.0143
-16.3038
-16.6203
-16.9558
-17.2998
-17.639
-17.9582
-18.2403
-18.4678
-18.6224
-18.6867
-18.6447
-18.4833
-18.1935
-17.7716
-17.2199
-16.5472
-15.7681
-14.9027
-13.9748
-13.0112
-12.0403
-11.0909
-10.1919
-9.37157
-8.65726
-8.075
-7.64888
-7.40036
-7.34697
-7.50062
-7.86523
-8.43328
-9.18128
-10.0672
-11.0287
-11.9876
-12.8593
-13.5633
-14.0346
-14.2317
-14.1418
-13.7802
-13.1848
-12.4077
-11.5061
-10.5345
-9.5395
-8.55686
-7.61184
-6.72046
-5.89161
-5.12924
-4.43433
-3.80667
-3.24606
-2.7527
-2.32753
-1.97179
-1.6875
-1.47728
-1.3449
-1.29587
-1.3383
-1.48407
-1.75059
-2.16247
-2.75515
-3.56676
-4.60781
-5.81813
-7.03861
-8.05939
-8.63965
-8.61595
-7.98568
-6.89761
-5.57963
-4.25367
-3.07908
-2.13621
-1.42778
-0.923309
-0.565387
-0.332761
-0.16058
-0.0757209
0.0129483
-14.4555
-14.5262
-14.5982
-14.6727
-14.7519
-14.8386
-14.936
-15.0481
-15.1789
-15.332
-15.5104
-15.7159
-15.9484
-16.2059
-16.4838
-16.7752
-17.0709
-17.3592
-17.6269
-17.8593
-18.041