/*--------------------------------*- C++ -*----------------------------------*\
| =========                 |                                                 |
| \\      /  F ield         | OpenFOAM: The Open Source CFD Toolbox           |
|  \\    /   O peration     | Version:  2.1.1                                 |
|   \\  /    A nd           | Web:      www.OpenFOAM.org                      |
|    \\/     M anipulation  |                                                 |
\*---------------------------------------------------------------------------*/
FoamFile
{
    version     2.0;
    format      ascii;
    class       surfaceScalarField;
    location    "0.13";
    object      phi;
}
// * * * * * * * * * * * * * * * * * * * * * * * * * * * * * * * * * * * * * //

dimensions      [0 3 -1 0 0 0 0];

internalField   nonuniform List<scalar> 
13452
(
4.59964e-05
2.24909e-05
2.96566e-05
1.63397e-05
2.11741e-05
8.48256e-06
1.72651e-05
3.909e-06
1.56137e-05
1.65136e-06
1.47952e-05
8.18494e-07
1.4273e-05
5.22188e-07
1.38703e-05
4.0276e-07
1.35268e-05
3.43432e-07
1.32272e-05
2.99632e-07
1.29667e-05
2.60546e-07
1.27411e-05
2.25529e-07
1.25461e-05
1.95002e-07
1.23771e-05
1.69034e-07
1.22298e-05
1.47259e-07
1.21007e-05
1.2911e-07
1.19867e-05
1.14007e-07
1.18853e-05
1.01439e-07
1.17943e-05
9.09825e-08
1.1712e-05
8.22989e-08
1.16369e-05
7.51175e-08
1.15677e-05
6.92192e-08
1.15032e-05
6.44167e-08
1.14427e-05
6.05499e-08
1.13853e-05
5.74278e-08
1.13303e-05
5.49499e-08
1.12777e-05
5.26185e-08
1.12267e-05
5.10055e-08
1.11796e-05
4.70552e-08
1.1131e-05
4.85971e-08
1.11e-05
3.10311e-08
1.10256e-05
7.4436e-08
-1.15213e-07
1.11408e-05
7.49111e-05
1.80238e-05
7.0405e-05
2.08458e-05
6.33057e-05
1.55818e-05
5.66387e-05
1.05761e-05
5.15081e-05
6.78194e-06
4.78373e-05
4.48934e-06
4.52004e-05
3.15907e-06
4.32555e-05
2.34765e-06
4.17695e-05
1.82941e-06
4.05926e-05
1.47653e-06
3.96324e-05
1.2207e-06
3.8831e-05
1.02694e-06
3.81504e-05
8.7568e-07
3.75644e-05
7.54981e-07
3.70546e-05
6.57026e-07
3.66073e-05
5.76447e-07
3.62119e-05
5.09436e-07
3.58601e-05
4.53231e-07
3.55453e-05
4.05804e-07
3.52619e-05
3.65635e-07
3.50055e-05
3.31568e-07
3.4772e-05
3.02705e-07
3.45581e-05
2.78323e-07
3.43608e-05
2.57823e-07
3.41776e-05
2.40652e-07
3.40062e-05
2.26346e-07
3.38447e-05
2.14135e-07
3.36917e-05
2.03951e-07
3.3546e-05
1.92747e-07
3.341e-05
1.84634e-07
3.32824e-05
1.58642e-07
3.32118e-05
1.45068e-07
4.04035e-08
3.30561e-05
7.85207e-05
1.19596e-05
8.23318e-05
1.70348e-05
8.29834e-05
1.49301e-05
8.14572e-05
1.21023e-05
7.89197e-05
9.31945e-06
7.62152e-05
7.19384e-06
7.36759e-05
5.69839e-06
7.14057e-05
4.61791e-06
6.94181e-05
3.81693e-06
6.76891e-05
3.20553e-06
6.61855e-05
2.72431e-06
6.48753e-05
2.33713e-06
6.37301e-05
2.02093e-06
6.27253e-05
1.75975e-06
6.18404e-05
1.54197e-06
6.10578e-05
1.35897e-06
6.03631e-05
1.20421e-06
5.97437e-05
1.07262e-06
5.91892e-05
9.60281e-07
5.86907e-05
8.64099e-07
5.82407e-05
7.81623e-07
5.78325e-05
7.10885e-07
5.74605e-05
6.50278e-07
5.71199e-05
5.98467e-07
5.68063e-05
5.54279e-07
5.65159e-05
5.16688e-07
5.62456e-05
4.84514e-07
5.59926e-05
4.56947e-07
5.57539e-05
4.31422e-07
5.55298e-05
4.08761e-07
5.53105e-05
3.77926e-07
5.51057e-05
3.49885e-07
2.94983e-07
5.48511e-05
7.81463e-05
8.33991e-06
8.19216e-05
1.32595e-05
8.46157e-05
1.2236e-05
8.62347e-05
1.04833e-05
8.69066e-05
8.64754e-06
8.69836e-05
7.11691e-06
8.67077e-05
5.97427e-06
8.62213e-05
5.10425e-06
8.56163e-05
4.42197e-06
8.49486e-05
3.87324e-06
8.42531e-05
3.41978e-06
8.35529e-05
3.03738e-06
8.28638e-05
2.70999e-06
8.21968e-05
2.42673e-06
8.15585e-05
2.18033e-06
8.09524e-05
1.96509e-06
8.03801e-05
1.77643e-06
7.98421e-05
1.61066e-06
7.93376e-05
1.46477e-06
7.88654e-05
1.33628e-06
7.84239e-05
1.22316e-06
7.80111e-05
1.12367e-06
7.7625e-05
1.03635e-06
7.72636e-05
9.59912e-07
7.69247e-05
8.93195e-07
7.66062e-05
8.35113e-07
7.63063e-05
7.84476e-07
7.6023e-05
7.40233e-07
7.5754e-05
7.00408e-07
7.54984e-05
6.64403e-07
7.52491e-05
6.27246e-07
7.50075e-05
5.91451e-07
5.55281e-07
7.47472e-05
7.89909e-05
6.00483e-06
8.1589e-05
1.06614e-05
8.35139e-05
1.0311e-05
8.49557e-05
9.04152e-06
8.59714e-05
7.63185e-06
8.67091e-05
6.37913e-06
8.72707e-05
5.41268e-06
8.77036e-05
4.67139e-06
8.80388e-05
4.08675e-06
8.82973e-05
3.61477e-06
8.84932e-05
3.2239e-06
8.86374e-05
2.89309e-06
8.8738e-05
2.60943e-06
8.8801e-05
2.36377e-06
8.88325e-05
2.14877e-06
8.88384e-05
1.95926e-06
8.88234e-05
1.79142e-06
8.87918e-05
1.64228e-06
8.8747e-05
1.50951e-06
8.86921e-05
1.39122e-06
8.86293e-05
1.28588e-06
8.85608e-05
1.19218e-06
8.84881e-05
1.10905e-06
8.84125e-05
1.0355e-06
8.83351e-05
9.7065e-07
8.82566e-05
9.13641e-07
8.81775e-05
8.63536e-07
8.80983e-05
8.19435e-07
8.80187e-05
7.80004e-07
8.79386e-05
7.44456e-07
8.7855e-05
7.1088e-07
8.77664e-05
6.80062e-07
6.54697e-07
8.7667e-05
8.04626e-05
4.38817e-06
8.25029e-05
8.62109e-06
8.39861e-05
8.82788e-06
8.50417e-05
7.98589e-06
8.57599e-05
6.91371e-06
8.62691e-05
5.86989e-06
8.66707e-05
5.01107e-06
8.70117e-05
4.33036e-06
8.73152e-05
3.7833e-06
8.75924e-05
3.33752e-06
8.78483e-05
2.96807e-06
8.8085e-05
2.65631e-06
8.83049e-05
2.38952e-06
8.85098e-05
2.15893e-06
8.87005e-05
1.95805e-06
8.88779e-05
1.78189e-06
8.90427e-05
1.62662e-06
8.91957e-05
1.48925e-06
8.93378e-05
1.36742e-06
8.94698e-05
1.25921e-06
8.95926e-05
1.16307e-06
8.97071e-05
1.07773e-06
8.9814e-05
1.00208e-06
8.99144e-05
9.35179e-07
9.00089e-05
8.76162e-07
9.00983e-05
8.24212e-07
9.01833e-05
7.78484e-07
9.02646e-05
7.38173e-07
9.03423e-05
7.02286e-07
9.04166e-05
6.70143e-07
9.04868e-05
6.40754e-07
9.05524e-05
6.14413e-07
5.91602e-07
9.06155e-05
8.22336e-05
3.25311e-06
8.38921e-05
6.96258e-06
8.51768e-05
7.54315e-06
8.61064e-05
7.05634e-06
8.67429e-05
6.27719e-06
8.71765e-05
5.43636e-06
8.74948e-05
4.69276e-06
8.77471e-05
4.07798e-06
8.79602e-05
3.57023e-06
8.81493e-05
3.14842e-06
8.83226e-05
2.7948e-06
8.84843e-05
2.49461e-06
8.86368e-05
2.23699e-06
8.87817e-05
2.01406e-06
8.89199e-05
1.81986e-06
8.9052e-05
1.64975e-06
8.91786e-05
1.50009e-06
8.92998e-05
1.36799e-06
8.94161e-05
1.25113e-06
8.95277e-05
1.14762e-06
8.96349e-05
1.05589e-06
8.9738e-05
9.74638e-07
8.98373e-05
9.02758e-07
8.99332e-05
8.39277e-07
9.0026e-05
7.83319e-07
9.01162e-05
7.34077e-07
9.02039e-05
6.90754e-07
9.02895e-05
6.52609e-07
9.03729e-05
6.18848e-07
9.04541e-05
5.88899e-07
9.05328e-05
5.62117e-07
9.06086e-05
5.38601e-07
5.18208e-07
9.0682e-05
8.42161e-05
2.4526e-06
8.55482e-05
5.63042e-06
8.66673e-05
6.42402e-06
8.75207e-05
6.20296e-06
8.81414e-05
5.65654e-06
8.85821e-05
4.99565e-06
8.89081e-05
4.36676e-06
8.91629e-05
3.82311e-06
8.93723e-05
3.36091e-06
8.9552e-05
2.96864e-06
8.97118e-05
2.63503e-06
8.98571e-05
2.3493e-06
8.99914e-05
2.10267e-06
9.0117e-05
1.88848e-06
9.02354e-05
1.70149e-06
9.03476e-05
1.53751e-06
9.04545e-05
1.3932e-06
9.05567e-05
1.26584e-06
9.06546e-05
1.15322e-06
9.07487e-05
1.05354e-06
9.08393e-05
9.65286e-07
9.09267e-05
8.87176e-07
9.10113e-05
8.18127e-07
9.10934e-05
7.57189e-07
9.11732e-05
7.03514e-07
9.1251e-05
6.56331e-07
9.13268e-05
6.14913e-07
9.14008e-05
5.78603e-07
9.14729e-05
5.46767e-07
9.15429e-05
5.18946e-07
9.16103e-05
4.94714e-07
9.16748e-05
4.74072e-07
4.56981e-07
9.1736e-05
8.63714e-05
1.87988e-06
8.74389e-05
4.56299e-06
8.84073e-05
5.45556e-06
8.91807e-05
5.42962e-06
8.9772e-05
5.06524e-06
9.02118e-05
4.55582e-06
9.05472e-05
4.03134e-06
9.08146e-05
3.55571e-06
9.10365e-05
3.13905e-06
9.12273e-05
2.77781e-06
9.13963e-05
2.46601e-06
9.15492e-05
2.19639e-06
9.16897e-05
1.9622e-06
9.18202e-05
1.75795e-06
9.19426e-05
1.57916e-06
9.2058e-05
1.42211e-06
9.21674e-05
1.28378e-06
9.22716e-05
1.16165e-06
9.23711e-05
1.05368e-06
9.24665e-05
9.58141e-07
9.25582e-05
8.73589e-07
9.26466e-05
7.98802e-07
9.2732e-05
7.32732e-07
9.28147e-05
6.74465e-07
9.2895e-05
6.23194e-07
9.29732e-05
5.78199e-07
9.30492e-05
5.38828e-07
9.31233e-05
5.04511e-07
9.31954e-05
4.74744e-07
9.32651e-05
4.49175e-07
9.33323e-05
4.27546e-07
9.33965e-05
4.09858e-07
3.96333e-07
9.34572e-05
8.86669e-05
1.46295e-06
8.95223e-05
3.70762e-06
9.03572e-05
4.62064e-06
9.1055e-05
4.73187e-06
9.16126e-05
4.50764e-06
9.20452e-05
4.12323e-06
9.23846e-05
3.69192e-06
9.26599e-05
3.28039e-06
9.28906e-05
2.90836e-06
9.30898e-05
2.57858e-06
9.32665e-05
2.28936e-06
9.34263e-05
2.03656e-06
9.35731e-05
1.8154e-06
9.37095e-05
1.62157e-06
9.38373e-05
1.45135e-06
9.39579e-05
1.30155e-06
9.40722e-05
1.16947e-06
9.4181e-05
1.05281e-06
9.4285e-05
9.49682e-07
9.43847e-05
8.58454e-07
9.44805e-05
7.77759e-07
9.45729e-05
7.06427e-07
9.46622e-05
6.43454e-07
9.47487e-05
5.87968e-07
9.48327e-05
5.39207e-07
9.49144e-05
4.96504e-07
9.49939e-05
4.59276e-07
9.50714e-05
4.27031e-07
9.51468e-05
3.9937e-07
9.52199e-05
3.76031e-07
9.52906e-05
3.56877e-07
9.53585e-05
3.41958e-07
3.3167e-07
9.54231e-05
9.10807e-05
1.15358e-06
9.1768e-05
3.02025e-06
9.24868e-05
3.90188e-06
9.31156e-05
4.10307e-06
9.36386e-05
3.98464e-06
9.406e-05
3.70181e-06
9.43999e-05
3.35205e-06
9.46806e-05
2.99969e-06
9.49186e-05
2.67034e-06
9.51256e-05
2.37161e-06
9.53097e-05
2.10524e-06
9.54765e-05
1.86973e-06
9.56298e-05
1.6621e-06
9.57722e-05
1.47917e-06
9.59056e-05
1.31795e-06
9.60314e-05
1.17576e-06
9.61507e-05
1.05022e-06
9.62642e-05
9.39281e-07
9.63727e-05
8.41192e-07
9.64767e-05
7.54442e-07
9.65767e-05
6.77741e-07
9.66732e-05
6.0998e-07
9.67664e-05
5.50204e-07
9.68568e-05
4.97587e-07
9.69446e-05
4.51415e-07
9.703e-05
4.11072e-07
9.71133e-05
3.76037e-07
9.71944e-05
3.45885e-07
9.72735e-05
3.20295e-07
9.73505e-05
2.99076e-07
9.74252e-05
2.82171e-07
9.74975e-05
2.69669e-07
2.62022e-07
9.75671e-05
9.3599e-05
9.19205e-07
9.41542e-05
2.46511e-06
9.47722e-05
3.28381e-06
9.53377e-05
3.53758e-06
9.58259e-05
3.49645e-06
9.62336e-05
3.29409e-06
9.65719e-05
3.0138e-06
9.68568e-05
2.71476e-06
9.71017e-05
2.42543e-06
9.73165e-05
2.15684e-06
9.75084e-05
1.91331e-06
9.76827e-05
1.69544e-06
9.78431e-05
1.50177e-06
9.7992e-05
1.33017e-06
9.81316e-05
1.17836e-06
9.82633e-05
1.04414e-06
9.8388e-05
9.25455e-07
9.85068e-05
8.20506e-07
9.86203e-05
7.27691e-07
9.87291e-05
6.45619e-07
9.88338e-05
5.73084e-07
9.89347e-05
5.0904e-07
9.90323e-05
4.52586e-07
9.9127e-05
4.02944e-07
9.92189e-05
3.59446e-07
9.93085e-05
3.21524e-07
9.93958e-05
2.8871e-07
9.94811e-05
2.60633e-07
9.95643e-05
2.37028e-07
9.96457e-05
2.17749e-07
9.97251e-05
2.02781e-07
9.98025e-05
1.92229e-07
1.86519e-07
9.9878e-05
9.62134e-05
7.37855e-07
9.66649e-05
2.0136e-06
9.71967e-05
2.75207e-06
9.77048e-05
3.02947e-06
9.81592e-05
3.04203e-06
9.85515e-05
2.90177e-06
9.8886e-05
2.67934e-06
9.91734e-05
2.42737e-06
9.94239e-05
2.17485e-06
9.96459e-05
1.93493e-06
9.98454e-05
1.71373e-06
0.000100027
1.51347e-06
0.000100195
1.33398e-06
0.000100351
1.17402e-06
0.000100498
1.03196e-06
0.000100636
9.06037e-07
0.000100767
7.94541e-07
0.000100891
6.95876e-07
0.00010101
6.08603e-07
0.000101125
5.31447e-07
0.000101234
4.63285e-07
0.00010134
4.0314e-07
0.000101443
3.50163e-07
0.000101542
3.03623e-07
0.000101639
2.62897e-07
0.000101733
2.27461e-07
0.000101825
1.96887e-07
0.000101914
1.70847e-07
0.000102002
1.4911e-07
0.000102088
1.31554e-07
0.000102173
1.18174e-07
0.000102256
1.0906e-07
1.04554e-07
0.000102338
9.8919e-05
5.94566e-07
9.92895e-05
1.64309e-06
9.9748e-05
2.29362e-06
0.000100205
2.57291e-06
0.000100627
2.6199e-06
0.000101003
2.52594e-06
0.000101331
2.35038e-06
0.00010162
2.13898e-06
0.000101875
1.91959e-06
0.000102104
1.70639e-06
0.000102311
1.50666e-06
0.0001025
1.32375e-06
0.000102676
1.15848e-06
0.00010284
1.01039e-06
0.000102993
8.78371e-07
0.000103138
7.61081e-07
0.000103276
6.5709e-07
0.000103406
5.65012e-07
0.000103531
4.83563e-07
0.000103651
4.11576e-07
0.000103767
3.48015e-07
0.000103878
2.91967e-07
0.000103985
2.42636e-07
0.00010409
1.99338e-07
0.000104191
1.61489e-07
0.00010429
1.28602e-07
0.000104386
1.00283e-07
0.000104481
7.62281e-08
0.000104574
5.62277e-08
0.000104665
4.01632e-08
0.000104756
2.80125e-08
0.000104845
1.98278e-08
1.58416e-08
0.000104933
0.000101713
4.79029e-07
0.000102021
1.33581e-06
0.000102417
1.89677e-06
0.000102828
2.16211e-06
0.00010322
2.22789e-06
0.000103579
2.16676e-06
0.000103902
2.02804e-06
0.00010419
1.85075e-06
0.000104449
1.66061e-06
0.000104683
1.4719e-06
0.000104898
1.29248e-06
0.000105095
1.12641e-06
0.000105278
9.75245e-07
0.000105449
8.39102e-07
0.000105611
7.17341e-07
0.000105763
6.0895e-07
0.000105907
5.12755e-07
0.000106044
4.27561e-07
0.000106176
3.52221e-07
0.000106302
2.85672e-07
0.000106423
2.26956e-07
0.000106539
1.75223e-07
0.000106652
1.29728e-07
0.000106762
8.98267e-08
0.000106868
5.49719e-08
0.000106972
2.47065e-08
0.000107074
-1.3394e-09
0.000107174
-2.34529e-08
0.000107272
-4.18397e-08
0.000107368
-5.66281e-08
0.000107464
-6.78716e-08
0.00010756
-7.55692e-08
-7.96005e-08
0.000107655
0.000104595
3.84029e-07
0.000104853
1.07788e-06
0.000105199
1.55121e-06
0.00010557
1.79143e-06
0.000105934
1.86349e-06
0.000106277
1.82384e-06
0.000106592
1.71294e-06
0.000106879
1.56356e-06
0.000107141
1.39866e-06
0.000107381
1.23198e-06
0.000107602
1.07146e-06
0.000107807
9.21525e-07
0.000107998
7.84189e-07
0.000108177
6.59987e-07
0.000108346
5.4863e-07
0.000108505
4.49376e-07
0.000108657
3.61262e-07
0.000108801
2.83252e-07
0.000108939
2.14319e-07
0.000109071
1.53494e-07
0.000109198
9.98894e-08
0.000109321
5.27116e-08
0.000109439
1.12609e-08
0.000109554
-2.50687e-08
0.000109666
-5.67943e-08
0.000109775
-8.43485e-08
0.000109882
-1.08085e-07
0.000109987
-1.28282e-07
0.00011009
-1.45151e-07
0.000110192
-1.58838e-07
0.000110294
-1.69437e-07
0.000110395
-1.77002e-07
-1.8152e-07
0.000110497
0.000107566
3.04422e-07
0.000107785
8.58452e-07
0.000108088
1.24795e-06
0.000108424
1.45543e-06
0.000108764
1.52385e-06
0.000109092
1.49618e-06
0.000109399
1.40514e-06
0.000109685
1.27783e-06
0.00010995
1.13424e-06
0.000110195
9.87018e-07
0.000110422
8.4385e-07
0.000110634
7.09193e-07
0.000110833
5.85285e-07
0.00011102
4.72925e-07
0.000111197
3.72056e-07
0.000111364
2.82137e-07
0.000111523
2.02366e-07
0.000111675
1.31832e-07
0.000111819
6.96092e-08
0.000111958
1.48048e-08
0.000112091
-3.34067e-08
0.00011222
-7.57703e-08
0.000112344
-1.12945e-07
0.000112464
-1.45506e-07
0.000112582
-1.73943e-07
0.000112696
-1.9867e-07
0.000112808
-2.2003e-07
0.000112918
-2.383e-07
0.000113026
-2.53698e-07
0.000113134
-2.66394e-07
0.000113241
-2.76518e-07
0.000113348
-2.84176e-07
-2.89436e-07
0.000113456
0.000110625
2.36456e-07
0.000110814
6.69015e-07
0.000111083
9.79201e-07
0.00011139
1.14889e-06
0.000111707
1.20593e-06
0.000112021
1.18236e-06
0.000112322
1.10422e-06
0.000112606
9.93624e-07
0.000112873
8.67525e-07
0.000113123
7.37205e-07
0.000113357
6.09749e-07
0.000113577
4.89412e-07
0.000113784
3.78447e-07
0.000113979
2.77759e-07
0.000114163
1.87422e-07
0.000114339
1.07014e-07
0.000114505
3.58439e-08
0.000114664
-2.69107e-08
0.000114816
-8.21034e-08
0.000114961
-1.30566e-07
0.000115101
-1.73074e-07
0.000115235
-2.10334e-07
0.000115365
-2.42971e-07
0.000115491
-2.71531e-07
0.000115614
-2.96486e-07
0.000115733
-3.18234e-07
0.00011585
-3.37109e-07
0.000115965
-3.53389e-07
0.000116079
-3.67301e-07
0.000116192
-3.79036e-07
0.000116304
-3.88757e-07
0.000116416
-3.96615e-07
-4.02743e-07
0.00011653
0.000113775
1.77333e-07
0.000113941
5.02833e-07
0.000114182
7.38234e-07
0.000114464
8.66919e-07
0.000114763
9.06524e-07
0.000115065
8.80529e-07
0.00011536
8.09299e-07
0.000115643
7.10574e-07
0.000115912
5.98388e-07
0.000116167
4.82459e-07
0.000116408
3.69063e-07
0.000116635
2.62043e-07
0.00011685
1.63486e-07
0.000117053
7.42659e-08
0.000117246
-5.51949e-09
0.00011743
-7.62493e-08
0.000117604
-1.38559e-07
0.00011777
-1.93221e-07
0.000117929
-2.41043e-07
0.000118081
-2.82817e-07
0.000118228
-3.19283e-07
0.000118368
-3.51116e-07
0.000118504
-3.78917e-07
0.000118636
-4.03209e-07
0.000118764
-4.24446e-07
0.000118889
-4.43013e-07
0.000119011
-4.59239e-07
0.000119131
-4.73401e-07
0.000119249
-4.85734e-07
0.000119367
-4.96443e-07
0.000119484
-5.05714e-07
0.000119601
-5.13724e-07
-5.20643e-07
0.000119719
0.000117017
1.24904e-07
0.000117165
3.54508e-07
0.000117384
5.19221e-07
0.000117646
6.04857e-07
0.00011793
6.22334e-07
0.000118222
5.88537e-07
0.000118513
5.19083e-07
0.000118795
4.27919e-07
0.000119067
3.26356e-07
0.000119327
2.22457e-07
0.000119575
1.21529e-07
0.00011981
2.68384e-08
0.000120033
-5.9842e-08
0.000120245
-1.37799e-07
0.000120447
-2.0701e-07
0.000120639
-2.67878e-07
0.000120821
-3.21045e-07
0.000120995
-3.67272e-07
0.000121161
-4.07351e-07
0.000121321
-4.42051e-07
0.000121473
-4.72096e-07
0.00012162
-4.98139e-07
0.000121762
-5.2076e-07
0.0001219
-5.40468e-07
0.000122033
-5.577e-07
0.000122163
-5.72832e-07
0.00012229
-5.86184e-07
0.000122414
-5.98031e-07
0.000122537
-6.08611e-07
0.000122659
-6.18138e-07
0.00012278
-6.2681e-07
0.000122901
-6.34823e-07
-6.42367e-07
0.000123023
0.000120353
7.74705e-08
0.000120488
2.19627e-07
0.000120691
3.17056e-07
0.000120937
3.58299e-07
0.000121209
3.49945e-07
0.000121494
3.03898e-07
0.000121781
2.31846e-07
0.000122065
1.44463e-07
0.000122341
5.05529e-08
0.000122607
-4.34912e-08
0.000122862
-1.33442e-07
0.000123105
-2.16732e-07
0.000123337
-2.92032e-07
0.000123558
-3.589e-07
0.000123769
-4.17479e-07
0.000123969
-4.68269e-07
0.00012416
-5.11971e-07
0.000124342
-5.49376e-07
0.000124516
-5.81287e-07
0.000124683
-6.08479e-07
0.000124842
-6.31668e-07
0.000124996
-6.51498e-07
0.000125143
-6.68539e-07
0.000125286
-6.83285e-07
0.000125425
-6.96162e-07
0.000125559
-7.07533e-07
0.000125691
-7.17711e-07
0.00012582
-7.26963e-07
0.000125947
-7.35523e-07
0.000126072
-7.43602e-07
0.000126197
-7.51398e-07
0.000126321
-7.59103e-07
-7.66895e-07
0.000126446
0.000123787
3.36451e-08
0.000123912
9.4485e-08
0.000124102
1.27193e-07
0.000124337
1.23019e-07
0.000124601
8.58436e-08
0.000124881
2.38493e-08
0.000125168
-5.45005e-08
0.000125454
-1.41359e-07
0.000125734
-2.30208e-07
0.000126007
-3.16309e-07
0.00012627
-3.96585e-07
0.000126523
-4.69269e-07
0.000126764
-5.33583e-07
0.000126995
-5.89453e-07
0.000127215
-6.37269e-07
0.000127424
-6.77698e-07
0.000127624
-7.11549e-07
0.000127814
-7.39683e-07
0.000127996
-7.62946e-07
0.000128169
-7.82136e-07
0.000128336
-7.97978e-07
0.000128495
-8.11119e-07
0.000128649
-8.22121e-07
0.000128797
-8.3147e-07
0.000128941
-8.3958e-07
0.00012908
-8.46803e-07
0.000129216
-8.53438e-07
0.000129348
-8.5974e-07
0.000129479
-8.65933e-07
0.000129607
-8.72219e-07
0.000129735
-8.78784e-07
0.000129861
-8.85816e-07
-8.9348e-07
0.000129988
0.00012732
-7.75683e-09
0.000127439
-2.41336e-08
0.00012762
-5.45307e-08
0.000127848
-1.05122e-07
0.000128108
-1.73667e-07
0.000128387
-2.54742e-07
0.000128675
-3.42539e-07
0.000128965
-4.31661e-07
0.000129252
-5.17684e-07
0.000129534
-5.97485e-07
0.000129806
-6.69184e-07
0.000130069
-7.31896e-07
0.000130321
-7.8548e-07
0.000130561
-8.30321e-07
0.000130791
-8.67132e-07
0.00013101
-8.96809e-07
0.000131219
-9.20321e-07
0.000131418
-9.38635e-07
0.000131608
-9.52671e-07
0.000131789
-9.63269e-07
0.000131962
-9.71182e-07
0.000132128
-9.77065e-07
0.000132288
-9.81483e-07
0.000132441
-9.84913e-07
0.000132589
-9.87758e-07
0.000132733
-9.90355e-07
0.000132872
-9.92987e-07
0.000133008
-9.95892e-07
0.000133142
-9.99272e-07
0.000133273
-1.00331e-06
0.000133402
-1.00816e-06
0.00013353
-1.01398e-06
-1.0209e-06
0.000133658
0.000130955
-4.78027e-08
0.00013107
-1.39151e-07
0.000131247
-2.32055e-07
0.000131473
-3.30254e-07
0.000131731
-4.32444e-07
0.000132012
-5.35272e-07
0.000132305
-6.35137e-07
0.000132602
-7.28806e-07
0.000132898
-8.13796e-07
0.000133189
-8.8857e-07
0.000133472
-9.52487e-07
0.000133746
-1.00561e-06
0.000134009
-1.04852e-06
0.000134261
-1.08213e-06
0.000134501
-1.10756e-06
0.00013473
-1.12597e-06
0.000134949
-1.13855e-06
0.000135156
-1.1464e-06
0.000135354
-1.15054e-06
0.000135543
-1.15188e-06
0.000135723
-1.15121e-06
0.000135895
-1.1492e-06
0.00013606
-1.14641e-06
0.000136218
-1.14334e-06
0.000136371
-1.14035e-06
0.000136518
-1.13778e-06
0.000136661
-1.13588e-06
0.0001368
-1.13487e-06
0.000136936
-1.13493e-06
0.000137069
-1.1362e-06
0.000137199
-1.13883e-06
0.000137328
-1.14294e-06
-1.14861e-06
0.000137456
0.000134695
-8.74861e-08
0.000134809
-2.53367e-07
0.000134986
-4.09309e-07
0.000135213
-5.5673e-07
0.000135475
-6.94823e-07
0.000135762
-8.21829e-07
0.000136063
-9.36025e-07
0.00013637
-1.03613e-06
0.000136678
-1.1215e-06
0.000136981
-1.19217e-06
0.000137278
-1.24877e-06
0.000137564
-1.29239e-06
0.00013784
-1.3244e-06
0.000138104
-1.34632e-06
0.000138357
-1.35973e-06
0.000138597
-1.36615e-06
0.000138825
-1.36699e-06
0.000139042
-1.36355e-06
0.000139249
-1.35697e-06
0.000139445
-1.34823e-06
0.000139632
-1.33817e-06
0.00013981
-1.3275e-06
0.000139981
-1.31679e-06
0.000140144
-1.3065e-06
0.000140301
-1.29701e-06
0.000140451
-1.28863e-06
0.000140597
-1.28158e-06
0.000140738
-1.27605e-06
0.000140876
-1.27217e-06
0.000141009
-1.27007e-06
0.00014114
-1.26982e-06
0.000141269
-1.2715e-06
-1.27512e-06
0.000141395
0.000138543
-1.2781e-07
0.000138659
-3.69595e-07
0.00013884
-5.90295e-07
0.000139072
-7.89043e-07
0.000139343
-9.65279e-07
0.000139639
-1.11856e-06
0.000139952
-1.24887e-06
0.000140273
-1.35678e-06
0.000140595
-1.44343e-06
0.000140913
-1.51045e-06
0.000141224
-1.55981e-06
0.000141525
-1.59367e-06
0.000141815
-1.61428e-06
0.000142093
-1.62383e-06
0.000142357
-1.62441e-06
0.000142609
-1.61793e-06
0.000142848
-1.60609e-06
0.000143075
-1.5904e-06
0.00014329
-1.57214e-06
0.000143494
-1.5524e-06
0.000143688
-1.53206e-06
0.000143873
-1.51186e-06
0.000144048
-1.4924e-06
0.000144216
-1.47412e-06
0.000144376
-1.45739e-06
0.00014453
-1.44248e-06
0.000144678
-1.4296e-06
0.000144821
-1.41887e-06
0.000144959
-1.41042e-06
0.000145093
-1.4043e-06
0.000145224
-1.40056e-06
0.000145352
-1.39924e-06
-1.40031e-06
0.000145477
0.000142501
-1.69887e-07
0.000142623
-4.90985e-07
0.000142812
-7.79657e-07
0.000143056
-1.03271e-06
0.00014334
-1.24971e-06
0.000143653
-1.43141e-06
0.000143984
-1.57938e-06
0.000144323
-1.69604e-06
0.000144664
-1.78437e-06
0.000145001
-1.84763e-06
0.00014533
-1.88924e-06
0.000145649
-1.91252e-06
0.000145956
-1.92069e-06
0.000146248
-1.91669e-06
0.000146527
-1.90318e-06
0.000146792
-1.88251e-06
0.000147042
-1.85672e-06
0.00014728
-1.82753e-06
0.000147504
-1.79639e-06
0.000147716
-1.76449e-06
0.000147917
-1.7328e-06
0.000148107
-1.70206e-06
0.000148287
-1.67289e-06
0.000148459
-1.64572e-06
0.000148622
-1.62089e-06
0.000148779
-1.59865e-06
0.000148928
-1.57915e-06
0.000149072
-1.56248e-06
0.00014921
-1.54871e-06
0.000149344
-1.53783e-06
0.000149473
-1.52983e-06
0.000149598
-1.52467e-06
-1.52223e-06
0.00014972
0.000146574
-2.14892e-07
0.000146704
-6.20858e-07
0.000146907
-9.82111e-07
0.000147167
-1.293e-06
0.000147471
-1.55337e-06
0.000147804
-1.76524e-06
0.000148157
-1.93192e-06
0.000148519
-2.05774e-06
0.000148882
-2.14762e-06
0.000149241
-2.2066e-06
0.000149591
-2.23956e-06
0.00014993
-2.25113e-06
0.000150255
-2.24553e-06
0.000150565
-2.22654e-06
0.000150859
-2.19744e-06
0.000151137
-2.16107e-06
0.0001514
-2.11982e-06
0.000151649
-2.07568e-06
0.000151882
-2.03028e-06
0.000152103
-1.98492e-06
0.000152311
-1.94062e-06
0.000152507
-1.89819e-06
0.000152692
-1.85821e-06
0.000152868
-1.82114e-06
0.000153034
-1.78727e-06
0.000153192
-1.7568e-06
0.000153343
-1.72984e-06
0.000153487
-1.70644e-06
0.000153625
-1.68659e-06
0.000153757
-1.67024e-06
0.000153885
-1.65733e-06
0.000154008
-1.64779e-06
-1.64142e-06
0.000154127
0.000150765
-2.64553e-07
0.000150909
-7.64075e-07
0.000151131
-1.20498e-06
0.000151417
-1.57889e-06
0.00015175
-1.88604e-06
0.000152115
-2.12997e-06
0.000152499
-2.31589e-06
0.000152891
-2.45037e-06
0.000153284
-2.54056e-06
0.000153671
-2.59349e-06
0.000154047
-2.61575e-06
0.00015441
-2.61339e-06
0.000154756
-2.59176e-06
0.000155085
-2.55552e-06
0.000155396
-2.50867e-06
0.000155689
-2.45454e-06
0.000155966
-2.3959e-06
0.000156225
-2.33502e-06
0.000156468
-2.27368e-06
0.000156697
-2.21331e-06
0.000156911
-2.15499e-06
0.000157112
-2.09955e-06
0.000157302
-2.04758e-06
0.00015748
-1.99948e-06
0.000157648
-1.95553e-06
0.000157807
-1.91586e-06
0.000157958
-1.88053e-06
0.000158101
-1.84952e-06
0.000158237
-1.82276e-06
0.000158367
-1.80012e-06
0.000158491
-1.78145e-06
0.00015861
-1.76658e-06
-1.75523e-06
0.000158724
0.000155077
-3.20273e-07
0.000155238
-9.24763e-07
0.000155487
-1.45367e-06
0.000155804
-1.89593e-06
0.000156171
-2.25308e-06
0.000156572
-2.53073e-06
0.000156992
-2.73631e-06
0.000157421
-2.87892e-06
0.000157848
-2.96815e-06
0.000158268
-3.01318e-06
0.000158675
-3.02249e-06
0.000159065
-3.00367e-06
0.000159436
-2.96336e-06
0.000159788
-2.9072e-06
0.000160119
-2.83995e-06
0.00016043
-2.76554e-06
0.000160722
-2.68713e-06
0.000160994
-2.60727e-06
0.000161248
-2.52795e-06
0.000161486
-2.45069e-06
0.000161707
-2.37664e-06
0.000161914
-2.30664e-06
0.000162108
-2.24125e-06
0.000162289
-2.18084e-06
0.000162459
-2.12563e-06
0.000162619
-2.07569e-06
0.00016277
-2.03101e-06
0.000162912
-1.9915e-06
0.000163046
-1.95702e-06
0.000163173
-1.92737e-06
0.000163294
-1.90233e-06
0.000163409
-1.88171e-06
-1.86515e-06
0.000163519
0.000159517
-3.86308e-07
0.000159706
-1.11394e-06
0.000159996
-1.74423e-06
0.000160363
-2.26279e-06
0.000160784
-2.67351e-06
0.000161238
-2.98502e-06
0.00016171
-3.20808e-06
0.000162186
-3.35528e-06
0.000162657
-3.43937e-06
0.000163116
-3.47214e-06
0.000163558
-3.46418e-06
0.000163979
-3.42478e-06
0.000164378
-3.36193e-06
0.000164753
-3.28229e-06
0.000165104
-3.1914e-06
0.000165432
-3.09371e-06
0.000165738
-2.99283e-06
0.000166022
-2.89155e-06
0.000166286
-2.79202e-06
0.000166532
-2.69588e-06
0.000166759
-2.6043e-06
0.000166971
-2.51809e-06
0.000167167
-2.4378e-06
0.00016735
-2.36374e-06
0.000167521
-2.29604e-06
0.00016768
-2.23471e-06
0.000167828
-2.17965e-06
0.000167967
-2.13068e-06
0.000168098
-2.08757e-06
0.000168221
-2.05003e-06
0.000168336
-2.01775e-06
0.000168445
-1.99038e-06
-1.96747e-06
0.000168547
0.000164082
-4.62398e-07
0.000164302
-1.33363e-06
0.000164636
-2.07861e-06
0.000165055
-2.68179e-06
0.000165533
-3.15152e-06
0.000166048
-3.49977e-06
0.000166581
-3.74061e-06
0.000167116
-3.89063e-06
0.000167643
-3.96628e-06
0.000168153
-3.98241e-06
0.000168641
-3.95221e-06
0.000169103
-3.88706e-06
0.000169538
-3.79652e-06
0.000169944
-3.68849e-06
0.000170322
-3.56937e-06
0.000170673
-3.44425e-06
0.000170997
-3.31713e-06
0.000171297
-3.19109e-06
0.000171573
-3.06841e-06
0.000171828
-2.95078e-06
0.000172063
-2.83938e-06
0.00017228
-2.73497e-06
0.00017248
-2.63802e-06
0.000172665
-2.54875e-06
0.000172836
-2.4672e-06
0.000172995
-2.39326e-06
0.000173142
-2.32675e-06
0.000173279
-2.26737e-06
0.000173406
-2.21482e-06
0.000173524
-2.16873e-06
0.000173635
-2.12871e-06
0.000173739
-2.09439e-06
-2.0652e-06
0.000173837
0.000168795
-5.65902e-07
0.000169081
-1.61976e-06
0.000169504
-2.50098e-06
0.000170017
-3.19498e-06
0.000170587
-3.72117e-06
0.000171186
-4.09899e-06
0.000171794
-4.34882e-06
0.000172396
-4.49298e-06
0.000172982
-4.55214e-06
0.000173544
-4.54437e-06
0.000174077
-4.48537e-06
0.000174579
-4.38853e-06
0.000175047
-4.26494e-06
0.000175482
-4.12361e-06
0.000175885
-3.97179e-06
0.000176256
-3.81515e-06
0.000176597
-3.65809e-06
0.00017691
-3.50392e-06
0.000177196
-3.35506e-06
0.000177459
-3.21322e-06
0.000177699
-3.07955e-06
0.000177919
-2.95475e-06
0.00017812
-2.83919e-06
0.000178304
-2.73296e-06
0.000178473
-2.63598e-06
0.000178627
-2.54801e-06
0.000178769
-2.46875e-06
0.0001789
-2.3978e-06
0.00017902
-2.33472e-06
0.00017913
-2.27906e-06
0.000179232
-2.23028e-06
0.000179325
-2.18791e-06
-2.15119e-06
0.000179411
0.000173623
-6.77831e-07
0.000173956
-1.95211e-06
0.00017445
-2.99505e-06
0.000175056
-3.80081e-06
0.000175733
-4.39837e-06
0.000176445
-4.81143e-06
0.000177164
-5.06795e-06
0.00017787
-5.19881e-06
0.000178549
-5.23111e-06
0.000179192
-5.18766e-06
0.000179795
-5.08789e-06
0.000180354
-4.94791e-06
0.00018087
-4.78072e-06
0.000181343
-4.59669e-06
0.000181775
-4.40392e-06
0.000182169
-4.20865e-06
0.000182526
-4.01557e-06
0.00018285
-3.82812e-06
0.000183144
-3.64873e-06
0.00018341
-3.47903e-06
0.00018365
-3.32003e-06
0.000183868
-3.17225e-06
0.000184065
-3.03589e-06
0.000184242
-2.91084e-06
0.000184403
-2.79683e-06
0.000184549
-2.69347e-06
0.00018468
-2.60028e-06
0.000184799
-2.51674e-06
0.000184907
-2.44232e-06
0.000185004
-2.37649e-06
0.000185093
-2.31867e-06
0.000185173
-2.26838e-06
-2.2247e-06
0.000185247
0.000178683
-8.92109e-07
0.000179193
-2.46212e-06
0.000179869
-3.67105e-06
0.000180631
-4.56348e-06
0.000181439
-5.20616e-06
0.00018226
-5.63207e-06
0.00018307
-5.87763e-06
0.000183852
-5.98123e-06
0.000184596
-5.97474e-06
0.000185293
-5.88497e-06
0.00018594
-5.73481e-06
0.000186535
-5.54301e-06
0.000187079
-5.32451e-06
0.000187573
-5.09101e-06
0.000188021
-4.85153e-06
0.000188425
-4.61282e-06
0.000188789
-4.37981e-06
0.000189117
-4.156e-06
0.000189412
-3.94371e-06
0.000189677
-3.74441e-06
0.000189916
-3.55887e-06
0.000190131
-3.38736e-06
0.000190325
-3.22978e-06
0.0001905
-3.08578e-06
0.000190658
-2.95483e-06
0.000190801
-2.8363e-06
0.00019093
-2.72951e-06
0.000191047
-2.63378e-06
0.000191153
-2.54847e-06
0.00019125
-2.47294e-06
0.000191338
-2.40662e-06
0.000191418
-2.34895e-06
-2.29896e-06
0.000191493
0.000183746
-1.07101e-06
0.00018434
-3.05557e-06
0.000185176
-4.50734e-06
0.000186152
-5.53946e-06
0.000187186
-6.23996e-06
0.000188214
-6.66043e-06
0.000189203
-6.86681e-06
0.000190138
-6.91635e-06
0.000191014
-6.8498e-06
0.000191828
-6.69919e-06
0.000192583
-6.49032e-06
0.000193283
-6.24316e-06
0.000193932
-5.97302e-06
0.000194533
-5.69162e-06
0.000195089
-5.40781e-06
0.000195604
-5.12811e-06
0.000196082
-4.85727e-06
0.000196524
-4.59858e-06
0.000196935
-4.35424e-06
0.000197316
-4.12555e-06
0.00019767
-3.9131e-06
0.000198
-3.71702e-06
0.000198307
-3.53703e-06
0.000198594
-3.37257e-06
0.000198862
-3.22294e-06
0.000199113
-3.08732e-06
0.000199348
-2.96489e-06
0.000199569
-2.85484e-06
0.000199777
-2.75649e-06
0.000199974
-2.66923e-06
0.00020016
-2.59284e-06
0.000200338
-2.52681e-06
-2.47136e-06
0.00020051
0.000189418
-1.67733e-06
0.000190409
-4.04585e-06
0.000191494
-5.59305e-06
0.000192659
-6.70384e-06
0.000193908
-7.48934e-06
0.000195221
-7.97347e-06
0.000196577
-8.22295e-06
0.000197953
-8.29218e-06
0.000199323
-8.21957e-06
0.000200663
-8.0396e-06
0.000201955