/*--------------------------------*- C++ -*----------------------------------*\
| =========                 |                                                 |
| \\      /  F ield         | OpenFOAM: The Open Source CFD Toolbox           |
|  \\    /   O peration     | Version:  2.1.1                                 |
|   \\  /    A nd           | Web:      www.OpenFOAM.org                      |
|    \\/     M anipulation  |                                                 |
\*---------------------------------------------------------------------------*/
FoamFile
{
    version     2.0;
    format      ascii;
    class       volVectorField;
    location    "0.13";
    object      U;
}
// * * * * * * * * * * * * * * * * * * * * * * * * * * * * * * * * * * * * * //

dimensions      [0 1 -1 0 0 0 0];

internalField   nonuniform List<vector> 
6820
(
(6.37596 0.503765 0)
(4.42406 0.286899 0)
(2.97285 0.0202507 0)
(2.23304 -0.0618504 0)
(1.96674 -0.0599044 0)
(1.83907 -0.0344664 0)
(1.7632 -0.0150503 0)
(1.71 -0.00467363 0)
(1.66545 3.2933e-05 0)
(1.62649 0.0015515 0)
(1.59254 0.00155032 0)
(1.5631 0.000965476 0)
(1.53764 0.000230005 0)
(1.51562 -0.000466897 0)
(1.49648 -0.00105201 0)
(1.47976 -0.00150912 0)
(1.46504 -0.0018477 0)
(1.452 -0.00208603 0)
(1.44035 -0.00224329 0)
(1.42985 -0.00233665 0)
(1.42031 -0.00238071 0)
(1.41156 -0.00238762 0)
(1.40346 -0.00236782 0)
(1.39589 -0.00233017 0)
(1.38873 -0.0022846 0)
(1.38192 -0.00223638 0)
(1.37535 -0.00220966 0)
(1.36916 -0.00217329 0)
(1.36282 -0.0022819 0)
(1.35814 -0.00205148 0)
(1.34972 -0.00302464 0)
(1.3544 0.00188044 0)
(1.3183 -0.0225085 0)
(8.72021 0.959698 0)
(8.76453 1.01211 0)
(7.96795 0.679289 0)
(7.05343 0.394251 0)
(6.35112 0.202875 0)
(5.84327 0.103863 0)
(5.47971 0.0584711 0)
(5.2166 0.0380603 0)
(5.01898 0.0289515 0)
(4.86466 0.0245097 0)
(4.74023 0.0218874 0)
(4.6373 0.020035 0)
(4.55047 0.0185619 0)
(4.47613 0.0173063 0)
(4.41174 0.0161917 0)
(4.35545 0.0151814 0)
(4.30584 0.0142593 0)
(4.26183 0.0134186 0)
(4.22256 0.0126568 0)
(4.18731 0.0119734 0)
(4.15549 0.0113688 0)
(4.12661 0.0108433 0)
(4.10023 0.0103965 0)
(4.07598 0.010027 0)
(4.05354 0.00972841 0)
(4.03262 0.00949799 0)
(4.01298 0.00929902 0)
(3.99443 0.00917068 0)
(3.97673 0.00885206 0)
(3.96018 0.00888335 0)
(3.94397 0.00726117 0)
(3.93215 0.00803138 0)
(3.92012 0.000743349 0)
(8.58612 0.583562 0)
(9.33123 0.762625 0)
(9.61405 0.66069 0)
(9.50328 0.527337 0)
(9.23589 0.398015 0)
(8.92182 0.300342 0)
(8.61401 0.231678 0)
(8.3357 0.182432 0)
(8.09118 0.146637 0)
(7.87823 0.120126 0)
(7.69317 0.0999911 0)
(7.53213 0.0843788 0)
(7.3916 0.0720827 0)
(7.26852 0.0622828 0)
(7.16033 0.0543881 0)
(7.06484 0.0479608 0)
(6.98022 0.0426764 0)
(6.90493 0.0382952 0)
(6.83767 0.0346396 0)
(6.77732 0.0315773 0)
(6.72295 0.0290091 0)
(6.67375 0.0268599 0)
(6.62902 0.0250716 0)
(6.58815 0.0235982 0)
(6.55063 0.0223995 0)
(6.51599 0.0214405 0)
(6.48382 0.0206705 0)
(6.45379 0.0200642 0)
(6.42557 0.0194434 0)
(6.39899 0.0189319 0)
(6.37363 0.0174305 0)
(6.34913 0.0159901 0)
(6.32491 0.00945408 0)
(8.44092 0.379777 0)
(8.94584 0.584331 0)
(9.35822 0.555166 0)
(9.5858 0.488039 0)
(9.69961 0.408502 0)
(9.73501 0.339756 0)
(9.7185 0.287645 0)
(9.67237 0.247838 0)
(9.60951 0.216702 0)
(9.53722 0.191659 0)
(9.46024 0.170873 0)
(9.3817 0.153228 0)
(9.30364 0.138018 0)
(9.22759 0.124765 0)
(9.15446 0.113155 0)
(9.0848 0.102957 0)
(9.01887 0.0939845 0)
(8.95679 0.0860818 0)
(8.89851 0.0791194 0)
(8.84394 0.0729892 0)
(8.79289 0.067601 0)
(8.74516 0.0628797 0)
(8.70054 0.0587613 0)
(8.6588 0.0551908 0)
(8.61969 0.0521171 0)
(8.58299 0.0494927 0)
(8.54846 0.0472567 0)
(8.51589 0.0453598 0)
(8.48507 0.0436553 0)
(8.45576 0.042138 0)
(8.42773 0.0402789 0)
(8.40013 0.0383929 0)
(8.37364 0.0360439 0)
(8.40214 0.280154 0)
(8.71889 0.480983 0)
(8.99866 0.462506 0)
(9.17401 0.405379 0)
(9.29839 0.343788 0)
(9.39171 0.291833 0)
(9.46062 0.253326 0)
(9.51323 0.224263 0)
(9.55432 0.201329 0)
(9.5862 0.182626 0)
(9.61058 0.166897 0)
(9.62882 0.153361 0)
(9.642 0.141542 0)
(9.65074 0.131114 0)
(9.65572 0.121832 0)
(9.65763 0.113517 0)
(9.65702 0.106034 0)
(9.65439 0.0992834 0)
(9.65016 0.0931865 0)
(9.64468 0.0876833 0)
(9.63823 0.0827269 0)
(9.63105 0.0782802 0)
(9.62334 0.0743126 0)
(9.61525 0.0707979 0)
(9.60691 0.0677105 0)
(9.59841 0.0650234 0)
(9.58984 0.0626987 0)
(9.58123 0.0606966 0)
(9.5726 0.0589284 0)
(9.56393 0.0573517 0)
(9.55513 0.0557561 0)
(9.54576 0.0542468 0)
(9.53604 0.0528656 0)
(8.37747 0.202273 0)
(8.60129 0.383889 0)
(8.8156 0.39127 0)
(8.94641 0.35726 0)
(9.03203 0.313324 0)
(9.09452 0.270281 0)
(9.14112 0.234912 0)
(9.17911 0.206892 0)
(9.21269 0.184431 0)
(9.24323 0.166196 0)
(9.27131 0.151096 0)
(9.29729 0.138313 0)
(9.32137 0.127319 0)
(9.34379 0.117761 0)
(9.36468 0.10936 0)
(9.38412 0.101909 0)
(9.40219 0.0952592 0)
(9.41897 0.0893018 0)
(9.43455 0.0839542 0)
(9.44901 0.0791535 0)
(9.46246 0.0748516 0)
(9.47498 0.0710104 0)
(9.48667 0.0675994 0)
(9.4976 0.0645927 0)
(9.50788 0.0619655 0)
(9.51758 0.0596926 0)
(9.52679 0.0577416 0)
(9.53556 0.0560777 0)
(9.54396 0.0546422 0)
(9.55199 0.0533971 0)
(9.55964 0.0522674 0)
(9.56685 0.0513014 0)
(9.57354 0.0506775 0)
(8.36127 0.148907 0)
(8.52266 0.311705 0)
(8.69727 0.337652 0)
(8.81185 0.318502 0)
(8.88621 0.285723 0)
(8.93898 0.250034 0)
(8.97633 0.218928 0)
(9.00445 0.193604 0)
(9.02776 0.172903 0)
(9.04818 0.155788 0)
(9.06665 0.141425 0)
(9.08377 0.129161 0)
(9.09987 0.11854 0)
(9.11512 0.109241 0)
(9.12964 0.101036 0)
(9.14352 0.0937547 0)
(9.1568 0.0872672 0)
(9.16953 0.0814704 0)
(9.18173 0.0762819 0)
(9.19343 0.0716361 0)
(9.20467 0.0674806 0)
(9.21546 0.0637725 0)
(9.22586 0.0604764 0)
(9.23588 0.0575618 0)
(9.24557 0.055 0)
(9.25496 0.0527629 0)
(9.26409 0.0508184 0)
(9.27299 0.0491339 0)
(9.28167 0.0476654 0)
(9.29014 0.046384 0)
(9.29835 0.0452447 0)
(9.30631 0.0442808 0)
(9.31392 0.0434915 0)
(8.35115 0.111474 0)
(8.46735 0.251905 0)
(8.608 0.28709 0)
(8.70954 0.279305 0)
(8.77911 0.257438 0)
(8.83043 0.230518 0)
(8.86783 0.204973 0)
(8.89584 0.182911 0)
(8.91842 0.164071 0)
(8.93757 0.147981 0)
(8.95436 0.134195 0)
(8.96948 0.122281 0)
(8.98338 0.111892 0)
(8.99632 0.102772 0)
(9.00848 0.0947217 0)
(9.01998 0.0875795 0)
(9.03091 0.0812172 0)
(9.04134 0.0755329 0)
(9.05132 0.0704458 0)
(9.0609 0.0658914 0)
(9.07012 0.0618179 0)
(9.07901 0.0581828 0)
(9.0876 0.0549505 0)
(9.09592 0.0520903 0)
(9.104 0.049574 0)
(9.11187 0.0473744 0)
(9.11953 0.0454634 0)
(9.12702 0.0438133 0)
(9.13432 0.042393 0)
(9.14142 0.041182 0)
(9.14828 0.0401574 0)
(9.15489 0.0393355 0)
(9.16116 0.0387218 0)
(8.34486 0.084798 0)
(8.42932 0.204026 0)
(8.542 0.244312 0)
(8.63054 0.24544 0)
(8.69426 0.231775 0)
(8.74302 0.21134 0)
(8.78003 0.189986 0)
(8.80852 0.170554 0)
(8.83175 0.15348 0)
(8.85153 0.138623 0)
(8.86884 0.125733 0)
(8.88435 0.1145 0)
(8.89853 0.104643 0)
(8.91164 0.0959442 0)
(8.92389 0.0882271 0)
(8.93541 0.0813516 0)
(8.94631 0.0752054 0)
(8.95667 0.0696992 0)
(8.96655 0.0647607 0)
(8.97601 0.0603308 0)
(8.98509 0.0563609 0)
(8.99382 0.0528103 0)
(9.00225 0.0496449 0)
(9.01041 0.0468347 0)
(9.01832 0.0443529 0)
(9.02602 0.0421746 0)
(9.0335 0.0402759 0)
(9.04079 0.0386349 0)
(9.04789 0.0372309 0)
(9.05478 0.0360525 0)
(9.06144 0.0350915 0)
(9.06782 0.0343639 0)
(9.0739 0.0338943 0)
(8.34093 0.0655527 0)
(8.40302 0.165697 0)
(8.49309 0.207225 0)
(8.56958 0.21424 0)
(8.62742 0.206621 0)
(8.6732 0.191677 0)
(8.70923 0.174465 0)
(8.73766 0.157915 0)
(8.76109 0.142838 0)
(8.78114 0.129344 0)
(8.79873 0.117379 0)
(8.81451 0.106788 0)
(8.82891 0.097393 0)
(8.84223 0.089036 0)
(8.85467 0.0815839 0)
(8.86637 0.0749225 0)
(8.87744 0.0689555 0)
(8.88796 0.0636022 0)
(8.898 0.0587953 0)
(8.90761 0.0544788 0)
(8.91683 0.0506059 0)
(8.92571 0.0471372 0)
(8.93428 0.0440395 0)
(8.94257 0.0412842 0)
(8.95061 0.0388463 0)
(8.95843 0.0367036 0)
(8.96604 0.0348364 0)
(8.97346 0.0332287 0)
(8.98067 0.0318681 0)
(8.98769 0.0307511 0)
(8.99448 0.0298815 0)
(9.00103 0.0292794 0)
(9.00731 0.0289899 0)
(8.33845 0.0513958 0)
(8.38467 0.134886 0)
(8.45672 0.175261 0)
(8.52247 0.186249 0)
(8.57471 0.183332 0)
(8.61739 0.172908 0)
(8.65207 0.159235 0)
(8.68013 0.145158 0)
(8.70356 0.131798 0)
(8.72376 0.11951 0)
(8.74157 0.10841 0)
(8.75757 0.0984624 0)
(8.7722 0.0895657 0)
(8.78572 0.0816067 0)
(8.79835 0.0744795 0)
(8.81022 0.0680875 0)
(8.82145 0.0623462 0)
(8.83212 0.0571831 0)
(8.8423 0.0525373 0)
(8.85204 0.0483567 0)
(8.8614 0.0445979 0)
(8.87041 0.0412236 0)
(8.87911 0.0382026 0)
(8.88753 0.0355077 0)
(8.8957 0.033116 0)
(8.90365 0.0310079 0)
(8.91139 0.0291675 0)
(8.91893 0.0275833 0)
(8.92629 0.0262491 0)
(8.93345 0.0251676 0)
(8.94041 0.0243507 0)
(8.94716 0.0238234 0)
(8.95369 0.023641 0)
(8.33686 0.0407729 0)
(8.37176 0.110059 0)
(8.42955 0.147783 0)
(8.48581 0.161043 0)
(8.53274 0.161439 0)
(8.5723 0.154484 0)
(8.60544 0.143784 0)
(8.63296 0.131974 0)
(8.65631 0.120312 0)
(8.67663 0.109294 0)
(8.69465 0.0991383 0)
(8.7109 0.0898997 0)
(8.72576 0.0815429 0)
(8.73952 0.0740018 0)
(8.75237 0.0672036 0)
(8.76444 0.0610756 0)
(8.77586 0.0555498 0)
(8.78672 0.0505654 0)
(8.79707 0.0460687 0)
(8.80698 0.0420131 0)
(8.8165 0.0383581 0)
(8.82567 0.035069 0)
(8.83452 0.0321163 0)
(8.84309 0.0294746 0)
(8.85142 0.0271229 0)
(8.85951 0.0250442 0)
(8.8674 0.0232255 0)
(8.8751 0.0216591 0)
(8.88262 0.0203435 0)
(8.88996 0.0192855 0)
(8.89713 0.0185019 0)
(8.90413 0.0180205 0)
(8.91096 0.0178983 0)
(8.33583 0.0326335 0)
(8.36257 0.0899223 0)
(8.40913 0.124141 0)
(8.45717 0.138383 0)
(8.49916 0.141061 0)
(8.53568 0.13679 0)
(8.56716 0.128586 0)
(8.59396 0.118776 0)
(8.61707 0.108643 0)
(8.63741 0.0987815 0)
(8.65559 0.089496 0)
(8.67206 0.0809191 0)
(8.68717 0.0730771 0)
(8.70118 0.065946 0)
(8.71428 0.0594814 0)
(8.7266 0.0536298 0)
(8.73825 0.0483363 0)
(8.74932 0.0435486 0)
(8.75988 0.0392189 0)
(8.76999 0.0353045 0)
(8.7797 0.0317678 0)
(8.78905 0.0285762 0)
(8.79808 0.025702 0)
(8.80683 0.0231214 0)
(8.81532 0.020815 0)
(8.82358 0.0187678 0)
(8.83164 0.0169692 0)
(8.83952 0.0154138 0)
(8.84723 0.0141027 0)
(8.85478 0.0130448 0)
(8.86218 0.0122583 0)
(8.86946 0.0117708 0)
(8.87663 0.0116341 0)
(8.33513 0.0262645 0)
(8.35595 0.0734621 0)
(8.3937 0.103784 0)
(8.43472 0.118034 0)
(8.4722 0.122117 0)
(8.50579 0.11979 0)
(8.53553 0.113555 0)
(8.56148 0.105428 0)
(8.58425 0.0966507 0)
(8.60453 0.0878685 0)
(8.62282 0.0794348 0)
(8.63948 0.0715321 0)
(8.65483 0.0642292 0)
(8.6691 0.0575344 0)
(8.68245 0.0514267 0)
(8.69502 0.0458702 0)
(8.70691 0.0408229 0)
(8.71821 0.0362416 0)
(8.729 0.0320853 0)
(8.73931 0.0283161 0)
(8.74922 0.0248998 0)
(8.75877 0.0218064 0)
(8.76798 0.01901 0)
(8.77691 0.0164885 0)
(8.78558 0.014224 0)
(8.79402 0.012203 0)
(8.80226 0.0104162 0)
(8.81032 0.00885987 0)
(8.81823 0.00753597 0)
(8.82599 0.00645346 0)
(8.83365 0.00562944 0)
(8.8412 0.00508842 0)
(8.84871 0.00487323 0)
(8.33465 0.0211775 0)
(8.35113 0.0598752 0)
(8.38199 0.0861958 0)
(8.41707 0.0997387 0)
(8.45049 0.104526 0)
(8.48134 0.103535 0)
(8.50935 0.0988226 0)
(8.53435 0.0920982 0)
(8.55669 0.0845074 0)
(8.57684 0.0767004 0)
(8.59517 0.0690551 0)
(8.61198 0.0617863 0)
(8.62755 0.0549966 0)
(8.64205 0.0487221 0)
(8.65565 0.0429626 0)
(8.66847 0.0376981 0)
(8.68061 0.0328979 0)
(8.69215 0.0285268 0)
(8.70316 0.0245493 0)
(8.7137 0.0209313 0)
(8.72382 0.0176415 0)
(8.73356 0.0146516 0)
(8.74297 0.0119371 0)
(8.75209 0.00947715 0)
(8.76094 0.00725475 0)
(8.76956 0.00525706 0)
(8.77798 0.00347555 0)
(8.78623 0.00190652 0)
(8.79433 0.000551532 0)
(8.80232 -0.000582081 0)
(8.81021 -0.00148052 0)
(8.81804 -0.00212448 0)
(8.82587 -0.00248207 0)
(8.33432 0.0170332 0)
(8.34756 0.0485329 0)
(8.37305 0.0709254 0)
(8.40318 0.0832586 0)
(8.43299 0.0881893 0)
(8.46131 0.088014 0)
(8.48764 0.0844056 0)
(8.51167 0.078789 0)
(8.53351 0.0721888 0)
(8.55345 0.0652324 0)
(8.57178 0.0583034 0)
(8.58872 0.0516327 0)
(8.60446 0.0453438 0)
(8.61919 0.0394915 0)
(8.63304 0.0340905 0)
(8.64611 0.0291324 0)
(8.65849 0.0245951 0)
(8.67027 0.02045 0)
(8.68151 0.0166663 0)
(8.69227 0.0132132 0)
(8.7026 0.010062 0)
(8.71254 0.00718601 0)
(8.72214 0.00456207 0)
(8.73143 0.00217019 0)
(8.74046 -6.00116e-06 0)
(8.74926 -0.00197912 0)
(8.75786 -0.00375779 0)
(8.76629 -0.00534648 0)
(8.77458 -0.0067452 0)
(8.78276 -0.00794942 0)
(8.79088 -0.00894991 0)
(8.79896 -0.00973379 0)
(8.80706 -0.0102804 0)
(8.33407 0.0135916 0)
(8.34491 0.0389435 0)
(8.36619 0.0575752 0)
(8.39223 0.0683567 0)
(8.4189 0.0729864 0)
(8.44493 0.0731948 0)
(8.46968 0.070324 0)
(8.49273 0.0655463 0)
(8.51404 0.0597537 0)
(8.53375 0.0535277 0)
(8.55203 0.0472387 0)
(8.56905 0.0411193 0)
(8.58496 0.0353028 0)
(8.5999 0.029856 0)
(8.61398 0.0248042 0)
(8.62729 0.0201476 0)
(8.63991 0.0158713 0)
(8.65193 0.011952 0)
(8.6634 0.00836271 0)
(8.67437 0.00507552 0)
(8.6849 0.00206336 0)
(8.69504 -0.000698859 0)
(8.70483 -0.00323367 0)
(8.7143 -0.00556059 0)
(8.72351 -0.00769591 0)
(8.73247 -0.00965255 0)
(8.74123 -0.0114399 0)
(8.74983 -0.013064 0)
(8.75829 -0.0145271 0)
(8.76666 -0.0158282 0)
(8.77497 -0.0169633 0)
(8.78326 -0.0179262 0)
(8.7916 -0.0187065 0)
(8.33389 0.0106798 0)
(8.34291 0.0307218 0)
(8.36092 0.0458006 0)
(8.3836 0.0548077 0)
(8.40757 0.0587904 0)
(8.43156 0.0590237 0)
(8.45486 0.0565686 0)
(8.47699 0.0523771 0)
(8.49775 0.0472076 0)
(8.51721 0.0415822 0)
(8.53543 0.0358463 0)
(8.55251 0.0302238 0)
(8.56857 0.0248494 0)
(8.5837 0.0197947 0)
(8.598 0.015091 0)
(8.61154 0.0107435 0)
(8.6244 0.00674153 0)
(8.63665 0.00306498 0)
(8.64834 -0.000310769 0)
(8.65952 -0.003412 0)
(8.67026 -0.00626471 0)
(8.68058 -0.0088934 0)
(8.69055 -0.0113203 0)
(8.70019 -0.0135651 0)
(8.70955 -0.0156444 0)
(8.71866 -0.0175721 0)
(8.72757 -0.0193588 0)
(8.73631 -0.0210125 0)
(8.74492 -0.0225383 0)
(8.75344 -0.0239391 0)
(8.7619 -0.0252161 0)
(8.77036 -0.0263696 0)
(8.77886 -0.0273982 0)
(8.33375 0.0081699 0)
(8.34139 0.0235641 0)
(8.35686 0.0353034 0)
(8.37682 0.0423974 0)
(8.39851 0.045465 0)
(8.42072 0.0454266 0)
(8.44273 0.0431086 0)
(8.464 0.0392738 0)
(8.48426 0.0345539 0)
(8.50346 0.0294037 0)
(8.52161 0.0241338 0)
(8.53875 0.0189501 0)
(8.55494 0.0139801 0)
(8.57026 0.00929406 0)
(8.58477 0.00492396 0)
(8.59855 0.000876891 0)
(8.61164 -0.0028562 0)
(8.62411 -0.00629377 0)
(8.63602 -0.0094592 0)
(8.64741 -0.0123779 0)
(8.65834 -0.0150753 0)
(8.66884 -0.0175757 0)
(8.67898 -0.0199013 0)
(8.68877 -0.0220722 0)
(8.69828 -0.0241058 0)
(8.70753 -0.0260168 0)
(8.71657 -0.0278175 0)
(8.72543 -0.0295179 0)
(8.73416 -0.0311261 0)
(8.74279 -0.0326487 0)
(8.75137 -0.0340915 0)
(8.75993 -0.0354603 0)
(8.76853 -0.0367609 0)
(8.33365 0.00596527 0)
(8.34025 0.0172287 0)
(8.35374 0.0258262 0)
(8.37152 0.030924 0)
(8.39132 0.0328696 0)
(8.41203 0.0323156 0)
(8.43292 0.0298958 0)
(8.45342 0.0262128 0)
(8.47323 0.0217819 0)
(8.4922 0.0169879 0)
(8.51029 0.0121007 0)
(8.52748 0.00730188 0)
(8.54381 0.00270563 0)
(8.55931 -0.00162435 0)
(8.57404 -0.00565948 0)
(8.58803 -0.0093943 0)
(8.60135 -0.0128388 0)
(8.61404 -0.0160119 0)
(8.62616 -0.0189375 0)
(8.63774 -0.0216415 0)
(8.64885 -0.02415 0)
(8.65952 -0.0264879 0)
(8.6698 -0.0286784 0)
(8.67974 -0.0307424 0)
(8.68936 -0.0326985 0)
(8.69873 -0.0345629 0)
(8.70786 -0.0363499 0)
(8.71682 -0.0380716 0)
(8.72562 -0.0397391 0)
(8.73433 -0.0413622 0)
(8.74297 -0.0429511 0)
(8.75158 -0.0445163 0)
(8.76023 -0.046069 0)
(8.33357 0.00399052 0)
(8.33938 0.0115194 0)
(8.35136 0.0171444 0)
(8.36743 0.0201961 0)
(8.3857 0.0208581 0)
(8.40517 0.019586 0)
(8.42512 0.0168582 0)
(8.44499 0.0131426 0)
(8.46442 0.00884924 0)
(8.48321 0.00429322 0)
(8.50127 -0.000300883 0)
(8.51855 -0.00478077 0)
(8.53502 -0.00905116 0)
(8.55072 -0.01306 0)
(8.56566 -0.0167859 0)
(8.57989 -0.0202285 0)
(8.59343 -0.0234007 0)
(8.60634 -0.0263237 0)
(8.61866 -0.0290229 0)
(8.63044 -0.0315256 0)
(8.64173 -0.0338588 0)
(8.65255 -0.0360486 0)
(8.66297 -0.0381189 0)
(8.67303 -0.0400919 0)
(8.68276 -0.0419872 0)
(8.69221 -0.0438225 0)
(8.70143 -0.0456137 0)
(8.71044 -0.047375 0)
(8.71929 -0.0491196 0)
(8.72802 -0.0508604 0)
(8.73667 -0.0526103 0)
(8.74528 -0.0543833 0)
(8.75389 -0.0561938 0)
(8.33351 0.0021851 0)
(8.33874 0.00627452 0)
(8.34959 0.00906059 0)
(8.36434 0.0100325 0)
(8.38141 0.00928213 0)
(8.3999 0.00712507 0)
(8.41912 0.0039165 0)
(8.43849 1.27272e-05 0)
(8.45764 -0.00426888 0)
(8.47632 -0.00868022 0)
(8.49439 -0.0130434 0)
(8.51177 -0.017239 0)
(8.52842 -0.0211947 0)
(8.54431 -0.0248745 0)
(8.55948 -0.0282682 0)
(8.57393 -0.0313836 0)
(8.58769 -0.0342397 0)
(8.60081 -0.0368622 0)
(8.61333 -0.0392803 0)
(8.62529 -0.041524 0)
(8.63672 -0.0436229 0)
(8.64769 -0.045605 0)
(8.65823 -0.0474962 0)
(8.66838 -0.0493201 0)
(8.67819 -0.0510981 0)
(8.6877 -0.0528496 0)
(8.69695 -0.054592 0)
(8.70598 -0.0563416 0)
(8.71483 -0.0581137 0)
(8.72355 -0.0599231 0)
(8.73216 -0.0617853 0)
(8.7407 -0.0637168 0)
(8.74923 -0.0657339 0)
(8.33347 0.00049807 0)
(8.33827 0.0013549 0)
(8.3483 0.00139557 0)
(8.3621 0.000255856 0)
(8.37828 -0.00201676 0)
(8.39606 -0.00520479 0)
(8.41475 -0.00905029 0)
(8.43379 -0.0132911 0)
(8.45278 -0.0176927 0)
(8.47144 -0.0220715 0)
(8.48961 -0.0262975 0)
(8.50715 -0.0302869 0)
(8.52401 -0.0339935 0)
(8.54015 -0.0374002 0)
(8.55556 -0.0405104 0)
(8.57025 -0.0433421 0)
(8.58426 -0.0459217 0)
(8.5976 -0.0482807 0)
(8.61032 -0.0504525 0)
(8.62245 -0.0524706 0)
(8.63404 -0.0543671 0)
(8.64513 -0.0561723 0)
(8.65577 -0.0579138 0)
(8.66601 -0.059617 0)
(8.67587 -0.0613046 0)
(8.68541 -0.0629975 0)
(8.69467 -0.0647145 0)
(8.70369 -0.0664732 0)
(8.7125 -0.0682903 0)
(8.72115 -0.0701819 0)
(8.72967 -0.0721648 0)
(8.73809 -0.074256 0)
(8.74646 -0.0764724 0)
(8.33344 -0.00111404 0)
(8.33796 -0.0033615 0)
(8.34743 -0.00601569 0)
(8.36059 -0.00930483 0)
(8.37619 -0.0131939 0)
(8.3935 -0.0175303 0)
(8.41188 -0.0221299 0)
(8.43076 -0.0268077 0)
(8.44973 -0.0314018 0)
(8.46847 -0.0357891 0)
(8.48679 -0.0398879 0)
(8.50455 -0.0436531 0)
(8.52165 -0.0470686 0)
(8.53805 -0.0501406 0)
(8.55372 -0.052891 0)
(8.56866 -0.0553517 0)
(8.5829 -0.0575602 0)
(8.59645 -0.0595566 0)
(8.60936 -0.0613809 0)
(8.62165 -0.0630717 0)
(8.63337 -0.0646653 0)
(8.64457 -0.066195 0)
(8.65529 -0.0676911 0)
(8.66558 -0.0691808 0)
(8.67546 -0.0706886 0)
(8.685 -0.0722367 0)
(8.69424 -0.0738452 0)
(8.7032 -0.0755326 0)
(8.71193 -0.0773164 0)
(8.72047 -0.0792138 0)
(8.72885 -0.0812417 0)
(8.73711 -0.0834181 0)
(8.74527 -0.0857588 0)
(8.33343 -0.00269203 0)
(8.33778 -0.0079898 0)
(8.34694 -0.0133365 0)
(8.35974 -0.0188344 0)
(8.37506 -0.0244436 0)
(8.39219 -0.0300565 0)
(8.4105 -0.0355498 0)
(8.42944 -0.0408068 0)
(8.44855 -0.0457317 0)
(8.46753 -0.0502593 0)
(8.48614 -0.0543554 0)
(8.50421 -0.058013 0)
(8.52164 -0.0612462 0)
(8.53837 -0.0640851 0)
(8.55435 -0.0665699 0)
(8.56959 -0.068747 0)
(8.58409 -0.0706655 0)
(8.59788 -0.072374 0)
(8.61098 -0.0739198 0)
(8.62343 -0.0753468 0)
(8.63529 -0.0766957 0)
(8.64658 -0.0780032 0)
(8.65736 -0.0793023 0)
(8.66767 -0.0806223 0)
(8.67756 -0.0819894 0)
(8.68707 -0.0834269 0)
(8.69623 -0.0849559 0)
(8.7051 -0.0865955 0)
(8.71371 -0.0883636 0)
(8.72209 -0.0902771 0)
(8.73028 -0.0923525 0)
(8.7383 -0.0946067 0)
(8.7462 -0.0970536 0)
(8.33342 -0.00427601 0)
(8.33772 -0.012642 0)
(8.3468 -0.0207243 0)
(8.35953 -0.0285011 0)
(8.37483 -0.0359106 0)
(8.39204 -0.0428697 0)
(8.41051 -0.0493004 0)
(8.42969 -0.0551437 0)
(8.44911 -0.0603663 0)
(8.46843 -0.0649619 0)
(8.48742 -0.0689486 0)
(8.50587 -0.0723643 0)
(8.52368 -0.0752606 0)
(8.54077 -0.077698 0)
(8.55709 -0.0797412 0)
(8.57263 -0.0814561 0)
(8.58739 -0.0829065 0)
(8.60141 -0.084153 0)
(8.6147 -0.0852516 0)
(8.62731 -0.0862529 0)
(8.63927 -0.0872027 0)
(8.65064 -0.0881414 0)
(8.66147 -0.0891045 0)
(8.67178 -0.0901233 0)
(8.68164 -0.0912251 0)
(8.69109 -0.0924342 0)
(8.70016 -0.0937717 0)
(8.7089 -0.0952571 0)
(8.71735 -0.0969076 0)
(8.72554 -0.0987398 0)
(8.7335 -0.100769 0)
(8.74127 -0.103012 0)
(8.74888 -0.105479 0)
(8.33343 -0.00590701 0)
(8.33779 -0.0174395 0)
(8.34701 -0.0283695 0)
(8.35997 -0.0385582 0)
(8.37559 -0.0479241 0)
(8.39321 -0.0564082 0)
(8.41217 -0.0639753 0)
(8.43188 -0.0706202 0)
(8.45187 -0.0763655 0)
(8.47178 -0.0812567 0)
(8.49133 -0.0853576 0)
(8.51033 -0.0887455 0)
(8.52864 -0.0915056 0)
(8.54619 -0.0937264 0)
(8.56291 -0.0954961 0)
(8.57881 -0.0968996 0)
(8.59388 -0.0980166 0)
(8.60814 -0.0989203 0)
(8.62163 -0.0996767 0)
(8.63438 -0.100345 0)
(8.64645 -0.100976 0)
(8.65788 -0.101617 0)
(8.66871 -0.102305 0)
(8.679 -0.103074 0)
(8.68879 -0.103955 0)
(8.69813 -0.104971 0)
(8.70706 -0.106145 0)
(8.71563 -0.107496 0)
(8.72387 -0.10904 0)
(8.73181 -0.110792 0)
(8.73949 -0.112767 0)
(8.74694 -0.114977 0)
(8.75417 -0.11743 0)
(8.33345 -0.00763007 0)
(8.33799 -0.0225038 0)
(8.34757 -0.0364258 0)
(8.36104 -0.0491204 0)
(8.37726 -0.0604677 0)
(8.39554 -0.07042 0)
(8.4152 -0.0789827 0)
(8.43564 -0.0862129 0)
(8.45635 -0.0922051 0)
(8.47697 -0.097075 0)
(8.49719 -0.10095 0)
(8.51682 -0.103961 0)
(8.53572 -0.106239 0)
(8.55379 -0.107909 0)
(8.57097 -0.109087 0)
(8.58727 -0.109881 0)
(8.60267 -0.110387 0)
(8.6172 -0.11069 0)
(8.6309 -0.110867 0)
(8.64382 -0.110983 0)
(8.65598 -0.111095 0)
(8.66746 -0.111251 0)
(8.6783 -0.111493 0)
(8.68855 -0.111854 0)
(8.69826 -0.112367 0)
(8.70748 -0.113054 0)
(8.71625 -0.113938 0)
(8.72462 -0.115036 0)
(8.73263 -0.116364 0)
(8.74031 -0.117936 0)
(8.74769 -0.119763 0)
(8.75481 -0.121857 0)
(8.7617 -0.124223 0)
(8.33348 -0.00950231 0)
(8.33835 -0.0280205 0)
(8.34862 -0.0452374 0)
(8.36302 -0.0607606 0)
(8.38032 -0.0744588 0)
(8.39977 -0.0863042 0)
(8.42063 -0.0963317 0)
(8.44223 -0.104639 0)
(8.46406 -0.111368 0)
(8.4857 -0.116682 0)
(8.50685 -0.120757 0)
(8.52731 -0.12377 0)
(8.54693 -0.125894 0)
(8.56561 -0.127292 0)
(8.58332 -0.128112 0)
(8.60004 -0.128489 0)
(8.61579 -0.128542 0)
(8.63058 -0.128375 0)
(8.64447 -0.128078 0)
(8.65751 -0.127727 0)
(8.66974 -0.127388 0)
(8.68122 -0.127115 0)
(8.69201 -0.126953 0)
(8.70217 -0.12694 0)
(8.71174 -0.127107 0)
(8.72078 -0.127479 0)
(8.72934 -0.128077 0)
(8.73745 -0.128918 0)
(8.74516 -0.130015 0)
(8.75251 -0.13138 0)
(8.75953 -0.133021 0)
(8.76624 -0.134946 0)
(8.77267 -0.137155 0)
(8.33352 -0.0115839 0)
(8.33884 -0.0341043 0)
(8.35002 -0.0548038 0)
(8.36561 -0.073105 0)
(8.38422 -0.0888542 0)
(8.40503 -0.102076 0)
(8.42727 -0.112896 0)
(8.45024 -0.121525 0)
(8.47336 -0.128214 0)
(8.49622 -0.133221 0)
(8.5185 -0.136797 0)
(8.53996 -0.13918 0)
(8.56047 -0.14059 0)
(8.57993 -0.141223 0)
(8.5983 -0.141255 0)
(8.61556 -0.140841 0)
(8.63175 -0.140113 0)
(8.64688 -0.139188 0)
(8.66103 -0.138162 0)
(8.67423 -0.137119 0)
(8.68656 -0.136126 0)
(8.69807 -0.135242 0)
(8.70883 -0.134512 0)
(8.7189 -0.133976 0)
(8.72833 -0.133664 0)
(8.73719 -0.1336 0)
(8.74552 -0.133805 0)
(8.75337 -0.134294 0)
(8.76079 -0.135079 0)
(8.76781 -0.136168 0)
(8.77448 -0.137567 0)
(8.78081 -0.139284 0)
(8.78686 -0.141312 0)
(8.3336 -0.0139892 0)
(8.33971 -0.041229 0)
(8.35248 -0.0662272 0)
(8.37012 -0.088283 0)
(8.39097 -0.107232 0)
(8.41403 -0.123073 0)
(8.43842 -0.135915 0)
(8.46336 -0.145995 0)
(8.48823 -0.15362 0)
(8.51263 -0.159119 0)
(8.53622 -0.162823 0)
(8.55881 -0.165047 0)
(8.58026 -0.166079 0)
(8.60049 -0.166179 0)
(8.61948 -0.165573 0)
(8.63724 -0.164457 0)
(8.6538 -0.162996 0)
(8.66921 -0.16133 0)
(8.68352 -0.159573 0)
(8.69682 -0.157821 0)
(8.70916 -0.15615 0)
(8.72063 -0.154622 0)
(8.73127 -0.153287 0)
(8.74118 -0.152183 0)
(8.7504 -0.151342 0)
(8.759 -0.150785 0)
(8.76703 -0.150532 0)
(8.77454 -0.150595 0)
(8.78158 -0.150981 0)
(8.78819 -0.151698 0)
(8.7944 -0.152747 0)
(8.80025 -0.154129 0)
(8.80577 -0.155834 0)
(8.33366 -0.0167797 0)
(8.34054 -0.0491645 0)
(8.35493 -0.0781598 0)
(8.37461 -0.102892 0)
(8.39769 -0.12341 0)
(8.42313 -0.139985 0)
(8.44996 -0.152971 0)
(8.47727 -0.162798 0)
(8.50439 -0.169911 0)
(8.53083 -0.174727 0)
(8.55626 -0.177633 0)
(8.58045 -0.178984 0)
(8.60326 -0.179098 0)
(8.62463 -0.178253 0)
(8.64456 -0.176692 0)
(8.66306 -0.174626 0)
(8.6802 -0.172231 0)
(8.69603 -0.169656 0)
(8.71065 -0.167026 0)
(8.72413 -0.16444 0)
(8.73657 -0.161982 0)
(8.74803 -0.159716 0)
(8.75861 -0.157695 0)
(8.76839 -0.155958 0)
(8.77742 -0.154535 0)
(8.78579 -0.15345 0)
(8.79354 -0.152718 0)
(8.80074 -0.152351 0)
(8.80744 -0.152354 0)
(8.81368 -0.152732 0)
(8.81951 -0.153482 0)
(8.82496 -0.154603 0)
(8.83008 -0.156079 0)
(8.33391 -0.0203402 0)
(8.34284 -0.0599979 0)
(8.36085 -0.0958482 0)
(8.38471 -0.126689 0)
(8.41183 -0.152323 0)
(8.44095 -0.172802 0)
(8.471 -0.188452 0)
(8.50108 -0.199848 0)
(8.53055 -0.20763 0)
(8.55898 -0.212418 0)
(8.58609 -0.214786 0)
(8.61168 -0.215249 0)
(8.63566 -0.214251 0)
(8.65798 -0.212169 0)
(8.67867 -0.209317 0)
(8.69776 -0.205954 0)
(8.71533 -0.202289 0)
(8.73147 -0.198493 0)
(8.74625 -0.194701 0)
(8.7598 -0.191019 0)
(8.7722 -0.187531 0)
(8.78354 -0.184299 0)
(8.79392 -0.181373 0)
(8.80342 -0.178788 0)
(8.81213 -0.17657 0)
(8.8201 -0.174737 0)
(8.82742 -0.173301 0)
(8.83414 -0.172269 0)
(8.84031 -0.171644 0)
(8.84599 -0.171425 0)
(8.85122 -0.171606 0)
(8.85603 -0.172183 0)
(8.86046 -0.173132 0)
(8.33387 -0.0244043 0)
(8.34363 -0.0702521 0)
(8.36406 -0.109115 0)
(8.39134 -0.140748 0)
(8.42257 -0.166232 0)
(8.45627 -0.186243 0)
(8.49097 -0.201348 0)
(8.52542 -0.212203 0)
(8.55882 -0.219437 0)
(8.59067 -0.223625 0)
(8.62064 -0.225308 0)
(8.64858 -0.224984 0)
(8.67441 -0.223099 0)
(8.69815 -0.220045 0)
(8.71987 -0.216157 0)
(8.73968 -0.211722 0)
(8.75769 -0.206975 0)
(8.77404 -0.202109 0)
(8.78885 -0.197279 0)
(8.80226 -0.192607 0)
(8.81439 -0.188187 0)
(8.82537 -0.18409 0)
(8.8353 -0.180366 0)
(8.84427 -0.177055 0)
(8.85239 -0.174179 0)
(8.85973 -0.171756 0)
(8.86637 -0.169793 0)
(8.87237 -0.168296 0)
(8.8778 -0.167264 0)
(8.88271 -0.166694 0)
(8.88716 -0.166577 0)
(8.8912 -0.166905 0)
(8.8949 -0.167645 0)
(8.33498 -0.0313037 0)
(8.35137 -0.0925596 0)
(8.38052 -0.145778 0)
(8.41533 -0.188851 0)
(8.45231 -0.222148 0)
(8.49056 -0.246489 0)
(8.52891 -0.263199 0)
(8.56627 -0.273759 0)
(8.60202 -0.279456 0)
(8.63574 -0.281367 0)
(8.66717 -0.2804 0)
(8.69619 -0.277299 0)
(8.72278 -0.27266 0)
(8.747 -0.266961 0)
(8.76897 -0.260583 0)
(8.78883 -0.253827 0)
(8.80674 -0.246928 0)
(8.82287 -0.240071 0)
(8.83738 -0.233398 0)
(8.85043 -0.227016 0)
(8.86217 -0.221006 0)
(8.87274 -0.215423 0)
(8.88227 -0.210308 0)
(8.89086 -0.205686 0)
(8.89861 -0.201572 0)
(8.90562 -0.197975 0)
(8.91196 -0.194898 0)
(8.9177 -0.192341 0)
(8.92289 -0.1903 0)
(8.92761 -0.188775 0)
(8.93191 -0.187757 0)
(8.93583 -0.187241 0)
(8.93943 -0.187187 0)
(8.33403 -0.0363042 0)
(8.34992 -0.0987823 0)
(8.38394 -0.147382 0)
(8.42687 -0.18683 0)
(8.47319 -0.219115 0)
(8.5205 -0.24399 0)
(8.56666 -0.261918 0)
(8.61048 -0.273807 0)
(8.65161 -0.280516 0)
(8.68997 -0.282924 0)
(8.72559 -0.281916 0)
(8.7586 -0.278308 0)
(8.78919 -0.272808 0)
(8.81751 -0.266012 0)
(8.84374 -0.258412 0)
(8.86804 -0.250397 0)
(8.89054 -0.242271 0)
(8.9114 -0.234266 0)
(8.93074 -0.226553 0)
(8.94869 -0.219255 0)
(8.96536 -0.212458 0)
(8.98086 -0.206217 0)
(8.9953 -0.200565 0)
(9.00877 -0.195518 0)
(9.02134 -0.19108 0)
(9.03311 -0.187247 0)
(9.04414 -0.184012 0)
(9.05449 -0.181365 0)
(9.06422 -0.1793 0)
(9.07338 -0.177814 0)
(9.08205 -0.176911 0)
(9.09029 -0.176595 0)
(9.09821 -0.176839 0)
(8.3396 -0.0604478 0)
(8.37709 -0.169589 0)
(8.42642 -0.247821 0)
(8.47639 -0.300758 0)
(8.52901 -0.335508 0)
(8.58577 -0.356453 0)
(8.64508 -0.367688 0)
(8.70564 -0.372308 0)
(8.76649 -0.372271 0)
(8.82656 -0.368912 0)
(8.88486 -0.363179 0)
(8.94066 -0.355751 0)
(8.99343 -0.347134 0)
(9.04286 -0.337724 0)
(9.08876 -0.327841 0)
(9.13111 -0.317747 0)
(9.16998 -0.307663 0)
(9.20551 -0.297766 0)
(9.23789 -0.288202 0)
(9.26734 -0.279083 0)
(9.29408 -0.270494 0)
(9.31836 -0.262492 0)
(9.34037 -0.255117 0)
(9.36035 -0.248388 0)
(9.37846 -0.242315 0)
(9.39489 -0.236894 0)
(9.40977 -0.232122 0)
(9.42324 -0.227991 0)
(9.43541 -0.224505 0)
(9.44636 -0.221668 0)
(9.4562 -0.219541 0)
(9.465 -0.218127 0)
(9.47297 -0.21762 0)
(8.3376 -0.0464885 0)
(8.39353 -0.120788 0)
(8.49382 -0.184602 0)
(8.60867 -0.246159 0)
(8.73057 -0.298978 0)
(8.85405 -0.339913 0)
(8.97223 -0.369709 0)
(9.081 -0.389275 0)
(9.17818 -0.39978 0)
(9.26259 -0.40282 0)
(9.33398 -0.400023 0)
(9.3928 -0.392853 0)
(9.43993 -0.382573 0)
(9.47645 -0.370227 0)
(9.50359 -0.356653 0)
(9.52256 -0.342504 0)
(9.53452 -0.328276 0)
(9.54052 -0.314338 0)
(9.54151 -0.300951 0)
(9.53832 -0.288294 0)
(9.53167 -0.276478 0)
(9.52216 -0.265565 0)
(9.5103 -0.255579 0)
(9.4965 -0.246511 0)
(9.48113 -0.238334 0)
(9.46444 -0.231006 0)
(9.44667 -0.224474 0)
(9.42797 -0.218688 0)
(9.40845 -0.213607 0)
(9.38814 -0.209202 0)
(9.36717 -0.205572 0)
(9.34521 -0.202664 0)
(9.32303 -0.201546 0)
(8.40922 -0.221227 0)
(8.63492 -0.428156 0)
(8.83313 -0.522346 0)
(8.97699 -0.582869 0)
(9.07088 -0.615554 0)
(9.11383 -0.626027 0)
(9.11016 -0.621884 0)
(9.06929 -0.607205 0)
(9.00006 -0.584824 0)
(8.9099 -0.557303 0)
(8.80524 -0.526692 0)
(8.6914 -0.494562 0)
(8.57253 -0.462125 0)
(8.45178 -0.430286 0)
(8.33148 -0.399685 0)
(8.21331 -0.370746 0)
(8.09838 -0.343727 0)
(7.98744 -0.318755 0)
(7.88091 -0.295864 0)
(7.77898 -0.275021 0)
(7.68168 -0.256146 0)
(7.58893 -0.23913 0)
(7.50058 -0.223846 0)
(7.41641 -0.210154 0)
(7.33619 -0.197908 0)
(7.25967 -0.186962 0)
(7.18658 -0.177161 0)
(7.11664 -0.168354 0)
(7.04956 -0.160362 0)
(6.98491 -0.153015 0)
(6.92233 -0.146211 0)
(6.8607 -0.139036 0)
(6.80046 -0.135265 0)
(8.1371 -0.207114 0)
(7.84784 -0.387928 0)
(7.3858 -0.439227 0)
(6.86072 -0.439816 0)
(6.36156 -0.40849 0)
(5.89121 -0.359537 0)
(5.45223 -0.305229 0)
(5.05199 -0.25195 0)
(4.69152 -0.202908 0)
(4.36883 -0.159707 0)
(4.08153 -0.122784 0)
(3.82677 -0.0919084 0)
(3.60136 -0.0665359 0)
(3.40215 -0.0459776 0)
(3.22614 -0.029512 0)
(3.07053 -0.0164585 0)
(2.9328 -0.00621086 0)
(2.81066 0.00175221 0)
(2.70208 0.00786798 0)
(2.60528 0.0124973 0)
(2.51869 0.0159349 0)
(2.44093 0.0184202 0)
(2.37083 0.020148 0)
(2.30733 0.021278 0)
(2.24957 0.0219468 0)
(2.19678 0.0222732 0)
(2.14831 0.0223885 0)
(2.10371 0.0224251 0)
(2.06241 0.0226269 0)
(2.02459 0.0233268 0)
(1.98924 0.0248721 0)
(1.95863 0.030144 0)
(1.93046 0.0245788 0)
(1.42859 -0.00299591 0)
(1.68085 0.0299677 0)