/*--------------------------------*- C++ -*----------------------------------*\
| =========                 |                                                 |
| \\      /  F ield         | OpenFOAM: The Open Source CFD Toolbox           |
|  \\    /   O peration     | Version:  2.1.1                                 |
|   \\  /    A nd           | Web:      www.OpenFOAM.org                      |
|    \\/     M anipulation  |                                                 |
\*---------------------------------------------------------------------------*/
FoamFile
{
    version     2.0;
    format      ascii;
    class       volScalarField;
    location    "0.185";
    object      nuSgs;
}
// * * * * * * * * * * * * * * * * * * * * * * * * * * * * * * * * * * * * * //

dimensions      [0 2 -1 0 0 0 0];

internalField   nonuniform List<scalar> 
6820
(
0.000556014
0.000457446
0.000368254
0.000306341
0.000269263
0.000243778
0.000225072
0.000210815
0.000199349
0.000189764
0.000181548
0.000174368
0.000168002
0.000162295
0.000157134
0.000152432
0.000148126
0.000144163
0.000140502
0.000137111
0.000133965
0.000131044
0.000128326
0.000125796
0.000123441
0.000121255
0.000119227
0.000117354
0.000115625
0.000114061
0.000112635
0.00011126
0.000109591
0.000103485
0.000170631
0.000223604
0.000239984
0.000235263
0.000224952
0.000213321
0.000202113
0.000191967
0.0001829
0.00017479
0.000167505
0.00016092
0.000154932
0.000149456
0.000144423
0.000139775
0.000135465
0.000131449
0.000127696
0.000124178
0.000120868
0.000117746
0.000114798
0.00011201
0.000109366
0.000106855
0.000104462
0.000102192
9.99792e-05
9.79677e-05
9.56957e-05
9.46004e-05
3.67762e-05
2.84895e-05
4.55498e-05
8.21589e-05
0.000107738
0.000123283
0.000131674
0.000135502
0.000136592
0.000136013
0.000134405
0.000132165
0.000129539
0.00012669
0.000123724
0.000120711
0.000117697
0.000114713
0.000111779
0.000108908
0.000106106
0.000103374
0.000100713
9.81259e-05
9.56056e-05
9.31494e-05
9.07544e-05
8.84142e-05
8.61273e-05
8.38689e-05
8.16587e-05
7.93392e-05
7.7134e-05
2.07359e-05
2.8697e-05
2.65929e-05
1.51656e-05
3.68355e-06
1.36059e-05
2.53161e-05
3.50138e-05
4.28007e-05
4.89525e-05
5.37455e-05
5.74246e-05
6.01927e-05
6.22096e-05
6.36076e-05
6.44966e-05
6.49665e-05
6.50915e-05
6.49319e-05
6.45372e-05
6.39476e-05
6.31975e-05
6.23144e-05
6.1317e-05
6.02174e-05
5.90274e-05
5.77587e-05
5.642e-05
5.50204e-05
5.35585e-05
5.20467e-05
5.04819e-05
4.89542e-05
1.4416e-05
1.76014e-05
2.26193e-05
2.43119e-05
2.39952e-05
2.20487e-05
1.92148e-05
1.60339e-05
1.27392e-05
9.48025e-06
6.364e-06
3.46699e-06
9.92443e-07
1.8815e-06
3.99144e-06
5.89852e-06
7.5687e-06
9.00742e-06
1.02271e-05
1.12422e-05
1.20678e-05
1.27185e-05
1.32089e-05
1.35523e-05
1.37677e-05
1.38681e-05
1.38623e-05
1.37587e-05
1.35652e-05
1.32862e-05
1.29322e-05
1.25189e-05
1.20686e-05
1.09137e-05
1.25162e-05
1.38479e-05
1.43497e-05
1.5119e-05
1.57392e-05
1.60978e-05
1.62905e-05
1.63232e-05
1.6203e-05
1.59554e-05
1.56053e-05
1.51775e-05
1.46903e-05
1.41617e-05
1.3609e-05
1.30477e-05
1.24901e-05
1.19464e-05
1.14245e-05
1.09303e-05
1.0468e-05
1.00396e-05
9.64697e-06
9.28695e-06
8.95757e-06
8.65742e-06
8.38591e-06
8.14164e-06
7.9241e-06
7.7275e-06
7.54503e-06
7.36275e-06
8.23541e-06
9.44551e-06
1.02782e-05
1.00801e-05
9.88885e-06
9.70443e-06
9.51005e-06
9.4083e-06
9.38834e-06
9.40612e-06
9.4349e-06
9.45723e-06
9.46158e-06
9.44522e-06
9.40732e-06
9.34749e-06
9.26645e-06
9.16563e-06
9.04688e-06
8.91219e-06
8.76374e-06
8.6031e-06
8.4329e-06
8.25467e-06
8.0738e-06
7.89402e-06
7.71634e-06
7.54179e-06
7.37016e-06
7.20134e-06
7.032e-06
6.86124e-06
6.68277e-06
6.34897e-06
7.42497e-06
8.24773e-06
8.11745e-06
7.81011e-06
7.4723e-06
7.09591e-06
6.77248e-06
6.52069e-06
6.31947e-06
6.15577e-06
6.02045e-06
5.90466e-06
5.80168e-06
5.70715e-06
5.61804e-06
5.5321e-06
5.44766e-06
5.36352e-06
5.2789e-06
5.19346e-06
5.10709e-06
5.02009e-06
4.93326e-06
4.84693e-06
4.7612e-06
4.67667e-06
4.59379e-06
4.512e-06
4.43059e-06
4.34744e-06
4.26205e-06
4.17166e-06
4.98596e-06
5.87282e-06
6.57377e-06
6.57584e-06
6.41236e-06
6.20805e-06
5.9282e-06
5.64576e-06
5.39944e-06
5.1855e-06
4.99914e-06
4.83688e-06
4.69388e-06
4.56592e-06
4.45011e-06
4.34434e-06
4.24689e-06
4.15648e-06
4.07214e-06
3.99313e-06
3.91886e-06
3.84893e-06
3.78293e-06
3.72027e-06
3.66074e-06
3.60402e-06
3.54964e-06
3.49711e-06
3.44564e-06
3.39445e-06
3.34209e-06
3.28805e-06
3.23113e-06
3.97791e-06
4.71885e-06
5.34064e-06
5.42223e-06
5.32598e-06
5.18209e-06
4.96953e-06
4.74412e-06
4.54398e-06
4.36838e-06
4.21286e-06
4.07526e-06
3.95258e-06
3.84187e-06
3.74113e-06
3.64891e-06
3.56407e-06
3.48573e-06
3.41318e-06
3.34586e-06
3.28327e-06
3.22495e-06
3.17053e-06
3.11971e-06
3.07194e-06
3.02656e-06
2.98307e-06
2.94109e-06
2.89998e-06
2.85902e-06
2.81714e-06
2.77379e-06
2.72808e-06
3.21605e-06
3.84342e-06
4.39674e-06
4.52164e-06
4.47538e-06
4.38171e-06
4.22645e-06
4.04731e-06
3.87946e-06
3.72742e-06
3.58992e-06
3.46701e-06
3.35735e-06
3.2589e-06
3.17003e-06
3.08945e-06
3.01608e-06
2.94902e-06
2.88749e-06
2.83096e-06
2.77889e-06
2.73082e-06
2.6864e-06
2.64523e-06
2.60684e-06
2.57078e-06
2.53662e-06
2.50384e-06
2.47177e-06
2.43968e-06
2.40673e-06
2.37237e-06
2.33579e-06
2.62729e-06
3.16496e-06
3.66734e-06
3.82894e-06
3.82963e-06
3.77552e-06
3.66071e-06
3.51436e-06
3.37001e-06
3.23631e-06
3.11392e-06
3.00368e-06
2.9051e-06
2.81675e-06
2.73731e-06
2.66573e-06
2.60106e-06
2.54252e-06
2.48945e-06
2.44125e-06
2.39744e-06
2.35757e-06
2.32121e-06
2.28797e-06
2.25736e-06
2.22888e-06
2.20198e-06
2.17612e-06
2.15071e-06
2.12515e-06
2.09876e-06
2.07114e-06
2.04138e-06
2.16199e-06
2.63126e-06
3.09591e-06
3.2837e-06
3.32078e-06
3.29787e-06
3.21728e-06
3.10213e-06
2.98182e-06
2.86656e-06
2.75846e-06
2.65925e-06
2.56951e-06
2.48868e-06
2.41596e-06
2.35063e-06
2.29197e-06
2.23931e-06
2.19203e-06
2.14955e-06
2.11139e-06
2.07708e-06
2.04617e-06
2.01819e-06
1.99268e-06
1.96915e-06
1.94712e-06
1.9261e-06
1.90556e-06
1.885e-06
1.86384e-06
1.84177e-06
1.81792e-06
1.78658e-06
2.20484e-06
2.64138e-06
2.84971e-06
2.91828e-06
2.92306e-06
2.87133e-06
2.78223e-06
2.68162e-06
2.58114e-06
2.48453e-06
2.39441e-06
2.31212e-06
2.23768e-06
2.17066e-06
2.11055e-06
2.05677e-06
2.00875e-06
1.96592e-06
1.92777e-06
1.89381e-06
1.86358e-06
1.83663e-06
1.81252e-06
1.79079e-06
1.77098e-06
1.75263e-06
1.73528e-06
1.71845e-06
1.70171e-06
1.6846e-06
1.66694e-06
1.6479e-06
1.47759e-06
1.85956e-06
2.27591e-06
2.50088e-06
2.59566e-06
2.6235e-06
2.59528e-06
2.52822e-06
2.44524e-06
2.35846e-06
2.27268e-06
2.19103e-06
2.11537e-06
2.04623e-06
1.98359e-06
1.92721e-06
1.87671e-06
1.83166e-06
1.79159e-06
1.75605e-06
1.72459e-06
1.69678e-06
1.67219e-06
1.65038e-06
1.63093e-06
1.6134e-06
1.59738e-06
1.58246e-06
1.56825e-06
1.5544e-06
1.54055e-06
1.5266e-06
1.51183e-06
1.21841e-06
1.57679e-06
1.97933e-06
2.2181e-06
2.33508e-06
2.38313e-06
2.37525e-06
2.32738e-06
2.25987e-06
2.18486e-06
2.10805e-06
2.03314e-06
1.96252e-06
1.89725e-06
1.83767e-06
1.78378e-06
1.73539e-06
1.6922e-06
1.65381e-06
1.61984e-06
1.58989e-06
1.56353e-06
1.54037e-06
1.52001e-06
1.50205e-06
1.4861e-06
1.47178e-06
1.45873e-06
1.44663e-06
1.43518e-06
1.42409e-06
1.41335e-06
1.40229e-06
9.97106e-07
1.34324e-06
1.73742e-06
1.98795e-06
2.12381e-06
2.18941e-06
2.19882e-06
2.16722e-06
2.113e-06
2.04819e-06
1.97915e-06
1.91006e-06
1.84369e-06
1.78148e-06
1.72408e-06
1.67174e-06
1.62445e-06
1.58201e-06
1.54418e-06
1.51063e-06
1.48102e-06
1.45499e-06
1.43218e-06
1.41224e-06
1.3948e-06
1.37952e-06
1.36606e-06
1.35412e-06
1.34341e-06
1.3337e-06
1.32476e-06
1.31662e-06
1.30869e-06
8.0511e-07
1.14969e-06
1.54011e-06
1.80078e-06
1.95268e-06
2.0336e-06
2.05797e-06
2.04045e-06
1.99784e-06
1.94189e-06
1.87941e-06
1.81498e-06
1.7517e-06
1.6914e-06
1.63504e-06
1.58312e-06
1.53581e-06
1.4931e-06
1.45481e-06
1.42073e-06
1.39059e-06
1.36407e-06
1.34087e-06
1.32066e-06
1.30314e-06
1.28798e-06
1.27491e-06
1.26364e-06
1.25393e-06
1.2456e-06
1.23844e-06
1.2325e-06
1.22724e-06
6.36634e-07
9.90199e-07
1.38049e-06
1.64985e-06
1.81531e-06
1.90951e-06
1.94677e-06
1.94126e-06
1.90855e-06
1.86005e-06
1.80291e-06
1.74204e-06
1.68087e-06
1.62154e-06
1.56531e-06
1.51289e-06
1.46465e-06
1.4207e-06
1.38102e-06
1.34546e-06
1.31384e-06
1.28593e-06
1.26147e-06
1.24018e-06
1.22181e-06
1.20608e-06
1.19274e-06
1.18154e-06
1.17228e-06
1.16476e-06
1.15883e-06
1.15451e-06
1.1513e-06
4.88817e-07
8.61679e-07
1.25406e-06
1.53058e-06
1.70729e-06
1.81287e-06
1.86117e-06
1.86588e-06
1.8416e-06
1.79934e-06
1.74649e-06
1.68823e-06
1.62826e-06
1.56901e-06
1.512e-06
1.45817e-06
1.40808e-06
1.36198e-06
1.31999e-06
1.28207e-06
1.24813e-06
1.21801e-06
1.19152e-06
1.16844e-06
1.14857e-06
1.13166e-06
1.11749e-06
1.10585e-06
1.09654e-06
1.0894e-06
1.08424e-06
1.08109e-06
1.07948e-06
3.63655e-07
7.63828e-07
1.15834e-06
1.44011e-06
1.6258e-06
1.7409e-06
1.79852e-06
1.81177e-06
1.7944e-06
1.75709e-06
1.70733e-06
1.65054e-06
1.59067e-06
1.53039e-06
1.47151e-06
1.41517e-06
1.36212e-06
1.31279e-06
1.26743e-06
1.22611e-06
1.18884e-06
1.15555e-06
1.12612e-06
1.10041e-06
1.07824e-06
1.05943e-06
1.04378e-06
1.0311e-06
1.02119e-06
1.01388e-06
1.00898e-06
1.00646e-06
1.00586e-06
2.73895e-07
6.9863e-07
1.09223e-06
1.37684e-06
1.56925e-06
1.69206e-06
1.75736e-06
1.77765e-06
1.76593e-06
1.73255e-06
1.68504e-06
1.62901e-06
1.56859e-06
1.5067e-06
1.44533e-06
1.38584e-06
1.32916e-06
1.27586e-06
1.22632e-06
1.18074e-06
1.13924e-06
1.10185e-06
1.06853e-06
1.03922e-06
1.01381e-06
9.9218e-07
9.74163e-07
9.59595e-07
9.48294e-07
9.40093e-07
9.34778e-07
9.32298e-07
9.32207e-07
2.49392e-07
6.69333e-07
1.0558e-06
1.34027e-06
1.53705e-06
1.66571e-06
1.73703e-06
1.76269e-06
1.75503e-06
1.72404e-06
1.67727e-06
1.62049e-06
1.55803e-06
1.49304e-06
1.42775e-06
1.36371e-06
1.30201e-06
1.2434e-06
1.18839e-06
1.13732e-06
1.09039e-06
1.04775e-06
1.00946e-06
9.75534e-07
9.45939e-07
9.20607e-07
8.9943e-07
8.82272e-07
8.68958e-07
8.59312e-07
8.53087e-07
8.50165e-07
8.50075e-07
3.04912e-07
6.78446e-07
1.04978e-06
1.33076e-06
1.52961e-06
1.66246e-06
1.73852e-06
1.76861e-06
1.76438e-06
1.73548e-06
1.68937e-06
1.63189e-06
1.5675e-06
1.49948e-06
1.43024e-06
1.36148e-06
1.29445e-06
1.23003e-06
1.16886e-06
1.11139e-06
1.05795e-06
1.00879e-06
9.64098e-07
9.2399e-07
8.88545e-07
8.57797e-07
8.31728e-07
8.10279e-07
7.93329e-07
7.8074e-07
7.72272e-07
7.6781e-07
7.66876e-07
4.13154e-07
7.25915e-07
1.07506e-06
1.34918e-06
1.54762e-06
1.68252e-06
1.76115e-06
1.79329e-06
1.78996e-06
1.76055e-06
1.71252e-06
1.65182e-06
1.5831e-06
1.50985e-06
1.43465e-06
1.35939e-06
1.28543e-06
1.21378e-06
1.14517e-06
1.08014e-06
1.0191e-06
9.62381e-07
9.10246e-07
8.62919e-07
8.20585e-07
7.83391e-07
7.51436e-07
7.24768e-07
7.03357e-07
6.87121e-07
6.75836e-07
6.69335e-07
6.67126e-07
5.50725e-07
8.09405e-07
1.13254e-06
1.39736e-06
1.59396e-06
1.73043e-06
1.81193e-06
1.84708e-06
1.84618e-06
1.81813e-06
1.77014e-06
1.70812e-06
1.63674e-06
1.55959e-06
1.47937e-06
1.39813e-06
1.31737e-06
1.23821e-06
1.16152e-06
1.08791e-06
1.0179e-06
9.51886e-07
8.90223e-07
8.33227e-07
7.81194e-07
7.3441e-07
6.9314e-07
6.57626e-07
6.28048e-07
6.04542e-07
5.87066e-07
5.75647e-07
5.69812e-07
7.10616e-07
9.27143e-07
1.22408e-06
1.47743e-06
1.66924e-06
1.80343e-06
1.88298e-06
1.91556e-06
1.91116e-06
1.87868e-06
1.82546e-06
1.75754e-06
1.67976e-06
1.59582e-06
1.5085e-06
1.41987e-06
1.33149e-06
1.24447e-06
1.15964e-06
1.07763e-06
9.98921e-07
9.23898e-07
8.52901e-07
7.86254e-07
7.24285e-07
6.67354e-07
6.15858e-07
5.70242e-07
5.30962e-07
4.98491e-07
4.7315e-07
4.55255e-07
4.44647e-07
8.93059e-07
1.07754e-06
1.35079e-06
1.59363e-06
1.78322e-06
1.92009e-06
2.00445e-06
2.04212e-06
2.04192e-06
2.01199e-06
1.9593e-06
1.88986e-06
1.80864e-06
1.71961e-06
1.62583e-06
1.52965e-06
1.43286e-06
1.33677e-06
1.24234e-06
1.15028e-06
1.06111e-06
9.7519e-07
8.92833e-07
8.14284e-07
7.3978e-07
6.69583e-07
6.04002e-07
5.43448e-07
4.88443e-07
4.3973e-07
3.98109e-07
3.64863e-07
3.40523e-07
1.10388e-06
1.26664e-06
1.5203e-06
1.74941e-06
1.92778e-06
2.05393e-06
2.12731e-06
2.15417e-06
2.14405e-06
2.10542e-06
2.04522e-06
1.96928e-06
1.88232e-06
1.788e-06
1.68915e-06
1.58792e-06
1.48594e-06
1.38444e-06
1.2843e-06
1.18618e-06
1.09056e-06
9.97755e-07
9.08007e-07
8.21467e-07
7.38245e-07
6.58426e-07
5.82095e-07
5.09365e-07
4.40399e-07
3.7552e-07
3.15184e-07
2.60536e-07
2.1304e-07
1.34765e-06
1.49104e-06
1.73041e-06
1.95787e-06
2.14623e-06
2.28886e-06
2.37897e-06
2.41896e-06
2.41685e-06
2.38094e-06
2.31875e-06
2.23709e-06
2.14173e-06
2.03727e-06
1.92725e-06
1.81441e-06
1.70074e-06
1.58771e-06
1.47636e-06
1.3674e-06
1.26131e-06
1.15841e-06
1.05886e-06
9.62765e-07
8.70143e-07
7.80977e-07
6.95217e-07
6.12802e-07
5.33638e-07
4.57685e-07
3.84725e-07
3.15072e-07
2.47282e-07
1.64498e-06
1.78562e-06
2.01202e-06
2.21202e-06
2.36472e-06
2.47202e-06
2.53278e-06
2.55224e-06
2.53857e-06
2.49819e-06
2.43623e-06
2.35737e-06
2.26581e-06
2.16507e-06
2.05813e-06
1.94743e-06
1.83497e-06
1.72232e-06
1.61068e-06
1.50096e-06
1.39385e-06
1.28981e-06
1.18916e-06
1.09211e-06
9.98777e-07
9.09249e-07
8.23575e-07
7.41806e-07
6.64009e-07
5.90322e-07
5.20888e-07
4.56251e-07
3.96237e-07
1.9882e-06
2.10486e-06
2.34111e-06
2.58939e-06
2.80812e-06
2.97428e-06
3.07235e-06
3.10638e-06
3.08957e-06
3.03425e-06
2.95066e-06
2.84742e-06
2.7313e-06
2.60726e-06
2.47893e-06
2.34889e-06
2.21902e-06
2.09063e-06
1.96466e-06
1.84176e-06
1.7224e-06
1.60688e-06
1.49542e-06
1.38815e-06
1.28515e-06
1.18648e-06
1.09218e-06
1.00234e-06
9.17036e-07
8.36446e-07
7.60654e-07
6.90304e-07
6.24354e-07
2.4711e-06
2.62011e-06
2.80362e-06
2.9279e-06
3.02309e-06
3.10971e-06
3.1773e-06
3.21771e-06
3.22878e-06
3.20959e-06
3.16147e-06
3.0883e-06
2.99494e-06
2.8862e-06
2.76645e-06
2.63946e-06
2.50836e-06
2.37561e-06
2.24311e-06
2.11231e-06
1.98426e-06
1.85972e-06
1.73925e-06
1.62321e-06
1.51188e-06
1.40543e-06
1.30401e-06
1.2078e-06
1.11696e-06
1.03176e-06
9.5246e-07
8.79794e-07
8.13201e-07
2.94928e-06
3.04746e-06
3.41375e-06
3.8049e-06
4.09889e-06
4.27133e-06
4.33021e-06
4.30603e-06
4.22835e-06
4.11523e-06
3.97789e-06
3.82441e-06
3.66046e-06
3.49007e-06
3.31644e-06
3.14227e-06
2.9699e-06
2.80127e-06
2.638e-06
2.48138e-06
2.33239e-06
2.19174e-06
2.05989e-06
1.93713e-06
1.82355e-06
1.71914e-06
1.62378e-06
1.53728e-06
1.45943e-06
1.39007e-06
1.32888e-06
1.27641e-06
1.23074e-06
3.98851e-06
4.08473e-06
3.97984e-06
3.88063e-06
3.95768e-06
4.14447e-06
4.31826e-06
4.42797e-06
4.46927e-06
4.45194e-06
4.39305e-06
4.31154e-06
4.22295e-06
4.13814e-06
4.06382e-06
4.00338e-06
3.9577e-06
3.9261e-06
3.90704e-06
3.89865e-06
3.89901e-06
3.90635e-06
3.91909e-06
3.93586e-06
3.9555e-06
3.97697e-06
3.99934e-06
4.02179e-06
4.04362e-06
4.06432e-06
4.08356e-06
4.10242e-06
4.11948e-06
4.4454e-06
4.98354e-06
5.92763e-06
6.38589e-06
6.47498e-06
6.42262e-06
6.38802e-06
6.48166e-06
6.73683e-06
7.12217e-06
7.58612e-06
8.08153e-06
8.5719e-06
9.0323e-06
9.44789e-06
9.81116e-06
1.01196e-05
1.03737e-05
1.05761e-05
1.07304e-05
1.08408e-05
1.09114e-05
1.09464e-05
1.09495e-05
1.09242e-05
1.08735e-05
1.08e-05
1.07056e-05
1.0592e-05
1.04603e-05
1.03124e-05
1.01495e-05
9.97478e-06
7.63564e-06
5.87642e-06
4.59883e-06
6.13852e-06
8.86624e-06
1.15881e-05
1.39367e-05
1.58465e-05
1.73123e-05
1.83448e-05
1.89775e-05
1.92558e-05
1.92274e-05
1.89407e-05
1.84419e-05
1.7774e-05
1.69749e-05
1.60777e-05
1.51104e-05
1.40965e-05
1.3055e-05
1.20013e-05
1.09478e-05
9.9037e-06
8.87634e-06
7.87083e-06
6.89063e-06
5.93735e-06
5.01176e-06
4.11112e-06
3.23716e-06
2.37779e-06
1.55878e-06
8.60134e-06
1.46929e-05
1.87708e-05
2.1151e-05
2.22059e-05
2.16826e-05
1.97582e-05
1.68959e-05
1.35986e-05
1.05854e-05
9.05137e-06
1.00378e-05
1.29495e-05
1.66486e-05
2.05204e-05
2.42978e-05
2.78616e-05
3.11587e-05
3.41691e-05
3.68908e-05
3.93317e-05
4.15055e-05
4.34286e-05
4.51188e-05
4.65936e-05
4.78705e-05
4.8966e-05
4.98964e-05
5.06778e-05
5.13299e-05
5.1868e-05
5.23515e-05
5.27698e-05
3.47208e-05
3.72966e-05
4.67941e-05
6.20268e-05
7.78714e-05
9.34347e-05
0.000108008
0.000120878
0.000131852
0.000140969
0.000148335
0.000154111
0.00015848
0.000161627
0.000163724
0.00016493
0.000165386
0.000165214
0.000164521
0.000163398
0.000161924
0.000160162
0.00015817
0.000155992
0.000153667
0.000151225
0.000148693
0.000146089
0.000143433
0.000140725
0.000137973
0.000135265
0.000132629
0.000608501
0.000582529
0.000556835
0.000530252
0.000504079
0.000478637
0.000453964
0.000430333
0.000407929
0.00038681
0.000366998
0.000348479
0.000331212
0.000315131
0.000300163
0.000286226
0.000273241
0.000261127
0.00024981
0.000239217
0.000229283
0.000219949
0.000211161
0.000202869
0.00019503
0.000187605
0.000180557
0.000173853
0.000167454
0.000161338
0.000155377
0.000150095
0.000145249
9.6297e-05
9.1758e-05
9.00894e-05
9.1575e-05
9.52465e-05
0.000100236
0.000105391
0.000109548
0.000111877
0.000111642
0.00010787
0.000100509
9.04201e-05
7.90854e-05
6.79586e-05
5.81932e-05
5.08694e-05
4.67075e-05
4.5648e-05
4.61247e-05
4.4314e-05
3.53119e-05
1.83062e-05
1.20531e-05
2.6149e-05
3.2846e-05
3.19587e-05
2.84707e-05
2.54892e-05
2.32538e-05
2.12757e-05
1.94137e-05
1.77307e-05
1.62839e-05
1.5091e-05
1.4156e-05
1.35008e-05
1.31351e-05
1.29839e-05
1.31129e-05
1.40728e-05
1.60334e-05
2.08748e-05
3.02295e-05
3.4711e-05
3.16259e-05
3.14648e-05
3.67125e-05
4.2032e-05
4.44161e-05
4.27732e-05
3.87561e-05
3.46048e-05
3.13643e-05
2.89801e-05
2.71829e-05
2.62115e-05
2.71235e-05
3.00088e-05
3.34698e-05
3.71412e-05
4.16602e-05
4.62758e-05
4.83671e-05
4.6326e-05
4.0966e-05
3.42791e-05
2.79242e-05
2.26728e-05
1.85841e-05
1.53939e-05
1.28082e-05
1.06294e-05
8.76361e-06
7.17737e-06
5.85631e-06
4.78678e-06
3.95448e-06
3.34766e-06
2.95763e-06
2.77888e-06
2.81632e-06
3.09925e-06
3.68077e-06
4.60175e-06
5.86794e-06
7.58684e-06
1.04104e-05
1.58229e-05
2.48284e-05
3.56841e-05
4.41718e-05
4.68572e-05
4.32108e-05
3.38029e-05
2.10159e-05
4.13075e-06
1.50004e-05
4.08517e-05
3.89565e-05
0.000120753
0.000116203
0.000112462
0.000110466
0.000109788
0.000110044
0.000110812
0.000111661
0.000112365
0.000112776
0.000112378
0.00011055
0.000106724
0.000100811
9.33926e-05
8.54683e-05
7.77449e-05
6.98599e-05
6.07567e-05
4.86217e-05
3.18146e-05
1.15252e-05
1.27496e-05
2.71551e-05
3.3057e-05
3.2202e-05
2.90263e-05
2.62855e-05
2.4253e-05
2.2449e-05
2.06864e-05
1.90155e-05
1.7508e-05
1.62013e-05
1.51144e-05
1.42601e-05
1.36631e-05
1.33483e-05
1.32558e-05
1.33663e-05
1.41839e-05
1.61676e-05
2.03898e-05
2.9873e-05
3.64266e-05
3.43035e-05
3.32071e-05
3.81081e-05
4.34907e-05
4.6034e-05
4.45233e-05
4.05474e-05
3.63977e-05
3.30975e-05
3.06644e-05
2.89254e-05
2.80714e-05
2.92684e-05
3.24038e-05
3.59679e-05
3.9624e-05
4.40087e-05
4.84917e-05
5.05141e-05
4.83453e-05
4.27318e-05
3.57233e-05
2.90583e-05
2.3553e-05
1.92748e-05
1.59475e-05
1.32605e-05
1.10027e-05
9.0722e-06
7.43205e-06
6.06659e-06
4.9615e-06
4.10166e-06
3.47492e-06
3.07425e-06
2.89707e-06
2.94674e-06
3.24346e-06
3.83424e-06
4.76801e-06
6.06339e-06
7.81783e-06
1.06177e-05
1.59093e-05
2.48614e-05
3.59393e-05
4.49494e-05
4.82155e-05
4.49306e-05
3.56136e-05
2.30514e-05
9.65254e-06
1.82367e-05
4.27047e-05
3.94809e-05
0.000100046
9.93753e-05
9.81404e-05
9.70097e-05
9.61947e-05
9.56898e-05
9.52903e-05
9.47295e-05
9.38203e-05
9.24803e-05
9.06037e-05
8.80671e-05
8.47014e-05
8.02589e-05
7.44803e-05
6.70822e-05
5.76038e-05
4.59408e-05
3.17288e-05
1.50641e-05
2.74749e-06
1.8606e-05
2.90884e-05
3.28488e-05
3.17421e-05
2.8955e-05
2.65419e-05
2.47755e-05
2.32343e-05
2.1679e-05
2.01199e-05
1.86359e-05
1.72848e-05
1.61026e-05
1.51152e-05
1.43404e-05
1.38016e-05
1.35325e-05
1.34977e-05
1.36254e-05
1.42878e-05
1.61837e-05
1.98799e-05
2.90537e-05
3.77367e-05
3.71998e-05
3.5192e-05
3.9453e-05
4.48816e-05
4.75924e-05
4.62305e-05
4.22951e-05
3.81779e-05
3.49029e-05
3.25125e-05
3.08433e-05
3.01394e-05
3.15795e-05
3.48755e-05
3.84636e-05
4.2102e-05
4.64483e-05
5.08782e-05
5.28303e-05
5.04897e-05
4.45793e-05
3.72236e-05
3.02382e-05
2.44744e-05
2.00032e-05
1.65349e-05
1.37417e-05
1.14e-05
9.40046e-06
7.7024e-06
6.28892e-06
5.14509e-06
4.25519e-06
3.60618e-06
3.19035e-06
3.0062e-06
3.05922e-06
3.3675e-06
3.97045e-06
4.91395e-06
6.22272e-06
7.99248e-06
1.07571e-05
1.59003e-05
2.47512e-05
3.60536e-05
4.56714e-05
4.96804e-05
4.69891e-05
3.80903e-05
2.62441e-05
1.55492e-05
2.2496e-05
4.49887e-05
4.03565e-05
6.3386e-05
6.27142e-05
6.16406e-05
6.05941e-05
5.96523e-05
5.87392e-05
5.77155e-05
5.64343e-05
5.48145e-05
5.28219e-05
5.03764e-05
4.7349e-05
4.35486e-05
3.8797e-05
3.28802e-05
2.56011e-05
1.70662e-05
8.40385e-06
8.54417e-06
1.77071e-05
2.60503e-05
3.09744e-05
3.20196e-05
3.04244e-05
2.80704e-05
2.61547e-05
2.47789e-05
2.3572e-05
2.22942e-05
2.09315e-05
1.95589e-05
1.82463e-05
1.70413e-05
1.59795e-05
1.50904e-05
1.43952e-05
1.3916e-05
1.36906e-05
1.37105e-05
1.38825e-05
1.44324e-05
1.61884e-05
1.9486e-05
2.78649e-05
3.84975e-05
4.02677e-05
3.76024e-05
4.08076e-05
4.62103e-05
4.90983e-05
4.79156e-05
4.40273e-05
3.99882e-05
3.6874e-05
3.46578e-05
3.3155e-05
3.26449e-05
3.42123e-05
3.75336e-05
4.10617e-05
4.46564e-05
4.90136e-05
5.3443e-05
5.53148e-05
5.27493e-05
4.64905e-05
3.87614e-05
3.14516e-05
2.54329e-05
2.07705e-05
1.71592e-05
1.42554e-05
1.18242e-05
9.74995e-06
7.98895e-06
6.52282e-06
5.33583e-06
4.41186e-06
3.73773e-06
3.3055e-06
3.11349e-06
3.1672e-06
3.4836e-06
4.09786e-06
5.05054e-06
6.36475e-06
8.13254e-06
1.08478e-05
1.5818e-05
2.45125e-05
3.60293e-05
4.63447e-05
5.12638e-05
4.93866e-05
4.11873e-05
3.0369e-05
2.19433e-05
2.76444e-05
4.76867e-05
4.14444e-05
1.54965e-05
1.50136e-05
1.43514e-05
1.37498e-05
1.32626e-05
1.28324e-05
1.23508e-05
1.17085e-05
1.08574e-05
9.80946e-06
8.62887e-06
7.53734e-06
7.05789e-06
7.87315e-06
1.01759e-05
1.36152e-05
1.77378e-05
2.2044e-05
2.58989e-05
2.86106e-05
2.96864e-05
2.91985e-05
2.77998e-05
2.63165e-05
2.51876e-05
2.43328e-05
2.34852e-05
2.24985e-05
2.13796e-05
2.0193e-05
1.89994e-05
1.78473e-05
1.67787e-05
1.58309e-05
1.5036e-05
1.44176e-05
1.39971e-05
1.38123e-05
1.38789e-05
1.41086e-05
1.45849e-05
1.61333e-05
1.91866e-05
2.64237e-05
3.84583e-05
4.32517e-05
4.05999e-05
4.22937e-05
4.74782e-05
5.05531e-05
4.95943e-05
4.57527e-05
4.18003e-05
3.89688e-05
3.7065e-05
3.58162e-05
3.54463e-05
3.699e-05
4.02243e-05
4.36478e-05
4.7201e-05
5.16337e-05
5.61345e-05
5.79314e-05
5.50915e-05
4.84303e-05
4.03022e-05
3.26698e-05
2.64076e-05
2.15624e-05
1.78108e-05
1.47945e-05
1.22694e-05
1.01153e-05
8.28654e-06
6.76343e-06
5.5292e-06
4.56724e-06
3.8646e-06
3.41384e-06
3.213e-06
3.26642e-06
3.58971e-06
4.21545e-06
5.17918e-06
6.49706e-06
8.24927e-06
1.08947e-05
1.56595e-05
2.41121e-05
3.57727e-05
4.68355e-05
5.28323e-05
5.20101e-05
4.48091e-05
3.5279e-05
2.87153e-05
3.32237e-05
5.05333e-05
4.26082e-05
9.61396e-06
9.82722e-06
1.00529e-05
1.01267e-05
9.99105e-06
9.67164e-06
9.25239e-06
8.86699e-06
8.66903e-06
8.82755e-06
9.51425e-06
1.08163e-05
1.26686e-05
1.48908e-05
1.72635e-05
1.95728e-05
2.1626e-05
2.32539e-05
2.4326e-05
2.47938e-05
2.47587e-05
2.44656e-05
2.41445e-05
2.38546e-05
2.35013e-05
2.29812e-05
2.22749e-05
2.14245e-05
2.04784e-05
1.94733e-05
1.84461e-05
1.74397e-05
1.64973e-05
1.56574e-05
1.49522e-05
1.44075e-05
1.40444e-05
1.38981e-05
1.40023e-05
1.42947e-05
1.47494e-05
1.60457e-05
1.89153e-05
2.49346e-05
3.7472e-05
4.57759e-05
4.42477e-05
4.41341e-05
4.87026e-05
5.19411e-05
5.12535e-05
4.7456e-05
4.35205e-05
4.10047e-05
3.95301e-05
3.86085e-05
3.83109e-05
3.96868e-05
4.27783e-05
4.61246e-05
4.96861e-05
5.4273e-05
5.89223e-05
6.06592e-05
5.75013e-05
5.03851e-05
4.18335e-05
3.38845e-05
2.73952e-05
2.23797e-05
1.8493e-05
1.53632e-05
1.27394e-05
1.04994e-05
8.59701e-06
7.01165e-06
5.72536e-06
4.72077e-06
3.98515e-06
3.51226e-06
3.3011e-06
3.35482e-06
3.68577e-06
4.32361e-06
5.30091e-06
6.62594e-06
8.35747e-06
1.09134e-05
1.54398e-05
2.3554e-05
3.52307e-05
4.70305e-05
5.42614e-05
5.47595e-05
4.88557e-05
4.07685e-05
3.56842e-05
3.89302e-05
5.33085e-05
4.36721e-05
8.70235e-06
8.79612e-06
8.84909e-06
8.7394e-06
8.42683e-06
7.94775e-06
7.38698e-06
6.87179e-06
6.55825e-06
6.61542e-06
7.17821e-06
8.26796e-06
9.7824e-06
1.15628e-05
1.34504e-05
1.5308e-05
1.70251e-05
1.85203e-05
1.97492e-05
2.07146e-05
2.14472e-05
2.19618e-05
2.22411e-05
2.22655e-05
2.20473e-05
2.16325e-05
2.10714e-05
2.03957e-05
1.96236e-05
1.87784e-05
1.7897e-05
1.70229e-05
1.61982e-05
1.54597e-05
1.48393e-05
1.43641e-05
1.40563e-05
1.39473e-05
1.40804e-05
1.443e-05
1.49111e-05
1.5965e-05
1.85949e-05
2.35878e-05
3.55443e-05
4.73712e-05
4.84222e-05
4.66944e-05
4.99818e-05
5.32563e-05
5.28788e-05
4.91423e-05
4.50557e-05
4.27037e-05
4.16581e-05
4.10674e-05
4.07627e-05
4.19134e-05
4.49351e-05
4.83379e-05
5.20304e-05
5.6885e-05
6.17697e-05
6.3465e-05
5.99474e-05
5.2326e-05
4.33318e-05
3.50797e-05
2.83873e-05
2.32191e-05
1.92058e-05
1.59636e-05
1.3237e-05
1.09044e-05
8.92139e-06
7.26757e-06
5.92379e-06
4.87166e-06
4.09867e-06
3.60001e-06
3.37613e-06
3.42941e-06
3.76852e-06
4.41931e-06
5.41264e-06
6.75112e-06
8.46668e-06
1.09215e-05
1.51799e-05
2.2862e-05
3.43815e-05
4.68269e-05
5.53969e-05
5.74639e-05
5.31179e-05
4.65493e-05
4.25726e-05
4.43603e-05
5.56611e-05
4.44008e-05
5.45821e-06
5.53247e-06
5.57083e-06
5.4983e-06
5.28824e-06
4.96955e-06
4.61533e-06
4.34563e-06
4.31439e-06
4.66111e-06
5.44281e-06
6.61646e-06
8.08468e-06
9.73898e-06
1.14776e-05
1.32112e-05
1.48655e-05
1.63826e-05
1.77173e-05
1.883e-05
1.96886e-05
2.02781e-05
2.06069e-05
2.0704e-05
2.06071e-05
2.03496e-05
1.99537e-05
1.94335e-05
1.88063e-05
1.80996e-05
1.735e-05
1.65979e-05
1.58822e-05
1.52379e-05
1.46968e-05
1.42867e-05
1.40313e-05
1.39586e-05
1.41137e-05
1.45073e-05
1.50468e-05
1.59253e-05
1.81997e-05
2.24694e-05
3.28835e-05
4.75234e-05
5.2668e-05
5.03838e-05
5.15983e-05
5.4531e-05
5.44539e-05
5.08369e-05
4.63813e-05
4.37785e-05
4.28956e-05
4.25045e-05
4.21398e-05
4.31802e-05
4.63962e-05
5.01165e-05
5.41446e-05
5.94216e-05
6.46364e-05
6.6305e-05
6.23844e-05
5.42124e-05
4.47671e-05
3.62369e-05
2.93745e-05
2.4077e-05
1.99488e-05
1.65974e-05
1.3765e-05
1.1333e-05
9.26139e-06
7.53169e-06
6.12402e-06
5.01868e-06
4.20318e-06
3.67452e-06
3.43547e-06
3.48828e-06
3.83692e-06
4.50165e-06
5.51222e-06
6.86994e-06
8.58102e-06
1.09368e-05
1.49058e-05
2.20718e-05
3.32252e-05
4.61208e-05
5.6033e-05
5.98551e-05
5.7276e-05
5.22358e-05
4.89758e-05
4.90688e-05
5.7221e-05
4.45573e-05
4.24339e-06
4.30986e-06
4.34667e-06
4.30559e-06
4.16893e-06
3.96338e-06
3.75597e-06
3.65268e-06
3.77773e-06
4.22285e-06
5.00706e-06
6.0878e-06
7.39545e-06
8.85517e-06
1.03949e-05
1.19474e-05
1.34513e-05
1.4851e-05
1.60977e-05
1.71539e-05
1.79989e-05
1.86273e-05
1.90445e-05
1.92635e-05
1.93026e-05
1.91806e-05
1.89145e-05
1.85206e-05
1.8019e-05
1.74365e-05
1.68065e-05
1.61656e-05
1.55498e-05
1.49927e-05
1.45251e-05
1.41756e-05
1.39688e-05
1.39309e-05
1.41037e-05
1.45245e-05
1.5132e-05
1.59313e-05
1.77726e-05
2.15244e-05
2.99182e-05
4.58517e-05
5.61471e-05
5.53633e-05
5.41308e-05
5.59246e-05
5.59787e-05
5.25594e-05
4.75935e-05
4.41093e-05
4.2725e-05
4.21543e-05
4.17007e-05
4.29864e-05
4.68812e-05
5.12943e-05
5.59366e-05
6.18341e-05
6.74805e-05
6.91255e-05
6.47509e-05
5.59895e-05
4.61006e-05
3.73343e-05
3.03462e-05
2.49487e-05
2.07206e-05
1.72657e-05
1.43262e-05
1.17885e-05
9.61956e-06
7.80522e-06
6.32602e-06
5.16098e-06
4.29743e-06
3.7343e-06
3.47733e-06
3.52925e-06
3.88891e-06
4.56896e-06
5.59715e-06
6.97772e-06
8.69819e-06
1.09714e-05
1.46464e-05
2.12335e-05
3.18021e-05
4.48472e-05
5.59556e-05
6.15999e-05
6.09102e-05
5.73281e-05
5.43767e-05
5.25638e-05
5.75963e-05
4.39238e-05
3.58321e-06
3.63332e-06
3.65759e-06
3.62717e-06
3.53401e-06
3.40391e-06
3.29545e-06
3.29552e-06
3.49748e-06
3.96198e-06
4.6963e-06
5.6683e-06
6.82809e-06
8.11986e-06
9.48669e-06
1.08731e-05
1.22276e-05
1.35049e-05
1.4667e-05
1.56834e-05
1.65314e-05
1.71975e-05
1.76786e-05
1.79805e-05
1.81147e-05
1.80947e-05
1.79348e-05
1.76503e-05
1.72602e-05
1.6789e-05
1.62667e-05
1.57265e-05
1.52019e-05
1.47247e-05
1.43249e-05
1.40309e-05
1.38684e-05
1.38628e-05
1.40507e-05
1.44831e-05
1.51473e-05
1.59545e-05
1.73974e-05
2.0633e-05
2.71495e-05
4.23513e-05
5.77609e-05
6.11437e-05
5.83822e-05
5.79235e-05
5.75556e-05
5.43136e-05
4.88773e-05
4.39362e-05
4.10188e-05
3.95167e-05
3.88993e-05
4.10027e-05
4.62124e-05
5.17466e-05
5.73288e-05
6.40797e-05
7.02592e-05
7.18607e-05
6.6966e-05
5.75847e-05
4.72843e-05
3.83468e-05
3.12911e-05
2.58287e-05
2.15184e-05
1.79679e-05
1.49225e-05
1.22742e-05
9.99897e-06
8.08998e-06
6.53013e-06
5.29771e-06
4.3796e-06
3.77688e-06
3.4992e-06
3.55045e-06
3.92349e-06
4.6209e-06
5.66647e-06
7.07032e-06
8.81159e-06
1.10283e-05
1.44267e-05
2.04036e-05
3.01931e-05
4.30108e-05
5.49951e-05
6.23472e-05
6.35303e-05
6.12366e-05
5.82008e-05
5.43632e-05
5.64346e-05
4.23585e-05
3.07036e-06
3.11385e-06
3.13755e-06
3.1254e-06
3.07596e-06
3.01332e-06
2.98733e-06
3.06667e-06
3.31872e-06
3.78296e-06
4.46189e-06
5.33209e-06
6.3575e-06
7.4967e-06
8.70656e-06
9.94443e-06
1.11696e-05
1.23439e-05
1.34328e-05
1.44059e-05
1.52404e-05
1.5922e-05
1.64443e-05
1.68072e-05
1.7016e-05
1.70799e-05
1.70104e-05
1.68212e-05
1.65293e-05
1.61569e-05
1.5731e-05
1.52815e-05
1.48396e-05
1.44352e-05
1.40971e-05
1.38533e-05
1.37303e-05
1.37534e-05
1.39547e-05
1.43873e-05
1.50837e-05
1.59477e-05
1.71323e-05
1.97492e-05
2.48754e-05
3.75757e-05
5.64939e-05
6.63457e-05
6.48076e-05
6.1563e-05
5.96213e-05
5.6175e-05
5.03872e-05
4.38322e-05
3.83832e-05
3.4808e-05
3.37309e-05
3.72614e-05
4.43777e-05
5.14127e-05
5.82733e-05
6.61344e-05
7.29334e-05
7.44307e-05
6.89262e-05
5.8907e-05
4.82607e-05
3.92476e-05
3.21984e-05
2.67119e-05
2.23383e-05
1.87015e-05
1.55538e-05
1.27925e-05
1.04032e-05
8.38884e-06
6.73764e-06
5.42857e-06
4.44829e-06
3.8002e-06
3.49875e-06
3.54983e-06
3.93931e-06
4.65705e-06
5.72003e-06
7.14505e-06
8.91341e-06
1.11022e-05
1.42625e-05
1.96358e-05
2.85068e-05
4.0701e-05
5.30809e-05
6.18074e-05
6.46593e-05
6.33773e-05
5.99155e-05
5.40544e-05
5.34738e-05
3.98536e-05
2.68631e-06
2.72786e-06
2.75562e-06
2.76174e-06
2.7494e-06
2.74066e-06
2.77627e-06
2.90825e-06
3.1843e-06
3.63143e-06
4.25185e-06
5.03021e-06
5.94129e-06
6.95455e-06
8.03639e-06
9.15188e-06
1.02662e-05
1.1346e-05
1.23613e-05
1.32857e-05
1.40978e-05
1.47819e-05
1.53283e-05
1.57333e-05
1.59989e-05
1.61308e-05
1.61377e-05
1.60307e-05
1.58249e-05
1.55399e-05