/*--------------------------------*- C++ -*----------------------------------*\
| =========                 |                                                 |
| \\      /  F ield         | OpenFOAM: The Open Source CFD Toolbox           |
|  \\    /   O peration     | Version:  2.1.1                                 |
|   \\  /    A nd           | Web:      www.OpenFOAM.org                      |
|    \\/     M anipulation  |                                                 |
\*---------------------------------------------------------------------------*/
FoamFile
{
    version     2.0;
    format      ascii;
    class       volScalarField;
    location    "0.185";
    object      p;
}
// * * * * * * * * * * * * * * * * * * * * * * * * * * * * * * * * * * * * * //

dimensions      [0 2 -2 0 0 0 0];

internalField   nonuniform List<scalar> 
6820
(
19.2541
1.41659
-1.59702
-1.79004
-1.9694
-1.90345
-1.85475
-1.87589
-1.9324
-2.00892
-2.09689
-2.19101
-2.28878
-2.38903
-2.49113
-2.59472
-2.69957
-2.80552
-2.9124
-3.02013
-3.12881
-3.23826
-3.34888
-3.46021
-3.57254
-3.68592
-3.80065
-3.9167
-4.03544
-4.1543
-4.28389
-4.39437
-4.57981
12.5739
1.5988
-1.28468
-1.5909
-1.85035
-1.88069
-1.86874
-1.90119
-1.95953
-2.03315
-2.1172
-2.20772
-2.30248
-2.40036
-2.50068
-2.60295
-2.70685
-2.81214
-2.91856
-3.02587
-3.13417
-3.24326
-3.35407
-3.46534
-3.57753
-3.69074
-3.80527
-3.92118
-4.03943
-4.15882
-4.28667
-4.4083
-4.59427
9.86078
3.03093
-0.262027
-1.02626
-1.50155
-1.70683
-1.77378
-1.83906
-1.91677
-2.00273
-2.09541
-2.19249
-2.29225
-2.39379
-2.49667
-2.60065
-2.70562
-2.8115
-2.91817
-3.02563
-3.13398
-3.24331
-3.35265
-3.46367
-3.57548
-3.68803
-3.80166
-3.91634
-4.03279
-4.14969
-4.2705
-4.3814
-4.49385
7.87685
3.25983
0.1619
-0.703203
-1.18196
-1.46608
-1.60305
-1.71235
-1.82107
-1.9275
-2.03311
-2.13886
-2.24486
-2.35125
-2.45807
-2.56527
-2.67284
-2.78081
-2.88915
-2.99786
-3.10698
-3.21653
-3.32631
-3.43665
-3.54738
-3.65866
-3.77083
-3.88359
-3.99706
-4.11002
-4.22304
-4.32779
-4.42402
6.24299
3.16114
0.555729
-0.353328
-0.867544
-1.23055
-1.43732
-1.58578
-1.71858
-1.84119
-1.95795
-2.07209
-2.18451
-2.29558
-2.40589
-2.51578
-2.62537
-2.73475
-2.84398
-2.95311
-3.06223
-3.17137
-3.28044
-3.38944
-3.49824
-3.60722
-3.7162
-3.82498
-3.9334
-4.04028
-4.14505
-4.24284
-4.33202
5.02224
2.98215
0.808733
-0.140835
-0.673969
-1.06388
-1.30535
-1.47637
-1.62497
-1.76001
-1.88596
-2.00682
-2.12446
-2.2397
-2.35314
-2.46524
-2.57632
-2.68661
-2.79624
-2.90534
-3.01398
-3.12224
-3.23006
-3.33776
-3.44552
-3.55276
-3.65914
-3.76456
-3.86874
-3.9707
-4.06965
-4.16286
-4.25002
4.07372
2.69796
0.9285
0.0164488
-0.504076
-0.901942
-1.1733
-1.36954
-1.53586
-1.68406
-1.81948
-1.94715
-2.06983
-2.18883
-2.30506
-2.41926
-2.5319
-2.64326
-2.75354
-2.86289
-2.97142
-3.07922
-3.18636
-3.2929
-3.39861
-3.50321
-3.60658
-3.70855
-3.80872
-3.90626
-4.00034
-4.08933
-4.17264
3.33021
2.39432
0.982377
0.135126
-0.373655
-0.772901
-1.06275
-1.27599
-1.45402
-1.61138
-1.75403
-1.88726
-2.01429
-2.13673
-2.2557
-2.37199
-2.48612
-2.59846
-2.70925
-2.81868
-2.92688
-3.03394
-3.13987
-3.2447
-3.34843
-3.45088
-3.55181
-3.65093
-3.74779
-3.84172
-3.93199
-4.01752
-4.09763
2.74078
2.09353
0.975201
0.208386
-0.277729
-0.665067
-0.961026
-1.18553
-1.37325
-1.53905
-1.68885
-1.82774
-1.95921
-2.08516
-2.20683
-2.32514
-2.44074
-2.55405
-2.66539
-2.77496
-2.88295
-2.98942
-3.09444
-3.19806
-3.30019
-3.40062
-3.49913
-3.59545
-3.6892
-3.77984
-3.86674
-3.94916
-4.02638
2.2676
1.81124
0.930485
0.252525
-0.204382
-0.575631
-0.872181
-1.10433
-1.29926
-1.47136
-1.62661
-1.76996
-1.905
-2.0338
-2.15773
-2.27777
-2.39461
-2.50872
-2.62045
-2.73003
-2.83767
-2.94344
-3.04741
-3.14959
-3.24993
-3.34829
-3.44449
-3.53829
-3.62934
-3.7172
-3.80136
-3.8813
-3.95639
1.88378
1.55516
0.862047
0.271373
-0.152902
-0.504608
-0.795529
-1.0302
-1.22916
-1.40555
-1.56512
-1.71236
-1.85069
-1.98223
-2.10837
-2.23011
-2.3482
-2.46313
-2.57529
-2.68495
-2.79225
-2.89738
-3.0004
-3.10133
-3.20013
-3.2967
-3.39086
-3.48241
-3.57106
-3.65649
-3.7383
-3.81616
-3.88955
1.56968
1.32766
0.780793
0.271841
-0.117311
-0.447311
-0.728833
-0.962836
-1.16393
-1.34328
-1.50615
-1.6565
-1.79754
-1.93135
-2.05931
-2.18247
-2.30156
-2.41712
-2.52954
-2.63911
-2.74602
-2.85043
-2.95243
-3.05205
-3.14926
-3.244
-3.33615
-3.42556
-3.51202
-3.59529
-3.67511
-3.75127
-3.82344
1.311
1.12869
0.694856
0.259256
-0.0945175
-0.40221
-0.671931
-0.902406
-1.10343
-1.28405
-1.44896
-1.60157
-1.74475
-1.88046
-2.01004
-2.13447
-2.25448
-2.37063
-2.4833
-2.59279
-2.69933
-2.80306
-2.9041
-3.0025
-3.09826
-3.19137
-3.28172
-3.36924
-3.45377
-3.53518
-3.6133
-3.68805
-3.75924
1.09718
0.956815
0.60989
0.238247
-0.0811357
-0.36649
-0.622891
-0.847724
-1.04704
-1.22778
-1.39385
-1.5481
-1.69297
-1.83024
-1.96116
-2.08665
-2.20742
-2.32401
-2.43681
-2.54613
-2.6522
-2.75519
-2.85523
-2.95238
-3.04669
-3.13816
-3.22676
-3.31245
-3.39515
-3.47482
-3.55138
-3.62485
-3.69519
0.920412
0.810052
0.529839
0.212763
-0.0743007
-0.338041
-0.580572
-0.798393
-0.99471
-1.17449
-1.34082
-1.496
-1.64203
-1.78047
-1.91244
-2.03878
-2.16016
-2.27709
-2.38996
-2.49908
-2.60467
-2.70693
-2.80599
-2.90195
-2.99488
-3.08483
-3.1718
-3.25579
-3.33683
-3.4149
-3.49003
-3.56232
-3.63182
0.774834
0.686335
0.457334
0.186029
-0.0714765
-0.314775
-0.54345
-0.753399
-0.945747
-1.12375
-1.28967
-1.44524
-1.59204
-1.73136
-1.86416
-1.99119
-2.11305
-2.23022
-2.34307
-2.45191
-2.55696
-2.65844
-2.75649
-2.85124
-2.94279
-3.0312
-3.11655
-3.19888
-3.27825
-3.35474
-3.42842
-3.49947
-3.56801
0.656056
0.583735
0.394101
0.16068
-0.0704171
-0.294817
-0.510156
-0.711915
-0.899716
-1.07537
-1.24036
-1.39587
-1.54307
-1.68298
-1.81638
-1.94391
-2.06612
-2.18342
-2.29618
-2.40468
-2.50917
-2.60984
-2.70689
-2.80044
-2.89062
-2.97754
-3.06131
-3.14201
-3.21976
-3.29467
-3.36689
-3.43661
-3.50402
0.560778
0.500583
0.341255
0.138834
-0.0691636
-0.27646
-0.479333
-0.672978
-0.855953
-1.02891
-1.19261
-1.34773
-1.49506
-1.63533
-1.76916
-1.89707
-2.01951
-2.13686
-2.24945
-2.35755
-2.46142
-2.56125
-2.65724
-2.74955
-2.83834
-2.92374
-3.00589
-3.08493
-3.16098
-3.23423
-3.30484
-3.37305
-3.43908
0.486538
0.435511
0.299525
0.122201
-0.0659962
-0.258153
-0.4497
-0.635658
-0.813844
-0.983995
-1.14623
-1.30078
-1.44807
-1.58856
-1.72271
-1.85089
-1.97349
-2.09082
-2.20319
-2.31085
-2.41406
-2.51302
-2.60794
-2.699
-2.78638
-2.87025
-2.95076
-3.02808
-3.10239
-3.17388
-3.24276
-3.30926
-3.37363
0.431535
0.387467
0.26942
0.112172
-0.0594077
-0.238486
-0.420045
-0.599015
-0.772701
-0.940136
-1.10089
-1.2548
-1.40195
-1.54258
-1.67694
-1.80532
-1.92799
-2.04523
-2.15731
-2.26447
-2.36695
-2.46498
-2.55877
-2.64851
-2.73442
-2.81667
-2.89545
-2.97097
-3.04341
-3.11298
-3.17992
-3.24447
-3.30688
0.394511
0.355711
0.251355
0.109914
-0.0480637
-0.21618
-0.389248
-0.56217
-0.731902
-0.896944
-1.05641
-1.20979
-1.35688
-1.49768
-1.63229
-1.76088
-1.88364
-2.00079
-2.11258
-2.21923
-2.32098
-2.41806
-2.51069
-2.59909
-2.68348
-2.76406
-2.84105
-2.91466
-2.98511
-3.05262
-3.11743
-3.17978
-3.23991
0.374662
0.3398
0.245729
0.116452
-0.0307548
-0.190042
-0.356218
-0.524204
-0.690713
-0.853838
-1.01232
-1.16535
-1.31247
-1.45348
-1.58835
-1.71711
-1.83992
-1.95693
-2.06836
-2.17443
-2.27536
-2.3714
-2.46278
-2.54974
-2.6325
-2.7113
-2.78637
-2.85793
-2.92622
-2.99147
-3.05392
-3.11383
-3.17141
0.371611
0.339599
0.253032
0.132725
-0.00638391
-0.159007
-0.320036
-0.48442
-0.648698
-0.810655
-0.968731
-1.12185
-1.26936
-1.41087
-1.54621
-1.67534
-1.79832
-1.9153
-2.02644
-2.13197
-2.23212
-2.32712
-2.41723
-2.50271
-2.58379
-2.66073
-2.73377
-2.80316
-2.86914
-2.93195
-2.99183
-3.04903
-3.10374
0.385329
0.355272
0.273819
0.159689
0.0261472
-0.121962
-0.279624
-0.441801
-0.604897
-0.766457
-0.924679
-1.07828
-1.22642
-1.36858
-1.50447
-1.63398
-1.75713
-1.87402
-1.98481
-2.08972
-2.18897
-2.28283
-2.37155
-2.45542
-2.53468
-2.60961
-2.68047
-2.74752
-2.811
-2.87118
-2.92828
-2.98256
-3.03421
0.41621
0.387308
0.308856
0.198284
0.067793
-0.0780975
-0.23444
-0.396176
-0.55958
-0.721993
-0.881405
-1.03635
-1.18584
-1.32923
-1.46615
-1.59642
-1.72002
-1.83703
-1.94762
-2.052
-2.15041
-2.24314
-2.33045
-2.41265
-2.49002
-2.56284
-2.63139
-2.69594
-2.75676
-2.8141
-2.86819
-2.91928
-2.96754
0.46504
0.436556
0.359159
0.249692
0.11985
-0.0260095
-0.182932
-0.345785
-0.510715
-0.674908
-0.836198
-0.992984
-1.14416
-1.289
-1.42708
-1.55817
-1.68223
-1.79934
-1.90967
-2.01344
-2.11091
-2.20238
-2.28816
-2.36856
-2.44388
-2.51442
-2.5805
-2.64239
-2.70037
-2.7547
-2.80563
-2.85341
-2.89822
0.533062
0.504245
0.425894
0.314895
0.182909
0.0342825
-0.125922
-0.292394
-0.461094
-0.629027
-0.793868
-0.95389
-1.1079
-1.2551
-1.39505
-1.5275
-1.65242
-1.7699
-1.88014
-1.98339
-2.07995
-2.17015
-2.25432
-2.33281
-2.40595
-2.47407
-2.53749
-2.59652
-2.65145
-2.70254
-2.75004
-2.79418
-2.83515
0.62208
0.592201
0.510946
0.395976
0.259485
0.105973
-0.0593187
-0.230876
-0.404503
-0.577082
-0.746183
-0.909995
-1.06726
-1.21717
-1.35923
-1.49322
-1.61912
-1.73704
-1.84722
-1.94993
-2.04553
-2.13437
-2.21683
-2.29329
-2.36411
-2.42967
-2.49029
-2.54632
-2.59805
-2.64579
-2.68978
-2.73032
-2.76758
0.734508
0.702544
0.615676
0.493042
0.347914
0.185191
0.0105484
-0.170034
-0.352046
-0.532191
-0.707934
-0.877416
-1.03938
-1.19304
-1.33797
-1.474
-1.60117
-1.71969
-1.82983
-1.93195
-2.02646
-2.11378
-2.19432
-2.26852
-2.33678
-2.39949
-2.45704
-2.50976
-2.55799
-2.60203
-2.64215
-2.67861
-2.71157
0.873825
0.839052
0.744512
0.611999
0.456507
0.283224
0.0980864
-0.0925608
-0.283967
-0.472688
-0.656074
-0.832187
-0.999743
-1.15796
-1.30644
-1.44508
-1.57399
-1.69343
-1.80377
-1.90546
-1.99895
-2.08476
-2.16336
-2.23523
-2.30083
-2.36061
-2.41498
-2.46431
-2.50899
-2.54933
-2.58565
-2.61825
-2.64736
1.04411
1.00413
0.896113
0.745997
0.571821
0.37984
0.176935
-0.0297584
-0.235194
-0.435918
-0.629351
-0.813681
-0.987787
-1.15106
-1.30327
-1.44446
-1.57489
-1.69495
-1.80512
-1.90595
-1.99799
-2.08182
-2.15799
-2.22705
-2.28951
-2.34585
-2.39652
-2.44195
-2.48252
-2.51858
-2.55044
-2.5784
-2.60265
1.2527
1.20805
1.08626
0.919214
0.727701
0.517623
0.296315
0.0719024
-0.149965
-0.365501
-0.571892
-0.76722
-0.950381
-1.12086
-1.27856
-1.4237
-1.55671
-1.67816
-1.7887
-1.88902
-1.97983
-2.06181
-2.13562
-2.2019
-2.26122
-2.31414
-2.36117
-2.40276
-2.43935
-2.47134
-2.49911
-2.52302
-2.54334
1.5047
1.44557
1.29139
1.08682
0.86015
0.618362
0.369441
0.121867
-0.119155
-0.350414
-0.569533
-0.774988
-0.966033
-1.14245
-1.3044
-1.45231
-1.58679
-1.70859
-1.8185
-1.91735
-2.00597
-2.08515
-2.15565
-2.21817
-2.27338
-2.32187
-2.36422
-2.40091
-2.43243
-2.45918
-2.48157
-2.49992
-2.51453
1.82203
1.76049
1.58651
1.35562
1.09876
0.822487
0.538292
0.25781
-0.0126221
-0.269316
-0.509655
-0.732235
-0.936669
-1.12318
-1.29239
-1.44517
-1.58256
-1.70565
-1.81555
-1.91336
-2.0001
-2.07676
-2.14423
-2.20332
-2.25479
-2.2993
-2.33746
-2.36983
-2.39691
-2.41919
-2.43712
-2.45119
-2.46177
2.19447
2.07794
1.81896
1.51751
1.21029
0.894256
0.578036
0.272059
-0.0192766
-0.293409
-0.548175
-0.782488
-0.996201
-1.1897
-1.36376
-1.51944
-1.65797
-1.78065
-1.88881
-1.98376
-2.06671
-2.13882
-2.20114
-2.25463
-2.30014
-2.33841
-2.37013
-2.39588
-2.41619
-2.43158
-2.4425
-2.44944
-2.45292
2.73394
2.64362
2.34735
1.97869
1.59126
1.19235
0.802404
0.435078
0.0938978
-0.219327
-0.50361
-0.759559
-0.988644
-1.19262
-1.37338
-1.53291
-1.67312
-1.79585
-1.90285
-1.99571
-2.0759
-2.14475
-2.20344
-2.25303
-2.29444
-2.32844
-2.35572
-2.37687
-2.39239
-2.40279
-2.40855
-2.41036
-2.40889
3.23919
2.91772
2.45248
2.03744
1.63182
1.2082
0.794667
0.404496
0.0391489
-0.297804
-0.603453
-0.877437
-1.12067
-1.33469
-1.52156
-1.68361
-1.82328
-1.94291
-2.04474
-2.13086
-2.20315
-2.26327
-2.3127
-2.35272
-2.38442
-2.4087
-2.42628
-2.43773
-2.44345
-2.44382
-2.43895
-2.42965
-2.41571
4.55013
4.22993
3.4599
2.76442
2.13296
1.53235
0.994424
0.519157
0.0960095
-0.279017
-0.609448
-0.89972
-1.15378
-1.37504
-1.56667
-1.73161
-1.87259
-1.99218
-2.0928
-2.17668
-2.24584
-2.30213
-2.34716
-2.38235
-2.40891
-2.42782
-2.43979
-2.44531
-2.44448
-2.43731
-2.42275
-2.40187
-2.36922
4.56903
3.8259
3.22656
2.76657
2.17447
1.54963
0.968356
0.427786
-0.0660414
-0.502771
-0.881629
-1.20622
-1.48082
-1.71035
-1.90018
-2.05556
-2.18137
-2.28202
-2.3614
-2.42291
-2.46948
-2.50362
-2.52743
-2.54272
-2.55094
-2.55328
-2.55064
-2.54349
-2.53185
-2.51479
-2.4899
-2.45345
-2.39319
10.8317
6.22482
4.44636
3.60316
2.60941
1.74263
1.05177
0.453612
-0.068378
-0.514814
-0.894852
-1.21684
-1.48724
-1.71233
-1.89809
-2.04996
-2.17281
-2.27099
-2.34834
-2.40816
-2.45335
-2.48634
-2.50926
-2.52385
-2.53166
-2.53389
-2.53171
-2.52573
-2.51721
-2.50539
-2.49349
-2.47534
-2.46409
-4.46346
-4.81369
-5.20213
-5.28521
-5.04321
-4.49867
-3.78459
-3.09663
-2.61006
-2.4715
-2.88805
-4.01256
-5.94251
-8.64733
-11.9612
-15.6201
-19.3103
-22.6875
-25.3693
-27.0425
-27.4678
-26.5494
-24.3604
-21.149
-17.2824
-13.1316
-8.98662
-5.05287
-1.48072
1.63049
4.24394
6.37958
8.09069
9.44224
10.4986
11.3174
11.947
12.4258
12.7834
13.0393
13.2046
13.2836
13.2838
13.1619
12.6789
11.5328
9.59331
6.78613
2.67517
-3.55518
-12.3726
-23.292
-35.0571
-46.2881
-55.844
-62.8009
-66.1893
-65.2932
-59.9798
-51.1464
-39.9555
-27.7386
-16.1778
-6.78056
-0.118131
4.16884
6.79475
8.38859
9.37028
9.98667
10.3766
10.6202
10.7677
10.8525
10.8971
10.9165
10.9199
10.913
10.8986
10.8777
10.85
10.8142
10.768
10.7081
10.6289
10.5199
10.363
10.1272
9.75543
9.10929
7.8471
5.23648
0.479996
-6.51516
-14.1744
-20.1499
-21.3112
-18.4864
-9.12568
-6.2139
-4.62514
-4.84006
-5.1333
-5.19882
-4.96997
-4.47101
-3.82282
-3.20386
-2.79628
-2.75852
-3.25105
-4.3982
-6.26592
-8.81527
-11.8955
-15.2669
-18.6105
-21.5831
-23.87
-25.1921
-25.3597
-24.3236
-22.1971
-19.2279
-15.7229
-11.9687
-8.19418
-4.57805
-1.261
1.66068
4.14581
6.20328
7.87326
9.20913
10.2661
11.0955
11.7409
12.238
12.6145
12.8892
13.0727
13.1685
13.1819
13.0912
12.6827
11.6234
9.72864
6.90927
2.77482
-3.47421
-12.3504
-23.3912
-35.3107
-46.6916
-56.3775
-63.4388
-66.9002
-66.0498
-60.7238
-51.8457
-40.5867
-28.2377
-16.4821
-6.90093
-0.127956
4.19709
6.82114
8.40013
9.36727
9.97392
10.3593
10.6024
10.7521
10.8406
10.8897
10.9138
10.9218
10.9189
10.9078
10.8894
10.8635
10.8287
10.7829
10.7226
10.6422
10.5311
10.3711
10.1314
9.75808
9.12292
7.91461
5.45978
1.01698
-5.521
-12.6879
-18.3184
-19.4382
-16.9925
-8.11498
-6.1451
-4.53477
-4.74546
-5.00107
-5.0505
-4.84255
-4.42187
-3.89641
-3.41808
-3.14008
-3.19321
-3.70951
-4.80595
-6.53806
-8.86346
-11.6384
-14.6285
-17.5521
-20.1128
-22.0247
-23.0486
-23.0484
-22.0198
-20.0788
-17.4228
-14.2878
-10.9015
-7.46123
-4.13307
-1.05086
1.69267
4.05384
6.03311
7.65976
8.97695
10.0316
10.8688
11.5277
12.0412
12.4349
12.7269
12.9276
13.0393
13.0646
12.9949
12.6512
11.6847
9.85778
7.04987
2.90847
-3.32936
-12.2081
-23.3031
-35.3228
-46.8202
-56.6175
-63.7709
-67.2971
-66.4862
-61.1576
-52.2629
-40.9824
-28.5626
-16.6757
-6.96264
-0.113796
4.23018
6.84389
8.40536
9.35782
9.95545
10.3372
10.5808
10.7336
10.8266
10.8809
10.9103
10.9231
10.9245
10.9169
10.9012
10.8772
10.8436
10.7983
10.7377
10.6562
10.5431
10.3802
10.1372
9.7626
9.1381
7.98259
5.68349
1.55938
-4.50932
-11.1706
-16.4503
-17.5354
-15.4749
-7.12041
-6.03786
-4.50853
-4.69078
-4.87192
-4.89837
-4.73197
-4.40848
-4.01163
-3.66361
-3.49478
-3.62238
-4.15941
-5.1975
-6.77002
-8.8312
-11.2513
-13.8309
-16.3263
-18.4798
-20.0548
-20.8671
-20.8153
-19.8896
-18.1687
-15.8055
-12.9913
-9.92187
-6.77694
-3.71071
-0.847036
1.72748
3.96844
5.86954
7.45079
8.74636
9.79566
10.6378
11.3079
11.8356
12.2448
12.5526
12.7688
12.8952
12.9316
12.8761
12.5903
11.7243
9.98783
7.21686
3.08993
-3.1008
-11.9185
-22.9929
-35.0526
-46.6312
-56.5226
-63.7578
-67.3396
-66.5636
-61.2479
-52.3711
-41.1197
-28.693
-16.7426
-6.95547
-0.070593
4.26985
6.86309
8.40378
9.3413
9.93073
10.31
10.5552
10.712
10.8104
10.8706
10.9058
10.924
10.93
10.9262
10.9135
10.8916
10.8592
10.8144
10.7537
10.6712
10.5562
10.3908
10.145
9.7699
9.15657
8.05359
5.9096
2.10572
-3.48867
-9.6405
-14.5713
-15.6315
-13.9594
-6.16152
-5.89373
-4.42169
-4.55864
-4.68799
-4.71355
-4.5996
-4.37292
-4.10121
-3.88221
-3.82291
-4.02144
-4.56703
-5.52662
-6.92183
-8.71195
-10.7886
-12.9856
-15.0999
-16.9189
-18.246
-18.921
-18.8461
-18.0055
-16.4618
-14.3395
-11.7991
-9.01087
-6.13502
-3.31068
-0.650736
1.76405
3.88891
5.71219
7.24623
8.5174
9.55832
10.4026
11.0812
11.6212
12.044
12.3656
12.5958
12.7357
12.7825
12.7359
12.4991
11.7394
10.1173
7.41565
3.33234
-2.77215
-11.4634
-22.438
-34.4714
-46.0901
-56.0531
-63.3537
-66.977
-66.2328
-60.9516
-52.135
-40.9689
-28.6043
-16.6659
-6.87116
0.003142
4.31411
6.8758
8.39267
9.3156
9.89821
10.2765
10.5247
10.6868
10.7917
10.8586
10.9002
10.9243
10.9353
10.9357
10.9261
10.9064
10.8755
10.8313
10.7704
10.687
10.5705
10.4029
10.1549
9.78006
9.1784
8.12725
6.13553
2.64783
-2.47558
-8.12167
-12.709
-13.7533
-12.4674
-5.25078
-5.71369
-4.34244
-4.45768
-4.5598
-4.5883
-4.51756
-4.36983
-4.19904
-4.08164
-4.10363
-4.34622
-4.88133
-5.76083
-6.99923
-8.55954
-10.3495
-12.2294
-14.0281
-15.5642
-16.6682
-17.2042
-17.0906
-16.3115
-14.9141
-12.9988
-10.7001
-8.16483
-5.53381
-2.93176
-0.461308
1.80242
3.81508
5.56101
7.04625
8.29042
9.32002
10.1635
10.8482
11.398
11.8324
12.1662
12.4085
12.5603
12.6169
12.5752
12.3749
11.7203
10.235
7.64135
3.63886
-2.33832
-10.8372
-21.6264
-33.5551
-45.1598
-55.1618
-62.5057
-66.1566
-65.446
-60.2306
-51.5257
-40.507
-28.2778
-16.432
-6.70316
0.108466
4.36123
6.8795
8.36975
9.27891
9.85658
10.2359
10.4888
10.6576
10.7701
10.8447
10.8936
10.9241
10.9406
10.9453
10.9391
10.9218
10.8924
10.8491
10.7882
10.704
10.5861
10.4167
10.1671
9.7932
9.2034
8.20225
6.35709
3.17612
-1.48687
-6.63754
-10.8909
-11.9291
-11.0224
-4.40202
-5.50076
-4.26186
-4.36154
-4.44573
-4.47874
-4.44431
-4.35996
-4.26838
-4.23022
-4.315
-4.58944
-5.11094
-5.91837
-7.01907
-8.37848
-9.91744
-11.5181
-13.0369
-14.3215
-15.2301
-15.6476
-15.502
-14.7753
-13.5037
-11.7696
-9.68606
-7.37864
-4.97055
-2.57299
-0.278917
1.84203
3.74644
5.41573
6.85083
8.06559
9.08103
9.921
10.609
11.1662
11.6102
11.9542
12.2067
12.3686
12.434
12.3955
12.2184
11.661
10.3294
7.88555
4.00991
-1.79511
-10.0362
-20.55
-32.2827
-43.804
-53.7996
-61.1581
-64.823
-64.1556
-59.0487
-50.5175
-39.7142
-27.6978
-16.0313
-6.44815
0.243934
4.4077
6.87052
8.33192
9.22892
9.80416
10.1869
10.4466
10.624
10.7455
10.8288
10.8857
10.9233
10.9457
10.9552
10.9526
10.9379
10.9102
10.8677
10.8069
10.7221
10.603
10.4323
10.1818
9.80959
9.23183
8.27827
6.57173
3.68308
-0.537508
-5.2107
-9.14479
-10.1861
-9.6455
-3.62575
-5.25882
-4.18415
-4.27657
-4.35422
-4.3964
-4.39365
-4.36045
-4.33124
-4.35452
-4.48589
-4.77898
-5.27882
-6.01403
-6.98721
-8.16702
-9.486
-10.845
-12.1234
-13.1927
-13.9324
-14.2442
-14.0663
-13.3817
-12.2185
-10.6437
-8.75145
-6.64879
-4.4432
-2.2335
-0.103529
1.88248
3.68256
5.27613
6.66
7.84312
8.8417
9.67533
10.364
10.9263
11.3776
11.7298
11.9905
12.1606
12.2333
12.1976
12.0322
11.5576
10.3888
8.13565
4.44193
-1.13944
-9.05868
-19.2072
-30.6431
-41.9942
-51.9223
-59.2591
-62.9268
-62.3222
-57.3791
-49.093
-38.5783
-26.8556
-15.4593
-6.10693
0.405568
4.44872
6.84457
8.27584
9.16315
9.7392
10.1283
10.3974
10.5853
10.7174
10.8108
10.8767
10.922
10.9508
10.9654
10.9667
10.9548
10.9289
10.8874
10.8268
10.7416
10.6216
10.4499
10.1992
9.82951
9.26399
8.35524
6.77761
4.16238
0.35888
-3.86229
-7.49681
-8.54906
-8.35559
-2.92995
-4.99317
-4.11008
-4.19819
-4.27329
-4.32413
-4.34672
-4.35358
-4.37249
-4.44201
-4.60621
-4.90771
-5.38152
-6.04838
-6.90731
-7.92962
-9.05723
-10.2063
-11.2753
-12.1563
-12.7479
-12.9675
-12.7618
-12.1142
-11.046
-9.6115
-7.88936
-5.97091
-3.94956
-1.9126
0.0646508
1.92322
3.62291
5.14187
6.47369
7.62318
8.60235
9.42693
10.1137
10.6785
11.1349
11.4934
11.7603
11.9365
12.015
11.9819
11.8202
11.4085
10.4008
8.37291
4.92251
-0.374579
-7.90862
-17.6055
-28.6389
-39.7179
-49.5004
-56.7704
-60.4333
-59.9223
-55.2088
-47.2452
-37.0949
-25.7499
-14.7191
-5.68569
0.586017
4.47766
6.79643
8.19764
9.07881
9.65975
10.0589
10.3402
10.5411
10.6857
10.7904
10.8663
10.9202
10.956
10.9761
10.9816
10.9726
10.9487
10.9082
10.848
10.7625
10.6419
10.4698
10.2196
9.85323
9.30021
8.43333
6.97364
4.60928
1.19122
-2.61014
-5.96954
-7.03851
-7.16723
-2.31867
-4.71
-4.03828
-4.12482
-4.2011
-4.26165
-4.306
-4.34503
-4.40106
-4.50473
-4.69078
-4.99266
-5.43704
-6.03832
-6.79288
-7.67458
-8.63363
-9.59934
-10.4866
-11.2049
-11.6689
-11.8086
-11.578
-10.9617
-9.97595
-8.66508
-7.09456
-5.34196
-3.48811
-1.60986
0.225401
1.96375
3.56699
5.01266
6.29185
7.40597
8.36336
9.17627
9.85849
10.4234
10.8827
11.2453
11.5164
11.6969
11.7793
11.7483
11.5863
11.2158
10.3551
8.57407
5.42783
0.485651
-6.59701
-15.7621
-26.2894
-36.9855
-46.5309
-53.6816
-57.3359
-56.9574
-52.5442
-44.9808
-35.2709
-24.3896
-13.8221
-5.19707
0.774179
4.48611
6.72014
8.09312
8.97295
9.5637
9.9771
10.2742
10.4907
10.6499
10.7677
10.8548
10.9179
10.9613
10.9873
10.9972
10.9914
10.9695
10.9303
10.8705
10.785
10.6641
10.4921
10.2431
9.88105
9.34093
8.51308
7.15979
5.02131
1.95228
-1.46713
-4.57888
-5.66877
-6.08984
-1.79191
-4.41624
-3.97009
-4.05629
-4.13501
-4.20419
-4.26558
-4.32877
-4.4118
-4.53891
-4.73727
-5.03268
-5.44507
-5.98397
-6.64395
-7.40136
-8.21337
-9.02025
-9.75048
-10.3282
-10.6818
-10.752
-10.5
-9.91141
-8.9985
-7.79722
-6.36206
-4.75881
-3.05726
-1.32479
0.378493
2.00351
3.51426
4.88814
6.11439
7.19164
8.12507
8.92388
9.59905
10.1617
10.6216
10.9863
11.2597
11.4423
11.5269
11.4973
11.3338
10.9857
10.2463
8.71507
5.92255
1.41206
-5.14582
-13.7034
-23.6299
-33.8346
-43.0466
-50.0215
-53.6648
-53.4601
-49.4135
-42.3217
-33.1258
-22.7958
-12.7908
-4.66108
0.954946
4.46386
6.60901
7.9578
8.84244
9.44888
9.88148
10.1984
10.4336
10.6098
10.7423
10.8419
10.9154
10.967
10.9993
11.0139
11.0114
10.9917
10.9538
10.8946
10.8092
10.6884
10.5169
10.27
9.91327
9.38661
8.59526
7.337
5.39851
2.63928
-0.439792
-3.3327
-4.44654
-5.12686
-1.34551
-4.11917
-3.90325
-3.98993
-4.07173
-4.14864
-4.22362
-4.30506
-4.40748
-4.54991
-4.75336
-5.03741
-5.4166
-5.89661
-6.47083
-7.11785
-7.80082
-8.4693
-9.06337
-9.51961
-9.77798
-9.78875
-9.51858
-8.95462
-8.10592
-7.00177
-5.68749
-4.21878
-2.65567
-1.05706
0.523661
2.04197
3.46419
4.76795
5.94122
6.98036
7.88789
8.67028
9.33603
9.89407
10.3524
10.7171
10.991
11.174
11.259
11.2296
11.0647
10.7263
10.0758
8.77598
6.36344
2.35593
-3.59531
-11.4684
-20.7097
-30.3272
-39.1161
-45.8605
-49.4892
-49.4934
-45.8661
-39.3054
-30.6937
-21.0039
-11.6595
-4.10544
1.10943
4.39929
6.45593
7.78705
8.68406
9.313
9.77046
10.1116
10.3692
10.565
10.7144
10.8279
10.9126
10.9731
11.0122
11.0318
11.0328
11.0154
10.9788
10.9204
10.8354
10.7148
10.5445
10.3005
9.95015
9.43771
8.68085
7.5071
5.74326
3.25414
0.472311
-2.23054
-3.37036
-4.27578
-0.971685
-3.82603
-3.8385
-3.92586
-4.01053
-4.09361
-4.17858
-4.27272
-4.38767
-4.53828
-4.74059
-5.00922
-5.35436
-5.77882
-6.27528
-6.82443
-7.3946
-7.94318
-8.41996
-8.77191
-8.94879
-8.90883
-8.62371
-8.08201
-7.29044
-6.2728
-5.06673
-3.7193
-2.28204
-0.806293
0.660674
2.07863
3.41625
4.65175
5.77223
6.77229
7.65221
8.41609
9.07017
9.62137
10.076
10.4388
10.7115
10.8931
10.9769
10.9467
10.7803
10.4453
9.85175
8.74605
6.70754
3.25024
-2.01274
-9.11714
-17.5926
-26.5408
-34.8321
-41.2984
-44.9053
-45.1401
-41.9671
-35.9853
-28.0264
-19.0666
-10.4753
-3.56514
1.21577
4.27994
6.25373
7.5763
8.49465
9.15379
9.64246
10.013
10.2969
10.5154
10.6838
10.8128
10.9099
10.9799
11.0262
11.0511
11.0557
11.0408
11.0057
10.9481
10.8636
10.7438
10.575
10.3347
9.99193
9.49467
8.77089
7.67252
6.05992
3.80303
1.27642
-1.26402
-2.43119
-3.52891
-0.660088
-3.54367
-3.77403
-3.86197
-3.94894
-4.03663
-4.12858
-4.23102
-4.3532
-4.50659
-4.70325
-4.9538
-5.26505
-5.63761
-6.06383
-6.52634
-6.99789
-7.44248
-7.81808
-8.08043
-8.18762
-8.10466
-7.80759
-7.28629
-6.54574
-5.60526
-4.49612
-3.25806
-1.9352
-0.572168
0.789301
2.11299
3.36995
4.53918
5.60731
6.56759
7.41844
8.16193
8.80227
9.34454
9.79344
10.1525
10.4224
10.6013
10.6824
10.6505
10.4825
10.1487
9.58768
8.62722
6.92314
4.02075
-0.49487
-6.74423
-14.3668
-22.5675
-30.2972
-36.4452
-40.0175
-40.4911
-37.7932
-32.4327
-25.1968
-17.0557
-9.29789
-3.08055
1.25078
4.09354
5.99563
7.32127
8.27111
8.96903
9.49594
9.90146
10.2161
10.4607
10.6506
10.7969
10.9075
10.9878
11.0418
11.0721
11.0805
11.068
11.0345
10.9779
10.8941
10.7753
10.6086
10.3729
10.0388
9.55788
8.86642
7.83601
6.3542
4.29529
1.98591
-0.418184
-1.61404
-2.87485
-0.399218
-3.27812
-3.71012
-3.79828
-3.88671
-3.97732
-4.07345
-4.18033
-4.30524
-4.4569
-4.64422
-4.87467
-5.15244
-5.47656
-5.83928
-6.22509
-6.61052
-6.96518
-7.25388
-7.43975
-7.48784
-7.3689
-7.06269
-6.5604
-5.8657
-4.99429
-3.97218
-2.83284
-1.614
-0.354344
0.909358
2.14462
3.32481
4.4299
5.44636
6.36643
7.18703
7.90847
8.53321
9.06464
9.50601
9.85959
10.1251
10.3001
10.3775
10.3429
10.1736
9.84047
9.29762
8.43406
6.99895
4.60533
0.845024
-4.48539
-11.1648
-18.5308
-25.6304
-31.4171
-34.9349
-35.6454
-33.439
-28.745
-22.3049
-15.0619
-8.19563
-2.69387
1.19238
3.82931
5.67589
7.01815
8.0106
8.75656
9.32943
9.77617
10.1264
10.4008
10.6149
10.7803
10.9057
10.9971
11.0591
11.0951
11.1075
11.0975
11.0655
11.0099
10.927
10.8096
10.6456
10.4152
10.091
9.62764
8.96839
8.00033
6.63236
4.74202
2.61629
0.325676
-0.900505
-2.30046
-0.178197
-3.03432
-3.64555
-3.7334
-3.82233
-3.91424
-4.01215
-4.12033
-4.24443
-4.39098
-4.56639
-4.77565
-5.02097
-5.30024
-5.60586
-5.92395
-6.23434
-6.51136
-6.72558
-6.84628
-6.84441
-6.69557
-6.38276
-5.89835
-5.24505
-4.43566
-3.49177
-2.4416
-1.31734
-0.152482
1.02069
2.17311
3.2804
4.32361
5.28929
6.16898
6.95841
7.65642
8.26391
8.78281
9.21499
9.5616
9.82153
9.99156
10.0645
10.0266
9.85614
9.52433
8.99295
8.18916
6.94761
4.97379
1.9079
-2.50025
-8.17297
-14.6146
-21.0015
-26.3684
-29.8003
-30.7406
-29.0422
-25.0597
-19.4789
-13.1894
-7.2386
-2.44351
1.02278
3.47942
5.29032
6.66381
7.7105
8.51439
9.14157
9.63635
10.0275
10.3357
10.5769
10.7635
10.9049
11.0082
11.0787
11.1206
11.1369
11.1294
11.0989
11.0444
10.9626
10.8468
10.6861
10.4618
10.1486
9.70418
9.07753
8.16797
6.9006
5.15482
3.18283
0.986929
-0.27152
-1.79316
0.0114918
-2.81595
-3.58045
-3.6674
-3.75583
-3.84753
-3.94509
-4.05195
-4.17239
-4.31118
-4.47276
-4.66025
-4.87434
-5.11217
-5.36643
-5.62477
-5.86984
-6.07996
-6.23054
-6.29602
-6.25226
-6.07898
-5.76192
-5.29455
-4.67887
-3.92535
-3.05194
-2.0824
-1.04418
0.033781
1.12318
2.19809
3.2363
4.22
5.136
5.97542
6.73304
7.4065
7.99537
8.50025
8.92181
9.26014
9.51337
9.67767
9.74557
9.70413
9.53296
9.20387
8.68203
7.91559
6.80086
5.13778
2.64498
-0.923771
-5.59903
-11.0627
-16.6584
-21.5344
-24.8334
-25.985
-24.7991
-21.5539
-16.8645
-11.5416
-6.48695
-2.35719
0.731825
3.0403
4.83665
6.25581
7.36839
8.24062
8.93115
9.48138
9.91926
10.2656
10.5371
10.7469
10.9058
11.0217
11.1011
11.149
11.1692
11.1641
11.1351
11.0817
11.0011
10.8873
10.7302
10.5128
10.2118
9.78765
9.19439
8.34094
7.16423
5.5444
3.7015
1.58402
0.289615
-1.3431
0.174802
-2.62562
-3.51404
-3.5994
-3.68634
-3.77645
-3.87188
-3.9753
-4.0899
-4.21903
-4.3656
-4.5313
-4.71572
-4.91555
-5.12383
-5.32963
-5.51801
-5.67069
-5.7671
-5.78601
-5.70739
-5.51441
-5.19518
-4.74415
-4.16283
-3.45979
-2.64999
-1.75343
-0.793503
0.204816
1.21676
2.21926
3.19215
4.1188
4.98643
5.78593
6.5114
7.15947
7.7286
8.21824
8.62799
8.95698
9.20268
9.36069
9.42341
9.3785
9.20708
8.88244
8.37128
7.63192
6.5977
5.14407
3.07608
0.190772
-3.59441
-8.11001
-12.8822
-17.2076
-20.3155
-21.6364
-20.9338
-18.4087
-14.5927
-10.1979
-5.97719
-2.44528
0.319539
2.51336
4.31454
5.79218
6.98194
7.9334
8.69712
9.31092
9.80181
10.191
10.4959
10.7313
10.9089
11.0382
11.1268
11.1808
11.2047
11.2019
11.1743
11.1219
11.0425
10.931
10.7782
10.5685
10.2806
9.87809
9.31922
8.52059
7.42738
5.91921
4.18631
2.13169
0.795012
-0.944584
0.313029
-2.46549
-3.44667
-3.52979
-3.61431
-3.7016
-3.7934
-3.8917
-3.99878
-4.11688
-4.24774
-4.39196
-4.54839
-4.71345
-4.88064
-5.04027
-5.17953
-5.28298
-5.33345
-5.31329
-5.20593
-4.99743
-4.6779
-4.24267
-3.6929
-3.03565
-2.28338
-1.45296
-0.56432
0.361016
1.3014
2.23636
3.14762
4.01976
4.84052
5.60071
6.29395
6.91609
7.46465
7.9381
8.3351
8.65395
8.89152
9.04295
9.10061
9.05265
8.88165
8.56309
8.0653
7.35097
6.37244
5.05414
3.27505
0.891749
-2.18252
-5.87329
-9.86746
-13.6253
-16.4886
-17.9116
-17.6232
-15.7526
-12.741
-9.19061
-5.71148
-2.69714
-0.203331
1.90445
3.72483
5.27094
6.54857
7.59081
8.4385
9.12483
9.67556
10.1125
10.4544
10.7175
10.9152
11.0586
11.1566
11.2165
11.244
11.2432
11.2168
11.1653
11.0873
10.9782
10.8301
10.6289
10.3552
9.97562
9.4522
8.70771
7.69301
6.28507
4.64613
2.63946
1.25167
-0.595733
0.424734
-2.33816
-3.37761
-3.45785
-3.53911
-3.62256
-3.70951
-3.8014
-3.89977
-4.00599
-4.12091
-4.24434
-4.37462
-4.50809
-4.63873
-4.75798
-4.85486
-4.91632
-4.92804
-4.87537
-4.74461
-4.52422
-4.20604
-3.78616
-3.26549
-2.6499
-1.94979
-1.17939
-0.355684
0.502785
1.37712
2.24917
3.10244
3.92268
4.69822
5.41995
6.08116
6.67713
7.20459
7.66118
8.04477
8.35295
8.58208
8.72692
8.77991
8.72966
8.56011
8.24909
7.76751
7.08062
6.14919
4.92398
3.33479
1.29464
-1.26082
-4.30172
-7.63016
-10.8522
-13.4409
-14.892
-14.9281
-13.6175
-11.3098
-8.49624
-5.65618
-3.08328
-0.81793
1.2218
3.06816
4.68927
6.06505
7.21056
8.15431
8.92317
9.54129
10.0312
10.4137
10.7067
10.9257
11.0837
11.1912
11.2569
11.2877
11.2885
11.2628
11.212
11.1353
11.029
10.886
10.694
10.4355
10.0802
9.59333
8.90275
7.96271
6.64546
5.08643
3.11301
1.66304
-0.297139
0.506494
-2.24763
-3.30785
-3.38462
-3.46188
-3.54057
-3.6217
-3.70619
-3.795
-3.88883
-3.98787
-4.09137
-4.19735
-4.30219
-4.40036
-4.48434
-4.5447
-4.57046
-4.54963
-4.47008
-4.3205
-4.09138
-3.77597
-3.37104
-2.87736
-2.2998
-1.64708
-0.931211
-0.166681
0.630535
1.44395
2.25752
3.05636
3.82736
4.55949
5.24384
5.87351
6.44334
6.94946
7.38882
7.75865
8.0559
8.27655
8.41504
8.46397
8.41247
8.24568
7.94371
7.48064
6.82471
5.94082
4.79173
3.33557
1.52649
-0.668954
-3.23185
-6.03212