/*--------------------------------*- C++ -*----------------------------------*\
| =========                 |                                                 |
| \\      /  F ield         | OpenFOAM: The Open Source CFD Toolbox           |
|  \\    /   O peration     | Version:  2.1.1                                 |
|   \\  /    A nd           | Web:      www.OpenFOAM.org                      |
|    \\/     M anipulation  |                                                 |
\*---------------------------------------------------------------------------*/
FoamFile
{
    version     2.0;
    format      ascii;
    class       surfaceScalarField;
    location    "0.185";
    object      phi;
}
// * * * * * * * * * * * * * * * * * * * * * * * * * * * * * * * * * * * * * //

dimensions      [0 3 -1 0 0 0 0];

internalField   nonuniform List<scalar> 
13452
(
4.60009e-05
2.24864e-05
2.96705e-05
1.63303e-05
2.1201e-05
8.46948e-06
1.73081e-05
3.89293e-06
1.5676e-05
1.63216e-06
1.488e-05
7.95966e-07
1.43834e-05
4.96579e-07
1.40093e-05
3.74094e-07
1.36977e-05
3.11597e-07
1.34333e-05
2.64442e-07
1.32116e-05
2.21728e-07
1.30288e-05
1.82761e-07
1.28809e-05
1.47902e-07
1.27637e-05
1.17179e-07
1.26735e-05
9.02128e-08
1.26071e-05
6.63906e-08
1.2562e-05
4.51307e-08
1.25363e-05
2.56979e-08
1.25287e-05
7.59867e-09
1.25379e-05
-9.18771e-09
1.25629e-05
-2.50071e-08
1.26033e-05
-4.04453e-08
1.26585e-05
-5.52213e-08
1.27288e-05
-7.02938e-08
1.28144e-05
-8.55799e-08
1.29157e-05
-1.01307e-07
1.30336e-05
-1.17928e-07
1.31686e-05
-1.34917e-07
1.33239e-05
-1.55323e-07
1.34949e-05
-1.71059e-07
1.37036e-05
-2.08604e-07
1.38801e-05
-1.76529e-07
-4.24445e-07
1.43045e-05
7.49145e-05
1.80158e-05
7.04208e-05
2.08241e-05
6.33431e-05
1.55471e-05
5.67052e-05
1.05309e-05
5.16098e-05
6.72757e-06
4.79797e-05
4.42607e-06
4.53892e-05
3.08706e-06
4.34966e-05
2.26669e-06
4.20692e-05
1.73901e-06
4.09575e-05
1.37613e-06
4.00696e-05
1.10961e-06
3.9348e-05
9.04386e-07
3.87551e-05
7.40752e-07
3.82657e-05
6.06633e-07
3.78618e-05
4.94126e-07
3.75304e-05
3.97741e-07
3.7262e-05
3.13555e-07
3.70491e-05
2.38566e-07
3.6886e-05
1.70703e-07
3.67684e-05
1.08449e-07
3.66931e-05
5.03173e-08
3.66582e-05
-5.60916e-09
3.6661e-05
-5.80026e-08
3.67003e-05
-1.09558e-07
3.67749e-05
-1.60248e-07
3.68846e-05
-2.11026e-07
3.70294e-05
-2.6263e-07
3.72097e-05
-3.1523e-07
3.74263e-05
-3.71945e-07
3.76838e-05
-4.2856e-07
3.79825e-05
-5.07335e-07
3.83802e-05
-5.74253e-07
-7.646e-07
3.87204e-05
7.85213e-05
1.19511e-05
8.23376e-05
1.70078e-05
8.30027e-05
1.4882e-05
8.15007e-05
1.20329e-05
7.89979e-05
9.2303e-06
7.6338e-05
7.08603e-06
7.38522e-05
5.57286e-06
7.16438e-05
4.4751e-06
6.97261e-05
3.65671e-06
6.80748e-05
3.02742e-06
6.66569e-05
2.5275e-06
6.54408e-05
2.12051e-06
6.43984e-05
1.78308e-06
6.35061e-05
1.499e-06
6.27437e-05
1.25649e-06
6.20947e-05
1.0467e-06
6.15454e-05
8.62853e-07
6.10844e-05
6.99641e-07
6.07021e-05
5.52933e-07
6.03911e-05
4.19519e-07
6.01448e-05
2.96619e-07
5.99573e-05
1.81881e-07
5.98254e-05
7.39199e-08
5.97461e-05
-3.0259e-08
5.97176e-05
-1.3183e-07
5.9738e-05
-2.3141e-07
5.98053e-05
-3.29958e-07
5.99185e-05
-4.28434e-07
6.00761e-05
-5.29479e-07
6.02799e-05
-6.32336e-07
6.05211e-05
-7.48579e-07
6.08116e-05
-8.64772e-07
-1.02067e-06
6.10677e-05
7.8147e-05
8.33073e-06
8.19238e-05
1.3231e-05
8.46205e-05
1.21852e-05
8.62455e-05
1.04079e-05
8.69295e-05
8.54634e-06
8.70265e-05
6.98904e-06
8.67799e-05
5.81947e-06
8.63326e-05
4.92232e-06
8.57769e-05
4.21249e-06
8.51687e-05
3.63557e-06
8.45432e-05
3.15304e-06
8.39232e-05
2.74048e-06
8.33245e-05
2.38179e-06
8.27579e-05
2.06562e-06
8.22303e-05
1.78411e-06
8.17456e-05
1.53134e-06
8.1306e-05
1.30244e-06
8.09123e-05
1.09336e-06
8.05644e-05
9.00807e-07
8.02619e-05
7.22078e-07
8.00037e-05
5.54757e-07
7.97889e-05
3.96713e-07
7.96163e-05
2.46556e-07
7.94837e-05
1.02296e-07
7.93894e-05
-3.75607e-08
7.93325e-05
-1.74422e-07
7.93118e-05
-3.09294e-07
7.93268e-05
-4.43451e-07
7.93762e-05
-5.78882e-07
7.94599e-05
-7.15998e-07
7.95712e-05
-8.59854e-07
7.97118e-05
-1.00542e-06
-1.15938e-06
7.98505e-05
7.8992e-05
5.99459e-06
8.15927e-05
1.06304e-05
8.35205e-05
1.02574e-05
8.49648e-05
8.96355e-06
8.5983e-05
7.52816e-06
8.67238e-05
6.24823e-06
8.729e-05
5.25327e-06
8.77301e-05
4.48227e-06
8.80759e-05
3.86662e-06
8.83493e-05
3.36223e-06
8.85649e-05
2.93743e-06
8.87344e-05
2.57093e-06
8.88668e-05
2.2494e-06
8.89688e-05
1.96367e-06
8.90465e-05
1.70641e-06
8.91058e-05
1.47206e-06
8.91518e-05
1.25645e-06
8.91888e-05
1.05631e-06
8.92206e-05
8.69005e-07
8.92503e-05
6.92384e-07
8.92805e-05
5.24572e-07
8.93132e-05
3.64015e-07
8.93503e-05
2.09434e-07
8.93924e-05
6.01532e-08
8.94392e-05
-8.43152e-08
8.94903e-05
-2.25486e-07
8.95459e-05
-3.64964e-07
8.96064e-05
-5.03938e-07
8.96713e-05
-6.43789e-07
8.97403e-05
-7.84948e-07
8.98098e-05
-9.29382e-07
8.98786e-05
-1.07417e-06
-1.21963e-06
8.99388e-05
8.04636e-05
4.37691e-06
8.25071e-05
8.58682e-06
8.39951e-05
8.76941e-06
8.50568e-05
7.90191e-06
8.57817e-05
6.80324e-06
8.62981e-05
5.73183e-06
8.67071e-05
4.84428e-06
8.70557e-05
4.13364e-06
8.7367e-05
3.55531e-06
8.76525e-05
3.07679e-06
8.79169e-05
2.67296e-06
8.81628e-05
2.32505e-06
8.83921e-05
2.02011e-06
8.86067e-05
1.74909e-06
8.88078e-05
1.50529e-06
8.89963e-05
1.28355e-06
8.9173e-05
1.07978e-06
8.93385e-05
8.90755e-07
8.94937e-05
7.1385e-07
8.96391e-05
5.46937e-07
8.97755e-05
3.88235e-07
8.99033e-05
2.362e-07
9.0023e-05
8.96941e-08
9.01357e-05
-5.25257e-08
9.02431e-05
-1.9171e-07
9.03464e-05
-3.28768e-07
9.04458e-05
-4.64412e-07
9.05413e-05
-5.99425e-07
9.06323e-05
-7.34734e-07
9.0718e-05
-8.70643e-07
9.07965e-05
-1.00794e-06
9.08672e-05
-1.14482e-06
-1.28133e-06
9.09289e-05
8.22346e-05
3.24086e-06
8.38962e-05
6.92521e-06
8.5186e-05
7.47961e-06
8.61225e-05
6.96538e-06
8.67679e-05
6.15784e-06
8.72122e-05
5.2876e-06
8.75429e-05
4.51353e-06
8.78094e-05
3.86718e-06
8.8038e-05
3.32663e-06
8.82442e-05
2.87063e-06
8.84359e-05
2.48127e-06
8.86173e-05
2.14364e-06
8.87908e-05
1.84663e-06
8.89577e-05
1.58216e-06
8.9119e-05
1.34405e-06
8.92751e-05
1.12743e-06
8.94264e-05
9.28454e-07
8.95732e-05
7.43989e-07
8.97155e-05
5.71487e-07
8.98536e-05
4.08839e-07
8.99876e-05
2.54272e-07
9.01176e-05
1.06232e-07
9.02439e-05
-3.66106e-08
9.03668e-05
-1.75499e-07
9.04866e-05
-3.11475e-07
9.06032e-05
-4.45355e-07
9.07166e-05
-5.77782e-07
9.08265e-05
-7.09343e-07
9.09324e-05
-8.4064e-07
9.10336e-05
-9.71853e-07
9.11289e-05
-1.10324e-06
9.12178e-05
-1.23368e-06
-1.36297e-06
9.12994e-05
8.4217e-05
2.43936e-06
8.55522e-05
5.59e-06
8.66764e-05
6.35546e-06
8.75368e-05
6.10502e-06
8.81664e-05
5.52817e-06
8.86183e-05
4.83578e-06
8.89575e-05
4.17428e-06
8.92278e-05
3.59687e-06
8.94548e-05
3.09966e-06
8.96544e-05
2.671e-06
8.98362e-05
2.29947e-06
9.00057e-05
1.97412e-06
9.01664e-05
1.68599e-06
9.03203e-05
1.4282e-06
9.04691e-05
1.1953e-06
9.06136e-05
9.8291e-07
9.07546e-05
7.87459e-07
9.08926e-05
6.06023e-07
9.10279e-05
4.36185e-07
9.11608e-05
2.75925e-07
9.12915e-05
1.23541e-07
9.14202e-05
-2.24646e-08
9.15469e-05
-1.63304e-07
9.16715e-05
-3.00123e-07
9.1794e-05
-4.33937e-07
9.19141e-05
-5.65492e-07
9.20317e-05
-6.95355e-07
9.21464e-05
-8.2401e-07
9.22576e-05
-9.51877e-07
9.23648e-05
-1.07907e-06
9.24672e-05
-1.20558e-06
9.25642e-05
-1.3307e-06
-1.45409e-06
9.26553e-05
8.63724e-05
1.86566e-06
8.74429e-05
4.51952e-06
8.84164e-05
5.38196e-06
8.91968e-05
5.32467e-06
8.97971e-05
4.92783e-06
9.0248e-05
4.38485e-06
9.05967e-05
3.82564e-06
9.08795e-05
3.31408e-06
9.11189e-05
2.86021e-06
9.13295e-05
2.46036e-06
9.15206e-05
2.1084e-06
9.16978e-05
1.79694e-06
9.18647e-05
1.51907e-06
9.20238e-05
1.26908e-06
9.21768e-05
1.0423e-06
9.23249e-05
8.34837e-07
9.24689e-05
6.43461e-07
9.26094e-05
4.65475e-07
9.2747e-05
2.98624e-07
9.28819e-05
1.41001e-07
9.30145e-05
-8.98744e-09
9.31447e-05
-1.52751e-07
9.32729e-05
-2.91446e-07
9.33989e-05
-4.26119e-07
9.35226e-05
-5.57663e-07
9.36439e-05
-6.86774e-07
9.37625e-05
-8.13984e-07
9.38782e-05
-9.39698e-07
9.39905e-05
-1.0642e-06
9.4099e-05
-1.18752e-06
9.4203e-05
-1.30956e-06
9.43021e-05
-1.4298e-06
-1.5478e-06
9.43958e-05
8.86679e-05
1.44776e-06
8.95263e-05
3.66114e-06
9.03662e-05
4.542e-06
9.1071e-05
4.61986e-06
9.16378e-05
4.36111e-06
9.20816e-05
3.94105e-06
9.24343e-05
3.47289e-06
9.27251e-05
3.02328e-06
9.29734e-05
2.61187e-06
9.31925e-05
2.24131e-06
9.33911e-05
1.90978e-06
9.35751e-05
1.61301e-06
9.37481e-05
1.34606e-06
9.39127e-05
1.10446e-06
9.40707e-05
8.84304e-07
9.42233e-05
6.8223e-07
9.43714e-05
4.95348e-07
9.45157e-05
3.21206e-07
9.46566e-05
1.5772e-07
9.47945e-05
3.08362e-09
9.49297e-05
-1.44163e-07
9.50623e-05
-2.85377e-07
9.51925e-05
-4.21632e-07
9.53203e-05
-5.53893e-07
9.54456e-05
-6.82971e-07
9.55683e-05
-8.09498e-07
9.56882e-05
-9.3394e-07
9.58052e-05
-1.05662e-06
9.59187e-05
-1.17773e-06
9.60284e-05
-1.29726e-06
9.61339e-05
-1.41506e-06
9.62348e-05
-1.53071e-06
-1.64379e-06
9.63308e-05
9.10816e-05
1.13743e-06
9.1772e-05
2.9708e-06
9.24957e-05
3.81824e-06
9.31316e-05
3.98403e-06
9.36637e-05
3.82902e-06
9.40963e-05
3.50842e-06
9.44495e-05
3.11969e-06
9.47457e-05
2.7271e-06
9.50013e-05
2.35622e-06
9.52281e-05
2.01456e-06
9.54341e-05
1.70376e-06
9.56249e-05
1.4222e-06
9.58042e-05
1.16676e-06
9.59746e-05
9.34093e-07
9.61378e-05
7.21077e-07
9.62952e-05
5.24853e-07
9.64476e-05
3.42887e-07
9.65959e-05
1.72973e-07
9.67404e-05
1.3196e-08
9.68816e-05
-1.381e-07
9.70197e-05
-2.82308e-07
9.7155e-05
-4.20662e-07
9.72876e-05
-5.54186e-07
9.74174e-05
-6.83761e-07
9.75446e-05
-8.10112e-07
9.76689e-05
-9.33804e-07
9.77902e-05
-1.05525e-06
9.79083e-05
-1.17471e-06
9.80229e-05
-1.29233e-06
9.81337e-05
-1.40807e-06
9.82404e-05
-1.52177e-06
9.83427e-05
-1.63305e-06
-1.74155e-06
9.84405e-05
9.36e-05
9.02103e-07
9.4158e-05
2.41274e-06
9.4781e-05
3.19524e-06
9.53535e-05
3.41159e-06
9.58507e-05
3.33181e-06
9.62695e-05
3.0896e-06
9.6621e-05
2.76823e-06
9.69212e-05
2.42684e-06
9.71836e-05
2.09386e-06
9.74179e-05
1.78025e-06
9.76314e-05
1.49022e-06
9.78293e-05
1.22429e-06
9.80152e-05
9.80873e-07
9.81916e-05
7.57697e-07
9.83604e-05
5.52345e-07
9.85227e-05
3.62466e-07
9.86798e-05
1.8588e-07
9.88321e-05
2.06267e-08
9.89803e-05
-1.35026e-07
9.91248e-05
-2.8259e-07
9.92659e-05
-4.23369e-07
9.94037e-05
-5.58497e-07
9.95384e-05
-6.88928e-07
9.96702e-05
-8.15469e-07
9.97988e-05
-9.38777e-07
9.99244e-05
-1.05936e-06
0.000100047
-1.17758e-06
0.000100166
-1.29367e-06
0.000100281
-1.40772e-06
0.000100393
-1.51968e-06
0.0001005
-1.62939e-06
0.000100604
-1.73655e-06
-1.84082e-06
0.000100703
9.62144e-05
7.19825e-07
9.66687e-05
1.95838e-06
9.72053e-05
2.65867e-06
9.77202e-05
2.89665e-06
9.81835e-05
2.86854e-06
9.85867e-05
2.68638e-06
9.89342e-05
2.4208e-06
9.92366e-05
2.12442e-06
9.95042e-05
1.8262e-06
9.97453e-05
1.53923e-06
9.99659e-05
1.26957e-06
0.000100171
1.01933e-06
0.000100363
7.88265e-07
0.000100546
5.75008e-07
0.000100721
3.778e-07
0.000100888
1.94762e-07
0.00010105
2.4046e-08
0.000101207
-1.36066e-07
0.000101359
-2.87126e-07
0.000101507
-4.30511e-07
0.000101651
-5.67425e-07
0.000101791
-6.9891e-07
0.000101928
-8.25852e-07
0.000102062
-9.48987e-07
0.000102192
-1.06891e-06
0.000102319
-1.18609e-06
0.000102442
-1.30083e-06
0.000102562
-1.41333e-06
0.000102678
-1.52368e-06
0.00010279
-1.63182e-06
0.000102898
-1.7376e-06
0.000103002
-1.84077e-06
-1.94108e-06
0.000103102
9.89199e-05
5.75632e-07
9.92932e-05
1.58508e-06
9.97564e-05
2.19551e-06
0.00010022
2.43344e-06
0.00010065
2.43778e-06
0.000101037
2.29993e-06
0.000101378
2.07922e-06
0.000101681
1.82141e-06
0.000101953
1.55435e-06
0.0001022
1.29218e-06
0.000102428
1.04212e-06
0.00010264
8.07453e-07
0.000102839
5.88924e-07
0.000103028
3.85957e-07
0.000103208
1.97357e-07
0.000103382
2.16603e-08
0.000103548
-1.42672e-07
0.000103709
-2.97128e-07
0.000103865
-4.43091e-07
0.000104017
-5.81808e-07
0.000104164
-7.14382e-07
0.000104306
-8.41771e-07
0.000104445
-9.64788e-07
0.00010458
-1.08411e-06
0.000104712
-1.20028e-06
0.000104839
-1.31371e-06
0.000104963
-1.42469e-06
0.000105083
-1.5334e-06
0.0001052
-1.6399e-06
0.000105312
-1.74416e-06
0.00010542
-1.84605e-06
0.000105525
-1.94536e-06
-2.04192e-06
0.000105626
0.000101714
4.59219e-07
0.000102024
1.27511e-06
0.000102426
1.79411e-06
0.000102843
2.01621e-06
0.000103243
2.03744e-06
0.000103613
1.93049e-06
0.000103947
1.74471e-06
0.000104249
1.51912e-06
0.000104524
1.27944e-06
0.000104776
1.03995e-06
0.00010501
8.0847e-07
0.000105229
5.89003e-07
0.000105434
3.83044e-07
0.00010563
1.90625e-07
0.000105816
1.10202e-08
0.000105995
-1.56874e-07
0.000106166
-3.14322e-07
0.000106332
-4.62607e-07
0.000106492
-6.02955e-07
0.000106646
-7.36493e-07
0.000106796
-8.64228e-07
0.000106941
-9.87038e-07
0.000107082
-1.10567e-06
0.000107219
-1.22075e-06
0.000107351
-1.33277e-06
0.00010748
-1.44211e-06
0.000107604
-1.54904e-06
0.000107725
-1.65371e-06
0.000107841
-1.75618e-06
0.000107953
-1.85645e-06
0.000108061
-1.95441e-06
0.000108166
-2.0499e-06
-2.14281e-06
0.000108267
0.000104596
3.63378e-07
0.000104857
1.0146e-06
0.000105207
1.44419e-06
0.000105584
1.63936e-06
0.000105956
1.66505e-06
0.000106309
1.57776e-06
0.000106635
1.41799e-06
0.000106936
1.21853e-06
0.000107213
1.00237e-06
0.00010747
7.83232e-07
0.000107709
5.69064e-07
0.000107934
3.64246e-07
0.000108146
1.7075e-07
0.000108348
-1.09503e-08
0.00010854
-1.81215e-07
0.000108724
-3.40858e-07
0.000108901
-4.90915e-07
0.00010907
-6.32493e-07
0.000109234
-7.66682e-07
0.000109392
-8.94499e-07
0.000109545
-1.01686e-06
0.000109692
-1.13458e-06
0.000109835
-1.24835e-06
0.000109973
-1.35873e-06
0.000110106
-1.46618e-06
0.000110235
-1.57105e-06
0.00011036
-1.67359e-06
0.00011048
-1.77395e-06
0.000110596
-1.87219e-06
0.000110708
-1.96832e-06
0.000110816
-2.06226e-06
0.00011092
-2.15391e-06
-2.24321e-06
0.00011102
0.000107566
2.82967e-07
0.000107788
7.92713e-07
0.000108096
1.13678e-06
0.000108438
1.2975e-06
0.000108785
1.31785e-06
0.000109122
1.24083e-06
0.00010944
1.09923e-06
0.000109739
9.20192e-07
0.000110017
7.23738e-07
0.000110278
5.22551e-07
0.000110523
3.24311e-07
0.000110754
1.33465e-07
0.000110972
-4.77782e-08
0.00011118
-2.1866e-07
0.000111378
-3.79288e-07
0.000111567
-5.30259e-07
0.000111749
-6.72431e-07
0.000111923
-8.06768e-07
0.000112091
-9.34243e-07
0.000112252
-1.05578e-06
0.000112407
-1.17223e-06
0.000112557
-1.28432e-06
0.000112701
-1.3927e-06
0.000112841
-1.49791e-06
0.000112975
-1.60035e-06
0.000113104
-1.70035e-06
0.000113229
-1.79815e-06
0.000113349
-1.89389e-06
0.000113464
-1.98765e-06
0.000113575
-2.07943e-06
0.000113682
-2.1692e-06
0.000113785
-2.25689e-06
-2.34248e-06
0.000113884
0.000110626
2.14243e-07
0.000110817
6.00957e-07
0.00011109
8.64133e-07
0.000111402
9.85475e-07
0.000111727
9.92841e-07
0.00011205
9.18348e-07
0.000112361
7.88103e-07
0.000112657
6.24282e-07
0.000112936
4.43891e-07
0.000113201
2.58254e-07
0.000113451
7.44842e-08
0.000113687
-1.03161e-07
0.000113912
-2.72437e-07
0.000114126
-4.32459e-07
0.00011433
-5.83188e-07
0.000114524
-7.25081e-07
0.000114711
-8.58871e-07
0.000114889
-9.85417e-07
0.000115061
-1.1056e-06
0.000115225
-1.22028e-06
0.000115383
-1.33022e-06
0.000115535
-1.43613e-06
0.000115681
-1.5386e-06
0.000115821
-1.63811e-06
0.000115956
-1.73507e-06
0.000116085
-1.82977e-06
0.00011621
-1.92244e-06
0.000116329
-2.01322e-06
0.000116443
-2.10219e-06
0.000116553
-2.18936e-06
0.000116659
-2.27475e-06
0.00011676
-2.35828e-06
-2.43999e-06
0.000116858
0.000113775
1.54412e-07
0.000113944
4.32619e-07
0.000114188
6.1955e-07
0.000114475
6.98421e-07
0.000114781
6.86906e-07
0.000115091
6.0856e-07
0.000115395
4.83835e-07
0.000115689
3.3055e-07
0.00011597
1.62815e-07
0.000116238
-9.59213e-09
0.000116493
-1.8035e-07
0.000116735
-3.45592e-07
0.000116966
-5.03221e-07
0.000117186
-6.52365e-07
0.000117396
-7.92944e-07
0.000117596
-9.25352e-07
0.000117787
-1.05025e-06
0.00011797
-1.16844e-06
0.000118145
-1.28074e-06
0.000118313
-1.38794e-06
0.000118474
-1.49078e-06
0.000118627
-1.58991e-06
0.000118775
-1.68589e-06
0.000118916
-1.77918e-06
0.000119051
-1.87015e-06
0.00011918
-1.95909e-06
0.000119304
-2.0462e-06
0.000119422
-2.13163e-06
0.000119536
-2.21545e-06
0.000119644
-2.29771e-06
0.000119748
-2.37841e-06
0.000119847
-2.45751e-06
-2.53506e-06
0.000119942
0.000117017
1.01332e-07
0.000117168
2.82319e-07
0.00011739
3.97237e-07
0.000117657
4.31742e-07
0.000117947
3.968e-07
0.000118246
3.09388e-07
0.000118545
1.85224e-07
0.000118837
3.83499e-08
0.000119119
-1.19828e-07
0.000119391
-2.81169e-07
0.000119651
-4.40301e-07
0.000119899
-5.93913e-07
0.000120136
-7.40206e-07
0.000120362
-8.78449e-07
0.000120578
-1.00862e-06
0.000120784
-1.13112e-06
0.00012098
-1.24661e-06
0.000121168
-1.35584e-06
0.000121346
-1.45962e-06
0.000121517
-1.55871e-06
0.00012168
-1.65381e-06
0.000121836
-1.74554e-06
0.000121984
-1.83443e-06
0.000122126
-1.92092e-06
0.000122261
-2.00537e-06
0.00012239
-2.08804e-06
0.000122513
-2.16913e-06
0.00012263
-2.24877e-06
0.000122742
-2.32705e-06
0.000122848
-2.40402e-06
0.00012295
-2.47968e-06
0.000123046
-2.55402e-06
-2.62708e-06
0.000123138
0.000120354
5.33122e-08
0.000120491
1.45663e-07
0.000120696
1.92126e-07
0.000120946
1.81079e-07
0.000121224
1.19181e-07
0.000121515
1.84341e-08
0.00012181
-1.09354e-07
0.000122101
-2.534e-07
0.000122386
-4.04784e-07
0.000122662
-5.57018e-07
0.000122928
-7.05794e-07
0.000123182
-8.48481e-07
0.000123426
-9.83701e-07
0.000123658
-1.11098e-06
0.00012388
-1.23044e-06
0.000124092
-1.34257e-06
0.000124293
-1.44807e-06
0.000124485
-1.54772e-06
0.000124668
-1.64231e-06
0.000124841
-1.73259e-06
0.000125007
-1.81926e-06
0.000125164
-1.90292e-06
0.000125314
-1.98408e-06
0.000125456
-2.06316e-06
0.000125591
-2.1405e-06
0.00012572
-2.21635e-06
0.000125841
-2.2909e-06
0.000125957
-2.36429e-06
0.000126066
-2.43657e-06
0.00012617
-2.50781e-06
0.000126269
-2.57801e-06
0.000126362
-2.64717e-06
-2.7153e-06
0.00012645
0.000123788
8.97194e-09
0.000123914
1.89726e-08
0.000124107
-2.86114e-10
0.000124345
-5.77386e-08
0.000124614
-1.49398e-07
0.000124899
-2.66977e-07
0.000125192
-4.01886e-07
0.000125485
-5.46149e-07
0.000125773
-6.93119e-07
0.000126054
-8.37944e-07
0.000126326
-9.77444e-07
0.000126587
-1.10977e-06
0.000126837
-1.23408e-06
0.000127077
-1.35025e-06
0.000127305
-1.45863e-06
0.000127522
-1.55987e-06
0.000127729
-1.65476e-06
0.000127925
-1.74412e-06
0.000128112
-1.8288e-06
0.000128289
-1.90955e-06
0.000128456
-1.98707e-06
0.000128615
-2.06195e-06
0.000128766
-2.13469e-06
0.000128909
-2.20571e-06
0.000129043
-2.27533e-06
0.000129171
-2.34378e-06
0.000129291
-2.41124e-06
0.000129405
-2.47784e-06
0.000129512
-2.54363e-06
0.000129613
-2.60867e-06
0.000129708
-2.67295e-06
0.000129797
-2.73647e-06
-2.79924e-06
0.000129881
0.00012732
-3.28791e-08
0.00012744
-1.00949e-07
0.000127624
-1.84147e-07
0.000127855
-2.88796e-07
0.000128118
-4.12563e-07
0.000128401
-5.49903e-07
0.000128694
-6.94866e-07
0.00012899
-8.4191e-07
0.000129283
-9.86466e-07
0.000129571
-1.12528e-06
0.00012985
-1.25636e-06
0.000130119
-1.37871e-06
0.000130377
-1.49212e-06
0.000130623
-1.59691e-06
0.000130858
-1.69373e-06
0.000131082
-1.78344e-06
0.000131294
-1.86699e-06
0.000131495
-1.94529e-06
0.000131686
-2.01924e-06
0.000131866
-2.08964e-06
0.000132036
-2.15721e-06
0.000132197
-2.22254e-06
0.000132348
-2.28612e-06
0.000132491
-2.34837e-06
0.000132625
-2.40958e-06
0.000132751
-2.46999e-06
0.00013287
-2.52976e-06
0.000132981
-2.589e-06
0.000133085
-2.64776e-06
0.000133182
-2.70606e-06
0.000133273
-2.76391e-06
0.000133358
-2.82126e-06
-2.8781e-06
0.000133437
0.000130955
-7.32774e-08
0.000131071
-2.16993e-07
0.000131251
-3.63328e-07
0.000131478
-5.16162e-07
0.000131739
-6.74099e-07
0.000132023
-8.3365e-07
0.000132319
-9.91062e-07
0.00013262
-1.14294e-06
0.000132921
-1.28665e-06
0.000133216
-1.4205e-06
0.000133503
-1.54371e-06
0.000133781
-1.65625e-06
0.000134047
-1.75858e-06
0.000134302
-1.85155e-06
0.000134544
-1.9362e-06
0.000134774
-2.01364e-06
0.000134992
-2.08502e-06
0.000135199
-2.1514e-06
0.000135393
-2.21375e-06
0.000135576
-2.27293e-06
0.000135749
-2.32969e-06
0.000135911
-2.38463e-06
0.000136063
-2.43827e-06
0.000136206
-2.49099e-06
0.000136339
-2.54309e-06
0.000136464
-2.59478e-06
0.00013658
-2.64622e-06
0.000136689
-2.6975e-06
0.00013679
-2.74864e-06
0.000136883
-2.79966e-06
0.00013697
-2.85053e-06
0.00013705
-2.90121e-06
-2.95166e-06
0.000137124
0.000134695
-1.1322e-07
0.00013481
-3.31941e-07
0.000134988
-5.41729e-07
0.000135216
-7.44138e-07
0.000135481
-9.38265e-07
0.000135769
-1.12221e-06
0.000136072
-1.29408e-06
0.000136382
-1.45244e-06
0.000136691
-1.59646e-06
0.000136997
-1.72601e-06
0.000137295
-1.84158e-06
0.000137583
-1.94413e-06
0.000137859
-2.03492e-06
0.000138123
-2.11537e-06
0.000138374
-2.18699e-06
0.000138611
-2.25121e-06
0.000138836
-2.30942e-06
0.000139047
-2.36283e-06
0.000139246
-2.41255e-06
0.000139432
-2.45951e-06
0.000139607
-2.50449e-06
0.000139771
-2.54812e-06
0.000139923
-2.59093e-06
0.000140066
-2.63329e-06
0.000140198
-2.6755e-06
0.000140321
-2.71775e-06
0.000140435
-2.76017e-06
0.00014054
-2.80283e-06
0.000140637
-2.84573e-06
0.000140727
-2.88886e-06
0.000140808
-2.93217e-06
0.000140883
-2.97558e-06
-3.019e-06
0.00014095
0.000138543
-1.53701e-07
0.000138659
-4.48578e-07
0.000138841
-7.23308e-07
0.000139074
-9.7716e-07
0.000139345
-1.20948e-06
0.000139643
-1.41968e-06
0.000139956
-1.60756e-06
0.000140277
-1.77351e-06
0.000140599
-1.9185e-06
0.000140917
-2.04398e-06
0.000141227
-2.15175e-06
0.000141527
-2.24384e-06
0.000141815
-2.32235e-06
0.000142089
-2.38939e-06
0.000142348
-2.44694e-06
0.000142594
-2.49684e-06
0.000142825
-2.54072e-06
0.000143043
-2.58003e-06
0.000143246
-2.61599e-06
0.000143436
-2.64963e-06
0.000143613
-2.68178e-06
0.000143778
-2.71311e-06
0.000143932
-2.74415e-06
0.000144074
-2.77528e-06
0.000144205
-2.80677e-06
0.000144326
-2.8388e-06
0.000144437
-2.87148e-06
0.000144539
-2.90483e-06
0.000144632
-2.93886e-06
0.000144717
-2.9735e-06
0.000144794
-3.00869e-06
0.000144862
-3.04433e-06
-3.08029e-06
0.000144924
0.000142501
-1.95822e-07
0.000142623
-5.7002e-07
0.000142812
-9.12652e-07
0.000143056
-1.22066e-06
0.00014334
-1.49352e-06
0.000143652
-1.73183e-06
0.000143981
-1.937e-06
0.000144319
-2.11123e-06
0.000144658
-2.25733e-06
0.000144992
-2.37837e-06
0.000145318
-2.47757e-06
0.000145632
-2.55814e-06
0.000145933
-2.62312e-06
0.000146219
-2.67534e-06
0.00014649
-2.71737e-06
0.000146744
-2.75147e-06
0.000146983
-2.77958e-06
0.000147206
-2.80338e-06
0.000147415
-2.82423e-06
0.000147608
-2.84328e-06
0.000147788
-2.86141e-06
0.000147954
-2.87934e-06
0.000148108
-2.89757e-06
0.000148249
-2.9165e-06
0.000148378
-2.93639e-06
0.000148497
-2.95737e-06
0.000148605
-2.97954e-06
0.000148703
-3.00288e-06
0.000148792
-3.02736e-06
0.000148871
-3.05288e-06
0.000148942
-3.07932e-06
0.000149004
-3.10654e-06
-3.13435e-06
0.000149058
0.000146574
-2.40748e-07
0.000146704
-6.99567e-07
0.000146906
-1.11445e-06
0.000147165
-1.47989e-06
0.000147467
-1.79564e-06
0.000147799
-2.06358e-06
0.000148149
-2.28682e-06
0.000148507
-2.46951e-06
0.000148866
-2.61636e-06
0.00014922
-2.73219e-06
0.000149564
-2.82173e-06
0.000149895
-2.88941e-06
0.000150211
-2.93932e-06
0.000150511
-2.9751e-06
0.000150794
-2.99992e-06
0.000151059
-3.01652e-06
0.000151306
-3.0272e-06
0.000151537
-3.03389e-06
0.000151751
-3.03812e-06
0.000151949
-3.04115e-06
0.000152131
-3.04394e-06
0.000152299
-3.04721e-06
0.000152453
-3.05151e-06
0.000152594
-3.0572e-06
0.000152722
-3.06451e-06
0.000152838
-3.07358e-06
0.000152943
-3.08442e-06
0.000153037
-3.09701e-06
0.000153121
-3.11127e-06
0.000153195
-3.12705e-06
0.00015326
-3.14422e-06
0.000153316
-3.1626e-06
-3.18195e-06
0.000153364
0.000150765
-2.90188e-07
0.000150908
-8.42018e-07
0.000151129
-1.33591e-06
0.000151413
-1.76365e-06
0.000151743
-2.1254e-06
0.000152103
-2.42454e-06
0.000152483
-2.6661e-06
0.00015287
-2.85646e-06
0.000153256
-3.00255e-06
0.000153635
-3.11118e-06
0.000154002
-3.18877e-06
0.000154354
-3.24116e-06
0.000154688
-3.27355e-06
0.000155003
-3.29046e-06
0.000155299
-3.29576e-06
0.000155575
-3.29268e-06
0.000155832
-3.28389e-06
0.00015607
-3.27156e-06
0.000156289
-3.25743e-06
0.000156491
-3.24284e-06
0.000156676
-3.22881e-06
0.000156844
-3.21611e-06
0.000156998
-3.20526e-06
0.000157138
-3.1966e-06
0.000157263
-3.19035e-06
0.000157376
-3.18658e-06
0.000157477
-3.18528e-06
0.000157567
-3.18637e-06
0.000157645
-3.18971e-06
0.000157713
-3.19511e-06
0.000157771
-3.20235e-06
0.00015782
-3.21122e-06
-3.22138e-06
0.000157859
0.000155077
-3.45547e-07
0.000155236
-1.00151e-06
0.000155483
-1.58249e-06
0.000155797
-2.07759e-06
0.00015616
-2.4883e-06
0.000156555
-2.82005e-06
0.000156969
-3.08012e-06
0.00015739
-3.27738e-06
0.000157809
-3.4212e-06
0.000158218
-3.52056e-06
0.000158613
-3.58371e-06
0.00015899
-3.61808e-06
0.000159347
-3.63011e-06
0.000159682
-3.62531e-06
0.000159994
-3.6083e-06
0.000160284
-3.58287e-06
0.000160553
-3.55211e-06
0.0001608
-3.51847e-06
0.000161026
-3.48385e-06
0.000161233
-3.44972e-06
0.000161421
-3.41715e-06
0.000161592
-3.38691e-06
0.000161746
-3.35951e-06
0.000161885
-3.33527e-06
0.000162009
-3.31435e-06
0.000162119
-3.29676e-06
0.000162216
-3.28244e-06
0.000162301
-3.27126e-06
0.000162374
-3.26301e-06
0.000162437
-3.25746e-06
0.000162489
-3.25435e-06
0.000162531
-3.25343e-06
-3.25432e-06
0.000162564
0.000159516
-4.11026e-07
0.000159703
-1.1889e-06
0.000159991
-1.86994e-06
0.000160353
-2.43998e-06
0.000160768
-2.90283e-06
0.000161215
-3.26703e-06
0.000161678
-3.54312e-06
0.000162144
-3.74349e-06
0.000162603
-3.88067e-06
0.000163049
-3.9662e-06
0.000163476
-4.01047e-06
0.00016388
-4.02256e-06
0.00016426
-4.01026e-06
0.000164615
-3.98009e-06
0.000164944
-3.93743e-06
0.000165248
-3.88663e-06
0.000165527
-3.83116e-06
0.000165782
-3.77372e-06
0.000166015
-3.7164e-06
0.000166226
-3.66075e-06
0.000166417
-3.60786e-06
0.000166588
-3.55851e-06
0.000166742
-3.51317e-06
0.000166879
-3.4721e-06
0.000167
-3.4354e-06
0.000167106
-3.40302e-06
0.000167198
-3.37483e-06
0.000167278
-3.35061e-06
0.000167345
-3.33009e-06
0.0001674
-3.31296e-06
0.000167445
-3.29889e-06
0.000167479
-3.28752e-06
-3.2784e-06
0.000167503
0.000164082
-4.86424e-07
0.000164299
-1.40636e-06
0.00016463
-2.20049e-06
0.000165043
-2.8535e-06
0.000165514
-3.37371e-06
0.00016602
-3.77294e-06
0.000166542
-4.0651e-06
0.000167065
-4.26656e-06
0.000167578
-4.39352e-06
0.000168072
-4.46063e-06
0.000168543
-4.48082e-06
0.000168985
-4.46528e-06
0.000169398
-4.42337e-06
0.000169781
-4.36282e-06
0.000170133
-4.28986e-06
0.000170456
-4.20946e-06
0.000170751
-4.1255e-06
0.000171018
-4.04095e-06
0.000171259
-3.95801e-06
0.000171477
-3.87829e-06
0.000171672
-3.80288e-06
0.000171846
-3.73251e-06
0.000172
-3.66758e-06
0.000172137
-3.60826e-06
0.000172256
-3.55455e-06
0.000172359
-3.50631e-06
0.000172448
-3.46332e-06
0.000172522
-3.42527e-06
0.000172584
-3.39183e-06
0.000172634
-3.36263e-06
0.000172672
-3.33727e-06
0.0001727
-3.31537e-06
-3.29641e-06
0.000172718
0.000168794
-5.88899e-07
0.000169077
-1.68937e-06
0.000169494
-2.61761e-06
0.00017
-3.35934e-06
0.00017056
-3.93396e-06
0.000171148
-4.36078e-06
0.000171743
-4.66002e-06
0.00017233
-4.85373e-06
0.000172899
-4.96237e-06
0.000173442
-5.00371e-06
0.000173955
-4.99323e-06
0.000174434
-4.94409e-06
0.000174877
-4.86717e-06
0.000175286
-4.77129e-06
0.00017566
-4.66353e-06
0.000175999
-4.54943e-06
0.000176307
-4.43325e-06
0.000176584
-4.31819e-06
0.000176833
-4.20658e-06
0.000177055
-4.10006e-06
0.000177252
-3.9997e-06
0.000177425
-3.90614e-06
0.000177577
-3.81968e-06
0.00017771
-3.7404e-06
0.000177823
-3.66815e-06
0.000177919
-3.60269e-06
0.000178
-3.54368e-06
0.000178065
-3.49072e-06
0.000178117
-3.44337e-06
0.000178155
-3.40118e-06
0.000178182
-3.36364e-06
0.000178197
-3.3303e-06
-3.30045e-06
0.000178201
0.000173622
-6.99749e-07
0.000173951
-2.01821e-06
0.000174439
-3.10573e-06
0.000175037
-3.95679e-06
0.000175703
-4.6004e-06
0.000176402
-5.06015e-06
0.000177106
-5.36381e-06
0.000177794
-5.54201e-06
0.000178454
-5.62159e-06
0.000179075
-5.62509e-06
0.000179654
-5.57166e-06
0.000180187
-5.47717e-06
0.000180674
-5.35441e-06
0.000181116
-5.21352e-06
0.000181515
-5.06246e-06
0.000181873
-4.90731e-06
0.000182192
-4.75263e-06
0.000182476
-4.60175e-06
0.000182726
-4.457e-06
0.000182946
-4.31993e-06
0.000183138
-4.1915e-06
0.000183304
-4.07216e-06
0.000183446
-3.96206e-06
0.000183567
-3.86105e-06
0.000183668
-3.76884e-06
0.00018375
-3.68501e-06
0.000183815
-3.60906e-06
0.000183865
-3.54048e-06
0.0001839
-3.47876e-06
0.000183923
-3.42336e-06
0.000183933
-3.37378e-06
0.000183932
-3.32955e-06
-3.28984e-06
0.000183921
0.000178681
-9.12304e-07
0.000179186
-2.52333e-06
0.000179854
-3.77373e-06
0.000180606
-4.70852e-06
0.0001814
-5.3945e-06
0.000182204
-5.86447e-06
0.000182995
-6.15462e-06
0.000183756
-6.30304e-06
0.000184476
-6.34133e-06
0.000185147
-6.29601e-06
0.000185765
-6.18975e-06
0.000186329
-6.04108e-06
0.000186839
-5.86473e-06
0.000187298
-5.67224e-06
0.000187708
-5.47247e-06
0.000188073
-5.272e-06
0.000188396
-5.07566e-06
0.000188681
-4.88679e-06
0.000188931
-4.70763e-06
0.000189151
-4.53954e-06
0.000189343
-4.3832e-06
0.000189509
-4.23882e-06
0.000189653
-4.10622e-06
0.000189777
-3.98501e-06
0.000189883
-3.87461e-06
0.000189973
-3.77436e-06
0.000190047
-3.68356e-06
0.000190108
-3.60153e-06
0.000190157
-3.52763e-06
0.000190195
-3.46125e-06
0.000190223
-3.4019e-06
0.000190242
-3.34906e-06
-3.30189e-06
0.000190255
0.000183745
-1.08942e-06
0.000184332
-3.11122e-06
0.000185159
-4.60075e-06
0.000186123
-5.6716e-06
0.00018714
-6.41189e-06
0.000188149
-6.87319e-06
0.000189115
-7.1214e-06
0.000190026
-7.21365e-06
0.000190875
-7.19048e-06
0.000191663
-7.08364e-06
0.000192392
-6.91868e-06
0.000193066
-6.71525e-06
0.00019369
-6.48837e-06
0.000194267
-6.24943e-06
0.000194801
-6.00699e-06
0.000195297
-5.76732e-06
0.000195756
-5.53494e-06
0.000196182
-5.31295e-06
0.000196578
-5.10337e-06
0.000196946
-4.90735e-06
0.000197288
-4.72539e-06
0.000197606
-4.55749e-06
0.000197903
-4.40329e-06
0.000198181
-4.26218e-06
0.000198439
-4.13338e-06
0.000198681
-4.01605e-06
0.000198907
-3.90932e-06
0.000199118
-3.81237e-06
0.000199315
-3.72452e-06
0.000199498
-3.64517e-06
0.000199671
-3.5742e-06
0.000199833
-3.51117e-06
-3.45669e-06
0.000199988
0.000189416
-1.69339e-06
0.000190399
-4.09417e-06
0.000191473
-5.67474e-06