/*--------------------------------*- C++ -*----------------------------------*\
| =========                 |                                                 |
| \\      /  F ield         | OpenFOAM: The Open Source CFD Toolbox           |
|  \\    /   O peration     | Version:  2.1.1                                 |
|   \\  /    A nd           | Web:      www.OpenFOAM.org                      |
|    \\/     M anipulation  |                                                 |
\*---------------------------------------------------------------------------*/
FoamFile
{
    version     2.0;
    format      ascii;
    class       volVectorField;
    location    "0.185";
    object      U;
}
// * * * * * * * * * * * * * * * * * * * * * * * * * * * * * * * * * * * * * //

dimensions      [0 1 -1 0 0 0 0];

internalField   nonuniform List<vector> 
6820
(
(6.37614 0.503689 0)
(4.425 0.286784 0)
(2.97522 0.0200994 0)
(2.23722 -0.0620589 0)
(1.97303 -0.0601763 0)
(1.84791 -0.0347738 0)
(1.77496 -0.0153514 0)
(1.72506 -0.00495718 0)
(1.68418 -0.000240163 0)
(1.6493 0.00127814 0)
(1.61983 0.00126522 0)
(1.59534 0.000657422 0)
(1.57534 -0.000113516 0)
(1.55932 -0.000860109 0)
(1.54679 -0.00150862 0)
(1.53734 -0.00204093 0)
(1.53061 -0.00246072 0)
(1.52633 -0.00278642 0)
(1.52433 -0.00299693 0)
(1.52446 -0.00327757 0)
(1.52654 -0.00354472 0)
(1.53053 -0.00374665 0)
(1.53635 -0.00384753 0)
(1.54397 -0.00396964 0)
(1.55343 -0.00413901 0)
(1.56478 -0.00434552 0)
(1.57805 -0.0045905 0)
(1.5935 -0.00483424 0)
(1.61073 -0.00522133 0)
(1.6317 -0.00525475 0)
(1.651 -0.00665425 0)
(1.68658 -0.0011444 0)
(1.67846 -0.0314167 0)
(8.72022 0.959435 0)
(8.76534 1.01147 0)
(7.97081 0.678351 0)
(7.05937 0.393075 0)
(6.36087 0.201448 0)
(5.85752 0.102133 0)
(5.4991 0.0564156 0)
(5.24182 0.0356562 0)
(5.05074 0.0261725 0)
(4.90373 0.0213279 0)
(4.78741 0.0182699 0)
(4.69345 0.015943 0)
(4.61652 0.0139503 0)
(4.55305 0.0121265 0)
(4.5006 0.0103893 0)
(4.4574 0.00869158 0)
(4.42213 0.00700881 0)
(4.39381 0.00531478 0)
(4.3717 0.0036112 0)
(4.35517 0.00186796 0)
(4.3438 8.58679e-05 0)
(4.33732 -0.00173398 0)
(4.33547 -0.00373976 0)
(4.33797 -0.00578452 0)
(4.3447 -0.00789534 0)
(4.3556 -0.0101311 0)
(4.37061 -0.0125597 0)
(4.38981 -0.0151704 0)
(4.41317 -0.018246 0)
(4.44124 -0.0212384 0)
(4.47345 -0.0262921 0)
(4.51418 -0.0289005 0)
(4.55933 -0.041221 0)
(8.5861 0.583216 0)
(9.33139 0.761531 0)
(9.61518 0.658781 0)
(9.50656 0.524681 0)
(9.24257 0.394704 0)
(8.93308 0.29642 0)
(8.63093 0.227156 0)
(8.35925 0.177281 0)
(8.12231 0.140803 0)
(7.91784 0.113536 0)
(7.74216 0.092564 0)
(7.59145 0.0760206 0)
(7.46222 0.0626801 0)
(7.3515 0.0517042 0)
(7.25679 0.0424944 0)
(7.176 0.0346027 0)
(7.10739 0.0276891 0)
(7.04953 0.0214932 0)
(7.00124 0.0158141 0)
(6.96152 0.0105185 0)
(6.9296 0.0054811 0)
(6.90478 0.000609182 0)
(6.88645 -0.00428243 0)
(6.87432 -0.00921166 0)
(6.86816 -0.0142499 0)
(6.86773 -0.0194596 0)
(6.87279 -0.0248932 0)
(6.88317 -0.0306048 0)
(6.89872 -0.0368041 0)
(6.91946 -0.0434007 0)
(6.94514 -0.0515803 0)
(6.97547 -0.0601072 0)
(7.00979 -0.0753999 0)
(8.44095 0.379434 0)
(8.94598 0.583221 0)
(9.35855 0.553088 0)
(9.58654 0.484862 0)
(9.70128 0.404161 0)
(9.73843 0.334213 0)
(9.72465 0.280884 0)
(9.68233 0.239841 0)
(9.62439 0.207432 0)
(9.55818 0.181059 0)
(9.48843 0.158864 0)
(9.41828 0.139707 0)
(9.34977 0.12287 0)
(9.28436 0.10785 0)
(9.22302 0.0942915 0)
(9.16632 0.0819354 0)
(9.11459 0.0705685 0)
(9.06796 0.0600041 0)
(9.02649 0.0500865 0)
(8.99012 0.0406778 0)
(8.95877 0.0316457 0)
(8.93233 0.0228615 0)
(8.91069 0.01428 0)
(8.89367 0.0057283 0)
(8.881 -0.00293107 0)
(8.87255 -0.011766 0)
(8.8682 -0.0208626 0)
(8.86789 -0.0302926 0)
(8.87149 -0.0402301 0)
(8.87893 -0.0507097 0)
(8.88998 -0.0623173 0)
(8.90394 -0.0745864 0)
(8.92108 -0.0886318 0)
(8.40216 0.279769 0)
(8.71912 0.479783 0)
(8.99921 0.460364 0)
(9.17488 0.402155 0)
(9.29952 0.339354 0)
(9.39311 0.286059 0)
(9.46241 0.246102 0)
(9.51563 0.215481 0)
(9.55767 0.190872 0)
(9.59091 0.17037 0)
(9.61716 0.152704 0)
(9.63782 0.137079 0)
(9.65406 0.123001 0)
(9.66664 0.110122 0)
(9.67625 0.098179 0)
(9.68356 0.0869631 0)
(9.68916 0.0763089 0)
(9.69357 0.0660802 0)
(9.69722 0.0561633 0)
(9.70049 0.0464622 0)
(9.70368 0.0368888 0)
(9.70705 0.0273648 0)
(9.71078 0.0178208 0)
(9.71511 0.00819083 0)
(9.71995 -0.00154062 0)
(9.72526 -0.0114357 0)
(9.73105 -0.0216234 0)
(9.73736 -0.0322082 0)
(9.74417 -0.043326 0)
(9.75147 -0.0550384 0)
(9.75907 -0.0675996 0)
(9.76665 -0.0807665 0)
(9.77398 -0.0947577 0)
(8.37749 0.201845 0)
(8.60151 0.382559 0)
(8.81625 0.388948 0)
(8.94766 0.353851 0)
(9.03396 0.308742 0)
(9.09719 0.264423 0)
(9.14457 0.227665 0)
(9.18335 0.198133 0)
(9.21774 0.174027 0)
(9.24912 0.154001 0)
(9.2781 0.136951 0)
(9.30502 0.122042 0)
(9.33008 0.108716 0)
(9.3535 0.0966 0)
(9.37545 0.0854027 0)
(9.39602 0.074893 0)
(9.41531 0.0648936 0)
(9.43338 0.0552636 0)
(9.45031 0.0458887 0)
(9.46618 0.036674 0)
(9.48107 0.0275337 0)
(9.49501 0.0183919 0)
(9.5081 0.00918877 0)
(9.52033 -0.000122742 0)
(9.53191 -0.00957038 0)
(9.54304 -0.0192358 0)
(9.55375 -0.0292113 0)
(9.56406 -0.0395761 0)
(9.57392 -0.0504249 0)
(9.58329 -0.0618025 0)
(9.592 -0.0738158 0)
(9.59995 -0.08631 0)
(9.60692 -0.0992615 0)
(8.36129 0.148439 0)
(8.52287 0.310251 0)
(8.6979 0.335121 0)
(8.8131 0.314793 0)
(8.88828 0.280741 0)
(8.94205 0.243681 0)
(8.98059 0.211098 0)
(9.01008 0.184187 0)
(9.03491 0.161776 0)
(9.05701 0.142815 0)
(9.0773 0.126455 0)
(9.09638 0.112027 0)
(9.11457 0.0990591 0)
(9.13203 0.0872086 0)
(9.14888 0.0762226 0)
(9.16517 0.0659063 0)
(9.18096 0.0561032 0)
(9.19628 0.0466828 0)
(9.21113 0.0375342 0)
(9.22554 0.0285616 0)
(9.23951 0.0196811 0)
(9.25307 0.0108143 0)
(9.26623 0.0018989 0)
(9.27902 -0.00714096 0)
(9.2915 -0.0164094 0)
(9.30364 -0.0259745 0)
(9.31546 -0.0358774 0)
(9.32694 -0.0461609 0)
(9.33804 -0.0568835 0)
(9.34871 -0.0680747 0)
(9.35883 -0.0797837 0)
(9.36832 -0.0919148 0)
(9.37709 -0.104476 0)
(8.35117 0.110967 0)
(8.46755 0.250324 0)
(8.6086 0.284347 0)
(8.71074 0.275297 0)
(8.78111 0.252068 0)
(8.83343 0.223684 0)
(8.87204 0.196566 0)
(8.90149 0.172815 0)
(8.92572 0.152157 0)
(8.94675 0.134107 0)
(8.96562 0.118204 0)
(8.98306 0.104001 0)
(8.99948 0.0911307 0)
(9.01515 0.0793141 0)
(9.03024 0.0683298 0)
(9.04487 0.0579947 0)
(9.05912 0.0481552 0)
(9.07304 0.0386823 0)
(9.08669 0.0294659 0)
(9.10008 0.0204116 0)
(9.11324 0.0114354 0)
(9.1262 0.00245966 0)
(9.13896 -0.00658932 0)
(9.15151 -0.0157837 0)
(9.16386 -0.0251814 0)
(9.17598 -0.0348218 0)
(9.18786 -0.0447464 0)
(9.19947 -0.055003 0)
(9.21077 -0.0656407 0)
(9.2217 -0.0766829 0)
(9.23219 -0.0881493 0)
(9.24216 -0.0999842 0)
(9.25158 -0.112173 0)
(8.34488 0.0842524 0)
(8.42951 0.202322 0)
(8.54258 0.241363 0)
(8.63171 0.24114 0)
(8.69621 0.226018 0)
(8.74594 0.204016 0)
(8.78413 0.180976 0)
(8.81401 0.159731 0)
(8.83884 0.140708 0)
(8.86043 0.123757 0)
(8.87977 0.108611 0)
(8.89754 0.0949451 0)
(8.91417 0.0824627 0)
(8.92996 0.0709238 0)
(8.94509 0.0601331 0)
(8.95968 0.0499273 0)
(8.97385 0.0401698 0)
(8.98766 0.030745 0)
(9.00115 0.0215535 0)
(9.01438 0.0125079 0)
(9.02736 0.00353104 0)
(9.04012 -0.00544928 0)
(9.05267 -0.0144959 0)
(9.06501 -0.0236674 0)
(9.07715 -0.0330231 0)
(9.08905 -0.0426178 0)
(9.10071 -0.0524986 0)
(9.11209 -0.0627032 0)
(9.12318 -0.073262 0)
(9.13391 -0.0841874 0)
(9.14425 -0.0954822 0)
(9.15411 -0.107108 0)
(9.16351 -0.11904 0)
(8.34095 0.0649683 0)
(8.4032 0.16387 0)
(8.49365 0.204065 0)
(8.57071 0.209639 0)
(8.62932 0.200467 0)
(8.67605 0.183856 0)
(8.71323 0.164854 0)
(8.74303 0.146384 0)
(8.76802 0.129247 0)
(8.78984 0.113541 0)
(8.8094 0.0991969 0)
(8.82735 0.086046 0)
(8.84413 0.0738919 0)
(8.86002 0.062558 0)
(8.87522 0.0518901 0)
(8.88986 0.0417523 0)
(8.90404 0.0320249 0)
(8.91784 0.0226028 0)
(8.93129 0.0133928 0)
(8.94445 0.00431239 0)
(8.95734 -0.00471454 0)
(8.96998 -0.0137536 0)
(8.98239 -0.0228656 0)
(8.99457 -0.0321097 0)
(9.00652 -0.0415396 0)
(9.01823 -0.0511979 0)
(9.0297 -0.0611179 0)
(9.04089 -0.0713269 0)
(9.05178 -0.0818464 0)
(9.06233 -0.0926844 0)
(9.0725 -0.103837 0)
(9.08225 -0.115274 0)
(9.09158 -0.126967 0)
(8.33847 0.050773 0)
(8.38484 0.132938 0)
(8.45726 0.171893 0)
(8.52356 0.181349 0)
(8.57655 0.176785 0)
(8.62016 0.164592 0)
(8.65596 0.149021 0)
(8.68534 0.13291 0)
(8.71029 0.117368 0)
(8.7322 0.102741 0)
(8.75193 0.0891308 0)
(8.77004 0.0764892 0)
(8.78695 0.0646972 0)
(8.80296 0.0536241 0)
(8.81824 0.0431447 0)
(8.83293 0.0331421 0)
(8.84713 0.0235096 0)
(8.86092 0.0141518 0)
(8.87435 0.00498327 0)
(8.88746 -0.00407262 0)
(8.90028 -0.0130861 0)
(8.91282 -0.0221189 0)
(8.92512 -0.0312277 0)
(8.93716 -0.0404643 0)
(8.94896 -0.0498746 0)
(8.96051 -0.0594979 0)
(8.97179 -0.0693668 0)
(8.98278 -0.0795063 0)
(8.99347 -0.089933 0)
(9.00383 -0.100651 0)
(9.01382 -0.11165 0)
(9.02342 -0.122907 0)
(9.03263 -0.134391 0)
(8.33688 0.0401121 0)
(8.37193 0.107991 0)
(8.43006 0.144208 0)
(8.48685 0.155846 0)
(8.53449 0.154498 0)
(8.57495 0.145672 0)
(8.60918 0.132967 0)
(8.63797 0.11901 0)
(8.66278 0.105051 0)
(8.68475 0.0915755 0)
(8.70461 0.0787885 0)
(8.72288 0.0667316 0)
(8.73994 0.0553537 0)
(8.75606 0.0445718 0)
(8.77143 0.0342944 0)
(8.78618 0.0244289 0)
(8.80042 0.0148867 0)
(8.81421 0.00558461 0)
(8.82761 -0.00355389 0)
(8.84067 -0.0125993 0)
(8.85341 -0.0216146 0)
(8.86585 -0.0306588 0)
(8.87801 -0.0397842 0)
(8.88991 -0.0490384 0)
(8.90153 -0.0584635 0)
(8.91287 -0.0680943 0)
(8.92394 -0.0779579 0)
(8.93471 -0.0880731 0)
(8.94518 -0.0984503 0)
(8.95531 -0.10909 0)
(8.9651 -0.119981 0)
(8.97453 -0.1311 0)
(8.98359 -0.14242 0)
(8.33584 0.0319355 0)
(8.36273 0.0877374 0)
(8.40962 0.120365 0)
(8.45816 0.132894 0)
(8.50084 0.133732 0)
(8.53822 0.127491 0)
(8.57073 0.117177 0)
(8.59874 0.10511 0)
(8.62325 0.0925658 0)
(8.64516 0.0801284 0)
(8.66508 0.0680899 0)
(8.68346 0.0565707 0)
(8.70065 0.0455825 0)
(8.71689 0.0350855 0)
(8.73236 0.0250179 0)
(8.74718 0.0153083 0)
(8.76147 0.00588202 0)
(8.77527 -0.00333369 0)
(8.78866 -0.0124077 0)
(8.80167 -0.0214041 0)
(8.81434 -0.0303816 0)
(8.82668 -0.0393945 0)
(8.83871 -0.0484914 0)
(8.85044 -0.0577154 0)
(8.86188 -0.067104 0)
(8.87303 -0.0766878 0)
(8.88388 -0.0864907 0)
(8.89442 -0.0965291 0)
(8.90465 -0.106811 0)
(8.91455 -0.117337 0)
(8.92411 -0.128096 0)
(8.93333 -0.139068 0)
(8.94221 -0.15023 0)
(8.33514 0.0255301 0)
(8.3561 0.0711625 0)
(8.39417 0.0998089 0)
(8.43566 0.112258 0)
(8.47379 0.11441 0)
(8.50819 0.110014 0)
(8.53891 0.101566 0)
(8.566 0.0910749 0)
(8.59009 0.0797759 0)
(8.61185 0.0683046 0)
(8.63178 0.0570038 0)
(8.65024 0.046044 0)
(8.66753 0.0354806 0)
(8.68388 0.025307 0)
(8.69943 0.0154861 0)
(8.71433 0.00596483 0)
(8.72864 -0.00331732 0)
(8.74246 -0.0124225 0)
(8.75582 -0.0214113 0)
(8.76878 -0.0303415 0)
(8.78135 -0.0392667 0)
(8.79358 -0.0482365 0)
(8.80546 -0.0572953 0)
(8.81702 -0.0664826 0)
(8.82826 -0.0758322 0)
(8.83919 -0.0853717 0)
(8.8498 -0.095122 0)
(8.86009 -0.105097 0)
(8.87006 -0.115303 0)
(8.8797 -0.125739 0)
(8.88902 -0.136396 0)
(8.898 -0.147255 0)
(8.90668 -0.158299 0)
(8.33467 0.0204077 0)
(8.35127 0.0574645 0)
(8.38243 0.0820288 0)
(8.41796 0.0936857 0)
(8.45198 0.096451 0)
(8.48359 0.0932953 0)
(8.51252 0.0862716 0)
(8.5386 0.0770818 0)
(8.56217 0.0668644 0)
(8.5837 0.0562613 0)
(8.60355 0.0456406 0)
(8.62204 0.0352062 0)
(8.63939 0.0250482 0)
(8.65581 0.0151891 0)
(8.67144 0.00561406 0)
(8.68638 -0.00371294 0)
(8.70073 -0.0128393 0)
(8.71455 -0.0218174 0)
(8.72788 -0.0307003 0)
(8.74077 -0.0395402 0)
(8.75326 -0.048386 0)
(8.76536 -0.0572832 0)
(8.77709 -0.0662727 0)
(8.78847 -0.0753907 0)
(8.79951 -0.0846679 0)
(8.81021 -0.0941292 0)
(8.82057 -0.103793 0)
(8.83061 -0.113673 0)
(8.84031 -0.123774 0)
(8.84969 -0.134095 0)
(8.85874 -0.144631 0)
(8.86747 -0.155366 0)
(8.8759 -0.166289 0)
(8.33433 0.0162292 0)
(8.3477 0.046015 0)
(8.37346 0.0665732 0)
(8.40401 0.0769382 0)
(8.43439 0.0797598 0)
(8.46341 0.0773297 0)
(8.4906 0.0713155 0)
(8.51562 0.0631362 0)
(8.5386 0.0538101 0)
(8.55982 0.0439573 0)
(8.57955 0.0339524 0)
(8.59801 0.0240166 0)
(8.6154 0.0142622 0)
(8.63187 0.00473163 0)
(8.64755 -0.00457375 0)
(8.66254 -0.0136771 0)
(8.6769 -0.0226156 0)
(8.69071 -0.0314336 0)
(8.704 -0.0401781 0)
(8.71682 -0.048896 0)
(8.7292 -0.0576321 0)
(8.74117 -0.066428 0)
(8.75274 -0.0753214 0)
(8.76393 -0.0843457 0)
(8.77475 -0.093529 0)
(8.78521 -0.102894 0)
(8.79531 -0.112459 0)
(8.80507 -0.122234 0)
(8.81449 -0.132226 0)
(8.82358 -0.142435 0)
(8.83234 -0.152857 0)
(8.84078 -0.16348 0)
(8.84894 -0.174299 0)
(8.33408 0.0127549 0)
(8.34503 0.0363231 0)
(8.36657 0.0530464 0)
(8.39299 0.0617812 0)
(8.42018 0.0642196 0)
(8.44686 0.0620876 0)
(8.4724 0.0567225 0)
(8.49637 0.0492917 0)
(8.51871 0.0406815 0)
(8.53958 0.0314668 0)
(8.55914 0.0220105 0)
(8.57755 0.0125364 0)
(8.59494 0.00316787 0)
(8.61144 -0.00603952 0)
(8.62715 -0.0150724 0)
(8.64215 -0.0239435 0)
(8.65652 -0.0326814 0)
(8.6703 -0.0413234 0)
(8.68355 -0.0499108 0)
(8.69629 -0.0584858 0)
(8.70856 -0.0670893 0)
(8.72038 -0.0757598 0)
(8.73178 -0.084532 0)
(8.74277 -0.0934368 0)
(8.75337 -0.1025 0)
(8.76358 -0.111744 0)
(8.77342 -0.121184 0)
(8.7829 -0.130831 0)
(8.79202 -0.140692 0)
(8.8008 -0.15077 0)
(8.80925 -0.16106 0)
(8.81739 -0.171558 0)
(8.82523 -0.182261 0)
(8.3339 0.00981206 0)
(8.34302 0.0280043 0)
(8.36127 0.0411046 0)
(8.3843 0.0479912 0)
(8.40874 0.0497056 0)
(8.43333 0.0475187 0)
(8.45734 0.0424873 0)
(8.48029 0.0355592 0)
(8.502 0.027488 0)
(8.52249 0.0187903 0)
(8.54185 0.00980507 0)
(8.56016 0.000748559 0)
(8.57753 -0.00825332 0)
(8.59404 -0.0171384 0)
(8.60977 -0.0258862 0)
(8.62478 -0.0345029 0)
(8.63914 -0.0430113 0)
(8.65289 -0.0514439 0)
(8.66608 -0.059838 0)
(8.67873 -0.0682323 0)
(8.69088 -0.0766649 0)
(8.70255 -0.0851718 0)
(8.71377 -0.0937855 0)
(8.72455 -0.102535 0)
(8.73491 -0.111445 0)
(8.74486 -0.120536 0)
(8.75442 -0.129824 0)
(8.7636 -0.139319 0)
(8.77242 -0.149029 0)
(8.78087 -0.158957 0)
(8.78899 -0.169104 0)
(8.79679 -0.179466 0)
(8.80429 -0.190045 0)
(8.33376 0.00727304 0)
(8.3415 0.0207557 0)
(8.35717 0.0304514 0)
(8.37745 0.0353567 0)
(8.39957 0.036085 0)
(8.42231 0.0335533 0)
(8.44496 0.0285845 0)
(8.46695 0.0219379 0)
(8.48805 0.0142413 0)
(8.50816 0.00594547 0)
(8.52731 -0.00264472 0)
(8.54553 -0.0113295 0)
(8.56285 -0.0199887 0)
(8.57936 -0.0285604 0)
(8.59509 -0.0370216 0)
(8.61011 -0.0453753 0)
(8.62445 -0.0536409 0)
(8.63816 -0.0618475 0)
(8.65128 -0.0700292 0)
(8.66384 -0.0782223 0)
(8.67586 -0.0864622 0)
(8.68737 -0.0947828 0)
(8.6984 -0.103215 0)
(8.70896 -0.111786 0)
(8.71908 -0.120519 0)
(8.72877 -0.129434 0)
(8.73804 -0.138546 0)
(8.74691 -0.147867 0)
(8.7554 -0.157404 0)
(8.76351 -0.167162 0)
(8.77128 -0.177143 0)
(8.77871 -0.187348 0)
(8.78583 -0.197779 0)
(8.33366 0.00504137 0)
(8.34034 0.0143361 0)
(8.35402 0.0208302 0)
(8.37209 0.0236771 0)
(8.39226 0.0232193 0)
(8.41343 0.0201062 0)
(8.43488 0.0149691 0)
(8.45602 0.00840799 0)
(8.47654 0.000935093 0)
(8.49631 -0.00706797 0)
(8.51525 -0.0153358 0)
(8.53336 -0.0236916 0)
(8.55065 -0.0320272 0)
(8.56714 -0.0402858 0)
(8.58287 -0.0484465 0)
(8.59788 -0.0565124 0)
(8.6122 -0.064502 0)
(8.62586 -0.0724434 0)
(8.63891 -0.0803698 0)
(8.65136 -0.0883157 0)
(8.66324 -0.0963157 0)
(8.67459 -0.104402 0)
(8.68543 -0.112606 0)
(8.69576 -0.120952 0)
(8.70563 -0.129464 0)
(8.71504 -0.13816 0)
(8.72401 -0.147057 0)
(8.73256 -0.156166 0)
(8.7407 -0.165495 0)
(8.74846 -0.17505 0)
(8.75586 -0.184836 0)
(8.7629 -0.194854 0)
(8.76961 -0.205109 0)
(8.33358 0.0030421 0)
(8.33946 0.00855099 0)
(8.35161 0.0120191 0)
(8.36792 0.0127643 0)
(8.38651 0.010966 0)
(8.40638 0.00707766 0)
(8.42681 0.00157519 0)
(8.44722 -0.00507491 0)
(8.46725 -0.0124645 0)
(8.48671 -0.0202808 0)
(8.50548 -0.0283019 0)
(8.5235 -0.0363795 0)
(8.54075 -0.0444227 0)
(8.55724 -0.052385 0)
(8.57297 -0.060251 0)
(8.58798 -0.0680269 0)
(8.60228 -0.075733 0)
(8.61589 -0.0833978 0)
(8.62886 -0.0910541 0)
(8.64121 -0.0987362 0)
(8.65296 -0.106478 0)
(8.66413 -0.114311 0)
(8.67477 -0.122265 0)
(8.68487 -0.130365 0)
(8.69448 -0.138633 0)
(8.7036 -0.147088 0)
(8.71226 -0.155746 0)
(8.72047 -0.164618 0)
(8.72826 -0.173714 0)
(8.73565 -0.183039 0)
(8.74265 -0.192601 0)
(8.74928 -0.2024 0)
(8.75556 -0.212445 0)
(8.33352 0.00121412 0)
(8.3388 0.00323782 0)
(8.34979 0.00381999 0)
(8.36476 0.00243799 0)
(8.3821 -0.00082079 0)
(8.40092 -0.00564255 0)
(8.42052 -0.0116734 0)
(8.44034 -0.0185581 0)
(8.45997 -0.02598 0)
(8.47918 -0.0336923 0)
(8.49782 -0.0415189 0)
(8.51578 -0.0493429 0)
(8.53302 -0.0570951 0)
(8.54952 -0.0647434 0)
(8.56526 -0.0722825 0)
(8.58026 -0.0797252 0)
(8.59453 -0.0870962 0)
(8.6081 -0.094427 0)
(8.62099 -0.101752 0)
(8.63323 -0.109108 0)
(8.64483 -0.116528 0)
(8.65583 -0.124044 0)
(8.66626 -0.131687 0)
(8.67613 -0.13948 0)
(8.68546 -0.147447 0)
(8.69429 -0.155607 0)
(8.70263 -0.163973 0)
(8.7105 -0.172559 0)
(8.71793 -0.181374 0)
(8.72493 -0.190426 0)
(8.73152 -0.199719 0)
(8.73772 -0.209259 0)
(8.74355 -0.21905 0)
(8.33348 -0.000491633 0)
(8.33833 -0.00173952 0)
(8.34847 -0.0039423 0)
(8.36243 -0.00747564 0)
(8.37884 -0.0122961 0)
(8.39687 -0.0181875 0)
(8.41587 -0.0248921 0)
(8.43525 -0.0321477 0)
(8.45461 -0.0397196 0)
(8.47367 -0.0474244 0)
(8.49225 -0.0551324 0)
(8.51021 -0.0627609 0)
(8.52748 -0.0702655 0)
(8.54401 -0.0776312 0)
(8.55978 -0.0848651 0)
(8.5748 -0.0919883 0)
(8.58907 -0.0990317 0)
(8.6026 -0.106031 0)
(8.61542 -0.113023 0)
(8.62754 -0.120046 0)
(8.63901 -0.127134 0)
(8.64983 -0.134321 0)
(8.66004 -0.141637 0)
(8.66966 -0.149106 0)
(8.67873 -0.156752 0)
(8.68725 -0.164592 0)
(8.69526 -0.172642 0)
(8.70277 -0.180914 0)
(8.70982 -0.189417 0)
(8.71641 -0.19816 0)
(8.72258 -0.207148 0)
(8.72833 -0.216384 0)
(8.73369 -0.225875 0)
(8.33345 -0.00211908 0)
(8.338 -0.00650287 0)
(8.34756 -0.0114317 0)
(8.36084 -0.0171458 0)
(8.3766 -0.023613 0)
(8.39411 -0.0306813 0)
(8.41271 -0.0381667 0)
(8.43183 -0.0458837 0)
(8.45104 -0.0536692 0)
(8.47005 -0.0613991 0)
(8.48864 -0.0689914 0)
(8.50665 -0.0764009 0)
(8.52398 -0.0836119 0)
(8.54058 -0.0906318 0)
(8.55641 -0.0974843 0)
(8.57146 -0.104203 0)
(8.58572 -0.110828 0)
(8.59922 -0.117403 0)
(8.61197 -0.123968 0)
(8.62399 -0.130566 0)
(8.63531 -0.137234 0)
(8.64596 -0.144006 0)
(8.65596 -0.150913 0)
(8.66533 -0.157981 0)
(8.67412 -0.165232 0)
(8.68234 -0.172685 0)
(8.69001 -0.180354 0)
(8.69717 -0.188253 0)
(8.70383 -0.19639 0)
(8.71001 -0.204772 0)
(8.71575 -0.213404 0)
(8.72105 -0.222291 0)
(8.72593 -0.231436 0)
(8.33343 -0.00370974 0)
(8.33781 -0.0111676 0)
(8.34703 -0.0188113 0)
(8.35992 -0.026755 0)
(8.37533 -0.0349611 0)
(8.39258 -0.0433223 0)
(8.41103 -0.0517142 0)
(8.43009 -0.0600183 0)
(8.44934 -0.0681367 0)
(8.46845 -0.0760018 0)
(8.48717 -0.0835777 0)
(8.50533 -0.0908559 0)
(8.52281 -0.0978498 0)
(8.53954 -0.104589 0)
(8.55548 -0.111114 0)
(8.57059 -0.117473 0)
(8.58489 -0.123715 0)
(8.59838 -0.129889 0)
(8.61107 -0.136045 0)
(8.62299 -0.142228 0)
(8.63417 -0.148477 0)
(8.64463 -0.15483 0)
(8.65441 -0.161318 0)
(8.66353 -0.167969 0)
(8.67203 -0.174805 0)
(8.67993 -0.181845 0)
(8.68726 -0.189104 0)
(8.69404 -0.196594 0)
(8.7003 -0.204324 0)
(8.70606 -0.212301 0)
(8.71135 -0.220528 0)
(8.71617 -0.22901 0)
(8.72056 -0.237746 0)
(8.33342 -0.00530193 0)
(8.33774 -0.0158428 0)
(8.34685 -0.0262353 0)
(8.35962 -0.036469 0)
(8.37496 -0.0464847 0)
(8.39222 -0.0561992 0)
(8.41074 -0.0655331 0)
(8.42994 -0.0744255 0)
(8.44938 -0.0828403 0)
(8.4687 -0.090768 0)
(8.48765 -0.0982242 0)
(8.50604 -0.105244 0)
(8.52373 -0.111877 0)
(8.54064 -0.118182 0)
(8.55672 -0.124222 0)
(8.57193 -0.130063 0)
(8.58628 -0.135767 0)
(8.59978 -0.141395 0)
(8.61243 -0.147003 0)
(8.62426 -0.15264 0)
(8.63531 -0.15835 0)
(8.64561 -0.164173 0)
(8.65518 -0.170141 0)
(8.66405 -0.176282 0)
(8.67227 -0.182619 0)
(8.67986 -0.189171 0)
(8.68684 -0.195951 0)
(8.69325 -0.202972 0)
(8.69912 -0.21024 0)
(8.70447 -0.217761 0)
(8.70931 -0.225539 0)
(8.71368 -0.233576 0)
(8.71759 -0.24187 0)
(8.33343 -0.00693697 0)
(8.3378 -0.0206499 0)
(8.34702 -0.0338926 0)
(8.35997 -0.0465374 0)
(8.37558 -0.0585044 0)
(8.39317 -0.0697339 0)
(8.41208 -0.0801883 0)
(8.43171 -0.089859 0)
(8.4516 -0.0987648 0)
(8.47136 -0.106947 0)
(8.49073 -0.114465 0)
(8.50949 -0.121394 0)
(8.52751 -0.127815 0)
(8.54469 -0.133813 0)
(8.56098 -0.139476 0)
(8.57634 -0.144885 0)
(8.59078 -0.150119 0)
(8.6043 -0.15525 0)
(8.61692 -0.160341 0)
(8.62867 -0.165451 0)
(8.63958 -0.170627 0)
(8.64969 -0.175914 0)
(8.65904 -0.181346 0)
(8.66765 -0.186954 0)
(8.67557 -0.19276 0)
(8.68282 -0.198783 0)
(8.68945 -0.205039 0)
(8.69547 -0.211537 0)
(8.70092 -0.218284 0)
(8.70583 -0.225286 0)
(8.71021 -0.232544 0)
(8.7141 -0.240058 0)
(8.7175 -0.247824 0)
(8.33345 -0.00865936 0)
(8.33798 -0.025709 0)
(8.34754 -0.0419358 0)
(8.36095 -0.0570759 0)
(8.3771 -0.0710118 0)
(8.39528 -0.0836955 0)
(8.41481 -0.09513 0)
(8.43507 -0.105369 0)
(8.45557 -0.114503 0)
(8.47592 -0.122642 0)
(8.49583 -0.129908 0)
(8.51508 -0.136428 0)
(8.53352 -0.142328 0)
(8.55106 -0.147728 0)
(8.56763 -0.152741 0)
(8.58321 -0.157471 0)
(8.59779 -0.16201 0)
(8.61138 -0.166443 0)
(8.62402 -0.17084 0)
(8.63572 -0.175264 0)
(8.64653 -0.179769 0)
(8.65649 -0.184399 0)
(8.66564 -0.18919 0)
(8.67401 -0.194173 0)
(8.68165 -0.19937 0)
(8.68859 -0.204801 0)
(8.69487 -0.210477 0)
(8.70052 -0.216408 0)
(8.70558 -0.2226 0)
(8.71007 -0.229056 0)
(8.71403 -0.235775 0)
(8.71746 -0.242756 0)
(8.72041 -0.249993 0)
(8.33348 -0.0105257 0)
(8.33832 -0.0312033 0)
(8.34854 -0.0507036 0)
(8.36284 -0.0686448 0)
(8.38 -0.0848969 0)
(8.39926 -0.0994307 0)
(8.41989 -0.112278 0)
(8.44121 -0.123532 0)
(8.46269 -0.133328 0)
(8.48393 -0.141827 0)
(8.50462 -0.149197 0)
(8.52453 -0.15561 0)
(8.54353 -0.161235 0)
(8.56151 -0.166228 0)
(8.57842 -0.170735 0)
(8.59424 -0.174884 0)
(8.60897 -0.178792 0)
(8.62264 -0.182558 0)
(8.63526 -0.186268 0)
(8.6469 -0.189994 0)
(8.65758 -0.193797 0)
(8.66735 -0.197726 0)
(8.67626 -0.201822 0)
(8.68436 -0.206115 0)
(8.69169 -0.210631 0)
(8.69828 -0.215388 0)
(8.70419 -0.220397 0)
(8.70944 -0.225669 0)
(8.71408 -0.231205 0)
(8.71812 -0.237008 0)
(8.72161 -0.243076 0)
(8.72456 -0.249404 0)
(8.72699 -0.255982 0)
(8.33352 -0.0125959 0)
(8.3388 -0.0372483 0)
(8.3499 -0.0602006 0)
(8.36534 -0.0808878 0)
(8.38376 -0.0991595 0)
(8.40432 -0.11504 0)
(8.42625 -0.128651 0)
(8.44884 -0.140199 0)
(8.47152 -0.149928 0)
(8.49386 -0.15809 0)
(8.51554 -0.164928 0)
(8.53634 -0.170674 0)
(8.55608 -0.175538 0)
(8.57469 -0.179713 0)
(8.5921 -0.183367 0)
(8.6083 -0.186649 0)
(8.62331 -0.189687 0)
(8.63716 -0.192591 0)
(8.64987 -0.195453 0)
(8.66151 -0.19835 0)
(8.67213 -0.201346 0)
(8.68177 -0.204491 0)
(8.6905 -0.207827 0)
(8.69836 -0.211384 0)
(8.70541 -0.215187 0)
(8.7117 -0.219252 0)
(8.71727 -0.223591 0)
(8.72215 -0.228209 0)
(8.7264 -0.233111 0)
(8.73004 -0.238293 0)
(8.73311 -0.243753 0)
(8.73563 -0.249484 0)
(8.73766 -0.255473 0)
(8.3336 -0.0149829 0)
(8.33965 -0.0443111 0)
(8.3523 -0.0715096 0)
(8.36974 -0.0958885 0)
(8.39031 -0.117285 0)
(8.41303 -0.135697 0)
(8.43701 -0.151231 0)
(8.46144 -0.164117 0)
(8.48575 -0.174658 0)
(8.50949 -0.183178 0)
(8.53235 -0.189998 0)
(8.55411 -0.195427 0)
(8.57464 -0.199748 0)
(8.59387 -0.203211 0)
(8.61175 -0.206038 0)
(8.62829 -0.208416 0)
(8.64351 -0.210505 0)
(8.65747 -0.212438 0)
(8.67021 -0.214323 0)
(8.68179 -0.21625 0)
(8.69227 -0.218288 0)
(8.70173 -0.220494 0)
(8.71022 -0.22291 0)
(8.7178 -0.225568 0)
(8.72453 -0.22849 0)
(8.73046 -0.231693 0)
(8.73565 -0.235186 0)
(8.74013 -0.238973 0)
(8.74395 -0.243054 0)
(8.74715 -0.247426 0)
(8.74976 -0.252082 0)
(8.75181 -0.257012 0)
(8.75333 -0.262199 0)
(8.33366 -0.017749 0)
(8.34047 -0.0521695 0)
(8.35471 -0.0833128 0)
(8.37415 -0.11032 0)
(8.39691 -0.133243 0)
(8.42194 -0.152355 0)
(8.44828 -0.168001 0)
(8.47501 -0.180608 0)
(8.50146 -0.190612 0)
(8.52715 -0.19842 0)
(8.55173 -0.204411 0)
(8.57497 -0.208931 0)
(8.59674 -0.212288 0)
(8.61697 -0.214753 0)
(8.63565 -0.21656 0)
(8.65281 -0.217913 0)
(8.66848 -0.218981 0)
(8.68274 -0.219906 0)
(8.69565 -0.220804 0)
(8.7073 -0.221769 0)
(8.71777 -0.222877 0)
(8.72713 -0.224185 0)
(8.73546 -0.225737 0)
(8.74283 -0.227566 0)
(8.74931 -0.229694 0)
(8.75495 -0.232134 0)
(8.75981 -0.234896 0)
(8.76395 -0.237981 0)
(8.76741 -0.241387 0)
(8.77023 -0.245108 0)
(8.77246 -0.249135 0)
(8.77413 -0.253457 0)
(8.7753 -0.25805 0)
(8.3339 -0.0212748 0)
(8.34274 -0.0628867 0)
(8.36055 -0.100788 0)
(8.38409 -0.13379 0)
(8.4108 -0.161699 0)
(8.4394 -0.184568 0)
(8.46885 -0.20272 0)
(8.49822 -0.216725 0)
(8.52689 -0.227218 0)
(8.55444 -0.234812 0)
(8.58057 -0.240072 0)
(8.6051 -0.243505 0)
(8.6279 -0.245545 0)
(8.64896 -0.246561 0)
(8.66828 -0.246857 0)
(8.6859 -0.246684 0)
(8.70189 -0.246242 0)
(8.71633 -0.245693 0)
(8.7293 -0.245165 0)
(8.7409 -0.244756 0)
(8.75122 -0.244541 0)
(8.76036 -0.244575 0)
(8.76839 -0.2449 0)
(8.7754 -0.245543 0)
(8.78145 -0.246522 0)
(8.78663 -0.247847 0)
(8.79098 -0.249521 0)
(8.79458 -0.251543 0)
(8.79746 -0.25391 0)
(8.79968 -0.256611 0)
(8.80127 -0.259634 0)
(8.80229 -0.262966 0)
(8.80275 -0.266578 0)
(8.33386 -0.0252995 0)
(8.34352 -0.0730239 0)
(8.36373 -0.113869 0)
(8.39066 -0.147607 0)
(8.42143 -0.175325 0)
(8.45456 -0.197698 0)
(8.48858 -0.215285 0)
(8.52224 -0.228736 0)
(8.55474 -0.238667 0)
(8.58559 -0.245644 0)
(8.61447 -0.250195 0)
(8.64119 -0.252808 0)
(8.6657 -0.253921 0)
(8.68802 -0.253913 0)
(8.70821 -0.253112 0)
(8.72636 -0.251794 0)
(8.74261 -0.250186 0)
(8.75706 -0.248472 0)
(8.76986 -0.246797 0)
(8.78113 -0.245276 0)
(8.79099 -0.243992 0)
(8.79957 -0.243008 0)
(8.80695 -0.242366 0)
(8.81325 -0.242095 0)
(8.81855 -0.24221 0)
(8.82293 -0.24272 0)
(8.82647 -0.243624 0)
(8.82922 -0.244918 0)
(8.83126 -0.246594 0)
(8.83263 -0.248641 0)
(8.83339 -0.251044 0)
(8.83361 -0.25379 0)
(8.83333 -0.256838 0)
(8.33497 -0.0321386 0)
(8.35121 -0.0951332 0)
(8.38007 -0.150175 0)
(8.41442 -0.195174 0)
(8.45084 -0.230504 0)
(8.48838 -0.256989 0)
(8.52591 -0.275951 0)
(8.56233 -0.288871 0)
(8.59702 -0.297026 0)
(8.62957 -0.301484 0)
(8.65971 -0.303142 0)
(8.68733 -0.302732 0)
(8.71241 -0.300838 0)
(8.73502 -0.297926 0)
(8.75528 -0.294366 0)
(8.77333 -0.290449 0)
(8.78936 -0.286401 0)
(8.80352 -0.282398 0)
(8.816 -0.278573 0)
(8.82694 -0.275025 0)
(8.83652 -0.271824 0)
(8.84486 -0.26902 0)
(8.85209 -0.266645 0)
(8.85833 -0.264714 0)
(8.86368 -0.263236 0)
(8.86822 -0.262211 0)
(8.87203 -0.261633 0)
(8.87518 -0.261495 0)
(8.87773 -0.261788 0)
(8.87975 -0.262502 0)
(8.88128 -0.263627 0)
(8.88238 -0.265154 0)
(8.8831 -0.267038 0)
(8.33402 -0.0370832 0)
(8.34976 -0.101186 0)
(8.38344 -0.151514 0)
(8.42586 -0.192826 0)
(8.47152 -0.227112 0)
(8.51801 -0.254116 0)
(8.56321 -0.274285 0)
(8.60596 -0.288512 0)
(8.64593 -0.297645 0)
(8.68309 -0.302554 0)
(8.7175 -0.304117 0)
(8.74931 -0.303145 0)
(8.77874 -0.300338 0)
(8.80596 -0.29629 0)
(8.83116 -0.291482 0)
(8.85451 -0.286296 0)
(8.87615 -0.281027 0)
(8.89623 -0.275895 0)
(8.91486 -0.271062 0)
(8.93217 -0.266639 0)
(8.94826 -0.262702 0)
(8.96325 -0.259294 0)
(8.97721 -0.256438 0)
(8.99023 -0.254139 0)
(9.00238 -0.25239 0)
(9.01373 -0.251177 0)
(9.02433 -0.250482 0)
(9.03423 -0.250285 0)
(9.04348 -0.250574 0)
(9.05211 -0.251334 0)
(9.06019 -0.252568 0)
(9.06776 -0.254273 0)
(9.07492 -0.256429 0)
(8.33958 -0.0611357 0)
(8.37689 -0.171711 0)
(8.42579 -0.25143 0)
(8.47515 -0.305926 0)
(8.52708 -0.342334 0)
(8.58315 -0.365067 0)
(8.64184 -0.378246 0)
(8.7019 -0.384978 0)
(8.76243 -0.387224 0)
(8.82236 -0.386307 0)
(8.88069 -0.383162 0)
(8.93668 -0.37845 0)
(8.98978 -0.372653 0)
(9.03962 -0.366142 0)
(9.086 -0.359214 0)
(9.12884 -0.352114 0)
(9.16817 -0.34504 0)
(9.20411 -0.338156 0)
(9.2368 -0.331591 0)
(9.26645 -0.325443 0)
(9.29324 -0.319782 0)
(9.31739 -0.314655 0)
(9.3391 -0.310088 0)
(9.35855 -0.30609 0)
(9.37592 -0.302655 0)
(9.39136 -0.299771 0)
(9.40501 -0.29742 0)
(9.41698 -0.295584 0)
(9.42737 -0.294255 0)
(9.43625 -0.293431 0)
(9.44373 -0.293168 0)
(9.44985 -0.293467 0)
(9.45482 -0.294558 0)
(8.33756 -0.0470284 0)
(8.3933 -0.122518 0)
(8.49335 -0.187746 0)
(8.608 -0.251004 0)
(8.72978 -0.305808 0)
(8.85318 -0.348988 0)
(8.97124 -0.381252 0)
(9.07977 -0.403462 0)
(9.17649 -0.416742 0)
(9.26009 -0.422644 0)
(9.33024 -0.422763 0)
(9.38732 -0.418532 0)
(9.43213 -0.411189 0)
(9.46573 -0.401756 0)
(9.48931 -0.391056 0)
(9.50409 -0.379728 0)
(9.51121 -0.368256 0)
(9.51175 -0.356999 0)
(9.50667 -0.34621 0)
(9.49682 -0.336058 0)
(9.48293 -0.326648 0)
(9.46564 -0.318033 0)
(9.44548 -0.310229 0)
(9.42291 -0.303221 0)
(9.3983 -0.296971 0)
(9.37196 -0.29143 0)
(9.34414 -0.286534 0)
(9.31502 -0.282219 0)
(9.28475 -0.278428 0)
(9.25337 -0.275118 0)
(9.22103 -0.272361 0)
(9.18738 -0.27007 0)
(9.15324 -0.269414 0)
(8.4093 -0.221882 0)
(8.6351 -0.430069 0)
(8.83303 -0.525617 0)
(8.97603 -0.587636 0)
(9.06836 -0.621919 0)
(9.10888 -0.63405 0)
(9.10181 -0.631577 0)
(9.0565 -0.61854 0)
(8.98175 -0.597745 0)
(8.88499 -0.571739 0)
(8.77268 -0.542561 0)
(8.65018 -0.511786 0)
(8.5217 -0.480632 0)
(8.39045 -0.450014 0)
(8.25882 -0.420582 0)
(8.12855 -0.392768 0)
(8.00085 -0.366833 0)
(7.8765 -0.342906 0)
(7.756 -0.321022 0)
(7.63961 -0.301145 0)
(7.52741 -0.283193 0)
(7.41938 -0.267051 0)
(7.31543 -0.252586 0)
(7.21539 -0.239653 0)
(7.11908 -0.228101 0)
(7.0263 -0.217774 0)
(6.93685 -0.208508 0)
(6.8505 -0.200146 0)
(6.76702 -0.192486 0)
(6.68605 -0.185349 0)
(6.60725 -0.178592 0)
(6.52966 -0.171238 0)
(6.45355 -0.167298 0)
(8.13693 -0.207531 0)
(7.84662 -0.389044 0)
(7.38249 -0.440939 0)
(6.85437 -0.442027 0)
(6.35135 -0.411093 0)
(5.87629 -0.362442 0)
(5.43184 -0.308363 0)
(5.02542 -0.255261 0)
(4.65814 -0.206367 0)
(4.32805 -0.163309 0)
(4.03285 -0.126542 0)
(3.76973 -0.0958477 0)
(3.53554 -0.07069 0)
(3.32716 -0.0503791 0)
(3.14162 -0.0341893 0)
(2.97617 -0.0214342 0)
(2.82829 -0.0115002 0)
(2.69573 -0.0038584 0)
(2.57649 0.00193593 0)
(2.46881 0.00625046 0)
(2.37116 0.0093858 0)
(2.28219 0.0115859 0)
(2.20075 0.0130491 0)
(2.12584 0.0139366 0)
(2.0566 0.0143859 0)
(1.99233 0.0145137 0)
(1.93239 0.0144515 0)
(1.87638 0.0143237 0)
(1.82372 0.0143876 0)
(1.77475 0.0149558 0)
(1.72823 0.0165075 0)
(1.68704 0.0217337 0)
(1.64788 0.0169222 0)
(1.84759 -0.021532 0)