/*--------------------------------*- C++ -*----------------------------------*\
| =========                 |                                                 |
| \\      /  F ield         | OpenFOAM: The Open Source CFD Toolbox           |
|  \\    /   O peration     | Version:  2.1.1                                 |
|   \\  /    A nd           | Web:      www.OpenFOAM.org                      |
|    \\/     M anipulation  |                                                 |
\*---------------------------------------------------------------------------*/
FoamFile
{
    version     2.0;
    format      ascii;
    class       volScalarField;
    location    "0.06";
    object      epsilon;
}
// * * * * * * * * * * * * * * * * * * * * * * * * * * * * * * * * * * * * * //

dimensions      [0 2 -3 0 0 0 0];

internalField   nonuniform List<scalar> 
6820
(
151.448
203.151
260.735
321.76
383.625
443.714
499.741
549.994
593.414
629.557
658.489
680.649
696.711
707.47
713.751
716.349
715.992
713.319
708.877
703.123
696.429
689.093
681.349
673.378
665.314
657.257
649.269
641.405
633.601
626.237
617.441
615.982
579.533
11.7448
21.4182
29.9467
38.6307
47.5919
56.5769
65.349
73.7073
81.4898
88.5884
94.9484
100.563
105.464
109.708
113.368
116.522
119.25
121.627
123.72
125.589
127.288
128.862
130.35
131.788
133.207
134.638
136.112
137.669
139.351
141.255
143.418
146.36
149.708
5.83781
7.51666
9.20625
10.8087
12.3189
13.7462
15.0869
16.3375
17.4963
18.5631
19.5399
20.4302
21.2394
21.974
22.6415
23.2495
23.8059
24.3182
24.7935
25.2386
25.6594
26.0615
26.4499
26.829
27.2031
27.5761
27.952
28.3351
28.7302
29.1433
29.5864
30.0518
30.649
5.24231
5.56004
6.00439
6.49335
6.98544
7.46144
7.91226
8.33358
8.72372
9.08251
9.4107
9.70961
9.98094
10.2266
10.4485
10.6488
10.8294
10.9923
11.1392
11.2719
11.3919
11.5009
11.6
11.6905
11.7734
11.8496
11.9198
11.9847
12.0444
12.0992
12.1483
12.1912
12.2256
5.17349
5.18677
5.2682
5.39773
5.55633
5.72961
5.90769
6.08413
6.25491
6.41759
6.57079
6.7138
6.84638
6.96859
7.08071
7.18315
7.2764
7.36102
7.43758
7.50667
7.56887
7.62476
7.67488
7.71976
7.75988
7.7957
7.82765
7.85609
7.88134
7.90369
7.92325
7.9402
7.95411
5.16878
5.12132
5.09603
5.09482
5.11536
5.15308
5.203
5.26077
5.32296
5.38698
5.45098
5.51362
5.57399
5.63148
5.6857
5.73644
5.78359
5.82716
5.8672
5.90383
5.9372
5.96748
5.99486
6.01954
6.04173
6.06163
6.07948
6.09548
6.10986
6.12284
6.13464
6.14546
6.1555
5.16887
5.11169
5.06115
5.01963
4.9884
4.96754
4.95615
4.95279
4.95588
4.9639
4.97549
4.98956
5.00519
5.02166
5.03842
5.05503
5.07119
5.08664
5.10124
5.11488
5.12748
5.13903
5.14953
5.159
5.16748
5.17503
5.18174
5.18768
5.19296
5.19769
5.202
5.206
5.20984
5.16902
5.11063
5.05515
5.00339
4.95619
4.91412
4.87745
4.84609
4.8197
4.79779
4.77978
4.7651
4.75319
4.74354
4.73572
4.72932
4.72405
4.71961
4.7158
4.71243
4.70936
4.70648
4.7037
4.70096
4.69822
4.69545
4.69265
4.68983
4.687
4.6842
4.68148
4.67889
4.6765
5.16904
5.11055
5.05431
5.00049
4.94927
4.90089
4.85556
4.81342
4.77451
4.73876
4.70604
4.67616
4.64889
4.62398
4.60119
4.58029
4.56105
4.54328
4.52678
4.51139
4.49699
4.48343
4.47062
4.45847
4.44691
4.43588
4.42534
4.41524
4.40558
4.39633
4.38752
4.37914
4.37122
5.16904
5.11054
5.05421
5.00002
4.94795
4.89802
4.85025
4.80468
4.76133
4.72021
4.6813
4.64455
4.60989
4.57722
4.54644
4.51743
4.49007
4.46425
4.43984
4.41675
4.39486
4.37407
4.35431
4.3355
4.31755
4.30042
4.28405
4.2684
4.25342
4.2391
4.22542
4.21237
4.19995
5.16904
5.11053
5.05418
4.99994
4.94772
4.89746
4.84911
4.80262
4.75795
4.71508
4.67397
4.63459
4.59691
4.56086
4.52641
4.49349
4.46204
4.43198
4.40326
4.37581
4.34955
4.32442
4.30037
4.27733
4.25525
4.23407
4.21376
4.19428
4.17558
4.15764
4.14045
4.12397
4.10821
5.16904
5.11053
5.05417
4.99991
4.94767
4.89734
4.84887
4.80216
4.75715
4.71379
4.67202
4.63178
4.59304
4.55575
4.51986
4.48532
4.45209
4.42011
4.38935
4.35976
4.33128
4.30388
4.27751
4.25212
4.22768
4.20414
4.18147
4.15965
4.13863
4.1184
4.09893
4.08022
4.06224
5.16904
5.11052
5.05416
4.9999
4.94764
4.8973
4.84879
4.80204
4.75695
4.71346
4.67152
4.63104
4.59198
4.55429
4.51791
4.48279
4.44889
4.41617
4.38457
4.35407
4.32462
4.29618
4.26872
4.24219
4.21657
4.19183
4.16793
4.14485
4.12257
4.10105
4.0803
4.06029
4.041
5.16904
5.11052
5.05415
4.99988
4.94762
4.89727
4.84875
4.80198
4.75687
4.71336
4.67136
4.63082
4.59168
4.55387
4.51734
4.48204
4.44792
4.41494
4.38305
4.35222
4.32239
4.29354
4.26563
4.23863
4.2125
4.18722
4.16276
4.1391
4.11621
4.09407
4.07268
4.052
4.03204
5.16903
5.11051
5.05414
4.99987
4.9476
4.89725
4.84872
4.80194
4.75682
4.71329
4.67128
4.63073
4.59156
4.55371
4.51714
4.48179
4.44761
4.41455
4.38257
4.35162
4.32168
4.29268
4.26462
4.23744
4.21112
4.18564
4.16096
4.13706
4.11392
4.09152
4.06984
4.04887
4.02859
5.16903
5.11051
5.05414
4.99986
4.94759
4.89723
4.8487
4.80191
4.75678
4.71325
4.67123
4.63066
4.59148
4.55362
4.51704
4.48167
4.44747
4.41439
4.38238
4.3514
4.32142
4.29239
4.26427
4.23704
4.21066
4.18511
4.16035
4.13637
4.11314
4.09064
4.06886
4.04777
4.02737
5.16903
5.11051
5.05413
4.99985
4.94757
4.89721
4.84867
4.80188
4.75674
4.7132
4.67118
4.6306
4.59141
4.55355
4.51696
4.48159
4.44738
4.41429
4.38227
4.35129
4.32129
4.29225
4.26412
4.23687
4.21048
4.18491
4.16014
4.13613
4.11288
4.09035
4.06853
4.0474
4.02694
5.16903
5.1105
5.05413
4.99984
4.94756
4.89719
4.84865
4.80185
4.75671
4.71316
4.67113
4.63055
4.59136
4.55349
4.51689
4.48151
4.4473
4.41421
4.38219
4.3512
4.3212
4.29215
4.26402
4.23677
4.21038
4.18481
4.16003
4.13602
4.11276
4.09022
4.06839
4.04725
4.02677
5.16903
5.1105
5.05412
4.99983
4.94755
4.89718
4.84863
4.80183
4.75668
4.71313
4.67109
4.63051
4.59131
4.55343
4.51683
4.48145
4.44723
4.41413
4.38211
4.35112
4.32112
4.29207
4.26394
4.23669
4.2103
4.18473
4.15995
4.13594
4.11268
4.09014
4.0683
4.04715
4.02666
5.16903
5.1105
5.05412
4.99983
4.94754
4.89716
4.84861
4.8018
4.75666
4.7131
4.67106
4.63046
4.59126
4.55338
4.51678
4.48139
4.44717
4.41407
4.38204
4.35105
4.32104
4.29199
4.26386
4.23662
4.21022
4.18465
4.15987
4.13586
4.1126
4.09005
4.06821
4.04705
4.02654
5.16903
5.1105
5.05411
4.99982
4.94753
4.89715
4.8486
4.80179
4.75663
4.71307
4.67102
4.63043
4.59122
4.55334
4.51673
4.48133
4.44711
4.41401
4.38198
4.35098
4.32097
4.29192
4.26379
4.23654
4.21014
4.18457
4.15979
4.13578
4.11251
4.08996
4.06811
4.04693
4.02641
5.16903
5.1105
5.05411
4.99982
4.94752
4.89714
4.84859
4.80177
4.75661
4.71305
4.671
4.63039
4.59118
4.5533
4.51668
4.48128
4.44706
4.41395
4.38191
4.35091
4.32091
4.29185
4.26372
4.23646
4.21006
4.18449
4.1597
4.13569
4.11241
4.08985
4.06799
4.0468
4.02627
5.16903
5.11049
5.05411
4.99981
4.94752
4.89714
4.84857
4.80175
4.7566
4.71302
4.67097
4.63036
4.59115
4.55326
4.51664
4.48124
4.44701
4.41389
4.38186
4.35085
4.32084
4.29178
4.26364
4.23639
4.20998
4.1844
4.15961
4.13559
4.1123
4.08973
4.06786
4.04666
4.0261
5.16903
5.11049
5.05411
4.99981
4.94751
4.89713
4.84857
4.80174
4.75658
4.71301
4.67095
4.63034
4.59112
4.55322
4.5166
4.4812
4.44696
4.41385
4.3818
4.3508
4.32078
4.29172
4.26357
4.23631
4.2099
4.18431
4.15952
4.13548
4.11219
4.08961
4.06772
4.0465
4.02592
5.16903
5.11049
5.0541
4.99981
4.94751
4.89712
4.84856
4.80173
4.75657
4.71299
4.67093
4.63031
4.59109
4.55319
4.51657
4.48116
4.44692
4.4138
4.38175
4.35074
4.32072
4.29165
4.2635
4.23623
4.20982
4.18422
4.15941
4.13537
4.11206
4.08947
4.06756
4.04632
4.02573
5.16903
5.11049
5.0541
4.9998
4.94751
4.89712
4.84855
4.80172
4.75656
4.71298
4.67091
4.6303
4.59107
4.55317
4.51654
4.48113
4.44688
4.41376
4.38171
4.35069
4.32066
4.29159
4.26343
4.23616
4.20973
4.18413
4.15931
4.13526
4.11194
4.08933
4.0674
4.04614
4.02552
5.16903
5.11049
5.0541
4.9998
4.9475
4.89711
4.84854
4.80171
4.75654
4.71296
4.67089
4.63027
4.59104
4.55314
4.51651
4.48109
4.44684
4.41371
4.38166
4.35064
4.3206
4.29152
4.26336
4.23608
4.20965
4.18403
4.1592
4.13513
4.1118
4.08917
4.06723
4.04595
4.02531
5.16903
5.11049
5.0541
4.9998
4.9475
4.89711
4.84854
4.80171
4.75654
4.71296
4.67089
4.63027
4.59103
4.55313
4.51649
4.48107
4.44682
4.41369
4.38163
4.3506
4.32056
4.29147
4.2633
4.23601
4.20957
4.18394
4.1591
4.13502
4.11167
4.08902
4.06706
4.04576
4.02509
5.16903
5.11049
5.0541
4.9998
4.9475
4.8971
4.84853
4.8017
4.75653
4.71294
4.67087
4.63025
4.59101
4.5531
4.51646
4.48104
4.44678
4.41364
4.38158
4.35055
4.3205
4.29141
4.26323
4.23593
4.20948
4.18384
4.15899
4.13489
4.11153
4.08887
4.06689
4.04557
4.02488
5.16903
5.11049
5.0541
4.9998
4.9475
4.89711
4.84854
4.80171
4.75654
4.71296
4.67089
4.63027
4.59103
4.55312
4.51647
4.48105
4.44679
4.41365
4.38158
4.35054
4.32049
4.29139
4.2632
4.23589
4.20943
4.18378
4.15891
4.1348
4.11142
4.08874
4.06675
4.0454
4.02469
5.16903
5.11049
5.0541
4.9998
4.9475
4.89711
4.84853
4.8017
4.75652
4.71293
4.67086
4.63024
4.591
4.55309
4.51644
4.48102
4.44676
4.41361
4.38154
4.3505
4.32045
4.29134
4.26315
4.23584
4.20937
4.18371
4.15884
4.13472
4.11133
4.08864
4.06663
4.04527
4.02454
5.16903
5.11049
5.0541
4.99981
4.94752
4.89715
4.84859
4.80177
4.75661
4.71303
4.67097
4.63035
4.59111
4.5532
4.51656
4.48113
4.44687
4.41373
4.38165
4.35061
4.32055
4.29145
4.26326
4.23594
4.20947
4.18382
4.15895
4.13483
4.11144
4.08875
4.06674
4.04538
4.02465
5.16903
5.11051
5.05413
4.99985
4.94756
4.89718
4.84861
4.80178
4.75662
4.71304
4.67098
4.63037
4.59115
4.55325
4.51663
4.48123
4.44699
4.41388
4.38185
4.35084
4.32083
4.29178
4.26364
4.23638
4.20997
4.18438
4.15957
4.13553
4.11221
4.0896
4.06767
4.0464
4.02576
5.16903
5.1105
5.05415
4.99992
4.9477
4.8974
4.84891
4.80216
4.75706
4.71355
4.67155
4.63102
4.59188
4.55408
4.51757
4.4823
4.44821
4.41526
4.38341
4.35262
4.32284
4.29403
4.26615
4.23918
4.21307
4.1878
4.16332
4.13962
4.11667
4.09443
4.07288
4.05199
4.03174
5.16905
5.11063
5.0544
5.00025
4.94809
4.89785
4.84947
4.80288
4.75802
4.71484
4.67326
4.63322
4.59467
4.55755
4.52181
4.48738
4.45422
4.42227
4.39149
4.36182
4.33322
4.30565
4.27905
4.2534
4.22864
4.20474
4.18167
4.15939
4.13786
4.11706
4.09695
4.07751
4.0587
5.16908
5.11079
5.05488
5.00137
4.95018
4.90122
4.85443
4.80976
4.76716
4.72656
4.6879
4.6511
4.61608
4.58275
4.55103
4.52083
4.49206
4.46465
4.43851
4.41356
4.38974
4.36697
4.3452
4.32435
4.30437
4.28521
4.26683
4.24916
4.23218
4.21584
4.2001
4.18494
4.1703
5.16939
5.11357
5.062
5.01464
4.9715
4.93253
4.89755
4.86628
4.83842
4.81362
4.79157
4.77197
4.75452
4.73897
4.72509
4.71265
4.70147
4.69139
4.68225
4.67393
4.66631
4.6593
4.65279
4.64672
4.64101
4.6356
4.63045
4.62549
4.62071
4.61604
4.61147
4.60697
4.60251
5.17809
5.16327
5.16958
5.19135
5.22463
5.26638
5.31423
5.36627
5.42108
5.47758
5.53491
5.59243
5.64962
5.70609
5.76155
5.81578
5.86861
5.91992
5.96963
6.01769
6.06408
6.10878
6.1518
6.19315
6.23287
6.27098
6.30752
6.34253
6.37606
6.40817
6.43889
6.46829
6.49644
5.6386
6.4304
7.14577
7.82516
8.49369
9.1454
9.77442
10.3784
10.9573
11.5119
12.0436
12.5542
13.0451
13.5179
13.9738
14.4141
14.8398
15.252
15.6515
16.0391
16.4156
16.7817
17.1381
17.4853
17.8241
18.1548
18.4782
18.7947
19.1049
19.4092
19.7081
20.0021
20.2917
44.7794
48.3124
51.8864
55.4656
59.0311
62.5709
66.0745
69.5322
72.9351
76.2756
79.5468
82.7428
85.8589
88.891
91.836
94.6914
97.4556
100.127
102.707
105.193
107.587
109.889
112.102
114.225
116.26
118.211
120.078
121.863
123.57
125.199
126.754
128.237
129.651
689.771
831.712
972.562
1111.34
1233.91
1312.91
1323.06
1263.32
1156.87
1034.65
919.648
822.007
742.659
678.905
627.809
587.173
555.346
531.064
513.073
499.886
490.163
482.657
476.166
469.474
461.294
450.239
434.822
413.504
384.801
347.516
301.14
246.509
186.614
127.169
75.865
39.3003
18.9923
10.6144
8.13148
7.76992
8.03347
8.43908
8.83326
9.16083
9.40045
9.54772
9.60873
9.59561
9.52296
9.40538
9.256
9.08588
8.90392
8.71701
8.53039
8.34795
8.17257
8.00639
7.85096
7.70742
7.5765
7.45862
7.35382
7.26176
7.18169
7.11235
7.05196
6.99818
6.94809
6.89828
6.84501
6.78438
6.71259
6.62616
6.52199
6.39734
6.24964
6.07631
5.87458
5.6417
5.37547
5.07524
4.74306
4.38473
4.01019
3.6331
3.2692
2.93397
2.63995
2.39462
2.19953
2.05088
1.94135
1.86227
1.80551
1.76449
1.73456
1.7124
1.69697
1.68046
156.652
168.61
189.469
225.351
283.009
367.098
476.269
599.638
717.358
807.059
853.755
856.332
825.715
777.403
724.583
675.219
632.522
596.912
567.229
542.039
519.994
499.888
480.532
460.662
438.935
413.975
384.48
349.359
307.967
260.454
208.222
154.373
103.751
61.9512
32.998
16.9762
10.11
7.84264
7.35166
7.46288
7.76577
8.11238
8.43784
8.70827
8.9069
9.0291
9.07876
9.06504
8.99948
8.89393
8.75933
8.60509
8.43892
8.26692
8.0938
7.92312
7.75759
7.59922
7.44955
7.3097
7.18051
7.06252
6.956
6.86094
6.777
6.70345
6.63915
6.58243
6.53113
6.4825
6.43335
6.38018
6.31933
6.24726
6.16061
6.05629
5.93139
5.78297
5.60801
5.40354
5.16705
4.89743
4.59605
4.26776
3.92141
3.56954
3.22695
2.90857
2.62685
2.3897
2.19945
2.05327
1.94475
1.86591
1.80904
1.76783
1.73768
1.71527
1.69962
1.68268
31.2531
31.872
32.6469
34.1393
37.7631
46.3629
64.2233
95.8654
144.23
208.813
284.624
363.15
434.701
491.142
528.025
545.184
546.025
534.096
513.825
489.456
463.553
437.027
409.705
380.905
349.822
315.763
278.327
237.593
194.344
150.287
108.117
71.1854
42.5719
23.7229
13.5388
9.06256
7.42533
6.96372
6.9732
7.18015
7.46514
7.76466
8.04012
8.26787
8.43526
8.53844
8.58015
8.5674
8.50932
8.41553
8.29512
8.15605
8.00502
7.84739
7.6874
7.52833
7.37269
7.2224
7.07893
6.9434
6.81668
6.6994
6.59197
6.4946
6.40727
6.32968
6.26121
6.20082
6.14703
6.0978
6.05057
6.00231
5.94967
5.88915
5.81729
5.73075
5.62629
5.50071
5.35077
5.17323
4.96531
4.72542
4.45419
4.15548
3.83697
3.50998
3.18835
2.88638
2.61647
2.38697
2.20104
2.05687
1.94895
1.87003
1.81285
1.77129
1.74082
1.7181
1.70217
1.68475
12.2567
12.2701
12.2043
11.9581
11.4059
10.5162
9.66352
9.90535
12.7372
19.8785
33.1014
53.6919
81.4982
114.54
149.623
183.302
212.441
235.636
251.42
258.753
257.704
249.199
234.527
214.964
191.627
165.524
137.709
109.447
82.2841
57.9697
38.1379
23.7948
14.839
10.0591
7.82517
6.87965
6.54749
6.52442
6.66656
6.89406
7.15595
7.4171
7.65281
7.8466
7.98916
8.07745
8.11342
8.10244
8.05172
7.96906
7.86196
7.73718
7.60045
7.45653
7.30922
7.1615
7.01571
6.87366
6.73677
6.60614
6.48262
6.3669
6.25947
6.16067
6.07071
5.9896
5.91712
5.85278
5.79571
5.74455
5.6974
5.65181
5.60482
5.55316
5.49336
5.42192
5.33541
5.23037
5.10336
4.95095
4.77007
4.55866
4.31659
4.0467
3.75545
3.45294
3.15192
2.86608
2.60769
2.38554
2.20365
2.06119
1.95363
1.87444
1.8168
1.77479
1.74393
1.72085
1.70462
1.68668
7.96657
7.97661
7.97829
7.95749
7.87771
7.66222
7.19597
6.40132
5.35227
4.44187
4.33511
5.46594
8.07104
12.3807
18.4726
26.0805
34.4589
42.8153
50.7287
57.4747
62.2819
64.5359
63.9222
60.4871
54.6229
47.0036
38.4916
30.0204
22.4476
16.3854
12.0581
9.28661
7.65615
6.75137
6.28731
6.1006
6.09486
6.20674
6.39134
6.61493
6.85105
7.07868
7.28143
7.44758
7.57014
7.64664
7.67845
7.66965
7.62592
7.55356
7.45875
7.34719
7.22382
7.09281
6.95756
6.82078
6.68466
6.5509
6.42085
6.29556
6.1759
6.06253
5.95599
5.85672
5.76504
5.68116
5.60519
5.53704
5.47636
5.42242
5.37397
5.32918
5.28561
5.24031
5.18994
5.13099
5.05986
4.97295
4.86664
4.73733
4.5817
4.3972
4.18302
3.94094
3.67621
3.39762
3.11685
2.84688
2.59982
2.38486
2.20683
2.06593
1.95858
1.87898
1.82077
1.77824
1.74695
1.72349
1.70695
1.68848
6.16626
6.17813
6.19062
6.20414
6.21714
6.22227
6.19724
6.09599
5.85128
5.4157
4.85954
4.34225
4.02233
4.05499
4.554
5.55177
7.02737
8.78791
10.4786
11.9532
13.1026
13.831
14.0717
13.8096
13.096
12.046
10.8167
9.57104
8.44048
7.50193
6.77856
6.25907
5.9185
5.72866
5.66144
5.69067
5.79316
5.94848
6.13826
6.34567
6.5553
6.75346
6.92865
7.07215
7.17852
7.2457
7.27453
7.26811
7.23089
7.16792
7.08433
6.98487
6.87383
6.75483
6.63091
6.50457
6.37781
6.25223
6.12912
6.00949
5.89418
5.78384
5.67904
5.58021
5.48777
5.40204
5.32332
5.25182
5.18762
5.1305
5.07984
5.03443
4.99241
4.95126
4.90791
4.85892
4.80065
4.7294
4.64144
4.53302
4.40059
4.24122
4.05338
3.83787
3.5987
3.34336
3.08242
2.82807
2.59222
2.3844
2.21019
2.07079
1.96357
1.88349
1.82465
1.78155
1.7498
1.72596
1.70911
1.69013
5.21425
5.21963
5.22623
5.23507
5.24714
5.2631
5.28222
5.29965
5.3021
5.26455
5.16159
4.98743
4.76617
4.55495
4.42701
4.43838
4.62987
4.95571
5.33363
5.7069
6.0336
6.28351
6.43784
6.48995
6.4456
6.32168
6.14297
5.93761
5.73249
5.54981
5.40542
5.30886
5.26421
5.27135
5.32693
5.42536
5.5594
5.72058
5.89957
6.08644
6.27106
6.44374
6.59588
6.72076
6.814
6.87375
6.90049
6.89651
6.86527
6.81082
6.73737
6.64892
6.54914
6.44122
6.32788
6.21137
6.09355
5.97592
5.85972
5.74592
5.63531
5.52854
5.42616
5.32861
5.23633
5.1497
5.06911
4.99498
4.92767
4.86739
4.81404
4.76704
4.72512
4.68627
4.64779
4.60643
4.55859
4.50055
4.4285
4.33863
4.22721
4.09095
3.92768
3.73726
3.5225
3.28962
3.048
2.80904
2.58434
2.38368
2.21336
2.07549
1.96841
1.88783
1.82833
1.78463
1.75242
1.7282
1.71105
1.69159
4.67405
4.67184
4.67069
4.67127
4.67429
4.68044
4.69038
4.7044
4.72167
4.7387
4.74809
4.74046
4.70887
4.65418
4.58851
4.53184
4.50902
4.5265
4.57921
4.65492
4.73941
4.8197
4.88583
4.93169
4.9552
4.95805
4.94507
4.92322
4.90051
4.88492
4.88349
4.90176
4.94347
5.01052
5.10298
5.2192
5.35599
5.50873
5.67162
5.83786
6.00011
6.15101
6.28389
6.39338
6.47586
6.52965
6.55493
6.55333
6.52752
6.48073
6.4164
6.33791
6.24838
6.15062
6.04705
5.93972
5.83036
5.72039
5.61095
5.503
5.3973
5.29448
5.19506
5.0995
5.0082
4.92157
4.84004
4.76411
4.69434
4.63123
4.57513
4.526
4.48315
4.44515
4.40972
4.37389
4.33422
4.28701
4.22848
4.15476
4.06202
3.94667
3.80601
3.63901
3.44736
3.23599
3.01312
2.78928
2.5757
2.3823
2.21599
2.07979
1.97292
1.89185
1.83169
1.7874
1.75472
1.73013
1.71271
1.69282
4.3626
4.35345
4.34522
4.33836
4.33336
4.33072
4.33092
4.33435
4.34123
4.35144
4.36399
4.37671
4.38643
4.3901
4.38641
4.37693
4.36653
4.36027
4.36141
4.3709
4.38755
4.4089
4.43215
4.4549
4.47572
4.49438
4.51187
4.53028
4.5524
4.58142
4.62052
4.6725
4.73953
4.8229
4.92286
5.03852
5.16787
5.30774
5.45388
5.60115
5.74386
5.87624
5.99295
6.08961
6.16318
6.21211
6.23632
6.23694
6.216
6.17605
6.11989
6.05035
5.97011
5.88161
5.78704
5.68825
5.58683
5.48413
5.38123
5.27905
5.17834
5.07971
4.98365
4.89062
4.80098
4.71515
4.63354
4.55668
4.48522
4.41986
4.36126
4.30984
4.26547
4.22725
4.19341
4.16133
4.12779
4.08922
4.04187
3.98191
3.90545
3.80873
3.68855
3.54315
3.37312
3.1822
2.97741
2.7684
2.56591
2.37991
2.21782
2.08346
1.97693
1.89546
1.83466
1.78978
1.75664
1.73171
1.71404
1.69378
4.18626
4.17136
4.15726
4.14427
4.13274
4.12305
4.11557
4.11063
4.10848
4.10928
4.113
4.11929
4.12743
4.13631
4.14472
4.15178
4.15763
4.16299
4.16881
4.17602
4.18525
4.19682
4.21074
4.22696
4.24549
4.26661
4.291
4.31969
4.35407
4.39574
4.44636
4.50744
4.58016
4.66521
4.76259
4.87156
4.99048
5.11682
5.24722
5.37758
5.50337
5.61993
5.72295
5.80879
5.87486
5.91971
5.94308
5.9457
5.92905
5.89514
5.84625
5.78473
5.71287
5.6328
5.54647
5.45557
5.36158
5.26574
5.1691
5.07255
4.9768
4.88246
4.79002
4.69989
4.61246
4.52807
4.44714
4.37018
4.29783
4.23092
4.17031
4.11676
4.07062
4.03152
3.99818
3.96841
3.93926
3.90732
3.86897
3.82045
3.7579
3.67744
3.57554
3.44977
3.29977
3.12811
2.94067
2.74613
2.55468
2.37623
2.21861
2.08632
1.98031
1.89855
1.83716
1.79171
1.75813
1.73288
1.71499
1.69442
4.09072
4.07147
4.0529
4.03522
4.01872
4.00369
3.99042
3.97922
3.97032
3.96391
3.9601
3.9589
3.96018
3.96364
3.96886
3.9754
3.98292
3.99124
4.00037
4.01049
4.02187
4.03484
4.04976
4.06704
4.08714
4.11062
4.13819
4.17069
4.2091
4.25445
4.30778
4.37
4.44181
4.52352
4.61495
4.71534
4.82327
4.93665
5.0527
5.1681
5.27917
5.38213
5.47343
5.55003
5.60968
5.65102
5.67364
5.67795
5.66503
5.63642
5.59395
5.53957
5.47523
5.40281
5.32401
5.24038
5.15328
5.06388
4.97319
4.88205
4.79118
4.70114
4.61244
4.52548
4.44062
4.35819
4.27856
4.2022
4.12973
4.06199
3.99997
3.94468
3.89682
3.85651
3.82296
3.7944
3.7682
3.74118
3.70985
3.67061
3.61967
3.55315
3.46728
3.3591
3.22742
3.07374
2.9028
2.7223
2.54182
2.37108
2.21818
2.08824
1.98297
1.90104
1.83915
1.79316
1.75915
1.73359
1.71551
1.69469
4.04218
4.01996
3.99827
3.97731
3.95729
3.93844
3.92102
3.90529
3.89146
3.87976
3.87033
3.86327
3.85862
3.85634
3.85634
3.85847
3.86255
3.86846
3.87612
3.88553
3.89678
3.91003
3.92555
3.94367
3.96483
3.98954
4.01838
4.05206
4.09129
4.13684
4.18941
4.2496
4.3178
4.39413
4.4783
4.56959
4.66674
4.76799
4.87104
4.97317
5.07137
5.16253
5.24369
5.31228
5.36632
5.40454
5.42641
5.4321
5.42235
5.39832
5.36148
5.31343
5.25583
5.19029
5.11835
5.04139
4.96068
4.87731
4.79223
4.70626
4.6201
4.53432
4.4494
4.36574
4.2837
4.20358
4.12572
4.05054
3.9786
3.91073
3.84795
3.79141
3.7421
3.70054
3.66637
3.63826
3.61391
3.59037
3.56437
3.53243
3.49095
3.43611
3.36404
3.2714
3.15627
3.0192
2.86383
2.69689
2.52724
2.36434
2.21642
2.08912
1.98483
1.9029
1.84058
1.7941
1.75968
1.73384
1.71558
1.69456
4.0194
3.99535
3.97172
3.94867
3.92635
3.90498
3.88476
3.86592
3.84866
3.83319
3.81969
3.80829
3.79911
3.7922
3.78759
3.78528
3.78524
3.78744
3.79189
3.7986
3.80764
3.81915
3.83331
3.85039
3.87071
3.89468
3.92275
3.95544
3.99329
4.03684
4.08658
4.14291
4.20603
4.27592
4.35228
4.4344
4.52122
4.61123
4.70252
4.79285
4.87971
4.96053
5.03281
5.09436
5.14342
5.17877
5.19984
5.20657
5.19946
5.17936
5.14741
5.10494
5.05333
4.99399
4.92827
4.85742
4.7826
4.70483
4.62503
4.54397
4.46234
4.38069
4.29952
4.21921
4.14012
4.06254
3.98678
3.91322
3.84235
3.77494
3.712
3.65476
3.60439
3.56173
3.52681
3.49867
3.47538
3.45422
3.4321
3.40577
3.3718
3.32654
3.26613
3.18697
3.0866
2.96469
2.82389
2.66993
2.51094
2.35595
2.21327
2.0889
1.98584
1.9041
1.84146
1.79453
1.75973
1.73361
1.71519
1.69401
4.00962
3.98456
3.95984
3.93557
3.91189
3.88896
3.86697
3.8461
3.82654
3.80849
3.79212
3.77759
3.76504
3.75459
3.7463
3.74026
3.73651
3.73512
3.73612
3.73959
3.74563
3.75437
3.76597
3.78065
3.79868
3.82036
3.84605
3.87614
3.91101
3.95107
3.99663
4.04794
4.10512
4.16806
4.23643
4.30962
4.38668
4.46635
4.54701
4.6268
4.70363
4.77532
4.83976
4.89503
4.93957
4.97225
4.9924
4.99986
4.99489
4.9781
4.95038
4.91279
4.8665
4.81272
4.75262
4.68734
4.61794
4.54538
4.4705
4.39408
4.31675
4.2391
4.16158
4.08461
4.00852
3.93361
3.86016
3.78851
3.71911
3.65264
3.59008
3.53264
3.48165
3.43815
3.40253
3.37415
3.3514
3.3318
3.31245
3.2903
3.26214
3.22453
3.17376
3.10612
3.01872
2.91051
2.78321
2.64159
2.49298
2.34595
2.20871
2.08755
1.98599
1.90463
1.8418
1.79448
1.75931
1.73293
1.71435
1.69305
4.00578
3.98024
3.95495
3.93003
3.90558
3.88175
3.85867
3.83652
3.81546
3.79566
3.77731
3.76054
3.74552
3.73237
3.72121
3.71215
3.70529
3.70071
3.69852
3.69882
3.70171
3.70735
3.71589
3.72752
3.74247
3.76099
3.78337
3.80989
3.84085
3.87653
3.91716
3.96289
4.01375
4.06962
4.13017
4.19485
4.26284
4.33305
4.40413
4.4745
4.54239
4.60596
4.66339
4.71301
4.7534
4.7835
4.80264
4.81052
4.80724
4.79322
4.76911
4.73578
4.69418
4.64535
4.59032
4.53011
4.46568
4.39792
4.32764
4.25557
4.18233
4.10849
4.03451
3.96079
3.88769
3.81549
3.74447
3.67493
3.60727
3.5421
3.48033
3.42316
3.37196
3.32795
3.29178
3.26312
3.24062
3.22202
3.20462
3.1855
3.16172
3.1301
3.08713
3.02914
2.95297
2.85699
2.74208
2.61209
2.47352
2.33441
2.20278
2.0851
1.98529
1.90453
1.84163
1.79399
1.75848
1.73183
1.71309
1.69169
4.00439
3.97862
3.95307
3.92781
3.90294
3.87857
3.85483
3.83186
3.80981
3.78882
3.76905
3.75067
3.7338
3.7186
3.70518
3.69369
3.68423
3.67693
3.67189
3.66925
3.66914
3.67169
3.67706
3.68544
3.69702
3.71202
3.73067
3.75319
3.77983
3.81078
3.84622
3.88622
3.93079
3.97978
4.03288
4.08961
4.14925
4.21087
4.27332
4.33524
4.39513
4.45142
4.50253
4.547
4.58354
4.61116
4.62916
4.63718
4.63519
4.62344
4.6024
4.57275
4.53527
4.49085
4.44037
4.38476
4.32488
4.26155
4.19554
4.12754
4.05815
3.98793
3.91733
3.84678
3.7766
3.7071
3.63854
3.57121
3.50546
3.44183
3.38117
3.32462
3.27358
3.22939
3.19288
3.164
3.14163
3.12371
3.10766
3.09073
3.07017
3.04312
3.00634
2.9563
2.88971
2.80451
2.70084
2.58169
2.45276
2.32148
2.19557
2.08158
1.98378
1.90381
1.841
1.79311
1.75728
1.73038
1.71148
1.68998
4.0039
3.97803
3.95234
3.92689
3.90177
3.87708
3.85291
3.82938
3.80663
3.78478
3.76398
3.74437
3.72609
3.70927
3.69405
3.68056
3.66893
3.65928
3.65175
3.64647
3.64357
3.6432
3.64551
3.65068
3.65889
3.67032
3.68516
3.70362
3.72588
3.7521
3.78239
3.81681
3.85534
3.89782
3.94398
3.99338
4.0454
4.09923
4.15389
4.20821
4.26092
4.31064
4.35602
4.39574
4.42868
4.45387
4.47064
4.47856
4.47751
4.46759
4.44913
4.42265
4.38878
4.34826
4.30187
4.25041
4.19468
4.13542
4.07336
4.00915
3.94338
3.87658
3.80921
3.74168
3.67434
3.60748
3.54137
3.47627
3.41252
3.35059
3.29124
3.23559
3.185
3.1409
3.10427
3.0753
3.05306
3.03565
3.02059
3.00524
2.98704
2.96339
2.93141
2.88778
2.82925
2.75343
2.65985
2.55074
2.43096
2.30732
2.18719
2.07708
1.98151
1.90254
1.83995
1.79189
1.75579
1.72864
1.70957
1.68797
4.00369
3.97777
3.95199
3.92643
3.90114
3.87621
3.85173
3.8278
3.80452
3.78201
3.76041
3.73983
3.72041
3.70228
3.68557
3.67041
3.65693
3.64526
3.63553
3.62789
3.62246
3.6194
3.61885
3.62098
3.62596
3.63394
3.64512
3.65964
3.67767
3.69933
3.72472
3.75387
3.78673
3.82317
3.86293
3.90562
3.95071
3.99749
4.04511
4.09257
4.13878
4.18255
4.22268
4.25804
4.28757
4.31039
4.32584
4.33347
4.33304
4.32457
4.30826
4.28449
4.25377
4.2167
4.17396
4.12625
4.07429
4.01876
3.96035
3.89966
3.83727
3.77369
3.70938
3.64474
3.58011
3.51581
3.45209
3.38921
3.32747
3.26732
3.20943
3.15485
3.10494
3.06115
3.02461
2.99568
2.97362
2.95666
2.94239
2.92822
2.91174
2.89061
2.86227
2.82374
2.77187
2.7041
2.6195
2.51957
2.40841
2.29217
2.1778
2.0717
1.97855
1.90077
1.83854
1.79041
1.75407
1.72669
1.70745
1.68574
4.00355
3.97759
3.95175
3.9261
3.90068
3.87557
3.85083
3.82657
3.80286
3.77982
3.75756
3.73618
3.71582
3.69659
3.67862
3.66203
3.64695
3.63352
3.62186
3.61211
3.6044
3.59889
3.59572
3.59503
3.59699
3.60175
3.60947
3.62029
3.63435
3.65174
3.67255
3.69678
3.72441
3.75528
3.78918
3.82576
3.86455
3.90493
3.94619
3.98745
4.02776
4.0661
4.10143
4.13272
4.15904
4.17956
4.19363
4.20077
4.20071
4.19337
4.17883
4.15737
4.12938
4.09535
4.05586
4.01153
3.96299
3.91088
3.85583
3.79841
3.73917
3.67861
3.61718
3.55527
3.49324
3.43138
3.36997
3.30926
3.24952
3.19116
3.1348
3.08142
3.03233
2.98901
2.95272
2.92395
2.90215
2.88565
2.87208
2.85888
2.8437
2.82442
2.79882
2.76426
2.71781
2.65688
2.58016
2.48854
2.38542
2.27626
2.16757
2.06556
1.97499
1.89856
1.83684
1.78873
1.7522
1.72459
1.70518
1.68335
4.00342
3.97741
3.95152
3.92578
3.90025
3.87498
3.85003
3.82549
3.80142
3.77793
3.7551
3.73305
3.71188
3.69171
3.67265
3.65482
3.63835
3.62337
3.61
3.59837
3.58862
3.58089
3.57533
3.57206
3.57125
3.57304
3.57756
3.58495
3.59532
3.60877
3.62534
3.64506
3.66787
3.69366
3.72221
3.75322
3.78629
3.82087
3.85635
3.89198
3.92693
3.96031
3.99121
4.01873
4.04201
4.06029
4.07294
4.07946
4.07955
4.07304
4.05996
4.04045
4.01482
3.98347
3.94687
3.90557
3.86014
3.81115
3.75918
3.70478
3.64847
3.59074
3.53201
3.47269
3.41311
3.3536
3.2944
3.23578
3.17799
3.12141
3.06659
3.01447
2.96629
2.92357
2.88763
2.85913
2.83766
2.82166
2.80878
2.79643
2.7823
2.76441
2.74085
2.70934
2.66726
2.61205
2.54218
2.45802
2.36231
2.25987
2.15671
2.05879
1.97091
1.89598
1.8349
1.7869
1.75024
1.72244
1.70286
1.6809
4.00327
3.97722
3.95128
3.92546
3.89982
3.87441
3.84927
3.82448
3.8001
3.77621
3.7529
3.73026
3.70839
3.6874
3.66739
3.64849
3.63079
3.61444
3.59955
3.58625
3.57467
3.56494
3.55721
3.55161
3.54827
3.54733
3.54892
3.55316
3.56015
3.56997
3.58266
3.59824
3.61665
3.63779
3.66147
3.68742
3.71529
3.74461
3.77484
3.80534
3.8354
3.86424
3.89106
3.91506
3.93547
3.95158
3.96279
3.96859
3.96864
3.96274
3.95082
3.93296
3.90937
3.88036
3.84634
3.80776
3.76513
3.71899
3.66985
3.61824
3.56466
3.50956
3.45337
3.39648
3.33923
3.28194
3.22486
3.16824
3.11234
3.05748
3.00421
2.95336
2.90615
2.86409
2.82858
2.80041
2.77933
2.76388
2.75171
2.74019
2.72698
2.71019
2.68816
2.65898
2.62035
2.56988
2.5059
2.42836
2.33942
2.24327
2.14543
2.05157
1.96644
1.89312
1.83279
1.785
1.74825
1.72028
1.70053
1.67843
4.00309
3.97701
3.95101
3.92512
3.89938
3.87384
3.84853
3.82351
3.79886
3.77462
3.75088
3.72773
3.70526
3.68355
3.66271
3.64285
3.62408
3.60652
3.59028
3.57548
3.56226
3.55074
3.54105
3.53332
3.52769
3.52427
3.52319
3.52456
3.52846
3.53496
3.54411
3.55591
3.57031
3.58721
3.60646
3.62781
3.65095
3.67548
3.70094
3.72677
3.75236
3.77703
3.80009
3.82081
3.83851
3.85253
3.86228
3.86728
3.86716
3.86166
3.85067
3.83419
3.81236
3.7854
3.75366
3.71752
3.67744
3.63388
3.58735
3.53831
3.48725
3.43461
3.38081
3.32621
3.27116
3.21597
3.1609
3.1062
3.05211
2.99894
2.94717
2.89759
2.85138
2.81001
2.77496
2.74716
2.7265
2.71163
2.70022
2.68956
2.67724
2.66139
2.64053
2.61313
2.57722
2.53062
2.47164
2.39992
2.31709
2.22677
2.13398
2.04407
1.9617
1.89006
1.83057
1.78306
1.74629
1.71816
1.69827
1.67603
4.0029
3.97678
3.95072
3.92476
3.89893
3.87326
3.8478
3.82258
3.79767
3.77313
3.74902
3.72542
3.7024
3.68007
3.6585
3.6378
3.61808
3.59944
3.582
3.56588
3.55119
3.53806
3.52661
3.51697
3.50925
3.50359
3.50008
3.49882
3.49991
3.5034
3.50932
3.51767
3.52842
3.54147
3.55668
3.57384
3.59269
3.61287
3.63398
3.65555
3.67705
3.6979
3.71747
3.73514
3.75028
3.76229
3.7706
3.77475
3.77434
3.76909
3.75882
3.7435
3.72318
3.69803
3.66831
3.63436
3.59657
3.55538
3.51123
3.46457
3.41586
3.36551
3.31394
3.2615
3.20854
3.15535
3.1022
3.04933
2.99697
2.94543
2.89512
2.8468
2.80158
2.76092
2.72635
2.69892
2.67869
2.66442
2.65381
2.64407
2.63265
2.61768
2.5978
2.57175
2.53796
2.4945
2.43973
2.37306
2.29568
2.2107
2.12263
2.0365
1.95685
1.88691
1.82832
1.78114
1.74439
1.71615
1.69611
1.67373
4.00269
3.97653
3.95041
3.92439
3.89846
3.87268
3.84707
3.82168
3.79654
3.77173
3.74728
3.72328
3.6998
3.67691
3.6547
3.63326
3.6127
3.59311
3.5746
3.55729
3.54129
3.52671
3.51369
3.50232
3.49273
3.48503
3.47932
3.47569
3.47422
3.47497
3.47795
3.48318
3.4906
3.50015
3.51169
3.52505
3.53998
3.5562
3.57335
3.59103
3.60878
3.62611
3.64246
3.65729
3.67002
3.6801
3.687
3.69027
3.68949
3.68436
3.67466
3.6603
3.64128
3.61771
3.58979
3.55781
3.5221
3.48306
3.4411
3.39664
3.35012
3.30193
3.25246
3.20207
3.15109
3.09982
3.04851
2.9974
2.94672
2.89674
2.84787
2.80077
2.75653
2.71658
2.68249