/*--------------------------------*- C++ -*----------------------------------*\
| =========                 |                                                 |
| \\      /  F ield         | OpenFOAM: The Open Source CFD Toolbox           |
|  \\    /   O peration     | Version:  2.1.1                                 |
|   \\  /    A nd           | Web:      www.OpenFOAM.org                      |
|    \\/     M anipulation  |                                                 |
\*---------------------------------------------------------------------------*/
FoamFile
{
    version     2.0;
    format      ascii;
    class       volScalarField;
    location    "0.06";
    object      k;
}
// * * * * * * * * * * * * * * * * * * * * * * * * * * * * * * * * * * * * * //

dimensions      [0 2 -2 0 0 0 0];

internalField   nonuniform List<scalar> 
6820
(
0.28891
0.351398
0.415005
0.477465
0.536856
0.591547
0.64035
0.682588
0.718057
0.746925
0.769637
0.786809
0.799139
0.807344
0.812116
0.814085
0.813815
0.811788
0.808415
0.804034
0.798923
0.793302
0.787348
0.781195
0.774947
0.768678
0.762437
0.756269
0.750123
0.744301
0.737316
0.736156
0.706825
0.265533
0.269397
0.270524
0.271343
0.272564
0.274226
0.276245
0.278508
0.280905
0.28335
0.285789
0.288191
0.290548
0.292866
0.295161
0.297453
0.299764
0.302116
0.304526
0.307013
0.309588
0.312265
0.315053
0.31796
0.320998
0.324177
0.327516
0.331038
0.334782
0.338832
0.343242
0.348545
0.354197
0.262037
0.264253
0.263594
0.261555
0.258998
0.256316
0.253624
0.250935
0.248237
0.245521
0.242791
0.240058
0.237342
0.234664
0.232048
0.229515
0.227084
0.22477
0.222587
0.220545
0.218651
0.216909
0.215323
0.213894
0.212622
0.211507
0.21055
0.209752
0.209114
0.208649
0.208357
0.20828
0.208417
0.259885
0.260273
0.259798
0.258536
0.256829
0.254891
0.252832
0.250708
0.248544
0.246354
0.244146
0.241927
0.239704
0.237482
0.23527
0.233076
0.230906
0.228767
0.226666
0.224608
0.222598
0.220641
0.218738
0.216893
0.215107
0.213381
0.211715
0.210109
0.208562
0.207073
0.205638
0.20426
0.202925
0.259299
0.258404
0.2576
0.256567
0.255295
0.25385
0.252291
0.25066
0.248982
0.247274
0.245547
0.243809
0.242067
0.240325
0.238588
0.236861
0.235146
0.233447
0.231767
0.23011
0.228476
0.226869
0.22529
0.22374
0.222221
0.220733
0.219276
0.217851
0.216457
0.215093
0.213758
0.212451
0.21117
0.259225
0.257848
0.256623
0.255437
0.254228
0.25297
0.251663
0.250312
0.248928
0.24752
0.246097
0.244666
0.243231
0.241797
0.240367
0.238945
0.237532
0.236132
0.234746
0.233375
0.232022
0.230687
0.229372
0.228077
0.226803
0.22555
0.224319
0.223109
0.221921
0.220754
0.219608
0.218484
0.217379
0.259217
0.257715
0.256309
0.25498
0.253698
0.252442
0.251195
0.24995
0.248703
0.247453
0.246202
0.244951
0.243704
0.242462
0.241228
0.240002
0.238787
0.237583
0.236393
0.235217
0.234055
0.23291
0.23178
0.230667
0.229571
0.228493
0.227432
0.226389
0.225363
0.224355
0.223365
0.222392
0.221438
0.259218
0.25769
0.256225
0.254822
0.253477
0.252181
0.250923
0.249695
0.24849
0.247304
0.246134
0.244978
0.243835
0.242705
0.241588
0.240484
0.239394
0.238318
0.237256
0.236209
0.235177
0.234161
0.23316
0.232174
0.231205
0.230251
0.229313
0.228391
0.227486
0.226596
0.225723
0.224867
0.224028
0.259218
0.257687
0.256207
0.25478
0.253405
0.252079
0.250799
0.249559
0.248355
0.247183
0.24604
0.244921
0.243826
0.242752
0.241698
0.240663
0.239647
0.238648
0.237666
0.236701
0.235754
0.234822
0.233908
0.233009
0.232126
0.231259
0.230409
0.229573
0.228754
0.227951
0.227164
0.226393
0.225638
0.259218
0.257686
0.256203
0.254769
0.253384
0.252045
0.250751
0.249499
0.248287
0.247113
0.245972
0.244864
0.243784
0.242733
0.241707
0.240705
0.239726
0.238769
0.237832
0.236916
0.236018
0.235139
0.234279
0.233436
0.23261
0.231801
0.231009
0.230233
0.229473
0.22873
0.228003
0.227292
0.226599
0.259218
0.257686
0.256202
0.254767
0.253378
0.252034
0.250734
0.249476
0.248258
0.247079
0.245935
0.244826
0.24375
0.242704
0.241688
0.240698
0.239735
0.238797
0.237883
0.236991
0.23612
0.23527
0.234441
0.23363
0.232839
0.232065
0.23131
0.230571
0.22985
0.229146
0.228459
0.22779
0.227138
0.259218
0.257685
0.256202
0.254766
0.253376
0.252031
0.250729
0.249468
0.248247
0.247064
0.245918
0.244807
0.24373
0.242684
0.241669
0.240683
0.239725
0.238794
0.237888
0.237007
0.236149
0.235313
0.234499
0.233706
0.232932
0.232179
0.231444
0.230728
0.230029
0.229349
0.228687
0.228043
0.227416
0.259218
0.257685
0.256201
0.254765
0.253375
0.252029
0.250727
0.249465
0.248243
0.247058
0.245911
0.244798
0.243719
0.242673
0.241657
0.240671
0.239714
0.238785
0.237882
0.237004
0.236151
0.235321
0.234513
0.233728
0.232963
0.232219
0.231495
0.23079
0.230104
0.229437
0.228789
0.228158
0.227547
0.259218
0.257685
0.256201
0.254764
0.253374
0.252028
0.250725
0.249463
0.24824
0.247055
0.245907
0.244793
0.243714
0.242666
0.24165
0.240664
0.239707
0.238777
0.237875
0.236998
0.236146
0.235318
0.234513
0.23373
0.232969
0.23223
0.23151
0.230811
0.230131
0.22947
0.228828
0.228205
0.227601
0.259218
0.257685
0.256201
0.254764
0.253374
0.252028
0.250724
0.249462
0.248238
0.247053
0.245904
0.24479
0.24371
0.242662
0.241646
0.240659
0.239702
0.238772
0.237869
0.236992
0.236141
0.235313
0.234509
0.233727
0.232968
0.23223
0.231512
0.230815
0.230138
0.22948
0.228841
0.228221
0.22762
0.259218
0.257685
0.2562
0.254764
0.253373
0.252027
0.250723
0.24946
0.248237
0.247051
0.245902
0.244788
0.243708
0.24266
0.241643
0.240656
0.239698
0.238768
0.237865
0.236988
0.236136
0.235309
0.234505
0.233724
0.232965
0.232227
0.23151
0.230814
0.230138
0.229481
0.228844
0.228225
0.227625
0.259218
0.257685
0.2562
0.254763
0.253373
0.252026
0.250722
0.249459
0.248236
0.24705
0.245901
0.244786
0.243705
0.242657
0.24164
0.240653
0.239695
0.238765
0.237862
0.236985
0.236133
0.235306
0.234502
0.233721
0.232962
0.232224
0.231508
0.230812
0.230136
0.22948
0.228843
0.228225
0.227625
0.259218
0.257685
0.2562
0.254763
0.253372
0.252026
0.250722
0.249458
0.248235
0.247049
0.245899
0.244785
0.243704
0.242655
0.241638
0.240651
0.239692
0.238762
0.237859
0.236982
0.23613
0.235303
0.234499
0.233718
0.232959
0.232222
0.231506
0.23081
0.230134
0.229478
0.228841
0.228223
0.227623
0.259218
0.257684
0.2562
0.254763
0.253372
0.252025
0.250721
0.249458
0.248234
0.247048
0.245898
0.244783
0.243702
0.242653
0.241636
0.240648
0.23969
0.23876
0.237857
0.23698
0.236128
0.2353
0.234496
0.233715
0.232957
0.23222
0.231503
0.230808
0.230132
0.229476
0.228839
0.22822
0.22762
0.259218
0.257684
0.2562
0.254763
0.253372
0.252025
0.25072
0.249457
0.248233
0.247047
0.245897
0.244782
0.2437
0.242652
0.241634
0.240647
0.239688
0.238758
0.237854
0.236977
0.236125
0.235298
0.234494
0.233713
0.232954
0.232217
0.231501
0.230805
0.230129
0.229473
0.228836
0.228217
0.227617
0.259218
0.257684
0.2562
0.254762
0.253371
0.252024
0.25072
0.249456
0.248232
0.247046
0.245896
0.24478
0.243699
0.24265
0.241632
0.240645
0.239686
0.238756
0.237852
0.236975
0.236123
0.235295
0.234491
0.23371
0.232952
0.232215
0.231498
0.230803
0.230127
0.22947
0.228833
0.228213
0.227613
0.259218
0.257684
0.256199
0.254762
0.253371
0.252024
0.25072
0.249456
0.248231
0.247045
0.245895
0.244779
0.243698
0.242649
0.241631
0.240643
0.239684
0.238754
0.23785
0.236973
0.236121
0.235293
0.234489
0.233708
0.232949
0.232212
0.231496
0.2308
0.230123
0.229467
0.228829
0.228209
0.227607
0.259218
0.257684
0.256199
0.254762
0.253371
0.252024
0.250719
0.249455
0.248231
0.247044
0.245894
0.244778
0.243697
0.242648
0.24163
0.240642
0.239683
0.238752
0.237848
0.236971
0.236119
0.235291
0.234487
0.233706
0.232947
0.232209
0.231493
0.230796
0.23012
0.229463
0.228824
0.228204
0.227602
0.259218
0.257684
0.256199
0.254762
0.253371
0.252023
0.250719
0.249455
0.24823
0.247044
0.245893
0.244778
0.243696
0.242646
0.241628
0.24064
0.239681
0.238751
0.237847
0.236969
0.236117
0.235289
0.234484
0.233703
0.232944
0.232206
0.231489
0.230793
0.230116
0.229458
0.228819
0.228199
0.227595
0.259218
0.257684
0.256199
0.254762
0.253371
0.252023
0.250719
0.249455
0.24823
0.247043
0.245892
0.244777
0.243695
0.242645
0.241627
0.240639
0.23968
0.238749
0.237845
0.236967
0.236115
0.235287
0.234482
0.2337
0.232941
0.232203
0.231486
0.230789
0.230112
0.229454
0.228814
0.228193
0.227589
0.259218
0.257684
0.256199
0.254762
0.25337
0.252023
0.250718
0.249454
0.24823
0.247043
0.245892
0.244776
0.243694
0.242645
0.241626
0.240638
0.239679
0.238748
0.237844
0.236966
0.236113
0.235285
0.23448
0.233698
0.232938
0.2322
0.231482
0.230785
0.230107
0.229449
0.228808
0.228186
0.227581
0.259218
0.257684
0.256199
0.254762
0.25337
0.252023
0.250718
0.249454
0.248229
0.247042
0.245891
0.244776
0.243693
0.242644
0.241625
0.240637
0.239678
0.238746
0.237842
0.236964
0.236111
0.235282
0.234477
0.233695
0.232935
0.232197
0.231479
0.230781
0.230103
0.229443
0.228802
0.228179
0.227574
0.259218
0.257684
0.256199
0.254762
0.25337
0.252023
0.250718
0.249454
0.248229
0.247042
0.245891
0.244775
0.243693
0.242643
0.241625
0.240636
0.239677
0.238745
0.237841
0.236963
0.236109
0.235281
0.234475
0.233693
0.232933
0.232194
0.231475
0.230777
0.230098
0.229438
0.228797
0.228173
0.227566
0.259218
0.257684
0.256199
0.254762
0.25337
0.252023
0.250718
0.249454
0.248229
0.247042
0.245891
0.244775
0.243692
0.242643
0.241624
0.240635
0.239676
0.238744
0.23784
0.236961
0.236108
0.235279
0.234473
0.233691
0.23293
0.23219
0.231472
0.230773
0.230093
0.229433
0.228791
0.228166
0.227559
0.259218
0.257684
0.256199
0.254762
0.25337
0.252023
0.250718
0.249454
0.248229
0.247042
0.245891
0.244775
0.243693
0.242643
0.241624
0.240636
0.239676
0.238744
0.23784
0.236961
0.236107
0.235278
0.234472
0.233689
0.232928
0.232188
0.231469
0.23077
0.23009
0.229429
0.228786
0.22816
0.227552
0.259218
0.257684
0.256199
0.254762
0.25337
0.252023
0.250718
0.249454
0.248229
0.247042
0.245891
0.244775
0.243692
0.242642
0.241624
0.240635
0.239675
0.238744
0.237839
0.23696
0.236106
0.235277
0.234471
0.233688
0.232926
0.232186
0.231466
0.230767
0.230086
0.229425
0.228781
0.228155
0.227546
0.259218
0.257684
0.256199
0.254762
0.253371
0.252024
0.25072
0.249456
0.248232
0.247045
0.245894
0.244779
0.243696
0.242646
0.241628
0.240639
0.239679
0.238747
0.237842
0.236963
0.236109
0.235279
0.234473
0.23369
0.232928
0.232187
0.231467
0.230767
0.230085
0.229423
0.228778
0.228151
0.227541
0.259218
0.257685
0.2562
0.254763
0.253372
0.252026
0.250721
0.249457
0.248233
0.247046
0.245895
0.24478
0.243698
0.242648
0.24163
0.240641
0.239682
0.23875
0.237845
0.236966
0.236112
0.235282
0.234475
0.233691
0.232929
0.232188
0.231467
0.230765
0.230083
0.22942
0.228774
0.228145
0.227534
0.259218
0.257685
0.256201
0.254766
0.253378
0.252034
0.250731
0.24947
0.248247
0.247061
0.245911
0.244796
0.243714
0.242664
0.241646
0.240657
0.239696
0.238764
0.237857
0.236977
0.236122
0.23529
0.234482
0.233695
0.232931
0.232187
0.231463
0.230759
0.230073
0.229406
0.228757
0.228124
0.227508
0.259219
0.257689
0.256209
0.254777
0.253389
0.252045
0.250743
0.249482
0.248259
0.247074
0.245924
0.244809
0.243727
0.242677
0.241657
0.240666
0.239703
0.238767
0.237858
0.236973
0.236112
0.235275
0.23446
0.233667
0.232895
0.232143
0.231411
0.230698
0.230002
0.229325
0.228665
0.228022
0.227395
0.25922
0.257694
0.256221
0.254799
0.253423
0.25209
0.250796
0.249539
0.248318
0.247132
0.245979
0.244858
0.243768
0.242708
0.241676
0.240672
0.239694
0.238742
0.237814
0.23691
0.23603
0.235171
0.234335
0.233519
0.232723
0.231947
0.23119
0.230451
0.22973
0.229027
0.22834
0.22767
0.227015
0.259229
0.257738
0.256292
0.254881
0.253508
0.252171
0.25087
0.249603
0.248367
0.247162
0.245986
0.244838
0.243717
0.242623
0.241554
0.240511
0.239492
0.238497
0.237526
0.236577
0.23565
0.234745
0.233861
0.232997
0.232153
0.231329
0.230523
0.229735
0.228965
0.228213
0.227477
0.226758
0.226054
0.259265
0.257822
0.256453
0.255125
0.253805
0.252484
0.251166
0.249857
0.248564
0.247294
0.246049
0.244832
0.243644
0.242485
0.241354
0.240253
0.239178
0.238131
0.237109
0.236112
0.235139
0.23419
0.233263
0.232358
0.231474
0.23061
0.229767
0.228943
0.228137
0.227351
0.226582
0.22583
0.225096
0.259599
0.258632
0.257577
0.256541
0.255586
0.254712
0.253903
0.253148
0.25244
0.251777
0.251158
0.250582
0.250048
0.249556
0.249105
0.248694
0.248321
0.247985
0.247685
0.24742
0.247187
0.246986
0.246815
0.246674
0.246561
0.246476
0.246418
0.246386
0.246379
0.246397
0.24644
0.246506
0.246596
0.266719
0.280569
0.294241
0.307622
0.320667
0.333362
0.345693
0.35765
0.369226
0.380415
0.391216
0.401626
0.411647
0.421282
0.430536
0.439415
0.447925
0.456076
0.463874
0.471331
0.478455
0.485257
0.491748
0.497937
0.503836
0.509455
0.514805
0.519896
0.524738
0.529341
0.533716
0.537869
0.541817
0.83182
1.02215
1.26175
1.54777
1.85409
2.13664
2.35075
2.47903
2.53793
2.55916
2.56837
2.57728
2.58811
2.60065
2.6156
2.63456
2.65884
2.68895
2.72412
2.76213
2.80013
2.8346
2.86135
2.87548
2.8714
2.84292
2.78334
2.68566
2.54294
2.34909
2.10037
1.79821
1.4539
1.0943
0.764253
0.514787
0.373404
0.322236
0.319599
0.335685
0.357304
0.379144
0.398858
0.415334
0.428142
0.437306
0.44315
0.446165
0.446897
0.445872
0.443558
0.440351
0.436572
0.432476
0.428262
0.424089
0.420077
0.416325
0.412906
0.409877
0.407278
0.405132
0.403448
0.402216
0.401412
0.400993
0.400893
0.401019
0.401245
0.401409
0.40131
0.400723
0.399405
0.397113
0.39362
0.388725
0.382252
0.374059
0.364034
0.352109
0.338282
0.322643
0.305413
0.286967
0.267838
0.248687
0.230238
0.213186
0.198096
0.185314
0.17494
0.16684
0.160714
0.156185
0.152875
0.150461
0.148695
0.147393
0.146482
0.145527
0.365435
0.384936
0.419065
0.479503
0.581388
0.739338
0.959806
1.23236
1.5274
1.80483
2.03074
2.19112
2.29274
2.35348
2.39144
2.41905
2.44266
2.46453
2.48446
2.50141
2.51371
2.51886
2.51334
2.49261
2.45134
2.38373
2.28385
2.1462
1.96663
1.74383
1.48178
1.19308
0.902034
0.643724
0.453316
0.346005
0.305878
0.302903
0.315637
0.334074
0.353852
0.372785
0.389615
0.403629
0.41453
0.422344
0.427329
0.429875
0.430427
0.429418
0.427243
0.42424
0.420687
0.41681
0.412786
0.40876
0.404844
0.401128
0.397687
0.394577
0.391842
0.389514
0.38761
0.386136
0.385084
0.38443
0.38413
0.384114
0.38428
0.384487
0.384553
0.384261
0.383374
0.381646
0.378843
0.374751
0.369186
0.361993
0.35305
0.342275
0.32965
0.315241
0.299242
0.281991
0.263983
0.24584
0.228258
0.211911
0.197359
0.184962
0.174841
0.166893
0.160849
0.156357
0.153059
0.150646
0.148876
0.147566
0.146647
0.145677
0.20856
0.209112
0.210772
0.21469
0.223384
0.24184
0.278117
0.342855
0.447172
0.597759
0.791321
1.01344
1.24228
1.45516
1.63515
1.77463
1.87516
1.9407
1.97878
1.99724
2.00048
1.98926
1.96188
1.91532
1.84602
1.75051
1.62598
1.47128
1.28815
1.08303
0.868684
0.664613
0.493968
0.375193
0.311356
0.288614
0.288621
0.299274
0.314702
0.331961
0.349293
0.365517
0.379827
0.391732
0.401016
0.407696
0.411971
0.414149
0.414584
0.413633
0.411625
0.408846
0.405537
0.401897
0.398084
0.394228
0.390433
0.386783
0.383348
0.380185
0.377341
0.37485
0.372739
0.371025
0.369712
0.368795
0.368251
0.368034
0.368067
0.368233
0.368373
0.368286
0.367745
0.366504
0.364325
0.360985
0.356289
0.350071
0.342197
0.332572
0.321158
0.307997
0.293249
0.277213
0.260339
0.243212
0.226491
0.210834
0.196797
0.184754
0.174855
0.167029
0.16104
0.156565
0.153265
0.150841
0.149058
0.147734
0.146804
0.145812
0.201436
0.19982
0.198205
0.196489
0.194647
0.192926
0.192354
0.19518
0.204235
0.222816
0.255471
0.30783
0.383911
0.48316
0.599978
0.725347
0.848722
0.962292
1.05773
1.12846
1.17157
1.1871
1.17643
1.14116
1.08268
1.00254
0.90316
0.788838
0.666535
0.546154
0.439523
0.357405
0.305043
0.279498
0.272484
0.276158
0.285768
0.298752
0.313494
0.328802
0.343734
0.357548
0.369693
0.37981
0.38773
0.393462
0.397153
0.39904
0.399406
0.39854
0.396714
0.39417
0.391116
0.387724
0.384137
0.380469
0.376818
0.37326
0.369863
0.36668
0.363757
0.361134
0.358841
0.356902
0.355333
0.354144
0.353329
0.352867
0.352706
0.352756
0.352885
0.352913
0.352625
0.351785
0.350151
0.347495
0.343612
0.338325
0.331488
0.322992
0.312779
0.300864
0.287371
0.272557
0.256827
0.240719
0.22486
0.209885
0.19635
0.184644
0.174946
0.167221
0.161271
0.156798
0.153484
0.151042
0.14924
0.147898
0.146953
0.145937
0.209704
0.208036
0.206349
0.204627
0.20282
0.200845
0.198647
0.196396
0.194582
0.19412
0.196132
0.201208
0.209962
0.223522
0.243044
0.268984
0.300313
0.335324
0.372632
0.409086
0.440728
0.463736
0.475217
0.473686
0.459261
0.433646
0.400001
0.362658
0.326554
0.296252
0.274719
0.262537
0.258291
0.259905
0.265705
0.274564
0.28561
0.29808
0.311274
0.324542
0.337299
0.349037
0.359355
0.367976
0.374763
0.379711
0.382926
0.384589
0.384923
0.384159
0.382523
0.380217
0.377419
0.37428
0.370926
0.36746
0.36397
0.360528
0.357196
0.354024
0.351059
0.348338
0.345895
0.343758
0.341953
0.340497
0.339404
0.338671
0.338272
0.338145
0.338186
0.338242
0.338117
0.337587
0.336412
0.334363
0.331224
0.326811
0.320964
0.313561
0.304523
0.293838
0.281592
0.267997
0.25341
0.238323
0.223324
0.209027
0.195984
0.184603
0.175092
0.167455
0.161529
0.157047
0.153712
0.151245
0.14942
0.148057
0.147094
0.146051
0.216113
0.214668
0.213208
0.211734
0.21024
0.208713
0.207126
0.205442
0.203652
0.201883
0.200561
0.200089
0.200607
0.202214
0.205047
0.209241
0.214916
0.221738
0.228846
0.235892
0.242475
0.248068
0.252124
0.254237
0.254302
0.252604
0.249797
0.246759
0.244375
0.243334
0.244031
0.246621
0.25112
0.257445
0.265425
0.274802
0.285257
0.296425
0.307907
0.319287
0.330157
0.340146
0.348945
0.356332
0.362189
0.366498
0.369332
0.370828
0.371157
0.370506
0.36906
0.366989
0.364444
0.361556
0.358436
0.355179
0.351863
0.348555
0.345311
0.34218
0.339205
0.336422
0.333866
0.331567
0.329554
0.327854
0.326491
0.325479
0.324814
0.324464
0.324354
0.324361
0.324314
0.324003
0.323198
0.321669
0.319198
0.315588
0.310672
0.304311
0.296407
0.28692
0.275899
0.26351
0.250058
0.235987
0.221845
0.208224
0.195669
0.184606
0.175274
0.167716
0.161805
0.157306
0.153942
0.151445
0.149594
0.148208
0.147226
0.146155
0.220345
0.219098
0.217843
0.216591
0.215348
0.214122
0.212912
0.211711
0.210504
0.209283
0.208099
0.207077
0.20637
0.206127
0.206446
0.207344
0.208832
0.210752
0.212878
0.215087
0.217296
0.21944
0.22147
0.223364
0.225143
0.22688
0.228704
0.230783
0.233308
0.236467
0.240425
0.245307
0.251185
0.258068
0.265901
0.274562
0.283874
0.293606
0.303488
0.313222
0.322502
0.331042
0.338593
0.344971
0.35007
0.353864
0.356398
0.357771
0.358119
0.357588
0.356329
0.354484
0.352183
0.349539
0.346652
0.343605
0.34047
0.337308
0.334172
0.331106
0.328151
0.325341
0.322709
0.320287
0.318104
0.316192
0.31458
0.313298
0.31236
0.311759
0.311451
0.311344
0.311295
0.311117
0.310593
0.309495
0.307605
0.304719
0.30066
0.295277
0.288451
0.280118
0.270286
0.259076
0.246743
0.233678
0.22039
0.207441
0.195375
0.184628
0.175472
0.167987
0.162087
0.157566
0.154169
0.151639
0.14976
0.148349
0.147348
0.146248
0.223069
0.221978
0.220884
0.219798
0.218728
0.217687
0.216687
0.215734
0.214832
0.213981
0.213184
0.212464
0.211865
0.211445
0.211267
0.211379
0.211815
0.212546
0.21352
0.214685
0.216005
0.21746
0.21905
0.220786
0.222697
0.22483
0.227245
0.230017
0.233229
0.236969
0.241315
0.246328
0.252043
0.258461
0.265544
0.273208
0.281327
0.289732
0.298223
0.306571
0.314536
0.321886
0.328417
0.333974
0.338459
0.341838
0.344138
0.345428
0.345809
0.3454
0.344322
0.342694
0.340626
0.338218
0.335556
0.332716
0.329765
0.326757
0.323741
0.32076
0.31785
0.315044
0.312373
0.309867
0.307554
0.305467
0.303641
0.302112
0.30091
0.300049
0.299513
0.299243
0.299126
0.299002
0.298671
0.297914
0.296514
0.294264
0.29098
0.286497
0.280682
0.273442
0.264751
0.254684
0.243443
0.231369
0.218926
0.20665
0.195073
0.184645
0.175666
0.168256
0.162364
0.157819
0.154386
0.151822
0.149913
0.148477
0.147456
0.146329
0.224779
0.223805
0.222832
0.221869
0.220928
0.22002
0.219157
0.21835
0.217609
0.216941
0.21635
0.215845
0.215435
0.215143
0.214997
0.215023
0.215245
0.215671
0.2163
0.217123
0.218134
0.219331
0.22072
0.222315
0.224142
0.226232
0.228627
0.231374
0.234524
0.238127
0.242229
0.246864
0.252052
0.257786
0.264032
0.270727
0.277771
0.285035
0.292359
0.299561
0.306445
0.312823
0.318523
0.323411
0.327398
0.330445
0.332562
0.333796
0.334222
0.333933
0.333028
0.331604
0.329757
0.327572
0.325126
0.322489
0.31972
0.316869
0.313984
0.311101
0.308257
0.305481
0.302803
0.300248
0.297846
0.295627
0.293626
0.291884
0.29044
0.289327
0.288552
0.288086
0.28785
0.287712
0.287494
0.286991
0.28599
0.284284
0.281682
0.278014
0.273128
0.266909
0.259298
0.250326
0.240142
0.229038
0.21743
0.205823
0.194739
0.184637
0.175841
0.168509
0.162628
0.158058
0.154589
0.151989
0.150049
0.148589
0.147549
0.146396
0.225811
0.224921
0.224034
0.223159
0.222307
0.221487
0.220712
0.219994
0.219343
0.218768
0.218277
0.217876
0.217573
0.217374
0.217292
0.217342
0.21754
0.217897
0.218422
0.219121
0.219999
0.221062
0.222319
0.223787
0.225484
0.227436
0.229674
0.23223
0.235142
0.238443
0.242166
0.246331
0.25095
0.256014
0.261495
0.267341
0.27347
0.279779
0.286137
0.292396
0.298395
0.303976
0.308997
0.313338
0.316919
0.319697
0.32167
0.322868
0.323344
0.323171
0.322427
0.321195
0.319554
0.31758
0.31534
0.312898
0.310306
0.307614
0.304863
0.30209
0.299326
0.296602
0.293942
0.291372
0.288917
0.286606
0.284473
0.282558
0.280906
0.279561
0.278553
0.277878
0.277488
0.277282
0.277107
0.276777
0.276085
0.27483
0.272816
0.269867
0.265821
0.260541
0.253938
0.246001
0.236832
0.226668
0.21588
0.20494
0.194353
0.184584
0.175981
0.168734
0.162868
0.158277
0.154772
0.152136
0.150166
0.148681
0.147624
0.146447
0.226398
0.225565
0.224737
0.223922
0.223128
0.222366
0.221645
0.220977
0.220373
0.219842
0.219393
0.219032
0.218766
0.2186
0.218542
0.218599
0.218782
0.2191
0.219564
0.220184
0.220967
0.221923
0.223064
0.224404
0.225958
0.227748
0.229797
0.23213
0.234775
0.237757
0.241099
0.244817
0.248916
0.253388
0.258209
0.263333
0.268697
0.274211
0.27977
0.285251
0.290521
0.295447
0.299907
0.303798
0.307044
0.309601
0.311458
0.312631
0.313158
0.313092
0.312498
0.311442
0.309993
0.308216
0.306171
0.303914
0.301495
0.298959
0.296345
0.293686
0.291015
0.288357
0.285738
0.283179
0.280704
0.278339
0.276113
0.274067
0.272247
0.270703
0.269479
0.268596
0.268035
0.267723
0.267536
0.267307
0.266843
0.265946
0.264424
0.262097
0.258793
0.254361
0.248685
0.241716
0.233509
0.22425
0.214263
0.203984
0.193899
0.184472
0.176073
0.168921
0.163078
0.15847
0.154931
0.15226
0.150261
0.148752
0.147678
0.146479
0.226708
0.225911
0.22512
0.224342
0.223584
0.222854
0.222163
0.221519
0.220933
0.220415
0.219972
0.219613
0.219343
0.219169
0.219096
0.219131
0.219279
0.219549
0.21995
0.220489
0.221178
0.222027
0.223046
0.224249
0.225652
0.22727
0.229122
0.23123
0.233613
0.236292
0.239283
0.242598
0.246239
0.250198
0.254454
0.258969
0.263688
0.268538
0.273432
0.278266
0.28293
0.287311
0.291303
0.294817
0.297782
0.300154
0.301914
0.303068
0.303641
0.303674
0.303215
0.302321
0.301048
0.299453
0.29759
0.295509
0.293256
0.290872
0.288393
0.285854
0.283281
0.280702
0.278139
0.275613
0.273144
0.270756
0.268476
0.266339
0.264391
0.262685
0.261275
0.260199
0.259463
0.259024
0.258784
0.258597
0.258288
0.257666
0.256543
0.254738
0.252076
0.248396
0.243558
0.237481
0.230175
0.22178
0.21257
0.202943
0.193362
0.184289
0.176106
0.169062
0.163252
0.158632
0.155063
0.152359
0.15033
0.148799
0.147708
0.14649
0.226856
0.22608
0.22531
0.224553
0.223813
0.2231
0.22242
0.221782
0.221196
0.22067
0.220213
0.219832
0.219534
0.219325
0.219212
0.219199
0.219292
0.219498
0.219824
0.220278
0.220868
0.221604
0.222498
0.223562
0.224808
0.226252
0.227909
0.229796
0.23193
0.234326
0.236996
0.239949
0.243186
0.246698
0.250467
0.254461
0.258633
0.262922
0.267255
0.271545
0.275698
0.279619
0.283216
0.286409
0.289133
0.291344
0.293019
0.294156
0.294769
0.294888
0.29455
0.293802
0.29269
0.291263
0.289569
0.287654
0.285558
0.28332
0.280976
0.278555
0.276086
0.273593
0.271098
0.26862
0.266179
0.263795
0.261491
0.259299
0.257263
0.255434
0.253871
0.252627
0.251726
0.251152
0.250833
0.250645
0.25043
0.250007
0.249196
0.247818
0.2457
0.242671
0.238578
0.233311
0.226841
0.219261
0.210799
0.201811
0.192736
0.184026
0.176073
0.169151
0.163384
0.15876
0.155166
0.15243
0.150374
0.148821
0.147714
0.14648
0.226919
0.226153
0.225394
0.224646
0.223914
0.223205
0.222525
0.221882
0.221284
0.22074
0.220256
0.219841
0.219501
0.219243
0.219073
0.218996
0.21902
0.219148
0.219389
0.219748
0.220234
0.220856
0.221623
0.222546
0.223638
0.22491
0.226378
0.228053
0.229951
0.232084
0.23446
0.237087
0.239963
0.243083
0.246427
0.24997
0.253672
0.257482
0.261335
0.265161
0.268878
0.272404
0.275661
0.278575
0.281087
0.283155
0.284752
0.285869
0.286514
0.286707
0.286475
0.285856
0.284889
0.283616
0.282079
0.280317
0.27837
0.276273
0.274058
0.271756
0.269391
0.266989
0.26457
0.262152
0.259754
0.257394
0.255092
0.252877
0.250786
0.248871
0.247192
0.245808
0.244762
0.244057
0.243646
0.243428
0.24326
0.242974
0.242398
0.24136
0.239688
0.237212
0.233769
0.229226
0.223521
0.216702
0.208953
0.200588
0.192016
0.183677
0.175969
0.169182
0.163471
0.158853
0.155238
0.152474
0.150392
0.148817
0.147696
0.146446
0.226942
0.226181
0.225426
0.22468
0.223949
0.223237
0.222551
0.221897
0.221281
0.220712
0.220197
0.219741
0.219354
0.21904
0.218807
0.21866
0.218605
0.218649
0.218797
0.219056
0.219434
0.219938
0.220577
0.221361
0.222301
0.223407
0.224692
0.226167
0.227843
0.229731
0.231838
0.234169
0.236723
0.239493
0.242464
0.245613
0.248906
0.252298
0.255737
0.25916
0.262498
0.265681
0.268638
0.271305
0.273627
0.275563
0.277084
0.278179
0.278846
0.2791
0.278959
0.278454
0.277617
0.276483
0.275089
0.273471
0.271663
0.269699
0.26761
0.265422
0.263162
0.260853
0.258514
0.256165
0.253821
0.2515
0.24922
0.247005
0.244889
0.24292
0.241158
0.239667
0.238499
0.237676
0.237172
0.236906
0.236752
0.236554
0.236149
0.235372
0.234059
0.232042
0.229153
0.225246
0.220231
0.214116
0.20704
0.199277
0.191203
0.183242
0.17579
0.169154
0.163512
0.158909
0.155281
0.152492
0.150384
0.148789
0.147654
0.14639
0.226949
0.226188
0.225434
0.224687
0.223953
0.223236
0.22254
0.221872
0.221237
0.220642
0.220093
0.219598
0.219162
0.218792
0.218495
0.218276
0.218142
0.218099
0.218153
0.21831
0.218578
0.218964
0.219477
0.220124
0.220916
0.221861
0.222971
0.224256
0.225725
0.227386
0.229246
0.231307
0.23357
0.236028
0.238666
0.241466
0.244398
0.247424
0.250498
0.253566
0.25657
0.259448
0.262137
0.264581
0.266729
0.26854
0.269987
0.271054
0.271734
0.272036
0.271973
0.271567
0.270844
0.269836
0.268572
0.267086
0.265408
0.26357
0.261599
0.259523
0.257366
0.25515
0.252894
0.250618
0.248336
0.246064
0.24382
0.241624
0.239506
0.237511
0.235696
0.234125
0.232862
0.231939
0.231349
0.231029
0.230868
0.230723
0.230437
0.229855
0.228821
0.227176
0.224753
0.221396
0.216993
0.21152
0.205074
0.197888
0.190303
0.182723
0.175538
0.169066
0.163506
0.158929
0.155294
0.152484
0.150353
0.148738
0.147589
0.146313
0.226949
0.226188
0.225432
0.224683
0.223945
0.223221
0.222515
0.221832
0.221178
0.220558
0.219978
0.219444
0.218962
0.21854
0.218182
0.217894
0.217684
0.217557
0.217519
0.217578
0.217739
0.21801
0.218399
0.218914
0.219563
0.220355
0.221299
0.222404
0.223678
0.225128
0.22676
0.228576
0.230574
0.232749
0.235089
0.237576
0.240186
0.242885
0.245634
0.248386
0.251091
0.253694
0.256141
0.25838
0.260364
0.262057
0.263429
0.264462
0.265146
0.265484
0.265485
0.265164
0.264542
0.263645
0.2625
0.261134
0.259577
0.257856
0.255999
0.254029
0.251972
0.249848
0.247676
0.245474
0.243259
0.241044
0.238845
0.236682
0.23458
0.23258
0.230736
0.229113
0.227777
0.226774
0.22611
0.225737
0.225559
0.225442
0.225238
0.224798
0.223978
0.222627
0.220585
0.217694
0.213828
0.208934
0.203071
0.196432
0.189324
0.182124
0.175215
0.16892
0.163455
0.158914
0.155279
0.152453
0.150301
0.148668
0.147505
0.146217
0.226946
0.226185
0.225427
0.224675
0.223932
0.223201
0.222485
0.221788
0.221116
0.220473
0.219865
0.219296
0.218774
0.218302
0.217889
0.217538
0.217257
0.217052
0.216929
0.216894
0.216954
0.217116
0.217388
0.217777
0.21829
0.218937
0.219724
0.220661
0.221753
0.223008
0.224428
0.226018
0.227774
0.229692
0.231761
0.233966
0.236285
0.23869
0.241146
0.243613
0.246046
0.248399
0.250623
0.252672
0.254503
0.256081
0.257377
0.258371
0.259051
0.259414
0.259466
0.259217
0.258683
0.257884
0.256845
0.25559
0.254143
0.252532
0.250781
0.248913
0.246951
0.244917
0.242828
0.240702
0.238555
0.236401
0.234255
0.232133
0.23006
0.228071
0.226217
0.224563
0.223177
0.222112
0.221387
0.220968
0.22077
0.220668
0.220519
0.220183
0.219522
0.218399
0.216664
0.214162
0.210759
0.206379
0.20105
0.194925
0.188276
0.181453
0.174825
0.168718
0.163361
0.158867
0.155239
0.152401
0.150231
0.14858
0.147404
0.146104
0.226943
0.22618
0.22542
0.224665
0.223917
0.223179
0.222454
0.221746
0.221058
0.220394
0.21976
0.219161
0.218601
0.218087
0.217623
0.217216
0.216871
0.216595
0.216393
0.216272
0.216239
0.2163
0.216462
0.216733
0.21712
0.217631
0.218272
0.219051
0.219974
0.221047
0.222273
0.223654
0.225188
0.226871
0.228693
0.230641
0.232696
0.234834
0.237023
0.23923
0.241416
0.243539
0.245557
0.247428
0.249114
0.25058
0.251799
0.252749
0.253416
0.253796
0.253887
0.253698
0.253239
0.252528
0.251583
0.250427
0.249082
0.247572
0.24592
0.244148
0.242278
0.240329
0.238322
0.236271
0.234193
0.232102
0.230012
0.227939
0.225903
0.223937
0.222088
0.22042
0.219001
0.217891
0.217118
0.216661
0.216445
0.216351
0.216242
0.21598
0.215438
0.214489
0.212997
0.210814
0.207805
0.203877
0.199031
0.193385
0.187173
0.180719
0.174376
0.168465
0.163226
0.158788
0.155177
0.152332
0.150146
0.148479
0.14729
0.145979
0.226938
0.226174
0.225412
0.224654
0.223902
0.223158
0.222425
0.221705
0.221003
0.220321
0.219665
0.219039
0.218447
0.217894
0.217386
0.216929
0.216527
0.216186
0.215914
0.215715
0.215597
0.215565
0.215627
0.215789
0.216059
0.216443
0.216949
0.217582
0.218349
0.219254
0.2203
0.221489
0.222819
0.224286
0.225882
0.227596
0.229409
0.231302
0.233248
0.235217
0.237175
0.239086
0.240912
0.242616
0.244163
0.245521
0.246662
0.247564
0.248213
0.248599
0.24872
0.248579
0.248185
0.247549
0.246689
0.245622
0.244369
0.242952
0.241391
0.239709
0.237926
0.23606
0.234131
0.232154
0.230145
0.228118