/*--------------------------------*- C++ -*----------------------------------*\
| =========                 |                                                 |
| \\      /  F ield         | OpenFOAM: The Open Source CFD Toolbox           |
|  \\    /   O peration     | Version:  2.1.1                                 |
|   \\  /    A nd           | Web:      www.OpenFOAM.org                      |
|    \\/     M anipulation  |                                                 |
\*---------------------------------------------------------------------------*/
FoamFile
{
    version     2.0;
    format      ascii;
    class       volScalarField;
    location    "0.06";
    object      nut;
}
// * * * * * * * * * * * * * * * * * * * * * * * * * * * * * * * * * * * * * //

dimensions      [0 2 -1 0 0 0 0];

internalField   nonuniform List<scalar> 
6820
(
4.96025e-05
5.47044e-05
5.94497e-05
6.37667e-05
6.76164e-05
7.0977e-05
7.38468e-05
7.62434e-05
7.81992e-05
7.97556e-05
8.09592e-05
8.18573e-05
8.24962e-05
8.29187e-05
8.31633e-05
8.32641e-05
8.32503e-05
8.31466e-05
8.29736e-05
8.27485e-05
8.24851e-05
8.21944e-05
8.18854e-05
8.15649e-05
8.12381e-05
8.09089e-05
8.05798e-05
8.02533e-05
7.99267e-05
7.9616e-05
7.92418e-05
7.91797e-05
7.75869e-05
0.000540297
0.000304961
0.00021994
0.000171532
0.00014049
0.000119624
0.000105097
9.47127e-05
8.7148e-05
8.15667e-05
7.74186e-05
7.43298e-05
7.20397e-05
7.03623e-05
6.91623e-05
6.83392e-05
6.78176e-05
6.75398e-05
6.74612e-05
6.75465e-05
6.77679e-05
6.81027e-05
6.85324e-05
6.90416e-05
6.96175e-05
7.0249e-05
7.09265e-05
7.1641e-05
7.23861e-05
7.31489e-05
7.39328e-05
7.47026e-05
7.54197e-05
0.00105857
0.000836096
0.000679253
0.000569632
0.000490075
0.00043014
0.000383727
0.000346881
0.000316979
0.000292261
0.00027151
0.000253865
0.000238698
0.000225541
0.000214039
0.000203915
0.000194953
0.000186977
0.000179848
0.000173449
0.000167687
0.00016248
0.000157761
0.000153474
0.000149569
0.000146003
0.000142738
0.000139743
0.000136984
0.000134443
0.000132058
0.000129917
0.000127553
0.00115953
0.00109653
0.00101168
0.000926437
0.00084984
0.000783661
0.00072712
0.000678806
0.000637304
0.00060139
0.000570061
0.000542514
0.000518108
0.000496333
0.000476783
0.000459129
0.000443104
0.00042849
0.000415108
0.000402807
0.000391461
0.000380963
0.000371222
0.000362161
0.000353713
0.00034582
0.000338435
0.000331516
0.000325032
0.000318958
0.00031328
0.000308009
0.000303139
0.00116966
0.00115863
0.00113363
0.00109757
0.0010557
0.00101221
0.000969682
0.000929426
0.000891986
0.000857487
0.000825837
0.000796846
0.000770287
0.000745927
0.000723543
0.000702933
0.000683913
0.000666318
0.000650003
0.00063484
0.000620715
0.000607527
0.000595187
0.000583615
0.00057274
0.000562498
0.000552834
0.000543696
0.000535038
0.000526823
0.000519019
0.000511599
0.000504561
0.00117006
0.00116839
0.00116306
0.00115261
0.00113713
0.00111767
0.00109553
0.0010719
0.0010477
0.00102357
0.000999958
0.00097713
0.000955242
0.000934374
0.000914551
0.000895766
0.000877991
0.000861183
0.000845293
0.000830269
0.000816056
0.0008026
0.00078985
0.000777754
0.000766264
0.000755332
0.000744915
0.000734967
0.000725449
0.00071632
0.000707541
0.000699079
0.000690901
0.00116996
0.00116938
0.00116821
0.00116569
0.00116123
0.00115458
0.00114583
0.00113527
0.00112326
0.00111021
0.00109645
0.00108228
0.00106794
0.00105362
0.00103945
0.00102553
0.00101194
0.000998719
0.000985907
0.000973517
0.000961558
0.000950027
0.000938917
0.000928216
0.000917909
0.000907977
0.000898401
0.000889157
0.000880222
0.000871571
0.00086318
0.000855023
0.000847075
0.00116994
0.0011694
0.00116883
0.00116803
0.00116674
0.00116472
0.0011618
0.0011579
0.00115303
0.00114727
0.00114072
0.0011335
0.00112577
0.00111762
0.00110919
0.00110056
0.00109183
0.00108305
0.00107429
0.00106559
0.00105699
0.00104851
0.00104018
0.00103201
0.001024
0.00101617
0.00100851
0.00100102
0.000993701
0.000986535
0.000979517
0.000972637
0.000965884
0.00116994
0.00116939
0.00116886
0.00116832
0.0011677
0.00116692
0.00116588
0.00116449
0.00116268
0.00116042
0.0011577
0.00115453
0.00115094
0.00114697
0.00114266
0.00113807
0.00113323
0.0011282
0.00112302
0.00111772
0.00111234
0.00110691
0.00110145
0.00109598
0.00109052
0.00108508
0.00107968
0.00107431
0.001069
0.00106374
0.00105852
0.00105336
0.00104825
0.00116994
0.00116938
0.00116885
0.00116833
0.00116782
0.00116729
0.00116671
0.00116605
0.00116526
0.00116431
0.00116318
0.00116184
0.00116028
0.0011585
0.00115651
0.00115431
0.00115191
0.00114934
0.00114661
0.00114374
0.00114075
0.00113765
0.00113446
0.0011312
0.00112788
0.00112451
0.0011211
0.00111766
0.00111421
0.00111074
0.00110727
0.00110379
0.00110031
0.00116994
0.00116938
0.00116884
0.00116832
0.00116782
0.00116732
0.00116683
0.00116634
0.00116582
0.00116526
0.00116466
0.00116398
0.00116323
0.00116238
0.00116144
0.00116039
0.00115924
0.00115798
0.00115663
0.00115517
0.00115362
0.00115199
0.00115028
0.00114849
0.00114664
0.00114473
0.00114277
0.00114076
0.00113872
0.00113664
0.00113452
0.00113239
0.00113023
0.00116994
0.00116938
0.00116884
0.00116832
0.00116781
0.00116732
0.00116684
0.00116637
0.00116591
0.00116545
0.00116498
0.00116451
0.00116401
0.0011635
0.00116295
0.00116236
0.00116173
0.00116106
0.00116035
0.00115958
0.00115877
0.00115791
0.001157
0.00115605
0.00115505
0.00115401
0.00115293
0.00115182
0.00115068
0.0011495
0.0011483
0.00114707
0.00114583
0.00116994
0.00116938
0.00116884
0.00116832
0.00116781
0.00116732
0.00116684
0.00116637
0.00116591
0.00116547
0.00116504
0.00116461
0.00116418
0.00116376
0.00116333
0.0011629
0.00116246
0.00116201
0.00116155
0.00116107
0.00116057
0.00116006
0.00115953
0.00115897
0.0011584
0.00115781
0.00115719
0.00115656
0.00115591
0.00115525
0.00115457
0.00115387
0.00115317
0.00116994
0.00116938
0.00116884
0.00116832
0.00116781
0.00116731
0.00116683
0.00116636
0.00116591
0.00116547
0.00116504
0.00116462
0.00116421
0.00116381
0.00116341
0.00116302
0.00116264
0.00116226
0.00116188
0.0011615
0.00116112
0.00116074
0.00116036
0.00115997
0.00115958
0.00115918
0.00115878
0.00115837
0.00115796
0.00115755
0.00115713
0.00115671
0.00115629
0.00116994
0.00116938
0.00116884
0.00116832
0.00116781
0.00116731
0.00116683
0.00116636
0.00116591
0.00116546
0.00116503
0.00116461
0.00116421
0.00116381
0.00116342
0.00116304
0.00116267
0.00116231
0.00116196
0.00116161
0.00116127
0.00116093
0.0011606
0.00116027
0.00115994
0.00115962
0.0011593
0.00115899
0.00115868
0.00115837
0.00115806
0.00115777
0.00115747
0.00116994
0.00116938
0.00116884
0.00116831
0.0011678
0.00116731
0.00116683
0.00116636
0.0011659
0.00116546
0.00116503
0.00116461
0.0011642
0.0011638
0.00116342
0.00116304
0.00116267
0.00116232
0.00116197
0.00116163
0.00116129
0.00116097
0.00116065
0.00116034
0.00116004
0.00115974
0.00115945
0.00115917
0.0011589
0.00115863
0.00115837
0.00115812
0.00115788
0.00116994
0.00116938
0.00116884
0.00116831
0.0011678
0.00116731
0.00116683
0.00116636
0.0011659
0.00116546
0.00116503
0.00116461
0.0011642
0.0011638
0.00116341
0.00116304
0.00116267
0.00116231
0.00116196
0.00116163
0.0011613
0.00116097
0.00116066
0.00116036
0.00116006
0.00115977
0.00115949
0.00115922
0.00115896
0.0011587
0.00115846
0.00115822
0.001158
0.00116994
0.00116938
0.00116884
0.00116831
0.0011678
0.00116731
0.00116682
0.00116635
0.0011659
0.00116545
0.00116502
0.0011646
0.00116419
0.0011638
0.00116341
0.00116303
0.00116267
0.00116231
0.00116196
0.00116162
0.00116129
0.00116097
0.00116066
0.00116036
0.00116006
0.00115977
0.0011595
0.00115923
0.00115897
0.00115872
0.00115848
0.00115825
0.00115803
0.00116994
0.00116938
0.00116884
0.00116831
0.0011678
0.00116731
0.00116682
0.00116635
0.0011659
0.00116545
0.00116502
0.0011646
0.00116419
0.00116379
0.00116341
0.00116303
0.00116266
0.0011623
0.00116196
0.00116162
0.00116129
0.00116097
0.00116066
0.00116035
0.00116006
0.00115977
0.0011595
0.00115923
0.00115897
0.00115872
0.00115848
0.00115825
0.00115803
0.00116994
0.00116938
0.00116884
0.00116831
0.0011678
0.0011673
0.00116682
0.00116635
0.00116589
0.00116545
0.00116502
0.0011646
0.00116419
0.00116379
0.0011634
0.00116303
0.00116266
0.0011623
0.00116195
0.00116161
0.00116128
0.00116096
0.00116065
0.00116035
0.00116006
0.00115977
0.00115949
0.00115923
0.00115897
0.00115872
0.00115848
0.00115825
0.00115803
0.00116994
0.00116938
0.00116884
0.00116831
0.0011678
0.0011673
0.00116682
0.00116635
0.00116589
0.00116545
0.00116502
0.0011646
0.00116419
0.00116379
0.0011634
0.00116302
0.00116265
0.0011623
0.00116195
0.00116161
0.00116128
0.00116096
0.00116065
0.00116035
0.00116005
0.00115977
0.00115949
0.00115922
0.00115896
0.00115871
0.00115847
0.00115824
0.00115802
0.00116994
0.00116938
0.00116884
0.00116831
0.0011678
0.0011673
0.00116682
0.00116635
0.00116589
0.00116545
0.00116501
0.00116459
0.00116418
0.00116379
0.0011634
0.00116302
0.00116265
0.00116229
0.00116195
0.00116161
0.00116128
0.00116096
0.00116065
0.00116034
0.00116005
0.00115976
0.00115949
0.00115922
0.00115896
0.00115871
0.00115847
0.00115823
0.00115801
0.00116994
0.00116938
0.00116884
0.00116831
0.0011678
0.0011673
0.00116682
0.00116635
0.00116589
0.00116545
0.00116501
0.00116459
0.00116418
0.00116378
0.00116339
0.00116302
0.00116265
0.00116229
0.00116194
0.0011616
0.00116127
0.00116095
0.00116064
0.00116034
0.00116004
0.00115976
0.00115948
0.00115921
0.00115895
0.0011587
0.00115846
0.00115822
0.001158
0.00116994
0.00116938
0.00116884
0.00116831
0.0011678
0.0011673
0.00116682
0.00116635
0.00116589
0.00116544
0.00116501
0.00116459
0.00116418
0.00116378
0.00116339
0.00116301
0.00116265
0.00116229
0.00116194
0.0011616
0.00116127
0.00116095
0.00116064
0.00116034
0.00116004
0.00115975
0.00115948
0.00115921
0.00115895
0.00115869
0.00115845
0.00115821
0.00115799
0.00116994
0.00116938
0.00116884
0.00116831
0.0011678
0.0011673
0.00116682
0.00116635
0.00116589
0.00116544
0.00116501
0.00116459
0.00116418
0.00116378
0.00116339
0.00116301
0.00116264
0.00116229
0.00116194
0.0011616
0.00116127
0.00116095
0.00116063
0.00116033
0.00116004
0.00115975
0.00115947
0.0011592
0.00115894
0.00115868
0.00115844
0.0011582
0.00115797
0.00116994
0.00116938
0.00116884
0.00116831
0.0011678
0.0011673
0.00116682
0.00116635
0.00116589
0.00116544
0.00116501
0.00116459
0.00116418
0.00116378
0.00116339
0.00116301
0.00116264
0.00116228
0.00116194
0.0011616
0.00116127
0.00116094
0.00116063
0.00116033
0.00116003
0.00115974
0.00115946
0.00115919
0.00115893
0.00115868
0.00115843
0.00115819
0.00115796
0.00116994
0.00116938
0.00116884
0.00116831
0.0011678
0.0011673
0.00116682
0.00116635
0.00116589
0.00116544
0.00116501
0.00116459
0.00116418
0.00116378
0.00116339
0.00116301
0.00116264
0.00116228
0.00116193
0.00116159
0.00116126
0.00116094
0.00116063
0.00116032
0.00116003
0.00115974
0.00115946
0.00115919
0.00115892
0.00115867
0.00115842
0.00115818
0.00115795
0.00116994
0.00116938
0.00116884
0.00116831
0.0011678
0.0011673
0.00116682
0.00116635
0.00116589
0.00116544
0.00116501
0.00116459
0.00116418
0.00116378
0.00116339
0.00116301
0.00116264
0.00116228
0.00116193
0.00116159
0.00116126
0.00116094
0.00116062
0.00116032
0.00116002
0.00115973
0.00115945
0.00115918
0.00115891
0.00115866
0.00115841
0.00115816
0.00115793
0.00116994
0.00116938
0.00116884
0.00116831
0.0011678
0.0011673
0.00116682
0.00116635
0.00116589
0.00116544
0.00116501
0.00116459
0.00116418
0.00116378
0.00116339
0.00116301
0.00116264
0.00116228
0.00116193
0.00116159
0.00116126
0.00116093
0.00116062
0.00116031
0.00116002
0.00115973
0.00115945
0.00115917
0.00115891
0.00115865
0.0011584
0.00115815
0.00115792
0.00116994
0.00116938
0.00116884
0.00116831
0.0011678
0.0011673
0.00116682
0.00116635
0.00116589
0.00116544
0.00116501
0.00116459
0.00116418
0.00116378
0.00116339
0.00116301
0.00116264
0.00116228
0.00116193
0.00116159
0.00116126
0.00116093
0.00116062
0.00116031
0.00116001
0.00115972
0.00115944
0.00115917
0.0011589
0.00115864
0.00115838
0.00115814
0.0011579
0.00116994
0.00116938
0.00116884
0.00116831
0.0011678
0.0011673
0.00116682
0.00116635
0.00116589
0.00116544
0.00116501
0.00116459
0.00116418
0.00116378
0.00116339
0.00116301
0.00116264
0.00116228
0.00116193
0.00116159
0.00116126
0.00116093
0.00116062
0.00116031
0.00116001
0.00115972
0.00115944
0.00115916
0.00115889
0.00115863
0.00115837
0.00115812
0.00115788
0.00116994
0.00116938
0.00116884
0.00116831
0.0011678
0.00116731
0.00116682
0.00116635
0.0011659
0.00116545
0.00116502
0.0011646
0.00116419
0.00116379
0.0011634
0.00116302
0.00116265
0.00116229
0.00116194
0.00116159
0.00116126
0.00116093
0.00116061
0.0011603
0.00116
0.0011597
0.00115941
0.00115913
0.00115885
0.00115858
0.00115831
0.00115806
0.0011578
0.00116994
0.00116938
0.00116884
0.00116831
0.0011678
0.00116731
0.00116683
0.00116636
0.0011659
0.00116546
0.00116503
0.0011646
0.00116419
0.00116379
0.0011634
0.00116302
0.00116264
0.00116227
0.00116191
0.00116156
0.00116121
0.00116087
0.00116053
0.0011602
0.00115987
0.00115955
0.00115923
0.00115892
0.00115861
0.0011583
0.001158
0.0011577
0.00115741
0.00116994
0.00116938
0.00116884
0.00116833
0.00116782
0.00116733
0.00116685
0.00116639
0.00116593
0.00116548
0.00116503
0.0011646
0.00116416
0.00116374
0.00116331
0.00116289
0.00116246
0.00116204
0.00116162
0.00116119
0.00116077
0.00116034
0.00115991
0.00115947
0.00115904
0.0011586
0.00115815
0.00115771
0.00115726
0.0011568
0.00115635
0.00115589
0.00115543
0.00116994
0.00116939
0.00116886
0.00116835
0.00116784
0.00116733
0.00116683
0.00116632
0.0011658
0.00116528
0.00116473
0.00116417
0.00116358
0.00116297
0.00116233
0.00116166
0.00116096
0.00116024
0.00115948
0.0011587
0.0011579
0.00115706
0.0011562
0.00115532
0.00115442
0.00115349
0.00115255
0.00115159
0.00115062
0.00114963
0.00114863
0.00114762
0.00114661
0.00116995
0.0011694
0.00116886
0.00116828
0.00116765
0.00116694
0.00116612
0.00116519
0.00116413
0.00116294
0.00116161
0.00116016
0.00115857
0.00115687
0.00115505
0.00115312
0.00115109
0.00114898
0.00114678
0.00114451
0.00114219
0.00113981
0.00113738
0.00113492
0.00113243
0.00112992
0.00112739
0.00112486
0.00112232
0.00111978
0.00111724
0.00111472
0.00111221
0.00116996
0.00116916
0.00116786
0.00116595
0.00116342
0.00116028
0.00115655
0.00115225
0.00114744
0.00114218
0.00113654
0.00113058
0.00112436
0.00111794
0.00111138
0.00110471
0.00109797
0.00109121
0.00108445
0.00107772
0.00107104
0.00106443
0.0010579
0.00105147
0.00104515
0.00103895
0.00103287
0.00102693
0.00102111
0.00101544
0.0010099
0.0010045
0.000999247
0.00116831
0.00115867
0.00114499
0.00112842
0.00110966
0.00108943
0.00106837
0.00104701
0.00102573
0.0010048
0.000984406
0.000964668
0.000945657
0.000927411
0.000909942
0.000893245
0.000877306
0.0008621
0.0008476
0.000833775
0.000820594
0.000808024
0.000796034
0.000784594
0.000773674
0.000763247
0.000753284
0.000743761
0.000734654
0.00072594
0.000717597
0.000709606
0.000701945
0.00107567
0.000936199
0.000835621
0.00075694
0.000692182
0.000638468
0.000593591
0.000555724
0.000523428
0.000495598
0.000471388
0.000450145
0.000431362
0.000414641
0.000399664
0.000386178
0.000373975
0.000362885
0.000352767
0.000343503
0.000334993
0.000327151
0.000319906
0.000313195
0.000306963
0.000301162
0.000295752
0.000290695
0.00028596
0.000281518
0.000277344
0.000273415
0.00026971
0.000142979
0.000146644
0.000150174
0.000153551
0.000156773
0.000159846
0.000162776
0.000165567
0.000168225
0.000170755
0.000173162
0.000175451
0.000177626
0.000179693
0.000181656
0.000183519
0.000185288
0.000186966
0.000188558
0.000190067
0.000191498
0.000192855
0.00019414
0.000195358
0.000196512
0.000197605
0.00019864
0.00019962
0.000200547
0.000201425
0.000202256
0.000203041
0.000203785
9.02811e-05
0.000113057
0.000147323
0.000194003
0.000250738
0.000312945
0.000375903
0.000437817
0.00050109
0.000569698
0.000645559
0.000727259
0.000811745
0.000896597
0.00098075
0.00106388
0.00114568
0.00122536
0.00130171
0.0013736
0.00143966
0.00149826
0.00154749
0.00158508
0.00160862
0.00161558
0.00160348
0.00156987
0.00151244
0.00142912
0.00131845
0.00118057
0.00101945
0.000847489
0.000692908
0.000606878
0.000660728
0.000880431
0.00113054
0.00130524
0.00143026
0.00153305
0.0016209
0.00169474
0.00175497
0.00180266
0.00183941
0.00186708
0.00188749
0.00190233
0.00191303
0.00192076
0.00192652
0.00193107
0.00193506
0.00193899
0.00194331
0.00194837
0.00195444
0.00196174
0.0019704
0.00198051
0.00199207
0.00200502
0.00201928
0.00203471
0.00205111
0.00206818
0.00208544
0.0021022
0.00211753
0.0021302
0.00213884
0.00214195
0.00213805
0.00212582
0.0021042
0.00207244
0.00203025
0.00197783
0.00191595
0.001846
0.00176994
0.0016903
0.00160999
0.00153204
0.00145934
0.00139414
0.00133781
0.00129069
0.00125225
0.00122153
0.00119742
0.0011789
0.00116497
0.0011547
0.00114722
0.0011418
0.00113799
0.00113423
7.67232e-05
7.90928e-05
8.34195e-05
9.18263e-05
0.000107492
0.000134013
0.000174083
0.000227944
0.000292694
0.000363252
0.000434729
0.000504585
0.000572956
0.000641237
0.000710352
0.000779989
0.000848968
0.000915799
0.000979374
0.00103892
0.00109364
0.00114229
0.0011831
0.00121386
0.00123211
0.00123533
0.00122096
0.00118662
0.00113027
0.0010508
0.000949036
0.000829873
0.00070582
0.000601995
0.000560477
0.000634696
0.00083289
0.0010529
0.00121965
0.00134592
0.00145111
0.00154174
0.00161913
0.00168374
0.00173631
0.001778
0.00181026
0.00183467
0.00185278
0.00186599
0.00187552
0.00188239
0.00188744
0.00189136
0.0018947
0.00189794
0.00190147
0.00190564
0.00191071
0.00191693
0.00192446
0.00193343
0.00194389
0.00195587
0.00196932
0.00198417
0.00200026
0.00201733
0.00203494
0.00205241
0.00206879
0.00208287
0.00209323
0.00209834
0.00209671
0.002087
0.00206813
0.00203935
0.00200035
0.00195126
0.0018928
0.00182625
0.00175349
0.00167693
0.00159938
0.00152383
0.00145312
0.00138954
0.00133451
0.00128844
0.00125088
0.00122088
0.00119733
0.00117919
0.0011655
0.00115536
0.00114795
0.00114256
0.00113878
0.00113506
0.00012526
0.000123478
0.000122469
0.000121509
0.000118927
0.000113535
0.000108394
0.000110357
0.000124777
0.000154006
0.000198005
0.000254539
0.000319517
0.000388022
0.000455724
0.000519896
0.000579568
0.000634658
0.000685837
0.000733483
0.000776983
0.000814927
0.000845507
0.000866776
0.000876736
0.000873391
0.000854909
0.000819973
0.000768435
0.000702431
0.000628164
0.000558456
0.000515843
0.000534054
0.000644431
0.000827229
0.00100968
0.00115755
0.00127823
0.00138128
0.00147091
0.00154858
0.00161492
0.00167043
0.0017158
0.00175201
0.00178025
0.0018018
0.00181791
0.00182975
0.00183833
0.00184451
0.00184902
0.00185245
0.00185529
0.00185797
0.00186084
0.00186421
0.00186836
0.00187353
0.00187991
0.00188765
0.00189687
0.00190764
0.00191998
0.00193389
0.00194927
0.00196593
0.00198349
0.00200131
0.00201846
0.00203374
0.0020457
0.0020528
0.00205352
0.00204649
0.00203061
0.0020051
0.00196961
0.00192421
0.00186953
0.00180674
0.00173759
0.00166436
0.00158977
0.00151673
0.00144804
0.00138602
0.00133218
0.00128702
0.00125017
0.00122073
0.0011976
0.00117973
0.00116618
0.00115609
0.00114869
0.00114329
0.0011395
0.00113578
0.000297949
0.000292868
0.000289706
0.000290574
0.000298958
0.000318541
0.000344597
0.000346133
0.000294734
0.000224777
0.000177452
0.000158838
0.000162763
0.000183429
0.000216529
0.000258325
0.000305165
0.000353683
0.000400494
0.000442921
0.000479355
0.000508944
0.00053111
0.000545218
0.000550541
0.000546492
0.000533099
0.000511699
0.000485929
0.000463097
0.000455878
0.000483149
0.000564363
0.000698943
0.000853946
0.00099768
0.00112252
0.00123118
0.00132678
0.00141136
0.00148601
0.00155124
0.00160733
0.0016546
0.00169356
0.00172494
0.00174966
0.00176872
0.00178313
0.00179382
0.00180163
0.00180729
0.0018114
0.00181448
0.00181695
0.00181919
0.00182152
0.00182422
0.00182756
0.00183176
0.00183703
0.00184354
0.00185144
0.00186085
0.00187186
0.00188453
0.00189886
0.00191471
0.0019318
0.00194956
0.00196713
0.00198331
0.00199668
0.00200566
0.0020087
0.00200441
0.00199164
0.0019696
0.00193786
0.00189643
0.00184583
0.00178709
0.00172182
0.00165218
0.00158075
0.00151035
0.00144375
0.00138331
0.0013306
0.00128625
0.00124999
0.00122098
0.00119815
0.00118046
0.00116698
0.00115688
0.00114944
0.001144
0.00114017
0.00113642
0.000496804
0.000488314
0.000480329
0.00047358
0.000469963
0.000473815
0.000493536
0.000542297
0.000636663
0.000763512
0.00079862
0.000666606
0.000491581
0.000363192
0.000287797
0.000249677
0.000235554
0.000236359
0.000246348
0.000262056
0.000280686
0.000299905
0.000317961
0.000333857
0.000347526
0.000360066
0.000374109
0.000394295
0.000427546
0.000482067
0.000563305
0.000667984
0.000784244
0.000900489
0.0010106
0.00111213
0.00120456
0.00128838
0.00136438
0.00143305
0.00149457
0.00154894
0.00159614
0.00163631
0.00166975
0.00169699
0.0017187
0.00173565
0.00174863
0.00175838
0.00176559
0.00177086
0.00177469
0.00177753
0.00177975
0.00178168
0.00178359
0.00178575
0.00178839
0.00179174
0.00179599
0.00180132
0.00180791
0.00181591
0.00182546
0.00183668
0.00184964
0.00186433
0.00188054
0.00189782
0.00191539
0.00193213
0.00194662
0.0019573
0.00196257
0.001961
0.00195141
0.00193295
0.00190514
0.0018679
0.00182161
0.00176718
0.00170606
0.00164023
0.00157214
0.00150453
0.00144012
0.00138127
0.00132967
0.00128605
0.00125028
0.00122159
0.00119896
0.00118136
0.00116789
0.00115774
0.00115022
0.0011447
0.0011408
0.00113698
0.000681685
0.000671303
0.00066087
0.000650343
0.000639855
0.000630078
0.000623037
0.000623128
0.000637923
0.000677311
0.000744974
0.000829802
0.000900446
0.000907556
0.000830915
0.000709748
0.000591541
0.000503541
0.000449806
0.000418972
0.000403848
0.000400433
0.000406559
0.000421247
0.000444428
0.00047674
0.000519187
0.000572571
0.00063678
0.000710353
0.000790669
0.000874568
0.00095894
0.00104126
0.00111995
0.00119432
0.00126416
0.00132943
0.00139007
0.00144586
0.00149655
0.00154187
0.00158164
0.00161585
0.00164467
0.00166842
0.00168761
0.00170281
0.00171461
0.00172361
0.00173037
0.00173536
0.00173902
0.00174172
0.00174378
0.00174549
0.0017471
0.00174884
0.00175092
0.00175354
0.00175689
0.00176115
0.0017665
0.00177311
0.00178115
0.0017908
0.0018022
0.00181542
0.00183039
0.00184678
0.00186394
0.00188083
0.00189611
0.0019082
0.00191551
0.00191656
0.00191012
0.0018953
0.00187152
0.00183861
0.00179683
0.00174692
0.00169015
0.00162834
0.00156379
0.00149911
0.00143698
0.00137979
0.00132928
0.00128634
0.00125097
0.00122251
0.00119999
0.00118242
0.0011689
0.00115866
0.00115102
0.00114539
0.00114141
0.0011375
0.000838025
0.000827713
0.000817227
0.00080649
0.000795431
0.000784014
0.000772374
0.000761172
0.000752166
0.000748768
0.000755092
0.000773802
0.000804205
0.000839518
0.000866453
0.000871766
0.000847748
0.000806639
0.000764684
0.000729577
0.00070432
0.00068972
0.000685699
0.000691877
0.000707777
0.000732831
0.000766322
0.000807306
0.00085459
0.000906789
0.000962439
0.00102015
0.00107869
0.00113708
0.00119455
0.00125053
0.00130457
0.00135623
0.00140509
0.00145072
0.00149268
0.00153063
0.00156432
0.00159364
0.00161864
0.00163953
0.00165665
0.00167041
0.00168127
0.00168969
0.00169611
0.00170092
0.00170449
0.00170713
0.00170912
0.0017107
0.00171211
0.00171353
0.00171516
0.00171719
0.00171977
0.0017231
0.00172732
0.00173263
0.00173922
0.00174728
0.00175701
0.00176858
0.00178202
0.00179716
0.00181348
0.0018301
0.00184576
0.00185893
0.00186801
0.00187149
0.00186809
0.00185685
0.00183712
0.00180862
0.00177147
0.00172623
0.00167399
0.00161638
0.00155553
0.00149394
0.0014342
0.00137871
0.00132932
0.00128703
0.001252
0.0012237
0.00120122
0.0011836
0.00116999
0.00115962
0.00115185
0.00114609
0.001142
0.00113797
0.000958135
0.000949236
0.000940136
0.000930792
0.000921163
0.000911219
0.000900944
0.000890376
0.000879721
0.00086963
0.000861459
0.000857027
0.000857914
0.000864558
0.000875456
0.000887339
0.000895515
0.000898228
0.000896046
0.000891117
0.000886023
0.000883045
0.000883871
0.000889586
0.000900765
0.000917573
0.000939851
0.000967191
0.000999005
0.00103459
0.0010732
0.00111408
0.00115653
0.00119992
0.00124363
0.00128714
0.00132992
0.00137147
0.0014113
0.00144894
0.00148397
0.001516
0.00154478
0.00157014
0.00159205
0.00161062
0.00162607
0.00163868
0.0016488
0.00165678
0.00166296
0.00166767
0.00167121
0.00167385
0.00167583
0.00167735
0.00167863
0.00167984
0.00168113
0.00168269
0.00168465
0.00168718
0.00169044
0.00169459
0.00169982
0.00170635
0.00171441
0.00172424
0.00173597
0.00174957
0.0017647
0.00178064
0.00179626
0.00181011
0.00182061
0.00182624
0.00182567
0.00181787
0.00180212
0.00177802
0.00174554
0.00170506
0.00165748
0.00160421
0.00154721
0.00148883
0.0014316
0.00137791
0.00132966
0.00128802
0.00125329
0.00122508
0.00120258
0.00118488
0.00117113
0.00116061
0.00115269
0.00114678
0.00114258
0.0011384
0.00104234
0.0010355
0.00102845
0.0010212
0.00101372
0.00100602
0.000998093
0.000989977
0.00098171
0.000973401
0.000965325
0.000958025
0.00095228
0.000948909
0.000948414
0.000950702
0.000954935
0.000960096
0.000965443
0.000970694
0.000976037
0.000982
0.000989261
0.000998491
0.00101024
0.0010249
0.00104266
0.00106353
0.00108737
0.00111393
0.00114289
0.00117384
0.00120639
0.00124008
0.0012745
0.00130919
0.00134371
0.00137762
0.00141049
0.0014419
0.00147144
0.00149879
0.00152364
0.00154583
0.00156527
0.00158198
0.0015961
0.0016078
0.00161734
0.00162499
0.00163102
0.00163569
0.00163926
0.00164195
0.00164396
0.00164549
0.0016467
0.00164777
0.00164883
0.00165002
0.00165149
0.00165338
0.00165582
0.00165897
0.00166301
0.00166815
0.00167463
0.00168273
0.00169267
0.00170456
0.00171822
0.00173311
0.00174827
0.00176238
0.00177391
0.00178134
0.0017833
0.00177871
0.00176677
0.00174696
0.00171911
0.00168341
0.00164054
0.00159171
0.00153868
0.00148364
0.00142903
0.00137722
0.00133017
0.00128919
0.00125475
0.0012266
0.00120404
0.00118621
0.00117231
0.00116162
0.00115353
0.00114746
0.00114313
0.0011388
0.00109625
0.0010915
0.00108658
0.0010815
0.00107624
0.00107083
0.00106528
0.00105963
0.00105392
0.0010482
0.00104256
0.00103715
0.00103222
0.00102812
0.00102527
0.00102399
0.00102441
0.00102645
0.00102997
0.00103478
0.00104079
0.00104797
0.00105642
0.00106631
0.00107782
0.00109113
0.00110639
0.00112364
0.0011429
0.00116408
0.00118703
0.00121158
0.00123747
0.00126444
0.00129219
0.0013204
0.00134872
0.00137681
0.00140431
0.00143086
0.00145612
0.00147976
0.00150152
0.00152119
0.00153866
0.00155389
0.00156694
0.00157793
0.00158704
0.00159446
0.0016004
0.00160508
0.00160871
0.00161147
0.00161356
0.00161513
0.00161633
0.00161732
0.00161822
0.00161915
0.00162025
0.00162163
0.00162341
0.00162574
0.00162876
0.00163268
0.00163773
0.00164421
0.0016524
0.0016625
0.00167452
0.00168808
0.00170243
0.00171639
0.00172853
0.00173734
0.00174147
0.00173976
0.00173136
0.00171565
0.00169229
0.0016613
0.00162314
0.0015788
0.00152982
0.00147822
0.00142634
0.0013765
0.00133073
0.00129045
0.0012563
0.00122819
0.00120554
0.00118757
0.00117349
0.00116262
0.00115435
0.00114812
0.00114365
0.00113916
0.00112769
0.0011247
0.00112157
0.00111833
0.00111497
0.00111152
0.001108
0.00110444
0.00110087
0.00109734
0.00109391
0.00109064
0.00108765
0.00108505
0.00108304
0.00108183
0.00108159
0.00108248
0.00108459
0.00108796
0.00109262
0.00109855
0.00110579
0.00111436
0.00112429
0.00113565
0.00114847
0.00116278
0.00117857
0.00119582
0.00121445
0.00123436
0.00125541
0.00127743
0.00130022
0.00132355
0.00134718
0.00137082
0.00139419
0.00141699
0.0014389
0.00145965
0.00147896
0.00149664
0.00151253
0.00152659
0.00153879
0.00154923
0.001558
0.00156525
0.00157115
0.00157588
0.00157959
0.00158246
0.00158464
0.00158629
0.00158752
0.00158848
0.00158928
0.00159004
0.00159086
0.00159185
0.00159311
0.00159478
0.00159697
0.00159987
0.00160369
0.00160872
0.00161527
0.00162364
0.00163394
0.001646
0.00165926
0.0016727
0.00168503
0.0016948
0.00170067
0.00170146
0.00169625
0.00168433
0.00166524
0.00163882
0.00160529
0.00156542
0.00152052
0.00147244
0.00142338
0.00137561
0.00133121
0.00129169
0.00125785
0.00122978
0.00120703
0.0011889
0.00117464
0.00116358
0.00115513
0.00114874
0.00114414
0.00113947
0.00114435
0.0011426
0.00114077
0.00113887
0.00113691
0.00113491
0.00113288
0.00113087
0.00112889
0.00112698
0.0011252
0.00112357
0.00112217
0.00112105
0.00112031
0.00112004
0.00112037
0.00112142
0.00112329
0.00112608
0.00112985
0.00113468
0.00114059
0.00114764
0.00115583
0.00116521
0.00117578
0.00118756
0.00120054
0.00121471
0.00123003
0.00124643
0.00126384
0.00128214
0.00130121
0.00132087
0.00134094
0.00136119
0.0013814
0.00140129
0.00142061
0.00143907
0.00145645
0.00147254
0.00148718
0.00150028
0.00151181
0.00152179
0.0015303
0.00153744
0.00154333
0.00154812
0.00155193
0.00155492
0.00155722
0.00155896
0.00156025
0.00156123
0.00156198
0.00156262
0.00156325
0.00156395
0.00156482
0.00156597
0.0015675
0.00156957
0.00157237
0.00157616
0.00158126
0.00158802
0.00159665
0.00160714
0.00161912
0.00163176
0.00164392
0.00165424
0.0016614
0.00166424
0.0016618
0.00165331
0.00163818
0.00161608
0.00158703
0.00155155
0.00151073
0.00146621
0.00142004
0.00137444
0.00133149
0.0012928
0.00125933
0.00123132
0.00120847
0.00119017
0.00117572
0.00116448
0.00115585
0.0011493
0.00114456
0.00113974
0.00115234
0.00115136
0.00115034
0.00114929
0.00114822
0.00114715
0.0011461
0.0011451
0.00114416
0.00114332
0.00114261
0.00114207
0.00114173
0.00114164
0.00114184
0.00114241
0.00114339
0.00114488
0.00114693
0.00114964
0.00115306
0.00115726
0.00116231
0.00116824
0.0011751
0.00118292
0.00119172
0.00120153
0.00121235
0.00122417
0.00123698
0.00125076
0.00126545
0.00128098
0.00129726
0.00131416
0.00133154
0.00134921
0.00136698
0.00138462
0.0014019
0.00141856
0.00143439
0.00144919
0.0014628
0.00147512
0.00148609
0.00149571
0.001504
0.00151106
0.00151696
0.00152181
0.00152574
0.00152885
0.00153128
0.00153312
0.0015345
0.00153551
0.00153626
0.00153684
0.00153734
0.00153783
0.00153842
0.00153917
0.0015402
0.00154162
0.00154359
0.00154636
0.00155024
0.00155557
0.00156265
0.00157161
0.00158223
0.00159388
0.00160557
0.00161606
0.0016241
0.00162854
0.00162841
0.00162291
0.00161135
0.00159326
0.00156845
0.00153721
0.0015004
0.00145944
0.00141622
0.00137288
0.00133147
0.0012937
0.00126065
0.00123274
0.00120981
0.00119135
0.00117672
0.00116529
0.00115649
0.00114979
0.00114492
0.00113994
0.0011558
0.00115523
0.00115465
0.00115407
0.00115351
0.00115297
0.00115247