/*--------------------------------*- C++ -*----------------------------------*\
| =========                 |                                                 |
| \\      /  F ield         | OpenFOAM: The Open Source CFD Toolbox           |
|  \\    /   O peration     | Version:  2.1.1                                 |
|   \\  /    A nd           | Web:      www.OpenFOAM.org                      |
|    \\/     M anipulation  |                                                 |
\*---------------------------------------------------------------------------*/
FoamFile
{
    version     2.0;
    format      ascii;
    class       volScalarField;
    location    "0.06";
    object      p;
}
// * * * * * * * * * * * * * * * * * * * * * * * * * * * * * * * * * * * * * //

dimensions      [0 2 -2 0 0 0 0];

internalField   nonuniform List<scalar> 
6820
(
-11.1238
-12.97
-13.5445
-13.6716
-13.7778
-13.8559
-13.9089
-13.9537
-13.9942
-14.0309
-14.0645
-14.0958
-14.1249
-14.1519
-14.1769
-14.1998
-14.2209
-14.2399
-14.257
-14.2719
-14.2847
-14.2951
-14.3029
-14.3078
-14.3094
-14.3071
-14.3
-14.2871
-14.2665
-14.236
-14.191
-14.1216
-14.0255
-15.0764
-14.5416
-14.1186
-13.928
-13.9025
-13.9127
-13.9315
-13.9578
-13.9881
-14.0192
-14.05
-14.0801
-14.109
-14.1363
-14.1619
-14.1858
-14.2077
-14.2277
-14.2458
-14.2617
-14.2755
-14.287
-14.2959
-14.3021
-14.305
-14.3044
-14.2995
-14.2897
-14.2737
-14.2523
-14.2216
-14.2031
-14.1752
-13.4339
-13.13
-13.4162
-13.6607
-13.7647
-13.8389
-13.8966
-13.9443
-13.9864
-14.0243
-14.0588
-14.0905
-14.1199
-14.147
-14.1721
-14.1951
-14.2163
-14.2355
-14.2528
-14.2681
-14.2814
-14.2925
-14.3013
-14.3075
-14.3108
-14.3109
-14.3073
-14.2995
-14.2869
-14.2698
-14.2477
-14.2267
-14.2015
-13.941
-13.9751
-13.9718
-13.912
-13.9035
-13.9229
-13.9479
-13.9751
-14.0041
-14.0332
-14.0618
-14.0896
-14.1162
-14.1415
-14.1654
-14.1879
-14.2087
-14.2279
-14.2455
-14.2612
-14.2751
-14.287
-14.2967
-14.3041
-14.3089
-14.311
-14.3098
-14.3054
-14.2974
-14.2867
-14.2728
-14.2626
-14.2497
-13.7857
-13.6856
-13.7294
-13.7946
-13.8467
-13.8922
-13.9316
-13.9674
-14.0013
-14.0336
-14.064
-14.0928
-14.1201
-14.1457
-14.1697
-14.1921
-14.2129
-14.232
-14.2495
-14.2652
-14.2792
-14.2914
-14.3016
-14.3097
-14.3155
-14.319
-14.3199
-14.3183
-14.3141
-14.3083
-14.3009
-14.2957
-14.2904
-13.8408
-13.824
-13.8488
-13.8712
-13.8928
-13.921
-13.9512
-13.9813
-14.0113
-14.0406
-14.0689
-14.096
-14.1219
-14.1465
-14.1698
-14.1917
-14.2121
-14.2311
-14.2486
-14.2646
-14.279
-14.2917
-14.3027
-14.312
-14.3193
-14.3247
-14.3281
-14.3298
-14.3298
-14.3289
-14.3276
-14.3283
-14.3302
-13.8393
-13.818
-13.8335
-13.8616
-13.8909
-13.9228
-13.9544
-13.9849
-14.0147
-14.0437
-14.0716
-14.0983
-14.1239
-14.1483
-14.1713
-14.1931
-14.2135
-14.2326
-14.2502
-14.2665
-14.2814
-14.2947
-14.3066
-14.317
-14.3259
-14.3332
-14.3391
-14.3439
-14.3477
-14.3514
-14.3555
-14.3615
-14.3696
-13.8536
-13.8457
-13.8607
-13.8846
-13.909
-13.9362
-13.9646
-13.9929
-14.021
-14.0486
-14.0754
-14.1013
-14.1261
-14.1499
-14.1726
-14.1941
-14.2143
-14.2334
-14.2513
-14.2679
-14.2832
-14.2973
-14.3102
-14.3218
-14.3323
-14.3416
-14.3501
-14.3579
-14.3655
-14.3735
-14.3825
-14.3937
-14.4075
-13.8668
-13.8628
-13.8745
-13.8955
-13.9187
-13.9446
-13.9718
-13.999
-14.0261
-14.0528
-14.0788
-14.104
-14.1283
-14.1517
-14.174
-14.1953
-14.2156
-14.2347
-14.2528
-14.2698
-14.2857
-14.3006
-14.3145
-14.3274
-14.3395
-14.3509
-14.3618
-14.3726
-14.3837
-14.3957
-14.4092
-14.4251
-14.4441
-13.8806
-13.8799
-13.8908
-13.9097
-13.9312
-13.955
-13.9803
-14.0061
-14.0318
-14.0574
-14.0825
-14.107
-14.1307
-14.1537
-14.1757
-14.1968
-14.2169
-14.2362
-14.2545
-14.2719
-14.2884
-14.304
-14.319
-14.3332
-14.3469
-14.3603
-14.3736
-14.3872
-14.4015
-14.4171
-14.4347
-14.4548
-14.4785
-13.8945
-13.8954
-13.9054
-13.9224
-13.9422
-13.9644
-13.9883
-14.0127
-14.0374
-14.062
-14.0863
-14.1101
-14.1333
-14.1557
-14.1775
-14.1984
-14.2185
-14.2379
-14.2564
-14.2742
-14.2913
-14.3078
-14.3238
-14.3393
-14.3546
-14.3699
-14.3854
-14.4016
-14.4189
-14.4377
-14.4588
-14.4827
-14.5103
-13.9081
-13.9099
-13.9194
-13.9348
-13.9533
-13.974
-13.9964
-14.0196
-14.0432
-14.0668
-14.0902
-14.1133
-14.136
-14.158
-14.1794
-14.2002
-14.2203
-14.2397
-14.2585
-14.2768
-14.2945
-14.3117
-14.3287
-14.3455
-14.3623
-14.3793
-14.3969
-14.4155
-14.4354
-14.4571
-14.4812
-14.5083
-14.5392
-13.9213
-13.9236
-13.9326
-13.9467
-13.9638
-13.9832
-14.0043
-14.0263
-14.0488
-14.0715
-14.0942
-14.1167
-14.1387
-14.1604
-14.1815
-14.2021
-14.2222
-14.2417
-14.2608
-14.2794
-14.2977
-14.3157
-14.3336
-14.3516
-14.3698
-14.3885
-14.4079
-14.4286
-14.4507
-14.4749
-14.5016
-14.5313
-14.5648
-13.9341
-13.9366
-13.945
-13.9581
-13.974
-13.9922
-14.012
-14.0329
-14.0545
-14.0763
-14.0982
-14.12
-14.1416
-14.1628
-14.1837
-14.2041
-14.2242
-14.2438
-14.2631
-14.2822
-14.301
-14.3197
-14.3385
-14.3575
-14.377
-14.3971
-14.4182
-14.4406
-14.4647
-14.4909
-14.5197
-14.5514
-14.5868
-13.9462
-13.9488
-13.9567
-13.9688
-13.9837
-14.0008
-14.0195
-14.0394
-14.06
-14.081
-14.1022
-14.1234
-14.1445
-14.1653
-14.1859
-14.2062
-14.2262
-14.2459
-14.2655
-14.2848
-14.3041
-14.3235
-14.3431
-14.3631
-14.3836
-14.405
-14.4275
-14.4514
-14.4771
-14.5049
-14.5352
-14.5685
-14.6052
-13.9577
-13.9602
-13.9678
-13.9791
-13.993
-14.009
-14.0268
-14.0457
-14.0654
-14.0857
-14.1062
-14.1268
-14.1473
-14.1678
-14.1881
-14.2083
-14.2282
-14.248
-14.2677
-14.2874
-14.3071
-14.3271
-14.3473
-14.3681
-14.3896
-14.412
-14.4356
-14.4607
-14.4876
-14.5166
-14.5481
-14.5823
-14.6197
-13.9686
-13.971
-13.9781
-13.9887
-14.0018
-14.0169
-14.0337
-14.0518
-14.0707
-14.0902
-14.11
-14.13
-14.1501
-14.1702
-14.1903
-14.2103
-14.2302
-14.25
-14.2698
-14.2898
-14.3099
-14.3302
-14.3511
-14.3725
-14.3947
-14.418
-14.4424
-14.4684
-14.4961
-14.5259
-14.558
-14.5927
-14.6304
-13.9788
-13.9811
-13.9878
-13.9977
-14.01
-14.0244
-14.0403
-14.0576
-14.0757
-14.0945
-14.1137
-14.1332
-14.1528
-14.1726
-14.1924
-14.2121
-14.2319
-14.2518
-14.2717
-14.2918
-14.3122
-14.3329
-14.3542
-14.3761
-14.3989
-14.4227
-14.4477
-14.4743
-14.5025
-14.5327
-14.5651
-14.5998
-14.6372
-13.9882
-13.9904
-13.9968
-14.0061
-14.0177
-14.0313
-14.0465
-14.063
-14.0804
-14.0985
-14.1172
-14.1361
-14.1554
-14.1747
-14.1942
-14.2138
-14.2335
-14.2533
-14.2733
-14.2935
-14.314
-14.335
-14.3565
-14.3788
-14.4019
-14.4261
-14.4515
-14.4783
-14.5067
-14.5369
-14.5691
-14.6034
-14.6402
-13.997
-13.999
-14.0051
-14.0139
-14.0249
-14.0378
-14.0523
-14.0681
-14.0848
-14.1023
-14.1204
-14.1389
-14.1577
-14.1767
-14.1959
-14.2153
-14.2348
-14.2545
-14.2744
-14.2947
-14.3153
-14.3364
-14.3581
-14.3805
-14.4037
-14.428
-14.4534
-14.4802
-14.5085
-14.5384
-14.5701
-14.6037
-14.6394
-14.0049
-14.0069
-14.0126
-14.021
-14.0314
-14.0437
-14.0576
-14.0727
-14.0889
-14.1058
-14.1233
-14.1413
-14.1597
-14.1784
-14.1973
-14.2164
-14.2357
-14.2553
-14.2751
-14.2953
-14.3159
-14.337
-14.3586
-14.381
-14.4042
-14.4284
-14.4537
-14.4802
-14.508
-14.5373
-14.5681
-14.6007
-14.635
-14.0121
-14.0139
-14.0194
-14.0273
-14.0373
-14.049
-14.0623
-14.0769
-14.0924
-14.1088
-14.1259
-14.1435
-14.1614
-14.1797
-14.1983
-14.2172
-14.2363
-14.2556
-14.2753
-14.2953
-14.3158
-14.3367
-14.3582
-14.3804
-14.4034
-14.4272
-14.4521
-14.478
-14.5051
-14.5335
-14.5633
-14.5944
-14.6271
-14.0184
-14.0202
-14.0254
-14.033
-14.0424
-14.0537
-14.0665
-14.0805
-14.0956
-14.1115
-14.1281
-14.1452
-14.1628
-14.1807
-14.199
-14.2175
-14.2363
-14.2555
-14.2749
-14.2947
-14.3149
-14.3355
-14.3567
-14.3786
-14.4011
-14.4245
-14.4487
-14.4738
-14.5
-14.5273
-14.5557
-14.5852
-14.616
-14.0239
-14.0256
-14.0305
-14.0378
-14.0469
-14.0577
-14.07
-14.0835
-14.0981
-14.1136
-14.1297
-14.1464
-14.1636
-14.1812
-14.1991
-14.2173
-14.2358
-14.2546
-14.2737
-14.2932
-14.3131
-14.3333
-14.3541
-14.3755
-14.3974
-14.42
-14.4434
-14.4676
-14.4926
-14.5186
-14.5454
-14.5731
-14.6018
-14.0285
-14.0302
-14.0349
-14.0418
-14.0506
-14.061
-14.0729
-14.0861
-14.1002
-14.1153
-14.131
-14.1474
-14.1642
-14.1814
-14.1989
-14.2168
-14.2349
-14.2534
-14.2721
-14.2911
-14.3105
-14.3303
-14.3505
-14.3712
-14.3924
-14.4142
-14.4365
-14.4596
-14.4833
-14.5076
-14.5327
-14.5585
-14.5849
-14.0322
-14.0338
-14.0383
-14.0449
-14.0533
-14.0633
-14.0748
-14.0876
-14.1013
-14.116
-14.1314
-14.1474
-14.1638
-14.1806
-14.1978
-14.2153
-14.2331
-14.2511
-14.2694
-14.288
-14.3069
-14.3261
-14.3456
-14.3655
-14.3859
-14.4066
-14.4279
-14.4496
-14.4718
-14.4945
-14.5177
-14.5414
-14.5655
-14.035
-14.0365
-14.0409
-14.0474
-14.0556
-14.0654
-14.0766
-14.0891
-14.1026
-14.117
-14.132
-14.1475
-14.1636
-14.1801
-14.1969
-14.2139
-14.2313
-14.2488
-14.2666
-14.2846
-14.3028
-14.3213
-14.34
-14.359
-14.3783
-14.398
-14.4179
-14.4382
-14.4588
-14.4797
-14.5009
-14.5224
-14.5441
-14.0366
-14.0379
-14.0419
-14.0479
-14.0557
-14.0651
-14.076
-14.0881
-14.1012
-14.1155
-14.1303
-14.1456
-14.1614
-14.1776
-14.194
-14.2108
-14.2277
-14.2448
-14.2621
-14.2795
-14.2971
-14.3149
-14.3328
-14.3509
-14.3691
-14.3876
-14.4062
-14.425
-14.4439
-14.463
-14.4822
-14.5014
-14.5207
-14.0376
-14.0393
-14.0435
-14.0497
-14.0576
-14.067
-14.0778
-14.0898
-14.1028
-14.1164
-14.1308
-14.1457
-14.1611
-14.1768
-14.1928
-14.209
-14.2254
-14.2419
-14.2585
-14.2752
-14.2919
-14.3088
-14.3257
-14.3427
-14.3597
-14.3768
-14.394
-14.4111
-14.4283
-14.4454
-14.4625
-14.4794
-14.4963
-14.0364
-14.037
-14.04
-14.0452
-14.0524
-14.0614
-14.072
-14.0839
-14.0969
-14.1107
-14.1253
-14.1403
-14.1557
-14.1714
-14.1872
-14.2032
-14.2193
-14.2355
-14.2516
-14.2678
-14.2839
-14.3001
-14.3161
-14.3321
-14.3481
-14.3639
-14.3797
-14.3953
-14.4107
-14.426
-14.441
-14.4558
-14.4702
-14.0369
-14.0396
-14.0443
-14.0505
-14.058
-14.0671
-14.0774
-14.0889
-14.1014
-14.1146
-14.1284
-14.1427
-14.1573
-14.1722
-14.1873
-14.2025
-14.2178
-14.2331
-14.2483
-14.2636
-14.2787
-14.2937
-14.3086
-14.3233
-14.3379
-14.3522
-14.3663
-14.3802
-14.3938
-14.407
-14.4199
-14.4324
-14.4444
-14.0291
-14.0269
-14.0274
-14.0315
-14.0385
-14.048
-14.0593
-14.072
-14.0856
-14.1
-14.1149
-14.1302
-14.1456
-14.1612
-14.1767
-14.1923
-14.2077
-14.223
-14.2382
-14.2531
-14.2678
-14.2823
-14.2965
-14.3104
-14.324
-14.3372
-14.35
-14.3625
-14.3745
-14.386
-14.397
-14.4075
-14.4173
-14.0384
-14.0451
-14.0509
-14.0561
-14.0622
-14.0698
-14.079
-14.0895
-14.101
-14.1133
-14.1262
-14.1396
-14.1534
-14.1673
-14.1813
-14.1954
-14.2095
-14.2234
-14.2372
-14.2508
-14.2641
-14.2772
-14.2899
-14.3023
-14.3143
-14.3259
-14.3371
-14.3477
-14.3578
-14.3673
-14.3762
-14.3845
-14.392
-14.006
-13.9924
-13.9874
-13.9931
-14.0037
-14.0168
-14.0315
-14.0473
-14.0636
-14.0802
-14.0969
-14.1135
-14.13
-14.1462
-14.1621
-14.1777
-14.193
-14.2078
-14.2222
-14.2362
-14.2497
-14.2628
-14.2753
-14.2872
-14.2986
-14.3095
-14.3196
-14.3292
-14.338
-14.3461
-14.3535
-14.36
-14.3658
-14.0612
-14.0818
-14.0868
-14.0826
-14.0799
-14.0824
-14.0881
-14.0957
-14.1048
-14.1152
-14.1265
-14.1384
-14.1507
-14.1633
-14.176
-14.1887
-14.2013
-14.2138
-14.226
-14.2379
-14.2495
-14.2606
-14.2713
-14.2814
-14.291
-14.3
-14.3084
-14.3161
-14.323
-14.3292
-14.3346
-14.3391
-14.3428
-13.9383
-13.8886
-13.8768
-13.9025
-13.9316
-13.9566
-13.9811
-14.0049
-14.0277
-14.0494
-14.0701
-14.0899
-14.1087
-14.1267
-14.1439
-14.1604
-14.176
-14.191
-14.2052
-14.2187
-14.2314
-14.2434
-14.2546
-14.2651
-14.2747
-14.2836
-14.2915
-14.2986
-14.3048
-14.3101
-14.3143
-14.3177
-14.3199
-14.1873
-14.2224
-14.1919
-14.1499
-14.1216
-14.1106
-14.1081
-14.1095
-14.1139
-14.1207
-14.1291
-14.1386
-14.1489
-14.1597
-14.1707
-14.1819
-14.193
-14.2039
-14.2146
-14.2249
-14.2348
-14.2443
-14.2531
-14.2614
-14.269
-14.2758
-14.2819
-14.2872
-14.2916
-14.2952
-14.2978
-14.2994
-14.3
-13.6952
-13.5754
-13.6379
-13.7395
-13.8138
-13.8665
-13.9108
-13.9496
-13.9836
-14.0136
-14.0405
-14.065
-14.0874
-14.1081
-14.1272
-14.145
-14.1616
-14.177
-14.1913
-14.2047
-14.217
-14.2283
-14.2386
-14.2479
-14.2562
-14.2635
-14.2698
-14.275
-14.2791
-14.2822
-14.2841
-14.2849
-14.2845
-14.91
-14.5712
-14.3076
-14.1911
-14.1411
-14.1162
-14.1017
-14.096
-14.0968
-14.1015
-14.1088
-14.1178
-14.1279
-14.1386
-14.1498
-14.161
-14.1722
-14.1831
-14.1938
-14.204
-14.2137
-14.2227
-14.2312
-14.2389
-14.2458
-14.2518
-14.257
-14.2612
-14.2645
-14.2667
-14.2679
-14.268
-14.267
-12.4065
-13.1132
-13.518
-13.6706
-13.7757
-13.8585
-13.9185
-13.964
-14.0011
-14.0321
-14.0584
-14.0816
-14.1022
-14.121
-14.1381
-14.1539
-14.1685
-14.1821
-14.1946
-14.2061
-14.2166
-14.2261
-14.2346
-14.2422
-14.2487
-14.2541
-14.2585
-14.2618
-14.2639
-14.265
-14.2648
-14.2635
-14.2609
-13.8023
-13.775
-13.7426
-13.727
-13.799
-14.0027
-14.3454
-14.8198
-15.3987
-16.0516
-16.7523
-17.4748
-18.1941
-18.8881
-19.5393
-20.1359
-20.6718
-21.1451
-21.5558
-21.9059
-22.1973
-22.4319
-22.6107
-22.7341
-22.801
-22.809
-22.7537
-22.629
-22.4262
-22.1346
-21.7409
-21.2297
-20.5836
-19.7848
-18.8183
-17.6775
-16.367
-14.9038
-13.3269
-11.6931
-10.0541
-8.45551
-6.94406
-5.56019
-4.33064
-3.2671
-2.36823
-1.62361
-1.01774
-0.533142
-0.152252
0.141418
0.362739
0.524768
0.638765
0.714296
0.7594
0.780765
0.783903
0.773318
0.75266
0.724856
0.692238
0.656641
0.619497
0.58191
0.544722
0.508562
0.473897
0.441059
0.410273
0.381676
0.35533
0.331228
0.309303
0.289436
0.271461
0.255171
0.240336
0.226705
0.214032
0.202076
0.190627
0.179517
0.168614
0.157822
0.14708
0.136353
0.125617
0.114873
0.104091
0.0933189
0.0824409
0.0716789
0.0605494
0.0500462
0.038089
0.0289818
0.0139011
0.0109396
-14.4069
-14.344
-14.0941
-13.937
-13.9079
-14.0205
-14.2868
-14.7075
-15.2626
-15.9171
-16.6294
-17.3587
-18.072
-18.7489
-19.3785
-19.9552
-20.4759
-20.9392
-21.3434
-21.6884
-21.9752
-22.2045
-22.3773
-22.4934
-22.5516
-22.5492
-22.4817
-22.3425
-22.123
-21.8125
-21.3978
-20.8637
-20.1939
-19.3735
-18.3936
-17.2546
-15.9651
-14.5484
-13.0425
-11.4868
-9.9217
-8.3928
-6.94457
-5.61362
-4.42472
-3.38954
-2.50812
-1.77211
-1.16814
-0.680648
-0.293613
0.00824814
0.238917
0.41081
0.534733
0.619949
0.674293
0.704333
0.715514
0.712314
0.698383
0.676669
0.649535
0.618855
0.586103
0.552424
0.518701
0.485603
0.453634
0.423162
0.394446
0.367658
0.342891
0.320172
0.299468
0.280686
0.263686
0.24828
0.234254
0.221365
0.209374
0.198044
0.187166
0.176572
0.166129
0.155743
0.145354
0.134929
0.124448
0.113919
0.103318
0.0926954
0.0819523
0.0712928
0.0602856
0.0498163
0.0380517
0.0287517
0.0143178
0.010069
-14.1897
-14.0617
-13.9556
-13.9442
-14.0191
-14.19
-14.4688
-14.8532
-15.3324
-15.8927
-16.5169
-17.1822
-17.8617
-18.5289
-19.1611
-19.7426
-20.2656
-20.7244
-21.1195
-21.4529
-21.7275
-21.9455
-22.1076
-22.213
-22.2598
-22.2447
-22.1627
-22.0069
-21.7686
-21.4367
-20.9982
-20.4393
-19.7474
-18.9148
-17.9388
-16.8204
-15.5709
-14.2135
-12.7756
-11.2893
-9.79425
-8.33308
-6.94598
-5.66626
-4.51706
-3.51
-2.64631
-1.91947
-1.31809
-0.82835
-0.435747
-0.126159
0.113506
0.295015
0.428709
0.523527
0.587092
0.625834
0.645121
0.649396
0.642302
0.6268
0.60528
0.57965
0.551421
0.52178
0.491647
0.461732
0.432572
0.404571
0.378021
0.353128
0.330019
0.308752
0.289327
0.271679
0.255693
0.241202
0.228009
0.21588
0.204584
0.193889
0.18359
0.173519
0.163544
0.153572
0.143545
0.133432
0.123217
0.112912
0.102501
0.0920359
0.0814343
0.0708813
0.0600013
0.049567
0.0380042
0.0285017
0.0147387
0.00916435
-14.2685
-14.2633
-14.2239
-14.2095
-14.2598
-14.3986
-14.6405
-14.9894
-15.4367
-15.962
-16.539
-17.1427
-17.7537
-18.3555
-18.9336
-19.4758
-19.9717
-20.4162
-20.8066
-21.1402
-21.415
-21.6303
-21.7861
-21.8821
-21.9168
-21.8871
-21.7881
-21.613
-21.3529
-20.9979
-20.5377
-19.9636
-19.2679
-18.4436
-17.4863
-16.3998
-15.197
-13.896
-12.5201
-11.1001
-9.67271
-8.27661
-6.9482
-5.71795
-4.60745
-3.62824
-2.78253
-2.06542
-1.46728
-0.975974
-0.578402
-0.261585
-0.0133096
0.177534
0.320812
0.425124
0.497865
0.545316
0.572757
0.584583
0.584423
0.575245
0.559461
0.539007
0.515431
0.489956
0.46354
0.436927
0.410692
0.38527
0.360988
0.338083
0.316714
0.296972
0.278887
0.262424
0.247493
0.233949
0.22161
0.210257
0.199668
0.189616
0.179902
0.17036
0.160859
0.15131
0.141653
0.131862
0.121923
0.111851
0.101639
0.0913392
0.0808857
0.0704436
0.0596964
0.049298
0.0379445
0.0282332
0.0151571
0.0082363
-14.2955
-14.2773
-14.2446
-14.2547
-14.3356
-14.4964
-14.7445
-15.0822
-15.5016
-15.9857
-16.5157
-17.0732
-17.641
-18.2028
-18.744
-19.2519
-19.7168
-20.1323
-20.4952
-20.8047
-21.0596
-21.2589
-21.4014
-21.4851
-21.507
-21.4634
-21.3492
-21.1584
-20.8842
-20.5191
-20.0546
-19.4819
-18.7927
-17.9814
-17.0478
-15.9975
-14.8404
-13.5925
-12.276
-10.9198
-9.55726
-8.22335
-6.95115
-5.76856
-4.69575
-3.74405
-2.91652
-2.20964
-1.6154
-1.1232
-0.721271
-0.397747
-0.141277
0.0585905
0.211232
0.324901
0.406748
0.462891
0.49851
0.517944
0.524799
0.522045
0.512105
0.496945
0.478142
0.456954
0.434374
0.411181
0.387982
0.365246
0.343331
0.322504
0.302958
0.284814
0.268132
0.252907
0.239073
0.22651
0.215051
0.204493
0.194624
0.185227
0.176106
0.1671
0.158081
0.148961
0.139683
0.130222
0.120568
0.110738
0.100734
0.0906061
0.080307
0.0699804
0.0593711
0.04901
0.0378721
0.0279483
0.015569
0.007295
-14.3388
-14.3455
-14.3542
-14.3952
-14.4885
-14.6457
-14.876
-15.1835
-15.5638
-16.005
-16.4914
-17.0059
-17.5303
-18.0478
-18.5451
-19.0125
-19.4428
-19.8308
-20.1721
-20.4629
-20.701
-20.8845
-21.0115
-21.0799
-21.0872
-21.0299
-20.9035
-20.7025
-20.4202
-20.0491
-19.5813
-19.0093
-18.3277
-17.5338
-16.6276
-15.6129
-14.4994
-13.3026
-12.0435
-10.7484
-9.44768
-8.1731
-6.95468
-5.81798
-4.78181
-3.85726
-3.04806
-2.35189
-1.76218
-1.26974
-0.864081
-0.534389
-0.270165
-0.0616155
0.100144
0.223005
0.313861
0.378657
0.42246
0.449543
0.463481
0.467235
0.46324
0.453481
0.439563
0.422776
0.404146
0.384486
0.364433
0.344487
0.325037
0.306381
0.28874
0.272268
0.257053
0.243119
0.230428
0.218879
0.208328
0.198587
0.189453
0.180722
0.172204
0.163742
0.155212
0.146529
0.137637
0.128514
0.119154
0.109574
0.0997853
0.0898362
0.0796978
0.0694913
0.0590248
0.0487031
0.0377859
0.0276487
0.0159694
0.00635044
-14.3835
-14.4021
-14.4277
-14.4817
-14.5826
-14.7413
-14.9642
-15.2533
-15.6041
-16.0069
-16.4507
-16.9226
-17.4057
-17.8837
-18.3445
-18.7793
-19.1807
-19.5424
-19.8591
-20.1273
-20.345
-20.5101
-20.6208
-20.6746
-20.6685
-20.5989
-20.4612
-20.25
-19.9594
-19.5831
-19.1146
-18.5482
-17.879
-17.1043
-16.2246
-15.2446
-14.1736
-13.0263
-11.8221
-10.5854
-9.34361
-8.12559
-6.95861
-5.86606
-4.86551
-3.96772
-3.17695
-2.49192
-1.90734
-1.41532
-1.00656
-0.671258
-0.399744
-0.182878
-0.0122735
0.119588
0.219334
0.292722
0.344695
0.379451
0.400524
0.41086
0.412897
0.408636
0.399709
0.387431
0.37286
0.35684
0.340039
0.322985
0.306098
0.289703
0.274051
0.259325
0.245642
0.233055
0.221552
0.211056
0.201441
0.192538
0.184158
0.176105
0.168199
0.160289
0.152256
0.144015
0.135517
0.12674
0.11768
0.108359
0.0987928
0.0890294
0.0790578
0.068976
0.0586569
0.0483772
0.0376844
0.0273359
0.016353
0.0054129
-14.4279
-14.4577
-14.4997
-14.5683
-14.6775
-14.8359
-15.0489
-15.3185
-15.6415
-16.0102
-16.4147
-16.8432
-17.2824
-17.7197
-18.1443
-18.5465
-18.9179
-19.2526
-19.5453
-19.7925
-19.9915
-20.1398
-20.2349
-20.2742
-20.2548
-20.173
-20.0246
-19.805
-19.5087
-19.13
-18.6633
-18.1034
-17.4466
-16.691
-15.8379
-14.892
-13.8624
-12.7628
-11.6114
-10.4303
-9.24467
-8.08056
-6.96276
-5.9127
-4.94673
-4.0753
-3.30302
-2.62952
-2.05065
-1.55969
-1.14845
-0.8081
-0.529777
-0.304983
-0.125833
0.0148132
0.123305
0.205202
0.265313
0.307748
0.335993
0.35297
0.361116
0.362444
0.358601
0.350933
0.340524
0.328247
0.314799
0.300737
0.286508
0.272463
0.258883
0.245978
0.233894
0.22271
0.212442
0.203036
0.194389
0.186348
0.178738
0.171378
0.164095
0.156745
0.149214
0.141424
0.133326
0.124901
0.116149
0.107094
0.097757
0.0881857
0.0783866
0.0684343
0.0582669
0.0480323
0.0375663
0.0270118
0.0167148
0.00449269
-14.4707
-14.5095
-14.5629
-14.6408
-14.7539
-14.9098
-15.1131
-15.3652
-15.6636
-16.0019
-16.3717
-16.7629
-17.1641
-17.5641
-17.9528
-18.3215
-18.6629
-18.9706
-19.2394
-19.4652
-19.6449
-19.7758
-19.8551
-19.8802
-19.848
-19.7551
-19.5975
-19.3706
-19.0696
-18.6895
-18.2254
-17.673
-17.0295
-16.2936
-15.467
-14.5546
-13.5651
-12.5115
-11.4106
-10.2826
-9.15048
-8.03776
-6.96699
-5.95779
-5.0254
-4.17987
-3.4261
-2.76449
-2.19186
-1.70257
-1.28948
-0.94466
-0.660026
-0.427714
-0.24034
-0.0911478
0.0259234
0.116225
0.18442
0.234524
0.269961
0.293628
0.307948
0.314941
0.316272
0.313306
0.307154
0.298716
0.288718
0.277744
0.266264
0.254659
0.243233
0.232223
0.221803
0.21208
0.203094
0.194819
0.18717
0.180016
0.173196
0.166542
0.159893
0.153112
0.146092
0.138758
0.131066
0.122999
0.114562
0.105779
0.0966783
0.0873053
0.0776843
0.0678661
0.0578545
0.0476688
0.0374304
0.026678
0.0170497
0.00359992
-14.5106
-14.5568
-14.6186
-14.7032
-14.8187
-14.9713
-15.1648
-15.4001
-15.6754
-15.9854
-16.3229
-16.6794
-17.0449
-17.4097
-17.7647
-18.1018
-18.4139
-18.695
-18.9398
-19.1442
-19.3047
-19.4184
-19.4824
-19.4938
-19.4495
-19.3461
-19.1798
-18.9466
-18.6419
-18.2615
-17.8011
-17.2572
-16.6275
-15.9115
-15.1112
-14.2316
-13.2811
-12.2718
-11.2192
-10.1419
-9.06072
-7.99697
-6.97116
-6.00126
-5.10143
-4.28134
-3.54608
-2.89665
-2.33076
-1.84375
-1.42941
-1.08069
-0.790252
-0.550848
-0.355592
-0.198116
-0.0726547
0.0259259
0.102133
0.159876
0.202513
0.232901
0.253449
0.266176
0.272757
0.274578
0.272773
0.268266
0.261809
0.254012
0.24537
0.236289
0.227096
0.218056
0.209366
0.201161
0.193507
0.186402
0.179784
0.173542
0.167533
0.161601
0.155598
0.149395
0.142892
0.13602
0.12874
0.121038
0.112921
0.104416
0.0955575
0.0863885
0.0769509
0.0672715
0.0574193
0.0472868
0.0372758
0.0263365
0.0173534
0.00274412
-14.5471
-14.5991
-14.6668
-14.7555
-14.8714
-15.0195
-15.2029
-15.4223
-15.676
-15.9598
-16.2676
-16.5919
-16.9243
-17.2562
-17.5793
-17.8862
-18.1702
-18.4253
-18.6467
-18.83
-18.9716
-19.0683
-19.1171
-19.1151
-19.0591
-18.9459
-18.7718
-18.5331
-18.2258
-17.846
-17.3902
-16.8555
-16.2402
-15.5443
-14.7701
-13.9226
-13.0098
-12.0431
-11.0367
-10.0078
-8.97508
-7.958
-6.97517
-6.04305
-5.17479
-4.37966
-3.66283
-3.02584
-2.46716
-1.98299
-1.568
-1.21595
-0.920219
-0.674161
-0.471383
-0.305906
-0.172264
-0.0655508
0.0185763
0.0839124
0.133739
0.170867
0.197684
0.216202
0.228104
0.234788
0.23741
0.236917
0.234087
0.229552
0.223833
0.217357
0.210476
0.203476
0.196582
0.189952
0.183678
0.177784
0.172232
0.166929
0.161751
0.156557
0.151212
0.145596
0.139618
0.133215
0.126352
0.119019
0.111228
0.103007
0.0943959
0.0854363
0.0761869
0.066651
0.0569613
0.0468869
0.0371014
0.025989
0.0176221
0.00193391
-14.5798
-14.6361
-14.7077
-14.7986
-14.9134
-15.0562
-15.2294
-15.4335
-15.667
-15.9264
-16.2065
-16.501
-16.8024
-17.1033
-17.3962
-17.6742
-17.9311
-18.1612
-18.3597
-18.5223
-18.6453
-18.7254
-18.7595
-18.7445
-18.6774
-18.555
-18.3738
-18.1304
-17.8213
-17.4431
-16.9926
-16.4677
-15.8672
-15.1915
-14.443
-13.6269
-12.7506
-11.8248
-10.8627
-9.87984
-8.89329
-7.92069
-6.97895
-6.08313
-5.24546
-4.47477
-3.77628
-3.15194
-2.60088
-2.12008
-1.70501
-1.3502
-1.04969
-0.79743
-0.587504
-0.414325
-0.272732
-0.158052
-0.0661153
0.00674949
0.0637398
0.107613
0.140727
0.165082
0.182362
0.193978
0.201101
0.204701
0.205576
0.204383
0.201665
0.197871
0.193375
0.188486
0.18345
0.178452
0.173608
0.168966
0.164512
0.160176
0.155851
0.151413
0.146738
0.14172
0.136275
0.130346
0.123905
0.116947
0.109486
0.101553
0.093195
0.0844497
0.075393
0.066005
0.0564807
0.0464696
0.0369067
0.0256372
0.0178525
0.00117668
-14.6082
-14.6675
-14.7414
-14.8329
-14.9454
-15.0822
-15.2451
-15.4345
-15.649
-15.8857
-16.1402
-16.4068
-16.6794
-16.9511
-17.2154
-17.4659
-17.6968
-17.9028
-18.0791
-18.2215
-18.3263
-18.3901
-18.4098
-18.3823
-18.3046
-18.1736
-17.986
-17.7388
-17.4286
-17.0526
-16.6083
-16.0937
-15.5083
-14.8527
-14.1297
-13.344
-12.503
-11.6165
-10.6967
-9.75772
-8.81514
-7.88491
-6.98243
-6.12149
-5.31344
-4.56665
-3.88636
-3.27483
-2.73177
-2.25484
-1.84024
-1.48321
-1.17844
-0.920428
-0.703741
-0.523175
-0.373878
-0.251416
-0.151799
-0.071487
-0.00737542
0.0432327
0.0826586
0.112885
0.135594
0.1522
0.16389
0.171652
0.176305
0.178527
0.178884
0.177844
0.175804
0.173091
0.169976
0.166665
0.163298
0.15995
0.156629
0.153287
0.149838
0.146172
0.142182
0.137771
0.132866
0.127418
0.121404
0.114824
0.107698
0.100058
0.0919567
0.0834301
0.0745702
0.0653345
0.0559778
0.0460357
0.0366914
0.025283
0.0180428
0.000478248
-14.6324
-14.6935
-14.7683
-14.859
-14.9683
-15.0985
-15.2512
-15.4264
-15.6231
-15.8386
-16.0691
-16.3098
-16.5553
-16.7996
-17.0369
-17.2612
-17.4672
-17.65
-17.8048
-17.9276
-18.0146
-18.0627
-18.0684
-18.0289
-17.9411
-17.802
-17.6088
-17.3583
-17.0479
-16.6748
-16.2371
-15.7334
-15.1632
-14.5277
-13.8296
-13.0736
-12.2666
-11.4178
-10.5383
-9.64117
-8.74042
-7.85056
-6.9856
-6.15815
-5.37874
-4.65531
-3.99303
-3.39443
-2.85969
-2.38709
-1.97349
-1.61477
-1.30624
-1.04293
-0.819879
-0.632255
-0.475517
-0.345474
-0.238322
-0.150662
-0.0794878
-0.02217
0.0235696
0.0596903
0.0878647
0.109511
0.125827
0.137813
0.14631
0.152015
0.155513
0.157296
0.157776
0.157303
0.156166
0.154595
0.152754
0.15074
0.148586
0.146266
0.143714
0.14084
0.137548
0.133755
0.129398
0.124436
0.118854
0.112656
0.105868
0.0985242
0.0906836
0.0823797
0.07372
0.0646405
0.0554534
0.0455861
0.0364555
0.0249279
0.0181918
-0.000157373
-14.652
-14.714
-14.7886
-14.8775
-14.9826
-15.1059
-15.2484
-15.41
-15.5898
-15.7854
-15.9936
-16.2102
-16.4304
-16.649
-16.8607
-17.0602
-17.2425
-17.4029
-17.5369
-17.6408
-17.7107
-17.7434
-17.7357
-17.6846
-17.5872
-17.4408
-17.2424
-16.9894
-16.6792
-16.3097
-15.8791
-15.3865
-14.8317
-14.216
-13.5423
-12.8151
-12.0409
-11.2282
-10.3873
-9.52992
-8.66898
-7.81758
-6.98845
-6.19314
-5.4414
-4.74076
-4.09627
-3.51067
-2.98453
-2.51667
-2.10455
-1.74466
-1.43286
-1.16472
-0.935701
-0.741357
-0.577454
-0.440048
-0.325525
-0.230632
-0.152469
-0.0884817
-0.0364407
0.00558398
0.0392513
0.065978
0.0869667
0.103233
0.115632
0.124881
0.131583
0.136248
0.13931
0.141134
0.142032
0.142252
0.141981
0.141341
0.140387
0.139118
0.137487
0.135421
0.132841
0.129677
0.125875
0.121405
0.116259
0.110447
0.104
0.0969557
0.0893787
0.0813007
0.0728441
0.0639246
0.0549084
0.045122
0.0361993
0.0245735
0.0182997
-0.000728194
-14.6671
-14.7291
-14.8025
-14.8887
-14.9891
-15.1051
-15.2374
-15.386
-15.5498
-15.7268
-15.9141
-16.1082
-16.3048
-16.4992
-16.6868
-16.8628
-17.0225
-17.1615
-17.2757
-17.3612
-17.4145
-17.4324
-17.4118
-17.3497
-17.2433
-17.0899
-16.887
-16.632
-16.3228
-15.9573
-15.5343
-15.0529
-14.5135
-13.9174
-13.2675
-12.5682
-11.8255
-11.0474
-10.2432
-9.42378
-8.60071
-7.78592
-6.991
-6.22652
-5.5015
-4.82304
-4.19609
-3.6235
-3.10618
-2.64344
-2.23326
-1.87268
-1.5581
-1.28557
-1.05099
-0.850271
-0.679492
-0.534953
-0.413238
-0.311243
-0.226181
-0.15558
-0.0972635
-0.0493378
-0.0101623
0.0216735
0.0473751
0.0679677
0.0843202
0.0971665
0.107128
0.114732
0.12043
0.124606
0.127589
0.129647
0.13099
0.131762
0.132042
0.131851
0.131162
0.129923
0.12807
0.125544
0.122306
0.118333
0.113627
0.108203
0.1021
0.0953566
0.0880455
0.0801959
0.0719448
0.0631886
0.0543442
0.0446448
0.0359237
0.024221
0.0183677
-0.00123432
-14.6777
-14.7388
-14.8104
-14.8932
-14.9883
-15.0968
-15.2191
-15.3551
-15.5037
-15.6632
-15.831
-16.0041
-16.1785
-16.3504
-16.5153
-16.669
-16.8073
-16.9259
-17.021
-17.089
-17.1264
-17.13
-17.097
-17.0244
-16.9095
-16.7498
-16.5429
-16.2864
-15.9786
-15.6176
-15.2024
-14.7325
-14.2084
-13.6316
-13.0049
-12.3325
-11.6201
-10.875
-10.1059
-9.32256
-8.5355
-7.75557
-6.99329
-6.25835
-5.5591
-4.90221
-4.29249
-3.73289
-3.22458
-2.76728
-2.35946
-1.99864
-1.68175
-1.40527
-1.16552
-0.958785
-0.781426
-0.629998
-0.501283
-0.392332
-0.300477
-0.22333
-0.15878
-0.104969
-0.0602826
-0.0233197
0.00712415
0.0320806
0.0524296
0.0689202
0.0821896
0.0927822
0.101165
0.107742
0.112857
0.116798
0.119795
0.122015
0.12356
0.124473
0.12475
0.124355
0.123241
0.121365
0.118697
0.115227
0.110963
0.105931
0.100172
0.093732
0.0866881
0.0790689
0.0710248
0.0624347
0.0537624
0.0441559
0.0356298
0.0238717
0.0183984
-0.00167795
-14.6838
-14.7435
-14.8125
-14.8913
-14.9807
-15.0816
-15.1941
-15.3179
-15.4522
-15.5952
-15.7448
-15.8981
-16.0519
-16.2026
-16.3462
-16.4789
-16.5968
-16.696
-16.7729
-16.8241
-16.8463
-16.8364
-16.7915
-16.7089
-16.586
-16.4205
-16.2101
-15.9528
-15.6467
-15.2905
-14.8834
-14.4251
-13.9162
-13.3583
-12.7541
-12.1077
-11.4244
-10.7109
-9.97517
-9.2261
-8.47328
-7.72651
-6.99537
-6.28873
-5.6143
-4.97835
-4.38553
-3.83883
-3.33967
-2.88809
-2.483
-2.12238
-1.80361
-1.52361
-1.27909
-1.06668
-0.883047
-0.724983
-0.589473
-0.473726
-0.375197
-0.291591
-0.22086
-0.161195
-0.111007
-0.0689099
-0.0337049
-0.0043568
0.0200233
0.0401968
0.0568157
0.0704397
0.0815523
0.0905721
0.0978609
0.103725
0.108414
0.112116
0.114956
0.116998
0.118261
0.118727
0.118366
0.117149
0.115059
0.112095
0.108277
0.103637
0.0982239
0.0920873
0.0853112
0.0779235
0.0700871
0.0616654
0.053165
0.0436571
0.0353192
0.0235267
0.0183952
-0.00206321
-14.6856
-14.7433
-14.8091
-14.8835
-14.967
-15.0601
-15.163
-15.2751
-15.3957
-15.5232
-15.6557
-15.7906
-15.9251
-16.0559
-16.1795
-16.2924
-16.3911
-16.472
-16.5316
-16.5668
-16.5744
-16.5515
-16.4954
-16.4034
-16.2731
-16.1023
-15.8889
-15.6311
-15.3272
-14.9762
-14.5773
-14.1305
-13.6366
-13.0972
-12.5148
-11.8934
-11.238
-10.5547
-9.85076
-9.1343
-8.414
-7.69876
-6.99731
-6.31774
-5.66719
-5.05153
-4.47525
-3.94134
-3.4514
-3.00578
-2.60374
-2.24372
-1.92348
-1.64037
-1.39147
-1.17375
-0.984141
-0.819702
-0.677613
-0.555243
-0.450174
-0.360207
-0.283365
-0.217888
-0.16222
-0.114996
-0.0750218
-0.0412641
-0.0128276
0.0110592
0.0310613
0.0477528
0.0616317
0.0731321
0.0826319
0.0904549
0.0968693
0.102084
0.106245
0.109442
0.11171
0.113053
0.113457
0.112908
0.111401
0.108948
0.105577
0.10133
0.0962623
0.0904289
0.0839202
0.076764
0.0691353
0.0608835
0.0525545
0.0431503
0.0349938
0.0231867
0.0183626
-0.00239594
-14.6832
-14.7384
-14.8006
-14.8703
-14.9477
-15.033
-15.1264
-15.2273
-15.3349
-15.4478
-15.5642
-15.6819
-15.7983
-15.9105
-16.0154
-16.1097