/*--------------------------------*- C++ -*----------------------------------*\
| =========                 |                                                 |
| \\      /  F ield         | OpenFOAM: The Open Source CFD Toolbox           |
|  \\    /   O peration     | Version:  2.1.1                                 |
|   \\  /    A nd           | Web:      www.OpenFOAM.org                      |
|    \\/     M anipulation  |                                                 |
\*---------------------------------------------------------------------------*/
FoamFile
{
    version     2.0;
    format      ascii;
    class       surfaceScalarField;
    location    "0.06";
    object      phi;
}
// * * * * * * * * * * * * * * * * * * * * * * * * * * * * * * * * * * * * * //

dimensions      [0 3 -1 0 0 0 0];

internalField   nonuniform List<scalar> 
13452
(
6.89921e-05
-5.04811e-07
6.88126e-05
1.79514e-07
6.81998e-05
6.12739e-07
6.72505e-05
9.49296e-07
6.61715e-05
1.07904e-06
6.50769e-05
1.09462e-06
6.40084e-05
1.0685e-06
6.29833e-05
1.0251e-06
6.20098e-05
9.73416e-07
6.10915e-05
9.18348e-07
6.02292e-05
8.62332e-07
5.94223e-05
8.06839e-07
5.86695e-05
7.52842e-07
5.79685e-05
7.01031e-07
5.73166e-05
6.51888e-07
5.67108e-05
6.05734e-07
5.61481e-05
5.62771e-07
5.56249e-05
5.23112e-07
5.51381e-05
4.86811e-07
5.46843e-05
4.53885e-07
5.42599e-05
4.24338e-07
5.38617e-05
3.98188e-07
5.34862e-05
3.7549e-07
5.31299e-05
3.56365e-07
5.27888e-05
3.41046e-07
5.24589e-05
3.2995e-07
5.21351e-05
3.23779e-07
5.18112e-05
3.23916e-07
5.14789e-05
3.32297e-07
5.11237e-05
3.5519e-07
5.0725e-05
3.98729e-07
5.02286e-05
4.96392e-07
7.14513e-07
4.95141e-05
7.01649e-05
-2.25763e-07
7.00409e-05
3.03511e-07
7.01813e-05
4.7237e-07
7.05081e-05
6.22425e-07
7.0858e-05
7.29195e-07
7.1156e-05
7.9663e-07
7.13795e-05
8.45023e-07
7.153e-05
8.74522e-07
7.16156e-05
8.8784e-07
7.1645e-05
8.88978e-07
7.16264e-05
8.80906e-07
7.15673e-05
8.65976e-07
7.14741e-05
8.46026e-07
7.13526e-05
8.22561e-07
7.12076e-05
7.968e-07
7.10436e-05
7.69735e-07
7.08642e-05
7.42178e-07
7.06726e-05
7.14793e-07
7.04712e-05
6.88128e-07
7.02625e-05
6.62647e-07
7.00481e-05
6.38753e-07
6.98294e-05
6.16824e-07
6.96077e-05
5.97243e-07
6.93836e-05
5.80428e-07
6.91578e-05
5.669e-07
6.89304e-05
5.57321e-07
6.87015e-05
5.52684e-07
6.84711e-05
5.54272e-07
6.82388e-05
5.64615e-07
6.80081e-05
5.85874e-07
6.77802e-05
6.26697e-07
6.75975e-05
6.79087e-07
7.8043e-07
6.75315e-05
7.22815e-05
-5.06976e-08
7.23962e-05
1.88758e-07
7.25004e-05
3.6815e-07
7.2586e-05
5.36862e-07
7.26682e-05
6.47028e-07
7.27489e-05
7.15947e-07
7.28334e-05
7.60464e-07
7.29183e-05
7.89667e-07
7.29994e-05
8.06747e-07
7.30741e-05
8.1428e-07
7.31407e-05
8.14247e-07
7.31984e-05
8.08256e-07
7.32468e-05
7.97627e-07
7.32859e-05
7.83522e-07
7.33157e-05
7.66942e-07
7.33367e-05
7.4874e-07
7.33493e-05
7.2965e-07
7.33538e-05
7.10299e-07
7.33506e-05
6.91235e-07
7.33404e-05
6.72944e-07
7.33232e-05
6.55876e-07
7.32996e-05
6.40473e-07
7.32696e-05
6.27193e-07
7.32335e-05
6.16548e-07
7.31913e-05
6.09159e-07
7.31428e-05
6.05788e-07
7.3088e-05
6.07515e-07
7.30266e-05
6.15615e-07
7.29588e-05
6.32422e-07
7.28854e-05
6.59279e-07
7.28091e-05
7.03042e-07
7.27334e-05
7.54778e-07
8.46963e-07
7.26668e-05
7.45183e-05
-4.23863e-08
7.44875e-05
2.19616e-07
7.44753e-05
3.80306e-07
7.45139e-05
4.98286e-07
7.45728e-05
5.88066e-07
7.46376e-05
6.51225e-07
7.47015e-05
6.96531e-07
7.47631e-05
7.28076e-07
7.4822e-05
7.47844e-07
7.4878e-05
7.58234e-07
7.4931e-05
7.61308e-07
7.49806e-05
7.58666e-07
7.50266e-05
7.516e-07
7.50689e-05
7.41227e-07
7.51073e-05
7.28492e-07
7.51419e-05
7.142e-07
7.51725e-05
6.99046e-07
7.51991e-05
6.83637e-07
7.52219e-05
6.68508e-07
7.52407e-05
6.54148e-07
7.52555e-05
6.41023e-07
7.52664e-05
6.29596e-07
7.52732e-05
6.20359e-07
7.52759e-05
6.13859e-07
7.52743e-05
6.10751e-07
7.52683e-05
6.11819e-07
7.52577e-05
6.18111e-07
7.52425e-05
6.3081e-07
7.52231e-05
6.51798e-07
7.52002e-05
6.82193e-07
7.51774e-05
7.25818e-07
7.5154e-05
7.78233e-07
8.49978e-07
7.5151e-05
7.66034e-05
1.00333e-08
7.66276e-05
1.95437e-07
7.66632e-05
3.44749e-07
7.67002e-05
4.61237e-07
7.67372e-05
5.51074e-07
7.67751e-05
6.1337e-07
7.6815e-05
6.56603e-07
7.68566e-05
6.86512e-07
7.68987e-05
7.05733e-07
7.69405e-05
7.16452e-07
7.69813e-05
7.20479e-07
7.70207e-05
7.19232e-07
7.70584e-05
7.13892e-07
7.70942e-05
7.05483e-07
7.71278e-05
6.94888e-07
7.71591e-05
6.8287e-07
7.71881e-05
6.70094e-07
7.72145e-05
6.57148e-07
7.72385e-05
6.44561e-07
7.72598e-05
6.32825e-07
7.72784e-05
6.2241e-07
7.72942e-05
6.13794e-07
7.73071e-05
6.07482e-07
7.73169e-05
6.04035e-07
7.73236e-05
6.0411e-07
7.73269e-05
6.08472e-07
7.73269e-05
6.18084e-07
7.73238e-05
6.33995e-07
7.73179e-05
6.57677e-07
7.73101e-05
6.90012e-07
7.73026e-05
7.33248e-07
7.72959e-05
7.84993e-07
8.49808e-07
7.7296e-05
7.8831e-05
2.49707e-08
7.88382e-05
1.88261e-07
7.88555e-05
3.27402e-07
7.88833e-05
4.33474e-07
7.89182e-05
5.16159e-07
7.89556e-05
5.75926e-07
7.89937e-05
6.18529e-07
7.90317e-05
6.4852e-07
7.90692e-05
6.68235e-07
7.91059e-05
6.79691e-07
7.91418e-05
6.84661e-07
7.91764e-05
6.84554e-07
7.92098e-05
6.80533e-07
7.92417e-05
6.73596e-07
7.9272e-05
6.646e-07
7.93006e-05
6.54288e-07
7.93273e-05
6.4331e-07
7.93522e-05
6.32245e-07
7.93752e-05
6.21618e-07
7.93961e-05
6.11919e-07
7.94149e-05
6.03626e-07
7.94315e-05
5.97218e-07
7.94457e-05
5.93206e-07
7.94576e-05
5.92145e-07
7.94671e-05
5.9467e-07
7.9474e-05
6.015e-07
7.94786e-05
6.13488e-07
7.94811e-05
6.31536e-07
7.9482e-05
6.5676e-07
7.94821e-05
6.89878e-07
7.94832e-05
7.32167e-07
7.94857e-05
7.82541e-07
8.42694e-07
7.94928e-05
8.10846e-05
3.89526e-08
8.10941e-05
1.7874e-07
8.11168e-05
3.04728e-07
8.11464e-05
4.03886e-07
8.11796e-05
4.82886e-07
8.12139e-05
5.41636e-07
8.12485e-05
5.83958e-07
8.12831e-05
6.13898e-07
8.13175e-05
6.33888e-07
8.13512e-05
6.4591e-07
8.13842e-05
6.51673e-07
8.14162e-05
6.52548e-07
8.14471e-05
6.49662e-07
8.14767e-05
6.43984e-07
8.1505e-05
6.36349e-07
8.15318e-05
6.27482e-07
8.15571e-05
6.18021e-07
8.15808e-05
6.08536e-07
8.16028e-05
5.99549e-07
8.16232e-05
5.91549e-07
8.16418e-05
5.8501e-07
8.16586e-05
5.80412e-07
8.16736e-05
5.78255e-07
8.16866e-05
5.79076e-07
8.16978e-05
5.83471e-07
8.17073e-05
5.92093e-07
8.17151e-05
6.05679e-07
8.17216e-05
6.24981e-07
8.17275e-05
6.50835e-07
8.17336e-05
6.83804e-07
8.17412e-05
7.2463e-07
8.17508e-05
7.72865e-07
8.29052e-07
8.17645e-05
8.34099e-05
4.45861e-08
8.34194e-05
1.6927e-07
8.34394e-05
2.84671e-07
8.34659e-05
3.77418e-07
8.34969e-05
4.51888e-07
8.353e-05
5.08541e-07
8.35638e-05
5.50123e-07
8.35977e-05
5.7999e-07
8.36313e-05
6.00372e-07
8.36641e-05
6.13082e-07
8.3696e-05
6.19717e-07
8.3727e-05
6.216e-07
8.37568e-05
6.19831e-07
8.37854e-05
6.15355e-07
8.38128e-05
6.08991e-07
8.38388e-05
6.01451e-07
8.38635e-05
5.93362e-07
8.38867e-05
5.85288e-07
8.39085e-05
5.77745e-07
8.39289e-05
5.71217e-07
8.39477e-05
5.66172e-07
8.3965e-05
5.6308e-07
8.39809e-05
5.62422e-07
8.39953e-05
5.64706e-07
8.40082e-05
5.70474e-07
8.402e-05
5.80306e-07
8.40309e-05
5.94821e-07
8.40412e-05
6.14627e-07
8.40517e-05
6.40341e-07
8.40632e-05
6.72386e-07
8.40766e-05
7.11186e-07
8.40929e-05
7.56566e-07
8.08578e-07
8.41134e-05
8.57962e-05
4.71447e-08
8.58056e-05
1.59881e-07
8.5825e-05
2.65209e-07
8.58507e-05
3.51717e-07
8.58807e-05
4.21919e-07
8.59128e-05
4.76438e-07
8.59457e-05
5.1718e-07
8.59789e-05
5.46853e-07
8.60118e-05
5.67494e-07
8.60441e-05
5.80781e-07
8.60756e-05
5.88209e-07
8.61061e-05
5.91038e-07
8.61356e-05
5.90328e-07
8.6164e-05
5.86993e-07
8.61912e-05
5.81828e-07
8.62171e-05
5.75527e-07
8.62417e-05
5.68705e-07
8.62651e-05
5.61915e-07
8.62872e-05
5.55663e-07
8.6308e-05
5.50424e-07
8.63275e-05
5.46654e-07
8.63458e-05
5.44804e-07
8.63629e-05
5.45329e-07
8.63789e-05
5.48696e-07
8.6394e-05
5.55391e-07
8.64084e-05
5.65912e-07
8.64224e-05
5.80766e-07
8.64366e-05
6.00428e-07
8.64516e-05
6.25342e-07
8.64682e-05
6.55801e-07
8.64874e-05
6.92027e-07
8.651e-05
7.3392e-07
7.81303e-07
8.65373e-05
8.82499e-05
4.72303e-08
8.82595e-05
1.50303e-07
8.8278e-05
2.46691e-07
8.83024e-05
3.27347e-07
8.83309e-05
3.93384e-07
8.83619e-05
4.45471e-07
8.8394e-05
4.85029e-07
8.84266e-05
5.14248e-07
8.84592e-05
5.34953e-07
8.84913e-05
5.48675e-07
8.85227e-05
5.56788e-07
8.85533e-05
5.60473e-07
8.85829e-05
5.60742e-07
8.86114e-05
5.58468e-07
8.86388e-05
5.54419e-07
8.86651e-05
5.49265e-07
8.86902e-05
5.43605e-07
8.87141e-05
5.37976e-07
8.87369e-05
5.32869e-07
8.87586e-05
5.28745e-07
8.87792e-05
5.26041e-07
8.87988e-05
5.25182e-07
8.88175e-05
5.2659e-07
8.88355e-05
5.30687e-07
8.8853e-05
5.37895e-07
8.88703e-05
5.48631e-07
8.88878e-05
5.63297e-07
8.8906e-05
5.82251e-07
8.89255e-05
6.05792e-07
8.89472e-05
6.34097e-07
8.8972e-05
6.67245e-07
8.90008e-05
7.05123e-07
7.4742e-07
8.90347e-05
9.07726e-05
4.59326e-08
9.07822e-05
1.40743e-07
9.07998e-05
2.29053e-07
9.08231e-05
3.04055e-07
9.08505e-05
3.65993e-07
9.08805e-05
4.15492e-07
9.09119e-05
4.53644e-07
9.09439e-05
4.82206e-07
9.09761e-05
5.02785e-07
9.1008e-05
5.16766e-07
9.10394e-05
5.25407e-07
9.107e-05
5.29812e-07
9.10998e-05
5.30933e-07
9.11287e-05
5.29604e-07
9.11565e-05
5.26554e-07
9.11834e-05
5.22429e-07
9.12092e-05
5.17804e-07
9.1234e-05
5.13196e-07
9.12578e-05
5.09076e-07
9.12806e-05
5.05883e-07
9.13026e-05
5.0403e-07
9.13239e-05
5.03911e-07
9.13446e-05
5.05909e-07
9.13649e-05
5.10396e-07
9.1385e-05
5.17728e-07
9.14054e-05
5.28245e-07
9.14265e-05
5.42252e-07
9.14487e-05
5.60001e-07
9.14728e-05
5.81675e-07
9.14996e-05
6.07349e-07
9.15298e-05
6.36992e-07
9.15645e-05
6.70439e-07
7.07301e-07
9.16046e-05
9.33668e-05
4.37964e-08
9.33763e-05
1.3122e-07
9.33932e-05
2.12209e-07
9.34154e-05
2.81791e-07
9.34417e-05
3.39723e-07
9.34707e-05
3.86522e-07
9.35012e-05
4.2306e-07
9.35327e-05
4.50753e-07
9.35645e-05
4.71001e-07
9.35962e-05
4.85054e-07
9.36275e-05
4.94056e-07
9.36583e-05
4.99025e-07
9.36884e-05
5.00855e-07
9.37177e-05
5.0033e-07
9.37461e-05
4.98143e-07
9.37736e-05
4.94907e-07
9.38002e-05
4.9117e-07
9.3826e-05
4.87424e-07
9.3851e-05
4.84116e-07
9.38752e-05
4.81657e-07
9.38988e-05
4.8043e-07
9.39219e-05
4.80796e-07
9.39447e-05
4.83093e-07
9.39675e-05
4.87641e-07
9.39905e-05
4.94734e-07
9.40141e-05
5.04634e-07
9.40388e-05
5.17562e-07
9.40651e-05
5.33679e-07
9.40937e-05
5.53069e-07
9.41253e-05
5.75722e-07
9.41608e-05
6.01521e-07
9.4201e-05
6.30243e-07
6.61453e-07
9.42469e-05
9.60347e-05
4.12023e-08
9.60441e-05
1.21818e-07
9.60602e-05
1.961e-07
9.60815e-05
2.60473e-07
9.61068e-05
3.1447e-07
9.61348e-05
3.58489e-07
9.61646e-05
3.93244e-07
9.61955e-05
4.19885e-07
9.62269e-05
4.39619e-07
9.62583e-05
4.53564e-07
9.62896e-05
4.62755e-07
9.63205e-05
4.68126e-07
9.63509e-05
4.70509e-07
9.63806e-05
4.70636e-07
9.64096e-05
4.6916e-07
9.64378e-05
4.66659e-07
9.64653e-05
4.63649e-07
9.64922e-05
4.60592e-07
9.65184e-05
4.57906e-07
9.65441e-05
4.55974e-07
9.65693e-05
4.55145e-07
9.65944e-05
4.5574e-07
9.66194e-05
4.58053e-07
9.66447e-05
4.6235e-07
9.66706e-05
4.68865e-07
9.66974e-05
4.77792e-07
9.67257e-05
4.89276e-07
9.6756e-05
5.03398e-07
9.67889e-05
5.20164e-07
9.68251e-05
5.39494e-07
9.68655e-05
5.61205e-07
9.69107e-05
5.85028e-07
6.10503e-07
9.69616e-05
9.87786e-05
3.8377e-08
9.87878e-05
1.12585e-07
9.88032e-05
1.80653e-07
9.88237e-05
2.4002e-07
9.8848e-05
2.90153e-07
9.88752e-05
3.31341e-07
9.89042e-05
3.64176e-07
9.89345e-05
3.89596e-07
9.89655e-05
4.08642e-07
9.89967e-05
4.22305e-07
9.9028e-05
4.31515e-07
9.9059e-05
4.37125e-07
9.90896e-05
4.39901e-07
9.91197e-05
4.40524e-07
9.91493e-05
4.39602e-07
9.91782e-05
4.37673e-07
9.92067e-05
4.3522e-07
9.92346e-05
4.32673e-07
9.92621e-05
4.30419e-07
9.92893e-05
4.28805e-07
9.93163e-05
4.28145e-07
9.93433e-05
4.28719e-07
9.93705e-05
4.30778e-07
9.93984e-05
4.34536e-07
9.94271e-05
4.4017e-07
9.9457e-05
4.47812e-07
9.94888e-05
4.57542e-07
9.95228e-05
4.69376e-07
9.95597e-05
4.83257e-07
9.96001e-05
4.9905e-07
9.96448e-05
5.16528e-07
9.96945e-05
5.35387e-07
5.55167e-07
9.97498e-05
0.000101601
3.54592e-08
0.00010161
1.03559e-07
0.000101625
1.65808e-07
0.000101644
2.20355e-07
0.000101668
2.66689e-07
0.000101694
3.05009e-07
0.000101722
3.35808e-07
0.000101752
3.59862e-07
0.000101783
3.78058e-07
0.000101814
3.91273e-07
0.000101845
4.00339e-07
0.000101876
4.06027e-07
0.000101907
4.09038e-07
0.000101937
4.09998e-07
0.000101968
4.09468e-07
0.000101997
4.07949e-07
0.000102027
4.05883e-07
0.000102056
4.03667e-07
0.000102084
4.01653e-07
0.000102113
4.00153e-07
0.000102142
3.99444e-07
0.000102171
3.99765e-07
0.0001022
4.01322e-07
0.00010223
4.04282e-07
0.000102262
4.08771e-07
0.000102295
4.14866e-07
0.00010233
4.22593e-07
0.000102367
4.31916e-07
0.000102408
4.4273e-07
0.000102452
4.5486e-07
0.0001025
4.68052e-07
0.000102554
4.81984e-07
4.96214e-07
0.000102613
0.000104503
3.25292e-08
0.000104512
9.47612e-08
0.000104526
1.51507e-07
0.000104545
2.01403e-07
0.000104568
2.43998e-07
0.000104594
2.79425e-07
0.000104621
3.08093e-07
0.000104651
3.30647e-07
0.000104681
3.47846e-07
0.000104712
3.60457e-07
0.000104743
3.69221e-07
0.000104774
3.7483e-07
0.000104805
3.77918e-07
0.000104836
3.79059e-07
0.000104867
3.78765e-07
0.000104897
3.77493e-07
0.000104927
3.75648e-07
0.000104957
3.73589e-07
0.000104987
3.71632e-07
0.000105018
3.70053e-07
0.000105048
3.6909e-07
0.000105079
3.68946e-07
0.00010511
3.69782e-07
0.000105143
3.71721e-07
0.000105177
3.74845e-07
0.000105212
3.79186e-07
0.00010525
3.84725e-07
0.000105291
3.91384e-07
0.000105335
3.99028e-07
0.000105382
4.07454e-07
0.000105434
4.16394e-07
0.00010549
4.25527e-07
4.34439e-07
0.000105552
0.000107489
2.96319e-08
0.000107497
8.62005e-08
0.000107511
1.37698e-07
0.00010753
1.83092e-07
0.000107552
2.22004e-07
0.000107576
2.54519e-07
0.000107604
2.80976e-07
0.000107632
3.01914e-07
0.000107662
3.17978e-07
0.000107693
3.29839e-07
0.000107724
3.38149e-07
0.000107755
3.43527e-07
0.000107787
3.46542e-07
0.000107818
3.47712e-07
0.000107849
3.47499e-07
0.00010788
3.46318e-07
0.000107911
3.44533e-07
0.000107943
3.42465e-07
0.000107974
3.40394e-07
0.000108005
3.38559e-07
0.000108037
3.37162e-07
0.00010807
3.36365e-07
0.000108103
3.36293e-07
0.000108138
3.37031e-07
0.000108174
3.38619e-07
0.000108212
3.41054e-07
0.000108253
3.44281e-07
0.000108296
3.48196e-07
0.000108342
3.52639e-07
0.000108392
3.57396e-07
0.000108447
3.622e-07
0.000108505
3.66737e-07
3.70636e-07
0.000108569
0.00011056
2.679e-08
0.000110568
7.78752e-08
0.000110581
1.24332e-07
0.000110599
1.65357e-07
0.000110621
2.00636e-07
0.000110645
2.30224e-07
0.000110671
2.544e-07
0.0001107
2.73616e-07
0.000110729
2.88421e-07
0.00011076
2.99395e-07
0.000110791
3.07109e-07
0.000110822
3.12112e-07
0.000110854
3.14908e-07
0.000110886
3.1596e-07
0.000110917
3.15682e-07
0.000110949
3.14444e-07
0.000110981
3.12569e-07
0.000111013
3.1034e-07
0.000111046
3.08e-07
0.000111079
3.05751e-07
0.000111112
3.03761e-07
0.000111146
3.02156e-07
0.000111181
3.01027e-07
0.000111218
3.00424e-07
0.000111256
3.00356e-07
0.000111297
3.00789e-07
0.000111339
3.01645e-07
0.000111385
3.02799e-07
0.000111433
3.04081e-07
0.000111485
3.05277e-07
0.000111541
3.06127e-07
0.000111602
3.06337e-07
3.05584e-07
0.000111667
0.000113718
2.40132e-08
0.000113726
6.97764e-08
0.000113739
1.11365e-07
0.000113757
1.48132e-07
0.000113777
1.79824e-07
0.000113801
2.06472e-07
0.000113827
2.28307e-07
0.000113855
2.45707e-07
0.000113884
2.59137e-07
0.000113915
2.69097e-07
0.000113946
2.76084e-07
0.000113977
2.80575e-07
0.000114009
2.83015e-07
0.000114041
2.83813e-07
0.000114074
2.83333e-07
0.000114106
2.81901e-07
0.000114139
2.79799e-07
0.000114172
2.77272e-07
0.000114206
2.74526e-07
0.00011424
2.71731e-07
0.000114274
2.69018e-07
0.00011431
2.66483e-07
0.000114347
2.64185e-07
0.000114385
2.62147e-07
0.000114425
2.60351e-07
0.000114467
2.58743e-07
0.000114512
2.57226e-07
0.000114559
2.55667e-07
0.000114609
2.53893e-07
0.000114662
2.51696e-07
0.00011472
2.48834e-07
0.000114781
2.45039e-07
2.40038e-07
0.000114847
0.000116967
2.13032e-08
0.000116975
6.18896e-08
0.000116988
9.87524e-08
0.000117004
1.31359e-07
0.000117025
1.59501e-07
0.000117048
1.83197e-07
0.000117074
2.02637e-07
0.000117101
2.18136e-07
0.00011713
2.30088e-07
0.00011716
2.38918e-07
0.000117191
2.45054e-07
0.000117223
2.48908e-07
0.000117255
2.50867e-07
0.000117288
2.51284e-07
0.000117321
2.50478e-07
0.000117354
2.48729e-07
0.000117387
2.4628e-07
0.000117421
2.43337e-07
0.000117456
2.40072e-07
0.000117491
2.36622e-07
0.000117527
2.33087e-07
0.000117564
2.29535e-07
0.000117602
2.25998e-07
0.000117642
2.22476e-07
0.000117683
2.18931e-07
0.000117726
2.15294e-07
0.000117772
2.11459e-07
0.000117821
2.0729e-07
0.000117872
2.0262e-07
0.000117926
1.97253e-07
0.000117984
1.90969e-07
0.000118046
1.83533e-07
1.7472e-07
0.000118111
0.000120309
1.86576e-08
0.000120316
5.41969e-08
0.000120329
8.64542e-08
0.000120345
1.14981e-07
0.000120365
1.39604e-07
0.000120388
1.60336e-07
0.000120413
1.7733e-07
0.00012044
1.90853e-07
0.000120469
2.01231e-07
0.000120499
2.08826e-07
0.00012053
2.14e-07
0.000120562
2.17104e-07
0.000120595
2.18468e-07
0.000120627
2.18393e-07
0.000120661
2.17151e-07
0.000120695
2.14979e-07
0.000120729
2.12081e-07
0.000120763
2.08626e-07
0.000120799
2.04754e-07
0.000120835
2.0057e-07
0.000120872
1.96147e-07
0.00012091
1.91527e-07
0.000120949
1.86722e-07
0.00012099
1.81711e-07
0.000121032
1.76443e-07
0.000121077
1.7084e-07
0.000121123
1.64794e-07
0.000121173
1.58171e-07
0.000121224
1.50812e-07
0.000121279
1.42543e-07
0.000121337
1.33169e-07
0.000121398
1.22487e-07
1.1032e-07
0.000121462
0.000123746
1.60715e-08
0.000123753
4.66792e-08
0.000123765
7.44315e-08
0.000123781
9.89433e-08
0.000123801
1.20072e-07
0.000123823
1.37825e-07
0.000123848
1.52329e-07
0.000123875
1.63805e-07
0.000123904
1.72525e-07
0.000123934
1.7879e-07
0.000123965
1.82903e-07
0.000123997
1.85156e-07
0.00012403
1.85825e-07
0.000124063
1.85162e-07
0.000124097
1.83392e-07
0.000124131
1.80711e-07
0.000124166
1.77283e-07
0.000124201
1.73245e-07
0.000124237
1.68705e-07
0.000124274
1.63738e-07
0.000124312
1.58395e-07
0.000124351
1.52695e-07
0.000124391
1.46631e-07
0.000124432
1.4017e-07
0.000124476
1.33252e-07
0.000124521
1.25794e-07
0.000124568
1.17688e-07
0.000124617
1.0881e-07
0.000124669
9.90159e-08
0.000124723
8.81504e-08
0.00012478
7.60475e-08
0.00012484
6.25359e-08
4.74846e-08
0.000124903
0.000127281
1.35386e-08
0.000127288
3.93156e-08
0.0001273
6.26457e-08
0.000127316
8.31938e-08
0.000127335
1.00843e-07
0.000127357
1.156e-07
0.000127382
1.2757e-07
0.000127409
1.36936e-07
0.000127438
1.43922e-07
0.000127468
1.48776e-07
0.000127499
1.51744e-07
0.000127531
1.53061e-07
0.000127564
1.52952e-07
0.000127597
1.51622e-07
0.000127631
1.49251e-07
0.000127666
1.45994e-07
0.000127701
1.41981e-07
0.000127737
1.37315e-07
0.000127774
1.32073e-07
0.000127811
1.26308e-07
0.00012785
1.20047e-07
0.000127889
1.13291e-07
0.00012793
1.06019e-07
0.000127972
9.81887e-08
0.000128015
8.97341e-08
0.000128061
8.05718e-08
0.000128108
7.06013e-08
0.000128157
5.97075e-08
0.000128208
4.77641e-08
0.000128262
3.46379e-08
0.000128317
2.01912e-08
0.000128376
4.28473e-09
-1.31719e-08
0.000128436
0.000130917
1.10545e-08
0.000130925
3.20907e-08
0.000130936
5.10679e-08
0.000130952
6.76905e-08
0.000130971
8.18651e-08
0.000130993
9.36034e-08
0.000131017
1.02995e-07
0.000131044
1.10192e-07
0.000131073
1.15372e-07
0.000131103
1.18744e-07
0.000131134
1.20494e-07
0.000131166
1.20806e-07
0.000131199
1.19854e-07
0.000131233
1.17797e-07
0.000131267
1.14775e-07
0.000131303
1.10902e-07
0.000131338
1.06273e-07
0.000131375
1.00961e-07
0.000131412
9.50164e-08
0.00013145
8.84698e-08
0.000131488
8.13275e-08
0.000131528
7.35771e-08
0.000131569
6.51865e-08
0.000131611
5.61055e-08
0.000131654
4.62678e-08
0.000131699
3.55924e-08
0.000131746
2.39873e-08
0.000131794
1.13505e-08
0.000131844
-2.42649e-09
0.000131897
-1.74544e-08
0.000131951
-3.38439e-08
0.000132007
-5.17046e-08
-7.10895e-08
0.000132064
0.000134658
8.60774e-09
0.000134665
2.49764e-08
0.000134676
3.96511e-08
0.000134691
5.23699e-08
0.00013471
6.30657e-08
0.000134732
7.17603e-08
0.000134757
7.85329e-08
0.000134783
8.35081e-08
0.000134812
8.68263e-08
0.000134842
8.86641e-08
0.000134873
8.91455e-08
0.000134906
8.83979e-08
0.000134939
8.65548e-08
0.000134973
8.37322e-08
0.000135008
8.00273e-08
0.000135043
7.55208e-08
0.000135079
7.02731e-08
0.000135116
6.43246e-08
0.000135153
5.77057e-08
0.000135191
5.0425e-08
0.00013523
4.24724e-08
0.00013527
3.3824e-08
0.00013531
2.44382e-08
0.000135352
1.42618e-08
0.000135395
3.23052e-09
0.00013544
-8.7342e-09
0.000135485
-2.17124e-08
0.000135532
-3.57928e-08
0.000135581
-5.10653e-08
0.000135631
-6.76187e-08
0.000135683
-8.55385e-08
0.000135736
-1.04907e-07
-1.25744e-07
0.000135791
0.000138505
6.21654e-09
0.000138512
1.79976e-08
0.000138523
2.84156e-08
0.000138538
3.72336e-08
0.000138557
4.44206e-08
0.000138578
5.00212e-08
0.000138603
5.41148e-08
0.000138629
5.68057e-08
0.000138658
5.81907e-08
0.000138688
5.84446e-08
0.00013872
5.76173e-08
0.000138752
5.57832e-08
0.000138786
5.30313e-08
0.00013882
4.94332e-08
0.000138855
4.50474e-08
0.000138891
3.99199e-08
0.000138927
3.40779e-08
0.000138964
2.75334e-08
0.000139001
2.03041e-08
0.000139039
1.23729e-08
0.000139078
3.71389e-09
0.000139118
-5.70073e-09
0.000139158
-1.5922e-08
0.000139199
-2.70048e-08
0.000139241
-3.90111e-08
0.000139285
-5.20103e-08
0.000139329
-6.60738e-08
0.000139375
-8.12754e-08
0.000139421
-9.76878e-08
0.000139469
-1.15379e-07
0.000139518
-1.34413e-07
0.000139568
-1.54845e-07
-1.76672e-07
0.000139619
0.000142462
3.80175e-09
0.000142469
1.10417e-08
0.00014248
1.72286e-08
0.000142495
2.21509e-08
0.000142513
2.58187e-08
0.000142535
2.8302e-08
0.00014256
2.96839e-08
0.000142586
3.00495e-08
0.000142615
2.9478e-08
0.000142645
2.81563e-08
0.000142677
2.59784e-08
0.00014271
2.30196e-08
0.000142743
1.93377e-08
0.000142778
1.49601e-08
0.000142813
9.90717e-09
0.000142849
4.20024e-09
0.000142885
-2.17351e-09
0.000142922
-9.26266e-09
0.000142959
-1.70165e-08
0.000142997
-2.54894e-08
0.000143035
-3.47155e-08
0.000143075
-4.47377e-08
0.000143114
-5.56074e-08
0.000143155
-6.73794e-08
0.000143196
-8.01125e-08
0.000143238
-9.38681e-08
0.00014328
-1.08708e-07
0.000143324
-1.24692e-07
0.000143368
-1.41876e-07
0.000143413
-1.6031e-07
0.000143458
-1.80036e-07
0.000143505
-2.01091e-07
-2.23448e-07
0.000143551
0.000146531
1.62595e-09
0.000146538
4.4229e-09
0.000146549
6.35884e-09
0.000146564
7.26107e-09
0.000146582
7.25475e-09
0.000146604
6.48258e-09
0.000146629
5.05694e-09
0.000146656
2.99943e-09
0.000146685
2.37888e-10
0.000146716
-2.56984e-09
0.000146748
-6.03313e-09
0.000146781
-1.00551e-08
0.000146815
-1.46166e-08
0.00014685
-1.97208e-08
0.000146885
-2.53787e-08
0.000146921
-3.16125e-08
0.000146957
-3.84538e-08
0.000146994
-4.59388e-08
0.000147031
-5.40908e-08
0.000147068
-6.29577e-08
0.000147106
-7.2586e-08
0.000147144
-8.30241e-08
0.000147183
-9.43244e-08
0.000147222
-1.06542e-07
0.000147262
-1.1973e-07
0.000147302
-1.33944e-07
0.000147342
-1.49235e-07
0.000147383
-1.6565e-07
0.000147425
-1.8323e-07
0.000147466
-2.02011e-07
0.000147508
-2.22016e-07
0.000147551
-2.43266e-07
-2.65717e-07
0.000147593
0.000150718
-1.05578e-09
0.000150725
-2.58387e-09
0.000150736
-4.74121e-09
0.000150751
-7.70049e-09
0.00015077
-1.12924e-08
0.000150792
-1.53085e-08
0.000150816
-1.95889e-08
0.000150843
-2.40425e-08
0.000150872
-2.86367e-08
0.000150903
-3.32855e-08
0.000150935
-3.81699e-08
0.000150968
-4.33127e-08
0.000151003
-4.87502e-08
0.000151037
-5.45412e-08
0.000151073
-6.07439e-08
0.000151109
-6.74139e-08
0.000151145
-7.46082e-08
0.000151181
-8.2385e-08
0.000151218
-9.07948e-08
0.000151255
-9.98918e-08
0.000151292
-1.09732e-07
0.000151329
-1.2037e-07
0.000151367
-1.31861e-07
0.000151405
-1.44258e-07
0.000151442
-1.57611e-07
0.00015148
-1.71968e-07
0.000151519
-1.8737e-07
0.000151557
-2.03855e-07
0.000151595
-2.21451e-07
0.000151633
-2.40179e-07
0.000151671
-2.60048e-07
0.000151709
-2.81064e-07
-3.03172e-07
0.000151746
0.000155023
-2.35269e-09
0.000155029
-8.23326e-09
0.000155039
-1.50263e-08
0.000155054
-2.25793e-08
0.000155073
-3.0351e-08
0.000155095
-3.79735e-08
0.000155121
-4.52615e-08
0.000155149
-5.21664e-08
0.000155179
-5.8742e-08
0.000155211
-6.50069e-08
0.000155244
-7.11099e-08
0.000155278
-7.71824e-08
0.000155312
-8.33288e-08
0.000155348
-8.96501e-08
0.000155383
-9.62407e-08
0.000155419
-1.03187e-07
0.000155455
-1.10569e-07
0.000155491
-1.18463e-07
0.000155527
-1.26937e-07
0.000155563
-1.36056e-07
0.000155599
-1.45884e-07
0.000155635
-1.5648e-07
0.000155671
-1.67899e-07
0.000155707
-1.80192e-07
0.000155743
-1.93406e-07
0.000155779
-2.07581e-07
0.000155814
-2.22752e-07
0.000155849
-2.38946e-07
0.000155884
-2.56181e-07
0.000155918
-2.74468e-07
0.000155952
-2.93806e-07
0.000155985
-3.1419e-07
-3.35556e-07
0.000156018
0.000159455
-6.53323e-09
0.000159462
-1.57949e-08
0.000159473
-2.59624e-08
0.000159488
-3.69872e-08
0.000159506
-4.83917e-08
0.000159527
-5.95475e-08
0.000159552
-7.00139e-08
0.00015958
-7.96266e-08
0.000159609
-8.84117e-08
0.000159641
-9.64659e-08
0.000159674
-1.03967e-07
0.000159707
-1.11095e-07
0.000159742
-1.18011e-07
0.000159777
-1.24865e-07
0.000159813
-1.31797e-07
0.000159849
-1.38931e-07
0.000159884
-1.46376e-07
0.00015992
-1.54233e-07
0.000159956
-1.62587e-07
0.000159991
-1.71519e-07
0.000160027
-1.811e-07
0.000160061
-1.91394e-07
0.000160096
-2.02459e-07
0.00016013
-2.14345e-07
0.000160164
-2.27096e-07
0.000160197
-2.40748e-07
0.00016023
-2.55329e-07
0.000160261
-2.70858e-07
0.000160293
-2.87347e-07
0.000160323
-3.04797e-07
0.000160352
-3.23199e-07
0.000160381
-3.42539e-07
-3.6275e-07
0.000160408
0.000164003
-3.77684e-09
0.000164006
-1.81175e-08
0.000164015
-3.51102e-08
0.000164031
-5.28434e-08
0.000164052
-6.97188e-08
0.000164077
-8.50082e-08
0.000164106
-9.853e-08
0.000164137
-1.10402e-07
0.000164169
-1.2085e-07
0.000164203
-1.3012e-07
0.000164237
-1.38477e-07
0.000164272
-1.46173e-07
0.000164308
-1.53432e-07
0.000164343
-1.60452e-07
0.000164379
-1.67404e-07
0.000164415
-1.74437e-07
0.00016445
-1.81679e-07
0.000164485
-1.89245e-07
0.00016452
-1.97232e-07
0.000164554
-2.05726e-07
0.000164587
-2.14802e-07
0.000164621
-2.24527e-07
0.000164653
-2.34957e-07
0.000164685
-2.46143e-07
0.000164716
-2.58123e-07
0.000164746
-2.7093e-07
0.000164775
-2.84586e-07
0.000164804
-2.99106e-07
0.000164831
-3.14496e-07
0.000164857
-3.30751e-07
0.000164881
-3.47858e-07
0.000164905
-3.658e-07
-3.84508e-07
0.000164926
0.000168702
-1.36689e-08
0.00016871
-2.65428e-08
0.000168719
-4.3548e-08
0.000168729
-6.33831e-08
0.000168744
-8.46708e-08
0.000168764
-1.04934e-07
0.000168788
-1.22903e-07
0.000168816
-1.38385e-07
0.000168847
-1.51624e-07
0.00016888
-1.62975e-07
0.000168914
-1.72813e-07
0.00016895
-1.81499e-07
0.000168986
-1.89351e-07
0.000169022
-1.96645e-07
0.000169058
-2.03616e-07
0.000169094
-2.10464e-07
0.00016913
-2.17355e-07
0.000169165
-2.2443e-07
0.000169199
-2.31809e-07
0.000169233
-2.39593e-07
0.000169266
-2.47868e-07
0.000169299
-2.56706e-07
0.00016933
-2.66167e-07
0.00016936
-2.76302e-07
0.000169389
-2.87149e-07
0.000169417
-2.98737e-07
0.000169443
-3.11089e-07
0.000169468
-3.24213e-07
0.000169492
-3.38112e-07
0.000169514
-3.52779e-07
0.000169534
-3.68196e-07
0.000169553
-3.84341e-07
-4.01152e-07
0.000169569
0.000173491
6.65459e-09
0.000173485
-2.04206e-08
0.000173496
-5.47297e-08
0.000173519
-8.64463e-08
0.000173549
-1.14526e-07
0.000173582
-1.38042e-07
0.000173617
-1.57698e-07
0.000173653
-1.74101e-07
0.000173689
-1.87814e-07
0.000173725
-1.99352e-07
0.000173762
-2.09183e-07
0.000173798
-2.1772e-07
0.000173834
-2.25309e-07
0.000173869
-2.32239e-07
0.000173904
-2.38752e-07
0.000173939
-2.45051e-07
0.000173973
-2.51303e-07
0.000174006
-2.57653e-07
0.000174039
-2.64218e-07
0.00017407
-2.71101e-07
0.000174101
-2.78386e-07
0.00017413
-2.86144e-07
0.000174158
-2.94433e-07
0.000174185
-3.03303e-07
0.000174211
-3.12789e-07
0.000174235
-3.2292e-07
0.000174258
-3.33714e-07
0.000174279
-3.45179e-07
0.000174298
-3.57318e-07
0.000174315
-3.7012e-07
0.000174331
-3.83572e-07
0.000174344
-3.97651e-07
-4.12297e-07
0.000174355
0.000178499
-2.34256e-08
0.000178502
-2.41749e-08
0.000178492
-4.46355e-08
0.000178484
-7.79607e-08
0.000178487
-1.17999e-07
0.000178502
-1.53127e-07
0.000178526
-1.81624e-07
0.000178556
-2.0409e-07
0.00017859
-2.21905e-07
0.000178627
-2.36113e-07
0.000178665
-2.47542e-07
0.000178705
-2.56888e-07
0.000178744
-2.64707e-07
0.000178783
-2.71442e-07
0.000178822
-2.77444e-07
0.00017886
-2.82993e-07
0.000178897
-2.88311e-07
0.000178933
-2.93575e-07
0.000178968
-2.98931e-07
0.000179001
-3.04495e-07
0.000179033
-3.1036e-07
0.000179063
-3.16604e-07
0.000179092
-3.23289e-07
0.000179119
-3.30461e-07
0.000179145
-3.38159e-07
0.000179168
-3.46409e-07
0.00017919
-3.55228e-07
0.000179209
-3.64624e-07
0.000179226
-3.74598e-07
0.000179241
-3.8514e-07
0.000179254
-3.96237e-07
0.000179264
-4.07869e-07
-4.19981e-07
0.000179272
0.000183486
5.7499e-08
0.000183465
-2.24078e-09
0.000183501
-8.07279e-08
0.000183555
-1.32702e-07
0.000183609
-1.71395e-07
0.000183657
-2.01486e-07
0.000183701
-2.2524e-07
0.000183741
-2.44574e-07
0.00018378
-2.60244e-07
0.000183816
-2.72938e-07
0.000183852
-2.8333e-07
0.000183887
-2.91951e-07
0.000183922
-2.99218e-07
0.000183956
-3.05473e-07
0.000183989
-3.10994e-07
0.000184022
-3.16011e-07
0.000184055
-3.2071e-07
0.000184086
-3.25246e-07
0.000184117
-3.29749e-07
0.000184147
-3.34324e-07
0.000184176
-3.39062e-07
0.000184203
-3.44034e-07
0.000184229
-3.49302e-07
0.000184254
-3.54914e-07
0.000184276
-3.6091e-07
0.000184297
-3.67319e-07
0.000184316
-3.74161e-07
0.000184333
-3.81448e-07
0.000184348
-3.89185e-07
0.00018436
-3.9737e-07
0.00018437
-4.05993e-07
0.000184377
-4.15042e-07
-4.24471e-07
0.000184381
0.000188861
8.15797e-09
0.000188797
6.17988e-08
0.000188713
3.297e-09
0.000188651
-7.01052e-08
0.000188633
-1.53758e-07
0.000188648
-2.16596e-07
0.000188682
-2.59545e-07
0.000188728
-2.89874e-07
0.000188779
-3.11805e-07
0.000188834
-3.27964e-07
0.000188891
-3.40025e-07
0.000188948
-3.49138e-07
0.000189005
-3.56123e-07
0.000189061
-3.61573e-07
0.000189116
-3.65927e-07
0.00018917
-3.69512e-07
0.000189221
-3.72578e-07
0.000189272
-3.75319e-07
0.00018932
-3.77888e-07
0.000189366
-3.80406e-07
0.00018941
-3.82972e-07
0.000189451
-3.85665e-07