/*--------------------------------*- C++ -*----------------------------------*\
| =========                 |                                                 |
| \\      /  F ield         | OpenFOAM: The Open Source CFD Toolbox           |
|  \\    /   O peration     | Version:  2.1.1                                 |
|   \\  /    A nd           | Web:      www.OpenFOAM.org                      |
|    \\/     M anipulation  |                                                 |
\*---------------------------------------------------------------------------*/
FoamFile
{
    version     2.0;
    format      ascii;
    class       volVectorField;
    location    "0.06";
    object      U;
}
// * * * * * * * * * * * * * * * * * * * * * * * * * * * * * * * * * * * * * //

dimensions      [0 1 -1 0 0 0 0];

internalField   nonuniform List<vector> 
6820
(
(8.34337 -0.360072 0)
(8.40105 -0.247133 0)
(8.35594 -0.115268 0)
(8.24748 -0.0365209 0)
(8.11882 0.00606151 0)
(7.98512 0.027944 0)
(7.85267 0.0387366 0)
(7.72486 0.0434604 0)
(7.6031 0.0447572 0)
(7.48792 0.0440851 0)
(7.37954 0.0422867 0)
(7.27799 0.0398675 0)
(7.18313 0.0371401 0)
(7.09472 0.0343018 0)
(7.01247 0.0314782 0)
(6.93603 0.028749 0)
(6.86501 0.0261643 0)
(6.79902 0.0237545 0)
(6.73766 0.0215371 0)
(6.68051 0.0195217 0)
(6.62717 0.0177134 0)
(6.57722 0.0161158 0)
(6.53024 0.0147334 0)
(6.48581 0.013574 0)
(6.44349 0.0126519 0)
(6.40279 0.0119931 0)
(6.36318 0.0116405 0)
(6.32398 0.0116811 0)
(6.28436 0.0122427 0)
(6.24307 0.0136719 0)
(6.19783 0.0167291 0)
(6.14628 0.021911 0)
(6.07554 0.0425449 0)
(8.32138 0.16626 0)
(8.28708 0.190032 0)
(8.2854 0.132202 0)
(8.31734 0.095942 0)
(8.36158 0.075132 0)
(8.40156 0.0624954 0)
(8.43255 0.0550427 0)
(8.4545 0.0505554 0)
(8.46826 0.047693 0)
(8.47485 0.0457429 0)
(8.47529 0.0443111 0)
(8.47051 0.0431613 0)
(8.46134 0.0421564 0)
(8.44851 0.0412216 0)
(8.43263 0.0403193 0)
(8.41425 0.039434 0)
(8.39385 0.0385641 0)
(8.37182 0.0377156 0)
(8.34851 0.0368997 0)
(8.3242 0.0361308 0)
(8.29913 0.0354263 0)
(8.27348 0.0348067 0)
(8.24741 0.0342967 0)
(8.22102 0.0339273 0)
(8.1944 0.0337395 0)
(8.16758 0.0337891 0)
(8.14061 0.0341583 0)
(8.11341 0.0349764 0)
(8.08615 0.036434 0)
(8.05836 0.0389881 0)
(8.0321 0.0430121 0)
(8.00354 0.0510042 0)
(7.99436 0.0623945 0)
(8.3225 -0.0608745 0)
(8.31395 -0.0832438 0)
(8.33043 -0.0540348 0)
(8.34416 -0.0202086 0)
(8.35293 0.00253823 0)
(8.36182 0.0167059 0)
(8.3714 0.0259916 0)
(8.38124 0.0322613 0)
(8.39087 0.0365399 0)
(8.3999 0.0394738 0)
(8.40806 0.0414595 0)
(8.41524 0.0427434 0)
(8.42135 0.0435019 0)
(8.42638 0.0438691 0)
(8.43034 0.043948 0)
(8.43326 0.0438193 0)
(8.43518 0.0435477 0)
(8.43615 0.0431864 0)
(8.43622 0.0427802 0)
(8.43544 0.0423682 0)
(8.43386 0.0419866 0)
(8.43151 0.0416704 0)
(8.42843 0.0414565 0)
(8.42463 0.0413863 0)
(8.42012 0.0415103 0)
(8.41491 0.0418916 0)
(8.40899 0.042622 0)
(8.4023 0.0438093 0)
(8.3949 0.0456819 0)
(8.38669 0.0483191 0)
(8.37817 0.0526107 0)
(8.3689 0.0569168 0)
(8.36127 0.0662013 0)
(8.33365 0.0145823 0)
(8.32973 0.047762 0)
(8.32728 0.054084 0)
(8.32853 0.0466979 0)
(8.3343 0.041245 0)
(8.34168 0.0387955 0)
(8.349 0.0380448 0)
(8.35602 0.0380664 0)
(8.36276 0.0383611 0)
(8.3692 0.0387105 0)
(8.37531 0.0390183 0)
(8.38105 0.0392459 0)
(8.3864 0.0393868 0)
(8.39135 0.0394479 0)
(8.39586 0.0394421 0)
(8.39995 0.039386 0)
(8.40359 0.0392983 0)
(8.4068 0.0391995 0)
(8.40956 0.0391114 0)
(8.41188 0.0390577 0)
(8.41377 0.0390642 0)
(8.41521 0.0391601 0)
(8.4162 0.0393801 0)
(8.41674 0.0397659 0)
(8.41681 0.0403708 0)
(8.41639 0.0412624 0)
(8.41547 0.0425338 0)
(8.41402 0.0443008 0)
(8.4121 0.046743 0)
(8.40967 0.0500225 0)
(8.40713 0.0545022 0)
(8.40431 0.0600304 0)
(8.40264 0.0675213 0)
(8.3302 -0.00528821 0)
(8.32719 -0.00744275 0)
(8.33128 -0.00232077 0)
(8.33586 0.00822588 0)
(8.33981 0.0174573 0)
(8.34383 0.0237369 0)
(8.34807 0.0279917 0)
(8.35251 0.0310351 0)
(8.35708 0.0332701 0)
(8.36166 0.0349307 0)
(8.36617 0.0361646 0)
(8.37054 0.0370692 0)
(8.37474 0.0377147 0)
(8.37874 0.0381571 0)
(8.38251 0.0384439 0)
(8.38605 0.038617 0)
(8.38933 0.0387144 0)
(8.39234 0.0387709 0)
(8.39509 0.0388193 0)
(8.39755 0.038892 0)
(8.39973 0.0390222 0)
(8.4016 0.0392451 0)
(8.40317 0.0396006 0)
(8.40441 0.0401349 0)
(8.40531 0.0409045 0)
(8.40585 0.0419782 0)
(8.40604 0.0434464 0)
(8.40586 0.0454133 0)
(8.40537 0.0480331 0)
(8.40458 0.0514138 0)
(8.40373 0.0558337 0)
(8.40285 0.0610611 0)
(8.40249 0.0677279 0)
(8.33238 0.00231974 0)
(8.33115 0.0133969 0)
(8.3327 0.0205418 0)
(8.33531 0.0240058 0)
(8.33864 0.0262358 0)
(8.34254 0.0281253 0)
(8.34658 0.0298908 0)
(8.35061 0.0314833 0)
(8.35461 0.0328247 0)
(8.35854 0.0339071 0)
(8.36238 0.0347555 0)
(8.36611 0.0354016 0)
(8.36971 0.0358782 0)
(8.37316 0.0362195 0)
(8.37645 0.0364581 0)
(8.37957 0.0366253 0)
(8.3825 0.0367507 0)
(8.38523 0.036863 0)
(8.38776 0.036991 0)
(8.39008 0.037164 0)
(8.39218 0.0374135 0)
(8.39406 0.0377739 0)
(8.39569 0.0382846 0)
(8.39708 0.0389917 0)
(8.39821 0.0399506 0)
(8.39908 0.0412284 0)
(8.39969 0.0429083 0)
(8.40005 0.0450852 0)
(8.40022 0.0478825 0)
(8.40024 0.051399 0)
(8.40028 0.0558004 0)
(8.40041 0.0610236 0)
(8.40089 0.0673154 0)
(8.33232 0.000915003 0)
(8.33149 0.00591043 0)
(8.33331 0.0109646 0)
(8.33626 0.0158445 0)
(8.33954 0.0203143 0)
(8.34305 0.0239174 0)
(8.34661 0.0267022 0)
(8.35017 0.0288658 0)
(8.35372 0.0305473 0)
(8.35723 0.0318518 0)
(8.36066 0.03286 0)
(8.36401 0.0336317 0)
(8.36724 0.0342149 0)
(8.37035 0.0346513 0)
(8.37333 0.0349782 0)
(8.37616 0.0352294 0)
(8.37884 0.0354369 0)
(8.38136 0.0356314 0)
(8.38371 0.0358434 0)
(8.38589 0.0361039 0)
(8.3879 0.0364458 0)
(8.38972 0.0369048 0)
(8.39136 0.0375212 0)
(8.3928 0.0383412 0)
(8.39404 0.0394191 0)
(8.3951 0.0408181 0)
(8.39598 0.0426139 0)
(8.39671 0.0448897 0)
(8.39734 0.0477453 0)
(8.39793 0.0512629 0)
(8.3986 0.0555542 0)
(8.39945 0.0606114 0)
(8.40062 0.0665519 0)
(8.33272 0.00175292 0)
(8.33252 0.00742292 0)
(8.33408 0.0128068 0)
(8.33657 0.0171678 0)
(8.33948 0.0207206 0)
(8.34272 0.0235548 0)
(8.3461 0.0258364 0)
(8.34949 0.0277015 0)
(8.35287 0.0292128 0)
(8.35619 0.03042 0)
(8.35943 0.0313733 0)
(8.36258 0.0321172 0)
(8.36561 0.0326918 0)
(8.36854 0.0331344 0)
(8.37134 0.0334793 0)
(8.374 0.0337589 0)
(8.37654 0.0340039 0)
(8.37893 0.0342445 0)
(8.38119 0.0345106 0)
(8.38329 0.0348329 0)
(8.38525 0.0352441 0)
(8.38706 0.0357794 0)
(8.38871 0.0364784 0)
(8.39022 0.0373855 0)
(8.39159 0.038552 0)
(8.39282 0.0400361 0)
(8.39395 0.0419047 0)
(8.39499 0.0442294 0)
(8.39602 0.0470902 0)
(8.39709 0.0505556 0)
(8.39831 0.0547034 0)
(8.39977 0.059553 0)
(8.40157 0.0651633 0)
(8.33284 0.00184028 0)
(8.3329 0.00661822 0)
(8.33434 0.0112382 0)
(8.33666 0.0152388 0)
(8.33941 0.0187224 0)
(8.34246 0.0216431 0)
(8.34565 0.0240306 0)
(8.34887 0.025971 0)
(8.35208 0.0275333 0)
(8.35526 0.0287791 0)
(8.35836 0.0297662 0)
(8.36138 0.0305437 0)
(8.3643 0.0311538 0)
(8.36711 0.0316346 0)
(8.36981 0.0320207 0)
(8.37239 0.0323447 0)
(8.37485 0.0326373 0)
(8.37718 0.0329284 0)
(8.37939 0.0332481 0)
(8.38147 0.0336269 0)
(8.38343 0.0340972 0)
(8.38526 0.0346936 0)
(8.38698 0.0354543 0)
(8.38859 0.0364215 0)
(8.39009 0.0376425 0)
(8.39152 0.0391698 0)
(8.39289 0.0410613 0)
(8.39425 0.0433775 0)
(8.39565 0.0461821 0)
(8.39716 0.0495303 0)
(8.39887 0.0534776 0)
(8.40088 0.0580498 0)
(8.40327 0.0632759 0)
(8.33293 0.00188846 0)
(8.3332 0.00631342 0)
(8.33454 0.0106421 0)
(8.33666 0.014431 0)
(8.3392 0.0176985 0)
(8.34204 0.0204361 0)
(8.34505 0.0226872 0)
(8.34812 0.0245342 0)
(8.3512 0.0260406 0)
(8.35426 0.0272587 0)
(8.35727 0.028237 0)
(8.3602 0.0290188 0)
(8.36304 0.0296429 0)
(8.36579 0.0301449 0)
(8.36843 0.030558 0)
(8.37096 0.0309134 0)
(8.37339 0.0312412 0)
(8.37571 0.0315706 0)
(8.37791 0.031931 0)
(8.38001 0.0323522 0)
(8.38201 0.0328656 0)
(8.38391 0.0335045 0)
(8.38572 0.0343047 0)
(8.38745 0.0353056 0)
(8.38912 0.0365497 0)
(8.39075 0.0380832 0)
(8.39238 0.0399553 0)
(8.39405 0.0422157 0)
(8.39582 0.0449143 0)
(8.39775 0.0480942 0)
(8.39992 0.051794 0)
(8.40242 0.0560363 0)
(8.40534 0.0608318 0)
(8.33298 0.00185815 0)
(8.33335 0.00590544 0)
(8.33461 0.00984623 0)
(8.33656 0.0133488 0)
(8.33892 0.0164071 0)
(8.34158 0.019016 0)
(8.34442 0.0211959 0)
(8.34735 0.0230026 0)
(8.3503 0.0244877 0)
(8.35325 0.0256977 0)
(8.35616 0.0266778 0)
(8.35902 0.0274693 0)
(8.3618 0.0281095 0)
(8.36449 0.0286328 0)
(8.3671 0.0290713 0)
(8.36961 0.0294554 0)
(8.37202 0.029814 0)
(8.37435 0.0301757 0)
(8.37658 0.0305688 0)
(8.37872 0.0310221 0)
(8.38077 0.0315655 0)
(8.38276 0.0322303 0)
(8.38468 0.0330498 0)
(8.38656 0.0340596 0)
(8.38841 0.0352973 0)
(8.39026 0.0368025 0)
(8.39215 0.0386159 0)
(8.39413 0.0407773 0)
(8.39624 0.0433247 0)
(8.39855 0.0462897 0)
(8.40115 0.0496977 0)
(8.40411 0.0535632 0)
(8.4075 0.0578836 0)
(8.33301 0.0017864 0)
(8.33344 0.00551954 0)
(8.33462 0.00914315 0)
(8.33642 0.012405 0)
(8.33862 0.0152723 0)
(8.3411 0.0177384 0)
(8.34378 0.0198168 0)
(8.34657 0.0215515 0)
(8.3494 0.0229884 0)
(8.35224 0.0241695 0)
(8.35506 0.0251353 0)
(8.35784 0.0259236 0)
(8.36056 0.0265691 0)
(8.36321 0.027104 0)
(8.36578 0.0275587 0)
(8.36828 0.0279621 0)
(8.3707 0.0283419 0)
(8.37303 0.0287254 0)
(8.3753 0.0291394 0)
(8.37749 0.0296112 0)
(8.37962 0.0301689 0)
(8.38171 0.0308413 0)
(8.38375 0.0316586 0)
(8.38578 0.0326523 0)
(8.38781 0.0338548 0)
(8.38988 0.0352991 0)
(8.39203 0.0370179 0)
(8.39429 0.039042 0)
(8.39673 0.0413986 0)
(8.3994 0.0441092 0)
(8.40237 0.047188 0)
(8.40573 0.0506404 0)
(8.40953 0.0544538 0)
(8.33303 0.00169026 0)
(8.33347 0.0051334 0)
(8.33458 0.00845773 0)
(8.33625 0.0114768 0)
(8.3383 0.0141495 0)
(8.34063 0.0164685 0)
(8.34316 0.0184426 0)
(8.34581 0.0201043 0)
(8.34852 0.0214913 0)
(8.35125 0.0226402 0)
(8.35398 0.0235872 0)
(8.35669 0.0243669 0)
(8.35935 0.0250113 0)
(8.36195 0.025551 0)
(8.3645 0.0260144 0)
(8.36698 0.0264289 0)
(8.3694 0.0268207 0)
(8.37176 0.0272155 0)
(8.37406 0.0276387 0)
(8.37631 0.0281156 0)
(8.37852 0.0286719 0)
(8.3807 0.0293338 0)
(8.38287 0.030128 0)
(8.38505 0.0310815 0)
(8.38726 0.0322217 0)
(8.38954 0.0335752 0)
(8.39192 0.0351672 0)
(8.39444 0.0370202 0)
(8.39717 0.0391522 0)
(8.40015 0.0415757 0)
(8.40345 0.0442954 0)
(8.40715 0.0473081 0)
(8.41129 0.0505936 0)
(8.33303 0.00158128 0)
(8.33348 0.00475441 0)
(8.33453 0.00780453 0)
(8.33608 0.0105941 0)
(8.33799 0.0130795 0)
(8.34018 0.0152513 0)
(8.34257 0.0171147 0)
(8.34508 0.0186941 0)
(8.34768 0.020021 0)
(8.35031 0.0211275 0)
(8.35295 0.0220458 0)
(8.35558 0.0228074 0)
(8.35818 0.0234418 0)
(8.36075 0.023977 0)
(8.36326 0.0244398 0)
(8.36573 0.0248556 0)
(8.36816 0.025249 0)
(8.37053 0.0256437 0)
(8.37287 0.0260633 0)
(8.37517 0.0265309 0)
(8.37745 0.0270696 0)
(8.37973 0.0277027 0)
(8.38201 0.0284531 0)
(8.38433 0.0293437 0)
(8.3867 0.0303964 0)
(8.38917 0.0316319 0)
(8.39176 0.0330686 0)
(8.39452 0.0347216 0)
(8.3975 0.0366011 0)
(8.40075 0.0387116 0)
(8.40432 0.0410502 0)
(8.40829 0.0436064 0)
(8.41268 0.0463546 0)
(8.33304 0.00146644 0)
(8.33348 0.00438325 0)
(8.33446 0.00717672 0)
(8.3359 0.00974441 0)
(8.33769 0.012045 0)
(8.33975 0.0140677 0)
(8.34201 0.0158153 0)
(8.3444 0.0173061 0)
(8.34689 0.0185663 0)
(8.34942 0.0196233 0)
(8.35198 0.0205058 0)
(8.35454 0.0212417 0)
(8.35708 0.021858 0)
(8.3596 0.0223805 0)
(8.36209 0.0228338 0)
(8.36454 0.0232414 0)
(8.36696 0.0236259 0)
(8.36936 0.0240092 0)
(8.37172 0.0244125 0)
(8.37407 0.0248568 0)
(8.37642 0.0253623 0)
(8.37878 0.0259491 0)
(8.38117 0.0266364 0)
(8.38362 0.0274429 0)
(8.38614 0.0283855 0)
(8.38877 0.0294793 0)
(8.39154 0.0307367 0)
(8.3945 0.0321662 0)
(8.39768 0.0337715 0)
(8.40114 0.0355504 0)
(8.40493 0.0374939 0)
(8.4091 0.0395859 0)
(8.41368 0.0417976 0)
(8.33304 0.00134986 0)
(8.33346 0.00402122 0)
(8.33439 0.00657281 0)
(8.33574 0.00892698 0)
(8.33741 0.0110466 0)
(8.33935 0.0129199 0)
(8.34149 0.014548 0)
(8.34377 0.0159447 0)
(8.34615 0.0171312 0)
(8.34859 0.0181312 0)
(8.35107 0.0189697 0)
(8.35355 0.0196717 0)
(8.35604 0.0202616 0)
(8.35852 0.0207626 0)
(8.36098 0.0211973 0)
(8.36341 0.0215869 0)
(8.36583 0.0219521 0)
(8.36824 0.0223126 0)
(8.37063 0.0226873 0)
(8.37303 0.0230945 0)
(8.37543 0.0235519 0)
(8.37787 0.024076 0)
(8.38035 0.0246827 0)
(8.3829 0.0253862 0)
(8.38554 0.0261991 0)
(8.38831 0.0271313 0)
(8.39123 0.02819 0)
(8.39434 0.029378 0)
(8.39769 0.0306935 0)
(8.40131 0.0321293 0)
(8.40525 0.0336716 0)
(8.40955 0.0353002 0)
(8.41424 0.0369849 0)
(8.33304 0.00123389 0)
(8.33344 0.00366882 0)
(8.33431 0.00599031 0)
(8.33558 0.00813806 0)
(8.33716 0.0100797 0)
(8.33899 0.0118033 0)
(8.34102 0.0133086 0)
(8.34319 0.0146059 0)
(8.34547 0.0157124 0)
(8.34782 0.0166486 0)
(8.35022 0.0174359 0)
(8.35264 0.0180964 0)
(8.35507 0.0186517 0)
(8.3575 0.0191229 0)
(8.35993 0.01953 0)
(8.36235 0.0198924 0)
(8.36477 0.0202282 0)
(8.36718 0.0205549 0)
(8.36959 0.0208892 0)
(8.37202 0.0212467 0)
(8.37448 0.0216421 0)
(8.37697 0.0220889 0)
(8.37953 0.0225994 0)
(8.38216 0.0231839 0)
(8.38491 0.0238508 0)
(8.38778 0.0246057 0)
(8.39082 0.025451 0)
(8.39405 0.026385 0)
(8.39751 0.0274016 0)
(8.40124 0.0284895 0)
(8.40527 0.0296316 0)
(8.40964 0.0308052 0)
(8.41437 0.03198 0)
(8.33304 0.00111981 0)
(8.33342 0.00332614 0)
(8.33424 0.0054272 0)
(8.33543 0.00737491 0)
(8.33692 0.00914151 0)
(8.33865 0.0107153 0)
(8.34058 0.012095 0)
(8.34266 0.0132885 0)
(8.34484 0.0143095 0)
(8.34711 0.0151752 0)
(8.34943 0.0159042 0)
(8.35179 0.0165157 0)
(8.35417 0.0170288 0)
(8.35656 0.017462 0)
(8.35896 0.017833 0)
(8.36136 0.0181589 0)
(8.36376 0.0184557 0)
(8.36618 0.0187385 0)
(8.3686 0.0190215 0)
(8.37106 0.0193176 0)
(8.37355 0.0196388 0)
(8.37609 0.0199956 0)
(8.37871 0.0203967 0)
(8.38141 0.0208491 0)
(8.38422 0.0213574 0)
(8.38718 0.0219233 0)
(8.39029 0.0225454 0)
(8.3936 0.0232184 0)
(8.39713 0.0239327 0)
(8.40092 0.0246744 0)
(8.40499 0.025424 0)
(8.40937 0.0261577 0)
(8.41408 0.0268458 0)
(8.33303 0.00100818 0)
(8.3334 0.00299292 0)
(8.33418 0.00488153 0)
(8.3353 0.0066347 0)
(8.3367 0.00822879 0)
(8.33835 0.00965273 0)
(8.34018 0.0109045 0)
(8.34217 0.0119899 0)
(8.34427 0.0129201 0)
(8.34646 0.0137094 0)
(8.34871 0.0143735 0)
(8.35101 0.0149289 0)
(8.35333 0.0153922 0)
(8.35568 0.0157796 0)
(8.35804 0.0161064 0)
(8.36042 0.0163873 0)
(8.36281 0.0166362 0)
(8.36523 0.0168657 0)
(8.36766 0.0170875 0)
(8.37013 0.0173121 0)
(8.37265 0.0175486 0)
(8.37522 0.0178046 0)
(8.37787 0.0180859 0)
(8.38062 0.0183962 0)
(8.38348 0.0187369 0)
(8.38648 0.0191065 0)
(8.38964 0.0195005 0)
(8.39299 0.0199107 0)
(8.39655 0.0203251 0)
(8.40035 0.0207279 0)
(8.4044 0.0210986 0)
(8.40874 0.0214129 0)
(8.41337 0.021643 0)
(8.33303 0.000899218 0)
(8.33338 0.00266864 0)
(8.33411 0.00435146 0)
(8.33518 0.00591485 0)
(8.33651 0.00733871 0)
(8.33807 0.0086128 0)
(8.33982 0.00973467 0)
(8.34172 0.0107085 0)
(8.34375 0.0115432 0)
(8.34586 0.0122504 0)
(8.34805 0.0128435 0)
(8.35028 0.0133363 0)
(8.35256 0.0137431 0)
(8.35486 0.0140775 0)
(8.35719 0.0143526 0)
(8.35955 0.0145809 0)
(8.36192 0.0147738 0)
(8.36432 0.0149417 0)
(8.36676 0.0150938 0)
(8.36923 0.0152383 0)
(8.37176 0.0153815 0)
(8.37435 0.0155285 0)
(8.37702 0.0156822 0)
(8.37979 0.0158438 0)
(8.38267 0.0160116 0)
(8.38569 0.0161817 0)
(8.38886 0.016347 0)
(8.39221 0.0164975 0)
(8.39576 0.0166194 0)
(8.39952 0.0166959 0)
(8.40351 0.0167062 0)
(8.40776 0.0166265 0)
(8.41226 0.0164313 0)
(8.33303 0.000792881 0)
(8.33336 0.00235264 0)
(8.33406 0.00383523 0)
(8.33506 0.00521282 0)
(8.33633 0.00646827 0)
(8.33782 0.00759227 0)
(8.33949 0.00858216 0)
(8.34132 0.00944087 0)
(8.34327 0.0101754 0)
(8.34532 0.0107953 0)
(8.34744 0.0113114 0)
(8.34962 0.0117355 0)
(8.35184 0.0120791 0)
(8.35411 0.0123538 0)
(8.3564 0.0125704 0)
(8.35872 0.0127391 0)
(8.36108 0.012869 0)
(8.36346 0.0129682 0)
(8.36588 0.0130438 0)
(8.36835 0.0131013 0)
(8.37088 0.0131449 0)
(8.37347 0.0131771 0)
(8.37614 0.0131986 0)
(8.37891 0.0132079 0)
(8.38179 0.0132014 0)
(8.3848 0.0131729 0)
(8.38795 0.0131136 0)
(8.39126 0.013012 0)
(8.39475 0.0128535 0)
(8.39843 0.0126209 0)
(8.40232 0.0122939 0)
(8.40644 0.0118495 0)
(8.41077 0.0112649 0)
(8.33303 0.000689015 0)
(8.33334 0.00204414 0)
(8.334 0.00333128 0)
(8.33496 0.00452654 0)
(8.33617 0.00561535 0)
(8.33759 0.00658944 0)
(8.33919 0.00744604 0)
(8.34095 0.00818715 0)
(8.34284 0.00881813 0)
(8.34482 0.00934657 0)
(8.34688 0.00978125 0)
(8.34901 0.0101315 0)
(8.35118 0.0104067 0)
(8.3534 0.0106161 0)
(8.35566 0.0107684 0)
(8.35795 0.0108717 0)
(8.36027 0.0109327 0)
(8.36264 0.0109576 0)
(8.36504 0.0109512 0)
(8.36749 0.0109168 0)
(8.37 0.0108565 0)
(8.37258 0.0107706 0)
(8.37523 0.0106577 0)
(8.37797 0.0105145 0)
(8.38082 0.0103355 0)
(8.38379 0.0101129 0)
(8.38689 0.0098368 0)
(8.39013 0.00949473 0)
(8.39354 0.00907188 0)
(8.39711 0.00855114 0)
(8.40086 0.0079131 0)
(8.4048 0.00713631 0)
(8.40893 0.00620058 0)
(8.33303 0.000587388 0)
(8.33332 0.00174226 0)
(8.33396 0.00283766 0)
(8.33487 0.00385285 0)
(8.33602 0.00477543 0)
(8.33738 0.00559823 0)
(8.33893 0.00631865 0)
(8.34062 0.00693807 0)
(8.34244 0.0074606 0)
(8.34437 0.00789228 0)
(8.34637 0.00823992 0)
(8.34845 0.00851076 0)
(8.35058 0.00871215 0)
(8.35275 0.00885119 0)
(8.35497 0.00893437 0)
(8.35722 0.00896751 0)
(8.35951 0.00895551 0)
(8.36184 0.00890227 0)
(8.36422 0.00881057 0)
(8.36664 0.00868186 0)
(8.36912 0.00851619 0)
(8.37166 0.00831206 0)
(8.37428 0.00806628 0)
(8.37698 0.00777392 0)
(8.37977 0.00742815 0)
(8.38268 0.00702016 0)
(8.38569 0.00653921 0)
(8.38884 0.00597252 0)
(8.39212 0.00530538 0)
(8.39555 0.00452132 0)
(8.39913 0.00360214 0)
(8.40286 0.0025281 0)
(8.40675 0.00128179 0)
(8.33303 0.000487793 0)
(8.33331 0.00144655 0)
(8.33391 0.00235417 0)
(8.33478 0.00319274 0)
(8.33589 0.00395186 0)
(8.3372 0.00462539 0)
(8.33868 0.00521084 0)
(8.34032 0.00570896 0)
(8.34209 0.00612261 0)
(8.34396 0.00645639 0)
(8.34591 0.00671504 0)
(8.34794 0.0069037 0)
(8.35002 0.00702782 0)
(8.35215 0.00709261 0)
(8.35432 0.00710268 0)
(8.35654 0.00706191 0)
(8.35879 0.0069733 0)
(8.36108 0.00683881 0)
(8.36342 0.0066594 0)
(8.3658 0.00643481 0)
(8.36823 0.0061634 0)
(8.37073 0.00584213 0)
(8.37329 0.00546641 0)
(8.37593 0.00503007 0)
(8.37865 0.00452534 0)
(8.38146 0.0039427 0)
(8.38437 0.00327106 0)
(8.38739 0.00249771 0)
(8.39053 0.00160841 0)
(8.39378 0.000587629 0)
(8.39716 -0.000581404 0)
(8.40066 -0.00191657 0)
(8.40428 -0.00343261 0)
(8.33303 0.000389863 0)
(8.3333 0.00115494 0)
(8.33387 0.00187505 0)
(8.33471 0.00253441 0)
(8.33577 0.00312475 0)
(8.33703 0.00364169 0)
(8.33847 0.00408369 0)
(8.34006 0.00445166 0)
(8.34177 0.00474774 0)
(8.34359 0.00497601 0)
(8.3455 0.00513962 0)
(8.34747 0.0052417 0)
(8.34951 0.00528552 0)
(8.35159 0.00527405 0)
(8.35372 0.00520981 0)
(8.35589 0.00509471 0)
(8.3581 0.00492983 0)
(8.36035 0.00471539 0)
(8.36264 0.00445078 0)
(8.36497 0.00413402 0)
(8.36734 0.00376193 0)
(8.36977 0.00333023 0)
(8.37226 0.00283322 0)
(8.37482 0.00226378 0)
(8.37744 0.00161348 0)
(8.38014 0.000872544 0)
(8.38293 2.98296e-05 0)
(8.3858 -0.000927047 0)
(8.38876 -0.00201157 0)
(8.39182 -0.00323814 0)
(8.39497 -0.00462194 0)
(8.39821 -0.0061789 0)
(8.40155 -0.00792129 0)
(8.33302 0.000293962 0)
(8.33328 0.000871706 0)
(8.33383 0.00141363 0)
(8.33463 0.00190573 0)
(8.33566 0.0023408 0)
(8.33687 0.00271472 0)
(8.33827 0.00302564 0)
(8.33981 0.00327378 0)
(8.34148 0.00346042 0)
(8.34326 0.00358834 0)
(8.34512 0.00365747 0)
(8.34705 0.00367018 0)
(8.34904 0.00362933 0)
(8.35108 0.00353669 0)
(8.35317 0.00339319 0)
(8.35529 0.00319928 0)
(8.35745 0.00295425 0)
(8.35965 0.00265617 0)
(8.36188 0.00230363 0)
(8.36415 0.00189353 0)
(8.36646 0.00142152 0)
(8.36881 0.000882097 0)
(8.37121 0.000268767 0)
(8.37367 -0.00042608 0)
(8.37618 -0.00121127 0)
(8.37875 -0.00209664 0)
(8.38138 -0.00309311 0)
(8.38409 -0.0042125 0)
(8.38686 -0.00546739 0)
(8.3897 -0.00687093 0)
(8.3926 -0.00843671 0)
(8.39558 -0.0101788 0)
(8.39861 -0.0121071 0)
(8.33302 0.000197597 0)
(8.33327 0.000579135 0)
(8.33381 0.000922964 0)
(8.33458 0.00121865 0)
(8.33557 0.00146462 0)
(8.33676 0.00166166 0)
(8.33811 0.00181071 0)
(8.33961 0.00191283 0)
(8.34124 0.00196757 0)
(8.34297 0.00198526 0)
(8.34479 0.00196021 0)
(8.34667 0.00188879 0)
(8.34862 0.00177073 0)
(8.35061 0.00160571 0)
(8.35265 0.00139279 0)
(8.35472 0.0011304 0)
(8.35683 0.000816752 0)
(8.35897 0.000449699 0)
(8.36113 2.46707e-05 0)
(8.36333 -0.000462837 0)
(8.36556 -0.00101791 0)
(8.36783 -0.00164679 0)
(8.37013 -0.00235652 0)
(8.37247 -0.00315506 0)
(8.37485 -0.00405127 0)
(8.37728 -0.00505491 0)
(8.37975 -0.00617639 0)
(8.38226 -0.00742674 0)
(8.38483 -0.0088175 0)
(8.38743 -0.0103605 0)
(8.39008 -0.0120676 0)
(8.39277 -0.0139511 0)
(8.39549 -0.0160189 0)
(8.33302 0.000111091 0)
(8.33325 0.000336213 0)
(8.33374 0.000540899 0)
(8.33448 0.000708984 0)
(8.33544 0.000834195 0)
(8.33659 0.000914566 0)
(8.33792 0.000950808 0)
(8.33939 0.000944163 0)
(8.341 0.00089744 0)
(8.34271 0.000799965 0)
(8.34449 0.000660636 0)
(8.34635 0.000483364 0)
(8.34826 0.000266373 0)
(8.35021 7.50749e-06 0)
(8.3522 -0.000295444 0)
(8.35422 -0.000645378 0)
(8.35627 -0.0010453 0)
(8.35835 -0.00149848 0)
(8.36045 -0.00201051 0)
(8.36256 -0.00258679 0)
(8.36471 -0.00323322 0)
(8.36687 -0.00395642 0)
(8.36906 -0.00476392 0)
(8.37127 -0.00566393 0)
(8.37351 -0.00666529 0)
(8.37578 -0.00777741 0)
(8.37807 -0.00901019 0)
(8.38039 -0.0103739 0)
(8.38273 -0.011879 0)
(8.38509 -0.0135361 0)
(8.38747 -0.0153556 0)
(8.38987 -0.0173482 0)
(8.39227 -0.0195198 0)
(8.33303 -3.61434e-06 0)
(8.33328 -3.39811e-05 0)
(8.33378 -0.000106707 0)
(8.33451 -0.000216023 0)
(8.33544 -0.00034792 0)
(8.33655 -0.000492818 0)
(8.33784 -0.000646299 0)
(8.33928 -0.000808484 0)
(8.34083 -0.000980446 0)
(8.34248 -0.00117803 0)
(8.34422 -0.0013977 0)
(8.34603 -0.00164021 0)
(8.3479 -0.00191125 0)
(8.34981 -0.00221628 0)
(8.35175 -0.00256029 0)
(8.35372 -0.00294825 0)
(8.35571 -0.00338565 0)
(8.35771 -0.00387853 0)
(8.35974 -0.00443191 0)
(8.36177 -0.00505184 0)
(8.36382 -0.00574503 0)
(8.36588 -0.00651865 0)
(8.36795 -0.00738032 0)
(8.37003 -0.00833815 0)
(8.37212 -0.00940062 0)
(8.37422 -0.0105766 0)
(8.37633 -0.0118752 0)
(8.37844 -0.0133057 0)
(8.38055 -0.0148774 0)
(8.38266 -0.0165995 0)
(8.38477 -0.018481 0)
(8.38687 -0.0205306 0)
(8.38895 -0.0227529 0)
(8.333 -3.81504e-05 0)
(8.33316 -8.05316e-05 0)
(8.33358 -0.000133329 0)
(8.33426 -0.000233173 0)
(8.33518 -0.000390537 0)
(8.33631 -0.000601493 0)
(8.33761 -0.000856449 0)
(8.33907 -0.00114583 0)
(8.34064 -0.0014642 0)
(8.3423 -0.00179816 0)
(8.34404 -0.00215211 0)
(8.34584 -0.00253028 0)
(8.34769 -0.00293486 0)
(8.34956 -0.00336881 0)
(8.35146 -0.00383616 0)
(8.35338 -0.00434166 0)
(8.35531 -0.00489065 0)
(8.35724 -0.00548895 0)
(8.35918 -0.00614271 0)
(8.36113 -0.00685874 0)
(8.36307 -0.00764423 0)
(8.36502 -0.0085067 0)
(8.36695 -0.00945403 0)
(8.36889 -0.0104944 0)
(8.37082 -0.0116361 0)
(8.37274 -0.0128878 0)
(8.37465 -0.0142581 0)
(8.37654 -0.0157557 0)
(8.37842 -0.0173888 0)
(8.38028 -0.0191658 0)
(8.38211 -0.0210945 0)
(8.38391 -0.0231824 0)
(8.38567 -0.0254329 0)
(8.33306 -0.000253213 0)
(8.33337 -0.000837673 0)
(8.33385 -0.00149571 0)
(8.33451 -0.00215627 0)
(8.33536 -0.00276614 0)
(8.33639 -0.00330726 0)
(8.33761 -0.00378231 0)
(8.33898 -0.00420312 0)
(8.34048 -0.00458458 0)
(8.34208 -0.00494123 0)
(8.34376 -0.00528877 0)
(8.34551 -0.00563937 0)
(8.34731 -0.00600315 0)
(8.34914 -0.00638959 0)
(8.35099 -0.00680735 0)
(8.35285 -0.00726428 0)
(8.35473 -0.00776777 0)
(8.3566 -0.00832491 0)
(8.35846 -0.0089426 0)
(8.36032 -0.00962772 0)
(8.36217 -0.0103872 0)
(8.364 -0.0112282 0)
(8.36582 -0.012158 0)
(8.36762 -0.0131838 0)
(8.36939 -0.0143132 0)
(8.37114 -0.0155537 0)
(8.37286 -0.0169126 0)
(8.37454 -0.0183973 0)
(8.37619 -0.0200148 0)
(8.3778 -0.021772 0)
(8.37936 -0.0236751 0)
(8.38087 -0.0257302 0)
(8.38233 -0.0279393 0)
(8.33293 -2.45381e-06 0)
(8.33285 8.26864e-05 0)
(8.33311 8.74821e-05 0)
(8.33376 -0.000106179 0)
(8.33472 -0.000502395 0)
(8.33592 -0.00104243 0)
(8.33731 -0.00166465 0)
(8.33882 -0.00232649 0)
(8.34043 -0.00300251 0)
(8.34212 -0.00367771 0)
(8.34385 -0.00434612 0)
(8.34562 -0.0050077 0)
(8.34742 -0.00566582 0)
(8.34922 -0.00632603 0)
(8.35103 -0.00699516 0)
(8.35284 -0.00768079 0)
(8.35464 -0.00839091 0)
(8.35643 -0.00913374 0)
(8.3582 -0.00991756 0)
(8.35995 -0.0107507 0)
(8.36168 -0.0116415 0)
(8.36338 -0.0125983 0)
(8.36504 -0.0136292 0)
(8.36668 -0.0147424 0)
(8.36828 -0.015946 0)
(8.36983 -0.0172476 0)
(8.37134 -0.0186549 0)
(8.37281 -0.0201749 0)
(8.37421 -0.0218147 0)
(8.37557 -0.0235804 0)
(8.37685 -0.025478 0)
(8.37807 -0.0275129 0)
(8.37922 -0.0296867 0)
(8.33317 -0.000722936 0)
(8.33369 -0.00250989 0)
(8.33411 -0.00437729 0)
(8.33454 -0.00595006 0)
(8.33515 -0.00715972 0)
(8.33601 -0.0080658 0)
(8.33711 -0.00874512 0)
(8.33841 -0.00926373 0)
(8.33987 -0.0096746 0)
(8.34145 -0.0100191 0)
(8.34312 -0.0103294 0)
(8.34484 -0.0106301 0)
(8.34661 -0.0109394 0)
(8.34839 -0.0112714 0)
(8.35018 -0.0116369 0)
(8.35197 -0.012045 0)
(8.35374 -0.0125034 0)
(8.35549 -0.0130186 0)
(8.35722 -0.013597 0)
(8.35891 -0.0142444 0)
(8.36057 -0.0149666 0)
(8.36218 -0.0157693 0)
(8.36375 -0.0166582 0)
(8.36526 -0.0176391 0)
(8.36673 -0.0187174 0)
(8.36813 -0.0198988 0)
(8.36947 -0.0211887 0)
(8.37075 -0.0225921 0)
(8.37195 -0.0241141 0)
(8.37308 -0.025759 0)
(8.37413 -0.0275311 0)
(8.37509 -0.0294341 0)
(8.37597 -0.0314683 0)
(8.33263 0.000612862 0)
(8.33173 0.00210486 0)
(8.33177 0.00308487 0)
(8.33268 0.00311522 0)
(8.33402 0.00236522 0)
(8.33556 0.00120904 0)
(8.33721 -0.000111842 0)
(8.33891 -0.00147334 0)
(8.34064 -0.00280949 0)
(8.34238 -0.00408562 0)
(8.34413 -0.00528824 0)
(8.34588 -0.00641728 0)
(8.34761 -0.00748005 0)
(8.34933 -0.00848759 0)
(8.35103 -0.00945271 0)
(8.35271 -0.0103888 0)
(8.35436 -0.0113089 0)
(8.35597 -0.0122258 0)
(8.35755 -0.0131516 0)
(8.35908 -0.0140975 0)
(8.36057 -0.0150741 0)
(8.36201 -0.0160915 0)
(8.3634 -0.0171591 0)
(8.36473 -0.0182855 0)
(8.366 -0.019479 0)
(8.36719 -0.0207473 0)
(8.36832 -0.0220974 0)
(8.36937 -0.0235357 0)
(8.37033 -0.0250683 0)
(8.37121 -0.0267005 0)
(8.372 -0.0284367 0)
(8.37269 -0.0302814 0)
(8.37328 -0.0322354 0)
(8.33359 -0.00190608 0)
(8.33472 -0.00674598 0)
(8.33452 -0.0114281 0)
(8.33385 -0.014562 0)
(8.33363 -0.0162726 0)
(8.33409 -0.0171609 0)
(8.33504 -0.0175653 0)
(8.33633 -0.0176799 0)
(8.33784 -0.0176408 0)
(8.33951 -0.017537 0)
(8.34128 -0.0174244 0)
(8.34309 -0.0173377 0)
(8.34493 -0.0172982 0)
(8.34677 -0.0173184 0)
(8.34859 -0.0174057 0)
(8.35039 -0.0175647 0)
(8.35214 -0.0177982 0)
(8.35384 -0.0181079 0)
(8.35549 -0.0184957 0)
(8.35708 -0.0189632 0)
(8.35861 -0.0195122 0)
(8.36007 -0.0201447 0)
(8.36146 -0.0208631 0)
(8.36277 -0.0216698 0)
(8.36399 -0.0225674 0)
(8.36514 -0.0235587 0)
(8.36619 -0.0246463 0)
(8.36715 -0.0258329 0)
(8.36801 -0.027121 0)
(8.36876 -0.0285129 0)
(8.36941 -0.0300105 0)
(8.36995 -0.0316159 0)
(8.37037 -0.0333279 0)
(8.33162 0.00372428 0)
(8.32827 0.0103325 0)
(8.32842 0.0135381 0)
(8.33103 0.0135368 0)
(8.33375 0.0115616 0)
(8.33604 0.00878894 0)
(8.33809 0.00585103 0)
(8.33999 0.00299579 0)
(8.34177 0.000334153 0)
(8.34347 -0.00208756 0)
(8.34512 -0.00426541 0)
(8.34672 -0.00621713 0)
(8.3483 -0.0079691 0)
(8.34986 -0.00955044 0)
(8.35139 -0.01099 0)
(8.3529 -0.012315 0)
(8.35439 -0.01355 0)
(8.35584 -0.014717 0)
(8.35726 -0.0158357 0)
(8.35864 -0.0169234 0)
(8.35997 -0.0179955 0)
(8.36125 -0.0190656 0)
(8.36246 -0.0201458 0)
(8.36361 -0.0212469 0)
(8.36468 -0.0223786 0)
(8.36568 -0.0235493 0)
(8.36658 -0.0247667 0)
(8.3674 -0.0260377 0)
(8.36811 -0.0273681 0)
(8.36872 -0.0287632 0)
(8.36922 -0.0302274 0)
(8.36961 -0.0317647 0)
(8.36988 -0.0333763 0)
(8.3343 -0.00639735 0)
(8.33465 -0.0205731 0)
(8.33081 -0.0297312 0)
(8.32687 -0.0336331 0)
(8.32498 -0.0344784 0)
(8.3251 -0.0338835 0)
(8.32636 -0.0326587 0)
(8.32818 -0.0312066 0)
(8.33035 -0.0297499 0)
(8.33273 -0.0284052 0)
(8.33521 -0.0272254 0)
(8.33773 -0.0262285 0)
(8.34026 -0.0254145 0)
(8.34276 -0.024775 0)
(8.34521 -0.0242977 0)
(8.34761 -0.0239692 0)
(8.34994 -0.023777 0)
(8.35219 -0.0237095 0)
(8.35436 -0.0237572 0)
(8.35644 -0.023912 0)
(8.35842 -0.0241673 0)
(8.36031 -0.0245179 0)
(8.3621 -0.0249601 0)
(8.36378 -0.0254908 0)
(8.36535 -0.026108 0)
(8.3668 -0.0268104 0)
(8.36813 -0.027597 0)
(8.36933 -0.0284673 0)
(8.37041 -0.0294211 0)
(8.37135 -0.0304581 0)
(8.37216 -0.0315784 0)
(8.37283 -0.032782 0)
(8.37336 -0.0340668 0)
(8.32884 0.0226141 0)
(8.32236 0.0428256 0)
(8.32671 0.0440815 0)
(8.33337 0.03815 0)
(8.33796 0.0308182 0)
(8.3409 0.0237044 0)
(8.34329 0.0171111 0)
(8.34557 0.0112059 0)
(8.34785 0.0060428 0)
(8.35022 0.00157283 0)
(8.35269 -0.00228583 0)
(8.35525 -0.00561651 0)
(8.3579 -0.00849835 0)
(8.3606 -0.0110034 0)
(8.36333 -0.0131946 0)
(8.36607 -0.0151262 0)
(8.3688 -0.0168444 0)
(8.37149 -0.0183884 0)
(8.37414 -0.0197913 0)
(8.37672 -0.0210816 0)
(8.37922 -0.0222833 0)
(8.38163 -0.0234169 0)
(8.38395 -0.0245002 0)
(8.38615 -0.0255483 0)
(8.38824 -0.0265745 0)
(8.39021 -0.0275901 0)
(8.39205 -0.0286052 0)
(8.39376 -0.0296284 0)
(8.39533 -0.0306672 0)
(8.39675 -0.0317283 0)
(8.39804 -0.0328176 0)
(8.39918 -0.03394 0)
(8.40017 -0.0350991 0)
(8.32437 -0.0380098 0)
(8.29388 -0.0682577 0)
(8.27222 -0.0715823 0)
(8.26677 -0.0684299 0)
(8.27365 -0.0640212 0)
(8.28627 -0.0591588 0)
(8.30103 -0.0544569 0)
(8.31637 -0.0502679 0)
(8.33143 -0.0466522 0)
(8.34577 -0.0435847 0)
(8.35916 -0.0410208 0)
(8.37156 -0.0389025 0)
(8.38298 -0.0371688 0)
(8.39346 -0.0357642 0)
(8.40305 -0.0346402 0)
(8.41182 -0.0337556 0)
(8.41984 -0.0330757 0)
(8.42717 -0.032572 0)
(8.43387 -0.0322211 0)
(8.43998 -0.032004 0)
(8.44557 -0.0319055 0)
(8.45066 -0.0319133 0)
(8.4553 -0.0320176 0)
(8.45953 -0.0322107 0)
(8.46337 -0.0324864 0)
(8.46685 -0.0328399 0)
(8.46999 -0.0332673 0)
(8.47283 -0.0337656 0)
(8.47537 -0.0343324 0)
(8.47764 -0.0349658 0)
(8.47965 -0.0356643 0)
(8.48141 -0.0364263 0)
(8.48295 -0.0372492 0)
(8.34002 0.156995 0)
(8.38201 0.14901 0)
(8.40254 0.10341 0)
(8.39954 0.0645277 0)
(8.38368 0.0358872 0)
(8.3611 0.0155248 0)
(8.33466 0.00109883 0)
(8.30632 -0.00924214 0)
(8.27724 -0.0167481 0)