/*--------------------------------*- C++ -*----------------------------------*\
| =========                 |                                                 |
| \\      /  F ield         | OpenFOAM: The Open Source CFD Toolbox           |
|  \\    /   O peration     | Version:  2.1.1                                 |
|   \\  /    A nd           | Web:      www.OpenFOAM.org                      |
|    \\/     M anipulation  |                                                 |
\*---------------------------------------------------------------------------*/
FoamFile
{
    version     2.0;
    format      ascii;
    class       volScalarField;
    location    "0.04";
    object      epsilon;
}
// * * * * * * * * * * * * * * * * * * * * * * * * * * * * * * * * * * * * * //

dimensions      [0 2 -3 0 0 0 0];

internalField   nonuniform List<scalar> 
6820
(
151.448
203.15
260.735
321.761
383.631
443.734
499.787
550.084
593.573
629.816
658.882
681.214
697.487
708.499
715.075
718.009
718.027
715.769
711.78
706.512
700.337
693.551
686.384
679.013
671.569
664.144
656.795
649.567
642.384
635.607
627.355
626.308
590.336
11.7448
21.4168
29.9418
38.6195
47.5701
56.5395
65.29
73.6202
81.3679
88.4247
94.7362
100.296
105.134
109.308
112.89
115.959
118.594
120.869
122.852
124.604
126.179
127.622
128.975
130.277
131.562
132.868
134.235
135.713
137.364
139.306
141.611
144.828
148.675
5.8378
7.51687
9.2068
10.8096
12.3202
13.7479
15.089
16.3396
17.4982
18.5644
19.54
20.4284
21.2348
21.9657
22.6281
23.2297
23.778
24.2803
24.7436
25.1743
25.5782
25.9607
26.3265
26.6801
27.0253
27.3664
27.7072
28.0527
28.4082
28.7814
29.1876
29.6213
30.2178
5.24229
5.56003
6.00445
6.49353
6.98585
7.4622
7.91348
8.33541
8.72629
9.08597
9.41518
9.71523
9.98781
10.2348
10.4581
10.6597
10.8416
11.0057
11.1536
11.2872
11.4078
11.5169
11.6158
11.7054
11.7868
11.8607
11.9276
11.9877
12.0411
12.0874
12.1251
12.1532
12.1666
5.17349
5.18677
5.26821
5.39777
5.5564
5.72973
5.90787
6.0844
6.25529
6.41811
6.57146
6.71465
6.84744
6.96987
7.08222
7.1849
7.27839
7.36324
7.44002
7.5093
7.57167
7.62769
7.6779
7.72282
7.76292
7.79867
7.83047
7.8587
7.88368
7.90568
7.92481
7.94127
7.9543
5.16877
5.12131
5.09602
5.09481
5.11535
5.15307
5.20299
5.26075
5.32291
5.38691
5.45086
5.51344
5.57374
5.63114
5.68525
5.73585
5.78284
5.82623
5.86606
5.90246
5.93558
5.96558
5.99267
6.01704
6.03893
6.05856
6.07616
6.09201
6.10637
6.11956
6.1319
6.1438
6.15565
5.16887
5.11169
5.06116
5.01963
4.98841
4.96755
4.95616
4.9528
4.95586
4.96384
4.97539
4.98939
5.00493
5.0213
5.03792
5.05438
5.07034
5.08559
5.09995
5.11332
5.12563
5.13686
5.14702
5.15614
5.16427
5.17148
5.17787
5.18356
5.18871
5.19348
5.1981
5.20285
5.20806
5.16902
5.11062
5.05514
5.00339
4.9562
4.91414
4.87748
4.84612
4.81974
4.79783
4.77981
4.76511
4.75316
4.74345
4.73555
4.72907
4.72367
4.7191
4.71513
4.71158
4.7083
4.70519
4.70216
4.69916
4.69615
4.69311
4.69006
4.68702
4.68406
4.68125
4.67873
4.67665
4.67521
5.16904
5.11054
5.05431
5.00049
4.94928
4.90091
4.8556
4.81348
4.77459
4.73886
4.70616
4.67629
4.64903
4.62412
4.60133
4.5804
4.56113
4.5433
4.52674
4.51127
4.49676
4.4831
4.47016
4.45787
4.44616
4.43499
4.4243
4.4141
4.40439
4.3952
4.38659
4.37865
4.3715
5.16904
5.11054
5.0542
5.00002
4.94796
4.89804
4.85029
4.80474
4.76142
4.72033
4.68146
4.64475
4.61012
4.57749
4.54674
4.51777
4.49044
4.46463
4.44024
4.41715
4.39526
4.37447
4.35469
4.33585
4.31788
4.30073
4.28435
4.26871
4.2538
4.23964
4.22624
4.21367
4.20198
5.16904
5.11053
5.05418
4.99994
4.94773
4.89748
4.84914
4.80267
4.75803
4.7152
4.67413
4.6348
4.59717
4.56119
4.52679
4.49394
4.46255
4.43256
4.40391
4.37652
4.35033
4.32527
4.30128
4.27831
4.2563
4.23521
4.215
4.19565
4.17713
4.15946
4.14264
4.12672
4.11173
5.16904
5.11052
5.05417
4.99991
4.94767
4.89736
4.8489
4.80221
4.75723
4.7139
4.67217
4.63199
4.59331
4.55608
4.52026
4.4858
4.45265
4.42076
4.3901
4.36061
4.33224
4.30495
4.2787
4.25344
4.22914
4.20576
4.18328
4.16168
4.14094
4.12107
4.10207
4.08397
4.06681
5.16904
5.11052
5.05416
4.99989
4.94764
4.89731
4.84882
4.80208
4.75702
4.71357
4.67166
4.63124
4.59224
4.55461
4.5183
4.48326
4.44945
4.41683
4.38534
4.35496
4.32563
4.29733
4.27002
4.24366
4.21823
4.19369
4.17004
4.14724
4.1253
4.10421
4.08398
4.06463
4.04619
5.16903
5.11051
5.05415
4.99988
4.94762
4.89728
4.84878
4.80202
4.75694
4.71346
4.6715
4.63101
4.59191
4.55417
4.51771
4.48249
4.44847
4.41559
4.38381
4.35309
4.3234
4.2947
4.26696
4.24014
4.21422
4.18918
4.16499
4.14164
4.11913
4.09745
4.07661
4.05663
4.03752
5.16903
5.11051
5.05414
4.99987
4.9476
4.89726
4.84874
4.80198
4.75688
4.71339
4.67141
4.6309
4.59178
4.55399
4.51749
4.48222
4.44812
4.41516
4.38329
4.35247
4.32266
4.29382
4.26592
4.23894
4.21284
4.1876
4.1632
4.13964
4.11689
4.09496
4.07385
4.05357
4.03413
5.16903
5.11051
5.05413
4.99986
4.94759
4.89723
4.84871
4.80194
4.75684
4.71333
4.67134
4.63082
4.59168
4.55388
4.51736
4.48207
4.44796
4.41497
4.38307
4.35221
4.32236
4.29348
4.26553
4.23849
4.21233
4.18703
4.16256
4.13892
4.11609
4.09406
4.07284
4.05243
4.03283
5.16903
5.1105
5.05413
4.99985
4.94757
4.89721
4.84869
4.80191
4.75679
4.71328
4.67128
4.63074
4.5916
4.55379
4.51726
4.48196
4.44783
4.41483
4.38292
4.35205
4.32218
4.29328
4.26532
4.23827
4.21209
4.18677
4.16228
4.13861
4.11574
4.09368
4.0724
4.05192
4.03224
5.16903
5.1105
5.05412
4.99984
4.94756
4.8972
4.84866
4.80188
4.75676
4.71323
4.67123
4.63068
4.59153
4.55371
4.51717
4.48186
4.44772
4.41471
4.38279
4.35191
4.32203
4.29313
4.26516
4.2381
4.21191
4.18658
4.16208
4.1384
4.11552
4.09342
4.07211
4.05159
4.03184
5.16903
5.1105
5.05412
4.99983
4.94755
4.89718
4.84864
4.80185
4.75672
4.71319
4.67118
4.63062
4.59146
4.55363
4.51708
4.48176
4.44761
4.4146
4.38266
4.35178
4.32189
4.29298
4.265
4.23793
4.21174
4.1864
4.16189
4.1382
4.1153
4.09318
4.07184
4.05126
4.03145
5.16903
5.1105
5.05411
4.99982
4.94754
4.89717
4.84862
4.80182
4.75669
4.71315
4.67113
4.63057
4.5914
4.55356
4.517
4.48167
4.44751
4.41449
4.38254
4.35165
4.32176
4.29283
4.26485
4.23777
4.21156
4.18621
4.16169
4.13798
4.11505
4.09291
4.07153
4.05091
4.03103
5.16903
5.11049
5.05411
4.99982
4.94753
4.89716
4.84861
4.8018
4.75666
4.71311
4.67109
4.63052
4.59134
4.55349
4.51692
4.48158
4.44742
4.41438
4.38243
4.35152
4.32162
4.29268
4.26469
4.23759
4.21138
4.18601
4.16147
4.13773
4.11478
4.09261
4.07119
4.05051
4.03057
5.16903
5.11049
5.05411
4.99981
4.94752
4.89714
4.84859
4.80178
4.75664
4.71308
4.67105
4.63047
4.59128
4.55343
4.51685
4.4815
4.44732
4.41428
4.38231
4.35139
4.32148
4.29253
4.26452
4.23741
4.21118
4.18579
4.16123
4.13747
4.11449
4.09228
4.07081
4.05008
4.03008
5.16903
5.11049
5.05411
4.99981
4.94752
4.89714
4.84858
4.80177
4.75662
4.71305
4.67101
4.63043
4.59123
4.55337
4.51678
4.48142
4.44723
4.41417
4.3822
4.35127
4.32134
4.29238
4.26435
4.23722
4.21097
4.18556
4.16098
4.13719
4.11417
4.09192
4.07041
4.04962
4.02955
5.16903
5.11049
5.0541
4.99981
4.94751
4.89713
4.84857
4.80175
4.7566
4.71303
4.67098
4.63039
4.59118
4.55331
4.51672
4.48135
4.44715
4.41408
4.38209
4.35114
4.3212
4.29222
4.26418
4.23703
4.21076
4.18532
4.16071
4.13689
4.11384
4.09154
4.06998
4.04914
4.02899
5.16903
5.11049
5.0541
4.9998
4.94751
4.89712
4.84856
4.80174
4.75658
4.71301
4.67095
4.63035
4.59114
4.55326
4.51666
4.48127
4.44706
4.41398
4.38198
4.35102
4.32106
4.29206
4.264
4.23683
4.21053
4.18508
4.16043
4.13657
4.11349
4.09115
4.06953
4.04863
4.02842
5.16903
5.11049
5.0541
4.9998
4.9475
4.89712
4.84855
4.80173
4.75656
4.71299
4.67093
4.63032
4.5911
4.55321
4.5166
4.48121
4.44698
4.41389
4.38187
4.3509
4.32092
4.29191
4.26382
4.23664
4.21031
4.18482
4.16015
4.13626
4.11313
4.09074
4.06908
4.04812
4.02784
5.16903
5.11049
5.0541
4.9998
4.9475
4.89711
4.84854
4.80171
4.75655
4.71296
4.6709
4.63029
4.59106
4.55316
4.51654
4.48114
4.4469
4.4138
4.38177
4.35077
4.32078
4.29175
4.26364
4.23643
4.21008
4.18456
4.15986
4.13593
4.11276
4.09033
4.06862
4.0476
4.02726
5.16903
5.11049
5.0541
4.9998
4.9475
4.89711
4.84854
4.80171
4.75654
4.71295
4.67088
4.63026
4.59103
4.55313
4.5165
4.48108
4.44684
4.41372
4.38167
4.35066
4.32065
4.2916
4.26347
4.23624
4.20986
4.18432
4.15957
4.13561
4.1124
4.08993
4.06816
4.04709
4.02669
5.16903
5.11049
5.0541
4.9998
4.9475
4.8971
4.84853
4.8017
4.75652
4.71293
4.67086
4.63023
4.59099
4.55308
4.51644
4.48101
4.44676
4.41362
4.38157
4.35054
4.32052
4.29144
4.2633
4.23604
4.20963
4.18406
4.15929
4.13529
4.11204
4.08952
4.06771
4.04659
4.02613
5.16903
5.11049
5.0541
4.9998
4.9475
4.89711
4.84854
4.8017
4.75653
4.71294
4.67086
4.63023
4.59099
4.55307
4.51642
4.48099
4.44672
4.41357
4.3815
4.35046
4.32042
4.29133
4.26316
4.23587
4.20944
4.18384
4.15904
4.13501
4.11172
4.08916
4.0673
4.04613
4.02562
5.16903
5.11049
5.0541
4.9998
4.9475
4.89711
4.84853
4.80169
4.75651
4.71292
4.67083
4.6302
4.59095
4.55302
4.51637
4.48093
4.44665
4.4135
4.38141
4.35036
4.3203
4.2912
4.26301
4.23571
4.20926
4.18363
4.1588
4.13474
4.11142
4.08883
4.06694
4.04572
4.02517
5.16903
5.11049
5.0541
4.99981
4.94752
4.89714
4.84858
4.80176
4.75659
4.713
4.67092
4.63029
4.59104
4.55311
4.51645
4.481
4.44672
4.41356
4.38146
4.3504
4.32033
4.29121
4.26302
4.2357
4.20924
4.1836
4.15875
4.13468
4.11134
4.08873
4.06682
4.04558
4.025
5.16903
5.11051
5.05414
4.99986
4.94757
4.89719
4.84862
4.80179
4.75661
4.71302
4.67095
4.63032
4.59108
4.55316
4.51651
4.48108
4.44682
4.41368
4.38161
4.35058
4.32054
4.29146
4.2633
4.23603
4.20961
4.18402
4.15922
4.1352
4.11192
4.08937
4.06751
4.04634
4.02582
5.16903
5.1105
5.05415
4.99992
4.9477
4.89739
4.8489
4.80213
4.75703
4.7135
4.67149
4.63093
4.59177
4.55394
4.5174
4.4821
4.44797
4.41499
4.3831
4.35226
4.32243
4.29358
4.26567
4.23866
4.21253
4.18723
4.16275
4.13905
4.1161
4.09389
4.07239
4.05157
4.03141
5.16905
5.11064
5.05441
5.00027
4.94811
4.89788
4.84949
4.8029
4.75803
4.71482
4.67321
4.63313
4.59454
4.55737
4.52157
4.48708
4.45385
4.42183
4.39097
4.36122
4.33254
4.30487
4.27819
4.25245
4.22761
4.20364
4.1805
4.15815
4.13657
4.11573
4.0956
4.07616
4.05737
5.16908
5.11078
5.05487
5.00136
4.95016
4.90118
4.85437
4.80967
4.76701
4.72635
4.68762
4.65072
4.61559
4.58214
4.55028
4.51992
4.49099
4.46338
4.43704
4.41187
4.38781
4.3648
4.34276
4.32163
4.30137
4.28191
4.26321
4.24523
4.22791
4.21123
4.19514
4.17961
4.16461
5.1694
5.1136
5.06203
5.01465
4.97145
4.93238
4.89726
4.86582
4.83773
4.81266
4.79031
4.77034
4.75249
4.73648
4.72208
4.70908
4.69729
4.68653
4.67666
4.66755
4.65907
4.65112
4.64361
4.63646
4.6296
4.62297
4.6165
4.61015
4.60388
4.59764
4.59141
4.58516
4.57886
5.17808
5.16331
5.16936
5.19084
5.22376
5.26511
5.3125
5.36402
5.41828
5.47417
5.53088
5.58773
5.64424
5.70002
5.75478
5.80829
5.8604
5.91101
5.96003
6.00743
6.05318
6.0973
6.1398
6.18071
6.22009
6.25799
6.29446
6.3296
6.36346
6.39614
6.42773
6.45831
6.48799
5.63863
6.43055
7.14621
7.82728
8.49826
9.15325
9.78645
10.3956
10.9808
11.543
12.0839
12.6052
13.1087
13.5959
14.0686
14.5279
14.9752
15.4117
15.8384
16.2563
16.6663
17.0693
17.466
17.8572
18.2437
18.6261
19.005
19.381
19.7548
20.1268
20.4975
20.8674
21.2367
44.7794
48.3125
51.8865
55.4658
59.0312
62.5709
66.0742
69.5312
72.9332
76.2723
79.5414
82.7347
85.8471
88.8744
91.8132
94.661
97.4158
100.076
102.642
105.112
107.488
109.768
111.956
114.05
116.054
117.968
119.794
121.534
123.191
124.765
126.26
127.676
129.019
700.39
857.7
1027.08
1182.59
1272.11
1259.32
1159.38
1019.9
883.712
771.969
687.928
626.731
582.228
549.415
525.922
508.23
493.391
478.51
460.31
435.075
399.04
349.339
285.636
212.09
138.272
76.6317
36.0687
16.5378
10.2607
9.26927
9.71044
10.4066
11.0685
11.6248
12.0487
12.329
12.4688
12.483
12.394
12.2258
12.0013
11.7404
11.4593
11.1715
10.8878
10.6178
10.3697
10.1502
9.96373
9.81149
9.691
9.59652
9.52024
9.45359
9.388
9.31458
9.2231
9.10105
8.93372
8.70577
8.4042
8.02169
7.55943
7.02858
6.44964
5.85004
5.26002
4.70793
4.21586
3.79679
3.45397
3.1825
2.97231
2.81138
2.68829
2.59363
2.5203
2.46321
2.41876
2.38427
2.35769
2.33737
2.322
2.31048
2.30194
2.29569
2.29117
2.28795
2.2857
2.28415
2.28312
2.28244
2.282
2.28173
2.28156
2.28145
2.28137
2.28124
2.28137
2.28015
156.223
172.925
207.88
271.354
368.565
491.065
616.734
718.716
777.962
791.202
768.882
726.592
677.82
630.01
584.966
543.15
502.688
460.506
413.522
359.498
297.853
230.544
162.667
101.831
55.4692
27.0401
13.9094
9.60629
8.78114
8.9943
9.47193
9.99721
10.4972
10.9303
11.2671
11.492
11.6034
11.6111
11.5317
11.3843
11.1872
10.9569
10.7069
10.4487
10.1918
9.94453
9.71444
9.50815
9.33057
9.18391
9.06708
8.97584
8.90373
8.84343
8.7875
8.72827
8.65681
8.56177
8.42927
8.24411
7.99255
7.66561
7.26208
6.79015
6.26726
5.71799
5.17047
4.6519
4.18436
3.78184
3.44925
3.18357
2.9764
2.81696
2.6946
2.60029
2.52707
2.46992
2.42524
2.39038
2.36333
2.34249
2.32657
2.3145
2.30543
2.29869
2.29371
2.29009
2.28747
2.2856
2.28428
2.28335
2.2827
2.28224
2.2819
2.28164
2.28143
2.2812
2.28124
2.27991
30.8457
31.428
32.1782
34.9538
44.4149
66.6489
105.423
159.732
223.164
286.376
340.641
380.09
402.551
407.779
396.41
370.824
334.235
289.743
240.144
188.302
137.618
92.0842
55.6051
30.6051
16.6899
10.6837
8.71295
8.28213
8.3783
8.6793
9.07039
9.49073
9.89531
10.2484
10.5244
10.7093
10.8009
10.806
10.7374
10.61
10.4388
10.2371
10.0164
9.78629
9.55499
9.32984
9.11773
8.92498
8.75671
8.61593
8.50267
8.41395
8.34452
8.28813
8.23846
8.18911
8.13259
8.05909
7.95587
7.80825
7.60199
7.32661
6.9785
6.56285
6.09392
5.59334
5.08698
4.60081
4.15683
3.76999
3.44685
3.18628
2.98155
2.82315
2.70119
2.60701
2.53378
2.47649
2.43154
2.39629
2.36877
2.34739
2.3309
2.31826
2.30864
2.30138
2.29592
2.29186
2.28884
2.28662
2.28498
2.28378
2.28288
2.2822
2.28168
2.28126
2.28091
2.28056
2.2805
2.27903
12.1677
12.0952
11.7455
10.797
9.14376
7.71801
8.3327
12.4112
20.8608
33.7311
49.6497
65.903
78.8879
87.5763
91.7567
90.6407
84.0857
72.9155
58.809
43.9518
30.5449
20.2405
13.6294
10.1256
8.55506
7.92763
7.73371
7.77886
7.97552
8.26681
8.60903
8.96551
9.30434
9.59873
9.82883
9.98358
10.0608
10.0657
10.008
9.89942
9.75204
9.57679
9.38321
9.17941
8.97242
8.76865
8.5743
8.3953
8.23687
8.10252
7.9932
7.90694
7.83949
7.78552
7.73966
7.69672
7.65076
7.59365
7.51417
7.39846
7.23214
7.00351
6.7067
6.34399
5.92642
5.47264
5.00615
4.55155
4.13061
3.75909
3.44513
3.18941
2.98688
2.82931
2.70758
2.61342
2.54012
2.48269
2.43749
2.40189
2.37392
2.35204
2.335
2.32181
2.31165
2.30386
2.29792
2.2934
2.28998
2.28739
2.28542
2.28391
2.28276
2.28185
2.28113
2.28053
2.28003
2.27954
2.27937
2.27777
7.96511
7.97141
7.95677
7.8606
7.52615
6.75812
5.56269
4.28725
3.6391
4.06632
5.51389
7.74442
10.5046
13.0223
14.7063
15.3921
15.1133
14.0702
12.5868
11.0205
9.65134
8.61166
7.89708
7.44429
7.19855
7.12128
7.17718
7.33343
7.56253
7.84065
8.14483
8.45207
8.73997
8.98865
9.18303
9.31456
9.38146
9.38757
9.34039
9.24921
9.12358
8.97244
8.8037
8.62419
8.43993
8.25649
8.07939
7.91415
7.76591
7.63855
7.53367
7.45017
7.38459
7.33231
7.28871
7.24965
7.21068
7.16545
7.10449
7.01513
6.88323
6.69616
6.44608
6.13249
5.76332
5.3542
4.92621
4.50241
4.10417
3.7479
3.44311
3.19222
2.99184
2.83501
2.71343
2.61923
2.54585
2.48828
2.44288
2.407
2.37866
2.35633
2.33881
2.32511
2.31444
2.30615
2.29974
2.29478
2.29095
2.28798
2.28568
2.28387
2.28245
2.28131
2.28037
2.27959
2.27894
2.2783
2.27802
2.27627
6.16992
6.18903
6.21436
6.24655
6.27372
6.25014
6.09531
5.73621
5.22412
4.76685
4.55101
4.67352
5.1999
5.81059
6.35413
6.75272
6.97991
7.04881
6.99855
6.879
6.73776
6.61226
6.52739
6.4966
6.52492
6.61172
6.75292
6.94214
7.17056
7.42652
7.69571
7.96198
8.20874
8.42095
8.58713
8.70071
8.76024
8.76855
8.73139
8.656
8.54998
8.42058
8.27435
8.11703
7.95375
7.78937
7.62877
7.47703
7.33914
7.21916
7.11926
7.03898
6.97553
6.92477
6.88263
6.84578
6.81107
6.77394
6.7268
6.65849
6.55547
6.4046
6.19635
5.92772
5.60366
5.23684
4.84584
4.45209
4.07632
3.73537
3.43995
3.19408
2.99596
2.83991
2.71847
2.62421
2.55074
2.49308
2.44755
2.41146
2.38283
2.36014
2.34221
2.32807
2.31695
2.30822
2.30137
2.29599
2.29177
2.28845
2.28582
2.28373
2.28204
2.28066
2.27952
2.27856
2.27774
2.27697
2.27658
2.27467
5.21528
5.22646
5.24344
5.26896
5.30509
5.35045
5.39428
5.41253
5.37869
5.29241
5.18844
5.12224
5.14103
5.22721
5.35031
5.48057
5.59669
5.68819
5.7542
5.80086
5.8382
5.87758
5.92954
6.00255
6.10248
6.23274
6.39414
6.58475
6.79974
7.03131
7.26904
7.50071
7.71365
7.89636
8.04008
8.13973
8.19407
8.20516
8.17732
8.11614
8.02764
7.91769
7.79167
7.65442
7.51034
7.36362
7.21858
7.07987
6.95226
6.83991
6.7454
6.66884
6.60794
6.55892
6.51801
6.48242
6.45007
6.41803
6.38065
6.3285
6.24904
6.12896
5.9575
5.72942
5.44692
5.11981
4.76417
4.39965
4.04617
3.72073
3.43503
3.19451
2.99889
2.84373
2.72248
2.62818
2.55465
2.49693
2.45132
2.41511
2.38629
2.36335
2.3451
2.33061
2.31911
2.31
2.30276
2.29702
2.29246
2.28881
2.28588
2.28351
2.28158
2.27998
2.27864
2.2775
2.27653
2.27562
2.27512
2.27306
4.67477
4.67667
4.68272
4.69476
4.71434
4.74266
4.7798
4.8231
4.86611
4.90119
4.92501
4.94176
4.96255
4.99416
5.03783
5.09095
5.14945
5.20986
5.27056
5.33215
5.39711
5.4692
5.55277
5.65204
5.77045
5.91015
6.07158
6.25313
6.45099
6.65898
6.86885
7.07109
7.25592
7.41454
7.54021
7.62896
7.67968
7.69376
7.6744
7.62587
7.55289
7.46017
7.35217
7.23296
7.10627
6.97576
6.84524
6.71892
6.60133
6.49668
6.40783
6.3354
6.27751
6.23065
6.19114
6.15647
6.12529
6.09611
6.06515
6.02485
5.96395
5.86945
5.72971
5.53767
5.293
5.00283
4.68074
4.34454
4.01313
3.70343
3.42787
3.19314
3.00034
2.84629
2.72533
2.63103
2.55745
2.49972
2.4541
2.41784
2.38892
2.36582
2.34736
2.33261
2.32083
2.3114
2.30386
2.29782
2.29295
2.28902
2.28583
2.28322
2.28106
2.27927
2.27775
2.27645
2.27534
2.2743
2.2737
2.2715
4.36447
4.35844
4.35554
4.35708
4.36423
4.37795
4.39883
4.42693
4.46143
4.50043
4.54144
4.58295
4.62548
4.66993
4.71707
4.76738
4.82104
4.87826
4.93956
5.00597
5.07911
5.16113
5.25443
5.36131
5.48358
5.62222
5.77698
5.94614
6.12627
6.31221
6.49741
6.67441
6.83567
6.97442
7.08545
7.16555
7.21368
7.23068
7.21886
7.18142
7.12204
7.0445
6.95244
6.84929
6.73826
6.62251
6.50539
6.39072
6.28277
6.1857
6.10264
6.03462
5.98016
5.93592
5.89821
5.86452
5.83396
5.80613
5.77898
5.74687
5.70006
5.62623
5.51331
5.35278
5.14212
4.88596
4.59548
4.28655
3.9769
3.68315
3.41818
3.18973
3.00016
2.84748
2.72694
2.63271
2.55912
2.50139
2.4558
2.41956
2.39062
2.36745
2.34888
2.33397
2.32199
2.31235
2.30457
2.29829
2.29319
2.28903
2.28563
2.28281
2.28047
2.2785
2.27683
2.27539
2.27416
2.27301
2.27232
2.27
4.1897
4.1774
4.16756
4.16115
4.15911
4.16229
4.17131
4.18655
4.20809
4.23564
4.26857
4.30607
4.34752
4.39255
4.44098
4.49286
4.54843
4.60814
4.6727
4.74313
4.8207
4.90689
5.00323
5.11106
5.23132
5.36428
5.50927
5.6645
5.82696
5.99243
6.15567
6.31089
6.45224
6.57446
6.67344
6.74652
6.79267
6.8123
6.807
6.77914
6.73154
6.66722
6.58916
6.50024
6.4032
6.30078
6.19593
6.09211
5.99329
5.90357
5.82627
5.7628
5.71206
5.67087
5.63543
5.60307
5.57302
5.54567
5.52044
5.49356
5.45699
5.39937
5.30864
5.1752
4.99473
4.76956
4.5086
4.22575
3.93745
3.65975
3.4058
3.18414
2.99825
2.84726
2.72732
2.63323
2.55966
2.50196
2.45642
2.42024
2.39135
2.36819
2.34958
2.3346
2.32251
2.31273
2.3048
2.29835
2.29309
2.28876
2.28519
2.28222
2.27973
2.27763
2.27583
2.27428
2.27295
2.2717
2.27094
2.26852
4.09558
4.07867
4.06373
4.05152
4.04282
4.03835
4.03876
4.04453
4.05597
4.07324
4.09627
4.12481
4.1586
4.19738
4.24096
4.28929
4.34247
4.40079
4.46473
4.53498
4.61237
4.69782
4.79225
4.89636
5.01054
5.13461
5.26771
5.40816
5.55337
5.69991
5.84363
5.97997
6.10438
6.21269
6.30157
6.36877
6.41324
6.43505
6.43523
6.41549
6.37797
6.32505
6.25918
6.18276
6.09815
6.0077
5.91401
5.82019
5.72992
5.64723
5.57554
5.51663
5.46977
5.43194
5.39924
5.36866
5.33933
5.31209
5.28755
5.26365
5.23409
5.18878
5.11598
5.00546
4.85142
4.65419
4.42054
4.16244
3.89492
3.6333
3.39073
3.17634
2.99459
2.84562
2.7265
2.63265
2.55914
2.50147
2.456
2.41991
2.39111
2.36801
2.34943
2.33445
2.32233
2.31249
2.30448
2.29794
2.29256
2.28813
2.28444
2.28136
2.27877
2.27657
2.27468
2.27305
2.27164
2.27033
2.2695
2.26701
4.04808
4.02804
4.00961
3.99338
3.97999
3.97008
3.96425
3.96302
3.96681
3.97592
3.99053
4.01068
4.03639
4.0676
4.10427
4.14642
4.19414
4.24764
4.30721
4.3733
4.44638
4.52698
4.61556
4.71243
4.81759
4.93065
5.05068
5.17617
5.30492
5.43416
5.56055
5.68051
5.79038
5.88682
5.96707
6.02915
6.07201
6.09545
6.10008
6.08708
6.05806
6.01489
5.95955
5.89405
5.82039
5.74062
5.65701
5.57234
5.49003
5.41394
5.34764
5.29318
5.25022
5.21596
5.18634
5.15802
5.12979
5.10266
5.07811
5.05557
5.03049
4.99416
4.93551
4.84405
4.71285
4.54053
4.33191
4.0971
3.84963
3.60397
3.37304
3.16638
2.98922
2.84263
2.72456
2.63108
2.55767
2.50005
2.45464
2.41865
2.38995
2.36695
2.34845
2.33352
2.32142
2.31159
2.30356
2.29698
2.29156
2.28706
2.28332
2.28018
2.27752
2.27525
2.27331
2.27162
2.27016
2.2688
2.26794
2.26539
4.02591
4.00393
3.98328
3.96442
3.94787
3.9342
3.92394
3.9176
3.91563
3.91839
3.92618
3.93922
3.95764
3.98156
4.01106
4.04623
4.08718
4.13408
4.18715
4.24663
4.31282
4.38598
4.4663
4.55382
4.64837
4.74944
4.85615
4.96713
5.08056
5.19416
5.30525
5.41092
5.50821
5.59437
5.66705
5.7245
5.76566
5.79015
5.79824
5.79073
5.76878
5.73385
5.68753
5.6315
5.56745
5.49715
5.42258
5.34622
5.27123
5.20131
5.14008
5.08989
5.05075
5.0201
4.99383
4.96818
4.9415
4.91471
4.88986
4.86762
4.84508
4.81502
4.76727
4.69138
4.57964
4.4293
4.2434
4.03029
3.80202
3.57205
3.35293
3.15436
2.98221
2.83838
2.72161
2.62864
2.55539
2.49782
2.45248
2.41657
2.38797
2.36509
2.34669
2.33185
2.31982
2.31004
2.30204
2.29547
2.29005
2.28554
2.28178
2.27861
2.27593
2.27363
2.27166
2.26994
2.26845
2.26707
2.26619
2.26361
4.01638
3.9933
3.97131
3.95079
3.93218
3.91595
3.90257
3.89251
3.88621
3.88406
3.8864
3.89352
3.90565
3.92298
3.94569
3.9739
4.00777
4.04745
4.0931
4.14489
4.20298
4.26749
4.33847
4.41583
4.49929
4.58834
4.68215
4.77954
4.87899
4.97859
5.07615
5.16929
5.25557
5.33266
5.39856
5.45168
5.49097
5.51593
5.52659
5.52343
5.50728
5.47924
5.44059
5.39271
5.33704
5.27508
5.20858
5.13974
5.07143
5.00722
4.95073
4.90454
4.86904
4.84196
4.81915
4.79648
4.7718
4.7457
4.72055
4.69801
4.67663
4.6507
4.61109
4.5477
4.45236
4.32119
4.15572
3.96266
3.7526
3.53792
3.33062
3.14044
2.97368
2.83295
2.71775
2.62545
2.55243
2.49495
2.44966
2.41382
2.38533
2.36255
2.34427
2.32953
2.31759
2.30788
2.29995
2.29343
2.28804
2.28356
2.27982
2.27666
2.27397
2.27168
2.2697
2.26798
2.26648
2.26509
2.2642
2.26161
4.01256
3.98886
3.96608
3.94452
3.92455
3.90656
3.89096
3.87817
3.86859
3.86261
3.86057
3.8628
3.86957
3.88111
3.89764
3.91933
3.94635
3.97886
4.01699
4.06087
4.1106
4.16623
4.22773
4.29495
4.36759
4.44517
4.52694
4.61188
4.69871
4.78583
4.87142
4.95349
5.03
5.09899
5.15868
5.20766
5.24489
5.26979
5.28222
5.2824
5.27092
5.24858
5.2164
5.1755
5.12709
5.07246
5.01312
4.95102
4.8888
4.82982
4.7777
4.73522
4.70314
4.67948
4.66014
4.64067
4.61833
4.59332
4.56805
4.54494
4.5238
4.50036
4.46666
4.41313
4.33143
4.21683
4.06956
3.89487
3.70192
3.50198
3.30642
3.12481
2.96376
2.82646
2.71309
2.62164
2.54896
2.49159
2.44635
2.41058
2.38216
2.35948
2.34131
2.32667
2.31484
2.30523
2.29737
2.29093
2.2856
2.28117
2.27746
2.27434
2.27168
2.2694
2.26744
2.26573
2.26424
2.26286
2.26197
2.25939
4.01102
3.98697
3.9637
3.94146
3.92054
3.90129
3.88405
3.86918
3.85706
3.84804
3.84246
3.84064
3.84285
3.84937
3.86042
3.8762
3.89689
3.92265
3.95362
3.98991
4.03157
4.07865
4.13107
4.18868
4.25119
4.31815
4.38891
4.46259
4.53809
4.61408
4.68903
4.76125
4.82902
4.89065
4.94459
4.98954
5.02453
5.04891
5.06241
5.06509
5.05729
5.03962
5.01285
4.97788
4.93573
4.8875
4.8345
4.77843
4.7217
4.66749
4.61937
4.5803
4.55137
4.53093
4.51498
4.49878
4.47908
4.45554
4.43044
4.4067
4.38523
4.36309
4.33352
4.28765
4.21716
4.11673
3.98555
3.82753
3.65052
3.46468
3.28063
3.10769
2.9526
2.81903
2.70775
2.61734
2.54509
2.48789
2.44271
2.40699
2.37864
2.35604
2.33796
2.32343
2.3117
2.30218
2.29442
2.28806
2.2828
2.27844
2.27479
2.27171
2.26909
2.26685
2.26492
2.26323
2.26177
2.2604
2.25953
2.25696
4.01029
3.986
3.96238
3.93964
3.91802
3.8978
3.87929
3.86279
3.84864
3.83715
3.82865
3.82344
3.82179
3.82397
3.83022
3.84075
3.85574
3.87537
3.89976
3.92902
3.96322
4.00235
4.04638
4.09514
4.14837
4.20567
4.26648
4.33004
4.39541
4.46145
4.52689
4.59028
4.65016
4.70506
4.75362
4.79466
4.82724
4.85072
4.86471
4.86915
4.86421
4.8503
4.82801
4.79807
4.76129
4.71863
4.67119
4.62049
4.5687
4.51882
4.47434
4.43837
4.41229
4.39483
4.38211
4.36921
4.35234
4.33058
4.30596
4.2817
4.2596
4.23794
4.21112
4.17107
4.1097
4.0213
3.90422
3.76123
3.59895
3.42646
3.2536
3.0893
2.94035
2.81077
2.70182
2.61263
2.54095
2.48397
2.43888
2.40321
2.37491
2.35238
2.33438
2.31994
2.3083
2.29888
2.29121
2.28494
2.27976
2.27547
2.27188
2.26886
2.2663
2.2641
2.26221
2.26055
2.25911
2.25777
2.25692
2.25438
4.00978
3.98531
3.96141
3.93827
3.91608
3.89508
3.87553
3.8577
3.84187
3.82834
3.8174
3.80932
3.80438
3.80283
3.8049
3.81082
3.82076
3.8349
3.85337
3.87629
3.90371
3.93564
3.97205
4.01279
4.05764
4.10624
4.1581
4.21258
4.26888
4.32603
4.38294
4.43838
4.49109
4.5398
4.5833
4.62053
4.65061
4.67286
4.68688
4.69246
4.68968
4.67877
4.66017
4.63443
4.60225
4.56441
4.52185
4.47591
4.42855
4.38256
4.34138
4.3082
4.2847
4.26994
4.26026
4.25058
4.23665
4.21695
4.19312
4.16853
4.14567
4.12392
4.09882
4.06313
4.00909
3.93084
3.82603
3.69648
3.54771
3.38775
3.22564
3.06988
2.92718
2.80178
2.69539
2.6076
2.53662
2.47994
2.43498
2.39936
2.37111
2.34864
2.3307
2.31634
2.30479
2.29545
2.28787
2.28168
2.27659
2.27237
2.26885
2.26589
2.26338
2.26124
2.25938
2.25777
2.25636
2.25505
2.25422
2.2517
4.00929
3.98466
3.96052
3.93703
3.91436
3.8927
3.87228
3.85333
3.8361
3.82085
3.80783
3.79732
3.78955
3.78478
3.78323
3.78511
3.79061
3.7999
3.81311
3.83036
3.85172
3.87719
3.90676
3.9403
3.97762
4.01842
4.06227
4.10862
4.1568
4.20597
4.25521
4.30346
4.34964
4.39264
4.43139
4.46493
4.49244
4.51324
4.52689
4.53313
4.53191
4.52335
4.50774
4.48553
4.45725
4.42355
4.38526
4.34352
4.30011
4.25764
4.21942
4.18874
4.16753
4.15521
4.14834
4.14177
4.13082
4.11337
4.09063
4.06593
4.04233
4.02014
3.99598
3.96346
3.91528
3.84551
3.75133
3.63373
3.49724
3.34896
3.19711
3.04969
2.91326
2.79219
2.68853
2.60233
2.53217
2.47588
2.43108
2.39554
2.36734
2.34492
2.32704
2.31275
2.30127
2.29202
2.28452
2.2784
2.27339
2.26924
2.26579
2.2629
2.26044
2.25834
2.25654
2.25496
2.25359
2.2523
2.2515
2.24902
4.00878
3.98399
3.95963
3.93583
3.91273
3.89051
3.86934
3.84943
3.831
3.81428
3.7995
3.7869
3.77671
3.76916
3.76446
3.76283
3.76443
3.76945
3.77801
3.79024
3.8062
3.82592
3.84938
3.87648
3.90707
3.94089
3.97757
4.01666
4.05755
4.09957
4.14189
4.18363
4.22385
4.26157
4.29587
4.32586
4.35077
4.36996
4.38295
4.38944
4.38929
4.38253
4.36934
4.35003
4.32505
4.29492
4.26034
4.2223
4.1824
4.14307
4.10752
4.07907
4.05989
4.04973
4.04543
4.04182
4.03384
4.0188
3.99738
3.97283
3.94856
3.92574
3.90196
3.87169
3.82813
3.76541
3.68037
3.57333
3.44797
3.31047
3.16832
3.02897
2.89875
2.78209
2.68133
2.59686
2.52765
2.47183
2.42726
2.39182
2.36367
2.3413
2.32348
2.30925
2.29784
2.28866
2.28123
2.27519
2.27025
2.26618
2.26279
2.25995
2.25756
2.25551
2.25374
2.25221
2.25087
2.24962
2.24884
2.24639
4.00822
3.98328
3.95871
3.93463
3.91116
3.88843
3.86661
3.84588
3.82642
3.80844
3.79214
3.77775
3.76547
3.75551
3.74809
3.74339
3.74159
3.74285
3.74732
3.75511
3.76628
3.78089
3.79892
3.82029
3.84488
3.87246
3.90274
3.93531
3.96969
4.00526
4.04134
4.07718
4.11196
4.14482
4.17494
4.20153
4.22386
4.24133
4.25344
4.25986
4.26038
4.25496
4.24368
4.22677
4.20456
4.17748
4.14611
4.11132
4.07454
4.03802
4.00485
3.97837
3.96097
3.95272
3.95075
3.94991
3.94486
3.93233
3.91247
3.8883
3.86351
3.83996
3.81616
3.78741
3.74745
3.69057
3.61336
3.5156
3.40024
3.27265
3.13959
3.00797
2.88383
2.77162
2.67386
2.59125
2.5231
2.46784
2.42354
2.38824
2.36017
2.33785
2.32008
2.30591
2.29456
2.28544
2.27809
2.27212
2.26724
2.26323
2.25991
2.25713
2.25479
2.25279
2.25107
2.24957
2.24827
2.24705
2.24629
2.24388
4.00762
3.98254
3.95778
3.93344
3.90962
3.88645
3.86407
3.84262
3.82227
3.8032
3.78559
3.76965
3.75556
3.74353
3.73373
3.72636
3.72159
3.71957
3.72044
3.7243
3.73125
3.74132
3.75452
3.7708
3.79004
3.81206
3.83661
3.86336
3.89188
3.92166
3.95213
3.98261
4.01241
4.04079
4.06701
4.09035
4.11016
4.12584
4.13691
4.14301
4.14388
4.13942
4.12964
4.11467
4.09478
4.07029
4.0417
4.00975
3.97572
3.94171
3.91067
3.88593
3.87008
3.8635
3.86361
3.86538
3.86317
3.85322
3.83511
3.81156
3.78642
3.76214
3.73805
3.71026
3.67307
3.62098
3.55044
3.46081
3.35438
3.23583
3.11122
2.98693
2.8687
2.7609
2.66619
2.58554
2.51855
2.46393
2.41996
2.38482
2.35685
2.33459
2.31688
2.30276
2.29147
2.28242
2.27512
2.26922
2.26441
2.26047
2.2572
2.25448
2.25219
2.25023
2.24856
2.2471
2.24583
2.24464
2.2439
2.24153
4.007
3.98177
3.95683
3.93225
3.90813
3.88456
3.86167
3.83959
3.81847
3.79846
3.77972
3.76244
3.74679
3.73295
3.7211
3.71141
3.70404
3.69914
3.69684
3.69726
3.70047
3.70653
3.71545
3.72719
3.74167
3.75874
3.77818
3.79971
3.82298
3.84756
3.87294
3.89857
3.92383
3.94807
3.97066
3.99093
4.00828
4.02215
4.03207
4.03766
4.03862
4.03481
4.02617
4.01278
3.9948
3.97252
3.94632
3.91684
3.88525
3.85346
3.8243
3.80111
3.7866
3.78146
3.78344
3.78762
3.78818
3.78086
3.76468
3.74199
3.71668
3.69172
3.66717
3.63991
3.60481
3.55662
3.49175
3.40919
3.31072
3.20036
3.08354
2.96613
2.85356
2.75008
2.65843
2.57979
2.51403
2.46012
2.41653
2.38159
2.35373
2.33154
2.31389
2.29982
2.28859
2.2796
2.27237
2.26653
2.26178
2.25789
2.25469
2.25202
2.24977
2.24787
2.24623
2.24481
2.24357
2.24241
2.2417
2.23935
4.00635
3.98099
3.95588
3.93108
3.90667
3.88275
3.85942
3.83679
3.81499
3.79416
3.77444
3.756
3.739
3.7236
3.70996
3.69824
3.6886
3.68118
3.67611
3.67349
3.67342
3.67593
3.68106
3.68877
3.69901
3.71166
3.72654
3.74341
3.76197
3.78186
3.80266
3.82388
3.84499
3.86544
3.88464
3.90202
3.91701
3.92908
3.93778
3.9427
3.94356
3.94014
3.93236
3.92021
3.90382
3.88339
3.85924
3.83193
3.80247
3.77265
3.74518
3.72334
3.70998
3.70608
3.70972
3.71614
3.71939
3.71475
3.70066
3.67906
3.65382
3.62827
3.60316
3.57611
3.54255
3.49753
3.43745
3.36103
3.26958
3.16658
3.05687
2.94587
2.83864
2.73932