/*--------------------------------*- C++ -*----------------------------------*\
| =========                 |                                                 |
| \\      /  F ield         | OpenFOAM: The Open Source CFD Toolbox           |
|  \\    /   O peration     | Version:  2.1.1                                 |
|   \\  /    A nd           | Web:      www.OpenFOAM.org                      |
|    \\/     M anipulation  |                                                 |
\*---------------------------------------------------------------------------*/
FoamFile
{
    version     2.0;
    format      ascii;
    class       volScalarField;
    location    "0.04";
    object      k;
}
// * * * * * * * * * * * * * * * * * * * * * * * * * * * * * * * * * * * * * //

dimensions      [0 2 -2 0 0 0 0];

internalField   nonuniform List<scalar> 
6820
(
0.288909
0.351398
0.415004
0.477466
0.536862
0.591564
0.640388
0.682663
0.718184
0.747128
0.769941
0.787241
0.799728
0.808123
0.813114
0.815335
0.815347
0.813635
0.810607
0.8066
0.801891
0.796699
0.791198
0.78552
0.779765
0.774003
0.768278
0.762627
0.756989
0.75165
0.745125
0.74429
0.715499
0.265532
0.269396
0.270522
0.271339
0.272554
0.274204
0.276206
0.278444
0.280806
0.283208
0.285592
0.287929
0.290208
0.292435
0.294624
0.296795
0.298968
0.301164
0.303401
0.305694
0.308057
0.310502
0.313039
0.31568
0.318439
0.321333
0.324386
0.327636
0.331138
0.335002
0.339314
0.344647
0.35053
0.262038
0.264254
0.263597
0.261559
0.259003
0.256321
0.253629
0.25094
0.24824
0.245523
0.242791
0.240056
0.237337
0.234656
0.232036
0.229497
0.227058
0.224734
0.222538
0.220479
0.218564
0.216797
0.21518
0.213714
0.212401
0.211239
0.21023
0.209378
0.208686
0.208172
0.207842
0.207757
0.207947
0.259885
0.260272
0.259796
0.258535
0.256828
0.254891
0.252834
0.250711
0.248549
0.246361
0.244155
0.241938
0.239717
0.237499
0.235291
0.233102
0.230937
0.228804
0.22671
0.22466
0.222659
0.220709
0.218815
0.216978
0.2152
0.21348
0.211819
0.210215
0.208667
0.207174
0.20573
0.204342
0.202989
0.259299
0.258404
0.2576
0.256567
0.255295
0.25385
0.252293
0.250663
0.248986
0.24728
0.245555
0.24382
0.24208
0.240342
0.23861
0.236887
0.235177
0.233484
0.231812
0.230162
0.228536
0.226938
0.225369
0.22383
0.222321
0.220844
0.219398
0.217983
0.216597
0.215242
0.213914
0.212614
0.211338
0.259224
0.257848
0.256622
0.255436
0.254227
0.25297
0.251663
0.250314
0.248931
0.247525
0.246104
0.244675
0.243243
0.241813
0.240387
0.238969
0.237562
0.236167
0.234788
0.233424
0.232079
0.230753
0.229446
0.228161
0.226897
0.225654
0.224433
0.223235
0.222058
0.220903
0.219771
0.218664
0.217581
0.259217
0.257715
0.256309
0.25498
0.253699
0.252442
0.251196
0.249952
0.248706
0.247457
0.246208
0.24496
0.243716
0.242477
0.241246
0.240024
0.238814
0.237616
0.236431
0.235261
0.234107
0.232969
0.231848
0.230744
0.229657
0.228589
0.227538
0.226506
0.225493
0.2245
0.223527
0.222577
0.221654
0.259218
0.25769
0.256225
0.254822
0.253477
0.252182
0.250924
0.249697
0.248494
0.247309
0.24614
0.244986
0.243845
0.242718
0.241604
0.240504
0.239419
0.238347
0.237291
0.23625
0.235225
0.234215
0.233222
0.232244
0.231284
0.23034
0.229412
0.228502
0.22761
0.226736
0.225884
0.225054
0.224251
0.259218
0.257686
0.256207
0.25478
0.253405
0.25208
0.2508
0.249561
0.248359
0.247188
0.246046
0.244929
0.243836
0.242765
0.241714
0.240683
0.23967
0.238675
0.237699
0.236739
0.235797
0.234873
0.233965
0.233074
0.2322
0.231342
0.230502
0.229678
0.228873
0.228087
0.227322
0.22658
0.225865
0.259218
0.257686
0.256203
0.254769
0.253384
0.252045
0.250752
0.249501
0.24829
0.247117
0.245978
0.244871
0.243794
0.242745
0.241722
0.240723
0.239748
0.238795
0.237863
0.236951
0.236059
0.235187
0.234333
0.233497
0.232679
0.231879
0.231097
0.230333
0.229588
0.228863
0.228159
0.227478
0.226825
0.259218
0.257685
0.256202
0.254767
0.253378
0.252035
0.250736
0.249478
0.248261
0.247083
0.245941
0.244834
0.243759
0.242716
0.241702
0.240716
0.239757
0.238822
0.237912
0.237025
0.23616
0.235316
0.234492
0.233689
0.232905
0.232141
0.231396
0.230669
0.229963
0.229277
0.228614
0.227974
0.227361
0.259218
0.257685
0.256201
0.254766
0.253376
0.252031
0.25073
0.24947
0.24825
0.247068
0.245924
0.244814
0.243739
0.242695
0.241683
0.2407
0.239746
0.238818
0.237917
0.23704
0.236187
0.235357
0.234549
0.233763
0.232998
0.232253
0.231528
0.230824
0.230141
0.229479
0.22884
0.228225
0.227637
0.259218
0.257685
0.256201
0.254765
0.253375
0.25203
0.250727
0.249466
0.248245
0.247062
0.245916
0.244805
0.243728
0.242683
0.241671
0.240688
0.239734
0.238808
0.237909
0.237036
0.236188
0.235364
0.234562
0.233784
0.233027
0.232292
0.231579
0.230886
0.230216
0.229567
0.228941
0.22834
0.227765
0.259218
0.257685
0.256201
0.254764
0.253374
0.252029
0.250726
0.249464
0.248242
0.247059
0.245911
0.244799
0.243722
0.242676
0.241663
0.24068
0.239726
0.2388
0.237901
0.237029
0.236182
0.235359
0.234561
0.233785
0.233032
0.232302
0.231593
0.230906
0.230242
0.229599
0.22898
0.228385
0.227816
0.259218
0.257685
0.2562
0.254764
0.253374
0.252028
0.250725
0.249463
0.24824
0.247056
0.245908
0.244796
0.243718
0.242672
0.241658
0.240674
0.239719
0.238793
0.237894
0.237022
0.236175
0.235353
0.234555
0.233781
0.23303
0.232301
0.231594
0.23091
0.230248
0.229608
0.228992
0.228399
0.227832
0.259218
0.257685
0.2562
0.254764
0.253373
0.252027
0.250724
0.249461
0.248239
0.247054
0.245906
0.244793
0.243715
0.242668
0.241654
0.24067
0.239715
0.238788
0.237889
0.237016
0.23617
0.235348
0.23455
0.233776
0.233025
0.232297
0.231591
0.230907
0.230246
0.229607
0.228992
0.228399
0.227831
0.259218
0.257685
0.2562
0.254763
0.253373
0.252026
0.250723
0.24946
0.248237
0.247052
0.245904
0.244791
0.243712
0.242665
0.24165
0.240666
0.239711
0.238784
0.237884
0.237012
0.236164
0.235342
0.234545
0.233771
0.23302
0.232292
0.231586
0.230903
0.230242
0.229603
0.228987
0.228394
0.227825
0.259218
0.257684
0.2562
0.254763
0.253372
0.252026
0.250722
0.249459
0.248236
0.247051
0.245902
0.244789
0.243709
0.242663
0.241647
0.240662
0.239707
0.23878
0.23788
0.237007
0.23616
0.235337
0.23454
0.233765
0.233014
0.232286
0.231581
0.230897
0.230236
0.229597
0.22898
0.228386
0.227814
0.259218
0.257684
0.2562
0.254763
0.253372
0.252025
0.250721
0.249458
0.248235
0.24705
0.245901
0.244787
0.243707
0.24266
0.241644
0.240659
0.239703
0.238776
0.237876
0.237003
0.236155
0.235333
0.234534
0.23376
0.233009
0.23228
0.231574
0.230891
0.230229
0.229589
0.228971
0.228375
0.227802
0.259218
0.257684
0.2562
0.254762
0.253371
0.252025
0.250721
0.249458
0.248234
0.247048
0.245899
0.244785
0.243705
0.242658
0.241642
0.240656
0.2397
0.238772
0.237872
0.236998
0.23615
0.235328
0.234529
0.233754
0.233003
0.232274
0.231568
0.230883
0.230221
0.22958
0.22896
0.228363
0.227787
0.259218
0.257684
0.256199
0.254762
0.253371
0.252024
0.25072
0.249457
0.248233
0.247047
0.245898
0.244783
0.243703
0.242655
0.241639
0.240653
0.239697
0.238769
0.237868
0.236994
0.236146
0.235323
0.234524
0.233749
0.232997
0.232267
0.23156
0.230875
0.230211
0.229569
0.228948
0.228349
0.227771
0.259218
0.257684
0.256199
0.254762
0.253371
0.252024
0.25072
0.249456
0.248232
0.247046
0.245896
0.244782
0.243701
0.242653
0.241637
0.240651
0.239694
0.238765
0.237864
0.23699
0.236141
0.235318
0.234518
0.233743
0.23299
0.23226
0.231552
0.230866
0.230201
0.229558
0.228935
0.228334
0.227753
0.259218
0.257684
0.256199
0.254762
0.253371
0.252024
0.250719
0.249456
0.248231
0.247045
0.245895
0.244781
0.2437
0.242651
0.241634
0.240648
0.239691
0.238762
0.237861
0.236986
0.236137
0.235312
0.234513
0.233736
0.232983
0.232252
0.231543
0.230856
0.23019
0.229545
0.228921
0.228318
0.227734
0.259218
0.257684
0.256199
0.254762
0.253371
0.252023
0.250719
0.249455
0.248231
0.247044
0.245894
0.244779
0.243698
0.24265
0.241632
0.240646
0.239688
0.238759
0.237857
0.236982
0.236132
0.235307
0.234507
0.23373
0.232976
0.232244
0.231534
0.230846
0.230179
0.229532
0.228906
0.2283
0.227714
0.259218
0.257684
0.256199
0.254762
0.25337
0.252023
0.250719
0.249455
0.24823
0.247044
0.245893
0.244778
0.243697
0.242648
0.24163
0.240643
0.239685
0.238756
0.237853
0.236978
0.236127
0.235302
0.234501
0.233723
0.232968
0.232236
0.231525
0.230835
0.230167
0.229518
0.228891
0.228283
0.227694
0.259218
0.257684
0.256199
0.254762
0.25337
0.252023
0.250718
0.249454
0.24823
0.247043
0.245893
0.244777
0.243695
0.242646
0.241629
0.240641
0.239683
0.238753
0.23785
0.236974
0.236123
0.235297
0.234495
0.233716
0.232961
0.232227
0.231515
0.230824
0.230154
0.229504
0.228875
0.228264
0.227674
0.259218
0.257684
0.256199
0.254762
0.25337
0.252023
0.250718
0.249454
0.248229
0.247042
0.245892
0.244776
0.243694
0.242645
0.241627
0.240639
0.23968
0.23875
0.237846
0.236969
0.236118
0.235291
0.234489
0.233709
0.232953
0.232218
0.231505
0.230813
0.230141
0.22949
0.228858
0.228246
0.227653
0.259218
0.257684
0.256199
0.254762
0.25337
0.252023
0.250718
0.249454
0.248229
0.247042
0.245891
0.244775
0.243693
0.242644
0.241625
0.240637
0.239678
0.238747
0.237843
0.236966
0.236114
0.235287
0.234483
0.233703
0.232945
0.23221
0.231495
0.230802
0.230129
0.229476
0.228843
0.228228
0.227633
0.259218
0.257684
0.256199
0.254762
0.25337
0.252023
0.250718
0.249454
0.248229
0.247041
0.24589
0.244774
0.243692
0.242642
0.241623
0.240635
0.239675
0.238744
0.23784
0.236962
0.236109
0.235281
0.234477
0.233696
0.232938
0.232201
0.231486
0.230791
0.230117
0.229462
0.228827
0.228211
0.227613
0.259218
0.257684
0.256199
0.254762
0.25337
0.252023
0.250718
0.249454
0.248229
0.247042
0.245891
0.244775
0.243692
0.242642
0.241623
0.240634
0.239674
0.238743
0.237838
0.236959
0.236106
0.235278
0.234473
0.233691
0.232931
0.232194
0.231477
0.230781
0.230106
0.22945
0.228813
0.228195
0.227595
0.259218
0.257684
0.256199
0.254762
0.25337
0.252023
0.250718
0.249454
0.248228
0.247041
0.24589
0.244774
0.243691
0.242641
0.241622
0.240632
0.239672
0.23874
0.237835
0.236956
0.236103
0.235273
0.234468
0.233685
0.232925
0.232187
0.231469
0.230772
0.230095
0.229438
0.2288
0.22818
0.227578
0.259218
0.257684
0.256199
0.254762
0.253371
0.252024
0.25072
0.249456
0.248231
0.247044
0.245893
0.244777
0.243694
0.242644
0.241625
0.240635
0.239675
0.238742
0.237837
0.236957
0.236103
0.235273
0.234467
0.233684
0.232923
0.232183
0.231465
0.230767
0.230089
0.22943
0.22879
0.228168
0.227565
0.259218
0.257685
0.2562
0.254764
0.253373
0.252026
0.250721
0.249457
0.248233
0.247046
0.245895
0.244779
0.243696
0.242646
0.241626
0.240637
0.239677
0.238744
0.237838
0.236959
0.236104
0.235274
0.234467
0.233683
0.232921
0.23218
0.23146
0.230761
0.230081
0.22942
0.228779
0.228155
0.227549
0.259218
0.257685
0.256201
0.254766
0.253378
0.252034
0.250731
0.249469
0.248246
0.24706
0.24591
0.244794
0.243712
0.242661
0.241642
0.240652
0.23969
0.238757
0.23785
0.236969
0.236112
0.23528
0.234471
0.233685
0.23292
0.232176
0.231453
0.23075
0.230066
0.229401
0.228755
0.228126
0.227515
0.259219
0.257689
0.25621
0.254778
0.25339
0.252046
0.250744
0.249483
0.24826
0.247074
0.245924
0.244808
0.243726
0.242674
0.241653
0.240661
0.239697
0.23876
0.237849
0.236963
0.236102
0.235263
0.234447
0.233653
0.23288
0.232127
0.231395
0.230681
0.229986
0.22931
0.228651
0.22801
0.227385
0.25922
0.257694
0.256221
0.254799
0.253423
0.252089
0.250795
0.249539
0.248318
0.247131
0.245978
0.244856
0.243765
0.242704
0.241671
0.240665
0.239685
0.238732
0.237802
0.236896
0.236014
0.235153
0.234314
0.233495
0.232697
0.231919
0.231159
0.230418
0.229695
0.22899
0.228302
0.22763
0.226975
0.259229
0.257739
0.256293
0.254883
0.25351
0.252174
0.250873
0.249605
0.248368
0.247162
0.245984
0.244834
0.243711
0.242614
0.241543
0.240497
0.239475
0.238476
0.237501
0.236549
0.235618
0.234709
0.23382
0.232952
0.232103
0.231274
0.230463
0.229671
0.228896
0.228139
0.227399
0.226675
0.225967
0.259264
0.257822
0.256452
0.255124
0.253802
0.25248
0.251159
0.249848
0.248553
0.24728
0.246032
0.244812
0.243621
0.24246
0.241328
0.240225
0.239149
0.238101
0.237079
0.236083
0.235112
0.234165
0.233241
0.23234
0.231461
0.230603
0.229767
0.228951
0.228156
0.22738
0.226624
0.225887
0.225169
0.2596
0.258633
0.257579
0.256543
0.255589
0.254718
0.253912
0.253162
0.252463
0.251811
0.251206
0.250649
0.25014
0.249678
0.249264
0.248897
0.248576
0.248301
0.248072
0.247886
0.247745
0.247647
0.247592
0.247578
0.247607
0.247677
0.247788
0.24794
0.248133
0.248365
0.248638
0.248951
0.249303
0.266719
0.28057
0.294242
0.307622
0.320668
0.333362
0.345692
0.357647
0.36922
0.380405
0.391198
0.401599
0.411609
0.42123
0.430465
0.439321
0.447804
0.455921
0.463681
0.471091
0.478162
0.484903
0.491323
0.497432
0.503241
0.50876
0.513998
0.518964
0.523669
0.528122
0.532332
0.536308
0.540062
0.839549
1.04961
1.33633
1.67792
2.00128
2.22917
2.343
2.37874
2.38295
2.38381
2.3895
2.39823
2.40647
2.4114
2.4123
2.40538
2.38591
2.34742
2.28132
2.17705
2.02327
1.81057
1.53677
1.21504
0.881682
0.59357
0.403724
0.324972
0.320416
0.345322
0.378001
0.411083
0.441539
0.467784
0.48893
0.504668
0.515216
0.521172
0.52333
0.522528
0.519547
0.515069
0.509675
0.503865
0.49808
0.492713
0.488096
0.484458
0.481887
0.480314
0.479527
0.479223
0.479057
0.478671
0.477696
0.475726
0.472303
0.466923
0.459081
0.448341
0.434427
0.4173
0.397208
0.374702
0.350593
0.325876
0.30161
0.278781
0.258179
0.240302
0.225333
0.213168
0.203506
0.195942
0.190057
0.185482
0.181917
0.179134
0.176965
0.175282
0.173983
0.172991
0.172239
0.171675
0.171257
0.170951
0.17073
0.170573
0.170463
0.170389
0.170339
0.170307
0.170288
0.170277
0.170271
0.170268
0.170267
0.170265
0.170271
0.170227
0.362165
0.38622
0.434977
0.529562
0.692058
0.926545
1.20911
1.49574
1.74254
1.92458
2.04047
2.10354
2.1306
2.13254
2.11347
2.0753
2.01498
1.92639
1.80259
1.63784
1.43024
1.18559
0.921732
0.670189
0.469372
0.34717
0.301394
0.302867
0.323614
0.350625
0.379089
0.406683
0.431901
0.45363
0.471155
0.484206
0.492934
0.497802
0.499444
0.498536
0.49572
0.491565
0.486558
0.481126
0.475653
0.470491
0.465953
0.462275
0.459578
0.457839
0.456899
0.456508
0.456366
0.456162
0.455567
0.454217
0.451683
0.447475
0.441081
0.432034
0.420004
0.404881
0.386832
0.366322
0.344082
0.321038
0.298198
0.276523
0.256802
0.23956
0.225019
0.213126
0.203625
0.19615
0.190313
0.185761
0.182205
0.179422
0.177244
0.175547
0.17423
0.173217
0.172443
0.171857
0.171418
0.171092
0.170852
0.170678
0.170553
0.170465
0.170403
0.170361
0.170332
0.170313
0.1703
0.170291
0.170284
0.170277
0.17028
0.170231
0.208268
0.209344
0.212046
0.218728
0.235574
0.272769
0.341823
0.45059
0.596438
0.76545
0.937751
1.09374
1.2189
1.30318
1.34033
1.33013
1.27627
1.18377
1.05831
0.907468
0.742676
0.580478
0.441171
0.342927
0.292458
0.280327
0.289331
0.307335
0.329303
0.353018
0.376967
0.399916
0.420808
0.438793
0.453308
0.464129
0.471362
0.475364
0.476632
0.475708
0.473116
0.469324
0.464739
0.459723
0.454606
0.4497
0.445297
0.441633
0.438851
0.436969
0.435874
0.435362
0.435179
0.435055
0.434709
0.433826
0.432019
0.428829
0.423746
0.416281
0.406053
0.392879
0.376839
0.358305
0.337918
0.31653
0.295093
0.274541
0.255665
0.239016
0.224861
0.213201
0.203828
0.196418
0.190609
0.186067
0.18251
0.179719
0.177528
0.175812
0.174474
0.173438
0.172639
0.172029
0.171567
0.171218
0.170958
0.170765
0.170623
0.17052
0.170445
0.17039
0.170351
0.170323
0.170302
0.170286
0.170273
0.170261
0.170259
0.170205
0.201488
0.199843
0.198074
0.195961
0.193675
0.192814
0.19598
0.205115
0.222518
0.250385
0.288823
0.334259
0.378856
0.418377
0.449028
0.465084
0.462699
0.441597
0.405458
0.361348
0.318286
0.284854
0.266165
0.261898
0.267801
0.279542
0.294851
0.31267
0.332107
0.352276
0.372314
0.391377
0.408681
0.42357
0.435602
0.444592
0.450612
0.453934
0.454945
0.454075
0.451745
0.44834
0.444198
0.439621
0.434892
0.430286
0.426069
0.422474
0.419658
0.417671
0.416441
0.4158
0.415534
0.415414
0.415205
0.414644
0.413401
0.411056
0.407119
0.401089
0.392541
0.381221
0.36712
0.350512
0.331946
0.31219
0.292138
0.272693
0.254644
0.238568
0.22478
0.213333
0.20407
0.19671
0.190919
0.186378
0.182814
0.180012
0.177807
0.176072
0.174713
0.173652
0.172829
0.172194
0.171707
0.171335
0.171054
0.170841
0.170681
0.170562
0.170472
0.170405
0.170355
0.170316
0.170286
0.170262
0.170243
0.170225
0.170219
0.170158
0.20988
0.208239
0.206618
0.204969
0.20315
0.201121
0.199304
0.198432
0.199289
0.201981
0.206344
0.212418
0.220247
0.228177
0.234742
0.239358
0.24181
0.242383
0.241955
0.241817
0.243233
0.24697
0.25317
0.261673
0.272353
0.285064
0.299511
0.315285
0.331922
0.348897
0.365619
0.381462
0.395821
0.408183
0.418196
0.425707
0.430764
0.433569
0.434421
0.433658
0.431617
0.428609
0.424915
0.420786
0.416463
0.412186
0.408198
0.40472
0.401921
0.399874
0.398538
0.397781
0.397418
0.397252
0.397093
0.396732
0.395898
0.394226
0.39126
0.386498
0.379484
0.369897
0.357641
0.342891
0.326097
0.307942
0.289256
0.270904
0.253672
0.238161
0.22473
0.213485
0.204324
0.197004
0.191223
0.186679
0.183107
0.180293
0.178072
0.176319
0.174939
0.173856
0.173009
0.172349
0.171839
0.171444
0.171141
0.170908
0.17073
0.170594
0.17049
0.170409
0.170347
0.170298
0.170259
0.170227
0.170201
0.170176
0.170165
0.170098
0.216353
0.214986
0.213677
0.212446
0.211291
0.210186
0.209129
0.208203
0.207717
0.208067
0.209326
0.21139
0.214291
0.217408
0.220544
0.223666
0.226842
0.230223
0.234021
0.238478
0.24383
0.250278
0.257969
0.266979
0.277311
0.288881
0.301532
0.315043
0.329115
0.343364
0.357339
0.37055
0.38252
0.392842
0.401236
0.407574
0.411883
0.414312
0.415087
0.414471
0.412731
0.410121
0.406869
0.403185
0.399274
0.395345
0.391614
0.388293
0.385556
0.383492
0.38209
0.381242
0.380786
0.380552
0.380384
0.380124
0.379563
0.3784
0.376226
0.372555
0.366909
0.358912
0.348383
0.335401
0.320317
0.303722
0.286378
0.269109
0.252691
0.237745
0.224671
0.213628
0.204564
0.197282
0.191508
0.186958
0.183375
0.180549
0.178314
0.176546
0.175147
0.174043
0.173174
0.172493
0.17196
0.171544
0.17122
0.170968
0.170772
0.17062
0.1705
0.170407
0.170333
0.170273
0.170225
0.170185
0.170151
0.170121
0.170104
0.17003
0.220615
0.219473
0.218406
0.217459
0.216661
0.216028
0.215562
0.215281
0.215249
0.215574
0.21636
0.217662
0.219495
0.221746
0.224332
0.227236
0.230491
0.234171
0.23837
0.243193
0.248749
0.255133
0.262424
0.27066
0.279839
0.289914
0.300786
0.312289
0.324192
0.33619
0.347925
0.359006
0.369054
0.377747
0.384858
0.390279
0.394021
0.396189
0.396951
0.396511
0.395078
0.392855
0.390031
0.386781
0.383277
0.379701
0.376246
0.373113
0.370474
0.368434
0.367004
0.366098
0.36557
0.365267
0.365058
0.364827
0.364426
0.363624
0.362068
0.359304
0.354848
0.348279
0.339343
0.328022
0.314568
0.299483
0.283452
0.267256
0.251653
0.237278
0.224568
0.213732
0.20477
0.197526
0.191759
0.187203
0.18361
0.180772
0.178526
0.176743
0.175329
0.174208
0.173321
0.172619
0.172067
0.171631
0.171288
0.171019
0.170806
0.170639
0.170505
0.170399
0.170313
0.170244
0.170186
0.170138
0.170098
0.170061
0.17004
0.169959
0.223355
0.222378
0.221477
0.220695
0.220071
0.219635
0.21941
0.21941
0.219659
0.220205
0.221098
0.222375
0.224046
0.226097
0.228516
0.2313
0.234467
0.238055
0.242117
0.246716
0.251914
0.257772
0.264337
0.271637
0.279673
0.288406
0.297755
0.307584
0.317706
0.327874
0.337799
0.347168
0.355681
0.363081
0.369185
0.373899
0.377218
0.379215
0.380013
0.379763
0.378632
0.376781
0.374364
0.371529
0.36842
0.365194
0.362025
0.359099
0.356587
0.354606
0.353184
0.352253
0.351683
0.351326
0.351066
0.350819
0.350493
0.349923
0.348823
0.346787
0.343337
0.338023
0.330528
0.320745
0.308831
0.295193
0.280442
0.265305
0.250519
0.236726
0.224394
0.213777
0.204925
0.197724
0.191966
0.187405
0.183803
0.180955
0.178699
0.176906
0.17548
0.174345
0.173442
0.172725
0.172155
0.171703
0.171344
0.171059
0.170832
0.17065
0.170504
0.170386
0.17029
0.170211
0.170145
0.17009
0.170042
0.169999
0.169973
0.169887
0.225071
0.224212
0.223424
0.222747
0.22222
0.221875
0.221742
0.22184
0.222188
0.222807
0.223722
0.224961
0.226543
0.228479
0.230767
0.233409
0.236416
0.239809
0.24362
0.247887
0.252653
0.257958
0.263836
0.270304
0.277358
0.284965
0.293054
0.301513
0.310186
0.318871
0.327337
0.335334
0.342626
0.349005
0.354321
0.358492
0.361502
0.363394
0.364257
0.364203
0.363361
0.361859
0.359825
0.357379
0.354646
0.351761
0.348879
0.346171
0.343806
0.34191
0.340526
0.339605
0.339023
0.338637
0.338336
0.338054
0.337742
0.337301
0.336516
0.335036
0.33241
0.328174
0.321958
0.313579
0.3031
0.290838
0.277324
0.26323
0.249263
0.236065
0.224127
0.213746
0.205015
0.197866
0.192122
0.187558
0.183948
0.181092
0.178828
0.177027
0.175592
0.174447
0.173533
0.172804
0.172221
0.171756
0.171383
0.171085
0.170845
0.170651
0.170495
0.170366
0.170261
0.170174
0.1701
0.170038
0.169985
0.169937
0.169906
0.169814
0.226102
0.225323
0.224607
0.223991
0.223507
0.22319
0.223068
0.223166
0.223502
0.224094
0.224958
0.226109
0.227565
0.229338
0.231437
0.233869
0.236645
0.239779
0.243289
0.247199
0.251537
0.256329
0.261594
0.267343
0.273565
0.28023
0.287275
0.294605
0.302091
0.309571
0.316859
0.323758
0.330076
0.335649
0.34035
0.344103
0.346884
0.348716
0.349659
0.349795
0.349222
0.348042
0.34636
0.344277
0.341897
0.339337
0.336735
0.33425
0.332046
0.330253
0.328932
0.328047
0.327484
0.327099
0.326776
0.326459
0.326128
0.32574
0.325151
0.324075
0.3221
0.318764
0.313661
0.306542
0.297384
0.286417
0.274092
0.261018
0.247869
0.235277
0.223753
0.213626
0.205033
0.197946
0.192221
0.187658
0.184042
0.18118
0.17891
0.177104
0.175664
0.174512
0.17359
0.172852
0.17226
0.171784
0.171402
0.171093
0.170843
0.17064
0.170474
0.170338
0.170224
0.17013
0.17005
0.169982
0.169924
0.169871
0.169837
0.16974
0.226685
0.225955
0.225283
0.224696
0.224224
0.223899
0.223748
0.223795
0.224062
0.224567
0.225322
0.226342
0.227638
0.229222
0.231103
0.233291
0.235796
0.238631
0.24181
0.245347
0.249261
0.253565
0.258272
0.263381
0.268881
0.27474
0.280904
0.287292
0.293798
0.300293
0.306626
0.31264
0.318181
0.323111
0.327325
0.330751
0.33336
0.335158
0.336183
0.336495
0.336166
0.335279
0.333916
0.332164
0.33011
0.327857
0.325525
0.323261
0.321223
0.319546
0.318304
0.317476
0.316958
0.316603
0.316286
0.315947
0.315585
0.315201
0.314716
0.313912
0.31243
0.309824
0.305669
0.299662
0.291704
0.281942
0.270747
0.258666
0.246329
0.234355
0.223262
0.213409
0.204971
0.197959
0.192263
0.187705
0.184086
0.181219
0.178944
0.177135
0.175691
0.174536
0.17361
0.172866
0.172268
0.171785
0.171396
0.17108
0.170822
0.170612
0.170439
0.170296
0.170177
0.170077
0.169993
0.16992
0.169858
0.169801
0.169764
0.169663
0.226988
0.226287
0.225636
0.225058
0.224578
0.224224
0.224022
0.223994
0.224164
0.224548
0.225162
0.22602
0.227132
0.228508
0.230157
0.232088
0.234312
0.236837
0.239675
0.242837
0.246333
0.250173
0.254361
0.258892
0.263751
0.26891
0.274319
0.279913
0.285604
0.291286
0.296839
0.302133
0.307043
0.311455
0.315275
0.318438
0.32091
0.322685
0.323786
0.324253
0.32414
0.323511
0.322435
0.320981
0.319226
0.317256
0.31518
0.31313
0.311259
0.309704
0.308552
0.307796
0.307343
0.307043
0.306759
0.306421
0.306032
0.305625
0.305177
0.30454
0.303413
0.301381
0.298015
0.292972
0.286089
0.277435
0.267306
0.256181
0.244646
0.233296
0.222652
0.213093
0.204829
0.197906
0.192248
0.1877
0.18408
0.18121
0.178932
0.17712
0.175675
0.174518
0.17359
0.172844
0.172243
0.171757
0.171363
0.171042
0.17078
0.170565
0.170388
0.17024
0.170117
0.170013
0.169924
0.169848
0.169783
0.169724
0.169684
0.16958
0.22713
0.226442
0.225797
0.225215
0.224716
0.224324
0.224062
0.223951
0.224013
0.224266
0.224727
0.225408
0.226323
0.22748
0.228889
0.230558
0.232496
0.234712
0.237213
0.240008
0.243103
0.246504
0.25021
0.254215
0.258503
0.263047
0.267807
0.272725
0.27773
0.282734
0.287639
0.292338
0.296727
0.300709
0.304201
0.307143
0.309497
0.311252
0.312414
0.313012
0.313085
0.312682
0.311857
0.31067
0.309184
0.307474
0.305635
0.30379
0.302082
0.300652
0.299593
0.298918
0.298542
0.298317
0.298093
0.297781
0.29738
0.296941
0.296489
0.295938
0.29505
0.293454
0.290728
0.286505
0.280571
0.272925
0.26379
0.25358
0.242828
0.232105
0.221923
0.212678
0.204606
0.197788
0.192178
0.187647
0.18403
0.181157
0.178877
0.177064
0.175618
0.174462
0.173534
0.172787
0.172185
0.171697
0.171302
0.170979
0.170714
0.170497
0.170316
0.170166
0.17004
0.169934
0.169843
0.169765
0.169697
0.169636
0.169595
0.169489
0.227187
0.226502
0.225854
0.22526
0.224737
0.224304
0.223981
0.223788
0.223745
0.223869
0.224177
0.224684
0.225401
0.226339
0.227509
0.228919
0.230576
0.232488
0.234662
0.237104
0.239819
0.242808
0.24607
0.249597
0.253374
0.257377
0.261571
0.265908
0.270327
0.274757
0.279114
0.28331
0.287258
0.290873
0.294081
0.296828
0.299074
0.300801
0.302009
0.302713
0.302941
0.30273
0.302123
0.30117
0.299925
0.29845
0.296831
0.295178
0.293627
0.292317
0.291354
0.290763
0.290472
0.290335
0.290191
0.28993
0.289538
0.289072
0.288593
0.288071
0.287331
0.286051
0.283831
0.280295
0.275186
0.268445
0.260228
0.250883
0.240892
0.230791
0.221083
0.212168
0.204306
0.197608
0.192058
0.187551
0.18394
0.181067
0.178785
0.176971
0.175525
0.174369
0.173443
0.172697
0.172096
0.171609
0.171213
0.17089
0.170625
0.170407
0.170225
0.170074
0.169947
0.169839
0.169747
0.169668
0.169599
0.169537
0.169496
0.169387
0.227203
0.226515
0.225861
0.225252
0.224702
0.224229
0.223849
0.22358
0.22344
0.223445
0.223611
0.223953
0.224484
0.225214
0.226155
0.227316
0.228703
0.230325
0.232188
0.234296
0.236653
0.23926
0.242114
0.245207
0.248525
0.252048
0.255745
0.259574
0.263486
0.267419
0.271303
0.275065
0.278629
0.281921
0.284877
0.287443
0.289583
0.291274
0.292508
0.293292
0.293646
0.293595
0.293176
0.292427
0.291393
0.290129
0.28871
0.287235
0.285831
0.284639
0.283768
0.28326
0.283057
0.283016
0.282965
0.282777
0.282416
0.281937
0.281424
0.280894
0.280233
0.279172
0.277342
0.274368
0.269967
0.26403
0.25665
0.248116
0.238856
0.229369
0.220139
0.211568
0.203934
0.197371
0.191891
0.187416
0.183816
0.180945
0.178662
0.176847
0.175401
0.174247
0.173322
0.172579
0.171979
0.171494
0.1711
0.170778
0.170514
0.170296
0.170115
0.169964
0.169837
0.169729
0.169637
0.169557
0.169489
0.169426
0.169384
0.169276
0.227201
0.226509
0.225845
0.225219
0.224645
0.224134
0.223703
0.223366
0.223139
0.223038
0.223077
0.22327
0.223631
0.224171
0.224901
0.22583
0.226967
0.228318
0.22989
0.231687
0.233713
0.235967
0.238447
0.241146
0.244051
0.247145
0.250399
0.25378
0.257245
0.260741
0.26421
0.267588
0.270809
0.27381
0.276533
0.278929
0.280961
0.282604
0.283846
0.284687
0.285139
0.285221
0.284958
0.284384
0.283536
0.28246
0.28122
0.279908
0.278643
0.27756
0.276777
0.276349
0.27623
0.276288
0.276341
0.276242
0.275933
0.275459
0.274914
0.274357
0.273726
0.272806
0.271268
0.268746
0.264944
0.259711
0.253089
0.245307
0.236743
0.227855
0.219103
0.210887
0.203494
0.197081
0.191685
0.18725
0.183666
0.180798
0.178515
0.1767
0.175254
0.174101
0.173178
0.172437
0.17184
0.171358
0.170966
0.170647
0.170384
0.170168
0.169989
0.169839
0.169712
0.169605
0.169514
0.169435
0.169366
0.169304
0.169262
0.169154
0.227191
0.226493
0.225819
0.225178
0.22458
0.224037
0.22356
0.223163
0.222861
0.222667
0.222595
0.222657
0.222868
0.223237
0.223777
0.224497
0.225404
0.226508
0.227813
0.229326
0.231047
0.232979
0.235119
0.23746
0.239993
0.2427
0.245558
0.248539
0.251604
0.25471
0.257807
0.260839
0.26375
0.266484
0.26899
0.271221
0.273141
0.274726
0.275959
0.276836
0.277361
0.277548
0.277417
0.276991
0.276303
0.275392
0.274314
0.273149
0.272011
0.27103
0.27033
0.269975
0.269937
0.270091
0.270253
0.270255
0.270016
0.269565
0.269
0.268407
0.267773
0.266936
0.265608
0.263445
0.260142
0.255519
0.249575
0.242485
0.234577
0.226267
0.217989
0.210134
0.202994
0.196744
0.191442
0.187057
0.183494
0.180633
0.178352
0.176536
0.175091
0.173939
0.173017
0.172279
0.171685
0.171205
0.170817
0.1705
0.17024
0.170027
0.169849
0.169701
0.169576
0.169471
0.16938
0.169302
0.169235
0.169173
0.169132
0.169025
0.227177
0.226473
0.22579
0.225134
0.224515
0.223943
0.223426
0.222978
0.222611
0.222337
0.222168
0.222116
0.222195
0.222415
0.222786
0.223319
0.224022
0.224903
0.225967
0.227221
0.228668
0.230307
0.232139
0.234156
0.236351
0.23871
0.241211
0.243831
0.246538
0.249293
0.252053
0.254771
0.257397
0.259883
0.262182
0.264252
0.266059
0.267576
0.268785
0.269679
0.270257
0.270526
0.2705
0.2702
0.269649
0.268882
0.267946
0.266915
0.265892
0.265005
0.26438
0.264092
0.264129
0.264375
0.264645
0.264755
0.264602
0.26419
0.263618
0.26299
0.262334
0.261538
0.260357
0.258471
0.255579
0.251482
0.246138
0.239679
0.232383
0.224625
0.216812
0.20932
0.202442
0.196366
0.19117
0.186841
0.183306
0.180457
0.178178
0.176363
0.174918
0.173766
0.172847
0.17211
0.171519
0.171043
0.170657
0.170344
0.170087
0.169876
0.169701
0.169555
0.169433
0.169329
0.16924
0.169163
0.169097
0.169037
0.168996
0.16889
0.227161
0.226451
0.225758
0.22509
0.224452
0.223854
0.223303
0.222811
0.222388
0.222044
0.221792
0.221642
0.221607
0.221696
0.221919
0.222287
0.222809
0.223491
0.224341
0.225363
0.226561
0.227938
0.22949
0.231216
0.233106
0.23515
0.237329
0.239624
0.242005
0.244441
0.246895
0.249325
0.251689
0.253943
0.256046
0.257959
0.25965
0.261092
0.262266
0.26316
0.263771
0.264102
0.264161
0.263964
0.263531
0.262888
0.262078
0.261165
0.260246
0.259445
0.258887
0.258659
0.258763
0.259094
0.259469
0.259692
0.259634
0.259279
0.258713
0.258057
0.25737
0.256586
0.255501
0.253827
0.25127
0.247619
0.242803
0.236913
0.230184
0.22295
0.215587
0.208455
0.201845
0.195952
0.190871
0.186609
0.183107
0.180272
0.177999
0.176186
0.174741
0.17359
0.172672
0.171938
0.171349
0.170876
0.170493
0.170183
0.169929
0.169721
0.169549
0.169406
0.169285
0.169184
0.169097
0.169022
0.168957
0.168898
0.168858
0.168753
0.227143
0.226426
0.225725
0.225045
0.224391
0.223769
0.223189
0.222659
0.222188
0.221785
0.221461
0.221227
0.221092
0.221068
0.221162
0.221386
0.221747
0.222254
0.222912
0.223728
0.224705
0.225844
0.227147
0.228609
0.230225
0.231985
0.233873
0.235873
0.23796
0.240106
0.24228
0.244446
0.246567
0.248605
0.250521
0.252282
0.253855
0.255216
0.256345
0.257227
0.257855
0.25823
0.258356
0.258243
0.257907
0.257371
0.256671
0.255863
0.255038
0.254313
0.253815
0.25364
0.253803
0.254211
0.254687
0.255022
0.255067
0.254781
0.254237
0.253562
0.252842
0.25205
0.251025
0.249509
0.247222
0.243948
0.239593