/*--------------------------------*- C++ -*----------------------------------*\
| =========                 |                                                 |
| \\      /  F ield         | OpenFOAM: The Open Source CFD Toolbox           |
|  \\    /   O peration     | Version:  2.1.1                                 |
|   \\  /    A nd           | Web:      www.OpenFOAM.org                      |
|    \\/     M anipulation  |                                                 |
\*---------------------------------------------------------------------------*/
FoamFile
{
    version     2.0;
    format      ascii;
    class       volScalarField;
    location    "0.04";
    object      nut;
}
// * * * * * * * * * * * * * * * * * * * * * * * * * * * * * * * * * * * * * //

dimensions      [0 2 -1 0 0 0 0];

internalField   nonuniform List<scalar> 
6820
(
4.96025e-05
5.47044e-05
5.94497e-05
6.37667e-05
6.76167e-05
7.0978e-05
7.3849e-05
7.62475e-05
7.8206e-05
7.97663e-05
8.09749e-05
8.18794e-05
8.25261e-05
8.29579e-05
8.32135e-05
8.33268e-05
8.33272e-05
8.32394e-05
8.3084e-05
8.28781e-05
8.26354e-05
8.2367e-05
8.20816e-05
8.17861e-05
8.14853e-05
8.11831e-05
8.08816e-05
8.05829e-05
8.02837e-05
7.99992e-05
7.96503e-05
7.96048e-05
7.80479e-05
0.000540294
0.000304979
0.000219974
0.000171578
0.000140544
0.000119685
0.000105163
9.47807e-05
8.72172e-05
8.16355e-05
7.74853e-05
7.43928e-05
7.20972e-05
7.04125e-05
6.92028e-05
6.83677e-05
6.78315e-05
6.7536e-05
6.74363e-05
6.74968e-05
6.76891e-05
6.799e-05
6.83805e-05
6.88447e-05
6.93688e-05
6.99409e-05
7.05506e-05
7.11875e-05
7.18438e-05
7.25051e-05
7.31729e-05
7.38139e-05
7.43796e-05
0.00105857
0.000836082
0.000679228
0.000569602
0.000490041
0.000430104
0.000383691
0.000346847
0.000316952
0.000292244
0.000271508
0.000253882
0.000238739
0.000225612
0.000214143
0.000204057
0.000195137
0.000187209
0.000180131
0.000173788
0.000168085
0.000162941
0.000158289
0.000154072
0.000150239
0.000146749
0.000143562
0.000140647
0.00013797
0.000135511
0.000133202
0.000131144
0.000128791
0.00115953
0.00109653
0.00101166
0.0009264
0.000849785
0.000783584
0.000727018
0.000678676
0.000637141
0.000601193
0.00056983
0.000542248
0.00051781
0.000496008
0.000476434
0.000458762
0.000442726
0.00042811
0.000414734
0.000402449
0.00039113
0.00038067
0.00037098
0.000361983
0.000353614
0.000345817
0.000338548
0.000331768
0.000325451
0.000319582
0.000314162
0.00030922
0.000304804
0.00116966
0.00115863
0.00113362
0.00109756
0.00105568
0.00101219
0.000969664
0.000929405
0.000891962
0.000857459
0.000825807
0.000796814
0.000770254
0.000745895
0.000723517
0.000702915
0.000683907
0.00066633
0.000650038
0.000634904
0.000620814
0.000607667
0.000595373
0.000583852
0.000573033
0.00056285
0.000553247
0.000544171
0.000535575
0.000527419
0.000519673
0.000512313
0.000505354
0.00117006
0.00116839
0.00116306
0.0011526
0.00113713
0.00111768
0.00109554
0.00107192
0.00104773
0.00102363
0.00100004
0.000977238
0.000955384
0.000934554
0.000914776
0.000896042
0.000878323
0.000861579
0.000845758
0.00083081
0.000816678
0.000803309
0.00079065
0.000778648
0.000767253
0.000756414
0.000746085
0.000736216
0.000726761
0.000717674
0.000708908
0.00070042
0.000692169
0.00116996
0.00116938
0.00116821
0.00116569
0.00116123
0.00115458
0.00114584
0.00113529
0.0011233
0.00111026
0.00109653
0.0010824
0.0010681
0.00105382
0.00103971
0.00102585
0.00101233
0.000999198
0.000986476
0.000974185
0.000962331
0.000950914
0.000939923
0.000929347
0.000919168
0.000909364
0.000899913
0.000890789
0.000881963
0.000873404
0.000865082
0.000856965
0.000849022
0.00116994
0.0011694
0.00116883
0.00116803
0.00116674
0.00116472
0.0011618
0.00115791
0.00115305
0.0011473
0.00114077
0.00113358
0.00112587
0.00111777
0.00110938
0.00110081
0.00109214
0.00108344
0.00107476
0.00106615
0.00105765
0.00104929
0.00104108
0.00103303
0.00102516
0.00101746
0.00100994
0.0010026
0.000995411
0.000988379
0.000981488
0.000974725
0.000968082
0.00116994
0.00116939
0.00116886
0.00116832
0.0011677
0.00116692
0.00116588
0.00116449
0.00116269
0.00116044
0.00115773
0.00115458
0.00115101
0.00114706
0.00114278
0.00113823
0.00113344
0.00112846
0.00112334
0.00111811
0.00111281
0.00110746
0.0011021
0.00109674
0.00109139
0.00108608
0.0010808
0.00107557
0.0010704
0.00106528
0.00106022
0.00105522
0.00105029
0.00116994
0.00116938
0.00116885
0.00116833
0.00116782
0.00116729
0.00116671
0.00116605
0.00116527
0.00116433
0.0011632
0.00116187
0.00116032
0.00115855
0.00115658
0.0011544
0.00115203
0.00114949
0.0011468
0.00114398
0.00114104
0.001138
0.00113488
0.0011317
0.00112846
0.00112519
0.00112188
0.00111856
0.00111523
0.00111189
0.00110857
0.00110525
0.00110197
0.00116994
0.00116938
0.00116884
0.00116832
0.00116782
0.00116732
0.00116683
0.00116634
0.00116582
0.00116527
0.00116467
0.001164
0.00116325
0.00116242
0.00116148
0.00116045
0.00115931
0.00115808
0.00115674
0.00115532
0.0011538
0.00115221
0.00115054
0.00114881
0.00114702
0.00114517
0.00114329
0.00114136
0.00113941
0.00113744
0.00113545
0.00113347
0.00113149
0.00116994
0.00116938
0.00116884
0.00116832
0.00116781
0.00116732
0.00116684
0.00116637
0.00116591
0.00116546
0.00116499
0.00116452
0.00116403
0.00116352
0.00116298
0.0011624
0.00116179
0.00116113
0.00116043
0.00115968
0.00115889
0.00115805
0.00115717
0.00115625
0.0011553
0.0011543
0.00115328
0.00115223
0.00115115
0.00115006
0.00114896
0.00114786
0.00114677
0.00116994
0.00116938
0.00116884
0.00116832
0.00116781
0.00116732
0.00116684
0.00116637
0.00116592
0.00116548
0.00116505
0.00116462
0.0011642
0.00116378
0.00116336
0.00116294
0.00116251
0.00116207
0.00116161
0.00116115
0.00116067
0.00116017
0.00115966
0.00115913
0.00115858
0.00115802
0.00115744
0.00115686
0.00115626
0.00115567
0.00115507
0.00115448
0.0011539
0.00116994
0.00116938
0.00116884
0.00116832
0.00116781
0.00116731
0.00116683
0.00116637
0.00116591
0.00116547
0.00116505
0.00116463
0.00116422
0.00116383
0.00116344
0.00116306
0.00116268
0.00116231
0.00116194
0.00116157
0.00116121
0.00116084
0.00116047
0.0011601
0.00115973
0.00115936
0.00115899
0.00115862
0.00115826
0.0011579
0.00115755
0.00115722
0.0011569
0.00116994
0.00116938
0.00116884
0.00116832
0.00116781
0.00116731
0.00116683
0.00116636
0.00116591
0.00116547
0.00116504
0.00116463
0.00116422
0.00116383
0.00116345
0.00116307
0.00116271
0.00116236
0.00116201
0.00116167
0.00116134
0.00116102
0.0011607
0.00116039
0.00116009
0.00115979
0.0011595
0.00115922
0.00115895
0.00115869
0.00115845
0.00115823
0.00115803
0.00116994
0.00116938
0.00116884
0.00116831
0.0011678
0.00116731
0.00116683
0.00116636
0.00116591
0.00116547
0.00116504
0.00116462
0.00116422
0.00116382
0.00116344
0.00116307
0.00116271
0.00116236
0.00116202
0.00116169
0.00116137
0.00116106
0.00116075
0.00116046
0.00116018
0.0011599
0.00115964
0.00115939
0.00115916
0.00115894
0.00115874
0.00115856
0.0011584
0.00116994
0.00116938
0.00116884
0.00116831
0.0011678
0.00116731
0.00116683
0.00116636
0.0011659
0.00116546
0.00116503
0.00116462
0.00116421
0.00116382
0.00116343
0.00116306
0.0011627
0.00116235
0.00116201
0.00116168
0.00116137
0.00116106
0.00116076
0.00116047
0.00116019
0.00115993
0.00115967
0.00115943
0.00115921
0.001159
0.00115881
0.00115865
0.0011585
0.00116994
0.00116938
0.00116884
0.00116831
0.0011678
0.00116731
0.00116682
0.00116636
0.0011659
0.00116546
0.00116503
0.00116461
0.00116421
0.00116381
0.00116343
0.00116306
0.0011627
0.00116235
0.00116201
0.00116168
0.00116136
0.00116105
0.00116075
0.00116046
0.00116019
0.00115993
0.00115967
0.00115944
0.00115921
0.00115901
0.00115882
0.00115866
0.00115851
0.00116994
0.00116938
0.00116884
0.00116831
0.0011678
0.00116731
0.00116682
0.00116635
0.0011659
0.00116546
0.00116503
0.00116461
0.0011642
0.00116381
0.00116342
0.00116305
0.00116269
0.00116234
0.001162
0.00116167
0.00116135
0.00116104
0.00116074
0.00116046
0.00116018
0.00115992
0.00115967
0.00115943
0.00115921
0.001159
0.00115881
0.00115864
0.0011585
0.00116994
0.00116938
0.00116884
0.00116831
0.0011678
0.0011673
0.00116682
0.00116635
0.0011659
0.00116545
0.00116502
0.0011646
0.0011642
0.0011638
0.00116342
0.00116305
0.00116268
0.00116233
0.00116199
0.00116166
0.00116134
0.00116103
0.00116073
0.00116045
0.00116017
0.00115991
0.00115965
0.00115942
0.00115919
0.00115898
0.00115879
0.00115862
0.00115847
0.00116994
0.00116938
0.00116884
0.00116831
0.0011678
0.0011673
0.00116682
0.00116635
0.00116589
0.00116545
0.00116502
0.0011646
0.00116419
0.0011638
0.00116341
0.00116304
0.00116268
0.00116233
0.00116198
0.00116165
0.00116133
0.00116102
0.00116072
0.00116044
0.00116016
0.00115989
0.00115964
0.0011594
0.00115918
0.00115896
0.00115877
0.00115859
0.00115843
0.00116994
0.00116938
0.00116884
0.00116831
0.0011678
0.0011673
0.00116682
0.00116635
0.00116589
0.00116545
0.00116502
0.0011646
0.00116419
0.00116379
0.00116341
0.00116304
0.00116267
0.00116232
0.00116198
0.00116165
0.00116133
0.00116102
0.00116072
0.00116043
0.00116015
0.00115988
0.00115963
0.00115939
0.00115916
0.00115894
0.00115874
0.00115856
0.0011584
0.00116994
0.00116938
0.00116884
0.00116831
0.0011678
0.0011673
0.00116682
0.00116635
0.00116589
0.00116545
0.00116502
0.0011646
0.00116419
0.00116379
0.00116341
0.00116303
0.00116267
0.00116231
0.00116197
0.00116164
0.00116132
0.00116101
0.00116071
0.00116041
0.00116014
0.00115987
0.00115961
0.00115937
0.00115914
0.00115892
0.00115872
0.00115853
0.00115836
0.00116994
0.00116938
0.00116884
0.00116831
0.0011678
0.0011673
0.00116682
0.00116635
0.00116589
0.00116545
0.00116501
0.00116459
0.00116419
0.00116379
0.0011634
0.00116303
0.00116266
0.00116231
0.00116197
0.00116163
0.00116131
0.001161
0.00116069
0.0011604
0.00116012
0.00115985
0.00115959
0.00115935
0.00115911
0.00115889
0.00115869
0.00115849
0.00115832
0.00116994
0.00116938
0.00116884
0.00116831
0.0011678
0.0011673
0.00116682
0.00116635
0.00116589
0.00116544
0.00116501
0.00116459
0.00116418
0.00116379
0.0011634
0.00116302
0.00116266
0.0011623
0.00116196
0.00116162
0.0011613
0.00116099
0.00116068
0.00116039
0.00116011
0.00115984
0.00115958
0.00115933
0.00115909
0.00115887
0.00115865
0.00115846
0.00115827
0.00116994
0.00116938
0.00116884
0.00116831
0.0011678
0.0011673
0.00116682
0.00116635
0.00116589
0.00116544
0.00116501
0.00116459
0.00116418
0.00116378
0.0011634
0.00116302
0.00116265
0.0011623
0.00116195
0.00116162
0.00116129
0.00116098
0.00116067
0.00116038
0.00116009
0.00115982
0.00115956
0.00115931
0.00115907
0.00115884
0.00115862
0.00115842
0.00115823
0.00116994
0.00116938
0.00116884
0.00116831
0.0011678
0.0011673
0.00116682
0.00116635
0.00116589
0.00116544
0.00116501
0.00116459
0.00116418
0.00116378
0.00116339
0.00116302
0.00116265
0.00116229
0.00116195
0.00116161
0.00116128
0.00116097
0.00116066
0.00116037
0.00116008
0.0011598
0.00115954
0.00115928
0.00115904
0.00115881
0.00115859
0.00115838
0.00115819
0.00116994
0.00116938
0.00116884
0.00116831
0.0011678
0.0011673
0.00116682
0.00116635
0.00116589
0.00116544
0.00116501
0.00116459
0.00116418
0.00116378
0.00116339
0.00116301
0.00116265
0.00116229
0.00116194
0.0011616
0.00116128
0.00116096
0.00116065
0.00116035
0.00116007
0.00115979
0.00115952
0.00115926
0.00115902
0.00115878
0.00115856
0.00115835
0.00115815
0.00116994
0.00116938
0.00116884
0.00116831
0.0011678
0.0011673
0.00116682
0.00116635
0.00116589
0.00116544
0.00116501
0.00116459
0.00116418
0.00116378
0.00116339
0.00116301
0.00116264
0.00116228
0.00116194
0.0011616
0.00116127
0.00116095
0.00116064
0.00116034
0.00116005
0.00115977
0.0011595
0.00115924
0.00115899
0.00115876
0.00115853
0.00115831
0.00115811
0.00116994
0.00116938
0.00116884
0.00116831
0.0011678
0.0011673
0.00116682
0.00116635
0.00116589
0.00116544
0.00116501
0.00116459
0.00116418
0.00116378
0.00116339
0.00116301
0.00116264
0.00116228
0.00116193
0.00116159
0.00116127
0.00116095
0.00116063
0.00116033
0.00116004
0.00115976
0.00115949
0.00115923
0.00115897
0.00115873
0.0011585
0.00115828
0.00115807
0.00116994
0.00116938
0.00116884
0.00116831
0.0011678
0.0011673
0.00116682
0.00116635
0.00116589
0.00116544
0.00116501
0.00116459
0.00116418
0.00116378
0.00116339
0.00116301
0.00116264
0.00116228
0.00116193
0.00116159
0.00116126
0.00116094
0.00116063
0.00116033
0.00116003
0.00115975
0.00115947
0.00115921
0.00115895
0.00115871
0.00115847
0.00115825
0.00115803
0.00116994
0.00116938
0.00116884
0.00116831
0.0011678
0.00116731
0.00116682
0.00116635
0.0011659
0.00116545
0.00116502
0.0011646
0.00116419
0.00116379
0.0011634
0.00116302
0.00116265
0.00116229
0.00116193
0.00116159
0.00116126
0.00116094
0.00116062
0.00116031
0.00116001
0.00115972
0.00115944
0.00115917
0.00115891
0.00115865
0.00115841
0.00115817
0.00115795
0.00116994
0.00116938
0.00116884
0.00116832
0.00116781
0.00116731
0.00116683
0.00116636
0.0011659
0.00116546
0.00116503
0.0011646
0.00116419
0.00116379
0.0011634
0.00116301
0.00116264
0.00116227
0.00116191
0.00116156
0.00116121
0.00116087
0.00116054
0.00116021
0.00115989
0.00115958
0.00115927
0.00115896
0.00115867
0.00115838
0.00115809
0.00115782
0.00115755
0.00116994
0.00116938
0.00116884
0.00116833
0.00116782
0.00116733
0.00116685
0.00116639
0.00116593
0.00116548
0.00116503
0.0011646
0.00116417
0.00116374
0.00116331
0.00116289
0.00116247
0.00116205
0.00116163
0.00116121
0.00116078
0.00116036
0.00115994
0.00115951
0.00115908
0.00115865
0.00115821
0.00115778
0.00115734
0.00115691
0.00115647
0.00115603
0.00115559
0.00116994
0.00116939
0.00116886
0.00116835
0.00116784
0.00116734
0.00116683
0.00116633
0.00116581
0.00116529
0.00116474
0.00116418
0.0011636
0.00116299
0.00116235
0.00116169
0.001161
0.00116029
0.00115954
0.00115877
0.00115797
0.00115715
0.0011563
0.00115543
0.00115455
0.00115364
0.00115271
0.00115177
0.00115082
0.00114985
0.00114887
0.00114789
0.00114689
0.00116995
0.0011694
0.00116886
0.00116829
0.00116766
0.00116695
0.00116613
0.00116521
0.00116416
0.00116298
0.00116167
0.00116023
0.00115867
0.00115698
0.00115519
0.00115329
0.00115129
0.00114921
0.00114705
0.00114482
0.00114253
0.0011402
0.00113782
0.00113541
0.00113297
0.00113052
0.00112805
0.00112558
0.00112311
0.00112064
0.00111819
0.00111575
0.00111333
0.00116996
0.00116916
0.00116786
0.00116596
0.00116346
0.00116034
0.00115663
0.00115237
0.00114761
0.0011424
0.00113682
0.00113093
0.00112479
0.00111846
0.00111198
0.00110541
0.00109879
0.00109215
0.00108552
0.00107893
0.00107241
0.00106596
0.00105962
0.00105338
0.00104727
0.0010413
0.00103546
0.00102977
0.00102423
0.00101884
0.00101361
0.00100854
0.00100364
0.00116831
0.00115865
0.00114503
0.00112851
0.00110982
0.00108965
0.00106867
0.00104738
0.00102617
0.00100531
0.00098499
0.000965323
0.000946384
0.00092821
0.000910813
0.000894188
0.00087832
0.000863185
0.000848754
0.000834997
0.000821881
0.000809373
0.000797441
0.000786053
0.000775178
0.000764786
0.000754848
0.000745337
0.000736227
0.000727493
0.000719111
0.000711058
0.000703312
0.00107567
0.000936187
0.000835579
0.000756748
0.000691828
0.000637948
0.000592905
0.000554868
0.000522399
0.000494392
0.000469998
0.000448565
0.000429586
0.000412662
0.000397477
0.000383776
0.000371353
0.000360038
0.000349691
0.000340193
0.000331446
0.000323366
0.000315879
0.000308926
0.000302452
0.00029641
0.000290761
0.000285469
0.000280503
0.000275835
0.000271442
0.000267303
0.000263396
0.000142979
0.000146644
0.000150174
0.000153551
0.000156773
0.000159846
0.000162775
0.000165566
0.000168223
0.000170753
0.000173158
0.000175445
0.000177618
0.000179682
0.000181641
0.0001835
0.000185263
0.000186935
0.000188519
0.00019002
0.00019144
0.000192785
0.000194057
0.000195261
0.000196398
0.000197472
0.000198486
0.000199443
0.000200345
0.000201196
0.000201996
0.00020275
0.000203458
9.05721e-05
0.000115602
0.000156482
0.000214264
0.000283356
0.000355132
0.000426149
0.00049932
0.000578309
0.0006625
0.000746986
0.000825931
0.000895177
0.000952534
0.000995828
0.00102459
0.00103838
0.00103641
0.00101757
0.00098043
0.000923282
0.000844547
0.000744127
0.000626477
0.000505978
0.000413788
0.000406707
0.00057472
0.000900524
0.00115783
0.00132431
0.00146148
0.00158523
0.00169414
0.00178565
0.0018592
0.00191601
0.00195832
0.00198877
0.00200996
0.00202425
0.00203373
0.00204019
0.00204531
0.00205068
0.00205776
0.0020677
0.00208104
0.00209754
0.0021162
0.0021355
0.00215379
0.00216955
0.00218133
0.00218763
0.00218672
0.00217674
0.00215596
0.00212319
0.00207804
0.00202107
0.00195377
0.00187841
0.00179782
0.00171519
0.00163376
0.00155649
0.00148573
0.00142297
0.0013688
0.00132304
0.00128505
0.00125402
0.00122907
0.0012093
0.00119381
0.00118178
0.00117246
0.00116527
0.00115974
0.00115551
0.00115229
0.00114986
0.00114804
0.00114669
0.00114571
0.001145
0.0011445
0.00114416
0.00114393
0.00114378
0.0011437
0.00114365
0.00114364
0.00114365
0.00114367
0.00114369
0.00114372
0.00114375
0.00114377
7.55633e-05
7.76343e-05
8.19148e-05
9.30121e-05
0.000116954
0.000157339
0.000213341
0.000280153
0.000351279
0.000421337
0.000487354
0.000548091
0.000602743
0.000649662
0.000687235
0.000713651
0.000726916
0.000725261
0.000707195
0.000671566
0.000618098
0.000548725
0.000470058
0.00039697
0.000357458
0.00040116
0.000587764
0.000859393
0.00107336
0.00123016
0.00136548
0.00148894
0.00159932
0.0016944
0.0017732
0.00183615
0.00188467
0.0019208
0.0019468
0.00196485
0.00197694
0.00198481
0.00198997
0.00199387
0.00199789
0.00200337
0.00201145
0.00202277
0.00203729
0.00205419
0.00207212
0.0020896
0.00210522
0.00211768
0.00212561
0.00212736
0.00212105
0.00210483
0.00207725
0.00203767
0.00198639
0.00192464
0.0018545
0.00177865
0.00170016
0.00162223
0.00154782
0.00147936
0.00141844
0.00136574
0.00132116
0.0012841
0.00125375
0.00122925
0.00120973
0.00119435
0.00118235
0.00117303
0.00116583
0.00116028
0.00115602
0.00115277
0.00115032
0.00114848
0.0011471
0.00114609
0.00114536
0.00114484
0.00114447
0.00114422
0.00114406
0.00114396
0.0011439
0.00114387
0.00114387
0.00114387
0.00114389
0.00114391
0.00114393
0.00114394
0.000126559
0.000125501
0.000125759
0.000123185
0.000112452
0.000100471
9.97493e-05
0.000114397
0.000143466
0.000184137
0.000232338
0.000283258
0.000332168
0.000374823
0.00040787
0.000429401
0.000438609
0.000435276
0.000419759
0.000393595
0.000360715
0.000329328
0.000315023
0.000345823
0.000461229
0.000661993
0.000864702
0.00102642
0.00116487
0.00129227
0.00141002
0.00151664
0.00161058
0.00169085
0.00175724
0.00181032
0.00185136
0.00188204
0.00190418
0.00191958
0.00192987
0.00193647
0.00194067
0.00194365
0.00194663
0.00195081
0.00195729
0.00196679
0.00197941
0.00199453
0.00201099
0.00202742
0.00204257
0.00205529
0.0020644
0.00206841
0.00206547
0.00205364
0.00203126
0.00199739
0.001952
0.00189608
0.00183144
0.00176057
0.00168643
0.00161213
0.00154063
0.00147442
0.00141521
0.00136381
0.00132023
0.00128392
0.00125409
0.0012299
0.00121053
0.00119519
0.00118317
0.00117379
0.00116652
0.00116091
0.0011566
0.0011533
0.0011508
0.00114891
0.00114749
0.00114645
0.00114568
0.00114512
0.00114473
0.00114445
0.00114426
0.00114414
0.00114406
0.00114402
0.001144
0.001144
0.001144
0.00114401
0.00114402
0.00114402
0.000300283
0.000297172
0.000300624
0.000320095
0.000369203
0.000433523
0.000414838
0.000305089
0.00021362
0.000167273
0.000151213
0.000152582
0.00016375
0.000179884
0.000197766
0.000214774
0.000229148
0.000240699
0.000251588
0.000267373
0.000298496
0.0003608
0.000467809
0.000609656
0.000754475
0.000887143
0.00101172
0.00113109
0.00124463
0.00135105
0.00144913
0.00153766
0.00161557
0.00168221
0.00173748
0.00178188
0.00181641
0.0018424
0.00186129
0.00187451
0.00188336
0.00188902
0.00189254
0.00189489
0.00189712
0.0019003
0.00190548
0.0019134
0.0019243
0.00193772
0.00195267
0.0019679
0.0019823
0.00199488
0.00200468
0.00201042
0.00201039
0.00200259
0.0019852
0.00195696
0.00191754
0.00186758
0.00180863
0.00174296
0.00167335
0.00160282
0.00153432
0.00147039
0.00141285
0.00136265
0.00131993
0.00128424
0.00125483
0.00123087
0.0012116
0.00119625
0.00118416
0.0011747
0.00116734
0.00116164
0.00115724
0.00115387
0.0011513
0.00114935
0.00114788
0.00114678
0.00114597
0.00114537
0.00114494
0.00114463
0.00114442
0.00114427
0.00114417
0.00114411
0.00114407
0.00114405
0.00114404
0.00114404
0.00114404
0.00114403
0.000497728
0.000489587
0.000482884
0.000481021
0.000493521
0.000538683
0.000642672
0.000826581
0.000982233
0.000902948
0.000694971
0.000524368
0.000415606
0.000359829
0.000337225
0.000334997
0.000348202
0.000375791
0.000418597
0.000477548
0.000551695
0.000637446
0.000730464
0.000827821
0.000927391
0.00102699
0.0011249
0.00121995
0.00131113
0.00139728
0.00147713
0.00154947
0.00161336
0.00166824
0.00171402
0.00175107
0.00178013
0.00180221
0.00181844
0.00182992
0.0018377
0.0018427
0.00184578
0.00184776
0.00184951
0.00185197
0.00185612
0.00186272
0.00187211
0.00188399
0.00189748
0.00191146
0.00192491
0.00193702
0.00194705
0.00195398
0.00195629
0.00195204
0.00193928
0.00191647
0.00188294
0.00183898
0.00178583
0.00172551
0.0016606
0.00159399
0.0015286
0.001467
0.00141111
0.00136206
0.00132012
0.00128495
0.00125586
0.00123208
0.00121285
0.00119746
0.00118528
0.00117571
0.00116823
0.00116243
0.00115794
0.00115447
0.00115182
0.00114979
0.00114825
0.0011471
0.00114623
0.00114559
0.00114512
0.00114477
0.00114452
0.00114435
0.00114422
0.00114414
0.00114408
0.00114405
0.00114402
0.00114401
0.001144
0.00114398
0.000682791
0.000672112
0.000661243
0.000650277
0.00064044
0.000636151
0.000645765
0.000680127
0.00074332
0.000817364
0.000866525
0.000860529
0.000794796
0.000732105
0.000688931
0.000666748
0.000663498
0.000676743
0.00070428
0.000744072
0.000794149
0.000852587
0.000917566
0.000987441
0.00106072
0.00113597
0.00121177
0.00128674
0.00135952
0.00142879
0.00149333
0.00155208
0.00160425
0.00164937
0.00168731
0.00171831
0.00174291
0.00176185
0.00177597
0.00178613
0.00179313
0.00179773
0.0018006
0.00180242
0.0018039
0.00180589
0.00180927
0.00181482
0.00182294
0.00183345
0.0018456
0.00185837
0.0018708
0.0018822
0.00189205
0.00189963
0.00190368
0.00190241
0.00189379
0.00187607
0.00184823
0.0018102
0.00176287
0.00170799
0.0016479
0.00158535
0.00152318
0.00146398
0.00140979
0.00136186
0.00132064
0.00128591
0.00125708
0.00123342
0.00121421
0.00119876
0.00118647
0.00117678
0.00116919
0.00116326
0.00115866
0.00115509
0.00115234
0.00115024
0.00114862
0.0011474
0.00114648
0.00114578
0.00114526
0.00114488
0.00114459
0.00114439
0.00114424
0.00114413
0.00114405
0.001144
0.00114396
0.00114393
0.00114391
0.00114387
0.000839917
0.000829461
0.000818757
0.000807739
0.000796367
0.000785004
0.00077527
0.000770644
0.000775258
0.000790285
0.000812009
0.000832433
0.000843417
0.000846607
0.000846538
0.000847951
0.000854318
0.000867629
0.000888708
0.000917601
0.000953861
0.000996734
0.00104527
0.00109838
0.00115492
0.00121368
0.00127343
0.00133296
0.00139109
0.00144669
0.00149878
0.00154648
0.00158914
0.00162636
0.00165799
0.00168416
0.00170523
0.00172171
0.00173423
0.00174342
0.00174992
0.00175432
0.00175715
0.00175898
0.00176039
0.00176212
0.00176496
0.00176969
0.00177677
0.00178613
0.00179712
0.00180878
0.00182019
0.00183076
0.00184014
0.0018479
0.00185309
0.00185415
0.00184909
0.00183597
0.00181349
0.00178119
0.00173962
0.0016902
0.00163501
0.00157664
0.0015178
0.0014611
0.00140865
0.00136185
0.00132132
0.001287
0.00125839
0.00123482
0.0012156
0.00120009
0.00118769
0.00117788
0.00117015
0.00116411
0.00115939
0.00115572
0.00115287
0.00115067
0.00114898
0.00114769
0.0011467
0.00114595
0.00114538
0.00114495
0.00114463
0.00114439
0.00114421
0.00114408
0.00114398
0.0011439
0.00114385
0.0011438
0.00114377
0.00114372
0.000960446
0.00095168
0.000942762
0.000933716
0.000924584
0.000915428
0.000906452
0.000898313
0.000892402
0.000890418
0.000893313
0.000900603
0.000910355
0.000921237
0.000932892
0.000945786
0.000960826
0.000978975
0.00100101
0.00102738
0.00105825
0.00109343
0.00113253
0.00117494
0.00121993
0.00126664
0.00131419
0.00136167
0.00140821
0.00145295
0.00149511
0.00153404
0.00156917
0.00160017
0.00162685
0.00164924
0.00166758
0.00168219
0.00169353
0.00170208
0.0017083
0.00171266
0.0017156
0.00171756
0.00171905
0.00172068
0.00172318
0.00172731
0.00173357
0.00174198
0.00175199
0.0017627
0.0017732
0.00178291
0.00179163
0.00179919
0.00180499
0.00180773
0.00180556
0.00179647
0.00177889
0.00175202
0.00171603
0.001672
0.00162174
0.00156761
0.00151221
0.00145811
0.00140747
0.00136185
0.00132203
0.0012881
0.00125968
0.00123618
0.00121695
0.00120138
0.00118888
0.00117895
0.0011711
0.00116493
0.0011601
0.00115632
0.00115338
0.00115109
0.00114932
0.00114795
0.0011469
0.00114609
0.00114547
0.001145
0.00114464
0.00114436
0.00114415
0.00114399
0.00114387
0.00114377
0.0011437
0.00114364
0.00114359
0.00114353
0.0010446
0.00103808
0.00103148
0.00102488
0.00101836
0.00101202
0.00100601
0.00100051
0.000995883
0.000992763
0.000991899
0.000993827
0.000998594
0.00100606
0.00101606
0.00102849
0.00104341
0.00106098
0.00108138
0.00110475
0.00113111
0.00116037
0.0011923
0.00122653
0.00126259
0.00129993
0.00133794
0.00137601
0.00141348
0.00144974
0.0014842
0.0015163
0.00154561
0.0015718
0.00159467
0.00161418
0.00163045
0.00164369
0.0016542
0.00166234
0.00166845
0.00167291
0.00167605
0.00167824
0.00167991
0.00168157
0.00168391
0.00168762
0.00169324
0.00170089
0.00171012
0.00172005
0.00172977
0.0017387
0.0017467
0.00175381
0.00175975
0.00176356
0.00176361
0.0017579
0.00174466
0.0017228
0.00169211
0.00165332
0.00160795
0.00155809
0.00150622
0.00145481
0.00140609
0.00136171
0.00132263
0.00128909
0.00126087
0.00123744
0.0012182
0.00120257
0.00118998
0.00117994
0.00117198
0.0011657
0.00116076
0.00115689
0.00115385
0.00115147
0.00114962
0.00114818
0.00114707
0.0011462
0.00114553
0.00114501
0.00114461
0.0011443
0.00114406
0.00114387
0.00114373
0.00114361
0.00114352
0.00114345
0.00114339
0.00114331
0.00109817
0.00109382
0.00108945
0.00108515
0.001081
0.00107711
0.00107361
0.00107064
0.00106837
0.00106705
0.00106699
0.00106856
0.00107205
0.00107765
0.0010855
0.00109564
0.0011081
0.00112289
0.00114004
0.0011595
0.00118124
0.00120512
0.00123097
0.00125854
0.00128752
0.00131753
0.00134817
0.00137899
0.00140953
0.00143933
0.00146791
0.00149483
0.00151971
0.00154224
0.00156223
0.00157957
0.0015943
0.00160654
0.0016165
0.0016244
0.00163053
0.00163517
0.00163858
0.00164108
0.00164299
0.00164479
0.00164707
0.00165051
0.00165567
0.00166273
0.00167134
0.00168066
0.00168978
0.00169805
0.00170536
0.00171188
0.00171763
0.001722
0.00172361
0.0017206
0.00171108
0.00169371
0.00166794
0.00163416
0.00159355
0.00154796
0.00149966
0.00145104
0.00140433
0.00136129
0.001323
0.0012899
0.00126189
0.00123853
0.0012193
0.00120361
0.00119095
0.00118082
0.00117276
0.00116638
0.00116135
0.00115738
0.00115426
0.00115181
0.00114988
0.00114838
0.0011472
0.00114628
0.00114556
0.001145
0.00114456
0.00114421
0.00114394
0.00114373
0.00114356
0.00114342
0.00114331
0.00114322
0.00114315
0.00114306
0.0011292
0.0011266
0.00112402
0.00112154
0.00111924
0.00111723
0.00111561
0.00111449
0.001114
0.00111428
0.00111548
0.00111781
0.00112147
0.00112662
0.00113342
0.00114196
0.00115234
0.00116457
0.00117868
0.00119462
0.00121234
0.00123176
0.00125273
0.00127509
0.00129861
0.00132306
0.00134814
0.00137353
0.00139889
0.00142385
0.00144803
0.00147107
0.00149262
0.0015124
0.00153021
0.00154593
0.00155952
0.00157105
0.00158063
0.00158843
0.00159466
0.00159952
0.00160325
0.00160607
0.00160829
0.00161028
0.00161261
0.00161589
0.00162071
0.00162732
0.00163546
0.00164434
0.00165302
0.0016608
0.00166752
0.00167342
0.00167876
0.00168326
0.00168587
0.00168489
0.00167844
0.00166498
0.00164368
0.00161459
0.00157856
0.00153715
0.00149244
0.00144668
0.00140209
0.00136047
0.00132306
0.00129045
0.00126267
0.00123941
0.00122019
0.00120448
0.00119176
0.00118155
0.00117341
0.00116695
0.00116183
0.00115778
0.00115459
0.00115206
0.00115008
0.00114851
0.00114728
0.00114631
0.00114554
0.00114494
0.00114446
0.00114409
0.00114379
0.00114355
0.00114336
0.0011432
0.00114308
0.00114297
0.00114289
0.00114278
0.00114551
0.00114411
0.00114276
0.00114153
0.0011405
0.00113975
0.00113936
0.00113944
0.00114007
0.00114136
0.00114341
0.00114635
0.00115029
0.00115533
0.0011616
0.00116917
0.00117811
0.00118848
0.0012003
0.00121356
0.00122824
0.00124428
0.00126159
0.00128007
0.00129958
0.00131993
0.00134093
0.00136233
0.00138386
0.00140524
0.00142615
0.00144628
0.00146533
0.00148304
0.0014992
0.00151369
0.00152643
0.00153743
0.00154676
0.00155454
0.0015609
0.00156601
0.00157005
0.00157321
0.00157575
0.00157799
0.00158042
0.00158363
0.00158822
0.0015945
0.00160227
0.00161084
0.00161924
0.0016267
0.00163297
0.00163832
0.00164315
0.00164749
0.00165061
0.00165106
0.00164702
0.00163687
0.00161952
0.00159472
0.00156301
0.00152566
0.0014845
0.00144166
0.00139926
0.00135917
0.00132273
0.00129068
0.00126319
0.00124005
0.00122087
0.00120514
0.00119237
0.0011821
0.0011739
0.00116737
0.00116218
0.00115807
0.00115481
0.00115223
0.00115019
0.00114857
0.00114729
0.00114628
0.00114548
0.00114484
0.00114433
0.00114393
0.0011436
0.00114334
0.00114313
0.00114295
0.00114281
0.0011427
0.0011426
0.00114248
0.00115326
0.00115257
0.00115196
0.00115148
0.00115119
0.00115117
0.00115148
0.00115221
0.00115342
0.00115522
0.00115766
0.00116084
0.00116483
0.0011697
0.00117553
0.00118237
0.00119028
0.00119931
0.00120949
0.00122081
0.00123328
0.00124688
0.00126155
0.00127723
0.00129382
0.0013112
0.00132921
0.00134768
0.0013664
0.00138511
0.00140356
0.00142149
0.00143862
0.00145473
0.00146962
0.00148315
0.00149523
0.00150583
0.00151498
0.00152276
0.00152927
0.00153462
0.00153897
0.00154247
0.00154532
0.00154782
0.0015504
0.00155361
0.00155805
0.00156407
0.00157158
0.00157993
0.00158818
0.00159547
0.00160145
0.00160635
0.00161068
0.00161468
0.00161794
0.0016193
0.00161708
0.00160962
0.00159568
0.00157473
0.00154703
0.00151355
0.00147586
0.00143594
0.00139581
0.00135735
0.00132198
0.00129056
0.0012634
0.00124043
0.0012213
0.00120558
0.00119279
0.00118247
0.00117421
0.00116763
0.00116239
0.00115823
0.00115492
0.0011523
0.00115021
0.00114855
0.00114724
0.00114619
0.00114535
0.00114468
0.00114415
0.00114372
0.00114337
0.00114309
0.00114286
0.00114267
0.00114252
0.00114239
0.00114229
0.00114215
0.00115657
0.00115625
0.00115602
0.00115592
0.001156
0.00115633
0.00115695
0.00115794
0.00115937
0.0011613
0.0011638
0.00116693
0.00117074