/*--------------------------------*- C++ -*----------------------------------*\
| =========                 |                                                 |
| \\      /  F ield         | OpenFOAM: The Open Source CFD Toolbox           |
|  \\    /   O peration     | Version:  2.1.1                                 |
|   \\  /    A nd           | Web:      www.OpenFOAM.org                      |
|    \\/     M anipulation  |                                                 |
\*---------------------------------------------------------------------------*/
FoamFile
{
    version     2.0;
    format      ascii;
    class       volScalarField;
    location    "0.04";
    object      p;
}
// * * * * * * * * * * * * * * * * * * * * * * * * * * * * * * * * * * * * * //

dimensions      [0 2 -2 0 0 0 0];

internalField   nonuniform List<scalar> 
6820
(
-10.8818
-12.7283
-13.3036
-13.432
-13.5397
-13.6196
-13.6749
-13.7223
-13.7656
-13.8055
-13.8426
-13.8777
-13.9108
-13.942
-13.9715
-13.9991
-14.0249
-14.0488
-14.0706
-14.0902
-14.1073
-14.1215
-14.1325
-14.1395
-14.1417
-14.1381
-14.1271
-14.1067
-14.074
-14.0252
-13.9536
-13.8472
-13.7015
-14.8343
-14.2998
-13.8777
-13.6882
-13.6642
-13.6762
-13.6972
-13.7261
-13.7592
-13.7934
-13.8277
-13.8616
-13.8944
-13.926
-13.9561
-13.9846
-14.0113
-14.0362
-14.0591
-14.0798
-14.098
-14.1135
-14.1258
-14.1344
-14.1385
-14.1373
-14.1294
-14.1136
-14.0874
-14.0504
-13.996
-13.9434
-13.8574
-13.1918
-12.8881
-13.1751
-13.4206
-13.5263
-13.6024
-13.6623
-13.7125
-13.7575
-13.7985
-13.8364
-13.8719
-13.9052
-13.9366
-13.9661
-13.9938
-14.0198
-14.0439
-14.066
-14.0862
-14.104
-14.1194
-14.1318
-14.1408
-14.1458
-14.146
-14.1404
-14.128
-14.1073
-14.0776
-14.0365
-13.9898
-13.9269
-13.6987
-13.7332
-13.7309
-13.6721
-13.665
-13.6862
-13.7134
-13.7431
-13.7749
-13.8072
-13.8392
-13.8707
-13.9013
-13.9308
-13.9592
-13.9864
-14.0121
-14.0362
-14.0587
-14.0794
-14.098
-14.1144
-14.1281
-14.1389
-14.1461
-14.1493
-14.1477
-14.1408
-14.1276
-14.1085
-14.082
-14.0551
-14.0189
-13.5432
-13.4432
-13.4877
-13.5543
-13.608
-13.6553
-13.6969
-13.7352
-13.772
-13.8073
-13.8412
-13.8737
-13.9049
-13.9348
-13.9633
-13.9904
-14.0161
-14.0402
-14.0628
-14.0837
-14.1027
-14.1196
-14.1343
-14.1464
-14.1555
-14.1613
-14.1635
-14.1616
-14.1555
-14.1458
-14.1324
-14.1198
-14.106
-13.5982
-13.5817
-13.6072
-13.6308
-13.6538
-13.6838
-13.7162
-13.7488
-13.7816
-13.814
-13.8456
-13.8765
-13.9064
-13.9353
-13.9631
-13.9897
-14.0151
-14.0392
-14.0619
-14.0832
-14.1029
-14.1208
-14.1368
-14.1508
-14.1624
-14.1716
-14.1781
-14.1821
-14.1837
-14.1837
-14.1832
-14.1855
-14.1914
-13.5962
-13.5752
-13.5914
-13.6207
-13.6515
-13.6852
-13.7189
-13.7519
-13.7845
-13.8165
-13.8478
-13.8783
-13.9079
-13.9365
-13.9641
-13.9906
-14.0161
-14.0403
-14.0634
-14.0852
-14.1057
-14.1247
-14.1422
-14.1581
-14.1724
-14.185
-14.196
-14.2057
-14.2147
-14.224
-14.235
-14.2506
-14.2731
-13.6101
-13.6025
-13.6182
-13.6433
-13.6692
-13.6981
-13.7286
-13.7593
-13.7902
-13.8208
-13.851
-13.8805
-13.9094
-13.9375
-13.9647
-13.991
-14.0163
-14.0407
-14.0641
-14.0865
-14.1078
-14.128
-14.1471
-14.1652
-14.1822
-14.1983
-14.2138
-14.2293
-14.2454
-14.2634
-14.2849
-14.3124
-14.3487
-13.6229
-13.6191
-13.6316
-13.6536
-13.6783
-13.7059
-13.7352
-13.7648
-13.7946
-13.8243
-13.8536
-13.8825
-13.9108
-13.9384
-13.9653
-13.9915
-14.0168
-14.0414
-14.0652
-14.0882
-14.1105
-14.1319
-14.1527
-14.1729
-14.1927
-14.2123
-14.2322
-14.2531
-14.2757
-14.3015
-14.3321
-14.3698
-14.4172
-13.6361
-13.6356
-13.6473
-13.6673
-13.6901
-13.7157
-13.743
-13.7711
-13.7995
-13.8281
-13.8565
-13.8846
-13.9122
-13.9393
-13.9659
-13.9919
-14.0173
-14.0421
-14.0663
-14.0899
-14.1131
-14.1358
-14.1582
-14.1805
-14.203
-14.226
-14.2501
-14.2759
-14.3045
-14.3371
-14.3754
-14.4214
-14.4776
-13.6493
-13.6505
-13.6612
-13.6792
-13.7004
-13.7243
-13.7501
-13.7769
-13.8042
-13.8317
-13.8592
-13.8866
-13.9136
-13.9403
-13.9666
-13.9924
-14.0178
-14.0428
-14.0673
-14.0916
-14.1157
-14.1396
-14.1637
-14.1881
-14.2131
-14.2392
-14.267
-14.2973
-14.331
-14.3694
-14.414
-14.4665
-14.5292
-13.6622
-13.6643
-13.6744
-13.6909
-13.7106
-13.733
-13.7573
-13.7828
-13.8089
-13.8354
-13.862
-13.8886
-13.915
-13.9412
-13.9672
-13.9928
-14.0182
-14.0434
-14.0683
-14.0932
-14.1181
-14.1433
-14.1688
-14.1951
-14.2225
-14.2514
-14.2826
-14.3167
-14.3547
-14.3978
-14.4473
-14.5046
-14.5717
-13.6746
-13.6772
-13.6868
-13.7019
-13.7203
-13.7412
-13.7642
-13.7884
-13.8134
-13.8389
-13.8646
-13.8905
-13.9163
-13.942
-13.9677
-13.9931
-14.0185
-14.0438
-14.0691
-14.0946
-14.1203
-14.1465
-14.1734
-14.2014
-14.2308
-14.2622
-14.2962
-14.3334
-14.3749
-14.4215
-14.4746
-14.5353
-14.6051
-13.6864
-13.6892
-13.6983
-13.7122
-13.7294
-13.7491
-13.7707
-13.7938
-13.8177
-13.8422
-13.8671
-13.8923
-13.9175
-13.9428
-13.968
-13.9933
-14.0186
-14.044
-14.0696
-14.0956
-14.122
-14.1491
-14.1772
-14.2067
-14.2378
-14.2712
-14.3074
-14.3471
-14.3912
-14.4404
-14.4958
-14.5584
-14.6294
-13.6976
-13.7003
-13.7089
-13.7219
-13.738
-13.7565
-13.777
-13.7989
-13.8217
-13.8453
-13.8694
-13.8938
-13.9185
-13.9433
-13.9682
-13.9932
-14.0184
-14.0439
-14.0697
-14.096
-14.123
-14.1509
-14.18
-14.2106
-14.2431
-14.2781
-14.3159
-14.3574
-14.4032
-14.454
-14.5106
-14.5739
-14.6447
-13.708
-13.7107
-13.7188
-13.7309
-13.7459
-13.7634
-13.7828
-13.8036
-13.8255
-13.8482
-13.8715
-13.8952
-13.9192
-13.9435
-13.968
-13.9928
-14.0179
-14.0433
-14.0693
-14.0958
-14.1232
-14.1517
-14.1815
-14.2129
-14.2465
-14.2825
-14.3214
-14.364
-14.4107
-14.4621
-14.519
-14.5818
-14.6514
-13.7176
-13.7202
-13.7279
-13.7392
-13.7533
-13.7698
-13.7882
-13.808
-13.829
-13.8508
-13.8733
-13.8963
-13.9197
-13.9434
-13.9675
-13.992
-14.0168
-14.0422
-14.0681
-14.0948
-14.1224
-14.1512
-14.1815
-14.2135
-14.2476
-14.2841
-14.3237
-14.3666
-14.4135
-14.4647
-14.5209
-14.5824
-14.6497
-13.7264
-13.7289
-13.7361
-13.7468
-13.7601
-13.7756
-13.793
-13.8119
-13.832
-13.853
-13.8747
-13.897
-13.9197
-13.9429
-13.9666
-13.9906
-14.0152
-14.0403
-14.0662
-14.0928
-14.1205
-14.1494
-14.1798
-14.212
-14.2462
-14.2829
-14.3224
-14.3651
-14.4115
-14.4618
-14.5165
-14.5758
-14.6402
-13.7344
-13.7368
-13.7436
-13.7536
-13.7661
-13.7808
-13.7973
-13.8154
-13.8345
-13.8547
-13.8756
-13.8972
-13.9194
-13.942
-13.9651
-13.9887
-14.0129
-14.0377
-14.0633
-14.0898
-14.1173
-14.146
-14.1763
-14.2083
-14.2423
-14.2786
-14.3176
-14.3595
-14.4047
-14.4534
-14.5059
-14.5624
-14.6231
-13.7416
-13.7438
-13.7502
-13.7597
-13.7714
-13.7853
-13.8011
-13.8182
-13.8366
-13.856
-13.8761
-13.897
-13.9185
-13.9405
-13.963
-13.9861
-14.0099
-14.0342
-14.0594
-14.0855
-14.1126
-14.141
-14.1708
-14.2023
-14.2357
-14.2712
-14.3091
-14.3497
-14.3932
-14.4397
-14.4895
-14.5426
-14.5992
-13.7478
-13.7499
-13.756
-13.7649
-13.776
-13.7892
-13.8041
-13.8205
-13.8381
-13.8567
-13.8761
-13.8962
-13.917
-13.9384
-13.9603
-13.9828
-14.006
-14.0298
-14.0544
-14.0799
-14.1065
-14.1342
-14.1633
-14.1939
-14.2263
-14.2606
-14.2971
-14.3359
-14.3771
-14.421
-14.4675
-14.5168
-14.5689
-13.7532
-13.7552
-13.7609
-13.7693
-13.7798
-13.7923
-13.8065
-13.8222
-13.839
-13.8568
-13.8755
-13.8949
-13.9149
-13.9356
-13.9568
-13.9787
-14.0012
-14.0243
-14.0482
-14.073
-14.0987
-14.1256
-14.1537
-14.1831
-14.2142
-14.2469
-14.2815
-14.3181
-14.3567
-14.3975
-14.4404
-14.4856
-14.5328
-13.7576
-13.7595
-13.7649
-13.7729
-13.7828
-13.7947
-13.8082
-13.8231
-13.8392
-13.8563
-13.8742
-13.8929
-13.9122
-13.9321
-13.9526
-13.9737
-13.9954
-14.0177
-14.0408
-14.0646
-14.0894
-14.1151
-14.1419
-14.17
-14.1994
-14.2302
-14.2626
-14.2966
-14.3322
-14.3696
-14.4087
-14.4494
-14.4917
-13.7611
-13.7629
-13.768
-13.7755
-13.785
-13.7962
-13.8091
-13.8233
-13.8386
-13.855
-13.8722
-13.8901
-13.9087
-13.9278
-13.9475
-13.9678
-13.9886
-14.01
-14.032
-14.0548
-14.0783
-14.1027
-14.1281
-14.1544
-14.1819
-14.2105
-14.2404
-14.2716
-14.304
-14.3377
-14.3727
-14.4088
-14.446
-13.7636
-13.7653
-13.7701
-13.7772
-13.7862
-13.7969
-13.8092
-13.8228
-13.8375
-13.8531
-13.8696
-13.8867
-13.9045
-13.9228
-13.9417
-13.961
-13.9809
-14.0012
-14.0222
-14.0437
-14.0658
-14.0887
-14.1123
-14.1368
-14.1621
-14.1883
-14.2154
-14.2435
-14.2725
-14.3023
-14.333
-14.3644
-14.3965
-13.7651
-13.7667
-13.7712
-13.7779
-13.7864
-13.7966
-13.8083
-13.8212
-13.8352
-13.8502
-13.8659
-13.8823
-13.8993
-13.9168
-13.9347
-13.9531
-13.9719
-13.9911
-14.0108
-14.0309
-14.0516
-14.0728
-14.0945
-14.1169
-14.1398
-14.1634
-14.1876
-14.2125
-14.2378
-14.2638
-14.2901
-14.3168
-14.3437
-13.7656
-13.7671
-13.7714
-13.7779
-13.786
-13.7957
-13.8069
-13.8193
-13.8327
-13.847
-13.8621
-13.8777
-13.8939
-13.9104
-13.9274
-13.9448
-13.9624
-13.9804
-13.9987
-14.0173
-14.0363
-14.0556
-14.0753
-14.0954
-14.1159
-14.1367
-14.1578
-14.1793
-14.201
-14.2229
-14.2448
-14.2668
-14.2886
-13.765
-13.7663
-13.7703
-13.7762
-13.7837
-13.7929
-13.8035
-13.8153
-13.8281
-13.8418
-13.8561
-13.8711
-13.8864
-13.9022
-13.9182
-13.9345
-13.951
-13.9678
-13.9847
-14.0018
-14.019
-14.0365
-14.0541
-14.0718
-14.0897
-14.1076
-14.1257
-14.1437
-14.1617
-14.1796
-14.1973
-14.2146
-14.2316
-13.7634
-13.7649
-13.7689
-13.7748
-13.7822
-13.7912
-13.8015
-13.8129
-13.8252
-13.8383
-13.8519
-13.866
-13.8805
-13.8953
-13.9102
-13.9253
-13.9405
-13.9558
-13.9712
-13.9865
-14.0019
-14.0172
-14.0325
-14.0478
-14.063
-14.078
-14.0928
-14.1074
-14.1217
-14.1355
-14.1489
-14.1617
-14.1738
-13.7603
-13.761
-13.7639
-13.7686
-13.7752
-13.7835
-13.7933
-13.8043
-13.8163
-13.8289
-13.8422
-13.8558
-13.8697
-13.8838
-13.898
-13.9122
-13.9263
-13.9404
-13.9544
-13.9682
-13.9818
-13.9952
-14.0084
-14.0213
-14.0339
-14.046
-14.0578
-14.069
-14.0797
-14.0898
-14.0991
-14.1076
-14.1152
-13.7575
-13.7598
-13.7641
-13.7697
-13.7768
-13.7851
-13.7945
-13.805
-13.8162
-13.828
-13.8402
-13.8528
-13.8655
-13.8783
-13.8911
-13.9038
-13.9164
-13.9288
-13.941
-13.9528
-13.9644
-13.9755
-13.9863
-13.9966
-14.0063
-14.0155
-14.024
-14.0319
-14.0389
-14.0451
-14.0504
-14.0547
-14.0578
-13.7491
-13.7471
-13.7472
-13.7504
-13.7565
-13.7647
-13.7746
-13.7856
-13.7975
-13.8099
-13.8227
-13.8356
-13.8485
-13.8613
-13.8739
-13.8862
-13.8982
-13.9098
-13.9209
-13.9315
-13.9415
-13.951
-13.9598
-13.968
-13.9753
-13.9819
-13.9877
-13.9925
-13.9963
-13.9991
-14.0007
-14.0012
-14.0003
-13.7534
-13.7596
-13.765
-13.7696
-13.775
-13.7817
-13.7897
-13.7986
-13.8083
-13.8185
-13.8291
-13.8398
-13.8506
-13.8613
-13.8718
-13.882
-13.8919
-13.9013
-13.9102
-13.9185
-13.9262
-13.9333
-13.9395
-13.9449
-13.9495
-13.9531
-13.9557
-13.9573
-13.9577
-13.9569
-13.9548
-13.9515
-13.9467
-13.7221
-13.7088
-13.7041
-13.7081
-13.717
-13.7283
-13.741
-13.7545
-13.7684
-13.7823
-13.796
-13.8094
-13.8222
-13.8346
-13.8463
-13.8573
-13.8676
-13.8771
-13.8858
-13.8936
-13.9004
-13.9064
-13.9112
-13.9151
-13.9178
-13.9193
-13.9197
-13.9187
-13.9164
-13.9128
-13.9077
-13.9012
-13.8931
-13.7728
-13.7925
-13.7955
-13.7898
-13.7875
-13.789
-13.7931
-13.7987
-13.8055
-13.8131
-13.8213
-13.8297
-13.8381
-13.8464
-13.8544
-13.862
-13.8691
-13.8756
-13.8813
-13.8863
-13.8904
-13.8935
-13.8956
-13.8966
-13.8965
-13.8951
-13.8925
-13.8885
-13.8831
-13.8763
-13.8679
-13.8581
-13.8466
-13.6499
-13.6006
-13.5888
-13.6155
-13.6408
-13.6632
-13.6852
-13.7063
-13.726
-13.7443
-13.7613
-13.777
-13.7914
-13.8045
-13.8164
-13.8271
-13.8365
-13.8447
-13.8517
-13.8574
-13.8618
-13.8648
-13.8665
-13.8668
-13.8656
-13.863
-13.8588
-13.8531
-13.8458
-13.8369
-13.8263
-13.814
-13.8
-13.8961
-13.9305
-13.8986
-13.8543
-13.8245
-13.8133
-13.8091
-13.808
-13.8096
-13.8131
-13.8178
-13.8231
-13.8287
-13.8344
-13.8398
-13.8448
-13.8493
-13.853
-13.856
-13.858
-13.859
-13.8588
-13.8575
-13.8549
-13.851
-13.8456
-13.8388
-13.8305
-13.8205
-13.809
-13.7958
-13.7809
-13.7642
-13.4036
-13.2838
-13.3458
-13.447
-13.5197
-13.5687
-13.6101
-13.6459
-13.6764
-13.7025
-13.7252
-13.745
-13.7623
-13.7773
-13.7903
-13.8015
-13.8108
-13.8184
-13.8243
-13.8286
-13.8313
-13.8322
-13.8316
-13.8292
-13.8251
-13.8193
-13.8118
-13.8024
-13.7913
-13.7784
-13.7637
-13.7471
-13.7288
-14.6172
-14.278
-14.0138
-13.8951
-13.8445
-13.8178
-13.8009
-13.7925
-13.7901
-13.7911
-13.7942
-13.7985
-13.8035
-13.8086
-13.8135
-13.818
-13.8219
-13.8249
-13.827
-13.828
-13.8279
-13.8264
-13.8236
-13.8193
-13.8135
-13.8061
-13.7971
-13.7863
-13.7738
-13.7595
-13.7434
-13.7254
-13.7055
-12.1131
-12.8194
-13.2229
-13.3744
-13.4772
-13.5577
-13.615
-13.6573
-13.6907
-13.7174
-13.7392
-13.7572
-13.7722
-13.7847
-13.7951
-13.8035
-13.8101
-13.815
-13.8182
-13.8197
-13.8195
-13.8176
-13.8141
-13.8087
-13.8016
-13.7927
-13.7819
-13.7693
-13.7547
-13.7383
-13.72
-13.6999
-13.6777
-13.3924
-13.0268
-12.8832
-13.1971
-13.8506
-14.7804
-15.8868
-17.0793
-18.3044
-19.5258
-20.7094
-21.8238
-22.8447
-23.753
-24.5391
-25.1912
-25.7075
-26.0842
-26.3177
-26.4027
-26.3312
-26.0923
-25.6709
-25.0483
-24.2039
-23.1232
-21.805
-20.2645
-18.5257
-16.64
-14.6765
-12.6961
-10.7578
-8.92507
-7.25059
-5.76588
-4.48143
-3.39155
-2.48094
-1.72993
-1.11776
-0.624422
-0.231628
0.0768782
0.315274
0.495798
0.628948
0.723691
0.787655
0.827278
0.84794
0.854069
0.849257
0.836375
0.817689
0.794955
0.769516
0.742382
0.714293
0.685787
0.657245
0.62894
0.601063
0.573753
0.547108
0.521208
0.496112
0.471874
0.448538
0.426137
0.404685
0.384178
0.364593
0.345891
0.328022
0.310934
0.294571
0.278875
0.263789
0.249256
0.235217
0.221618
0.208406
0.195531
0.182946
0.170607
0.158473
0.146507
0.134674
0.122943
0.111281
0.0996716
0.0880669
0.0764922
0.064825
0.0532592
0.0413256
0.0299527
0.0171385
0.00704989
-13.9909
-13.7209
-13.4653
-13.5846
-14.0324
-14.7727
-15.7447
-16.8725
-18.0815
-19.302
-20.4772
-21.5699
-22.5605
-23.4371
-24.1876
-24.8093
-25.2966
-25.6455
-25.8507
-25.9053
-25.8
-25.523
-25.0597
-24.3942
-23.5143
-22.42
-21.12
-19.6254
-17.9664
-16.1883
-14.335
-12.4585
-10.6201
-8.87824
-7.27898
-5.85145
-4.60693
-3.54235
-2.64556
-1.89986
-1.28696
-0.788752
-0.38839
-0.0706666
0.177839
0.368825
0.512398
0.617255
0.690835
0.739467
0.768474
0.782271
0.784468
0.777972
0.765091
0.747632
0.726989
0.704217
0.6801
0.655211
0.629963
0.604653
0.579495
0.554644
0.530219
0.506311
0.482999
0.460351
0.438425
0.417271
0.396921
0.377386
0.358661
0.340718
0.323521
0.307027
0.291186
0.27595
0.261267
0.247086
0.233352
0.220021
0.20704
0.194364
0.181953
0.169762
0.157758
0.145903
0.134165
0.122517
0.110927
0.0993777
0.0878271
0.0762977
0.0646748
0.0531375
0.0412529
0.0298727
0.0171722
0.00691414
-13.8714
-13.6532
-13.562
-13.7839
-14.2746
-14.9861
-15.8674
-16.8651
-17.9365
-19.0414
-20.136
-21.1798
-22.1414
-22.9976
-23.7323
-24.3354
-24.7983
-25.1171
-25.2879
-25.3042
-25.1576
-24.8374
-24.3345
-23.6446
-22.7672
-21.6992
-20.443
-19.0155
-17.445
-15.7612
-14.0049
-12.2285
-10.4872
-8.83232
-7.30535
-5.93348
-4.72857
-3.68972
-2.8076
-2.06818
-1.45546
-0.953192
-0.545925
-0.219504
0.0387253
0.239902
0.39373
0.508617
0.591804
0.649488
0.686924
0.708503
0.717839
0.717866
0.710927
0.698875
0.683148
0.664847
0.644799
0.623615
0.60174
0.579497
0.557125
0.534799
0.512655
0.490802
0.469333
0.44833
0.427869
0.408014
0.388811
0.370291
0.352461
0.335311
0.318814
0.302938
0.287643
0.272886
0.258624
0.24481
0.231397
0.218344
0.205604
0.193139
0.180908
0.168874
0.157006
0.145267
0.13363
0.122069
0.110553
0.0990688
0.087575
0.0760928
0.0645164
0.0530091
0.041177
0.0297877
0.017208
0.00676984
-14.0098
-13.961
-13.9702
-14.1777
-14.5984
-15.213
-15.9933
-16.8941
-17.8685
-18.8738
-19.8708
-20.8255
-21.7058
-22.4887
-23.1627
-23.7186
-24.1446
-24.4322
-24.5741
-24.5637
-24.3953
-24.0643
-23.5655
-22.8926
-22.0395
-21.0053
-19.7998
-18.4409
-16.9484
-15.3509
-13.6886
-12.0084
-10.3593
-8.78719
-7.32954
-6.01176
-4.84603
-3.8333
-2.96664
-2.23444
-1.62284
-1.11735
-0.703882
-0.369327
-0.101806
0.109248
0.273123
0.397921
0.490668
0.557421
0.603348
0.632802
0.649394
0.656071
0.655206
0.648688
0.637996
0.624275
0.608393
0.590999
0.572574
0.55347
0.533951
0.514213
0.494412
0.474673
0.455105
0.435806
0.416864
0.398357
0.380349
0.362885
0.345989
0.329663
0.313896
0.298664
0.283937
0.26968
0.255856
0.242425
0.229347
0.216585
0.204098
0.191852
0.179812
0.167942
0.156215
0.144599
0.133067
0.121597
0.11016
0.0987434
0.0873093
0.0758766
0.0643492
0.0528733
0.0410967
0.0296975
0.0172449
0.00661876
-14.107
-14.0968
-14.1448
-14.3608
-14.7654
-15.3409
-16.0615
-16.8867
-17.7733
-18.6821
-19.5817
-20.4449
-21.247
-21.9694
-22.5924
-23.1032
-23.4904
-23.7458
-23.8631
-23.8365
-23.6599
-23.3271
-22.8314
-22.1675
-21.3351
-20.3396
-19.1878
-17.8922
-16.4734
-14.9597
-13.3873
-11.7983
-10.2364
-8.7428
-7.35151
-6.08616
-4.9591
-3.97275
-3.12226
-2.39818
-1.78863
-1.28077
-0.86184
-0.519756
-0.243419
-0.0228434
0.150826
0.285373
0.387598
0.463398
0.517844
0.55524
0.579179
0.592614
0.59794
0.597075
0.591534
0.5825
0.570882
0.557368
0.542472
0.52658
0.50998
0.492895
0.475497
0.457932
0.440322
0.42278
0.405409
0.3883
0.371532
0.355166
0.33924
0.323773
0.308764
0.294202
0.280066
0.26633
0.252961
0.23993
0.2272
0.214742
0.20252
0.190503
0.178661
0.166963
0.155385
0.143897
0.132476
0.121101
0.109747
0.0984012
0.0870297
0.075649
0.0641731
0.0527301
0.0410116
0.0296023
0.0172823
0.00646239
-14.213
-14.2536
-14.3553
-14.5861
-14.965
-15.4828
-16.1249
-16.8638
-17.6618
-18.4841
-19.3027
-20.091
-20.8254
-21.4835
-22.0489
-22.5098
-22.8563
-23.0796
-23.1722
-23.1272
-22.9383
-22.6004
-22.1098
-21.4638
-20.6614
-19.7054
-18.6031
-17.3685
-16.0213
-14.5877
-13.1004
-11.5975
-10.1181
-8.69898
-7.37113
-6.15656
-5.06758
-4.10778
-3.2741
-2.55902
-1.95243
-1.44306
-1.01942
-0.670443
-0.385801
-0.1561
0.0270733
0.171173
0.282756
0.367551
0.430517
0.475895
0.50725
0.527534
0.539155
0.544052
0.543771
0.539529
0.532271
0.522724
0.511439
0.498832
0.48522
0.470849
0.455915
0.44058
0.424983
0.409252
0.393502
0.377839
0.362356
0.347128
0.33221
0.317635
0.303414
0.289549
0.276027
0.26283
0.249937
0.237321
0.224955
0.212814
0.200867
0.18909
0.177455
0.165937
0.154514
0.143161
0.131855
0.120581
0.109313
0.0980414
0.0867357
0.0754095
0.0639876
0.0525791
0.0409215
0.0295021
0.0173194
0.00630215
-14.3135
-14.385
-14.5144
-14.7474
-15.1031
-15.5769
-16.1552
-16.8145
-17.5277
-18.2705
-19.0149
-19.7317
-20.3981
-20.996
-21.5098
-21.9269
-22.2366
-22.4296
-22.4987
-22.4375
-22.2405
-21.9029
-21.421
-20.7922
-20.0167
-19.0983
-18.0451
-16.8699
-15.5914
-14.2338
-12.8272
-11.4055
-10.0039
-8.65551
-7.38832
-6.22285
-5.1713
-4.23817
-3.42187
-2.71658
-2.11384
-1.60382
-1.17625
-0.821045
-0.528642
-0.290244
-0.0978918
0.0555286
0.176319
0.270026
0.341484
0.394858
0.433677
0.460882
0.478885
0.489642
0.494721
0.49537
0.492568
0.487076
0.479481
0.470231
0.459674
0.448081
0.43567
0.42262
0.409091
0.395221
0.381141
0.366971
0.352818
0.33877
0.324897
0.311245
0.297843
0.2847
0.271815
0.25918
0.24678
0.234596
0.222609
0.210797
0.199138
0.18761
0.176192
0.164862
0.153601
0.142388
0.131204
0.120034
0.108857
0.0976634
0.0864266
0.0751575
0.0637922
0.05242
0.0408257
0.029397
0.0173551
0.00613959
-14.4053
-14.4996
-14.6491
-14.8843
-15.2202
-15.6551
-16.1784
-16.7719
-17.4131
-18.0789
-18.7457
-19.3901
-19.9918
-20.5323
-20.9954
-21.3683
-21.6409
-21.8042
-21.8509
-21.7746
-21.5699
-21.2324
-20.7589
-20.1478
-19.3999
-18.5192
-17.5135
-16.3954
-15.1825
-13.8972
-12.5667
-11.2217
-9.89357
-8.6122
-7.40297
-6.28498
-5.27016
-4.3637
-3.56529
-2.87055
-2.27251
-1.76269
-1.33198
-0.971219
-0.671626
-0.424994
-0.223819
-0.0613425
0.068474
0.17098
0.250874
0.312234
0.358543
0.39272
0.417176
0.433877
0.444409
0.450042
0.451786
0.450434
0.446607
0.440787
0.433351
0.424597
0.414766
0.404058
0.392647
0.380689
0.368328
0.355697
0.342915
0.330087
0.317296
0.304602
0.292047
0.279653
0.267429
0.255376
0.243487
0.231753
0.220158
0.20869
0.19733
0.186062
0.174871
0.163736
0.152645
0.141578
0.130521
0.11946
0.108378
0.0972662
0.0861016
0.0748925
0.0635863
0.0522525
0.0407239
0.029287
0.0173883
0.00597632
-14.4868
-14.5967
-14.7578
-14.9904
-15.3061
-15.7049
-16.1786
-16.7126
-17.2882
-17.8854
-18.4837
-19.0622
-19.6021
-20.0862
-20.4996
-20.83
-21.0671
-21.202
-21.2273
-21.1368
-20.9253
-20.5888
-20.1245
-19.5314
-18.8106
-17.9666
-17.0069
-15.9438
-14.7934
-13.5766
-12.3181
-11.0454
-9.78668
-8.56887
-7.41502
-6.34289
-5.36406
-4.48423
-3.70411
-3.02062
-2.42811
-1.91933
-1.48624
-1.12063
-0.814443
-0.560062
-0.350453
-0.179214
-0.0405839
0.07058
0.158829
0.228142
0.281942
0.323123
0.354086
0.3768
0.392864
0.403567
0.409941
0.412811
0.41283
0.410511
0.406262
0.400408
0.393213
0.384899
0.375658
0.36566
0.355064
0.344016
0.332649
0.32108
0.309406
0.297703
0.286025
0.274406
0.262866
0.251417
0.240058
0.22879
0.217603
0.206491
0.195442
0.184445
0.173489
0.162559
0.151644
0.14073
0.129806
0.118859
0.107876
0.0968493
0.0857602
0.0746139
0.0633696
0.0520761
0.0406155
0.0291723
0.0174179
0.00581396
-14.5569
-14.677
-14.8439
-15.071
-15.3672
-15.7328
-16.1615
-16.6416
-17.1575
-17.6919
-18.2268
-18.7436
-19.2254
-19.6564
-20.0228
-20.3125
-20.5155
-20.623
-20.6279
-20.524
-20.3065
-19.9715
-19.5168
-18.9417
-18.2478
-17.4395
-16.5244
-15.5139
-14.4231
-13.2712
-12.0806
-10.876
-9.68292
-8.52538
-7.42445
-6.39657
-5.45296
-4.59964
-3.83816
-3.16655
-2.58033
-2.07339
-1.63872
-1.26896
-0.956782
-0.695164
-0.477533
-0.297854
-0.15065
-0.0309957
0.0655006
0.142708
0.203983
0.252179
0.289685
0.318467
0.34013
0.355976
0.367059
0.374229
0.378166
0.379417
0.378418
0.375523
0.37102
0.365152
0.35813
0.35014
0.341354
0.331932
0.32202
0.311748
0.301228
0.290549
0.279776
0.268958
0.258127
0.247301
0.236491
0.225705
0.214941
0.204199
0.193473
0.182757
0.172045
0.161327
0.150597
0.139843
0.129056
0.118229
0.107349
0.096412
0.0854017
0.0743212
0.0631414
0.0518907
0.0405001
0.0290527
0.0174428
0.00565411
-14.6154
-14.7414
-14.9096
-15.1289
-15.4055
-15.7401
-16.1276
-16.5585
-17.0198
-17.4965
-17.9728
-18.4326
-18.8603
-19.2415
-19.5633
-19.8143
-19.9848
-20.0664
-20.052
-19.9357
-19.7129
-19.3801
-18.9353
-18.3783
-17.7107
-16.9371
-16.0648
-15.1046
-14.0705
-12.98
-11.8535
-10.7132
-9.58202
-8.48166
-7.43125
-6.44607
-5.53685
-4.70985
-3.96728
-3.30812
-2.72891
-2.22459
-1.78909
-1.41588
-1.09834
-0.830014
-0.604797
-0.417025
-0.261513
-0.133562
-0.0289497
0.0560725
0.124781
0.179987
0.224054
0.258942
0.286257
0.307311
0.323172
0.334712
0.342638
0.347524
0.349838
0.349959
0.348202
0.34483
0.340074
0.334136
0.327204
0.31945
0.311033
0.302096
0.292764
0.283139
0.273302
0.263311
0.253209
0.243028
0.232786
0.222498
0.212172
0.201812
0.191421
0.180997
0.170539
0.160042
0.149503
0.138915
0.128273
0.117569
0.106798
0.0959536
0.0850257
0.074014
0.0629014
0.0516959
0.0403771
0.0289285
0.0174619
0.00549825
-14.6622
-14.7908
-14.9569
-15.1665
-15.4238
-15.7294
-16.0792
-16.4651
-16.8764
-17.3002
-17.7226
-18.1294
-18.5066
-18.8411
-19.1209
-19.3353
-19.475
-19.532
-19.4994
-19.3717
-19.1443
-18.8141
-18.3795
-17.8403
-17.1985
-16.4585
-15.6273
-14.715
-13.7346
-12.7022
-11.6361
-10.5565
-9.48379
-8.43766
-7.4355
-6.49145
-5.61579
-4.81485
-4.09138
-3.44514
-2.87362
-2.37266
-1.93707
-1.56111
-1.23883
-0.964331
-0.731982
-0.536487
-0.372956
-0.236926
-0.124352
-0.0316178
0.044466
0.106655
0.157285
0.198301
0.231308
0.257621
0.278321
0.294295
0.306273
0.314858
0.320543
0.323735
0.324775
0.323948
0.321503
0.317662
0.312624
0.306578
0.299694
0.292128
0.284017
0.275478
0.266603
0.257464
0.248116
0.238599
0.228943
0.21917
0.209296
0.199332
0.189287
0.179165
0.168971
0.158703
0.148362
0.137947
0.127454
0.11688
0.106221
0.0954738
0.0846318
0.073692
0.0626492
0.0514915
0.0402463
0.0287997
0.0174743
0.00534771
-14.6976
-14.8262
-14.9877
-15.1862
-15.4245
-15.7028
-16.0177
-16.3625
-16.728
-17.1031
-17.4759
-17.8336
-18.1639
-18.4548
-18.6952
-18.8751
-18.9858
-19.0196
-18.97
-18.8316
-18.6003
-18.2732
-17.8487
-17.3271
-16.7103
-16.0026
-15.2108
-14.3441
-13.4147
-12.4371
-11.4281
-10.4056
-9.3881
-8.39339
-7.43727
-6.53283
-5.68984
-4.91464
-4.21038
-3.57749
-3.01425
-2.51734
-2.08237
-1.70435
-1.37795
-1.09784
-0.858824
-0.655994
-0.484756
-0.340886
-0.220529
-0.120206
-0.0368261
0.0323027
0.0894794
0.136632
0.175356
0.206968
0.232555
0.253018
0.269108
0.281448
0.290559
0.296875
0.30076
0.302524
0.302434
0.30073
0.297628
0.293326
0.288011
0.28185
0.274994
0.26757
0.259684
0.251422
0.242849
0.234017
0.224964
0.215722
0.206313
0.196758
0.187071
0.177262
0.167339
0.157309
0.147174
0.136938
0.1266
0.116161
0.105619
0.0949724
0.0842197
0.0733549
0.0623847
0.0512775
0.0401072
0.0286665
0.0174791
0.0052036
-14.7221
-14.8484
-15.0035
-15.19
-15.4095
-15.6621
-15.9447
-16.2517
-16.5752
-16.9058
-17.2329
-17.5453
-17.832
-18.0822
-18.2857
-18.4333
-18.5167
-18.5288
-18.4633
-18.3151
-18.0805
-17.7567
-17.3425
-16.838
-16.2454
-15.5688
-14.8145
-13.9912
-13.11
-12.1842
-11.2288
-10.2602
-9.29486
-8.3489
-7.4367
-6.57036
-5.75912
-5.00927
-4.32426
-3.70506
-3.15064
-2.65842
-2.22476
-1.84532
-1.51543
-1.23025
-0.985061
-0.7753
-0.596685
-0.445236
-0.317293
-0.209525
-0.118948
-0.0429408
0.0207512
0.0740311
0.118484
0.155422
0.185935
0.210934
0.231184
0.247331
0.25992
0.269408
0.276185
0.280582
0.282889
0.283361
0.28223
0.279709
0.275997
0.271273
0.265701
0.259421
0.252551
0.245189
0.237413
0.229284
0.220851
0.212155
0.203227
0.194093
0.184774
0.175287
0.165646
0.155861
0.14594
0.135888
0.125711
0.115412
0.104991
0.0944494
0.0837894
0.0730027
0.0621077
0.0510537
0.0399598
0.028529
0.0174757
0.00506677
-14.7361
-14.8584
-15.0057
-15.1795
-15.3806
-15.6089
-15.8616
-16.1338
-16.4189
-16.7085
-16.9936
-17.2643
-17.5107
-17.7231
-17.8922
-18.0096
-18.0675
-18.0592
-17.9789
-17.8218
-17.5844
-17.2642
-16.86
-16.3723
-15.803
-15.1561
-14.4376
-13.6554
-12.8198
-11.9428
-11.038
-10.1201
-9.20404
-8.30428
-7.43394
-6.6042
-5.82377
-5.09883
-4.43303
-3.82778
-3.28264
-2.7957
-2.36398
-1.98379
-1.651
-1.36132
-1.11043
-0.894156
-0.70851
-0.549762
-0.41445
-0.2994
-0.201743
-0.118936
-0.0487768
0.010608
0.0607866
0.103064
0.138531
0.168102
0.192555
0.212554
0.228665
0.241369
0.25108
0.258151
0.262892
0.265576
0.266451
0.265744
0.263666
0.26041
0.256151
0.251041
0.245211
0.238772
0.231812
0.224404
0.216609
0.208473
0.200038
0.191338
0.182399
0.173244
0.163893
0.15436
0.144659
0.134799
0.124788
0.114633
0.104338
0.0939049
0.083341
0.0726356
0.0618182
0.0508203
0.0398039
0.0283873
0.0174637
0.00493774
-14.7401
-14.8571
-14.9954
-15.156
-15.3393
-15.5447
-15.7696
-16.0098
-16.2595
-16.5116
-16.7581
-16.9904
-17.1995
-17.3769
-17.5141
-17.6033
-17.6375
-17.6103
-17.5163
-17.3511
-17.1115
-16.795
-16.4008
-15.9293
-15.3824
-14.7639
-14.0794
-13.3362
-12.5436
-11.7125
-10.8553
-9.98522
-9.11564
-8.25965
-7.42918
-6.63455
-5.88397
-5.18343
-4.53672
-3.94562
-3.41016
-2.92904
-2.49985
-2.11951
-1.78442
-1.49077
-1.23468
-1.01231
-0.819997
-0.654244
-0.511799
-0.389648
-0.285044
-0.195534
-0.118971
-0.0535187
0.00236943
0.0499879
0.0904221
0.124591
0.153281
0.177169
0.196841
0.2128
0.225483
0.235264
0.242473
0.247402
0.250315
0.251452
0.251038
0.249277
0.246356
0.24244
0.237674
0.232178
0.226054
0.219385
0.212242
0.204681
0.196752
0.188496
0.179947
0.171133
0.16208
0.152808
0.143333
0.133671
0.123832
0.113825
0.10366
0.0933394
0.0828749
0.0722538
0.0615165
0.0505776
0.0396396
0.0282418
0.017443
0.00481675
-14.7348
-14.8453
-14.9741
-15.1214
-15.2873
-15.4708
-15.6698
-15.8805
-16.0978
-16.3155
-16.5266
-16.7235
-16.8984
-17.0434
-17.1511
-17.2142
-17.2263
-17.1816
-17.0751
-16.9026
-16.6611
-16.3486
-15.9642
-15.5083
-14.9829
-14.3915
-13.7392
-13.0328
-12.2807
-11.493
-10.6806
-9.85546
-9.02972
-8.21514
-7.42262
-6.66163
-5.9399
-5.26321
-4.63541
-4.05856
-3.53312
-3.05828
-2.63218
-2.25225
-1.91544
-1.61836
-1.35755
-1.12952
-0.930905
-0.758456
-0.609128
-0.480074
-0.368676
-0.272574
-0.189686
-0.118219
-0.0566513
-0.00370398
0.0417013
0.0804828
0.113432
0.141238
0.164504
0.183751
0.199438
0.211962
0.22167
0.228873
0.23385
0.236858
0.238133
0.237891
0.236333
0.233634
0.229952
0.225418
0.220148
0.214234
0.207757
0.200785
0.193374
0.185572
0.177422
0.168959
0.160212
0.151206
0.141965
0.132505
0.122843
0.11299
0.102958
0.0927538
0.0823918
0.0718579
0.061203
0.0503258
0.0394671
0.0280927
0.0174138
0.00470371
-14.7207
-14.824
-14.9428
-15.0767
-15.2256
-15.3886
-15.5634
-15.7468
-15.9343
-16.1204
-16.2991
-16.4636
-16.6069
-16.7222
-16.8027
-16.8417
-16.8335
-16.7727
-16.6546
-16.4756
-16.2328
-15.9244
-15.5495
-15.1087
-14.6039
-14.0382
-13.4164
-12.7448
-12.0309
-11.2838
-10.5136
-9.73075
-8.94632
-8.17092
-7.41447
-6.68568
-5.99178
-5.33833
-4.7292
-4.16664
-3.65147
-3.18331
-2.7608
-2.38183
-2.04382
-1.74384
-1.47879
-1.24554
-1.04099
-0.862167
-0.706221
-0.570478
-0.452453
-0.349886
-0.260767
-0.183352
-0.116148
-0.0578964
-0.00752903
0.0358685
0.0730906
0.104835
0.131717
0.15428
0.172998
0.188289
0.200522
0.210024
0.217091
0.221992
0.224978
0.226277
0.226102
0.22464
0.222059
0.218506
0.214104
0.20896
0.203163
0.196791
0.189908
0.182572
0.17483
0.166724
0.15829
0.149559
0.140556
0.131304
0.121823
0.112128
0.102234
0.0921489
0.0818924
0.0714485
0.0608783
0.0500655
0.0392868
0.0279404
0.0173765
0.00459829
-14.6985
-14.7941
-14.9024
-15.0231
-15.1557
-15.2992
-15.4515
-15.6096
-15.7697
-15.9269
-16.0758
-16.2106
-16.3251
-16.4131
-16.4685
-16.4854
-16.4585
-16.383
-16.2545
-16.0697
-15.826
-15.5217
-15.1562
-14.73
-14.2447
-13.7034
-13.1105
-12.4716
-11.7937
-11.0848
-10.3541
-9.61104
-8.86553
-8.12717
-7.40496
-6.70693
-6.03983
-5.40897
-4.81819
-4.2699
-3.76519
-3.30406
-2.88557
-2.50806
-2.16937
-1.86698
-1.59816
-1.36011
-1.15001
-0.965141
-0.802853
-0.660647
-0.536176
-0.427287
-0.332047
-0.248763
-0.175981
-0.112463
-0.0571546
-0.00914897
0.0323483
0.068041
0.0985561
0.124451
0.146221
0.164301
0.179079
0.1909
0.200075
0.206888
0.211603
0.214462
0.215685
0.215477
0.214014
0.211455
0.207936
0.203574
0.198469
0.192708
0.186363
0.179501
0.172175
0.164435
0.15632
0.147869
0.13911
0.130071
0.120776
0.111242
0.101489
0.0915263
0.081378
0.0710267
0.060543
0.0497973
0.0390991
0.0277852
0.0173316
0.00449992
-14.6689
-14.7562
-14.854
-14.9617
-15.0786
-15.2037
-15.3349
-15.4698
-15.6046
-15.7353
-15.857
-15.9647
-16.0528
-16.1158
-16.1483
-16.145
-16.101
-16.012