/*--------------------------------*- C++ -*----------------------------------*\
| =========                 |                                                 |
| \\      /  F ield         | OpenFOAM: The Open Source CFD Toolbox           |
|  \\    /   O peration     | Version:  2.1.1                                 |
|   \\  /    A nd           | Web:      www.OpenFOAM.org                      |
|    \\/     M anipulation  |                                                 |
\*---------------------------------------------------------------------------*/
FoamFile
{
    version     2.0;
    format      ascii;
    class       surfaceScalarField;
    location    "0.04";
    object      phi;
}
// * * * * * * * * * * * * * * * * * * * * * * * * * * * * * * * * * * * * * //

dimensions      [0 3 -1 0 0 0 0];

internalField   nonuniform List<scalar> 
13452
(
6.89924e-05
-5.05124e-07
6.8814e-05
1.78358e-07
6.82034e-05
6.10674e-07
6.7257e-05
9.46343e-07
6.6182e-05
1.07504e-06
6.50925e-05
1.08952e-06
6.40302e-05
1.06221e-06
6.30127e-05
1.01757e-06
6.20481e-05
9.64573e-07
6.114e-05
9.08144e-07
6.02892e-05
8.50725e-07
5.94954e-05
7.93796e-07
5.87571e-05
7.38339e-07
5.8072e-05
6.8506e-07
5.74376e-05
6.34456e-07
5.68507e-05
5.86868e-07
5.63082e-05
5.42524e-07
5.58066e-05
5.01573e-07
5.53425e-05
4.64108e-07
5.49123e-05
4.30204e-07
5.45124e-05
3.99941e-07
5.41389e-05
3.73433e-07
5.37881e-05
3.50863e-07
5.34555e-05
3.32527e-07
5.31366e-05
3.18896e-07
5.28259e-05
3.10707e-07
5.25168e-05
3.09101e-07
5.22008e-05
3.16075e-07
5.18665e-05
3.34296e-07
5.14953e-05
3.71174e-07
5.10621e-05
4.33181e-07
5.05078e-05
5.54307e-07
7.98589e-07
4.97092e-05
7.0165e-05
-2.26135e-07
7.00411e-05
3.02168e-07
7.01818e-05
4.7006e-07
7.05091e-05
6.19025e-07
7.08596e-05
7.24483e-07
7.11586e-05
7.90514e-07
7.13835e-05
8.37368e-07
7.15358e-05
8.65214e-07
7.16236e-05
8.76765e-07
7.16558e-05
8.76025e-07
7.16405e-05
8.65977e-07
7.15853e-05
8.4899e-07
7.14967e-05
8.26917e-07
7.13805e-05
8.01285e-07
7.12416e-05
7.73337e-07
7.10844e-05
7.44098e-07
7.09125e-05
7.14416e-07
7.07291e-05
6.85004e-07
7.05367e-05
6.56473e-07
7.03376e-05
6.29362e-07
7.01333e-05
6.04176e-07
6.99253e-05
5.81426e-07
6.97145e-05
5.61663e-07
6.95015e-05
5.45538e-07
6.92865e-05
5.33878e-07
6.90695e-05
5.27755e-07
6.88499e-05
5.28735e-07
6.86271e-05
5.38872e-07
6.83996e-05
5.61796e-07
6.81695e-05
6.0119e-07
6.79344e-05
6.68338e-07
6.77304e-05
7.58325e-07
9.23368e-07
6.76056e-05
7.22817e-05
-5.1272e-08
7.2397e-05
1.86842e-07
7.25021e-05
3.64943e-07
7.25891e-05
5.32009e-07
7.2673e-05
6.40623e-07
7.27557e-05
7.07794e-07
7.28426e-05
7.50438e-07
7.29302e-05
7.77626e-07
7.30144e-05
7.9256e-07
7.30926e-05
7.97823e-07
7.31632e-05
7.95408e-07
7.32253e-05
7.86937e-07
7.32784e-05
7.73747e-07
7.33227e-05
7.57025e-07
7.33582e-05
7.378e-07
7.33854e-05
7.16964e-07
7.34045e-05
6.95297e-07
7.3416e-05
6.73489e-07
7.34203e-05
6.52163e-07
7.34178e-05
6.31904e-07
7.34086e-05
6.1329e-07
7.33931e-05
5.96927e-07
7.33713e-05
5.8349e-07
7.33431e-05
5.73774e-07
7.33082e-05
5.68777e-07
7.32662e-05
5.69766e-07
7.32164e-05
5.78506e-07
7.31581e-05
5.97194e-07
7.30904e-05
6.29516e-07
7.3013e-05
6.78507e-07
7.29271e-05
7.54283e-07
7.28348e-05
8.5058e-07
1.01078e-06
7.27474e-05
7.45186e-05
-4.32109e-08
7.44885e-05
2.16951e-07
7.44773e-05
3.76077e-07
7.45174e-05
4.91958e-07
7.45783e-05
5.79687e-07
7.46455e-05
6.40635e-07
7.47123e-05
6.83608e-07
7.47772e-05
7.12684e-07
7.484e-05
7.29845e-07
7.49003e-05
7.37497e-07
7.4958e-05
7.3771e-07
7.50128e-05
7.32101e-07
7.50646e-05
7.21984e-07
7.51131e-05
7.08501e-07
7.51583e-05
6.92632e-07
7.52e-05
6.75228e-07
7.52383e-05
6.57039e-07
7.5273e-05
6.38744e-07
7.53042e-05
6.20969e-07
7.53318e-05
6.04321e-07
7.53557e-05
5.89412e-07
7.53757e-05
5.769e-07
7.53917e-05
5.67523e-07
7.54033e-05
5.62155e-07
7.54102e-05
5.61874e-07
7.54119e-05
5.68026e-07
7.5408e-05
5.82414e-07
7.5398e-05
6.07212e-07
7.53818e-05
6.45734e-07
7.53594e-05
7.00874e-07
7.53341e-05
7.79573e-07
7.53044e-05
8.80307e-07
1.02199e-06
7.52932e-05
7.66036e-05
9.04886e-09
7.66285e-05
1.92053e-07
7.66653e-05
3.39225e-07
7.6704e-05
4.53264e-07
7.67431e-05
5.40587e-07
7.67836e-05
6.00207e-07
7.68266e-05
6.40615e-07
7.68717e-05
6.6755e-07
7.69179e-05
6.8365e-07
7.69643e-05
6.91107e-07
7.70102e-05
6.91741e-07
7.70554e-05
6.8699e-07
7.70993e-05
6.78054e-07
7.71418e-05
6.6599e-07
7.71827e-05
6.51719e-07
7.72219e-05
6.36055e-07
7.72592e-05
6.19728e-07
7.72945e-05
6.03407e-07
7.73278e-05
5.87724e-07
7.73588e-05
5.73301e-07
7.73874e-05
5.60775e-07
7.74135e-05
5.50835e-07
7.74368e-05
5.44259e-07
7.7457e-05
5.41957e-07
7.74738e-05
5.45037e-07
7.7487e-05
5.54849e-07
7.74963e-05
5.73129e-07
7.75015e-05
6.01923e-07
7.75032e-05
6.44071e-07
7.75019e-05
7.02141e-07
7.75005e-05
7.80998e-07
7.75e-05
8.80818e-07
1.01119e-06
7.75108e-05
7.88313e-05
2.37137e-08
7.88391e-05
1.84203e-07
7.88577e-05
3.20666e-07
7.88871e-05
4.23812e-07
7.89242e-05
5.0347e-07
7.89644e-05
5.60062e-07
7.90057e-05
5.99331e-07
7.90474e-05
6.25827e-07
7.90891e-05
6.41885e-07
7.91307e-05
6.49531e-07
7.91719e-05
6.50547e-07
7.92125e-05
6.46362e-07
7.92524e-05
6.38165e-07
7.92914e-05
6.26987e-07
7.93294e-05
6.13729e-07
7.93663e-05
5.99189e-07
7.94019e-05
5.84089e-07
7.94362e-05
5.69095e-07
7.94691e-05
5.54846e-07
7.95004e-05
5.41972e-07
7.95301e-05
5.31127e-07
7.95579e-05
5.23015e-07
7.95837e-05
5.1843e-07
7.96074e-05
5.18285e-07
7.96288e-05
5.23669e-07
7.96478e-05
5.35879e-07
7.96644e-05
5.5651e-07
7.96789e-05
5.87393e-07
7.96921e-05
6.30864e-07
7.97052e-05
6.89088e-07
7.97208e-05
7.65352e-07
7.97411e-05
8.60509e-07
9.79023e-07
7.97733e-05
8.10848e-05
3.74335e-08
8.10951e-05
1.73963e-07
8.1119e-05
2.96733e-07
8.11503e-05
3.92487e-07
8.11858e-05
4.67955e-07
8.12229e-05
5.23015e-07
8.12607e-05
5.61472e-07
8.12992e-05
5.87373e-07
8.13379e-05
6.03147e-07
8.13767e-05
6.10784e-07
8.14152e-05
6.12007e-07
8.14534e-05
6.08204e-07
8.1491e-05
6.0053e-07
8.1528e-05
5.8999e-07
8.15643e-05
5.77467e-07
8.15997e-05
5.63744e-07
8.16343e-05
5.49534e-07
8.16679e-05
5.35503e-07
8.17004e-05
5.22288e-07
8.17319e-05
5.10525e-07
8.17621e-05
5.00871e-07
8.17911e-05
4.94032e-07
8.18188e-05
4.90789e-07
8.1845e-05
4.92032e-07
8.18699e-05
4.98791e-07
8.18935e-05
5.1226e-07
8.19162e-05
5.33847e-07
8.19384e-05
5.65115e-07
8.19614e-05
6.07907e-07
8.19866e-05
6.63924e-07
8.20166e-05
7.35305e-07
8.20543e-05
8.22858e-07
9.28324e-07
8.2105e-05
8.34102e-05
4.27967e-08
8.34204e-05
1.63759e-07
8.34417e-05
2.75423e-07
8.34699e-05
3.64266e-07
8.35032e-05
4.34681e-07
8.35391e-05
4.87111e-07
8.35763e-05
5.24284e-07
8.36141e-05
5.49551e-07
8.36521e-05
5.65143e-07
8.369e-05
5.72875e-07
8.37277e-05
5.74361e-07
8.37649e-05
5.70941e-07
8.38017e-05
5.63744e-07
8.38379e-05
5.53753e-07
8.38736e-05
5.41836e-07
8.39086e-05
5.28765e-07
8.39428e-05
5.15247e-07
8.39764e-05
5.0194e-07
8.40092e-05
4.89481e-07
8.40412e-05
4.78499e-07
8.40725e-05
4.69644e-07
8.41029e-05
4.63605e-07
8.41325e-05
4.61134e-07
8.41615e-05
4.63067e-07
8.419e-05
4.70345e-07
8.42182e-05
4.84027e-07
8.42467e-05
5.05301e-07
8.42764e-05
5.35439e-07
8.43085e-05
5.75824e-07
8.43447e-05
6.27684e-07
8.43877e-05
6.92298e-07
8.44405e-05
7.70131e-07
8.61426e-07
8.45074e-05
8.57964e-05
4.51005e-08
8.58066e-05
1.53625e-07
8.58273e-05
2.54695e-07
8.58548e-05
3.36789e-07
8.5887e-05
4.02412e-07
8.5922e-05
4.52169e-07
8.59583e-05
4.87948e-07
8.59954e-05
5.1245e-07
8.60328e-05
5.27709e-07
8.60703e-05
5.3541e-07
8.61076e-05
5.37059e-07
8.61446e-05
5.33938e-07
8.61812e-05
5.27133e-07
8.62174e-05
5.17598e-07
8.6253e-05
5.06177e-07
8.62882e-05
4.93625e-07
8.63228e-05
4.80637e-07
8.63569e-05
4.67859e-07
8.63904e-05
4.55915e-07
8.64235e-05
4.45422e-07
8.64561e-05
4.37009e-07
8.64884e-05
4.31333e-07
8.65205e-05
4.29097e-07
8.65525e-05
4.31063e-07
8.65847e-05
4.38061e-07
8.66178e-05
4.5099e-07
8.66523e-05
4.70812e-07
8.66892e-05
4.98501e-07
8.673e-05
5.35026e-07
8.67765e-05
5.81173e-07
8.68312e-05
6.37571e-07
8.68971e-05
7.04275e-07
7.80686e-07
8.69778e-05
8.82502e-05
4.49311e-08
8.82605e-05
1.43297e-07
8.82803e-05
2.34911e-07
8.83064e-05
3.10639e-07
8.83373e-05
3.71568e-07
8.83711e-05
4.18348e-07
8.84067e-05
4.52381e-07
8.84433e-05
4.75847e-07
8.84804e-05
4.90569e-07
8.85177e-05
4.98083e-07
8.8555e-05
4.99773e-07
8.85921e-05
4.9684e-07
8.86289e-05
4.90323e-07
8.86654e-05
4.81135e-07
8.87015e-05
4.70089e-07
8.87372e-05
4.57919e-07
8.87725e-05
4.45298e-07
8.88075e-05
4.32855e-07
8.88423e-05
4.21194e-07
8.88768e-05
4.10906e-07
8.89112e-05
4.02588e-07
8.89457e-05
3.96851e-07
8.89804e-05
3.94335e-07
8.90158e-05
3.95711e-07
8.90522e-05
4.01685e-07
8.90902e-05
4.12986e-07
8.91306e-05
4.3035e-07
8.91747e-05
4.54469e-07
8.92237e-05
4.85952e-07
8.92797e-05
5.25199e-07
8.93449e-05
5.72352e-07
8.94221e-05
6.271e-07
6.8838e-07
8.95144e-05
9.07729e-05
4.33811e-08
9.07832e-05
1.32986e-07
9.08021e-05
2.16009e-07
9.08271e-05
2.85565e-07
9.08569e-05
3.41864e-07
9.08897e-05
3.85509e-07
9.09245e-05
4.17571e-07
9.09606e-05
4.39795e-07
9.09973e-05
4.53783e-07
9.10345e-05
4.60924e-07
9.10718e-05
4.62485e-07
9.1109e-05
4.59587e-07
9.11462e-05
4.5321e-07
9.11831e-05
4.44223e-07
9.12197e-05
4.33403e-07
9.12562e-05
4.21454e-07
9.12925e-05
4.09019e-07
9.13286e-05
3.96703e-07
9.13648e-05
3.85078e-07
9.1401e-05
3.74704e-07
9.14374e-05
3.66133e-07
9.14743e-05
3.5992e-07
9.15121e-05
3.56628e-07
9.15509e-05
3.56828e-07
9.15915e-05
3.61096e-07
9.16345e-05
3.69992e-07
9.16808e-05
3.84037e-07
9.17316e-05
4.0367e-07
9.17884e-05
4.29197e-07
9.18529e-05
4.60698e-07
9.19273e-05
4.97966e-07
9.2014e-05
5.40409e-07
5.86738e-07
9.21156e-05
9.3367e-05
4.09947e-08
9.33773e-05
1.22714e-07
9.33954e-05
1.97906e-07
9.34195e-05
2.61526e-07
9.3448e-05
3.1329e-07
9.34798e-05
3.53688e-07
9.35138e-05
3.8357e-07
9.35493e-05
4.04337e-07
9.35857e-05
4.17382e-07
9.36227e-05
4.23956e-07
9.36599e-05
4.2521e-07
9.36974e-05
4.2218e-07
9.37348e-05
4.15782e-07
9.37722e-05
4.06835e-07
9.38095e-05
3.96073e-07
9.38468e-05
3.84164e-07
9.38841e-05
3.71718e-07
9.39215e-05
3.59306e-07
9.39591e-05
3.47463e-07
9.39971e-05
3.36706e-07
9.40357e-05
3.27535e-07
9.40752e-05
3.2044e-07
9.41159e-05
3.15903e-07
9.41583e-05
3.14389e-07
9.42031e-05
3.16342e-07
9.42509e-05
3.22164e-07
9.43028e-05
3.32183e-07
9.43598e-05
3.46618e-07
9.44235e-05
3.6553e-07
9.44954e-05
3.88755e-07
9.45776e-05
4.15843e-07
9.4672e-05
4.46017e-07
4.7792e-07
9.47808e-05
9.60349e-05
3.81532e-08
9.60451e-05
1.12569e-07
9.60624e-05
1.80549e-07
9.60855e-05
2.38447e-07
9.6113e-05
2.85751e-07
9.61439e-05
3.22825e-07
9.61771e-05
3.50361e-07
9.6212e-05
3.69488e-07
9.62479e-05
3.81407e-07
9.62847e-05
3.87231e-07
9.63219e-05
3.88002e-07
9.63594e-05
3.84668e-07
9.63971e-05
3.7808e-07
9.64349e-05
3.69e-07
9.64729e-05
3.58119e-07
9.6511e-05
3.46062e-07
9.65493e-05
3.334e-07
9.65879e-05
3.20662e-07
9.66271e-05
3.08343e-07
9.66669e-05
2.96909e-07
9.67076e-05
2.86803e-07
9.67496e-05
2.78445e-07
9.67933e-05
2.72229e-07
9.68391e-05
2.68521e-07
9.68878e-05
2.67639e-07
9.69402e-05
2.69837e-07
9.69971e-05
2.75281e-07
9.70597e-05
2.84008e-07
9.71293e-05
2.9589e-07
9.72075e-05
3.10588e-07
9.72958e-05
3.27498e-07
9.73961e-05
3.45748e-07
3.6401e-07
9.751e-05
9.87788e-05
3.50843e-08
9.87888e-05
1.02602e-07
9.88054e-05
1.63873e-07
9.88276e-05
2.16258e-07
9.88542e-05
2.59178e-07
9.88841e-05
2.92884e-07
9.89166e-05
3.1794e-07
9.89508e-05
3.35265e-07
9.89863e-05
3.45885e-07
9.90228e-05
3.50787e-07
9.90598e-05
3.50903e-07
9.90974e-05
3.47097e-07
9.91353e-05
3.4015e-07
9.91736e-05
3.30768e-07
9.92121e-05
3.1959e-07
9.9251e-05
3.07195e-07
9.92903e-05
2.94112e-07
9.93301e-05
2.80824e-07
9.93707e-05
2.67779e-07
9.94122e-05
2.55389e-07
9.9455e-05
2.44036e-07
9.94993e-05
2.34067e-07
9.95458e-05
2.25795e-07
9.95948e-05
2.19485e-07
9.96471e-05
2.15344e-07
9.97034e-05
2.135e-07
9.97647e-05
2.1398e-07
9.98321e-05
2.16682e-07
9.99066e-05
2.21342e-07
9.99897e-05
2.27507e-07
0.000100083
2.34492e-07
0.000100187
2.41398e-07
2.46994e-07
0.000100304
0.000101601
3.19277e-08
0.000101611
9.28565e-08
0.000101627
1.47823e-07
0.000101648
1.94893e-07
0.000101674
2.33503e-07
0.000101703
2.63814e-07
0.000101734
2.86285e-07
0.000101768
3.01668e-07
0.000101803
3.10835e-07
0.000101839
3.14654e-07
0.000101876
3.13955e-07
0.000101914
3.09515e-07
0.000101952
3.02047e-07
0.00010199
2.92197e-07
0.000102029
2.8055e-07
0.000102069
2.67636e-07
0.000102109
2.53936e-07
0.00010215
2.39886e-07
0.000102192
2.25882e-07
0.000102235
2.12282e-07
0.00010228
1.99404e-07
0.000102326
1.87527e-07
0.000102375
1.76883e-07
0.000102427
1.67648e-07
0.000102483
1.59932e-07
0.000102542
1.53756e-07
0.000102607
1.49043e-07
0.000102678
1.45587e-07
0.000102757
1.43034e-07
0.000102843
1.40869e-07
0.000102939
1.38384e-07
0.000103046
1.34704e-07
1.28732e-07
0.000103164
0.000104504
2.87657e-08
0.000104513
8.33592e-08
0.000104529
1.32351e-07
0.000104549
1.74287e-07
0.000104574
2.08663e-07
0.000104602
2.35567e-07
0.000104633
2.55371e-07
0.000104666
2.68692e-07
0.000104701
2.7627e-07
0.000104736
2.78859e-07
0.000104773
2.77195e-07
0.000104811
2.71971e-07
0.000104849
2.63829e-07
0.000104888
2.53354e-07
0.000104927
2.41075e-07
0.000104967
2.27472e-07
0.000105008
2.12975e-07
0.00010505
1.97971e-07
0.000105093
1.82802e-07
0.000105138
1.67772e-07
0.000105184
1.53137e-07
0.000105233
1.39111e-07
0.000105284
1.25853e-07
0.000105338
1.13461e-07
0.000105396
1.01963e-07
0.000105458
9.12999e-08
0.000105526
8.13133e-08
0.0001056
7.17306e-08
0.000105681
6.21495e-08
0.00010577
5.20319e-08
0.000105867
4.06892e-08
0.000105975
2.73085e-08
1.09489e-08
0.000106092
0.000107489
2.56447e-08
0.000107498
7.41248e-08
0.000107513
1.17414e-07
0.000107533
1.54386e-07
0.000107557
1.84601e-07
0.000107585
2.08096e-07
0.000107615
2.2517e-07
0.000107647
2.36329e-07
0.000107681
2.42198e-07
0.000107717
2.43427e-07
0.000107753
2.40661e-07
0.000107791
2.34515e-07
0.000107829
2.25559e-07
0.000107868
2.14315e-07
0.000107908
2.01258e-07
0.000107949
1.86814e-07
0.00010799
1.71361e-07
0.000108033
1.55237e-07
0.000108077
1.38731e-07
0.000108123
1.22091e-07
0.00010817
1.05519e-07
0.00010822
8.91671e-08
0.000108273
7.31306e-08
0.000108329
5.74437e-08
0.000108389
4.20684e-08
0.000108453
2.68858e-08
0.000108523
1.16854e-08
0.000108598
-3.84405e-09
0.000108681
-2.01213e-08
0.00010877
-3.76731e-08
0.000108868
-5.71402e-08
0.000108975
-7.92509e-08
-1.04788e-07
0.000109091
0.00011056
2.25897e-08
0.000110569
6.51582e-08
0.000110583
1.02975e-07
0.000110603
1.35136e-07
0.000110626
1.61264e-07
0.000110653
1.81359e-07
0.000110682
1.95657e-07
0.000110714
2.04573e-07
0.000110747
2.08629e-07
0.000110783
2.08384e-07
0.000110819
2.04397e-07
0.000110856
1.97205e-07
0.000110894
1.87309e-07
0.000110934
1.75171e-07
0.000110974
1.61208e-07
0.000111015
1.45792e-07
0.000111057
1.29252e-07
0.0001111
1.11873e-07
0.000111145
9.38955e-08
0.000111191
7.5516e-08
0.00011124
5.68837e-08
0.000111291
3.80971e-08
0.000111345
1.91992e-08
0.000111402
1.72122e-10
0.000111464
-1.90699e-08
0.000111529
-3.86864e-08
0.0001116
-5.89173e-08
0.000111676
-8.00865e-08
0.000111758
-1.02605e-07
0.000111848
-1.26964e-07
0.000111944
-1.53737e-07
0.000112049
-1.83557e-07
-2.17048e-07
0.000112161
0.000113718
1.96127e-08
0.000113727
5.64575e-08
0.000113741
8.90019e-08
0.00011376
1.16493e-07
0.000113782
1.38606e-07
0.000113808
1.55317e-07
0.000113837
1.66807e-07
0.000113868
1.73415e-07
0.000113902
1.75575e-07
0.000113936
1.7376e-07
0.000113972
1.68448e-07
0.000114009
1.60105e-07
0.000114047
1.49164e-07
0.000114087
1.36026e-07
0.000114127
1.21052e-07
0.000114168
1.04562e-07
0.00011421
8.68332e-08
0.000114254
6.81024e-08
0.000114299
4.85631e-08
0.000114347
2.83643e-08
0.000114396
7.60889e-09
0.000114448
-1.36499e-08
0.000114502
-3.54115e-08
0.00011456
-5.77328e-08
0.000114622
-8.07314e-08
0.000114688
-1.0459e-07
0.000114758
-1.29558e-07
0.000114834
-1.55954e-07
0.000114916
-1.8416e-07
0.000115003
-2.14618e-07
0.000115097
-2.47825e-07
0.000115198
-2.84308e-07
-3.24549e-07
0.000115306
0.000116967
1.67182e-08
0.000116976
4.80165e-08
0.000116989
7.54639e-08
0.000117007
9.84141e-08
0.000117029
1.16586e-07
0.000117055
1.29936e-07
0.000117083
1.386e-07
0.000117113
1.42852e-07
0.000117146
1.43049e-07
0.00011718
1.39586e-07
0.000117216
1.32867e-07
0.000117253
1.23287e-07
0.000117291
1.11218e-07
0.00011733
9.6999e-08
0.00011737
8.09366e-08
0.000117411
6.3299e-08
0.000117453
4.43162e-08
0.000117497
2.41781e-08
0.000117543
3.03414e-09
0.00011759
-1.90086e-08
0.00011764
-4.18872e-08
0.000117692
-6.55849e-08
0.000117746
-9.01337e-08
0.000117804
-1.15617e-07
0.000117866
-1.4217e-07
0.000117931
-1.69985e-07
0.000118001
-1.99305e-07
0.000118075
-2.30427e-07
0.000118155
-2.63693e-07
0.00011824
-2.99486e-07
0.00011833
-3.38219e-07
0.000118426
-3.8032e-07
-4.26138e-07
0.000118528
0.000120309
1.39065e-08
0.000120317
3.98261e-08
0.00012033
6.2335e-08
0.000120348
8.08645e-08
0.000120369
9.51661e-08
0.000120394
1.05185e-07
0.000120421
1.11018e-07
0.000120451
1.12883e-07
0.000120483
1.11068e-07
0.000120517
1.05899e-07
0.000120552
9.77113e-08
0.000120589
8.68342e-08
0.000120626
7.3577e-08
0.000120665
5.82231e-08
0.000120705
4.10251e-08
0.000120746
2.22025e-08
0.000120789
1.93901e-09
0.000120832
-1.96182e-08
0.000120878
-4.23595e-08
0.000120925
-6.62144e-08
0.000120974
-9.1153e-08
0.000121026
-1.17187e-07
0.00012108
-1.44371e-07
0.000121137
-1.72804e-07
0.000121198
-2.0263e-07
0.000121262
-2.34033e-07
0.00012133
-2.67242e-07
0.000121402
-3.02521e-07
0.000121478
-3.40166e-07
0.000121559
-3.80494e-07
0.000121645
-4.23836e-07
0.000121735
-4.70526e-07
-5.20794e-07
0.00012183
0.000123746
1.1176e-08
0.000123754
3.18764e-08
0.000123767
4.95922e-08
0.000123784
6.38128e-08
0.000123805
7.43164e-08
0.000123829
8.10388e-08
0.000123856
8.40467e-08
0.000123885
8.35075e-08
0.000123916
7.96509e-08
0.00012395
7.27393e-08
0.000123984
6.30447e-08
0.00012402
5.08337e-08
0.000124057
3.63576e-08
0.000124096
1.98448e-08
0.000124135
1.49784e-09
0.000124176
-1.85104e-08
0.000124218
-4.00395e-08
0.000124261
-6.29811e-08
0.000124306
-8.72607e-08
0.000124353
-1.12839e-07
0.000124402
-1.39713e-07
0.000124452
-1.67914e-07
0.000124505
-1.97512e-07
0.000124561
-2.28612e-07
0.00012462
-2.61353e-07
0.000124682
-2.9591e-07
0.000124747
-3.32484e-07
0.000124816
-3.71302e-07
0.000124888
-4.12607e-07
0.000124964
-4.56652e-07
0.000125044
-5.0369e-07
0.000125128
-5.53968e-07
-6.07616e-07
0.000125215
0.000127281
8.52404e-09
0.000127289
2.41574e-08
0.000127301
3.72149e-08
0.000127318
4.72306e-08
0.000127338
5.40066e-08
0.000127362
5.7473e-08
0.000127388
5.76714e-08
0.000127417
5.47282e-08
0.000127448
4.88195e-08
0.00012748
4.01512e-08
0.000127514
2.89358e-08
0.00012755
1.53819e-08
0.000127587
-3.14028e-10
0.000127624
-1.79765e-08
0.000127663
-3.74495e-08
0.000127703
-5.86047e-08
0.000127745
-8.13407e-08
0.000127787
-1.05584e-07
0.000127831
-1.31292e-07
0.000127877
-1.58449e-07
0.000127924
-1.87073e-07
0.000127974
-2.1721e-07
0.000128025
-2.48937e-07
0.000128079
-2.82356e-07
0.000128135
-3.17599e-07
0.000128194
-3.54819e-07
0.000128256
-3.94187e-07
0.00012832
-4.35888e-07
0.000128388
-4.80115e-07
0.000128458
-5.27056e-07
0.000128531
-5.76895e-07
0.000128607
-6.298e-07
-6.85817e-07
0.000128685
0.000130917
5.94881e-09
0.000130925
1.66625e-08
0.000130937
2.51899e-08
0.000130953
3.10982e-08
0.000130973
3.42174e-08
0.000130996
3.44715e-08
0.000131022
3.18845e-08
0.00013105
2.655e-08
0.00013108
1.85953e-08
0.000131112
8.17713e-09
0.000131146
-4.54784e-09
0.00013118
-1.9425e-08
0.000131216
-3.63112e-08
0.000131253
-5.50785e-08
0.000131292
-7.56171e-08
0.000131331
-9.78388e-08
0.000131371
-1.21678e-07
0.000131413
-1.47093e-07
0.000131455
-1.74066e-07
0.0001315
-2.02604e-07
0.000131545
-2.32737e-07
0.000131593
-2.64522e-07
0.000131642
-2.98034e-07
0.000131693
-3.33372e-07
0.000131746
-3.7065e-07
0.000131801
-4.09998e-07
0.000131858
-4.51555e-07
0.000131918
-4.95463e-07
0.00013198
-5.41865e-07
0.000132043
-5.90894e-07
0.000132109
-6.42666e-07
0.000132177
-6.97284e-07
-7.54723e-07
0.000132246
0.000134658
3.44605e-09
0.000134665
9.38075e-09
0.000134677
1.34967e-08
0.000134692
1.53825e-08
0.000134712
1.49149e-08
0.000134734
1.20018e-08
0.000134759
6.66575e-09
0.000134787
-1.02614e-09
0.000134816
-1.10001e-08
0.000134848
-2.31343e-08
0.000134881
-3.73282e-08
0.000134915
-5.34784e-08
0.00013495
-7.14906e-08
0.000134986
-9.12828e-08
0.000135023
-1.12787e-07
0.000135061
-1.35954e-07
0.0001351
-1.60749e-07
0.00013514
-1.87158e-07
0.000135182
-2.15186e-07
0.000135224
-2.44856e-07
0.000135267
-2.76208e-07
0.000135312
-3.09301e-07
0.000135358
-3.44209e-07
0.000135406
-3.81018e-07
0.000135455
-4.19826e-07
0.000135506
-4.60736e-07
0.000135558
-5.03854e-07
0.000135612
-5.49284e-07
0.000135667
-5.97119e-07
0.000135724
-6.47442e-07
0.000135781
-7.00314e-07
0.00013584
-7.55781e-07
-8.13762e-07
0.000135899
0.000138505
1.02554e-09
0.000138512
2.33161e-09
0.000138523
2.16235e-09
0.000138538
9.0365e-11
0.000138557
-3.88997e-09
0.000138579
-9.93568e-09
0.000138604
-1.79915e-08
0.000138631
-2.80186e-08
0.00013866
-3.99645e-08
0.00013869
-5.3765e-08
0.000138722
-6.93632e-08
0.000138756
-8.67052e-08
0.00013879
-1.05744e-07
0.000138825
-1.26442e-07
0.000138861
-1.48771e-07
0.000138898
-1.72716e-07
0.000138935
-1.98272e-07
0.000138974
-2.25451e-07
0.000139013
-2.54274e-07
0.000139053
-2.84777e-07
0.000139093
-3.17007e-07
0.000139135
-3.51024e-07
0.000139178
-3.86894e-07
0.000139221
-4.24691e-07
0.000139266
-4.64493e-07
0.000139312
-5.06377e-07
0.000139358
-5.50417e-07
0.000139406
-5.9668e-07
0.000139454
-6.45219e-07
0.000139502
-6.96071e-07
0.000139551
-7.49251e-07
0.0001396
-8.04759e-07
-8.62472e-07
0.000139649
0.000142462
-1.34506e-09
0.000142468
-4.54279e-09
0.00014248
-8.91034e-09
0.000142494
-1.48104e-08
0.000142513
-2.22931e-08
0.000142534
-3.14016e-08
0.000142558
-4.21132e-08
0.000142585
-5.44039e-08
0.000142613
-6.82512e-08
0.000142643
-8.36347e-08
0.000142674
-1.00541e-07
0.000142706
-1.18963e-07
0.00014274
-1.38899e-07
0.000142774
-1.60351e-07
0.000142808
-1.8333e-07
0.000142843
-2.07852e-07
0.000142879
-2.33939e-07
0.000142915
-2.61624e-07
0.000142952
-2.90943e-07
0.000142989
-3.21943e-07
0.000143027
-3.54675e-07
0.000143065
-3.89194e-07
0.000143103
-4.25561e-07
0.000143143
-4.63835e-07
0.000143182
-5.04074e-07
0.000143222
-5.46332e-07
0.000143262
-5.90653e-07
0.000143303
-6.37071e-07
0.000143343
-6.85604e-07
0.000143383
-7.36252e-07
0.000143423
-7.8899e-07
0.000143462
-8.43782e-07
-9.00474e-07
0.0001435
0.000146532
-3.53983e-09
0.000146538
-1.10365e-08
0.000146549
-1.94823e-08
0.000146563
-2.92129e-08
0.000146581
-4.02096e-08
0.000146602
-5.24174e-08
0.000146626
-6.57945e-08
0.000146652
-8.03221e-08
0.000146679
-9.60066e-08
0.000146709
-1.12873e-07
0.000146739
-1.30957e-07
0.00014677
-1.50302e-07
0.000146802
-1.70952e-07
0.000146835
-1.92952e-07
0.000146868
-2.16348e-07
0.000146901
-2.41189e-07
0.000146935
-2.67521e-07
0.000146969
-2.95396e-07
0.000147003
-3.24864e-07
0.000147037
-3.55978e-07
0.000147071
-3.88791e-07
0.000147105
-4.23357e-07
0.000147139
-4.59725e-07
0.000147173
-4.97942e-07
0.000147207
-5.38047e-07
0.000147241
-5.80072e-07
0.000147274
-6.24037e-07
0.000147307
-6.69946e-07
0.000147339
-7.17788e-07
0.000147371
-7.67534e-07
0.000147401
-8.1913e-07
0.000147429
-8.72512e-07
-9.27504e-07
0.000147456
0.000150718
-5.92209e-09
0.000150725
-1.76013e-08
0.000150735
-2.99907e-08
0.000150749
-4.34023e-08
0.000150767
-5.7754e-08
0.000150787
-7.29267e-08
0.00015081
-8.88545e-08
0.000150836
-1.05517e-07
0.000150863
-1.22938e-07
0.000150891
-1.41177e-07
0.00015092
-1.60313e-07
0.00015095
-1.80431e-07
0.000150981
-2.0162e-07
0.000151012
-2.23965e-07
0.000151043
-2.47547e-07
0.000151074
-2.72442e-07
0.000151106
-2.98723e-07
0.000151137
-3.26457e-07
0.000151168
-3.55708e-07
0.000151198
-3.86534e-07
0.000151228
-4.18992e-07
0.000151258
-4.53129e-07
0.000151287
-4.88988e-07
0.000151316
-5.26604e-07
0.000151344
-5.66e-07
0.000151371
-6.0719e-07
0.000151397
-6.50171e-07
0.000151422
-6.94926e-07
0.000151446
-7.41421e-07
0.000151468
-7.89602e-07
0.000151488
-8.39395e-07
0.000151506
-8.90713e-07
-9.43372e-07
0.000151522
0.000155023
-7.28744e-09
0.000155028
-2.28566e-08
0.000155038
-3.93592e-08
0.000155051
-5.69285e-08
0.000155068
-7.50926e-08
0.000155089
-9.35253e-08
0.000155112
-1.12113e-07
0.000155138
-1.30867e-07
0.000155165
-1.49874e-07
0.000155193
-1.69265e-07
0.000155222
-1.89184e-07
0.000155251
-2.09779e-07
0.000155281
-2.31191e-07
0.00015531
-2.53547e-07
0.00015534
-2.76965e-07
0.000155369
-3.0155e-07
0.000155397
-3.27396e-07
0.000155425
-3.54585e-07
0.000155453
-3.8319e-07
0.00015548
-4.13277e-07
0.000155506
-4.449e-07
0.000155531
-4.78105e-07
0.000155554
-5.12925e-07
0.000155577
-5.49385e-07
0.000155599
-5.87496e-07
0.000155619
-6.27254e-07
0.000155637
-6.68642e-07
0.000155654
-7.11624e-07
0.000155669
-7.5615e-07
0.000155681
-8.02151e-07
0.000155691
-8.49537e-07
0.000155699
-8.9821e-07
-9.47981e-07
0.000155703
0.000159454
-1.08571e-08
0.000159461
-2.96503e-08
0.000159471
-4.92676e-08
0.000159484
-6.99762e-08
0.0001595
-9.12992e-08
0.000159519
-1.12697e-07
0.000159541
-1.33877e-07
0.000159565
-1.54751e-07
0.00015959
-1.75391e-07
0.000159617
-1.95952e-07
0.000159645
-2.16628e-07
0.000159672
-2.37619e-07
0.0001597
-2.59116e-07
0.000159728
-2.81293e-07
0.000159755
-3.04306e-07
0.000159782
-3.28293e-07
0.000159808
-3.53372e-07
0.000159833
-3.79644e-07
0.000159857
-4.07196e-07
0.00015988
-4.361e-07
0.000159902
-4.66412e-07
0.000159922
-4.98178e-07
0.00015994
-5.31427e-07
0.000159957
-5.66176e-07
0.000159972
-6.02427e-07
0.000159985
-6.40165e-07
0.000159995
-6.79361e-07
0.000160004
-7.1997e-07
0.00016001
-7.61927e-07
0.000160013
-8.05153e-07
0.000160013
-8.49552e-07
0.000160009
-8.95016e-07
-9.41359e-07
0.000160003
0.000164004
-8.24342e-09
0.000164005
-3.11909e-08
0.000164012
-5.66835e-08
0.000164026
-8.34624e-08
0.000164044
-1.09707e-07
0.000164066
-1.347e-07
0.000164091
-1.58382e-07
0.000164117
-1.80914e-07
0.000164144
-2.0256e-07
0.000164172
-2.23618e-07
0.0001642
-2.44384e-07
0.000164227
-2.65136e-07
0.000164254
-2.86125e-07
0.00016428
-3.07567e-07
0.000164306
-3.2965e-07
0.00016433
-3.52535e-07
0.000164353
-3.76355e-07
0.000164375
-4.01223e-07
0.000164395
-4.27231e-07
0.000164413
-4.54454e-07
0.000164429
-4.82949e-07
0.000164444
-5.12758e-07
0.000164457
-5.43907e-07
0.000164467
-5.76405e-07
0.000164475
-6.10246e-07
0.00016448
-6.45411e-07
0.000164482
-6.81861e-07
0.000164482
-7.19544e-07
0.000164478
-7.58391e-07
0.000164472
-7.98319e-07
0.000164461
-8.39229e-07
0.000164447
-8.81016e-07
-9.23499e-07
0.000164429
0.000168701
-1.74414e-08
0.000168709
-3.88461e-08
0.000168716
-6.36687e-08
0.000168724
-9.22074e-08
0.000168737
-1.21986e-07
0.000168753
-1.50961e-07
0.000168773
-1.7813e-07
0.000168795
-2.03336e-07
0.000168819
-2.26851e-07
0.000168845
-2.49054e-07
0.000168871
-2.7034e-07
0.000168897
-2.91086e-07
0.000168922
-3.11631e-07
0.000168947
-3.32264e-07
0.00016897
-3.53232e-07
0.000168993
-3.74738e-07
0.000169013
-3.96953e-07
0.000169032
-4.20013e-07
0.000169049
-4.44028e-07
0.000169064
-4.69085e-07
0.000169076
-4.95248e-07
0.000169086
-5.22563e-07
0.000169093
-5.51055e-07
0.000169097
-5.80734e-07
0.000169098
-6.11593e-07
0.000169097
-6.43607e-07
0.000169092
-6.76737e-07
0.000169083
-7.10929e-07
0.000169071
-7.46111e-07
0.000169055
-7.82201e-07
0.000169034
-8.19101e-07
0.00016901
-8.56706e-07
-8.94853e-07
0.000168981
0.000173492
2.26886e-09
0.000173485
-3.24008e-08
0.000173493
-7.14907e-08
0.000173512
-1.11437e-07
0.000173537
-1.472e-07
0.000173565
-1.78903e-07
0.000173594
-2.07116e-07
0.000173623
-2.32449e-07
0.000173652
-2.55535e-07
0.00017368
-2.76926e-07
0.000173707
-2.97123e-07
0.000173732
-3.16566e-07
0.000173756
-3.35624e-07
0.000173779
-3.54603e-07
0.000173799
-3.73755e-07
0.000173818
-3.93289e-07
0.000173834
-4.13376e-07
0.000173848
-4.34151e-07
0.00017386
-4.55726e-07
0.000173869
-4.78183e-07
0.000173875
-5.01586e-07
0.000173879
-5.25979e-07
0.000173879
-5.51385e-07
0.000173876
-5.77813e-07
0.00017387
-6.05253e-07
0.00017386
-6.33683e-07
0.000173846
-6.63064e-07
0.000173829
-6.93342e-07
0.000173807
-7.24454e-07
0.000173781
-7.56321e-07
0.000173751
-7.88854e-07
0.000173716
-8.21962e-07
-8.55489e-07
0.000173677
0.000178497
-2.60547e-08
0.000178497
-3.27077e-08
0.000178484
-5.88029e-08
0.000178475
-1.02267e-07
0.000178476
-1.47859e-07
0.000178487
-1.89643e-07
0.000178505
-2.25064e-07
0.000178527
-2.55056e-07
0.000178553
-2.80935e-07
0.000178579
-3.03692e-07
0.000178606
-3.24165e-07
0.000178633
-3.43059e-07
0.000178658
-3.60943e-07
0.000178682
-3.78266e-07
0.000178704
-3.95385e-07
0.000178723
-4.12581e-07
0.00017874
-4.30074e-07
0.000178753
-4.48036e-07
0.000178764
-4.66599e-07
0.000178772
-4.85863e-07
0.000178776
-5.05901e-07
0.000178777
-5.26762e-07
0.000178774
-5.48475e-07
0.000178767
-5.71051e-07
0.000178757
-5.94485e-07
0.000178742
-6.18755e-07
0.000178723
-6.43828e-07
0.000178699
-6.69656e-07
0.000178671
-6.96178e-07
0.000178638
-7.23324e-07
0.0001786
-7.51014e-07
0.000178557
-7.79161e-07
-8.07635e-07
0.000178509
0.000183487
5.44915e-08
0.000183465
-1.08543e-08
0.000183501
-9.46897e-08
0.000183548
-1.49529e-07
0.000183595
-1.9464e-07
0.000183636
-2.30622e-07
0.000183672
-2.60773e-07
0.000183703
-2.86806e-07
0.000183732
-3.09431e-07
0.000183758
-3.29425e-07
0.000183781
-3.47501e-07
0.000183802
-3.64212e-07
0.000183821
-3.79997e-07
0.000183838
-3.95211e-07
0.000183853
-4.10145e-07
0.000183865
-4.2503e-07
0.000183875
-4.40055e-07
0.000183883
-4.55368e-07
0.000183887
-4.71089e-07
0.000183889
-4.87308e-07
0.000183887
-5.04096e-07
0.000183881
-5.21503e-07
0.000183873
-5.39559e-07
0.00018386
-5.58282e-07
0.000183843
-5.77672e-07
0.000183822
-5.97719e-07
0.000183797
-6.18398e-07
0.000183767
-6.39674e-07
0.000183732
-6.61502e-07
0.000183692
-6.83827e-07
0.000183648
-7.06588e-07
0.000183598
-7.2972e-07
-7.53108e-07
0.000183544
0.00018886
6.42991e-09
0.000188793
5.61e-08
0.000188704
-5.95819e-09
0.000188638
-8.35094e-08
0.000188618
-1.74587e-07
0.000188628
-2.40609e-07
0.000188655
-2.88022e-07
0.000188692
-3.23211e-07
0.000188733
-3.50467e-07
0.000188776
-3.72372e-07
0.000188819
-3.90559e-07
0.000188861
-4.06177e-07
0.000188901
-4.20053e-07
0.000188939
-4.32786e-07
0.000188973
-4.44815e-07