/*--------------------------------*- C++ -*----------------------------------*\
| =========                 |                                                 |
| \\      /  F ield         | OpenFOAM: The Open Source CFD Toolbox           |
|  \\    /   O peration     | Version:  2.1.1                                 |
|   \\  /    A nd           | Web:      www.OpenFOAM.org                      |
|    \\/     M anipulation  |                                                 |
\*---------------------------------------------------------------------------*/
FoamFile
{
    version     2.0;
    format      ascii;
    class       volVectorField;
    location    "0.04";
    object      U;
}
// * * * * * * * * * * * * * * * * * * * * * * * * * * * * * * * * * * * * * //

dimensions      [0 1 -1 0 0 0 0];

internalField   nonuniform List<vector> 
6820
(
(8.34337 -0.360079 0)
(8.40113 -0.247171 0)
(8.35622 -0.115318 0)
(8.24806 -0.0365978 0)
(8.11982 0.00594574 0)
(7.98666 0.0277806 0)
(7.85491 0.0385207 0)
(7.72793 0.04319 0)
(7.60717 0.0444308 0)
(7.49314 0.0437005 0)
(7.3861 0.0418419 0)
(7.28604 0.0393604 0)
(7.19285 0.0365688 0)
(7.1063 0.0336644 0)
(7.02608 0.0307732 0)
(6.95184 0.0279756 0)
(6.88321 0.0253223 0)
(6.81976 0.0228452 0)
(6.7611 0.0205635 0)
(6.70678 0.0184896 0)
(6.65637 0.0166322 0)
(6.60941 0.015 0)
(6.56546 0.0136044 0)
(6.524 0.012463 0)
(6.48451 0.0116038 0)
(6.44637 0.0110719 0)
(6.40888 0.0109364 0)
(6.37112 0.0113228 0)
(6.33197 0.0124057 0)
(6.28972 0.0146105 0)
(6.24156 0.0187175 0)
(6.18458 0.0252068 0)
(6.10497 0.0474503 0)
(8.32139 0.166245 0)
(8.28709 0.189981 0)
(8.28544 0.13212 0)
(8.31742 0.0957832 0)
(8.36173 0.074918 0)
(8.40181 0.0622269 0)
(8.43293 0.0547109 0)
(8.45506 0.0501506 0)
(8.46906 0.0472056 0)
(8.47594 0.0451638 0)
(8.47674 0.0436318 0)
(8.47239 0.042374 0)
(8.46373 0.0412538 0)
(8.45148 0.0401972 0)
(8.43626 0.0391676 0)
(8.41864 0.038151 0)
(8.39909 0.0371476 0)
(8.37799 0.036166 0)
(8.3557 0.0352207 0)
(8.33249 0.0343308 0)
(8.30859 0.03352 0)
(8.28418 0.0328172 0)
(8.25938 0.0322589 0)
(8.2343 0.0318919 0)
(8.20898 0.0317795 0)
(8.18343 0.0320082 0)
(8.15763 0.0327031 0)
(8.13145 0.0340545 0)
(8.10496 0.0363355 0)
(8.07751 0.0401281 0)
(8.05108 0.0459412 0)
(8.02076 0.0564695 0)
(8.00853 0.0716902 0)
(8.3225 -0.0608915 0)
(8.31399 -0.0833048 0)
(8.33056 -0.0541368 0)
(8.34443 -0.0203619 0)
(8.35337 0.00231858 0)
(8.36248 0.0164105 0)
(8.37231 0.0256117 0)
(8.38245 0.0317877 0)
(8.39242 0.0359634 0)
(8.40182 0.0387852 0)
(8.41041 0.0406493 0)
(8.41806 0.041802 0)
(8.42469 0.0424198 0)
(8.4303 0.0426377 0)
(8.43488 0.0425597 0)
(8.43848 0.0422682 0)
(8.44113 0.04183 0)
(8.44289 0.0413013 0)
(8.44379 0.0407312 0)
(8.44388 0.0401647 0)
(8.44321 0.0396455 0)
(8.44179 0.0392192 0)
(8.43965 0.0389373 0)
(8.43678 0.0388604 0)
(8.43316 0.0390661 0)
(8.42875 0.0396542 0)
(8.4235 0.0407687 0)
(8.4173 0.0425886 0)
(8.41012 0.045449 0)
(8.4017 0.0495685 0)
(8.39251 0.0561134 0)
(8.38161 0.0637257 0)
(8.37216 0.0785557 0)
(8.33365 0.0145535 0)
(8.32979 0.0476622 0)
(8.32744 0.0538986 0)
(8.32882 0.0464627 0)
(8.33479 0.0409282 0)
(8.34242 0.0383817 0)
(8.35004 0.0375252 0)
(8.3574 0.0374313 0)
(8.36455 0.0375999 0)
(8.37144 0.037812 0)
(8.37805 0.0379709 0)
(8.38434 0.0380383 0)
(8.39031 0.0380081 0)
(8.39592 0.0378883 0)
(8.40117 0.0376931 0)
(8.40603 0.0374408 0)
(8.4105 0.037153 0)
(8.41459 0.0368541 0)
(8.41828 0.0365711 0)
(8.42157 0.0363348 0)
(8.42445 0.0361806 0)
(8.42691 0.0361508 0)
(8.42893 0.0362976 0)
(8.43048 0.0366866 0)
(8.43153 0.0374034 0)
(8.43203 0.0385599 0)
(8.43193 0.0403106 0)
(8.43116 0.0428546 0)
(8.42972 0.0464946 0)
(8.4275 0.0515522 0)
(8.42489 0.0586778 0)
(8.42154 0.0679943 0)
(8.41917 0.0812683 0)
(8.3302 -0.00532206 0)
(8.32723 -0.00754504 0)
(8.33143 -0.00253381 0)
(8.33617 0.00790876 0)
(8.34033 0.0170384 0)
(8.3446 0.023206 0)
(8.34914 0.0273359 0)
(8.35394 0.0302411 0)
(8.35893 0.0323245 0)
(8.36398 0.0338203 0)
(8.36902 0.0348763 0)
(8.37398 0.0355902 0)
(8.37883 0.0360329 0)
(8.38353 0.0362611 0)
(8.38807 0.036324 0)
(8.39243 0.0362658 0)
(8.39659 0.0361276 0)
(8.40054 0.0359486 0)
(8.40427 0.0357679 0)
(8.40777 0.0356259 0)
(8.41102 0.0355667 0)
(8.414 0.0356404 0)
(8.41669 0.0359064 0)
(8.41906 0.0364372 0)
(8.42108 0.0373247 0)
(8.42272 0.0386851 0)
(8.42395 0.0406737 0)
(8.42474 0.0434813 0)
(8.42512 0.0473859 0)
(8.4251 0.0526546 0)
(8.42494 0.059824 0)
(8.42467 0.0689408 0)
(8.42516 0.0812209 0)
(8.33239 0.00226877 0)
(8.3312 0.0132606 0)
(8.33285 0.0203096 0)
(8.33562 0.0236489 0)
(8.33915 0.0257439 0)
(8.34331 0.0274886 0)
(8.34766 0.0290982 0)
(8.35206 0.0305224 0)
(8.35647 0.031682 0)
(8.36089 0.0325682 0)
(8.36527 0.0332059 0)
(8.36959 0.0336268 0)
(8.37385 0.0338643 0)
(8.37803 0.0339536 0)
(8.3821 0.0339291 0)
(8.38606 0.0338246 0)
(8.38989 0.0336734 0)
(8.39359 0.0335091 0)
(8.39715 0.0333672 0)
(8.40054 0.0332861 0)
(8.40377 0.0333092 0)
(8.40681 0.0334868 0)
(8.40965 0.0338794 0)
(8.41227 0.034561 0)
(8.41466 0.035624 0)
(8.41679 0.0371838 0)
(8.41867 0.039389 0)
(8.42031 0.0424195 0)
(8.42176 0.0465152 0)
(8.4231 0.0519211 0)
(8.42457 0.0590175 0)
(8.42636 0.0679689 0)
(8.42901 0.079384 0)
(8.33233 0.000852695 0)
(8.33154 0.00571767 0)
(8.33347 0.0106439 0)
(8.33657 0.0153868 0)
(8.34005 0.0197094 0)
(8.34381 0.0231503 0)
(8.34769 0.0257573 0)
(8.35161 0.027727 0)
(8.35558 0.0291983 0)
(8.35957 0.0302758 0)
(8.36355 0.0310403 0)
(8.36749 0.0315517 0)
(8.37139 0.0318587 0)
(8.37522 0.0320042 0)
(8.37899 0.0320273 0)
(8.38268 0.0319647 0)
(8.38628 0.0318521 0)
(8.38978 0.0317256 0)
(8.39318 0.0316227 0)
(8.39647 0.031584 0)
(8.39964 0.031655 0)
(8.40269 0.0318878 0)
(8.4056 0.0323441 0)
(8.40837 0.0330983 0)
(8.411 0.0342409 0)
(8.41349 0.0358825 0)
(8.41586 0.03816 0)
(8.41815 0.0412348 0)
(8.42045 0.0453083 0)
(8.42287 0.050586 0)
(8.42564 0.0573426 0)
(8.42903 0.065738 0)
(8.43343 0.076091 0)
(8.33272 0.00168957 0)
(8.33257 0.00721925 0)
(8.33423 0.0124552 0)
(8.33687 0.0166525 0)
(8.33998 0.0200277 0)
(8.34347 0.02267 0)
(8.34716 0.0247442 0)
(8.35092 0.0263851 0)
(8.35471 0.0276545 0)
(8.35851 0.0286016 0)
(8.36229 0.0292759 0)
(8.36603 0.0297224 0)
(8.36973 0.0299815 0)
(8.37338 0.0300917 0)
(8.37697 0.0300893 0)
(8.3805 0.0300094 0)
(8.38396 0.0298869 0)
(8.38735 0.0297573 0)
(8.39067 0.0296577 0)
(8.39391 0.0296287 0)
(8.39707 0.0297153 0)
(8.40015 0.0299693 0)
(8.40315 0.0304511 0)
(8.40607 0.0312324 0)
(8.40894 0.0323987 0)
(8.41176 0.0340516 0)
(8.41458 0.0363127 0)
(8.41747 0.0393211 0)
(8.42052 0.0432398 0)
(8.42388 0.0482334 0)
(8.42777 0.054493 0)
(8.43247 0.0621462 0)
(8.43831 0.0713415 0)
(8.33284 0.00176384 0)
(8.33295 0.00637789 0)
(8.33448 0.0108259 0)
(8.33696 0.0146412 0)
(8.3399 0.017925 0)
(8.3432 0.0206299 0)
(8.34669 0.0227836 0)
(8.35027 0.0244711 0)
(8.35389 0.0257603 0)
(8.35754 0.0267125 0)
(8.36117 0.0273849 0)
(8.36479 0.0278267 0)
(8.36836 0.0280806 0)
(8.3719 0.0281859 0)
(8.37539 0.0281792 0)
(8.37882 0.0280955 0)
(8.38221 0.0279698 0)
(8.38555 0.0278374 0)
(8.38883 0.0277353 0)
(8.39207 0.0277037 0)
(8.39526 0.027787 0)
(8.39841 0.0280354 0)
(8.40153 0.0285068 0)
(8.40463 0.0292683 0)
(8.40775 0.030398 0)
(8.41091 0.0319864 0)
(8.41417 0.0341373 0)
(8.41761 0.0369656 0)
(8.42135 0.0405979 0)
(8.42554 0.0451572 0)
(8.43039 0.050769 0)
(8.43617 0.0575156 0)
(8.44316 0.0654418 0)
(8.33294 0.00180214 0)
(8.33325 0.00604435 0)
(8.33468 0.01018 0)
(8.33695 0.0137607 0)
(8.33968 0.0168035 0)
(8.34276 0.0192984 0)
(8.34606 0.021287 0)
(8.34948 0.0228506 0)
(8.35297 0.0240516 0)
(8.3565 0.0249413 0)
(8.36002 0.0255678 0)
(8.36354 0.0259744 0)
(8.36703 0.0262001 0)
(8.37049 0.0262815 0)
(8.37392 0.0262537 0)
(8.37731 0.0261505 0)
(8.38066 0.0260057 0)
(8.38398 0.0258536 0)
(8.38727 0.0257304 0)
(8.39054 0.0256748 0)
(8.39379 0.0257294 0)
(8.39704 0.0259415 0)
(8.4003 0.026365 0)
(8.40361 0.0270606 0)
(8.40698 0.0280973 0)
(8.41048 0.0295524 0)
(8.41416 0.0315113 0)
(8.41812 0.0340642 0)
(8.42248 0.037304 0)
(8.42739 0.0413155 0)
(8.43305 0.0461717 0)
(8.43971 0.051911 0)
(8.44759 0.0585137 0)
(8.33299 0.00176174 0)
(8.3334 0.00560555 0)
(8.33474 0.00933083 0)
(8.33684 0.012602 0)
(8.33939 0.015411 0)
(8.34228 0.0177509 0)
(8.34541 0.0196403 0)
(8.34868 0.0211334 0)
(8.35203 0.0222804 0)
(8.35543 0.0231271 0)
(8.35885 0.0237178 0)
(8.36228 0.0240935 0)
(8.36569 0.0242919 0)
(8.36909 0.0243481 0)
(8.37247 0.0242957 0)
(8.37583 0.0241675 0)
(8.37917 0.0239958 0)
(8.38249 0.0238138 0)
(8.3858 0.023656 0)
(8.38912 0.0235589 0)
(8.39245 0.0235626 0)
(8.39581 0.0237105 0)
(8.39923 0.024051 0)
(8.40274 0.0246376 0)
(8.40637 0.0255288 0)
(8.41019 0.0267881 0)
(8.41427 0.0284822 0)
(8.4187 0.0306778 0)
(8.4236 0.0334378 0)
(8.42912 0.0368131 0)
(8.43543 0.0408357 0)
(8.44278 0.0455064 0)
(8.45132 0.0507657 0)
(8.33302 0.00168002 0)
(8.33348 0.00518925 0)
(8.33475 0.00857556 0)
(8.33669 0.011583 0)
(8.33907 0.0141765 0)
(8.34178 0.0163471 0)
(8.34474 0.0181065 0)
(8.34785 0.019497 0)
(8.35107 0.0205629 0)
(8.35435 0.0213451 0)
(8.35767 0.0218831 0)
(8.36101 0.0222144 0)
(8.36435 0.0223735 0)
(8.36769 0.0223933 0)
(8.37102 0.0223053 0)
(8.37435 0.0221403 0)
(8.37768 0.0219289 0)
(8.38101 0.0217023 0)
(8.38435 0.0214927 0)
(8.38772 0.021334 0)
(8.39114 0.0212625 0)
(8.39461 0.021317 0)
(8.39818 0.0215397 0)
(8.40188 0.0219758 0)
(8.40576 0.022673 0)
(8.40987 0.0236806 0)
(8.4143 0.0250476 0)
(8.41913 0.026819 0)
(8.42448 0.029032 0)
(8.43049 0.0317089 0)
(8.43732 0.0348503 0)
(8.44515 0.0384281 0)
(8.45413 0.0423594 0)
(8.33303 0.00157398 0)
(8.33352 0.00477275 0)
(8.33471 0.00783806 0)
(8.33651 0.0105797 0)
(8.33873 0.012954 0)
(8.34128 0.0149512 0)
(8.34408 0.016578 0)
(8.34705 0.0178649 0)
(8.35013 0.0188479 0)
(8.35329 0.0195622 0)
(8.35651 0.0200429 0)
(8.35975 0.0203237 0)
(8.36302 0.0204365 0)
(8.36629 0.0204118 0)
(8.36958 0.020279 0)
(8.37288 0.0200669 0)
(8.37619 0.0198039 0)
(8.37953 0.0195187 0)
(8.3829 0.0192409 0)
(8.38632 0.019001 0)
(8.38981 0.018831 0)
(8.39339 0.0187646 0)
(8.3971 0.0188372 0)
(8.40097 0.0190851 0)
(8.40506 0.0195453 0)
(8.40942 0.0202537 0)
(8.41414 0.0212427 0)
(8.41929 0.0225385 0)
(8.425 0.0241564 0)
(8.43138 0.0260961 0)
(8.43856 0.028335 0)
(8.44671 0.0308245 0)
(8.45593 0.0334699 0)
(8.33304 0.00145525 0)
(8.33352 0.00436375 0)
(8.33465 0.00713343 0)
(8.33633 0.00962281 0)
(8.3384 0.0117855 0)
(8.34081 0.0136095 0)
(8.34345 0.0150974 0)
(8.34628 0.0162715 0)
(8.34923 0.0171615 0)
(8.35227 0.0177977 0)
(8.35538 0.0182109 0)
(8.35853 0.0184314 0)
(8.36171 0.0184883 0)
(8.36493 0.0184092 0)
(8.36817 0.0182211 0)
(8.37143 0.0179503 0)
(8.37472 0.0176228 0)
(8.37806 0.0172645 0)
(8.38145 0.0169017 0)
(8.3849 0.0165612 0)
(8.38845 0.0162704 0)
(8.39212 0.0160572 0)
(8.39594 0.01595 0)
(8.39995 0.0159765 0)
(8.40421 0.0161633 0)
(8.40877 0.0165336 0)
(8.41371 0.0171055 0)
(8.41912 0.0178891 0)
(8.42507 0.0188822 0)
(8.43169 0.0200672 0)
(8.43908 0.0214051 0)
(8.44738 0.0228345 0)
(8.45666 0.024257 0)
(8.33304 0.00133082 0)
(8.33351 0.00396306 0)
(8.33458 0.00645504 0)
(8.33614 0.00870019 0)
(8.33809 0.0106541 0)
(8.34035 0.0123032 0)
(8.34285 0.0136475 0)
(8.34554 0.0147031 0)
(8.34836 0.0154936 0)
(8.35129 0.0160448 0)
(8.35429 0.0163835 0)
(8.35735 0.0165362 0)
(8.36046 0.0165288 0)
(8.3636 0.0163865 0)
(8.36678 0.0161334 0)
(8.37001 0.0157932 0)
(8.37327 0.0153891 0)
(8.3766 0.0149439 0)
(8.37999 0.0144805 0)
(8.38347 0.0140216 0)
(8.38706 0.0135896 0)
(8.39079 0.0132067 0)
(8.39469 0.0128942 0)
(8.39881 0.0126717 0)
(8.4032 0.012556 0)
(8.4079 0.0125592 0)
(8.41299 0.0126871 0)
(8.41855 0.0129365 0)
(8.42465 0.013292 0)
(8.43139 0.0137234 0)
(8.43886 0.0141814 0)
(8.44715 0.0145973 0)
(8.45633 0.0148751 0)
(8.33304 0.00120488 0)
(8.3335 0.0035722 0)
(8.3345 0.00580177 0)
(8.33596 0.00781157 0)
(8.33779 0.00956114 0)
(8.33992 0.0110357 0)
(8.34229 0.0122333 0)
(8.34485 0.0131651 0)
(8.34755 0.0138498 0)
(8.35036 0.014309 0)
(8.35326 0.0145653 0)
(8.35622 0.0146422 0)
(8.35924 0.0145624 0)
(8.36232 0.014348 0)
(8.36544 0.0140204 0)
(8.36861 0.0136004 0)
(8.37184 0.0131082 0)
(8.37515 0.0125635 0)
(8.37853 0.0119851 0)
(8.38202 0.0113917 0)
(8.38563 0.0108009 0)
(8.38939 0.0102289 0)
(8.39335 0.00969048 0)
(8.39753 0.00919749 0)
(8.40199 0.00875803 0)
(8.40677 0.00837484 0)
(8.41195 0.00804358 0)
(8.41757 0.00775066 0)
(8.42372 0.00747101 0)
(8.43047 0.00716603 0)
(8.43788 0.00678077 0)
(8.44604 0.00624429 0)
(8.45498 0.0054661 0)
(8.33304 0.00107986 0)
(8.33347 0.00319188 0)
(8.33442 0.00517151 0)
(8.33579 0.00695376 0)
(8.33751 0.00850273 0)
(8.33952 0.0098031 0)
(8.34176 0.0108514 0)
(8.3442 0.0116551 0)
(8.34678 0.0122285 0)
(8.34948 0.0125895 0)
(8.35227 0.012757 0)
(8.35514 0.0127511 0)
(8.35808 0.0125913 0)
(8.36108 0.0122968 0)
(8.36413 0.0118861 0)
(8.36725 0.0113771 0)
(8.37044 0.0107866 0)
(8.3737 0.010131 0)
(8.37706 0.00942543 0)
(8.38054 0.00868418 0)
(8.38415 0.00792 0)
(8.38792 0.00714382 0)
(8.39189 0.00636407 0)
(8.39609 0.0055858 0)
(8.40057 0.00480964 0)
(8.40538 0.00403051 0)
(8.41056 0.00323607 0)
(8.41617 0.0024052 0)
(8.42227 0.00150624 0)
(8.42892 0.000495778 0)
(8.43617 -0.000683201 0)
(8.44409 -0.00210056 0)
(8.45267 -0.00383876 0)
(8.33304 0.000957082 0)
(8.33345 0.00282246 0)
(8.33434 0.00456267 0)
(8.33563 0.00612465 0)
(8.33724 0.00747688 0)
(8.33914 0.00860403 0)
(8.34127 0.0095014 0)
(8.34359 0.0101735 0)
(8.34606 0.0106311 0)
(8.34865 0.0108884 0)
(8.35134 0.0109611 0)
(8.35411 0.010866 0)
(8.35696 0.0106195 0)
(8.35988 0.0102378 0)
(8.36286 0.00973639 0)
(8.36592 0.00913006 0)
(8.36905 0.00843257 0)
(8.37226 0.00765668 0)
(8.37558 0.00681393 0)
(8.37902 0.00591435 0)
(8.3826 0.00496615 0)
(8.38635 0.00397519 0)
(8.3903 0.00294437 0)
(8.39448 0.00187284 0)
(8.39893 0.000755043 0)
(8.4037 -0.000420324 0)
(8.40881 -0.00167151 0)
(8.41434 -0.0030248 0)
(8.4203 -0.00451574 0)
(8.42676 -0.00618973 0)
(8.43376 -0.00810314 0)
(8.44132 -0.0103223 0)
(8.44946 -0.0129204 0)
(8.33304 0.000837238 0)
(8.33343 0.00246394 0)
(8.33426 0.00397377 0)
(8.33548 0.00532212 0)
(8.337 0.00648133 0)
(8.33879 0.00743646 0)
(8.34081 0.00818181 0)
(8.34302 0.00871956 0)
(8.34538 0.00905749 0)
(8.34786 0.00920655 0)
(8.35045 0.00917943 0)
(8.35313 0.00898958 0)
(8.35589 0.00865056 0)
(8.35872 0.00817555 0)
(8.36163 0.00757707 0)
(8.36461 0.00686678 0)
(8.36767 0.0060553 0)
(8.37082 0.00515199 0)
(8.37408 0.00416473 0)
(8.37747 0.00309966 0)
(8.38099 0.00196075 0)
(8.38469 0.000749315 0)
(8.38857 -0.000536508 0)
(8.39269 -0.0019025 0)
(8.39706 -0.00335912 0)
(8.40172 -0.00492231 0)
(8.40671 -0.0066144 0)
(8.41207 -0.0084648 0)
(8.41783 -0.0105107 0)
(8.42402 -0.0127974 0)
(8.43067 -0.0153787 0)
(8.43781 -0.0183157 0)
(8.44542 -0.021672 0)
(8.33303 0.000720621 0)
(8.3334 0.00211615 0)
(8.33419 0.00340352 0)
(8.33533 0.00454434 0)
(8.33677 0.00551426 0)
(8.33847 0.00629889 0)
(8.34038 0.00689181 0)
(8.34248 0.00729336 0)
(8.34474 0.00750871 0)
(8.34712 0.00754596 0)
(8.34961 0.00741488 0)
(8.35219 0.00712597 0)
(8.35485 0.00668986 0)
(8.35759 0.0061168 0)
(8.36041 0.00541639 0)
(8.36331 0.00459728 0)
(8.36629 0.00366697 0)
(8.36937 0.00263157 0)
(8.37255 0.00149554 0)
(8.37585 0.000261401 0)
(8.3793 -0.00107068 0)
(8.38291 -0.00250328 0)
(8.3867 -0.00404228 0)
(8.3907 -0.00569736 0)
(8.39494 -0.00748267 0)
(8.39945 -0.00941738 0)
(8.40426 -0.0115263 0)
(8.40939 -0.0138402 0)
(8.41487 -0.0163963 0)
(8.42072 -0.0192381 0)
(8.42695 -0.0224154 0)
(8.43359 -0.0259834 0)
(8.44062 -0.029996 0)
(8.33303 0.000607307 0)
(8.33338 0.00177872 0)
(8.33412 0.00285075 0)
(8.3352 0.00378967 0)
(8.33656 0.00457388 0)
(8.33816 0.00518971 0)
(8.33998 0.0056302 0)
(8.34198 0.00589421 0)
(8.34413 0.00598469 0)
(8.34641 0.00590725 0)
(8.3488 0.00566894 0)
(8.35128 0.00527753 0)
(8.35385 0.00474085 0)
(8.3565 0.00406632 0)
(8.35922 0.00326071 0)
(8.36202 0.00232977 0)
(8.36491 0.00127804 0)
(8.36789 0.000108573 0)
(8.37098 -0.00117732 0)
(8.37418 -0.00258037 0)
(8.37752 -0.00410367 0)
(8.38101 -0.00575311 0)
(8.38467 -0.00753774 0)
(8.38852 -0.00947022 0)
(8.39259 -0.0115673 0)
(8.39689 -0.01385 0)
(8.40146 -0.0163444 0)
(8.4063 -0.0190812 0)
(8.41144 -0.0220965 0)
(8.41689 -0.0254306 0)
(8.42266 -0.0291286 0)
(8.42875 -0.0332395 0)
(8.43514 -0.0378078 0)
(8.33303 0.00049726 0)
(8.33336 0.00145129 0)
(8.33406 0.00231447 0)
(8.33508 0.0030568 0)
(8.33636 0.00365903 0)
(8.33788 0.00410824 0)
(8.33961 0.00439722 0)
(8.34151 0.00452356 0)
(8.34356 0.00448834 0)
(8.34574 0.0042949 0)
(8.34803 0.00394782 0)
(8.35041 0.00345226 0)
(8.35288 0.0028134 0)
(8.35542 0.00203598 0)
(8.35805 0.00112407 0)
(8.36075 8.06799e-05 0)
(8.36353 -0.00109242 0)
(8.3664 -0.00239495 0)
(8.36937 -0.00382844 0)
(8.37245 -0.0053964 0)
(8.37565 -0.00710471 0)
(8.37899 -0.00896187 0)
(8.38248 -0.0109794 0)
(8.38614 -0.0131719 0)
(8.38999 -0.0155578 0)
(8.39405 -0.0181591 0)
(8.39832 -0.0210017 0)
(8.40283 -0.0241155 0)
(8.40758 -0.0275342 0)
(8.41259 -0.0312945 0)
(8.41784 -0.0354364 0)
(8.42334 -0.0400023 0)
(8.42907 -0.0450283 0)
(8.33303 0.000390386 0)
(8.33334 0.00113338 0)
(8.334 0.00179363 0)
(8.33496 0.00234405 0)
(8.33618 0.00276743 0)
(8.33762 0.00305166 0)
(8.33926 0.00318939 0)
(8.34107 0.00317737 0)
(8.34303 0.00301517 0)
(8.34511 0.00270418 0)
(8.34729 0.00224681 0)
(8.34957 0.00164583 0)
(8.35193 0.000903937 0)
(8.35437 2.34068e-05 0)
(8.35689 -0.000994281 0)
(8.35947 -0.00214865 0)
(8.36213 -0.00344047 0)
(8.36488 -0.00487199 0)
(8.36771 -0.00644719 0)
(8.37064 -0.00817197 0)
(8.37368 -0.0100545 0)
(8.37684 -0.0121052 0)
(8.38014 -0.0143373 0)
(8.38358 -0.0167669 0)
(8.38717 -0.0194129 0)
(8.39094 -0.0222974 0)
(8.39488 -0.0254457 0)
(8.39902 -0.0288857 0)
(8.40334 -0.0326482 0)
(8.40785 -0.0367661 0)
(8.41255 -0.0412739 0)
(8.41744 -0.0462078 0)
(8.42248 -0.051596 0)
(8.33303 0.000286596 0)
(8.33332 0.000824788 0)
(8.33395 0.00128807 0)
(8.33485 0.00165187 0)
(8.336 0.00190107 0)
(8.33737 0.00202429 0)
(8.33893 0.00201429 0)
(8.34065 0.00186702 0)
(8.34251 0.0015804 0)
(8.3445 0.00115419 0)
(8.34658 0.000588661 0)
(8.34876 -0.000115637 0)
(8.35101 -0.000958271 0)
(8.35334 -0.00193928 0)
(8.35574 -0.00305952 0)
(8.3582 -0.00432076 0)
(8.36073 -0.00572603 0)
(8.36333 -0.00727975 0)
(8.36601 -0.00898793 0)
(8.36878 -0.0108584 0)
(8.37163 -0.012901 0)
(8.37459 -0.0151276 0)
(8.37766 -0.0175525 0)
(8.38084 -0.0201923 0)
(8.38415 -0.0230661 0)
(8.38759 -0.0261953 0)
(8.39117 -0.0296036 0)
(8.39489 -0.0333167 0)
(8.39875 -0.0373622 0)
(8.40275 -0.0417687 0)
(8.40688 -0.0465657 0)
(8.41112 -0.0517832 0)
(8.41546 -0.0574429 0)
(8.33303 0.000185744 0)
(8.3333 0.00052466 0)
(8.33389 0.000795147 0)
(8.33475 0.000974256 0)
(8.33584 0.00104944 0)
(8.33714 0.00100999 0)
(8.33862 0.000849324 0)
(8.34026 0.000563351 0)
(8.34203 0.000149709 0)
(8.34392 -0.000393642 0)
(8.3459 -0.00106817 0)
(8.34798 -0.00187528 0)
(8.35012 -0.00281667 0)
(8.35233 -0.00389461 0)
(8.3546 -0.00511211 0)
(8.35693 -0.00647312 0)
(8.35932 -0.0079827 0)
(8.36176 -0.00964722 0)
(8.36428 -0.0114744 0)
(8.36685 -0.0134738 0)
(8.3695 -0.0156563 0)
(8.37223 -0.0180348 0)
(8.37505 -0.0206243 0)
(8.37795 -0.0234412 0)
(8.38094 -0.0265042 0)
(8.38403 -0.0298336 0)
(8.38722 -0.0334511 0)
(8.3905 -0.03738 0)
(8.39388 -0.0416444 0)
(8.39734 -0.0462687 0)
(8.40088 -0.0512776 0)
(8.40448 -0.0566956 0)
(8.40811 -0.0625384 0)
(8.33302 8.80252e-05 0)
(8.33328 0.000234893 0)
(8.33384 0.000321431 0)
(8.33465 0.000327562 0)
(8.33568 0.000239502 0)
(8.33691 4.96952e-05 0)
(8.33832 -0.000248936 0)
(8.33988 -0.000661569 0)
(8.34156 -0.00119183 0)
(8.34336 -0.0018433 0)
(8.34525 -0.00261904 0)
(8.34722 -0.00352215 0)
(8.34925 -0.00455612 0)
(8.35134 -0.00572498 0)
(8.35348 -0.00703345 0)
(8.35567 -0.00848713 0)
(8.3579 -0.0100926 0)
(8.36018 -0.0118578 0)
(8.36251 -0.0137915 0)
(8.36488 -0.0159044 0)
(8.36731 -0.0182081 0)
(8.36979 -0.0207161 0)
(8.37233 -0.0234431 0)
(8.37493 -0.0264054 0)
(8.37759 -0.0296205 0)
(8.3803 -0.0331073 0)
(8.38308 -0.0368854 0)
(8.3859 -0.0409753 0)
(8.38878 -0.0453977 0)
(8.39169 -0.0501732 0)
(8.39463 -0.0553218 0)
(8.39758 -0.0608632 0)
(8.40052 -0.0668079 0)
(8.33302 -7.4025e-06 0)
(8.33327 -5.15289e-05 0)
(8.3338 -0.000155076 0)
(8.33457 -0.000336644 0)
(8.33554 -0.000606201 0)
(8.33671 -0.000967108 0)
(8.33805 -0.00142332 0)
(8.33954 -0.00197862 0)
(8.34114 -0.00263711 0)
(8.34284 -0.003403 0)
(8.34463 -0.00428109 0)
(8.34649 -0.00527667 0)
(8.34841 -0.00639546 0)
(8.35037 -0.0076437 0)
(8.35237 -0.00902823 0)
(8.35441 -0.0105566 0)
(8.35648 -0.0122372 0)
(8.35858 -0.0140792 0)
(8.36071 -0.0160929 0)
(8.36287 -0.0182896 0)
(8.36506 -0.0206816 0)
(8.36728 -0.0232824 0)
(8.36953 -0.0261066 0)
(8.3718 -0.0291697 0)
(8.37411 -0.0324881 0)
(8.37643 -0.0360787 0)
(8.37878 -0.0399592 0)
(8.38114 -0.044147 0)
(8.38351 -0.0486598 0)
(8.38586 -0.0535143 0)
(8.38821 -0.0587266 0)
(8.39051 -0.0643119 0)
(8.39277 -0.0702764 0)
(8.33302 -9.71481e-05 0)
(8.33324 -0.000310422 0)
(8.33373 -0.00056841 0)
(8.33445 -0.000891127 0)
(8.33537 -0.00128801 0)
(8.33648 -0.00176767 0)
(8.33776 -0.00233612 0)
(8.33917 -0.00299808 0)
(8.34071 -0.00375792 0)
(8.34233 -0.00462021 0)
(8.34403 -0.00559004 0)
(8.34579 -0.00667301 0)
(8.34759 -0.00787535 0)
(8.34944 -0.00920392 0)
(8.3513 -0.0106663 0)
(8.35319 -0.0122707 0)
(8.35509 -0.0140262 0)
(8.35701 -0.0159428 0)
(8.35894 -0.0180311 0)
(8.36087 -0.0203026 0)
(8.36281 -0.0227698 0)
(8.36475 -0.0254459 0)
(8.36669 -0.0283448 0)
(8.36863 -0.0314811 0)
(8.37057 -0.0348697 0)
(8.3725 -0.0385259 0)
(8.37441 -0.0424649 0)
(8.37629 -0.0467018 0)
(8.37815 -0.0512511 0)
(8.37996 -0.0561263 0)
(8.38171 -0.0613399 0)
(8.38338 -0.0669036 0)
(8.38497 -0.0728201 0)
(8.33302 -0.000192645 0)
(8.33325 -0.000617827 0)
(8.33373 -0.00111163 0)
(8.33442 -0.00168104 0)
(8.3353 -0.0023171 0)
(8.33635 -0.00301299 0)
(8.33756 -0.00376754 0)
(8.3389 -0.00458406 0)
(8.34035 -0.00546897 0)
(8.34188 -0.00643056 0)
(8.34348 -0.00747814 0)
(8.34512 -0.00862153 0)
(8.34681 -0.00987076 0)
(8.34851 -0.011236 0)
(8.35024 -0.0127277 0)
(8.35196 -0.0143562 0)
(8.35369 -0.0161323 0)
(8.35542 -0.0180672 0)
(8.35713 -0.0201725 0)
(8.35883 -0.0224599 0)
(8.36051 -0.0249421 0)
(8.36217 -0.0276317 0)
(8.3638 -0.0305419 0)
(8.3654 -0.033686 0)
(8.36697 -0.0370775 0)
(8.36849 -0.0407297 0)
(8.36997 -0.0446557 0)
(8.37138 -0.0488679 0)
(8.37273 -0.0533779 0)
(8.374 -0.0581964 0)
(8.37517 -0.0633327 0)
(8.37624 -0.0687949 0)
(8.37719 -0.0745832 0)
(8.33301 -0.000248546 0)
(8.33316 -0.00072838 0)
(8.33355 -0.00123283 0)
(8.33417 -0.00180299 0)
(8.335 -0.00245516 0)
(8.33602 -0.00319301 0)
(8.33721 -0.00401511 0)
(8.33852 -0.0049191 0)
(8.33994 -0.00590442 0)
(8.34142 -0.00697304 0)
(8.34295 -0.00812919 0)
(8.34452 -0.00937887 0)
(8.34611 -0.0107295 0)
(8.3477 -0.0121895 0)
(8.34929 -0.0137683 0)
(8.35087 -0.0154759 0)
(8.35242 -0.0173228 0)
(8.35395 -0.0193202 0)
(8.35544 -0.0214794 0)
(8.3569 -0.0238124 0)
(8.35832 -0.0263312 0)
(8.35969 -0.0290481 0)
(8.36101 -0.0319756 0)
(8.36226 -0.0351259 0)
(8.36346 -0.0385113 0)
(8.36457 -0.0421435 0)
(8.36561 -0.0460337 0)
(8.36656 -0.0501924 0)
(8.36741 -0.054629 0)
(8.36815 -0.0593519 0)
(8.36876 -0.0643677 0)
(8.36924 -0.0696825 0)
(8.36957 -0.0752943 0)
(8.33305 -0.000416998 0)
(8.33332 -0.00134858 0)
(8.33376 -0.00238564 0)
(8.33436 -0.00347133 0)
(8.33512 -0.00455214 0)
(8.33605 -0.00560933 0)
(8.33712 -0.00664785 0)
(8.33832 -0.00768221 0)
(8.33962 -0.00873043 0)
(8.34099 -0.00981143 0)
(8.34241 -0.0109435 0)
(8.34385 -0.0121439 0)
(8.34532 -0.0134283 0)
(8.34677 -0.0148113 0)
(8.34822 -0.0163066 0)
(8.34963 -0.0179269 0)
(8.35101 -0.0196845 0)
(8.35235 -0.0215915 0)
(8.35363 -0.0236593 0)
(8.35486 -0.0258995 0)
(8.35602 -0.0283235 0)
(8.35711 -0.0309424 0)
(8.35812 -0.0337672 0)
(8.35904 -0.0368086 0)
(8.35987 -0.0400768 0)
(8.3606 -0.0435816 0)
(8.36122 -0.0473318 0)
(8.36172 -0.0513357 0)
(8.3621 -0.0556003 0)
(8.36233 -0.0601312 0)
(8.36241 -0.0649331 0)
(8.36233 -0.0700092 0)
(8.36208 -0.0753559 0)
(8.33294 -0.000213034 0)
(8.33285 -0.0005553 0)
(8.33305 -0.000970496 0)
(8.33359 -0.00159911 0)
(8.33441 -0.0024443 0)
(8.33545 -0.00345669 0)
(8.33665 -0.00458779 0)
(8.33794 -0.00580338 0)
(8.33931 -0.00708385 0)
(8.34071 -0.00842038 0)
(8.34212 -0.00981174 0)
(8.34353 -0.011262 0)
(8.34492 -0.0127787 0)
(8.34627 -0.0143717 0)
(8.34759 -0.016052 0)
(8.34885 -0.0178315 0)
(8.35005 -0.0197224 0)
(8.35118 -0.0217371 0)
(8.35224 -0.0238877 0)
(8.35322 -0.0261865 0)
(8.35411 -0.0286454 0)
(8.3549 -0.0312758 0)
(8.35559 -0.0340888 0)
(8.35617 -0.037095 0)
(8.35663 -0.0403043 0)
(8.35697 -0.0437257 0)
(8.35717 -0.0473675 0)
(8.35722 -0.0512368 0)
(8.35713 -0.0553396 0)
(8.35687 -0.0596806 0)
(8.35643 -0.0642631 0)
(8.35582 -0.0690896 0)
(8.35501 -0.0741559 0)
(8.33316 -0.000877912 0)
(8.33365 -0.00298169 0)
(8.33401 -0.0051438 0)
(8.33436 -0.00707401 0)
(8.33486 -0.00869375 0)
(8.33556 -0.0100567 0)
(8.33646 -0.0112382 0)
(8.33751 -0.0123039 0)
(8.33868 -0.0133087 0)
(8.33991 -0.0142976 0)
(8.34119 -0.0153062 0)
(8.34248 -0.016363 0)
(8.34375 -0.0174906 0)
(8.345 -0.0187074 0)
(8.34619 -0.0200287 0)
(8.34733 -0.0214678 0)
(8.34839 -0.0230362 0)
(8.34936 -0.0247447 0)
(8.35025 -0.0266031 0)
(8.35102 -0.0286208 0)
(8.35169 -0.0308066 0)
(8.35224 -0.033169 0)
(8.35266 -0.0357159 0)
(8.35295 -0.0384549 0)
(8.35309 -0.041393 0)
(8.35308 -0.0445362 0)
(8.35291 -0.04789 0)
(8.35258 -0.0514589 0)
(8.35207 -0.0552464 0)
(8.35137 -0.059255 0)
(8.35048 -0.0634856 0)
(8.34938 -0.0679387 0)
(8.34808 -0.0726088 0)
(8.33264 0.000488951 0)
(8.33177 0.00170382 0)
(8.33173 0.00230777 0)
(8.33245 0.00189757 0)
(8.33359 0.000746158 0)
(8.33489 -0.000814631 0)
(8.33628 -0.00256925 0)
(8.33768 -0.004402 0)
(8.33907 -0.00625268 0)
(8.34044 -0.00809159 0)
(8.34175 -0.00990945 0)
(8.34301 -0.01171 0)
(8.3442 -0.0135041 0)
(8.34532 -0.0153064 0)
(8.34635 -0.017133 0)
(8.34729 -0.0190007 0)
(8.34813 -0.0209259 0)
(8.34887 -0.0229244 0)
(8.34949 -0.0250111 0)
(8.34999 -0.0272001 0)
(8.35036 -0.0295043 0)
(8.3506 -0.0319358 0)
(8.35069 -0.0345057 0)
(8.35063 -0.037224 0)
(8.35041 -0.0400994 0)
(8.35003 -0.04314 0)
(8.34946 -0.0463524 0)
(8.34872 -0.0497422 0)
(8.34778 -0.0533136 0)
(8.34664 -0.0570697 0)
(8.34529 -0.0610124 0)
(8.34373 -0.0651426 0)
(8.34196 -0.069456 0)
(8.33357 -0.00206347 0)
(8.33457 -0.00721674 0)
(8.33421 -0.0122495 0)
(8.33346 -0.0155837 0)
(8.33319 -0.0175923 0)
(8.33349 -0.0188465 0)
(8.33419 -0.0196517 0)
(8.33516 -0.020205 0)
(8.3363 -0.0206443 0)
(8.33754 -0.0210606 0)
(8.3388 -0.0215126 0)
(8.34006 -0.0220389 0)
(8.34128 -0.0226638 0)
(8.34243 -0.0234035 0)
(8.34349 -0.0242689 0)
(8.34445 -0.0252677 0)
(8.34529 -0.0264058 0)
(8.34601 -0.0276881 0)
(8.34659 -0.0291188 0)
(8.34703 -0.0307019 0)
(8.34731 -0.0324414 0)
(8.34743 -0.0343409 0)
(8.34738 -0.0364041 0)
(8.34716 -0.0386341 0)
(8.34675 -0.041034 0)
(8.34616 -0.0436063 0)
(8.34536 -0.0463531 0)
(8.34436 -0.0492757 0)
(8.34315 -0.0523748 0)
(8.34172 -0.0556503 0)
(8.34007 -0.0591012 0)
(8.33819 -0.062726 0)
(8.33608 -0.0665186 0)
(8.33163 0.00362489 0)
(8.32828 0.0100308 0)
(8.32847 0.0130564 0)
(8.33092 0.0128328 0)
(8.33328 0.010519 0)
(8.33524 0.00741831 0)
(8.33696 0.0041442 0)
(8.33848 0.000921633 0)
(8.33985 -0.00214167 0)
(8.34107 -0.00500138 0)
(8.34218 -0.00765679 0)
(8.34319 -0.0101286 0)
(8.3441 -0.0124459 0)
(8.34492 -0.0146405 0)
(8.34564 -0.016744 0)
(8.34626 -0.0187861 0)
(8.34678 -0.0207939 0)
(8.34717 -0.0227919 0)
(8.34744 -0.0248017 0)
(8.34758 -0.0268426 0)
(8.34757 -0.0289318 0)
(8.34742 -0.0310842 0)
(8.3471 -0.033313 0)
(8.34661 -0.0356297 0)
(8.34594 -0.0380443 0)
(8.34509 -0.0405651 0)
(8.34403 -0.0431994 0)
(8.34278 -0.0459529 0)
(8.34131 -0.0488303 0)
(8.33963 -0.0518349 0)
(8.33773 -0.0549689 0)
(8.3356 -0.0582337 0)
(8.33325 -0.0616267 0)
(8.33429 -0.00650244 0)
(8.33455 -0.0209108 0)
(8.33054 -0.0303121 0)
(8.32639 -0.0345446 0)
(8.32438 -0.0356071 0)
(8.32437 -0.0352585 0)
(8.32535 -0.0343164 0)
(8.32682 -0.0331665 0)
(8.32856 -0.0320362 0)
(8.33044 -0.0310485 0)
(8.33235 -0.0302592 0)
(8.33424 -0.0296891 0)
(8.33606 -0.0293416 0)
(8.33778 -0.0292107 0)
(8.33938 -0.0292867 0)
(8.34084 -0.0295587 0)
(8.34215 -0.030016 0)
(8.34331 -0.0306493 0)
(8.34429 -0.0314504 0)
(8.3451 -0.0324128 0)
(8.34572 -0.0335312 0)
(8.34615 -0.0348012 0)
(8.34637 -0.0362198 0)
(8.34639 -0.0377841 0)
(8.3462 -0.0394922 0)
(8.34579 -0.0413422 0)
(8.34515 -0.0433324 0)
(8.34428 -0.0454611 0)
(8.34318 -0.0477265 0)
(8.34184 -0.0501265 0)
(8.34025 -0.0526586 0)
(8.33842 -0.0553204 0)
(8.33635 -0.0581057 0)
(8.32884 0.022561 0)
(8.32233 0.0426645 0)
(8.32662 0.0438399 0)
(8.33317 0.0378171 0)
(8.33748 0.0304267 0)
(8.34005 0.0231679 0)
(8.34209 0.0163739 0)
(8.34399 0.0102401 0)
(8.34587 0.00482171 0)
(8.34778 6.8874e-05 0)
(8.34974 -0.00409988 0)
(8.35175 -0.0077686 0)
(8.35378 -0.0110178 0)
(8.35581 -0.0139213 0)
(8.35781 -0.0165439 0)
(8.35976 -0.0189415 0)
(8.36162 -0.0211623 0)
(8.36339 -0.0232473 0)
(8.36503 -0.0252315 0)
(8.36654 -0.0271448 0)
(8.3679 -0.0290128 0)
(8.36909 -0.0308574 0)
(8.37011 -0.0326972 0)
(8.37094 -0.0345485 0)
(8.37157 -0.036425 0)
(8.37201 -0.0383385 0)
(8.37224 -0.0402993 0)
(8.37226 -0.0423157 0)
(8.37207 -0.044395 0)
(8.37166 -0.0465432 0)
(8.37103 -0.0487652 0)
(8.37018 -0.0510653 0)
(8.36913 -0.0534446 0)
(8.32436 -0.0380683 0)
(8.29383 -0.0684465 0)
(8.27201 -0.0719469 0)
(8.26655 -0.0690011 0)
(8.27351 -0.0648529 0)
(8.28619 -0.060195 0)
(8.30099 -0.0556752 0)
(8.31635 -0.0516779 0)
(8.33143 -0.0482702 0)
(8.34577 -0.045431 0)
(8.35916 -0.0431198 0)
(8.37155 -0.0412816 0)
(8.38295 -0.0398578 0)
(8.39339 -0.0387949 0)
(8.40293 -0.0380462 0)
(8.41165 -0.0375719 0)
(8.41959 -0.0373388 0)
(8.42683 -0.0373197 0)
(8.43341 -0.0374923 0)
(8.43938 -0.0378388 0)
(8.4448 -0.0383445 0)
(8.44969 -0.0389981 0)
(8.4541 -0.03979 0)
(8.45804 -0.040713 0)
(8.46156 -0.0417609 0)
(8.46467 -0.0429288 0)
(8.46739 -0.0442125 0)
(8.46975 -0.0456085 0)
(8.47174 -0.0471138 0)
(8.47339 -0.0487253 0)
(8.47471 -0.0504407 0)
(8.4757 -0.0522567 0)
(8.47638 -0.0541702 0)
(8.34002 0.156973 0)
(8.38193 0.14896 0)
(8.40238 0.10327 0)
(8.39905 0.0643637 0)