/*--------------------------------*- C++ -*----------------------------------*\
| =========                 |                                                 |
| \\      /  F ield         | OpenFOAM: The Open Source CFD Toolbox           |
|  \\    /   O peration     | Version:  2.1.1                                 |
|   \\  /    A nd           | Web:      www.OpenFOAM.org                      |
|    \\/     M anipulation  |                                                 |
\*---------------------------------------------------------------------------*/
FoamFile
{
    version     2.0;
    format      ascii;
    class       volScalarField;
    location    "0.01";
    object      nuSgs;
}
// * * * * * * * * * * * * * * * * * * * * * * * * * * * * * * * * * * * * * //

dimensions      [0 2 -1 0 0 0 0];

internalField   nonuniform List<scalar> 
6820
(
0.000556012
0.000457561
0.000368646
0.000307142
0.000270574
0.000245715
0.000227755
0.000214376
0.000203933
0.000195533
0.00018868
0.000183051
0.000178438
0.000174727
0.000171799
0.000169544
0.00016783
0.000166517
0.000165477
0.000164608
0.000163854
0.000163199
0.000162661
0.000162286
0.000162134
0.000162271
0.000162765
0.000163691
0.000165125
0.000167192
0.00016999
0.000173536
0.000175923
0.000103446
0.000170522
0.000223426
0.000239815
0.000235194
0.000225055
0.000213677
0.000202802
0.000193077
0.000184529
0.000177048
0.000170491
0.000164747
0.000159699
0.000155241
0.000151278
0.000147716
0.000144473
0.000141482
0.000138683
0.000136028
0.000133472
0.000130981
0.000128525
0.000126082
0.000123635
0.000121168
0.000118655
0.000116087
0.00011331
0.000110448
0.000106405
0.000102389
3.67781e-05
2.85273e-05
4.53071e-05
8.16205e-05
0.000106892
0.000122124
0.000130202
0.000133717
0.000134493
0.000133596
0.00013166
0.000129079
0.000126091
0.000122826
0.000119366
0.000115773
0.000112119
0.000108471
0.000104883
0.000101389
9.79994e-05
9.47003e-05
9.14536e-05
8.82056e-05
8.48952e-05
8.14623e-05
7.7855e-05
7.40274e-05
6.99442e-05
6.55305e-05
6.07372e-05
5.52491e-05
4.89699e-05
2.07311e-05
2.87369e-05
2.67073e-05
1.54528e-05
3.81603e-06
1.25741e-05
2.36829e-05
3.26624e-05
3.95957e-05
4.47483e-05
4.83866e-05
5.07458e-05
5.2017e-05
5.23838e-05
5.19905e-05
5.09782e-05
4.94877e-05
4.76551e-05
4.56009e-05
4.3425e-05
4.12022e-05
3.8979e-05
3.67729e-05
3.45753e-05
3.23574e-05
3.0079e-05
2.76984e-05
2.51766e-05
2.24879e-05
1.96029e-05
1.65129e-05
1.32601e-05
9.86502e-06
1.44004e-05
1.76489e-05
2.26688e-05
2.43627e-05
2.40878e-05
2.22587e-05
1.9641e-05
1.67955e-05
1.39732e-05
1.13372e-05
9.00295e-06
7.03982e-06
5.47641e-06
4.32229e-06
3.51729e-06
2.98272e-06
2.67347e-06
2.54384e-06
2.55466e-06
2.67461e-06
2.87566e-06
3.12862e-06
3.40349e-06
3.67406e-06
3.92366e-06
4.14902e-06
4.35943e-06
4.57473e-06
4.81623e-06
5.10898e-06
5.45967e-06
5.82047e-06
6.17133e-06
1.08914e-05
1.25643e-05
1.39267e-05
1.44235e-05
1.51647e-05
1.57412e-05
1.60478e-05
1.61866e-05
1.61704e-05
1.60107e-05
1.57351e-05
1.5367e-05
1.49247e-05
1.44196e-05
1.38668e-05
1.32844e-05
1.26823e-05
1.2077e-05
1.14881e-05
1.09335e-05
1.04261e-05
9.97103e-06
9.56511e-06
9.19845e-06
8.85778e-06
8.53103e-06
8.21126e-06
7.90019e-06
7.60632e-06
7.34151e-06
7.10776e-06
6.86386e-06
6.5833e-06
8.20491e-06
9.48484e-06
1.03643e-05
1.01941e-05
1.00193e-05
9.83939e-06
9.63445e-06
9.50407e-06
9.43416e-06
9.37646e-06
9.29941e-06
9.17959e-06
9.00251e-06
8.7567e-06
8.44853e-06
8.09716e-06
7.72274e-06
7.34835e-06
6.99472e-06
6.67771e-06
6.40581e-06
6.17936e-06
5.99276e-06
5.83856e-06
5.71129e-06
5.60979e-06
5.53702e-06
5.49822e-06
5.49624e-06
5.52612e-06
5.571e-06
5.58543e-06
5.54874e-06
6.31025e-06
7.4547e-06
8.32758e-06
8.23073e-06
7.95283e-06
7.64438e-06
7.29724e-06
7.00143e-06
6.77309e-06
6.58754e-06
6.42729e-06
6.27859e-06
6.12801e-06
5.96631e-06
5.78947e-06
5.59838e-06
5.40188e-06
5.21245e-06
5.04182e-06
4.89793e-06
4.78296e-06
4.69415e-06
4.62702e-06
4.57932e-06
4.55336e-06
4.55581e-06
4.59476e-06
4.6753e-06
4.79495e-06
4.94027e-06
5.0882e-06
5.20088e-06
5.26379e-06
4.93948e-06
5.89153e-06
6.64579e-06
6.68411e-06
6.55186e-06
6.37892e-06
6.13186e-06
5.8834e-06
5.67126e-06
5.48971e-06
5.33103e-06
5.18806e-06
5.05272e-06
4.91821e-06
4.77857e-06
4.63369e-06
4.48923e-06
4.35435e-06
4.23725e-06
4.14242e-06
4.07015e-06
4.01823e-06
3.98516e-06
3.97288e-06
3.98751e-06
4.0375e-06
4.12982e-06
4.26575e-06
4.43792e-06
4.62957e-06
4.81789e-06
4.97444e-06
5.0912e-06
3.9242e-06
4.72613e-06
5.40315e-06
5.52404e-06
5.46094e-06
5.34909e-06
5.16872e-06
4.97554e-06
4.80696e-06
4.66065e-06
4.52972e-06
4.40927e-06
4.29348e-06
4.17802e-06
4.06162e-06
3.94618e-06
3.83725e-06
3.7416e-06
3.66403e-06
3.60603e-06
3.56648e-06
3.54389e-06
3.53908e-06
3.55681e-06
3.60509e-06
3.69233e-06
3.82342e-06
3.99635e-06
4.20074e-06
4.41911e-06
4.63054e-06
4.81397e-06
4.9651e-06
3.15584e-06
3.83924e-06
4.44749e-06
4.6136e-06
4.6026e-06
4.54314e-06
4.42218e-06
4.27709e-06
4.14227e-06
4.02101e-06
3.91018e-06
3.80798e-06
3.71146e-06
3.61844e-06
3.52874e-06
3.44414e-06
3.36841e-06
3.30558e-06
3.25787e-06
3.22516e-06
3.20629e-06
3.2013e-06
3.21355e-06
3.25013e-06
3.32024e-06
3.43181e-06
3.58781e-06
3.78384e-06
4.0078e-06
4.24232e-06
4.4683e-06
4.66931e-06
4.84291e-06
2.56137e-06
3.14979e-06
3.70514e-06
3.9086e-06
3.94568e-06
3.92704e-06
3.84782e-06
3.73677e-06
3.62679e-06
3.52558e-06
3.43241e-06
3.34666e-06
3.26716e-06
3.19281e-06
3.1239e-06
3.06269e-06
3.01221e-06
2.9748e-06
2.95087e-06
2.93915e-06
2.93845e-06
2.9499e-06
2.97842e-06
3.03236e-06
3.12111e-06
3.25158e-06
3.42496e-06
3.63506e-06
3.86888e-06
4.10963e-06
4.33999e-06
4.54688e-06
4.72857e-06
2.09125e-06
2.60595e-06
3.12008e-06
3.34883e-06
3.42225e-06
3.4352e-06
3.39103e-06
3.31238e-06
3.228e-06
3.14741e-06
3.07173e-06
3.00184e-06
2.93816e-06
2.88081e-06
2.83098e-06
2.79055e-06
2.76119e-06
2.74341e-06
2.7361e-06
2.73744e-06
2.74688e-06
2.76707e-06
2.80455e-06
2.86867e-06
2.96876e-06
3.11067e-06
3.29396e-06
3.51101e-06
3.7482e-06
3.98924e-06
4.21823e-06
4.42431e-06
4.60604e-06
1.71192e-06
2.17052e-06
2.65187e-06
2.89882e-06
3.00261e-06
3.0427e-06
3.02739e-06
2.97523e-06
2.91146e-06
2.84718e-06
2.78549e-06
2.72854e-06
2.67778e-06
2.63425e-06
2.59931e-06
2.57446e-06
2.56049e-06
2.55684e-06
2.56165e-06
2.57306e-06
2.59119e-06
2.61975e-06
2.6662e-06
2.74019e-06
2.85047e-06
3.00157e-06
3.19153e-06
3.41154e-06
3.6476e-06
3.88401e-06
4.10615e-06
4.30509e-06
4.47941e-06
1.40002e-06
1.81756e-06
2.27313e-06
2.53303e-06
2.66064e-06
2.72213e-06
2.72938e-06
2.69903e-06
2.6534e-06
2.60422e-06
2.55591e-06
2.51138e-06
2.47285e-06
2.44195e-06
2.42018e-06
2.40862e-06
2.40722e-06
2.41445e-06
2.42788e-06
2.44579e-06
2.4691e-06
2.50263e-06
2.55474e-06
2.63525e-06
2.75227e-06
2.90905e-06
3.10218e-06
3.32173e-06
3.55335e-06
3.78182e-06
3.99371e-06
4.18174e-06
4.34452e-06
1.13905e-06
1.52861e-06
1.96408e-06
2.23285e-06
2.37909e-06
2.45802e-06
2.48363e-06
2.47134e-06
2.44088e-06
2.40414e-06
2.36658e-06
2.33186e-06
2.30285e-06
2.28164e-06
2.26974e-06
2.26787e-06
2.27535e-06
2.29009e-06
2.30951e-06
2.33225e-06
2.36002e-06
2.39848e-06
2.45647e-06
2.54361e-06
2.66705e-06
2.82865e-06
3.02353e-06
3.24077e-06
3.46574e-06
3.68377e-06
3.88269e-06
4.05684e-06
4.20493e-06
9.17262e-07
1.29056e-06
1.71074e-06
1.98531e-06
2.14567e-06
2.2382e-06
2.27793e-06
2.27964e-06
2.26122e-06
2.23451e-06
2.2058e-06
2.17935e-06
2.15844e-06
2.1454e-06
2.14174e-06
2.14777e-06
2.16231e-06
2.18284e-06
2.2067e-06
2.23293e-06
2.26399e-06
2.3063e-06
2.36909e-06
2.46167e-06
2.59023e-06
2.75517e-06
2.9502e-06
3.16341e-06
3.37995e-06
3.58576e-06
3.76992e-06
3.92845e-06
4.06033e-06
7.26388e-07
1.09436e-06
1.50322e-06
1.78101e-06
1.95156e-06
2.05428e-06
2.10457e-06
2.11688e-06
2.10764e-06
2.0885e-06
2.06631e-06
2.04584e-06
2.03071e-06
2.02346e-06
2.02555e-06
2.03707e-06
2.05644e-06
2.08092e-06
2.10792e-06
2.13696e-06
2.17118e-06
2.21759e-06
2.28557e-06
2.38391e-06
2.51763e-06
2.68564e-06
2.8802e-06
3.08851e-06
3.29561e-06
3.48811e-06
3.6565e-06
3.79853e-06
3.91352e-06
5.61186e-07
9.34224e-07
1.33462e-06
1.61337e-06
1.79061e-06
1.9003e-06
1.95779e-06
1.97725e-06
1.97407e-06
1.9597e-06
1.94152e-06
1.92476e-06
1.91334e-06
1.91002e-06
1.91621e-06
1.93177e-06
1.95482e-06
1.98243e-06
2.01211e-06
2.04377e-06
2.08115e-06
2.13175e-06
2.20494e-06
2.30893e-06
2.4475e-06
2.61805e-06
2.81146e-06
3.01407e-06
3.21093e-06
3.38944e-06
3.54157e-06
3.66687e-06
3.76517e-06
4.19989e-07
8.07229e-07
1.20038e-06
1.47781e-06
1.65848e-06
1.77213e-06
1.83364e-06
1.85697e-06
1.85675e-06
1.84435e-06
1.82752e-06
1.81197e-06
1.80195e-06
1.8004e-06
1.80878e-06
1.82678e-06
1.85231e-06
1.88229e-06
1.91433e-06
1.94874e-06
1.98975e-06
2.04516e-06
2.12422e-06
2.23434e-06
2.378e-06
2.55107e-06
2.74309e-06
2.93967e-06
3.12599e-06
3.29036e-06
3.42634e-06
3.53533e-06
3.61774e-06
3.07674e-07
7.1298e-07
1.09769e-06
1.37128e-06
1.5523e-06
1.66696e-06
1.7294e-06
1.7533e-06
1.75279e-06
1.73918e-06
1.72068e-06
1.70349e-06
1.69231e-06
1.69037e-06
1.69923e-06
1.71847e-06
1.74578e-06
1.77795e-06
1.81261e-06
1.85033e-06
1.89568e-06
1.95665e-06
2.04217e-06
2.15879e-06
2.30766e-06
2.48313e-06
2.67355e-06
2.86391e-06
3.03964e-06
3.19011e-06
3.31053e-06
3.40414e-06
3.47204e-06
2.4261e-07
6.52881e-07
1.02505e-06
1.29188e-06
1.47028e-06
1.58309e-06
1.64349e-06
1.66479e-06
1.66073e-06
1.64266e-06
1.61927e-06
1.59739e-06
1.58227e-06
1.57759e-06
1.58512e-06
1.60443e-06
1.63303e-06
1.66746e-06
1.70533e-06
1.74732e-06
1.79817e-06
1.86585e-06
1.95882e-06
2.08262e-06
2.23706e-06
2.41504e-06
2.60381e-06
2.78795e-06
2.95329e-06
3.09037e-06
3.19613e-06
3.27562e-06
3.33073e-06
2.50794e-07
6.28728e-07
9.81798e-07
1.23858e-06
1.41141e-06
1.51958e-06
1.57497e-06
1.59034e-06
1.57914e-06
1.55286e-06
1.52079e-06
1.49052e-06
1.46812e-06
1.45795e-06
1.4622e-06
1.48051e-06
1.51017e-06
1.5474e-06
1.58954e-06
1.63717e-06
1.69496e-06
1.7706e-06
1.87192e-06
2.00342e-06
2.16357e-06
2.34405e-06
2.5312e-06
2.70935e-06
2.86491e-06
2.98968e-06
3.08232e-06
3.1496e-06
3.1942e-06
3.23365e-07
6.40754e-07
9.67698e-07
1.21109e-06
1.37562e-06
1.47664e-06
1.52439e-06
1.53092e-06
1.50933e-06
1.47126e-06
1.42661e-06
1.38392e-06
1.35035e-06
1.33132e-06
1.32984e-06
1.34588e-06
1.37651e-06
1.41747e-06
1.46555e-06
1.52089e-06
1.58777e-06
1.67333e-06
1.78453e-06
1.92474e-06
2.09118e-06
2.27439e-06
2.46004e-06
2.63244e-06
2.77873e-06
2.89212e-06
2.97305e-06
3.02992e-06
3.06624e-06
4.30471e-07
6.86712e-07
9.8264e-07
1.20968e-06
1.36329e-06
1.45453e-06
1.49159e-06
1.48561e-06
1.44933e-06
1.39459e-06
1.33201e-06
1.27137e-06
1.22144e-06
1.1894e-06
1.17966e-06
1.19281e-06
1.22557e-06
1.27263e-06
1.32963e-06
1.3957e-06
1.47425e-06
1.57151e-06
1.69348e-06
1.84252e-06
2.01493e-06
2.20053e-06
2.38463e-06
2.55177e-06
2.69001e-06
2.79391e-06
2.86563e-06
2.91492e-06
2.94611e-06
5.57204e-07
7.63095e-07
1.02656e-06
1.23531e-06
1.37646e-06
1.45681e-06
1.48233e-06
1.46287e-06
1.41047e-06
1.33668e-06
1.2524e-06
1.1684e-06
1.09529e-06
1.04293e-06
1.01871e-06
1.02519e-06
1.05921e-06
1.11397e-06
1.18301e-06
1.26355e-06
1.35744e-06
1.46957e-06
1.60478e-06
1.7644e-06
1.94389e-06
2.13251e-06
2.31546e-06
2.47776e-06
2.60858e-06
2.70407e-06
2.76813e-06
2.81177e-06
2.84011e-06
7.00597e-07
8.68034e-07
1.10083e-06
1.2901e-06
1.41643e-06
1.4825e-06
1.49192e-06
1.45337e-06
1.37843e-06
1.27851e-06
1.16484e-06
1.04914e-06
9.44289e-07
8.6423e-07
8.21831e-07
8.2371e-07
8.66192e-07
9.3812e-07
1.02818e-06
1.13005e-06
1.24335e-06
1.37169e-06
1.51923e-06
1.68719e-06
1.87116e-06
2.06069e-06
2.2414e-06
2.39906e-06
2.52399e-06
2.61375e-06
2.67364e-06
2.71552e-06
2.74499e-06
8.62296e-07
1.00017e-06
1.20579e-06
1.37718e-06
1.49165e-06
1.54865e-06
1.54889e-06
1.49887e-06
1.40844e-06
1.28759e-06
1.14627e-06
9.95173e-07
8.46955e-07
7.1824e-07
6.31057e-07
6.0676e-07
6.49071e-07
7.39643e-07
8.56203e-07
9.85525e-07
1.12394e-06
1.27358e-06
1.43804e-06
1.61833e-06
1.81005e-06
2.00284e-06
2.1828e-06
2.33671e-06
2.45641e-06
2.54124e-06
2.59807e-06
2.63952e-06
2.67175e-06
1.04879e-06
1.1666e-06
1.35046e-06
1.50251e-06
1.59786e-06
1.63411e-06
1.61101e-06
1.53513e-06
1.41656e-06
1.2649e-06
1.08896e-06
8.97483e-07
7.00253e-07
5.11763e-07
3.63565e-07
3.22894e-07
4.15219e-07
5.68665e-07
7.35102e-07
8.99671e-07
1.06101e-06
1.22355e-06
1.39317e-06
1.57319e-06
1.76122e-06
1.94849e-06
2.12222e-06
2.27023e-06
2.38547e-06
2.46836e-06
2.52656e-06
2.57255e-06
2.61242e-06
1.26486e-06
1.36369e-06
1.5311e-06
1.67709e-06
1.77714e-06
1.82413e-06
1.81148e-06
1.74158e-06
1.62259e-06
1.46342e-06
1.27267e-06
1.0585e-06
8.28238e-07
5.88285e-07
3.44783e-07
1.08776e-07
1.48458e-07
3.70241e-07
5.81768e-07
7.79861e-07
9.67653e-07
1.1514e-06
1.33778e-06
1.53032e-06
1.7265e-06
1.91748e-06
2.09104e-06
2.23634e-06
2.34829e-06
2.42934e-06
2.48861e-06
2.53874e-06
2.58594e-06
1.53202e-06
1.6295e-06
1.78452e-06
1.90112e-06
1.96121e-06
1.96689e-06
1.91797e-06
1.82029e-06
1.68262e-06
1.51265e-06
1.31752e-06
1.10511e-06
8.84956e-07
6.71231e-07
4.92302e-07
4.08028e-07
4.67329e-07
6.1702e-07
7.91551e-07
9.63093e-07
1.12434e-06
1.27795e-06
1.43094e-06
1.58946e-06
1.75413e-06
1.9185e-06
2.07161e-06
2.20311e-06
2.30808e-06
2.38888e-06
2.45393e-06
2.5142e-06
2.57459e-06
1.8422e-06
1.91593e-06
2.08341e-06
2.25409e-06
2.38867e-06
2.46319e-06
2.46217e-06
2.3899e-06
2.26041e-06
2.08787e-06
1.88529e-06
1.66508e-06
1.4392e-06
1.2203e-06
1.02433e-06
8.7327e-07
7.92708e-07
7.96039e-07
8.69234e-07
9.8389e-07
1.11888e-06
1.26579e-06
1.42392e-06
1.59316e-06
1.76882e-06
1.94081e-06
2.09694e-06
2.22798e-06
2.3315e-06
2.41251e-06
2.48107e-06
2.54788e-06
2.61745e-06
2.29276e-06
2.40347e-06
2.52259e-06
2.56987e-06
2.58141e-06
2.5814e-06
2.56088e-06
2.51129e-06
2.43045e-06
2.31895e-06
2.18143e-06
2.02722e-06
1.86915e-06
1.72271e-06
1.60496e-06
1.53123e-06
1.509e-06
1.53296e-06
1.58713e-06
1.65302e-06
1.71782e-06
1.7781e-06
1.83891e-06
1.9088e-06
1.99315e-06
2.08966e-06
2.18962e-06
2.28347e-06
2.36648e-06
2.44067e-06
2.51267e-06
2.58935e-06
2.67221e-06
2.73605e-06
2.80579e-06
3.13525e-06
3.48049e-06
3.71715e-06
3.82447e-06
3.81372e-06
3.71756e-06
3.56815e-06
3.3865e-06
3.18658e-06
2.97895e-06
2.77144e-06
2.57013e-06
2.3806e-06
2.20882e-06
2.06126e-06
1.94408e-06
1.8617e-06
1.8161e-06
1.80792e-06
1.83808e-06
1.90665e-06
2.00915e-06
2.13367e-06
2.26278e-06
2.37962e-06
2.47431e-06
2.54725e-06
2.60764e-06
2.66805e-06
2.7382e-06
2.81995e-06
3.74948e-06
3.82077e-06
3.67786e-06
3.54584e-06
3.60527e-06
3.78344e-06
3.94711e-06
4.04078e-06
4.05955e-06
4.01308e-06
3.91832e-06
3.79434e-06
3.65786e-06
3.52286e-06
3.40148e-06
3.30293e-06
3.23076e-06
3.18061e-06
3.14128e-06
3.0991e-06
3.04356e-06
2.97105e-06
2.88564e-06
2.79688e-06
2.71557e-06
2.64964e-06
2.6027e-06
2.57637e-06
2.57378e-06
2.60026e-06
2.65968e-06
2.74975e-06
2.86239e-06
4.18665e-06
4.77455e-06
5.74739e-06
6.2026e-06
6.2903e-06
6.2513e-06
6.23244e-06
6.32041e-06
6.52154e-06
6.78238e-06
7.03891e-06
7.2396e-06
7.34879e-06
7.34558e-06
7.22214e-06
6.98187e-06
6.63909e-06
6.22e-06
5.75846e-06
5.28621e-06
4.82842e-06
4.40373e-06
4.02555e-06
3.70375e-06
3.44531e-06
3.25463e-06
3.13334e-06
3.08003e-06
3.08903e-06
3.14989e-06
3.24572e-06
3.35878e-06
3.47235e-06
7.35723e-06
5.62978e-06
4.55398e-06
6.27139e-06
8.9973e-06
1.16253e-05
1.38224e-05
1.5543e-05
1.68024e-05
1.76318e-05
1.80829e-05
1.82149e-05
1.80837e-05
1.77408e-05
1.72312e-05
1.65944e-05
1.58646e-05
1.50672e-05
1.42166e-05
1.33221e-05
1.23944e-05
1.14462e-05
1.04938e-05
9.55648e-06
8.65647e-06
7.82033e-06
7.07682e-06
6.45141e-06
5.95829e-06
5.59454e-06
5.33322e-06
5.14421e-06
4.96869e-06
8.50111e-06
1.47145e-05
1.88158e-05
2.12269e-05
2.23769e-05
2.20409e-05
2.03972e-05
1.78657e-05
1.47969e-05
1.14869e-05
8.19258e-06
5.12138e-06
2.52939e-06
1.66292e-06
3.21692e-06
4.98966e-06
6.56735e-06
7.90871e-06
8.99171e-06
9.84932e-06
1.05333e-05
1.11008e-05
1.16063e-05
1.20879e-05
1.25584e-05
1.30087e-05
1.34132e-05
1.37385e-05
1.39498e-05
1.403e-05
1.39654e-05
1.38071e-05
1.35176e-05
3.43516e-05
3.68333e-05
4.5938e-05
6.04895e-05
7.53916e-05
8.97283e-05
0.000102792
0.000113877
0.0001228
0.000129617
0.000134455
0.000137495
0.000138948
0.000139027
0.000137945
0.00013592
0.000133127
0.000129768
0.000126047
0.000122107
0.000118061
0.000113996
0.000109972
0.000106031
0.000102195
9.84795e-05
9.48958e-05
9.14525e-05
8.81555e-05
8.50198e-05
8.20352e-05
7.92916e-05
7.66572e-05
0.000608235
0.000582329
0.000556834
0.000530654
0.000505133
0.000480632
0.000457238
0.000435258
0.000414896
0.000396224
0.000379255
0.000363957
0.000350261
0.000338074
0.000327295
0.000317817
0.000309505
0.000302143
0.000295462
0.000289176
0.000283095
0.000277098
0.000271107
0.00026508
0.000259005
0.000252888
0.00024675
0.000240622
0.000234536
0.000228541
0.00022258
0.0002172
0.000212322
0.00014909
0.000154135
0.000146968
0.000130005
0.000110604
9.22567e-05
7.50248e-05
5.27105e-05
2.01328e-05
1.61992e-05
3.73524e-05
4.18178e-05
3.74816e-05
3.21175e-05
2.77724e-05
2.41308e-05
2.1e-05
1.83604e-05
1.61637e-05
1.43329e-05
1.27954e-05
1.14902e-05
1.03649e-05
9.3773e-06
8.49769e-06
7.70852e-06
6.99992e-06
6.36474e-06
5.79567e-06
5.28492e-06
4.82501e-06
4.40942e-06
4.03272e-06
3.69036e-06
3.37849e-06
3.0938e-06
2.83342e-06
2.59492e-06
2.37618e-06
2.17542e-06
1.99109e-06
1.82182e-06
1.6664e-06
1.5237e-06
1.39271e-06
1.27245e-06
1.16204e-06
1.06067e-06
9.67584e-07
8.82101e-07
8.03607e-07
7.31548e-07
6.65432e-07
6.04814e-07
5.49284e-07
4.98465e-07
4.5201e-07
4.09607e-07
3.70977e-07
3.35863e-07
3.04037e-07
2.75284e-07
2.49404e-07
2.26216e-07
2.05531e-07
1.8715e-07
1.70875e-07
1.56515e-07
1.43905e-07
1.32913e-07
1.2342e-07
1.1531e-07
1.08467e-07
1.02762e-07
9.80713e-08
9.42647e-08
9.12167e-08
8.88083e-08
8.69386e-08
8.55278e-08
8.45125e-08
8.38315e-08
8.34155e-08
8.31858e-08
8.30724e-08
8.30318e-08
8.30605e-08
8.31794e-08
8.34366e-08
8.38365e-08
8.44399e-08
8.51254e-08
8.60611e-08
8.67022e-08
8.79515e-08
8.79028e-08
9.05903e-08
8.77389e-08
9.677e-08
8.52732e-08
0.000122873
0.000117174
0.000112774
0.00010394
8.96114e-05
6.97361e-05
4.46383e-05
1.63844e-05
1.97382e-05
3.65285e-05
4.072e-05
3.7654e-05
3.34575e-05
2.97681e-05
2.63347e-05
2.31494e-05
2.03452e-05
1.79483e-05
1.59145e-05
1.41899e-05
1.27233e-05
1.14663e-05
1.03742e-05
9.40981e-06
8.54646e-06
7.76833e-06
7.06671e-06
6.43544e-06
5.86806e-06
5.35744e-06
4.89652e-06
4.4791e-06
4.09996e-06
3.75475e-06
3.4398e-06
3.15196e-06
2.8885e-06
2.64707e-06
2.42556e-06
2.22215e-06
2.03522e-06
1.86335e-06
1.70528e-06
1.5599e-06
1.42621e-06
1.30332e-06
1.1904e-06
1.08671e-06
9.91551e-07
9.04267e-07
8.24261e-07
7.50984e-07
6.8393e-07
6.22629e-07
5.66641e-07
5.15559e-07
4.69011e-07
4.26657e-07
3.8818e-07
3.53273e-07
3.21647e-07
2.93046e-07
2.67238e-07
2.44009e-07
2.23146e-07
2.04447e-07
1.87732e-07
1.72848e-07
1.59665e-07
1.48048e-07
1.37858e-07
1.28935e-07
1.21142e-07
1.14371e-07
1.08539e-07
1.03545e-07
9.92833e-08
9.56304e-08
9.24918e-08
8.9794e-08
8.75137e-08
8.56308e-08
8.41258e-08
8.29546e-08
8.20319e-08
8.12739e-08
8.06147e-08
8.00076e-08
7.94651e-08
7.89828e-08
7.86266e-08
7.82955e-08
7.82296e-08
7.7853e-08
7.81393e-08
7.66878e-08
7.81339e-08
7.25123e-08
7.98075e-08
6.40338e-08
5.70799e-05
5.29588e-05
4.84831e-05
4.12576e-05
3.15514e-05
2.0518e-05
1.5925e-05
2.52216e-05
3.43008e-05
3.707e-05
3.56678e-05
3.32487e-05
3.06945e-05
2.78758e-05
2.49449e-05
2.21754e-05
1.96976e-05
1.75292e-05
1.56514e-05
1.40341e-05
1.26413e-05
1.14349e-05
1.03781e-05
9.43863e-06
8.59306e-06
7.82721e-06
7.13357e-06
6.50697e-06
5.94184e-06
5.43172e-06
4.97007e-06
4.55103e-06
4.16965e-06
3.82175e-06
3.50377e-06
3.21267e-06
2.9458e-06
2.70088e-06
2.47592e-06
2.26917e-06
2.07905e-06
1.90416e-06
1.74325e-06
1.59519e-06
1.45896e-06
1.33365e-06
1.21844e-06
1.11257e-06
1.01533e-06
9.26093e-07
8.44266e-07
7.6931e-07
7.0072e-07
6.38024e-07
5.80781e-07
5.28585e-07
4.81065e-07
4.37871e-07
3.98669e-07
3.63142e-07
3.30992e-07
3.01949e-07
2.75757e-07
2.52163e-07
2.30941e-07
2.119e-07
1.94888e-07
1.79771e-07
1.66409e-07
1.5463e-07
1.44266e-07
1.35165e-07
1.27205e-07
1.20282e-07
1.14282e-07
1.09092e-07
1.04605e-07
1.00739e-07
9.74366e-08
9.4641e-08
9.23006e-08
9.03477e-08
8.87096e-08
8.7319e-08
8.61202e-08
8.50833e-08
8.41996e-08
8.34587e-08
8.28647e-08
8.23743e-08
8.20065e-08
8.16045e-08
8.13578e-08
8.06769e-08
8.05804e-08
7.86795e-08
7.96284e-08
7.32815e-08
7.94647e-08
6.27744e-08
9.76248e-06
8.46363e-06
7.14537e-06
7.30186e-06
1.14081e-05
1.77298e-05
2.43039e-05
2.92471e-05
3.15611e-05
3.19315e-05
3.1408e-05
3.02356e-05
2.83737e-05
2.6047e-05
2.35868e-05
2.12161e-05
1.90369e-05
1.70845e-05
1.5362e-05
1.38548e-05
1.2539e-05
1.13866e-05
1.03681e-05
9.45647e-06
8.63102e-06
7.87939e-06
7.19532e-06
6.57472e-06
6.01292e-06
5.50418e-06
5.04247e-06
4.62232e-06
4.23907e-06
3.88878e-06
3.56807e-06
3.274e-06
3.00401e-06
2.75587e-06
2.52764e-06
2.31761e-06
2.12424e-06
1.94618e-06
1.78219e-06
1.63118e-06
1.49215e-06
1.36419e-06
1.24649e-06
1.13826e-06
1.03882e-06
9.47524e-07
8.6378e-07
7.87039e-07
7.16788e-07
6.52551e-07
5.93882e-07
5.40371e-07
4.9163e-07
4.473e-07
4.07046e-07
3.70558e-07
3.3755e-07
3.07749e-07
2.80899e-07
2.5676e-07
2.35109e-07
2.15744e-07
1.98477e-07
1.83126e-07
1.69522e-07
1.57503e-07
1.46921e-07
1.37644e-07
1.2955e-07
1.22517e-07
1.16428e-07
1.11172e-07
1.06649e-07
1.02775e-07
9.9474e-08
9.6675e-08
9.43098e-08
9.23157e-08
9.06354e-08
8.92212e-08
8.80365e-08
8.70493e-08
8.62351e-08
8.55622e-08
8.50129e-08
8.4531e-08
8.41374e-08
8.36773e-08
8.33563e-08
8.25922e-08
8.24285e-08
8.04402e-08
8.1298e-08
7.47631e-08
8.08058e-08
6.37261e-08
7.90427e-06
6.32494e-06
5.53254e-06
8.51177e-06
1.31856e-05
1.78361e-05
2.18415e-05
2.49185e-05
2.70374e-05
2.82332e-05
2.84381e-05
2.76865e-05
2.62178e-05
2.43386e-05
2.23023e-05
2.02803e-05
1.83717e-05
1.66237e-05
1.50521e-05
1.36544e-05
1.24173e-05
1.13214e-05
1.03439e-05
9.46238e-06
8.65908e-06
7.92345e-06
7.2505e-06
6.6372e-06
6.07985e-06
5.57342e-06
5.11242e-06
4.69178e-06
4.30715e-06
3.95484e-06
3.63168e-06
3.33485e-06
3.0619e-06
2.8107e-06
2.57936e-06
2.36621e-06
2.16974e-06
1.98864e-06
1.82169e-06
1.66781e-06
1.52603e-06
1.39545e-06
1.27524e-06
1.16464e-06
1.06297e-06
9.69576e-07
8.83868e-07
8.05295e-07
7.3334e-07
6.67521e-07
6.07392e-07
5.52534e-07
5.02557e-07
4.57096e-07
4.1581e-07
3.78383e-07
3.44521e-07
3.13946e-07
2.86397e-07
2.61635e-07
2.39436e-07
2.19593e-07
2.01909e-07
1.86197e-07
1.72284e-07
1.6001e-07
1.49224e-07
1.39787e-07
1.31564e-07
1.24429e-07
1.18265e-07
1.12963e-07
1.08423e-07
1.04549e-07
1.01255e-07
9.8464e-08
9.61064e-08
9.41236e-08
9.24636e-08
9.10804e-08
8.99342e-08
8.89865e-08
8.82057e-08
8.75551e-08
8.7017e-08
8.65361e-08
8.61373e-08
8.56652e-08
8.53304e-08
8.45391e-08
8.43411e-08
8.22802e-08
8.30614e-08
7.63575e-08
8.23488e-08
6.48821e-08
7.90893e-06
6.64921e-06
6.34285e-06
8.41354e-06
1.1845e-05
1.55595e-05
1.90784e-05
2.20889e-05
2.43077e-05
2.55558e-05
2.58458e-05
2.53364e-05
2.42366e-05
2.27562e-05
2.10846e-05
1.93695e-05
1.77072e-05
1.61508e-05
1.47247e-05
1.34353e-05
1.22778e-05
1.12404e-05
1.0306e-05
9.45665e-06
8.67743e-06
7.95954e-06
7.29923e-06
6.69456e-06
6.14277e-06
5.63958e-06
5.18007e-06
4.75956e-06
4.37406e-06
4.02015e-06
3.69486e-06
3.39553e-06
3.11983e-06
2.8657e-06
2.63133e-06
2.4151e-06
2.21557e-06
2.03144e-06
1.86154e-06
1.7048e-06
1.56027e-06
1.42705e-06
1.30433e-06
1.19136e-06
1.08744e-06
9.91926e-07
9.04234e-07
8.23806e-07
7.50121e-07
6.82694e-07
6.21073e-07
5.64839e-07
5.13596e-07
4.66976e-07
4.24631e-07
3.8624e-07
3.51503e-07
3.20139e-07
2.91882e-07
2.66486e-07
2.43722e-07
2.23381e-07
2.05267e-07
1.8919e-07
1.7497e-07
1.62438e-07
1.5144e-07
1.41833e-07
1.33485e-07
1.26264e-07
1.20044e-07
1.14705e-07
1.10142e-07
1.0626e-07
1.02974e-07
1.00206e-07
9.78842e-08
9.59413e-08
9.43187e-08
9.29668e-08
9.1846e-08
9.09205e-08
9.01617e-08
8.95339e-08
8.90178e-08
8.85542e-08
8.81659e-08
8.76918e-08
8.73441e-08
8.6519e-08
8.62767e-08
8.41352e-08
8.4836e-08
7.79507e-08
8.38777e-08
6.60085e-08
7.08812e-06
6.72423e-06
6.9795e-06
8.65021e-06
1.13583e-05
1.44182e-05
1.73879e-05
1.99581e-05
2.18927e-05
2.30709e-05
2.34921e-05
2.32415e-05
2.24569e-05
2.13018e-05
1.9936e-05
1.8489e-05
1.70495e-05
1.56713e-05
1.43839e-05
1.32003e-05
1.21226e-05
1.11448e-05
1.02552e-05
9.43971e-06
8.68626e-06
7.98768e-06
7.34141e-06
6.74661e-06
6.20145e-06
5.70243e-06
5.24516e-06
4.82543e-06
4.43959e-06
4.08449e-06
3.75741e-06
3.45585e-06
3.17761e-06
2.92073e-06
2.68346e-06
2.46426e-06
2.26173e-06
2.07462e-06
1.90179e-06
1.74222e-06
1.59493e-06
1.45907e-06
1.33382e-06
1.21844e-06
1.11224e-06
1.01459e-06
9.24881e-07
8.42568e-07
7.67123e-07
6.98059e-07
6.34922e-07
5.77287e-07
5.24755e-07
4.76951e-07
4.33524e-07
3.94149e-07
3.58519e-07
3.26347e-07
2.97364e-07
2.71321e-07
2.47988e-07
2.27149e-07
2.086e-07
1.92148e-07
1.77611e-07
1.64819e-07
1.53614e-07
1.43849e-07
1.35379e-07
1.28068e-07
1.21788e-07
1.16419e-07
1.11851e-07
1.07983e-07
1.04719e-07
1.01979e-07
9.96872e-08
9.77791e-08
9.61968e-08
9.48896e-08
9.38143e-08
9.29306e-08
9.22061e-08
9.16029e-08
9.11031e-08
9.06485e-08
9.02642e-08
8.97868e-08
8.94306e-08
8.85794e-08
8.82994e-08
8.60782e-08
8.66995e-08
7.96256e-08
8.54986e-08
6.72121e-08
6.96307e-06
7.01219e-06
7.46587e-06
8.81144e-06
1.09291e-05
1.33998e-05
1.58746e-05
1.80875e-05
1.98272e-05
2.09632e-05
2.14667e-05
2.13924e-05
2.08461e-05
1.99567e-05
1.88525e-05
1.76415e-05
1.64028e-05
1.51892e-05
1.40331e-05
1.29522e-05
1.19533e-05
1.10357e-05
1.01921e-05
9.41196e-06
8.68574e-06
8.00789e-06
7.37702e-06
6.79328e-06
6.2558e-06
5.76185e-06
5.30762e-06
4.88932e-06
4.50366e-06
4.14782e-06
3.81929e-06
3.51579e-06
3.23523e-06
2.97576e-06
2.73572e-06
2.51364e-06
2.30819e-06
2.11816e-06
1.94244e-06
1.78004e-06
1.63001e-06
1.49149e-06
1.3637e-06
1.24589e-06
1.1374e-06
1.03758e-06
9.45831e-07
8.61601e-07
7.84364e-07
7.1363e-07
6.48944e-07
5.89877e-07
5.36025e-07
4.87009e-07
4.42473e-07
4.02087e-07
3.65539e-07
3.3254e-07
3.02815e-07
2.7611e-07
2.52191e-07
2.30837e-07
2.11845e-07
1.95016e-07
1.80164e-07
1.67112e-07
1.55698e-07
1.4577e-07
1.37184e-07
1.29797e-07
1.23473e-07
1.18084e-07
1.13514e-07
1.09658e-07
1.06423e-07
1.03725e-07
1.01484e-07
9.96301e-08
9.80991e-08
9.68377e-08
9.58023e-08
9.49542e-08
9.42631e-08
9.36916e-08
9.32206e-08
9.27886e-08
9.24188e-08
9.19425e-08
9.15756e-08
9.06917e-08
9.03683e-08
8.80631e-08
8.86064e-08
8.13346e-08
8.71528e-08
6.84283e-08
6.88248e-06
7.16591e-06
7.72488e-06
8.86156e-06
1.05593e-05
1.25709e-05
1.46346e-05
1.65271e-05
1.80652e-05
1.9129e-05
1.96781e-05
1.97398e-05
1.93875e-05
1.8719e-05
1.78365e-05
1.68304e-05
1.57711e-05
1.47085e-05
1.36759e-05
1.26935e-05
1.17721e-05
1.09146e-05
1.01177e-05
9.37401e-06
8.67625e-06
8.02039e-06
7.40612e-06
6.83457e-06
6.30577e-06
5.81776e-06
5.36732e-06
4.95111e-06
4.56619e-06
4.21004e-06
3.88043e-06
3.57526e-06
3.2926e-06
3.03072e-06
2.78806e-06
2.56321e-06
2.35492e-06
2.16202e-06
1.98346e-06
1.81824e-06
1.66547e-06
1.52429e-06
1.39395e-06
1.2737e-06
1.16289e-06
1.06087e-06
9.67054e-07
8.80876e-07
8.01817e-07
7.29385e-07
6.63123e-07
6.02597e-07
5.47399e-07
4.97145e-07
4.51475e-07
4.10055e-07
3.7257e-07
3.38723e-07
3.08238e-07
2.80857e-07
2.56342e-07
2.34469e-07
2.15027e-07
1.97813e-07
1.82638e-07
1.69323e-07
1.57704e-07
1.47622e-07
1.38925e-07
1.31463e-07
1.25098e-07
1.19696e-07
1.15139e-07
1.11315e-07
1.08124e-07
1.05475e-07
1.03286e-07
1.01485e-07
1.00011e-07
9.8807e-08
9.78281e-08
9.70319e-08
9.63851e-08
9.58485e-08
9.54034e-08
9.49883e-08
9.46285e-08
9.41525e-08
9.37785e-08
9.28684e-08
9.2508e-08
9.01203e-08
9.05893e-08
8.31131e-08
8.88893e-08
6.97147e-08
6.80206e-06
7.21105e-06
7.81266e-06
8.7976e-06
1.01881e-05
1.18425e-05
1.35719e-05
1.51955e-05
1.6557e-05
1.75459e-05
1.81142e-05
1.82719e-05
1.80696e-05
1.75805e-05
1.68848e-05
1.60568e-05
1.51574e-05
1.42327e-05
1.33154e-05
1.2427e-05
1.15809e-05
1.0783e-05
1.0033e-05
9.32652e-06
8.6582e-06
8.0254e-06
7.42882e-06
6.8705e-06
6.35133e-06
5.87011e-06
5.42422e-06
5.01074e-06
4.62709e-06
4.27109e-06
3.94076e-06
3.63421e-06
3.34969e-06
3.08559e-06
2.84045e-06
2.61296e-06
2.40191e-06
2.20621e-06
2.02483e-06
1.85683e-06
1.70131e-06
1.55748e-06
1.42458e-06
1.30188e-06
1.18872e-06
1.08448e-06
9.8856e-07
9.00403e-07
8.1949e-07
7.45329e-07
6.77458e-07
6.15441e-07
5.58865e-07
5.07344e-07
4.60513e-07
4.18033e-07
3.79586e-07
3.44871e-07
3.13608e-07
2.85534e-07
2.60407e-07
2.38e-07
2.18097e-07
2.00494e-07
1.84995e-07
1.71419e-07
1.59595e-07
1.4936e-07
1.40558e-07
1.33035e-07
1.26642e-07
1.21241e-07
1.16704e-07
1.12918e-07
1.0978e-07
1.07195e-07
1.05076e-07
1.03347e-07
1.0194e-07
1.00799e-07
9.98757e-08
9.91299e-08
9.8529e-08
9.80338e-08
9.7625e-08
9.72384e-08
9.68979e-08
9.64273e-08
9.60468e-08
9.51072e-08
9.47077e-08
9.22349e-08
9.26346e-08
8.49465e-08
9.06886e-08
7.10451e-08
6.69114e-06
7.16611e-06
7.78024e-06
8.65507e-06
9.82213e-06
1.12013e-05
1.2659e-05
1.40528e-05
1.52531e-05
1.61631e-05
1.67335e-05
1.6961e-05
1.68772e-05
1.6535e-05
1.59965e-05
1.53223e-05
1.45646e-05
1.3765e-05
1.29545e-05
1.21552e-05
1.13817e-05
1.06422e-05
9.93917e-06
9.27028e-06
8.63212e-06
8.02327e-06
7.44533e-06
6.90118e-06
6.39253e-06
5.91891e-06
5.47827e-06
5.06815e-06
4.68632e-06
4.33091e-06
4.00022e-06
3.6926e-06
3.40646e-06
3.14033e-06
2.89287e-06
2.66285e-06
2.44914e-06
2.2507e-06
2.06654e-06
1.89577e-06
1.73754e-06
1.59105e-06
1.45557e-06
1.3304e-06
1.21488e-06
1.10839e-06
1.01033e-06
9.20165e-07
8.37368e-07
7.61447e-07
6.91938e-07
6.284e-07
5.70417e-07
5.176e-07
4.69581e-07
4.26017e-07
3.86585e-07
3.50981e-07
3.1892e-07
2.90138e-07
2.64387e-07
2.41436e-07
2.21065e-07
2.03064e-07
1.87236e-07
1.73396e-07
1.6137e-07
1.5099e-07
1.4209e-07
1.34511e-07
1.28098e-07
1.22708e-07
1.18208e-07
1.14478e-07
1.11408e-07
1.08896e-07
1.06854e-07
1.05202e-07
1.03871e-07
1.02803e-07
1.01951e-07
1.01269e-07
1.00724e-07
1.00275e-07
9.9903e-08
9.95427e-08
9.92197e-08
9.87549e-08
9.83715e-08
9.7408e-08
9.69763e-08
9.4421e-08
9.47586e-08
8.68538e-08
9.258e-08
7.24569e-08
6.5597e-06
7.05802e-06
7.66056e-06
8.44596e-06
9.4445e-06
1.06115e-05
1.18532e-05
1.30587e-05
1.41213e-05
1.49573e-05
1.55183e-05
1.5793e-05
1.57997e-05
1.55759e-05
1.51689e-05
1.46271e-05
1.39945e-05
1.33079e-05
1.2596e-05
1.18804e-05
1.11765e-05
1.04941e-05
9.83735e-06
9.20616e-06
8.59862e-06
8.01441e-06
7.45593e-06
6.92677e-06
6.42945e-06
5.96417e-06
5.52948e-06