/*--------------------------------*- C++ -*----------------------------------*\
| =========                 |                                                 |
| \\      /  F ield         | OpenFOAM: The Open Source CFD Toolbox           |
|  \\    /   O peration     | Version:  2.1.1                                 |
|   \\  /    A nd           | Web:      www.OpenFOAM.org                      |
|    \\/     M anipulation  |                                                 |
\*---------------------------------------------------------------------------*/
FoamFile
{
    version     2.0;
    format      ascii;
    class       volScalarField;
    location    "0.01";
    object      p;
}
// * * * * * * * * * * * * * * * * * * * * * * * * * * * * * * * * * * * * * //

dimensions      [0 2 -2 0 0 0 0];

internalField   nonuniform List<scalar> 
6820
(
14.1782
-3.66457
-6.6928
-6.90161
-7.09918
-7.05401
-7.02842
-7.07548
-7.16041
-7.26711
-7.38614
-7.51025
-7.63737
-7.7631
-7.88521
-8.00445
-8.12635
-8.25888
-8.41038
-8.58787
-8.79603
-9.03713
-9.31163
-9.61912
-9.95941
-10.3334
-10.7441
-11.1967
-11.7017
-12.2672
-12.934
-13.6664
-14.7466
7.50084
-3.47934
-6.37706
-6.69958
-6.97777
-7.02979
-7.04183
-7.10087
-7.18816
-7.29249
-7.4081
-7.52984
-7.65323
-7.77723
-7.89763
-8.01484
-8.13467
-8.26526
-8.41503
-8.59106
-8.79803
-9.03814
-9.31169
-9.61806
-9.95674
-10.3283
-10.7354
-11.1826
-11.6786
-12.2316
-12.8669
-13.5663
-14.4381
4.79227
-2.04165
-5.34716
-6.12744
-6.62143
-6.84861
-6.93982
-7.03167
-7.13815
-7.2545
-7.3783
-7.50576
-7.6341
-7.76132
-7.8849
-8.00546
-8.12807
-8.2602
-8.41017
-8.58505
-8.78957
-9.02605
-9.29494
-9.59566
-9.9276
-10.2909
-10.6871
-11.1191
-11.5919
-12.1078
-12.6735
-13.2558
-13.8131
2.81267
-1.8076
-4.91542
-5.79386
-6.28867
-6.59221
-6.75128
-6.88521
-7.02093
-7.15613
-7.2914
-7.42661
-7.56059
-7.69172
-7.81807
-7.94199
-8.06982
-8.20758
-8.36185
-8.53839
-8.74118
-8.97223
-9.23197
-9.51995
-9.83555
-10.1785
-10.5492
-10.9486
-11.378
-11.8349
-12.3139
-12.7853
-13.201
1.18377
-1.90068
-4.51441
-5.43506
-5.9631
-6.3427
-6.56837
-6.73766
-6.89304
-7.03955
-7.18086
-7.31949
-7.45571
-7.58989
-7.7226
-7.85535
-7.99101
-8.13541
-8.29419
-8.4721
-8.67251
-8.89725
-9.14689
-9.42115
-9.71939
-10.041
-10.3855
-10.7524
-11.1402
-11.5445
-11.9553
-12.3499
-12.6867
-0.0314463
-2.07379
-4.25433
-5.21418
-5.75968
-6.16438
-6.4227
-6.61227
-6.78098
-6.9374
-7.08553
-7.22895
-7.36916
-7.50727
-7.64417
-7.78081
-7.92043
-8.06819
-8.22878
-8.40604
-8.60274
-8.82038
-9.05942
-9.3195
-9.59983
-9.8994
-10.2171
-10.5511
-10.8989
-11.2548
-11.6085
-11.9436
-12.231
-0.973875
-2.35157
-4.12697
-5.04781
-5.57899
-5.98958
-6.27555
-6.48791
-6.67168
-6.83843
-6.99313
-7.14054
-7.2833
-7.42304
-7.56134
-7.70011
-7.84246
-7.99235
-8.15348
-8.32893
-8.52094
-8.73077
-8.95873
-9.20442
-9.46691
-9.7449
-10.0368
-10.3402
-10.6518
-10.966
-11.2739
-11.564
-11.8179
-1.71072
-2.64823
-4.06511
-4.91983
-5.43778
-5.84797
-6.15042
-6.37758
-6.57071
-6.74418
-6.90375
-7.05463
-7.20007
-7.34212
-7.48263
-7.62366
-7.76772
-7.9181
-8.07797
-8.24993
-8.43583
-8.63666
-8.85258
-9.08304
-9.32697
-9.58288
-9.84881
-10.1222
-10.3996
-10.6761
-10.9445
-11.1971
-11.4232
-2.29294
-2.94156
-4.06392
-4.83691
-5.33064
-5.72704
-6.03346
-6.26956
-6.46987
-6.64916
-6.81324
-6.96719
-7.11464
-7.25795
-7.39927
-7.54073
-7.68482
-7.83436
-7.99194
-8.15966
-8.33894
-8.5305
-8.73431
-8.94974
-9.17561
-9.41031
-9.65179
-9.8975
-10.1441
-10.3875
-10.6224
-10.8436
-11.0449
-2.75841
-3.21586
-4.0998
-4.78267
-5.2457
-5.62425
-5.92925
-6.1708
-6.37597
-6.55909
-6.72617
-6.88221
-7.03106
-7.17536
-7.31728
-7.45893
-7.60251
-7.75035
-7.9046
-8.06695
-8.23853
-8.41986
-8.61078
-8.81057
-9.01801
-9.23147
-9.44893
-9.66798
-9.88569
-10.0987
-10.3032
-10.4959
-10.673
-3.13403
-3.46348
-4.15897
-4.75335
-5.18227
-5.5395
-5.83681
-6.07859
-6.28533
-6.47015
-6.63887
-6.79611
-6.94561
-7.09
-7.23143
-7.37199
-7.51372
-7.65863
-7.8085
-7.96472
-8.12813
-8.29902
-8.47712
-8.66163
-8.85133
-9.04461
-9.23956
-9.43399
-9.62539
-9.81112
-9.98826
-10.1548
-10.3083
-3.43947
-3.68206
-4.23053
-4.742
-5.13432
-5.46808
-5.75395
-5.99281
-6.19925
-6.38445
-6.5538
-6.71145
-6.86096
-7.00489
-7.14538
-7.28439
-7.42372
-7.56508
-7.70992
-7.85931
-8.01388
-8.17378
-8.33863
-8.50763
-8.67959
-8.85301
-9.02614
-9.19704
-9.36362
-9.52382
-9.67543
-9.81721
-9.94729
-3.6891
-3.87171
-4.30639
-4.74334
-5.09881
-5.4085
-5.68051
-5.91355
-6.11739
-6.30117
-6.4697
-6.62664
-6.77517
-6.91778
-7.05643
-7.19291
-7.32884
-7.46567
-7.60461
-7.74653
-7.89185
-8.04059
-8.19231
-8.34621
-8.50114
-8.6557
-8.80834
-8.95737
-9.10103
-9.2377
-9.36565
-9.48408
-9.59133
-3.89351
-4.03392
-4.38093
-4.75276
-5.07237
-5.35794
-5.61456
-5.83961
-6.03919
-6.22031
-6.38707
-6.54254
-6.68952
-6.83023
-6.9665
-7.09992
-7.23192
-7.36372
-7.4963
-7.6303
-7.76601
-7.90335
-8.04186
-8.18074
-8.31894
-8.4552
-8.58816
-8.71638
-8.83839
-8.9529
-9.05853
-9.1547
-9.23983
-4.06061
-4.17074
-4.45027
-4.76638
-5.0522
-5.31436
-5.555
-5.77066
-5.9646
-6.14189
-6.3058
-6.45887
-6.60343
-6.74147
-6.87458
-7.00417
-7.13147
-7.25752
-7.3831
-7.50872
-7.63454
-7.76042
-7.88587
-8.01015
-8.13228
-8.25117
-8.36559
-8.47433
-8.57618
-8.67007
-8.75485
-8.83007
-8.89417
-4.19633
-4.28431
-4.51187
-4.78104
-5.03581
-5.27571
-5.50036
-5.70571
-5.89296
-6.06549
-6.22576
-6.37571
-6.51727
-6.65207
-6.78151
-6.90679
-7.02895
-7.14884
-7.26709
-7.38406
-7.49984
-7.61424
-7.72677
-7.83675
-7.94332
-8.0455
-8.14226
-8.23258
-8.31543
-8.38995
-8.45514
-8.51065
-8.55493
-4.30515
-4.37668
-4.56409
-4.7942
-5.02106
-5.24022
-5.44936
-5.64402
-5.82393
-5.99103
-6.14696
-6.29316
-6.43107
-6.56204
-6.68721
-6.8076
-6.92407
-7.03731
-7.14782
-7.25587
-7.36148
-7.46444
-7.5643
-7.66043
-7.75207
-7.83839
-7.91849
-7.99154
-8.05667
-8.11316
-8.16014
-8.19732
-8.22322
-4.39049
-4.44961
-4.60593
-4.80386
-5.00609
-5.20628
-5.40074
-5.58473
-5.75693
-5.91812
-6.06922
-6.21115
-6.34494
-6.47162
-6.5921
-6.7072
-6.81762
-6.92392
-7.02648
-7.12548
-7.22092
-7.31258
-7.40004
-7.48275
-7.56006
-7.63126
-7.69561
-7.75242
-7.80096
-7.84064
-7.87072
-7.89095
-7.89993
-4.45495
-4.50461
-4.63679
-4.80843
-4.98933
-5.17248
-5.35335
-5.52705
-5.6915
-5.84656
-5.99252
-6.12982
-6.25911
-6.38112
-6.49652
-6.60596
-6.70999
-6.80905
-6.90344
-6.99329
-7.07857
-7.15908
-7.23445
-7.30422
-7.36783
-7.4247
-7.47423
-7.51584
-7.54896
-7.57309
-7.58759
-7.59229
-7.58588
-4.50048
-4.54289
-4.65633
-4.80669
-4.96941
-5.13756
-5.30615
-5.47019
-5.6271
-5.77603
-5.9167
-6.04914
-6.17366
-6.2907
-6.40073
-6.50424
-6.60164
-6.69328
-6.7794
-6.86009
-6.93532
-7.00491
-7.06856
-7.12588
-7.17644
-7.21975
-7.25535
-7.28277
-7.30157
-7.31135
-7.31157
-7.30212
-7.28183
-4.5285
-4.56536
-4.6643
-4.79765
-4.94521
-5.10046
-5.25822
-5.4135
-5.56334
-5.70636
-5.84181
-5.96936
-6.089
-6.20092
-6.30543
-6.40283
-6.49345
-6.57756
-6.65535
-6.72691
-6.79221
-6.85112
-6.90341
-6.94878
-6.98689
-7.01738
-7.0399
-7.0541
-7.05963
-7.05621
-7.0434
-7.02114
-6.98843
-4.54002
-4.57265
-4.6605
-4.78049
-4.91571
-5.06018
-5.2087
-5.35629
-5.49973
-5.63723
-5.76766
-5.89037
-6.00508
-6.11179
-6.21062
-6.30178
-6.38551
-6.46201
-6.53147
-6.59397
-6.64952
-6.69804
-6.73938
-6.77332
-6.79964
-6.81808
-6.82838
-6.83033
-6.82366
-6.80818
-6.78356
-6.74981
-6.70607
-4.53564
-4.56514
-4.6447
-4.75451
-4.88008
-5.01594
-5.15695
-5.29815
-5.43614
-5.5688
-5.6947
-5.8129
-5.92291
-6.02455
-6.11779
-6.20275
-6.27961
-6.34855
-6.40974
-6.46331
-6.50929
-6.54769
-6.57844
-6.60141
-6.61648
-6.62351
-6.62234
-6.61285
-6.59489
-6.56835
-6.53301
-6.48893
-6.43541
-4.51563
-4.54289
-4.61656
-4.71904
-4.83751
-4.96692
-5.10221
-5.2384
-5.37196
-5.50049
-5.62232
-5.7363
-5.84175
-5.93835
-6.02598
-6.1047
-6.17465
-6.23602
-6.28901
-6.33376
-6.37041
-6.39902
-6.41961
-6.43215
-6.43663
-6.433
-6.4212
-6.40121
-6.37296
-6.33643
-6.29149
-6.23827
-6.17623
-4.47986
-4.5057
-4.57563
-4.67343
-4.78736
-4.91266
-5.04431
-5.17729
-5.30791
-5.43355
-5.55232
-5.66288
-5.76441
-5.85646
-5.93885
-6.0116
-6.07485
-6.12882
-6.17373
-6.20983
-6.23731
-6.25633
-6.26702
-6.26946
-6.26372
-6.24988
-6.22798
-6.19808
-6.16021
-6.11444
-6.06073
-5.99925
-5.92961
-4.42784
-4.45301
-4.52119
-4.61682
-4.72869
-4.85213
-4.98208
-5.11342
-5.2423
-5.36594
-5.48225
-5.58978
-5.6876
-5.7752
-5.85236
-5.91912
-5.97565
-6.02222
-6.05913
-6.08672
-6.10528
-6.11507
-6.11632
-6.10924
-6.09398
-6.07071
-6.03957
-6.0007
-5.95421
-5.90024
-5.83882
-5.77021
-5.69411
-4.35864
-4.38392
-4.45243
-4.54864
-4.66135
-4.78587
-4.91696
-5.0493
-5.17882
-5.30251
-5.41813
-5.52408
-5.61935
-5.7034
-5.77602
-5.83728
-5.88741
-5.92679
-5.95582
-5.97494
-5.98458
-5.98513
-5.97693
-5.96031
-5.93556
-5.90293
-5.86268
-5.81502
-5.76016
-5.69831
-5.6296
-5.55431
-5.47227
-4.27078
-4.29693
-4.36782
-4.46715
-4.58318
-4.71097
-4.84508
-4.9799
-5.11117
-5.23572
-5.35119
-5.45589
-5.54879
-5.62933
-5.69737
-5.75305
-5.79671
-5.82886
-5.85005
-5.86086
-5.86186
-5.85359
-5.83653
-5.8111
-5.77769
-5.73666
-5.68832
-5.63298
-5.5709
-5.50234
-5.42751
-5.34672
-5.25993
-4.1622
-4.1903
-4.26642
-4.37279
-4.49655
-4.6323
-4.77406
-4.91571
-5.0526
-5.18134
-5.29942
-5.40511
-5.49735
-5.57569
-5.64006
-5.69075
-5.72827
-5.75327
-5.7665
-5.76871
-5.76065
-5.74303
-5.71647
-5.68156
-5.63881
-5.58869
-5.53163
-5.46803
-5.39824
-5.32259
-5.24135
-5.15487
-5.06318
-4.02973
-4.06055
-4.14408
-4.25984
-4.39318
-4.53829
-4.68884
-4.83825
-4.98155
-5.11515
-5.23638
-5.34342
-5.43522
-5.51139
-5.57199
-5.6175
-5.64864
-5.66633
-5.67155
-5.66531
-5.64858
-5.62224
-5.58708
-5.5438
-5.49302
-5.43529
-5.37108
-5.30085
-5.22499
-5.14388
-5.05784
-4.96725
-4.87223
-3.86966
-3.90574
-4.00282
-4.13623
-4.28814
-4.45157
-4.61911
-4.78329
-4.93871
-5.08168
-5.20954
-5.32056
-5.41385
-5.48921
-5.54694
-5.58775
-5.61262
-5.62272
-5.61929
-5.6036
-5.57685
-5.54017
-5.49455
-5.44089
-5.37997
-5.31249
-5.23905
-5.1602
-5.07645
-4.98823
-4.89592
-4.79992
-4.70042
-3.67486
-3.71563
-3.82662
-3.97703
-4.14612
-4.3271
-4.51198
-4.6921
-4.86135
-5.01557
-5.15179
-5.26811
-5.36368
-5.43848
-5.4931
-5.52864
-5.54653
-5.54842
-5.53602
-5.51101
-5.47492
-5.42913
-5.37481
-5.31296
-5.24443
-5.16994
-5.09013
-5.00556
-4.91674
-4.82415
-4.7282
-4.62932
-4.52778
-3.44058
-3.49628
-3.64064
-3.82985
-4.03546
-4.24942
-4.46288
-4.66665
-4.85486
-5.02377
-5.1707
-5.29405
-5.39328
-5.46863
-5.52096
-5.55164
-5.56241
-5.55524
-5.5322
-5.49535
-5.44663
-5.38776
-5.32028
-5.24545
-5.16437
-5.07796
-4.98699
-4.89216
-4.79409
-4.6933
-4.59029
-4.48546
-4.37913
-3.14459
-3.20282
-3.3677
-3.58424
-3.82096
-4.07002
-4.31881
-4.55471
-4.77044
-4.96157
-5.12495
-5.259
-5.3635
-5.43922
-5.48776
-5.51134
-5.51265
-5.49462
-5.46017
-5.41201
-5.35253
-5.28372
-5.2072
-5.12428
-5.036
-4.94321
-4.84662
-4.7469
-4.64463
-4.54038
-4.43469
-4.32803
-4.22086
-2.79786
-2.9123
-3.16467
-3.45509
-3.74606
-4.0391
-4.32417
-4.58946
-4.82933
-5.04016
-5.21899
-5.36429
-5.47583
-5.55434
-5.60139
-5.61929
-5.61096
-5.57974
-5.52926
-5.46306
-5.38438
-5.29603
-5.20026
-5.09884
-4.99309
-4.88404
-4.77253
-4.65928
-4.54496
-4.43017
-4.31552
-4.20146
-4.08847
-2.28626
-2.37507
-2.66686
-3.02725
-3.40111
-3.7794
-4.14004
-4.46759
-4.75681
-5.0044
-5.20816
-5.36794
-5.48495
-5.56134
-5.60022
-5.60562
-5.58228
-5.5353
-5.46968
-5.38973
-5.29897
-5.20023
-5.09564
-4.98673
-4.87457
-4.75988
-4.64329
-4.52537
-4.4068
-4.28829
-4.17071
-4.05486
-3.94171
-1.81335
-2.13462
-2.5999
-3.01405
-3.41537
-3.82878
-4.2238
-4.58477
-4.90795
-5.18777
-5.41961
-5.60179
-5.73437
-5.81856
-5.85672
-5.85239
-5.8105
-5.73706
-5.63941
-5.5247
-5.39891
-5.26667
-5.13121
-4.99445
-4.85732
-4.7203
-4.58366
-4.44777
-4.31318
-4.18055
-4.05074
-3.92453
-3.80339
-0.53428
-0.858079
-1.63151
-2.32894
-2.95897
-3.55289
-4.07632
-4.52628
-4.9103
-5.2295
-5.48475
-5.67812
-5.81172
-5.88816
-5.91163
-5.88802
-5.82459
-5.73104
-5.61578
-5.48494
-5.34462
-5.19955
-5.05266
-4.90602
-4.76033
-4.61571
-4.47224
-4.33007
-4.18962
-4.05168
-3.91739
-3.78843
-3.66736
-0.540111
-1.28976
-1.90747
-2.39156
-3.00815
-3.65521
-4.25258
-4.79876
-5.28355
-5.69235
-6.02009
-6.26629
-6.43137
-6.51646
-6.52376
-6.45685
-6.32219
-6.13402
-5.91832
-5.68916
-5.4587
-5.23703
-5.02963
-4.83785
-4.66118
-4.49764
-4.34427
-4.19787
-4.05493
-3.91283
-3.76705
-3.61892
-3.45478
5.66186
1.05065
-0.753655
-1.62915
-2.65599
-3.55429
-4.2697
-4.8804
-5.39853
-5.81994
-6.14924
-6.39063
-6.54666
-6.62026
-6.6153
-6.5387
-6.39904
-6.20907
-5.98414
-5.74481
-5.50592
-5.27696
-5.06316
-4.86568
-4.68289
-4.51165
-4.34828
-4.18953
-4.03265
-3.87631
-3.71835
-3.5612
-3.39743
-15.3476
-13.7149
-11.85
-12.4864
-15.7603
-20.7675
-26.1033
-30.2548
-31.8015
-30.3725
-26.681
-21.8867
-16.9627
-12.5034
-8.75369
-5.71487
-3.28751
-1.35976
0.168191
1.37924
2.339
3.09849
3.69742
4.16698
4.53194
4.81222
5.02386
5.17979
5.29042
5.36416
5.40781
5.42692
5.42604
5.40889
5.37856
5.33759
5.28806
5.23172
5.17001
5.10409
5.03493
4.96333
4.88994
4.81526
4.73972
4.66364
4.58727
4.51081
4.4344
4.35813
4.28208
4.20628
4.13073
4.05545
3.9804
3.90555
3.83087
3.7563
3.68178
3.60726
3.53268
3.45798
3.38309
3.30796
3.23252
3.15671
3.08048
3.00376
2.92651
2.84867
2.77019
2.69103
2.61113
2.53046
2.44896
2.36661
2.28337
2.19919
2.11404
2.02789
1.94071
1.85247
1.76314
1.67269
1.5811
1.48833
1.39436
1.29917
1.20273
1.10503
1.00602
0.905722
0.80403
0.701093
0.59653
0.491101
0.383129
0.27617
0.162709
0.0588854
-14.9073
-13.6226
-12.4081
-13.2087
-15.9896
-19.9408
-24.0165
-27.0462
-28.0454
-26.7837
-23.7621
-19.7939
-15.6122
-11.7169
-8.34999
-5.55348
-3.27405
-1.43382
0.0445741
1.2296
2.17786
2.93478
3.53659
4.01226
4.38515
4.67428
4.89509
5.06015
5.17967
5.2619
5.3136
5.34027
5.34645
5.33589
5.31166
5.27634
5.23203
5.18051
5.12323
5.06139
4.99599
4.92783
4.8576
4.78582
4.71293
4.63927
4.56513
4.4907
4.41614
4.34156
4.26706
4.19266
4.1184
4.04428
3.97029
3.89641
3.8226
3.74882
3.67503
3.60116
3.52717
3.45301
3.3786
3.3039
3.22886
3.1534
3.07749
3.00106
2.92406
2.84646
2.76818
2.68921
2.60947
2.52895
2.44759
2.36536
2.28222
2.19814
2.11307
2.027
1.93989
1.85172
1.76244
1.67204
1.58049
1.48776
1.39383
1.29868
1.20227
1.1046
1.00562
0.905353
0.803691
0.700785
0.596254
0.490864
0.382933
0.27602
0.16263
0.0588191
-14.1393
-13.4922
-12.8482
-13.5508
-15.7088
-18.7417
-21.8202
-24.0713
-24.7759
-23.7208
-21.2435
-17.9364
-14.3703
-10.9636
-7.94314
-5.37601
-3.2427
-1.49245
-0.0671943
1.08837
2.02222
2.77429
3.37726
3.85778
4.23772
4.53507
4.76465
4.9386
5.06685
5.15752
5.21725
5.25151
5.26481
5.2609
5.24287
5.21329
5.1743
5.1277
5.07496
5.0173
4.95574
4.89112
4.82414
4.75534
4.68518
4.61403
4.54217
4.46984
4.3972
4.32438
4.25147
4.17853
4.1056
4.03269
3.9598
3.88692
3.81402
3.74107
3.66802
3.59483
3.52146
3.44785
3.37394
3.2997
3.22506
3.14997
3.07439
2.99826
2.92153
2.84417
2.76611
2.68733
2.60777
2.5274
2.44618
2.36407
2.28104
2.19706
2.11209
2.0261
1.93906
1.85094
1.76173
1.67138
1.57987
1.48719
1.3933
1.29818
1.20181
1.10417
1.00522
0.904985
0.803354
0.70048
0.595982
0.49063
0.382741
0.275874
0.162557
0.0587541
-13.5022
-13.2593
-13.0029
-13.6552
-15.3507
-17.6592
-19.9617
-21.6086
-22.061
-21.1421
-19.0725
-16.2854
-13.2272
-10.2427
-7.53542
-5.18454
-3.19433
-1.53551
-0.166396
0.956503
1.87314
2.61806
3.22038
3.70439
4.09037
4.39523
4.63306
4.81554
4.95231
5.05127
5.11897
5.16081
5.18126
5.18404
5.17227
5.14851
5.11493
5.07333
5.02522
4.97183
4.91421
4.85322
4.78956
4.72382
4.65648
4.58791
4.51841
4.44824
4.37758
4.30656
4.2353
4.16387
4.09232
4.02066
3.94892
3.87707
3.80512
3.73302
3.66075
3.58827
3.51553
3.4425
3.36912
3.29534
3.22113
3.14642
3.07119
2.99536
2.91892
2.8418
2.76397
2.68539
2.60601
2.5258
2.44472
2.36275
2.27983
2.19595
2.11107
2.02517
1.9382
1.85015
1.761
1.6707
1.57925
1.48661
1.39276
1.29768
1.20134
1.10374
1.00482
0.904614
0.803013
0.700173
0.595708
0.490395
0.38255
0.275726
0.162485
0.058686
-12.9609
-12.9582
-12.9642
-13.5636
-14.8808
-16.6198
-18.3208
-19.4977
-19.7503
-18.9282
-17.175
-14.81
-12.1778
-9.55879
-7.13247
-4.98322
-3.13143
-1.56418
-0.253375
0.834169
1.731
2.46655
3.06643
3.55253
3.94348
4.25505
4.50057
4.6912
4.83621
4.94331
5.01889
5.06826
5.09585
5.10536
5.09989
5.08202
5.05393
5.01742
4.97401
4.92498
4.87139
4.8141
4.75386
4.69127
4.62681
4.56089
4.49383
4.42589
4.35726
4.28812
4.21856
4.14869
4.07856
4.0082
3.93764
3.86687
3.79589
3.72468
3.65322
3.58146
3.50939
3.43695
3.36411
3.29083
3.21706
3.14275
3.06787
2.99237
2.91621
2.83936
2.76176
2.68339
2.6042
2.52416
2.44323
2.36139
2.27859
2.19482
2.11004
2.02422
1.93733
1.84935
1.76025
1.67002
1.57861
1.48602
1.39221
1.29717
1.20087
1.1033
1.00442
0.904242
0.802673
0.699867
0.595437
0.490163
0.382362
0.27558
0.162415
0.0586184
-12.493
-12.6282
-12.7818
-13.3192
-14.3419
-15.6437
-16.882
-17.6941
-17.7822
-17.026
-15.5197
-13.4951
-11.217
-8.91223
-6.73701
-4.77474
-3.05576
-1.57929
-0.328227
0.721699
1.59637
2.32043
2.91608
3.40283
3.79762
4.11505
4.36762
4.56592
4.71885
4.83386
4.91718
4.97401
5.00872
5.02497
5.02583
5.0139
4.99134
4.95999
4.92137
4.87678
4.82729
4.7738
4.71705
4.65768
4.59618
4.53299
4.46842
4.40277
4.33625
4.26903
4.20124
4.13298
4.06431
3.99529
3.92595
3.8563
3.78633
3.71604
3.64541
3.57442
3.50303
3.43121
3.35894
3.28616
3.21284
3.13895
3.06444
2.98928
2.91342
2.83684
2.75948
2.68132
2.60233
2.52246
2.44169
2.35999
2.27732
2.19366
2.10898
2.02324
1.93644
1.84853
1.7595
1.66932
1.57797
1.48542
1.39166
1.29666
1.2004
1.10286
1.00401
0.903868
0.802332
0.69956
0.595166
0.489931
0.382175
0.275435
0.162347
0.05855
-12.067
-12.2681
-12.4931
-12.9644
-13.7526
-14.7127
-15.5927
-16.1231
-16.0836
-15.3785
-14.0676
-12.3194
-10.3371
-8.30353
-6.35213
-4.56214
-2.96946
-1.58201
-0.39141
0.61913
1.46958
2.18016
2.76984
3.25579
3.65325
3.97563
4.23455
4.44001
4.60049
4.72315
4.81403
4.87821
4.91998
4.94294
4.95015
4.94419
4.92722
4.90109
4.86733
4.82724
4.78193
4.73231
4.67913
4.62305
4.56459
4.50419
4.4422
4.3789
4.31454
4.2493
4.18333
4.11672
4.04958
3.98194
3.91386
3.84536
3.77644
3.7071
3.63733
3.56712
3.49645
3.42528
3.35358
3.28133
3.20849
3.13503
3.0609
2.98609
2.91054
2.83424
2.75713
2.6792
2.60041
2.52072
2.44012
2.35856
2.27602
2.19247
2.10789
2.02225
1.93553
1.8477
1.75873
1.66861
1.57731
1.48482
1.3911
1.29614
1.19992
1.10242
1.0036
0.903495
0.801993
0.699256
0.594898
0.489702
0.381992
0.275292
0.162281
0.0584827
-11.6569
-11.8835
-12.1331
-12.5367
-13.1375
-13.8329
-14.4379
-14.7527
-14.6139
-13.9472
-12.791
-11.2678
-9.53294
-7.73262
-5.97997
-4.34782
-2.87441
-1.57351
-0.443425
0.526433
1.35091
2.04619
2.62823
3.11193
3.51089
3.83725
4.10178
4.31383
4.48143
4.61144
4.70966
4.78105
4.82978
4.85941
4.87296
4.87298
4.86163
4.84076
4.81191
4.7764
4.73534
4.68965
4.64012
4.58741
4.53205
4.47451
4.41515
4.35427
4.29214
4.22894
4.16483
4.09993
4.03435
3.96814
3.90136
3.83405
3.76621
3.69785
3.62898
3.55958
3.48964
3.41914
3.34805
3.27634
3.20399
3.13097
3.05725
2.98279
2.90757
2.83156
2.75472
2.67702
2.59843
2.51894
2.4385
2.35709
2.27468
2.19126
2.10678
2.02124
1.9346
1.84685
1.75795
1.66789
1.57665
1.4842
1.39053
1.29562
1.19943
1.10197
1.00319
0.903121
0.801654
0.698953
0.594632
0.489475
0.381812
0.275151
0.162217
0.0584163
-11.2596
-11.4855
-11.7283
-12.0626
-12.5114
-13.0003
-13.3934
-13.5434
-13.3295
-12.6948
-11.6636
-10.3252
-8.79798
-7.19868
-5.62218
-4.13403
-2.7725
-1.55504
-0.484935
0.443416
1.24047
1.91884
2.49167
2.97173
3.37097
3.70035
3.9697
4.18772
4.36197
4.49897
4.60428
4.68269
4.73827
4.7745
4.79436
4.80035
4.79465
4.77907
4.75519
4.7243
4.68755
4.64586
4.60004
4.55075
4.49857
4.44395
4.38728
4.32889
4.26904
4.20793
4.14574
4.0826
4.01863
3.95389
3.88846
3.82237
3.75564
3.68831
3.62036
3.5518
3.48262
3.4128
3.34233
3.27119
3.19935
3.12679
3.05349
2.9794
2.90452
2.8288
2.75223
2.67477
2.59641
2.5171
2.43684
2.35558
2.27332
2.19002
2.10565
2.02021
1.93366
1.84598
1.75716
1.66716
1.57598
1.48359
1.38996
1.29509
1.19895
1.10153
1.00279
0.902749
0.801317
0.698652
0.594369
0.489251
0.381634
0.275012
0.162154
0.0583521
-10.8654
-11.075
-11.2935
-11.5613
-11.8871
-12.2152
-12.4462
-12.4715
-12.2021
-11.5948
-10.6655
-9.4793
-8.12679
-6.70067
-5.27997
-3.92264
-2.66545
-1.52786
-0.516667
0.369793
1.1383
1.79835
2.36054
2.83561
3.23397
3.56536
3.83871
4.06205
4.24243
4.38602
4.49813
4.58335
4.64564
4.68837
4.71447
4.72642
4.72635
4.7161
4.6972
4.67099
4.63859
4.60096
4.55891
4.51312
4.46416
4.41253
4.35862
4.30277
4.24525
4.18629
4.12607
4.06474
4.00242
3.9392
3.87515
3.81032
3.74475
3.67845
3.61146
3.54377
3.47537
3.40627
3.33644
3.26589
3.19457
3.12249
3.04961
2.97591
2.90137
2.82597
2.74967
2.67247
2.59433
2.51523
2.43514
2.35405
2.27192
2.18875
2.1045
2.01916
1.9327
1.84511
1.75636
1.66643
1.5753
1.48297
1.38939
1.29457
1.19847
1.10108
1.00238
0.902378
0.800982
0.698354
0.59411
0.48903
0.381461
0.274876
0.162091
0.0582901
-10.4761
-10.6603
-10.8447
-11.0495
-11.2743
-11.4766
-11.5833
-11.5146
-11.2052
-10.6229
-9.77806
-8.71862
-7.51378
-6.23712
-4.95409
-3.71522
-2.55488
-1.49322
-0.539426
0.305171
1.04435
1.68489
2.23513
2.70395
3.10027
3.43267
3.70919
3.93716
4.12314
4.27289
4.39146
4.48325
4.55205
4.60117
4.63343
4.65129
4.65685
4.65191
4.63803
4.61652
4.58852
4.55499
4.51676
4.47452
4.42886
4.38027
4.32917
4.27591
4.22078
4.16402
4.10582
4.04635
3.98573
3.92406
3.86143
3.7979
3.73351
3.6683
3.60229
3.53549
3.4679
3.39954
3.33038
3.26042
3.18965
3.11806
3.04562
2.97232
2.89814
2.82306
2.74705
2.67011
2.5922
2.5133
2.4334
2.35247
2.2705
2.18746
2.10333
2.01809
1.93173
1.84422
1.75554
1.66569
1.57462
1.48234
1.38882
1.29404
1.19798
1.10064
1.00197
0.902009
0.800651
0.698059
0.593854
0.488813
0.381291
0.274743
0.162031
0.0582314
-10.0891
-10.2432
-10.3896
-10.5366
-10.6788
-10.7829
-10.795
-10.6565
-10.3196
-9.76066
-8.98678
-8.03351
-6.95395
-5.80646
-4.64497
-3.51308
-2.44221
-1.45233
-0.554049
0.249083
0.958442
1.57853
2.11567
2.57707
2.97025
3.30269
3.58153
3.81342
4.00441
4.15986
4.28454
4.38261
4.45773
4.51307
4.55139
4.57509
4.58624
4.58661
4.57774
4.56096
4.53739
4.50801
4.47365
4.435
4.39268
4.34719
4.29896
4.24835
4.19566
4.14115
4.08502
4.02744
3.96856
3.90849
3.84732
3.78513
3.72196
3.65786
3.59285
3.52697
3.46022
3.39261
3.32413
3.2548
3.18459
3.1135
3.04152
2.96863
2.89482
2.82007
2.74437
2.66769
2.59002
2.51134
2.43163
2.35087
2.26905
2.18615
2.10214
2.01701
1.93074
1.84332
1.75472
1.66494
1.57394
1.48171
1.38824
1.29351
1.1975
1.10019
1.00157
0.901644
0.800323
0.697769
0.593603
0.488601
0.381125
0.274614
0.161971
0.0581762
-9.70675
-9.82896
-9.93666
-10.0315
-10.1058
-10.133
-10.0731
-9.88322
-9.52866
-8.992
-8.27862
-7.41515
-6.44247
-5.4069
-4.35271
-3.31724
-2.32872
-1.40633
-0.561399
0.200995
0.880343
1.47926
2.00232
2.45523
2.84424
3.17575
3.45608
3.69118
3.88657
4.04724
4.17762
4.28167
4.36287
4.42426
4.46852
4.49797
4.51465
4.5203
4.51644
4.50439
4.48528
4.46008
4.42961
4.39461
4.35568
4.31333
4.26801
4.2201
4.1699
4.11768
4.06366
4.00803
3.95093
3.8925
3.83283
3.772
3.71008
3.64712
3.58315
3.51822
3.45232
3.38549
3.31772
3.24903
3.17939
3.10883
3.03732
2.96485
2.89142
2.81701
2.74161
2.66521
2.58779
2.50933
2.42982
2.34924
2.26757
2.18481
2.10093
2.01591
1.92975
1.84241
1.7539
1.66418
1.57325
1.48108
1.38766
1.29298
1.19701
1.09975
1.00117
0.901283
0.800001
0.697484
0.593358
0.488394
0.380964
0.27449
0.161912
0.0581255
-9.32931
-9.4197
-9.49018
-9.53898
-9.55762
-9.52479
-9.41059
-9.18375
-8.81906
-8.30405
-7.64297
-6.85607
-5.97501
-5.03663
-4.07721
-3.12849
-2.21553
-1.35631
-0.562332
0.160327
0.809741
1.38699
1.89518
2.33866
2.72253
3.0522
3.33318
3.57077
3.76996
3.93532
4.071
4.18069
4.2677
4.33494
4.38498
4.42008
4.44221
4.4531
4.45423
4.44691
4.43226
4.41125
4.38472
4.35339
4.31788
4.27872
4.23636
4.19119
4.14352
4.09364
4.04178
3.98813
3.93286
3.8761
3.81796
3.75853
3.69789
3.6361
3.5732
3.50923
3.44422
3.37819
3.31115
3.2431
3.17407
3.10404
3.03301
2.96098
2.88794
2.81388
2.7388
2.66268
2.58551
2.50728
2.42797
2.34757
2.26607
2.18345
2.0997
2.0148
1.92874
1.8415
1.75307
1.66342
1.57256
1.48045
1.38709
1.29245
1.19653
1.09932
1.00077
0.900928
0.799684
0.697205
0.593118
0.488193
0.380808
0.27437
0.161854
0.0580797
-8.95876
-9.01863
-9.05454
-9.06314
-9.03623
-8.95658
-8.80174
-8.54887
-8.17984
-7.68588
-7.07055
-6.34953
-5.54749
-4.69379
-3.81815
-2.94741
-2.10359
-1.30327
-0.557691
0.12647
0.74627
1.30158
1.79425
2.22749
2.60534
2.93232
3.21315
3.45251
3.65487
3.82441
3.96494
4.07992
4.17246
4.24532
4.30097
4.34159
4.36908
4.38514
4.39122
4.38861
4.37842
4.36161
4.33904
4.31141
4.27936
4.24342
4.20406
4.16166
4.11657
4.06906
4.0194
3.96777
3.91436
3.8593
3.80273
3.74473
3.68541
3.62481
3.563
3.50003
3.43592
3.37071
3.30441
3.23704
3.16861
3.09913
3.0286
2.95702
2.88438
2.81069
2.73593
2.6601
2.58319
2.5052
2.4261
2.34589
2.26455
2.18208
2.09846
2.01368
1.92772
1.84058
1.75223
1.66266
1.57186
1.47982
1.38651
1.29193
1.19606
1.09889
1.00039
0.900579
0.799374
0.696934
0.592886
0.488
0.380658
0.274256
0.161797
0.0580393
-8.59609
-8.62744
-8.63204
-8.60606
-8.54207
-8.42612
-8.24125
-7.97085
-7.60191
-7.12845
-6.55364
-5.88976
-5.15625
-4.37657
-3.57507
-2.77439
-1.99372
-1.24809
-0.548287
0.0987972
0.689517
1.2228
1.6995
2.12182
2.49287
2.81636
3.09628
3.33671
3.54163
3.71481
3.85974
3.97963
4.07738
4.15561
4.21668
4.26267
4.29541
4.31656
4.32754
4.3296
4.32385
4.31125
4.29264
4.26873
4.24016
4.20747
4.17113
4.13155
4.08907
4.04398
3.99654
3.94697
3.89545
3.84214
3.78716
3.73063
3.67264
3.61327
3.55257
3.49062
3.42743
3.36306
3.29752
3.23085
3.16304
3.09413
3.0241
2.95298
2.88076
2.80743
2.73301
2.65748
2.58084
2.50308
2.42419
2.34417
2.26301
2.18069
2.09721
2.01255
1.9267
1.83965
1.75139
1.6619
1.57117
1.47919
1.38594
1.29141
1.19559
1.09846
1
0.900238
0.799073
0.696671
0.592662
0.487814
0.380514
0.274148
0.161742
0.058005
-8.24269
-8.24796
-8.22474
-8.16934
-8.07534
-7.93143
-7.72476
-7.44326
-7.07771
-6.62418
-6.08557
-5.47167
-4.79792
-4.08318
-3.34742
-2.60967
-1.88657
-1.19161
-0.534894
0.076679
0.639033
1.15041
1.61083
2.02168
2.38526
2.70453
2.98282
3.22365
3.43052
3.6068
3.75566
3.88007
3.98271
4.06606
4.13233
4.18351
4.22138
4.24752
4.26332
4.27002
4.26868
4.26027
4.24562
4.22544
4.20036
4.17095
4.13766
4.10092
4.06107
4.01843
3.97325
3.92577
3.87617
3.82462
3.77127
3.71623
3.65961
3.60148
3.54193
3.48101
3.41877
3.35525
3.2905
3.22452
3.15736
3.08902
3.01952
2.94886
2.87706
2.80412
2.73004
2.65481
2.57845
2.50093
2.42227
2.34244
2.26145
2.17929
2.09595
2.01141
1.92568
1.83873
1.75055
1.66114
1.57049
1.47857
1.38538
1.2909
1.19513
1.09805
0.999631
0.899906
0.798781
0.696417
0.592448
0.487637
0.380377
0.274047
0.161687
0.0579774
-7.89959
-7.88135
-7.83377
-7.75362
-7.63552
-7.47033
-7.24827
-6.9606
-6.60089
-6.16667
-5.66066
-5.09082
-4.46949
-3.81194
-3.13457
-2.45337
-1.78269
-1.13453
-0.518236
0.0594911
0.594349
1.08409
1.5281
1.92706
2.2826
2.597
2.873
3.11359
3.32181
3.50066
3.65299
3.78151
3.88871
3.97689
4.04812
4.10432
4.14717
4.17819
4.19873
4.20999
4.21303
4.20878
4.19807
4.18162
4.16005
4.13391
4.10369
4.06981
4.03263
3.99245
3.94956
3.90419
3.85655
3.8068
3.7551
3.70157
3.64633
3.58948
3.53108
3.47122
3.40994
3.3473
3.28334
3.21809
3.15158
3.08383
3.01486
2.94468
2.87331
2.80076
2.72702
2.65211
2.57602
2.49876
2.42032
2.3407
2.25989
2.17788
2.09468
2.01027
1.92465
1.8378
1.74972
1.66039
1.5698
1.47795
1.38482
1.2904
1.19467
1.09764
0.999268
0.899584
0.798499
0.696174
0.592243
0.487469
0.380248
0.273954
0.161635
0.0579565
-7.56766
-7.52853
-7.45993
-7.35918
-7.22193
-7.04078
-6.80831
-6.51821
-6.16608
-5.75052
-5.27408
-4.74332
-4.16824
-3.56125
-2.93586
-2.3055
-1.68251
-1.0775
-0.498989
0.0466237
0.554977
1.0235
1.4511
1.8379
2.18492
2.49389
2.767
3.00675
3.21576
3.39666
3.552
3.68423
3.79563
3.88834
3.9643
4.0253
4.07296
4.10873
4.13391
4.14967
4.15702
4.1569
4.15011
4.13737
4.1193
4.09645
4.06931
4.03831
4.0038
3.96612
3.92554
3.8823
3.83663
3.7887
3.73867
3.68668
3.63285
3.57728
3.52006
3.46127
3.40098
3.33923
3.27607
3.21155
3.1457
3.07855
3.01013
2.94044
2.86951
2.79735
2.72397
2.64938
2.57358
2.49657
2.41836
2.33894
2.25831
2.17647
2.09341
2.00913
1.92362
1.83688
1.74889
1.65964
1.56913
1.47734
1.38427
1.28991
1.19423
1.09725
0.998918
0.899276
0.798231
0.695944
0.592051
0.487313
0.380129
0.273869
0.161584
0.0579435
-7.24765
-7.19015
-7.10358
-6.98589
-6.83361
-6.64078
-6.40176
-6.11206
-5.76872
-5.37113
-4.92166
-4.42581
-3.89174
-3.32961
-2.75061
-2.166
-1.58638
-1.02107
-0.477778
0.0374873
0.520426
0.968275
1.3796
1.75407
2.09223
2.39529
2.66498
2.90334
3.1126
3.29505
3.45294
3.58848
3.70373
3.80066
3.88109
3.94669
3.99898
4.03935
4.06906
4.08921
4.10082
4.10477
4.10187
4.09281
4.07823
4.05866
4.0346
4.00648
3.97466
3.93948
3.90122
3.86014
3.81645
3.77036
3.72202
3.67158
3.61918
3.56492
3.50889
3.45119
3.39189
3.33104
3.26871
3.20493
3.13976
3.07322
3.00534
2.93615
2.86567
2.79391
2.72089
2.64662
2.57111
2.49437
2.41638
2.33717
2.25673
2.17505
2.09214
2.008
1.9226
1.83596
1.74806
1.6589
1.56847
1.47675
1.38374
1.28943
1.19381
1.09687
0.998581
0.89898
0.797976
0.695727
0.591871
0.487168
0.38002
0.273792
0.161536
0.0579375
-6.94009
-6.86662
-6.76486
-6.63339
-6.46951
-6.26843
-6.02587
-5.73868
-5.40494
-5.02458
-4.59983
-4.13532
-3.63781
-3.11565
-2.57813
-2.03474
-1.49455
-0.965717
-0.455176
0.0315165
0.490201
0.918032
1.31334
1.67544
2.00447
2.30124
2.56704
2.80353
3.01255
3.19607
3.35607
3.49451
3.61326
3.7141
3.79873
3.86869
3.92543
3.97025
4.00435
4.0288
4.04457
4.05253
4.05347
4.04806
4.03694
4.02064
3.99966
3.97441
3.94528
3.91261
3.87668
3.83776
3.79608
3.75183
3.7052
3.65633
3.60536
3.55242
3.4976
3.441
3.3827
3.32277
3.26127
3.19825
3.13376
3.06783
3.00051
2.93183
2.8618
2.79045
2.7178
2.64386
2.56864
2.49216
2.41441
2.33541
2.25515
2.17364
2.09088
2.00687
1.92159
1.83506
1.74725
1.65818
1.56782
1.47617
1.38322
1.28897
1.19339
1.0965
0.998262
0.898703
0.797738
0.695527
0.591708
0.487039
0.379923
0.273727
0.161492
0.0579405
-6.64533
-6.55808
-6.44364
-6.30113
-6.12851
-5.92193
-5.67816
-5.39503
-5.07139
-4.70752
-4.3055
-3.86929
-3.40451
-2.91809
-2.41778
-1.91157
-1.40723
-0.911877
-0.431711