/*--------------------------------*- C++ -*----------------------------------*\
| =========                 |                                                 |
| \\      /  F ield         | OpenFOAM: The Open Source CFD Toolbox           |
|  \\    /   O peration     | Version:  2.1.1                                 |
|   \\  /    A nd           | Web:      www.OpenFOAM.org                      |
|    \\/     M anipulation  |                                                 |
\*---------------------------------------------------------------------------*/
FoamFile
{
    version     2.0;
    format      ascii;
    class       surfaceScalarField;
    location    "0.01";
    object      phi;
}
// * * * * * * * * * * * * * * * * * * * * * * * * * * * * * * * * * * * * * //

dimensions      [0 3 -1 0 0 0 0];

internalField   nonuniform List<scalar> 
13452
(
4.60115e-05
2.24758e-05
2.97036e-05
1.63079e-05
2.12665e-05
8.43702e-06
1.74156e-05
3.85095e-06
1.58366e-05
1.57895e-06
1.51069e-05
7.2971e-07
1.46902e-05
4.16691e-07
1.44105e-05
2.79779e-07
1.42085e-05
2.01961e-07
1.40703e-05
1.38185e-07
1.3994e-05
7.62804e-08
1.39795e-05
1.45322e-08
1.4023e-05
-4.34593e-08
1.41268e-05
-1.03852e-07
1.42932e-05
-1.6634e-07
1.45193e-05
-2.2613e-07
1.47969e-05
-2.77568e-07
1.51149e-05
-3.18081e-07
1.54633e-05
-3.4841e-07
1.58352e-05
-3.71882e-07
1.62285e-05
-3.9325e-07
1.6646e-05
-4.175e-07
1.7095e-05
-4.49009e-07
1.75862e-05
-4.91197e-07
1.81329e-05
-5.46683e-07
1.87505e-05
-6.17632e-07
1.94576e-05
-7.07115e-07
2.02759e-05
-8.18237e-07
2.1239e-05
-9.6318e-07
2.23812e-05
-1.14221e-06
2.38138e-05
-1.43251e-06
2.55608e-05
-1.7471e-06
-2.83036e-06
2.83912e-05
7.49224e-05
1.79973e-05
7.04581e-05
2.07722e-05
6.34342e-05
1.5461e-05
5.68732e-05
1.0412e-05
5.18775e-05
6.57459e-06
4.83727e-05
4.23455e-06
4.59372e-05
2.85215e-06
4.42346e-05
1.98243e-06
4.30379e-05
1.39861e-06
4.22044e-05
9.71696e-07
4.16484e-05
6.32288e-07
4.13173e-05
3.45598e-07
4.11836e-05
9.02987e-08
4.1226e-05
-1.46307e-07
4.1423e-05
-3.63295e-07
4.17508e-05
-5.53944e-07
4.21842e-05
-7.10959e-07
4.26977e-05
-8.31611e-07
4.32689e-05
-9.19591e-07
4.38814e-05
-9.84429e-07
4.45273e-05
-1.03913e-06
4.52071e-05
-1.09731e-06
4.5929e-05
-1.17083e-06
4.67065e-05
-1.26871e-06
4.75569e-05
-1.39715e-06
4.84998e-05
-1.56047e-06
4.95559e-05
-1.76326e-06
5.07488e-05
-2.01118e-06
5.2105e-05
-2.31937e-06
5.36632e-05
-2.70032e-06
5.54563e-05
-3.22563e-06
5.76157e-05
-3.90653e-06
-5.0382e-06
5.98236e-05
7.85223e-05
1.19316e-05
8.235e-05
1.69444e-05
8.3047e-05
1.47641e-05
8.16055e-05
1.18535e-05
7.91962e-05
8.98383e-06
7.66655e-05
6.7653e-06
7.43482e-05
5.16939e-06
7.23519e-05
3.97875e-06
7.06951e-05
3.05545e-06
6.93593e-05
2.30744e-06
6.83177e-05
1.67394e-06
6.75449e-05
1.11841e-06
6.7015e-05
6.20161e-07
6.67043e-05
1.64372e-07
6.65931e-05
-2.52059e-07
6.66569e-05
-6.17719e-07
6.6867e-05
-9.21122e-07
6.7195e-05
-1.15961e-06
6.76148e-05
-1.33938e-06
6.81046e-05
-1.47418e-06
6.86477e-05
-1.58232e-06
6.92336e-05
-1.68314e-06
6.9857e-05
-1.79421e-06
7.0518e-05
-1.92976e-06
7.12214e-05
-2.10057e-06
7.19757e-05
-2.31475e-06
7.27921e-05
-2.57969e-06
7.36843e-05
-2.90337e-06
7.4665e-05
-3.30007e-06
7.57503e-05
-3.78556e-06
7.69279e-05
-4.4032e-06
7.81956e-05
-5.17423e-06
-6.17566e-06
7.9333e-05
7.81482e-05
8.30998e-06
8.1927e-05
1.31656e-05
8.46269e-05
1.20642e-05
8.62614e-05
1.02189e-05
8.69685e-05
8.27673e-06
8.71093e-05
6.62451e-06
8.69333e-05
5.34534e-06
8.65895e-05
4.3226e-06
8.61754e-05
3.46959e-06
8.57523e-05
2.73053e-06
8.53597e-05
2.06652e-06
8.50234e-05
1.45465e-06
8.47605e-05
8.83118e-07
8.45743e-05
3.50582e-07
8.44558e-05
-1.33557e-07
8.43977e-05
-5.59668e-07
8.43977e-05
-9.21077e-07
8.44541e-05
-1.21599e-06
8.45644e-05
-1.44969e-06
8.47247e-05
-1.63451e-06
8.49291e-05
-1.78669e-06
8.5169e-05
-1.92304e-06
8.54335e-05
-2.05874e-06
8.57104e-05
-2.20662e-06
8.59877e-05
-2.37787e-06
8.62563e-05
-2.58334e-06
8.65118e-05
-2.83521e-06
8.67559e-05
-3.14751e-06
8.69944e-05
-3.53852e-06
8.7236e-05
-4.02722e-06
8.74735e-05
-4.6407e-06
8.7695e-05
-5.39572e-06
-6.28926e-06
8.78086e-05
7.89939e-05
5.97191e-06
8.1599e-05
1.05606e-05
8.35301e-05
1.01331e-05
8.49743e-05
8.77467e-06
8.59879e-05
7.26316e-06
8.67194e-05
5.89306e-06
8.72722e-05
4.79245e-06
8.76958e-05
3.89906e-06
8.80223e-05
3.14304e-06
8.82733e-05
2.47959e-06
8.84623e-05
1.87752e-06
8.85989e-05
1.31805e-06
8.86896e-05
7.92369e-07
8.87401e-05
3.00084e-07
8.87584e-05
-1.51847e-07
8.87537e-05
-5.54918e-07
8.8736e-05
-9.03403e-07
8.87168e-05
-1.19681e-06
8.87078e-05
-1.44074e-06
8.87191e-05
-1.64576e-06
8.87569e-05
-1.82455e-06
8.8823e-05
-1.98912e-06
8.89137e-05
-2.14941e-06
8.90207e-05
-2.31365e-06
8.91332e-05
-2.49031e-06
8.924e-05
-2.69021e-06
8.93332e-05
-2.9284e-06
8.94099e-05
-3.22414e-06
8.94717e-05
-3.60034e-06
8.95237e-05
-4.07928e-06
8.95638e-05
-4.68077e-06
8.95815e-05
-5.41336e-06
-6.25175e-06
8.9544e-05
8.04653e-05
4.35251e-06
8.25141e-05
8.51183e-06
8.40093e-05
8.63788e-06
8.50787e-05
7.70531e-06
8.581e-05
6.53187e-06
8.63292e-05
5.37386e-06
8.67353e-05
4.38632e-06
8.70732e-05
3.56115e-06
8.73635e-05
2.85278e-06
8.76148e-05
2.2283e-06
8.78289e-05
1.66337e-06
8.80055e-05
1.14148e-06
8.81435e-05
6.54342e-07
8.82443e-05
1.99321e-07
8.83145e-05
-2.22096e-07
8.83641e-05
-6.04466e-07
8.84037e-05
-9.43001e-07
8.84449e-05
-1.23807e-06
8.8499e-05
-1.49483e-06
8.85748e-05
-1.72152e-06
8.86773e-05
-1.92705e-06
8.88072e-05
-2.11907e-06
8.89614e-05
-2.3036e-06
8.9134e-05
-2.48623e-06
8.93183e-05
-2.67458e-06
8.95086e-05
-2.8805e-06
8.97014e-05
-3.12129e-06
8.98961e-05
-3.41876e-06
9.00926e-05
-3.79683e-06
9.02901e-05
-4.27679e-06
9.04815e-05
-4.87223e-06
9.06529e-05
-5.58479e-06
-6.38628e-06
9.07875e-05
8.22361e-05
3.21495e-06
8.39023e-05
6.84567e-06
8.5199e-05
7.34114e-06
8.61444e-05
6.75995e-06
8.68e-05
5.87626e-06
8.72549e-05
4.91897e-06
8.75956e-05
4.04556e-06
8.78701e-05
3.28669e-06
8.81031e-05
2.61977e-06
8.83079e-05
2.02347e-06
8.84905e-05
1.48078e-06
8.8653e-05
9.78991e-07
8.87963e-05
5.11061e-07
8.89216e-05
7.40505e-08
8.90311e-05
-3.3164e-07
8.91298e-05
-7.03135e-07
8.92249e-05
-1.03814e-06
8.93249e-05
-1.3381e-06
8.94377e-05
-1.6076e-06
8.9569e-05
-1.8528e-06
8.97215e-05
-2.07954e-06
8.98948e-05
-2.29243e-06
9.00864e-05
-2.49518e-06
9.02927e-05
-2.69252e-06
9.05107e-05
-2.89253e-06
9.07386e-05
-3.10843e-06
9.09762e-05
-3.35887e-06
9.12236e-05
-3.66616e-06
9.14796e-05
-4.05286e-06
9.17401e-05
-4.53722e-06
9.19958e-05
-5.12801e-06
9.22334e-05
-5.82237e-06
-6.59468e-06
9.24418e-05
8.42184e-05
2.41213e-06
8.55575e-05
5.50651e-06
8.66877e-05
6.21097e-06
8.75557e-05
5.89195e-06
8.81943e-05
5.23763e-06
8.86559e-05
4.45739e-06
8.90051e-05
3.6964e-06
8.92847e-05
3.00709e-06
8.95193e-05
2.38518e-06
8.97236e-05
1.81913e-06
8.99058e-05
1.29858e-06
9.007e-05
8.14763e-07
9.02188e-05
3.62329e-07
9.03537e-05
-6.08772e-08
9.0477e-05
-4.5496e-07
9.05928e-05
-8.18901e-07
9.07071e-05
-1.15242e-06
9.08266e-05
-1.45766e-06
9.09576e-05
-1.73863e-06
9.11046e-05
-1.99974e-06
9.12696e-05
-2.24452e-06
9.14525e-05
-2.4754e-06
9.16521e-05
-2.69475e-06
9.18666e-05
-2.907e-06
9.20949e-05
-3.12083e-06
9.23368e-05
-3.35035e-06
9.25926e-05
-3.61465e-06
9.28618e-05
-3.93539e-06
9.3142e-05
-4.33303e-06
9.34274e-05
-4.82266e-06
9.37092e-05
-5.40974e-06
9.39758e-05
-6.08901e-06
-6.83875e-06
9.42199e-05
8.63736e-05
1.83729e-06
8.74474e-05
4.43264e-06
8.84261e-05
5.23227e-06
8.9213e-05
5.10508e-06
8.98208e-05
4.62984e-06
9.02796e-05
3.99859e-06
9.06359e-05
3.34007e-06
9.09255e-05
2.71749e-06
9.11701e-05
2.14064e-06
9.13831e-05
1.60613e-06
9.15727e-05
1.10895e-06
9.17437e-05
6.43794e-07
9.1899e-05
2.06933e-07
9.20416e-05
-2.03437e-07
9.21745e-05
-5.87828e-07
9.2302e-05
-9.46435e-07
9.24297e-05
-1.28011e-06
9.25633e-05
-1.59121e-06
9.27076e-05
-1.88293e-06
9.28659e-05
-2.1581e-06
9.30399e-05
-2.41845e-06
9.32294e-05
-2.66492e-06
9.34338e-05
-2.89916e-06
9.36525e-05
-3.12573e-06
9.38856e-05
-3.35391e-06
9.41336e-05
-3.59838e-06
9.4397e-05
-3.87804e-06
9.46749e-05
-4.21331e-06
9.49642e-05
-4.62234e-06
9.52589e-05
-5.1173e-06
9.55503e-05
-5.70121e-06
9.58289e-05
-6.36755e-06
-7.09785e-06
9.6088e-05
8.86689e-05
1.41844e-06
8.953e-05
3.57147e-06
9.03743e-05
4.38802e-06
9.10844e-05
4.39492e-06
9.16572e-05
4.05707e-06
9.21073e-05
3.5485e-06
9.2466e-05
2.98135e-06
9.27618e-05
2.42166e-06
9.30135e-05
1.88894e-06
9.32335e-05
1.38617e-06
9.34298e-05
9.12605e-07
9.36077e-05
4.65894e-07
9.37708e-05
4.38456e-08
9.39223e-05
-3.54933e-07
9.40656e-05
-7.31062e-07
9.42046e-05
-1.08543e-06
9.4344e-05
-1.41951e-06
9.44884e-05
-1.73563e-06
9.46417e-05
-2.03623e-06
9.48064e-05
-2.32287e-06
9.49839e-05
-2.59595e-06
9.51745e-05
-2.8555e-06
9.53783e-05
-3.10292e-06
9.55956e-05
-3.34306e-06
9.58274e-05
-3.58573e-06
9.60748e-05
-3.84578e-06
9.63383e-05
-4.14147e-06
9.66165e-05
-4.49157e-06
9.6906e-05
-4.91181e-06
9.72004e-05
-5.41169e-06
9.74914e-05
-5.99227e-06
9.77702e-05
-6.64634e-06
-7.35789e-06
9.80303e-05
9.10824e-05
1.10736e-06
9.17749e-05
2.87899e-06
9.25019e-05
3.66097e-06
9.31418e-05
3.75506e-06
9.36783e-05
3.52053e-06
9.41154e-05
3.11144e-06
9.44725e-05
2.62421e-06
9.47716e-05
2.12258e-06
9.50286e-05
1.63199e-06
9.52544e-05
1.16031e-06
9.54568e-05
7.10193e-07
9.5641e-05
2.817e-07
9.58109e-05
-1.26026e-07
9.59698e-05
-5.13809e-07
9.61212e-05
-8.82443e-07
9.62689e-05
-1.23318e-06
9.64171e-05
-1.56775e-06
9.65697e-05
-1.88823e-06
9.67297e-05
-2.19621e-06
9.6899e-05
-2.49216e-06
9.70786e-05
-2.77549e-06
9.72688e-05
-3.04571e-06
9.74701e-05
-3.30428e-06
9.76836e-05
-3.55653e-06
9.79106e-05
-3.81272e-06
9.81524e-05
-4.08762e-06
9.84095e-05
-4.39859e-06
9.86805e-05
-4.76257e-06
9.89616e-05
-5.19287e-06
9.92464e-05
-5.69652e-06
9.9527e-05
-6.2729e-06
9.97949e-05
-6.91423e-06
-7.60617e-06
0.000100043
9.36005e-05
8.71518e-07
9.416e-05
2.31947e-06
9.47852e-05
3.0358e-06
9.53602e-05
3.18006e-06
9.586e-05
3.02071e-06
9.62811e-05
2.6903e-06
9.66342e-05
2.27115e-06
9.69349e-05
1.82186e-06
9.71962e-05
1.37076e-06
9.74273e-05
9.29133e-07
9.76354e-05
5.02093e-07
9.78256e-05
9.15683e-08
9.80017e-05
-3.02139e-07
9.81672e-05
-6.79371e-07
9.83257e-05
-1.04088e-06
9.84805e-05
-1.38801e-06
9.86352e-05
-1.72248e-06
9.8793e-05
-2.04595e-06
9.8956e-05
-2.35926e-06
9.91259e-05
-2.66201e-06
9.93034e-05
-2.95299e-06
9.94892e-05
-3.2315e-06
9.96842e-05
-3.49928e-06
9.98898e-05
-3.76217e-06
0.000100108
-4.03074e-06
0.00010034
-4.31947e-06
0.000100586
-4.64457e-06
0.000100844
-5.02107e-06
0.000101111
-5.45986e-06
0.00010138
-5.9657e-06
0.000101644
-6.53641e-06
0.000101893
-7.16369e-06
-7.8343e-06
0.000102121
9.62146e-05
6.88965e-07
9.66697e-05
1.86438e-06
9.72073e-05
2.49826e-06
9.77231e-05
2.66418e-06
9.8187e-05
2.55684e-06
9.85902e-05
2.28713e-06
9.89366e-05
1.92476e-06
9.92366e-05
1.52183e-06
9.95002e-05
1.10717e-06
9.97352e-05
6.94145e-07
9.99477e-05
2.8955e-07
0.000100143
-1.03306e-07
0.000100324
-4.83192e-07
0.000100494
-8.49998e-07
0.000100658
-1.20436e-06
0.000100817
-1.54755e-06
0.000100976
-1.88113e-06
0.000101136
-2.20625e-06
0.0001013
-2.52306e-06
0.000101468
-2.83044e-06
0.000101642
-3.12675e-06
0.000101822
-3.41131e-06
0.000102009
-3.68627e-06
0.000102205
-3.95798e-06
0.000102411
-4.23726e-06
0.00010263
-4.53813e-06
0.000102861
-4.87557e-06
0.000103103
-5.26263e-06
0.000103351
-5.70789e-06
0.000103599
-6.21395e-06
0.00010384
-6.77712e-06
0.000104064
-7.38851e-06
-8.03563e-06
0.000104266
9.89199e-05
5.44761e-07
9.92932e-05
1.49116e-06
9.9756e-05
2.03542e-06
0.000100218
2.2018e-06
0.000100648
2.12768e-06
0.000101031
1.90332e-06
0.000101369
1.58717e-06
0.000101666
1.22443e-06
0.000101931
8.42767e-07
0.000102168
4.56515e-07
0.000102384
7.34912e-08
0.000102583
-3.02076e-07
0.000102768
-6.68269e-07
0.000102943
-1.02459e-06
0.00010311
-1.37151e-06
0.000103273
-1.71013e-06
0.000103433
-2.04169e-06
0.000103594
-2.36684e-06
0.000103756
-2.68509e-06
0.00010392
-2.99479e-06
0.000104087
-3.29407e-06
0.000104259
-3.58246e-06
0.000104435
-3.86259e-06
0.000104618
-4.14131e-06
0.00010481
-4.42953e-06
0.000105013
-4.74073e-06
0.000105226
-5.08854e-06
0.000105447
-5.48403e-06
0.000105673
-5.93354e-06
0.000105897
-6.43759e-06
0.000106111
-6.99108e-06
0.000106307
-7.5845e-06
-8.20587e-06
0.000106477
0.000101714
4.2862e-07
0.000102023
1.18211e-06
0.000102423
1.63574e-06
0.000102837
1.78731e-06
0.000103233
1.73135e-06
0.000103597
1.5394e-06
0.000103925
1.25991e-06
0.000104218
9.31329e-07
0.000104481
5.79134e-07
0.00010472
2.17691e-07
0.000104938
-1.44736e-07
0.00010514
-5.03402e-07
0.000105327
-8.55933e-07
0.000105504
-1.20154e-06
0.000105673
-1.54049e-06
0.000105837
-1.87366e-06
0.000105997
-2.20196e-06
0.000106156
-2.52551e-06
0.000106314
-2.84326e-06
0.000106472
-3.15316e-06
0.000106632
-3.45327e-06
0.000106792
-3.7434e-06
0.000106957
-4.0267e-06
0.000107126
-4.31048e-06
0.000107302
-4.60568e-06
0.000107486
-4.92515e-06
0.000107679
-5.2811e-06
0.000107878
-5.68267e-06
0.000108078
-6.13401e-06
0.000108274
-6.63369e-06
0.000108458
-7.17525e-06
0.000108622
-7.74855e-06
-8.34205e-06
0.000108759
0.000104596
3.33357e-07
0.000104854
9.23428e-07
0.000105201
1.28905e-06
0.000105573
1.41529e-06
0.000105939
1.3656e-06
0.000106283
1.19532e-06
0.000106599
9.44038e-07
0.000106886
6.4393e-07
0.000107148
3.17669e-07
0.000107386
-2.10353e-08
0.000107606
-3.63948e-07
0.000107808
-7.06141e-07
0.000107997
-1.045e-06
0.000108175
-1.37953e-06
0.000108345
-1.70982e-06
0.000108508
-2.03652e-06
0.000108666
-2.36015e-06
0.000108821
-2.68036e-06
0.000108973
-2.99562e-06
0.000109123
-3.30362e-06
0.000109273
-3.60243e-06
0.000109421
-3.89225e-06
0.000109572
-4.17677e-06
0.000109725
-4.46369e-06
0.000109883
-4.76388e-06
0.000110047
-5.08948e-06
0.000110217
-5.4513e-06
0.000110391
-5.85653e-06
0.000110565
-6.30724e-06
0.000110731
-6.80016e-06
0.000110883
-7.32755e-06
0.000111013
-7.8787e-06
-8.44246e-06
0.000111114
0.000107565
2.53853e-07
0.000107785
7.04358e-07
0.000108087
9.865e-07
0.000108422
1.0805e-06
0.00010876
1.02787e-06
0.000109085
8.70445e-07
0.000109388
6.40064e-07
0.000109669
3.63216e-07
0.000109927
5.95127e-08
0.000110165
-2.58481e-07
0.000110384
-5.82935e-07
0.000110587
-9.09024e-07
0.000110776
-1.23409e-06
0.000110953
-1.55704e-06
0.000111121
-1.87783e-06
0.000111282
-2.19688e-06
0.000111436
-2.51436e-06
0.000111585
-2.82949e-06
0.00011173
-3.14036e-06
0.000111871
-3.44447e-06
0.000112008
-3.74003e-06
0.000112144
-4.02762e-06
0.000112278
-4.31147e-06
0.000112414
-4.59959e-06
0.000112553
-4.90277e-06
0.000112696
-5.23234e-06
0.000112842
-5.59769e-06
0.00011299
-6.00413e-06
0.000113134
-6.45176e-06
0.00011327
-6.93556e-06
0.000113389
-7.44662e-06
0.000113484
-7.97376e-06
-8.50625e-06
0.000113548
0.000110624
1.86387e-07
0.000110812
5.16472e-07
0.000111078
7.20448e-07
0.000111381
7.77958e-07
0.000111693
7.15408e-07
0.000112
5.63729e-07
0.000112292
3.48055e-07
0.000112565
8.98309e-08
0.000112819
-1.94423e-07
0.000113054
-4.93611e-07
0.000113272
-8.00596e-07
0.000113474
-1.11089e-06
0.000113662
-1.42197e-06
0.000113838
-1.73273e-06
0.000114003
-2.04307e-06
0.000114159
-2.3532e-06
0.000114308
-2.66298e-06
0.00011445
-2.97127e-06
0.000114585
-3.27587e-06
0.000114715
-3.57418e-06
0.000114839
-3.86458e-06
0.00011496
-4.14811e-06
0.000115078
-4.42946e-06
0.000115195
-4.71693e-06
0.000115313
-5.02111e-06
0.000115434
-5.3525e-06
0.000115555
-5.71907e-06
0.000115675
-6.12432e-06
0.00011579
-6.56646e-06
0.000115893
-7.03888e-06
0.000115978
-7.53165e-06
0.000116038
-8.03318e-06
-8.53324e-06
0.000116065
0.000113774
1.28189e-07
0.000113937
3.53126e-07
0.000114173
4.84324e-07
0.000114448
5.02982e-07
0.000114738
4.25338e-07
0.000115028
2.7374e-07
0.000115309
6.76248e-08
0.000115574
-1.75986e-07
0.000115824
-4.43551e-07
0.000116056
-7.25628e-07
0.000116271
-1.01599e-06
0.000116471
-1.31068e-06
0.000116656
-1.60742e-06
0.000116829
-1.90526e-06
0.00011699
-2.20406e-06
0.00011714
-2.5039e-06
0.000117282
-2.80438e-06
0.000117415
-3.1041e-06
0.000117539
-3.40061e-06
0.000117656
-3.69129e-06
0.000117767
-3.97477e-06
0.000117871
-4.25251e-06
0.000117971
-4.52964e-06
0.000118069
-4.81469e-06
0.000118166
-5.11794e-06
0.000118262
-5.44906e-06
0.000118358
-5.8146e-06
0.00011845
-6.21632e-06
0.000118534
-6.65068e-06
0.000118605
-7.10962e-06
0.000118656
-7.58231e-06
0.000118679
-8.05693e-06
-8.52376e-06
0.00011867
0.000117015
7.71416e-08
0.00011716
2.09012e-07
0.000117371
2.72455e-07
0.000117623
2.5116e-07
0.000117894
1.54667e-07
0.000118169
-1.28085e-09
0.000118439
-2.02012e-07
0.000118697
-4.3436e-07
0.000118941
-6.87575e-07
0.000119169
-9.53952e-07
0.000119382
-1.22833e-06
0.000119578
-1.50742e-06
0.00011976
-1.78936e-06
0.000119928
-2.0734e-06
0.000120084
-2.35946e-06
0.000120227
-2.64757e-06
0.00012036
-2.93713e-06
0.000120483
-3.22653e-06
0.000120595
-3.51318e-06
0.000120698
-3.79451e-06
0.000120793
-4.06941e-06
0.00012088
-4.33975e-06
0.000120962
-4.61105e-06
0.000121039
-4.89196e-06
0.000121114
-5.19245e-06
0.000121186
-5.52127e-06
0.000121255
-5.88361e-06
0.000121318
-6.27957e-06
0.000121371
-6.70399e-06
0.000121409
-7.14752e-06
0.000121426
-7.5986e-06
0.000121414
-8.04528e-06
-8.47846e-06
0.000121369
0.000120352
3.15762e-08
0.000120481
7.98093e-08
0.000120673
7.98979e-08
0.000120906
1.83167e-08
0.000121161
-9.96972e-08
0.000121423
-2.63384e-07
0.000121683
-4.62044e-07
0.000121934
-6.8583e-07
0.000122173
-9.26573e-07
0.000122398
-1.17833e-06
0.000122606
-1.4371e-06
0.000122799
-1.70038e-06
0.000122977
-1.96685e-06
0.000123139
-2.23604e-06
0.000123288
-2.50804e-06
0.000123423
-2.78286e-06
0.000123546
-3.05983e-06
0.000123657
-3.33716e-06
0.000123756
-3.61224e-06
0.000123844
-3.88257e-06
0.000123922
-4.14733e-06
0.000123991
-4.40877e-06
0.000124052
-4.67274e-06
0.000124108
-4.94795e-06
0.00012416
-5.24394e-06
0.000124207
-5.56856e-06
0.000124249
-5.92566e-06
0.000124283
-6.31376e-06
0.000124306
-6.72625e-06
0.000124311
-7.15265e-06
0.000124293
-7.58082e-06
0.000124247
-7.99882e-06
-8.39822e-06
0.000124166
0.000123785
-9.87032e-09
0.000123903
-3.8098e-08
0.00012408
-9.77414e-08
0.000124298
-1.99543e-07
0.000124539
-3.40948e-07
0.000124791
-5.14921e-07
0.000125043
-7.14031e-07
0.000125288
-9.31308e-07
0.000125523
-1.16095e-06
0.000125743
-1.39876e-06
0.000125948
-1.64197e-06
0.000126137
-1.88897e-06
0.000126309
-2.13906e-06
0.000126465
-2.39218e-06
0.000126605
-2.64864e-06
0.000126731
-2.90855e-06
0.000126843
-3.17119e-06
0.00012694
-3.43474e-06
0.000127024
-3.69658e-06
0.000127096
-3.95435e-06
0.000127156
-4.20752e-06
0.000127206
-4.4587e-06
0.000127248
-4.71397e-06
0.000127282
-4.98201e-06
0.00012731
-5.27189e-06
0.000127332
-5.59052e-06
0.000127346
-5.94043e-06
0.000127351
-6.31873e-06
0.000127342
-6.71746e-06
0.000127315
-7.1252e-06
0.000127264
-7.52939e-06
0.000127183
-7.91824e-06
-8.28401e-06
0.000127069
0.000127317
-4.83661e-08
0.000127427
-1.47845e-07
0.000127594
-2.64478e-07
0.0001278
-4.06334e-07
0.000128032
-5.72463e-07
0.000128275
-7.58599e-07
0.000128521
-9.6e-07
0.000128762
-1.17221e-06
0.000128993
-1.39161e-06
0.00012921
-1.6157e-06
0.000129411
-1.84302e-06
0.000129595
-2.07294e-06
0.000129761
-2.30545e-06
0.00012991
-2.54102e-06
0.000130042
-2.78027e-06
0.000130157
-3.02345e-06
0.000130256
-3.26994e-06
0.000130339
-3.51793e-06
0.000130407
-3.76486e-06
0.000130461
-4.00857e-06
0.000130502
-4.24881e-06
0.000130532
-4.48846e-06
0.000130552
-4.73381e-06
0.000130563
-4.99337e-06
0.000130567
-5.27568e-06
0.000130563
-5.58669e-06
0.000130551
-5.92768e-06
0.000130526
-6.29441e-06
0.000130487
-6.67776e-06
0.000130427
-7.06554e-06
0.000130343
-7.44492e-06
0.000130229
-7.80437e-06
-8.1369e-06
0.000130082
0.000130951
-8.4932e-08
0.000131056
-2.52277e-07
0.000131216
-4.24119e-07
0.000131415
-6.05983e-07
0.000131641
-7.97815e-07
0.000131879
-9.97423e-07
0.000132122
-1.20231e-06
0.00013236
-1.41026e-06
0.000132588
-1.61969e-06
0.000132802
-1.82978e-06
0.000132999
-2.04045e-06
0.000133178
-2.25209e-06
0.000133339
-2.46553e-06
0.000133479
-2.68183e-06
0.000133601
-2.90199e-06
0.000133704
-3.12655e-06
0.000133789
-3.35499e-06
0.000133857
-3.58563e-06
0.000133908
-3.81604e-06
0.000133944
-4.04427e-06
0.000133965
-4.27032e-06
0.000133974
-4.49734e-06
0.000133972
-4.73166e-06
0.00013396
-4.98156e-06
0.00013394
-5.25497e-06
0.00013391
-5.55686e-06
0.000133869
-5.8873e-06
0.000133816
-6.24083e-06
0.000133745
-6.60734e-06
0.000133654
-6.97402e-06
0.000133537
-7.32795e-06
0.00013339
-7.65796e-06
-7.95784e-06
0.000133211
0.000134691
-1.20559e-07
0.000134793
-3.5415e-07
0.000134949
-5.80498e-07
0.000135146
-8.02676e-07
0.000135369
-1.02108e-06
0.000135607
-1.2351e-06
0.000135848
-1.44417e-06
0.000136086
-1.64811e-06
0.000136314
-1.84727e-06
0.000136527
-2.04253e-06
0.000136721
-2.23522e-06
0.000136896
-2.42689e-06
0.00013705
-2.61928e-06
0.000137182
-2.81413e-06
0.000137293
-3.01297e-06
0.000137383
-3.21666e-06
0.000137453
-3.42493e-06
0.000137504
-3.63627e-06
0.000137536
-3.84846e-06
0.000137552
-4.05978e-06
0.000137552
-4.27047e-06
0.000137539
-4.48385e-06
0.000137513
-4.70621e-06
0.000137477
-4.94549e-06
0.000137431
-5.20891e-06
0.000137375
-5.50045e-06
0.000137306
-5.81899e-06
0.000137223
-6.15798e-06
0.000137123
-6.50644e-06
0.000137
-6.85115e-06
0.000136851
-7.1792e-06
0.000136673
-7.47991e-06
-7.74785e-06
0.000136463
0.000138538
-1.56242e-07
0.00013864
-4.56241e-07
0.000138797
-7.37544e-07
0.000138995
-1.00078e-06
0.000139221
-1.24652e-06
0.000139461
-1.47548e-06
0.000139706
-1.68882e-06
0.000139946
-1.88832e-06
0.000140175
-2.07624e-06
0.000140387
-2.25522e-06
0.00014058
-2.42807e-06
0.000140751
-2.5976e-06
0.000140898
-2.76656e-06
0.000141022
-2.93751e-06
0.000141121
-3.11256e-06
0.000141198
-3.29301e-06
0.000141252
-3.4789e-06
0.000141284
-3.66899e-06
0.000141297
-3.86129e-06
0.000141292
-4.05432e-06
0.00014127
-4.24858e-06
0.000141233
-4.44742e-06
0.000141184
-4.65701e-06
0.000141123
-4.8848e-06
0.000141052
-5.13724e-06
0.000140969
-5.41725e-06
0.000140872
-5.72263e-06
0.00014076
-6.04581e-06
0.000140629
-6.37514e-06
0.000140475
-6.69712e-06
0.000140295
-6.99901e-06
0.000140085
-7.27071e-06
-7.50759e-06
0.000139845
0.000142496
-1.93095e-07
0.000142602
-5.61706e-07
0.000142764
-8.99892e-07
0.000142969
-1.20575e-06
0.000143202
-1.4799e-06
0.000143451
-1.72423e-06
0.000143704
-1.94157e-06
0.000143951
-2.13558e-06
0.000144185
-2.31055e-06
0.000144401
-2.47095e-06
0.000144594
-2.62121e-06
0.000144762
-2.76554e-06
0.000144903
-2.90786e-06
0.000145018
-3.05164e-06
0.000145105
-3.19972e-06
0.000145166
-3.35394e-06
0.000145202
-3.51474e-06
0.000145214
-3.68123e-06
0.000145204
-3.85172e-06
0.000145175
-4.02502e-06
0.000145128
-4.20176e-06
0.000145066
-4.38534e-06
0.000144991
-4.5816e-06
0.000144903
-4.79743e-06
0.000144804
-5.03833e-06
0.000144693
-5.30614e-06
0.000144568
-5.59758e-06
0.000144427
-5.90416e-06
0.000144265
-6.21366e-06
0.00014408
-6.51247e-06
0.00014387
-6.78816e-06
0.00014363
-7.03128e-06
-7.23799e-06
0.00014336
0.000146569
-2.32311e-07
0.000146681
-6.73912e-07
0.000146853
-1.0723e-06
0.00014707
-1.42289e-06
0.000147317
-1.72643e-06
0.000147579
-1.9861e-06
0.000147844
-2.20645e-06
0.000148101
-2.39324e-06
0.000148344
-2.55284e-06
0.000148564
-2.69171e-06
0.000148759
-2.81606e-06
0.000148925
-2.93164e-06
0.000149061
-3.04367e-06
0.000149166
-3.15669e-06
0.000149241
-3.27438e-06
0.000149286
-3.3992e-06
0.000149303
-3.53213e-06
0.000149295
-3.67266e-06
0.000149263
-3.81948e-06
0.000149209
-3.97163e-06
0.000149137
-4.12989e-06
0.000149049
-4.2975e-06
0.000148948
-4.47991e-06
0.000148834
-4.68323e-06
0.000148707
-4.91196e-06
0.000148568
-5.16682e-06
0.000148414
-5.44344e-06
0.000148242
-5.73257e-06
0.00014805
-6.02155e-06
0.000147834
-6.2968e-06
0.000147593
-6.54632e-06
0.000147323
-6.7614e-06
-6.93902e-06
0.000147024
0.000150759
-2.75665e-07
0.000150883
-7.97848e-07
0.000151073
-1.2623e-06
0.000151311
-1.66137e-06
0.000151581
-1.99611e-06
0.000151866
-2.27111e-06
0.000152153
-2.49289e-06
0.000152429
-2.66956e-06
0.000152686
-2.80995e-06
0.000152917
-2.92277e-06
0.000153117
-3.01625e-06
0.000153284
-3.09792e-06
0.000153414
-3.1745e-06
0.000153509
-3.25174e-06
0.000153569
-3.33431e-06
0.000153596
-3.42545e-06
0.00015359
-3.52674e-06
0.000153556
-3.63818e-06
0.000153495
-3.75888e-06
0.000153412
-3.88817e-06
0.000153309
-4.02689e-06
0.000153189
-4.17809e-06
0.000153056
-4.34663e-06
0.00015291
-4.53768e-06
0.000152753
-4.75457e-06
0.000152583
-4.99675e-06
0.000152398
-5.25874e-06
0.000152196
-5.53047e-06
0.000151974
-5.79899e-06
0.000151728
-6.05084e-06
0.000151456
-6.27456e-06
0.000151157
-6.46226e-06
-6.61174e-06
0.000150829
0.000155071
-3.24612e-07
0.000155211
-9.37795e-07
0.000155424
-1.47549e-06
0.000155689
-1.92697e-06
0.000155988
-2.2944e-06
0.000156301
-2.58435e-06
0.000156614
-2.80564e-06
0.000156913
-2.96901e-06
0.000157189
-3.08598e-06
0.000157434
-3.16778e-06
0.000157643
-3.22491e-06
0.000157812
-3.26695e-06
0.00015794
-3.30233e-06
0.000158026
-3.3383e-06
0.000158073
-3.38067e-06
0.000158081
-3.43363e-06
0.000158053
-3.49949e-06
0.000157994
-3.57881e-06
0.000157906
-3.67112e-06
0.000157794
-3.77599e-06
0.000157662
-3.89424e-06
0.000157512
-4.02851e-06
0.000157348
-4.1829e-06
0.000157172
-4.36149e-06
0.000156984
-4.5663e-06
0.000156782
-4.79546e-06
0.000156566
-5.0424e-06
0.000156332
-5.29638e-06
0.000156077
-5.54419e-06
0.000155799
-5.77265e-06
0.000155495
-5.97092e-06
0.000155165
-6.13202e-06
-6.25457e-06
0.000154808
0.00015951
-3.83566e-07
0.000159677
-1.10521e-06
0.00015993
-1.72864e-06
0.000160242
-2.23931e-06
0.00016059
-2.64146e-06
0.00016095
-2.9446e-06
0.000161305
-3.16083e-06
0.00016164
-3.30455e-06
0.000161945
-3.39069e-06
0.000162211
-3.43348e-06
0.000162432
-3.44603e-06
0.000162605
-3.44018e-06
0.000162729
-3.42631e-06
0.000162804
-3.41328e-06
0.000162832
-3.40826e-06
0.000162815
-3.4165e-06
0.000162756
-3.44119e-06
0.000162661
-3.48365e-06
0.000162534
-3.54394e-06
0.00016238
-3.62195e-06
0.000162204
-3.71846e-06
0.000162011
-3.83569e-06
0.000161805
-3.97679e-06
0.000161588
-4.14446e-06
0.000161361
-4.33914e-06
0.000161123
-4.55736e-06
0.000160872
-4.79123e-06
0.000160605
-5.02913e-06
0.000160318
-5.25762e-06
0.000160009
-5.46383e-06
0.000159676
-5.63763e-06
0.000159317
-5.77303e-06
-5.86958e-06
0.000158932
0.000164075
-4.52305e-07
0.000164272
-1.30231e-06
0.000164567
-2.02393e-06
0.000164929
-2.60086e-06
0.000165329
-3.04147e-06
0.000165743
-3.35842e-06
0.000166149
-3.56711e-06
0.00016653
-3.68609e-06
0.000166874
-3.73426e-06
0.00016717
-3.72942e-06
0.000167412
-3.68789e-06
0.000167596
-3.62435e-06
0.000167721
-3.5516e-06
0.000167789
-3.48058e-06
0.0001678
-3.42015e-06
0.000167761
-3.37692e-06
0.000167675
-3.35512e-06
0.000167548
-3.35679e-06
0.000167386
-3.38241e-06
0.000167196
-3.43195e-06
0.000166984
-3.50591e-06
0.000166754
-3.60574e-06
0.000166511
-3.73342e-06
0.000166256
-3.89015e-06
0.000165992
-4.07466e-06
0.000165716
-4.28188e-06
0.000165428
-4.50263e-06
0.000165123
-4.72453e-06
0.000164799
-4.93393e-06
0.000164454
-5.11832e-06
0.000164085
-5.26837e-06
0.000163691
-5.37914e-06
-5.45108e-06
0.000163272
0.000168788
-5.48705e-07
0.000169052
-1.56631e-06
0.000169436
-2.40765e-06
0.000169892
-3.0566e-06
0.000170382
-3.53213e-06
0.000170878
-3.85406e-06
0.000171355
-4.04398e-06
0.000171795
-4.12626e-06
0.000172185
-4.12436e-06
0.000172515
-4.05973e-06
0.000172779
-3.95196e-06
0.000172974
-3.81855e-06
0.000173097
-3.67484e-06
0.00017315
-3.53393e-06
0.000173137
-3.40658e-06
0.000173061
-3.30104e-06
0.000172929
-3.22295e-06
0.000172747
-3.17545e-06
0.000172525
-3.15985e-06
0.000172269
-3.17654e-06
0.000171989
-3.22588e-06
0.000171692
-3.30858e-06
0.000171384
-3.42524e-06
0.000171069
-3.57509e-06
0.000170749
-3.7546e-06
0.000170423
-3.95646e-06
0.00017009
-4.1696e-06
0.000169746
-4.38041e-06
0.000169387
-4.57476e-06
0.000169009
-4.74043e-06
0.00016861
-4.86894e-06
0.000168187
-4.95655e-06
-5.00484e-06
0.000167741
0.000173616
-6.53526e-07
0.000173927
-1.87679e-06
0.000174382
-2.86315e-06
0.00017493
-3.60427e-06
0.000175526
-4.1281e-06
0.00017613
-4.45838e-06
0.00017671
-4.62407e-06
0.000177242
-4.65813e-06
0.000177708
-4.59075e-06
0.000178097
-4.44874e-06
0.000178402
-4.25626e-06
0.000178618
-4.03473e-06
0.000178746
-3.80283e-06
0.000178789
-3.5766e-06
0.000178751
-3.36936e-06
0.000178642
-3.19144e-06
0.000178469
-3.04999e-06
0.000178242
-2.94906e-06
0.000177973
-2.8901e-06
0.000177669
-2.87304e-06
0.000177341
-2.89731e-06
0.000176994
-2.96229e-06
0.000176636
-3.0669e-06
0.000176269
-3.20853e-06
0.000175897
-3.38171e-06
0.000175517
-3.57734e-06
0.000175131
-3.78282e-06
0.000174734
-3.98339e-06
0.000174323
-4.16437e-06
0.000173896
-4.31353e-06
0.00017345
-4.42292e-06
0.000172984
-4.48987e-06
-4.51689e-06
0.000172496
0.000178677
-8.62192e-07
0.000179169
-2.36852e-06
0.000179812
-3.50602e-06
0.000180523
-4.31554e-06
0.000181257
-4.862e-06
0.000181976
-5.17787e-06
0.000182653
-5.30032e-06
0.000183264
-5.26976e-06
0.000183795
-5.12137e-06
0.000184233
-4.88634e-06
0.000184569
-4.59298e-06
0.000184801
-4.26632e-06
0.000184926
-3.92826e-06
0.000184948
-3.59782e-06
0.000184869
-3.29114e-06
0.000184699
-3.02124e-06
0.000184447
-2.79776e-06
0.000184125
-2.62687e-06
0.000183746
-2.51133e-06
0.000183324
-2.45153e-06
0.000182874
-2.44653e-06
0.000182406
-2.49458e-06
0.000181932
-2.59283e-06
0.00018146
-2.7363e-06
0.000180995
-2.91673e-06
0.000180539
-3.12187e-06
0.000180092
-3.33597e-06
0.00017965
-3.54146e-06
0.000179208
-3.72161e-06
0.000178757
-3.86323e-06
0.000178293
-3.95866e-06
0.00017781
-4.0067e-06
-4.0116e-06
0.000177305
0.000183742
-1.03632e-06
0.000184319
-2.94649e-06
0.000185127
-4.31334e-06
0.000186057
-5.24523e-06
0.000187022
-5.82747e-06
0.000187954
-6.10997e-06
0.000188812
-6.15809e-06
0.000189572
-6.03006e-06
0.00019022
-5.7693e-06
0.000190746
-5.41229e-06
0.000191144
-4.9911e-06
0.000191412
-4.5337e-06
0.000191548
-4.06508e-06
0.000191559
-3.608e-06
0.00019145
-3.1828e-06
0.000191236
-2.80673e-06
0.000190931
-2.49283e-06
0.000190553
-2.24915e-06
0.00019012
-2.0781e-06
0.000189647
-1.97847e-06
0.000189147
-1.94727e-06
0.000188633
-1.9804e-06
0.000188113
-2.0726e-06
0.000187593
-2.21642e-06
0.000187077
-2.40102e-06
0.000186567
-2.61137e-06
0.00018606
-2.82885e-06
0.000185552
-3.03333e-06
0.000185037
-3.2064e-06
0.000184508
-3.33459e-06
0.000183961