/*--------------------------------*- C++ -*----------------------------------*\
| =========                 |                                                 |
| \\      /  F ield         | OpenFOAM: The Open Source CFD Toolbox           |
|  \\    /   O peration     | Version:  2.1.1                                 |
|   \\  /    A nd           | Web:      www.OpenFOAM.org                      |
|    \\/     M anipulation  |                                                 |
\*---------------------------------------------------------------------------*/
FoamFile
{
    version     2.0;
    format      ascii;
    class       volVectorField;
    location    "0.01";
    object      U;
}
// * * * * * * * * * * * * * * * * * * * * * * * * * * * * * * * * * * * * * //

dimensions      [0 1 -1 0 0 0 0];

internalField   nonuniform List<vector> 
6820
(
(6.37657 0.503511 0)
(4.42721 0.286508 0)
(2.98089 0.0197262 0)
(2.24745 -0.0625907 0)
(1.9889 -0.0608799 0)
(1.87105 -0.0355526 0)
(1.80696 -0.0160517 0)
(1.76761 -0.00548775 0)
(1.7391 -0.000548847 0)
(1.7185 0.00124909 0)
(1.70543 0.00159025 0)
(1.69998 0.00153022 0)
(1.70172 0.000489115 0)
(1.71055 -0.000384299 0)
(1.72699 -0.00133801 0)
(1.75106 -0.00245106 0)
(1.78202 -0.00358372 0)
(1.81857 -0.00462114 0)
(1.85935 -0.00552231 0)
(1.90326 -0.00630352 0)
(1.94976 -0.00701551 0)
(1.99889 -0.0077315 0)
(2.0513 -0.00854008 0)
(2.10811 -0.00953711 0)
(2.1708 -0.010822 0)
(2.24113 -0.012496 0)
(2.32107 -0.014706 0)
(2.41325 -0.0175985 0)
(2.51997 -0.0217584 0)
(2.64841 -0.0270587 0)
(2.79546 -0.0382913 0)
(3.00594 -0.0461852 0)
(3.18535 -0.130412 0)
(8.72024 0.958816 0)
(8.76722 1.00994 0)
(7.97764 0.67601 0)
(7.07401 0.389963 0)
(6.38587 0.197403 0)
(5.89571 0.0968822 0)
(5.55372 0.0497445 0)
(5.31664 0.0273624 0)
(5.15023 0.0160393 0)
(5.03308 0.00909868 0)
(4.95264 0.0036169 0)
(4.90122 -0.00130509 0)
(4.87413 -0.00666645 0)
(4.86926 -0.0124499 0)
(4.88407 -0.0184 0)
(4.91579 -0.024055 0)
(4.96153 -0.0290135 0)
(5.01822 -0.0331119 0)
(5.08291 -0.0364366 0)
(5.15324 -0.0393117 0)
(5.22774 -0.0422223 0)
(5.30597 -0.0456986 0)
(5.38851 -0.0502226 0)
(5.47669 -0.0561904 0)
(5.5724 -0.0639324 0)
(5.67784 -0.0737627 0)
(5.79539 -0.086116 0)
(5.92765 -0.101515 0)
(6.07743 -0.121356 0)
(6.24869 -0.146392 0)
(6.44479 -0.183379 0)
(6.67548 -0.231253 0)
(6.93799 -0.319858 0)
(8.58607 0.582416 0)
(9.33169 0.758934 0)
(9.61767 0.654058 0)
(9.5142 0.517728 0)
(9.25895 0.385421 0)
(8.96216 0.284553 0)
(8.677 0.212323 0)
(8.42705 0.158973 0)
(8.2171 0.11839 0)
(8.04557 0.086281 0)
(7.90945 0.0596442 0)
(7.80563 0.0365035 0)
(7.73139 0.0157843 0)
(7.68346 -0.00353163 0)
(7.65973 -0.0216769 0)
(7.65772 -0.0382159 0)
(7.67425 -0.0524629 0)
(7.70592 -0.0640542 0)
(7.74954 -0.0731413 0)
(7.80234 -0.080363 0)
(7.86208 -0.0867018 0)
(7.92719 -0.0932919 0)
(7.99676 -0.101234 0)
(8.07053 -0.111466 0)
(8.14878 -0.124714 0)
(8.2323 -0.141536 0)
(8.32223 -0.162456 0)
(8.42006 -0.1881 0)
(8.52729 -0.219695 0)
(8.64561 -0.258729 0)
(8.77597 -0.309804 0)
(8.91614 -0.375697 0)
(9.06312 -0.472012 0)
(8.44102 0.378651 0)
(8.94622 0.58064 0)
(9.35898 0.548062 0)
(9.58753 0.476751 0)
(9.70384 0.392344 0)
(9.74455 0.318007 0)
(9.73698 0.25956 0)
(9.70421 0.212581 0)
(9.6598 0.173288 0)
(9.61168 0.138945 0)
(9.56516 0.107573 0)
(9.52381 0.0779957 0)
(9.48988 0.049587 0)
(9.46491 0.0220846 0)
(9.44822 -0.00413492 0)
(9.4384 -0.0283167 0)
(9.43517 -0.0497665 0)
(9.43834 -0.068049 0)
(9.4477 -0.0832066 0)
(9.46292 -0.0957807 0)
(9.48347 -0.106675 0)
(9.50855 -0.11697 0)
(9.53706 -0.127768 0)
(9.56768 -0.140108 0)
(9.59897 -0.154943 0)
(9.62971 -0.173173 0)
(9.65906 -0.19573 0)
(9.68688 -0.223635 0)
(9.7136 -0.258303 0)
(9.74014 -0.301354 0)
(9.76715 -0.355717 0)
(9.79287 -0.423807 0)
(9.8156 -0.507621 0)
(8.4022 0.278905 0)
(8.71953 0.477057 0)
(9.00013 0.455331 0)
(9.17603 0.394212 0)
(9.30044 0.327789 0)
(9.39325 0.270015 0)
(9.4613 0.224628 0)
(9.51289 0.187507 0)
(9.55297 0.155191 0)
(9.58397 0.125651 0)
(9.60759 0.0975461 0)
(9.62509 0.0701172 0)
(9.63735 0.043022 0)
(9.64488 0.0164283 0)
(9.64839 -0.00888186 0)
(9.64892 -0.0321079 0)
(9.64742 -0.0528116 0)
(9.64509 -0.0707951 0)
(9.64324 -0.086217 0)
(9.64311 -0.0995972 0)
(9.64563 -0.111683 0)
(9.65128 -0.123276 0)
(9.65995 -0.135121 0)
(9.67096 -0.147882 0)
(9.68321 -0.162236 0)
(9.69542 -0.179002 0)
(9.70645 -0.199289 0)
(9.71568 -0.224556 0)
(9.72307 -0.256689 0)
(9.72903 -0.297752 0)
(9.73413 -0.35009 0)
(9.73736 -0.415355 0)
(9.73791 -0.492784 0)
(8.37752 0.200907 0)
(8.60188 0.379609 0)
(8.81731 0.383644 0)
(8.94958 0.345731 0)
(9.03667 0.297262 0)
(9.10044 0.248897 0)
(9.14788 0.20728 0)
(9.18601 0.17197 0)
(9.21879 0.141064 0)
(9.24734 0.113142 0)
(9.27195 0.0870806 0)
(9.29262 0.0621183 0)
(9.30931 0.0378987 0)
(9.32184 0.0144144 0)
(9.33065 -0.00815262 0)
(9.33676 -0.0294766 0)
(9.34118 -0.0491522 0)
(9.34513 -0.0669991 0)
(9.34988 -0.0831604 0)
(9.35653 -0.098049 0)
(9.36585 -0.112201 0)
(9.37815 -0.126132 0)
(9.39327 -0.140274 0)
(9.41071 -0.155024 0)
(9.42973 -0.170893 0)
(9.44964 -0.188681 0)
(9.46994 -0.209625 0)
(9.49039 -0.235413 0)
(9.51102 -0.268099 0)
(9.53182 -0.309789 0)
(9.55262 -0.362296 0)
(9.57203 -0.426623 0)
(9.58913 -0.50121 0)
(8.36132 0.147439 0)
(8.52318 0.307109 0)
(8.6988 0.329513 0)
(8.81485 0.306257 0)
(8.89102 0.26874 0)
(8.94588 0.227563 0)
(8.98552 0.190113 0)
(9.01597 0.157498 0)
(9.04149 0.128459 0)
(9.06379 0.101877 0)
(9.08361 0.0768813 0)
(9.10131 0.052847 0)
(9.11701 0.0294684 0)
(9.13078 0.00663563 0)
(9.14278 -0.0155606 0)
(9.15333 -0.0367395 0)
(9.16308 -0.0565526 0)
(9.17288 -0.0749262 0)
(9.18362 -0.0920342 0)
(9.19603 -0.108201 0)
(9.21056 -0.123788 0)
(9.22733 -0.139107 0)
(9.24615 -0.15442 0)
(9.26667 -0.170039 0)
(9.28852 -0.18649 0)
(9.31144 -0.204683 0)
(9.33534 -0.225992 0)
(9.36023 -0.252211 0)
(9.38612 -0.285357 0)
(9.41276 -0.32734 0)
(9.43958 -0.379522 0)
(9.46519 -0.44241 0)
(9.48869 -0.514431 0)
(8.3512 0.109911 0)
(8.46781 0.247008 0)
(8.60937 0.278464 0)
(8.71221 0.266406 0)
(8.78342 0.239652 0)
(8.83668 0.207129 0)
(8.8763 0.175163 0)
(8.90672 0.145774 0)
(8.93183 0.118617 0)
(8.95351 0.0931635 0)
(8.97268 0.0689536 0)
(8.98991 0.0456106 0)
(9.00549 0.0229223 0)
(9.01964 0.000866862 0)
(9.03247 -0.0204864 0)
(9.0443 -0.0409785 0)
(9.05562 -0.060504 0)
(9.06713 -0.0791068 0)
(9.07949 -0.0969612 0)
(9.09328 -0.114303 0)
(9.10882 -0.131349 0)
(9.12621 -0.148254 0)
(9.14535 -0.165158 0)
(9.16605 -0.182321 0)
(9.18817 -0.200287 0)
(9.21164 -0.220016 0)
(9.23648 -0.242922 0)
(9.26271 -0.27076 0)
(9.29022 -0.305393 0)
(9.31862 -0.348464 0)
(9.34723 -0.400999 0)
(9.37485 -0.463212 0)
(9.40075 -0.533784 0)
(8.3449 0.0831468 0)
(8.42973 0.198858 0)
(8.54322 0.235252 0)
(8.63294 0.23196 0)
(8.69813 0.213259 0)
(8.74862 0.187074 0)
(8.78758 0.159156 0)
(8.81818 0.132267 0)
(8.84361 0.106777 0)
(8.86559 0.0824982 0)
(8.885 0.0591724 0)
(8.90243 0.0365343 0)
(8.91821 0.0144196 0)
(8.93263 -0.00723311 0)
(8.94592 -0.0283753 0)
(8.95845 -0.0489213 0)
(8.9707 -0.0688111 0)
(8.98325 -0.0880875 0)
(8.99663 -0.106881 0)
(9.01126 -0.125342 0)
(9.02736 -0.143574 0)
(9.04501 -0.161639 0)
(9.06415 -0.179626 0)
(9.08469 -0.197806 0)
(9.10661 -0.216776 0)
(9.12994 -0.237562 0)
(9.15476 -0.261601 0)
(9.18107 -0.290595 0)
(9.20871 -0.326251 0)
(9.23723 -0.369981 0)
(9.26594 -0.422577 0)
(9.29382 -0.48408 0)
(9.32024 -0.553412 0)
(8.34096 0.0638212 0)
(8.40338 0.160281 0)
(8.49416 0.197756 0)
(8.5717 0.200201 0)
(8.63085 0.187406 0)
(8.67818 0.166593 0)
(8.71596 0.142728 0)
(8.74629 0.118669 0)
(8.7717 0.0951658 0)
(8.79374 0.0722886 0)
(8.81325 0.0499808 0)
(8.83082 0.0281338 0)
(8.84685 0.00666624 0)
(8.86163 -0.0144289 0)
(8.87547 -0.0351323 0)
(8.8887 -0.0554219 0)
(8.90173 -0.0753197 0)
(8.91502 -0.0949214 0)
(8.92899 -0.114357 0)
(8.94395 -0.133723 0)
(8.96008 -0.153049 0)
(8.97744 -0.172324 0)
(8.99605 -0.191604 0)
(9.0159 -0.211162 0)
(9.03707 -0.231621 0)
(9.05966 -0.254021 0)
(9.08376 -0.279757 0)
(9.10937 -0.310418 0)
(9.13629 -0.347521 0)
(9.16401 -0.39225 0)
(9.19189 -0.445203 0)
(9.21897 -0.506315 0)
(9.2447 -0.574694 0)
(8.33848 0.0495921 0)
(8.38498 0.129249 0)
(8.45765 0.165426 0)
(8.5243 0.171714 0)
(8.57768 0.1635 0)
(8.62171 0.147096 0)
(8.6579 0.126673 0)
(8.68762 0.105005 0)
(8.71277 0.0831559 0)
(8.73472 0.0614469 0)
(8.75425 0.0399888 0)
(8.7719 0.018784 0)
(8.78807 -0.00219961 0)
(8.80309 -0.0229674 0)
(8.81725 -0.0435273 0)
(8.83089 -0.0638984 0)
(8.84438 -0.0841303 0)
(8.85811 -0.104306 0)
(8.87239 -0.124505 0)
(8.88746 -0.14475 0)
(8.90345 -0.165002 0)
(8.92041 -0.185216 0)
(8.93835 -0.205451 0)
(8.95736 -0.226019 0)
(8.97753 -0.247593 0)
(8.99901 -0.271232 0)
(9.02191 -0.298295 0)
(9.04619 -0.330255 0)
(9.07165 -0.368455 0)
(9.09778 -0.413872 0)
(9.12396 -0.466942 0)
(9.1493 -0.527517 0)
(9.17328 -0.59482 0)
(8.33689 0.0389061 0)
(8.37202 0.104228 0)
(8.43032 0.137628 0)
(8.48733 0.146069 0)
(8.53521 0.141057 0)
(8.5759 0.12802 0)
(8.61031 0.110486 0)
(8.63921 0.0910212 0)
(8.66399 0.0708327 0)
(8.68578 0.0503852 0)
(8.70527 0.0298904 0)
(8.72295 0.00943028 0)
(8.73921 -0.0109724 0)
(8.75439 -0.031317 0)
(8.76877 -0.0516103 0)
(8.78268 -0.071891 0)
(8.79641 -0.0922316 0)
(8.81029 -0.112719 0)
(8.82456 -0.133412 0)
(8.83938 -0.154298 0)
(8.85486 -0.175304 0)
(8.87105 -0.196369 0)
(8.88801 -0.217565 0)
(8.90584 -0.239235 0)
(8.9247 -0.262074 0)
(8.94474 -0.287128 0)
(8.96607 -0.315682 0)
(8.98863 -0.349069 0)
(9.01219 -0.388448 0)
(9.03628 -0.4346 0)
(9.06026 -0.487808 0)
(9.08331 -0.547847 0)
(9.10491 -0.614007 0)
(8.33584 0.0307137 0)
(8.36278 0.0839297 0)
(8.40974 0.113718 0)
(8.45838 0.123042 0)
(8.50113 0.120221 0)
(8.53854 0.10979 0)
(8.57101 0.0946843 0)
(8.59888 0.077167 0)
(8.62312 0.0584692 0)
(8.64459 0.0391524 0)
(8.66391 0.0195088 0)
(8.6815 -0.000313486 0)
(8.69773 -0.0202531 0)
(8.71292 -0.0402924 0)
(8.72735 -0.0604475 0)
(8.7413 -0.0807716 0)
(8.75504 -0.101341 0)
(8.76883 -0.122221 0)
(8.78285 -0.14343 0)
(8.79724 -0.164909 0)
(8.81207 -0.186553 0)
(8.82738 -0.208296 0)
(8.84326 -0.23024 0)
(8.85982 -0.25277 0)
(8.87723 -0.276613 0)
(8.89564 -0.302806 0)
(8.91516 -0.332561 0)
(8.93572 -0.36708 0)
(8.95707 -0.407345 0)
(8.97876 -0.453956 0)
(9.00017 -0.507051 0)
(9.02052 -0.566323 0)
(9.0393 -0.631089 0)
(8.33515 0.0243025 0)
(8.3561 0.0673413 0)
(8.39416 0.0931487 0)
(8.43561 0.102403 0)
(8.47364 0.100918 0)
(8.50787 0.0923695 0)
(8.53831 0.079183 0)
(8.56501 0.0633108 0)
(8.58855 0.0459445 0)
(8.6096 0.0276945 0)
(8.62865 0.00889867 0)
(8.64608 -0.0102562 0)
(8.6622 -0.029682 0)
(8.67731 -0.0493519 0)
(8.69166 -0.0692842 0)
(8.70552 -0.089535 0)
(8.7191 -0.110177 0)
(8.7326 -0.13126 0)
(8.74619 -0.152774 0)
(8.75993 -0.174637 0)
(8.7739 -0.196733 0)
(8.78815 -0.21901 0)
(8.80277 -0.241601 0)
(8.81789 -0.26493 0)
(8.83369 -0.289738 0)
(8.85032 -0.317032 0)
(8.86786 -0.347939 0)
(8.88624 -0.383516 0)
(8.90521 -0.42457 0)
(8.92431 -0.471524 0)
(8.94296 -0.524377 0)
(8.9604 -0.582734 0)
(8.97614 -0.645919 0)
(8.33466 0.0191853 0)
(8.35122 0.053663 0)
(8.38228 0.0754104 0)
(8.41763 0.0839054 0)
(8.45138 0.08308 0)
(8.48261 0.0758305 0)
(8.51102 0.0641417 0)
(8.53643 0.0496579 0)
(8.55916 0.033473 0)
(8.57968 0.0161987 0)
(8.59835 -0.00180943 0)
(8.61549 -0.0203437 0)
(8.63139 -0.0392986 0)
(8.64628 -0.0586392 0)
(8.66042 -0.0783829 0)
(8.67401 -0.0985839 0)
(8.68725 -0.119304 0)
(8.7003 -0.14057 0)
(8.71327 -0.162342 0)
(8.72624 -0.184509 0)
(8.73924 -0.206948 0)
(8.75234 -0.229623 0)
(8.76563 -0.252705 0)
(8.77926 -0.276654 0)
(8.79338 -0.30223 0)
(8.80814 -0.330408 0)
(8.82362 -0.362227 0)
(8.83972 -0.398609 0)
(8.8562 -0.440191 0)
(8.8726 -0.487229 0)
(8.88839 -0.539584 0)
(8.90281 -0.596777 0)
(8.9154 -0.658122 0)
(8.33432 0.0150236 0)
(8.34761 0.0422692 0)
(8.37317 0.0600571 0)
(8.4034 0.0673175 0)
(8.43333 0.0666179 0)
(8.46175 0.0601763 0)
(8.48816 0.0495922 0)
(8.51223 0.0362258 0)
(8.53406 0.0210482 0)
(8.55394 0.00464531 0)
(8.57215 -0.0126282 0)
(8.58892 -0.0305568 0)
(8.60449 -0.049027 0)
(8.61908 -0.0679999 0)
(8.63288 -0.0874915 0)
(8.64609 -0.107551 0)
(8.65886 -0.128228 0)
(8.67132 -0.14953 0)
(8.68355 -0.171391 0)
(8.69561 -0.193687 0)
(8.70754 -0.2163 0)
(8.7194 -0.239217 0)
(8.73128 -0.26265 0)
(8.74333 -0.287091 0)
(8.7557 -0.313306 0)
(8.76855 -0.342232 0)
(8.78191 -0.374814 0)
(8.79569 -0.411833 0)
(8.80963 -0.453762 0)
(8.82331 -0.500695 0)
(8.8362 -0.552362 0)
(8.84759 -0.608198 0)
(8.85706 -0.667508 0)
(8.33407 0.0115788 0)
(8.34489 0.0326714 0)
(8.36614 0.0466973 0)
(8.3921 0.0524115 0)
(8.41866 0.051425 0)
(8.4445 0.0453903 0)
(8.46901 0.0355763 0)
(8.49172 0.0230902 0)
(8.51259 0.00876789 0)
(8.53176 -0.00685511 0)
(8.54942 -0.023443 0)
(8.56573 -0.0407878 0)
(8.58089 -0.0587772 0)
(8.59506 -0.0773727 0)
(8.60842 -0.0965891 0)
(8.62112 -0.11647 0)
(8.63329 -0.137049 0)
(8.64503 -0.158314 0)
(8.65641 -0.180176 0)
(8.66747 -0.202501 0)
(8.67825 -0.225173 0)
(8.6888 -0.248209 0)
(8.69924 -0.271855 0)
(8.70969 -0.296636 0)
(8.7203 -0.323321 0)
(8.73122 -0.352802 0)
(8.74245 -0.385934 0)
(8.75391 -0.42336 0)
(8.76534 -0.465395 0)
(8.77632 -0.51198 0)
(8.78635 -0.562722 0)
(8.79477 -0.616978 0)
(8.80119 -0.674042 0)
(8.33388 0.0086788 0)
(8.34283 0.0244879 0)
(8.36069 0.0349923 0)
(8.38312 0.0389714 0)
(8.40674 0.0373866 0)
(8.43026 0.0314354 0)
(8.45296 0.0221053 0)
(8.47434 0.0102819 0)
(8.49422 -0.00333499 0)
(8.51264 -0.0182735 0)
(8.52968 -0.0342282 0)
(8.54547 -0.0510071 0)
(8.56013 -0.0685056 0)
(8.5738 -0.0866881 0)
(8.58662 -0.105569 0)
(8.59872 -0.125187 0)
(8.61019 -0.145562 0)
(8.62112 -0.166663 0)
(8.63156 -0.188386 0)
(8.64155 -0.21059 0)
(8.65112 -0.233173 0)
(8.66033 -0.25618 0)
(8.66928 -0.279895 0)
(8.67811 -0.304869 0)
(8.68697 -0.331867 0)
(8.69595 -0.361735 0)
(8.70508 -0.395231 0)
(8.71425 -0.432864 0)
(8.7232 -0.474798 0)
(8.73154 -0.520828 0)
(8.7388 -0.570447 0)
(8.74435 -0.622943 0)
(8.74785 -0.677604 0)
(8.33374 0.00619714 0)
(8.34126 0.0174188 0)
(8.35645 0.0246507 0)
(8.37598 0.0267927 0)
(8.39707 0.0243798 0)
(8.41852 0.0182549 0)
(8.43956 0.00917098 0)
(8.45967 -0.00217738 0)
(8.47857 -0.01522 0)
(8.4962 -0.0295558 0)
(8.51259 -0.0449195 0)
(8.52778 -0.0611433 0)
(8.54188 -0.0781369 0)
(8.55497 -0.0958726 0)
(8.56717 -0.114367 0)
(8.57858 -0.133653 0)
(8.58927 -0.153742 0)
(8.59931 -0.174583 0)
(8.60874 -0.196063 0)
(8.61759 -0.218035 0)
(8.6259 -0.240414 0)
(8.63374 -0.263272 0)
(8.6412 -0.286927 0)
(8.64842 -0.311952 0)
(8.65553 -0.339105 0)
(8.66261 -0.36918 0)
(8.66968 -0.40284 0)
(8.67661 -0.440465 0)
(8.68317 -0.482074 0)
(8.68896 -0.527329 0)
(8.69356 -0.575622 0)
(8.69638 -0.626178 0)
(8.69713 -0.678291 0)
(8.33363 0.00403821 0)
(8.34005 0.0112259 0)
(8.35315 0.0154211 0)
(8.37031 0.0156832 0)
(8.38927 0.0122773 0)
(8.40889 0.00577893 0)
(8.42845 -0.00325266 0)
(8.44736 -0.0142842 0)
(8.4653 -0.0268649 0)
(8.48215 -0.0406673 0)
(8.49785 -0.0554721 0)
(8.51242 -0.0711412 0)
(8.5259 -0.0876031 0)
(8.53835 -0.104841 0)
(8.54987 -0.122878 0)
(8.56051 -0.141742 0)
(8.57034 -0.161435 0)
(8.57943 -0.181898 0)
(8.58779 -0.203006 0)
(8.59547 -0.224617 0)
(8.60251 -0.246659 0)
(8.60896 -0.269237 0)
(8.61494 -0.292698 0)
(8.62056 -0.317633 0)
(8.62595 -0.344786 0)
(8.63118 -0.374898 0)
(8.63624 -0.408536 0)
(8.64102 -0.445955 0)
(8.64526 -0.487039 0)
(8.64862 -0.531328 0)
(8.65069 -0.578121 0)
(8.65094 -0.626598 0)
(8.64911 -0.676061 0)
(8.33355 0.00212782 0)
(8.33913 0.00571707 0)
(8.35059 0.00708611 0)
(8.36585 0.00546185 0)
(8.38302 0.000947146 0)
(8.40109 -0.00607874 0)
(8.41932 -0.015213 0)
(8.43714 -0.0260583 0)
(8.45419 -0.0382718 0)
(8.47027 -0.0516 0)
(8.48529 -0.0658724 0)
(8.49921 -0.0809853 0)
(8.51204 -0.0968903 0)
(8.52381 -0.113585 0)
(8.53458 -0.131099 0)
(8.5444 -0.149462 0)
(8.55333 -0.168669 0)
(8.56141 -0.188652 0)
(8.56867 -0.209281 0)
(8.57514 -0.23042 0)
(8.58087 -0.252015 0)
(8.58594 -0.274197 0)
(8.59044 -0.297342 0)
(8.59449 -0.322052 0)
(8.59819 -0.349053 0)
(8.60162 -0.379029 0)
(8.60475 -0.412453 0)
(8.60745 -0.449463 0)
(8.60949 -0.489817 0)
(8.61054 -0.532945 0)
(8.61023 -0.578069 0)
(8.60808 -0.624334 0)
(8.60387 -0.671058 0)
(8.33349 0.000406093 0)
(8.33842 0.000733416 0)
(8.34862 -0.000545854 0)
(8.36238 -0.0040432 0)
(8.3781 -0.00974539 0)
(8.39487 -0.017413 0)
(8.41197 -0.0267661 0)
(8.42883 -0.0375217 0)
(8.44506 -0.0494325 0)
(8.46042 -0.0623155 0)
(8.47476 -0.0760515 0)
(8.48803 -0.0905741 0)
(8.50018 -0.105862 0)
(8.51123 -0.121933 0)
(8.52122 -0.138826 0)
(8.53018 -0.156575 0)
(8.53816 -0.175175 0)
(8.54519 -0.194552 0)
(8.55131 -0.214578 0)
(8.55656 -0.235123 0)
(8.56098 -0.256154 0)
(8.56467 -0.277827 0)
(8.56771 -0.300541 0)
(8.57023 -0.324904 0)
(8.57231 -0.351618 0)
(8.57399 -0.381309 0)
(8.57527 -0.414356 0)
(8.57599 -0.450785 0)
(8.57594 -0.490238 0)
(8.57481 -0.532047 0)
(8.57227 -0.575371 0)
(8.56789 -0.619331 0)
(8.56149 -0.663269 0)
(8.33344 -0.00117532 0)
(8.3379 -0.0038591 0)
(8.34715 -0.00764684 0)
(8.35976 -0.012999 0)
(8.37434 -0.0199446 0)
(8.39006 -0.0283413 0)
(8.40624 -0.0380073 0)
(8.42229 -0.0487553 0)
(8.4378 -0.0604233 0)
(8.45251 -0.0728964 0)
(8.46623 -0.0861072 0)
(8.47885 -0.100029 0)
(8.49033 -0.114669 0)
(8.50066 -0.130067 0)
(8.50984 -0.146275 0)
(8.5179 -0.163334 0)
(8.52489 -0.181237 0)
(8.53085 -0.199913 0)
(8.5358 -0.219234 0)
(8.5398 -0.239082 0)
(8.54291 -0.259443 0)
(8.54521 -0.280498 0)
(8.54681 -0.302661 0)
(8.54781 -0.326543 0)
(8.5483 -0.352817 0)
(8.54831 -0.382049 0)
(8.54781 -0.41453 0)
(8.54665 -0.450179 0)
(8.54463 -0.488536 0)
(8.54146 -0.52885 0)
(8.53684 -0.57023 0)
(8.53041 -0.611786 0)
(8.522 -0.652888 0)
(8.33341 -0.00266003 0)
(8.33752 -0.00818051 0)
(8.3461 -0.0143767 0)
(8.35787 -0.0215678 0)
(8.37161 -0.0297927 0)
(8.38654 -0.038973 0)
(8.402 -0.0490012 0)
(8.41741 -0.0597693 0)
(8.43232 -0.071191 0)
(8.44646 -0.0832163 0)
(8.4596 -0.0958311 0)
(8.47161 -0.109052 0)
(8.48242 -0.122923 0)
(8.49201 -0.137509 0)
(8.50036 -0.152881 0)
(8.50752 -0.169094 0)
(8.5135 -0.186147 0)
(8.51836 -0.203975 0)
(8.52213 -0.222459 0)
(8.52488 -0.241493 0)
(8.52668 -0.261083 0)
(8.52763 -0.281428 0)
(8.52782 -0.302959 0)
(8.52736 -0.326275 0)
(8.52632 -0.352017 0)
(8.52473 -0.380686 0)
(8.52253 -0.412484 0)
(8.5196 -0.447231 0)
(8.51572 -0.484373 0)
(8.51064 -0.523089 0)
(8.50409 -0.562449 0)
(8.49575 -0.601561 0)
(8.48552 -0.639834 0)
(8.33339 -0.00408881 0)
(8.33729 -0.0123438 0)
(8.34543 -0.0208939 0)
(8.35666 -0.0299264 0)
(8.36985 -0.039472 0)
(8.38427 -0.0494959 0)
(8.39926 -0.0599513 0)
(8.41422 -0.0708 0)
(8.42872 -0.0820252 0)
(8.44241 -0.0936385 0)
(8.45507 -0.105678 0)
(8.46653 -0.118203 0)
(8.47672 -0.131293 0)
(8.48558 -0.145038 0)
(8.49311 -0.159531 0)
(8.49933 -0.174838 0)
(8.50428 -0.190969 0)
(8.508 -0.207865 0)
(8.51056 -0.225417 0)
(8.51203 -0.243537 0)
(8.51249 -0.262248 0)
(8.51205 -0.281768 0)
(8.51083 -0.302534 0)
(8.50891 -0.325133 0)
(8.50637 -0.350169 0)
(8.50322 -0.378078 0)
(8.49939 -0.408981 0)
(8.49477 -0.442609 0)
(8.48915 -0.478329 0)
(8.48229 -0.515264 0)
(8.47396 -0.552461 0)
(8.46389 -0.589038 0)
(8.45199 -0.624444 0)
(8.33338 -0.00549987 0)
(8.33717 -0.016458 0)
(8.34511 -0.0273514 0)
(8.35609 -0.038236 0)
(8.36902 -0.0491162 0)
(8.38319 -0.0599797 0)
(8.39794 -0.0708249 0)
(8.41265 -0.0816735 0)
(8.42686 -0.0925754 0)
(8.44022 -0.103606 0)
(8.45247 -0.114864 0)
(8.46344 -0.12646 0)
(8.47303 -0.138519 0)
(8.48119 -0.151168 0)
(8.4879 -0.164531 0)
(8.49319 -0.178694 0)
(8.4971 -0.193687 0)
(8.4997 -0.209466 0)
(8.50105 -0.225938 0)
(8.50125 -0.243032 0)
(8.50041 -0.260788 0)
(8.49863 -0.279439 0)
(8.49603 -0.299418 0)
(8.49272 -0.321293 0)
(8.48874 -0.345618 0)
(8.4841 -0.372758 0)
(8.47873 -0.402749 0)
(8.47251 -0.435234 0)
(8.46525 -0.469507 0)
(8.45672 -0.504646 0)
(8.44673 -0.539684 0)
(8.43505 -0.573761 0)
(8.42161 -0.606368 0)
(8.33338 -0.00693481 0)
(8.33719 -0.0206449 0)
(8.34517 -0.0339391 0)
(8.3562 -0.0467476 0)
(8.36922 -0.0590497 0)
(8.38348 -0.0708547 0)
(8.39831 -0.0822035 0)
(8.41306 -0.0931734 0)
(8.42725 -0.103874 0)
(8.44049 -0.114439 0)
(8.45251 -0.125018 0)
(8.46311 -0.13577 0)
(8.47218 -0.146859 0)
(8.47967 -0.15845 0)
(8.48556 -0.17069 0)
(8.48988 -0.183692 0)
(8.4927 -0.197501 0)
(8.49409 -0.212091 0)
(8.49415 -0.227387 0)
(8.49299 -0.243338 0)
(8.49073 -0.260003 0)
(8.48752 -0.277623 0)
(8.48348 -0.296626 0)
(8.47871 -0.317555 0)
(8.47326 -0.340915 0)
(8.46714 -0.367005 0)
(8.46027 -0.395786 0)
(8.45252 -0.42683 0)
(8.44371 -0.459379 0)
(8.43364 -0.492479 0)
(8.42213 -0.525166 0)
(8.40898 -0.556607 0)
(8.39417 -0.586342 0)
(8.33339 -0.00843891 0)
(8.33734 -0.0250261 0)
(8.34558 -0.0408095 0)
(8.35697 -0.0555707 0)
(8.37035 -0.0692439 0)
(8.38498 -0.0818455 0)
(8.40012 -0.0934554 0)
(8.41512 -0.104215 0)
(8.42945 -0.114312 0)
(8.4427 -0.123956 0)
(8.45458 -0.133371 0)
(8.46489 -0.142784 0)
(8.4735 -0.152418 0)
(8.48036 -0.162486 0)
(8.48547 -0.173179 0)
(8.48888 -0.184642 0)
(8.49064 -0.196952 0)
(8.49087 -0.210107 0)
(8.48968 -0.224059 0)
(8.48722 -0.238777 0)
(8.48362 -0.254337 0)
(8.47905 -0.270984 0)
(8.47364 -0.289128 0)
(8.46749 -0.309272 0)
(8.46066 -0.331854 0)
(8.45313 -0.357092 0)
(8.44482 -0.384855 0)
(8.43561 -0.414639 0)
(8.42532 -0.445628 0)
(8.41377 -0.476845 0)
(8.40081 -0.507334 0)
(8.38627 -0.5363 0)
(8.37015 -0.563334 0)
(8.33342 -0.0100706 0)
(8.33766 -0.0297916 0)
(8.34651 -0.0483151 0)
(8.35869 -0.0652926 0)
(8.37296 -0.0806393 0)
(8.38848 -0.0943872 0)
(8.40447 -0.106645 0)
(8.42018 -0.117597 0)
(8.43505 -0.127482 0)
(8.44863 -0.136569 0)
(8.46062 -0.145141 0)
(8.4708 -0.153482 0)
(8.47904 -0.16187 0)
(8.4853 -0.170567 0)
(8.48958 -0.179807 0)
(8.49195 -0.189769 0)
(8.4925 -0.20056 0)
(8.49137 -0.212206 0)
(8.48871 -0.224685 0)
(8.48469 -0.237988 0)
(8.47949 -0.252205 0)
(8.47331 -0.267581 0)
(8.4663 -0.284509 0)
(8.45858 -0.303448 0)
(8.45021 -0.32478 0)
(8.44118 -0.348653 0)
(8.43141 -0.374873 0)
(8.42076 -0.402882 0)
(8.40907 -0.431833 0)
(8.39617 -0.460746 0)
(8.38189 -0.488688 0)
(8.36612 -0.514909 0)
(8.34885 -0.539051 0)
(8.33346 -0.0118919 0)
(8.33812 -0.0350595 0)
(8.34781 -0.0564548 0)
(8.36107 -0.0755253 0)
(8.37647 -0.0921514 0)
(8.39311 -0.106408 0)
(8.41013 -0.118492 0)
(8.42676 -0.128699 0)
(8.44235 -0.137383 0)
(8.45646 -0.144919 0)
(8.46873 -0.15168 0)
(8.47892 -0.158032 0)
(8.48693 -0.164322 0)
(8.4927 -0.170876 0)
(8.49627 -0.177979 0)
(8.49771 -0.185862 0)
(8.49717 -0.194675 0)
(8.4948 -0.204487 0)
(8.49081 -0.215314 0)
(8.48539 -0.227178 0)
(8.47876 -0.240187 0)
(8.47113 -0.25458 0)
(8.46269 -0.270714 0)
(8.45354 -0.288983 0)
(8.44375 -0.309675 0)
(8.4333 -0.332833 0)
(8.42212 -0.358157 0)
(8.41006 -0.385005 0)
(8.39696 -0.412483 0)
(8.38268 -0.4396 0)
(8.36707 -0.465446 0)
(8.35004 -0.489327 0)
(8.3316 -0.510945 0)
(8.33354 -0.0140213 0)
(8.33898 -0.0413206 0)
(8.35023 -0.0663695 0)
(8.36548 -0.0884733 0)
(8.38301 -0.10749 0)
(8.40173 -0.123464 0)
(8.42065 -0.136571 0)
(8.43888 -0.147136 0)
(8.45576 -0.155578 0)
(8.47077 -0.162355 0)
(8.48356 -0.167935 0)
(8.49392 -0.172782 0)
(8.50171 -0.177336 0)
(8.50691 -0.182002 0)
(8.50958 -0.187134 0)
(8.50983 -0.193015 0)
(8.50782 -0.19984 0)
(8.50376 -0.207709 0)
(8.49789 -0.216664 0)
(8.49048 -0.226747 0)
(8.4818 -0.238068 0)
(8.47212 -0.250853 0)
(8.46166 -0.265426 0)
(8.45058 -0.282127 0)
(8.43898 -0.30118 0)
(8.42685 -0.322563 0)
(8.4141 -0.345922 0)
(8.4006 -0.370581 0)
(8.38618 -0.395638 0)
(8.37066 -0.420121 0)
(8.35391 -0.443162 0)
(8.33583 -0.464125 0)
(8.31641 -0.482761 0)
(8.3336 -0.0165238 0)
(8.33981 -0.0483445 0)
(8.35265 -0.076685 0)
(8.36989 -0.100646 0)
(8.38957 -0.120277 0)
(8.4105 -0.135875 0)
(8.4316 -0.147849 0)
(8.45183 -0.156715 0)
(8.47041 -0.163033 0)
(8.48678 -0.16736 0)
(8.50053 -0.170247 0)
(8.5114 -0.172227 0)
(8.51929 -0.173806 0)
(8.52418 -0.17546 0)
(8.52617 -0.177616 0)
(8.52542 -0.180631 0)
(8.52218 -0.184779 0)
(8.5167 -0.19024 0)
(8.50931 -0.197128 0)
(8.50031 -0.20554 0)
(8.49001 -0.215616 0)
(8.47871 -0.227572 0)
(8.46665 -0.241673 0)
(8.45399 -0.258155 0)
(8.44081 -0.277104 0)
(8.42712 -0.298336 0)
(8.41282 -0.321352 0)
(8.3978 -0.345361 0)
(8.38188 -0.369393 0)
(8.36492 -0.392468 0)
(8.34678 -0.413751 0)
(8.3274 -0.432679 0)
(8.30678 -0.449082 0)
(8.33385 -0.0197968 0)
(8.34214 -0.0582773 0)
(8.35869 -0.0927921 0)
(8.38019 -0.122087 0)
(8.40398 -0.14595 0)
(8.42864 -0.164448 0)
(8.45294 -0.177957 0)
(8.47581 -0.187136 0)
(8.49648 -0.19275 0)
(8.51439 -0.195575 0)
(8.52916 -0.196372 0)
(8.54053 -0.195868 0)
(8.54839 -0.194734 0)
(8.55275 -0.193575 0)
(8.55371 -0.192917 0)
(8.55146 -0.193185 0)
(8.54625 -0.194689 0)
(8.53843 -0.197626 0)
(8.52836 -0.202108 0)
(8.51646 -0.20822 0)
(8.50314 -0.216079 0)
(8.4888 -0.225868 0)
(8.47379 -0.237807 0)
(8.45836 -0.252082 0)
(8.44266 -0.268722 0)
(8.42674 -0.287502 0)
(8.41052 -0.30789 0)
(8.39384 -0.329085 0)
(8.37652 -0.350132 0)
(8.35837 -0.370084 0)
(8.3392 -0.388161 0)
(8.31891 -0.403862 0)
(8.29746 -0.417066 0)
(8.33382 -0.0235727 0)
(8.34295 -0.0676002 0)
(8.36197 -0.104361 0)
(8.38695 -0.133504 0)
(8.41489 -0.15605 0)
(8.4441 -0.172653 0)
(8.47292 -0.183904 0)
(8.49991 -0.190531 0)
(8.52408 -0.193284 0)
(8.54476 -0.192906 0)
(8.56151 -0.190151 0)
(8.57406 -0.185769 0)
(8.58233 -0.180498 0)
(8.58641 -0.175042 0)
(8.58649 -0.170057 0)
(8.58289 -0.166129 0)
(8.57601 -0.163743 0)
(8.56631 -0.163275 0)
(8.55428 -0.164997 0)
(8.54042 -0.169115 0)
(8.52514 -0.175805 0)
(8.50886 -0.185234 0)
(8.49189 -0.197529 0)
(8.47445 -0.212699 0)
(8.45668 -0.230538 0)
(8.43863 -0.250557 0)
(8.42027 -0.271975 0)
(8.40148 -0.29379 0)
(8.38214 -0.314926 0)
(8.36207 -0.334399 0)
(8.34114 -0.351466 0)
(8.31924 -0.365723 0)
(8.29632 -0.377162 0)
(8.33494 -0.0302254 0)
(8.35084 -0.0891273 0)
(8.37883 -0.139634 0)
(8.4117 -0.179508 0)
(8.44582 -0.209043 0)
(8.48005 -0.229022 0)
(8.51298 -0.240772 0)
(8.54331 -0.245836 0)
(8.57016 -0.245622 0)
(8.59291 -0.241393 0)
(8.6111 -0.234307 0)
(8.62443 -0.225411 0)
(8.63279 -0.215651 0)
(8.63621 -0.205881 0)
(8.63484 -0.19685 0)
(8.62897 -0.189179 0)
(8.619 -0.183336 0)
(8.60546 -0.179629 0)
(8.58895 -0.178233 0)
(8.57012 -0.17925 0)
(8.5496 -0.18277 0)
(8.52802 -0.188901 0)
(8.50592 -0.197741 0)
(8.48375 -0.209304 0)
(8.46182 -0.223419 0)
(8.44032 -0.239649 0)
(8.41928 -0.257265 0)
(8.39859 -0.275303 0)
(8.37801 -0.292701 0)
(8.35724 -0.30848 0)
(8.33596 -0.321902 0)
(8.3139 -0.332591 0)
(8.29085 -0.340543 0)
(8.334 -0.0349923 0)
(8.34949 -0.0945919 0)
(8.38254 -0.139772 0)
(8.4238 -0.175002 0)
(8.46759 -0.202115 0)
(8.51123 -0.220783 0)
(8.55232 -0.231447 0)
(8.5893 -0.235053 0)
(8.62143 -0.232568 0)
(8.6482 -0.225039 0)
(8.66927 -0.213599 0)
(8.68443 -0.199391 0)
(8.69363 -0.183533 0)
(8.69694 -0.167118 0)
(8.69463 -0.151202 0)
(8.68717 -0.136779 0)
(8.67522 -0.124734 0)
(8.65953 -0.115798 0)
(8.64095 -0.110483 0)
(8.62021 -0.109107 0)
(8.59801 -0.111847 0)
(8.57489 -0.118779 0)
(8.55132 -0.12985 0)
(8.52765 -0.144807 0)
(8.50411 -0.16311 0)
(8.48082 -0.183868 0)
(8.45776 -0.205863 0)
(8.43478 -0.227671 0)
(8.41163 -0.247878 0)
(8.38802 -0.265308 0)
(8.36365 -0.279205 0)
(8.33834 -0.289348 0)
(8.31198 -0.295968 0)
(8.33957 -0.0589872 0)
(8.3769 -0.164878 0)
(8.42582 -0.239345 0)
(8.47489 -0.28779 0)
(8.52569 -0.317114 0)
(8.57911 -0.331491 0)
(8.6329 -0.334841 0)
(8.685 -0.330161 0)
(8.73376 -0.319421 0)
(8.77742 -0.304084 0)
(8.81439 -0.285368 0)
(8.84342 -0.264368 0)
(8.86368 -0.242155 0)
(8.87466 -0.219823 0)
(8.87632 -0.198452 0)
(8.86901 -0.179037 0)
(8.85357 -0.162409 0)
(8.83132 -0.149127 0)
(8.80392 -0.139477 0)
(8.77317 -0.133602 0)
(8.74071 -0.131546 0)
(8.70793 -0.133302 0)
(8.67581 -0.138805 0)
(8.64489 -0.147848 0)
(8.61521 -0.159991 0)
(8.58643 -0.174464 0)
(8.55795 -0.190155 0)
(8.52908 -0.205729 0)
(8.4992 -0.219842 0)
(8.46792 -0.231404 0)
(8.4351 -0.239765 0)
(8.40096 -0.244827 0)
(8.36574 -0.246886 0)
(8.33766 -0.0451815 0)
(8.39354 -0.11635 0)
(8.49303 -0.175836 0)
(8.60573 -0.231287 0)
(8.72364 -0.275827 0)
(8.84087 -0.305991 0)
(8.95023 -0.322304 0)
(9.04744 -0.325592 0)
(9.13022 -0.317075 0)
(9.19731 -0.298546 0)
(9.24843 -0.271994 0)
(9.28398 -0.239411 0)
(9.30474 -0.202812 0)
(9.31175 -0.164275 0)
(9.3062 -0.125981 0)
(9.28956 -0.0902124 0)
(9.26363 -0.0592044 0)
(9.23046 -0.0350746 0)
(9.192 -0.0188278 0)
(9.14997 -0.0107925 0)
(9.10574 -0.0107727 0)
(9.06021 -0.0180341 0)
(9.01369 -0.0313987 0)
(8.96595 -0.0493457 0)
(8.91629 -0.0700821 0)
(8.86393 -0.0916862 0)
(8.80831 -0.11232 0)
(8.74932 -0.130448 0)
(8.68741 -0.145058 0)
(8.62362 -0.155718 0)
(8.55936 -0.162737 0)
(8.49632 -0.166758 0)
(8.4357 -0.169301 0)
(8.40889 -0.219168 0)
(8.63361 -0.421812 0)
(8.83133 -0.510633 0)
(8.97595 -0.5642 0)
(9.07267 -0.588134 0)
(9.1215 -0.587925 0)
(9.12777 -0.571136 0)
(9.10184 -0.541892 0)
(9.05342 -0.503121 0)
(8.99066 -0.457528 0)
(8.92046 -0.40738 0)
(8.84825 -0.354554 0)
(8.77787 -0.300697 0)
(8.71161 -0.247362 0)
(8.65037 -0.19613 0)
(8.59395 -0.148706 0)
(8.5412 -0.106954 0)
(8.49079 -0.0718456 0)
(8.44274 -0.0443153 0)
(8.39639 -0.0245228 0)
(8.35095 -0.0117359 0)
(8.30563 -0.00459266 0)
(8.25954 -0.00143056 0)
(8.21191 -0.000637513 0)
(8.16232 -0.000916815 0)
(8.11068 -0.00146824 0)
(8.05726 -0.00204198 0)
(8.00261 -0.00284012 0)
(7.94751 -0.00435771 0)
(7.89258 -0.00711045 0)
(7.83876 -0.0116898 0)
(7.78571 -0.0179644 0)
(7.73528 -0.0276891 0)
(8.13767 -0.205632 0)
(7.85197 -0.383691 0)
(7.39751 -0.432129 0)
(6.88434 -0.429624 0)
(6.40194 -0.394963 0)
(5.9541 -0.342382 0)
(5.54418 -0.284099 0)
(5.18021 -0.226458 0)
(4.86391 -0.1726 0)
(4.59389 -0.124027 0)
(4.36829 -0.0810052 0)
(4.18473 -0.0430157 0)
(4.04048 -0.00913474 0)
(3.93276 0.0216275 0)
(3.85874 0.0499431 0)
(3.81515 0.0758106 0)
(3.79857 0.098051 0)
(3.80391 0.115069 0)
(3.82502 0.125263 0)
(3.85643 0.128881 0)
(3.8932 0.127075 0)
(3.93131 0.12108 0)
(3.96792 0.112056 0)
(4.00125 0.10104 0)
(4.03041 0.0889172 0)
(4.05511 0.0764624 0)
(4.0755 0.064354 0)
(4.09185 0.0531669 0)
(4.10456 0.0432996 0)
(4.11376 0.0351347 0)
(4.12006 0.0281161 0)
(4.12227 0.0250803 0)
(4.12537 0.00910758 0)
(3.77406 -0.355561 0)
(4.28686 -0.430321 0)
(4.77055 -0.351708 0)
(5.44882 -0.213358 0)
(6.37424 -0.146624 0)
(7.52727 -0.306273 0)