/*--------------------------------*- C++ -*----------------------------------*\
| =========                 |                                                 |
| \\      /  F ield         | OpenFOAM: The Open Source CFD Toolbox           |
|  \\    /   O peration     | Version:  2.1.1                                 |
|   \\  /    A nd           | Web:      www.OpenFOAM.org                      |
|    \\/     M anipulation  |                                                 |
\*---------------------------------------------------------------------------*/
FoamFile
{
    version     2.0;
    format      ascii;
    class       volScalarField;
    location    "0.18";
    object      epsilon;
}
// * * * * * * * * * * * * * * * * * * * * * * * * * * * * * * * * * * * * * //

dimensions      [0 2 -3 0 0 0 0];

internalField   nonuniform List<scalar> 
6820
(
151.448
203.151
260.735
321.761
383.628
443.724
499.762
550.034
593.483
629.668
658.655
680.885
697.033
707.896
714.3
717.042
716.851
714.369
710.145
704.639
698.228
691.213
683.836
676.285
668.702
661.196
653.841
646.709
639.752
633.38
625.704
625.759
590.216
11.7448
21.4175
29.9443
38.6254
47.582
56.5602
65.3231
73.6694
81.4371
88.5176
94.856
100.445
105.316
109.524
113.141
116.244
118.912
121.217
123.224
124.991
126.567
127.994
129.305
130.53
131.693
132.814
133.913
135.014
136.142
137.368
138.709
140.648
142.809
5.83781
7.51677
9.20653
10.8091
12.3196
13.7471
15.0881
16.3388
17.4977
18.5646
19.5413
20.4314
21.2401
21.974
22.6402
23.2466
23.8006
24.3096
24.7807
25.2201
25.6335
26.026
26.4021
26.7655
27.1195
27.4668
27.8099
28.151
28.4917
28.835
29.1834
29.5331
29.9359
5.2423
5.56004
6.00442
6.49344
6.98564
7.4618
7.91285
8.33446
8.72497
9.08422
9.41297
9.71256
9.98469
10.2313
10.4543
10.6558
10.8379
11.0023
11.1511
11.2859
11.4084
11.5201
11.6223
11.7163
11.8033
11.8842
11.9599
12.0309
12.0979
12.1611
12.2201
12.2753
12.3243
5.17349
5.18677
5.26821
5.39775
5.55637
5.72966
5.90777
6.08425
6.25508
6.41782
6.57109
6.71419
6.84687
6.96921
7.08148
7.18408
7.27752
7.36235
7.43914
7.50849
7.57098
7.62719
7.67767
7.72294
7.76351
7.79983
7.83235
7.86144
7.88747
7.91074
7.93149
7.94997
7.96624
5.16878
5.12131
5.09603
5.09482
5.11536
5.15307
5.20299
5.26075
5.32293
5.38693
5.4509
5.51351
5.57383
5.63126
5.68541
5.73605
5.78308
5.8265
5.86636
5.90278
5.93588
5.96583
5.9928
6.01699
6.03858
6.05777
6.07473
6.08966
6.10273
6.11411
6.12397
6.13243
6.13967
5.16887
5.11169
5.06115
5.01963
4.9884
4.96754
4.95615
4.95279
4.95587
4.96386
4.97543
4.98946
5.00504
5.02145
5.03812
5.05464
5.07066
5.08596
5.10037
5.11378
5.1261
5.13731
5.1474
5.15637
5.16426
5.1711
5.17694
5.18183
5.18583
5.18901
5.19144
5.19316
5.19425
5.16902
5.11063
5.05514
5.00339
4.95619
4.91413
4.87746
4.8461
4.81971
4.7978
4.77978
4.76509
4.75315
4.74347
4.7356
4.72914
4.72379
4.71926
4.71532
4.7118
4.70854
4.70543
4.70237
4.6993
4.69614
4.69288
4.68947
4.6859
4.68217
4.67827
4.67421
4.66998
4.66561
5.16904
5.11054
5.05431
5.00049
4.94927
4.9009
4.85558
4.81345
4.77454
4.7388
4.70608
4.6762
4.64893
4.62402
4.60122
4.5803
4.56103
4.54321
4.52665
4.5112
4.49669
4.48302
4.47006
4.45772
4.44592
4.43459
4.42367
4.41312
4.40289
4.39295
4.38327
4.37383
4.36459
5.16904
5.11054
5.0542
5.00002
4.94795
4.89803
4.85026
4.8047
4.76136
4.72026
4.68136
4.64462
4.60997
4.57731
4.54654
4.51754
4.49019
4.46436
4.43995
4.41684
4.39492
4.37409
4.35427
4.33538
4.31732
4.30004
4.28348
4.26758
4.25228
4.23756
4.22335
4.20964
4.19638
5.16904
5.11053
5.05418
4.99994
4.94772
4.89747
4.84912
4.80264
4.75798
4.71512
4.67403
4.63467
4.597
4.56098
4.52655
4.49365
4.46221
4.43218
4.40348
4.37604
4.3498
4.32468
4.30062
4.27757
4.25546
4.23423
4.21384
4.19424
4.17538
4.15722
4.13972
4.12285
4.10656
5.16904
5.11053
5.05417
4.99991
4.94767
4.89735
4.84888
4.80217
4.75718
4.71383
4.67207
4.63185
4.59313
4.55586
4.51999
4.48548
4.45227
4.42033
4.3896
4.36004
4.3316
4.30422
4.27788
4.25251
4.22808
4.20454
4.18186
4.15999
4.13889
4.11855
4.0989
4.07994
4.06162
5.16904
5.11052
5.05416
4.99989
4.94764
4.8973
4.8488
4.80205
4.75697
4.7135
4.67156
4.6311
4.59206
4.55439
4.51803
4.48294
4.44907
4.41637
4.38481
4.35434
4.32493
4.29652
4.26909
4.2426
4.21701
4.19228
4.16839
4.1453
4.12297
4.10139
4.08052
4.06033
4.04079
5.16904
5.11052
5.05415
4.99988
4.94762
4.89727
4.84876
4.80199
4.75689
4.71338
4.6714
4.63087
4.59174
4.55395
4.51744
4.48217
4.44808
4.41512
4.38326
4.35245
4.32266
4.29384
4.26597
4.23899
4.21289
4.18763
4.16318
4.1395
4.11658
4.09438
4.07288
4.05206
4.03187
5.16903
5.11051
5.05414
4.99987
4.9476
4.89725
4.84873
4.80195
4.75684
4.71332
4.67132
4.63077
4.59161
4.55378
4.51723
4.4819
4.44774
4.4147
4.38274
4.35182
4.32189
4.29293
4.26488
4.23773
4.21143
4.18595
4.16126
4.13734
4.11416
4.09169
4.06991
4.04879
4.0283
5.16903
5.11051
5.05414
4.99986
4.94758
4.89723
4.8487
4.80191
4.75679
4.71326
4.67125
4.63069
4.59152
4.55368
4.51711
4.48176
4.44757
4.4145
4.38251
4.35155
4.32158
4.29257
4.26446
4.23724
4.21087
4.18531
4.16054
4.13652
4.11324
4.09066
4.06875
4.04751
4.02689
5.16903
5.1105
5.05413
4.99985
4.94757
4.89721
4.84867
4.80188
4.75675
4.71321
4.67119
4.63063
4.59145
4.55359
4.51701
4.48165
4.44745
4.41437
4.38237
4.35139
4.3214
4.29236
4.26424
4.23699
4.21059
4.185
4.16019
4.13614
4.11281
4.09019
4.06824
4.04694
4.02627
5.16903
5.1105
5.05412
4.99984
4.94756
4.89719
4.84865
4.80185
4.75672
4.71317
4.67114
4.63057
4.59138
4.55352
4.51693
4.48155
4.44735
4.41426
4.38224
4.35126
4.32126
4.29221
4.26407
4.23681
4.21039
4.18479
4.15997
4.1359
4.11255
4.0899
4.06793
4.04661
4.02591
5.16903
5.1105
5.05412
4.99983
4.94755
4.89718
4.84863
4.80183
4.75668
4.71313
4.6711
4.63051
4.59132
4.55345
4.51685
4.48147
4.44725
4.41416
4.38213
4.35114
4.32113
4.29207
4.26392
4.23665
4.21023
4.18461
4.15978
4.13569
4.11234
4.08968
4.06769
4.04635
4.02564
5.16903
5.1105
5.05412
4.99983
4.94754
4.89716
4.84861
4.8018
4.75666
4.7131
4.67106
4.63047
4.59126
4.55339
4.51678
4.48139
4.44717
4.41406
4.38203
4.35103
4.32101
4.29194
4.26379
4.23651
4.21007
4.18445
4.1596
4.13551
4.11214
4.08947
4.06748
4.04613
4.0254
5.16903
5.1105
5.05411
4.99982
4.94753
4.89715
4.8486
4.80178
4.75663
4.71307
4.67102
4.63042
4.59121
4.55333
4.51672
4.48132
4.44709
4.41398
4.38194
4.35092
4.3209
4.29182
4.26366
4.23637
4.20993
4.18429
4.15944
4.13534
4.11196
4.08928
4.06727
4.04591
4.02518
5.16903
5.11049
5.05411
4.99981
4.94752
4.89714
4.84858
4.80176
4.75661
4.71304
4.67099
4.63038
4.59117
4.55328
4.51666
4.48125
4.44702
4.4139
4.38185
4.35083
4.3208
4.29171
4.26354
4.23625
4.20979
4.18415
4.15929
4.13518
4.11179
4.0891
4.06708
4.04571
4.02496
5.16903
5.11049
5.05411
4.99981
4.94752
4.89713
4.84857
4.80175
4.75659
4.71301
4.67096
4.63035
4.59113
4.55323
4.51661
4.4812
4.44695
4.41382
4.38177
4.35074
4.3207
4.29161
4.26343
4.23613
4.20967
4.18402
4.15915
4.13503
4.11163
4.08893
4.06691
4.04553
4.02477
5.16903
5.11049
5.05411
4.99981
4.94751
4.89712
4.84856
4.80174
4.75657
4.71299
4.67093
4.63032
4.59109
4.55319
4.51656
4.48114
4.44689
4.41376
4.3817
4.35067
4.32062
4.29152
4.26333
4.23602
4.20956
4.1839
4.15902
4.13489
4.11148
4.08878
4.06674
4.04535
4.02458
5.16903
5.11049
5.0541
4.9998
4.94751
4.89712
4.84855
4.80172
4.75656
4.71297
4.67091
4.63029
4.59106
4.55315
4.51652
4.4811
4.44684
4.4137
4.38163
4.35059
4.32054
4.29144
4.26324
4.23592
4.20945
4.18378
4.1589
4.13476
4.11135
4.08863
4.06658
4.04519
4.02441
5.16903
5.11049
5.0541
4.9998
4.9475
4.89711
4.84854
4.80171
4.75654
4.71296
4.67089
4.63027
4.59103
4.55312
4.51648
4.48106
4.44679
4.41365
4.38158
4.35053
4.32047
4.29136
4.26316
4.23584
4.20935
4.18368
4.15879
4.13464
4.11122
4.0885
4.06644
4.04504
4.02425
5.16903
5.11049
5.0541
4.9998
4.9475
4.89711
4.84854
4.8017
4.75653
4.71294
4.67087
4.63025
4.59101
4.55309
4.51645
4.48102
4.44675
4.4136
4.38152
4.35047
4.32041
4.29129
4.26309
4.23575
4.20927
4.18359
4.15868
4.13453
4.11111
4.08837
4.06631
4.0449
4.0241
5.16903
5.11049
5.0541
4.9998
4.9475
4.89711
4.84853
4.8017
4.75653
4.71294
4.67086
4.63024
4.59099
4.55308
4.51643
4.48099
4.44672
4.41357
4.38149
4.35043
4.32036
4.29124
4.26303
4.23569
4.20919
4.18351
4.1586
4.13444
4.11101
4.08827
4.0662
4.04478
4.02398
5.16903
5.11049
5.0541
4.9998
4.9475
4.8971
4.84853
4.80169
4.75651
4.71292
4.67084
4.63021
4.59097
4.55305
4.5164
4.48096
4.44669
4.41353
4.38144
4.35038
4.32031
4.29118
4.26297
4.23563
4.20913
4.18343
4.15852
4.13436
4.11092
4.08817
4.0661
4.04467
4.02386
5.16903
5.11049
5.0541
4.9998
4.9475
4.89711
4.84854
4.8017
4.75653
4.71294
4.67086
4.63023
4.59099
4.55306
4.51641
4.48097
4.44669
4.41353
4.38144
4.35038
4.3203
4.29117
4.26295
4.2356
4.20909
4.1834
4.15848
4.13431
4.11086
4.08811
4.06603
4.0446
4.02378
5.16903
5.11049
5.0541
4.9998
4.9475
4.8971
4.84853
4.80169
4.75651
4.71292
4.67084
4.63021
4.59096
4.55304
4.51638
4.48094
4.44667
4.41351
4.38142
4.35035
4.32027
4.29114
4.26292
4.23558
4.20907
4.18337
4.15845
4.13429
4.11084
4.08809
4.06601
4.04457
4.02376
5.16903
5.11049
5.0541
4.99981
4.94752
4.89714
4.84858
4.80176
4.7566
4.71301
4.67094
4.63031
4.59107
4.55315
4.5165
4.48106
4.44678
4.41362
4.38153
4.35047
4.32039
4.29126
4.26304
4.2357
4.2092
4.18351
4.1586
4.13445
4.11101
4.08827
4.06621
4.04479
4.02399
5.16903
5.11051
5.05414
4.99985
4.94756
4.89718
4.84861
4.80178
4.75661
4.71303
4.67096
4.63034
4.59111
4.55321
4.51658
4.48116
4.44692
4.41379
4.38174
4.35072
4.32069
4.29162
4.26346
4.23618
4.20974
4.18413
4.15929
4.13522
4.11187
4.08922
4.06725
4.04593
4.02523
5.16903
5.1105
5.05415
4.99992
4.9477
4.89739
4.8489
4.80214
4.75704
4.71353
4.67153
4.63098
4.59184
4.55403
4.51751
4.48222
4.44813
4.41517
4.38331
4.3525
4.3227
4.29387
4.26599
4.239
4.21287
4.18758
4.16309
4.13936
4.11638
4.09412
4.07254
4.05162
4.03134
5.16905
5.11063
5.0544
5.00025
4.94809
4.89785
4.84947
4.80288
4.75802
4.71483
4.67324
4.6332
4.59464
4.55751
4.52176
4.48732
4.45415
4.42219
4.3914
4.36172
4.33311
4.30553
4.27893
4.25326
4.2285
4.2046
4.18152
4.15923
4.1377
4.11689
4.09678
4.07733
4.05851
5.16908
5.11079
5.05488
5.00137
4.95017
4.90121
4.85442
4.80974
4.76713
4.72652
4.68785
4.65103
4.616
4.58266
4.55093
4.52072
4.49194
4.46452
4.43838
4.41343
4.38962
4.36686
4.3451
4.32427
4.30432
4.2852
4.26685
4.24924
4.23232
4.21605
4.20039
4.18531
4.17077
5.16939
5.11358
5.06201
5.01464
4.97149
4.93251
4.8975
4.86621
4.83831
4.81349
4.79141
4.77178
4.75431
4.73874
4.72484
4.7124
4.70123
4.69117
4.68208
4.67382
4.66629
4.65939
4.65302
4.64713
4.64163
4.63648
4.63163
4.62704
4.62266
4.61846
4.61443
4.61052
4.60673
5.17809
5.16328
5.16953
5.19124
5.22446
5.26615
5.31392
5.3659
5.42065
5.4771
5.53438
5.59187
5.64904
5.70552
5.76101
5.81528
5.86819
5.91961
5.96947
6.01772
6.06434
6.10932
6.15266
6.1944
6.23455
6.27316
6.31025
6.34588
6.3801
6.41294
6.44446
6.47471
6.50375
5.63861
6.43043
7.14586
7.82555
8.49446
9.14662
9.77613
10.3807
10.96
11.5151
12.0472
12.558
13.049
13.5215
13.9768
14.4161
14.8403
15.2503
15.6468
16.0305
16.4021
16.762
17.1107
17.4488
17.7766
18.0946
18.4031
18.7024
18.993
19.275
19.5489
19.8149
20.0734
44.7794
48.3124
51.8864
55.4656
59.0311
62.5709
66.0744
69.5319
72.9347
76.2749
79.5458
82.7414
85.857
88.8885
91.8327
94.6873
97.4507
100.122
102.7
105.185
107.579
109.88
112.092
114.215
116.251
118.202
120.07
121.857
123.567
125.2
126.76
128.248
129.67
704.418
838.338
943.364
1022.05
1080.37
1119.72
1139.02
1137.9
1118.01
1083.05
1037.92
987.586
936.173
886.53
840.227
797.816
759.198
723.961
691.623
661.765
634.074
608.337
584.402
562.146
541.447
522.173
504.176
487.303
471.399
456.316
441.917
428.074
414.677
401.621
388.816
376.177
363.629
351.103
338.541
325.891
313.112
300.172
287.053
273.745
260.252
246.592
232.793
218.9
204.967
191.06
177.255
163.638
150.298
137.327
124.818
112.858
101.529
90.9002
81.0279
71.9523
63.6961
56.2637
49.6423
43.8028
38.7028
34.2893
30.5026
27.2792
24.5553
22.2696
20.3647
18.7891
17.4972
16.4499
15.6141
14.9625
14.4725
14.126
13.9084
13.808
13.8149
13.9211
14.119
14.4009
14.7587
15.1827
15.6614
16.1812
16.726
17.2772
17.8145
18.3156
18.758
19.1187
19.3765
19.5101
19.5067
19.3327
19.0731
18.2341
148.011
155.446
166.039
181.04
201.223
227.091
258.759
295.592
336.133
378.231
419.333
456.861
488.592
512.981
529.328
537.783
539.188
534.817
526.112
514.453
501.007
486.664
472.028
457.469
443.18
429.236
415.65
402.403
389.465
376.805
364.39
352.188
340.162
328.274
316.482
304.742
293.015
281.263
269.455
257.566
245.581
233.494
221.309
209.039
196.709
184.353
172.017
159.755
147.629
135.712
124.076
112.801
101.965
91.6415
81.8998
72.7989
64.3856
56.6923
49.7355
43.5151
38.0148
33.2039
29.0394
25.469
22.4348
19.8763
17.7338
15.9503
14.4739
13.2582
12.2633
11.4554
10.8064
10.2936
9.89882
9.60784
9.40983
9.29673
9.26282
9.30418
9.41824
9.60334
9.85814
10.1811
10.5699
11.0205
11.5269
12.0804
12.6688
13.277
13.8866
14.4763
15.0232
15.5033
15.8931
16.1693
16.3156
16.2995
16.1869
15.5847
30.3171
30.7462
31.387
32.4303
34.0443
36.4186
39.626
43.8806
49.5098
56.8374
66.1387
77.59
91.2185
106.862
124.155
142.543
161.332
179.759
197.075
212.63
225.928
236.67
244.75
250.239
253.336
254.324
253.521
251.241
247.764
243.331
238.131
232.308
225.966
219.183
212.01
204.489
196.65
188.52
180.128
171.501
162.672
153.675
144.552
135.349
126.115
116.907
107.784
98.8113
90.054
81.5791
73.4514
65.7321
58.4759
51.7285
45.5249
39.8873
34.8245
30.3314
26.39
22.9707
20.0352
17.5385
15.4324
13.668
12.198
10.9788
9.9711
9.14068
8.45849
7.90028
7.44621
7.08028
6.78982
6.56499
6.39836
6.28453
6.21984
6.20214
6.23057
6.30537
6.42771
6.59941
6.82272
7.0999
7.43275
7.82199
8.26657
8.76291
9.3042
9.87988
10.4754
11.0723
11.649
12.1815
12.6452
13.0151
13.2712
13.3817
13.3926
13.0085
12.3756
12.4425
12.526
12.6316
12.7725
12.9701
13.2468
13.6353
14.1466
14.8156
15.6923
16.8367
18.3169
20.2069
22.5839
25.5222
29.0853
33.3143
38.2162
43.7539
49.8401
56.3379
63.0675
69.8197
76.3734
82.515
88.0556
92.8448
96.7776
99.7959
101.884
103.06
103.367
102.863
101.616
99.6947
97.1702
94.1107
90.5834
86.6543
82.3882
77.8499
73.1038
68.2141
63.2449
58.2595
53.3196
48.4842
43.8088
39.3435
35.1316
31.2086
27.6006
24.3241
21.3855
18.7814
16.4998
14.5218
12.8229
11.3754
10.1502
9.11845
8.25283
7.52844
6.92321
6.41805
5.99679
5.64592
5.35431
5.11291
4.91447
4.75325
4.62483
4.52591
4.45418
4.4082
4.38735
4.39175
4.42223
4.48033
4.56823
4.68872
4.84511
5.04105
5.28026
5.56611
5.90107
6.28595
6.71907
7.19543
7.70598
8.23732
8.77169
9.28774
9.76157
10.168
10.4848
10.6808
10.7828
10.5844
7.98267
7.99996
8.01635
8.03204
8.04825
8.0675
8.09338
8.13087
8.18415
8.25614
8.35259
8.48098
8.65034
8.87103
9.15471
9.5141
9.96273
10.5145
11.1832
11.9815
12.9202
14.0068
15.2439
16.6275
18.145
19.7744
21.4837
23.2316
24.9699
26.646
28.2068
29.6014
30.7848
31.7197
32.3782
32.7423
32.8046
32.5677
32.0433
31.2517
30.2198
28.98
27.5685
26.0238
24.3853
22.6918
20.9802
19.2845
17.635
16.0571
14.5711
13.1917
11.9283
10.7852
9.76225
8.85556
8.05856
7.36282
6.75883
6.23677
5.78696
5.40026
5.06829
4.78352
4.53936
4.33008
4.15078
3.99733
3.86628
3.75481
3.66062
3.58195
3.51745
3.46619
3.42766
3.40169
3.38852
3.38878
3.4035
3.43416
3.48269
3.55151
3.64357
3.76223
3.91127
4.09463
4.31609
4.5788
4.88456
5.23298
5.62056
6.0399
6.47915
6.92209
7.34859
7.73591
8.0616
8.29683
8.45161
8.395
6.14643
6.15202
6.15545
6.157
6.15693
6.15554
6.15335
6.15126
6.15012
6.15081
6.15445
6.16241
6.17631
6.19806
6.22983
6.27403
6.33324
6.41014
6.50742
6.62763
6.77308
6.94569
7.14678
7.37693
7.63571
7.92151
8.23133
8.56071
8.90362
9.25258
9.59882
9.93253
10.2432
10.5203
10.7532
10.9326
11.0502
11.0999
11.0779
10.9832
10.8173
10.5846
10.2915
9.94661
9.55964
9.14113
8.70177
8.25188
7.801
7.35747
6.92831
6.51901
6.13364
5.77482
5.44399
5.14151
4.86694
4.61919
4.39673
4.19777
4.02035
3.86248
3.72222
3.59771
3.48723
3.38919
3.30221
3.22504
3.15663
3.0961
3.04273
2.99598
2.95547
2.92099
2.8925
2.87015
2.85428
2.84545
2.84444
2.85235
2.87055
2.90078
2.94514
3.00618
3.08684
3.1904
3.32039
3.48028
3.67314
3.90096
4.16394
4.45958
4.78187
5.12077
5.462
5.78773
6.07845
6.30934
6.47868
6.51321
5.19466
5.19395
5.19187
5.18837
5.18346
5.17717
5.16961
5.16097
5.15141
5.14119
5.1306
5.11994
5.1096
5.1
5.09164
5.08509
5.08099
5.08005
5.08299
5.09052
5.10333
5.122
5.14698
5.17852
5.21664
5.26109
5.31131
5.36639
5.42513
5.48598
5.5471
5.60641
5.66162
5.71033
5.7501
5.77855
5.79348
5.793
5.77562
5.74041
5.68699
5.61563
5.52721
5.42317
5.3054
5.17617
5.03797
4.8934
4.74503
4.5953
4.44644
4.30038
4.15876
4.02286
3.89365
3.77176
3.65758
3.55123
3.45264
3.36159
3.27774
3.20065
3.12984
3.06482
3.00507
2.9501
2.89946
2.85273
2.80954
2.76959
2.73262
2.69847
2.66702
2.63825
2.61223
2.5891
2.56914
2.55274
2.54041
2.53287
2.53101
2.53595
2.54909
2.57212
2.60707
2.6563
2.72245
2.80837
2.91693
3.05062
3.21114
3.3987
3.61127
3.84392
4.08815
4.33203
4.56099
4.7559
4.90907
4.98617
4.66026
4.65363
4.64624
4.63803
4.62897
4.61907
4.60832
4.59675
4.58437
4.57124
4.55739
4.54289
4.52782
4.51227
4.49636
4.48022
4.464
4.44789
4.43211
4.41687
4.40241
4.38895
4.37667
4.36574
4.35624
4.34819
4.3415
4.33601
4.33143
4.32739
4.32342
4.31896
4.3134
4.30606
4.29625
4.28328
4.26648
4.24526
4.21912
4.1877
4.15078
4.10831
4.06045
4.00748
3.94989
3.88827
3.82332
3.7558
3.68652
3.61628
3.54585
3.47594
3.40719
3.34012
3.27518
3.21269
3.1529
3.09593
3.04184
2.9906
2.94214
2.89632
2.85298
2.81194
2.773
2.73596
2.70063
2.66683
2.63441
2.60324
2.57321
2.54426
2.51636
2.48953
2.46381
2.43932
2.41624
2.3948
2.37534
2.35828
2.34418
2.33372
2.32777
2.3274
2.33392
2.34886
2.37404
2.41149
2.46337
2.53183
2.61873
2.72521
2.8512
2.99487
3.15193
3.31543
3.47589
3.6202
3.73954
3.82159
4.35403
4.34191
4.32947
4.31667
4.30345
4.28981
4.2757
4.26111
4.24602
4.23043
4.21435
4.19777
4.18069
4.16312
4.14507
4.12654
4.10756
4.08817
4.0684
4.04831
4.02797
4.00745
3.98682
3.96614
3.94548
3.92487
3.90433
3.88384
3.86337
3.84284
3.82213
3.80112
3.77963
3.75748
3.73447
3.71039
3.68504
3.65823
3.62978
3.59959
3.56755
3.53365
3.49792
3.46046
3.4214
3.38097
3.33939
3.29694
3.25393
3.21064
3.16737
3.1244
3.08197
3.04032
2.99961
2.95999
2.92155
2.88433
2.84836
2.81361
2.78004
2.74758
2.71612
2.68558
2.65584
2.6268
2.59836
2.57041
2.54287
2.51567
2.48876
2.46211
2.43571
2.40956
2.3837
2.35821
2.33319
2.30878
2.28519
2.26266
2.24151
2.22217
2.20514
2.19107
2.18076
2.17518
2.17547
2.18297
2.19919
2.2257
2.26401
2.31535
2.38036
2.45867
2.54844
2.64607
2.74604
2.84013
2.92128
2.98626
4.18143
4.16456
4.14764
4.13061
4.11346
4.09614
4.07864
4.06094
4.04301
4.02485
4.00642
3.98773
3.96875
3.94947
3.92987
3.90993
3.88964
3.86899
3.84798
3.8266
3.80486
3.78278
3.76036
3.73763
3.7146
3.6913
3.66774
3.64393
3.61987
3.59556
3.57099
3.54613
3.52097
3.49545
3.46955
3.44322
3.4164
3.38905
3.36114
3.33264
3.30352
3.27381
3.24351
3.21268
3.18138
3.1497
3.11774
3.0856
3.05342
3.02131
2.98939
2.95776
2.92654
2.8958
2.8656
2.83598
2.80697
2.77856
2.75075
2.72349
2.69674
2.67043
2.6445
2.61887
2.59346
2.56821
2.54303
2.51787
2.49267
2.46739
2.44198
2.41642
2.39071
2.36486
2.33888
2.31283
2.28675
2.26075
2.23493
2.20944
2.18447
2.16026
2.13711
2.11539
2.09558
2.07826
2.06412
2.05401
2.04888
2.04981
2.05788
2.07412
2.09925
2.13351
2.17631
2.22595
2.27952
2.33216
2.37951
2.41939
4.08825
4.06768
4.04716
4.02669
4.00623
3.98576
3.96528
3.94474
3.92416
3.9035
3.88276
3.86192
3.84097
3.81989
3.79867
3.77728
3.75571
3.73394
3.71195
3.68974
3.66728
3.64457
3.62161
3.59839
3.57492
3.55118
3.5272
3.50297
3.4785
3.4538
3.42887
3.40372
3.37835
3.35277
3.32699
3.30101
3.27483
3.24847
3.22193
3.19521
3.16833
3.14132
3.11419
3.08699
3.05973
3.03248
3.00528
2.97819
2.95124
2.92451
2.89802
2.87182
2.84595
2.82043
2.79526
2.77044
2.74597
2.72182
2.69796
2.67433
2.6509
2.62759
2.60437
2.58115
2.55788
2.5345
2.51095
2.48719
2.46317
2.43885
2.41421
2.38922
2.36389
2.33822
2.31221
2.2859
2.25932
2.23253
2.2056
2.17861
2.15169
2.12495
2.09859
2.07282
2.04791
2.0242
2.00209
1.9821
1.9648
1.95088
1.94107
1.9361
1.9366
1.94296
1.95515
1.9725
1.99364
2.01576
2.03707
2.05255
4.041
4.01783
3.99476
3.97176
3.94882
3.92594
3.90311
3.88031
3.85754
3.83479
3.81205
3.78931
3.76657
3.74382
3.72103
3.69821
3.67533
3.65239
3.62937
3.60625
3.58302
3.55968
3.53621
3.51261
3.48887
3.46498
3.44095
3.41677
3.39244
3.36798
3.34337
3.31864
3.2938
3.26885
3.24381
3.2187
3.19354
3.16834
3.14312
3.1179
3.09271
3.06756
3.04248
3.01749
2.99262
2.9679
2.94335
2.919
2.89486
2.87097
2.84733
2.82396
2.80085
2.778
2.75541
2.73305
2.71089
2.6889
2.66703
2.64525
2.6235
2.60172
2.57986
2.55787
2.53569
2.51327
2.49056
2.46752
2.44412
2.42032
2.3961
2.37144
2.34635
2.32081
2.29484
2.26846
2.24169
2.21456
2.18713
2.15944
2.13158
2.10363
2.07568
2.04788
2.02038
1.99337
1.96709
1.94184
1.91796
1.89587
1.87602
1.85889
1.84496
1.8346
1.82797
1.82489
1.82486
1.82619
1.82922
1.82483
4.01876
3.99399
3.96928
3.94464
3.92007
3.89555
3.87109
3.84668
3.82232
3.79802
3.77376
3.74955
3.72538
3.70126
3.67716
3.6531
3.62906
3.60504
3.58102
3.557
3.53297
3.50893
3.48486
3.46076
3.43664
3.41247
3.38826
3.36401
3.33972
3.31538
3.29101
3.26661
3.24219
3.21776
3.19333
3.16892
3.14455
3.12023
3.09598
3.07182
3.04777
3.02385
3.00008
2.97647
2.95304
2.92981
2.9068
2.88401
2.86145
2.83914
2.81706
2.79521
2.77358
2.75217
2.73093
2.70986
2.6889
2.66803
2.6472
2.62636
2.60547
2.58448
2.56332
2.54196
2.52034
2.49842
2.47615
2.4535
2.43044
2.40693
2.38296
2.35851
2.33357
2.30815
2.28226
2.25589
2.22908
2.20185
2.17424
2.14628
2.11802
2.08953
2.06087
2.03213
2.0034
1.9748
1.94647
1.91858
1.89134
1.86499
1.83982
1.81612
1.79421
1.77438
1.75683
1.74158
1.72855
1.71665
1.70773
1.68883
4.00909
3.98343
3.9578
3.93221
3.90667
3.88116
3.85569
3.83027
3.80489
3.77956
3.75429
3.72906
3.70389
3.67878
3.65372
3.62872
3.60378
3.57889
3.55404
3.52925
3.50451
3.47981
3.45515
3.43052
3.40594
3.3814
3.35689
3.33241
3.30798
3.28358
3.25922
3.23492
3.21067
3.18648
3.16237
3.13835
3.11443
3.09062
3.06695
3.04342
3.02006
2.99686
2.97386
2.95105
2.92846
2.90609
2.88394
2.86202
2.84034
2.81888
2.79764
2.77661
2.75577
2.7351
2.71457
2.69416
2.67382
2.65352
2.63321
2.61285
2.59239
2.57178
2.55097
2.52993
2.50859
2.48693
2.46489
2.44245
2.41957
2.39623
2.37241
2.3481
2.32329
2.29797
2.27216
2.24586
2.21909
2.19188
2.16424
2.13621
2.10784
2.07916
2.05023
2.0211
1.99185
1.96255
1.93329
1.90418
1.87535
1.84693
1.81911
1.79208
1.76603
1.74117
1.71767
1.6956
1.6751
1.65531
1.63912
1.61053
4.00515
3.97905
3.95296
3.92688
3.90082
3.87478
3.84876
3.82277
3.7968
3.77087
3.74498
3.71914
3.69334
3.66759
3.6419
3.61627
3.5907
3.56519
3.53975
3.51438
3.48908
3.46385
3.43869
3.41361
3.3886
3.36367
3.33883
3.31407
3.2894
3.26481
3.24033
3.21594
3.19167
3.16751
3.14348
3.11958
3.09584
3.07225
3.04883
3.0256
3.00256
2.97973
2.95711
2.93471
2.91254
2.8906
2.86889
2.84741
2.82616
2.80513
2.78431
2.76367
2.74321
2.7229
2.70271
2.6826
2.66254
2.6425
2.62242
2.60227
2.582
2.56156
2.54092
2.52001
2.49881
2.47726
2.45534
2.43301
2.41024
2.387
2.36328
2.33907
2.31435
2.28913
2.26341
2.23719
2.2105
2.18335
2.15576
2.12777
2.09941
2.07072
2.04174
2.01251
1.98309
1.95354
1.92393
1.89432
1.8648
1.83548
1.80646
1.77786
1.74982
1.72247
1.69595
1.67034
1.64583
1.62166
1.60136
1.56683
4.00358
3.97728
3.95097
3.92467
3.89836
3.87205
3.84576
3.81947
3.79321
3.76696
3.74073
3.71454
3.68839
3.66227
3.6362
3.61018
3.58422
3.55832
3.53249
3.50673
3.48104
3.45543
3.4299
3.40447
3.37912
3.35388
3.32873
3.3037
3.27877
3.25397
3.22929
3.20475
3.18034
3.15609
3.13199
3.10806
3.08431
3.06074
3.03737
3.01421
2.99127
2.96855
2.94606
2.9238
2.90178
2.88
2.85845
2.83714
2.81606
2.79518
2.77451
2.75403
2.7337
2.71351
2.69343
2.67342
2.65345
2.63348
2.61347
2.59338
2.57317
2.55278
2.53217
2.51131
2.49015
2.46865
2.44678
2.4245
2.40179
2.37862
2.35497
2.33083
2.30619
2.28105
2.25542
2.22929
2.20269
2.17563
2.14813
2.12023
2.09194
2.06332
2.03439
2.0052
1.97578
1.94621
1.91651
1.88677
1.85703
1.82738
1.79788
1.76864
1.73974
1.71128
1.68336
1.65605
1.62957
1.60317
1.58072
1.54286
4.00289
3.9765
3.9501
3.92369
3.89727
3.87085
3.84442
3.818
3.79158
3.76517
3.73878
3.71241
3.68606
3.65975
3.63347
3.60724
3.58105
3.55492
3.52884
3.50284
3.4769
3.45104
3.42526
3.39957
3.37398
3.34849
3.32311
3.29785
3.27271
3.2477
3.22283
3.19811
3.17354
3.14913
3.1249
3.10085
3.077
3.05335
3.02991
3.00669
2.9837
2.96094
2.93843
2.91615
2.89412
2.87234
2.85079
2.82948
2.80839
2.78751
2.76684
2.74634
2.72601
2.7058
2.6857
2.66567
2.64567
2.62568
2.60564
2.58552
2.56527
2.54486
2.52424
2.50337
2.4822
2.4607
2.43884
2.41658
2.3939
2.37077
2.34717
2.32309
2.29852
2.27346
2.24791
2.22187
2.19537
2.16841
2.14101
2.11321
2.08504
2.05652
2.02769
1.99859
1.96927
1.93977
1.91013
1.88042
1.85068
1.82098
1.79137
1.76194
1.73275
1.70387
1.6754
1.64738
1.62003
1.5926
1.56915
1.52961
4.0025
3.97607
3.94963
3.92317
3.89669
3.87021
3.84372
3.81723
3.79074
3.76425
3.73778
3.71132
3.68487
3.65845
3.63206
3.6057
3.57939
3.55312
3.5269
3.50075
3.47465
3.44863
3.42269
3.39683
3.37107
3.34541
3.31985
3.29441
3.2691
3.24391
3.21887
3.19398
3.16925
3.14469
3.12031
3.09611
3.07212
3.04834
3.02477
3.00143
2.97832
2.95545
2.93283
2.91045
2.88831
2.86643
2.84478
2.82337
2.80219
2.78122
2.76045
2.73986
2.71943
2.69913
2.67893
2.6588
2.63872
2.61863
2.59851
2.57831
2.558
2.53752
2.51684
2.49592
2.47472
2.4532
2.43133
2.40907
2.3864
2.3633
2.33974
2.31571
2.2912
2.26621
2.24074
2.21479
2.18838
2.16153
2.13424
2.10656
2.0785
2.05011
2.0214
1.99243
1.96324
1.93386
1.90434
1.87474
1.8451
1.81548
1.78593
1.75652
1.72731
1.69836
1.66975
1.6415
1.61385
1.58604
1.56219
1.52191
4.00221
3.97576
3.94929
3.9228
3.89629
3.86978
3.84326
3.81673
3.7902
3.76367
3.73714
3.71063
3.68413
3.65765
3.63119
3.60476
3.57837
3.55202
3.52571
3.49946
3.47327
3.44714
3.42109
3.39511
3.36922
3.34343
3.31775
3.29217
3.26672
3.24139
3.21621
3.19117
3.16629
3.14158
3.11705
3.09271
3.06857
3.04464
3.02093
2.99744
2.97418
2.95117
2.92839
2.90587
2.88359
2.86156
2.83977
2.81822
2.79689
2.77578
2.75486
2.73413
2.71356
2.69312
2.67278
2.65253
2.63231
2.61211
2.59187
2.57157
2.55115
2.53059
2.50983
2.48885
2.4676
2.44604
2.42415
2.40188
2.37921
2.35613
2.3326
2.30861
2.28416
2.25924
2.23384
2.20799
2.18167
2.15492
2.12775
2.10019
2.07226
2.04399
2.01542
1.98659
1.95754
1.92831
1.89894
1.86949
1.83999
1.81051
1.7811
1.7518
1.72269
1.69382
1.66526
1.63703
1.60935
1.58146
1.55752
1.51701
4.00195
3.97549
3.94899
3.92248
3.89596
3.86942
3.84287
3.81632
3.78976
3.7632
3.73664
3.71009
3.68355
3.65703
3.63053
3.60405
3.57761
3.5512
3.52483
3.49851
3.47224
3.44604
3.4199
3.39384
3.36786
3.34197
3.31618
3.29049
3.26493
3.23948
3.21418
3.18902
3.16401
3.13917
3.1145
3.09002
3.06573
3.04165
3.01779
2.99415
2.97074
2.94757
2.92463
2.90195
2.87951
2.85731
2.83536
2.81364
2.79215
2.77087
2.74979
2.72889
2.70816
2.68756
2.66707
2.64666
2.62631
2.60596
2.5856
2.56517
2.54465
2.52399
2.50315
2.48209
2.46078
2.43917
2.41725
2.39496
2.3723
2.34922
2.32572
2.30177
2.27737
2.25252
2.2272
2.20143
2.17521
2.14857
2.12151
2.09407
2.06626
2.03813
2.00971
1.98102
1.95212
1.92305
1.89384
1.86454
1.83521
1.8059
1.77665
1.74752
1.71856
1.68984
1.6614
1.63328
1.6057
1.57787
1.55397
1.51347
4.00172
3.97523
3.94872
3.9222
3.89565
3.86909
3.84252
3.81595
3.78936
3.76278
3.7362
3.70962
3.68305
3.65649
3.62995
3.60344
3.57695
3.55049
3.52407
3.4977
3.47137
3.44511
3.4189
3.39277
3.36671
3.34074
3.31486
3.28908
3.26342
3.23787
3.21246
3.18718
3.16206
3.1371
3.1123
3.08769
3.06327
3.03905
3.01504
2.99125
2.96769
2.94436
2.92127
2.89842
2.87581
2.85345
2.83133
2.80944
2.78777
2.76632
2.74507
2.724
2.7031
2.68233
2.66168
2.64112
2.62061
2.60012
2.57962
2.55907
2.53843
2.51767
2.49674
2.4756
2.45423
2.43257
2.41061
2.38831
2.36564
2.34257
2.31909
2.29519
2.27084
2.24605
2.2208
2.19512
2.169
2.14246
2.11552
2.0882
2.06053
2.03253
2.00425
1.97572
1.94697
1.91805
1.88901
1.85989
1.83073
1.80159
1.77251
1.74356
1.71478
1.68622
1.65795
1.62998
1.60253
1.57482
1.55102
1.51063
4.00149
3.97499
3.94847
3.92192
3.89536
3.86879
3.8422
3.8156
3.78899
3.76239
3.73578
3.70917
3.68257
3.65599
3.62942
3.60287
3.57634
3.54984
3.52338
3.49695
3.47058
3.44425
3.41799
3.39179
3.36566
3.33962
3.31366
3.2878
3.26205
3.23641
3.2109
3.18553
3.16029
3.13522
3.11031
3.08557
3.06102
3.03667
3.01253
2.9886
2.96489
2.94141
2.91816
2.89515
2.87239
2.84986
2.82756
2.8055
2.78367
2.76204
2.74062
2.71938
2.69831
2.67738
2.65657
2.63585
2.61519
2.59456
2.57392
2.55324
2.53249
2.51162
2.49059
2.46938
2.44794
2.42624
2.40424
2.38192
2.35924
2.33618
2.31273
2.28886
2.26456
2.23984
2.21467
2.18907
2.16305
2.13662
2.1098
2.0826
2.05506
2.02721
1.99907
1.97069
1.9421
1.91335
1.88448
1.85552
1.82654
1.79757
1.76868
1.7399
1.71129
1.68291
1.6548
1.62699
1.59969
1.57212
1.54843
1.50817
4.00128
3.97477
3.94823
3.92167
3.89509
3.86849
3.84189
3.81527
3.78864
3.76201
3.73538
3.70875
3.68213
3.65551
3.62891
3.60232
3.57576
3.54922
3.52272
3.49625
3.46983
3.44345
3.41713
3.39087
3.36468
3.33857
3.31254
3.28661
3.26078
3.23505
3.20945
3.18398
3.15865
3.13347
3.10845
3.0836
3.05893
3.03445
3.01018
2.98611
2.96226
2.93864
2.91524
2.89208
2.86916
2.84647
2.82402
2.80179
2.77979
2.758
2.73641
2.715
2.69377
2.67267
2.6517
2.63083
2.61002
2.58925
2.56848
2.54768
2.52681
2.50583
2.48472
2.46343
2.44192
2.42017
2.39814
2.3758
2.35312
2.33008
2.30665
2.28282
2.25858
2.23392
2.20884
2.18333
2.15741
2.1311
2.10439
2.07733
2.04993
2.02222
1.99423
1.966
1.93757
1.90899
1.88028
1.85149
1.82268
1.79389
1.76517
1.73656
1.70813
1.67991
1.65196
1.6243
1.59714
1.5697
1.54611
1.50598
4.00109
3.97456
3.94801
3.92143
3.89483
3.86822
3.84159
3.81496
3.78831
3.76166
3.735
3.70835
3.6817
3.65506
3.62843
3.60181
3.57521
3.54864
3.5221
3.49559
3.46912
3.44269
3.41632
3.39001
3.36376
3.33758
3.31149
3.28548
3.25957
3.23377
3.20808
3.18252
3.1571
3.13182
3.10669
3.08174
3.05696
3.03236
3.00796
2.98377
2.95979
2.93603
2.91249
2.88919
2.86611
2.84327
2.82066
2.79828
2.77612
2.75417
2.73242
2.71085
2.68946
2.66821
2.64708
2.62606
2.60511
2.5842
2.5633
2.54238
2.5214
2.50032
2.47912
2.45776
2.4362
2.4144
2.39235
2.36999
2.34732
2.32429
2.3009
2.27712
2.25295
2.22836
2.20337
2.17797
2.15216