/*--------------------------------*- C++ -*----------------------------------*\
| =========                 |                                                 |
| \\      /  F ield         | OpenFOAM: The Open Source CFD Toolbox           |
|  \\    /   O peration     | Version:  2.1.1                                 |
|   \\  /    A nd           | Web:      www.OpenFOAM.org                      |
|    \\/     M anipulation  |                                                 |
\*---------------------------------------------------------------------------*/
FoamFile
{
    version     2.0;
    format      ascii;
    class       volScalarField;
    location    "0.18";
    object      k;
}
// * * * * * * * * * * * * * * * * * * * * * * * * * * * * * * * * * * * * * //

dimensions      [0 2 -2 0 0 0 0];

internalField   nonuniform List<scalar> 
6820
(
0.288909
0.351398
0.415005
0.477466
0.536859
0.591555
0.640367
0.682622
0.718113
0.747012
0.769766
0.78699
0.799385
0.807669
0.812532
0.814611
0.814466
0.812585
0.809378
0.805189
0.800297
0.794929
0.789263
0.783441
0.777574
0.771744
0.766011
0.76043
0.754967
0.749945
0.743873
0.743917
0.715473
0.265532
0.269396
0.270523
0.271341
0.272559
0.274216
0.276228
0.27848
0.280863
0.28329
0.285705
0.288079
0.290402
0.292678
0.294922
0.297153
0.29939
0.301653
0.303957
0.306315
0.308736
0.311228
0.313792
0.316432
0.319146
0.321936
0.324803
0.327754
0.330804
0.334011
0.337389
0.341447
0.345611
0.262038
0.264253
0.263596
0.261557
0.259
0.256318
0.253627
0.250938
0.24824
0.245524
0.242794
0.240061
0.237345
0.234668
0.232052
0.229518
0.227085
0.224769
0.222582
0.220533
0.218629
0.216874
0.215269
0.213813
0.212506
0.211344
0.210324
0.209444
0.208698
0.20809
0.207608
0.207281
0.207051
0.259885
0.260272
0.259797
0.258535
0.256829
0.254891
0.252833
0.250709
0.248547
0.246358
0.244152
0.241934
0.239713
0.237494
0.235286
0.233095
0.230931
0.228798
0.226705
0.224657
0.222658
0.220713
0.218825
0.216998
0.215232
0.21353
0.211891
0.210316
0.208804
0.207355
0.205965
0.204637
0.20336
0.259299
0.258404
0.2576
0.256567
0.255295
0.25385
0.252292
0.250662
0.248984
0.247277
0.245551
0.243815
0.242074
0.240335
0.238601
0.236876
0.235166
0.233472
0.231798
0.230147
0.228522
0.226925
0.225358
0.223823
0.222321
0.220854
0.219421
0.218024
0.216663
0.215337
0.214048
0.212796
0.21158
0.259224
0.257848
0.256623
0.255437
0.254227
0.25297
0.251663
0.250312
0.248929
0.247522
0.246101
0.24467
0.243237
0.241805
0.240377
0.238957
0.237548
0.236152
0.234771
0.233406
0.232059
0.230733
0.229427
0.228143
0.226882
0.225644
0.224431
0.223242
0.222078
0.22094
0.219828
0.218741
0.217683
0.259217
0.257715
0.256309
0.25498
0.253698
0.252442
0.251196
0.249951
0.248704
0.247455
0.246204
0.244955
0.243709
0.242469
0.241236
0.240013
0.2388
0.2376
0.236413
0.235242
0.234086
0.232946
0.231824
0.23072
0.229634
0.228567
0.22752
0.226492
0.225484
0.224496
0.22353
0.222584
0.22166
0.259218
0.25769
0.256225
0.254822
0.253477
0.252181
0.250924
0.249696
0.248492
0.247306
0.246137
0.244981
0.243839
0.24271
0.241595
0.240493
0.239405
0.238332
0.237273
0.23623
0.235202
0.23419
0.233195
0.232216
0.231255
0.23031
0.229382
0.228472
0.227579
0.226704
0.225846
0.225007
0.224187
0.259218
0.257686
0.256207
0.25478
0.253405
0.25208
0.250799
0.24956
0.248357
0.247185
0.246042
0.244925
0.24383
0.242757
0.241705
0.240671
0.239656
0.23866
0.237681
0.236719
0.235775
0.234847
0.233937
0.233043
0.232166
0.231306
0.230463
0.229636
0.228825
0.228031
0.227254
0.226493
0.225749
0.259218
0.257686
0.256203
0.254769
0.253384
0.252045
0.250751
0.2495
0.248288
0.247114
0.245974
0.244866
0.243788
0.242737
0.241713
0.240712
0.239735
0.238779
0.237845
0.236931
0.236036
0.23516
0.234303
0.233464
0.232643
0.231839
0.231051
0.230281
0.229527
0.228789
0.228068
0.227362
0.226673
0.259218
0.257686
0.256202
0.254767
0.253378
0.252035
0.250735
0.249477
0.248259
0.24708
0.245937
0.244829
0.243753
0.242709
0.241693
0.240705
0.239743
0.238807
0.237894
0.237004
0.236136
0.235288
0.234461
0.233654
0.232866
0.232096
0.231344
0.230609
0.229892
0.229191
0.228506
0.227837
0.227184
0.259218
0.257685
0.256201
0.254766
0.253376
0.252031
0.250729
0.249469
0.248248
0.247066
0.24592
0.24481
0.243733
0.242688
0.241674
0.240689
0.239732
0.238802
0.237898
0.237018
0.236162
0.235329
0.234517
0.233726
0.232955
0.232204
0.231471
0.230757
0.230061
0.229382
0.228719
0.228073
0.227443
0.259218
0.257685
0.256201
0.254765
0.253375
0.25203
0.250727
0.249465
0.248243
0.247059
0.245912
0.2448
0.243722
0.242676
0.241661
0.240677
0.239721
0.238792
0.23789
0.237014
0.236162
0.235334
0.234528
0.233745
0.232982
0.232239
0.231517
0.230813
0.230128
0.22946
0.22881
0.228176
0.227559
0.259218
0.257685
0.256201
0.254764
0.253374
0.252028
0.250725
0.249463
0.248241
0.247056
0.245908
0.244795
0.243716
0.242669
0.241654
0.240668
0.239712
0.238784
0.237882
0.237006
0.236155
0.235329
0.234525
0.233744
0.232984
0.232245
0.231527
0.230827
0.230147
0.229485
0.22884
0.228213
0.227602
0.259218
0.257685
0.2562
0.254764
0.253374
0.252028
0.250724
0.249462
0.248239
0.247054
0.245905
0.244792
0.243712
0.242665
0.241649
0.240663
0.239706
0.238777
0.237875
0.236999
0.236148
0.235322
0.234519
0.233738
0.232979
0.232241
0.231524
0.230826
0.230147
0.229487
0.228845
0.22822
0.227611
0.259218
0.257685
0.2562
0.254764
0.253373
0.252027
0.250723
0.249461
0.248237
0.247052
0.245903
0.244789
0.243709
0.242661
0.241645
0.240659
0.239701
0.238772
0.23787
0.236993
0.236142
0.235315
0.234512
0.233731
0.232972
0.232234
0.231517
0.23082
0.230141
0.229482
0.22884
0.228215
0.227608
0.259218
0.257685
0.2562
0.254763
0.253373
0.252026
0.250722
0.24946
0.248236
0.24705
0.245901
0.244787
0.243707
0.242659
0.241642
0.240655
0.239697
0.238768
0.237865
0.236989
0.236137
0.23531
0.234506
0.233725
0.232966
0.232228
0.23151
0.230812
0.230134
0.229474
0.228832
0.228208
0.2276
0.259218
0.257685
0.2562
0.254763
0.253372
0.252026
0.250722
0.249459
0.248235
0.247049
0.2459
0.244785
0.243704
0.242656
0.241639
0.240652
0.239694
0.238764
0.237861
0.236984
0.236132
0.235305
0.234501
0.233719
0.23296
0.232221
0.231504
0.230806
0.230127
0.229466
0.228824
0.228199
0.227591
0.259218
0.257684
0.2562
0.254763
0.253372
0.252025
0.250721
0.249458
0.248234
0.247048
0.245898
0.244783
0.243702
0.242654
0.241636
0.240649
0.239691
0.238761
0.237857
0.23698
0.236128
0.2353
0.234496
0.233714
0.232954
0.232216
0.231497
0.230799
0.23012
0.229459
0.228816
0.228191
0.227583
0.259218
0.257684
0.2562
0.254763
0.253371
0.252025
0.25072
0.249457
0.248233
0.247047
0.245897
0.244782
0.2437
0.242652
0.241634
0.240647
0.239688
0.238758
0.237854
0.236976
0.236124
0.235296
0.234491
0.233709
0.232949
0.23221
0.231492
0.230793
0.230113
0.229452
0.228809
0.228184
0.227575
0.259218
0.257684
0.256199
0.254762
0.253371
0.252024
0.25072
0.249456
0.248232
0.247046
0.245895
0.24478
0.243699
0.24265
0.241632
0.240644
0.239686
0.238755
0.237851
0.236973
0.23612
0.235292
0.234487
0.233705
0.232944
0.232205
0.231486
0.230787
0.230107
0.229446
0.228802
0.228176
0.227567
0.259218
0.257684
0.256199
0.254762
0.253371
0.252024
0.250719
0.249456
0.248231
0.247045
0.245894
0.244779
0.243697
0.242648
0.24163
0.240642
0.239683
0.238752
0.237848
0.23697
0.236117
0.235288
0.234483
0.233701
0.23294
0.2322
0.231481
0.230782
0.230101
0.22944
0.228796
0.228169
0.22756
0.259218
0.257684
0.256199
0.254762
0.253371
0.252024
0.250719
0.249455
0.248231
0.247044
0.245893
0.244778
0.243696
0.242647
0.241628
0.24064
0.239681
0.23875
0.237845
0.236967
0.236114
0.235285
0.23448
0.233697
0.232936
0.232196
0.231476
0.230777
0.230096
0.229434
0.22879
0.228163
0.227553
0.259218
0.257684
0.256199
0.254762
0.253371
0.252023
0.250719
0.249455
0.24823
0.247043
0.245893
0.244777
0.243695
0.242645
0.241627
0.240639
0.239679
0.238748
0.237843
0.236965
0.236111
0.235282
0.234476
0.233693
0.232932
0.232192
0.231472
0.230772
0.230091
0.229429
0.228784
0.228157
0.227547
0.259218
0.257684
0.256199
0.254762
0.25337
0.252023
0.250718
0.249454
0.24823
0.247043
0.245892
0.244776
0.243694
0.242644
0.241626
0.240637
0.239677
0.238746
0.237841
0.236962
0.236109
0.235279
0.234473
0.23369
0.232928
0.232188
0.231468
0.230767
0.230086
0.229424
0.228779
0.228151
0.227541
0.259218
0.257684
0.256199
0.254762
0.25337
0.252023
0.250718
0.249454
0.248229
0.247042
0.245891
0.244775
0.243693
0.242643
0.241624
0.240636
0.239676
0.238744
0.237839
0.23696
0.236106
0.235277
0.234471
0.233687
0.232925
0.232184
0.231464
0.230764
0.230082
0.229419
0.228774
0.228146
0.227535
0.259218
0.257684
0.256199
0.254762
0.25337
0.252023
0.250718
0.249454
0.248229
0.247042
0.245891
0.244775
0.243692
0.242642
0.241623
0.240634
0.239675
0.238743
0.237837
0.236958
0.236104
0.235274
0.234468
0.233684
0.232922
0.232181
0.231461
0.23076
0.230078
0.229415
0.22877
0.228142
0.22753
0.259218
0.257684
0.256199
0.254762
0.25337
0.252023
0.250718
0.249454
0.248229
0.247041
0.24589
0.244774
0.243692
0.242642
0.241623
0.240634
0.239674
0.238741
0.237836
0.236957
0.236103
0.235273
0.234466
0.233682
0.23292
0.232179
0.231458
0.230757
0.230075
0.229411
0.228766
0.228138
0.227526
0.259218
0.257684
0.256199
0.254762
0.25337
0.252023
0.250718
0.249453
0.248228
0.247041
0.24589
0.244774
0.243691
0.242641
0.241622
0.240633
0.239673
0.23874
0.237835
0.236956
0.236101
0.235271
0.234464
0.23368
0.232918
0.232176
0.231455
0.230754
0.230072
0.229408
0.228762
0.228134
0.227522
0.259218
0.257684
0.256199
0.254762
0.25337
0.252023
0.250718
0.249454
0.248229
0.247042
0.24589
0.244774
0.243692
0.242641
0.241622
0.240633
0.239673
0.23874
0.237835
0.236955
0.236101
0.235271
0.234464
0.233679
0.232917
0.232175
0.231454
0.230753
0.23007
0.229406
0.22876
0.228132
0.22752
0.259218
0.257684
0.256199
0.254762
0.25337
0.252023
0.250718
0.249453
0.248228
0.247041
0.24589
0.244774
0.243691
0.242641
0.241622
0.240633
0.239672
0.23874
0.237835
0.236955
0.236101
0.23527
0.234463
0.233679
0.232916
0.232174
0.231453
0.230752
0.230069
0.229405
0.228759
0.22813
0.227518
0.259218
0.257684
0.256199
0.254762
0.253371
0.252024
0.25072
0.249456
0.248231
0.247044
0.245894
0.244778
0.243695
0.242645
0.241626
0.240636
0.239676
0.238744
0.237838
0.236958
0.236104
0.235273
0.234466
0.233681
0.232919
0.232177
0.231455
0.230753
0.230071
0.229406
0.22876
0.22813
0.227518
0.259218
0.257685
0.2562
0.254764
0.253373
0.252026
0.250721
0.249457
0.248232
0.247046
0.245895
0.244779
0.243697
0.242647
0.241628
0.240639
0.239679
0.238747
0.237841
0.236962
0.236107
0.235277
0.234469
0.233684
0.232921
0.232179
0.231457
0.230755
0.230071
0.229406
0.228759
0.228129
0.227515
0.259218
0.257685
0.256201
0.254766
0.253378
0.252033
0.250731
0.249469
0.248246
0.24706
0.24591
0.244795
0.243713
0.242663
0.241644
0.240654
0.239694
0.238761
0.237854
0.236973
0.236117
0.235285
0.234476
0.233689
0.232924
0.232179
0.231455
0.23075
0.230063
0.229395
0.228745
0.228111
0.227494
0.259219
0.257689
0.25621
0.254777
0.25339
0.252045
0.250743
0.249482
0.248259
0.247074
0.245924
0.244809
0.243726
0.242676
0.241655
0.240664
0.239701
0.238765
0.237855
0.23697
0.236109
0.235272
0.234456
0.233663
0.23289
0.232138
0.231405
0.230692
0.229996
0.229319
0.228658
0.228014
0.227387
0.25922
0.257694
0.256221
0.254799
0.253423
0.252089
0.250795
0.249539
0.248318
0.247132
0.245978
0.244857
0.243767
0.242706
0.241674
0.24067
0.239692
0.238739
0.237811
0.236908
0.236027
0.235168
0.234332
0.233516
0.23272
0.231944
0.231188
0.230449
0.229729
0.229026
0.22834
0.227671
0.227018
0.259229
0.257738
0.256292
0.254882
0.253508
0.252172
0.250871
0.249603
0.248368
0.247162
0.245986
0.244837
0.243716
0.242621
0.241553
0.240509
0.239491
0.238496
0.237525
0.236576
0.23565
0.234745
0.233862
0.232999
0.232157
0.231334
0.23053
0.229744
0.228977
0.228227
0.227495
0.226779
0.226079
0.259265
0.257822
0.256453
0.255125
0.253805
0.252483
0.251164
0.249855
0.248562
0.247291
0.246046
0.244829
0.243641
0.242482
0.241352
0.24025
0.239176
0.238129
0.237107
0.236111
0.235139
0.23419
0.233265
0.232361
0.231478
0.230616
0.229774
0.228951
0.228148
0.227363
0.226596
0.225847
0.225115
0.259599
0.258632
0.257578
0.256541
0.255587
0.254713
0.253904
0.253149
0.252442
0.25178
0.251161
0.250585
0.25005
0.249558
0.249105
0.24869
0.248313
0.247971
0.247663
0.247386
0.24714
0.246921
0.246729
0.246562
0.246418
0.246296
0.246194
0.246111
0.246046
0.245998
0.245966
0.245948
0.245943
0.266719
0.280569
0.294241
0.307622
0.320668
0.333362
0.345693
0.357649
0.369225
0.380413
0.391212
0.401621
0.411641
0.421274
0.430526
0.439402
0.44791
0.456058
0.463854
0.471308
0.47843
0.48523
0.49172
0.497909
0.503808
0.50943
0.514783
0.519879
0.524729
0.529343
0.53373
0.537901
0.541868
0.843902
1.01372
1.18293
1.3525
1.52109
1.68079
1.82146
1.9355
2.02
2.07688
2.11138
2.13005
2.13897
2.14273
2.14418
2.14472
2.14483
2.14455
2.14388
2.14291
2.14186
2.14102
2.14065
2.14094
2.14195
2.14366
2.14591
2.14851
2.15121
2.15373
2.15579
2.15708
2.15728
2.15605
2.15305
2.1479
2.14025
2.12975
2.11602
2.09876
2.07764
2.05241
2.02281
1.98868
1.94988
1.90637
1.85815
1.80533
1.7481
1.68676
1.62169
1.55336
1.48235
1.4093
1.33495
1.26005
1.18542
1.11187
1.04019
0.971134
0.905368
0.843467
0.785888
0.732956
0.68486
0.641659
0.603295
0.569609
0.54037
0.515296
0.494082
0.476417
0.462004
0.450571
0.441879
0.435724
0.431939
0.430389
0.43097
0.433601
0.438217
0.444759
0.453165
0.463358
0.475236
0.488657
0.503432
0.519315
0.535997
0.553105
0.570203
0.586801
0.602366
0.616333
0.628132
0.637172
0.64298
0.644741
0.643568
0.630984
0.354554
0.368316
0.38863
0.418473
0.460542
0.517199
0.589957
0.678755
0.781572
0.894494
1.01223
1.1289
1.23897
1.33804
1.42342
1.4942
1.55106
1.59577
1.63061
1.65791
1.67968
1.69748
1.71237
1.72504
1.73585
1.745
1.75259
1.75866
1.76323
1.76631
1.76784
1.76774
1.76589
1.7621
1.75615
1.74781
1.73682
1.72291
1.70585
1.68541
1.66138
1.6336
1.60195
1.56637
1.52684
1.48342
1.43625
1.38554
1.33158
1.27478
1.21558
1.15454
1.09228
1.02946
0.966795
0.904996
0.844778
0.786809
0.731697
0.679954
0.631986
0.58807
0.548357
0.512872
0.481527
0.454144
0.430476
0.410236
0.393117
0.378817
0.367053
0.357568
0.350144
0.344599
0.34079
0.338611
0.337989
0.338882
0.341274
0.345171
0.350592
0.357564
0.366114
0.376255
0.387974
0.401222
0.415896
0.43183
0.448782
0.46643
0.484372
0.502133
0.519175
0.534913
0.548743
0.56004
0.568276
0.572642
0.573982
0.565404
0.206711
0.206508
0.206935
0.208394
0.211297
0.216181
0.223587
0.234336
0.249531
0.270363
0.297992
0.333379
0.377099
0.429148
0.488838
0.554788
0.625042
0.697283
0.769105
0.838289
0.903023
0.962042
1.01465
1.06068
1.10034
1.13411
1.16257
1.18632
1.2059
1.22172
1.2341
1.24326
1.24931
1.25229
1.25219
1.24897
1.24254
1.23285
1.21981
1.20337
1.1835
1.1602
1.1335
1.10349
1.07031
1.03414
0.995267
0.953999
0.910733
0.865925
0.820082
0.773756
0.727526
0.681979
0.637685
0.59518
0.554936
0.517341
0.48269
0.451164
0.422842
0.397696
0.375615
0.356421
0.33989
0.325773
0.31382
0.303787
0.295453
0.288623
0.28313
0.278838
0.275643
0.273466
0.272257
0.271989
0.27266
0.274287
0.27691
0.280582
0.285376
0.291369
0.298647
0.30729
0.317363
0.328901
0.341897
0.356278
0.371898
0.388519
0.405807
0.423333
0.440581
0.456967
0.471866
0.484621
0.494648
0.501141
0.504643
0.499878
0.20194
0.200421
0.199001
0.197682
0.196496
0.195511
0.194808
0.194507
0.194706
0.195575
0.197336
0.200266
0.204695
0.210997
0.219583
0.230882
0.245297
0.263166
0.284697
0.309914
0.338622
0.370383
0.404541
0.440266
0.476629
0.512684
0.547543
0.580441
0.610773
0.638103
0.66215
0.682761
0.699873
0.713485
0.723624
0.730334
0.733667
0.733681
0.730443
0.724038
0.714571
0.702177
0.68702
0.669305
0.649273
0.627206
0.603428
0.578298
0.552206
0.525563
0.498789
0.472301
0.446493
0.421721
0.398291
0.376444
0.356349
0.338102
0.321729
0.307194
0.294414
0.283268
0.273618
0.265313
0.258208
0.252162
0.24705
0.242761
0.239202
0.236295
0.233981
0.232215
0.230966
0.230219
0.229973
0.230239
0.231044
0.232426
0.234441
0.237155
0.240651
0.245022
0.250373
0.256813
0.264449
0.273378
0.283666
0.295338
0.30835
0.322578
0.337795
0.353663
0.36974
0.385484
0.400283
0.413474
0.424429
0.432351
0.437473
0.436067
0.210212
0.208691
0.207194
0.205713
0.204249
0.202814
0.201423
0.200098
0.198863
0.197738
0.19676
0.19597
0.195422
0.195179
0.195314
0.195913
0.197068
0.198884
0.201471
0.204943
0.209412
0.214978
0.221718
0.229676
0.238846
0.249167
0.26051
0.272684
0.285439
0.298484
0.3115
0.324162
0.336153
0.347179
0.356981
0.36534
0.372082
0.377084
0.380269
0.381612
0.381134
0.378898
0.375012
0.369615
0.36288
0.355006
0.346209
0.336718
0.326768
0.316585
0.306385
0.296363
0.286684
0.277483
0.268859
0.260879
0.253577
0.246961
0.241017
0.235715
0.231013
0.226863
0.223217
0.220025
0.21724
0.21482
0.212727
0.210931
0.209405
0.208129
0.207091
0.206283
0.205705
0.205363
0.205271
0.20545
0.205928
0.206744
0.207947
0.209596
0.211761
0.214526
0.217985
0.222245
0.227418
0.23362
0.240954
0.249506
0.259318
0.27037
0.282559
0.295676
0.309397
0.323282
0.336788
0.349296
0.360175
0.36866
0.374698
0.375936
0.216482
0.215121
0.213758
0.212397
0.211038
0.209683
0.208333
0.206993
0.205669
0.204368
0.2031
0.201876
0.20071
0.199618
0.198618
0.197732
0.196981
0.196393
0.195992
0.195806
0.195862
0.196188
0.19681
0.197749
0.199023
0.200644
0.202614
0.204922
0.207548
0.210456
0.213596
0.216906
0.220309
0.223721
0.227052
0.230206
0.233093
0.235627
0.237733
0.239354
0.240448
0.240995
0.240992
0.24046
0.239432
0.237958
0.236101
0.233927
0.231509
0.22892
0.226226
0.223491
0.220771
0.218109
0.215544
0.213101
0.2108
0.20865
0.206657
0.204819
0.203132
0.201589
0.200179
0.198894
0.197724
0.196658
0.19569
0.194813
0.194022
0.193315
0.192692
0.192156
0.191713
0.191374
0.191153
0.191067
0.191141
0.191404
0.191894
0.192655
0.193742
0.195216
0.197155
0.199642
0.202775
0.206656
0.211393
0.217087
0.22382
0.231641
0.240541
0.250432
0.261124
0.272317
0.283592
0.294433
0.304267
0.312402
0.318574
0.321531
0.220608
0.219414
0.218211
0.217001
0.215783
0.214557
0.213326
0.212091
0.210854
0.20962
0.208392
0.207174
0.205971
0.204788
0.203634
0.202514
0.201438
0.200415
0.199454
0.198565
0.19776
0.197048
0.196438
0.19594
0.195562
0.195308
0.195182
0.195185
0.195316
0.195568
0.195934
0.1964
0.196951
0.197567
0.198228
0.198907
0.199581
0.200221
0.200804
0.201305
0.201704
0.201985
0.202137
0.202154
0.202035
0.201784
0.201409
0.200923
0.200339
0.199675
0.198946
0.198171
0.197365
0.196541
0.195714
0.194893
0.194085
0.193297
0.192533
0.191793
0.19108
0.190391
0.189724
0.189079
0.188453
0.187843
0.187247
0.186665
0.186097
0.185544
0.185008
0.184493
0.184005
0.183553
0.183147
0.1828
0.18253
0.182358
0.18231
0.182417
0.182717
0.183256
0.184089
0.185278
0.186897
0.189028
0.191758
0.195181
0.199382
0.204434
0.210376
0.217198
0.224819
0.233067
0.241666
0.250237
0.25832
0.265345
0.27094
0.274624
0.223251
0.222186
0.22111
0.220023
0.218926
0.21782
0.216706
0.215585
0.214458
0.213326
0.212191
0.211055
0.209921
0.208791
0.207668
0.206555
0.205457
0.204378
0.203321
0.202293
0.201298
0.200342
0.199429
0.198565
0.197755
0.197002
0.196309
0.195679
0.195114
0.194613
0.194175
0.193797
0.193477
0.193209
0.192987
0.192805
0.192653
0.192525
0.19241
0.192301
0.192189
0.192066
0.191927
0.191766
0.19158
0.191366
0.191124
0.190853
0.190556
0.190235
0.189892
0.189532
0.189157
0.188769
0.188373
0.18797
0.187561
0.187147
0.186729
0.186305
0.185874
0.185436
0.184989
0.184531
0.18406
0.183574
0.183074
0.182558
0.182026
0.18148
0.180921
0.180351
0.179776
0.179201
0.178632
0.178079
0.177554
0.17707
0.176645
0.176299
0.17606
0.175958
0.17603
0.176322
0.176885
0.17778
0.179074
0.18084
0.183151
0.186077
0.189671
0.19396
0.198924
0.204484
0.210478
0.21666
0.222704
0.228181
0.232719
0.236268
0.2249
0.223933
0.222956
0.221968
0.22097
0.219963
0.218946
0.217921
0.216887
0.215847
0.214801
0.213751
0.212697
0.211642
0.210587
0.209533
0.208484
0.20744
0.206404
0.205379
0.204368
0.203374
0.2024
0.201449
0.200524
0.199629
0.198765
0.197936
0.197142
0.196387
0.19567
0.194993
0.194354
0.193754
0.193191
0.192664
0.19217
0.191706
0.19127
0.190858
0.190467
0.190093
0.189734
0.189387
0.189048
0.188717
0.188389
0.188066
0.187744
0.187423
0.187103
0.186782
0.186461
0.186137
0.185811
0.18548
0.185144
0.184801
0.184449
0.184085
0.183708
0.183315
0.182904
0.182472
0.182018
0.18154
0.181036
0.180505
0.179948
0.179363
0.178752
0.178117
0.177459
0.176782
0.176091
0.175391
0.174689
0.173994
0.173319
0.172675
0.172081
0.171557
0.171128
0.170824
0.170681
0.170741
0.171053
0.17167
0.17265
0.17405
0.175921
0.1783
0.181197
0.184583
0.188374
0.192426
0.196524
0.200375
0.203675
0.206522
0.225886
0.224991
0.224086
0.223172
0.222249
0.221316
0.220375
0.219426
0.218468
0.217504
0.216533
0.215556
0.214575
0.213589
0.212601
0.211611
0.21062
0.20963
0.208642
0.207658
0.206679
0.205707
0.204745
0.203794
0.202857
0.201935
0.20103
0.200146
0.199282
0.198442
0.197627
0.196837
0.196074
0.195339
0.194632
0.193954
0.193304
0.192681
0.192086
0.191517
0.190973
0.190452
0.189954
0.189477
0.189018
0.188578
0.188153
0.187743
0.187345
0.186959
0.186583
0.186214
0.185852
0.185493
0.185136
0.184778
0.184418
0.184052
0.183677
0.183291
0.182891
0.182475
0.182038
0.18158
0.181097
0.180587
0.180049
0.179481
0.178882
0.178251
0.177589
0.176896
0.176172
0.17542
0.174643
0.173843
0.173025
0.172195
0.17136
0.170528
0.16971
0.168919
0.168171
0.167487
0.166889
0.166407
0.166073
0.165925
0.166007
0.16636
0.167029
0.168049
0.16944
0.171201
0.173294
0.175638
0.178107
0.180504
0.182628
0.184526
0.22644
0.225594
0.224741
0.223879
0.22301
0.222132
0.221247
0.220355
0.219455
0.218548
0.217635
0.216716
0.215793
0.214864
0.213932
0.212997
0.21206
0.211121
0.210181
0.209242
0.208305
0.20737
0.20644
0.205515
0.204597
0.203688
0.202788
0.201901
0.201027
0.200167
0.199323
0.198497
0.197689
0.196902
0.196135
0.19539
0.194667
0.193968
0.193292
0.19264
0.19201
0.191404
0.19082
0.190258
0.189717
0.189195
0.188693
0.188208
0.187739
0.187285
0.186844
0.186414
0.185993
0.185578
0.185168
0.184759
0.184349
0.183936
0.183515
0.183085
0.182641
0.182182
0.181705
0.181206
0.180682
0.180133
0.179555
0.178948
0.178308
0.177637
0.176931
0.176193
0.175421
0.174617
0.173782
0.172917
0.172026
0.171112
0.170178
0.169231
0.168276
0.167323
0.166381
0.165463
0.164584
0.163763
0.163022
0.162385
0.161884
0.161549
0.161413
0.161507
0.161853
0.162462
0.163321
0.164392
0.165602
0.166827
0.167961
0.168901
0.226726
0.225912
0.225092
0.224265
0.223432
0.222592
0.221746
0.220893
0.220034
0.219169
0.218299
0.217423
0.216543
0.215658
0.21477
0.213878
0.212983
0.212086
0.211187
0.210288
0.209388
0.208489
0.207592
0.206697
0.205806
0.20492
0.20404
0.203167
0.202303
0.201448
0.200604
0.199772
0.198953
0.198149
0.19736
0.196588
0.195834
0.195098
0.194382
0.193685
0.193008
0.192352
0.191716
0.191099
0.190503
0.189925
0.189366
0.188825
0.188299
0.187789
0.187292
0.186807
0.186332
0.185864
0.185402
0.184942
0.184482
0.18402
0.183553
0.183077
0.182589
0.182088
0.181569
0.18103
0.180469
0.179883
0.179269
0.178627
0.177954
0.177249
0.176511
0.175739
0.174934
0.174094
0.173221
0.172316
0.171379
0.170413
0.169421
0.168406
0.167372
0.166324
0.165268
0.164213
0.163167
0.162143
0.161155
0.16022
0.159357
0.158588
0.157936
0.157427
0.157079
0.156906
0.156911
0.157078
0.157371
0.15771
0.158076
0.158174
0.226858
0.226062
0.225261
0.224456
0.223645
0.222829
0.222008
0.221181
0.220349
0.219513
0.218671
0.217826
0.216976
0.216122
0.215264
0.214404
0.213541
0.212675
0.211807
0.210939
0.210069
0.209199
0.208329
0.207461
0.206595
0.205732
0.204872
0.204017
0.203168
0.202326
0.201491
0.200664
0.199848
0.199042
0.198248
0.197468
0.196701
0.195949
0.195212
0.194492
0.193789
0.193103
0.192435
0.191785
0.191152
0.190536
0.189937
0.189354
0.188787
0.188233
0.187693
0.187164
0.186644
0.186132
0.185626
0.185123
0.184621
0.184117
0.183609
0.183094
0.182568
0.182029
0.181475
0.180903
0.180309
0.179693
0.17905
0.178381
0.177681
0.176951
0.176189
0.175393
0.174564
0.173701
0.172803
0.171873
0.170909
0.169913
0.168888
0.167834
0.166755
0.165654
0.164534
0.163401
0.162261
0.161122
0.159991
0.158881
0.157803
0.156774
0.155807
0.154922
0.154134
0.153457
0.152897
0.152452
0.152109
0.151815
0.151618
0.151038
0.226908
0.226122
0.225332
0.224538
0.22374
0.222937
0.22213
0.221319
0.220504
0.219684
0.218861
0.218034
0.217204
0.21637
0.215533
0.214694
0.213852
0.213008
0.212162
0.211315
0.210467
0.209618
0.20877
0.207921
0.207075
0.20623
0.205387
0.204548
0.203713
0.202883
0.202058
0.20124
0.20043
0.199628
0.198835
0.198053
0.197282
0.196523
0.195777
0.195045
0.194327
0.193624
0.192936
0.192263
0.191606
0.190964
0.190337
0.189725
0.189127
0.188541
0.187968
0.187405
0.186852
0.186305
0.185765
0.185227
0.184691
0.184154
0.183613
0.183065
0.182509
0.181941
0.181358
0.180759
0.18014
0.179499
0.178834
0.178143
0.177424
0.176675
0.175895
0.175083
0.174238
0.173359
0.172447
0.1715
0.170521
0.169508
0.168464
0.16739
0.166287
0.165157
0.164003
0.162829
0.161639
0.160436
0.159228
0.158021
0.156823
0.155644
0.154495
0.153387
0.152334
0.151347
0.150433
0.149594
0.148833
0.148108
0.147521
0.146432
0.226921
0.226139
0.225354
0.224565
0.223773
0.222977
0.222177
0.221374
0.220568
0.219758
0.218945
0.218129
0.21731
0.216488
0.215664
0.214837
0.214008
0.213178
0.212346
0.211512
0.210678
0.209844
0.209009
0.208174
0.207341
0.206508
0.205678
0.20485
0.204026
0.203205
0.202389
0.201578
0.200773
0.199976
0.199185
0.198404
0.197632
0.19687
0.196119
0.19538
0.194653
0.193939
0.193238
0.192551
0.191877
0.191217
0.190571
0.189937
0.189316
0.188707
0.188109
0.187521
0.186941
0.186369
0.185802
0.185238
0.184675
0.184111
0.183545
0.182972
0.182391
0.1818
0.181195
0.180575
0.179936
0.179277
0.178595
0.177888
0.177154
0.176391
0.175599
0.174776
0.17392
0.173032
0.17211
0.171155
0.170166
0.169145
0.168091
0.167006
0.165891
0.164747
0.163577
0.162383
0.161167
0.159933
0.158684
0.157427
0.156165
0.154906
0.153656
0.152425
0.151221
0.150053
0.148928
0.147851
0.146829
0.145827
0.144984
0.143537
0.226918
0.226138
0.225354
0.224567
0.223778
0.222984
0.222188
0.221389
0.220586
0.219781
0.218973
0.218162
0.217349
0.216533
0.215715
0.214896
0.214074
0.213251
0.212426
0.211601
0.210774
0.209948
0.209121
0.208294
0.207469
0.206644
0.205821
0.205
0.204182
0.203367
0.202557
0.20175
0.200949
0.200154
0.199365
0.198584
0.197811
0.197047
0.196293
0.195549
0.194816
0.194094
0.193384
0.192686
0.192
0.191327
0.190666
0.190016
0.189379
0.188752
0.188135
0.187528
0.186928
0.186336
0.185748
0.185163
0.18458
0.183996
0.183409
0.182817
0.182218
0.181609
0.180987
0.18035
0.179696
0.179023
0.178328
0.177609
0.176864
0.176092
0.175291
0.17446
0.173597
0.172703
0.171775
0.170815
0.169822
0.168796
0.167738
0.166649
0.165529
0.164379
0.163202
0.161999
0.160772
0.159523
0.158257
0.156975
0.155682
0.154383
0.153082
0.151787
0.150502
0.149235
0.147993
0.146779
0.145603
0.144434
0.143434
0.141749
0.226911
0.22613
0.225347
0.22456
0.223771
0.222979
0.222183
0.221385
0.220584
0.21978
0.218974
0.218165
0.217354
0.216541
0.215726
0.214909
0.21409
0.213271
0.212449
0.211627
0.210805
0.209982
0.209158
0.208336
0.207514
0.206692
0.205873
0.205055
0.20424
0.203428
0.202619
0.201815
0.201015
0.20022
0.199431
0.19865
0.197875
0.197108
0.196351
0.195602
0.194863
0.194135
0.193417
0.192711
0.192016
0.191332
0.190659
0.189997
0.189346
0.188705
0.188074
0.187451
0.186836
0.186227
0.185623
0.185022
0.184423
0.183823
0.183221
0.182613
0.181999
0.181376
0.18074
0.180091
0.179425
0.178741
0.178036
0.177308
0.176556
0.175776
0.174969
0.174133
0.173266
0.172367
0.171437
0.170474
0.169479
0.168452
0.167392
0.166301
0.16518
0.164029
0.16285
0.161644
0.160414
0.15916
0.157887
0.156596
0.15529
0.153973
0.152649
0.151323
0.149999
0.148682
0.147378
0.146091
0.144831
0.143566
0.142475
0.140644
0.226902
0.226121
0.225337
0.22455
0.223761
0.222968
0.222172
0.221374
0.220573
0.21977
0.218964
0.218155
0.217345
0.216532
0.215717
0.214901
0.214083
0.213264
0.212444
0.211622
0.2108
0.209978
0.209156
0.208334
0.207512
0.206692
0.205873
0.205056
0.204241
0.203429
0.20262
0.201814
0.201013
0.200217
0.199427
0.198643
0.197865
0.197095
0.196333
0.19558
0.194836
0.194101
0.193376
0.192662
0.191958
0.191265
0.190582
0.18991
0.189248
0.188596
0.187952
0.187317
0.186689
0.186067
0.18545
0.184835
0.184223
0.18361
0.182994
0.182375
0.181748
0.181113
0.180467
0.179808
0.179133
0.17844
0.177727
0.176992
0.176233
0.175449
0.174637
0.173797
0.172927
0.172026
0.171094
0.17013
0.169134
0.168106
0.167047
0.165956
0.164835
0.163685
0.162507
0.161302
0.160072
0.158818
0.157544
0.156251
0.154942
0.153619
0.152287
0.150948
0.149607
0.148267
0.146935
0.145611
0.144308
0.142993
0.141853
0.139936
0.226893
0.226111
0.225327
0.22454
0.223749
0.222956
0.22216
0.221361
0.22056
0.219756
0.218949
0.21814
0.217329
0.216516
0.215701
0.214884
0.214065
0.213246
0.212425
0.211603
0.21078
0.209957
0.209134
0.208311
0.207488
0.206667
0.205846
0.205028
0.204211
0.203397
0.202586
0.201778
0.200975
0.200176
0.199382
0.198595
0.197813
0.197039
0.196272
0.195513
0.194763
0.194022
0.19329
0.192569
0.191857
0.191155
0.190463
0.189782
0.18911
0.188447
0.187793
0.187146
0.186507
0.185874
0.185245
0.184619
0.183995
0.183371
0.182744
0.182114
0.181478
0.180833
0.180177
0.179509
0.178826
0.178126
0.177407
0.176666
0.175903
0.175114
0.174299
0.173456
0.172583
0.171681
0.170748
0.169783
0.168787
0.167759
0.166701
0.165611
0.164491
0.163343
0.162166
0.160963
0.159735
0.158484
0.157211
0.155919
0.154611
0.153288
0.151955
0.150613
0.149267
0.147919
0.146575
0.145236
0.143913
0.142573
0.141407
0.139443
0.226884
0.226102
0.225317
0.224529
0.223738
0.222944
0.222147
0.221348
0.220546
0.219741
0.218934
0.218124
0.217312
0.216498
0.215682
0.214864
0.214044
0.213223
0.212401
0.211577
0.210753
0.209928
0.209103
0.208279
0.207454
0.20663
0.205808
0.204986
0.204167
0.20335
0.202536
0.201725
0.200918
0.200115
0.199318
0.198525
0.197739
0.19696
0.196187
0.195423
0.194666
0.193919
0.19318
0.192451
0.191731
0.191021
0.190321
0.18963
0.188949
0.188276
0.187612
0.186956
0.186306
0.185662
0.185023
0.184387
0.183753
0.183119
0.182482
0.181843
0.181197
0.180543
0.17988
0.179204
0.178514
0.177808
0.177083
0.176337
0.175569
0.174776
0.173958
0.173112