/*--------------------------------*- C++ -*----------------------------------*\
| =========                 |                                                 |
| \\      /  F ield         | OpenFOAM: The Open Source CFD Toolbox           |
|  \\    /   O peration     | Version:  2.1.1                                 |
|   \\  /    A nd           | Web:      www.OpenFOAM.org                      |
|    \\/     M anipulation  |                                                 |
\*---------------------------------------------------------------------------*/
FoamFile
{
    version     2.0;
    format      ascii;
    class       volScalarField;
    location    "0.18";
    object      nut;
}
// * * * * * * * * * * * * * * * * * * * * * * * * * * * * * * * * * * * * * //

dimensions      [0 2 -1 0 0 0 0];

internalField   nonuniform List<scalar> 
6820
(
4.96025e-05
5.47044e-05
5.94497e-05
6.37667e-05
6.76166e-05
7.09775e-05
7.38478e-05
7.62453e-05
7.82022e-05
7.97603e-05
8.09659e-05
8.18667e-05
8.25089e-05
8.29353e-05
8.31847e-05
8.3291e-05
8.32835e-05
8.31873e-05
8.3023e-05
8.28079e-05
8.2556e-05
8.22786e-05
8.19848e-05
8.16819e-05
8.13754e-05
8.10698e-05
8.07681e-05
8.04733e-05
8.01837e-05
7.99166e-05
7.95924e-05
7.95947e-05
7.80582e-05
0.000540296
0.00030497
0.000219956
0.000171553
0.000140514
0.000119651
0.000105126
9.47424e-05
8.71783e-05
8.15972e-05
7.74489e-05
7.43596e-05
7.20688e-05
7.03904e-05
6.9189e-05
6.83643e-05
6.78408e-05
6.75607e-05
6.74793e-05
6.75615e-05
6.77792e-05
6.81097e-05
6.85346e-05
6.90383e-05
6.9608e-05
7.02325e-05
7.09021e-05
7.16079e-05
7.23423e-05
7.30934e-05
7.38587e-05
7.46025e-05
7.52773e-05
0.00105857
0.000836089
0.000679241
0.000569617
0.000490057
0.00043012
0.000383706
0.00034686
0.00031696
0.000292244
0.000271497
0.000253857
0.000238697
0.000225549
0.000214058
0.000203947
0.000195
0.000187042
0.000179933
0.000173558
0.000167823
0.000162648
0.000157966
0.000153722
0.000149866
0.000146357
0.00014316
0.000140244
0.000137581
0.000135153
0.000132922
0.000130934
0.000128886
0.00115953
0.00109653
0.00101167
0.000926419
0.000849814
0.000783624
0.000727072
0.000678744
0.000637227
0.000601295
0.000569947
0.00054238
0.000517952
0.000496156
0.000476583
0.000458905
0.000442855
0.000428216
0.000414808
0.00040248
0.000391105
0.000380578
0.000370806
0.000361711
0.000353226
0.000345294
0.000337864
0.000330894
0.000324349
0.0003182
0.000312432
0.000307029
0.000302002
0.00116966
0.00115863
0.00113363
0.00109757
0.00105569
0.0010122
0.000969675
0.000929417
0.000891977
0.000857477
0.000825826
0.000796836
0.000770277
0.000745919
0.000723539
0.000702934
0.000683922
0.000666338
0.000650038
0.000634894
0.000620794
0.000607637
0.000595334
0.000583809
0.00057299
0.000562816
0.000553232
0.000544187
0.00053564
0.000527551
0.000519889
0.000512629
0.000505752
0.00117006
0.00116839
0.00116306
0.00115261
0.00113713
0.00111767
0.00109554
0.00107191
0.00104772
0.0010236
0.000999998
0.000977185
0.000955316
0.000934471
0.000914675
0.000895924
0.000878187
0.000861426
0.000845592
0.000830634
0.0008165
0.000803138
0.000790498
0.000778532
0.000767196
0.000756446
0.000746243
0.000736549
0.000727329
0.000718552
0.000710189
0.000702219
0.000694618
0.00116996
0.00116938
0.00116821
0.00116569
0.00116123
0.00115458
0.00114584
0.00113528
0.00112328
0.00111023
0.00109649
0.00108234
0.00106802
0.00105372
0.00103958
0.0010257
0.00101215
0.000998992
0.000986245
0.000973933
0.000962065
0.000950642
0.00093966
0.00092911
0.000918981
0.000909259
0.000899928
0.000890974
0.00088238
0.000874132
0.000866213
0.000858614
0.000851321
0.00116994
0.0011694
0.00116883
0.00116803
0.00116674
0.00116472
0.0011618
0.00115791
0.00115304
0.00114728
0.00114074
0.00113354
0.00112582
0.00111769
0.00110928
0.00110069
0.00109199
0.00108326
0.00107455
0.00106592
0.0010574
0.00104901
0.00104079
0.00103275
0.0010249
0.00101725
0.00100981
0.00100257
0.000995542
0.000988723
0.000982112
0.000975709
0.000969513
0.00116994
0.00116939
0.00116886
0.00116832
0.0011677
0.00116692
0.00116588
0.00116449
0.00116269
0.00116043
0.00115772
0.00115455
0.00115097
0.00114701
0.00114272
0.00113814
0.00113333
0.00112833
0.00112319
0.00111794
0.00111261
0.00110724
0.00110186
0.00109649
0.00109114
0.00108584
0.00108059
0.00107541
0.00107032
0.00106531
0.00106039
0.00105558
0.00105087
0.00116994
0.00116938
0.00116885
0.00116833
0.00116782
0.00116729
0.00116671
0.00116605
0.00116526
0.00116432
0.00116319
0.00116185
0.0011603
0.00115852
0.00115654
0.00115435
0.00115197
0.00114941
0.0011467
0.00114386
0.0011409
0.00113784
0.00113471
0.0011315
0.00112825
0.00112497
0.00112166
0.00111835
0.00111503
0.00111173
0.00110844
0.00110518
0.00110196
0.00116994
0.00116938
0.00116884
0.00116832
0.00116782
0.00116732
0.00116683
0.00116634
0.00116582
0.00116527
0.00116466
0.00116399
0.00116324
0.0011624
0.00116146
0.00116042
0.00115927
0.00115802
0.00115668
0.00115524
0.00115371
0.0011521
0.00115041
0.00114866
0.00114685
0.00114499
0.00114309
0.00114115
0.00113918
0.00113719
0.00113518
0.00113317
0.00113115
0.00116994
0.00116938
0.00116884
0.00116832
0.00116781
0.00116732
0.00116684
0.00116637
0.00116591
0.00116545
0.00116499
0.00116451
0.00116402
0.0011635
0.00116296
0.00116238
0.00116175
0.00116109
0.00116038
0.00115962
0.00115882
0.00115797
0.00115708
0.00115614
0.00115516
0.00115415
0.0011531
0.00115202
0.00115091
0.00114978
0.00114863
0.00114746
0.00114628
0.00116994
0.00116938
0.00116884
0.00116832
0.00116781
0.00116732
0.00116684
0.00116637
0.00116592
0.00116547
0.00116504
0.00116461
0.00116419
0.00116377
0.00116334
0.00116291
0.00116248
0.00116203
0.00116157
0.0011611
0.00116061
0.0011601
0.00115957
0.00115903
0.00115846
0.00115788
0.00115728
0.00115666
0.00115603
0.00115538
0.00115472
0.00115404
0.00115336
0.00116994
0.00116938
0.00116884
0.00116832
0.00116781
0.00116731
0.00116683
0.00116636
0.00116591
0.00116547
0.00116504
0.00116462
0.00116421
0.00116381
0.00116342
0.00116303
0.00116265
0.00116227
0.0011619
0.00116152
0.00116115
0.00116077
0.00116039
0.00116001
0.00115962
0.00115923
0.00115883
0.00115843
0.00115802
0.00115761
0.00115719
0.00115677
0.00115634
0.00116994
0.00116938
0.00116884
0.00116832
0.00116781
0.00116731
0.00116683
0.00116636
0.00116591
0.00116546
0.00116503
0.00116462
0.00116421
0.00116381
0.00116343
0.00116305
0.00116268
0.00116232
0.00116197
0.00116162
0.00116128
0.00116095
0.00116062
0.00116029
0.00115997
0.00115965
0.00115933
0.00115902
0.0011587
0.00115839
0.00115808
0.00115777
0.00115746
0.00116994
0.00116938
0.00116884
0.00116831
0.0011678
0.00116731
0.00116683
0.00116636
0.0011659
0.00116546
0.00116503
0.00116461
0.0011642
0.00116381
0.00116342
0.00116305
0.00116268
0.00116232
0.00116198
0.00116164
0.00116131
0.00116098
0.00116067
0.00116036
0.00116006
0.00115976
0.00115947
0.00115919
0.00115891
0.00115863
0.00115836
0.00115809
0.00115783
0.00116994
0.00116938
0.00116884
0.00116831
0.0011678
0.00116731
0.00116683
0.00116636
0.0011659
0.00116546
0.00116503
0.00116461
0.0011642
0.0011638
0.00116342
0.00116304
0.00116267
0.00116232
0.00116197
0.00116163
0.0011613
0.00116098
0.00116067
0.00116037
0.00116007
0.00115978
0.0011595
0.00115922
0.00115895
0.00115869
0.00115843
0.00115818
0.00115793
0.00116994
0.00116938
0.00116884
0.00116831
0.0011678
0.00116731
0.00116682
0.00116635
0.0011659
0.00116545
0.00116502
0.0011646
0.0011642
0.0011638
0.00116341
0.00116303
0.00116267
0.00116231
0.00116196
0.00116163
0.0011613
0.00116098
0.00116066
0.00116036
0.00116006
0.00115977
0.00115949
0.00115922
0.00115895
0.00115869
0.00115844
0.00115819
0.00115795
0.00116994
0.00116938
0.00116884
0.00116831
0.0011678
0.0011673
0.00116682
0.00116635
0.0011659
0.00116545
0.00116502
0.0011646
0.00116419
0.00116379
0.00116341
0.00116303
0.00116266
0.00116231
0.00116196
0.00116162
0.00116129
0.00116097
0.00116066
0.00116035
0.00116005
0.00115977
0.00115948
0.00115921
0.00115894
0.00115868
0.00115843
0.00115818
0.00115794
0.00116994
0.00116938
0.00116884
0.00116831
0.0011678
0.0011673
0.00116682
0.00116635
0.00116589
0.00116545
0.00116502
0.0011646
0.00116419
0.00116379
0.0011634
0.00116303
0.00116266
0.0011623
0.00116195
0.00116161
0.00116128
0.00116096
0.00116065
0.00116034
0.00116005
0.00115976
0.00115947
0.0011592
0.00115893
0.00115867
0.00115842
0.00115817
0.00115793
0.00116994
0.00116938
0.00116884
0.00116831
0.0011678
0.0011673
0.00116682
0.00116635
0.00116589
0.00116545
0.00116502
0.00116459
0.00116419
0.00116379
0.0011634
0.00116302
0.00116265
0.0011623
0.00116195
0.00116161
0.00116128
0.00116095
0.00116064
0.00116033
0.00116004
0.00115975
0.00115946
0.00115919
0.00115892
0.00115866
0.0011584
0.00115816
0.00115791
0.00116994
0.00116938
0.00116884
0.00116831
0.0011678
0.0011673
0.00116682
0.00116635
0.00116589
0.00116545
0.00116501
0.00116459
0.00116418
0.00116378
0.0011634
0.00116302
0.00116265
0.00116229
0.00116194
0.0011616
0.00116127
0.00116095
0.00116063
0.00116033
0.00116003
0.00115974
0.00115946
0.00115918
0.00115891
0.00115865
0.00115839
0.00115814
0.0011579
0.00116994
0.00116938
0.00116884
0.00116831
0.0011678
0.0011673
0.00116682
0.00116635
0.00116589
0.00116545
0.00116501
0.00116459
0.00116418
0.00116378
0.00116339
0.00116301
0.00116265
0.00116229
0.00116194
0.0011616
0.00116127
0.00116094
0.00116063
0.00116032
0.00116002
0.00115973
0.00115945
0.00115917
0.0011589
0.00115864
0.00115838
0.00115813
0.00115789
0.00116994
0.00116938
0.00116884
0.00116831
0.0011678
0.0011673
0.00116682
0.00116635
0.00116589
0.00116544
0.00116501
0.00116459
0.00116418
0.00116378
0.00116339
0.00116301
0.00116264
0.00116228
0.00116193
0.00116159
0.00116126
0.00116094
0.00116062
0.00116031
0.00116002
0.00115972
0.00115944
0.00115916
0.00115889
0.00115863
0.00115837
0.00115812
0.00115788
0.00116994
0.00116938
0.00116884
0.00116831
0.0011678
0.0011673
0.00116682
0.00116635
0.00116589
0.00116544
0.00116501
0.00116459
0.00116418
0.00116378
0.00116339
0.00116301
0.00116264
0.00116228
0.00116193
0.00116159
0.00116126
0.00116093
0.00116062
0.00116031
0.00116001
0.00115972
0.00115943
0.00115915
0.00115888
0.00115862
0.00115836
0.00115811
0.00115787
0.00116994
0.00116938
0.00116884
0.00116831
0.0011678
0.0011673
0.00116682
0.00116635
0.00116589
0.00116544
0.00116501
0.00116459
0.00116418
0.00116378
0.00116339
0.00116301
0.00116264
0.00116228
0.00116193
0.00116159
0.00116125
0.00116093
0.00116061
0.0011603
0.00116
0.00115971
0.00115943
0.00115915
0.00115888
0.00115861
0.00115835
0.0011581
0.00115786
0.00116994
0.00116938
0.00116884
0.00116831
0.0011678
0.0011673
0.00116682
0.00116635
0.00116589
0.00116544
0.00116501
0.00116459
0.00116417
0.00116377
0.00116338
0.001163
0.00116264
0.00116228
0.00116192
0.00116158
0.00116125
0.00116092
0.00116061
0.0011603
0.00116
0.00115971
0.00115942
0.00115914
0.00115887
0.00115861
0.00115835
0.00115809
0.00115785
0.00116994
0.00116938
0.00116884
0.00116831
0.0011678
0.0011673
0.00116682
0.00116635
0.00116589
0.00116544
0.00116501
0.00116458
0.00116417
0.00116377
0.00116338
0.001163
0.00116263
0.00116227
0.00116192
0.00116158
0.00116125
0.00116092
0.00116061
0.0011603
0.00116
0.0011597
0.00115942
0.00115914
0.00115886
0.0011586
0.00115834
0.00115809
0.00115784
0.00116994
0.00116938
0.00116884
0.00116831
0.0011678
0.0011673
0.00116682
0.00116634
0.00116589
0.00116544
0.00116501
0.00116458
0.00116417
0.00116377
0.00116338
0.001163
0.00116263
0.00116227
0.00116192
0.00116158
0.00116125
0.00116092
0.0011606
0.00116029
0.00115999
0.0011597
0.00115941
0.00115913
0.00115886
0.00115859
0.00115834
0.00115808
0.00115784
0.00116994
0.00116938
0.00116884
0.00116831
0.0011678
0.0011673
0.00116682
0.00116635
0.00116589
0.00116544
0.00116501
0.00116459
0.00116417
0.00116377
0.00116338
0.001163
0.00116263
0.00116227
0.00116192
0.00116158
0.00116125
0.00116092
0.0011606
0.00116029
0.00115999
0.0011597
0.00115941
0.00115913
0.00115886
0.00115859
0.00115833
0.00115808
0.00115783
0.00116994
0.00116938
0.00116884
0.00116831
0.0011678
0.0011673
0.00116682
0.00116635
0.00116589
0.00116544
0.00116501
0.00116459
0.00116418
0.00116378
0.00116339
0.00116301
0.00116264
0.00116228
0.00116192
0.00116158
0.00116125
0.00116092
0.0011606
0.00116029
0.00115999
0.0011597
0.00115941
0.00115913
0.00115885
0.00115859
0.00115833
0.00115807
0.00115782
0.00116994
0.00116938
0.00116884
0.00116831
0.0011678
0.00116731
0.00116682
0.00116635
0.0011659
0.00116545
0.00116502
0.0011646
0.00116418
0.00116378
0.00116339
0.00116301
0.00116264
0.00116228
0.00116193
0.00116158
0.00116125
0.00116092
0.0011606
0.00116029
0.00115998
0.00115968
0.00115939
0.0011591
0.00115882
0.00115855
0.00115828
0.00115801
0.00115775
0.00116994
0.00116938
0.00116884
0.00116831
0.00116781
0.00116731
0.00116683
0.00116636
0.0011659
0.00116546
0.00116503
0.0011646
0.00116419
0.00116379
0.0011634
0.00116301
0.00116264
0.00116227
0.0011619
0.00116155
0.0011612
0.00116086
0.00116052
0.00116019
0.00115986
0.00115953
0.00115921
0.0011589
0.00115858
0.00115828
0.00115797
0.00115767
0.00115737
0.00116994
0.00116938
0.00116884
0.00116833
0.00116782
0.00116733
0.00116685
0.00116638
0.00116593
0.00116548
0.00116503
0.00116459
0.00116416
0.00116373
0.00116331
0.00116288
0.00116246
0.00116204
0.00116161
0.00116119
0.00116076
0.00116033
0.0011599
0.00115946
0.00115902
0.00115858
0.00115814
0.00115769
0.00115724
0.00115678
0.00115632
0.00115586
0.0011554
0.00116994
0.00116939
0.00116886
0.00116835
0.00116784
0.00116733
0.00116683
0.00116632
0.00116581
0.00116528
0.00116473
0.00116417
0.00116358
0.00116297
0.00116233
0.00116166
0.00116096
0.00116024
0.00115948
0.0011587
0.00115789
0.00115706
0.0011562
0.00115531
0.00115441
0.00115348
0.00115254
0.00115158
0.0011506
0.00114961
0.00114861
0.0011476
0.00114658
0.00116995
0.0011694
0.00116886
0.00116828
0.00116765
0.00116694
0.00116612
0.00116519
0.00116413
0.00116294
0.00116162
0.00116016
0.00115858
0.00115688
0.00115506
0.00115313
0.0011511
0.00114899
0.00114679
0.00114452
0.00114219
0.00113981
0.00113738
0.00113491
0.00113242
0.0011299
0.00112736
0.00112482
0.00112227
0.00111972
0.00111717
0.00111463
0.00111211
0.00116996
0.00116916
0.00116786
0.00116595
0.00116343
0.00116029
0.00115656
0.00115226
0.00114746
0.00114221
0.00113657
0.00113062
0.00112441
0.00111799
0.00111142
0.00110475
0.00109801
0.00109125
0.00108448
0.00107773
0.00107104
0.00106441
0.00105786
0.0010514
0.00104504
0.0010388
0.00103267
0.00102666
0.00102078
0.00101503
0.00100941
0.00100392
0.000998554
0.00116831
0.00115866
0.001145
0.00112844
0.00110969
0.00108947
0.00106842
0.00104707
0.0010258
0.00100487
0.00098448
0.000964743
0.000945731
0.000927482
0.000910007
0.000893302
0.00087735
0.000862129
0.000847611
0.000833764
0.000820557
0.000807957
0.000795934
0.000784455
0.000773493
0.000763018
0.000753004
0.000743425
0.000734258
0.00072548
0.00071707
0.000709009
0.000701274
0.00107567
0.000936197
0.000835612
0.000756905
0.000692123
0.000638388
0.000593493
0.000555612
0.000523306
0.000495471
0.000471259
0.000450018
0.000431242
0.000414533
0.000399574
0.000386111
0.000373938
0.000362884
0.000352809
0.000343595
0.000335143
0.000327367
0.000320195
0.000313566
0.000307424
0.000301722
0.00029642
0.000291479
0.000286869
0.000282561
0.000278528
0.000274749
0.000271201
0.000142979
0.000146644
0.000150174
0.000153551
0.000156773
0.000159846
0.000162776
0.000165567
0.000168225
0.000170754
0.000173161
0.00017545
0.000177625
0.000179691
0.000181654
0.000183517
0.000185285
0.000186962
0.000188554
0.000190063
0.000191493
0.000192849
0.000194135
0.000195353
0.000196507
0.0001976
0.000198635
0.000199616
0.000200545
0.000201425
0.000202258
0.000203046
0.000203794
9.09906e-05
0.000110321
0.000133501
0.000161082
0.000192742
0.000227071
0.000262151
0.000296295
0.000328472
0.00035844
0.000386555
0.000413473
0.000439841
0.000466105
0.000492457
0.000518898
0.000545347
0.000571744
0.000598103
0.000624523
0.000651157
0.000678171
0.000705701
0.000733839
0.000762618
0.000792027
0.000822024
0.000852547
0.000883523
0.000914868
0.000946487
0.000978263
0.00101006
0.0010417
0.00107301
0.00110377
0.00113374
0.00116269
0.00119034
0.00121645
0.00124075
0.00126299
0.0012829
0.00130025
0.00131482
0.00132641
0.00133485
0.00134001
0.00134182
0.00134024
0.0013353
0.0013271
0.0013158
0.00130165
0.00128497
0.00126615
0.00124565
0.00122401
0.00120181
0.00117966
0.00115819
0.00113802
0.00111973
0.00110382
0.0010907
0.00108067
0.0010739
0.00107045
0.00107024
0.00107311
0.00107885
0.0010872
0.0010979
0.00111072
0.00112546
0.00114199
0.00116023
0.00118017
0.00120187
0.00122545
0.00125104
0.00127884
0.00130904
0.00134179
0.00137725
0.00141548
0.00145644
0.00150001
0.00154588
0.00159361
0.00164259
0.00169201
0.00174091
0.00178819
0.00183261
0.00187282
0.00190745
0.00193518
0.00195439
0.00196514
7.64384e-05
7.85426e-05
8.18666e-05
8.70569e-05
9.48643e-05
0.000106013
0.000121057
0.000140273
0.000163557
0.000190388
0.000219907
0.000251055
0.000282759
0.00031411
0.000344495
0.000373637
0.000401567
0.000428525
0.000454846
0.000480858
0.000506815
0.000532869
0.000559078
0.000585437
0.000611912
0.000638467
0.00066508
0.000691741
0.000718443
0.000745174
0.0007719
0.000798558
0.000825056
0.000851266
0.000877037
0.00090219
0.000926531
0.000949854
0.000971943
0.000992579
0.00101155
0.00102863
0.00104362
0.00105634
0.00106661
0.00107429
0.00107927
0.0010815
0.00108095
0.00107769
0.00107182
0.00106353
0.00105308
0.00104081
0.00102714
0.00101254
0.000997559
0.000982782
0.000968809
0.000956229
0.000945592
0.00093737
0.000931927
0.000929498
0.000930169
0.000933885
0.000940458
0.000949599
0.000960952
0.000974133
0.000988763
0.0010045
0.00102107
0.00103825
0.00105593
0.00107404
0.00109261
0.00111175
0.00113163
0.00115248
0.00117456
0.0011982
0.00122372
0.00125144
0.00128168
0.00131465
0.00135051
0.00138928
0.00143079
0.00147473
0.00152056
0.00156755
0.00161475
0.00166105
0.00170519
0.00174578
0.00178138
0.00181065
0.00183178
0.00184613
0.000126847
0.000124832
0.000122789
0.000120521
0.000118028
0.000115493
0.000113541
0.000112628
0.000113188
0.000115746
0.000120836
0.000128918
0.000140304
0.000155107
0.000173224
0.000194335
0.000217942
0.000243428
0.000270135
0.000297444
0.00032484
0.000351955
0.000378577
0.000404628
0.00043013
0.00045516
0.000479807
0.000504148
0.00052823
0.00055206
0.000575613
0.000598833
0.000621642
0.000643943
0.000665622
0.000686553
0.000706598
0.000725611
0.000743441
0.000759935
0.000774944
0.000788324
0.000799947
0.000809703
0.000817508
0.000823315
0.000827116
0.000828956
0.000828937
0.000827225
0.000824056
0.000819734
0.000814635
0.000809197
0.000803909
0.000799291
0.000795871
0.000794154
0.000794584
0.000797512
0.000803164
0.000811619
0.000822804
0.0008365
0.000852371
0.000869996
0.000888915
0.000908663
0.000928812
0.00094899
0.000968899
0.00098832
0.00100711
0.00102522
0.00104263
0.00105943
0.00107573
0.00109172
0.00110762
0.00112371
0.0011403
0.00115778
0.00117653
0.00119698
0.00121957
0.00124468
0.00127264
0.00130368
0.00133786
0.00137504
0.00141486
0.0014567
0.00149971
0.00154281
0.00158472
0.00162406
0.0016593
0.00168908
0.00171137
0.00172879
0.000296566
0.00029055
0.000284538
0.000278431
0.000272067
0.000265241
0.000257838
0.000249716
0.000241185
0.000232354
0.00022334
0.000214388
0.000205875
0.000198287
0.000192151
0.000187976
0.000186189
0.000187099
0.00019088
0.000197565
0.000207059
0.000219151
0.00023354
0.000249859
0.000267708
0.000286688
0.000306423
0.000326589
0.000346919
0.000367207
0.000387302
0.00040709
0.000426483
0.000445403
0.000463776
0.000481519
0.000498549
0.000514775
0.00053011
0.000544471
0.000557787
0.000570003
0.000581088
0.00059104
0.000599889
0.00060771
0.00061462
0.000620791
0.000626445
0.000631857
0.000637352
0.00064329
0.000650058
0.000658044
0.000667611
0.000679071
0.000692648
0.000708461
0.000726499
0.000746622
0.00076857
0.000791986
0.000816447
0.000841503
0.000866709
0.000891656
0.000915992
0.000939431
0.000961762
0.000982845
0.0010026
0.00102101
0.00103811
0.00105395
0.00106863
0.00108228
0.00109504
0.00110707
0.00111858
0.00112979
0.00114096
0.00115239
0.00116443
0.00117748
0.00119199
0.00120842
0.00122723
0.00124885
0.00127357
0.00130154
0.00133266
0.00136659
0.00140266
0.00143994
0.00147726
0.00151322
0.0015463
0.00157512
0.0015974
0.0016169
0.000498206
0.000489962
0.000481969
0.000474175
0.000466511
0.000458878
0.000451159
0.000443193
0.000434886
0.000426234
0.000417152
0.000407544
0.000397334
0.000386486
0.00037503
0.000363078
0.000350829
0.000338572
0.000326664
0.0003155
0.000305477
0.000296956
0.000290234
0.000285526
0.000282958
0.000282566
0.000284304
0.000288059
0.000293666
0.000300921
0.000309604
0.000319489
0.000330355
0.000341996
0.000354227
0.000366883
0.000379827
0.000392945
0.000406151
0.000419386
0.000432619
0.000445851
0.000459113
0.000472465
0.000486004
0.000499855
0.000514173
0.000529136
0.000544935
0.000561765
0.00057981
0.000599223
0.000620111
0.000642517
0.00066641
0.000691679
0.000718134
0.000745515
0.000773513
0.000801782
0.000829971
0.00085774
0.000884781
0.00091083
0.000935677
0.000959168
0.000981204
0.00100174
0.00102076
0.0010383
0.00105441
0.00106918
0.00108269
0.00109506
0.00110637
0.00111676
0.00112632
0.00113518
0.00114346
0.00115129
0.00115883
0.00116624
0.00117373
0.00118157
0.00119008
0.00119963
0.00121066
0.00122364
0.00123903
0.00125722
0.00127845
0.00130271
0.00132971
0.00135884
0.00138916
0.00141944
0.00144827
0.00147429
0.00149508
0.00151513
0.000686217
0.000677005
0.00066808
0.00065943
0.00065103
0.00064284
0.000634815
0.000626886
0.000619006
0.000611134
0.000603217
0.0005952
0.00058702
0.00057861
0.000569907
0.000560852
0.000551401
0.000541534
0.000531263
0.000520638
0.000509751
0.00049874
0.000487782
0.000477084
0.000466876
0.000457392
0.000448859
0.00044148
0.000435426
0.000430827
0.000427771
0.000426308
0.000426451
0.000428184
0.000431473
0.00043627
0.000442519
0.000450166
0.00045916
0.000469456
0.000481022
0.000493837
0.00050789
0.00052318
0.000539714
0.0005575
0.00057654
0.00059683
0.000618344
0.000641032
0.000664814
0.000689576
0.000715166
0.0007414
0.000768063
0.000794921
0.000821726
0.000848233
0.000874205
0.000899427
0.000923713
0.000946908
0.000968897
0.0009896
0.00100897
0.001027
0.0010437
0.00105912
0.0010733
0.00108632
0.00109826
0.0011092
0.00111923
0.00112844
0.00113692
0.00114474
0.001152
0.00115877
0.00116512
0.00117112
0.00117685
0.00118239
0.00118782
0.00119325
0.00119883
0.00120475
0.00121126
0.00121869
0.00122745
0.00123795
0.00125059
0.00126569
0.00128333
0.00130334
0.0013252
0.00134806
0.00137075
0.00139215
0.00140986
0.00142854
0.000843197
0.000834207
0.000825418
0.000816835
0.000808455
0.000800269
0.000792268
0.00078443
0.000776749
0.000769208
0.00076179
0.000754476
0.000747249
0.000740088
0.000732968
0.000725864
0.000718749
0.000711596
0.000704381
0.000697087
0.000689708
0.000682253
0.000674749
0.000667244
0.00065981
0.000652537
0.000645536
0.000638931
0.00063286
0.000627459
0.000622866
0.000619213
0.000616619
0.000615194
0.000615029
0.000616205
0.000618785
0.000622815
0.000628328
0.000635341
0.000643855
0.000653857
0.000665319
0.000678198
0.000692436
0.000707961
0.000724681
0.00074249
0.000761264
0.000780862
0.000801128
0.000821893
0.000842978
0.000864202
0.000885381
0.000906336
0.000926902
0.000946926
0.000966275
0.000984838
0.00100253
0.00101928
0.00103506
0.00104985
0.00106363
0.00107645
0.00108832
0.00109928
0.0011094
0.00111872
0.00112731
0.00113523
0.00114256
0.00114934
0.00115566
0.00116157
0.00116714
0.00117243
0.00117749
0.00118238
0.00118715
0.00119184
0.0011965
0.00120115
0.00120585
0.00121064
0.0012156
0.00122085
0.00122657
0.00123299
0.00124044
0.00124923
0.00125965
0.00127184
0.00128573
0.00130093
0.00131674
0.00133239
0.00134583
0.00136129
0.000962541
0.000954737
0.000947014
0.000939386
0.000931863
0.000924451
0.000917153
0.000909972
0.000902913
0.000895975
0.000889162
0.000882477
0.000875922
0.000869501
0.000863216
0.00085707
0.000851062
0.000845192
0.000839457
0.000833855
0.000828386
0.00082305
0.000817856
0.000812816
0.000807951
0.000803293
0.000798883
0.000794772
0.00079102
0.000787696
0.000784874
0.000782634
0.000781056
0.000780221
0.000780209
0.000781091
0.000782935
0.000785797
0.000789724
0.000794747
0.000800882
0.00080813
0.000816474
0.000825878
0.000836293
0.000847651
0.000859869
0.00087285
0.000886487
0.00090066
0.000915244
0.00093011
0.000945125
0.000960161
0.000975093
0.000989806
0.00100419
0.00101817
0.00103164
0.00104456
0.00105686
0.00106853
0.00107953
0.00108987
0.00109954
0.00110856
0.00111694
0.00112473
0.00113195
0.00113864
0.00114484
0.00115059
0.00115594
0.00116093
0.00116561
0.00117004
0.00117426
0.00117832
0.00118227
0.00118617
0.00119007
0.00119402
0.00119806
0.00120222
0.00120654
0.00121102
0.00121568
0.00122052
0.00122555
0.00123081
0.00123638
0.00124241
0.00124908
0.00125656
0.00126497
0.00127427
0.0012842
0.0012944
0.00130343
0.00131465
0.00104551
0.00103944
0.00103334
0.00102725
0.00102116
0.00101509
0.00100904
0.00100304
0.000997078
0.000991176
0.00098534
0.000979581
0.00097391
0.000968341
0.000962884
0.000957554
0.000952362
0.000947321
0.000942442
0.000937737
0.000933217
0.000928893
0.000924777
0.000920883
0.000917226
0.000913825
0.000910701
0.00090788
0.000905391
0.000903267
0.000901544
0.000900261
0.00089946
0.000899184
0.000899475
0.000900375
0.000901923
0.000904155
0.000907098
0.000910772
0.000915189
0.00092035
0.000926243
0.000932845
0.000940123
0.000948029
0.000956508
0.000965495
0.000974914
0.000984688
0.000994732
0.00100496
0.00101529
0.00102563
0.0010359
0.00104604
0.00105597
0.00106563
0.00107498
0.00108396
0.00109256
0.00110075
0.00110851
0.00111583
0.00112271
0.00112917
0.0011352
0.00114083
0.00114607
0.00115095
0.00115548
0.0011597
0.00116363
0.0011673
0.00117075
0.00117401
0.00117712
0.00118013
0.00118307
0.001186
0.00118896
0.00119202
0.00119522
0.00119863
0.00120228
0.00120622
0.00121046
0.00121502
0.00121987
0.00122497
0.00123027
0.00123574
0.00124137
0.00124716
0.00125317
0.00125941
0.00126581
0.0012723
0.00127804
0.00128542
0.00109824
0.00109396
0.00108961
0.0010852
0.00108072
0.0010762
0.00107165
0.00106706
0.00106246
0.00105786
0.00105325
0.00104867
0.00104411
0.00103959
0.00103513
0.00103074
0.00102644
0.00102224
0.00101816
0.00101421
0.00101041
0.00100677
0.00100332
0.00100007
0.00099703
0.000994225
0.00099167
0.000989385
0.000987388
0.0009857
0.000984342
0.000983336
0.000982704
0.000982468
0.000982652
0.000983276
0.00098436
0.000985923
0.000987976
0.000990531
0.00099359
0.000997152
0.00100121
0.00100574
0.00101073
0.00101614
0.00102194
0.00102808
0.00103453
0.00104122
0.0010481
0.00105513
0.00106223
0.00106937
0.00107649
0.00108353
0.00109046
0.00109724
0.00110383
0.0011102
0.00111632
0.00112219
0.00112778
0.00113309
0.00113811
0.00114284
0.00114729
0.00115145
0.00115534
0.00115897
0.00116234
0.00116548
0.00116839
0.00117111
0.00117364
0.00117602
0.00117827
0.00118041
0.00118249
0.00118454
0.00118662
0.00118876
0.00119102
0.00119347
0.00119617
0.00119918
0.00120255
0.00120633
0.00121053
0.00121515
0.00122013
0.00122541
0.00123087
0.0012364
0.0012419
0.00124728
0.00125244
0.00125736
0.00126151
0.00126663
0.00112879
0.00112604
0.0011232
0.00112027
0.00111726
0.00111418
0.00111103
0.00110782
0.00110455
0.00110124
0.00109789
0.00109452
0.00109113
0.00108773
0.00108434
0.00108096
0.00107762
0.00107433
0.0010711
0.00106794
0.00106487
0.00106191
0.00105908
0.00105638
0.00105384
0.00105147
0.0010493
0.00104733
0.00104558
0.00104407
0.00104281
0.00104183
0.00104113
0.00104073
0.00104064
0.00104088
0.00104145
0.00104238
0.00104365
0.00104528
0.00104727
0.00104962
0.00105231
0.00105534
0.00105869
0.00106234
0.00106627
0.00107045
0.00107485
0.00107944
0.00108418
0.00108903
0.00109397
0.00109896
0.00110396
0.00110893
0.00111386
0.0011187
0.00112344
0.00112806
0.00113253
0.00113683
0.00114097
0.00114491
0.00114867
0.00115223
0.00115558
0.00115874
0.0011617
0.00116445
0.00116702
0.0011694
0.0011716
0.00117363
0.0011755
0.00117723
0.00117883
0.00118033
0.00118174
0.0011831
0.00118443
0.00118578
0.0011872
0.00118873
0.00119044
0.0011924
0.00119467
0.00119732
0.00120041
0.00120398
0.00120803
0.00121254
0.00121744
0.00122259
0.00122786
0.00123306
0.00123801
0.00124261
0.00124639
0.00125087
0.00114487
0.00114322
0.00114149
0.00113968
0.0011378
0.00113584
0.00113381
0.00113172
0.00112957
0.00112736
0.00112509
0.00112278
0.00112043
0.00111805
0.00111564
0.00111322
0.0011108
0.00110838
0.00110598
0.00110361
0.00110128
0.001099
0.00109679
0.00109467
0.00109263
0.00109071
0.00108892
0.00108726
0.00108576
0.00108442
0.00108327
0.00108231
0.00108155
0.00108101
0.0010807
0.00108063
0.0010808
0.00108123
0.00108191
0.00108286
0.00108407
0.00108553
0.00108725
0.00108922
0.00109142
0.00109385
0.00109649
0.00109933
0.00110233
0.00110549
0.00110878
0.00111217
0.00111565
0.00111918
0.00112275
0.00112633
0.0011299
0.00113344
0.00113694
0.00114036
0.0011437
0.00114695
0.00115008
0.0011531
0.00115598
0.00115873
0.00116134
0.0011638
0.0011661
0.00116826
0.00117026
0.00117211
0.00117381
0.00117536
0.00117677
0.00117804
0.00117919
0.00118022
0.00118115
0.001182
0.00118279
0.00118354
0.0011843
0.00118509
0.00118598
0.00118701
0.00118825
0.00118976
0.00119163
0.00119391
0.00119666
0.0011999
0.00120362
0.00120777
0.00121222
0.00121684
0.00122141
0.00122579
0.00122945
0.00123394
0.00115254
0.00115157
0.00115055
0.00114947
0.00114833
0.00114714
0.0011459
0.0011446
0.00114324
0.00114184
0.00114039
0.00113889
0.00113735
0.00113577
0.00113416
0.00113252
0.00113086
0.00112919
0.0011275
0.00112582
0.00112415
0.0011225
0.00112088
0.00111929
0.00111776
0.00111629
0.00111489
0.00111358
0.00111236
0.00111125
0.00111026
0.00110939
0.00110867
0.0011081
0.00110769
0.00110745
0.00110738
0.00110749
0.00110779
0.00110829
0.00110897
0.00110985
0.00111091
0.00111217
0.0011136
0.00111521
0.00111698
0.00111891
0.00112098
0.00112318
0.00112549
0.0011279
0.00113039
0.00113295
0.00113556
0.0011382
0.00114086
0.00114351
0.00114616
0.00114877
0.00115134
0.00115386
0.00115631
0.00115868
0.00116097
0.00116316
0.00116524
0.00116722
0.00116907
0.00117081
0.00117242
0.0011739
0.00117525
0.00117647
0.00117756
0.00117852
0.00117936
0.00118007
0.00118068
0.00118118
0.0011816
0.00118194
0.00118223