/*--------------------------------*- C++ -*----------------------------------*\
| =========                 |                                                 |
| \\      /  F ield         | OpenFOAM: The Open Source CFD Toolbox           |
|  \\    /   O peration     | Version:  2.1.1                                 |
|   \\  /    A nd           | Web:      www.OpenFOAM.org                      |
|    \\/     M anipulation  |                                                 |
\*---------------------------------------------------------------------------*/
FoamFile
{
    version     2.0;
    format      ascii;
    class       volScalarField;
    location    "0.18";
    object      p;
}
// * * * * * * * * * * * * * * * * * * * * * * * * * * * * * * * * * * * * * //

dimensions      [0 2 -2 0 0 0 0];

internalField   nonuniform List<scalar> 
6820
(
-10.1704
-12.0167
-12.5917
-12.7194
-12.8265
-12.9056
-12.96
-13.0064
-13.0488
-13.0877
-13.1239
-13.1581
-13.1906
-13.2215
-13.251
-13.2791
-13.3061
-13.332
-13.3569
-13.3809
-13.4041
-13.4266
-13.4484
-13.4695
-13.4898
-13.5093
-13.5276
-13.5445
-13.5587
-13.5693
-13.5719
-13.5605
-13.5219
-14.1229
-13.5883
-13.1657
-12.9758
-12.9511
-12.9623
-12.9825
-13.0104
-13.0425
-13.0757
-13.1091
-13.1421
-13.1743
-13.2055
-13.2355
-13.2644
-13.2922
-13.319
-13.3447
-13.3695
-13.3935
-13.4166
-13.4391
-13.4609
-13.4819
-13.5022
-13.5217
-13.5403
-13.5576
-13.5753
-13.5914
-13.6281
-13.6773
-12.4804
-12.1766
-12.4632
-12.7083
-12.8132
-12.8886
-12.9475
-12.9968
-13.0407
-13.0807
-13.1177
-13.1523
-13.185
-13.2159
-13.2453
-13.2733
-13.3002
-13.326
-13.3508
-13.3748
-13.398
-13.4205
-13.4423
-13.4636
-13.4844
-13.5046
-13.5242
-13.5434
-13.5621
-13.5816
-13.6022
-13.6303
-13.6632
-12.9874
-13.0217
-13.0189
-12.9597
-12.9519
-12.9724
-12.9987
-13.0275
-13.0582
-13.0895
-13.1205
-13.151
-13.1809
-13.2099
-13.2381
-13.2654
-13.2918
-13.3174
-13.3422
-13.3663
-13.3897
-13.4125
-13.4347
-13.4565
-13.4777
-13.4986
-13.5192
-13.5398
-13.5605
-13.5829
-13.6073
-13.6409
-13.6811
-12.832
-12.7319
-12.7761
-12.8421
-12.895
-12.9415
-12.9822
-13.0195
-13.0553
-13.0895
-13.1224
-13.1539
-13.1843
-13.2136
-13.2417
-13.2688
-13.295
-13.3202
-13.3447
-13.3684
-13.3915
-13.4141
-13.4361
-13.4577
-13.4789
-13.4999
-13.5208
-13.542
-13.5637
-13.5872
-13.6132
-13.6451
-13.6821
-12.887
-12.8704
-12.8955
-12.9186
-12.9409
-12.9702
-13.0016
-13.0332
-13.0649
-13.0962
-13.1268
-13.1566
-13.1855
-13.2136
-13.2409
-13.2673
-13.2929
-13.3177
-13.3419
-13.3654
-13.3883
-13.4108
-13.4328
-13.4544
-13.4759
-13.4972
-13.5186
-13.5404
-13.563
-13.5873
-13.6139
-13.6448
-13.6795
-12.8852
-12.8641
-12.8799
-12.9087
-12.9388
-12.9716
-13.0045
-13.0364
-13.0679
-13.0988
-13.1289
-13.1582
-13.1867
-13.2144
-13.2413
-13.2673
-13.2926
-13.3171
-13.341
-13.3644
-13.3871
-13.4095
-13.4314
-13.4531
-13.4746
-13.496
-13.5177
-13.5398
-13.5627
-13.5872
-13.6135
-13.6428
-13.6745
-12.8994
-12.8916
-12.9069
-12.9314
-12.9567
-12.9848
-13.0143
-13.0439
-13.0736
-13.1031
-13.132
-13.1603
-13.188
-13.2149
-13.2411
-13.2666
-13.2915
-13.3156
-13.3392
-13.3623
-13.3848
-13.407
-13.4288
-13.4505
-13.472
-13.4935
-13.5153
-13.5375
-13.5605
-13.5848
-13.6105
-13.6382
-13.6674
-12.9123
-12.9084
-12.9205
-12.942
-12.966
-12.9927
-13.021
-13.0496
-13.0782
-13.1066
-13.1346
-13.1621
-13.1891
-13.2154
-13.241
-13.266
-13.2904
-13.3142
-13.3375
-13.3603
-13.3826
-13.4046
-13.4263
-13.4478
-13.4693
-13.4908
-13.5125
-13.5347
-13.5575
-13.5813
-13.6061
-13.6322
-13.6592
-12.9258
-12.9252
-12.9365
-12.9559
-12.9781
-13.0028
-13.0291
-13.0561
-13.0833
-13.1105
-13.1375
-13.1641
-13.1902
-13.2158
-13.2408
-13.2653
-13.2892
-13.3126
-13.3356
-13.358
-13.3801
-13.4019
-13.4234
-13.4447
-13.466
-13.4874
-13.509
-13.5309
-13.5533
-13.5765
-13.6004
-13.625
-13.6501
-12.9393
-12.9404
-12.9507
-12.9682
-12.9887
-13.0117
-13.0365
-13.0621
-13.0881
-13.1142
-13.1402
-13.166
-13.1913
-13.2162
-13.2406
-13.2646
-13.288
-13.311
-13.3335
-13.3557
-13.3775
-13.399
-13.4202
-13.4414
-13.4624
-13.4835
-13.5048
-13.5264
-13.5483
-13.5707
-13.5936
-13.6169
-13.6404
-12.9526
-12.9546
-12.9643
-12.9802
-12.9992
-13.0207
-13.044
-13.0682
-13.093
-13.118
-13.143
-13.1679
-13.1924
-13.2166
-13.2404
-13.2638
-13.2867
-13.3093
-13.3314
-13.3532
-13.3746
-13.3958
-13.4168
-13.4376
-13.4584
-13.4792
-13.5001
-13.5212
-13.5425
-13.5641
-13.586
-13.6081
-13.6301
-12.9654
-12.9678
-12.977
-12.9916
-13.0092
-13.0293
-13.0512
-13.0741
-13.0978
-13.1217
-13.1458
-13.1697
-13.1935
-13.217
-13.2402
-13.263
-13.2854
-13.3075
-13.3292
-13.3505
-13.3716
-13.3924
-13.4131
-13.4336
-13.454
-13.4744
-13.4948
-13.5154
-13.536
-13.5569
-13.5778
-13.5987
-13.6194
-12.9777
-12.9803
-12.989
-13.0024
-13.0188
-13.0376
-13.0582
-13.0799
-13.1024
-13.1253
-13.1484
-13.1716
-13.1946
-13.2174
-13.2399
-13.2621
-13.284
-13.3055
-13.3268
-13.3477
-13.3684
-13.3888
-13.4091
-13.4292
-13.4492
-13.4691
-13.489
-13.509
-13.529
-13.549
-13.5689
-13.5888
-13.6084
-12.9893
-12.992
-13.0002
-13.0126
-13.0279
-13.0455
-13.0649
-13.0855
-13.1069
-13.1288
-13.151
-13.1733
-13.1955
-13.2176
-13.2395
-13.2611
-13.2825
-13.3035
-13.3243
-13.3448
-13.365
-13.385
-13.4048
-13.4245
-13.444
-13.4634
-13.4828
-13.5021
-13.5214
-13.5406
-13.5596
-13.5785
-13.597
-13.0003
-13.0029
-13.0106
-13.0222
-13.0365
-13.053
-13.0713
-13.0908
-13.1112
-13.1322
-13.1535
-13.1749
-13.1964
-13.2178
-13.239
-13.26
-13.2808
-13.3013
-13.3216
-13.3416
-13.3614
-13.3809
-13.4003
-13.4195
-13.4385
-13.4574
-13.4761
-13.4948
-13.5133
-13.5317
-13.5499
-13.5678
-13.5854
-13.0106
-13.0131
-13.0203
-13.0312
-13.0445
-13.06
-13.0773
-13.0958
-13.1153
-13.1353
-13.1557
-13.1764
-13.1971
-13.2178
-13.2384
-13.2588
-13.279
-13.299
-13.3188
-13.3383
-13.3576
-13.3766
-13.3955
-13.4141
-13.4326
-13.4509
-13.4691
-13.487
-13.5048
-13.5224
-13.5398
-13.5568
-13.5735
-13.0201
-13.0225
-13.0293
-13.0395
-13.052
-13.0666
-13.0829
-13.1005
-13.119
-13.1382
-13.1578
-13.1777
-13.1977
-13.2177
-13.2376
-13.2574
-13.2771
-13.2965
-13.3157
-13.3347
-13.3535
-13.3721
-13.3904
-13.4085
-13.4264
-13.4441
-13.4616
-13.4789
-13.496
-13.5128
-13.5293
-13.5455
-13.5613
-13.0289
-13.0311
-13.0376
-13.0471
-13.0589
-13.0727
-13.0881
-13.1048
-13.1225
-13.1408
-13.1596
-13.1788
-13.198
-13.2174
-13.2367
-13.2559
-13.275
-13.2938
-13.3125
-13.331
-13.3492
-13.3672
-13.385
-13.4026
-13.4199
-13.437
-13.4538
-13.4704
-13.4868
-13.5028
-13.5185
-13.5339
-13.5488
-13.0369
-13.039
-13.0451
-13.0541
-13.0652
-13.0782
-13.0928
-13.1087
-13.1256
-13.1431
-13.1612
-13.1796
-13.1982
-13.2169
-13.2356
-13.2542
-13.2726
-13.291
-13.3091
-13.327
-13.3447
-13.3622
-13.3794
-13.3964
-13.4131
-13.4295
-13.4457
-13.4616
-13.4773
-13.4925
-13.5075
-13.522
-13.5362
-13.0442
-13.0461
-13.0519
-13.0603
-13.0708
-13.0831
-13.097
-13.1122
-13.1283
-13.1451
-13.1624
-13.1801
-13.1981
-13.2161
-13.2342
-13.2522
-13.2701
-13.2879
-13.3055
-13.3228
-13.34
-13.3569
-13.3735
-13.3899
-13.406
-13.4218
-13.4374
-13.4526
-13.4675
-13.482
-13.4962
-13.51
-13.5234
-13.0506
-13.0524
-13.0579
-13.0658
-13.0757
-13.0874
-13.1007
-13.1151
-13.1305
-13.1466
-13.1633
-13.1804
-13.1977
-13.2151
-13.2326
-13.25
-13.2674
-13.2846
-13.3016
-13.3184
-13.335
-13.3513
-13.3674
-13.3832
-13.3987
-13.4139
-13.4287
-13.4433
-13.4575
-13.4713
-13.4847
-13.4978
-13.5104
-13.0561
-13.0579
-13.063
-13.0706
-13.08
-13.0911
-13.1037
-13.1175
-13.1323
-13.1478
-13.1639
-13.1803
-13.197
-13.2139
-13.2308
-13.2476
-13.2644
-13.2811
-13.2975
-13.3138
-13.3298
-13.3456
-13.3611
-13.3762
-13.3911
-13.4057
-13.4199
-13.4338
-13.4473
-13.4604
-13.4731
-13.4854
-13.4973
-13.0608
-13.0625
-13.0674
-13.0745
-13.0835
-13.0941
-13.1061
-13.1194
-13.1335
-13.1484
-13.1639
-13.1798
-13.1959
-13.2122
-13.2286
-13.2449
-13.2611
-13.2772
-13.2932
-13.3089
-13.3244
-13.3396
-13.3545
-13.3691
-13.3833
-13.3973
-13.4108
-13.424
-13.4369
-13.4493
-13.4613
-13.4729
-13.484
-13.0646
-13.0662
-13.0709
-13.0777
-13.0862
-13.0964
-13.108
-13.1207
-13.1344
-13.1487
-13.1637
-13.179
-13.1946
-13.2104
-13.2262
-13.242
-13.2578
-13.2733
-13.2887
-13.3039
-13.3188
-13.3335
-13.3478
-13.3618
-13.3755
-13.3888
-13.4017
-13.4143
-13.4264
-13.4382
-13.4495
-13.4604
-13.4708
-13.0675
-13.069
-13.0734
-13.0799
-13.088
-13.0977
-13.1088
-13.1211
-13.1343
-13.1481
-13.1626
-13.1775
-13.1926
-13.2079
-13.2232
-13.2386
-13.2538
-13.2689
-13.2838
-13.2985
-13.3128
-13.327
-13.3407
-13.3542
-13.3673
-13.38
-13.3923
-13.4042
-13.4158
-13.4269
-13.4375
-13.4477
-13.4575
-13.0694
-13.0709
-13.0752
-13.0814
-13.0893
-13.0988
-13.1096
-13.1215
-13.1343
-13.1478
-13.1618
-13.1762
-13.1909
-13.2057
-13.2206
-13.2354
-13.2502
-13.2647
-13.2791
-13.2933
-13.3071
-13.3207
-13.3339
-13.3468
-13.3593
-13.3714
-13.3831
-13.3944
-13.4053
-13.4158
-13.4258
-13.4353
-13.4444
-13.0703
-13.0716
-13.0754
-13.0812
-13.0887
-13.0977
-13.1081
-13.1196
-13.132
-13.1451
-13.1589
-13.173
-13.1874
-13.2018
-13.2164
-13.2308
-13.2452
-13.2594
-13.2734
-13.2871
-13.3005
-13.3136
-13.3264
-13.3387
-13.3507
-13.3623
-13.3735
-13.3842
-13.3945
-13.4044
-13.4138
-13.4227
-13.4312
-13.0704
-13.072
-13.076
-13.082
-13.0895
-13.0984
-13.1087
-13.12
-13.1321
-13.145
-13.1583
-13.172
-13.1859
-13.1999
-13.214
-13.228
-13.2418
-13.2555
-13.269
-13.2822
-13.295
-13.3076
-13.3198
-13.3316
-13.343
-13.354
-13.3646
-13.3747
-13.3844
-13.3936
-13.4024
-13.4107
-13.4186
-13.0687
-13.0693
-13.0721
-13.077
-13.0838
-13.0923
-13.1023
-13.1135
-13.1257
-13.1385
-13.1519
-13.1656
-13.1795
-13.1935
-13.2075
-13.2214
-13.2351
-13.2486
-13.2619
-13.2748
-13.2874
-13.2996
-13.3115
-13.3229
-13.3339
-13.3445
-13.3546
-13.3643
-13.3735
-13.3822
-13.3905
-13.3983
-13.4056
-13.0681
-13.0707
-13.0751
-13.081
-13.0882
-13.0968
-13.1066
-13.1174
-13.129
-13.1413
-13.154
-13.1671
-13.1803
-13.1936
-13.207
-13.2202
-13.2332
-13.2461
-13.2587
-13.271
-13.283
-13.2946
-13.3058
-13.3166
-13.327
-13.337
-13.3465
-13.3556
-13.3641
-13.3723
-13.3799
-13.3871
-13.3938
-13.0602
-13.0582
-13.0584
-13.062
-13.0686
-13.0775
-13.0882
-13.1
-13.1128
-13.1262
-13.14
-13.154
-13.1681
-13.1821
-13.196
-13.2097
-13.2232
-13.2363
-13.2491
-13.2615
-13.2735
-13.2851
-13.2962
-13.3069
-13.3172
-13.3269
-13.3362
-13.3449
-13.3532
-13.361
-13.3683
-13.3751
-13.3814
-13.068
-13.0745
-13.0802
-13.0852
-13.0909
-13.0981
-13.1068
-13.1166
-13.1273
-13.1387
-13.1506
-13.1629
-13.1753
-13.1879
-13.2004
-13.2128
-13.2251
-13.2372
-13.2489
-13.2604
-13.2715
-13.2822
-13.2925
-13.3024
-13.3119
-13.3209
-13.3295
-13.3376
-13.3452
-13.3523
-13.3589
-13.3651
-13.3708
-13.036
-13.0225
-13.0175
-13.0227
-13.0326
-13.0451
-13.0592
-13.0742
-13.0897
-13.1053
-13.121
-13.1365
-13.1518
-13.1667
-13.1813
-13.1954
-13.2091
-13.2224
-13.2351
-13.2474
-13.2591
-13.2704
-13.2811
-13.2913
-13.301
-13.3102
-13.3188
-13.3269
-13.3345
-13.3415
-13.348
-13.354
-13.3595
-13.0899
-13.1103
-13.1147
-13.1101
-13.1075
-13.1096
-13.1148
-13.1218
-13.1302
-13.1397
-13.1501
-13.161
-13.1723
-13.1837
-13.1952
-13.2067
-13.218
-13.2292
-13.2401
-13.2507
-13.2609
-13.2708
-13.2803
-13.2893
-13.2979
-13.3061
-13.3138
-13.321
-13.3278
-13.334
-13.3398
-13.3451
-13.35
-12.9671
-12.9175
-12.9057
-12.9316
-12.9597
-12.984
-13.0078
-13.0309
-13.0529
-13.0738
-13.0936
-13.1125
-13.1303
-13.1473
-13.1635
-13.1789
-13.1936
-13.2075
-13.2208
-13.2333
-13.2453
-13.2566
-13.2672
-13.2773
-13.2867
-13.2956
-13.3039
-13.3115
-13.3186
-13.3251
-13.3311
-13.3365
-13.3414
-13.2154
-13.2503
-13.2194
-13.1769
-13.1482
-13.1371
-13.1342
-13.1349
-13.1387
-13.1448
-13.1524
-13.1611
-13.1705
-13.1804
-13.1905
-13.2008
-13.211
-13.2212
-13.2312
-13.2409
-13.2503
-13.2594
-13.2681
-13.2765
-13.2844
-13.2918
-13.2988
-13.3054
-13.3115
-13.3171
-13.3223
-13.3269
-13.3312
-12.7232
-12.6035
-12.6658
-12.7673
-12.8412
-12.8931
-12.9368
-12.975
-13.0083
-13.0376
-13.0638
-13.0875
-13.1092
-13.1291
-13.1476
-13.1647
-13.1807
-13.1957
-13.2097
-13.2228
-13.2351
-13.2466
-13.2574
-13.2675
-13.2768
-13.2855
-13.2936
-13.301
-13.3078
-13.3139
-13.3195
-13.3244
-13.3288
-13.9378
-13.5988
-13.3351
-13.218
-13.1679
-13.1426
-13.1275
-13.1213
-13.1214
-13.1255
-13.132
-13.1402
-13.1496
-13.1596
-13.1701
-13.1807
-13.1913
-13.2018
-13.2122
-13.2222
-13.232
-13.2413
-13.2503
-13.2588
-13.2669
-13.2745
-13.2816
-13.2882
-13.2944
-13.3
-13.3051
-13.3098
-13.314
-11.4341
-12.1408
-12.5453
-12.6977
-12.8024
-12.8848
-12.9442
-12.9892
-13.0257
-13.0561
-13.0818
-13.1043
-13.1245
-13.1427
-13.1594
-13.1749
-13.1893
-13.2028
-13.2154
-13.2272
-13.2384
-13.2488
-13.2585
-13.2677
-13.2762
-13.284
-13.2913
-13.298
-13.3041
-13.3096
-13.3146
-13.319
-13.3229
-13.4097
-13.6588
-13.7895
-13.8788
-13.9443
-13.9912
-14.0264
-14.0594
-14.0924
-14.1281
-14.1679
-14.2114
-14.259
-14.3099
-14.3631
-14.4177
-14.4726
-14.5271
-14.5802
-14.6313
-14.6797
-14.7248
-14.7661
-14.803
-14.8348
-14.8609
-14.8805
-14.8927
-14.8968
-14.8917
-14.8765
-14.8502
-14.8118
-14.7603
-14.6946
-14.6138
-14.5168
-14.4028
-14.2708
-14.1203
-13.9504
-13.7607
-13.5508
-13.3204
-13.0694
-12.7978
-12.5058
-12.194
-11.8628
-11.5132
-11.1462
-10.7632
-10.3655
-9.9549
-9.53326
-9.10259
-8.66504
-8.22287
-7.77838
-7.33391
-6.89179
-6.45429
-6.0236
-5.60181
-5.19084
-4.79245
-4.4082
-4.03942
-3.68725
-3.35258
-3.03606
-2.73814
-2.45906
-2.19887
-1.95741
-1.7344
-1.52941
-1.34188
-1.17118
-1.0166
-0.877355
-0.752656
-0.64167
-0.543557
-0.457484
-0.382605
-0.318111
-0.26314
-0.216947
-0.178549
-0.147403
-0.122032
-0.102686
-0.0860573
-0.0755144
-0.061161
-0.0581059
-0.033262
-0.0431534
0.0210026
-13.9974
-14.1352
-14.0768
-14.0102
-13.984
-13.9684
-13.9602
-13.9695
-13.9913
-14.0253
-14.0704
-14.1236
-14.1823
-14.2442
-14.3071
-14.3693
-14.4295
-14.4868
-14.5408
-14.5912
-14.6379
-14.6809
-14.7198
-14.7544
-14.7842
-14.8084
-14.8262
-14.8369
-14.8394
-14.8328
-14.8161
-14.7884
-14.7487
-14.696
-14.6292
-14.5474
-14.4497
-14.3352
-14.203
-14.0525
-13.8829
-13.6939
-13.4849
-13.2558
-13.0064
-12.7368
-12.4473
-12.1382
-11.8102
-11.4642
-11.1011
-10.7222
-10.329
-9.92318
-9.50648
-9.08089
-8.6485
-8.2115
-7.77212
-7.33264
-6.89534
-6.46242
-6.03605
-5.61826
-5.21096
-4.81588
-4.43456
-4.06834
-3.71833
-3.38542
-3.0703
-2.7734
-2.49498
-2.23509
-1.99363
-1.77031
-1.56473
-1.37637
-1.20462
-1.04879
-0.908147
-0.781903
-0.669262
-0.569407
-0.481527
-0.4048
-0.338436
-0.281596
-0.233546
-0.193329
-0.160396
-0.133326
-0.112281
-0.0941683
-0.0819284
-0.0665754
-0.0613729
-0.0371224
-0.0422373
0.0144328
-13.7158
-13.7255
-13.7474
-13.7969
-13.8525
-13.8981
-13.9385
-13.9695
-14.0043
-14.0391
-14.0768
-14.1176
-14.1622
-14.2103
-14.2611
-14.3139
-14.3677
-14.4217
-14.4747
-14.526
-14.5745
-14.6195
-14.6603
-14.6962
-14.7266
-14.7506
-14.7677
-14.7772
-14.7782
-14.7699
-14.7515
-14.7221
-14.6808
-14.6267
-14.5587
-14.476
-14.3775
-14.2625
-14.1302
-13.9797
-13.8106
-13.6223
-13.4145
-13.1868
-12.9393
-12.672
-12.3852
-12.0791
-11.7546
-11.4123
-11.0533
-10.6789
-10.2903
-9.88937
-9.47771
-9.05725
-8.63004
-8.1982
-7.76392
-7.32944
-6.89697
-6.46869
-6.04673
-5.63308
-5.22961
-4.83803
-4.45986
-4.09641
-3.74879
-3.41788
-3.10435
-2.80866
-2.53107
-2.27165
-2.03032
-1.80681
-1.60075
-1.41165
-1.23893
-1.08192
-0.939925
-0.81218
-0.697913
-0.596333
-0.506649
-0.42806
-0.359796
-0.301039
-0.251067
-0.208953
-0.174139
-0.14527
-0.122412
-0.102705
-0.0886499
-0.0721935
-0.0647292
-0.0409943
-0.0412881
0.00809377
-13.7692
-13.8785
-13.9379
-13.9558
-13.9633
-13.9682
-13.9732
-13.9828
-13.9973
-14.0234
-14.0575
-14.098
-14.1438
-14.1934
-14.245
-14.2971
-14.3486
-14.3984
-14.4459
-14.4908
-14.5328
-14.5714
-14.6065
-14.6375
-14.6639
-14.6848
-14.6996
-14.7072
-14.7068
-14.6973
-14.6779
-14.6476
-14.6053
-14.5503
-14.4816
-14.3982
-14.2992
-14.184
-14.0516
-13.9014
-13.7329
-13.5455
-13.339
-13.113
-12.8675
-12.6026
-12.3185
-12.0156
-11.6946
-11.3562
-11.0013
-10.6313
-10.2475
-9.85145
-9.44485
-9.02959
-8.60766
-8.18113
-7.75215
-7.3229
-6.89554
-6.47221
-6.05497
-5.64579
-5.24648
-4.85873
-4.484
-4.12361
-3.77863
-3.44994
-3.13821
-2.84391
-2.5673
-2.30847
-2.06737
-1.84376
-1.63731
-1.44753
-1.27389
-1.11576
-0.972457
-0.843251
-0.727395
-0.624118
-0.532651
-0.452212
-0.382045
-0.321353
-0.269425
-0.225363
-0.188597
-0.157845
-0.133076
-0.111669
-0.0956883
-0.0780167
-0.0681961
-0.044855
-0.0403782
0.00210517
-13.7371
-13.7843
-13.8014
-13.8161
-13.8419
-13.8712
-13.9006
-13.9299
-13.9673
-14.0036
-14.0408
-14.0813
-14.1245
-14.1698
-14.2164
-14.2637
-14.3109
-14.3575
-14.4028
-14.4462
-14.4869
-14.5244
-14.5581
-14.5872
-14.6111
-14.6292
-14.6407
-14.6449
-14.641
-14.6282
-14.6057
-14.5725
-14.5278
-14.4707
-14.4002
-14.3155
-14.2156
-14.0997
-13.9671
-13.8171
-13.6491
-13.4626
-13.2573
-13.033
-12.7896
-12.5271
-12.2459
-11.9462
-11.6288
-11.2943
-10.9438
-10.5784
-10.1995
-9.80863
-9.4074
-8.99766
-8.58135
-8.1605
-7.73719
-7.31355
-6.89168
-6.47367
-6.06152
-5.65715
-5.26233
-4.87868
-4.50767
-4.15055
-3.8084
-3.48209
-3.17229
-2.87946
-2.60391
-2.34575
-2.10493
-1.88126
-1.67443
-1.48401
-1.30947
-1.15023
-1.00563
-0.874976
-0.757543
-0.652583
-0.559346
-0.477069
-0.405009
-0.342384
-0.288489
-0.242455
-0.203697
-0.171003
-0.14425
-0.121055
-0.103054
-0.0840622
-0.0718049
-0.0487228
-0.0395803
-0.00347119
-13.7266
-13.7805
-13.8232
-13.8572
-13.886
-13.9099
-13.9314
-13.9534
-13.9707
-13.9983
-14.0304
-14.0663
-14.1057
-14.1478
-14.1917
-14.2364
-14.281
-14.3246
-14.3665
-14.4061
-14.4429
-14.4763
-14.506
-14.5313
-14.5517
-14.5665
-14.5751
-14.5766
-14.5702
-14.555
-14.5303
-14.495
-14.4482
-14.3892
-14.317
-14.2308
-14.1297
-14.0129
-13.8797
-13.7295
-13.5617
-13.3759
-13.1717
-12.9489
-12.7074
-12.4474
-12.169
-11.8726
-11.5589
-11.2285
-10.8825
-10.522
-10.1482
-9.76272
-9.36713
-8.96321
-8.55284
-8.13799
-7.72069
-7.30299
-6.88693
-6.47453
-6.06774
-5.6684
-5.27824
-4.89886
-4.53167
-4.17792
-3.83866
-3.51478
-3.20693
-2.91561
-2.64113
-2.38364
-2.14311
-1.91938
-1.71217
-1.52109
-1.34566
-1.1853
-1.0394
-0.907289
-0.788271
-0.681622
-0.58661
-0.502491
-0.428534
-0.363974
-0.30811
-0.260093
-0.219325
-0.184657
-0.155873
-0.130828
-0.110735
-0.0903333
-0.0755772
-0.0526126
-0.038955
-0.00858173
-13.7144
-13.7585
-13.792
-13.8172
-13.8407
-13.8642
-13.8876
-13.9132
-13.9444
-13.9758
-14.0094
-14.0455
-14.0838
-14.1238
-14.1649
-14.2064
-14.2475
-14.2877
-14.3263
-14.3628
-14.3966
-14.4272
-14.454
-14.4764
-14.4939
-14.5057
-14.5111
-14.5095
-14.4999
-14.4817
-14.454
-14.4159
-14.3667
-14.3055
-14.2313
-14.1434
-14.041
-13.9233
-13.7896
-13.6392
-13.4717
-13.2866
-13.0835
-12.8623
-12.6228
-12.3653
-12.0898
-11.7968
-11.487
-11.1609
-10.8195
-10.464
-10.0957
-9.71584
-9.32616
-8.92831
-8.52413
-8.11551
-7.7044
-7.29279
-6.88266
-6.47596
-6.07457
-5.68029
-5.29481
-4.91969
-4.55631
-4.20591
-3.86953
-3.54805
-3.24215
-2.95233
-2.67892
-2.42209
-2.18184
-1.95805
-1.75047
-1.55873
-1.38239
-1.22091
-1.0737
-0.940128
-0.819514
-0.711162
-0.614361
-0.528386
-0.452519
-0.38601
-0.328163
-0.278152
-0.235359
-0.198699
-0.167857
-0.140923
-0.118692
-0.0968115
-0.0795196
-0.0565336
-0.0385493
-0.0131945
-13.7027
-13.7424
-13.7768
-13.8063
-13.8339
-13.8605
-13.8866
-13.9103
-13.9364
-13.9643
-13.9948
-14.0279
-14.0631
-14.1001
-14.1381
-14.1765
-14.2146
-14.2518
-14.2873
-14.3207
-14.3513
-14.3786
-14.4021
-14.4213
-14.4354
-14.444
-14.4462
-14.4415
-14.429
-14.4079
-14.3775
-14.337
-14.2854
-14.222
-14.1459
-14.0564
-13.9527
-13.834
-13.6996
-13.549
-13.3817
-13.1972
-12.9952
-12.7756
-12.5382
-12.2832
-12.0108
-11.7213
-11.4154
-11.0937
-10.7571
-10.4068
-10.0439
-9.66981
-9.28608
-8.89434
-8.49635
-8.09394
-7.689
-7.28344
-6.87918
-6.47812
-6.08207
-5.69281
-5.31195
-4.94104
-4.58143
-4.23435
-3.90083
-3.58173
-3.27777
-2.98943
-2.71709
-2.46092
-2.22096
-1.99712
-1.78917
-1.59679
-1.41954
-1.25695
-1.10844
-0.973397
-0.851184
-0.741122
-0.642523
-0.554678
-0.476885
-0.408411
-0.348564
-0.29654
-0.251703
-0.213031
-0.180112
-0.151261
-0.126867
-0.103458
-0.0836195
-0.0604826
-0.0383861
-0.0173063
-13.6911
-13.7269
-13.7592
-13.7876
-13.8138
-13.8389
-13.8631
-13.8888
-13.9155
-13.9439
-13.9741
-14.0061
-14.0397
-14.0745
-14.11
-14.1456
-14.1807
-14.2148
-14.2472
-14.2774
-14.3049
-14.3292
-14.3496
-14.3657
-14.3768
-14.3823
-14.3816
-14.3739
-14.3584
-14.3346
-14.3015
-14.2584
-14.2044
-14.1389
-14.061
-13.9699
-13.8649
-13.7452
-13.6103
-13.4596
-13.2926
-13.1088
-12.908
-12.69
-12.4547
-12.2023
-11.9329
-11.647
-11.345
-11.0277
-10.6959
-10.3507
-9.99323
-9.62484
-9.247
-8.8613
-8.46943
-8.07315
-7.6743
-7.27471
-6.87626
-6.48075
-6.08999
-5.70567
-5.3294
-4.96265
-4.60679
-4.263
-3.93231
-3.61561
-3.31357
-3.02674
-2.75547
-2.49997
-2.26032
-2.03644
-1.82814
-1.63512
-1.457
-1.2933
-1.14349
-1.00699
-0.883184
-0.771414
-0.671013
-0.581291
-0.501563
-0.43111
-0.369245
-0.31519
-0.268291
-0.227586
-0.19257
-0.16178
-0.135206
-0.11023
-0.0878554
-0.0644484
-0.0384633
-0.0209456
-13.6793
-13.7123
-13.743
-13.7712
-13.7977
-13.8233
-13.8484
-13.8737
-13.8996
-13.9267
-13.9552
-13.9852
-14.0164
-14.0487
-14.0814
-14.1142
-14.1463
-14.1774
-14.2068
-14.234
-14.2585
-14.2796
-14.297
-14.31
-14.318
-14.3205
-14.3167
-14.3061
-14.2878
-14.2612
-14.2255
-14.1799
-14.1238
-14.0562
-13.9765
-13.8839
-13.7777
-13.6573
-13.5219
-13.3711
-13.2044
-13.0214
-12.8218
-12.6054
-12.3723
-12.1225
-11.8562
-11.5737
-11.2757
-10.9627
-10.6357
-10.2955
-9.94344
-9.58067
-9.20866
-8.82892
-8.44309
-8.05287
-7.66002
-7.26633
-6.87361
-6.48361
-6.09808
-5.71866
-5.34693
-4.98433
-4.63219
-4.29168
-3.96384
-3.64952
-3.34943
-3.0641
-2.79392
-2.53913
-2.2998
-2.0759
-1.86727
-1.67364
-1.49465
-1.32986
-1.17877
-1.04082
-0.915429
-0.801955
-0.699753
-0.608154
-0.526484
-0.454043
-0.39015
-0.33405
-0.285072
-0.242316
-0.205185
-0.172435
-0.143671
-0.117098
-0.0922108
-0.0684222
-0.0387639
-0.0241713
-13.6675
-13.698
-13.7272
-13.7545
-13.7804
-13.8055
-13.8302
-13.8549
-13.8802
-13.9065
-13.9338
-13.9622
-13.9916
-14.0216
-14.0519
-14.0819
-14.1113
-14.1395
-14.1659
-14.1901
-14.2116
-14.2297
-14.244
-14.254
-14.259
-14.2585
-14.2518
-14.2383
-14.2173
-14.188
-14.1498
-14.1018
-14.0435
-13.974
-13.8926
-13.7985
-13.6912
-13.57
-13.4342
-13.2833
-13.117
-12.9348
-12.7364
-12.5218
-12.2908
-12.0436
-11.7803
-11.5013
-11.2072
-10.8986
-10.5762
-10.2411
-9.89429
-9.53709
-9.17082
-8.79698
-8.41711
-8.03288
-7.64597
-7.25813
-6.87108
-6.48654
-6.10619
-5.73164
-5.36443
-5.00595
-4.65753
-4.3203
-3.9953
-3.68338
-3.38524
-3.10144
-2.83237
-2.5783
-2.33932
-2.11543
-1.90648
-1.71226
-1.53242
-1.36656
-1.2142
-1.07482
-0.947851
-0.832678
-0.72868
-0.635203
-0.55159
-0.477157
-0.411229
-0.353072
-0.302005
-0.257184
-0.217927
-0.1832
-0.152242
-0.124044
-0.0966767
-0.0724015
-0.039265
-0.0270626
-13.6554
-13.684
-13.7117
-13.7381
-13.7634
-13.7881
-13.8123
-13.8366
-13.8611
-13.8863
-13.9122
-13.9389
-13.9663
-13.994
-14.0218
-14.0492
-14.0758
-14.1011
-14.1247
-14.1459
-14.1644
-14.1796
-14.1909
-14.1979
-14.2
-14.1965
-14.1869
-14.1706
-14.1468
-14.1149
-14.0742
-14.024
-13.9635
-13.8921
-13.8091
-13.7137
-13.6053
-13.4833
-13.3471
-13.1963
-13.0303
-12.849
-12.6519
-12.4389
-12.2101
-11.9654
-11.7052
-11.4297
-11.1395
-10.8351
-10.5174
-10.1872
-9.84568
-9.49397
-9.13339
-8.76536
-8.3914
-8.01309
-7.63207
-7.25
-6.86857
-6.48944
-6.11424
-5.74453
-5.38181
-5.02745
-4.68272
-4.34878
-4.02662
-3.71711
-3.42094
-3.13869
-2.87075
-2.61742
-2.37881
-2.15495
-1.94572
-1.75093
-1.57026
-1.40335
-1.24974
-1.10894
-0.980395
-0.863533
-0.757741
-0.662389
-0.576832
-0.500404
-0.432435
-0.372217
-0.319051
-0.272157
-0.230767
-0.194052
-0.160901
-0.131055
-0.101246
-0.0763874
-0.0399405
-0.029702
-13.6432
-13.6701
-13.6964
-13.7217
-13.7463
-13.7702
-13.7938
-13.8173
-13.841
-13.865
-13.8896
-13.9146
-13.94
-13.9656
-13.991
-14.0159
-14.0398
-14.0624
-14.0831
-14.1014
-14.117
-14.1292
-14.1376
-14.1417
-14.1408
-14.1345
-14.1221
-14.103
-14.0766
-14.0421
-13.999
-13.9465
-13.884
-13.8108
-13.7261
-13.6294
-13.52
-13.3973
-13.2608
-13.11
-12.9445
-12.7639
-12.5681
-12.3569
-12.1302
-11.8881
-11.6309
-11.3588
-11.0724
-10.7723
-10.4591
-10.1339
-9.79754
-9.45126
-9.0963
-8.73403
-8.36591
-7.99345
-7.61824
-7.2419
-6.86604
-6.49228
-6.12218
-5.75728
-5.39902
-5.04876
-4.70773
-4.37706
-4.05775
-3.75065
-3.45647
-3.17578
-2.90901
-2.65644
-2.41823
-2.19442
-1.98493
-1.78959
-1.60811
-1.44017
-1.28532
-1.14311
-1.01302
-0.894471
-0.786892
-0.689667
-0.602167
-0.523743
-0.453731
-0.391447
-0.33618
-0.287206
-0.24368
-0.204969
-0.169632
-0.138119
-0.10591
-0.0803801
-0.0407621
-0.0321619
-13.6308
-13.6561
-13.6811
-13.7054
-13.729
-13.7522
-13.775
-13.7976
-13.8203
-13.8432
-13.8663
-13.8897
-13.9132
-13.9366
-13.9597
-13.9821
-14.0034
-14.0233
-14.0412
-14.0567
-14.0694
-14.0788
-14.0843
-14.0855
-14.0818
-14.0726
-14.0574
-14.0356
-14.0066
-13.9696
-13.9242
-13.8695
-13.805
-13.7299
-13.6437
-13.5457
-13.4353
-13.312
-13.1752
-13.0245
-12.8594
-12.6797
-12.4852
-12.2756
-12.0511
-11.8116
-11.5573
-11.2887
-11.0061
-10.7101
-10.4015
-10.0811
-9.74988
-9.40896
-9.05955
-8.70297
-8.3406
-7.97393
-7.60448
-7.2338
-6.86345
-6.495
-6.12998
-5.76985
-5.41603
-5.06984
-4.7325
-4.40511
-4.08865
-3.78397
-3.49179
-3.21268
-2.94708
-2.6953
-2.45751
-2.23378
-2.02406
-1.82819
-1.64593
-1.47697
-1.32091
-1.17731
-1.04567
-0.92545
-0.816091
-0.716998
-0.627558
-0.547137
-0.475082
-0.410729
-0.353359
-0.302303
-0.256641
-0.215931
-0.178418
-0.145224
-0.110657
-0.0843787
-0.0417021
-0.0344989
-13.6182
-13.6422
-13.6658
-13.689
-13.7117
-13.7339
-13.7558
-13.7775
-13.7991
-13.8207
-13.8424
-13.8641
-13.8857
-13.9071
-13.9279
-13.9479
-13.9667
-13.9839
-13.9991
-14.0118
-14.0217
-14.0282
-14.0309
-14.0293
-14.0228
-14.0109
-13.993
-13.9685
-13.9369
-13.8976
-13.8498
-13.793
-13.7265
-13.6497
-13.562
-13.4628
-13.3515
-13.2275
-13.0904
-12.9398
-12.7752
-12.5964
-12.4031
-12.1953
-11.9728
-11.7359
-11.4846
-11.2193
-10.9405
-10.6486
-10.3445
-10.0289
-9.7027
-9.36707
-9.02314
-8.67216
-8.31549
-7.95453
-7.59076
-7.22568
-6.86079
-6.49761
-6.1376
-5.78221
-5.4328
-5.09066
-4.75699
-4.43287
-4.11926
-3.81702
-3.52684
-3.24933
-2.98493
-2.73395
-2.49661
-2.27298
-2.06305
-1.86668
-1.68366
-1.51371
-1.35645
-1.21147
-1.0783
-0.956424
-0.845295
-0.744341
-0.652964
-0.57055
-0.496453
-0.430032
-0.370558
-0.317421
-0.269627
-0.226917
-0.187241
-0.152357
-0.115472
-0.0883807
-0.0427359
-0.0367551
-13.6054
-13.6281
-13.6505
-13.6726
-13.6942
-13.7154
-13.7363
-13.757
-13.7775
-13.7978
-13.818
-13.838
-13.8578
-13.8771
-13.8957
-13.9133
-13.9296
-13.9442
-13.9568
-13.9668
-13.974
-13.9777
-13.9776
-13.9732
-13.964
-13.9493
-13.9288
-13.9018
-13.8677
-13.8259
-13.7759
-13.717
-13.6487
-13.5702
-13.4811
-13.3807
-13.2685
-13.1439
-13.0066
-12.8561
-12.692
-12.514
-12.322
-12.1159
-11.8955
-11.6611
-11.4127
-11.1507
-10.8756
-10.5878
-10.2881
-9.9772
-9.65603
-9.32562
-8.98708
-8.64163
-8.29057
-7.93525
-7.57709
-7.21754
-6.85804
-6.50006
-6.14503
-5.79433
-5.4493
-5.11119
-4.78117
-4.4603
-4.14954
-3.84973
-3.56158
-3.28568
-3.02248
-2.77234
-2.53546
-2.31196
-2.10184
-1.905
-1.72125
-1.55032
-1.39189
-1.24556
-1.11087
-0.987347
-0.874459
-0.771653
-0.678347
-0.593944
-0.517809
-0.449323
-0.387749
-0.332532
-0.282612
-0.237906
-0.196083
-0.159503
-0.12034
-0.0923831
-0.043843
-0.0389603
-13.5924
-13.6138
-13.6351
-13.656
-13.6766
-13.6968
-13.7166
-13.7361
-13.7554
-13.7744
-13.7931
-13.8114
-13.8293
-13.8466
-13.8631
-13.8784
-13.8923
-13.9044
-13.9144
-13.9218
-13.9262
-13.9273
-13.9245
-13.9174
-13.9054
-13.8882
-13.865
-13.8355
-13.7989
-13.7549
-13.7027
-13.6418
-13.5716
-13.4915
-13.4009
-13.2994
-13.1863
-13.0613
-12.9237
-12.7733
-12.6097
-12.4327
-12.2419
-12.0375
-11.8192
-11.5872
-11.3417
-11.0831
-10.8116
-10.5278
-10.2324
-9.92616
-9.6099
-9.28462
-8.95139
-8.61139
-8.26586
-7.9161
-7.56347
-7.20937
-6.8552
-6.50237
-6.15225
-5.8062
-5.46551
-5.13139
-4.805
-4.48737
-4.17946
-3.88208
-3.59595
-3.32167
-3.0597
-2.8104
-2.57402
-2.35067
-2.14039
-1.94309
-1.75863
-1.58676
-1.42717
-1.2795
-1.14332
-1.01817
-0.903535
-0.798889
-0.703663
-0.61728
-0.539112
-0.468567
-0.4049
-0.347608
-0.295572
-0.248875
-0.204923
-0.166647
-0.125244
-0.096382
-0.0450058
-0.0411355
-13.5792
-13.5995
-13.6195
-13.6393
-13.6588
-13.6779
-13.6966
-13.7149
-13.7329
-13.7505
-13.7677
-13.7845
-13.8005
-13.8159
-13.8302
-13.8433
-13.8548
-13.8645
-13.8719
-13.8768
-13.8786
-13.877
-13.8716
-13.8618
-13.8472
-13.8274
-13.8017
-13.7697
-13.7308
-13.6845
-13.6301
-13.5673
-13.4953
-13.4136
-13.3218
-13.2191
-13.1053
-12.9797
-12.8419
-12.6917
-12.5286
-12.3524
-12.163
-11.9601
-11.7439
-11.5144
-11.2718
-11.0163
-10.7484
-10.4686
-10.1775
-9.87579
-9.56435
-9.24412
-8.91612
-8.58147
-8.24138
-7.89709
-7.54991
-7.20119
-6.85227
-6.50451
-6.15925
-5.81779
-5.48139
-5.15124
-4.82845
-4.51404
-4.20896
-3.914
-3.6299
-3.35725
-3.09652
-2.84809
-2.61221
-2.38904
-2.17862
-1.9809
-1.79575
-1.62296
-1.46224
-1.31326
-1.1756
-1.04884
-0.932473
-0.826
-0.728868
-0.640515
-0.560324
-0.487728
-0.421976
-0.362618
-0.308477
-0.259799
-0.213737
-0.17377
-0.130162
-0.100372
-0.0462076
-0.0432955
-13.5658
-13.5849
-13.6038
-13.6225
-13.6409
-13.6588
-13.6764
-13.6935
-13.7102
-13.7264
-13.7421
-13.7571
-13.7714
-13.7848
-13.7971
-13.808
-13.8172
-13.8245
-13.8295
-13.8318
-13.8311
-13.827
-13.8189
-13.8066
-13.7895
-13.7671
-13.7389
-13.7045
-13.6633
-13.6148
-13.5584
-13.4937
-13.42
-13.3368
-13.2436
-13.1399
-13.0253
-12.8992
-12.7613
-12.6112
-12.4487
-12.2734
-12.0852
-11.884
-11.6698
-11.4427
-11.2029
-10.9506
-10.6862
-10.4103
-10.1234
-9.82613
-9.51944
-9.20416
-8.88129
-8.5519
-8.21715
-7.87824
-7.53643
-7.19299
-6.84925
-6.50649
-6.16602
-5.8291
-5.49694
-5.1707
-4.85148
-4.54027
-4.238
-3.94546
-3.66339
-3.39236
-3.13288
-2.88533
-2.64998
-2.427
-2.21647
-2.01835
-1.83254
-1.65885
-1.49703
-1.34675
-1.20765
-1.07929
-0.961218
-0.852936
-0.753911
-0.663602
-0.581402
-0.506767
-0.438942
-0.377531
-0.321299
-0.270653
-0.222502
-0.180856
-0.135074
-0.104348
-0.0474308
-0.0454521
-13.5522
-13.5702
-13.588
-13.6056
-13.6228
-13.6396
-13.656
-13.6719
-13.6872
-13.702
-13.7162
-13.7296
-13.7421
-13.7536
-13.7638