/*--------------------------------*- C++ -*----------------------------------*\
| =========                 |                                                 |
| \\      /  F ield         | OpenFOAM: The Open Source CFD Toolbox           |
|  \\    /   O peration     | Version:  2.1.1                                 |
|   \\  /    A nd           | Web:      www.OpenFOAM.org                      |
|    \\/     M anipulation  |                                                 |
\*---------------------------------------------------------------------------*/
FoamFile
{
    version     2.0;
    format      ascii;
    class       surfaceScalarField;
    location    "0.18";
    object      phi;
}
// * * * * * * * * * * * * * * * * * * * * * * * * * * * * * * * * * * * * * //

dimensions      [0 3 -1 0 0 0 0];

internalField   nonuniform List<scalar> 
13452
(
6.89922e-05
-5.04973e-07
6.88133e-05
1.78941e-07
6.82015e-05
6.11749e-07
6.72536e-05
9.47915e-07
6.61764e-05
1.07721e-06
6.50841e-05
1.09231e-06
6.40184e-05
1.06567e-06
6.29967e-05
1.02171e-06
6.20273e-05
9.69394e-07
6.11137e-05
9.13623e-07
6.02569e-05
8.56813e-07
5.94565e-05
8.00417e-07
5.87111e-05
7.45383e-07
5.80187e-05
6.92373e-07
5.73769e-05
6.41838e-07
5.67828e-05
5.94059e-07
5.62336e-05
5.49193e-07
5.57263e-05
5.07299e-07
5.5258e-05
4.68364e-07
5.48257e-05
4.32325e-07
5.44266e-05
3.9909e-07
5.4058e-05
3.68557e-07
5.37174e-05
3.40633e-07
5.34021e-05
3.15256e-07
5.31097e-05
2.92431e-07
5.28374e-05
2.72283e-07
5.25822e-05
2.5517e-07
5.23403e-05
2.41978e-07
5.21059e-05
2.34365e-07
5.18685e-05
2.37402e-07
5.16093e-05
2.59202e-07
5.12787e-05
3.30559e-07
5.13602e-07
5.07651e-05
7.01649e-05
-2.25963e-07
7.00411e-05
3.02817e-07
7.01816e-05
4.71201e-07
7.05088e-05
6.20734e-07
7.08591e-05
7.2688e-07
7.11578e-05
7.93648e-07
7.13822e-05
8.41298e-07
7.15339e-05
8.69973e-07
7.16209e-05
8.8237e-07
7.16521e-05
8.82469e-07
7.16357e-05
8.73217e-07
7.15791e-05
8.56945e-07
7.14891e-05
8.35458e-07
7.13712e-05
8.10226e-07
7.12306e-05
7.82424e-07
7.10717e-05
7.52994e-07
7.08982e-05
7.22686e-07
7.07134e-05
6.92092e-07
7.05201e-05
6.61672e-07
7.03206e-05
6.31783e-07
7.0117e-05
6.02701e-07
6.99109e-05
5.74647e-07
6.97038e-05
5.47808e-07
6.94967e-05
5.22366e-07
6.92905e-05
4.98541e-07
6.90862e-05
4.76617e-07
6.88843e-05
4.57117e-07
6.86855e-05
4.40691e-07
6.84908e-05
4.29148e-07
6.83047e-05
4.23429e-07
6.81331e-05
4.30872e-07
6.80225e-05
4.41089e-07
4.80897e-07
6.80552e-05
7.22816e-05
-5.10053e-08
7.23966e-05
1.87763e-07
7.25013e-05
3.66517e-07
7.25876e-05
5.34423e-07
7.26707e-05
6.43835e-07
7.27524e-05
7.11893e-07
7.28383e-05
7.55465e-07
7.29246e-05
7.83611e-07
7.30075e-05
7.99506e-07
7.30843e-05
8.05703e-07
7.31533e-05
8.04156e-07
7.32138e-05
7.96439e-07
7.32654e-05
7.83834e-07
7.33082e-05
7.67458e-07
7.33424e-05
7.48257e-07
7.33684e-05
7.27022e-07
7.33866e-05
7.04408e-07
7.33978e-05
6.80953e-07
7.34023e-05
6.57097e-07
7.34009e-05
6.33194e-07
7.33941e-05
6.09538e-07
7.33824e-05
5.86375e-07
7.33662e-05
5.6393e-07
7.33462e-05
5.42425e-07
7.33226e-05
5.22118e-07
7.32959e-05
5.03324e-07
7.32665e-05
4.86553e-07
7.32348e-05
4.72366e-07
7.32018e-05
4.62149e-07
7.31691e-05
4.56162e-07
7.31407e-05
4.59191e-07
7.31196e-05
4.62202e-07
4.89575e-07
7.3111e-05
7.45184e-05
-4.28248e-08
7.4488e-05
2.18238e-07
7.44763e-05
3.78156e-07
7.45156e-05
4.95107e-07
7.45756e-05
5.83883e-07
7.46415e-05
6.45942e-07
7.4707e-05
6.90053e-07
7.47703e-05
7.20277e-07
7.48312e-05
7.3857e-07
7.48896e-05
7.47302e-07
7.49453e-05
7.485e-07
7.4998e-05
7.43723e-07
7.50476e-05
7.34219e-07
7.5094e-05
7.21049e-07
7.51372e-05
7.05093e-07
7.51771e-05
6.87083e-07
7.52139e-05
6.67624e-07
7.52477e-05
6.47213e-07
7.52785e-05
6.26262e-07
7.53066e-05
6.05108e-07
7.53321e-05
5.84033e-07
7.53552e-05
5.63279e-07
7.5376e-05
5.4307e-07
7.53948e-05
5.23624e-07
7.54118e-05
5.05191e-07
7.5427e-05
4.88056e-07
7.54409e-05
4.72637e-07
7.5454e-05
4.59339e-07
7.54671e-05
4.49008e-07
7.54817e-05
4.41578e-07
7.55021e-05
4.38773e-07
7.55294e-05
4.34906e-07
4.33866e-07
7.55851e-05
7.66035e-05
9.51013e-09
7.66281e-05
1.93694e-07
7.66643e-05
3.41954e-07
7.67021e-05
4.57247e-07
7.67402e-05
5.45855e-07
7.67793e-05
6.06819e-07
7.68207e-05
6.48598e-07
7.68641e-05
6.76907e-07
7.69083e-05
6.94348e-07
7.69526e-05
7.03071e-07
7.69962e-05
7.04847e-07
7.70389e-05
7.01048e-07
7.70803e-05
6.92798e-07
7.71203e-05
6.81059e-07
7.71587e-05
6.6664e-07
7.71956e-05
6.50218e-07
7.72309e-05
6.32357e-07
7.72646e-05
6.13523e-07
7.72967e-05
5.94103e-07
7.73274e-05
5.74419e-07
7.73567e-05
5.54738e-07
7.73847e-05
5.35293e-07
7.74115e-05
5.16297e-07
7.74371e-05
4.97955e-07
7.74618e-05
4.80485e-07
7.74858e-05
4.64125e-07
7.75092e-05
4.49176e-07
7.75327e-05
4.35885e-07
7.7557e-05
4.24672e-07
7.75834e-05
4.15223e-07
7.76143e-05
4.079e-07
7.76504e-05
3.98807e-07
3.8859e-07
7.76956e-05
7.88311e-05
2.43076e-08
7.88386e-05
1.86182e-07
7.88566e-05
3.24011e-07
7.88852e-05
4.28664e-07
7.89211e-05
5.09875e-07
7.89599e-05
5.68066e-07
7.89995e-05
6.08959e-07
7.90394e-05
6.37071e-07
7.9079e-05
6.54701e-07
7.91183e-05
6.63827e-07
7.91569e-05
6.66173e-07
7.91949e-05
6.63096e-07
7.9232e-05
6.55699e-07
7.92681e-05
6.44907e-07
7.93033e-05
6.31496e-07
7.93374e-05
6.16113e-07
7.93704e-05
5.99296e-07
7.94025e-05
5.8149e-07
7.94335e-05
5.63065e-07
7.94636e-05
5.44328e-07
7.94928e-05
5.25536e-07
7.95212e-05
5.0691e-07
7.95488e-05
4.8865e-07
7.95759e-05
4.70937e-07
7.96024e-05
4.53958e-07
7.96286e-05
4.37889e-07
7.96549e-05
4.22925e-07
7.96816e-05
4.09173e-07
7.97095e-05
3.9675e-07
7.97395e-05
3.85232e-07
7.97731e-05
3.74288e-07
7.98106e-05
3.61349e-07
3.45549e-07
7.98536e-05
8.10847e-05
3.81562e-08
8.10946e-05
1.76307e-07
8.11179e-05
3.00729e-07
8.11483e-05
3.98246e-07
8.11826e-05
4.75538e-07
8.12182e-05
5.32469e-07
8.12543e-05
5.7282e-07
8.12908e-05
6.00602e-07
8.13273e-05
6.18204e-07
8.13636e-05
6.27563e-07
8.13994e-05
6.30335e-07
8.14347e-05
6.27833e-07
8.14693e-05
6.21116e-07
8.15031e-05
6.11077e-07
8.15361e-05
5.98459e-07
8.15684e-05
5.83884e-07
8.15998e-05
5.67869e-07
8.16304e-05
5.50842e-07
8.16603e-05
5.3316e-07
8.16895e-05
5.15117e-07
8.17181e-05
4.96959e-07
8.17461e-05
4.78898e-07
8.17737e-05
4.61113e-07
8.18008e-05
4.43767e-07
8.18278e-05
4.27006e-07
8.18547e-05
4.10953e-07
8.18819e-05
3.95712e-07
8.19098e-05
3.81286e-07
8.1939e-05
3.6761e-07
8.197e-05
3.54229e-07
8.20037e-05
3.40585e-07
8.20401e-05
3.24973e-07
3.06393e-07
8.20792e-05
8.341e-05
4.36553e-08
8.34199e-05
1.66484e-07
8.34405e-05
2.80078e-07
8.34678e-05
3.70959e-07
8.34999e-05
4.43484e-07
8.35343e-05
4.98074e-07
8.35696e-05
5.37428e-07
8.36054e-05
5.64863e-07
8.3641e-05
5.8256e-07
8.36763e-05
5.92283e-07
8.37111e-05
5.95572e-07
8.37452e-05
5.93686e-07
8.37787e-05
5.87652e-07
8.38114e-05
5.78333e-07
8.38434e-05
5.66451e-07
8.38747e-05
5.52607e-07
8.39053e-05
5.37303e-07
8.39352e-05
5.20954e-07
8.39644e-05
5.03903e-07
8.39931e-05
4.86437e-07
8.40213e-05
4.6879e-07
8.4049e-05
4.51161e-07
8.40764e-05
4.33715e-07
8.41036e-05
4.1659e-07
8.41307e-05
3.99899e-07
8.41579e-05
3.83719e-07
8.41856e-05
3.68085e-07
8.42139e-05
3.52936e-07
8.42434e-05
3.3811e-07
8.42745e-05
3.23177e-07
8.43075e-05
3.0757e-07
8.43423e-05
2.90159e-07
2.70152e-07
8.43785e-05
8.57963e-05
4.609e-08
8.5806e-05
1.56744e-07
8.58261e-05
2.6003e-07
8.58526e-05
3.44448e-07
8.58836e-05
4.12477e-07
8.5917e-05
4.64694e-07
8.59514e-05
5.02959e-07
8.59864e-05
5.29933e-07
8.60213e-05
5.47602e-07
8.6056e-05
5.57592e-07
8.60903e-05
5.61335e-07
8.61239e-05
5.60024e-07
8.61569e-05
5.54643e-07
8.61892e-05
5.46017e-07
8.62209e-05
5.34841e-07
8.62518e-05
5.21695e-07
8.6282e-05
5.07063e-07
8.63116e-05
4.91347e-07
8.63406e-05
4.74879e-07
8.63691e-05
4.57934e-07
8.63972e-05
4.40737e-07
8.64249e-05
4.23474e-07
8.64523e-05
4.06295e-07
8.64796e-05
3.89317e-07
8.65068e-05
3.72626e-07
8.65343e-05
3.56263e-07
8.65622e-05
3.40218e-07
8.65907e-05
3.24393e-07
8.66202e-05
3.08597e-07
8.6651e-05
2.92453e-07
8.6683e-05
2.75479e-07
8.67163e-05
2.56932e-07
2.36281e-07
8.67501e-05
8.825e-05
4.60552e-08
8.826e-05
1.46823e-07
8.8279e-05
2.40944e-07
8.83042e-05
3.19292e-07
8.83337e-05
3.82932e-07
8.8366e-05
4.32488e-07
8.83996e-05
4.69328e-07
8.84339e-05
4.95593e-07
8.84685e-05
5.13056e-07
8.85029e-05
5.23188e-07
8.85369e-05
5.27301e-07
8.85704e-05
5.26504e-07
8.86033e-05
5.21728e-07
8.86356e-05
5.13759e-07
8.86672e-05
5.03258e-07
8.86981e-05
4.90783e-07
8.87284e-05
4.76798e-07
8.8758e-05
4.61689e-07
8.87871e-05
4.45778e-07
8.88157e-05
4.29326e-07
8.88439e-05
4.1255e-07
8.88718e-05
3.95622e-07
8.88994e-05
3.78679e-07
8.89269e-05
3.61821e-07
8.89544e-05
3.4511e-07
8.89821e-05
3.28564e-07
8.90102e-05
3.12151e-07
8.90388e-05
2.95759e-07
8.90682e-05
2.79202e-07
8.90985e-05
2.62173e-07
8.91297e-05
2.44296e-07
8.91615e-05
2.25093e-07
2.04247e-07
8.91935e-05
9.07727e-05
4.46425e-08
9.07826e-05
1.36931e-07
9.08008e-05
2.22758e-07
9.08249e-05
2.95241e-07
9.08532e-05
3.5457e-07
9.08844e-05
4.01318e-07
9.09172e-05
4.36526e-07
9.09509e-05
4.61897e-07
9.0985e-05
4.7898e-07
9.1019e-05
4.89103e-07
9.10529e-05
4.93457e-07
9.10863e-05
4.93072e-07
9.11192e-05
4.88818e-07
9.11515e-05
4.81439e-07
9.11832e-05
4.7156e-07
9.12143e-05
4.59713e-07
9.12448e-05
4.4634e-07
9.12747e-05
4.31811e-07
9.1304e-05
4.16431e-07
9.13329e-05
4.00453e-07
9.13613e-05
3.8408e-07
9.13895e-05
3.67473e-07
9.14174e-05
3.50755e-07
9.14452e-05
3.34014e-07
9.1473e-05
3.17296e-07
9.1501e-05
3.00608e-07
9.15292e-05
2.83903e-07
9.15579e-05
2.67081e-07
9.15871e-05
2.49974e-07
9.1617e-05
2.32349e-07
9.16473e-05
2.13933e-07
9.1678e-05
1.94426e-07
1.73665e-07
9.17086e-05
9.33669e-05
4.23968e-08
9.33767e-05
1.2709e-07
9.33941e-05
2.05392e-07
9.34171e-05
2.72254e-07
9.34443e-05
3.27376e-07
9.34744e-05
3.71219e-07
9.35063e-05
4.04603e-07
9.35393e-05
4.28886e-07
9.35729e-05
4.45411e-07
9.36066e-05
4.55366e-07
9.36403e-05
4.59826e-07
9.36736e-05
4.59738e-07
9.37065e-05
4.55912e-07
9.37389e-05
4.49042e-07
9.37707e-05
4.39721e-07
9.3802e-05
4.28447e-07
9.38327e-05
4.15642e-07
9.38629e-05
4.01656e-07
9.38925e-05
3.86781e-07
9.39217e-05
3.71255e-07
9.39505e-05
3.55269e-07
9.3979e-05
3.38975e-07
9.40073e-05
3.22485e-07
9.40354e-05
3.05874e-07
9.40635e-05
2.89182e-07
9.40917e-05
2.72408e-07
9.41201e-05
2.55509e-07
9.41488e-05
2.38397e-07
9.41778e-05
2.2094e-07
9.42072e-05
2.02966e-07
9.42369e-05
1.84292e-07
9.42666e-05
1.64736e-07
1.44237e-07
9.4296e-05
9.60348e-05
3.96998e-08
9.60445e-05
1.17389e-07
9.60611e-05
1.88791e-07
9.60831e-05
2.50257e-07
9.61092e-05
3.01257e-07
9.61383e-05
3.42133e-07
9.61693e-05
3.73543e-07
9.62017e-05
3.96577e-07
9.62347e-05
4.12387e-07
9.6268e-05
4.22026e-07
9.63014e-05
4.2646e-07
9.63346e-05
4.26554e-07
9.63674e-05
4.23055e-07
9.63999e-05
4.1661e-07
9.64318e-05
4.07772e-07
9.64632e-05
3.97011e-07
9.64942e-05
3.84724e-07
9.65246e-05
3.71242e-07
9.65545e-05
3.56839e-07
9.6584e-05
3.41742e-07
9.66132e-05
3.26131e-07
9.6642e-05
3.10145e-07
9.66706e-05
2.93889e-07
9.6699e-05
2.77432e-07
9.67274e-05
2.60808e-07
9.67558e-05
2.44017e-07
9.67843e-05
2.27024e-07
9.68129e-05
2.09761e-07
9.68417e-05
1.92129e-07
9.68707e-05
1.74013e-07
9.68997e-05
1.55296e-07
9.69285e-05
1.35878e-07
1.15761e-07
9.6957e-05
9.87786e-05
3.67789e-08
9.87882e-05
1.07876e-07
9.88041e-05
1.72888e-07
9.88251e-05
2.29175e-07
9.88503e-05
2.76141e-07
9.88784e-05
3.14018e-07
9.89086e-05
3.43339e-07
9.89402e-05
3.64984e-07
9.89726e-05
3.79935e-07
9.90055e-05
3.89119e-07
9.90386e-05
3.93402e-07
9.90716e-05
3.93564e-07
9.91043e-05
3.90294e-07
9.91368e-05
3.84188e-07
9.91688e-05
3.75761e-07
9.92003e-05
3.65452e-07
9.92314e-05
3.53631e-07
9.92621e-05
3.40612e-07
9.92922e-05
3.26652e-07
9.9322e-05
3.11963e-07
9.93514e-05
2.96714e-07
9.93805e-05
2.81037e-07
9.94094e-05
2.65029e-07
9.94381e-05
2.48755e-07
9.94666e-05
2.32247e-07
9.94952e-05
2.15511e-07
9.95237e-05
1.98523e-07
9.95522e-05
1.81235e-07
9.95807e-05
1.63582e-07
9.96092e-05
1.45491e-07
9.96376e-05
1.26897e-07
9.96658e-05
1.07755e-07
8.8102e-08
9.96934e-05
0.000101601
3.37739e-08
0.00010161
9.85954e-08
0.000101625
1.57627e-07
0.000101646
2.08939e-07
0.00010167
2.51957e-07
0.000101697
2.86819e-07
0.000101726
3.13961e-07
0.000101757
3.34099e-07
0.000101789
3.48063e-07
0.000101822
3.56668e-07
0.000101854
3.60682e-07
0.000101887
3.60808e-07
0.00010192
3.57672e-07
0.000101952
3.51823e-07
0.000101984
3.43736e-07
0.000102016
3.33819e-07
0.000102047
3.22417e-07
0.000102078
3.09822e-07
0.000102108
2.96276e-07
0.000102138
2.81977e-07
0.000102168
2.67084e-07
0.000102197
2.51721e-07
0.000102226
2.35979e-07
0.000102255
2.19921e-07
0.000102283
2.03582e-07
0.000102312
1.86973e-07
0.00010234
1.70083e-07
0.000102369
1.52885e-07
0.000102397
1.35342e-07
0.000102425
1.17413e-07
0.000102453
9.90717e-08
0.00010248
8.03073e-08
6.11786e-08
0.000102507
0.000104503
3.07662e-08
0.000104512
8.95706e-08
0.000104527
1.42958e-07
0.000104547
1.89484e-07
0.00010457
2.28634e-07
0.000104596
2.60481e-07
0.000104625
2.85376e-07
0.000104655
3.03906e-07
0.000104686
3.16772e-07
0.000104718
3.24684e-07
0.000104751
3.28321e-07
0.000104783
3.28312e-07
0.000104816
3.25222e-07
0.000104848
3.19553e-07
0.00010488
3.1174e-07
0.000104912
3.02159e-07
0.000104943
2.91132e-07
0.000104974
2.78927e-07
0.000105004
2.65771e-07
0.000105034
2.51849e-07
0.000105064
2.3731e-07
0.000105094
2.2227e-07
0.000105123
2.06818e-07
0.000105152
1.91014e-07
0.00010518
1.74898e-07
0.000105209
1.58487e-07
0.000105237
1.41783e-07
0.000105265
1.24776e-07
0.000105293
1.07453e-07
0.000105321
8.97987e-08
0.000105348
7.18117e-08
0.000105375
5.35044e-08
3.49456e-08
0.000105401
0.000107489
2.78017e-08
0.000107498
8.0814e-08
0.000107512
1.28832e-07
0.000107531
1.70744e-07
0.000107553
2.06107e-07
0.000107579
2.34945e-07
0.000107606
2.57543e-07
0.000107636
2.74381e-07
0.000107667
2.86053e-07
0.000107698
2.93171e-07
0.00010773
2.96332e-07
0.000107762
2.96095e-07
0.000107795
2.9297e-07
0.000107827
2.87409e-07
0.000107859
2.79809e-07
0.00010789
2.70514e-07
0.000107922
2.5982e-07
0.000107953
2.47976e-07
0.000107983
2.35191e-07
0.000108013
2.21638e-07
0.000108043
2.07455e-07
0.000108073
1.92754e-07
0.000108102
1.77619e-07
0.000108131
1.62111e-07
0.00010816
1.46271e-07
0.000108188
1.30127e-07
0.000108216
1.1369e-07
0.000108244
9.69658e-08
0.000108271
7.99574e-08
0.000108298
6.26703e-08
0.000108325
4.51202e-08
0.000108351
2.73331e-08
9.38213e-09
0.000108377
0.00011056
2.49042e-08
0.000110568
7.2327e-08
0.000110582
1.15207e-07
0.0001106
1.5266e-07
0.000110622
1.84311e-07
0.000110647
2.10155e-07
0.000110674
2.30418e-07
0.000110703
2.45496e-07
0.000110733
2.55888e-07
0.000110764
2.62122e-07
0.000110795
2.64718e-07
0.000110827
2.64172e-07
0.000110859
2.60936e-07
0.000110891
2.55417e-07
0.000110923
2.47974e-07
0.000110955
2.3892e-07
0.000110986
2.28525e-07
0.000111017
2.17017e-07
0.000111048
2.04589e-07
0.000111078
1.91401e-07
0.000111108
1.77583e-07
0.000111137
1.63239e-07
0.000111166
1.48452e-07
0.000111195
1.33281e-07
0.000111224
1.17774e-07
0.000111252
1.01961e-07
0.00011128
8.58656e-08
0.000111307
6.95044e-08
0.000111334
5.28934e-08
0.000111361
3.60519e-08
0.000111387
1.90069e-08
0.000111413
1.79275e-09
-1.55172e-08
0.000111437
0.000113718
2.20843e-08
0.000113727
6.41035e-08
0.00011374
1.02042e-07
0.000113757
1.35175e-07
0.000113778
1.63187e-07
0.000113802
1.86054e-07
0.000113829
2.03953e-07
0.000113857
2.17214e-07
0.000113887
2.26254e-07
0.000113917
2.31525e-07
0.000113949
2.33479e-07
0.00011398
2.32548e-07
0.000114012
2.29133e-07
0.000114044
2.23597e-07
0.000114076
2.16262e-07
0.000114107
2.07409e-07
0.000114138
1.97283e-07
0.000114169
1.86092e-07
0.0001142
1.74012e-07
0.00011423
1.61191e-07
0.00011426
1.47749e-07
0.000114289
1.33786e-07
0.000114318
1.19379e-07
0.000114347
1.04591e-07
0.000114375
8.94685e-08
0.000114403
7.40497e-08
0.000114431
5.83641e-08
0.000114458
4.24379e-08
0.000114484
2.62964e-08
0.000114511
9.96799e-09
0.000114536
-6.51318e-09
0.000114561
-2.31085e-08
-3.97464e-08
0.000114585
0.000116967
1.93446e-08
0.000116975
5.61314e-08
0.000116988
8.92972e-08
0.000117005
1.18234e-07
0.000117025
1.42674e-07
0.000117049
1.62583e-07
0.000117075
1.781e-07
0.000117102
1.89498e-07
0.000117131
1.97123e-07
0.000117162
2.01362e-07
0.000117192
2.02603e-07
0.000117224
2.01221e-07
0.000117255
1.97568e-07
0.000117287
1.91964e-07
0.000117319
1.84693e-07
0.00011735
1.76008e-07
0.000117381
1.66128e-07
0.000117412
1.5524e-07
0.000117442
1.43504e-07
0.000117473
1.31055e-07
0.000117502
1.18006e-07
0.000117532
1.04449e-07
0.000117561
9.04585e-08
0.000117589
7.60961e-08
0.000117617
6.14114e-08
0.000117645
4.64454e-08
0.000117672
3.12333e-08
0.000117699
1.58074e-08
0.000117725
1.99778e-10
0.00011775
-1.5556e-08
0.000117775
-3.14215e-08
0.000117799
-4.73564e-08
-6.32921e-08
0.000117823
0.000120309
1.66832e-08
0.000120316
4.8395e-08
0.000120329
7.69358e-08
0.000120345
1.01784e-07
0.000120365
1.22713e-07
0.000120388
1.39684e-07
0.000120413
1.52805e-07
0.000120441
1.623e-07
0.000120469
1.6846e-07
0.000120499
1.71608e-07
0.00012053
1.72075e-07
0.000120561
1.70185e-07
0.000120592
1.66242e-07
0.000120623
1.60525e-07
0.000120655
1.53283e-07
0.000120686
1.44739e-07
0.000120717
1.35087e-07
0.000120748
1.24493e-07
0.000120778
1.13103e-07
0.000120808
1.01038e-07
0.000120838
8.84009e-08
0.000120867
7.52781e-08
0.000120896
6.1741e-08
0.000120924
4.78493e-08
0.000120952
3.36532e-08
0.000120979
1.91961e-08
0.000121006
4.51659e-09
0.000121032
-1.03491e-08
0.000121057
-2.5365e-08
0.000121082
-4.0494e-08
0.000121107
-5.56963e-08
0.00012113
-7.09316e-08
-8.61346e-08
0.000121153
0.000123746
1.40959e-08
0.000123753
4.08764e-08
0.000123765
6.49211e-08
0.000123781
8.57765e-08
0.000123801
1.03249e-07
0.000123823
1.17299e-07
0.000123848
1.28013e-07
0.000123875
1.35574e-07
0.000123903
1.40223e-07
0.000123932
1.4223e-07
0.000123962
1.41872e-07
0.000123993
1.39424e-07
0.000124024
1.35148e-07
0.000124056
1.29282e-07
0.000124087
1.2204e-07
0.000124118
1.13617e-07
0.000124149
1.04182e-07
0.000124179
9.38806e-08
0.00012421
8.28421e-08
0.00012424
7.11755e-08
0.000124269
5.89739e-08
0.000124298
4.6317e-08
0.000124326
3.32717e-08
0.000124354
1.98955e-08
0.000124382
6.23804e-09
0.000124409
-7.65641e-09
0.000124435
-2.17476e-08
0.000124461
-3.59972e-08
0.000124486
-5.03673e-08
0.00012451
-6.48198e-08
0.000124534
-7.93146e-08
0.000124556
-9.38124e-08
-1.08252e-07
0.000124579
0.000127281
1.15765e-08
0.000127288
3.35556e-08
0.0001273
5.32158e-08
0.000127316
7.01587e-08
0.000127335
8.42196e-08
0.000127357
9.53641e-08
0.000127381
1.03661e-07
0.000127407
1.09262e-07
0.000127435
1.12362e-07
0.000127464
1.13187e-07
0.000127494
1.11961e-07
0.000127525
1.08917e-07
0.000127556
1.04273e-07
0.000127587
9.82291e-08
0.000127618
9.09668e-08
0.000127649
8.26524e-08
0.000127679
7.34291e-08
0.00012771
6.34241e-08
0.00012774
5.27488e-08
0.00012777
4.14999e-08
0.000127799
2.97607e-08
0.000127828
1.76037e-08
0.000127856
5.09012e-09
0.000127883
-7.72561e-09
0.00012791
-2.07952e-08
0.000127937
-3.4075e-08
0.000127963
-4.75247e-08
0.000127988
-6.11054e-08
0.000128012
-7.4779e-08
0.000128036
-8.85075e-08
0.000128059
-1.02252e-07
0.000128081
-1.15975e-07
-1.29619e-07
0.000128102
0.000130917
9.12041e-09
0.000130924
2.64167e-08
0.000130936
4.17905e-08
0.000130951
5.48882e-08
0.00013097
6.55733e-08
0.000130991
7.38203e-08
0.000131015
7.96882e-08
0.000131041
8.33016e-08
0.000131069
8.48211e-08
0.000131098
8.44297e-08
0.000131127
8.22967e-08
0.000131158
7.86228e-08
0.000131188
7.35863e-08
0.000131219
6.73462e-08
0.00013125
6.00507e-08
0.000131281
5.18407e-08
0.000131311
4.28329e-08
0.000131342
3.31345e-08
0.000131372
2.28401e-08
0.000131401
1.20339e-08
0.00013143
7.86583e-10
0.000131459
-1.08327e-08
0.000131486
-2.27729e-08
0.000131514
-3.49818e-08
0.00013154
-4.74143e-08
0.000131566
-6.00284e-08
0.000131591
-7.27849e-08
0.000131616
-8.56458e-08
0.00013164
-9.8574e-08
0.000131663
-1.11533e-07
0.000131685
-1.24485e-07
0.000131706
-1.37395e-07
-1.50211e-07
0.000131727
0.000134658
6.71603e-09
0.000134665
1.94319e-08
0.000134676
3.05989e-08
0.000134691
3.9902e-08
0.000134709
4.72352e-08
0.00013473
5.25881e-08
0.000134754
5.60153e-08
0.00013478
5.7621e-08
0.000134807
5.75349e-08
0.000134835
5.5907e-08
0.000134865
5.28396e-08
0.000134895
4.8514e-08
0.000134926
4.30661e-08
0.000134956
3.66167e-08
0.000134987
2.92829e-08
0.000135018
2.11829e-08
0.000135048
1.23978e-08
0.000135078
3.02282e-09
0.000135108
-6.8699e-09
0.000135137
-1.72056e-08
0.000135166
-2.79239e-08
0.000135194
-3.89688e-08
0.000135222
-5.02917e-08
0.000135248
-6.18472e-08
0.000135275
-7.35934e-08
0.0001353
-8.54914e-08
0.000135325
-9.7504e-08
0.000135349
-1.09595e-07
0.000135372
-1.2173e-07
0.000135394
-1.33874e-07
0.000135416
-1.45991e-07
0.000135436
-1.5805e-07
-1.70002e-07
0.000135456
0.000138505
4.37904e-09
0.000138511
1.26194e-08
0.000138522
1.96514e-08
0.000138537
2.51914e-08
0.000138555
2.91718e-08
0.000138576
3.16088e-08
0.0001386
3.25636e-08
0.000138625
3.21286e-08
0.000138652
3.04096e-08
0.000138681
2.75157e-08
0.00013871
2.34719e-08
0.00013874
1.84956e-08
0.00013877
1.26388e-08
0.000138801
5.98435e-09
0.000138832
-1.39469e-09
0.000138862
-9.35746e-09
0.000138893
-1.78995e-08
0.000138922
-2.69279e-08
0.000138952
-3.63854e-08
0.000138981
-4.62145e-08
0.000139009
-5.63652e-08
0.000139037
-6.67911e-08
0.000139064
-7.74502e-08
0.000139091
-8.83031e-08
0.000139117
-9.93125e-08
0.000139142
-1.10443e-07
0.000139166
-1.21661e-07
0.000139189
-1.32933e-07
0.000139212
-1.44227e-07
0.000139233
-1.5551e-07
0.000139254
-1.66752e-07
0.000139274
-1.77922e-07
-1.88976e-07
0.000139293
0.000142462
2.03301e-09
0.000142468
5.8776e-09
0.000142479
8.82816e-09
0.000142494
1.06332e-08
0.000142512
1.12701e-08
0.000142532
1.0787e-08
0.000142556
9.25411e-09
0.000142581
6.75129e-09
0.000142608
3.38963e-09
0.000142636
-6.79926e-10
0.000142666
-5.79653e-09
0.000142696
-1.14392e-08
0.000142726
-1.77215e-08
0.000142756
-2.45744e-08
0.000142787
-3.19515e-08
0.000142817
-3.97941e-08
0.000142848
-4.80682e-08
0.000142877
-5.67215e-08
0.000142907
-6.57105e-08
0.000142936
-7.49947e-08
0.000142964
-8.45355e-08
0.000142991
-9.42967e-08
0.000143018
-1.04244e-07
0.000143044
-1.14344e-07
0.000143069
-1.24565e-07
0.000143094
-1.34877e-07
0.000143117
-1.4525e-07
0.00014314
-1.55653e-07
0.000143162
-1.66057e-07
0.000143183
-1.76434e-07
0.000143203
-1.86755e-07
0.000143222
-1.96993e-07
-2.07108e-07
0.00014324
0.000146531
-9.41583e-11
0.000146538
-5.28029e-10
0.000146548
-1.64437e-09
0.000146563
-3.656e-09
0.00014658
-6.48225e-09
0.000146601
-9.99951e-09
0.000146625
-1.41038e-08
0.00014665
-1.87146e-08
0.000146677
-2.37777e-08
0.000146706
-2.92597e-08
0.000146735
-3.52077e-08
0.000146765
-4.14992e-08
0.000146796
-4.81616e-08
0.000146826
-5.51819e-08
0.000146857
-6.25398e-08
0.000146887
-7.02091e-08
0.000146917
-7.81707e-08
0.000146947
-8.64005e-08
0.000146976
-9.48726e-08
0.000147005
-1.03561e-07
0.000147033
-1.1244e-07
0.00014706
-1.21483e-07
0.000147086
-1.30664e-07
0.000147112
-1.39957e-07
0.000147137
-1.49336e-07
0.000147161
-1.58776e-07
0.000147184
-1.6825e-07
0.000147206
-1.77733e-07
0.000147227
-1.87199e-07
0.000147247
-1.96624e-07
0.000147266
-2.05982e-07
0.000147284
-2.15251e-07
-2.24393e-07
0.000147302
0.000150718
-2.60065e-09
0.000150725
-7.19197e-09
0.000150735
-1.22383e-08
0.00015075
-1.79336e-08
0.000150767
-2.41341e-08
0.000150788
-3.06515e-08
0.000150811
-3.73373e-08
0.000150837
-4.40962e-08
0.000150864
-5.08888e-08
0.000150892
-5.77038e-08
0.000150922
-6.45991e-08
0.000150952
-7.15662e-08
0.000150982
-7.86285e-08
0.000151013
-8.5813e-08
0.000151043
-9.31356e-08
0.000151074
-1.00604e-07
0.000151104
-1.08225e-07
0.000151133
-1.15995e-07
0.000151162
-1.23909e-07
0.000151191
-1.31955e-07
0.000151218
-1.40122e-07
0.000151245
-1.48394e-07
0.000151271
-1.56755e-07
0.000151297
-1.65185e-07
0.000151321
-1.73666e-07
0.000151344
-1.82177e-07
0.000151367
-1.90699e-07
0.000151388
-1.99208e-07
0.000151409
-2.07685e-07
0.000151428
-2.16107e-07
0.000151447
-2.24453e-07
0.000151464
-2.32702e-07
-2.40823e-07
0.000151481
0.000155023
-3.8543e-09
0.000155028
-1.25176e-08
0.000155038
-2.19195e-08
0.000155052
-3.19754e-08
0.00015507
-4.21406e-08
0.000155091
-5.20443e-08
0.000155115
-6.14989e-08
0.000155142
-7.0448e-08
0.00015517
-7.89198e-08
0.000155199
-8.69807e-08
0.000155229
-9.47266e-08
0.00015526
-1.02228e-07
0.000155291
-1.09557e-07
0.000155322
-1.16785e-07
0.000155353
-1.23964e-07
0.000155383
-1.31133e-07
0.000155413
-1.38321e-07
0.000155443
-1.45548e-07
0.000155472
-1.52826e-07
0.0001555
-1.60157e-07
0.000155527
-1.67543e-07
0.000155554
-1.74979e-07
0.00015558
-1.82455e-07
0.000155604
-1.89962e-07
0.000155628
-1.97487e-07
0.000155651
-2.05014e-07
0.000155673
-2.12529e-07
0.000155694
-2.20014e-07
0.000155714
-2.27452e-07
0.000155732
-2.34826e-07
0.00015575
-2.42118e-07
0.000155767
-2.49312e-07
-2.5638e-07
0.000155782
0.000159455
-7.81013e-09
0.000159462
-1.96961e-08
0.000159472
-3.23205e-08
0.000159486
-4.56459e-08
0.000159503
-5.91909e-08
0.000159523
-7.23467e-08
0.000159546
-8.46916e-08
0.000159572
-9.60571e-08
0.000159599
-1.06451e-07
0.000159628
-1.15967e-07
0.000159658
-1.24742e-07
0.000159689
-1.3291e-07
0.00015972
-1.406e-07
0.000159751
-1.47926e-07
0.000159782
-1.54984e-07
0.000159813
-1.61849e-07
0.000159843
-1.68583e-07
0.000159873
-1.7523e-07
0.000159902
-1.81822e-07
0.00015993
-1.88383e-07
0.000159958
-1.94926e-07
0.000159984
-2.0146e-07
0.00016001
-2.07986e-07
0.000160034
-2.14501e-07
0.000160058
-2.21001e-07
0.00016008
-2.27478e-07
0.000160102
-2.3392e-07
0.000160122
-2.40317e-07
0.000160141
-2.46654e-07
0.000160159
-2.5292e-07
0.000160176
-2.59099e-07
0.000160192
-2.65177e-07
-2.71133e-07
0.000160207
0.000164003
-5.18779e-09
0.000164005
-2.15844e-08
0.000164014
-4.06909e-08
0.000164029
-6.04743e-08
0.000164049
-7.92866e-08
0.000164073
-9.63711e-08
0.0001641
-1.11551e-07
0.000164128
-1.24932e-07
0.000164159
-1.36722e-07
0.00016419
-1.47153e-07
0.000164222
-1.56462e-07
0.000164254
-1.64863e-07
0.000164286
-1.72546e-07
0.000164317
-1.79667e-07
0.000164349
-1.86358e-07
0.00016438
-1.92721e-07
0.00016441
-1.98839e-07
0.000164439
-2.04774e-07
0.000164468
-2.10574e-07
0.000164496
-2.16273e-07
0.000164523
-2.21896e-07
0.000164549
-2.2746e-07
0.000164574
-2.32974e-07
0.000164598
-2.38443e-07
0.000164621
-2.43868e-07
0.000164642
-2.49246e-07
0.000164663
-2.54572e-07
0.000164683
-2.59839e-07
0.000164701
-2.65037e-07
0.000164718
-2.70158e-07
0.000164734
-2.75191e-07
0.000164749
-2.80127e-07
-2.84945e-07
0.000164763
0.000168701
-1.46884e-08
0.000168709
-2.9751e-08
0.000168717
-4.86026e-08
0.000168727
-7.03223e-08
0.000168741
-9.32251e-08
0.00016876
-1.1495e-07
0.000168782
-1.34272e-07
0.000168808
-1.50974e-07
0.000168837
-1.65277e-07
0.000168867
-1.7751e-07
0.000168899
-1.88017e-07
0.000168931
-1.97121e-07
0.000168964
-2.05106e-07
0.000168996
-2.12209e-07
0.000169029
-2.18626e-07
0.00016906
-2.24511e-07
0.000169092
-2.29987e-07
0.000169122
-2.35152e-07
0.000169151
-2.40076e-07
0.00016918
-2.44817e-07
0.000169207
-2.49416e-07
0.000169234
-2.53902e-07
0.000169259
-2.58296e-07
0.000169283
-2.62612e-07
0.000169306
-2.66858e-07
0.000169328
-2.71038e-07
0.000169349
-2.75152e-07
0.000169368
-2.79198e-07
0.000169386
-2.83172e-07
0.000169403
-2.87067e-07
0.000169419
-2.90878e-07
0.000169433
-2.94596e-07
-2.98207e-07
0.000169447
0.000173491
5.4923e-09
0.000173485
-2.34232e-08
0.000173495
-5.86885e-08
0.000173517
-9.2157e-08
0.000173545
-1.21655e-07
0.000173577
-1.46507e-07
0.00017361
-1.67358e-07
0.000173644
-1.84789e-07
0.000173678
-1.99354e-07
0.000173712
-2.11548e-07
0.000173746
-2.21817e-07
0.000173779
-2.30541e-07
0.000173812
-2.38037e-07
0.000173844
-2.44558e-07
0.000173876
-2.50309e-07
0.000173907
-2.55453e-07
0.000173937
-2.60121e-07
0.000173966
-2.64413e-07
0.000173995
-2.68409e-07
0.000174022
-2.72169e-07
0.000174048
-2.75742e-07
0.000174074
-2.79162e-07
0.000174098
-2.82456e-07
0.000174121
-2.85641e-07
0.000174143
-2.88733e-07
0.000174163
-2.91738e-07
0.000174183
-2.94662e-07
0.000174201
-2.97506e-07
0.000174218
-3.0027e-07
0.000174234
-3.02953e-07
0.000174249
-3.05549e-07
0.000174262
-3.08056e-07
-3.10461e-07
0.000174274
0.000178498
-2.40745e-08
0.000178501
-2.62191e-08
0.00017849
-4.78898e-08
0.000178481
-8.34418e-08
0.000178484
-1.24293e-07
0.000178498
-1.60371e-07
0.00017852
-1.89686e-07
0.000178548
-2.12889e-07
0.00017858
-2.31315e-07
0.000178615
-2.45965e-07
0.000178651
-2.57638e-07
0.000178687
-2.66999e-07
0.000178724
-2.74573e-07
0.00017876
-2.80771e-07
0.000178795
-2.85909e-07
0.00017883
-2.90232e-07
0.000178864
-2.93927e-07
0.000178897
-2.97136e-07
0.000178928
-2.99969e-07
0.000178959
-3.02508e-07
0.000178988
-3.04816e-07
0.000179015
-3.06941e-07
0.000179042
-3.08916e-07
0.000179067
-3.10769e-07
0.000179091
-3.12517e-07
0.000179113
-3.14174e-07
0.000179134
-3.15749e-07
0.000179154
-3.17247e-07
0.000179172
-3.18672e-07
0.000179189
-3.20025e-07
0.000179205
-3.21306e-07
0.00017922
-3.22515e-07
-3.23644e-07
0.000179233
0.000183487
5.67699e-08
0.000183465
-4.23897e-09
0.000183501
-8.38282e-08
0.000183553
-1.36246e-07
0.000183605
-1.76056e-07
0.000183652
-2.06998e-07
0.000183694
-2.31533e-07
0.000183732
-2.51512e-07
0.000183769
-2.6766e-07
0.000183803
-2.80662e-07
0.000183837
-2.91174e-07
0.000183869
-2.99705e-07
0.000183902
-3.06647e-07
0.000183933
-3.12314e-07
0.000183964
-3.16959e-07
0.000183995
-3.2078e-07
0.000184025
-3.23935e-07
0.000184054
-3.26549e-07
0.000184083
-3.28721e-07
0.000184111
-3.30529e-07
0.000184138
-3.32037e-07
0.000184164
-3.33295e-07
0.00018419
-3.3434e-07
0.000184214
-3.35205e-07
0.000184238
-3.35914e-07
0.00018426
-3.36487e-07
0.000184281
-3.36938e-07
0.000184301
-3.37279e-07
0.00018432
-3.37517e-07
0.000184338
-3.37658e-07
0.000184354
-3.37706e-07
0.000184369
-3.37661e-07
-3.37523e-07
0.000184383
0.000188861
7.76226e-09
0.000188796
6.05275e-08
0.000188711
1.30557e-09
0.000188648
-7.28686e-08
0.000188629
-1.57863e-07
0.000188643
-2.20984e-07
0.000188676
-2.64364e-07
0.00018872
-2.95053e-07
0.000188769
-3.17263e-07
0.000188822
-3.33586e-07
0.000188877
-3.45667e-07
0.000188932
-3.5463e-07
0.000188986
-3.61272e-07
0.00018904
-3.66162e-07
0.000189093
-3.69713e-07
0.000189144
-3.72228e-07
0.000189194
-3.73931e-07
0.000189243
-3.74993e-07
0.00018929