/*--------------------------------*- C++ -*----------------------------------*\
| =========                 |                                                 |
| \\      /  F ield         | OpenFOAM: The Open Source CFD Toolbox           |
|  \\    /   O peration     | Version:  2.1.1                                 |
|   \\  /    A nd           | Web:      www.OpenFOAM.org                      |
|    \\/     M anipulation  |                                                 |
\*---------------------------------------------------------------------------*/
FoamFile
{
    version     2.0;
    format      ascii;
    class       volVectorField;
    location    "0.18";
    object      U;
}
// * * * * * * * * * * * * * * * * * * * * * * * * * * * * * * * * * * * * * //

dimensions      [0 1 -1 0 0 0 0];

internalField   nonuniform List<vector> 
6820
(
(8.34337 -0.360076 0)
(8.40109 -0.247151 0)
(8.35608 -0.115291 0)
(8.24776 -0.0365549 0)
(8.1193 0.00601149 0)
(7.98584 0.0278744 0)
(7.8537 0.0386454 0)
(7.72627 0.0433464 0)
(7.60496 0.0446188 0)
(7.49031 0.0439196 0)
(7.38256 0.0420906 0)
(7.28173 0.0396361 0)
(7.1877 0.0368673 0)
(7.10027 0.0339801 0)
(7.01915 0.031098 0)
(6.94402 0.0282987 0)
(6.87453 0.0256296 0)
(6.81032 0.0231176 0)
(6.75103 0.0207764 0)
(6.69629 0.0186107 0)
(6.64578 0.0166194 0)
(6.59914 0.0147986 0)
(6.55605 0.0131432 0)
(6.51621 0.0116491 0)
(6.4793 0.0103151 0)
(6.44501 0.00914787 0)
(6.41302 0.00816646 0)
(6.38288 0.00742383 0)
(6.35412 0.00702553 0)
(6.32576 0.00724139 0)
(6.29631 0.00887779 0)
(6.26254 0.0128225 0)
(6.21556 0.0292401 0)
(8.32138 0.166252 0)
(8.28709 0.190006 0)
(8.28543 0.132161 0)
(8.31739 0.095865 0)
(8.36168 0.07503 0)
(8.40173 0.0623689 0)
(8.4328 0.0548871 0)
(8.45488 0.050365 0)
(8.46879 0.0474614 0)
(8.47557 0.0454628 0)
(8.47624 0.0439743 0)
(8.47175 0.0427579 0)
(8.46292 0.0416749 0)
(8.45048 0.040648 0)
(8.43507 0.0396367 0)
(8.41724 0.0386223 0)
(8.39749 0.0375987 0)
(8.37621 0.0365668 0)
(8.35378 0.0355314 0)
(8.33049 0.0344992 0)
(8.3066 0.0334776 0)
(8.28232 0.0324752 0)
(8.25784 0.0315016 0)
(8.23331 0.0305686 0)
(8.20884 0.0296931 0)
(8.18454 0.0288997 0)
(8.1605 0.028232 0)
(8.13675 0.0277654 0)
(8.11353 0.0276416 0)
(8.09059 0.028187 0)
(8.07 0.0298515 0)
(8.04935 0.034601 0)
(8.04853 0.0426214 0)
(8.3225 -0.0608837 0)
(8.31397 -0.0832757 0)
(8.33049 -0.0540871 0)
(8.3443 -0.0202863 0)
(8.35316 0.00242802 0)
(8.36216 0.0165585 0)
(8.37187 0.0258018 0)
(8.38188 0.0320234 0)
(8.3917 0.0362468 0)
(8.40094 0.0391172 0)
(8.40936 0.0410292 0)
(8.41683 0.0422271 0)
(8.42329 0.0428846 0)
(8.42872 0.0431328 0)
(8.43314 0.0430712 0)
(8.43659 0.0427761 0)
(8.43912 0.0423067 0)
(8.4408 0.0417098 0)
(8.44169 0.0410222 0)
(8.44186 0.0402733 0)
(8.44137 0.0394873 0)
(8.44029 0.0386844 0)
(8.43868 0.0378829 0)
(8.43659 0.037101 0)
(8.43407 0.03636 0)
(8.43117 0.0356854 0)
(8.42793 0.0351215 0)
(8.4244 0.0347145 0)
(8.42067 0.0346083 0)
(8.4168 0.034788 0)
(8.41327 0.0359203 0)
(8.4101 0.0363454 0)
(8.40861 0.039765 0)
(8.33365 0.014567 0)
(8.32976 0.0477105 0)
(8.32736 0.05399 0)
(8.32868 0.0465798 0)
(8.33455 0.0410871 0)
(8.34205 0.0385896 0)
(8.34952 0.037785 0)
(8.35672 0.0377457 0)
(8.36368 0.0379705 0)
(8.37036 0.0382389 0)
(8.37674 0.0384525 0)
(8.38281 0.0385701 0)
(8.38854 0.038582 0)
(8.39391 0.0384915 0)
(8.39892 0.038307 0)
(8.40357 0.0380394 0)
(8.40786 0.0377012 0)
(8.4118 0.0373046 0)
(8.4154 0.036862 0)
(8.4187 0.0363848 0)
(8.42169 0.0358844 0)
(8.4244 0.0353721 0)
(8.42686 0.03486 0)
(8.42907 0.0343623 0)
(8.43106 0.0338971 0)
(8.43286 0.0334881 0)
(8.43448 0.0331724 0)
(8.43597 0.0329946 0)
(8.43742 0.0330396 0)
(8.43889 0.0333553 0)
(8.44081 0.0341172 0)
(8.44327 0.035067 0)
(8.44753 0.0365577 0)
(8.3302 -0.00530626 0)
(8.32721 -0.00749578 0)
(8.33136 -0.00242893 0)
(8.33602 0.00806681 0)
(8.34007 0.0172484 0)
(8.34422 0.0234721 0)
(8.3486 0.0276627 0)
(8.35322 0.0306322 0)
(8.358 0.0327819 0)
(8.36283 0.0343438 0)
(8.36762 0.0354632 0)
(8.37232 0.0362344 0)
(8.3769 0.036724 0)
(8.38133 0.0369834 0)
(8.3856 0.0370551 0)
(8.38969 0.0369746 0)
(8.39361 0.0367722 0)
(8.39736 0.0364734 0)
(8.40094 0.0361 0)
(8.40436 0.0356709 0)
(8.40762 0.0352025 0)
(8.41073 0.03471 0)
(8.4137 0.0342081 0)
(8.41655 0.0337124 0)
(8.41928 0.0332409 0)
(8.42192 0.0328146 0)
(8.42449 0.0324633 0)
(8.42703 0.0322153 0)
(8.4296 0.0321243 0)
(8.43231 0.0321791 0)
(8.43538 0.0324678 0)
(8.43894 0.0325896 0)
(8.44334 0.032714 0)
(8.33238 0.00229284 0)
(8.33117 0.0133268 0)
(8.33278 0.0204244 0)
(8.33546 0.0238274 0)
(8.33889 0.0259913 0)
(8.34291 0.0278088 0)
(8.34711 0.0294945 0)
(8.35132 0.0309971 0)
(8.35552 0.0322362 0)
(8.3597 0.0332009 0)
(8.36382 0.0339133 0)
(8.36787 0.0344014 0)
(8.37184 0.0346938 0)
(8.37572 0.0348195 0)
(8.37949 0.0348053 0)
(8.38315 0.0346751 0)
(8.3867 0.0344499 0)
(8.39014 0.0341482 0)
(8.39347 0.0337862 0)
(8.3967 0.0333781 0)
(8.39983 0.032937 0)
(8.40287 0.0324751 0)
(8.40583 0.0320046 0)
(8.40872 0.0315382 0)
(8.41154 0.0310904 0)
(8.41433 0.0306773 0)
(8.41709 0.0303191 0)
(8.41988 0.0300326 0)
(8.42275 0.0298405 0)
(8.42577 0.029722 0)
(8.42911 0.0296711 0)
(8.43283 0.0294568 0)
(8.43707 0.02902 0)
(8.33232 0.000882304 0)
(8.33151 0.00581206 0)
(8.33339 0.0108037 0)
(8.33641 0.0156174 0)
(8.33979 0.0200157 0)
(8.34341 0.0235384 0)
(8.34712 0.0262324 0)
(8.35086 0.0282928 0)
(8.35461 0.0298562 0)
(8.35836 0.0310251 0)
(8.36207 0.0318765 0)
(8.36572 0.0324665 0)
(8.36931 0.0328382 0)
(8.37283 0.0330279 0)
(8.37627 0.0330659 0)
(8.37962 0.0329784 0)
(8.38289 0.0327877 0)
(8.38608 0.0325132 0)
(8.38919 0.0321719 0)
(8.39223 0.0317784 0)
(8.39519 0.0313461 0)
(8.3981 0.0308869 0)
(8.40095 0.0304126 0)
(8.40376 0.0299344 0)
(8.40654 0.0294645 0)
(8.4093 0.0290145 0)
(8.41207 0.028597 0)
(8.41489 0.0282185 0)
(8.41781 0.0278827 0)
(8.42088 0.0275591 0)
(8.42419 0.0272103 0)
(8.42778 0.0266723 0)
(8.43166 0.0258483 0)
(8.33272 0.00171979 0)
(8.33255 0.00731946 0)
(8.33415 0.0126313 0)
(8.33672 0.0169136 0)
(8.33972 0.0203807 0)
(8.34307 0.0231206 0)
(8.34659 0.0252973 0)
(8.35016 0.027044 0)
(8.35373 0.0284208 0)
(8.35728 0.029474 0)
(8.36078 0.0302499 0)
(8.36423 0.0307888 0)
(8.3676 0.0311254 0)
(8.37091 0.0312907 0)
(8.37415 0.0313121 0)
(8.37731 0.0312133 0)
(8.3804 0.0310148 0)
(8.38342 0.0307346 0)
(8.38637 0.0303882 0)
(8.38926 0.0299893 0)
(8.3921 0.02955 0)
(8.39489 0.0290809 0)
(8.39764 0.0285923 0)
(8.40037 0.0280934 0)
(8.40307 0.0275932 0)
(8.40578 0.0270992 0)
(8.40852 0.0266172 0)
(8.4113 0.0261465 0)
(8.41418 0.0256792 0)
(8.41719 0.0251826 0)
(8.42039 0.0246106 0)
(8.42378 0.0238519 0)
(8.42734 0.0228228 0)
(8.33284 0.00180068 0)
(8.33293 0.00649719 0)
(8.33441 0.0110342 0)
(8.3368 0.0149465 0)
(8.33964 0.0183345 0)
(8.3428 0.0211503 0)
(8.34612 0.0234206 0)
(8.3495 0.025229 0)
(8.35291 0.0266413 0)
(8.35629 0.0277157 0)
(8.35965 0.0285058 0)
(8.36295 0.0290559 0)
(8.36619 0.0294028 0)
(8.36936 0.0295778 0)
(8.37246 0.0296081 0)
(8.3755 0.0295169 0)
(8.37847 0.0293243 0)
(8.38137 0.0290477 0)
(8.38422 0.0287021 0)
(8.38701 0.0283004 0)
(8.38976 0.027854 0)
(8.39246 0.0273729 0)
(8.39514 0.0268657 0)
(8.39779 0.0263402 0)
(8.40044 0.0258026 0)
(8.40309 0.0252571 0)
(8.40577 0.0247048 0)
(8.4085 0.0241401 0)
(8.41131 0.0235496 0)
(8.41423 0.0229022 0)
(8.41728 0.0221543 0)
(8.42046 0.0212298 0)
(8.42373 0.0200665 0)
(8.33294 0.00184413 0)
(8.33322 0.00617907 0)
(8.33461 0.0104154 0)
(8.33679 0.0141061 0)
(8.33942 0.0172673 0)
(8.34236 0.0198882 0)
(8.34549 0.0220095 0)
(8.34872 0.0237107 0)
(8.35198 0.025052 0)
(8.35524 0.0260819 0)
(8.35848 0.0268444 0)
(8.36167 0.0273779 0)
(8.36481 0.0277153 0)
(8.36789 0.0278851 0)
(8.3709 0.0279126 0)
(8.37385 0.0278196 0)
(8.37674 0.0276251 0)
(8.37957 0.0273454 0)
(8.38234 0.0269946 0)
(8.38506 0.026585 0)
(8.38774 0.0261268 0)
(8.39039 0.025629 0)
(8.393 0.025099 0)
(8.3956 0.0245428 0)
(8.3982 0.0239645 0)
(8.4008 0.0233656 0)
(8.40343 0.0227439 0)
(8.4061 0.0220915 0)
(8.40884 0.021393 0)
(8.41165 0.020621 0)
(8.41455 0.0197392 0)
(8.41753 0.0186956 0)
(8.42056 0.0174491 0)
(8.33299 0.00180913 0)
(8.33337 0.00575721 0)
(8.33467 0.00959605 0)
(8.33668 0.0129906 0)
(8.33912 0.0159325 0)
(8.34188 0.0184138 0)
(8.34484 0.0204523 0)
(8.34791 0.0221004 0)
(8.35103 0.0234063 0)
(8.35416 0.0244126 0)
(8.35729 0.0251596 0)
(8.36038 0.0256836 0)
(8.36343 0.0260157 0)
(8.36642 0.0261831 0)
(8.36936 0.0262098 0)
(8.37224 0.0261165 0)
(8.37507 0.025921 0)
(8.37783 0.0256388 0)
(8.38055 0.0252832 0)
(8.38322 0.0248654 0)
(8.38585 0.0243951 0)
(8.38845 0.02388 0)
(8.39102 0.0233264 0)
(8.39358 0.022739 0)
(8.39613 0.02212 0)
(8.39869 0.0214692 0)
(8.40126 0.0207826 0)
(8.40387 0.0200514 0)
(8.40653 0.0192605 0)
(8.40924 0.0183873 0)
(8.412 0.0174032 0)
(8.41481 0.0162733 0)
(8.41763 0.0149719 0)
(8.33301 0.00173292 0)
(8.33346 0.00535814 0)
(8.33467 0.00887081 0)
(8.33653 0.0120154 0)
(8.3388 0.0147567 0)
(8.34138 0.0170849 0)
(8.34417 0.0190108 0)
(8.34708 0.020575 0)
(8.35006 0.0218197 0)
(8.35307 0.0227827 0)
(8.35609 0.0234998 0)
(8.35908 0.0240035 0)
(8.36204 0.0243221 0)
(8.36495 0.0244807 0)
(8.36782 0.0245013 0)
(8.37064 0.0244032 0)
(8.3734 0.0242031 0)
(8.37612 0.0239153 0)
(8.37879 0.0235522 0)
(8.38141 0.0231241 0)
(8.384 0.0226396 0)
(8.38655 0.0221057 0)
(8.38909 0.0215276 0)
(8.3916 0.0209087 0)
(8.39411 0.02025 0)
(8.39662 0.0195502 0)
(8.39914 0.0188045 0)
(8.40169 0.0180042 0)
(8.40426 0.017136 0)
(8.40687 0.016182 0)
(8.40951 0.0151207 0)
(8.41216 0.0139288 0)
(8.4148 0.0125916 0)
(8.33303 0.00163255 0)
(8.33349 0.00495942 0)
(8.33464 0.0081643 0)
(8.33635 0.0110575 0)
(8.33847 0.013595 0)
(8.34088 0.0157666 0)
(8.34351 0.0175781 0)
(8.34627 0.0190583 0)
(8.34912 0.0202413 0)
(8.35201 0.0211596 0)
(8.35491 0.0218443 0)
(8.3578 0.0223246 0)
(8.36067 0.0226264 0)
(8.3635 0.0227729 0)
(8.36629 0.0227844 0)
(8.36905 0.0226788 0)
(8.37175 0.0224716 0)
(8.37441 0.0221761 0)
(8.37703 0.0218036 0)
(8.37961 0.0213637 0)
(8.38215 0.0208641 0)
(8.38467 0.0203108 0)
(8.38716 0.0197081 0)
(8.38963 0.0190585 0)
(8.39209 0.0183624 0)
(8.39455 0.0176177 0)
(8.39702 0.0168196 0)
(8.3995 0.0159603 0)
(8.40199 0.0150288 0)
(8.4045 0.014011 0)
(8.40701 0.0128918 0)
(8.40953 0.0116559 0)
(8.41202 0.0102956 0)
(8.33304 0.00151963 0)
(8.3335 0.00456865 0)
(8.33458 0.00749139 0)
(8.33617 0.0101469 0)
(8.33814 0.0124888 0)
(8.3404 0.0145046 0)
(8.34288 0.0161962 0)
(8.3455 0.0175845 0)
(8.34821 0.0186972 0)
(8.35098 0.0195622 0)
(8.35376 0.0202069 0)
(8.35656 0.0206571 0)
(8.35933 0.0209363 0)
(8.36208 0.0210656 0)
(8.3648 0.0210636 0)
(8.36748 0.0209467 0)
(8.37013 0.0207291 0)
(8.37273 0.0204231 0)
(8.3753 0.020039 0)
(8.37783 0.0195855 0)
(8.38032 0.0190694 0)
(8.38279 0.018496 0)
(8.38523 0.0178689 0)
(8.38766 0.0171899 0)
(8.39007 0.016459 0)
(8.39248 0.0156738 0)
(8.39488 0.0148301 0)
(8.39729 0.0139212 0)
(8.39969 0.0129383 0)
(8.4021 0.0118711 0)
(8.40451 0.010709 0)
(8.40689 0.00944222 0)
(8.40925 0.00806774 0)
(8.33304 0.00140115 0)
(8.33349 0.00418664 0)
(8.3345 0.00684547 0)
(8.33599 0.0092718 0)
(8.33783 0.0114214 0)
(8.33995 0.0132803 0)
(8.34229 0.0148481 0)
(8.34477 0.0161396 0)
(8.34735 0.0171771 0)
(8.35 0.0179838 0)
(8.35268 0.0185836 0)
(8.35537 0.0189992 0)
(8.35805 0.0192515 0)
(8.36072 0.0193596 0)
(8.36336 0.0193404 0)
(8.36597 0.0192089 0)
(8.36855 0.0189781 0)
(8.37109 0.0186592 0)
(8.3736 0.0182616 0)
(8.37607 0.017793 0)
(8.37852 0.0172596 0)
(8.38094 0.016666 0)
(8.38333 0.0160153 0)
(8.3857 0.0153087 0)
(8.38806 0.014546 0)
(8.3904 0.0137252 0)
(8.39274 0.0128426 0)
(8.39507 0.0118927 0)
(8.39739 0.010869 0)
(8.3997 0.00976402 0)
(8.402 0.00857072 0)
(8.40426 0.00728318 0)
(8.4065 0.00590114 0)
(8.33304 0.0012813 0)
(8.33347 0.00381481 0)
(8.33442 0.00622526 0)
(8.33581 0.00843156 0)
(8.33753 0.0103936 0)
(8.33952 0.0120966 0)
(8.34173 0.0135382 0)
(8.34408 0.0147288 0)
(8.34654 0.0156859 0)
(8.34907 0.0164291 0)
(8.35164 0.0169786 0)
(8.35423 0.0173545 0)
(8.35683 0.0175753 0)
(8.35941 0.017658 0)
(8.36197 0.017618 0)
(8.36451 0.0174687 0)
(8.36702 0.017222 0)
(8.3695 0.0168879 0)
(8.37195 0.016475 0)
(8.37437 0.0159902 0)
(8.37676 0.015439 0)
(8.37912 0.0148254 0)
(8.38145 0.014152 0)
(8.38377 0.0134199 0)
(8.38606 0.012629 0)
(8.38834 0.0117773 0)
(8.39061 0.0108621 0)
(8.39286 0.00987916 0)
(8.39509 0.00882366 0)
(8.3973 0.00769058 0)
(8.39949 0.00647547 0)
(8.40165 0.00517496 0)
(8.40377 0.00379051 0)
(8.33304 0.00116245 0)
(8.33345 0.00345381 0)
(8.33434 0.00562851 0)
(8.33564 0.00762283 0)
(8.33725 0.0094014 0)
(8.33913 0.0109492 0)
(8.34121 0.0122627 0)
(8.34344 0.013349 0)
(8.34579 0.0142215 0)
(8.34821 0.0148965 0)
(8.35067 0.0153913 0)
(8.35317 0.0157232 0)
(8.35567 0.0159084 0)
(8.35817 0.0159621 0)
(8.36065 0.015898 0)
(8.36312 0.0157281 0)
(8.36556 0.015463 0)
(8.36797 0.0151119 0)
(8.37036 0.0146824 0)
(8.37272 0.0141806 0)
(8.37504 0.0136114 0)
(8.37735 0.0129785 0)
(8.37962 0.012284 0)
(8.38187 0.011529 0)
(8.3841 0.0107133 0)
(8.38631 0.00983568 0)
(8.3885 0.00889387 0)
(8.39067 0.00788493 0)
(8.39281 0.00680556 0)
(8.39493 0.00565252 0)
(8.39702 0.00442324 0)
(8.39907 0.0031161 0)
(8.40108 0.00173354 0)
(8.33304 0.00104592 0)
(8.33343 0.00310385 0)
(8.33427 0.00505342 0)
(8.33548 0.00684314 0)
(8.337 0.00844232 0)
(8.33876 0.00983625 0)
(8.34073 0.0110205 0)
(8.34285 0.0119996 0)
(8.34508 0.0127839 0)
(8.3474 0.0133868 0)
(8.34976 0.0138228 0)
(8.35216 0.0141067 0)
(8.35458 0.0142526 0)
(8.35699 0.0142739 0)
(8.3594 0.0141826 0)
(8.36179 0.0139895 0)
(8.36416 0.0137041 0)
(8.36651 0.0133344 0)
(8.36883 0.0128872 0)
(8.37112 0.012368 0)
(8.37339 0.0117812 0)
(8.37563 0.0111299 0)
(8.37784 0.0104161 0)
(8.38002 0.00964092 0)
(8.38218 0.00880425 0)
(8.38432 0.0079053 0)
(8.38643 0.00694256 0)
(8.38851 0.00591407 0)
(8.39057 0.00481774 0)
(8.39259 0.00365168 0)
(8.39458 0.00241468 0)
(8.39653 0.00110625 0)
(8.39843 -0.000270592 0)
(8.33303 0.000932334 0)
(8.3334 0.0027648 0)
(8.33419 0.00449823 0)
(8.33533 0.00608998 0)
(8.33676 0.00751355 0)
(8.33843 0.00875494 0)
(8.34029 0.00980917 0)
(8.3423 0.0106789 0)
(8.34443 0.0113719 0)
(8.34665 0.0118992 0)
(8.34892 0.0122726 0)
(8.35122 0.0125048 0)
(8.35355 0.0126081 0)
(8.35589 0.0125939 0)
(8.35822 0.0124729 0)
(8.36053 0.0122544 0)
(8.36283 0.0119468 0)
(8.36511 0.0115572 0)
(8.36737 0.0110917 0)
(8.36959 0.0105551 0)
(8.37179 0.00995126 0)
(8.37397 0.00928295 0)
(8.37611 0.00855205 0)
(8.37823 0.00775955 0)
(8.38032 0.00690568 0)
(8.38238 0.00599002 0)
(8.38441 0.00501168 0)
(8.38641 0.00396952 0)
(8.38837 0.0028624 0)
(8.39031 0.00168943 0)
(8.3922 0.000450331 0)
(8.39405 -0.000854625 0)
(8.39585 -0.00222216 0)
(8.33303 0.000821922 0)
(8.33338 0.00243626 0)
(8.33413 0.00396131 0)
(8.3352 0.00536101 0)
(8.33654 0.00661255 0)
(8.33812 0.00770289 0)
(8.33988 0.00862675 0)
(8.3418 0.00938541 0)
(8.34383 0.00998475 0)
(8.34595 0.0104333 0)
(8.34813 0.0107412 0)
(8.35035 0.0109187 0)
(8.35259 0.0109764 0)
(8.35485 0.0109242 0)
(8.3571 0.0107711 0)
(8.35935 0.0105254 0)
(8.36158 0.0101944 0)
(8.36379 0.00978414 0)
(8.36597 0.00930001 0)
(8.36813 0.00874626 0)
(8.37027 0.00812627 0)
(8.37237 0.00744254 0)
(8.37445 0.0066968 0)
(8.37649 0.00589006 0)
(8.37851 0.00502275 0)
(8.38049 0.0040948 0)
(8.38244 0.00310585 0)
(8.38436 0.00205541 0)
(8.38624 0.000943034 0)
(8.38808 -0.000231414 0)
(8.38987 -0.00146759 0)
(8.39162 -0.00276475 0)
(8.39333 -0.0041195 0)
(8.33303 0.000714681 0)
(8.33336 0.00211763 0)
(8.33406 0.00344102 0)
(8.33507 0.00465392 0)
(8.33634 0.00573661 0)
(8.33783 0.0066772 0)
(8.33951 0.00747038 0)
(8.34134 0.00811646 0)
(8.34328 0.00861972 0)
(8.34531 0.00898692 0)
(8.3474 0.00922612 0)
(8.34954 0.00934608 0)
(8.3517 0.00935553 0)
(8.35388 0.00926285 0)
(8.35606 0.00907577 0)
(8.35823 0.00880133 0)
(8.36039 0.00844572 0)
(8.36253 0.0080143 0)
(8.36465 0.0075116 0)
(8.36674 0.00694134 0)
(8.36881 0.00630647 0)
(8.37084 0.00560924 0)
(8.37285 0.00485122 0)
(8.37482 0.00403346 0)
(8.37676 0.00315654 0)
(8.37867 0.00222069 0)
(8.38054 0.00122596 0)
(8.38237 0.000172341 0)
(8.38416 -0.000940078 0)
(8.38591 -0.00211093 0)
(8.38761 -0.00333945 0)
(8.38927 -0.00462459 0)
(8.39088 -0.00596299 0)
(8.33303 0.000610478 0)
(8.33334 0.00180823 0)
(8.334 0.00293592 0)
(8.33496 0.00396676 0)
(8.33616 0.00488377 0)
(8.33758 0.00567628 0)
(8.33917 0.00633917 0)
(8.34092 0.00687206 0)
(8.34277 0.00727798 0)
(8.34472 0.00756213 0)
(8.34673 0.00773087 0)
(8.34879 0.00779133 0)
(8.35087 0.00775072 0)
(8.35297 0.00761596 0)
(8.35508 0.00739351 0)
(8.35718 0.0070893 0)
(8.35927 0.00670853 0)
(8.36134 0.00625574 0)
(8.36339 0.00573479 0)
(8.36542 0.00514885 0)
(8.36742 0.0045005 0)
(8.36938 0.00379172 0)
(8.37132 0.00302396 0)
(8.37322 0.00219826 0)
(8.37508 0.00131533 0)
(8.37691 0.000375631 0)
(8.3787 -0.000620487 0)
(8.38045 -0.00167267 0)
(8.38215 -0.00278046 0)
(8.38382 -0.00394316 0)
(8.38543 -0.00515973 0)
(8.387 -0.00642896 0)
(8.38851 -0.00774756 0)
(8.33303 0.000509098 0)
(8.33332 0.00150721 0)
(8.33395 0.00244416 0)
(8.33486 0.00329655 0)
(8.336 0.00404979 0)
(8.33734 0.00469454 0)
(8.33887 0.00522609 0)
(8.34053 0.00564379 0)
(8.34231 0.00594974 0)
(8.34418 0.00614795 0)
(8.34611 0.00624329 0)
(8.3481 0.00624156 0)
(8.35011 0.00614865 0)
(8.35214 0.00597005 0)
(8.35417 0.00571097 0)
(8.35621 0.00537627 0)
(8.35823 0.00497018 0)
(8.36023 0.00449643 0)
(8.36222 0.00395818 0)
(8.36417 0.0033581 0)
(8.3661 0.00269834 0)
(8.368 0.00198067 0)
(8.36986 0.00120637 0)
(8.37169 0.00037644 0)
(8.37348 -0.000508358 0)
(8.37523 -0.0014474 0)
(8.37694 -0.00244014 0)
(8.37861 -0.00348598 0)
(8.38023 -0.0045842 0)
(8.3818 -0.0057339 0)
(8.38333 -0.00693388 0)
(8.38481 -0.00818286 0)
(8.38623 -0.00947767 0)
(8.33303 0.000410332 0)
(8.33331 0.00121413 0)
(8.3339 0.00196549 0)
(8.33476 0.00264405 0)
(8.33585 0.00323744 0)
(8.33713 0.00373763 0)
(8.33859 0.00414038 0)
(8.34018 0.00444473 0)
(8.34189 0.004652 0)
(8.34369 0.00476513 0)
(8.34555 0.00478733 0)
(8.34746 0.0047232 0)
(8.34941 0.00457735 0)
(8.35137 0.00435414 0)
(8.35334 0.00405773 0)
(8.35531 0.00369203 0)
(8.35726 0.00326026 0)
(8.3592 0.00276548 0)
(8.36112 0.00221024 0)
(8.36301 0.00159674 0)
(8.36487 0.00092684 0)
(8.3667 0.000201891 0)
(8.36849 -0.000576878 0)
(8.37025 -0.00140851 0)
(8.37196 -0.00229222 0)
(8.37363 -0.00322733 0)
(8.37526 -0.00421313 0)
(8.37685 -0.0052489 0)
(8.37839 -0.00633377 0)
(8.37988 -0.00746671 0)
(8.38132 -0.00864647 0)
(8.38271 -0.00987176 0)
(8.38405 -0.0111396 0)
(8.33303 0.000313804 0)
(8.33329 0.000926931 0)
(8.33386 0.00149442 0)
(8.33468 0.00199833 0)
(8.33571 0.00242863 0)
(8.33694 0.00277921 0)
(8.33834 0.00304705 0)
(8.33987 0.00323165 0)
(8.34152 0.00333408 0)
(8.34325 0.00335648 0)
(8.34505 0.00330087 0)
(8.34689 0.00317175 0)
(8.34877 0.00297184 0)
(8.35067 0.00270373 0)
(8.35258 0.00237022 0)
(8.35448 0.00197494 0)
(8.35637 0.00151972 0)
(8.35825 0.00100662 0)
(8.3601 0.000437749 0)
(8.36192 -0.000185299 0)
(8.36372 -0.000861132 0)
(8.36548 -0.00158867 0)
(8.3672 -0.00236686 0)
(8.36888 -0.00319487 0)
(8.37053 -0.00407195 0)
(8.37212 -0.00499738 0)
(8.37368 -0.00597042 0)
(8.37518 -0.00699025 0)
(8.37664 -0.00805595 0)
(8.37805 -0.00916644 0)
(8.37941 -0.0103205 0)
(8.38071 -0.0115167 0)
(8.38197 -0.0127524 0)
(8.33302 0.000219863 0)
(8.33327 0.000649679 0)
(8.33381 0.00104307 0)
(8.33459 0.00138414 0)
(8.33558 0.00166435 0)
(8.33676 0.0018784 0)
(8.33811 0.00202344 0)
(8.33958 0.00209882 0)
(8.34117 0.00210522 0)
(8.34285 0.00204503 0)
(8.34459 0.00191407 0)
(8.34638 0.00171916 0)
(8.3482 0.00146331 0)
(8.35004 0.0011482 0)
(8.35189 0.000775912 0)
(8.35373 0.000347305 0)
(8.35556 -0.000135032 0)
(8.35738 -0.000669462 0)
(8.35917 -0.00125464 0)
(8.36093 -0.00188947 0)
(8.36266 -0.00257298 0)
(8.36435 -0.00330419 0)
(8.36601 -0.00408238 0)
(8.36762 -0.00490683 0)
(8.36919 -0.00577686 0)
(8.37072 -0.00669177 0)
(8.37219 -0.00765085 0)
(8.37362 -0.00865326 0)
(8.375 -0.00969808 0)
(8.37633 -0.0107843 0)
(8.37761 -0.0119106 0)
(8.37883 -0.0130759 0)
(8.38 -0.0142774 0)
(8.33302 0.000125701 0)
(8.33327 0.000365119 0)
(8.33378 0.000568256 0)
(8.33453 0.000722555 0)
(8.33549 0.000824454 0)
(8.33663 0.000873321 0)
(8.33792 0.000869426 0)
(8.33935 0.000813228 0)
(8.34089 0.000705428 0)
(8.34251 0.000545442 0)
(8.34419 0.00034098 0)
(8.34593 8.60313e-05 0)
(8.3477 -0.000219634 0)
(8.34948 -0.00057448 0)
(8.35127 -0.000977463 0)
(8.35306 -0.00142895 0)
(8.35483 -0.00192737 0)
(8.35659 -0.00247186 0)
(8.35832 -0.00306202 0)
(8.36002 -0.00369724 0)
(8.36168 -0.00437692 0)
(8.36331 -0.00510052 0)
(8.3649 -0.00586754 0)
(8.36645 -0.00667744 0)
(8.36795 -0.00752966 0)
(8.3694 -0.00842358 0)
(8.37081 -0.0093585 0)
(8.37216 -0.0103336 0)
(8.37347 -0.0113481 0)
(8.37472 -0.0124008 0)
(8.37591 -0.0134906 0)
(8.37706 -0.0146164 0)
(8.37815 -0.0157757 0)
(8.33302 4.25032e-05 0)
(8.33324 0.000128477 0)
(8.33372 0.000192857 0)
(8.33443 0.000219698 0)
(8.33535 0.000202581 0)
(8.33645 0.000138768 0)
(8.33771 2.77084e-05 0)
(8.3391 -0.000129888 0)
(8.3406 -0.000332653 0)
(8.34219 -0.000580566 0)
(8.34385 -0.00086521 0)
(8.34554 -0.00119228 0)
(8.34727 -0.00156201 0)
(8.349 -0.00197303 0)
(8.35075 -0.00242495 0)
(8.35248 -0.00291663 0)
(8.35421 -0.00344836 0)
(8.35591 -0.00401996 0)
(8.35758 -0.00463115 0)
(8.35923 -0.00528165 0)
(8.36083 -0.00597123 0)
(8.3624 -0.00669963 0)
(8.36392 -0.00746658 0)
(8.36541 -0.00827176 0)
(8.36684 -0.00911478 0)
(8.36822 -0.00999517 0)
(8.36956 -0.0109124 0)
(8.37084 -0.0118657 0)
(8.37207 -0.0128545 0)
(8.37324 -0.0138777 0)
(8.37437 -0.0149344 0)
(8.37543 -0.0160236 0)
(8.37644 -0.017143 0)
(8.33303 -5.97445e-05 0)
(8.33326 -0.00020353 0)
(8.33374 -0.000393762 0)
(8.33443 -0.000627773 0)
(8.33532 -0.000890689 0)
(8.33638 -0.0011711 0)
(8.3376 -0.0014635 0)
(8.33895 -0.00176655 0)
(8.34041 -0.00208175 0)
(8.34195 -0.0024111 0)
(8.34355 -0.00276399 0)
(8.3452 -0.00313937 0)
(8.34688 -0.00353952 0)
(8.34857 -0.00396754 0)
(8.35026 -0.00442578 0)
(8.35195 -0.00491592 0)
(8.35362 -0.00543948 0)
(8.35527 -0.00599738 0)
(8.3569 -0.00659028 0)
(8.35849 -0.00721861 0)
(8.36004 -0.00788266 0)
(8.36155 -0.00858251 0)
(8.36301 -0.00931813 0)
(8.36443 -0.0100893 0)
(8.3658 -0.0108958 0)
(8.36712 -0.0117372 0)
(8.36839 -0.0126128 0)
(8.36961 -0.0135222 0)
(8.37077 -0.0144645 0)
(8.37187 -0.0154388 0)
(8.37292 -0.0164441 0)
(8.37392 -0.0174795 0)
(8.37485 -0.0185429 0)
(8.333 -0.000104683 0)
(8.33315 -0.000277134 0)
(8.33355 -0.000455377 0)
(8.33419 -0.000675683 0)
(8.33506 -0.000949582 0)
(8.33612 -0.00127478 0)
(8.33735 -0.00164265 0)
(8.33872 -0.00204392 0)
(8.34019 -0.0024716 0)
(8.34173 -0.00292117 0)
(8.34333 -0.0033906 0)
(8.34497 -0.00387775 0)
(8.34663 -0.00438318 0)
(8.3483 -0.00490805 0)
(8.34996 -0.0054535 0)
(8.35161 -0.00602069 0)
(8.35324 -0.00661093 0)
(8.35485 -0.00722542 0)
(8.35642 -0.00786524 0)
(8.35796 -0.00853134 0)
(8.35945 -0.00922449 0)
(8.3609 -0.0099453 0)
(8.36231 -0.0106942 0)
(8.36367 -0.0114716 0)
(8.36497 -0.0122775 0)
(8.36623 -0.013112 0)
(8.36743 -0.0139748 0)
(8.36858 -0.0148658 0)
(8.36967 -0.0157843 0)
(8.3707 -0.01673 0)
(8.37168 -0.0177021 0)
(8.3726 -0.0186998 0)
(8.37347 -0.0197216 0)
(8.33306 -0.000304979 0)
(8.33335 -0.000986024 0)
(8.33381 -0.00174372 0)
(8.33444 -0.00250935 0)
(8.33524 -0.00322717 0)
(8.33621 -0.00387724 0)
(8.33736 -0.00446115 0)
(8.33864 -0.00498954 0)
(8.34003 -0.00547603 0)
(8.34151 -0.00593407 0)
(8.34306 -0.00637639 0)
(8.34465 -0.00681334 0)
(8.34627 -0.00725336 0)
(8.34789 -0.00770336 0)
(8.34952 -0.00816868 0)
(8.35114 -0.00865345 0)
(8.35273 -0.00916083 0)
(8.3543 -0.00969317 0)
(8.35584 -0.0102521 0)
(8.35733 -0.0108389 0)
(8.35879 -0.0114544 0)
(8.36019 -0.0120989 0)
(8.36155 -0.0127727 0)
(8.36286 -0.0134759 0)
(8.36412 -0.0142083 0)
(8.36532 -0.0149695 0)
(8.36647 -0.0157592 0)
(8.36756 -0.0165768 0)
(8.36859 -0.0174216 0)
(8.36957 -0.0182928 0)
(8.37048 -0.0191897 0)
(8.37134 -0.0201114 0)
(8.37214 -0.0210561 0)
(8.33294 -5.81613e-05 0)
(8.33286 -8.95409e-05 0)
(8.33308 -0.000190279 0)
(8.33368 -0.000483696 0)
(8.33459 -0.00097411 0)
(8.33572 -0.00160402 0)
(8.33703 -0.00231339 0)
(8.33845 -0.00305977 0)
(8.33996 -0.00381678 0)
(8.34153 -0.00456897 0)
(8.34313 -0.0053086 0)
(8.34475 -0.00603282 0)
(8.34638 -0.00674215 0)
(8.348 -0.00743905 0)
(8.3496 -0.00812695 0)
(8.35119 -0.0088096 0)
(8.35274 -0.00949072 0)
(8.35426 -0.0101738 0)
(8.35574 -0.0108622 0)
(8.35718 -0.0115585 0)
(8.35858 -0.0122653 0)
(8.35992 -0.0129846 0)
(8.36122 -0.0137181 0)
(8.36246 -0.0144672 0)
(8.36365 -0.015233 0)
(8.36479 -0.0160163 0)
(8.36587 -0.0168176 0)
(8.36689 -0.0176374 0)
(8.36785 -0.0184757 0)
(8.36876 -0.0193325 0)
(8.3696 -0.0202076 0)
(8.37039 -0.0211007 0)
(8.37112 -0.0220108 0)
(8.33317 -0.000763948 0)
(8.33367 -0.00263763 0)
(8.33407 -0.00457764 0)
(8.33447 -0.0062304 0)
(8.33503 -0.0075241 0)
(8.33583 -0.00851463 0)
(8.33686 -0.00927663 0)
(8.33808 -0.00987425 0)
(8.33944 -0.0103589 0)
(8.3409 -0.0107705 0)
(8.34243 -0.0111391 0)
(8.34402 -0.0114868 0)
(8.34562 -0.0118295 0)
(8.34723 -0.0121783 0)
(8.34884 -0.012541 0)
(8.35042 -0.0129228 0)
(8.35198 -0.0133274 0)
(8.3535 -0.013757 0)
(8.35498 -0.0142129 0)
(8.35641 -0.0146959 0)
(8.3578 -0.0152062 0)
(8.35913 -0.0157439 0)
(8.36041 -0.0163087 0)
(8.36164 -0.0169001 0)
(8.3628 -0.0175177 0)
(8.36391 -0.0181608 0)
(8.36495 -0.0188287 0)
(8.36594 -0.0195207 0)
(8.36687 -0.020236 0)
(8.36773 -0.0209738 0)
(8.36854 -0.0217332 0)
(8.36928 -0.0225134 0)
(8.36997 -0.023313 0)
(8.33263 0.000580693 0)
(8.33174 0.00201062 0)
(8.33175 0.00290536 0)
(8.3326 0.0028395 0)
(8.33388 0.00201251 0)
(8.33535 0.000788087 0)
(8.33691 -0.000597049 0)
(8.33853 -0.00201846 0)
(8.34016 -0.00340918 0)
(8.3418 -0.00473325 0)
(8.34343 -0.00597534 0)
(8.34505 -0.00713309 0)
(8.34664 -0.00821116 0)
(8.34821 -0.00921767 0)
(8.34975 -0.0101622 0)
(8.35125 -0.0110544 0)
(8.35272 -0.0119036 0)
(8.35415 -0.0127183 0)
(8.35553 -0.013506 0)
(8.35687 -0.0142732 0)
(8.35816 -0.0150257 0)
(8.3594 -0.0157683 0)
(8.36059 -0.0165049 0)
(8.36172 -0.017239 0)
(8.3628 -0.0179734 0)
(8.36382 -0.0187105 0)
(8.36479 -0.0194519 0)
(8.3657 -0.0201993 0)
(8.36655 -0.0209537 0)
(8.36734 -0.021716 0)
(8.36807 -0.0224866 0)
(8.36875 -0.0232659 0)
(8.36937 -0.0240536 0)
(8.33358 -0.0019472 0)
(8.33468 -0.00686591 0)
(8.33443 -0.0116307 0)
(8.33374 -0.0148015 0)
(8.3335 -0.0165637 0)
(8.33392 -0.01751 0)
(8.3348 -0.0179687 0)
(8.33601 -0.0181334 0)
(8.33743 -0.0181386 0)
(8.33899 -0.0180715 0)
(8.34064 -0.0179863 0)
(8.34233 -0.0179155 0)
(8.34404 -0.017878 0)
(8.34575 -0.0178837 0)
(8.34743 -0.017937 0)
(8.34907 -0.0180393 0)
(8.35067 -0.0181896 0)
(8.35223 -0.0183861 0)
(8.35373 -0.0186264 0)
(8.35518 -0.0189079 0)
(8.35656 -0.0192279 0)
(8.35789 -0.0195838 0)
(8.35916 -0.0199734 0)
(8.36036 -0.0203942 0)
(8.36151 -0.0208444 0)
(8.36259 -0.021322 0)
(8.3636 -0.0218253 0)
(8.36456 -0.0223527 0)
(8.36545 -0.0229028 0)
(8.36627 -0.0234742 0)
(8.36704 -0.0240658 0)
(8.36775 -0.0246766 0)
(8.36839 -0.0253051 0)
(8.33162 0.00370061 0)
(8.32827 0.0102644 0)
(8.32843 0.0134361 0)
(8.33099 0.0133961 0)
(8.33362 0.0113588 0)
(8.33583 0.0085334 0)
(8.3378 0.00555023 0)
(8.33962 0.00265386 0)
(8.34132 -4.35834e-05 0)
(8.34292 -0.00249408 0)
(8.34447 -0.0046921 0)
(8.34597 -0.0066535 0)
(8.34744 -0.0084025 0)
(8.34888 -0.0099658 0)
(8.3503 -0.0113697 0)
(8.3517 -0.0126384 0)
(8.35308 -0.0137934 0)
(8.35443 -0.0148535 0)
(8.35575 -0.0158349 0)
(8.35704 -0.0167512 0)
(8.35829 -0.017614 0)
(8.35951 -0.0184331 0)
(8.36068 -0.0192167 0)
(8.36182 -0.0199716 0)
(8.3629 -0.0207035 0)
(8.36394 -0.0214172 0)
(8.36493 -0.0221167 0)
(8.36587 -0.0228053 0)
(8.36675 -0.0234855 0)
(8.36758 -0.0241596 0)
(8.36835 -0.0248292 0)
(8.36907 -0.0254955 0)
(8.36973 -0.0261593 0)
(8.3343 -0.00642241 0)
(8.33463 -0.0206512 0)
(8.33075 -0.0298613 0)
(8.32675 -0.033831 0)
(8.32484 -0.0347095 0)
(8.32493 -0.0341456 0)
(8.32612 -0.0329512 0)
(8.32788 -0.031524 0)
(8.32996 -0.030086 0)
(8.33225 -0.0287538 0)
(8.33464 -0.0275786 0)
(8.33706 -0.0265767 0)
(8.33949 -0.0257465 0)
(8.34188 -0.0250774 0)
(8.34424 -0.0245546 0)
(8.34654 -0.0241623 0)
(8.34878 -0.0238851 0)
(8.35096 -0.0237087 0)
(8.35306 -0.0236203 0)
(8.35509 -0.0236086 0)
(8.35705 -0.0236637 0)
(8.35892 -0.0237772 0)
(8.36073 -0.0239418 0)
(8.36245 -0.0241513 0)
(8.3641 -0.0244004 0)
(8.36566 -0.0246845 0)
(8.36715 -0.0249997 0)
(8.36856 -0.0253427 0)
(8.3699 -0.0257107 0)
(8.37116 -0.0261011 0)
(8.37234 -0.026512 0)
(8.37345 -0.0269419 0)
(8.37449 -0.0273887 0)
(8.32884 0.0226019 0)
(8.32235 0.0427906 0)
(8.32669 0.0440316 0)
(8.33332 0.0380863 0)
(8.33785 0.030749 0)
(8.34072 0.0236144 0)
(8.34304 0.0169942 0)
(8.34525 0.0110633 0)
(8.34746 0.00587745 0)
(8.34975 0.00138886 0)
(8.35214 -0.00248261 0)
(8.35463 -0.00581878 0)
(8.3572 -0.00869723 0)
(8.35983 -0.0111883 0)
(8.36249 -0.0133534 0)
(8.36516 -0.0152448 0)
(8.36783 -0.0169064 0)
(8.37047 -0.0183755 0)
(8.37308 -0.019683 0)
(8.37564 -0.0208548 0)
(8.37813 -0.0219126 0)
(8.38056 -0.0228743 0)
(8.38292 -0.023755 0)
(8.38519 -0.0245675 0)
(8.38738 -0.0253223 0)
(8.38948 -0.0260282 0)
(8.39149 -0.0266929 0)
(8.3934 -0.0273225 0)
(8.39523 -0.0279226 0)
(8.39696 -0.0284976 0)
(8.39859 -0.0290516 0)
(8.40013 -0.0295874 0)
(8.40158 -0.0301093 0)
(8.32436 -0.0380226 0)
(8.29386 -0.0682982 0)
(8.27217 -0.0716567 0)
(8.2667 -0.0685417 0)
(8.27359 -0.0641753 0)
(8.2862 -0.0593367 0)
(8.30094 -0.0546472 0)
(8.31625 -0.0504653 0)
(8.33127 -0.0468514 0)
(8.34555 -0.04378 0)
(8.35888 -0.0412058 0)
(8.3712 -0.0390695 0)
(8.38253 -0.0373091 0)
(8.39291 -0.0358673 0)
(8.40239 -0.0346941 0)
(8.41103 -0.0337462 0)
(8.41892 -0.032987 0)
(8.4261 -0.0323859 0)
(8.43263 -0.0319173 0)
(8.43857 -0.03156 0)
(8.44397 -0.0312965 0)
(8.44886 -0.0311122 0)
(8.4533 -0.0309952 0)
(8.45731 -0.0309353 0)
(8.46093 -0.0309242 0)
(8.46418 -0.0309549 0)
(8.46709 -0.0310214 0)
(8.4697 -0.0311189 0)
(8.47201 -0.031243 0)
(8.47405 -0.03139 0)
(8.47584 -0.0315568 0)
(8.47739 -0.0317403 0)
(8.47874 -0.0319369 0)
(8.34002 0.156991 0)
(8.382 0.149003 0)
(8.40251 0.103391 0)
(8.39945 0.0645128 0)
(8.38351 0.0358667 0)
(8.36084 0.0154957 0)