/*--------------------------------*- C++ -*----------------------------------*\
| =========                 |                                                 |
| \\      /  F ield         | OpenFOAM: The Open Source CFD Toolbox           |
|  \\    /   O peration     | Version:  2.1.1                                 |
|   \\  /    A nd           | Web:      www.OpenFOAM.org                      |
|    \\/     M anipulation  |                                                 |
\*---------------------------------------------------------------------------*/
FoamFile
{
    version     2.0;
    format      ascii;
    class       volScalarField;
    location    "0.2";
    object      nuSgs;
}
// * * * * * * * * * * * * * * * * * * * * * * * * * * * * * * * * * * * * * //

dimensions      [0 2 -1 0 0 0 0];

internalField   nonuniform List<scalar> 
6820
(
0.000556014
0.000457436
0.00036822
0.00030627
0.000269144
0.000243599
0.000224821
0.000210484
0.000198925
0.000189238
0.000180907
0.000173603
0.000167103
0.000161251
0.000155934
0.000151068
0.000146586
0.000142438
0.000138583
0.000134987
0.000131624
0.00012847
0.000125508
0.00012272
0.000120092
0.000117608
0.000115255
0.000113021
0.000110884
0.000108846
0.000106867
0.000104797
0.000102578
0.000103489
0.000170641
0.000223621
0.00024
0.000235269
0.00022494
0.000213283
0.00020204
0.000191852
0.000182735
0.000174569
0.000167221
0.000160567
0.000154504
0.000148947
0.000143828
0.000139089
0.000134682
0.000130567
0.00012671
0.000123082
0.000119659
0.000116422
0.000113352
0.000110435
0.000107658
0.000105012
0.000102487
0.000100093
9.77829e-05
9.57192e-05
9.35316e-05
9.28969e-05
3.67765e-05
2.84873e-05
4.55732e-05
8.22118e-05
0.000107822
0.0001234
0.000131822
0.000135679
0.000136793
0.000136234
0.000134643
0.000132416
0.000129799
0.000126955
0.000123993
0.000120981
0.000117967
0.000114982
0.000112047
0.000109174
0.000106371
0.000103644
0.000100993
9.84193e-05
9.59223e-05
9.35015e-05
9.11576e-05
8.8889e-05
8.67038e-05
8.45975e-05
8.26163e-05
8.06771e-05
7.91155e-05
2.07367e-05
2.86945e-05
2.65834e-05
1.51393e-05
3.67956e-06
1.37108e-05
2.54814e-05
3.52497e-05
4.31168e-05
4.93569e-05
5.42451e-05
5.80248e-05
6.08978e-05
6.30221e-05
6.45299e-05
6.55311e-05
6.61156e-05
6.63574e-05
6.63174e-05
6.60456e-05
6.55832e-05
6.49644e-05
6.42172e-05
6.3366e-05
6.24315e-05
6.14308e-05
6.03793e-05
5.92896e-05
5.81772e-05
5.70561e-05
5.5961e-05
5.49143e-05
5.40337e-05
1.44175e-05
1.75983e-05
2.26159e-05
2.43083e-05
2.39877e-05
2.20297e-05
1.91742e-05
1.59596e-05
1.26181e-05
9.29856e-06
6.10861e-06
3.1301e-06
7.58799e-07
2.41977e-06
4.67813e-06
6.72724e-06
8.54739e-06
1.01451e-05
1.15325e-05
1.27241e-05
1.37346e-05
1.45791e-05
1.5272e-05
1.58273e-05
1.62587e-05
1.65792e-05
1.68025e-05
1.69436e-05
1.70195e-05
1.7043e-05
1.70331e-05
1.70062e-05
1.6972e-05
1.09157e-05
1.25132e-05
1.3842e-05
1.43441e-05
1.51165e-05
1.5742e-05
1.61073e-05
1.63068e-05
1.63452e-05
1.62284e-05
1.59808e-05
1.56261e-05
1.51886e-05
1.46842e-05
1.41312e-05
1.3547e-05
1.29468e-05
1.23432e-05
1.17466e-05
1.11651e-05
1.06048e-05
1.00702e-05
9.56456e-06
9.08954e-06
8.64575e-06
8.23263e-06
7.8481e-06
7.48993e-06
7.15275e-06
6.83599e-06
6.53955e-06
6.27591e-06
6.07438e-06
8.23792e-06
9.44334e-06
1.02719e-05
1.0071e-05
9.87823e-06
9.69404e-06
9.50202e-06
9.40504e-06
9.39236e-06
9.41999e-06
9.46113e-06
9.49821e-06
9.51957e-06
9.52296e-06
9.50664e-06
9.46986e-06
9.413e-06
9.33727e-06
9.24429e-06
9.13585e-06
9.0138e-06
8.87992e-06
8.73584e-06
8.58305e-06
8.42258e-06
8.25586e-06
8.08404e-06
7.90873e-06
7.7345e-06
7.56575e-06
7.40901e-06
7.28457e-06
7.21948e-06
6.35197e-06
7.42359e-06
8.24211e-06
8.10858e-06
7.79842e-06
7.45811e-06
7.07963e-06
6.75466e-06
6.50199e-06
6.30075e-06
6.13804e-06
6.00483e-06
5.89227e-06
5.79369e-06
5.7048e-06
5.62255e-06
5.54459e-06
5.46909e-06
5.39471e-06
5.32048e-06
5.24569e-06
5.1699e-06
5.09289e-06
5.01457e-06
4.93513e-06
4.85517e-06
4.77588e-06
4.69938e-06
4.62801e-06
4.56762e-06
4.52708e-06
4.52359e-06
4.57991e-06
4.98939e-06
5.87226e-06
6.56884e-06
6.56743e-06
6.40096e-06
6.19389e-06
5.91144e-06
5.62651e-06
5.37776e-06
5.16147e-06
4.97283e-06
4.8084e-06
4.66335e-06
4.53349e-06
4.41597e-06
4.30864e-06
4.20979e-06
4.11814e-06
4.03268e-06
3.95265e-06
3.87746e-06
3.80665e-06
3.73992e-06
3.6771e-06
3.61838e-06
3.564e-06
3.51475e-06
3.47258e-06
3.44057e-06
3.42426e-06
3.43128e-06
3.47317e-06
3.56661e-06
3.98172e-06
4.71908e-06
5.33642e-06
5.41427e-06
5.3148e-06
5.16801e-06
4.95281e-06
4.72495e-06
4.52249e-06
4.34466e-06
4.18698e-06
4.04729e-06
3.92255e-06
3.80984e-06
3.70713e-06
3.61302e-06
3.52637e-06
3.44632e-06
3.37219e-06
3.30346e-06
3.23972e-06
3.1807e-06
3.12627e-06
3.07649e-06
3.03156e-06
2.99219e-06
2.95958e-06
2.93571e-06
2.92338e-06
2.92707e-06
2.95258e-06
3.00655e-06
3.10053e-06
3.2202e-06
3.84437e-06
4.39329e-06
4.51427e-06
4.46453e-06
4.36766e-06
4.20941e-06
4.0275e-06
3.85704e-06
3.70253e-06
3.56268e-06
3.43752e-06
3.32574e-06
3.2253e-06
3.13458e-06
3.05232e-06
2.97746e-06
2.90913e-06
2.84665e-06
2.78952e-06
2.73738e-06
2.69002e-06
2.64742e-06
2.6097e-06
2.57728e-06
2.55092e-06
2.53178e-06
2.52163e-06
2.52288e-06
2.53883e-06
2.57329e-06
2.62927e-06
2.71472e-06
2.63171e-06
3.16656e-06
3.66465e-06
3.8222e-06
3.81922e-06
3.76167e-06
3.64361e-06
3.49421e-06
3.34699e-06
3.21054e-06
3.08551e-06
2.97275e-06
2.87178e-06
2.78116e-06
2.69961e-06
2.62611e-06
2.55977e-06
2.49986e-06
2.4458e-06
2.39718e-06
2.35368e-06
2.31515e-06
2.28157e-06
2.25312e-06
2.23019e-06
2.21348e-06
2.20396e-06
2.20305e-06
2.21243e-06
2.23414e-06
2.27027e-06
2.32146e-06
2.3933e-06
2.16666e-06
2.63341e-06
3.09394e-06
3.27764e-06
3.31092e-06
3.28439e-06
3.20033e-06
3.08189e-06
2.95844e-06
2.84018e-06
2.72917e-06
2.62719e-06
2.53482e-06
2.45151e-06
2.3765e-06
2.30912e-06
2.24873e-06
2.19471e-06
2.14658e-06
2.10395e-06
2.06654e-06
2.03418e-06
2.00687e-06
1.98474e-06
1.96809e-06
1.95745e-06
1.95352e-06
1.95721e-06
1.96954e-06
1.99153e-06
2.02409e-06
2.06652e-06
2.12297e-06
1.79146e-06
2.20744e-06
2.64004e-06
2.84431e-06
2.90901e-06
2.91005e-06
2.85468e-06
2.76211e-06
2.65819e-06
2.55452e-06
2.45485e-06
2.36182e-06
2.27676e-06
2.19973e-06
2.13033e-06
2.06811e-06
2.01257e-06
1.96321e-06
1.9196e-06
1.88141e-06
1.84837e-06
1.82033e-06
1.79725e-06
1.77918e-06
1.76632e-06
1.75898e-06
1.75755e-06
1.76253e-06
1.77434e-06
1.79329e-06
1.81946e-06
1.85147e-06
1.89248e-06
1.48265e-06
1.8625e-06
2.27509e-06
2.49608e-06
2.58698e-06
2.61102e-06
2.57908e-06
2.50841e-06
2.42198e-06
2.33187e-06
2.2429e-06
2.1582e-06
2.07965e-06
2.00782e-06
1.94272e-06
1.88416e-06
1.83185e-06
1.78544e-06
1.7446e-06
1.70903e-06
1.67849e-06
1.65282e-06
1.63192e-06
1.61576e-06
1.60439e-06
1.59792e-06
1.59646e-06
1.60013e-06
1.60893e-06
1.62268e-06
1.64098e-06
1.66218e-06
1.68881e-06
1.22362e-06
1.57993e-06
1.97887e-06
2.21377e-06
2.32693e-06
2.37118e-06
2.35954e-06
2.30801e-06
2.23696e-06
2.15855e-06
2.07847e-06
2.00045e-06
1.92688e-06
1.85886e-06
1.79676e-06
1.74064e-06
1.69038e-06
1.64573e-06
1.60644e-06
1.57223e-06
1.54288e-06
1.51818e-06
1.49799e-06
1.48217e-06
1.47065e-06
1.46334e-06
1.46014e-06
1.46088e-06
1.46527e-06
1.47284e-06
1.48292e-06
1.49386e-06
1.50768e-06
1.00242e-06
1.34645e-06
1.73716e-06
1.98397e-06
2.1161e-06
2.17797e-06
2.18365e-06
2.14839e-06
2.09061e-06
2.02237e-06
1.95003e-06
1.87779e-06
1.80843e-06
1.74342e-06
1.68344e-06
1.62878e-06
1.57946e-06
1.53538e-06
1.49636e-06
1.46217e-06
1.4326e-06
1.40742e-06
1.38644e-06
1.36947e-06
1.35628e-06
1.34668e-06
1.34038e-06
1.33703e-06
1.33616e-06
1.33715e-06
1.33922e-06
1.34083e-06
1.3436e-06
8.10493e-07
1.15278e-06
1.53984e-06
1.79696e-06
1.94528e-06
2.02258e-06
2.04331e-06
2.02219e-06
1.97609e-06
1.91674e-06
1.85099e-06
1.78342e-06
1.71715e-06
1.65403e-06
1.59503e-06
1.54068e-06
1.49119e-06
1.44656e-06
1.40669e-06
1.3714e-06
1.34049e-06
1.31373e-06
1.29087e-06
1.27165e-06
1.25579e-06
1.24296e-06
1.23277e-06
1.22478e-06
1.21839e-06
1.21294e-06
1.20763e-06
1.2011e-06
1.19466e-06
6.41989e-07
9.92927e-07
1.37997e-06
1.64599e-06
1.80805e-06
1.89881e-06
1.93258e-06
1.92361e-06
1.88751e-06
1.83571e-06
1.77538e-06
1.71144e-06
1.64733e-06
1.58518e-06
1.52627e-06
1.47131e-06
1.42067e-06
1.37447e-06
1.33271e-06
1.29524e-06
1.26191e-06
1.23247e-06
1.20667e-06
1.18422e-06
1.16479e-06
1.14798e-06
1.13336e-06
1.12042e-06
1.10855e-06
1.09708e-06
1.08524e-06
1.07187e-06
1.05798e-06
4.93937e-07
8.63735e-07
1.25304e-06
1.52646e-06
1.7e-06
1.80235e-06
1.84738e-06
1.84883e-06
1.82133e-06
1.77595e-06
1.72006e-06
1.65887e-06
1.59607e-06
1.53407e-06
1.47438e-06
1.41793e-06
1.36524e-06
1.31657e-06
1.27198e-06
1.23143e-06
1.19476e-06
1.16177e-06
1.13222e-06
1.10578e-06
1.08212e-06
1.06084e-06
1.04146e-06
1.02348e-06
1.0063e-06
9.89296e-07
9.71756e-07
9.52732e-07
9.32986e-07
3.68003e-07
7.64798e-07
1.15651e-06
1.43548e-06
1.61828e-06
1.73042e-06
1.78503e-06
1.79527e-06
1.77494e-06
1.73475e-06
1.68218e-06
1.62266e-06
1.56013e-06
1.49723e-06
1.43573e-06
1.37675e-06
1.32097e-06
1.26877e-06
1.22034e-06
1.17568e-06
1.13472e-06
1.09729e-06
1.06317e-06
1.03208e-06
1.00367e-06
9.77566e-07
9.53319e-07
9.30444e-07
9.08382e-07
8.86573e-07
8.64364e-07
8.40988e-07
8.16956e-07
2.76137e-07
6.98053e-07
1.08933e-06
1.3715e-06
1.56133e-06
1.6815e-06
1.74413e-06
1.76175e-06
1.74741e-06
1.71148e-06
1.66148e-06
1.60304e-06
1.54025e-06
1.47599e-06
1.4122e-06
1.35019e-06
1.29079e-06
1.2345e-06
1.18159e-06
1.13218e-06
1.08624e-06
1.04367e-06
1.0043e-06
9.67904e-07
9.3418e-07
9.02792e-07
8.73349e-07
8.45423e-07
8.18523e-07
7.92174e-07
7.658e-07
7.38835e-07
7.11588e-07
2.47586e-07
6.66795e-07
1.05156e-06
1.33397e-06
1.52852e-06
1.65488e-06
1.72388e-06
1.74726e-06
1.73739e-06
1.70428e-06
1.65547e-06
1.59669e-06
1.53226e-06
1.46526e-06
1.39785e-06
1.33151e-06
1.26723e-06
1.20567e-06
1.1472e-06
1.09202e-06
1.04021e-06
9.91725e-07
9.46472e-07
9.04278e-07
8.64918e-07
8.28121e-07
7.93564e-07
7.60895e-07
7.29695e-07
6.99573e-07
6.70004e-07
6.40564e-07
6.11341e-07
2.99422e-07
6.73729e-07
1.04399e-06
1.32333e-06
1.52034e-06
1.6513e-06
1.72549e-06
1.75376e-06
1.74783e-06
1.71734e-06
1.66975e-06
1.61088e-06
1.54512e-06
1.4757e-06
1.40494e-06
1.33446e-06
1.26539e-06
1.19848e-06
1.13423e-06
1.07294e-06
1.01477e-06
9.59773e-07
9.07936e-07
8.5918e-07
8.13374e-07
7.70343e-07
7.29868e-07
6.91703e-07
6.55538e-07
6.21106e-07
5.87969e-07
5.55936e-07
5.24875e-07
4.05633e-07
7.19068e-07
1.06759e-06
1.34048e-06
1.5375e-06
1.67096e-06
1.74819e-06
1.77904e-06
1.77456e-06
1.74415e-06
1.69523e-06
1.63375e-06
1.56431e-06
1.49031e-06
1.41427e-06
1.33797e-06
1.26268e-06
1.18926e-06
1.11829e-06
1.05016e-06
9.851e-07
9.23231e-07
8.64608e-07
8.09228e-07
7.57043e-07
7.07971e-07
6.61892e-07
6.18666e-07
5.78087e-07
5.39989e-07
5.04e-07
4.70052e-07
4.37826e-07
5.41966e-07
8.00663e-07
1.12339e-06
1.38735e-06
1.58297e-06
1.71851e-06
1.79921e-06
1.83375e-06
1.83245e-06
1.8042e-06
1.75622e-06
1.69435e-06
1.62323e-06
1.54638e-06
1.46643e-06
1.38532e-06
1.30446e-06
1.22487e-06
1.14727e-06
1.07213e-06
9.99809e-07
9.30511e-07
8.64381e-07
8.01501e-07
7.41912e-07
6.85626e-07
6.32627e-07
5.82891e-07
5.36337e-07
4.9296e-07
4.52507e-07
4.15264e-07
3.80545e-07
7.00859e-07
9.16757e-07
1.21331e-06
1.4661e-06
1.65733e-06
1.79109e-06
1.87041e-06
1.90299e-06
1.89886e-06
1.86692e-06
1.81447e-06
1.74754e-06
1.67091e-06
1.58824e-06
1.50225e-06
1.41495e-06
1.3278e-06
1.24185e-06
1.15783e-06
1.07627e-06
9.97529e-07
9.21861e-07
8.4944e-07
7.80388e-07
7.14795e-07
6.5273e-07
5.94242e-07
5.3938e-07
4.88143e-07
4.40605e-07
3.96578e-07
3.56442e-07
3.19384e-07
8.82345e-07
1.06572e-06
1.33854e-06
1.58113e-06
1.77068e-06
1.9078e-06
1.99275e-06
2.03136e-06
2.03244e-06
2.00414e-06
1.95337e-06
1.88611e-06
1.80732e-06
1.7209e-06
1.62988e-06
1.53657e-06
1.44272e-06
1.3496e-06
1.25815e-06
1.16904e-06
1.08274e-06
9.99612e-07
9.19881e-07
8.4373e-07
7.71291e-07
7.02672e-07
6.37961e-07
5.77252e-07
5.20592e-07
4.68142e-07
4.19756e-07
3.76174e-07
3.35832e-07
1.09219e-06
1.25353e-06
1.50669e-06
1.73577e-06
1.91448e-06
2.04138e-06
2.11595e-06
2.14443e-06
2.13636e-06
2.10018e-06
2.04282e-06
1.97005e-06
1.88657e-06
1.796e-06
1.70115e-06
1.60417e-06
1.50667e-06
1.40989e-06
1.31475e-06
1.22193e-06
1.13196e-06
1.04523e-06
9.62024e-07
8.82577e-07
8.07068e-07
7.35647e-07
6.68437e-07
6.05554e-07
5.47066e-07
4.93101e-07
4.43521e-07
3.98868e-07
3.57701e-07
1.33492e-06
1.47674e-06
1.71575e-06
1.94371e-06
2.13324e-06
2.27763e-06
2.37004e-06
2.41279e-06
2.4139e-06
2.3816e-06
2.32339e-06
2.24605e-06
2.15531e-06
2.05574e-06
1.95091e-06
1.84352e-06
1.73562e-06
1.6287e-06
1.52385e-06
1.42186e-06
1.3233e-06
1.22858e-06
1.13798e-06
1.05172e-06
9.69954e-07
8.92812e-07
8.20382e-07
7.52744e-07
6.8992e-07
6.32014e-07
5.7879e-07
5.30926e-07
4.86091e-07
1.63119e-06
1.77029e-06
1.99636e-06
2.19699e-06
2.35115e-06
2.4607e-06
2.52446e-06
2.54756e-06
2.53806e-06
2.5023e-06
2.44533e-06
2.37178e-06
2.28578e-06
2.19086e-06
2.08996e-06
1.98556e-06
1.87967e-06
1.77391e-06
1.66956e-06
1.56759e-06
1.46877e-06
1.37365e-06
1.28263e-06
1.19601e-06
1.11398e-06
1.03669e-06
9.64189e-07
8.96516e-07
8.33635e-07
7.75527e-07
7.2194e-07
6.73201e-07
6.27507e-07
1.97327e-06
2.08862e-06
2.32541e-06
2.57567e-06
2.79726e-06
2.96695e-06
3.06912e-06
3.10776e-06
3.09598e-06
3.04607e-06
2.96818e-06
2.87089e-06
2.76089e-06
2.64314e-06
2.52122e-06
2.39775e-06
2.27463e-06
2.15322e-06
2.03451e-06
1.91923e-06
1.8079e-06
1.7009e-06
1.5985e-06
1.50086e-06
1.40809e-06
1.32023e-06
1.23728e-06
1.15921e-06
1.08593e-06
1.01741e-06
9.5335e-07
8.94282e-07
8.37631e-07
2.45522e-06
2.60315e-06
2.78706e-06
2.91314e-06
3.01162e-06
3.10286e-06
3.17598e-06
3.22244e-06
3.2398e-06
3.22705e-06
3.18544e-06
3.11882e-06
3.03204e-06
2.92993e-06
2.81687e-06
2.6967e-06
2.57256e-06
2.44695e-06
2.32181e-06
2.19862e-06
2.07843e-06
1.96202e-06
1.8499e-06
1.74241e-06
1.6397e-06
1.54186e-06
1.44886e-06
1.36065e-06
1.27712e-06
1.19823e-06
1.12377e-06
1.05421e-06
9.87643e-07
2.9323e-06
3.03077e-06
3.40042e-06
3.79581e-06
4.09431e-06
4.27182e-06
4.33642e-06
4.31851e-06
4.24759e-06
4.1416e-06
4.01165e-06
3.86571e-06
3.70937e-06
3.54657e-06
3.38042e-06
3.21356e-06
3.04824e-06
2.88631e-06
2.72932e-06
2.57848e-06
2.43466e-06
2.29848e-06
2.17029e-06
2.05025e-06
1.9383e-06
1.83428e-06
1.73788e-06
1.64877e-06
1.56655e-06
1.49095e-06
1.42149e-06
1.35893e-06
1.30038e-06
3.97106e-06
4.06716e-06
3.96435e-06
3.8701e-06
3.95459e-06
4.14989e-06
4.33226e-06
4.45033e-06
4.49974e-06
4.49001e-06
4.43783e-06
4.36163e-06
4.27646e-06
4.19273e-06
4.11685e-06
4.05204e-06
3.99919e-06
3.95774e-06
3.92638e-06
3.90351e-06
3.88751e-06
3.87691e-06
3.8704e-06
3.86689e-06
3.86543e-06
3.86517e-06
3.86539e-06
3.86542e-06
3.86471e-06
3.86292e-06
3.85985e-06
3.85683e-06
3.85199e-06
4.42788e-06
4.97198e-06
5.92282e-06
6.38665e-06
6.48246e-06
6.43835e-06
6.41175e-06
6.51069e-06
6.76639e-06
7.14656e-06
7.5998e-06
8.07977e-06
8.551e-06
8.98956e-06
9.38155e-06
9.72032e-06
1.0004e-05
1.0234e-05
1.04133e-05
1.0546e-05
1.06366e-05
1.06896e-05
1.07094e-05
1.06997e-05
1.06642e-05
1.06059e-05
1.05271e-05
1.04298e-05
1.03158e-05
1.01857e-05
1.00414e-05
9.88448e-06
9.7168e-06
7.61771e-06
5.86181e-06
4.6014e-06
6.1556e-06
8.88453e-06
1.16019e-05
1.3943e-05
1.58444e-05
1.73025e-05
1.83299e-05
1.89617e-05
1.92446e-05
1.92273e-05
1.89586e-05
1.84854e-05
1.78503e-05
1.70912e-05
1.62406e-05
1.53261e-05
1.43701e-05
1.33911e-05
1.24037e-05
1.14192e-05
1.04462e-05
9.49093e-06
8.55784e-06
7.64956e-06
6.76694e-06
5.9101e-06
5.0757e-06
4.26486e-06
3.46525e-06
2.69761e-06
8.59543e-06
1.46964e-05
1.87776e-05
2.11614e-05
2.22239e-05
2.1714e-05
1.98086e-05
1.69673e-05
1.36804e-05
1.06317e-05
8.95333e-06
9.71692e-06
1.24401e-05
1.59868e-05
1.97189e-05
2.336e-05
2.67885e-05
2.99513e-05
3.28293e-05
3.54216e-05
3.77374e-05
3.97914e-05
4.16013e-05
4.31854e-05
4.45623e-05
4.57501e-05
4.67659e-05
4.76267e-05
4.8349e-05
4.89532e-05
4.94547e-05
4.99127e-05
5.03164e-05
3.46986e-05
3.72696e-05
4.67455e-05
6.19408e-05
7.77354e-05
9.32365e-05
0.000107738
0.000120528
0.000131418
0.000140449
0.00014773
0.000153424
0.000157717
0.000160794
0.00016283
0.000163982
0.000164392
0.000164184
0.000163464
0.000162323
0.000160839
0.000159076
0.000157089
0.000154923
0.000152617
0.000150201
0.000147701
0.000145133
0.000142517
0.000139855
0.000137151
0.000134495
0.000131909
0.000608485
0.000582517
0.000556836
0.00053028
0.00050415
0.000478768
0.000454173
0.000430639
0.000408349
0.000387362
0.000367695
0.000349335
0.000332236
0.000316332
0.000301546
0.000287796
0.000274999
0.000263073
0.000251941
0.00024153
0.000231775
0.000222613
0.00021399
0.000205856
0.000198167
0.000190882
0.000183965
0.000177382
0.000171094
0.000165079
0.00015921
0.000154012
0.000149252
8.9806e-05
8.02843e-05
7.1264e-05
6.51379e-05
6.28547e-05
6.511e-05
7.05142e-05
7.67861e-05
8.27409e-05
8.86827e-05
9.51964e-05
0.000102671
0.000110528
0.000118822
0.000112814
8.31236e-05
6.56858e-05
6.00494e-05
5.25776e-05
4.42039e-05
3.69303e-05
3.08598e-05
2.51829e-05
1.93204e-05
1.30835e-05
9.42213e-06
1.66202e-05
1.64249e-05
7.01281e-06
1.50323e-05
1.5312e-05
2.04646e-05
2.97326e-05
3.18052e-05
2.8801e-05
2.51671e-05
2.23849e-05
2.01741e-05
1.82176e-05
1.64317e-05
1.48102e-05
1.33461e-05
1.20267e-05
1.08402e-05
9.77537e-06
8.81968e-06
7.95958e-06
7.18231e-06
6.47707e-06
5.83659e-06
5.26409e-06
4.77833e-06
4.39002e-06
4.08137e-06
3.93698e-06
4.28609e-06
5.20907e-06
7.03229e-06
1.03635e-05
1.33238e-05
1.3802e-05
1.26899e-05
1.27951e-05
1.52381e-05
1.94195e-05
2.48516e-05
3.14315e-05
3.85985e-05
4.34767e-05
4.20265e-05
3.38827e-05
2.38311e-05
1.50322e-05
6.42579e-06
3.23751e-06
1.39789e-05
2.72104e-05
4.11205e-05
4.97516e-05
4.94157e-05
4.23058e-05
3.47127e-05
3.12757e-05
2.4976e-05
1.32742e-05
8.58108e-06
1.01176e-05
7.94767e-06
4.67115e-06
2.66142e-06
2.03507e-06
2.08255e-06
2.39011e-06
3.14724e-06
4.03524e-06
6.23055e-06
6.78611e-06
1.25652e-05
1.69648e-05
2.11596e-05
0.000119775
0.000112626
0.000103074
9.53977e-05
9.07132e-05
8.89263e-05
8.83706e-05
8.75855e-05
8.63351e-05
8.58557e-05
8.74514e-05
9.11853e-05
9.6086e-05
0.000101661
0.000110173
0.000104995
7.75826e-05
5.79686e-05
5.20488e-05
4.64098e-05
3.92435e-05
3.23096e-05
2.61902e-05
2.08881e-05
1.73505e-05
1.95217e-05
1.89726e-05
5.54975e-06
1.19362e-05
1.44584e-05
1.57339e-05
2.75394e-05
3.3055e-05
3.13625e-05
2.75208e-05
2.43224e-05
2.19143e-05
1.98819e-05
1.80348e-05
1.6337e-05
1.47838e-05
1.33687e-05
1.20842e-05
1.09235e-05
9.87769e-06
8.93603e-06
8.08661e-06
7.31859e-06
6.62333e-06
5.99523e-06
5.43763e-06
4.96934e-06
4.60495e-06
4.3272e-06
4.18974e-06
4.50036e-06
5.4115e-06
7.11832e-06
1.03657e-05
1.36421e-05
1.45563e-05
1.35407e-05
1.33861e-05
1.56003e-05
1.97179e-05
2.52023e-05
3.18775e-05
3.91349e-05
4.42429e-05
4.3291e-05
3.58042e-05
2.6005e-05
1.68043e-05
7.71548e-06
4.3915e-06
1.50658e-05
2.88409e-05
4.33121e-05
5.22369e-05
5.17895e-05
4.4214e-05
3.56746e-05
3.16956e-05
2.59737e-05
1.42312e-05
7.90243e-06
9.92573e-06
8.28259e-06
5.00916e-06
2.81272e-06
2.07615e-06
2.12062e-06
2.44421e-06
3.24803e-06
4.12469e-06
6.45946e-06
7.03201e-06
1.28085e-05
1.76967e-05
2.13062e-05
0.000104068
0.000104163
0.000101372
9.71586e-05
9.24423e-05
8.76424e-05
8.23942e-05
7.64171e-05
7.04905e-05
6.64307e-05
6.55778e-05
6.76974e-05
7.18958e-05
7.74671e-05
8.50842e-05
9.48503e-05
9.14554e-05
7.04421e-05
5.08757e-05
4.30388e-05
3.93861e-05
3.50718e-05
3.04538e-05
2.63606e-05
2.36504e-05
1.89713e-05
5.97981e-06
1.12371e-05
1.45817e-05
1.12584e-05
2.44716e-05
3.3511e-05
3.36922e-05
2.99241e-05
2.62711e-05
2.36045e-05
2.1497e-05
1.96158e-05
1.78695e-05
1.62512e-05
1.47603e-05
1.33926e-05
1.21444e-05
1.10108e-05
9.98477e-06
9.05731e-06
8.21851e-06
7.45956e-06
6.77387e-06
6.15748e-06
5.61376e-06
5.16091e-06
4.81676e-06
4.56736e-06
4.44134e-06
4.70802e-06
5.58131e-06
7.16819e-06
1.0286e-05
1.38476e-05
1.52551e-05
1.44314e-05
1.40569e-05
1.60168e-05
2.00387e-05
2.55537e-05
3.23116e-05
3.96606e-05
4.50317e-05
4.46689e-05
3.79424e-05
2.848e-05
1.89676e-05
9.55452e-06
5.92683e-06
1.62215e-05
3.05809e-05
4.56788e-05
5.48763e-05
5.4249e-05
4.62206e-05
3.6836e-05
3.22006e-05
2.698e-05
1.53742e-05
7.28549e-06
9.58189e-06
8.5475e-06
5.34276e-06
2.97131e-06
2.11154e-06
2.14495e-06
2.48381e-06
3.33566e-06
4.20784e-06
6.65287e-06
7.28799e-06
1.29667e-05
1.84221e-05
2.15101e-05
7.11267e-05
7.10816e-05
6.9276e-05
6.60524e-05
6.16124e-05
5.60733e-05
4.95591e-05
4.27229e-05
3.72312e-05
3.49476e-05
3.57934e-05
3.81297e-05
4.11968e-05
4.58517e-05
5.281e-05
6.33212e-05
7.46504e-05
7.61151e-05
6.4066e-05
4.76566e-05
3.58103e-05
2.92001e-05
2.43916e-05
1.94417e-05
1.3822e-05
1.1116e-05
1.75957e-05
1.67259e-05
7.48853e-06
2.18046e-05
3.36816e-05
3.56541e-05
3.21814e-05
2.81535e-05
2.52025e-05
2.30084e-05
2.11113e-05
1.93458e-05
1.76926e-05
1.61535e-05
1.47263e-05
1.34088e-05
1.21995e-05
1.10952e-05
1.00908e-05
9.17907e-06
8.35225e-06
7.60355e-06
6.92831e-06
6.3242e-06
5.79479e-06
5.35735e-06
5.03205e-06
4.80922e-06
4.69991e-06
4.93031e-06
5.76083e-06
7.23363e-06
1.016e-05
1.39508e-05
1.59026e-05
1.53708e-05
1.48198e-05
1.64953e-05
2.03843e-05
2.59065e-05
3.27373e-05
4.01899e-05
4.5863e-05
4.61733e-05
4.02866e-05
3.12068e-05
2.14183e-05
1.17138e-05
7.90021e-06
1.75949e-05
3.24622e-05
4.81763e-05
5.75979e-05
5.67386e-05
4.82782e-05
3.81376e-05
3.27412e-05
2.79227e-05
1.66273e-05
6.8701e-06
9.12009e-06
8.73902e-06
5.65873e-06
3.12978e-06
2.13818e-06
2.15492e-06
2.50876e-06
3.40786e-06
4.28381e-06
6.80825e-06
7.55748e-06
1.30498e-05
1.91289e-05
2.17858e-05
2.25992e-05
2.23949e-05
2.08235e-05
1.79957e-05
1.4183e-05
9.97045e-06
7.18432e-06
8.96103e-06
1.33088e-05
1.70143e-05
1.87999e-05
1.87895e-05
1.8447e-05
1.99589e-05
2.48346e-05
3.20959e-05
4.14985e-05
5.18799e-05
5.76405e-05
5.51569e-05
4.70876e-05
3.80663e-05
3.0651e-05
2.6684e-05
2.65698e-05
2.60334e-05
1.78811e-05
3.88258e-06
2.14321e-05
3.43543e-05
3.72355e-05
3.4066e-05
2.98429e-05
2.66662e-05
2.43872e-05
2.24825e-05
2.07206e-05
1.90609e-05
1.75029e-05
1.60439e-05
1.46813e-05
1.34156e-05
1.22469e-05
1.11737e-05
1.01922e-05
9.2975e-06
8.48382e-06
7.74632e-06
7.08216e-06
6.49062e-06
5.97553e-06
5.55305e-06
5.24499e-06
5.04641e-06
4.95597e-06
5.1552e-06
5.93646e-06
7.31435e-06
1.00036e-05
1.39351e-05
1.64594e-05
1.63318e-05
1.56737e-05
1.70423e-05
2.07554e-05
2.62536e-05
3.31428e-05
4.07095e-05
4.67161e-05
4.77556e-05
4.27545e-05
3.40985e-05
2.41128e-05
1.42365e-05
1.01099e-05
1.90453e-05
3.4404e-05
5.0762e-05
6.03608e-05
5.92059e-05
5.03411e-05
3.95747e-05
3.33344e-05
2.87548e-05
1.78907e-05
6.75012e-06
8.55244e-06
8.84089e-06
5.94296e-06
3.2857e-06
2.1597e-06
2.15627e-06
2.52689e-06
3.4724e-06
4.36228e-06
6.92959e-06
7.84024e-06
1.30621e-05
1.97786e-05
2.21072e-05
8.14711e-06
9.21048e-06
1.08963e-05
1.27734e-05
1.46452e-05
1.64432e-05
1.80387e-05
1.91575e-05
1.94286e-05
1.85633e-05
1.65916e-05
1.39788e-05
1.17323e-05
1.13522e-05
1.44659e-05
2.0068e-05
2.52409e-05
2.85858e-05
3.20796e-05
3.60174e-05
3.78651e-05
3.67491e-05
3.37946e-05
2.99377e-05
2.28792e-05
1.02017e-05
8.00807e-06
2.55445e-05
3.63171e-05
3.84761e-05
3.53169e-05
3.11148e-05
2.78853e-05
2.55814e-05
2.36893e-05
2.19506e-05
2.03101e-05
1.87624e-05
1.73014e-05
1.59226e-05
1.46261e-05
1.34139e-05
1.22874e-05
1.12466e-05
1.02895e-05
9.41299e-06
8.61357e-06
7.88815e-06
7.23556e-06
6.65665e-06
6.15565e-06
5.74745e-06
5.4548e-06
5.27789e-06
5.20763e-06
5.382e-06
6.10599e-06
7.40767e-06
9.83709e-06
1.38003e-05
1.68977e-05
1.72922e-05
1.66211e-05
1.76711e-05
2.11605e-05
2.65954e-05
3.35222e-05
4.12071e-05
4.75672e-05
4.93721e-05
4.53006e-05
3.71392e-05
2.70664e-05
1.70598e-05
1.25467e-05
2.06128e-05
3.64259e-05
5.34288e-05
6.31317e-05
6.16049e-05
5.23632e-05
4.11269e-05
3.40206e-05
2.95006e-05
1.91296e-05
6.95157e-06
7.89387e-06
8.85558e-06
6.19205e-06
3.43614e-06
2.17378e-06
2.1468e-06
2.53839e-06
3.53185e-06
4.4509e-06
7.02445e-06
8.13647e-06
1.30104e-05
2.03499e-05
2.24469e-05
9.81509e-06
1.08105e-05
1.2204e-05
1.36278e-05
1.48042e-05
1.55915e-05
1.59168e-05
1.57496e-05
1.51055e-05
1.40876e-05
1.29413e-05
1.20381e-05
1.17676e-05
1.24683e-05
1.41137e-05
1.73331e-05
2.22817e-05
2.67504e-05
2.80469e-05
2.61695e-05
2.30769e-05
2.00205e-05
1.68456e-05
1.35113e-05
1.46532e-05
2.34435e-05
3.33399e-05
3.89062e-05
3.89205e-05
3.5555e-05
3.1688e-05
2.87048e-05
2.65176e-05
2.46878e-05
2.29953e-05
2.13966e-05
1.98861e-05
1.84532e-05
1.70889e-05
1.57909e-05
1.45615e-05
1.3404e-05
1.23209e-05
1.13137e-05
1.03821e-05
9.52511e-06
8.74094e-06
8.0283e-06
7.38758e-06
6.82115e-06
6.33384e-06
5.93917e-06
5.66016e-06
5.50235e-06
5.45302e-06
5.6103e-06
6.26979e-06
7.50592e-06
9.67617e-06
1.35494e-05
1.71872e-05
1.82231e-05
1.76632e-05
1.84009e-05
2.16153e-05
2.694e-05
3.38789e-05
4.1682e-05
4.8408e-05
5.09987e-05
4.78937e-05
4.03029e-05
3.0247e-05
2.01551e-05
1.5164e-05
2.22589e-05
3.85114e-05
5.61539e-05
6.58672e-05
6.38861e-05
5.4305e-05
4.27849e-05
3.48447e-05
3.01722e-05
2.03005e-05
7.43253e-06
7.15893e-06
8.78426e-06
6.40114e-06
3.57855e-06
2.18022e-06
2.12523e-06
2.54183e-06
3.58484e-06
4.55261e-06
7.1007e-06
8.44699e-06
1.29017e-05
2.083e-05
2.2783e-05
6.39209e-06
7.20714e-06
8.27704e-06
9.36699e-06
1.02866e-05
1.09401e-05
1.13002e-05
1.13867e-05
1.1252e-05
1.09811e-05
1.07193e-05
1.06815e-05
1.10915e-05
1.2125e-05
1.3754e-05
1.5889e-05
1.89128e-05
2.3242e-05
2.78029e-05
3.07756e-05
3.16089e-05
3.12406e-05
3.12212e-05
3.28206e-05
3.57974e-05
3.85734e-05
3.93096e-05
3.75683e-05
3.4455e-05
3.1392e-05
2.89941e-05
2.7099e-05
2.54079e-05
2.38009e-05
2.22735e-05
2.08288e-05
1.94538e-05
1.81346e-05
1.68662e-05
1.56493e-05
1.44879e-05
1.3386e-05
1.23474e-05
1.13749e-05
1.04701e-05
9.63367e-06
8.86558e-06
8.16623e-06
7.53748e-06
6.98315e-06
6.50882e-06
6.12673e-06
5.85941e-06
5.71767e-06
5.68874e-06
5.83678e-06
6.42842e-06
7.60203e-06
9.53753e-06
1.31961e-05
1.7295e-05
1.90815e-05
1.87907e-05
1.92515e-05
2.21388e-05
2.72972e-05
3.42156e-05
4.21307e-05
4.92258e-05
5.26043e-05
5.04856e-05
4.35351e-05
3.36069e-05
2.34729e-05
1.79229e-05
2.39779e-05
4.06706e-05
5.89195e-05
6.8515e-05
6.5992e-05
5.61232e-05
4.45295e-05
3.58533e-05
3.08048e-05
2.13853e-05
8.12099e-06
6.36395e-06
8.63073e-06
6.56698e-06
3.70998e-06
2.17754e-06
2.0895e-06
2.53583e-06
3.62911e-06
4.66668e-06
7.16422e-06
8.77259e-06
1.27431e-05
2.12117e-05
2.30892e-05
5.03669e-06
5.69392e-06
6.51834e-06
7.35934e-06
8.08895e-06
8.64122e-06
8.99298e-06
9.14703e-06
9.13016e-06
9.00672e-06
8.9053e-06
9.02258e-06
9.56347e-06
1.06608e-05
1.23312e-05
1.4421e-05
1.67623e-05
1.95019e-05
2.29245e-05
2.67116e-05
3.00886e-05
3.2592e-05
3.43889e-05
3.56458e-05
3.61743e-05
3.56447e-05
3.41354e-05
3.21768e-05
3.03073e-05
2.86945e-05
2.72167e-05
2.57535e-05
2.42981e-05
2.28899e-05
2.15466e-05
2.02597e-05
1.90157e-05
1.78073e-05
1.6634e-05
1.54986e-05
1.44056e-05
1.33601e-05
1.2367e-05
1.14305e-05
1.05536e-05
9.73849e-06
8.98711e-06
8.30137e-06
7.68449e-06
7.14165e-06
6.67937e-06
6.30879e-06
6.05123e-06
5.92245e-06
5.9127e-06
6.05894e-06
6.58399e-06
7.68826e-06
9.43009e-06
1.27675e-05
1.7194e-05
1.98124e-05
1.9981e-05
2.02424e-05
2.27554e-05
2.76812e-05
3.45344e-05
4.25455e-05
5.00007e-05
5.41494e-05
5.30192e-05
4.67741e-05
3.70887e-05
2.69566e-05
2.07688e-05
2.57511e-05
4.29139e-05
6.16989e-05
7.10084e-05
6.78602e-05
5.77811e-05
4.63457e-05
3.70954e-05
3.14466e-05
2.23702e-05
8.93604e-06
5.52638e-06
8.3997e-06
6.68748e-06
3.82862e-06
2.16574e-06
2.03866e-06
2.52049e-06
3.66352e-06
4.79092e-06
7.21867e-06
9.11294e-06
1.2543e-05
2.1494e-05
2.3343e-05
4.37276e-06
4.89084e-06
5.51762e-06
6.15541e-06
6.71284e-06
7.13501e-06
7.3978e-06
7.50249e-06
7.47901e-06
7.39626e-06
7.37742e-06
7.59425e-06
8.21012e-06
9.30939e-06
1.08701e-05
1.28039e-05
1.49671e-05
1.72176e-05
1.95619e-05
2.20834e-05
2.46662e-05
2.70005e-05
2.87668e-05
2.98272e-05
3.01832e-05
2.99717e-05
2.94143e-05
2.86735e-05
2.77977e-05
2.67769e-05
2.56278e-05
2.4411e-05
2.31889e-05
2.19931e-05
2.08285e-05
1.96894e-05
1.8571e-05
1.74718e-05
1.63932e-05
1.53393e-05
1.43151e-05
1.33268e-05
1.23802e-05
1.14805e-05
1.06324e-05
9.83944e-06
9.1052e-06
8.43318e-06
7.82786e-06
7.29565e-06
6.84417e-06
6.48379e-06
6.23403e-06
6.11468e-06
6.12175e-06
6.27226e-06
6.73784e-06
7.76034e-06
9.35419e-06
1.23033e-05
1.68689e-05
2.03493e-05
2.11921e-05
2.1389e-05
2.34971e-05
2.81144e-05
3.48419e-05
4.29187e-05
5.07112e-05
5.5595e-05
5.54377e-05
4.99531e-05
4.06204e-05
3.05329e-05
2.36362e-05
2.7572e-05
4.5265e-05
6.4454e-05
7.32607e-05
6.9422e-05
5.92493e-05
4.82199e-05
3.86123e-05
3.21634e-05
2.32574e-05
9.80881e-06
4.66597e-06
8.09838e-06
6.76252e-06
3.93321e-06
2.14434e-06
1.97079e-06
2.49639e-06
3.68849e-06
4.92351e-06
7.26673e-06
9.46545e-06
1.23144e-05
2.16778e-05
2.35321e-05
3.81555e-06
4.22343e-06
4.69944e-06
5.1771e-06
5.59014e-06
5.8958e-06
6.07564e-06
6.13346e-06
6.09972e-06
6.0423e-06
6.07812e-06
6.36063e-06
7.01875e-06
8.10249e-06
9.57114e-06
1.13343e-05
1.3295e-05
1.5346e-05
1.73857e-05
1.93644e-05
2.12577e-05
2.29966e-05
2.4445e-05
2.55263e-05
2.62337e-05
2.65845e-05
2.65968e-05
2.62996e-05
2.57388e-05
2.49761e-05
2.40811e-05
2.31154e-05
2.21205e-05
2.11179e-05
2.0116e-05
1.91169e-05
1.81211e-05
1.71294e-05
1.61449e-05
1.51721e-05
1.42172e-05
1.32867e-05
1.23873e-05
1.15254e-05
1.07067e-05
9.93647e-06
9.21961e-06
8.56117e-06
7.96689e-06
7.44423e-06
7.002e-06
6.65029e-06
6.40641e-06
6.29289e-06
6.31353e-06
6.4727e-06
6.89036e-06
7.81796e-06
9.29946e-06
1.18498e-05
1.6326e-05
2.06177e-05
2.23552e-05
2.26934e-05
2.44026e-05
2.86291e-05
3.51516e-05
4.32437e-05
5.13353e-05
5.6903e-05
5.76855e-05
5.30005e-05
4.41205e-05
3.4121e-05
2.645e-05
2.94481e-05
4.77542e-05
6.71221e-05
7.51581e-05
7.06063e-05
6.05142e-05
5.01472e-05
4.04362e-05
3.30347e-05
2.40626e-05
1.06858e-05
3.80773e-06
7.73652e-06
6.79401e-06
4.0239e-06
2.11398e-06
1.8839e-06
2.46458e-06
3.70574e-06
5.06289e-06
7.31081e-06
9.82382e-06
1.20802e-05
2.17614e-05
2.36555e-05
3.34512e-06
3.66192e-06
4.01819e-06
4.36822e-06
4.66494e-06
4.87585e-06
4.98625e-06
5.00087e-06
4.9508e-06
4.90444e-06
4.97452e-06
5.29765e-06
5.97391e-06
7.02145e-06
8.38899e-06
9.99918e-06
1.17695e-05
1.36225e-05
1.54825e-05
1.72779e-05
1.89539e-05
2.04705e-05
2.17936e-05
2.28699e-05
2.36534e-05
2.41211e-05
2.42819e-05
2.41665e-05
2.38185e-05
2.32898e-05