/*--------------------------------*- C++ -*----------------------------------*\
| =========                 |                                                 |
| \\      /  F ield         | OpenFOAM: The Open Source CFD Toolbox           |
|  \\    /   O peration     | Version:  2.1.1                                 |
|   \\  /    A nd           | Web:      www.OpenFOAM.org                      |
|    \\/     M anipulation  |                                                 |
\*---------------------------------------------------------------------------*/
FoamFile
{
    version     2.0;
    format      ascii;
    class       volScalarField;
    location    "0.2";
    object      p;
}
// * * * * * * * * * * * * * * * * * * * * * * * * * * * * * * * * * * * * * //

dimensions      [0 2 -2 0 0 0 0];

internalField   nonuniform List<scalar> 
6820
(
9.07375
-8.76345
-11.7761
-11.9683
-12.147
-12.0804
-12.0313
-12.0522
-12.1086
-12.1853
-12.2738
-12.3687
-12.4677
-12.5697
-12.6741
-12.7805
-12.8888
-12.9988
-13.1105
-13.2238
-13.3386
-13.455
-13.5728
-13.6919
-13.8125
-13.934
-14.0565
-14.1792
-14.3022
-14.422
-14.5457
-14.6439
-14.7942
2.39331
-8.58148
-11.4641
-11.7694
-12.0281
-12.0578
-12.0453
-12.0774
-12.1356
-12.2094
-12.2939
-12.3852
-12.4812
-12.5808
-12.6833
-12.7884
-12.8957
-13.005
-13.1162
-13.2292
-13.3438
-13.4598
-13.5775
-13.6966
-13.8172
-13.939
-14.0617
-14.1849
-14.3085
-14.4306
-14.5565
-14.6733
-14.8478
-0.320176
-7.1498
-10.442
-11.2054
-11.6799
-11.8845
-11.9509
-12.0158
-12.0933
-12.1794
-12.2725
-12.3704
-12.4714
-12.5746
-12.6797
-12.7864
-12.8948
-13.0047
-13.1161
-13.2291
-13.3436
-13.4595
-13.577
-13.696
-13.8164
-13.938
-14.0612
-14.1855
-14.311
-14.4367
-14.5674
-14.695
-14.8484
-2.30443
-6.9213
-10.0187
-10.8833
-11.3615
-11.645
-11.7816
-11.8906
-11.9992
-12.1057
-12.2118
-12.3183
-12.4256
-12.5338
-12.6429
-12.7529
-12.864
-12.9762
-13.0895
-13.204
-13.3197
-13.4366
-13.5549
-13.6746
-13.7958
-13.9185
-14.043
-14.1693
-14.2985
-14.4315
-14.5729
-14.7241
-14.9076
-3.93864
-7.02039
-9.62544
-10.5341
-11.0479
-11.4106
-11.6171
-11.7656
-11.8985
-12.0215
-12.139
-12.2543
-12.3681
-12.4811
-12.5939
-12.7069
-12.8203
-12.9342
-13.0487
-13.164
-13.2802
-13.3974
-13.5159
-13.6357
-13.7571
-13.8804
-14.006
-14.1346
-14.2678
-14.4078
-14.5599
-14.7299
-14.937
-5.15976
-7.19978
-9.37293
-10.3222
-10.855
-11.2447
-11.4861
-11.6571
-11.806
-11.9416
-12.0684
-12.1905
-12.3099
-12.4273
-12.5435
-12.6589
-12.7741
-12.8892
-13.0045
-13.1202
-13.2366
-13.3537
-13.4719
-13.5914
-13.7126
-13.836
-13.9622
-14.0928
-14.2296
-14.3749
-14.5344
-14.7148
-14.9332
-6.10869
-7.4844
-9.25368
-10.1655
-10.6858
-11.0836
-11.355
-11.5514
-11.7181
-11.867
-12.0034
-12.1324
-12.2568
-12.3781
-12.4971
-12.6148
-12.7316
-12.8479
-12.964
-13.0802
-13.1967
-13.3138
-13.4317
-13.5509
-13.6718
-13.7951
-13.9216
-14.0527
-14.1903
-14.3371
-14.4982
-14.6797
-14.8933
-6.85262
-7.78848
-9.2003
-10.0474
-10.5561
-10.9553
-11.2452
-11.4587
-11.6372
-11.7954
-11.9391
-12.0737
-12.2026
-12.3274
-12.4493
-12.5691
-12.6876
-12.805
-12.9218
-13.0383
-13.1548
-13.2717
-13.3891
-13.5077
-13.6278
-13.7501
-13.8757
-14.0058
-14.1424
-14.2881
-14.447
-14.6233
-14.8248
-7.44249
-8.08973
-9.20798
-9.97471
-10.4608
-10.8482
-11.1443
-11.3692
-11.5574
-11.7241
-11.875
-12.0154
-12.1487
-12.2771
-12.4017
-12.5236
-12.6435
-12.762
-12.8794
-12.9961
-13.1125
-13.2289
-13.3457
-13.4633
-13.5823
-13.7033
-13.8273
-13.9556
-14.0897
-14.2318
-14.3846
-14.5513
-14.7358
-7.91613
-8.37249
-9.25321
-9.93114
-10.3881
-10.7594
-11.0562
-11.2887
-11.4843
-11.6572
-11.8136
-11.9585
-12.0955
-12.2267
-12.3536
-12.4772
-12.5983
-12.7176
-12.8354
-12.9521
-13.0682
-13.184
-13.2998
-13.4161
-13.5335
-13.6525
-13.7741
-13.8991
-14.029
-14.1653
-14.3098
-14.4641
-14.6299
-8.30042
-8.62905
-9.32216
-9.91284
-10.3372
-10.689
-10.9802
-11.2153
-11.4149
-11.5922
-11.7529
-11.9017
-12.042
-12.1759
-12.305
-12.4302
-12.5525
-12.6725
-12.7906
-12.9072
-13.0229
-13.1378
-13.2524
-13.3671
-13.4825
-13.599
-13.7174
-13.8384
-13.963
-14.0921
-14.2267
-14.3674
-14.5142
-8.61501
-8.85704
-9.40392
-9.91291
-10.3022
-10.6323
-10.9142
-11.1486
-11.3504
-11.5306
-11.6946
-11.8465
-11.9894
-12.1255
-12.2563
-12.3829
-12.5061
-12.6265
-12.7446
-12.861
-12.9759
-13.0897
-13.2028
-13.3156
-13.4284
-13.5419
-13.6564
-13.7725
-13.8908
-14.0118
-14.1357
-14.2624
-14.391
-8.87419
-9.05651
-9.49038
-9.92603
-10.2799
-10.5878
-10.8578
-11.0888
-11.2904
-11.4719
-11.6379
-11.792
-11.937
-12.0749
-12.2072
-12.3349
-12.4588
-12.5795
-12.6976
-12.8135
-12.9275
-13.04
-13.1514
-13.262
-13.372
-13.482
-13.5922
-13.7029
-13.8144
-13.9268
-14.0399
-14.153
-14.2648
-9.08851
-9.2289
-9.57586
-9.94757
-10.2671
-10.5526
-10.8093
-11.0346
-11.2345
-11.4161
-11.5832
-11.7388
-11.8854
-12.0247
-12.1582
-12.2867
-12.4111
-12.5319
-12.6497
-12.7649
-12.8778
-12.9888
-13.0982
-13.2062
-13.3132
-13.4193
-13.5247
-13.6297
-13.7341
-13.8378
-13.9403
-14.0408
-14.1375
-9.26581
-9.37618
-9.65643
-9.97358
-10.2608
-10.5247
-10.7675
-10.9857
-11.1826
-11.3631
-11.5304
-11.6869
-11.8344
-11.9748
-12.109
-12.2381
-12.3628
-12.4835
-12.6009
-12.7153
-12.827
-12.9363
-13.0435
-13.1487
-13.2523
-13.3544
-13.4549
-13.554
-13.6513
-13.7467
-13.8393
-13.9282
-14.0117
-9.41192
-9.50043
-9.72946
-10.0008
-10.2584
-10.5019
-10.7308
-10.9411
-11.134
-11.3126
-11.4794
-11.6361
-11.7842
-11.9252
-12.06
-12.1895
-12.3142
-12.4347
-12.5515
-12.6648
-12.7751
-12.8825
-12.9873
-13.0897
-13.1898
-13.2876
-13.3832
-13.4763
-13.5668
-13.6542
-13.7376
-13.8163
-13.8886
-9.53124
-9.60357
-9.79322
-10.0267
-10.2579
-10.4824
-10.6979
-10.9
-11.0882
-11.2644
-11.4301
-11.5865
-11.7349
-11.8762
-12.0113
-12.1409
-12.2655
-12.3856
-12.5016
-12.6138
-12.7225
-12.8279
-12.9303
-13.0296
-13.1261
-13.2197
-13.3104
-13.3978
-13.4818
-13.5618
-13.6371
-13.7068
-13.7695
-9.62707
-9.68727
-9.84661
-10.049
-10.2571
-10.4645
-10.6675
-10.8613
-11.0446
-11.218
-11.3822
-11.5381
-11.6863
-11.8277
-11.9629
-12.0924
-12.2167
-12.3363
-12.4514
-12.5623
-12.6693
-12.7727
-12.8724
-12.9687
-13.0616
-13.151
-13.2368
-13.3189
-13.3967
-13.47
-13.538
-13.6
-13.6549
-9.70188
-9.75291
-9.88888
-10.0662
-10.2544
-10.4466
-10.6382
-10.8242
-11.0026
-11.173
-11.3356
-11.4907
-11.6386
-11.7799
-11.915
-12.0444
-12.1683
-12.2872
-12.4013
-12.5109
-12.6162
-12.7173
-12.8145
-12.9077
-12.997
-13.0824
-13.1637
-13.2406
-13.313
-13.3802
-13.4419
-13.4975
-13.5459
-9.75747
-9.80153
-9.91954
-10.0767
-10.2483
-10.4273
-10.6088
-10.7878
-10.9615
-11.1291
-11.29
-11.4442
-11.5917
-11.7327
-11.8677
-11.9967
-12.1201
-12.2382
-12.3513
-12.4594
-12.5629
-12.6618
-12.7564
-12.8465
-12.9324
-13.0138
-13.0908
-13.163
-13.2303
-13.2922
-13.3485
-13.3985
-13.4417
-9.7951
-9.83388
-9.93817
-10.0795
-10.2374
-10.4054
-10.5783
-10.7511
-10.9208
-11.0857
-11.2452
-11.3985
-11.5457
-11.6865
-11.8213
-11.95
-12.073
-12.1903
-12.3023
-12.409
-12.5107
-12.6074
-12.6994
-12.7866
-12.8691
-12.9469
-13.0198
-13.0878
-13.1505
-13.2078
-13.2594
-13.3049
-13.3439
-9.81559
-9.85042
-9.94439
-10.0735
-10.2206
-10.3797
-10.5456
-10.7134
-10.8796
-11.0425
-11.2007
-11.3534
-11.5002
-11.6409
-11.7755
-11.9039
-12.0263
-12.1428
-12.2536
-12.3588
-12.4587
-12.5532
-12.6427
-12.727
-12.8063
-12.8806
-12.9497
-13.0137
-13.0724
-13.1256
-13.1731
-13.2148
-13.2503
-9.81931
-9.85128
-9.93773
-10.0578
-10.1967
-10.3491
-10.5098
-10.6738
-10.8376
-10.9991
-11.1567
-11.3092
-11.4561
-11.5969
-11.7315
-11.8598
-11.9818
-12.0976
-12.2074
-12.3112
-12.4093
-12.5018
-12.5888
-12.6705
-12.7467
-12.8177
-12.8835
-12.9439
-12.9989
-13.0485
-13.0925
-13.131
-13.1637
-9.8063
-9.8363
-9.9176
-10.0315
-10.1647
-10.3125
-10.4697
-10.6313
-10.7938
-10.9547
-11.1122
-11.2649
-11.4121
-11.5532
-11.6879
-11.816
-11.9376
-12.0527
-12.1614
-12.2638
-12.3602
-12.4506
-12.5352
-12.6141
-12.6875
-12.7554
-12.8179
-12.875
-12.9267
-12.973
-13.014
-13.0497
-13.08
-9.77618
-9.80502
-9.88328
-9.99357
-10.1237
-10.2691
-10.4249
-10.586
-10.7486
-10.9101
-11.0686
-11.2224
-11.3706
-11.5125
-11.6478
-11.7763
-11.8978
-12.0124
-12.1203
-12.2215
-12.3163
-12.4048
-12.4872
-12.5636
-12.6343
-12.6993
-12.7587
-12.8128
-12.8614
-12.9049
-12.9431
-12.9763
-13.0045
-9.72818
-9.75658
-9.83376
-9.94289
-10.0723
-10.2176
-10.3739
-10.5359
-10.6999
-10.863
-11.023
-11.1784
-11.328
-11.471
-11.607
-11.7358
-11.8573
-11.9714
-12.0784
-12.1784
-12.2716
-12.3581
-12.4383
-12.5123
-12.5803
-12.6425
-12.699
-12.7501
-12.796
-12.8366
-12.8723
-12.9033
-12.9296
-9.66105
-9.68978
-9.76788
-9.87851
-10.01
-10.158
-10.3174
-10.483
-10.6506
-10.8172
-10.9806
-11.1389
-11.2911
-11.4361
-11.5737
-11.7034
-11.8253
-11.9394
-12.0458
-12.1448
-12.2365
-12.3213
-12.3993
-12.4709
-12.5364
-12.5959
-12.6497
-12.698
-12.7411
-12.7791
-12.8123
-12.8409
-12.8651
-9.57302
-9.6028
-9.68378
-9.79833
-9.93427
-10.0871
-10.2515
-10.422
-10.5943
-10.7654
-10.9328
-11.0947
-11.2498
-11.3972
-11.5365
-11.6674
-11.7898
-11.9039
-12.0098
-12.1077
-12.1981
-12.281
-12.357
-12.4262
-12.4891
-12.5459
-12.597
-12.6425
-12.6828
-12.7182
-12.749
-12.7754
-12.7978
-9.46168
-9.49354
-9.58011
-9.7023
-9.84683
-10.0088
-10.1825
-10.3619
-10.5425
-10.7211
-10.8949
-11.0623
-11.2218
-11.3728
-11.5146
-11.6473
-11.7706
-11.885
-11.9905
-12.0875
-12.1764
-12.2576
-12.3314
-12.3982
-12.4585
-12.5125
-12.5607
-12.6034
-12.6409
-12.6735
-12.7015
-12.7253
-12.7452
-9.32356
-9.35822
-9.45245
-9.58449
-9.73934
-9.91178
-10.0959
-10.2852
-10.4751
-10.6621
-10.8434
-11.0172
-11.182
-11.3372
-11.4824
-11.6173
-11.7421
-11.857
-11.9624
-12.0587
-12.1463
-12.2257
-12.2974
-12.3618
-12.4194
-12.4706
-12.5159
-12.5556
-12.5902
-12.62
-12.6454
-12.6668
-12.6844
-9.15459
-9.19447
-9.30218
-9.45183
-9.62536
-9.81651
-10.0183
-10.2237
-10.4276
-10.6265
-10.8177
-10.9996
-11.1709
-11.3309
-11.4796
-11.6169
-11.743
-11.8583
-11.9633
-12.0585
-12.1445
-12.2218
-12.291
-12.3527
-12.4072
-12.4553
-12.4972
-12.5336
-12.5647
-12.5911
-12.6131
-12.6312
-12.6455
-8.94745
-8.99198
-9.11347
-9.28004
-9.47089
-9.6801
-9.90029
-10.1233
-10.3435
-10.5571
-10.7612
-10.9539
-11.134
-11.3011
-11.4551
-11.596
-11.7245
-11.841
-11.9461
-12.0406
-12.1252
-12.2006
-12.2674
-12.3262
-12.3778
-12.4226
-12.4613
-12.4942
-12.522
-12.5451
-12.5639
-12.579
-12.5906
-8.69704
-8.75609
-8.91001
-9.11417
-9.34027
-9.58126
-9.82913
-10.0754
-10.3148
-10.544
-10.7608
-10.9636
-11.1516
-11.3245
-11.4826
-11.6262
-11.756
-11.8727
-11.9771
-12.0701
-12.1524
-12.2249
-12.2884
-12.3436
-12.3912
-12.4318
-12.4661
-12.4946
-12.5178
-12.5363
-12.5506
-12.561
-12.5678
-8.38142
-8.44286
-8.61661
-8.84713
-9.10343
-9.37893
-9.6621
-9.94126
-10.21
-10.4647
-10.7027
-10.9225
-11.1238
-11.3067
-11.472
-11.6203
-11.7529
-11.8707
-11.975
-12.0668
-12.1472
-12.2171
-12.2775
-12.3293
-12.3732
-12.41
-12.4403
-12.4648
-12.4839
-12.4984
-12.5087
-12.5154
-12.5189
-8.01085
-8.12735
-8.38623
-8.68747
-8.99432
-9.30977
-9.62515
-9.92998
-10.2198
-10.492
-10.7445
-10.9761
-11.1867
-11.3766
-11.5466
-11.6978
-11.8314
-11.9488
-12.0513
-12.1401
-12.2167
-12.282
-12.3373
-12.3835
-12.4215
-12.4522
-12.4762
-12.4942
-12.5068
-12.5146
-12.5182
-12.5181
-12.5148
-7.47328
-7.56359
-7.85984
-8.2284
-8.61559
-9.01404
-9.40327
-9.76957
-10.1094
-10.4208
-10.7029
-10.9562
-11.1822
-11.3826
-11.5593
-11.7144
-11.8496
-11.967
-12.0682
-12.1548
-12.2285
-12.2905
-12.342
-12.3842
-12.4181
-12.4443
-12.4638
-12.4772
-12.4849
-12.4878
-12.4862
-12.4809
-12.4728
-6.97011
-7.29163
-7.75706
-8.17235
-8.57813
-9.00171
-9.41493
-9.80441
-10.1686
-10.504
-10.8076
-11.079
-11.3191
-11.5296
-11.7124
-11.8699
-12.0046
-12.1188
-12.2148
-12.2947
-12.3604
-12.4137
-12.456
-12.4886
-12.5128
-12.5294
-12.5392
-12.5428
-12.5408
-12.5336
-12.5213
-12.5048
-12.4842
-5.66112
-5.98158
-6.75194
-7.44777
-8.07951
-8.68027
-9.21816
-9.69311
-10.1156
-10.4895
-10.8184
-11.1065
-11.358
-11.576
-11.7639
-11.9246
-12.0608
-12.1751
-12.27
-12.3477
-12.4103
-12.4596
-12.4974
-12.525
-12.5438
-12.5546
-12.5584
-12.5556
-12.5463
-12.5308
-12.5081
-12.4793
-12.4393
-5.64371
-6.38725
-6.98776
-7.44928
-8.04293
-8.66922
-9.25166
-9.79296
-10.287
-10.7233
-11.1011
-11.424
-11.6962
-11.9227
-12.1089
-12.26
-12.381
-12.4763
-12.5498
-12.6049
-12.6447
-12.6716
-12.6878
-12.6952
-12.6952
-12.6891
-12.6777
-12.6615
-12.6407
-12.6142
-12.5796
-12.5333
-12.4626
0.615327
-3.99178
-5.77173
-6.61676
-7.61233
-8.48081
-9.17303
-9.77203
-10.2943
-10.7403
-11.1191
-11.4392
-11.707
-11.9288
-12.1106
-12.2578
-12.3755
-12.4679
-12.539
-12.5921
-12.6301
-12.6556
-12.6706
-12.6769
-12.6762
-12.6697
-12.6585
-12.6434
-12.6256
-12.6045
-12.5831
-12.5557
-12.5351
-14.6462
-15.4519
-17.2706
-19.3137
-21.1871
-22.4621
-22.8867
-22.2921
-20.4124
-16.9566
-12.0283
-6.50048
-1.58665
1.5646
2.47745
1.05329
-2.71118
-8.19864
-14.8611
-22.1305
-29.4316
-36.2952
-42.3268
-47.1349
-50.3116
-51.6149
-51.0098
-48.7796
-45.2647
-40.732
-35.4891
-29.9756
-24.6441
-19.7769
-15.4705
-11.7339
-8.55203
-5.89667
-3.72441
-1.98011
-0.604081
0.462262
1.27285
1.8752
2.30981
2.61049
2.80501
2.91598
2.96175
2.95717
2.91415
2.84214
2.74836
2.63788
2.51373
2.37749
2.22858
2.06288
1.87249
1.6331
1.29318
0.7917
0.0803706
-0.895399
-2.24965
-4.19423
-7.05374
-11.3413
-17.8428
-27.5544
-40.7121
-55.003
-66.5533
-72.0656
-70.2597
-60.919
-46.6335
-31.2592
-18.4942
-9.9459
-4.9828
-2.26647
-0.798631
0.0836236
0.764356
1.27287
1.57288
1.68763
1.70537
1.67735
1.629
1.56828
1.51448
1.45175
1.42244
1.34493
1.34597
1.15948
1.08321
0.639896
-14.9186
-15.6265
-17.2821
-19.2058
-20.9316
-22.0518
-22.3362
-21.6151
-19.6598
-16.2793
-11.6592
-6.57995
-2.07748
0.854088
1.66761
0.264034
-3.1986
-8.32667
-14.508
-21.2216
-27.9981
-34.3994
-40.0278
-44.5022
-47.4661
-48.7515
-48.3484
-46.424
-43.1782
-38.8544
-33.8409
-28.644
-23.6835
-19.1633
-15.1378
-11.6134
-8.58477
-6.03455
-3.92919
-2.22263
-0.863057
0.201618
1.02031
1.63682
2.08904
2.40895
2.62316
2.75353
2.81795
2.83097
2.80434
2.74741
2.66734
2.56927
2.45624
2.32988
2.18975
2.03182
1.84847
1.61649
1.28402
0.788391
0.0805137
-0.891649
-2.23599
-4.15706
-6.97188
-11.1789
-17.5361
-26.9907
-39.7451
-53.581
-64.7901
-70.1795
-68.5521
-59.5974
-45.7447
-30.7284
-18.2074
-9.8121
-4.93772
-2.26373
-0.821923
0.0224002
0.676344
1.18906
1.50708
1.63733
1.66619
1.64696
1.60506
1.55007
1.4986
1.44105
1.40666
1.3418
1.31375
1.1829
0.982757
0.814685
-15.0318
-15.8034
-17.3006
-18.9925
-20.456
-21.3641
-21.4888
-20.6582
-18.7018
-15.5353
-11.3931
-6.94342
-3.04379
-0.484983
0.303214
-0.93741
-4.09813
-8.77967
-14.4673
-20.6263
-26.8205
-32.681
-37.8512
-41.9791
-44.7686
-46.0698
-45.8274
-44.0838
-40.9831
-36.8323
-32.1066
-27.303
-22.7473
-18.571
-14.8132
-11.4903
-8.60951
-6.16286
-4.12506
-2.45792
-1.11687
-0.0558885
0.76914
1.39838
1.8671
2.20547
2.43887
2.58835
2.67129
2.70191
2.69175
2.65003
2.58386
2.4984
2.39673
2.28048
2.1493
1.99931
1.82297
1.59827
1.27408
0.78669
0.0857072
-0.879378
-2.21045
-4.10363
-6.86648
-10.9802
-17.1698
-26.3267
-38.6201
-51.9411
-62.764
-68.0178
-66.565
-58.0229
-44.6531
-30.0589
-17.8394
-9.63168
-4.86181
-2.23861
-0.82641
-0.0213003
0.600547
1.11102
1.44382
1.58828
1.62736
1.6164
1.58063
1.53121
1.48188
1.42948
1.38974
1.33781
1.28017
1.20601
0.880732
0.983812
-15.1898
-15.9129
-17.1415
-18.5238
-19.6986
-20.3769
-20.3463
-19.4621
-17.6209
-14.8182
-11.2915
-7.57473
-4.3303
-2.16458
-1.46841
-2.49084
-5.25591
-9.46041
-14.6245
-20.2562
-25.9189
-31.258
-35.9628
-39.7583
-42.3915
-43.6475
-43.3887
-41.6405
-38.6152
-34.7011
-30.3695
-26.0132
-21.8574
-18.0015
-14.493
-11.3621
-8.62516
-6.28112
-4.31153
-2.68543
-1.36491
-0.309631
0.519917
1.16039
1.64445
2.00044
2.25244
2.42068
2.52195
2.57011
2.57646
2.55008
2.498
2.42536
2.33531
2.22945
2.10743
1.96556
1.79639
1.57948
1.26516
0.788897
0.0984151
-0.855938
-2.16985
-4.02978
-6.73193
-10.7378
-16.7342
-25.5515
-37.3287
-50.0828
-60.486
-65.598
-64.3198
-56.2156
-43.3753
-29.2621
-17.3973
-9.4088
-4.75664
-2.18999
-0.80966
-0.045272
0.538773
1.04025
1.38356
1.54047
1.58893
1.58575
1.55583
1.5118
1.46444
1.41715
1.3719
1.33303
1.24574
1.22859
0.779369
1.14711
-15.2503
-15.8751
-16.8413
-17.9038
-18.7759
-19.2255
-19.0801
-18.2244
-16.5949
-14.2203
-11.3078
-8.27471
-5.63895
-3.88606
-3.33799
-4.19867
-6.53409
-10.1935
-14.8109
-19.9279
-25.113
-30.0083
-34.3159
-37.7875
-40.1522
-41.1688
-40.7415
-38.9694
-36.1232
-32.579
-28.7099
-24.7964
-21.0106
-17.4504
-14.1767
-11.2298
-8.63275
-6.38979
-4.48871
-2.90502
-1.60687
-0.559247
0.273041
0.92323
1.42144
1.79413
2.06411
2.25068
2.37005
2.43565
2.45853
2.44757
2.40971
2.35007
2.27183
2.17659
2.06395
1.93041
1.76863
1.55993
1.25698
0.794853
0.118883
-0.820388
-2.1124
-3.93274
-6.5643
-10.4464
-16.2245
-24.6651
-35.8808
-48.0254
-57.9784
-62.9384
-61.8329
-54.1883
-41.9208
-28.3459
-16.8882
-9.14981
-4.62702
-2.1213
-0.774408
-0.0509539
0.491119
0.977449
1.32686
1.4943
1.55114
1.55514
1.5307
1.49183
1.44625
1.40398
1.3531
1.3273
1.21056
1.24999
0.679903
1.30229
-15.2476
-15.7779
-16.5203
-17.313
-17.941
-18.2222
-18.0153
-17.2244
-15.807
-13.8049
-11.3963
-8.91345
-6.76758
-5.3625
-4.97177
-5.75213
-7.75356
-10.8856
-14.9015
-19.4447
-24.1231
-28.5724
-32.4814
-35.5539
-37.5501
-38.3195
-37.8265
-36.2
-33.6889
-30.5873
-27.1701
-23.6567
-20.2039
-16.9163
-13.864
-11.0937
-8.63241
-6.48893
-4.6565
-3.11642
-1.84239
-0.804284
0.0289765
0.687357
1.19846
1.58692
1.87417
2.07861
2.21577
2.29867
2.33803
2.34256
2.31905
2.27257
2.20634
2.12196
2.01896
1.89397
1.7398
1.53957
1.24912
0.803853
0.146537
-0.772925
-2.03802
-3.81251
-6.36404
-10.1076
-15.6446
-23.6767
-34.2931
-45.7912
-55.2658
-60.064
-59.1307
-51.964
-40.3081
-27.3242
-16.3224
-8.86212
-4.47762
-2.0347
-0.721537
-0.0384424
0.458361
0.923503
1.27424
1.45001
1.51416
1.5247
1.50535
1.47138
1.42739
1.38999
1.3334
1.3205
1.17482
1.26951
0.583268
1.44606
-15.1876
-15.6338
-16.2098
-16.8033
-17.2516
-17.409
-17.1608
-16.4318
-15.1979
-13.5071
-11.5125
-9.48023
-7.739
-6.61437
-6.33707
-7.05012
-8.79362
-11.4859
-14.932
-18.857
-22.9416
-26.8583
-30.2934
-32.963
-34.693
-35.3689
-34.9743
-33.6114
-31.4695
-28.7746
-25.7484
-22.5842
-19.432
-16.3982
-13.5559
-10.9548
-8.6248
-6.5789
-4.815
-3.31954
-2.07121
-1.0444
-0.211885
0.45316
0.9759
1.37911
1.6829
1.90468
2.0593
2.1593
2.21507
2.23509
2.22601
2.19283
2.13877
2.06546
1.97235
1.85619
1.70994
1.51846
1.24146
0.815606
0.181135
-0.713475
-1.94635
-3.66877
-6.13139
-9.723
-14.999
-22.5957
-32.5821
-43.4038
-52.3772
-57.0049
-56.2429
-49.5684
-38.5585
-26.214
-15.7125
-8.55468
-4.31438
-1.93365
-0.653171
-0.00902484
0.440335
0.878918
1.22619
1.40788
1.47818
1.49456
1.47984
1.45049
1.40787
1.37517
1.31285
1.3125
1.13873
1.28654
0.490612
1.57592
-15.0919
-15.4663
-15.9137
-16.3524
-16.6605
-16.7243
-16.4543
-15.7932
-14.7282
-13.3081
-11.6627
-10.0069
-8.6037
-7.71479
-7.53398
-8.18509
-9.70193
-12.0178
-14.9713
-18.3333
-21.8386
-25.2112
-28.1866
-30.5356
-32.0902
-32.7363
-32.4536
-31.3192
-29.4804
-27.1197
-24.4261
-21.5713
-18.6942
-15.8972
-13.2533
-10.8135
-8.61041
-6.66
-4.96432
-3.51429
-2.29309
-1.27925
-0.449159
0.221035
0.754125
1.17107
1.4906
1.72915
1.90084
2.01769
2.08976
2.12525
2.13066
2.1109
2.06918
2.00713
1.92418
1.81714
1.67917
1.49671
1.23384
0.829658
0.222208
-0.64217
-1.83711
-3.50112
-5.86637
-9.29374
-14.2917
-21.4322
-30.7667
-40.8911
-49.3465
-53.7964
-53.2045
-47.0329
-36.6983
-25.0359
-15.0736
-8.2376
-4.14376
-1.82174
-0.571277
0.0362191
0.436979
0.844133
1.18314
1.3682
1.4434
1.46486
1.45429
1.42921
1.38775
1.35951
1.29152
1.30318
1.10252
1.30045
0.402976
1.68981
-14.9719
-15.282
-15.6273
-15.9468
-16.1498
-16.1485
-15.8728
-15.2802
-14.3663
-13.1782
-11.8263
-10.4842
-9.3624
-8.67128
-8.57309
-9.17168
-10.4962
-12.4933
-15.0313
-17.9193
-20.9337
-23.8418
-26.4249
-28.4832
-29.8558
-30.4442
-30.231
-29.2703
-27.6753
-25.5958
-23.1926
-20.6159
-17.9908
-15.414
-12.9569
-10.6708
-8.58989
-6.73271
-5.1047
-3.7007
-2.50789
-1.50858
-0.682513
-0.0086556
0.533497
0.963111
1.29757
1.55226
1.74058
1.87402
1.96221
2.01312
2.03305
2.0268
1.99754
1.94694
1.87442
1.77683
1.64756
1.47442
1.22614
0.84545
0.268995
-0.55956
-1.71049
-3.30971
-5.56974
-8.82224
-13.5285
-20.1983
-28.8687
-38.2844
-46.2113
-50.4777
-50.0543
-44.3928
-34.7577
-23.8143
-14.4228
-7.92205
-3.97289
-1.70321
-0.478322
0.0956801
0.447697
0.819281
1.14543
1.3312
1.41001
1.43574
1.4288
1.4076
1.36708
1.34301
1.26946
1.29242
1.06639
1.3107
0.321257
1.78598
-14.8352
-15.0902
-15.3556
-15.5846
-15.7097
-15.6635
-15.393
-14.8676
-14.0892
-13.1015
-11.9974
-10.9173
-10.0298
-9.50388
-9.47314
-10.0243
-11.1831
-12.9073
-15.0896
-17.5721
-20.167
-22.6763
-24.9078
-26.6903
-27.8883
-28.416
-28.2487
-27.4231
-26.0296
-24.1914
-22.0439
-19.7167
-17.3218
-14.9492
-12.6674
-10.5274
-8.56392
-6.79751
-5.23641
-3.87883
-2.71551
-1.73217
-0.911646
-0.235574
0.314361
0.755577
1.10409
1.37428
1.57877
1.72845
1.83258
1.89881
1.93327
1.9406
1.92393
1.88494
1.82311
1.73534
1.61524
1.45178
1.21829
0.862421
0.320539
-0.46656
-1.5671
-3.09514
-5.24291
-8.31185
-12.7168
-18.908
-26.9114
-35.6167
-43.0114
-47.0911
-46.8346
-41.687
-32.7708
-22.5765
-13.7792
-7.61989
-3.80927
-1.58267
-0.37702
0.167594
0.47175
0.804316
1.11329
1.2971
1.3782
1.40736
1.40348
1.38573
1.34592
1.32568
1.24675
1.28012
1.03054
1.31681
0.246198
1.86325
-14.6902
-14.8982
-15.1003
-15.2607
-15.3289
-15.2545
-14.9975
-14.5372
-13.8792
-13.0632
-12.1669
-11.3042
-10.61
-10.2201
-10.2436
-10.7523
-11.7681
-13.257
-15.1317
-17.2619
-19.4898
-21.6471
-23.5681
-25.1079
-26.1479
-26.6101
-26.4689
-25.7512
-24.5276
-22.898
-20.9755
-18.8719
-16.6869
-14.5031
-12.3858
-10.3842
-8.53326
-6.85499
-5.35984
-4.04887
-2.91594
-1.94986
-1.13631
-0.459417
0.0970421
0.548784
0.910489
1.19549
1.41562
1.5812
1.70104
1.78247
1.83142
1.85236
1.8484
1.82118
1.77028
1.6927
1.5823
1.42896
1.21034
0.880018
0.375676
-0.364513
-1.40804
-2.85848
-4.88772
-7.76652
-11.8643
-17.576
-24.9186
-32.9215
-39.7878
-43.6806
-43.5893
-38.9572
-30.7749
-21.3525
-13.1631
-7.34332
-3.66058
-1.46511
-0.270532
0.249767
0.507947
0.798886
1.0868
1.26606
1.34813
1.37986
1.37844
1.36369
1.32434
1.30751
1.22344
1.26617
0.995161
1.3184
0.17833
1.92111
-14.5406
-14.7091
-14.8619
-14.9713
-14.9998
-14.9097
-14.672
-14.2731
-13.7213
-13.0519
-12.33
-11.6474
-11.1125
-10.8338
-10.8999
-11.3693
-12.2603
-13.5456
-15.154
-16.9777
-18.8848
-20.7327
-22.3804
-23.7028
-24.5966
-24.9938
-24.8686
-24.2384
-23.1576
-21.7076
-19.983
-18.0797
-16.0857
-14.0764
-12.1127
-10.2419
-8.49874
-6.90581
-5.47542
-4.21104
-3.10924
-2.16157
-1.35631
-0.679919
-0.118161
0.343041
0.717049
1.01616
1.2514
1.43249
1.56777
1.66425
1.72762
1.76221
1.77104
1.75573
1.71601
1.649
1.54883
1.40617
1.2024
0.897755
0.433079
-0.255235
-1.23506
-2.60139
-4.50658
-7.19079
-10.9798
-16.2171
-22.9142
-30.2322
-36.5812
-40.2903
-40.3634
-36.247
-28.8096
-20.1741
-12.5952
-7.10446
-3.53445
-1.35588
-0.162478
0.339615
0.554727
0.802357
1.06585
1.23818
1.31994
1.35339
1.35381
1.34155
1.30241
1.28853
1.19961
1.2505
0.960399
1.31519
0.117929
1.95974
-14.3912
-14.527
-14.6417
-14.7136
-14.7152
-14.6188
-14.4037
-14.062
-13.6032
-13.0586
-12.4821
-11.9481
-11.5432
-11.354
-11.4521
-11.8847
-12.6668
-13.776
-15.154
-16.7118
-18.3393
-19.916
-21.3226
-22.4513
-23.2129
-23.5472
-23.4288
-22.8681
-21.9075
-20.6126
-19.0622
-17.3382
-15.518
-13.6694
-11.849
-10.1017
-8.4612
-6.95068
-5.58369
-4.36567
-3.29553
-2.36726
-1.5715
-0.896858
-0.330978
0.138639
0.524065
0.836563
1.08636
1.28254
1.43298
1.54433
1.62203
1.67028
1.69197
1.68872
1.66039
1.60431
1.51494
1.38358
1.19467
0.91528
0.491347
-0.141006
-1.05066
-2.32626
-4.10246
-6.58962
-10.072
-14.8464
-20.9211
-27.5802
-33.4304
-36.963
-37.2016
-33.6011
-26.9163
-19.0737
-12.0961
-6.91486
-3.43832
-1.26061
-0.0570515
0.434002
0.610026
0.813745
1.05018
1.21347
1.29376
1.3281
1.32972
1.31939
1.2802
1.26874
1.17533
1.23304
0.926395
1.307
0.0650092
1.98001
-14.2439
-14.3532
-14.4387
-14.4839
-14.4686
-14.3728
-14.1821
-13.8928
-13.5151
-13.0761
-12.6205
-12.2084
-11.909
-11.791
-11.9123
-12.3098
-12.9961
-13.9524
-15.1308
-16.458
-17.842
-19.1817
-20.3762
-21.3327
-21.9746
-22.2487
-22.1308
-21.6262
-20.7671
-19.6064
-18.2094
-16.6458
-14.9832
-13.2824
-11.5954
-9.96425
-8.42155
-6.99038
-5.68524
-4.51316
-3.47503
-2.56698
-1.7818
-1.11006
-0.541174
-0.0641505
0.331825
0.656997
0.920781
1.13162
1.2969
1.42292
1.51486
1.57673
1.61135
1.62029
1.60355
1.55876
1.48072
1.36134
1.18742
0.932441
0.549146
-0.0244782
-0.858138
-2.03644
-3.67901
-5.96835
-9.14977
-13.4778
-18.9602
-24.9945
-30.3709
-33.7389
-34.1472
-31.0643
-25.1371
-18.0832
-11.6846
-6.78515
-3.37943
-1.1853
0.0408927
0.529161
0.671212
0.831679
1.03927
1.19187
1.26969
1.30411
1.30628
1.2973
1.25778
1.24818
1.15065
1.21372
0.893247
1.29378
0.0193447
1.98339
-14.1013
-14.1894
-14.253
-14.2798
-14.255
-14.1644
-13.9986
-13.7567
-13.449
-13.0988
-12.743
-12.4303
-12.2155
-12.1533
-12.2892
-12.6538
-13.2554
-14.0788
-15.0845
-16.2118
-17.3843
-18.5173
-19.5255
-20.3298
-20.8642
-21.082
-20.9603
-20.5006
-19.7273
-18.6827
-17.4207
-16.0006
-14.4809
-12.9159
-11.3527
-9.83062
-8.38073
-7.02575
-5.78075
-4.65399
-3.64802
-2.76087
-1.98719
-1.3194
-0.748551
-0.265082
0.140602
0.477742
0.754941
0.98
1.15981
1.30027
1.40631
1.48176
1.52936
1.55061
1.54566
1.51247
1.44628
1.33957
1.18091
0.94931
0.605378
0.091503
-0.661648
-1.73637
-3.24079
-5.33263
-8.22153
-12.1244
-17.0502
-22.5003
-27.4344
-30.6544
-31.2414
-28.6809
-23.5128
-17.2319
-11.3773
-6.72485
-3.36495
-1.13646
0.125726
0.620587
0.73498
0.854349
1.03239
1.17321
1.24778
1.28155
1.28363
1.27537
1.23525
1.22687
1.12562
1.19252
0.861024
1.27555
-0.0194507
1.97166
-13.9642
-14.0355
-14.0832
-14.0978
-14.0689
-13.9866
-13.8452
-13.6457
-13.398
-13.1221
-12.8484
-12.6159
-12.4684
-12.4489
-12.5936
-12.926
-13.4525
-14.16
-15.016
-15.9703
-16.9594
-17.9126
-18.7578
-19.4279
-19.8662
-20.0319
-19.9036
-19.4801
-18.7795
-17.8356
-16.6927
-15.4008
-14.0106
-12.5699
-11.1215
-9.70171
-8.33971
-7.05767
-5.87095
-4.78872
-3.8149
-2.94912
-2.18774
-1.52483
-0.952956
-0.463938
-0.0493444
0.299081
0.589137
0.827974
1.02197
1.17666
1.29666
1.38563
1.44623
1.47991
1.48694
1.46562
1.41172
1.31834
1.17539
0.966177
0.659367
0.204217
-0.465997
-1.43184
-2.79359
-4.68866
-7.29525
-10.7974
-15.2068
-20.1186
-24.6467
-27.7411
-28.5228
-26.4934
-22.0817
-16.5442
-11.1871
-6.7426
-3.40253
-1.1214
0.190916
0.70297
0.797304
0.879499
1.02858
1.15721
1.22805
1.26054
1.26188
1.25371
1.21266
1.20483
1.10028
1.16941
0.829745
1.25243
-0.0518278
1.94662
-13.8338
-13.8923
-13.9285
-13.9357
-13.9066
-13.8344
-13.7161
-13.554
-13.3572
-13.143
-12.9361
-12.7679
-12.6731
-12.6854
-12.8332
-13.1346
-13.5941
-14.2007
-14.927
-15.7316
-16.562
-17.3591
-18.0622
-18.6145
-18.9675
-19.0857
-18.9491
-18.5549
-17.9162
-17.0598
-16.0219
-14.8447
-13.5716
-12.2448
-10.9027
-9.57845
-8.29949
-7.08711
-5.95667
-4.91801
-3.97612
-3.13202
-2.38357
-1.72633
-1.15428
-0.660532
-0.237771
0.121297
0.423673
0.675858
0.883719
1.05239
1.1862
1.28863
1.36222
1.40843
1.42763
1.41842
1.37719
1.29772
1.171
0.983464
0.710991
0.311489
-0.276231
-1.12997
-2.34497
-4.0437
-6.37861
-9.50599
-13.442
-17.8656
-22.0282
-25.0266
-26.0269
-24.5414
-20.8761
-16.0375
-11.1236
-6.84707
-3.50118
-1.14884
0.228881
0.770198
0.853529
0.904467
1.02669
1.14353
1.21048
1.24116
1.24117
1.23241
1.19012
1.18211
1.07468
1.14439
0.7994
1.2246
-0.0781994
1.90981
-13.7102
-13.7589
-13.7872
-13.7905
-13.7636
-13.7023
-13.6054
-13.4758
-13.3221
-13.1586
-13.0057
-12.8884
-12.834
-12.8692
-13.0157
-13.2873
-13.6871
-14.2054
-14.8194
-15.4948
-16.188
-16.8498
-17.4294
-17.8788
-18.1565
-18.2318
-18.0864
-17.7161
-17.1304
-16.3501
-15.4051
-14.3304
-13.1633
-11.9407
-10.6968
-9.46177
-8.26109
-7.11506
-6.03881
-5.04258
-4.13225
-3.30997
-2.57491
-1.92398
-1.35248
-0.854716
-0.424456
-0.0553341
0.258863
0.523992
0.745398
0.927816
1.07529
1.19108
1.27766
1.33648
1.368
1.37114
1.34288
1.27778
1.16781
1.00159
0.760678
0.412116
-0.0968905
-0.838811
-1.90465
-3.40712
-5.47997
-8.25816
-11.7644
-15.752
-19.5952
-22.5341
-23.7857
-22.8596
-19.9185
-15.7211
-11.1942
-7.04872
-3.67265
-1.22949
0.230797
0.815437
0.899003
0.92632
1.02542
1.13173
1.19501
1.22351
1.22159
1.21155
1.16767
1.15871
1.04881
1.11745
0.76992
1.19223
-0.0989111
1.86229
-13.5939
-13.6354
-13.6586
-13.6603
-13.6373
-13.587
-13.5094
-13.4078
-13.2898
-13.1676
-13.0578
-12.9802
-12.9563
-13.0068
-13.1484
-13.3916
-13.7379
-14.1788
-14.6954
-15.2593
-15.8342
-16.3792
-16.8519
-17.2116
-17.4234
-17.4604
-17.3061
-16.9557
-16.4155
-15.7019
-14.8391
-13.8562
-12.7851
-11.6578
-10.5045
-9.35259
-8.22557
-7.14258
-6.11834
-5.16329
-4.28394
-3.48343
-2.76205
-2.11793
-1.54756
-1.04639
-0.609199
-0.230541
0.0950321
0.372735
0.607393
0.803334
0.964305
1.09338
1.19292
1.26439
1.30838
1.32407
1.309
1.25859
1.1658
1.02085
0.809236
0.506155
0.0689743
-0.566181
-1.48438
-2.79162
-4.6104
-7.06207
-10.18
-13.7814
-17.3603
-20.285
-21.829
-21.4739
-19.2178
-15.5975
-11.4076
-7.36246
-3.93299
-1.37689
0.1864
0.831167
0.929168
0.942004
1.02344
1.12136
1.18155
1.20763
1.20326
1.19125
1.1454
1.1347
1.02268
1.08862
0.741232
1.15556
-0.114244
1.80478
-13.4842
-13.5203
-13.5404
-13.5422
-13.5238
-13.484
-13.4235
-13.3456
-13.2571
-13.1682
-13.0922
-13.045
-13.0434
-13.1032
-13.2373
-13.4532
-13.7515
-14.1248
-14.5571
-15.0248
-15.4978
-15.9423
-16.3227
-16.605
-16.7594
-16.7627
-16.6002
-16.2665
-15.7659
-15.1109
-14.321
-13.4204
-12.4362
-11.3959
-10.3263
-9.25186
-8.19404
-7.1708
-6.19631
-5.28104
-4.43197
-3.65299
-2.94541
-2.30841
-1.7396
-1.23548
-0.79183
-0.40406
-0.067484
0.222475
0.470124
0.679386
0.853709
0.995973
1.10845
1.19259
1.24914
1.27755
1.27587
1.24034
1.16498
1.04132
0.857508
0.594807
0.220629
-0.317809
-1.09628
-2.2138
-3.78679
-5.93143
-8.69766
-11.9587
-15.337
-18.3056
-20.1839
-20.3935
-18.7696
-15.6684
-11.7784
-7.81057
-4.30423
-1.60825
0.0838871
0.808962
0.938794
0.948614
1.01954
1.112
1.16999
1.19355
1.18626
1.17154
1.12332
1.11002
0.996222
1.05785
0.713185
1.11476
-0.124514
1.73779
-13.3819
-13.4142
-13.4325
-13.4354
-13.422
-13.3918
-13.3459
-13.2877
-13.2232