/*--------------------------------*- C++ -*----------------------------------*\
| =========                 |                                                 |
| \\      /  F ield         | OpenFOAM: The Open Source CFD Toolbox           |
|  \\    /   O peration     | Version:  2.1.1                                 |
|   \\  /    A nd           | Web:      www.OpenFOAM.org                      |
|    \\/     M anipulation  |                                                 |
\*---------------------------------------------------------------------------*/
FoamFile
{
    version     2.0;
    format      ascii;
    class       surfaceScalarField;
    location    "0.2";
    object      phi;
}
// * * * * * * * * * * * * * * * * * * * * * * * * * * * * * * * * * * * * * //

dimensions      [0 3 -1 0 0 0 0];

internalField   nonuniform List<scalar> 
13452
(
4.6e-05
2.24873e-05
2.96677e-05
1.63323e-05
2.11954e-05
8.47236e-06
1.72986e-05
3.89673e-06
1.56616e-05
1.63701e-06
1.48596e-05
8.02004e-07
1.43558e-05
5.03786e-07
1.39733e-05
3.82481e-07
1.36522e-05
3.2119e-07
1.33769e-05
2.75274e-07
1.3143e-05
2.33849e-07
1.29468e-05
1.96228e-07
1.2784e-05
1.6279e-07
1.26504e-05
1.33572e-07
1.25422e-05
1.0819e-07
1.24562e-05
8.60456e-08
1.23897e-05
6.65268e-08
1.23406e-05
4.90913e-08
1.23073e-05
3.33151e-08
1.22885e-05
1.87584e-08
1.22835e-05
5.02733e-09
1.22911e-05
-7.56771e-09
1.23105e-05
-1.94555e-08
1.23413e-05
-3.07562e-08
1.23826e-05
-4.13117e-08
1.24336e-05
-5.09919e-08
1.24933e-05
-5.97707e-08
1.25595e-05
-6.61424e-08
1.2631e-05
-7.15225e-08
1.26959e-05
-6.49229e-08
1.27613e-05
-6.54012e-08
1.27283e-05
3.29798e-08
-8.34289e-08
1.28118e-05
7.49139e-05
1.80173e-05
7.04176e-05
2.08285e-05
6.3335e-05
1.5555e-05
5.66897e-05
1.0542e-05
5.15846e-05
6.74213e-06
4.79423e-05
4.44428e-06
4.5337e-05
3.10909e-06
4.34268e-05
2.29272e-06
4.19787e-05
1.76927e-06
4.08432e-05
1.41081e-06
3.99281e-05
1.14892e-06
3.91758e-05
9.48521e-07
3.85487e-05
7.89929e-07
3.80212e-05
6.61089e-07
3.75752e-05
5.54106e-07
3.71978e-05
4.63516e-07
3.68789e-05
3.85415e-07
3.6611e-05
3.16952e-07
3.63883e-05
2.56024e-07
3.62061e-05
2.01015e-07
3.60603e-05
1.50769e-07
3.59482e-05
1.04556e-07
3.58672e-05
6.1579e-08
3.58151e-05
2.12637e-08
3.57902e-05
-1.6357e-08
3.57903e-05
-5.10791e-08
3.58132e-05
-8.27289e-08
3.58567e-05
-1.09636e-07
3.59172e-05
-1.31963e-07
3.59928e-05
-1.40542e-07
3.60735e-05
-1.46082e-07
3.62021e-05
-9.56754e-08
-7.86803e-08
3.61974e-05
7.85213e-05
1.19526e-05
8.23367e-05
1.70131e-05
8.29992e-05
1.48925e-05
8.14916e-05
1.20497e-05
7.89798e-05
9.25384e-06
7.63073e-05
7.11685e-06
7.38051e-05
5.61129e-06
7.15764e-05
4.52142e-06
6.96344e-05
3.71122e-06
6.79548e-05
3.0904e-06
6.65045e-05
2.59924e-06
6.52517e-05
2.20132e-06
6.41683e-05
1.87331e-06
6.32304e-05
1.59905e-06
6.24177e-05
1.36675e-06
6.17136e-05
1.16762e-06
6.11041e-05
9.94943e-07
6.05775e-05
8.43508e-07
6.01243e-05
7.09264e-07
5.97363e-05
5.89005e-07
5.94069e-05
4.80219e-07
5.91304e-05
3.8104e-07
5.89021e-05
2.89903e-07
5.87177e-05
2.05671e-07
5.85736e-05
1.27734e-07
5.84667e-05
5.57642e-08
5.83944e-05
-1.04521e-08
5.83544e-05
-6.95659e-08
5.83427e-05
-1.20261e-07
5.83579e-05
-1.55758e-07
5.8389e-05
-1.77224e-07
5.84496e-05
-1.56231e-07
-1.12188e-07
5.84831e-05
7.8147e-05
8.33226e-06
8.19238e-05
1.32363e-05
8.46206e-05
1.21956e-05
8.62453e-05
1.0425e-05
8.69276e-05
8.57155e-06
8.70208e-05
7.02365e-06
8.67676e-05
5.86452e-06
8.63103e-05
4.97868e-06
8.57406e-05
4.28093e-06
8.51142e-05
3.71676e-06
8.44659e-05
3.24755e-06
8.38184e-05
2.84881e-06
8.31874e-05
2.5043e-06
8.25838e-05
2.20267e-06
8.20143e-05
1.93624e-06
8.14829e-05
1.69906e-06
8.09915e-05
1.48629e-06
8.05411e-05
1.294e-06
8.01314e-05
1.11897e-06
7.97618e-05
9.58566e-07
7.94314e-05
8.10631e-07
7.91389e-05
6.7347e-07
7.88832e-05
5.4567e-07
7.86627e-05
4.26159e-07
7.84761e-05
3.14327e-07
7.83219e-05
2.09941e-07
7.81983e-05
1.13156e-07
7.81038e-05
2.49845e-08
7.80371e-05
-5.35698e-08
7.7999e-05
-1.17694e-07
7.79874e-05
-1.65591e-07
7.80154e-05
-1.8422e-07
-1.74652e-07
7.80778e-05
7.89919e-05
5.99621e-06
8.15924e-05
1.06358e-05
8.35203e-05
1.02677e-05
8.49653e-05
8.98007e-06
8.59846e-05
7.5522e-06
8.67271e-05
6.28113e-06
8.72954e-05
5.29629e-06
8.77375e-05
4.53658e-06
8.80851e-05
3.93332e-06
8.83595e-05
3.44232e-06
8.85752e-05
3.03183e-06
8.87436e-05
2.68047e-06
8.88729e-05
2.37497e-06
8.89695e-05
2.10605e-06
8.90396e-05
1.86619e-06
8.90888e-05
1.64986e-06
8.91221e-05
1.45293e-06
8.9144e-05
1.27217e-06
8.91579e-05
1.105e-06
8.91672e-05
9.49322e-07
8.91743e-05
8.03466e-07
8.91817e-05
6.66111e-07
8.91912e-05
5.36199e-07
8.92044e-05
4.12956e-07
8.92227e-05
2.95967e-07
8.92475e-05
1.85138e-07
8.92799e-05
8.0782e-08
8.93206e-05
-1.5652e-08
8.93703e-05
-1.03364e-07
8.94328e-05
-1.80195e-07
8.95125e-05
-2.45219e-07
8.96218e-05
-2.93506e-07
-3.28927e-07
8.9776e-05
8.04635e-05
4.37859e-06
8.25068e-05
8.59247e-06
8.39945e-05
8.78004e-06
8.50559e-05
7.91869e-06
8.57808e-05
6.82731e-06
8.62976e-05
5.76434e-06
8.67075e-05
4.88635e-06
8.70577e-05
4.18634e-06
8.73714e-05
3.61964e-06
8.766e-05
3.1537e-06
8.79285e-05
2.76332e-06
8.81793e-05
2.42966e-06
8.84146e-05
2.13973e-06
8.86362e-05
1.88445e-06
8.88453e-05
1.65709e-06
8.90427e-05
1.45244e-06
8.92292e-05
1.26641e-06
8.94056e-05
1.09578e-06
8.95726e-05
9.37952e-07
8.97311e-05
7.9085e-07
8.98818e-05
6.52795e-07
9.00254e-05
5.22457e-07
9.01629e-05
3.98775e-07
9.02949e-05
2.80957e-07
9.04223e-05
1.68491e-07
9.05463e-05
6.1171e-08
9.06681e-05
-4.09645e-08
9.07902e-05
-1.37757e-07
9.0916e-05
-2.29159e-07
9.105e-05
-3.14192e-07
9.11982e-05
-3.93511e-07
9.1372e-05
-4.67249e-07
-5.43326e-07
9.15864e-05
8.22346e-05
3.24258e-06
8.3896e-05
6.93104e-06
8.51855e-05
7.49055e-06
8.61216e-05
6.98258e-06
8.67665e-05
6.18242e-06
8.72101e-05
5.3207e-06
8.75403e-05
4.55622e-06
8.78061e-05
3.92046e-06
8.80343e-05
3.39144e-06
8.82402e-05
2.94786e-06
8.84318e-05
2.57173e-06
8.86134e-05
2.24807e-06
8.87874e-05
1.96574e-06
8.89552e-05
1.7166e-06
8.91179e-05
1.49444e-06
8.92759e-05
1.29438e-06
8.94298e-05
1.11253e-06
8.95798e-05
9.45788e-07
8.97261e-05
7.9162e-07
8.9869e-05
6.4796e-07
9.00087e-05
5.13118e-07
9.01454e-05
3.85722e-07
9.02796e-05
2.64653e-07
9.04115e-05
1.49019e-07
9.05419e-05
3.811e-08
9.06717e-05
-6.86418e-08
9.08024e-05
-1.71631e-07
9.09357e-05
-2.71133e-07
9.10743e-05
-3.67686e-07
9.12219e-05
-4.61804e-07
9.13839e-05
-5.55553e-07
9.15686e-05
-6.5196e-07
-7.59537e-07
9.17848e-05
8.4217e-05
2.44111e-06
8.55521e-05
5.59596e-06
8.6676e-05
6.36663e-06
8.7536e-05
6.12257e-06
8.81652e-05
5.55323e-06
8.86164e-05
4.86949e-06
8.89549e-05
4.21773e-06
8.92243e-05
3.65108e-06
8.94501e-05
3.16558e-06
8.96485e-05
2.74951e-06
8.98288e-05
2.39136e-06
8.99968e-05
2.08013e-06
9.01557e-05
1.80679e-06
9.03079e-05
1.56441e-06
9.04548e-05
1.34751e-06
9.05976e-05
1.15165e-06
9.07368e-05
9.73252e-07
9.08732e-05
8.09376e-07
9.10073e-05
6.5761e-07
9.11393e-05
5.15953e-07
9.12696e-05
3.82746e-07
9.13988e-05
2.56609e-07
9.1527e-05
1.36392e-07
9.16549e-05
2.1098e-08
9.17831e-05
-9.00839e-08
9.19123e-05
-1.97862e-07
9.20437e-05
-3.02966e-07
9.21787e-05
-4.06184e-07
9.23197e-05
-5.08636e-07
9.24697e-05
-6.11803e-07
9.26327e-05
-7.18582e-07
9.28141e-05
-8.33352e-07
-9.63663e-07
9.30182e-05
8.63724e-05
1.86744e-06
8.74428e-05
4.5256e-06
8.84161e-05
5.39334e-06
8.91961e-05
5.34252e-06
8.9796e-05
4.95332e-06
9.02464e-05
4.41912e-06
9.05943e-05
3.8698e-06
9.08762e-05
3.36917e-06
9.11146e-05
2.92718e-06
9.13241e-05
2.5401e-06
9.15137e-05
2.20172e-06
9.16893e-05
1.90457e-06
9.18544e-05
1.64165e-06
9.20116e-05
1.40721e-06
9.21626e-05
1.19653e-06
9.23086e-05
1.00566e-06
9.24505e-05
8.31328e-07
9.25891e-05
6.70803e-07
9.27249e-05
5.21811e-07
9.28584e-05
3.82438e-07
9.29901e-05
2.51068e-07
9.31203e-05
1.2633e-07
9.32497e-05
7.04588e-09
9.33786e-05
-1.07827e-07
9.35077e-05
-2.19201e-07
9.36378e-05
-3.27982e-07
9.377e-05
-4.35134e-07
9.39056e-05
-5.41769e-07
9.40463e-05
-6.49388e-07
9.41946e-05
-7.60012e-07
9.43528e-05
-8.7682e-07
9.45239e-05
-1.00442e-06
-1.14875e-06
9.4709e-05
8.86679e-05
1.44955e-06
8.95262e-05
3.6673e-06
9.0366e-05
4.55356e-06
9.10705e-05
4.638e-06
9.16368e-05
4.387e-06
9.20801e-05
3.97587e-06
9.24321e-05
3.51776e-06
9.2722e-05
3.07925e-06
9.29693e-05
2.67992e-06
9.3187e-05
2.32232e-06
9.33842e-05
2.00456e-06
9.35665e-05
1.72228e-06
9.37377e-05
1.47046e-06
9.39003e-05
1.24455e-06
9.40563e-05
1.0406e-06
9.42068e-05
8.55162e-07
9.43528e-05
6.85299e-07
9.44951e-05
5.28505e-07
9.46343e-05
3.82646e-07
9.47708e-05
2.45896e-07
9.49052e-05
1.16686e-07
9.50379e-05
-6.34636e-09
9.51693e-05
-1.24393e-07
9.53e-05
-2.3854e-07
9.54306e-05
-3.49795e-07
9.55618e-05
-4.59183e-07
9.56945e-05
-5.67825e-07
9.58298e-05
-6.77034e-07
9.59689e-05
-7.88495e-07
9.61133e-05
-9.04399e-07
9.62642e-05
-1.02778e-06
9.64226e-05
-1.16284e-06
-1.31384e-06
9.65877e-05
9.10816e-05
1.13922e-06
9.17719e-05
2.97703e-06
9.24955e-05
3.82994e-06
9.31311e-05
4.00241e-06
9.36628e-05
3.85529e-06
9.40949e-05
3.54378e-06
9.44474e-05
3.16527e-06
9.47427e-05
2.78398e-06
9.49972e-05
2.42538e-06
9.52227e-05
2.09689e-06
9.54272e-05
1.80007e-06
9.56162e-05
1.5332e-06
9.57936e-05
1.29308e-06
9.59619e-05
1.07627e-06
9.61229e-05
8.79572e-07
9.6278e-05
7.00051e-07
9.64282e-05
5.351e-07
9.65743e-05
3.82439e-07
9.67169e-05
2.40083e-07
9.68564e-05
1.06305e-07
9.69935e-05
-2.04112e-08
9.71286e-05
-1.41398e-07
9.7262e-05
-2.57849e-07
9.73944e-05
-3.70877e-07
9.75261e-05
-4.81546e-07
9.76579e-05
-5.9095e-07
9.77904e-05
-7.00284e-07
9.79243e-05
-8.10926e-07
9.80603e-05
-9.24565e-07
9.81992e-05
-1.0433e-06
9.83412e-05
-1.16976e-06
9.84858e-05
-1.30743e-06
-1.45905e-06
9.8631e-05
9.36e-05
9.03896e-07
9.4158e-05
2.41901e-06
9.47809e-05
3.20707e-06
9.53531e-05
3.4302e-06
9.58499e-05
3.35844e-06
9.62682e-05
3.12547e-06
9.6619e-05
2.81451e-06
9.69184e-05
2.48461e-06
9.71796e-05
2.16413e-06
9.74126e-05
1.86392e-06
9.76245e-05
1.5881e-06
9.78207e-05
1.33708e-06
9.80046e-05
1.10918e-06
9.81788e-05
9.02033e-07
9.83452e-05
7.1313e-07
9.85053e-05
5.40031e-07
9.86599e-05
3.80467e-07
9.88099e-05
2.32389e-07
9.89561e-05
9.39686e-08
9.90988e-05
-3.6418e-08
9.92386e-05
-1.60214e-07
9.93759e-05
-2.78715e-07
9.95111e-05
-3.93102e-07
9.96448e-05
-5.04484e-07
9.97772e-05
-6.13943e-07
9.99088e-05
-7.22584e-07
0.00010004
-8.31597e-07
0.000100171
-9.42321e-07
0.000100303
-1.05632e-06
0.000100435
-1.17543e-06
0.000100567
-1.30177e-06
0.000100698
-1.43801e-06
-1.58565e-06
0.000100825
9.62144e-05
7.21614e-07
9.66687e-05
1.96468e-06
9.72052e-05
2.6706e-06
9.77199e-05
2.91547e-06
9.81828e-05
2.89552e-06
9.85855e-05
2.72276e-06
9.89323e-05
2.46776e-06
9.92338e-05
2.18308e-06
9.95004e-05
1.89758e-06
9.974e-05
1.62424e-06
9.99591e-05
1.36902e-06
0.000100162
1.13392e-06
0.000100353
9.18575e-07
0.000100533
7.21525e-07
0.000100706
5.40908e-07
0.000100871
3.7474e-07
0.00010103
2.21074e-07
0.000101185
7.80846e-08
0.000101334
-5.58992e-08
0.00010148
-1.8239e-07
0.000101623
-3.02754e-07
0.000101763
-4.18235e-07
0.000101899
-5.29981e-07
0.000102034
-6.39076e-07
0.000102167
-7.46574e-07
0.000102298
-8.53543e-07
0.000102427
-9.61107e-07
0.000102555
-1.07049e-06
0.000102682
-1.18303e-06
0.000102807
-1.30023e-06
0.000102929
-1.42367e-06
0.000103046
-1.55523e-06
-1.69545e-06
0.000103156
9.89199e-05
5.77415e-07
9.92932e-05
1.59141e-06
9.97563e-05
2.20754e-06
0.000100219
2.45245e-06
0.00010065
2.46508e-06
0.000101036
2.33679e-06
0.000101377
2.12686e-06
0.000101679
1.88096e-06
0.000101949
1.62684e-06
0.000102195
1.37853e-06
0.000102421
1.14315e-06
0.000102631
9.23837e-07
0.000102828
7.21241e-07
0.000103015
5.34666e-07
0.000103193
3.62805e-07
0.000103364
2.04082e-07
0.000103528
5.68464e-08
0.000103687
-8.0514e-08
0.000103841
-2.09513e-07
0.00010399
-3.31549e-07
0.000104135
-4.47907e-07
0.000104276
-5.59765e-07
0.000104415
-6.68218e-07
0.00010455
-7.74298e-07
0.000104682
-8.79003e-07
0.000104812
-9.83322e-07
0.000104939
-1.08827e-06
0.000105064
-1.19488e-06
0.000105185
-1.30426e-06
0.000105302
-1.41754e-06
0.000105414
-1.5358e-06
0.000105519
-1.66022e-06
-1.79067e-06
0.000105614
0.000101714
4.60996e-07
0.000102024
1.28146e-06
0.000102425
1.80622e-06
0.000102842
2.03541e-06
0.000103243
2.06506e-06
0.000103611
1.96783e-06
0.000103945
1.79301e-06
0.000104247
1.57954e-06
0.000104521
1.35303e-06
0.000104771
1.12763e-06
0.000105004
9.11052e-07
0.00010522
7.0717e-07
0.000105424
5.17354e-07
0.000105617
3.41515e-07
0.000105801
1.78807e-07
0.000105977
2.8005e-08
0.000106146
-1.12277e-07
0.000106309
-2.43453e-07
0.000106467
-3.6689e-07
0.000106619
-4.83876e-07
0.000106767
-5.95604e-07
0.00010691
-7.03181e-07
0.00010705
-8.07631e-07
0.000107185
-9.09916e-07
0.000107317
-1.01095e-06
0.000107445
-1.11162e-06
0.00010757
-1.21279e-06
0.00010769
-1.31531e-06
0.000107806
-1.42001e-06
0.000107916
-1.52769e-06
0.000108019
-1.63897e-06
0.000108114
-1.75451e-06
-1.8737e-06
0.000108197
0.000104596
3.65148e-07
0.000104857
1.02097e-06
0.000105207
1.45639e-06
0.000105583
1.65875e-06
0.000105955
1.69299e-06
0.000106308
1.61559e-06
0.000106634
1.46696e-06
0.000106933
1.27982e-06
0.000107209
1.07705e-06
0.000107465
8.72231e-07
0.000107703
6.73193e-07
0.000107926
4.84182e-07
0.000108136
3.07039e-07
0.000108335
1.4211e-07
0.000108525
-1.10917e-08
0.000108707
-1.53508e-07
0.000108881
-2.86303e-07
0.000109048
-4.10716e-07
0.000109209
-5.27983e-07
0.000109364
-6.39281e-07
0.000109515
-7.45716e-07
0.00010966
-8.4831e-07
0.0001098
-9.48011e-07
0.000109936
-1.04569e-06
0.000110067
-1.14217e-06
0.000110194
-1.23821e-06
0.000110315
-1.33451e-06
0.000110432
-1.43175e-06
0.000110542
-1.53049e-06
0.000110646
-1.63122e-06
0.000110741
-1.73423e-06
0.000110826
-1.83974e-06
-1.94689e-06
0.0001109
0.000107566
2.84735e-07
0.000107788
7.99111e-07
0.000108096
1.14909e-06
0.000108437
1.31709e-06
0.000108784
1.34612e-06
0.000109121
1.27915e-06
0.000109439
1.14888e-06
0.000109736
9.82363e-07
0.000110014
7.99506e-07
0.000110273
6.12862e-07
0.000110516
4.29975e-07
0.000110745
2.55153e-07
0.000110962
9.04724e-08
0.000111167
-6.34455e-08
0.000111363
-2.06838e-07
0.00011155
-3.40432e-07
0.000111729
-4.65215e-07
0.000111901
-5.82287e-07
0.000112065
-6.9276e-07
0.000112224
-7.97716e-07
0.000112376
-8.98169e-07
0.000112523
-9.9506e-07
0.000112664
-1.08925e-06
0.0001128
-1.18151e-06
0.00011293
-1.27257e-06
0.000113055
-1.36305e-06
0.000113174
-1.45351e-06
0.000113287
-1.54442e-06
0.000113393
-1.63615e-06
0.00011349
-1.72894e-06
0.000113579
-1.82278e-06
0.000113657
-1.91764e-06
-2.01248e-06
0.000113722
0.000110626
2.16015e-07
0.000110817
6.07401e-07
0.00011109
8.7656e-07
0.000111402
1.00529e-06
0.000111726
1.02147e-06
0.000112048
9.57181e-07
0.000112359
8.38446e-07
0.000112654
6.87345e-07
0.000112932
5.20758e-07
0.000113195
3.49879e-07
0.000113444
1.81677e-07
0.000113679
2.0269e-08
0.000113901
-1.3224e-07
0.000114113
-2.75104e-07
0.000114315
-4.08417e-07
0.000114507
-5.32766e-07
0.000114691
-6.49014e-07
0.000114867
-7.58148e-07
0.000115035
-8.61186e-07
0.000115196
-9.59121e-07
0.000115351
-1.05288e-06
0.000115499
-1.14333e-06
0.000115641
-1.23124e-06
0.000115777
-1.3173e-06
0.000115907
-1.40211e-06
0.00011603
-1.48618e-06
0.000116146
-1.56993e-06
0.000116255
-1.65367e-06
0.000116357
-1.73758e-06
0.00011645
-1.82171e-06
0.000116533
-1.90588e-06
0.000116605
-1.98984e-06
-2.07254e-06
0.000116665
0.000113775
1.56194e-07
0.000113944
4.39127e-07
0.000114188
6.32124e-07
0.000114475
7.18497e-07
0.00011478
7.15931e-07
0.00011509
6.47944e-07
0.000115393
5.34905e-07
0.000115686
3.94528e-07
0.000115966
2.40798e-07
0.000116232
8.33534e-08
0.000116486
-7.163e-08
0.000116726
-2.2043e-07
0.000116955
-3.61094e-07
0.000117173
-4.92889e-07
0.000117381
-6.15868e-07
0.000117578
-7.30554e-07
0.000117767
-8.37737e-07
0.000117947
-9.38329e-07
0.000118119
-1.03328e-06
0.000118284
-1.1235e-06
0.000118441
-1.20985e-06
0.00011859
-1.29312e-06
0.000118733
-1.374e-06
0.000118869
-1.45309e-06
0.000118998
-1.53088e-06
0.000119119
-1.60778e-06
0.000119234
-1.68408e-06
0.00011934
-1.75995e-06
0.000119438
-1.83545e-06
0.000119526
-1.91047e-06
0.000119605
-1.98473e-06
0.000119673
-2.05786e-06
-2.12883e-06
0.00011973
0.000117017
1.03134e-07
0.000117168
2.88915e-07
0.00011739
4.09993e-07
0.000117656
4.52117e-07
0.000117946
4.26264e-07
0.000118244
3.49367e-07
0.000118542
2.3706e-07
0.000118833
1.03279e-07
0.000119115
-4.07044e-08
0.000119385
-1.86886e-07
0.000119644
-3.30048e-07
0.00011989
-4.67025e-07
0.000120125
-5.96162e-07
0.000120349
-7.1687e-07
0.000120563
-8.29256e-07
0.000120766
-9.33852e-07
0.00012096
-1.03142e-06
0.000121144
-1.12285e-06
0.00012132
-1.20903e-06
0.000121487
-1.29084e-06
0.000121646
-1.36906e-06
0.000121798
-1.44442e-06
0.000121941
-1.51753e-06
0.000122077
-1.58892e-06
0.000122205
-1.65899e-06
0.000122326
-1.72805e-06
0.000122438
-1.79628e-06
0.000122542
-1.86377e-06
0.000122637
-1.93045e-06
0.000122722
-1.99614e-06
0.000122798
-2.06047e-06
0.000122863
-2.12305e-06
-2.18292e-06
0.000122917
0.000120354
5.51463e-08
0.000120491
1.52378e-07
0.000120695
2.05106e-07
0.000120946
2.01806e-07
0.000121223
1.49139e-07
0.000121513
5.90642e-08
0.000121807
-5.66994e-08
0.000122098
-1.87477e-07
0.000122381
-3.24486e-07
0.000122656
-4.6138e-07
0.00012292
-5.94004e-07
0.000123173
-7.19874e-07
0.000123414
-8.37763e-07
0.000123645
-9.47333e-07
0.000123864
-1.04884e-06
0.000124073
-1.14288e-06
0.000124272
-1.23027e-06
0.000124461
-1.31187e-06
0.000124641
-1.38859e-06
0.000124811
-1.46125e-06
0.000124973
-1.5306e-06
0.000125126
-1.59732e-06
0.00012527
-1.66195e-06
0.000125406
-1.72495e-06
0.000125534
-1.78666e-06
0.000125653
-1.84728e-06
0.000125764
-1.90695e-06
0.000125866
-1.96565e-06
0.000125958
-2.02325e-06
0.000126042
-2.07952e-06
0.000126115
-2.13408e-06
0.000126179
-2.1865e-06
-2.23592e-06
0.000126232
0.000123787
1.08506e-08
0.000123914
2.58412e-08
0.000124106
1.29625e-08
0.000124345
-3.65984e-08
0.000124613
-1.18882e-07
0.000124897
-2.25635e-07
0.000125189
-3.48357e-07
0.000125481
-4.79184e-07
0.000125768
-6.11607e-07
0.000126047
-7.4092e-07
0.000126317
-8.64099e-07
0.000126577
-9.79447e-07
0.000126825
-1.08627e-06
0.000127063
-1.18457e-06
0.000127289
-1.27483e-06
0.000127504
-1.35781e-06
0.000127708
-1.43439e-06
0.000127901
-1.50549e-06
0.000128085
-1.57202e-06
0.000128258
-1.63479e-06
0.000128422
-1.69454e-06
0.000128577
-1.75189e-06
0.000128722
-1.80736e-06
0.000128859
-1.86133e-06
0.000128986
-1.91407e-06
0.000129105
-1.96577e-06
0.000129214
-2.01646e-06
0.000129314
-2.06608e-06
0.000129406
-2.11448e-06
0.000129488
-2.16138e-06
0.00012956
-2.2064e-06
0.000129623
-2.24917e-06
-2.28891e-06
0.000129676
0.00012732
-3.09389e-08
0.00012744
-9.3889e-08
0.000127624
-1.70559e-07
0.000127854
-2.67176e-07
0.000128117
-3.81411e-07
0.000128399
-5.07766e-07
0.000128691
-6.40381e-07
0.000128985
-7.73832e-07
0.000129278
-9.03689e-07
0.000129563
-1.02685e-06
0.000129841
-1.14146e-06
0.000130108
-1.2467e-06
0.000130364
-1.34249e-06
0.000130609
-1.42928e-06
0.000130842
-1.50784e-06
0.000131063
-1.57915e-06
0.000131273
-1.64421e-06
0.000131472
-1.70405e-06
0.000131659
-1.7596e-06
0.000131836
-1.81169e-06
0.000132003
-1.86107e-06
0.000132159
-1.90832e-06
0.000132306
-1.95393e-06
0.000132443
-1.99824e-06
0.00013257
-2.04148e-06
0.000132688
-2.08379e-06
0.000132797
-2.12515e-06
0.000132896
-2.16549e-06
0.000132986
-2.20461e-06
0.000133067
-2.24224e-06
0.000133139
-2.27803e-06
0.000133201
-2.3116e-06
-2.3423e-06
0.000133255
0.000130955
-7.12599e-08
0.000131071
-2.09699e-07
0.00013125
-3.49345e-07
0.000131477
-4.9399e-07
0.000131737
-6.42235e-07
0.00013202
-7.90642e-07
0.000132315
-9.35551e-07
0.000132615
-1.07369e-06
0.000132914
-1.20256e-06
0.000133208
-1.32062e-06
0.000133494
-1.42725e-06
0.00013377
-1.52256e-06
0.000134034
-1.60716e-06
0.000134287
-1.68203e-06
0.000134528
-1.74832e-06
0.000134756
-1.80724e-06
0.000134971
-1.86002e-06
0.000135175
-1.90777e-06
0.000135367
-1.9515e-06
0.000135547
-1.99211e-06
0.000135717
-2.03033e-06
0.000135875
-2.06674e-06
0.000136023
-2.10182e-06
0.000136161
-2.13587e-06
0.000136288
-2.16911e-06
0.000136406
-2.20161e-06
0.000136514
-2.23336e-06
0.000136613
-2.26425e-06
0.000136703
-2.29409e-06
0.000136783
-2.32261e-06
0.000136854
-2.34949e-06
0.000136917
-2.3744e-06
-2.39677e-06
0.000136972
0.000134695
-1.11108e-07
0.00013481
-3.24368e-07
0.000134988
-5.27288e-07
0.000135215
-7.21335e-07
0.000135478
-9.05606e-07
0.000135766
-1.07825e-06
0.000136068
-1.23748e-06
0.000136376
-1.38196e-06
0.000136685
-1.51102e-06
0.000136989
-1.62468e-06
0.000137285
-1.72357e-06
0.000137571
-1.80882e-06
0.000137846
-1.88181e-06
0.000138108
-1.94411e-06
0.000138357
-1.99731e-06
0.000138593
-2.04296e-06
0.000138815
-2.08249e-06
0.000139025
-2.11718e-06
0.000139221
-2.14816e-06
0.000139405
-2.17636e-06
0.000139578
-2.20255e-06
0.000139738
-2.22734e-06
0.000139888
-2.25118e-06
0.000140026
-2.27436e-06
0.000140154
-2.29708e-06
0.000140272
-2.31938e-06
0.00014038
-2.34125e-06
0.000140478
-2.36255e-06
0.000140567
-2.3831e-06
0.000140647
-2.40264e-06
0.000140718
-2.42086e-06
0.000140782
-2.43747e-06
-2.45197e-06
0.000140837
0.000138543
-1.51477e-07
0.000138659
-4.4068e-07
0.00013884
-7.08343e-07
0.000139072
-9.53648e-07
0.000139343
-1.17594e-06
0.000139639
-1.37468e-06
0.000139951
-1.54977e-06
0.000140271
-1.70173e-06
0.000140592
-1.83166e-06
0.000140908
-1.94116e-06
0.000141217
-2.03219e-06
0.000141515
-2.10692e-06
0.000141801
-2.16762e-06
0.000142073
-2.21649e-06
0.000142331
-2.25562e-06
0.000142575
-2.28694e-06
0.000142805
-2.31216e-06
0.000143021
-2.33273e-06
0.000143222
-2.34992e-06
0.000143411
-2.36475e-06
0.000143586
-2.37802e-06
0.000143749
-2.39037e-06
0.0001439
-2.40224e-06
0.00014404
-2.41394e-06
0.000144168
-2.42562e-06
0.000144286
-2.43734e-06
0.000144394
-2.44905e-06
0.000144492
-2.46063e-06
0.000144581
-2.47189e-06
0.000144661
-2.48258e-06
0.000144733
-2.49243e-06
0.000144796
-2.50119e-06
-2.50841e-06
0.000144853
0.000142501
-1.93467e-07
0.000142622
-5.61753e-07
0.000142811
-8.97103e-07
0.000143054
-1.19637e-06
0.000143337
-1.45903e-06
0.000143648
-1.68574e-06
0.000143976
-1.87799e-06
0.000144313
-2.03812e-06
0.00014465
-2.16907e-06
0.000144983
-2.27408e-06
0.000145307
-2.35653e-06
0.00014562
-2.41975e-06
0.000145919
-2.46693e-06
0.000146204
-2.50104e-06
0.000146473
-2.52472e-06
0.000146726
-2.54032e-06
0.000146964
-2.54985e-06
0.000147186
-2.55501e-06
0.000147394
-2.55719e-06
0.000147586
-2.55751e-06
0.000147765
-2.55684e-06
0.000147931
-2.55584e-06
0.000148083
-2.55496e-06
0.000148224
-2.55449e-06
0.000148353
-2.5546e-06
0.000148471
-2.55532e-06
0.000148578
-2.55658e-06
0.000148676
-2.55827e-06
0.000148764
-2.56017e-06
0.000148844
-2.56207e-06
0.000148915
-2.56368e-06
0.000148979
-2.56476e-06
-2.56487e-06
0.000149035
0.000146574
-2.38246e-07
0.000146703
-6.9089e-07
0.000146904
-1.09826e-06
0.000147163
-1.45475e-06
0.000147464
-1.76012e-06
0.000147794
-2.01631e-06
0.000148143
-2.2265e-06
0.0001485
-2.395e-06
0.000148857
-2.52664e-06
0.00014921
-2.62641e-06
0.000149552
-2.6992e-06
0.000149882
-2.74958e-06
0.000150197
-2.78177e-06
0.000150496
-2.79952e-06
0.000150777
-2.80613e-06
0.000151041
-2.8044e-06
0.000151288
-2.7967e-06
0.000151518
-2.78496e-06
0.000151731
-2.77076e-06
0.000151929
-2.75531e-06
0.000152112
-2.73957e-06
0.00015228
-2.72421e-06
0.000152435
-2.7097e-06
0.000152577
-2.69634e-06
0.000152707
-2.68428e-06
0.000152825
-2.67352e-06
0.000152932
-2.66401e-06
0.00015303
-2.65559e-06
0.000153117
-2.64807e-06
0.000153197
-2.64122e-06
0.000153268
-2.63476e-06
0.000153331
-2.6285e-06
-2.62201e-06
0.000153389
0.000150765
-2.87526e-07
0.000150907
-8.32901e-07
0.000151128
-1.31904e-06
0.000151411
-1.73763e-06
0.000151739
-2.08883e-06
0.000152099
-2.37607e-06
0.000152477
-2.60449e-06
0.000152863
-2.78059e-06
0.000153247
-2.91144e-06
0.000153625
-3.00403e-06
0.000153991
-3.0649e-06
0.000154341
-3.10007e-06
0.000154674
-3.11487e-06
0.000154989
-3.11394e-06
0.000155284
-3.10124e-06
0.00015556
-3.08008e-06
0.000155816
-3.0532e-06
0.000156054
-3.02279e-06
0.000156274
-2.99059e-06
0.000156476
-2.95795e-06
0.000156663
-2.92586e-06
0.000156834
-2.89504e-06
0.00015699
-2.86597e-06
0.000157132
-2.83893e-06
0.000157262
-2.81404e-06
0.00015738
-2.7913e-06
0.000157487
-2.77062e-06
0.000157583
-2.75184e-06
0.000157669
-2.73472e-06
0.000157747
-2.71902e-06
0.000157817
-2.70446e-06
0.000157879
-2.69077e-06
-2.67753e-06
0.000157935
0.000155077
-3.42714e-07
0.000155236
-9.91922e-07
0.000155482
-1.56489e-06
0.000155795
-2.05063e-06
0.000156156
-2.45061e-06
0.000156551
-2.77033e-06
0.000156963
-3.01715e-06
0.000157383
-3.20008e-06
0.0001578
-3.32865e-06
0.000158208
-3.41199e-06
0.000158602
-3.45851e-06
0.000158977
-3.47579e-06
0.000159333
-3.47042e-06
0.000159667
-3.44801e-06
0.000159979
-3.41329e-06
0.000160269
-3.37014e-06
0.000160538
-3.32169e-06
0.000160785
-3.27043e-06
0.000161013
-3.21828e-06
0.000161222
-3.1667e-06
0.000161413
-3.11674e-06
0.000161587
-3.06914e-06
0.000161745
-3.02437e-06
0.000161889
-2.9827e-06
0.000162019
-2.94422e-06
0.000162137
-2.90888e-06
0.000162243
-2.87658e-06
0.000162338
-2.8471e-06
0.000162423
-2.8202e-06
0.0001625
-2.7956e-06
0.000162568
-2.773e-06
0.00016263
-2.75217e-06
-2.73264e-06
0.000162685
0.000159516
-4.08023e-07
0.000159703
-1.17886e-06
0.00015999
-1.85166e-06
0.000160351
-2.41215e-06
0.000160765
-2.86412e-06
0.00016121
-3.21617e-06
0.000161672
-3.47893e-06
0.000162137
-3.66494e-06
0.000162595
-3.78687e-06
0.00016304
-3.85644e-06
0.000163465
-3.88418e-06
0.000163869
-3.87934e-06
0.000164248
-3.84986e-06
0.000164603
-3.80238e-06
0.000164932
-3.74236e-06
0.000165236
-3.67426e-06
0.000165516
-3.60159e-06
0.000165773
-3.52712e-06
0.000166007
-3.45293e-06
0.000166221
-3.38058e-06
0.000166416
-3.31116e-06
0.000166592
-3.24541e-06
0.000166751
-3.18378e-06
0.000166895
-3.1265e-06
0.000167024
-3.07361e-06
0.000167141
-3.02503e-06
0.000167245
-2.98057e-06
0.000167337
-2.93999e-06
0.00016742
-2.90299e-06
0.000167494
-2.86923e-06
0.000167559
-2.83837e-06
0.000167617
-2.81008e-06
-2.78382e-06
0.000167668
0.000164081
-4.83242e-07
0.000164298
-1.39585e-06
0.000164628
-2.18151e-06
0.000165041
-2.82477e-06
0.000165511
-3.33393e-06
0.000166015
-3.7209e-06
0.000166536
-3.99965e-06
0.000167058
-4.18672e-06
0.000167569
-4.29845e-06
0.000168063
-4.34967e-06
0.000168532
-4.35347e-06
0.000168974
-4.3212e-06
0.000169386
-4.26238e-06
0.000169769
-4.18484e-06
0.000170121
-4.09495e-06
0.000170445
-3.99775e-06
0.00017074
-3.89719e-06
0.00017101
-3.79628e-06
0.000171254
-3.69726e-06
0.000171475
-3.60174e-06
0.000171675
-3.51082e-06
0.000171855
-3.4252e-06
0.000172016
-3.34528e-06
0.000172161
-3.2712e-06
0.00017229
-3.20292e-06
0.000172405
-3.1403e-06
0.000172508
-3.08307e-06
0.000172599
-3.03092e-06
0.000172679
-2.9835e-06
0.00017275
-2.94043e-06
0.000172813
-2.90131e-06
0.000172869
-2.86582e-06
-2.83336e-06
0.000172919
0.000168794
-5.85582e-07
0.000169077
-1.67851e-06
0.000169493
-2.59811e-06
0.000169999
-3.32996e-06
0.000170558
-3.89343e-06
0.000171145
-4.3079e-06
0.000171739
-4.59367e-06
0.000172325
-4.77295e-06
0.000172893
-4.86636e-06
0.000173435
-4.89186e-06
0.000173947
-4.86511e-06
0.000174425
-4.79943e-06
0.000174869
-4.70585e-06
0.000175277
-4.59334e-06
0.000175651
-4.4691e-06
0.000175992
-4.33876e-06
0.000176302
-4.20665e-06
0.000176582
-4.07602e-06
0.000176834
-3.94925e-06
0.00017706
-3.82799e-06
0.000177262
-3.71332e-06
0.000177443
-3.60587e-06
0.000177604
-3.50595e-06
0.000177746
-3.41361e-06
0.000177872
-3.32871e-06
0.000177983
-3.25097e-06
0.00017808
-3.18005e-06
0.000178164
-3.11555e-06
0.000178238
-3.05702e-06
0.000178301
-3.004e-06
0.000178356
-2.95603e-06
0.000178403
-2.91265e-06
-2.87313e-06
0.000178443
0.000173622
-6.96283e-07
0.000173951
-2.00701e-06
0.000174438
-3.08574e-06
0.000175035
-3.9268e-06
0.000175701
-4.55916e-06
0.000176399
-5.00648e-06
0.000177102
-5.29662e-06
0.00017779
-5.46039e-06
0.000178448
-5.52479e-06
0.000179069
-5.51255e-06
0.000179647
-5.44303e-06
0.00018018
-5.33227e-06
0.000180667
-5.19322e-06
0.00018111
-5.0362e-06
0.00018151
-4.86925e-06
0.00018187
-4.69858e-06
0.000182192
-4.52882e-06
0.000182479
-4.36335e-06
0.000182735
-4.20456e-06
0.000182961
-4.05401e-06
0.00018316
-3.91268e-06
0.000183335
-3.78102e-06
0.000183488
-3.65918e-06
0.000183622
-3.54702e-06
0.000183737
-3.44423e-06
0.000183837
-3.35038e-06
0.000183922
-3.26499e-06
0.000183994
-3.18753e-06
0.000184054
-3.1175e-06
0.000184104
-3.05439e-06
0.000184146
-2.99768e-06
0.00018418
-2.94695e-06
-2.90132e-06
0.000184209
0.000178681
-9.08818e-07
0.000179186
-2.51208e-06
0.000179854
-3.7537e-06
0.000180606
-4.67849e-06
0.0001814
-5.35321e-06
0.000182204
-5.81073e-06
0.000182995
-6.08736e-06
0.000183756
-6.22139e-06
0.000184476
-6.24458e-06
0.000185147
-6.18369e-06
0.000185765
-6.06157e-06
0.00018633
-5.89692e-06
0.000186841
-5.70465e-06
0.000187302
-5.49644e-06
0.000187714
-5.28125e-06
0.000188081
-5.06579e-06
0.000188407
-4.85495e-06
0.000188696
-4.65214e-06
0.000188951
-4.45965e-06
0.000189176
-4.27887e-06
0.000189374
-4.11052e-06
0.000189547
-3.95481e-06
0.0001897
-3.81159e-06
0.000189833
-3.68046e-06
0.00018995
-3.56087e-06
0.000190052
-3.45215e-06
0.00019014
-3.35363e-06
0.000190217
-3.26463e-06
0.000190284
-3.18452e-06
0.000190343
-3.11273e-06
0.000190394
-3.04875e-06
0.000190439
-2.9921e-06
-2.94189e-06
0.00019048
0.000183745
-1.08593e-06
0.000184332
-3.10006e-06
0.00018516
-4.58092e-06
0.000186123
-5.6419e-06
0.000187141
-6.37107e-06
0.00018815
-6.82004e-06
0.000189118
-7.05475e-06
0.000190029
-7.13246e-06
0.000190878
-7.09386e-06
0.000191665
-6.97091e-06
0.000192393
-6.78931e-06
0.000193065
-6.56896e-06
0.000193685
-6.32504e-06
0.000194258
-6.06918e-06
0.000194787
-5.81009e-06
0.000195275
-5.55422e-06
0.000195727
-5.30621e-06
0.000196144
-5.06928e-06
0.00019653
-4.84552e-06
0.000196887
-4.63617e-06
0.000197218
-4.44177e-06
0.000197526
-4.26238e-06
0.000197812
-4.09766e-06
0.000198078
-3.94704e-06
0.000198327
-3.80977e-06
0.00019856
-3.68501e-06
0.000198779
-3.57195e-06
0.000198984
-3.46977e-06
0.000199177
-3.37784e-06
0.00019936
-3.29557e-06
0.000199534
-3.22285e-06
0.000199701
-3.15928e-06
-3.10532e-06
0.000199865
0.000189416
-1.69006e-06
0.0001904
-4.08363e-06
0.000191475
-5.6559e-06
0.000192625
-6.79262e-06
0.000193859