/*--------------------------------*- C++ -*----------------------------------*\
| =========                 |                                                 |
| \\      /  F ield         | OpenFOAM: The Open Source CFD Toolbox           |
|  \\    /   O peration     | Version:  2.1.1                                 |
|   \\  /    A nd           | Web:      www.OpenFOAM.org                      |
|    \\/     M anipulation  |                                                 |
\*---------------------------------------------------------------------------*/
FoamFile
{
    version     2.0;
    format      ascii;
    class       volVectorField;
    location    "0.2";
    object      U;
}
// * * * * * * * * * * * * * * * * * * * * * * * * * * * * * * * * * * * * * //

dimensions      [0 1 -1 0 0 0 0];

internalField   nonuniform List<vector> 
6820
(
(6.3761 0.503704 0)
(4.42482 0.286806 0)
(2.97474 0.0201301 0)
(2.23632 -0.0620149 0)
(1.97162 -0.0601178 0)
(1.84584 -0.0347089 0)
(1.77208 -0.0152927 0)
(1.72124 -0.00491005 0)
(1.67927 -0.000205124 0)
(1.64314 0.00130148 0)
(1.61228 0.00127741 0)
(1.58624 0.000658931 0)
(1.56451 -0.00012153 0)
(1.54659 -0.000875379 0)
(1.53198 -0.00152878 0)
(1.52024 -0.00206449 0)
(1.51101 -0.00249081 0)
(1.50402 -0.00282488 0)
(1.49905 -0.00308248 0)
(1.4959 -0.00327869 0)
(1.49447 -0.00339969 0)
(1.49465 -0.00356877 0)
(1.4963 -0.00374516 0)
(1.49937 -0.00388614 0)
(1.50376 -0.0039826 0)
(1.50941 -0.00403007 0)
(1.51614 -0.00406224 0)
(1.52397 -0.00402101 0)
(1.5321 -0.00398615 0)
(1.54173 -0.0032947 0)
(1.54667 -0.00331368 0)
(1.56132 0.00538568 0)
(1.52458 -0.0174718 0)
(8.72022 0.959486 0)
(8.76519 1.01161 0)
(7.97023 0.678563 0)
(7.05805 0.393363 0)
(6.35855 0.201825 0)
(5.8539 0.10262 0)
(5.4939 0.0570243 0)
(5.2347 0.0363988 0)
(5.04137 0.0270602 0)
(4.89173 0.0223713 0)
(4.7724 0.0194803 0)
(4.67503 0.0173321 0)
(4.59425 0.015531 0)
(4.52652 0.0139107 0)
(4.46934 0.0123891 0)
(4.42093 0.0109213 0)
(4.37996 0.0094832 0)
(4.34542 0.00806057 0)
(4.31653 0.00664566 0)
(4.29267 0.00522927 0)
(4.27335 0.00381883 0)
(4.25816 0.00238063 0)
(4.24678 0.000928563 0)
(4.23895 -0.000512846 0)
(4.23443 -0.00196627 0)
(4.23301 -0.00341347 0)
(4.23442 -0.00478362 0)
(4.23842 -0.00593471 0)
(4.24463 -0.00694963 0)
(4.2529 -0.00694764 0)
(4.262 -0.00722172 0)
(4.27421 -0.00167023 0)
(4.2857 0.000864269 0)
(8.58611 0.58328 0)
(9.33139 0.761753 0)
(9.61501 0.65921 0)
(9.50593 0.525337 0)
(9.24111 0.395596 0)
(8.93039 0.297562 0)
(8.62657 0.228563 0)
(8.3528 0.178974 0)
(8.1133 0.142805 0)
(7.90581 0.115875 0)
(7.72665 0.0952674 0)
(7.57196 0.0791181 0)
(7.43827 0.0662068 0)
(7.32258 0.0557015 0)
(7.22236 0.0470046 0)
(7.13552 0.0396697 0)
(7.06028 0.0333609 0)
(6.99521 0.0278255 0)
(6.93907 0.022873 0)
(6.89087 0.018357 0)
(6.84975 0.0141627 0)
(6.81502 0.0102266 0)
(6.78609 0.00648448 0)
(6.76245 0.00288885 0)
(6.74363 -0.000595884 0)
(6.72926 -0.00396632 0)
(6.71899 -0.00718626 0)
(6.71261 -0.0101399 0)
(6.70971 -0.0127335 0)
(6.71002 -0.0143871 0)
(6.71289 -0.0153127 0)
(6.71803 -0.0127967 0)
(6.72559 -0.0102881 0)
(8.44094 0.379492 0)
(8.94598 0.583432 0)
(9.35856 0.553529 0)
(9.58656 0.48561 0)
(9.70121 0.405283 0)
(9.73808 0.335769 0)
(9.72373 0.282923 0)
(9.6805 0.242406 0)
(9.62124 0.210564 0)
(9.55324 0.184798 0)
(9.48121 0.163249 0)
(9.40826 0.144779 0)
(9.3364 0.12867 0)
(9.26712 0.114418 0)
(9.20138 0.10168 0)
(9.13973 0.0902035 0)
(9.08249 0.0797813 0)
(9.0298 0.0702375 0)
(8.9817 0.0614226 0)
(8.93813 0.0532088 0)
(8.89901 0.0454908 0)
(8.8642 0.0381822 0)
(8.83357 0.0312065 0)
(8.80696 0.0245073 0)
(8.78422 0.0180644 0)
(8.76519 0.0118802 0)
(8.74971 0.0059625 0)
(8.73753 0.0003889 0)
(8.72853 -0.00471151 0)
(8.72267 -0.00889034 0)
(8.71992 -0.0119677 0)
(8.72048 -0.0124024 0)
(8.72623 -0.010047 0)
(8.40216 0.279831 0)
(8.7191 0.479998 0)
(8.99918 0.460788 0)
(9.17487 0.40286 0)
(9.29961 0.340417 0)
(9.39336 0.287564 0)
(9.46287 0.248128 0)
(9.51633 0.218106 0)
(9.55858 0.194175 0)
(9.59199 0.174425 0)
(9.61831 0.157586 0)
(9.63891 0.142862 0)
(9.65495 0.129756 0)
(9.66708 0.117922 0)
(9.67599 0.107097 0)
(9.68234 0.0970741 0)
(9.68671 0.0876933 0)
(9.6896 0.0788265 0)
(9.69146 0.0703689 0)
(9.69265 0.0622344 0)
(9.69348 0.0543521 0)
(9.69421 0.0466672 0)
(9.69507 0.0391363 0)
(9.69626 0.03173 0)
(9.69794 0.02444 0)
(9.70025 0.0172752 0)
(9.70333 0.0102774 0)
(9.70731 0.00356325 0)
(9.71216 -0.00271659 0)
(9.71819 -0.00830718 0)
(9.72574 -0.01302 0)
(9.73576 -0.0161461 0)
(9.74958 -0.0178041 0)
(8.37749 0.201911 0)
(8.6015 0.382784 0)
(8.8162 0.389382 0)
(8.94758 0.354552 0)
(9.03386 0.309769 0)
(9.0971 0.265842 0)
(9.14455 0.229546 0)
(9.18346 0.200549 0)
(9.21806 0.17705 0)
(9.24973 0.157705 0)
(9.27909 0.141412 0)
(9.30648 0.127335 0)
(9.3321 0.114921 0)
(9.35622 0.103802 0)
(9.37896 0.0936823 0)
(9.40042 0.0843326 0)
(9.4207 0.0755794 0)
(9.43986 0.0672873 0)
(9.45799 0.0593483 0)
(9.47518 0.0516742 0)
(9.4915 0.0441937 0)
(9.50704 0.0368502 0)
(9.52187 0.0295983 0)
(9.53609 0.0224057 0)
(9.54978 0.015258 0)
(9.56305 0.00816457 0)
(9.576 0.00115578 0)
(9.5888 -0.00568823 0)
(9.60182 -0.0122909 0)
(9.61546 -0.0185336 0)
(9.63016 -0.0243695 0)
(9.647 -0.0296113 0)
(9.66679 -0.0346903 0)
(8.36129 0.148507 0)
(8.52286 0.310484 0)
(8.69786 0.335569 0)
(8.81303 0.315514 0)
(8.88816 0.281797 0)
(8.94187 0.245135 0)
(8.98035 0.213017 0)
(9.00977 0.186636 0)
(9.03455 0.164824 0)
(9.05661 0.146528 0)
(9.07688 0.1309 0)
(9.09596 0.117274 0)
(9.11418 0.105175 0)
(9.13172 0.094262 0)
(9.14868 0.0842842 0)
(9.16515 0.0750499 0)
(9.18117 0.0664057 0)
(9.19677 0.0582249 0)
(9.21199 0.0504018 0)
(9.22685 0.0428475 0)
(9.24136 0.0354876 0)
(9.25556 0.0282609 0)
(9.26947 0.0211168 0)
(9.28313 0.0140169 0)
(9.29659 0.00693392 0)
(9.30993 -0.000146353 0)
(9.32327 -0.00722584 0)
(9.33679 -0.014311 0)
(9.35069 -0.0214234 0)
(9.36531 -0.0285427 0)
(9.38104 -0.035762 0)
(9.39872 -0.043221 0)
(9.41887 -0.0516221 0)
(8.35117 0.111036 0)
(8.46754 0.250564 0)
(8.60857 0.284807 0)
(8.71069 0.276034 0)
(8.78101 0.253145 0)
(8.83328 0.225163 0)
(8.87183 0.198514 0)
(8.90118 0.175297 0)
(8.92531 0.15524 0)
(8.94622 0.137858 0)
(8.96496 0.122692 0)
(8.98224 0.109292 0)
(8.9985 0.0972934 0)
(9.014 0.0864191 0)
(9.02891 0.0764495 0)
(9.04336 0.0672027 0)
(9.05743 0.0585274 0)
(9.07119 0.0502978 0)
(9.08469 0.0424087 0)
(9.09796 0.0347716 0)
(9.11106 0.0273113 0)
(9.12401 0.0199639 0)
(9.13686 0.0126751 0)
(9.14964 0.00539722 0)
(9.16242 -0.00191085 0)
(9.17526 -0.00928524 0)
(9.18825 -0.0167635 0)
(9.20151 -0.0243806 0)
(9.21524 -0.0321896 0)
(9.2297 -0.0402673 0)
(9.24521 -0.0488194 0)
(9.26233 -0.0581794 0)
(9.28133 -0.0690457 0)
(8.34488 0.0843225 0)
(8.42951 0.202567 0)
(8.54256 0.241831 0)
(8.63166 0.24189 0)
(8.69613 0.227113 0)
(8.74581 0.205521 0)
(8.78395 0.182958 0)
(8.81375 0.162259 0)
(8.83848 0.143851 0)
(8.85996 0.127582 0)
(8.87917 0.113186 0)
(8.89679 0.100339 0)
(8.91327 0.0887428 0)
(8.92887 0.0781578 0)
(8.9438 0.0683892 0)
(8.9582 0.0592741 0)
(8.97216 0.0506773 0)
(8.98577 0.0424852 0)
(8.99908 0.0346011 0)
(9.01215 0.0269412 0)
(9.02502 0.0194323 0)
(9.03773 0.0120098 0)
(9.05033 0.00461616 0)
(9.06286 -0.00280156 0)
(9.07538 -0.0102936 0)
(9.08795 -0.017908 0)
(9.10066 -0.0257002 0)
(9.11363 -0.0337398 0)
(9.127 -0.0421329 0)
(9.14098 -0.0510319 0)
(9.15578 -0.0607005 0)
(9.17174 -0.0715419 0)
(9.18891 -0.0841619 0)
(8.34095 0.0650391 0)
(8.4032 0.164119 0)
(8.49363 0.204542 0)
(8.57068 0.210402 0)
(8.62925 0.201581 0)
(8.67594 0.185385 0)
(8.71306 0.166868 0)
(8.74279 0.148951 0)
(8.76768 0.132435 0)
(8.78939 0.117418 0)
(8.80883 0.103833 0)
(8.82663 0.0915076 0)
(8.84324 0.0802467 0)
(8.85896 0.0698734 0)
(8.87396 0.0602336 0)
(8.88841 0.0511915 0)
(8.90239 0.0426278 0)
(8.91599 0.034438 0)
(8.92926 0.0265298 0)
(8.94227 0.0188215 0)
(8.95505 0.0112399 0)
(8.96765 0.00371894 0)
(8.98011 -0.00380329 0)
(8.99248 -0.0113846 0)
(9.0048 -0.019083 0)
(9.01714 -0.0269619 0)
(9.02958 -0.0350974 0)
(9.04221 -0.0435845 0)
(9.05513 -0.0525543 0)
(9.06848 -0.0621872 0)
(9.08239 -0.0727551 0)
(9.09699 -0.084656 0)
(9.11223 -0.0983691 0)
(8.33847 0.0508441 0)
(8.38484 0.13319 0)
(8.45725 0.172376 0)
(8.52353 0.182124 0)
(8.57649 0.177915 0)
(8.62006 0.166146 0)
(8.6558 0.151067 0)
(8.68511 0.135518 0)
(8.70997 0.120609 0)
(8.73177 0.106685 0)
(8.75136 0.0938459 0)
(8.76932 0.0820437 0)
(8.78607 0.0711583 0)
(8.80189 0.061058 0)
(8.81697 0.0516168 0)
(8.83146 0.0427165 0)
(8.84546 0.0342496 0)
(8.85904 0.0261197 0)
(8.87228 0.0182402 0)
(8.88522 0.0105329 0)
(8.89791 0.00292603 0)
(8.91039 -0.00464673 0)
(8.92271 -0.012249 0)
(8.9349 -0.0199435 0)
(8.94701 -0.0277957 0)
(8.95909 -0.0358779 0)
(8.97121 -0.0442762 0)
(8.98341 -0.0530971 0)
(8.99579 -0.0624817 0)
(9.0084 -0.0726182 0)
(9.02128 -0.083763 0)
(9.03445 -0.0962709 0)
(9.04778 -0.110493 0)
(8.33688 0.0401834 0)
(8.37192 0.108245 0)
(8.43005 0.144697 0)
(8.48683 0.156631 0)
(8.53445 0.155645 0)
(8.57487 0.147249 0)
(8.60904 0.135045 0)
(8.63776 0.121661 0)
(8.66248 0.108345 0)
(8.68434 0.0955827 0)
(8.70407 0.0835783 0)
(8.72219 0.0723719 0)
(8.73908 0.0619111 0)
(8.75501 0.0521112 0)
(8.77018 0.0428795 0)
(8.78473 0.0341217 0)
(8.79875 0.0257471 0)
(8.81233 0.0176705 0)
(8.82554 0.00981286 0)
(8.83842 0.00210012 0)
(8.85102 -0.00553723 0)
(8.86338 -0.0131655 0)
(8.87553 -0.0208491 0)
(8.88752 -0.0286535 0)
(8.89939 -0.0366483 0)
(8.91116 -0.0449106 0)
(8.92288 -0.0535312 0)
(8.9346 -0.0626206 0)
(8.94634 -0.072318 0)
(8.95812 -0.0827996 0)
(8.96991 -0.0942864 0)
(8.98167 -0.107068 0)
(8.9932 -0.121379 0)
(8.33584 0.0320067 0)
(8.36273 0.0879925 0)
(8.40961 0.120858 0)
(8.45815 0.133688 0)
(8.5008 0.134894 0)
(8.53814 0.12909 0)
(8.5706 0.119286 0)
(8.59855 0.107802 0)
(8.62296 0.0959121 0)
(8.64477 0.0842007 0)
(8.66457 0.0729581 0)
(8.6828 0.0623031 0)
(8.69982 0.0522454 0)
(8.71588 0.0427433 0)
(8.73115 0.0337327 0)
(8.74577 0.0251393 0)
(8.75984 0.0168856 0)
(8.77344 0.00889542 0)
(8.78663 0.00109525 0)
(8.79945 -0.0065851 0)
(8.81196 -0.0142128 0)
(8.82419 -0.021853 0)
(8.83618 -0.0295704 0)
(8.84795 -0.0374316 0)
(8.85954 -0.045507 0)
(8.87097 -0.0538745 0)
(8.88227 -0.0626238 0)
(8.89345 -0.0718605 0)
(8.90451 -0.0817117 0)
(8.91543 -0.0923301 0)
(8.92616 -0.103894 0)
(8.93657 -0.116625 0)
(8.94649 -0.130662 0)
(8.33514 0.025601 0)
(8.3561 0.0714188 0)
(8.39416 0.100306 0)
(8.43565 0.11306 0)
(8.47375 0.115586 0)
(8.50812 0.111635 0)
(8.53879 0.103706 0)
(8.56582 0.0938079 0)
(8.58982 0.0831751 0)
(8.61148 0.0724419 0)
(8.63129 0.0619497 0)
(8.64961 0.0518667 0)
(8.66674 0.0422461 0)
(8.6829 0.0330785 0)
(8.69827 0.0243239 0)
(8.71296 0.0159259 0)
(8.72707 0.00782038 0)
(8.74067 -5.94083e-05 0)
(8.75383 -0.00777991 0)
(8.7666 -0.0154063 0)
(8.779 -0.0230022 0)
(8.79109 -0.0306308 0)
(8.80289 -0.0383551 0)
(8.81442 -0.0462401 0)
(8.8257 -0.0543546 0)
(8.83676 -0.0627732 0)
(8.8476 -0.0715798 0)
(8.85822 -0.0808697 0)
(8.86859 -0.090752 0)
(8.87867 -0.101351 0)
(8.88838 -0.112801 0)
(8.89758 -0.12526 0)
(8.9061 -0.138791 0)
(8.33467 0.0204784 0)
(8.35127 0.0577216 0)
(8.38243 0.0825296 0)
(8.41795 0.0944957 0)
(8.45195 0.0976406 0)
(8.48353 0.0949379 0)
(8.51241 0.088442 0)
(8.53843 0.0798551 0)
(8.56191 0.0703152 0)
(8.58334 0.0604625 0)
(8.60308 0.0506634 0)
(8.62143 0.0411191 0)
(8.63863 0.031917 0)
(8.65488 0.0230764 0)
(8.67032 0.014579 0)
(8.68507 0.00638485 0)
(8.69921 -0.001558 0)
(8.71281 -0.00930741 0)
(8.72594 -0.0169234 0)
(8.73863 -0.0244665 0)
(8.75093 -0.031997 0)
(8.76286 -0.039575 0)
(8.77446 -0.0472613 0)
(8.78574 -0.0551176 0)
(8.79671 -0.0632088 0)
(8.80738 -0.0716038 0)
(8.81776 -0.0803773 0)
(8.82781 -0.0896106 0)
(8.83751 -0.0993923 0)
(8.84679 -0.109817 0)
(8.85558 -0.120977 0)
(8.86371 -0.132976 0)
(8.87106 -0.145821 0)
(8.33433 0.0162997 0)
(8.3477 0.046273 0)
(8.37345 0.0670777 0)
(8.404 0.0777561 0)
(8.43435 0.0809632 0)
(8.46335 0.0789935 0)
(8.49049 0.0735161 0)
(8.51545 0.06595 0)
(8.53835 0.0573128 0)
(8.55947 0.0482226 0)
(8.57909 0.0390521 0)
(8.59742 0.0300194 0)
(8.61466 0.0212336 0)
(8.63097 0.0127336 0)
(8.64647 0.00451679 0)
(8.66126 -0.00344434 0)
(8.67542 -0.0111921 0)
(8.68902 -0.0187768 0)
(8.7021 -0.0262526 0)
(8.71471 -0.0336755 0)
(8.72689 -0.0411018 0)
(8.73866 -0.0485879 0)
(8.75004 -0.0561905 0)
(8.76105 -0.0639671 0)
(8.7717 -0.0719767 0)
(8.78198 -0.0802801 0)
(8.79189 -0.0889411 0)
(8.80139 -0.0980255 0)
(8.81046 -0.1076 0)
(8.81901 -0.117733 0)
(8.82697 -0.128479 0)
(8.8342 -0.139899 0)
(8.84058 -0.15196 0)
(8.33408 0.0128252 0)
(8.34503 0.0365822 0)
(8.36657 0.0535547 0)
(8.39298 0.0626073 0)
(8.42015 0.065437 0)
(8.4468 0.0637728 0)
(8.47229 0.0589532 0)
(8.4962 0.0521457 0)
(8.51846 0.0442353 0)
(8.53924 0.0357953 0)
(8.55869 0.0271858 0)
(8.57697 0.0186275 0)
(8.59421 0.0102403 0)
(8.61055 0.00207587 0)
(8.62609 -0.00585673 0)
(8.64091 -0.0135749 0)
(8.65508 -0.0211127 0)
(8.66866 -0.0285136 0)
(8.68169 -0.0358263 0)
(8.69421 -0.043102 0)
(8.70626 -0.0503928 0)
(8.71785 -0.0577509 0)
(8.72902 -0.0652284 0)
(8.73976 -0.0728775 0)
(8.75008 -0.0807501 0)
(8.75998 -0.0888981 0)
(8.76944 -0.0973734 0)
(8.77843 -0.106226 0)
(8.78691 -0.115505 0)
(8.79481 -0.12525 0)
(8.80207 -0.13549 0)
(8.80854 -0.14625 0)
(8.81416 -0.157473 0)
(8.3339 0.00988235 0)
(8.34302 0.0282648 0)
(8.36126 0.0416175 0)
(8.38428 0.0488264 0)
(8.4087 0.0509381 0)
(8.43325 0.0492263 0)
(8.45722 0.0447491 0)
(8.48011 0.0384541 0)
(8.50174 0.0310937 0)
(8.52215 0.0231824 0)
(8.5414 0.0150563 0)
(8.55959 0.00692827 0)
(8.57682 -0.00107956 0)
(8.59317 -0.00890919 0)
(8.60873 -0.0165446 0)
(8.62357 -0.0239967 0)
(8.63773 -0.0312939 0)
(8.65128 -0.0384748 0)
(8.66425 -0.0455837 0)
(8.67667 -0.0526678 0)
(8.68858 -0.0597753 0)
(8.7 -0.066954 0)
(8.71094 -0.0742514 0)
(8.72141 -0.0817136 0)
(8.73141 -0.0893852 0)
(8.74094 -0.0973091 0)
(8.74998 -0.105526 0)
(8.75849 -0.114071 0)
(8.76645 -0.122974 0)
(8.77379 -0.132258 0)
(8.78044 -0.141928 0)
(8.78631 -0.151984 0)
(8.79135 -0.162355 0)
(8.33376 0.0073436 0)
(8.34149 0.0210184 0)
(8.35716 0.0309697 0)
(8.37743 0.0362019 0)
(8.39952 0.0373336 0)
(8.42223 0.0352843 0)
(8.44483 0.0308782 0)
(8.46677 0.0248743 0)
(8.48778 0.017899 0)
(8.50781 0.0104007 0)
(8.52686 0.00268137 0)
(8.54495 -0.00506292 0)
(8.56215 -0.012716 0)
(8.5785 -0.0202201 0)
(8.59407 -0.0275569 0)
(8.60891 -0.0347343 0)
(8.62307 -0.0417768 0)
(8.63658 -0.0487194 0)
(8.64948 -0.0556028 0)
(8.66181 -0.0624705 0)
(8.67358 -0.0693666 0)
(8.68482 -0.0763347 0)
(8.69553 -0.083417 0)
(8.70574 -0.0906536 0)
(8.71544 -0.0980819 0)
(8.72462 -0.105736 0)
(8.73326 -0.113644 0)
(8.74135 -0.121832 0)
(8.74885 -0.130313 0)
(8.7557 -0.139095 0)
(8.76186 -0.148166 0)
(8.76725 -0.157511 0)
(8.77185 -0.167051 0)
(8.33366 0.00511253 0)
(8.34033 0.0146019 0)
(8.35401 0.0213554 0)
(8.37206 0.0245342 0)
(8.3922 0.0244858 0)
(8.41334 0.0218626 0)
(8.43474 0.0172966 0)
(8.45582 0.0113876 0)
(8.47627 0.00464629 0)
(8.49594 -0.0025482 0)
(8.51479 -0.00993361 0)
(8.53278 -0.0173369 0)
(8.54994 -0.024654 0)
(8.56628 -0.0318325 0)
(8.58186 -0.0388558 0)
(8.5967 -0.0457318 0)
(8.61083 -0.0524839 0)
(8.6243 -0.0591455 0)
(8.63713 -0.0657551 0)
(8.64935 -0.0723535 0)
(8.66098 -0.0789819 0)
(8.67204 -0.08568 0)
(8.68255 -0.0924855 0)
(8.6925 -0.0994331 0)
(8.7019 -0.106553 0)
(8.71076 -0.113872 0)
(8.71905 -0.121411 0)
(8.72675 -0.129182 0)
(8.73384 -0.137189 0)
(8.74029 -0.145428 0)
(8.74606 -0.153878 0)
(8.75108 -0.162512 0)
(8.75537 -0.171251 0)
(8.33358 0.00311426 0)
(8.33946 0.00882085 0)
(8.35159 0.0125524 0)
(8.36789 0.013635 0)
(8.38645 0.0122527 0)
(8.40628 0.00886143 0)
(8.42665 0.00393839 0)
(8.447 -0.00205058 0)
(8.46696 -0.00869894 0)
(8.48633 -0.0156965 0)
(8.505 -0.0228249 0)
(8.52291 -0.0299395 0)
(8.54003 -0.0369534 0)
(8.55638 -0.0438245 0)
(8.57197 -0.0505419 0)
(8.58681 -0.0571163 0)
(8.60093 -0.0635722 0)
(8.61436 -0.0699427 0)
(8.62713 -0.076265 0)
(8.63925 -0.0825781 0)
(8.65074 -0.0889202 0)
(8.66163 -0.0953278 0)
(8.67193 -0.101834 0)
(8.68164 -0.108469 0)
(8.69078 -0.115257 0)
(8.69933 -0.122217 0)
(8.7073 -0.129362 0)
(8.71467 -0.136698 0)
(8.72142 -0.144221 0)
(8.72753 -0.151917 0)
(8.73298 -0.159759 0)
(8.73773 -0.167716 0)
(8.74179 -0.175712 0)
(8.33352 0.00128793 0)
(8.3388 0.00351335 0)
(8.34977 0.00436423 0)
(8.36471 0.00332497 0)
(8.38202 0.000488545 0)
(8.4008 -0.00382875 0)
(8.42035 -0.00927209 0)
(8.4401 -0.0154867 0)
(8.45966 -0.0221578 0)
(8.47879 -0.0290412 0)
(8.49732 -0.0359643 0)
(8.51518 -0.0428139 0)
(8.53229 -0.0495252 0)
(8.54865 -0.0560703 0)
(8.56425 -0.0624478 0)
(8.5791 -0.0686745 0)
(8.59321 -0.0747791 0)
(8.6066 -0.0807965 0)
(8.61929 -0.0867649 0)
(8.63131 -0.0927227 0)
(8.64267 -0.0987069 0)
(8.6534 -0.104752 0)
(8.6635 -0.110887 0)
(8.67299 -0.117139 0)
(8.68187 -0.123527 0)
(8.69015 -0.130066 0)
(8.69783 -0.136762 0)
(8.70491 -0.143616 0)
(8.71137 -0.150617 0)
(8.7172 -0.157749 0)
(8.7224 -0.164982 0)
(8.72694 -0.172282 0)
(8.73086 -0.179579 0)
(8.33348 -0.00041574 0)
(8.33832 -0.00145701 0)
(8.34844 -0.00338551 0)
(8.36238 -0.0065698 0)
(8.37875 -0.010961 0)
(8.39674 -0.0163403 0)
(8.41568 -0.0224494 0)
(8.43499 -0.0290268 0)
(8.45427 -0.0358396 0)
(8.47325 -0.0427071 0)
(8.49173 -0.0495033 0)
(8.50958 -0.0561494 0)
(8.52673 -0.0626051 0)
(8.54314 -0.0688597 0)
(8.55878 -0.0749239 0)
(8.57366 -0.0808227 0)
(8.58778 -0.0865898 0)
(8.60114 -0.0922635 0)
(8.61378 -0.0978836 0)
(8.62571 -0.103489 0)
(8.63696 -0.109115 0)
(8.64753 -0.114795 0)
(8.65745 -0.120556 0)
(8.66673 -0.126421 0)
(8.67538 -0.132406 0)
(8.68341 -0.138522 0)
(8.69084 -0.144771 0)
(8.69765 -0.151149 0)
(8.70386 -0.157645 0)
(8.70946 -0.164238 0)
(8.71446 -0.170898 0)
(8.71884 -0.177593 0)
(8.72265 -0.184261 0)
(8.33345 -0.00204058 0)
(8.33799 -0.0062119 0)
(8.34753 -0.0108604 0)
(8.36078 -0.0162182 0)
(8.3765 -0.0222486 0)
(8.39396 -0.0287971 0)
(8.4125 -0.0356789 0)
(8.43155 -0.0427091 0)
(8.45068 -0.0497267 0)
(8.4696 -0.0566104 0)
(8.48809 -0.0632817 0)
(8.506 -0.069699 0)
(8.52322 -0.0758509 0)
(8.5397 -0.0817485 0)
(8.55541 -0.0874189 0)
(8.57033 -0.0928993 0)
(8.58446 -0.0982322 0)
(8.59781 -0.103462 0)
(8.6104 -0.108632 0)
(8.62225 -0.113784 0)
(8.63338 -0.118954 0)
(8.6438 -0.124175 0)
(8.65355 -0.129473 0)
(8.66264 -0.134868 0)
(8.67108 -0.140375 0)
(8.67889 -0.146001 0)
(8.68608 -0.151747 0)
(8.69267 -0.157606 0)
(8.69866 -0.163566 0)
(8.70407 -0.169605 0)
(8.7089 -0.175696 0)
(8.71317 -0.181808 0)
(8.71692 -0.187887 0)
(8.33343 -0.00362779 0)
(8.3378 -0.0108661 0)
(8.347 -0.0182222 0)
(8.35985 -0.0258022 0)
(8.37522 -0.0335642 0)
(8.39241 -0.0413981 0)
(8.4108 -0.0491791 0)
(8.42979 -0.0567896 0)
(8.44896 -0.0641337 0)
(8.46798 -0.0711471 0)
(8.48661 -0.0777972 0)
(8.50467 -0.0840797 0)
(8.52205 -0.0900117 0)
(8.53867 -0.0956267 0)
(8.5545 -0.100969 0)
(8.5695 -0.106088 0)
(8.58368 -0.111036 0)
(8.59705 -0.115863 0)
(8.60961 -0.120619 0)
(8.62139 -0.125347 0)
(8.63242 -0.130086 0)
(8.64272 -0.134869 0)
(8.65231 -0.139721 0)
(8.66121 -0.144662 0)
(8.66945 -0.149707 0)
(8.67706 -0.15486 0)
(8.68404 -0.160121 0)
(8.69042 -0.165485 0)
(8.69621 -0.170936 0)
(8.70144 -0.176457 0)
(8.70612 -0.182021 0)
(8.71027 -0.187602 0)
(8.71394 -0.193152 0)
(8.33342 -0.00521587 0)
(8.33773 -0.0155291 0)
(8.34681 -0.0256258 0)
(8.35954 -0.0354879 0)
(8.37484 -0.0450512 0)
(8.39203 -0.0542303 0)
(8.41049 -0.0629451 0)
(8.42962 -0.0711356 0)
(8.44898 -0.0787676 0)
(8.46821 -0.085835 0)
(8.48707 -0.0923566 0)
(8.50536 -0.0983715 0)
(8.52295 -0.103933 0)
(8.53976 -0.109103 0)
(8.55574 -0.11395 0)
(8.57086 -0.118539 0)
(8.58511 -0.122936 0)
(8.5985 -0.127202 0)
(8.61106 -0.131392 0)
(8.62279 -0.135553 0)
(8.63374 -0.139728 0)
(8.64392 -0.14395 0)
(8.65336 -0.148247 0)
(8.6621 -0.152636 0)
(8.67016 -0.157132 0)
(8.67758 -0.161739 0)
(8.68436 -0.166457 0)
(8.69055 -0.171279 0)
(8.69617 -0.176193 0)
(8.70124 -0.181181 0)
(8.7058 -0.186221 0)
(8.70986 -0.191289 0)
(8.71348 -0.196344 0)
(8.33343 -0.00684608 0)
(8.33778 -0.0203221 0)
(8.34698 -0.0332601 0)
(8.35989 -0.0455248 0)
(8.37545 -0.0570317 0)
(8.39297 -0.0677189 0)
(8.41181 -0.0775484 0)
(8.43138 -0.0865129 0)
(8.45118 -0.0946334 0)
(8.47086 -0.101955 0)
(8.49014 -0.10854 0)
(8.50882 -0.114467 0)
(8.52675 -0.119823 0)
(8.54385 -0.124695 0)
(8.56005 -0.129173 0)
(8.57534 -0.133342 0)
(8.5897 -0.137282 0)
(8.60316 -0.141063 0)
(8.61572 -0.14475 0)
(8.62742 -0.148398 0)
(8.63828 -0.152051 0)
(8.64834 -0.155748 0)
(8.65765 -0.159517 0)
(8.66622 -0.163379 0)
(8.6741 -0.167348 0)
(8.68131 -0.17143 0)
(8.6879 -0.175625 0)
(8.6939 -0.179928 0)
(8.69933 -0.184328 0)
(8.70423 -0.18881 0)
(8.70864 -0.193353 0)
(8.71257 -0.197939 0)
(8.71609 -0.202532 0)
(8.33344 -0.00856296 0)
(8.33796 -0.0253653 0)
(8.34749 -0.0412776 0)
(8.36086 -0.0560282 0)
(8.37696 -0.0694949 0)
(8.39507 -0.0816271 0)
(8.41453 -0.0924276 0)
(8.43472 -0.101951 0)
(8.45513 -0.11029 0)
(8.4754 -0.117558 0)
(8.49522 -0.123882 0)
(8.51439 -0.129391 0)
(8.53275 -0.134215 0)
(8.55021 -0.13848 0)
(8.56671 -0.142299 0)
(8.58223 -0.14578 0)
(8.59676 -0.149016 0)
(8.61032 -0.152091 0)
(8.62293 -0.155075 0)
(8.63462 -0.15803 0)
(8.64543 -0.161003 0)
(8.65541 -0.164035 0)
(8.66459 -0.167155 0)
(8.67302 -0.170386 0)
(8.68074 -0.173741 0)
(8.68778 -0.177228 0)
(8.69419 -0.180846 0)
(8.7 -0.184592 0)
(8.70526 -0.188456 0)
(8.71001 -0.192424 0)
(8.71427 -0.196481 0)
(8.71809 -0.20061 0)
(8.72154 -0.204779 0)
(8.33347 -0.0104232 0)
(8.33831 -0.0308423 0)
(8.34849 -0.0500181 0)
(8.36275 -0.0675612 0)
(8.37986 -0.0833371 0)
(8.39906 -0.0973146 0)
(8.41962 -0.109525 0)
(8.44086 -0.120064 0)
(8.46227 -0.12907 0)
(8.48343 -0.136705 0)
(8.50404 -0.143143 0)
(8.52388 -0.14856 0)
(8.54281 -0.153128 0)
(8.56073 -0.157007 0)
(8.5776 -0.160345 0)
(8.59338 -0.163274 0)
(8.60809 -0.16591 0)
(8.62176 -0.168353 0)
(8.6344 -0.170688 0)
(8.64608 -0.172986 0)
(8.65682 -0.175302 0)
(8.66669 -0.177682 0)
(8.67572 -0.18016 0)
(8.68398 -0.18276 0)
(8.6915 -0.185498 0)
(8.69833 -0.188383 0)
(8.70453 -0.191417 0)
(8.71013 -0.194597 0)
(8.71518 -0.197915 0)
(8.71972 -0.20136 0)
(8.72379 -0.204917 0)
(8.72742 -0.208572 0)
(8.73068 -0.212296 0)
(8.33352 -0.0124868 0)
(8.33878 -0.0368686 0)
(8.34985 -0.0594852 0)
(8.36525 -0.0797633 0)
(8.38361 -0.0975477 0)
(8.4041 -0.11286 0)
(8.42596 -0.125823 0)
(8.44848 -0.136643 0)
(8.47108 -0.145568 0)
(8.49334 -0.152853 0)
(8.51495 -0.158745 0)
(8.53568 -0.163481 0)
(8.55536 -0.167277 0)
(8.57392 -0.170327 0)
(8.59129 -0.172804 0)
(8.60748 -0.17486 0)
(8.62249 -0.176623 0)
(8.63636 -0.178203 0)
(8.64913 -0.179694 0)
(8.66085 -0.181169 0)
(8.67158 -0.182689 0)
(8.68138 -0.184302 0)
(8.69031 -0.186044 0)
(8.69842 -0.187939 0)
(8.70578 -0.190005 0)
(8.71243 -0.192251 0)
(8.71842 -0.19468 0)
(8.72382 -0.19729 0)
(8.72867 -0.200075 0)
(8.73302 -0.203025 0)
(8.73691 -0.206127 0)
(8.74039 -0.20937 0)
(8.74353 -0.212726 0)
(8.3336 -0.014867 0)
(8.33963 -0.0439129 0)
(8.35225 -0.0707662 0)
(8.36965 -0.0947293 0)
(8.39017 -0.115635 0)
(8.41283 -0.133479 0)
(8.43675 -0.148369 0)
(8.46112 -0.160536 0)
(8.48536 -0.170287 0)
(8.50903 -0.177948 0)
(8.53183 -0.183846 0)
(8.55355 -0.188294 0)
(8.57403 -0.191578 0)
(8.59323 -0.193955 0)
(8.61109 -0.195647 0)
(8.62764 -0.196846 0)
(8.64289 -0.197713 0)
(8.65691 -0.198381 0)
(8.66974 -0.198961 0)
(8.68145 -0.199537 0)
(8.69211 -0.200181 0)
(8.70178 -0.200942 0)
(8.71054 -0.201862 0)
(8.71845 -0.202967 0)
(8.72558 -0.204274 0)
(8.73198 -0.205795 0)
(8.73773 -0.207531 0)
(8.74286 -0.209483 0)
(8.74744 -0.211643 0)
(8.75152 -0.214003 0)
(8.75514 -0.216549 0)
(8.75835 -0.219272 0)
(8.76121 -0.222142 0)
(8.33366 -0.017626 0)
(8.34046 -0.0517516 0)
(8.35466 -0.0825372 0)
(8.37406 -0.109115 0)
(8.39677 -0.131533 0)
(8.42175 -0.150059 0)
(8.44802 -0.165043 0)
(8.47469 -0.176911 0)
(8.50107 -0.186102 0)
(8.5267 -0.193031 0)
(8.55122 -0.198079 0)
(8.57441 -0.201599 0)
(8.59614 -0.203903 0)
(8.61635 -0.205267 0)
(8.63503 -0.205931 0)
(8.6522 -0.2061 0)
(8.66792 -0.205945 0)
(8.68226 -0.205612 0)
(8.69529 -0.205216 0)
(8.7071 -0.204852 0)
(8.71778 -0.204593 0)
(8.7274 -0.204496 0)
(8.73606 -0.204602 0)
(8.74382 -0.20494 0)
(8.75077 -0.20553 0)
(8.75697 -0.206383 0)
(8.76249 -0.207503 0)
(8.76739 -0.208888 0)
(8.77174 -0.210534 0)
(8.77558 -0.212432 0)
(8.77898 -0.214569 0)
(8.78198 -0.216937 0)
(8.78466 -0.219504 0)
(8.3339 -0.0211457 0)
(8.34272 -0.0624535 0)
(8.36051 -0.0999921 0)
(8.38403 -0.132564 0)
(8.4107 -0.159972 0)
(8.43926 -0.182267 0)
(8.46867 -0.199772 0)
(8.49799 -0.213058 0)
(8.52662 -0.222767 0)
(8.55412 -0.229512 0)
(8.58021 -0.233866 0)
(8.6047 -0.23634 0)
(8.62748 -0.237375 0)
(8.64853 -0.237342 0)
(8.66786 -0.236552 0)
(8.68552 -0.235259 0)
(8.70157 -0.233666 0)
(8.71611 -0.231939 0)
(8.72923 -0.230205 0)
(8.74102 -0.228564 0)
(8.75159 -0.227091 0)
(8.76104 -0.225842 0)
(8.76946 -0.224856 0)
(8.77693 -0.22416 0)
(8.78353 -0.223769 0)
(8.78936 -0.223693 0)
(8.79448 -0.223933 0)
(8.79895 -0.224487 0)
(8.80284 -0.225349 0)
(8.80622 -0.226511 0)
(8.80913 -0.227959 0)
(8.81162 -0.229683 0)
(8.81376 -0.231649 0)
(8.33386 -0.0251642 0)
(8.34351 -0.0725728 0)
(8.3637 -0.113042 0)
(8.3906 -0.146333 0)
(8.42134 -0.173529 0)
(8.45443 -0.195301 0)
(8.48841 -0.212211 0)
(8.52203 -0.22491 0)
(8.55449 -0.234021 0)
(8.58531 -0.240115 0)
(8.61415 -0.243727 0)
(8.64085 -0.245353 0)
(8.66536 -0.245435 0)
(8.6877 -0.24436 0)
(8.70793 -0.242461 0)
(8.72616 -0.240018 0)
(8.74251 -0.237262 0)
(8.75712 -0.234382 0)
(8.77013 -0.231525 0)
(8.78166 -0.228806 0)
(8.79185 -0.226311 0)
(8.80082 -0.224104 0)
(8.80869 -0.222228 0)
(8.81555 -0.220711 0)
(8.82151 -0.21957 0)
(8.82666 -0.218812 0)
(8.83107 -0.218438 0)
(8.83482 -0.218446 0)
(8.83799 -0.218827 0)
(8.84064 -0.219574 0)
(8.84283 -0.220673 0)
(8.84464 -0.222114 0)
(8.84614 -0.223855 0)
(8.33496 -0.0320007 0)
(8.35121 -0.0946789 0)
(8.38006 -0.14935 0)
(8.41442 -0.193914 0)
(8.45083 -0.228741 0)
(8.48837 -0.254651 0)
(8.52589 -0.27297 0)
(8.56231 -0.285177 0)
(8.597 -0.292556 0)
(8.62956 -0.29618 0)
(8.65972 -0.296953 0)
(8.68736 -0.295613 0)
(8.71248 -0.292754 0)
(8.73515 -0.288847 0)
(8.75549 -0.28427 0)
(8.77365 -0.279317 0)
(8.78981 -0.274222 0)
(8.80413 -0.269163 0)
(8.8168 -0.264276 0)
(8.82797 -0.259663 0)
(8.83781 -0.255397 0)
(8.84646 -0.25153 0)
(8.85405 -0.248093 0)
(8.8607 -0.245105 0)
(8.86652 -0.242576 0)
(8.8716 -0.240505 0)
(8.87603 -0.238891 0)
(8.87988 -0.237728 0)
(8.88323 -0.237008 0)
(8.88614 -0.236726 0)
(8.88868 -0.236873 0)
(8.89092 -0.237443 0)
(8.8929 -0.238393 0)
(8.33402 -0.0369424 0)
(8.34976 -0.100725 0)
(8.38345 -0.150674 0)
(8.42588 -0.191531 0)
(8.47156 -0.225283 0)
(8.51807 -0.251673 0)
(8.5633 -0.271153 0)
(8.60607 -0.284624 0)
(8.64607 -0.29294 0)
(8.68322 -0.296977 0)
(8.71759 -0.297623 0)
(8.74934 -0.295693 0)
(8.77864 -0.291895 0)
(8.80569 -0.286826 0)
(8.83066 -0.280973 0)
(8.85372 -0.274723 0)
(8.87503 -0.268375 0)
(8.89471 -0.262156 0)
(8.91291 -0.256229 0)
(8.92976 -0.25071 0)
(8.94536 -0.245679 0)
(8.95984 -0.241183 0)
(8.9733 -0.237247 0)
(8.98582 -0.23388 0)
(8.99751 -0.231079 0)
(9.00843 -0.228833 0)
(9.01866 -0.227129 0)
(9.02826 -0.225953 0)
(9.03729 -0.225296 0)
(9.04581 -0.22515 0)
(9.0539 -0.225521 0)
(9.06162 -0.226415 0)
(9.06909 -0.227809 0)
(8.33958 -0.0609982 0)
(8.3769 -0.171263 0)
(8.42584 -0.250627 0)
(8.47525 -0.304714 0)
(8.52721 -0.34065 0)
(8.58328 -0.362837 0)
(8.6419 -0.375388 0)
(8.70179 -0.381404 0)
(8.76203 -0.382844 0)
(8.82154 -0.381038 0)
(8.87934 -0.376926 0)
(8.93466 -0.371177 0)
(8.98698 -0.364287 0)
(9.03596 -0.356639 0)
(9.0814 -0.348544 0)
(9.12326 -0.340256 0)
(9.1616 -0.331987 0)
(9.19654 -0.323908 0)
(9.22828 -0.316159 0)
(9.25703 -0.308845 0)
(9.283 -0.302044 0)
(9.30643 -0.295808 0)
(9.32754 -0.290169 0)
(9.34653 -0.285144 0)
(9.3636 -0.280733 0)
(9.37891 -0.276929 0)
(9.39261 -0.273721 0)
(9.40484 -0.271098 0)
(9.4157 -0.269062 0)
(9.42528 -0.267615 0)
(9.43369 -0.266821 0)
(9.44099 -0.266686 0)
(9.44739 -0.267432 0)
(8.33757 -0.0469144 0)
(8.39332 -0.122129 0)
(8.49337 -0.186992 0)
(8.60794 -0.249762 0)
(8.72958 -0.303943 0)
(8.85276 -0.346364 0)
(8.97055 -0.37774 0)
(9.07878 -0.39895 0)
(9.17521 -0.411135 0)
(9.25859 -0.415873 0)
(9.32864 -0.41478 0)
(9.38577 -0.40931 0)
(9.43083 -0.400718 0)
(9.46491 -0.390048 0)
(9.48924 -0.378134 0)
(9.50504 -0.365626 0)
(9.51347 -0.353022 0)
(9.51561 -0.340685 0)
(9.51243 -0.328874 0)
(9.50477 -0.317766 0)
(9.49336 -0.307468 0)
(9.47883 -0.298036 0)
(9.4617 -0.289491 0)
(9.44242 -0.281819 0)
(9.42134 -0.274988 0)
(9.39875 -0.26895 0)
(9.37489 -0.263647 0)
(9.34992 -0.259022 0)
(9.32398 -0.255025 0)
(9.29709 -0.251619 0)
(9.26938 -0.248892 0)
(9.24049 -0.246775 0)
(9.21123 -0.246398 0)
(8.40928 -0.221719 0)
(8.63501 -0.429567 0)
(8.83294 -0.524711 0)
(8.97608 -0.586241 0)
(9.06873 -0.619955 0)
(9.10984 -0.631451 0)
(9.10369 -0.628301 0)
(9.05967 -0.614564 0)
(8.98663 -0.59307 0)
(8.89201 -0.566381 0)
(8.7823 -0.536553 0)
(8.66284 -0.505169 0)
(8.53784 -0.473453 0)
(8.41048 -0.442323 0)
(8.28315 -0.412429 0)
(8.15753 -0.384202 0)
(8.03481 -0.357902 0)
(7.91574 -0.333658 0)
(7.80078 -0.311502 0)
(7.69014 -0.291397 0)
(7.58389 -0.273259 0)
(7.48196 -0.256972 0)
(7.38422 -0.242404 0)
(7.29048 -0.229409 0)
(7.20052 -0.217834 0)
(7.11412 -0.207526 0)
(7.03102 -0.198321 0)
(6.95097 -0.190064 0)
(6.8737 -0.182559 0)
(6.79882 -0.17563 0)
(6.72595 -0.169148 0)
(6.65407 -0.162159 0)
(6.5835 -0.158589 0)
(8.13697 -0.207417 0)
(7.84695 -0.388723 0)
(7.38339 -0.440419 0)
(6.85617 -0.441316 0)
(6.35434 -0.410209 0)
(5.88081 -0.361406 0)
(5.43822 -0.3072 0)
(5.03397 -0.253997 0)
(4.66916 -0.205025 0)
(4.34181 -0.161909 0)
(4.0496 -0.125097 0)
(3.78966 -0.0943682 0)
(3.55883 -0.06918 0)
(3.35397 -0.0488409 0)
(3.17206 -0.0326236 0)
(3.01034 -0.0198406 0)
(2.86626 -0.00987782 0)
(2.73755 -0.00220637 0)
(2.62219 0.00361859 0)
(2.5184 0.0079648 0)
(2.42463 0.0111331 0)
(2.33952 0.0133682 0)
(2.26191 0.0148692 0)
(2.19079 0.0157987 0)
(2.12528 0.0162958 0)
(2.06468 0.0164798 0)
(2.00833 0.0164839 0)
(1.95584 0.0164373 0)
(1.90661 0.0165946 0)
(1.86095 0.0172788 0)
(1.81771 0.0189252 0)
(1.77956 0.0242967 0)
(1.74355 0.0193735 0)
(1.64288 0.0402106 0)