/*--------------------------------*- C++ -*----------------------------------*\
| =========                 |                                                 |
| \\      /  F ield         | OpenFOAM: The Open Source CFD Toolbox           |
|  \\    /   O peration     | Version:  2.1.1                                 |
|   \\  /    A nd           | Web:      www.OpenFOAM.org                      |
|    \\/     M anipulation  |                                                 |
\*---------------------------------------------------------------------------*/
FoamFile
{
    version     2.0;
    format      ascii;
    class       volScalarField;
    location    "0.13";
    object      epsilon;
}
// * * * * * * * * * * * * * * * * * * * * * * * * * * * * * * * * * * * * * //

dimensions      [0 2 -3 0 0 0 0];

internalField   nonuniform List<scalar> 
6820
(
151.448
203.151
260.735
321.761
383.63
443.728
499.773
550.054
593.517
629.72
658.733
680.994
697.18
708.087
714.541
717.339
717.21
714.796
710.646
705.22
698.893
691.97
684.691
677.244
669.772
662.385
655.158
648.163
641.354
635.14
627.655
627.827
592.888
11.7448
21.4171
29.9431
38.6228
47.5772
56.5522
65.3109
73.652
81.4134
88.4865
94.8167
100.397
105.257
109.453
113.058
116.147
118.8
121.087
123.075
124.821
126.373
127.773
129.055
130.246
131.37
132.448
133.498
134.542
135.603
136.751
138.004
139.805
141.936
5.8378
7.51682
9.20667
10.8094
12.3199
13.7475
15.0886
16.3394
17.4983
18.5652
19.5417
20.4316
21.24
21.9734
22.639
23.2445
23.7975
24.3053
24.7747
25.2122
25.6234
26.0132
26.3862
26.7459
27.0956
27.438
27.7753
28.1096
28.4425
28.7765
29.1133
29.4502
29.8318
5.2423
5.56004
6.00444
6.49348
6.98573
7.46198
7.91312
8.33486
8.72553
9.08497
9.41393
9.71376
9.98615
10.233
10.4563
10.6582
10.8405
11.0053
11.1545
11.2896
11.4124
11.5245
11.627
11.7215
11.8088
11.8901
11.9661
12.0376
12.105
12.1688
12.2285
12.2848
12.3345
5.17349
5.18677
5.26821
5.39776
5.55638
5.72969
5.90781
6.08431
6.25516
6.41792
6.57122
6.71435
6.84707
6.96945
7.08176
7.18441
7.27789
7.36276
7.4396
7.50899
7.57153
7.62778
7.67829
7.7236
7.7642
7.80056
7.8331
7.86222
7.88827
7.91158
7.93238
7.95093
7.96732
5.16878
5.12131
5.09602
5.09481
5.11536
5.15307
5.20299
5.26075
5.32292
5.38691
5.45087
5.51346
5.57377
5.63118
5.6853
5.73591
5.78291
5.82628
5.8661
5.90245
5.93549
5.96537
5.99226
6.01636
6.03784
6.05691
6.07374
6.08851
6.10141
6.1126
6.12224
6.13046
6.13743
5.16887
5.11169
5.06116
5.01963
4.9884
4.96754
4.95615
4.95279
4.95586
4.96385
4.97541
4.98943
5.00499
5.02137
5.03802
5.0545
5.07048
5.08574
5.1001
5.11344
5.1257
5.13684
5.14684
5.15572
5.16351
5.17023
5.17594
5.18068
5.18453
5.18753
5.18976
5.19126
5.1921
5.16902
5.11062
5.05514
5.00339
4.95619
4.91414
4.87747
4.84611
4.81972
4.7978
4.77979
4.76509
4.75314
4.74345
4.73556
4.72909
4.72371
4.71915
4.71518
4.71162
4.70832
4.70516
4.70204
4.6989
4.69568
4.69233
4.68883
4.68517
4.68132
4.6773
4.6731
4.66873
4.66419
5.16904
5.11054
5.05431
5.00049
4.94927
4.9009
4.85559
4.81346
4.77456
4.73882
4.70611
4.67623
4.64896
4.62404
4.60124
4.58032
4.56104
4.54321
4.52664
4.51117
4.49664
4.48294
4.46995
4.45758
4.44574
4.43437
4.42341
4.4128
4.40251
4.3925
4.38274
4.37321
4.36388
5.16904
5.11054
5.0542
5.00002
4.94796
4.89803
4.85027
4.80471
4.76138
4.72028
4.68139
4.64466
4.61002
4.57737
4.5466
4.5176
4.49025
4.46443
4.44002
4.41691
4.39499
4.37416
4.35434
4.33543
4.31736
4.30007
4.28349
4.26757
4.25225
4.2375
4.22327
4.20952
4.19622
5.16904
5.11053
5.05418
4.99994
4.94772
4.89747
4.84913
4.80265
4.758
4.71514
4.67406
4.63471
4.59705
4.56104
4.52662
4.49373
4.46231
4.43229
4.4036
4.37617
4.34993
4.32483
4.30078
4.27774
4.25564
4.23442
4.21404
4.19444
4.17559
4.15743
4.13994
4.12307
4.10678
5.16904
5.11052
5.05417
4.99991
4.94767
4.89735
4.84888
4.80218
4.75719
4.71385
4.6721
4.63189
4.59319
4.55592
4.52007
4.48557
4.45238
4.42045
4.38974
4.36019
4.33176
4.30441
4.27808
4.25273
4.22832
4.20481
4.18215
4.1603
4.13923
4.1189
4.09929
4.08035
4.06205
5.16904
5.11052
5.05416
4.99989
4.94764
4.89731
4.84881
4.80206
4.75699
4.71352
4.67159
4.63114
4.59211
4.55445
4.5181
4.48302
4.44917
4.41649
4.38495
4.3545
4.3251
4.29672
4.26931
4.24285
4.21728
4.19258
4.16872
4.14566
4.12337
4.10182
4.08098
4.06082
4.04132
5.16903
5.11051
5.05415
4.99988
4.94762
4.89728
4.84877
4.802
4.75691
4.7134
4.67143
4.63091
4.59179
4.55401
4.51751
4.48225
4.44817
4.41523
4.38339
4.3526
4.32283
4.29404
4.26618
4.23924
4.21316
4.18793
4.16351
4.13987
4.11698
4.09482
4.07336
4.05258
4.03243
5.16903
5.11051
5.05414
4.99987
4.9476
4.89725
4.84873
4.80196
4.75685
4.71334
4.67134
4.6308
4.59165
4.55383
4.51729
4.48197
4.44782
4.4148
4.38286
4.35196
4.32205
4.29311
4.26509
4.23796
4.21168
4.18623
4.16158
4.1377
4.11455
4.09212
4.07037
4.04929
4.02885
5.16903
5.11051
5.05413
4.99986
4.94758
4.89723
4.8487
4.80192
4.7568
4.71328
4.67127
4.63072
4.59156
4.55372
4.51716
4.48182
4.44765
4.4146
4.38262
4.35168
4.32173
4.29273
4.26465
4.23745
4.21111
4.18558
4.16083
4.13685
4.1136
4.09105
4.06919
4.04798
4.02741
5.16903
5.1105
5.05413
4.99985
4.94757
4.89721
4.84868
4.80189
4.75676
4.71323
4.67121
4.63065
4.59148
4.55363
4.51706
4.48171
4.44752
4.41446
4.38247
4.35151
4.32154
4.29252
4.26441
4.23719
4.21081
4.18524
4.16046
4.13644
4.11315
4.09056
4.06864
4.04738
4.02674
5.16903
5.1105
5.05412
4.99984
4.94756
4.89719
4.84865
4.80186
4.75672
4.71318
4.67116
4.63059
4.59141
4.55355
4.51697
4.48161
4.44741
4.41434
4.38233
4.35136
4.32138
4.29235
4.26423
4.23699
4.21059
4.18501
4.16021
4.13617
4.11285
4.09024
4.0683
4.04701
4.02634
5.16903
5.1105
5.05412
4.99983
4.94755
4.89718
4.84863
4.80183
4.75669
4.71314
4.67111
4.63053
4.59134
4.55348
4.51689
4.48152
4.44731
4.41422
4.38221
4.35123
4.32123
4.29219
4.26406
4.23681
4.2104
4.18481
4.16
4.13594
4.11261
4.08997
4.06802
4.04671
4.02603
5.16903
5.1105
5.05411
4.99982
4.94754
4.89716
4.84861
4.80181
4.75666
4.71311
4.67107
4.63048
4.59128
4.55341
4.51681
4.48143
4.44722
4.41412
4.3821
4.35111
4.3211
4.29205
4.26391
4.23664
4.21023
4.18462
4.1598
4.13573
4.11238
4.08973
4.06776
4.04644
4.02574
5.16903
5.1105
5.05411
4.99982
4.94753
4.89715
4.8486
4.80178
4.75664
4.71307
4.67103
4.63044
4.59123
4.55335
4.51674
4.48135
4.44713
4.41403
4.38199
4.35099
4.32098
4.29191
4.26376
4.23649
4.21006
4.18444
4.15961
4.13552
4.11217
4.08951
4.06752
4.04619
4.02547
5.16903
5.11049
5.05411
4.99981
4.94752
4.89714
4.84858
4.80177
4.75661
4.71304
4.67099
4.63039
4.59118
4.5533
4.51668
4.48128
4.44705
4.41394
4.3819
4.35089
4.32086
4.29179
4.26363
4.23634
4.2099
4.18428
4.15943
4.13533
4.11196
4.08929
4.06729
4.04594
4.02522
5.16903
5.11049
5.05411
4.99981
4.94752
4.89713
4.84857
4.80175
4.75659
4.71302
4.67096
4.63036
4.59114
4.55324
4.51662
4.48122
4.44698
4.41386
4.38181
4.35079
4.32076
4.29167
4.2635
4.23621
4.20976
4.18412
4.15926
4.13515
4.11177
4.08909
4.06708
4.04571
4.02497
5.16903
5.11049
5.0541
4.99981
4.94751
4.89712
4.84856
4.80174
4.75657
4.713
4.67094
4.63032
4.5911
4.5532
4.51657
4.48116
4.44691
4.41378
4.38173
4.3507
4.32066
4.29157
4.26339
4.23608
4.20962
4.18397
4.1591
4.13499
4.11159
4.0889
4.06687
4.0455
4.02474
5.16903
5.11049
5.0541
4.9998
4.94751
4.89712
4.84855
4.80172
4.75656
4.71298
4.67091
4.63029
4.59106
4.55316
4.51652
4.4811
4.44685
4.41371
4.38165
4.35061
4.32057
4.29147
4.26328
4.23596
4.20949
4.18383
4.15895
4.13483
4.11142
4.08871
4.06668
4.04529
4.02453
5.16903
5.11049
5.0541
4.9998
4.9475
4.89711
4.84854
4.80171
4.75654
4.71296
4.67089
4.63027
4.59103
4.55312
4.51648
4.48106
4.4468
4.41366
4.38158
4.35054
4.32048
4.29138
4.26318
4.23586
4.20938
4.18371
4.15882
4.13468
4.11127
4.08855
4.0665
4.0451
4.02433
5.16903
5.11049
5.0541
4.9998
4.9475
4.89711
4.84854
4.8017
4.75653
4.71294
4.67087
4.63024
4.591
4.55309
4.51644
4.48101
4.44675
4.4136
4.38152
4.35047
4.32041
4.29129
4.26309
4.23576
4.20927
4.18359
4.15869
4.13454
4.11112
4.08839
4.06633
4.04493
4.02414
5.16903
5.11049
5.0541
4.9998
4.9475
4.8971
4.84853
4.8017
4.75653
4.71294
4.67086
4.63023
4.59099
4.55307
4.51642
4.48098
4.44671
4.41356
4.38147
4.35042
4.32035
4.29122
4.26301
4.23567
4.20918
4.18349
4.15858
4.13443
4.11099
4.08825
4.06619
4.04477
4.02397
5.16903
5.11049
5.0541
4.9998
4.9475
4.8971
4.84853
4.80169
4.75651
4.71292
4.67084
4.63021
4.59096
4.55304
4.51638
4.48094
4.44667
4.41351
4.38142
4.35036
4.32028
4.29115
4.26294
4.23559
4.20909
4.1834
4.15848
4.13432
4.11087
4.08813
4.06605
4.04462
4.02382
5.16903
5.11049
5.0541
4.9998
4.9475
4.89711
4.84853
4.8017
4.75652
4.71293
4.67085
4.63022
4.59097
4.55305
4.51639
4.48095
4.44667
4.4135
4.38141
4.35034
4.32026
4.29112
4.2629
4.23555
4.20904
4.18334
4.15842
4.13424
4.11079
4.08804
4.06596
4.04452
4.0237
5.16903
5.11049
5.0541
4.9998
4.9475
4.8971
4.84853
4.80169
4.75651
4.71291
4.67083
4.6302
4.59095
4.55302
4.51636
4.48092
4.44664
4.41347
4.38138
4.35031
4.32022
4.29109
4.26286
4.23551
4.209
4.18329
4.15837
4.1342
4.11074
4.08799
4.0659
4.04446
4.02364
5.16903
5.11049
5.0541
4.99981
4.94752
4.89714
4.84858
4.80176
4.75659
4.71301
4.67093
4.6303
4.59105
4.55313
4.51647
4.48102
4.44674
4.41358
4.38148
4.35041
4.32033
4.29119
4.26297
4.23562
4.20911
4.18342
4.1585
4.13433
4.11089
4.08815
4.06607
4.04465
4.02384
5.16903
5.11051
5.05414
4.99985
4.94756
4.89718
4.84861
4.80178
4.75661
4.71302
4.67095
4.63033
4.5911
4.55319
4.51655
4.48113
4.44688
4.41374
4.38169
4.35066
4.32062
4.29154
4.26337
4.23608
4.20964
4.18401
4.15917
4.13508
4.11172
4.08906
4.06708
4.04575
4.02505
5.16903
5.1105
5.05415
4.99992
4.9477
4.89739
4.8489
4.80214
4.75704
4.71352
4.67151
4.63096
4.59181
4.554
4.51747
4.48218
4.44808
4.41511
4.38324
4.35242
4.32261
4.29378
4.26588
4.23888
4.21274
4.18743
4.16293
4.1392
4.11621
4.09393
4.07234
4.05141
4.03112
5.16905
5.11063
5.05441
5.00026
4.9481
4.89786
4.84947
4.80288
4.75802
4.71482
4.67323
4.63318
4.59461
4.55748
4.52171
4.48726
4.45408
4.42211
4.3913
4.36161
4.33299
4.30539
4.27877
4.25309
4.22831
4.20439
4.18129
4.15899
4.13744
4.11661
4.09648
4.07701
4.05818
5.16908
5.11079
5.05488
5.00136
4.95017
4.9012
4.8544
4.80972
4.7671
4.72648
4.68779
4.65097
4.61592
4.58256
4.5508
4.52057
4.49177
4.46432
4.43815
4.41317
4.38932
4.36653
4.34473
4.32387
4.30388
4.28472
4.26634
4.24868
4.23171
4.2154
4.19969
4.18456
4.16998
5.16939
5.11358
5.06202
5.01464
4.97148
4.93248
4.89745
4.86612
4.83819
4.81332
4.79119
4.77151
4.75397
4.73834
4.72436
4.71184
4.70059
4.69044
4.68125
4.67289
4.66524
4.65822
4.65173
4.6457
4.64007
4.63478
4.62977
4.62501
4.62046
4.61609
4.61187
4.60777
4.60378
5.17808
5.16329
5.16948
5.19114
5.22428
5.2659
5.31359
5.36548
5.42013
5.47648
5.53366
5.59104
5.6481
5.70446
5.75983
5.81399
5.86678
5.91808
5.96781
6.01593
6.06242
6.10726
6.15048
6.19208
6.2321
6.27057
6.30753
6.34303
6.37711
6.40983
6.44123
6.47136
6.50029
5.63861
6.43046
7.14596
7.82597
8.49533
9.14806
9.77826
10.3836
10.9639
11.5201
12.0535
12.5658
13.0585
13.5329
13.9903
14.432
14.8588
15.2717
15.6713
16.0585
16.4338
16.7978
17.1509
17.4937
17.8266
18.1499
18.4641
18.7695
19.0664
19.3552
19.6362
19.9096
20.1759
44.7794
48.3124
51.8864
55.4656
59.0311
62.5709
66.0743
69.5317
72.9343
76.2743
79.5448
82.7399
85.8548
88.8855
91.8288
94.6822
97.4442
100.113
102.69
105.173
107.564
109.862
112.071
114.19
116.222
118.168
120.031
121.813
123.517
125.143
126.696
128.178
129.591
705.321
836.128
940.544
1022.99
1088.04
1134.75
1160.43
1163.52
1145.36
1110.03
1063.08
1010.12
955.837
903.397
854.519
809.78
769.06
731.927
697.898
666.566
637.632
610.881
586.132
563.212
541.93
522.074
503.419
485.738
468.809
452.428
436.413
420.605
404.869
389.096
373.202
357.126
340.833
324.311
307.572
290.656
273.624
256.561
239.57
222.774
206.304
190.297
174.893
160.22
146.393
133.507
121.632
110.807
101.045
92.3257
84.6065
77.8203
71.882
66.6934
62.1471
58.1312
54.5328
51.2419
48.1545
45.1763
42.2261
39.2391
36.1704
32.9977
29.7236
26.3767
23.0108
19.702
16.5422
13.6282
11.048
8.86449
7.10303
5.7483
4.75182
4.04724
3.56584
3.24698
3.04225
2.91546
2.84063
2.79971
2.78043
2.77467
2.77723
2.78493
2.79592
2.80927
2.82466
2.84204
2.86159
2.88337
2.90743
2.93381
2.95955
3.00148
146.599
153.389
163.63
178.582
199.339
226.734
260.912
301.104
345.575
391.746
436.518
476.754
509.804
533.927
548.513
554.029
551.756
543.411
530.791
515.495
498.787
481.553
464.345
447.459
431.016
415.03
399.46
384.241
369.299
354.56
339.953
325.413
310.885
296.321
281.689
266.972
252.172
237.308
222.421
207.57
192.832
178.301
164.08
150.282
137.019
124.401
112.528
101.482
91.3265
82.1013
73.8205
66.4735
60.027
54.4282
49.6095
45.4923
41.9915
39.019
36.486
34.305
32.3911
30.6636
29.0467
27.4724
25.8821
24.2297
22.4843
20.6331
18.6832
16.6618
14.6146
12.6023
10.6927
8.95137
7.43088
6.16192
5.14942
4.37528
3.80611
3.4024
3.12571
2.94276
2.82675
2.75716
2.71883
2.7009
2.69586
2.69862
2.70591
2.71577
2.7271
2.73944
2.75278
2.76728
2.78328
2.80104
2.82076
2.84265
2.86426
2.9004
30.1959
30.6255
31.285
32.3668
34.0008
36.2463
39.3734
43.7167
49.6469
57.528
67.6562
80.1866
95.0623
111.968
130.327
149.35
168.121
185.722
201.342
214.379
224.481
231.554
235.72
237.255
236.518
233.89
229.733
224.355
218.011
210.894
203.151
194.889
186.191
177.126
167.752
158.132
148.329
138.414
128.467
118.574
108.825
99.3153
90.1386
81.3847
73.1345
65.4562
58.4022
52.0062
46.2822
41.2252
36.8125
33.0069
29.7607
27.0189
24.7232
22.8151
21.2374
19.9357
18.8584
17.9566
17.184
16.4961
15.8506
15.2084
14.5347
13.8015
12.9898
12.0919
11.1132
10.0722
8.99957
7.93409
6.91761
5.98849
5.17572
4.49511
3.94874
3.52742
3.21481
2.9916
2.83862
2.73868
2.6774
2.64328
2.62756
2.62374
2.62721
2.63479
2.64445
2.65495
2.66569
2.67649
2.68749
2.69899
2.71143
2.72516
2.74053
2.75784
2.77519
2.80508
12.3889
12.4636
12.5588
12.6815
12.8485
13.0622
13.3333
13.6904
14.1732
14.831
15.7217
16.9097
18.4644
20.4558
22.9488
25.9938
29.6157
33.801
38.4885
43.5658
48.8741
54.2206
59.397
64.1998
68.4484
71.9991
74.7526
76.6549
77.6935
77.8903
77.2933
75.9684
73.9924
71.4486
68.4229
65.002
61.2728
57.3208
53.2305
49.0834
44.9574
40.9243
37.0486
33.3849
29.9767
26.8551
24.0383
21.5324
19.3325
17.4248
15.7889
14.4
13.2315
12.2565
11.4494
10.7862
10.2448
9.80516
9.44861
9.15729
8.9137
8.70022
8.49897
8.29211
8.06266
7.79573
7.48023
7.11057
6.68798
6.22107
5.72523
5.22067
4.72952
4.27245
3.86569
3.51925
3.2366
3.01557
2.85006
2.73178
2.65174
2.60134
2.57292
2.56011
2.55781
2.56214
2.57025
2.58016
2.59057
2.60072
2.61028
2.61924
2.62781
2.63635
2.64533
2.65518
2.66633
2.67913
2.69226
2.71564
7.98408
8.00215
8.01974
8.03712
8.05585
8.07894
8.1068
8.14232
8.18988
8.25524
8.34543
8.46871
8.63433
8.85221
9.13252
9.48506
9.91861
10.44
11.0534
11.759
12.5524
13.4239
14.3578
15.3322
16.3197
17.2881
18.2026
19.0277
19.7301
20.2805
20.6563
20.8423
20.8319
20.6268
20.2365
19.6776
18.9721
18.1462
17.2287
16.2492
15.237
14.2191
13.2198
12.259
11.3525
10.5115
9.74294
9.04974
8.43188
7.88688
7.41061
6.99793
6.64318
6.34064
6.0847
5.87003
5.69158
5.54454
5.42416
5.32557
5.24354
5.17233
5.10551
5.03612
4.95684
4.86067
4.74166
4.59595
4.42258
4.2241
4.00654
3.77876
3.55118
3.33423
3.13686
2.96546
2.82344
2.71136
2.62745
2.56841
2.53013
2.50828
2.4988
2.49809
2.50318
2.51171
2.52189
2.53245
2.54254
2.55169
2.55972
2.56669
2.57284
2.57855
2.58428
2.59049
2.59765
2.60612
2.61517
2.63199
6.14382
6.14886
6.15172
6.15273
6.15221
6.15054
6.14806
6.14528
6.14295
6.14198
6.14351
6.14889
6.15967
6.17759
6.20452
6.24237
6.29289
6.35762
6.43763
6.53341
6.64473
6.77054
6.9089
7.05692
7.21081
7.36588
7.51676
7.65753
7.78207
7.88437
7.95888
8.00091
8.00691
7.97473
7.90379
7.79506
7.65101
7.47544
7.27318
7.04976
6.81112
6.56319
6.31163
6.06158
5.81747
5.5829
5.36065
5.15268
4.96019
4.78376
4.62343
4.47887
4.34945
4.23433
4.1326
4.04326
3.96526
3.89753
3.83893
3.78816
3.74373
3.70383
3.66631
3.62862
3.58792
3.54124
3.4858
3.41946
3.34118
3.25135
3.15198
3.04656
2.93966
2.83618
2.74074
2.65701
2.58732
2.53261
2.49254
2.4658
2.45044
2.44424
2.44496
2.45053
2.45914
2.46932
2.47989
2.49001
2.4991
2.50684
2.51313
2.51806
2.52188
2.52493
2.52766
2.5305
2.53397
2.53839
2.54358
2.55398
5.19218
5.19101
5.1884
5.18434
5.17881
5.1718
5.16344
5.15396
5.14357
5.13246
5.12085
5.10897
5.0971
5.08554
5.07467
5.06489
5.05663
5.0503
5.04627
5.04482
5.04606
5.04995
5.05622
5.0644
5.07374
5.08332
5.092
5.09848
5.10138
5.09929
5.09087
5.0749
5.05037
5.01655
4.97306
4.91984
4.85723
4.78591
4.70683
4.62124
4.53052
4.43617
4.33968
4.24251
4.146
4.05132
3.95944
3.87115
3.78701
3.70741
3.63254
3.56246
3.49711
3.43635
3.37999
3.32778
3.27947
3.23478
3.19342
3.15504
3.11923
3.08547
3.05309
3.02128
2.98904
2.95528
2.9189
2.87898
2.83496
2.78684
2.73529
2.68167
2.62791
2.57624
2.52885
2.48765
2.45393
2.42834
2.41082
2.40079
2.39722
2.3989
2.4045
2.41275
2.42249
2.43273
2.44265
2.45166
2.45932
2.46542
2.46988
2.47279
2.47439
2.47496
2.47495
2.47473
2.47484
2.47552
2.47716
2.48139
4.65862
4.65167
4.6439
4.63523
4.62566
4.61522
4.60389
4.59172
4.57872
4.56494
4.55043
4.53521
4.5193
4.50274
4.48555
4.4678
4.44954
4.43087
4.41188
4.39266
4.37331
4.35386
4.33433
4.31468
4.29479
4.27451
4.2536
4.23176
4.20869
4.18401
4.15737
4.12845
4.09694
4.06262
4.02536
3.98513
3.94198
3.89611
3.84778
3.79737
3.7453
3.69205
3.6381
3.58395
3.53004
3.47679
3.42454
3.37356
3.32405
3.27613
3.22986
3.18525
3.14226
3.1008
3.0608
3.02217
2.9848
2.94863
2.91357
2.87957
2.84656
2.81444
2.78309
2.75234
2.72196
2.69165
2.66114
2.63015
2.59855
2.56639
2.53399
2.50194
2.47108
2.44242
2.41697
2.39561
2.37896
2.36733
2.36065
2.35854
2.36039
2.36542
2.37277
2.38157
2.39101
2.40037
2.40904
2.41654
2.42255
2.42688
2.42949
2.43044
2.42994
2.42824
2.42573
2.42276
2.41983
2.41713
2.41553
2.41399
4.3532
4.34089
4.32824
4.31518
4.30168
4.28768
4.27317
4.25816
4.24266
4.22665
4.21015
4.19313
4.17559
4.15748
4.13878
4.11947
4.09952
4.07891
4.05764
4.03572
4.01315
3.98996
3.96617
3.94179
3.91682
3.89127
3.8651
3.83828
3.81076
3.78247
3.75337
3.72337
3.69243
3.6605
3.62758
3.59367
3.55883
3.52313
3.48668
3.44963
3.41213
3.37436
3.33651
3.29873
3.26119
3.22403
3.18734
3.15121
3.11565
3.08068
3.04628
3.0124
2.97897
2.94592
2.9132
2.88074
2.84849
2.81644
2.78459
2.75296
2.7216
2.69057
2.65995
2.62979
2.60017
2.57114
2.54274
2.51505
2.48815
2.4622
2.43744
2.41422
2.39296
2.37412
2.35818
2.34551
2.33636
2.33081
2.32871
2.32977
2.33351
2.33936
2.34669
2.35484
2.36318
2.37114
2.37822
2.38403
2.38829
2.39083
2.39161
2.39069
2.38822
2.38443
2.37967
2.37422
2.36859
2.36285
2.35836
2.35148
4.18122
4.16427
4.14723
4.13008
4.11276
4.09525
4.07753
4.0596
4.04145
4.02305
4.00441
3.9855
3.9663
3.94678
3.92692
3.90667
3.88599
3.86486
3.84324
3.82111
3.79845
3.77526
3.75153
3.72726
3.70247
3.67717
3.65136
3.62507
3.59831
3.57109
3.54342
3.51533
3.48683
3.45794
3.42869
3.39912
3.36927
3.3392
3.30898
3.27866
3.24832
3.21802
3.18784
3.15783
3.12802
3.09846
3.06914
3.04005
3.01117
2.98244
2.95381
2.92521
2.89656
2.8678
2.83888
2.80973
2.78036
2.75075
2.72093
2.69097
2.66094
2.63098
2.6012
2.57178
2.54288
2.51467
2.48736
2.46112
2.43618
2.41273
2.39103
2.37133
2.35388
2.33896
2.32678
2.31749
2.31116
2.30773
2.30704
2.30878
2.31255
2.31789
2.32426
2.33113
2.33796
2.34427
2.34962
2.35368
2.35617
2.35696
2.35598
2.35328
2.34898
2.34328
2.33648
2.32883
2.3208
2.31235
2.3053
2.29357
4.08846
4.06787
4.04733
4.02681
4.00629
3.98575
3.96517
3.94455
3.92387
3.90313
3.88232
3.86143
3.84044
3.81934
3.7981
3.7767
3.7551
3.73327
3.7112
3.68884
3.66618
3.6432
3.61989
3.59624
3.57225
3.54792
3.52328
3.49832
3.47308
3.44757
3.42182
3.39586
3.36971
3.34343
3.31703
3.29056
3.26405
3.23756
3.2111
3.18473
3.15847
3.13234
3.10638
3.08057
3.05493
3.02943
3.00403
2.9787
2.95338
2.928
2.90249
2.87677
2.85078
2.82445
2.79773
2.77058
2.743
2.71499
2.68661
2.65791
2.62901
2.60003
2.57113
2.54249
2.51433
2.48685
2.46029
2.4349
2.4109
2.38855
2.36808
2.34971
2.33364
2.32005
2.30906
2.30072
2.29502
2.29184
2.291
2.29221
2.2951
2.29926
2.30422
2.30951
2.31466
2.31923
2.32284
2.32515
2.32593
2.32503
2.32238
2.31801
2.31202
2.30458
2.29594
2.28632
2.27617
2.26533
2.25602
2.23997
4.04145
4.01832
3.99526
3.97228
3.94935
3.92647
3.90363
3.88084
3.85807
3.83534
3.81264
3.78998
3.76733
3.7447
3.72206
3.69941
3.67673
3.654
3.63119
3.6083
3.58529
3.56215
3.53888
3.51546
3.49189
3.46816
3.44429
3.42028
3.39614
3.37189
3.34755
3.32315
3.29871
3.27425
3.24982
3.22543
3.20111
3.17688
3.15278
3.12882
3.10501
3.08135
3.05784
3.03446
3.0112
2.988
2.96483
2.94162
2.91832
2.89484
2.87112
2.84707
2.82265
2.79778
2.77242
2.74655
2.72016
2.69327
2.66593
2.63821
2.61022
2.5821
2.554
2.52611
2.49864
2.47181
2.44587
2.42106
2.39762
2.3758
2.35583
2.3379
2.3222
2.30885
2.29795
2.2895
2.28345
2.27969
2.278
2.27813
2.27973
2.28242
2.28579
2.2894
2.29283
2.29567
2.29756
2.2982
2.29734
2.29485
2.29064
2.28472
2.27718
2.26815
2.25786
2.24648
2.23446
2.22152
2.21025
2.19037
4.01934
3.99462
3.96996
3.94537
3.92084
3.89637
3.87197
3.84762
3.82333
3.79912
3.77498
3.75091
3.72692
3.70301
3.67917
3.6554
3.63169
3.60803
3.58441
3.56082
3.53725
3.51369
3.49013
3.46657
3.443
3.41941
3.39582
3.37222
3.34863
3.32505
3.3015
3.278
3.25456
3.2312
3.20793
3.18479
3.16178
3.13892
3.11622
3.09368
3.0713
3.04907
3.02698
3.005
2.98309
2.9612
2.93929
2.9173
2.89514
2.87276
2.85008
2.82704
2.80356
2.77959
2.75511
2.73008
2.70451
2.67843
2.65187
2.62491
2.59767
2.57026
2.54285
2.51561
2.48876
2.4625
2.43707
2.4127
2.38964
2.36812
2.34833
2.33049
2.31474
2.3012
2.28993
2.28093
2.27415
2.26945
2.26664
2.26546
2.26562
2.26676
2.26849
2.27043
2.27217
2.27333
2.27359
2.27263
2.27024
2.26626
2.26061
2.25326
2.2443
2.23384
2.22206
2.20913
2.19546
2.18068
2.16771
2.14447
4.0097
3.9841
3.95854
3.93302
3.90754
3.88211
3.85673
3.8314
3.80614
3.78094
3.75582
3.73078
3.70584
3.68099
3.65624
3.63159
3.60704
3.5826
3.55826
3.53401
3.50985
3.48578
3.4618
3.4379
3.41408
3.39035
3.3667
3.34314
3.31968
3.29632
3.27308
3.24996
3.22698
3.20414
3.18147
3.15896
3.13663
3.11448
3.09252
3.07073
3.04911
3.02765
3.00631
2.98507
2.96389
2.94271
2.92148
2.90014
2.87862
2.85685
2.83477
2.8123
2.7894
2.766
2.74209
2.71764
2.69265
2.66715
2.64118
2.61483
2.58819
2.56138
2.53455
2.50788
2.48155
2.45578
2.43078
2.40677
2.38399
2.36263
2.34291
2.325
2.30903
2.29512
2.28331
2.27361
2.26594
2.26018
2.25616
2.25364
2.25233
2.25192
2.25205
2.25236
2.25248
2.25206
2.25076
2.24832
2.2445
2.23914
2.23215
2.22351
2.21327
2.20151
2.18841
2.1741
2.15898
2.1426
2.12815
2.102
4.00576
3.97972
3.9537
3.92769
3.90171
3.87576
3.84984
3.82396
3.79812
3.77234
3.74663
3.72099
3.69543
3.66997
3.64461
3.61935
3.59421
3.56918
3.54427
3.51948
3.49482
3.47029
3.44588
3.42161
3.39747
3.37346
3.3496
3.32588
3.30232
3.27892
3.25568
3.23262
3.20974
3.18706
3.16458
3.1423
3.12023
3.09836
3.0767
3.05523
3.03394
3.01281
2.9918
2.97089
2.95003
2.92917
2.90826
2.88723
2.86602
2.84456
2.82279
2.80065
2.77809
2.75505
2.73152
2.70746
2.68289
2.65784
2.63234
2.60647
2.58032
2.55401
2.52768
2.50149
2.47562
2.45026
2.42562
2.40191
2.37933
2.35808
2.33835
2.3203
2.30406
2.28972
2.27731
2.26685
2.25826
2.25144
2.24621
2.24235
2.23962
2.23771
2.2363
2.23506
2.23364
2.23172
2.22898
2.22514
2.22
2.21338
2.20517
2.19535
2.18395
2.17104
2.15677
2.14124
2.12485
2.10708
2.09136
2.06271
4.00415
3.97791
3.95168
3.92544
3.89922
3.87301
3.84681
3.82064
3.79451
3.76841
3.74237
3.71639
3.69047
3.66464
3.6389
3.61326
3.58772
3.5623
3.53699
3.51182
3.48678
3.46187
3.43711
3.41251
3.38805
3.36376
3.33963
3.31568
3.29192
3.26834
3.24496
3.22179
3.19883
3.17608
3.15356
3.13127
3.10921
3.08736
3.06574
3.04431
3.02308
3.00201
2.98107
2.96023
2.93945
2.91867
2.89785
2.87692
2.85582
2.83449
2.81287
2.79089
2.76852
2.74571
2.72242
2.69865
2.6744
2.64969
2.62456
2.59908
2.57335
2.54746
2.52156
2.49579
2.47031
2.44531
2.42098
2.39752
2.3751
2.35392
2.33415
2.31593
2.29938
2.28458
2.27158
2.26036
2.25086
2.24299
2.23659
2.23145
2.22735
2.22401
2.22114
2.21843
2.21557
2.21223
2.20814
2.20302
2.19665
2.18887
2.17957
2.16869
2.15625
2.14231
2.127
2.11042
2.09293
2.07396
2.05714
2.02634
4.00341
3.97709
3.95075
3.92441
3.89807
3.87174
3.84541
3.8191
3.79281
3.76656
3.74034
3.71417
3.68806
3.66202
3.63605
3.61017
3.58439
3.55871
3.53314
3.5077
3.48239
3.45721
3.43218
3.4073
3.38258
3.35803
3.33366
3.30947
3.28548
3.26169
3.23811
3.21475
3.19161
3.16871
3.14604
3.1236
3.10141
3.07944
3.0577
3.03618
3.01485
2.99368
2.97266
2.95175
2.9309
2.91007
2.8892
2.86825
2.84714
2.82583
2.80424
2.78234
2.76007
2.73739
2.71428
2.69071
2.6667
2.64227
2.61745
2.59231
2.56693
2.54141
2.51588
2.49047
2.46534
2.44066
2.41659
2.39333
2.37104
2.3499
2.33006
2.31166
2.2948
2.27955
2.26595
2.254
2.24363
2.23475
2.22722
2.22086
2.21545
2.21076
2.20651
2.20242
2.19819
2.19354
2.18819
2.18188
2.17439
2.16555
2.15525
2.14342
2.13006
2.11522
2.09901
2.08151
2.06307
2.04307
2.02533
1.9927
4.00298
3.97661
3.95022
3.92383
3.89743
3.87103
3.84464
3.81826
3.79189
3.76554
3.73923
3.71296
3.68673
3.66056
3.63446
3.60844
3.5825
3.55665
3.53091
3.50528
3.47977
3.4544
3.42916
3.40407
3.37914
3.35437
3.32979
3.30538
3.28117
3.25717
3.23338
3.20981
3.18647
3.16336
3.14049
3.11786
3.09548
3.07333
3.05141
3.0297
3.00819
2.98686
2.96568
2.94461
2.92362
2.90266
2.88168
2.86063
2.83945
2.81809
2.79649
2.7746
2.75237
2.72977
2.70678
2.68337
2.65956
2.63535
2.6108
2.58595
2.56088
2.53568
2.51048
2.48539
2.46057
2.43616
2.41233
2.38924
2.36706
2.34593
2.32601
2.30742
2.29024
2.27455
2.26038
2.24771
2.2365
2.22666
2.21806
2.21054
2.2039
2.19792
2.19237
2.18698
2.18148
2.1756
2.16907
2.16165
2.15313
2.14334
2.13214
2.11946
2.1053
2.08968
2.0727
2.0544
2.03516
2.01428
1.99575
1.96159
4.00264
3.97624
3.94982
3.92339
3.89696
3.87052
3.84409
3.81766
3.79124
3.76485
3.73847
3.71213
3.68583
3.65958
3.63339
3.60727
3.58122
3.55526
3.52939
3.50362
3.47797
3.45244
3.42704
3.40178
3.37668
3.35173
3.32696
3.30236
3.27796
3.25376
3.22976
3.20599
3.18244
3.15913
3.13605
3.11321
3.09061
3.06825
3.04612
3.0242
3.00249
2.98096
2.95958
2.93832
2.91715
2.89603
2.8749
2.85372
2.83243
2.81099
2.78934
2.76743
2.74522
2.72267
2.69976
2.67648
2.65283
2.62882
2.60449
2.57989
2.5551
2.53019
2.50528
2.48048
2.45593
2.43176
2.40813
2.3852
2.36309
2.34197
2.32196
2.30317
2.28569
2.26957
2.25484
2.24149
2.22948
2.21872
2.2091
2.20047
2.19266
2.18548
2.17869
2.17208
2.16538
2.15834
2.15073
2.14229
2.13283
2.12216
2.11016
2.09674
2.08189
2.06559
2.04795
2.029
2.00909
1.98747
1.9683
1.93286
4.00233
3.97591
3.94947
3.92302
3.89655
3.87009
3.84362
3.81716
3.7907
3.76426
3.73784
3.71145
3.6851
3.65879
3.63253
3.60632
3.58019
3.55414
3.52817
3.50229
3.47652
3.45086
3.42533
3.39993
3.37468
3.34957
3.32464
3.29987
3.27529
3.25091
3.22673
3.20276
3.17902
3.1555
3.13222
3.10917
3.08636
3.06378
3.04143
3.0193
2.99737
2.97563
2.95404
2.93259
2.91123
2.88993
2.86864
2.84731
2.82591
2.80437
2.78265
2.7607
2.73849
2.71597
2.69313
2.66995
2.64643
2.62259
2.59846
2.57409
2.54954
2.52489
2.50024
2.4757
2.45139
2.42744
2.40399
2.38118
2.35914
2.33801
2.3179
2.29892
2.28113
2.26459
2.24933
2.23533
2.22255
2.21092
2.20033
2.19065
2.18174
2.17341
2.16546
2.15769
2.14986
2.14175
2.13312
2.12374
2.11341
2.10195
2.08924
2.07518
2.05973
2.04287
2.0247
2.0052
1.98475
1.96254
1.94284
1.90635
4.00205
3.9756
3.94914
3.92266
3.89617
3.86968
3.84318
3.81669
3.7902
3.76373
3.73727
3.71083
3.68443
3.65806
3.63174
3.60548
3.57927
3.55313
3.52708
3.50111
3.47523
3.44947
3.42382
3.39829
3.3729
3.34766
3.32258
3.29766
3.27292
3.24837
3.22401
3.19987
3.17594
3.15223
3.12875
3.1055
3.08248
3.05969
3.03713
3.01479
2.99265
2.9707
2.94891
2.92726
2.90571
2.88423
2.86278
2.84131
2.81978
2.79814
2.77634
2.75435
2.73212
2.70962
2.68683
2.66374
2.64034
2.61665
2.59269
2.56852
2.54418
2.51976
2.49535
2.47104
2.44694
2.42319
2.3999
2.37719
2.35521
2.33405
2.31384
2.29466
2.27657
2.25964
2.24386
2.22924
2.21573
2.20326
2.19175
2.18109
2.17112
2.1617
2.15265
2.14378
2.13489
2.12576
2.11617
2.10591
2.09479
2.08263
2.06929
2.05468
2.03874
2.02144
2.00284
1.98293
1.96206
1.93939
1.91929
1.88198
4.00177
3.97531
3.94882
3.92232
3.89581
3.86929
3.84277
3.81624
3.78973
3.76321
3.73672
3.71024
3.68379
3.65738
3.631
3.60468
3.5784
3.55219
3.52606
3.5
3.47404
3.44817
3.42241
3.39677
3.37126
3.34589
3.32067
3.29561
3.27073
3.24602
3.2215
3.19719
3.17308
3.14919
3.12552
3.10208
3.07887
3.05589
3.03312
3.01058
2.98824
2.96608
2.94409
2.92225
2.90052
2.87887
2.85725
2.83564
2.81399
2.79225
2.77037
2.74833
2.72608
2.70359
2.68084
2.65782
2.63452
2.61096
2.58716
2.56317
2.53903
2.51481
2.49061
2.4665
2.4426
2.41901
2.39586
2.37325
2.3513
2.33012
2.3098
2.29042
2.27205
2.25472
2.23846
2.22324
2.20903
2.19578
2.18339
2.17178
2.1608
2.15034
2.14023
2.13031
2.12039
2.11029
2.09979
2.08871
2.07686
2.06407
2.05019
2.03513
2.01881
2.00118
1.98228
1.96209
1.94093
1.91795
1.89757
1.85966
4.00151
3.97503
3.94853
3.922
3.89547
3.86892
3.84237
3.81582
3.78927
3.76273
3.73619
3.70968
3.68319
3.65672
3.6303
3.60391
3.57758
3.5513
3.52509
3.49896
3.47291
3.44695
3.42109
3.39535
3.36972
3.34423
3.31889
3.2937
3.26867
3.24382
3.21915
3.19467
3.1704
3.14634
3.1225
3.09888
3.07548
3.05231
3.02936
3.00662
2.98408
2.96174
2.93956
2.91753
2.89563
2.87381
2.85204
2.83029
2.80852
2.78668
2.76473
2.74263
2.72036
2.69787
2.67515
2.65219
2.62898
2.60553
2.58187
2.55804
2.53407
2.51004
2.48602
2.4621
2.43837
2.41493
2.3919
2.36937
2.34744
2.32623
2.3058
2.28624
2.26759
2.2499
2.23316
2.21738
2.20251
2.18849
2.17527
2.16273
2.15078
2.1393
2.12815
2.11719
2.10627
2.0952
2.08383
2.07196
2.05944
2.04609
2.03177
2.01636
1.99978
1.98195
1.96291
1.94258
1.9213
1.89815
1.87764
1.83936
4.00127
3.97477
3.94824
3.9217
3.89514
3.86857
3.842
3.81541
3.78883
3.76226
3.73569
3.70914
3.68261
3.6561
3.62962
3.60319
3.57679
3.55045
3.52417
3.49796
3.47183
3.44579
3.41984
3.394
3.36827
3.34267
3.31721
3.29189
3.26673
3.24174
3.21693
3.19231
3.16788
3.14366
3.11966
3.09586
3.07229
3.04894
3.02581
3.00289
2.98017
2.95764
2.93529
2.91309
2.89102
2.86904
2.84713
2.82525
2.80336
2.78142
2.7594
2.73725
2.71495
2.69246
2.66977
2.64686
2.62372
2.60038
2.57684
2.55314
2.52933
2.50547
2.48162
2.45786
2.43429
2.41099
2.38806
2.3656
2.3437
2.32245
2.30193
2.28219
2.26328
2.24524