/*--------------------------------*- C++ -*----------------------------------*\
| =========                 |                                                 |
| \\      /  F ield         | OpenFOAM: The Open Source CFD Toolbox           |
|  \\    /   O peration     | Version:  2.1.1                                 |
|   \\  /    A nd           | Web:      www.OpenFOAM.org                      |
|    \\/     M anipulation  |                                                 |
\*---------------------------------------------------------------------------*/
FoamFile
{
    version     2.0;
    format      ascii;
    class       volScalarField;
    location    "0.13";
    object      k;
}
// * * * * * * * * * * * * * * * * * * * * * * * * * * * * * * * * * * * * * //

dimensions      [0 2 -2 0 0 0 0];

internalField   nonuniform List<scalar> 
6820
(
0.288909
0.351398
0.415005
0.477466
0.536861
0.591559
0.640376
0.682638
0.71814
0.747054
0.769827
0.787074
0.799497
0.807814
0.812715
0.814835
0.814738
0.812908
0.809759
0.805631
0.800806
0.795509
0.78992
0.784181
0.778403
0.772669
0.767038
0.761569
0.756226
0.751333
0.745418
0.745554
0.71763
0.265532
0.269396
0.270522
0.27134
0.272557
0.274212
0.27622
0.278468
0.280844
0.283264
0.28567
0.288033
0.290343
0.292605
0.294832
0.297044
0.29926
0.301499
0.303775
0.306102
0.308489
0.310941
0.313461
0.31605
0.318709
0.321435
0.32423
0.327099
0.330054
0.333151
0.336406
0.340287
0.344364
0.262038
0.264254
0.263597
0.261558
0.259001
0.256319
0.253628
0.250939
0.248241
0.245525
0.242795
0.240062
0.237346
0.234669
0.232052
0.229518
0.227085
0.224768
0.222579
0.220528
0.218621
0.216862
0.215252
0.213791
0.212476
0.211306
0.210275
0.209382
0.20862
0.207993
0.207486
0.207128
0.206851
0.259885
0.260272
0.259796
0.258535
0.256829
0.254891
0.252833
0.25071
0.248548
0.246359
0.244154
0.241937
0.239716
0.237498
0.235291
0.233102
0.230939
0.228808
0.226717
0.22467
0.222674
0.220732
0.218847
0.217023
0.215261
0.213563
0.211928
0.210358
0.208851
0.207407
0.206023
0.204702
0.203433
0.259299
0.258404
0.2576
0.256567
0.255295
0.25385
0.252292
0.250662
0.248985
0.247278
0.245553
0.243817
0.242077
0.240338
0.238605
0.236882
0.235172
0.23348
0.231808
0.230159
0.228536
0.226942
0.225378
0.223845
0.222347
0.220883
0.219455
0.218062
0.216707
0.215387
0.214105
0.212861
0.211654
0.259224
0.257848
0.256623
0.255437
0.254227
0.25297
0.251663
0.250313
0.24893
0.247523
0.246102
0.244672
0.243239
0.241808
0.240381
0.238963
0.237555
0.236159
0.234779
0.233416
0.232072
0.230747
0.229443
0.228162
0.226904
0.225669
0.224459
0.223275
0.222116
0.220982
0.219876
0.218796
0.217745
0.259217
0.257715
0.256309
0.25498
0.253698
0.252442
0.251196
0.249951
0.248705
0.247456
0.246206
0.244957
0.243712
0.242472
0.24124
0.240017
0.238806
0.237606
0.236421
0.235251
0.234096
0.232958
0.231838
0.230736
0.229653
0.228589
0.227544
0.22652
0.225516
0.224533
0.223571
0.22263
0.221712
0.259218
0.25769
0.256225
0.254822
0.253477
0.252181
0.250924
0.249696
0.248492
0.247307
0.246138
0.244983
0.243841
0.242713
0.241598
0.240497
0.23941
0.238337
0.23728
0.236238
0.235211
0.234201
0.233208
0.232231
0.231271
0.230329
0.229404
0.228496
0.227607
0.226735
0.225882
0.225047
0.224231
0.259218
0.257686
0.256207
0.25478
0.253405
0.25208
0.2508
0.24956
0.248357
0.247186
0.246043
0.244926
0.243832
0.24276
0.241708
0.240675
0.239661
0.238665
0.237687
0.236726
0.235783
0.234857
0.233948
0.233056
0.232181
0.231323
0.230482
0.229657
0.228849
0.228059
0.227284
0.226527
0.225787
0.259218
0.257686
0.256203
0.254769
0.253384
0.252045
0.250751
0.2495
0.248289
0.247115
0.245976
0.244868
0.24379
0.24274
0.241716
0.240716
0.239739
0.238784
0.23785
0.236937
0.236044
0.235169
0.234313
0.233476
0.232656
0.231854
0.231068
0.2303
0.229549
0.228813
0.228095
0.227392
0.226706
0.259218
0.257686
0.256202
0.254767
0.253378
0.252035
0.250735
0.249477
0.24826
0.247081
0.245938
0.24483
0.243755
0.242711
0.241696
0.240708
0.239747
0.238811
0.237899
0.23701
0.236143
0.235297
0.234471
0.233665
0.232878
0.23211
0.231359
0.230626
0.229911
0.229212
0.22853
0.227864
0.227214
0.259218
0.257685
0.256201
0.254766
0.253376
0.252031
0.250729
0.249469
0.248249
0.247066
0.245921
0.244811
0.243734
0.24269
0.241676
0.240692
0.239736
0.238807
0.237903
0.237024
0.236169
0.235336
0.234526
0.233736
0.232966
0.232216
0.231485
0.230773
0.230078
0.229401
0.228741
0.228097
0.22747
0.259218
0.257685
0.256201
0.254765
0.253375
0.25203
0.250727
0.249466
0.248244
0.24706
0.245913
0.244801
0.243723
0.242678
0.241664
0.24068
0.239724
0.238796
0.237895
0.23702
0.236169
0.235341
0.234537
0.233754
0.232992
0.232251
0.23153
0.230828
0.230144
0.229478
0.22883
0.228198
0.227583
0.259218
0.257685
0.256201
0.254764
0.253374
0.252028
0.250726
0.249464
0.248241
0.247057
0.245909
0.244796
0.243717
0.242671
0.241656
0.240671
0.239715
0.238787
0.237887
0.237012
0.236162
0.235336
0.234533
0.233753
0.232994
0.232256
0.231539
0.230841
0.230162
0.229502
0.228859
0.228233
0.227624
0.259218
0.257685
0.2562
0.254764
0.253374
0.252028
0.250724
0.249462
0.248239
0.247054
0.245906
0.244793
0.243713
0.242666
0.241651
0.240665
0.239709
0.238781
0.237879
0.237004
0.236154
0.235328
0.234526
0.233746
0.232988
0.232251
0.231535
0.230839
0.230161
0.229503
0.228862
0.228239
0.227632
0.259218
0.257685
0.2562
0.254764
0.253373
0.252027
0.250723
0.249461
0.248238
0.247053
0.245904
0.24479
0.24371
0.242663
0.241647
0.240661
0.239704
0.238775
0.237874
0.236998
0.236147
0.235321
0.234519
0.233739
0.232981
0.232244
0.231528
0.230832
0.230154
0.229496
0.228856
0.228233
0.227627
0.259218
0.257685
0.2562
0.254763
0.253373
0.252026
0.250722
0.24946
0.248236
0.247051
0.245902
0.244788
0.243708
0.24266
0.241643
0.240657
0.2397
0.238771
0.237869
0.236993
0.236142
0.235315
0.234512
0.233732
0.232974
0.232236
0.23152
0.230823
0.230146
0.229487
0.228847
0.228224
0.227617
0.259218
0.257684
0.2562
0.254763
0.253372
0.252026
0.250722
0.249459
0.248235
0.247049
0.2459
0.244786
0.243705
0.242657
0.24164
0.240654
0.239696
0.238767
0.237864
0.236988
0.236137
0.23531
0.234506
0.233726
0.232967
0.232229
0.231512
0.230815
0.230138
0.229479
0.228837
0.228214
0.227607
0.259218
0.257684
0.2562
0.254763
0.253372
0.252025
0.250721
0.249458
0.248234
0.247048
0.245898
0.244784
0.243703
0.242655
0.241638
0.240651
0.239693
0.238763
0.23786
0.236983
0.236132
0.235305
0.234501
0.23372
0.232961
0.232223
0.231505
0.230808
0.23013
0.22947
0.228828
0.228204
0.227597
0.259218
0.257684
0.2562
0.254762
0.253371
0.252025
0.25072
0.249457
0.248233
0.247047
0.245897
0.244782
0.243701
0.242653
0.241635
0.240648
0.23969
0.23876
0.237856
0.236979
0.236127
0.2353
0.234496
0.233714
0.232955
0.232216
0.231499
0.230801
0.230122
0.229462
0.22882
0.228195
0.227587
0.259218
0.257684
0.256199
0.254762
0.253371
0.252024
0.25072
0.249456
0.248232
0.247046
0.245896
0.244781
0.243699
0.242651
0.241633
0.240645
0.239687
0.238756
0.237853
0.236976
0.236123
0.235295
0.234491
0.233709
0.232949
0.23221
0.231492
0.230794
0.230115
0.229454
0.228812
0.228186
0.227578
0.259218
0.257684
0.256199
0.254762
0.253371
0.252024
0.250719
0.249456
0.248231
0.247045
0.245895
0.244779
0.243698
0.242649
0.241631
0.240643
0.239684
0.238754
0.23785
0.236972
0.236119
0.235291
0.234486
0.233704
0.232944
0.232205
0.231486
0.230787
0.230108
0.229447
0.228804
0.228178
0.227569
0.259218
0.257684
0.256199
0.254762
0.253371
0.252024
0.250719
0.249455
0.248231
0.247044
0.245894
0.244778
0.243696
0.242647
0.241629
0.240641
0.239682
0.238751
0.237847
0.236969
0.236116
0.235287
0.234482
0.233699
0.232939
0.232199
0.23148
0.230781
0.230101
0.22944
0.228796
0.22817
0.227561
0.259218
0.257684
0.256199
0.254762
0.253371
0.252023
0.250719
0.249455
0.24823
0.247043
0.245893
0.244777
0.243695
0.242646
0.241627
0.240639
0.23968
0.238748
0.237844
0.236966
0.236113
0.235284
0.234478
0.233695
0.232934
0.232194
0.231475
0.230775
0.230095
0.229433
0.228789
0.228163
0.227553
0.259218
0.257684
0.256199
0.254762
0.25337
0.252023
0.250718
0.249454
0.24823
0.247043
0.245892
0.244776
0.243694
0.242644
0.241626
0.240637
0.239678
0.238746
0.237842
0.236963
0.23611
0.23528
0.234474
0.233691
0.23293
0.23219
0.23147
0.23077
0.230089
0.229427
0.228783
0.228156
0.227546
0.259218
0.257684
0.256199
0.254762
0.25337
0.252023
0.250718
0.249454
0.248229
0.247042
0.245891
0.244775
0.243693
0.242643
0.241624
0.240636
0.239676
0.238744
0.237839
0.236961
0.236107
0.235277
0.234471
0.233688
0.232926
0.232186
0.231465
0.230765
0.230084
0.229421
0.228777
0.228149
0.227539
0.259218
0.257684
0.256199
0.254762
0.25337
0.252023
0.250718
0.249454
0.248229
0.247042
0.245891
0.244775
0.243692
0.242642
0.241623
0.240634
0.239674
0.238742
0.237837
0.236958
0.236104
0.235275
0.234468
0.233684
0.232922
0.232182
0.231461
0.230761
0.230079
0.229416
0.228771
0.228143
0.227532
0.259218
0.257684
0.256199
0.254762
0.25337
0.252023
0.250718
0.249454
0.248229
0.247041
0.24589
0.244774
0.243692
0.242641
0.241622
0.240633
0.239673
0.238741
0.237836
0.236957
0.236102
0.235272
0.234466
0.233682
0.232919
0.232178
0.231458
0.230757
0.230075
0.229411
0.228766
0.228138
0.227526
0.259218
0.257684
0.256199
0.254762
0.25337
0.252023
0.250718
0.249453
0.248228
0.247041
0.24589
0.244773
0.243691
0.242641
0.241621
0.240632
0.239672
0.23874
0.237834
0.236955
0.2361
0.23527
0.234463
0.233679
0.232917
0.232175
0.231454
0.230753
0.230071
0.229407
0.228761
0.228133
0.227521
0.259218
0.257684
0.256199
0.254762
0.25337
0.252023
0.250718
0.249454
0.248229
0.247041
0.24589
0.244774
0.243691
0.242641
0.241622
0.240632
0.239672
0.23874
0.237834
0.236954
0.2361
0.235269
0.234462
0.233678
0.232915
0.232173
0.231452
0.230751
0.230068
0.229404
0.228758
0.228129
0.227517
0.259218
0.257684
0.256199
0.254762
0.25337
0.252023
0.250718
0.249453
0.248228
0.247041
0.24589
0.244773
0.243691
0.24264
0.241621
0.240632
0.239671
0.238739
0.237833
0.236954
0.236099
0.235268
0.234461
0.233677
0.232914
0.232172
0.231451
0.230749
0.230066
0.229402
0.228756
0.228127
0.227514
0.259218
0.257684
0.256199
0.254762
0.253371
0.252024
0.25072
0.249456
0.248231
0.247044
0.245893
0.244777
0.243694
0.242644
0.241625
0.240635
0.239675
0.238742
0.237837
0.236957
0.236102
0.235271
0.234464
0.233679
0.232916
0.232174
0.231452
0.23075
0.230067
0.229402
0.228756
0.228126
0.227513
0.259218
0.257685
0.2562
0.254764
0.253373
0.252026
0.250721
0.249457
0.248232
0.247045
0.245895
0.244779
0.243696
0.242646
0.241627
0.240638
0.239678
0.238745
0.23784
0.23696
0.236105
0.235274
0.234467
0.233681
0.232918
0.232175
0.231453
0.230751
0.230067
0.229401
0.228754
0.228123
0.227509
0.259218
0.257685
0.256201
0.254766
0.253378
0.252033
0.250731
0.249469
0.248246
0.24706
0.24591
0.244795
0.243712
0.242662
0.241643
0.240653
0.239692
0.238759
0.237852
0.236971
0.236115
0.235282
0.234473
0.233686
0.23292
0.232175
0.231451
0.230745
0.230058
0.22939
0.228739
0.228105
0.227487
0.259219
0.257689
0.25621
0.254777
0.25339
0.252046
0.250744
0.249482
0.248259
0.247074
0.245924
0.244808
0.243726
0.242675
0.241655
0.240663
0.2397
0.238764
0.237853
0.236968
0.236107
0.235269
0.234453
0.233659
0.232886
0.232133
0.2314
0.230686
0.22999
0.229312
0.228651
0.228007
0.227378
0.25922
0.257694
0.256221
0.254799
0.253423
0.252089
0.250795
0.249539
0.248318
0.247131
0.245978
0.244857
0.243766
0.242705
0.241673
0.240668
0.23969
0.238737
0.237809
0.236905
0.236023
0.235164
0.234327
0.233511
0.232715
0.231938
0.231181
0.230442
0.229721
0.229017
0.228331
0.22766
0.227006
0.259229
0.257738
0.256292
0.254882
0.253509
0.252172
0.250871
0.249604
0.248368
0.247162
0.245985
0.244836
0.243715
0.24262
0.241551
0.240507
0.239487
0.238492
0.23752
0.236571
0.235644
0.234739
0.233855
0.232991
0.232147
0.231323
0.230518
0.229732
0.228963
0.228213
0.227479
0.226762
0.226061
0.259265
0.257822
0.256453
0.255125
0.253804
0.252482
0.251163
0.249853
0.24856
0.247289
0.246043
0.244826
0.243637
0.242477
0.241347
0.240245
0.23917
0.238122
0.237101
0.236104
0.235132
0.234183
0.233257
0.232353
0.23147
0.230608
0.229765
0.228943
0.228139
0.227354
0.226587
0.225838
0.225106
0.259599
0.258632
0.257578
0.256542
0.255587
0.254714
0.253906
0.253152
0.252446
0.251785
0.251168
0.250594
0.250063
0.249574
0.249126
0.248717
0.248346
0.248011
0.247711
0.247444
0.247207
0.247
0.24682
0.246666
0.246536
0.24643
0.246345
0.24628
0.246234
0.246207
0.246196
0.246201
0.246221
0.266719
0.280569
0.294241
0.307622
0.320668
0.333362
0.345692
0.357649
0.369223
0.380411
0.391209
0.401616
0.411634
0.421265
0.430514
0.439387
0.44789
0.456033
0.463823
0.471271
0.478386
0.485178
0.491658
0.497836
0.503725
0.509333
0.514673
0.519754
0.524588
0.529184
0.533553
0.537703
0.54165
0.84435
1.01334
1.18781
1.36966
1.55474
1.73158
1.88763
2.01359
2.10615
2.1677
2.20434
2.22347
2.23183
2.2344
2.23422
2.23275
2.23056
2.22785
2.22479
2.22168
2.21891
2.21683
2.2157
2.21557
2.21634
2.2177
2.21923
2.2204
2.22062
2.21927
2.21573
2.20939
2.19965
2.18597
2.16787
2.14492
2.1168
2.08329
2.04428
1.9998
1.95002
1.89526
1.83599
1.77284
1.70657
1.63806
1.56829
1.4983
1.42913
1.36182
1.2973
1.23641
1.17979
1.12792
1.08108
1.03928
1.00238
0.969969
0.941483
0.916172
0.893143
0.871394
0.849858
0.827447
0.803116
0.775921
0.745095
0.710114
0.670771
0.627238
0.580121
0.530485
0.479829
0.429997
0.382983
0.340646
0.304381
0.274874
0.252051
0.235239
0.223439
0.215587
0.210713
0.208013
0.206857
0.206772
0.207418
0.208557
0.210031
0.21174
0.213631
0.215677
0.217869
0.220206
0.222687
0.225299
0.22802
0.230842
0.233486
0.237514
0.352683
0.365784
0.38589
0.416241
0.46016
0.520623
0.599455
0.696544
0.80945
0.933443
1.06207
1.18818
1.30513
1.40788
1.49364
1.56195
1.61424
1.65305
1.68136
1.70192
1.71699
1.7282
1.7366
1.7428
1.74712
1.74966
1.75041
1.74926
1.74604
1.7405
1.73234
1.72123
1.70682
1.68878
1.66679
1.6406
1.61003
1.57501
1.53556
1.49183
1.44412
1.39285
1.33857
1.28197
1.22382
1.16499
1.10638
1.0489
0.993421
0.940727
0.891499
0.846265
0.805389
0.769061
0.737302
0.709969
0.686771
0.667285
0.650969
0.637174
0.625164
0.614125
0.603199
0.591511
0.578217
0.562561
0.543936
0.521955
0.496509
0.467828
0.436505
0.403492
0.370037
0.337551
0.307423
0.280793
0.258381
0.240414
0.226686
0.216701
0.209831
0.205435
0.20293
0.201823
0.201719
0.20231
0.203373
0.204747
0.206327
0.20805
0.209884
0.211818
0.213856
0.216006
0.21828
0.220674
0.223179
0.225796
0.228261
0.232092
0.206436
0.206153
0.206509
0.207918
0.210783
0.215556
0.223068
0.234385
0.250762
0.273549
0.30404
0.343231
0.391541
0.448586
0.513075
0.582888
0.655326
0.727469
0.796573
0.860399
0.917415
0.966836
1.00854
1.04287
1.07048
1.0921
1.10843
1.12005
1.12742
1.13081
1.1304
1.12625
1.11836
1.10673
1.09132
1.07214
1.04926
1.0228
0.992982
0.960099
0.924557
0.88685
0.847555
0.807317
0.766822
0.726768
0.687837
0.650653
0.615759
0.583592
0.554465
0.528562
0.505949
0.486579
0.470316
0.456948
0.446203
0.43776
0.43125
0.426256
0.422316
0.418914
0.415498
0.411485
0.4063
0.399414
0.390395
0.378969
0.36507
0.348879
0.330842
0.311641
0.292128
0.273218
0.255754
0.240388
0.227508
0.217229
0.209438
0.203873
0.200194
0.198044
0.197083
0.197013
0.197584
0.198598
0.199905
0.201399
0.203009
0.204694
0.206437
0.208237
0.210106
0.212059
0.214113
0.216276
0.218546
0.220936
0.223198
0.226784
0.202026
0.20053
0.199137
0.197847
0.1967
0.195739
0.195037
0.194709
0.194916
0.195864
0.197807
0.201053
0.205952
0.21289
0.222264
0.234438
0.249696
0.268173
0.289803
0.314281
0.341064
0.369413
0.398457
0.427284
0.455025
0.480915
0.504342
0.524853
0.542151
0.55607
0.566547
0.57359
0.577264
0.577669
0.574938
0.569235
0.560762
0.54976
0.536514
0.521357
0.504663
0.486842
0.468327
0.449555
0.430951
0.412906
0.395761
0.379794
0.365208
0.352134
0.340634
0.330712
0.322324
0.315395
0.309825
0.305502
0.3023
0.300084
0.298705
0.297989
0.297735
0.297705
0.297625
0.297187
0.296064
0.293938
0.290534
0.285658
0.279242
0.271367
0.26228
0.25237
0.24213
0.232086
0.222728
0.214444
0.207487
0.201962
0.197852
0.195046
0.193375
0.192645
0.192659
0.193235
0.194215
0.19547
0.196899
0.19843
0.200014
0.201625
0.203255
0.204909
0.206602
0.208354
0.210185
0.212111
0.214137
0.216284
0.218327
0.221627
0.2103
0.208801
0.207327
0.20587
0.204429
0.203018
0.201649
0.20034
0.199114
0.198003
0.197048
0.196298
0.195812
0.195656
0.195905
0.196635
0.197927
0.19986
0.202504
0.205917
0.210132
0.215152
0.220946
0.227434
0.234495
0.241965
0.249646
0.257316
0.264745
0.271708
0.277999
0.28344
0.287892
0.291255
0.293476
0.294542
0.294483
0.293366
0.291292
0.288389
0.284807
0.280708
0.276257
0.271615
0.266934
0.262345
0.257957
0.253855
0.250103
0.24674
0.243787
0.241254
0.239135
0.23742
0.236093
0.235136
0.234526
0.234234
0.234226
0.234454
0.234855
0.235342
0.235806
0.23611
0.236097
0.235603
0.234471
0.232577
0.229857
0.226322
0.222076
0.217306
0.212265
0.207236
0.202499
0.198288
0.194775
0.192052
0.19014
0.189
0.188549
0.18868
0.189278
0.190228
0.19143
0.192797
0.194259
0.195767
0.197286
0.198799
0.200303
0.201805
0.203322
0.204874
0.206485
0.208175
0.209954
0.211851
0.213662
0.216645
0.216554
0.215205
0.213856
0.212511
0.21117
0.209834
0.208503
0.207182
0.205876
0.204595
0.20335
0.202154
0.201022
0.199974
0.199027
0.198205
0.197528
0.197018
0.196695
0.196575
0.196674
0.197001
0.197558
0.198343
0.199345
0.200544
0.201912
0.203413
0.205003
0.206633
0.208252
0.209809
0.211253
0.212541
0.213637
0.214513
0.215153
0.215551
0.215711
0.21565
0.215387
0.214953
0.214379
0.213699
0.212948
0.212157
0.211354
0.210563
0.209806
0.209096
0.208445
0.207863
0.207353
0.20692
0.206567
0.206295
0.206105
0.205998
0.205969
0.206011
0.206109
0.206237
0.206359
0.206422
0.206362
0.206104
0.205573
0.204702
0.203447
0.201801
0.1998
0.197526
0.195103
0.192677
0.190401
0.188413
0.186818
0.185685
0.185037
0.184862
0.185116
0.185737
0.186654
0.187794
0.189088
0.190476
0.19191
0.193353
0.194781
0.196181
0.197551
0.198899
0.200243
0.201601
0.203
0.204459
0.205996
0.20764
0.209216
0.211859
0.220669
0.219485
0.218294
0.217097
0.215892
0.214679
0.213461
0.21224
0.21102
0.209805
0.2086
0.207408
0.206238
0.205094
0.203985
0.202919
0.201905
0.200952
0.200068
0.199263
0.198542
0.197913
0.19738
0.196945
0.196608
0.196368
0.19622
0.196156
0.196167
0.196242
0.196367
0.196529
0.196713
0.196905
0.197092
0.197262
0.197405
0.197515
0.197586
0.197616
0.197604
0.197553
0.197465
0.197345
0.197197
0.197026
0.196835
0.196628
0.196408
0.196176
0.195934
0.195682
0.19542
0.195149
0.194871
0.194587
0.1943
0.194013
0.193729
0.193451
0.193179
0.192911
0.192637
0.192345
0.192012
0.191613
0.191118
0.190498
0.189734
0.188822
0.187775
0.186632
0.185453
0.184312
0.183291
0.182465
0.181896
0.181625
0.181666
0.182014
0.182642
0.183511
0.184573
0.185778
0.187078
0.188429
0.189794
0.191145
0.192464
0.19374
0.194973
0.19617
0.197346
0.198521
0.199717
0.200956
0.202258
0.203654
0.204996
0.207285
0.223302
0.222245
0.221177
0.220098
0.21901
0.217915
0.216813
0.215705
0.214592
0.213478
0.212363
0.211253
0.210148
0.209053
0.207972
0.206908
0.205865
0.204849
0.203864
0.202915
0.202006
0.201141
0.200324
0.199558
0.198846
0.198189
0.197588
0.197041
0.196549
0.196107
0.195714
0.195364
0.195054
0.194779
0.194533
0.194312
0.194111
0.193926
0.193753
0.193588
0.193429
0.193273
0.193117
0.192959
0.192796
0.192627
0.192448
0.192255
0.192046
0.191817
0.191564
0.191283
0.190973
0.19063
0.190253
0.189843
0.189401
0.188929
0.188432
0.187913
0.187379
0.186834
0.186282
0.185723
0.185158
0.184582
0.183991
0.183378
0.182741
0.182081
0.181411
0.180751
0.180134
0.179596
0.179182
0.178931
0.178876
0.179037
0.179421
0.18002
0.180816
0.18178
0.182876
0.184068
0.185318
0.186592
0.187863
0.189106
0.190306
0.191454
0.192551
0.193601
0.194617
0.195617
0.196622
0.197654
0.198733
0.19989
0.201006
0.202935
0.224943
0.223983
0.223013
0.222032
0.221043
0.220044
0.219036
0.218021
0.217
0.215974
0.214946
0.213918
0.212891
0.211867
0.210849
0.209839
0.208839
0.207851
0.206879
0.205925
0.204992
0.204083
0.2032
0.202347
0.201525
0.200737
0.199984
0.199269
0.19859
0.19795
0.197348
0.196783
0.196254
0.195761
0.1953
0.194872
0.194473
0.1941
0.193753
0.193426
0.193119
0.192828
0.192548
0.192278
0.192012
0.191747
0.191477
0.191197
0.190902
0.190588
0.190248
0.189877
0.189472
0.189029
0.188546
0.188021
0.187455
0.186849
0.186208
0.185536
0.184839
0.184125
0.183401
0.182675
0.181955
0.181247
0.180558
0.179893
0.179261
0.178668
0.178127
0.177653
0.177266
0.176988
0.176841
0.176845
0.177017
0.177365
0.177889
0.178579
0.179419
0.180384
0.181446
0.182577
0.183744
0.184921
0.186082
0.187208
0.188285
0.189306
0.190267
0.191176
0.192041
0.192877
0.193705
0.194544
0.195414
0.196345
0.197244
0.198819
0.225924
0.225034
0.224135
0.223227
0.22231
0.221384
0.220451
0.21951
0.218564
0.217612
0.216657
0.215699
0.214741
0.213783
0.212827
0.211875
0.210928
0.209988
0.209056
0.208134
0.207224
0.206328
0.205448
0.204585
0.203743
0.202922
0.202125
0.201352
0.200606
0.199888
0.199199
0.198539
0.197909
0.197309
0.196739
0.196197
0.195684
0.195198
0.194738
0.194301
0.193885
0.193487
0.193105
0.192734
0.192371
0.19201
0.191647
0.191277
0.190893
0.190491
0.190064
0.189608
0.189118
0.188591
0.188023
0.187412
0.18676
0.186066
0.185335
0.18457
0.183778
0.182967
0.182145
0.181322
0.18051
0.179718
0.178959
0.178244
0.177584
0.176991
0.176479
0.17606
0.175749
0.175561
0.175508
0.175601
0.175847
0.176247
0.176797
0.177486
0.178298
0.179211
0.180202
0.181243
0.18231
0.183377
0.184423
0.185429
0.186383
0.187278
0.18811
0.188883
0.189605
0.19029
0.190954
0.191614
0.192291
0.193011
0.193708
0.194938
0.226473
0.225632
0.224783
0.223927
0.223063
0.222191
0.221313
0.220428
0.219538
0.218642
0.217743
0.216841
0.215937
0.215033
0.214129
0.213227
0.212328
0.211432
0.210541
0.209657
0.208779
0.207911
0.207053
0.206206
0.205373
0.204554
0.203752
0.202967
0.202202
0.201456
0.200733
0.200033
0.199356
0.198703
0.198075
0.197471
0.196893
0.196338
0.195806
0.195295
0.194804
0.194331
0.193872
0.193424
0.192984
0.192547
0.192108
0.191662
0.191205
0.190731
0.190234
0.18971
0.189154
0.188563
0.187933
0.187264
0.186554
0.185805
0.185019
0.1842
0.183355
0.182491
0.181617
0.180743
0.17988
0.179041
0.178239
0.177487
0.176799
0.176187
0.175666
0.175248
0.174946
0.174769
0.174727
0.174826
0.175068
0.175451
0.175968
0.176607
0.177352
0.178185
0.179083
0.180023
0.180981
0.181934
0.182863
0.183751
0.184585
0.185358
0.186066
0.186711
0.1873
0.187844
0.188356
0.188853
0.189354
0.189879
0.19039
0.191292
0.226756
0.225946
0.225129
0.224307
0.223479
0.222644
0.221804
0.220958
0.220108
0.219253
0.218395
0.217534
0.216671
0.215807
0.214943
0.21408
0.213218
0.212358
0.211502
0.21065
0.209803
0.208962
0.208128
0.207302
0.206485
0.205679
0.204885
0.204104
0.203337
0.202586
0.201852
0.201135
0.200437
0.199758
0.1991
0.198462
0.197845
0.197248
0.19667
0.196111
0.195569
0.195042
0.194528
0.194024
0.193527
0.193032
0.192536
0.192033
0.19152
0.190991
0.190441
0.189866
0.189262
0.188625
0.187953
0.187244
0.186497
0.185714
0.184897
0.184049
0.183177
0.182286
0.181387
0.180488
0.179601
0.178738
0.177913
0.177138
0.176429
0.175797
0.175257
0.174821
0.174499
0.174302
0.174234
0.174301
0.174502
0.174834
0.175288
0.175854
0.176516
0.177255
0.178052
0.178885
0.179732
0.180572
0.181387
0.182159
0.182878
0.183534
0.184125
0.18465
0.185116
0.185529
0.185904
0.186251
0.186592
0.186939
0.18728
0.187877
0.226885
0.226092
0.225296
0.224494
0.223688
0.222876
0.22206
0.22124
0.220416
0.219588
0.218757
0.217925
0.21709
0.216254
0.215419
0.214583
0.213749
0.212916
0.212085
0.211258
0.210434
0.209615
0.208801
0.207993
0.207193
0.2064
0.205617
0.204843
0.204081
0.203331
0.202595
0.201872
0.201165
0.200474
0.199799
0.199141
0.1985
0.197877
0.197269
0.196678
0.196101
0.195537
0.194984
0.19444
0.193901
0.193364
0.192825
0.19228
0.191725
0.191156
0.190567
0.189956
0.189318
0.18865
0.187949
0.187214
0.186446
0.185643
0.184809
0.183948
0.183063
0.182163
0.181254
0.180347
0.179451
0.178579
0.177743
0.176957
0.176233
0.175585
0.175026
0.174567
0.174218
0.173987
0.17388
0.1739
0.174045
0.174312
0.174692
0.175175
0.175746
0.176388
0.177082
0.177808
0.178546
0.179276
0.179979
0.180642
0.181251
0.181798
0.182278
0.182692
0.183043
0.183336
0.183585
0.183798
0.183994
0.184181
0.184369
0.184685
0.226933
0.22615
0.225363
0.224573
0.223778
0.22298
0.222178
0.221373
0.220565
0.219753
0.21894
0.218124
0.217308
0.21649
0.215672
0.214855
0.214038
0.213223
0.21241
0.211599
0.210792
0.209988
0.209188
0.208393
0.207605
0.206822
0.206048
0.205281
0.204524
0.203777
0.203041
0.202316
0.201604
0.200906
0.200221
0.199551
0.198895
0.198254
0.197626
0.197013
0.196411
0.195821
0.19524
0.194667
0.194097
0.193529
0.19296
0.192384
0.191799
0.191201
0.190585
0.189948
0.189286
0.188597
0.187879
0.187129
0.186348
0.185536
0.184695
0.183829
0.182943
0.182042
0.181133
0.180226
0.179331
0.178459
0.177621
0.176829
0.176097
0.175438
0.174861
0.17438
0.174002
0.173736
0.173586
0.173554
0.173639
0.173837
0.174141
0.174539
0.175018
0.175563
0.176156
0.176777
0.177409
0.178033
0.178631
0.179189
0.179694
0.180139
0.180516
0.180827
0.181072
0.181257
0.181391
0.181483
0.181549
0.181592
0.181644
0.181706
0.226944
0.226165
0.225383
0.224597
0.223809
0.223017
0.222222
0.221425
0.220624
0.219822
0.219018
0.218212
0.217405
0.216598
0.21579
0.214983
0.214177
0.213372
0.212569
0.211768
0.21097
0.210175
0.209383
0.208597
0.207815
0.207039
0.20627
0.205507
0.204753
0.204007
0.203271
0.202544
0.201829
0.201125
0.200434
0.199754
0.199087
0.198433
0.197791
0.197161
0.196542
0.195932
0.195331
0.194735
0.194144
0.193553
0.192961
0.192363
0.191756
0.191137
0.190502
0.189847
0.18917
0.188468
0.187738
0.18698
0.186194
0.185379
0.184538
0.183674
0.18279
0.181894
0.180992
0.180091
0.179202
0.178334
0.177498
0.176706
0.175971
0.175302
0.174712
0.17421
0.173806
0.173505
0.173312
0.173229
0.173254
0.173384
0.173612
0.173926
0.174316
0.174767
0.175261
0.175783
0.176313
0.176836
0.177334
0.177793
0.178201
0.178549
0.178831
0.179047
0.179195
0.179281
0.179313
0.179296
0.179246
0.179162
0.179094
0.178928
0.22694
0.226162
0.225381
0.224597
0.223811
0.223022
0.22223
0.221435
0.220639
0.21984
0.21904
0.218239
0.217437
0.216634
0.215831
0.215029
0.214228
0.213427
0.212628
0.211832
0.211038
0.210247
0.209459
0.208676
0.207897
0.207123
0.206355
0.205594
0.204839
0.204093
0.203354
0.202625
0.201906
0.201197
0.200499
0.199811
0.199135
0.198471
0.197817
0.197174
0.19654
0.195915
0.195298
0.194686
0.194077
0.193469
0.192859
0.192244
0.191622
0.190988
0.190339
0.189672
0.188985
0.188274
0.187539
0.186778
0.18599
0.185176
0.184339
0.18348
0.182604
0.181716
0.180823
0.179931
0.17905
0.17819
0.177359
0.17657
0.175833
0.175158
0.174557
0.174037
0.173607
0.173273
0.17304
0.172907
0.172875
0.172939
0.173093
0.173328
0.173631
0.173991
0.174391
0.174816
0.17525
0.175676
0.176079
0.176444
0.176761
0.17702
0.177215
0.177343
0.177405
0.177402
0.177341
0.177228
0.177076
0.17688
0.176706
0.176339
0.22693
0.226152
0.225371
0.224588
0.223802
0.223013
0.222222
0.221428
0.220633
0.219835
0.219036
0.218236
0.217436
0.216634
0.215833
0.215031
0.214231
0.213432
0.212634
0.211838
0.211044
0.210253
0.209466
0.208682
0.207902
0.207128
0.206358
0.205595
0.204838
0.204089
0.203347
0.202613
0.201889
0.201174
0.200468
0.199773
0.199089
0.198414
0.19775
0.197095
0.19645
0.195812
0.195181
0.194555
0.193933
0.193311
0.192687
0.19206
0.191424
0.190779
0.19012
0.189445
0.188751
0.188036
0.187298
0.186536
0.18575
0.18494
0.184108
0.183257
0.18239
0.181512
0.180629
0.179748
0.178877
0.178026
0.177202
0.176417
0.175679
0.175
0.174388
0.173852
0.173399
0.173035
0.172762
0.172583
0.172495
0.172496
0.172579
0.172736
0.172957
0.173229
0.173538
0.173871
0.174212
0.174546
0.174859
0.175137
0.175369
0.175545
0.17566
0.175709
0.175692
0.17561
0.175468
0.17527
0.175029
0.174734
0.17447
0.173926
0.226919
0.226141
0.225359
0.224575
0.223788
0.222999
0.222208
0.221414
0.220618
0.21982
0.219021
0.218221
0.217419
0.216617
0.215815
0.215013
0.214212
0.213411
0.212612
0.211814
0.211019
0.210226
0.209436
0.208649
0.207867
0.207089
0.206316
0.205549
0.204788
0.204034
0.203286
0.202547
0.201816
0.201094
0.200382
0.199678
0.198985
0.198301
0.197626
0.196961
0.196305
0.195655
0.195013
0.194375
0.19374
0.193106
0.192472
0.191833
0.191188
0.190533
0.189867
0.189185
0.188487
0.187769
0.18703
0.186269
0.185486
0.184681
0.183856
0.183013
0.182156
0.181289
0.180417
0.179548
0.178687
0.177845
0.177028
0.176247
0.17551
0.174827
0.174206
0.173655
0.17318
0.172786
0.172476
0.172251
0.172111
0.172051
0.172066
0.172148
0.172288
0.172476
0.172698
0.172942
0.173194
0.17344
0.173667
0.173862
0.174015
0.174115
0.174157
0.174135
0.174049
0.173898
0.173685
0.173414
0.173096
0.172717
0.172374
0.171679
0.226909
0.226129
0.225347
0.224562
0.223775
0.222985
0.222192
0.221397
0.220601
0.219802
0.219002
0.2182
0.217397
0.216594
0.21579
0.214986
0.214183
0.21338
0.212578
0.211777
0.210979
0.210183
0.209389
0.208599
0.207812
0.20703
0.206252
0.205479
0.204713
0.203953
0.203199
0.202453
0.201715
0.200986
0.200265
0.199553
0.19885
0.198157
0.197473
0.196797
0.19613
0.19547
0.194816
0.194167
0.193522
0.192878
0.192233
0.191584
0.190931
0.190269
0.189596
0.188909
0.188207
0.187488
0.186749
0.18599
0.18521
0.184411
0.183593
0.182759
0.181911
0.181054
0.180194
0.179335
0.178485
0.177651
0.176842
0.176065
0.175329
0.174642
0.174011
0.173445
0.172949
0.172526
0.17218
0.171912
0.171719
0.1716
0.171548
0.171558
0.17162
0.171725
0.171863
0.172021
0.172187
0.172349
0.172495
0.172613
0.172692
0.172724
0.1727
0.172616
0.172469
0.172259
0.171986
0.171652
0.17127
0.170819
0.17041
0.169584
0.226898
0.226118
0.225335
0.224549
0.223761
0.22297
0.222176
0.221381
0.220583
0.219783
0.218981
0.218178
0.217374
0.216569
0.215763
0.214957
0.21415
0.213345
0.21254
0.211736
0.210934
0.210134
0.209336
0.208541
0.207749
0.206962
0.206179
0.2054
0.204628
0.203861
0.203101
0.202348
0.201602
0.200864
0.200135
0.199415
0.198703
0.198
0.197306
0.19662
0.195943
0.195272
0.194608
0.193949
0.193293
0.192639
0.191985
0.191328
0.190666
0.189997
0.189318
0.188628
0.187923
0.187202
0.186463
0.185707
0.184931
0.184137
0.183326
0.1825
0.181661
0.180815
0.179964
0.179116
0.178275
0.177449
0.176646
0.175872
0.175136
0.174445
0.173805