/*--------------------------------*- C++ -*----------------------------------*\
| =========                 |                                                 |
| \\      /  F ield         | OpenFOAM: The Open Source CFD Toolbox           |
|  \\    /   O peration     | Version:  2.1.1                                 |
|   \\  /    A nd           | Web:      www.OpenFOAM.org                      |
|    \\/     M anipulation  |                                                 |
\*---------------------------------------------------------------------------*/
FoamFile
{
    version     2.0;
    format      ascii;
    class       volScalarField;
    location    "0.13";
    object      nut;
}
// * * * * * * * * * * * * * * * * * * * * * * * * * * * * * * * * * * * * * //

dimensions      [0 2 -1 0 0 0 0];

internalField   nonuniform List<scalar> 
6820
(
4.96025e-05
5.47044e-05
5.94497e-05
6.37667e-05
6.76167e-05
7.09777e-05
7.38483e-05
7.62462e-05
7.82037e-05
7.97625e-05
8.09691e-05
8.18711e-05
8.25147e-05
8.29427e-05
8.3194e-05
8.33024e-05
8.32974e-05
8.32039e-05
8.30425e-05
8.28306e-05
8.25821e-05
8.23085e-05
8.20189e-05
8.17204e-05
8.14188e-05
8.11183e-05
8.08222e-05
8.05335e-05
8.02505e-05
7.99904e-05
7.96749e-05
7.96822e-05
7.81756e-05
0.000540295
0.000304975
0.000219964
0.000171564
0.000140526
0.000119664
0.00010514
9.47562e-05
8.71921e-05
8.16107e-05
7.74618e-05
7.43718e-05
7.20801e-05
7.04006e-05
6.91978e-05
6.83716e-05
6.78462e-05
6.75641e-05
6.74804e-05
6.75599e-05
6.77746e-05
6.81018e-05
6.85229e-05
6.90226e-05
6.95879e-05
7.02075e-05
7.0872e-05
7.15722e-05
7.23008e-05
7.30458e-05
7.38036e-05
7.45433e-05
7.51947e-05
0.00105857
0.000836085
0.000679234
0.000569609
0.000490048
0.000430111
0.000383697
0.000346851
0.000316952
0.000292238
0.000271493
0.000253856
0.0002387
0.000225557
0.00021407
0.000203965
0.000195024
0.000187072
0.000179971
0.000173604
0.000167877
0.00016271
0.000158038
0.000153803
0.000149957
0.000146458
0.000143272
0.000140367
0.000137717
0.000135302
0.000133085
0.000131109
0.000129086
0.00115953
0.00109653
0.00101166
0.00092641
0.000849801
0.000783607
0.000727049
0.000678716
0.000637192
0.000601254
0.000569899
0.000542325
0.000517892
0.00049609
0.000476512
0.00045883
0.000442777
0.000428136
0.000414726
0.000402398
0.000391024
0.000380498
0.000370728
0.000361637
0.000353157
0.000345229
0.000337805
0.00033084
0.000324302
0.000318157
0.000312395
0.000306988
0.000301968
0.00116966
0.00115863
0.00113363
0.00109757
0.00105569
0.0010122
0.000969671
0.000929414
0.000891973
0.000857472
0.000825822
0.000796832
0.000770274
0.000745916
0.000723538
0.000702936
0.000683927
0.000666348
0.000650054
0.000634917
0.000620825
0.000607677
0.000595387
0.000583874
0.00057307
0.000562913
0.000553348
0.000544326
0.000535802
0.00052774
0.000520108
0.00051288
0.000506038
0.00117006
0.00116839
0.00116306
0.00115261
0.00113713
0.00111768
0.00109554
0.00107192
0.00104772
0.00102361
0.00100002
0.000977209
0.000955348
0.00093451
0.000914724
0.000895983
0.00087826
0.000861512
0.000845694
0.000830753
0.000816638
0.000803298
0.000790682
0.000778744
0.000767438
0.000756722
0.000746556
0.000736903
0.00072773
0.000719005
0.0007107
0.000702796
0.000695269
0.00116996
0.00116938
0.00116821
0.00116569
0.00116123
0.00115458
0.00114584
0.00113528
0.00112329
0.00111025
0.0010965
0.00108236
0.00106805
0.00105376
0.00103964
0.00102577
0.00101224
0.00099909
0.000986362
0.000974072
0.000962227
0.000950831
0.000939878
0.00092936
0.000919267
0.000909584
0.000900297
0.000891392
0.000882852
0.000874663
0.000866811
0.000859287
0.000852078
0.00116994
0.0011694
0.00116883
0.00116803
0.00116674
0.00116472
0.0011618
0.00115791
0.00115305
0.00114729
0.00114075
0.00113356
0.00112584
0.00111772
0.00110932
0.00110074
0.00109205
0.00108334
0.00107465
0.00106603
0.00105753
0.00104917
0.00104098
0.00103297
0.00102515
0.00101754
0.00101013
0.00100294
0.000995963
0.0009892
0.000982651
0.000976316
0.000970195
0.00116994
0.00116939
0.00116886
0.00116832
0.0011677
0.00116692
0.00116588
0.00116449
0.00116269
0.00116044
0.00115772
0.00115456
0.00115098
0.00114703
0.00114274
0.00113817
0.00113337
0.00112838
0.00112325
0.00111801
0.0011127
0.00110735
0.00110199
0.00109664
0.00109132
0.00108605
0.00108083
0.00107569
0.00107064
0.00106567
0.00106081
0.00105605
0.0010514
0.00116994
0.00116938
0.00116885
0.00116833
0.00116782
0.00116729
0.00116671
0.00116605
0.00116526
0.00116432
0.00116319
0.00116186
0.0011603
0.00115853
0.00115655
0.00115436
0.00115199
0.00114944
0.00114674
0.00114391
0.00114096
0.00113791
0.00113479
0.0011316
0.00112837
0.00112511
0.00112183
0.00111854
0.00111525
0.00111198
0.00110873
0.00110551
0.00110233
0.00116994
0.00116938
0.00116884
0.00116832
0.00116782
0.00116732
0.00116683
0.00116634
0.00116582
0.00116527
0.00116467
0.00116399
0.00116324
0.0011624
0.00116147
0.00116043
0.00115928
0.00115804
0.0011567
0.00115527
0.00115374
0.00115214
0.00115046
0.00114872
0.00114692
0.00114508
0.00114319
0.00114126
0.00113931
0.00113735
0.00113536
0.00113337
0.00113138
0.00116994
0.00116938
0.00116884
0.00116832
0.00116781
0.00116732
0.00116684
0.00116637
0.00116591
0.00116545
0.00116499
0.00116452
0.00116402
0.00116351
0.00116296
0.00116238
0.00116176
0.0011611
0.00116039
0.00115964
0.00115884
0.001158
0.00115711
0.00115618
0.00115521
0.0011542
0.00115316
0.00115209
0.001151
0.00114988
0.00114874
0.00114759
0.00114642
0.00116994
0.00116938
0.00116884
0.00116832
0.00116781
0.00116732
0.00116684
0.00116637
0.00116592
0.00116547
0.00116504
0.00116461
0.00116419
0.00116377
0.00116335
0.00116292
0.00116249
0.00116204
0.00116158
0.00116111
0.00116062
0.00116012
0.00115959
0.00115905
0.00115849
0.00115792
0.00115732
0.00115671
0.00115609
0.00115545
0.00115479
0.00115413
0.00115345
0.00116994
0.00116938
0.00116884
0.00116832
0.00116781
0.00116731
0.00116683
0.00116637
0.00116591
0.00116547
0.00116504
0.00116462
0.00116422
0.00116382
0.00116342
0.00116304
0.00116266
0.00116228
0.00116191
0.00116153
0.00116116
0.00116079
0.00116041
0.00116003
0.00115964
0.00115925
0.00115886
0.00115846
0.00115806
0.00115765
0.00115724
0.00115683
0.00115641
0.00116994
0.00116938
0.00116884
0.00116832
0.00116781
0.00116731
0.00116683
0.00116636
0.00116591
0.00116547
0.00116504
0.00116462
0.00116421
0.00116382
0.00116343
0.00116306
0.00116269
0.00116233
0.00116198
0.00116163
0.0011613
0.00116096
0.00116064
0.00116031
0.00115999
0.00115967
0.00115936
0.00115905
0.00115874
0.00115843
0.00115812
0.00115782
0.00115752
0.00116994
0.00116938
0.00116884
0.00116831
0.0011678
0.00116731
0.00116683
0.00116636
0.0011659
0.00116546
0.00116503
0.00116461
0.00116421
0.00116381
0.00116343
0.00116305
0.00116269
0.00116233
0.00116199
0.00116165
0.00116132
0.001161
0.00116068
0.00116038
0.00116008
0.00115978
0.00115949
0.00115921
0.00115894
0.00115867
0.0011584
0.00115814
0.00115788
0.00116994
0.00116938
0.00116884
0.00116831
0.0011678
0.00116731
0.00116683
0.00116636
0.0011659
0.00116546
0.00116503
0.00116461
0.0011642
0.00116381
0.00116342
0.00116305
0.00116268
0.00116232
0.00116198
0.00116164
0.00116131
0.001161
0.00116068
0.00116038
0.00116009
0.0011598
0.00115952
0.00115925
0.00115898
0.00115872
0.00115846
0.00115822
0.00115798
0.00116994
0.00116938
0.00116884
0.00116831
0.0011678
0.00116731
0.00116682
0.00116635
0.0011659
0.00116546
0.00116502
0.00116461
0.0011642
0.0011638
0.00116341
0.00116304
0.00116267
0.00116232
0.00116197
0.00116163
0.00116131
0.00116099
0.00116068
0.00116037
0.00116008
0.00115979
0.00115951
0.00115924
0.00115898
0.00115872
0.00115847
0.00115822
0.00115799
0.00116994
0.00116938
0.00116884
0.00116831
0.0011678
0.0011673
0.00116682
0.00116635
0.0011659
0.00116545
0.00116502
0.0011646
0.00116419
0.0011638
0.00116341
0.00116303
0.00116267
0.00116231
0.00116196
0.00116163
0.0011613
0.00116098
0.00116067
0.00116036
0.00116007
0.00115978
0.0011595
0.00115923
0.00115896
0.00115871
0.00115846
0.00115821
0.00115798
0.00116994
0.00116938
0.00116884
0.00116831
0.0011678
0.0011673
0.00116682
0.00116635
0.00116589
0.00116545
0.00116502
0.0011646
0.00116419
0.00116379
0.0011634
0.00116303
0.00116266
0.0011623
0.00116196
0.00116162
0.00116129
0.00116097
0.00116066
0.00116035
0.00116006
0.00115977
0.00115949
0.00115922
0.00115895
0.00115869
0.00115844
0.0011582
0.00115796
0.00116994
0.00116938
0.00116884
0.00116831
0.0011678
0.0011673
0.00116682
0.00116635
0.00116589
0.00116545
0.00116502
0.0011646
0.00116419
0.00116379
0.0011634
0.00116302
0.00116266
0.0011623
0.00116195
0.00116161
0.00116128
0.00116096
0.00116065
0.00116034
0.00116005
0.00115976
0.00115948
0.0011592
0.00115894
0.00115868
0.00115843
0.00115818
0.00115794
0.00116994
0.00116938
0.00116884
0.00116831
0.0011678
0.0011673
0.00116682
0.00116635
0.00116589
0.00116545
0.00116501
0.00116459
0.00116418
0.00116379
0.0011634
0.00116302
0.00116265
0.00116229
0.00116195
0.00116161
0.00116128
0.00116095
0.00116064
0.00116034
0.00116004
0.00115975
0.00115947
0.00115919
0.00115893
0.00115867
0.00115841
0.00115817
0.00115793
0.00116994
0.00116938
0.00116884
0.00116831
0.0011678
0.0011673
0.00116682
0.00116635
0.00116589
0.00116545
0.00116501
0.00116459
0.00116418
0.00116378
0.00116339
0.00116302
0.00116265
0.00116229
0.00116194
0.0011616
0.00116127
0.00116095
0.00116063
0.00116033
0.00116003
0.00115974
0.00115946
0.00115918
0.00115891
0.00115865
0.0011584
0.00115815
0.00115791
0.00116994
0.00116938
0.00116884
0.00116831
0.0011678
0.0011673
0.00116682
0.00116635
0.00116589
0.00116544
0.00116501
0.00116459
0.00116418
0.00116378
0.00116339
0.00116301
0.00116264
0.00116229
0.00116194
0.0011616
0.00116126
0.00116094
0.00116063
0.00116032
0.00116002
0.00115973
0.00115945
0.00115917
0.0011589
0.00115864
0.00115839
0.00115814
0.0011579
0.00116994
0.00116938
0.00116884
0.00116831
0.0011678
0.0011673
0.00116682
0.00116635
0.00116589
0.00116544
0.00116501
0.00116459
0.00116418
0.00116378
0.00116339
0.00116301
0.00116264
0.00116228
0.00116193
0.00116159
0.00116126
0.00116094
0.00116062
0.00116031
0.00116001
0.00115972
0.00115944
0.00115916
0.00115889
0.00115863
0.00115837
0.00115812
0.00115788
0.00116994
0.00116938
0.00116884
0.00116831
0.0011678
0.0011673
0.00116682
0.00116635
0.00116589
0.00116544
0.00116501
0.00116459
0.00116418
0.00116378
0.00116339
0.00116301
0.00116264
0.00116228
0.00116193
0.00116159
0.00116125
0.00116093
0.00116061
0.00116031
0.00116001
0.00115972
0.00115943
0.00115915
0.00115888
0.00115862
0.00115836
0.00115811
0.00115787
0.00116994
0.00116938
0.00116884
0.00116831
0.0011678
0.0011673
0.00116682
0.00116635
0.00116589
0.00116544
0.00116501
0.00116459
0.00116417
0.00116377
0.00116338
0.001163
0.00116264
0.00116228
0.00116192
0.00116158
0.00116125
0.00116093
0.00116061
0.0011603
0.00116
0.00115971
0.00115942
0.00115915
0.00115887
0.00115861
0.00115835
0.0011581
0.00115786
0.00116994
0.00116938
0.00116884
0.00116831
0.0011678
0.0011673
0.00116682
0.00116635
0.00116589
0.00116544
0.00116501
0.00116458
0.00116417
0.00116377
0.00116338
0.001163
0.00116263
0.00116227
0.00116192
0.00116158
0.00116125
0.00116092
0.00116061
0.0011603
0.00116
0.0011597
0.00115942
0.00115914
0.00115887
0.0011586
0.00115834
0.00115809
0.00115785
0.00116994
0.00116938
0.00116884
0.00116831
0.0011678
0.0011673
0.00116682
0.00116634
0.00116589
0.00116544
0.00116501
0.00116458
0.00116417
0.00116377
0.00116338
0.001163
0.00116263
0.00116227
0.00116192
0.00116158
0.00116124
0.00116092
0.0011606
0.00116029
0.00115999
0.0011597
0.00115941
0.00115913
0.00115886
0.0011586
0.00115834
0.00115809
0.00115784
0.00116994
0.00116938
0.00116884
0.00116831
0.0011678
0.0011673
0.00116682
0.00116635
0.00116589
0.00116544
0.00116501
0.00116459
0.00116417
0.00116377
0.00116338
0.001163
0.00116263
0.00116227
0.00116192
0.00116158
0.00116124
0.00116092
0.0011606
0.00116029
0.00115999
0.0011597
0.00115941
0.00115913
0.00115886
0.00115859
0.00115833
0.00115808
0.00115783
0.00116994
0.00116938
0.00116884
0.00116831
0.0011678
0.0011673
0.00116682
0.00116635
0.00116589
0.00116544
0.00116501
0.00116459
0.00116418
0.00116377
0.00116339
0.00116301
0.00116264
0.00116227
0.00116192
0.00116158
0.00116125
0.00116092
0.0011606
0.00116029
0.00115999
0.0011597
0.00115941
0.00115913
0.00115885
0.00115858
0.00115832
0.00115807
0.00115782
0.00116994
0.00116938
0.00116884
0.00116831
0.0011678
0.00116731
0.00116682
0.00116635
0.0011659
0.00116545
0.00116502
0.0011646
0.00116418
0.00116378
0.00116339
0.00116301
0.00116264
0.00116228
0.00116193
0.00116158
0.00116125
0.00116092
0.0011606
0.00116028
0.00115998
0.00115968
0.00115938
0.0011591
0.00115882
0.00115854
0.00115827
0.00115801
0.00115775
0.00116994
0.00116938
0.00116884
0.00116832
0.00116781
0.00116731
0.00116683
0.00116636
0.0011659
0.00116546
0.00116502
0.0011646
0.00116419
0.00116379
0.0011634
0.00116301
0.00116263
0.00116227
0.0011619
0.00116155
0.0011612
0.00116085
0.00116052
0.00116018
0.00115985
0.00115953
0.00115921
0.00115889
0.00115858
0.00115827
0.00115797
0.00115766
0.00115736
0.00116994
0.00116938
0.00116884
0.00116833
0.00116782
0.00116733
0.00116685
0.00116639
0.00116593
0.00116548
0.00116503
0.00116459
0.00116416
0.00116373
0.00116331
0.00116288
0.00116246
0.00116204
0.00116161
0.00116119
0.00116076
0.00116033
0.0011599
0.00115946
0.00115902
0.00115858
0.00115814
0.00115769
0.00115724
0.00115678
0.00115632
0.00115586
0.0011554
0.00116994
0.00116939
0.00116886
0.00116835
0.00116784
0.00116733
0.00116683
0.00116632
0.00116581
0.00116528
0.00116473
0.00116417
0.00116358
0.00116297
0.00116233
0.00116166
0.00116097
0.00116024
0.00115949
0.00115871
0.0011579
0.00115707
0.00115621
0.00115532
0.00115442
0.00115349
0.00115255
0.00115159
0.00115061
0.00114962
0.00114862
0.00114761
0.00114659
0.00116995
0.0011694
0.00116886
0.00116828
0.00116765
0.00116694
0.00116613
0.00116519
0.00116414
0.00116295
0.00116163
0.00116018
0.0011586
0.00115689
0.00115508
0.00115315
0.00115113
0.00114902
0.00114682
0.00114456
0.00114223
0.00113985
0.00113743
0.00113497
0.00113248
0.00112996
0.00112743
0.00112489
0.00112235
0.0011198
0.00111726
0.00111472
0.0011122
0.00116996
0.00116916
0.00116786
0.00116595
0.00116344
0.0011603
0.00115658
0.00115229
0.00114749
0.00114225
0.00113662
0.00113068
0.00112447
0.00111807
0.00111152
0.00110486
0.00109813
0.00109138
0.00108463
0.0010779
0.00107123
0.00106461
0.00105808
0.00105165
0.00104531
0.00103909
0.00103299
0.001027
0.00102115
0.00101542
0.00100983
0.00100437
0.000999035
0.00116831
0.00115866
0.00114501
0.00112846
0.00110972
0.00108951
0.00106848
0.00104714
0.00102588
0.00100496
0.000984585
0.000964859
0.000945858
0.000927619
0.000910154
0.00089346
0.000877519
0.000862309
0.0008478
0.000833964
0.000820767
0.000808178
0.000796164
0.000784696
0.000773743
0.000763278
0.000753273
0.000743704
0.000734545
0.000725775
0.000717373
0.000709318
0.00070159
0.00107567
0.000936194
0.000835603
0.000756867
0.000692056
0.000638292
0.000593371
0.000555465
0.000523134
0.000495274
0.000471038
0.000449774
0.000430974
0.00041424
0.000399257
0.00038577
0.000373572
0.000362493
0.000352393
0.000343155
0.000334677
0.000326876
0.000319679
0.000313025
0.000306857
0.00030113
0.000295802
0.000290836
0.000286201
0.000281867
0.000277809
0.000274006
0.000270433
0.000142979
0.000146644
0.000150174
0.000153551
0.000156773
0.000159846
0.000162775
0.000165566
0.000168224
0.000170754
0.00017316
0.000175449
0.000177623
0.000179689
0.000181651
0.000183513
0.000185281
0.000186957
0.000188547
0.000190055
0.000191484
0.000192839
0.000194122
0.000195338
0.00019649
0.000197581
0.000198614
0.000199592
0.000200518
0.000201395
0.000202224
0.000203009
0.000203753
9.09706e-05
0.00011053
0.000135008
0.000165042
0.000199946
0.000237809
0.000276347
0.000313625
0.00034856
0.000380982
0.000411371
0.000440483
0.000469008
0.000497378
0.000525741
0.000554059
0.000582252
0.000610303
0.000638304
0.000666442
0.000694944
0.000724021
0.00075382
0.000784409
0.000815778
0.000847846
0.000880475
0.000913485
0.000946659
0.000979746
0.00101247
0.00104451
0.00107557
0.00110529
0.00113335
0.00115942
0.0011832
0.00120442
0.00122286
0.00123833
0.00125074
0.00126006
0.00126634
0.00126975
0.00127052
0.00126902
0.00126568
0.00126102
0.00125565
0.00125019
0.00124531
0.00124164
0.00123976
0.00124017
0.00124323
0.00124916
0.00125801
0.00126962
0.00128365
0.00129953
0.00131652
0.00133366
0.00134989
0.00136399
0.00137473
0.00138089
0.00138138
0.00137536
0.00136235
0.00134241
0.00131628
0.00128552
0.00125263
0.00122105
0.00119486
0.00117813
0.00117391
0.00118296
0.00120326
0.00123056
0.00126008
0.00128827
0.0013135
0.00133572
0.00135571
0.0013744
0.0013926
0.00141085
0.00142954
0.00144889
0.00146909
0.00149024
0.00151241
0.00153557
0.00155964
0.00158438
0.00160946
0.00163471
0.00165783
0.00169155
7.63628e-05
7.8505e-05
8.19042e-05
8.73161e-05
9.5602e-05
0.00010759
0.000123954
0.000145018
0.00017064
0.000200177
0.000232567
0.000266509
0.000300709
0.000334111
0.000366057
0.000396321
0.000425041
0.000452571
0.000479334
0.000505703
0.000531942
0.000558196
0.000584521
0.00061092
0.000637371
0.000663848
0.000690316
0.000716719
0.000742973
0.000768953
0.00079449
0.000819376
0.000843371
0.000866213
0.000887633
0.000907363
0.000925157
0.000940797
0.00095411
0.000964977
0.00097335
0.000979256
0.000982809
0.000984217
0.000983781
0.000981894
0.000979027
0.00097572
0.00097255
0.000970108
0.000968964
0.000969632
0.000972539
0.000978003
0.000986209
0.000997204
0.00101089
0.00102705
0.00104529
0.00106513
0.00108594
0.00110696
0.00112737
0.00114623
0.00116258
0.00117553
0.00118429
0.00118835
0.00118753
0.00118221
0.00117337
0.00116269
0.00115251
0.0011456
0.00114465
0.00115159
0.00116682
0.00118893
0.00121509
0.00124217
0.00126775
0.00129073
0.00131114
0.00132961
0.00134695
0.00136386
0.0013808
0.00139809
0.00141593
0.00143445
0.00145378
0.00147402
0.00149525
0.00151748
0.00154068
0.00156468
0.00158922
0.00161418
0.00163718
0.0016715
0.000127018
0.000124893
0.000122683
0.000120206
0.000117605
0.000115372
0.00011374
0.000113098
0.000113991
0.000117066
0.000122969
0.000132225
0.00014514
0.000161748
0.000181789
0.000204743
0.000229898
0.000256454
0.000283634
0.000310786
0.000337439
0.000363326
0.000388355
0.000412562
0.000436049
0.000458936
0.00048132
0.00050325
0.000524729
0.000545708
0.000566094
0.000585764
0.000604573
0.00062236
0.000638963
0.000654227
0.000668013
0.000680216
0.000690768
0.000699658
0.000706938
0.000712732
0.000717244
0.000720755
0.000723617
0.000726246
0.000729095
0.000732633
0.000737311
0.000743532
0.000751615
0.00076178
0.000774127
0.000788646
0.000805225
0.000823671
0.000843735
0.000865134
0.000887555
0.000910665
0.000934097
0.000957442
0.000980244
0.001002
0.00102219
0.00104031
0.00105596
0.00106894
0.00107933
0.00108759
0.00109462
0.00110168
0.00111028
0.00112187
0.00113741
0.00115699
0.00117972
0.00120399
0.001228
0.00125042
0.00127069
0.00128891
0.00130566
0.00132157
0.00133719
0.00135291
0.00136898
0.00138552
0.00140262
0.00142036
0.00143882
0.00145812
0.00147833
0.00149952
0.0015217
0.00154478
0.00156854
0.00159296
0.00161559
0.00165015
0.000296498
0.000290374
0.000284182
0.000277798
0.000271018
0.000263987
0.000256766
0.00024923
0.000241253
0.000232799
0.00022399
0.000215142
0.000206746
0.000199405
0.00019374
0.000190296
0.000189471
0.000191489
0.000196389
0.000204048
0.000214208
0.000226518
0.000240569
0.000255943
0.000272238
0.000289103
0.000306243
0.000323428
0.000340486
0.000357288
0.000373742
0.000389774
0.000405326
0.000420346
0.000434793
0.000448641
0.000461884
0.000474543
0.000486681
0.000498399
0.000509852
0.00052124
0.000532806
0.000544826
0.000557587
0.00057137
0.000586415
0.000602901
0.000620917
0.000640455
0.000661404
0.000683566
0.000706677
0.000730441
0.000754559
0.000778759
0.000802815
0.000826561
0.000849884
0.000872722
0.000895042
0.000916823
0.000938028
0.000958597
0.000978442
0.000997466
0.0010156
0.00103284
0.00104932
0.00106535
0.00108138
0.00109798
0.00111563
0.00113465
0.00115496
0.00117604
0.00119711
0.00121734
0.00123614
0.00125334
0.00126915
0.00128399
0.00129836
0.00131267
0.00132722
0.00134215
0.00135755
0.00137344
0.00138985
0.00140682
0.00142442
0.00144275
0.00146191
0.00148198
0.00150303
0.00152502
0.00154779
0.00157144
0.00159345
0.00162785
0.000498537
0.000490343
0.000482387
0.000474601
0.000466894
0.000459154
0.000451425
0.000443638
0.00043568
0.000427422
0.000418732
0.000409502
0.000399661
0.000389205
0.000378217
0.000366879
0.000355469
0.000344344
0.0003339
0.000324532
0.000316591
0.000310354
0.000306003
0.000303632
0.000303248
0.00030479
0.000308148
0.000313177
0.00031972
0.000327619
0.000336725
0.000346911
0.000358073
0.000370134
0.000383048
0.000396795
0.000411385
0.000426851
0.000443249
0.000460647
0.000479121
0.000498744
0.00051957
0.000541623
0.000564884
0.000589279
0.000614676
0.000640883
0.00066766
0.000694728
0.00072179
0.000748549
0.000774731
0.000800098
0.000824463
0.000847699
0.000869742
0.000890587
0.000910289
0.000928949
0.000946709
0.000963732
0.000980194
0.000996263
0.00101209
0.0010278
0.00104349
0.00105926
0.00107518
0.00109135
0.00110784
0.0011247
0.00114189
0.00115925
0.0011765
0.00119329
0.00120929
0.00122431
0.00123838
0.0012517
0.00126458
0.00127737
0.00129036
0.00130372
0.00131756
0.00133191
0.00134673
0.00136201
0.00137774
0.00139394
0.00141067
0.00142802
0.0014461
0.00146501
0.00148484
0.00150563
0.00152726
0.00154992
0.00157108
0.00160493
0.000686967
0.000677883
0.000669099
0.000660602
0.000652345
0.000644289
0.000636399
0.000628642
0.000620979
0.000613372
0.000605777
0.000598148
0.000590437
0.000582597
0.000574592
0.000566399
0.000558019
0.000549489
0.00054088
0.000532306
0.000523916
0.000515888
0.000508422
0.000501722
0.000495987
0.000491403
0.000488132
0.000486306
0.000486033
0.000487388
0.000490422
0.000495166
0.00050163
0.000509815
0.000519708
0.000531288
0.000544525
0.000559377
0.000575791
0.000593698
0.000613005
0.000633599
0.000655339
0.000678053
0.000701546
0.000725598
0.00074997
0.000774416
0.00079869
0.000822553
0.000845791
0.000868214
0.00088967
0.000910045
0.000929266
0.000947302
0.000964162
0.000979892
0.000994572
0.00100831
0.00102125
0.00103354
0.00104535
0.00105685
0.00106822
0.0010796
0.00109112
0.00110288
0.00111493
0.00112726
0.00113985
0.00115261
0.0011654
0.00117807
0.00119046
0.00120246
0.00121404
0.00122526
0.00123629
0.00124733
0.00125859
0.00127027
0.00128246
0.00129522
0.00130853
0.00132235
0.00133662
0.00135128
0.00136632
0.00138175
0.0013976
0.00141397
0.00143097
0.00144871
0.00146729
0.00148679
0.00150716
0.00152865
0.00154877
0.00158168
0.000844064
0.000835218
0.000826593
0.000818192
0.000810001
0.000802012
0.000794216
0.000786601
0.000779158
0.00077188
0.000764765
0.000757813
0.000751027
0.000744407
0.000737957
0.000731675
0.000725564
0.00071963
0.000713885
0.000708351
0.000703065
0.000698078
0.00069346
0.000689293
0.000685675
0.000682713
0.00068052
0.000679213
0.000678905
0.0006797
0.000681694
0.000684967
0.000689583
0.000695586
0.000703002
0.000711831
0.000722056
0.000733631
0.000746492
0.000760548
0.000775687
0.000791776
0.000808662
0.000826177
0.000844141
0.000862369
0.000880671
0.000898865
0.000916779
0.000934255
0.000951157
0.000967372
0.000982813
0.000997422
0.00101116
0.00102404
0.00103606
0.00104727
0.00105773
0.00106753
0.00107676
0.00108551
0.00109392
0.00110208
0.00111012
0.00111814
0.00112623
0.00113445
0.00114284
0.00115142
0.00116015
0.00116898
0.00117787
0.00118677
0.00119564
0.00120452
0.00121347
0.0012226
0.00123204
0.00124193
0.00125238
0.00126344
0.00127513
0.00128742
0.00130024
0.00131354
0.00132722
0.00134125
0.00135558
0.00137022
0.00138521
0.00140062
0.00141655
0.00143313
0.00145046
0.00146864
0.00148767
0.00150786
0.00152679
0.00155841
0.000963321
0.000955644
0.000948066
0.000940597
0.00093325
0.000926031
0.000918942
0.000911985
0.000905164
0.000898488
0.000891968
0.000885623
0.00087947
0.000873532
0.00086783
0.000862387
0.000857223
0.00085236
0.000847816
0.000843611
0.000839768
0.000836311
0.00083327
0.00083068
0.000828581
0.00082702
0.00082605
0.000825726
0.000826107
0.000827251
0.000829213
0.000832043
0.000835783
0.000840464
0.000846104
0.000852706
0.000860257
0.000868727
0.000878068
0.000888213
0.000899081
0.000910576
0.000922587
0.000934996
0.000947677
0.000960501
0.000973342
0.000986075
0.000998588
0.00101078
0.00102255
0.00103384
0.00104459
0.00105475
0.00106432
0.00107328
0.00108166
0.00108948
0.00109679
0.00110364
0.00111011
0.00111625
0.00112216
0.00112791
0.00113357
0.00113921
0.0011449
0.00115068
0.00115659
0.00116265
0.00116887
0.00117525
0.0011818
0.00118855
0.00119553
0.00120281
0.00121048
0.00121862
0.00122732
0.00123664
0.00124662
0.00125726
0.00126853
0.00128036
0.00129269
0.00130543
0.0013185
0.00133186
0.00134547
0.00135933
0.00137347
0.00138794
0.00140284
0.00141828
0.00143439
0.00145126
0.00146892
0.00148774
0.00150538
0.00153541
0.00104612
0.00104014
0.00103417
0.0010282
0.00102225
0.00101634
0.00101047
0.00100465
0.000998902
0.000993231
0.000987656
0.000982197
0.000976876
0.000971718
0.000966748
0.000961994
0.000957483
0.000953242
0.000949297
0.000945673
0.000942392
0.00093948
0.000936959
0.000934852
0.000933185
0.000931981
0.000931268
0.000931073
0.000931423
0.000932346
0.000933867
0.000936008
0.000938788
0.000942219
0.000946307
0.000951048
0.000956428
0.000962425
0.000969003
0.000976117
0.000983711
0.00099172
0.00100007
0.00100868
0.00101747
0.00102636
0.00103525
0.00104407
0.00105273
0.00106117
0.00106933
0.00107715
0.0010846
0.00109164
0.00109826
0.00110447
0.00111025
0.00111564
0.00112067
0.00112538
0.00112981
0.00113402
0.00113807
0.00114203
0.00114595
0.00114989
0.00115391
0.00115805
0.00116235
0.00116684
0.00117157
0.00117656
0.00118184
0.00118748
0.00119352
0.00120003
0.00120707
0.00121472
0.001223
0.00123195
0.00124156
0.00125182
0.00126265
0.00127401
0.0012858
0.00129795
0.00131039
0.00132306
0.00133595
0.00134903
0.00136233
0.00137589
0.00138981
0.00140417
0.00141909
0.00143468
0.00145098
0.00146841
0.00148471
0.00151292
0.00109866
0.00109446
0.00109019
0.00108587
0.0010815
0.0010771
0.00107267
0.00106824
0.0010638
0.00105938
0.00105499
0.00105065
0.00104637
0.00104219
0.00103811
0.00103418
0.00103041
0.00102682
0.00102345
0.00102032
0.00101746
0.00101487
0.0010126
0.00101065
0.00100906
0.00100783
0.00100699
0.00100656
0.00100655
0.00100697
0.00100785
0.00100918
0.00101098
0.00101326
0.001016
0.00101921
0.00102287
0.00102696
0.00103145
0.00103632
0.00104153
0.00104703
0.00105277
0.0010587
0.00106476
0.00107089
0.00107704
0.00108314
0.00108915
0.00109501
0.00110068
0.00110612
0.00111129
0.00111618
0.00112077
0.00112506
0.00112904
0.00113273
0.00113616
0.00113935
0.00114234
0.00114517
0.00114789
0.00115056
0.00115324
0.00115597
0.00115881
0.00116182
0.00116504
0.00116852
0.00117231
0.00117645
0.00118098
0.00118597
0.00119146
0.00119751
0.00120416
0.00121144
0.00121938
0.00122798
0.00123721
0.00124704
0.00125741
0.00126824
0.00127946
0.001291
0.00130279
0.00131478
0.00132694
0.00133925
0.00135174
0.00136444
0.00137741
0.00139075
0.00140455
0.00141892
0.00143391
0.00144995
0.00146491
0.00149115
0.00112906
0.00112636
0.00112357
0.00112071
0.00111777
0.00111477
0.00111172
0.00110861
0.00110547
0.0011023
0.00109911
0.00109592
0.00109274
0.0010896
0.0010865
0.00108347
0.00108052
0.00107769
0.00107499
0.00107243
0.00107005
0.00106786
0.00106588
0.00106414
0.00106264
0.00106141
0.00106047
0.00105982
0.00105949
0.00105948
0.0010598
0.00106046
0.00106147
0.00106282
0.00106452
0.00106655
0.00106892
0.0010716
0.00107458
0.00107784
0.00108134
0.00108507
0.00108897
0.00109303
0.00109719
0.00110142
0.00110568
0.00110991
0.0011141
0.00111818
0.00112214
0.00112595
0.00112956
0.00113298
0.00113617
0.00113915
0.00114189
0.00114443
0.00114675
0.0011489
0.0011509
0.00115279
0.0011546
0.00115639
0.00115821
0.00116011
0.00116215
0.00116438
0.00116687
0.00116965
0.0011728
0.00117635
0.00118036
0.00118488
0.00118995
0.00119562
0.00120191
0.00120884
0.00121642
0.00122462
0.00123343
0.00124279
0.00125265
0.00126293
0.00127356
0.00128448
0.00129562
0.00130693
0.00131838
0.00132995
0.00134166
0.00135353
0.00136561
0.00137798
0.00139073
0.00140396
0.00141771
0.0014324
0.00144606
0.00147026
0.00114504
0.00114342
0.00114173
0.00113996
0.00113812
0.00113622
0.00113426
0.00113224
0.00113017
0.00112805
0.0011259
0.00112372
0.00112153
0.00111933
0.00111714
0.00111496
0.00111283
0.00111074
0.00110872
0.00110679
0.00110495
0.00110322
0.00110163
0.00110019
0.00109891
0.0010978
0.00109689
0.00109619
0.0010957
0.00109544
0.00109542
0.00109564
0.00109611
0.00109683
0.00109781
0.00109903
0.0011005
0.00110221
0.00110414
0.00110628
0.00110861
0.00111112
0.00111377
0.00111654
0.0011194
0.00112233
0.00112529
0.00112826
0.0011312
0.00113408
0.00113687
0.00113956
0.00114212
0.00114453
0.00114678
0.00114887
0.00115078
0.00115253
0.00115412
0.00115558
0.00115692
0.00115818
0.0011594
0.00116061
0.00116187
0.00116322
0.00116473
0.00116644
0.00116842
0.00117073
0.00117341
0.00117653
0.00118013
0.00118426
0.00118897
0.00119427
0.0012002
0.00120675
0.00121393
0.00122171
0.00123006
0.00123893
0.00124825
0.00125797
0.00126801
0.00127831
0.0012888
0.00129944
0.0013102
0.00132106
0.00133202
0.00134311
0.00135435
0.00136582
0.0013776
0.00138976
0.00140235
0.00141577
0.00142818
0.00145035
0.00115265
0.0011517
0.0011507
0.00114965
0.00114854
0.00114739
0.00114618
0.00114493
0.00114363
0.00114229
0.00114092
0.00113951
0.00113808
0.00113663
0.00113517
0.0011337
0.00113225
0.00113081
0.00112939
0.00112802
0.0011267
0.00112544
0.00112426
0.00112316
0.00112216
0.00112127
0.00112051
0.00111987
0.00111939
0.00111906
0.00111889
0.00111889
0.00111907
0.00111942
0.00111996
0.00112068
0.00112159
0.00112267
0.00112392
0.00112533
0.00112689
0.00112859
0.0011304
0.00113232
0.00113432
0.00113638
0.00113848
0.00114059
0.0011427
0.00114477
0.00114679
0.00114873
0.00115058
0.00115232
0.00115394
0.00115543
0.0011568
0.00115803
0.00115915
0.00116016
0.00116108
0.00116195
0.00116278
0.00116363
0.00116453
0.00116554
0.00116671
0.00116808
0.00116973
0.0011717
0.00117405
0.00117684
0.00118011
0.00118392
0.00118828
0.00119324
0.0011988
0.00120497
0.00121174
0.00121908
0.00122695
0.00123531
0.0012441
0.00125325
0.00126271