/*--------------------------------*- C++ -*----------------------------------*\
| =========                 |                                                 |
| \\      /  F ield         | OpenFOAM: The Open Source CFD Toolbox           |
|  \\    /   O peration     | Version:  2.1.1                                 |
|   \\  /    A nd           | Web:      www.OpenFOAM.org                      |
|    \\/     M anipulation  |                                                 |
\*---------------------------------------------------------------------------*/
FoamFile
{
    version     2.0;
    format      ascii;
    class       volScalarField;
    location    "0.13";
    object      p;
}
// * * * * * * * * * * * * * * * * * * * * * * * * * * * * * * * * * * * * * //

dimensions      [0 2 -2 0 0 0 0];

internalField   nonuniform List<scalar> 
6820
(
-11.116
-12.9624
-13.5376
-13.6657
-13.7732
-13.8528
-13.9079
-13.955
-13.9982
-14.038
-14.0753
-14.1107
-14.1445
-14.1769
-14.208
-14.2379
-14.2668
-14.2948
-14.3219
-14.3485
-14.3744
-14.3998
-14.4248
-14.4494
-14.4736
-14.4972
-14.5202
-14.5422
-14.5622
-14.5791
-14.589
-14.5854
-14.557
-15.0685
-14.5339
-14.1117
-13.922
-13.8977
-13.9095
-13.9303
-13.9589
-13.9918
-14.026
-14.0605
-14.0946
-14.1282
-14.1608
-14.1924
-14.2231
-14.2528
-14.2816
-14.3096
-14.3369
-14.3635
-14.3896
-14.4152
-14.4405
-14.4653
-14.4897
-14.5137
-14.5374
-14.5602
-14.5841
-14.6072
-14.6531
-14.7129
-13.426
-13.1223
-13.4091
-13.6544
-13.7598
-13.8357
-13.8953
-13.9453
-13.9901
-14.031
-14.069
-14.1048
-14.1388
-14.1711
-14.2021
-14.2319
-14.2606
-14.2885
-14.3155
-14.3419
-14.3678
-14.3932
-14.4182
-14.4429
-14.4674
-14.4916
-14.5157
-14.5397
-14.5638
-14.5891
-14.6161
-14.6512
-14.6901
-13.9329
-13.9673
-13.9648
-13.9059
-13.8985
-13.9195
-13.9464
-13.9759
-14.0075
-14.0397
-14.0718
-14.1035
-14.1346
-14.1651
-14.1948
-14.2238
-14.2521
-14.2797
-14.3068
-14.3332
-14.3593
-14.3849
-14.4102
-14.4353
-14.4602
-14.485
-14.5099
-14.5351
-14.5609
-14.5887
-14.619
-14.6591
-14.7058
-13.7774
-13.6774
-13.7218
-13.7882
-13.8415
-13.8886
-13.9298
-13.9679
-14.0044
-14.0396
-14.0735
-14.1062
-14.1379
-14.1686
-14.1982
-14.227
-14.255
-14.2823
-14.309
-14.3351
-14.3608
-14.3861
-14.4111
-14.4359
-14.4607
-14.4855
-14.5105
-14.5361
-14.5626
-14.5912
-14.6225
-14.66
-14.7021
-13.8325
-13.8159
-13.8413
-13.8646
-13.8874
-13.9171
-13.9492
-13.9815
-14.014
-14.0462
-14.0778
-14.1087
-14.139
-14.1684
-14.1972
-14.2253
-14.2527
-14.2795
-14.3058
-14.3316
-14.3571
-14.3822
-14.4072
-14.432
-14.4568
-14.4818
-14.5071
-14.5331
-14.5602
-14.5891
-14.6206
-14.6564
-14.6957
-13.8305
-13.8095
-13.8255
-13.8546
-13.8851
-13.9185
-13.9519
-13.9845
-14.0168
-14.0486
-14.0797
-14.1102
-14.1399
-14.169
-14.1973
-14.225
-14.252
-14.2785
-14.3045
-14.3301
-14.3553
-14.3803
-14.4051
-14.4298
-14.4545
-14.4795
-14.5048
-14.5309
-14.558
-14.5867
-14.6174
-14.651
-14.6868
-13.8446
-13.8369
-13.8524
-13.8772
-13.9029
-13.9315
-13.9616
-13.9919
-14.0224
-14.0527
-14.0826
-14.112
-14.1409
-14.1692
-14.1968
-14.2239
-14.2505
-14.2765
-14.3021
-14.3274
-14.3523
-14.377
-14.4016
-14.4261
-14.4508
-14.4756
-14.5009
-14.5268
-14.5536
-14.5818
-14.6115
-14.643
-14.6759
-13.8574
-13.8535
-13.8659
-13.8877
-13.912
-13.9393
-13.9681
-13.9973
-14.0267
-14.056
-14.0849
-14.1135
-14.1416
-14.1692
-14.1963
-14.2228
-14.2489
-14.2745
-14.2998
-14.3247
-14.3493
-14.3737
-14.398
-14.4223
-14.4467
-14.4713
-14.4963
-14.5219
-14.5483
-14.5756
-14.6041
-14.6337
-14.664
-13.8708
-13.8702
-13.8817
-13.9014
-13.9239
-13.9491
-13.976
-14.0036
-14.0315
-14.0596
-14.0875
-14.1151
-14.1424
-14.1692
-14.1956
-14.2216
-14.2471
-14.2723
-14.2971
-14.3216
-14.3458
-14.3699
-14.3939
-14.4179
-14.442
-14.4662
-14.4908
-14.5159
-14.5416
-14.568
-14.5952
-14.623
-14.6512
-13.8841
-13.8852
-13.8957
-13.9135
-13.9343
-13.9578
-13.9831
-14.0093
-14.036
-14.063
-14.0899
-14.1166
-14.143
-14.1691
-14.1949
-14.2202
-14.2452
-14.2699
-14.2942
-14.3183
-14.3421
-14.3658
-14.3894
-14.413
-14.4367
-14.4605
-14.4846
-14.5091
-14.534
-14.5594
-14.5852
-14.6114
-14.6377
-13.8972
-13.8992
-13.9091
-13.9253
-13.9446
-13.9665
-13.9903
-14.0152
-14.0406
-14.0664
-14.0923
-14.1181
-14.1437
-14.169
-14.1941
-14.2188
-14.2432
-14.2673
-14.2911
-14.3147
-14.3381
-14.3614
-14.3845
-14.4077
-14.4308
-14.4541
-14.4776
-14.5014
-14.5254
-14.5497
-14.5743
-14.599
-14.6236
-13.9098
-13.9122
-13.9216
-13.9364
-13.9544
-13.9748
-13.9972
-14.0208
-14.045
-14.0697
-14.0946
-14.1194
-14.1442
-14.1688
-14.1931
-14.2172
-14.241
-14.2646
-14.2879
-14.3109
-14.3338
-14.3566
-14.3792
-14.4019
-14.4245
-14.4472
-14.47
-14.4929
-14.5161
-14.5393
-14.5627
-14.586
-14.609
-13.9218
-13.9244
-13.9333
-13.9469
-13.9637
-13.9828
-14.0039
-14.0262
-14.0493
-14.0729
-14.0967
-14.1207
-14.1446
-14.1685
-14.1921
-14.2155
-14.2387
-14.2616
-14.2844
-14.3069
-14.3292
-14.3514
-14.3735
-14.3956
-14.4176
-14.4396
-14.4617
-14.4838
-14.506
-14.5282
-14.5503
-14.5723
-14.594
-13.9332
-13.9358
-13.9442
-13.9568
-13.9724
-13.9904
-14.0102
-14.0313
-14.0533
-14.0759
-14.0988
-14.1218
-14.1449
-14.168
-14.1909
-14.2136
-14.2362
-14.2585
-14.2806
-14.3026
-14.3243
-14.346
-14.3675
-14.3889
-14.4102
-14.4315
-14.4528
-14.4741
-14.4953
-14.5164
-14.5374
-14.5582
-14.5786
-13.9438
-13.9464
-13.9543
-13.9661
-13.9807
-13.9975
-14.0162
-14.0362
-14.0571
-14.0787
-14.1006
-14.1228
-14.1451
-14.1673
-14.1895
-14.2116
-14.2334
-14.2551
-14.2766
-14.298
-14.3191
-14.3401
-14.361
-14.3817
-14.4024
-14.4229
-14.4434
-14.4637
-14.484
-14.5041
-14.5239
-14.5435
-14.5628
-13.9538
-13.9563
-13.9637
-13.9747
-13.9883
-14.0041
-14.0218
-14.0407
-14.0606
-14.0812
-14.1023
-14.1236
-14.145
-14.1665
-14.188
-14.2093
-14.2305
-14.2515
-14.2724
-14.2931
-14.3136
-14.3339
-14.3541
-14.3742
-14.3941
-14.4138
-14.4334
-14.4529
-14.4722
-14.4912
-14.51
-14.5285
-14.5465
-13.963
-13.9654
-13.9723
-13.9826
-13.9954
-14.0103
-14.0269
-14.0449
-14.0638
-14.0835
-14.1036
-14.1241
-14.1448
-14.1655
-14.1862
-14.2068
-14.2273
-14.2477
-14.2679
-14.2879
-14.3077
-14.3274
-14.3469
-14.3662
-14.3853
-14.4043
-14.423
-14.4415
-14.4598
-14.4779
-14.4956
-14.513
-14.5299
-13.9714
-13.9736
-13.9802
-13.9898
-14.0018
-14.0159
-14.0316
-14.0486
-14.0667
-14.0854
-14.1047
-14.1244
-14.1442
-14.1642
-14.1842
-14.2041
-14.2239
-14.2436
-14.2631
-14.2824
-14.3016
-14.3205
-14.3393
-14.3578
-14.3761
-14.3942
-14.4121
-14.4297
-14.4471
-14.4641
-14.4808
-14.4971
-14.5129
-13.979
-13.9811
-13.9873
-13.9964
-14.0076
-14.0209
-14.0357
-14.0519
-14.0691
-14.087
-14.1055
-14.1243
-14.1434
-14.1626
-14.1819
-14.2011
-14.2202
-14.2392
-14.258
-14.2766
-14.2951
-14.3133
-14.3313
-14.3491
-14.3666
-14.3838
-14.4008
-14.4175
-14.4339
-14.4499
-14.4656
-14.4808
-14.4956
-13.9858
-13.9878
-13.9936
-14.0021
-14.0127
-14.0252
-14.0394
-14.0547
-14.0711
-14.0882
-14.1059
-14.124
-14.1423
-14.1608
-14.1793
-14.1978
-14.2162
-14.2345
-14.2526
-14.2705
-14.2883
-14.3057
-14.323
-14.34
-14.3567
-14.3731
-14.3892
-14.4049
-14.4203
-14.4354
-14.45
-14.4642
-14.478
-13.9917
-13.9936
-13.9991
-14.0071
-14.0171
-14.029
-14.0424
-14.057
-14.0726
-14.089
-14.1059
-14.1233
-14.1409
-14.1586
-14.1764
-14.1942
-14.2119
-14.2295
-14.2469
-14.2642
-14.2811
-14.2979
-14.3143
-14.3305
-14.3464
-14.3619
-14.3771
-14.392
-14.4065
-14.4205
-14.4342
-14.4474
-14.4601
-13.9968
-13.9986
-14.0037
-14.0113
-14.0208
-14.0321
-14.0448
-14.0587
-14.0736
-14.0893
-14.1055
-14.1222
-14.1391
-14.1562
-14.1733
-14.1904
-14.2074
-14.2243
-14.241
-14.2575
-14.2738
-14.2897
-14.3054
-14.3208
-14.3358
-14.3505
-14.3649
-14.3788
-14.3923
-14.4054
-14.4181
-14.4303
-14.4421
-14.001
-14.0027
-14.0075
-14.0147
-14.0237
-14.0344
-14.0465
-14.0598
-14.0741
-14.0891
-14.1046
-14.1206
-14.1369
-14.1533
-14.1697
-14.1861
-14.2025
-14.2187
-14.2347
-14.2505
-14.266
-14.2813
-14.2962
-14.3108
-14.325
-14.3388
-14.3523
-14.3653
-14.378
-14.3901
-14.4018
-14.4131
-14.4238
-14.0042
-14.0058
-14.0105
-14.0173
-14.0259
-14.0361
-14.0477
-14.0604
-14.0741
-14.0885
-14.1034
-14.1188
-14.1344
-14.1502
-14.166
-14.1818
-14.1974
-14.213
-14.2283
-14.2434
-14.2582
-14.2727
-14.2868
-14.3006
-14.314
-14.327
-14.3396
-14.3518
-14.3635
-14.3747
-14.3855
-14.3958
-14.4055
-14.0066
-14.0081
-14.0125
-14.0189
-14.027
-14.0367
-14.0478
-14.06
-14.0731
-14.087
-14.1013
-14.1161
-14.1312
-14.1463
-14.1616
-14.1767
-14.1918
-14.2067
-14.2214
-14.2358
-14.2499
-14.2636
-14.2771
-14.2901
-14.3027
-14.3149
-14.3267
-14.338
-14.3488
-14.3591
-14.369
-14.3783
-14.3872
-14.0079
-14.0094
-14.0136
-14.0198
-14.0277
-14.0371
-14.0478
-14.0595
-14.0722
-14.0856
-14.0995
-14.1137
-14.1282
-14.1428
-14.1574
-14.172
-14.1864
-14.2007
-14.2147
-14.2284
-14.2418
-14.2548
-14.2675
-14.2798
-14.2916
-14.303
-14.3139
-14.3243
-14.3343
-14.3437
-14.3527
-14.3611
-14.369
-14.0083
-14.0095
-14.0134
-14.0191
-14.0264
-14.0353
-14.0456
-14.057
-14.0692
-14.0821
-14.0956
-14.1094
-14.1235
-14.1376
-14.1518
-14.1659
-14.1798
-14.1935
-14.2069
-14.22
-14.2328
-14.2452
-14.2572
-14.2688
-14.2799
-14.2905
-14.3007
-14.3103
-14.3195
-14.3281
-14.3362
-14.3438
-14.3508
-14.0077
-14.0092
-14.0132
-14.019
-14.0264
-14.0353
-14.0453
-14.0564
-14.0683
-14.0809
-14.0939
-14.1072
-14.1207
-14.1343
-14.1479
-14.1614
-14.1746
-14.1877
-14.2005
-14.2129
-14.225
-14.2367
-14.2479
-14.2587
-14.269
-14.2789
-14.2882
-14.2971
-14.3054
-14.3131
-14.3204
-14.3271
-14.3332
-14.0056
-14.0062
-14.009
-14.0137
-14.0203
-14.0286
-14.0384
-14.0493
-14.0611
-14.0736
-14.0866
-14.0998
-14.1132
-14.1267
-14.14
-14.1533
-14.1663
-14.179
-14.1914
-14.2034
-14.215
-14.2262
-14.2369
-14.2472
-14.2569
-14.2661
-14.2748
-14.283
-14.2906
-14.2977
-14.3042
-14.3101
-14.3155
-14.0042
-14.0066
-14.0109
-14.0167
-14.0238
-14.0322
-14.0417
-14.0522
-14.0635
-14.0753
-14.0876
-14.1001
-14.1127
-14.1254
-14.138
-14.1505
-14.1627
-14.1746
-14.1862
-14.1975
-14.2083
-14.2187
-14.2287
-14.2381
-14.2471
-14.2555
-14.2634
-14.2707
-14.2775
-14.2837
-14.2894
-14.2945
-14.299
-13.9962
-13.9941
-13.9942
-13.9977
-14.004
-14.0126
-14.0228
-14.0343
-14.0466
-14.0594
-14.0727
-14.086
-14.0994
-14.1127
-14.1257
-14.1385
-14.151
-14.1631
-14.1748
-14.186
-14.1967
-14.2069
-14.2166
-14.2257
-14.2343
-14.2423
-14.2498
-14.2567
-14.2629
-14.2686
-14.2737
-14.2782
-14.2821
-14.0027
-14.0091
-14.0147
-14.0195
-14.0251
-14.032
-14.0404
-14.0498
-14.06
-14.0709
-14.0822
-14.0938
-14.1054
-14.1172
-14.1288
-14.1402
-14.1514
-14.1623
-14.1728
-14.1829
-14.1926
-14.2018
-14.2105
-14.2187
-14.2264
-14.2335
-14.2401
-14.246
-14.2515
-14.2563
-14.2606
-14.2642
-14.2673
-13.971
-13.9576
-13.9526
-13.9573
-13.9669
-13.979
-13.9925
-14.007
-14.0219
-14.0369
-14.0518
-14.0665
-14.0809
-14.0949
-14.1084
-14.1214
-14.1339
-14.1459
-14.1573
-14.1681
-14.1783
-14.1879
-14.1969
-14.2052
-14.2129
-14.22
-14.2265
-14.2323
-14.2375
-14.2421
-14.246
-14.2494
-14.2521
-14.0239
-14.0441
-14.048
-14.043
-14.0405
-14.0424
-14.0471
-14.0536
-14.0615
-14.0704
-14.08
-14.09
-14.1004
-14.1108
-14.1212
-14.1315
-14.1416
-14.1513
-14.1607
-14.1697
-14.1783
-14.1864
-14.194
-14.2011
-14.2076
-14.2136
-14.219
-14.2238
-14.228
-14.2316
-14.2347
-14.2372
-14.2391
-13.9011
-13.8516
-13.8397
-13.8658
-13.8931
-13.9168
-13.94
-13.9625
-13.9838
-14.0039
-14.0228
-14.0407
-14.0576
-14.0735
-14.0884
-14.1025
-14.1158
-14.1283
-14.1399
-14.1508
-14.161
-14.1704
-14.179
-14.187
-14.1942
-14.2007
-14.2065
-14.2116
-14.2161
-14.2198
-14.2229
-14.2253
-14.2271
-14.1487
-14.1835
-14.1523
-14.1092
-14.0802
-14.069
-14.0656
-14.0658
-14.0689
-14.0742
-14.081
-14.0887
-14.0971
-14.1058
-14.1147
-14.1237
-14.1325
-14.1411
-14.1494
-14.1573
-14.1649
-14.172
-14.1786
-14.1847
-14.1903
-14.1953
-14.1998
-14.2037
-14.207
-14.2098
-14.2119
-14.2135
-14.2145
-13.6565
-13.5367
-13.5989
-13.7003
-13.7739
-13.825
-13.868
-13.9055
-13.938
-13.9664
-13.9917
-14.0144
-14.035
-14.0537
-14.0708
-14.0866
-14.1011
-14.1144
-14.1266
-14.1379
-14.1483
-14.1577
-14.1663
-14.174
-14.181
-14.1872
-14.1925
-14.1972
-14.2011
-14.2043
-14.2067
-14.2085
-14.2095
-14.8707
-14.5317
-14.2678
-14.1502
-14.0999
-14.0742
-14.0585
-14.0517
-14.0511
-14.0543
-14.0599
-14.0671
-14.0753
-14.0842
-14.0933
-14.1024
-14.1115
-14.1204
-14.129
-14.1371
-14.1449
-14.1521
-14.1589
-14.1651
-14.1707
-14.1757
-14.1801
-14.184
-14.1872
-14.1898
-14.1917
-14.1931
-14.1939
-12.367
-13.0735
-13.4778
-13.6299
-13.7341
-13.816
-13.8749
-13.9191
-13.9549
-13.9843
-14.0091
-14.0305
-14.0495
-14.0664
-14.0817
-14.0957
-14.1085
-14.1202
-14.131
-14.1409
-14.15
-14.1582
-14.1657
-14.1724
-14.1783
-14.1835
-14.188
-14.1918
-14.1948
-14.1972
-14.1989
-14.2
-14.2004
-14.4527
-14.6886
-14.8379
-14.926
-14.983
-15.0232
-15.0578
-15.0964
-15.1461
-15.2082
-15.2818
-15.3651
-15.4552
-15.5488
-15.6427
-15.7339
-15.8198
-15.8986
-15.9688
-16.0291
-16.0789
-16.1177
-16.1451
-16.161
-16.1651
-16.157
-16.1363
-16.1024
-16.0545
-15.9918
-15.9131
-15.8176
-15.7042
-15.5716
-15.419
-15.2453
-15.0497
-14.8313
-14.5897
-14.3246
-14.0359
-13.7238
-13.3891
-13.0328
-12.6563
-12.2614
-11.8504
-11.4258
-10.9905
-10.5476
-10.1004
-9.65215
-9.2062
-8.7657
-8.33358
-7.91248
-7.50464
-7.11184
-6.73539
-6.37608
-6.03418
-5.70945
-5.40119
-5.10825
-4.82915
-4.56211
-4.30516
-4.0562
-3.81314
-3.57398
-3.33691
-3.10043
-2.86344
-2.62535
-2.38616
-2.14655
-1.90788
-1.67226
-1.44239
-1.22142
-1.01263
-0.819114
-0.64344
-0.487477
-0.352273
-0.238033
-0.144179
-0.069479
-0.0121836
0.0297178
0.0584553
0.0760487
0.0847446
0.0858357
0.0818363
0.0720368
0.0614765
0.0427738
0.0335513
-0.00133021
-15.0626
-15.1964
-15.1266
-15.0583
-15.02
-14.9922
-14.9874
-15.0014
-15.0394
-15.0998
-15.1782
-15.2701
-15.3703
-15.4737
-15.5758
-15.6729
-15.7623
-15.8422
-15.9116
-15.97
-16.0172
-16.0533
-16.0783
-16.0919
-16.094
-16.0841
-16.0619
-16.0265
-15.9773
-15.9133
-15.8336
-15.7372
-15.623
-15.4901
-15.3373
-15.1639
-14.9688
-14.7516
-14.5116
-14.2485
-13.9624
-13.6536
-13.3227
-12.9707
-12.5991
-12.2096
-11.8043
-11.3859
-10.957
-10.5206
-10.0798
-9.63798
-9.19816
-8.76344
-8.33666
-7.92036
-7.51672
-7.12751
-6.754
-6.39699
-6.05678
-5.73317
-5.42551
-5.13274
-4.85343
-4.58589
-4.3282
-4.07837
-3.83435
-3.59422
-3.35622
-3.11893
-2.88131
-2.64283
-2.40356
-2.16426
-1.92636
-1.69196
-1.4637
-1.24456
-1.03761
-0.845673
-0.671141
-0.515766
-0.380555
-0.265737
-0.170791
-0.0945767
-0.0354429
0.00851994
0.0394557
0.0592928
0.0702541
0.0735113
0.0717219
0.0638133
0.0555641
0.0380617
0.0320707
-0.00387971
-14.747
-14.7471
-14.7695
-14.8254
-14.8859
-14.936
-14.9729
-15.0124
-15.0602
-15.1168
-15.1825
-15.2568
-15.3379
-15.4232
-15.51
-15.5957
-15.6778
-15.7541
-15.8227
-15.8821
-15.9313
-15.9695
-15.9962
-16.0109
-16.0134
-16.0034
-15.9804
-15.9441
-15.8937
-15.8285
-15.7477
-15.6504
-15.5356
-15.4023
-15.2496
-15.0765
-14.8823
-14.6664
-14.4283
-14.1676
-13.8845
-13.5793
-13.2526
-12.9054
-12.539
-12.1552
-11.7561
-11.3441
-10.9218
-10.4922
-10.0582
-9.62289
-9.18941
-8.76068
-8.33942
-7.92811
-7.52885
-7.14336
-6.77289
-6.41823
-6.07971
-5.75716
-5.45
-5.15723
-4.87752
-4.60925
-4.3506
-4.09966
-3.85447
-3.61319
-3.37415
-3.13601
-2.89781
-2.6591
-2.42005
-2.18144
-1.94471
-1.7119
-1.48554
-1.2684
-1.06331
-0.872915
-0.699463
-0.54462
-0.409367
-0.293953
-0.197912
-0.120183
-0.0592079
-0.0131776
0.0199711
0.0420736
0.0553297
0.0607918
0.0612565
0.0552895
0.0493991
0.0331614
0.0304311
-0.00648526
-14.805
-14.924
-14.9888
-15.009
-15.0113
-15.0036
-14.9989
-15.0183
-15.0527
-15.0995
-15.1595
-15.2307
-15.3098
-15.3931
-15.477
-15.5584
-15.6348
-15.7042
-15.7654
-15.8174
-15.8597
-15.8919
-15.9136
-15.9245
-15.9241
-15.9121
-15.8877
-15.8502
-15.7991
-15.7333
-15.6521
-15.5545
-15.4395
-15.3063
-15.1539
-14.9816
-14.7886
-14.5742
-14.3382
-14.0802
-13.8003
-13.4989
-13.1765
-12.8342
-12.4734
-12.0955
-11.7028
-11.2975
-10.8821
-10.4595
-10.0326
-9.60427
-9.1775
-8.75511
-8.33974
-7.93375
-7.53919
-7.15769
-6.7905
-6.4384
-6.10172
-5.78034
-5.47373
-5.18098
-4.90082
-4.63176
-4.37207
-4.11994
-3.87352
-3.63108
-3.39105
-3.15217
-2.91358
-2.67492
-2.43638
-2.19877
-1.96349
-1.73249
-1.50811
-1.29296
-1.08968
-0.900759
-0.728324
-0.573973
-0.438659
-0.322644
-0.225512
-0.146276
-0.0834654
-0.0353665
4.49312e-06
0.0243908
0.0399687
0.0476715
0.0504318
0.0464555
0.0429725
0.0280605
0.0286319
-0.009162
-14.7625
-14.8089
-14.8212
-14.8332
-14.857
-14.8978
-14.9418
-14.9813
-15.0262
-15.0791
-15.14
-15.2077
-15.28
-15.3549
-15.4301
-15.5035
-15.5731
-15.6372
-15.6945
-15.7437
-15.7838
-15.8141
-15.834
-15.8428
-15.8403
-15.8258
-15.7989
-15.759
-15.7054
-15.6375
-15.5544
-15.4553
-15.3392
-15.2053
-15.0528
-14.8807
-14.6885
-14.4756
-14.2416
-13.9862
-13.7096
-13.4121
-13.0943
-12.7571
-12.4019
-12.0304
-11.6443
-11.246
-10.8379
-10.4226
-10.0031
-9.58199
-9.16224
-8.7465
-8.33731
-7.93693
-7.54733
-7.17009
-6.80642
-6.45708
-6.12242
-5.80237
-5.49644
-5.2038
-4.92329
-4.6535
-4.39282
-4.13956
-3.892
-3.64849
-3.4076
-3.16815
-2.92938
-2.69098
-2.45317
-2.21674
-1.98303
-1.75386
-1.53143
-1.3182
-1.11664
-0.929124
-0.757656
-0.603769
-0.468384
-0.351772
-0.253558
-0.172825
-0.108186
-0.0580188
-0.0204184
0.00626811
0.0241929
0.0341699
0.0392653
0.0373273
0.036298
0.0227729
0.0266882
-0.0119004
-14.7481
-14.8067
-14.8549
-14.8963
-14.932
-14.9481
-14.9635
-14.9911
-15.0274
-15.0719
-15.1247
-15.1848
-15.2502
-15.3187
-15.388
-15.4558
-15.5199
-15.5787
-15.6306
-15.6745
-15.7097
-15.7353
-15.751
-15.7562
-15.7504
-15.7331
-15.7038
-15.6618
-15.6065
-15.537
-15.4525
-15.3523
-15.2354
-15.101
-14.9483
-14.7766
-14.5852
-14.3737
-14.1416
-13.8888
-13.6154
-13.3218
-13.0086
-12.6766
-12.3273
-11.962
-11.5828
-11.1916
-10.7909
-10.3833
-9.97134
-9.55775
-9.14523
-8.73635
-8.33352
-7.93891
-7.55441
-7.18155
-6.8215
-6.47502
-6.14248
-5.82384
-5.51868
-5.22624
-4.94546
-4.67502
-4.41345
-4.15915
-3.91054
-3.66609
-3.42446
-3.18459
-2.94577
-2.70774
-2.47074
-2.23553
-2.00336
-1.77596
-1.55541
-1.34401
-1.14412
-0.957943
-0.787409
-0.633969
-0.498511
-0.381309
-0.282026
-0.199809
-0.13335
-0.0811184
-0.0412834
-0.0122824
0.0080123
0.0202957
0.027764
0.0279112
0.0293805
0.0173035
0.0246066
-0.0146985
-14.7312
-14.7786
-14.8134
-14.838
-14.8583
-14.8916
-14.9237
-14.9594
-15.0001
-15.0464
-15.0986
-15.1561
-15.2172
-15.2804
-15.3438
-15.4053
-15.4634
-15.5165
-15.5634
-15.6028
-15.634
-15.6561
-15.6686
-15.6708
-15.6621
-15.6422
-15.6103
-15.5658
-15.5081
-15.4365
-15.3503
-15.2485
-15.1305
-14.9953
-14.8424
-14.6709
-14.4804
-14.2702
-14.0402
-13.7901
-13.5201
-13.2305
-12.922
-12.5954
-12.252
-11.8933
-11.521
-11.1372
-10.7441
-10.3441
-9.9398
-9.53374
-9.12845
-8.72641
-8.32991
-7.94104
-7.5616
-7.19309
-6.83664
-6.49302
-6.1626
-5.84538
-5.54102
-5.24882
-4.96782
-4.69681
-4.43441
-4.17916
-3.92958
-3.68426
-3.44198
-3.20175
-2.96293
-2.7253
-2.48911
-2.25507
-2.0244
-1.79871
-1.57996
-1.37033
-1.17203
-0.987168
-0.817544
-0.664542
-0.529014
-0.411232
-0.310894
-0.227208
-0.158941
-0.10465
-0.0625771
-0.0312488
-0.00856301
0.00605759
0.0159348
0.0182133
0.0222249
0.011657
0.0223937
-0.0175556
-14.7152
-14.7587
-14.7962
-14.8297
-14.8628
-14.8907
-14.9195
-14.9514
-14.9882
-15.0302
-15.0775
-15.1295
-15.1849
-15.2421
-15.2995
-15.3554
-15.408
-15.456
-15.4979
-15.5329
-15.5598
-15.578
-15.5867
-15.5855
-15.5738
-15.5509
-15.5164
-15.4695
-15.4097
-15.3362
-15.2483
-15.1453
-15.0263
-14.8906
-14.7375
-14.5664
-14.3767
-14.168
-13.9401
-13.6928
-13.4262
-13.1407
-12.8369
-12.5157
-12.1783
-11.826
-11.4606
-11.084
-10.6984
-10.3059
-9.90916
-9.51046
-9.11226
-8.71692
-8.32663
-7.94339
-7.56893
-7.2047
-6.85182
-6.51103
-6.18273
-5.86697
-5.56345
-5.27155
-4.99039
-4.71887
-4.45572
-4.1996
-3.94913
-3.70302
-3.46013
-3.21958
-2.98079
-2.74357
-2.50816
-2.27527
-2.04603
-1.82199
-1.605
-1.39709
-1.20035
-1.01677
-0.848033
-0.695464
-0.559868
-0.441519
-0.340142
-0.255003
-0.184941
-0.128597
-0.0842849
-0.0506185
-0.0255221
-0.00853511
0.00378568
0.00824063
0.0148371
0.00583867
0.0200564
-0.0204709
-14.6995
-14.739
-14.7743
-14.8054
-14.8345
-14.8633
-14.8939
-14.9272
-14.9641
-15.005
-15.05
-15.0985
-15.1496
-15.2019
-15.2541
-15.3045
-15.3519
-15.3947
-15.4319
-15.4623
-15.4852
-15.4996
-15.5049
-15.5005
-15.4858
-15.4602
-15.4232
-15.374
-15.3121
-15.2368
-15.1473
-15.043
-14.923
-14.7868
-14.6337
-14.4631
-14.2744
-14.0672
-13.8415
-13.5969
-13.3338
-13.0524
-12.7533
-12.4375
-12.1059
-11.76
-11.4013
-11.0318
-10.6535
-10.2684
-9.87901
-9.48752
-9.09627
-8.70749
-8.32329
-7.94559
-7.57604
-7.21605
-6.8667
-6.52875
-6.20261
-5.88834
-5.58572
-5.29419
-5.01296
-4.74102
-4.47721
-4.2203
-3.96902
-3.72219
-3.47877
-3.23794
-2.99921
-2.7624
-2.52778
-2.29601
-2.06819
-1.84577
-1.63048
-1.42426
-1.22905
-1.04671
-0.878854
-0.726712
-0.591055
-0.472149
-0.36975
-0.283175
-0.211332
-0.152942
-0.106391
-0.0703777
-0.042853
-0.0234718
-0.0086745
-0.00199871
0.00722408
-0.000145365
0.0176023
-0.0234431
-14.6837
-14.7202
-14.7542
-14.7856
-14.8158
-14.8456
-14.8761
-14.9083
-14.9434
-14.9816
-15.0232
-15.0675
-15.1139
-15.1613
-15.2082
-15.2535
-15.2957
-15.3336
-15.3662
-15.3922
-15.411
-15.4217
-15.4235
-15.4159
-15.3982
-15.3699
-15.3303
-15.2789
-15.2149
-15.1378
-15.0469
-14.9414
-14.8206
-14.6841
-14.531
-14.3608
-14.1732
-13.9677
-13.7441
-13.5024
-13.2427
-12.9653
-12.6709
-12.3603
-12.0345
-11.6948
-11.3428
-10.9803
-10.6091
-10.2313
-9.84903
-9.46459
-9.08015
-8.69782
-8.31961
-7.94735
-7.58266
-7.22688
-6.88106
-6.54596
-6.222
-5.90928
-5.60762
-5.31655
-5.03534
-4.76308
-4.49872
-4.24111
-3.98912
-3.74165
-3.49777
-3.25673
-3.01809
-2.78172
-2.54789
-2.31725
-2.09082
-1.86999
-1.65638
-1.45181
-1.25809
-1.07698
-0.909989
-0.758268
-0.622553
-0.503103
-0.399697
-0.311703
-0.238094
-0.177668
-0.12888
-0.0905117
-0.0605428
-0.0387411
-0.0214358
-0.0124959
-0.000606494
-0.00628847
0.0150389
-0.0264709
-14.6679
-14.7018
-14.7341
-14.7647
-14.7942
-14.8235
-14.8534
-14.8848
-14.9185
-14.9547
-14.9934
-15.0343
-15.0766
-15.1193
-15.1615
-15.2019
-15.2392
-15.2724
-15.3004
-15.3222
-15.337
-15.344
-15.3424
-15.3316
-15.311
-15.2799
-15.2379
-15.1842
-15.1183
-15.0395
-14.9471
-14.8405
-14.7191
-14.5821
-14.4292
-14.2596
-14.073
-13.8692
-13.6478
-13.4089
-13.1526
-12.8793
-12.5895
-12.284
-11.9639
-11.6304
-11.2849
-10.9291
-10.5649
-10.1942
-9.819
-9.44149
-9.06372
-8.68772
-8.31541
-7.94854
-7.58865
-7.23705
-6.89476
-6.56253
-6.24079
-5.92969
-5.62907
-5.33854
-5.05744
-4.78497
-4.52015
-4.26196
-4.00936
-3.76134
-3.51707
-3.27588
-3.03739
-2.80149
-2.56847
-2.33895
-2.11391
-1.89464
-1.68268
-1.47972
-1.28747
-1.10757
-0.941417
-0.790112
-0.654342
-0.534359
-0.429963
-0.340567
-0.265207
-0.202756
-0.151734
-0.111005
-0.0785779
-0.0543307
-0.0344877
-0.0232414
-0.00864615
-0.0125834
0.012374
-0.0295523
-14.6518
-14.6835
-14.7143
-14.744
-14.7729
-14.8016
-14.8309
-14.8612
-14.8932
-14.9271
-14.9629
-15.0002
-15.0384
-15.0768
-15.1143
-15.15
-15.1826
-15.2113
-15.2349
-15.2525
-15.2634
-15.2667
-15.2617
-15.2477
-15.2242
-15.1905
-15.146
-15.0902
-15.0223
-14.9418
-14.8481
-14.7405
-14.6183
-14.4811
-14.3283
-14.1594
-13.9739
-13.7717
-13.5526
-13.3165
-13.0636
-12.7942
-12.509
-12.2086
-11.8941
-11.5665
-11.2274
-10.8783
-10.5209
-10.1571
-9.78885
-9.41812
-9.0469
-8.67713
-8.31062
-7.94906
-7.59393
-7.24649
-6.90773
-6.5784
-6.25893
-5.9495
-5.65001
-5.3601
-5.07923
-4.80664
-4.54149
-4.28282
-4.0297
-3.78123
-3.53665
-3.29538
-3.05708
-2.8217
-2.5895
-2.3611
-2.13743
-1.9197
-1.70936
-1.50798
-1.31717
-1.13844
-0.973121
-0.822224
-0.686402
-0.565897
-0.460526
-0.369747
-0.292653
-0.228187
-0.174937
-0.131843
-0.096944
-0.070228
-0.0478189
-0.0342251
-0.0168859
-0.0190225
0.00961538
-0.0326853
-14.6355
-14.6653
-14.6945
-14.723
-14.751
-14.7788
-14.807
-14.836
-14.8662
-14.8978
-14.9308
-14.9647
-14.9992
-15.0334
-15.0666
-15.0978
-15.1259
-15.1502
-15.1695
-15.1831
-15.1901
-15.1898
-15.1814
-15.1644
-15.138
-15.1017
-15.0548
-14.9968
-14.927
-14.8449
-14.7499
-14.6412
-14.5185
-14.381
-14.2284
-14.0601
-13.8759
-13.6753
-13.4584
-13.2251
-12.9756
-12.7101
-12.4294
-12.134
-11.8249
-11.5032
-11.1703
-10.8277
-10.477
-10.12
-9.75852
-9.39443
-9.02964
-8.66599
-8.3052
-7.94889
-7.59847
-7.25516
-6.91994
-6.59352
-6.27637
-5.96868
-5.67039
-5.38121
-5.10066
-4.82808
-4.56269
-4.30365
-4.05011
-3.80129
-3.55649
-3.31521
-3.07715
-2.84231
-2.61096
-2.38368
-2.16137
-1.94516
-1.73641
-1.53658
-1.34717
-1.16959
-1.00508
-0.854583
-0.718712
-0.597695
-0.491366
-0.399223
-0.320411
-0.253944
-0.19847
-0.153007
-0.115627
-0.0864197
-0.0614176
-0.0454361
-0.0253161
-0.0255976
0.00677068
-0.0358671
-14.6189
-14.6469
-14.6746
-14.7018
-14.7287
-14.7554
-14.7824
-14.8099
-14.8383
-14.8675
-14.8977
-14.9284
-14.9592
-14.9894
-15.0184
-15.0453
-15.0692
-15.0892
-15.1044
-15.1141
-15.1173
-15.1135
-15.1018
-15.0816
-15.0524
-15.0135
-14.9642
-14.9041
-14.8325
-14.7488
-14.6525
-14.5429
-14.4196
-14.282
-14.1296
-13.962
-13.7789
-13.58
-13.3653
-13.1348
-12.8885
-12.627
-12.3506
-12.0601
-11.7563
-11.4405
-11.1137
-10.7774
-10.4333
-10.0829
-9.72799
-9.37041
-9.01192
-8.65427
-8.29911
-7.94798
-7.60223
-7.26303
-6.93135
-6.60787
-6.29309
-5.9872
-5.69019
-5.40184
-5.12172
-4.84924
-4.58373
-4.32443
-4.07059
-3.8215
-3.57657
-3.33534
-3.09758
-2.86331
-2.63282
-2.40667
-2.1857
-1.97099
-1.76379
-1.56548
-1.37744
-1.20099
-1.03727
-0.887168
-0.75125
-0.629732
-0.522462
-0.428972
-0.348461
-0.280006
-0.222316
-0.174483
-0.13461
-0.102892
-0.0752714
-0.0568632
-0.033927
-0.0322999
0.00384723
-0.0390941
-14.6019
-14.6283
-14.6545
-14.6803
-14.7059
-14.7314
-14.7569
-14.7828
-14.8092
-14.8362
-14.8635
-14.8911
-14.9184
-14.9449
-14.9699
-14.9927
-15.0125
-15.0284
-15.0396
-15.0454
-15.045
-15.0377
-15.0227
-14.9996
-14.9675
-14.926
-14.8745
-14.8123
-14.7388
-14.6536
-14.5561
-14.4456
-14.3217
-14.184
-14.0318
-13.8649
-13.683
-13.4859
-13.2734
-13.0455
-12.8026
-12.5448
-12.2727
-11.987
-11.6885
-11.3782
-11.0574
-10.7274
-10.3896
-10.0457
-9.69726
-9.34604
-8.99373
-8.64197
-8.29235
-7.94632
-7.60519
-7.27009
-6.94194
-6.62143
-6.30905
-6.00503
-5.7094
-5.42196
-5.14237
-4.87011
-4.60459
-4.34514
-4.0911
-3.84185
-3.59685
-3.35574
-3.11834
-2.88468
-2.65507
-2.43004
-2.2104
-1.99716
-1.79148
-1.59465
-1.40796
-1.23261
-1.06967
-0.919954
-0.783992
-0.661986
-0.553791
-0.458975
-0.376784
-0.306354
-0.246457
-0.196253
-0.15388
-0.11963
-0.0893679
-0.0684948
-0.0427085
-0.0391202
0.000852029
-0.0423623
-14.5847
-14.6095
-14.6341
-14.6586
-14.6827
-14.7068
-14.7308
-14.755
-14.7793
-14.8039
-14.8286
-14.8531
-14.877
-14.8999
-14.9211
-14.94
-14.9558
-14.9678
-14.9752
-14.9772
-14.9732
-14.9625
-14.9444
-14.9183
-14.8835
-14.8394
-14.7856
-14.7214
-14.6462
-14.5595
-14.4607
-14.3494
-14.225
-14.0871
-13.9353
-13.7691
-13.5884
-13.3929
-13.1826
-12.9575
-12.7177
-12.4637
-12.1958
-11.9147
-11.6213
-11.3166
-11.0016
-10.6776
-10.346
-10.0084
-9.66633
-9.32133
-8.97506
-8.62908
-8.2849
-7.9439
-7.60734
-7.2763
-6.95169
-6.63418
-6.32425
-6.02217
-5.72798
-5.44155
-5.16259
-4.89067
-4.62525
-4.36576
-4.11162
-3.86229
-3.61732
-3.3764
-3.1394
-2.90638
-2.67766
-2.45376
-2.23544
-2.02364
-1.81946
-1.62408
-1.4387
-1.26443
-1.10225
-0.952918
-0.816917
-0.694434
-0.585334
-0.489211
-0.405359
-0.332971
-0.270875
-0.218301
-0.173421
-0.136621
-0.103694
-0.0803187
-0.0516504
-0.046049
-0.00220837
-0.0456664
-14.5671
-14.5904
-14.6135
-14.6364
-14.6591
-14.6816
-14.704
-14.7264
-14.7487
-14.7709
-14.7929
-14.8144
-14.8351
-14.8545
-14.8721
-14.8873
-14.8993
-14.9075
-14.9111
-14.9096
-14.9021
-14.8881
-14.8669
-14.8378
-14.8003
-14.7538
-14.6977
-14.6315
-14.5546
-14.4664
-14.3665
-14.2544
-14.1295
-13.9915
-13.84
-13.6746
-13.4951
-13.3012
-13.0931
-12.8706
-12.634
-12.3836
-12.1198
-11.8434
-11.5549
-11.2555
-10.9462
-10.6281
-10.3026
-9.97115
-9.6352
-9.29628
-8.95592
-8.6156
-8.27676
-7.94071
-7.60867
-7.28168
-6.96059
-6.6461
-6.33866
-6.03857
-5.74591
-5.46059
-5.18237
-4.91088
-4.64567
-4.38625
-4.13211
-3.8828
-3.63793
-3.39727
-3.16071
-2.92838
-2.70056
-2.47779
-2.26077
-2.0504
-1.84769
-1.65373
-1.46963
-1.29642
-1.13499
-0.986035
-0.850001
-0.727055
-0.617067
-0.51966
-0.434167
-0.359837
-0.295553
-0.24061
-0.193216
-0.153849
-0.118237
-0.0923224
-0.0607423
-0.0530756
-0.0053279
-0.0490001
-14.5492
-14.5709
-14.5926
-14.614
-14.6351
-14.656
-14.6767
-14.6971
-14.7173
-14.7372
-14.7566
-14.7753
-14.7928
-14.8089
-14.823
-14.8346
-14.8429
-14.8475
-14.8476
-14.8425
-14.8317
-14.8145
-14.7902
-14.7583
-14.7181
-14.6692
-14.6109
-14.5428
-14.4641
-14.3746
-14.2736
-14.1607
-14.0354
-13.8973
-13.7461
-13.5815
-13.4031
-13.2109
-13.0049
-12.785
-12.5515
-12.3046
-12.0449
-11.7729
-11.4893
-11.1951
-10.8913
-10.5789
-10.2593
-9.93386
-9.60391
-9.27091
-8.93631
-8.60153
-8.26793
-7.93676
-7.60918
-7.2862
-6.96864
-6.65717
-6.35227
-6.05424
-5.76318
-5.47905
-5.20167
-4.93072
-4.66584
-4.40659
-4.15255
-3.90334
-3.65866
-3.41831
-3.18225
-2.95062
-2.72373
-2.50208
-2.28636
-2.07739
-1.87612
-1.68356
-1.50072
-1.32855
-1.16786
-1.01928
-0.88322
-0.759826
-0.648971
-0.550301
-0.463189
-0.386934
-0.320472
-0.263163
-0.213251
-0.1713
-0.132983
-0.104493
-0.0699741
-0.0601892
-0.00850106
-0.0523557
-14.5309
-14.5512
-14.5713
-14.5912
-14.6107
-14.63
-14.6489
-14.6674
-14.6855
-14.703
-14.7198
-14.7357
-14.7503
-14.7632
-14.7739
-14.782
-14.7869
-14.788
-14.7846
-14.7762
-14.7621
-14.7417
-14.7145
-14.6798
-14.6371
-14.5858
-14.5254
-14.4553
-14.375
-14.2841
-14.1821
-14.0684
-13.9427
-13.8046
-13.6537
-13.4898
-13.3126
-13.1221
-12.9181
-12.7008
-12.4703
-12.2269
-11.9711
-11.7034
-11.4245
-11.1354
-10.8369
-10.5301
-10.2162
-9.89659
-9.57247
-9.24524
-8.91627
-8.5869
-8.25842
-7.93205
-7.60887
-7.28986
-6.97582
-6.66739
-6.36507
-6.06915
-5.77977
-5.49692
-5.22047
-4.95017
-4.68571
-4.42674
-4.1729
-3.92388
-3.67945
-3.43948
-3.20396
-2.97307
-2.74712
-2.5266
-2.31216
-2.10457
-1.90473
-1.71354
-1.53194
-1.36078
-1.20082
-1.05263
-0.91655
-0.792725
-0.681025
-0.581116
-0.492406
-0.414244
-0.345618
-0.285944
-0.233511
-0.188959
-0.14792
-0.116818
-0.079336
-0.0673775
-0.011723
-0.0557237
-14.5124
-14.5312
-14.5498
-14.5681
-14.586
-14.6036
-14.6207
-14.6373