/*--------------------------------*- C++ -*----------------------------------*\
| =========                 |                                                 |
| \\      /  F ield         | OpenFOAM: The Open Source CFD Toolbox           |
|  \\    /   O peration     | Version:  2.1.1                                 |
|   \\  /    A nd           | Web:      www.OpenFOAM.org                      |
|    \\/     M anipulation  |                                                 |
\*---------------------------------------------------------------------------*/
FoamFile
{
    version     2.0;
    format      ascii;
    class       surfaceScalarField;
    location    "0.13";
    object      phi;
}
// * * * * * * * * * * * * * * * * * * * * * * * * * * * * * * * * * * * * * //

dimensions      [0 3 -1 0 0 0 0];

internalField   nonuniform List<scalar> 
13452
(
6.89923e-05
-5.05055e-07
6.88137e-05
1.78654e-07
6.82024e-05
6.11257e-07
6.72552e-05
9.4724e-07
6.61788e-05
1.07632e-06
6.50876e-05
1.09123e-06
6.40232e-05
1.06437e-06
6.3003e-05
1.0202e-06
6.20354e-05
9.67657e-07
6.11237e-05
9.11656e-07
6.02691e-05
8.54607e-07
5.94712e-05
7.97961e-07
5.87285e-05
7.42663e-07
5.80391e-05
6.89377e-07
5.74006e-05
6.38547e-07
5.68101e-05
5.90455e-07
5.62649e-05
5.45253e-07
5.57619e-05
5.02998e-07
5.52982e-05
4.6367e-07
5.4871e-05
4.27202e-07
5.44775e-05
3.93497e-07
5.41151e-05
3.62442e-07
5.37811e-05
3.33933e-07
5.34732e-05
3.07893e-07
5.31889e-05
2.84306e-07
5.29257e-05
2.6327e-07
5.26806e-05
2.45099e-07
5.24499e-05
2.30642e-07
5.22285e-05
2.21437e-07
5.20058e-05
2.22659e-07
5.17637e-05
2.42103e-07
5.1453e-05
3.10698e-07
4.99627e-07
5.09534e-05
7.0165e-05
-2.26064e-07
7.00411e-05
3.02466e-07
7.01818e-05
4.70617e-07
7.05091e-05
6.199e-07
7.08597e-05
7.25759e-07
7.11587e-05
7.92233e-07
7.13835e-05
8.39572e-07
7.15358e-05
8.67921e-07
7.16234e-05
8.79975e-07
7.16554e-05
8.79712e-07
7.16399e-05
8.70079e-07
7.15845e-05
8.53404e-07
7.14956e-05
8.31492e-07
7.13792e-05
8.05809e-07
7.12402e-05
7.77529e-07
7.10831e-05
7.4759e-07
7.09116e-05
7.16738e-07
7.07291e-05
6.8556e-07
7.05382e-05
6.54512e-07
7.03415e-05
6.23943e-07
7.01408e-05
5.94121e-07
6.9938e-05
5.65254e-07
6.97345e-05
5.37518e-07
6.95313e-05
5.11072e-07
6.93295e-05
4.86113e-07
6.91298e-05
4.62887e-07
6.89331e-05
4.41869e-07
6.87401e-05
4.23638e-07
6.85516e-05
4.09895e-07
6.83729e-05
4.01382e-07
6.82098e-05
4.05211e-07
6.81112e-05
4.09273e-07
4.4156e-07
6.81693e-05
7.22816e-05
-5.11617e-08
7.23968e-05
1.8726e-07
7.25018e-05
3.65699e-07
7.25884e-05
5.33217e-07
7.26719e-05
6.42284e-07
7.27542e-05
7.09964e-07
7.28406e-05
7.53141e-07
7.29277e-05
7.8087e-07
7.30113e-05
7.96326e-07
7.3089e-05
8.02058e-07
7.3159e-05
8.0002e-07
7.32206e-05
7.91784e-07
7.32735e-05
7.78626e-07
7.33177e-05
7.61663e-07
7.33534e-05
7.41837e-07
7.3381e-05
7.19932e-07
7.34011e-05
6.96602e-07
7.34143e-05
6.72378e-07
7.34211e-05
6.47691e-07
7.34222e-05
6.2289e-07
7.34181e-05
5.98255e-07
7.34093e-05
5.7402e-07
7.33964e-05
5.50393e-07
7.33799e-05
5.27571e-07
7.33603e-05
5.05783e-07
7.33378e-05
4.85303e-07
7.33131e-05
4.66584e-07
7.32867e-05
4.50104e-07
7.32594e-05
4.37144e-07
7.3233e-05
4.27745e-07
7.32116e-05
4.26639e-07
7.31971e-05
4.23769e-07
4.46025e-07
7.31927e-05
7.45185e-05
-4.30481e-08
7.44882e-05
2.17539e-07
7.44769e-05
3.77077e-07
7.45165e-05
4.93531e-07
7.4577e-05
5.81845e-07
7.46435e-05
6.43421e-07
7.47096e-05
6.87033e-07
7.47738e-05
7.16736e-07
7.48356e-05
7.34483e-07
7.4895e-05
7.42639e-07
7.49518e-05
7.43228e-07
7.50058e-05
7.37807e-07
7.50568e-05
7.2762e-07
7.51047e-05
7.13723e-07
7.51496e-05
6.96994e-07
7.51914e-05
6.78157e-07
7.52302e-05
6.57812e-07
7.52661e-05
6.3645e-07
7.52993e-05
6.14475e-07
7.533e-05
5.92213e-07
7.53583e-05
5.69934e-07
7.53844e-05
5.47866e-07
7.54086e-05
5.26211e-07
7.5431e-05
5.05163e-07
7.54519e-05
4.8494e-07
7.54714e-05
4.65781e-07
7.54899e-05
4.48046e-07
7.5508e-05
4.32057e-07
7.55266e-05
4.18561e-07
7.5547e-05
4.07293e-07
7.55738e-05
3.99875e-07
7.56076e-05
3.89912e-07
3.81809e-07
7.56719e-05
7.66036e-05
9.24308e-09
7.66283e-05
1.92807e-07
7.66648e-05
3.40547e-07
7.67031e-05
4.55265e-07
7.67416e-05
5.43305e-07
7.67814e-05
6.0368e-07
7.68236e-05
6.44852e-07
7.68678e-05
6.72527e-07
7.69129e-05
6.89306e-07
7.69582e-05
6.97335e-07
7.70031e-05
6.98378e-07
7.70471e-05
6.93805e-07
7.709e-05
6.84734e-07
7.71316e-05
6.72124e-07
7.71718e-05
6.56778e-07
7.72106e-05
6.39367e-07
7.7248e-05
6.20447e-07
7.72839e-05
6.00479e-07
7.73186e-05
5.79839e-07
7.73519e-05
5.58837e-07
7.73841e-05
5.37729e-07
7.74153e-05
5.16731e-07
7.74455e-05
4.96034e-07
7.74748e-05
4.75815e-07
7.75035e-05
4.56262e-07
7.75317e-05
4.37566e-07
7.75598e-05
4.19975e-07
7.75882e-05
4.03656e-07
7.76178e-05
3.88944e-07
7.76497e-05
3.7537e-07
7.76864e-05
3.63226e-07
7.7728e-05
3.48224e-07
3.31527e-07
7.77783e-05
7.88312e-05
2.39681e-08
7.88389e-05
1.85121e-07
7.88571e-05
3.22297e-07
7.88861e-05
4.26264e-07
7.89226e-05
5.06792e-07
7.8962e-05
5.64285e-07
7.90024e-05
6.04458e-07
7.90431e-05
6.31824e-07
7.90838e-05
6.48675e-07
7.91241e-05
6.56984e-07
7.9164e-05
6.5847e-07
7.92033e-05
6.54486e-07
7.92419e-05
6.46128e-07
7.92798e-05
6.34317e-07
7.93167e-05
6.19823e-07
7.93528e-05
6.03286e-07
7.9388e-05
5.85236e-07
7.94224e-05
5.66111e-07
7.94559e-05
5.4627e-07
7.94888e-05
5.26008e-07
7.95209e-05
5.05568e-07
7.95525e-05
4.85155e-07
7.95836e-05
4.64946e-07
7.96143e-05
4.45097e-07
7.96448e-05
4.25761e-07
7.96753e-05
4.07075e-07
7.97061e-05
3.8918e-07
7.97376e-05
3.72121e-07
7.97706e-05
3.55943e-07
7.98059e-05
3.40115e-07
7.98449e-05
3.24253e-07
7.98875e-05
3.05594e-07
2.83544e-07
7.99355e-05
8.10848e-05
3.77465e-08
8.10948e-05
1.75061e-07
8.11184e-05
2.98698e-07
8.11493e-05
3.95421e-07
8.11841e-05
4.71916e-07
8.12204e-05
5.28036e-07
8.12573e-05
5.67553e-07
8.12947e-05
5.94472e-07
8.13322e-05
6.11174e-07
8.13695e-05
6.19591e-07
8.14066e-05
6.21374e-07
8.14433e-05
6.17829e-07
8.14794e-05
6.1001e-07
8.15149e-05
5.98802e-07
8.15498e-05
5.84944e-07
8.1584e-05
5.6905e-07
8.16177e-05
5.51627e-07
8.16507e-05
5.33097e-07
8.16831e-05
5.13804e-07
8.17151e-05
4.94032e-07
8.17467e-05
4.74012e-07
8.17779e-05
4.53936e-07
8.18089e-05
4.33967e-07
8.18397e-05
4.14239e-07
8.18706e-05
3.9487e-07
8.19017e-05
3.75947e-07
8.19334e-05
3.57528e-07
8.1966e-05
3.39567e-07
8.19999e-05
3.21945e-07
8.20359e-05
3.0414e-07
8.20746e-05
2.85569e-07
8.21157e-05
2.64452e-07
2.39979e-07
8.21593e-05
8.34101e-05
4.31739e-08
8.34201e-05
1.65049e-07
8.34411e-05
2.77734e-07
8.34688e-05
3.67705e-07
8.35014e-05
4.39317e-07
8.35365e-05
4.9298e-07
8.35726e-05
5.31385e-07
8.36093e-05
5.57837e-07
8.36459e-05
5.74514e-07
8.36823e-05
5.83169e-07
8.37184e-05
5.85338e-07
8.37539e-05
5.82272e-07
8.3789e-05
5.74993e-07
8.38234e-05
5.64356e-07
8.38573e-05
5.51076e-07
8.38906e-05
5.35748e-07
8.39233e-05
5.18864e-07
8.39556e-05
5.00829e-07
8.39874e-05
4.81977e-07
8.40189e-05
4.62581e-07
8.405e-05
4.42864e-07
8.4081e-05
4.23005e-07
8.41118e-05
4.0315e-07
8.41426e-05
3.83416e-07
8.41736e-05
3.63888e-07
8.42049e-05
3.44613e-07
8.42369e-05
3.25591e-07
8.42697e-05
3.06723e-07
8.43038e-05
2.87813e-07
8.43396e-05
2.68394e-07
8.43773e-05
2.47895e-07
8.44165e-05
2.25176e-07
1.99587e-07
8.44569e-05
8.57964e-05
4.55414e-08
8.58063e-05
1.5512e-07
8.58267e-05
2.57372e-07
8.58536e-05
3.40764e-07
8.58851e-05
4.07763e-07
8.59192e-05
4.58938e-07
8.59544e-05
4.96136e-07
8.59903e-05
5.22008e-07
8.60262e-05
5.38534e-07
8.60621e-05
5.47329e-07
8.60976e-05
5.49821e-07
8.61327e-05
5.47194e-07
8.61672e-05
5.40424e-07
8.62013e-05
5.30331e-07
8.62347e-05
5.17602e-07
8.62677e-05
5.02808e-07
8.63001e-05
4.86425e-07
8.63321e-05
4.68845e-07
8.63637e-05
4.5039e-07
8.6395e-05
4.31322e-07
8.6426e-05
4.11855e-07
8.64568e-05
3.92156e-07
8.64876e-05
3.7236e-07
8.65185e-05
3.52564e-07
8.65495e-05
3.32829e-07
8.6581e-05
3.13174e-07
8.6613e-05
2.93564e-07
8.66458e-05
2.73875e-07
8.66797e-05
2.53895e-07
8.67149e-05
2.33236e-07
8.67514e-05
2.11426e-07
8.67888e-05
1.87746e-07
1.61781e-07
8.68266e-05
8.82501e-05
4.54399e-08
8.82602e-05
1.45008e-07
8.82796e-05
2.37973e-07
8.83052e-05
3.15178e-07
8.83353e-05
3.77673e-07
8.83682e-05
4.26071e-07
8.84026e-05
4.61726e-07
8.84378e-05
4.86771e-07
8.84734e-05
5.02967e-07
8.85089e-05
5.11779e-07
8.85442e-05
5.14509e-07
8.85792e-05
5.12261e-07
8.86136e-05
5.05955e-07
8.86476e-05
4.96371e-07
8.8681e-05
4.84163e-07
8.8714e-05
4.69879e-07
8.87464e-05
4.53976e-07
8.87784e-05
4.3683e-07
8.88101e-05
4.18752e-07
8.88414e-05
3.99993e-07
8.88725e-05
3.80756e-07
8.89034e-05
3.612e-07
8.89344e-05
3.41447e-07
8.89653e-05
3.21578e-07
8.89965e-05
3.01641e-07
8.90281e-05
2.81634e-07
8.90601e-05
2.61507e-07
8.90929e-05
2.41136e-07
8.91264e-05
2.20325e-07
8.91609e-05
1.98771e-07
8.91962e-05
1.76121e-07
8.9232e-05
1.51933e-07
1.25988e-07
8.92678e-05
9.07728e-05
4.39617e-08
9.07829e-05
1.34928e-07
9.08014e-05
2.19478e-07
9.08258e-05
2.90701e-07
9.08547e-05
3.4877e-07
9.08866e-05
3.94245e-07
9.09201e-05
4.28152e-07
9.09547e-05
4.52184e-07
9.09898e-05
4.6788e-07
9.1025e-05
4.76558e-07
9.10601e-05
4.794e-07
9.1095e-05
4.77428e-07
9.11294e-05
4.71506e-07
9.11634e-05
4.62367e-07
9.1197e-05
4.50631e-07
9.123e-05
4.36819e-07
9.12626e-05
4.21366e-07
9.12948e-05
4.04632e-07
9.13267e-05
3.86914e-07
9.13582e-05
3.68453e-07
9.13895e-05
3.49441e-07
9.14207e-05
3.30027e-07
9.14518e-05
3.10322e-07
9.1483e-05
2.90399e-07
9.15144e-05
2.70293e-07
9.1546e-05
2.49997e-07
9.1578e-05
2.29457e-07
9.16106e-05
2.08564e-07
9.16438e-05
1.87156e-07
9.16775e-05
1.65008e-07
9.17118e-05
1.41878e-07
9.17462e-05
1.17507e-07
9.18127e-08
9.17804e-05
9.3367e-05
4.16519e-08
9.3377e-05
1.24901e-07
9.33947e-05
2.01807e-07
9.34181e-05
2.67294e-07
9.34458e-05
3.21042e-07
9.34765e-05
3.63499e-07
9.35092e-05
3.95467e-07
9.35431e-05
4.18295e-07
9.35777e-05
4.33313e-07
9.36125e-05
4.417e-07
9.36474e-05
4.44522e-07
9.36821e-05
4.42716e-07
9.37165e-05
4.37086e-07
9.37506e-05
4.28317e-07
9.37842e-05
4.16992e-07
9.38175e-05
4.03603e-07
9.38503e-05
3.88563e-07
9.38827e-05
3.72214e-07
9.39147e-05
3.54838e-07
9.39465e-05
3.36664e-07
9.39781e-05
3.17874e-07
9.40095e-05
2.98608e-07
9.40409e-05
2.7897e-07
9.40722e-05
2.59026e-07
9.41037e-05
2.38805e-07
9.41354e-05
2.183e-07
9.41674e-05
1.97465e-07
9.41998e-05
1.76212e-07
9.42325e-05
1.54419e-07
9.42656e-05
1.31931e-07
9.42989e-05
1.08595e-07
9.43321e-05
8.42714e-08
5.89661e-08
9.4365e-05
9.60348e-05
3.88921e-08
9.60447e-05
1.15017e-07
9.60616e-05
1.84907e-07
9.6084e-05
2.44884e-07
9.61107e-05
2.944e-07
9.61404e-05
3.33778e-07
9.61722e-05
3.63661e-07
9.62054e-05
3.85127e-07
9.62394e-05
3.99313e-07
9.62738e-05
4.07265e-07
9.63084e-05
4.09938e-07
9.63429e-05
4.08188e-07
9.63773e-05
4.02753e-07
9.64113e-05
3.94273e-07
9.6445e-05
3.83292e-07
9.64783e-05
3.70273e-07
9.65113e-05
3.55604e-07
9.65439e-05
3.39609e-07
9.65762e-05
3.22554e-07
9.66082e-05
3.04657e-07
9.664e-05
2.86089e-07
9.66716e-05
2.66984e-07
9.67031e-05
2.47437e-07
9.67346e-05
2.27513e-07
9.67662e-05
2.07239e-07
9.67979e-05
1.86613e-07
9.68298e-05
1.65602e-07
9.68618e-05
1.44144e-07
9.68941e-05
1.22153e-07
9.69265e-05
9.95343e-08
9.69589e-05
7.62003e-08
9.69911e-05
5.209e-08
2.72611e-08
9.70228e-05
9.87787e-05
3.59104e-08
9.87884e-05
1.05326e-07
9.88046e-05
1.68713e-07
9.88261e-05
2.23402e-07
9.88517e-05
2.68776e-07
9.88804e-05
3.05047e-07
9.89114e-05
3.32732e-07
9.89438e-05
3.52698e-07
9.89772e-05
3.65913e-07
9.90112e-05
3.73295e-07
9.90454e-05
3.75699e-07
9.90797e-05
3.73896e-07
9.91139e-05
3.68565e-07
9.91479e-05
3.60296e-07
9.91816e-05
3.49594e-07
9.92149e-05
3.36891e-07
9.9248e-05
3.22551e-07
9.92807e-05
3.0688e-07
9.93131e-05
2.90127e-07
9.93453e-05
2.72498e-07
9.93772e-05
2.54157e-07
9.9409e-05
2.35228e-07
9.94406e-05
2.15804e-07
9.94722e-05
1.95946e-07
9.95037e-05
1.75686e-07
9.95353e-05
1.5503e-07
9.9567e-05
1.33959e-07
9.95987e-05
1.12435e-07
9.96304e-05
9.0409e-08
9.96621e-05
6.7828e-08
9.96937e-05
4.46555e-08
9.97249e-05
2.08796e-08
-3.41445e-09
9.97556e-05
0.000101601
3.28467e-08
0.00010161
9.58739e-08
0.000101626
1.53172e-07
0.000101646
2.0278e-07
0.000101671
2.44101e-07
0.000101699
2.77254e-07
0.000101729
3.02655e-07
0.000101761
3.21008e-07
0.000101793
3.33129e-07
0.000101827
3.39822e-07
0.000101861
3.41844e-07
0.000101895
3.3989e-07
0.000101929
3.34576e-07
0.000101963
3.26443e-07
0.000101996
3.15958e-07
0.00010203
3.03521e-07
0.000102063
2.89474e-07
0.000102095
2.74099e-07
0.000102128
2.57633e-07
0.00010216
2.40269e-07
0.000102192
2.22162e-07
0.000102224
2.03431e-07
0.000102256
1.84165e-07
0.000102287
1.64425e-07
0.000102319
1.4425e-07
0.00010235
1.23652e-07
0.000102381
1.0263e-07
0.000102413
8.11674e-08
0.000102444
5.92428e-08
0.000102475
3.68382e-08
0.000102505
1.39514e-08
0.000102536
-9.3989e-09
-3.31145e-08
0.000102565
0.000104503
2.97831e-08
0.000104513
8.66852e-08
0.000104528
1.38235e-07
0.000104547
1.82956e-07
0.000104571
2.2031e-07
0.000104598
2.50348e-07
0.000104627
2.73404e-07
0.000104658
2.90048e-07
0.00010469
3.00971e-07
0.000104723
3.06867e-07
0.000104757
3.08407e-07
0.000104791
3.06209e-07
0.000104824
3.00831e-07
0.000104858
2.92765e-07
0.000104892
2.82441e-07
0.000104925
2.70227e-07
0.000104958
2.56437e-07
0.000104991
2.41338e-07
0.000105023
2.25149e-07
0.000105055
2.08052e-07
0.000105087
1.90193e-07
0.000105119
1.71686e-07
0.000105151
1.52618e-07
0.000105182
1.33053e-07
0.000105213
1.13032e-07
0.000105244
9.25805e-08
0.000105275
7.17084e-08
0.000105306
5.04192e-08
0.000105336
2.87145e-08
0.000105367
6.60076e-09
0.000105397
-1.59009e-08
0.000105426
-3.87535e-08
-6.18545e-08
0.000105455
0.000107489
2.67659e-08
0.000107498
7.7774e-08
0.000107512
1.23857e-07
0.000107531
1.63869e-07
0.000107554
1.97342e-07
0.00010758
2.24279e-07
0.000107609
2.44943e-07
0.000107639
2.59803e-07
0.000107671
2.69435e-07
0.000107703
2.74441e-07
0.000107736
2.75408e-07
0.000107769
2.72884e-07
0.000107803
2.67369e-07
0.000107836
2.5931e-07
0.00010787
2.49095e-07
0.000107903
2.37064e-07
0.000107936
2.23506e-07
0.000107968
2.08666e-07
0.000108001
1.9275e-07
0.000108033
1.75927e-07
0.000108065
1.58334e-07
0.000108096
1.40083e-07
0.000108128
1.21259e-07
0.000108159
1.01926e-07
0.00010819
8.21313e-08
0.00010822
6.19084e-08
0.000108251
4.12804e-08
0.000108281
2.0266e-08
0.000108311
-1.11648e-09
0.00010834
-2.28426e-08
0.000108369
-4.48764e-08
0.000108398
-6.71706e-08
-8.96235e-08
0.000108426
0.00011056
2.38194e-08
0.000110568
6.91437e-08
0.000110582
1.09998e-07
0.000110601
1.45463e-07
0.000110623
1.75137e-07
0.000110648
1.98994e-07
0.000110676
2.17237e-07
0.000110705
2.3025e-07
0.000110736
2.38516e-07
0.000110768
2.4255e-07
0.000110801
2.42864e-07
0.000110834
2.3994e-07
0.000110867
2.34225e-07
0.0001109
2.26117e-07
0.000110933
2.15968e-07
0.000110966
2.04088e-07
0.000110999
1.90739e-07
0.000111031
1.76149e-07
0.000111064
1.60506e-07
0.000111096
1.43969e-07
0.000111127
1.26669e-07
0.000111159
1.0871e-07
0.00011119
9.01762e-08
0.000111221
7.11347e-08
0.000111251
5.16367e-08
0.000111281
3.17229e-08
0.000111311
1.14267e-08
0.000111341
-9.22183e-09
0.00011137
-3.01915e-08
0.000111398
-5.14461e-08
0.000111426
-7.29404e-08
0.000111454
-9.46222e-08
-1.16393e-07
0.000111481
0.000113718
2.09549e-08
0.000113727
6.07896e-08
0.00011374
9.66194e-08
0.000113758
1.27684e-07
0.000113779
1.53641e-07
0.000113804
1.74442e-07
0.000113831
1.90246e-07
0.00011386
2.01364e-07
0.00011389
2.08199e-07
0.000113921
2.11192e-07
0.000113954
2.10784e-07
0.000113986
2.07397e-07
0.000114019
2.01424e-07
0.000114052
1.93221e-07
0.000114085
1.83102e-07
0.000114117
1.71346e-07
0.00011415
1.58192e-07
0.000114182
1.43847e-07
0.000114214
1.28485e-07
0.000114246
1.12253e-07
0.000114277
9.52731e-08
0.000114308
7.76459e-08
0.000114339
5.94539e-08
0.00011437
4.07644e-08
0.0001144
2.16325e-08
0.000114429
2.10469e-09
0.000114458
-1.77781e-08
0.000114487
-3.79771e-08
0.000114515
-5.84525e-08
0.000114543
-7.91605e-08
0.00011457
-1.00051e-07
0.000114597
-1.2107e-07
-1.42122e-07
0.000114622
0.000116967
1.81757e-08
0.000116975
5.27018e-08
0.000116988
8.36862e-08
0.000117005
1.10483e-07
0.000117026
1.32799e-07
0.00011705
1.50573e-07
0.000117076
1.63927e-07
0.000117105
1.73113e-07
0.000117134
1.78466e-07
0.000117165
1.8036e-07
0.000117197
1.79171e-07
0.000117229
1.75267e-07
0.000117261
1.68989e-07
0.000117294
1.60652e-07
0.000117327
1.50534e-07
0.000117359
1.38884e-07
0.000117391
1.25917e-07
0.000117423
1.11819e-07
0.000117455
9.67507e-08
0.000117486
8.08465e-08
0.000117517
6.42205e-08
0.000117548
4.69685e-08
0.000117578
2.91706e-08
0.000117608
1.0894e-08
0.000117638
-7.80344e-09
0.000117667
-2.68714e-08
0.000117695
-4.62636e-08
0.000117723
-6.59355e-08
0.000117751
-8.58417e-08
0.000117777
-1.05934e-07
0.000117803
-1.26161e-07
0.000117829
-1.46467e-07
-1.66764e-07
0.000117853
0.000120309
1.54806e-08
0.000120317
4.48665e-08
0.000120329
7.11635e-08
0.000120346
9.38122e-08
0.000120366
1.12558e-07
0.000120389
1.27336e-07
0.000120415
1.38235e-07
0.000120443
1.45461e-07
0.000120472
1.49292e-07
0.000120502
1.50038e-07
0.000120533
1.48021e-07
0.000120565
1.43555e-07
0.000120597
1.36936e-07
0.000120629
1.28435e-07
0.000120661
1.18297e-07
0.000120694
1.06741e-07
0.000120726
9.39589e-08
0.000120757
8.0118e-08
0.000120789
6.53617e-08
0.00012082
4.98134e-08
0.00012085
3.3579e-08
0.000120881
1.67485e-08
0.00012091
-6.00812e-10
0.00012094
-1.84027e-08
0.000120968
-3.65983e-08
0.000120997
-5.51349e-08
0.000121024
-7.39631e-08
0.000121051
-9.30348e-08
0.000121078
-1.12302e-07
0.000121104
-1.31714e-07
0.000121129
-1.51218e-07
0.000121153
-1.70762e-07
-1.90262e-07
0.000121177
0.000123746
1.2866e-08
0.000123753
3.72679e-08
0.000123766
5.90183e-08
0.000123782
7.76252e-08
0.000123801
9.28669e-08
0.000123824
1.04678e-07
0.000123849
1.13123e-07
0.000123876
1.1837e-07
0.000123905
1.20645e-07
0.000123935
1.20207e-07
0.000123965
1.17324e-07
0.000123997
1.12262e-07
0.000124028
1.05272e-07
0.00012406
9.6586e-08
0.000124092
8.64157e-08
0.000124124
7.49512e-08
0.000124156
6.23595e-08
0.000124187
4.87903e-08
0.000124218
3.43706e-08
0.000124248
1.92116e-08
0.000124279
3.41053e-09
0.000124308
-1.29489e-08
0.000124338
-2.97933e-08
0.000124366
-4.70582e-08
0.000124394
-6.46852e-08
0.000124422
-8.26207e-08
0.000124449
-1.00814e-07
0.000124475
-1.19215e-07
0.0001245
-1.37776e-07
0.000124525
-1.56445e-07
0.000124549
-1.7517e-07
0.000124572
-1.93902e-07
-2.12561e-07
0.000124594
0.000127281
1.03266e-08
0.000127288
2.98883e-08
0.0001273
4.72171e-08
0.000127316
6.18755e-08
0.000127335
7.36724e-08
0.000127357
8.2543e-08
0.000127382
8.85374e-08
0.000127408
9.1791e-08
0.000127437
9.24874e-08
0.000127466
9.0837e-08
0.000127496
8.706e-08
0.000127527
8.13789e-08
0.000127558
7.39996e-08
0.00012759
6.51171e-08
0.000127621
5.49103e-08
0.000127653
4.35412e-08
0.000127684
3.11537e-08
0.000127715
1.78793e-08
0.000127745
3.82564e-09
0.000127776
-1.09062e-08
0.000127805
-2.62283e-08
0.000127834
-4.20643e-08
0.000127863
-5.83455e-08
0.000127891
-7.50103e-08
0.000127918
-9.2002e-08
0.000127945
-1.09268e-07
0.000127971
-1.26757e-07
0.000127996
-1.4442e-07
0.00012802
-1.62209e-07
0.000128044
-1.80073e-07
0.000128067
-1.97962e-07
0.000128089
-2.1583e-07
-2.33603e-07
0.00012811
0.000130917
7.85837e-09
0.000130925
2.27135e-08
0.000130936
3.57333e-08
0.000130951
4.65256e-08
0.00013097
5.49287e-08
0.000130992
6.08804e-08
0.000131016
6.44241e-08
0.000131042
6.56726e-08
0.00013107
6.47715e-08
0.000131099
6.18878e-08
0.000131129
5.71965e-08
0.000131159
5.08816e-08
0.00013119
4.31044e-08
0.000131221
3.40241e-08
0.000131252
2.3787e-08
0.000131283
1.25279e-08
0.000131314
3.60027e-10
0.000131344
-1.25866e-08
0.000131374
-2.62372e-08
0.000131404
-4.04969e-08
0.000131433
-5.529e-08
0.000131462
-7.05467e-08
0.000131489
-8.6204e-08
0.000131517
-1.02204e-07
0.000131543
-1.18494e-07
0.000131569
-1.35021e-07
0.000131594
-1.51738e-07
0.000131618
-1.68596e-07
0.000131641
-1.85548e-07
0.000131664
-2.02546e-07
0.000131685
-2.19543e-07
0.000131706
-2.36495e-07
-2.53333e-07
0.000131726
0.000134658
5.45221e-09
0.000134665
1.57198e-08
0.000134676
2.45245e-08
0.000134691
3.1515e-08
0.000134709
3.65666e-08
0.00013473
3.9619e-08
0.000134754
4.07163e-08
0.00013478
3.99541e-08
0.000134807
3.74448e-08
0.000134836
3.33161e-08
0.000134865
2.77024e-08
0.000134895
2.07535e-08
0.000134926
1.25767e-08
0.000134957
3.30739e-09
0.000134987
-6.94902e-09
0.000135018
-1.80783e-08
0.000135048
-2.99852e-08
0.000135078
-4.25785e-08
0.000135108
-5.57831e-08
0.000135137
-6.95236e-08
0.000135165
-8.37334e-08
0.000135193
-9.83516e-08
0.00013522
-1.13322e-07
0.000135247
-1.28592e-07
0.000135272
-1.44112e-07
0.000135297
-1.59833e-07
0.000135321
-1.75709e-07
0.000135344
-1.91695e-07
0.000135366
-2.07746e-07
0.000135388
-2.23816e-07
0.000135408
-2.39862e-07
0.000135427
-2.55842e-07
-2.71694e-07
0.000135446
0.000138505
3.11921e-09
0.000138511
8.92303e-09
0.000138522
1.36051e-08
0.000138537
1.68484e-08
0.000138555
1.85646e-08
0.000138576
1.86989e-08
0.000138599
1.73334e-08
0.000138625
1.45484e-08
0.000138652
1.04218e-08
0.00013868
5.03915e-09
0.000138709
-1.51849e-09
0.000138739
-9.07862e-09
0.000138769
-1.76406e-08
0.0001388
-2.70825e-08
0.00013883
-3.73264e-08
0.00013886
-4.82903e-08
0.00013889
-5.99026e-08
0.00013892
-7.20932e-08
0.000138949
-8.48e-08
0.000138977
-9.79642e-08
0.000139005
-1.1153e-07
0.000139032
-1.25446e-07
0.000139058
-1.39663e-07
0.000139084
-1.54134e-07
0.000139109
-1.68814e-07
0.000139132
-1.83659e-07
0.000139155
-1.98626e-07
0.000139177
-2.13673e-07
0.000139198
-2.28757e-07
0.000139218
-2.43838e-07
0.000139237
-2.58875e-07
0.000139255
-2.73829e-07
-2.88643e-07
0.000139272
0.000142462
8.0613e-10
0.000142468
2.2326e-09
0.000142479
2.84331e-09
0.000142493
2.3716e-09
0.000142511
8.34668e-10
0.000142532
-1.93839e-09
0.000142555
-5.77813e-09
0.00014258
-1.05938e-08
0.000142607
-1.63435e-08
0.000142635
-2.29697e-08
0.000142664
-3.04189e-08
0.000142693
-3.86229e-08
0.000142723
-4.75502e-08
0.000142753
-5.71396e-08
0.000142783
-6.73403e-08
0.000142813
-7.81018e-08
0.000142843
-8.93756e-08
0.000142872
-1.01113e-07
0.0001429
-1.13269e-07
0.000142928
-1.25799e-07
0.000142955
-1.38659e-07
0.000142981
-1.51807e-07
0.000143007
-1.65202e-07
0.000143032
-1.78804e-07
0.000143055
-1.92574e-07
0.000143078
-2.06472e-07
0.0001431
-2.2046e-07
0.000143121
-2.34499e-07
0.000143141
-2.48551e-07
0.000143159
-2.62579e-07
0.000143177
-2.76545e-07
0.000143194
-2.90414e-07
-3.04133e-07
0.000143209
0.000146531
-1.31195e-09
0.000146538
-4.0914e-09
0.000146548
-7.47816e-09
0.000146562
-1.17159e-08
0.00014658
-1.67399e-08
0.0001466
-2.2485e-08
0.000146623
-2.88296e-08
0.000146648
-3.57059e-08
0.000146675
-4.30862e-08
0.000146703
-5.09504e-08
0.000146732
-5.92871e-08
0.000146762
-6.80785e-08
0.000146791
-7.73204e-08
0.000146821
-8.69992e-08
0.000146851
-9.70966e-08
0.00014688
-1.07592e-07
0.000146909
-1.1846e-07
0.000146938
-1.29675e-07
0.000146966
-1.41209e-07
0.000146993
-1.53031e-07
0.00014702
-1.6511e-07
0.000147045
-1.77416e-07
0.00014707
-1.89914e-07
0.000147094
-2.02572e-07
0.000147117
-2.15358e-07
0.000147138
-2.28236e-07
0.000147159
-2.41173e-07
0.000147179
-2.54135e-07
0.000147197
-2.67088e-07
0.000147215
-2.79999e-07
0.000147231
-2.92834e-07
0.000147246
-3.05562e-07
-3.18136e-07
0.00014726
0.000150718
-3.73657e-09
0.000150725
-1.06412e-08
0.000150735
-1.79168e-08
0.000150749
-2.57864e-08
0.000150767
-3.41179e-08
0.000150787
-4.27712e-08
0.00015081
-5.16145e-08
0.000150834
-6.05623e-08
0.000150861
-6.95891e-08
0.000150889
-7.87036e-08
0.000150917
-8.79312e-08
0.000150947
-9.73011e-08
0.000150976
-1.06846e-07
0.000151006
-1.1659e-07
0.000151035
-1.26551e-07
0.000151064
-1.36736e-07
0.000151093
-1.47149e-07
0.000151121
-1.57784e-07
0.000151149
-1.68632e-07
0.000151175
-1.7968e-07
0.000151201
-1.90908e-07
0.000151226
-2.02297e-07
0.00015125
-2.13824e-07
0.000151273
-2.25463e-07
0.000151294
-2.37187e-07
0.000151315
-2.4897e-07
0.000151335
-2.60783e-07
0.000151353
-2.72596e-07
0.000151371
-2.8438e-07
0.000151387
-2.96105e-07
0.000151402
-3.07742e-07
0.000151415
-3.19264e-07
-3.30627e-07
0.000151428
0.000155023
-5.0065e-09
0.000155028
-1.5857e-08
0.000155038
-2.73506e-08
0.000155051
-3.94684e-08
0.000155069
-5.1683e-08
0.00015509
-6.36425e-08
0.000155113
-7.51719e-08
0.000155139
-8.62236e-08
0.000155166
-9.68367e-08
0.000155195
-1.07089e-07
0.000155224
-1.17072e-07
0.000155253
-1.26874e-07
0.000155283
-1.36577e-07
0.000155313
-1.46247e-07
0.000155342
-1.5594e-07
0.000155371
-1.65693e-07
0.000155399
-1.75536e-07
0.000155427
-1.85484e-07
0.000155454
-1.95546e-07
0.00015548
-2.05723e-07
0.000155505
-2.16008e-07
0.000155529
-2.26393e-07
0.000155552
-2.36863e-07
0.000155574
-2.474e-07
0.000155595
-2.57985e-07
0.000155615
-2.68597e-07
0.000155633
-2.79211e-07
0.00015565
-2.89804e-07
0.000155666
-3.00352e-07
0.000155681
-3.10829e-07
0.000155694
-3.21209e-07
0.000155707
-3.31472e-07
-3.41575e-07
0.000155718
0.000159454
-8.8065e-09
0.000159461
-2.28484e-08
0.000159472
-3.74968e-08
0.000159485
-5.28039e-08
0.000159501
-6.82888e-08
0.000159521
-8.33682e-08
0.000159544
-9.7654e-08
0.000159568
-1.10993e-07
0.000159595
-1.234e-07
0.000159623
-1.3498e-07
0.000159652
-1.45868e-07
0.000159681
-1.56209e-07
0.000159711
-1.66135e-07
0.00015974
-1.75762e-07
0.000159769
-1.85187e-07
0.000159798
-1.94485e-07
0.000159826
-2.03714e-07
0.000159854
-2.12917e-07
0.00015988
-2.22124e-07
0.000159906
-2.31352e-07
0.000159931
-2.40613e-07
0.000159954
-2.49908e-07
0.000159976
-2.59233e-07
0.000159998
-2.6858e-07
0.000160018
-2.77938e-07
0.000160036
-2.87291e-07
0.000160054
-2.96623e-07
0.00016007
-3.05914e-07
0.000160085
-3.15145e-07
0.000160098
-3.24295e-07
0.00016011
-3.33342e-07
0.000160121
-3.42268e-07
-3.51038e-07
0.00016013
0.000164003
-6.15187e-09
0.000164005
-2.45453e-08
0.000164013
-4.54524e-08
0.000164027
-6.70777e-08
0.000164047
-8.77129e-08
0.00016407
-1.06609e-07
0.000164096
-1.23618e-07
0.000164124
-1.38851e-07
0.000164153
-1.52524e-07
0.000164183
-1.6488e-07
0.000164213
-1.76159e-07
0.000164244
-1.86583e-07
0.000164274
-1.96343e-07
0.000164304
-2.05602e-07
0.000164333
-2.14489e-07
0.000164362
-2.23107e-07
0.000164389
-2.31537e-07
0.000164416
-2.39839e-07
0.000164442
-2.48057e-07
0.000164467
-2.56223e-07
0.000164491
-2.64356e-07
0.000164513
-2.72469e-07
0.000164535
-2.80567e-07
0.000164555
-2.88647e-07
0.000164574
-2.96705e-07
0.000164591
-3.04732e-07
0.000164607
-3.12717e-07
0.000164622
-3.20645e-07
0.000164635
-3.28502e-07
0.000164647
-3.36271e-07
0.000164658
-3.43937e-07
0.000164667
-3.51483e-07
-3.5888e-07
0.000164675
0.000168701
-1.55493e-08
0.000168709
-3.25219e-08
0.000168717
-5.30181e-08
0.000168726
-7.65001e-08
0.000168739
-1.01035e-07
0.000168757
-1.24363e-07
0.000168779
-1.45319e-07
0.000168804
-1.63692e-07
0.000168831
-1.79705e-07
0.00016886
-1.93692e-07
0.00016889
-2.05999e-07
0.00016892
-2.16952e-07
0.00016895
-2.26838e-07
0.000168981
-2.35896e-07
0.000169011
-2.44319e-07
0.00016904
-2.52264e-07
0.000169068
-2.59851e-07
0.000169095
-2.67174e-07
0.000169122
-2.74303e-07
0.000169147
-2.81291e-07
0.000169171
-2.88174e-07
0.000169193
-2.94979e-07
0.000169214
-3.01721e-07
0.000169234
-3.08409e-07
0.000169252
-3.15045e-07
0.000169269
-3.21628e-07
0.000169285
-3.28152e-07
0.000169299
-3.34609e-07
0.000169311
-3.40989e-07
0.000169322
-3.47281e-07
0.000169332
-3.53471e-07
0.00016934
-3.59546e-07
-3.65485e-07
0.000169346
0.000173491
4.49603e-09
0.000173485
-2.60966e-08
0.000173494
-6.2327e-08
0.000173515
-9.7474e-08
0.000173543
-1.2845e-07
0.000173573
-1.54816e-07
0.000173605
-1.77188e-07
0.000173637
-1.96145e-07
0.00017367
-2.1226e-07
0.000173702
-2.26033e-07
0.000173734
-2.37915e-07
0.000173765
-2.48294e-07
0.000173796
-2.57488e-07
0.000173826
-2.65752e-07
0.000173855
-2.73293e-07
0.000173883
-2.80273e-07
0.00017391
-2.86821e-07
0.000173936
-2.93036e-07
0.00017396
-2.98996e-07
0.000173984
-3.04758e-07
0.000174006
-3.10365e-07
0.000174027
-3.15849e-07
0.000174047
-3.21231e-07
0.000174065
-3.26527e-07
0.000174081
-3.31743e-07
0.000174097
-3.36885e-07
0.00017411
-3.4195e-07
0.000174123
-3.46937e-07
0.000174134
-3.51838e-07
0.000174143
-3.56648e-07
0.000174151
-3.61356e-07
0.000174157
-3.65956e-07
-3.70425e-07
0.000174162
0.000178498
-2.46754e-08
0.0001785
-2.81193e-08
0.000178488
-5.09604e-08
0.00017848
-8.86254e-08
0.000178482
-1.30478e-07
0.000178494
-1.67753e-07
0.000178516
-1.98265e-07
0.000178542
-2.22734e-07
0.000178572
-2.42478e-07
0.000178605
-2.58483e-07
0.000178638
-2.71551e-07
0.000178673
-2.82348e-07
0.000178706
-2.91398e-07
0.00017874
-2.99113e-07
0.000178772
-3.05809e-07
0.000178804
-3.1173e-07
0.000178834
-3.17061e-07
0.000178863
-3.21944e-07
0.00017889
-3.26485e-07
0.000178916
-3.30764e-07
0.000178941
-3.34841e-07
0.000178964
-3.38759e-07
0.000178985
-3.4255e-07
0.000179005
-3.46234e-07
0.000179023
-3.49828e-07
0.000179039
-3.5334e-07
0.000179054
-3.56773e-07
0.000179067
-3.60129e-07
0.000179079
-3.63407e-07
0.000179089
-3.66604e-07
0.000179097
-3.69714e-07
0.000179104
-3.72734e-07
-3.75648e-07
0.000179109
0.000183487
5.60906e-08
0.000183465
-6.13656e-09
0.000183501
-8.6836e-08
0.000183552
-1.3978e-07
0.000183602
-1.80835e-07
0.000183647
-2.12854e-07
0.000183687
-2.38518e-07
0.000183724
-2.59633e-07
0.000183759
-2.76916e-07
0.000183791
-2.91069e-07
0.000183823
-3.02757e-07
0.000183853
-3.12491e-07
0.000183882
-3.20668e-07
0.00018391
-3.27603e-07
0.000183938
-3.3355e-07
0.000183965
-3.38706e-07
0.000183991
-3.43229e-07
0.000184017
-3.47243e-07
0.000184041
-3.50844e-07
0.000184064
-3.5411e-07
0.000184087
-3.571e-07
0.000184108
-3.59861e-07
0.000184128
-3.62429e-07
0.000184146
-3.64832e-07
0.000184163
-3.6709e-07
0.000184179
-3.6922e-07
0.000184194
-3.71232e-07
0.000184207
-3.73135e-07
0.000184218
-3.74932e-07
0.000184228
-3.76624e-07
0.000184237
-3.78213e-07
0.000184244
-3.79695e-07
-3.81064e-07
0.000184249
0.000188861
7.3714e-09
0.000188795
5.92761e-08
0.000188709
-6.81443e-10
0.000188645
-7.56773e-08
0.000188626
-1.62145e-07
0.000188639
-2.25785e-07
0.000188671
-2.69923e-07
0.000188712
-3.01409e-07
0.00018876
-3.2447e-07
0.000188811
-3.41688e-07
0.000188863
-3.54693e-07
0.000188915
-3.64612e-07
0.000188966
-3.72239e-07
0.000189017
-3.78144e-07
0.000189066
-3.8274e-07
0.000189114
-3.86329e-07
0.000189159
-3.89134e-07
0.000189204
-3.91323e-07