/*--------------------------------*- C++ -*----------------------------------*\
| =========                 |                                                 |
| \\      /  F ield         | OpenFOAM: The Open Source CFD Toolbox           |
|  \\    /   O peration     | Version:  2.1.1                                 |
|   \\  /    A nd           | Web:      www.OpenFOAM.org                      |
|    \\/     M anipulation  |                                                 |
\*---------------------------------------------------------------------------*/
FoamFile
{
    version     2.0;
    format      ascii;
    class       volVectorField;
    location    "0.13";
    object      U;
}
// * * * * * * * * * * * * * * * * * * * * * * * * * * * * * * * * * * * * * //

dimensions      [0 1 -1 0 0 0 0];

internalField   nonuniform List<vector> 
6820
(
(8.34337 -0.360078 0)
(8.40111 -0.247161 0)
(8.35615 -0.115302 0)
(8.2479 -0.0365715 0)
(8.11953 0.00598764 0)
(7.98619 0.0278418 0)
(7.8542 0.0386036 0)
(7.72694 0.0432956 0)
(7.60582 0.0445591 0)
(7.4914 0.0438509 0)
(7.3839 0.0420125 0)
(7.28335 0.0395482 0)
(7.18964 0.036769 0)
(7.10256 0.0338706 0)
(7.02182 0.0309763 0)
(6.94711 0.0281636 0)
(6.87807 0.0254796 0)
(6.81436 0.0229512 0)
(6.75562 0.0205916 0)
(6.70148 0.018405 0)
(6.65162 0.0163902 0)
(6.60569 0.0145426 0)
(6.56338 0.0128562 0)
(6.52439 0.011326 0)
(6.48842 0.00994959 0)
(6.45517 0.00873168 0)
(6.42433 0.00768861 0)
(6.39549 0.00687088 0)
(6.36818 0.00637658 0)
(6.34152 0.00647727 0)
(6.31394 0.00799258 0)
(6.28252 0.0116313 0)
(6.23781 0.0293307 0)
(8.32139 0.166248 0)
(8.28709 0.189993 0)
(8.28544 0.132141 0)
(8.31742 0.0958271 0)
(8.36173 0.0749807 0)
(8.40181 0.0623091 0)
(8.43293 0.0548152 0)
(8.45506 0.0502795 0)
(8.46905 0.0473606 0)
(8.47591 0.0453452 0)
(8.47668 0.0438381 0)
(8.47231 0.0426016 0)
(8.46361 0.0414964 0)
(8.45133 0.0404455 0)
(8.4361 0.039408 0)
(8.41848 0.0383649 0)
(8.39895 0.0373099 0)
(8.37792 0.0362435 0)
(8.35577 0.03517 0)
(8.33278 0.0340954 0)
(8.30923 0.0330268 0)
(8.28532 0.0319715 0)
(8.26125 0.0309381 0)
(8.23716 0.0299368 0)
(8.21318 0.0289823 0)
(8.18941 0.0280966 0)
(8.16595 0.0273191 0)
(8.14284 0.0267201 0)
(8.12033 0.0264304 0)
(8.09818 0.0267758 0)
(8.07857 0.0281566 0)
(8.05891 0.0325919 0)
(8.06023 0.040071 0)
(8.3225 -0.0608884 0)
(8.31398 -0.0832919 0)
(8.33053 -0.0541133 0)
(8.34437 -0.0203245 0)
(8.35327 0.0023746 0)
(8.36233 0.0164884 0)
(8.37211 0.0257138 0)
(8.38218 0.0319158 0)
(8.39209 0.0361181 0)
(8.40143 0.0389657 0)
(8.40996 0.0408529 0)
(8.41755 0.0420237 0)
(8.42414 0.0426515 0)
(8.42972 0.0428674 0)
(8.4343 0.0427702 0)
(8.43794 0.042436 0)
(8.44068 0.0419238 0)
(8.44258 0.0412795 0)
(8.44372 0.0405396 0)
(8.44415 0.0397327 0)
(8.44396 0.0388821 0)
(8.44321 0.0380068 0)
(8.44195 0.0371239 0)
(8.44025 0.0362494 0)
(8.43816 0.0354023 0)
(8.43573 0.0346047 0)
(8.43301 0.0338963 0)
(8.43005 0.0333159 0)
(8.42695 0.0329998 0)
(8.42377 0.0329082 0)
(8.42101 0.0337114 0)
(8.41861 0.0335622 0)
(8.41788 0.0364227 0)
(8.33365 0.0145592 0)
(8.32978 0.0476844 0)
(8.3274 0.0539427 0)
(8.32875 0.0465214 0)
(8.33467 0.0410103 0)
(8.34224 0.0384914 0)
(8.34978 0.0376642 0)
(8.35706 0.0376005 0)
(8.36411 0.0377987 0)
(8.3709 0.0380383 0)
(8.37741 0.0382204 0)
(8.38361 0.0383035 0)
(8.38948 0.0382777 0)
(8.39502 0.0381458 0)
(8.40021 0.037916 0)
(8.40505 0.0375987 0)
(8.40955 0.0372056 0)
(8.41373 0.0367486 0)
(8.41759 0.0362392 0)
(8.42116 0.0356879 0)
(8.42445 0.0351051 0)
(8.4275 0.0345006 0)
(8.43031 0.0338849 0)
(8.43291 0.0332697 0)
(8.43532 0.0326704 0)
(8.43757 0.0321067 0)
(8.43969 0.0316105 0)
(8.44171 0.0312187 0)
(8.44375 0.0310064 0)
(8.44585 0.0310047 0)
(8.44846 0.0313733 0)
(8.45162 0.0318084 0)
(8.45673 0.032724 0)
(8.3302 -0.00531545 0)
(8.32722 -0.00752265 0)
(8.3314 -0.00248327 0)
(8.3361 0.0079879 0)
(8.3402 0.0171465 0)
(8.34441 0.0233455 0)
(8.34886 0.0275091 0)
(8.35357 0.030449 0)
(8.35845 0.0325663 0)
(8.36339 0.0340929 0)
(8.3683 0.0351738 0)
(8.37314 0.035903 0)
(8.37787 0.0363467 0)
(8.38247 0.0365559 0)
(8.38692 0.0365725 0)
(8.39121 0.0364316 0)
(8.39535 0.0361627 0)
(8.39934 0.0357907 0)
(8.40317 0.0353366 0)
(8.40687 0.0348181 0)
(8.41043 0.0342504 0)
(8.41387 0.0336472 0)
(8.4172 0.0330214 0)
(8.42043 0.0323859 0)
(8.42358 0.0317557 0)
(8.42667 0.0311478 0)
(8.42972 0.0305865 0)
(8.43277 0.0300928 0)
(8.43591 0.0297117 0)
(8.43921 0.0294154 0)
(8.4429 0.0292831 0)
(8.44708 0.0288632 0)
(8.45208 0.0283592 0)
(8.33239 0.00227905 0)
(8.33119 0.0132911 0)
(8.33282 0.0203652 0)
(8.33554 0.0237386 0)
(8.33902 0.0258717 0)
(8.3431 0.027657 0)
(8.34737 0.0293087 0)
(8.35167 0.030775 0)
(8.35597 0.031975 0)
(8.36026 0.0328974 0)
(8.3645 0.0335638 0)
(8.36869 0.0340017 0)
(8.37281 0.0342394 0)
(8.37685 0.0343054 0)
(8.38081 0.0342257 0)
(8.38467 0.0340238 0)
(8.38843 0.03372 0)
(8.39211 0.0333317 0)
(8.3957 0.0328743 0)
(8.39921 0.0323609 0)
(8.40264 0.0318032 0)
(8.40601 0.0312116 0)
(8.40931 0.0305964 0)
(8.41258 0.0299676 0)
(8.41581 0.0293366 0)
(8.41903 0.0287153 0)
(8.42226 0.0281189 0)
(8.42554 0.0275572 0)
(8.42893 0.0270451 0)
(8.43251 0.0265496 0)
(8.4364 0.0260564 0)
(8.44069 0.0253104 0)
(8.44547 0.0242773 0)
(8.33233 0.000865485 0)
(8.33152 0.00576176 0)
(8.33343 0.0107223 0)
(8.33649 0.0155039 0)
(8.33992 0.0198688 0)
(8.3436 0.0233557 0)
(8.34739 0.026011 0)
(8.3512 0.0280295 0)
(8.35505 0.0295476 0)
(8.35891 0.0306673 0)
(8.36274 0.0314653 0)
(8.36653 0.0319971 0)
(8.37027 0.0323055 0)
(8.37396 0.0324259 0)
(8.37757 0.0323882 0)
(8.38112 0.0322178 0)
(8.38461 0.0319362 0)
(8.38803 0.031562 0)
(8.3914 0.031111 0)
(8.3947 0.0305967 0)
(8.39797 0.0300308 0)
(8.40119 0.0294236 0)
(8.40438 0.0287848 0)
(8.40756 0.028123 0)
(8.41073 0.0274471 0)
(8.41391 0.0267651 0)
(8.41712 0.0260846 0)
(8.42041 0.0254063 0)
(8.42382 0.0247274 0)
(8.42739 0.0240084 0)
(8.43122 0.0232063 0)
(8.43531 0.022144 0)
(8.43968 0.0207375 0)
(8.33272 0.00170272 0)
(8.33256 0.00726637 0)
(8.33419 0.0125421 0)
(8.33679 0.0167859 0)
(8.33984 0.0202127 0)
(8.34326 0.0229101 0)
(8.34685 0.0250415 0)
(8.3505 0.0267399 0)
(8.35416 0.0280646 0)
(8.35782 0.0290615 0)
(8.36144 0.0297763 0)
(8.36502 0.0302486 0)
(8.36855 0.0305129 0)
(8.37202 0.0305994 0)
(8.37543 0.0305346 0)
(8.37879 0.0303415 0)
(8.38209 0.0300399 0)
(8.38533 0.0296467 0)
(8.38853 0.0291764 0)
(8.39169 0.0286411 0)
(8.39482 0.0280515 0)
(8.39792 0.0274166 0)
(8.401 0.0267443 0)
(8.40407 0.0260414 0)
(8.40716 0.0253139 0)
(8.41027 0.0245657 0)
(8.41342 0.0237986 0)
(8.41665 0.0230068 0)
(8.41998 0.0221773 0)
(8.42346 0.0212715 0)
(8.42712 0.0202396 0)
(8.43097 0.018965 0)
(8.43497 0.017374 0)
(8.33284 0.00178014 0)
(8.33294 0.00643472 0)
(8.33444 0.0109299 0)
(8.33687 0.0147988 0)
(8.33976 0.0181416 0)
(8.34298 0.0209097 0)
(8.34637 0.0231292 0)
(8.34984 0.0248831 0)
(8.35333 0.0262366 0)
(8.35682 0.0272476 0)
(8.36029 0.0279689 0)
(8.36372 0.0284444 0)
(8.36711 0.02871 0)
(8.37044 0.0287965 0)
(8.37372 0.0287302 0)
(8.37694 0.0285336 0)
(8.38012 0.0282258 0)
(8.38324 0.0278232 0)
(8.38633 0.0273395 0)
(8.38938 0.0267863 0)
(8.3924 0.0261736 0)
(8.3954 0.0255094 0)
(8.3984 0.0248003 0)
(8.40139 0.0240518 0)
(8.40439 0.0232672 0)
(8.40742 0.0224477 0)
(8.4105 0.0215907 0)
(8.41364 0.0206868 0)
(8.41688 0.0197189 0)
(8.42022 0.018652 0)
(8.4237 0.0174407 0)
(8.4273 0.0160074 0)
(8.43097 0.0142978 0)
(8.33294 0.00182099 0)
(8.33323 0.00610929 0)
(8.33464 0.0102987 0)
(8.33686 0.0139408 0)
(8.33953 0.0170513 0)
(8.34253 0.0196187 0)
(8.34573 0.0216831 0)
(8.34904 0.0233233 0)
(8.35239 0.0245992 0)
(8.35575 0.0255584 0)
(8.3591 0.0262444 0)
(8.36242 0.026695 0)
(8.3657 0.0269421 0)
(8.36893 0.0270138 0)
(8.37212 0.0269344 0)
(8.37525 0.0267249 0)
(8.37834 0.0264032 0)
(8.38138 0.0259847 0)
(8.38438 0.0254821 0)
(8.38735 0.0249063 0)
(8.3903 0.0242662 0)
(8.39323 0.0235689 0)
(8.39615 0.0228199 0)
(8.39907 0.0220228 0)
(8.402 0.0211795 0)
(8.40496 0.0202886 0)
(8.40795 0.0193451 0)
(8.41101 0.0183381 0)
(8.41414 0.0172496 0)
(8.41735 0.01605 0)
(8.42064 0.0147025 0)
(8.42401 0.0131557 0)
(8.4274 0.0113752 0)
(8.33299 0.00178336 0)
(8.33338 0.00567966 0)
(8.3347 0.00946624 0)
(8.33675 0.012807 0)
(8.33923 0.0156927 0)
(8.34205 0.0181149 0)
(8.34507 0.0200906 0)
(8.34822 0.0216716 0)
(8.35142 0.0229054 0)
(8.35466 0.0238338 0)
(8.35789 0.0244968 0)
(8.36111 0.0249296 0)
(8.36429 0.0251626 0)
(8.36743 0.0252225 0)
(8.37053 0.0251322 0)
(8.37359 0.0249114 0)
(8.3766 0.0245771 0)
(8.37958 0.0241436 0)
(8.38251 0.0236229 0)
(8.38542 0.023025 0)
(8.38831 0.0223578 0)
(8.39117 0.0216277 0)
(8.39403 0.0208391 0)
(8.39689 0.0199944 0)
(8.39975 0.019094 0)
(8.40264 0.0181352 0)
(8.40556 0.0171118 0)
(8.40853 0.0160128 0)
(8.41154 0.0148214 0)
(8.41461 0.013514 0)
(8.41774 0.0120624 0)
(8.4209 0.0104331 0)
(8.42406 0.00860612 0)
(8.33302 0.00170458 0)
(8.33347 0.00527298 0)
(8.33471 0.0087283 0)
(8.3366 0.0118139 0)
(8.33891 0.0144937 0)
(8.34154 0.0167572 0)
(8.34439 0.0186144 0)
(8.34738 0.0201053 0)
(8.35044 0.0212712 0)
(8.35355 0.0221494 0)
(8.35667 0.0227749 0)
(8.35977 0.0231793 0)
(8.36286 0.0233903 0)
(8.36592 0.0234321 0)
(8.36894 0.0233258 0)
(8.37192 0.0230896 0)
(8.37487 0.0227394 0)
(8.37778 0.0222883 0)
(8.38066 0.0217474 0)
(8.38351 0.0211257 0)
(8.38633 0.0204305 0)
(8.38914 0.0196671 0)
(8.39194 0.018839 0)
(8.39474 0.0179478 0)
(8.39754 0.0169929 0)
(8.40036 0.0159708 0)
(8.4032 0.0148753 0)
(8.40607 0.0136959 0)
(8.40897 0.0124184 0)
(8.41191 0.0110246 0)
(8.41488 0.00949378 0)
(8.41785 0.0078047 0)
(8.42081 0.0059472 0)
(8.33303 0.00160169 0)
(8.3335 0.00486676 0)
(8.33467 0.00800922 0)
(8.33642 0.0108382 0)
(8.33857 0.013309 0)
(8.34104 0.0154105 0)
(8.34372 0.0171475 0)
(8.34656 0.0185483 0)
(8.34948 0.0196462 0)
(8.35246 0.0204728 0)
(8.35546 0.0210585 0)
(8.35846 0.0214317 0)
(8.36145 0.0216175 0)
(8.36442 0.0216382 0)
(8.36736 0.0215132 0)
(8.37027 0.0212594 0)
(8.37314 0.0208913 0)
(8.37599 0.020421 0)
(8.3788 0.0198587 0)
(8.38159 0.0192127 0)
(8.38436 0.0184892 0)
(8.38711 0.017693 0)
(8.38985 0.0168267 0)
(8.39258 0.0158913 0)
(8.39532 0.0148857 0)
(8.39806 0.0138062 0)
(8.40082 0.0126469 0)
(8.40359 0.0113988 0)
(8.40638 0.0100504 0)
(8.40919 0.00858789 0)
(8.412 0.00699712 0)
(8.41481 0.0052647 0)
(8.41759 0.00338687 0)
(8.33304 0.00148631 0)
(8.33351 0.00446866 0)
(8.33461 0.00732408 0)
(8.33623 0.00991048 0)
(8.33824 0.0121805 0)
(8.34055 0.0141208 0)
(8.34308 0.0157323 0)
(8.34577 0.0170353 0)
(8.34855 0.0180566 0)
(8.3514 0.0188232 0)
(8.35429 0.0193618 0)
(8.35718 0.0196974 0)
(8.36007 0.0198525 0)
(8.36295 0.0198474 0)
(8.36581 0.0196998 0)
(8.36864 0.0194249 0)
(8.37144 0.0190362 0)
(8.37421 0.0185446 0)
(8.37696 0.0179595 0)
(8.37969 0.0172881 0)
(8.38239 0.0165361 0)
(8.38507 0.0157075 0)
(8.38775 0.0148045 0)
(8.39041 0.0138276 0)
(8.39307 0.0127754 0)
(8.39573 0.0116446 0)
(8.3984 0.0104298 0)
(8.40107 0.00912376 0)
(8.40375 0.00771752 0)
(8.40643 0.00620116 0)
(8.4091 0.0045652 0)
(8.41175 0.00280164 0)
(8.41437 0.000910617 0)
(8.33304 0.00136546 0)
(8.3335 0.00407954 0)
(8.33453 0.00666628 0)
(8.33604 0.00901864 0)
(8.33792 0.0110913 0)
(8.34009 0.0128695 0)
(8.34247 0.0143519 0)
(8.34502 0.0155524 0)
(8.34767 0.0164924 0)
(8.3504 0.0171944 0)
(8.35316 0.0176813 0)
(8.35595 0.017975 0)
(8.35874 0.0180956 0)
(8.36153 0.0180611 0)
(8.3643 0.0178877 0)
(8.36704 0.0175892 0)
(8.36977 0.0171776 0)
(8.37247 0.0166632 0)
(8.37515 0.016054 0)
(8.3778 0.0153569 0)
(8.38044 0.0145767 0)
(8.38305 0.0137168 0)
(8.38565 0.0127791 0)
(8.38824 0.0117639 0)
(8.39082 0.0106697 0)
(8.3934 0.00949382 0)
(8.39597 0.0082317 0)
(8.39854 0.00687765 0)
(8.4011 0.00542505 0)
(8.40365 0.00386704 0)
(8.40618 0.0021976 0)
(8.40869 0.000412305 0)
(8.41115 -0.00148649 0)
(8.33304 0.00124333 0)
(8.33348 0.00370089 0)
(8.33445 0.00603469 0)
(8.33586 0.00816237 0)
(8.33762 0.0100428 0)
(8.33965 0.0116601 0)
(8.3419 0.0130111 0)
(8.34432 0.0141053 0)
(8.34684 0.0149591 0)
(8.34944 0.0155915 0)
(8.3521 0.0160217 0)
(8.35478 0.0162689 0)
(8.35747 0.0163507 0)
(8.36016 0.0162832 0)
(8.36284 0.0160809 0)
(8.3655 0.0157561 0)
(8.36815 0.0153198 0)
(8.37077 0.0147809 0)
(8.37337 0.014147 0)
(8.37595 0.0134239 0)
(8.37851 0.0126161 0)
(8.38105 0.0117264 0)
(8.38358 0.0107565 0)
(8.38608 0.0097065 0)
(8.38858 0.00857532 0)
(8.39106 0.00736057 0)
(8.39353 0.00605882 0)
(8.39599 0.0046658 0)
(8.39844 0.00317683 0)
(8.40086 0.00158741 0)
(8.40326 -0.000105977 0)
(8.40562 -0.00190546 0)
(8.40794 -0.00380744 0)
(8.33304 0.00112232 0)
(8.33346 0.00333342 0)
(8.33437 0.00542714 0)
(8.33569 0.00733842 0)
(8.33733 0.00903084 0)
(8.33924 0.0104883 0)
(8.34137 0.0117063 0)
(8.34366 0.0126909 0)
(8.34606 0.0134548 0)
(8.34855 0.0140133 0)
(8.35109 0.0143828 0)
(8.35366 0.0145796 0)
(8.35625 0.0146192 0)
(8.35885 0.0145157 0)
(8.36144 0.0142818 0)
(8.36402 0.0139287 0)
(8.36658 0.013466 0)
(8.36913 0.0129018 0)
(8.37165 0.0122428 0)
(8.37415 0.0114941 0)
(8.37663 0.0106597 0)
(8.37909 0.0097422 0)
(8.38153 0.00874291 0)
(8.38395 0.00766209 0)
(8.38636 0.0064989 0)
(8.38875 0.00525155 0)
(8.39111 0.00391752 0)
(8.39346 0.00249381 0)
(8.39579 0.00097732 0)
(8.39809 -0.000634682 0)
(8.40036 -0.00234395 0)
(8.40258 -0.00415115 0)
(8.40476 -0.00605205 0)
(8.33304 0.00100377 0)
(8.33343 0.0029774 0)
(8.33429 0.00484194 0)
(8.33552 0.00654451 0)
(8.33707 0.0080533 0)
(8.33887 0.00935252 0)
(8.34087 0.0104367 0)
(8.34304 0.0113094 0)
(8.34533 0.0119801 0)
(8.3477 0.0124612 0)
(8.35014 0.0127663 0)
(8.35261 0.0129093 0)
(8.3551 0.0129034 0)
(8.35761 0.0127611 0)
(8.36011 0.0124934 0)
(8.3626 0.0121102 0)
(8.36508 0.01162 0)
(8.36754 0.0110299 0)
(8.36998 0.0103458 0)
(8.3724 0.00957236 0)
(8.3748 0.00871294 0)
(8.37717 0.00776987 0)
(8.37953 0.00674444 0)
(8.38186 0.00563696 0)
(8.38417 0.00444692 0)
(8.38646 0.00317309 0)
(8.38872 0.00181377 0)
(8.39096 0.000367006 0)
(8.39317 -0.00116906 0)
(8.39534 -0.00279584 0)
(8.39748 -0.00451391 0)
(8.39957 -0.00632296 0)
(8.40162 -0.00821855 0)
(8.33304 0.000888322 0)
(8.33341 0.00263278 0)
(8.33421 0.00427746 0)
(8.33537 0.00577827 0)
(8.33682 0.00710758 0)
(8.33852 0.00825024 0)
(8.34042 0.00920024 0)
(8.34247 0.00995921 0)
(8.34465 0.0105341 0)
(8.34692 0.0109347 0)
(8.34924 0.0111723 0)
(8.35162 0.0112585 0)
(8.35401 0.0112045 0)
(8.35642 0.011021 0)
(8.35884 0.0107177 0)
(8.36124 0.0103031 0)
(8.36363 0.00978453 0)
(8.36601 0.00916837 0)
(8.36837 0.00845971 0)
(8.3707 0.00766259 0)
(8.37302 0.00678004 0)
(8.37531 0.00581414 0)
(8.37757 0.0047661 0)
(8.37981 0.00363635 0)
(8.38202 0.00242469 0)
(8.38421 0.0011304 0)
(8.38636 -0.000247527 0)
(8.38849 -0.00171019 0)
(8.39058 -0.0032585 0)
(8.39263 -0.00489295 0)
(8.39464 -0.00661327 0)
(8.3966 -0.00841861 0)
(8.39852 -0.0103045 0)
(8.33303 0.000776237 0)
(8.33339 0.00229922 0)
(8.33414 0.00373217 0)
(8.33523 0.00503755 0)
(8.3366 0.00619135 0)
(8.3382 0.00717936 0)
(8.33999 0.00799526 0)
(8.34195 0.00863931 0)
(8.34402 0.00911643 0)
(8.34618 0.00943426 0)
(8.34841 0.00960185 0)
(8.35069 0.00962878 0)
(8.35299 0.00952457 0)
(8.35531 0.00929818 0)
(8.35763 0.00895785 0)
(8.35995 0.00851092 0)
(8.36226 0.00796376 0)
(8.36455 0.00732179 0)
(8.36682 0.00658945 0)
(8.36907 0.00577025 0)
(8.37129 0.00486685 0)
(8.37349 0.00388114 0)
(8.37567 0.00281426 0)
(8.37781 0.00166676 0)
(8.37992 0.000438717 0)
(8.382 -0.000870142 0)
(8.38405 -0.00226026 0)
(8.38606 -0.00373209 0)
(8.38804 -0.00528583 0)
(8.38997 -0.00692131 0)
(8.39185 -0.00863774 0)
(8.39369 -0.0104339 0)
(8.39547 -0.0123054 0)
(8.33303 0.000667539 0)
(8.33336 0.00197622 0)
(8.33408 0.0032046 0)
(8.3351 0.00432022 0)
(8.33639 0.00530217 0)
(8.3379 0.00613734 0)
(8.3396 0.00681933 0)
(8.34146 0.00734746 0)
(8.34343 0.00772506 0)
(8.3455 0.00795793 0)
(8.34763 0.00805325 0)
(8.34981 0.00801883 0)
(8.35203 0.00786249 0)
(8.35425 0.00759168 0)
(8.35649 0.0072133 0)
(8.35872 0.00673354 0)
(8.36094 0.00615779 0)
(8.36315 0.00549066 0)
(8.36533 0.00473594 0)
(8.3675 0.00389663 0)
(8.36963 0.00297506 0)
(8.37174 0.00197288 0)
(8.37382 0.000891216 0)
(8.37587 -0.000269291 0)
(8.37788 -0.00150835 0)
(8.37986 -0.00282587 0)
(8.38179 -0.00422188 0)
(8.38369 -0.00569631 0)
(8.38555 -0.00724887 0)
(8.38736 -0.00887893 0)
(8.38912 -0.0105854 0)
(8.39083 -0.0123668 0)
(8.39249 -0.0142188 0)
(8.33303 0.000562121 0)
(8.33334 0.00166318 0)
(8.33401 0.00269341 0)
(8.33498 0.0036245 0)
(8.3362 0.00443825 0)
(8.33763 0.00512275 0)
(8.33925 0.00567178 0)
(8.34101 0.00608397 0)
(8.34289 0.0063614 0)
(8.34487 0.00650829 0)
(8.34691 0.0065302 0)
(8.349 0.00643333 0)
(8.35112 0.00622392 0)
(8.35327 0.00590802 0)
(8.35541 0.00549127 0)
(8.35756 0.0049788 0)
(8.3597 0.00437506 0)
(8.36182 0.00368391 0)
(8.36392 0.00290845 0)
(8.36599 0.00205125 0)
(8.36804 0.00111432 0)
(8.37005 9.91587e-05 0)
(8.37204 -0.000993206 0)
(8.37399 -0.00216205 0)
(8.3759 -0.00340692 0)
(8.37777 -0.00472747 0)
(8.3796 -0.00612338 0)
(8.38139 -0.00759423 0)
(8.38313 -0.00913938 0)
(8.38482 -0.0107579 0)
(8.38646 -0.0124485 0)
(8.38804 -0.0142096 0)
(8.38958 -0.0160371 0)
(8.33303 0.000459799 0)
(8.33332 0.00135934 0)
(8.33396 0.00219699 0)
(8.33487 0.00294778 0)
(8.33602 0.00359589 0)
(8.33738 0.00413064 0)
(8.33892 0.00454627 0)
(8.3406 0.00484121 0)
(8.3424 0.00501663 0)
(8.34429 0.00507554 0)
(8.34624 0.00502205 0)
(8.34825 0.00486103 0)
(8.35029 0.00459726 0)
(8.35234 0.0042355 0)
(8.35441 0.00378017 0)
(8.35647 0.00323537 0)
(8.35852 0.00260449 0)
(8.36055 0.00189097 0)
(8.36257 0.00109718 0)
(8.36455 0.000225115 0)
(8.36651 -0.000723532 0)
(8.36844 -0.00174748 0)
(8.37032 -0.00284576 0)
(8.37217 -0.00401765 0)
(8.37398 -0.00526256 0)
(8.37575 -0.00657999 0)
(8.37747 -0.00796939 0)
(8.37915 -0.00943008 0)
(8.38078 -0.0109612 0)
(8.38235 -0.0125617 0)
(8.38387 -0.01423 0)
(8.38533 -0.0159647 0)
(8.38674 -0.0177618 0)
(8.33303 0.000360389 0)
(8.33331 0.00106426 0)
(8.3339 0.0017149 0)
(8.33477 0.00229042 0)
(8.33586 0.0027774 0)
(8.33715 0.00316629 0)
(8.33862 0.00345171 0)
(8.34022 0.00363181 0)
(8.34194 0.00370699 0)
(8.34375 0.00367918 0)
(8.34563 0.00355129 0)
(8.34755 0.00332688 0)
(8.34951 0.00300926 0)
(8.35148 0.00260213 0)
(8.35347 0.00210882 0)
(8.35545 0.00153245 0)
(8.35741 0.000876002 0)
(8.35937 0.000141369 0)
(8.36129 -0.000669162 0)
(8.36319 -0.00155385 0)
(8.36506 -0.00251143 0)
(8.36689 -0.00354084 0)
(8.36869 -0.00464121 0)
(8.37044 -0.00581184 0)
(8.37215 -0.00705208 0)
(8.37381 -0.0083613 0)
(8.37543 -0.00973883 0)
(8.37699 -0.0111838 0)
(8.37851 -0.0126954 0)
(8.37997 -0.0142721 0)
(8.38137 -0.0159127 0)
(8.38271 -0.0176156 0)
(8.384 -0.019377 0)
(8.33303 0.000263592 0)
(8.33329 0.000776386 0)
(8.33386 0.00124287 0)
(8.33468 0.00164345 0)
(8.33572 0.0019668 0)
(8.33695 0.00220516 0)
(8.33835 0.00235513 0)
(8.33988 0.00241536 0)
(8.34153 0.00238568 0)
(8.34326 0.00226713 0)
(8.34506 0.0020614 0)
(8.34691 0.00177189 0)
(8.34879 0.00140002 0)
(8.35069 0.000947946 0)
(8.3526 0.00041821 0)
(8.3545 -0.000187228 0)
(8.35638 -0.000866349 0)
(8.35825 -0.00161801 0)
(8.3601 -0.00244052 0)
(8.36191 -0.00333263 0)
(8.36369 -0.00429342 0)
(8.36543 -0.00532209 0)
(8.36713 -0.00641793 0)
(8.36879 -0.00758031 0)
(8.3704 -0.0088086 0)
(8.37196 -0.0101021 0)
(8.37347 -0.0114602 0)
(8.37493 -0.0128818 0)
(8.37633 -0.014366 0)
(8.37767 -0.0159114 0)
(8.37896 -0.0175167 0)
(8.38019 -0.0191803 0)
(8.38136 -0.0208987 0)
(8.33302 0.000169598 0)
(8.33327 0.000498309 0)
(8.33381 0.000789779 0)
(8.33459 0.00102713 0)
(8.33558 0.0012018 0)
(8.33675 0.00130396 0)
(8.33809 0.00133018 0)
(8.33957 0.00128011 0)
(8.34115 0.00115346 0)
(8.34282 0.000950549 0)
(8.34455 0.000672434 0)
(8.34633 0.000318915 0)
(8.34814 -0.000107284 0)
(8.34997 -0.000604631 0)
(8.3518 -0.00117173 0)
(8.35362 -0.0018074 0)
(8.35543 -0.00251068 0)
(8.35722 -0.00328013 0)
(8.35898 -0.00411501 0)
(8.36071 -0.00501464 0)
(8.36241 -0.00597829 0)
(8.36406 -0.00700537 0)
(8.36567 -0.0080953 0)
(8.36723 -0.00924753 0)
(8.36874 -0.0104615 0)
(8.3702 -0.0117365 0)
(8.37161 -0.0130718 0)
(8.37296 -0.0144665 0)
(8.37425 -0.0159196 0)
(8.37549 -0.0174298 0)
(8.37666 -0.0189957 0)
(8.37778 -0.0206159 0)
(8.37883 -0.022287 0)
(8.33302 7.67954e-05 0)
(8.33326 0.000218612 0)
(8.33378 0.000322635 0)
(8.33452 0.00037437 0)
(8.33547 0.000368149 0)
(8.3366 0.000306929 0)
(8.33788 0.000188832 0)
(8.3393 1.16268e-05 0)
(8.34082 -0.000224752 0)
(8.34243 -0.000520342 0)
(8.3441 -0.000875235 0)
(8.34581 -0.00129117 0)
(8.34755 -0.00176702 0)
(8.34931 -0.00230267 0)
(8.35107 -0.00289849 0)
(8.35282 -0.00355439 0)
(8.35456 -0.0042702 0)
(8.35627 -0.00504577 0)
(8.35795 -0.00588098 0)
(8.3596 -0.00677561 0)
(8.36121 -0.00772939 0)
(8.36278 -0.00874206 0)
(8.36429 -0.0098133 0)
(8.36576 -0.0109427 0)
(8.36718 -0.0121298 0)
(8.36854 -0.013374 0)
(8.36985 -0.0146745 0)
(8.3711 -0.0160305 0)
(8.37229 -0.0174409 0)
(8.37341 -0.0189046 0)
(8.37448 -0.0204201 0)
(8.37548 -0.0219862 0)
(8.37642 -0.0235996 0)
(8.33302 -9.35613e-06 0)
(8.33324 -2.72228e-05 0)
(8.33371 -6.62926e-05 0)
(8.33441 -0.000143331 0)
(8.33532 -0.000267427 0)
(8.33641 -0.000438615 0)
(8.33765 -0.000660173 0)
(8.33903 -0.000934546 0)
(8.34051 -0.00126149 0)
(8.34207 -0.00164057 0)
(8.34369 -0.00207174 0)
(8.34535 -0.0025538 0)
(8.34704 -0.0030877 0)
(8.34874 -0.00367376 0)
(8.35043 -0.00431209 0)
(8.35212 -0.00500285 0)
(8.35379 -0.00574625 0)
(8.35543 -0.00654245 0)
(8.35704 -0.00739161 0)
(8.35861 -0.00829384 0)
(8.36014 -0.00924919 0)
(8.36162 -0.0102576 0)
(8.36305 -0.011319 0)
(8.36443 -0.0124332 0)
(8.36575 -0.0135998 0)
(8.36702 -0.0148184 0)
(8.36823 -0.0160883 0)
(8.36938 -0.0174088 0)
(8.37046 -0.018779 0)
(8.37149 -0.0201978 0)
(8.37244 -0.021664 0)
(8.37334 -0.0231764 0)
(8.37417 -0.024732 0)
(8.33303 -0.000106741 0)
(8.33325 -0.000343748 0)
(8.33373 -0.000626855 0)
(8.33441 -0.000955996 0)
(8.33528 -0.00131706 0)
(8.33633 -0.0017029 0)
(8.33752 -0.0021082 0)
(8.33885 -0.00253094 0)
(8.34027 -0.00297318 0)
(8.34178 -0.0034387 0)
(8.34334 -0.00393169 0)
(8.34494 -0.00445614 0)
(8.34657 -0.00501606 0)
(8.34821 -0.00561461 0)
(8.34984 -0.00625444 0)
(8.35147 -0.00693775 0)
(8.35307 -0.00766633 0)
(8.35464 -0.00844153 0)
(8.35618 -0.00926441 0)
(8.35767 -0.0101357 0)
(8.35912 -0.011056 0)
(8.36052 -0.0120255 0)
(8.36187 -0.0130443 0)
(8.36317 -0.0141124 0)
(8.36441 -0.0152295 0)
(8.36558 -0.0163952 0)
(8.3667 -0.0176089 0)
(8.36775 -0.0188697 0)
(8.36874 -0.0201769 0)
(8.36967 -0.0215294 0)
(8.37052 -0.0229258 0)
(8.37131 -0.0243652 0)
(8.37204 -0.0258447 0)
(8.333 -0.000153765 0)
(8.33315 -0.00042463 0)
(8.33354 -0.00070028 0)
(8.33416 -0.00101823 0)
(8.33501 -0.00139121 0)
(8.33605 -0.0018185 0)
(8.33725 -0.00229242 0)
(8.33858 -0.0028049 0)
(8.34001 -0.00335024 0)
(8.34151 -0.0039249 0)
(8.34306 -0.00452723 0)
(8.34464 -0.0051569 0)
(8.34624 -0.00581468 0)
(8.34784 -0.00650192 0)
(8.34943 -0.00722025 0)
(8.351 -0.00797136 0)
(8.35254 -0.00875693 0)
(8.35405 -0.0095785 0)
(8.35552 -0.0104375 0)
(8.35694 -0.011335 0)
(8.35832 -0.0122721 0)
(8.35964 -0.0132495 0)
(8.36091 -0.0142678 0)
(8.36212 -0.0153274 0)
(8.36327 -0.0164284 0)
(8.36436 -0.0175708 0)
(8.36538 -0.0187543 0)
(8.36634 -0.0199785 0)
(8.36723 -0.0212429 0)
(8.36806 -0.0225467 0)
(8.36882 -0.0238889 0)
(8.36951 -0.0252688 0)
(8.37013 -0.0266838 0)
(8.33305 -0.000342014 0)
(8.33333 -0.00110169 0)
(8.33378 -0.00194155 0)
(8.3344 -0.00279521 0)
(8.33518 -0.0036065 0)
(8.33613 -0.00435539 0)
(8.33724 -0.0050438 0)
(8.33848 -0.00568264 0)
(8.33982 -0.00628585 0)
(8.34125 -0.0068675 0)
(8.34274 -0.00744043 0)
(8.34426 -0.00801572 0)
(8.34581 -0.00860261 0)
(8.34735 -0.00920858 0)
(8.34889 -0.00983949 0)
(8.35041 -0.0104999 0)
(8.3519 -0.0111934 0)
(8.35336 -0.0119227 0)
(8.35477 -0.0126897 0)
(8.35613 -0.0134958 0)
(8.35745 -0.0143421 0)
(8.35871 -0.0152292 0)
(8.35991 -0.0161575 0)
(8.36104 -0.0171269 0)
(8.36212 -0.0181374 0)
(8.36313 -0.0191887 0)
(8.36407 -0.0202801 0)
(8.36495 -0.021411 0)
(8.36576 -0.0225807 0)
(8.3665 -0.0237882 0)
(8.36717 -0.0250324 0)
(8.36777 -0.0263123 0)
(8.3683 -0.0276255 0)
(8.33294 -0.000108629 0)
(8.33285 -0.000235087 0)
(8.33307 -0.000424952 0)
(8.33364 -0.000806965 0)
(8.33451 -0.00138491 0)
(8.33561 -0.00210346 0)
(8.33687 -0.00290525 0)
(8.33825 -0.00374921 0)
(8.3397 -0.00460984 0)
(8.34121 -0.00547249 0)
(8.34274 -0.00632995 0)
(8.34428 -0.00718007 0)
(8.34583 -0.00802391 0)
(8.34735 -0.00886434 0)
(8.34886 -0.00970509 0)
(8.35033 -0.0105503 0)
(8.35177 -0.0114039 0)
(8.35316 -0.0122697 0)
(8.3545 -0.0131511 0)
(8.3558 -0.0140512 0)
(8.35703 -0.0149724 0)
(8.35821 -0.0159171 0)
(8.35933 -0.0168868 0)
(8.36038 -0.0178832 0)
(8.36137 -0.0189071 0)
(8.36229 -0.0199594 0)
(8.36314 -0.0210406 0)
(8.36392 -0.0221509 0)
(8.36464 -0.0232902 0)
(8.36528 -0.0244584 0)
(8.36585 -0.025655 0)
(8.36636 -0.0268795 0)
(8.36679 -0.0281304 0)
(8.33317 -0.000801319 0)
(8.33366 -0.00274501 0)
(8.33405 -0.00474681 0)
(8.33443 -0.00647225 0)
(8.33497 -0.00784632 0)
(8.33573 -0.00892321 0)
(8.33672 -0.00977698 0)
(8.33788 -0.0104714 0)
(8.33917 -0.0110581 0)
(8.34056 -0.0115773 0)
(8.34202 -0.0120597 0)
(8.34351 -0.0125277 0)
(8.34502 -0.0129979 0)
(8.34652 -0.0134818 0)
(8.34801 -0.0139876 0)
(8.34947 -0.0145211 0)
(8.35089 -0.015086 0)
(8.35227 -0.015685 0)
(8.35359 -0.0163196 0)
(8.35486 -0.0169907 0)
(8.35607 -0.0176989 0)
(8.35721 -0.0184442 0)
(8.35829 -0.0192265 0)
(8.35931 -0.0200453 0)
(8.36025 -0.0209001 0)
(8.36112 -0.0217902 0)
(8.36192 -0.022715 0)
(8.36264 -0.0236734 0)
(8.3633 -0.0246646 0)
(8.36388 -0.0256875 0)
(8.36439 -0.0267412 0)
(8.36482 -0.0278246 0)
(8.36518 -0.0289357 0)
(8.33263 0.000553854 0)
(8.33175 0.00192302 0)
(8.33174 0.00273759 0)
(8.33255 0.00258098 0)
(8.33378 0.00167593 0)
(8.3352 0.000376351 0)
(8.33671 -0.00108657 0)
(8.33826 -0.00258982 0)
(8.33982 -0.00406735 0)
(8.34139 -0.00548389 0)
(8.34293 -0.00682464 0)
(8.34445 -0.00808768 0)
(8.34594 -0.00927806 0)
(8.3474 -0.0104043 0)
(8.34881 -0.0114761 0)
(8.35018 -0.0125035 0)
(8.3515 -0.0134961 0)
(8.35277 -0.0144624 0)
(8.35399 -0.0154103 0)
(8.35514 -0.0163463 0)
(8.35624 -0.0172763 0)
(8.35728 -0.0182052 0)
(8.35825 -0.0191369 0)
(8.35915 -0.020075 0)
(8.35999 -0.0210222 0)
(8.36076 -0.0219808 0)
(8.36145 -0.0229524 0)
(8.36208 -0.0239386 0)
(8.36264 -0.0249402 0)
(8.36312 -0.0259579 0)
(8.36354 -0.0269921 0)
(8.36388 -0.0280429 0)
(8.36416 -0.0291094 0)
(8.33358 -0.00198354 0)
(8.33464 -0.00697206 0)
(8.33436 -0.0118115 0)
(8.33365 -0.0150202 0)
(8.33341 -0.0168388 0)
(8.33378 -0.0178527 0)
(8.33462 -0.0183828 0)
(8.33576 -0.0186232 0)
(8.3371 -0.0187085 0)
(8.33858 -0.0187262 0)
(8.34013 -0.0187307 0)
(8.34172 -0.0187551 0)
(8.34331 -0.0188184 0)
(8.34488 -0.0189312 0)
(8.34643 -0.019098 0)
(8.34792 -0.0193205 0)
(8.34936 -0.0195981 0)
(8.35075 -0.0199291 0)
(8.35206 -0.0203113 0)
(8.35331 -0.0207422 0)
(8.35449 -0.0212193 0)
(8.3556 -0.0217401 0)
(8.35663 -0.0223022 0)
(8.35759 -0.0229034 0)
(8.35848 -0.0235417 0)
(8.35928 -0.0242151 0)
(8.36001 -0.0249218 0)
(8.36067 -0.0256601 0)
(8.36125 -0.0264285 0)
(8.36175 -0.0272254 0)
(8.36218 -0.0280495 0)
(8.36253 -0.0288997 0)
(8.36281 -0.0297739 0)
(8.33162 0.00367816 0)
(8.32827 0.0101981 0)
(8.32843 0.0133332 0)
(8.33096 0.0132496 0)
(8.33351 0.0111456 0)
(8.33565 0.0082584 0)
(8.33756 0.00521472 0)
(8.33931 0.00225441 0)
(8.34092 -0.000510792 0)
(8.34243 -0.00303304 0)
(8.34388 -0.00530721 0)
(8.34527 -0.0073495 0)
(8.34662 -0.00918441 0)
(8.34793 -0.0108389 0)
(8.3492 -0.0123395 0)
(8.35045 -0.0137106 0)
(8.35165 -0.0149739 0)
(8.35282 -0.0161484 0)
(8.35395 -0.0172504 0)
(8.35503 -0.0182936 0)
(8.35607 -0.0192898 0)
(8.35705 -0.0202487 0)
(8.35799 -0.0211785 0)
(8.35886 -0.0220862 0)
(8.35967 -0.0229775 0)
(8.36043 -0.0238571 0)
(8.36112 -0.0247288 0)
(8.36174 -0.0255959 0)
(8.3623 -0.026461 0)
(8.36279 -0.0273261 0)
(8.36321 -0.0281927 0)
(8.36356 -0.0290619 0)
(8.36384 -0.029934 0)
(8.33429 -0.0064461 0)
(8.33461 -0.0207254 0)
(8.33069 -0.0299863 0)
(8.32665 -0.0340234 0)
(8.32471 -0.0349419 0)
(8.32477 -0.0344214 0)
(8.32591 -0.0332755 0)
(8.32759 -0.0318984 0)
(8.32959 -0.0305129 0)
(8.33178 -0.0292364 0)
(8.33406 -0.0281207 0)
(8.33637 -0.0271825 0)
(8.33867 -0.0264203 0)
(8.34092 -0.025824 0)
(8.34313 -0.0253789 0)
(8.34527 -0.0250694 0)
(8.34733 -0.0248803 0)
(8.34932 -0.0247973 0)
(8.35122 -0.0248078 0)
(8.35304 -0.0249005 0)
(8.35478 -0.0250657 0)
(8.35642 -0.0252949 0)
(8.35797 -0.0255809 0)
(8.35943 -0.0259173 0)
(8.3608 -0.0262989 0)
(8.36208 -0.0267211 0)
(8.36327 -0.0271798 0)
(8.36437 -0.0276717 0)
(8.36537 -0.0281938 0)
(8.36629 -0.0287435 0)
(8.36712 -0.0293187 0)
(8.36786 -0.0299176 0)
(8.36852 -0.0305379 0)
(8.32884 0.0225898 0)
(8.32235 0.042755 0)
(8.32667 0.0439791 0)
(8.33328 0.038016 0)
(8.33775 0.0306684 0)
(8.34054 0.0235063 0)
(8.34279 0.0168489 0)
(8.34492 0.0108771 0)
(8.34705 0.0056472 0)
(8.34926 0.00111135 0)
(8.35155 -0.00281027 0)
(8.35393 -0.00619945 0)
(8.35639 -0.00913387 0)
(8.35889 -0.011684 0)
(8.36141 -0.0139114 0)
(8.36394 -0.0158684 0)
(8.36646 -0.0175992 0)
(8.36893 -0.0191412 0)
(8.37136 -0.0205253 0)
(8.37373 -0.0217777 0)
(8.37603 -0.0229199 0)
(8.37825 -0.0239702 0)
(8.38038 -0.0249436 0)
(8.38242 -0.0258529 0)
(8.38436 -0.0267088 0)
(8.3862 -0.02752 0)
(8.38794 -0.0282941 0)
(8.38958 -0.0290374 0)
(8.39111 -0.0297552 0)
(8.39254 -0.0304521 0)
(8.39386 -0.031132 0)
(8.39507 -0.0317976 0)
(8.39618 -0.0324529 0)
(8.32436 -0.0380354 0)
(8.29385 -0.0683387 0)
(8.27212 -0.0717327 0)
(8.26665 -0.068658 0)
(8.27354 -0.0643408 0)
(8.28616 -0.0595369 0)
(8.30089 -0.0548755 0)
(8.31618 -0.0507216 0)
(8.33118 -0.0471369 0)
(8.34543 -0.0440964 0)
(8.35873 -0.0415556 0)
(8.37102 -0.0394556 0)
(8.38231 -0.0377345 0)
(8.39263 -0.0363353 0)
(8.40205 -0.035208 0)
(8.41064 -0.0343096 0)
(8.41845 -0.0336034 0)
(8.42555 -0.0330588 0)
(8.432 -0.0326505 0)
(8.43785 -0.0323571 0)
(8.44315 -0.0321611 0)
(8.44793 -0.032048 0)
(8.45225 -0.0320058 0)
(8.45614 -0.0320244 0)
(8.45962 -0.0320954 0)
(8.46273 -0.0322117 0)
(8.4655 -0.0323674 0)
(8.46794 -0.0325575 0)
(8.47008 -0.0327778 0)
(8.47194 -0.0330243 0)
(8.47354 -0.0332939 0)
(8.4749 -0.0335836 0)
(8.47604 -0.0338897 0)