/*--------------------------------*- C++ -*----------------------------------*\
| =========                 |                                                 |
| \\      /  F ield         | OpenFOAM: The Open Source CFD Toolbox           |
|  \\    /   O peration     | Version:  2.1.1                                 |
|   \\  /    A nd           | Web:      www.OpenFOAM.org                      |
|    \\/     M anipulation  |                                                 |
\*---------------------------------------------------------------------------*/
FoamFile
{
    version     2.0;
    format      ascii;
    class       volScalarField;
    location    "0.03";
    object      epsilon;
}
// * * * * * * * * * * * * * * * * * * * * * * * * * * * * * * * * * * * * * //

dimensions      [0 2 -3 0 0 0 0];

internalField   nonuniform List<scalar> 
6820
(
151.447
203.15
260.734
321.763
383.644
443.771
499.872
550.249
593.859
630.273
659.567
682.187
698.814
710.247
717.311
720.802
721.447
719.885
716.663
712.237
706.978
701.187
695.098
688.896
682.716
676.662
670.798
665.185
659.767
654.909
648.84
649.889
617.926
11.7448
21.414
29.9323
38.5982
47.5299
56.4715
65.1845
73.4666
81.1552
88.1418
94.3715
99.837
104.569
108.622
112.068
114.983
117.445
119.526
121.29
122.794
124.09
125.217
126.214
127.112
127.939
128.723
129.492
130.284
131.141
132.146
133.387
135.142
137.983
5.83778
7.51729
9.20791
10.8114
12.3229
13.7514
15.0932
16.3444
17.503
18.5688
19.5433
20.4297
21.233
21.9595
22.6159
23.2097
23.748
24.2379
24.6859
25.0981
25.4797
25.8357
26.17
26.4863
26.7878
27.077
27.3563
27.6281
27.8942
28.1582
28.4219
28.687
29.001
5.24226
5.56003
6.00456
6.49389
6.98665
7.46363
7.91578
8.33881
8.73108
9.09241
9.42356
9.72584
10.0009
10.2506
10.4768
10.6816
10.8669
11.0344
11.1861
11.3234
11.448
11.5613
11.6644
11.7585
11.8446
11.9234
11.9956
12.0616
12.1214
12.1753
12.2217
12.2625
12.2873
5.17349
5.18678
5.26824
5.39785
5.55655
5.72996
5.90822
6.0849
6.25599
6.41904
6.57268
6.7162
6.84935
6.9722
7.085
7.18815
7.28213
7.36749
7.44479
7.5146
7.5775
7.63403
7.68475
7.73017
7.77076
7.80699
7.83929
7.86804
7.89362
7.91638
7.93656
7.95465
7.97041
5.16877
5.12129
5.09599
5.09478
5.11534
5.15306
5.20298
5.26072
5.32285
5.38679
5.45066
5.51314
5.57331
5.63054
5.68445
5.73481
5.78151
5.82455
5.86397
5.89989
5.93245
5.96181
5.98814
6.01165
6.03254
6.05102
6.06729
6.08159
6.09416
6.10524
6.11515
6.12418
6.13283
5.16887
5.11168
5.06116
5.01964
4.98843
4.96758
4.95619
4.95281
4.95585
4.96378
4.97525
4.98914
5.00454
5.02072
5.03712
5.05331
5.06896
5.08384
5.09777
5.11064
5.12238
5.13296
5.14238
5.15065
5.15782
5.16393
5.16906
5.17331
5.17677
5.17959
5.18195
5.18405
5.1862
5.16901
5.11062
5.05513
5.00339
4.95621
4.91418
4.87754
4.84621
4.81984
4.79794
4.77991
4.76518
4.75317
4.7434
4.73539
4.72877
4.72321
4.71843
4.71421
4.71036
4.70675
4.70324
4.69976
4.69623
4.69262
4.68889
4.68503
4.68107
4.67703
4.67296
4.66896
4.66516
4.66174
5.16903
5.11054
5.05431
5.00049
4.9493
4.90096
4.85569
4.81361
4.77476
4.73908
4.70642
4.6766
4.64937
4.62449
4.6017
4.58078
4.56149
4.54363
4.52701
4.51147
4.49687
4.48307
4.46998
4.4575
4.44555
4.43409
4.42307
4.41246
4.40225
4.39247
4.38315
4.37436
4.36623
5.16904
5.11053
5.0542
5.00002
4.94797
4.89808
4.85037
4.80487
4.76161
4.72059
4.68179
4.64516
4.61062
4.57808
4.54743
4.51855
4.49132
4.46562
4.44132
4.41833
4.39653
4.37582
4.35613
4.33736
4.31946
4.30236
4.28601
4.27038
4.25545
4.24122
4.22771
4.21497
4.20308
5.16904
5.11052
5.05417
4.99994
4.94774
4.89752
4.84922
4.80279
4.75822
4.71545
4.67447
4.63524
4.59772
4.56186
4.52761
4.4949
4.46368
4.43387
4.4054
4.37822
4.35224
4.32742
4.30368
4.28097
4.25923
4.23842
4.21851
4.19945
4.18125
4.16388
4.14738
4.13178
4.11713
5.16903
5.11052
5.05416
4.99991
4.94768
4.89739
4.84896
4.80232
4.7574
4.71414
4.6725
4.63242
4.59385
4.55676
4.52109
4.4868
4.45384
4.42217
4.39175
4.36251
4.33443
4.30745
4.28154
4.25665
4.23274
4.20979
4.18776
4.16664
4.14642
4.1271
4.1087
4.09125
4.07479
5.16903
5.11051
5.05415
4.99989
4.94765
4.89735
4.84888
4.80219
4.75718
4.7138
4.67197
4.63164
4.59275
4.55525
4.5191
4.48424
4.45063
4.41822
4.38699
4.35688
4.32787
4.29991
4.27298
4.24703
4.22205
4.19801
4.17489
4.15268
4.13137
4.11097
4.09149
4.07298
4.05546
5.16903
5.11051
5.05414
4.99988
4.94763
4.89731
4.84883
4.80212
4.75708
4.71366
4.67178
4.63138
4.5924
4.55477
4.51846
4.48342
4.44958
4.41692
4.38539
4.35495
4.32558
4.29722
4.26986
4.24347
4.21802
4.19349
4.16987
4.14714
4.12531
4.10439
4.08437
4.06531
4.04721
5.16903
5.1105
5.05413
4.99986
4.94761
4.89728
4.84879
4.80206
4.75701
4.71357
4.67167
4.63124
4.59222
4.55456
4.51819
4.48308
4.44917
4.41642
4.38478
4.35423
4.32472
4.29621
4.26869
4.24212
4.21648
4.19176
4.16793
4.14499
4.12293
4.10176
4.0815
4.06216
4.04377
5.16903
5.1105
5.05413
4.99985
4.94759
4.89726
4.84876
4.80202
4.75695
4.7135
4.67158
4.63113
4.59209
4.5544
4.51801
4.48287
4.44893
4.41614
4.38446
4.35385
4.32428
4.29572
4.26813
4.24149
4.21578
4.19097
4.16705
4.14402
4.12186
4.10058
4.08019
4.06071
4.04214
5.16903
5.1105
5.05412
4.99984
4.94758
4.89723
4.84873
4.80197
4.7569
4.71343
4.67149
4.63103
4.59197
4.55427
4.51786
4.48269
4.44872
4.41591
4.3842
4.35357
4.32397
4.29537
4.26775
4.24107
4.21531
4.19046
4.1665
4.14341
4.12119
4.09984
4.07937
4.05979
4.0411
5.16903
5.1105
5.05412
4.99984
4.94756
4.89721
4.8487
4.80194
4.75685
4.71337
4.67142
4.63094
4.59186
4.55414
4.51771
4.48252
4.44853
4.41569
4.38396
4.3533
4.32368
4.29505
4.2674
4.24069
4.2149
4.19001
4.16601
4.14288
4.12061
4.0992
4.07866
4.05898
4.04018
5.16903
5.11049
5.05411
4.99983
4.94755
4.8972
4.84867
4.8019
4.75681
4.71331
4.67135
4.63085
4.59176
4.55402
4.51757
4.48236
4.44835
4.41549
4.38373
4.35305
4.32339
4.29474
4.26706
4.24032
4.21449
4.18957
4.16552
4.14234
4.12002
4.09855
4.07793
4.05816
4.03924
5.16903
5.11049
5.05411
4.99982
4.94754
4.89718
4.84865
4.80187
4.75676
4.71326
4.67128
4.63077
4.59166
4.5539
4.51743
4.48221
4.44817
4.41529
4.38351
4.35279
4.32311
4.29443
4.26671
4.23994
4.21408
4.18911
4.16502
4.14179
4.11941
4.09787
4.07716
4.0573
4.03826
5.16903
5.11049
5.05411
4.99982
4.94753
4.89717
4.84863
4.80184
4.75673
4.71321
4.67122
4.63069
4.59157
4.55379
4.51731
4.48206
4.448
4.41509
4.38329
4.35254
4.32283
4.29412
4.26637
4.23955
4.21365
4.18864
4.1645
4.14121
4.11877
4.09716
4.07636
4.05639
4.03724
5.16903
5.11049
5.05411
4.99981
4.94753
4.89716
4.84861
4.80182
4.75669
4.71317
4.67116
4.63062
4.59149
4.55369
4.51718
4.48192
4.44784
4.4149
4.38307
4.3523
4.32256
4.29381
4.26602
4.23917
4.21322
4.18816
4.16397
4.14062
4.11811
4.09642
4.07554
4.05546
4.03618
5.16903
5.11049
5.05411
4.99981
4.94752
4.89715
4.8486
4.8018
4.75666
4.71312
4.67111
4.63056
4.59141
4.55359
4.51707
4.48178
4.44767
4.41471
4.38286
4.35206
4.32228
4.2935
4.26567
4.23878
4.21279
4.18768
4.16343
4.14002
4.11744
4.09567
4.07469
4.05451
4.03511
5.16903
5.11049
5.0541
4.99981
4.94752
4.89714
4.84859
4.80178
4.75664
4.71309
4.67106
4.6305
4.59133
4.5535
4.51696
4.48165
4.44752
4.41454
4.38265
4.35182
4.32201
4.29319
4.26533
4.23839
4.21236
4.1872
4.16289
4.13942
4.11676
4.09491
4.07384
4.05356
4.03404
5.16903
5.11049
5.0541
4.99981
4.94751
4.89713
4.84857
4.80176
4.75661
4.71305
4.67102
4.63044
4.59126
4.55341
4.51685
4.48152
4.44737
4.41436
4.38245
4.35159
4.32175
4.29289
4.26499
4.23801
4.21193
4.18671
4.16235
4.13881
4.11608
4.09415
4.073
4.05261
4.03297
5.16903
5.11049
5.0541
4.99981
4.94751
4.89712
4.84856
4.80174
4.75659
4.71302
4.67098
4.63039
4.59119
4.55333
4.51675
4.4814
4.44723
4.41419
4.38225
4.35136
4.32149
4.2926
4.26466
4.23763
4.2115
4.18624
4.16182
4.13822
4.11542
4.09341
4.07216
4.05167
4.03193
5.16903
5.11049
5.0541
4.99981
4.94751
4.89712
4.84855
4.80173
4.75657
4.71299
4.67094
4.63033
4.59112
4.55325
4.51665
4.48128
4.44709
4.41403
4.38206
4.35114
4.32124
4.29231
4.26433
4.23726
4.21109
4.18577
4.16129
4.13763
4.11476
4.09267
4.07135
4.05076
4.03091
5.16903
5.11049
5.0541
4.99981
4.94751
4.89712
4.84855
4.80172
4.75655
4.71297
4.6709
4.63029
4.59107
4.55318
4.51656
4.48117
4.44696
4.41388
4.38188
4.35094
4.321
4.29204
4.26402
4.23691
4.21069
4.18533
4.16079
4.13707
4.11414
4.09197
4.07057
4.04989
4.02994
5.16903
5.11049
5.05411
4.99981
4.9475
4.89711
4.84854
4.80171
4.75653
4.71294
4.67087
4.63024
4.59101
4.5531
4.51647
4.48106
4.44683
4.41373
4.38171
4.35073
4.32077
4.29177
4.26372
4.23657
4.2103
4.18489
4.16031
4.13653
4.11353
4.0913
4.06982
4.04906
4.02902
5.16903
5.11049
5.0541
4.9998
4.9475
4.89711
4.84854
4.8017
4.75653
4.71293
4.67085
4.63022
4.59098
4.55306
4.51641
4.48099
4.44674
4.41361
4.38157
4.35057
4.32057
4.29154
4.26346
4.23627
4.20996
4.18451
4.15987
4.13604
4.11299
4.09069
4.06914
4.04831
4.02818
5.16903
5.1105
5.05411
4.99981
4.94751
4.89712
4.84854
4.8017
4.75651
4.71291
4.67082
4.63018
4.59092
4.55299
4.51634
4.4809
4.44663
4.41348
4.38142
4.3504
4.32038
4.29132
4.26321
4.23599
4.20965
4.18415
4.15948
4.1356
4.1125
4.09015
4.06854
4.04764
4.02745
5.16903
5.11049
5.05411
4.99981
4.94752
4.89713
4.84857
4.80174
4.75656
4.71296
4.67088
4.63023
4.59097
4.55304
4.51637
4.48092
4.44664
4.41348
4.3814
4.35036
4.32032
4.29125
4.26311
4.23587
4.2095
4.18398
4.15928
4.13537
4.11223
4.08985
4.0682
4.04726
4.02702
5.16903
5.11051
5.05415
4.99987
4.94759
4.89721
4.84864
4.8018
4.75662
4.71302
4.67093
4.63029
4.59103
4.5531
4.51644
4.48099
4.44672
4.41358
4.38151
4.35049
4.32048
4.29143
4.26331
4.2361
4.20977
4.18428
4.15961
4.13574
4.11264
4.0903
4.06869
4.04779
4.02758
5.16903
5.1105
5.05415
4.99991
4.94769
4.89738
4.84888
4.8021
4.75698
4.71344
4.67142
4.63084
4.59166
4.55381
4.51725
4.48192
4.44778
4.41478
4.38288
4.35204
4.32222
4.29339
4.26551
4.23855
4.21247
4.18726
4.16288
4.13931
4.11652
4.0945
4.07321
4.05264
4.03277
5.16905
5.11065
5.05444
5.00031
4.94817
4.89794
4.84955
4.80295
4.75806
4.71482
4.67318
4.63307
4.59443
4.55721
4.52135
4.48681
4.45352
4.42145
4.39053
4.36073
4.33201
4.30431
4.27761
4.25185
4.22702
4.20306
4.17995
4.15767
4.13617
4.11544
4.09544
4.07615
4.05754
5.16908
5.11077
5.05486
5.00134
4.95014
4.90114
4.8543
4.80954
4.76682
4.72608
4.68724
4.65023
4.61497
4.58137
4.54934
4.51881
4.48968
4.46188
4.43532
4.40994
4.38565
4.3624
4.34011
4.31874
4.29823
4.27852
4.25956
4.24131
4.22374
4.20679
4.19044
4.17465
4.15938
5.1694
5.11365
5.06209
5.01466
4.97137
4.93216
4.89685
4.86515
4.83675
4.81132
4.78854
4.76811
4.74973
4.73314
4.71811
4.70443
4.6919
4.68035
4.66964
4.65963
4.6502
4.64124
4.63268
4.62441
4.61638
4.60852
4.60078
4.59311
4.58547
4.57782
4.57014
4.5624
4.55459
5.17806
5.16336
5.16904
5.19007
5.22246
5.2632
5.30992
5.36071
5.41419
5.46929
5.52517
5.58121
5.63692
5.69191
5.74591
5.79873
5.8502
5.90024
5.94881
5.99587
6.04144
6.08555
6.12826
6.16962
6.20973
6.24868
6.28657
6.32352
6.35966
6.39512
6.43004
6.46456
6.4988
5.63868
6.43079
7.14691
7.8305
8.50512
9.16482
9.80381
10.42
11.0135
11.5856
12.138
12.6725
13.1912
13.6957
14.1878
14.6689
15.1405
15.6038
16.06
16.51
16.955
17.3959
17.8333
18.2682
18.7012
19.133
19.5641
19.9952
20.4267
20.859
21.2925
21.7277
22.1643
44.7794
48.3125
51.8867
55.466
59.0314
62.5709
66.0736
69.5297
72.9302
76.2671
79.5332
82.7225
85.8295
88.85
91.7804
94.6178
97.3601
100.006
102.554
105.003
107.355
109.608
111.764
113.824
115.788
117.659
119.437
121.124
122.722
124.233
125.659
127.002
128.265
722.955
872.051
1036.22
1190.77
1282.35
1277.51
1193.26
1072.8
952.956
852.205
774.333
716.581
671.365
631.329
589.898
541.246
480.491
404.699
314.965
218.783
130.143
63.9138
26.813
13.0385
10.4349
11.036
12.1421
13.1526
13.9687
14.571
14.9545
15.1335
15.1418
15.0241
14.8271
14.5906
14.3427
14.0981
13.8619
13.6352
13.421
13.2255
13.0545
12.9075
12.7721
12.6229
12.4258
12.1451
11.7516
11.2288
10.5772
9.81454
8.97419
8.09992
7.23898
6.43429
5.71786
5.10719
4.60528
4.2039
3.88831
3.64185
3.44911
3.29743
3.17718
3.08131
3.00469
2.94349
2.89477
2.85618
2.82582
2.8021
2.78372
2.7696
2.75886
2.75078
2.74478
2.74039
2.73722
2.73499
2.73345
2.73243
2.73178
2.73138
2.73117
2.73107
2.73103
2.73104
2.73105
2.73106
2.73105
2.73101
2.73095
2.73086
2.73075
2.7306
2.73044
2.73019
2.73026
2.72854
140.816
151.824
181.622
239.263
327.351
435.043
542.084
628.522
682.421
702.469
693.86
659.502
606.894
542.649
470.465
391.997
308.932
225.038
147.07
83.4581
40.6189
18.7338
11.1248
9.72846
10.1096
10.8525
11.6218
12.3356
12.9476
13.4176
13.7238
13.8688
13.8752
13.7773
13.6128
13.4149
13.2071
13.0019
12.8025
12.6083
12.4212
12.2472
12.0944
11.9661
11.8548
11.7401
11.5913
11.3742
11.0586
10.6254
10.0703
9.40599
8.65989
7.87053
7.08118
6.33273
5.65733
5.07438
4.5899
4.19885
3.88922
3.64627
3.45575
3.30556
3.18632
3.09105
3.01466
2.95337
2.9043
2.86516
2.83412
2.80964
2.79048
2.77558
2.76409
2.7553
2.74864
2.74364
2.73993
2.73721
2.73524
2.73383
2.73284
2.73214
2.73166
2.73133
2.7311
2.73092
2.73078
2.73065
2.73053
2.73039
2.73024
2.73008
2.72989
2.72969
2.72948
2.72918
2.72923
2.72746
29.3374
29.5354
29.3666
30.2003
35.878
50.7541
76.1321
109.043
143.615
172.837
191.844
201.026
198.356
183.235
157.334
124.308
89.1258
57.1463
32.7772
17.9765
11.3264
9.30925
9.05771
9.32419
9.7747
10.3179
10.8992
11.4638
11.9584
12.3425
12.5956
12.7178
12.7262
12.6478
12.5131
12.35
12.1787
12.0095
11.8441
11.6804
11.5188
11.3646
11.2269
11.1123
11.0183
10.9297
10.8198
10.6564
10.4093
10.0568
9.5907
9.01819
8.36111
7.65259
6.93181
6.23742
5.60146
5.04504
4.57702
4.19546
3.89106
3.65104
3.46229
3.31329
3.19487
3.10013
3.02398
2.96265
2.9133
2.87369
2.84204
2.81686
2.79694
2.78128
2.76903
2.75952
2.75218
2.74655
2.74226
2.73902
2.73657
2.73474
2.73337
2.73234
2.73157
2.73098
2.73051
2.73014
2.72982
2.72954
2.72928
2.72903
2.72878
2.72852
2.72826
2.72799
2.72772
2.72738
2.72738
2.72556
12.3189
12.3248
12.1167
11.3808
9.96879
8.46379
8.10928
9.69725
13.1365
17.6152
22.0779
25.1741
26.2811
25.2072
22.2733
18.3081
14.3931
11.3975
9.60834
8.77038
8.45189
8.39439
8.52275
8.80283
9.1957
9.65997
10.1514
10.6241
11.0363
11.3569
11.5702
11.6764
11.6887
11.6285
11.5209
11.3891
11.2505
11.1138
10.9796
10.8446
10.7071
10.5716
10.4472
10.3431
10.2611
10.1911
10.111
9.99145
9.80247
9.52078
9.1346
8.64625
8.07206
7.43993
6.78479
6.14279
5.54548
5.01532
4.56367
4.19154
3.89225
3.65497
3.46781
3.31988
3.20224
3.10804
3.0322
2.97096
2.92146
2.88153
2.84939
2.82362
2.80304
2.78668
2.77373
2.76353
2.75552
2.74927
2.74441
2.74063
2.7377
2.73543
2.73366
2.73228
2.7312
2.73033
2.72962
2.72902
2.72852
2.72807
2.72766
2.72728
2.72692
2.72657
2.72622
2.72587
2.72554
2.72514
2.7251
2.72322
7.98653
8.00605
8.02555
8.01191
7.8697
7.48851
6.90618
6.37228
6.19368
6.72113
7.53866
8.25261
8.70984
8.87051
8.7739
8.51257
8.19314
7.8995
7.68289
7.57172
7.57757
7.69714
7.91798
8.22458
8.59815
9.01346
9.43915
9.84151
10.1896
10.4607
10.6434
10.7383
10.7555
10.7122
10.6287
10.5247
10.4151
10.3075
10.2015
10.0929
9.97841
9.86071
9.74869
9.65302
9.57922
9.52199
9.46387
9.37866
9.23771
9.01673
8.70103
8.2886
7.79068
7.23009
6.63748
6.04626
5.48708
4.98327
4.54833
4.18592
3.89192
3.65743
3.47183
3.32492
3.20804
3.11443
3.039
2.97796
2.92848
2.88838
2.85592
2.8297
2.80859
2.79165
2.77809
2.76727
2.75866
2.75183
2.74641
2.74212
2.73872
2.73601
2.73386
2.73212
2.73072
2.72956
2.7286
2.72779
2.72708
2.72646
2.7259
2.72539
2.72491
2.72445
2.72402
2.72359
2.72319
2.72273
2.72264
2.72071
6.1427
6.15653
6.17827
6.21149
6.25231
6.28111
6.26952
6.21223
6.14973
6.16288
6.24523
6.36213
6.477
6.56568
6.61983
6.64518
6.65702
6.67474
6.71745
6.80127
6.93741
7.13149
7.38409
7.69008
8.0375
8.40779
8.77764
9.12209
9.41849
9.65027
9.80932
9.89623
9.91899
9.89105
9.82892
9.74924
9.66511
9.5831
9.50249
9.41802
9.32507
9.22458
9.12448
9.03619
8.96805
8.91903
8.87623
8.81704
8.71464
8.54449
8.28975
7.94474
7.51611
7.02187
6.48846
5.9463
5.42476
4.94756
4.5299
4.1778
3.88948
3.65799
3.47404
3.32815
3.21205
3.11906
3.04411
2.9834
2.93408
2.89398
2.86136
2.83488
2.81339
2.79601
2.78196
2.77062
2.7615
2.75416
2.74825
2.74349
2.73965
2.73655
2.73402
2.73195
2.73024
2.72881
2.7276
2.72657
2.72567
2.72488
2.72417
2.72352
2.72292
2.72237
2.72184
2.72134
2.72088
2.72036
2.72022
2.71822
5.18916
5.19476
5.20623
5.22707
5.25915
5.30158
5.34942
5.39534
5.43536
5.4772
5.52628
5.58338
5.64607
5.71124
5.77743
5.84609
5.92186
6.01167
6.12341
6.2647
6.44179
6.65839
6.91449
7.20552
7.52193
7.84943
8.1704
8.46624
8.72035
8.92069
9.06137
9.14286
9.17125
9.15703
9.11365
9.05517
8.99314
8.93348
8.87523
8.81259
8.7397
8.65577
8.56739
8.48606
8.42208
8.37806
8.34533
8.30502
8.2326
8.104
7.90097
7.61489
7.24839
6.81507
6.33724
5.84223
5.35775
4.90744
4.50774
4.16665
3.88457
3.65643
3.47428
3.32948
3.21416
3.12181
3.0474
2.98711
2.93808
2.89812
2.86552
2.83892
2.81723
2.79955
2.78515
2.77344
2.7639
2.75615
2.74983
2.74468
2.74046
2.737
2.73414
2.73177
2.72979
2.72811
2.72668
2.72544
2.72436
2.72341
2.72256
2.72179
2.72108
2.72043
2.71982
2.71925
2.71872
2.71814
2.71796
2.7159
4.65858
4.6569
4.65937
4.66845
4.68594
4.71283
4.74895
4.79292
4.84269
4.8973
4.95653
5.02044
5.08919
5.16332
5.24396
5.3332
5.43415
5.55076
5.68741
5.84837
6.03692
6.2544
6.49956
6.76797
7.05164
7.33928
7.61748
7.8724
8.0918
8.26685
8.39313
8.47088
8.50458
8.50238
8.47518
8.43493
8.39188
8.35148
8.31275
8.26961
8.21517
8.14705
8.07028
7.99587
7.93536
7.89423
7.86764
7.84039
7.79055
7.69509
7.53509
7.2997
6.98819
6.61018
6.18409
5.73406
5.28585
4.8626
4.4815
4.1522
3.87701
3.65264
3.47252
3.32891
3.21439
3.1227
3.04885
2.98904
2.94039
2.90069
2.86824
2.84168
2.81993
2.8021
2.7875
2.77553
2.76571
2.75765
2.75102
2.74556
2.74104
2.73729
2.73417
2.73154
2.72932
2.72743
2.7258
2.72439
2.72315
2.72206
2.72108
2.7202
2.7194
2.71866
2.71798
2.71734
2.71675
2.71612
2.7159
2.71379
4.35785
4.35011
4.34565
4.34633
4.35375
4.36906
4.39296
4.42547
4.46617
4.51461
4.57041
4.63342
4.70383
4.7822
4.86958
4.96758
5.07831
5.20428
5.34809
5.51202
5.69755
5.90472
6.13164
6.37408
6.62537
6.87664
7.11767
7.33814
7.52895
7.68348
7.79826
7.87324
7.91161
7.91961
7.90611
7.88129
7.85432
7.83033
7.80844
7.78247
7.74482
7.69161
7.62627
7.55892
7.5017
7.46227
7.43908
7.42036
7.38697
7.31732
7.19245
7
6.73653
6.40819
6.02978
5.62229
5.20931
4.81309
4.45115
4.13437
3.86674
3.64665
3.46886
3.32655
3.21288
3.12185
3.04856
2.98925
2.94102
2.90166
2.86945
2.84304
2.82136
2.80353
2.78885
2.77675
2.76677
2.75852
2.75168
2.746
2.74126
2.7373
2.73396
2.73114
2.72874
2.72668
2.72489
2.72334
2.72198
2.72077
2.71969
2.71872
2.71783
2.71703
2.71628
2.71559
2.71495
2.71428
2.71403
2.71187
4.19049
4.17789
4.16805
4.16235
4.16218
4.16869
4.18275
4.20496
4.23563
4.27491
4.32287
4.37962
4.44544
4.52083
4.60659
4.70383
4.81389
4.93829
5.07844
5.23543
5.40962
5.60029
5.80529
6.02082
6.24138
6.46005
6.66902
6.86049
7.02761
7.16524
7.27054
7.34317
7.38529
7.40166
7.39947
7.38747
7.37391
7.3637
7.35613
7.34513
7.32254
7.28322
7.22899
7.16887
7.11504
7.07677
7.05521
7.04171
7.01986
6.96984
6.87315
6.71655
6.49452
6.21029
5.8754
5.50777
5.1287
4.75924
4.41684
4.11324
3.85385
3.63855
3.46341
3.32259
3.20982
3.11944
3.0467
2.98788
2.94009
2.9011
2.8692
2.84302
2.82149
2.80375
2.78911
2.777
2.76695
2.75861
2.75166
2.74586
2.74098
2.73688
2.73341
2.73045
2.72792
2.72573
2.72384
2.72218
2.72072
2.71943
2.71827
2.71723
2.71629
2.71542
2.71463
2.71389
2.71322
2.71252
2.71224
2.71005
4.10143
4.0852
4.07135
4.06096
4.05518
4.05509
4.06162
4.07556
4.09749
4.12789
4.16715
4.21563
4.27374
4.34198
4.421
4.51153
4.61445
4.73057
4.86059
5.00483
5.16305
5.33417
5.51604
5.70536
5.89769
6.08756
6.26899
6.43598
6.58323
6.70666
6.80382
6.87412
6.91894
6.94187
6.94877
6.94719
6.94463
6.9458
6.95025
6.9521
6.94286
6.91631
6.87274
6.81989
6.7697
6.73244
6.71147
6.70087
6.68684
6.65143
6.57698
6.44991
6.26321
6.01774
5.72216
5.39153
5.0448
4.70155
4.37887
4.089
3.83847
3.62849
3.45637
3.31722
3.20545
3.11573
3.04352
2.98516
2.93778
2.89917
2.86759
2.84169
2.82038
2.80281
2.78828
2.77623
2.76622
2.75787
2.7509
2.74504
2.74011
2.73593
2.73238
2.72935
2.72674
2.72448
2.72252
2.72079
2.71927
2.71792
2.71671
2.71562
2.71464
2.71374
2.71291
2.71214
2.71145
2.71072
2.71042
2.70821
4.05699
4.03827
4.02161
4.00788
3.99803
3.99302
3.99376
4.00107
4.01567
4.03817
4.06912
4.10902
4.15836
4.21763
4.28737
4.36812
4.46042
4.5647
4.68123
4.80993
4.95024
5.10099
5.2602
5.42509
5.59204
5.75675
5.91453
6.0607
6.19104
6.30223
6.39209
6.45983
6.50626
6.53405
6.548
6.55469
6.56096
6.57138
6.58577
6.59852
6.60097
6.58599
6.55248
6.50686
6.4605
6.42434
6.40343
6.39421
6.38526
6.3605
6.30337
6.20033
6.04344
5.8317
5.57131
5.27469
4.95848
4.64067
4.33766
4.06192
3.82078
3.61662
3.4479
3.31068
3.2
3.11098
3.03928
2.98135
2.93436
2.8961
2.86484
2.83922
2.81816
2.80079
2.78642
2.7745
2.76458
2.75629
2.74935
2.74352
2.73858
2.7344
2.73083
2.72776
2.72512
2.72283
2.72083
2.71908
2.71753
2.71615
2.71491
2.71379
2.71278
2.71186
2.71102
2.71023
2.70952
2.70878
2.70847
2.70624
4.03639
4.01608
3.99758
3.98156
3.96884
3.96022
3.95656
3.95863
3.96716
3.98283
4.00623
4.03793
4.07845
4.12827
4.18785
4.25762
4.33793
4.42901
4.53088
4.64328
4.76556
4.8966
5.03465
5.17739
5.32188
5.46469
5.60211
5.73038
5.8461
5.94647
6.02953
6.09437
6.14135
6.17247
6.19168
6.20473
6.21792
6.23571
6.25818
6.28006
6.29264
6.28805
6.2639
6.2253
6.18293
6.14802
6.12696
6.11818
6.11234
6.09522
6.05141
5.96776
5.83581
5.65317
5.42398
5.15834
4.87068
4.5773
4.29371
4.0323
3.801
3.60314
3.4382
3.30315
3.19372
3.10544
3.03426
2.97673
2.93009
2.89215
2.86119
2.83584
2.81502
2.79786
2.78368
2.77192
2.76213
2.75395
2.74709
2.74132
2.73643
2.73227
2.72873
2.72568
2.72304
2.72075
2.71875
2.71699
2.71543
2.71404
2.7128
2.71168
2.71066
2.70973
2.70888
2.70809
2.70737
2.70663
2.70631
2.70408
4.02742
4.00618
3.9865
3.96894
3.95418
3.94291
3.93587
3.93377
3.93733
3.94718
3.96394
3.98818
4.02041
4.06109
4.11066
4.16945
4.23772
4.3156
4.40301
4.49965
4.60487
4.71765
4.83653
4.95955
5.08434
5.20811
5.32788
5.4406
5.54346
5.63405
5.71062
5.77218
5.81878
5.85189
5.8748
5.89257
5.91104
5.93456
5.9635
5.99293
6.01418
6.01881
6.00328
5.97141
5.93308
5.89959
5.87833
5.86941
5.86536
5.85361
5.81997
5.75187
5.64062
5.48289
5.28118
5.04353
4.78232
4.51216
4.24753
4.0005
3.77937
3.58821
3.42742
3.29481
3.18679
3.09935
3.0287
2.97156
2.92524
2.88759
2.85689
2.83179
2.8112
2.79425
2.78026
2.76867
2.75903
2.75097
2.74422
2.73854
2.73373
2.72964
2.72614
2.72313
2.72053
2.71826
2.71628
2.71454
2.71299
2.71162
2.71038
2.70926
2.70825
2.70733
2.70648
2.70569
2.70497
2.70423
2.70391
2.70168
4.02358
4.00176
3.9813
3.96268
3.94642
3.93314
3.92347
3.91804
3.91749
3.92243
3.93345
3.95108
3.97582
4.00811
4.04835
4.09684
4.15378
4.21927
4.29321
4.37529
4.46495
4.56129
4.6631
4.76875
4.8763
4.98349
5.08786
5.18691
5.27829
5.35994
5.43023
5.48817
5.5336
5.56758
5.59287
5.61398
5.63633
5.6642
5.69819
5.73379
5.76241
5.77516
5.76747
5.74197
5.70763
5.67567
5.65426
5.64488
5.64169
5.63366
5.60775
5.55204
5.45793
5.3214
5.14371
4.93116
4.69426
4.44598
4.19965
3.9669
3.75613
3.572
3.4157
3.28581
3.17938
3.09288
3.0228
2.96606
2.92005
2.88265
2.85219
2.82731
2.80693
2.79018
2.77637
2.76494
2.75545
2.74753
2.7409
2.73532
2.73061
2.72659
2.72316
2.72022
2.71766
2.71544
2.7135
2.71179
2.71027
2.70891
2.70769
2.70659
2.70559
2.70468
2.70384
2.70306
2.70235
2.70161
2.7013
2.69908
4.0217
3.99949
3.97848
3.95905
3.94165
3.92678
3.91499
3.90683
3.90287
3.90366
3.90974
3.92162
3.93976
3.96457
3.99643
4.0356
4.08229
4.13656
4.19833
4.26735
4.34312
4.42491
4.51168
4.60211
4.69458
4.78726
4.8781
4.96505
5.0461
5.11945
5.18366
5.23773
5.28135
5.31529
5.34189
5.36519
5.39025
5.42129
5.45915
5.49969
5.53451
5.55436
5.55378
5.53422
5.50377
5.47342
5.45191
5.44188
5.43896
5.43343
5.41336
5.36753
5.28753
5.169
5.01219
4.822
4.60727
4.37942
4.15062
3.93186
3.73153
3.55469
3.40317
3.27625
3.17161
3.08617
3.01674
2.96042
2.91471
2.87756
2.84731
2.82263
2.80243
2.78585
2.77221
2.76094
2.7516
2.74381
2.73731
2.73184
2.72722
2.72329
2.71994
2.71706
2.71457
2.7124
2.7105
2.70883
2.70735
2.70602
2.70483
2.70375
2.70277
2.70187
2.70104
2.70028
2.69958
2.69885
2.69855
2.69633
4.02047
3.99795
3.97648
3.95639
3.93804
3.92186
3.90831
3.89787
3.89104
3.88832
3.89018
3.89709
3.90948
3.92774
3.95221
3.98315
4.02074
4.06507
4.11608
4.17355
4.23709
4.30608
4.37967
4.45677
4.53605
4.61599
4.69489
4.77104
4.84272
4.90839
4.96671
5.01674
5.05807
5.09127
5.1183
5.14285
5.16967
5.2029
5.24362
5.28807
5.32805
5.35408
5.3599
5.34586
5.31914
5.29042
5.26885
5.25809
5.255
5.25108
5.23541
5.19745
5.12908
5.02576
4.88706
4.71668
4.52204
4.31313
4.10093
3.89577
3.70584
3.53644
3.38995
3.26624
3.16358
3.07933
3.01062
2.95476
2.90937
2.87247
2.84242
2.81791
2.79788
2.78146
2.76797
2.75684
2.74764
2.73998
2.73359
2.72823
2.72371
2.71988
2.71661
2.7138
2.71137
2.70926
2.70741
2.70578
2.70434
2.70304
2.70188
2.70083
2.69987
2.69899
2.69818
2.69743
2.69674
2.69602
2.69573
2.69352
4.01937
3.99658
3.97471
3.95403
3.93487
3.91757
3.90253
3.89015
3.88088
3.87515
3.87339
3.87603
3.88345
3.89602
3.91404
3.93779
3.96742
4.00304
4.04461
4.09196
4.14479
4.20258
4.26464
4.33007
4.39778
4.4665
4.53482
4.6013
4.66447
4.72299
4.77566
4.82158
4.86029
4.89218
4.91898
4.94402
4.97181
5.00643
5.04917
5.09664
5.14089
5.17227
5.18381
5.17487
5.15171
5.12461
5.10303
5.09148
5.08792
5.08496
5.07257
5.04087
4.98209
4.89163
4.76856
4.61567
4.43913
4.24764
4.05107
3.85899
3.6793
3.51743
3.37613
3.25585
3.15534
3.07241
3.00453
2.94918
2.90413
2.86748
2.83763
2.81329
2.79342
2.77715
2.76379
2.7528
2.74371
2.73618
2.7299
2.72464
2.72022
2.71647
2.71328
2.71055
2.70818
2.70613
2.70433
2.70275
2.70134
2.70009
2.69895
2.69793
2.69699
2.69613
2.69534
2.6946
2.69393
2.69322
2.69293
2.69074
4.01826
3.9952
3.97295
3.95176
3.93187
3.91359
3.89725
3.88321
3.87184
3.86354
3.85867
3.85763
3.86076
3.86841
3.88085
3.89834
3.92104
3.94906
3.98239
4.02092
4.06439
4.1124
4.16438
4.21959
4.27713
4.33594
4.39486
4.45266
4.50809
4.55998
4.60726
4.64906
4.68493
4.71513
4.74117
4.76612
4.79426
4.82961
4.87367
4.9234
4.97113
5.00712
5.02379
5.01954
4.99976
4.97426
4.9527
4.94031
4.93607
4.93357
4.9236
4.89689
4.84601
4.7664
4.65681
4.5193
4.359
4.18346
4.00148
3.82187
3.65216
3.4978
3.36184
3.24514
3.14695
3.06548
2.9985
2.94372
2.89906
2.86267
2.83303
2.80886
2.78913
2.77299
2.75977
2.7489
2.73993
2.73251
2.72633
2.72118
2.71684
2.71318
2.71007
2.7074
2.7051
2.70311
2.70136
2.69982
2.69845
2.69723
2.69613
2.69513
2.69422
2.69338
2.69261
2.69188
2.69122
2.69052
2.69025
2.68806
4.01711
3.99378
3.97118
3.9495
3.92896
3.90981
3.89234
3.87686
3.86368
3.85316
3.84562
3.84141
3.84084
3.84423
3.85184
3.8639
3.88059
3.902
3.92816
3.95899
3.9943
4.03376
4.07691
4.12315
4.17174
4.2218
4.27235
4.32235
4.37074
4.4165
4.45866
4.49643
4.52934
4.55757
4.58247
4.60687
4.63486
4.67042
4.71522
4.76658
4.81712
4.85705
4.87829
4.87837
4.86178
4.83785
4.81634
4.80311
4.79803
4.79559
4.78736
4.76461
4.72024
4.64981
4.55183
4.42781
4.28202
4.12098
3.95254
3.78474
3.62468
3.47774
3.34716
3.23418
3.13844
3.05854
2.99256
2.93842
2.89417
2.85807
2.82865
2.80465
2.78507
2.76906
2.75596
2.74521
2.73635
2.72903
2.72296
2.71789
2.71365
2.71007
2.70702
2.70443
2.70219
2.70025
2.69855
2.69706
2.69573
2.69454
2.69347
2.6925
2.69161
2.69079
2.69003
2.68932
2.68867
2.68799
2.68772
2.68555
4.01591
3.99233
3.96939
3.94726
3.92613
3.90621
3.88774
3.871
3.85626
3.84381
3.83396
3.82702
3.82326
3.82297
3.8264
3.83376
3.84522
3.86089
3.88081
3.90493
3.93312
3.9651
4.00053
4.0389
4.07959
4.1219
4.16499
4.20799
4.24999
4.29008
4.32743
4.36129
4.39119
4.41728
4.44076
4.46427
4.49173
4.52707
4.57215
4.6246
4.67736
4.72067
4.74598
4.75004
4.73647
4.71408
4.69265
4.67858
4.67254
4.66988
4.66284
4.64319
4.60419
4.54151
4.45353
4.34132
4.20846
4.06057
3.90461
3.7479
3.5971
3.45741
3.33221
3.22302
3.12985
3.05162
2.98672
2.93328
2.88949
2.85371
2.82451
2.80069
2.78126
2.76539
2.7524
2.74176
2.73301
2.72579
2.71981
2.71483
2.71067
2.70716
2.70419
2.70166
2.69948
2.69759
2.69594
2.69449
2.6932
2.69205
2.691
2.69006
2.68919
2.68839
2.68765
2.68696
2.68632
2.68564
2.68538
2.68322
4.01468
3.99086
3.9676
3.94505
3.92338
3.90277
3.88343
3.86558
3.84947
3.83536
3.82352
3.8142
3.80769
3.80422
3.80403
3.80732
3.81424
3.82492
3.83941
3.85769
3.87965
3.9051
3.93375
3.9652
3.99894
4.03437
4.07081
4.10752
4.14371
4.1786
4.21144
4.24154
4.26847
4.29232
4.31419
4.33656
4.36319
4.398
4.44296
4.49606
4.55055
4.59671
4.62566
4.63338
4.62268
4.60181
4.58051
4.56562
4.55855
4.55542
4.54912
4.53189
4.49731
4.44116
4.36178
4.2599
4.13852
4.00249
3.858
3.71165
3.56964
3.43698
3.3171
3.21174
3.1212
3.04474
2.98099
2.9283
2.88501
2.84956
2.82061
2.79698
2.7777
2.76196
2.74909
2.73856
2.72991
2.72279
2.7169
2.71201
2.70792
2.70449
2.70159
2.69911
2.69699
2.69515
2.69355
2.69214
2.69088
2.68976
2.68875
2.68782
2.68698
2.6862
2.68547
2.68479
2.68417
2.6835
2.68325
2.6811
4.01344
3.98938
3.96582
3.94289
3.92073
3.8995
3.87938
3.86056
3.84326
3.8277
3.81412
3.80277
3.79386
3.78764
3.78432
3.78407
3.78706
3.79341
3.80316
3.81634
3.83287
3.8526
3.87531
3.90067
3.92826
3.9576
3.98812
4.01917
4.0501
4.08022
4.10885
4.13538
4.15941
4.18098
4.20112
4.22218
4.24778
4.28179
4.32634
4.37971
4.4355
4.48407
4.51624
4.52734
4.51938
4.50004
4.47893
4.46326
4.45511
4.45133
4.4454
4.43002
4.39905
4.34842
4.27643
4.18358
4.07236
3.94701
3.81298
3.67624
3.54253
3.41663
3.30196
3.20042
3.11256
3.03792
2.97538
2.92348
2.88072
2.84564
2.81695
2.79351
2.77439
2.75878
2.74603
2.7356
2.72705
2.72002
2.71422
2.70941
2.7054
2.70204
2.6992
2.69679
2.69472
2.69293
2.69137
2.68999
2.68877
2.68768
2.68669
2.6858
2.68497
2.68421
2.6835
2.68283
2.68222
2.68156
2.68132
2.67917
4.01221
3.98792
3.96408
3.9408
3.91819
3.8964
3.87558
3.85591
3.83756
3.82075
3.80567
3.79254
3.78156
3.77296
3.76691
3.7636
3.76318
3.76575
3.77139
3.78012
3.7919
3.80663
3.82412
3.84411
3.86629
3.89022
3.91545
3.94143
3.96759
3.99334
4.01808
4.04125
4.06246
4.08177
4.10013
4.11976
4.14417
4.17719
4.22108
4.27443
4.33113
4.38171
4.41677
4.43101
4.42568
4.40788
4.38703
4.37065
4.36141
4.35683
4.35098
4.33698
4.30894
4.26296
4.19733
4.11234
4.01012
3.89434
3.76981
3.64194
3.516
3.39654
3.28691
3.18913
3.10396
3.03118
2.96989
2.91883
2.87663