/*--------------------------------*- C++ -*----------------------------------*\
| =========                 |                                                 |
| \\      /  F ield         | OpenFOAM: The Open Source CFD Toolbox           |
|  \\    /   O peration     | Version:  2.1.1                                 |
|   \\  /    A nd           | Web:      www.OpenFOAM.org                      |
|    \\/     M anipulation  |                                                 |
\*---------------------------------------------------------------------------*/
FoamFile
{
    version     2.0;
    format      ascii;
    class       volScalarField;
    location    "0.03";
    object      k;
}
// * * * * * * * * * * * * * * * * * * * * * * * * * * * * * * * * * * * * * //

dimensions      [0 2 -2 0 0 0 0];

internalField   nonuniform List<scalar> 
6820
(
0.288909
0.351397
0.415004
0.477468
0.536874
0.591597
0.64046
0.682798
0.718414
0.747489
0.770473
0.787989
0.80074
0.809447
0.814803
0.817442
0.817927
0.816742
0.8143
0.810939
0.806937
0.802519
0.797861
0.793101
0.788345
0.783669
0.779127
0.774765
0.770542
0.766744
0.761986
0.762797
0.737546
0.265531
0.269394
0.27052
0.271332
0.272535
0.274166
0.276137
0.278331
0.280636
0.282965
0.28526
0.287489
0.289641
0.291717
0.293731
0.295698
0.297636
0.299562
0.301488
0.303427
0.305387
0.307373
0.309388
0.311438
0.313524
0.315653
0.317834
0.320089
0.322446
0.324978
0.327763
0.331133
0.335322
0.262038
0.264257
0.263604
0.261567
0.259013
0.256332
0.25364
0.25095
0.24825
0.245532
0.242798
0.240062
0.237342
0.234659
0.232035
0.229492
0.227045
0.22471
0.222498
0.220418
0.218474
0.21667
0.215006
0.213481
0.212093
0.210839
0.209717
0.208724
0.207858
0.207127
0.206518
0.206081
0.205759
0.259884
0.26027
0.259793
0.258532
0.256827
0.254893
0.252838
0.250718
0.248559
0.246375
0.244174
0.241963
0.239749
0.237539
0.235341
0.233164
0.231013
0.228898
0.226823
0.224796
0.22282
0.220899
0.219037
0.217236
0.215497
0.213821
0.212207
0.210655
0.209162
0.207728
0.206347
0.205025
0.203734
0.259299
0.258404
0.257599
0.256567
0.255296
0.253852
0.252296
0.250669
0.248995
0.247292
0.245572
0.243842
0.242109
0.240379
0.238655
0.236943
0.235246
0.233569
0.231913
0.230283
0.228681
0.22711
0.225571
0.224065
0.222595
0.221161
0.219763
0.218401
0.217075
0.215785
0.214529
0.213309
0.21212
0.259224
0.257847
0.256621
0.255435
0.254226
0.252971
0.251665
0.250318
0.248938
0.247536
0.246119
0.244695
0.243269
0.241846
0.240429
0.239021
0.237626
0.236245
0.234881
0.233536
0.232211
0.230908
0.229628
0.228372
0.227142
0.225937
0.224757
0.223605
0.222478
0.221379
0.220306
0.219262
0.21825
0.259217
0.257715
0.256309
0.25498
0.253699
0.252444
0.251199
0.249957
0.248713
0.247467
0.246222
0.244979
0.24374
0.242508
0.241285
0.240072
0.238872
0.237687
0.236517
0.235363
0.234227
0.23311
0.232013
0.230935
0.229879
0.228843
0.227829
0.226838
0.225868
0.224922
0.224
0.223105
0.22224
0.259218
0.25769
0.256224
0.254822
0.253478
0.252183
0.250927
0.249702
0.2485
0.247318
0.246153
0.245003
0.243868
0.242747
0.24164
0.240549
0.239473
0.238413
0.23737
0.236344
0.235335
0.234345
0.233373
0.23242
0.231486
0.230572
0.229677
0.228803
0.22795
0.227119
0.226312
0.225531
0.22478
0.259218
0.257686
0.256207
0.25478
0.253406
0.252082
0.250803
0.249566
0.248365
0.247197
0.246059
0.244946
0.243858
0.242792
0.241748
0.240724
0.239721
0.238736
0.237772
0.236826
0.2359
0.234993
0.234105
0.233236
0.232386
0.231556
0.230745
0.229955
0.229185
0.228438
0.227715
0.227018
0.226352
0.259218
0.257686
0.256203
0.254769
0.253384
0.252047
0.250755
0.249505
0.248297
0.247126
0.24599
0.244887
0.243815
0.242771
0.241754
0.240763
0.239796
0.238853
0.237932
0.237033
0.236156
0.235299
0.234463
0.233648
0.232853
0.232078
0.231324
0.230591
0.229879
0.22919
0.228525
0.227887
0.227281
0.259218
0.257685
0.256202
0.254767
0.253379
0.252036
0.250738
0.249482
0.248267
0.247092
0.245953
0.244849
0.243779
0.242741
0.241733
0.240754
0.239803
0.238878
0.237978
0.237103
0.236251
0.235422
0.234616
0.233832
0.23307
0.232329
0.231609
0.230912
0.230237
0.229586
0.22896
0.228362
0.227795
0.259218
0.257685
0.256201
0.254765
0.253376
0.252033
0.250732
0.249474
0.248256
0.247076
0.245935
0.244829
0.243758
0.242719
0.241713
0.240737
0.23979
0.238871
0.23798
0.237114
0.236274
0.235459
0.234667
0.233899
0.233154
0.232432
0.231732
0.231056
0.230403
0.229774
0.229172
0.228597
0.228054
0.259218
0.257685
0.256201
0.254765
0.253375
0.252031
0.250729
0.24947
0.24825
0.247069
0.245926
0.244818
0.243746
0.242706
0.241699
0.240722
0.239776
0.238859
0.237969
0.237107
0.236271
0.235461
0.234675
0.233914
0.233177
0.232463
0.231774
0.231108
0.230466
0.22985
0.22926
0.228699
0.228168
0.259218
0.257685
0.2562
0.254764
0.253375
0.25203
0.250728
0.249467
0.248247
0.247065
0.245921
0.244812
0.243738
0.242698
0.241689
0.240712
0.239765
0.238847
0.237958
0.237096
0.236261
0.235452
0.234668
0.233909
0.233175
0.232465
0.231779
0.231118
0.230482
0.229871
0.229287
0.228731
0.228206
0.259218
0.257685
0.2562
0.254764
0.253374
0.252029
0.250726
0.249466
0.248245
0.247062
0.245917
0.244808
0.243733
0.242692
0.241682
0.240704
0.239756
0.238838
0.237948
0.237085
0.23625
0.23544
0.234657
0.233898
0.233165
0.232456
0.231772
0.231112
0.230477
0.229868
0.229286
0.228732
0.228207
0.259218
0.257684
0.2562
0.254763
0.253373
0.252028
0.250725
0.249464
0.248243
0.24706
0.245914
0.244804
0.243729
0.242686
0.241676
0.240698
0.239749
0.23883
0.237939
0.237076
0.236239
0.235429
0.234645
0.233886
0.233152
0.232443
0.231759
0.231099
0.230464
0.229855
0.229272
0.228717
0.22819
0.259218
0.257684
0.2562
0.254763
0.253373
0.252027
0.250724
0.249463
0.248241
0.247058
0.245911
0.244801
0.243725
0.242682
0.241671
0.240692
0.239742
0.238822
0.23793
0.237066
0.236229
0.235419
0.234634
0.233874
0.233139
0.232429
0.231744
0.231083
0.230447
0.229837
0.229253
0.228695
0.228166
0.259218
0.257684
0.2562
0.254763
0.253372
0.252026
0.250723
0.249461
0.248239
0.247056
0.245909
0.244798
0.243721
0.242678
0.241666
0.240686
0.239736
0.238815
0.237922
0.237058
0.23622
0.235408
0.234622
0.233861
0.233125
0.232414
0.231728
0.231066
0.230429
0.229817
0.22923
0.22867
0.228136
0.259218
0.257684
0.2562
0.254763
0.253372
0.252026
0.250722
0.24946
0.248238
0.247054
0.245906
0.244795
0.243718
0.242673
0.241661
0.240681
0.23973
0.238808
0.237915
0.237049
0.23621
0.235397
0.23461
0.233848
0.233111
0.232399
0.231711
0.231048
0.230409
0.229794
0.229205
0.228641
0.228103
0.259218
0.257684
0.256199
0.254762
0.253372
0.252025
0.250722
0.249459
0.248236
0.247052
0.245904
0.244792
0.243714
0.24267
0.241657
0.240675
0.239724
0.238801
0.237907
0.23704
0.2362
0.235387
0.234598
0.233835
0.233097
0.232383
0.231694
0.231028
0.230387
0.22977
0.229178
0.22861
0.228068
0.259218
0.257684
0.256199
0.254762
0.253371
0.252025
0.250721
0.249458
0.248235
0.24705
0.245902
0.24479
0.243711
0.242666
0.241653
0.24067
0.239718
0.238795
0.237899
0.237032
0.236191
0.235376
0.234587
0.233822
0.233082
0.232367
0.231676
0.231008
0.230365
0.229745
0.229149
0.228578
0.228031
0.259218
0.257684
0.256199
0.254762
0.253371
0.252024
0.25072
0.249457
0.248234
0.247049
0.2459
0.244787
0.243708
0.242663
0.241649
0.240666
0.239712
0.238788
0.237892
0.237023
0.236181
0.235365
0.234575
0.233809
0.233068
0.232351
0.231657
0.230988
0.230341
0.229719
0.22912
0.228545
0.227993
0.259218
0.257684
0.256199
0.254762
0.253371
0.252024
0.25072
0.249457
0.248233
0.247048
0.245899
0.244785
0.243706
0.242659
0.241645
0.240661
0.239707
0.238782
0.237885
0.237015
0.236172
0.235355
0.234563
0.233796
0.233053
0.232334
0.231638
0.230967
0.230318
0.229692
0.22909
0.228511
0.227955
0.259218
0.257684
0.256199
0.254762
0.253371
0.252024
0.250719
0.249456
0.248232
0.247046
0.245897
0.244783
0.243703
0.242656
0.241641
0.240657
0.239702
0.238776
0.237878
0.237007
0.236163
0.235344
0.234551
0.233782
0.233038
0.232317
0.23162
0.230945
0.230294
0.229666
0.22906
0.228477
0.227916
0.259218
0.257684
0.256199
0.254762
0.253371
0.252024
0.250719
0.249456
0.248231
0.247045
0.245896
0.244781
0.243701
0.242653
0.241638
0.240652
0.239697
0.23877
0.237871
0.236999
0.236154
0.235334
0.23454
0.233769
0.233023
0.2323
0.231601
0.230924
0.23027
0.229639
0.22903
0.228443
0.227878
0.259218
0.257684
0.256199
0.254762
0.253371
0.252023
0.250719
0.249455
0.248231
0.247044
0.245894
0.24478
0.243699
0.242651
0.241634
0.240649
0.239692
0.238765
0.237865
0.236992
0.236145
0.235324
0.234528
0.233756
0.233009
0.232284
0.231582
0.230904
0.230247
0.229613
0.229
0.228409
0.22784
0.259218
0.257684
0.256199
0.254762
0.25337
0.252023
0.250719
0.249455
0.24823
0.247043
0.245893
0.244778
0.243697
0.242648
0.241631
0.240645
0.239688
0.238759
0.237858
0.236985
0.236137
0.235315
0.234517
0.233744
0.232994
0.232268
0.231564
0.230883
0.230224
0.229587
0.228971
0.228377
0.227804
0.259218
0.257684
0.256199
0.254762
0.25337
0.252023
0.250718
0.249454
0.24823
0.247043
0.245892
0.244777
0.243695
0.242646
0.241628
0.240641
0.239684
0.238754
0.237853
0.236978
0.236129
0.235306
0.234507
0.233732
0.232981
0.232253
0.231547
0.230864
0.230202
0.229563
0.228944
0.228346
0.22777
0.259218
0.257684
0.256199
0.254762
0.25337
0.252023
0.250718
0.249454
0.248229
0.247042
0.245891
0.244775
0.243693
0.242644
0.241626
0.240638
0.239679
0.238749
0.237847
0.236971
0.236121
0.235297
0.234497
0.233721
0.232968
0.232238
0.231531
0.230845
0.230182
0.229539
0.228918
0.228317
0.227737
0.259218
0.257684
0.256199
0.254762
0.25337
0.252023
0.250718
0.249454
0.248229
0.247042
0.245891
0.244775
0.243692
0.242642
0.241624
0.240635
0.239676
0.238746
0.237842
0.236966
0.236115
0.235289
0.234488
0.233711
0.232956
0.232225
0.231516
0.230829
0.230163
0.229518
0.228894
0.228291
0.227708
0.259218
0.257684
0.256199
0.254762
0.253371
0.252023
0.250718
0.249454
0.248229
0.247041
0.24589
0.244774
0.243691
0.242641
0.241622
0.240633
0.239673
0.238742
0.237838
0.236961
0.236109
0.235282
0.23448
0.233701
0.232946
0.232213
0.231503
0.230814
0.230146
0.229499
0.228873
0.228267
0.227681
0.259218
0.257684
0.256199
0.254762
0.253371
0.252024
0.25072
0.249456
0.248231
0.247043
0.245892
0.244776
0.243693
0.242642
0.241623
0.240634
0.239674
0.238742
0.237837
0.236959
0.236107
0.235279
0.234476
0.233696
0.23294
0.232206
0.231494
0.230803
0.230134
0.229485
0.228857
0.228248
0.22766
0.259218
0.257685
0.256201
0.254764
0.253374
0.252027
0.250722
0.249458
0.248233
0.247046
0.245895
0.244778
0.243695
0.242645
0.241625
0.240636
0.239675
0.238743
0.237838
0.23696
0.236106
0.235278
0.234474
0.233693
0.232935
0.2322
0.231486
0.230793
0.230122
0.229471
0.22884
0.228229
0.227637
0.259218
0.257685
0.256201
0.254766
0.253378
0.252033
0.250731
0.249469
0.248245
0.247059
0.245908
0.244792
0.243709
0.242659
0.241639
0.240649
0.239688
0.238754
0.237848
0.236968
0.236113
0.235282
0.234476
0.233692
0.232931
0.232192
0.231475
0.230778
0.230102
0.229446
0.228809
0.228192
0.227594
0.259219
0.25769
0.256211
0.254779
0.253392
0.252049
0.250747
0.249485
0.248262
0.247076
0.245926
0.244809
0.243726
0.242674
0.241652
0.24066
0.239696
0.238759
0.237848
0.236962
0.236101
0.235264
0.23445
0.233658
0.232888
0.232139
0.23141
0.230702
0.230014
0.229344
0.228694
0.228062
0.227448
0.25922
0.257694
0.25622
0.254799
0.253423
0.25209
0.250796
0.249539
0.248318
0.247131
0.245977
0.244855
0.243763
0.242701
0.241667
0.24066
0.23968
0.238725
0.237795
0.236889
0.236006
0.235145
0.234306
0.233489
0.232691
0.231914
0.231157
0.230419
0.229699
0.228998
0.228315
0.227649
0.227
0.259229
0.25774
0.256296
0.254886
0.253514
0.252178
0.250876
0.249608
0.248371
0.247163
0.245983
0.244831
0.243706
0.242607
0.241533
0.240484
0.239459
0.238458
0.23748
0.236525
0.235591
0.23468
0.233789
0.23292
0.23207
0.23124
0.23043
0.229638
0.228865
0.22811
0.227373
0.226653
0.225951
0.259264
0.257821
0.256451
0.255121
0.253798
0.252473
0.25115
0.249836
0.248537
0.247261
0.246009
0.244786
0.243593
0.242429
0.241296
0.240192
0.239116
0.23807
0.23705
0.236058
0.235091
0.234151
0.233235
0.232343
0.231476
0.230632
0.229811
0.229012
0.228237
0.227483
0.226752
0.226043
0.225355
0.2596
0.258635
0.257581
0.256546
0.255595
0.254726
0.253926
0.253183
0.252493
0.251856
0.251269
0.250736
0.250256
0.24983
0.249459
0.249143
0.248882
0.248675
0.248523
0.248425
0.248382
0.248392
0.248457
0.248574
0.248745
0.248969
0.249246
0.249576
0.249958
0.250393
0.250879
0.251417
0.252004
0.266719
0.28057
0.294242
0.307623
0.320669
0.333362
0.34569
0.357642
0.369209
0.380387
0.391171
0.40156
0.411553
0.421153
0.430363
0.439188
0.447634
0.455707
0.463415
0.470766
0.477768
0.484432
0.490764
0.496776
0.502475
0.507873
0.512977
0.517798
0.522343
0.526624
0.530647
0.534421
0.53796
0.856013
1.05808
1.34647
1.70417
2.05197
2.30709
2.44852
2.50769
2.52655
2.53209
2.5337
2.52955
2.51053
2.46602
2.38478
2.25509
2.06543
1.80778
1.48468
1.11996
0.766607
0.494826
0.352912
0.326249
0.355106
0.398677
0.443507
0.48485
0.520324
0.548642
0.569432
0.583224
0.591212
0.594887
0.595682
0.594715
0.592693
0.589996
0.586855
0.583517
0.580282
0.577396
0.57488
0.572391
0.569203
0.564328
0.556702
0.545394
0.529785
0.509676
0.48534
0.457502
0.427268
0.395991
0.365094
0.335884
0.309382
0.286224
0.266633
0.250489
0.237431
0.226986
0.218665
0.212029
0.206722
0.202466
0.199052
0.196318
0.194138
0.19241
0.191048
0.189984
0.189159
0.188524
0.188042
0.187678
0.187409
0.187211
0.187069
0.18697
0.186902
0.186857
0.18683
0.186814
0.186806
0.186804
0.186805
0.186808
0.186812
0.186815
0.186818
0.18682
0.18682
0.18682
0.186818
0.186815
0.186811
0.186804
0.186808
0.186749
0.341373
0.359065
0.400988
0.487032
0.637258
0.852032
1.10667
1.36315
1.58643
1.7558
1.86343
1.90275
1.87994
1.80266
1.67513
1.49909
1.27839
1.02515
0.764751
0.535359
0.376675
0.305846
0.301912
0.328113
0.363544
0.401212
0.437979
0.471725
0.500802
0.524096
0.541242
0.552628
0.559205
0.562197
0.562803
0.561964
0.56026
0.557965
0.555218
0.552196
0.549176
0.546458
0.544183
0.542161
0.539814
0.536243
0.530411
0.521351
0.508357
0.491109
0.469741
0.444836
0.417366
0.388568
0.359784
0.332281
0.307086
0.284872
0.26593
0.250211
0.237422
0.227145
0.218928
0.212358
0.207092
0.20286
0.199454
0.196716
0.194522
0.192772
0.191384
0.19029
0.189434
0.188769
0.188257
0.187866
0.18757
0.187349
0.187186
0.187067
0.186981
0.186921
0.18688
0.186852
0.186834
0.186822
0.186815
0.186811
0.186808
0.186806
0.186804
0.186802
0.186799
0.186795
0.186791
0.186785
0.186779
0.18677
0.186772
0.186712
0.205353
0.205497
0.206698
0.210483
0.221775
0.248054
0.295645
0.365768
0.452485
0.542681
0.622545
0.685679
0.71974
0.715889
0.672333
0.595112
0.497713
0.399514
0.321484
0.278411
0.270583
0.285006
0.308977
0.337218
0.367774
0.398968
0.429182
0.456888
0.480759
0.499904
0.514028
0.523433
0.528875
0.531353
0.53187
0.531219
0.529877
0.528032
0.525736
0.523087
0.520317
0.517749
0.515624
0.513907
0.512179
0.509664
0.50538
0.498347
0.487782
0.473249
0.454741
0.43269
0.407924
0.381555
0.35484
0.328999
0.305061
0.283742
0.265399
0.25006
0.237501
0.22736
0.219225
0.212705
0.20747
0.203254
0.199852
0.197109
0.1949
0.193128
0.191714
0.19059
0.189703
0.189007
0.188464
0.188043
0.18772
0.187474
0.187287
0.187147
0.187042
0.186965
0.186908
0.186867
0.186837
0.186815
0.186799
0.186786
0.186776
0.186768
0.18676
0.186753
0.186746
0.186739
0.186731
0.186723
0.186714
0.186704
0.186704
0.186641
0.202326
0.200832
0.199213
0.197194
0.194797
0.192963
0.193547
0.197824
0.206108
0.21772
0.230979
0.242679
0.250763
0.253783
0.25166
0.246346
0.241542
0.241165
0.247315
0.259413
0.275642
0.295042
0.317273
0.341691
0.367363
0.393243
0.418169
0.44095
0.460555
0.476298
0.487953
0.495757
0.500312
0.502429
0.502943
0.502526
0.501573
0.500204
0.498397
0.496169
0.493693
0.491286
0.489261
0.487721
0.486412
0.484701
0.48169
0.476412
0.468029
0.456001
0.440183
0.420857
0.398702
0.374702
0.350014
0.325809
0.30311
0.282669
0.26491
0.249934
0.23759
0.227572
0.219508
0.213031
0.207823
0.203622
0.200226
0.197479
0.195258
0.193468
0.19203
0.190879
0.189963
0.189237
0.188664
0.188214
0.187864
0.187591
0.187381
0.187219
0.187094
0.186999
0.186926
0.18687
0.186828
0.186794
0.186768
0.186746
0.186729
0.186713
0.1867
0.186688
0.186676
0.186664
0.186653
0.186642
0.186631
0.186618
0.186616
0.186551
0.210772
0.209296
0.207936
0.206685
0.205439
0.204135
0.203011
0.202585
0.203316
0.205725
0.209043
0.21262
0.216321
0.220245
0.224685
0.230086
0.236924
0.24557
0.256286
0.269251
0.284516
0.301949
0.32123
0.341911
0.363396
0.3849
0.405503
0.424275
0.440422
0.453422
0.463105
0.469655
0.473547
0.475437
0.476021
0.475871
0.475317
0.474431
0.473133
0.471363
0.469225
0.467007
0.465065
0.463615
0.462561
0.461425
0.459417
0.455609
0.449134
0.439366
0.426033
0.409271
0.389609
0.367898
0.345192
0.3226
0.301132
0.281569
0.264393
0.249779
0.237647
0.227748
0.219751
0.213314
0.20813
0.203945
0.200557
0.19781
0.195582
0.193779
0.192322
0.191148
0.190206
0.189453
0.188853
0.188376
0.188
0.187702
0.187468
0.187285
0.187141
0.187027
0.186938
0.186868
0.186812
0.186767
0.18673
0.186699
0.186673
0.186651
0.186631
0.186613
0.186597
0.186581
0.186566
0.186552
0.186538
0.186523
0.186519
0.186451
0.217106
0.215857
0.214724
0.213774
0.21305
0.212575
0.212383
0.212558
0.213245
0.214645
0.216745
0.219491
0.222887
0.227016
0.232018
0.238067
0.245349
0.254034
0.264267
0.276142
0.28967
0.304756
0.321201
0.338676
0.35669
0.374603
0.391689
0.407224
0.420602
0.431427
0.439568
0.445165
0.448589
0.450368
0.451081
0.451217
0.45106
0.450649
0.44986
0.448569
0.446807
0.444818
0.442966
0.441558
0.440636
0.439878
0.43862
0.435999
0.431146
0.423369
0.412288
0.3979
0.38059
0.361073
0.340293
0.319291
0.299052
0.280375
0.263795
0.249554
0.23764
0.227863
0.219933
0.213536
0.208377
0.204209
0.200831
0.198088
0.195859
0.194047
0.192577
0.191386
0.190424
0.189649
0.189025
0.188525
0.188125
0.187805
0.187549
0.187345
0.187182
0.187052
0.186947
0.186863
0.186794
0.186737
0.18669
0.18665
0.186616
0.186587
0.186561
0.186537
0.186516
0.186496
0.186477
0.18646
0.186443
0.186425
0.18642
0.186349
0.221273
0.220231
0.219316
0.218614
0.218183
0.21806
0.218278
0.218876
0.219908
0.221445
0.223541
0.226243
0.229605
0.233696
0.238603
0.244432
0.2513
0.259317
0.26857
0.279107
0.290927
0.303956
0.31802
0.332832
0.347984
0.362967
0.377209
0.390155
0.401341
0.410466
0.417424
0.422317
0.425431
0.427188
0.428071
0.428503
0.42873
0.428773
0.428479
0.427673
0.426317
0.424594
0.42286
0.421476
0.420603
0.420066
0.419335
0.417634
0.414117
0.408053
0.398972
0.386748
0.371627
0.354191
0.335272
0.315831
0.296819
0.279043
0.263078
0.249228
0.237546
0.227899
0.220041
0.213685
0.208553
0.204403
0.201039
0.198304
0.196077
0.194264
0.192786
0.191584
0.190607
0.189815
0.189173
0.188653
0.188233
0.187894
0.18762
0.187398
0.187218
0.187072
0.186953
0.186855
0.186774
0.186707
0.18665
0.186602
0.18656
0.186524
0.186492
0.186463
0.186437
0.186413
0.186391
0.18637
0.186351
0.18633
0.186323
0.18625
0.22395
0.223064
0.222296
0.221721
0.221405
0.221403
0.221756
0.2225
0.223672
0.225316
0.227473
0.230182
0.233488
0.237448
0.242127
0.2476
0.253946
0.261238
0.269532
0.278858
0.289201
0.300482
0.312543
0.325143
0.337948
0.350553
0.362514
0.373406
0.382873
0.390682
0.396745
0.401129
0.404052
0.40585
0.406926
0.407648
0.408237
0.408704
0.40888
0.408551
0.407615
0.406194
0.404612
0.403258
0.402387
0.401954
0.401565
0.400545
0.398094
0.393467
0.386125
0.37584
0.36273
0.347248
0.33011
0.312193
0.294402
0.277542
0.262215
0.24878
0.23735
0.227846
0.220067
0.213756
0.208652
0.204523
0.201174
0.19845
0.196231
0.19442
0.192941
0.191733
0.190748
0.189944
0.189288
0.188754
0.188319
0.187964
0.187675
0.187438
0.187244
0.187085
0.186953
0.186844
0.186752
0.186676
0.18661
0.186554
0.186506
0.186463
0.186426
0.186392
0.186362
0.186334
0.186309
0.186285
0.186263
0.186241
0.186232
0.186156
0.225621
0.22485
0.224186
0.223695
0.22344
0.223475
0.223846
0.22459
0.225742
0.227335
0.229403
0.231983
0.235112
0.238834
0.243197
0.248252
0.254051
0.260642
0.268058
0.276309
0.285366
0.295152
0.30553
0.316296
0.32718
0.337864
0.348004
0.357274
0.3654
0.372195
0.377582
0.381602
0.384415
0.38629
0.387565
0.38856
0.38948
0.390332
0.390944
0.391071
0.390558
0.389463
0.388068
0.386767
0.38588
0.385475
0.385284
0.384741
0.38311
0.379656
0.373798
0.365221
0.353932
0.34026
0.324811
0.308372
0.291791
0.275858
0.261193
0.248199
0.237042
0.227698
0.220008
0.213747
0.208674
0.204567
0.201235
0.198525
0.196315
0.194511
0.193035
0.191827
0.190839
0.190029
0.189365
0.188821
0.188376
0.188009
0.187708
0.18746
0.187255
0.187085
0.186944
0.186825
0.186725
0.18664
0.186567
0.186505
0.18645
0.186403
0.18636
0.186323
0.186289
0.186258
0.18623
0.186203
0.18618
0.186155
0.186144
0.186067
0.22662
0.225926
0.225328
0.22488
0.224637
0.224652
0.224971
0.225634
0.226677
0.228131
0.230027
0.232394
0.235264
0.238671
0.242651
0.247241
0.252475
0.258382
0.264977
0.272255
0.280181
0.288682
0.297638
0.306879
0.316192
0.325326
0.334015
0.342004
0.34908
0.35509
0.359962
0.363716
0.366468
0.368433
0.369895
0.371138
0.372351
0.373545
0.37455
0.375102
0.375003
0.374248
0.373069
0.37185
0.370951
0.370529
0.370432
0.370202
0.36918
0.36666
0.36204
0.354942
0.345276
0.333265
0.319401
0.304381
0.28899
0.273989
0.260008
0.24748
0.236621
0.227454
0.219866
0.213662
0.208624
0.204539
0.201225
0.198529
0.196332
0.194537
0.193068
0.191864
0.190876
0.190065
0.189398
0.188849
0.188397
0.188024
0.187715
0.187459
0.187246
0.187068
0.186919
0.186793
0.186687
0.186596
0.186517
0.18645
0.186391
0.186339
0.186293
0.186252
0.186215
0.186181
0.186151
0.186123
0.186097
0.186071
0.186059
0.18598
0.227179
0.226534
0.225974
0.225543
0.225288
0.225257
0.225494
0.226038
0.226926
0.228188
0.229855
0.231954
0.234512
0.237558
0.241118
0.245219
0.249882
0.255124
0.260949
0.267342
0.274267
0.281655
0.289405
0.297377
0.305402
0.31328
0.320805
0.327775
0.334019
0.339409
0.343878
0.347428
0.350141
0.352191
0.353816
0.355273
0.356738
0.358228
0.359579
0.36052
0.360814
0.360401
0.359461
0.358351
0.357454
0.356997
0.356926
0.356884
0.356297
0.3545
0.350893
0.345054
0.336818
0.326308
0.313916
0.300246
0.286014
0.271944
0.258663
0.246626
0.236088
0.227119
0.219645
0.213507
0.208506
0.204446
0.20115
0.19847
0.196286
0.194501
0.193041
0.191843
0.19086
0.190051
0.189385
0.188835
0.18838
0.188004
0.187691
0.18743
0.187213
0.18703
0.186876
0.186745
0.186634
0.186538
0.186456
0.186385
0.186322
0.186267
0.186219
0.186175
0.186136
0.186101
0.186068
0.186039
0.186012
0.185984
0.185972
0.185891
0.227465
0.226847
0.226304
0.225872
0.22559
0.225499
0.22564
0.226051
0.226766
0.227817
0.229233
0.231041
0.233265
0.23593
0.239056
0.242663
0.246767
0.251373
0.25648
0.26207
0.268106
0.274529
0.281252
0.288163
0.295122
0.301974
0.308552
0.314697
0.320267
0.325153
0.329291
0.33267
0.335349
0.337465
0.339224
0.340855
0.342528
0.344266
0.345917
0.347204
0.347864
0.347786
0.347095
0.346119
0.345245
0.344751
0.344664
0.344722
0.344431
0.343182
0.340388
0.335604
0.328608
0.319441
0.308401
0.296002
0.282888
0.26974
0.257168
0.245642
0.235448
0.226696
0.219353
0.213289
0.208331
0.204298
0.20102
0.198355
0.196184
0.194411
0.19296
0.191771
0.190794
0.18999
0.189327
0.188779
0.188325
0.187948
0.187634
0.187372
0.187152
0.186967
0.18681
0.186677
0.186563
0.186465
0.18638
0.186306
0.186242
0.186185
0.186134
0.186089
0.186049
0.186012
0.185979
0.185948
0.18592
0.185892
0.185878
0.185797
0.227592
0.226986
0.226446
0.226001
0.225683
0.225529
0.225574
0.225851
0.226395
0.227235
0.228401
0.229916
0.231806
0.234091
0.23679
0.239918
0.243486
0.247495
0.251942
0.256807
0.262056
0.267639
0.273483
0.279495
0.285563
0.291562
0.297356
0.302816
0.307823
0.312283
0.316133
0.319356
0.321992
0.324149
0.326008
0.327774
0.329612
0.331552
0.333454
0.335045
0.336038
0.336279
0.335842
0.335016
0.334185
0.333661
0.333538
0.333636
0.333538
0.332692
0.33054
0.326629
0.320696
0.312716
0.302904
0.291689
0.279644
0.267397
0.255538
0.244538
0.234709
0.226194
0.218995
0.213016
0.208108
0.204104
0.200846
0.198195
0.196036
0.194274
0.192833
0.191652
0.190683
0.189885
0.189228
0.188684
0.188233
0.187858
0.187545
0.187284
0.187064
0.186878
0.186721
0.186587
0.186472
0.186373
0.186287
0.186212
0.186147
0.186089
0.186037
0.185991
0.18595
0.185913
0.185879
0.185847
0.185819
0.18579
0.185777
0.185695
0.227635
0.22703
0.226483
0.226019
0.225663
0.225446
0.225398
0.225551
0.225935
0.226577
0.227506
0.228745
0.230317
0.232242
0.234536
0.237213
0.24028
0.243739
0.247585
0.251799
0.256353
0.261202
0.266287
0.27153
0.276841
0.282116
0.287246
0.292122
0.296643
0.300728
0.304317
0.307386
0.309962
0.312134
0.314057
0.31592
0.317881
0.31998
0.32209
0.323941
0.325233
0.325773
0.325586
0.32492
0.324149
0.323605
0.323438
0.323538
0.323557
0.323003
0.321351
0.318153
0.313122
0.306179
0.297471
0.287349
0.276314
0.264942
0.253791
0.243328
0.23388
0.225619
0.21858
0.212697
0.207845
0.203874
0.200637
0.198001
0.195853
0.194101
0.19267
0.191498
0.190537
0.189746
0.189094
0.188556
0.188109
0.187738
0.187428
0.187169
0.186951
0.186766
0.18661
0.186476
0.186362
0.186263
0.186177
0.186103
0.186037
0.185979
0.185927
0.185881
0.18584
0.185802
0.185768
0.185736
0.185708
0.185679
0.185665
0.185583
0.227635
0.227025
0.226467
0.22598
0.225586
0.22531
0.225178
0.225218
0.225457
0.225921
0.226634
0.227621
0.228901
0.230495
0.232417
0.23468
0.237291
0.240251
0.243556
0.24719
0.251128
0.255334
0.259757
0.264335
0.268992
0.273642
0.278196
0.282561
0.286653
0.290397
0.293739
0.296651
0.29915
0.301309
0.303263
0.305188
0.307235
0.309453
0.311728
0.3138
0.315356
0.316171
0.316224
0.315723
0.315024
0.314473
0.314261
0.314339
0.314423
0.314076
0.312808
0.310188
0.305914
0.29987
0.292146
0.283023
0.272935
0.262401
0.251946
0.242024
0.23297
0.22498
0.218116
0.21234
0.207551
0.203617
0.200403
0.197782
0.195646
0.193904
0.192481
0.191318
0.190364
0.18958
0.188935
0.188402
0.187961
0.187594
0.187288
0.187032
0.186817
0.186635
0.186481
0.186349
0.186236
0.186138
0.186053
0.185979
0.185914
0.185857
0.185805
0.18576
0.185718
0.185681
0.185647
0.185615
0.185587
0.185558
0.185545
0.185463
0.227615
0.226997
0.226425
0.225915
0.225484
0.225154
0.224947
0.224887
0.224998
0.225303
0.225826
0.226587
0.227608
0.228904
0.230492
0.232383
0.234584
0.237098
0.23992
0.243039
0.246433
0.250073
0.253917
0.257912
0.261997
0.2661
0.270145
0.274056
0.277758
0.281187
0.28429
0.28704
0.289445
0.291565
0.293522
0.295477
0.297577
0.299879
0.302283
0.304538
0.306324
0.307389
0.307669
0.307333
0.306714
0.306165
0.305912
0.305955
0.306068
0.305862
0.304889
0.302733
0.299091
0.293822
0.286967
0.278749
0.26954
0.259803
0.250025
0.240642
0.231991
0.224284
0.217607
0.21195
0.207233
0.203342
0.200153
0.197549
0.195425
0.193692
0.192277
0.191121
0.190174
0.189397
0.188758
0.188231
0.187796
0.187434
0.187133
0.186881
0.186669
0.18649
0.186338
0.186209
0.186098
0.186002
0.185919
0.185846
0.185782
0.185725
0.185675
0.18563
0.185589
0.185552
0.185518
0.185487
0.185459
0.185431
0.185417
0.185336
0.227585
0.226958
0.226371
0.225838
0.225373
0.224994
0.224721
0.224574
0.224573
0.22474
0.225096
0.22566
0.226451
0.227485
0.228777
0.230339
0.232177
0.234294
0.236689
0.239352
0.242266
0.245407
0.24874
0.252223
0.255802
0.25942
0.263012
0.266512
0.269857
0.272989
0.275861
0.278444
0.280741
0.282802
0.284736
0.286693
0.288818
0.291173
0.293674
0.296078
0.298063
0.299353
0.299845
0.29967
0.299136
0.298598
0.298307
0.298308
0.298424
0.298314
0.297564
0.29578
0.292664
0.288057
0.281965
0.274562
0.266161
0.257175
0.248048
0.239197
0.230953
0.223538
0.217062
0.211533
0.206896
0.203054
0.199894
0.197308
0.195196
0.193473
0.192066
0.190916
0.189976
0.189205
0.188573
0.188051
0.187621
0.187264
0.186968
0.18672
0.186512
0.186337
0.186188
0.186062
0.185953
0.185859
0.185778
0.185707
0.185644
0.185589
0.185539
0.185495
0.185455
0.185419
0.185386
0.185356
0.185328
0.1853
0.185286
0.185205
0.227549
0.226912
0.226311
0.225756
0.22526
0.224838
0.224506
0.224283
0.224185
0.224233
0.224443
0.224836
0.225427
0.226232
0.227265
0.228537
0.230055
0.231824
0.233842
0.236103
0.238594
0.241294
0.244176
0.247204
0.250335
0.25352
0.256704
0.259832
0.262848
0.265701
0.268348
0.270761
0.272938
0.274923
0.276814
0.278751
0.280877
0.28326
0.285827
0.288351
0.290506
0.291997
0.292687
0.292666
0.292219
0.291697
0.291373
0.291329
0.291432
0.291382
0.290799
0.289312
0.286632
0.282589
0.277165
0.270489
0.262827
0.254542
0.246038
0.237704
0.229867
0.222752
0.216484
0.211095
0.206546
0.202757
0.199631
0.197065
0.194967
0.193253
0.191854
0.190711
0.189777
0.189012
0.188385
0.187869
0.187444
0.187092
0.186801
0.186557
0.186353
0.186181
0.186036
0.185912
0.185806
0.185715
0.185636
0.185567
0.185506
0.185452
0.185404
0.18536
0.185321
0.185286
0.185254
0.185224
0.185197
0.185169
0.185156
0.185075
0.22751
0.226863
0.226247
0.225672
0.225148
0.224687
0.224304
0.224014
0.223833
0.223777
0.223863
0.224107
0.224524
0.22513
0.225937
0.226956
0.228194
0.229657
0.231344
0.233251
0.235369
0.23768
0.240164
0.242789
0.24552
0.248317
0.251133
0.253921
0.256633
0.259224
0.261654
0.263895
0.265946
0.267842
0.269673
0.271573
0.273679
0.276067
0.278678
0.281294
0.283593
0.285263
0.286134
0.286262
0.285902
0.285401
0.285047
0.284956
0.285033
0.285017
0.284559
0.28331
0.28099
0.277428
0.272583
0.266555
0.259564
0.251928
0.244013
0.23618
0.228744
0.221932
0.21588
0.210637
0.206184
0.202456
0.199367
0.196825
0.194741
0.193038
0.191646
0.19051
0.189582
0.188823
0.188201
0.18769
0.18727
0.186923
0.186636
0.186397
0.186197
0.186029
0.185887
0.185766
0.185663
0.185574
0.185497
0.185429
0.18537
0.185318
0.185271
0.185229
0.185191
0.185156
0.185125
0.185095
0.185069
0.185042
0.185029
0.184949
0.227468
0.226811
0.226182
0.225587
0.225037
0.224543
0.224115
0.223767
0.223513
0.223368
0.223345
0.223461
0.223728
0.224161
0.224772
0.22557
0.226564
0.227758
0.229155
0.230752
0.232541
0.234509
0.236639
0.238907
0.241282
0.243731
0.246215
0.248693
0.251124
0.253468
0.255689
0.257761
0.259681
0.261479
0.263238
0.265086
0.267158
0.269533
0.272166
0.274852
0.277271
0.279098
0.280136
0.280404
0.280131
0.279654
0.279275
0.279136
0.279179
0.279178
0.278811
0.277751
0.275729
0.272574
0.268233
0.262777
0.256392
0.249354
0.241992
0.234639
0.227595