/*--------------------------------*- C++ -*----------------------------------*\
| =========                 |                                                 |
| \\      /  F ield         | OpenFOAM: The Open Source CFD Toolbox           |
|  \\    /   O peration     | Version:  2.1.1                                 |
|   \\  /    A nd           | Web:      www.OpenFOAM.org                      |
|    \\/     M anipulation  |                                                 |
\*---------------------------------------------------------------------------*/
FoamFile
{
    version     2.0;
    format      ascii;
    class       volScalarField;
    location    "0.03";
    object      nut;
}
// * * * * * * * * * * * * * * * * * * * * * * * * * * * * * * * * * * * * * //

dimensions      [0 2 -1 0 0 0 0];

internalField   nonuniform List<scalar> 
6820
(
4.96025e-05
5.47043e-05
5.94496e-05
6.37669e-05
6.76175e-05
7.098e-05
7.38531e-05
7.6255e-05
7.82184e-05
7.97854e-05
8.10025e-05
8.19179e-05
8.25778e-05
8.30252e-05
8.32991e-05
8.34335e-05
8.34577e-05
8.33968e-05
8.32714e-05
8.30987e-05
8.28927e-05
8.26646e-05
8.24235e-05
8.21762e-05
8.19284e-05
8.16838e-05
8.14455e-05
8.12157e-05
8.09925e-05
8.07909e-05
8.05377e-05
8.05788e-05
7.9229e-05
0.00054029
0.000305016
0.000220039
0.000171663
0.000140644
0.000119795
0.00010528
9.4902e-05
8.73399e-05
8.17573e-05
7.76042e-05
7.45066e-05
7.22039e-05
7.05098e-05
6.92884e-05
6.8439e-05
6.78856e-05
6.75699e-05
6.74466e-05
6.74798e-05
6.76407e-05
6.7906e-05
6.82561e-05
6.86749e-05
6.91481e-05
6.96636e-05
7.02101e-05
7.07767e-05
7.13539e-05
7.19274e-05
7.24847e-05
7.30228e-05
7.33401e-05
0.00105858
0.000836053
0.000679179
0.000569543
0.000489972
0.00043003
0.000383615
0.000346775
0.000316889
0.000292195
0.000271479
0.00025388
0.00023877
0.000225681
0.000214258
0.000204224
0.000195361
0.000187496
0.000180487
0.000174219
0.000168596
0.000163538
0.000158978
0.000154859
0.000151132
0.000147756
0.000144694
0.000141918
0.0001394
0.000137124
0.000135054
0.00013324
0.000131385
0.00115953
0.00109651
0.00101162
0.000926329
0.000849681
0.000783442
0.000726831
0.000678436
0.000636845
0.000600836
0.00056941
0.000541767
0.000517268
0.000495409
0.000475783
0.000458065
0.00044199
0.000427343
0.000413944
0.000401644
0.000390319
0.000379862
0.000370183
0.000361205
0.000352862
0.000345097
0.000337862
0.000331117
0.00032483
0.000318973
0.00031355
0.000308515
0.000304029
0.00116966
0.00115862
0.00113362
0.00109755
0.00105566
0.00101217
0.000969634
0.000929371
0.000891925
0.000857421
0.000825767
0.000796775
0.00077022
0.000745872
0.000723509
0.000702932
0.000683958
0.000666426
0.000650192
0.000635128
0.000621124
0.00060808
0.000595907
0.000584526
0.000573867
0.000563866
0.000554466
0.000545615
0.000537264
0.00052937
0.000521895
0.000514799
0.000508072
0.00117006
0.00116839
0.00116305
0.0011526
0.00113713
0.00111768
0.00109556
0.00107197
0.00104781
0.00102374
0.00100019
0.00097745
0.000955663
0.000934912
0.000915225
0.000896597
0.000878999
0.000862394
0.000846733
0.000831965
0.000818038
0.000804901
0.000792502
0.000780793
0.000769726
0.000759254
0.000749335
0.000739923
0.000730977
0.000722455
0.000714314
0.000706517
0.000699019
0.00116996
0.00116938
0.00116821
0.00116569
0.00116123
0.00115459
0.00114586
0.00113532
0.00112336
0.00111037
0.00109668
0.00108261
0.00106839
0.00105421
0.00104021
0.00102648
0.00101311
0.00100014
0.00098761
0.000975538
0.00096393
0.00095279
0.00094211
0.000931882
0.000922092
0.000912722
0.000903754
0.000895167
0.000886938
0.000879043
0.000871457
0.000864157
0.000857116
0.00116994
0.0011694
0.00116883
0.00116802
0.00116674
0.00116472
0.00116181
0.00115793
0.00115309
0.00114736
0.00114087
0.00113372
0.00112608
0.00111805
0.00110975
0.00110129
0.00109274
0.00108419
0.00107568
0.00106727
0.001059
0.00105088
0.00104296
0.00103523
0.00102772
0.00102043
0.00101336
0.00100652
0.00099989
0.000993476
0.00098727
0.000981267
0.000975463
0.00116994
0.00116939
0.00116886
0.00116832
0.0011677
0.00116693
0.00116589
0.00116451
0.00116271
0.00116048
0.00115779
0.00115466
0.00115113
0.00114723
0.00114301
0.00113853
0.00113383
0.00112896
0.00112396
0.00111888
0.00111375
0.0011086
0.00110346
0.00109835
0.00109329
0.0010883
0.00108339
0.00107857
0.00107384
0.00106923
0.00106473
0.00106034
0.0010561
0.00116994
0.00116938
0.00116885
0.00116833
0.00116782
0.00116729
0.00116672
0.00116606
0.00116528
0.00116435
0.00116323
0.00116192
0.00116039
0.00115865
0.00115671
0.00115458
0.00115227
0.0011498
0.00114719
0.00114446
0.00114164
0.00113874
0.00113577
0.00113277
0.00112974
0.00112669
0.00112365
0.00112062
0.00111762
0.00111466
0.00111174
0.00110889
0.00110612
0.00116994
0.00116938
0.00116884
0.00116832
0.00116782
0.00116733
0.00116684
0.00116635
0.00116584
0.00116529
0.0011647
0.00116404
0.00116331
0.00116249
0.00116157
0.00116057
0.00115947
0.00115827
0.00115699
0.00115563
0.00115419
0.00115268
0.00115111
0.0011495
0.00114784
0.00114616
0.00114445
0.00114273
0.00114101
0.00113929
0.0011376
0.00113593
0.00113432
0.00116994
0.00116938
0.00116884
0.00116832
0.00116781
0.00116732
0.00116685
0.00116638
0.00116593
0.00116547
0.00116502
0.00116456
0.00116408
0.00116358
0.00116305
0.00116249
0.0011619
0.00116127
0.00116061
0.0011599
0.00115916
0.00115838
0.00115757
0.00115673
0.00115586
0.00115498
0.00115407
0.00115316
0.00115224
0.00115133
0.00115043
0.00114955
0.00114872
0.00116994
0.00116938
0.00116884
0.00116832
0.00116781
0.00116732
0.00116684
0.00116638
0.00116593
0.00116549
0.00116507
0.00116465
0.00116424
0.00116383
0.00116343
0.00116302
0.00116261
0.00116219
0.00116176
0.00116133
0.00116089
0.00116043
0.00115997
0.0011595
0.00115902
0.00115853
0.00115805
0.00115756
0.00115708
0.00115661
0.00115616
0.00115573
0.00115535
0.00116994
0.00116938
0.00116884
0.00116832
0.00116781
0.00116731
0.00116684
0.00116637
0.00116592
0.00116549
0.00116507
0.00116466
0.00116426
0.00116388
0.0011635
0.00116313
0.00116277
0.00116242
0.00116208
0.00116174
0.0011614
0.00116107
0.00116074
0.00116042
0.00116011
0.0011598
0.0011595
0.00115921
0.00115894
0.00115868
0.00115845
0.00115825
0.00115808
0.00116994
0.00116938
0.00116884
0.00116831
0.00116781
0.00116731
0.00116683
0.00116637
0.00116592
0.00116548
0.00116506
0.00116465
0.00116426
0.00116387
0.0011635
0.00116314
0.0011628
0.00116246
0.00116214
0.00116183
0.00116152
0.00116123
0.00116095
0.00116068
0.00116043
0.00116019
0.00115996
0.00115975
0.00115956
0.00115939
0.00115925
0.00115915
0.00115908
0.00116994
0.00116938
0.00116884
0.00116831
0.0011678
0.00116731
0.00116683
0.00116637
0.00116591
0.00116548
0.00116505
0.00116464
0.00116425
0.00116386
0.00116349
0.00116313
0.00116279
0.00116246
0.00116214
0.00116183
0.00116154
0.00116126
0.00116099
0.00116074
0.0011605
0.00116028
0.00116007
0.00115989
0.00115973
0.00115959
0.00115949
0.00115941
0.00115938
0.00116994
0.00116938
0.00116884
0.00116831
0.0011678
0.00116731
0.00116683
0.00116636
0.00116591
0.00116547
0.00116505
0.00116464
0.00116424
0.00116385
0.00116348
0.00116312
0.00116278
0.00116244
0.00116212
0.00116182
0.00116152
0.00116124
0.00116098
0.00116073
0.00116049
0.00116028
0.00116008
0.0011599
0.00115975
0.00115962
0.00115952
0.00115945
0.00115943
0.00116994
0.00116938
0.00116884
0.00116831
0.0011678
0.00116731
0.00116683
0.00116636
0.00116591
0.00116547
0.00116504
0.00116463
0.00116423
0.00116385
0.00116347
0.00116311
0.00116276
0.00116243
0.00116211
0.0011618
0.0011615
0.00116122
0.00116096
0.00116071
0.00116047
0.00116025
0.00116006
0.00115988
0.00115972
0.00115959
0.00115949
0.00115942
0.00115939
0.00116994
0.00116938
0.00116884
0.00116831
0.0011678
0.00116731
0.00116682
0.00116636
0.0011659
0.00116546
0.00116504
0.00116463
0.00116423
0.00116384
0.00116346
0.0011631
0.00116275
0.00116242
0.00116209
0.00116178
0.00116149
0.0011612
0.00116093
0.00116068
0.00116044
0.00116023
0.00116002
0.00115984
0.00115968
0.00115955
0.00115944
0.00115937
0.00115933
0.00116994
0.00116938
0.00116884
0.00116831
0.0011678
0.0011673
0.00116682
0.00116636
0.0011659
0.00116546
0.00116503
0.00116462
0.00116422
0.00116383
0.00116345
0.00116309
0.00116274
0.0011624
0.00116208
0.00116177
0.00116147
0.00116118
0.00116091
0.00116066
0.00116042
0.00116019
0.00115999
0.0011598
0.00115964
0.0011595
0.00115939
0.0011593
0.00115925
0.00116994
0.00116938
0.00116884
0.00116831
0.0011678
0.0011673
0.00116682
0.00116635
0.0011659
0.00116546
0.00116503
0.00116462
0.00116421
0.00116382
0.00116345
0.00116308
0.00116273
0.00116239
0.00116206
0.00116175
0.00116145
0.00116116
0.00116089
0.00116063
0.00116039
0.00116016
0.00115995
0.00115976
0.0011596
0.00115945
0.00115933
0.00115923
0.00115917
0.00116994
0.00116938
0.00116884
0.00116831
0.0011678
0.0011673
0.00116682
0.00116635
0.0011659
0.00116546
0.00116503
0.00116461
0.00116421
0.00116382
0.00116344
0.00116307
0.00116272
0.00116238
0.00116205
0.00116173
0.00116143
0.00116114
0.00116087
0.0011606
0.00116036
0.00116013
0.00115992
0.00115972
0.00115955
0.0011594
0.00115927
0.00115916
0.00115909
0.00116994
0.00116938
0.00116884
0.00116831
0.0011678
0.0011673
0.00116682
0.00116635
0.0011659
0.00116545
0.00116502
0.00116461
0.0011642
0.00116381
0.00116343
0.00116306
0.00116271
0.00116237
0.00116204
0.00116172
0.00116141
0.00116112
0.00116084
0.00116058
0.00116033
0.0011601
0.00115988
0.00115968
0.0011595
0.00115934
0.0011592
0.00115909
0.001159
0.00116994
0.00116938
0.00116884
0.00116831
0.0011678
0.0011673
0.00116682
0.00116635
0.00116589
0.00116545
0.00116502
0.0011646
0.0011642
0.00116381
0.00116343
0.00116306
0.0011627
0.00116236
0.00116202
0.0011617
0.0011614
0.0011611
0.00116082
0.00116055
0.0011603
0.00116006
0.00115984
0.00115964
0.00115945
0.00115928
0.00115914
0.00115902
0.00115892
0.00116994
0.00116938
0.00116884
0.00116831
0.0011678
0.0011673
0.00116682
0.00116635
0.00116589
0.00116545
0.00116502
0.0011646
0.00116419
0.0011638
0.00116342
0.00116305
0.00116269
0.00116234
0.00116201
0.00116169
0.00116138
0.00116108
0.0011608
0.00116053
0.00116027
0.00116003
0.0011598
0.00115959
0.0011594
0.00115923
0.00115908
0.00115894
0.00115883
0.00116994
0.00116938
0.00116884
0.00116831
0.0011678
0.0011673
0.00116682
0.00116635
0.00116589
0.00116545
0.00116502
0.0011646
0.00116419
0.0011638
0.00116341
0.00116304
0.00116268
0.00116233
0.001162
0.00116167
0.00116136
0.00116106
0.00116078
0.0011605
0.00116024
0.00116
0.00115977
0.00115955
0.00115936
0.00115918
0.00115901
0.00115887
0.00115875
0.00116994
0.00116938
0.00116884
0.00116831
0.0011678
0.0011673
0.00116682
0.00116635
0.00116589
0.00116545
0.00116501
0.0011646
0.00116419
0.00116379
0.00116341
0.00116304
0.00116267
0.00116233
0.00116199
0.00116166
0.00116135
0.00116105
0.00116076
0.00116048
0.00116022
0.00115997
0.00115973
0.00115951
0.00115931
0.00115912
0.00115896
0.00115881
0.00115868
0.00116994
0.00116938
0.00116884
0.00116831
0.0011678
0.0011673
0.00116682
0.00116635
0.00116589
0.00116545
0.00116501
0.00116459
0.00116419
0.00116379
0.0011634
0.00116303
0.00116267
0.00116232
0.00116198
0.00116165
0.00116133
0.00116103
0.00116074
0.00116046
0.00116019
0.00115994
0.0011597
0.00115948
0.00115927
0.00115908
0.0011589
0.00115874
0.00115861
0.00116994
0.00116938
0.00116884
0.00116831
0.0011678
0.0011673
0.00116682
0.00116635
0.00116589
0.00116544
0.00116501
0.00116459
0.00116418
0.00116379
0.0011634
0.00116302
0.00116266
0.00116231
0.00116197
0.00116164
0.00116132
0.00116101
0.00116072
0.00116044
0.00116017
0.00115991
0.00115967
0.00115944
0.00115923
0.00115903
0.00115885
0.00115869
0.00115854
0.00116994
0.00116938
0.00116884
0.00116831
0.0011678
0.0011673
0.00116682
0.00116635
0.00116589
0.00116545
0.00116501
0.00116459
0.00116418
0.00116378
0.0011634
0.00116302
0.00116266
0.0011623
0.00116196
0.00116163
0.00116131
0.001161
0.00116071
0.00116042
0.00116015
0.00115989
0.00115964
0.00115941
0.00115919
0.00115899
0.0011588
0.00115863
0.00115848
0.00116994
0.00116938
0.00116884
0.00116831
0.0011678
0.0011673
0.00116682
0.00116635
0.00116589
0.00116545
0.00116501
0.00116459
0.00116418
0.00116378
0.0011634
0.00116302
0.00116266
0.0011623
0.00116196
0.00116162
0.0011613
0.00116099
0.00116069
0.00116041
0.00116013
0.00115987
0.00115962
0.00115938
0.00115916
0.00115895
0.00115876
0.00115858
0.00115842
0.00116994
0.00116938
0.00116884
0.00116831
0.0011678
0.00116731
0.00116682
0.00116635
0.0011659
0.00116545
0.00116502
0.0011646
0.00116419
0.00116379
0.0011634
0.00116303
0.00116266
0.0011623
0.00116196
0.00116162
0.0011613
0.00116098
0.00116068
0.00116039
0.00116011
0.00115984
0.00115959
0.00115934
0.00115911
0.00115889
0.00115869
0.0011585
0.00115833
0.00116994
0.00116938
0.00116884
0.00116832
0.00116781
0.00116731
0.00116683
0.00116636
0.00116591
0.00116546
0.00116503
0.00116461
0.0011642
0.0011638
0.00116341
0.00116302
0.00116265
0.00116229
0.00116193
0.00116159
0.00116125
0.00116092
0.0011606
0.00116029
0.00115999
0.0011597
0.00115941
0.00115914
0.00115888
0.00115862
0.00115838
0.00115815
0.00115793
0.00116994
0.00116938
0.00116884
0.00116833
0.00116782
0.00116733
0.00116686
0.00116639
0.00116593
0.00116548
0.00116504
0.0011646
0.00116417
0.00116375
0.00116333
0.00116291
0.00116249
0.00116208
0.00116167
0.00116126
0.00116085
0.00116044
0.00116003
0.00115962
0.00115921
0.0011588
0.00115839
0.00115799
0.00115758
0.00115718
0.00115679
0.00115639
0.00115601
0.00116994
0.00116939
0.00116887
0.00116835
0.00116784
0.00116734
0.00116684
0.00116634
0.00116582
0.0011653
0.00116476
0.00116421
0.00116363
0.00116303
0.0011624
0.00116175
0.00116107
0.00116037
0.00115964
0.00115889
0.00115811
0.00115731
0.00115649
0.00115565
0.00115479
0.00115391
0.00115302
0.00115212
0.0011512
0.00115028
0.00114935
0.00114841
0.00114747
0.00116995
0.0011694
0.00116886
0.00116829
0.00116766
0.00116696
0.00116616
0.00116524
0.0011642
0.00116304
0.00116175
0.00116034
0.0011588
0.00115715
0.00115539
0.00115353
0.00115157
0.00114953
0.00114742
0.00114525
0.00114302
0.00114075
0.00113844
0.0011361
0.00113374
0.00113137
0.00112899
0.00112662
0.00112425
0.0011219
0.00111957
0.00111726
0.00111498
0.00116996
0.00116917
0.00116787
0.00116599
0.00116351
0.00116043
0.00115677
0.00115256
0.00114786
0.00114273
0.00113723
0.00113144
0.0011254
0.00111918
0.00111282
0.00110639
0.00109991
0.00109342
0.00108696
0.00108055
0.00107421
0.00106797
0.00106184
0.00105584
0.00104997
0.00104426
0.00103869
0.00103329
0.00102806
0.00102299
0.0010181
0.00101338
0.00100884
0.00116832
0.00115864
0.00114509
0.00112866
0.00111005
0.00108999
0.00106911
0.00104792
0.00102682
0.00100606
0.000985826
0.000966248
0.000947393
0.000929297
0.000911974
0.000895417
0.000879611
0.00086453
0.000850146
0.000836425
0.000823333
0.000810836
0.0007989
0.000787489
0.00077657
0.000766112
0.000756083
0.000746452
0.00073719
0.000728271
0.000719667
0.000711351
0.000703303
0.00107566
0.000936169
0.000835513
0.000756455
0.000691298
0.000637185
0.000591916
0.00055366
0.000520973
0.000492749
0.00046814
0.000446491
0.000427295
0.000410155
0.000394754
0.000380839
0.000368203
0.000356678
0.000346124
0.000336423
0.000327479
0.000319208
0.000311538
0.000304411
0.000297772
0.000291576
0.000285786
0.000280365
0.000275284
0.000270516
0.000266038
0.00026183
0.000257872
0.000142979
0.000146644
0.000150175
0.000153551
0.000156773
0.000159846
0.000162775
0.000165565
0.000168221
0.000170749
0.000173152
0.000175436
0.000177606
0.000179666
0.00018162
0.000183472
0.000185228
0.000186891
0.000188465
0.000189954
0.000191362
0.000192692
0.000193948
0.000195133
0.000196249
0.000197301
0.00019829
0.00019922
0.000200093
0.000200912
0.000201679
0.000202395
0.000203065
9.12204e-05
0.000115542
0.000157465
0.000219504
0.000295514
0.000374977
0.000452184
0.000527562
0.000602872
0.000677108
0.000746146
0.000803642
0.000844921
0.000866923
0.000867688
0.000845619
0.000799061
0.000726779
0.000629867
0.000515979
0.000406413
0.000344789
0.000418051
0.000734707
0.0010876
0.00129621
0.00145797
0.00160859
0.00174436
0.00185922
0.00195144
0.00202289
0.00207755
0.00211994
0.00215385
0.00218166
0.00220431
0.00222219
0.00223605
0.00224744
0.00225806
0.00226871
0.00227844
0.00228446
0.00228305
0.00227064
0.00224473
0.00220426
0.00214954
0.00208208
0.0020043
0.00191937
0.00183083
0.00174234
0.0016572
0.00157805
0.00150661
0.00144368
0.00138936
0.00134328
0.00130484
0.00127327
0.00124765
0.00122704
0.00121052
0.00119732
0.00118679
0.00117842
0.00117179
0.00116657
0.00116248
0.00115929
0.00115683
0.00115494
0.00115351
0.00115243
0.00115163
0.00115105
0.00115064
0.00115035
0.00115016
0.00115004
0.00114997
0.00114995
0.00114995
0.00114996
0.00114999
0.00115003
0.00115006
0.0011501
0.00115014
0.00115018
0.00115021
0.00115024
0.00115027
0.00115029
0.00115031
0.00115033
0.00115034
0.00115034
7.44816e-05
7.64272e-05
7.96776e-05
8.92242e-05
0.00011165
0.000150183
0.000203335
0.000266077
0.00033192
0.000394972
0.000450397
0.00049407
0.000524103
0.000538955
0.0005368
0.000515957
0.000476108
0.000420301
0.000357898
0.000309076
0.000314375
0.00044939
0.000737414
0.000995966
0.00117658
0.00133494
0.00148552
0.00162353
0.00174336
0.00184243
0.0019211
0.00198184
0.00202837
0.00206469
0.00209415
0.00211872
0.00213901
0.002155
0.00216709
0.00217657
0.00218526
0.00219442
0.00220367
0.00221079
0.00221227
0.00220442
0.00218441
0.00215071
0.00210319
0.00204293
0.00197204
0.00189338
0.00181036
0.00172652
0.00164521
0.00156915
0.00150021
0.00143933
0.00138667
0.00134191
0.00130444
0.0012735
0.00124825
0.00122782
0.00121138
0.0011982
0.00118765
0.00117924
0.00117257
0.00116729
0.00116315
0.00115991
0.00115739
0.00115545
0.00115397
0.00115284
0.001152
0.00115138
0.00115093
0.00115061
0.00115039
0.00115024
0.00115015
0.0011501
0.00115008
0.00115007
0.00115009
0.00115011
0.00115013
0.00115016
0.00115019
0.00115022
0.00115024
0.00115027
0.00115029
0.00115031
0.00115032
0.00115034
0.00115035
0.00115034
0.000129367
0.00012868
0.000130937
0.000132027
0.000123379
0.00010911
0.000103327
0.000110422
0.000128307
0.000153354
0.000181818
0.000210491
0.000235044
0.000251724
0.000258576
0.000256415
0.000250148
0.000251372
0.000283786
0.000388068
0.000581769
0.0007853
0.000948587
0.00109762
0.00124538
0.00138844
0.001521
0.00163883
0.0017395
0.00182227
0.00188799
0.00193888
0.00197811
0.00200907
0.00203464
0.00205647
0.00207487
0.00208948
0.00210029
0.00210829
0.00211529
0.00212288
0.00213132
0.00213898
0.00214274
0.00213896
0.00212452
0.00209746
0.00205718
0.0020043
0.00194053
0.00186843
0.00179117
0.00171218
0.00163478
0.00156181
0.00149526
0.00143624
0.00138503
0.00134137
0.00130469
0.00127425
0.00124928
0.00122897
0.00121255
0.00119933
0.00118873
0.00118025
0.00117349
0.00116814
0.00116391
0.00116059
0.001158
0.00115599
0.00115444
0.00115326
0.00115236
0.00115169
0.00115119
0.00115083
0.00115057
0.0011504
0.00115028
0.0011502
0.00115015
0.00115013
0.00115013
0.00115013
0.00115014
0.00115016
0.00115017
0.00115019
0.00115021
0.00115023
0.00115024
0.00115025
0.00115027
0.00115028
0.00115028
0.00115027
0.00029907
0.00029453
0.000294778
0.00030751
0.00034258
0.000395937
0.000415752
0.000363205
0.00029104
0.000242187
0.000217486
0.00021055
0.000215341
0.000229954
0.00025591
0.000298326
0.000364815
0.000459264
0.000572922
0.00069057
0.00080906
0.000933301
0.00106299
0.00119368
0.00132083
0.00144075
0.00155032
0.00164713
0.00172974
0.00179779
0.00185207
0.0018944
0.00192734
0.00195374
0.00197603
0.00199559
0.00201251
0.00202616
0.00203614
0.0020431
0.00204872
0.00205481
0.00206217
0.00206984
0.00207519
0.00207476
0.0020653
0.00204446
0.00201119
0.00196563
0.00190906
0.00184368
0.00177237
0.00169842
0.00162509
0.00155526
0.00149109
0.00143384
0.00138396
0.00134128
0.00130527
0.00127525
0.00125051
0.00123029
0.00121388
0.00120061
0.00118994
0.00118137
0.00117452
0.00116907
0.00116474
0.00116133
0.00115865
0.00115655
0.00115493
0.00115368
0.00115272
0.00115199
0.00115145
0.00115104
0.00115074
0.00115052
0.00115037
0.00115027
0.00115019
0.00115015
0.00115012
0.00115011
0.00115011
0.00115011
0.00115011
0.00115012
0.00115013
0.00115014
0.00115014
0.00115015
0.00115016
0.00115016
0.00115016
0.00115015
0.000500624
0.000492431
0.000484873
0.00047987
0.000482668
0.000500818
0.000537088
0.000579648
0.000600673
0.000566726
0.000521699
0.000493014
0.000483538
0.000492161
0.000517842
0.000559711
0.000616609
0.00068706
0.000769428
0.000861711
0.000961451
0.00106606
0.0011729
0.00127925
0.00138228
0.00147927
0.00156783
0.00164617
0.00171325
0.00176883
0.00181351
0.0018487
0.00187645
0.00189911
0.00191873
0.00193648
0.0019523
0.00196534
0.00197489
0.00198124
0.00198583
0.00199059
0.00199675
0.00200398
0.00201025
0.00201241
0.00200719
0.00199199
0.00196531
0.00192684
0.0018774
0.00181879
0.00175358
0.00168482
0.0016157
0.00154912
0.00148735
0.00143185
0.00138322
0.00134141
0.001306
0.00127637
0.00125183
0.00123169
0.00121527
0.00120196
0.00119121
0.00118255
0.0011756
0.00117004
0.00116561
0.0011621
0.00115932
0.00115714
0.00115543
0.0011541
0.00115308
0.00115229
0.00115168
0.00115123
0.00115088
0.00115063
0.00115044
0.0011503
0.0011502
0.00115013
0.00115009
0.00115005
0.00115003
0.00115002
0.00115001
0.00115001
0.00115
0.00115
0.00115
0.00115001
0.00115
0.00115001
0.00115
0.00114998
0.000690601
0.000681142
0.000671642
0.000662151
0.000653376
0.000647487
0.000647511
0.000654561
0.000665492
0.000672822
0.000677004
0.000681511
0.000690302
0.00070644
0.000731877
0.0007676
0.000813824
0.000870147
0.000935672
0.00100906
0.00108856
0.00117211
0.00125747
0.0013424
0.00142464
0.00150212
0.00157306
0.00163612
0.00169046
0.00173587
0.00177278
0.00180225
0.00182588
0.00184559
0.00186314
0.0018795
0.00189454
0.00190728
0.00191672
0.00192283
0.00192678
0.00193045
0.00193542
0.00194192
0.00194852
0.0019525
0.0019507
0.0019404
0.00191974
0.00188797
0.00184545
0.00179354
0.00173446
0.00167101
0.00160623
0.00154301
0.00148373
0.00142998
0.00138257
0.0013416
0.00130675
0.00127746
0.00125311
0.00123305
0.00121664
0.00120328
0.00119246
0.00118372
0.00117667
0.00117101
0.00116648
0.00116287
0.00115999
0.00115772
0.00115593
0.00115452
0.00115342
0.00115257
0.00115191
0.0011514
0.00115101
0.00115071
0.00115048
0.00115031
0.00115018
0.00115009
0.00115001
0.00114996
0.00114992
0.00114989
0.00114987
0.00114986
0.00114984
0.00114983
0.00114983
0.00114982
0.00114981
0.00114981
0.0011498
0.00114978
0.000849187
0.000840296
0.000831498
0.000822887
0.000814644
0.000807217
0.000801596
0.000799132
0.000800752
0.000805781
0.000813812
0.000825079
0.000840348
0.000860622
0.000886868
0.000919802
0.000959779
0.00100673
0.00106014
0.00111914
0.00118251
0.0012488
0.00131641
0.00138365
0.00144888
0.00151056
0.00156734
0.00161818
0.0016624
0.0016998
0.00173063
0.00175565
0.00177612
0.0017936
0.0018096
0.00182496
0.0018395
0.00185215
0.00186176
0.00186794
0.00187159
0.0018745
0.0018784
0.001884
0.00189046
0.00189554
0.00189636
0.00189014
0.00187478
0.00184917
0.0018132
0.00176781
0.00171481
0.00165672
0.00159638
0.00153665
0.00147993
0.001428
0.00138182
0.00134168
0.00130736
0.00127841
0.00125426
0.00123428
0.00121789
0.00120451
0.00119364
0.00118483
0.0011777
0.00117195
0.00116732
0.00116361
0.00116065
0.00115828
0.00115641
0.00115492
0.00115375
0.00115283
0.00115211
0.00115154
0.00115111
0.00115076
0.0011505
0.00115029
0.00115013
0.00115001
0.00114992
0.00114984
0.00114978
0.00114974
0.0011497
0.00114967
0.00114965
0.00114963
0.00114961
0.0011496
0.00114959
0.00114958
0.00114957
0.00114954
0.000968924
0.000961625
0.000954507
0.000947729
0.000941504
0.000936108
0.000931953
0.00092961
0.00092978
0.000932979
0.000939558
0.000949822
0.000964101
0.000982764
0.00100616
0.00103456
0.00106806
0.00110653
0.0011496
0.00119667
0.00124689
0.00129925
0.00135263
0.00140583
0.00145765
0.00150694
0.00155268
0.00159403
0.00163045
0.00166169
0.00168788
0.00170955
0.00172768
0.00174355
0.00175843
0.0017731
0.00178735
0.0018001
0.00181005
0.00181656
0.00182023
0.00182267
0.00182571
0.00183039
0.00183639
0.00184199
0.00184463
0.00184165
0.00183082
0.00181069
0.00178078
0.00174158
0.00169452
0.00164175
0.00158593
0.00152977
0.00147574
0.00142571
0.00138081
0.00134151
0.00130774
0.00127914
0.00125518
0.00123531
0.00121896
0.00120558
0.00119467
0.00118581
0.00117861
0.00117279
0.00116809
0.00116429
0.00116124
0.0011588
0.00115685
0.00115529
0.00115405
0.00115306
0.00115228
0.00115167
0.00115118
0.0011508
0.00115049
0.00115025
0.00115006
0.00114991
0.00114979
0.0011497
0.00114962
0.00114956
0.00114951
0.00114947
0.00114943
0.0011494
0.00114938
0.00114936
0.00114934
0.00114932
0.0011493
0.00114927
0.00105131
0.00104599
0.00104089
0.00103617
0.00103205
0.00102876
0.00102656
0.0010258
0.00102691
0.00103028
0.0010363
0.00104533
0.00105765
0.00107352
0.00109312
0.00111656
0.00114384
0.00117482
0.00120921
0.00124658
0.00128635
0.00132781
0.00137017
0.00141257
0.00145414
0.001494
0.00153135
0.00156552
0.00159604
0.00162265
0.00164539
0.0016646
0.00168104
0.00169577
0.00170989
0.0017241
0.00173822
0.00175118
0.0017616
0.00176863
0.00177257
0.00177484
0.00177724
0.00178107
0.00178644
0.00179211
0.00179591
0.00179537
0.00178823
0.00177285
0.0017484
0.00171497
0.00167357
0.00162603
0.00157472
0.00152222
0.00147098
0.00142295
0.00137941
0.00134101
0.00130782
0.00127957
0.00125584
0.00123609
0.00121979
0.00120643
0.00119551
0.00118661
0.00117938
0.0011735
0.00116874
0.00116488
0.00116176
0.00115925
0.00115723
0.0011556
0.0011543
0.00115326
0.00115242
0.00115176
0.00115122
0.0011508
0.00115046
0.00115018
0.00114997
0.00114979
0.00114965
0.00114953
0.00114943
0.00114936
0.00114929
0.00114924
0.00114919
0.00114915
0.00114912
0.00114909
0.00114907
0.00114905
0.00114902
0.00114898
0.001103
0.00109956
0.00109633
0.00109346
0.00109115
0.00108959
0.00108901
0.00108966
0.00109179
0.00109568
0.00110161
0.00110983
0.00112057
0.00113403
0.00115035
0.00116959
0.00119174
0.00121672
0.0012443
0.00127421
0.00130603
0.00133928
0.00137339
0.00140774
0.00144167
0.0014745
0.00150561
0.00153444
0.00156057
0.00158376
0.00160395
0.00162138
0.00163662
0.00165056
0.00166417
0.0016781
0.00169219
0.00170543
0.00171637
0.00172402
0.00172843
0.00173077
0.00173278
0.00173591
0.00174059
0.00174603
0.00175045
0.00175163
0.00174739
0.00173599
0.00171633
0.00168815
0.00165207
0.00160956
0.00156271
0.00151391
0.00146555
0.00141962
0.00137754
0.0013401
0.00130753
0.00127968
0.00125619
0.00123658
0.00122036
0.00120703
0.00119612
0.00118721
0.00117995
0.00117404
0.00116924
0.00116533
0.00116216
0.00115959
0.00115752
0.00115584
0.00115449
0.00115339
0.00115251
0.0011518
0.00115123
0.00115077
0.00115039
0.00115009
0.00114984
0.00114964
0.00114948
0.00114934
0.00114923
0.00114913
0.00114906
0.00114899
0.00114893
0.00114889
0.00114885
0.00114881
0.00114878
0.00114875
0.00114873
0.00114868
0.00113252
0.00113057
0.00112881
0.00112738
0.00112644
0.00112616
0.00112671
0.00112829
0.00113108
0.00113527
0.00114107
0.00114864
0.00115815
0.00116975
0.00118354
0.00119957
0.00121785
0.00123832
0.00126085
0.00128525
0.00131124
0.00133848
0.00136655
0.001395
0.00142332
0.00145099
0.0014775
0.00150238
0.00152526
0.00154591
0.00156422
0.00158035
0.00159474
0.00160813
0.0016214
0.00163515
0.00164927
0.00166279
0.00167429
0.00168261
0.0016876
0.00169021
0.00169206
0.00169465
0.00169869
0.00170373
0.00170837
0.00171067
0.00170862
0.00170044
0.00168487
0.00166136
0.00163018
0.00159244
0.00154992
0.00150482
0.0014594
0.00141567
0.00137515
0.00133876
0.00130687
0.00127945
0.00125622
0.00123678
0.00122065
0.00120737
0.00119648
0.00118759
0.00118032
0.00117439
0.00116956
0.00116563
0.00116242
0.00115982
0.0011577
0.00115598
0.00115459
0.00115346
0.00115254
0.00115179
0.00115118
0.00115069
0.00115029
0.00114996
0.00114969
0.00114946
0.00114928
0.00114913
0.001149
0.00114889
0.0011488
0.00114872
0.00114866
0.0011486
0.00114856
0.00114851
0.00114848
0.00114845
0.00114842
0.00114836
0.0011478
0.00114687
0.00114612
0.00114565
0.00114561
0.00114612
0.00114734
0.00114942
0.0011525
0.00115673
0.00116224
0.00116918
0.00117766
0.00118779
0.00119964
0.00121327
0.00122868
0.00124586
0.00126471
0.00128511
0.00130687
0.00132974
0.00135342
0.00137756
0.00140177
0.00142562
0.0014487
0.00147064
0.00149109
0.00150982
0.00152672
0.00154187
0.00155562
0.00156862
0.00158164
0.00159526
0.00160941
0.00162321
0.00163523
0.00164424
0.00164988
0.00165289
0.00165476
0.001657
0.00166047
0.00166504
0.00166964
0.00167261
0.00167213
0.00166648
0.00165432
0.00163487
0.00160811
0.00157481
0.00153645
0.00149497
0.00145253
0.00141108
0.00137221
0.00133695
0.00130581
0.00127887
0.00125595
0.00123669
0.00122068
0.00120746
0.00119661
0.00118773
0.00118047
0.00117454
0.0011697
0.00116575
0.00116253
0.0011599
0.00115776
0.00115602
0.00115459
0.00115343
0.00115248
0.00115171
0.00115108
0.00115056
0.00115013
0.00114978
0.00114949
0.00114925
0.00114905
0.00114888
0.00114874
0.00114862
0.00114852
0.00114844
0.00114837
0.0011483
0.00114825
0.0011482
0.00114816
0.00114812
0.00114809
0.00114803
0.00115496
0.00115462
0.00115445
0.00115454
0.00115499
0.00115592
0.00115745
0.00115969
0.00116278
0.00116682
0.00117193
0.00117821
0.00118576
0.00119466
0.00120498
0.00121675
0.00123
0.00124472
0.00126084
0.00127829
0.00129693
0.00131658
0.00133701
0.00135794
0.00137906
0.00140003
0.00142051
0.00144018
0.00145874
0.00147598
0.00149176
0.00150614
0.00151938
0.00153205
0.00154486
0.00155837
0.00157254
0.00158657
0.00159907
0.00160874
0.00161505
0.00161855
0.00162058
0.00162261
0.00162563
0.00162974
0.00163413
0.00163744
0.00163804
0.00163433
0.00162493
0.00160894
0.0015861
0.00155686
0.00152242
0.00148447
0.00144498
0.00140588
0.00136874
0.0013347
0.00130438
0.00127798
0.00125539
0.00123635
0.00122046
0.00120731
0.00119651
0.00118765
0.00118041
0.00117449
0.00116966
0.00116571
0.00116248
0.00115984
0.00115769
0.00115593
0.00115449
0.00115331
0.00115234
0.00115155
0.0011509
0.00115036
0.00114992
0.00114955
0.00114925
0.001149
0.00114878
0.00114861
0.00114846
0.00114833
0.00114822
0.00114813
0.00114805
0.00114798
0.00114792
0.00114787
0.00114782
0.00114779
0.00114775
0.00114769
0.00115796
0.00115792
0.00115804
0.00115839
0.00115906
0.00116014
0.00116173
0.00116392
0.00116683
0.00117055
0.00117517
0.00118079
0.00118748
0.00119531
0.00120434
0.00121462
0.00122615
0.00123895