/*--------------------------------*- C++ -*----------------------------------*\
| =========                 |                                                 |
| \\      /  F ield         | OpenFOAM: The Open Source CFD Toolbox           |
|  \\    /   O peration     | Version:  2.1.1                                 |
|   \\  /    A nd           | Web:      www.OpenFOAM.org                      |
|    \\/     M anipulation  |                                                 |
\*---------------------------------------------------------------------------*/
FoamFile
{
    version     2.0;
    format      ascii;
    class       volScalarField;
    location    "0.03";
    object      p;
}
// * * * * * * * * * * * * * * * * * * * * * * * * * * * * * * * * * * * * * //

dimensions      [0 2 -2 0 0 0 0];

internalField   nonuniform List<scalar> 
6820
(
-10.5455
-12.3926
-12.9695
-13.1005
-13.2114
-13.2954
-13.3555
-13.4085
-13.4583
-13.5055
-13.5508
-13.5951
-13.6384
-13.6809
-13.7228
-13.764
-13.8048
-13.8451
-13.8848
-13.924
-13.9625
-14.0002
-14.0367
-14.0716
-14.1044
-14.1343
-14.1599
-14.18
-14.1916
-14.192
-14.1747
-14.1281
-14.046
-14.4978
-13.9638
-13.5436
-13.3565
-13.3356
-13.3515
-13.3774
-13.4117
-13.4513
-13.4928
-13.5352
-13.5782
-13.6211
-13.6639
-13.7063
-13.7483
-13.7899
-13.831
-13.8716
-13.9116
-13.951
-13.9896
-14.0271
-14.0631
-14.0972
-14.1287
-14.1567
-14.1801
-14.1968
-14.2072
-14.2048
-14.2127
-14.1927
-12.8551
-12.552
-12.8406
-13.0882
-13.1976
-13.2777
-13.3423
-13.3981
-13.4494
-13.4976
-13.5436
-13.5881
-13.6314
-13.6739
-13.7156
-13.7567
-13.7974
-13.8375
-13.8773
-13.9166
-13.9553
-13.9934
-14.0307
-14.0667
-14.1011
-14.1334
-14.1627
-14.1884
-14.2089
-14.2241
-14.2308
-14.2352
-14.218
-13.3618
-13.3969
-13.3968
-13.3403
-13.3361
-13.3611
-13.393
-13.4283
-13.4663
-13.5058
-13.5458
-13.5862
-13.6267
-13.6672
-13.7077
-13.7481
-13.7883
-13.8283
-13.8681
-13.9077
-13.9468
-13.9855
-14.0236
-14.0607
-14.0966
-14.1309
-14.163
-14.1926
-14.2186
-14.2417
-14.2596
-14.2798
-14.2881
-13.2058
-13.106
-13.152
-13.2215
-13.2784
-13.3297
-13.3759
-13.4197
-13.4627
-13.5052
-13.547
-13.5883
-13.6294
-13.6701
-13.7105
-13.7507
-13.7907
-13.8305
-13.8701
-13.9095
-13.9487
-13.9875
-14.0259
-14.0637
-14.1007
-14.1367
-14.1713
-14.2044
-14.2357
-14.2657
-14.2937
-14.3243
-14.3517
-13.2605
-13.2448
-13.2717
-13.2977
-13.3237
-13.3576
-13.3946
-13.4325
-13.4714
-13.5108
-13.5503
-13.5899
-13.6294
-13.669
-13.7085
-13.7479
-13.7874
-13.8268
-13.8662
-13.9056
-13.945
-13.9842
-14.0233
-14.0622
-14.1007
-14.1388
-14.1764
-14.2136
-14.2504
-14.2878
-14.3259
-14.3682
-14.4135
-13.2574
-13.2371
-13.2548
-13.2866
-13.3204
-13.3579
-13.3963
-13.4345
-13.4732
-13.5121
-13.551
-13.59
-13.6291
-13.6681
-13.7072
-13.7463
-13.7854
-13.8247
-13.864
-13.9034
-13.943
-13.9826
-14.0224
-14.0623
-14.1024
-14.1426
-14.1831
-14.2243
-14.2665
-14.3107
-14.3578
-14.4107
-14.4705
-13.2708
-13.2638
-13.281
-13.3083
-13.3372
-13.3698
-13.4047
-13.4406
-13.4774
-13.5147
-13.5524
-13.5903
-13.6283
-13.6666
-13.7049
-13.7435
-13.7822
-13.821
-13.8602
-13.8996
-13.9393
-13.9793
-14.0198
-14.0607
-14.1023
-14.1447
-14.1881
-14.233
-14.2802
-14.3306
-14.3858
-14.4479
-14.5194
-13.2825
-13.2792
-13.2932
-13.3175
-13.3451
-13.3763
-13.4099
-13.4445
-13.48
-13.5162
-13.5529
-13.5898
-13.627
-13.6645
-13.7022
-13.7402
-13.7784
-13.817
-13.8559
-13.8952
-13.9351
-13.9755
-14.0166
-14.0586
-14.1015
-14.1459
-14.1919
-14.2403
-14.2918
-14.3477
-14.4093
-14.4789
-14.5591
-13.2946
-13.2946
-13.3077
-13.3299
-13.3556
-13.3846
-13.4161
-13.449
-13.483
-13.5178
-13.5532
-13.5891
-13.6254
-13.662
-13.699
-13.7363
-13.774
-13.8122
-13.8508
-13.89
-13.9299
-13.9706
-14.0122
-14.055
-14.0993
-14.1453
-14.1936
-14.245
-14.3001
-14.3603
-14.4271
-14.5022
-14.5884
-13.3065
-13.3081
-13.3203
-13.3404
-13.3643
-13.3915
-13.4213
-13.4528
-13.4854
-13.5189
-13.5532
-13.588
-13.6233
-13.6591
-13.6953
-13.7319
-13.769
-13.8067
-13.845
-13.884
-13.9238
-13.9647
-14.0067
-14.0502
-14.0954
-14.1429
-14.193
-14.2467
-14.3046
-14.3681
-14.4384
-14.5172
-14.6068
-13.3179
-13.3205
-13.3319
-13.3504
-13.3727
-13.3983
-13.4264
-13.4563
-13.4875
-13.5197
-13.5528
-13.5865
-13.6208
-13.6556
-13.691
-13.7269
-13.7633
-13.8005
-13.8383
-13.877
-13.9167
-13.9575
-13.9998
-14.0437
-14.0896
-14.1381
-14.1896
-14.2448
-14.3047
-14.3702
-14.4427
-14.5234
-14.6143
-13.3286
-13.3316
-13.3425
-13.3595
-13.3803
-13.4043
-13.4309
-13.4593
-13.4891
-13.5201
-13.5519
-13.5845
-13.6178
-13.6517
-13.6861
-13.7212
-13.7569
-13.7934
-13.8307
-13.869
-13.9083
-13.949
-13.9913
-14.0354
-14.0817
-14.1307
-14.1829
-14.2391
-14.3
-14.3665
-14.4397
-14.5207
-14.611
-13.3386
-13.3417
-13.352
-13.3678
-13.3872
-13.4098
-13.4349
-13.4619
-13.4903
-13.52
-13.5506
-13.582
-13.6142
-13.6471
-13.6806
-13.7148
-13.7497
-13.7854
-13.8221
-13.8598
-13.8987
-13.939
-13.981
-14.0249
-14.0713
-14.1204
-14.1728
-14.2291
-14.2901
-14.3565
-14.4292
-14.509
-14.5972
-13.3476
-13.3508
-13.3605
-13.3752
-13.3933
-13.4145
-13.4382
-13.4638
-13.4909
-13.5193
-13.5487
-13.579
-13.61
-13.6418
-13.6743
-13.7075
-13.7416
-13.7765
-13.8123
-13.8493
-13.8875
-13.9273
-13.9687
-14.0122
-14.0581
-14.1068
-14.1588
-14.2146
-14.2748
-14.3401
-14.4111
-14.4886
-14.5734
-13.3558
-13.3588
-13.368
-13.3816
-13.3987
-13.4186
-13.4409
-13.4652
-13.491
-13.518
-13.5462
-13.5752
-13.6051
-13.6358
-13.6672
-13.6994
-13.7324
-13.7664
-13.8013
-13.8374
-13.8748
-13.9137
-13.9543
-13.997
-14.042
-14.0898
-14.1408
-14.1953
-14.254
-14.3173
-14.3857
-14.4598
-14.54
-13.3629
-13.3658
-13.3744
-13.3872
-13.4031
-13.4218
-13.4429
-13.4658
-13.4903
-13.5161
-13.543
-13.5708
-13.5995
-13.629
-13.6593
-13.6904
-13.7223
-13.7551
-13.7889
-13.8239
-13.8602
-13.8981
-13.9376
-13.9791
-14.0229
-14.0693
-14.1186
-14.1712
-14.2276
-14.2881
-14.3531
-14.4229
-14.4978
-13.3691
-13.3718
-13.3799
-13.3918
-13.4067
-13.4243
-13.4441
-13.4658
-13.489
-13.5135
-13.5391
-13.5657
-13.5931
-13.6214
-13.6504
-13.6803
-13.7109
-13.7425
-13.7751
-13.8089
-13.8439
-13.8803
-13.9184
-13.9584
-14.0005
-14.045
-14.0922
-14.1424
-14.1958
-14.2528
-14.3136
-14.3784
-14.4474
-13.3742
-13.3768
-13.3843
-13.3955
-13.4094
-13.4258
-13.4445
-13.4649
-13.4869
-13.5101
-13.5344
-13.5597
-13.5859
-13.6128
-13.6405
-13.6691
-13.6984
-13.7286
-13.7598
-13.7921
-13.8256
-13.8604
-13.8968
-13.9349
-13.9749
-14.0171
-14.0616
-14.1088
-14.1587
-14.2117
-14.2677
-14.327
-14.3895
-13.3782
-13.3806
-13.3877
-13.3981
-13.4111
-13.4265
-13.444
-13.4633
-13.484
-13.5059
-13.5289
-13.5529
-13.5777
-13.6033
-13.6296
-13.6567
-13.6846
-13.7133
-13.743
-13.7736
-13.8053
-13.8383
-13.8726
-13.9085
-13.9461
-13.9855
-14.027
-14.0707
-14.1166
-14.165
-14.2159
-14.2692
-14.325
-13.3812
-13.3835
-13.3901
-13.3998
-13.4119
-13.4263
-13.4427
-13.4607
-13.4802
-13.5009
-13.5226
-13.5452
-13.5686
-13.5928
-13.6177
-13.6432
-13.6696
-13.6966
-13.7245
-13.7533
-13.783
-13.8139
-13.8459
-13.8793
-13.9141
-13.9504
-13.9885
-14.0282
-14.0699
-14.1133
-14.1587
-14.2058
-14.2546
-13.3831
-13.3852
-13.3913
-13.4004
-13.4117
-13.4251
-13.4404
-13.4573
-13.4756
-13.495
-13.5153
-13.5366
-13.5586
-13.5812
-13.6046
-13.6285
-13.6532
-13.6784
-13.7044
-13.7312
-13.7588
-13.7873
-13.8167
-13.8473
-13.879
-13.912
-13.9462
-13.9818
-14.0188
-14.0571
-14.0966
-14.1374
-14.1792
-13.3839
-13.3858
-13.3915
-13.3999
-13.4104
-13.4229
-13.4372
-13.453
-13.47
-13.4881
-13.5072
-13.527
-13.5475
-13.5687
-13.5904
-13.6127
-13.6355
-13.6588
-13.6828
-13.7074
-13.7326
-13.7585
-13.7852
-13.8127
-13.8411
-13.8704
-13.9007
-13.9318
-13.9639
-13.9968
-14.0305
-14.0648
-14.0995
-13.3835
-13.3854
-13.3906
-13.3984
-13.4081
-13.4198
-13.433
-13.4477
-13.4635
-13.4804
-13.4981
-13.5165
-13.5355
-13.555
-13.5751
-13.5956
-13.6165
-13.6378
-13.6596
-13.6818
-13.7045
-13.7277
-13.7514
-13.7757
-13.8006
-13.826
-13.8521
-13.8786
-13.9056
-13.9331
-13.9608
-13.9886
-14.0165
-13.3821
-13.3838
-13.3886
-13.3958
-13.4048
-13.4156
-13.4279
-13.4415
-13.4562
-13.4718
-13.4881
-13.5051
-13.5226
-13.5405
-13.5588
-13.5774
-13.5964
-13.6156
-13.635
-13.6548
-13.6748
-13.6951
-13.7158
-13.7366
-13.7578
-13.7793
-13.8009
-13.8227
-13.8446
-13.8666
-13.8883
-13.9098
-13.9309
-13.3795
-13.3811
-13.3855
-13.3921
-13.4004
-13.4103
-13.4216
-13.4341
-13.4476
-13.462
-13.477
-13.4925
-13.5085
-13.5247
-13.5413
-13.558
-13.5749
-13.5919
-13.609
-13.6262
-13.6434
-13.6608
-13.6781
-13.6955
-13.7129
-13.7302
-13.7475
-13.7645
-13.7814
-13.7978
-13.8137
-13.829
-13.8435
-13.3758
-13.3773
-13.3813
-13.3874
-13.395
-13.4042
-13.4147
-13.4262
-13.4387
-13.4518
-13.4655
-13.4796
-13.494
-13.5086
-13.5233
-13.538
-13.5528
-13.5675
-13.5822
-13.5967
-13.6111
-13.6253
-13.6394
-13.6532
-13.6667
-13.6799
-13.6926
-13.7049
-13.7167
-13.7277
-13.7379
-13.7472
-13.7553
-13.371
-13.3722
-13.3758
-13.3812
-13.3881
-13.3963
-13.4058
-13.4164
-13.4277
-13.4396
-13.452
-13.4647
-13.4776
-13.4906
-13.5035
-13.5163
-13.529
-13.5414
-13.5536
-13.5655
-13.577
-13.5882
-13.5989
-13.6091
-13.6188
-13.6279
-13.6363
-13.6439
-13.6507
-13.6565
-13.6612
-13.6647
-13.6668
-13.3651
-13.3664
-13.3698
-13.3749
-13.3814
-13.3892
-13.3981
-13.4078
-13.4181
-13.429
-13.4401
-13.4513
-13.4626
-13.4738
-13.4848
-13.4956
-13.5061
-13.5161
-13.5257
-13.5348
-13.5434
-13.5513
-13.5587
-13.5652
-13.571
-13.576
-13.58
-13.583
-13.585
-13.5857
-13.5851
-13.583
-13.5794
-13.358
-13.3586
-13.3609
-13.3647
-13.3701
-13.3769
-13.3848
-13.3936
-13.4031
-13.4129
-13.423
-13.4331
-13.4431
-13.4529
-13.4623
-13.4713
-13.4798
-13.4877
-13.495
-13.5016
-13.5074
-13.5124
-13.5165
-13.5196
-13.5218
-13.5228
-13.5227
-13.5214
-13.5187
-13.5146
-13.509
-13.5019
-13.493
-13.3506
-13.3523
-13.3557
-13.3602
-13.3659
-13.3725
-13.3799
-13.3879
-13.3962
-13.4048
-13.4134
-13.4218
-13.43
-13.4378
-13.4452
-13.452
-13.4581
-13.4635
-13.4681
-13.4718
-13.4746
-13.4763
-13.477
-13.4766
-13.475
-13.4721
-13.4678
-13.4622
-13.455
-13.4463
-13.4359
-13.4237
-13.4098
-13.3393
-13.3373
-13.3366
-13.3384
-13.3425
-13.3484
-13.3556
-13.3636
-13.3721
-13.3806
-13.3891
-13.3973
-13.405
-13.4121
-13.4185
-13.424
-13.4287
-13.4324
-13.4351
-13.4367
-13.4371
-13.4363
-13.4342
-13.4307
-13.4258
-13.4195
-13.4115
-13.402
-13.3909
-13.378
-13.3633
-13.3467
-13.3283
-13.3371
-13.3427
-13.3469
-13.3504
-13.3544
-13.359
-13.3644
-13.3702
-13.3762
-13.3823
-13.3882
-13.3938
-13.3988
-13.4033
-13.407
-13.4098
-13.4117
-13.4126
-13.4123
-13.4108
-13.4081
-13.404
-13.3986
-13.3916
-13.3831
-13.373
-13.3613
-13.3478
-13.3326
-13.3155
-13.2966
-13.2757
-13.2529
-13.3059
-13.2937
-13.2872
-13.2889
-13.2951
-13.3033
-13.3125
-13.3222
-13.3317
-13.3408
-13.3492
-13.3567
-13.3632
-13.3686
-13.3728
-13.3758
-13.3774
-13.3776
-13.3764
-13.3736
-13.3693
-13.3634
-13.3559
-13.3466
-13.3355
-13.3227
-13.308
-13.2914
-13.2729
-13.2525
-13.2301
-13.2056
-13.1792
-13.3493
-13.3669
-13.3677
-13.3622
-13.3585
-13.3576
-13.3586
-13.3606
-13.363
-13.3657
-13.3684
-13.3706
-13.3723
-13.3733
-13.3733
-13.3723
-13.3702
-13.3668
-13.3621
-13.3559
-13.3481
-13.3388
-13.3278
-13.3151
-13.3006
-13.2843
-13.2661
-13.246
-13.2239
-13.1998
-13.1737
-13.1456
-13.1154
-13.2269
-13.1782
-13.1677
-13.1905
-13.2116
-13.2305
-13.2484
-13.2648
-13.2794
-13.2922
-13.303
-13.3119
-13.319
-13.3242
-13.3276
-13.3291
-13.3287
-13.3265
-13.3224
-13.3163
-13.3083
-13.2983
-13.2863
-13.2723
-13.2563
-13.2381
-13.2179
-13.1956
-13.1712
-13.1447
-13.116
-13.0853
-13.0525
-13.468
-13.5012
-13.4666
-13.4203
-13.3881
-13.3755
-13.3681
-13.3627
-13.3594
-13.3574
-13.3558
-13.3543
-13.3524
-13.3498
-13.3464
-13.3418
-13.3361
-13.329
-13.3204
-13.3103
-13.2984
-13.2848
-13.2694
-13.2521
-13.2328
-13.2116
-13.1883
-13.163
-13.1355
-13.106
-13.0744
-13.0407
-13.0049
-12.9751
-12.8552
-12.9164
-13.0162
-13.0859
-13.1295
-13.1661
-13.197
-13.222
-13.242
-13.258
-13.2704
-13.2797
-13.2861
-13.2898
-13.291
-13.2897
-13.286
-13.28
-13.2717
-13.2611
-13.2482
-13.233
-13.2155
-13.1957
-13.1737
-13.1494
-13.1229
-13.0941
-13.0631
-13.0299
-12.9946
-12.9572
-14.1866
-13.8466
-13.5814
-13.4592
-13.4075
-13.3776
-13.3567
-13.3438
-13.336
-13.331
-13.3274
-13.3244
-13.3213
-13.3177
-13.3132
-13.3076
-13.3007
-13.2923
-13.2822
-13.2704
-13.2567
-13.2411
-13.2234
-13.2037
-13.1819
-13.1579
-13.1317
-13.1033
-13.0726
-13.0398
-13.0046
-12.9673
-12.9276
-11.6815
-12.3872
-12.7885
-12.9383
-13.0374
-13.1142
-13.167
-13.2042
-13.2319
-13.2522
-13.2669
-13.277
-13.2836
-13.2869
-13.2874
-13.2853
-13.2806
-13.2736
-13.2641
-13.2523
-13.2382
-13.2217
-13.2029
-13.1817
-13.1582
-13.1323
-13.1041
-13.0736
-13.0408
-13.0058
-12.9685
-12.9291
-12.8875
-13.8098
-13.2332
-13.1171
-13.6996
-14.711
-16.0001
-17.4127
-18.8451
-20.248
-21.593
-22.8548
-24.006
-25.0205
-25.8766
-26.5523
-27.0258
-27.2745
-27.2742
-26.9979
-26.4162
-25.5061
-24.2592
-22.6968
-20.8553
-18.7912
-16.6
-14.3803
-12.2085
-10.1625
-8.30671
-6.67514
-5.2726
-4.08548
-3.09181
-2.26707
-1.58719
-1.0301
-0.57643
-0.209553
0.0845971
0.31791
0.500479
0.640901
0.746488
0.823414
0.876844
0.911073
0.929672
0.93561
0.93137
0.919033
0.900348
0.876795
0.849628
0.819912
0.788556
0.756324
0.723851
0.691637
0.660055
0.629364
0.599734
0.571271
0.544035
0.518049
0.49331
0.469793
0.447456
0.426243
0.406089
0.386925
0.368679
0.351278
0.33465
0.318722
0.303426
0.288696
0.27447
0.260689
0.247298
0.234246
0.221486
0.208974
0.196671
0.184539
0.172546
0.160661
0.148855
0.137104
0.125385
0.113674
0.101957
0.0902066
0.0784278
0.0665583
0.0546813
0.0425767
0.0306582
0.0180199
0.00651337
-14.4324
-14.0636
-13.8137
-14.1556
-14.8995
-15.943
-17.1846
-18.5256
-19.8893
-21.2144
-22.4566
-23.5766
-24.5462
-25.3474
-25.9628
-26.3731
-26.5567
-26.4897
-26.1468
-25.5061
-24.5633
-23.3331
-21.8291
-20.083
-18.1564
-16.1201
-14.0405
-11.9973
-10.0666
-8.3047
-6.74253
-5.38733
-4.23
-3.25303
-2.43564
-1.75667
-1.19618
-0.736289
-0.361409
-0.0582036
0.184691
0.376977
0.526975
0.641811
0.727553
0.789313
0.831371
0.857294
0.870063
0.872169
0.865706
0.852436
0.833853
0.811225
0.785634
0.758011
0.72914
0.699682
0.670164
0.640989
0.612447
0.584738
0.557993
0.532293
0.507678
0.484164
0.461735
0.440366
0.420011
0.400619
0.382127
0.364476
0.347601
0.331436
0.315916
0.30098
0.286566
0.272617
0.25908
0.245903
0.233038
0.220442
0.208073
0.195895
0.183872
0.171973
0.160171
0.148437
0.136748
0.125084
0.11342
0.101745
0.0900315
0.0782832
0.0664428
0.0545891
0.0425145
0.0306014
0.0180158
0.00645292
-14.2078
-13.9656
-13.9215
-14.33
-15.0736
-16.0524
-17.1856
-18.3938
-19.6197
-20.8175
-21.9424
-22.966
-23.8643
-24.6083
-25.1701
-25.5252
-25.6516
-25.5314
-25.1531
-24.5115
-23.6024
-22.4271
-21.0016
-19.3666
-17.5682
-15.6591
-13.7086
-11.7907
-9.97086
-8.29901
-6.80448
-5.49651
-4.36976
-3.41064
-2.60181
-1.92484
-1.36187
-0.896506
-0.514209
-0.202387
0.0497805
0.251591
0.411063
0.535115
0.629682
0.699809
0.749745
0.783052
0.802716
0.811239
0.810729
0.802959
0.789436
0.771444
0.75008
0.726292
0.700884
0.674538
0.647809
0.621128
0.594817
0.569102
0.544142
0.520038
0.496849
0.474608
0.453315
0.432954
0.413495
0.394897
0.377109
0.360079
0.343753
0.328072
0.31298
0.298419
0.284336
0.270678
0.257396
0.244442
0.231773
0.219349
0.207129
0.195082
0.183173
0.171374
0.159658
0.147999
0.136376
0.124769
0.113155
0.101523
0.0898477
0.0781322
0.0663229
0.0544921
0.0424488
0.030542
0.0180134
0.00638946
-14.3372
-14.3155
-14.3778
-14.7322
-15.3567
-16.1857
-17.163
-18.2262
-19.3207
-20.3999
-21.423
-22.3565
-23.1683
-23.8311
-24.3216
-24.6201
-24.709
-24.573
-24.1986
-23.5755
-22.6973
-21.5728
-20.2286
-18.6935
-17.0049
-15.2163
-13.3903
-11.5908
-9.87559
-8.2897
-6.86089
-5.59984
-4.50429
-3.56409
-2.765
-2.09116
-1.52668
-1.05664
-0.667565
-0.347626
-0.0865534
0.12453
0.293326
0.42652
0.529894
0.608403
0.666253
0.706993
0.733609
0.748613
0.754125
0.751933
0.743556
0.73029
0.713249
0.693393
0.671546
0.64841
0.624562
0.600463
0.576462
0.552816
0.529707
0.50726
0.485554
0.464636
0.444523
0.425212
0.406686
0.388916
0.371861
0.355481
0.339728
0.324554
0.309908
0.29574
0.282003
0.268648
0.255633
0.242913
0.230449
0.218204
0.206141
0.194231
0.182441
0.170746
0.159121
0.147541
0.135986
0.124439
0.112877
0.10129
0.0896552
0.0779742
0.0661975
0.0543906
0.0423803
0.0304798
0.0180117
0.00632376
-14.4009
-14.4271
-14.535
-14.8784
-15.4546
-16.2092
-17.0935
-18.0542
-19.0412
-20.0132
-20.9341
-21.7706
-22.4952
-23.0848
-23.517
-23.771
-23.8279
-23.6709
-23.2873
-22.6726
-21.8298
-20.7661
-19.4978
-18.053
-16.4697
-14.7959
-13.0864
-11.3977
-9.781
-8.27696
-6.91175
-5.69707
-4.63319
-3.71288
-2.92466
-2.25504
-1.69003
-1.21617
-0.821016
-0.493515
-0.223966
-0.00392043
0.173992
0.316208
0.428334
0.515214
0.580996
0.629203
0.662818
0.68436
0.695958
0.699413
0.696258
0.687801
0.675168
0.659334
0.641139
0.621302
0.600423
0.578989
0.557378
0.535873
0.514682
0.493954
0.473785
0.45424
0.435352
0.417133
0.399577
0.382669
0.366379
0.350676
0.335521
0.320875
0.306695
0.292938
0.279562
0.266526
0.253789
0.241314
0.229064
0.217007
0.205108
0.19334
0.181676
0.17009
0.158559
0.147062
0.135579
0.124093
0.112586
0.101047
0.0894538
0.0778088
0.0660662
0.0542845
0.0423088
0.030415
0.0180103
0.0062564
-14.4823
-14.5729
-14.7417
-15.0821
-15.6021
-16.2675
-17.0442
-17.8929
-18.7696
-19.6356
-20.4577
-21.2054
-21.8518
-22.3727
-22.7457
-22.9515
-22.9735
-22.7981
-22.4156
-21.8206
-21.0138
-20.0026
-18.805
-17.4472
-15.9637
-14.3972
-12.7963
-11.2111
-9.68703
-8.2608
-6.95703
-5.78806
-4.75615
-3.85657
-3.08028
-2.41597
-1.85145
-1.37463
-0.974134
-0.639674
-0.362126
-0.133479
0.0532929
0.204365
0.325148
0.42036
0.494069
0.549764
0.590414
0.618539
0.636277
0.645442
0.647576
0.644002
0.635856
0.624126
0.609667
0.593214
0.575389
0.556702
0.537557
0.518265
0.499059
0.480109
0.461533
0.443412
0.425795
0.40871
0.392163
0.376151
0.360656
0.345658
0.331127
0.317032
0.303338
0.29001
0.277011
0.264306
0.251861
0.239642
0.227616
0.215754
0.204027
0.192409
0.180875
0.169403
0.157971
0.14656
0.135152
0.123732
0.112282
0.100793
0.0892431
0.0776357
0.0659289
0.0541736
0.0422341
0.0303475
0.018009
0.00618796
-14.5558
-14.6792
-14.8733
-15.1997
-15.6719
-16.268
-16.9595
-17.7131
-18.4926
-19.2647
-19.998
-20.6632
-21.2344
-21.6892
-22.0071
-22.1703
-22.1631
-21.973
-21.5907
-21.0121
-20.2393
-19.2802
-18.1509
-16.8755
-15.4853
-14.0188
-12.5192
-11.0306
-9.59357
-8.24125
-6.99673
-5.87268
-4.87292
-3.9948
-3.23145
-2.57351
-2.01047
-1.53158
-1.1265
-0.785723
-0.500694
-0.263855
-0.0685258
0.0911907
0.220499
0.323969
0.405578
0.468762
0.516468
0.551211
0.575135
0.590062
0.597546
0.598919
0.595332
0.587783
0.577139
0.564152
0.549461
0.533599
0.516996
0.499987
0.482832
0.46572
0.448791
0.432144
0.415845
0.399935
0.384435
0.369354
0.354686
0.340421
0.32654
0.313019
0.299832
0.286951
0.274346
0.261987
0.249846
0.237894
0.226102
0.214445
0.202897
0.191435
0.180038
0.168684
0.157356
0.146036
0.134706
0.123354
0.111964
0.100526
0.0890227
0.0774546
0.0657852
0.0540576
0.0421559
0.0302773
0.0180072
0.00611902
-14.6185
-14.7642
-14.9754
-15.2912
-15.7234
-16.2577
-16.8718
-17.5389
-18.2286
-18.9112
-19.5585
-20.144
-20.6439
-21.0367
-21.3033
-21.4264
-21.3919
-21.1883
-20.8077
-20.2468
-19.5078
-18.5984
-17.5336
-16.3355
-15.0326
-13.6593
-12.254
-10.8557
-9.50046
-8.21832
-7.03087
-5.95086
-4.9833
-4.12728
-3.37778
-2.72723
-2.16666
-1.6866
-1.27773
-0.931288
-0.639332
-0.394744
-0.191204
-0.0230954
0.114566
0.226189
0.315641
0.386294
0.441061
0.482445
0.512589
0.533322
0.546207
0.552588
0.553623
0.550324
0.543568
0.534122
0.522642
0.509681
0.495693
0.481037
0.465995
0.450782
0.435555
0.420433
0.405496
0.390803
0.376388
0.362273
0.348465
0.334962
0.321756
0.308832
0.296173
0.283757
0.271562
0.259565
0.247741
0.236067
0.22452
0.213076
0.201715
0.190417
0.179162
0.167933
0.156713
0.145487
0.13424
0.122959
0.111631
0.100247
0.088792
0.077265
0.0656348
0.0539363
0.042074
0.0302043
0.0180046
0.00605021
-14.6682
-14.8265
-15.0438
-15.3448
-15.7389
-16.2172
-16.7623
-17.3519
-17.9605
-18.562
-19.1311
-19.6438
-20.0778
-20.4131
-20.6318
-20.7182
-20.6591
-20.4441
-20.0664
-19.5231
-18.8166
-17.9545
-16.9507
-15.8253
-14.604
-13.3175
-12
-10.6859
-9.4076
-8.19209
-7.05954
-6.02262
-5.08719
-4.25377
-3.51895
-2.87675
-2.31961
-1.83928
-1.42741
-1.076
-0.777701
-0.525844
-0.314473
-0.138262
0.00754352
0.127178
0.22439
0.30247
0.364285
0.412318
0.448705
0.475277
0.493607
0.505045
0.510761
0.511773
0.508973
0.503139
0.494942
0.484955
0.473651
0.461415
0.44855
0.435293
0.421822
0.408273
0.394745
0.381311
0.36802
0.354905
0.341987
0.329275
0.31677
0.304467
0.292356
0.280425
0.268658
0.257036
0.245543
0.23416
0.222867
0.211646
0.200481
0.189353
0.178247
0.167148
0.156041
0.144913
0.133751
0.122546
0.111283
0.0999559
0.0885506
0.0770666
0.0654773
0.0538095
0.041988
0.0301285
0.0180004
0.00598209
-14.7037
-14.868
-15.0847
-15.3695
-15.7288
-16.157
-16.6401
-17.1598
-17.6945
-18.2215
-18.7183
-19.1631
-19.5357
-19.8176
-19.9921
-20.0448
-19.9635
-19.7388
-19.3647
-18.8389
-18.1638
-17.3468
-16.4004
-15.343
-14.1978
-12.9922
-11.7563
-10.521
-9.31495
-8.16265
-7.08287
-6.088
-5.18453
-4.37412
-3.65472
-3.02176
-2.46898
-1.98927
-1.57519
-1.21952
-0.91547
-0.656847
-0.438057
-0.254068
-0.100361
0.0271142
0.131972
0.21741
0.286241
0.340914
0.383554
0.415991
0.439799
0.456337
0.466782
0.472162
0.473379
0.471221
0.466375
0.459428
0.450876
0.441124
0.430498
0.419254
0.407591
0.395665
0.383591
0.371457
0.359327
0.347247
0.335251
0.323358
0.31158
0.299921
0.288381
0.276953
0.26563
0.2544
0.243251
0.23217
0.221142
0.210154
0.199192
0.188242
0.177291
0.166327
0.155338
0.144313
0.133241
0.122113
0.110919
0.0996511
0.0882982
0.0768592
0.0653125
0.0536769
0.0418978
0.0300499
0.0179942
0.00591523
-14.7252
-14.8905
-15.1016
-15.3683
-15.6949
-16.0772
-16.5042
-16.9607
-17.4283
-17.8873
-18.3179
-18.7004
-19.0165
-19.2492
-19.3831
-19.405
-19.3038
-19.0709
-18.7011
-18.1926
-17.5476
-16.7732
-15.8808
-14.887
-13.8127
-12.6822
-11.5225
-10.3607
-9.22252
-8.13018
-7.10104
-6.14713
-5.27534
-4.48822
-3.78489
-3.16199
-2.61446
-2.13621
-1.72073
-1.3615
-1.05232
-0.787454
-0.561679
-0.370264
-0.208929
-0.0738162
0.0385448
0.13125
0.207042
0.268332
0.317221
0.355534
0.384844
0.406515
0.421731
0.431528
0.436816
0.438393
0.436959
0.433118
0.427381
0.420174
0.411844
0.402669
0.392867
0.382611
0.372034
0.36124
0.350308
0.339298
0.328255
0.317209
0.306184
0.295193
0.284243
0.273338
0.262476
0.251653
0.240862
0.230095
0.219343
0.208597
0.197847
0.187082
0.176293
0.165471
0.154605
0.143687
0.132709
0.121662
0.110538
0.0993325
0.0880344
0.0766423
0.0651401
0.0535383
0.041803
0.0299684
0.0179852
0.0058501
-14.733
-14.8954
-15.0975
-15.3452
-15.6409
-15.9813
-16.3576
-16.7568
-17.1635
-17.5606
-17.9305
-18.2558
-18.5199
-18.7073
-18.804
-18.7978
-18.6787
-18.4391
-18.0741
-17.5823
-16.9661
-16.2319
-15.3901
-14.4557
-13.4473
-12.3868
-11.2978
-10.2047
-9.13039
-8.09489
-7.11431
-6.2002
-5.35971
-4.59605
-3.90932
-3.29722
-2.75576
-2.2798
-1.86369
-1.50162
-1.18793
-0.917365
-0.685063
-0.486596
-0.317934
-0.175413
-0.0557171
0.0441375
0.126816
0.194678
0.249798
0.293985
0.328811
0.355639
0.37566
0.389915
0.399321
0.404686
0.406721
0.406043
0.403181
0.398578
0.3926
0.385546
0.377654
0.369114
0.360078
0.350664
0.340967
0.33106
0.320999
0.310829
0.300582
0.290282
0.279944
0.26958
0.259197
0.248795
0.238375
0.227935
0.21747
0.206976
0.196446
0.185874
0.175253
0.164578
0.15384
0.143034
0.132153
0.121191
0.110141
0.0989999
0.0877588
0.0764158
0.0649599
0.0533937
0.0417035
0.0298841
0.0179731
0.00578709
-14.7276
-14.8844
-15.0751
-15.3031
-15.5695
-15.8714
-16.2014
-16.5488
-16.9002
-17.241
-17.5556
-17.8286
-18.0451
-18.191
-18.2537
-18.2221
-18.0871
-17.8417
-17.482
-17.0065
-16.4176
-15.7211
-14.9266
-14.0476
-13.1006
-12.105
-11.082
-10.0531
-9.03871
-8.05704
-7.12294
-6.24745
-5.43776
-4.69762
-4.02793
-3.42729
-2.89265
-2.41978
-2.0038
-1.63957
-1.32201
-1.04629
-0.807932
-0.602809
-0.427141
-0.277467
-0.150629
-0.0437664
0.0457008
0.120074
0.181389
0.231437
0.27178
0.30378
0.32863
0.347375
0.360939
0.370139
0.375693
0.378231
0.378297
0.376352
0.372779
0.367897
0.361962
0.355184
0.347729
0.339733
0.331306
0.322534
0.313487
0.30422
0.294776
0.285188
0.275483
0.26568
0.255791
0.245826
0.235791
0.225689
0.215522
0.205289
0.194987
0.184616
0.17417
0.163648
0.153043
0.142353
0.131573
0.1207
0.109727
0.098653
0.0874714
0.0761795
0.0647717
0.0532429
0.041599
0.0297969
0.0179572
0.00572649
-14.7098
-14.8589
-15.0366
-15.2447
-15.4832
-15.7496
-16.0375
-16.3378
-16.6391
-16.9287
-17.193
-17.4183
-17.5913
-17.6994
-17.7312
-17.6766
-17.5274
-17.2775
-16.9231
-16.4634
-15.9003
-15.2393
-14.4891
-13.6615
-12.7716
-11.8364
-10.8747
-9.90572
-8.94765
-8.01694
-7.12729
-6.28915
-5.50968
-4.79302
-4.14069
-3.55208
-3.02495
-2.5559
-2.14078
-1.77508
-1.45426
-1.17395
-0.930012
-0.718644
-0.536311
-0.379759
-0.245997
-0.132289
-0.0361508
0.0446514
0.112111
0.167991
0.21384
0.251016
0.280709
0.30397
0.321724
0.334796
0.343913
0.349715
0.352759
0.35352
0.352402
0.349738
0.345805
0.34083
0.334996
0.328456
0.321332
0.313727
0.305722
0.297384
0.288767
0.279915
0.270863
0.261637
0.25226
0.242746
0.23311
0.223359
0.213499
0.203537
0.193472
0.183308
0.173045
0.16268
0.152215
0.141645
0.130971
0.120189
0.109296
0.0982919
0.0871721
0.0759334
0.0645756
0.053086
0.0414896
0.0297069
0.0179373
0.00566846
-14.6805
-14.8202
-14.9839
-15.1721
-15.3842
-15.6178
-15.8672
-16.1248
-16.3806
-16.6238
-16.8424
-17.0244
-17.1579
-17.2316
-17.2353
-17.16
-16.9984
-16.7448
-16.3961
-15.9514
-15.4128
-14.785
-14.076
-13.2964
-12.4594
-11.5803
-10.6757
-9.76266
-8.85744
-7.97493
-7.12769
-6.32561
-5.5757
-4.88236
-4.24761
-3.67149
-3.1525
-2.68796
-2.27438
-1.90787
-1.58441
-1.30005
-1.05103
-0.833841
-0.6452
-0.482065
-0.341614
-0.221245
-0.118575
-0.0314435
0.0420916
0.10376
0.155092
0.197436
0.231978
0.259768
0.281737
0.298712
0.311428
0.320534
0.326598
0.330111
0.331491
0.33109
0.329201
0.326068
0.321892
0.316842
0.311055
0.304646
0.297711
0.290328
0.282562
0.274467
0.266086
0.257456
0.248606
0.239559
0.230333
0.220944
0.211403
0.20172
0.191901
0.181952
0.171877
0.161677
0.151354
0.14091
0.130345
0.119658
0.108849
0.0979166
0.086861
0.0756776
0.0643715
0.0529229
0.0413751
0.0296141
0.0179131
0.00561303
-14.6405
-14.7699
-14.9189
-15.0874
-15.2745
-15.4775
-15.6918
-15.9105
-16.1253
-16.3264
-16.5036
-16.6463
-16.744
-16.7867
-16.7651
-16.6713
-16.4987
-16.2423
-15.8994
-15.4692
-14.9535
-14.3569
-13.6863
-12.9512
-12.1633
-11.3363
-10.4848
-9.62396
-8.76833
-7.93134
-7.12453
-6.35717
-5.63609
-4.96581
-4.34875
-3.7855
-3.27519
-2.81576
-2.40438
-2.0377
-1.7122
-1.42434
-1.17073
-0.948141
-0.753561
-0.584153
-0.437267
-0.31044
-0.201395
-0.108053
-0.028528
0.0388708
0.0956488
0.14314
0.182525
0.21485
0.241048
0.261949
0.278292
0.290736
0.299857
0.30616
0.310078
0.311978
0.312171
0.310917
0.308435
0.304907
0.300487
0.295303
0.289464
0.283059
0.276166
0.268848
0.261158
0.253141
0.244833
0.236266
0.227463
0.218448
0.209235
0.199841
0.190276
0.180549
0.170667
0.160637
0.150463
0.140148
0.129696
0.119107
0.108385
0.0975275
0.0865382
0.0754122
0.0641596
0.0527539
0.0412556
0.0295186
0.0178847
0.00556013
-14.5908
-14.7089
-14.843
-14.9923
-15.1556
-15.3305
-15.5126
-15.696
-15.8734
-16.0366
-16.1764
-16.2837
-16.349
-16.3637
-16.3194
-16.2092
-16.027
-15.7686
-15.4315
-15.0152
-14.5213
-13.9537
-13.3188
-12.625
-11.8828
-11.1041
-10.3019
-9.48973
-8.68058
-7.88655
-7.11819
-6.38418
-5.69111
-5.04355
-4.4442
-3.89411
-3.39292
-2.93917
-2.53058
-2.16434
-1.83737
-1.54655
-1.28883
-1.06129
-0.861144
-0.685785
-0.532734
-0.399668
-0.284424
-0.185007
-0.099594
-0.0265393
0.0356335
0.0882398
0.13245
0.169305
0.199737
0.224577
0.244568
0.260375
0.272584
0.281709
0.288199
0.292434
0.294743
0.295401
0.294643
0.292668
0.289643
0.28571
0.280991
0.275589
0.269589
0.263067
0.256085
0.248697
0.240946
0.232871
0.224504
0.215873
0.206999
0.197901
0.188597
0.179099
0.169418
0.159563
0.149542
0.139361
0.129025
0.118538
0.107904
0.0971248
0.0862042
0.0751376
0.0639402
0.0525791
0.0411313
0.0294206
0.017852
0.00550959
-14.5322
-14.6387
-14.7578
-14.8885
-15.0293
-15.178
-15.3306
-15.4819
-15.6256
-15.7545
-15.8607
-15.936
-15.9723
-15.9618
-15.8973
-15.7725
-15.5821
-15.3225
-14.9913
-14.5882
-14.1146
-13.5742
-12.9725
-12.3171
-11.6171
-10.8832
-10.1269
-9.36007
-8.59444
-7.84089
-7.10906
-6.40702
-5.74108
-5.1158
-4.53409
-3.99734
-3.50565
-3.05807
-2.65282
-2.28757
-1.95969
-1.66644
-1.40509
-1.17302
-0.967699
-0.78672
-0.627785
-0.488715
-0.367462
-0.262122
-0.17094
-0.0923189
-0.024817
0.0328587
0.0818643
0.123234
0.157894
0.186677
0.210327
0.229515
0.244833
0.256807
0.265896
0.272496
0.276949
0.279548
0.280543
0.280147
0.278542
0.275885
0.272308
0.267928
0.262842
0.257133
0.250876
0.244131
0.236951
0.229381
0.221461
0.213223
0.204696
0.195904
0.186868
0.177605
0.16813
0.158456
0.148592
0.138549
0.128333
0.117951
0.107409
0.0967093
0.0858594
0.0748542
0.0637136
0.0523988
0.0410023
0.0293202
0.0178153
0.00546119
-14.4658
-14.5604
-14.6646
-14.7773
-14.897
-15.0214
-15.147
-15.2692
-15.3824
-15.4803
-15.5562
-15.6028
-15.6131
-15.5802
-15.4978
-15.3602
-15.1629
-14.9026
-14.5774
-14.1869
-13.7325
-13.2174
-12.6466
-12.0266
-11.3658
-10.6734
-9.95964
-9.23509
-8.51018
-7.79472
-7.09751
-6.42604
-5.78631
-5.18281
-4.61857
-4.09526
-3.61337
-3.17237
-2.77095
-2.40722
-2.07894
-1.78376
-1.51925
-1.28308
-1.07297
-0.886711
-0.722183
-0.577356
-0.450301
-0.339205
-0.242387
-0.158304
-0.0855532
-0.0228673
0.0308919
0.0767477
0.11562
0.148339
0.175651
0.198228
0.21667
0.23151
0.243219
0.252206
0.258828
0.263392
0.266163
0.267369
0.267207
0.265846
0.263432
0.260093
0.255937
0.251059
0.24554
0.239452
0.232855
0.225802
0.218339
0.210504
0.202333
0.193854
0.185093
0.176071
0.166807
0.157317
0.147616
0.137713
0.127621
0.117347
0.106899
0.0962817
0.0855045
0.0745626
0.0634802
0.0522134
0.0408691
0.0292177
0.017775
0.00541466
-14.3924
-14.475
-14.5647
-14.6602
-14.7601
-14.862
-14.9628
-15.0585
-15.1442
-15.2143
-15.263
-15.284
-15.2711
-15.2182
-15.1199
-14.9712
-14.7682
-14.5078
-14.1886
-13.8101
-13.3737
-12.8822