/*--------------------------------*- C++ -*----------------------------------*\
| =========                 |                                                 |
| \\      /  F ield         | OpenFOAM: The Open Source CFD Toolbox           |
|  \\    /   O peration     | Version:  2.1.1                                 |
|   \\  /    A nd           | Web:      www.OpenFOAM.org                      |
|    \\/     M anipulation  |                                                 |
\*---------------------------------------------------------------------------*/
FoamFile
{
    version     2.0;
    format      ascii;
    class       surfaceScalarField;
    location    "0.03";
    object      phi;
}
// * * * * * * * * * * * * * * * * * * * * * * * * * * * * * * * * * * * * * //

dimensions      [0 3 -1 0 0 0 0];

internalField   nonuniform List<scalar> 
13452
(
6.8993e-05
-5.05757e-07
6.88169e-05
1.76086e-07
6.82102e-05
6.06712e-07
6.72694e-05
9.40794e-07
6.62018e-05
1.06765e-06
6.51215e-05
1.08025e-06
6.40706e-05
1.05093e-06
6.30664e-05
1.00416e-06
6.21175e-05
9.48921e-07
6.12274e-05
8.90118e-07
6.03972e-05
8.3018e-07
5.96267e-05
7.70573e-07
5.89144e-05
7.12261e-07
5.82585e-05
6.55925e-07
5.76564e-05
6.02036e-07
5.71055e-05
5.50906e-07
5.66028e-05
5.02727e-07
5.61452e-05
4.57605e-07
5.57296e-05
4.15585e-07
5.53529e-05
3.76681e-07
5.5012e-05
3.40896e-07
5.47038e-05
3.08255e-07
5.44249e-05
2.78823e-07
5.41722e-05
2.52747e-07
5.39419e-05
2.30301e-07
5.37299e-05
2.11966e-07
5.35314e-05
1.98528e-07
5.33399e-05
1.91523e-07
5.31469e-05
1.9295e-07
5.29375e-05
2.0948e-07
5.26906e-05
2.46874e-07
5.23558e-05
3.34793e-07
5.62239e-07
5.17935e-05
7.01651e-05
-2.26904e-07
7.00417e-05
2.99449e-07
7.0183e-05
4.6547e-07
7.05114e-05
6.12376e-07
7.08636e-05
7.15395e-07
7.1165e-05
7.78864e-07
7.1393e-05
8.22931e-07
7.15494e-05
8.47786e-07
7.16422e-05
8.56121e-07
7.16804e-05
8.5192e-07
7.16724e-05
8.38151e-07
7.16258e-05
8.17169e-07
7.15473e-05
7.90807e-07
7.14426e-05
7.60568e-07
7.1317e-05
7.27664e-07
7.11748e-05
6.93085e-07
7.10199e-05
6.57638e-07
7.08555e-05
6.21984e-07
7.06845e-05
5.86673e-07
7.0509e-05
5.5217e-07
7.0331e-05
5.18892e-07
7.0152e-05
4.87231e-07
6.99732e-05
4.57601e-07
6.97955e-05
4.30468e-07
6.96194e-05
4.06423e-07
6.94451e-05
3.86223e-07
6.92726e-05
3.71013e-07
6.91019e-05
3.6224e-07
6.89321e-05
3.62743e-07
6.8767e-05
3.74635e-07
6.8606e-05
4.07827e-07
6.84918e-05
4.48967e-07
5.54811e-07
6.84993e-05
7.22821e-05
-5.24598e-08
7.23986e-05
1.82952e-07
7.25055e-05
3.58541e-07
7.25955e-05
5.2244e-07
7.26827e-05
6.28145e-07
7.27695e-05
6.92058e-07
7.28612e-05
7.31223e-07
7.29544e-05
7.54654e-07
7.30449e-05
7.65547e-07
7.31304e-05
7.66464e-07
7.32092e-05
7.59375e-07
7.32805e-05
7.45874e-07
7.3344e-05
7.27267e-07
7.33999e-05
7.04707e-07
7.34483e-05
6.79182e-07
7.34899e-05
6.51539e-07
7.3525e-05
6.22504e-07
7.35543e-05
5.92702e-07
7.35783e-05
5.62682e-07
7.35975e-05
5.32939e-07
7.36125e-05
5.03943e-07
7.36235e-05
4.76164e-07
7.3631e-05
4.50114e-07
7.36351e-05
4.26379e-07
7.36358e-05
4.05696e-07
7.36331e-05
3.88987e-07
7.36265e-05
3.77582e-07
7.36157e-05
3.73059e-07
7.36001e-05
3.78367e-07
7.35795e-05
3.95191e-07
7.35544e-05
4.329e-07
7.35228e-05
4.80589e-07
5.89911e-07
7.34877e-05
7.45191e-05
-4.49108e-08
7.44905e-05
2.11546e-07
7.44814e-05
3.67639e-07
7.45244e-05
4.79473e-07
7.45892e-05
5.63329e-07
7.46611e-05
6.20126e-07
7.47336e-05
6.58727e-07
7.48051e-05
6.83145e-07
7.48753e-05
6.95323e-07
7.49442e-05
6.97636e-07
7.50114e-05
6.9212e-07
7.50769e-05
6.80355e-07
7.51406e-05
6.63618e-07
7.52023e-05
6.43006e-07
7.5262e-05
6.19451e-07
7.53198e-05
5.93747e-07
7.53757e-05
5.66582e-07
7.54299e-05
5.38557e-07
7.54823e-05
5.10213e-07
7.55332e-05
4.82053e-07
7.55826e-05
4.54567e-07
7.56305e-05
4.28261e-07
7.56769e-05
4.03695e-07
7.57218e-05
3.81517e-07
7.57649e-05
3.62532e-07
7.58062e-05
3.47733e-07
7.58453e-05
3.38494e-07
7.58819e-05
3.36408e-07
7.59162e-05
3.44147e-07
7.59478e-05
3.63522e-07
7.59797e-05
4.00987e-07
7.60081e-05
4.52226e-07
5.40528e-07
7.60575e-05
7.66039e-05
7.02497e-09
7.66303e-05
1.85197e-07
7.66697e-05
3.28214e-07
7.67116e-05
4.37557e-07
7.67548e-05
5.20126e-07
7.68002e-05
5.74716e-07
7.68491e-05
6.09806e-07
7.69012e-05
6.31102e-07
7.69553e-05
6.41199e-07
7.70107e-05
6.42247e-07
7.70668e-05
6.36025e-07
7.71232e-05
6.23925e-07
7.71797e-05
6.07101e-07
7.72362e-05
5.86557e-07
7.72925e-05
5.63157e-07
7.73486e-05
5.37649e-07
7.74045e-05
5.10691e-07
7.74602e-05
4.82866e-07
7.75157e-05
4.5471e-07
7.7571e-05
4.26729e-07
7.76261e-05
3.99426e-07
7.76811e-05
3.7333e-07
7.77357e-05
3.49027e-07
7.779e-05
3.27197e-07
7.78439e-05
3.08667e-07
7.78972e-05
2.94448e-07
7.79498e-05
2.8587e-07
7.80018e-05
2.84463e-07
7.80534e-05
2.92541e-07
7.8105e-05
3.11881e-07
7.81589e-05
3.471e-07
7.82142e-05
3.96951e-07
4.74322e-07
7.82804e-05
7.88318e-05
2.1137e-08
7.8841e-05
1.76004e-07
7.8862e-05
3.07259e-07
7.88947e-05
4.04806e-07
7.89361e-05
4.78746e-07
7.89814e-05
5.29373e-07
7.90289e-05
5.62366e-07
7.90777e-05
5.82228e-07
7.91277e-05
5.9124e-07
7.91786e-05
5.91381e-07
7.92302e-05
5.84383e-07
7.92825e-05
5.71626e-07
7.93354e-05
5.5424e-07
7.93887e-05
5.332e-07
7.94425e-05
5.09341e-07
7.94968e-05
4.8339e-07
7.95515e-05
4.55985e-07
7.96067e-05
4.277e-07
7.96623e-05
3.99068e-07
7.97184e-05
3.70596e-07
7.97751e-05
3.42796e-07
7.98322e-05
3.16206e-07
7.98898e-05
2.91422e-07
7.99479e-05
2.69126e-07
8.00064e-05
2.50135e-07
8.00654e-05
2.35425e-07
8.01251e-05
2.26223e-07
8.01856e-05
2.23925e-07
8.02477e-05
2.30441e-07
8.03122e-05
2.47397e-07
8.03814e-05
2.77942e-07
8.0456e-05
3.22304e-07
3.86932e-07
8.05434e-05
8.10854e-05
3.43167e-08
8.1097e-05
1.64334e-07
8.11234e-05
2.80854e-07
8.11581e-05
3.70113e-07
8.1198e-05
4.38921e-07
8.12403e-05
4.87059e-07
8.12844e-05
5.18252e-07
8.13301e-05
5.36493e-07
8.13772e-05
5.44153e-07
8.14254e-05
5.43166e-07
8.14746e-05
5.35197e-07
8.15247e-05
5.21577e-07
8.15755e-05
5.03399e-07
8.16271e-05
4.81602e-07
8.16794e-05
4.56996e-07
8.17326e-05
4.30286e-07
8.17864e-05
4.02097e-07
8.18411e-05
3.72994e-07
8.18967e-05
3.43504e-07
8.19532e-05
3.14133e-07
8.20106e-05
2.85392e-07
8.2069e-05
2.57817e-07
8.21284e-05
2.31993e-07
8.21889e-05
2.08586e-07
8.22507e-05
1.88367e-07
8.23139e-05
1.72238e-07
8.23788e-05
1.6128e-07
8.24461e-05
1.56701e-07
8.25165e-05
1.60009e-07
8.25913e-05
1.72545e-07
8.26729e-05
1.96377e-07
8.27631e-05
2.32074e-07
2.82582e-07
8.28675e-05
8.34107e-05
3.91314e-08
8.34224e-05
1.5268e-07
8.34461e-05
2.57099e-07
8.34777e-05
3.38514e-07
8.35154e-05
4.01302e-07
8.35566e-05
4.45831e-07
8.36001e-05
4.74737e-07
8.36453e-05
4.91308e-07
8.36917e-05
4.97706e-07
8.37392e-05
4.95685e-07
8.37876e-05
4.86793e-07
8.38369e-05
4.72305e-07
8.3887e-05
4.53283e-07
8.3938e-05
4.30638e-07
8.39898e-05
4.05159e-07
8.40426e-05
3.77535e-07
8.40963e-05
3.48379e-07
8.4151e-05
3.18247e-07
8.42069e-05
2.87655e-07
8.42639e-05
2.57105e-07
8.43222e-05
2.27098e-07
8.43819e-05
1.98154e-07
8.4443e-05
1.70835e-07
8.45058e-05
1.45765e-07
8.45706e-05
1.23645e-07
8.46375e-05
1.05272e-07
8.47072e-05
9.15577e-08
8.47805e-05
8.34824e-08
8.48583e-05
8.21724e-08
8.49422e-05
8.86155e-08
8.50346e-05
1.04046e-07
8.51378e-05
1.28853e-07
1.63985e-07
8.52564e-05
8.57969e-05
4.09237e-08
8.58085e-05
1.41084e-07
8.58317e-05
2.3392e-07
8.58626e-05
3.07641e-07
8.58992e-05
3.64678e-07
8.59395e-05
4.05555e-07
8.59822e-05
4.32063e-07
8.60266e-05
4.46827e-07
8.60725e-05
4.5181e-07
8.61196e-05
4.48624e-07
8.61677e-05
4.38708e-07
8.62167e-05
4.2327e-07
8.62667e-05
4.03325e-07
8.63176e-05
3.79749e-07
8.63694e-05
3.53304e-07
8.64223e-05
3.24657e-07
8.64763e-05
2.94403e-07
8.65314e-05
2.63085e-07
8.65879e-05
2.31208e-07
8.66457e-05
1.99256e-07
8.67051e-05
1.67713e-07
8.67662e-05
1.37074e-07
8.68292e-05
1.0786e-07
8.68943e-05
8.06365e-08
8.69619e-05
5.6018e-08
8.70325e-05
3.46736e-08
8.71067e-05
1.73311e-08
8.71855e-05
4.73367e-09
8.727e-05
-2.34673e-09
8.73619e-05
-3.28741e-09
8.74635e-05
2.50689e-09
8.75772e-05
1.50693e-08
3.42067e-08
8.7707e-05
8.82507e-05
4.02473e-08
8.82625e-05
1.29296e-07
8.82847e-05
2.11707e-07
8.83142e-05
2.78115e-07
8.83494e-05
3.29502e-07
8.83885e-05
3.66425e-07
8.84304e-05
3.90185e-07
8.84743e-05
4.02877e-07
8.85199e-05
4.06247e-07
8.85668e-05
4.0175e-07
8.86148e-05
3.90697e-07
8.86638e-05
3.74213e-07
8.87139e-05
3.53259e-07
8.8765e-05
3.28666e-07
8.88171e-05
3.01164e-07
8.88704e-05
2.71393e-07
8.89249e-05
2.39928e-07
8.89807e-05
2.0729e-07
8.90379e-05
1.73966e-07
8.90967e-05
1.40418e-07
8.91574e-05
1.07102e-07
8.922e-05
7.44751e-08
8.92848e-05
4.30095e-08
8.93522e-05
1.31965e-08
8.94227e-05
-1.4448e-08
8.94968e-05
-3.9391e-08
8.95752e-05
-6.10902e-08
8.9659e-05
-7.9035e-08
8.97494e-05
-9.27672e-08
8.98481e-05
-1.02e-07
8.99572e-05
-1.0662e-07
9.00792e-05
-1.0695e-07
-1.03813e-07
9.02173e-05
9.07734e-05
3.82015e-08
9.07851e-05
1.17539e-07
9.08064e-05
1.90404e-07
9.08348e-05
2.497e-07
9.08688e-05
2.95512e-07
9.09069e-05
3.28334e-07
9.0948e-05
3.49134e-07
9.09913e-05
3.59563e-07
9.10364e-05
3.61136e-07
9.1083e-05
3.55161e-07
9.11309e-05
3.42823e-07
9.11799e-05
3.25166e-07
9.12301e-05
3.03086e-07
9.12814e-05
2.77369e-07
9.13338e-05
2.48704e-07
9.13875e-05
2.17702e-07
9.14425e-05
1.84908e-07
9.1499e-05
1.50819e-07
9.15571e-05
1.15895e-07
9.16169e-05
8.05693e-08
9.16788e-05
4.52616e-08
9.17429e-05
1.03841e-08
9.18095e-05
-2.36519e-08
9.18792e-05
-5.64344e-08
9.19523e-05
-8.75531e-08
9.20295e-05
-1.16611e-07
9.21116e-05
-1.43242e-07
9.21997e-05
-1.67149e-07
9.22951e-05
-1.88138e-07
9.23993e-05
-2.06205e-07
9.25143e-05
-2.21584e-07
9.26422e-05
-2.34875e-07
-2.4721e-07
9.27856e-05
9.33675e-05
3.53297e-08
9.33792e-05
1.05842e-07
9.33997e-05
1.69941e-07
9.3427e-05
2.22375e-07
9.34598e-05
2.62721e-07
9.34968e-05
2.9135e-07
9.35369e-05
3.09e-07
9.35795e-05
3.16971e-07
9.36241e-05
3.16566e-07
9.36703e-05
3.08947e-07
9.37179e-05
2.95181e-07
9.37669e-05
2.7622e-07
9.38171e-05
2.52897e-07
9.38685e-05
2.25944e-07
9.39212e-05
1.96009e-07
9.39752e-05
1.63665e-07
9.40307e-05
1.29427e-07
9.40878e-05
9.37593e-08
9.41466e-05
5.70906e-08
9.42073e-05
1.98194e-08
9.42703e-05
-1.76772e-08
9.43357e-05
-5.50385e-08
9.44039e-05
-9.19184e-08
9.44755e-05
-1.27987e-07
9.45509e-05
-1.62939e-07
9.46308e-05
-1.96507e-07
9.4716e-05
-2.28482e-07
9.48076e-05
-2.58751e-07
9.49068e-05
-2.87333e-07
9.50151e-05
-3.14441e-07
9.5134e-05
-3.4054e-07
9.52655e-05
-3.66409e-07
-3.93282e-07
9.54116e-05
9.60354e-05
3.20156e-08
9.60469e-05
9.4302e-08
9.60666e-05
1.5028e-07
9.60929e-05
1.96088e-07
9.61245e-05
2.31064e-07
9.61604e-05
2.55448e-07
9.61996e-05
2.69808e-07
9.62414e-05
2.7517e-07
9.62854e-05
2.72635e-07
9.63311e-05
2.63227e-07
9.63784e-05
2.47898e-07
9.64271e-05
2.27511e-07
9.64771e-05
2.02832e-07
9.65286e-05
1.74537e-07
9.65813e-05
1.43227e-07
9.66356e-05
1.09438e-07
9.66913e-05
7.36471e-08
9.67488e-05
3.62842e-08
9.68082e-05
-2.25876e-09
9.68696e-05
-4.16229e-08
9.69334e-05
-8.1477e-08
9.69999e-05
-1.21515e-07
9.70694e-05
-1.61457e-07
9.71425e-05
-2.01055e-07
9.72197e-05
-2.40101e-07
9.73016e-05
-2.78443e-07
9.73891e-05
-3.16007e-07
9.74832e-05
-3.52829e-07
9.75849e-05
-3.89085e-07
9.76956e-05
-4.25141e-07
9.78167e-05
-4.61597e-07
9.79496e-05
-4.99318e-07
-5.39508e-07
9.80958e-05
9.87793e-05
2.84892e-08
9.87906e-05
8.29821e-08
9.88095e-05
1.31368e-07
9.88348e-05
1.70788e-07
9.88653e-05
2.00502e-07
9.89002e-05
2.20627e-07
9.89384e-05
2.31599e-07
9.89793e-05
2.34226e-07
9.90225e-05
2.29432e-07
9.90676e-05
2.18109e-07
9.91144e-05
2.01099e-07
9.91628e-05
1.79178e-07
9.92126e-05
1.53041e-07
9.92638e-05
1.23309e-07
9.93165e-05
9.05355e-08
9.93707e-05
5.5211e-08
9.94266e-05
1.77745e-08
9.94842e-05
-2.13816e-08
9.95439e-05
-6.19051e-08
9.96058e-05
-1.03479e-07
9.96701e-05
-1.4582e-07
9.97373e-05
-1.88678e-07
9.98076e-05
-2.31836e-07
9.98817e-05
-2.75121e-07
9.996e-05
-3.18413e-07
0.000100043
-3.61658e-07
0.000100132
-4.0489e-07
0.000100228
-4.48254e-07
0.00010033
-4.92037e-07
0.000100442
-5.36694e-07
0.000100563
-5.82886e-07
0.000100695
-6.31484e-07
-6.83584e-07
0.00010084
0.000101601
2.48934e-08
0.000101612
7.19358e-08
0.000101631
1.13171e-07
0.000101655
1.46434e-07
0.000101684
1.70998e-07
0.000101718
1.86877e-07
0.000101755
1.94397e-07
0.000101795
1.94195e-07
0.000101838
1.87039e-07
0.000101882
1.73697e-07
0.000101928
1.54907e-07
0.000101976
1.31361e-07
0.000102026
1.03684e-07
0.000102076
7.24381e-08
0.000102129
3.81264e-08
0.000102183
1.19598e-09
0.000102239
-3.7956e-08
0.000102296
-7.89773e-08
0.000102356
-1.21556e-07
0.000102418
-1.65419e-07
0.000102482
-2.1033e-07
0.00010255
-2.56089e-07
0.00010262
-3.02542e-07
0.000102695
-3.49582e-07
0.000102774
-3.9716e-07
0.000102857
-4.45302e-07
0.000102947
-4.9412e-07
0.000103042
-5.43835e-07
0.000103145
-5.94798e-07
0.000103256
-6.47501e-07
0.000103375
-7.02606e-07
0.000103505
-7.60937e-07
-8.23434e-07
0.000103645
0.000104504
2.13138e-08
0.000104515
6.12013e-08
0.000104532
9.56575e-08
0.000104556
1.22991e-07
0.000104584
1.42524e-07
0.000104617
1.5419e-07
0.000104653
1.58228e-07
0.000104692
1.55133e-07
0.000104734
1.45537e-07
0.000104777
1.30095e-07
0.000104823
1.09449e-07
0.00010487
8.4207e-08
0.000104919
5.49256e-08
0.000104969
2.2109e-08
0.000105021
-1.37914e-08
0.000105074
-5.23742e-08
0.00010513
-9.32846e-08
0.000105187
-1.36211e-07
0.000105246
-1.80883e-07
0.000105308
-2.27068e-07
0.000105372
-2.74576e-07
0.000105439
-3.23256e-07
0.00010551
-3.73004e-07
0.000105584
-4.2377e-07
0.000105662
-4.75562e-07
0.000105746
-5.28464e-07
0.000105834
-5.8264e-07
0.000105929
-6.38354e-07
0.00010603
-6.95981e-07
0.000106138
-7.5601e-07
0.000106255
-8.19063e-07
0.00010638
-8.85876e-07
-9.57219e-07
0.000106513
0.00010749
1.78011e-08
0.0001075
5.08055e-08
0.000107517
7.88064e-08
0.000107539
1.0043e-07
0.000107567
1.15057e-07
0.000107598
1.22567e-07
0.000107634
1.23118e-07
0.000107672
1.17094e-07
0.000107712
1.05007e-07
0.000107755
8.74103e-08
0.000107799
6.48548e-08
0.000107846
3.78689e-08
0.000107894
6.94288e-09
0.000107943
-2.74776e-08
0.000107994
-6.49921e-08
0.000108047
-1.05245e-07
0.000108102
-1.47925e-07
0.000108159
-1.92759e-07
0.000108217
-2.39518e-07
0.000108278
-2.8801e-07
0.000108342
-3.38084e-07
0.000108408
-3.89633e-07
0.000108478
-4.42596e-07
0.000108551
-4.96965e-07
0.000108628
-5.52792e-07
0.00010871
-6.10196e-07
0.000108796
-6.6937e-07
0.000108889
-7.30594e-07
0.000108987
-7.94234e-07
0.000109092
-8.60748e-07
0.000109203
-9.30687e-07
0.000109322
-1.00468e-06
-1.08332e-06
0.000109448
0.00011056
1.43842e-08
0.00011057
4.07664e-08
0.000110587
6.26013e-08
0.000110608
7.87278e-08
0.000110635
8.85851e-08
0.000110665
9.2011e-08
0.000110699
8.90974e-08
0.000110736
8.01348e-08
0.000110776
6.55339e-08
0.000110817
4.57533e-08
0.000110861
2.12602e-08
0.000110906
-7.49167e-09
0.000110953
-4.00771e-08
0.000111002
-7.6107e-08
0.000111052
-1.15232e-07
0.000111104
-1.57141e-07
0.000111158
-2.01565e-07
0.000111213
-2.4827e-07
0.000111271
-2.97064e-07
0.000111331
-3.47793e-07
0.000111393
-4.0034e-07
0.000111458
-4.54635e-07
0.000111526
-5.10651e-07
0.000111597
-5.6841e-07
0.000111673
-6.2799e-07
0.000111752
-6.8953e-07
0.000111836
-7.53231e-07
0.000111925
-8.19363e-07
0.000112019
-8.88264e-07
0.000112118
-9.60337e-07
0.000112223
-1.03605e-06
0.000112335
-1.1159e-06
-1.20034e-06
0.000112452
0.000113719
1.10797e-08
0.000113728
3.10958e-08
0.000113744
4.70315e-08
0.000113765
5.78707e-08
0.00011379
6.31014e-08
0.00011382
6.2533e-08
0.000113853
5.6201e-08
0.000113889
4.43178e-08
0.000113927
2.72059e-08
0.000113967
5.23956e-09
0.00011401
-2.11917e-08
0.000114054
-5.1704e-08
0.0001141
-8.59346e-08
0.000114147
-1.23549e-07
0.000114196
-1.64248e-07
0.000114247
-2.07764e-07
0.000114299
-2.53866e-07
0.000114353
-3.02361e-07
0.000114409
-3.53089e-07
0.000114468
-4.05928e-07
0.000114528
-4.60794e-07
0.000114591
-5.17642e-07
0.000114657
-5.7647e-07
0.000114726
-6.37319e-07
0.000114798
-7.00282e-07
0.000114874
-7.65498e-07
0.000114954
-8.3316e-07
0.000115038
-9.03512e-07
0.000115127
-9.76847e-07
0.00011522
-1.0535e-06
0.000115318
-1.13384e-06
0.00011542
-1.21827e-06
-1.30705e-06
0.000115527
0.000116968
7.89693e-09
0.000116977
2.18014e-08
0.000116992
3.20907e-08
0.000117012
3.78502e-08
0.000117036
3.86065e-08
0.000117065
3.41494e-08
0.000117096
2.44679e-08
0.000117131
9.70776e-09
0.000117168
-9.88428e-09
0.000117207
-3.40099e-08
0.000117249
-6.23506e-08
0.000117291
-9.45881e-08
0.000117336
-1.30418e-07
0.000117382
-1.69561e-07
0.000117429
-2.1176e-07
0.000117478
-2.56794e-07
0.000117529
-3.0447e-07
0.000117581
-3.54626e-07
0.000117635
-4.07135e-07
0.000117691
-4.61903e-07
0.000117749
-5.18869e-07
0.00011781
-5.78008e-07
0.000117873
-6.39334e-07
0.000117938
-7.02898e-07
0.000118007
-7.68792e-07
0.000118078
-8.37145e-07
0.000118153
-9.08129e-07
0.000118232
-9.8195e-07
0.000118314
-1.05885e-06
0.000118399
-1.13908e-06
0.000118488
-1.22292e-06
0.000118581
-1.31066e-06
-1.40243e-06
0.000118676
0.000120309
4.84108e-09
0.000120318
1.28889e-08
0.000120332
1.77768e-08
0.000120351
1.86637e-08
0.000120375
1.51064e-08
0.000120402
6.88225e-09
0.000120433
-6.05869e-09
0.000120466
-2.36265e-08
0.000120502
-4.56403e-08
0.00012054
-7.18693e-08
0.000120579
-1.0206e-07
0.000120621
-1.35956e-07
0.000120664
-1.73307e-07
0.000120708
-2.13883e-07
0.000120754
-2.57475e-07
0.000120801
-3.03898e-07
0.000120849
-3.52996e-07
0.000120899
-4.04638e-07
0.000120951
-4.58724e-07
0.000121004
-5.15181e-07
0.000121059
-5.73968e-07
0.000121116
-6.35074e-07
0.000121176
-6.98518e-07
0.000121237
-7.64352e-07
0.000121301
-8.32658e-07
0.000121367
-9.03547e-07
0.000121436
-9.77158e-07
0.000121508
-1.05365e-06
0.000121582
-1.13321e-06
0.000121659
-1.21602e-06
0.000121739
-1.30226e-06
0.00012182
-1.39212e-06
-1.48561e-06
0.000121903
0.000123746
1.91551e-09
0.000123755
4.36338e-09
0.000123768
4.09138e-09
0.000123787
3.14659e-10
0.000123809
-7.3866e-09
0.000123835
-1.92412e-08
0.000123865
-3.53308e-08
0.000123897
-5.56123e-08
0.000123931
-7.99619e-08
0.000123967
-1.08209e-07
0.000124005
-1.40159e-07
0.000124045
-1.75612e-07
0.000124086
-2.14371e-07
0.000124128
-2.56251e-07
0.000124172
-3.01085e-07
0.000124217
-3.48727e-07
0.000124263
-3.99051e-07
0.00012431
-4.51955e-07
0.000124359
-5.07361e-07
0.000124409
-5.65216e-07
0.00012446
-6.25489e-07
0.000124513
-6.88177e-07
0.000124568
-7.53299e-07
0.000124625
-8.209e-07
0.000124683
-8.91045e-07
0.000124743
-9.6382e-07
0.000124806
-1.03933e-06
0.00012487
-1.11768e-06
0.000124935
-1.199e-06
0.000125003
-1.28339e-06
0.000125072
-1.37097e-06
0.000125141
-1.46182e-06
-1.55587e-06
0.000125212
0.000127281
-8.7738e-10
0.000127289
-3.77011e-09
0.000127303
-8.96108e-09
0.00012732
-1.71915e-08
0.000127341
-2.88577e-08
0.000127366
-4.41926e-08
0.000127394
-6.33004e-08
0.000127425
-8.61775e-08
0.000127458
-1.12749e-07
0.000127492
-1.42898e-07
0.000127529
-1.76484e-07
0.000127567
-2.13359e-07
0.000127606
-2.53374e-07
0.000127646
-2.96389e-07
0.000127687
-3.42276e-07
0.000127729
-3.90923e-07
0.000127772
-4.42233e-07
0.000127816
-4.96128e-07
0.000127862
-5.52549e-07
0.000127908
-6.11456e-07
0.000127955
-6.72828e-07
0.000128004
-7.36661e-07
0.000128053
-8.02972e-07
0.000128104
-8.71789e-07
0.000128156
-9.4316e-07
0.00012821
-1.01714e-06
0.000128264
-1.09379e-06
0.00012832
-1.17318e-06
0.000128376
-1.25536e-06
0.000128433
-1.34039e-06
0.00012849
-1.4283e-06
0.000128548
-1.5191e-06
-1.61264e-06
0.000128604
0.000130918
-3.53454e-09
0.000130925
-1.15033e-08
0.000130938
-2.13701e-08
0.000130954
-3.38393e-08
0.000130975
-4.92847e-08
0.000130998
-6.79364e-08
0.000131025
-8.99146e-08
0.000131054
-1.15247e-07
0.000131085
-1.43901e-07
0.000131118
-1.75807e-07
0.000131153
-2.10873e-07
0.000131188
-2.49e-07
0.000131225
-2.90084e-07
0.000131263
-3.34027e-07
0.000131301
-3.80736e-07
0.00013134
-4.3013e-07
0.00013138
-4.82141e-07
0.000131421
-5.3671e-07
0.000131462
-5.93793e-07
0.000131504
-6.53362e-07
0.000131546
-7.15397e-07
0.00013159
-7.79894e-07
0.000131634
-8.46859e-07
0.000131678
-9.16307e-07
0.000131723
-9.88259e-07
0.000131769
-1.06274e-06
0.000131815
-1.13977e-06
0.000131861
-1.21938e-06
0.000131907
-1.30156e-06
0.000131953
-1.38632e-06
0.000131998
-1.47361e-06
0.000132043
-1.5634e-06
-1.65548e-06
0.000132086
0.000134658
-6.05385e-09
0.000134665
-1.88302e-08
0.000134677
-3.31296e-08
0.000134693
-4.96233e-08
0.000134712
-6.86579e-08
0.000134734
-9.04518e-08
0.00013476
-1.15134e-07
0.000134787
-1.42757e-07
0.000134817
-1.73323e-07
0.000134848
-2.06808e-07
0.00013488
-2.43164e-07
0.000134913
-2.82336e-07
0.000134947
-3.24263e-07
0.000134982
-3.68886e-07
0.000135018
-4.16145e-07
0.000135053
-4.6599e-07
0.00013509
-5.18373e-07
0.000135126
-5.73255e-07
0.000135163
-6.30607e-07
0.0001352
-6.90403e-07
0.000135237
-7.52627e-07
0.000135275
-8.17269e-07
0.000135312
-8.84324e-07
0.00013535
-9.53789e-07
0.000135387
-1.02566e-06
0.000135424
-1.09993e-06
0.000135461
-1.17659e-06
0.000135497
-1.25562e-06
0.000135533
-1.33697e-06
0.000135567
-1.4206e-06
0.0001356
-1.50641e-06
0.000135631
-1.59431e-06
-1.68405e-06
0.000135659
0.000138505
-8.42421e-09
0.000138511
-2.57237e-08
0.000138523
-4.42014e-08
0.000138537
-6.45005e-08
0.000138556
-8.6932e-08
0.000138577
-1.11692e-07
0.000138601
-1.38907e-07
0.000138627
-1.68645e-07
0.000138654
-2.00939e-07
0.000138683
-2.35801e-07
0.000138713
-2.73227e-07
0.000138744
-3.13204e-07
0.000138776
-3.55712e-07
0.000138807
-4.00727e-07
0.00013884
-4.48223e-07
0.000138872
-4.98176e-07
0.000138904
-5.50561e-07
0.000138936
-6.05355e-07
0.000138968
-6.62536e-07
0.000139
-7.22087e-07
0.000139031
-7.8399e-07
0.000139062
-8.48227e-07
0.000139092
-9.14781e-07
0.000139122
-9.83632e-07
0.000139151
-1.05475e-06
0.00013918
-1.12811e-06
0.000139207
-1.20365e-06
0.000139232
-1.28133e-06
0.000139256
-1.36107e-06
0.000139279
-1.44276e-06
0.000139298
-1.52628e-06
0.000139316
-1.61151e-06
-1.69816e-06
0.00013933
0.000142461
-1.06589e-08
0.000142468
-3.22025e-08
0.000142478
-5.46191e-08
0.000142492
-7.85152e-08
0.00014251
-1.04146e-07
0.00014253
-1.31673e-07
0.000142552
-1.61215e-07
0.000142576
-1.92853e-07
0.000142602
-2.26648e-07
0.000142629
-2.62646e-07
0.000142656
-3.00884e-07
0.000142685
-3.41389e-07
0.000142713
-3.8418e-07
0.000142742
-4.29266e-07
0.00014277
-4.76654e-07
0.000142798
-5.26341e-07
0.000142826
-5.78325e-07
0.000142853
-6.32595e-07
0.00014288
-6.8914e-07
0.000142906
-7.47946e-07
0.000142931
-8.08992e-07
0.000142955
-8.72255e-07
0.000142978
-9.37704e-07
0.000142999
-1.0053e-06
0.000143019
-1.075e-06
0.000143038
-1.14675e-06
0.000143055
-1.22046e-06
0.00014307
-1.29606e-06
0.000143082
-1.37343e-06
0.000143092
-1.45245e-06
0.000143098
-1.53296e-06
0.000143102
-1.6148e-06
-1.69768e-06
0.000143101
0.000146531
-1.26698e-08
0.000146537
-3.81027e-08
0.000146547
-6.41837e-08
0.00014656
-9.14896e-08
0.000146576
-1.20181e-07
0.000146594
-1.50347e-07
0.000146615
-1.8207e-07
0.000146638
-2.15429e-07
0.000146662
-2.50507e-07
0.000146687
-2.87387e-07
0.000146712
-3.2615e-07
0.000146737
-3.66865e-07
0.000146763
-4.09592e-07
0.000146788
-4.54377e-07
0.000146812
-5.01255e-07
0.000146836
-5.50252e-07
0.000146859
-6.01382e-07
0.000146881
-6.5465e-07
0.000146902
-7.10053e-07
0.000146922
-7.67578e-07
0.00014694
-8.27205e-07
0.000146957
-8.88902e-07
0.000146972
-9.5263e-07
0.000146985
-1.01834e-06
0.000146996
-1.08596e-06
0.000147004
-1.15541e-06
0.000147011
-1.22661e-06
0.000147014
-1.29943e-06
0.000147014
-1.37375e-06
0.000147011
-1.44941e-06
0.000147004
-1.52625e-06
0.000146994
-1.60409e-06
-1.68261e-06
0.000146979
0.000150718
-1.46865e-08
0.000150723
-4.37382e-08
0.000150732
-7.32418e-08
0.000150745
-1.03706e-07
0.00015076
-1.35186e-07
0.000150777
-1.67709e-07
0.000150796
-2.01336e-07
0.000150817
-2.36142e-07
0.000150839
-2.72228e-07
0.000150861
-3.09706e-07
0.000150884
-3.48692e-07
0.000150906
-3.89295e-07
0.000150928
-4.31612e-07
0.000150949
-4.75723e-07
0.00015097
-5.21693e-07
0.000150989
-5.69572e-07
0.000151007
-6.19392e-07
0.000151024
-6.71173e-07
0.000151038
-7.2492e-07
0.000151052
-7.80624e-07
0.000151063
-8.38265e-07
0.000151071
-8.97806e-07
0.000151078
-9.592e-07
0.000151082
-1.02238e-06
0.000151083
-1.08728e-06
0.000151082
-1.15379e-06
0.000151077
-1.22181e-06
0.000151069
-1.29121e-06
0.000151057
-1.36183e-06
0.000151041
-1.43353e-06
0.000151021
-1.5061e-06
0.000150996
-1.57937e-06
-1.65303e-06
0.000150967
0.000155023
-1.58454e-08
0.000155027
-4.79665e-08
0.000155035
-8.07725e-08
0.000155045
-1.1459e-07
0.000155059
-1.49098e-07
0.000155076
-1.84113e-07
0.000155094
-2.19619e-07
0.000155114
-2.55702e-07
0.000155134
-2.92511e-07
0.000155154
-3.30225e-07
0.000155175
-3.69019e-07
0.000155194
-4.0906e-07
0.000155213
-4.50492e-07
0.000155231
-4.93437e-07
0.000155247
-5.37991e-07
0.000155262
-5.84229e-07
0.000155275
-6.32204e-07
0.000155286
-6.81947e-07
0.000155294
-7.33472e-07
0.0001553
-7.86775e-07
0.000155304
-8.41834e-07
0.000155305
-8.98613e-07
0.000155303
-9.57055e-07
0.000155297
-1.01709e-06
0.000155289
-1.07863e-06
0.000155276
-1.14158e-06
0.00015526
-1.2058e-06
0.00015524
-1.27116e-06
0.000155216
-1.33752e-06
0.000155187
-1.40468e-06
0.000155154
-1.47247e-06
0.000155115
-1.5407e-06
-1.60908e-06
0.000155071
0.000159453
-1.85661e-08
0.000159459
-5.31855e-08
0.000159466
-8.84617e-08
0.000159476
-1.2467e-07
0.000159489
-1.61431e-07
0.000159503
-1.98427e-07
0.000159519
-2.355e-07
0.000159536
-2.72651e-07
0.000159553
-3.10011e-07
0.000159571
-3.47776e-07
0.000159588
-3.86162e-07
0.000159604
-4.2538e-07
0.000159619
-4.65621e-07
0.000159633
-5.07045e-07
0.000159645
-5.49786e-07
0.000159655
-5.93947e-07
0.000159662
-6.39603e-07
0.000159667
-6.86803e-07
0.000159669
-7.35575e-07
0.000159668
-7.85921e-07
0.000159664
-8.37824e-07
0.000159657
-8.91249e-07
0.000159646
-9.46139e-07
0.000159631
-1.00242e-06
0.000159612
-1.06e-06
0.00015959
-1.11878e-06
0.000159562
-1.17862e-06
0.000159531
-1.23938e-06
0.000159494
-1.30091e-06
0.000159452
-1.36303e-06
0.000159406
-1.42556e-06
0.000159353
-1.48831e-06
-1.551e-06
0.000159295
0.000164003
-1.58108e-08
0.000164003
-5.31219e-08
0.000164008
-9.29528e-08
0.000164017
-1.34049e-07
0.00016403
-1.74673e-07
0.000164046
-2.14265e-07
0.000164064
-2.528e-07
0.000164081
-2.90503e-07
0.000164099
-3.277e-07
0.000164116
-3.64726e-07
0.000164132
-4.01902e-07
0.000164146
-4.39515e-07
0.000164158
-4.77815e-07
0.000164168
-5.17007e-07
0.000164176
-5.57254e-07
0.00016418
-5.98682e-07
0.000164182
-6.41384e-07
0.000164181
-6.85421e-07
0.000164176
-7.30827e-07
0.000164168
-7.7761e-07
0.000164156
-8.25756e-07
0.00016414
-8.75231e-07
0.000164119
-9.25979e-07
0.000164095
-9.77925e-07
0.000164066
-1.03098e-06
0.000164032
-1.08503e-06
0.000163993
-1.13995e-06
0.00016395
-1.19561e-06
0.000163901
-1.25184e-06
0.000163846
-1.30849e-06
0.000163786
-1.36536e-06
0.00016372
-1.4223e-06
-1.47904e-06
0.000163648
0.0001687
-2.39332e-08
0.000168705
-5.8715e-08
0.00016871
-9.74603e-08
0.000168715
-1.39086e-07
0.000168722
-1.81741e-07
0.000168732
-2.23807e-07
0.000168743
-2.64357e-07
0.000168756
-3.03303e-07
0.000168769
-3.40944e-07
0.000168782
-3.77669e-07
0.000168794
-4.13883e-07
0.000168805
-4.49967e-07
0.000168813
-4.86248e-07
0.000168819
-5.23e-07
0.000168822
-5.60442e-07
0.000168822
-5.98745e-07
0.000168819
-6.38037e-07
0.000168812
-6.78404e-07
0.000168801
-7.19902e-07
0.000168786
-7.62555e-07
0.000168767
-8.0636e-07
0.000168743
-8.51293e-07
0.000168714
-8.97303e-07
0.00016868
-9.44325e-07
0.000168642
-9.92271e-07
0.000168598
-1.04104e-06
0.000168548
-1.09051e-06
0.000168493
-1.14054e-06
0.000168432
-1.191e-06
0.000168366
-1.24173e-06
0.000168293
-1.29256e-06
0.000168214
-1.34331e-06
-1.39377e-06
0.000168128
0.000173493
-5.23075e-09
0.000173483
-4.91098e-08
0.000173486
-1.00511e-07
0.000173499
-1.52108e-07
0.000173517
-1.99816e-07
0.000173537
-2.43603e-07
0.000173557
-2.83958e-07
0.000173575
-3.21673e-07
0.000173591
-3.57426e-07
0.000173606
-3.91789e-07
0.000173617
-4.2529e-07
0.000173625
-4.58378e-07
0.000173631
-4.91419e-07
0.000173632
-5.24706e-07
0.00017363
-5.58471e-07
0.000173624
-5.9289e-07
0.000173614
-6.28096e-07
0.0001736
-6.64182e-07
0.000173582
-7.01203e-07
0.000173558
-7.3919e-07
0.00017353
-7.78143e-07
0.000173497
-8.18041e-07
0.000173458
-8.58842e-07
0.000173414
-9.00483e-07
0.000173365
-9.42887e-07
0.00017331
-9.85957e-07
0.000173249
-1.02959e-06
0.000173182
-1.07365e-06
0.000173109
-1.11803e-06
0.00017303
-1.16256e-06
0.000172945
-1.20711e-06
0.000172853
-1.25153e-06
-1.29561e-06
0.000172755
0.000178493
-3.0034e-08
0.00017849
-4.59524e-08
0.000178477
-8.69189e-08
0.000178464
-1.3922e-07
0.000178458
-1.94515e-07
0.000178461
-2.46064e-07
0.000178468
-2.91545e-07
0.000178479
-3.32057e-07
0.00017849
-3.68801e-07
0.000178501
-4.02747e-07
0.000178511
-4.34735e-07
0.000178518
-4.65461e-07
0.000178522
-4.95477e-07
0.000178522
-5.25216e-07
0.000178519
-5.55011e-07
0.000178511
-5.85113e-07
0.000178499
-6.15707e-07
0.000178481
-6.46923e-07
0.000178459
-6.78849e-07
0.000178431
-7.11535e-07
0.000178398
-7.45e-07
0.000178359
-7.79237e-07
0.000178315
-8.14217e-07
0.000178264
-8.4989e-07
0.000178208
-8.86191e-07
0.000178145
-9.23036e-07
0.000178075
-9.60333e-07
0.000178
-9.97972e-07
0.000177917
-1.03584e-06
0.000177829
-1.0738e-06
0.000177733
-1.11174e-06
0.000177631
-1.1495e-06
-1.18693e-06
0.000177523
0.000183488
4.92542e-08
0.000183467
-2.48963e-08
0.000183495
-1.15077e-07
0.000183533
-1.77028e-07
0.00018357
-2.31616e-07
0.0001836
-2.76294e-07
0.000183624
-3.15395e-07
0.000183643
-3.50519e-07
0.000183656
-3.8236e-07
0.000183665
-4.11763e-07
0.00018367
-4.39477e-07
0.000183671
-4.66067e-07
0.000183667
-4.91975e-07
0.000183659
-5.17551e-07
0.000183647
-5.43069e-07
0.000183631
-5.68739e-07
0.00018361
-5.9472e-07
0.000183584
-6.21129e-07
0.000183554
-6.48046e-07
0.000183518
-6.7552e-07
0.000183476
-7.03577e-07
0.000183429
-7.32219e-07
0.000183376
-7.61427e-07
0.000183318
-7.91166e-07
0.000183253
-8.21388e-07
0.000183182
-8.52029e-07
0.000183104
-8.83014e-07
0.000183021
-9.14257e-07
0.000182931
-9.45666e-07
0.000182834
-9.7714e-07
0.000182731
-1.00857e-06
0.000182621
-1.03986e-06
-1.07085e-06
0.000182505
0.000188858
3.56003e-09
0.000188786
4.68661e-08
0.000188692
-2.15941e-08
0.000188621
-1.05352e-07
0.000188596
-2.0651e-07
0.000188597
-2.77364e-07
0.000188612
-3.31051e-07
0.000188635
-3.72864e-07