/*--------------------------------*- C++ -*----------------------------------*\
| =========                 |                                                 |
| \\      /  F ield         | OpenFOAM: The Open Source CFD Toolbox           |
|  \\    /   O peration     | Version:  2.1.1                                 |
|   \\  /    A nd           | Web:      www.OpenFOAM.org                      |
|    \\/     M anipulation  |                                                 |
\*---------------------------------------------------------------------------*/
FoamFile
{
    version     2.0;
    format      ascii;
    class       volVectorField;
    location    "0.03";
    object      U;
}
// * * * * * * * * * * * * * * * * * * * * * * * * * * * * * * * * * * * * * //

dimensions      [0 1 -1 0 0 0 0];

internalField   nonuniform List<vector> 
6820
(
(8.34337 -0.360094 0)
(8.40129 -0.247246 0)
(8.35676 -0.11541 0)
(8.24918 -0.0367366 0)
(8.12172 0.00574098 0)
(7.98957 0.0274951 0)
(7.85906 0.0381477 0)
(7.73359 0.0427271 0)
(7.61458 0.0438755 0)
(7.5026 0.0430483 0)
(7.39789 0.041087 0)
(7.3005 0.0384955 0)
(7.2103 0.0355847 0)
(7.1271 0.0325501 0)
(7.05061 0.0295154 0)
(6.98052 0.0265587 0)
(6.91649 0.023728 0)
(6.85813 0.021052 0)
(6.80507 0.0185463 0)
(6.75694 0.0162187 0)
(6.71336 0.0140729 0)
(6.67394 0.0121107 0)
(6.6383 0.0103354 0)
(6.60605 0.00875411 0)
(6.57676 0.0073811 0)
(6.54997 0.00624358 0)
(6.52515 0.00538614 0)
(6.50161 0.00490268 0)
(6.47853 0.00491885 0)
(6.45458 0.00579876 0)
(6.42745 0.00832672 0)
(6.39467 0.0124645 0)
(6.34418 0.0348335 0)
(8.3214 0.166214 0)
(8.28712 0.18988 0)
(8.28554 0.13196 0)
(8.31761 0.0954764 0)
(8.36208 0.0745118 0)
(8.4024 0.0617252 0)
(8.43385 0.0540984 0)
(8.4564 0.0494102 0)
(8.47093 0.046319 0)
(8.47846 0.0441124 0)
(8.48004 0.0423969 0)
(8.47663 0.0409356 0)
(8.46907 0.0395903 0)
(8.45809 0.038285 0)
(8.44434 0.0369806 0)
(8.42839 0.0356601 0)
(8.41072 0.0343199 0)
(8.39175 0.0329644 0)
(8.37184 0.0316029 0)
(8.35128 0.0302481 0)
(8.33033 0.0289159 0)
(8.30917 0.0276255 0)
(8.28798 0.0264011 0)
(8.26687 0.0252741 0)
(8.24593 0.0242873 0)
(8.22519 0.0235003 0)
(8.2047 0.0230018 0)
(8.18436 0.0229316 0)
(8.16435 0.0234904 0)
(8.14405 0.0251554 0)
(8.12589 0.0282975 0)
(8.10469 0.0352085 0)
(8.10505 0.0462051 0)
(8.32251 -0.0609269 0)
(8.31409 -0.0834291 0)
(8.33082 -0.0543406 0)
(8.34496 -0.0206639 0)
(8.35427 0.00189054 0)
(8.36381 0.0158403 0)
(8.37415 0.0248841 0)
(8.38488 0.0308861 0)
(8.39553 0.0348695 0)
(8.40571 0.0374793 0)
(8.41519 0.0391091 0)
(8.42384 0.0400021 0)
(8.4316 0.040332 0)
(8.43846 0.0402307 0)
(8.44445 0.0397985 0)
(8.44962 0.0391138 0)
(8.45402 0.0382387 0)
(8.45771 0.0372239 0)
(8.46076 0.0361119 0)
(8.46323 0.0349396 0)
(8.46519 0.0337414 0)
(8.46667 0.0325514 0)
(8.46773 0.0314063 0)
(8.4684 0.0303488 0)
(8.46868 0.0294332 0)
(8.46856 0.0287289 0)
(8.46804 0.0283401 0)
(8.46704 0.0283888 0)
(8.46558 0.02914 0)
(8.4634 0.0306711 0)
(8.46104 0.0340551 0)
(8.45712 0.0372484 0)
(8.45478 0.0469715 0)
(8.33366 0.0144938 0)
(8.3299 0.0474594 0)
(8.32775 0.053527 0)
(8.32942 0.0459984 0)
(8.33576 0.04031 0)
(8.34387 0.0375816 0)
(8.35207 0.036527 0)
(8.36012 0.0362159 0)
(8.36805 0.0361447 0)
(8.37583 0.0360912 0)
(8.38345 0.0359556 0)
(8.39088 0.0356963 0)
(8.3981 0.0353041 0)
(8.40511 0.0347828 0)
(8.4119 0.0341422 0)
(8.41847 0.0333955 0)
(8.42483 0.0325583 0)
(8.43098 0.0316479 0)
(8.43694 0.0306833 0)
(8.44272 0.0296855 0)
(8.44832 0.0286783 0)
(8.45376 0.0276903 0)
(8.45903 0.0267564 0)
(8.46414 0.0259212 0)
(8.46907 0.0252442 0)
(8.47379 0.0248035 0)
(8.4783 0.0247115 0)
(8.48253 0.0251101 0)
(8.48652 0.0262329 0)
(8.49012 0.0282922 0)
(8.4938 0.0318528 0)
(8.49683 0.0367884 0)
(8.50134 0.0452057 0)
(8.3302 -0.00539137 0)
(8.32731 -0.00775094 0)
(8.33173 -0.00295841 0)
(8.3368 0.00728338 0)
(8.34135 0.0162205 0)
(8.34612 0.0221771 0)
(8.35124 0.0260718 0)
(8.35674 0.0287149 0)
(8.36253 0.0305072 0)
(8.36851 0.0316807 0)
(8.37458 0.0323803 0)
(8.3807 0.0327 0)
(8.38685 0.0327066 0)
(8.39299 0.032452 0)
(8.39912 0.0319801 0)
(8.40523 0.0313289 0)
(8.41131 0.0305326 0)
(8.41738 0.0296224 0)
(8.42342 0.0286279 0)
(8.42945 0.0275786 0)
(8.43545 0.0265057 0)
(8.44143 0.0254438 0)
(8.44739 0.0244337 0)
(8.45332 0.0235253 0)
(8.4592 0.0227828 0)
(8.46503 0.0222882 0)
(8.47079 0.0221547 0)
(8.47647 0.0225189 0)
(8.4821 0.023598 0)
(8.48766 0.0255668 0)
(8.49342 0.0289113 0)
(8.49919 0.0334777 0)
(8.50588 0.0407652 0)
(8.3324 0.00216271 0)
(8.3313 0.012985 0)
(8.33315 0.0198477 0)
(8.33622 0.0229466 0)
(8.34015 0.024785 0)
(8.34481 0.0262561 0)
(8.34976 0.0275711 0)
(8.35486 0.0286753 0)
(8.36008 0.0294847 0)
(8.36542 0.029986 0)
(8.37084 0.0301997 0)
(8.37633 0.0301527 0)
(8.38189 0.0298737 0)
(8.38751 0.029392 0)
(8.39317 0.0287361 0)
(8.39888 0.0279327 0)
(8.40464 0.027007 0)
(8.41044 0.0259838 0)
(8.4163 0.0248878 0)
(8.4222 0.0237454 0)
(8.42816 0.0225855 0)
(8.43417 0.0214416 0)
(8.44024 0.0203542 0)
(8.44635 0.0193734 0)
(8.45251 0.018563 0)
(8.45872 0.0180041 0)
(8.46499 0.0178045 0)
(8.47133 0.0180943 0)
(8.4778 0.0190596 0)
(8.48444 0.0208759 0)
(8.49148 0.0238821 0)
(8.49898 0.0281486 0)
(8.50747 0.0344478 0)
(8.33234 0.000723561 0)
(8.33164 0.0053275 0)
(8.33377 0.0100053 0)
(8.33717 0.0144869 0)
(8.34105 0.0185314 0)
(8.3453 0.0216675 0)
(8.34976 0.0239391 0)
(8.35438 0.0255404 0)
(8.35915 0.0266066 0)
(8.36406 0.0272385 0)
(8.36906 0.0275122 0)
(8.37416 0.0274829 0)
(8.37935 0.0271935 0)
(8.38461 0.0266808 0)
(8.38995 0.025977 0)
(8.39537 0.0251108 0)
(8.40086 0.0241094 0)
(8.40644 0.0229985 0)
(8.4121 0.0218044 0)
(8.41786 0.0205544 0)
(8.42371 0.0192784 0)
(8.42965 0.0180109 0)
(8.4357 0.0167928 0)
(8.44187 0.0156738 0)
(8.44815 0.0147161 0)
(8.45456 0.0139967 0)
(8.46113 0.013614 0)
(8.4679 0.0136847 0)
(8.47495 0.0143639 0)
(8.48238 0.015803 0)
(8.49036 0.0182452 0)
(8.49911 0.0217952 0)
(8.50899 0.0268648 0)
(8.33273 0.00156033 0)
(8.33267 0.00681001 0)
(8.33452 0.0117583 0)
(8.33746 0.0156424 0)
(8.34096 0.0186818 0)
(8.34493 0.0209632 0)
(8.34919 0.0226468 0)
(8.35363 0.0238625 0)
(8.35822 0.0246672 0)
(8.36291 0.0251047 0)
(8.3677 0.0252193 0)
(8.37258 0.02505 0)
(8.37755 0.0246311 0)
(8.38259 0.0239941 0)
(8.38773 0.0231677 0)
(8.39295 0.0221784 0)
(8.39827 0.0210515 0)
(8.40368 0.0198116 0)
(8.4092 0.0184835 0)
(8.41484 0.0170937 0)
(8.4206 0.0156711 0)
(8.42649 0.014249 0)
(8.43252 0.0128665 0)
(8.4387 0.0115707 0)
(8.44507 0.0104189 0)
(8.45163 0.00948091 0)
(8.45845 0.00884231 0)
(8.46556 0.00860258 0)
(8.47308 0.00888448 0)
(8.48112 0.0098099 0)
(8.48986 0.0115428 0)
(8.49956 0.0141768 0)
(8.5105 0.0179069 0)
(8.33285 0.00160737 0)
(8.33305 0.0058951 0)
(8.33477 0.0100098 0)
(8.33753 0.0134722 0)
(8.34085 0.0163802 0)
(8.34461 0.0186807 0)
(8.34867 0.0203956 0)
(8.35291 0.0216049 0)
(8.35731 0.0223716 0)
(8.36183 0.0227511 0)
(8.36645 0.0227952 0)
(8.37117 0.0225467 0)
(8.37597 0.0220415 0)
(8.38087 0.0213112 0)
(8.38586 0.0203843 0)
(8.39094 0.0192867 0)
(8.39613 0.0180429 0)
(8.40143 0.0166766 0)
(8.40684 0.0152121 0)
(8.41239 0.0136747 0)
(8.41808 0.0120922 0)
(8.42392 0.010496 0)
(8.42994 0.0089225 0)
(8.43615 0.00741467 0)
(8.44259 0.00602352 0)
(8.44929 0.00480913 0)
(8.45631 0.00384249 0)
(8.46371 0.00320316 0)
(8.4716 0.0029826 0)
(8.48013 0.00326884 0)
(8.48946 0.00416229 0)
(8.49985 0.00571913 0)
(8.51155 0.00800151 0)
(8.33295 0.00162601 0)
(8.33334 0.00550578 0)
(8.33496 0.00926817 0)
(8.3375 0.0124538 0)
(8.34059 0.0150749 0)
(8.34413 0.0171164 0)
(8.34798 0.0186144 0)
(8.35204 0.0196447 0)
(8.35628 0.020264 0)
(8.36065 0.0205175 0)
(8.36513 0.0204469 0)
(8.36971 0.0200886 0)
(8.37439 0.0194743 0)
(8.37917 0.0186326 0)
(8.38404 0.0175895 0)
(8.38901 0.0163692 0)
(8.3941 0.0149946 0)
(8.3993 0.013488 0)
(8.40463 0.0118721 0)
(8.41011 0.0101704 0)
(8.41574 0.00840873 0)
(8.42155 0.00661557 0)
(8.42756 0.00482344 0)
(8.4338 0.00306971 0)
(8.4403 0.00139744 0)
(8.44711 -0.000144363 0)
(8.45428 -0.00150051 0)
(8.46192 -0.00261213 0)
(8.4701 -0.00341723 0)
(8.47899 -0.00386111 0)
(8.48874 -0.00389443 0)
(8.4996 -0.00350234 0)
(8.51176 -0.00270366 0)
(8.333 0.00156566 0)
(8.33349 0.00500722 0)
(8.33501 0.00831719 0)
(8.33736 0.0111506 0)
(8.34026 0.0134935 0)
(8.3436 0.0153334 0)
(8.34725 0.0166824 0)
(8.35114 0.0175886 0)
(8.3552 0.0180962 0)
(8.35942 0.0182442 0)
(8.36376 0.0180701 0)
(8.36821 0.0176078 0)
(8.37276 0.0168869 0)
(8.37742 0.0159341 0)
(8.38218 0.0147737 0)
(8.38705 0.0134281 0)
(8.39204 0.0119186 0)
(8.39715 0.0102657 0)
(8.4024 0.00849027 0)
(8.40781 0.00661367 0)
(8.41339 0.0046588 0)
(8.41916 0.00265066 0)
(8.42516 0.000616967 0)
(8.4314 -0.00141141 0)
(8.43794 -0.00340026 0)
(8.44482 -0.00531237 0)
(8.45212 -0.00710843 0)
(8.45991 -0.00874975 0)
(8.46829 -0.0102008 0)
(8.47741 -0.0114373 0)
(8.48742 -0.0124496 0)
(8.49852 -0.0132596 0)
(8.51088 -0.0139343 0)
(8.33302 0.00146446 0)
(8.33356 0.0045327 0)
(8.335 0.00746347 0)
(8.33719 0.00999157 0)
(8.33991 0.0120753 0)
(8.34304 0.0136994 0)
(8.3465 0.0148688 0)
(8.35021 0.0156194 0)
(8.3541 0.0159887 0)
(8.35816 0.0160108 0)
(8.36235 0.0157179 0)
(8.36666 0.0151396 0)
(8.37109 0.0143024 0)
(8.37562 0.0132299 0)
(8.38027 0.0119442 0)
(8.38503 0.0104654 0)
(8.38991 0.00881256 0)
(8.39493 0.00700427 0)
(8.4001 0.00505884 0)
(8.40543 0.00299498 0)
(8.41094 0.000832231 0)
(8.41666 -0.00140863 0)
(8.42262 -0.00370536 0)
(8.42884 -0.00603416 0)
(8.43539 -0.00836999 0)
(8.4423 -0.0106875 0)
(8.44965 -0.0129626 0)
(8.45751 -0.0151752 0)
(8.466 -0.0173126 0)
(8.47522 -0.0193759 0)
(8.48531 -0.0213857 0)
(8.49645 -0.0233914 0)
(8.50876 -0.0254869 0)
(8.33304 0.00133939 0)
(8.3336 0.00405886 0)
(8.33495 0.00662897 0)
(8.33699 0.00885027 0)
(8.33953 0.0106718 0)
(8.34248 0.0120771 0)
(8.34575 0.0130656 0)
(8.34928 0.013661 0)
(8.35301 0.0138921 0)
(8.3569 0.0137869 0)
(8.36094 0.0133725 0)
(8.36511 0.0126748 0)
(8.36939 0.011717 0)
(8.3738 0.0105204 0)
(8.37832 0.0091043 0)
(8.38296 0.00748672 0)
(8.38773 0.00568447 0)
(8.39264 0.00371358 0)
(8.3977 0.00158974 0)
(8.40293 -0.000671468 0)
(8.40836 -0.00305425 0)
(8.414 -0.00554244 0)
(8.4199 -0.00811954 0)
(8.42607 -0.010769 0)
(8.43258 -0.013475 0)
(8.43946 -0.0162235 0)
(8.44679 -0.0190041 0)
(8.45465 -0.0218128 0)
(8.46312 -0.024656 0)
(8.4723 -0.0275546 0)
(8.48232 -0.0305506 0)
(8.49331 -0.0337121 0)
(8.50535 -0.0371446 0)
(8.33304 0.00120217 0)
(8.3336 0.00359403 0)
(8.33488 0.00583006 0)
(8.33678 0.00775925 0)
(8.33916 0.00932753 0)
(8.34193 0.0105155 0)
(8.34503 0.0113184 0)
(8.34838 0.0117511 0)
(8.35193 0.0118358 0)
(8.35566 0.0115951 0)
(8.35955 0.011052 0)
(8.36356 0.0102281 0)
(8.3677 0.00914378 0)
(8.37196 0.00781719 0)
(8.37634 0.00626516 0)
(8.38085 0.00450311 0)
(8.38549 0.00254531 0)
(8.39028 0.000405127 0)
(8.39522 -0.00190472 0)
(8.40034 -0.00437202 0)
(8.40566 -0.00698495 0)
(8.41119 -0.00973214 0)
(8.41699 -0.012603 0)
(8.42307 -0.015588 0)
(8.42948 -0.0186799 0)
(8.43628 -0.0218749 0)
(8.44352 -0.0251746 0)
(8.45127 -0.0285886 0)
(8.45961 -0.0321376 0)
(8.46864 -0.0358574 0)
(8.47843 -0.0398037 0)
(8.4891 -0.0440551 0)
(8.5007 -0.0487187 0)
(8.33305 0.00105992 0)
(8.33358 0.00313939 0)
(8.33479 0.00506063 0)
(8.33656 0.00670714 0)
(8.33879 0.00802648 0)
(8.3414 0.00899719 0)
(8.34432 0.00961165 0)
(8.3475 0.00987805 0)
(8.35089 0.00981235 0)
(8.35445 0.00943232 0)
(8.35817 0.00875638 0)
(8.36203 0.00780259 0)
(8.36602 0.00658778 0)
(8.37013 0.00512738 0)
(8.37436 0.00343549 0)
(8.37872 0.00152487 0)
(8.38322 -0.000592873 0)
(8.38786 -0.00290718 0)
(8.39267 -0.00540844 0)
(8.39765 -0.00808792 0)
(8.40283 -0.0109378 0)
(8.40823 -0.0139516 0)
(8.41388 -0.0171243 0)
(8.41982 -0.020453 0)
(8.42609 -0.0239383 0)
(8.43274 -0.0275851 0)
(8.43981 -0.031405 0)
(8.44737 -0.0354179 0)
(8.45549 -0.0396553 0)
(8.46422 -0.0441626 0)
(8.47365 -0.049003 0)
(8.48386 -0.0542593 0)
(8.49486 -0.0600335 0)
(8.33305 0.000916945 0)
(8.33356 0.00269692 0)
(8.33469 0.00432034 0)
(8.33635 0.00569482 0)
(8.33844 0.00677154 0)
(8.34089 0.00752749 0)
(8.34365 0.00795267 0)
(8.34666 0.00805017 0)
(8.34987 0.00783064 0)
(8.35327 0.00730741 0)
(8.35683 0.00649487 0)
(8.36052 0.00540747 0)
(8.36435 0.00405884 0)
(8.3683 0.00246152 0)
(8.37237 0.000626781 0)
(8.37658 -0.0014353 0)
(8.38091 -0.00371588 0)
(8.3854 -0.00620731 0)
(8.39004 -0.00890309 0)
(8.39486 -0.011798 0)
(8.39987 -0.0148883 0)
(8.4051 -0.0181719 0)
(8.41058 -0.021649 0)
(8.41634 -0.0253228 0)
(8.42241 -0.0292004 0)
(8.42884 -0.033294 0)
(8.43567 -0.0376229 0)
(8.44295 -0.0422147 0)
(8.45074 -0.0471077 0)
(8.45909 -0.0523527 0)
(8.46804 -0.0580158 0)
(8.47766 -0.0641786 0)
(8.48794 -0.0709343 0)
(8.33304 0.00077583 0)
(8.33353 0.00226783 0)
(8.3346 0.00360788 0)
(8.33615 0.00472025 0)
(8.3381 0.00556034 0)
(8.3404 0.00610434 0)
(8.343 0.0063404 0)
(8.34584 0.00626765 0)
(8.34889 0.0058923 0)
(8.35212 0.00522362 0)
(8.35551 0.00427226 0)
(8.35904 0.00304921 0)
(8.3627 0.00156497 0)
(8.36648 -0.000170857 0)
(8.37038 -0.00214974 0)
(8.37442 -0.00436435 0)
(8.37858 -0.00680861 0)
(8.38289 -0.00947774 0)
(8.38735 -0.0123684 0)
(8.39198 -0.0154786 0)
(8.3968 -0.0188085 0)
(8.40182 -0.0223602 0)
(8.40709 -0.0261385 0)
(8.41261 -0.0301516 0)
(8.41843 -0.034412 0)
(8.42458 -0.0389378 0)
(8.4311 -0.0437534 0)
(8.43803 -0.0488916 0)
(8.4454 -0.0543944 0)
(8.45326 -0.0603147 0)
(8.46163 -0.0667175 0)
(8.47056 -0.0736798 0)
(8.48003 -0.0812839 0)
(8.33304 0.000638067 0)
(8.3335 0.00185298 0)
(8.3345 0.00292252 0)
(8.33595 0.00378253 0)
(8.33777 0.00439252 0)
(8.33993 0.00472843 0)
(8.34238 0.00477689 0)
(8.34506 0.00453399 0)
(8.34795 0.00400216 0)
(8.35101 0.00318703 0)
(8.35422 0.00209584 0)
(8.35758 0.000736323 0)
(8.36106 -0.000884026 0)
(8.36467 -0.00275844 0)
(8.36839 -0.00488112 0)
(8.37224 -0.00724742 0)
(8.37621 -0.00985399 0)
(8.38032 -0.0126989 0)
(8.38458 -0.0157816 0)
(8.389 -0.0191036 0)
(8.39359 -0.0226681 0)
(8.39838 -0.026481 0)
(8.40339 -0.0305512 0)
(8.40864 -0.0348908 0)
(8.41416 -0.0395166 0)
(8.41997 -0.0444505 0)
(8.42611 -0.0497207 0)
(8.43261 -0.0553624 0)
(8.43949 -0.0614189 0)
(8.44678 -0.0679422 0)
(8.4545 -0.0749937 0)
(8.46266 -0.0826439 0)
(8.47125 -0.0909626 0)
(8.33304 0.000504512 0)
(8.33347 0.00145292 0)
(8.3344 0.0022637 0)
(8.33576 0.00288086 0)
(8.33746 0.00326755 0)
(8.33949 0.00339987 0)
(8.34178 0.00326333 0)
(8.34431 0.00285155 0)
(8.34703 0.00216385 0)
(8.34992 0.00120265 0)
(8.35297 -2.79515e-05 0)
(8.35614 -0.00152323 0)
(8.35944 -0.00327857 0)
(8.36286 -0.0052899 0)
(8.3664 -0.00755409 0)
(8.37005 -0.0100691 0)
(8.37381 -0.0128341 0)
(8.37771 -0.0158499 0)
(8.38174 -0.0191188 0)
(8.38592 -0.0226449 0)
(8.39026 -0.0264346 0)
(8.39478 -0.0304968 0)
(8.39949 -0.0348435 0)
(8.40442 -0.0394902 0)
(8.40959 -0.0444563 0)
(8.41502 -0.0497663 0)
(8.42072 -0.0554501 0)
(8.42673 -0.0615437 0)
(8.43305 -0.0680894 0)
(8.43971 -0.0751365 0)
(8.4467 -0.082741 0)
(8.45404 -0.0909653 0)
(8.46169 -0.099867 0)
(8.33304 0.000375645 0)
(8.33344 0.00106801 0)
(8.33431 0.00163107 0)
(8.33557 0.00201475 0)
(8.33717 0.00218534 0)
(8.33906 0.00211937 0)
(8.34121 0.00180152 0)
(8.34358 0.00122349 0)
(8.34614 0.000381973 0)
(8.34886 -0.00072341 0)
(8.35173 -0.0020914 0)
(8.35473 -0.00372006 0)
(8.35784 -0.00560744 0)
(8.36106 -0.00775208 0)
(8.3644 -0.0101533 0)
(8.36783 -0.0128116 0)
(8.37138 -0.0157286 0)
(8.37504 -0.0189074 0)
(8.37883 -0.0223528 0)
(8.38274 -0.0260716 0)
(8.3868 -0.0300725 0)
(8.39102 -0.034367 0)
(8.3954 -0.0389693 0)
(8.39997 -0.043897 0)
(8.40474 -0.0491715 0)
(8.40973 -0.0548184 0)
(8.41495 -0.0608677 0)
(8.42041 -0.0673546 0)
(8.42612 -0.0743192 0)
(8.43209 -0.0818063 0)
(8.43831 -0.0898655 0)
(8.44478 -0.0985507 0)
(8.45147 -0.107908 0)
(8.33304 0.000251736 0)
(8.33341 0.000698523 0)
(8.33422 0.00102446 0)
(8.3354 0.00118399 0)
(8.33688 0.001146 0)
(8.33865 0.000887665 0)
(8.34066 0.000393109 0)
(8.34288 -0.000347477 0)
(8.34527 -0.00133957 0)
(8.34783 -0.00258596 0)
(8.35052 -0.00408793 0)
(8.35333 -0.00584604 0)
(8.35625 -0.00786084 0)
(8.35927 -0.0101333 0)
(8.36239 -0.012665 0)
(8.3656 -0.0154587 0)
(8.36891 -0.0185184 0)
(8.37232 -0.0218492 0)
(8.37584 -0.0254582 0)
(8.37947 -0.0293541 0)
(8.38322 -0.0335477 0)
(8.3871 -0.0380523 0)
(8.39112 -0.0428838 0)
(8.3953 -0.0480609 0)
(8.39963 -0.0536058 0)
(8.40414 -0.059544 0)
(8.40883 -0.0659048 0)
(8.4137 -0.0727212 0)
(8.41876 -0.0800298 0)
(8.424 -0.0878704 0)
(8.42942 -0.0962856 0)
(8.43499 -0.105321 0)
(8.44069 -0.115011 0)
(8.33303 0.000132941 0)
(8.33338 0.000344644 0)
(8.33414 0.000443873 0)
(8.33523 0.00038862 0)
(8.33661 0.000150101 0)
(8.33825 -0.000293766 0)
(8.34013 -0.000959151 0)
(8.3422 -0.00185701 0)
(8.34443 -0.0029946 0)
(8.34682 -0.00437682 0)
(8.34933 -0.00600718 0)
(8.35195 -0.00788856 0)
(8.35467 -0.0100238 0)
(8.35748 -0.0124159 0)
(8.36037 -0.0150689 0)
(8.36335 -0.0179875 0)
(8.36641 -0.0211774 0)
(8.36955 -0.024646 0)
(8.37278 -0.0284018 0)
(8.3761 -0.0324555 0)
(8.37952 -0.0368191 0)
(8.38304 -0.0415072 0)
(8.38667 -0.0465366 0)
(8.39042 -0.0519264 0)
(8.39429 -0.0576986 0)
(8.39828 -0.063878 0)
(8.4024 -0.0704918 0)
(8.40665 -0.0775702 0)
(8.41102 -0.0851457 0)
(8.41551 -0.0932526 0)
(8.4201 -0.101926 0)
(8.42476 -0.111204 0)
(8.42948 -0.121111 0)
(8.33303 1.93634e-05 0)
(8.33336 6.55163e-06 0)
(8.33406 -0.000110652 0)
(8.33507 -0.000371354 0)
(8.33635 -0.000802366 0)
(8.33788 -0.00142487 0)
(8.33961 -0.00225509 0)
(8.34154 -0.00330475 0)
(8.34362 -0.00458248 0)
(8.34583 -0.00609489 0)
(8.34816 -0.00784742 0)
(8.35058 -0.00984493 0)
(8.3531 -0.0120923 0)
(8.35569 -0.0145945 0)
(8.35835 -0.0173575 0)
(8.36108 -0.0203878 0)
(8.36388 -0.0236928 0)
(8.36674 -0.0272816 0)
(8.36966 -0.0311641 0)
(8.37265 -0.0353519 0)
(8.37572 -0.0398585 0)
(8.37885 -0.0446989 0)
(8.38206 -0.04989 0)
(8.38536 -0.055451 0)
(8.38873 -0.0614029 0)
(8.39218 -0.0677687 0)
(8.39571 -0.0745734 0)
(8.39931 -0.0818437 0)
(8.40297 -0.0896075 0)
(8.40669 -0.0978935 0)
(8.41043 -0.106731 0)
(8.41419 -0.116148 0)
(8.41793 -0.126163 0)
(8.33303 -8.88668e-05 0)
(8.33333 -0.000315404 0)
(8.33398 -0.000638464 0)
(8.33491 -0.00109454 0)
(8.3361 -0.00170856 0)
(8.33751 -0.00250055 0)
(8.33912 -0.00348657 0)
(8.34089 -0.00467897 0)
(8.34282 -0.00608756 0)
(8.34486 -0.0077205 0)
(8.34701 -0.00958499 0)
(8.34924 -0.0116877 0)
(8.35154 -0.0140353 0)
(8.35391 -0.0166347 0)
(8.35633 -0.0194932 0)
(8.35881 -0.0226191 0)
(8.36132 -0.0260212 0)
(8.36389 -0.0297097 0)
(8.36649 -0.0336956 0)
(8.36914 -0.0379913 0)
(8.37182 -0.0426108 0)
(8.37455 -0.0475691 0)
(8.37733 -0.0528831 0)
(8.38014 -0.0585708 0)
(8.38299 -0.0646521 0)
(8.38588 -0.0711477 0)
(8.3888 -0.0780799 0)
(8.39174 -0.0854716 0)
(8.39468 -0.0933461 0)
(8.39762 -0.101727 0)
(8.40053 -0.110636 0)
(8.40338 -0.120096 0)
(8.40617 -0.130116 0)
(8.33303 -0.000191671 0)
(8.3333 -0.000621246 0)
(8.3339 -0.00114041 0)
(8.33476 -0.00178365 0)
(8.33585 -0.00257406 0)
(8.33716 -0.00353029 0)
(8.33864 -0.00466765 0)
(8.34028 -0.00599843 0)
(8.34204 -0.00753292 0)
(8.34392 -0.00928029 0)
(8.34588 -0.011249 0)
(8.34791 -0.0134474 0)
(8.35 -0.0158836 0)
(8.35214 -0.0185661 0)
(8.35432 -0.0215038 0)
(8.35652 -0.0247063 0)
(8.35876 -0.0281838 0)
(8.36101 -0.0319472 0)
(8.36328 -0.0360085 0)
(8.36557 -0.0403807 0)
(8.36786 -0.0450776 0)
(8.37017 -0.0501142 0)
(8.37249 -0.0555066 0)
(8.37481 -0.0612718 0)
(8.37713 -0.0674276 0)
(8.37944 -0.0739926 0)
(8.38173 -0.0809858 0)
(8.384 -0.0884264 0)
(8.38622 -0.0963333 0)
(8.38838 -0.104725 0)
(8.39046 -0.113617 0)
(8.39244 -0.123027 0)
(8.39429 -0.132957 0)
(8.33302 -0.000288767 0)
(8.33328 -0.00090928 0)
(8.33382 -0.00161165 0)
(8.33461 -0.00242789 0)
(8.33561 -0.00337893 0)
(8.33681 -0.00448224 0)
(8.33817 -0.00575295 0)
(8.33967 -0.00720389 0)
(8.34128 -0.00884635 0)
(8.34299 -0.0106907 0)
(8.34477 -0.0127467 0)
(8.34661 -0.0150239 0)
(8.34848 -0.0175318 0)
(8.35039 -0.02028 0)
(8.35232 -0.0232786 0)
(8.35425 -0.026538 0)
(8.35619 -0.030069 0)
(8.35812 -0.0338834 0)
(8.36005 -0.0379933 0)
(8.36197 -0.0424117 0)
(8.36386 -0.0471522 0)
(8.36574 -0.0522292 0)
(8.36759 -0.0576576 0)
(8.36941 -0.0634529 0)
(8.37118 -0.0696309 0)
(8.37291 -0.0762077 0)
(8.37457 -0.0831992 0)
(8.37616 -0.0906207 0)
(8.37767 -0.0984871 0)
(8.37906 -0.106812 0)
(8.38033 -0.115606 0)
(8.38145 -0.124882 0)
(8.3824 -0.134637 0)
(8.33302 -0.000380377 0)
(8.33325 -0.00118308 0)
(8.33375 -0.00206512 0)
(8.33447 -0.00305717 0)
(8.33539 -0.00417684 0)
(8.33649 -0.00543779 0)
(8.33773 -0.00685208 0)
(8.33909 -0.0084307 0)
(8.34056 -0.0101844 0)
(8.3421 -0.0121239 0)
(8.3437 -0.0142601 0)
(8.34534 -0.0166041 0)
(8.347 -0.0191669 0)
(8.34867 -0.0219598 0)
(8.35034 -0.024994 0)
(8.35199 -0.0282813 0)
(8.35363 -0.0318336 0)
(8.35524 -0.035663 0)
(8.35682 -0.0397822 0)
(8.35835 -0.044204 0)
(8.35984 -0.0489418 0)
(8.36128 -0.0540091 0)
(8.36266 -0.0594196 0)
(8.36396 -0.0651872 0)
(8.36519 -0.0713256 0)
(8.36633 -0.0778482 0)
(8.36737 -0.084768 0)
(8.3683 -0.0920969 0)
(8.3691 -0.0998459 0)
(8.36975 -0.108024 0)
(8.37023 -0.116639 0)
(8.37053 -0.125697 0)
(8.37062 -0.135192 0)
(8.33302 -0.000464285 0)
(8.33322 -0.00142682 0)
(8.33367 -0.00245574 0)
(8.33431 -0.00358003 0)
(8.33514 -0.00481725 0)
(8.33613 -0.00618273 0)
(8.33726 -0.00769048 0)
(8.3385 -0.0093528 0)
(8.33983 -0.0111811 0)
(8.34122 -0.0131864 0)
(8.34264 -0.0153797 0)
(8.34409 -0.0177722 0)
(8.34554 -0.020375 0)
(8.34698 -0.0231993 0)
(8.3484 -0.0262567 0)
(8.34978 -0.0295589 0)
(8.35112 -0.0331177 0)
(8.3524 -0.0369451 0)
(8.35363 -0.0410535 0)
(8.35478 -0.0454551 0)
(8.35586 -0.0501625 0)
(8.35686 -0.0551882 0)
(8.35776 -0.0605443 0)
(8.35855 -0.0662431 0)
(8.35924 -0.0722962 0)
(8.3598 -0.0787144 0)
(8.36023 -0.085508 0)
(8.3605 -0.0926859 0)
(8.36061 -0.100255 0)
(8.36054 -0.108223 0)
(8.36027 -0.116591 0)
(8.35978 -0.125363 0)
(8.35905 -0.134531 0)
(8.33302 -0.000546563 0)
(8.33321 -0.00168812 0)
(8.33362 -0.00291628 0)
(8.33422 -0.00425158 0)
(8.33497 -0.00569488 0)
(8.33587 -0.00724693 0)
(8.33689 -0.00891298 0)
(8.338 -0.010702 0)
(8.33918 -0.0126256 0)
(8.3404 -0.0146973 0)
(8.34165 -0.0169314 0)
(8.3429 -0.0193423 0)
(8.34413 -0.0219443 0)
(8.34533 -0.0247513 0)
(8.34649 -0.027777 0)
(8.34759 -0.0310346 0)
(8.34863 -0.0345373 0)
(8.34959 -0.0382975 0)
(8.35046 -0.0423279 0)
(8.35123 -0.0466404 0)
(8.3519 -0.051247 0)
(8.35245 -0.0561589 0)
(8.35289 -0.0613873 0)
(8.35318 -0.0669423 0)
(8.35333 -0.0728337 0)
(8.35333 -0.0790699 0)
(8.35316 -0.0856585 0)
(8.3528 -0.0926056 0)
(8.35225 -0.0999158 0)
(8.35149 -0.107592 0)
(8.35049 -0.115634 0)
(8.34926 -0.124042 0)
(8.34777 -0.132806 0)
(8.33301 -0.00060052 0)
(8.33313 -0.00180207 0)
(8.33344 -0.00304664 0)
(8.33394 -0.00437731 0)
(8.33461 -0.00581626 0)
(8.33543 -0.00737726 0)
(8.33637 -0.0090687 0)
(8.3374 -0.0108965 0)
(8.33847 -0.0128669 0)
(8.33958 -0.0149881 0)
(8.34068 -0.0172692 0)
(8.34176 -0.0197206 0)
(8.34281 -0.0223537 0)
(8.34379 -0.02518 0)
(8.34471 -0.0282116 0)
(8.34555 -0.0314606 0)
(8.34629 -0.034939 0)
(8.34693 -0.0386587 0)
(8.34745 -0.0426314 0)
(8.34785 -0.0468685 0)
(8.34811 -0.0513808 0)
(8.34823 -0.0561787 0)
(8.3482 -0.0612719 0)
(8.348 -0.0666692 0)
(8.34763 -0.0723786 0)
(8.34707 -0.0784067 0)
(8.34632 -0.0847591 0)
(8.34536 -0.0914399 0)
(8.34417 -0.0984512 0)
(8.34274 -0.105794 0)
(8.34107 -0.113466 0)
(8.33913 -0.121465 0)
(8.33692 -0.12978 0)
(8.33304 -0.000718957 0)
(8.33324 -0.00226809 0)
(8.33358 -0.00395358 0)
(8.33405 -0.00573201 0)
(8.33463 -0.00755375 0)
(8.33533 -0.00940183 0)
(8.33613 -0.0112824 0)
(8.33699 -0.0132126 0)
(8.3379 -0.0152142 0)
(8.33882 -0.0173099 0)
(8.33973 -0.0195222 0)
(8.34061 -0.0218717 0)
(8.34144 -0.0243778 0)
(8.3422 -0.0270578 0)
(8.34286 -0.0299278 0)
(8.34343 -0.0330025 0)
(8.34388 -0.0362953 0)
(8.3442 -0.0398188 0)
(8.34439 -0.0435845 0)
(8.34443 -0.0476031 0)
(8.3443 -0.0518844 0)
(8.34401 -0.0564374 0)
(8.34353 -0.0612702 0)
(8.34287 -0.0663896 0)
(8.342 -0.0718017 0)
(8.34092 -0.0775109 0)
(8.33962 -0.0835206 0)
(8.33809 -0.0898324 0)
(8.3363 -0.0964465 0)
(8.33426 -0.103361 0)
(8.33195 -0.110573 0)
(8.32936 -0.118077 0)
(8.32648 -0.125861 0)
(8.33294 -0.000565509 0)
(8.33282 -0.00160257 0)
(8.33291 -0.00271377 0)
(8.33326 -0.00402777 0)
(8.33385 -0.00556212 0)
(8.3346 -0.0072901 0)
(8.33546 -0.00917682 0)
(8.33636 -0.0111967 0)
(8.33727 -0.0133366 0)
(8.33816 -0.0155926 0)
(8.339 -0.0179674 0)
(8.33976 -0.0204682 0)
(8.34043 -0.0231051 0)
(8.341 -0.0258899 0)
(8.34145 -0.0288351 0)
(8.34176 -0.0319536 0)
(8.34193 -0.035258 0)
(8.34194 -0.0387603 0)
(8.34179 -0.0424722 0)
(8.34146 -0.0464045 0)
(8.34095 -0.050567 0)
(8.34024 -0.0549687 0)
(8.33932 -0.0596175 0)
(8.33819 -0.06452 0)
(8.33684 -0.0696817 0)
(8.33525 -0.0751065 0)
(8.33341 -0.080797 0)
(8.33132 -0.0867544 0)
(8.32897 -0.0929778 0)
(8.32634 -0.099465 0)
(8.32343 -0.106212 0)
(8.32022 -0.113213 0)
(8.31672 -0.120457 0)
(8.33315 -0.00113023 0)
(8.33355 -0.00369546 0)
(8.33381 -0.00638138 0)
(8.33401 -0.0089057 0)
(8.33429 -0.011178 0)
(8.3347 -0.0132413 0)
(8.33523 -0.0151656 0)
(8.33584 -0.017018 0)
(8.33649 -0.0188563 0)
(8.33715 -0.0207279 0)
(8.33777 -0.0226717 0)
(8.33833 -0.0247193 0)
(8.33881 -0.0268961 0)
(8.33917 -0.0292228 0)
(8.3394 -0.0317164 0)
(8.33949 -0.0343915 0)
(8.33941 -0.0372602 0)
(8.33916 -0.0403333 0)
(8.33872 -0.04362 0)
(8.33808 -0.0471284 0)
(8.33723 -0.0508654 0)
(8.33617 -0.054837 0)
(8.33487 -0.059048 0)
(8.33333 -0.0635022 0)
(8.33155 -0.0682023 0)
(8.32951 -0.0731495 0)
(8.32721 -0.078344 0)
(8.32463 -0.0837844 0)
(8.32177 -0.0894682 0)
(8.31862 -0.095391 0)
(8.31518 -0.101547 0)
(8.31143 -0.10793 0)
(8.30738 -0.114527 0)
(8.33267 0.00023537 0)
(8.33178 0.00086536 0)
(8.33154 0.000816737 0)
(8.33199 -0.000176569 0)
(8.3328 -0.00189535 0)
(8.33374 -0.00404449 0)
(8.3347 -0.0064186 0)
(8.33563 -0.00891096 0)
(8.33647 -0.0114674 0)
(8.33721 -0.0140622 0)
(8.33783 -0.016689 0)
(8.33831 -0.0193537 0)
(8.33864 -0.0220687 0)
(8.33881 -0.0248498 0)
(8.3388 -0.0277138 0)
(8.33862 -0.0306777 0)
(8.33824 -0.0337578 0)
(8.33767 -0.036969 0)
(8.33688 -0.0403253 0)
(8.33587 -0.0438389 0)
(8.33464 -0.0475209 0)
(8.33317 -0.0513806 0)
(8.33145 -0.055426 0)
(8.32947 -0.0596634 0)
(8.32724 -0.0640976 0)
(8.32473 -0.0687322 0)
(8.32195 -0.0735687 0)
(8.31888 -0.0786075 0)
(8.31553 -0.0838472 0)
(8.31188 -0.0892851 0)
(8.30793 -0.0949169 0)
(8.30367 -0.100737 0)
(8.29912 -0.106735 0)
(8.33352 -0.0023021 0)
(8.33432 -0.0079853 0)
(8.33384 -0.0133708 0)
(8.33303 -0.0171106 0)
(8.33254 -0.0196288 0)
(8.3325 -0.0214301 0)
(8.33277 -0.0228178 0)
(8.33321 -0.0239935 0)
(8.33374 -0.0250929 0)
(8.33427 -0.0262077 0)
(8.33476 -0.0273998 0)
(8.33516 -0.0287096 0)
(8.33543 -0.0301636 0)
(8.33554 -0.0317796 0)
(8.33548 -0.0335696 0)
(8.33522 -0.0355421 0)
(8.33475 -0.0377031 0)
(8.33406 -0.040057 0)
(8.33314 -0.0426074 0)
(8.33198 -0.045357 0)
(8.33056 -0.0483076 0)
(8.32889 -0.0514607 0)
(8.32694 -0.0548169 0)
(8.32472 -0.0583763 0)
(8.32222 -0.0621382 0)
(8.31943 -0.066101 0)
(8.31635 -0.0702622 0)
(8.31297 -0.0746184 0)
(8.30928 -0.0791653 0)
(8.3053 -0.0838972 0)
(8.301 -0.0888078 0)
(8.29639 -0.0938899 0)
(8.29148 -0.0991317 0)
(8.33164 0.00345902 0)
(8.32839 0.00956889 0)
(8.32846 0.0122849 0)
(8.33048 0.0116215 0)
(8.33237 0.00878402 0)
(8.33388 0.00520341 0)
(8.33509 0.00144881 0)
(8.33605 -0.00228297 0)
(8.33677 -0.00588788 0)
(8.33728 -0.00932406 0)
(8.33759 -0.0125935 0)
(8.33772 -0.0157189 0)
(8.33765 -0.0187304 0)
(8.3374 -0.0216609 0)
(8.33696 -0.0245424 0)
(8.33632 -0.0274048 0)
(8.33547 -0.0302752 0)
(8.33441 -0.0331774 0)
(8.33313 -0.0361325 0)
(8.33162 -0.0391585 0)
(8.32987 -0.0422708 0)
(8.32786 -0.0454825 0)
(8.3256 -0.0488045 0)
(8.32307 -0.0522456 0)
(8.32027 -0.0558126 0)
(8.31719 -0.0595108 0)
(8.31383 -0.0633435 0)
(8.31018 -0.0673127 0)
(8.30623 -0.0714187 0)
(8.30199 -0.0756607 0)
(8.29746 -0.0800362 0)
(8.29263 -0.0845421 0)
(8.28751 -0.0891709 0)
(8.33426 -0.00668596 0)
(8.33437 -0.0214744 0)
(8.33013 -0.0313725 0)
(8.32574 -0.0359811 0)
(8.3235 -0.0373099 0)
(8.32321 -0.0373054 0)
(8.32374 -0.036753 0)
(8.32463 -0.0360118 0)
(8.3257 -0.0353156 0)
(8.32682 -0.0347921 0)
(8.32788 -0.034499 0)
(8.32883 -0.0344587 0)
(8.32963 -0.034676 0)
(8.33023 -0.0351463 0)
(8.33063 -0.0358603 0)
(8.3308 -0.0368071 0)
(8.33074 -0.0379761 0)
(8.33042 -0.0393573 0)
(8.32984 -0.0409418 0)
(8.329 -0.0427216 0)
(8.32787 -0.04469 0)
(8.32647 -0.0468407 0)
(8.32478 -0.0491684 0)
(8.32279 -0.0516679 0)
(8.32051 -0.0543343 0)
(8.31792 -0.0571628 0)
(8.31504 -0.0601484 0)
(8.31185 -0.0632858 0)
(8.30835 -0.0665696 0)
(8.30455 -0.0699938 0)
(8.30045 -0.0735519 0)
(8.29605 -0.0772375 0)
(8.29136 -0.0810404 0)
(8.32885 0.0224764 0)
(8.3223 0.0424124 0)
(8.32646 0.0434919 0)
(8.33278 0.0372842 0)
(8.33665 0.0297492 0)
(8.33866 0.0222543 0)
(8.34016 0.0151626 0)
(8.34151 0.00870252 0)
(8.34277 0.00293229 0)
(8.344 -0.00219804 0)
(8.34522 -0.00676881 0)
(8.34642 -0.010864 0)
(8.34757 -0.0145649 0)
(8.34865 -0.0179459 0)
(8.34963 -0.0210726 0)
(8.35047 -0.0240016 0)
(8.35117 -0.0267816 0)
(8.35169 -0.029454 0)
(8.35203 -0.0320537 0)
(8.35215 -0.0346108 0)
(8.35206 -0.0371503 0)
(8.35173 -0.0396934 0)
(8.35117 -0.0422582 0)
(8.35036 -0.0448596 0)
(8.3493 -0.04751 0)
(8.34799 -0.0502197 0)
(8.34642 -0.052997 0)
(8.34459 -0.0558484 0)
(8.34252 -0.058779 0)
(8.34018 -0.0617922 0)
(8.33761 -0.0648909 0)
(8.33479 -0.0680763 0)
(8.33173 -0.0713474 0)
(8.32434 -0.0381653 0)
(8.29376 -0.0687524 0)
(8.27167 -0.0725344 0)
(8.26619 -0.0698879 0)
(8.27325 -0.066084 0)
(8.28596 -0.0616915 0)
(8.30074 -0.0574043 0)
(8.31605 -0.0536458 0)
(8.33104 -0.0504924 0)
(8.34526 -0.0479272 0)
(8.3585 -0.0459139 0)
(8.37071 -0.0443999 0)
(8.38188 -0.0433278 0)
(8.39207 -0.0426451 0)
(8.40133 -0.0423053 0)
(8.40972 -0.042269 0)
(8.4173 -0.0425028 0)
(8.42412 -0.0429791 0)
(8.43024 -0.0436754 0)
(8.43571 -0.0445729 0)
(8.44057 -0.0456564 0)
(8.44485 -0.0469133 0)
(8.44858 -0.0483329 0)
(8.45179 -0.0499066 0)
(8.45451 -0.0516266 0)
(8.45675 -0.0534861 0)
(8.45854 -0.0554791 0)
(8.45987 -0.0575997 0)
(8.46078 -0.0598426 0)
(8.46125 -0.0622021 0)
(8.46131 -0.0646732 0)
(8.46096 -0.0672493 0)
(8.46019 -0.0699253 0)