/*--------------------------------*- C++ -*----------------------------------*\
| =========                 |                                                 |
| \\      /  F ield         | OpenFOAM: The Open Source CFD Toolbox           |
|  \\    /   O peration     | Version:  2.1.1                                 |
|   \\  /    A nd           | Web:      www.OpenFOAM.org                      |
|    \\/     M anipulation  |                                                 |
\*---------------------------------------------------------------------------*/
FoamFile
{
    version     2.0;
    format      ascii;
    class       volScalarField;
    location    "0.015";
    object      epsilon;
}
// * * * * * * * * * * * * * * * * * * * * * * * * * * * * * * * * * * * * * //

dimensions      [0 2 -3 0 0 0 0];

internalField   nonuniform List<scalar> 
6820
(
151.447
203.147
260.731
321.769
383.68
443.88
500.12
550.731
594.7
631.621
661.597
685.095
702.812
715.564
724.195
729.516
732.275
733.134
732.664
731.353
729.6
727.736
726.068
724.608
723.412
722.548
722.057
721.971
722.265
723.131
723.571
728.557
712.391
11.7449
21.4056
29.9043
38.5357
47.4112
56.2709
64.8717
73.0082
80.5151
87.2807
93.2462
98.3994
102.764
106.386
109.328
111.654
113.426
114.703
115.537
115.972
116.051
115.822
115.345
114.784
114.252
113.791
113.368
112.941
112.468
111.896
111.196
110.131
109.201
5.8377
7.51855
9.21124
10.8168
12.3308
13.7619
15.1062
16.3592
17.5189
18.5844
19.5569
20.4393
21.236
21.9527
22.5957
23.1718
23.6875
24.1493
24.5634
24.9354
25.2709
25.5747
25.8494
26.126
26.3764
26.5499
26.6456
26.6717
26.6352
26.5367
26.377
26.1231
25.8241
5.24218
5.56004
6.0049
6.49498
6.98901
7.46788
7.92258
8.34894
8.74537
9.11176
9.4489
9.75813
10.0411
10.2997
10.5358
10.7514
10.9484
11.1284
11.2933
11.4444
11.5828
11.7117
11.8315
11.9316
12.0115
12.0711
12.1101
12.1287
12.1275
12.1061
12.0651
11.9982
11.9161
5.17348
5.18682
5.26833
5.39807
5.55698
5.73067
5.9093
6.08647
6.25817
6.42199
6.57655
6.72115
6.85555
6.97979
7.09413
7.19895
7.29471
7.38193
7.46109
7.53298
7.59824
7.656
7.70659
7.74996
7.78599
7.81459
7.83569
7.84927
7.85535
7.85375
7.84469
7.82642
7.80163
5.16876
5.12123
5.0959
5.09471
5.11531
5.15308
5.20302
5.26076
5.32284
5.3867
5.45044
5.51274
5.57268
5.62961
5.68316
5.73307
5.77924
5.82168
5.86051
5.89562
5.92706
5.95491
5.97929
6.00029
6.018
6.0325
6.04388
6.05218
6.05748
6.05974
6.05908
6.05487
6.04806
5.16887
5.11167
5.06117
5.0197
4.98853
4.96773
4.95637
4.953
4.95601
4.96387
4.97522
4.98893
5.00408
5.01996
5.03598
5.05172
5.06688
5.08121
5.09448
5.10658
5.11743
5.127
5.13532
5.1424
5.1483
5.15312
5.15691
5.15976
5.16175
5.16291
5.16334
5.16281
5.16179
5.16901
5.1106
5.05512
5.00341
4.9563
4.91436
4.87783
4.84661
4.82036
4.79855
4.78061
4.76594
4.75399
4.74423
4.73622
4.72961
4.72403
4.71922
4.71495
4.71107
4.70744
4.70397
4.70063
4.69739
4.69428
4.69134
4.68863
4.68621
4.68415
4.6825
4.68137
4.68072
4.68087
5.16903
5.11052
5.0543
5.00052
4.9494
4.90116
4.85602
4.81411
4.77547
4.74001
4.70761
4.67806
4.65114
4.62659
4.60418
4.58366
4.56482
4.54747
4.53143
4.51658
4.50278
4.48998
4.4781
4.46713
4.45708
4.44798
4.43986
4.4328
4.42684
4.42205
4.41852
4.41635
4.41578
5.16903
5.11052
5.05419
5.00004
4.94806
4.89827
4.8507
4.80538
4.76236
4.72163
4.68317
4.64693
4.61286
4.58085
4.5508
4.52261
4.49617
4.47137
4.44813
4.42636
4.40599
4.38697
4.36928
4.35291
4.33788
4.32421
4.31197
4.30121
4.29198
4.28435
4.27842
4.27434
4.27235
5.16903
5.11051
5.05417
4.99996
4.94783
4.8977
4.84953
4.80329
4.75895
4.71649
4.67587
4.63708
4.60008
4.56484
4.5313
4.49944
4.46919
4.44052
4.41338
4.38774
4.36358
4.34087
4.31962
4.29984
4.28157
4.26487
4.24977
4.23635
4.22467
4.2148
4.20685
4.20098
4.19746
5.16903
5.11051
5.05416
4.99993
4.94776
4.89756
4.84926
4.80279
4.7581
4.71513
4.67385
4.63421
4.59617
4.55971
4.5248
4.4914
4.45949
4.42906
4.40007
4.37253
4.34643
4.32177
4.29857
4.27687
4.25672
4.23817
4.22128
4.20612
4.19276
4.18128
4.17177
4.16442
4.15948
5.16903
5.1105
5.05415
4.99992
4.94773
4.8975
4.84916
4.80263
4.75784
4.71473
4.67325
4.63334
4.59497
4.55809
4.52268
4.48871
4.45615
4.42498
4.39521
4.36682
4.33982
4.31422
4.29005
4.26735
4.24617
4.22657
4.20862
4.19237
4.17791
4.16529
4.15462
4.14607
4.13989
5.16903
5.1105
5.05414
4.9999
4.9477
4.89746
4.84909
4.80253
4.7577
4.71454
4.67298
4.63298
4.59449
4.55746
4.52187
4.48767
4.45486
4.4234
4.39329
4.36453
4.33712
4.31107
4.28642
4.26319
4.24145
4.22124
4.20263
4.18568
4.17045
4.157
4.14543
4.13589
4.12861
5.16903
5.1105
5.05413
4.99989
4.94768
4.89742
4.84904
4.80245
4.75759
4.71439
4.6728
4.63274
4.59419
4.55709
4.5214
4.4871
4.45416
4.42255
4.39228
4.36332
4.33569
4.3094
4.28446
4.26092
4.23882
4.2182
4.19914
4.18167
4.16585
4.15173
4.13939
4.12897
4.12068
5.16903
5.1105
5.05413
4.99988
4.94766
4.89739
4.84899
4.80238
4.75749
4.71426
4.67263
4.63253
4.59393
4.55677
4.52102
4.48664
4.45361
4.4219
4.39151
4.36242
4.33463
4.30815
4.28301
4.25922
4.23684
4.2159
4.19646
4.17855
4.16221
4.14749
4.13445
4.12322
4.11398
5.16903
5.1105
5.05413
4.99987
4.94764
4.89736
4.84894
4.80231
4.7574
4.71414
4.67247
4.63234
4.59369
4.55647
4.52066
4.48621
4.4531
4.4213
4.3908
4.36159
4.33366
4.30702
4.28169
4.25768
4.23504
4.21381
4.19401
4.17569
4.15887
4.14358
4.12988
4.11787
4.10772
5.16903
5.1105
5.05413
4.99987
4.94763
4.89734
4.8489
4.80226
4.75732
4.71403
4.67233
4.63215
4.59345
4.55619
4.52031
4.48579
4.4526
4.42071
4.39011
4.36078
4.33271
4.30591
4.2804
4.25618
4.23329
4.21176
4.19163
4.17291
4.15562
4.13979
4.12545
4.11268
4.10166
5.16903
5.1105
5.05413
4.99986
4.94762
4.89732
4.84887
4.8022
4.75724
4.71393
4.67219
4.63197
4.59323
4.55591
4.51998
4.48539
4.45212
4.42014
4.38943
4.35998
4.33178
4.30482
4.27912
4.2547
4.23156
4.20975
4.18928
4.17018
4.15244
4.13608
4.12112
4.10764
4.09579
5.16903
5.1105
5.05413
4.99986
4.94761
4.8973
4.84884
4.80215
4.75717
4.71383
4.67206
4.63181
4.59302
4.55565
4.51965
4.48499
4.45165
4.41958
4.38876
4.35919
4.33086
4.30375
4.27787
4.25324
4.22986
4.20777
4.18698
4.1675
4.14933
4.13246
4.11691
4.10275
4.09011
5.16903
5.1105
5.05413
4.99986
4.9476
4.89728
4.84881
4.80211
4.75711
4.71374
4.67194
4.63165
4.59281
4.55539
4.51934
4.48462
4.45119
4.41903
4.38812
4.35843
4.32996
4.3027
4.27664
4.25181
4.2282
4.20584
4.18474
4.16489
4.1463
4.12895
4.11284
4.09804
4.08467
5.16903
5.1105
5.05413
4.99986
4.9476
4.89727
4.84879
4.80207
4.75705
4.71365
4.67182
4.6315
4.59262
4.55515
4.51904
4.48425
4.45075
4.4185
4.38749
4.35769
4.32909
4.30168
4.27546
4.25042
4.22659
4.20397
4.18257
4.16238
4.14339
4.12558
4.10895
4.09355
4.07949
5.16903
5.1105
5.05413
4.99986
4.9476
4.89726
4.84877
4.80203
4.75699
4.71358
4.67171
4.63135
4.59244
4.55492
4.51875
4.4839
4.45032
4.418
4.38689
4.35698
4.32825
4.3007
4.27431
4.24909
4.22504
4.20217
4.18048
4.15997
4.14061
4.12237
4.10525
4.08928
4.0746
5.16903
5.11051
5.05413
4.99986
4.94759
4.89725
4.84875
4.802
4.75694
4.7135
4.67161
4.63122
4.59227
4.5547
4.51848
4.48357
4.44992
4.41751
4.38631
4.3563
4.32745
4.29976
4.27321
4.24781
4.22356
4.20045
4.1785
4.15768
4.13797
4.11933
4.10175
4.08527
4.07001
5.16903
5.11051
5.05414
4.99986
4.94759
4.89724
4.84873
4.80197
4.75689
4.71343
4.67152
4.63109
4.5921
4.55449
4.51822
4.48325
4.44954
4.41705
4.38576
4.35565
4.32668
4.29886
4.27217
4.2466
4.22215
4.19883
4.17662
4.15552
4.13548
4.11647
4.09847
4.08152
4.06573
5.16903
5.11051
5.05414
4.99986
4.94759
4.89723
4.84871
4.80194
4.75685
4.71337
4.67143
4.63097
4.59195
4.5543
4.51798
4.48295
4.44917
4.41661
4.38524
4.35503
4.32596
4.29802
4.27118
4.24545
4.22082
4.19729
4.17486
4.15349
4.13315
4.1138
4.09541
4.07803
4.06176
5.16903
5.11051
5.05414
4.99986
4.94758
4.89722
4.84869
4.80191
4.75681
4.71331
4.67134
4.63086
4.5918
4.55411
4.51775
4.48267
4.44883
4.4162
4.38475
4.35445
4.32528
4.29722
4.27025
4.24438
4.21958
4.19586
4.17321
4.15159
4.13098
4.11132
4.09259
4.07481
4.05811
5.16904
5.11051
5.05414
4.99986
4.94758
4.89722
4.84868
4.80189
4.75677
4.71325
4.67126
4.63076
4.59167
4.55394
4.51754
4.4824
4.44851
4.41582
4.38429
4.35391
4.32465
4.29648
4.26939
4.24338
4.21843
4.19453
4.17168
4.14985
4.12898
4.10904
4.08999
4.07186
4.05477
5.16904
5.11051
5.05414
4.99986
4.94758
4.89721
4.84866
4.80186
4.75673
4.7132
4.67119
4.63066
4.59154
4.55378
4.51733
4.48216
4.44821
4.41546
4.38387
4.35341
4.32406
4.29579
4.2686
4.24246
4.21736
4.19331
4.17028
4.14824
4.12715
4.10696
4.08762
4.06918
4.05174
5.16904
5.11051
5.05414
4.99986
4.94757
4.8972
4.84864
4.80184
4.75669
4.71314
4.67112
4.63057
4.59142
4.55363
4.51715
4.48193
4.44794
4.41514
4.38348
4.35296
4.32353
4.29517
4.26787
4.24162
4.2164
4.19221
4.16902
4.1468
4.1255
4.10508
4.0855
4.06677
4.04902
5.16904
5.11052
5.05415
4.99987
4.94758
4.89721
4.84865
4.80184
4.75668
4.71312
4.67108
4.6305
4.59133
4.55351
4.517
4.48175
4.44771
4.41486
4.38315
4.35256
4.32306
4.29463
4.26725
4.24089
4.21556
4.19124
4.16791
4.14553
4.12406
4.10344
4.08363
4.06466
4.04664
5.16903
5.11051
5.05413
4.99985
4.94756
4.89719
4.84863
4.80181
4.75666
4.71309
4.67104
4.63045
4.59126
4.55343
4.51689
4.48161
4.44754
4.41465
4.3829
4.35226
4.32271
4.29421
4.26676
4.24032
4.2149
4.19048
4.16703
4.14452
4.1229
4.10212
4.08213
4.06296
4.04472
5.16904
5.11054
5.05419
4.99994
4.94768
4.89732
4.84877
4.80195
4.75679
4.71321
4.67115
4.63056
4.59136
4.55351
4.51696
4.48167
4.44758
4.41468
4.38291
4.35226
4.32268
4.29416
4.26668
4.24021
4.21475
4.19028
4.16677
4.14419
4.12249
4.10162
4.08152
4.06223
4.04385
5.16903
5.1105
5.05416
4.99992
4.94769
4.89738
4.84888
4.80211
4.75699
4.71346
4.67145
4.63091
4.59177
4.55399
4.51753
4.48232
4.44835
4.41555
4.38392
4.3534
4.32397
4.29561
4.26829
4.24199
4.2167
4.19241
4.16908
4.14667
4.12515
4.10443
4.08449
4.06535
4.0471
5.16906
5.11069
5.05453
5.00045
4.94835
4.89815
4.84978
4.80318
4.75828
4.71503
4.67336
4.63323
4.59457
4.55735
4.5215
4.48698
4.45374
4.42175
4.39096
4.36133
4.33282
4.30541
4.27906
4.25375
4.22945
4.20613
4.18378
4.16233
4.14173
4.12192
4.10284
4.08452
4.06705
5.16907
5.11075
5.05484
5.00132
4.95009
4.90103
4.8541
4.80922
4.76635
4.72542
4.68637
4.64912
4.61358
4.57968
4.54733
4.51645
4.48696
4.45878
4.43185
4.40607
4.3814
4.35777
4.33512
4.31341
4.2926
4.27264
4.2535
4.23511
4.21742
4.20035
4.18385
4.16793
4.15271
5.16943
5.11376
5.0622
5.01463
4.97109
4.93149
4.89565
4.86327
4.83405
4.80766
4.78378
4.7621
4.74235
4.72426
4.7076
4.69217
4.67778
4.66426
4.65148
4.63931
4.62766
4.61643
4.60558
4.59505
4.58482
4.57487
4.56519
4.55578
4.54661
4.53765
4.52888
4.52035
4.51216
5.1781
5.16287
5.16738
5.18725
5.21829
5.25749
5.30246
5.35138
5.40292
5.45608
5.51009
5.56435
5.61845
5.67208
5.72503
5.77719
5.82851
5.87899
5.9287
5.97774
6.02623
6.07433
6.12221
6.17004
6.21801
6.26627
6.31496
6.36415
6.41386
6.46403
6.51452
6.56516
6.6158
5.63873
6.43201
7.14957
7.84014
8.52463
9.19696
9.85155
10.4867
11.1029
11.7018
12.2855
12.8565
13.417
13.9692
14.515
15.0562
15.5944
16.1308
16.6664
17.2021
17.7383
18.2751
18.8124
19.3496
19.886
20.4203
20.9511
21.4765
21.9943
22.5023
22.998
23.4788
23.943
44.7795
48.3125
51.8874
55.4669
59.0321
62.5707
66.0718
69.5253
72.9217
76.2527
79.5105
82.6886
85.781
88.7828
91.6897
94.4981
97.2051
99.8084
102.306
104.697
106.979
109.153
111.219
113.175
115.024
116.766
118.401
119.931
121.358
122.683
123.909
125.038
126.079
779.203
872.903
987.733
1124.13
1244.17
1293.95
1254.56
1142.53
982.968
791.457
577.349
359.474
175.851
64.1313
24.5512
20.2134
23.9084
27.649
30.2691
31.9467
32.9698
33.5344
33.7442
33.6331
33.1849
32.3526
31.0807
29.3311
27.1105
24.4909
21.6145
18.675
15.8771
13.3885
11.3043
9.63977
8.35042
7.36394
6.60786
6.02319
5.56646
5.20623
4.91937
4.68859
4.50118
4.3479
4.22202
4.11854
4.03352
3.96384
3.9069
3.86057
3.82305
3.79284
3.76865
3.74943
3.73427
3.72243
3.71326
3.70625
3.70097
3.69706
3.69423
3.69224
3.69091
3.69007
3.6896
3.68941
3.68941
3.68955
3.68977
3.69004
3.69034
3.69063
3.69091
3.69117
3.6914
3.6916
3.69175
3.69188
3.69196
3.69201
3.69203
3.69201
3.69197
3.6919
3.6918
3.69169
3.69156
3.69141
3.69124
3.69106
3.69088
3.69068
3.69048
3.69026
3.69006
3.68976
3.68997
3.68753
104.557
102.482
109.184
128.902
164.2
210.592
253.485
273.462
256.981
204.666
132.681
66.7808
28.1218
16.5364
16.8934
19.6714
22.4302
24.7203
26.4681
27.7151
28.5515
29.0658
29.3174
29.3279
29.0809
28.5302
27.6167
26.2918
24.5435
22.4174
20.0229
17.5205
15.0879
12.8787
10.9899
9.4511
8.23752
7.29565
6.56658
5.99941
5.55485
5.20349
4.92327
4.69754
4.51394
4.36344
4.23944
4.13703
4.05241
3.98254
3.92499
3.87771
3.83902
3.8075
3.78193
3.76132
3.74479
3.73162
3.72121
3.71304
3.70669
3.7018
3.69807
3.69528
3.69322
3.69172
3.69067
3.68995
3.68949
3.6892
3.68905
3.689
3.689
3.68903
3.68908
3.68914
3.68919
3.68922
3.68924
3.68924
3.68921
3.68916
3.68909
3.689
3.68889
3.68876
3.68862
3.68846
3.68829
3.6881
3.68791
3.6877
3.68749
3.68727
3.68705
3.68682
3.68661
3.68629
3.68649
3.68404
25.0374
24.1281
23.6546
23.8552
24.8249
26.34
27.5893
27.2024
24.0437
18.7434
14.0707
12.2883
12.9973
14.5294
16.2513
18.1184
19.9791
21.6456
22.9971
24.0098
24.7238
25.1959
25.4703
25.5657
25.4694
25.1395
24.5177
23.549
22.2067
20.5127
18.547
16.4386
14.3395
12.389
10.6838
9.26485
8.12468
7.22643
6.52373
5.97343
5.54037
5.19729
4.92327
4.70233
4.5225
4.37491
4.25308
4.15213
4.06835
3.99879
3.94108
3.89329
3.85381
3.8213
3.79462
3.77282
3.75508
3.7407
3.72911
3.71982
3.7124
3.70651
3.70187
3.69822
3.69538
3.69318
3.69149
3.69019
3.6892
3.68845
3.68787
3.68744
3.6871
3.68683
3.68662
3.68643
3.68627
3.68611
3.68596
3.68581
3.68565
3.68549
3.68532
3.68514
3.68495
3.68475
3.68454
3.68432
3.6841
3.68388
3.68364
3.68341
3.68317
3.68292
3.68268
3.68243
3.6822
3.68187
3.68206
3.67959
11.7506
11.5227
11.321
11.178
11.1064
11.0964
11.0993
11.0485
10.9337
10.8605
10.9732
11.3595
12.0864
13.1789
14.5556
16.0693
17.5645
18.9029
20.001
20.8437
21.4599
21.8915
22.1741
22.3247
22.3349
22.1691
21.7733
21.0907
20.0846
18.7582
17.1655
15.4074
13.6111
11.901
10.3707
9.0693
8.00317
7.15001
6.47489
5.94213
5.52083
5.18605
4.91817
4.70199
4.52595
4.38143
4.26202
4.1629
4.08039
4.01161
3.95424
3.90643
3.86662
3.83354
3.80612
3.78345
3.76476
3.7494
3.73681
3.72653
3.71815
3.71135
3.70583
3.70138
3.69778
3.69488
3.69254
3.69066
3.68913
3.6879
3.68689
3.68605
3.68536
3.68477
3.68427
3.68383
3.68343
3.68307
3.68274
3.68243
3.68213
3.68184
3.68155
3.68127
3.68099
3.68072
3.68044
3.68017
3.6799
3.67962
3.67935
3.67908
3.67881
3.67854
3.67827
3.678
3.67775
3.6774
3.67757
3.6751
7.75222
7.6781
7.61502
7.58928
7.61107
7.6796
7.7939
7.96179
8.20552
8.56075
9.0666
9.75586
10.6465
11.7268
12.9484
14.2279
15.4606
16.5535
17.456
18.1634
18.6989
19.0943
19.3772
19.5625
19.645
19.5964
19.369
18.9087
18.1734
17.1522
15.8779
14.4265
12.9022
11.4135
10.0492
8.86274
7.87145
7.06515
6.41921
5.90503
5.49604
5.16977
4.90807
4.69662
4.52436
4.38294
4.26606
4.16898
4.08805
4.02041
3.96379
3.91638
3.87668
3.84345
3.81569
3.79251
3.7732
3.75715
3.74381
3.73276
3.72361
3.71605
3.7098
3.70464
3.70037
3.69685
3.69392
3.6915
3.68948
3.68778
3.68635
3.68514
3.6841
3.68321
3.68242
3.68173
3.68111
3.68055
3.68004
3.67957
3.67912
3.67871
3.67831
3.67793
3.67756
3.67721
3.67687
3.67653
3.67621
3.67589
3.67558
3.67527
3.67497
3.67467
3.67438
3.67408
3.67382
3.67345
3.67361
3.67112
6.03254
6.00722
5.98817
5.99372
6.04034
6.14254
6.31323
6.56419
6.90802
7.36052
7.94008
8.66103
9.52431
10.5108
11.576
12.653
13.6675
14.561
15.3059
15.9042
16.3748
16.7405
17.0212
17.2282
17.3584
17.3902
17.284
16.9908
16.4675
15.6941
14.6865
13.4993
12.2158
10.9291
9.72066
8.6459
7.72972
6.97189
6.35675
5.86234
5.46635
5.14894
4.89353
4.68678
4.51823
4.37984
4.26549
4.17051
4.0913
4.02502
3.96943
3.92274
3.88349
3.85048
3.82272
3.7994
3.77981
3.76336
3.74957
3.73801
3.72832
3.7202
3.71339
3.70768
3.70288
3.69885
3.69545
3.69257
3.69013
3.68804
3.68626
3.68471
3.68338
3.68221
3.68117
3.68026
3.67944
3.6787
3.67802
3.6774
3.67683
3.6763
3.6758
3.67533
3.67489
3.67446
3.67406
3.67367
3.6733
3.67293
3.67258
3.67224
3.67191
3.67159
3.67128
3.67097
3.67068
3.6703
3.67045
3.66794
5.15854
5.15381
5.15764
5.18476
5.24987
5.36639
5.54723
5.80553
6.15486
6.60815
7.17487
7.85711
8.64553
9.515
10.4234
11.318
12.1478
12.8775
13.4949
14.0059
14.4251
14.7676
15.0456
15.2664
15.4275
15.5128
15.4908
15.3195
14.958
14.3812
13.5928
12.6297
11.5567
10.4518
9.38824
8.42072
7.57912
6.8709
6.28802
5.81454
5.43232
5.1242
4.87526
4.67324
4.50832
4.37287
4.26095
4.16802
4.09053
4.02568
3.97125
3.92547
3.88689
3.85436
3.8269
3.80371
3.78412
3.76757
3.75358
3.74176
3.73177
3.72331
3.71614
3.71007
3.70491
3.70051
3.69676
3.69355
3.69079
3.68841
3.68634
3.68454
3.68297
3.68158
3.68035
3.67926
3.67827
3.67738
3.67658
3.67584
3.67516
3.67454
3.67396
3.67341
3.6729
3.67242
3.67196
3.67153
3.67111
3.67072
3.67034
3.66997
3.66961
3.66927
3.66894
3.66861
3.66832
3.66792
3.66807
3.66554
4.68183
4.6855
4.69874
4.73295
4.80116
4.91674
5.09308
5.34289
5.67735
6.10503
6.62979
7.24776
7.94429
8.69234
9.45448
10.19
10.8649
11.4605
11.9748
12.4158
12.7941
13.1179
13.3931
13.6223
13.8029
13.9228
13.9576
13.8729
13.6319
13.208
12.5966
11.8206
10.9291
9.98592
9.05547
8.18971
7.42125
6.76317
6.21369
5.76223
5.39459
5.09624
4.85404
4.65682
4.4955
4.36287
4.25327
4.16227
4.08642
4.02296
3.9697
3.92489
3.88711
3.85519
3.8282
3.80534
3.78596
3.76952
3.75557
3.7437
3.73361
3.72501
3.71767
3.7114
3.70604
3.70143
3.69746
3.69404
3.69107
3.68849
3.68624
3.68427
3.68253
3.68099
3.67962
3.6784
3.6773
3.67631
3.67541
3.67458
3.67383
3.67313
3.67249
3.67189
3.67133
3.67081
3.67031
3.66984
3.6694
3.66898
3.66857
3.66819
3.66781
3.66746
3.66711
3.66677
3.66647
3.66606
3.6662
3.66366
4.41747
4.42409
4.4411
4.47775
4.54529
4.65577
4.82135
5.05342
5.36148
5.75153
6.22386
6.77065
7.37434
8.00817
8.64002
9.2396
9.78623
10.2728
10.7038
11.0881
11.4326
11.7403
12.0114
12.2449
12.4371
12.5787
12.6509
12.6263
12.4733
12.1664
11.6956
11.0738
10.3367
9.53564
8.72594
7.95559
7.25792
6.64986
6.13454
5.70601
5.3537
5.06566
4.83051
4.63825
4.48056
4.35069
4.24329
4.1541
4.07977
4.01761
3.96546
3.9216
3.88462
3.85338
3.82693
3.80451
3.78547
3.76928
3.7555
3.74374
3.73371
3.72512
3.71776
3.71144
3.70601
3.70131
3.69725
3.69373
3.69066
3.68798
3.68562
3.68355
3.68172
3.68009
3.67864
3.67734
3.67617
3.67511
3.67415
3.67328
3.67247
3.67174
3.67105
3.67042
3.66983
3.66928
3.66876
3.66827
3.66781
3.66737
3.66695
3.66655
3.66617
3.6658
3.66545
3.6651
3.66479
3.66438
3.66451
3.66197
4.27323
4.28002
4.29749
4.33329
4.39714
4.49979
4.65219
4.86436
5.14392
5.49438
5.91317
6.38997
6.90625
7.4371
7.95605
8.4417
8.88326
9.28163
9.6451
9.98245
10.2978
10.5899
10.8551
11.0891
11.2872
11.4415
11.5377
11.5542
11.4647
11.2459
10.8855
10.3891
9.78191
9.10435
8.403
7.72103
7.09104
6.5322
6.05139
5.64647
5.31016
5.03296
4.80522
4.61813
4.46415
4.33705
4.23178
4.14431
4.07139
4.01042
3.95929
3.9163
3.88008
3.84949
3.8236
3.80165
3.783
3.76713
3.75361
3.74206
3.73218
3.7237
3.71643
3.71016
3.70475
3.70007
3.696
3.69247
3.68937
3.68666
3.68428
3.68217
3.68031
3.67864
3.67716
3.67583
3.67462
3.67354
3.67255
3.67165
3.67082
3.67006
3.66936
3.66871
3.66811
3.66754
3.66701
3.66651
3.66604
3.66559
3.66517
3.66476
3.66437
3.664
3.66364
3.66329
3.66298
3.66256
3.66269
3.66015
4.19692
4.20254
4.21874
4.25207
4.31096
4.40496
4.54374
4.73588
4.98726
5.29933
5.66742
6.07971
6.51768
6.95897
7.38246
7.77402
8.13019
8.45715
8.76541
9.06311
9.35211
9.62837
9.88522
10.1163
10.3158
10.4768
10.5878
10.6319
10.5877
10.4348
10.1603
9.76497
9.26608
8.69476
8.08959
7.48856
6.92247
6.41147
5.96504
5.58417
5.26439
4.99853
4.77857
4.59691
4.44678
4.3225
4.21936
4.13355
4.06196
4.00209
3.95189
3.9097
3.87417
3.84418
3.81882
3.79732
3.77907
3.76354
3.7503
3.739
3.72932
3.72102
3.71389
3.70773
3.70242
3.69781
3.6938
3.6903
3.68724
3.68456
3.68219
3.6801
3.67824
3.67658
3.67509
3.67376
3.67256
3.67147
3.67048
3.66957
3.66874
3.66798
3.66728
3.66662
3.66601
3.66544
3.66491
3.66441
3.66393
3.66348
3.66306
3.66265
3.66226
3.66189
3.66153
3.66118
3.66086
3.66045
3.66058
3.65803
4.15738
4.16125
4.17531
4.20531
4.25868
4.34392
4.46958
4.6429
4.86821
5.14523
5.46765
5.82278
6.19276
6.55796
6.90202
7.21663
7.50362
7.7726
8.03513
8.29858
8.56312
8.8228
9.06916
9.29433
9.49184
9.65502
9.7746
9.83701
9.82505
9.72123
9.51315
9.19878
8.78942
8.30871
7.78812
7.26044
6.75399
6.28891
5.87632
5.51963
5.21679
4.96267
4.75087
4.57489
4.4288
4.30743
4.20646
4.1223
4.052
3.99318
3.94385
3.90239
3.86749
3.83805
3.81316
3.79209
3.77421
3.75901
3.74606
3.73501
3.72555
3.71745
3.71047
3.70446
3.69927
3.69477
3.69085
3.68743
3.68444
3.68181
3.67949
3.67743
3.67561
3.67398
3.67252
3.67121
3.67002
3.66895
3.66797
3.66708
3.66626
3.6655
3.6648
3.66416
3.66355
3.66299
3.66246
3.66196
3.66148
3.66104
3.66061
3.66021
3.65982
3.65944
3.65909
3.65874
3.65842
3.65801
3.65814
3.65559
4.13628
4.13819
4.14975
4.1761
4.22393
4.30086
4.41444
4.57078
4.77284
5.01888
5.30139
5.60723
5.91947
6.22108
6.49975
6.75172
6.9826
7.20414
7.42831
7.6617
7.90323
8.14579
8.37989
8.59681
8.78956
8.95175
9.0755
9.14979
9.16065
9.09339
8.93667
8.68691
8.3512
7.94727
7.50045
7.03863
6.58725
6.16572
5.78605
5.4534
5.16771
4.92566
4.72231
4.55229
4.41042
4.2921
4.19337
4.11089
4.04189
3.98409
3.93558
3.89482
3.8605
3.83156
3.80711
3.78642
3.76889
3.75399
3.74132
3.73051
3.72127
3.71335
3.70655
3.7007
3.69564
3.69125
3.68744
3.68412
3.68121
3.67865
3.67639
3.67439
3.67262
3.67103
3.66961
3.66833
3.66717
3.66612
3.66517
3.66429
3.66349
3.66275
3.66206
3.66143
3.66083
3.66027
3.65975
3.65926
3.65879
3.65835
3.65792
3.65752
3.65714
3.65676
3.65641
3.65606
3.65574
3.65533
3.65546
3.65292
4.12355
4.12348
4.13244
4.15515
4.1977
4.26701
4.36984
4.51128
4.69313
4.91246
5.16082
5.42487
5.68868
5.9376
6.16266
6.36361
6.54876
6.73117
6.9228
7.12952
7.34941
7.57468
7.79534
8.00227
8.18825
8.34711
8.47191
8.55353
8.58049
8.54051
8.42354
8.22531
7.95001
7.61081
7.2279
6.82471
6.42369
6.04304
5.69503
5.386
5.11749
4.88772
4.69309
4.52924
4.39179
4.27665
4.18025
4.09951
4.03184
3.97506
3.92738
3.88728
3.85351
3.82504
3.801
3.78067
3.76345
3.74884
3.73642
3.72584
3.71681
3.70908
3.70244
3.69674
3.69181
3.68755
3.68385
3.68062
3.6778
3.67532
3.67313
3.67119
3.66947
3.66794
3.66656
3.66532
3.66419
3.66317
3.66224
3.66139
3.66061
3.65988
3.65921
3.65859
3.65801
3.65746
3.65694
3.65646
3.656
3.65556
3.65514
3.65474
3.65436
3.65399
3.65364
3.65329
3.65298
3.65257
3.6527
3.65015
4.11425
4.11223
4.11863
4.13786
4.17555
4.23809
4.33153
4.46014
4.62472
4.82132
5.04077
5.2697
5.49314
5.69851
5.87958
6.03883
6.18646
6.33631
6.50011
6.68308
6.88272
7.09092
7.29754
7.49339
7.67121
7.82503
7.94865
8.03432
8.07251
8.05293
7.96681
7.80972
7.58392
7.29912
6.97129
6.61992
6.26457
5.92191
5.60402
5.31797
5.06647
4.84907
4.66334
4.50587
4.373
4.26118
4.16721
4.08827
4.02196
3.96624
3.91938
3.87994
3.84672
3.8187
3.79505
3.77506
3.75814
3.74379
3.73161
3.72124
3.7124
3.70484
3.69837
3.69281
3.68802
3.68387
3.68028
3.67715
3.67441
3.67201
3.66989
3.66802
3.66635
3.66487
3.66353
3.66233
3.66124
3.66026
3.65935
3.65853
3.65776
3.65706
3.6564
3.65579
3.65522
3.65469
3.65418
3.6537
3.65325
3.65282
3.6524
3.65201
3.65163
3.65126
3.65091
3.65057
3.65025
3.64985
3.64998
3.64743
4.10623
4.10233
4.1063
4.12228
4.15559
4.21218
4.29755
4.41522
4.56516
4.74256
4.93768
5.13716
5.32696
5.49626
5.64112
5.76608
5.88272
6.00527
6.14512
6.30693
6.48778
6.67948
6.87196
7.05614
7.22491
7.37253
7.49336
7.58071
7.62656
7.62222
7.56012
7.43596
7.25072
7.01153
6.73098
6.42516
6.1109
5.80325
5.51374
5.24979
5.015
4.80994
4.6332
4.48225
4.35411
4.24573
4.15428
4.07722
4.01232
3.95768
3.91166
3.87289
3.84021
3.81264
3.78937
3.7697
3.75307
3.73897
3.72701
3.71685
3.70819
3.7008
3.69448
3.68906
3.68439
3.68036
3.67686
3.67383
3.67117
3.66885
3.6668
3.66499
3.66338
3.66194
3.66065
3.65949
3.65844
3.65748
3.65661
3.6558
3.65506
3.65438
3.65374
3.65314
3.65259
3.65206
3.65156
3.65109
3.65065
3.65022
3.64981
3.64942
3.64904
3.64868
3.64833
3.64799
3.64768
3.64727
3.6474
3.64485
4.0987
4.09302
4.09469
4.10771
4.13712
4.18855
4.26702
4.37543
4.51301
4.67422
4.84883
5.02359
5.18528
5.3246
5.43947
5.53607
5.62695
5.72647
5.84565
5.98861
6.15218
6.32818
6.50679
6.67916
6.8384
6.97905
7.09595
7.18326
7.2341
7.24112
7.19776
7.10002
6.94806
6.74707
6.50698
6.241
5.96349
5.68784
5.42485
5.18198
4.96341
4.77054
4.60282
4.45848
4.33517
4.23033
4.1415
4.06637
4.00293
3.9494
3.90424
3.86615
3.83402
3.8069
3.78401
3.76466
3.7483
3.73445
3.7227
3.71273
3.70425
3.69702
3.69084
3.68555
3.681
3.67707
3.67368
3.67073
3.66816
3.66591
3.66393
3.66217
3.66062
3.65923
3.65798
3.65686
3.65584
3.65491
3.65407
3.65329
3.65257
3.6519
3.65128
3.6507
3.65015
3.64964
3.64915
3.64869
3.64824
3.64782
3.64742
3.64703
3.64666
3.6463
3.64595
3.64561
3.6453
3.64489
3.64503
3.64248
4.09144
4.08408
4.08364
4.09397
4.11995
4.16692
4.23951
4.34009
4.46723
4.61476
4.77207
4.926
5.06409
5.17836
5.26827
5.34129
5.41062
5.49064
5.59191
5.71812
5.86589
6.02717
6.19242
6.35314
6.5027
6.63596
6.74817
6.83416
6.888
6.9034
6.87468
6.79818
6.67356
6.50457
6.29904
6.06777
5.82294
5.57634
5.33793
5.11499
4.91204
4.73111
4.57234
4.43464
4.31623
4.21501
4.12886
4.05573
3.99379
3.9414
3.89713
3.85973
3.82815
3.80149
3.77896
3.75993
3.74385
3.73023
3.7187
3.70891
3.7006
3.69352
3.68747
3.6823
3.67787
3.67405
3.67075
3.66789
3.66539
3.66321
3.66129
3.6596
3.65809
3.65675
3.65554
3.65446
3.65347
3.65257
3.65175
3.65099
3.6503
3.64965
3.64904
3.64847
3.64794
3.64743
3.64695
3.6465
3.64606
3.64565
3.64525
3.64487
3.6445
3.64414
3.64379
3.64345
3.64314
3.64274
3.64287
3.64032
4.08443
4.0755
4.07313
4.08105
4.10402
4.14715
4.21474
4.3087
4.427
4.56294
4.70558
4.8419
4.9601
5.05335
5.12238
5.17568
5.22692
5.29034
5.37609
5.48741
5.62082
5.76841
5.921
6.07044
6.21042
6.3361
6.44313
6.52691
6.58226
6.60375
6.58645
6.52706
6.42491
6.28274
6.10667
5.90555
5.68965
5.46928
5.25349
5.04925
4.86121
4.69186
4.5419
4.41083
4.29735
4.1998
4.11638
4.0453
3.9849
3.93368
3.8903
3.85361
3.82259
3.79638
3.77423
3.75552
3.73969
3.72631
3.71498
3.70538
3.69722
3.69029
3.68438
3.67933
3.675
3.67128
3.66807
3.66528
3.66286
3.66075
3.65889
3.65725
3.65579
3.6545
3.65333
3.65228
3.65132
3.65045
3.64966
3.64892
3.64824
3.64761
3.64702
3.64646
3.64594
3.64544
3.64497
3.64452
3.6441
3.64369
3.64329
3.64291
3.64254
3.64219
3.64185
3.64151
3.6412
3.64079
3.64093
3.63838
4.07769
4.06731
4.06318
4.06896
4.0893
4.12914
4.19248
4.28082
4.39162
4.51771
4.64789
4.76925
4.87061
4.94615
4.99764
5.03439
5.07037
5.11963
5.19187
5.28999
5.41039
5.54535
5.68606
5.82474
5.95542
6.07354
6.17512
6.25604
6.31177
6.33758
6.32917
6.28357
6.19994
6.08023
5.92927
5.75426
5.56388
5.36706
5.17195
4.98512
4.81122
4.65302
4.51167
4.38714
4.27859
4.18474
4.10407
4.03507
3.97624
3.92621
3.88375
3.84778
3.81733
3.79157
3.76979
3.75139
3.73583
3.72267
3.71154
3.70211
3.69411
3.68731
3.68153
3.67659
3.67237
3.66874
3.66562
3.66291
3.66056
3.65851
3.65671
3.65512
3.65371
3.65245
3.65133
3.65031
3.64938
3.64854
3.64777
3.64705
3.64639
3.64577
3.6452
3.64465
3.64414
3.64365
3.64319
3.64275
3.64233
3.64192
3.64153
3.64116
3.64079
3.64044
3.6401
3.63976
3.63945
3.63905
3.63919
3.63663
4.07126
4.05956
4.05384
4.05772
4.07576
4.11277
4.1725
4.25606
4.36049
4.47818
4.59772
4.70634
4.79342
4.85398
4.8907
4.91352
4.93658
4.97371
5.03419
5.12059
5.22923
5.35262
5.48227
5.61079
5.73253
5.84325
5.93929
6.01694
6.07221
6.10097
6.09944
6.06495
5.99658
5.8957
5.7661
5.61369
5.44574
5.26998
5.09368
4.92296
4.76235
4.6148
4.48179
4.36368
4.26001
4.16985
4.09196
4.02505
3.96781
3.91899
3.87746
3.84221
3.81233
3.78703
3.76562
3.74752
3.73222
3.71929
3.70835
3.69909
3.69124
3.68458
3.67891
3.67409
3.66996
3.66642
3.66338
3.66075
3.65846
3.65647
3.65473
3.65319
3.65182
3.6506
3.64951
3.64852
3.64763
3.64681
3.64606
3.64537
3.64472
3.64412
3.64355
3.64302
3.64252
3.64204
3.64159
3.64115
3.64074
3.64034
3.63995
3.63958
3.63922
3.63887
3.63853
3.63819
3.63788
3.63748
3.63762
3.63506
4.06517
4.05226
4.04511
4.04731
4.06336
4.09794
4.15459
4.23409
4.33307
4.44358
4.55402
4.65177
4.7267
4.77457
4.79882
4.80987
4.82198
4.8487
4.89892
4.9749
5.07295
5.18574
5.30517
5.42418
5.53745
5.64102
5.73154
5.80567
5.85988
5.89051
5.89426
5.86872
5.81293
5.72784
5.61643
5.48352
5.33522
5.17821
5.01894
4.86303
4.71485
4.5774
4.45242
4.34055
4.24168
4.15518
4.08007
4.01526
3.95961
3.91201
3.87142
3.83689
3.80758
3.78274
3.7617
3.74391
3.72886
3.71614
3.70539
3.69629
3.68859
3.68205
3.6765
3.67178
3.66775
3.66429
3.66133
3.65877
3.65655
3.65461
3.65292
3.65142
3.6501
3.64892
3.64786
3.64691
3.64604
3.64524
3.64451
3.64384
3.64321
3.64262
3.64207
3.64155
3.64106
3.64059
3.64014
3.63971
3.6393
3.63891
3.63852
3.63815
3.6378
3.63745
3.63711
3.63677
3.63647
3.63607
3.6362
3.63365
4.05945
4.04543
4.037
4.03772
4.05204
4.08453
4.13854
4.21457
4.3089
4.41325
4.5159
4.60436
4.66895
4.70607
4.71977
4.72088
4.72367
4.74142
4.78266
4.84939
4.93789
5.04104
5.15105
5.26121
5.36652
5.46326
5.54838
5.61887
5.67156
5.70325
5.71101
5.69266
5.64724
5.57539
5.47944
5.36335
5.23225
5.09187
4.94794
4.80558
4.66894
4.54101
4.42368
4.31785
4.22367
4.14077
4.06842
4.0057
3.95165
3.90527
3.86562
3.83182
3.80308
3.77868
3.75801
3.74052
3.72572
3.71321
3.70264
3.6937
3.68613
3.67972
3.67428
3.66966
3.66571
3.66234
3.65945
3.65695
3.65479
3.65291
3.65127
3.64982
3.64853
3.64739
3.64636
3.64544
3.64459
3.64382
3.64311
3.64245
3.64184
3.64127
3.64073
3.64022
3.63973
3.63927
3.63883
3.63841
3.638
3.63761
3.63723
3.63687
3.63651
3.63616
3.63583
3.6355
3.63519
3.63479
3.63493
3.63237
4.05409
4.03909
4.02952
4.02892
4.04173
4.07242
4.12417
4.19723
4.28757
4.38664
4.48262
4.56314
4.61893
4.64693
4.65172
4.64441
4.63925
4.64927
4.68263
4.74113
4.82103
4.91542
5.01679
5.11877
5.21663
5.30691
5.38682
5.45363
5.50452
5.53664
5.54738
5.53479
5.49793
5.43717
5.35438
5.25276
5.13666
5.011
4.88083
4.75081
4.62481
4.5058
4.39573
4.29569
4.20606
4.12668
4.05703
3.9964
3.94393
3.89876
3.86005
3.82697
3.79879
3.77485
3.75454
3.73734
3.72278
3.71048
3.70008
3.69129
3.68386
3.67757
3.67223
3.6677
3.66384
3.66054
3.65772
3.65529
3.65318
3.65135
3.64975