/*--------------------------------*- C++ -*----------------------------------*\
| =========                 |                                                 |
| \\      /  F ield         | OpenFOAM: The Open Source CFD Toolbox           |
|  \\    /   O peration     | Version:  2.1.1                                 |
|   \\  /    A nd           | Web:      www.OpenFOAM.org                      |
|    \\/     M anipulation  |                                                 |
\*---------------------------------------------------------------------------*/
FoamFile
{
    version     2.0;
    format      ascii;
    class       volScalarField;
    location    "0.015";
    object      k;
}
// * * * * * * * * * * * * * * * * * * * * * * * * * * * * * * * * * * * * * //

dimensions      [0 2 -2 0 0 0 0];

internalField   nonuniform List<scalar> 
6820
(
0.288908
0.351394
0.415001
0.477474
0.536908
0.591694
0.640672
0.683196
0.71909
0.748551
0.772049
0.790219
0.80378
0.813467
0.819987
0.82399
0.826055
0.826687
0.826318
0.825312
0.82397
0.822539
0.821252
0.820124
0.819194
0.818514
0.818115
0.818022
0.818216
0.818842
0.819144
0.822889
0.810596
0.265529
0.26939
0.270512
0.271311
0.272482
0.274053
0.275932
0.277995
0.280125
0.282229
0.28424
0.286118
0.287839
0.289395
0.290782
0.291998
0.293041
0.293905
0.294583
0.295065
0.295342
0.295416
0.295304
0.295125
0.29495
0.29479
0.2946
0.294331
0.293932
0.293352
0.292521
0.291299
0.289742
0.26204
0.264265
0.263623
0.261592
0.259042
0.256364
0.253673
0.250983
0.248281
0.245561
0.242826
0.240088
0.237365
0.234678
0.232047
0.229491
0.227026
0.224663
0.222411
0.220277
0.218263
0.21637
0.214597
0.212961
0.211431
0.209964
0.208561
0.207224
0.20595
0.204741
0.203561
0.202426
0.201223
0.259883
0.260265
0.259785
0.258524
0.256825
0.254897
0.252852
0.250741
0.248594
0.246423
0.244238
0.242047
0.239857
0.237677
0.235515
0.233381
0.231283
0.229229
0.227227
0.225282
0.223402
0.221592
0.219856
0.218184
0.216581
0.215049
0.213594
0.212219
0.21093
0.209732
0.208629
0.207622
0.206728
0.259299
0.258404
0.257598
0.256567
0.255298
0.253858
0.252309
0.250689
0.249026
0.247337
0.245632
0.243922
0.242213
0.240512
0.238824
0.237154
0.235507
0.233889
0.232304
0.230756
0.229249
0.227788
0.226377
0.225021
0.223722
0.222485
0.221316
0.22022
0.219202
0.21827
0.217432
0.216688
0.21606
0.259224
0.257845
0.256617
0.255432
0.254225
0.252974
0.251674
0.250335
0.248965
0.247576
0.246176
0.244772
0.24337
0.241976
0.240595
0.239229
0.237884
0.236562
0.235267
0.234004
0.232774
0.231583
0.230435
0.229333
0.228283
0.227289
0.226358
0.225494
0.224705
0.223997
0.223379
0.22285
0.22243
0.259216
0.257714
0.256309
0.254981
0.253702
0.25245
0.25121
0.249974
0.24874
0.247507
0.246277
0.245052
0.243837
0.242633
0.241444
0.240273
0.239122
0.237994
0.236893
0.23582
0.23478
0.233775
0.232809
0.231888
0.231015
0.230197
0.229437
0.228744
0.228122
0.227578
0.227121
0.226754
0.226492
0.259218
0.257689
0.256224
0.254822
0.253481
0.252189
0.250938
0.24972
0.248527
0.247357
0.246207
0.245075
0.243962
0.242868
0.241795
0.240743
0.239715
0.238711
0.237735
0.236789
0.235874
0.234995
0.234154
0.233357
0.232607
0.231909
0.23127
0.230694
0.230188
0.229758
0.229413
0.229159
0.229012
0.259218
0.257686
0.256206
0.254781
0.253409
0.252088
0.250815
0.249584
0.248392
0.247236
0.246111
0.245016
0.24395
0.24291
0.241898
0.240912
0.239954
0.239025
0.238126
0.237258
0.236423
0.235625
0.234865
0.234149
0.23348
0.232863
0.232303
0.231805
0.231375
0.23102
0.230748
0.230569
0.230498
0.259218
0.257685
0.256202
0.25477
0.253387
0.252053
0.250766
0.249523
0.248323
0.247163
0.246042
0.244956
0.243904
0.242886
0.2419
0.240946
0.240023
0.239132
0.238275
0.237451
0.236662
0.235912
0.235201
0.234534
0.233915
0.233347
0.232835
0.232385
0.232001
0.231689
0.231459
0.231322
0.231294
0.259218
0.257685
0.256201
0.254767
0.253381
0.252042
0.250749
0.249499
0.248293
0.247128
0.246002
0.244915
0.243866
0.242852
0.241874
0.240931
0.240022
0.239148
0.238309
0.237506
0.236741
0.236014
0.235329
0.234688
0.234095
0.233553
0.233066
0.23264
0.232278
0.231987
0.231775
0.231655
0.231642
0.259218
0.257685
0.256201
0.254766
0.253379
0.252038
0.250742
0.24949
0.24828
0.247111
0.245982
0.244892
0.24384
0.242826
0.241848
0.240907
0.240001
0.239132
0.238299
0.237503
0.236746
0.236029
0.235354
0.234723
0.23414
0.233607
0.23313
0.232711
0.232354
0.232066
0.231855
0.231732
0.231715
0.259218
0.257685
0.256201
0.254766
0.253378
0.252036
0.250739
0.249485
0.248273
0.247102
0.245971
0.244878
0.243824
0.242808
0.241828
0.240885
0.239978
0.239108
0.238275
0.23748
0.236724
0.236007
0.235333
0.234703
0.23412
0.233587
0.233108
0.232685
0.232323
0.232027
0.231804
0.231666
0.231629
0.259218
0.257684
0.2562
0.254765
0.253377
0.252035
0.250737
0.249482
0.248269
0.247096
0.245963
0.244869
0.243813
0.242794
0.241812
0.240866
0.239957
0.239085
0.238249
0.237451
0.236692
0.235973
0.235295
0.234661
0.234073
0.233534
0.233047
0.232614
0.23224
0.231928
0.231686
0.231525
0.23146
0.259218
0.257684
0.2562
0.254765
0.253376
0.252033
0.250735
0.249479
0.248265
0.247091
0.245957
0.244861
0.243803
0.242782
0.241798
0.24085
0.239938
0.239063
0.238224
0.237422
0.236659
0.235934
0.235251
0.23461
0.234015
0.233467
0.232969
0.232523
0.232133
0.231803
0.231538
0.23135
0.231252
0.259218
0.257684
0.2562
0.254764
0.253375
0.252032
0.250733
0.249477
0.248261
0.247087
0.245951
0.244854
0.243794
0.242771
0.241785
0.240834
0.23992
0.239041
0.238199
0.237393
0.236625
0.235895
0.235205
0.234557
0.233953
0.233395
0.232885
0.232425
0.232017
0.231666
0.231377
0.231159
0.231027
0.259218
0.257684
0.2562
0.254764
0.253375
0.252031
0.250732
0.249474
0.248258
0.247083
0.245946
0.244847
0.243786
0.242761
0.241772
0.240819
0.239902
0.23902
0.238174
0.237364
0.236591
0.235856
0.235159
0.234504
0.23389
0.233321
0.232798
0.232323
0.231898
0.231526
0.231212
0.230965
0.230798
0.259218
0.257684
0.2562
0.254764
0.253375
0.25203
0.25073
0.249472
0.248256
0.247079
0.245941
0.244841
0.243778
0.242751
0.24176
0.240805
0.239885
0.239
0.23815
0.237336
0.236557
0.235816
0.235113
0.23445
0.233827
0.233247
0.232712
0.232222
0.231779
0.231386
0.231047
0.230771
0.230571
0.259218
0.257684
0.2562
0.254764
0.253374
0.25203
0.250729
0.249471
0.248253
0.247075
0.245936
0.244835
0.24377
0.242742
0.241749
0.240791
0.239868
0.23898
0.238126
0.237307
0.236524
0.235777
0.235067
0.234396
0.233765
0.233174
0.232626
0.232121
0.231661
0.231247
0.230885
0.230582
0.230349
0.259218
0.257684
0.2562
0.254764
0.253374
0.252029
0.250728
0.249469
0.248251
0.247072
0.245932
0.244829
0.243763
0.242733
0.241738
0.240777
0.239852
0.23896
0.238103
0.23728
0.236492
0.235739
0.235023
0.234344
0.233703
0.233102
0.232541
0.232022
0.231545
0.231113
0.230728
0.230398
0.230134
0.259218
0.257684
0.2562
0.254764
0.253374
0.252029
0.250727
0.249468
0.248249
0.247069
0.245928
0.244824
0.243756
0.242724
0.241727
0.240765
0.239836
0.238941
0.23808
0.237253
0.23646
0.235702
0.234979
0.234292
0.233643
0.233032
0.232459
0.231926
0.231434
0.230982
0.230576
0.230221
0.229929
0.259218
0.257685
0.2562
0.254764
0.253374
0.252028
0.250727
0.249466
0.248247
0.247066
0.245924
0.244819
0.24375
0.242716
0.241717
0.240752
0.239821
0.238923
0.238058
0.237227
0.23643
0.235666
0.234937
0.234243
0.233585
0.232964
0.23238
0.231834
0.231326
0.230857
0.23043
0.230053
0.229734
0.259218
0.257685
0.2562
0.254764
0.253374
0.252028
0.250726
0.249465
0.248245
0.247064
0.245921
0.244814
0.243744
0.242708
0.241707
0.24074
0.239806
0.238906
0.238038
0.237202
0.2364
0.235631
0.234896
0.234195
0.233529
0.232899
0.232304
0.231746
0.231224
0.230738
0.230293
0.229893
0.229551
0.259218
0.257685
0.2562
0.254764
0.253373
0.252028
0.250725
0.249464
0.248243
0.247062
0.245917
0.24481
0.243738
0.242701
0.241698
0.240729
0.239793
0.238889
0.238018
0.237179
0.236372
0.235598
0.234857
0.234149
0.233476
0.232837
0.232232
0.231662
0.231126
0.230626
0.230163
0.229743
0.229378
0.259218
0.257685
0.2562
0.254764
0.253373
0.252028
0.250725
0.249463
0.248242
0.247059
0.245914
0.244806
0.243733
0.242694
0.24169
0.240718
0.23978
0.238873
0.237999
0.237156
0.236346
0.235567
0.23482
0.234106
0.233425
0.232778
0.232164
0.231583
0.231035
0.23052
0.230041
0.229604
0.229218
0.259218
0.257685
0.2562
0.254764
0.253373
0.252027
0.250724
0.249462
0.248241
0.247057
0.245911
0.244802
0.243728
0.242688
0.241682
0.240708
0.239768
0.238859
0.237981
0.237135
0.236321
0.235537
0.234786
0.234066
0.233378
0.232723
0.2321
0.231509
0.23095
0.230422
0.229928
0.229474
0.22907
0.259218
0.257685
0.2562
0.254764
0.253373
0.252027
0.250724
0.249462
0.248239
0.247055
0.245909
0.244798
0.243723
0.242682
0.241674
0.240699
0.239756
0.238845
0.237965
0.237115
0.236297
0.23551
0.234753
0.234028
0.233334
0.232672
0.232041
0.231441
0.230871
0.230331
0.229824
0.229355
0.228934
0.259218
0.257685
0.256201
0.254764
0.253373
0.252027
0.250723
0.249461
0.248238
0.247054
0.245906
0.244795
0.243719
0.242676
0.241667
0.24069
0.239745
0.238832
0.237949
0.237097
0.236275
0.235484
0.234723
0.233993
0.233293
0.232625
0.231986
0.231378
0.230798
0.230248
0.229728
0.229246
0.22881
0.259218
0.257685
0.256201
0.254764
0.253373
0.252027
0.250723
0.24946
0.248237
0.247052
0.245904
0.244792
0.243715
0.242671
0.241661
0.240682
0.239736
0.23882
0.237935
0.23708
0.236255
0.23546
0.234696
0.233961
0.233256
0.232582
0.231937
0.23132
0.230732
0.230172
0.229642
0.229147
0.228698
0.259218
0.257685
0.256201
0.254764
0.253373
0.252026
0.250722
0.249459
0.248236
0.24705
0.245902
0.244789
0.243711
0.242666
0.241655
0.240675
0.239727
0.238809
0.237922
0.237065
0.236237
0.235439
0.234671
0.233932
0.233223
0.232543
0.231892
0.231269
0.230673
0.230104
0.229564
0.229059
0.228598
0.259218
0.257685
0.256201
0.254764
0.253373
0.252027
0.250723
0.249459
0.248236
0.24705
0.245901
0.244787
0.243708
0.242663
0.24165
0.240669
0.23972
0.2388
0.237911
0.237052
0.236222
0.235421
0.23465
0.233907
0.233194
0.232509
0.231853
0.231224
0.230621
0.230045
0.229496
0.228981
0.22851
0.259218
0.257685
0.2562
0.254764
0.253373
0.252026
0.250722
0.249459
0.248235
0.247049
0.2459
0.244786
0.243707
0.242661
0.241647
0.240665
0.239715
0.238794
0.237904
0.237043
0.236211
0.235407
0.234633
0.233887
0.23317
0.232481
0.23182
0.231186
0.230577
0.229994
0.229438
0.228915
0.228434
0.259218
0.257686
0.256202
0.254767
0.253377
0.252031
0.250727
0.249464
0.24824
0.247054
0.245904
0.24479
0.24371
0.242664
0.24165
0.240667
0.239715
0.238794
0.237902
0.237039
0.236205
0.2354
0.234623
0.233874
0.233153
0.23246
0.231795
0.231155
0.23054
0.22995
0.229386
0.228853
0.228363
0.259218
0.257685
0.256201
0.254767
0.253378
0.252034
0.250732
0.24947
0.248248
0.247062
0.245913
0.2448
0.24372
0.242673
0.241658
0.240675
0.239722
0.238799
0.237906
0.237041
0.236204
0.235395
0.234614
0.233861
0.233135
0.232436
0.231763
0.231116
0.230492
0.229891
0.229316
0.228771
0.228266
0.259219
0.257691
0.256214
0.254784
0.253399
0.252057
0.250756
0.249495
0.248273
0.247088
0.245939
0.244825
0.243744
0.242695
0.241678
0.240692
0.239735
0.238807
0.237907
0.237035
0.23619
0.235372
0.234581
0.233815
0.233076
0.232362
0.231672
0.231006
0.230363
0.229741
0.229142
0.228572
0.228039
0.259219
0.257693
0.25622
0.254799
0.253424
0.252092
0.250798
0.249542
0.248321
0.247135
0.245982
0.244862
0.243772
0.242712
0.241682
0.240679
0.239705
0.238756
0.237835
0.236938
0.236067
0.235221
0.234399
0.233602
0.23283
0.232081
0.231355
0.230652
0.22997
0.229309
0.228669
0.228055
0.227476
0.25923
0.257744
0.256303
0.254896
0.253526
0.252192
0.250891
0.249622
0.248383
0.247173
0.245991
0.244837
0.243709
0.242607
0.241531
0.240481
0.239456
0.238456
0.237482
0.236532
0.235606
0.234705
0.233829
0.232978
0.232151
0.231349
0.230571
0.229816
0.229084
0.228372
0.227681
0.227015
0.226378
0.259263
0.257819
0.256447
0.255115
0.253789
0.25246
0.251131
0.249809
0.248502
0.247217
0.245958
0.24473
0.243533
0.24237
0.24124
0.240144
0.239082
0.238054
0.23706
0.236099
0.235171
0.234276
0.233414
0.232584
0.231787
0.231021
0.230284
0.229577
0.228895
0.228236
0.227598
0.226979
0.22638
0.259603
0.258642
0.257588
0.256555
0.255609
0.25475
0.253963
0.25324
0.252579
0.25198
0.251447
0.25098
0.250585
0.250262
0.250015
0.249844
0.249753
0.24974
0.249807
0.249954
0.250179
0.25048
0.250856
0.251303
0.251816
0.252391
0.253021
0.253698
0.254414
0.255158
0.25592
0.256688
0.257453
0.266719
0.28057
0.294245
0.307627
0.320671
0.333361
0.345684
0.357627
0.369181
0.38034
0.391097
0.401451
0.411399
0.420941
0.43008
0.438819
0.44716
0.455109
0.462671
0.469851
0.476657
0.483094
0.489171
0.494893
0.50027
0.505309
0.510018
0.514406
0.51848
0.52225
0.525726
0.528919
0.53185
0.89235
1.04274
1.29943
1.68288
2.13897
2.54304
2.7926
2.85259
2.72513
2.41861
1.94771
1.36887
0.824308
0.504207
0.466063
0.566562
0.688596
0.796589
0.880571
0.941312
0.983324
1.01084
1.0265
1.03134
1.02522
1.00737
0.977041
0.934029
0.879103
0.814288
0.742857
0.668973
0.597008
0.530713
0.472573
0.423583
0.383485
0.351251
0.325566
0.305135
0.288836
0.275753
0.265165
0.256528
0.249435
0.243587
0.238758
0.23477
0.231485
0.228784
0.226574
0.224772
0.223311
0.222132
0.221188
0.220437
0.219844
0.21938
0.21902
0.218745
0.218538
0.218384
0.218273
0.218195
0.218143
0.21811
0.218093
0.218086
0.218087
0.218093
0.218103
0.218116
0.218129
0.218142
0.218155
0.218167
0.218178
0.218188
0.218197
0.218204
0.218209
0.218214
0.218217
0.218219
0.21822
0.218219
0.218218
0.218216
0.218214
0.21821
0.218206
0.218202
0.218197
0.218192
0.218186
0.21818
0.218175
0.218166
0.218172
0.218099
0.285045
0.285635
0.300333
0.339886
0.419098
0.543004
0.688178
0.803402
0.834319
0.755663
0.593442
0.427008
0.349904
0.383875
0.469182
0.566578
0.661619
0.744533
0.810646
0.860018
0.895219
0.919149
0.933843
0.940115
0.937693
0.925634
0.902868
0.868751
0.823533
0.768666
0.706843
0.641695
0.57719
0.516877
0.46325
0.417489
0.379605
0.348849
0.324136
0.304349
0.288486
0.275711
0.265351
0.256887
0.249926
0.244172
0.239404
0.235451
0.232175
0.229465
0.22723
0.225392
0.223888
0.222663
0.221669
0.220868
0.220226
0.219716
0.219312
0.218996
0.21875
0.218562
0.218419
0.218313
0.218234
0.218179
0.21814
0.218114
0.218099
0.21809
0.218087
0.218087
0.21809
0.218094
0.218098
0.218103
0.218108
0.218112
0.218115
0.218118
0.21812
0.21812
0.21812
0.21812
0.218118
0.218116
0.218113
0.218109
0.218105
0.2181
0.218095
0.21809
0.218084
0.218078
0.218072
0.218065
0.218059
0.21805
0.218056
0.217982
0.199468
0.198064
0.197927
0.199512
0.203386
0.210059
0.219193
0.228575
0.235109
0.239946
0.253383
0.287176
0.340158
0.40445
0.477282
0.554199
0.628062
0.692881
0.745423
0.785453
0.814669
0.835221
0.84874
0.855901
0.856399
0.849208
0.833054
0.806942
0.770652
0.725085
0.672349
0.615534
0.558189
0.503631
0.454345
0.411677
0.3759
0.346536
0.322732
0.303542
0.288082
0.275591
0.265443
0.257143
0.250308
0.244652
0.239953
0.236043
0.232789
0.230083
0.227836
0.225976
0.224439
0.223175
0.222139
0.221293
0.220607
0.220051
0.219605
0.219248
0.218964
0.21874
0.218564
0.218427
0.218321
0.218239
0.218178
0.218131
0.218097
0.218071
0.218053
0.21804
0.21803
0.218023
0.218019
0.218015
0.218012
0.218009
0.218006
0.218004
0.218001
0.217997
0.217993
0.217989
0.217985
0.21798
0.217975
0.217969
0.217963
0.217957
0.217951
0.217944
0.217937
0.21793
0.217923
0.217916
0.21791
0.2179
0.217905
0.217831
0.205726
0.20475
0.204158
0.204211
0.205392
0.208354
0.213779
0.222403
0.235307
0.25412
0.280548
0.315849
0.360627
0.414122
0.473545
0.534645
0.592772
0.643858
0.685624
0.717931
0.742031
0.759564
0.771837
0.779424
0.782042
0.778687
0.768001
0.748757
0.720358
0.683207
0.63886
0.589871
0.53935
0.490354
0.445314
0.405701
0.37202
0.34405
0.321159
0.30257
0.287515
0.275309
0.265372
0.257235
0.25053
0.244976
0.240356
0.236503
0.233286
0.2306
0.228357
0.226488
0.224933
0.223643
0.222576
0.221695
0.220971
0.220378
0.219894
0.2195
0.21918
0.218922
0.218714
0.218547
0.218413
0.218307
0.218222
0.218154
0.2181
0.218057
0.218023
0.217995
0.217973
0.217955
0.217939
0.217926
0.217915
0.217905
0.217896
0.217887
0.217879
0.217871
0.217863
0.217856
0.217848
0.21784
0.217833
0.217825
0.217817
0.217809
0.217802
0.217794
0.217786
0.217778
0.21777
0.217762
0.217755
0.217745
0.217749
0.217674
0.215387
0.214736
0.214592
0.215467
0.217784
0.221942
0.228489
0.238232
0.25221
0.27154
0.29715
0.329569
0.368722
0.413566
0.46198
0.510959
0.557098
0.597549
0.630843
0.656995
0.676966
0.692007
0.703148
0.710872
0.714949
0.714477
0.70813
0.694574
0.672938
0.643214
0.606452
0.56469
0.520594
0.476929
0.436029
0.399442
0.367869
0.341317
0.319365
0.301398
0.286762
0.274847
0.265123
0.25715
0.250577
0.245129
0.240594
0.236808
0.233639
0.230985
0.228762
0.226899
0.225341
0.224039
0.222953
0.222049
0.221298
0.220676
0.220162
0.219737
0.219387
0.2191
0.218864
0.21867
0.218511
0.218381
0.218274
0.218187
0.218114
0.218055
0.218005
0.217964
0.217929
0.217899
0.217873
0.217851
0.217832
0.217814
0.217799
0.217784
0.217771
0.217758
0.217746
0.217735
0.217724
0.217714
0.217704
0.217694
0.217684
0.217675
0.217665
0.217656
0.217647
0.217638
0.217629
0.217621
0.217613
0.217602
0.217606
0.21753
0.222018
0.221679
0.221797
0.222872
0.225449
0.230107
0.237438
0.248031
0.262479
0.281376
0.305236
0.33427
0.36814
0.405828
0.44558
0.485061
0.521845
0.554051
0.580801
0.602211
0.619023
0.632161
0.642402
0.650128
0.655171
0.656772
0.653729
0.644715
0.628703
0.605364
0.575314
0.540106
0.50197
0.463359
0.426464
0.392866
0.363413
0.338313
0.317335
0.300018
0.28582
0.274208
0.264703
0.256896
0.250454
0.245113
0.240666
0.23695
0.233838
0.231226
0.229032
0.227189
0.22564
0.224339
0.223247
0.222332
0.221565
0.220924
0.220389
0.219942
0.21957
0.21926
0.219001
0.218786
0.218606
0.218456
0.218331
0.218225
0.218137
0.218062
0.217999
0.217945
0.217899
0.217859
0.217824
0.217793
0.217766
0.217742
0.21772
0.2177
0.217682
0.217666
0.21765
0.217635
0.217621
0.217608
0.217596
0.217584
0.217572
0.217561
0.217551
0.21754
0.21753
0.21752
0.217511
0.217501
0.217493
0.217481
0.217485
0.217409
0.226298
0.226272
0.226748
0.228203
0.231143
0.236067
0.243472
0.253858
0.267707
0.28542
0.30721
0.332976
0.362201
0.393878
0.426528
0.458403
0.487845
0.513672
0.535416
0.553254
0.567737
0.57951
0.589108
0.596805
0.602473
0.605509
0.604886
0.599375
0.587898
0.569911
0.545668
0.516295
0.483602
0.449717
0.416658
0.385989
0.358659
0.335042
0.315074
0.298439
0.284703
0.27341
0.26413
0.256491
0.250179
0.244943
0.240583
0.236939
0.233886
0.231322
0.229165
0.227349
0.225819
0.224529
0.223442
0.222526
0.221754
0.221105
0.220558
0.220098
0.219711
0.219385
0.21911
0.218879
0.218684
0.218519
0.218379
0.21826
0.218159
0.218072
0.217998
0.217934
0.217878
0.217829
0.217787
0.217749
0.217716
0.217686
0.217659
0.217634
0.217612
0.217592
0.217573
0.217555
0.217539
0.217523
0.217509
0.217495
0.217482
0.21747
0.217458
0.217446
0.217435
0.217425
0.217414
0.217404
0.217395
0.217383
0.217387
0.21731
0.228978
0.229184
0.229896
0.231524
0.234534
0.239405
0.246599
0.256535
0.269547
0.285843
0.305433
0.328054
0.353101
0.379625
0.406416
0.432194
0.455867
0.47676
0.494688
0.509856
0.522649
0.533471
0.542642
0.550319
0.556392
0.560392
0.561481
0.558585
0.550662
0.537045
0.517721
0.493445
0.465641
0.436116
0.406686
0.378857
0.353637
0.331523
0.3126
0.29668
0.283431
0.272471
0.263427
0.255959
0.249777
0.244645
0.240369
0.236795
0.233801
0.231285
0.229169
0.227384
0.225879
0.224607
0.223533
0.222624
0.221856
0.221206
0.220656
0.22019
0.219795
0.219461
0.219177
0.218936
0.218731
0.218556
0.218406
0.218278
0.218167
0.218072
0.21799
0.217918
0.217855
0.217801
0.217752
0.217709
0.217671
0.217636
0.217606
0.217578
0.217552
0.217529
0.217507
0.217488
0.217469
0.217452
0.217436
0.217421
0.217407
0.217393
0.21738
0.217368
0.217356
0.217345
0.217334
0.217324
0.217314
0.217302
0.217305
0.217228
0.230571
0.230932
0.231802
0.233532
0.236534
0.241233
0.248034
0.257281
0.269219
0.283941
0.301334
0.321026
0.342377
0.364523
0.38649
0.407372
0.426507
0.443577
0.458587
0.47174
0.483285
0.493431
0.502315
0.509979
0.516309
0.52094
0.523206
0.522208
0.517
0.506873
0.491628
0.471724
0.448243
0.422682
0.396642
0.371536
0.348389
0.327789
0.309937
0.29476
0.282023
0.271416
0.262618
0.255327
0.249277
0.244246
0.240051
0.236545
0.233606
0.231138
0.229061
0.22731
0.225832
0.224582
0.223525
0.222629
0.221869
0.221225
0.220678
0.220213
0.219817
0.21948
0.219193
0.218947
0.218737
0.218557
0.218402
0.218268
0.218152
0.218052
0.217964
0.217888
0.217821
0.217761
0.217709
0.217663
0.217621
0.217584
0.21755
0.21752
0.217492
0.217467
0.217444
0.217422
0.217402
0.217384
0.217367
0.217351
0.217336
0.217321
0.217308
0.217295
0.217283
0.217271
0.21726
0.217249
0.217239
0.217227
0.21723
0.217152
0.231426
0.231872
0.232817
0.234562
0.237466
0.241905
0.24823
0.256725
0.267559
0.280734
0.29605
0.313081
0.331195
0.34963
0.367629
0.384581
0.400136
0.414224
0.42697
0.438562
0.449141
0.458762
0.467419
0.475057
0.481538
0.486567
0.489624
0.489974
0.486795
0.479401
0.467479
0.451264
0.431546
0.409539
0.386626
0.3641
0.342968
0.323874
0.30711
0.292701
0.280499
0.270264
0.261726
0.254618
0.248702
0.243773
0.239658
0.236216
0.233331
0.230907
0.228868
0.227149
0.225698
0.224471
0.223432
0.222552
0.221805
0.22117
0.22063
0.22017
0.219778
0.219443
0.219156
0.21891
0.218699
0.218517
0.21836
0.218224
0.218106
0.218003
0.217913
0.217835
0.217765
0.217704
0.217649
0.217601
0.217558
0.217519
0.217484
0.217452
0.217423
0.217396
0.217372
0.21735
0.217329
0.21731
0.217292
0.217276
0.21726
0.217245
0.217232
0.217218
0.217206
0.217194
0.217182
0.217171
0.217161
0.217149
0.217152
0.217073
0.231795
0.232267
0.233224
0.234925
0.237681
0.241823
0.247651
0.255394
0.265158
0.27688
0.290306
0.304983
0.320311
0.335637
0.350384
0.364174
0.376888
0.38862
0.399569
0.409903
0.419678
0.428839
0.43727
0.44484
0.451384
0.456649
0.460224
0.461517
0.459835
0.454549
0.445295
0.432148
0.415663
0.396801
0.376735
0.356624
0.337429
0.319816
0.304146
0.290524
0.278878
0.269033
0.260767
0.253853
0.248076
0.24325
0.239214
0.235834
0.233
0.230618
0.228614
0.226925
0.2255
0.224295
0.223276
0.222411
0.221678
0.221054
0.220524
0.220071
0.219685
0.219355
0.219072
0.218829
0.218619
0.218439
0.218283
0.218147
0.218029
0.217926
0.217836
0.217757
0.217687
0.217625
0.21757
0.217521
0.217477
0.217437
0.217401
0.217369
0.21734
0.217313
0.217288
0.217265
0.217245
0.217225
0.217207
0.21719
0.217174
0.217159
0.217145
0.217132
0.217119
0.217107
0.217096
0.217084
0.217074
0.217061
0.217064
0.216986
0.231859
0.232315
0.233236
0.234848
0.237427
0.241259
0.246603
0.253639
0.262421
0.272838
0.284595
0.297234
0.310198
0.322934
0.335019
0.346257
0.35669
0.366527
0.37601
0.385283
0.394342
0.403054
0.411227
0.418672
0.425201
0.430584
0.434485
0.436429
0.435842
0.432168
0.425035
0.414411
0.400671
0.384562
0.36706
0.349183
0.331827
0.315657
0.301075
0.28825
0.277176
0.267736
0.259756
0.253045
0.247415
0.242695
0.23874
0.235422
0.232636
0.230294
0.228323
0.226662
0.225261
0.224077
0.223075
0.222227
0.221507
0.220895
0.220375
0.219931
0.219553
0.219229
0.218951
0.218712
0.218507
0.218329
0.218175
0.218042
0.217926
0.217824
0.217735
0.217656
0.217587
0.217526
0.217471
0.217422
0.217379
0.217339
0.217304
0.217271
0.217242
0.217215
0.217191
0.217168
0.217147
0.217128
0.21711
0.217093
0.217077
0.217062
0.217048
0.217034
0.217022
0.21701
0.216998
0.216987
0.216977
0.216964
0.216967
0.216888
0.231745
0.232158
0.23301
0.234508
0.236894
0.240423
0.245316
0.251712
0.259622
0.268893
0.279208
0.290111
0.301087
0.311674
0.321579
0.330739
0.339319
0.347603
0.355854
0.3642
0.372591
0.380841
0.388711
0.39597
0.402413
0.407822
0.411915
0.414303
0.414514
0.412067
0.40661
0.398046
0.386618
0.372894
0.357676
0.341846
0.326218
0.311436
0.297924
0.285897
0.275406
0.266385
0.258704
0.252206
0.246729
0.242121
0.238248
0.234993
0.232256
0.229953
0.228014
0.226379
0.225
0.223836
0.222851
0.222017
0.22131
0.22071
0.2202
0.219765
0.219394
0.219077
0.218806
0.218572
0.218371
0.218198
0.218048
0.217917
0.217804
0.217704
0.217617
0.21754
0.217472
0.217412
0.217359
0.217311
0.217268
0.217229
0.217195
0.217163
0.217134
0.217107
0.217083
0.217061
0.21704
0.217021
0.217003
0.216986
0.21697
0.216956
0.216942
0.216928
0.216916
0.216904
0.216892
0.216881
0.216871
0.216858
0.216861
0.216782
0.231536
0.231888
0.232656
0.234026
0.236219
0.239463
0.243948
0.249777
0.256927
0.265213
0.274298
0.283732
0.293045
0.301852
0.30996
0.317416
0.32447
0.331456
0.33865
0.346163
0.353915
0.361688
0.369212
0.376231
0.382527
0.38789
0.392074
0.394758
0.395548
0.394036
0.3899
0.383013
0.373519
0.361848
0.348649
0.334674
0.320652
0.307191
0.29472
0.283486
0.273583
0.26499
0.257619
0.251344
0.246027
0.241536
0.237749
0.234559
0.231871
0.229607
0.227699
0.22609
0.224733
0.223586
0.222617
0.221797
0.221103
0.220513
0.220013
0.219587
0.219224
0.218914
0.218648
0.21842
0.218225
0.218055
0.217909
0.217782
0.217672
0.217575
0.21749
0.217416
0.21735
0.217292
0.21724
0.217193
0.217151
0.217114
0.21708
0.217049
0.21702
0.216995
0.216971
0.216949
0.216929
0.21691
0.216892
0.216875
0.21686
0.216845
0.216831
0.216818
0.216806
0.216793
0.216782
0.216771
0.216761
0.216748
0.216751
0.216672
0.231281
0.231565
0.23224
0.233481
0.23549
0.238474
0.242596
0.247933
0.254429
0.261874
0.269916
0.278115
0.286035
0.293361
0.299981
0.306026
0.311807
0.317693
0.323965
0.330721
0.337861
0.345147
0.352292
0.359026
0.365125
0.370385
0.374586
0.377455
0.378664
0.377867
0.374774
0.369248
0.361367
0.351453
0.340025
0.327718
0.315176
0.30296
0.29149
0.281034
0.271719
0.263561
0.256508
0.250463
0.245314
0.240946
0.237249
0.234126
0.231489
0.229264
0.227388
0.225804
0.224467
0.223338
0.222384
0.221578
0.220895
0.220316
0.219824
0.219407
0.219051
0.218748
0.218489
0.218266
0.218075
0.217911
0.217769
0.217645
0.217538
0.217445
0.217363
0.21729
0.217227
0.21717
0.21712
0.217075
0.217034
0.216998
0.216965
0.216935
0.216907
0.216882
0.216859
0.216837
0.216817
0.216799
0.216782
0.216765
0.21675
0.216735
0.216722
0.216709
0.216696
0.216684
0.216673
0.216662
0.216652
0.216639
0.216642
0.216563
0.231007
0.231221
0.231804
0.232919
0.234759
0.23751
0.241316
0.246229
0.252167
0.258897
0.266057
0.273214
0.279966
0.286053
0.291433
0.296299
0.301009
0.305952
0.311413
0.317477
0.324034
0.330832
0.337577
0.343995
0.349859
0.354971
0.359133
0.362106
0.363614
0.363361
0.361095
0.356675
0.350138
0.34172
0.331838
0.321021
0.309831
0.298777
0.288262
0.278562
0.269827
0.262106
0.255376
0.249568
0.244593
0.240352
0.23675
0.233697
0.231113
0.22893
0.227085
0.225526
0.22421
0.223099
0.222159
0.221365
0.220693
0.220124
0.219641
0.219232
0.218883
0.218587
0.218333
0.218116
0.21793
0.21777
0.217632
0.217513
0.217409
0.217318
0.217239
0.217169
0.217107
0.217053
0.217004
0.21696
0.216921
0.216886
0.216854
0.216825
0.216798
0.216774
0.216751
0.21673
0.216711
0.216693
0.216676
0.21666
0.216645
0.216631
0.216617
0.216604
0.216592
0.21658
0.216569
0.216557
0.216547
0.216535
0.216538
0.216459
0.23073
0.230875
0.231368
0.232368
0.234054
0.236599
0.240132
0.244682
0.250144
0.256268
0.26268
0.268956
0.274725
0.279772
0.284111
0.287985
0.291786
0.295917
0.300661
0.306095
0.312098
0.318417
0.324755
0.330836
0.336438
0.34137
0.345448
0.348464
0.350179
0.350342
0.348731
0.345212
0.339794
0.332649
0.324109
0.314615
0.30465
0.294672
0.285059
0.276087
0.267921
0.260634
0.254229
0.248664
0.243868
0.239759
0.236254
0.233274
0.230746
0.228604
0.226792
0.225259
0.223964
0.22287
0.221945
0.221163
0.220502
0.219942
0.219468
0.219066
0.218725
0.218434
0.218186
0.217975
0.217793
0.217638
0.217503
0.217387
0.217287
0.217199
0.217122
0.217055
0.216995
0.216942
0.216895
0.216853
0.216816
0.216782
0.216751
0.216722
0.216697
0.216673
0.216651
0.216631
0.216612
0.216594
0.216577
0.216562
0.216547
0.216533
0.216519
0.216507
0.216494
0.216483
0.216471
0.21646
0.21645
0.216438
0.216441
0.216362
0.230456
0.230535
0.230946
0.23184
0.233388
0.235755
0.239052
0.243291
0.248349
0.253957
0.259734
0.265264
0.2702
0.274369
0.277829
0.280865
0.28389
0.287319
0.291428
0.296288
0.301772
0.307628
0.313559
0.319296
0.32462
0.329347
0.333309
0.33632
0.338173
0.33865
0.33756
0.334776
0.330289
0.324226
0.316848
0.308522
0.299661
0.290672
0.281905
0.273627
0.266012
0.259153
0.253074
0.247753
0.243139
0.239166
0.235763
0.232858
0.230387
0.228289
0.22651
0.225004
0.22373
0.222653
0.221743
0.220973
0.220322
0.219772
0.219306
0.218911
0.218576
0.218292
0.218049
0.217843
0.217666
0.217514
0.217384
0.217271
0.217174
0.217089
0.217014
0.216949
0.216892
0.216841
0.216796
0.216755
0.216719
0.216686
0.216656
0.216629
0.216604
0.216581
0.216559
0.216539
0.216521
0.216504
0.216487
0.216472
0.216457
0.216444
0.21643
0.216418
0.216406
0.216394
0.216383
0.216372
0.216362
0.216349
0.216352
0.216273
0.23019
0.230208
0.230543
0.231341
0.232768
0.234979
0.238074
0.242048
0.246761
0.251929
0.257165
0.262059
0.266289
0.269713
0.27243
0.274753
0.277116
0.279935
0.283481
0.28782
0.292821
0.298234
0.303768
0.30916
0.314197
0.318706
0.322528
0.325498
0.327434
0.328148
0.32747
0.325286
0.321576
0.31643
0.310057
0.302758
0.294887
0.2868
0.278819
0.271198
0.264114
0.257673
0.251916
0.24684
0.242411
0.238576
0.235276
0.232449
0.230037
0.227984
0.22624
0.224761
0.223508
0.222449
0.221553
0.220795
0.220155
0.219613
0.219155
0.218768
0.218439
0.21816
0.217923
0.217721
0.217549
0.217401
0.217274
0.217165
0.21707
0.216988
0.216916
0.216853
0.216798
0.216749
0.216705
0.216666
0.216631
0.216599
0.21657
0.216543
0.216519
0.216497
0.216476
0.216457
0.216439
0.216422
0.216406
0.216391
0.216377
0.216363
0.21635
0.216337
0.216325
0.216314
0.216303
0.216292
0.216282
0.216269
0.216272
0.216193
0.229934
0.229896
0.230161
0.230874
0.232195
0.234271
0.237192
0.24094
0.245358
0.25015
0.254923
0.259275
0.262903
0.265695
0.26778
0.269496
0.271291
0.273579
0.276627
0.280494
0.285048
0.290042
0.295194
0.300247
0.304997
0.309279
0.312945
0.315847
0.317824
0.318711
0.31836
0.316667
0.313604
0.309236
0.303729
0.297332
0.290342
0.283075
0.275819
0.268815
0.262238
0.256202
0.250762
0.245929
0.241684
0.237989
0.234795
0.232048
0.229695
0.227688
0.225979
0.224528
0.223298
0.222256
0.221374
0.220629
0.219998
0.219466
0.219016
0.218635
0.218312
0.218039
0.217807
0.21761