/*--------------------------------*- C++ -*----------------------------------*\
| =========                 |                                                 |
| \\      /  F ield         | OpenFOAM: The Open Source CFD Toolbox           |
|  \\    /   O peration     | Version:  2.1.1                                 |
|   \\  /    A nd           | Web:      www.OpenFOAM.org                      |
|    \\/     M anipulation  |                                                 |
\*---------------------------------------------------------------------------*/
FoamFile
{
    version     2.0;
    format      ascii;
    class       volScalarField;
    location    "0.015";
    object      nut;
}
// * * * * * * * * * * * * * * * * * * * * * * * * * * * * * * * * * * * * * //

dimensions      [0 2 -1 0 0 0 0];

internalField   nonuniform List<scalar> 
6820
(
4.96024e-05
5.47041e-05
5.94494e-05
6.37673e-05
6.76196e-05
7.09857e-05
7.38652e-05
7.6277e-05
7.82549e-05
7.98415e-05
8.10845e-05
8.20326e-05
8.27327e-05
8.32289e-05
8.35606e-05
8.37629e-05
8.38661e-05
8.3896e-05
8.38748e-05
8.38208e-05
8.37492e-05
8.36723e-05
8.36022e-05
8.35408e-05
8.34893e-05
8.34503e-05
8.34257e-05
8.34166e-05
8.34222e-05
8.34499e-05
8.34608e-05
8.36491e-05
8.30105e-05
0.000540277
0.000305125
0.000220233
0.000171915
0.00014094
0.000120124
0.000105631
9.52676e-05
8.77141e-05
8.21347e-05
7.79796e-05
7.48754e-05
7.2561e-05
7.085e-05
6.96059e-05
6.87274e-05
6.81375e-05
6.77768e-05
6.75987e-05
6.75654e-05
6.76462e-05
6.7814e-05
6.8043e-05
6.82926e-05
6.85291e-05
6.87323e-05
6.88997e-05
6.90336e-05
6.91365e-05
6.92163e-05
6.92576e-05
6.93446e-05
6.91891e-05
0.00105861
0.000835966
0.000679032
0.000569366
0.000489769
0.00042981
0.000383387
0.000346551
0.000316682
0.000292021
0.000271352
0.000253815
0.000238783
0.000225787
0.000214471
0.000204558
0.000195828
0.000188105
0.000181245
0.000175131
0.000169661
0.00016475
0.000160338
0.000156232
0.000152533
0.000149442
0.00014692
0.000144901
0.000143322
0.000142169
0.000141385
0.000141172
0.000141115
0.00115954
0.00109647
0.0010115
0.00092612
0.000849377
0.000783026
0.000726285
0.000677741
0.000635984
0.000599796
0.000568183
0.000540349
0.000515661
0.000493618
0.000473818
0.00045594
0.000439724
0.00042496
0.000411473
0.000399121
0.000387796
0.000377339
0.000367686
0.00035908
0.000351467
0.000344804
0.000339057
0.000334192
0.000330176
0.000327015
0.000324684
0.000323348
0.000322781
0.00116967
0.00115862
0.00113359
0.0010975
0.0010556
0.00101209
0.000969553
0.000929286
0.000891838
0.000857334
0.000825688
0.000796713
0.000770188
0.000745888
0.0007236
0.000703127
0.000684295
0.00066695
0.000650958
0.000636182
0.000622509
0.000609963
0.000598476
0.000588014
0.000578555
0.000570084
0.000562589
0.000556064
0.000550511
0.00054595
0.000542395
0.000539943
0.000538526
0.00117006
0.00116839
0.00116304
0.00115259
0.00113713
0.0011177
0.00109563
0.0010721
0.00104804
0.00102409
0.00100069
0.000978132
0.000956564
0.000936073
0.000916694
0.000898427
0.000881252
0.000865135
0.000850022
0.000835907
0.000822761
0.000810555
0.000799263
0.000788868
0.000779359
0.000770731
0.000762988
0.000756138
0.000750198
0.000745199
0.000741173
0.000738182
0.000736229
0.00116996
0.00116938
0.00116821
0.00116568
0.00116123
0.00115461
0.00114592
0.00113544
0.00112357
0.0011107
0.00109718
0.00108331
0.00106934
0.00105546
0.00104182
0.00102852
0.00101564
0.00100325
0.000991395
0.000980109
0.000969419
0.000959343
0.000949897
0.000941095
0.000932953
0.000925487
0.000918716
0.000912663
0.000907357
0.000902834
0.000899139
0.000896326
0.000894434
0.00116994
0.0011694
0.00116883
0.00116802
0.00116674
0.00116474
0.00116185
0.001158
0.00115322
0.00114758
0.00114119
0.0011342
0.00112675
0.00111897
0.00111097
0.00110287
0.00109476
0.00108672
0.00107883
0.00107114
0.0010637
0.00105656
0.00104976
0.00104334
0.00103733
0.00103177
0.00102668
0.0010221
0.00101807
0.00101462
0.00101182
0.00100973
0.0010084
0.00116994
0.00116939
0.00116886
0.00116832
0.00116771
0.00116694
0.00116592
0.00116455
0.0011628
0.00116061
0.00115799
0.00115496
0.00115155
0.00114782
0.00114381
0.00113959
0.00113521
0.00113073
0.00112621
0.00112169
0.00111723
0.00111286
0.00110863
0.00110458
0.00110076
0.00109719
0.00109391
0.00109097
0.00108839
0.00108622
0.00108453
0.00108338
0.00108285
0.00116994
0.00116938
0.00116885
0.00116833
0.00116782
0.0011673
0.00116674
0.0011661
0.00116535
0.00116445
0.00116338
0.00116212
0.00116068
0.00115905
0.00115725
0.00115529
0.0011532
0.00115101
0.00114874
0.00114642
0.00114408
0.00114176
0.00113949
0.0011373
0.00113522
0.00113329
0.00113153
0.00112997
0.00112866
0.00112764
0.00112696
0.0011267
0.00112695
0.00116994
0.00116938
0.00116884
0.00116832
0.00116782
0.00116734
0.00116686
0.00116639
0.0011659
0.00116538
0.00116482
0.00116421
0.00116353
0.00116279
0.00116198
0.0011611
0.00116016
0.00115916
0.00115812
0.00115705
0.00115597
0.00115489
0.00115385
0.00115285
0.00115192
0.00115109
0.00115037
0.00114979
0.00114939
0.00114919
0.00114926
0.00114967
0.00115051
0.00116994
0.00116938
0.00116884
0.00116832
0.00116782
0.00116733
0.00116687
0.00116642
0.00116598
0.00116555
0.00116513
0.00116471
0.00116428
0.00116385
0.0011634
0.00116294
0.00116248
0.001162
0.00116152
0.00116105
0.00116058
0.00116014
0.00115974
0.00115938
0.00115909
0.00115888
0.00115876
0.00115876
0.00115889
0.0011592
0.00115972
0.00116054
0.00116175
0.00116994
0.00116938
0.00116884
0.00116832
0.00116781
0.00116733
0.00116686
0.00116641
0.00116598
0.00116557
0.00116517
0.00116479
0.00116443
0.00116408
0.00116375
0.00116343
0.00116313
0.00116284
0.00116258
0.00116234
0.00116213
0.00116196
0.00116184
0.00116177
0.00116177
0.00116186
0.00116203
0.0011623
0.0011627
0.00116325
0.001164
0.00116501
0.00116638
0.00116994
0.00116938
0.00116884
0.00116832
0.00116781
0.00116733
0.00116686
0.00116641
0.00116597
0.00116556
0.00116517
0.00116479
0.00116444
0.00116411
0.0011638
0.00116352
0.00116326
0.00116303
0.00116283
0.00116267
0.00116254
0.00116247
0.00116245
0.00116249
0.0011626
0.00116279
0.00116307
0.00116345
0.00116395
0.00116458
0.0011654
0.00116646
0.00116786
0.00116994
0.00116938
0.00116884
0.00116832
0.00116781
0.00116732
0.00116685
0.0011664
0.00116597
0.00116555
0.00116515
0.00116478
0.00116443
0.00116409
0.00116379
0.00116351
0.00116325
0.00116303
0.00116285
0.0011627
0.0011626
0.00116254
0.00116254
0.00116261
0.00116275
0.00116296
0.00116327
0.00116366
0.00116416
0.0011648
0.0011656
0.00116664
0.001168
0.00116994
0.00116938
0.00116884
0.00116832
0.00116781
0.00116732
0.00116685
0.00116639
0.00116596
0.00116554
0.00116514
0.00116476
0.00116441
0.00116407
0.00116376
0.00116348
0.00116322
0.001163
0.00116281
0.00116266
0.00116255
0.00116249
0.00116249
0.00116255
0.00116268
0.00116288
0.00116317
0.00116354
0.00116402
0.00116461
0.00116537
0.00116635
0.00116763
0.00116994
0.00116938
0.00116884
0.00116831
0.00116781
0.00116732
0.00116685
0.00116639
0.00116595
0.00116553
0.00116513
0.00116475
0.00116439
0.00116405
0.00116373
0.00116345
0.00116318
0.00116295
0.00116275
0.00116259
0.00116248
0.00116241
0.00116239
0.00116243
0.00116254
0.00116273
0.00116298
0.00116332
0.00116376
0.0011643
0.001165
0.0011659
0.00116709
0.00116994
0.00116938
0.00116884
0.00116831
0.00116781
0.00116732
0.00116684
0.00116639
0.00116595
0.00116552
0.00116512
0.00116474
0.00116437
0.00116403
0.00116371
0.00116341
0.00116315
0.00116291
0.0011627
0.00116253
0.0011624
0.00116232
0.00116228
0.00116231
0.0011624
0.00116255
0.00116278
0.00116308
0.00116347
0.00116396
0.00116459
0.00116542
0.00116652
0.00116994
0.00116938
0.00116884
0.00116831
0.00116781
0.00116732
0.00116684
0.00116638
0.00116594
0.00116552
0.00116511
0.00116472
0.00116436
0.00116401
0.00116368
0.00116338
0.00116311
0.00116286
0.00116265
0.00116247
0.00116233
0.00116223
0.00116218
0.00116218
0.00116225
0.00116237
0.00116257
0.00116283
0.00116317
0.00116361
0.00116418
0.00116493
0.00116594
0.00116994
0.00116938
0.00116884
0.00116831
0.00116781
0.00116731
0.00116684
0.00116638
0.00116594
0.00116551
0.0011651
0.00116471
0.00116434
0.00116399
0.00116366
0.00116336
0.00116307
0.00116282
0.0011626
0.00116241
0.00116225
0.00116214
0.00116208
0.00116206
0.0011621
0.0011622
0.00116236
0.00116259
0.00116289
0.00116327
0.00116378
0.00116446
0.00116539
0.00116994
0.00116938
0.00116884
0.00116831
0.00116781
0.00116731
0.00116684
0.00116638
0.00116593
0.00116551
0.00116509
0.0011647
0.00116433
0.00116397
0.00116364
0.00116333
0.00116304
0.00116278
0.00116255
0.00116235
0.00116218
0.00116206
0.00116198
0.00116194
0.00116196
0.00116204
0.00116217
0.00116236
0.00116261
0.00116295
0.0011634
0.00116401
0.00116486
0.00116994
0.00116938
0.00116884
0.00116831
0.00116781
0.00116731
0.00116684
0.00116637
0.00116593
0.0011655
0.00116509
0.00116469
0.00116432
0.00116396
0.00116362
0.0011633
0.00116301
0.00116274
0.0011625
0.00116229
0.00116212
0.00116198
0.00116188
0.00116183
0.00116183
0.00116188
0.00116198
0.00116213
0.00116235
0.00116264
0.00116303
0.00116358
0.00116436
0.00116994
0.00116938
0.00116884
0.00116831
0.00116781
0.00116731
0.00116684
0.00116637
0.00116593
0.0011655
0.00116508
0.00116468
0.0011643
0.00116394
0.0011636
0.00116328
0.00116298
0.00116271
0.00116246
0.00116224
0.00116205
0.0011619
0.00116179
0.00116172
0.0011617
0.00116172
0.0011618
0.00116192
0.0011621
0.00116234
0.00116269
0.00116318
0.0011639
0.00116994
0.00116938
0.00116884
0.00116832
0.00116781
0.00116731
0.00116683
0.00116637
0.00116592
0.00116549
0.00116508
0.00116468
0.00116429
0.00116393
0.00116358
0.00116326
0.00116295
0.00116267
0.00116242
0.00116219
0.00116199
0.00116183
0.0011617
0.00116162
0.00116158
0.00116158
0.00116163
0.00116172
0.00116186
0.00116207
0.00116237
0.00116281
0.00116346
0.00116994
0.00116938
0.00116884
0.00116832
0.00116781
0.00116731
0.00116683
0.00116637
0.00116592
0.00116549
0.00116507
0.00116467
0.00116428
0.00116392
0.00116357
0.00116324
0.00116293
0.00116264
0.00116238
0.00116214
0.00116194
0.00116176
0.00116162
0.00116152
0.00116146
0.00116145
0.00116147
0.00116153
0.00116164
0.00116181
0.00116207
0.00116246
0.00116306
0.00116994
0.00116938
0.00116884
0.00116832
0.00116781
0.00116731
0.00116683
0.00116637
0.00116592
0.00116548
0.00116507
0.00116466
0.00116427
0.0011639
0.00116355
0.00116322
0.0011629
0.00116261
0.00116234
0.0011621
0.00116188
0.0011617
0.00116155
0.00116143
0.00116136
0.00116132
0.00116132
0.00116136
0.00116144
0.00116158
0.00116179
0.00116214
0.00116269
0.00116994
0.00116938
0.00116884
0.00116832
0.00116781
0.00116731
0.00116683
0.00116637
0.00116592
0.00116548
0.00116506
0.00116466
0.00116427
0.00116389
0.00116354
0.0011632
0.00116288
0.00116259
0.00116231
0.00116206
0.00116184
0.00116164
0.00116148
0.00116135
0.00116126
0.00116121
0.00116119
0.0011612
0.00116126
0.00116136
0.00116154
0.00116185
0.00116236
0.00116994
0.00116938
0.00116884
0.00116832
0.00116781
0.00116731
0.00116683
0.00116637
0.00116592
0.00116548
0.00116506
0.00116465
0.00116426
0.00116388
0.00116353
0.00116318
0.00116286
0.00116256
0.00116228
0.00116202
0.00116179
0.00116159
0.00116142
0.00116128
0.00116117
0.0011611
0.00116107
0.00116106
0.00116109
0.00116116
0.00116131
0.00116159
0.00116206
0.00116994
0.00116938
0.00116884
0.00116832
0.00116781
0.00116731
0.00116683
0.00116637
0.00116591
0.00116548
0.00116505
0.00116465
0.00116425
0.00116388
0.00116351
0.00116317
0.00116285
0.00116254
0.00116225
0.00116199
0.00116175
0.00116154
0.00116136
0.00116121
0.00116109
0.00116101
0.00116095
0.00116093
0.00116094
0.00116099
0.00116111
0.00116135
0.00116179
0.00116994
0.00116938
0.00116884
0.00116832
0.00116781
0.00116731
0.00116683
0.00116637
0.00116591
0.00116548
0.00116505
0.00116464
0.00116425
0.00116387
0.00116351
0.00116316
0.00116283
0.00116252
0.00116223
0.00116196
0.00116172
0.0011615
0.00116131
0.00116115
0.00116103
0.00116093
0.00116086
0.00116082
0.0011608
0.00116083
0.00116093
0.00116115
0.00116155
0.00116994
0.00116938
0.00116884
0.00116832
0.00116781
0.00116731
0.00116683
0.00116637
0.00116591
0.00116548
0.00116505
0.00116464
0.00116425
0.00116386
0.0011635
0.00116315
0.00116282
0.00116251
0.00116222
0.00116194
0.00116169
0.00116147
0.00116127
0.00116111
0.00116097
0.00116086
0.00116078
0.00116072
0.00116069
0.0011607
0.00116077
0.00116096
0.00116134
0.00116994
0.00116938
0.00116884
0.00116832
0.00116781
0.00116731
0.00116684
0.00116637
0.00116592
0.00116548
0.00116506
0.00116464
0.00116425
0.00116387
0.0011635
0.00116315
0.00116282
0.0011625
0.00116221
0.00116193
0.00116168
0.00116145
0.00116124
0.00116106
0.00116092
0.00116079
0.0011607
0.00116062
0.00116057
0.00116056
0.00116061
0.00116077
0.00116112
0.00116994
0.00116938
0.00116884
0.00116832
0.00116782
0.00116732
0.00116685
0.00116638
0.00116593
0.00116549
0.00116507
0.00116466
0.00116426
0.00116387
0.00116351
0.00116315
0.00116281
0.00116249
0.00116218
0.0011619
0.00116163
0.00116139
0.00116116
0.00116096
0.00116079
0.00116064
0.00116051
0.0011604
0.00116031
0.00116025
0.00116025
0.00116036
0.00116064
0.00116994
0.00116938
0.00116885
0.00116833
0.00116783
0.00116734
0.00116687
0.0011664
0.00116595
0.00116551
0.00116508
0.00116466
0.00116424
0.00116384
0.00116344
0.00116306
0.00116268
0.00116231
0.00116196
0.00116161
0.00116127
0.00116095
0.00116064
0.00116035
0.00116007
0.00115981
0.00115956
0.00115931
0.00115908
0.00115887
0.00115871
0.00115864
0.00115873
0.00116994
0.0011694
0.00116887
0.00116836
0.00116786
0.00116737
0.00116687
0.00116638
0.00116587
0.00116537
0.00116484
0.00116431
0.00116376
0.0011632
0.00116261
0.00116201
0.00116139
0.00116076
0.00116011
0.00115944
0.00115877
0.00115808
0.00115739
0.00115669
0.00115599
0.00115528
0.00115457
0.00115386
0.00115315
0.00115244
0.00115178
0.00115119
0.00115075
0.00116995
0.0011694
0.00116886
0.0011683
0.00116769
0.001167
0.00116622
0.00116534
0.00116435
0.00116324
0.00116202
0.00116068
0.00115924
0.00115769
0.00115604
0.00115431
0.0011525
0.00115063
0.0011487
0.00114673
0.00114472
0.0011427
0.00114066
0.00113861
0.00113658
0.00113455
0.00113255
0.00113056
0.0011286
0.00112668
0.00112482
0.00112306
0.00112146
0.00116996
0.00116917
0.00116791
0.00116609
0.00116369
0.00116072
0.00115718
0.00115313
0.00114862
0.0011437
0.00113844
0.00113291
0.00112718
0.00112128
0.00111529
0.00110925
0.0011032
0.00109718
0.00109122
0.00108534
0.00107958
0.00107394
0.00106845
0.00106312
0.00105794
0.00105293
0.00104808
0.00104338
0.00103883
0.00103442
0.00103017
0.00102607
0.00102218
0.0011683
0.00115873
0.00114542
0.00112921
0.00111086
0.00109106
0.00107045
0.00104952
0.00102866
0.00100813
0.000988115
0.000968729
0.000950042
0.000932089
0.000914879
0.0008984
0.000882631
0.000867542
0.000853095
0.000839251
0.000825968
0.000813204
0.000800918
0.00078907
0.000777622
0.00076654
0.00075579
0.000745345
0.000735182
0.000725285
0.000715646
0.000706268
0.000697168
0.00107567
0.000936038
0.000835246
0.00075558
0.000689795
0.000635076
0.00058922
0.000550388
0.000517132
0.000488343
0.000463169
0.00044096
0.000421208
0.000403517
0.000387577
0.000373136
0.000359994
0.000347988
0.000336984
0.000326874
0.000317564
0.00030898
0.000301057
0.000293742
0.000286988
0.000280756
0.000275011
0.000269721
0.000264859
0.000260396
0.000256307
0.000252567
0.00024915
0.000142979
0.000146644
0.000150175
0.000153552
0.000156774
0.000159846
0.000162773
0.000165561
0.000168215
0.000170738
0.000173136
0.000175413
0.000177573
0.000179621
0.00018156
0.000183396
0.000185131
0.00018677
0.000188315
0.000189772
0.000191142
0.000192429
0.000193636
0.000194766
0.000195823
0.000196807
0.000197724
0.000198574
0.00019936
0.000200085
0.000200752
0.000201362
0.00020192
9.19734e-05
0.000112107
0.000153854
0.000226742
0.000330956
0.000449809
0.000559462
0.000640991
0.000679949
0.000665194
0.00059136
0.000469134
0.000347757
0.000356772
0.000796267
0.00142921
0.00178493
0.00206553
0.00230554
0.00249623
0.00263949
0.00274229
0.00281033
0.00284629
0.00285057
0.00282298
0.00276425
0.00267691
0.00256557
0.00243665
0.00229777
0.00215674
0.00202037
0.00189335
0.00177803
0.00167515
0.00158501
0.00150788
0.00144364
0.00139123
0.00134886
0.00131449
0.00128637
0.00126319
0.00124403
0.00122821
0.00121517
0.00120444
0.00119564
0.00118845
0.00118258
0.00117781
0.00117395
0.00117085
0.00116837
0.0011664
0.00116484
0.00116362
0.00116267
0.00116194
0.0011614
0.00116099
0.0011607
0.00116049
0.00116036
0.00116027
0.00116023
0.00116022
0.00116023
0.00116026
0.00116029
0.00116034
0.00116039
0.00116043
0.00116048
0.00116053
0.00116058
0.00116062
0.00116066
0.0011607
0.00116073
0.00116076
0.00116079
0.00116082
0.00116084
0.00116086
0.00116088
0.00116089
0.00116091
0.00116092
0.00116093
0.00116093
0.00116094
0.00116095
0.00116095
0.00116096
0.00116096
0.00116097
0.00116097
0.00116095
6.99386e-05
7.165e-05
7.43517e-05
8.06587e-05
9.6272e-05
0.000126011
0.000168148
0.000212428
0.000243784
0.000251103
0.000238885
0.000245732
0.000391829
0.00080201
0.00117275
0.00146868
0.00175641
0.00201816
0.00223451
0.00240183
0.00252623
0.00261597
0.0026771
0.00271221
0.00272117
0.00270282
0.00265656
0.00258352
0.00248695
0.0023721
0.00224574
0.0021152
0.00198725
0.001867
0.00175743
0.00165978
0.00157438
0.00150125
0.00143999
0.00138956
0.0013484
0.00131478
0.00128716
0.00126432
0.0012454
0.00122972
0.00121674
0.00120602
0.00119718
0.00118991
0.00118395
0.00117908
0.00117512
0.00117192
0.00116933
0.00116726
0.00116561
0.0011643
0.00116328
0.00116248
0.00116186
0.00116139
0.00116104
0.00116079
0.0011606
0.00116048
0.0011604
0.00116035
0.00116033
0.00116033
0.00116034
0.00116036
0.00116039
0.00116042
0.00116046
0.00116049
0.00116052
0.00116056
0.00116059
0.00116062
0.00116064
0.00116067
0.00116069
0.00116071
0.00116072
0.00116074
0.00116075
0.00116077
0.00116078
0.00116078
0.00116079
0.0011608
0.0011608
0.00116081
0.00116081
0.00116082
0.00116082
0.00116082
0.00116082
0.0011608
0.000143021
0.00014633
0.000149051
0.000150174
0.000149967
0.000150769
0.000156731
0.000172859
0.000206909
0.000276453
0.000410658
0.000604015
0.000801216
0.00101327
0.00126155
0.00152564
0.00177693
0.00199614
0.00217458
0.00231257
0.00241595
0.00249181
0.00254541
0.00257888
0.00259165
0.00258175
0.00254748
0.0024886
0.002407
0.00230673
0.00219361
0.00207435
0.00195556
0.00184259
0.00173895
0.00164633
0.00156524
0.0014956
0.00143691
0.00138821
0.00134814
0.00131521
0.00128805
0.00126555
0.00124685
0.00123131
0.0012184
0.00120769
0.00119881
0.00119147
0.00118542
0.00118045
0.00117638
0.00117306
0.00117037
0.00116819
0.00116644
0.00116503
0.00116392
0.00116303
0.00116234
0.0011618
0.00116139
0.00116108
0.00116084
0.00116067
0.00116054
0.00116046
0.0011604
0.00116037
0.00116035
0.00116035
0.00116036
0.00116037
0.00116038
0.0011604
0.00116042
0.00116044
0.00116046
0.00116048
0.00116049
0.00116051
0.00116053
0.00116054
0.00116055
0.00116056
0.00116057
0.00116058
0.00116059
0.00116059
0.0011606
0.0011606
0.00116061
0.00116061
0.00116061
0.00116061
0.00116061
0.00116062
0.00116061
0.00116059
0.000324162
0.000327445
0.000331353
0.000335768
0.000341849
0.0003521
0.000370575
0.00040292
0.000455769
0.000535144
0.000645541
0.000790391
0.000968411
0.00117117
0.00138655
0.00160094
0.00180045
0.00197376
0.00211526
0.00222553
0.00230919
0.00237189
0.00241795
0.00244908
0.00246444
0.00246161
0.00243805
0.0023924
0.00232528
0.00223953
0.00213993
0.00203249
0.00192349
0.00181835
0.00172094
0.00163335
0.00155637
0.00148997
0.00143367
0.0013866
0.0013476
0.00131536
0.00128869
0.00126654
0.00124811
0.00123275
0.00121994
0.00120927
0.00120038
0.001193
0.00118688
0.00118182
0.00117766
0.00117423
0.00117143
0.00116914
0.00116729
0.00116578
0.00116458
0.00116361
0.00116283
0.00116222
0.00116174
0.00116137
0.00116107
0.00116085
0.00116068
0.00116055
0.00116046
0.00116039
0.00116035
0.00116032
0.0011603
0.00116029
0.00116028
0.00116028
0.00116028
0.00116029
0.0011603
0.0011603
0.00116031
0.00116032
0.00116033
0.00116033
0.00116034
0.00116034
0.00116035
0.00116035
0.00116036
0.00116036
0.00116036
0.00116036
0.00116037
0.00116037
0.00116037
0.00116037
0.00116037
0.00116037
0.00116037
0.00116035
0.000538586
0.000540501
0.000544248
0.000550556
0.000560853
0.000577274
0.000602865
0.000641551
0.000697687
0.000775175
0.000876494
0.001002
0.0011493
0.00131266
0.00148346
0.00165147
0.00180666
0.00194132
0.00205182
0.0021388
0.00220577
0.00225715
0.00229638
0.00232488
0.00234175
0.00234446
0.00233003
0.00229624
0.00224262
0.00217087
0.00208469
0.00198931
0.00189051
0.00179362
0.00170272
0.00162025
0.0015473
0.00148401
0.00143
0.00138453
0.00134659
0.00131508
0.00128892
0.00126716
0.00124902
0.00123387
0.0012212
0.00121061
0.00120176
0.00119438
0.00118822
0.00118311
0.00117886
0.00117535
0.00117245
0.00117007
0.00116812
0.00116653
0.00116523
0.00116418
0.00116333
0.00116264
0.00116209
0.00116165
0.0011613
0.00116103
0.00116081
0.00116064
0.0011605
0.0011604
0.00116032
0.00116026
0.00116022
0.00116018
0.00116016
0.00116014
0.00116013
0.00116012
0.00116011
0.00116011
0.00116011
0.0011601
0.0011601
0.0011601
0.0011601
0.0011601
0.0011601
0.0011601
0.0011601
0.0011601
0.0011601
0.0011601
0.0011601
0.0011601
0.0011601
0.0011601
0.00116009
0.00116009
0.00116009
0.00116007
0.000735393
0.000736235
0.000739369
0.000745858
0.000757319
0.000775807
0.000803693
0.000843478
0.000897589
0.000968073
0.00105606
0.00116109
0.00128067
0.00141024
0.0015436
0.00167357
0.00179324
0.00189737
0.00198353
0.00205224
0.00210611
0.00214847
0.00218206
0.00220801
0.00222557
0.00223237
0.00222533
0.00220173
0.00216026
0.00210155
0.00202831
0.00194487
0.00185642
0.00176804
0.00168388
0.00160665
0.00153773
0.00147751
0.00142575
0.00138187
0.00134503
0.00131428
0.00128866
0.00126731
0.00124948
0.00123457
0.00122209
0.00121162
0.00120285
0.0011955
0.00118935
0.00118421
0.00117992
0.00117635
0.00117338
0.00117093
0.0011689
0.00116722
0.00116585
0.00116472
0.00116379
0.00116304
0.00116242
0.00116192
0.00116152
0.00116119
0.00116093
0.00116071
0.00116054
0.0011604
0.00116029
0.0011602
0.00116013
0.00116007
0.00116003
0.00115999
0.00115996
0.00115993
0.00115991
0.0011599
0.00115988
0.00115987
0.00115986
0.00115986
0.00115985
0.00115984
0.00115984
0.00115983
0.00115983
0.00115983
0.00115982
0.00115982
0.00115982
0.00115981
0.00115981
0.00115981
0.0011598
0.0011598
0.0011598
0.00115977
0.000893464
0.000894079
0.000897182
0.000903972
0.000915915
0.000934611
0.000961757
0.000999041
0.00104796
0.00110951
0.00118385
0.00127
0.00136569
0.00146743
0.00157082
0.00167097
0.00176323
0.00184409
0.00191186
0.00196689
0.00201103
0.0020467
0.00207597
0.00209976
0.00211749
0.00212713
0.00212577
0.00211055
0.00207958
0.00203264
0.00197148
0.00189953
0.00182131
0.00174153
0.00166425
0.00159236
0.00152753
0.00147037
0.00142087
0.0013786
0.00134289
0.00131294
0.00128789
0.00126697
0.00124948
0.00123483
0.00122255
0.00121223
0.00120357
0.00119629
0.00119018
0.00118505
0.00118076
0.00117716
0.00117415
0.00117165
0.00116956
0.00116782
0.00116638
0.00116519
0.00116421
0.00116339
0.00116272
0.00116217
0.00116171
0.00116133
0.00116103
0.00116077
0.00116056
0.00116039
0.00116025
0.00116013
0.00116003
0.00115995
0.00115989
0.00115983
0.00115979
0.00115975
0.00115971
0.00115969
0.00115966
0.00115964
0.00115962
0.00115961
0.0011596
0.00115958
0.00115957
0.00115956
0.00115956
0.00115955
0.00115954
0.00115954
0.00115953
0.00115953
0.00115952
0.00115952
0.00115951
0.00115951
0.0011595
0.00115948
0.0010079
0.00100892
0.00101234
0.0010193
0.00103112
0.00104913
0.0010746
0.00110856
0.00115177
0.00120451
0.00126641
0.00133638
0.00141249
0.00149216
0.00157234
0.00164979
0.00172145
0.001785
0.00183924
0.00188436
0.00192156
0.00195254
0.00197874
0.00200089
0.00201852
0.00203001
0.00203283
0.0020242
0.00200197
0.00196529
0.00191506
0.00185387
0.0017855
0.00171419
0.00164381
0.00157734
0.00151663
0.00146258
0.00141538
0.00137476
0.00134023
0.0013111
0.00128665
0.00126617
0.00124902
0.00123465
0.00122258
0.00121243
0.0012039
0.00119672
0.00119068
0.00118559
0.00118132
0.00117772
0.00117471
0.00117218
0.00117006
0.00116828
0.0011668
0.00116556
0.00116453
0.00116367
0.00116295
0.00116235
0.00116186
0.00116144
0.00116109
0.00116081
0.00116057
0.00116036
0.00116019
0.00116005
0.00115993
0.00115983
0.00115975
0.00115968
0.00115961
0.00115956
0.00115952
0.00115948
0.00115945
0.00115942
0.00115939
0.00115937
0.00115935
0.00115933
0.00115932
0.0011593
0.00115929
0.00115928
0.00115927
0.00115926
0.00115926
0.00115925
0.00115924
0.00115924
0.00115923
0.00115923
0.00115922
0.0011592
0.00108312
0.0010849
0.0010889
0.00109616
0.00110782
0.00112493
0.00114841
0.00117889
0.00121666
0.00126158
0.00131304
0.00136992
0.00143064
0.00149334
0.00155598
0.00161649
0.00167294
0.00172381
0.00176826
0.0018063
0.00183867
0.00186645
0.0018906
0.00191159
0.00192905
0.0019417
0.00194745
0.00194382
0.00192859
0.00190054
0.00185992
0.00180852
0.00174939
0.00168624
0.00162266
0.00156161
0.00150508
0.00145418
0.00140931
0.0013704
0.00133708
0.00130882
0.00128499
0.00126497
0.00124817
0.00123407
0.00122222
0.00121225
0.00120386
0.00119679
0.00119084
0.00118582
0.00118158
0.00117802
0.00117501
0.00117248
0.00117035
0.00116856
0.00116706
0.00116579
0.00116473
0.00116384
0.00116309
0.00116246
0.00116193
0.00116149
0.00116111
0.0011608
0.00116053
0.00116031
0.00116012
0.00115996
0.00115982
0.0011597
0.0011596
0.00115951
0.00115944
0.00115938
0.00115932
0.00115927
0.00115923
0.0011592
0.00115916
0.00115914
0.00115911
0.00115909
0.00115907
0.00115906
0.00115904
0.00115903
0.00115902
0.001159
0.00115899
0.00115899
0.00115898
0.00115897
0.00115896
0.00115896
0.00115895
0.00115893
0.00112801
0.00113055
0.00113516
0.00114272
0.00115419
0.00117041
0.00119204
0.00121942
0.00125253
0.00129096
0.00133399
0.00138057
0.00142944
0.0014793
0.00152885
0.00157684
0.00162213
0.00166375
0.0017011
0.00173407
0.00176305
0.00178865
0.00181143
0.00183163
0.00184892
0.00186227
0.00187002
0.00187004
0.00186026
0.00183927
0.00180684
0.00176412
0.00171346
0.001658
0.001601
0.00154528
0.00149293
0.00144522
0.00140273
0.00136557
0.00133352
0.00130616
0.00128299
0.00126344
0.00124699
0.00123316
0.00122153
0.00121174
0.00120349
0.00119654
0.00119068
0.00118574
0.00118156
0.00117804
0.00117507
0.00117255
0.00117044
0.00116865
0.00116714
0.00116587
0.00116479
0.00116388
0.00116312
0.00116247
0.00116192
0.00116146
0.00116107
0.00116073
0.00116045
0.00116021
0.00116
0.00115982
0.00115967
0.00115954
0.00115943
0.00115934
0.00115925
0.00115918
0.00115912
0.00115906
0.00115902
0.00115897
0.00115894
0.00115891
0.00115888
0.00115885
0.00115883
0.00115881
0.00115879
0.00115878
0.00115876
0.00115875
0.00115874
0.00115873
0.00115872
0.00115871
0.00115871
0.0011587
0.00115869
0.00115866
0.00115218
0.00115533
0.0011604
0.00116815
0.00117939
0.0011948
0.00121481
0.00123955
0.00126879
0.00130198
0.00133835
0.00137693
0.00141675
0.00145692
0.00149668
0.00153538
0.00157241
0.00160719
0.00163928
0.0016685
0.00169498
0.00171901
0.00174083
0.00176047
0.00177758
0.00179135
0.00180042
0.00180304
0.00179739
0.00178204
0.00175644
0.00172122
0.00167814
0.00162979
0.00157902
0.0015285
0.00148029
0.00143578
0.00139571
0.00136035
0.00132961
0.0013032
0.00128071
0.00126165
0.00124557
0.00123201
0.00122059
0.00121097
0.00120287
0.00119603
0.00119027
0.0011854
0.00118129
0.00117782
0.00117489
0.00117241
0.00117031
0.00116854
0.00116704
0.00116577
0.0011647
0.00116379
0.00116302
0.00116237
0.00116181
0.00116134
0.00116093
0.00116059
0.0011603
0.00116005
0.00115983
0.00115965
0.00115949
0.00115935
0.00115923
0.00115913
0.00115904
0.00115896
0.0011589
0.00115884
0.00115878
0.00115874
0.0011587
0.00115866
0.00115863
0.00115861
0.00115858
0.00115856
0.00115854
0.00115852
0.00115851
0.0011585
0.00115848
0.00115847
0.00115846
0.00115845
0.00115845
0.00115844
0.00115843
0.0011584
0.00116378
0.00116728
0.00117259
0.00118037
0.00119131
0.00120594
0.00122454
0.00124706
0.00127313
0.00130211
0.0013332
0.00136556
0.00139842
0.0014312
0.00146354
0.00149522
0.00152599
0.00155557
0.00158361
0.0016099
0.0016344
0.00165715
0.00167818
0.00169735
0.00171427
0.00172824
0.00173817
0.00174264
0.00174007
0.00172912
0.0017091
0.00168025
0.00164384
0.00160192
0.00155698
0.00151142
0.00146726
0.00142593
0.00138831
0.00135479
0.00132541
0.00129999
0.00127821
0.00125967
0.00124396
0.00123069
0.00121948
0.00121003
0.00120206
0.00119533
0.00118966
0.00118487
0.00118082
0.00117741
0.00117452
0.00117208
0.00117001
0.00116827
0.00116679
0.00116553
0.00116447
0.00116357
0.0011628
0.00116215
0.0011616
0.00116112
0.00116072
0.00116038
0.00116008
0.00115983
0.00115961
0.00115942
0.00115926
0.00115912
0.00115899
0.00115889
0.0011588
0.00115872
0.00115865
0.00115858
0.00115853
0.00115848
0.00115844
0.00115841
0.00115837
0.00115834
0.00115832
0.0011583
0.00115828
0.00115826
0.00115824
0.00115823
0.00115822
0.0011582
0.00115819
0.00115818
0.00115818
0.00115817
0.00115816
0.00115813
0.00116857
0.00117219
0.00117753
0.00118519
0.00119573
0.0012096
0.00122693
0.00124756
0.001271
0.00129657
0.00132345
0.00135089
0.0013783
0.00140533
0.00143192
0.00145814
0.00148403
0.00150948
0.00153425
0.00155811
0.00158089
0.00160249
0.00162277
0.00164146
0.00165814
0.00167216
0.00168262
0.00168837
0.00168808
0.00168055
0.00166503
0.00164151
0.00161086
0.00157469
0.0015351
0.00149422
0.00145397
0.00141578
0.00138061
0.00134895
0.00132097
0.00129658
0.00127554
0.00125755
0.00124223
0.00122925
0.00121826
0.00120897
0.00120113
0.00119451
0.00118893
0.00118421
0.00118023
0.00117686
0.00117402
0.00117162
0.00116959
0.00116787
0.00116641
0.00116518
0.00116413
0.00116324
0.00116249
0.00116185
0.0011613
0.00116083
0.00116043
0.00116009
0.0011598
0.00115954
0.00115933
0.00115914
0.00115898
0.00115884
0.00115872
0.00115861
0.00115852
0.00115844
0.00115837
0.00115831
0.00115825
0.0011582
0.00115816
0.00115812
0.00115809
0.00115806
0.00115804
0.00115801
0.00115799
0.00115798
0.00115796
0.00115795
0.00115793
0.00115792
0.00115791
0.0011579
0.00115789
0.00115789
0.00115788
0.00115785
0.00117006
0.00117364
0.00117886
0.00118627
0.00119636
0.00120947
0.00122566
0.00124465
0.0012659
0.00128865
0.0013121
0.00133558
0.00135862
0.00138108
0.00140309
0.00142494
0.00144688
0.00146894
0.00149095
0.00151267
0.00153387