/*--------------------------------*- C++ -*----------------------------------*\
| =========                 |                                                 |
| \\      /  F ield         | OpenFOAM: The Open Source CFD Toolbox           |
|  \\    /   O peration     | Version:  2.1.1                                 |
|   \\  /    A nd           | Web:      www.OpenFOAM.org                      |
|    \\/     M anipulation  |                                                 |
\*---------------------------------------------------------------------------*/
FoamFile
{
    version     2.0;
    format      ascii;
    class       volScalarField;
    location    "0.015";
    object      p;
}
// * * * * * * * * * * * * * * * * * * * * * * * * * * * * * * * * * * * * * //

dimensions      [0 2 -2 0 0 0 0];

internalField   nonuniform List<scalar> 
6820
(
-8.82595
-10.6748
-11.2567
-11.3955
-11.516
-11.6122
-11.6869
-11.7569
-11.8265
-11.8961
-11.9668
-12.0396
-12.1148
-12.1928
-12.274
-12.3589
-12.4477
-12.541
-12.6391
-12.7426
-12.8517
-12.9671
-13.0886
-13.2181
-13.3617
-13.519
-13.6909
-13.8798
-14.0882
-14.3223
-14.5857
-14.8974
-15.257
-12.7776
-12.2452
-11.8306
-11.6507
-11.639
-11.6668
-11.7071
-11.7584
-11.8174
-11.8812
-11.9487
-12.0198
-12.0942
-12.172
-12.2532
-12.3381
-12.427
-12.5204
-12.6185
-12.722
-12.8314
-12.9478
-13.0728
-13.2075
-13.3528
-13.5101
-13.6812
-13.8688
-14.0746
-14.3053
-14.5585
-14.8704
-15.1802
-11.1346
-10.8331
-11.1265
-11.3802
-11.5007
-11.593
-11.6719
-11.7444
-11.815
-11.8852
-11.9561
-12.0285
-12.1031
-12.1802
-12.2604
-12.3441
-12.4317
-12.5237
-12.6206
-12.7229
-12.8313
-12.9468
-13.0703
-13.2005
-13.3424
-13.4967
-13.6645
-13.8475
-14.0472
-14.2679
-14.5065
-14.7785
-15.0311
-11.6404
-11.6775
-11.6839
-11.6342
-11.6386
-11.6753
-11.7213
-11.7731
-11.8303
-11.8915
-11.9562
-12.0241
-12.0954
-12.1702
-12.2486
-12.3308
-12.4172
-12.5082
-12.604
-12.7053
-12.8122
-12.9271
-13.0482
-13.1808
-13.3223
-13.4751
-13.6402
-13.8192
-14.0128
-14.2238
-14.4478
-14.6943
-14.9211
-11.4829
-11.3835
-11.434
-11.5123
-11.5788
-11.6421
-11.7025
-11.7628
-11.8248
-11.8887
-11.9549
-12.0235
-12.0949
-12.1694
-12.2472
-12.3286
-12.4141
-12.504
-12.5988
-12.699
-12.8057
-12.9176
-13.0379
-13.1674
-13.3056
-13.4544
-13.6148
-13.7876
-13.9734
-14.1733
-14.3836
-14.608
-14.8206
-11.5371
-11.5237
-11.5548
-11.5878
-11.6227
-11.6681
-11.7189
-11.773
-11.8306
-11.8911
-11.9545
-12.0208
-12.0902
-12.1628
-12.2389
-12.3187
-12.4026
-12.4909
-12.5841
-12.6826
-12.7869
-12.8975
-13.0158
-13.1425
-13.2778
-13.423
-13.5786
-13.7453
-13.9232
-14.1128
-14.311
-14.519
-14.7221
-11.5305
-11.5121
-11.5342
-11.5735
-11.6166
-11.6655
-11.7174
-11.7716
-11.8285
-11.8882
-11.9505
-12.0157
-12.0838
-12.1552
-12.2299
-12.3083
-12.3906
-12.4773
-12.5687
-12.6653
-12.7676
-12.876
-12.9915
-13.1147
-13.2461
-13.3864
-13.5361
-13.6957
-13.865
-14.044
-14.2307
-14.4251
-14.6196
-11.5421
-11.5369
-11.5585
-11.5928
-11.6305
-11.6741
-11.7222
-11.7736
-11.8281
-11.8856
-11.9461
-12.0094
-12.0757
-12.1452
-12.2181
-12.2946
-12.375
-12.4596
-12.5488
-12.6429
-12.7425
-12.848
-12.9601
-13.0794
-13.2062
-13.3411
-13.4844
-13.6364
-13.7968
-13.9656
-14.1414
-14.3238
-14.5094
-11.5508
-11.5491
-11.5674
-11.5984
-11.6346
-11.6766
-11.723
-11.7727
-11.8254
-11.8811
-11.9397
-12.0012
-12.0657
-12.1333
-12.2042
-12.2786
-12.3568
-12.4391
-12.5257
-12.6171
-12.7136
-12.8157
-12.9239
-13.0386
-13.1602
-13.289
-13.4252
-13.5691
-13.7203
-13.8787
-14.0434
-14.2141
-14.3896
-11.5595
-11.561
-11.5784
-11.607
-11.641
-11.6803
-11.7242
-11.7716
-11.8221
-11.8758
-11.9323
-11.9917
-12.0541
-12.1195
-12.1882
-12.2602
-12.3359
-12.4154
-12.4991
-12.5873
-12.6803
-12.7784
-12.8821
-12.9917
-13.1075
-13.2297
-13.3584
-13.4937
-13.6353
-13.7831
-13.9366
-14.0955
-14.2595
-11.5675
-11.5705
-11.5867
-11.613
-11.6449
-11.682
-11.7237
-11.769
-11.8175
-11.869
-11.9234
-11.9806
-12.0408
-12.1039
-12.1701
-12.2395
-12.3124
-12.3889
-12.4693
-12.5539
-12.6429
-12.7367
-12.8354
-12.9395
-13.0489
-13.164
-13.2847
-13.411
-13.5427
-13.6796
-13.8215
-13.968
-14.1193
-11.5744
-11.5783
-11.5937
-11.618
-11.648
-11.683
-11.7224
-11.7654
-11.8117
-11.861
-11.9131
-11.968
-12.0257
-12.0863
-12.1498
-12.2164
-12.2862
-12.3594
-12.4363
-12.5169
-12.6016
-12.6905
-12.7838
-12.8818
-12.9845
-13.092
-13.2043
-13.3213
-13.4427
-13.5685
-13.6983
-13.832
-13.9695
-11.5801
-11.5844
-11.599
-11.6215
-11.6496
-11.6825
-11.7197
-11.7605
-11.8046
-11.8515
-11.9013
-11.9537
-12.0089
-12.0667
-12.1274
-12.1909
-12.2574
-12.327
-12.3999
-12.4763
-12.5562
-12.6399
-12.7275
-12.8191
-12.9146
-13.0142
-13.1177
-13.225
-13.3359
-13.4502
-13.5676
-13.6879
-13.811
-11.5845
-11.5888
-11.6026
-11.6236
-11.6498
-11.6807
-11.7158
-11.7544
-11.7961
-11.8406
-11.8879
-11.9378
-11.9902
-12.0451
-12.1027
-12.1629
-12.2258
-12.2916
-12.3603
-12.4321
-12.507
-12.5851
-12.6666
-12.7514
-12.8394
-12.9308
-13.0252
-13.1226
-13.2227
-13.3253
-13.43
-13.5366
-13.6448
-11.5874
-11.5917
-11.6046
-11.6242
-11.6486
-11.6775
-11.7105
-11.7468
-11.7861
-11.8282
-11.8729
-11.9201
-11.9696
-12.0215
-12.0758
-12.1325
-12.1916
-12.2533
-12.3175
-12.3844
-12.4539
-12.5262
-12.6012
-12.6789
-12.7592
-12.842
-12.9272
-13.0145
-13.1036
-13.1942
-13.2861
-13.3788
-13.4721
-11.5888
-11.5929
-11.605
-11.6232
-11.6459
-11.6729
-11.7037
-11.7378
-11.7747
-11.8143
-11.8562
-11.9005
-11.9471
-11.9957
-12.0466
-12.0995
-12.1547
-12.212
-12.2715
-12.3332
-12.3972
-12.4633
-12.5316
-12.602
-12.6743
-12.7484
-12.8241
-12.9011
-12.9791
-13.0578
-13.1368
-13.2157
-13.2941
-11.5887
-11.5925
-11.6038
-11.6206
-11.6417
-11.6668
-11.6955
-11.7272
-11.7617
-11.7987
-11.8379
-11.8792
-11.9226
-11.9679
-12.0151
-12.0641
-12.1151
-12.1678
-12.2224
-12.2787
-12.3368
-12.3966
-12.458
-12.5208
-12.585
-12.6502
-12.7163
-12.783
-12.8499
-12.9167
-12.983
-13.0483
-13.112
-11.5869
-11.5905
-11.601
-11.6165
-11.636
-11.6592
-11.6857
-11.7152
-11.7471
-11.7814
-11.8178
-11.856
-11.8961
-11.9379
-11.9813
-12.0263
-12.0728
-12.1208
-12.1703
-12.221
-12.2731
-12.3263
-12.3806
-12.4358
-12.4916
-12.548
-12.6045
-12.6608
-12.7168
-12.7718
-12.8255
-12.8775
-12.9272
-11.5835
-11.5868
-11.5965
-11.6107
-11.6286
-11.65
-11.6744
-11.7015
-11.731
-11.7625
-11.7959
-11.831
-11.8677
-11.9059
-11.9454
-11.9861
-12.0281
-12.0712
-12.1153
-12.1604
-12.2062
-12.2528
-12.2998
-12.3473
-12.3948
-12.4422
-12.4891
-12.5353
-12.5803
-12.6239
-12.6655
-12.7046
-12.7407
-11.5785
-11.5815
-11.5904
-11.6034
-11.6197
-11.6392
-11.6616
-11.6863
-11.7132
-11.7419
-11.7723
-11.8042
-11.8374
-11.8718
-11.9073
-11.9437
-11.981
-12.019
-12.0577
-12.0969
-12.1365
-12.1762
-12.216
-12.2557
-12.2948
-12.3333
-12.3708
-12.407
-12.4415
-12.4739
-12.5037
-12.5306
-12.5539
-11.5719
-11.5746
-11.5826
-11.5944
-11.6092
-11.6269
-11.6471
-11.6695
-11.6938
-11.7197
-11.7471
-11.7756
-11.8053
-11.8358
-11.8671
-11.8991
-11.9316
-11.9645
-11.9977
-12.0309
-12.0641
-12.0971
-12.1296
-12.1615
-12.1924
-12.2221
-12.2504
-12.2768
-12.301
-12.3226
-12.3413
-12.3565
-12.3678
-11.5636
-11.5661
-11.5733
-11.5839
-11.5972
-11.613
-11.6311
-11.6512
-11.6728
-11.6959
-11.7201
-11.7453
-11.7714
-11.798
-11.8251
-11.8526
-11.8802
-11.9079
-11.9355
-11.9627
-11.9896
-12.0157
-12.041
-12.0652
-12.088
-12.1091
-12.1283
-12.1453
-12.1596
-12.171
-12.1791
-12.1834
-12.1835
-11.5538
-11.556
-11.5624
-11.5718
-11.5836
-11.5976
-11.6136
-11.6313
-11.6503
-11.6705
-11.6916
-11.7135
-11.7358
-11.7585
-11.7814
-11.8043
-11.827
-11.8494
-11.8714
-11.8927
-11.9132
-11.9326
-11.9507
-11.9673
-11.9822
-11.995
-12.0055
-12.0134
-12.0183
-12.02
-12.018
-12.0122
-12.0019
-11.5424
-11.5443
-11.5499
-11.5581
-11.5684
-11.5807
-11.5946
-11.6099
-11.6264
-11.6437
-11.6617
-11.6801
-11.6987
-11.7174
-11.736
-11.7543
-11.7722
-11.7894
-11.8058
-11.8212
-11.8353
-11.8481
-11.8592
-11.8685
-11.8757
-11.8805
-11.8826
-11.8818
-11.8778
-11.8704
-11.8591
-11.8438
-11.8239
-11.5295
-11.5311
-11.5359
-11.543
-11.5519
-11.5623
-11.5742
-11.5872
-11.6011
-11.6156
-11.6304
-11.6454
-11.6604
-11.6752
-11.6895
-11.7032
-11.7162
-11.7282
-11.7391
-11.7486
-11.7566
-11.7629
-11.7672
-11.7694
-11.7691
-11.7662
-11.7604
-11.7514
-11.739
-11.723
-11.7031
-11.679
-11.6505
-11.5151
-11.5165
-11.5205
-11.5265
-11.5338
-11.5426
-11.5524
-11.5631
-11.5744
-11.586
-11.5978
-11.6094
-11.6207
-11.6316
-11.6417
-11.6509
-11.6591
-11.666
-11.6715
-11.6753
-11.6773
-11.6773
-11.6751
-11.6704
-11.663
-11.6528
-11.6394
-11.6228
-11.6026
-11.5787
-11.5508
-11.5188
-11.4823
-11.4994
-11.5005
-11.5038
-11.5086
-11.5147
-11.5217
-11.5297
-11.5382
-11.547
-11.5558
-11.5646
-11.5729
-11.5806
-11.5876
-11.5936
-11.5984
-11.6018
-11.6037
-11.6039
-11.6022
-11.5984
-11.5923
-11.5837
-11.5725
-11.5584
-11.5412
-11.5208
-11.497
-11.4695
-11.4383
-11.4031
-11.3638
-11.3203
-11.4824
-11.4833
-11.4857
-11.4893
-11.4939
-11.4992
-11.5051
-11.5114
-11.5177
-11.5238
-11.5296
-11.5347
-11.539
-11.5422
-11.5442
-11.5447
-11.5436
-11.5407
-11.5359
-11.5289
-11.5195
-11.5077
-11.4931
-11.4758
-11.4553
-11.4317
-11.4048
-11.3743
-11.3402
-11.3023
-11.2605
-11.2147
-11.1647
-11.4643
-11.465
-11.4668
-11.4696
-11.473
-11.477
-11.4813
-11.4855
-11.4896
-11.4932
-11.496
-11.498
-11.4988
-11.4984
-11.4964
-11.4927
-11.4871
-11.4795
-11.4697
-11.4576
-11.4429
-11.4255
-11.4053
-11.382
-11.3556
-11.326
-11.2929
-11.2563
-11.216
-11.172
-11.1242
-11.0725
-11.0169
-11.4451
-11.4452
-11.4457
-11.4468
-11.4485
-11.4506
-11.4529
-11.4551
-11.4569
-11.4581
-11.4583
-11.4575
-11.4552
-11.4514
-11.4459
-11.4384
-11.4288
-11.417
-11.4027
-11.3858
-11.3663
-11.3438
-11.3184
-11.2899
-11.2581
-11.2229
-11.1843
-11.1422
-11.0965
-11.0471
-10.994
-10.9371
-10.8765
-11.4256
-11.4262
-11.4271
-11.4283
-11.4296
-11.4308
-11.4318
-11.4322
-11.4318
-11.4305
-11.4279
-11.4239
-11.4183
-11.4109
-11.4015
-11.39
-11.3762
-11.3599
-11.3411
-11.3195
-11.2951
-11.2677
-11.2372
-11.2035
-11.1666
-11.1262
-11.0825
-11.0352
-10.9844
-10.93
-10.8721
-10.8106
-10.7454
-11.4037
-11.4014
-11.3984
-11.3962
-11.3951
-11.3946
-11.3942
-11.3933
-11.3917
-11.3889
-11.3847
-11.3789
-11.3712
-11.3614
-11.3493
-11.3349
-11.3179
-11.2983
-11.2758
-11.2505
-11.2221
-11.1906
-11.1559
-11.118
-11.0767
-11.032
-10.9839
-10.9323
-10.8773
-10.8187
-10.7567
-10.6914
-10.6226
-11.3878
-11.3915
-11.3926
-11.3924
-11.3914
-11.3896
-11.3869
-11.3834
-11.3787
-11.3725
-11.3648
-11.3552
-11.3436
-11.3298
-11.3137
-11.2951
-11.2739
-11.2499
-11.2231
-11.1933
-11.1605
-11.1246
-11.0854
-11.043
-10.9972
-10.9481
-10.8956
-10.8398
-10.7806
-10.718
-10.6522
-10.5831
-10.5108
-11.3518
-11.3402
-11.33
-11.3257
-11.3248
-11.3248
-11.3244
-11.3231
-11.3203
-11.3158
-11.3091
-11.3
-11.2885
-11.2743
-11.2572
-11.2374
-11.2145
-11.1886
-11.1595
-11.1273
-11.0918
-11.0531
-11.011
-10.9656
-10.9168
-10.8646
-10.8091
-10.7503
-10.6882
-10.6228
-10.5543
-10.4827
-10.408
-11.3775
-11.3903
-11.3888
-11.3808
-11.3722
-11.3641
-11.356
-11.3471
-11.3371
-11.3257
-11.3126
-11.2975
-11.2802
-11.2605
-11.2383
-11.2134
-11.1858
-11.1552
-11.1216
-11.0849
-11.0451
-11.0021
-10.9559
-10.9064
-10.8537
-10.7976
-10.7384
-10.6759
-10.6103
-10.5416
-10.4698
-10.3952
-10.3177
-11.2555
-11.2091
-11.198
-11.2097
-11.2216
-11.2305
-11.237
-11.2408
-11.2414
-11.2387
-11.2325
-11.2228
-11.2098
-11.1932
-11.1732
-11.1498
-11.1229
-11.0926
-11.0588
-11.0216
-10.9809
-10.9369
-10.8895
-10.8387
-10.7846
-10.7272
-10.6667
-10.6029
-10.5361
-10.4662
-10.3933
-10.3176
-10.2392
-11.4824
-11.512
-11.4696
-11.4175
-11.3853
-11.365
-11.3471
-11.3297
-11.3126
-11.295
-11.2761
-11.2554
-11.2328
-11.2078
-11.1803
-11.1501
-11.1171
-11.0812
-11.0422
-11.0001
-10.9549
-10.9066
-10.855
-10.8003
-10.7423
-10.6813
-10.6171
-10.5499
-10.4797
-10.4066
-10.3308
-10.2524
-10.1715
-10.9886
-10.8687
-10.9274
-11.0258
-11.0791
-11.1108
-11.1359
-11.1532
-11.163
-11.1663
-11.164
-11.1565
-11.1442
-11.1275
-11.1064
-11.0813
-11.0522
-11.0193
-10.9827
-10.9425
-10.8988
-10.8517
-10.8012
-10.7475
-10.6906
-10.6306
-10.5675
-10.5016
-10.4327
-10.361
-10.2865
-10.2093
-10.1294
-12.194
-11.852
-11.5833
-11.4533
-11.3973
-11.3589
-11.3268
-11.3008
-11.2783
-11.2567
-11.2347
-11.2116
-11.1867
-11.1596
-11.1299
-11.0976
-11.0623
-11.0239
-10.9824
-10.9377
-10.8898
-10.8387
-10.7844
-10.7269
-10.6662
-10.6025
-10.5359
-10.4663
-10.394
-10.3191
-10.2416
-10.1617
-10.0795
-9.68645
-10.3907
-10.7861
-10.9296
-11.0187
-11.0852
-11.1262
-11.1494
-11.1612
-11.164
-11.1593
-11.1485
-11.1323
-11.1113
-11.086
-11.0564
-11.023
-10.9859
-10.9453
-10.9012
-10.8539
-10.8035
-10.75
-10.6938
-10.6347
-10.5731
-10.5088
-10.4421
-10.3728
-10.3011
-10.2269
-10.1501
-10.0708
-15.7112
-14.2841
-14.3229
-15.4821
-17.3919
-19.6301
-21.8881
-24.0297
-25.9176
-27.4117
-28.352
-28.5642
-27.9036
-26.3789
-24.0997
-21.2555
-18.2392
-15.3773
-12.8056
-10.5665
-8.63778
-6.98287
-5.57008
-4.36888
-3.35152
-2.49389
-1.775
-1.17655
-0.682642
-0.279253
0.0460782
0.304545
0.506286
0.660547
0.77576
0.859436
0.917934
0.956315
0.978505
0.987635
0.986336
0.97686
0.961121
0.9407
0.916884
0.890703
0.862984
0.834383
0.805416
0.776488
0.747908
0.719908
0.692656
0.66627
0.640826
0.616366
0.592908
0.570447
0.548964
0.528427
0.508796
0.490025
0.472062
0.454856
0.43835
0.42249
0.407224
0.392497
0.378259
0.364462
0.35106
0.338007
0.325264
0.312792
0.300553
0.288515
0.276647
0.26492
0.253307
0.241784
0.230328
0.21892
0.20754
0.196171
0.184797
0.173405
0.161981
0.150513
0.13899
0.127403
0.11574
0.103996
0.0921583
0.0802265
0.0681781
0.0560367
0.043729
0.031382
0.0186981
0.00627525
-15.8671
-15.3125
-15.25
-16.0802
-17.4307
-19.1545
-21.0675
-22.9478
-24.6233
-25.9136
-26.6504
-26.7131
-26.0558
-24.6675
-22.6241
-20.1355
-17.4897
-14.8982
-12.519
-10.4166
-8.58327
-6.99533
-5.62893
-4.45924
-3.46258
-2.61766
-1.90545
-1.30916
-0.813994
-0.406821
-0.0758836
0.189438
0.398816
0.56111
0.684406
0.775924
0.841815
0.887053
0.915567
0.930534
0.934623
0.930115
0.918937
0.902688
0.882672
0.859944
0.835354
0.809582
0.783171
0.756548
0.730044
0.703913
0.678342
0.653469
0.629383
0.606144
0.583783
0.562306
0.541706
0.521962
0.503042
0.484907
0.467515
0.450819
0.43477
0.419319
0.404417
0.390016
0.376068
0.36253
0.349357
0.33651
0.323948
0.311636
0.29954
0.287629
0.275872
0.264244
0.252717
0.24127
0.229883
0.218533
0.207205
0.195881
0.184548
0.173191
0.161797
0.150356
0.138856
0.127288
0.115643
0.103914
0.0920892
0.0801694
0.0681323
0.0559997
0.043702
0.0313582
0.0186891
0.00625312
-15.3848
-15.0825
-15.111
-15.8906
-17.1717
-18.7353
-20.4048
-22.0037
-23.3906
-24.433
-25.0115
-25.0272
-24.4114
-23.141
-21.3223
-19.1342
-16.7643
-14.413
-12.2241
-10.2583
-8.52145
-7.00191
-5.68329
-4.5463
-3.57132
-2.7399
-2.03509
-1.4416
-0.945755
-0.535295
-0.199163
0.0726961
0.289485
0.459659
0.590948
0.69027
0.763567
0.815715
0.850638
0.871545
0.881134
0.881704
0.875198
0.863229
0.84712
0.827949
0.806588
0.783742
0.759978
0.735746
0.7114
0.687213
0.663394
0.640096
0.617427
0.595463
0.574246
0.553797
0.53412
0.515204
0.497026
0.479557
0.462762
0.446599
0.431028
0.416004
0.401483
0.387422
0.373778
0.36051
0.347577
0.334944
0.322572
0.310429
0.298482
0.286703
0.275063
0.263537
0.252102
0.240735
0.229417
0.21813
0.206855
0.195579
0.184287
0.172967
0.161605
0.150191
0.138715
0.127168
0.115542
0.103829
0.0920182
0.0801104
0.0680846
0.0559606
0.043674
0.0313336
0.018682
0.00623104
-15.2319
-15.2853
-15.5015
-16.1997
-17.2468
-18.499
-19.845
-21.1519
-22.2941
-23.1498
-23.5986
-23.5354
-22.9147
-21.7633
-20.1461
-18.1906
-16.0661
-13.9386
-11.9278
-10.0938
-8.45271
-7.00219
-5.73245
-4.62931
-3.67705
-2.86005
-2.16343
-1.57344
-1.07753
-0.66431
-0.323424
-0.0453803
0.178548
0.356403
0.49555
0.602603
0.683289
0.742381
0.783781
0.810713
0.825897
0.831646
0.829913
0.822325
0.810225
0.794709
0.776674
0.756848
0.735821
0.714064
0.691955
0.669788
0.647789
0.626131
0.604939
0.584302
0.564279
0.544903
0.52619
0.508138
0.490737
0.473963
0.457791
0.442186
0.427114
0.412536
0.398414
0.384709
0.371382
0.358397
0.345716
0.333306
0.321133
0.309166
0.297375
0.285734
0.274216
0.262798
0.251458
0.240175
0.228931
0.217708
0.20649
0.195264
0.184015
0.172732
0.161403
0.150018
0.138568
0.127043
0.115436
0.10374
0.0919441
0.0800489
0.0680349
0.0559201
0.0436453
0.0313085
0.0186769
0.00620922
-15.0859
-15.2409
-15.4891
-16.0846
-16.9785
-18.0551
-19.2096
-20.3217
-21.2735
-21.9572
-22.2779
-22.1626
-21.5736
-20.5206
-19.0638
-17.3143
-15.4086
-13.4808
-11.6335
-9.92485
-8.37747
-6.99583
-5.77568
-4.70741
-3.77892
-2.9773
-2.28974
-1.70401
-1.2087
-0.793312
-0.448172
-0.16436
0.0663703
0.251641
0.398452
0.513112
0.60113
0.667164
0.715079
0.748101
0.768958
0.779971
0.783101
0.779988
0.771989
0.760222
0.745604
0.728888
0.710683
0.691486
0.671693
0.651618
0.631509
0.611555
0.591899
0.572645
0.553866
0.535609
0.517901
0.500753
0.484161
0.468114
0.452593
0.437572
0.423021
0.40891
0.395205
0.381872
0.368877
0.356187
0.343769
0.331593
0.319627
0.307845
0.296217
0.284721
0.27333
0.262025
0.250784
0.239589
0.228422
0.217266
0.206108
0.194933
0.18373
0.172487
0.161193
0.149838
0.138414
0.126913
0.115326
0.103647
0.0918668
0.0799849
0.0679833
0.0558781
0.0436158
0.0312829
0.018674
0.00618788
-14.9692
-15.2003
-15.5105
-16.0623
-16.8332
-17.7346
-18.6832
-19.5854
-20.3453
-20.8729
-21.0873
-20.9251
-20.3549
-19.3881
-18.0756
-16.5062
-14.7909
-13.0405
-11.3429
-9.75274
-8.29612
-6.98261
-5.81243
-4.77991
-3.87621
-3.09099
-2.41341
-1.83275
-1.33877
-0.921848
-0.573001
-0.283889
-0.0467482
0.145623
0.299858
0.421961
0.517221
0.590167
0.644612
0.683767
0.710358
0.726707
0.73478
0.736225
0.732414
0.724484
0.713372
0.69985
0.684553
0.667995
0.650594
0.632686
0.614536
0.59635
0.57829
0.560474
0.54299
0.525899
0.509239
0.493032
0.477286
0.461998
0.447156
0.432744
0.418739
0.405116
0.391846
0.378903
0.366255
0.353874
0.341732
0.3298
0.318052
0.306462
0.295005
0.28366
0.272403
0.261216
0.250079
0.238975
0.227889
0.216804
0.205708
0.194588
0.183432
0.172231
0.160973
0.14965
0.138253
0.126776
0.11521
0.10355
0.091786
0.079918
0.0679296
0.0558346
0.0435855
0.0312568
0.0186729
0.00616723
-14.8548
-15.1147
-15.4381
-15.9276
-16.5794
-17.3318
-18.1166
-18.8556
-19.4656
-19.8684
-19.9961
-19.7978
-19.2495
-18.3603
-17.1726
-15.7591
-14.2106
-12.6183
-11.0574
-9.57837
-8.20906
-6.96246
-5.8423
-4.84625
-3.96831
-3.20049
-2.53385
-1.95915
-1.46727
-1.04949
-0.697531
-0.403631
-0.160515
0.0385996
0.199979
0.329324
0.431702
0.511503
0.572467
0.617778
0.650148
0.671892
0.684975
0.691053
0.69151
0.687497
0.679973
0.669729
0.657419
0.643578
0.628646
0.612976
0.596852
0.580499
0.564094
0.547772
0.531635
0.515756
0.500188
0.484962
0.470098
0.455602
0.44147
0.427695
0.414259
0.401146
0.388332
0.375795
0.36351
0.351453
0.339598
0.327923
0.316402
0.305014
0.293736
0.282549
0.271433
0.260369
0.249341
0.238333
0.227331
0.21632
0.205289
0.194226
0.18312
0.171962
0.160742
0.149453
0.138085
0.126633
0.115089
0.103448
0.0917016
0.0798482
0.0678736
0.0557893
0.0435542
0.0312301
0.0186732
0.00614744
-14.7339
-15.0015
-15.3241
-15.7629
-16.3187
-16.9458
-17.588
-18.1809
-18.656
-18.9482
-19.0013
-18.7736
-18.2452
-17.424
-16.3451
-15.0675
-13.6652
-12.2138
-10.7776
-9.40254
-8.11676
-6.93547
-5.8651
-4.90602
-4.0547
-3.30528
-2.65055
-2.0827
-1.59374
-1.17582
-0.821383
-0.523249
-0.274631
-0.0691701
0.0990379
0.235394
0.344735
0.431302
0.498751
0.550218
0.588391
0.615573
0.633723
0.644499
0.649294
0.649274
0.645414
0.638524
0.629278
0.618231
0.605839
0.592477
0.578446
0.563989
0.549298
0.534525
0.519786
0.505168
0.490735
0.476532
0.462586
0.448915
0.435524
0.422413
0.409572
0.396991
0.384654
0.372542
0.360637
0.348918
0.337365
0.325957
0.314674
0.303498
0.292407
0.281386
0.270415
0.259481
0.248567
0.23766
0.226746
0.215813
0.20485
0.193847
0.182793
0.171681
0.160501
0.149246
0.137909
0.126483
0.114963
0.103342
0.0916132
0.0797753
0.0678151
0.0557421
0.0435217
0.0312027
0.0186743
0.00612869
-14.6022
-14.8633
-15.1702
-15.5579
-16.027
-16.5442
-17.0639
-17.5335
-17.896
-18.0969
-18.0893
-17.8391
-17.3302
-16.5694
-15.5854
-14.4263
-13.1526
-11.827
-10.5043
-9.22606
-8.0198
-6.90193
-5.88081
-4.95899
-4.13502
-3.4049
-2.76304
-2.20295
-1.71774
-1.30044
-0.944192
-0.64241
-0.388798
-0.177418
-0.00272737
0.140375
0.256495
0.349712
0.423583
0.481183
0.525167
0.557813
0.581072
0.596599
0.605794
0.609834
0.609709
0.606246
0.600135
0.591952
0.582171
0.571185
0.559311
0.546811
0.533894
0.520725
0.507435
0.494126
0.480872
0.467731
0.454741
0.441929
0.42931
0.416891
0.404672
0.392646
0.380806
0.369138
0.35763
0.346265
0.335026
0.323899
0.312865
0.301909
0.291015
0.280167
0.26935
0.258551
0.247757
0.236954
0.226133
0.215282
0.20439
0.193449
0.18245
0.171386
0.160248
0.149029
0.137724
0.126327
0.11483
0.103231
0.0915207
0.079699
0.0677541
0.055693
0.0434879
0.0311747
0.0186755
0.00611112
-14.4582
-14.7043
-14.9875
-15.3266
-15.7202
-16.1432
-16.5584
-16.9227
-17.189
-17.3123
-17.2539
-16.9859
-16.4954
-15.7878
-14.8866
-13.8311
-12.6706
-11.4573
-10.2379
-9.04974
-7.91888
-6.86229
-5.88963
-5.00513
-4.20906
-3.49906
-2.87096
-2.31952
-1.8389
-1.42297
-1.06561
-0.760787
-0.502714
-0.28587
-0.105071
0.0444844
0.16717
0.266893
0.347097
0.410786
0.460565
0.498686
0.527081
0.547401
0.561048
0.569207
0.57288
0.572909
0.570002
0.564751
0.557647
0.5491
0.539447
0.528965
0.517877
0.506366
0.494576
0.482621
0.470591
0.458553
0.446556
0.434638
0.422823
0.411124
0.399551
0.388105
0.376784
0.36558
0.354485
0.343489
0.33258
0.321745
0.310972
0.300247
0.289557
0.278891
0.268235
0.257577
0.246908
0.236216
0.225491
0.214725
0.203908
0.193033
0.182091
0.171077
0.159983
0.148803
0.137531
0.126162
0.114691
0.103114
0.0914239
0.0796191
0.0676902
0.0556419
0.0434527
0.0311459
0.0186759
0.00609482
-14.302
-14.528
-14.7827
-15.0749
-15.4015
-15.7426
-16.0683
-16.3429
-16.528
-16.5865
-16.4864
-16.2051
-15.732
-15.0715
-14.2428
-13.278
-12.2175
-11.1045
-9.97919
-8.87444
-7.81481
-6.81714
-5.89191
-5.04455
-4.27676
-3.58753
-2.97401
-2.43207
-1.95686
-1.54308
-1.18529
-0.878061
-0.61608
-0.394249
-0.20774
-0.0520481
0.0769617
0.18302
0.269443
0.33915
0.394691
0.438279
0.471824
0.496965
0.515104
0.527431
0.534958
0.53854
0.538898
0.536641
0.532277
0.526232
0.518859
0.510451
0.501249
0.491448
0.481207
0.470654
0.45989
0.448994
0.438028
0.427038
0.416057
0.405108
0.394208
0.383365
0.372584
0.361863
0.3512
0.340589
0.330023
0.319494
0.308993
0.298509
0.288033
0.277556
0.267068
0.256559
0.24602
0.235443
0.22482
0.214143
0.203404
0.192597
0.181716
0.170753
0.159705
0.148565
0.137328
0.12599
0.114546
0.102992
0.0913226
0.0795357
0.0676236
0.0555886
0.0434158
0.0311164
0.0186748
0.00607982
-14.1348
-14.3377
-14.5615
-14.8092
-15.0763
-15.3466
-15.5957
-15.7942
-15.9108
-15.9151
-15.7808
-15.4895
-15.0327
-14.4139
-13.6489
-12.7637
-11.7916
-10.7685
-9.72859
-8.70104
-7.70845
-6.76719
-5.8881
-5.07749
-4.33815
-3.67023
-3.07198
-2.54033
-2.07132
-1.66044
-1.30293
-0.993922
-0.728599
-0.502275
-0.310473
-0.148985
-0.013916
0.0982792
0.190782
0.266416
0.327663
0.376691
0.415383
0.445361
0.468022
0.484557
0.495985
0.503171
0.50685
0.507644
0.506078
0.502593
0.497557
0.491279
0.484015
0.475974
0.46733
0.458224
0.448769
0.439055
0.429156
0.419127
0.409012
0.398842
0.38864
0.378424
0.368204
0.357986
0.347772
0.337563
0.327355
0.317144
0.306926
0.296694
0.286442
0.276162
0.265849
0.255494
0.245092
0.234635
0.224118
0.213534
0.202877
0.192141
0.181323
0.170415
0.159415
0.148317
0.137117
0.125811
0.114394
0.102865
0.0912167
0.0794486
0.0675539
0.0555331
0.0433772
0.031086
0.0186717
0.00606611
-13.9579
-14.1361
-14.3283
-14.5342
-14.7484
-14.9572
-15.1406
-15.2747
-15.3337
-15.2928
-15.1308
-14.8324
-14.391
-13.8094
-13.1004
-12.2853
-11.3915
-10.4489
-9.48664
-8.53035
-7.60067
-6.71318
-5.87876
-5.10429
-4.39338
-3.74713
-3.16476
-2.64409
-2.18201
-1.77476
-1.41822
-1.10807
-0.839979
-0.609665
-0.413004
-0.24608
-0.10524
0.0128709
0.11129
0.192734
0.259611
0.314036
0.357855
0.392672
0.419871
0.440643
0.456009
0.466844
0.473893
0.477791
0.479076
0.478204
0.475558
0.471463
0.466186
0.459954
0.452954
0.445337
0.437232
0.428739
0.419943
0.410908
0.401689
0.392325
0.382848
0.373283
0.363646
0.35395
0.344203
0.33441
0.324574
0.314695
0.304771
0.294801
0.284782
0.274708
0.264577
0.254384
0.244124
0.233793
0.223386
0.212898
0.202327
0.191666
0.180913
0.170062
0.159112
0.148058
0.136896
0.125623
0.114236
0.102732
0.0911063
0.0793578
0.0674814
0.0554754
0.0433368
0.0310548
0.0186662
0.00605361
-13.7729
-13.9258
-14.0869
-14.2539
-14.4209
-14.5763
-14.7036
-14.7831
-14.7939
-14.7157
-14.5312
-14.2283
-13.8014
-13.253
-12.5934
-11.8402
-11.0159
-10.1455
-9.25378
-8.36315
-7.4923
-6.65585
-5.86447
-5.12534
-4.44266
-3.81829
-3.25225
-2.74318
-2.28871
-1.88578
-1.53087
-1.22022
-0.949929
-0.71614
-0.515065
-0.343081
-0.196778
-0.0729955
0.0311533
0.118271
0.190681
0.250438
0.299349
0.338991
0.370732
0.395758
0.415092
0.429612
0.440072
0.447119
0.451302
0.453092
0.452886
0.45102
0.447779
0.443402
0.438088
0.432004
0.425287
0.418053
0.410393
0.402385
0.394092
0.385561
0.376834
0.367942
0.358909
0.349754
0.340492
0.331132
0.321682
0.312147
0.30253
0.292832
0.283054
0.273195
0.263253
0.253228
0.243116
0.232915
0.222623
0.212236
0.201753
0.19117
0.180485
0.169695
0.158796
0.147787
0.136665
0.125427
0.114071
0.102593
0.0909913
0.0792633
0.0674058
0.0554155
0.0432945
0.0310227
0.0186581
0.00604221
-13.5812
-13.7092
-13.8403
-13.9713
-14.0964
-14.2054
-14.2847
-14.3181
-14.2886
-14.1797
-13.9774
-13.6719
-13.2588
-12.7402
-12.1245
-11.4261
-10.6637
-9.85803
-9.03034
-8.2001
-7.38411
-6.59593
-5.84583
-5.14106
-4.48624
-3.8838
-3.33444
-2.83748
-2.39123
-1.99327
-1.64064
-1.33008
-1.05817
-0.821419
-0.616385
-0.439732
-0.288292
-0.159101
-0.0494304
0.0432017
0.121028
0.186036
0.239987
0.284424
0.320698
0.349984
0.373302
0.391534
0.405439
0.415672
0.422796
0.427291
0.429568
0.429977
0.428816
0.426336
0.42275
0.418237
0.412947
0.407005
0.400516
0.393566
0.386226
0.378556
0.370603
0.362407
0.353998
0.345403
0.336642
0.32773
0.31868
0.309502
0.300202
0.290787
0.281259
0.271622
0.261878
0.252026
0.242068
0.232002
0.22183
0.211548
0.201157
0.190655
0.180041
0.169312
0.158468
0.147507
0.136426
0.125224
0.113899
0.102449
0.0908718
0.0791651
0.0673274
0.0553534
0.0432504
0.0309897
0.0186476
0.00603177
-13.3845
-13.4883
-13.5909
-13.689
-13.7768
-13.8456
-13.8839
-13.8784
-13.8154
-13.6814
-13.4652
-13.1588
-12.7589
-12.2671
-11.6905
-11.0409
-10.3335
-9.58611
-8.81653
-8.04177
-7.27682
-6.53412
-5.82343
-5.15192
-4.52443
-3.94383
-3.41136
-2.92692
-2.48943
-2.09701
-1.74726
-1.4374
-1.16443
-0.925228
-0.716693
-0.535772
-0.379534
-0.245218
-0.130253
-0.0322853
0.0508204
0.12098
0.1799
0.229089
0.269872
0.303412
0.330721
0.35268
0.370055
0.383505
0.393604
0.400841
0.40564
0.408364
0.409322
0.408779
0.406959
0.404054
0.400226
0.39561
0.390322
0.384459
0.378101
0.371316
0.364161
0.356682
0.348918
0.340901
0.332657
0.324208
0.315571
0.306762
0.29779
0.288667
0.279399
0.269992
0.260452
0.25078
0.240981
0.231056
0.221007
0.210835
0.200539
0.190121
0.17958
0.168916
0.158128
0.147215
0.136177
0.125013
0.113721
0.1023
0.090748
0.0790635
0.0672461
0.0552892
0.0432045
0.0309559
0.0186346
0.00602214
-13.1843
-13.2649
-13.3409
-13.409
-13.4638
-13.4977
-13.501
-13.4629
-13.3721
-13.2178
-12.991
-12.6852
-12.2979
-11.8304
-11.2887
-10.6824
-10.0244
-9.32933
-8.61249
-7.88862
-7.17103
-6.47106
-5.79784
-5.15836
-4.55755
-3.99857
-3.48307
-3.01147
-2.58318
-2.19685
-1.85054
-1.54194
-1.26844
-1.0273
-0.815721
-0.630939
-0.470257
-0.331111
-0.211098
-0.107992
-0.019761
0.0554319
0.119235
0.173115
0.218369
0.256142
0.287437
0.313131
0.333989
0.35068
0.36378
0.373791
0.381146
0.386219
0.389331
0.39076
0.390741
0.389477
0.387142
0.383884
0.379827
0.375078
0.369728
0.363852
0.357517
0.350775
0.343674
0.336252
0.328541
0.320569
0.312359
0.30393
0.295298
0.286476
0.277476
0.268307
0.258977
0.249492
0.239857
0.230078
0.220156
0.210096
0.199899
0.189568
0.179103
0.168505
0.157775
0.146914
0.13592
0.124795
0.113537
0.102145
0.0906198
0.0789584
0.067162
0.0552231
0.0431568
0.0309213
0.0186195
0.00601316
-12.9821
-13.0408
-13.0922
-13.1331
-13.1588
-13.1624
-13.1359
-13.0705
-12.9569
-12.7863
-12.5515
-12.2475
-11.8722
-11.427
-10.9165
-10.3491
-9.73517
-9.08722
-8.41825
-7.74101
-7.06729
-6.40733
-5.76962
-5.16085
-4.58594
-4.04823
-3.54969
-3.09113
-2.67241
-2.29262
-1.95027
-1.64345
-1.36995
-1.12736
-0.913205
-0.724971
-0.560205
-0.416541
-0.291739
-0.183709
-0.0905255
-0.0104349
0.058148
0.116643
0.166317
0.208289
0.243552
0.272975
0.297324
0.317266
0.333387
0.346196
0.356133
0.363584
0.368881
0.372312
0.374124
0.374533
0.373721
0.371847
0.369048
0.365439
0.36112
0.356176
0.350681
0.344696
0.338276
0.331465
0.324302
0.31682
0.309049
0.301011
0.292728
0.284217
0.275492
0.266568
0.257455
0.248162
0.238697
0.229067
0.219278
0.209334
0.199239
0.188997
0.17861
0.168081
0.157411
0.146602
0.135655
0.124569
0.113347
0.101986
0.0904877
0.0788501
0.0670754
0.0551551
0.0431075
0.0308859
0.0186025
0.00600472
-12.7792
-12.8174
-12.8462
-12.8627
-12.8627
-12.8402
-12.7885
-12.7002
-12.5678
-12.3844
-12.144
-11.8427
-11.479
-11.054
-10.5717
-10.039
-9.46475
-8.85929
-8.23376
-7.59922
-6.96605
-6.34346
-5.73929
-5.15985
-4.60996
-4.09306
-3.61134
-3.16594
-2.75707
-2.38422
-2.04629
-1.74175
-1.46874
-1.22518
-1.00888
-0.817609
-0.649125
-0.501262
-0.371944
-0.259219
-0.161272
-0.0764349
-0.00319148
0.0598283
0.113853
0.159978
0.199178
0.232314
0.260147
0.283346
0.302498
0.318119
0.330659
0.340511
0.348017
0.353475
0.357145
0.359251
0.359988
0.359525
0.358007
0.35556
0.352294
0.348302
0.343666
0.338456
0.332733
0.326548
0.319946
0.312968
0.305646
0.29801
0.290085
0.281893
0.273452
0.26478
0.25589
0.246794
0.237504
0.228028
0.218374
0.208549
0.198559
0.188409
0.178103
0.167645
0.157037
0.146282
0.135382
0.124338
0.113151
0.101822
0.0903518
0.0787388
0.0669865
0.0550854
0.0430568
0.0308499
0.018584
0.0059967
-12.5769
-12.596
-12.6043
-12.599
-12.5765
-12.5315
-12.4583
-12.351
-12.2035
-12.01
-11.7659
-11.4681
-11.1155
-10.709
-10.2523
-9.75083
-9.21214
-8.64502
-8.05894
-7.46346
-6.86771
-6.27995