/*--------------------------------*- C++ -*----------------------------------*\
| =========                 |                                                 |
| \\      /  F ield         | OpenFOAM: The Open Source CFD Toolbox           |
|  \\    /   O peration     | Version:  2.1.1                                 |
|   \\  /    A nd           | Web:      www.OpenFOAM.org                      |
|    \\/     M anipulation  |                                                 |
\*---------------------------------------------------------------------------*/
FoamFile
{
    version     2.0;
    format      ascii;
    class       surfaceScalarField;
    location    "0.015";
    object      phi;
}
// * * * * * * * * * * * * * * * * * * * * * * * * * * * * * * * * * * * * * //

dimensions      [0 3 -1 0 0 0 0];

internalField   nonuniform List<scalar> 
13452
(
6.89949e-05
-5.07635e-07
6.88255e-05
1.69355e-07
6.82305e-05
5.95009e-07
6.73061e-05
9.24407e-07
6.62604e-05
1.04577e-06
6.52076e-05
1.05271e-06
6.41905e-05
1.01718e-06
6.32268e-05
9.63679e-07
6.23257e-05
9.01098e-07
6.14915e-05
8.34235e-07
6.07261e-05
7.65395e-07
6.00302e-05
6.95907e-07
5.94036e-05
6.26573e-07
5.88457e-05
5.579e-07
5.83555e-05
4.90184e-07
5.79319e-05
4.23571e-07
5.75738e-05
3.58126e-07
5.72799e-05
2.93902e-07
5.70489e-05
2.3102e-07
5.6879e-05
1.69831e-07
5.6768e-05
1.11021e-07
5.67116e-05
5.63795e-08
5.67001e-05
1.15237e-08
5.67241e-05
-2.40236e-08
5.67785e-05
-5.43756e-08
5.68635e-05
-8.49409e-08
5.69807e-05
-1.17285e-07
5.71337e-05
-1.52914e-07
5.73277e-05
-1.94074e-07
5.75719e-05
-2.44192e-07
5.78754e-05
-3.0348e-07
5.82943e-05
-4.18879e-07
-3.93043e-07
5.86873e-05
7.01655e-05
-2.29193e-07
7.00435e-05
2.9135e-07
7.01866e-05
4.51873e-07
7.05183e-05
5.92707e-07
7.08756e-05
6.88512e-07
7.1184e-05
7.4435e-07
7.14211e-05
7.80035e-07
7.1589e-05
7.95768e-07
7.1696e-05
7.94116e-07
7.17513e-05
7.7893e-07
7.17636e-05
7.53063e-07
7.17408e-05
7.18749e-07
7.16897e-05
6.77673e-07
7.16164e-05
6.31181e-07
7.15263e-05
5.80325e-07
7.14239e-05
5.25941e-07
7.13133e-05
4.68708e-07
7.1198e-05
4.09199e-07
7.10811e-05
3.47959e-07
7.09654e-05
2.85528e-07
7.08541e-05
2.22344e-07
7.07506e-05
1.59856e-07
7.0664e-05
9.81021e-08
7.0604e-05
3.59558e-08
7.05744e-05
-2.47164e-08
7.05766e-05
-8.72129e-08
7.0613e-05
-1.53665e-07
7.06867e-05
-2.26595e-07
7.08011e-05
-3.08431e-07
7.09637e-05
-4.0684e-07
7.11825e-05
-5.22214e-07
7.14719e-05
-7.08335e-07
-8.85135e-07
7.1964e-05
7.22833e-05
-5.59831e-08
7.24033e-05
1.71369e-07
7.25156e-05
3.3958e-07
7.26142e-05
4.94076e-07
7.27115e-05
5.91199e-07
7.28105e-05
6.45419e-07
7.29164e-05
6.74142e-07
7.3026e-05
6.86164e-07
7.31355e-05
6.84599e-07
7.32425e-05
6.71882e-07
7.33458e-05
6.49839e-07
7.34446e-05
6.19909e-07
7.35391e-05
5.83217e-07
7.36295e-05
5.40732e-07
7.37166e-05
4.93249e-07
7.38011e-05
4.41425e-07
7.3884e-05
3.85808e-07
7.39663e-05
3.26864e-07
7.40492e-05
2.65049e-07
7.41341e-05
2.00695e-07
7.42225e-05
1.33909e-07
7.43159e-05
6.64447e-08
7.44156e-05
-1.59789e-09
7.45261e-05
-7.45011e-08
7.46504e-05
-1.48992e-07
7.47916e-05
-2.28435e-07
7.49522e-05
-3.14247e-07
7.51347e-05
-4.09144e-07
7.5342e-05
-5.157e-07
7.55771e-05
-6.41957e-07
7.58424e-05
-7.87547e-07
7.61277e-05
-9.93652e-07
-1.18974e-06
7.64323e-05
7.45206e-05
-4.99583e-08
7.44965e-05
1.95438e-07
7.44934e-05
3.42675e-07
7.4545e-05
4.42514e-07
7.46213e-05
5.1491e-07
7.47073e-05
5.5936e-07
7.47966e-05
5.84849e-07
7.48877e-05
5.9515e-07
7.49802e-05
5.92024e-07
7.50744e-05
5.77677e-07
7.51703e-05
5.53974e-07
7.52679e-05
5.22307e-07
7.53674e-05
4.83748e-07
7.54689e-05
4.39185e-07
7.55728e-05
3.89325e-07
7.56795e-05
3.34741e-07
7.57894e-05
2.75891e-07
7.59031e-05
2.13174e-07
7.60212e-05
1.46971e-07
7.61444e-05
7.74777e-08
7.62746e-05
3.76999e-09
7.64115e-05
-7.04777e-08
7.65587e-05
-1.48786e-07
7.67159e-05
-2.31724e-07
7.68858e-05
-3.18922e-07
7.70699e-05
-4.12505e-07
7.72699e-05
-5.14266e-07
7.74876e-05
-6.26856e-07
7.77247e-05
-7.52799e-07
7.79814e-05
-8.98588e-07
7.82583e-05
-1.06451e-06
7.8539e-05
-1.27431e-06
-1.4883e-06
7.88375e-05
7.66048e-05
1.0724e-09
7.66355e-05
1.64766e-07
7.66826e-05
2.95586e-07
7.6734e-05
3.91068e-07
7.67893e-05
4.59593e-07
7.68495e-05
4.99238e-07
7.69159e-05
5.18404e-07
7.69884e-05
5.22642e-07
7.70661e-05
5.1435e-07
7.71483e-05
4.95483e-07
7.72347e-05
4.67614e-07
7.7325e-05
4.3192e-07
7.74195e-05
3.89324e-07
7.75181e-05
3.40588e-07
7.76211e-05
2.8632e-07
7.77288e-05
2.27009e-07
7.78417e-05
1.63022e-07
7.79601e-05
9.46946e-08
7.80848e-05
2.23091e-08
7.82165e-05
-5.42014e-08
7.83551e-05
-1.34851e-07
7.85032e-05
-2.18593e-07
7.86614e-05
-3.06953e-07
7.88305e-05
-4.00802e-07
7.90122e-05
-5.00648e-07
7.92078e-05
-6.08106e-07
7.94185e-05
-7.24972e-07
7.96453e-05
-8.53646e-07
7.98889e-05
-9.96405e-07
8.01483e-05
-1.158e-06
8.04225e-05
-1.33875e-06
8.06994e-05
-1.55113e-06
-1.7712e-06
8.09823e-05
7.88334e-05
1.35418e-08
7.88466e-05
1.51628e-07
7.88746e-05
2.67561e-07
7.89171e-05
3.48585e-07
7.8971e-05
4.05636e-07
7.90317e-05
4.38563e-07
7.90973e-05
4.52789e-07
7.91674e-05
4.5262e-07
7.92416e-05
4.40109e-07
7.93201e-05
4.17011e-07
7.94029e-05
3.84829e-07
7.94901e-05
3.44701e-07
7.95819e-05
2.97505e-07
7.96785e-05
2.43944e-07
7.97803e-05
1.8457e-07
7.98875e-05
1.19808e-07
8.00005e-05
4.99745e-08
8.01199e-05
-2.46875e-08
8.02463e-05
-1.04026e-07
8.03801e-05
-1.8804e-07
8.05221e-05
-2.76845e-07
8.06736e-05
-3.70132e-07
8.08355e-05
-4.68842e-07
8.10087e-05
-5.73944e-07
8.11942e-05
-6.86209e-07
8.13932e-05
-8.07048e-07
8.16063e-05
-9.38135e-07
8.18342e-05
-1.08156e-06
8.20771e-05
-1.23926e-06
8.23336e-05
-1.41447e-06
8.26023e-05
-1.60746e-06
8.28752e-05
-1.82404e-06
-2.05022e-06
8.31542e-05
8.1087e-05
2.5072e-08
8.11029e-05
1.35757e-07
8.11366e-05
2.33863e-07
8.11812e-05
3.03989e-07
8.12337e-05
3.5314e-07
8.12915e-05
3.80759e-07
8.1354e-05
3.90264e-07
8.14212e-05
3.8542e-07
8.1493e-05
3.68355e-07
8.15692e-05
3.40748e-07
8.165e-05
3.0401e-07
8.17355e-05
2.59204e-07
8.18259e-05
2.07143e-07
8.19214e-05
1.4847e-07
8.20223e-05
8.36823e-08
8.21289e-05
1.31517e-08
8.22418e-05
-6.28672e-08
8.23613e-05
-1.44196e-07
8.2488e-05
-2.30748e-07
8.26225e-05
-3.22582e-07
8.27656e-05
-4.19875e-07
8.29181e-05
-5.2267e-07
8.3081e-05
-6.31715e-07
8.3255e-05
-7.4793e-07
8.3441e-05
-8.72202e-07
8.36397e-05
-1.00581e-06
8.38518e-05
-1.15023e-06
8.40775e-05
-1.30723e-06
8.43166e-05
-1.47837e-06
8.45679e-05
-1.66581e-06
8.48302e-05
-1.86969e-06
8.50986e-05
-2.09247e-06
-2.32603e-06
8.53744e-05
8.34124e-05
2.82421e-08
8.34283e-05
1.19842e-07
8.34592e-05
2.0292e-07
8.35007e-05
2.62471e-07
8.35511e-05
3.02774e-07
8.3608e-05
3.23905e-07
8.36701e-05
3.28172e-07
8.37369e-05
3.18589e-07
8.38082e-05
2.97045e-07
8.38839e-05
2.65014e-07
8.39642e-05
2.23763e-07
8.40491e-05
1.74278e-07
8.41389e-05
1.17315e-07
8.42339e-05
5.34662e-08
8.43344e-05
-1.68203e-08
8.44408e-05
-9.32207e-08
8.45535e-05
-1.75521e-07
8.46729e-05
-2.63605e-07
8.47996e-05
-3.57446e-07
8.49341e-05
-4.57155e-07
8.50772e-05
-5.62952e-07
8.52296e-05
-6.75081e-07
8.53921e-05
-7.94202e-07
8.55654e-05
-9.21164e-07
8.575e-05
-1.05687e-06
8.59467e-05
-1.20247e-06
8.61557e-05
-1.35924e-06
8.63771e-05
-1.52863e-06
8.66106e-05
-1.7119e-06
8.68553e-05
-1.91045e-06
8.711e-05
-2.12443e-06
8.73723e-05
-2.35473e-06
-2.59678e-06
8.7643e-05
8.57984e-05
2.85218e-08
8.58143e-05
1.03945e-07
8.58447e-05
1.72546e-07
8.58855e-05
2.21647e-07
8.59349e-05
2.53404e-07
8.59908e-05
2.68026e-07
8.6052e-05
2.66948e-07
8.61181e-05
2.52493e-07
8.61888e-05
2.26323e-07
8.62641e-05
1.89752e-07
8.63439e-05
1.43913e-07
8.64285e-05
8.97033e-08
8.6518e-05
2.78124e-08
8.66127e-05
-4.12259e-08
8.67129e-05
-1.17014e-07
8.6819e-05
-1.99273e-07
8.69313e-05
-2.87834e-07
8.70503e-05
-3.82628e-07
8.71765e-05
-4.83681e-07
8.73105e-05
-5.91141e-07
8.74528e-05
-7.05269e-07
8.76042e-05
-8.26408e-07
8.77651e-05
-9.55165e-07
8.79363e-05
-1.09232e-06
8.81181e-05
-1.23874e-06
8.83111e-05
-1.39542e-06
8.85153e-05
-1.56348e-06
8.87308e-05
-1.74407e-06
8.89571e-05
-1.93821e-06
8.91935e-05
-2.14684e-06
8.94392e-05
-2.37014e-06
8.96929e-05
-2.60843e-06
-2.8592e-06
8.99553e-05
8.82522e-05
2.63459e-08
8.82682e-05
8.78759e-08
8.82976e-05
1.43223e-07
8.8337e-05
1.82261e-07
8.83848e-05
2.0559e-07
8.84394e-05
2.13419e-07
8.84997e-05
2.06672e-07
8.8565e-05
1.87113e-07
8.86352e-05
1.56163e-07
8.871e-05
1.14958e-07
8.87894e-05
6.44815e-08
8.88736e-05
5.53142e-09
8.89627e-05
-6.1278e-08
8.90569e-05
-1.35472e-07
8.91566e-05
-2.16705e-07
8.92621e-05
-3.04741e-07
8.93737e-05
-3.99454e-07
8.94919e-05
-5.00814e-07
8.96171e-05
-6.08886e-07
8.97498e-05
-7.23847e-07
8.98905e-05
-8.45983e-07
9.00398e-05
-9.75678e-07
9.01981e-05
-1.1135e-06
9.0366e-05
-1.26015e-06
9.05436e-05
-1.41642e-06
9.07314e-05
-1.58319e-06
9.09293e-05
-1.76138e-06
9.11372e-05
-1.95194e-06
9.13546e-05
-2.15567e-06
9.15811e-05
-2.37326e-06
9.18158e-05
-2.60491e-06
9.20582e-05
-2.85081e-06
-3.10966e-06
9.23087e-05
9.07748e-05
2.2841e-08
9.07908e-05
7.18875e-08
9.08191e-05
1.14915e-07
9.08573e-05
1.44117e-07
9.09037e-05
1.59136e-07
9.09571e-05
1.60074e-07
9.10162e-05
1.47502e-07
9.10806e-05
1.22711e-07
9.11499e-05
8.68721e-08
9.12239e-05
4.09506e-08
9.13026e-05
-1.42076e-08
9.13861e-05
-7.79074e-08
9.14744e-05
-1.49608e-07
9.15678e-05
-2.28896e-07
9.16666e-05
-3.15475e-07
9.1771e-05
-4.09154e-07
9.18814e-05
-5.09842e-07
9.19981e-05
-6.17541e-07
9.21216e-05
-7.32345e-07
9.22522e-05
-8.54451e-07
9.23903e-05
-9.84153e-07
9.25365e-05
-1.12184e-06
9.2691e-05
-1.26804e-06
9.28543e-05
-1.42337e-06
9.30264e-05
-1.58854e-06
9.32075e-05
-1.76429e-06
9.33975e-05
-1.9514e-06
9.35962e-05
-2.15062e-06
9.38031e-05
-2.36259e-06
9.40177e-05
-2.58784e-06
9.42394e-05
-2.82661e-06
9.44676e-05
-3.07908e-06
-3.34461e-06
9.47026e-05
9.33689e-05
1.85468e-08
9.33848e-05
5.60349e-08
9.34121e-05
8.75903e-08
9.3449e-05
1.07264e-07
9.3494e-05
1.1414e-07
9.35459e-05
1.08164e-07
9.36037e-05
8.96528e-08
9.36669e-05
5.95243e-08
9.37351e-05
1.87157e-08
9.3808e-05
-3.19685e-08
9.38856e-05
-9.18168e-08
9.39679e-05
-1.60235e-07
9.40551e-05
-2.36757e-07
9.41472e-05
-3.21031e-07
9.42445e-05
-4.12807e-07
9.43473e-05
-5.11933e-07
9.44558e-05
-6.1835e-07
9.45704e-05
-7.32085e-07
9.46913e-05
-8.53251e-07
9.48189e-05
-9.82049e-07
9.49535e-05
-1.11877e-06
9.50954e-05
-1.26379e-06
9.5245e-05
-1.41757e-06
9.54023e-05
-1.58067e-06
9.55674e-05
-1.75369e-06
9.57404e-05
-1.93725e-06
9.5921e-05
-2.13198e-06
9.61088e-05
-2.33848e-06
9.63035e-05
-2.55726e-06
9.65044e-05
-2.78872e-06
9.67109e-05
-3.0331e-06
9.69224e-05
-3.29061e-06
-3.5609e-06
9.71387e-05
9.60368e-05
1.38539e-08
9.60524e-05
4.04471e-08
9.60787e-05
6.12552e-08
9.61143e-05
7.1709e-08
9.61578e-05
7.06214e-08
9.62082e-05
5.77675e-08
9.62645e-05
3.32777e-08
9.63263e-05
-2.22778e-09
9.6393e-05
-4.8028e-08
9.64645e-05
-1.03471e-07
9.65407e-05
-1.67972e-07
9.66215e-05
-2.41034e-07
9.6707e-05
-3.22262e-07
9.67973e-05
-4.11362e-07
9.68927e-05
-5.0813e-07
9.69932e-05
-6.12447e-07
9.70991e-05
-7.2428e-07
9.72107e-05
-8.43673e-07
9.73282e-05
-9.70747e-07
9.74518e-05
-1.1057e-06
9.75819e-05
-1.2488e-06
9.77185e-05
-1.4004e-06
9.78618e-05
-1.5609e-06
9.80119e-05
-1.73077e-06
9.81687e-05
-1.91051e-06
9.83321e-05
-2.10063e-06
9.85018e-05
-2.30163e-06
9.86772e-05
-2.51396e-06
9.8858e-05
-2.738e-06
9.90433e-05
-2.97408e-06
9.92326e-05
-3.22237e-06
9.94251e-05
-3.48308e-06
-3.75593e-06
9.96201e-05
9.87806e-05
8.99967e-09
9.87958e-05
2.52175e-08
9.88212e-05
3.59061e-08
9.88554e-05
3.74743e-08
9.88974e-05
2.86308e-08
9.89462e-05
8.99787e-09
9.90009e-05
-2.14461e-08
9.9061e-05
-6.23151e-08
9.9126e-05
-1.13081e-07
9.91958e-05
-1.73233e-07
9.92701e-05
-2.42301e-07
9.9349e-05
-3.19882e-07
9.94323e-05
-4.0565e-07
9.95203e-05
-4.99364e-07
9.96131e-05
-6.0086e-07
9.97107e-05
-7.10049e-07
9.98133e-05
-8.26917e-07
9.99212e-05
-9.51517e-07
0.000100034
-1.08397e-06
0.000100153
-1.22445e-06
0.000100278
-1.37322e-06
0.000100408
-1.53057e-06
0.000100544
-1.69684e-06
0.000100685
-1.87241e-06
0.000100832
-2.05769e-06
0.000100985
-2.25307e-06
0.000101142
-2.45892e-06
0.000101304
-2.67557e-06
0.000101469
-2.90329e-06
0.000101637
-3.14228e-06
0.000101808
-3.39265e-06
0.000101979
-3.65455e-06
-3.92766e-06
0.000102151
0.000101603
4.13651e-09
0.000101617
1.04334e-08
0.000101642
1.15604e-08
0.000101675
4.5938e-09
0.000101715
-1.17705e-08
0.000101762
-3.80361e-08
0.000101815
-7.43506e-08
0.000101873
-1.20514e-07
0.000101936
-1.76165e-07
0.000102004
-2.40922e-07
0.000102076
-3.14424e-07
0.000102153
-3.96349e-07
0.000102233
-4.86437e-07
0.000102318
-5.84497e-07
0.000102408
-6.90399e-07
0.000102502
-8.04079e-07
0.000102601
-9.25535e-07
0.000102704
-1.05482e-06
0.000102812
-1.19205e-06
0.000102925
-1.33738e-06
0.000103043
-1.49102e-06
0.000103165
-1.65322e-06
0.000103293
-1.82425e-06
0.000103425
-2.00441e-06
0.000103561
-2.19399e-06
0.000103701
-2.39329e-06
0.000103845
-2.60255e-06
0.000103991
-2.82197e-06
0.00010414
-3.05172e-06
0.000104289
-3.29187e-06
0.000104439
-3.54245e-06
0.000104588
-3.80348e-06
-4.07458e-06
0.000104735
0.000104505
-6.39393e-10
0.000104519
-3.83214e-09
0.000104543
-1.17559e-08
0.000104574
-2.68901e-08
0.000104613
-5.05089e-08
0.000104658
-8.32135e-08
0.000104709
-1.25258e-07
0.000104765
-1.76591e-07
0.000104826
-2.36993e-07
0.000104891
-3.06202e-07
0.000104961
-3.83949e-07
0.000105034
-4.69991e-07
0.000105112
-5.64128e-07
0.000105194
-6.66209e-07
0.00010528
-7.76138e-07
0.000105369
-8.93867e-07
0.000105463
-1.0194e-06
0.000105561
-1.15279e-06
0.000105663
-1.29413e-06
0.000105769
-1.44354e-06
0.00010588
-1.60121e-06
0.000105994
-1.7673e-06
0.000106112
-1.94204e-06
0.000106233
-2.12562e-06
0.000106357
-2.31824e-06
0.000106484
-2.52009e-06
0.000106613
-2.73129e-06
0.000106742
-2.95193e-06
0.000106873
-3.18206e-06
0.000107003
-3.42163e-06
0.000107131
-3.67056e-06
0.000107256
-3.92874e-06
-4.19567e-06
0.000107377
0.000107491
-5.26611e-09
0.000107504
-1.75155e-08
0.000107527
-3.40051e-08
0.000107557
-5.69223e-08
0.000107594
-8.74972e-08
0.000107637
-1.26403e-07
0.000107685
-1.73984e-07
0.000107739
-2.30307e-07
0.000107797
-2.95275e-07
0.00010786
-3.68726e-07
0.000107927
-4.50479e-07
0.000107997
-5.40358e-07
0.000108071
-6.38216e-07
0.000108149
-7.4394e-07
0.00010823
-8.57459e-07
0.000108315
-9.78737e-07
0.000108403
-1.10778e-06
0.000108495
-1.24463e-06
0.00010859
-1.38935e-06
0.000108689
-1.54204e-06
0.00010879
-1.70282e-06
0.000108895
-1.87182e-06
0.000109002
-2.04917e-06
0.000109111
-2.23498e-06
0.000109223
-2.42936e-06
0.000109335
-2.63238e-06
0.000109448
-2.84406e-06
0.00010956
-3.06439e-06
0.000109671
-3.29327e-06
0.00010978
-3.53056e-06
0.000109886
-3.77605e-06
0.000109987
-4.02951e-06
-4.29031e-06
0.000110081
0.000110561
-9.70172e-09
0.000110574
-3.05606e-08
0.000110595
-5.51408e-08
0.000110624
-8.54379e-08
0.000110659
-1.22638e-07
0.0001107
-1.67465e-07
0.000110747
-2.20336e-07
0.000110798
-2.81416e-07
0.000110853
-3.50709e-07
0.000110913
-4.28141e-07
0.000110976
-5.13605e-07
0.000111042
-6.06987e-07
0.000111112
-7.08185e-07
0.000111185
-8.1712e-07
0.000111262
-9.33736e-07
0.000111341
-1.05801e-06
0.000111423
-1.18994e-06
0.000111508
-1.32955e-06
0.000111596
-1.47688e-06
0.000111686
-1.63199e-06
0.000111778
-1.79495e-06
0.000111872
-1.96581e-06
0.000111967
-2.14465e-06
0.000112064
-2.33148e-06
0.000112161
-2.52633e-06
0.000112257
-2.72916e-06
0.000112353
-2.9399e-06
0.000112447
-3.1584e-06
0.000112538
-3.38448e-06
0.000112626
-3.61788e-06
0.000112708
-3.85827e-06
0.000112784
-4.1053e-06
-4.35824e-06
0.000112852
0.00011372
-1.39166e-08
0.000113732
-4.29164e-08
0.000113752
-7.51093e-08
0.000113779
-1.12362e-07
0.000113812
-1.55821e-07
0.000113851
-2.06246e-07
0.000113895
-2.64114e-07
0.000113943
-3.29666e-07
0.000113995
-4.0299e-07
0.000114051
-4.84088e-07
0.00011411
-5.72917e-07
0.000114173
-6.69414e-07
0.000114238
-7.73519e-07
0.000114306
-8.85176e-07
0.000114377
-1.00435e-06
0.00011445
-1.13101e-06
0.000114525
-1.26515e-06
0.000114602
-1.40677e-06
0.000114681
-1.5559e-06
0.000114762
-1.71253e-06
0.000114844
-1.87669e-06
0.000114926
-2.04837e-06
0.000115009
-2.22756e-06
0.000115092
-2.41422e-06
0.000115174
-2.60827e-06
0.000115254
-2.80958e-06
0.000115332
-3.01797e-06
0.000115407
-3.23322e-06
0.000115478
-3.45503e-06
0.000115543
-3.68303e-06
0.000115601
-3.91681e-06
0.000115652
-4.15589e-06
-4.39949e-06
0.000115693
0.000116968
-1.78881e-08
0.00011698
-5.45349e-08
0.000116999
-9.38505e-08
0.000117024
-1.37611e-07
0.000117055
-1.86931e-07
0.000117091
-2.4259e-07
0.000117132
-3.05111e-07
0.000117178
-3.74799e-07
0.000117226
-4.51808e-07
0.000117278
-5.36204e-07
0.000117334
-6.27997e-07
0.000117391
-7.27172e-07
0.000117451
-8.33696e-07
0.000117514
-9.47539e-07
0.000117578
-1.06867e-06
0.000117644
-1.19706e-06
0.000117712
-1.3327e-06
0.000117781
-1.47556e-06
0.00011785
-1.62561e-06
0.000117921
-1.78284e-06
0.000117991
-1.94721e-06
0.000118061
-2.11864e-06
0.000118131
-2.29707e-06
0.000118199
-2.48236e-06
0.000118265
-2.67436e-06
0.000118328
-2.87286e-06
0.000118388
-3.07759e-06
0.000118443
-3.28824e-06
0.000118492
-3.50441e-06
0.000118535
-3.72567e-06
0.00011857
-3.95148e-06
0.000118595
-4.18132e-06
-4.41434e-06
0.00011861
0.00012031
-2.15972e-08
0.000120321
-6.53696e-08
0.000120338
-1.113e-07
0.000120362
-1.61096e-07
0.00012039
-2.15842e-07
0.000120424
-2.7633e-07
0.000120462
-3.43118e-07
0.000120504
-4.16556e-07
0.000120549
-4.96853e-07
0.000120597
-5.84128e-07
0.000120647
-6.78436e-07
0.0001207
-7.79797e-07
0.000120754
-8.88207e-07
0.000120811
-1.00365e-06
0.000120868
-1.1261e-06
0.000120926
-1.25553e-06
0.000120986
-1.3919e-06
0.000121045
-1.53518e-06
0.000121105
-1.68529e-06
0.000121164
-1.84217e-06
0.000121223
-2.00574e-06
0.00012128
-2.17587e-06
0.000121335
-2.35241e-06
0.000121388
-2.53517e-06
0.000121438
-2.72393e-06
0.000121483
-2.91839e-06
0.000121524
-3.11822e-06
0.000121559
-3.32302e-06
0.000121587
-3.53232e-06
0.000121607
-3.74561e-06
0.000121617
-3.96231e-06
0.000121618
-4.18181e-06
-4.40326e-06
0.000121607
0.000123747
-2.50267e-08
0.000123757
-7.53745e-08
0.000123773
-1.27388e-07
0.000123794
-1.8272e-07
0.000123821
-2.42426e-07
0.000123852
-3.07301e-07
0.000123887
-3.77922e-07
0.000123925
-4.54678e-07
0.000123966
-5.37819e-07
0.000124009
-6.27504e-07
0.000124055
-7.23828e-07
0.000124102
-8.26839e-07
0.00012415
-9.36554e-07
0.000124199
-1.05297e-06
0.000124249
-1.17606e-06
0.000124299
-1.3058e-06
0.00012435
-1.44212e-06
0.000124399
-1.58496e-06
0.000124448
-1.73423e-06
0.000124496
-1.88981e-06
0.000124542
-2.05158e-06
0.000124585
-2.21935e-06
0.000124626
-2.39293e-06
0.000124663
-2.57205e-06
0.000124695
-2.75642e-06
0.000124723
-2.9457e-06
0.000124744
-3.13947e-06
0.000124758
-3.33728e-06
0.000124764
-3.53862e-06
0.000124762
-3.7429e-06
0.000124749
-3.9495e-06
0.000124725
-4.15777e-06
-4.36688e-06
0.000124688
0.000127282
-2.81602e-08
0.000127291
-8.45038e-08
0.000127305
-1.42046e-07
0.000127325
-2.02387e-07
0.000127349
-2.66555e-07
0.000127377
-3.35334e-07
0.000127409
-4.09317e-07
0.000127443
-4.88914e-07
0.000127479
-5.74408e-07
0.000127518
-6.6599e-07
0.000127558
-7.63784e-07
0.000127599
-8.67862e-07
0.000127641
-9.78258e-07
0.000127683
-1.09498e-06
0.000127725
-1.218e-06
0.000127766
-1.34727e-06
0.000127807
-1.48273e-06
0.000127846
-1.62428e-06
0.000127884
-1.7718e-06
0.000127919
-1.92514e-06
0.000127951
-2.08411e-06
0.000127981
-2.24851e-06
0.000128006
-2.41807e-06
0.000128026
-2.59248e-06
0.000128041
-2.7714e-06
0.00012805
-2.95442e-06
0.000128051
-3.1411e-06
0.000128045
-3.33091e-06
0.00012803
-3.52331e-06
0.000128005
-3.71769e-06
0.000127969
-3.91339e-06
0.00012792
-4.10976e-06
-4.30597e-06
0.00012786
0.000130918
-3.09815e-08
0.000130926
-9.27104e-08
0.000130939
-1.55197e-07
0.000130957
-2.19995e-07
0.000130978
-2.88095e-07
0.000131003
-3.60266e-07
0.000131031
-4.37099e-07
0.000131061
-5.19021e-07
0.000131093
-6.06336e-07
0.000131126
-6.99258e-07
0.00013116
-7.97935e-07
0.000131195
-9.02459e-07
0.00013123
-1.01288e-06
0.000131264
-1.1292e-06
0.000131297
-1.2514e-06
0.000131329
-1.37942e-06
0.00013136
-1.51319e-06
0.000131388
-1.65258e-06
0.000131414
-1.79744e-06
0.000131436
-1.94759e-06
0.000131455
-2.10281e-06
0.000131469
-2.26285e-06
0.000131479
-2.42738e-06
0.000131482
-2.59609e-06
0.000131479
-2.76856e-06
0.000131469
-2.94436e-06
0.000131451
-3.123e-06
0.000131424
-3.30393e-06
0.000131387
-3.48658e-06
0.00013134
-3.67032e-06
0.000131281
-3.85449e-06
0.00013121
-4.03844e-06
-4.22138e-06
0.000131125
0.000134658
-3.34749e-08
0.000134665
-9.99488e-08
0.000134676
-1.66774e-07
0.000134692
-2.35452e-07
0.000134711
-3.0693e-07
0.000134732
-3.81948e-07
0.000134756
-4.61088e-07
0.000134782
-5.44779e-07
0.000134809
-6.33341e-07
0.000134837
-7.27006e-07
0.000134865
-8.25939e-07
0.000134893
-9.30249e-07
0.00013492
-1.03999e-06
0.000134946
-1.15518e-06
0.00013497
-1.2758e-06
0.000134993
-1.40178e-06
0.000135012
-1.53301e-06
0.000135029
-1.66937e-06
0.000135042
-1.81068e-06
0.000135052
-1.95672e-06
0.000135056
-2.10725e-06
0.000135055
-2.26197e-06
0.000135048
-2.42055e-06
0.000135035
-2.58261e-06
0.000135014
-2.74772e-06
0.000134985
-2.91543e-06
0.000134947
-3.0852e-06
0.0001349
-3.2565e-06
0.000134842
-3.42872e-06
0.000134773
-3.60123e-06
0.000134692
-3.7734e-06
0.000134598
-3.94458e-06
-4.11404e-06
0.000134491
0.000138504
-3.56196e-08
0.000138511
-1.06161e-07
0.000138521
-1.76686e-07
0.000138534
-2.48643e-07
0.00013855
-3.22923e-07
0.000138568
-4.00223e-07
0.000138588
-4.81102e-07
0.000138609
-5.65984e-07
0.000138631
-6.55192e-07
0.000138653
-7.48974e-07
0.000138675
-8.47507e-07
0.000138695
-9.50914e-07
0.000138715
-1.05926e-06
0.000138732
-1.17257e-06
0.000138747
-1.29081e-06
0.000138759
-1.41392e-06
0.000138768
-1.54179e-06
0.000138773
-1.67425e-06
0.000138773
-1.81112e-06
0.000138769
-1.95217e-06
0.000138758
-2.0971e-06
0.000138742
-2.24562e-06
0.000138719
-2.39736e-06
0.000138688
-2.55192e-06
0.000138649
-2.70885e-06
0.000138602
-2.86768e-06
0.000138544
-3.02788e-06
0.000138477
-3.18889e-06
0.000138398
-3.35013e-06
0.000138308
-3.51097e-06
0.000138205
-3.67081e-06
0.00013809
-3.82902e-06
-3.98494e-06
0.000137961
0.000142461
-3.74094e-08
0.000142466
-1.11318e-07
0.000142474
-1.84897e-07
0.000142485
-2.59527e-07
0.000142498
-3.36017e-07
0.000142513
-4.15004e-07
0.000142529
-4.97016e-07
0.000142546
-5.82464e-07
0.000142562
-6.71675e-07
0.000142578
-7.64905e-07
0.000142593
-8.62346e-07
0.000142606
-9.64133e-07
0.000142617
-1.07034e-06
0.000142626
-1.181e-06
0.000142631
-1.29608e-06
0.000142632
-1.41551e-06
0.00014263
-1.53916e-06
0.000142622
-1.66689e-06
0.00014261
-1.79847e-06
0.000142591
-1.93365e-06
0.000142566
-2.07215e-06
0.000142534
-2.21363e-06
0.000142495
-2.35771e-06
0.000142447
-2.50399e-06
0.00014239
-2.65201e-06
0.000142323
-2.80129e-06
0.000142247
-2.95131e-06
0.00014216
-3.10152e-06
0.000142061
-3.25134e-06
0.00014195
-3.40019e-06
0.000141827
-3.54747e-06
0.00014169
-3.69263e-06
-3.83507e-06
0.00014154
0.000146531
-3.87734e-08
0.000146535
-1.15269e-07
0.000146541
-1.91205e-07
0.000146549
-2.67892e-07
0.000146559
-3.46024e-07
0.00014657
-4.26143e-07
0.000146582
-5.08719e-07
0.000146594
-5.94135e-07
0.000146605
-6.82712e-07
0.000146615
-7.74716e-07
0.000146623
-8.70356e-07
0.000146628
-9.6978e-07
0.000146631
-1.07308e-06
0.00014663
-1.18029e-06
0.000146626
-1.2914e-06
0.000146616
-1.40632e-06
0.000146602
-1.52494e-06
0.000146582
-1.64708e-06
0.000146557
-1.77254e-06
0.000146524
-1.90104e-06
0.000146484
-2.03229e-06
0.000146436
-2.16595e-06
0.00014638
-2.30163e-06
0.000146315
-2.43893e-06
0.000146241
-2.57739e-06
0.000146156
-2.71654e-06
0.00014606
-2.85587e-06
0.000145954
-2.99485e-06
0.000145835
-3.13294e-06
0.000145705
-3.26957e-06
0.000145561
-3.40421e-06
0.000145405
-3.53634e-06
-3.66544e-06
0.000145236
0.000150717
-3.98394e-08
0.00015072
-1.18189e-07
0.000150724
-1.95826e-07
0.00015073
-2.73937e-07
0.000150737
-3.53054e-07
0.000150745
-4.33625e-07
0.000150752
-5.16074e-07
0.000150759
-6.00761e-07
0.000150764
-6.88001e-07
0.000150767
-7.78067e-07
0.000150768
-8.71179e-07
0.000150766
-9.67501e-07
0.00015076
-1.06714e-06
0.00015075
-1.17014e-06
0.000150735
-1.27648e-06
0.000150715
-1.38611e-06
0.000150689
-1.4989e-06
0.000150656
-1.61467e-06
0.000150617
-1.73322e-06
0.00015057
-1.85428e-06
0.000150515
-1.97754e-06
0.000150452
-2.10266e-06
0.00015038
-2.22928e-06
0.000150298
-2.35697e-06
0.000150206
-2.48532e-06
0.000150103
-2.61384e-06
0.000149989
-2.74207e-06
0.000149864
-2.8695e-06
0.000149727
-2.99562e-06
0.000149577
-3.11991e-06
0.000149415
-3.24189e-06
0.000149239
-3.36109e-06
-3.47705e-06
0.000149051
0.000155022
-4.00244e-08
0.000155023
-1.19189e-07
0.000155025
-1.97861e-07
0.000155028
-2.77029e-07
0.000155032
-3.56855e-07
0.000155036
-4.37556e-07
0.000155039
-5.19442e-07
0.000155041
-6.02838e-07
0.000155041
-6.88075e-07
0.000155039
-7.75459e-07
0.000155033
-8.65249e-07
0.000155023
-9.57642e-07
0.000155008
-1.05277e-06
0.000154989
-1.15071e-06
0.000154964
-1.25145e-06
0.000154933
-1.35495e-06
0.000154895
-1.46108e-06
0.00015485
-1.56969e-06
0.000154797
-1.68055e-06
0.000154736
-1.79342e-06
0.000154667
-1.90798e-06
0.000154588
-2.02392e-06
0.0001545
-2.14086e-06
0.000154401
-2.2584e-06
0.000154292
-2.37614e-06
0.000154172
-2.49364e-06
0.00015404
-2.61044e-06
0.000153897
-2.72608e-06
0.000153741
-2.84008e-06
0.000153573
-2.95199e-06
0.000153393
-3.06136e-06
0.000153199
-3.16778e-06
-3.27087e-06
0.000152993
0.000159452
-4.09251e-08
0.000159452
-1.20076e-07
0.000159453
-1.98824e-07
0.000159454
-2.77926e-07
0.000159455
-3.5736e-07
0.000159454
-4.37235e-07
0.000159453
-5.17754e-07
0.000159449
-5.99162e-07
0.000159443
-6.81752e-07
0.000159433
-7.65827e-07
0.00015942
-8.51661e-07
0.000159401
-9.39475e-07
0.000159378
-1.02943e-06
0.000159349
-1.12161e-06
0.000159314
-1.21605e-06
0.000159271
-1.3127e-06
0.000159222
-1.41147e-06
0.000159164
-1.51221e-06
0.000159098
-1.6147e-06
0.000159024
-1.71872e-06
0.00015894
-1.82396e-06
0.000158846
-1.93012e-06
0.000158742
-2.03685e-06
0.000158627
-2.14377e-06
0.000158502
-2.25049e-06
0.000158364
-2.35662e-06
0.000158216
-2.46173e-06
0.000158055
-2.5654e-06
0.000157882
-2.6672e-06
0.000157697
-2.76672e-06
0.000157499
-2.86358e-06
0.000157289
-2.95742e-06
-3.04793e-06
0.000157066
0.000164003
-3.73267e-08
0.000163998
-1.15516e-07
0.000163994
-1.95245e-07
0.000163992
-2.75871e-07
0.000163991
-3.56003e-07
0.000163989
-4.35365e-07
0.000163986
-5.14176e-07
0.000163979
-5.92835e-07
0.000163969
-6.7179e-07
0.000163955
-7.51467e-07
0.000163935
-8.32229e-07
0.00016391
-9.14366e-07
0.000163879
-9.98086e-07
0.000163841
-1.08351e-06
0.000163796
-1.1707e-06
0.000163742
-1.25962e-06
0.000163681
-1.3502e-06
0.000163611
-1.44229e-06
0.000163532
-1.53571e-06
0.000163444
-1.63022e-06
0.000163345
-1.72555e-06
0.000163237
-1.8214e-06
0.000163117
-1.91745e-06
0.000162987
-2.01334e-06
0.000162845
-2.10873e-06
0.000162692
-2.20323e-06
0.000162526
-2.29647e-06
0.000162349
-2.38807e-06
0.00016216
-2.47765e-06
0.000161958
-2.56485e-06
0.000161743
-2.64934e-06
0.000161517
-2.73083e-06
-2.80905e-06
0.000161278
0.000168697
-4.24425e-08
0.000168697
-1.15406e-07
0.000168693
-1.91451e-07
0.000168686
-2.69251e-07
0.000168678
-3.47591e-07
0.000168668
-4.25452e-07
0.000168656
-5.02331e-07
0.000168642
-5.78288e-07
0.000168624
-6.53682e-07
0.000168601
-7.2895e-07
0.000168573
-8.04509e-07
0.00016854
-8.80714e-07
0.000168499
-9.57832e-07
0.000168452
-1.03605e-06
0.000168397
-1.11546e-06
0.000168333
-1.19609e-06
0.000168261
-1.27788e-06
0.000168179
-1.36074e-06
0.000168088
-1.44449e-06
0.000167987
-1.52893e-06
0.000167875
-1.61381e-06
0.000167753
-1.69887e-06
0.000167619
-1.78381e-06
0.000167474
-1.86832e-06
0.000167317
-1.95206e-06
0.000167149
-2.0347e-06
0.000166968
-2.11592e-06
0.000166775
-2.19537e-06
0.00016657
-2.27273e-06
0.000166353
-2.34769e-06
0.000166124
-2.41997e-06
0.000165882
-2.48933e-06
-2.55558e-06
0.000165629
0.000173493
-2.37123e-08
0.000173476
-9.84376e-08
0.000173467
-1.82457e-07
0.000173464
-2.66369e-07
0.000173463
-3.46423e-07
0.00017346
-4.22521e-07
0.000173453
-4.95513e-07
0.000173441
-5.66295e-07
0.000173423
-6.35625e-07
0.000173398
-7.04158e-07
0.000173366
-7.72449e-07
0.000173326
-8.40931e-07
0.000173278
-9.09918e-07
0.000173222
-9.79617e-07
0.000173156
-1.05014e-06
0.000173082
-1.12153e-06
0.000172998
-1.19373e-06
0.000172904
-1.26666e-06
0.000172799
-1.34017e-06
0.000172685
-1.41406e-06
0.000172559
-1.48811e-06
0.000172422
-1.56206e-06
0.000172274
-1.63566e-06
0.000172114
-1.7086e-06
0.000171943
-1.78059e-06
0.000171759
-1.85135e-06
0.000171564
-1.92056e-06
0.000171357
-1.98795e-06
0.000171137
-2.05322e-06
0.000170905
-2.11613e-06
0.000170662
-2.17643e-06
0.000170407
-2.23395e-06
-2.28854e-06
0.00017014
0.000178486
-4.15588e-08
0.000178479
-9.06912e-08
0.000178458
-1.6165e-07
0.000178433
-2.41108e-07
0.000178409
-3.22681e-07
0.000178387
-4.00683e-07
0.000178365
-4.73669e-07
0.000178341
-5.42406e-07
0.000178314
-6.07979e-07
0.000178281
-6.71351e-07
0.000178242
-7.33324e-07
0.000178195
-7.94543e-07
0.000178141
-8.55491e-07
0.000178078
-9.16506e-07
0.000178005
-9.77804e-07
0.000177923
-1.03949e-06
0.000177831
-1.1016e-06
0.000177729
-1.16408e-06
0.000177615
-1.22681e-06
0.000177491
-1.28966e-06
0.000177355
-1.35242e-06
0.000177208
-1.41488e-06
0.000177049
-1.47681e-06
0.000176879
-1.53794e-06
0.000176696
-1.59802e-06
0.000176501
-1.6568e-06
0.000176295
-1.71401e-06
0.000176076
-1.76942e-06
0.000175846
-1.82279e-06
0.000175604
-1.87392e-06
0.00017535
-1.92261e-06
0.000175085
-1.96873e-06
-2.0122e-06
0.000174808
0.000183491
3.45865e-08
0.000183466
-6.50053e-08
0.000183472
-1.68391e-07
0.000183488
-2.56967e-07
0.0001835
-3.34253e-07
0.000183502
-4.02607e-07
0.000183494
-4.65629e-07
0.000183476
-5.24621e-07
0.000183448
-5.8059e-07
0.000183412
-6.34496e-07
0.000183365
-6.87103e-07
0.00018331
-7.38977e-07
0.000183245
-7.90521e-07
0.00018317
-8.42013e-07
0.000183086
-8.93628e-07
0.000182992
-9.45452e-07
0.000182888
-9.97496e-07
0.000182774
-1.04971e-06
0.000182649
-1.102e-06
0.000182513
-1.15421e-06
0.000182367
-1.20618e-06
0.00018221
-1.25771e-06
0.000182042
-1.30856e-06
0.000181862
-1.35853e-06
0.000181672
-1.40737e-06
0.00018147
-1.45485e-06
0.000181256
-1.50075e-06
0.000181032
-1.54485e-06
0.000180796
-1.58695e-06