/*--------------------------------*- C++ -*----------------------------------*\
| =========                 |                                                 |
| \\      /  F ield         | OpenFOAM: The Open Source CFD Toolbox           |
|  \\    /   O peration     | Version:  2.1.1                                 |
|   \\  /    A nd           | Web:      www.OpenFOAM.org                      |
|    \\/     M anipulation  |                                                 |
\*---------------------------------------------------------------------------*/
FoamFile
{
    version     2.0;
    format      ascii;
    class       volVectorField;
    location    "0.015";
    object      U;
}
// * * * * * * * * * * * * * * * * * * * * * * * * * * * * * * * * * * * * * //

dimensions      [0 1 -1 0 0 0 0];

internalField   nonuniform List<vector> 
6820
(
(8.34335 -0.360136 0)
(8.40178 -0.247467 0)
(8.35836 -0.115678 0)
(8.25248 -0.0371378 0)
(8.12734 0.0051447 0)
(7.99818 0.0266546 0)
(7.87138 0.037035 0)
(7.7504 0.0413267 0)
(7.63674 0.0421667 0)
(7.53104 0.0410004 0)
(7.43364 0.0386601 0)
(7.34469 0.0356392 0)
(7.2642 0.032236 0)
(7.19213 0.0286319 0)
(7.12835 0.024935 0)
(7.07275 0.0212072 0)
(7.02519 0.0174811 0)
(6.98552 0.0137723 0)
(6.95359 0.0100894 0)
(6.92922 0.00644821 0)
(6.91219 0.00288017 0)
(6.90212 -0.000538342 0)
(6.89845 -0.00347297 0)
(6.89935 -0.00541394 0)
(6.90412 -0.00680443 0)
(6.91257 -0.00804423 0)
(6.92479 -0.00930108 0)
(6.94106 -0.0106809 0)
(6.96204 -0.0122961 0)
(6.98819 -0.014479 0)
(7.02175 -0.016383 0)
(7.06155 -0.0249271 0)
(7.12303 -0.00796343 0)
(8.32143 0.166124 0)
(8.28722 0.189578 0)
(8.28583 0.131486 0)
(8.3182 0.0945593 0)
(8.36314 0.0733 0)
(8.40416 0.0602289 0)
(8.43656 0.0522674 0)
(8.46033 0.0471848 0)
(8.47637 0.0436326 0)
(8.48574 0.0408934 0)
(8.48952 0.0385684 0)
(8.48871 0.0364112 0)
(8.48416 0.0342721 0)
(8.47665 0.032062 0)
(8.46685 0.0297271 0)
(8.45535 0.0272357 0)
(8.44265 0.0245703 0)
(8.42919 0.0217242 0)
(8.41538 0.0187019 0)
(8.40153 0.0155226 0)
(8.38801 0.0122217 0)
(8.3752 0.0089003 0)
(8.36352 0.00574448 0)
(8.35466 0.00284502 0)
(8.34932 -8.8065e-05 0)
(8.34761 -0.00329178 0)
(8.34983 -0.006895 0)
(8.35616 -0.0110478 0)
(8.36732 -0.0159715 0)
(8.38298 -0.0220281 0)
(8.40654 -0.029786 0)
(8.43266 -0.0414929 0)
(8.4821 -0.0546191 0)
(8.32254 -0.0610318 0)
(8.31436 -0.0837975 0)
(8.3316 -0.0549382 0)
(8.34654 -0.0215471 0)
(8.35695 0.000632588 0)
(8.36777 0.0141581 0)
(8.37961 0.0227295 0)
(8.39209 0.028204 0)
(8.40477 0.0315975 0)
(8.41728 0.0335469 0)
(8.4294 0.0344341 0)
(8.44102 0.034488 0)
(8.45214 0.033868 0)
(8.46276 0.032691 0)
(8.47295 0.0310417 0)
(8.48279 0.0289814 0)
(8.49239 0.0265553 0)
(8.50186 0.0237973 0)
(8.51133 0.0207346 0)
(8.52093 0.0173889 0)
(8.53085 0.0137501 0)
(8.54126 0.00994045 0)
(8.55231 0.00581767 0)
(8.56427 0.00136703 0)
(8.57765 -0.00349945 0)
(8.59283 -0.0088016 0)
(8.61013 -0.0146482 0)
(8.62974 -0.0212775 0)
(8.65215 -0.0289086 0)
(8.67724 -0.0382999 0)
(8.70656 -0.0493336 0)
(8.73686 -0.0667195 0)
(8.77461 -0.0830872 0)
(8.33368 0.0143158 0)
(8.33025 0.0468495 0)
(8.32871 0.052411 0)
(8.33117 0.0446161 0)
(8.33862 0.0384753 0)
(8.34817 0.0352069 0)
(8.3581 0.0335591 0)
(8.36817 0.0325901 0)
(8.37844 0.0317831 0)
(8.38888 0.0309022 0)
(8.39951 0.0298333 0)
(8.41032 0.02852 0)
(8.42133 0.0269371 0)
(8.43256 0.0250708 0)
(8.44404 0.0229108 0)
(8.4558 0.020449 0)
(8.4679 0.0176789 0)
(8.48038 0.0145947 0)
(8.49332 0.0111993 0)
(8.50677 0.00748079 0)
(8.52091 0.00348344 0)
(8.5358 -0.000935682 0)
(8.55162 -0.00569811 0)
(8.5686 -0.0107053 0)
(8.58683 -0.0161764 0)
(8.60656 -0.0222854 0)
(8.62799 -0.0291995 0)
(8.65126 -0.0371543 0)
(8.67669 -0.0463995 0)
(8.70412 -0.0575327 0)
(8.73433 -0.0707481 0)
(8.76503 -0.0883898 0)
(8.79903 -0.107208 0)
(8.3302 -0.00559262 0)
(8.32755 -0.00834863 0)
(8.33263 -0.00421111 0)
(8.33866 0.00543132 0)
(8.34437 0.0137986 0)
(8.35059 0.019129 0)
(8.35746 0.0223201 0)
(8.36502 0.0241712 0)
(8.3732 0.025074 0)
(8.3819 0.0252493 0)
(8.39107 0.0248284 0)
(8.40067 0.0238897 0)
(8.41071 0.0224815 0)
(8.4212 0.0206351 0)
(8.43215 0.0183719 0)
(8.44359 0.0157058 0)
(8.45556 0.0126441 0)
(8.46812 0.00919194 0)
(8.48132 0.00534506 0)
(8.49523 0.00111365 0)
(8.5099 -0.00347828 0)
(8.52544 -0.00858004 0)
(8.54205 -0.0141057 0)
(8.5598 -0.0202281 0)
(8.57882 -0.0269917 0)
(8.59928 -0.0345291 0)
(8.62133 -0.0429989 0)
(8.64507 -0.0526309 0)
(8.67064 -0.0636656 0)
(8.69792 -0.0766058 0)
(8.72715 -0.0915821 0)
(8.75699 -0.110063 0)
(8.78828 -0.129817 0)
(8.33244 0.00183796 0)
(8.33161 0.0121685 0)
(8.33403 0.0184873 0)
(8.33799 0.020875 0)
(8.3431 0.0219525 0)
(8.34923 0.0226096 0)
(8.35595 0.0230433 0)
(8.36312 0.0231818 0)
(8.37074 0.0229229 0)
(8.37881 0.0222356 0)
(8.38733 0.0211219 0)
(8.3963 0.0195891 0)
(8.40576 0.0176444 0)
(8.41571 0.0152936 0)
(8.42618 0.0125396 0)
(8.43721 0.00938131 0)
(8.44884 0.00581237 0)
(8.4611 0.00182465 0)
(8.47406 -0.00260079 0)
(8.4878 -0.00746962 0)
(8.50234 -0.0128384 0)
(8.51782 -0.0186617 0)
(8.53435 -0.0250467 0)
(8.55203 -0.0320952 0)
(8.57095 -0.0398748 0)
(8.59123 -0.0485301 0)
(8.61298 -0.0582348 0)
(8.63626 -0.0692101 0)
(8.66115 -0.0816829 0)
(8.68752 -0.0960267 0)
(8.71541 -0.112375 0)
(8.74402 -0.131477 0)
(8.77358 -0.152077 0)
(8.33237 0.000331856 0)
(8.33195 0.00415704 0)
(8.33466 0.00810351 0)
(8.33896 0.0118184 0)
(8.34399 0.0150454 0)
(8.34969 0.0172797 0)
(8.35589 0.0185511 0)
(8.36255 0.0190433 0)
(8.36968 0.0188776 0)
(8.37729 0.0181381 0)
(8.38535 0.0168821 0)
(8.39389 0.0151439 0)
(8.40292 0.0129434 0)
(8.41246 0.0102914 0)
(8.42254 0.00719185 0)
(8.43319 0.00364183 0)
(8.44445 -0.000365498 0)
(8.45637 -0.00484378 0)
(8.469 -0.00980862 0)
(8.4824 -0.0152911 0)
(8.49664 -0.0213252 0)
(8.5118 -0.0279308 0)
(8.52797 -0.0351948 0)
(8.54525 -0.0432105 0)
(8.56372 -0.0520746 0)
(8.58346 -0.0619247 0)
(8.60455 -0.0729224 0)
(8.62702 -0.0852645 0)
(8.65091 -0.0991515 0)
(8.67611 -0.114861 0)
(8.70258 -0.13251 0)
(8.72986 -0.152484 0)
(8.75798 -0.174078 0)
(8.33277 0.00118339 0)
(8.33298 0.00560421 0)
(8.33539 0.00970409 0)
(8.33919 0.0126635 0)
(8.34382 0.01471 0)
(8.3492 0.015921 0)
(8.35517 0.0164394 0)
(8.36162 0.0163771 0)
(8.36852 0.0157712 0)
(8.37586 0.0146451 0)
(8.38364 0.0130211 0)
(8.39189 0.0109146 0)
(8.40061 0.00833419 0)
(8.40983 0.00528274 0)
(8.41958 0.00175772 0)
(8.4299 -0.00224932 0)
(8.44083 -0.00675118 0)
(8.45241 -0.0117672 0)
(8.46468 -0.0173223 0)
(8.47771 -0.0234495 0)
(8.49156 -0.0301899 0)
(8.50629 -0.0375868 0)
(8.522 -0.0457188 0)
(8.53875 -0.0546809 0)
(8.5566 -0.0645771 0)
(8.57563 -0.0755388 0)
(8.59588 -0.0877197 0)
(8.61737 -0.101298 0)
(8.6401 -0.116451 0)
(8.66399 -0.133393 0)
(8.68898 -0.152229 0)
(8.71482 -0.173168 0)
(8.7415 -0.195842 0)
(8.33288 0.0011415 0)
(8.33333 0.00446173 0)
(8.33561 0.00759478 0)
(8.3392 0.0100194 0)
(8.34362 0.0118204 0)
(8.34876 0.0129255 0)
(8.35447 0.0133351 0)
(8.36066 0.0131106 0)
(8.36731 0.0122953 0)
(8.37439 0.0109232 0)
(8.38192 0.00902284 0)
(8.3899 0.00661172 0)
(8.39835 0.00369791 0)
(8.40728 0.000282423 0)
(8.41674 -0.00364025 0)
(8.42674 -0.00808156 0)
(8.43733 -0.0130594 0)
(8.44855 -0.0185972 0)
(8.46044 -0.0247246 0)
(8.47306 -0.0314804 0)
(8.48646 -0.0389124 0)
(8.5007 -0.0470749 0)
(8.51585 -0.0560459 0)
(8.53196 -0.0659204 0)
(8.54908 -0.0768051 0)
(8.56727 -0.0888263 0)
(8.58655 -0.102127 0)
(8.60692 -0.116867 0)
(8.62838 -0.133203 0)
(8.65086 -0.151305 0)
(8.6743 -0.171276 0)
(8.69856 -0.193252 0)
(8.72363 -0.21707 0)
(8.33297 0.0011032 0)
(8.33361 0.00391227 0)
(8.33577 0.00657669 0)
(8.33911 0.00860104 0)
(8.34327 0.00998054 0)
(8.34812 0.0106828 0)
(8.35357 0.0107233 0)
(8.35951 0.0101576 0)
(8.36591 0.00902044 0)
(8.37276 0.00733366 0)
(8.38004 0.00511361 0)
(8.38775 0.00236931 0)
(8.39593 -0.00089737 0)
(8.40457 -0.00469071 0)
(8.41372 -0.00902078 0)
(8.4234 -0.0139035 0)
(8.43363 -0.0193607 0)
(8.44447 -0.0254205 0)
(8.45595 -0.0321178 0)
(8.46811 -0.0394957 0)
(8.481 -0.0476068 0)
(8.49467 -0.0565121 0)
(8.50918 -0.0662904 0)
(8.52457 -0.0770352 0)
(8.54087 -0.0888518 0)
(8.55811 -0.10186 0)
(8.57631 -0.116194 0)
(8.59547 -0.131995 0)
(8.61556 -0.149406 0)
(8.63653 -0.168571 0)
(8.65831 -0.189594 0)
(8.68085 -0.212587 0)
(8.70411 -0.23751 0)
(8.33302 0.000983921 0)
(8.33374 0.00323781 0)
(8.33578 0.00532671 0)
(8.33891 0.00687487 0)
(8.34283 0.00784811 0)
(8.34743 0.0082135 0)
(8.35261 0.00796067 0)
(8.35829 0.00711496 0)
(8.36443 0.00569719 0)
(8.37101 0.00372136 0)
(8.37802 0.00119825 0)
(8.38546 -0.0018673 0)
(8.39333 -0.00547711 0)
(8.40167 -0.00963908 0)
(8.41048 -0.0143669 0)
(8.4198 -0.0196801 0)
(8.42965 -0.0256043 0)
(8.44006 -0.0321715 0)
(8.45107 -0.0394205 0)
(8.46272 -0.0473981 0)
(8.47505 -0.0561602 0)
(8.48808 -0.0657719 0)
(8.50187 -0.0763118 0)
(8.51645 -0.0878713 0)
(8.53183 -0.100553 0)
(8.54804 -0.114469 0)
(8.56507 -0.129744 0)
(8.58292 -0.146508 0)
(8.60154 -0.164888 0)
(8.6209 -0.185013 0)
(8.64093 -0.206988 0)
(8.6616 -0.230924 0)
(8.68285 -0.256845 0)
(8.33304 0.000825528 0)
(8.33381 0.00259345 0)
(8.33574 0.0041866 0)
(8.33866 0.00530948 0)
(8.34235 0.00589734 0)
(8.34669 0.00591274 0)
(8.3516 0.005337 0)
(8.35701 0.00418195 0)
(8.36288 0.00246046 0)
(8.36918 0.000179954 0)
(8.37589 -0.00265544 0)
(8.38303 -0.00604654 0)
(8.39058 -0.01 0)
(8.39858 -0.0145279 0)
(8.40703 -0.0196478 0)
(8.41595 -0.0253827 0)
(8.42537 -0.0317619 0)
(8.43531 -0.0388205 0)
(8.44581 -0.0466005 0)
(8.45689 -0.0551517 0)
(8.46858 -0.0645318 0)
(8.48091 -0.0748079 0)
(8.49391 -0.0860576 0)
(8.5076 -0.0983695 0)
(8.52198 -0.111841 0)
(8.53707 -0.126579 0)
(8.55285 -0.142697 0)
(8.56929 -0.160312 0)
(8.58637 -0.179544 0)
(8.60403 -0.200508 0)
(8.62223 -0.22331 0)
(8.64089 -0.248059 0)
(8.65999 -0.274817 0)
(8.33306 0.000644791 0)
(8.33383 0.00195274 0)
(8.33565 0.00307058 0)
(8.33838 0.00376847 0)
(8.34184 0.00397084 0)
(8.34593 0.00363733 0)
(8.35058 0.00274242 0)
(8.35571 0.00128425 0)
(8.36129 -0.00073438 0)
(8.36729 -0.00331338 0)
(8.37369 -0.0064549 0)
(8.3805 -0.0101648 0)
(8.38771 -0.0144538 0)
(8.39534 -0.0193376 0)
(8.40339 -0.0248372 0)
(8.41188 -0.0309788 0)
(8.42083 -0.0377942 0)
(8.43026 -0.0453213 0)
(8.44019 -0.0536045 0)
(8.45064 -0.0626949 0)
(8.46164 -0.0726518 0)
(8.4732 -0.0835419 0)
(8.48534 -0.0954414 0)
(8.49807 -0.108435 0)
(8.51138 -0.122614 0)
(8.52528 -0.138079 0)
(8.53973 -0.154933 0)
(8.55471 -0.173284 0)
(8.57018 -0.19324 0)
(8.58607 -0.214908 0)
(8.60234 -0.23839 0)
(8.61892 -0.263793 0)
(8.63575 -0.29119 0)
(8.33306 0.000453779 0)
(8.33382 0.00132618 0)
(8.33553 0.00199942 0)
(8.33808 0.00229127 0)
(8.34132 0.00212161 0)
(8.34516 0.00144551 0)
(8.34954 0.000232056 0)
(8.35439 -0.00153047 0)
(8.35968 -0.00384726 0)
(8.36537 -0.00672428 0)
(8.37144 -0.0101691 0)
(8.3779 -0.0141923 0)
(8.38474 -0.0188086 0)
(8.39197 -0.0240372 0)
(8.39959 -0.029902 0)
(8.40761 -0.0364319 0)
(8.41605 -0.0436611 0)
(8.42492 -0.0516295 0)
(8.43424 -0.0603827 0)
(8.44402 -0.069973 0)
(8.45428 -0.0804591 0)
(8.46501 -0.0919069 0)
(8.47623 -0.10439 0)
(8.48794 -0.117987 0)
(8.50013 -0.132786 0)
(8.51277 -0.148877 0)
(8.52584 -0.166356 0)
(8.5393 -0.185319 0)
(8.5531 -0.205865 0)
(8.56719 -0.228089 0)
(8.58148 -0.252089 0)
(8.59592 -0.277963 0)
(8.61042 -0.305781 0)
(8.33306 0.000259937 0)
(8.33379 0.000716071 0)
(8.3354 0.000968476 0)
(8.33778 0.000868327 0)
(8.3408 0.000336012 0)
(8.3444 -0.000676787 0)
(8.34851 -0.00220492 0)
(8.35307 -0.00426773 0)
(8.35805 -0.00687752 0)
(8.36342 -0.010046 0)
(8.36915 -0.0137859 0)
(8.37524 -0.0181121 0)
(8.38169 -0.0230429 0)
(8.38849 -0.0286005 0)
(8.39565 -0.0348115 0)
(8.40318 -0.0417069 0)
(8.41107 -0.0493226 0)
(8.41935 -0.0576997 0)
(8.42802 -0.0668844 0)
(8.43708 -0.0769287 0)
(8.44654 -0.0878906 0)
(8.45639 -0.0998336 0)
(8.46665 -0.112827 0)
(8.47729 -0.126946 0)
(8.4883 -0.14227 0)
(8.49964 -0.158882 0)
(8.51129 -0.176868 0)
(8.5232 -0.196314 0)
(8.53531 -0.217307 0)
(8.54755 -0.239934 0)
(8.55984 -0.264279 0)
(8.57212 -0.290431 0)
(8.58428 -0.318451 0)
(8.33306 6.79564e-05 0)
(8.33375 0.000125804 0)
(8.33525 -2.0161e-05 0)
(8.33747 -0.000495806 0)
(8.34028 -0.00137813 0)
(8.34364 -0.00271805 0)
(8.34748 -0.00455373 0)
(8.35175 -0.00691039 0)
(8.35642 -0.00980632 0)
(8.36145 -0.0132582 0)
(8.36683 -0.0172832 0)
(8.37253 -0.0218999 0)
(8.37857 -0.0271299 0)
(8.38492 -0.0329979 0)
(8.3916 -0.0395327 0)
(8.39859 -0.0467669 0)
(8.40591 -0.0547375 0)
(8.41356 -0.063486 0)
(8.42153 -0.0730587 0)
(8.42984 -0.0835066 0)
(8.43846 -0.0948854 0)
(8.4474 -0.107256 0)
(8.45665 -0.120683 0)
(8.46619 -0.135236 0)
(8.47598 -0.150987 0)
(8.486 -0.16801 0)
(8.4962 -0.186382 0)
(8.50653 -0.206177 0)
(8.51692 -0.227473 0)
(8.52731 -0.250343 0)
(8.53762 -0.274859 0)
(8.54774 -0.301096 0)
(8.5576 -0.329099 0)
(8.33306 -0.000119097 0)
(8.3337 -0.000441938 0)
(8.3351 -0.000965414 0)
(8.33715 -0.00179982 0)
(8.33976 -0.00301877 0)
(8.34288 -0.00467484 0)
(8.34645 -0.00680875 0)
(8.35043 -0.0094502 0)
(8.35478 -0.0126224 0)
(8.35947 -0.0163464 0)
(8.36447 -0.020643 0)
(8.36978 -0.0255343 0)
(8.37538 -0.0310445 0)
(8.38126 -0.0372006 0)
(8.38743 -0.0440328 0)
(8.39387 -0.051575 0)
(8.40059 -0.0598646 0)
(8.40757 -0.068943 0)
(8.41482 -0.0788555 0)
(8.42233 -0.0896514 0)
(8.43009 -0.101384 0)
(8.43809 -0.11411 0)
(8.4463 -0.127889 0)
(8.45469 -0.142784 0)
(8.46325 -0.15886 0)
(8.47192 -0.176182 0)
(8.48066 -0.194816 0)
(8.4894 -0.214828 0)
(8.49809 -0.23628 0)
(8.50665 -0.259234 0)
(8.51499 -0.283748 0)
(8.523 -0.309882 0)
(8.53062 -0.337664 0)
(8.33306 -0.000299244 0)
(8.33365 -0.00098478 0)
(8.33495 -0.00186547 0)
(8.33684 -0.00304099 0)
(8.33925 -0.00458149 0)
(8.34213 -0.00654044 0)
(8.34544 -0.00896054 0)
(8.34912 -0.0118749 0)
(8.35314 -0.0153107 0)
(8.35747 -0.0192926 0)
(8.36209 -0.0238447 0)
(8.36698 -0.0289917 0)
(8.37213 -0.03476 0)
(8.37753 -0.0411784 0)
(8.38316 -0.0482781 0)
(8.38903 -0.0560937 0)
(8.39511 -0.0646624 0)
(8.40141 -0.0740248 0)
(8.40791 -0.0842248 0)
(8.4146 -0.0953093 0)
(8.42147 -0.107328 0)
(8.42848 -0.120333 0)
(8.43563 -0.13438 0)
(8.44288 -0.149523 0)
(8.45018 -0.16582 0)
(8.45749 -0.183327 0)
(8.46477 -0.202101 0)
(8.47194 -0.222194 0)
(8.47894 -0.243658 0)
(8.48569 -0.266541 0)
(8.49211 -0.290887 0)
(8.49809 -0.316739 0)
(8.50355 -0.34411 0)
(8.33305 -0.000471169 0)
(8.3336 -0.00150062 0)
(8.33479 -0.00271827 0)
(8.33653 -0.00421636 0)
(8.33874 -0.0060619 0)
(8.34139 -0.00830858 0)
(8.34442 -0.0110005 0)
(8.3478 -0.0141734 0)
(8.35149 -0.0178574 0)
(8.35546 -0.0220802 0)
(8.35969 -0.0268684 0)
(8.36415 -0.032249 0)
(8.36884 -0.03825 0)
(8.37373 -0.0449015 0)
(8.37881 -0.0522353 0)
(8.38407 -0.0602859 0)
(8.3895 -0.06909 0)
(8.39509 -0.0786869 0)
(8.40082 -0.0891183 0)
(8.40667 -0.100428 0)
(8.41262 -0.112662 0)
(8.41865 -0.125868 0)
(8.42472 -0.140095 0)
(8.4308 -0.15539 0)
(8.43685 -0.171804 0)
(8.44281 -0.189382 0)
(8.44863 -0.208172 0)
(8.45425 -0.228215 0)
(8.4596 -0.249551 0)
(8.46459 -0.272214 0)
(8.46915 -0.296235 0)
(8.47317 -0.321641 0)
(8.47658 -0.34843 0)
(8.33305 -0.000633836 0)
(8.33355 -0.00198745 0)
(8.33464 -0.00352142 0)
(8.33623 -0.00532256 0)
(8.33824 -0.00745504 0)
(8.34065 -0.00997229 0)
(8.34342 -0.0129193 0)
(8.34649 -0.0163336 0)
(8.34984 -0.0202477 0)
(8.35344 -0.0246913 0)
(8.35727 -0.0296933 0)
(8.36129 -0.0352822 0)
(8.3655 -0.0414873 0)
(8.36986 -0.0483393 0)
(8.37438 -0.0558702 0)
(8.37903 -0.064114 0)
(8.38379 -0.0731063 0)
(8.38865 -0.0828846 0)
(8.39359 -0.0934881 0)
(8.39858 -0.104957 0)
(8.40361 -0.117333 0)
(8.40863 -0.130659 0)
(8.41362 -0.144977 0)
(8.41854 -0.160328 0)
(8.42333 -0.176753 0)
(8.42796 -0.194291 0)
(8.43235 -0.212977 0)
(8.43645 -0.232843 0)
(8.44019 -0.253916 0)
(8.44349 -0.27622 0)
(8.44627 -0.299771 0)
(8.44844 -0.324581 0)
(8.44991 -0.350638 0)
(8.33304 -0.000786434 0)
(8.3335 -0.00244339 0)
(8.33449 -0.00427234 0)
(8.33592 -0.00635591 0)
(8.33774 -0.00875571 0)
(8.33992 -0.0115245 0)
(8.34241 -0.0147077 0)
(8.34518 -0.0183439 0)
(8.3482 -0.0224672 0)
(8.35142 -0.027109 0)
(8.35483 -0.0322996 0)
(8.35841 -0.0380687 0)
(8.36212 -0.0444462 0)
(8.36596 -0.0514631 0)
(8.36989 -0.059151 0)
(8.37391 -0.0675431 0)
(8.37799 -0.0766734 0)
(8.38211 -0.0865771 0)
(8.38625 -0.0972905 0)
(8.39038 -0.10885 0)
(8.39447 -0.121293 0)
(8.39849 -0.134656 0)
(8.4024 -0.148976 0)
(8.40616 -0.164286 0)
(8.40972 -0.18062 0)
(8.41303 -0.198007 0)
(8.41603 -0.216473 0)
(8.41866 -0.236041 0)
(8.42085 -0.256726 0)
(8.42253 -0.27854 0)
(8.42362 -0.301488 0)
(8.42403 -0.32557 0)
(8.4237 -0.350763 0)
(8.33304 -0.000928255 0)
(8.33345 -0.00286655 0)
(8.33434 -0.00496823 0)
(8.33562 -0.0073124 0)
(8.33725 -0.00995827 0)
(8.3392 -0.0129575 0)
(8.34142 -0.0163555 0)
(8.34388 -0.0201914 0)
(8.34655 -0.0245002 0)
(8.3494 -0.0293146 0)
(8.35239 -0.0346655 0)
(8.35551 -0.0405833 0)
(8.35873 -0.0470983 0)
(8.36202 -0.0542412 0)
(8.36537 -0.062043 0)
(8.36875 -0.0705353 0)
(8.37214 -0.0797506 0)
(8.37551 -0.0897212 0)
(8.37884 -0.10048 0)
(8.3821 -0.11206 0)
(8.38526 -0.124494 0)
(8.38828 -0.137812 0)
(8.39112 -0.152044 0)
(8.39374 -0.167219 0)
(8.39609 -0.183361 0)
(8.39811 -0.200491 0)
(8.39977 -0.218627 0)
(8.40098 -0.237782 0)
(8.40169 -0.257961 0)
(8.40183 -0.279167 0)
(8.40133 -0.301394 0)
(8.40011 -0.324632 0)
(8.39811 -0.348851 0)
(8.33303 -0.00105864 0)
(8.3334 -0.00325509 0)
(8.33418 -0.00560627 0)
(8.33532 -0.00818811 0)
(8.33676 -0.0110575 0)
(8.33848 -0.0142648 0)
(8.34043 -0.0178548 0)
(8.34259 -0.0218665 0)
(8.34491 -0.0263355 0)
(8.34738 -0.0312948 0)
(8.34995 -0.0367757 0)
(8.35261 -0.0428088 0)
(8.35532 -0.0494242 0)
(8.35807 -0.056652 0)
(8.36082 -0.064522 0)
(8.36356 -0.0730645 0)
(8.36625 -0.0823093 0)
(8.36888 -0.0922863 0)
(8.3714 -0.103025 0)
(8.3738 -0.114554 0)
(8.37603 -0.1269 0)
(8.37806 -0.140091 0)
(8.37985 -0.154148 0)
(8.38135 -0.169094 0)
(8.38253 -0.184947 0)
(8.38332 -0.201719 0)
(8.38367 -0.219421 0)
(8.38353 -0.238056 0)
(8.38284 -0.257623 0)
(8.38154 -0.278114 0)
(8.37955 -0.299515 0)
(8.37681 -0.321808 0)
(8.37328 -0.344958 0)
(8.33303 -0.00117694 0)
(8.33335 -0.00360709 0)
(8.33404 -0.00618322 0)
(8.33503 -0.0089782 0)
(8.33628 -0.0120464 0)
(8.33776 -0.0154365 0)
(8.33945 -0.019192 0)
(8.3413 -0.0233518 0)
(8.34328 -0.0279513 0)
(8.34536 -0.0330235 0)
(8.34752 -0.0385999 0)
(8.34971 -0.0447109 0)
(8.35192 -0.0513859 0)
(8.35412 -0.0586542 0)
(8.35628 -0.0665442 0)
(8.35837 -0.0750842 0)
(8.36037 -0.0843017 0)
(8.36225 -0.0942234 0)
(8.36398 -0.104875 0)
(8.36552 -0.116282 0)
(8.36684 -0.128465 0)
(8.3679 -0.141447 0)
(8.36866 -0.155244 0)
(8.36909 -0.169873 0)
(8.36913 -0.185344 0)
(8.36873 -0.201663 0)
(8.36785 -0.218834 0)
(8.36643 -0.236852 0)
(8.36442 -0.25571 0)
(8.36176 -0.275391 0)
(8.3584 -0.295877 0)
(8.35427 -0.317142 0)
(8.34934 -0.339146 0)
(8.33303 -0.00128253 0)
(8.3333 -0.00392086 0)
(8.33389 -0.00669684 0)
(8.33474 -0.00968052 0)
(8.3358 -0.0129238 0)
(8.33706 -0.0164729 0)
(8.33848 -0.0203699 0)
(8.34003 -0.0246525 0)
(8.34167 -0.0293551 0)
(8.34337 -0.0345103 0)
(8.3451 -0.0401489 0)
(8.34684 -0.0463006 0)
(8.34854 -0.0529942 0)
(8.3502 -0.0602576 0)
(8.35176 -0.0681178 0)
(8.35322 -0.0766008 0)
(8.35453 -0.0857318 0)
(8.35567 -0.0955345 0)
(8.35661 -0.106031 0)
(8.35731 -0.117242 0)
(8.35774 -0.129186 0)
(8.35786 -0.141878 0)
(8.35764 -0.155332 0)
(8.35702 -0.169556 0)
(8.35597 -0.184555 0)
(8.35445 -0.200332 0)
(8.3524 -0.216881 0)
(8.34978 -0.234193 0)
(8.34653 -0.252253 0)
(8.34262 -0.271042 0)
(8.33799 -0.290533 0)
(8.33259 -0.310698 0)
(8.32639 -0.331495 0)
(8.33302 -0.00137467 0)
(8.33325 -0.00419366 0)
(8.33374 -0.00714135 0)
(8.33445 -0.0102844 0)
(8.33533 -0.0136714 0)
(8.33637 -0.0173461 0)
(8.33753 -0.0213491 0)
(8.33877 -0.0257171 0)
(8.34008 -0.0304839 0)
(8.3414 -0.0356815 0)
(8.34272 -0.0413403 0)
(8.344 -0.0474891 0)
(8.34521 -0.0541554 0)
(8.34632 -0.0613656 0)
(8.3473 -0.0691448 0)
(8.34813 -0.0775168 0)
(8.34877 -0.0865039 0)
(8.34919 -0.0961266 0)
(8.34936 -0.106404 0)
(8.34924 -0.117352 0)
(8.34881 -0.128985 0)
(8.34802 -0.141313 0)
(8.34685 -0.154346 0)
(8.34524 -0.168087 0)
(8.34316 -0.182535 0)
(8.34056 -0.197688 0)
(8.33742 -0.213536 0)
(8.33367 -0.230063 0)
(8.32929 -0.247253 0)
(8.32422 -0.265078 0)
(8.31844 -0.283512 0)
(8.31188 -0.302521 0)
(8.30455 -0.322065 0)
(8.33302 -0.00145294 0)
(8.3332 -0.00442604 0)
(8.3336 -0.0075224 0)
(8.33417 -0.0108061 0)
(8.33487 -0.0143219 0)
(8.33569 -0.0181092 0)
(8.3366 -0.0222044 0)
(8.33756 -0.0266411 0)
(8.33853 -0.031451 0)
(8.33948 -0.0366645 0)
(8.34039 -0.0423107 0)
(8.34122 -0.0484176 0)
(8.34194 -0.0550119 0)
(8.34252 -0.0621186 0)
(8.34293 -0.0697613 0)
(8.34314 -0.0779618 0)
(8.34311 -0.0867402 0)
(8.34283 -0.0961143 0)
(8.34226 -0.1061 0)
(8.34135 -0.116709 0)
(8.34009 -0.127953 0)
(8.33844 -0.139839 0)
(8.33636 -0.152369 0)
(8.33381 -0.165544 0)
(8.33075 -0.179361 0)
(8.32716 -0.193809 0)
(8.32299 -0.208877 0)
(8.31821 -0.224545 0)
(8.31278 -0.240792 0)
(8.30666 -0.257591 0)
(8.29983 -0.274909 0)
(8.29224 -0.292714 0)
(8.28389 -0.310965 0)
(8.33301 -0.00151539 0)
(8.33315 -0.00460656 0)
(8.33345 -0.00780851 0)
(8.33387 -0.0111811 0)
(8.3344 -0.0147658 0)
(8.33501 -0.0186011 0)
(8.33566 -0.0227236 0)
(8.33634 -0.0271666 0)
(8.33699 -0.0319611 0)
(8.33759 -0.0371365 0)
(8.33811 -0.0427202 0)
(8.3385 -0.0487385 0)
(8.33875 -0.0552157 0)
(8.33882 -0.0621746 0)
(8.33867 -0.0696363 0)
(8.33829 -0.0776198 0)
(8.33763 -0.086142 0)
(8.33667 -0.0952178 0)
(8.33538 -0.104859 0)
(8.33373 -0.115076 0)
(8.33168 -0.125874 0)
(8.3292 -0.137257 0)
(8.32626 -0.149226 0)
(8.32282 -0.161775 0)
(8.31886 -0.174898 0)
(8.31434 -0.188582 0)
(8.30923 -0.202812 0)
(8.30349 -0.217567 0)
(8.29711 -0.232822 0)
(8.29003 -0.248547 0)
(8.28226 -0.264712 0)
(8.27375 -0.281282 0)
(8.2645 -0.29822 0)
(8.33301 -0.00156489 0)
(8.33311 -0.00476262 0)
(8.33332 -0.00808367 0)
(8.33362 -0.0115818 0)
(8.33399 -0.0152845 0)
(8.3344 -0.0192159 0)
(8.33482 -0.0234021 0)
(8.33521 -0.0278705 0)
(8.33555 -0.0326493 0)
(8.3358 -0.0377672 0)
(8.33592 -0.0432525 0)
(8.33589 -0.0491319 0)
(8.33567 -0.0554303 0)
(8.33524 -0.0621708 0)
(8.33455 -0.0693738 0)
(8.33359 -0.0770574 0)
(8.33232 -0.0852373 0)
(8.33071 -0.0939259 0)
(8.32874 -0.103133 0)
(8.32637 -0.112866 0)
(8.32357 -0.123128 0)
(8.32032 -0.13392 0)
(8.31658 -0.145237 0)
(8.31233 -0.157075 0)
(8.30752 -0.169421 0)
(8.30215 -0.182262 0)
(8.29617 -0.19558 0)
(8.28957 -0.209352 0)
(8.28232 -0.223551 0)
(8.2744 -0.238149 0)
(8.26578 -0.253113 0)
(8.25645 -0.268411 0)
(8.24641 -0.284007 0)
(8.333 -0.0015856 0)
(8.33303 -0.00479006 0)
(8.3331 -0.00807918 0)
(8.33324 -0.0115151 0)
(8.33343 -0.015138 0)
(8.33365 -0.0189834 0)
(8.33385 -0.0230819 0)
(8.33401 -0.0274595 0)
(8.33408 -0.0321399 0)
(8.33402 -0.0371461 0)
(8.3338 -0.0425005 0)
(8.33338 -0.0482243 0)
(8.33274 -0.0543376 0)
(8.33184 -0.0608588 0)
(8.33066 -0.0678046 0)
(8.32916 -0.0751895 0)
(8.32731 -0.0830257 0)
(8.32509 -0.0913228 0)
(8.32248 -0.100088 0)
(8.31944 -0.109324 0)
(8.31594 -0.119033 0)
(8.31196 -0.129213 0)
(8.30748 -0.139858 0)
(8.30246 -0.150958 0)
(8.29689 -0.162503 0)
(8.29073 -0.174476 0)
(8.28397 -0.186856 0)
(8.27659 -0.199623 0)
(8.26856 -0.212748 0)
(8.25987 -0.226204 0)
(8.25052 -0.239959 0)
(8.24047 -0.253982 0)
(8.22975 -0.268241 0)
(8.33302 -0.00162735 0)
(8.33307 -0.00500378 0)
(8.33312 -0.00855577 0)
(8.33317 -0.01228 0)
(8.33321 -0.0161483 0)
(8.33322 -0.0201574 0)
(8.33318 -0.0243253 0)
(8.33305 -0.0286804 0)
(8.33279 -0.0332556 0)
(8.33239 -0.0380844 0)
(8.33179 -0.043199 0)
(8.33097 -0.0486284 0)
(8.32989 -0.0543986 0)
(8.32853 -0.0605321 0)
(8.32685 -0.0670478 0)
(8.32483 -0.0739609 0)
(8.32244 -0.0812835 0)
(8.31965 -0.0890241 0)
(8.31644 -0.0971879 0)
(8.31277 -0.105777 0)
(8.30864 -0.11479 0)
(8.304 -0.124222 0)
(8.29884 -0.134066 0)
(8.29313 -0.144311 0)
(8.28686 -0.154942 0)
(8.28001 -0.165943 0)
(8.27255 -0.177293 0)
(8.26447 -0.188969 0)
(8.25576 -0.200944 0)
(8.24641 -0.213191 0)
(8.2364 -0.225679 0)
(8.22574 -0.238381 0)
(8.21443 -0.251266 0)
(8.33294 -0.00149164 0)
(8.33271 -0.00439897 0)
(8.33248 -0.00738737 0)
(8.33233 -0.0105848 0)
(8.33226 -0.014037 0)
(8.33219 -0.0177538 0)
(8.33207 -0.0217301 0)
(8.33183 -0.0259607 0)
(8.33143 -0.0304475 0)
(8.33082 -0.0351985 0)
(8.32997 -0.0402252 0)
(8.32885 -0.0455416 0)
(8.32743 -0.0511623 0)
(8.32567 -0.0571016 0)
(8.32356 -0.0633725 0)
(8.32107 -0.0699863 0)
(8.31817 -0.0769519 0)
(8.31484 -0.0842756 0)
(8.31107 -0.0919612 0)
(8.30682 -0.100009 0)
(8.30208 -0.108418 0)
(8.29683 -0.117182 0)
(8.29104 -0.126293 0)
(8.2847 -0.13574 0)
(8.27779 -0.145509 0)
(8.2703 -0.155584 0)
(8.26221 -0.165944 0)
(8.25351 -0.176568 0)
(8.2442 -0.187431 0)
(8.23426 -0.198507 0)
(8.22369 -0.209769 0)
(8.21249 -0.22119 0)
(8.20068 -0.232745 0)
(8.33312 -0.00184551 0)
(8.3333 -0.00583266 0)
(8.33321 -0.0100469 0)
(8.33292 -0.0142377 0)
(8.33254 -0.0182965 0)
(8.33209 -0.0222516 0)
(8.33156 -0.0261724 0)
(8.33092 -0.0301298 0)
(8.33013 -0.0341878 0)
(8.32914 -0.0384014 0)
(8.32791 -0.0428166 0)
(8.3264 -0.0474708 0)
(8.32459 -0.0523938 0)
(8.32243 -0.0576085 0)
(8.3199 -0.0631324 0)
(8.31697 -0.0689781 0)
(8.31363 -0.0751536 0)
(8.30983 -0.0816634 0)
(8.30557 -0.0885082 0)
(8.30083 -0.0956856 0)
(8.29557 -0.10319 0)
(8.28979 -0.111013 0)
(8.28347 -0.119144 0)
(8.2766 -0.127569 0)
(8.26915 -0.136272 0)
(8.26113 -0.145235 0)
(8.25251 -0.154437 0)
(8.24329 -0.163856 0)
(8.23348 -0.173469 0)
(8.22306 -0.18325 0)
(8.21203 -0.193174 0)
(8.2004 -0.203219 0)
(8.18818 -0.213361 0)
(8.3327 -0.000553091 0)
(8.33168 -0.00164806 0)
(8.33096 -0.00335045 0)
(8.33071 -0.00590365 0)
(8.33068 -0.00916478 0)
(8.33062 -0.0129022 0)
(8.33041 -0.0169512 0)
(8.32997 -0.0212231 0)
(8.32926 -0.0256737 0)
(8.32824 -0.0302851 0)
(8.32688 -0.0350556 0)
(8.32517 -0.0399936 0)
(8.32307 -0.0451122 0)
(8.32057 -0.0504264 0)
(8.31765 -0.0559506 0)
(8.3143 -0.0616973 0)
(8.31049 -0.0676769 0)
(8.30622 -0.0738968 0)
(8.30146 -0.0803613 0)
(8.29621 -0.0870718 0)
(8.29044 -0.0940265 0)
(8.28414 -0.101221 0)
(8.2773 -0.108647 0)
(8.26991 -0.116295 0)
(8.26197 -0.124152 0)
(8.25345 -0.132203 0)
(8.24436 -0.140432 0)
(8.23469 -0.148818 0)
(8.22444 -0.157341 0)
(8.21362 -0.16598 0)
(8.20221 -0.174713 0)
(8.19023 -0.183518 0)
(8.17769 -0.192378 0)
(8.33341 -0.00292606 0)
(8.33389 -0.00981553 0)
(8.33316 -0.0162088 0)
(8.33193 -0.0212224 0)
(8.33074 -0.0251678 0)
(8.32969 -0.0284871 0)
(8.3287 -0.0314779 0)
(8.32765 -0.0343355 0)
(8.32647 -0.0371982 0)
(8.32507 -0.0401641 0)
(8.32341 -0.0433004 0)
(8.32142 -0.0466516 0)
(8.31908 -0.0502468 0)
(8.31635 -0.0541044 0)
(8.31319 -0.058235 0)
(8.30959 -0.0626434 0)
(8.30554 -0.06733 0)
(8.301 -0.0722917 0)
(8.29596 -0.0775222 0)
(8.29042 -0.0830129 0)
(8.28435 -0.0887525 0)
(8.27775 -0.0947281 0)
(8.27061 -0.100925 0)
(8.26292 -0.107326 0)
(8.25468 -0.113914 0)
(8.24588 -0.12067 0)
(8.23652 -0.127574 0)
(8.2266 -0.134606 0)
(8.21612 -0.141744 0)
(8.20509 -0.148969 0)
(8.19351 -0.15626 0)
(8.18139 -0.1636 0)
(8.16875 -0.170975 0)
(8.33169 0.00297388 0)
(8.32854 0.00819802 0)
(8.32806 0.00974543 0)
(8.32898 0.00766958 0)
(8.32977 0.0036468 0)
(8.33009 -0.00110534 0)
(8.32994 -0.0061102 0)
(8.32936 -0.0111706 0)
(8.32833 -0.0161867 0)
(8.32688 -0.0211223 0)
(8.32499 -0.0259819 0)
(8.32269 -0.0307887 0)
(8.31995 -0.0355725 0)
(8.31679 -0.0403644 0)
(8.31319 -0.0451935 0)
(8.30915 -0.0500853 0)
(8.30466 -0.0550608 0)
(8.29971 -0.0601368 0)
(8.29428 -0.0653254 0)
(8.28838 -0.0706343 0)
(8.28199 -0.0760676 0)
(8.27511 -0.0816255 0)
(8.26773 -0.087305 0)
(8.25984 -0.0931003 0)
(8.25144 -0.0990026 0)
(8.24254 -0.105001 0)
(8.23312 -0.111084 0)
(8.22318 -0.117234 0)
(8.21273 -0.123438 0)
(8.20177 -0.129678 0)
(8.19031 -0.135938 0)
(8.17835 -0.142201 0)
(8.1659 -0.148457 0)
(8.3342 -0.00718486 0)
(8.33382 -0.0230381 0)
(8.32887 -0.0341441 0)
(8.3241 -0.0393929 0)
(8.32143 -0.0416148 0)
(8.3201 -0.0426527 0)
(8.31924 -0.0431685 0)
(8.31851 -0.0435396 0)
(8.31772 -0.0440177 0)
(8.31674 -0.0447345 0)
(8.3155 -0.045751 0)
(8.31392 -0.0470931 0)
(8.31196 -0.0487665 0)
(8.3096 -0.0507654 0)
(8.30681 -0.0530772 0)
(8.30357 -0.055686 0)
(8.29987 -0.0585742 0)
(8.29571 -0.0617229 0)
(8.29107 -0.0651124 0)
(8.28595 -0.0687226 0)
(8.28034 -0.0725328 0)
(8.27425 -0.0765219 0)
(8.26767 -0.0806685 0)
(8.2606 -0.0849511 0)
(8.25304 -0.0893483 0)
(8.245 -0.0938391 0)
(8.23648 -0.0984032 0)
(8.22748 -0.103021 0)
(8.21801 -0.107674 0)
(8.20808 -0.112347 0)
(8.1977 -0.117026 0)
(8.18687 -0.121703 0)
(8.17562 -0.126372 0)
(8.32886 0.0222395 0)
(8.32218 0.0417113 0)
(8.32613 0.0425049 0)
(8.33159 0.0359389 0)
(8.33395 0.0277665 0)
(8.33463 0.0195183 0)
(8.33481 0.0116163 0)
(8.33467 0.00428573 0)
(8.33429 -0.00241206 0)
(8.33371 -0.00852358 0)
(8.33296 -0.0141298 0)
(8.33202 -0.019316 0)
(8.33087 -0.0241648 0)
(8.32948 -0.0287511 0)
(8.32783 -0.0331406 0)
(8.32591 -0.0373888 0)
(8.3237 -0.0415421 0)
(8.32118 -0.0456384 0)
(8.31834 -0.0497075 0)
(8.31518 -0.0537725 0)
(8.31169 -0.0578501 0)
(8.30785 -0.0619516 0)
(8.30367 -0.066083 0)
(8.29914 -0.0702457 0)
(8.29425 -0.0744373 0)
(8.28898 -0.0786513 0)
(8.28332 -0.0828785 0)
(8.27725 -0.0871066 0)
(8.27075 -0.0913218 0)
(8.26379 -0.0955086 0)
(8.25635 -0.0996533 0)
(8.24839 -0.10374 0)
(8.2399 -0.107765 0)
(8.32429 -0.0384287 0)
(8.29352 -0.0696037 0)
(8.27076 -0.074094 0)
(8.26527 -0.0724652 0)
(8.27257 -0.0694029 0)
(8.28532 -0.0656038 0)
(8.29999 -0.0619122 0)
(8.31512 -0.0587861 0)
(8.32985 -0.0563142 0)
(8.34375 -0.0544914 0)
(8.35661 -0.0532879 0)
(8.36837 -0.0526533 0)
(8.37905 -0.0525303 0)
(8.38867 -0.052864 0)
(8.39729 -0.0536039 0)
(8.40495 -0.0547042 0)
(8.4117 -0.056123 0)
(8.41759 -0.0578217 0)
(8.42263 -0.0597642 0)
(8.42684 -0.0619153 0)
(8.43024 -0.0642404 0)
(8.43281 -0.0667046 0)
(8.43454 -0.0692724 0)
(8.43541 -0.0719077 0)
(8.43538 -0.0745735 0)
(8.43441 -0.077233 0)
(8.43246 -0.0798496 0)
(8.42949 -0.0823887 0)
(8.42543 -0.0848184 0)
(8.42025 -0.0871113 0)
(8.4139 -0.0892452 0)
(8.40635 -0.0912064 0)
(8.39763 -0.0929896 0)
(8.34002 0.156862 0)
(8.38149 0.148695 0)
(8.40136 0.102617 0)
(8.39604 0.0635 0)
(8.37685 0.0341602 0)
(8.35024 0.0128555 0)
(8.31897 -0.00262339 0)