/*--------------------------------*- C++ -*----------------------------------*\
| =========                 |                                                 |
| \\      /  F ield         | OpenFOAM: The Open Source CFD Toolbox           |
|  \\    /   O peration     | Version:  2.1.1                                 |
|   \\  /    A nd           | Web:      www.OpenFOAM.org                      |
|    \\/     M anipulation  |                                                 |
\*---------------------------------------------------------------------------*/
FoamFile
{
    version     2.0;
    format      ascii;
    class       volScalarField;
    location    "0.135";
    object      nuSgs;
}
// * * * * * * * * * * * * * * * * * * * * * * * * * * * * * * * * * * * * * //

dimensions      [0 2 -1 0 0 0 0];

internalField   nonuniform List<scalar> 
6820
(
0.000556015
0.000457421
0.00036817
0.000306168
0.000268982
0.000243366
0.00022451
0.000210084
0.000198429
0.000188637
0.000180194
0.00017277
0.000166143
0.000160159
0.000154706
0.000149699
0.000145074
0.00014078
0.000136778
0.000133037
0.000129531
0.00012624
0.000123144
0.000120231
0.00011749
0.000114911
0.000112485
0.000110206
0.00010806
0.000106063
0.000104187
0.000102301
0.000100451
0.000103494
0.000170655
0.000223643
0.00024002
0.000235275
0.000224924
0.000213236
0.000201957
0.000191725
0.000182559
0.000174338
0.000166931
0.000160213
0.000154081
0.000148453
0.000143259
0.000138442
0.000133954
0.000129756
0.000125813
0.000122097
0.000118585
0.000115255
0.00011209
0.000109078
0.000106203
0.000103455
0.000100824
9.83194e-05
9.58914e-05
9.37051e-05
9.13667e-05
9.05694e-05
3.67761e-05
2.84819e-05
4.5603e-05
8.22767e-05
0.000107921
0.000123531
0.000131981
0.000135861
0.000136995
0.000136452
0.000134871
0.000132649
0.000130033
0.000127188
0.00012422
0.0001212
0.000118176
0.000115178
0.000112228
0.000109338
0.000106517
0.000103769
0.000101097
9.85009e-05
9.59785e-05
9.35281e-05
9.11487e-05
8.88383e-05
8.65994e-05
8.44192e-05
8.23342e-05
8.02365e-05
7.84137e-05
2.07371e-05
2.8689e-05
2.65691e-05
1.51045e-05
3.66873e-06
1.3827e-05
2.566e-05
3.54975e-05
4.34406e-05
4.97619e-05
5.4735e-05
5.8602e-05
6.15632e-05
6.37745e-05
6.53683e-05
6.64535e-05
6.71198e-05
6.74407e-05
6.74768e-05
6.72777e-05
6.68843e-05
6.63304e-05
6.56438e-05
6.48471e-05
6.39593e-05
6.2997e-05
6.1974e-05
6.09003e-05
5.97879e-05
5.86387e-05
5.74748e-05
5.62889e-05
5.51998e-05
1.44193e-05
1.75916e-05
2.26097e-05
2.43032e-05
2.3979e-05
2.20088e-05
1.91306e-05
1.58816e-05
1.24933e-05
9.11492e-06
5.85485e-06
2.80125e-06
7.33847e-07
2.93089e-06
5.3125e-06
7.48044e-06
9.42247e-06
1.1145e-05
1.26595e-05
1.39789e-05
1.5117e-05
1.60872e-05
1.69028e-05
1.75759e-05
1.8118e-05
1.85397e-05
1.88511e-05
1.90609e-05
1.91797e-05
1.92149e-05
1.91777e-05
1.90691e-05
1.88946e-05
1.09184e-05
1.25059e-05
1.38314e-05
1.43357e-05
1.51136e-05
1.57463e-05
1.61195e-05
1.63263e-05
1.63706e-05
1.62569e-05
1.60088e-05
1.56494e-05
1.52016e-05
1.46803e-05
1.41042e-05
1.34907e-05
1.28553e-05
1.22113e-05
1.15696e-05
1.09391e-05
1.03269e-05
9.73865e-06
9.17862e-06
8.65021e-06
8.15594e-06
7.6975e-06
7.27584e-06
6.89172e-06
6.54442e-06
6.23478e-06
5.96147e-06
5.73472e-06
5.56733e-06
8.24181e-06
9.43675e-06
1.02596e-05
1.00565e-05
9.8638e-06
9.68158e-06
9.49364e-06
9.40295e-06
9.39883e-06
9.43733e-06
9.49163e-06
9.54396e-06
9.58279e-06
9.60582e-06
9.61064e-06
9.59609e-06
9.56231e-06
9.51032e-06
9.44162e-06
9.358e-06
9.26138e-06
9.15371e-06
9.0369e-06
8.91283e-06
8.78324e-06
8.64981e-06
8.51394e-06
8.37794e-06
8.24337e-06
8.11595e-06
8.00094e-06
7.91168e-06
7.86183e-06
6.35709e-06
7.41786e-06
8.22972e-06
8.09308e-06
7.78113e-06
7.43959e-06
7.06029e-06
6.73495e-06
6.48255e-06
6.28247e-06
6.12202e-06
5.99231e-06
5.88454e-06
5.79219e-06
5.71107e-06
5.63818e-06
5.57114e-06
5.50813e-06
5.44783e-06
5.38928e-06
5.33185e-06
5.27515e-06
5.219e-06
5.16341e-06
5.10856e-06
5.05486e-06
5.00304e-06
4.95457e-06
4.91174e-06
4.87852e-06
4.85877e-06
4.86202e-06
4.90033e-06
4.99576e-06
5.86762e-06
6.55651e-06
6.55134e-06
6.38265e-06
6.17393e-06
5.89e-06
5.60362e-06
5.35343e-06
5.13576e-06
4.94591e-06
4.78051e-06
4.63479e-06
4.50468e-06
4.38741e-06
4.28089e-06
4.1835e-06
4.09404e-06
4.01164e-06
3.93566e-06
3.86562e-06
3.80119e-06
3.74218e-06
3.68856e-06
3.64042e-06
3.59807e-06
3.56213e-06
3.5336e-06
3.51383e-06
3.50563e-06
3.51243e-06
3.53964e-06
3.59687e-06
3.98936e-06
4.71564e-06
5.32431e-06
5.39754e-06
5.2953e-06
5.14655e-06
4.92976e-06
4.70046e-06
4.49662e-06
4.31745e-06
4.15851e-06
4.0177e-06
3.892e-06
3.77854e-06
3.67536e-06
3.58112e-06
3.49477e-06
3.4155e-06
3.34273e-06
3.27603e-06
3.21508e-06
3.15967e-06
3.10973e-06
3.06529e-06
3.02652e-06
2.99378e-06
2.96759e-06
2.94889e-06
2.93901e-06
2.93993e-06
2.95394e-06
2.98322e-06
3.03504e-06
3.22909e-06
3.84224e-06
4.38169e-06
4.4972e-06
4.44402e-06
4.34458e-06
4.18422e-06
4.0004e-06
3.82812e-06
3.67188e-06
3.53042e-06
3.4038e-06
3.29074e-06
3.18926e-06
3.09778e-06
3.0151e-06
2.94019e-06
2.87224e-06
2.81062e-06
2.75486e-06
2.70463e-06
2.65971e-06
2.61999e-06
2.58549e-06
2.55633e-06
2.5328e-06
2.51535e-06
2.50471e-06
2.50176e-06
2.50765e-06
2.52374e-06
2.55031e-06
2.59298e-06
2.64185e-06
3.16574e-06
3.65374e-06
3.80503e-06
3.79791e-06
3.73719e-06
3.61647e-06
3.46467e-06
3.31515e-06
3.17649e-06
3.04932e-06
2.93451e-06
2.83161e-06
2.73924e-06
2.65615e-06
2.58135e-06
2.51398e-06
2.45335e-06
2.39891e-06
2.35022e-06
2.30696e-06
2.26889e-06
2.23587e-06
2.20784e-06
2.18486e-06
2.16707e-06
2.15475e-06
2.14828e-06
2.14816e-06
2.1549e-06
2.16905e-06
2.18971e-06
2.22121e-06
2.17804e-06
2.63387e-06
3.08383e-06
3.26059e-06
3.2891e-06
3.25882e-06
3.17154e-06
3.05016e-06
2.92388e-06
2.80284e-06
2.68911e-06
2.58446e-06
2.48949e-06
2.4037e-06
2.32636e-06
2.25682e-06
2.19444e-06
2.13865e-06
2.08893e-06
2.04487e-06
2.00611e-06
1.97239e-06
1.9435e-06
1.91932e-06
1.89978e-06
1.8849e-06
1.87472e-06
1.86938e-06
1.86896e-06
1.87347e-06
1.88289e-06
1.89575e-06
1.91559e-06
1.80406e-06
2.20911e-06
2.6308e-06
2.82756e-06
2.88691e-06
2.88363e-06
2.82449e-06
2.72845e-06
2.62118e-06
2.51422e-06
2.41128e-06
2.315e-06
2.22673e-06
2.14654e-06
2.07406e-06
2.00884e-06
1.95038e-06
1.89817e-06
1.85176e-06
1.81076e-06
1.77481e-06
1.74361e-06
1.71693e-06
1.69456e-06
1.67634e-06
1.66214e-06
1.65183e-06
1.6453e-06
1.64236e-06
1.64267e-06
1.64588e-06
1.65032e-06
1.65896e-06
1.49645e-06
1.86524e-06
2.26668e-06
2.47974e-06
2.56481e-06
2.58404e-06
2.54781e-06
2.47316e-06
2.38286e-06
2.28893e-06
2.19613e-06
2.10759e-06
2.02519e-06
1.94951e-06
1.88057e-06
1.81818e-06
1.76204e-06
1.71177e-06
1.667e-06
1.62737e-06
1.59253e-06
1.56216e-06
1.53598e-06
1.51371e-06
1.4951e-06
1.4799e-06
1.46784e-06
1.45861e-06
1.45183e-06
1.44698e-06
1.44351e-06
1.43977e-06
1.43829e-06
1.23858e-06
1.58354e-06
1.9712e-06
2.1979e-06
2.30485e-06
2.34387e-06
2.3275e-06
2.27151e-06
2.19611e-06
2.11337e-06
2.02894e-06
1.94653e-06
1.86852e-06
1.79602e-06
1.72938e-06
1.66865e-06
1.6137e-06
1.56425e-06
1.51997e-06
1.48053e-06
1.44559e-06
1.41482e-06
1.38787e-06
1.36444e-06
1.34418e-06
1.32676e-06
1.31181e-06
1.29889e-06
1.28751e-06
1.27704e-06
1.26688e-06
1.25549e-06
1.2451e-06
1.01848e-06
1.35064e-06
1.73003e-06
1.96853e-06
2.09422e-06
2.15055e-06
2.15114e-06
2.11101e-06
2.04847e-06
1.97545e-06
1.89829e-06
1.82116e-06
1.74681e-06
1.67672e-06
1.61155e-06
1.55157e-06
1.49678e-06
1.44703e-06
1.40208e-06
1.36164e-06
1.32539e-06
1.293e-06
1.26412e-06
1.2384e-06
1.21545e-06
1.19488e-06
1.17625e-06
1.15907e-06
1.14278e-06
1.12674e-06
1.11033e-06
1.09218e-06
1.07426e-06
8.27486e-07
1.15716e-06
1.533e-06
1.78187e-06
1.92365e-06
1.99522e-06
2.01061e-06
1.98433e-06
1.93311e-06
1.86863e-06
1.79767e-06
1.72479e-06
1.65309e-06
1.58439e-06
1.51966e-06
1.45939e-06
1.40376e-06
1.35272e-06
1.30613e-06
1.26374e-06
1.22525e-06
1.19034e-06
1.15867e-06
1.12985e-06
1.10349e-06
1.07915e-06
1.05636e-06
1.03461e-06
1.01334e-06
9.91919e-07
9.69766e-07
9.45701e-07
9.21449e-07
6.59591e-07
9.96909e-07
1.37305e-06
1.63108e-06
1.78667e-06
1.87164e-06
1.89994e-06
1.88562e-06
1.8442e-06
1.78703e-06
1.72122e-06
1.65167e-06
1.5818e-06
1.51372e-06
1.44867e-06
1.38733e-06
1.33003e-06
1.27687e-06
1.22777e-06
1.18254e-06
1.14095e-06
1.10271e-06
1.06747e-06
1.03487e-06
1.00452e-06
9.75981e-07
9.48794e-07
9.22459e-07
8.96429e-07
8.70136e-07
8.43025e-07
8.14108e-07
7.84847e-07
5.11411e-07
8.66523e-07
1.2456e-06
1.51151e-06
1.67881e-06
1.77548e-06
1.81505e-06
1.81111e-06
1.77821e-06
1.72735e-06
1.66588e-06
1.59895e-06
1.53023e-06
1.46212e-06
1.39608e-06
1.333e-06
1.27338e-06
1.21741e-06
1.16512e-06
1.1164e-06
1.07106e-06
1.02885e-06
9.89466e-07
9.52574e-07
9.178e-07
8.84737e-07
8.52946e-07
8.21966e-07
7.91293e-07
7.60428e-07
7.28867e-07
6.95819e-07
6.62513e-07
3.83524e-07
7.65308e-07
1.14802e-06
1.42022e-06
1.59721e-06
1.70392e-06
1.75323e-06
1.7582e-06
1.73255e-06
1.68696e-06
1.62886e-06
1.56366e-06
1.49526e-06
1.42629e-06
1.35845e-06
1.29283e-06
1.23007e-06
1.17052e-06
1.11428e-06
1.06135e-06
1.01159e-06
9.64833e-07
9.20813e-07
8.79245e-07
8.39801e-07
8.02125e-07
7.65827e-07
7.30499e-07
6.95696e-07
6.60992e-07
6.25919e-07
5.89855e-07
5.53736e-07
2.85165e-07
6.95015e-07
1.07923e-06
1.35563e-06
1.54026e-06
1.65543e-06
1.7131e-06
1.72573e-06
1.70635e-06
1.6653e-06
1.61007e-06
1.54625e-06
1.47793e-06
1.40793e-06
1.33817e-06
1.26989e-06
1.20387e-06
1.14057e-06
1.0802e-06
1.02284e-06
9.6844e-07
9.16864e-07
8.67932e-07
8.21415e-07
7.7705e-07
7.34545e-07
6.93579e-07
6.5382e-07
6.14897e-07
5.76483e-07
5.38167e-07
4.9956e-07
4.61288e-07
2.42666e-07
6.59024e-07
1.03934e-06
1.31724e-06
1.50736e-06
1.6293e-06
1.69383e-06
1.7127e-06
1.69824e-06
1.66047e-06
1.60691e-06
1.54329e-06
1.47388e-06
1.40173e-06
1.32895e-06
1.25698e-06
1.18675e-06
1.11886e-06
1.05364e-06
9.91245e-07
9.31705e-07
8.74971e-07
8.20927e-07
7.69415e-07
7.20242e-07
6.7319e-07
6.28013e-07
5.84462e-07
5.42243e-07
5.01119e-07
4.60717e-07
4.20838e-07
3.81747e-07
2.80485e-07
6.6054e-07
1.02921e-06
1.30548e-06
1.49903e-06
1.62633e-06
1.69675e-06
1.72118e-06
1.71137e-06
1.67699e-06
1.62549e-06
1.56267e-06
1.49292e-06
1.41943e-06
1.34445e-06
1.26957e-06
1.19584e-06
1.12398e-06
1.05442e-06
9.87403e-07
9.2306e-07
8.61419e-07
8.02445e-07
7.46064e-07
6.92165e-07
6.40622e-07
5.91285e-07
5.44011e-07
4.9862e-07
4.55026e-07
4.12955e-07
3.72619e-07
3.33792e-07
3.78999e-07
7.00561e-07
1.05006e-06
1.3214e-06
1.51602e-06
1.64672e-06
1.721e-06
1.74882e-06
1.74131e-06
1.70788e-06
1.65601e-06
1.59162e-06
1.51929e-06
1.44242e-06
1.36347e-06
1.28418e-06
1.20575e-06
1.12901e-06
1.05449e-06
9.82528e-07
9.13306e-07
8.46926e-07
7.83419e-07
7.22777e-07
6.64963e-07
6.09931e-07
5.57621e-07
5.07987e-07
4.60954e-07
4.16555e-07
3.74604e-07
3.35559e-07
2.98857e-07
5.11157e-07
7.77517e-07
1.10314e-06
1.36705e-06
1.56149e-06
1.69537e-06
1.77421e-06
1.80686e-06
1.80373e-06
1.7738e-06
1.7243e-06
1.66109e-06
1.58879e-06
1.51089e-06
1.43e-06
1.348e-06
1.26628e-06
1.1858e-06
1.10725e-06
1.03107e-06
9.57586e-07
8.86995e-07
8.19431e-07
7.54982e-07
6.9371e-07
6.35668e-07
5.80901e-07
5.29483e-07
4.81465e-07
4.3705e-07
3.96162e-07
3.59709e-07
3.26351e-07
6.67226e-07
8.89807e-07
1.19054e-06
1.44467e-06
1.63595e-06
1.76916e-06
1.84771e-06
1.8795e-06
1.87471e-06
1.84232e-06
1.78969e-06
1.72287e-06
1.64665e-06
1.56467e-06
1.47962e-06
1.39348e-06
1.30769e-06
1.22326e-06
1.14092e-06
1.06117e-06
9.84356e-07
9.10741e-07
8.40507e-07
7.73801e-07
7.10746e-07
6.51457e-07
5.96045e-07
5.44641e-07
4.97346e-07
4.54375e-07
4.15647e-07
3.81961e-07
3.51757e-07
8.46466e-07
1.03576e-06
1.31372e-06
1.55908e-06
1.75013e-06
1.8882e-06
1.97393e-06
2.01338e-06
2.01554e-06
1.98863e-06
1.93961e-06
1.8745e-06
1.79823e-06
1.71471e-06
1.62695e-06
1.53723e-06
1.44728e-06
1.35837e-06
1.2714e-06
1.18707e-06
1.10585e-06
1.0281e-06
9.54086e-07
8.84009e-07
8.18036e-07
7.56309e-07
6.98949e-07
6.46082e-07
5.97775e-07
5.54208e-07
5.15172e-07
4.81548e-07
4.50844e-07
1.05441e-06
1.22124e-06
1.48023e-06
1.71324e-06
1.89464e-06
2.02369e-06
2.10027e-06
2.1309e-06
2.1253e-06
2.09203e-06
2.03807e-06
1.96921e-06
1.89013e-06
1.80447e-06
1.71498e-06
1.62378e-06
1.53247e-06
1.44226e-06
1.35405e-06
1.26855e-06
1.18625e-06
1.10757e-06
1.0328e-06
9.62179e-07
8.9589e-07
8.34074e-07
7.7683e-07
7.24232e-07
6.76279e-07
6.3301e-07
5.94132e-07
5.60178e-07
5.28912e-07
1.29546e-06
1.44274e-06
1.68865e-06
1.92228e-06
2.11645e-06
2.26499e-06
2.3614e-06
2.40829e-06
2.41382e-06
2.38636e-06
2.33345e-06
2.26189e-06
2.17741e-06
2.08457e-06
1.98689e-06
1.88705e-06
1.78704e-06
1.68834e-06
1.592e-06
1.4988e-06
1.40926e-06
1.32379e-06
1.24264e-06
1.16601e-06
1.094e-06
1.0267e-06
9.64122e-07
9.06264e-07
8.53044e-07
8.04457e-07
7.60103e-07
7.20676e-07
6.8315e-07
1.59041e-06
1.73512e-06
1.96867e-06
2.17579e-06
2.33558e-06
2.45053e-06
2.51978e-06
2.54869e-06
2.54542e-06
2.51638e-06
2.46662e-06
2.40074e-06
2.32285e-06
2.23639e-06
2.14427e-06
2.04889e-06
1.95223e-06
1.85584e-06
1.76096e-06
1.66853e-06
1.57925e-06
1.49363e-06
1.41204e-06
1.33472e-06
1.26179e-06
1.19331e-06
1.12929e-06
1.06966e-06
1.0143e-06
9.63121e-07
9.15763e-07
8.72646e-07
8.31375e-07
1.93136e-06
2.05323e-06
2.30002e-06
2.55972e-06
2.78957e-06
2.96678e-06
3.07621e-06
3.12215e-06
3.11794e-06
3.07599e-06
3.00648e-06
2.91794e-06
2.81704e-06
2.70862e-06
2.59623e-06
2.48239e-06
2.36892e-06
2.25714e-06
2.14796e-06
2.04208e-06
1.93997e-06
1.84197e-06
1.7483e-06
1.65907e-06
1.57437e-06
1.49417e-06
1.41844e-06
1.3471e-06
1.28003e-06
1.21719e-06
1.15819e-06
1.10377e-06
1.05077e-06
2.41292e-06
2.5677e-06
2.76125e-06
2.89691e-06
3.00501e-06
3.10617e-06
3.18927e-06
3.24564e-06
3.27289e-06
3.27008e-06
3.2385e-06
3.18202e-06
3.10551e-06
3.01375e-06
2.91113e-06
2.8014e-06
2.68768e-06
2.57242e-06
2.45748e-06
2.34427e-06
2.23381e-06
2.1268e-06
2.02369e-06
1.92474e-06
1.83009e-06
1.73975e-06
1.65365e-06
1.57172e-06
1.49383e-06
1.41993e-06
1.34979e-06
1.28403e-06
1.22027e-06
2.88971e-06
2.99888e-06
3.38463e-06
3.79347e-06
4.10284e-06
4.29037e-06
4.36487e-06
4.35708e-06
4.29667e-06
4.20167e-06
4.08314e-06
3.94897e-06
3.80462e-06
3.65386e-06
3.49967e-06
3.3445e-06
3.19039e-06
3.03904e-06
2.89181e-06
2.74975e-06
2.6136e-06
2.48384e-06
2.36074e-06
2.24435e-06
2.13458e-06
2.03122e-06
1.93397e-06
1.84252e-06
1.75653e-06
1.67584e-06
1.60005e-06
1.5302e-06
1.46306e-06
3.9298e-06
4.03435e-06
3.94461e-06
3.86617e-06
3.96757e-06
4.17885e-06
4.37563e-06
4.50704e-06
4.56909e-06
4.57126e-06
4.52989e-06
4.46286e-06
4.3846e-06
4.30499e-06
4.23003e-06
4.16269e-06
4.10378e-06
4.05281e-06
4.00865e-06
3.96992e-06
3.93529e-06
3.90357e-06
3.87377e-06
3.84508e-06
3.81683e-06
3.78846e-06
3.75954e-06
3.72967e-06
3.69862e-06
3.66634e-06
3.63289e-06
3.59998e-06
3.56559e-06
4.38924e-06
4.95598e-06
5.92723e-06
6.40522e-06
6.51482e-06
6.48521e-06
6.47141e-06
6.57849e-06
6.83551e-06
7.2095e-06
7.64968e-06
8.11088e-06
8.55889e-06
8.97097e-06
9.33423e-06
9.64291e-06
9.89595e-06
1.00953e-05
1.02445e-05
1.03483e-05
1.04114e-05
1.04388e-05
1.04348e-05
1.04038e-05
1.03493e-05
1.02745e-05
1.0182e-05
1.00739e-05
9.95179e-06
9.81687e-06
9.67083e-06
9.51588e-06
9.35312e-06
7.58058e-06
5.83876e-06
4.61902e-06
6.19934e-06
8.92917e-06
1.16394e-05
1.39705e-05
1.58614e-05
1.73112e-05
1.83343e-05
1.89681e-05
1.92607e-05
1.92622e-05
1.90221e-05
1.85876e-05
1.80013e-05
1.73007e-05
1.65181e-05
1.568e-05
1.48085e-05
1.3921e-05
1.30312e-05
1.21495e-05
1.12836e-05
1.04391e-05
9.61925e-06
8.82615e-06
8.05996e-06
7.32024e-06
6.60328e-06
5.90965e-06
5.2275e-06
4.57187e-06
8.58662e-06
1.47121e-05
1.88024e-05
2.11943e-05
2.22706e-05
2.17834e-05
1.99096e-05
1.71038e-05
1.38397e-05
1.07523e-05
8.87948e-06
9.30997e-06
1.17387e-05
1.50509e-05
1.85721e-05
2.20079e-05
2.5231e-05
2.8187e-05
3.08573e-05
3.32419e-05
3.53513e-05
3.72014e-05
3.88109e-05
4.01996e-05
4.13868e-05
4.23918e-05
4.32325e-05
4.39267e-05
4.44916e-05
4.49489e-05
4.53139e-05
4.56454e-05
4.59327e-05
3.4661e-05
3.72316e-05
4.66773e-05
6.18173e-05
7.75391e-05
9.29512e-05
0.000107351
0.00012003
0.000130803
0.000139714
0.000146876
0.000152453
0.000156634
0.000159604
0.00016154
0.000162601
0.000162927
0.000162644
0.000161857
0.000160657
0.000159121
0.000157314
0.000155291
0.000153096
0.000150767
0.000148335
0.000145824
0.000143253
0.000140639
0.000137987
0.000135299
0.000132665
0.000130097
0.000608459
0.000582502
0.000556849
0.000530342
0.000504285
0.000478999
0.000454527
0.000431141
0.000409023
0.000388231
0.000368779
0.000350654
0.000333806
0.000318166
0.000303656
0.000290191
0.000277686
0.000266058
0.000255227
0.000245119
0.000235667
0.000226807
0.000218484
0.000210646
0.000203248
0.000196248
0.000189608
0.000183294
0.000177266
0.000171503
0.000165875
0.000160918
0.000156405
8.59979e-05
7.38347e-05
6.57778e-05
6.6237e-05
7.09734e-05
7.61615e-05
8.08161e-05
8.48785e-05
8.84613e-05
9.18039e-05
9.51929e-05
9.85547e-05
0.000100616
9.77111e-05
8.24165e-05
5.84359e-05
4.71064e-05
4.48696e-05
4.34783e-05
4.1733e-05
3.9182e-05
3.57001e-05
3.13259e-05
2.62623e-05
2.11628e-05
1.46104e-05
1.43575e-05
1.18982e-05
1.9275e-05
2.79148e-05
9.99287e-06
2.35941e-05
3.70468e-05
3.66617e-05
3.14483e-05
2.69215e-05
2.39068e-05
2.19261e-05
2.06391e-05
1.99312e-05
1.97828e-05
2.02276e-05
2.13255e-05
2.30091e-05
2.59441e-05
3.17503e-05
4.10568e-05
5.43934e-05
6.38537e-05
6.14861e-05
5.05964e-05
3.80102e-05
2.73573e-05
1.88445e-05
1.14971e-05
3.80437e-06
6.65538e-06
2.0036e-05
3.28858e-05
4.04983e-05
4.12736e-05
3.74192e-05
3.21958e-05
2.75121e-05
2.37515e-05
2.06921e-05
1.81028e-05
1.58556e-05
1.38853e-05
1.21575e-05
1.06547e-05
9.37082e-06
8.31603e-06
7.52081e-06
7.00579e-06
6.77057e-06
6.82961e-06
7.36977e-06
8.99334e-06
1.3281e-05
2.23475e-05
3.50927e-05
4.61943e-05
5.02504e-05
4.60303e-05
3.5769e-05
2.23681e-05
9.77355e-06
1.52637e-05
3.04503e-05
4.41218e-05
5.18763e-05
5.0998e-05
4.31729e-05
3.30549e-05
2.42711e-05
1.76037e-05
1.26032e-05
9.53404e-06
5.20973e-06
0.00011586
0.000107394
0.000100027
9.7349e-05
9.64941e-05
9.54091e-05
9.39666e-05
9.26553e-05
9.19895e-05
9.23401e-05
9.39429e-05
9.6885e-05
0.000100987
0.000105296
0.000105781
9.09544e-05
6.35982e-05
4.79267e-05
4.39712e-05
4.14034e-05
3.83801e-05
3.48318e-05
3.06258e-05
2.61398e-05
2.10718e-05
1.63384e-05
1.62473e-05
1.41441e-05
3.24386e-05
2.53895e-05
8.40051e-06
3.1862e-05
3.92357e-05
3.58034e-05
3.04592e-05
2.64792e-05
2.38322e-05
2.20302e-05
2.08327e-05
2.01731e-05
2.00425e-05
2.04638e-05
2.15018e-05
2.31461e-05
2.59248e-05
3.13865e-05
3.99975e-05
5.25502e-05
6.35755e-05
6.38466e-05
5.44832e-05
4.19515e-05
3.04487e-05
2.08595e-05
1.2685e-05
6.25637e-06
1.19278e-05
2.50793e-05
3.67597e-05
4.23902e-05
4.14804e-05
3.68726e-05
3.16315e-05
2.71768e-05
2.36192e-05
2.06962e-05
1.82011e-05
1.60209e-05
1.40943e-05
1.23889e-05
1.08919e-05
9.6026e-06
8.53583e-06
7.72895e-06
7.216e-06
6.99533e-06
7.05825e-06
7.54881e-06
9.03754e-06
1.30366e-05
2.18369e-05
3.4771e-05
4.66377e-05
5.17577e-05
4.84706e-05
3.88205e-05
2.60405e-05
1.52405e-05
1.8889e-05
3.25597e-05
4.58515e-05
5.31932e-05
5.16968e-05
4.33976e-05
3.32176e-05
2.4727e-05
1.84323e-05
1.34864e-05
1.02005e-05
5.4822e-06
0.000102322
0.000100991
9.8185e-05
9.58789e-05
9.34744e-05
9.02515e-05
8.64353e-05
8.27329e-05
7.99576e-05
7.88072e-05
7.9737e-05
8.2913e-05
8.82342e-05
9.5167e-05
0.000102633
0.000105958
9.32232e-05
6.69066e-05
4.78995e-05
4.15126e-05
3.82828e-05
3.45621e-05
3.03943e-05
2.61306e-05
2.10026e-05
1.76332e-05
1.43001e-05
3.19731e-05
3.90068e-05
1.41521e-05
2.04597e-05
3.82776e-05
3.95767e-05
3.44051e-05
2.94671e-05
2.60691e-05
2.37401e-05
2.20848e-05
2.09634e-05
2.03459e-05
2.0232e-05
2.06374e-05
2.16241e-05
2.32113e-05
2.57578e-05
3.07069e-05
3.86563e-05
5.0162e-05
6.22403e-05
6.54737e-05
5.83736e-05
4.65429e-05
3.4667e-05
2.44543e-05
1.62992e-05
1.24619e-05
1.89426e-05
3.09812e-05
4.06178e-05
4.3842e-05
4.12626e-05
3.60892e-05
3.09662e-05
2.67942e-05
2.34638e-05
2.06971e-05
1.83114e-05
1.62059e-05
1.43244e-05
1.26396e-05
1.11446e-05
9.84533e-06
8.76167e-06
7.93217e-06
7.39613e-06
7.16808e-06
7.23932e-06
7.7052e-06
9.07276e-06
1.27568e-05
2.11831e-05
3.42078e-05
4.68605e-05
5.32017e-05
5.10995e-05
4.23587e-05
3.04451e-05
2.08983e-05
2.30589e-05
3.50972e-05
4.77969e-05
5.45116e-05
5.22273e-05
4.34032e-05
3.32027e-05
2.50393e-05
1.91241e-05
1.42609e-05
1.07975e-05
5.71103e-06
7.21142e-05
7.12972e-05
6.94745e-05
6.75319e-05
6.50139e-05
6.14939e-05
5.731e-05
5.33107e-05
5.04861e-05
4.95899e-05
5.09594e-05
5.47061e-05
6.11259e-05
7.04133e-05
8.19077e-05
9.423e-05
0.000101472
9.32907e-05
7.11925e-05
5.0231e-05
3.91552e-05
3.39006e-05
2.97069e-05
2.48652e-05
1.90297e-05
1.73902e-05
3.37799e-05
4.82807e-05
3.18439e-05
5.27961e-06
3.30284e-05
4.15345e-05
3.82214e-05
3.27e-05
2.85299e-05
2.56657e-05
2.3586e-05
2.20557e-05
2.10115e-05
2.044e-05
2.03453e-05
2.07417e-05
2.1685e-05
2.32281e-05
2.56009e-05
2.99613e-05
3.71765e-05
4.74586e-05
5.98247e-05
6.6043e-05
6.19805e-05
5.16842e-05
4.00939e-05
2.98374e-05
2.23665e-05
2.05609e-05
2.71923e-05
3.7314e-05
4.40375e-05
4.45525e-05
4.04876e-05
3.50416e-05
3.02039e-05
2.63689e-05
2.32849e-05
2.06898e-05
1.84258e-05
1.64025e-05
1.45693e-05
1.29051e-05
1.14107e-05
1.00985e-05
8.99409e-06
8.14057e-06
7.57612e-06
7.32147e-06
7.38219e-06
7.82681e-06
9.09049e-06
1.24582e-05
2.04157e-05
3.34204e-05
4.6865e-05
5.45712e-05
5.38804e-05
4.62849e-05
3.53785e-05
2.67954e-05
2.78621e-05
3.81894e-05
4.99573e-05
5.57252e-05
5.24687e-05
4.31439e-05
3.30556e-05
2.52901e-05
1.97381e-05
1.49591e-05
1.13609e-05
5.92185e-06
2.48145e-05
2.42659e-05
2.29751e-05
2.14576e-05
1.95791e-05
1.72622e-05
1.51131e-05
1.41331e-05
1.47632e-05
1.64639e-05
1.87174e-05
2.17793e-05
2.66252e-05
3.45069e-05
4.6252e-05
6.17581e-05
7.90523e-05
9.14498e-05
9.06645e-05
7.68365e-05
5.90462e-05
4.50108e-05
3.62384e-05
3.10522e-05
3.15661e-05
4.40501e-05
5.66628e-05
4.53648e-05
9.85839e-06
2.49461e-05
4.10872e-05
4.12328e-05
3.58912e-05
3.1081e-05
2.77056e-05
2.52428e-05
2.33562e-05
2.19439e-05
2.09788e-05
2.04534e-05
2.03752e-05
2.07609e-05
2.16597e-05
2.31448e-05
2.53728e-05
2.91797e-05
3.55926e-05
4.46232e-05
5.63844e-05
6.50652e-05
6.4618e-05
5.68425e-05
4.64429e-05
3.68588e-05
3.04473e-05
2.99011e-05
3.57848e-05
4.31068e-05
4.63812e-05
4.43029e-05
3.91909e-05
3.38076e-05
2.93792e-05
2.59051e-05
2.30779e-05
2.06672e-05
1.85354e-05
1.66001e-05
1.48172e-05
1.31733e-05
1.16771e-05
1.03484e-05
9.21758e-06
8.33242e-06
7.73579e-06
7.45061e-06
7.49107e-06
7.91111e-06
9.07948e-06
1.21407e-05
1.95375e-05
3.23573e-05
4.65306e-05
5.56995e-05
5.66255e-05
5.04046e-05
4.06529e-05
3.29061e-05
3.30303e-05
4.16524e-05
5.22101e-05
5.67156e-05
5.23354e-05
4.25912e-05
3.27744e-05
2.54549e-05
2.02066e-05
1.54784e-05
1.17949e-05
6.08466e-06
7.46044e-06
8.24162e-06
9.2382e-06
1.01606e-05
1.10996e-05
1.21474e-05
1.31468e-05
1.37847e-05
1.37429e-05
1.28159e-05
1.0997e-05
8.62511e-06
6.92076e-06
9.07921e-06
1.58127e-05
2.60757e-05
4.0741e-05
5.89447e-05
7.49713e-05
8.2144e-05
7.9335e-05
7.13211e-05
6.37354e-05
5.97595e-05
6.19254e-05
6.48108e-05
5.19703e-05
1.87816e-05
1.80774e-05
3.9205e-05
4.29867e-05
3.85634e-05
3.34505e-05
2.96917e-05
2.69316e-05
2.476e-05
2.30439e-05
2.17509e-05
2.08666e-05
2.0387e-05
2.03232e-05
2.06947e-05
2.15453e-05
2.29633e-05
2.5069e-05
2.83954e-05
3.39561e-05
4.18024e-05
5.22323e-05
6.22818e-05
6.5519e-05
6.11754e-05
5.29914e-05
4.48117e-05
3.95712e-05
3.94588e-05
4.36297e-05
4.74745e-05
4.72391e-05
4.30718e-05
3.74811e-05
3.24573e-05
2.85124e-05
2.54083e-05
2.28468e-05
2.06324e-05
1.8642e-05
1.67998e-05
1.50695e-05
1.34462e-05
1.19466e-05
1.05976e-05
9.43445e-06
8.50856e-06
7.86984e-06
7.54782e-06
7.56355e-06
7.95949e-06
9.03788e-06
1.18081e-05
1.85717e-05
3.10013e-05
4.57639e-05
5.64409e-05
5.91769e-05
5.4565e-05
4.61108e-05
3.91018e-05
3.8415e-05
4.54261e-05
5.44805e-05
5.73604e-05
5.17381e-05
4.17381e-05
3.23957e-05
2.55595e-05
2.05316e-05
1.57958e-05
1.20445e-05
6.15235e-06
1.0626e-05
1.14081e-05
1.2282e-05
1.29592e-05
1.34016e-05
1.36462e-05
1.36209e-05
1.31987e-05
1.22978e-05
1.0917e-05
9.12837e-06
7.11775e-06
5.22166e-06
4.88842e-06
8.28159e-06
1.35482e-05
1.88589e-05
2.60235e-05
3.80174e-05
5.20583e-05
6.26926e-05
6.75741e-05
6.7814e-05
6.57578e-05
6.07773e-05
4.51482e-05
1.62189e-05
1.76191e-05
3.82215e-05
4.36108e-05
4.02176e-05
3.52566e-05
3.13924e-05
2.84954e-05
2.61448e-05
2.42047e-05
2.26541e-05
2.14814e-05
2.06777e-05
2.02431e-05
2.01915e-05
2.05455e-05
2.13427e-05
2.26781e-05
2.46713e-05
2.76152e-05
3.23387e-05
3.90819e-05
4.78569e-05
5.78632e-05
6.40511e-05
6.3562e-05
5.84487e-05
5.2294e-05
4.81888e-05
4.77415e-05
4.94246e-05
4.96066e-05
4.64068e-05
4.10009e-05
3.55241e-05
3.10642e-05
2.76221e-05
2.4883e-05
2.25937e-05
2.0586e-05
1.87451e-05
1.70015e-05
1.53268e-05
1.3725e-05
1.22207e-05
1.08477e-05
9.64652e-06
8.67146e-06
7.97878e-06
7.60887e-06
7.59376e-06
7.96988e-06
8.96768e-06
1.14653e-05
1.75529e-05
2.93679e-05
4.45033e-05
5.66634e-05
6.13648e-05
5.85728e-05
5.15446e-05
4.52215e-05
4.3845e-05
4.9344e-05
5.65738e-05
5.74657e-05
5.0588e-05
4.06132e-05
3.19721e-05
2.56256e-05
2.07171e-05
1.59032e-05
1.20806e-05
6.09197e-06
6.72664e-06
7.31652e-06
7.96979e-06
8.50031e-06
8.85753e-06
9.06038e-06
9.08505e-06
8.88574e-06
8.45507e-06
7.85045e-06
7.19846e-06
6.6975e-06
6.64801e-06
7.19621e-06
8.56301e-06
1.17712e-05
1.66735e-05
2.0856e-05
2.2683e-05
2.41087e-05
2.79243e-05
3.24892e-05
3.446e-05
3.15876e-05
2.11358e-05
1.02814e-05
2.58421e-05
3.97649e-05
4.34495e-05
4.04813e-05
3.60825e-05
3.25161e-05
2.97288e-05
2.73543e-05
2.52998e-05
2.35783e-05
2.21935e-05
2.11393e-05
2.04136e-05
2.00221e-05
1.99805e-05
2.03142e-05
2.10553e-05
2.22916e-05
2.41635e-05
2.6819e-05
3.08073e-05
3.65124e-05
4.37027e-05
5.24611e-05
6.0083e-05
6.29865e-05
6.12599e-05
5.74824e-05
5.44011e-05
5.30934e-05
5.2069e-05
4.91536e-05
4.4095e-05
3.8418e-05
3.34989e-05
2.96748e-05
2.67115e-05
2.43282e-05
2.23186e-05
2.0528e-05
1.8845e-05
1.72062e-05
1.55912e-05
1.40123e-05
1.25017e-05
1.11003e-05
9.85464e-06
8.82168e-06
8.06385e-06
7.63411e-06
7.57936e-06
7.93964e-06
8.87293e-06
1.11198e-05
1.65215e-05
2.74953e-05
4.26999e-05
5.62178e-05
6.29753e-05
6.21844e-05
5.6711e-05
5.1064e-05
4.91475e-05
5.32034e-05
5.82236e-05
5.68024e-05
4.88225e-05
3.9281e-05
3.15578e-05
2.56702e-05
2.0783e-05
1.58284e-05
1.19208e-05
5.90407e-06
4.97149e-06
5.41988e-06
5.91526e-06
6.33874e-06
6.64332e-06
6.8359e-06
6.90869e-06
6.84016e-06
6.6332e-06
6.3443e-06
6.09912e-06
6.0866e-06
6.5237e-06
7.54421e-06
9.04322e-06
1.10144e-05
1.41291e-05
1.87953e-05
2.36144e-05
2.65389e-05
2.68814e-05
2.5601e-05
2.41877e-05
2.44262e-05
2.88533e-05
3.62348e-05
4.14802e-05
4.19059e-05
3.90517e-05
3.56205e-05
3.27914e-05
3.04073e-05
2.82071e-05
2.61834e-05
2.44018e-05
2.28949e-05
2.16695e-05
2.07285e-05
2.00775e-05
1.97265e-05
1.96928e-05
2.00029e-05
2.06871e-05
2.18169e-05
2.35428e-05
2.59647e-05
2.93747e-05
3.41431e-05
4.00103e-05
4.70018e-05
5.43206e-05
5.92124e-05
6.03441e-05
5.88314e-05
5.66171e-05
5.4371e-05
5.11985e-05
4.6454e-05
4.0874e-05
3.56994e-05
3.15291e-05
2.83015e-05
2.57764e-05
2.37435e-05
2.20226e-05
2.04595e-05
1.89437e-05
1.74168e-05
1.5866e-05
1.43112e-05
1.27924e-05
1.13579e-05
1.00605e-05
8.96051e-06
8.12587e-06
7.62373e-06
7.51902e-06
7.8656e-06
8.75759e-06
1.07818e-05
1.55215e-05
2.54557e-05
4.03432e-05
5.49646e-05
6.3774e-05
6.51274e-05
6.13338e-05
5.63956e-05
5.41134e-05
5.66871e-05
5.90348e-05
5.51131e-05
4.64435e-05
3.7856e-05
3.12062e-05
2.57098e-05
2.07684e-05
1.56333e-05
1.16259e-05
5.62413e-06
4.18434e-06
4.52301e-06
4.89094e-06
5.21207e-06
5.44604e-06
5.58876e-06
5.6346e-06
5.57446e-06
5.42293e-06
5.24243e-06
5.15522e-06
5.33019e-06
5.9185e-06
6.99229e-06
8.53811e-06
1.04426e-05
1.26667e-05
1.55654e-05
1.95379e-05
2.41264e-05
2.82545e-05
3.1303e-05
3.35116e-05
3.5726e-05
3.78348e-05
3.87495e-05
3.78777e-05
3.59092e-05
3.38732e-05
3.20865e-05
3.03411e-05
2.85168e-05
2.66947e-05
2.499e-05
2.34694e-05
2.21632e-05
2.10874e-05
2.02537e-05
1.96734e-05
1.93599e-05
1.93316e-05
1.96153e-05
2.02407e-05
2.1264e-05
2.2824e-05
2.5024e-05
2.79961e-05
3.19908e-05
3.68168e-05
4.22127e-05
4.81186e-05
5.32211e-05
5.59066e-05
5.60124e-05
5.44703e-05
5.16927e-05
4.75644e-05
4.25004e-05
3.74535e-05
3.31221e-05
2.9652e-05
2.69299e-05
2.48096e-05
2.31286e-05
2.17069e-05
2.03827e-05
1.90443e-05
1.76372e-05
1.61551e-05
1.46255e-05
1.30958e-05
1.16222e-05
1.0265e-05
9.08782e-06
8.16432e-06
7.5772e-06
7.41202e-06
7.74469e-06
8.62374e-06
1.04641e-05
1.45949e-05
2.33539e-05
3.74836e-05
5.28042e-05
6.35276e-05
6.71029e-05
6.50921e-05
6.09424e-05
5.84582e-05
5.93172e-05
5.84987e-05
5.2184e-05
4.3568e-05
3.6487e-05
3.09523e-05
2.57605e-05
2.07294e-05
1.54081e-05
1.12971e-05
5.3249e-06
3.56182e-06
3.81832e-06
4.08977e-06
4.32575e-06
4.49302e-06
4.58339e-06
4.59515e-06
4.53096e-06
4.41572e-06
4.31563e-06
4.34572e-06
4.64585e-06
5.32321e-06
6.40439e-06
7.85661e-06
9.62985e-06
1.1643e-05
1.38535e-05
1.63969e-05
1.94561e-05
2.28966e-05
2.62331e-05
2.90371e-05
3.1008e-05
3.20104e-05
3.21312e-05
3.17542e-05
3.11957e-05
3.04594e-05
2.94387e-05
2.81418e-05
2.66883e-05
2.52092e-05
2.3798e-05
2.25128e-05
2.139e-05
2.04535e-05
1.97206e-05
1.92065e-05
1.8927e-05
1.89015e-05
1.91562e-05
1.97204e-05
2.06401e-05
2.20298e-05
2.39968e-05
2.66129e-05
3.00041e-05
3.40374e-05
3.83034e-05
4.26896e-05
4.68111e-05
4.96164e-05
5.04077e-05
4.93273e-05
4.66614e-05
4.27894e-05
3.84454e-05
3.43261e-05
3.07625e-05
2.78336e-05
2.55389e-05
2.38085e-05
2.2486e-05
2.13746e-05
2.03012e-05
1.91513e-05
1.78725e-05
1.64636e-05
1.49594e-05
1.34155e-05
1.18963e-05
1.04699e-05
9.2044e-06
8.17858e-06
7.49237e-06
7.2559e-06
7.57265e-06
8.46924e-06
1.01801e-05
1.37765e-05
2.13158e-05
3.42447e-05
4.97053e-05
6.20259e-05
6.77914e-05
6.76172e-05
6.43758e-05
6.17385e-05
6.03941e-05
5.60499e-05
4.79579e-05
4.04646e-05
3.53221e-05
3.08111e-05
2.5848e-05
2.07374e-05
1.52554e-05
1.10523e-05
5.09914e-06
3.036e-06
3.22617e-06
3.42034e-06
3.58516e-06
3.69595e-06
3.74464e-06
3.73196e-06
3.66748e-06
3.58334e-06
3.54926e-06
3.67285e-06
4.06541e-06
4.78844e-06
5.83835e-06
7.18195e-06
8.78583e-06
1.06121e-05
1.25984e-05
1.46884e-05
1.68871e-05
1.92085e-05
2.15582e-05
2.37102e-05
2.5417e-05
2.66647e-05
2.75205e-05
2.80042e-05
2.80806e-05
2.77419e-05
2.70412e-05
2.6074e-05