/*--------------------------------*- C++ -*----------------------------------*\
| =========                 |                                                 |
| \\      /  F ield         | OpenFOAM: The Open Source CFD Toolbox           |
|  \\    /   O peration     | Version:  2.1.1                                 |
|   \\  /    A nd           | Web:      www.OpenFOAM.org                      |
|    \\/     M anipulation  |                                                 |
\*---------------------------------------------------------------------------*/
FoamFile
{
    version     2.0;
    format      ascii;
    class       volScalarField;
    location    "0.135";
    object      p;
}
// * * * * * * * * * * * * * * * * * * * * * * * * * * * * * * * * * * * * * //

dimensions      [0 2 -2 0 0 0 0];

internalField   nonuniform List<scalar> 
6820
(
7.39908
-10.4374
-13.4481
-13.6382
-13.8144
-13.7451
-13.6929
-13.7105
-13.7634
-13.8364
-13.9211
-14.0123
-14.1077
-14.2061
-14.3071
-14.4105
-14.5162
-14.6242
-14.7344
-14.847
-14.9622
-15.08
-15.2007
-15.3246
-15.4515
-15.582
-15.7161
-15.8536
-15.9954
-16.1383
-16.2906
-16.423
-16.6157
0.718271
-10.2558
-13.1365
-13.4396
-13.6958
-13.7226
-13.707
-13.7357
-13.7903
-13.8604
-13.9411
-14.0286
-14.1209
-14.2169
-14.3161
-14.4181
-14.5227
-14.6299
-14.7396
-14.8518
-14.9667
-15.0844
-15.2048
-15.3282
-15.4551
-15.5853
-15.7195
-15.8572
-15.999
-16.1435
-16.2972
-16.4478
-16.6648
-1.99582
-8.82485
-12.1153
-12.8765
-13.3484
-13.55
-13.6132
-13.6747
-13.7486
-13.831
-13.9203
-14.0143
-14.1116
-14.2111
-14.3128
-14.4164
-14.5219
-14.6296
-14.7393
-14.8514
-14.9658
-15.0829
-15.2027
-15.3255
-15.4517
-15.5814
-15.7144
-15.8515
-15.9933
-16.1387
-16.2928
-16.4465
-16.6297
-3.98064
-8.59702
-11.693
-12.5555
-13.0313
-13.3121
-13.4455
-13.5511
-13.6561
-13.7589
-13.8611
-13.9638
-14.0673
-14.1718
-14.2774
-14.3843
-14.4925
-14.6022
-14.7135
-14.8268
-14.9421
-15.0596
-15.1795
-15.3021
-15.4277
-15.5565
-15.6888
-15.825
-15.9658
-16.1117
-16.2668
-16.4301
-16.6201
-5.61552
-8.69684
-11.3006
-12.2073
-12.719
-13.079
-13.2826
-13.4279
-13.5574
-13.6769
-13.7908
-13.9023
-14.0124
-14.1217
-14.2311
-14.3407
-14.4511
-14.5622
-14.6745
-14.7881
-14.9032
-15.0201
-15.139
-15.2602
-15.384
-15.5107
-15.6406
-15.7743
-15.9128
-16.0567
-16.2102
-16.3749
-16.5639
-6.83741
-8.87703
-11.049
-11.9964
-12.5271
-12.9143
-13.1528
-13.3208
-13.4664
-13.5985
-13.7218
-13.8403
-13.956
-14.0698
-14.1825
-14.2946
-14.4066
-14.5189
-14.6316
-14.7452
-14.8599
-14.9758
-15.0933
-15.2125
-15.3339
-15.4577
-15.5843
-15.7145
-15.8492
-15.9902
-16.1401
-16.3015
-16.4845
-7.78719
-9.16252
-10.9307
-11.8408
-12.3591
-12.7545
-13.0231
-13.2165
-13.3801
-13.5255
-13.6584
-13.7839
-13.9047
-14.0223
-14.1378
-14.2519
-14.3653
-14.4785
-14.5916
-14.7051
-14.8191
-14.934
-15.0499
-15.1672
-15.2861
-15.407
-15.5304
-15.6569
-15.7875
-15.9234
-16.0668
-16.2197
-16.3885
-8.53207
-9.46758
-10.8783
-11.7239
-12.2306
-12.6275
-12.9148
-13.1253
-13.3007
-13.4555
-13.5958
-13.7269
-13.8521
-13.9733
-14.0915
-14.2078
-14.3227
-14.4367
-14.5502
-14.6634
-14.7768
-14.8905
-15.0048
-15.12
-15.2362
-15.354
-15.4735
-15.5955
-15.7206
-15.8499
-15.9848
-16.1269
-16.279
-9.123
-9.7699
-10.8872
-11.6524
-12.1366
-12.5217
-12.8153
-13.0373
-13.2225
-13.3859
-13.5334
-13.6703
-13.8
-13.9247
-14.0455
-14.1637
-14.2798
-14.3945
-14.5081
-14.6211
-14.7336
-14.846
-14.9585
-15.0712
-15.1846
-15.2988
-15.4141
-15.5311
-15.6502
-15.772
-15.8975
-16.027
-16.1615
-9.59781
-10.0538
-10.9336
-11.6101
-12.0652
-12.4344
-12.7287
-12.9585
-13.151
-13.3207
-13.4738
-13.6151
-13.7484
-13.8759
-13.9989
-14.1187
-14.2358
-14.351
-14.4646
-14.5771
-14.6886
-14.7995
-14.91
-15.0202
-15.1304
-15.2408
-15.3516
-15.4631
-15.5756
-15.6893
-15.8045
-15.921
-16.0383
-9.98339
-10.3117
-11.0039
-11.5932
-12.0158
-12.3656
-12.6543
-12.8867
-13.0834
-13.2575
-13.4149
-13.5601
-13.6967
-13.8268
-13.9519
-14.0731
-14.1912
-14.3068
-14.4203
-14.5322
-14.6426
-14.7518
-14.8601
-14.9676
-15.0745
-15.1808
-15.2868
-15.3925
-15.498
-15.6033
-15.7081
-15.8118
-15.9133
-10.2994
-10.5411
-11.0871
-11.5948
-11.9823
-12.3105
-12.59
-12.8218
-13.0206
-13.1977
-13.3584
-13.5067
-13.6459
-13.7782
-13.9049
-14.0272
-14.146
-14.2617
-14.3749
-14.486
-14.5951
-14.7026
-14.8085
-14.9131
-15.0165
-15.1186
-15.2196
-15.3193
-15.4178
-15.5146
-15.6093
-15.701
-15.7882
-10.5601
-10.7421
-11.1751
-11.6095
-11.9618
-12.2677
-12.5354
-12.7638
-12.9626
-13.141
-13.3037
-13.4542
-13.5954
-13.7294
-13.8575
-13.9808
-14.1001
-14.2159
-14.3287
-14.4388
-14.5465
-14.6521
-14.7556
-14.8572
-14.9569
-15.0548
-15.1506
-15.2444
-15.3359
-15.4245
-15.5097
-15.5904
-15.6651
-10.7761
-10.9162
-11.2623
-11.6328
-11.9507
-12.2344
-12.4888
-12.7116
-12.9087
-13.0872
-13.251
-13.4031
-13.5458
-13.6812
-13.8103
-13.9343
-14.0538
-14.1695
-14.2817
-14.3908
-14.497
-14.6005
-14.7015
-14.8
-14.896
-14.9895
-15.0803
-15.1682
-15.2529
-15.3338
-15.4102
-15.4811
-15.5449
-10.9552
-11.0653
-11.3447
-11.6607
-11.9463
-12.2084
-12.449
-12.6648
-12.8589
-13.0364
-13.2004
-13.3533
-13.497
-13.6333
-13.7632
-13.8876
-14.0072
-14.1226
-14.2341
-14.342
-14.4467
-14.5481
-14.6465
-14.7419
-14.8342
-14.9234
-15.0093
-15.0916
-15.1699
-15.2436
-15.3121
-15.3744
-15.4291
-11.1033
-11.1915
-11.4198
-11.69
-11.9461
-12.1877
-12.4145
-12.6224
-12.8125
-12.9882
-13.1517
-13.3048
-13.4491
-13.586
-13.7164
-13.841
-13.9606
-14.0755
-14.1862
-14.2929
-14.3958
-14.4951
-14.5909
-14.6831
-14.7718
-14.8568
-14.9379
-15.0149
-15.0872
-15.1545
-15.2159
-15.2708
-15.318
-11.2247
-11.2968
-11.4857
-11.718
-11.9477
-12.1705
-12.384
-12.5836
-12.7691
-12.9424
-13.1048
-13.2577
-13.4022
-13.5394
-13.67
-13.7947
-13.9141
-14.0284
-14.1382
-14.2436
-14.3448
-14.4419
-14.5351
-14.6243
-14.7094
-14.7904
-14.867
-14.939
-15.006
-15.0674
-15.1228
-15.1714
-15.2123
-11.3228
-11.3827
-11.5413
-11.7427
-11.9493
-12.155
-12.356
-12.5475
-12.7282
-12.8986
-13.0596
-13.2119
-13.3563
-13.4935
-13.6242
-13.7488
-13.8678
-13.9815
-14.0903
-14.1943
-14.2937
-14.3887
-14.4793
-14.5655
-14.6472
-14.7243
-14.7967
-14.8641
-14.9262
-14.9825
-15.0326
-15.076
-15.1119
-11.4001
-11.4508
-11.5861
-11.7624
-11.9492
-12.1397
-12.3294
-12.5132
-12.6889
-12.8565
-13.0159
-13.1674
-13.3115
-13.4487
-13.5792
-13.7036
-13.8222
-13.9352
-14.043
-14.1456
-14.2433
-14.3362
-14.4243
-14.5076
-14.586
-14.6596
-14.7281
-14.7914
-14.8491
-14.901
-14.9466
-14.9857
-15.0176
-11.4583
-11.5021
-11.6194
-11.7756
-11.9458
-12.1233
-12.3029
-12.4796
-12.6509
-12.8156
-12.9734
-13.1241
-13.2678
-13.4047
-13.5351
-13.6592
-13.7773
-13.8895
-13.9962
-14.0974
-14.1934
-14.2841
-14.3698
-14.4503
-14.5257
-14.5959
-14.6608
-14.7203
-14.7742
-14.8222
-14.864
-14.8995
-14.9283
-11.4987
-11.5372
-11.6409
-11.7813
-11.9379
-12.1043
-12.2754
-12.4461
-12.6133
-12.7755
-12.9319
-13.0818
-13.2252
-13.362
-13.4922
-13.6161
-13.7337
-13.8453
-13.951
-14.0509
-14.1452
-14.234
-14.3173
-14.3953
-14.4679
-14.535
-14.5967
-14.6529
-14.7033
-14.748
-14.7867
-14.8193
-14.8456
-11.5222
-11.5568
-11.6501
-11.7784
-11.9242
-12.0818
-12.246
-12.4117
-12.5756
-12.7357
-12.8909
-13.0404
-13.1835
-13.3202
-13.4503
-13.574
-13.6911
-13.8019
-13.9066
-14.0052
-14.0978
-14.1846
-14.2658
-14.3412
-14.4111
-14.4754
-14.5341
-14.5872
-14.6346
-14.6764
-14.7123
-14.7426
-14.7669
-11.5291
-11.5609
-11.6467
-11.766
-11.9037
-12.0547
-12.2137
-12.3757
-12.5373
-12.6962
-12.8508
-13.0002
-13.1435
-13.2804
-13.4107
-13.5343
-13.6512
-13.7615
-13.8653
-13.9627
-14.0539
-14.139
-14.2181
-14.2913
-14.3588
-14.4205
-14.4765
-14.5269
-14.5717
-14.611
-14.6447
-14.6729
-14.6956
-11.5195
-11.5493
-11.6301
-11.7431
-11.8753
-12.0217
-12.1774
-12.3371
-12.4975
-12.6559
-12.8106
-12.9602
-13.1039
-13.2412
-13.3718
-13.4954
-13.612
-13.7217
-13.8247
-13.9209
-14.0106
-14.094
-14.1711
-14.2421
-14.3071
-14.3664
-14.4199
-14.4678
-14.5101
-14.5471
-14.5787
-14.6052
-14.6266
-11.493
-11.5216
-11.5994
-11.7089
-11.8381
-11.9823
-12.1366
-12.2959
-12.4565
-12.6157
-12.7715
-12.9224
-13.0673
-13.2057
-13.337
-13.4611
-13.5779
-13.6874
-13.7898
-13.8851
-13.9736
-14.0554
-14.1308
-14.1998
-14.2628
-14.3198
-14.371
-14.4167
-14.4569
-14.4918
-14.5216
-14.5466
-14.5667
-11.4488
-11.477
-11.5538
-11.6622
-11.7908
-11.9349
-12.0898
-12.2503
-12.4124
-12.5733
-12.7308
-12.8834
-13.0299
-13.1695
-13.3017
-13.4264
-13.5433
-13.6526
-13.7544
-13.8488
-13.936
-14.0163
-14.0898
-14.1569
-14.2177
-14.2725
-14.3215
-14.3649
-14.403
-14.4359
-14.464
-14.4874
-14.5064
-11.3857
-11.4143
-11.492
-11.602
-11.7328
-11.8798
-12.038
-12.2021
-12.368
-12.5327
-12.6938
-12.8496
-12.9988
-13.1407
-13.2747
-13.4006
-13.5183
-13.6278
-13.7294
-13.8231
-13.9093
-13.9883
-14.0602
-14.1255
-14.1843
-14.2371
-14.284
-14.3253
-14.3614
-14.3924
-14.4187
-14.4406
-14.4581
-11.3019
-11.3315
-11.4122
-11.5263
-11.6616
-11.8135
-11.9769
-12.1461
-12.3169
-12.4862
-12.6516
-12.8111
-12.9635
-13.108
-13.244
-13.3713
-13.4898
-13.5996
-13.701
-13.794
-13.8792
-13.9567
-14.027
-14.0904
-14.1472
-14.1978
-14.2425
-14.2817
-14.3156
-14.3446
-14.3691
-14.3894
-14.4057
-11.195
-11.2267
-11.3131
-11.4349
-11.579
-11.7403
-11.9131
-12.0915
-12.2709
-12.4479
-12.62
-12.7853
-12.9425
-13.0908
-13.2297
-13.3591
-13.4789
-13.5894
-13.6908
-13.7834
-13.8676
-13.9439
-14.0125
-14.074
-14.1288
-14.1772
-14.2197
-14.2566
-14.2883
-14.3152
-14.3376
-14.3558
-14.3702
-11.0615
-11.0961
-11.1902
-11.322
-11.4765
-11.6484
-11.8319
-12.0204
-12.2093
-12.3949
-12.5747
-12.7467
-12.9095
-13.0624
-13.2049
-13.3369
-13.4584
-13.5699
-13.6715
-13.7637
-13.847
-13.9219
-13.9889
-14.0484
-14.101
-14.1471
-14.1872
-14.2217
-14.251
-14.2756
-14.2958
-14.3122
-14.3249
-10.8973
-10.9372
-11.0448
-11.1944
-11.3679
-11.5588
-11.7603
-11.9652
-12.1683
-12.3663
-12.5564
-12.7369
-12.9065
-13.0646
-13.2111
-13.3459
-13.4692
-13.5815
-13.6832
-13.7748
-13.8571
-13.9304
-13.9954
-14.0527
-14.1028
-14.1463
-14.1836
-14.2153
-14.2418
-14.2635
-14.2809
-14.2944
-14.3042
-10.6951
-10.7396
-10.8612
-11.0279
-11.2188
-11.428
-11.6481
-11.8709
-12.0907
-12.3036
-12.5069
-12.6986
-12.8774
-13.0429
-13.1951
-13.3339
-13.46
-13.5738
-13.6761
-13.7675
-13.8487
-13.9205
-13.9835
-14.0385
-14.086
-14.1267
-14.1612
-14.1899
-14.2134
-14.2323
-14.247
-14.258
-14.2657
-10.4497
-10.5089
-10.6631
-10.8676
-11.0941
-11.3355
-11.5836
-11.8301
-12.0695
-12.2987
-12.5152
-12.7173
-12.9045
-13.0764
-13.2331
-13.3752
-13.5031
-13.6177
-13.7198
-13.8101
-13.8896
-13.9591
-14.0194
-14.0712
-14.1153
-14.1523
-14.1829
-14.2077
-14.2272
-14.2419
-14.2525
-14.2592
-14.2625
-10.1392
-10.2008
-10.3749
-10.606
-10.8629
-11.1391
-11.4229
-11.7026
-11.9719
-12.2269
-12.465
-12.6847
-12.8856
-13.068
-13.2324
-13.3796
-13.5108
-13.627
-13.7294
-13.8191
-13.897
-13.9644
-14.022
-14.0709
-14.1117
-14.1453
-14.1723
-14.1934
-14.2092
-14.2203
-14.2273
-14.2307
-14.2312
-9.77378
-9.89057
-10.1501
-10.4523
-10.7602
-11.0769
-11.3935
-11.6994
-11.9903
-12.2635
-12.5167
-12.7487
-12.9596
-13.1495
-13.3193
-13.47
-13.6028
-13.7192
-13.8203
-13.9077
-13.9824
-14.0457
-14.0987
-14.1425
-14.1779
-14.2058
-14.2269
-14.2419
-14.2515
-14.2563
-14.2569
-14.2538
-14.2477
-9.2411
-9.33173
-9.62888
-9.9987
-10.3874
-10.7874
-11.1783
-11.5463
-11.8877
-12.2007
-12.4841
-12.7386
-12.9655
-13.1665
-13.3436
-13.4988
-13.6338
-13.7507
-13.8512
-13.9368
-14.0092
-14.0696
-14.1193
-14.1595
-14.191
-14.2149
-14.2318
-14.2424
-14.2475
-14.2475
-14.2433
-14.2355
-14.225
-8.74291
-9.06486
-9.53155
-9.94869
-10.3567
-10.7826
-11.1983
-11.5903
-11.9569
-12.2945
-12.6
-12.8733
-13.115
-13.3267
-13.5106
-13.6688
-13.804
-13.9184
-14.0143
-14.0939
-14.1589
-14.2112
-14.2523
-14.2835
-14.3059
-14.3205
-14.3281
-14.3294
-14.325
-14.3152
-14.3005
-14.2817
-14.259
-7.43818
-7.75945
-8.53135
-9.22928
-9.86353
-10.4672
-11.0082
-11.4865
-11.9123
-12.2895
-12.6215
-12.9127
-13.1668
-13.3874
-13.5774
-13.74
-13.8778
-13.9934
-14.0893
-14.1677
-14.2306
-14.2799
-14.3174
-14.3443
-14.362
-14.3715
-14.3736
-14.3689
-14.3575
-14.3398
-14.315
-14.2846
-14.2438
-7.42408
-8.16864
-8.77201
-9.23746
-9.83557
-10.4667
-11.0542
-11.6006
-12.0996
-12.5407
-12.9229
-13.25
-13.5261
-13.7563
-13.9457
-14.0998
-14.2234
-14.3209
-14.3962
-14.4528
-14.4936
-14.521
-14.5373
-14.5442
-14.5432
-14.5355
-14.522
-14.5032
-14.4791
-14.4487
-14.4093
-14.3581
-14.281
-1.17139
-5.77912
-7.56232
-8.41164
-9.41203
-10.2858
-10.9835
-11.5879
-12.1153
-12.5662
-12.9496
-13.2739
-13.5455
-13.7707
-13.9555
-14.1054
-14.2253
-14.3196
-14.3921
-14.4462
-14.4848
-14.5104
-14.525
-14.5305
-14.5284
-14.52
-14.5065
-14.4885
-14.4674
-14.4426
-14.4169
-14.3854
-14.3597
-16.5274
-17.4987
-18.8344
-19.5402
-19.9025
-20.1675
-20.194
-19.6994
-18.4781
-16.514
-13.9997
-11.2827
-8.78102
-6.87092
-5.84563
-5.84141
-6.88467
-8.96745
-12.111
-16.2898
-21.3791
-27.1215
-33.1218
-38.884
-43.8863
-47.644
-49.9089
-50.6748
-49.8286
-46.9982
-41.95
-35.4741
-28.9928
-23.3348
-18.6035
-14.6563
-11.3468
-8.56369
-6.22005
-4.2468
-2.592
-1.2196
-0.111739
0.73767
1.31179
1.54036
1.31699
0.25428
-2.66398
-8.51234
-17.1736
-27.1255
-36.5578
-44.0079
-48.4474
-49.3335
-46.5971
-40.7756
-33.1951
-25.4375
-18.6697
-13.3178
-9.29257
-6.33753
-4.20395
-2.69073
-1.64054
-0.930963
-0.467436
-0.177792
-0.00782857
0.0820669
0.119674
0.122996
0.101334
0.0562847
-0.0183343
-0.137232
-0.324416
-0.62153
-1.12637
-2.10109
-4.18875
-8.41617
-15.3198
-23.8872
-31.5857
-35.3994
-33.8931
-27.4096
-18.6705
-10.7307
-5.29128
-2.30406
-0.897813
-0.297388
-0.0780906
0.0326523
-0.0512518
0.198842
-16.7973
-17.5819
-18.7508
-19.4448
-19.8067
-20.0343
-19.9866
-19.406
-18.1212
-16.1401
-13.6585
-11.0082
-8.58575
-6.76374
-5.80849
-5.83972
-6.90529
-9.03638
-12.1433
-16.1744
-21.0162
-26.4292
-32.0523
-37.4411
-42.1302
-45.7059
-47.9649
-48.7899
-47.9168
-44.9283
-39.842
-33.698
-27.7552
-22.5689
-18.1669
-14.4365
-11.2709
-8.58455
-6.30612
-4.37668
-2.75104
-1.39754
-0.300848
0.542625
1.11501
1.34975
1.13399
0.147259
-2.48941
-7.78088
-15.7177
-24.9941
-33.9058
-41.0046
-45.26
-46.153
-43.6419
-38.2849
-31.3517
-24.277
-18.0741
-13.1062
-9.30784
-6.47327
-4.39586
-2.90154
-1.84918
-1.12613
-0.643733
-0.333421
-0.143147
-0.0346119
0.0191882
0.0357154
0.0240563
-0.0143975
-0.0858238
-0.205002
-0.395712
-0.697499
-1.19925
-2.13452
-4.08028
-7.97699
-14.3454
-22.2871
-29.4671
-33.0703
-31.7647
-25.8142
-17.7212
-10.3283
-5.22326
-2.37342
-0.990518
-0.370954
-0.126269
0.00386211
-0.0620166
0.19148
-16.8251
-17.5661
-18.5807
-19.2362
-19.5715
-19.7255
-19.5779
-18.9192
-17.624
-15.7208
-13.3936
-10.9345
-8.68288
-6.96607
-6.05463
-6.10989
-7.17264
-9.26404
-12.3185
-16.1994
-20.7754
-25.8432
-31.0849
-36.1026
-40.4885
-43.9046
-46.1187
-46.8895
-45.8343
-42.6145
-37.6013
-31.9269
-26.5565
-21.8251
-17.7352
-14.2148
-11.193
-8.60625
-6.39673
-4.51501
-2.92249
-1.59205
-0.510988
0.321708
0.886578
1.12135
0.909343
-0.0193703
-2.40346
-7.15202
-14.3358
-22.8674
-31.1838
-37.879
-41.9307
-42.8418
-40.5932
-35.752
-29.5053
-23.1263
-17.4829
-12.8917
-9.31758
-6.60479
-4.58628
-3.11344
-2.06084
-1.32554
-0.824921
-0.494146
-0.283464
-0.155987
-0.085584
-0.0553817
-0.0565047
-0.087757
-0.155307
-0.273864
-0.466917
-0.772078
-1.27017
-2.16759
-3.9753
-7.54343
-13.3697
-20.6691
-27.3138
-30.7003
-29.5933
-24.1856
-16.7556
-9.92512
-5.16223
-2.45116
-1.09071
-0.450941
-0.179153
-0.0288977
-0.07314
0.17974
-16.8826
-17.5035
-18.304
-18.8617
-19.137
-19.2066
-18.9788
-18.2962
-17.074
-15.3507
-13.2833
-11.1096
-9.10571
-7.54839
-6.6876
-6.70564
-7.71781
-9.72047
-12.636
-16.3453
-20.6685
-25.3939
-30.251
-34.901
-39.0002
-42.2465
-44.3253
-44.8685
-43.4743
-40.0834
-35.3346
-30.2295
-25.4169
-21.1045
-17.307
-13.991
-11.1138
-8.62928
-6.49207
-4.66176
-3.10616
-1.8027
-0.741502
0.0758444
0.628014
0.857484
0.645696
-0.238902
-2.39768
-6.62546
-13.0479
-20.7865
-28.447
-34.6948
-38.5283
-39.4715
-37.523
-33.2398
-27.6996
-22.008
-16.9047
-12.6762
-9.32153
-6.73135
-4.77448
-3.32585
-2.27508
-1.52888
-1.0108
-0.659848
-0.428698
-0.281983
-0.194519
-0.150065
-0.140047
-0.163466
-0.226391
-0.343348
-0.537511
-0.844624
-1.33785
-2.19784
-3.87084
-7.11491
-12.3993
-19.0507
-25.1547
-28.3246
-27.4145
-22.5539
-15.7951
-9.53266
-5.11215
-2.5375
-1.19774
-0.536948
-0.236715
-0.0658157
-0.0847768
0.163541
-16.8238
-17.3089
-17.9095
-18.3519
-18.5588
-18.5582
-18.2857
-17.6329
-16.547
-15.0666
-13.3175
-11.4878
-9.79079
-8.44272
-7.65582
-7.6318
-8.51751
-10.3696
-13.112
-16.601
-20.6625
-25.0747
-29.5766
-33.8749
-37.681
-40.6611
-42.4261
-42.5524
-40.8112
-37.442
-33.1397
-28.6331
-24.3373
-20.4081
-16.8858
-13.7687
-11.0356
-8.65514
-6.59315
-4.81765
-3.30259
-2.02987
-0.992493
-0.194614
0.340371
0.559789
0.346686
-0.5023
-2.46508
-6.21012
-11.8915
-18.8168
-25.7773
-31.5389
-35.1391
-36.1253
-34.5059
-30.8033
-25.9657
-20.9353
-16.3445
-12.462
-9.321
-6.85375
-4.96088
-3.53896
-2.49204
-1.7363
-1.20152
-0.830668
-0.578974
-0.412704
-0.307708
-0.24845
-0.22665
-0.24152
-0.299
-0.413313
-0.607235
-0.914725
-1.40171
-2.22463
-3.76757
-6.69724
-11.45
-17.4593
-23.0247
-25.9783
-25.2599
-20.9436
-14.8557
-9.1591
-5.07615
-2.63354
-1.31223
-0.62957
-0.299532
-0.107322
-0.0972278
0.142964
-16.7279
-17.1077
-17.5498
-17.8817
-18.0225
-17.9704
-17.68
-17.0779
-16.1299
-14.8704
-13.4014
-11.8755
-10.4744
-9.38049
-8.75018
-8.73963
-9.50052
-11.1385
-13.644
-16.889
-20.679
-24.7876
-28.958
-32.9082
-36.353
-38.9052
-40.1685
-39.8442
-37.9509
-34.8529
-31.0971
-27.1546
-23.3186
-19.7367
-16.4737
-13.5497
-10.9595
-8.6845
-6.70026
-4.98267
-3.5115
-2.27299
-1.26304
-0.488201
0.0261945
0.231489
0.0158712
-0.802144
-2.59849
-5.9123
-10.8995
-17.022
-23.2595
-28.5059
-31.8605
-32.8972
-31.6212
-28.4965
-24.3318
-19.9198
-15.8061
-12.2505
-9.31669
-6.97224
-5.14548
-3.75271
-2.71164
-1.94777
-1.39707
-1.00661
-0.73429
-0.548113
-0.425062
-0.350365
-0.316083
-0.32166
-0.372857
-0.483463
-0.675753
-0.982012
-1.46151
-2.24844
-3.6684
-6.29888
-10.539
-15.9216
-20.9568
-23.6958
-23.1633
-19.3822
-13.9553
-8.81334
-5.05695
-2.73946
-1.43388
-0.728598
-0.367566
-0.153409
-0.110611
0.118299
-16.6041
-16.9033
-17.2302
-17.4742
-17.563
-17.478
-17.1841
-16.6314
-15.7997
-14.7213
-13.4812
-12.2057
-11.0485
-10.1653
-9.69013
-9.74827
-10.4554
-11.9042
-14.1245
-17.049
-20.5137
-24.2863
-28.0952
-31.6505
-34.6135
-36.6284
-37.4183
-36.8802
-35.1315
-32.465
-29.241
-25.7898
-22.3567
-19.0916
-16.0734
-13.3362
-10.8872
-8.71815
-6.81371
-5.15678
-3.73255
-2.53144
-1.55215
-0.80342
-0.312125
-0.123839
-0.34264
-1.13112
-2.78573
-5.72472
-10.0848
-15.4473
-20.969
-25.6896
-28.7918
-29.8777
-28.9372
-26.3595
-22.8152
-18.9669
-15.2916
-12.0431
-9.30966
-7.08748
-5.32865
-3.96731
-2.93404
-2.16343
-1.5976
-1.1878
-0.894723
-0.688241
-0.546568
-0.455768
-0.408249
-0.403708
-0.447702
-0.553484
-0.742695
-1.04604
-1.51673
-2.26903
-3.57463
-5.92553
-9.68006
-14.461
-18.9821
-21.5114
-21.1568
-17.8949
-13.1099
-8.50255
-5.05646
-2.85541
-1.56263
-0.834051
-0.440912
-0.204098
-0.125133
0.089987
-16.4669
-16.706
-16.9492
-17.1232
-17.1685
-17.0603
-16.7713
-16.2686
-15.5419
-14.6209
-13.5767
-12.5136
-11.5582
-10.8414
-10.4838
-10.5956
-11.2681
-12.5663
-14.5124
-17.0658
-20.107
-23.4352
-26.7874
-29.8525
-32.3052
-33.9114
-34.5102
-34.0439
-32.5877
-30.3403
-27.5643
-24.5279
-21.4497
-18.4747
-15.6872
-13.1299
-10.8194
-8.7565
-6.93348
-5.33959
-3.96503
-2.80411
-1.85825
-1.13812
-0.671666
-0.502001
-0.724059
-1.48244
-3.01313
-5.63135
-9.44238
-14.1148
-18.9601
-23.1665
-26.0145
-27.1374
-26.5016
-24.4152
-21.4229
-18.0782
-14.802
-11.8411
-9.30098
-7.20015
-5.51076
-4.18298
-3.15944
-2.38343
-1.80323
-1.37432
-1.06031
-0.833058
-0.67212
-0.564457
-0.502886
-0.487346
-0.523179
-0.622998
-0.807654
-1.10636
-1.56689
-2.28593
-3.48676
-5.58122
-8.88446
-13.0985
-17.1295
-19.4568
-19.2707
-16.5053
-12.3339
-8.23258
-5.0758
-2.98116
-1.69817
-0.945657
-0.51935
-0.259096
-0.140848
0.0586539
-16.322
-16.5121
-16.691
-16.8092
-16.8203
-16.6988
-16.4228
-15.9708
-15.3392
-14.5553
-13.6792
-12.7975
-12.0157
-11.4439
-11.1854
-11.333
-11.9624
-13.1229
-14.8247
-17.0266
-19.6278
-22.4629
-25.3058
-27.8968
-29.9901
-31.3899
-31.9415
-31.5824
-30.3693
-28.4525
-26.0412
-23.3592
-20.5967
-17.8879
-15.3169
-12.932
-10.757
-8.79985
-7.05939
-5.53051
-4.20796
-3.08963
-2.17951
-1.4899
-1.04927
-0.898556
-1.12324
-1.85007
-3.26848
-5.6123
-8.95245
-13.0199
-17.2528
-20.9769
-23.5747
-24.713
-24.333
-22.6672
-20.1525
-17.2519
-14.3377
-11.6459
-9.29187
-7.3111
-5.6924
-4.40015
-3.38816
-2.60807
-2.01419
-1.56633
-1.23113
-0.982559
-0.801627
-0.67626
-0.599756
-0.572259
-0.598897
-0.691577
-0.870189
-1.16249
-1.61146
-2.29864
-3.40486
-5.26858
-8.16086
-11.8509
-15.423
-17.5594
-17.5309
-15.2333
-11.6383
-8.0071
-5.11518
-3.11633
-1.84028
-1.06321
-0.602655
-0.318063
-0.157819
0.0250087
-16.1739
-16.3248
-16.4556
-16.5317
-16.5176
-16.3899
-16.1314
-15.7287
-15.1828
-14.519
-13.7881
-13.0621
-12.4288
-11.9797
-11.8026
-11.9762
-12.5627
-13.6001
-15.091
-16.9945
-19.2202
-21.6289
-24.0395
-26.2525
-28.0567
-29.2607
-29.7374
-29.4426
-28.4121
-26.7594
-24.6533
-22.2787
-19.7978
-17.3322
-14.9637
-12.7436
-10.7005
-8.84825
-7.19104
-5.72871
-4.4601
-3.38633
-2.51371
-1.85594
-1.44137
-1.30894
-1.53484
-2.22838
-3.54178
-5.64742
-8.58606
-12.1338
-15.83
-19.1175
-21.4743
-22.6018
-22.4217
-21.1033
-18.9952
-16.4848
-13.899
-11.4587
-9.28362
-7.4213
-5.87427
-4.61937
-3.62066
-2.8377
-2.23076
-1.76401
-1.40726
-1.13671
-0.934944
-0.790922
-0.698514
-0.65803
-0.674383
-0.758723
-0.929813
-1.21393
-1.64989
-2.30644
-3.32824
-4.98826
-7.5141
-10.73
-13.881
-15.8411
-15.9581
-14.094
-11.0305
-7.82754
-5.17408
-3.26056
-1.98882
-1.18644
-0.690457
-0.380471
-0.175964
-0.0101703
-16.0268
-16.1459
-16.24
-16.2843
-16.252
-16.1236
-15.8857
-15.5304
-15.0618
-14.5029
-13.8967
-13.3034
-12.7959
-12.4506
-12.3415
-12.5342
-13.0795
-14.0065
-15.3142
-16.9646
-18.8791
-20.9391
-22.9938
-24.8702
-26.3944
-27.4128
-27.8181
-27.5639
-26.6733
-25.2367
-23.3893
-21.2817
-19.0518
-16.8082
-14.6288
-12.5655
-10.6504
-8.90158
-7.32784
-5.93316
-4.71997
-3.69228
-2.85842
-2.23321
-1.84442
-1.72879
-1.9537
-2.61205
-3.8253
-5.7197
-8.31312
-11.4161
-14.6484
-17.5491
-19.6776
-20.7705
-20.7388
-19.7032
-17.9407
-15.7736
-13.4861
-11.2809
-9.27761
-7.53186
-6.05725
-4.84137
-3.85754
-3.07283
-2.45334
-1.96764
-1.58882
-1.29549
-1.07192
-0.908174
-0.798791
-0.744205
-0.749114
-0.82388
-0.985995
-1.26018
-1.68163
-2.30851
-3.25554
-4.73894
-6.94501
-9.74145
-12.5144
-14.316
-14.566
-13.0964
-10.5132
-7.693
-5.25153
-3.41366
-2.14381
-1.31516
-0.782397
-0.445785
-0.195203
-0.0461428
-15.8826
-15.9762
-16.0427
-16.0639
-16.0202
-15.8956
-15.6801
-15.3697
-14.9704
-14.5029
-14.0039
-13.5235
-13.1224
-12.8637
-12.8094
-13.0138
-13.5183
-14.3451
-15.4906
-16.9201
-18.5651
-20.3247
-22.0705
-23.6569
-24.9429
-25.7985
-26.1307
-25.8996
-25.1216
-23.8656
-22.2385
-20.3634
-18.3571
-16.316
-14.3125
-12.3981
-10.6068
-8.95957
-7.46904
-6.14264
-4.98591
-4.00535
-3.21101
-2.61851
-2.25468
-2.15388
-2.37507
-2.99626
-4.11313
-5.81679
-8.10887
-10.8276
-13.6581
-16.2171
-18.132
-19.1742
-19.251
-18.4466
-16.9796
-15.1158
-13.0995
-11.114
-9.27525
-7.64405
-6.24244
-5.06708
-4.0996
-3.31413
-2.68243
-2.17754
-1.77597
-1.45886
-1.21235
-1.02767
-0.900125
-0.83024
-0.822487
-0.886423
-1.03815
-1.30071
-1.70612
-2.30395
-3.18485
-4.51744
-6.45035
-8.88429
-11.3264
-12.9899
-13.3597
-12.242
-10.0841
-7.60072
-5.34652
-3.57583
-2.30555
-1.44925
-0.878107
-0.513434
-0.215413
-0.0822118
-15.7434
-15.8166
-15.8624
-15.8676
-15.8173
-15.6995
-15.5071
-15.2384
-14.9008
-14.5127
-14.1052
-13.7204
-13.4082
-13.2212
-13.2107
-13.4213
-13.8861
-14.6216
-15.6226
-16.8577
-18.2675
-19.7659
-21.2446
-22.5823
-23.6608
-24.372
-24.6382
-24.4232
-23.7364
-22.6306
-21.1913
-19.519
-17.7121
-15.8553
-14.0154
-12.2419
-10.5696
-9.02178
-7.61374
-6.3558
-5.2561
-4.32326
-3.5687
-3.00856
-2.66842
-2.58016
-2.79468
-3.37676
-4.40066
-5.93029
-7.95597
-10.339
-12.8179
-15.0737
-16.7911
-17.7746
-17.9312
-17.3177
-16.1046
-14.5093
-12.7395
-10.9592
-9.27804
-7.75929
-6.43112
-5.29765
-4.34788
-3.56246
-2.91871
-2.39416
-1.9689
-1.62681
-1.35601
-1.14903
-1.00199
-0.915524
-0.893832
-0.94566
-1.08565
-1.33498
-1.72284
-2.29185
-3.11392
-4.31911
-6.02316
-8.15128
-10.3115
-11.8586
-12.3351
-11.5249
-9.73662
-7.54696
-5.45856
-3.74786
-2.47464
-1.58873
-0.977313
-0.582939
-0.236524
-0.117776
-15.6099
-15.6672
-15.6979
-15.6923
-15.6397
-15.5311
-15.3616
-15.1316
-14.8486
-14.5291
-14.1997
-13.8953
-13.6572
-13.5288
-13.5521
-13.7635
-14.1894
-14.8417
-15.7141
-16.7783
-17.983
-19.255
-20.503
-21.6263
-22.5256
-23.1109
-23.3164
-23.1099
-22.4967
-21.5171
-20.2388
-18.7437
-17.1146
-15.4256
-13.7373
-12.0968
-10.5387
-9.08765
-7.76095
-6.57118
-5.52864
-4.64363
-3.92867
-3.4001
-3.08201
-3.00376
-3.20869
-3.74989
-4.68411
-6.0543
-7.8429
-9.93053
-12.1001
-14.0863
-15.6255
-16.5447
-16.7595
-16.3039
-15.3093
-13.9517
-12.4064
-10.8176
-9.28753
-7.87918
-6.62483
-5.53453
-4.60365
-3.81891
-3.16302
-2.61807
-2.1679
-1.79931
-1.50266
-1.27178
-1.10378
-0.999344
-0.962393
-1.00083
-1.12778
-1.36245
-1.73128
-2.27136
-3.04036
-4.13821
-5.65344
-7.52923
-9.45578
-10.9083
-11.4781
-10.9315
-9.4613
-7.52817
-5.58818
-3.93124
-2.65198
-1.73379
-1.07984
-0.653843
-0.258473
-0.152288
-15.4832
-15.5281
-15.5481
-15.536
-15.4841
-15.386
-15.2387
-15.0438
-14.8088
-14.5484
-14.285
-14.0477
-13.8706
-13.7892
-13.8379
-14.0459
-14.4341
-15.0109
-15.7689
-16.6831
-17.7091
-18.7848
-19.8336
-20.7717
-21.5156
-21.9907
-22.1414
-21.9394
-21.3864
-20.513
-19.3729
-18.033
-16.5626
-15.0261
-13.4781
-11.9628
-10.5138
-9.15655
-7.90959
-6.78727
-5.80155
-4.96407
-4.2881
-3.78993
-3.492
-3.42111
-3.61364
-4.11257
-4.96038
-6.18416
-7.76116
-9.58838
-11.4854
-13.232
-14.6074
-15.463
-15.7192
-15.3942
-14.5877
-13.4409
-12.1
-10.6905
-9.30536
-8.00552
-6.82539
-5.77946
-4.86853
-4.08488
-3.41645
-2.84999
-2.3733
-1.97636
-1.65197
-1.39539
-1.20478
-1.0809
-1.02733
-1.05109
-1.16378
-1.3825
-1.731
-2.24178
-2.96189
-3.9686
-5.32913
-7.00026
-8.73793
-10.1155
-10.7659
-10.4436
-9.24797
-7.5423
-5.7373
-4.12818
-2.83886
-1.88482
-1.18566
-0.725754
-0.281239
-0.185231
-15.3633
-15.3989
-15.4115
-15.3961
-15.3472
-15.2604
-15.1341
-14.9708
-14.7778
-14.5678
-14.36
-14.1784
-14.0509
-14.0067
-14.0734
-14.2746
-14.6263
-15.134
-15.7903
-16.5726
-17.443
-18.3487
-19.2257
-20.0041
-20.614
-20.9932
-21.0949
-20.8942
-20.3906
-19.6071
-18.5863
-17.3824
-16.0538
-14.6558
-13.2375
-11.8396
-10.4946
-9.22777
-8.05857
-7.00254
-6.07288
-5.28219
-4.64422
-4.17499
-3.89514
-3.82899
-4.00652
-4.46215
-5.22688
-6.31596
-7.70364
-9.30093
-10.9579
-12.4917
-13.7187
-14.5108
-14.795
-14.5779
-13.9337
-12.9743
-11.8203
-10.579
-9.3333
-8.14038
-7.03498
-6.03461
-5.14454
-4.36212
-3.68037
-3.09085
-2.58558
-2.15799
-1.80356
-1.51924
-1.30417
-1.15926
-1.08768
-1.09553
-1.19283
-1.39452
-1.72161
-2.20259
-2.87661
-3.80441
-5.03752
-6.54361
-8.13012
-9.44952
-10.1706
-10.0418
-9.08861
-7.58979
-5.90925
-4.34164
-3.03702
-2.04247
-1.2949
-0.798371
-0.304806
-0.216048
-15.2508
-15.2795
-15.2874
-15.271
-15.2266
-15.1512
-15.0446
-14.9095
-14.7527
-14.5855
-14.4239
-14.2879
-14.2003
-14.1847
-14.2634
-14.4549
-14.7715
-15.2165
-15.7822
-16.4489
-17.1839
-17.9425
-18.6714
-19.312
-19.8062
-20.1022
-20.1606
-19.9595
-19.4968
-18.7898
-17.8721
-16.7879
-15.5858
-14.3137
-13.015
-11.727
-10.4806
-9.30057
-8.20678
-7.21548
-6.3407
-5.59572
-4.99443
-4.55241
-4.2885
-4.22445
-4.3847
-4.79645
-5.48149
-6.44649
-7.66434
-9.05816
-10.5034
-11.8482
-12.9411
-13.6712
-13.9733
-13.8454
-13.3417
-12.5495
-11.5669
-10.4841
-9.37321
-8.28606
-7.25615
-6.3026
-5.43418
-4.65282
-3.95653
-3.34184
-2.80532
-2.34427
-1.95705
-1.64261
-1.40103
-1.23338
-1.14239
-1.13314
-1.21403
-1.39781
-1.70269
-2.15347
-2.78322
-3.64078
-4.7668
-6.13846
-7.60283
-8.87798
-9.66464
-9.71009
-8.97946
-7.67371
-6.1087
-4.57536
-3.24871
-2.20767
-1.40767
-0.871447
-0.329161
-0.244117
-15.145
-15.1688
-15.174
-15.1583
-15.1192
-15.0552
-14.9664
-14.8561
-14.7304
-14.5992
-14.4758
-14.3768
-14.3206
-14.3264
-14.4119
-14.5916
-14.8745
-15.2625
-15.7477
-16.3129
-16.9302
-17.5618
-18.1632
-18.6854
-19.0803
-19.3044
-19.3247
-19.1222
-18.6937
-18.0522
-17.2241
-16.2453
-15.1564
-13.9984
-12.8098
-11.6244
-10.4712
-9.37421
-8.35314
-7.42463
-6.60321
-5.90248
-5.33629
-4.91957
-4.66939
-4.60488
-4.74599
-5.11367
-5.72255
-6.57314
-7.6383
-8.85168
-10.1098
-11.2868
-12.2586
-12.9294
-13.2416
-13.1878
-12.8062
-12.164
-11.3396
-10.4069
-9.4271
-8.44522
-7.49194
-6.58662
-5.74055
-4.95974
-4.24713
-3.60447
-3.03331
-2.53533
-2.11203
-1.76467
-1.49428
-1.30209
-1.19028
-1.16281
-1.22642
-1.39164
-1.67384
-2.0943
-2.68111
-3.47445
-4.50787
-5.76709
-7.13194
-8.37514
-9.22862
-9.4401
-8.92128
-7.79924
-6.34158
-4.83412
-3.47681
-2.38167
-1.52408
-0.944659
-0.354247
-0.268723
-15.0466
-15.067
-15.0711
-15.0571
-15.0239
-14.9705
-14.8979
-14.8091
-14.7098
-14.6084
-14.5162
-14.4467
-14.4148
-14.4359
-14.524
-14.6902
-14.9411
-15.2774
-15.6909
-16.1672
-16.6822
-17.2042
-17.6958
-18.1165
-18.426
-18.5883
-18.5756
-18.3712
-17.9718
-17.3866
-16.6365
-15.7507
-14.7631
-13.7087
-12.6213
-11.5314
-10.466
-9.44796
-8.49664
-7.62867
-6.85873
-6.20051
-5.66758
-5.27411
-5.03547
-4.96819
-5.08866
-5.41242
-5.9487
-6.6938
-7.6214
-8.67444
-9.76702
-10.7952
-11.6574
-12.272
-12.5887
-12.5966
-12.3219
-11.8152
-11.1377
-10.3485
-9.49715
-8.6209
-7.74602
-6.89061
-6.06754
-5.28638
-4.55497
-3.88066
-3.27056
-2.73128
-2.26802
-1.88446
-1.58269
-1.36404
-1.23002
-1.18334
-1.22899
-1.37522
-1.63458
-2.02497
-2.57018
-3.30389
-4.25529
-5.41803
-6.7022
-7.92662
-8.85321
-9.2296
-8.91769
-7.97324
-6.61538
-5.12399
-3.725
-2.56582
-1.64444
-1.01755
-0.379942
-0.289079
-14.9543
-14.9725
-14.9763
-14.9648
-14.9374
-14.8939
-14.8355
-14.7651
-14.6879
-14.6111
-14.5439
-14.4975
-14.4839
-14.5152
-14.6024
-14.7539
-14.9744
-15.2629
-15.6138
-16.0126
-16.439
-16.8666
-17.2641
-17.5978
-17.8343
-17.9437
-17.9026
-17.6967
-17.3221
-16.7857
-16.1039
-15.3005
-14.4036
-13.4431