/*--------------------------------*- C++ -*----------------------------------*\
| =========                 |                                                 |
| \\      /  F ield         | OpenFOAM: The Open Source CFD Toolbox           |
|  \\    /   O peration     | Version:  2.1.1                                 |
|   \\  /    A nd           | Web:      www.OpenFOAM.org                      |
|    \\/     M anipulation  |                                                 |
\*---------------------------------------------------------------------------*/
FoamFile
{
    version     2.0;
    format      ascii;
    class       surfaceScalarField;
    location    "0.135";
    object      phi;
}
// * * * * * * * * * * * * * * * * * * * * * * * * * * * * * * * * * * * * * //

dimensions      [0 3 -1 0 0 0 0];

internalField   nonuniform List<scalar> 
13452
(
4.59986e-05
2.24887e-05
2.96634e-05
1.63352e-05
2.1187e-05
8.47641e-06
1.72853e-05
3.90177e-06
1.56421e-05
1.64312e-06
1.48329e-05
8.09244e-07
1.43208e-05
5.12091e-07
1.3929e-05
3.91821e-07
1.35974e-05
3.31554e-07
1.33108e-05
2.86653e-07
1.30645e-05
2.4624e-07
1.28549e-05
2.09623e-07
1.26777e-05
1.77176e-07
1.25288e-05
1.48923e-07
1.24044e-05
1.24452e-07
1.23012e-05
1.0314e-07
1.22169e-05
8.43488e-08
1.21494e-05
6.7505e-08
1.20973e-05
5.21249e-08
1.20594e-05
3.78055e-08
1.20352e-05
2.42446e-08
1.20242e-05
1.09613e-08
1.20265e-05
-2.29248e-09
1.20414e-05
-1.48732e-08
1.20694e-05
-2.79751e-08
1.21106e-05
-4.12585e-08
1.21655e-05
-5.48614e-08
1.22335e-05
-6.79819e-08
1.23161e-05
-8.26138e-08
1.24046e-05
-8.8504e-08
1.25113e-05
-1.06652e-07
1.25424e-05
-3.11555e-08
-1.88665e-07
1.27311e-05
7.49128e-05
1.80198e-05
7.04128e-05
2.08352e-05
6.33234e-05
1.55658e-05
5.66688e-05
1.05564e-05
5.15522e-05
6.75979e-06
4.78961e-05
4.46531e-06
4.52747e-05
3.13352e-06
4.33458e-05
2.32065e-06
4.18766e-05
1.80081e-06
4.07172e-05
1.44602e-06
3.97756e-05
1.18782e-06
3.89942e-05
9.911e-07
3.83352e-05
8.36149e-07
3.77732e-05
7.10886e-07
3.72903e-05
6.07362e-07
3.68734e-05
5.2007e-07
3.65127e-05
4.45054e-07
3.62008e-05
3.79408e-07
3.5932e-05
3.20946e-07
3.57018e-05
2.67992e-07
3.55068e-05
2.19227e-07
3.53442e-05
1.73526e-07
3.52118e-05
1.30166e-07
3.51084e-05
8.85386e-08
3.50327e-05
4.77139e-08
3.49843e-05
7.15333e-09
3.49623e-05
-3.28858e-08
3.49667e-05
-7.24412e-08
3.49968e-05
-1.12633e-07
3.50547e-05
-1.46456e-07
3.51366e-05
-1.88498e-07
3.52965e-05
-1.91127e-07
-2.64138e-07
3.5372e-05
7.85211e-05
1.19552e-05
8.2335e-05
1.70213e-05
8.29934e-05
1.49074e-05
8.14782e-05
1.20715e-05
7.89553e-05
9.28267e-06
7.6268e-05
7.15263e-06
7.37475e-05
5.65401e-06
7.14971e-05
4.5711e-06
6.95299e-05
3.76792e-06
6.78218e-05
3.15415e-06
6.63396e-05
2.67004e-06
6.50516e-05
2.27912e-06
6.39297e-05
1.95805e-06
6.29499e-05
1.69061e-06
6.20924e-05
1.46495e-06
6.13402e-05
1.2722e-06
6.06797e-05
1.10558e-06
6.00993e-05
9.59808e-07
5.95895e-05
8.307e-07
5.91426e-05
7.14918e-07
5.87521e-05
6.09756e-07
5.84126e-05
5.12973e-07
5.81201e-05
4.2274e-07
5.7871e-05
3.37636e-07
5.76625e-05
2.56204e-07
5.74922e-05
1.77418e-07
5.73587e-05
1.00596e-07
5.72611e-05
2.51712e-08
5.71984e-05
-4.99321e-08
5.71728e-05
-1.2084e-07
5.71778e-05
-1.93513e-07
5.7232e-05
-2.45276e-07
-3.09243e-07
5.72771e-05
7.81467e-05
8.33505e-06
8.19232e-05
1.32449e-05
8.46194e-05
1.22112e-05
8.62425e-05
1.04484e-05
8.69216e-05
8.60366e-06
8.7009e-05
7.06519e-06
8.6747e-05
5.91604e-06
8.62774e-05
5.04061e-06
8.56917e-05
4.35363e-06
8.50454e-05
3.80046e-06
8.43731e-05
3.34239e-06
8.36974e-05
2.95476e-06
8.30344e-05
2.62113e-06
8.23949e-05
2.33011e-06
8.17858e-05
2.07403e-06
8.12112e-05
1.8468e-06
8.06733e-05
1.64348e-06
8.01731e-05
1.46002e-06
7.97107e-05
1.29306e-06
7.92859e-05
1.13977e-06
7.88979e-05
9.97749e-07
7.85459e-05
8.64927e-07
7.82291e-05
7.3952e-07
7.79467e-05
6.20023e-07
7.7698e-05
5.04969e-07
7.74822e-05
3.93178e-07
7.72991e-05
2.8374e-07
7.71482e-05
1.76064e-07
7.70291e-05
6.91988e-08
7.69438e-05
-3.56165e-08
7.68916e-05
-1.41327e-07
7.68856e-05
-2.39242e-07
-3.40246e-07
7.69166e-05
7.89916e-05
5.99931e-06
8.15914e-05
1.06451e-05
8.35186e-05
1.0284e-05
8.49631e-05
9.00392e-06
8.59824e-05
7.58438e-06
8.6725e-05
6.3225e-06
8.72934e-05
5.34765e-06
8.77354e-05
4.59867e-06
8.80822e-05
4.00678e-06
8.8355e-05
3.52771e-06
8.85678e-05
3.12957e-06
8.87317e-05
2.79089e-06
8.88545e-05
2.49832e-06
8.89422e-05
2.24235e-06
8.9001e-05
2.01523e-06
8.90365e-05
1.8113e-06
8.90537e-05
1.62631e-06
8.90569e-05
1.45685e-06
8.90498e-05
1.30013e-06
8.90357e-05
1.15385e-06
8.90174e-05
1.01602e-06
8.89974e-05
8.84929e-07
8.89779e-05
7.59085e-07
8.89607e-05
6.37186e-07
8.89477e-05
5.17999e-07
8.89404e-05
4.00471e-07
8.89404e-05
2.83715e-07
8.89494e-05
1.67047e-07
8.89687e-05
4.99149e-08
8.90003e-05
-6.71999e-08
8.90455e-05
-1.86519e-07
8.91126e-05
-3.06336e-07
-4.34308e-07
8.92067e-05
8.04632e-05
4.382e-06
8.25056e-05
8.60275e-06
8.3992e-05
8.79758e-06
8.50519e-05
7.94403e-06
8.57753e-05
6.86099e-06
8.62908e-05
5.80701e-06
8.66998e-05
4.93866e-06
8.70495e-05
4.24891e-06
8.73632e-05
3.69307e-06
8.76524e-05
3.2385e-06
8.79221e-05
2.85992e-06
8.81746e-05
2.53837e-06
8.84122e-05
2.26073e-06
8.86367e-05
2.01784e-06
8.88491e-05
1.80281e-06
8.90502e-05
1.61026e-06
8.92405e-05
1.43594e-06
8.94209e-05
1.27645e-06
8.95921e-05
1.12897e-06
8.97548e-05
9.91194e-07
8.99096e-05
8.61128e-07
9.00575e-05
7.37071e-07
9.01991e-05
6.1753e-07
9.03351e-05
5.01194e-07
9.04662e-05
3.8685e-07
9.05933e-05
2.73419e-07
9.07171e-05
1.59917e-07
9.08385e-05
4.55796e-08
9.09591e-05
-7.0665e-08
9.10816e-05
-1.89744e-07
9.12092e-05
-3.14047e-07
9.13475e-05
-4.44707e-07
-5.89543e-07
9.15028e-05
8.22343e-05
3.24628e-06
8.38948e-05
6.94219e-06
8.5183e-05
7.50944e-06
8.61173e-05
7.00971e-06
8.676e-05
6.21827e-06
8.72012e-05
5.36583e-06
8.75286e-05
4.61122e-06
8.77917e-05
3.98588e-06
8.80169e-05
3.46781e-06
8.82198e-05
3.03563e-06
8.84084e-05
2.67127e-06
8.85872e-05
2.35965e-06
8.87584e-05
2.08952e-06
8.89236e-05
1.85263e-06
8.90838e-05
1.64264e-06
8.92395e-05
1.45451e-06
8.93913e-05
1.2842e-06
8.95393e-05
1.12843e-06
8.96838e-05
9.84466e-07
8.9825e-05
8.50004e-07
8.9963e-05
7.23078e-07
9.00981e-05
6.01981e-07
9.02304e-05
4.8521e-07
9.03602e-05
3.71423e-07
9.04877e-05
2.5938e-07
9.06132e-05
1.47933e-07
9.07371e-05
3.59379e-08
9.08605e-05
-7.77554e-08
9.09843e-05
-1.94537e-07
9.11104e-05
-3.15778e-07
9.12404e-05
-4.44029e-07
9.13776e-05
-5.81962e-07
-7.35912e-07
9.1524e-05
8.42167e-05
2.4451e-06
8.55509e-05
5.60797e-06
8.66735e-05
6.38688e-06
8.75317e-05
6.15148e-06
8.81587e-05
5.59129e-06
8.86073e-05
4.91723e-06
8.89428e-05
4.27572e-06
8.92088e-05
3.71987e-06
8.94309e-05
3.24569e-06
8.96252e-05
2.84139e-06
8.9801e-05
2.49539e-06
8.99641e-05
2.19657e-06
9.01178e-05
1.93581e-06
9.02644e-05
1.70605e-06
9.04054e-05
1.50168e-06
9.05418e-05
1.31813e-06
9.06743e-05
1.15164e-06
9.08036e-05
9.99121e-07
9.09301e-05
8.57951e-07
9.10542e-05
7.25913e-07
9.11762e-05
6.01095e-07
9.12964e-05
4.81824e-07
9.1415e-05
3.66614e-07
9.15323e-05
2.54123e-07
9.16485e-05
1.43099e-07
9.17641e-05
3.23398e-08
9.18794e-05
-7.93521e-08
9.19949e-05
-1.93197e-07
9.2111e-05
-3.10702e-07
9.22288e-05
-4.33567e-07
9.23491e-05
-5.64336e-07
9.24733e-05
-7.06152e-07
-8.6357e-07
9.2601e-05
8.63721e-05
1.87172e-06
8.74416e-05
4.53846e-06
8.84136e-05
5.41495e-06
8.91918e-05
5.37324e-06
8.97895e-05
4.9936e-06
9.02372e-05
4.46948e-06
9.05821e-05
3.93081e-06
9.08606e-05
3.44137e-06
9.10952e-05
3.01111e-06
9.13004e-05
2.63622e-06
9.14854e-05
2.31042e-06
9.16558e-05
2.02613e-06
9.18154e-05
1.77626e-06
9.19665e-05
1.55494e-06
9.21108e-05
1.35731e-06
9.22497e-05
1.17927e-06
9.23839e-05
1.0174e-06
9.25142e-05
8.6881e-07
9.26412e-05
7.31029e-07
9.27651e-05
6.01943e-07
9.28865e-05
4.7971e-07
9.30056e-05
3.62707e-07
9.31228e-05
2.49482e-07
9.32382e-05
1.38713e-07
9.33521e-05
2.91582e-08
9.34648e-05
-8.03721e-08
9.35766e-05
-1.9108e-07
9.36876e-05
-3.04241e-07
9.37983e-05
-4.21355e-07
9.39088e-05
-5.44141e-07
9.40194e-05
-6.74871e-07
9.41297e-05
-8.16476e-07
-9.71818e-07
9.42379e-05
8.86676e-05
1.45412e-06
8.9525e-05
3.68102e-06
9.03635e-05
4.57653e-06
9.10661e-05
4.67055e-06
9.16302e-05
4.42957e-06
9.20707e-05
4.02894e-06
9.24196e-05
3.5819e-06
9.2706e-05
3.15501e-06
9.29493e-05
2.76783e-06
9.31626e-05
2.42286e-06
9.33549e-05
2.11814e-06
9.35318e-05
1.84921e-06
9.36971e-05
1.61096e-06
9.38534e-05
1.3987e-06
9.40023e-05
1.20836e-06
9.41452e-05
1.03635e-06
9.42831e-05
8.79575e-07
9.44165e-05
7.35382e-07
9.45461e-05
6.01461e-07
9.46722e-05
4.75802e-07
9.47953e-05
3.56644e-07
9.49156e-05
2.42423e-07
9.50333e-05
1.31733e-07
9.51487e-05
2.32878e-08
9.5262e-05
-8.41197e-08
9.53733e-05
-1.9165e-07
9.54827e-05
-3.00475e-07
9.55903e-05
-4.11822e-07
9.5696e-05
-5.27079e-07
9.57996e-05
-6.4781e-07
9.59007e-05
-7.75883e-07
9.59979e-05
-9.1368e-07
-1.06268e-06
9.60887e-05
9.10813e-05
1.14408e-06
9.17708e-05
2.9916e-06
9.2493e-05
3.85429e-06
9.31267e-05
4.03683e-06
9.36561e-05
3.90018e-06
9.40854e-05
3.59962e-06
9.44347e-05
3.23262e-06
9.47263e-05
2.86341e-06
9.49767e-05
2.51743e-06
9.51975e-05
2.20206e-06
9.53969e-05
1.91879e-06
9.55803e-05
1.66582e-06
9.57514e-05
1.43982e-06
9.59128e-05
1.23726e-06
9.60664e-05
1.05481e-06
9.62134e-05
8.89381e-07
9.63547e-05
7.38239e-07
9.64911e-05
5.98952e-07
9.66232e-05
4.69381e-07
9.67514e-05
3.47639e-07
9.6876e-05
2.32055e-07
9.69972e-05
1.21137e-07
9.71154e-05
1.35412e-08
9.72307e-05
-9.19647e-08
9.73431e-05
-1.96528e-07
9.74527e-05
-3.01251e-07
9.75595e-05
-4.07227e-07
9.76632e-05
-5.15577e-07
9.77636e-05
-6.27505e-07
9.78601e-05
-7.44314e-07
9.79517e-05
-8.67398e-07
9.80365e-05
-9.98485e-07
-1.138e-06
9.81118e-05
9.35997e-05
9.09046e-07
9.41568e-05
2.43444e-06
9.47783e-05
3.2328e-06
9.53487e-05
3.46649e-06
9.58432e-05
3.40568e-06
9.62587e-05
3.18414e-06
9.66061e-05
2.88516e-06
9.69017e-05
2.56782e-06
9.71587e-05
2.26046e-06
9.73868e-05
1.9739e-06
9.75934e-05
1.71218e-06
9.77836e-05
1.47563e-06
9.7961e-05
1.26248e-06
9.8128e-05
1.07023e-06
9.82865e-05
8.96265e-07
9.84379e-05
7.38002e-07
9.85831e-05
5.93043e-07
9.87229e-05
4.59201e-07
9.88577e-05
3.34513e-07
9.89881e-05
2.17225e-07
9.91144e-05
1.05766e-07
9.92368e-05
-1.27222e-09
9.93555e-05
-1.05158e-07
9.94706e-05
-2.0705e-07
9.95821e-05
-3.08019e-07
9.96899e-05
-4.0908e-07
9.97939e-05
-5.11213e-07
9.98937e-05
-6.15385e-07
9.99888e-05
-7.22577e-07
0.000100078
-8.33781e-07
0.000100161
-9.49929e-07
0.000100234
-1.07213e-06
-1.20007e-06
0.000100297
9.62141e-05
7.27056e-07
9.66676e-05
1.98096e-06
9.72026e-05
2.69773e-06
9.77155e-05
2.95365e-06
9.8176e-05
2.94514e-06
9.85759e-05
2.78429e-06
9.89193e-05
2.54177e-06
9.92169e-05
2.27015e-06
9.94791e-05
1.9983e-06
9.97138e-05
1.73916e-06
9.99274e-05
1.49863e-06
0.000100124
1.27862e-06
0.000100308
1.07868e-06
0.000100481
8.97231e-07
0.000100645
7.32293e-07
0.000100801
5.81761e-07
0.000100951
4.43561e-07
0.000101094
3.15745e-07
0.000101232
1.96528e-07
0.000101365
8.42878e-08
0.000101493
-2.24379e-08
0.000101617
-1.24962e-07
0.000101736
-2.24467e-07
0.000101851
-3.22024e-07
0.000101962
-4.18614e-07
0.000102068
-5.15139e-07
0.000102169
-6.12444e-07
0.000102265
-7.11319e-07
0.000102355
-8.12506e-07
0.000102438
-9.1669e-07
0.000102513
-1.02439e-06
0.000102577
-1.1362e-06
-1.25128e-06
0.000102628
9.89196e-05
5.83151e-07
9.9292e-05
1.60855e-06
9.97537e-05
2.23605e-06
0.000100215
2.49254e-06
0.000100643
2.5171e-06
0.000101026
2.40123e-06
0.000101363
2.20428e-06
0.000101662
1.97197e-06
0.000101928
1.73205e-06
0.000102169
1.49851e-06
0.000102389
1.27842e-06
0.000102592
1.07486e-06
0.000102783
8.88359e-07
0.000102962
7.18121e-07
0.000103131
5.62727e-07
0.000103293
4.20484e-07
0.000103447
2.89627e-07
0.000103594
1.68435e-07
0.000103735
5.52933e-08
0.000103871
-5.12825e-08
0.000104001
-1.5264e-07
0.000104126
-2.49992e-07
0.000104246
-3.44428e-07
0.000104361
-4.36923e-07
0.000104471
-5.28352e-07
0.000104575
-6.19496e-07
0.000104674
-7.11051e-07
0.000104766
-8.03629e-07
0.000104851
-8.97741e-07
0.000104928
-9.93791e-07
0.000104996
-1.09196e-06
0.000105052
-1.19244e-06
-1.29409e-06
0.000105095
0.000101714
4.67025e-07
0.000102023
1.29946e-06
0.000102423
1.83614e-06
0.000102838
2.07741e-06
0.000103236
2.11951e-06
0.000103602
2.03521e-06
0.000103932
1.87389e-06
0.000104229
1.67454e-06
0.000104499
1.46279e-06
0.000104744
1.25277e-06
0.000104971
1.05212e-06
0.000105181
8.64652e-07
0.000105378
6.91647e-07
0.000105563
5.3291e-07
0.000105738
3.87486e-07
0.000105905
2.54043e-07
0.000106063
1.31088e-07
0.000106214
1.71092e-08
0.000106359
-8.93435e-08
0.000106497
-1.89622e-07
0.00010663
-2.84961e-07
0.000106756
-3.76473e-07
0.000106877
-4.65147e-07
0.000106992
-5.51858e-07
0.000107101
-6.37369e-07
0.000107204
-7.22338e-07
0.0001073
-8.07313e-07
0.000107389
-8.92735e-07
0.00010747
-9.78912e-07
0.000107542
-1.06601e-06
0.000107604
-1.15397e-06
0.000107655
-1.24266e-06
-1.33081e-06
0.000107691
0.000104596
3.71473e-07
0.000104856
1.03983e-06
0.000105204
1.48771e-06
0.000105579
1.70268e-06
0.000105948
1.74988e-06
0.000106298
1.68592e-06
0.00010662
1.55133e-06
0.000106916
1.37886e-06
0.000107187
1.19142e-06
0.000107437
1.00259e-06
0.000107669
8.20133e-07
0.000107886
6.48229e-07
0.000108089
4.8863e-07
0.00010828
3.41587e-07
0.000108461
2.06507e-07
0.000108633
8.2347e-08
0.000108796
-3.21545e-08
0.000108952
-1.38325e-07
0.0001091
-2.37467e-07
0.000109241
-3.30808e-07
0.000109375
-4.19475e-07
0.000109503
-5.04478e-07
0.000109625
-5.86709e-07
0.00010974
-6.6694e-07
0.000109848
-7.45826e-07
0.00010995
-8.23902e-07
0.000110044
-9.01583e-07
0.000110131
-9.79156e-07
0.000110209
-1.05676e-06
0.000110277
-1.13438e-06
0.000110335
-1.21177e-06
0.000110381
-1.28861e-06
-1.3636e-06
0.000110413
0.000107566
2.91355e-07
0.000107787
8.18836e-07
0.000108093
1.18181e-06
0.000108433
1.36296e-06
0.000108777
1.40546e-06
0.000109111
1.35246e-06
0.000109425
1.23675e-06
0.000109719
1.08547e-06
0.000109991
9.18542e-07
0.000110246
7.485e-07
0.000110483
5.82849e-07
0.000110705
4.25832e-07
0.000110914
2.79438e-07
0.000111112
1.44197e-07
0.000111299
1.97701e-08
0.000111476
-9.46659e-08
0.000111644
-2.00189e-07
0.000111803
-2.97973e-07
0.000111955
-3.89193e-07
0.000112099
-4.74965e-07
0.000112236
-5.56316e-07
0.000112366
-6.34159e-07
0.000112488
-7.09291e-07
0.000112604
-7.82388e-07
0.000112712
-8.54002e-07
0.000112813
-9.24557e-07
0.000112905
-9.94349e-07
0.00011299
-1.06354e-06
0.000113065
-1.13213e-06
0.000113131
-1.19999e-06
0.000113186
-1.26673e-06
0.000113229
-1.33195e-06
-1.39437e-06
0.00011326
0.000110625
2.22928e-07
0.000110816
6.27986e-07
0.000111087
9.10687e-07
0.000111397
1.05309e-06
0.000111719
1.08327e-06
0.000112038
1.03348e-06
0.000112345
9.29849e-07
0.000112636
7.94544e-07
0.00011291
6.44472e-07
0.000113168
4.90818e-07
0.00011341
3.40512e-07
0.000113638
1.97609e-07
0.000113854
6.41304e-08
0.000114057
-5.9269e-08
0.00011425
-1.72777e-07
0.000114432
-2.77075e-07
0.000114605
-3.73107e-07
0.000114769
-4.61933e-07
0.000114925
-5.44624e-07
0.000115072
-6.222e-07
0.000115211
-6.95597e-07
0.000115343
-7.65646e-07
0.000115466
-8.33055e-07
0.000115582
-8.98411e-07
0.00011569
-9.62174e-07
0.000115791
-1.02467e-06
0.000115882
-1.08611e-06
0.000115965
-1.14654e-06
0.000116039
-1.20587e-06
0.000116103
-1.26388e-06
0.000116156
-1.32014e-06
0.000116199
-1.37418e-06
-1.42483e-06
0.000116229
0.000113775
1.63401e-07
0.000113942
4.60569e-07
0.000114185
6.67649e-07
0.00011447
7.68218e-07
0.000114773
7.80178e-07
0.00011508
7.27216e-07
0.00011538
6.2983e-07
0.000115668
5.05814e-07
0.000115944
3.69188e-07
0.000116205
2.29591e-07
0.000116452
9.31598e-08
0.000116686
-3.64436e-08
0.000116908
-1.57344e-07
0.000117117
-2.689e-07
0.000117316
-3.71254e-07
0.000117504
-4.6502e-07
0.000117682
-5.51066e-07
0.00011785
-6.30373e-07
0.00011801
-7.03934e-07
0.00011816
-7.72698e-07
0.000118302
-8.37525e-07
0.000118436
-8.9917e-07
0.000118561
-9.58268e-07
0.000118678
-1.01533e-06
0.000118786
-1.07073e-06
0.000118886
-1.12473e-06
0.000118978
-1.17745e-06
0.00011906
-1.22887e-06
0.000119133
-1.27884e-06
0.000119196
-1.32709e-06
0.000119249
-1.37317e-06
0.000119292
-1.41661e-06
-1.45633e-06
0.000119323
0.000117017
1.10631e-07
0.000117166
3.11207e-07
0.000117387
4.46904e-07
0.000117652
5.0375e-07
0.000117939
4.92944e-07
0.000118235
4.316e-07
0.000118529
3.35488e-07
0.000118816
2.18628e-07
0.000119093
9.23361e-08
0.000119358
-3.5386e-08
0.00011961
-1.5935e-07
0.00011985
-2.7645e-07
0.000120078
-3.85109e-07
0.000120294
-4.84825e-07
0.000120499
-5.75795e-07
0.000120692
-6.58638e-07
0.000120875
-7.342e-07
0.000121048
-8.03424e-07
0.000121212
-8.67259e-07
0.000121366
-9.26599e-07
0.00012151
-9.82251e-07
0.000121646
-1.03491e-06
0.000121773
-1.08515e-06
0.000121891
-1.13341e-06
0.000122
-1.18002e-06
0.000122101
-1.22516e-06
0.000122192
-1.2689e-06
0.000122275
-1.31118e-06
0.000122348
-1.35181e-06
0.000122411
-1.3905e-06
0.000122465
-1.42682e-06
0.000122508
-1.46033e-06
-1.49009e-06
0.000122542
0.000120354
6.29288e-08
0.000120489
1.75509e-07
0.000120693
2.43386e-07
0.000120941
2.55327e-07
0.000121216
2.18223e-07
0.000121503
1.44225e-07
0.000121794
4.51901e-08
0.000122081
-6.81129e-08
0.00012236
-1.86856e-07
0.000122629
-3.0469e-07
0.000122887
-4.17488e-07
0.000123134
-5.22826e-07
0.000123368
-6.19551e-07
0.000123591
-7.07413e-07
0.000123801
-7.86752e-07
0.000124001
-8.58264e-07
0.00012419
-9.2283e-07
0.000124368
-9.81397e-07
0.000124535
-1.0349e-06
0.000124693
-1.08421e-06
0.000124841
-1.13008e-06
0.000124979
-1.17319e-06
0.000125108
-1.21404e-06
0.000125228
-1.25305e-06
0.000125338
-1.29047e-06
0.000125439
-1.32646e-06
0.000125532
-1.36105e-06
0.000125614
-1.39413e-06
0.000125688
-1.42553e-06
0.000125753
-1.45494e-06
0.000125808
-1.48196e-06
0.000125854
-1.50621e-06
-1.52684e-06
0.00012589
0.000123787
1.89121e-08
0.000123913
4.97926e-08
0.000124104
5.25825e-08
0.00012434
1.87733e-08
0.000124606
-4.74373e-08
0.000124888
-1.376e-07
0.000125176
-2.43068e-07
0.000125464
-3.5588e-07
0.000125746
-4.69476e-07
0.000126021
-5.79147e-07
0.000126285
-6.81897e-07
0.000126539
-7.76084e-07
0.00012678
-8.61088e-07
0.00012701
-9.37008e-07
0.000127227
-1.00441e-06
0.000127433
-1.06414e-06
0.000127628
-1.11717e-06
0.000127811
-1.16448e-06
0.000127983
-1.20703e-06
0.000128144
-1.24568e-06
0.000128295
-1.2812e-06
0.000128436
-1.3142e-06
0.000128567
-1.34518e-06
0.000128689
-1.3745e-06
0.000128801
-1.40241e-06
0.000128903
-1.42901e-06
0.000128997
-1.45432e-06
0.000129081
-1.47823e-06
0.000129156
-1.50055e-06
0.000129222
-1.52101e-06
0.000129279
-1.53924e-06
0.000129328
-1.55493e-06
-1.56735e-06
0.000129368
0.00012732
-2.2602e-08
0.000127439
-6.91404e-08
0.000127621
-1.29637e-07
0.00012785
-2.10006e-07
0.00012811
-3.07674e-07
0.00012839
-4.16938e-07
0.000128678
-5.31789e-07
0.000128969
-6.46702e-07
0.000129257
-7.57193e-07
0.000129538
-8.60154e-07
0.00012981
-9.53769e-07
0.000130071
-1.03726e-06
0.00013032
-1.11063e-06
0.000130558
-1.17442e-06
0.000130783
-1.2295e-06
0.000130996
-1.27692e-06
0.000131196
-1.31779e-06
0.000131385
-1.35319e-06
0.000131562
-1.38412e-06
0.000131728
-1.41147e-06
0.000131883
-1.43601e-06
0.000132027
-1.45834e-06
0.000132161
-1.47895e-06
0.000132284
-1.49818e-06
0.000132398
-1.51625e-06
0.000132502
-1.53326e-06
0.000132597
-1.5492e-06
0.000132683
-1.56397e-06
0.00013276
-1.57739e-06
0.000132828
-1.58921e-06
0.000132888
-1.59911e-06
0.00013294
-1.60682e-06
-1.61169e-06
0.000132984
0.000130955
-6.26615e-08
0.00013107
-1.84187e-07
0.000131248
-3.07175e-07
0.000131473
-4.35094e-07
0.000131731
-5.66292e-07
0.000132011
-6.97126e-07
0.000132303
-8.23779e-07
0.0001326
-9.42876e-07
0.000132894
-1.05186e-06
0.000133183
-1.1492e-06
0.000133464
-1.2343e-06
0.000133734
-1.30731e-06
0.000133992
-1.36895e-06
0.000134238
-1.42026e-06
0.000134471
-1.4625e-06
0.000134691
-1.49699e-06
0.000134898
-1.52501e-06
0.000135093
-1.54779e-06
0.000135275
-1.56639e-06
0.000135445
-1.58177e-06
0.000135604
-1.59469e-06
0.000135752
-1.60579e-06
0.000135888
-1.61555e-06
0.000136014
-1.6243e-06
0.00013613
-1.63224e-06
0.000136237
-1.63946e-06
0.000136333
-1.64597e-06
0.000136421
-1.65166e-06
0.0001365
-1.65636e-06
0.000136571
-1.65987e-06
0.000136633
-1.6619e-06
0.000136689
-1.66223e-06
-1.66033e-06
0.000136737
0.000134695
-1.02264e-07
0.000134809
-2.98137e-07
0.000134985
-4.8394e-07
0.000135211
-6.60808e-07
0.000135472
-8.27578e-07
0.000135758
-9.82191e-07
0.000136056
-1.1227e-06
0.000136361
-1.24767e-06
0.000136666
-1.35637e-06
0.000136965
-1.44882e-06
0.000137257
-1.5257e-06
0.000137538
-1.58816e-06
0.000137806
-1.6377e-06
0.000138062
-1.67596e-06
0.000138304
-1.70464e-06
0.000138533
-1.72538e-06
0.000138747
-1.73971e-06
0.000138949
-1.74901e-06
0.000139137
-1.75447e-06
0.000139312
-1.7571e-06
0.000139475
-1.75771e-06
0.000139626
-1.75697e-06
0.000139766
-1.75534e-06
0.000139895
-1.75317e-06
0.000140013
-1.75066e-06
0.000140122
-1.7479e-06
0.000140221
-1.74488e-06
0.00014031
-1.74151e-06
0.000140392
-1.73764e-06
0.000140465
-1.73307e-06
0.000140531
-1.72756e-06
0.000140589
-1.72091e-06
-1.71263e-06
0.000140642
0.000138542
-1.42406e-07
0.000138658
-4.13786e-07
0.000138838
-6.63907e-07
0.000139069
-8.91611e-07
0.000139337
-1.09598e-06
0.000139631
-1.27625e-06
0.000139941
-1.43219e-06
0.000140257
-1.56419e-06
0.000140574
-1.67331e-06
0.000140887
-1.76116e-06
0.000141191
-1.82972e-06
0.000141484
-1.88124e-06
0.000141764
-1.91805e-06
0.000142031
-1.94247e-06
0.000142283
-1.95669e-06
0.00014252
-1.96274e-06
0.000142743
-1.96242e-06
0.000142951
-1.9573e-06
0.000143145
-1.94871e-06
0.000143326
-1.93776e-06
0.000143493
-1.92531e-06
0.000143649
-1.91206e-06
0.000143792
-1.8985e-06
0.000143923
-1.88496e-06
0.000144044
-1.87166e-06
0.000144155
-1.85869e-06
0.000144256
-1.84603e-06
0.000144348
-1.83361e-06
0.000144432
-1.82129e-06
0.000144508
-1.80888e-06
0.000144577
-1.79617e-06
0.000144639
-1.78302e-06
-1.76897e-06
0.000144695
0.000142501
-1.84195e-07
0.000142622
-5.34271e-07
0.000142809
-8.517e-07
0.000143051
-1.13298e-06
0.000143332
-1.37734e-06
0.000143641
-1.58519e-06
0.000143967
-1.75789e-06
0.0001443
-1.89767e-06
0.000144634
-2.00742e-06
0.000144964
-2.09039e-06
0.000145284
-2.14998e-06
0.000145592
-2.18961e-06
0.000145887
-2.21256e-06
0.000146166
-2.22189e-06
0.00014643
-2.22035e-06
0.000146677
-2.21041e-06
0.000146909
-2.19418e-06
0.000147125
-2.17346e-06
0.000147326
-2.14973e-06
0.000147513
-2.12421e-06
0.000147685
-2.09782e-06
0.000147845
-2.0713e-06
0.000147991
-2.04516e-06
0.000148126
-2.01974e-06
0.00014825
-1.99525e-06
0.000148363
-1.97179e-06
0.000148466
-1.94933e-06
0.00014856
-1.92779e-06
0.000148646
-1.90703e-06
0.000148724
-1.88688e-06
0.000148795
-1.86712e-06
0.000148859
-1.84758e-06
-1.82784e-06
0.000148918
0.000146574
-2.28804e-07
0.000146703
-6.62908e-07
0.000146903
-1.05203e-06
0.00014716
-1.39021e-06
0.00014746
-1.67692e-06
0.000147788
-1.91389e-06
0.000148135
-2.10418e-06
0.000148489
-2.25195e-06
0.000148844
-2.36204e-06
0.000149193
-2.43942e-06
0.000149532
-2.48902e-06
0.000149858
-2.5155e-06
0.000150168
-2.52317e-06
0.000150462
-2.5159e-06
0.000150739
-2.49708e-06
0.000150998
-2.46963e-06
0.00015124
-2.43605e-06
0.000151465
-2.39836e-06
0.000151673
-2.35824e-06
0.000151866
-2.31701e-06
0.000152044
-2.27568e-06
0.000152208
-2.23502e-06
0.000152358
-2.19557e-06
0.000152496
-2.15767e-06
0.000152622
-2.12153e-06
0.000152738
-2.08722e-06
0.000152843
-2.05473e-06
0.000152939
-2.02396e-06
0.000153027
-1.99477e-06
0.000153107
-1.96698e-06
0.00015318
-1.94037e-06
0.000153248
-1.91481e-06
-1.88988e-06
0.00015331
0.000150765
-2.77956e-07
0.000150906
-8.04543e-07
0.000151127
-1.27219e-06
0.000151409
-1.67219e-06
0.000151736
-2.00446e-06
0.000152094
-2.27221e-06
0.000152471
-2.48041e-06
0.000152854
-2.63549e-06
0.000153237
-2.74449e-06
0.000153612
-2.81439e-06
0.000153974
-2.85182e-06
0.000154322
-2.86285e-06
0.000154652
-2.85292e-06
0.000154962
-2.82678e-06
0.000155254
-2.78852e-06
0.000155526
-2.74157e-06
0.000155779
-2.68878e-06
0.000156013
-2.63246e-06
0.000156229
-2.57445e-06
0.000156428
-2.5162e-06
0.000156611
-2.45878e-06
0.000156779
-2.403e-06
0.000156933
-2.3494e-06
0.000157074
-2.29834e-06
0.000157202
-2.25e-06
0.000157319
-2.20443e-06
0.000157426
-2.1616e-06
0.000157524
-2.12139e-06
0.000157612
-2.08362e-06
0.000157694
-2.04809e-06
0.000157768
-2.01456e-06
0.000157836
-1.98284e-06
-1.95245e-06
0.000157898
0.000155077
-3.33061e-07
0.000155236
-9.63319e-07
0.000155481
-1.51761e-06
0.000155793
-1.98456e-06
0.000156154
-2.36538e-06
0.000156547
-2.66535e-06
0.000156959
-2.8917e-06
0.000157377
-3.05335e-06
0.000157792
-3.15981e-06
0.000158198
-3.22023e-06
0.000158589
-3.2431e-06
0.000158962
-3.23606e-06
0.000159315
-3.20581e-06
0.000159646
-3.15811e-06
0.000159956
-3.0978e-06
0.000160243
-3.02887e-06
0.000160509
-2.95459e-06
0.000160754
-2.87755e-06
0.000160979
-2.7998e-06
0.000161186
-2.72288e-06
0.000161375
-2.64795e-06
0.000161548
-2.57583e-06
0.000161706
-2.50707e-06
0.000161849
-2.442e-06
0.00016198
-2.38078e-06
0.000162099
-2.32342e-06
0.000162207
-2.26986e-06
0.000162306
-2.21994e-06
0.000162396
-2.17345e-06
0.000162478
-2.13017e-06
0.000162553
-2.08982e-06
0.000162622
-2.05222e-06
-2.01687e-06
0.000162687
0.000159516
-3.98359e-07
0.000159703
-1.15022e-06
0.000159989
-1.8043e-06
0.000160351
-2.34591e-06
0.000160764
-2.7786e-06
0.000161209
-3.11075e-06
0.000161671
-3.35286e-06
0.000162135
-3.5174e-06
0.000162592
-3.61702e-06
0.000163035
-3.66349e-06
0.000163459
-3.6674e-06
0.000163861
-3.63813e-06
0.000164239
-3.5837e-06
0.000164592
-3.51088e-06
0.00016492
-3.42529e-06
0.000165222
-3.33149e-06
0.000165501
-3.23314e-06
0.000165756
-3.13311e-06
0.00016599
-3.03361e-06
0.000166204
-2.93628e-06
0.000166398
-2.84233e-06
0.000166575
-2.75258e-06
0.000166735
-2.66755e-06
0.000166881
-2.58755e-06
0.000167013
-2.51269e-06
0.000167132
-2.44292e-06
0.00016724
-2.37813e-06
0.000167339
-2.3181e-06
0.000167428
-2.26257e-06
0.000167509
-2.21125e-06
0.000167583
-2.16379e-06
0.00016765
-2.11991e-06
-2.07902e-06
0.000167713
0.000164081
-4.73623e-07
0.000164299
-1.36735e-06
0.000164629
-2.13432e-06
0.000165041
-2.7587e-06
0.000165511
-3.24853e-06
0.000166016
-3.61549e-06
0.000166537
-3.87348e-06
0.000167058
-4.03893e-06
0.000167569
-4.12823e-06
0.000168062
-4.15622e-06
0.000168531
-4.13611e-06
0.000168972
-4.07933e-06
0.000169384
-3.99554e-06
0.000169766
-3.89271e-06
0.000170118
-3.77733e-06
0.000170441
-3.65458e-06
0.000170736
-3.52855e-06
0.000171005
-3.40235e-06
0.00017125
-3.27836e-06
0.000171472
-3.15829e-06
0.000171673
-3.04333e-06
0.000171855
-2.93429e-06
0.000172019
-2.83162e-06
0.000172167
-2.73556e-06
0.0001723
-2.64612e-06
0.000172421
-2.56321e-06
0.000172529
-2.48661e-06
0.000172627
-2.41605e-06
0.000172716
-2.3512e-06
0.000172796
-2.29172e-06
0.00017287
-2.23721e-06
0.000172937
-2.18737e-06
-2.14155e-06
0.000173
0.000168794
-5.76153e-07
0.000169077
-1.65051e-06
0.000169495
-2.55169e-06
0.000170001
-3.26483e-06
0.000170562
-3.80905e-06
0.00017115
-4.20353e-06
0.000171745
-4.46847e-06
0.000172332
-4.62605e-06
0.0001729
-4.69691e-06
0.000173443
-4.69908e-06
0.000173955
-4.64832e-06
0.000174434
-4.55809e-06
0.000174878
-4.43954e-06
0.000175287
-4.30181e-06
0.000175662
-4.1522e-06
0.000176004
-3.99652e-06
0.000176315
-3.83921e-06
0.000176596
-3.68366e-06
0.00017685
-3.53235e-06
0.000177079
-3.38705e-06
0.000177284
-3.24892e-06
0.000177469
-3.11871e-06
0.000177634
-2.9968e-06
0.000177782
-2.8833e-06
0.000177914
-2.77813e-06
0.000178032
-2.68108e-06
0.000178137
-2.59184e-06
0.000178231
-2.51004e-06
0.000178315
-2.43526e-06
0.00017839
-2.36705e-06
0.000178458
-2.30492e-06
0.000178519
-2.24845e-06
-2.19684e-06
0.000178574
0.000173622
-6.87078e-07
0.000173951
-1.97972e-06
0.00017444
-3.04042e-06
0.000175038
-3.86306e-06
0.000175706
-4.47637e-06
0.000176406
-4.9038e-06
0.000177111
-5.17317e-06
0.0001778
-5.31525e-06
0.00017846
-5.3571e-06
0.000179083
-5.32154e-06
0.000179662
-5.22807e-06
0.000180197
-5.09286e-06
0.000180687
-4.92901e-06
0.000181132
-4.74699e-06
0.000181535
-4.55501e-06
0.000181897
-4.35939e-06
0.000182223
-4.16491e-06
0.000182515
-3.97507e-06
0.000182775
-3.79237e-06
0.000183006
-3.61847e-06
0.000183211
-3.45445e-06
0.000183394
-3.30085e-06
0.000183555
-3.15789e-06
0.000183697
-3.02551e-06
0.000183822
-2.90345e-06
0.000183933
-2.79134e-06
0.000184029
-2.68873e-06
0.000184114
-2.59513e-06
0.000184189
-2.51004e-06
0.000184255
-2.43295e-06
0.000184314
-2.36334e-06
0.000184366
-2.30078e-06
-2.24432e-06
0.000184413
0.000178682
-9.00135e-07
0.000179188
-2.48615e-06
0.000179858
-3.71044e-06
0.000180612
-4.61737e-06
0.000181409
-5.27342e-06
0.000182217
-5.71133e-06
0.000183011
-5.96738e-06
0.000183776
-6.07986e-06
0.000184499
-6.08066e-06
0.000185174
-5.99663e-06
0.000185797
-5.85074e-06
0.000186366
-5.66185e-06
0.000186882
-5.44501e-06
0.000187347
-5.21204e-06
0.000187764
-4.97203e-06
0.000188137
-4.73184e-06
0.000188468
-4.49646e-06
0.000188763
-4.26945e-06
0.000189023
-4.05319e-06
0.000189254
-3.84918e-06
0.000189458
-3.65823e-06
0.000189638
-3.48067e-06
0.000189796
-3.31641e-06
0.000189936
-3.16514e-06
0.000190059
-3.02636e-06
0.000190167
-2.89949e-06
0.000190262
-2.78387e-06
0.000190346
-2.67888e-06
0.00019042
-2.58391e-06
0.000190485
-2.49835e-06
0.000190543
-2.4217e-06
0.000190596
-2.35345e-06
-2.2926e-06
0.000190644
0.000183745
-1.07784e-06
0.000184335
-3.07586e-06
0.000185165
-4.54039e-06
0.000186132
-5.58437e-06
0.000187154
-6.2956e-06
0.000188168
-6.72549e-06
0.000189141
-6.93991e-06
0.000190057
-6.99606e-06
0.000190911
-6.93469e-06
0.000191702
-6.78787e-06
0.000192433
-6.58145e-06
0.000193106
-6.33548e-06
0.000193727
-6.06537e-06
0.000194298
-5.78292e-06
0.000194823
-5.49706e-06
0.000195305
-5.21441e-06
0.000195749
-4.93978e-06
0.000196156
-4.67656e-06
0.00019653
-4.42699e-06
0.000196873
-4.19242e-06
0.000197188
-3.97354e-06
0.000197478
-3.7705e-06
0.000197745
-3.58308e-06
0.00019799
-3.4108e-06
0.000198217
-3.25299e-06
0.000198426
-3.10892e-06
0.00019862
-2.97779e-06
0.0001988
-2.85887e-06
0.000198968
-2.75155e-06
0.000199125
-2.65525e-06
0.000199273
-2.56982e-06
0.000199414
-2.49482e-06
-2.43043e-06
0.000199552
0.000189417
-1.68284e-06
0.000190403
-4.06209e-06
0.000191482
-5.61946e-06
0.000192638
-6.73981e-06
0.000193876
-7.53404e-06
0.000195176