/*--------------------------------*- C++ -*----------------------------------*\
| =========                 |                                                 |
| \\      /  F ield         | OpenFOAM: The Open Source CFD Toolbox           |
|  \\    /   O peration     | Version:  2.1.1                                 |
|   \\  /    A nd           | Web:      www.OpenFOAM.org                      |
|    \\/     M anipulation  |                                                 |
\*---------------------------------------------------------------------------*/
FoamFile
{
    version     2.0;
    format      ascii;
    class       volVectorField;
    location    "0.135";
    object      U;
}
// * * * * * * * * * * * * * * * * * * * * * * * * * * * * * * * * * * * * * //

dimensions      [0 1 -1 0 0 0 0];

internalField   nonuniform List<vector> 
6820
(
(6.37605 0.503727 0)
(4.42453 0.286842 0)
(2.97401 0.0201763 0)
(2.23503 -0.0619518 0)
(1.96966 -0.0600366 0)
(1.84307 -0.0346199 0)
(1.76837 -0.0152106 0)
(1.71645 -0.00484011 0)
(1.67328 -0.000147063 0)
(1.63583 0.00134885 0)
(1.60353 0.00131522 0)
(1.57591 0.000687993 0)
(1.5525 -0.00010004 0)
(1.53277 -0.000859834 0)
(1.51623 -0.00151815 0)
(1.50246 -0.00205913 0)
(1.49111 -0.00249301 0)
(1.48191 -0.00283918 0)
(1.47466 -0.00311784 0)
(1.46921 -0.00334667 0)
(1.46545 -0.00353702 0)
(1.46329 -0.00370004 0)
(1.46277 -0.0038062 0)
(1.46381 -0.00406906 0)
(1.46639 -0.00430979 0)
(1.4706 -0.00455162 0)
(1.47639 -0.00479776 0)
(1.48398 -0.00500649 0)
(1.49278 -0.00530225 0)
(1.50445 -0.00506032 0)
(1.51302 -0.0057238 0)
(1.53415 0.00232718 0)
(1.50642 -0.0226868 0)
(8.72022 0.959567 0)
(8.76494 1.0118 0)
(7.96934 0.678855 0)
(7.0562 0.393736 0)
(6.35547 0.202285 0)
(5.84932 0.103187 0)
(5.48756 0.0577085 0)
(5.22631 0.0372066 0)
(5.03063 0.027998 0)
(4.87833 0.0234441 0)
(4.75603 0.020692 0)
(4.65536 0.0186862 0)
(4.57098 0.0170295 0)
(4.49933 0.015553 0)
(4.43792 0.0141717 0)
(4.38499 0.0128399 0)
(4.33921 0.0115314 0)
(4.29959 0.0102291 0)
(4.26536 0.00891998 0)
(4.23594 0.00759219 0)
(4.21086 0.0062363 0)
(4.18976 0.00483446 0)
(4.17235 0.00339736 0)
(4.15841 0.00184038 0)
(4.14783 0.000206938 0)
(4.14049 -0.0015 0)
(4.13631 -0.00335639 0)
(4.13529 -0.00525349 0)
(4.13727 -0.00733943 0)
(4.14258 -0.00885389 0)
(4.15044 -0.0113625 0)
(4.16421 -0.00895354 0)
(4.18139 -0.0121388 0)
(8.58611 0.583385 0)
(9.33134 0.762089 0)
(9.61467 0.659803 0)
(9.50494 0.526181 0)
(9.23904 0.396674 0)
(8.92683 0.298874 0)
(8.62112 0.230113 0)
(8.34504 0.180776 0)
(8.10284 0.144876 0)
(7.89227 0.118231 0)
(7.70963 0.0979238 0)
(7.55109 0.0820879 0)
(7.41316 0.0695047 0)
(7.29285 0.0593422 0)
(7.18765 0.0509983 0)
(7.09545 0.0440215 0)
(7.01452 0.0380715 0)
(6.94342 0.0328909 0)
(6.88093 0.0282824 0)
(6.82608 0.024092 0)
(6.77806 0.0201963 0)
(6.73619 0.0164933 0)
(6.69993 0.0128919 0)
(6.66884 0.00935985 0)
(6.64257 0.00581119 0)
(6.62083 0.0021982 0)
(6.60338 -0.00155778 0)
(6.59009 -0.00542929 0)
(6.58084 -0.00948514 0)
(6.57577 -0.0133825 0)
(6.57457 -0.0177238 0)
(6.57781 -0.0203886 0)
(6.58518 -0.0260905 0)
(8.44093 0.379597 0)
(8.94594 0.58377 0)
(9.35848 0.554169 0)
(9.58637 0.486606 0)
(9.70079 0.406677 0)
(9.73716 0.337596 0)
(9.72202 0.28521 0)
(9.67762 0.245176 0)
(9.61679 0.213839 0)
(9.54679 0.188597 0)
(9.4723 0.16759 0)
(9.39644 0.149678 0)
(9.32121 0.134132 0)
(9.24813 0.120447 0)
(9.17816 0.108283 0)
(9.11188 0.097384 0)
(9.04963 0.0875382 0)
(8.99155 0.0785632 0)
(8.93772 0.0703008 0)
(8.88811 0.0626121 0)
(8.84267 0.0553743 0)
(8.8013 0.0484755 0)
(8.76392 0.04182 0)
(8.73043 0.0353159 0)
(8.70073 0.0288676 0)
(8.67476 0.0223995 0)
(8.65244 0.0158631 0)
(8.63377 0.00921148 0)
(8.61865 0.00235104 0)
(8.60717 -0.00456939 0)
(8.59945 -0.0118118 0)
(8.59588 -0.0183479 0)
(8.59784 -0.025202 0)
(8.40215 0.279948 0)
(8.71903 0.480361 0)
(8.99902 0.46144 0)
(9.17465 0.403853 0)
(9.29936 0.341808 0)
(9.39312 0.289413 0)
(9.46266 0.250494 0)
(9.51612 0.221045 0)
(9.55833 0.19774 0)
(9.59162 0.178668 0)
(9.6177 0.162554 0)
(9.63792 0.148592 0)
(9.65337 0.136282 0)
(9.66466 0.12527 0)
(9.67248 0.115282 0)
(9.67748 0.106106 0)
(9.68022 0.0975731 0)
(9.68123 0.0895462 0)
(9.68093 0.0819089 0)
(9.6797 0.0745602 0)
(9.67787 0.0674095 0)
(9.67573 0.0603739 0)
(9.67353 0.0533752 0)
(9.67148 0.0463421 0)
(9.66979 0.0392011 0)
(9.66864 0.0318853 0)
(9.6682 0.0243322 0)
(9.66865 0.0164906 0)
(9.67015 0.0083052 0)
(9.67289 -0.00017311 0)
(9.67696 -0.0090937 0)
(9.68293 -0.0181719 0)
(9.69146 -0.0281235 0)
(8.37748 0.20204 0)
(8.60143 0.383184 0)
(8.81602 0.390082 0)
(8.94724 0.355587 0)
(9.03335 0.311177 0)
(9.09645 0.26767 0)
(9.14377 0.231845 0)
(9.1826 0.20337 0)
(9.21718 0.180448 0)
(9.24889 0.161732 0)
(9.27833 0.146117 0)
(9.30587 0.132765 0)
(9.33171 0.121122 0)
(9.35611 0.110816 0)
(9.37918 0.101538 0)
(9.40102 0.0930521 0)
(9.42169 0.0851754 0)
(9.44127 0.0777617 0)
(9.45983 0.0706891 0)
(9.47745 0.0638522 0)
(9.49422 0.0571572 0)
(9.5102 0.050518 0)
(9.52548 0.043854 0)
(9.54013 0.0370894 0)
(9.55423 0.0301467 0)
(9.56786 0.0229519 0)
(9.5811 0.0154342 0)
(9.59405 0.00753485 0)
(9.60678 -0.000818133 0)
(9.61956 -0.00964334 0)
(9.63267 -0.019127 0)
(9.64668 -0.0293146 0)
(9.66179 -0.0408432 0)
(8.36129 0.148648 0)
(8.5228 0.310919 0)
(8.69769 0.336325 0)
(8.81269 0.316626 0)
(8.88761 0.283304 0)
(8.94109 0.24708 0)
(8.9793 0.215445 0)
(9.00844 0.189594 0)
(9.03292 0.168356 0)
(9.05467 0.150683 0)
(9.07463 0.135721 0)
(9.09341 0.122801 0)
(9.11135 0.111442 0)
(9.1286 0.1013 0)
(9.1453 0.0921187 0)
(9.16152 0.0836987 0)
(9.17731 0.0758783 0)
(9.19271 0.0685199 0)
(9.20773 0.0615045 0)
(9.22241 0.0547267 0)
(9.23675 0.0480912 0)
(9.25078 0.0415105 0)
(9.26452 0.0349018 0)
(9.27798 0.0281861 0)
(9.29119 0.0212843 0)
(9.30418 0.0141186 0)
(9.31698 0.00660814 0)
(9.32967 -0.00132673 0)
(9.34233 -0.00979383 0)
(9.35514 -0.0189166 0)
(9.36823 -0.0289295 0)
(9.38194 -0.0400416 0)
(9.39631 -0.0528882 0)
(8.35117 0.111189 0)
(8.46748 0.251034 0)
(8.6084 0.285619 0)
(8.71036 0.277223 0)
(8.78049 0.254747 0)
(8.83251 0.227219 0)
(8.87078 0.201068 0)
(8.89982 0.178396 0)
(8.92359 0.15893 0)
(8.94411 0.142186 0)
(8.96242 0.127701 0)
(8.97924 0.115025 0)
(8.99499 0.103787 0)
(9.00995 0.0937085 0)
(9.02428 0.0845625 0)
(9.03811 0.0761597 0)
(9.05153 0.0683398 0)
(9.0646 0.0609669 0)
(9.07737 0.0539231 0)
(9.08988 0.0471043 0)
(9.10217 0.0404161 0)
(9.11425 0.0337709 0)
(9.12617 0.0270856 0)
(9.13795 0.0202792 0)
(9.14961 0.0132699 0)
(9.16119 0.00597377 0)
(9.17271 -0.00170112 0)
(9.18423 -0.00985691 0)
(9.19578 -0.0186256 0)
(9.20745 -0.0281552 0)
(9.21931 -0.0386745 0)
(9.23152 -0.05047 0)
(9.24403 -0.064043 0)
(8.34487 0.0844867 0)
(8.42945 0.203072 0)
(8.54239 0.242699 0)
(8.63134 0.243154 0)
(8.69562 0.22881 0)
(8.74506 0.207692 0)
(8.78292 0.18565 0)
(8.81241 0.16552 0)
(8.83679 0.147729 0)
(8.85788 0.132124 0)
(8.87666 0.118439 0)
(8.89381 0.106345 0)
(8.90976 0.0955415 0)
(8.9248 0.0857831 0)
(8.93912 0.0768688 0)
(8.95285 0.0686285 0)
(8.96609 0.0609186 0)
(8.97892 0.0536154 0)
(8.9914 0.0466099 0)
(9.00358 0.0398037 0)
(9.01549 0.033106 0)
(9.02716 0.0264314 0)
(9.03863 0.0196978 0)
(9.04992 0.0128239 0)
(9.06105 0.00572729 0)
(9.07205 -0.00167885 0)
(9.08295 -0.00948892 0)
(9.09376 -0.0178082 0)
(9.10452 -0.0267682 0)
(9.11526 -0.0365274 0)
(9.12599 -0.0473129 0)
(9.13674 -0.0594261 0)
(9.14737 -0.0732344 0)
(8.34094 0.0652148 0)
(8.40314 0.164659 0)
(8.49347 0.205467 0)
(8.57037 0.211744 0)
(8.62874 0.203376 0)
(8.6752 0.187676 0)
(8.71205 0.169698 0)
(8.74145 0.15237 0)
(8.766 0.136492 0)
(8.78731 0.122162 0)
(8.8063 0.109311 0)
(8.82362 0.097765 0)
(8.83971 0.0873251 0)
(8.85484 0.0778099 0)
(8.86921 0.06906 0)
(8.88297 0.0609325 0)
(8.89621 0.0533 0)
(8.909 0.0460483 0)
(8.92141 0.0390739 0)
(8.93347 0.0322819 0)
(8.94523 0.025584 0)
(8.95672 0.0188961 0)
(8.96795 0.0121373 0)
(8.97896 0.00522687 0)
(8.98975 -0.00191727 0)
(9.00035 -0.00938112 0)
(9.01077 -0.0172586 0)
(9.02102 -0.0256564 0)
(9.03109 -0.0347046 0)
(9.04098 -0.0445599 0)
(9.05066 -0.0554227 0)
(9.06005 -0.0675551 0)
(9.06899 -0.0811925 0)
(8.33846 0.0510314 0)
(8.38479 0.133764 0)
(8.45709 0.173358 0)
(8.52323 0.183544 0)
(8.57599 0.179809 0)
(8.61933 0.168557 0)
(8.6548 0.154041 0)
(8.68379 0.139105 0)
(8.70829 0.12486 0)
(8.72969 0.11165 0)
(8.74884 0.0995764 0)
(8.7663 0.0885869 0)
(8.7825 0.0785583 0)
(8.79772 0.0693545 0)
(8.81215 0.0608439 0)
(8.82592 0.0529017 0)
(8.83913 0.0454125 0)
(8.85187 0.0382712 0)
(8.86419 0.0313808 0)
(8.87612 0.0246516 0)
(8.88772 0.0179993 0)
(8.899 0.0113432 0)
(8.90999 0.00460482 0)
(8.92071 -0.00229396 0)
(8.93115 -0.00943276 0)
(8.94135 -0.0168949 0)
(8.95128 -0.0247711 0)
(8.96095 -0.0331626 0)
(8.97033 -0.0421872 0)
(8.97939 -0.0519823 0)
(8.98805 -0.0627096 0)
(8.99618 -0.0745768 0)
(9.00361 -0.0877157 0)
(8.33687 0.0403822 0)
(8.37187 0.108854 0)
(8.4299 0.145736 0)
(8.48653 0.15813 0)
(8.53396 0.157641 0)
(8.57415 0.149784 0)
(8.60805 0.138167 0)
(8.63646 0.125421 0)
(8.66081 0.112795 0)
(8.68227 0.100776 0)
(8.70155 0.0895664 0)
(8.71916 0.0792053 0)
(8.7355 0.069637 0)
(8.75082 0.0607726 0)
(8.76532 0.0525143 0)
(8.77912 0.0447617 0)
(8.79234 0.0374173 0)
(8.80505 0.0303881 0)
(8.81729 0.0235861 0)
(8.82912 0.0169279 0)
(8.84057 0.0103339 0)
(8.85167 0.00372737 0)
(8.86243 -0.00296663 0)
(8.87286 -0.00982245 0)
(8.88297 -0.0169155 0)
(8.89277 -0.0243241 0)
(8.90222 -0.0321316 0)
(8.91133 -0.0404288 0)
(8.92004 -0.0493165 0)
(8.9283 -0.0589081 0)
(8.93601 -0.0693254 0)
(8.94302 -0.0807189 0)
(8.94916 -0.0931385 0)
(8.33584 0.0322171 0)
(8.36268 0.0886363 0)
(8.40946 0.121954 0)
(8.45786 0.135267 0)
(8.50032 0.136992 0)
(8.53744 0.131752 0)
(8.56962 0.122558 0)
(8.59726 0.111738 0)
(8.62132 0.100567 0)
(8.64272 0.089629 0)
(8.66206 0.0792155 0)
(8.6798 0.069443 0)
(8.69626 0.0603184 0)
(8.7117 0.0517961 0)
(8.72629 0.0438073 0)
(8.74016 0.036272 0)
(8.7534 0.0291067 0)
(8.7661 0.022228 0)
(8.7783 0.0155551 0)
(8.79005 0.00901035 0)
(8.80138 0.00251873 0)
(8.81231 -0.00399206 0)
(8.82285 -0.0105924 0)
(8.83301 -0.0173519 0)
(8.8428 -0.0243403 0)
(8.85221 -0.0316287 0)
(8.86121 -0.0392908 0)
(8.86978 -0.0474038 0)
(8.87786 -0.0560493 0)
(8.88539 -0.0653131 0)
(8.89225 -0.0752781 0)
(8.8983 -0.0860414 0)
(8.90338 -0.0975925 0)
(8.33514 0.0258231 0)
(8.35605 0.0720974 0)
(8.39402 0.10146 0)
(8.43536 0.11472 0)
(8.47328 0.117788 0)
(8.50743 0.114424 0)
(8.53784 0.107132 0)
(8.56456 0.0979248 0)
(8.5882 0.0880397 0)
(8.60946 0.0781123 0)
(8.62881 0.0684839 0)
(8.64663 0.0593211 0)
(8.6632 0.0506747 0)
(8.67875 0.042532 0)
(8.69343 0.0348486 0)
(8.70736 0.0275633 0)
(8.72064 0.0206066 0)
(8.73334 0.013906 0)
(8.7455 0.00738922 0)
(8.75717 0.000985434 0)
(8.76838 -0.0053743 0)
(8.77914 -0.0117567 0)
(8.78948 -0.0182267 0)
(8.79939 -0.0248478 0)
(8.80887 -0.0316829 0)
(8.81791 -0.038794 0)
(8.82648 -0.0462435 0)
(8.83455 -0.0540936 0)
(8.84206 -0.0624057 0)
(8.84893 -0.071239 0)
(8.85507 -0.0806418 0)
(8.86032 -0.0906672 0)
(8.86458 -0.101263 0)
(8.33466 0.0207121 0)
(8.35122 0.0584351 0)
(8.38229 0.0837419 0)
(8.41767 0.0962363 0)
(8.45149 0.0999474 0)
(8.48285 0.0978562 0)
(8.51147 0.0920231 0)
(8.53719 0.0841551 0)
(8.56032 0.0753933 0)
(8.58135 0.0663795 0)
(8.60064 0.0574803 0)
(8.61849 0.0488959 0)
(8.63513 0.0407118 0)
(8.65076 0.032944 0)
(8.66552 0.0255707 0)
(8.67952 0.0185476 0)
(8.69283 0.011818 0)
(8.70553 0.00531943 0)
(8.71766 -0.00101277 0)
(8.72926 -0.00724309 0)
(8.74036 -0.0134347 0)
(8.75097 -0.0196489 0)
(8.76111 -0.025945 0)
(8.77077 -0.03238 0)
(8.77996 -0.039009 0)
(8.78866 -0.0458848 0)
(8.79684 -0.0530577 0)
(8.80445 -0.0605749 0)
(8.81146 -0.0684786 0)
(8.81777 -0.0768044 0)
(8.82331 -0.0855721 0)
(8.82794 -0.0947998 0)
(8.83157 -0.104408 0)
(8.33432 0.0165451 0)
(8.34765 0.0470214 0)
(8.37332 0.0683482 0)
(8.40373 0.0795782 0)
(8.43391 0.0833754 0)
(8.46269 0.0820423 0)
(8.48957 0.0772544 0)
(8.51424 0.070436 0)
(8.53679 0.062608 0)
(8.55752 0.0543907 0)
(8.5767 0.0461573 0)
(8.59453 0.0381253 0)
(8.61122 0.030402 0)
(8.62692 0.0230237 0)
(8.64174 0.0159847 0)
(8.65579 0.00925378 0)
(8.66913 0.00278478 0)
(8.68183 -0.00347628 0)
(8.69392 -0.00958682 0)
(8.70545 -0.015605 0)
(8.71645 -0.0215882 0)
(8.72691 -0.0275919 0)
(8.73686 -0.033669 0)
(8.7463 -0.0398697 0)
(8.75522 -0.0462409 0)
(8.7636 -0.0528257 0)
(8.77142 -0.0596628 0)
(8.77864 -0.0667852 0)
(8.78521 -0.074218 0)
(8.79106 -0.0819769 0)
(8.79612 -0.0900596 0)
(8.80028 -0.0984587 0)
(8.80347 -0.10708 0)
(8.33408 0.0130824 0)
(8.34499 0.0373656 0)
(8.36643 0.0548834 0)
(8.39272 0.0645112 0)
(8.41972 0.0679553 0)
(8.44615 0.066953 0)
(8.4714 0.06285 0)
(8.49501 0.0568192 0)
(8.51694 0.0497497 0)
(8.53733 0.042217 0)
(8.55635 0.0345824 0)
(8.57414 0.0270662 0)
(8.59084 0.0197869 0)
(8.60658 0.012794 0)
(8.62146 0.006094 0)
(8.63554 -0.000333782 0)
(8.64891 -0.00652639 0)
(8.6616 -0.0125301 0)
(8.67367 -0.0183959 0)
(8.68514 -0.0241759 0)
(8.69603 -0.0299218 0)
(8.70636 -0.0356834 0)
(8.71614 -0.0415076 0)
(8.72537 -0.0474376 0)
(8.73404 -0.0535124 0)
(8.74215 -0.0597661 0)
(8.74965 -0.0662265 0)
(8.75653 -0.0729144 0)
(8.76274 -0.0798406 0)
(8.76823 -0.087005 0)
(8.77292 -0.0943893 0)
(8.77675 -0.101969 0)
(8.77967 -0.109643 0)
(8.33389 0.0101512 0)
(8.34298 0.0290832 0)
(8.36113 0.0430044 0)
(8.38403 0.0508122 0)
(8.40828 0.0535627 0)
(8.43263 0.0525385 0)
(8.45636 0.0488053 0)
(8.47896 0.0433165 0)
(8.50026 0.0368289 0)
(8.52029 0.02986 0)
(8.53912 0.022747 0)
(8.55683 0.0157028 0)
(8.57353 0.00884878 0)
(8.5893 0.00224101 0)
(8.60421 -0.00410677 0)
(8.61833 -0.0102081 0)
(8.63171 -0.0160936 0)
(8.6444 -0.0218039 0)
(8.65644 -0.0273847 0)
(8.66784 -0.0328833 0)
(8.67864 -0.0383462 0)
(8.68884 -0.0438181 0)
(8.69846 -0.0493399 0)
(8.7075 -0.0549487 0)
(8.71596 -0.0606761 0)
(8.72382 -0.066548 0)
(8.73106 -0.0725831 0)
(8.73765 -0.0787916 0)
(8.74357 -0.0851733 0)
(8.74877 -0.0917168 0)
(8.75321 -0.0983929 0)
(8.75682 -0.105167 0)
(8.7596 -0.111938 0)
(8.33376 0.00762411 0)
(8.34145 0.0218717 0)
(8.35704 0.0324148 0)
(8.37718 0.0382695 0)
(8.39911 0.0400644 0)
(8.42163 0.0387286 0)
(8.44399 0.0350938 0)
(8.46565 0.0299257 0)
(8.48634 0.0238554 0)
(8.50601 0.0173343 0)
(8.52464 0.010666 0)
(8.54227 0.00404712 0)
(8.55896 -0.00240698 0)
(8.57474 -0.00863995 0)
(8.58969 -0.0146354 0)
(8.60384 -0.0204032 0)
(8.61724 -0.0259699 0)
(8.62993 -0.0313719 0)
(8.64193 -0.0366507 0)
(8.65328 -0.0418491 0)
(8.664 -0.0470093 0)
(8.67409 -0.0521708 0)
(8.68357 -0.0573696 0)
(8.69245 -0.0626366 0)
(8.70071 -0.0679972 0)
(8.70836 -0.0734701 0)
(8.71538 -0.0790661 0)
(8.72175 -0.0847876 0)
(8.72745 -0.0906263 0)
(8.73245 -0.0965628 0)
(8.73673 -0.102562 0)
(8.74023 -0.108584 0)
(8.74297 -0.114532 0)
(8.33365 0.00540465 0)
(8.34029 0.0154899 0)
(8.35389 0.0228583 0)
(8.37182 0.0266832 0)
(8.39181 0.0273226 0)
(8.41276 0.0254386 0)
(8.43392 0.0216714 0)
(8.45473 0.0166277 0)
(8.47488 0.0108234 0)
(8.4942 0.00464094 0)
(8.51264 -0.00165538 0)
(8.53019 -0.00789188 0)
(8.54685 -0.0139649 0)
(8.56266 -0.0198229 0)
(8.57763 -0.0254512 0)
(8.59181 -0.0308592 0)
(8.60523 -0.0360719 0)
(8.61791 -0.0411236 0)
(8.62989 -0.0460532 0)
(8.64119 -0.0509007 0)
(8.65183 -0.0557048 0)
(8.66182 -0.0605014 0)
(8.67117 -0.0653222 0)
(8.6799 -0.0701935 0)
(8.68801 -0.0751354 0)
(8.69548 -0.0801611 0)
(8.70232 -0.0852757 0)
(8.70852 -0.0904758 0)
(8.71405 -0.0957478 0)
(8.71892 -0.101068 0)
(8.7231 -0.106399 0)
(8.72657 -0.1117 0)
(8.72935 -0.116881 0)
(8.33357 0.00341779 0)
(8.33942 0.00974302 0)
(8.35148 0.0141125 0)
(8.36766 0.0158645 0)
(8.38607 0.0151943 0)
(8.40572 0.0125678 0)
(8.42587 0.00847083 0)
(8.44596 0.0033764 0)
(8.46562 -0.00230358 0)
(8.48465 -0.00825517 0)
(8.50294 -0.0142579 0)
(8.52042 -0.020166 0)
(8.53708 -0.0258932 0)
(8.55291 -0.031398 0)
(8.56793 -0.036671 0)
(8.58215 -0.0417242 0)
(8.59559 -0.0465837 0)
(8.60828 -0.0512833 0)
(8.62025 -0.0558605 0)
(8.63151 -0.0603532 0)
(8.64209 -0.0647976 0)
(8.652 -0.0692265 0)
(8.66125 -0.0736679 0)
(8.66986 -0.0781442 0)
(8.67783 -0.0826715 0)
(8.68517 -0.0872585 0)
(8.69187 -0.0919064 0)
(8.69794 -0.0966076 0)
(8.70337 -0.101346 0)
(8.70816 -0.106095 0)
(8.71231 -0.110819 0)
(8.7158 -0.115478 0)
(8.71868 -0.119991 0)
(8.33352 0.00160297 0)
(8.33876 0.00446948 0)
(8.34966 0.00598071 0)
(8.3645 0.00563396 0)
(8.38166 0.00353361 0)
(8.40026 6.2986e-06 0)
(8.41961 -0.00458405 0)
(8.43911 -0.00987521 0)
(8.45838 -0.0155467 0)
(8.47719 -0.0213505 0)
(8.49536 -0.0271113 0)
(8.51281 -0.032715 0)
(8.52948 -0.0380967 0)
(8.54535 -0.0432291 0)
(8.56042 -0.0481121 0)
(8.57468 -0.052764 0)
(8.58815 -0.0572144 0)
(8.60086 -0.0614993 0)
(8.61282 -0.0656568 0)
(8.62405 -0.0697249 0)
(8.63457 -0.0737388 0)
(8.64441 -0.0777294 0)
(8.65357 -0.0817229 0)
(8.66208 -0.0857391 0)
(8.66994 -0.0897913 0)
(8.67716 -0.0938858 0)
(8.68375 -0.0980212 0)
(8.68973 -0.102188 0)
(8.69509 -0.10637 0)
(8.69984 -0.11054 0)
(8.70399 -0.114664 0)
(8.70756 -0.118708 0)
(8.71058 -0.122598 0)
(8.33347 -8.97558e-05 0)
(8.33829 -0.000468036 0)
(8.34834 -0.00171415 0)
(8.36218 -0.00418335 0)
(8.37841 -0.007815 0)
(8.39623 -0.0123797 0)
(8.41497 -0.0176097 0)
(8.43405 -0.0232359 0)
(8.45307 -0.0290198 0)
(8.47174 -0.0347763 0)
(8.48988 -0.040377 0)
(8.50735 -0.0457419 0)
(8.52409 -0.0508308 0)
(8.54004 -0.0556336 0)
(8.55519 -0.0601622 0)
(8.56952 -0.064443 0)
(8.58306 -0.068511 0)
(8.5958 -0.0724056 0)
(8.60777 -0.0761667 0)
(8.619 -0.0798328 0)
(8.62949 -0.0834389 0)
(8.63928 -0.0870152 0)
(8.64837 -0.0905862 0)
(8.6568 -0.0941703 0)
(8.66457 -0.0977792 0)
(8.67171 -0.101417 0)
(8.67823 -0.105083 0)
(8.68414 -0.108765 0)
(8.68946 -0.112448 0)
(8.69421 -0.116107 0)
(8.6984 -0.119712 0)
(8.70205 -0.123231 0)
(8.70522 -0.126601 0)
(8.33344 -0.0017042 0)
(8.33796 -0.00519139 0)
(8.34744 -0.00913613 0)
(8.36059 -0.0137569 0)
(8.37619 -0.0190049 0)
(8.39349 -0.0247146 0)
(8.41184 -0.0306917 0)
(8.43067 -0.0367433 0)
(8.44956 -0.0427022 0)
(8.46819 -0.048443 0)
(8.48636 -0.0538844 0)
(8.50392 -0.0589837 0)
(8.52076 -0.0637291 0)
(8.53681 -0.0681325 0)
(8.55206 -0.0722223 0)
(8.56649 -0.076037 0)
(8.58009 -0.0796208 0)
(8.59288 -0.0830191 0)
(8.60487 -0.0862764 0)
(8.61609 -0.0894339 0)
(8.62656 -0.0925281 0)
(8.6363 -0.0955898 0)
(8.64534 -0.0986439 0)
(8.6537 -0.101708 0)
(8.6614 -0.104794 0)
(8.66847 -0.107905 0)
(8.67493 -0.11104 0)
(8.68079 -0.11419 0)
(8.6861 -0.117338 0)
(8.69085 -0.120465 0)
(8.6951 -0.123542 0)
(8.69885 -0.126545 0)
(8.70217 -0.129419 0)
(8.33343 -0.00328121 0)
(8.33777 -0.00981524 0)
(8.34691 -0.0164473 0)
(8.35967 -0.0232695 0)
(8.37493 -0.0302274 0)
(8.39198 -0.0372 0)
(8.41019 -0.0440527 0)
(8.42899 -0.0506598 0)
(8.44793 -0.0569198 0)
(8.46669 -0.0627639 0)
(8.48502 -0.0681571 0)
(8.50276 -0.0730937 0)
(8.51979 -0.0775912 0)
(8.53604 -0.0816836 0)
(8.55145 -0.0854166 0)
(8.56602 -0.0888415 0)
(8.57973 -0.092012 0)
(8.5926 -0.0949807 0)
(8.60465 -0.0977973 0)
(8.61589 -0.100506 0)
(8.62636 -0.103147 0)
(8.63607 -0.105752 0)
(8.64507 -0.108346 0)
(8.65338 -0.110949 0)
(8.66103 -0.113571 0)
(8.66805 -0.116219 0)
(8.67446 -0.11889 0)
(8.6803 -0.121577 0)
(8.68559 -0.124268 0)
(8.69036 -0.126943 0)
(8.69465 -0.129581 0)
(8.69849 -0.132161 0)
(8.70193 -0.134635 0)
(8.33342 -0.00485991 0)
(8.3377 -0.0144501 0)
(8.34673 -0.0238038 0)
(8.35938 -0.0328882 0)
(8.37458 -0.0416265 0)
(8.39164 -0.049922 0)
(8.40994 -0.0576845 0)
(8.42889 -0.0648458 0)
(8.44804 -0.0713657 0)
(8.46704 -0.0772337 0)
(8.48563 -0.0824659 0)
(8.50364 -0.0871003 0)
(8.52091 -0.0911905 0)
(8.53738 -0.0947998 0)
(8.55299 -0.0979966 0)
(8.56772 -0.10085 0)
(8.58157 -0.103427 0)
(8.59453 -0.105791 0)
(8.60664 -0.107998 0)
(8.61792 -0.110098 0)
(8.62839 -0.112134 0)
(8.63809 -0.114141 0)
(8.64706 -0.116145 0)
(8.65533 -0.118167 0)
(8.66293 -0.12022 0)
(8.66989 -0.122309 0)
(8.67626 -0.124435 0)
(8.68207 -0.126591 0)
(8.68735 -0.128768 0)
(8.69214 -0.130952 0)
(8.69648 -0.133122 0)
(8.7004 -0.135264 0)
(8.70397 -0.137337 0)
(8.33343 -0.0064816 0)
(8.33776 -0.0192176 0)
(8.34691 -0.0313953 0)
(8.35975 -0.0428646 0)
(8.37522 -0.0535282 0)
(8.39263 -0.0633129 0)
(8.41134 -0.0721711 0)
(8.43074 -0.0800875 0)
(8.45036 -0.0870771 0)
(8.46984 -0.0931807 0)
(8.48889 -0.0984596 0)
(8.50732 -0.10299 0)
(8.52498 -0.106859 0)
(8.54179 -0.110157 0)
(8.55768 -0.112975 0)
(8.57265 -0.115399 0)
(8.58667 -0.117511 0)
(8.59977 -0.119386 0)
(8.61197 -0.12109 0)
(8.6233 -0.122679 0)
(8.63379 -0.124202 0)
(8.64349 -0.125696 0)
(8.65243 -0.127193 0)
(8.66065 -0.128716 0)
(8.6682 -0.130278 0)
(8.67512 -0.131888 0)
(8.68144 -0.133548 0)
(8.68721 -0.135255 0)
(8.69247 -0.137001 0)
(8.69725 -0.138775 0)
(8.7016 -0.140562 0)
(8.70555 -0.142348 0)
(8.70916 -0.144099 0)
(8.33344 -0.00819107 0)
(8.33794 -0.0242385 0)
(8.34743 -0.0393751 0)
(8.36075 -0.0533136 0)
(8.37677 -0.0659186 0)
(8.39479 -0.0771281 0)
(8.41413 -0.0869346 0)
(8.43418 -0.0953849 0)
(8.45444 -0.102565 0)
(8.47452 -0.108586 0)
(8.49415 -0.11357 0)
(8.5131 -0.117649 0)
(8.53123 -0.120952 0)
(8.54844 -0.123605 0)
(8.56468 -0.125726 0)
(8.57993 -0.127424 0)
(8.59418 -0.128796 0)
(8.60745 -0.129928 0)
(8.61977 -0.130894 0)
(8.63118 -0.131758 0)
(8.64171 -0.132571 0)
(8.65142 -0.133375 0)
(8.66034 -0.134205 0)
(8.66853 -0.135082 0)
(8.67604 -0.136025 0)
(8.6829 -0.137043 0)
(8.68917 -0.138139 0)
(8.6949 -0.139312 0)
(8.70012 -0.140557 0)
(8.70488 -0.141866 0)
(8.70923 -0.143226 0)
(8.71321 -0.144629 0)
(8.7169 -0.146043 0)
(8.33347 -0.0100453 0)
(8.33829 -0.0296977 0)
(8.34845 -0.0480857 0)
(8.36266 -0.0648044 0)
(8.37972 -0.0797064 0)
(8.39884 -0.0927495 0)
(8.41931 -0.103956 0)
(8.44046 -0.113412 0)
(8.46174 -0.121252 0)
(8.48276 -0.127634 0)
(8.50322 -0.132731 0)
(8.52289 -0.136717 0)
(8.54164 -0.139766 0)
(8.55937 -0.142041 0)
(8.57604 -0.14369 0)
(8.59162 -0.144849 0)
(8.60612 -0.145638 0)
(8.61958 -0.146161 0)
(8.63202 -0.146505 0)
(8.6435 -0.146744 0)
(8.65406 -0.146938 0)
(8.66375 -0.147137 0)
(8.67264 -0.147376 0)
(8.68077 -0.147683 0)
(8.68821 -0.148079 0)
(8.69499 -0.148574 0)
(8.70117 -0.149175 0)
(8.70681 -0.149882 0)
(8.71195 -0.150691 0)
(8.71664 -0.151597 0)
(8.72093 -0.152588 0)
(8.72485 -0.153658 0)
(8.72846 -0.154777 0)
(8.33351 -0.0121046 0)
(8.33877 -0.0357109 0)
(8.34982 -0.0575292 0)
(8.36519 -0.0769701 0)
(8.38351 -0.0938646 0)
(8.40395 -0.108223 0)
(8.42575 -0.120157 0)
(8.44818 -0.129868 0)
(8.47069 -0.137596 0)
(8.49285 -0.143595 0)
(8.51434 -0.148111 0)
(8.53493 -0.15138 0)
(8.55448 -0.153619 0)
(8.57289 -0.155027 0)
(8.59012 -0.155778 0)
(8.60615 -0.156027 0)
(8.62102 -0.155908 0)
(8.63474 -0.155535 0)
(8.64738 -0.155004 0)
(8.65898 -0.154394 0)
(8.66961 -0.15377 0)
(8.67933 -0.153184 0)
(8.6882 -0.152674 0)
(8.69629 -0.152271 0)
(8.70365 -0.151996 0)
(8.71036 -0.151863 0)
(8.71645 -0.151877 0)
(8.722 -0.152043 0)
(8.72705 -0.152357 0)
(8.73166 -0.152816 0)
(8.73588 -0.15341 0)
(8.73975 -0.154136 0)
(8.74336 -0.154963 0)
(8.3336 -0.014483 0)
(8.33963 -0.0427498 0)
(8.35225 -0.0688019 0)
(8.36964 -0.0919255 0)
(8.39015 -0.111941 0)
(8.41279 -0.128832 0)
(8.43668 -0.142697 0)
(8.46102 -0.153762 0)
(8.48521 -0.162326 0)
(8.50882 -0.168715 0)
(8.53155 -0.173253 0)
(8.55319 -0.176254 0)
(8.5736 -0.178006 0)
(8.59271 -0.178769 0)
(8.61049 -0.178768 0)
(8.62696 -0.178199 0)
(8.64214 -0.177227 0)
(8.65609 -0.17599 0)
(8.66886 -0.174602 0)
(8.68054 -0.173155 0)
(8.69118 -0.171722 0)
(8.70086 -0.170359 0)
(8.70966 -0.169111 0)
(8.71765 -0.168009 0)
(8.72489 -0.167075 0)
(8.73144 -0.166323 0)
(8.73738 -0.165761 0)
(8.74277 -0.165393 0)
(8.74765 -0.165215 0)
(8.75208 -0.165224 0)
(8.75613 -0.16541 0)
(8.75982 -0.165768 0)
(8.76322 -0.166269 0)
(8.33366 -0.0172425 0)
(8.34046 -0.0505885 0)
(8.35467 -0.0805686 0)
(8.37408 -0.106297 0)
(8.3968 -0.127808 0)
(8.42178 -0.14536 0)
(8.44805 -0.15929 0)
(8.47471 -0.170022 0)
(8.50108 -0.177989 0)
(8.52668 -0.183604 0)
(8.55117 -0.187251 0)
(8.57433 -0.18928 0)
(8.59603 -0.19001 0)
(8.61621 -0.189718 0)
(8.63485 -0.188648 0)
(8.652 -0.18701 0)
(8.6677 -0.18498 0)
(8.68204 -0.182708 0)
(8.69508 -0.180315 0)
(8.70692 -0.1779 0)
(8.71765 -0.175542 0)
(8.72736 -0.173303 0)
(8.73613 -0.171229 0)
(8.74404 -0.169355 0)
(8.75118 -0.167705 0)
(8.75761 -0.166295 0)
(8.76341 -0.165133 0)
(8.76864 -0.164224 0)
(8.77337 -0.163566 0)
(8.77765 -0.163155 0)
(8.78155 -0.162983 0)
(8.78511 -0.163046 0)
(8.78842 -0.163311 0)
(8.3339 -0.020767 0)
(8.34274 -0.0613064 0)
(8.36056 -0.098053 0)
(8.38412 -0.129792 0)
(8.41084 -0.156313 0)
(8.43946 -0.177655 0)
(8.46891 -0.194133 0)
(8.49828 -0.206313 0)
(8.52695 -0.21483 0)
(8.55449 -0.220298 0)
(8.58061 -0.223289 0)
(8.60512 -0.224316 0)
(8.62793 -0.223821 0)
(8.64901 -0.222183 0)
(8.66837 -0.219714 0)
(8.68607 -0.216673 0)
(8.70218 -0.213271 0)
(8.71678 -0.209676 0)
(8.72998 -0.206024 0)
(8.74189 -0.202417 0)
(8.7526 -0.198938 0)
(8.76221 -0.195647 0)
(8.77083 -0.192589 0)
(8.77854 -0.189795 0)
(8.78543 -0.187288 0)
(8.79159 -0.185079 0)
(8.79709 -0.183176 0)
(8.80199 -0.181581 0)
(8.80638 -0.180292 0)
(8.8103 -0.179303 0)
(8.81383 -0.178605 0)
(8.81699 -0.178191 0)
(8.81987 -0.178027 0)
(8.33386 -0.0247926 0)
(8.34353 -0.0714427 0)
(8.36376 -0.111122 0)
(8.39073 -0.143571 0)
(8.42154 -0.16986 0)
(8.45471 -0.19065 0)
(8.48878 -0.206494 0)
(8.52248 -0.218041 0)
(8.55502 -0.225911 0)
(8.58592 -0.230675 0)
(8.61485 -0.232871 0)
(8.64165 -0.232998 0)
(8.66625 -0.2315 0)
(8.68869 -0.228771 0)
(8.70904 -0.225148 0)
(8.72741 -0.220916 0)
(8.74392 -0.216313 0)
(8.75871 -0.211531 0)
(8.77192 -0.206725 0)
(8.7837 -0.202014 0)
(8.79417 -0.197493 0)
(8.80345 -0.193229 0)
(8.81167 -0.189272 0)
(8.81894 -0.185657 0)
(8.82534 -0.182406 0)
(8.83098 -0.179531 0)
(8.83594 -0.17704 0)
(8.84029 -0.174933 0)
(8.84412 -0.173208 0)
(8.84748 -0.171859 0)
(8.85046 -0.170877 0)
(8.85309 -0.170255 0)
(8.8555 -0.16995 0)
(8.33497 -0.0316459 0)
(8.35126 -0.093602 0)
(8.38019 -0.147523 0)
(8.41466 -0.19129 0)
(8.4512 -0.22526 0)
(8.48889 -0.250242 0)
(8.52657 -0.267553 0)
(8.56316 -0.278668 0)
(8.59802 -0.284868 0)
(8.63075 -0.287227 0)
(8.6611 -0.286652 0)
(8.68894 -0.283884 0)
(8.71427 -0.279523 0)
(8.73716 -0.274045 0)
(8.75773 -0.267833 0)
(8.77613 -0.26119 0)
(8.79253 -0.254352 0)
(8.80711 -0.247504 0)
(8.82004 -0.240788 0)
(8.83149 -0.234312 0)
(8.8416 -0.228154 0)
(8.85053 -0.22237 0)
(8.8584 -0.216999 0)
(8.86534 -0.212065 0)
(8.87145 -0.207582 0)
(8.87683 -0.203556 0)
(8.88156 -0.19999 0)
(8.88572 -0.19688 0)
(8.88938 -0.194226 0)
(8.89262 -0.192022 0)
(8.8955 -0.190261 0)
(8.89807 -0.18894 0)
(8.90042 -0.188011 0)
(8.33402 -0.0366036 0)
(8.34981 -0.0996927 0)
(8.38361 -0.148906 0)
(8.42618 -0.188962 0)
(8.47204 -0.221831 0)
(8.51876 -0.247252 0)
(8.56422 -0.265677 0)
(8.60723 -0.278006 0)
(8.64745 -0.285094 0)
(8.68481 -0.287821 0)
(8.71935 -0.287075 0)
(8.7512 -0.283674 0)
(8.78054 -0.278328 0)
(8.80755 -0.271636 0)
(8.83239 -0.264091 0)
(8.85524 -0.256083 0)
(8.87623 -0.247916 0)
(8.8955 -0.239821 0)
(8.91321 -0.231968 0)
(8.92946 -0.22448 0)
(8.94438 -0.217441 0)
(8.9581 -0.210907 0)
(8.97071 -0.204908 0)
(8.98232 -0.199461 0)
(8.99302 -0.194571 0)
(9.0029 -0.190233 0)
(9.01204 -0.186441 0)
(9.02051 -0.183187 0)
(9.02839 -0.180466 0)
(9.03574 -0.178276 0)
(9.04264 -0.176625 0)
(9.04919 -0.175519 0)
(9.0555 -0.174928 0)
(8.33959 -0.060692 0)
(8.37698 -0.170326 0)
(8.42607 -0.249035 0)
(8.47569 -0.302425 0)
(8.52786 -0.337599 0)
(8.5841 -0.358937 0)
(8.64282 -0.370532 0)
(8.70268 -0.375473 0)
(8.76275 -0.375714 0)
(8.82194 -0.37258 0)
(8.87923 -0.367016 0)
(8.9339 -0.359698 0)
(8.98541 -0.351132 0)
(9.03345 -0.341712 0)
(9.07783 -0.33176 0)
(9.11855 -0.32154 0)
(9.15568 -0.311275 0)
(9.18937 -0.301146 0)
(9.21983 -0.2913 0)
(9.2473 -0.281852 0)
(9.27201 -0.272889 0)
(9.29422 -0.264471 0)
(9.31415 -0.256639 0)
(9.33204 -0.249417 0)
(9.34808 -0.242815 0)
(9.36246 -0.236834 0)
(9.37535 -0.231472 0)
(9.38688 -0.226726 0)
(9.39718 -0.222602 0)
(9.40636 -0.219111 0)
(9.41454 -0.216313 0)
(9.4218 -0.21422 0)
(9.42837 -0.21302 0)
(8.33758 -0.0466696 0)
(8.39341 -0.12135 0)
(8.49354 -0.18557 0)
(8.60814 -0.247547 0)
(8.72973 -0.300771 0)
(8.85279 -0.342067 0)
(8.97041 -0.372155 0)
(9.07848 -0.391929 0)
(9.17479 -0.402547 0)
(9.25816 -0.405607 0)
(9.32835 -0.402743 0)
(9.38585 -0.395428 0)
(9.43156 -0.384936 0)
(9.46659 -0.372322 0)
(9.49221 -0.358435 0)
(9.50966 -0.343933 0)
(9.52012 -0.329321 0)
(9.52468 -0.31497 0)
(9.52431 -0.301147 0)
(9.51985 -0.288031 0)
(9.51204 -0.275738 0)
(9.50149 -0.264332 0)
(9.48871 -0.253837 0)
(9.47415 -0.244251 0)
(9.45813 -0.235548 0)
(9.44096 -0.22769 0)
(9.42284 -0.22063 0)
(9.40392 -0.214321 0)
(9.38435 -0.208726 0)
(9.36412 -0.203824 0)
(9.34337 -0.199716 0)
(9.32178 -0.196364 0)
(9.30011 -0.194826 0)
(8.40924 -0.221415 0)
(8.63492 -0.428679 0)
(8.83296 -0.523178 0)
(8.97645 -0.583972 0)
(9.06977 -0.616865 0)
(9.11195 -0.627469 0)
(9.10735 -0.623371 0)
(9.06542 -0.608656 0)
(8.99505 -0.586169 0)
(8.90371 -0.558487 0)
(8.79791 -0.527681 0)
(8.683 -0.495338 0)
(8.56318 -0.462686 0)
(8.44162 -0.430641 0)
(8.32068 -0.399851 0)
(8.20204 -0.370743 0)
(8.08684 -0.343574 0)
(7.97582 -0.318471 0)
(7.8694 -0.295463 0)
(7.76776 -0.274512 0)
(7.67094 -0.255534 0)
(7.57883 -0.238415 0)
(7.49128 -0.223024 0)
(7.40806 -0.209219 0)
(7.32892 -0.196853 0)
(7.25359 -0.185778 0)
(7.1818 -0.175837 0)
(7.11325 -0.166883 0)
(7.04763 -0.158737 0)
(6.98452 -0.151231 0)
(6.92351 -0.144266 0)
(6.86347 -0.136937 0)
(6.80486 -0.132998 0)
(8.13706 -0.207221 0)
(7.84752 -0.388195 0)
(7.38494 -0.439597 0)
(6.85916 -0.44023 0)
(6.35921 -0.408893 0)
(5.88802 -0.359889 0)
(5.44821 -0.305507 0)
(5.04719 -0.25215 0)
(4.68603 -0.203042 0)
(4.36274 -0.159799 0)
(4.07494 -0.122864 0)
(3.81977 -0.0920092 0)
(3.59404 -0.0666881 0)
(3.39457 -0.0462059 0)
(3.21834 -0.0298332 0)
(3.06256 -0.0168808 0)
(2.92468 -0.00673412 0)
(2.8024 0.00113608 0)
(2.6937 0.00717393 0)
(2.5968 0.0117459 0)
(2.51012 0.0151508 0)
(2.4323 0.017631 0)
(2.36216 0.0193828 0)
(2.29869 0.020566 0)
(2.24099 0.0213163 0)
(2.18834 0.0217509 0)
(2.14006 0.0219992 0)
(2.09574 0.0221914 0)
(2.0548 0.0225701 0)
(2.01743 0.0234685 0)
(1.98262 0.0252336 0)
(1.95263 0.0307557 0)