/*--------------------------------*- C++ -*----------------------------------*\
| =========                 |                                                 |
| \\      /  F ield         | OpenFOAM: The Open Source CFD Toolbox           |
|  \\    /   O peration     | Version:  2.1.1                                 |
|   \\  /    A nd           | Web:      www.OpenFOAM.org                      |
|    \\/     M anipulation  |                                                 |
\*---------------------------------------------------------------------------*/
FoamFile
{
    version     2.0;
    format      ascii;
    class       volScalarField;
    location    "0.09";
    object      epsilon;
}
// * * * * * * * * * * * * * * * * * * * * * * * * * * * * * * * * * * * * * //

dimensions      [0 2 -3 0 0 0 0];

internalField   nonuniform List<scalar> 
6820
(
151.448
203.151
260.735
321.761
383.629
443.727
499.769
550.046
593.502
629.695
658.693
680.935
697.097
707.974
714.392
717.147
716.968
714.497
710.282
704.783
698.374
691.36
683.979
676.42
668.824
661.299
653.921
646.759
639.767
633.345
625.652
625.479
590.716
11.7448
21.4172
29.9435
38.6238
47.5791
56.5557
65.3167
73.6609
81.4263
88.5046
94.841
100.429
105.298
109.505
113.122
116.226
118.895
121.202
123.212
124.984
126.567
128.002
129.323
130.561
131.738
132.877
133.997
135.122
136.275
137.527
138.905
140.825
143.178
5.83781
7.5168
9.20663
10.8093
12.3198
13.7474
15.0884
16.3392
17.4981
18.5651
19.5417
20.4318
21.2404
21.9743
22.6405
23.2467
23.8007
24.3097
24.7807
25.2202
25.6338
26.0266
26.4032
26.7672
27.1221
27.4707
27.8154
28.1586
28.5019
28.8483
29.2003
29.5543
29.9606
5.2423
5.56004
6.00443
6.49347
6.9857
7.46191
7.91301
8.33468
8.72527
9.0846
9.41344
9.71311
9.98532
10.232
10.4551
10.6567
10.8387
11.0032
11.152
11.2868
11.4092
11.5208
11.623
11.717
11.8038
11.8846
11.9601
12.0311
12.0979
12.1612
12.2202
12.276
12.3248
5.17349
5.18677
5.26821
5.39776
5.55638
5.72968
5.90779
6.08428
6.25512
6.41787
6.57115
6.71425
6.84695
6.96929
7.08156
7.18417
7.27761
7.36243
7.43921
7.50855
7.57103
7.62722
7.67767
7.72292
7.76346
7.79975
7.83223
7.86128
7.88728
7.91052
7.93125
7.94973
7.96599
5.16878
5.12131
5.09602
5.09482
5.11536
5.15307
5.20299
5.26075
5.32292
5.38692
5.45088
5.51348
5.5738
5.63122
5.68535
5.73598
5.783
5.82641
5.86626
5.90266
5.93574
5.96568
5.99265
6.01683
6.03842
6.0576
6.07457
6.0895
6.10259
6.11399
6.12388
6.13236
6.13964
5.16887
5.11169
5.06116
5.01963
4.9884
4.96754
4.95615
4.95279
4.95587
4.96386
4.97542
4.98944
5.00501
5.02141
5.03808
5.05458
5.07059
5.08588
5.10028
5.11367
5.12599
5.13719
5.14727
5.15624
5.16413
5.17097
5.17682
5.18172
5.18575
5.18896
5.19142
5.19317
5.1943
5.16902
5.11063
5.05514
5.00339
4.95619
4.91413
4.87747
4.8461
4.81972
4.7978
4.77979
4.76509
4.75315
4.74346
4.73558
4.72912
4.72376
4.71922
4.71528
4.71175
4.70848
4.70537
4.7023
4.69922
4.69607
4.6928
4.6894
4.68584
4.68213
4.67825
4.67421
4.67001
4.66567
5.16904
5.11054
5.05431
5.00049
4.94927
4.9009
4.85558
4.81345
4.77455
4.73881
4.7061
4.67622
4.64894
4.62403
4.60123
4.58031
4.56104
4.54321
4.52665
4.51119
4.49669
4.483
4.47004
4.4577
4.4459
4.43457
4.42366
4.41311
4.40289
4.39296
4.38329
4.37386
4.36464
5.16904
5.11054
5.0542
5.00002
4.94795
4.89803
4.85027
4.80471
4.76138
4.72027
4.68138
4.64464
4.61
4.57734
4.54657
4.51757
4.49022
4.46439
4.43998
4.41687
4.39495
4.37412
4.3543
4.3354
4.31735
4.30007
4.28351
4.2676
4.25231
4.23759
4.22339
4.20968
4.19643
5.16904
5.11053
5.05418
4.99994
4.94772
4.89747
4.84913
4.80264
4.75799
4.71513
4.67405
4.63469
4.59703
4.56101
4.52658
4.49368
4.46225
4.43222
4.40352
4.37609
4.34985
4.32473
4.30068
4.27762
4.25551
4.23429
4.2139
4.1943
4.17544
4.15728
4.13978
4.12291
4.10662
5.16904
5.11052
5.05417
4.99991
4.94767
4.89735
4.84888
4.80218
4.75719
4.71384
4.67209
4.63188
4.59316
4.55589
4.52003
4.48552
4.45232
4.42038
4.38966
4.3601
4.33166
4.30429
4.27794
4.25258
4.22815
4.20461
4.18193
4.16006
4.13897
4.11862
4.09898
4.08001
4.06169
5.16904
5.11052
5.05416
4.99989
4.94764
4.89731
4.84881
4.80206
4.75698
4.71351
4.67158
4.63112
4.59209
4.55442
4.51806
4.48298
4.44911
4.41642
4.38487
4.3544
4.32499
4.29659
4.26917
4.24268
4.21709
4.19237
4.16848
4.14539
4.12307
4.10149
4.08062
4.06043
4.04088
5.16903
5.11051
5.05415
4.99988
4.94762
4.89728
4.84876
4.802
4.7569
4.7134
4.67142
4.63089
4.59177
4.55398
4.51748
4.48221
4.44812
4.41517
4.38332
4.35252
4.32273
4.29392
4.26605
4.23908
4.21298
4.18773
4.16328
4.13961
4.11669
4.0945
4.073
4.05218
4.032
5.16903
5.11051
5.05414
4.99987
4.9476
4.89725
4.84873
4.80196
4.75685
4.71333
4.67133
4.63079
4.59163
4.55381
4.51726
4.48194
4.44778
4.41475
4.3828
4.35188
4.32196
4.293
4.26497
4.23782
4.21152
4.18605
4.16137
4.13746
4.11429
4.09182
4.07005
4.04893
4.02846
5.16903
5.11051
5.05413
4.99986
4.94758
4.89723
4.8487
4.80192
4.7568
4.71327
4.67127
4.63071
4.59154
4.55371
4.51714
4.48179
4.44761
4.41455
4.38257
4.35161
4.32165
4.29264
4.26455
4.23733
4.21097
4.18542
4.16065
4.13665
4.11337
4.0908
4.06891
4.04768
4.02707
5.16903
5.1105
5.05413
4.99985
4.94757
4.89721
4.84867
4.80188
4.75676
4.71322
4.67121
4.63064
4.59147
4.55362
4.51704
4.48168
4.44749
4.41442
4.38242
4.35145
4.32147
4.29244
4.26432
4.23708
4.21069
4.18511
4.16031
4.13627
4.11296
4.09035
4.06841
4.04713
4.02647
5.16903
5.1105
5.05412
4.99984
4.94756
4.89719
4.84865
4.80186
4.75672
4.71318
4.67116
4.63058
4.5914
4.55354
4.51696
4.48159
4.44739
4.4143
4.38229
4.35131
4.32132
4.29228
4.26415
4.2369
4.21049
4.1849
4.16009
4.13603
4.1127
4.09007
4.06812
4.04681
4.02613
5.16903
5.1105
5.05412
4.99983
4.94755
4.89718
4.84863
4.80183
4.75669
4.71314
4.67111
4.63053
4.59133
4.55347
4.51688
4.4815
4.44729
4.4142
4.38218
4.35119
4.32119
4.29214
4.264
4.23674
4.21033
4.18472
4.1599
4.13583
4.11249
4.08985
4.06788
4.04657
4.02588
5.16903
5.1105
5.05412
4.99982
4.94754
4.89716
4.84861
4.80181
4.75666
4.7131
4.67107
4.63048
4.59128
4.5534
4.5168
4.48142
4.4472
4.4141
4.38208
4.35108
4.32107
4.29201
4.26386
4.2366
4.21017
4.18456
4.15973
4.13565
4.1123
4.08965
4.06767
4.04635
4.02564
5.16903
5.1105
5.05411
4.99982
4.94753
4.89715
4.8486
4.80178
4.75663
4.71307
4.67103
4.63043
4.59123
4.55335
4.51674
4.48134
4.44712
4.41401
4.38198
4.35097
4.32096
4.29189
4.26374
4.23646
4.21002
4.1844
4.15957
4.13548
4.11212
4.08946
4.06747
4.04614
4.02542
5.16903
5.11049
5.05411
4.99981
4.94752
4.89714
4.84858
4.80177
4.75661
4.71304
4.67099
4.63039
4.59118
4.55329
4.51668
4.48128
4.44704
4.41393
4.38189
4.35088
4.32085
4.29178
4.26361
4.23633
4.20989
4.18426
4.15941
4.13531
4.11194
4.08927
4.06728
4.04593
4.02521
5.16903
5.11049
5.05411
4.99981
4.94752
4.89713
4.84857
4.80175
4.75659
4.71302
4.67096
4.63036
4.59114
4.55324
4.51662
4.48122
4.44698
4.41385
4.3818
4.35078
4.32075
4.29167
4.2635
4.23621
4.20976
4.18412
4.15926
4.13516
4.11178
4.0891
4.06709
4.04574
4.02501
5.16903
5.11049
5.0541
4.99981
4.94751
4.89712
4.84856
4.80174
4.75657
4.713
4.67094
4.63033
4.5911
4.5532
4.51657
4.48116
4.44691
4.41379
4.38173
4.3507
4.32066
4.29157
4.26339
4.23609
4.20963
4.18399
4.15912
4.13501
4.11162
4.08893
4.06692
4.04555
4.02481
5.16903
5.11049
5.0541
4.9998
4.94751
4.89712
4.84855
4.80172
4.75656
4.71298
4.67091
4.6303
4.59107
4.55316
4.51653
4.48111
4.44686
4.41372
4.38166
4.35062
4.32058
4.29148
4.26329
4.23598
4.20952
4.18386
4.15899
4.13487
4.11147
4.08877
4.06675
4.04537
4.02462
5.16903
5.11049
5.0541
4.9998
4.9475
4.89711
4.84854
4.80171
4.75655
4.71296
4.67089
4.63027
4.59104
4.55313
4.51649
4.48107
4.44681
4.41367
4.3816
4.35056
4.3205
4.2914
4.2632
4.23589
4.20941
4.18375
4.15887
4.13474
4.11133
4.08862
4.06659
4.0452
4.02444
5.16903
5.11049
5.0541
4.9998
4.9475
4.89711
4.84854
4.8017
4.75653
4.71294
4.67087
4.63025
4.59101
4.5531
4.51645
4.48102
4.44676
4.41361
4.38154
4.35049
4.32043
4.29132
4.26312
4.23579
4.20931
4.18364
4.15875
4.13461
4.1112
4.08848
4.06643
4.04504
4.02426
5.16903
5.11049
5.0541
4.9998
4.9475
4.89711
4.84853
4.8017
4.75653
4.71294
4.67086
4.63024
4.59099
4.55308
4.51643
4.481
4.44673
4.41358
4.38149
4.35044
4.32038
4.29126
4.26305
4.23572
4.20923
4.18355
4.15865
4.1345
4.11108
4.08835
4.0663
4.04489
4.02411
5.16903
5.11049
5.0541
4.9998
4.9475
4.8971
4.84853
4.80169
4.75651
4.71292
4.67084
4.63021
4.59097
4.55305
4.51639
4.48096
4.44669
4.41353
4.38144
4.35039
4.32032
4.29119
4.26298
4.23564
4.20915
4.18346
4.15855
4.1344
4.11097
4.08823
4.06617
4.04476
4.02396
5.16903
5.11049
5.0541
4.9998
4.9475
4.89711
4.84854
4.8017
4.75653
4.71294
4.67086
4.63023
4.59098
4.55306
4.5164
4.48096
4.44669
4.41353
4.38144
4.35037
4.3203
4.29117
4.26295
4.2356
4.2091
4.18341
4.15849
4.13433
4.11089
4.08815
4.06608
4.04466
4.02385
5.16903
5.11049
5.0541
4.9998
4.9475
4.8971
4.84853
4.80169
4.75651
4.71291
4.67083
4.6302
4.59095
4.55303
4.51637
4.48093
4.44666
4.41349
4.3814
4.35034
4.32026
4.29113
4.26291
4.23556
4.20906
4.18337
4.15845
4.13429
4.11084
4.0881
4.06603
4.0446
4.02379
5.16903
5.11049
5.0541
4.99981
4.94752
4.89714
4.84858
4.80176
4.75659
4.71301
4.67094
4.63031
4.59106
4.55314
4.51648
4.48104
4.44676
4.4136
4.38151
4.35045
4.32037
4.29124
4.26302
4.23568
4.20918
4.18349
4.15858
4.13443
4.11099
4.08826
4.0662
4.04478
4.02399
5.16903
5.11051
5.05414
4.99985
4.94756
4.89718
4.84861
4.80178
4.75661
4.71302
4.67096
4.63034
4.5911
4.5532
4.51656
4.48115
4.4469
4.41377
4.38171
4.35069
4.32066
4.29158
4.26342
4.23614
4.2097
4.18409
4.15925
4.13517
4.11182
4.08918
4.06721
4.04589
4.0252
5.16903
5.1105
5.05415
4.99992
4.9477
4.89739
4.8489
4.80214
4.75704
4.71352
4.67152
4.63097
4.59182
4.55401
4.51749
4.4822
4.4481
4.41514
4.38327
4.35246
4.32266
4.29383
4.26594
4.23894
4.21281
4.18752
4.16302
4.1393
4.11632
4.09405
4.07247
4.05155
4.03127
5.16905
5.11063
5.05441
5.00026
4.94809
4.89786
4.84947
4.80288
4.75802
4.71482
4.67323
4.63318
4.59462
4.55749
4.52173
4.48728
4.45411
4.42214
4.39134
4.36166
4.33304
4.30545
4.27884
4.25317
4.2284
4.20449
4.18141
4.15911
4.13757
4.11676
4.09664
4.07719
4.05837
5.16908
5.11079
5.05488
5.00136
4.95017
4.9012
4.85441
4.80972
4.76711
4.72649
4.68781
4.65099
4.61595
4.58259
4.55085
4.52063
4.49184
4.4644
4.43824
4.41328
4.38945
4.36667
4.34489
4.32404
4.30407
4.28493
4.26656
4.24892
4.23197
4.21567
4.19998
4.18487
4.1703
5.16939
5.11358
5.06201
5.01464
4.97149
4.93249
4.89746
4.86615
4.83823
4.81337
4.79126
4.7716
4.75409
4.73847
4.72453
4.71204
4.70082
4.6907
4.68154
4.67321
4.66561
4.65862
4.65216
4.64617
4.64056
4.63529
4.63031
4.62557
4.62104
4.61667
4.61245
4.60835
4.60435
5.17808
5.16328
5.16949
5.19116
5.22432
5.26596
5.31367
5.36559
5.42027
5.47664
5.53386
5.59126
5.64835
5.70474
5.76013
5.81431
5.8671
5.9184
5.96812
6.01623
6.06268
6.10748
6.15064
6.19216
6.23209
6.27045
6.30728
6.34263
6.37654
6.40905
6.44023
6.47012
6.49878
5.63861
6.43046
7.14594
7.82587
8.49511
9.14766
9.77762
10.3827
10.9626
11.5183
12.0512
12.5628
13.0547
13.5282
13.9847
14.4253
14.851
15.2625
15.6608
16.0466
16.4203
16.7827
17.1343
17.4754
17.8067
18.1284
18.4411
18.745
19.0406
19.3282
19.6082
19.8808
20.1465
44.7794
48.3124
51.8864
55.4656
59.0311
62.5709
66.0743
69.5318
72.9344
76.2744
79.545
82.7403
85.8555
88.8864
91.8301
94.684
97.4465
100.117
102.694
105.178
107.57
109.87
112.08
114.201
116.235
118.183
120.049
121.834
123.54
125.17
126.726
128.211
129.628
700.835
830.193
940.865
1038.44
1124.14
1191.88
1233.88
1245.45
1227.26
1184.89
1126.7
1061.23
995.331
933.289
876.962
826.55
781.493
741.136
705.013
672.841
644.409
619.47
597.682
578.613
561.788
546.733
533.006
520.211
507.997
496.049
484.078
471.817
459.015
445.436
430.857
415.068
397.868
379.066
358.488
335.981
311.426
284.764
256.027
225.378
193.179
160.061
127.002
95.3826
66.9346
43.4624
26.2508
15.3699
9.51974
6.79999
5.67825
5.28539
5.2105
5.26828
5.3731
5.48399
5.58133
5.65651
5.70699
5.7336
5.73905
5.72686
5.70081
5.66454
5.62132
5.57396
5.52479
5.47568
5.42811
5.38322
5.34178
5.30427
5.27084
5.24137
5.21553
5.19283
5.17271
5.1546
5.13795
5.12226
5.10702
5.09171
5.07569
5.05818
5.03814
5.01428
4.98498
4.94835
4.90224
4.84442
4.77279
4.68539
4.58168
4.45708
4.33409
4.09046
147.834
154.879
166.096
183.543
209.269
245.057
291.847
349.046
414.084
482.431
548.22
605.375
649.083
676.217
686.721
683.046
669.048
648.819
625.79
602.329
579.762
558.642
539.068
520.932
504.063
488.284
473.416
459.271
445.637
432.284
418.966
405.438
391.462
376.814
361.287
344.69
326.852
307.622
286.877
264.537
240.582
215.079
188.223
160.382
132.15
104.394
78.2676
55.1254
36.2709
22.5165
13.745
8.89134
6.518
5.46701
5.05796
4.95196
4.98652
5.0809
5.19293
5.30009
5.39073
5.45956
5.50522
5.52875
5.53257
5.51981
5.49381
5.45782
5.41479
5.36731
5.31753
5.26724
5.2179
5.17064
5.12633
5.08555
5.04861
5.01557
4.98626
4.96035
4.93741
4.91696
4.89853
4.88164
4.86579
4.85047
4.83504
4.81873
4.80056
4.77926
4.75331
4.72089
4.67996
4.62839
4.56412
4.48522
4.39109
4.27729
4.16474
3.93975
30.3519
30.8038
31.4807
32.5992
34.4018
37.2233
41.5883
48.2656
58.2049
72.3509
91.376
115.448
144
176.262
210.613
245.027
277.213
305.072
327.159
342.891
352.509
356.847
357.033
354.212
349.366
343.223
336.254
328.715
320.703
312.207
303.154
293.44
282.943
271.542
259.117
245.561
230.783
214.721
197.353
178.717
158.933
138.232
116.987
95.738
75.2112
56.2842
39.8867
26.7955
17.3606
11.3117
7.85526
6.05855
5.1944
4.82278
4.70779
4.72507
4.80674
4.91414
5.02469
5.12522
5.20846
5.27102
5.31217
5.33295
5.33547
5.32245
5.29683
5.26149
5.21907
5.17193
5.12207
5.07118
5.02065
4.97162
4.92497
4.88137
4.84125
4.8048
4.77201
4.74271
4.71659
4.69331
4.67244
4.65358
4.63628
4.62002
4.60422
4.58814
4.57083
4.55112
4.52757
4.49846
4.46188
4.41579
4.3582
4.28724
4.20221
4.09888
3.99651
3.79002
12.3797
12.455
12.5463
12.654
12.7836
12.9437
13.1511
13.4457
13.913
14.709
16.0664
18.2746
21.6267
26.3822
32.7108
40.5823
50.0512
61.0205
73.2015
86.1289
99.2204
111.862
123.495
133.685
142.159
148.802
153.634
156.763
158.333
158.489
157.348
154.987
151.442
146.722
140.814
133.707
125.4
115.926
105.366
93.866
81.6571
69.0665
56.5233
44.544
33.6873
24.4674
17.231
12.0412
8.64933
6.60863
5.4598
4.85403
4.5688
4.47145
4.48269
4.55367
4.65347
4.76217
4.86686
4.95943
5.03509
5.09157
5.12847
5.1467
5.1481
5.13499
5.10993
5.07545
5.03393
4.98749
4.93798
4.88697
4.83578
4.78552
4.73707
4.69115
4.64826
4.60871
4.5726
4.53991
4.51047
4.48402
4.46027
4.43886
4.4194
4.40143
4.38442
4.36767
4.35031
4.33126
4.30916
4.28245
4.24932
4.20786
4.15617
4.09243
4.0159
3.9225
3.82992
3.64154
7.9826
8.00051
8.01781
8.03444
8.05087
8.06776
8.08511
8.10243
8.12025
8.14414
8.19092
8.29485
8.51007
8.90729
9.56172
10.5419
11.7959
13.3311
15.1674
17.3223
19.8011
22.5888
25.645
28.9029
32.272
35.6454
38.9089
41.9502
44.6653
46.9622
48.7608
49.9914
50.5927
50.5113
49.7038
48.1417
45.8201
42.7671
39.0541
34.8046
30.1967
25.4581
20.8483
16.626
13.0054
10.1113
7.95507
6.44995
5.4579
4.83966
4.48198
4.30194
4.2409
4.2575
4.32228
4.41404
4.51746
4.6215
4.7183
4.8025
4.87078
4.92149
4.95438
4.97023
4.97059
4.95745
4.93301
4.89951
4.85905
4.81355
4.7647
4.71396
4.66256
4.61156
4.56184
4.51411
4.46892
4.42665
4.38752
4.35161
4.31886
4.28913
4.26221
4.23786
4.21573
4.19544
4.17652
4.15834
4.14011
4.12084
4.09932
4.0741
4.04353
4.00581
3.95918
3.90186
3.8331
3.74901
3.66568
3.49484
6.1464
6.15203
6.15579
6.15808
6.1592
6.15947
6.15922
6.15864
6.15762
6.15591
6.15373
6.15311
6.15963
6.18394
6.2426
6.35063
6.51048
6.72409
6.99247
7.31598
7.69412
8.12501
8.60506
9.12863
9.68778
10.2722
10.8692
11.4641
12.0399
12.5782
13.0583
13.4584
13.7549
13.9231
13.9387
13.7799
13.4304
12.8841
12.1499
11.2543
10.2427
9.17523
8.11866
7.13554
6.27377
5.56057
5.00262
4.59118
4.30856
4.13357
4.04495
4.02306
4.05062
4.11282
4.19722
4.29352
4.39333
4.48994
4.57814
4.65414
4.71545
4.76079
4.78995
4.80358
4.80296
4.7898
4.76599
4.73348
4.69415
4.64973
4.60176
4.55157
4.50032
4.44901
4.39847
4.34942
4.30242
4.25789
4.21612
4.17726
4.14137
4.10841
4.07826
4.05074
4.02562
4.00257
3.9812
3.96096
3.94116
3.92093
3.89918
3.8746
3.8457
3.81084
3.76838
3.71663
3.65484
3.5793
3.50461
3.35054
5.19475
5.19408
5.19215
5.18902
5.18486
5.17988
5.17434
5.16841
5.16222
5.15572
5.14875
5.14116
5.13314
5.12557
5.12083
5.12149
5.1302
5.14909
5.17955
5.22233
5.27752
5.34462
5.42255
5.50968
5.60387
5.70252
5.80264
5.90092
5.99383
6.07765
6.14847
6.20229
6.23496
6.24224
6.21996
6.16419
6.07177
5.94093
5.77209
5.56871
5.33771
5.08935
4.83629
4.59211
4.36951
4.17875
4.02679
3.917
3.84948
3.82169
3.82914
3.86618
3.92654
4.00385
4.09192
4.185
4.27789
4.36604
4.44571
4.51397
4.56884
4.60926
4.63501
4.64659
4.64506
4.63187
4.60865
4.57712
4.53895
4.49567
4.4487
4.39927
4.34845
4.29717
4.24622
4.19629
4.14794
4.10161
4.05762
4.0162
3.97746
3.94146
3.90815
3.87744
3.84917
3.8231
3.79891
3.77616
3.75425
3.73242
3.70972
3.68502
3.65697
3.6241
3.58491
3.53785
3.48214
3.41433
3.34754
3.20931
4.66035
4.65376
4.64647
4.63848
4.62987
4.62073
4.6112
4.6014
4.59143
4.58132
4.57104
4.56046
4.54942
4.53782
4.52567
4.51319
4.50087
4.48928
4.47904
4.47067
4.46455
4.46087
4.45964
4.46063
4.46339
4.46729
4.4715
4.47507
4.47695
4.47607
4.47131
4.46161
4.44595
4.42338
4.39309
4.35442
4.30698
4.25072
4.18612
4.11431
4.03722
3.95761
3.87903
3.80554
3.74134
3.69037
3.65585
3.63997
3.64371
3.66683
3.70798
3.76485
3.83448
3.91343
3.99804
4.08454
4.16929
4.24892
4.32048
4.38161
4.43063
4.46659
4.48923
4.49894
4.49658
4.48337
4.46072
4.43013
4.39309
4.35098
4.3051
4.25656
4.20636
4.15538
4.10435
4.05393
4.00466
3.95697
3.91121
3.86765
3.82644
3.78769
3.75143
3.71765
3.68625
3.65708
3.62989
3.60432
3.5799
3.55599
3.53177
3.50627
3.47833
3.44664
3.40985
3.36656
3.31602
3.25505
3.19536
3.07187
4.3541
4.34199
4.3296
4.31692
4.30395
4.29074
4.27735
4.26385
4.25029
4.23673
4.22315
4.20951
4.19574
4.18171
4.16726
4.15229
4.13674
4.1206
4.10393
4.08684
4.06948
4.05196
4.03441
4.01689
3.99941
3.9819
3.96422
3.94618
3.92752
3.90798
3.88727
3.86511
3.84126
3.81555
3.78787
3.75822
3.72674
3.69374
3.65972
3.62545
3.59194
3.56051
3.53273
3.51033
3.49516
3.48896
3.49322
3.50902
3.53688
3.57671
3.62781
3.68884
3.75798
3.83297
3.91124
3.99002
4.06652
4.13802
4.20209
4.25673
4.30045
4.33238
4.35223
4.36025
4.35714
4.34392
4.32181
4.29212
4.25618
4.21525
4.17048
4.12293
4.07351
4.02303
3.97219
3.9216
3.87177
3.82314
3.77605
3.73077
3.6875
3.64638
3.6075
3.57089
3.53653
3.50431
3.47409
3.44559
3.41843
3.3921
3.36593
3.33909
3.31061
3.27936
3.24417
3.20377
3.15748
3.1024
3.04895
2.93895
4.18148
4.16461
4.1477
4.13073
4.1137
4.09663
4.07955
4.06251
4.04554
4.02868
4.01195
3.99533
3.97879
3.96225
3.94563
3.92882
3.91172
3.89424
3.87629
3.85784
3.83887
3.81938
3.7994
3.77897
3.75813
3.73691
3.71536
3.69348
3.67128
3.64876
3.62592
3.60278
3.57937
3.55577
3.53209
3.50853
3.48536
3.46294
3.44175
3.42238
3.40554
3.39207
3.3829
3.37903
3.38145
3.3911
3.40876
3.435
3.47004
3.51374
3.56558
3.62458
3.68941
3.75836
3.82943
3.90042
3.96904
4.03301
4.09025
4.13901
4.17796
4.20625
4.22356
4.23006
4.22627
4.21306
4.19148
4.16266
4.1278
4.08802
4.0444
3.99788
3.94934
3.89951
3.84907
3.79858
3.74852
3.6993
3.65127
3.6047
3.55979
3.51672
3.4756
3.4365
3.39944
3.36439
3.33126
3.29985
3.26988
3.24096
3.21256
3.184
3.15446
3.12303
3.08868
3.05034
3.00741
2.95726
2.90917
2.81132
4.0883
4.06772
4.0472
4.02674
4.00635
3.98602
3.96579
3.94568
3.92572
3.90595
3.88638
3.86703
3.84788
3.8289
3.81006
3.79129
3.77253
3.7537
3.73472
3.71554
3.69611
3.67637
3.65632
3.63595
3.61528
3.59432
3.57313
3.55174
3.53022
3.50864
3.48709
3.46566
3.44449
3.42373
3.40359
3.3843
3.36616
3.34953
3.33483
3.32255
3.31325
3.30755
3.30608
3.30952
3.31853
3.33368
3.35545
3.38416
3.41991
3.46253
3.51155
3.56621
3.62542
3.6878
3.7517
3.81528
3.87659
3.93368
3.98473
4.02817
4.06279
4.0878
4.10282
4.10793
4.10354
4.09035
4.06927
4.0413
4.00748
3.96885
3.92636
3.88092
3.83333
3.78427
3.73439
3.68419
3.63416
3.58468
3.53606
3.48858
3.44245
3.39784
3.35488
3.31368
3.27429
3.23671
3.20091
3.16676
3.13407
3.10255
3.07178
3.04124
3.01029
2.97816
2.94404
2.90701
2.86659
2.82045
2.7768
2.68967
4.04106
4.01789
3.99481
3.97181
3.94892
3.92612
3.90346
3.88095
3.85863
3.83652
3.81464
3.79302
3.77167
3.75057
3.72973
3.7091
3.68866
3.66836
3.64817
3.62802
3.60788
3.58772
3.56751
3.54723
3.52688
3.50648
3.48604
3.46561
3.44526
3.42504
3.40507
3.38546
3.36635
3.34791
3.33035
3.31392
3.29888
3.28559
3.2744
3.26573
3.26004
3.25781
3.25953
3.26572
3.27683
3.29328
3.3154
3.34338
3.37726
3.41686
3.46177
3.51135
3.56468
3.62059
3.67769
3.73439
3.78901
3.83985
3.88529
3.92393
3.95463
3.97664
3.98958
3.99342
3.98848
3.97533
3.95473
3.92757
3.89476
3.85724
3.8159
3.77156
3.72496
3.67676
3.62755
3.57783
3.52803
3.47853
3.42962
3.38158
3.33459
3.28885
3.24447
3.20159
3.16026
3.12052
3.08238
3.04577
3.01057
2.97656
2.94345
2.91084
2.87825
2.84507
2.81068
2.77431
2.73564
2.69261
2.65256
2.57469
4.01886
3.99408
3.96937
3.94474
3.9202
3.89575
3.87143
3.84725
3.82324
3.79943
3.77586
3.75254
3.7295
3.70674
3.68427
3.66208
3.64017
3.61852
3.5971
3.5759
3.55488
3.53402
3.51332
3.49275
3.47232
3.45204
3.43193
3.41202
3.39236
3.37302
3.35408
3.33567
3.3179
3.30095
3.28499
3.27026
3.25701
3.24552
3.23614
3.2292
3.22509
3.22421
3.22696
3.23374
3.2449
3.26077
3.28158
3.30747
3.33843
3.3743
3.41472
3.45912
3.50672
3.55652
3.6073
3.65769
3.70622
3.75138
3.79173
3.82599
3.85313
3.87241
3.88343
3.8861
3.88065
3.86753
3.8474
3.82101
3.78918
3.75276
3.71255
3.66931
3.62374
3.57645
3.52801
3.47889
3.42949
3.38018
3.33124
3.28291
3.2354
3.18888
3.14348
3.0993
3.05645
3.01497
2.97488
2.93616
2.89874
2.86248
2.82717
2.79255
2.75824
2.72381
2.68877
2.65257
2.61498
2.57428
2.537
2.46694
4.00922
3.98357
3.95795
3.93238
3.90687
3.88144
3.8561
3.83088
3.8058
3.7809
3.75619
3.73172
3.7075
3.68356
3.6599
3.63654
3.61348
3.59072
3.56826
3.54609
3.52419
3.50258
3.48123
3.46015
3.43935
3.41884
3.39863
3.37877
3.3593
3.34028
3.32178
3.30392
3.2868
3.27057
3.2554
3.24149
3.22907
3.21838
3.20972
3.20338
3.19969
3.19899
3.2016
3.20785
3.21803
3.2324
3.25114
3.27435
3.302
3.33394
3.36985
3.40924
3.45143
3.49553
3.5405
3.58512
3.6281
3.66809
3.70381
3.73409
3.75797
3.77474
3.78398
3.78557
3.77963
3.76655
3.74685
3.72119
3.6903
3.65494
3.61584
3.57371
3.52918
3.48286
3.43525
3.38682
3.33796
3.289
3.24022
3.19186
3.1441
3.09712
3.05103
3.00595
2.96197
2.91914
2.87751
2.83707
2.7978
2.75961
2.72236
2.68588
2.64992
2.61415
2.57827
2.54186
2.50482
2.46575
2.43052
2.36686
4.00532
3.97923
3.95316
3.92712
3.90111
3.87515
3.84926
3.82346
3.79777
3.77222
3.74684
3.72165
3.69669
3.67197
3.64751
3.62333
3.59945
3.57587
3.5526
3.52965
3.50702
3.48471
3.46273
3.44109
3.4198
3.39888
3.37835
3.35826
3.33864
3.31955
3.30107
3.28328
3.2663
3.25025
3.23529
3.22159
3.20934
3.19878
3.19015
3.18371
3.17973
3.17851
3.18033
3.18545
3.19411
3.20654
3.22286
3.24316
3.2674
3.29545
3.32701
3.36166
3.39879
3.43763
3.47726
3.51661
3.55452
3.58981
3.62131
3.64794
3.66882
3.68327
3.69087
3.69143
3.68503
3.67196
3.65266
3.6277
3.59771
3.56337
3.52536
3.48432
3.44085
3.39551
3.34879
3.30113
3.2529
3.20442
3.15597
3.10776
3.05999
3.0128
2.96633
2.92067
2.87592
2.83213
2.78935
2.7476
2.70687
2.66711
2.62825
2.59017
2.55271
2.51568
2.47886
2.44201
2.40515
2.36713
2.33332
2.27477
4.00378
3.9775
3.95123
3.92497
3.89872
3.87252
3.84635
3.82026
3.79425
3.76836
3.7426
3.717
3.69159
3.66639
3.64142
3.61671
3.59227
3.56812
3.54427
3.52073
3.49751
3.47464
3.45211
3.42995
3.40817
3.3868
3.36587
3.34542
3.32548
3.30612
3.2874
3.26942
3.25226
3.23605
3.22092
3.20704
3.19457
3.18371
3.17468
3.16771
3.16304
3.16091
3.16156
3.16523
3.17212
3.1824
3.19619
3.21355
3.23444
3.25873
3.28617
3.31637
3.34881
3.3828
3.41753
3.45206
3.48535
3.51633
3.54396
3.56725
3.58537
3.59767
3.60371
3.60331
3.59647
3.5834
3.56446
3.54015
3.51101
3.47766
3.4407
3.40074
3.35832
3.31398
3.26818
3.22134
3.17382
3.12592
3.07792
3.03002
2.98241
2.93525
2.88864
2.84269
2.79748
2.75307
2.70951
2.66682
2.62501
2.58406
2.54394
2.50457
2.46587
2.42772
2.39002
2.35263
2.31568
2.27829
2.24541
2.1908
4.00312
3.97676
3.95041
3.92405
3.8977
3.87138
3.84509
3.81886
3.79269
3.76662
3.74066
3.71483
3.68916
3.66367
3.63839
3.61333
3.58851
3.56396
3.5397
3.51573
3.49207
3.46874
3.44577
3.42316
3.40095
3.37916
3.35782
3.33696
3.31665
3.29692
3.27786
3.25953
3.24204
3.22548
3.20998
3.19569
3.18275
3.17136
3.1617
3.15396
3.14836
3.14512
3.14443
3.14651
3.15152
3.1596
3.17086
3.18534
3.20301
3.22374
3.2473
3.27337
3.30147
3.331
3.36124
3.39135
3.4204
3.44745
3.47152
3.49172
3.50729
3.51758
3.52218
3.52086
3.51358
3.50049
3.48188
3.45817
3.42984
3.39744
3.3615
3.32258
3.28121
3.23788
3.19302
3.14703
3.10027
3.05303
3.00557
2.95811
2.91082
2.86384
2.81729
2.77128
2.72587
2.68113
2.63711
2.59382
2.5513
2.50953
2.4685
2.42818
2.38852
2.34948
2.31103
2.27311
2.23597
2.19891
2.16658
2.11491
4.00275
3.97636
3.94997
3.92357
3.89718
3.8708
3.84446
3.81815
3.79191
3.76573
3.73966
3.71369
3.68786
3.66219
3.6367
3.61141
3.58634
3.5615
3.53693
3.51263
3.48864
3.46495
3.44161
3.41863
3.39604
3.37386
3.35213
3.33089
3.31019
3.29008
3.27062
3.25189
3.23398
3.21698
3.20101
3.18621
3.1727
3.16065
3.15023
3.14161
3.13499
3.13054
3.12846
3.1289
3.13202
3.13794
3.14675
3.15847
3.17308
3.19046
3.21042
3.23265
3.25675
3.28217
3.30828
3.33433
3.35951
3.38293
3.40373
3.42109
3.43428
3.4427
3.44594
3.44374
3.43603
3.4229
3.40459
3.38144
3.35387
3.32236
3.28741
3.24952
3.20917
3.16683
3.12292
3.07782
3.03186
2.98534
2.93851
2.89156
2.84469
2.79804
2.75172
2.70582
2.66043
2.6156
2.57138
2.52779
2.48487
2.4426
2.401
2.36005
2.31975
2.28008
2.24106
2.20272
2.16536
2.12845
2.09642
2.04688
4.00248
3.97607
3.94965
3.92323
3.89682
3.87041
3.84403
3.81769
3.79139
3.76515
3.739
3.71295
3.68701
3.66121
3.63557
3.6101
3.58483
3.55978
3.53497
3.51042
3.48614
3.46217
3.43852
3.41521
3.39228
3.36976
3.34768
3.32607
3.305
3.2845
3.26464
3.2455
3.22714
3.20968
3.1932
3.17783
3.1637
3.15095
3.13973
3.1302
3.12252
3.11686
3.11337
3.1122
3.11348
3.11732
3.12379
3.1329
3.14464
3.15889
3.1755
3.19418
3.21457
3.23621
3.25853
3.28085
3.30245
3.32254
3.34033
3.35506
3.36604
3.37272
3.37467
3.37164
3.36351
3.35033
3.33228
3.30964
3.28278
3.25213
3.21812
3.18122
3.14188
3.10053
3.05758
3.01337
2.96825
2.92248
2.87632
2.82998
2.78362
2.7374
2.69142
2.64579
2.60058
2.55585
2.51164
2.46799
2.42492
2.38244
2.34056
2.29928
2.25862
2.21858
2.17922
2.14061
2.10308
2.06626
2.03439
1.98634
4.00223
3.97581
3.94938
3.92294
3.8965
3.87008
3.84367
3.81729
3.79096
3.76467
3.73846
3.71233
3.68631
3.66041
3.63464
3.60904
3.58361
3.55838
3.53337
3.5086
3.48409
3.45986
3.43594
3.41235
3.38912
3.36628
3.34387
3.32192
3.30049
3.27962
3.25937
3.23981
3.22102
3.20308
3.18608
3.17015
3.15539
3.14193
3.1299
3.11946
3.11074
3.10388
3.09903
3.09631
3.09584
3.0977
3.10195
3.10861
3.11766
3.129
3.14249
3.15788
3.17486
3.19301
3.21184
3.23074
3.24905
3.26607
3.28107
3.29336
3.30229
3.30734
3.30808
3.30425
3.29571
3.28246
3.26464
3.24248
3.2163
3.18645
3.15335
3.11741
3.07905
3.03869
2.99668
2.95339
2.90911
2.86414
2.81871
2.77301
2.72724
2.68152
2.63599
2.59073
2.54583
2.50135
2.45733
2.4138
2.37079
2.32832
2.2864
2.24505
2.20427
2.16411
2.12462
2.08591
2.04833
2.0116
1.97983
1.9328
4.002
3.97557
3.94912
3.92266
3.8962
3.86976
3.84332
3.81692
3.79055
3.76422
3.73796
3.71176
3.68566
3.65967
3.6338
3.60807
3.58251
3.55712
3.53194
3.50697
3.48225
3.45779
3.43363
3.40978
3.38627
3.36314
3.34043
3.31816
3.29639
3.27516
3.25453
3.23457
3.21535
3.19694
3.17945
3.16295
3.14757
3.13341
3.12061
3.10928
3.09954
3.09154
3.08539
3.08119
3.07905
3.07904
3.08121
3.08558
3.09212
3.10075
3.11135
3.1237
3.13752
3.15246
3.16806
3.18381
3.19909
3.21328
3.22571
3.23574
3.24277
3.24629
3.2459
3.24131
3.23236
3.21904
3.20143
3.17971
3.15415
3.12507
3.09283
3.05783
3.02044
2.98103
2.93998
2.8976
2.8542
2.81005
2.76538
2.72038
2.67525
2.63011
2.58509
2.5403
2.4958
2.45168
2.40796
2.3647
2.32192
2.27963
2.23786
2.19663
2.15595
2.11587
2.07645
2.03781
2.0003
1.9637
1.93203
1.88572
4.00178
3.97533
3.94886
3.92239
3.89591
3.86944
3.84299
3.81655
3.79014
3.76377
3.73746
3.71121
3.68504
3.65896
3.633
3.60716
3.58147
3.55594
3.5306
3.50546
3.48054
3.45588
3.43149
3.4074
3.38364
3.36024
3.33723
3.31466
3.29257
3.271
3.25002
3.22967
3.21003
3.19117
3.17318
3.15615
3.14017
3.12534
3.11178
3.0996
3.0889
3.0798
3.07241
3.06682
3.0631
3.06134
3.06156
3.06378
3.06798
3.0741
3.08201
3.09154
3.10245
3.11442
3.12705
3.13989
3.15238
3.16396
3.17401
3.18195
3.18722
3.18932
3.18786
3.18255
3.17322
3.15982
3.14239
3.12107
3.0961
3.06775
3.03635
3.00224
2.96579
2.92735
2.88725
2.8458
2.8033
2.75999
2.71612
2.67187
2.62742
2.58291
2.53848
2.49422
2.45021
2.40653
2.36322
2.32033
2.27788
2.23591
2.19443
2.15346
2.11304
2.0732
2.034
1.99558
1.95826
1.92186
1.89032
1.84452
4.00156
3.97509
3.94861
3.92212
3.89562
3.86913
3.84265
3.81618
3.78974
3.76333
3.73697
3.71067
3.68443
3.65828
3.63222
3.60628
3.58047
3.55482
3.52933
3.50403
3.47894
3.45408
3.42948
3.40517
3.38117
3.35752
3.33424
3.31139
3.28899
3.2671
3.24576
3.22505
3.20501
3.18572
3.16726
3.14971
3.13315
3.11768
3.1034
3.0904
3.07879
3.06866
3.06009
3.05318
3.04799
3.04458
3.04297
3.04319
3.04521
3.04898
3.0544
3.06132
3.06953
3.07876
3.08865
3.0988
3.10873
3.1179
3.12577
3.13178
3.13541
3.1362
3.13375
3.12777
3.11807
3.10457
3.08729
3.06634
3.04191
3.01425
2.98365
2.95043
2.91491
2.87742
2.83829
2.79779
2.75622
2.7138
2.67077
2.62731
2.5836
2.53979
2.49599
2.45232
2.40886
2.36569
2.32286
2.28042
2.2384
2.19683
2.15573
2.11514
2.07508
2.03559
1.99674
1.95864
1.92161
1.88547
1.85411
1.80868
4.00135
3.97487
3.94837
3.92186
3.89534
3.86883
3.84232
3.81582
3.78934
3.7629
3.73649
3.71013
3.68383
3.65761
3.63147
3.60544
3.57952
3.55374
3.52812
3.50267
3.47742
3.45238
3.42759
3.40307
3.37885
3.35496
3.33143
3.3083
3.28562
3.26342
3.24176
3.22069
3.20027
3.18057
3.16166
3.14361
3.1265
3.11042
3.09546
3.08169
3.06921
3.0581
3.04843
3.04028
3.0337
3.02874
3.02543
3.02378
3.02376
3.02535
3.02845
3.03295
3.03866
3.04536
3.05273
3.06041
3.06797
3.07494
3.0808
3.08505
3.08718
3.08675
3.08337
3.07675
3.06668
3.05306
3.0359
3.01527
2.99134
2.96433
2.9345
2.90215
2.86757
2.83106
2.79292
2.75342