/*--------------------------------*- C++ -*----------------------------------*\
| =========                 |                                                 |
| \\      /  F ield         | OpenFOAM: The Open Source CFD Toolbox           |
|  \\    /   O peration     | Version:  2.1.1                                 |
|   \\  /    A nd           | Web:      www.OpenFOAM.org                      |
|    \\/     M anipulation  |                                                 |
\*---------------------------------------------------------------------------*/
FoamFile
{
    version     2.0;
    format      ascii;
    class       volScalarField;
    location    "0.09";
    object      k;
}
// * * * * * * * * * * * * * * * * * * * * * * * * * * * * * * * * * * * * * //

dimensions      [0 2 -2 0 0 0 0];

internalField   nonuniform List<scalar> 
6820
(
0.288909
0.351398
0.415005
0.477466
0.53686
0.591558
0.640373
0.682631
0.718128
0.747034
0.769796
0.78703
0.799434
0.807728
0.812603
0.814691
0.814556
0.812683
0.809484
0.805301
0.800412
0.795044
0.789376
0.783549
0.777673
0.77183
0.766079
0.760476
0.754985
0.749925
0.743841
0.743705
0.715889
0.265532
0.269396
0.270523
0.27134
0.272558
0.274214
0.276224
0.278474
0.280855
0.28328
0.285693
0.288065
0.290385
0.29266
0.294903
0.297134
0.299373
0.301637
0.303945
0.306309
0.308738
0.31124
0.313818
0.316474
0.319209
0.322024
0.32492
0.327906
0.330995
0.334243
0.337677
0.341737
0.346102
0.262038
0.264254
0.263596
0.261557
0.259001
0.256319
0.253627
0.250939
0.248241
0.245525
0.242795
0.240063
0.237347
0.23467
0.232054
0.22952
0.227088
0.224772
0.222585
0.220537
0.218633
0.216878
0.215274
0.213819
0.212513
0.211354
0.210337
0.209459
0.208717
0.208114
0.207636
0.207313
0.20708
0.259885
0.260272
0.259797
0.258535
0.256829
0.254891
0.252833
0.25071
0.248547
0.246359
0.244153
0.241936
0.239715
0.237496
0.235288
0.233099
0.230934
0.228802
0.22671
0.224661
0.222663
0.220718
0.218831
0.217004
0.215238
0.213536
0.211897
0.210321
0.208809
0.20736
0.205969
0.204641
0.203363
0.259299
0.258404
0.2576
0.256567
0.255295
0.25385
0.252292
0.250662
0.248985
0.247278
0.245552
0.243816
0.242076
0.240336
0.238603
0.236879
0.235168
0.233475
0.231801
0.230151
0.228526
0.22693
0.225363
0.223828
0.222326
0.220858
0.219425
0.218028
0.216666
0.21534
0.21405
0.212796
0.211579
0.259224
0.257848
0.256623
0.255437
0.254227
0.25297
0.251663
0.250313
0.24893
0.247523
0.246101
0.244671
0.243238
0.241806
0.240379
0.23896
0.237551
0.236155
0.234774
0.233409
0.232063
0.230736
0.22943
0.228147
0.226885
0.225648
0.224434
0.223245
0.222081
0.220942
0.219829
0.218741
0.217681
0.259217
0.257715
0.256309
0.25498
0.253698
0.252442
0.251196
0.249951
0.248704
0.247455
0.246205
0.244956
0.243711
0.24247
0.241238
0.240014
0.238802
0.237602
0.236416
0.235244
0.234088
0.232949
0.231827
0.230723
0.229637
0.22857
0.227523
0.226495
0.225486
0.224498
0.22353
0.222583
0.221657
0.259218
0.25769
0.256225
0.254822
0.253477
0.252181
0.250924
0.249696
0.248492
0.247307
0.246137
0.244982
0.24384
0.242712
0.241596
0.240495
0.239407
0.238334
0.237275
0.236232
0.235205
0.234193
0.233198
0.23222
0.231258
0.230313
0.229385
0.228474
0.227581
0.226705
0.225847
0.225007
0.224185
0.259218
0.257686
0.256207
0.25478
0.253405
0.25208
0.2508
0.24956
0.248357
0.247186
0.246043
0.244925
0.243831
0.242759
0.241706
0.240673
0.239658
0.238662
0.237683
0.236721
0.235777
0.23485
0.23394
0.233046
0.232169
0.231309
0.230466
0.229638
0.228828
0.228033
0.227255
0.226493
0.225747
0.259218
0.257686
0.256203
0.254769
0.253384
0.252045
0.250751
0.2495
0.248289
0.247115
0.245975
0.244867
0.243789
0.242739
0.241714
0.240714
0.239736
0.238781
0.237847
0.236933
0.236038
0.235163
0.234306
0.233467
0.232646
0.231842
0.231054
0.230284
0.22953
0.228792
0.22807
0.227363
0.226672
0.259218
0.257686
0.256202
0.254767
0.253378
0.252035
0.250735
0.249477
0.24826
0.247081
0.245938
0.24483
0.243754
0.24271
0.241694
0.240706
0.239745
0.238808
0.237896
0.237006
0.236138
0.235291
0.234464
0.233657
0.232869
0.232099
0.231347
0.230612
0.229894
0.229193
0.228508
0.227839
0.227185
0.259218
0.257685
0.256201
0.254766
0.253376
0.252031
0.250729
0.249469
0.248248
0.247066
0.245921
0.24481
0.243734
0.242689
0.241675
0.240691
0.239734
0.238804
0.2379
0.237021
0.236165
0.235331
0.234519
0.233729
0.232958
0.232207
0.231474
0.23076
0.230064
0.229385
0.228722
0.228076
0.227445
0.259218
0.257685
0.256201
0.254765
0.253375
0.25203
0.250727
0.249466
0.248244
0.24706
0.245913
0.244801
0.243723
0.242677
0.241662
0.240678
0.239722
0.238794
0.237892
0.237016
0.236165
0.235337
0.234531
0.233747
0.232985
0.232243
0.23152
0.230816
0.230131
0.229464
0.228813
0.22818
0.227562
0.259218
0.257685
0.256201
0.254764
0.253374
0.252028
0.250725
0.249464
0.248241
0.247057
0.245909
0.244796
0.243717
0.24267
0.241655
0.24067
0.239714
0.238785
0.237884
0.237008
0.236158
0.235331
0.234528
0.233747
0.232987
0.232249
0.23153
0.230831
0.230151
0.229489
0.228844
0.228217
0.227606
0.259218
0.257685
0.2562
0.254764
0.253374
0.252028
0.250724
0.249462
0.248239
0.247054
0.245906
0.244792
0.243713
0.242666
0.24165
0.240664
0.239707
0.238779
0.237877
0.237001
0.236151
0.235324
0.234521
0.233741
0.232982
0.232245
0.231527
0.23083
0.230152
0.229492
0.228849
0.228225
0.227616
0.259218
0.257685
0.2562
0.254764
0.253373
0.252027
0.250723
0.249461
0.248238
0.247052
0.245904
0.24479
0.24371
0.242662
0.241646
0.24066
0.239703
0.238774
0.237872
0.236996
0.236145
0.235318
0.234515
0.233734
0.232976
0.232238
0.231521
0.230824
0.230146
0.229487
0.228845
0.228221
0.227614
0.259218
0.257685
0.2562
0.254763
0.253373
0.252026
0.250722
0.24946
0.248236
0.247051
0.245902
0.244788
0.243707
0.242659
0.241643
0.240656
0.239699
0.238769
0.237867
0.236991
0.236139
0.235312
0.234509
0.233728
0.232969
0.232232
0.231514
0.230817
0.230139
0.22948
0.228838
0.228214
0.227607
0.259218
0.257684
0.2562
0.254763
0.253372
0.252026
0.250722
0.249459
0.248235
0.247049
0.2459
0.244786
0.243705
0.242657
0.24164
0.240653
0.239695
0.238766
0.237863
0.236986
0.236135
0.235307
0.234504
0.233722
0.232963
0.232225
0.231508
0.23081
0.230132
0.229472
0.228831
0.228206
0.227599
0.259218
0.257684
0.2562
0.254763
0.253372
0.252025
0.250721
0.249458
0.248234
0.247048
0.245898
0.244784
0.243703
0.242654
0.241637
0.24065
0.239692
0.238762
0.237859
0.236982
0.23613
0.235303
0.234499
0.233717
0.232958
0.232219
0.231502
0.230804
0.230125
0.229465
0.228823
0.228199
0.227591
0.259218
0.257684
0.2562
0.254763
0.253371
0.252025
0.25072
0.249457
0.248233
0.247047
0.245897
0.244782
0.243701
0.242652
0.241635
0.240648
0.239689
0.238759
0.237856
0.236978
0.236126
0.235298
0.234494
0.233712
0.232953
0.232214
0.231496
0.230798
0.230119
0.229459
0.228816
0.228191
0.227583
0.259218
0.257684
0.256199
0.254762
0.253371
0.252024
0.25072
0.249456
0.248232
0.247046
0.245896
0.244781
0.243699
0.24265
0.241633
0.240645
0.239687
0.238756
0.237852
0.236975
0.236122
0.235294
0.23449
0.233708
0.232948
0.232209
0.23149
0.230792
0.230113
0.229452
0.228809
0.228184
0.227576
0.259218
0.257684
0.256199
0.254762
0.253371
0.252024
0.250719
0.249456
0.248231
0.247045
0.245895
0.244779
0.243698
0.242649
0.241631
0.240643
0.239684
0.238753
0.237849
0.236972
0.236119
0.235291
0.234486
0.233703
0.232943
0.232204
0.231485
0.230786
0.230107
0.229446
0.228803
0.228177
0.227569
0.259218
0.257684
0.256199
0.254762
0.253371
0.252024
0.250719
0.249455
0.248231
0.247044
0.245894
0.244778
0.243696
0.242647
0.241629
0.240641
0.239682
0.238751
0.237847
0.236969
0.236116
0.235287
0.234482
0.233699
0.232939
0.232199
0.23148
0.230781
0.230101
0.22944
0.228797
0.228171
0.227562
0.259218
0.257684
0.256199
0.254762
0.253371
0.252023
0.250719
0.249455
0.24823
0.247043
0.245893
0.244777
0.243695
0.242646
0.241627
0.240639
0.23968
0.238749
0.237844
0.236966
0.236113
0.235284
0.234478
0.233695
0.232935
0.232195
0.231476
0.230776
0.230096
0.229434
0.228791
0.228164
0.227555
0.259218
0.257684
0.256199
0.254762
0.25337
0.252023
0.250718
0.249454
0.24823
0.247043
0.245892
0.244776
0.243694
0.242644
0.241626
0.240637
0.239678
0.238746
0.237842
0.236963
0.23611
0.235281
0.234475
0.233692
0.232931
0.232191
0.231471
0.230771
0.230091
0.229429
0.228785
0.228158
0.227548
0.259218
0.257684
0.256199
0.254762
0.25337
0.252023
0.250718
0.249454
0.248229
0.247042
0.245891
0.244775
0.243693
0.242643
0.241625
0.240636
0.239676
0.238745
0.23784
0.236961
0.236107
0.235278
0.234472
0.233689
0.232927
0.232187
0.231467
0.230767
0.230086
0.229424
0.228779
0.228152
0.227542
0.259218
0.257684
0.256199
0.254762
0.25337
0.252023
0.250718
0.249454
0.248229
0.247042
0.245891
0.244775
0.243692
0.242642
0.241623
0.240635
0.239675
0.238743
0.237838
0.236959
0.236105
0.235275
0.234469
0.233686
0.232924
0.232183
0.231463
0.230763
0.230082
0.229419
0.228774
0.228147
0.227536
0.259218
0.257684
0.256199
0.254762
0.25337
0.252023
0.250718
0.249454
0.248229
0.247041
0.24589
0.244774
0.243692
0.242642
0.241623
0.240634
0.239674
0.238742
0.237837
0.236957
0.236103
0.235273
0.234467
0.233683
0.232921
0.23218
0.23146
0.230759
0.230078
0.229415
0.22877
0.228142
0.227531
0.259218
0.257684
0.256199
0.254762
0.25337
0.252023
0.250718
0.249453
0.248228
0.247041
0.24589
0.244774
0.243691
0.242641
0.241622
0.240633
0.239673
0.23874
0.237835
0.236956
0.236101
0.235271
0.234465
0.233681
0.232918
0.232177
0.231457
0.230756
0.230074
0.229411
0.228765
0.228137
0.227526
0.259218
0.257684
0.256199
0.254762
0.25337
0.252023
0.250718
0.249454
0.248229
0.247041
0.24589
0.244774
0.243692
0.242641
0.241622
0.240633
0.239673
0.23874
0.237835
0.236955
0.236101
0.235271
0.234464
0.233679
0.232917
0.232176
0.231455
0.230754
0.230071
0.229408
0.228762
0.228134
0.227522
0.259218
0.257684
0.256199
0.254762
0.25337
0.252023
0.250718
0.249453
0.248228
0.247041
0.24589
0.244774
0.243691
0.242641
0.241621
0.240632
0.239672
0.23874
0.237834
0.236955
0.2361
0.23527
0.234463
0.233678
0.232916
0.232174
0.231453
0.230752
0.23007
0.229406
0.22876
0.228131
0.227519
0.259218
0.257684
0.256199
0.254762
0.253371
0.252024
0.25072
0.249456
0.248231
0.247044
0.245893
0.244777
0.243695
0.242644
0.241625
0.240636
0.239676
0.238743
0.237837
0.236958
0.236103
0.235273
0.234465
0.233681
0.232918
0.232176
0.231455
0.230753
0.23007
0.229406
0.22876
0.228131
0.227518
0.259218
0.257685
0.2562
0.254764
0.253373
0.252026
0.250721
0.249457
0.248232
0.247045
0.245895
0.244779
0.243697
0.242647
0.241628
0.240639
0.239678
0.238746
0.237841
0.236961
0.236106
0.235276
0.234468
0.233683
0.23292
0.232178
0.231456
0.230753
0.23007
0.229405
0.228758
0.228128
0.227514
0.259218
0.257685
0.256201
0.254766
0.253378
0.252033
0.250731
0.249469
0.248246
0.24706
0.24591
0.244795
0.243713
0.242662
0.241643
0.240654
0.239693
0.23876
0.237853
0.236972
0.236116
0.235284
0.234475
0.233688
0.232922
0.232178
0.231453
0.230748
0.230062
0.229393
0.228743
0.228109
0.227492
0.259219
0.257689
0.25621
0.254777
0.25339
0.252046
0.250744
0.249482
0.248259
0.247074
0.245924
0.244809
0.243726
0.242675
0.241655
0.240664
0.2397
0.238764
0.237854
0.236969
0.236108
0.23527
0.234455
0.233661
0.232888
0.232136
0.231403
0.230689
0.229993
0.229315
0.228655
0.22801
0.227383
0.25922
0.257694
0.256221
0.254799
0.253423
0.252089
0.250795
0.249539
0.248318
0.247131
0.245978
0.244857
0.243767
0.242706
0.241673
0.240669
0.23969
0.238738
0.23781
0.236906
0.236025
0.235166
0.234329
0.233513
0.232717
0.23194
0.231183
0.230444
0.229724
0.22902
0.228334
0.227664
0.22701
0.259229
0.257738
0.256292
0.254882
0.253509
0.252172
0.250871
0.249603
0.248368
0.247162
0.245985
0.244837
0.243715
0.24262
0.241551
0.240508
0.239488
0.238493
0.237521
0.236572
0.235645
0.23474
0.233856
0.232993
0.232149
0.231325
0.23052
0.229733
0.228965
0.228214
0.22748
0.226762
0.226061
0.259265
0.257822
0.256453
0.255125
0.253804
0.252483
0.251163
0.249854
0.248561
0.24729
0.246044
0.244827
0.243638
0.242478
0.241348
0.240246
0.239171
0.238123
0.237101
0.236104
0.235131
0.234182
0.233255
0.23235
0.231466
0.230602
0.229759
0.228935
0.22813
0.227343
0.226575
0.225824
0.22509
0.259599
0.258632
0.257578
0.256541
0.255587
0.254714
0.253905
0.253151
0.252444
0.251783
0.251165
0.25059
0.250058
0.249567
0.249117
0.248706
0.248332
0.247994
0.247691
0.247419
0.247179
0.246967
0.246782
0.246624
0.246489
0.246378
0.246288
0.246218
0.246168
0.246135
0.246121
0.246122
0.246139
0.266719
0.280569
0.294241
0.307622
0.320668
0.333362
0.345692
0.357649
0.369224
0.380412
0.39121
0.401617
0.411636
0.421268
0.430518
0.439392
0.447897
0.456042
0.463835
0.471285
0.478404
0.485199
0.491684
0.497868
0.503761
0.509376
0.514722
0.519811
0.524653
0.529257
0.533635
0.537795
0.541751
0.84055
1.01256
1.20478
1.41932
1.64666
1.86811
2.06406
2.22059
2.33304
2.40538
2.44709
2.46916
2.48087
2.4883
2.49441
2.50031
2.5065
2.51383
2.52352
2.5369
2.55502
2.57843
2.60715
2.64071
2.67831
2.71894
2.76138
2.8043
2.8462
2.8855
2.92051
2.94949
2.9706
2.982
2.98177
2.96796
2.93858
2.89161
2.82503
2.73689
2.62541
2.48904
2.32677
2.13833
1.92466
1.68859
1.43569
1.17547
0.922353
0.695354
0.514127
0.390365
0.320369
0.288471
0.278284
0.278947
0.284564
0.292072
0.299864
0.307097
0.313358
0.318488
0.322481
0.325425
0.327458
0.32874
0.329438
0.329709
0.329698
0.329528
0.329301
0.329095
0.328969
0.328961
0.32909
0.329356
0.329749
0.330243
0.330807
0.331409
0.332015
0.332595
0.333125
0.333584
0.333953
0.334218
0.33436
0.334361
0.334195
0.333828
0.333218
0.332308
0.331031
0.329303
0.327029
0.324092
0.320404
0.315676
0.310745
0.299977
0.354518
0.368214
0.390249
0.42538
0.478957
0.55629
0.661378
0.795238
0.954584
1.13148
1.3143
1.48997
1.6471
1.77722
1.87793
1.95206
2.00553
2.04514
2.07673
2.10446
2.13083
2.15714
2.18407
2.21195
2.24096
2.27104
2.30186
2.33279
2.36283
2.39075
2.41505
2.43412
2.44619
2.44944
2.442
2.42193
2.38731
2.33623
2.26687
2.17757
2.06699
1.93429
1.7794
1.60342
1.40919
1.20198
0.990285
0.786293
0.605045
0.460994
0.361905
0.304394
0.276895
0.267303
0.267286
0.272076
0.279033
0.286651
0.294058
0.300757
0.306496
0.31118
0.314819
0.317494
0.319325
0.320453
0.321024
0.321179
0.321048
0.320745
0.320366
0.319988
0.319673
0.319462
0.319381
0.319442
0.319639
0.319959
0.320377
0.320864
0.321392
0.321931
0.322455
0.322942
0.323372
0.323724
0.323979
0.324115
0.324105
0.323913
0.323495
0.322798
0.321754
0.320281
0.318287
0.315657
0.312304
0.307948
0.303382
0.293269
0.206698
0.206469
0.206939
0.208623
0.212178
0.218579
0.229322
0.246556
0.273051
0.311896
0.365915
0.436936
0.524947
0.628741
0.744431
0.86639
0.987854
1.10242
1.2054
1.2945
1.36972
1.43272
1.48602
1.53221
1.57346
1.61128
1.64655
1.67952
1.70999
1.73733
1.76065
1.77877
1.79033
1.79381
1.78758
1.76994
1.73921
1.69377
1.63221
1.55344
1.45689
1.34277
1.21241
1.06868
0.916459
0.762971
0.617688
0.491129
0.392103
0.324128
0.283873
0.263805
0.256451
0.256515
0.260712
0.267043
0.274255
0.281548
0.288413
0.294541
0.299766
0.304027
0.30734
0.309773
0.311428
0.312426
0.312894
0.312957
0.312731
0.312322
0.311818
0.311294
0.31081
0.310413
0.310133
0.309988
0.309983
0.310111
0.310356
0.310697
0.311107
0.31156
0.312032
0.312499
0.312939
0.313331
0.313652
0.313878
0.313981
0.313924
0.313665
0.313149
0.312311
0.311073
0.309343
0.307011
0.303991
0.300012
0.295823
0.286396
0.201948
0.200448
0.199043
0.197725
0.19652
0.195495
0.19476
0.194504
0.195063
0.196977
0.201025
0.208183
0.219515
0.236109
0.258932
0.288633
0.326068
0.371425
0.424057
0.482497
0.544676
0.608265
0.671046
0.731214
0.787531
0.83934
0.886443
0.928911
0.966885
1.0004
1.02927
1.05302
1.07091
1.08196
1.085
1.07876
1.062
1.03363
0.992832
0.939286
0.87336
0.796366
0.7108
0.620516
0.530696
0.447389
0.376416
0.321753
0.284188
0.261447
0.249795
0.245707
0.246545
0.25048
0.25624
0.262921
0.269877
0.276647
0.282915
0.288475
0.29321
0.297077
0.300088
0.3023
0.303798
0.304683
0.305067
0.305057
0.304758
0.304265
0.30366
0.303014
0.302385
0.301821
0.301357
0.301015
0.300808
0.300737
0.300793
0.300961
0.301221
0.301551
0.301928
0.30233
0.302734
0.303117
0.303457
0.303728
0.3039
0.303937
0.303797
0.303428
0.302765
0.301734
0.300247
0.298197
0.2955
0.291897
0.288085
0.279364
0.21021
0.208688
0.207184
0.20569
0.204203
0.202732
0.201284
0.199874
0.198531
0.19731
0.196309
0.195686
0.195652
0.19647
0.198423
0.201792
0.206591
0.213032
0.221388
0.231923
0.244846
0.26026
0.278126
0.298245
0.320263
0.343704
0.368019
0.392625
0.41694
0.440387
0.462387
0.482327
0.499538
0.513276
0.522735
0.527079
0.525522
0.517432
0.50247
0.480733
0.452899
0.420317
0.385011
0.349518
0.316523
0.288331
0.266345
0.250852
0.241247
0.236501
0.235543
0.237424
0.241346
0.246641
0.252753
0.259228
0.265697
0.271876
0.27755
0.282571
0.286851
0.290354
0.293088
0.295098
0.296454
0.29724
0.297552
0.297484
0.297129
0.29657
0.295885
0.295139
0.294388
0.29368
0.29305
0.292525
0.292124
0.291853
0.291711
0.291691
0.291778
0.291954
0.292201
0.292497
0.292822
0.293152
0.293466
0.293736
0.293933
0.294023
0.293962
0.293701
0.293179
0.292325
0.291054
0.289265
0.286876
0.283638
0.2802
0.272198
0.216476
0.21511
0.213739
0.212366
0.210989
0.209606
0.208217
0.206829
0.205448
0.204083
0.202751
0.20148
0.200313
0.199313
0.198562
0.198133
0.198056
0.198364
0.199093
0.200284
0.201979
0.204218
0.207034
0.21045
0.21447
0.219083
0.22425
0.229911
0.23598
0.24234
0.248845
0.255312
0.261518
0.267197
0.272042
0.275714
0.277874
0.278229
0.276586
0.272922
0.267433
0.260545
0.252886
0.245187
0.238166
0.232404
0.228283
0.225978
0.225492
0.226704
0.229409
0.233347
0.238233
0.243774
0.249686
0.25571
0.261613
0.267199
0.272313
0.276839
0.280705
0.283877
0.286359
0.288185
0.28941
0.290108
0.290358
0.290242
0.289843
0.289234
0.288487
0.287661
0.286809
0.285977
0.285202
0.284512
0.28393
0.283467
0.283128
0.282912
0.282811
0.282811
0.282899
0.283057
0.283265
0.283502
0.283747
0.283974
0.284154
0.284252
0.284229
0.284038
0.28362
0.282908
0.281823
0.280269
0.278167
0.27528
0.272207
0.264924
0.220602
0.219402
0.21819
0.216967
0.215732
0.214488
0.213235
0.211976
0.210715
0.209455
0.208203
0.206965
0.205753
0.204583
0.203479
0.202465
0.201565
0.200797
0.200177
0.199719
0.199433
0.19933
0.199415
0.199693
0.200165
0.200829
0.201679
0.202706
0.203894
0.205225
0.206673
0.208205
0.209782
0.211352
0.212858
0.21423
0.215394
0.216281
0.216833
0.217025
0.216875
0.216457
0.215901
0.215381
0.215095
0.215239
0.215983
0.217451
0.219711
0.222767
0.226568
0.231015
0.235971
0.241275
0.246757
0.252246
0.257578
0.262607
0.267209
0.271289
0.274782
0.277657
0.279911
0.28157
0.282678
0.283296
0.283491
0.283335
0.2829
0.282253
0.281457
0.280568
0.279635
0.2787
0.277801
0.276966
0.27622
0.275578
0.275049
0.274638
0.274342
0.274154
0.274063
0.274057
0.274117
0.274228
0.274367
0.274511
0.274632
0.274699
0.274673
0.274511
0.274158
0.273553
0.27262
0.27127
0.269428
0.266872
0.264147
0.257576
0.223246
0.222175
0.221091
0.219994
0.218885
0.217766
0.216637
0.215502
0.214364
0.213226
0.212091
0.210963
0.209846
0.208745
0.207667
0.206622
0.205618
0.204666
0.203777
0.202958
0.202217
0.201561
0.200994
0.200521
0.200144
0.199864
0.199679
0.19959
0.199594
0.199686
0.199862
0.200116
0.200442
0.200831
0.201275
0.201764
0.20229
0.202844
0.203422
0.204029
0.204677
0.205398
0.206236
0.207254
0.208525
0.210129
0.212137
0.214607
0.217572
0.221035
0.224968
0.22931
0.233975
0.238858
0.243837
0.248788
0.253582
0.258103
0.262247
0.265928
0.26909
0.271699
0.273749
0.275258
0.27626
0.276805
0.276952
0.276762
0.276299
0.275623
0.27479
0.273851
0.272852
0.271834
0.27083
0.269871
0.26898
0.268176
0.267471
0.266873
0.266385
0.266003
0.265723
0.265535
0.265426
0.265381
0.265383
0.26541
0.265436
0.265433
0.265366
0.265193
0.264867
0.264329
0.263512
0.262333
0.26072
0.258468
0.25607
0.250192
0.224896
0.223925
0.222942
0.221947
0.22094
0.219924
0.218899
0.217868
0.216833
0.215797
0.214763
0.213734
0.212712
0.211701
0.210703
0.209722
0.208762
0.207827
0.206922
0.206052
0.205222
0.204437
0.203701
0.203019
0.202393
0.201826
0.201322
0.200881
0.200506
0.200198
0.199958
0.199788
0.199691
0.199669
0.199725
0.199865
0.200095
0.200423
0.200861
0.201423
0.202128
0.203002
0.204073
0.205377
0.206952
0.208838
0.211067
0.213668
0.21665
0.220009
0.223718
0.227733
0.231988
0.236403
0.240883
0.245329
0.249635
0.253701
0.257436
0.260765
0.263632
0.266005
0.267873
0.269246
0.270153
0.270634
0.270738
0.27052
0.270034
0.269335
0.268474
0.267498
0.266448
0.265362
0.264273
0.263209
0.262193
0.261246
0.260382
0.25961
0.258938
0.258367
0.257895
0.257517
0.257224
0.257006
0.256846
0.256728
0.256628
0.256522
0.256377
0.256157
0.255819
0.25531
0.254571
0.253524
0.252107
0.250127
0.248029
0.242815
0.225884
0.224985
0.224077
0.223158
0.222229
0.221291
0.220346
0.219395
0.218441
0.217487
0.216534
0.215585
0.214642
0.213707
0.212783
0.211871
0.210973
0.210091
0.209227
0.208385
0.207567
0.206776
0.206016
0.205289
0.204599
0.203949
0.203342
0.202782
0.202272
0.201815
0.201416
0.20108
0.20081
0.200615
0.2005
0.200476
0.200553
0.200744
0.201063
0.201529
0.202161
0.202982
0.204014
0.205285
0.20682
0.208642
0.210771
0.213221
0.215994
0.21908
0.222457
0.226087
0.229916
0.233878
0.237897
0.241885
0.245755
0.249417
0.25279
0.255806
0.258412
0.260574
0.262279
0.263532
0.264354
0.264777
0.264844
0.264601
0.264097
0.263382
0.262501
0.261496
0.260407
0.259268
0.25811
0.256959
0.255839
0.254768
0.253764
0.252836
0.251995
0.251244
0.250586
0.250018
0.249536
0.249133
0.248796
0.248512
0.248262
0.248024
0.24777
0.24747
0.247084
0.246567
0.245867
0.244915
0.243655
0.241912
0.240082
0.235494
0.22644
0.225592
0.224735
0.223871
0.222998
0.222118
0.221232
0.220342
0.219449
0.218555
0.217663
0.216774
0.215891
0.215015
0.214148
0.213291
0.212446
0.211613
0.210794
0.209992
0.209206
0.208441
0.207696
0.206976
0.206282
0.205618
0.204986
0.204391
0.203835
0.203324
0.202862
0.202454
0.202107
0.201829
0.201629
0.201516
0.201502
0.201601
0.201829
0.202202
0.202739
0.20346
0.204386
0.205538
0.206935
0.208595
0.210531
0.212752
0.215256
0.218034
0.221066
0.224319
0.227748
0.231297
0.234899
0.238481
0.241963
0.245267
0.24832
0.251058
0.253431
0.255405
0.256964
0.258109
0.258854
0.259225
0.25926
0.258997
0.25848
0.257753
0.256857
0.255832
0.254713
0.253533
0.252321
0.2511
0.249893
0.24872
0.247595
0.246531
0.245538
0.244622
0.243789
0.24304
0.242372
0.241781
0.241261
0.240799
0.240382
0.239991
0.239603
0.239193
0.238728
0.238169
0.237471
0.236575
0.235432
0.233887
0.232289
0.22828
0.226727
0.225912
0.22509
0.224262
0.223427
0.222587
0.221742
0.220893
0.220043
0.219193
0.218344
0.217499
0.216658
0.215825
0.214999
0.214182
0.213375
0.21258
0.211796
0.211026
0.210271
0.209532
0.208809
0.208107
0.207425
0.206767
0.206136
0.205535
0.204967
0.204437
0.20395
0.20351
0.203126
0.202805
0.202555
0.202387
0.202312
0.202344
0.202497
0.202788
0.203233
0.20385
0.204658
0.205674
0.206914
0.208393
0.210122
0.212105
0.214343
0.216825
0.219534
0.222441
0.225509
0.228688
0.231921
0.235142
0.238281
0.241268
0.244036
0.246526
0.24869
0.250494
0.251922
0.252968
0.253644
0.25397
0.253975
0.253696
0.253169
0.252435
0.25153
0.250492
0.249352
0.248141
0.246886
0.24561
0.244334
0.243075
0.241849
0.240669
0.239544
0.238483
0.237491
0.236573
0.235729
0.234957
0.234253
0.23361
0.233017
0.232461
0.231922
0.23138
0.230809
0.230177
0.229447
0.22857
0.227506
0.226117
0.224711
0.221226
0.22686
0.226064
0.225263
0.224457
0.223646
0.222831
0.222012
0.221192
0.22037
0.219548
0.218728
0.217911
0.217099
0.216293
0.215494
0.214704
0.213923
0.213152
0.212393
0.211645
0.210911
0.210191
0.209486
0.208798
0.208129
0.20748
0.206855
0.206255
0.205685
0.205149
0.20465
0.204195
0.20379
0.203442
0.203159
0.202952
0.202832
0.202811
0.202902
0.20312
0.203481
0.204001
0.204696
0.205581
0.20667
0.207977
0.209508
0.211271
0.213262
0.215474
0.217892
0.22049
0.223236
0.226087
0.228992
0.231893
0.234727
0.237431
0.239944
0.242211
0.244186
0.245838
0.247145
0.248102
0.248715
0.248999
0.248979
0.248686
0.248153
0.247415
0.246506
0.245459
0.244305
0.243073
0.241786
0.240467
0.239136
0.237809
0.2365
0.235223
0.233986
0.232799
0.231669
0.2306
0.229595
0.228654
0.227775
0.226956
0.226187
0.225459
0.22476
0.224072
0.223376
0.222646
0.221855
0.220963
0.219938
0.218665
0.217411
0.214387
0.226912
0.226126
0.225336
0.224543
0.223745
0.222945
0.222142
0.221337
0.220532
0.219727
0.218925
0.218125
0.21733
0.21654
0.215757
0.214983
0.214216
0.21346
0.212714
0.21198
0.211257
0.210548
0.209853
0.209174
0.208512
0.207868
0.207246
0.206648
0.206077
0.205535
0.205029
0.204563
0.204142
0.203774
0.203467
0.203229
0.203072
0.203005
0.203043
0.203197
0.203483
0.203914
0.204506
0.205271
0.206222
0.207371
0.208724
0.210285
0.212055
0.214025
0.216183
0.218507
0.220967
0.223526
0.226139
0.228754
0.231315
0.233766
0.236049
0.238114
0.239918
0.24143
0.242627
0.243501
0.244055
0.244301
0.24426
0.243955
0.243418
0.242679
0.241769
0.240719
0.239557
0.23831
0.237001
0.23565
0.234276
0.232895
0.23152
0.230164
0.228835
0.227543
0.226295
0.225094
0.223947
0.222854
0.221816
0.22083
0.219893
0.218998
0.218137
0.217296
0.216463
0.215618
0.214742
0.213806
0.212787
0.211588
0.210446
0.207815
0.226926
0.226145
0.225361
0.224573
0.223782
0.222989
0.222195
0.221399
0.220602
0.219807
0.219013
0.218222
0.217435
0.216654
0.215879
0.215111
0.214351
0.213601
0.21286
0.21213
0.211412
0.210707
0.210015
0.209338
0.208677
0.208034
0.207411
0.20681
0.206234
0.205687
0.205173
0.204695
0.20426
0.203874
0.203545
0.20328
0.203089
0.202983
0.202972
0.20307
0.203287
0.203639
0.204137
0.204793
0.20562
0.206626
0.207818
0.209199
0.21077
0.212524
0.21445
0.216527
0.218732
0.22103
0.223382
0.22574
0.228056
0.230277
0.232352
0.234233
0.235881
0.237263
0.238358
0.239156
0.239655
0.239866
0.239803
0.239489
0.23895
0.238212
0.237304
0.236255
0.23509
0.233835
0.23251
0.231137
0.229731
0.228309
0.226883
0.225464
0.224061
0.222683
0.221336
0.220026
0.218757
0.217532
0.216352
0.215218
0.214126
0.213074
0.212056
0.211065
0.21009
0.209121
0.208145
0.207141
0.206097
0.204937
0.203868
0.201562
0.226925
0.226146
0.225363
0.224578
0.223791
0.223001
0.22221
0.221417
0.220625
0.219833
0.219043
0.218256
0.217472
0.216693
0.21592
0.215154
0.214395
0.213644
0.212903
0.212172
0.211453
0.210745
0.21005
0.20937
0.208705
0.208058
0.207429
0.206822
0.206239
0.205683
0.205158
0.204668
0.204218
0.203814
0.203463
0.203173
0.202951
0.202807
0.202752
0.202797
0.202953
0.203231
0.203644
0.204202
0.204915
0.205792
0.206839
0.208058
0.20945
0.21101
0.212726
0.214583
0.216557
0.21862
0.220736
0.222863
0.224956
0.226968
0.228853
0.230565
0.232068
0.23333
0.23433
0.235055
0.235504
0.23568
0.235598
0.235276
0.234734
0.233999
0.233096
0.232051
0.230887
0.229628
0.228295
0.226907
0.225479
0.224027
0.222562
0.221094
0.219634
0.218187
0.216761
0.215362
0.213992
0.212656
0.211356
0.210092
0.208865
0.207671
0.20651
0.205376
0.204264
0.203169
0.202083
0.200996
0.199905
0.198751
0.19772
0.19567
0.226919
0.226139
0.225358
0.224573
0.223787
0.222998
0.222208
0.221417
0.220626
0.219835
0.219046
0.218259
0.217475
0.216695
0.21592
0.215152
0.21439
0.213636
0.212891
0.212155
0.21143
0.210716
0.210015
0.209328
0.208656
0.208
0.207363
0.206746
0.206153
0.205586
0.205048
0.204543
0.204077
0.203654
0.203281
0.202964
0.202712
0.202534
0.202437
0.202433
0.202531
0.202742
0.203076
0.203544
0.204154
0.204913
0.205827
0.206899
0.208129
0.209512
0.211038
0.212695
0.214461
0.21631
0.218211
0.220127
0.222017
0.223838
0.225547
0.227104
0.228472
0.229622
0.230532
0.231189
0.231588
0.231732
0.231631
0.2313
0.230758
0.230027
0.22913
0.228091
0.226931
0.225674
0.224338
0.222941
0.221499
0.220026
0.218532
0.217029
0.215524
0.214025
0.212538
0.211067
0.209618
0.208192
0.206793
0.205421
0.204078
0.202763
0.201475
0.200213
0.198975
0.197758
0.196563
0.195385
0.19423
0.193057
0.192033
0.190174
0.226911
0.226131
0.225349
0.224565
0.223778
0.22299
0.2222
0.221409
0.220617
0.219826
0.219036
0.218247
0.217461
0.216679
0.215901
0.215128
0.214362
0.213602
0.212851
0.212109
0.211376
0.210654
0.209944
0.209248
0.208566
0.2079
0.207252
0.206624
0.206018
0.205437
0.204884
0.204364
0.20388
0.203437
0.203042
0.202699
0.202418
0.202204
0.202068
0.202017
0.202061
0.202209
0.20247
0.202854
0.203368
0.204019
0.204812
0.205749
0.20683
0.208052
0.209405
0.210878
0.212453
0.214107
0.215812
0.217534
0.219237
0.220882
0.22243
0.223842
0.225084
0.226129
0.226954
0.227546
0.227897
0.228009
0.22789
0.22755
0.227007
0.22628
0.22539
0.224358
0.223206
0.221953
0.220619
0.219219
0.21777
0.216284
0.214772
0.213244
0.211707
0.210169
0.208636
0.207111
0.205599
0.204103
0.202625
0.201167
0.19973
0.198314
0.19692
0.195548
0.194199
0.192873
0.191573
0.190304
0.189077
0.187866
0.186827
0.185098
0.226902
0.226123
0.22534
0.224555
0.223768
0.222979
0.222189
0.221397
0.220605
0.219812
0.219021
0.21823
0.217442
0.216656
0.215874
0.215097
0.214325
0.213559
0.212801
0.212051
0.21131
0.210579
0.209859
0.209152
0.208459
0.207782
0.207121
0.20648
0.205861
0.205265
0.204697
0.20416
0.203657
0.203194
0.202776
0.202408
0.202097
0.20185
0.201674
0.201579
0.201571
0.20166
0.201853
0.202159
0.202584
0.203135
0.203815
0.204627
0.205571
0.206644
0.207838
0.209143
0.210543
0.212017
0.213541
0.215085
0.216616
0.218097
0.219494
0.220771
0.221896
0.22284
0.223584
0.224113
0.224418
0.224498
0.224359
0.22401
0.223466
0.222743
0.221861
0.220838
0.219695
0.21845
0.217121
0.215724
0.214273
0.212782
0.211259
0.209715
0.208158
0.206593
0.205026
0.203462
0.201905
0.200356
0.198818
0.197293
0.195783
0.194287
0.192808
0.191345
0.189903
0.188482
0.187091
0.185736
0.184434
0.183174
0.182102
0.180452
0.226894
0.226114
0.225331
0.224546
0.223758
0.222969
0.222177
0.221385
0.220591
0.219797
0.219004
0.218211
0.217419
0.21663
0.215844
0.215062
0.214285
0.213513
0.212747
0.211989
0.21124
0.2105
0.20977
0.209053
0.208349
0.207659
0.206986
0.206332
0.205698
0.205087
0.204503
0.203948
0.203427
0.202943
0.202502
0.202108
0.201768
0.201489
0.201276
0.201138
0.201081
0.201113
0.201242
0.201474
0.201816
0.202273
0.202848
0.203545
0.204362
0.205297
0.206343
0.207493
0.208731
0.210039
0.211396
0.212775
0.214146
0.215476
0.216732
0.217882
0.218895
0.219745
0.22041
0.220877
0.221136
0.221184
0.221024
0.220665
0.220119
0.2194
0.218525
0.217513
0.216381