/*--------------------------------*- C++ -*----------------------------------*\
| =========                 |                                                 |
| \\      /  F ield         | OpenFOAM: The Open Source CFD Toolbox           |
|  \\    /   O peration     | Version:  2.1.1                                 |
|   \\  /    A nd           | Web:      www.OpenFOAM.org                      |
|    \\/     M anipulation  |                                                 |
\*---------------------------------------------------------------------------*/
FoamFile
{
    version     2.0;
    format      ascii;
    class       volScalarField;
    location    "0.09";
    object      nut;
}
// * * * * * * * * * * * * * * * * * * * * * * * * * * * * * * * * * * * * * //

dimensions      [0 2 -1 0 0 0 0];

internalField   nonuniform List<scalar> 
6820
(
4.96025e-05
5.47044e-05
5.94497e-05
6.37667e-05
6.76166e-05
7.09777e-05
7.38481e-05
7.62458e-05
7.82031e-05
7.97615e-05
8.09676e-05
8.18689e-05
8.25115e-05
8.29385e-05
8.31884e-05
8.32952e-05
8.32884e-05
8.31926e-05
8.30287e-05
8.2814e-05
8.25623e-05
8.2285e-05
8.19912e-05
8.16881e-05
8.13813e-05
8.10751e-05
8.07726e-05
8.04768e-05
8.01858e-05
7.99168e-05
7.95921e-05
7.9585e-05
7.80828e-05
0.000540295
0.000304973
0.000219962
0.00017156
0.000140522
0.000119659
0.000105133
9.47494e-05
8.71848e-05
8.16032e-05
7.74542e-05
7.43644e-05
7.20729e-05
7.03939e-05
6.91919e-05
6.83667e-05
6.78426e-05
6.75622e-05
6.74805e-05
6.75625e-05
6.77802e-05
6.81109e-05
6.85362e-05
6.90406e-05
6.96113e-05
7.02373e-05
7.09088e-05
7.16171e-05
7.23549e-05
7.31101e-05
7.38801e-05
7.46359e-05
7.52968e-05
0.00105857
0.000836086
0.000679236
0.000569612
0.000490051
0.000430114
0.0003837
0.000346854
0.000316955
0.000292239
0.000271493
0.000253855
0.000238696
0.00022555
0.00021406
0.00020395
0.000195003
0.000187046
0.000179937
0.000173563
0.000167827
0.000162651
0.000157968
0.000153721
0.000149862
0.00014635
0.000143148
0.000140227
0.000137558
0.000135122
0.00013288
0.00013088
0.000128815
0.00115953
0.00109653
0.00101167
0.000926413
0.000849806
0.000783614
0.000727059
0.000678729
0.000637208
0.000601274
0.000569925
0.000542356
0.000517928
0.000496131
0.000476559
0.000458881
0.000442834
0.000428197
0.000414791
0.000402466
0.000391095
0.000380571
0.000370803
0.000361712
0.000353231
0.000345301
0.000337874
0.000330906
0.000324362
0.000318211
0.000312441
0.000307023
0.000301998
0.00116966
0.00115863
0.00113363
0.00109757
0.00105569
0.0010122
0.000969673
0.000929416
0.000891975
0.000857476
0.000825826
0.000796836
0.000770278
0.000745921
0.000723543
0.00070294
0.00068393
0.000666348
0.000650051
0.00063491
0.000620812
0.000607657
0.000595358
0.000583834
0.000573017
0.000562845
0.000553261
0.000544217
0.000535669
0.000527578
0.000519914
0.000512647
0.000505764
0.00117006
0.00116839
0.00116306
0.00115261
0.00113713
0.00111768
0.00109554
0.00107192
0.00104772
0.00102361
0.00100001
0.000977198
0.000955332
0.00093449
0.000914698
0.000895949
0.000878217
0.000861459
0.000845629
0.000830674
0.000816542
0.000803182
0.000790544
0.000778579
0.000767243
0.000756492
0.000746286
0.000736588
0.000727363
0.000718578
0.000710206
0.000702224
0.000694608
0.00116996
0.00116938
0.00116821
0.00116569
0.00116123
0.00115458
0.00114584
0.00113528
0.00112328
0.00111024
0.0010965
0.00108235
0.00106804
0.00105374
0.0010396
0.00102573
0.00101219
0.000999027
0.000986284
0.000973976
0.000962111
0.000950691
0.000939711
0.000929162
0.000919032
0.000909308
0.000899974
0.000891015
0.000882414
0.000874155
0.000866224
0.000858608
0.000851294
0.00116994
0.0011694
0.00116883
0.00116803
0.00116674
0.00116472
0.0011618
0.00115791
0.00115305
0.00114729
0.00114075
0.00113355
0.00112583
0.00111771
0.0011093
0.00110071
0.00109201
0.00108329
0.00107458
0.00106595
0.00105743
0.00104905
0.00104084
0.00103279
0.00102494
0.00101729
0.00100985
0.00100261
0.000995571
0.000988743
0.00098212
0.000975701
0.000969483
0.00116994
0.00116939
0.00116886
0.00116832
0.0011677
0.00116692
0.00116588
0.00116449
0.00116269
0.00116043
0.00115772
0.00115456
0.00115098
0.00114702
0.00114273
0.00113816
0.00113335
0.00112835
0.00112321
0.00111796
0.00111264
0.00110727
0.00110189
0.00109652
0.00109117
0.00108587
0.00108062
0.00107544
0.00107034
0.00106532
0.0010604
0.00105557
0.00105085
0.00116994
0.00116938
0.00116885
0.00116833
0.00116782
0.00116729
0.00116671
0.00116605
0.00116526
0.00116432
0.00116319
0.00116185
0.0011603
0.00115853
0.00115654
0.00115435
0.00115198
0.00114942
0.00114672
0.00114388
0.00114092
0.00113786
0.00113472
0.00113152
0.00112828
0.00112499
0.00112169
0.00111837
0.00111505
0.00111174
0.00110845
0.00110518
0.00110194
0.00116994
0.00116938
0.00116884
0.00116832
0.00116782
0.00116732
0.00116683
0.00116634
0.00116582
0.00116527
0.00116466
0.00116399
0.00116324
0.0011624
0.00116146
0.00116042
0.00115928
0.00115803
0.00115669
0.00115525
0.00115372
0.00115211
0.00115043
0.00114868
0.00114687
0.00114501
0.0011431
0.00114116
0.00113919
0.0011372
0.00113519
0.00113317
0.00113114
0.00116994
0.00116938
0.00116884
0.00116832
0.00116781
0.00116732
0.00116684
0.00116637
0.00116591
0.00116545
0.00116499
0.00116451
0.00116402
0.00116351
0.00116296
0.00116238
0.00116176
0.00116109
0.00116038
0.00115963
0.00115883
0.00115798
0.00115708
0.00115615
0.00115517
0.00115416
0.00115311
0.00115203
0.00115092
0.00114979
0.00114864
0.00114746
0.00114628
0.00116994
0.00116938
0.00116884
0.00116832
0.00116781
0.00116732
0.00116684
0.00116637
0.00116592
0.00116547
0.00116504
0.00116461
0.00116419
0.00116377
0.00116335
0.00116292
0.00116248
0.00116203
0.00116158
0.0011611
0.00116061
0.0011601
0.00115958
0.00115903
0.00115847
0.00115789
0.00115729
0.00115667
0.00115604
0.00115539
0.00115473
0.00115405
0.00115336
0.00116994
0.00116938
0.00116884
0.00116832
0.00116781
0.00116731
0.00116683
0.00116637
0.00116591
0.00116547
0.00116504
0.00116462
0.00116421
0.00116381
0.00116342
0.00116304
0.00116266
0.00116228
0.0011619
0.00116153
0.00116115
0.00116078
0.0011604
0.00116001
0.00115963
0.00115923
0.00115884
0.00115844
0.00115803
0.00115762
0.0011572
0.00115678
0.00115635
0.00116994
0.00116938
0.00116884
0.00116832
0.00116781
0.00116731
0.00116683
0.00116636
0.00116591
0.00116547
0.00116504
0.00116462
0.00116421
0.00116382
0.00116343
0.00116305
0.00116269
0.00116233
0.00116197
0.00116163
0.00116129
0.00116095
0.00116062
0.0011603
0.00115998
0.00115966
0.00115934
0.00115903
0.00115871
0.0011584
0.00115809
0.00115778
0.00115747
0.00116994
0.00116938
0.00116884
0.00116831
0.0011678
0.00116731
0.00116683
0.00116636
0.0011659
0.00116546
0.00116503
0.00116461
0.00116421
0.00116381
0.00116342
0.00116305
0.00116268
0.00116233
0.00116198
0.00116164
0.00116131
0.00116099
0.00116067
0.00116037
0.00116006
0.00115977
0.00115948
0.00115919
0.00115891
0.00115864
0.00115837
0.00115811
0.00115785
0.00116994
0.00116938
0.00116884
0.00116831
0.0011678
0.00116731
0.00116683
0.00116636
0.0011659
0.00116546
0.00116503
0.00116461
0.0011642
0.0011638
0.00116342
0.00116304
0.00116268
0.00116232
0.00116198
0.00116164
0.00116131
0.00116099
0.00116068
0.00116037
0.00116008
0.00115979
0.0011595
0.00115923
0.00115896
0.0011587
0.00115844
0.00115819
0.00115795
0.00116994
0.00116938
0.00116884
0.00116831
0.0011678
0.00116731
0.00116682
0.00116635
0.0011659
0.00116546
0.00116502
0.0011646
0.0011642
0.0011638
0.00116341
0.00116304
0.00116267
0.00116231
0.00116197
0.00116163
0.0011613
0.00116098
0.00116067
0.00116037
0.00116007
0.00115978
0.0011595
0.00115923
0.00115896
0.0011587
0.00115845
0.0011582
0.00115797
0.00116994
0.00116938
0.00116884
0.00116831
0.0011678
0.0011673
0.00116682
0.00116635
0.0011659
0.00116545
0.00116502
0.0011646
0.00116419
0.0011638
0.00116341
0.00116303
0.00116267
0.00116231
0.00116196
0.00116162
0.00116129
0.00116097
0.00116066
0.00116036
0.00116006
0.00115977
0.00115949
0.00115922
0.00115895
0.00115869
0.00115844
0.0011582
0.00115796
0.00116994
0.00116938
0.00116884
0.00116831
0.0011678
0.0011673
0.00116682
0.00116635
0.00116589
0.00116545
0.00116502
0.0011646
0.00116419
0.00116379
0.0011634
0.00116303
0.00116266
0.0011623
0.00116196
0.00116162
0.00116129
0.00116097
0.00116065
0.00116035
0.00116005
0.00115976
0.00115948
0.00115921
0.00115894
0.00115868
0.00115843
0.00115819
0.00115795
0.00116994
0.00116938
0.00116884
0.00116831
0.0011678
0.0011673
0.00116682
0.00116635
0.00116589
0.00116545
0.00116502
0.0011646
0.00116419
0.00116379
0.0011634
0.00116302
0.00116266
0.0011623
0.00116195
0.00116161
0.00116128
0.00116096
0.00116065
0.00116034
0.00116004
0.00115975
0.00115947
0.0011592
0.00115893
0.00115867
0.00115842
0.00115817
0.00115793
0.00116994
0.00116938
0.00116884
0.00116831
0.0011678
0.0011673
0.00116682
0.00116635
0.00116589
0.00116545
0.00116501
0.00116459
0.00116418
0.00116378
0.0011634
0.00116302
0.00116265
0.00116229
0.00116194
0.00116161
0.00116127
0.00116095
0.00116064
0.00116033
0.00116004
0.00115975
0.00115946
0.00115919
0.00115892
0.00115866
0.00115841
0.00115816
0.00115792
0.00116994
0.00116938
0.00116884
0.00116831
0.0011678
0.0011673
0.00116682
0.00116635
0.00116589
0.00116545
0.00116501
0.00116459
0.00116418
0.00116378
0.00116339
0.00116302
0.00116265
0.00116229
0.00116194
0.0011616
0.00116127
0.00116095
0.00116063
0.00116033
0.00116003
0.00115974
0.00115946
0.00115918
0.00115891
0.00115865
0.0011584
0.00115815
0.00115791
0.00116994
0.00116938
0.00116884
0.00116831
0.0011678
0.0011673
0.00116682
0.00116635
0.00116589
0.00116544
0.00116501
0.00116459
0.00116418
0.00116378
0.00116339
0.00116301
0.00116264
0.00116229
0.00116194
0.0011616
0.00116126
0.00116094
0.00116063
0.00116032
0.00116002
0.00115973
0.00115945
0.00115917
0.0011589
0.00115864
0.00115839
0.00115814
0.0011579
0.00116994
0.00116938
0.00116884
0.00116831
0.0011678
0.0011673
0.00116682
0.00116635
0.00116589
0.00116544
0.00116501
0.00116459
0.00116418
0.00116378
0.00116339
0.00116301
0.00116264
0.00116228
0.00116193
0.00116159
0.00116126
0.00116094
0.00116062
0.00116031
0.00116002
0.00115972
0.00115944
0.00115916
0.00115889
0.00115863
0.00115838
0.00115813
0.00115789
0.00116994
0.00116938
0.00116884
0.00116831
0.0011678
0.0011673
0.00116682
0.00116635
0.00116589
0.00116544
0.00116501
0.00116459
0.00116418
0.00116378
0.00116339
0.00116301
0.00116264
0.00116228
0.00116193
0.00116159
0.00116126
0.00116093
0.00116062
0.00116031
0.00116001
0.00115972
0.00115943
0.00115916
0.00115889
0.00115862
0.00115837
0.00115812
0.00115787
0.00116994
0.00116938
0.00116884
0.00116831
0.0011678
0.0011673
0.00116682
0.00116635
0.00116589
0.00116544
0.00116501
0.00116459
0.00116417
0.00116377
0.00116338
0.00116301
0.00116264
0.00116228
0.00116193
0.00116158
0.00116125
0.00116093
0.00116061
0.0011603
0.00116
0.00115971
0.00115943
0.00115915
0.00115888
0.00115862
0.00115836
0.00115811
0.00115786
0.00116994
0.00116938
0.00116884
0.00116831
0.0011678
0.0011673
0.00116682
0.00116635
0.00116589
0.00116544
0.00116501
0.00116458
0.00116417
0.00116377
0.00116338
0.001163
0.00116263
0.00116227
0.00116192
0.00116158
0.00116125
0.00116092
0.00116061
0.0011603
0.00116
0.00115971
0.00115942
0.00115914
0.00115887
0.00115861
0.00115835
0.0011581
0.00115786
0.00116994
0.00116938
0.00116884
0.00116831
0.0011678
0.0011673
0.00116682
0.00116634
0.00116589
0.00116544
0.00116501
0.00116458
0.00116417
0.00116377
0.00116338
0.001163
0.00116263
0.00116227
0.00116192
0.00116158
0.00116125
0.00116092
0.00116061
0.0011603
0.00116
0.0011597
0.00115942
0.00115914
0.00115887
0.0011586
0.00115834
0.00115809
0.00115785
0.00116994
0.00116938
0.00116884
0.00116831
0.0011678
0.0011673
0.00116682
0.00116635
0.00116589
0.00116544
0.00116501
0.00116459
0.00116417
0.00116377
0.00116338
0.001163
0.00116263
0.00116227
0.00116192
0.00116158
0.00116125
0.00116092
0.0011606
0.0011603
0.00115999
0.0011597
0.00115941
0.00115913
0.00115886
0.0011586
0.00115834
0.00115809
0.00115784
0.00116994
0.00116938
0.00116884
0.00116831
0.0011678
0.0011673
0.00116682
0.00116635
0.00116589
0.00116544
0.00116501
0.00116459
0.00116418
0.00116378
0.00116339
0.00116301
0.00116264
0.00116228
0.00116192
0.00116158
0.00116125
0.00116092
0.00116061
0.0011603
0.00115999
0.0011597
0.00115941
0.00115913
0.00115886
0.00115859
0.00115833
0.00115808
0.00115783
0.00116994
0.00116938
0.00116884
0.00116831
0.0011678
0.00116731
0.00116682
0.00116635
0.0011659
0.00116545
0.00116502
0.0011646
0.00116418
0.00116378
0.00116339
0.00116301
0.00116264
0.00116228
0.00116193
0.00116158
0.00116125
0.00116092
0.0011606
0.00116029
0.00115998
0.00115968
0.00115939
0.0011591
0.00115882
0.00115855
0.00115828
0.00115802
0.00115776
0.00116994
0.00116938
0.00116884
0.00116831
0.00116781
0.00116731
0.00116683
0.00116636
0.0011659
0.00116546
0.00116502
0.0011646
0.00116419
0.00116379
0.0011634
0.00116301
0.00116263
0.00116227
0.0011619
0.00116155
0.0011612
0.00116086
0.00116052
0.00116019
0.00115986
0.00115953
0.00115921
0.0011589
0.00115859
0.00115828
0.00115797
0.00115767
0.00115737
0.00116994
0.00116938
0.00116884
0.00116833
0.00116782
0.00116733
0.00116685
0.00116638
0.00116593
0.00116548
0.00116503
0.00116459
0.00116416
0.00116373
0.00116331
0.00116288
0.00116246
0.00116204
0.00116161
0.00116119
0.00116076
0.00116033
0.0011599
0.00115946
0.00115903
0.00115858
0.00115814
0.00115769
0.00115724
0.00115678
0.00115632
0.00115586
0.0011554
0.00116994
0.00116939
0.00116886
0.00116835
0.00116784
0.00116733
0.00116683
0.00116632
0.00116581
0.00116528
0.00116473
0.00116417
0.00116358
0.00116297
0.00116233
0.00116166
0.00116097
0.00116024
0.00115949
0.00115871
0.0011579
0.00115706
0.0011562
0.00115532
0.00115441
0.00115349
0.00115254
0.00115158
0.00115061
0.00114962
0.00114861
0.0011476
0.00114658
0.00116995
0.0011694
0.00116886
0.00116828
0.00116765
0.00116694
0.00116612
0.00116519
0.00116413
0.00116295
0.00116162
0.00116017
0.00115859
0.00115689
0.00115507
0.00115314
0.00115112
0.001149
0.00114681
0.00114454
0.00114221
0.00113983
0.00113741
0.00113494
0.00113245
0.00112993
0.0011274
0.00112485
0.00112231
0.00111976
0.00111721
0.00111467
0.00111215
0.00116996
0.00116916
0.00116786
0.00116595
0.00116343
0.0011603
0.00115657
0.00115228
0.00114748
0.00114224
0.00113661
0.00113066
0.00112445
0.00111804
0.00111148
0.00110482
0.00109809
0.00109133
0.00108457
0.00107784
0.00107116
0.00106454
0.001058
0.00105156
0.00104522
0.00103899
0.00103288
0.00102689
0.00102103
0.0010153
0.00100971
0.00100424
0.000998908
0.00116831
0.00115866
0.00114501
0.00112845
0.00110971
0.0010895
0.00106846
0.00104712
0.00102586
0.00100494
0.000984557
0.000964828
0.000945824
0.000927582
0.000910115
0.000893419
0.000877477
0.000862266
0.000847758
0.000833922
0.000820726
0.000808139
0.000796129
0.000784665
0.000773717
0.000763258
0.000753261
0.0007437
0.000734552
0.000725794
0.000717404
0.000709364
0.000701651
0.00107567
0.000936195
0.000835605
0.000756876
0.000692073
0.000638319
0.000593408
0.000555512
0.000523192
0.000495344
0.00047112
0.000449868
0.00043108
0.000414359
0.000399388
0.000385913
0.000373727
0.00036266
0.000352571
0.000343342
0.000334874
0.000327082
0.000319893
0.000313245
0.000307083
0.000301359
0.000296034
0.000291069
0.000286433
0.000282097
0.000278036
0.000274226
0.000270647
0.000142979
0.000146644
0.000150174
0.000153551
0.000156773
0.000159846
0.000162775
0.000165567
0.000168224
0.000170754
0.000173161
0.000175449
0.000177624
0.00017969
0.000181652
0.000183514
0.000185282
0.000186959
0.00018855
0.000190058
0.000191488
0.000192843
0.000194127
0.000195344
0.000196497
0.000197589
0.000198623
0.000199603
0.00020053
0.000201408
0.000202239
0.000203026
0.000203772
9.07307e-05
0.000111149
0.000138846
0.000174591
0.000217085
0.000263522
0.000310751
0.000356332
0.000399163
0.000439471
0.00047834
0.000517048
0.000556523
0.000597078
0.000638556
0.000680706
0.000723526
0.000767391
0.000812941
0.000860869
0.000911736
0.000965904
0.00102354
0.00108466
0.00114919
0.00121693
0.00128755
0.00136054
0.0014352
0.00151064
0.00158579
0.00165944
0.00173023
0.00179668
0.00185719
0.00191003
0.00195335
0.00198521
0.00200361
0.00200652
0.00199196
0.00195804
0.00190312
0.00182591
0.0017258
0.00160326
0.00146068
0.00130376
0.00114389
0.00100125
0.000906234
0.000892302
0.000970325
0.00110139
0.00122745
0.00132498
0.00139869
0.00145732
0.00150614
0.00154774
0.00158338
0.00161391
0.00164
0.00166233
0.00168156
0.00169837
0.00171337
0.00172719
0.00174035
0.00175333
0.00176649
0.00178011
0.00179434
0.00180921
0.00182467
0.00184056
0.00185665
0.00187268
0.0018884
0.00190356
0.00191796
0.00193144
0.00194387
0.0019552
0.00196538
0.00197441
0.00198233
0.00198921
0.00199514
0.00200023
0.00200463
0.00200846
0.0020118
0.00201461
0.0020167
0.0020176
0.00201657
0.00201222
0.00200517
0.00197991
7.65145e-05
7.87865e-05
8.25217e-05
8.87277e-05
9.86574e-05
0.000113652
0.000134892
0.000163062
0.000198053
0.000238837
0.000283581
0.000330045
0.000376167
0.000420375
0.000462191
0.000502086
0.00054106
0.000580181
0.000620259
0.000661747
0.000704842
0.000749666
0.0007964
0.000845303
0.000896654
0.000950647
0.0010073
0.00106641
0.00112753
0.00118998
0.0012529
0.00131523
0.00137573
0.00143301
0.00148553
0.00153157
0.00156931
0.00159682
0.00161213
0.00161324
0.0015983
0.00156563
0.00151397
0.00144272
0.00135243
0.00124555
0.00112767
0.00100939
0.000908362
0.000849441
0.000857604
0.000937879
0.00105866
0.00117625
0.00127122
0.00134538
0.00140525
0.00145549
0.00149863
0.001536
0.00156836
0.00159627
0.00162028
0.00164092
0.00165876
0.00167436
0.00168828
0.00170105
0.00171317
0.00172506
0.0017371
0.00174956
0.00176262
0.00177638
0.00179083
0.00180587
0.00182134
0.001837
0.00185263
0.00186798
0.00188284
0.00189701
0.00191036
0.00192277
0.00193416
0.0019445
0.00195379
0.00196205
0.00196934
0.00197577
0.00198145
0.00198646
0.00199089
0.00199469
0.00199767
0.00199936
0.00199906
0.00199539
0.00198901
0.00196474
0.000126687
0.000124552
0.000122429
0.00012016
0.000117777
0.000115517
0.000113806
0.000113354
0.000115284
0.000121009
0.000131877
0.00014883
0.000172231
0.00020185
0.000236813
0.000275711
0.000316821
0.000358537
0.000399713
0.000439836
0.000478997
0.000517706
0.000556655
0.000596509
0.000637781
0.000680786
0.000725647
0.000772316
0.000820587
0.000870094
0.000920289
0.000970427
0.00101955
0.00106649
0.00110988
0.00114815
0.00117962
0.00120248
0.00121494
0.00121526
0.00120194
0.00117392
0.00113086
0.00107363
0.00100505
0.000930833
0.0008609
0.000810163
0.000797039
0.000835891
0.000923277
0.0010338
0.00113951
0.00122792
0.00129941
0.0013583
0.00140832
0.00145178
0.00148992
0.00152342
0.00155274
0.00157824
0.00160033
0.00161943
0.00163601
0.00165054
0.00166349
0.00167534
0.00168652
0.00169744
0.00170843
0.00171978
0.0017317
0.00174431
0.00175766
0.0017717
0.00178633
0.00180137
0.00181661
0.00183185
0.00184685
0.00186143
0.00187541
0.00188866
0.00190105
0.00191251
0.00192301
0.00193254
0.00194113
0.00194883
0.00195573
0.00196192
0.00196743
0.00197223
0.00197613
0.00197867
0.00197918
0.00197632
0.00197072
0.00194775
0.000296491
0.000290336
0.000284199
0.000278058
0.000271897
0.00026574
0.000259583
0.000253231
0.000246132
0.000237405
0.000226374
0.000213446
0.000200531
0.000190177
0.000184469
0.000184756
0.000191181
0.000203474
0.000221091
0.000243267
0.000269103
0.000297677
0.000328169
0.000359954
0.000392649
0.000426099
0.000460316
0.000495391
0.0005314
0.000568316
0.000605949
0.000643903
0.000681561
0.000718078
0.000752405
0.000783315
0.000809461
0.000829451
0.000841966
0.00084592
0.000840688
0.000826419
0.00080447
0.000777965
0.000752435
0.00073625
0.000740063
0.00077378
0.000840373
0.000930893
0.00102857
0.00111937
0.00119738
0.00126282
0.00131825
0.00136626
0.00140863
0.00144641
0.00148015
0.00151017
0.00153671
0.00156001
0.00158035
0.00159805
0.00161349
0.00162705
0.00163914
0.00165018
0.00166053
0.00167057
0.00168061
0.00169094
0.00170175
0.00171322
0.00172542
0.00173836
0.00175199
0.00176619
0.00178079
0.00179562
0.00181047
0.00182514
0.00183945
0.00185325
0.00186638
0.00187875
0.00189027
0.00190091
0.00191066
0.00191954
0.0019276
0.00193491
0.00194149
0.00194729
0.00195212
0.00195555
0.00195693
0.00195496
0.00195026
0.00192886
0.000498202
0.000489913
0.000481837
0.000473928
0.000466149
0.000458493
0.000450998
0.000443754
0.000436849
0.000430224
0.000423441
0.000415483
0.000404836
0.000390021
0.000370586
0.000347643
0.000325637
0.000306386
0.000290832
0.000279464
0.000272482
0.000269875
0.00027147
0.000276979
0.000286041
0.00029827
0.000313281
0.000330723
0.000350283
0.000371675
0.000394623
0.000418822
0.000443906
0.000469415
0.000494786
0.000519365
0.000542461
0.00056343
0.000581828
0.000597603
0.000611342
0.000624554
0.00063991
0.00066129
0.000693312
0.000739982
0.00080258
0.000878052
0.000959709
0.00104015
0.00111407
0.00117931
0.00123613
0.00128593
0.00133022
0.00137016
0.00140644
0.00143946
0.00146939
0.00149634
0.0015204
0.0015417
0.00156045
0.00157688
0.00159128
0.00160398
0.00161531
0.00162561
0.00163524
0.0016445
0.00165369
0.00166307
0.00167286
0.00168323
0.00169428
0.00170607
0.0017186
0.00173179
0.00174554
0.0017597
0.0017741
0.00178856
0.00180289
0.00181694
0.00183053
0.00184353
0.00185585
0.0018674
0.00187814
0.00188807
0.0018972
0.00190555
0.00191315
0.00191992
0.00192568
0.00193003
0.00193232
0.00193132
0.00192763
0.00190803
0.000686186
0.000676932
0.000667924
0.000659126
0.000650486
0.000641955
0.000633506
0.000625146
0.000616924
0.000608923
0.000601214
0.000593759
0.000586281
0.000578163
0.00056842
0.000556336
0.000542255
0.000526664
0.000510182
0.000493473
0.000477197
0.000461964
0.000448305
0.000436651
0.00042732
0.000420528
0.000416396
0.000414976
0.000416262
0.000420218
0.000426787
0.000435903
0.000447497
0.000461501
0.000477848
0.000496493
0.00051743
0.000540743
0.000566671
0.000595665
0.000628429
0.000665873
0.000708936
0.000758249
0.000813717
0.000874202
0.000937547
0.00100104
0.00106212
0.00111902
0.00117098
0.00121812
0.00126102
0.0013004
0.00133682
0.00137064
0.00140206
0.00143111
0.00145777
0.00148204
0.0015039
0.00152344
0.00154075
0.00155603
0.0015695
0.00158141
0.00159205
0.00160171
0.00161068
0.00161925
0.00162769
0.00163622
0.00164507
0.00165441
0.00166435
0.001675
0.00168637
0.00169845
0.00171119
0.00172447
0.00173816
0.00175211
0.00176617
0.00178014
0.00179389
0.00180724
0.00182009
0.00183231
0.00184385
0.00185465
0.00186469
0.00187399
0.00188252
0.00189022
0.00189689
0.00190215
0.00190539
0.00190544
0.00190283
0.00188525
0.000843138
0.000834093
0.000825211
0.000816475
0.000807859
0.000799333
0.000790869
0.000782455
0.000774099
0.000765836
0.000757728
0.000749848
0.000742252
0.000734921
0.000727683
0.000720357
0.00071275
0.000704735
0.000696271
0.00068741
0.000678279
0.000669069
0.000660018
0.000651393
0.000643476
0.000636546
0.00063087
0.000626692
0.000624233
0.000623688
0.000625234
0.000629034
0.00063525
0.000644045
0.000655593
0.000670078
0.000687694
0.000708638
0.000733095
0.000761214
0.000793061
0.000828562
0.000867442
0.00090917
0.00095295
0.000997786
0.00104261
0.00108646
0.0011286
0.00116866
0.00120653
0.00124234
0.00127628
0.00130855
0.00133923
0.00136834
0.00139582
0.00142157
0.00144546
0.0014674
0.00148735
0.00150532
0.00152136
0.00153561
0.00154823
0.00155943
0.00156944
0.00157852
0.00158691
0.00159487
0.00160264
0.00161042
0.00161842
0.0016268
0.00163571
0.00164524
0.00165546
0.00166639
0.001678
0.00169025
0.00170303
0.00171623
0.00172971
0.00174332
0.00175691
0.00177031
0.00178339
0.00179602
0.0018081
0.00181956
0.00183035
0.00184044
0.0018498
0.00185833
0.00186586
0.00187201
0.00187621
0.00187734
0.0018759
0.00186055
0.000962478
0.000954619
0.000946811
0.000939053
0.000931339
0.000923657
0.000915998
0.000908357
0.000900739
0.000893164
0.000885668
0.000878305
0.000871138
0.000864224
0.000857623
0.000851354
0.000845412
0.000839767
0.000834385
0.000829241
0.000824327
0.000819661
0.000815286
0.000811274
0.000807723
0.000804758
0.00080252
0.000801165
0.000800854
0.000801752
0.000804021
0.00080782
0.000813306
0.000820633
0.00082995
0.000841397
0.000855103
0.000871171
0.000889667
0.000910599
0.000933898
0.000959402
0.000986842
0.00101586
0.001046
0.00107682
0.00110786
0.00113876
0.00116924
0.00119915
0.00122842
0.00125701
0.00128492
0.00131209
0.00133843
0.00136382
0.00138809
0.00141108
0.00143262
0.00145257
0.00147086
0.00148745
0.00150237
0.00151569
0.00152755
0.0015381
0.00154755
0.0015561
0.00156398
0.00157139
0.00157856
0.00158567
0.00159291
0.00160044
0.00160839
0.00161688
0.00162599
0.00163576
0.00164621
0.00165732
0.00166904
0.00168129
0.00169396
0.00170693
0.00172006
0.0017332
0.00174621
0.00175894
0.0017713
0.00178317
0.00179449
0.00180519
0.00181522
0.00182447
0.00183277
0.00183976
0.0018449
0.00184714
0.00184689
0.00183395
0.00104546
0.00103934
0.00103318
0.00102699
0.00102076
0.00101451
0.00100822
0.0010019
0.000995572
0.000989241
0.000982935
0.000976691
0.00097055
0.000964569
0.000958809
0.000953326
0.000948169
0.000943378
0.000938979
0.000934993
0.000931435
0.000928318
0.000925656
0.000923473
0.0009218
0.000920679
0.000920167
0.000920331
0.000921251
0.000923013
0.00092571
0.00092944
0.000934299
0.000940386
0.000947794
0.00095661
0.000966909
0.000978751
0.000992168
0.00100716
0.00102369
0.00104167
0.00106097
0.00108143
0.00110285
0.00112503
0.00114778
0.00117094
0.00119437
0.00121797
0.00124166
0.00126533
0.0012889
0.00131223
0.00133519
0.00135758
0.00137921
0.00139989
0.00141944
0.00143769
0.00145454
0.00146992
0.00148384
0.00149634
0.00150752
0.00151749
0.00152643
0.0015345
0.00154191
0.00154883
0.00155547
0.00156199
0.00156855
0.00157532
0.00158241
0.00158994
0.001598
0.00160665
0.00161594
0.00162588
0.00163645
0.00164761
0.00165929
0.00167139
0.0016838
0.00169639
0.00170902
0.00172157
0.0017339
0.00174591
0.0017575
0.00176859
0.00177909
0.00178891
0.00179786
0.0018056
0.00181163
0.00181496
0.00181593
0.00180552
0.00109821
0.0010939
0.0010895
0.00108502
0.00108046
0.00107583
0.00107112
0.00106636
0.00106154
0.00105668
0.00105181
0.00104695
0.00104213
0.00103738
0.00103276
0.00102831
0.00102406
0.00102008
0.0010164
0.00101305
0.00101008
0.00100752
0.00100538
0.00100369
0.00100248
0.00100178
0.00100161
0.001002
0.00100299
0.00100463
0.00100696
0.00101004
0.00101393
0.00101867
0.00102433
0.00103096
0.00103861
0.00104733
0.00105713
0.00106805
0.00108007
0.00109318
0.00110732
0.00112245
0.00113848
0.00115533
0.00117292
0.00119118
0.00121002
0.00122936
0.00124913
0.00126921
0.00128951
0.00130986
0.0013301
0.00135005
0.0013695
0.00138824
0.00140609
0.00142288
0.00143848
0.00145282
0.00146586
0.00147762
0.00148818
0.00149763
0.0015061
0.00151375
0.00152073
0.00152722
0.00153338
0.00153937
0.00154534
0.00155142
0.00155774
0.0015644
0.0015715
0.00157912
0.00158729
0.00159607
0.00160546
0.00161546
0.00162602
0.00163708
0.00164855
0.00166034
0.00167233
0.0016844
0.00169641
0.00170826
0.00171985
0.00173107
0.00174183
0.00175202
0.00176145
0.0017698
0.00177664
0.00178101
0.00178317
0.00177539
0.00112877
0.001126
0.00112313
0.00112017
0.00111711
0.00111396
0.00111073
0.00110743
0.00110405
0.00110062
0.00109715
0.00109366
0.00109016
0.00108669
0.00108328
0.00107994
0.00107673
0.00107366
0.00107078
0.00106813
0.00106573
0.00106362
0.00106183
0.00106038
0.00105931
0.00105864
0.00105838
0.00105858
0.00105925
0.00106043
0.00106214
0.00106441
0.00106729
0.00107081
0.00107501
0.00107992
0.00108559
0.00109206
0.00109935
0.00110749
0.00111651
0.00112641
0.00113719
0.00114884
0.00116135
0.0011747
0.00118884
0.00120375
0.00121938
0.00123566
0.00125253
0.00126989
0.00128763
0.00130561
0.00132366
0.0013416
0.00135922
0.00137633
0.00139273
0.00140826
0.00142278
0.00143619
0.00144846
0.00145957
0.00146958
0.00147855
0.0014866
0.00149386
0.00150046
0.00150655
0.00151229
0.00151781
0.00152325
0.00152873
0.00153436
0.00154026
0.00154649
0.00155315
0.00156029
0.00156796
0.0015762
0.00158501
0.00159439
0.0016043
0.00161469
0.00162549
0.0016366
0.00164792
0.00165934
0.00167075
0.00168205
0.00169313
0.00170389
0.00171421
0.00172392
0.00173274
0.00174024
0.00174557
0.00174886
0.00174372
0.00114487
0.0011432
0.00114146
0.00113963
0.00113772
0.00113573
0.00113367
0.00113154
0.00112934
0.00112709
0.00112479
0.00112246
0.00112011
0.00111775
0.00111542
0.00111311
0.00111086
0.0011087
0.00110664
0.00110471
0.00110293
0.00110134
0.00109996
0.00109882
0.00109793
0.00109733
0.00109703
0.00109707
0.00109746
0.00109824
0.00109942
0.00110103
0.0011031
0.00110567
0.00110876
0.00111241
0.00111666
0.00112153
0.00112707
0.0011333
0.00114027
0.00114799
0.00115649
0.00116579
0.0011759
0.00118681
0.00119853
0.00121104
0.00122432
0.00123832
0.00125299
0.00126823
0.00128396
0.00130002
0.00131628
0.00133255
0.00134864
0.00136435
0.00137951
0.00139395
0.00140751
0.00142011
0.00143168
0.00144221
0.00145172
0.00146027
0.00146794
0.00147484
0.0014811
0.00148684
0.0014922
0.0014973
0.00150226
0.00150721
0.00151225
0.00151745
0.00152292
0.00152872
0.00153492
0.00154157
0.00154871
0.00155637
0.00156457
0.00157329
0.00158251
0.00159218
0.00160224
0.00161261
0.0016232
0.00163391
0.00164464
0.0016553
0.00166579
0.001676
0.00168576
0.00169483
0.00170282
0.00170897
0.00171328
0.00171076
0.00115254
0.00115157
0.00115054
0.00114945
0.0011483
0.0011471
0.00114585
0.00114454
0.00114318
0.00114178
0.00114034
0.00113887
0.00113739
0.00113589
0.00113439
0.0011329
0.00113145
0.00113003
0.00112868
0.00112739
0.0011262
0.00112513
0.00112418
0.00112339
0.00112276
0.00112233
0.00112211
0.00112213
0.0011224
0.00112295
0.00112381
0.00112499
0.00112653
0.00112845
0.00113079
0.00113357
0.00113683
0.00114062
0.00114495
0.00114988
0.00115544
0.00116167
0.0011686
0.00117626
0.00118467
0.00119385
0.00120382
0.00121458
0.0012261
0.00123836
0.00125132
0.0012649
0.001279
0.00129351
0.00130828
0.00132315
0.00133794
0.00135247
0.00136655
0.00138002
0.00139274
0.00140462
0.00141557
0.00142557
0.00143463
0.00144279
0.00145011
0.00145669
0.00146264
0.00146806
0.00147308
0.0014778
0.00148236
0.00148683
0.00149133
0.00149594
0.00150073
0.00150577
0.00151112
0.00151685
0.00152298
0.00152957
0.00153663
0.00154418
0.0015522
0.00156069
0.00156959
0.00157886
0.00158843
0.00159822
0.00160815
0.00161814
0.00162811
0.00163794
0.0016475
0.00165658
0.00166485
0.00167165