/*--------------------------------*- C++ -*----------------------------------*\
| =========                 |                                                 |
| \\      /  F ield         | OpenFOAM: The Open Source CFD Toolbox           |
|  \\    /   O peration     | Version:  2.1.1                                 |
|   \\  /    A nd           | Web:      www.OpenFOAM.org                      |
|    \\/     M anipulation  |                                                 |
\*---------------------------------------------------------------------------*/
FoamFile
{
    version     2.0;
    format      ascii;
    class       volScalarField;
    location    "0.09";
    object      p;
}
// * * * * * * * * * * * * * * * * * * * * * * * * * * * * * * * * * * * * * //

dimensions      [0 2 -2 0 0 0 0];

internalField   nonuniform List<scalar> 
6820
(
-11.1529
-12.9993
-13.5744
-13.7024
-13.8098
-13.8893
-13.9442
-13.9911
-14.0341
-14.0737
-14.1106
-14.1457
-14.1791
-14.211
-14.2416
-14.2709
-14.2991
-14.3263
-14.3527
-14.3782
-14.403
-14.4271
-14.4506
-14.4736
-14.4958
-14.5173
-14.5378
-14.557
-14.5738
-14.5871
-14.5933
-14.5844
-14.554
-15.1054
-14.5708
-14.1485
-13.9587
-13.9344
-13.946
-13.9666
-13.995
-14.0278
-14.0617
-14.0959
-14.1297
-14.1628
-14.195
-14.2261
-14.2562
-14.2853
-14.3133
-14.3405
-14.3668
-14.3923
-14.4172
-14.4414
-14.465
-14.488
-14.5103
-14.5319
-14.5529
-14.5726
-14.593
-14.6122
-14.6546
-14.7086
-13.4629
-13.1592
-13.4459
-13.6912
-13.7965
-13.8722
-13.9317
-13.9814
-14.026
-14.0667
-14.1044
-14.1399
-14.1735
-14.2054
-14.2359
-14.2651
-14.2932
-14.3203
-14.3465
-14.372
-14.3968
-14.421
-14.4446
-14.4677
-14.4904
-14.5126
-14.5343
-14.5557
-14.5768
-14.5988
-14.622
-14.653
-14.6865
-13.9698
-14.0042
-14.0016
-13.9426
-13.9352
-13.956
-13.9828
-14.0121
-14.0435
-14.0754
-14.1072
-14.1386
-14.1693
-14.1994
-14.2286
-14.2571
-14.2848
-14.3117
-14.3379
-14.3635
-14.3885
-14.4129
-14.4369
-14.4605
-14.4837
-14.5066
-14.5292
-14.552
-14.5749
-14.5996
-14.6261
-14.6621
-14.703
-13.8144
-13.7144
-13.7587
-13.825
-13.8782
-13.9251
-13.9662
-14.0041
-14.0404
-14.0754
-14.109
-14.1414
-14.1727
-14.2029
-14.2322
-14.2604
-14.2878
-14.3144
-14.3403
-14.3655
-14.3902
-14.4144
-14.4382
-14.4616
-14.4847
-14.5077
-14.5306
-14.5539
-14.5777
-14.6032
-14.631
-14.6645
-14.7015
-13.8694
-13.8528
-13.8781
-13.9014
-13.9241
-13.9537
-13.9856
-14.0177
-14.05
-14.082
-14.1133
-14.144
-14.1738
-14.2029
-14.2312
-14.2588
-14.2856
-14.3118
-14.3373
-14.3623
-14.3869
-14.411
-14.4347
-14.4582
-14.4815
-14.5048
-14.5282
-14.552
-14.5766
-14.6027
-14.6309
-14.6631
-14.6978
-13.8675
-13.8464
-13.8624
-13.8915
-13.9218
-13.9551
-13.9884
-14.0208
-14.0529
-14.0845
-14.1153
-14.1455
-14.1749
-14.2036
-14.2315
-14.2587
-14.2852
-14.311
-14.3363
-14.3611
-14.3855
-14.4095
-14.4331
-14.4566
-14.48
-14.5034
-14.527
-14.5511
-14.5759
-14.6022
-14.63
-14.6604
-14.6924
-13.8816
-13.8739
-13.8894
-13.9141
-13.9396
-13.9681
-13.9981
-14.0282
-14.0585
-14.0886
-14.1183
-14.1474
-14.176
-14.2039
-14.2312
-14.2578
-14.2838
-14.3093
-14.3343
-14.3588
-14.3829
-14.4067
-14.4303
-14.4537
-14.4771
-14.5006
-14.5243
-14.5485
-14.5734
-14.5994
-14.6267
-14.6556
-14.6855
-13.8944
-13.8906
-13.9028
-13.9246
-13.9488
-13.976
-14.0047
-14.0337
-14.0629
-14.092
-14.1207
-14.149
-14.1769
-14.2041
-14.2308
-14.2569
-14.2825
-14.3076
-14.3323
-14.3565
-14.3804
-14.404
-14.4275
-14.4508
-14.4741
-14.4975
-14.5212
-14.5453
-14.5701
-14.5957
-14.6222
-14.6498
-14.6779
-13.9078
-13.9073
-13.9187
-13.9384
-13.9608
-13.9858
-14.0126
-14.04
-14.0678
-14.0957
-14.1234
-14.1508
-14.1778
-14.2043
-14.2304
-14.2559
-14.2811
-14.3057
-14.33
-14.3539
-14.3775
-14.4009
-14.4242
-14.4473
-14.4704
-14.4937
-14.5173
-14.5412
-14.5656
-14.5907
-14.6165
-14.6429
-14.6696
-13.9212
-13.9223
-13.9328
-13.9504
-13.9712
-13.9946
-14.0198
-14.0459
-14.0725
-14.0992
-14.1259
-14.1524
-14.1786
-14.2044
-14.2299
-14.2549
-14.2795
-14.3037
-14.3276
-14.3512
-14.3745
-14.3976
-14.4205
-14.4434
-14.4664
-14.4894
-14.5127
-14.5363
-14.5603
-14.5848
-14.6098
-14.6352
-14.6607
-13.9343
-13.9363
-13.9462
-13.9623
-13.9816
-14.0034
-14.0271
-14.0518
-14.0771
-14.1027
-14.1284
-14.154
-14.1794
-14.2045
-14.2293
-14.2537
-14.2778
-14.3016
-14.325
-14.3482
-14.3711
-14.3939
-14.4166
-14.4392
-14.4618
-14.4846
-14.5075
-14.5307
-14.5542
-14.578
-14.6022
-14.6267
-14.6512
-13.9469
-13.9494
-13.9587
-13.9735
-13.9914
-14.0118
-14.0341
-14.0575
-14.0816
-14.1062
-14.1309
-14.1556
-14.1802
-14.2045
-14.2286
-14.2525
-14.276
-14.2993
-14.3222
-14.345
-14.3675
-14.3899
-14.4122
-14.4345
-14.4568
-14.4791
-14.5016
-14.5243
-14.5473
-14.5705
-14.5939
-14.6175
-14.6411
-13.959
-13.9617
-13.9705
-13.9841
-14.0008
-14.0199
-14.0408
-14.063
-14.086
-14.1095
-14.1332
-14.157
-14.1808
-14.2044
-14.2279
-14.2511
-14.2741
-14.2968
-14.3193
-14.3416
-14.3637
-14.3857
-14.4076
-14.4294
-14.4513
-14.4732
-14.4952
-14.5173
-14.5397
-14.5622
-14.5848
-14.6076
-14.6304
-13.9705
-13.9731
-13.9815
-13.9941
-14.0096
-14.0275
-14.0473
-14.0683
-14.0902
-14.1126
-14.1354
-14.1584
-14.1813
-14.2042
-14.227
-14.2496
-14.272
-14.2941
-14.3161
-14.3379
-14.3596
-14.3811
-14.4025
-14.4239
-14.4453
-14.4667
-14.4881
-14.5097
-14.5314
-14.5531
-14.575
-14.5969
-14.6189
-13.9812
-13.9838
-13.9917
-14.0034
-14.0179
-14.0347
-14.0533
-14.0733
-14.0941
-14.1156
-14.1375
-14.1595
-14.1817
-14.2039
-14.2259
-14.2479
-14.2697
-14.2913
-14.3127
-14.334
-14.3551
-14.3761
-14.3971
-14.4179
-14.4388
-14.4596
-14.4805
-14.5014
-14.5224
-14.5434
-14.5645
-14.5856
-14.6067
-13.9912
-13.9937
-14.0011
-14.0121
-14.0257
-14.0415
-14.059
-14.0779
-14.0978
-14.1183
-14.1393
-14.1605
-14.1819
-14.2033
-14.2247
-14.246
-14.2672
-14.2882
-14.309
-14.3298
-14.3504
-14.3708
-14.3912
-14.4115
-14.4318
-14.452
-14.4722
-14.4924
-14.5127
-14.5329
-14.5532
-14.5735
-14.5937
-14.0005
-14.0029
-14.0098
-14.0201
-14.0328
-14.0477
-14.0643
-14.0822
-14.1011
-14.1207
-14.1408
-14.1613
-14.1819
-14.2026
-14.2233
-14.2439
-14.2644
-14.2848
-14.3051
-14.3253
-14.3453
-14.3652
-14.3849
-14.4047
-14.4243
-14.4439
-14.4634
-14.4829
-14.5024
-14.5218
-14.5412
-14.5606
-14.5799
-14.009
-14.0112
-14.0178
-14.0274
-14.0394
-14.0534
-14.0691
-14.0861
-14.1041
-14.1229
-14.1421
-14.1618
-14.1816
-14.2016
-14.2216
-14.2415
-14.2614
-14.2812
-14.3009
-14.3204
-14.3398
-14.3591
-14.3783
-14.3973
-14.4163
-14.4352
-14.454
-14.4727
-14.4914
-14.51
-14.5285
-14.547
-14.5653
-14.0167
-14.0188
-14.025
-14.034
-14.0453
-14.0585
-14.0734
-14.0895
-14.1067
-14.1246
-14.1431
-14.162
-14.1811
-14.2003
-14.2196
-14.2389
-14.2582
-14.2773
-14.2963
-14.3153
-14.334
-14.3527
-14.3712
-14.3896
-14.4078
-14.426
-14.444
-14.4619
-14.4798
-14.4975
-14.5151
-14.5326
-14.55
-14.0235
-14.0255
-14.0314
-14.0399
-14.0505
-14.063
-14.0771
-14.0925
-14.1089
-14.126
-14.1437
-14.1618
-14.1802
-14.1988
-14.2174
-14.236
-14.2546
-14.2731
-14.2915
-14.3098
-14.3279
-14.3458
-14.3637
-14.3813
-14.3989
-14.4163
-14.4335
-14.4506
-14.4675
-14.4843
-14.501
-14.5175
-14.5339
-14.0296
-14.0315
-14.037
-14.045
-14.055
-14.0669
-14.0803
-14.0949
-14.1105
-14.1269
-14.1439
-14.1613
-14.179
-14.1969
-14.2148
-14.2328
-14.2507
-14.2686
-14.2863
-14.3039
-14.3213
-14.3386
-14.3557
-14.3727
-14.3894
-14.406
-14.4224
-14.4387
-14.4547
-14.4706
-14.4863
-14.5017
-14.517
-14.0347
-14.0365
-14.0417
-14.0493
-14.0588
-14.0701
-14.0828
-14.0968
-14.1117
-14.1274
-14.1437
-14.1605
-14.1775
-14.1947
-14.212
-14.2293
-14.2466
-14.2637
-14.2808
-14.2977
-14.3145
-14.3311
-14.3475
-14.3636
-14.3796
-14.3954
-14.4109
-14.4263
-14.4414
-14.4563
-14.4709
-14.4854
-14.4996
-14.039
-14.0407
-14.0456
-14.0528
-14.0618
-14.0725
-14.0847
-14.098
-14.1123
-14.1274
-14.143
-14.1591
-14.1755
-14.192
-14.2087
-14.2254
-14.242
-14.2585
-14.2749
-14.2912
-14.3072
-14.3231
-14.3387
-14.3541
-14.3693
-14.3842
-14.3989
-14.4133
-14.4275
-14.4414
-14.455
-14.4684
-14.4815
-14.0424
-14.044
-14.0487
-14.0555
-14.0641
-14.0743
-14.086
-14.0987
-14.1125
-14.127
-14.142
-14.1575
-14.1733
-14.1892
-14.2052
-14.2213
-14.2372
-14.2531
-14.2688
-14.2844
-14.2998
-14.3149
-14.3298
-14.3444
-14.3587
-14.3728
-14.3866
-14.4001
-14.4133
-14.4262
-14.4388
-14.451
-14.463
-14.0448
-14.0463
-14.0507
-14.0572
-14.0654
-14.0751
-14.0862
-14.0985
-14.1117
-14.1256
-14.1401
-14.155
-14.1702
-14.1856
-14.201
-14.2165
-14.2318
-14.2471
-14.2622
-14.2771
-14.2917
-14.3061
-14.3203
-14.3341
-14.3476
-14.3609
-14.3738
-14.3863
-14.3986
-14.4105
-14.422
-14.4332
-14.444
-14.0463
-14.0478
-14.052
-14.0583
-14.0661
-14.0756
-14.0863
-14.0982
-14.1109
-14.1244
-14.1384
-14.1528
-14.1674
-14.1822
-14.1971
-14.2119
-14.2267
-14.2413
-14.2557
-14.2699
-14.2839
-14.2975
-14.3109
-14.3239
-14.3366
-14.3489
-14.3609
-14.3726
-14.3838
-14.3947
-14.4051
-14.4152
-14.4248
-14.0467
-14.048
-14.0518
-14.0576
-14.065
-14.0739
-14.0842
-14.0957
-14.108
-14.1211
-14.1347
-14.1487
-14.1629
-14.1772
-14.1916
-14.206
-14.2202
-14.2343
-14.2481
-14.2617
-14.275
-14.288
-14.3006
-14.3129
-14.3248
-14.3363
-14.3475
-14.3582
-14.3685
-14.3783
-14.3878
-14.3968
-14.4053
-14.0463
-14.0478
-14.0518
-14.0577
-14.0651
-14.074
-14.0841
-14.0953
-14.1073
-14.12
-14.1331
-14.1466
-14.1603
-14.1741
-14.1879
-14.2016
-14.2152
-14.2286
-14.2418
-14.2546
-14.2672
-14.2794
-14.2912
-14.3027
-14.3138
-14.3244
-14.3346
-14.3444
-14.3537
-14.3625
-14.3709
-14.3788
-14.3862
-14.0442
-14.0448
-14.0476
-14.0524
-14.0591
-14.0674
-14.0773
-14.0883
-14.1002
-14.1128
-14.1259
-14.1393
-14.1529
-14.1665
-14.1801
-14.1936
-14.2069
-14.2199
-14.2327
-14.2451
-14.2572
-14.2688
-14.2801
-14.2909
-14.3013
-14.3112
-14.3206
-14.3295
-14.338
-14.3459
-14.3533
-14.3603
-14.3666
-14.0429
-14.0454
-14.0498
-14.0556
-14.0627
-14.0711
-14.0807
-14.0913
-14.1027
-14.1146
-14.127
-14.1397
-14.1525
-14.1653
-14.1782
-14.1908
-14.2033
-14.2156
-14.2275
-14.2391
-14.2504
-14.2612
-14.2716
-14.2815
-14.291
-14.2999
-14.3084
-14.3164
-14.3238
-14.3307
-14.3371
-14.3429
-14.3482
-14.0349
-14.0329
-14.033
-14.0365
-14.0429
-14.0515
-14.0618
-14.0734
-14.0858
-14.0988
-14.1122
-14.1257
-14.1392
-14.1527
-14.1659
-14.179
-14.1917
-14.204
-14.216
-14.2275
-14.2385
-14.2491
-14.2592
-14.2687
-14.2777
-14.2861
-14.294
-14.3014
-14.3081
-14.3143
-14.3199
-14.3249
-14.3293
-14.0417
-14.0481
-14.0537
-14.0585
-14.0641
-14.0712
-14.0796
-14.0891
-14.0994
-14.1104
-14.1218
-14.1335
-14.1453
-14.1572
-14.169
-14.1806
-14.192
-14.2031
-14.2139
-14.2242
-14.2342
-14.2437
-14.2527
-14.2612
-14.2691
-14.2765
-14.2834
-14.2897
-14.2954
-14.3005
-14.3051
-14.309
-14.3123
-14.0099
-13.9965
-13.9915
-13.9963
-14.006
-14.0181
-14.0317
-14.0463
-14.0613
-14.0764
-14.0914
-14.1063
-14.1208
-14.1349
-14.1486
-14.1618
-14.1745
-14.1866
-14.1982
-14.2092
-14.2196
-14.2294
-14.2386
-14.2471
-14.255
-14.2623
-14.2689
-14.2749
-14.2802
-14.2849
-14.2889
-14.2922
-14.2949
-14.063
-14.0832
-14.0872
-14.0823
-14.0797
-14.0816
-14.0864
-14.093
-14.101
-14.1099
-14.1196
-14.1298
-14.1403
-14.1509
-14.1614
-14.1718
-14.182
-14.1919
-14.2015
-14.2106
-14.2193
-14.2276
-14.2353
-14.2424
-14.249
-14.255
-14.2605
-14.2653
-14.2695
-14.273
-14.2759
-14.2782
-14.2799
-13.9401
-13.8906
-13.8787
-13.9048
-13.9322
-13.956
-13.9793
-14.0019
-14.0233
-14.0435
-14.0626
-14.0805
-14.0975
-14.1135
-14.1286
-14.1429
-14.1562
-14.1688
-14.1806
-14.1915
-14.2018
-14.2112
-14.2199
-14.2278
-14.235
-14.2415
-14.2472
-14.2521
-14.2564
-14.2599
-14.2626
-14.2646
-14.2659
-14.1879
-14.2227
-14.1915
-14.1485
-14.1195
-14.1083
-14.105
-14.1053
-14.1084
-14.1138
-14.1207
-14.1285
-14.137
-14.1458
-14.1548
-14.1638
-14.1727
-14.1814
-14.1897
-14.1977
-14.2053
-14.2124
-14.219
-14.225
-14.2305
-14.2354
-14.2397
-14.2433
-14.2463
-14.2486
-14.2503
-14.2514
-14.2518
-13.6956
-13.5758
-13.6381
-13.7395
-13.8131
-13.8643
-13.9074
-13.9451
-13.9776
-14.0061
-14.0315
-14.0543
-14.075
-14.0938
-14.111
-14.1268
-14.1414
-14.1547
-14.167
-14.1783
-14.1886
-14.198
-14.2064
-14.214
-14.2208
-14.2267
-14.2317
-14.236
-14.2394
-14.2421
-14.2439
-14.2449
-14.2452
-14.9099
-14.5709
-14.307
-14.1895
-14.1392
-14.1135
-14.0979
-14.0911
-14.0906
-14.0939
-14.0996
-14.1069
-14.1152
-14.1241
-14.1332
-14.1425
-14.1516
-14.1605
-14.1691
-14.1772
-14.1849
-14.1921
-14.1987
-14.2047
-14.2101
-14.2148
-14.2189
-14.2223
-14.225
-14.227
-14.2283
-14.2289
-14.2288
-12.4062
-13.1127
-13.5171
-13.6692
-13.7735
-13.8554
-13.9144
-13.9588
-13.9946
-14.0241
-14.049
-14.0705
-14.0895
-14.1065
-14.1219
-14.1359
-14.1488
-14.1605
-14.1713
-14.1811
-14.1901
-14.1982
-14.2054
-14.2118
-14.2175
-14.2223
-14.2263
-14.2295
-14.232
-14.2336
-14.2345
-14.2346
-14.2339
-14.4341
-14.6256
-14.7633
-14.8276
-14.8513
-14.8679
-14.9001
-14.9661
-15.0725
-15.2166
-15.3926
-15.5927
-15.8075
-16.0278
-16.2444
-16.4499
-16.6384
-16.8055
-16.9484
-17.0657
-17.1574
-17.2246
-17.2686
-17.2913
-17.2943
-17.2793
-17.2476
-17.2006
-17.1392
-17.0642
-16.9763
-16.8756
-16.7622
-16.6357
-16.4952
-16.3394
-16.1667
-15.9746
-15.7602
-15.5199
-15.2495
-14.9444
-14.5992
-14.2087
-13.767
-13.2688
-12.7091
-12.0837
-11.3901
-10.6277
-9.79925
-8.91179
-7.97785
-7.01729
-6.0557
-5.11842
-4.22689
-3.39918
-2.64993
-1.98898
-1.42069
-0.944227
-0.554536
-0.243637
-0.00195661
0.18058
0.313759
0.4066
0.467108
0.502191
0.517682
0.518413
0.508323
0.490571
0.467653
0.4415
0.413581
0.384987
0.3565
0.328663
0.301831
0.276217
0.251938
0.229024
0.207463
0.187195
0.168153
0.150246
0.133406
0.117511
0.102564
0.0883253
0.0751191
0.062103
0.0510309
0.0381019
0.0315325
0.0137975
0.0221819
-0.0227304
-15.0667
-15.1667
-15.0548
-14.9463
-14.8739
-14.8286
-14.8223
-14.8621
-14.9548
-15.0959
-15.277
-15.487
-15.7132
-15.9434
-16.166
-16.3733
-16.5589
-16.7204
-16.8567
-16.9679
-17.0547
-17.1184
-17.1602
-17.1815
-17.1836
-17.1679
-17.1357
-17.0881
-17.0263
-16.9511
-16.8629
-16.7621
-16.6486
-16.5219
-16.3811
-16.225
-16.0518
-15.8589
-15.6435
-15.4019
-15.13
-14.8231
-14.4761
-14.0837
-13.6403
-13.1408
-12.5802
-11.9548
-11.2622
-10.5028
-9.68099
-8.80549
-7.89107
-6.95776
-6.02717
-5.11978
-4.25487
-3.44987
-2.71884
-2.07127
-1.51159
-1.03939
-0.650312
-0.33718
-0.0912148
0.0969565
0.236547
0.336136
0.403407
0.445048
0.466747
0.473251
0.468457
0.45551
0.436914
0.414624
0.390139
0.364583
0.338779
0.313304
0.28855
0.26476
0.242082
0.22057
0.200237
0.181041
0.162934
0.14584
0.129702
0.11441
0.0999822
0.0861738
0.0733518
0.0606096
0.0498544
0.036998
0.0308454
0.0127479
0.0222014
-0.0243452
-14.7375
-14.7122
-14.7163
-14.7558
-14.792
-14.82
-14.8583
-14.9227
-15.0163
-15.1397
-15.2909
-15.4653
-15.6556
-15.8537
-16.0523
-16.2456
-16.4262
-16.5886
-16.7291
-16.8454
-16.9366
-17.0032
-17.0463
-17.0676
-17.0689
-17.0521
-17.0187
-16.9701
-16.9074
-16.8313
-16.7424
-16.6409
-16.5266
-16.3991
-16.2574
-16.1002
-15.9256
-15.7312
-15.514
-15.2704
-14.9963
-14.6869
-14.3374
-13.9423
-13.4965
-12.9947
-12.4323
-11.8064
-11.116
-10.363
-9.55303
-8.6962
-7.80721
-6.90328
-6.00246
-5.12327
-4.28397
-3.50109
-2.78792
-2.15359
-1.60254
-1.13476
-0.746521
-0.431406
-0.181389
0.0122208
0.158076
0.264316
0.338302
0.386493
0.414425
0.426752
0.42732
0.41926
0.405075
0.386741
0.365783
0.343359
0.320325
0.297295
0.274696
0.252802
0.231789
0.211738
0.192684
0.174608
0.157479
0.141234
0.125833
0.111174
0.0972926
0.0839394
0.0715226
0.0590768
0.0486497
0.0358957
0.0301463
0.0117576
0.0221735
-0.0257872
-14.7955
-14.8952
-14.9338
-14.9271
-14.9099
-14.9013
-14.9148
-14.9585
-15.0351
-15.1453
-15.2862
-15.4514
-15.6324
-15.8207
-16.0083
-16.1853
-16.3477
-16.4932
-16.6187
-16.723
-16.806
-16.8681
-16.9096
-16.9315
-16.9345
-16.9197
-16.8882
-16.8409
-16.7789
-16.703
-16.6138
-16.5115
-16.3961
-16.2672
-16.1239
-15.9648
-15.7881
-15.5913
-15.3714
-15.1247
-14.8473
-14.5344
-14.1811
-13.7823
-13.3329
-12.8285
-12.2657
-11.6425
-10.9588
-10.2175
-9.42476
-8.59081
-7.72863
-6.85308
-5.98056
-5.12848
-4.31403
-3.55269
-2.85705
-2.23581
-1.69341
-1.2302
-0.843033
-0.526192
-0.272373
-0.073537
0.0784183
0.191198
0.271834
0.326552
0.360729
0.378919
0.384912
0.381812
0.372123
0.357834
0.340494
0.321292
0.301117
0.280616
0.260249
0.240322
0.22104
0.202511
0.184791
0.167884
0.151776
0.13642
0.121791
0.107797
0.094492
0.0816216
0.0696333
0.0575087
0.0474247
0.0348024
0.0294495
0.0108314
0.0221251
-0.027052
-14.7558
-14.79
-14.7908
-14.7956
-14.8152
-14.8448
-14.8877
-14.9507
-15.0376
-15.1489
-15.2825
-15.434
-15.5977
-15.7672
-15.9363
-16.0993
-16.2528
-16.3914
-16.5123
-16.6136
-16.694
-16.7534
-16.792
-16.8108
-16.8108
-16.7933
-16.7594
-16.7102
-16.6465
-16.5691
-16.4783
-16.3744
-16.2571
-16.126
-15.9802
-15.8182
-15.6382
-15.4377
-15.2138
-14.9629
-14.6809
-14.3635
-14.0061
-13.6041
-13.153
-12.6492
-12.0897
-11.4731
-10.7999
-10.0738
-9.30111
-8.49096
-7.65484
-6.80643
-5.96114
-5.13529
-4.34494
-3.6046
-2.92611
-2.31779
-1.78407
-1.32557
-0.939696
-0.62139
-0.364023
-0.160183
-0.00230413
0.116887
0.204094
0.265303
0.305724
0.329804
0.341271
0.343197
0.338081
0.32792
0.314285
0.298391
0.281158
0.263267
0.245209
0.227321
0.209836
0.192887
0.176556
0.160866
0.145823
0.131396
0.117575
0.104278
0.0915786
0.0792178
0.0676805
0.0559012
0.0461741
0.0337125
0.028747
0.00996315
0.0220428
-0.0281416
-14.7442
-14.7919
-14.8257
-14.8514
-14.8734
-14.8974
-14.9325
-14.9863
-15.062
-15.1605
-15.28
-15.4169
-15.5661
-15.7215
-15.8775
-16.0281
-16.1689
-16.2957
-16.4061
-16.4985
-16.5719
-16.6263
-16.6618
-16.6788
-16.6782
-16.6604
-16.6265
-16.577
-16.5128
-16.4343
-16.3419
-16.2358
-16.1158
-15.9815
-15.832
-15.6658
-15.4813
-15.276
-15.0472
-14.7914
-14.5049
-14.1837
-13.8234
-13.4198
-12.9689
-12.4675
-11.9131
-11.3052
-10.645
-9.93577
-9.18347
-8.39638
-7.58527
-6.76299
-5.94401
-5.14355
-4.37659
-3.6567
-2.995
-2.39944
-1.87438
-1.42074
-1.03638
-0.716868
-0.456212
-0.2476
-0.083988
0.0414737
0.135159
0.202808
0.24946
0.279448
0.296428
0.303438
0.302964
0.297009
0.28716
0.274657
0.260449
0.245247
0.229573
0.213794
0.198171
0.182863
0.167975
0.153551
0.139618
0.126159
0.113183
0.100616
0.0885505
0.0767264
0.0656627
0.0542532
0.0448963
0.0326253
0.0280366
0.00915317
0.0219201
-0.029051
-14.7318
-14.7719
-14.7996
-14.821
-14.8452
-14.8769
-14.9205
-14.9798
-15.0571
-15.1529
-15.2659
-15.393
-15.53
-15.672
-15.8142
-15.9517
-16.0806
-16.1976
-16.2999
-16.3858
-16.4541
-16.5043
-16.5363
-16.5503
-16.547
-16.527
-16.4909
-16.4396
-16.3736
-16.2933
-16.199
-16.0908
-15.9684
-15.8312
-15.6783
-15.5085
-15.3199
-15.1103
-14.877
-14.6169
-14.3265
-14.002
-13.6394
-13.2351
-12.7855
-12.2879
-11.7405
-11.1428
-10.4962
-9.80383
-9.07128
-8.30645
-7.51951
-6.72252
-5.929
-5.15313
-4.40888
-3.70889
-3.06362
-2.48063
-1.96424
-1.51558
-1.13295
-0.812496
-0.548816
-0.335673
-0.166528
-0.0349492
0.0651069
0.139133
0.191992
0.227893
0.250417
0.26256
0.266791
0.265113
0.259127
0.250095
0.238991
0.226554
0.213338
0.199738
0.186041
0.172434
0.159043
0.145936
0.133158
0.120708
0.108612
0.0968087
0.0854065
0.0741465
0.0635791
0.052564
0.0435906
0.0315405
0.0273171
0.00840181
0.021753
-0.0297757
-14.7209
-14.7592
-14.7912
-14.8204
-14.8515
-14.8875
-14.9322
-14.9895
-15.062
-15.1503
-15.2535
-15.369
-15.4935
-15.6227
-15.7522
-15.8778
-15.9958
-16.1028
-16.1965
-16.2749
-16.337
-16.382
-16.4099
-16.4208
-16.4149
-16.3929
-16.3551
-16.3022
-16.2345
-16.1524
-16.056
-15.9454
-15.8202
-15.6799
-15.5236
-15.3499
-15.1573
-14.9435
-14.7061
-14.4421
-14.1483
-13.8213
-13.4575
-13.0536
-12.6064
-12.1136
-11.5737
-10.9864
-10.3532
-9.67727
-8.96395
-8.22077
-7.45728
-6.6848
-5.91595
-5.16392
-4.4417
-3.76108
-3.13188
-2.56128
-2.05354
-1.60997
-1.22929
-0.908147
-0.641707
-0.42428
-0.249812
-0.112283
-0.00597575
0.0743521
0.133379
0.175187
0.203277
0.220594
0.229585
0.23225
0.230199
0.224712
0.216787
0.207192
0.196505
0.185153
0.173446
0.161599
0.14976
0.138019
0.12644
0.11504
0.103862
0.0928545
0.0821454
0.0714771
0.061429
0.0508331
0.0422564
0.0304579
0.0265877
0.00770897
0.0215388
-0.0303129
-14.7107
-14.7469
-14.7796
-14.8104
-14.8431
-14.8809
-14.9269
-14.984
-15.054
-15.1374
-15.2333
-15.3395
-15.4533
-15.571
-15.6888
-15.8031
-15.9105
-16.008
-16.0933
-16.1646
-16.2208
-16.261
-16.2849
-16.2925
-16.2839
-16.2595
-16.2196
-16.1647
-16.095
-16.0109
-15.9123
-15.7993
-15.6715
-15.5282
-15.3686
-15.1915
-14.9951
-14.7776
-14.5366
-14.2693
-13.9727
-13.6439
-13.2794
-12.8764
-12.432
-11.9443
-11.4121
-10.8353
-10.2154
-9.55559
-8.8611
-8.13903
-7.39836
-6.64968
-5.90473
-5.17581
-4.47496
-3.81318
-3.19968
-2.64129
-2.14217
-1.7038
-1.32527
-1.00369
-0.734757
-0.513298
-0.333727
-0.190424
-0.0779978
0.00854265
0.0736877
0.121388
0.155053
0.177576
0.191375
0.198442
0.200393
0.198521
0.193849
0.187166
0.179078
0.17004
0.160387
0.150357
0.140124
0.129799
0.119464
0.109155
0.098931
0.0887533
0.0787669
0.068718
0.0592118
0.0490601
0.0408931
0.0293767
0.0258472
0.00707388
0.0212752
-0.0306614
-14.7006
-14.7354
-14.7688
-14.8016
-14.8367
-14.8763
-14.923
-14.9788
-15.0454
-15.1232
-15.2114
-15.3084
-15.4118
-15.5185
-15.6252
-15.7287
-15.826
-15.9143
-15.9915
-16.0557
-16.1058
-16.1409
-16.1606
-16.1646
-16.1531
-16.1261
-16.084
-16.027
-15.9554
-15.8691
-15.7684
-15.653
-15.5225
-15.3764
-15.2137
-15.0333
-14.8335
-14.6126
-14.3683
-14.0981
-13.7994
-13.4691
-13.1045
-12.7029
-12.2618
-11.7796
-11.2552
-10.6889
-10.0823
-9.43851
-8.76251
-8.06106
-7.34259
-6.61701
-5.89524
-5.18869
-4.50857
-3.86511
-3.26695
-2.72056
-2.23003
-1.79697
-1.42077
-1.099
-0.82784
-0.602602
-0.418155
-0.269265
-0.150863
-0.0582111
0.0129907
0.0665546
0.105796
0.133547
0.152195
0.163716
0.169729
0.17154
0.170188
0.166486
0.161066
0.154405
0.146867
0.138713
0.130139
0.121278
0.112232
0.103054
0.0938202
0.0845055
0.0752711
0.0658691
0.0569274
0.0472447
0.0395001
0.0282966
0.025095
0.00649531
0.0209609
-0.0308219
-14.6903
-14.724
-14.7575
-14.7913
-14.8273
-14.8675
-14.9138
-14.968
-15.0312
-15.1038
-15.1851
-15.2738
-15.3677
-15.4643
-15.5608
-15.6542
-15.7419
-15.8214
-15.8906
-15.9478
-15.9919
-16.0218
-16.0371
-16.0375
-16.0228
-15.9932
-15.9487
-15.8894
-15.8156
-15.7272
-15.6242
-15.5064
-15.3733
-15.2244
-15.0588
-14.8753
-14.6724
-14.4484
-14.2013
-13.9287
-13.6281
-13.297
-12.9327
-12.5329
-12.0955
-11.6191
-11.1028
-10.5472
-9.95384
-9.32587
-8.66803
-7.98672
-7.28986
-6.58668
-5.88736
-5.20249
-4.54245
-3.9168
-3.3336
-2.79902
-2.31703
-1.88936
-1.51568
-1.19396
-0.920828
-0.692069
-0.502976
-0.348695
-0.224472
-0.12582
-0.0486351
0.0107535
0.0555608
0.0885548
0.112082
0.128103
0.138234
0.143789
0.145821
0.145166
0.142477
0.138258
0.132894
0.126672
0.119809
0.112459
0.104746
0.0967389
0.0885314
0.0801123
0.0716591
0.0629311
0.0545763
0.045387
0.0380774
0.0272168
0.0243304
0.00597154
0.0205956
-0.0307972
-14.6797
-14.7125
-14.7457
-14.7799
-14.8163
-14.8566
-14.9021
-14.9544
-15.0141
-15.0816
-15.1563
-15.237
-15.3221
-15.4092
-15.496
-15.5798
-15.6584
-15.7293
-15.7908
-15.8411
-15.8791
-15.9039
-15.9147
-15.9112
-15.8932
-15.8607
-15.8135
-15.7519
-15.6758
-15.5851
-15.4798
-15.3596
-15.224
-15.0725
-14.9041
-14.7177
-14.5119
-14.2852
-14.0356
-13.7609
-13.459
-13.1275
-12.764
-12.3665
-11.9332
-11.4628
-10.9549
-10.4101
-9.82992
-9.21757
-8.57755
-7.9159
-7.24005
-6.5586
-5.88102
-5.21712
-4.57654
-3.96817
-3.39958
-2.8766
-2.40309
-1.98088
-1.60989
-1.28844
-1.0136
-0.781572
-0.588069
-0.4286
-0.298719
-0.194191
-0.111107
-0.0459436
0.00440973
0.0426503
0.0710816
0.0916413
0.105939
0.115292
0.12077
0.123223
0.123328
0.12161
0.118477
0.114241
0.10914
0.103349
0.0970108
0.0902135
0.0830677
0.0755764
0.0679328
0.0599056
0.0521594
0.0434874
0.0366251
0.0261367
0.023553
0.00550047
0.0201798
-0.0305921
-14.6686
-14.7004
-14.7332
-14.7672
-14.8035
-14.8432
-14.8875
-14.9374
-14.9935
-15.056
-15.1245
-15.1978
-15.2746
-15.3529
-15.4306
-15.5054
-15.5753
-15.638
-15.692
-15.7356
-15.7675
-15.787
-15.7932
-15.7858
-15.7643
-15.7287
-15.6789
-15.6147
-15.5362
-15.4432
-15.3355
-15.2129
-15.0748
-14.9207
-14.7496
-14.5606
-14.3522
-14.123
-13.8713
-13.595
-13.2922
-12.9607
-12.5985
-12.2036
-11.7747
-11.3108
-10.8114
-10.2774
-9.71044
-9.11352
-8.49097
-7.8485
-7.19307
-6.53268
-5.87613
-5.23251
-4.61078
-4.01919
-3.46482
-2.95322
-2.48812
-2.07143
-1.70328
-1.38233
-1.10602
-0.870987
-0.673312
-0.508863
-0.373495
-0.263225
-0.174337
-0.10346
-0.0475906
-0.00410844
0.0292419
0.0543712
0.0728779
0.0860814
0.0950591
0.100679
0.103636
0.104476
0.103631
0.101432
0.0981417
0.093955
0.0890337
0.0834841
0.0774342
0.0709018
0.0640956
0.056795
0.0496785
0.041547
0.0351438
0.0250561
0.0227628
0.00507956
0.019715
-0.0302139
-14.6569
-14.6878
-14.7198
-14.7533
-14.7889
-14.8276
-14.8703
-14.9176
-14.9701
-15.0278
-15.0903
-15.1567
-15.2257
-15.2957
-15.3649
-15.4312
-15.4927
-15.5476
-15.5942
-15.6312
-15.6572
-15.6714
-15.6729
-15.6614
-15.6363
-15.5975
-15.5448
-15.478
-15.3969
-15.3015
-15.1914
-15.0664
-14.9259
-14.7692
-14.5957
-14.4041
-14.1934
-13.9621
-13.7086
-13.4311
-13.1278
-12.7967
-12.4361
-12.0444
-11.6203
-11.1629
-10.6723
-10.1492
-9.59536
-9.01364
-8.40821
-7.78444
-7.14883
-6.50885
-5.87263
-5.24862
-4.64511
-4.06979
-3.52928
-3.02883
-2.57207
-2.16093
-1.79576
-1.47551
-1.19799
-0.960188
-0.75858
-0.589364
-0.44869
-0.332818
-0.238232
-0.161711
-0.100367
-0.0516582
-0.0133821
0.0163402
0.039092
0.0561904
0.0687191
0.0775595
0.0834227
0.086876
0.0883704
0.0882605
0.0868275
0.0842884
0.0808239
0.0765586
0.0716378
0.0660945
0.0601522
0.053603
0.0471364
0.0395676
0.0336345
0.0239746
0.0219598
0.00470595
0.0192036
-0.0296719
-14.6445
-14.6743
-14.7054
-14.738
-14.7727
-14.81
-14.8507
-14.8953
-14.9441
-14.9971
-15.0539
-15.1137
-15.1754
-15.2377
-15.2987
-15.357
-15.4106
-15.4579
-15.4975
-15.528
-15.5481
-15.557
-15.5538
-15.5381
-15.5094
-15.4672
-15.4115
-15.3419
-15.2582
-15.1603
-15.0478
-14.9203
-14.7774
-14.6184
-14.4424
-14.2486
-14.0358
-13.8027
-13.5477
-13.2693
-12.9659
-12.6357
-12.2771
-11.8889
-11.4698
-11.0194
-10.5377
-10.0255
-9.4846
-8.91786
-8.32919
-7.72363
-7.10726
-6.48702
-5.87045
-5.26538
-4.67949
-4.11993
-3.59291
-3.10338
-2.65485
-2.24929
-1.88723
-1.56787
-1.28937
-1.04905
-0.843747
-0.66998
-0.524185
-0.402863
-0.302694
-0.220611
-0.153842
-0.0999297
-0.0567298
-0.022399
0.0046269
0.0256589
0.0417841
0.0538943
0.0627154
0.0688327
0.072717
0.0747431
0.0752128
0.0743629
0.0723936
0.0694476
0.0656874
0.0611618
0.0561087
0.0503344
0.0445369
0.0375517
0.032099
0.0228926
0.0211449
0.00437655
0.0186487
-0.0289779
-14.6313
-14.66
-14.69
-14.7215
-14.7548
-14.7905
-14.829
-14.8707
-14.9158
-14.9642
-15.0155
-15.0691
-15.124
-15.1789
-15.2323
-15.2829
-15.329
-15.3691
-15.4019
-15.426
-15.4403
-15.4439
-15.436
-15.4161
-15.3835
-15.3379
-15.279
-15.2066
-15.1202
-15.0198
-14.9048
-14.7749
-14.6296
-14.4683
-14.2902
-14.0943
-13.8796
-13.6449
-13.3888
-13.1099
-12.8067
-12.4777
-12.1216
-11.7371
-11.3234
-10.8801
-10.4073
-9.90611
-9.37813
-8.82613
-8.25384
-7.666
-7.06828
-6.46713
-5.86955
-5.28276
-4.7139
-4.1696
-3.65567
-3.17682
-2.73641
-2.33645
-1.9776
-1.65932
-1.38004
-1.13745
-0.928689
-0.750589
-0.599862
-0.473247
-0.367619
-0.280063
-0.20793
-0.148848
-0.100735
-0.0617881
-0.0304662
-0.00546804
0.0142937
0.0297182
0.0415442
0.0503732
0.0566941
0.0609012
0.0633161
0.0641951
0.0637574
0.0621639
0.0595942
0.0561134
0.0519731
0.046996
0.041885
0.0355029
0.03054
0.0218106
0.0203189
0.0040882
0.0180543
-0.0281456
-14.6172
-14.6448
-14.6735
-14.7037
-14.7354
-14.7692
-14.8053
-14.844
-14.8853
-14.9293
-14.9754
-15.0231
-15.0714
-15.1194
-15.1657
-15.209
-15.248
-15.2812
-15.3073
-15.3252
-15.3338
-15.3322
-15.3196
-15.2953
-15.2589
-15.2098
-15.1477
-15.0723
-14.9832
-14.8801
-14.7627
-14.6304
-14.4828
-14.3193
-14.1391
-13.9413
-13.7249
-13.4889
-13.232
-12.9529
-12.6503
-12.3229
-11.9695
-11.5891
-11.181
-10.745
-10.2814
-9.7911
-9.27588
-8.73837
-8.18208
-7.61148
-7.03183
-6.44914
-5.86987
-5.30072
-4.74829
-4.21875
-3.71754
-3.2491
-2.81669
-2.42233
-2.06679
-1.74974
-1.46991
-1.22527
-1.01328
-0.831062
-0.675599
-0.543855
-0.432898
-0.33997
-0.262541
-0.198331
-0.145325
-0.101763
-0.0661301
-0.0371399
-0.0137077
0.00507067
0.0199441
0.0315285
0.0403296
0.0467598
0.0511597
0.0538046
0.0549327
0.0547228
0.0533716
0.0509608
0.0477555
0.0435957
0.0391875
0.0334262
0.028961
0.0207303
0.0194838
0.00383784
0.0174251
-0.0271902
-14.6024
-14.6286
-14.656
-14.6846
-14.7146
-14.7463
-14.7798
-14.8154
-14.8531
-14.8926
-14.9337
-14.9757
-15.018
-15.0594
-15.099
-15.1354
-15.1675
-15.1941
-15.2139
-15.2257
-15.2287
-15.222
-15.2046
-15.176
-15.1356
-15.083
-15.0176
-14.9392
-14.8473
-14.7415
-14.6216
-14.487
-14.3371
-14.1715
-13.9893
-13.7898
-13.5721
-13.335
-13.0776
-12.7986
-12.497
-12.1715
-11.8211
-11.4451
-11.0429
-10.6143
-10.1598
-9.68044
-9.17783
-8.65453
-8.11386
-7.56001
-6.99787
-6.433
-5.87139
-5.31923
-4.78265
-4.26738
-3.7785
-3.32021
-2.89566
-2.50686
-2.1547
-1.83903
-1.55884
-1.31238
-1.09739
-0.911273
-0.75127
-0.614566
-0.498418
-0.400225
-0.317578
-0.248293
-0.190421
-0.142252
-0.102302
-0.0693004
-0.0421696
-0.0200034
-0.00204476
0.0123345
0.0236553
0.0323472
0.038769
0.0432143
0.0459398
0.0471424
0.0470354
0.0457179
0.0434676
0.0401437
0.0364524
0.0313278
0.027367
0.0196541
0.0186422
0.00362273
0.0167667
-0.0261286
-14.5867
-14.6115
-14.6374
-14.6643
-14.6924
-14.7218
-14.7527
-14.7852
-14.8192
-14.8545
-14.8907
-14.9274
-14.9638
-14.999
-15.0322
-15.0621
-15.0877
-15.1079
-15.1215
-15.1276
-15.1251
-15.1132
-15.0912
-15.0583
-15.0139
-14.9576
-14.8889
-14.8074
-14.7127
-14.6043
-14.4818
-14.3449
-14.1929
-14.0252
-13.8412
-13.6402
-13.4212
-13.1834
-12.9257
-12.6472
-12.3467
-12.0234
-11.6764
-11.305
-10.9088
-10.4879
-10.0426
-9.57407
-9.08392
-8.57456
-8.04913
-7.51153
-6.96633
-6.41867
-5.87407
-5.33829
-4.81697
-4.31546
-3.83852
-3.39011
-2.97326
-2.58999
-2.24126
-1.92711
-1.64674
-1.39866
-1.18089
-0.991093
-0.826746
-0.685254
-0.564061
-0.460717
-0.372939
-0.298638
-0.235937
-0.183178
-0.138911
-0.101887
-0.0710358
-0.0454535
-0.0243771
-0.00716824
0.00670771
0.0176963
0.0261734
0.0324505
0.0368023
0.0394435
0.0406043
0.0404009
0.0391236
0.0366518
0.0336899
0.0292155
0.0257641
0.0185855
0.0177975
0.00344071
0.0160855
-0.0249787
-14.5701