/*--------------------------------*- C++ -*----------------------------------*\
| =========                 |                                                 |
| \\      /  F ield         | OpenFOAM: The Open Source CFD Toolbox           |
|  \\    /   O peration     | Version:  2.1.1                                 |
|   \\  /    A nd           | Web:      www.OpenFOAM.org                      |
|    \\/     M anipulation  |                                                 |
\*---------------------------------------------------------------------------*/
FoamFile
{
    version     2.0;
    format      ascii;
    class       surfaceScalarField;
    location    "0.09";
    object      phi;
}
// * * * * * * * * * * * * * * * * * * * * * * * * * * * * * * * * * * * * * //

dimensions      [0 3 -1 0 0 0 0];

internalField   nonuniform List<scalar> 
13452
(
6.89923e-05
-5.05032e-07
6.88136e-05
1.78743e-07
6.82021e-05
6.11427e-07
6.72546e-05
9.47497e-07
6.61779e-05
1.07669e-06
6.50862e-05
1.09172e-06
6.40212e-05
1.06501e-06
6.30002e-05
1.02099e-06
6.20316e-05
9.68635e-07
6.11187e-05
9.12835e-07
6.02627e-05
8.56008e-07
5.94631e-05
7.99608e-07
5.87185e-05
7.44583e-07
5.8027e-05
6.91597e-07
5.73859e-05
6.411e-07
5.67925e-05
5.93376e-07
5.62439e-05
5.48584e-07
5.57371e-05
5.06785e-07
5.52691e-05
4.67966e-07
5.48371e-05
4.32068e-07
5.44381e-05
3.99001e-07
5.40694e-05
3.68665e-07
5.37284e-05
3.40966e-07
5.34126e-05
3.1584e-07
5.31193e-05
2.93286e-07
5.28459e-05
2.7342e-07
5.25893e-05
2.56568e-07
5.23457e-05
2.43619e-07
5.21097e-05
2.36036e-07
5.18704e-05
2.39306e-07
5.16099e-05
2.6048e-07
5.12782e-05
3.31735e-07
5.30731e-07
5.07474e-05
7.0165e-05
-2.26039e-07
7.00411e-05
3.02563e-07
7.01818e-05
4.70794e-07
7.05091e-05
6.20175e-07
7.08596e-05
7.2616e-07
7.11586e-05
7.92781e-07
7.13833e-05
8.40292e-07
7.15354e-05
8.6884e-07
7.16229e-05
8.81122e-07
7.16547e-05
8.81118e-07
7.16389e-05
8.71778e-07
7.15831e-05
8.55432e-07
7.14938e-05
8.33887e-07
7.13767e-05
8.08615e-07
7.1237e-05
7.80793e-07
7.10791e-05
7.51363e-07
7.09066e-05
7.2108e-07
7.07228e-05
6.90537e-07
7.05306e-05
6.60197e-07
7.03322e-05
6.3042e-07
7.01297e-05
6.01486e-07
6.99248e-05
5.73614e-07
6.97188e-05
5.46996e-07
6.95128e-05
5.21808e-07
6.93078e-05
4.98266e-07
6.91046e-05
4.76638e-07
6.89037e-05
4.5742e-07
6.87061e-05
4.41221e-07
6.85124e-05
4.29743e-07
6.8328e-05
4.23785e-07
6.8158e-05
4.3039e-07
6.80529e-05
4.36867e-07
4.73032e-07
6.81106e-05
7.22816e-05
-5.11229e-08
7.23968e-05
1.87396e-07
7.25016e-05
3.6594e-07
7.25882e-05
5.33602e-07
7.26716e-05
6.42818e-07
7.27537e-05
7.10678e-07
7.28399e-05
7.54064e-07
7.29267e-05
7.82032e-07
7.30101e-05
7.97762e-07
7.30874e-05
8.03804e-07
7.3157e-05
8.02117e-07
7.32182e-05
7.94274e-07
7.32705e-05
7.81558e-07
7.3314e-05
7.65091e-07
7.3349e-05
7.45818e-07
7.33758e-05
7.24534e-07
7.3395e-05
7.01898e-07
7.34071e-05
6.7845e-07
7.34127e-05
6.54633e-07
7.34123e-05
6.30807e-07
7.34065e-05
6.07266e-07
7.33959e-05
5.84262e-07
7.33808e-05
5.62018e-07
7.33619e-05
5.40755e-07
7.33394e-05
5.20725e-07
7.33138e-05
5.02226e-07
7.32855e-05
4.85742e-07
7.3255e-05
4.71778e-07
7.32231e-05
4.61646e-07
7.31915e-05
4.55354e-07
7.31641e-05
4.57788e-07
7.3143e-05
4.5797e-07
4.85195e-07
7.31308e-05
7.45185e-05
-4.29923e-08
7.44882e-05
2.17729e-07
7.44767e-05
3.77395e-07
7.45163e-05
4.9403e-07
7.45766e-05
5.82539e-07
7.46429e-05
6.4434e-07
7.47088e-05
6.88209e-07
7.47726e-05
7.18204e-07
7.48341e-05
7.36282e-07
7.48931e-05
7.44811e-07
7.49493e-05
7.4582e-07
7.50028e-05
7.4087e-07
7.50531e-05
7.3121e-07
7.51003e-05
7.17903e-07
7.51443e-05
7.01833e-07
7.51851e-05
6.83733e-07
7.52228e-05
6.64212e-07
7.52574e-05
6.43772e-07
7.52892e-05
6.22829e-07
7.53183e-05
6.01723e-07
7.53449e-05
5.8074e-07
7.5369e-05
5.60128e-07
7.53909e-05
5.40109e-07
7.54107e-05
5.20903e-07
7.54287e-05
5.02754e-07
7.5445e-05
4.85931e-07
7.54599e-05
4.70831e-07
7.54739e-05
4.57806e-07
7.54879e-05
4.47648e-07
7.55032e-05
4.40085e-07
7.55241e-05
4.36886e-07
7.55508e-05
4.31236e-07
4.28888e-07
7.56071e-05
7.66036e-05
9.3091e-09
7.66282e-05
1.93048e-07
7.66647e-05
3.4096e-07
7.67028e-05
4.55891e-07
7.67412e-05
5.44168e-07
7.67807e-05
6.04816e-07
7.68226e-05
6.46297e-07
7.68665e-05
6.74321e-07
7.69113e-05
6.91494e-07
7.69561e-05
6.99964e-07
7.70005e-05
7.01502e-07
7.70438e-05
6.97482e-07
7.7086e-05
6.89029e-07
7.71268e-05
6.77109e-07
7.71661e-05
6.62533e-07
7.72039e-05
6.45981e-07
7.72401e-05
6.2802e-07
7.72747e-05
6.09122e-07
7.73079e-05
5.8968e-07
7.73396e-05
5.70017e-07
7.73699e-05
5.50409e-07
7.73989e-05
5.31092e-07
7.74268e-05
5.12282e-07
7.74535e-05
4.94183e-07
7.74792e-05
4.77014e-07
7.75041e-05
4.61e-07
7.75285e-05
4.4643e-07
7.75528e-05
4.3351e-07
7.75779e-05
4.22632e-07
7.76046e-05
4.13348e-07
7.76354e-05
4.06096e-07
7.76702e-05
3.96413e-07
3.86229e-07
7.77129e-05
7.88312e-05
2.40524e-08
7.88388e-05
1.85409e-07
7.8857e-05
3.22799e-07
7.88858e-05
4.27019e-07
7.89222e-05
5.07831e-07
7.89614e-05
5.65646e-07
7.90015e-05
6.06182e-07
7.90418e-05
6.33956e-07
7.90821e-05
6.51264e-07
7.91219e-05
6.60085e-07
7.91613e-05
6.62143e-07
7.92e-05
6.58796e-07
7.92379e-05
6.51149e-07
7.92748e-05
6.4013e-07
7.93109e-05
6.26518e-07
7.93459e-05
6.10963e-07
7.93799e-05
5.94008e-07
7.94129e-05
5.76102e-07
7.9445e-05
5.57623e-07
7.94761e-05
5.38881e-07
7.95064e-05
5.2014e-07
7.95358e-05
5.01629e-07
7.95646e-05
4.83549e-07
7.95927e-05
4.66088e-07
7.96202e-05
4.49432e-07
7.96475e-05
4.33755e-07
7.96747e-05
4.19247e-07
7.97022e-05
4.05997e-07
7.97307e-05
3.94117e-07
7.97609e-05
3.83127e-07
7.97942e-05
3.72786e-07
7.98303e-05
3.60333e-07
3.45686e-07
7.98709e-05
8.10848e-05
3.78478e-08
8.10948e-05
1.75398e-07
8.11183e-05
2.99291e-07
8.1149e-05
3.96307e-07
8.11837e-05
4.73132e-07
8.12197e-05
5.29623e-07
8.12563e-05
5.69558e-07
8.12933e-05
5.96944e-07
8.13304e-05
6.14169e-07
8.13674e-05
6.23169e-07
8.14039e-05
6.25602e-07
8.14399e-05
6.2278e-07
8.14753e-05
6.15765e-07
8.151e-05
6.05451e-07
8.15439e-05
5.92586e-07
8.15771e-05
5.77795e-07
8.16095e-05
5.61601e-07
8.16411e-05
5.44437e-07
8.16721e-05
5.26665e-07
8.17024e-05
5.08588e-07
8.17321e-05
4.90459e-07
8.17612e-05
4.72494e-07
8.17899e-05
4.54884e-07
8.18182e-05
4.37796e-07
8.18462e-05
4.21383e-07
8.18742e-05
4.05773e-07
8.19024e-05
3.91074e-07
8.19311e-05
3.77293e-07
8.19608e-05
3.64384e-07
8.1992e-05
3.51893e-07
8.20255e-05
3.39376e-07
8.20607e-05
3.25135e-07
3.08704e-07
8.20976e-05
8.34101e-05
4.32928e-08
8.34201e-05
1.65436e-07
8.34409e-05
2.78416e-07
8.34685e-05
3.68721e-07
8.35009e-05
4.40709e-07
8.35358e-05
4.94794e-07
8.35717e-05
5.33671e-07
8.3608e-05
5.6065e-07
8.36442e-05
5.77915e-07
8.36802e-05
5.87224e-07
8.37156e-05
5.9012e-07
8.37506e-05
5.87862e-07
8.37848e-05
5.81478e-07
8.38185e-05
5.71835e-07
8.38514e-05
5.59657e-07
8.38836e-05
5.45552e-07
8.39152e-05
5.30024e-07
8.39461e-05
5.13496e-07
8.39765e-05
4.96319e-07
8.40063e-05
4.78785e-07
8.40356e-05
4.61138e-07
8.40645e-05
4.43586e-07
8.40931e-05
4.26304e-07
8.41215e-05
4.09439e-07
8.41497e-05
3.93117e-07
8.41781e-05
3.77426e-07
8.42067e-05
3.62417e-07
8.4236e-05
3.48049e-07
8.42662e-05
3.34198e-07
8.42976e-05
3.20478e-07
8.43305e-05
3.06444e-07
8.43646e-05
2.91068e-07
2.73938e-07
8.43993e-05
8.57963e-05
4.56761e-08
8.58062e-05
1.55556e-07
8.58265e-05
2.58141e-07
8.58533e-05
3.41908e-07
8.58847e-05
4.09329e-07
8.59185e-05
4.60975e-07
8.59535e-05
4.98699e-07
8.5989e-05
5.25158e-07
8.60246e-05
5.42336e-07
8.60599e-05
5.51855e-07
8.60949e-05
5.5515e-07
8.61293e-05
5.53412e-07
8.61632e-05
5.47628e-07
8.61964e-05
5.38625e-07
8.6229e-05
5.27103e-07
8.62609e-05
5.13646e-07
8.62921e-05
4.98743e-07
8.63228e-05
4.82802e-07
8.6353e-05
4.66165e-07
8.63827e-05
4.49113e-07
8.64119e-05
4.31883e-07
8.64408e-05
4.1467e-07
8.64695e-05
3.97636e-07
8.6498e-05
3.80913e-07
8.65265e-05
3.64601e-07
8.65552e-05
3.48761e-07
8.65842e-05
3.33407e-07
8.66138e-05
3.18476e-07
8.66442e-05
3.03824e-07
8.66755e-05
2.89144e-07
8.67079e-05
2.74072e-07
8.67409e-05
2.58004e-07
2.40684e-07
8.67742e-05
8.82501e-05
4.55901e-08
8.82602e-05
1.45492e-07
8.82795e-05
2.38827e-07
8.83049e-05
3.16448e-07
8.83348e-05
3.79409e-07
8.83675e-05
4.28326e-07
8.84016e-05
4.64561e-07
8.84365e-05
4.90249e-07
8.84717e-05
5.0716e-07
8.85068e-05
5.16764e-07
8.85416e-05
5.2037e-07
8.85759e-05
5.1909e-07
8.86097e-05
5.13855e-07
8.86429e-05
5.05454e-07
8.86754e-05
4.94552e-07
8.87073e-05
4.81712e-07
8.87387e-05
4.67403e-07
8.87695e-05
4.5202e-07
8.87997e-05
4.3589e-07
8.88296e-05
4.19286e-07
8.8859e-05
4.02435e-07
8.88882e-05
3.85521e-07
8.89171e-05
3.68695e-07
8.89459e-05
3.52073e-07
8.89748e-05
3.35736e-07
8.90038e-05
3.19729e-07
8.90332e-05
3.04046e-07
8.90631e-05
2.8862e-07
8.90936e-05
2.73319e-07
8.91248e-05
2.57913e-07
8.91567e-05
2.42138e-07
8.91891e-05
2.25649e-07
2.08332e-07
8.92214e-05
9.07728e-05
4.41267e-08
9.07828e-05
1.35458e-07
9.08012e-05
2.20414e-07
9.08256e-05
2.92092e-07
9.08543e-05
3.50669e-07
9.08859e-05
3.96711e-07
9.09192e-05
4.31248e-07
9.09535e-05
4.55979e-07
9.09882e-05
4.7245e-07
9.1023e-05
4.81984e-07
9.10576e-05
4.85772e-07
9.10918e-05
4.84844e-07
9.11256e-05
4.80073e-07
9.11589e-05
4.72202e-07
9.11916e-05
4.61865e-07
9.12237e-05
4.49594e-07
9.12552e-05
4.3584e-07
9.12863e-05
4.20979e-07
9.13169e-05
4.05326e-07
9.1347e-05
3.89142e-07
9.13768e-05
3.72642e-07
9.14063e-05
3.56001e-07
9.14356e-05
3.39358e-07
9.14649e-05
3.22818e-07
9.14942e-05
3.0645e-07
9.15236e-05
2.90286e-07
9.15534e-05
2.74317e-07
9.15835e-05
2.58482e-07
9.16141e-05
2.42675e-07
9.16453e-05
2.26733e-07
9.1677e-05
2.10483e-07
9.17089e-05
1.9374e-07
1.76482e-07
9.17407e-05
9.33669e-05
4.18309e-08
9.33769e-05
1.25476e-07
9.33945e-05
2.02822e-07
9.34178e-05
2.68801e-07
9.34454e-05
3.23099e-07
9.34759e-05
3.66167e-07
9.35084e-05
3.98814e-07
9.35419e-05
4.22393e-07
9.35762e-05
4.38242e-07
9.36106e-05
4.47546e-07
9.3645e-05
4.51379e-07
9.36791e-05
4.50687e-07
9.37129e-05
4.46282e-07
9.37463e-05
4.3886e-07
9.37791e-05
4.29016e-07
9.38115e-05
4.17256e-07
9.38433e-05
4.04006e-07
9.38746e-05
3.89625e-07
9.39056e-05
3.74413e-07
9.39361e-05
3.58617e-07
9.39663e-05
3.42443e-07
9.39962e-05
3.26054e-07
9.4026e-05
3.09579e-07
9.40557e-05
2.93115e-07
9.40854e-05
2.76722e-07
9.41153e-05
2.60428e-07
9.41454e-05
2.44225e-07
9.41758e-05
2.28067e-07
9.42066e-05
2.11877e-07
9.42378e-05
1.95548e-07
9.42693e-05
1.78976e-07
9.4301e-05
1.62072e-07
1.44869e-07
9.43326e-05
9.60348e-05
3.90844e-08
9.60447e-05
1.15634e-07
9.60615e-05
1.85996e-07
9.60838e-05
2.46502e-07
9.61103e-05
2.96605e-07
9.61398e-05
3.36637e-07
9.61714e-05
3.67244e-07
9.62043e-05
3.8951e-07
9.62379e-05
4.0458e-07
9.6272e-05
4.13505e-07
9.63061e-05
4.17249e-07
9.63401e-05
4.16674e-07
9.63739e-05
4.12532e-07
9.64073e-05
4.05469e-07
9.64402e-05
3.96042e-07
9.64728e-05
3.84727e-07
9.65048e-05
3.71926e-07
9.65365e-05
3.57977e-07
9.65677e-05
3.43165e-07
9.65986e-05
3.27725e-07
9.66292e-05
3.11849e-07
9.66596e-05
2.95693e-07
9.66898e-05
2.79376e-07
9.67199e-05
2.62986e-07
9.67501e-05
2.46582e-07
9.67803e-05
2.3019e-07
9.68107e-05
2.13808e-07
9.68414e-05
1.97406e-07
9.68723e-05
1.80935e-07
9.69035e-05
1.64331e-07
9.6935e-05
1.47539e-07
9.69665e-05
1.30525e-07
1.1335e-07
9.6998e-05
9.87787e-05
3.61149e-08
9.87883e-05
1.05983e-07
9.88045e-05
1.69872e-07
9.88259e-05
2.25122e-07
9.88513e-05
2.7112e-07
9.88799e-05
3.08084e-07
9.89106e-05
3.36535e-07
9.89428e-05
3.57347e-07
9.89758e-05
3.71493e-07
9.90095e-05
3.79899e-07
9.90433e-05
3.83426e-07
9.90771e-05
3.82855e-07
9.91108e-05
3.78874e-07
9.91441e-05
3.72081e-07
9.91772e-05
3.62994e-07
9.92099e-05
3.52057e-07
9.92421e-05
3.39647e-07
9.9274e-05
3.26083e-07
9.93056e-05
3.11631e-07
9.93368e-05
2.96514e-07
9.93677e-05
2.80912e-07
9.93984e-05
2.64972e-07
9.9429e-05
2.48805e-07
9.94595e-05
2.32496e-07
9.949e-05
2.16098e-07
9.95205e-05
1.99642e-07
9.95512e-05
1.83133e-07
9.95821e-05
1.66557e-07
9.96131e-05
1.49887e-07
9.96443e-05
1.33092e-07
9.96757e-05
1.16148e-07
9.97072e-05
9.90544e-08
8.18804e-08
9.97387e-05
0.000101601
3.30624e-08
0.00010161
9.65668e-08
0.000101626
1.54396e-07
0.000101646
2.04595e-07
0.000101671
2.46573e-07
0.000101698
2.80454e-07
0.000101728
3.0666e-07
0.00010176
3.25898e-07
0.000101792
3.38994e-07
0.000101825
3.46755e-07
0.000101859
3.49947e-07
0.000101892
3.49271e-07
0.000101926
3.45355e-07
0.000101959
3.38747e-07
0.000101992
3.29926e-07
0.000102025
3.19302e-07
0.000102058
3.07228e-07
0.00010209
2.94002e-07
0.000102121
2.79873e-07
0.000102153
2.6505e-07
0.000102184
2.49701e-07
0.000102215
2.33965e-07
0.000102246
2.17947e-07
0.000102277
2.01726e-07
0.000102307
1.85357e-07
0.000102338
1.68872e-07
0.000102369
1.52286e-07
0.0001024
1.35596e-07
0.000102431
1.18795e-07
0.000102462
1.01873e-07
0.000102494
8.48283e-08
0.000102525
6.76746e-08
5.04829e-08
0.000102556
0.000104503
3.00088e-08
0.000104513
8.74106e-08
0.000104527
1.39516e-07
0.000104547
1.84856e-07
0.000104571
2.22897e-07
0.000104598
2.53695e-07
0.000104627
2.77588e-07
0.000104657
2.95154e-07
0.000104689
3.07087e-07
0.000104722
3.14089e-07
0.000104755
3.16837e-07
0.000104788
3.15957e-07
0.000104822
3.12014e-07
0.000104855
3.05511e-07
0.000104888
2.96885e-07
0.000104921
2.86515e-07
0.000104953
2.74726e-07
0.000104986
2.61796e-07
0.000105018
2.47957e-07
0.000105049
2.33402e-07
0.000105081
2.18292e-07
0.000105112
2.02753e-07
0.000105143
1.86886e-07
0.000105174
1.70768e-07
0.000105205
1.54452e-07
0.000105236
1.37976e-07
0.000105267
1.21359e-07
0.000105298
1.04611e-07
0.000105329
8.77371e-08
0.00010536
7.07421e-08
0.000105391
5.36379e-08
0.000105422
3.64448e-08
1.92308e-08
0.000105453
0.000107489
2.70003e-08
0.000107498
7.85279e-08
0.000107512
1.25188e-07
0.000107531
1.65843e-07
0.000107554
2.00028e-07
0.00010758
2.27753e-07
0.000107608
2.49285e-07
0.000107638
2.65095e-07
0.00010767
2.75768e-07
0.000107702
2.8191e-07
0.000107735
2.84114e-07
0.000107768
2.82937e-07
0.000107801
2.78885e-07
0.000107834
2.72412e-07
0.000107867
2.63916e-07
0.0001079
2.53744e-07
0.000107932
2.42195e-07
0.000107964
2.29525e-07
0.000107996
2.15947e-07
0.000108028
2.01643e-07
0.00010806
1.8676e-07
0.000108091
1.71417e-07
0.000108122
1.55711e-07
0.000108153
1.39714e-07
0.000108184
1.23481e-07
0.000108215
1.0705e-07
0.000108246
9.04491e-08
0.000108277
7.36949e-08
0.000108308
5.68018e-08
0.000108339
3.9784e-08
0.00010837
2.26606e-08
0.000108401
5.45467e-09
-1.17703e-08
0.000108432
0.00011056
2.40611e-08
0.000110568
6.99214e-08
0.000110582
1.11371e-07
0.000110601
1.47499e-07
0.000110623
1.77908e-07
0.000110648
2.02575e-07
0.000110675
2.21709e-07
0.000110705
2.35697e-07
0.000110736
2.45026e-07
0.000110767
2.50219e-07
0.0001108
2.51791e-07
0.000110832
2.50232e-07
0.000110865
2.45995e-07
0.000110898
2.39484e-07
0.000110931
2.3106e-07
0.000110964
2.21038e-07
0.000110996
2.09689e-07
0.000111028
1.97247e-07
0.000111061
1.83909e-07
0.000111092
1.69842e-07
0.000111124
1.55182e-07
0.000111155
1.40041e-07
0.000111186
1.2451e-07
0.000111218
1.08658e-07
0.000111248
9.25396e-08
0.000111279
7.6196e-08
0.00011131
5.96575e-08
0.000111341
4.29481e-08
0.000111372
2.60879e-08
0.000111402
9.09714e-09
0.000111433
-8.0017e-09
0.000111464
-2.51851e-08
-4.23938e-08
0.000111494
0.000113718
2.12022e-08
0.000113727
6.15862e-08
0.00011374
9.80267e-08
0.000113758
1.29771e-07
0.000113779
1.56479e-07
0.000113804
1.78108e-07
0.000113831
1.9482e-07
0.000113859
2.06929e-07
0.000113889
2.14845e-07
0.000113921
2.1901e-07
0.000113953
2.19872e-07
0.000113985
2.17858e-07
0.000114018
2.13366e-07
0.00011405
2.06758e-07
0.000114083
1.98355e-07
0.000114116
1.88439e-07
0.000114148
1.77256e-07
0.00011418
1.65018e-07
0.000114212
1.51905e-07
0.000114244
1.38069e-07
0.000114276
1.23635e-07
0.000114307
1.08708e-07
0.000114338
9.33712e-08
0.000114369
7.76928e-08
0.0001144
6.1726e-08
0.000114431
4.55128e-08
0.000114461
2.90865e-08
0.000114492
1.24747e-08
0.000114522
-4.2983e-09
0.000114552
-2.12092e-08
0.000114583
-3.82338e-08
0.000114613
-5.53491e-08
-7.24991e-08
0.000114643
0.000116967
1.8427e-08
0.000116975
5.3512e-08
0.000116988
8.51179e-08
0.000117005
1.12606e-07
0.000117026
1.35685e-07
0.00011705
1.543e-07
0.000117076
1.68573e-07
0.000117104
1.78761e-07
0.000117134
1.85202e-07
0.000117165
1.88273e-07
0.000117196
1.88356e-07
0.000117228
1.85822e-07
0.000117261
1.81018e-07
0.000117293
1.7426e-07
0.000117326
1.65834e-07
0.000117358
1.55989e-07
0.00011739
1.44947e-07
0.000117422
1.32896e-07
0.000117454
1.19999e-07
0.000117486
1.06394e-07
0.000117517
9.21954e-08
0.000117549
7.7499e-08
0.00011758
6.23833e-08
0.00011761
4.69126e-08
0.000117641
3.11385e-08
0.000117671
1.51033e-08
0.000117702
-1.15819e-09
0.000117732
-1.76163e-08
0.000117762
-3.42444e-08
0.000117792
-5.10176e-08
0.000117821
-6.79107e-08
0.000117851
-8.4902e-08
-1.01938e-07
0.00011788
0.000120309
1.57341e-08
0.000120317
4.56846e-08
0.000120329
7.26098e-08
0.000120346
9.59565e-08
0.000120366
1.15473e-07
0.000120389
1.31097e-07
0.000120415
1.42922e-07
0.000120442
1.51153e-07
0.000120472
1.56071e-07
0.000120502
1.57992e-07
0.000120533
1.57239e-07
0.000120565
1.54129e-07
0.000120597
1.48962e-07
0.000120629
1.42012e-07
0.000120661
1.33527e-07
0.000120693
1.23728e-07
0.000120726
1.12807e-07
0.000120758
1.00934e-07
0.000120789
8.82521e-08
0.000120821
7.48856e-08
0.000120852
6.09385e-08
0.000120883
4.64972e-08
0.000120914
3.16348e-08
0.000120944
1.64113e-08
0.000120975
8.76323e-10
0.000121005
-1.49287e-08
0.000121034
-3.09684e-08
0.000121064
-4.72123e-08
0.000121093
-6.36328e-08
0.000121123
-8.02039e-08
0.000121152
-9.69007e-08
0.00012118
-1.13702e-07
-1.30555e-07
0.000121209
0.000123746
1.31197e-08
0.000123753
3.8088e-08
0.000123766
6.04687e-08
0.000123782
7.97758e-08
0.000123801
9.57894e-08
0.000123824
1.08448e-07
0.000123849
1.17818e-07
0.000123876
1.24065e-07
0.000123905
1.27419e-07
0.000123935
1.28143e-07
0.000123965
1.26506e-07
0.000123997
1.22775e-07
0.000124029
1.17206e-07
0.000124061
1.1003e-07
0.000124093
1.01461e-07
0.000124125
9.16876e-08
0.000124157
8.08789e-08
0.000124188
6.91815e-08
0.00012422
5.67223e-08
0.000124251
4.36103e-08
0.000124282
2.99381e-08
0.000124313
1.57832e-08
0.000124343
1.21298e-09
0.000124373
-1.37175e-08
0.000124403
-2.89614e-08
0.000124433
-4.44786e-08
0.000124462
-6.02344e-08
0.000124491
-7.61984e-08
0.00012452
-9.23425e-08
0.000124548
-1.08641e-07
0.000124576
-1.25068e-07
0.000124604
-1.41605e-07
-1.58199e-07
0.000124632
0.000127281
1.05788e-08
0.000127288
3.07044e-08
0.0001273
4.86609e-08
0.000127316
6.40165e-08
0.000127335
7.65803e-08
0.000127357
8.62946e-08
0.000127382
9.32068e-08
0.000127409
9.74478e-08
0.000127437
9.92071e-08
0.000127466
9.86975e-08
0.000127497
9.61397e-08
0.000127528
9.17514e-08
0.000127559
8.57506e-08
0.000127591
7.83264e-08
0.000127623
6.96555e-08
0.000127654
5.99004e-08
0.000127686
4.92029e-08
0.000127718
3.76887e-08
0.000127749
2.54671e-08
0.00012778
1.26325e-08
0.00012781
-7.32065e-10
0.000127841
-1.45632e-08
0.000127871
-2.87957e-08
0.0001279
-4.33811e-08
0.00012793
-5.82757e-08
0.000127959
-7.34418e-08
0.000127987
-8.8846e-08
0.000128016
-1.04458e-07
0.000128044
-1.20251e-07
0.000128071
-1.36199e-07
0.000128098
-1.52277e-07
0.000128125
-1.68466e-07
-1.84713e-07
0.000128152
0.000130917
8.10706e-09
0.000130925
2.35194e-08
0.000130936
3.71596e-08
0.000130951
4.86405e-08
0.00013097
5.77991e-08
0.000130992
6.45864e-08
0.000131016
6.9036e-08
0.000131042
7.12496e-08
0.00013107
7.13858e-08
0.000131099
6.96135e-08
0.000131129
6.61067e-08
0.00013116
6.1034e-08
0.000131191
5.45846e-08
0.000131223
4.68987e-08
0.000131254
3.81213e-08
0.000131286
2.83859e-08
0.000131317
1.78082e-08
0.000131348
6.4947e-09
0.000131379
-5.46401e-09
0.00013141
-1.79882e-08
0.00013144
-3.10089e-08
0.00013147
-4.44667e-08
0.000131499
-5.83085e-08
0.000131529
-7.24896e-08
0.000131557
-8.69704e-08
0.000131585
-1.01716e-07
0.000131613
-1.16694e-07
0.000131641
-1.31878e-07
0.000131668
-1.47238e-07
0.000131694
-1.62752e-07
0.00013172
-1.78394e-07
0.000131746
-1.94144e-07
-2.09952e-07
0.000131771
0.000134658
5.69546e-09
0.000134665
1.65094e-08
0.000134676
2.59227e-08
0.000134691
3.3588e-08
0.000134709
3.93737e-08
0.000134731
4.32485e-08
0.000134754
4.52361e-08
0.00013478
4.54109e-08
0.000134808
4.39076e-08
0.000134836
4.08531e-08
0.000134866
3.63775e-08
0.000134897
3.06024e-08
0.000134928
2.37065e-08
0.000134959
1.57517e-08
0.00013499
6.87076e-09
0.000135021
-2.83123e-09
0.000135052
-1.32721e-08
0.000135083
-2.43586e-08
0.000135114
-3.60216e-08
0.000135144
-4.81956e-08
0.000135174
-6.08234e-08
0.000135203
-7.38552e-08
0.000135232
-8.72463e-08
0.00013526
-1.00957e-07
0.000135288
-1.14953e-07
0.000135316
-1.29202e-07
0.000135343
-1.43675e-07
0.000135369
-1.58345e-07
0.000135395
-1.73186e-07
0.000135421
-1.88175e-07
0.000135446
-2.03287e-07
0.00013547
-2.18502e-07
-2.33771e-07
0.000135494
0.000138505
3.35547e-09
0.000138511
9.69056e-09
0.000138522
1.49641e-08
0.000138537
1.88598e-08
0.000138555
2.12862e-08
0.000138576
2.2241e-08
0.0001386
2.17318e-08
0.000138625
1.98321e-08
0.000138652
1.66742e-08
0.000138681
1.23305e-08
0.000138711
6.88771e-09
0.000138741
3.57794e-10
0.000138771
-6.93921e-09
0.000138802
-1.51525e-08
0.000138833
-2.41162e-08
0.000138864
-3.37653e-08
0.000138895
-4.40324e-08
0.000138925
-5.48534e-08
0.000138956
-6.61746e-08
0.000138985
-7.79462e-08
0.000139015
-9.01233e-08
0.000139043
-1.02666e-07
0.000139072
-1.15537e-07
0.0001391
-1.28704e-07
0.000139127
-1.42136e-07
0.000139153
-1.55806e-07
0.000139179
-1.69686e-07
0.000139205
-1.83753e-07
0.00013923
-1.97982e-07
0.000139254
-2.1235e-07
0.000139277
-2.26834e-07
0.0001393
-2.41414e-07
-2.56043e-07
0.000139322
0.000142462
1.03281e-09
0.000142468
2.97346e-09
0.000142479
4.16079e-09
0.000142494
4.31343e-09
0.000142512
3.39265e-09
0.000142532
1.47502e-09
0.000142556
-1.49422e-09
0.000142581
-5.5036e-09
0.000142608
-1.03322e-08
0.000142636
-1.59874e-08
0.000142665
-2.24125e-08
0.000142695
-2.95702e-08
0.000142726
-3.73671e-08
0.000142756
-4.58101e-08
0.000142787
-5.48341e-08
0.000142818
-6.43933e-08
0.000142848
-7.44478e-08
0.000142878
-8.49576e-08
0.000142908
-9.58853e-08
0.000142937
-1.07196e-07
0.000142966
-1.18859e-07
0.000142994
-1.30842e-07
0.000143022
-1.43118e-07
0.000143049
-1.55661e-07
0.000143075
-1.68445e-07
0.000143101
-1.81446e-07
0.000143126
-1.94642e-07
0.00014315
-2.0801e-07
0.000143173
-2.21528e-07
0.000143196
-2.35173e-07
0.000143218
-2.48925e-07
0.00014324
-2.62763e-07
-2.76641e-07
0.00014326
0.000146531
-1.09339e-09
0.000146538
-3.38475e-09
0.000146548
-6.22826e-09
0.000146562
-9.86557e-09
0.00014658
-1.42342e-08
0.000146601
-1.92281e-08
0.000146624
-2.47934e-08
0.000146649
-3.08679e-08
0.000146676
-3.73762e-08
0.000146705
-4.4322e-08
0.000146734
-5.16987e-08
0.000146764
-5.95057e-08
0.000146794
-6.77181e-08
0.000146825
-7.63422e-08
0.000146855
-8.53673e-08
0.000146886
-9.47773e-08
0.000146916
-1.04556e-07
0.000146946
-1.14686e-07
0.000146975
-1.25149e-07
0.000147004
-1.35923e-07
0.000147032
-1.46991e-07
0.000147059
-1.58332e-07
0.000147086
-1.69927e-07
0.000147112
-1.81755e-07
0.000147137
-1.93797e-07
0.000147162
-2.06035e-07
0.000147186
-2.18447e-07
0.000147209
-2.31015e-07
0.000147231
-2.43719e-07
0.000147252
-2.56538e-07
0.000147273
-2.69452e-07
0.000147293
-2.82443e-07
-2.95465e-07
0.000147311
0.000150718
-3.53977e-09
0.000150725
-9.97959e-09
0.000150735
-1.67352e-08
0.000150749
-2.40293e-08
0.000150767
-3.1741e-08
0.000150787
-3.97048e-08
0.00015081
-4.78074e-08
0.000150835
-5.59881e-08
0.000150862
-6.4205e-08
0.00015089
-7.24697e-08
0.00015092
-8.08137e-08
0.000150949
-8.92743e-08
0.00015098
-9.78809e-08
0.00015101
-1.0667e-07
0.00015104
-1.15665e-07
0.00015107
-1.24884e-07
0.0001511
-1.34337e-07
0.000151129
-1.44027e-07
0.000151158
-1.53957e-07
0.000151186
-1.64121e-07
0.000151214
-1.74514e-07
0.000151241
-1.85128e-07
0.000151267
-1.9595e-07
0.000151292
-2.06969e-07
0.000151316
-2.18172e-07
0.00015134
-2.29543e-07
0.000151362
-2.41068e-07
0.000151384
-2.52728e-07
0.000151405
-2.64508e-07
0.000151425
-2.76389e-07
0.000151444
-2.88351e-07
0.000151462
-3.00377e-07
-3.12425e-07
0.000151479
0.000155023
-4.81161e-09
0.000155028
-1.52312e-08
0.000155038
-2.62462e-08
0.000155051
-3.78308e-08
0.000155069
-4.94613e-08
0.00015509
-6.07812e-08
0.000155114
-7.16279e-08
0.00015514
-8.19667e-08
0.000155168
-9.18304e-08
0.000155197
-1.013e-07
0.000155226
-1.10472e-07
0.000155256
-1.19443e-07
0.000155287
-1.28299e-07
0.000155317
-1.37113e-07
0.000155347
-1.45949e-07
0.000155377
-1.54853e-07
0.000155407
-1.63861e-07
0.000155436
-1.73001e-07
0.000155464
-1.8229e-07
0.000155492
-1.91738e-07
0.000155519
-2.01353e-07
0.000155545
-2.11135e-07
0.00015557
-2.21082e-07
0.000155594
-2.31188e-07
0.000155617
-2.41445e-07
0.00015564
-2.51845e-07
0.000155661
-2.62374e-07
0.000155681
-2.73019e-07
0.000155701
-2.83767e-07
0.000155719
-2.946e-07
0.000155736
-3.05504e-07
0.000155752
-3.16461e-07
-3.27433e-07
0.000155767
0.000159454
-8.64707e-09
0.000159461
-2.22791e-08
0.000159472
-3.64759e-08
0.000159485
-5.12813e-08
0.000159502
-6.62239e-08
0.000159522
-8.072e-08
0.000159545
-9.43837e-08
0.00015957
-1.07069e-07
0.000159597
-1.18793e-07
0.000159625
-1.29663e-07
0.000159654
-1.39821e-07
0.000159684
-1.49416e-07
0.000159715
-1.58588e-07
0.000159745
-1.67459e-07
0.000159775
-1.76133e-07
0.000159805
-1.84695e-07
0.000159834
-1.93211e-07
0.000159863
-2.01734e-07
0.000159891
-2.10303e-07
0.000159918
-2.18946e-07
0.000159945
-2.27684e-07
0.00015997
-2.3653e-07
0.000159994
-2.45492e-07
0.000160018
-2.54571e-07
0.00016004
-2.63767e-07
0.000160061
-2.73075e-07
0.000160082
-2.82487e-07
0.000160101
-2.91996e-07
0.000160118
-3.01588e-07
0.000160135
-3.11251e-07
0.00016015
-3.2097e-07
0.000160165
-3.3073e-07
-3.40496e-07
0.000160178
0.000164003
-5.99692e-09
0.000164005
-2.40201e-08
0.000164013
-4.45339e-08
0.000164028
-6.5707e-08
0.000164047
-8.58484e-08
0.000164071
-1.04213e-07
0.000164097
-1.20656e-07
0.000164125
-1.35296e-07
0.000164155
-1.48352e-07
0.000164185
-1.6007e-07
0.000164216
-1.70697e-07
0.000164247
-1.80459e-07
0.000164278
-1.89556e-07
0.000164309
-1.98156e-07
0.000164339
-2.06395e-07
0.000164369
-2.14386e-07
0.000164398
-2.22217e-07
0.000164426
-2.29957e-07
0.000164453
-2.37661e-07
0.00016448
-2.45369e-07
0.000164505
-2.53111e-07
0.00016453
-2.6091e-07
0.000164553
-2.68778e-07
0.000164575
-2.76726e-07
0.000164596
-2.84758e-07
0.000164616
-2.92873e-07
0.000164634
-3.01068e-07
0.000164652
-3.09338e-07
0.000164668
-3.17674e-07
0.000164683
-3.26066e-07
0.000164696
-3.34502e-07
0.000164708
-3.42971e-07
-3.5144e-07
0.000164719
0.000168701
-1.54211e-08
0.000168709
-3.20475e-08
0.000168717
-5.21871e-08
0.000168726
-7.52448e-08
0.00016874
-9.93415e-08
0.000168758
-1.22206e-07
0.00016878
-1.42667e-07
0.000168805
-1.60519e-07
0.000168833
-1.7599e-07
0.000168862
-1.89418e-07
0.000168893
-2.01155e-07
0.000168924
-2.11533e-07
0.000168955
-2.20846e-07
0.000168986
-2.29338e-07
0.000169017
-2.37212e-07
0.000169047
-2.4463e-07
0.000169077
-2.51722e-07
0.000169105
-2.58591e-07
0.000169133
-2.65315e-07
0.00016916
-2.71955e-07
0.000169185
-2.78558e-07
0.000169209
-2.85158e-07
0.000169232
-2.91781e-07
0.000169254
-2.98442e-07
0.000169274
-3.05155e-07
0.000169293
-3.11923e-07
0.000169311
-3.18749e-07
0.000169327
-3.25631e-07
0.000169342
-3.32564e-07
0.000169356
-3.39542e-07
0.000169368
-3.46553e-07
0.000169378
-3.5359e-07
-3.60625e-07
0.000169388
0.000173491
4.65283e-09
0.000173485
-2.56384e-08
0.000173494
-6.1651e-08
0.000173515
-9.64176e-08
0.000173543
-1.27014e-07
0.000173574
-1.52962e-07
0.000173606
-1.74891e-07
0.000173639
-1.93388e-07
0.000173672
-2.09027e-07
0.000173705
-2.22314e-07
0.000173737
-2.33704e-07
0.00017377
-2.4359e-07
0.000173801
-2.52295e-07
0.000173832
-2.60083e-07
0.000173862
-2.67166e-07
0.000173891
-2.73713e-07
0.000173919
-2.79861e-07
0.000173946
-2.85716e-07
0.000173972
-2.91365e-07
0.000173997
-2.96872e-07
0.000174021
-3.02289e-07
0.000174043
-3.07656e-07
0.000174064
-3.13001e-07
0.000174084
-3.18348e-07
0.000174103
-3.23711e-07
0.00017412
-3.29099e-07
0.000174136
-3.3452e-07
0.00017415
-3.39973e-07
0.000174163
-3.45459e-07
0.000174175
-3.50972e-07
0.000174184
-3.56508e-07
0.000174193
-3.62058e-07
-3.67599e-07
0.0001742
0.000178498
-2.45944e-08
0.0001785
-2.78158e-08
0.000178489
-5.04142e-08
0.00017848
-8.76237e-08
0.000178482
-1.29194e-07
0.000178495
-1.66133e-07
0.000178517
-1.96294e-07
0.000178544
-2.20387e-07
0.000178574
-2.39737e-07
0.000178607
-2.55338e-07
0.000178642
-2.67997e-07
0.000178677
-2.78383e-07
0.000178711
-2.8703e-07
0.000178746
-2.94353e-07
0.000178779
-3.00676e-07
0.000178812
-3.06247e-07
0.000178843
-3.1126e-07
0.000178873
-3.15863e-07
0.000178902
-3.2017e-07
0.000178929
-3.24267e-07
0.000178955
-3.28222e-07
0.00017898
-3.32085e-07
0.000179003
-3.35893e-07
0.000179024
-3.39675e-07
0.000179044
-3.43452e-07
0.000179062
-3.47238e-07
0.000179078
-3.51041e-07
0.000179093
-3.54867e-07
0.000179106
-3.58718e-07
0.000179118
-3.62593e-07
0.000179128
-3.66488e-07
0.000179136
-3.70402e-07
-3.74314e-07
0.000179143
0.000183487
5.61936e-08
0.000183465
-5.82121e-09
0.000183501
-8.62973e-08
0.000183552
-1.39103e-07
0.000183603
-1.79865e-07
0.000183648
-2.116e-07
0.000183689
-2.36954e-07
0.000183726
-2.57745e-07
0.000183761
-2.74697e-07
0.000183794
-2.88515e-07
0.000183826
-2.99865e-07
0.000183857
-3.09265e-07
0.000183887
-3.17114e-07
0.000183916
-3.23733e-07
0.000183945
-3.2938e-07
0.000183973
-3.34259e-07
0.000184
-3.38533e-07
0.000184027
-3.42331e-07
0.000184053
-3.45757e-07
0.000184077
-3.48893e-07
0.000184101
-3.51805e-07
0.000184123
-3.54546e-07
0.000184144
-3.57158e-07
0.000184164
-3.59673e-07
0.000184183
-3.62117e-07
0.0001842
-3.64511e-07
0.000184216
-3.6687e-07
0.000184231
-3.69204e-07
0.000184243
-3.71522e-07
0.000184255
-3.73825e-07
0.000184264
-3.76115e-07
0.000184272
-3.78391e-07
-3.80642e-07
0.000184279
0.000188861
7.42263e-09
0.000188795
5.9473e-08
0.000188709
-3.39279e-10
0.000188645
-7.51482e-08
0.000188627
-1.61284e-07
0.00018864
-2.24763e-07
0.000188672
-2.68684e-07
0.000188714
-2.99939e-07
0.000188762
-3.22753e-07
0.000188813
-3.39713e-07
0.000188866
-3.52456e-07
0.000188919
-3.62112e-07
0.000188971
-3.6948e-07
0.000189022
-3.75134e-07
0.000189073
-3.79492e-07
0.000189121
-3.82859e-07
0.000189168
-3.85464e-07
0.000189213
-3.87481e-07