/*--------------------------------*- C++ -*----------------------------------*\
| =========                 |                                                 |
| \\      /  F ield         | OpenFOAM: The Open Source CFD Toolbox           |
|  \\    /   O peration     | Version:  2.1.1                                 |
|   \\  /    A nd           | Web:      www.OpenFOAM.org                      |
|    \\/     M anipulation  |                                                 |
\*---------------------------------------------------------------------------*/
FoamFile
{
    version     2.0;
    format      ascii;
    class       volVectorField;
    location    "0.09";
    object      U;
}
// * * * * * * * * * * * * * * * * * * * * * * * * * * * * * * * * * * * * * //

dimensions      [0 1 -1 0 0 0 0];

internalField   nonuniform List<vector> 
6820
(
(8.34337 -0.360077 0)
(8.40111 -0.247158 0)
(8.35613 -0.115298 0)
(8.24786 -0.0365644 0)
(8.11945 0.00599882 0)
(7.98606 0.0278583 0)
(7.854 0.0386263 0)
(7.72665 0.0433252 0)
(7.60543 0.0445963 0)
(7.49087 0.0438967 0)
(7.38322 0.0420678 0)
(7.28249 0.0396141 0)
(7.18856 0.0368468 0)
(7.10122 0.0339616 0)
(7.0202 0.0310824 0)
(6.94515 0.0282867 0)
(6.87574 0.0256221 0)
(6.8116 0.0231157 0)
(6.75236 0.0207814 0)
(6.69767 0.0186239 0)
(6.64718 0.0166425 0)
(6.60054 0.0148334 0)
(6.55742 0.0131916 0)
(6.51753 0.0117131 0)
(6.48053 0.0103967 0)
(6.44613 0.00924851 0)
(6.41397 0.00828607 0)
(6.38365 0.007563 0)
(6.35467 0.00717374 0)
(6.32614 0.0074053 0)
(6.29635 0.00907202 0)
(6.26282 0.0127049 0)
(6.21464 0.0321251 0)
(8.32139 0.166249 0)
(8.28709 0.189997 0)
(8.28544 0.132148 0)
(8.31742 0.0958404 0)
(8.36173 0.0749995 0)
(8.4018 0.0623339 0)
(8.43292 0.0548475 0)
(8.45503 0.0503208 0)
(8.469 0.0474128 0)
(8.47584 0.04541 0)
(8.47658 0.0439177 0)
(8.47217 0.0426982 0)
(8.46342 0.0416126 0)
(8.45108 0.040584 0)
(8.43577 0.039572 0)
(8.41806 0.038558 0)
(8.39842 0.0375361 0)
(8.37726 0.0365076 0)
(8.35495 0.0354773 0)
(8.33179 0.0344523 0)
(8.30803 0.0334403 0)
(8.28389 0.0324501 0)
(8.25955 0.0314914 0)
(8.23515 0.030576 0)
(8.21082 0.0297205 0)
(8.18665 0.0289489 0)
(8.16274 0.0283025 0)
(8.13912 0.0278557 0)
(8.11603 0.0277359 0)
(8.09321 0.0282919 0)
(8.07293 0.0298586 0)
(8.05226 0.0346404 0)
(8.05343 0.0422177 0)
(8.3225 -0.0608872 0)
(8.31398 -0.0832875 0)
(8.33052 -0.0541057 0)
(8.34435 -0.0203124 0)
(8.35324 0.00239287 0)
(8.36228 0.0165143 0)
(8.37204 0.0257488 0)
(8.38209 0.0319616 0)
(8.39196 0.0361766 0)
(8.40126 0.039039 0)
(8.40975 0.0409434 0)
(8.41729 0.042134 0)
(8.42383 0.0427849 0)
(8.42934 0.0430272 0)
(8.43385 0.0429605 0)
(8.4374 0.0426613 0)
(8.44003 0.0421891 0)
(8.44182 0.0415909 0)
(8.44282 0.0409039 0)
(8.4431 0.0401577 0)
(8.44274 0.0393767 0)
(8.44178 0.0385816 0)
(8.44029 0.0377909 0)
(8.43833 0.0370227 0)
(8.43594 0.036298 0)
(8.43317 0.0356417 0)
(8.43006 0.035096 0)
(8.42665 0.034703 0)
(8.42306 0.0346031 0)
(8.4193 0.0347514 0)
(8.41593 0.0358495 0)
(8.41276 0.0359074 0)
(8.41132 0.0392726 0)
(8.33365 0.0145611 0)
(8.32977 0.0476915 0)
(8.32739 0.0539567 0)
(8.32873 0.04654 0)
(8.33463 0.0410366 0)
(8.34218 0.0385276 0)
(8.3497 0.0377118 0)
(8.35695 0.0376615 0)
(8.36396 0.0378754 0)
(8.37071 0.0381331 0)
(8.37716 0.0383363 0)
(8.3833 0.0384438 0)
(8.38911 0.0384461 0)
(8.39457 0.0383465 0)
(8.39966 0.0381538 0)
(8.40441 0.0378791 0)
(8.40879 0.037535 0)
(8.41284 0.0371342 0)
(8.41655 0.0366891 0)
(8.41995 0.0362119 0)
(8.42306 0.0357142 0)
(8.42589 0.0352076 0)
(8.42846 0.0347045 0)
(8.43079 0.0342192 0)
(8.4329 0.0337697 0)
(8.43481 0.0333787 0)
(8.43655 0.0330815 0)
(8.43815 0.032919 0)
(8.4397 0.0329701 0)
(8.44125 0.0332679 0)
(8.44326 0.0339787 0)
(8.44568 0.0347691 0)
(8.45 0.0361379 0)
(8.3302 -0.00531317 0)
(8.32722 -0.00751538 0)
(8.33139 -0.0024673 0)
(8.33608 0.00801286 0)
(8.34016 0.017181 0)
(8.34435 0.0233914 0)
(8.34878 0.0275685 0)
(8.35345 0.0305244 0)
(8.35829 0.0326603 0)
(8.36319 0.0342086 0)
(8.36805 0.0353145 0)
(8.37282 0.0360725 0)
(8.37748 0.0365494 0)
(8.38199 0.0367966 0)
(8.38635 0.0368569 0)
(8.39054 0.036766 0)
(8.39456 0.0365544 0)
(8.39841 0.0362482 0)
(8.4021 0.0358694 0)
(8.40562 0.0354372 0)
(8.40899 0.0349687 0)
(8.41222 0.0344795 0)
(8.41531 0.0339845 0)
(8.41827 0.0334996 0)
(8.42112 0.0330427 0)
(8.42387 0.0326343 0)
(8.42654 0.0323028 0)
(8.42917 0.0320735 0)
(8.43184 0.0319971 0)
(8.4346 0.0320483 0)
(8.4377 0.0323209 0)
(8.44118 0.0323431 0)
(8.44543 0.0324068 0)
(8.33239 0.00228248 0)
(8.33118 0.0133007 0)
(8.33281 0.0203825 0)
(8.33552 0.0237666 0)
(8.33898 0.0259121 0)
(8.34304 0.0277118 0)
(8.34729 0.0293801 0)
(8.35155 0.0308656 0)
(8.35581 0.0320878 0)
(8.36005 0.0330357 0)
(8.36425 0.0337315 0)
(8.36837 0.0342032 0)
(8.37242 0.0344796 0)
(8.37638 0.0345898 0)
(8.38024 0.0345609 0)
(8.384 0.0344171 0)
(8.38764 0.0341796 0)
(8.39119 0.0338673 0)
(8.39463 0.0334968 0)
(8.39796 0.033083 0)
(8.40121 0.0326393 0)
(8.40436 0.0321785 0)
(8.40744 0.0317132 0)
(8.41044 0.0312567 0)
(8.41338 0.0308235 0)
(8.41627 0.0304298 0)
(8.41914 0.0300952 0)
(8.42202 0.0298347 0)
(8.42496 0.0296698 0)
(8.42804 0.0295732 0)
(8.43138 0.0295439 0)
(8.43501 0.0293261 0)
(8.43907 0.0289351 0)
(8.33233 0.000869673 0)
(8.33152 0.00577544 0)
(8.33342 0.0107461 0)
(8.33647 0.0155396 0)
(8.33988 0.0199182 0)
(8.34354 0.0234213 0)
(8.3473 0.0260955 0)
(8.35109 0.028136 0)
(8.3549 0.0296796 0)
(8.35871 0.0308286 0)
(8.36249 0.0316603 0)
(8.36622 0.0322307 0)
(8.36989 0.0325832 0)
(8.37349 0.0327541 0)
(8.37702 0.0327741 0)
(8.38047 0.0326695 0)
(8.38384 0.0324631 0)
(8.38713 0.0321748 0)
(8.39034 0.0318219 0)
(8.39349 0.0314196 0)
(8.39657 0.0309819 0)
(8.39959 0.0305214 0)
(8.40256 0.0300504 0)
(8.40548 0.029581 0)
(8.40837 0.0291258 0)
(8.41125 0.0286969 0)
(8.41413 0.0283073 0)
(8.41704 0.0279633 0)
(8.42003 0.0276697 0)
(8.42314 0.0273945 0)
(8.42645 0.0271089 0)
(8.42998 0.0266443 0)
(8.4337 0.0259547 0)
(8.33272 0.00170693 0)
(8.33256 0.0072807 0)
(8.33418 0.0125681 0)
(8.33677 0.0168258 0)
(8.33981 0.0202689 0)
(8.3432 0.0229853 0)
(8.34677 0.0251386 0)
(8.35038 0.0268621 0)
(8.35402 0.0282158 0)
(8.35763 0.0292459 0)
(8.3612 0.0299987 0)
(8.36472 0.0305146 0)
(8.36818 0.0308285 0)
(8.37157 0.0309716 0)
(8.37489 0.0309714 0)
(8.37815 0.030852 0)
(8.38134 0.0306343 0)
(8.38446 0.0303368 0)
(8.38752 0.0299754 0)
(8.39052 0.0295645 0)
(8.39348 0.0291167 0)
(8.39638 0.0286438 0)
(8.39925 0.0281564 0)
(8.40209 0.0276651 0)
(8.40492 0.0271795 0)
(8.40774 0.0267084 0)
(8.41058 0.0262588 0)
(8.41347 0.0258314 0)
(8.41643 0.0254212 0)
(8.41949 0.0249984 0)
(8.4227 0.0245267 0)
(8.42606 0.0239025 0)
(8.42951 0.0230796 0)
(8.33284 0.0017852 0)
(8.33293 0.00645154 0)
(8.33443 0.0109601 0)
(8.33685 0.0148448 0)
(8.33973 0.0182059 0)
(8.34292 0.0209951 0)
(8.34629 0.0232391 0)
(8.34973 0.0250211 0)
(8.35319 0.026407 0)
(8.35664 0.027455 0)
(8.36006 0.0282186 0)
(8.36343 0.0287424 0)
(8.36675 0.029063 0)
(8.37001 0.0292122 0)
(8.3732 0.0292172 0)
(8.37633 0.0291017 0)
(8.3794 0.0288862 0)
(8.38241 0.0285885 0)
(8.38536 0.0282242 0)
(8.38827 0.0278069 0)
(8.39113 0.0273488 0)
(8.39395 0.0268607 0)
(8.39675 0.0263523 0)
(8.39952 0.0258325 0)
(8.40229 0.025309 0)
(8.40506 0.0247875 0)
(8.40786 0.0242712 0)
(8.4107 0.0237573 0)
(8.4136 0.0232364 0)
(8.41659 0.0226832 0)
(8.41969 0.022065 0)
(8.42287 0.0213178 0)
(8.42611 0.0204082 0)
(8.33294 0.00182665 0)
(8.33323 0.00612796 0)
(8.33463 0.0103324 0)
(8.33684 0.013992 0)
(8.3395 0.0171228 0)
(8.34248 0.0197138 0)
(8.34566 0.0218053 0)
(8.34894 0.0234767 0)
(8.35225 0.0247883 0)
(8.35558 0.0257882 0)
(8.35888 0.0265208 0)
(8.36215 0.0270243 0)
(8.36536 0.0273317 0)
(8.36853 0.0274719 0)
(8.37163 0.0274702 0)
(8.37467 0.027349 0)
(8.37766 0.0271275 0)
(8.38059 0.0268227 0)
(8.38348 0.0264492 0)
(8.38631 0.0260199 0)
(8.38911 0.0255461 0)
(8.39187 0.0250377 0)
(8.39461 0.0245034 0)
(8.39734 0.0239504 0)
(8.40006 0.0233846 0)
(8.40279 0.0228096 0)
(8.40554 0.0222259 0)
(8.40834 0.0216292 0)
(8.41118 0.0210091 0)
(8.41409 0.0203453 0)
(8.41708 0.0196121 0)
(8.42012 0.0187712 0)
(8.42318 0.0178035 0)
(8.33299 0.00178963 0)
(8.33338 0.00570027 0)
(8.33469 0.00950344 0)
(8.33673 0.0128635 0)
(8.3392 0.0157715 0)
(8.342 0.0182196 0)
(8.345 0.020225 0)
(8.34812 0.02184 0)
(8.3513 0.0231127 0)
(8.35449 0.0240855 0)
(8.35768 0.024799 0)
(8.36085 0.0252892 0)
(8.36397 0.0255875 0)
(8.36705 0.0257213 0)
(8.37008 0.0257148 0)
(8.37305 0.025589 0)
(8.37597 0.0253622 0)
(8.37885 0.0250504 0)
(8.38167 0.0246676 0)
(8.38446 0.0242257 0)
(8.38721 0.0237353 0)
(8.38993 0.0232053 0)
(8.39263 0.0226433 0)
(8.39532 0.0220555 0)
(8.398 0.0214461 0)
(8.40069 0.0208173 0)
(8.40341 0.0201682 0)
(8.40615 0.019494 0)
(8.40894 0.0187853 0)
(8.41178 0.0180265 0)
(8.41466 0.0171992 0)
(8.41759 0.0162809 0)
(8.42052 0.0152628 0)
(8.33302 0.00171142 0)
(8.33346 0.00529544 0)
(8.3347 0.00876882 0)
(8.33658 0.0118754 0)
(8.33888 0.0145795 0)
(8.3415 0.016871 0)
(8.34433 0.0187604 0)
(8.34729 0.020288 0)
(8.35032 0.0214959 0)
(8.35339 0.0224219 0)
(8.35647 0.0231017 0)
(8.35953 0.0235678 0)
(8.36257 0.0238486 0)
(8.36557 0.0239694 0)
(8.36852 0.0239524 0)
(8.37143 0.0238174 0)
(8.3743 0.0235813 0)
(8.37711 0.0232591 0)
(8.37989 0.0228638 0)
(8.38263 0.0224065 0)
(8.38534 0.0218968 0)
(8.38802 0.0213428 0)
(8.39069 0.0207512 0)
(8.39334 0.0201268 0)
(8.39599 0.0194731 0)
(8.39865 0.0187911 0)
(8.40132 0.0180794 0)
(8.40402 0.0173334 0)
(8.40675 0.0165454 0)
(8.40951 0.0157039 0)
(8.41231 0.0147967 0)
(8.41514 0.0138109 0)
(8.41796 0.0127442 0)
(8.33303 0.00160908 0)
(8.3335 0.00489099 0)
(8.33466 0.00805294 0)
(8.3364 0.0109046 0)
(8.33854 0.0134014 0)
(8.341 0.015533 0)
(8.34367 0.0173045 0)
(8.34648 0.0187446 0)
(8.34937 0.0198874 0)
(8.35232 0.0207649 0)
(8.35528 0.0214085 0)
(8.35824 0.0218472 0)
(8.36118 0.0221071 0)
(8.3641 0.0222114 0)
(8.36698 0.0221807 0)
(8.36982 0.0220334 0)
(8.37263 0.0217852 0)
(8.37539 0.02145 0)
(8.37812 0.0210398 0)
(8.38081 0.020565 0)
(8.38348 0.0200341 0)
(8.38612 0.0194546 0)
(8.38875 0.018832 0)
(8.39137 0.0181705 0)
(8.39398 0.0174727 0)
(8.3966 0.016739 0)
(8.39923 0.015968 0)
(8.40187 0.0151558 0)
(8.40455 0.0142962 0)
(8.40724 0.0133814 0)
(8.40996 0.0124035 0)
(8.4127 0.0113556 0)
(8.41544 0.0102388 0)
(8.33304 0.0014942 0)
(8.33351 0.00449455 0)
(8.3346 0.00737079 0)
(8.33622 0.00998133 0)
(8.33821 0.0122792 0)
(8.34051 0.0142514 0)
(8.34303 0.0158996 0)
(8.34569 0.0172444 0)
(8.34846 0.0183132 0)
(8.35128 0.0191337 0)
(8.35413 0.0197333 0)
(8.35698 0.0201379 0)
(8.35983 0.0203708 0)
(8.36266 0.0204534 0)
(8.36547 0.0204044 0)
(8.36824 0.0202406 0)
(8.37098 0.0199766 0)
(8.37369 0.0196252 0)
(8.37636 0.0191973 0)
(8.37901 0.0187023 0)
(8.38163 0.0181482 0)
(8.38423 0.0175413 0)
(8.38681 0.0168865 0)
(8.38939 0.0161874 0)
(8.39196 0.0154459 0)
(8.39453 0.0146624 0)
(8.39711 0.0138353 0)
(8.3997 0.0129616 0)
(8.40232 0.0120368 0)
(8.40494 0.0110556 0)
(8.40759 0.0100131 0)
(8.41024 0.00890585 0)
(8.41289 0.0077366 0)
(8.33304 0.00137382 0)
(8.3335 0.00410697 0)
(8.33452 0.00671578 0)
(8.33603 0.00909367 0)
(8.3379 0.0111958 0)
(8.34005 0.0130078 0)
(8.34243 0.0145288 0)
(8.34495 0.0157733 0)
(8.34759 0.0167631 0)
(8.35028 0.0175217 0)
(8.35302 0.0180724 0)
(8.35578 0.0184381 0)
(8.35853 0.0186397 0)
(8.36128 0.0186964 0)
(8.364 0.0186252 0)
(8.3667 0.0184414 0)
(8.36937 0.0181584 0)
(8.37202 0.0177879 0)
(8.37464 0.0173398 0)
(8.37723 0.0168226 0)
(8.3798 0.0162433 0)
(8.38235 0.0156078 0)
(8.38489 0.0149202 0)
(8.38741 0.0141835 0)
(8.38993 0.0133992 0)
(8.39245 0.0125677 0)
(8.39498 0.0116876 0)
(8.39751 0.0107568 0)
(8.40006 0.00977192 0)
(8.40261 0.00872958 0)
(8.40518 0.00762687 0)
(8.40775 0.00646205 0)
(8.41033 0.00523847 0)
(8.33304 0.0012521 0)
(8.33348 0.00372972 0)
(8.33444 0.00608671 0)
(8.33585 0.00824122 0)
(8.3376 0.0101525 0)
(8.33962 0.0118052 0)
(8.34186 0.0131966 0)
(8.34426 0.0143367 0)
(8.34676 0.0152426 0)
(8.34935 0.0159337 0)
(8.35197 0.0164302 0)
(8.35463 0.0167519 0)
(8.35729 0.0169174 0)
(8.35994 0.0169438 0)
(8.36259 0.0168465 0)
(8.36521 0.0166393 0)
(8.36782 0.0163342 0)
(8.3704 0.0159418 0)
(8.37295 0.0154711 0)
(8.37549 0.0149297 0)
(8.378 0.014324 0)
(8.3805 0.0136589 0)
(8.38298 0.0129381 0)
(8.38545 0.0121642 0)
(8.38792 0.0113384 0)
(8.39038 0.010461 0)
(8.39284 0.00953105 0)
(8.39531 0.00854693 0)
(8.39779 0.0075064 0)
(8.40027 0.00640722 0)
(8.40275 0.00524766 0)
(8.40524 0.00402687 0)
(8.40773 0.00274815 0)
(8.33304 0.00113147 0)
(8.33346 0.00336349 0)
(8.33436 0.00548141 0)
(8.33568 0.00742066 0)
(8.33732 0.00914525 0)
(8.33922 0.0106395 0)
(8.34133 0.0118995 0)
(8.34361 0.0129317 0)
(8.34599 0.0137494 0)
(8.34846 0.0143685 0)
(8.35098 0.0148062 0)
(8.35354 0.0150796 0)
(8.3561 0.0152049 0)
(8.35867 0.0151973 0)
(8.36124 0.0150704 0)
(8.36379 0.0148366 0)
(8.36632 0.0145067 0)
(8.36883 0.0140901 0)
(8.37132 0.013595 0)
(8.37379 0.013028 0)
(8.37625 0.0123948 0)
(8.37868 0.0116997 0)
(8.38111 0.0109459 0)
(8.38352 0.0101356 0)
(8.38592 0.00926986 0)
(8.38832 0.00834897 0)
(8.39072 0.0073723 0)
(8.39311 0.00633865 0)
(8.39551 0.00524649 0)
(8.39791 0.00409434 0)
(8.40031 0.00288116 0)
(8.40271 0.00160643 0)
(8.40511 0.000273129 0)
(8.33304 0.00101324 0)
(8.33343 0.00300854 0)
(8.33428 0.00489813 0)
(8.33552 0.00662966 0)
(8.33705 0.00817172 0)
(8.33885 0.00950895 0)
(8.34085 0.0106364 0)
(8.343 0.011558 0)
(8.34528 0.012284 0)
(8.34764 0.0128272 0)
(8.35005 0.013202 0)
(8.35251 0.013423 0)
(8.35498 0.0135043 0)
(8.35747 0.0134591 0)
(8.35995 0.0132995 0)
(8.36242 0.0130364 0)
(8.36488 0.0126793 0)
(8.36732 0.0122366 0)
(8.36975 0.0117155 0)
(8.37215 0.0111219 0)
(8.37454 0.0104606 0)
(8.37691 0.00973553 0)
(8.37927 0.00894936 0)
(8.38162 0.00810395 0)
(8.38395 0.00720029 0)
(8.38628 0.00623859 0)
(8.3886 0.00521844 0)
(8.39092 0.00413899 0)
(8.39324 0.00299917 0)
(8.39555 0.00179796 0)
(8.39786 0.000534653 0)
(8.40017 -0.000791232 0)
(8.40248 -0.00217709 0)
(8.33304 0.000898044 0)
(8.33341 0.00266478 0)
(8.33421 0.00433523 0)
(8.33537 0.00586581 0)
(8.33681 0.00722928 0)
(8.3385 0.00841093 0)
(8.34039 0.00940519 0)
(8.34244 0.0102142 0)
(8.34461 0.0108454 0)
(8.34687 0.0113092 0)
(8.34918 0.0116175 0)
(8.35154 0.0117825 0)
(8.35393 0.0118164 0)
(8.35633 0.0117305 0)
(8.35872 0.0115354 0)
(8.36112 0.0112406 0)
(8.3635 0.0108543 0)
(8.36587 0.010384 0)
(8.36823 0.00983586 0)
(8.37056 0.00921502 0)
(8.37288 0.00852569 0)
(8.37519 0.00777112 0)
(8.37748 0.00695368 0)
(8.37975 0.00607492 0)
(8.38201 0.00513567 0)
(8.38427 0.00413615 0)
(8.38651 0.00307605 0)
(8.38875 0.00195476 0)
(8.39098 0.000771479 0)
(8.3932 -0.000474563 0)
(8.39542 -0.00178395 0)
(8.39763 -0.00315722 0)
(8.39984 -0.00459213 0)
(8.33303 0.000786151 0)
(8.33339 0.00233189 0)
(8.33414 0.00379115 0)
(8.33523 0.00512692 0)
(8.33659 0.00631555 0)
(8.33819 0.00734328 0)
(8.33998 0.00820417 0)
(8.34192 0.00889895 0)
(8.34399 0.00943304 0)
(8.34615 0.00981464 0)
(8.34837 0.0100534 0)
(8.35064 0.0101595 0)
(8.35293 0.0101431 0)
(8.35525 0.0100141 0)
(8.35757 0.0097812 0)
(8.35988 0.00945271 0)
(8.36219 0.00903583 0)
(8.36449 0.00853681 0)
(8.36677 0.00796101 0)
(8.36903 0.00731284 0)
(8.37128 0.00659586 0)
(8.37351 0.00581282 0)
(8.37573 0.00496568 0)
(8.37793 0.00405575 0)
(8.38011 0.00308369 0)
(8.38229 0.00204968 0)
(8.38445 0.000953477 0)
(8.3866 -0.000205403 0)
(8.38873 -0.00142761 0)
(8.39086 -0.0027138 0)
(8.39298 -0.00406453 0)
(8.39509 -0.00548046 0)
(8.39719 -0.0069596 0)
(8.33303 0.000677575 0)
(8.33336 0.00200932 0)
(8.33407 0.00326439 0)
(8.3351 0.00441082 0)
(8.33638 0.00542805 0)
(8.33789 0.00630338 0)
(8.33959 0.00703081 0)
(8.34145 0.00761002 0)
(8.34342 0.00804482 0)
(8.34548 0.00834156 0)
(8.34761 0.00850794 0)
(8.34979 0.00855233 0)
(8.352 0.00848316 0)
(8.35423 0.00830854 0)
(8.35647 0.00803597 0)
(8.35871 0.00767233 0)
(8.36094 0.00722369 0)
(8.36316 0.00669535 0)
(8.36537 0.0060918 0)
(8.36756 0.00541673 0)
(8.36973 0.00467309 0)
(8.37189 0.00386312 0)
(8.37403 0.00298844 0)
(8.37615 0.00205007 0)
(8.37825 0.00104851 0)
(8.38034 -1.61213e-05 0)
(8.38241 -0.00114406 0)
(8.38447 -0.00233574 0)
(8.38651 -0.00359175 0)
(8.38854 -0.0049127 0)
(8.39056 -0.00629915 0)
(8.39256 -0.00775188 0)
(8.39455 -0.00926909 0)
(8.33303 0.000572206 0)
(8.33334 0.00169648 0)
(8.33401 0.00275359 0)
(8.33498 0.00371569 0)
(8.3362 0.00456491 0)
(8.33763 0.00528976 0)
(8.33924 0.00588435 0)
(8.34101 0.00634764 0)
(8.34289 0.00668214 0)
(8.34487 0.00689257 0)
(8.34691 0.00698492 0)
(8.349 0.00696584 0)
(8.35113 0.00684223 0)
(8.35328 0.00662061 0)
(8.35544 0.00630714 0)
(8.3576 0.00590745 0)
(8.35976 0.00542656 0)
(8.3619 0.00486881 0)
(8.36403 0.00423786 0)
(8.36615 0.00353673 0)
(8.36824 0.00276783 0)
(8.37032 0.00193283 0)
(8.37238 0.00103305 0)
(8.37442 6.92625e-05 0)
(8.37644 -0.000958194 0)
(8.37844 -0.00204931 0)
(8.38042 -0.00320435 0)
(8.38238 -0.00442376 0)
(8.38432 -0.00570808 0)
(8.38625 -0.00705792 0)
(8.38815 -0.00847387 0)
(8.39004 -0.0099568 0)
(8.39191 -0.011505 0)
(8.33303 0.000469859 0)
(8.33332 0.0013926 0)
(8.33396 0.00225712 0)
(8.33487 0.00303889 0)
(8.33602 0.00372241 0)
(8.33738 0.00429743 0)
(8.33892 0.00475843 0)
(8.34061 0.00510396 0)
(8.34241 0.00533575 0)
(8.3443 0.00545729 0)
(8.34626 0.00547311 0)
(8.34827 0.00538824 0)
(8.35032 0.00520824 0)
(8.35239 0.00493814 0)
(8.35447 0.00458274 0)
(8.35656 0.00414652 0)
(8.35864 0.0036334 0)
(8.36071 0.00304683 0)
(8.36276 0.00238968 0)
(8.3648 0.00166425 0)
(8.36682 0.000872296 0)
(8.36882 1.52658e-05 0)
(8.37079 -0.00090604 0)
(8.37274 -0.00189114 0)
(8.37468 -0.00293986 0)
(8.37658 -0.00405229 0)
(8.37847 -0.00522876 0)
(8.38033 -0.00646974 0)
(8.38217 -0.00777577 0)
(8.38398 -0.00914748 0)
(8.38578 -0.0105855 0)
(8.38755 -0.0120906 0)
(8.3893 -0.0136613 0)
(8.33303 0.000370347 0)
(8.33331 0.00109723 0)
(8.33391 0.00177453 0)
(8.33477 0.0023808 0)
(8.33587 0.00290277 0)
(8.33716 0.00333158 0)
(8.33863 0.00366205 0)
(8.34024 0.00389221 0)
(8.34196 0.00402291 0)
(8.34378 0.00405643 0)
(8.34566 0.00399602 0)
(8.3476 0.00384539 0)
(8.34957 0.00360902 0)
(8.35157 0.00329012 0)
(8.35357 0.00289249 0)
(8.35558 0.00241966 0)
(8.35759 0.00187446 0)
(8.35958 0.00125951 0)
(8.36156 0.00057697 0)
(8.36352 -0.00017149 0)
(8.36546 -0.00098463 0)
(8.36737 -0.00186143 0)
(8.36926 -0.00280142 0)
(8.37113 -0.0038044 0)
(8.37297 -0.00487035 0)
(8.37478 -0.0059995 0)
(8.37657 -0.00719225 0)
(8.37833 -0.0084491 0)
(8.38006 -0.00977063 0)
(8.38176 -0.0111575 0)
(8.38344 -0.0126102 0)
(8.38509 -0.0141297 0)
(8.38671 -0.0157145 0)
(8.33303 0.000273373 0)
(8.33329 0.000808806 0)
(8.33386 0.00130152 0)
(8.33468 0.00173234 0)
(8.33572 0.00209017 0)
(8.33696 0.00236797 0)
(8.33836 0.00256156 0)
(8.33991 0.00266988 0)
(8.34156 0.00269415 0)
(8.34331 0.00263545 0)
(8.34512 0.00249557 0)
(8.34698 0.00227606 0)
(8.34888 0.00198237 0)
(8.35081 0.00161501 0)
(8.35274 0.00117623 0)
(8.35467 0.000668418 0)
(8.3566 9.3768e-05 0)
(8.35852 -0.000546213 0)
(8.36042 -0.00125022 0)
(8.3623 -0.0020172 0)
(8.36416 -0.00284639 0)
(8.36599 -0.00373742 0)
(8.3678 -0.00469006 0)
(8.36958 -0.00570432 0)
(8.37132 -0.00678042 0)
(8.37304 -0.00791874 0)
(8.37473 -0.00911976 0)
(8.37638 -0.010384 0)
(8.378 -0.0117121 0)
(8.37959 -0.0131047 0)
(8.38115 -0.0145623 0)
(8.38267 -0.0160859 0)
(8.38416 -0.0176737 0)
(8.33302 0.00017913 0)
(8.33327 0.000530001 0)
(8.33381 0.000847106 0)
(8.3346 0.00111385 0)
(8.33559 0.00132106 0)
(8.33677 0.00146289 0)
(8.33811 0.00153414 0)
(8.33959 0.00153109 0)
(8.34119 0.00145591 0)
(8.34287 0.00130988 0)
(8.34462 0.00109395 0)
(8.34642 0.000810454 0)
(8.34826 0.000457364 0)
(8.35011 3.89821e-05 0)
(8.35197 -0.000442994 0)
(8.35384 -0.00098767 0)
(8.3557 -0.0015938 0)
(8.35754 -0.00226062 0)
(8.35937 -0.00298745 0)
(8.36117 -0.00377379 0)
(8.36295 -0.00461939 0)
(8.3647 -0.0055242 0)
(8.36641 -0.00648832 0)
(8.3681 -0.00751202 0)
(8.36975 -0.00859572 0)
(8.37137 -0.00973991 0)
(8.37295 -0.0109452 0)
(8.3745 -0.0122121 0)
(8.37601 -0.0135413 0)
(8.37749 -0.0149334 0)
(8.37892 -0.016389 0)
(8.38032 -0.017909 0)
(8.38168 -0.0194916 0)
(8.33302 8.59887e-05 0)
(8.33326 0.00024909 0)
(8.33378 0.000377967 0)
(8.33453 0.000458381 0)
(8.33548 0.000485809 0)
(8.33662 0.000458752 0)
(8.33791 0.000378729 0)
(8.33934 0.000247842 0)
(8.34087 6.25192e-05 0)
(8.34249 -0.000177837 0)
(8.34418 -0.000473014 0)
(8.34592 -0.000822059 0)
(8.34769 -0.00122876 0)
(8.34948 -0.00169035 0)
(8.35128 -0.00220664 0)
(8.35307 -0.00277799 0)
(8.35486 -0.0034047 0)
(8.35663 -0.00408674 0)
(8.35838 -0.00482426 0)
(8.36011 -0.00561749 0)
(8.3618 -0.00646676 0)
(8.36347 -0.00737245 0)
(8.3651 -0.00833504 0)
(8.3667 -0.00935507 0)
(8.36825 -0.0104331 0)
(8.36977 -0.0115699 0)
(8.37125 -0.0127659 0)
(8.37269 -0.0140219 0)
(8.37409 -0.0153385 0)
(8.37545 -0.0167162 0)
(8.37676 -0.0181556 0)
(8.37803 -0.0196575 0)
(8.37926 -0.0212201 0)
(8.33302 -2.98482e-07 0)
(8.33324 3.16224e-06 0)
(8.33372 -1.09189e-05 0)
(8.33442 -5.94262e-05 0)
(8.33533 -0.000150462 0)
(8.33642 -0.000288563 0)
(8.33768 -0.000473818 0)
(8.33907 -0.000704266 0)
(8.34057 -0.000982942 0)
(8.34215 -0.00130999 0)
(8.34379 -0.00168475 0)
(8.34548 -0.00210789 0)
(8.34719 -0.00257677 0)
(8.34893 -0.00309353 0)
(8.35067 -0.00365865 0)
(8.3524 -0.00427236 0)
(8.35412 -0.00493508 0)
(8.35582 -0.00564728 0)
(8.3575 -0.00640955 0)
(8.35915 -0.00722257 0)
(8.36077 -0.00808702 0)
(8.36235 -0.00900366 0)
(8.3639 -0.00997325 0)
(8.3654 -0.0109966 0)
(8.36687 -0.0120745 0)
(8.36829 -0.0132077 0)
(8.36966 -0.0143971 0)
(8.371 -0.0156433 0)
(8.37228 -0.0169471 0)
(8.37352 -0.0183091 0)
(8.37471 -0.0197298 0)
(8.37586 -0.02121 0)
(8.37695 -0.022748 0)
(8.33303 -9.87293e-05 0)
(8.33326 -0.000317056 0)
(8.33373 -0.000578475 0)
(8.33442 -0.000882476 0)
(8.3353 -0.00121555 0)
(8.33635 -0.00156673 0)
(8.33756 -0.00193258 0)
(8.3389 -0.00231456 0)
(8.34034 -0.00271258 0)
(8.34186 -0.00312979 0)
(8.34345 -0.00357049 0)
(8.34508 -0.00403899 0)
(8.34674 -0.00453875 0)
(8.34842 -0.00507374 0)
(8.35009 -0.00564681 0)
(8.35177 -0.00626032 0)
(8.35342 -0.00691639 0)
(8.35506 -0.00761687 0)
(8.35667 -0.00836331 0)
(8.35825 -0.00915712 0)
(8.35979 -0.00999951 0)
(8.36129 -0.0108916 0)
(8.36275 -0.0118345 0)
(8.36417 -0.0128291 0)
(8.36554 -0.0138763 0)
(8.36686 -0.0149769 0)
(8.36814 -0.0161318 0)
(8.36937 -0.0173415 0)
(8.37054 -0.0186068 0)
(8.37167 -0.0199281 0)
(8.37274 -0.0213059 0)
(8.37376 -0.0227407 0)
(8.37472 -0.0242309 0)
(8.333 -0.00014531 0)
(8.33315 -0.00039635 0)
(8.33354 -0.000649374 0)
(8.33417 -0.00094184 0)
(8.33502 -0.00128641 0)
(8.33607 -0.00168205 0)
(8.33729 -0.00212173 0)
(8.33863 -0.00259713 0)
(8.34008 -0.00310152 0)
(8.3416 -0.00363159 0)
(8.34318 -0.00418599 0)
(8.34479 -0.00476463 0)
(8.34642 -0.00536819 0)
(8.34806 -0.00599832 0)
(8.3497 -0.00665695 0)
(8.35132 -0.00734611 0)
(8.35292 -0.00806791 0)
(8.35449 -0.00882439 0)
(8.35603 -0.00961752 0)
(8.35754 -0.0104492 0)
(8.359 -0.0113211 0)
(8.36042 -0.012235 0)
(8.3618 -0.0131923 0)
(8.36313 -0.0141946 0)
(8.3644 -0.015243 0)
(8.36563 -0.0163388 0)
(8.3668 -0.017483 0)
(8.36792 -0.0186767 0)
(8.36898 -0.0199205 0)
(8.36999 -0.0212154 0)
(8.37094 -0.0225617 0)
(8.37184 -0.0239603 0)
(8.37267 -0.0254095 0)
(8.33305 -0.000335989 0)
(8.33334 -0.00108066 0)
(8.33379 -0.00190235 0)
(8.33441 -0.00273411 0)
(8.3352 -0.00351991 0)
(8.33616 -0.0042396 0)
(8.33728 -0.00489525 0)
(8.33853 -0.00549828 0)
(8.3399 -0.00606276 0)
(8.34135 -0.0066028 0)
(8.34286 -0.00713136 0)
(8.34442 -0.00765967 0)
(8.346 -0.0081971 0)
(8.34758 -0.00875137 0)
(8.34917 -0.00932876 0)
(8.35074 -0.00993422 0)
(8.35229 -0.0105718 0)
(8.35381 -0.0112446 0)
(8.35529 -0.0119553 0)
(8.35674 -0.0127061 0)
(8.35814 -0.0134987 0)
(8.35949 -0.0143347 0)
(8.36079 -0.0152153 0)
(8.36204 -0.0161417 0)
(8.36324 -0.0171147 0)
(8.36437 -0.0181353 0)
(8.36546 -0.0192042 0)
(8.36648 -0.0203219 0)
(8.36744 -0.021489 0)
(8.36834 -0.0227059 0)
(8.36918 -0.0239728 0)
(8.36996 -0.02529 0)
(8.37067 -0.026656 0)
(8.33294 -0.000100494 0)
(8.33285 -0.000208846 0)
(8.33307 -0.000378855 0)
(8.33365 -0.000738659 0)
(8.33453 -0.00129247 0)
(8.33564 -0.00198471 0)
(8.33692 -0.00275779 0)
(8.33831 -0.00357061 0)
(8.33978 -0.00439754 0)
(8.34131 -0.00522385 0)
(8.34287 -0.00604249 0)
(8.34445 -0.00685153 0)
(8.34603 -0.00765225 0)
(8.3476 -0.00844781 0)
(8.34915 -0.00924235 0)
(8.35067 -0.0100404 0)
(8.35217 -0.0108464 0)
(8.35362 -0.0116648 0)
(8.35503 -0.0124997 0)
(8.3564 -0.0133547 0)
(8.35772 -0.0142332 0)
(8.35899 -0.0151383 0)
(8.3602 -0.0160726 0)
(8.36135 -0.0170386 0)
(8.36245 -0.0180384 0)
(8.36349 -0.0190738 0)
(8.36446 -0.0201466 0)
(8.36538 -0.0212579 0)
(8.36623 -0.0224092 0)
(8.36701 -0.0236012 0)
(8.36773 -0.0248348 0)
(8.36839 -0.0261107 0)
(8.36898 -0.0274279 0)
(8.33317 -0.000795641 0)
(8.33366 -0.00272661 0)
(8.33406 -0.00471502 0)
(8.33444 -0.00642301 0)
(8.33499 -0.00777613 0)
(8.33576 -0.00882893 0)
(8.33676 -0.0096558 0)
(8.33793 -0.0103208 0)
(8.33925 -0.0108759 0)
(8.34066 -0.0113614 0)
(8.34215 -0.0118081 0)
(8.34367 -0.0122389 0)
(8.34522 -0.0126704 0)
(8.34676 -0.0131144 0)
(8.3483 -0.0135797 0)
(8.34981 -0.0140723 0)
(8.35129 -0.0145966 0)
(8.35272 -0.0151556 0)
(8.35412 -0.0157517 0)
(8.35546 -0.0163864 0)
(8.35674 -0.017061 0)
(8.35797 -0.0177764 0)
(8.35914 -0.0185333 0)
(8.36025 -0.0193322 0)
(8.36129 -0.0201735 0)
(8.36226 -0.0210577 0)
(8.36317 -0.021985 0)
(8.36401 -0.0229555 0)
(8.36478 -0.0239695 0)
(8.36548 -0.0250269 0)
(8.36611 -0.0261277 0)
(8.36667 -0.0272721 0)
(8.36716 -0.0284584 0)
(8.33263 0.000558042 0)
(8.33174 0.00193829 0)
(8.33174 0.00276925 0)
(8.33256 0.00263311 0)
(8.3338 0.00174799 0)
(8.33523 0.000469255 0)
(8.33676 -0.000971044 0)
(8.33833 -0.00244982 0)
(8.33991 -0.003901 0)
(8.3415 -0.0052894 0)
(8.34308 -0.00660035 0)
(8.34463 -0.00783215 0)
(8.34616 -0.00899013 0)
(8.34765 -0.0100831 0)
(8.34911 -0.0111212 0)
(8.35053 -0.0121149 0)
(8.3519 -0.0130742 0)
(8.35323 -0.0140084 0)
(8.35451 -0.0149257 0)
(8.35573 -0.0158335 0)
(8.3569 -0.0167383 0)
(8.35801 -0.0176457 0)
(8.35906 -0.0185607 0)
(8.36005 -0.0194875 0)
(8.36098 -0.0204297 0)
(8.36184 -0.0213906 0)
(8.36263 -0.0223729 0)
(8.36335 -0.0233787 0)
(8.36401 -0.02441 0)
(8.36459 -0.0254685 0)
(8.3651 -0.0265552 0)
(8.36555 -0.0276714 0)
(8.36592 -0.0288165 0)
(8.33358 -0.00197809 0)
(8.33465 -0.00695434 0)
(8.33438 -0.0117785 0)
(8.33367 -0.014977 0)
(8.33343 -0.0167807 0)
(8.33381 -0.0177762 0)
(8.33466 -0.018286 0)
(8.33582 -0.0185043 0)
(8.33718 -0.0185659 0)
(8.33868 -0.0185585 0)
(8.34027 -0.0185368 0)
(8.34189 -0.0185339 0)
(8.34351 -0.0185693 0)
(8.34513 -0.0186536 0)
(8.34672 -0.018792 0)
(8.34826 -0.0189863 0)
(8.34975 -0.0192365 0)
(8.35119 -0.0195414 0)
(8.35257 -0.0198994 0)
(8.35388 -0.0203085 0)
(8.35513 -0.020767 0)
(8.35631 -0.0212729 0)
(8.35741 -0.0218248 0)
(8.35844 -0.0224211 0)
(8.3594 -0.0230605 0)
(8.36029 -0.0237421 0)
(8.3611 -0.0244647 0)
(8.36183 -0.0252275 0)
(8.36249 -0.0260297 0)
(8.36307 -0.0268707 0)
(8.36358 -0.0277499 0)
(8.364 -0.0286667 0)
(8.36436 -0.0296196 0)
(8.33162 0.00368125 0)
(8.32827 0.0102084 0)
(8.32843 0.0133508 0)
(8.33097 0.0132768 0)
(8.33353 0.011188 0)
(8.33569 0.00831619 0)
(8.33761 0.00528862 0)
(8.33938 0.00234587 0)
(8.34101 -0.000400405 0)
(8.34255 -0.00290254 0)
(8.34403 -0.00515557 0)
(8.34545 -0.0071759 0)
(8.34683 -0.00898826 0)
(8.34818 -0.0106199 0)
(8.3495 -0.0120977 0)
(8.35079 -0.0134463 0)
(8.35204 -0.0146881 0)
(8.35326 -0.0158423 0)
(8.35445 -0.0169256 0)
(8.35559 -0.0179526 0)
(8.35668 -0.0189353 0)
(8.35773 -0.0198842 0)
(8.35872 -0.0208081 0)
(8.35966 -0.0217147 0)
(8.36054 -0.0226102 0)
(8.36135 -0.0235 0)
(8.36211 -0.0243889 0)
(8.36279 -0.0252805 0)
(8.36341 -0.0261783 0)
(8.36396 -0.0270848 0)
(8.36443 -0.0280022 0)
(8.36483 -0.0289324 0)
(8.36516 -0.0298758 0)
(8.33429 -0.00644254 0)
(8.33461 -0.0207128 0)
(8.3307 -0.0299632 0)
(8.32667 -0.0339852 0)
(8.32473 -0.0348927 0)
(8.3248 -0.0343598 0)
(8.32596 -0.0331999 0)
(8.32765 -0.0318079 0)
(8.32967 -0.0304068 0)
(8.33189 -0.0291139 0)
(8.3342 -0.0279811 0)
(8.33653 -0.0270251 0)
(8.33886 -0.0262449 0)
(8.34116 -0.0256303 0)
(8.3434 -0.0251671 0)
(8.34558 -0.0248399 0)
(8.34769 -0.0246338 0)
(8.34972 -0.024535 0)
(8.35168 -0.0245313 0)
(8.35355 -0.024612 0)
(8.35533 -0.0247676 0)
(8.35702 -0.0249904 0)
(8.35863 -0.0252736 0)
(8.36014 -0.0256116 0)
(8.36156 -0.0259995 0)
(8.36289 -0.0264335 0)
(8.36412 -0.02691 0)
(8.36526 -0.0274263 0)
(8.36631 -0.02798 0)
(8.36726 -0.0285691 0)
(8.36812 -0.0291919 0)
(8.36888 -0.0298472 0)
(8.36956 -0.0305328 0)
(8.32884 0.0225912 0)
(8.32235 0.0427599 0)
(8.32667 0.0439866 0)
(8.33329 0.0380268 0)
(8.33777 0.0306811 0)
(8.34057 0.0235248 0)
(8.34284 0.0168758 0)
(8.34499 0.0109139 0)
(8.34714 0.005695 0)
(8.34936 0.00117126 0)
(8.35168 -0.00273741 0)
(8.35408 -0.00611296 0)
(8.35656 -0.00903325 0)
(8.35909 -0.011569 0)
(8.36164 -0.0137819 0)
(8.36419 -0.0157246 0)
(8.36673 -0.0174415 0)
(8.36924 -0.0189703 0)
(8.3717 -0.0203424 0)
(8.3741 -0.021584 0)
(8.37642 -0.0227172 0)
(8.37867 -0.0237607 0)
(8.38082 -0.0247298 0)
(8.38288 -0.0256378 0)
(8.38485 -0.0264957 0)
(8.38671 -0.0273128 0)
(8.38846 -0.0280972 0)
(8.3901 -0.0288554 0)
(8.39164 -0.0295935 0)
(8.39307 -0.0303162 0)
(8.39438 -0.0310278 0)
(8.39558 -0.0317318 0)
(8.39667 -0.0324319 0)
(8.32436 -0.0380333 0)
(8.29385 -0.0683314 0)
(8.27213 -0.0717175 0)
(8.26666 -0.068633 0)
(8.27354 -0.0643028 0)
(8.28615 -0.0594877 0)
(8.30087 -0.0548159 0)
(8.31615 -0.0506512 0)
(8.33114 -0.047055 0)
(8.34538 -0.0440024 0)
(8.35867 -0.0414488 0)
(8.37094 -0.0393355 0)
(8.38221 -0.0376006 0)
(8.39251 -0.0361874 0)
(8.40192 -0.0350459 0)
(8.41048 -0.0341333 0)
(8.41827 -0.0334134 0)
(8.42535 -0.0328557 0)
(8.43178 -0.0324351 0)
(8.4376 -0.0321308 0)
(8.44287 -0.0319257 0)
(8.44764 -0.0318054 0)
(8.45193 -0.0317585 0)
(8.45579 -0.0317753 0)
(8.45924 -0.0318477 0)
(8.46232 -0.0319692 0)
(8.46506 -0.0321343 0)
(8.46747 -0.0323385 0)
(8.46959 -0.0325778 0)
(8.47142 -0.0328489 0)
(8.47299 -0.0331491 0)
(8.47432 -0.0334758 0)
(8.47543 -0.0338256 0)
(8.34002 0.156988 0)
(8.38198 0.148995 0)
(8.40248 0.103371 0)