/*--------------------------------*- C++ -*----------------------------------*\
| =========                 |                                                 |
| \\      /  F ield         | OpenFOAM: The Open Source CFD Toolbox           |
|  \\    /   O peration     | Version:  2.1.1                                 |
|   \\  /    A nd           | Web:      www.OpenFOAM.org                      |
|    \\/     M anipulation  |                                                 |
\*---------------------------------------------------------------------------*/
FoamFile
{
    version     2.0;
    format      ascii;
    class       volScalarField;
    location    "0.195";
    object      nuSgs;
}
// * * * * * * * * * * * * * * * * * * * * * * * * * * * * * * * * * * * * * //

dimensions      [0 2 -1 0 0 0 0];

internalField   nonuniform List<scalar> 
6820
(
0.000556014
0.000457431
0.000368205
0.000306242
0.000269103
0.000243546
0.000224757
0.00021041
0.000198842
0.000189146
0.000180808
0.000173496
0.000166988
0.000161128
0.000155804
0.00015093
0.00014644
0.000142283
0.000138419
0.000134815
0.000131444
0.000128283
0.000125315
0.000122526
0.000119902
0.000117429
0.000115098
0.000112901
0.000110825
0.000108881
0.000107046
0.000105181
0.000103258
0.00010349
0.000170645
0.000223626
0.000240004
0.000235269
0.000224936
0.000213275
0.00020203
0.000191841
0.000182724
0.000174559
0.000167214
0.000160563
0.000154505
0.000148955
0.000143842
0.000139111
0.000134712
0.000130606
0.000126758
0.00012314
0.000119728
0.000116501
0.000113442
0.000110535
0.000107768
0.000105132
0.000102614
0.000100223
9.7905e-05
9.58139e-05
9.35483e-05
9.27135e-05
3.6776e-05
2.84848e-05
4.55798e-05
8.22246e-05
0.000107838
0.000123417
0.000131837
0.00013569
0.000136801
0.000136238
0.000134643
0.000132412
0.000129792
0.000126947
0.000123983
0.00012097
0.000117956
0.000114972
0.000112037
0.000109164
0.000106361
0.000103634
0.000100982
9.84063e-05
9.59045e-05
9.34754e-05
9.11174e-05
8.88261e-05
8.66048e-05
8.44407e-05
8.23628e-05
8.02621e-05
7.8389e-05
2.07365e-05
2.86921e-05
2.65789e-05
1.51307e-05
3.67219e-06
1.3725e-05
2.54992e-05
3.52682e-05
4.31335e-05
4.93696e-05
5.42518e-05
5.8024e-05
6.08884e-05
6.30032e-05
6.4501e-05
6.54916e-05
6.60653e-05
6.62959e-05
6.62442e-05
6.596e-05
6.54843e-05
6.48509e-05
6.40873e-05
6.32167e-05
6.22589e-05
6.12291e-05
6.01396e-05
5.89986e-05
5.78164e-05
5.6597e-05
5.5364e-05
5.4116e-05
5.29743e-05
1.44179e-05
1.75953e-05
2.26134e-05
2.43066e-05
2.39859e-05
2.20266e-05
1.91691e-05
1.59526e-05
1.26096e-05
9.28954e-06
6.10011e-06
3.1222e-06
7.38242e-07
2.40528e-06
4.65856e-06
6.69902e-06
8.50854e-06
1.00939e-05
1.14675e-05
1.26435e-05
1.36367e-05
1.44615e-05
1.51321e-05
1.56615e-05
1.60621e-05
1.63456e-05
1.65236e-05
1.66086e-05
1.66123e-05
1.65411e-05
1.64075e-05
1.62193e-05
1.59863e-05
1.09164e-05
1.25097e-05
1.38377e-05
1.43411e-05
1.51154e-05
1.57425e-05
1.61086e-05
1.63082e-05
1.63461e-05
1.62283e-05
1.59793e-05
1.56232e-05
1.51843e-05
1.46789e-05
1.41254e-05
1.35413e-05
1.29419e-05
1.234e-05
1.1746e-05
1.11682e-05
1.06129e-05
1.00848e-05
9.58744e-06
9.12308e-06
8.69301e-06
8.29746e-06
7.93574e-06
7.60609e-06
7.30476e-06
7.03187e-06
6.78534e-06
6.57211e-06
6.3961e-06
8.2392e-06
9.43985e-06
1.02666e-05
1.00657e-05
9.87373e-06
9.69062e-06
9.49965e-06
9.40345e-06
9.39115e-06
9.41872e-06
9.45933e-06
9.49542e-06
9.51534e-06
9.51688e-06
9.49838e-06
9.45914e-06
9.39964e-06
9.32116e-06
9.22544e-06
9.11439e-06
8.98998e-06
8.85416e-06
8.70878e-06
8.55559e-06
8.39599e-06
8.23177e-06
8.06436e-06
7.89673e-06
7.73233e-06
7.57429e-06
7.42474e-06
7.29527e-06
7.19389e-06
6.35384e-06
7.42027e-06
8.23627e-06
8.10222e-06
7.79227e-06
7.45239e-06
7.07431e-06
6.74954e-06
6.49687e-06
6.29541e-06
6.13226e-06
5.99841e-06
5.88499e-06
5.78535e-06
5.69521e-06
5.61155e-06
5.53203e-06
5.45488e-06
5.37881e-06
5.30293e-06
5.22663e-06
5.14957e-06
5.07164e-06
4.9929e-06
4.91364e-06
4.83449e-06
4.75646e-06
4.68107e-06
4.6093e-06
4.54421e-06
4.489e-06
4.45214e-06
4.44156e-06
4.99189e-06
5.86927e-06
6.56264e-06
6.56027e-06
6.39372e-06
6.18683e-06
5.90454e-06
5.61959e-06
5.3706e-06
5.15386e-06
4.96458e-06
4.79933e-06
4.6533e-06
4.52231e-06
4.40352e-06
4.2948e-06
4.19447e-06
4.10125e-06
4.01417e-06
3.9325e-06
3.85567e-06
3.78326e-06
3.71499e-06
3.65067e-06
3.59031e-06
3.53399e-06
3.48185e-06
3.4347e-06
3.39359e-06
3.36077e-06
3.33873e-06
3.33235e-06
3.34803e-06
3.9849e-06
4.71655e-06
5.33001e-06
5.40638e-06
5.30647e-06
5.15963e-06
4.94445e-06
4.71648e-06
4.51369e-06
4.3353e-06
4.17684e-06
4.03615e-06
3.91021e-06
3.79612e-06
3.69186e-06
3.59602e-06
3.50748e-06
3.42539e-06
3.34906e-06
3.27797e-06
3.21168e-06
3.14987e-06
3.09234e-06
3.03896e-06
2.9897e-06
2.94469e-06
2.9043e-06
2.86912e-06
2.8399e-06
2.81812e-06
2.80552e-06
2.80439e-06
2.81906e-06
3.22407e-06
3.84242e-06
4.38689e-06
4.50585e-06
4.45527e-06
4.35804e-06
4.19958e-06
4.01738e-06
3.84644e-06
3.69123e-06
3.55047e-06
3.42417e-06
3.31102e-06
3.20899e-06
3.11645e-06
3.03214e-06
2.95498e-06
2.8841e-06
2.81878e-06
2.75849e-06
2.70278e-06
2.65133e-06
2.60395e-06
2.5605e-06
2.52098e-06
2.4855e-06
2.4543e-06
2.42778e-06
2.4065e-06
2.39137e-06
2.38328e-06
2.38269e-06
2.39227e-06
2.63629e-06
3.16525e-06
3.65845e-06
3.81348e-06
3.80925e-06
3.751e-06
3.63246e-06
3.48257e-06
3.3347e-06
3.19741e-06
3.07131e-06
2.95723e-06
2.85469e-06
2.76225e-06
2.67861e-06
2.60273e-06
2.5337e-06
2.47074e-06
2.41324e-06
2.36069e-06
2.31267e-06
2.26886e-06
2.22903e-06
2.193e-06
2.1607e-06
2.13216e-06
2.10745e-06
2.08679e-06
2.07037e-06
2.05845e-06
2.05115e-06
2.04785e-06
2.04993e-06
2.17195e-06
2.63278e-06
3.08808e-06
3.26884e-06
3.30049e-06
3.27295e-06
3.18814e-06
3.06899e-06
2.94471e-06
2.82542e-06
2.71318e-06
2.60972e-06
2.5156e-06
2.43024e-06
2.35289e-06
2.28284e-06
2.21938e-06
2.16187e-06
2.10974e-06
2.06249e-06
2.01972e-06
1.98107e-06
1.94625e-06
1.91506e-06
1.88733e-06
1.86296e-06
1.84187e-06
1.82401e-06
1.80926e-06
1.79746e-06
1.78821e-06
1.78038e-06
1.77459e-06
1.79744e-06
2.2075e-06
2.63465e-06
2.83564e-06
2.89839e-06
2.89812e-06
2.84175e-06
2.74824e-06
2.64331e-06
2.53847e-06
2.43741e-06
2.34274e-06
2.25577e-06
2.17651e-06
2.10456e-06
2.0394e-06
1.98048e-06
1.92725e-06
1.87919e-06
1.83584e-06
1.79679e-06
1.76169e-06
1.73022e-06
1.70212e-06
1.67714e-06
1.65507e-06
1.63569e-06
1.61873e-06
1.60386e-06
1.59059e-06
1.57823e-06
1.56544e-06
1.55228e-06
1.48931e-06
1.86321e-06
2.27024e-06
2.48772e-06
2.57642e-06
2.59892e-06
2.56575e-06
2.49396e-06
2.40635e-06
2.31493e-06
2.22445e-06
2.13799e-06
2.0574e-06
1.98322e-06
1.9154e-06
1.85372e-06
1.79783e-06
1.7473e-06
1.70169e-06
1.66061e-06
1.62365e-06
1.59046e-06
1.5607e-06
1.53404e-06
1.51018e-06
1.48881e-06
1.46957e-06
1.45206e-06
1.43578e-06
1.42007e-06
1.4041e-06
1.38656e-06
1.3672e-06
1.23094e-06
1.58123e-06
1.97461e-06
2.20588e-06
2.31667e-06
2.35921e-06
2.34618e-06
2.29337e-06
2.22103e-06
2.14121e-06
2.05953e-06
1.97968e-06
1.90401e-06
1.83357e-06
1.76869e-06
1.70937e-06
1.65542e-06
1.60654e-06
1.56235e-06
1.5225e-06
1.48659e-06
1.45427e-06
1.42516e-06
1.39892e-06
1.37517e-06
1.35353e-06
1.33357e-06
1.3148e-06
1.29662e-06
1.27833e-06
1.25904e-06
1.2376e-06
1.21356e-06
1.01034e-06
1.3482e-06
1.73345e-06
1.97665e-06
2.10636e-06
2.16642e-06
2.17061e-06
2.134e-06
2.07486e-06
2.00516e-06
1.9312e-06
1.85713e-06
1.78568e-06
1.71827e-06
1.65553e-06
1.59771e-06
1.54476e-06
1.49651e-06
1.45268e-06
1.41295e-06
1.37698e-06
1.34441e-06
1.31489e-06
1.28803e-06
1.26343e-06
1.24067e-06
1.21929e-06
1.19874e-06
1.17841e-06
1.1576e-06
1.13548e-06
1.11109e-06
1.08388e-06
8.18904e-07
1.15482e-06
1.53663e-06
1.79029e-06
1.93623e-06
2.01172e-06
2.03096e-06
2.00847e-06
1.96101e-06
1.90024e-06
1.83292e-06
1.76359e-06
1.69533e-06
1.62993e-06
1.56833e-06
1.511e-06
1.45808e-06
1.40952e-06
1.36513e-06
1.32467e-06
1.28781e-06
1.25424e-06
1.22358e-06
1.19546e-06
1.16947e-06
1.14517e-06
1.12208e-06
1.09966e-06
1.07734e-06
1.05446e-06
1.03028e-06
1.00407e-06
9.75266e-07
6.507e-07
9.94989e-07
1.37715e-06
1.63999e-06
1.79983e-06
1.88888e-06
1.92123e-06
1.91097e-06
1.8736e-06
1.82048e-06
1.75872e-06
1.69319e-06
1.62729e-06
1.56311e-06
1.50187e-06
1.44424e-06
1.39055e-06
1.34086e-06
1.29509e-06
1.25305e-06
1.2145e-06
1.17913e-06
1.14662e-06
1.1166e-06
1.08868e-06
1.06243e-06
1.0374e-06
1.01309e-06
9.88957e-07
9.64456e-07
9.38946e-07
9.11895e-07
8.82773e-07
5.02552e-07
8.65468e-07
1.25047e-06
1.52112e-06
1.69271e-06
1.79356e-06
1.83733e-06
1.83764e-06
1.80904e-06
1.76256e-06
1.70547e-06
1.64296e-06
1.57868e-06
1.515e-06
1.4534e-06
1.39477e-06
1.33959e-06
1.28806e-06
1.2402e-06
1.19593e-06
1.15504e-06
1.1173e-06
1.08241e-06
1.05005e-06
1.01986e-06
9.91447e-07
9.64401e-07
9.38282e-07
9.12622e-07
8.86972e-07
8.60814e-07
8.33818e-07
8.0552e-07
3.75601e-07
7.65734e-07
1.15399e-06
1.43076e-06
1.61201e-06
1.72295e-06
1.77656e-06
1.78592e-06
1.76476e-06
1.72373e-06
1.67028e-06
1.60981e-06
1.5462e-06
1.48211e-06
1.41924e-06
1.35869e-06
1.30111e-06
1.24686e-06
1.19607e-06
1.14875e-06
1.10477e-06
1.06396e-06
1.0261e-06
9.90896e-07
9.58055e-07
9.27237e-07
8.98084e-07
8.70226e-07
8.43273e-07
8.16868e-07
7.90595e-07
7.64259e-07
7.37451e-07
2.80527e-07
6.97671e-07
1.08669e-06
1.36736e-06
1.55613e-06
1.67549e-06
1.73747e-06
1.75454e-06
1.73972e-06
1.70332e-06
1.65285e-06
1.59391e-06
1.53058e-06
1.46571e-06
1.40124e-06
1.33843e-06
1.27811e-06
1.22076e-06
1.16663e-06
1.11581e-06
1.06829e-06
1.02396e-06
9.82668e-07
9.4421e-07
9.08345e-07
8.74811e-07
8.43321e-07
8.13585e-07
7.853e-07
7.58206e-07
7.31991e-07
7.06605e-07
6.81692e-07
2.45437e-07
6.64644e-07
1.04866e-06
1.33038e-06
1.52444e-06
1.65046e-06
1.71923e-06
1.74248e-06
1.73252e-06
1.69938e-06
1.65057e-06
1.59183e-06
1.52745e-06
1.4605e-06
1.39315e-06
1.32686e-06
1.26262e-06
1.20107e-06
1.14258e-06
1.08735e-06
1.03546e-06
9.86891e-07
9.41561e-07
8.99338e-07
8.60057e-07
8.23524e-07
7.89527e-07
7.57845e-07
7.28246e-07
7.00537e-07
6.74463e-07
6.50013e-07
6.26861e-07
2.9116e-07
6.69601e-07
1.0407e-06
1.32026e-06
1.51743e-06
1.6486e-06
1.72305e-06
1.75166e-06
1.74612e-06
1.71611e-06
1.66908e-06
1.61083e-06
1.54578e-06
1.47716e-06
1.4073e-06
1.33781e-06
1.26984e-06
1.20413e-06
1.1412e-06
1.08134e-06
1.02474e-06
9.71475e-07
9.21552e-07
8.74931e-07
8.31536e-07
7.91262e-07
7.53986e-07
7.19574e-07
6.87877e-07
6.5879e-07
6.32124e-07
6.07987e-07
5.86008e-07
3.94343e-07
7.13115e-07
1.06391e-06
1.33796e-06
1.53584e-06
1.67008e-06
1.74811e-06
1.77978e-06
1.7762e-06
1.74676e-06
1.69893e-06
1.63867e-06
1.57058e-06
1.49811e-06
1.42377e-06
1.34936e-06
1.27616e-06
1.20506e-06
1.13665e-06
1.07132e-06
1.00934e-06
9.50833e-07
8.95885e-07
8.4452e-07
7.96727e-07
7.52472e-07
7.11698e-07
6.74339e-07
6.40303e-07
6.09524e-07
5.81836e-07
5.57309e-07
5.35596e-07
5.29347e-07
7.93296e-07
1.11942e-06
1.38545e-06
1.58266e-06
1.71962e-06
1.80168e-06
1.83759e-06
1.83771e-06
1.81098e-06
1.76464e-06
1.70458e-06
1.63546e-06
1.56081e-06
1.48331e-06
1.40493e-06
1.32709e-06
1.25083e-06
1.17689e-06
1.10578e-06
1.03786e-06
9.73371e-07
9.12465e-07
8.5525e-07
8.0179e-07
7.52125e-07
7.06268e-07
6.6423e-07
6.25988e-07
5.91562e-07
5.60836e-07
5.34056e-07
5.10653e-07
6.87643e-07
9.0845e-07
1.2092e-06
1.4649e-06
1.65844e-06
1.79423e-06
1.87544e-06
1.90988e-06
1.90764e-06
1.87768e-06
1.82734e-06
1.76271e-06
1.68861e-06
1.60871e-06
1.52579e-06
1.44186e-06
1.35843e-06
1.27656e-06
1.19701e-06
1.12031e-06
1.04685e-06
9.76884e-07
9.10592e-07
8.48105e-07
7.89512e-07
7.34881e-07
6.84262e-07
6.37692e-07
5.95181e-07
5.56762e-07
5.22332e-07
4.92057e-07
4.65478e-07
8.68924e-07
1.05694e-06
1.33458e-06
1.58088e-06
1.77347e-06
1.91325e-06
2.00065e-06
2.0416e-06
2.04501e-06
2.01909e-06
1.97081e-06
1.9062e-06
1.83027e-06
1.74695e-06
1.65931e-06
1.5697e-06
1.47988e-06
1.39114e-06
1.30442e-06
1.22041e-06
1.13957e-06
1.06224e-06
9.88638e-07
9.18925e-07
8.53201e-07
7.91536e-07
7.33977e-07
6.80564e-07
6.31303e-07
5.86261e-07
5.45329e-07
5.08922e-07
4.76031e-07
1.07884e-06
1.24467e-06
1.50309e-06
1.73652e-06
1.91885e-06
2.04894e-06
2.12639e-06
2.1576e-06
2.1522e-06
2.1187e-06
2.06408e-06
1.9942e-06
1.91378e-06
1.8265e-06
1.73517e-06
1.64197e-06
1.54852e-06
1.45604e-06
1.36546e-06
1.27743e-06
1.19244e-06
1.11083e-06
1.03284e-06
9.58634e-07
8.88304e-07
8.21914e-07
7.59489e-07
7.01036e-07
6.46523e-07
5.95938e-07
5.49123e-07
5.06268e-07
4.66566e-07
1.32187e-06
1.46819e-06
1.71298e-06
1.94602e-06
2.13982e-06
2.2879e-06
2.38355e-06
2.42926e-06
2.43315e-06
2.40357e-06
2.34808e-06
2.27352e-06
2.18567e-06
2.08915e-06
1.98754e-06
1.88354e-06
1.7792e-06
1.676e-06
1.57497e-06
1.47688e-06
1.38222e-06
1.29132e-06
1.20439e-06
1.12155e-06
1.04283e-06
9.68253e-07
8.9778e-07
8.31366e-07
7.68924e-07
7.1043e-07
6.55632e-07
6.04968e-07
5.56673e-07
1.61868e-06
1.76229e-06
1.99436e-06
2.20042e-06
2.35925e-06
2.47286e-06
2.54018e-06
2.56646e-06
2.55986e-06
2.52682e-06
2.47246e-06
2.4015e-06
2.3181e-06
2.22582e-06
2.12762e-06
2.02596e-06
1.92283e-06
1.81982e-06
1.71815e-06
1.61872e-06
1.5222e-06
1.42906e-06
1.33958e-06
1.25396e-06
1.17227e-06
1.09452e-06
1.02066e-06
9.50628e-07
8.84298e-07
8.21572e-07
7.62205e-07
7.06355e-07
6.52721e-07
1.9615e-06
2.08168e-06
2.32527e-06
2.58165e-06
2.80824e-06
2.98202e-06
3.0876e-06
3.12915e-06
3.11993e-06
3.07233e-06
2.99661e-06
2.90138e-06
2.7934e-06
2.67763e-06
2.55768e-06
2.43615e-06
2.3149e-06
2.19525e-06
2.07814e-06
1.96422e-06
1.85392e-06
1.74755e-06
1.64526e-06
1.54713e-06
1.45317e-06
1.36332e-06
1.27751e-06
1.19565e-06
1.11762e-06
1.04337e-06
9.72634e-07
9.05904e-07
8.4096e-07
2.44444e-06
2.59713e-06
2.78754e-06
2.91976e-06
3.0236e-06
3.11933e-06
3.19602e-06
3.24525e-06
3.26483e-06
3.25387e-06
3.21378e-06
3.14848e-06
3.06289e-06
2.96184e-06
2.84973e-06
2.73037e-06
2.60687e-06
2.48169e-06
2.3567e-06
2.23329e-06
2.11248e-06
1.99496e-06
1.88115e-06
1.77133e-06
1.66561e-06
1.564e-06
1.46645e-06
1.3729e-06
1.28324e-06
1.19746e-06
1.11541e-06
1.03756e-06
9.62344e-07
2.92267e-06
3.02702e-06
3.40448e-06
3.80607e-06
4.10921e-06
4.29036e-06
4.35779e-06
4.34208e-06
4.27282e-06
4.16809e-06
4.03906e-06
3.89379e-06
3.7379e-06
3.57537e-06
3.40934e-06
3.24245e-06
3.07691e-06
2.91457e-06
2.75694e-06
2.60517e-06
2.4601e-06
2.32229e-06
2.19204e-06
2.06946e-06
1.95448e-06
1.84688e-06
1.74639e-06
1.65267e-06
1.56538e-06
1.48433e-06
1.40915e-06
1.34067e-06
1.27626e-06
3.9629e-06
4.06378e-06
3.96771e-06
3.88016e-06
3.97009e-06
4.16907e-06
4.35368e-06
4.47306e-06
4.5231e-06
4.51352e-06
4.4611e-06
4.3844e-06
4.29857e-06
4.21414e-06
4.13762e-06
4.07233e-06
4.01921e-06
3.97773e-06
3.94661e-06
3.92421e-06
3.90889e-06
3.89912e-06
3.89358e-06
3.8911e-06
3.89069e-06
3.89149e-06
3.89274e-06
3.89374e-06
3.89398e-06
3.89308e-06
3.89089e-06
3.88874e-06
3.88495e-06
4.4215e-06
4.97333e-06
5.93107e-06
6.39964e-06
6.49906e-06
6.45736e-06
6.43173e-06
6.53032e-06
6.78493e-06
7.16397e-06
7.61663e-06
8.09688e-06
8.5693e-06
9.00992e-06
9.40469e-06
9.74681e-06
1.00343e-05
1.02682e-05
1.04514e-05
1.0588e-05
1.06822e-05
1.07384e-05
1.07608e-05
1.07533e-05
1.07192e-05
1.06614e-05
1.05826e-05
1.04844e-05
1.03686e-05
1.0236e-05
1.00884e-05
9.92739e-06
9.75512e-06
7.61266e-06
5.86165e-06
4.6102e-06
6.16723e-06
8.89535e-06
1.16119e-05
1.3953e-05
1.58547e-05
1.73135e-05
1.83416e-05
1.89738e-05
1.92563e-05
1.92377e-05
1.89665e-05
1.84892e-05
1.78483e-05
1.70815e-05
1.62214e-05
1.52954e-05
1.43263e-05
1.33323e-05
1.23281e-05
1.13252e-05
1.03324e-05
9.35594e-06
8.40044e-06
7.46869e-06
6.56172e-06
5.67984e-06
4.81995e-06
3.98357e-06
3.15908e-06
2.37118e-06
8.59561e-06
1.47022e-05
1.87859e-05
2.11713e-05
2.2235e-05
2.17261e-05
1.98216e-05
1.69817e-05
1.36982e-05
1.06593e-05
9.00286e-06
9.79291e-06
1.25383e-05
1.61071e-05
1.9864e-05
2.3533e-05
2.69921e-05
3.01878e-05
3.31006e-05
3.57292e-05
3.80825e-05
4.01748e-05
4.20234e-05
4.36464e-05
4.50623e-05
4.62887e-05
4.73427e-05
4.82409e-05
4.89996e-05
4.9639e-05
5.01741e-05
5.06643e-05
5.10985e-05
3.46968e-05
3.72714e-05
4.67494e-05
6.19469e-05
7.77454e-05
9.32529e-05
0.000107763
0.000120566
0.000131471
0.000140519
0.000147818
0.000153532
0.000157845
0.000160942
0.000162997
0.000164168
0.000164596
0.000164405
0.000163701
0.000162574
0.000161103
0.000159351
0.000157374
0.000155218
0.000152919
0.000150509
0.000148013
0.000145447
0.000142833
0.00014017
0.000137465
0.000134805
0.000132215
0.000608484
0.000582518
0.000556842
0.00053029
0.000504165
0.000478785
0.000454192
0.000430655
0.000408359
0.000387362
0.000367682
0.000349305
0.000332185
0.000316257
0.000301445
0.000287665
0.000274836
0.000262876
0.000251708
0.000241261
0.000231467
0.000222266
0.000213603
0.000205428
0.000197698
0.000190373
0.000183416
0.000176792
0.000170464
0.000164411
0.000158502
0.000153266
0.000148465
8.96767e-05
8.05369e-05
7.49707e-05
7.51231e-05
7.80415e-05
8.26195e-05
8.80612e-05
9.42528e-05
0.000101266
0.000108755
0.000115026
0.000116631
0.000104029
8.15684e-05
6.42047e-05
5.63839e-05
5.11499e-05
4.50298e-05
3.83045e-05
3.17449e-05
2.59907e-05
2.17286e-05
2.06536e-05
2.02476e-05
1.02067e-05
1.16471e-05
2.80525e-05
2.47254e-05
1.33813e-05
2.42628e-05
3.1929e-05
3.10121e-05
2.72397e-05
2.39978e-05
2.15306e-05
1.94364e-05
1.75622e-05
1.58856e-05
1.43904e-05
1.30511e-05
1.18446e-05
1.07542e-05
9.76854e-06
8.88153e-06
8.09135e-06
7.40789e-06
6.86235e-06
6.46941e-06
6.19581e-06
6.15292e-06
6.74008e-06
7.94455e-06
1.03298e-05
1.42313e-05
1.62726e-05
1.49468e-05
1.37042e-05
1.55276e-05
1.93784e-05
2.39776e-05
2.87544e-05
3.34545e-05
3.73328e-05
3.89219e-05
3.76449e-05
3.54953e-05
3.44349e-05
3.33366e-05
3.0851e-05
2.80728e-05
2.66121e-05
2.62277e-05
2.84391e-05
3.32806e-05
3.52522e-05
3.40427e-05
3.25538e-05
3.29185e-05
3.48853e-05
3.21385e-05
2.39702e-05
1.54711e-05
9.8083e-06
6.70406e-06
4.94423e-06
3.82996e-06
3.14149e-06
2.82266e-06
2.84743e-06
3.21272e-06
3.94255e-06
5.131e-06
6.72323e-06
8.98974e-06
1.19087e-05
1.84809e-05
2.59196e-05
4.05267e-05
3.33804e-05
3.58705e-05
0.000118729
0.000111549
0.000104958
0.000101436
9.95634e-05
9.85666e-05
9.84003e-05
9.92917e-05
0.000101473
0.000104812
0.000108835
0.0001131
0.000116522
0.000109762
8.88836e-05
6.5472e-05
5.0233e-05
4.25606e-05
3.73802e-05
3.25459e-05
2.78859e-05
2.35516e-05
1.7746e-05
5.97786e-06
1.58829e-05
3.12884e-05
2.85843e-05
1.29244e-05
2.05312e-05
3.13889e-05
3.25759e-05
2.92411e-05
2.58034e-05
2.32018e-05
2.10626e-05
1.91391e-05
1.73865e-05
1.5802e-05
1.43733e-05
1.30828e-05
1.19154e-05
1.08583e-05
9.90254e-06
9.04396e-06
8.28241e-06
7.62673e-06
7.107e-06
6.74419e-06
6.50283e-06
6.44737e-06
6.97645e-06
8.18225e-06
1.03638e-05
1.42632e-05
1.69044e-05
1.60514e-05
1.46769e-05
1.62438e-05
2.00529e-05
2.47426e-05
2.96678e-05
3.44916e-05
3.84414e-05
4.01693e-05
3.92863e-05
3.75237e-05
3.62137e-05
3.42204e-05
3.07171e-05
2.69048e-05
2.40437e-05
2.19589e-05
2.4988e-05
3.182e-05
3.3572e-05
3.09882e-05
2.89482e-05
2.88735e-05
3.18206e-05
3.12887e-05
2.4524e-05
1.61812e-05
1.02013e-05
6.88299e-06
5.06106e-06
3.92834e-06
3.2213e-06
2.8917e-06
2.92528e-06
3.31621e-06
4.0748e-06
5.29673e-06
6.94029e-06
9.30209e-06
1.22419e-05
1.87586e-05
2.60759e-05
4.07478e-05
3.64214e-05
3.59288e-05
0.000102314
0.000101453
9.91744e-05
9.67544e-05
9.4159e-05
9.14028e-05
8.88431e-05
8.71147e-05
8.68889e-05
8.84297e-05
9.13403e-05
9.50065e-05
9.91765e-05
0.000103464
0.000101825
8.9399e-05
7.01858e-05
5.16848e-05
3.77325e-05
2.79163e-05
2.03781e-05
1.56336e-05
1.83941e-05
2.92598e-05
3.68696e-05
3.05201e-05
1.27368e-05
1.78427e-05
3.07127e-05
3.36825e-05
3.09258e-05
2.7359e-05
2.46473e-05
2.2529e-05
2.06311e-05
1.88566e-05
1.7216e-05
1.57172e-05
1.43535e-05
1.31137e-05
1.19871e-05
1.09641e-05
1.00382e-05
9.20723e-06
8.47306e-06
7.84381e-06
7.34731e-06
7.01016e-06
6.80114e-06
6.74484e-06
7.2016e-06
8.37446e-06
1.03617e-05
1.41694e-05
1.74059e-05
1.71604e-05
1.57507e-05
1.70383e-05
2.07768e-05
2.55427e-05
3.06123e-05
3.55611e-05
3.95959e-05
4.14976e-05
4.09942e-05
3.95099e-05
3.78741e-05
3.50061e-05
3.0643e-05
2.59337e-05
2.14375e-05
1.77174e-05
2.35411e-05
3.30555e-05
3.42302e-05
2.94573e-05
2.6391e-05
2.54376e-05
2.85104e-05
2.99289e-05
2.47635e-05
1.6809e-05
1.05941e-05
7.05596e-06
5.16178e-06
4.01241e-06
3.29023e-06
2.95003e-06
2.98853e-06
3.40087e-06
4.18741e-06
5.44044e-06
7.12385e-06
9.56284e-06
1.25296e-05
1.89616e-05
2.62503e-05
4.07194e-05
3.95714e-05
3.63845e-05
6.91472e-05
6.84649e-05
6.68702e-05
6.49207e-05
6.24707e-05
5.95682e-05
5.67032e-05
5.46333e-05
5.40361e-05
5.51188e-05
5.76845e-05
6.16152e-05
6.66035e-05
7.26055e-05
7.89271e-05
8.23542e-05
7.96505e-05
7.13215e-05
6.0858e-05
5.15692e-05
4.58917e-05
4.45058e-05
4.46774e-05
4.0855e-05
2.79593e-05
8.99206e-06
1.8101e-05
3.11955e-05
3.46318e-05
3.2145e-05
2.85195e-05
2.57679e-05
2.37336e-05
2.19347e-05
2.02059e-05
1.85614e-05
1.70297e-05
1.56178e-05
1.43218e-05
1.31356e-05
1.20524e-05
1.10657e-05
1.01713e-05
9.36938e-06
8.66352e-06
8.06157e-06
7.58867e-06
7.27566e-06
7.09874e-06
7.05361e-06
7.44753e-06
8.58122e-06
1.03957e-05
1.39924e-05
1.77744e-05
1.82695e-05
1.69379e-05
1.79183e-05
2.15446e-05
2.6366e-05
3.1575e-05
3.66568e-05
4.08061e-05
4.29306e-05
4.27984e-05
4.14887e-05
3.94245e-05
3.56966e-05
3.05343e-05
2.4871e-05
1.83751e-05
1.34798e-05
2.4632e-05
3.66054e-05
3.66891e-05
2.90617e-05
2.45267e-05
2.25945e-05
2.50547e-05
2.81314e-05
2.47121e-05
1.73643e-05
1.10054e-05
7.24265e-06
5.25847e-06
4.08493e-06
3.34393e-06
2.99283e-06
3.04069e-06
3.47913e-06
4.29498e-06
5.57544e-06
7.28906e-06
9.78721e-06
1.27877e-05
1.91034e-05
2.64399e-05
4.05048e-05
4.27928e-05
3.7184e-05
2.09062e-05
2.03617e-05
1.91617e-05
1.76631e-05
1.59814e-05
1.44346e-05
1.36715e-05
1.41432e-05
1.55746e-05
1.74005e-05
1.95753e-05
2.2453e-05
2.67173e-05
3.22081e-05
3.84946e-05
4.50839e-05
5.06471e-05
5.357e-05
5.33484e-05
5.07772e-05
4.69261e-05
4.0563e-05
3.00258e-05
1.43249e-05
6.03935e-06
2.2963e-05
3.3214e-05
3.53742e-05
3.27148e-05
2.91698e-05
2.65212e-05
2.4631e-05
2.29801e-05
2.13575e-05
1.97686e-05
1.82533e-05
1.68302e-05
1.55046e-05
1.42771e-05
1.3146e-05
1.21077e-05
1.11587e-05
1.02972e-05
9.525e-06
8.84771e-06
8.27327e-06
7.8237e-06
7.53268e-06
7.38621e-06
7.35887e-06
7.69547e-06
8.77693e-06
1.04692e-05
1.37563e-05
1.79698e-05
1.93254e-05
1.82309e-05
1.88981e-05
2.2361e-05
2.72114e-05
3.25532e-05
3.77804e-05
4.20796e-05
4.44614e-05
4.46614e-05
4.34097e-05
4.08376e-05
3.63065e-05
3.04457e-05
2.38111e-05
1.49415e-05
1.07019e-05
2.8611e-05
4.20859e-05
4.06718e-05
2.99596e-05
2.35674e-05
2.06708e-05
2.16674e-05
2.59129e-05
2.43104e-05
1.77878e-05
1.14091e-05
7.43728e-06
5.35027e-06
4.14655e-06
3.38508e-06
3.02197e-06
3.08068e-06
3.54943e-06
4.39911e-06
5.70728e-06
7.4445e-06
9.98055e-06
1.30166e-05
1.9177e-05
2.65921e-05
4.00852e-05
4.59333e-05
3.82844e-05
8.50279e-06
9.18358e-06
1.00869e-05
1.09351e-05
1.16725e-05
1.22309e-05
1.24089e-05
1.19274e-05
1.05236e-05
8.06291e-06
4.72389e-06
2.41931e-06
6.58323e-06
1.19958e-05
1.66913e-05
1.98158e-05
2.12637e-05
2.15095e-05
2.07476e-05
1.85442e-05
1.39323e-05
8.01293e-06
1.08317e-05
2.14734e-05
3.09088e-05
3.56292e-05
3.53877e-05
3.24044e-05
2.91981e-05
2.68623e-05
2.5189e-05
2.37157e-05
2.22425e-05
2.07662e-05
1.93232e-05
1.79364e-05
1.66186e-05
1.53782e-05
1.422e-05
1.31453e-05
1.21533e-05
1.12432e-05
1.04155e-05
9.67383e-06
9.02522e-06
8.47827e-06
8.05182e-06
7.78054e-06
7.66215e-06
7.65878e-06
7.94842e-06
8.95772e-06
1.05756e-05
1.34999e-05
1.79741e-05
2.02759e-05
1.96161e-05
1.99949e-05
2.32345e-05
2.80795e-05
3.35409e-05
3.89246e-05
4.34045e-05
4.60588e-05
4.65421e-05
4.52589e-05
4.21563e-05
3.69e-05
3.03941e-05
2.27142e-05
1.10721e-05
1.17971e-05
3.48287e-05
4.87353e-05
4.55153e-05
3.18825e-05
2.35067e-05
1.98418e-05
1.86567e-05
2.3391e-05
2.35697e-05
1.80466e-05
1.1784e-05
7.637e-06
5.4381e-06
4.19417e-06
3.40633e-06
3.02863e-06
3.10167e-06
3.60806e-06
4.49908e-06
5.83859e-06
7.59691e-06
1.0149e-05
1.32182e-05
1.91876e-05
2.66785e-05
3.94461e-05
4.88521e-05
3.97131e-05
9.62628e-06
1.02145e-05
1.08918e-05
1.14054e-05
1.16433e-05
1.15346e-05
1.09699e-05
9.84164e-06
8.09581e-06
5.77839e-06
3.22027e-06
2.61459e-06
5.77087e-06
1.02033e-05
1.51282e-05
1.97571e-05
2.31955e-05
2.50103e-05
2.55837e-05
2.59597e-05
2.7323e-05
2.9946e-05
3.3093e-05
3.5308e-05
3.54627e-05
3.36424e-05
3.09523e-05
2.85314e-05
2.67608e-05
2.53938e-05
2.41195e-05
2.28186e-05
2.1496e-05
2.01767e-05
1.88773e-05
1.76122e-05
1.63958e-05
1.52398e-05
1.41511e-05
1.31334e-05
1.21886e-05
1.13185e-05
1.05255e-05
9.81465e-06
9.19452e-06
8.67472e-06
8.27124e-06
8.01767e-06
7.92419e-06
7.94939e-06
8.20636e-06
9.12326e-06
1.06963e-05
1.32602e-05
1.77804e-05
2.10592e-05
2.10676e-05
2.12313e-05
2.41787e-05
2.89727e-05
3.45333e-05
4.00828e-05
4.47703e-05
4.77e-05
4.84193e-05
4.7044e-05
4.34223e-05
3.75097e-05
3.04024e-05
2.16105e-05
6.95879e-06
1.6922e-05
4.24278e-05
5.58333e-05
5.06203e-05
3.45128e-05
2.42826e-05
2.00823e-05
1.63517e-05
2.06846e-05
2.25129e-05
1.812e-05
1.21092e-05
7.83731e-06
5.52483e-06
4.2316e-06
3.41131e-06
3.01568e-06
3.10438e-06
3.65281e-06
4.591e-06
5.96707e-06
7.74911e-06
1.02987e-05
1.3394e-05
1.914e-05
2.66885e-05
3.85777e-05
5.14029e-05
4.15099e-05
6.02058e-06
6.45692e-06
6.94395e-06
7.31497e-06
7.47912e-06
7.3869e-06
6.98186e-06
6.22474e-06
5.14489e-06
3.94475e-06
3.30894e-06
4.24101e-06
6.40506e-06
9.19919e-06
1.25117e-05
1.63101e-05
2.03014e-05
2.39887e-05
2.69722e-05
2.92414e-05
3.09062e-05
3.19522e-05
3.2185e-05
3.15247e-05
3.0202e-05
2.86894e-05
2.73571e-05
2.62535e-05
2.52294e-05
2.41684e-05
2.30559e-05
2.19159e-05
2.07612e-05
1.95961e-05
1.84305e-05
1.72807e-05
1.61629e-05
1.509e-05
1.40705e-05
1.31102e-05
1.22134e-05
1.13839e-05
1.06261e-05
9.94632e-06
9.35425e-06
8.86086e-06
8.48005e-06
8.24237e-06
8.16953e-06
8.22554e-06
8.46633e-06
9.27813e-06
1.08101e-05
1.30719e-05
1.74023e-05
2.15999e-05
2.25326e-05
2.26272e-05
2.52142e-05
2.98952e-05
3.55231e-05
4.12422e-05
4.6158e-05
4.93579e-05
5.02703e-05
4.87701e-05
4.46613e-05
3.81641e-05
3.05016e-05
2.05626e-05
4.30853e-06
2.42366e-05
5.06991e-05
6.27562e-05
5.54935e-05
3.7547e-05
2.5764e-05
2.11653e-05
1.50551e-05
1.79144e-05
2.11761e-05
1.80005e-05
1.23683e-05
8.03168e-06
5.61083e-06
4.2585e-06
3.39618e-06
2.97751e-06
3.08537e-06
3.68308e-06
4.67457e-06
6.0919e-06
7.90304e-06
1.04368e-05
1.3549e-05
1.90369e-05
2.66194e-05
3.74749e-05
5.34221e-05
4.36218e-05
4.56152e-06
4.88949e-06
5.24208e-06
5.50576e-06
5.60683e-06
5.50478e-06
5.16105e-06
4.55304e-06
3.72621e-06
2.92802e-06
2.86865e-06
4.08436e-06
6.12143e-06
8.53958e-06
1.1135e-05
1.3835e-05
1.66185e-05
1.93876e-05
2.19371e-05
2.40158e-05
2.55056e-05
2.63809e-05
2.67059e-05
2.66322e-05
2.63253e-05
2.58847e-05
2.53239e-05
2.46296e-05
2.3818e-05
2.2932e-05
2.20047e-05
2.10444e-05
2.00493e-05
1.90241e-05
1.79828e-05
1.69431e-05
1.5921e-05
1.49295e-05
1.39787e-05
1.30761e-05
1.22276e-05
1.14391e-05
1.07166e-05
1.00678e-05
9.50314e-06
9.03506e-06
8.6764e-06
8.45329e-06
8.39629e-06
8.48284e-06
8.72391e-06
9.42996e-06
1.0897e-05
1.29517e-05
1.6885e-05
2.18228e-05
2.39252e-05
2.41923e-05
2.63716e-05
3.08562e-05
3.65032e-05
4.23836e-05
4.75394e-05
5.10003e-05
5.20727e-05
5.0444e-05
4.58993e-05
3.89002e-05
3.07466e-05
1.97272e-05
7.62322e-06
3.27195e-05
5.90569e-05
6.89618e-05
5.97745e-05
4.07904e-05
2.78161e-05
2.27787e-05
1.48863e-05
1.52054e-05
1.95972e-05
1.76853e-05
1.25468e-05
8.21343e-06
5.69736e-06
4.27787e-06
3.36306e-06
2.91486e-06
3.04479e-06
3.69861e-06
4.74842e-06
6.21049e-06
8.05784e-06
1.05704e-05
1.36926e-05
1.88836e-05
2.64795e-05
3.61543e-05
5.47521e-05
4.58828e-05
3.82784e-06
4.06162e-06
4.29821e-06
4.45988e-06
4.4872e-06
4.34307e-06
3.99654e-06
3.43488e-06
2.71602e-06
2.13021e-06
2.39647e-06
3.70304e-06
5.56881e-06
7.7185e-06
1.00063e-05
1.23222e-05
1.45856e-05
1.67391e-05
1.87205e-05
2.04354e-05
2.18133e-05
2.28478e-05
2.35521e-05
2.39437e-05
2.40471e-05
2.3901e-05
2.35525e-05
2.30512e-05
2.24423e-05
2.17575e-05
2.10113e-05
2.02086e-05
1.9354e-05
1.84578e-05
1.75345e-05
1.66004e-05
1.56709e-05
1.47592e-05
1.38763e-05
1.30311e-05
1.22311e-05
1.14836e-05
1.07964e-05
1.01781e-05
9.63997e-06
9.19571e-06
8.85825e-06
8.6488e-06
8.60256e-06
8.7161e-06
8.97182e-06
9.58605e-06
1.09478e-05
1.28893e-05
1.63058e-05
2.167e-05
2.5121e-05
2.59104e-05
2.76953e-05
3.18753e-05
3.74704e-05
4.34839e-05
4.88804e-05
5.2594e-05
5.38099e-05
5.20763e-05
4.71619e-05
3.97691e-05
3.1219e-05
1.9381e-05
1.41726e-05
4.18909e-05
6.69589e-05
7.39747e-05
6.32226e-05
4.41574e-05
3.03566e-05
2.46607e-05
1.56701e-05
1.27031e-05
1.7821e-05
1.71816e-05
1.26352e-05
8.37625e-06
5.78436e-06
4.29071e-06
3.31056e-06
2.82401e-06
2.9806e-06
3.70017e-06
4.81386e-06
6.32208e-06
8.21128e-06
1.07032e-05
1.38362e-05
1.86917e-05
2.62863e-05
3.46661e-05
5.52644e-05
4.80398e-05
3.23343e-06
3.39668e-06
3.5479e-06
3.63161e-06
3.5996e-06
3.41875e-06
3.06452e-06
2.53149e-06
1.88821e-06
1.49157e-06
2.0451e-06
3.3794e-06
5.07984e-06
6.98093e-06
8.99093e-06
1.10329e-05
1.30344e-05
1.49318e-05
1.66749e-05
1.82218e-05
1.95344e-05
2.05782e-05
2.13354e-05
2.18155e-05
2.20469e-05
2.20645e-05
2.19027e-05
2.15949e-05
2.11712e-05
2.06549e-05
2.00606e-05
1.93973e-05
1.86731e-05
1.78985e-05
1.7087e-05
1.62538e-05
1.54137e-05
1.45799e-05
1.3764e-05
1.29757e-05
1.22239e-05
1.15173e-05
1.08648e-05
1.02763e-05
9.76364e-06
9.34138e-06
9.02359e-06
8.82722e-06
8.78728e-06
8.92129e-06
9.20182e-06
9.74987e-06
1.09672e-05
1.28479e-05
1.57585e-05
2.11273e-05
2.5958e-05
2.77129e-05
2.92398e-05
3.29908e-05
3.84315e-05
4.45201e-05
5.01421e-05
5.4105e-05
5.547e-05
5.36778e-05
4.84773e-05
4.08445e-05
3.20208e-05
1.99371e-05
2.21554e-05
5.13718e-05
7.38444e-05
7.73906e-05
6.571e-05
4.76466e-05
3.34004e-05
2.66736e-05
1.70574e-05
1.05798e-05
1.58898e-05
1.6505e-05
1.26306e-05
8.51608e-06
5.87212e-06
4.29916e-06
3.24012e-06
2.70466e-06
2.89312e-06
3.68893e-06
4.872e-06
6.42616e-06
8.3599e-06
1.08352e-05
1.39882e-05
1.84811e-05
2.60618e-05
3.30955e-05
5.48896e-05
4.97842e-05
2.75353e-06
2.86098e-06
2.94621e-06
2.96904e-06
2.89154e-06
2.68515e-06
2.32871e-06
1.81836e-06
1.22812e-06
1.024e-06
1.80225e-06
3.09148e-06
4.62079e-06
6.30054e-06
8.07011e-06
9.87215e-06
1.16506e-05
1.33529e-05
1.49339e-05
1.63543e-05
1.758e-05
1.85869e-05
1.93671e-05
1.99243e-05
2.02694e-05
2.04216e-05
2.04067e-05
2.02511e-05
1.99778e-05
1.96052e-05
1.91464e-05
1.86111e-05