/*--------------------------------*- C++ -*----------------------------------*\
| =========                 |                                                 |
| \\      /  F ield         | OpenFOAM: The Open Source CFD Toolbox           |
|  \\    /   O peration     | Version:  2.1.1                                 |
|   \\  /    A nd           | Web:      www.OpenFOAM.org                      |
|    \\/     M anipulation  |                                                 |
\*---------------------------------------------------------------------------*/
FoamFile
{
    version     2.0;
    format      ascii;
    class       volScalarField;
    location    "0.195";
    object      p;
}
// * * * * * * * * * * * * * * * * * * * * * * * * * * * * * * * * * * * * * //

dimensions      [0 2 -2 0 0 0 0];

internalField   nonuniform List<scalar> 
6820
(
15.7282
-2.10868
-5.12053
-5.31172
-5.48904
-5.42081
-5.36962
-5.38799
-5.44148
-5.51479
-5.5994
-5.69005
-5.78429
-5.88098
-5.97953
-6.07962
-6.18106
-6.28373
-6.38754
-6.49247
-6.5985
-6.70567
-6.81417
-6.92389
-7.03509
-7.14783
-7.26228
-7.37834
-7.49694
-7.6154
-7.74255
-7.85036
-8.02152
9.04767
-1.92684
-4.8086
-5.11292
-5.37026
-5.39821
-5.38367
-5.41328
-5.46854
-5.53892
-5.61958
-5.70659
-5.7978
-5.89211
-5.98885
-6.08761
-6.18808
-6.29004
-6.39336
-6.49796
-6.6038
-6.71078
-6.8189
-6.92854
-7.0397
-7.15244
-7.26684
-7.38292
-7.5014
-7.62116
-7.74872
-7.87272
-8.0609
6.33398
-0.495379
-3.78681
-4.54913
-5.02227
-5.2251
-5.28939
-5.35181
-5.42644
-5.50916
-5.59845
-5.69205
-5.78825
-5.88619
-5.98547
-6.08591
-6.18742
-6.28998
-6.39354
-6.49813
-6.60374
-6.71041
-6.81829
-6.92751
-7.03798
-7.15002
-7.26403
-7.3798
-7.498
-7.61792
-7.74421
-7.86717
-8.0109
4.34952
-0.267105
-3.3638
-4.22726
-4.70409
-4.98593
-5.12035
-5.22686
-5.33257
-5.4358
-5.53807
-5.6404
-5.74294
-5.84587
-5.94923
-6.05302
-6.15729
-6.26209
-6.36747
-6.4735
-6.58022
-6.6877
-6.79605
-6.90541
-7.01591
-7.12772
-7.24103
-7.35614
-7.47374
-7.59428
-7.72076
-7.85078
-7.9983
2.71505
-0.366463
-2.97081
-3.87838
-4.39086
-4.7518
-4.95626
-5.1022
-5.23228
-5.35202
-5.46576
-5.5768
-5.686
-5.79383
-5.90096
-6.00773
-6.11431
-6.22083
-6.32742
-6.43419
-6.54124
-6.6487
-6.7567
-6.86543
-6.97501
-7.08565
-7.19757
-7.31093
-7.42705
-7.54621
-7.67134
-7.80286
-7.95094
1.49362
-0.546165
-2.71863
-3.66682
-4.19831
-4.58628
-4.82557
-4.99422
-5.14027
-5.27262
-5.39576
-5.51375
-5.62848
-5.74081
-5.85136
-5.96066
-6.06907
-6.17686
-6.28424
-6.39137
-6.49841
-6.60549
-6.71277
-6.82041
-6.9286
-7.03755
-7.1477
-7.2597
-7.37416
-7.49149
-7.61426
-7.74402
-7.88897
0.544343
-0.831143
-2.59975
-3.51055
-4.02956
-4.42564
-4.69497
-4.88899
-5.05291
-5.19859
-5.33138
-5.45635
-5.57629
-5.69253
-5.80605
-5.91762
-6.02776
-6.1368
-6.245
-6.35256
-6.45965
-6.56644
-6.67309
-6.77978
-6.88672
-6.99421
-7.1026
-7.21218
-7.32351
-7.43733
-7.55554
-7.67955
-7.81408
-0.199994
-1.13564
-2.54682
-3.39291
-3.90029
-4.29786
-4.5858
-4.79694
-4.97274
-5.12773
-5.26791
-5.39861
-5.52308
-5.64298
-5.75945
-5.87333
-5.9852
-6.09546
-6.20441
-6.31229
-6.41932
-6.52568
-6.63152
-6.73705
-6.84244
-6.94791
-7.05374
-7.16031
-7.26814
-7.3778
-7.49042
-7.60682
-7.72917
-0.79033
-1.43736
-2.55499
-3.32075
-3.80556
-4.19135
-4.48553
-4.70809
-4.89371
-5.0573
-5.20479
-5.34132
-5.4704
-5.59397
-5.71331
-5.82938
-5.94286
-6.05424
-6.16387
-6.27204
-6.37897
-6.48485
-6.58986
-6.69417
-6.79794
-6.90138
-7.00474
-7.10826
-7.21224
-7.31698
-7.42303
-7.53061
-7.64011
-1.2645
-1.72065
-2.60077
-3.27776
-3.73346
-4.10327
-4.39816
-4.62848
-4.82145
-4.99147
-5.14456
-5.2857
-5.41851
-5.5451
-5.66685
-5.78481
-5.8997
-6.01204
-6.12222
-6.23053
-6.33722
-6.44249
-6.54651
-6.64942
-6.75139
-6.85257
-6.95309
-7.05309
-7.15272
-7.25207
-7.3512
-7.44985
-7.54736
-1.6494
-1.97782
-2.67035
-3.26013
-3.68329
-4.03365
-4.32304
-4.556
-4.75314
-4.92758
-5.08515
-5.23032
-5.36657
-5.49604
-5.62015
-5.73995
-5.8562
-5.96946
-6.08014
-6.18857
-6.29498
-6.39959
-6.50257
-6.60405
-6.70415
-6.80297
-6.90059
-6.99704
-7.09231
-7.18627
-7.27863
-7.36881
-7.45561
-1.96466
-2.20649
-2.75282
-3.26095
-3.64907
-3.97783
-4.25792
-4.49033
-4.68972
-4.86725
-5.02824
-5.17666
-5.31575
-5.44762
-5.57369
-5.69502
-5.81239
-5.92637
-6.03739
-6.14577
-6.25177
-6.3556
-6.45741
-6.55731
-6.65541
-6.75176
-6.84635
-6.93913
-7.02997
-7.11858
-7.20448
-7.28694
-7.36456
-2.22459
-2.40672
-2.84006
-3.2749
-3.62771
-3.93425
-4.20265
-4.43165
-4.63108
-4.81001
-4.97316
-5.12398
-5.26533
-5.39923
-5.52703
-5.64973
-5.76812
-5.88275
-5.99405
-6.10235
-6.2079
-6.31091
-6.41152
-6.50984
-6.60592
-6.69979
-6.7914
-6.88063
-6.96724
-7.05089
-7.13098
-7.20674
-7.27681
-2.43974
-2.57994
-2.9264
-3.29735
-3.61585
-3.90014
-4.15531
-4.37877
-4.57661
-4.75577
-4.9202
-5.07277
-5.21593
-5.3515
-5.48074
-5.60459
-5.7238
-5.83891
-5.95035
-6.05844
-6.16344
-6.26553
-6.36486
-6.46152
-6.55554
-6.64692
-6.73558
-6.82135
-6.90396
-6.98303
-7.05795
-7.12801
-7.19198
-2.61793
-2.72814
-3.00793
-3.32436
-3.6106
-3.87336
-4.11475
-4.3313
-4.52624
-4.70456
-4.86937
-5.02297
-5.1674
-5.30424
-5.43462
-5.55941
-5.67928
-5.79477
-5.90627
-6.01409
-6.11849
-6.21964
-6.31768
-6.41269
-6.5047
-6.59368
-6.67953
-6.76208
-6.84105
-6.91607
-6.98659
-7.05198
-7.11123
-2.76503
-2.85339
-3.08199
-3.35271
-3.60946
-3.85185
-4.07947
-4.28824
-4.47931
-4.65596
-4.82046
-4.97456
-5.11986
-5.25767
-5.38896
-5.5145
-5.6349
-5.75063
-5.86209
-5.96956
-6.07329
-6.17345
-6.27016
-6.36352
-6.45353
-6.54017
-6.62335
-6.7029
-6.77857
-6.85003
-6.9168
-6.97842
-7.03406
-2.88542
-2.95761
-3.14688
-3.37975
-3.61016
-3.83372
-4.04809
-4.24876
-4.43538
-4.60978
-4.77345
-4.92759
-5.07338
-5.21186
-5.34383
-5.46994
-5.59071
-5.70659
-5.81792
-5.92499
-6.02801
-6.12717
-6.22258
-6.31432
-6.40243
-6.48688
-6.56759
-6.64443
-6.71718
-6.78559
-6.84929
-6.90793
-6.96092
-2.98241
-3.04248
-3.20147
-3.40339
-3.61075
-3.81728
-4.01926
-4.21191
-4.39379
-4.56559
-4.72805
-4.8819
-5.02791
-5.16684
-5.2993
-5.42583
-5.54687
-5.66281
-5.77394
-5.88054
-5.98282
-6.08094
-6.17504
-6.2652
-6.35146
-6.43383
-6.51224
-6.5866
-6.65677
-6.72255
-6.7837
-6.83999
-6.89102
-3.05845
-3.10937
-3.24505
-3.42191
-3.60953
-3.80098
-3.99171
-4.17675
-4.35394
-4.52301
-4.6841
-4.83747
-4.98352
-5.12276
-5.2556
-5.38246
-5.50369
-5.61962
-5.73052
-5.83663
-5.93816
-6.03527
-6.12811
-6.21676
-6.30128
-6.38171
-6.45803
-6.53018
-6.59809
-6.66165
-6.7207
-6.77516
-6.82477
-3.11536
-3.15933
-3.27709
-3.43392
-3.60497
-3.78341
-3.96423
-4.14236
-4.31512
-4.48158
-4.64128
-4.79408
-4.94008
-5.07952
-5.21265
-5.33975
-5.4611
-5.57695
-5.68756
-5.79314
-5.89388
-5.98996
-6.08153
-6.16869
-6.25154
-6.33013
-6.40449
-6.47462
-6.5405
-6.60211
-6.65939
-6.71235
-6.76088
-3.15439
-3.1931
-3.2972
-3.43826
-3.59576
-3.7633
-3.93569
-4.10786
-4.27676
-4.44089
-4.59939
-4.75175
-4.89777
-5.03746
-5.17092
-5.29829
-5.41978
-5.53559
-5.64593
-5.75101
-5.85101
-5.94612
-6.03649
-6.12225
-6.20353
-6.28042
-6.35298
-6.42128
-6.48536
-6.54526
-6.60101
-6.65271
-6.70034
-3.17634
-3.21112
-3.30496
-3.43391
-3.58069
-3.73946
-3.90503
-4.07233
-4.23808
-4.40038
-4.55799
-4.71008
-4.85621
-4.99619
-5.12996
-5.25759
-5.37918
-5.49489
-5.60491
-5.70944
-5.80865
-5.90275
-5.9919
-6.07627
-6.15599
-6.23121
-6.30205
-6.3686
-6.43097
-6.48927
-6.5436
-6.59413
-6.64094
-3.1816
-3.21354
-3.29991
-3.41991
-3.55865
-3.71081
-3.87131
-4.03508
-4.19869
-4.35991
-4.51719
-4.66947
-4.81607
-4.95664
-5.09098
-5.21905
-5.3409
-5.45666
-5.56649
-5.67056
-5.76908
-5.86225
-5.95027
-6.03331
-6.11158
-6.18523
-6.25443
-6.31933
-6.3801
-6.43688
-6.48985
-6.53921
-6.5851
-3.17018
-3.20018
-3.28146
-3.39533
-3.52855
-3.67626
-3.83346
-3.9951
-4.1576
-4.31851
-4.47602
-4.62886
-4.77618
-4.91748
-5.05245
-5.18099
-5.3031
-5.41886
-5.52843
-5.63198
-5.72974
-5.82191
-5.90872
-5.9904
-6.06715
-6.13919
-6.20672
-6.26994
-6.32907
-6.3843
-6.43584
-6.48396
-6.52885
-3.1417
-3.17056
-3.24887
-3.35923
-3.48945
-3.635
-3.79095
-3.95223
-4.11513
-4.27698
-4.43578
-4.59006
-4.73884
-4.88148
-5.01759
-5.147
-5.26968
-5.3857
-5.49521
-5.59841
-5.69552
-5.7868
-5.87248
-5.95284
-6.02811
-6.09857
-6.16444
-6.22598
-6.28343
-6.33704
-6.38705
-6.43373
-6.47729
-3.09538
-3.12382
-3.20111
-3.31041
-3.44003
-3.58562
-3.74222
-3.90469
-4.06919
-4.2329
-4.39366
-4.54987
-4.70043
-4.84461
-4.98197
-5.11231
-5.23557
-5.35182
-5.46121
-5.56398
-5.66035
-5.75062
-5.83507
-5.914
-5.98769
-6.05644
-6.12053
-6.18026
-6.23589
-6.28772
-6.33603
-6.38112
-6.42324
-3.02996
-3.05875
-3.13702
-3.2479
-3.37973
-3.52815
-3.68811
-3.8543
-4.02267
-4.19022
-4.35465
-4.51422
-4.66773
-4.8144
-4.95377
-5.08562
-5.20989
-5.32669
-5.43621
-5.53868
-5.63441
-5.72372
-5.80694
-5.88441
-5.95646
-6.02342
-6.08563
-6.1434
-6.19705
-6.24688
-6.2932
-6.33631
-6.37645
-2.94363
-2.9735
-3.0547
-3.1696
-3.30599
-3.45937
-3.62449
-3.79584
-3.96921
-4.1415
-4.31027
-4.47372
-4.63059
-4.78006
-4.92166
-5.05516
-5.18055
-5.29795
-5.40758
-5.50973
-5.60475
-5.693
-5.77487
-5.85074
-5.92099
-5.986
-6.04614
-6.10176
-6.15321
-6.20084
-6.24498
-6.28598
-6.32411
-2.83399
-2.86595
-2.95281
-3.07544
-3.22054
-3.38322
-3.5578
-3.73828
-3.92016
-4.10015
-4.27569
-4.44495
-4.60665
-4.76003
-4.90465
-5.04036
-5.16722
-5.2854
-5.39523
-5.49705
-5.59128
-5.67835
-5.7587
-5.83278
-5.901
-5.96381
-6.02159
-6.07474
-6.12364
-6.16866
-6.21012
-6.24836
-6.28363
-2.69754
-2.73232
-2.82689
-2.95945
-3.11498
-3.28829
-3.47343
-3.66406
-3.85542
-4.04407
-4.22735
-4.40333
-4.57073
-4.72877
-4.87707
-5.01552
-5.14425
-5.26353
-5.37374
-5.47534
-5.56881
-5.65466
-5.73341
-5.80556
-5.8716
-5.93201
-5.98723
-6.03771
-6.08386
-6.12608
-6.16475
-6.20026
-6.2329
-2.53019
-2.57021
-2.67832
-2.82856
-3.00288
-3.19501
-3.39806
-3.60488
-3.81043
-4.01123
-4.20471
-4.38906
-4.56317
-4.72643
-4.87862
-5.0198
-5.15023
-5.27033
-5.38058
-5.48156
-5.57385
-5.65804
-5.73471
-5.80444
-5.86778
-5.92525
-5.97734
-6.02454
-6.06727
-6.10597
-6.14099
-6.17271
-6.2014
-2.3246
-2.36929
-2.49121
-2.65844
-2.85017
-3.06047
-3.28201
-3.50665
-3.72873
-3.94445
-4.151
-4.34646
-4.52974
-4.70032
-4.85813
-5.00338
-5.13653
-5.25817
-5.36896
-5.46961
-5.56087
-5.64343
-5.718
-5.78524
-5.84578
-5.9002
-5.94906
-5.99287
-6.03213
-6.06731
-6.09882
-6.12712
-6.15254
-2.07565
-2.13487
-2.28928
-2.49416
-2.7212
-2.96339
-3.21273
-3.46071
-3.70212
-3.93375
-4.1532
-4.35895
-4.55027
-4.72696
-4.88916
-5.03734
-5.17212
-5.29426
-5.4046
-5.50397
-5.59322
-5.6732
-5.74468
-5.80841
-5.86509
-5.91537
-5.95985
-5.9991
-6.03362
-6.0639
-6.09038
-6.11347
-6.1335
-1.76136
-1.82298
-1.99723
-2.22852
-2.48584
-2.76263
-3.04737
-3.3284
-3.59936
-3.85657
-4.09738
-4.32041
-4.52525
-4.71216
-4.88175
-5.03492
-5.17272
-5.29627
-5.4067
-5.50513
-5.59262
-5.67018
-5.73875
-5.79917
-5.85223
-5.89865
-5.93907
-5.97411
-6.00431
-6.03023
-6.05235
-6.07124
-6.0873
-1.392
-1.5087
-1.76811
-2.07014
-2.37805
-2.69483
-3.01184
-3.31861
-3.61071
-3.88556
-4.14099
-4.37592
-4.5902
-4.78424
-4.9588
-5.11498
-5.25403
-5.37726
-5.48604
-5.58168
-5.66546
-5.73854
-5.80201
-5.85687
-5.904
-5.9442
-5.97817
-6.00655
-6.02993
-6.04885
-6.06382
-6.07537
-6.08405
-0.855435
-0.945935
-1.24273
-1.61212
-2.00041
-2.40025
-2.79119
-3.15951
-3.50167
-3.81584
-4.101
-4.35776
-4.58759
-4.79225
-4.97365
-5.13376
-5.27455
-5.39788
-5.5055
-5.59905
-5.68002
-5.74978
-5.80953
-5.86036
-5.90322
-5.93894
-5.96824
-5.99174
-6.00999
-6.02355
-6.03295
-6.03892
-6.04218
-0.353152
-0.674863
-1.14082
-1.55692
-1.96377
-2.38872
-2.80362
-3.19511
-3.56171
-3.89982
-4.20651
-4.48144
-4.72551
-4.94029
-5.12785
-5.29054
-5.43081
-5.55105
-5.65352
-5.74032
-5.81337
-5.87436
-5.9248
-5.96599
-5.99904
-6.02488
-6.04427
-6.0578
-6.06592
-6.06902
-6.06726
-6.06148
-6.05157
0.955239
0.634572
-0.136317
-0.832956
-1.46579
-2.06796
-2.60756
-3.08455
-3.50941
-3.88607
-4.21804
-4.50972
-4.76502
-4.98739
-5.17998
-5.34576
-5.48749
-5.60777
-5.70903
-5.79354
-5.86333
-5.92027
-5.96601
-6.00196
-6.02937
-6.0492
-6.06223
-6.06893
-6.06946
-6.06387
-6.05116
-6.03253
-6.00267
0.972182
0.228453
-0.372572
-0.834848
-1.42947
-2.05698
-2.64094
-3.18408
-3.68029
-4.11918
-4.49994
-4.82618
-5.10217
-5.33287
-5.52366
-5.67982
-5.80625
-5.90739
-5.98718
-6.04904
-6.09593
-6.13037
-6.15449
-6.1701
-6.17868
-6.18141
-6.17919
-6.17248
-6.16128
-6.14468
-6.12014
-6.08414
-6.02397
7.23084
2.62363
0.843258
-0.00241287
-0.998853
-1.86849
-2.56217
-3.16298
-3.68739
-4.13596
-4.51782
-4.84132
-5.11294
-5.33898
-5.52545
-5.67783
-5.80102
-5.89942
-5.97689
-6.03677
-6.08198
-6.11498
-6.13792
-6.15256
-6.16046
-6.16283
-6.16084
-6.15514
-6.14696
-6.13563
-6.12426
-6.10695
-6.0965
-7.90812
-8.70823
-9.81586
-10.5468
-10.9786
-11.0026
-10.3877
-8.92104
-6.56263
-3.60261
-0.676368
1.49261
2.37768
1.46663
-1.29959
-5.61166
-11.0873
-17.224
-23.4431
-29.1932
-34.0158
-37.5436
-39.5854
-40.1286
-39.3234
-37.339
-34.2906
-30.3317
-25.7538
-20.9403
-16.2349
-11.8571
-7.92278
-4.48911
-1.56907
0.8605
2.84516
4.4396
5.69943
6.67702
7.41966
7.9689
8.36068
8.62561
8.78951
8.87386
8.89617
8.87033
8.80673
8.71218
8.5912
8.44467
8.26915
8.05034
7.74256
7.28463
6.63511
5.76259
4.58072
2.90213
0.450967
-3.12761
-8.30051
-15.6223
-25.4827
-37.5198
-50.025
-60.4298
-66.1908
-65.9611
-59.1537
-46.9354
-32.2492
-18.9788
-9.40658
-3.20739
1.03221
4.25286
6.56934
7.92529
8.55315
8.78816
8.85847
8.86335
8.83913
8.80272
8.76379
8.72991
8.70609
8.69785
8.70641
8.73345
8.77273
8.80538
8.81696
8.69355
8.38631
7.25877
5.05076
0.606441
-8.1526
-8.77425
-9.74306
-10.4301
-10.7976
-10.7506
-10.086
-8.62676
-6.35672
-3.55454
-0.809564
1.15653
1.81557
0.897266
-1.7085
-5.8152
-10.9612
-16.6347
-22.348
-27.6382
-32.1017
-35.4209
-37.4317
-38.0881
-37.4294
-35.5239
-32.5019
-28.6091
-24.2165
-19.7084
-15.3555
-11.3015
-7.62997
-4.3941
-1.61429
0.721686
2.64849
4.21143
5.45859
6.43663
7.18853
7.75276
8.16295
8.44812
8.63296
8.73817
8.78071
8.77417
8.72887
8.65157
8.54676
8.41543
8.25419
8.05116
7.7628
7.32436
6.69003
5.82815
4.6568
2.99142
0.552256
-3.02281
-8.20578
-15.5458
-25.3995
-37.3395
-49.6161
-59.7159
-65.2023
-64.8937
-58.1261
-46.0721
-31.7043
-18.8739
-9.73177
-3.83944
0.253438
3.49488
5.95784
7.48606
8.24374
8.55998
8.68189
8.72209
8.72299
8.70453
8.67819
8.65273
8.63381
8.62735
8.63437
8.65727
8.68727
8.71062
8.69901
8.5724
8.21824
7.19591
4.89706
1.10277
-8.14325
-8.75142
-9.59086
-10.1898
-10.4691
-10.3478
-9.65443
-8.25622
-6.17758
-3.68978
-1.30394
0.390323
0.94805
0.0278832
-2.45564
-6.27766
-11.051
-16.3032
-21.5604
-26.4095
-30.5222
-33.6428
-35.5743
-36.1808
-35.454
-33.4864
-30.4757
-26.7375
-22.6468
-18.5142
-14.5225
-10.7745
-7.3468
-4.29682
-1.65196
0.591643
2.45978
3.98954
5.22214
6.19882
6.95845
7.53639
7.96403
8.26874
8.47404
8.5998
8.66243
8.67514
8.64813
8.58817
8.49967
8.38363
8.23674
8.04879
7.77951
7.36233
6.74694
5.89955
4.74165
3.09281
0.671671
-2.88915
-8.06363
-15.3895
-25.1844
-36.9592
-48.9431
-58.6959
-63.9019
-63.506
-56.7958
-44.948
-30.9617
-18.6272
-9.94628
-4.38062
-0.46239
2.76265
5.34438
7.03629
7.92539
8.32528
8.50037
8.57685
8.60342
8.6032
8.5896
8.57261
8.55856
8.55382
8.55912
8.57767
8.59806
8.61201
8.57676
8.44708
8.04313
7.12754
4.72404
1.60531
-8.19799
-8.70048
-9.34918
-9.82133
-10.0054
-9.82321
-9.14555
-7.88721
-6.09651
-4.00942
-2.03751
-0.649259
-0.257766
-1.13138
-3.38226
-6.86099
-11.2273
-16.0468
-20.8811
-25.3414
-29.1269
-31.9626
-33.6281
-34.0113
-33.1388
-31.1464
-28.2797
-24.8487
-21.1494
-17.4005
-13.7414
-10.2706
-7.06849
-4.19518
-1.68137
0.47082
2.27956
3.77456
4.99074
5.96424
6.72998
7.3203
7.76433
8.08779
8.31298
8.45891
8.54141
8.5733
8.56456
8.52199
8.44992
8.34927
8.21687
8.04383
7.79419
7.40084
6.8083
5.97925
4.8381
3.21014
0.814763
-2.71826
-7.86113
-15.134
-24.8123
-36.3533
-47.9881
-57.3641
-62.2924
-61.802
-55.1687
-43.5716
-30.0274
-18.2352
-10.0335
-4.80358
-1.08426
2.08186
4.74393
6.58227
7.60077
8.08536
8.31463
8.42808
8.48077
8.49904
8.49834
8.48987
8.48064
8.47746
8.48083
8.49478
8.50526
8.50973
8.45062
8.31842
7.86307
7.05527
4.53826
2.1123
-8.15089
-8.53583
-9.01196
-9.35746
-9.45618
-9.24068
-8.62392
-7.55749
-6.09835
-4.4431
-2.91312
-1.8776
-1.63049
-2.44165
-4.40042
-7.43103
-11.2848
-15.5959
-19.9589
-23.9962
-27.3756
-29.8291
-31.2047
-31.4211
-30.527
-28.6843
-26.1193
-23.0714
-19.7597
-16.3592
-13.0006
-9.78527
-6.7953
-4.09041
-1.7033
0.358881
2.10779
3.56664
4.76465
5.7332
6.50344
7.10476
7.56407
7.90542
8.14987
8.31553
8.41762
8.46852
8.47796
8.45276
8.3972
8.31206
8.19431
8.03602
7.8063
7.43919
6.87375
6.06773
4.94782
3.34638
0.986254
-2.50294
-7.58798
-14.7667
-24.2712
-35.5152
-46.7517
-55.7244
-60.3749
-59.7836
-53.246
-41.9465
-28.9045
-17.6971
-9.9859
-5.09435
-1.59299
1.47255
4.1713
6.13183
7.27338
7.84188
8.12554
8.27627
8.35526
8.39213
8.40436
8.40438
8.39987
8.39814
8.39938
8.40853
8.40881
8.40368
8.32058
8.18632
7.67862
6.97865
4.3418
2.61363
-8.0787
-8.37719
-8.71968
-8.95891
-8.99505
-8.77118
-8.22896
-7.34306
-6.16976
-4.86973
-3.6951
-2.94269
-2.86077
-3.63738
-5.34708
-7.942
-11.2407
-14.9573
-18.7506
-22.2711
-25.2004
-27.3343
-28.5236
-28.7133
-27.9536
-26.3727
-24.141
-21.4474
-18.4747
-15.3816
-12.2956
-9.31732
-6.52692
-3.98246
-1.7178
0.255846
1.94464
3.3661
4.54427
5.50614
6.27924
6.89016
7.36358
7.72189
7.98489
8.16977
8.29109
8.36079
8.38832
8.38043
8.34141
8.2719
8.16895
8.02526
7.81519
7.47598
6.94172
6.16395
5.07038
3.50148
1.18647
-2.24201
-7.24171
-14.2841
-23.5582
-34.4445
-45.2365
-53.7816
-58.1535
-57.4599
-51.0395
-40.0878
-27.6083
-17.0219
-9.80399
-5.2453
-1.97382
0.952778
3.64132
5.69304
6.94655
7.59652
7.93406
8.12199
8.2273
8.2828
8.30796
8.31639
8.31647
8.31599
8.31486
8.31894
8.30874
8.29385
8.18668
8.05055
7.48974
6.89589
4.13504
3.09556
-7.98314
-8.2156
-8.46204
-8.62409
-8.62048
-8.40265
-7.93165
-7.19811
-6.25615
-5.23868
-4.34637
-3.81389
-3.84098
-4.57864
-6.09054
-8.33206
-11.1529
-14.3218
-17.5602
-20.5819
-23.1314
-25.0132
-26.0863
-26.2978
-25.6747
-24.314
-22.3548
-19.9555
-17.2752
-14.4579
-11.6228
-8.86606
-6.2637
-3.8719
-1.72536
0.161462
1.79008
3.17309
4.32989
5.28338
6.05775
6.67681
7.16313
7.53741
7.81819
8.02171
8.16185
8.25008
8.29551
8.30482
8.2823
8.22852
8.14057
8.01148
7.82058
7.51034
7.01102
6.26705
5.20557
3.67563
1.41586
-1.93445
-6.82031
-13.6835
-22.671
-33.142
-43.4473
-51.5447
-55.6376
-54.8443
-48.5669
-38.0175
-26.1614
-16.2266
-9.49754
-5.25903
-2.22131
0.534591
3.16673
5.27436
6.62414
7.35112
7.74123
7.96586
8.09729
8.1713
8.20924
8.22592
8.2304
8.23098
8.22726
8.22601
8.20508
8.18024
8.04903
7.91107
7.29698
6.80586
3.92021
3.54541
-7.87752
-8.06225
-8.24144
-8.34796
-8.31906
-8.11583
-7.71365
-7.11381
-6.3665
-5.58123
-4.91768
-4.56037
-4.67075
-5.37077
-6.71047
-8.65296
-11.0759
-13.7896
-16.5648
-19.1692
-21.3836
-23.0246
-23.9687
-24.1671
-23.6361
-22.4489
-20.7164
-18.5714
-16.1517
-13.5856
-10.9823
-8.43162
-6.00584
-3.75907
-1.7263
0.0755187
1.6441
2.98776
4.12175
5.06527
5.8393
6.46506
6.96302
7.35223
7.64995
7.87147
8.02995
8.13637
8.1995
8.22586
8.21975
8.18176
8.10899
7.99461
7.8222
7.54127
7.0802
6.37584
5.35304
3.86915
1.67514
-1.57907
-6.32191
-12.9629
-21.6101
-31.6126
-41.3945
-49.0279
-52.8423
-51.9574
-45.8551
-35.7677
-24.596
-15.3369
-9.0845
-5.14638
-2.33776
0.224465
2.75772
4.88423
6.31069
7.10788
7.54824
7.80867
7.96578
8.05802
8.1085
8.13322
8.14187
8.14324
8.13666
8.12981
8.0979
8.06288
7.9078
7.76783
7.10103
6.70764
3.70034
3.95086
-7.76814
-7.91537
-8.04542
-8.11229
-8.06961
-7.88744
-7.5508
-7.06736
-6.48255
-5.88662
-5.40709
-5.18953
-5.36389
-6.02625
-7.21606
-8.90337
-10.9889
-13.3173
-15.6988
-17.934
-19.8365
-21.2532
-22.0767
-22.2564
-21.7963
-20.7508
-19.2107
-17.2879
-15.1012
-12.7631
-10.3727
-8.01356
-5.75355
-3.64446
-1.72113
-0.00232255
1.50655
2.81016
3.92006
4.85207
5.62421
6.25522
6.76353
7.16658
7.48035
7.71916
7.89545
8.01968
8.10023
8.14344
8.15359
8.13139
8.07396
7.97452
7.81988
7.56779
7.14743
6.48849
5.51172
4.08176
1.96427
-1.17589
-5.74675
-12.124
-20.3806
-29.8673
-39.0944
-46.2512
-49.7893
-48.8273
-42.9401
-33.3804
-22.9521
-14.3848
-8.5894
-4.92511
-2.33257
0.0229596
2.42125
4.53032
6.01106
6.86939
7.35659
7.65133
7.83336
7.94333
8.00598
8.03841
8.05095
8.05283
8.04311
8.03038
7.98728
7.94182
7.76316
7.6208
6.90267
6.60033
3.47875
4.30029
-7.65776
-7.77672
-7.87281
-7.91409
-7.86711
-7.70978
-7.43406
-7.05139
-6.60239
-6.16127
-5.82982
-5.72266
-5.94286
-6.56594
-7.62296
-9.08903
-10.883
-12.8774
-14.9145
-16.8273
-18.4603
-19.6799
-20.3889
-20.5387
-20.1283
-19.1993
-17.8249
-16.0979
-14.1193
-11.988
-9.7932
-7.61181
-5.50723
-3.52865
-1.71037
-0.0724343
1.37726
2.64029
3.72496
4.64403
5.41277
6.04759
6.56495
6.98071
7.3096
7.56495
7.75845
7.90002
7.99768
8.05752
8.08374
8.07726
8.03528
7.95107
7.81359
7.58909
7.21078
6.60257
5.67981
4.31248
2.28242
-0.726296
-5.09739
-11.1718
-18.9923
-27.9225
-36.5692
-43.2407
-46.508
-45.4917
-39.8681
-30.907
-21.2765
-13.4069
-8.04086
-4.6174
-2.22012
-0.0741724
2.16114
4.21875
5.72967
6.63817
7.1678
7.49481
7.70069
7.82771
7.90205
7.9418
7.95785
7.95991
7.94674
7.92781
7.87334
7.81715
7.61535
7.46998
6.70286
6.48323
3.25923
4.58407
-7.55102
-7.64854
-7.72113
-7.74649
-7.70124
-7.57001
-7.34967
-7.05343
-6.71697
-6.40114
-6.18706
-6.16489
-6.41611
-6.99974
-7.93935
-9.21365
-10.7561
-12.462
-14.2008
-15.8334
-17.2267
-18.2659
-18.8671
-18.9849
-18.6135
-17.7828
-16.551
-14.9955
-13.2025
-11.2584
-9.243
-7.22636
-5.26729
-3.41224
-1.69462
-0.135269
1.25597
2.47807
3.53652
4.44132
5.20523
5.84244
6.36755
6.79487
7.13791
7.40899
7.61905
7.77746
7.89185
7.96805
8.0101
8.01921
7.99274
7.92406
7.80335
7.60463
7.2683
6.71516
5.85459
4.55953
2.62802
-0.232809
-4.37848
-10.115
-17.4597
-25.8
-33.8475
-40.0297
-43.0364
-41.9977
-36.6959
-28.4069
-19.6198
-12.4413
-7.46888
-4.24755
-2.01795
-0.0748746
1.97824
3.95398
5.4704
6.41669
6.98343
7.34017
7.56848
7.71167
7.79705
7.8436
7.86275
7.86461
7.84765
7.82221
7.75621
7.68897
7.46464
7.31542
6.50262
6.35597
3.04575
4.79558
-7.44791
-7.52969
-7.58691
-7.60409
-7.56534
-7.46065
-7.2902
-7.06768
-6.82411
-6.60923
-6.48763
-6.53001
-6.80032
-7.34394
-8.17847
-9.2855
-10.6102
-12.0665
-13.5464
-14.9338
-16.1162
-16.9954
-17.4982
-17.5822
-17.2384
-16.4885
-15.3792
-13.9744
-12.3473
-10.5726
-8.72147
-6.85728
-5.03423
-3.29588
-1.67452
-0.191334
1.14235
2.32337
3.35477
4.2441
5.00181
5.64002
6.17159
6.60931
6.96549
7.25145
7.47739
7.65209
7.78279
7.87503
7.93268
7.95717
7.94617
7.89326
7.78919
7.61419
7.31824
6.82285
6.03226
4.81992
2.99854
0.300827
-3.59682
-8.96535
-15.8021
-23.5277
-30.9646
-36.659
-39.4215
-38.4031
-33.4902
-25.9457
-18.033
-11.5236
-6.90217
-3.8401
-1.7452
0.0103625
1.8708
3.73862
5.23644
6.20722
6.80504
7.18849
7.43751
7.59578
7.69142
7.74418
7.76592
7.76712
7.74602
7.7137
7.63605
7.55742
7.3113
7.15719
6.30301
6.21842
2.84217
4.93206
-7.35066
-7.42122
-7.46895
-7.48325
-7.45372
-7.37447
-7.24791
-7.0874
-6.91962
-6.78507
-6.73501
-6.82468
-7.10378
-7.60758
-8.34786
-9.30881
-10.445
-11.6853
-12.9409
-14.1147
-15.1117
-15.8483
-16.2606
-16.3105
-15.987
-15.3052
-14.3019
-13.0297
-11.5505
-9.929
-8.22801
-6.50466
-4.80854
-3.18027
-1.65076
-0.241197
1.03602
2.17598
3.17966
4.05244
4.80267
5.44057
5.97732
6.42429
6.79257
7.09255
7.33364
7.52404
7.67057
7.77851
7.85148
7.89109
7.89544
7.85843
7.77112
7.6179
7.35931
6.92211
6.2079
5.0891
3.39002
0.869507
-2.76129
-7.73822
-14.0434
-21.1393
-27.9628
-33.179
-35.7202
-34.7755
-30.3256
-23.5913
-16.5625
-10.6842
-6.36597
-3.41877
-1.42197
0.168901
1.8348
3.57353
5.03007
6.01172
6.63411
7.04088
7.3086
7.48063
7.58561
7.64385
7.6676
7.66766
7.64202
7.60245
7.51306
7.42268
7.15568
6.99546
6.10503
6.07082
2.65174
4.99545
-7.25866
-7.32153
-7.36407
-7.37921
-7.36053
-7.30514
-7.21683
-7.10814
-7.00174
-6.9305
-6.93497
-7.05817
-7.33848
-7.80229
-8.45781
-9.29075
-10.2633
-11.3169
-12.3781
-13.3658
-14.2003
-14.8106
-15.1414
-15.1581
-14.849
-14.2239
-13.3119
-12.1563
-10.809
-9.32591
-7.76206
-6.16864
-4.59078
-3.06613
-1.62406
-0.285481
0.93651
2.03562
3.01109
3.86637
4.60795
5.24429
5.78498
6.24004
6.6194
6.93251
7.18799
7.39346
7.55531
7.67856
7.76657
7.82102
7.8405
7.8194
7.749
7.61613
7.39094
7.00971
6.37567
5.36053
3.79655
1.46651
-1.88263
-6.45179
-12.2119
-18.6737
-24.8908
-29.6499
-31.9988
-31.1917
-27.2823
-21.4084
-15.2463
-9.94537
-5.88083
-3.00604
-1.06923
0.385892
1.86362
3.45755
4.85249
5.83175
6.472
6.89845
7.18261
7.3669
7.48013
7.54303
7.56813
7.56647
7.53586
7.48863
7.38742
7.28492
6.9981
6.83043
5.90953
5.9138
2.47674
4.99244
-7.17266
-7.2306
-7.27101
-7.28936
-7.28206
-7.24832
-7.19269
-7.12658
-7.06912
-7.04684
-7.09169
-7.23699
-7.51202
-7.93644
-8.5153
-9.23578
-10.0663
-10.9583
-11.8511
-12.6773
-13.37
-13.8689
-14.1264
-14.1117
-13.8126
-13.2354
-12.4027
-11.3497
-10.1201
-8.76188
-7.32309
-5.84934
-4.38147
-2.95419
-1.59519
-0.32486
0.843305
1.90196
2.84887
3.68587
4.41773
5.05134
5.59479
6.05682
6.44624
6.77156
7.04067
7.26057
7.43721
7.57532
7.67805
7.74706
7.78137
7.77604
7.72268
7.60932
7.41338
7.08335
6.52946
5.62558
4.2094
2.08282
-0.973362
-5.12631
-10.3387
-16.1743
-21.8028
-26.1374
-28.3326
-27.7347
-24.4405
-19.452
-14.1097
-9.32098
-5.46264
-2.62342
-0.709286
0.643782
1.94775
3.3874
4.70371
5.66839
6.31992
6.76226
7.06041
7.25526
7.37553
7.44214
7.46784
7.46383
7.42778
7.37247
7.25939
7.14439
6.83891
6.66237
5.71722
5.74833
2.31832
4.93348
-7.09179
-7.14683
-7.18714
-7.21005
-7.21392
-7.19936
-7.17122
-7.13968
-7.12069
-7.13557
-7.20936
-7.3677
-7.6327
-8.01868
-8.52824
-9.14982
-9.85683
-10.6091
-11.3563
-12.0425
-12.6116
-13.0127
-13.205
-13.1611
-12.869
-12.3322
-11.5682
-10.6056
-9.4811
-8.23543
-6.91058
-5.54689
-4.18117
-2.84521
-1.56494
-0.360057
0.755823
1.77457
2.69278
3.51084
4.23206
4.86185
5.40695
5.87487
6.27335
6.60999
6.89194
7.1256
7.31648
7.469
7.5861
7.66941
7.7182
7.72835
7.69198
7.59776
7.42761
7.14219
6.66395
5.87411
4.61624
2.70584
-0.0483896
-3.78348
-8.45637
-13.6864
-18.7551
-22.7059
-24.8017
-24.4895
-21.8738
-17.7608
-13.1643
-8.81757
-5.12418
-2.29195
-0.366015
0.921884
2.07429
3.35751
4.58243
5.5221
6.17887
6.63334
6.94288
7.14646
7.27239
7.34165
7.3671
7.36004
7.31804
7.25417
7.12919
7.00131
6.67847
6.49161
5.52861
5.57565
2.17653
4.8308
-7.01613
-7.06974
-7.11126
-7.13933
-7.15362
-7.15562
-7.15013
-7.14608
-7.15665
-7.19887
-7.29223
-7.45631
-7.70759
-8.0562
-8.50295
-9.03731
-9.63685
-10.2682
-10.8896
-11.4546
-11.9165
-12.2322
-12.3669
-12.2964
-12.0092
-11.5069
-10.8028
-9.92011
-8.8893
-7.74515
-6.524
-5.26144
-3.99042
-2.73995
-1.53415
-0.391841
0.673422
1.65299
2.54249
3.34113
4.05092
4.67592
5.22163
5.69442
6.10099
6.44808
6.7421
6.98886
7.19341
7.35986
7.49095
7.58827
7.65124
7.67645
7.65683
7.58157
7.43491
7.18711
6.77596
6.09611
5.00128
3.31761
0.873114
-2.44679
-6.59722
-11.2536
-15.7988
-19.4188
-21.4855
-21.5383
-19.6392
-16.3512
-12.4095
-8.43796
-4.87755
-2.03262
-0.0645998
1.19659
2.22648
3.35964
4.48598
5.39278
6.04958
6.51262
6.83092
7.04125
7.17135
7.24208
7.26633
7.25545
7.20694
7.13402
6.99712
6.85597
6.51715
6.31854
5.34411
5.39711
2.05082
4.6959
-6.94461
-6.99774
-7.04115
-7.07438
-7.09795
-7.11384
-7.12661
-7.14392
-7.17659
-7.23811
-7.34357
-7.50773
-7.74272
-8.05542
-8.44528
-8.90275
-9.40877
-9.93555
-10.4485
-10.909
-11.2781
-11.5196
-11.6037
-11.5094
-11.2259
-10.7532
-10.1015
-9.28939
-8.3423
-7.28966
-6.16285
-4.99309
-3.80976
-2.63918
-1.50365
-0.421025
0.595401
1.53665
2.39763
3.17653
3.87423
4.4936
5.039
5.51569
5.92945
6.28615
6.59149
6.8507
7.06836
7.24825
7.39294
7.50396
7.58084
7.62068
7.61735
7.56076
7.43637
7.22041
6.86544
6.28435
5.34744
3.89387
1.76407
-1.14496
-4.79439
-8.91538
-12.9807
-16.3404
-18.4644
-18.9535
-17.7652
-15.2169
-11.8376
-8.18599
-4.73647
-1.86623
0.169511
1.44234
2.38411
3.38302
4.41044
5.27973
5.93257
6.40094
6.72537
6.94038
7.07304
7.14394
7.16596
7.15038
7.09475
7.01225
6.86344
6.70865
6.35531
6.14356
5.16401
5.21395
1.94046
4.53772
-6.8773
-6.93053
-6.97606
-7.01407
-7.04557
-7.07275
-7.09978
-7.13316
-7.18167
-7.25592
-7.36746
-7.52733
-7.74421
-8.02255
-8.36083
-8.75034
-9.17489
-9.61124
-10.0307
-10.4012
-10.6903
-10.8676
-10.9078
-10.7926
-10.512
-10.065
-9.45933
-8.70993
-7.83773
-6.86764
-5.82662
-4.74195
-3.63973
-2.54368
-1.47433
-0.44847
0.520997
1.42495
2.25775
3.01676
3.70186
4.3149
4.85916
5.33891
5.75902
6.12454
6.44048
6.7115
6.94172
7.13459
7.29246
7.41684
7.50735
7.56146
7.57386
7.53547
7.43264
7.24484
6.93556
6.43697
5.64134
4.40724
2.58699
0.0800833
-3.09226
-6.71766
-10.3665
-13.5537
-15.8232
-16.7798
-16.2444
-14.3358
-11.4411
-8.07078
-4.71762
-1.8129
0.312037
1.63321
2.5251
3.41497
4.3508
5.18176
5.82807
6.29904
6.62707
6.84466
6.97816
7.04784
7.06648
7.04527
6.98185
6.88921
6.72848
6.55969
6.19335
5.96717
4.98864
5.02732
1.84476
4.3623
-6.81275
-6.8663
-6.91385
-6.95596
-6.99392
-7.02992
-7.06767
-7.11261
-7.17179
-7.25347
-7.36641
-7.51871
-7.71645
-7.96222
-8.25382
-8.58336
-8.93699
-9.29527
-9.63434
-9.92764
-10.1481
-10.2702
-10.2726
-10.1393
-9.86134
-9.43709
-8.87213
-8.17849
-7.37341
-6.47782
-5.51483
-4.50815
-3.48086
-2.45425
-1.44709
-0.475078
0.449388
1.3172
2.12231
2.86145
3.53363
4.13977
4.6822
5.16428
5.58999
5.96362
6.2895
6.57173
6.814
7.01939
7.19006
7.32745
7.4313
7.49936
7.52698
7.50612
7.4242
7.26256
6.99134
6.55843
5.87902
4.83632
3.30005
1.16978
-1.56041
-4.74266
-8.06483
-11.1632
-13.6204
-15.0101
-15.0373
-13.6815
-11.2207
-8.1088
-4.84111
-1.89245
0.34075
1.74476
2.62846
3.44206
4.30144
5.09737
5.73617
6.20753
6.53681
6.75484
6.88736
6.95429
6.9683
6.94044
6.86851
6.76512
6.59249
6.40936
6.03161
5.78978
4.81827
4.83825
1.76295
4.17376
-6.75162
-6.80549
-6.85471
-6.90006
-6.94295
-6.98544
-7.03076
-7.08341
-7.14897
-7.23381
-7.34447
-7.48678
-7.66482
-7.87982
-8.12915
-8.40568
-8.69752
-8.98837
-9.25839
-9.48551
-9.64719
-9.72216
-9.69222
-9.54369
-9.26845
-8.86449
-8.33583
-7.69203
-6.94723
-6.11899
-5.22699
-4.29179
-3.33367
-2.37167
-1.42286
-0.501804
0.379684
1.21262
1.99072
2.71016
3.36927
3.96812
4.50819
4.99197
5.42264
5.80375
6.13899
6.43189
6.68571
6.90321
7.0863
7.23635
7.35322
7.43494
7.47738
7.4734
7.41167
7.27504
7.03752
6.65746