/*--------------------------------*- C++ -*----------------------------------*\
| =========                 |                                                 |
| \\      /  F ield         | OpenFOAM: The Open Source CFD Toolbox           |
|  \\    /   O peration     | Version:  2.1.1                                 |
|   \\  /    A nd           | Web:      www.OpenFOAM.org                      |
|    \\/     M anipulation  |                                                 |
\*---------------------------------------------------------------------------*/
FoamFile
{
    version     2.0;
    format      ascii;
    class       surfaceScalarField;
    location    "0.195";
    object      phi;
}
// * * * * * * * * * * * * * * * * * * * * * * * * * * * * * * * * * * * * * //

dimensions      [0 3 -1 0 0 0 0];

internalField   nonuniform List<scalar> 
13452
(
4.59995e-05
2.24877e-05
2.96664e-05
1.63331e-05
2.11929e-05
8.47348e-06
1.72949e-05
3.89798e-06
1.56566e-05
1.63835e-06
1.48532e-05
8.03412e-07
1.43479e-05
5.05232e-07
1.3964e-05
3.83963e-07
1.36413e-05
3.22722e-07
1.33644e-05
2.7688e-07
1.31288e-05
2.35556e-07
1.29308e-05
1.98064e-07
1.2766e-05
1.64783e-07
1.26302e-05
1.35748e-07
1.25197e-05
1.1057e-07
1.2431e-05
8.86475e-08
1.23617e-05
6.9358e-08
1.23095e-05
5.21477e-08
1.22729e-05
3.65627e-08
1.22507e-05
2.2198e-08
1.22421e-05
8.61832e-09
1.22464e-05
-4.27505e-09
1.22627e-05
-1.6339e-08
1.2291e-05
-2.82406e-08
1.23308e-05
-3.98172e-08
1.2382e-05
-5.11733e-08
1.24446e-05
-6.26108e-08
1.25178e-05
-7.31944e-08
1.26029e-05
-8.51017e-08
1.26916e-05
-8.87464e-08
1.27976e-05
-1.0593e-07
1.28327e-05
-3.51074e-08
-2.07095e-07
1.30398e-05
7.49135e-05
1.80182e-05
7.04161e-05
2.08306e-05
6.33317e-05
1.55578e-05
5.66845e-05
1.05453e-05
5.15773e-05
6.74549e-06
4.79331e-05
4.4476e-06
4.53261e-05
3.11229e-06
4.34142e-05
2.2958e-06
4.19647e-05
1.77225e-06
4.08278e-05
1.41374e-06
3.99116e-05
1.15183e-06
3.91582e-05
9.51478e-07
3.853e-05
7.92982e-07
3.80014e-05
6.64289e-07
3.75545e-05
5.57491e-07
3.7176e-05
4.67113e-07
3.68562e-05
3.89228e-07
3.65873e-05
3.20961e-07
3.63637e-05
2.60166e-07
3.61807e-05
2.05195e-07
3.60346e-05
1.54767e-07
3.59223e-05
1.08005e-07
3.58418e-05
6.41366e-08
3.57914e-05
2.223e-08
3.57695e-05
-1.79531e-08
3.5775e-05
-5.66352e-08
3.58067e-05
-9.43106e-08
3.58639e-05
-1.30417e-07
3.59455e-05
-1.66673e-07
3.60533e-05
-1.96632e-07
3.6183e-05
-2.3563e-07
3.63887e-05
-2.40785e-07
-3.2477e-07
3.65064e-05
7.85212e-05
1.19535e-05
8.2336e-05
1.70157e-05
8.29972e-05
1.48967e-05
8.14876e-05
1.20548e-05
7.89736e-05
9.2595e-06
7.62986e-05
7.12257e-06
7.37941e-05
5.61681e-06
7.15633e-05
4.5266e-06
6.96195e-05
3.71602e-06
6.79384e-05
3.09485e-06
6.64869e-05
2.6034e-06
6.52331e-05
2.20527e-06
6.41489e-05
1.87714e-06
6.32104e-05
1.60284e-06
6.23973e-05
1.37057e-06
6.16929e-05
1.1715e-06
6.10832e-05
9.989e-07
6.05567e-05
8.4751e-07
6.01036e-05
7.13216e-07
5.97161e-05
5.92739e-07
5.93874e-05
4.83444e-07
5.91121e-05
3.83261e-07
5.88858e-05
2.9051e-07
5.87043e-05
2.0369e-07
5.85646e-05
1.21762e-07
5.84643e-05
4.36728e-08
5.84017e-05
-3.1729e-08
5.83756e-05
-1.04361e-07
5.8384e-05
-1.75066e-07
5.84276e-05
-2.40163e-07
5.84981e-05
-3.06178e-07
5.86099e-05
-3.52585e-07
-4.11948e-07
5.86971e-05
7.81468e-05
8.33331e-06
8.19233e-05
1.32392e-05
8.46196e-05
1.22004e-05
8.62432e-05
1.04312e-05
8.6924e-05
8.57872e-06
8.70152e-05
7.03138e-06
8.67596e-05
5.87241e-06
8.62998e-05
4.98644e-06
8.57274e-05
4.28838e-06
8.50985e-05
3.72379e-06
8.44477e-05
3.25414e-06
8.3798e-05
2.855e-06
8.3165e-05
2.51014e-06
8.25596e-05
2.20823e-06
8.19886e-05
1.94159e-06
8.14558e-05
1.70427e-06
8.09634e-05
1.49138e-06
8.05119e-05
1.29895e-06
8.01015e-05
1.12369e-06
7.97313e-05
9.62861e-07
7.94006e-05
8.14171e-07
7.91081e-05
6.75714e-07
7.88528e-05
5.45872e-07
7.86333e-05
4.23193e-07
7.84485e-05
3.06545e-07
7.82972e-05
1.95007e-07
7.81778e-05
8.76564e-08
7.80893e-05
-1.58656e-08
7.80311e-05
-1.16866e-07
7.8004e-05
-2.13109e-07
7.80052e-05
-3.07338e-07
7.80441e-05
-3.91505e-07
-4.74876e-07
7.8107e-05
7.89917e-05
5.99743e-06
8.15918e-05
1.06392e-05
8.35191e-05
1.02731e-05
8.49632e-05
8.98708e-06
8.59815e-05
7.56046e-06
8.67226e-05
6.29028e-06
8.7289e-05
5.30602e-06
8.77288e-05
4.54662e-06
8.80737e-05
3.94347e-06
8.8345e-05
3.45244e-06
8.85573e-05
3.04185e-06
8.8722e-05
2.69036e-06
8.88473e-05
2.38475e-06
8.89398e-05
2.11575e-06
8.90056e-05
1.87586e-06
8.90503e-05
1.65954e-06
8.9079e-05
1.46263e-06
8.90961e-05
1.28188e-06
8.91051e-05
1.11464e-06
8.91093e-05
9.58716e-07
8.91112e-05
8.12308e-07
8.9113e-05
6.73897e-07
8.91166e-05
5.42199e-07
8.91238e-05
4.16079e-07
8.91357e-05
2.94641e-07
8.91535e-05
1.77122e-07
8.91781e-05
6.31238e-08
8.92094e-05
-4.72179e-08
8.92474e-05
-1.54879e-07
8.9294e-05
-2.59706e-07
8.93502e-05
-3.63449e-07
8.9422e-05
-4.63396e-07
-5.65556e-07
8.95127e-05
8.04634e-05
4.37998e-06
8.25061e-05
8.59641e-06
8.3993e-05
8.78621e-06
8.50533e-05
7.92675e-06
8.57769e-05
6.83687e-06
8.62921e-05
5.77506e-06
8.67002e-05
4.89794e-06
8.70483e-05
4.19855e-06
8.73595e-05
3.6323e-06
8.76452e-05
3.1667e-06
8.79105e-05
2.77661e-06
8.81576e-05
2.44323e-06
8.83887e-05
2.1536e-06
8.86058e-05
1.89866e-06
8.881e-05
1.67172e-06
8.9002e-05
1.46755e-06
8.91826e-05
1.28204e-06
8.93525e-05
1.11195e-06
8.95125e-05
9.54635e-07
8.96633e-05
8.07934e-07
8.98055e-05
6.70056e-07
8.99399e-05
5.3951e-07
9.00671e-05
4.15032e-07
9.01876e-05
2.95537e-07
9.03022e-05
1.8011e-07
9.04112e-05
6.80363e-08
9.05157e-05
-4.13715e-08
9.06173e-05
-1.48785e-07
9.07176e-05
-2.55155e-07
9.08185e-05
-3.60622e-07
9.09219e-05
-4.66897e-07
9.10327e-05
-5.74148e-07
-6.88899e-07
9.1156e-05
8.22344e-05
3.24415e-06
8.38953e-05
6.9355e-06
8.51839e-05
7.49757e-06
8.61189e-05
6.9918e-06
8.67623e-05
6.19345e-06
8.72042e-05
5.33317e-06
8.75323e-05
4.56984e-06
8.77959e-05
3.93499e-06
8.80215e-05
3.40671e-06
8.82244e-05
2.96376e-06
8.84128e-05
2.58821e-06
8.85909e-05
2.26513e-06
8.87611e-05
1.98342e-06
8.89247e-05
1.73498e-06
8.90829e-05
1.51361e-06
8.9236e-05
1.31444e-06
8.93844e-05
1.13357e-06
8.95285e-05
9.67881e-07
8.96683e-05
8.14798e-07
8.98041e-05
6.72193e-07
8.99359e-05
5.38288e-07
9.00638e-05
4.11583e-07
9.0188e-05
2.90795e-07
9.03087e-05
1.74815e-07
9.04262e-05
6.26455e-08
9.05409e-05
-4.6629e-08
9.06534e-05
-1.53881e-07
9.07645e-05
-2.59859e-07
9.08748e-05
-3.65521e-07
9.09858e-05
-4.71624e-07
9.1099e-05
-5.80037e-07
9.12172e-05
-6.9239e-07
-8.14099e-07
9.13424e-05
8.42168e-05
2.44286e-06
8.55514e-05
5.60096e-06
8.66744e-05
6.37452e-06
8.75332e-05
6.13297e-06
8.81609e-05
5.56576e-06
8.86103e-05
4.88377e-06
8.89467e-05
4.23346e-06
8.92137e-05
3.668e-06
8.94369e-05
3.18352e-06
8.96323e-05
2.76835e-06
8.98094e-05
2.41106e-06
8.99739e-05
2.10069e-06
9.0129e-05
1.82827e-06
9.02771e-05
1.5869e-06
9.04196e-05
1.37112e-06
9.05575e-05
1.17653e-06
9.06915e-05
9.99536e-07
9.08222e-05
8.37198e-07
9.09499e-05
6.87077e-07
9.1075e-05
5.47135e-07
9.11976e-05
4.15649e-07
9.13181e-05
2.91152e-07
9.14365e-05
1.72382e-07
9.15531e-05
5.82162e-08
9.16681e-05
-5.2349e-08
9.17816e-05
-1.60206e-07
9.1894e-05
-2.66272e-07
9.20056e-05
-3.71458e-07
9.21169e-05
-4.76819e-07
9.22287e-05
-5.83433e-07
9.23419e-05
-6.93168e-07
9.24577e-05
-8.08206e-07
-9.3252e-07
9.25761e-05
8.63722e-05
1.86937e-06
8.7442e-05
4.53114e-06
8.84144e-05
5.40212e-06
8.91933e-05
5.35413e-06
8.97917e-05
4.96736e-06
9.02402e-05
4.43522e-06
9.05861e-05
3.88764e-06
9.08656e-05
3.38849e-06
9.11013e-05
2.9478e-06
9.13078e-05
2.56189e-06
9.14942e-05
2.22464e-06
9.16662e-05
1.92863e-06
9.18276e-05
1.66691e-06
9.19807e-05
1.4338e-06
9.21272e-05
1.22458e-06
9.22684e-05
1.03536e-06
9.24051e-05
8.62856e-07
9.25379e-05
7.04366e-07
9.26674e-05
5.57603e-07
9.27939e-05
4.20638e-07
9.29177e-05
2.91823e-07
9.30391e-05
1.69744e-07
9.31583e-05
5.31693e-08
9.32756e-05
-5.89935e-08
9.33909e-05
-1.67726e-07
9.35047e-05
-2.73948e-07
9.3617e-05
-3.78586e-07
9.37281e-05
-4.82577e-07
9.38383e-05
-5.86989e-07
9.39478e-05
-6.93007e-07
9.4057e-05
-8.02328e-07
9.41659e-05
-9.17054e-07
-1.03976e-06
9.42731e-05
8.86677e-05
1.45167e-06
8.95254e-05
3.6734e-06
9.03643e-05
4.56323e-06
9.10676e-05
4.65083e-06
9.16324e-05
4.40258e-06
9.20738e-05
3.9938e-06
9.24237e-05
3.53772e-06
9.27113e-05
3.10097e-06
9.29559e-05
2.7032e-06
9.31707e-05
2.34704e-06
9.33647e-05
2.03067e-06
9.35435e-05
1.7498e-06
9.3711e-05
1.49947e-06
9.38696e-05
1.27519e-06
9.40211e-05
1.07304e-06
9.41669e-05
8.89622e-07
9.43077e-05
7.2203e-07
9.44443e-05
5.6778e-07
9.45771e-05
4.24751e-07
9.47066e-05
2.91126e-07
9.48331e-05
1.6534e-07
9.49568e-05
4.60343e-08
9.5078e-05
-6.79821e-08
9.51967e-05
-1.77767e-07
9.53133e-05
-2.84283e-07
9.54278e-05
-3.88433e-07
9.55403e-05
-4.91116e-07
9.5651e-05
-5.93251e-07
9.57599e-05
-6.95848e-07
9.58669e-05
-8.00024e-07
9.59717e-05
-9.07175e-07
9.60737e-05
-1.01902e-06
-1.13701e-06
9.61709e-05
9.10814e-05
1.14153e-06
9.17712e-05
2.98367e-06
9.24939e-05
3.84051e-06
9.31282e-05
4.01647e-06
9.36584e-05
3.87241e-06
9.40887e-05
3.56354e-06
9.44391e-05
3.18734e-06
9.4732e-05
2.80807e-06
9.49839e-05
2.45129e-06
9.52064e-05
2.1245e-06
9.54078e-05
1.82932e-06
9.55934e-05
1.56413e-06
9.57672e-05
1.32576e-06
9.59315e-05
1.11087e-06
9.60882e-05
9.16309e-07
9.62386e-05
7.39183e-07
9.63837e-05
5.76936e-07
9.65242e-05
4.27324e-07
9.66605e-05
2.884e-07
9.67932e-05
1.58469e-07
9.69225e-05
3.60536e-08
9.70487e-05
-8.01374e-08
9.71719e-05
-1.91239e-07
9.72924e-05
-2.98266e-07
9.74103e-05
-4.02144e-07
9.75256e-05
-5.03738e-07
9.76384e-05
-6.03894e-07
9.77486e-05
-7.03454e-07
9.7856e-05
-8.03308e-07
9.79604e-05
-9.04402e-07
9.8061e-05
-1.00778e-06
9.81567e-05
-1.11468e-06
-1.2257e-06
9.82454e-05
9.35998e-05
9.06392e-07
9.41573e-05
2.42621e-06
9.47792e-05
3.21853e-06
9.53502e-05
3.44548e-06
9.58456e-05
3.37708e-06
9.62621e-05
3.14704e-06
9.66107e-05
2.83865e-06
9.69078e-05
2.51104e-06
9.71664e-05
2.19263e-06
9.73966e-05
1.89435e-06
9.76055e-05
1.62042e-06
9.77983e-05
1.37131e-06
9.79786e-05
1.14543e-06
9.8149e-05
9.40489e-07
9.83113e-05
7.54035e-07
9.84668e-05
5.83692e-07
9.86165e-05
4.27251e-07
9.87611e-05
2.82715e-07
9.89012e-05
1.48314e-07
9.90371e-05
2.248e-08
9.91694e-05
-9.61658e-08
9.92981e-05
-2.08836e-07
9.94234e-05
-3.16606e-07
9.95456e-05
-4.20434e-07
9.96647e-05
-5.21194e-07
9.97806e-05
-6.19689e-07
9.98934e-05
-7.16683e-07
0.000100003
-8.12917e-07
0.000100109
-9.09125e-07
0.00010021
-1.00604e-06
0.000100307
-1.10437e-06
0.000100397
-1.20488e-06
-1.3076e-06
0.000100479
9.62142e-05
7.24295e-07
9.6668e-05
1.97241e-06
9.72036e-05
2.68294e-06
9.77171e-05
2.93193e-06
9.81785e-05
2.91564e-06
9.85795e-05
2.74609e-06
9.89242e-05
2.49393e-06
9.92235e-05
2.21178e-06
9.94875e-05
1.92858e-06
9.97245e-05
1.65741e-06
9.99406e-05
1.40429e-06
0.000100141
1.17134e-06
0.000100328
9.58258e-07
0.000100505
7.63676e-07
0.000100673
5.85804e-07
0.000100834
4.22733e-07
0.000100988
2.72584e-07
0.000101138
1.33604e-07
0.000101282
4.1921e-09
0.000101421
-1.17085e-07
0.000101557
-2.31504e-07
0.000101688
-3.40196e-07
0.000101815
-4.44167e-07
0.000101939
-5.44312e-07
0.00010206
-6.41434e-07
0.000102176
-7.36263e-07
0.000102289
-8.29466e-07
0.000102398
-9.21663e-07
0.000102502
-1.01342e-06
0.000102601
-1.10526e-06
0.000102694
-1.19758e-06
0.00010278
-1.29076e-06
-1.38444e-06
0.000102857
9.89197e-05
5.80275e-07
9.92925e-05
1.59967e-06
9.97547e-05
2.22072e-06
0.000100217
2.47007e-06
0.000100646
2.48664e-06
0.00010103
2.36183e-06
0.000101369
2.15498e-06
0.000101669
1.91184e-06
0.000101937
1.66024e-06
0.00010218
1.4143e-06
0.000102403
1.18123e-06
0.00010261
9.64276e-07
0.000102804
7.64169e-07
0.000102988
5.80304e-07
0.000103162
4.1146e-07
0.000103329
2.56143e-07
0.000103488
1.12786e-07
0.000103642
-2.01423e-08
0.00010379
-1.44068e-07
0.000103934
-2.60296e-07
0.000104072
-3.69999e-07
0.000104206
-4.74225e-07
0.000104336
-5.73902e-07
0.000104462
-6.69853e-07
0.000104583
-7.62805e-07
0.0001047
-8.53404e-07
0.000104813
-9.42215e-07
0.000104921
-1.02973e-06
0.000105024
-1.11637e-06
0.000105121
-1.20243e-06
0.000105211
-1.28811e-06
0.000105294
-1.37347e-06
-1.45793e-06
0.000105368
0.000101714
4.64028e-07
0.000102023
1.29022e-06
0.000102424
1.82023e-06
0.00010284
2.05413e-06
0.000103239
2.08799e-06
0.000103606
1.9945e-06
0.000103938
1.82299e-06
0.000104237
1.61248e-06
0.000104509
1.38869e-06
0.000104757
1.16585e-06
0.000104987
9.5177e-07
0.000105201
7.50431e-07
0.000105401
5.633e-07
0.000105591
3.90383e-07
0.000105772
2.30929e-07
0.000105944
8.3805e-08
0.000106109
-5.22852e-08
0.000106268
-1.78663e-07
0.00010642
-2.96597e-07
0.000106567
-4.07267e-07
0.000106709
-5.11748e-07
0.000106846
-6.10998e-07
0.000106978
-7.0587e-07
0.000107105
-7.97109e-07
0.000107228
-8.85366e-07
0.000107345
-9.71196e-07
0.000107458
-1.05507e-06
0.000107566
-1.13735e-06
0.000107668
-1.21833e-06
0.000107764
-1.29815e-06
0.000107852
-1.37681e-06
0.000107933
-1.45418e-06
-1.5296e-06
0.000108005
0.000104596
3.68345e-07
0.000104856
1.03021e-06
0.000105205
1.47117e-06
0.000105581
1.67852e-06
0.000105952
1.71722e-06
0.000106302
1.64377e-06
0.000106627
1.49866e-06
0.000106924
1.31468e-06
0.000107198
1.1148e-06
0.000107451
9.12704e-07
0.000107687
7.16326e-07
0.000107907
5.30018e-07
0.000108115
3.55725e-07
0.000108311
1.93897e-07
0.000108498
4.4146e-08
0.000108676
-9.43702e-08
0.000108847
-2.22717e-07
0.00010901
-3.42037e-07
0.000109167
-4.53458e-07
0.000109318
-5.58045e-07
0.000109463
-6.56777e-07
0.000109602
-7.50529e-07
0.000109737
-8.40076e-07
0.000109866
-9.2609e-07
0.000109989
-1.00914e-06
0.000110108
-1.0897e-06
0.000110221
-1.16815e-06
0.000110328
-1.24475e-06
0.00011043
-1.31968e-06
0.000110524
-1.39296e-06
0.000110612
-1.46446e-06
0.000110692
-1.53395e-06
-1.60075e-06
0.000110763
0.000107566
2.88085e-07
0.000107788
8.08796e-07
0.000108094
1.16457e-06
0.000108435
1.33782e-06
0.000108781
1.37154e-06
0.000109116
1.30873e-06
0.000109432
1.18215e-06
0.000109728
1.01896e-06
0.000110004
8.39147e-07
0.000110261
6.55365e-07
0.000110502
4.75268e-07
0.000110729
3.03276e-07
0.000110943
1.41574e-07
0.000111146
-9.10723e-09
0.000111339
-1.489e-07
0.000111523
-2.78429e-07
0.000111699
-3.98578e-07
0.000111867
-5.10343e-07
0.000112028
-6.1473e-07
0.000112183
-7.12705e-07
0.000112331
-8.05157e-07
0.000112474
-8.92887e-07
0.00011261
-9.76595e-07
0.000112741
-1.05688e-06
0.000112866
-1.13424e-06
0.000112986
-1.20908e-06
0.000113099
-1.28169e-06
0.000113207
-1.35225e-06
0.000113308
-1.42085e-06
0.000113402
-1.48744e-06
0.00011349
-1.55183e-06
0.000113569
-1.6137e-06
-1.67243e-06
0.000113641
0.000110625
2.19504e-07
0.000110817
6.17488e-07
0.000111089
8.92693e-07
0.0001114
1.02689e-06
0.000111723
1.04796e-06
0.000112044
9.88004e-07
0.000112353
8.73125e-07
0.000112646
7.25484e-07
0.000112923
5.62056e-07
0.000113185
3.94145e-07
0.000113431
2.2883e-07
0.000113664
7.03425e-08
0.000113885
-7.90996e-08
0.000114094
-2.18638e-07
0.000114294
-3.48258e-07
0.000114484
-4.68441e-07
0.000114665
-5.79945e-07
0.000114838
-6.83653e-07
0.000115004
-7.80477e-07
0.000115163
-8.71299e-07
0.000115314
-9.56933e-07
0.00011546
-1.03811e-06
0.000115599
-1.11547e-06
0.000115731
-1.18954e-06
0.000115858
-1.26076e-06
0.000115978
-1.32946e-06
0.000116092
-1.39587e-06
0.0001162
-1.46013e-06
0.000116302
-1.52224e-06
0.000116396
-1.5821e-06
0.000116484
-1.63951e-06
0.000116564
-1.69414e-06
-1.74544e-06
0.000116637
0.000113775
1.59807e-07
0.000113943
4.4957e-07
0.000114187
6.48825e-07
0.000114473
7.40855e-07
0.000114778
7.43342e-07
0.000115086
6.79838e-07
0.000115388
5.7078e-07
0.00011568
4.33968e-07
0.000115958
2.83484e-07
0.000116223
1.29083e-07
0.000116475
-2.29545e-08
0.000116714
-1.68786e-07
0.000116941
-3.06341e-07
0.000117158
-4.34774e-07
0.000117363
-5.54027e-07
0.000117559
-6.64518e-07
0.000117746
-7.66931e-07
0.000117925
-8.62077e-07
0.000118095
-9.50802e-07
0.000118258
-1.03392e-06
0.000118413
-1.11219e-06
0.000118561
-1.18629e-06
0.000118703
-1.25679e-06
0.000118837
-1.32418e-06
0.000118965
-1.38883e-06
0.000119087
-1.45102e-06
0.000119202
-1.51094e-06
0.00011931
-1.56867e-06
0.000119412
-1.62419e-06
0.000119508
-1.67737e-06
0.000119596
-1.72801e-06
0.000119678
-1.77579e-06
-1.82026e-06
0.000119753
0.000117017
1.06852e-07
0.000117167
2.99658e-07
0.000117389
4.27169e-07
0.000117655
4.75106e-07
0.000117944
4.54438e-07
0.000118241
3.82136e-07
0.000118538
2.73902e-07
0.000118828
1.43757e-07
0.000119109
3.06537e-09
0.000119378
-1.40036e-07
0.000119635
-2.80234e-07
0.000119881
-4.14235e-07
0.000120115
-5.4027e-07
0.000120337
-6.57636e-07
0.00012055
-7.66328e-07
0.000120752
-8.66773e-07
0.000120945
-9.59638e-07
0.000121128
-1.0457e-06
0.000121303
-1.12578e-06
0.00012147
-1.20064e-06
0.000121629
-1.271e-06
0.00012178
-1.33748e-06
0.000121924
-1.40062e-06
0.00012206
-1.46086e-06
0.00012219
-1.51854e-06
0.000122313
-1.57389e-06
0.000122429
-1.62706e-06
0.000122539
-1.6781e-06
0.000122641
-1.72697e-06
0.000122738
-1.77356e-06
0.000122827
-1.81765e-06
0.00012291
-1.85901e-06
-1.89723e-06
0.000122987
0.000120354
5.89481e-08
0.00012049
1.63359e-07
0.000120695
2.22655e-07
0.000120945
2.25282e-07
0.000121221
1.77894e-07
0.000121511
9.24879e-08
0.000121804
-1.91529e-08
0.000122094
-1.46263e-07
0.000122377
-2.79961e-07
0.000122651
-4.13785e-07
0.000122914
-5.43467e-07
0.000123166
-6.66406e-07
0.000123407
-7.81253e-07
0.000123637
-8.87558e-07
0.000123856
-9.85465e-07
0.000124065
-1.07548e-06
0.000124263
-1.15831e-06
0.000124452
-1.23475e-06
0.000124632
-1.30559e-06
0.000124803
-1.3716e-06
0.000124966
-1.43347e-06
0.00012512
-1.49179e-06
0.000125266
-1.54707e-06
0.000125405
-1.59971e-06
0.000125537
-1.65001e-06
0.000125661
-1.69819e-06
0.000125778
-1.74437e-06
0.000125889
-1.78857e-06
0.000125993
-1.83077e-06
0.00012609
-1.87084e-06
0.000126181
-1.90861e-06
0.000126266
-1.94387e-06
-1.9763e-06
0.000126345
0.000123787
1.4712e-08
0.000123914
3.69903e-08
0.000124106
3.07684e-08
0.000124344
-1.27939e-08
0.000124611
-8.97462e-08
0.000124896
-1.918e-07
0.000125187
-3.10387e-07
0.000125478
-4.37556e-07
0.000125765
-5.66697e-07
0.000126044
-6.92992e-07
0.000126314
-8.133e-07
0.000126573
-9.25806e-07
0.000126822
-1.02969e-06
0.000127059
-1.12487e-06
0.000127285
-1.2117e-06
0.000127501
-1.29085e-06
0.000127706
-1.36312e-06
0.0001279
-1.42934e-06
0.000128085
-1.49034e-06
0.00012826
-1.5469e-06
0.000128426
-1.59968e-06
0.000128584
-1.64928e-06
0.000128733
-1.69618e-06
0.000128874
-1.74076e-06
0.000129007
-1.7833e-06
0.000129133
-1.82399e-06
0.000129252
-1.86294e-06
0.000129363
-1.90018e-06
0.000129468
-1.93566e-06
0.000129567
-1.96929e-06
0.000129659
-2.00093e-06
0.000129746
-2.0304e-06
-2.05746e-06
0.000129827
0.00012732
-2.70411e-08
0.00012744
-8.26488e-08
0.000127623
-1.52622e-07
0.000127854
-2.43218e-07
0.000128116
-3.52117e-07
0.000128398
-4.73786e-07
0.00012869
-6.023e-07
0.000128985
-7.32145e-07
0.000129277
-8.58792e-07
0.000129563
-9.79024e-07
0.00012984
-1.09088e-06
0.000130108
-1.19342e-06
0.000130365
-1.28645e-06
0.00013061
-1.37031e-06
0.000130844
-1.44568e-06
0.000131067
-1.51343e-06
0.000131278
-1.5745e-06
0.000131479
-1.62984e-06
0.000131669
-1.68032e-06
0.000131848
-1.72674e-06
0.000132018
-1.7698e-06
0.000132179
-1.81008e-06
0.000132331
-1.84805e-06
0.000132474
-1.88408e-06
0.00013261
-1.91845e-06
0.000132737
-1.95132e-06
0.000132857
-1.98279e-06
0.000132969
-2.01289e-06
0.000133075
-2.04159e-06
0.000133175
-2.06881e-06
0.000133268
-2.09441e-06
0.000133356
-2.11827e-06
-2.14017e-06
0.000133439
0.000130955
-6.73554e-08
0.000131071
-1.98452e-07
0.00013125
-3.31414e-07
0.000131477
-4.70066e-07
0.000131738
-6.13019e-07
0.000132021
-7.56802e-07
0.000132316
-8.97689e-07
0.000132616
-1.03232e-06
0.000132915
-1.15809e-06
0.00013321
-1.27337e-06
0.000133496
-1.37741e-06
0.000133773
-1.47021e-06
0.000134039
-1.55227e-06
0.000134293
-1.62447e-06
0.000134535
-1.68785e-06
0.000134765
-1.74357e-06
0.000134984
-1.79275e-06
0.00013519
-1.83646e-06
0.000135386
-1.87568e-06
0.00013557
-1.91125e-06
0.000135744
-1.9439e-06
0.000135908
-1.97423e-06
0.000136063
-2.0027e-06
0.000136209
-2.02969e-06
0.000136346
-2.05544e-06
0.000136474
-2.08014e-06
0.000136596
-2.10387e-06
0.000136709
-2.12666e-06
0.000136816
-2.14847e-06
0.000136917
-2.16925e-06
0.000137011
-2.18889e-06
0.0001371
-2.20729e-06
-2.22429e-06
0.000137184
0.000134695
-1.07228e-07
0.00013481
-3.13203e-07
0.000134988
-5.0951e-07
0.000135215
-6.97647e-07
0.000135479
-8.76723e-07
0.000135767
-1.04485e-06
0.00013607
-1.20019e-06
0.000136379
-1.34131e-06
0.000136688
-1.46744e-06
0.000136993
-1.5785e-06
0.000137291
-1.67501e-06
0.000137579
-1.75799e-06
0.000137855
-1.82871e-06
0.000138119
-1.88865e-06
0.000138371
-1.9393e-06
0.000138609
-1.98214e-06
0.000138835
-2.01854e-06
0.000139048
-2.04973e-06
0.000139249
-2.07681e-06
0.000139439
-2.10069e-06
0.000139617
-2.12215e-06
0.000139785
-2.1418e-06
0.000139942
-2.16013e-06
0.00014009
-2.1775e-06
0.000140229
-2.19416e-06
0.000140359
-2.21028e-06
0.000140481
-2.22595e-06
0.000140595
-2.24118e-06
0.000140703
-2.25595e-06
0.000140804
-2.27019e-06
0.000140899
-2.28381e-06
0.000140988
-2.29671e-06
-2.30873e-06
0.000141072
0.000138543
-1.47653e-07
0.000138659
-4.29693e-07
0.000138841
-6.90873e-07
0.000139073
-9.30409e-07
0.000139344
-1.14766e-06
0.000139641
-1.34205e-06
0.000139955
-1.51342e-06
0.000140276
-1.6622e-06
0.000140598
-1.78942e-06
0.000140916
-1.89655e-06
0.000141226
-1.98546e-06
0.000141526
-2.05821e-06
0.000141814
-2.11696e-06
0.00014209
-2.16382e-06
0.000142351
-2.20081e-06
0.000142599
-2.22979e-06
0.000142833
-2.25239e-06
0.000143053
-2.27007e-06
0.00014326
-2.28403e-06
0.000143455
-2.2953e-06
0.000143637
-2.30471e-06
0.000143809
-2.31291e-06
0.000143969
-2.3204e-06
0.000144119
-2.32753e-06
0.000144259
-2.33458e-06
0.000144391
-2.34168e-06
0.000144514
-2.34892e-06
0.000144629
-2.35631e-06
0.000144737
-2.36381e-06
0.000144838
-2.37138e-06
0.000144933
-2.3789e-06
0.000145022
-2.38632e-06
-2.39345e-06
0.000145107
0.000142501
-1.89735e-07
0.000142623
-5.51046e-07
0.000142812
-8.80104e-07
0.000143055
-1.1738e-06
0.000143339
-1.43162e-06
0.000143651
-1.6542e-06
0.000143981
-1.84295e-06
0.000144319
-2.00015e-06
0.000144658
-2.12864e-06
0.000144993
-2.23157e-06
0.00014532
-2.31219e-06
0.000145635
-2.37375e-06
0.000145938
-2.41935e-06
0.000146226
-2.45185e-06
0.000146499
-2.47384e-06
0.000146757
-2.48759e-06
0.000146999
-2.49508e-06
0.000147227
-2.49797e-06
0.000147441
-2.49763e-06
0.000147641
-2.4952e-06
0.000147828
-2.49157e-06
0.000148002
-2.48741e-06
0.000148165
-2.48325e-06
0.000148317
-2.47946e-06
0.000148459
-2.47628e-06
0.000148591
-2.47384e-06
0.000148714
-2.47222e-06
0.000148829
-2.47141e-06
0.000148937
-2.47136e-06
0.000149037
-2.47199e-06
0.000149132
-2.47318e-06
0.00014922
-2.47486e-06
-2.47679e-06
0.000149303
0.000146574
-2.3464e-07
0.000146704
-6.80562e-07
0.000146906
-1.08189e-06
0.000147165
-1.43308e-06
0.000147467
-1.73387e-06
0.000147799
-1.98619e-06
0.000148149
-2.19317e-06
0.000148508
-2.35902e-06
0.000148868
-2.4885e-06
0.000149223
-2.5865e-06
0.000149569
-2.6578e-06
0.000149902
-2.7069e-06
0.00015022
-2.7379e-06
0.000150523
-2.7545e-06
0.000150809
-2.7599e-06
0.000151078
-2.75686e-06
0.000151331
-2.74771e-06
0.000151567
-2.73436e-06
0.000151788
-2.71837e-06
0.000151994
-2.70098e-06
0.000152185
-2.68316e-06
0.000152364
-2.66563e-06
0.000152529
-2.64892e-06
0.000152683
-2.6334e-06
0.000152826
-2.61929e-06
0.000152959
-2.60672e-06
0.000153083
-2.59574e-06
0.000153197
-2.5863e-06
0.000153304
-2.57836e-06
0.000153404
-2.57179e-06
0.000153498
-2.56648e-06
0.000153585
-2.56232e-06
-2.55908e-06
0.000153667
0.000150765
-2.84083e-07
0.000150908
-8.2306e-07
0.000151129
-1.30349e-06
0.000151413
-1.71708e-06
0.000151743
-2.06402e-06
0.000152105
-2.34772e-06
0.000152485
-2.57324e-06
0.000152873
-2.74702e-06
0.000153261
-2.87606e-06
0.000153641
-2.96723e-06
0.00015401
-3.027e-06
0.000154365
-3.06129e-06
0.000154702
-3.07533e-06
0.000155021
-3.07371e-06
0.000155322
-3.06031e-06
0.000155603
-3.0384e-06
0.000155866
-3.01068e-06
0.000156111
-2.97932e-06
0.000156339
-2.94608e-06
0.00015655
-2.91229e-06
0.000156746
-2.87899e-06
0.000156928
-2.84694e-06
0.000157095
-2.81668e-06
0.00015725
-2.78854e-06
0.000157394
-2.76275e-06
0.000157527
-2.73939e-06
0.000157649
-2.71847e-06
0.000157763
-2.69992e-06
0.000157868
-2.68364e-06
0.000157966
-2.66947e-06
0.000158057
-2.65725e-06
0.000158141
-2.64681e-06
-2.63783e-06
0.00015822
0.000155077
-3.39468e-07
0.000155237
-9.82669e-07
0.000155483
-1.55031e-06
0.000155798
-2.03143e-06
0.000156161
-2.42753e-06
0.000156558
-2.74407e-06
0.000156973
-2.98837e-06
0.000157395
-3.16936e-06
0.000157816
-3.29649e-06
0.000158227
-3.37881e-06
0.000158625
-3.42464e-06
0.000159005
-3.44147e-06
0.000159365
-3.4358e-06
0.000159705
-3.41319e-06
0.000160023
-3.3783e-06
0.000160319
-3.33497e-06
0.000160595
-3.2863e-06
0.000160851
-3.23476e-06
0.000161087
-3.18228e-06
0.000161305
-3.13032e-06
0.000161506
-3.07998e-06
0.000161691
-3.03203e-06
0.000161861
-2.98699e-06
0.000162018
-2.9452e-06
0.000162162
-2.90682e-06
0.000162294
-2.87189e-06
0.000162416
-2.84037e-06
0.000162529
-2.81216e-06
0.000162632
-2.78709e-06
0.000162727
-2.76498e-06
0.000162816
-2.7456e-06
0.000162898
-2.72879e-06
-2.71417e-06
0.000162974
0.000159516
-4.0501e-07
0.000159704
-1.1703e-06
0.000159992
-1.83822e-06
0.000160355
-2.39452e-06
0.00016077
-2.84304e-06
0.000161219
-3.19232e-06
0.000161683
-3.45297e-06
0.000162151
-3.63746e-06
0.000162613
-3.75836e-06
0.000163062
-3.82733e-06
0.000163492
-3.85481e-06
0.0001639
-3.84998e-06
0.000164285
-3.82068e-06
0.000164646
-3.7735e-06
0.000164981
-3.71385e-06
0.000165292
-3.64614e-06
0.00016558
-3.57387e-06
0.000165845
-3.49977e-06
0.000166088
-3.42595e-06
0.000166312
-3.35396e-06
0.000166517
-3.28493e-06
0.000166705
-3.21963e-06
0.000166876
-3.15857e-06
0.000167033
-3.10202e-06
0.000167176
-3.0501e-06
0.000167307
-3.00278e-06
0.000167427
-2.95996e-06
0.000167536
-2.92146e-06
0.000167636
-2.88705e-06
0.000167728
-2.85646e-06
0.000167811
-2.82941e-06
0.000167888
-2.80561e-06
-2.78461e-06
0.000167959
0.000164082
-4.80494e-07
0.000164299
-1.38807e-06
0.000164631
-2.16935e-06
0.000165045
-2.80892e-06
0.000165517
-3.3151e-06
0.000166024
-3.69977e-06
0.000166548
-3.97687e-06
0.000167074
-4.16286e-06
0.000167589
-4.27402e-06
0.000168087
-4.32509e-06
0.000168561
-4.3291e-06
0.000169009
-4.2973e-06
0.000169427
-4.23916e-06
0.000169816
-4.16244e-06
0.000170176
-4.07345e-06
0.000170507
-3.97722e-06
0.000170811
-3.87765e-06
0.000171089
-3.77775e-06
0.000171342
-3.67975e-06
0.000171574
-3.58528e-06
0.000171784
-3.49545e-06
0.000171976
-3.41102e-06
0.000172149
-3.3324e-06
0.000172307
-3.25979e-06
0.00017245
-3.19321e-06
0.00017258
-3.13255e-06
0.000172698
-3.07762e-06
0.000172804
-3.02816e-06
0.000172901
-2.98386e-06
0.000172989
-2.9444e-06
0.000173069
-2.90943e-06
0.000173142
-2.87864e-06
-2.85149e-06
0.000173209
0.000168794
-5.83136e-07
0.000169078
-1.67161e-06
0.000169496
-2.58739e-06
0.000170003
-3.31607e-06
0.000170565
-3.87707e-06
0.000171155
-4.28974e-06
0.000171753
-4.57433e-06
0.000172343
-4.75302e-06
0.000172915
-4.84633e-06
0.000173462
-4.87216e-06
0.000173979
-4.8461e-06
0.000174463
-4.78138e-06
0.000174913
-4.68898e-06
0.000175328
-4.57781e-06
0.00017571
-4.45502e-06
0.000176059
-4.3262e-06
0.000176377
-4.19567e-06
0.000176666
-4.06665e-06
0.000176928
-3.94152e-06
0.000177164
-3.82194e-06
0.000177378
-3.70901e-06
0.00017757
-3.60338e-06
0.000177743
-3.5054e-06
0.000177899
-3.41514e-06
0.000178038
-3.33251e-06
0.000178163
-3.25728e-06
0.000178274
-3.18914e-06
0.000178374
-3.12773e-06
0.000178462
-3.07265e-06
0.000178542
-3.02348e-06
0.000178612
-2.97975e-06
0.000178674
-2.94105e-06
-2.90667e-06
0.000178729
0.000173622
-6.94155e-07
0.000173952
-2.00106e-06
0.000174441
-3.07656e-06
0.00017504
-3.91504e-06
0.000175708
-4.54549e-06
0.00017641
-4.99154e-06
0.000177117
-5.28104e-06
0.000177809
-5.44471e-06
0.000178472
-5.50951e-06
0.000179098
-5.4981e-06
0.000179681
-5.42975e-06
0.00018022
-5.32045e-06
0.000180714
-5.18308e-06
0.000181165
-5.0279e-06
0.000181572
-4.86292e-06
0.000181941
-4.6943e-06
0.000182272
-4.52665e-06
0.000182568
-4.36333e-06
0.000182833
-4.20673e-06
0.00018307
-4.05842e-06
0.00018328
-3.91937e-06
0.000183467
-3.79007e-06
0.000183632
-3.67068e-06
0.000183778
-3.56109e-06
0.000183907
-3.46101e-06
0.000184019
-3.37006e-06
0.000184118
-3.28777e-06
0.000184204
-3.21366e-06
0.000184279
-3.14724e-06
0.000184343
-3.08801e-06
0.000184399
-3.03548e-06
0.000184447
-2.98924e-06
-2.94842e-06
0.000184489
0.000178681
-9.07049e-07
0.000179188
-2.50715e-06
0.000179857
-3.74616e-06
0.000180611
-4.66896e-06
0.000181408
-5.34234e-06
0.000182215
-5.79914e-06
0.00018301
-6.07567e-06
0.000183776
-6.21012e-06
0.0001845
-6.23422e-06
0.000185177
-6.17466e-06
0.000185801
-6.0542e-06
0.000186372
-5.89149e-06
0.000186891
-5.70139e-06
0.000187358
-5.49552e-06
0.000187778
-5.2828e-06
0.000188154
-5.06991e-06
0.000188489
-4.86172e-06
0.000188787
-4.66162e-06
0.000189052
-4.4719e-06
0.000189288
-4.29394e-06
0.000189497
-4.12845e-06
0.000189682
-3.97568e-06
0.000189847
-3.83547e-06
0.000189994
-3.70745e-06
0.000190124
-3.59107e-06
0.000190239
-3.4857e-06
0.000190342
-3.39067e-06
0.000190434
-3.30533e-06
0.000190516
-3.22907e-06
0.000190589
-3.1613e-06
0.000190655
-3.10154e-06
0.000190715
-3.04932e-06
-3.00376e-06
0.00019077
0.000183745
-1.08452e-06
0.000184334
-3.09618e-06
0.000185163
-4.57509e-06
0.000186129
-5.63473e-06
0.000187149
-6.36315e-06
0.000188162
-6.81196e-06
0.000189134
-7.0471e-06
0.000190049
-7.12576e-06
0.000190904
-7.08859e-06
0.000191697
-6.96751e-06
0.000192431
-6.78816e-06
0.000193109
-6.57039e-06
0.000193737
-6.32933e-06
0.000194318
-6.07656e-06
0.000194856
-5.82076e-06
0.000195355
-5.56832e-06
0.000195817
-5.32386e-06
0.000196246
-5.09056e-06
0.000196644
-4.87051e-06
0.000197015
-4.66492e-06
0.000197361
-4.47432e-06
0.000197684
-4.29877e-06
0.000197987
-4.13793e-06
0.000198271
-3.99123e-06
0.000198537
-3.85793e-06
0.000198789
-3.73721e-06
0.000199027
-3.62823e-06
0.000199251
-3.53022e-06
0.000199465
-3.44252e-06
0.000199668
-3.36456e-06
0.000199863
-3.29623e-06
0.000200051
-3.2371e-06
-3.18769e-06
0.000200235
0.000189416
-1.68901e-06
0.000190401
-4.0808e-06
0.000191478
-5.65175e-06
0.000192631
-6.78769e-06
0.000193868