/*--------------------------------*- C++ -*----------------------------------*\
| =========                 |                                                 |
| \\      /  F ield         | OpenFOAM: The Open Source CFD Toolbox           |
|  \\    /   O peration     | Version:  2.1.1                                 |
|   \\  /    A nd           | Web:      www.OpenFOAM.org                      |
|    \\/     M anipulation  |                                                 |
\*---------------------------------------------------------------------------*/
FoamFile
{
    version     2.0;
    format      ascii;
    class       volVectorField;
    location    "0.195";
    object      U;
}
// * * * * * * * * * * * * * * * * * * * * * * * * * * * * * * * * * * * * * //

dimensions      [0 1 -1 0 0 0 0];

internalField   nonuniform List<vector> 
6820
(
(6.37609 0.503711 0)
(4.42472 0.286818 0)
(2.97452 0.0201445 0)
(2.23595 -0.0619959 0)
(1.97109 -0.0600937 0)
(1.84514 -0.0346813 0)
(1.77121 -0.0152637 0)
(1.72019 -0.0048795 0)
(1.67804 -0.000171609 0)
(1.64172 0.00133956 0)
(1.61066 0.00132164 0)
(1.5844 0.0007108 0)
(1.56245 -6.07071e-05 0)
(1.54427 -0.000804502 0)
(1.52938 -0.00144698 0)
(1.51734 -0.0019711 0)
(1.50778 -0.00238543 0)
(1.50044 -0.00270752 0)
(1.49507 -0.00295453 0)
(1.49152 -0.00314108 0)
(1.48966 -0.00326817 0)
(1.48941 -0.00338324 0)
(1.49067 -0.00357452 0)
(1.49338 -0.00373361 0)
(1.49752 -0.00385181 0)
(1.50306 -0.00394114 0)
(1.50995 -0.0040508 0)
(1.51832 -0.00414558 0)
(1.52763 -0.00433354 0)
(1.53939 -0.00401036 0)
(1.54799 -0.00467076 0)
(1.56893 0.00300342 0)
(1.54223 -0.0229688 0)
(8.72022 0.959512 0)
(8.7651 1.01166 0)
(7.96996 0.678641 0)
(7.05755 0.393449 0)
(6.35781 0.201916 0)
(5.85292 0.102717 0)
(5.4927 0.0571263 0)
(5.23331 0.0365053 0)
(5.03979 0.0271717 0)
(4.88999 0.0224887 0)
(4.77051 0.0196048 0)
(4.673 0.0174655 0)
(4.5921 0.0156753 0)
(4.52424 0.0140683 0)
(4.46695 0.0125622 0)
(4.41842 0.0111122 0)
(4.37733 0.00969335 0)
(4.34267 0.00829034 0)
(4.31367 0.00689285 0)
(4.28972 0.00549176 0)
(4.27033 0.00408022 0)
(4.2551 0.0026494 0)
(4.24373 0.00116427 0)
(4.23601 -0.000341928 0)
(4.23175 -0.00191251 0)
(4.2308 -0.00355115 0)
(4.23301 -0.00522945 0)
(4.23829 -0.00687718 0)
(4.24647 -0.00867974 0)
(4.25776 -0.00994306 0)
(4.27148 -0.0122995 0)
(4.29062 -0.0102778 0)
(4.31326 -0.0146565 0)
(8.58611 0.583316 0)
(9.33136 0.761857 0)
(9.61487 0.659369 0)
(9.5056 0.525528 0)
(9.24053 0.395797 0)
(8.92953 0.297761 0)
(8.62544 0.228752 0)
(8.35141 0.179152 0)
(8.11168 0.142975 0)
(7.904 0.11604 0)
(7.72468 0.0954305 0)
(7.56987 0.0792841 0)
(7.43607 0.0663797 0)
(7.32031 0.0558847 0)
(7.22003 0.0472006 0)
(7.13314 0.03988 0)
(7.05789 0.0335856 0)
(6.9928 0.0280627 0)
(6.93668 0.0231179 0)
(6.88851 0.0186008 0)
(6.84746 0.0143921 0)
(6.81284 0.0104044 0)
(6.78408 0.00657947 0)
(6.76071 0.00284289 0)
(6.7423 -0.000870596 0)
(6.72852 -0.00460393 0)
(6.71917 -0.00838863 0)
(6.7141 -0.0122069 0)
(6.7131 -0.0161269 0)
(6.71612 -0.0198253 0)
(6.72274 -0.0239465 0)
(6.7331 -0.0266384 0)
(6.74663 -0.0327269 0)
(8.44094 0.379531 0)
(8.94595 0.583545 0)
(9.35849 0.553716 0)
(9.5864 0.485857 0)
(9.70092 0.40557 0)
(9.73758 0.336077 0)
(9.72299 0.283234 0)
(9.67947 0.242708 0)
(9.61992 0.210848 0)
(9.55162 0.185063 0)
(9.47931 0.163494 0)
(9.4061 0.145009 0)
(9.334 0.128888 0)
(9.26451 0.114628 0)
(9.19858 0.101888 0)
(9.13677 0.0904127 0)
(9.0794 0.0799938 0)
(9.02659 0.0704522 0)
(8.97839 0.0616339 0)
(8.93475 0.0534057 0)
(8.89558 0.0456518 0)
(8.86075 0.0382738 0)
(8.83013 0.0311815 0)
(8.8036 0.0242888 0)
(8.781 0.0175384 0)
(8.76223 0.0108757 0)
(8.74713 0.00422 0)
(8.73551 -0.00247514 0)
(8.72729 -0.00924095 0)
(8.72251 -0.0159129 0)
(8.7211 -0.0227533 0)
(8.72308 -0.0287815 0)
(8.7296 -0.0349871 0)
(8.40215 0.279876 0)
(8.71906 0.480127 0)
(8.99908 0.460997 0)
(9.1747 0.403139 0)
(9.29934 0.340752 0)
(9.39295 0.287941 0)
(9.46229 0.248532 0)
(9.51552 0.218524 0)
(9.5575 0.194596 0)
(9.59059 0.174842 0)
(9.61656 0.157995 0)
(9.63678 0.14326 0)
(9.65239 0.130145 0)
(9.66408 0.118302 0)
(9.67253 0.10747 0)
(9.6784 0.0974426 0)
(9.68228 0.088058 0)
(9.68466 0.0791856 0)
(9.686 0.0707168 0)
(9.68664 0.062559 0)
(9.6869 0.0546322 0)
(9.68705 0.0468672 0)
(9.6873 0.0392029 0)
(9.68784 0.0315823 0)
(9.68884 0.0239573 0)
(9.69042 0.0162817 0)
(9.69272 0.00852323 0)
(9.69577 0.000685071 0)
(9.69951 -0.00724568 0)
(9.70408 -0.0152453 0)
(9.70959 -0.0234403 0)
(9.71646 -0.0314773 0)
(9.72514 -0.039892 0)
(8.37748 0.201962 0)
(8.60146 0.382934 0)
(8.8161 0.389622 0)
(8.94737 0.354869 0)
(9.03353 0.310152 0)
(9.09662 0.266278 0)
(9.14388 0.230024 0)
(9.18259 0.201061 0)
(9.21694 0.177589 0)
(9.24833 0.158266 0)
(9.27736 0.141993 0)
(9.30439 0.127935 0)
(9.3296 0.115541 0)
(9.35326 0.104445 0)
(9.3755 0.094351 0)
(9.39642 0.0850298 0)
(9.4161 0.0763073 0)
(9.43461 0.0680464 0)
(9.45203 0.0601356 0)
(9.46844 0.0524816 0)
(9.48391 0.0450045 0)
(9.49852 0.0376356 0)
(9.51232 0.0303137 0)
(9.5254 0.0229817 0)
(9.53781 0.0155909 0)
(9.54962 0.0081023 0)
(9.56088 0.000486186 0)
(9.57172 -0.00725811 0)
(9.58235 -0.0151922 0)
(9.59296 -0.0233315 0)
(9.60366 -0.0318037 0)
(9.61495 -0.040543 0)
(9.62696 -0.0500409 0)
(8.36129 0.148566 0)
(8.52282 0.310654 0)
(8.69776 0.335842 0)
(8.81282 0.31588 0)
(8.88781 0.282243 0)
(8.94136 0.245649 0)
(8.97965 0.213587 0)
(9.00884 0.187254 0)
(9.03337 0.165483 0)
(9.05514 0.147225 0)
(9.0751 0.131634 0)
(9.09384 0.118046 0)
(9.11169 0.105988 0)
(9.12881 0.0951207 0)
(9.14533 0.0851949 0)
(9.16131 0.0760192 0)
(9.1768 0.0674398 0)
(9.19182 0.0593291 0)
(9.20641 0.0515787 0)
(9.22056 0.0440956 0)
(9.23431 0.036799 0)
(9.24765 0.0296181 0)
(9.2606 0.0224893 0)
(9.27318 0.015355 0)
(9.28541 0.00816175 0)
(9.29733 0.000861471 0)
(9.30898 -0.00659736 0)
(9.32046 -0.0142838 0)
(9.33181 -0.0222797 0)
(9.34316 -0.0306276 0)
(9.35461 -0.0394701 0)
(9.36648 -0.0489073 0)
(9.37881 -0.059456 0)
(8.35117 0.111102 0)
(8.4675 0.250756 0)
(8.60847 0.285116 0)
(8.71048 0.276451 0)
(8.78067 0.253655 0)
(8.83277 0.225756 0)
(8.87112 0.199178 0)
(8.90026 0.176024 0)
(8.92413 0.156025 0)
(8.94476 0.138698 0)
(8.96319 0.123585 0)
(8.98014 0.110242 0)
(8.99603 0.0983046 0)
(9.01114 0.087498 0)
(9.02562 0.0776041 0)
(9.03961 0.068442 0)
(9.05318 0.0598609 0)
(9.06639 0.0517348 0)
(9.07929 0.043957 0)
(9.09191 0.0364361 0)
(9.10428 0.0290925 0)
(9.11642 0.0218554 0)
(9.12834 0.0146609 0)
(9.14008 0.00744864 0)
(9.15164 0.00016032 0)
(9.16306 -0.00726279 0)
(9.17434 -0.0148853 0)
(9.18552 -0.0227678 0)
(9.19664 -0.030982 0)
(9.20777 -0.0396057 0)
(9.21897 -0.0488 0)
(9.23039 -0.0587541 0)
(9.24204 -0.0698809 0)
(8.34488 0.0843957 0)
(8.42947 0.202781 0)
(8.54245 0.242177 0)
(8.63145 0.242357 0)
(8.69579 0.227689 0)
(8.74531 0.206194 0)
(8.78325 0.183718 0)
(8.81284 0.163098 0)
(8.83732 0.144763 0)
(8.85853 0.128564 0)
(8.87744 0.114239 0)
(8.89473 0.101465 0)
(8.91085 0.089948 0)
(8.92608 0.0794505 0)
(8.9406 0.0697797 0)
(8.95455 0.0607748 0)
(8.96802 0.0523018 0)
(8.9811 0.0442478 0)
(8.99383 0.0365161 0)
(9.00625 0.0290218 0)
(9.0184 0.0216895 0)
(9.03031 0.0144513 0)
(9.04199 0.00724459 0)
(9.05346 9.78597e-06 0)
(9.06476 -0.00731116 0)
(9.07588 -0.0147749 0)
(9.08685 -0.0224424 0)
(9.0977 -0.0303825 0)
(9.10844 -0.0386831 0)
(9.1191 -0.0474479 0)
(9.12972 -0.0568366 0)
(9.14031 -0.0670525 0)
(9.15082 -0.0783944 0)
(8.34094 0.0651197 0)
(8.40316 0.164355 0)
(8.49353 0.204925 0)
(8.57047 0.210921 0)
(8.62892 0.202223 0)
(8.67544 0.186139 0)
(8.71238 0.167723 0)
(8.74189 0.1499 0)
(8.76655 0.133473 0)
(8.788 0.118542 0)
(8.80714 0.105044 0)
(8.82463 0.0928097 0)
(8.8409 0.0816471 0)
(8.85625 0.0713822 0)
(8.87086 0.0618639 0)
(8.88487 0.0529586 0)
(8.89839 0.0445493 0)
(8.91147 0.0365332 0)
(8.92418 0.0288194 0)
(8.93656 0.0213271 0)
(8.94864 0.0139835 0)
(8.96045 0.00672214 0)
(8.97201 -0.000518689 0)
(8.98333 -0.00779753 0)
(8.99444 -0.0151712 0)
(9.00535 -0.0226981 0)
(9.01606 -0.0304429 0)
(9.0266 -0.0384772 0)
(9.03697 -0.0468861 0)
(9.04716 -0.0557692 0)
(9.05717 -0.0652638 0)
(9.06695 -0.0755485 0)
(9.07641 -0.0868188 0)
(8.33846 0.0509321 0)
(8.38481 0.133449 0)
(8.45715 0.172796 0)
(8.52333 0.182694 0)
(8.57616 0.178624 0)
(8.61958 0.166981 0)
(8.65514 0.152018 0)
(8.68424 0.136578 0)
(8.70887 0.121773 0)
(8.73042 0.107949 0)
(8.74974 0.0952132 0)
(8.7674 0.0835188 0)
(8.78382 0.0727497 0)
(8.79929 0.0627776 0)
(8.81399 0.05348 0)
(8.82807 0.0447421 0)
(8.84162 0.0364595 0)
(8.85471 0.0285388 0)
(8.86741 0.0208962 0)
(8.87975 0.0134564 0)
(8.89177 0.00615075 0)
(8.90349 -0.00108396 0)
(8.91494 -0.00830693 0)
(8.92612 -0.0155747 0)
(8.93706 -0.0229432 0)
(8.94776 -0.0304695 0)
(8.95823 -0.0382146 0)
(8.96847 -0.0462451 0)
(8.97847 -0.0546385 0)
(8.9882 -0.0634855 0)
(8.99763 -0.0728986 0)
(9.00666 -0.0830188 0)
(9.01519 -0.0939583 0)
(8.33687 0.0402788 0)
(8.37189 0.108526 0)
(8.42996 0.145154 0)
(8.48664 0.157253 0)
(8.53413 0.15642 0)
(8.5744 0.148165 0)
(8.6084 0.136091 0)
(8.63693 0.12283 0)
(8.66142 0.109632 0)
(8.68305 0.0969855 0)
(8.70251 0.0850991 0)
(8.72035 0.0740165 0)
(8.73693 0.0636895 0)
(8.75254 0.0540375 0)
(8.76735 0.0449716 0)
(8.78151 0.0364017 0)
(8.79511 0.0282411 0)
(8.80823 0.020409 0)
(8.82092 0.0128305 0)
(8.83324 0.00543637 0)
(8.8452 -0.00183749 0)
(8.85684 -0.00905085 0)
(8.86818 -0.0162599 0)
(8.87922 -0.0235187 0)
(8.88999 -0.0308804 0)
(8.90048 -0.0383987 0)
(8.91069 -0.0461301 0)
(8.92061 -0.0541349 0)
(8.93023 -0.0624801 0)
(8.9395 -0.0712401 0)
(8.94837 -0.080497 0)
(8.95673 -0.0903479 0)
(8.96448 -0.10084 0)
(8.33584 0.0321095 0)
(8.3627 0.0882958 0)
(8.40952 0.121352 0)
(8.45796 0.134361 0)
(8.5005 0.135734 0)
(8.5377 0.130086 0)
(8.56999 0.120425 0)
(8.59775 0.109078 0)
(8.62196 0.0973193 0)
(8.64354 0.0857377 0)
(8.66309 0.0746275 0)
(8.68106 0.0641118 0)
(8.6978 0.0542045 0)
(8.71355 0.0448686 0)
(8.72849 0.0360445 0)
(8.74275 0.027663 0)
(8.75642 0.0196516 0)
(8.76959 0.0119394 0)
(8.78231 0.00445857 0)
(8.79461 -0.00285443 0)
(8.80653 -0.0100593 0)
(8.8181 -0.0172118 0)
(8.82933 -0.0243649 0)
(8.84024 -0.0315692 0)
(8.85083 -0.0388743 0)
(8.86111 -0.046329 0)
(8.87106 -0.0539833 0)
(8.88068 -0.0618884 0)
(8.88994 -0.0700978 0)
(8.89878 -0.0786669 0)
(8.90716 -0.0876496 0)
(8.91495 -0.0971045 0)
(8.92207 -0.107034 0)
(8.33514 0.0257111 0)
(8.35607 0.0717437 0)
(8.39408 0.100836 0)
(8.43547 0.113784 0)
(8.47347 0.116489 0)
(8.50771 0.112707 0)
(8.53822 0.104935 0)
(8.56508 0.0951869 0)
(8.58888 0.0846983 0)
(8.61033 0.0741081 0)
(8.62991 0.0637619 0)
(8.64798 0.0538324 0)
(8.66485 0.0443776 0)
(8.68073 0.0353934 0)
(8.69579 0.026845 0)
(8.71015 0.0186815 0)
(8.72391 0.0108448 0)
(8.73712 0.00327441 0)
(8.74985 -0.00408907 0)
(8.76214 -0.0113029 0)
(8.77402 -0.0184213 0)
(8.78551 -0.0254958 0)
(8.79664 -0.0325753 0)
(8.8074 -0.0397061 0)
(8.81782 -0.046933 0)
(8.82788 -0.054299 0)
(8.83759 -0.0618466 0)
(8.84691 -0.0696171 0)
(8.85582 -0.0776502 0)
(8.86428 -0.0859834 0)
(8.87222 -0.0946463 0)
(8.87955 -0.103665 0)
(8.88619 -0.113013 0)
(8.33466 0.0205955 0)
(8.35124 0.0580674 0)
(8.38234 0.0830941 0)
(8.41779 0.095267 0)
(8.45168 0.0986055 0)
(8.48314 0.0960838 0)
(8.51188 0.0897577 0)
(8.53774 0.0813323 0)
(8.56105 0.0719487 0)
(8.58228 0.062251 0)
(8.60181 0.0526102 0)
(8.61993 0.0432324 0)
(8.6369 0.0342102 0)
(8.65289 0.0255686 0)
(8.66806 0.017295 0)
(8.68251 0.00935572 0)
(8.69633 0.00170541 0)
(8.70959 -0.0057066 0)
(8.72234 -0.0129323 0)
(8.73462 -0.0200231 0)
(8.74645 -0.0270284 0)
(8.75787 -0.0339956 0)
(8.76889 -0.0409691 0)
(8.77952 -0.047991 0)
(8.78977 -0.0551009 0)
(8.79963 -0.0623357 0)
(8.80909 -0.0697299 0)
(8.81814 -0.077315 0)
(8.82675 -0.0851181 0)
(8.83487 -0.0931603 0)
(8.84246 -0.101452 0)
(8.84942 -0.109995 0)
(8.85572 -0.118745 0)
(8.33432 0.0164235 0)
(8.34767 0.0466388 0)
(8.37338 0.0676752 0)
(8.40385 0.0785731 0)
(8.43411 0.081986 0)
(8.46299 0.0802092 0)
(8.49 0.074913 0)
(8.51482 0.0675195 0)
(8.53756 0.0590494 0)
(8.55851 0.0501252 0)
(8.57794 0.041124 0)
(8.59607 0.0322693 0)
(8.6131 0.0236758 0)
(8.62918 0.0153883 0)
(8.64444 0.00741059 0)
(8.65898 -0.000278112 0)
(8.67286 -0.00771294 0)
(8.68616 -0.0149363 0)
(8.69892 -0.0219938 0)
(8.71118 -0.0289311 0)
(8.72297 -0.0357932 0)
(8.73432 -0.0426228 0)
(8.74523 -0.0494599 0)
(8.75572 -0.0563419 0)
(8.7658 -0.0633031 0)
(8.77547 -0.0703742 0)
(8.78471 -0.0775823 0)
(8.7935 -0.0849495 0)
(8.80184 -0.0924921 0)
(8.80967 -0.100218 0)
(8.81696 -0.108124 0)
(8.82365 -0.116195 0)
(8.8297 -0.124378 0)
(8.33408 0.0129553 0)
(8.34501 0.0369667 0)
(8.3665 0.0541831 0)
(8.39285 0.0634669 0)
(8.41993 0.0665138 0)
(8.44648 0.0650531 0)
(8.47185 0.0604252 0)
(8.49563 0.0538 0)
(8.51776 0.0460663 0)
(8.53839 0.0378015 0)
(8.55767 0.0293707 0)
(8.57578 0.0210002 0)
(8.59284 0.0128157 0)
(8.60899 0.00487505 0)
(8.62432 -0.00280588 0)
(8.63893 -0.0102375 0)
(8.65287 -0.0174461 0)
(8.6662 -0.0244669 0)
(8.67897 -0.0313394 0)
(8.69121 -0.0381045 0)
(8.70295 -0.0448024 0)
(8.71422 -0.0514716 0)
(8.72503 -0.0581479 0)
(8.73539 -0.0648641 0)
(8.74531 -0.0716494 0)
(8.75479 -0.0785287 0)
(8.76383 -0.0855225 0)
(8.7724 -0.0926451 0)
(8.7805 -0.0999038 0)
(8.78809 -0.107297 0)
(8.79516 -0.114812 0)
(8.80164 -0.122424 0)
(8.80754 -0.130077 0)
(8.3339 0.0100183 0)
(8.343 0.0286666 0)
(8.3612 0.0422742 0)
(8.38416 0.0497249 0)
(8.40851 0.0520639 0)
(8.43298 0.0505652 0)
(8.45685 0.0462887 0)
(8.47962 0.0401845 0)
(8.50113 0.0330089 0)
(8.52141 0.0252808 0)
(8.54052 0.0173411 0)
(8.55857 0.00940843 0)
(8.57565 0.00161115 0)
(8.59184 -0.00598622 0)
(8.60724 -0.0133607 0)
(8.6219 -0.020516 0)
(8.63589 -0.0274725 0)
(8.64925 -0.0342603 0)
(8.66202 -0.0409145 0)
(8.67424 -0.0474719 0)
(8.68594 -0.053969 0)
(8.69713 -0.0604406 0)
(8.70783 -0.0669189 0)
(8.71806 -0.0734324 0)
(8.72783 -0.0800059 0)
(8.73714 -0.0866595 0)
(8.74598 -0.0934077 0)
(8.75436 -0.100259 0)
(8.76225 -0.107214 0)
(8.76964 -0.114265 0)
(8.77653 -0.121394 0)
(8.78286 -0.12857 0)
(8.78867 -0.135742 0)
(8.33376 0.00748477 0)
(8.34148 0.0214356 0)
(8.35711 0.0316517 0)
(8.37733 0.037135 0)
(8.39936 0.0385027 0)
(8.422 0.0366747 0)
(8.44451 0.0324766 0)
(8.46636 0.0266705 0)
(8.48727 0.0198862 0)
(8.5072 0.0125769 0)
(8.52613 0.00504956 0)
(8.54411 -0.00249383 0)
(8.56119 -0.00993096 0)
(8.57743 -0.0171973 0)
(8.59288 -0.0242676 0)
(8.60759 -0.0311421 0)
(8.62162 -0.0378375 0)
(8.635 -0.0443804 0)
(8.64778 -0.0508024 0)
(8.65997 -0.0571369 0)
(8.67162 -0.0634172 0)
(8.68273 -0.0696747 0)
(8.69334 -0.0759382 0)
(8.70345 -0.0822326 0)
(8.71307 -0.0885787 0)
(8.72222 -0.0949924 0)
(8.73089 -0.101484 0)
(8.73909 -0.108057 0)
(8.74681 -0.114708 0)
(8.75404 -0.121426 0)
(8.76078 -0.128189 0)
(8.76701 -0.134968 0)
(8.77276 -0.141714 0)
(8.33366 0.00525827 0)
(8.34032 0.0150325 0)
(8.35396 0.0220591 0)
(8.37197 0.0254968 0)
(8.39207 0.0256917 0)
(8.41315 0.0232963 0)
(8.43448 0.0189442 0)
(8.45549 0.0132382 0)
(8.47586 0.00669279 0)
(8.49546 -0.000308959 0)
(8.51422 -0.00749912 0)
(8.53213 -0.0146988 0)
(8.54921 -0.0217976 0)
(8.56548 -0.0287363 0)
(8.58097 -0.0354915 0)
(8.59573 -0.0420634 0)
(8.6098 -0.0484679 0)
(8.6232 -0.05473 0)
(8.63597 -0.0608797 0)
(8.64814 -0.0669486 0)
(8.65973 -0.0729678 0)
(8.67077 -0.0789666 0)
(8.68128 -0.0849711 0)
(8.69127 -0.0910038 0)
(8.70076 -0.0970825 0)
(8.70976 -0.10322 0)
(8.71827 -0.109424 0)
(8.72631 -0.115694 0)
(8.73387 -0.122026 0)
(8.74096 -0.128406 0)
(8.74758 -0.134813 0)
(8.75373 -0.14122 0)
(8.75945 -0.147584 0)
(8.33358 0.00326373 0)
(8.33944 0.00926235 0)
(8.35156 0.0132737 0)
(8.36782 0.0146214 0)
(8.38635 0.0134878 0)
(8.40613 0.0103291 0)
(8.42646 0.0056241 0)
(8.44676 -0.000158742 0)
(8.46666 -0.00660878 0)
(8.48598 -0.013412 0)
(8.5046 -0.0203443 0)
(8.52246 -0.0272551 0)
(8.53954 -0.0340514 0)
(8.55585 -0.0406844 0)
(8.5714 -0.0471361 0)
(8.58622 -0.0534101 0)
(8.60032 -0.0595235 0)
(8.61375 -0.0655016 0)
(8.62652 -0.0713738 0)
(8.63867 -0.0771707 0)
(8.65021 -0.082922 0)
(8.66118 -0.0886553 0)
(8.67159 -0.0943947 0)
(8.68147 -0.100161 0)
(8.69083 -0.105969 0)
(8.69969 -0.111829 0)
(8.70806 -0.117748 0)
(8.71595 -0.123724 0)
(8.72337 -0.129751 0)
(8.73033 -0.135815 0)
(8.73685 -0.141898 0)
(8.74293 -0.147975 0)
(8.74862 -0.154011 0)
(8.33352 0.00144044 0)
(8.33879 0.00396328 0)
(8.34975 0.00509877 0)
(8.36467 0.00432883 0)
(8.38195 0.00174469 0)
(8.40071 -0.0023373 0)
(8.42023 -0.00756069 0)
(8.43995 -0.013568 0)
(8.45948 -0.0200411 0)
(8.47858 -0.0267308 0)
(8.4971 -0.0334593 0)
(8.51494 -0.0401079 0)
(8.53205 -0.0466055 0)
(8.54841 -0.0529177 0)
(8.56402 -0.0590364 0)
(8.57889 -0.0649716 0)
(8.59303 -0.0707449 0)
(8.60648 -0.0763842 0)
(8.61925 -0.0819205 0)
(8.63137 -0.0873853 0)
(8.64286 -0.0928083 0)
(8.65376 -0.0982166 0)
(8.66408 -0.103634 0)
(8.67385 -0.109079 0)
(8.68308 -0.114567 0)
(8.69181 -0.120107 0)
(8.70003 -0.125704 0)
(8.70778 -0.131356 0)
(8.71507 -0.137058 0)
(8.72191 -0.142798 0)
(8.72834 -0.148559 0)
(8.73435 -0.154321 0)
(8.74 -0.160056 0)
(8.33348 -0.000261354 0)
(8.33832 -0.00100182 0)
(8.34843 -0.00264285 0)
(8.36236 -0.00555563 0)
(8.37872 -0.00969307 0)
(8.39669 -0.0148364 0)
(8.41562 -0.0207258 0)
(8.43493 -0.027097 0)
(8.45422 -0.0337138 0)
(8.47319 -0.0403907 0)
(8.49168 -0.0469969 0)
(8.50955 -0.0534479 0)
(8.52673 -0.0596973 0)
(8.54318 -0.0657282 0)
(8.55888 -0.0715448 0)
(8.57383 -0.0771657 0)
(8.58804 -0.0826183 0)
(8.60152 -0.0879346 0)
(8.6143 -0.093148 0)
(8.6264 -0.0982916 0)
(8.63785 -0.103396 0)
(8.64868 -0.108488 0)
(8.65891 -0.113591 0)
(8.66857 -0.118725 0)
(8.67769 -0.123902 0)
(8.68628 -0.129133 0)
(8.69436 -0.134422 0)
(8.70197 -0.139768 0)
(8.70913 -0.145166 0)
(8.71585 -0.150607 0)
(8.72216 -0.156078 0)
(8.72809 -0.161561 0)
(8.73368 -0.167035 0)
(8.33345 -0.00188551 0)
(8.33799 -0.00575481 0)
(8.34753 -0.0101152 0)
(8.36078 -0.0152015 0)
(8.37651 -0.0209789 0)
(8.39397 -0.027293 0)
(8.41252 -0.0339576 0)
(8.43158 -0.0407852 0)
(8.45074 -0.0476113 0)
(8.4697 -0.0543104 0)
(8.48823 -0.060799 0)
(8.50619 -0.0670301 0)
(8.52348 -0.0729864 0)
(8.54004 -0.0786732 0)
(8.55584 -0.0841117 0)
(8.57088 -0.089333 0)
(8.58515 -0.094374 0)
(8.59867 -0.0992737 0)
(8.61146 -0.10407 0)
(8.62355 -0.108801 0)
(8.63496 -0.113497 0)
(8.64572 -0.118189 0)
(8.65586 -0.122899 0)
(8.66542 -0.127649 0)
(8.67441 -0.132451 0)
(8.68286 -0.137315 0)
(8.69081 -0.142247 0)
(8.69828 -0.147247 0)
(8.7053 -0.152312 0)
(8.71189 -0.157433 0)
(8.71809 -0.162601 0)
(8.72392 -0.167805 0)
(8.72943 -0.173026 0)
(8.33343 -0.003473 0)
(8.3378 -0.0104104 0)
(8.34701 -0.0174801 0)
(8.35987 -0.0247911 0)
(8.37526 -0.0323033 0)
(8.39248 -0.0399068 0)
(8.41089 -0.0474756 0)
(8.42993 -0.0548895 0)
(8.44914 -0.0620495 0)
(8.46822 -0.0688868 0)
(8.48692 -0.0753644 0)
(8.50507 -0.0814725 0)
(8.52255 -0.087223 0)
(8.53929 -0.0926438 0)
(8.55526 -0.0977733 0)
(8.57043 -0.102656 0)
(8.5848 -0.107339 0)
(8.59838 -0.111869 0)
(8.6112 -0.116289 0)
(8.62328 -0.120641 0)
(8.63466 -0.12496 0)
(8.64535 -0.129278 0)
(8.6554 -0.13362 0)
(8.66484 -0.138007 0)
(8.6737 -0.142453 0)
(8.68202 -0.146971 0)
(8.68982 -0.151565 0)
(8.69713 -0.156238 0)
(8.704 -0.160989 0)
(8.71044 -0.165812 0)
(8.71649 -0.170699 0)
(8.72219 -0.175643 0)
(8.72757 -0.180629 0)
(8.33342 -0.0050627 0)
(8.33774 -0.0150787 0)
(8.34683 -0.0248933 0)
(8.35958 -0.0344912 0)
(8.37492 -0.0438104 0)
(8.39215 -0.0527656 0)
(8.41065 -0.0612755 0)
(8.42985 -0.0692779 0)
(8.44928 -0.0767355 0)
(8.4686 -0.0836381 0)
(8.48756 -0.0900001 0)
(8.50597 -0.0958557 0)
(8.5237 -0.101253 0)
(8.54067 -0.10625 0)
(8.55682 -0.110907 0)
(8.57215 -0.115288 0)
(8.58663 -0.119453 0)
(8.6003 -0.123459 0)
(8.61316 -0.127357 0)
(8.62524 -0.131195 0)
(8.63658 -0.135011 0)
(8.64722 -0.138839 0)
(8.65718 -0.142708 0)
(8.66651 -0.146639 0)
(8.67524 -0.150647 0)
(8.68341 -0.154746 0)
(8.69106 -0.158942 0)
(8.69821 -0.163238 0)
(8.70492 -0.167634 0)
(8.7112 -0.172128 0)
(8.7171 -0.176714 0)
(8.72264 -0.181387 0)
(8.72789 -0.186135 0)
(8.33343 -0.00669584 0)
(8.33779 -0.019881 0)
(8.34701 -0.0325437 0)
(8.35996 -0.0445519 0)
(8.37556 -0.0558229 0)
(8.39314 -0.0662954 0)
(8.41205 -0.0759302 0)
(8.4317 -0.0847179 0)
(8.4516 -0.0926765 0)
(8.47139 -0.0998468 0)
(8.4908 -0.106288 0)
(8.50963 -0.112074 0)
(8.52773 -0.117285 0)
(8.54502 -0.122006 0)
(8.56144 -0.126322 0)
(8.57697 -0.130313 0)
(8.59161 -0.134054 0)
(8.60537 -0.137616 0)
(8.61828 -0.141058 0)
(8.63037 -0.144435 0)
(8.64168 -0.147792 0)
(8.65224 -0.151167 0)
(8.6621 -0.15459 0)
(8.6713 -0.158087 0)
(8.67988 -0.161676 0)
(8.68788 -0.165371 0)
(8.69535 -0.169179 0)
(8.70232 -0.173106 0)
(8.70882 -0.177153 0)
(8.7149 -0.18132 0)
(8.72059 -0.185602 0)
(8.72593 -0.189997 0)
(8.73096 -0.194493 0)
(8.33344 -0.00841704 0)
(8.33797 -0.0249375 0)
(8.34753 -0.0405842 0)
(8.36095 -0.0550884 0)
(8.3771 -0.06833 0)
(8.39529 -0.080259 0)
(8.41484 -0.0908772 0)
(8.43513 -0.100237 0)
(8.45567 -0.108429 0)
(8.47607 -0.115563 0)
(8.49605 -0.121761 0)
(8.51539 -0.127149 0)
(8.53395 -0.131854 0)
(8.55164 -0.135994 0)
(8.56839 -0.139681 0)
(8.58419 -0.143018 0)
(8.59903 -0.146097 0)
(8.61293 -0.148997 0)
(8.62593 -0.151789 0)
(8.63805 -0.154531 0)
(8.64934 -0.157275 0)
(8.65985 -0.16006 0)
(8.66962 -0.162921 0)
(8.6787 -0.165882 0)
(8.68714 -0.168964 0)
(8.69497 -0.17218 0)
(8.70226 -0.17554 0)
(8.70903 -0.17905 0)
(8.71533 -0.182712 0)
(8.7212 -0.186526 0)
(8.72669 -0.190489 0)
(8.73182 -0.194601 0)
(8.73664 -0.19885 0)
(8.33348 -0.010283 0)
(8.33832 -0.0304322 0)
(8.34854 -0.0493548 0)
(8.36285 -0.0666645 0)
(8.38004 -0.082229 0)
(8.39932 -0.0960179 0)
(8.41999 -0.108062 0)
(8.44136 -0.118454 0)
(8.46291 -0.12733 0)
(8.48423 -0.13485 0)
(8.50502 -0.141183 0)
(8.52507 -0.146501 0)
(8.54423 -0.150973 0)
(8.5624 -0.154755 0)
(8.57954 -0.157992 0)
(8.59563 -0.160811 0)
(8.61068 -0.163328 0)
(8.62472 -0.165641 0)
(8.63778 -0.167833 0)
(8.64991 -0.169974 0)
(8.66116 -0.172123 0)
(8.67158 -0.174327 0)
(8.68122 -0.176623 0)
(8.69014 -0.17904 0)
(8.69838 -0.181599 0)
(8.70601 -0.184318 0)
(8.71306 -0.187205 0)
(8.71958 -0.190268 0)
(8.72563 -0.19351 0)
(8.73123 -0.196931 0)
(8.73643 -0.200529 0)
(8.74127 -0.204302 0)
(8.74578 -0.208237 0)
(8.33352 -0.0123537 0)
(8.3388 -0.0364803 0)
(8.34991 -0.0588586 0)
(8.36537 -0.0789187 0)
(8.38381 -0.0965076 0)
(8.40441 -0.111647 0)
(8.4264 -0.12446 0)
(8.44905 -0.135152 0)
(8.47182 -0.143967 0)
(8.49426 -0.151158 0)
(8.51608 -0.15697 0)
(8.53703 -0.161633 0)
(8.55697 -0.165362 0)
(8.5758 -0.168348 0)
(8.59348 -0.17076 0)
(8.61 -0.172747 0)
(8.62538 -0.174435 0)
(8.63965 -0.175935 0)
(8.65286 -0.177338 0)
(8.66506 -0.178718 0)
(8.67631 -0.180139 0)
(8.68667 -0.18165 0)
(8.69622 -0.183289 0)
(8.70499 -0.185088 0)
(8.71307 -0.187069 0)
(8.72049 -0.189248 0)
(8.72732 -0.191636 0)
(8.7336 -0.19424 0)
(8.73939 -0.197061 0)
(8.74473 -0.200102 0)
(8.74966 -0.203359 0)
(8.75423 -0.206832 0)
(8.75849 -0.210506 0)
(8.3336 -0.0147425 0)
(8.33966 -0.0435507 0)
(8.35233 -0.0701839 0)
(8.3698 -0.0939476 0)
(8.39041 -0.114677 0)
(8.41319 -0.132369 0)
(8.43724 -0.14713 0)
(8.46177 -0.15919 0)
(8.48619 -0.168852 0)
(8.51006 -0.176442 0)
(8.53308 -0.182283 0)
(8.55504 -0.186683 0)
(8.5758 -0.189928 0)
(8.59529 -0.19227 0)
(8.61348 -0.193929 0)
(8.63038 -0.195094 0)
(8.64602 -0.195926 0)
(8.66045 -0.196557 0)
(8.67374 -0.197095 0)
(8.68593 -0.197629 0)
(8.69712 -0.19823 0)
(8.70737 -0.198952 0)
(8.71674 -0.199837 0)
(8.72531 -0.200917 0)
(8.73314 -0.202216 0)
(8.74029 -0.203749 0)
(8.74683 -0.205527 0)
(8.7528 -0.207555 0)
(8.75826 -0.209837 0)
(8.76325 -0.21237 0)
(8.76782 -0.215152 0)
(8.77201 -0.218178 0)
(8.77586 -0.221432 0)
(8.33366 -0.0175115 0)
(8.34048 -0.0514192 0)
(8.35474 -0.0820046 0)
(8.37422 -0.108403 0)
(8.39703 -0.130665 0)
(8.42213 -0.14906 0)
(8.44856 -0.163935 0)
(8.4754 -0.175719 0)
(8.50198 -0.184847 0)
(8.52782 -0.19173 0)
(8.55258 -0.19675 0)
(8.57604 -0.200254 0)
(8.59806 -0.202553 0)
(8.61859 -0.20392 0)
(8.63761 -0.204591 0)
(8.65515 -0.204771 0)
(8.67127 -0.204629 0)
(8.68604 -0.20431 0)
(8.69953 -0.20393 0)
(8.71184 -0.203584 0)
(8.72305 -0.203346 0)
(8.73324 -0.203277 0)
(8.74251 -0.203421 0)
(8.75092 -0.20381 0)
(8.75855 -0.204469 0)
(8.76547 -0.205415 0)
(8.77174 -0.206656 0)
(8.77743 -0.208199 0)
(8.78259 -0.210044 0)
(8.78727 -0.21219 0)
(8.79153 -0.214632 0)
(8.79541 -0.217366 0)
(8.79896 -0.220369 0)
(8.3339 -0.0210424 0)
(8.34275 -0.0621555 0)
(8.3606 -0.0995176 0)
(8.3842 -0.131935 0)
(8.41098 -0.159211 0)
(8.43968 -0.181399 0)
(8.46924 -0.198821 0)
(8.49875 -0.212047 0)
(8.52758 -0.221717 0)
(8.55531 -0.228442 0)
(8.58165 -0.232792 0)
(8.60642 -0.235276 0)
(8.6295 -0.236332 0)
(8.65088 -0.236331 0)
(8.67056 -0.235579 0)
(8.6886 -0.23433 0)
(8.70506 -0.232786 0)
(8.72004 -0.231112 0)
(8.73362 -0.229436 0)
(8.74591 -0.227858 0)
(8.75702 -0.226455 0)
(8.76702 -0.225284 0)
(8.77603 -0.224389 0)
(8.78413 -0.223797 0)
(8.79139 -0.223531 0)
(8.7979 -0.223602 0)
(8.80372 -0.224017 0)
(8.80892 -0.22478 0)
(8.81356 -0.22589 0)
(8.8177 -0.227342 0)
(8.82138 -0.229129 0)
(8.82465 -0.231245 0)
(8.82755 -0.233662 0)
(8.33386 -0.0250731 0)
(8.34354 -0.0723108 0)
(8.36379 -0.112627 0)
(8.39078 -0.145786 0)
(8.42163 -0.172873 0)
(8.45487 -0.194563 0)
(8.48902 -0.211416 0)
(8.52283 -0.224082 0)
(8.5555 -0.233185 0)
(8.58656 -0.23929 0)
(8.61567 -0.242933 0)
(8.64266 -0.244607 0)
(8.66748 -0.24475 0)
(8.69015 -0.243748 0)
(8.71074 -0.241932 0)
(8.72935 -0.23958 0)
(8.74611 -0.236924 0)
(8.76116 -0.234149 0)
(8.77463 -0.231405 0)
(8.78665 -0.228806 0)
(8.79736 -0.22644 0)
(8.80687 -0.224372 0)
(8.8153 -0.222647 0)
(8.82275 -0.221297 0)
(8.82933 -0.22034 0)
(8.83511 -0.219789 0)
(8.84017 -0.219648 0)
(8.84459 -0.219917 0)
(8.84843 -0.220593 0)
(8.85176 -0.221671 0)
(8.85463 -0.223141 0)
(8.85711 -0.224997 0)
(8.85927 -0.227201 0)
(8.33497 -0.0319235 0)
(8.35124 -0.0944591 0)
(8.38016 -0.149006 0)
(8.4146 -0.193467 0)
(8.45113 -0.228214 0)
(8.48882 -0.254069 0)
(8.52651 -0.272356 0)
(8.56312 -0.284556 0)
(8.59803 -0.291949 0)
(8.63083 -0.295608 0)
(8.66125 -0.296435 0)
(8.68918 -0.295166 0)
(8.71461 -0.292392 0)
(8.73761 -0.288583 0)
(8.75831 -0.284115 0)
(8.77685 -0.279281 0)
(8.79341 -0.274313 0)
(8.80816 -0.26939 0)
(8.82128 -0.264648 0)
(8.83294 -0.260188 0)
(8.84329 -0.256085 0)
(8.85248 -0.252391 0)
(8.86063 -0.249141 0)
(8.86788 -0.246354 0)
(8.87431 -0.244043 0)
(8.88003 -0.24221 0)
(8.88512 -0.240856 0)
(8.88964 -0.239977 0)
(8.89368 -0.239569 0)
(8.89729 -0.239629 0)
(8.90053 -0.24015 0)
(8.90346 -0.241129 0)
(8.90614 -0.242525 0)
(8.33402 -0.0368783 0)
(8.34979 -0.100544 0)
(8.38355 -0.150393 0)
(8.42607 -0.191172 0)
(8.47187 -0.224871 0)
(8.51852 -0.251234 0)
(8.56392 -0.270715 0)
(8.6069 -0.284211 0)
(8.64711 -0.292578 0)
(8.68451 -0.296688 0)
(8.71915 -0.297426 0)
(8.75118 -0.295607 0)
(8.78081 -0.291935 0)
(8.80822 -0.287007 0)
(8.83359 -0.28131 0)
(8.85709 -0.275228 0)
(8.87886 -0.269062 0)
(8.89906 -0.263035 0)
(8.91782 -0.257313 0)
(8.93526 -0.252011 0)
(8.95151 -0.24721 0)
(8.96668 -0.242956 0)
(8.98086 -0.239278 0)
(8.99414 -0.236184 0)
(9.00663 -0.233673 0)
(9.01838 -0.231737 0)
(9.02947 -0.230363 0)
(9.03995 -0.229539 0)
(9.04989 -0.229258 0)
(9.05934 -0.229513 0)
(9.06836 -0.230313 0)
(9.07702 -0.231664 0)
(9.08542 -0.233545 0)
(8.33958 -0.06095 0)
(8.37693 -0.171129 0)
(8.42593 -0.250425 0)
(8.47543 -0.304465 0)
(8.52751 -0.340375 0)
(8.58371 -0.362559 0)
(8.64249 -0.37513 0)
(8.70258 -0.381191 0)
(8.76306 -0.382702 0)
(8.82285 -0.380992 0)
(8.88097 -0.377003 0)
(8.93668 -0.371402 0)
(8.98943 -0.364684 0)
(9.03888 -0.357232 0)
(9.08485 -0.349354 0)
(9.12728 -0.341302 0)
(9.16624 -0.333286 0)
(9.20184 -0.325478 0)
(9.23427 -0.318014 0)
(9.26374 -0.310999 0)
(9.29046 -0.304511 0)
(9.31466 -0.298602 0)
(9.33656 -0.293304 0)
(9.35635 -0.288632 0)
(9.37422 -0.28459 0)
(9.39033 -0.281169 0)
(9.40482 -0.278359 0)
(9.41783 -0.276151 0)
(9.42945 -0.274545 0)
(9.43976 -0.273545 0)
(9.44887 -0.273213 0)
(9.45682 -0.273558 0)
(9.46383 -0.274804 0)
(8.33757 -0.0468805 0)
(8.39335 -0.122035 0)
(8.49345 -0.186851 0)
(8.60811 -0.249595 0)
(8.72986 -0.303779 0)
(8.85319 -0.346239 0)
(8.97116 -0.377692 0)
(9.07961 -0.399019 0)
(9.1763 -0.411358 0)
(9.25997 -0.416283 0)
(9.33031 -0.415407 0)
(9.38774 -0.410179 0)
(9.43309 -0.401851 0)
(9.46746 -0.391463 0)
(9.49203 -0.379844 0)
(9.50804 -0.367645 0)
(9.51664 -0.355357 0)
(9.5189 -0.343343 0)
(9.51579 -0.331862 0)
(9.50814 -0.321087 0)
(9.49669 -0.311124 0)
(9.48205 -0.30203 0)
(9.46475 -0.293824 0)
(9.44522 -0.286492 0)
(9.42383 -0.280004 0)
(9.40086 -0.274309 0)
(9.37654 -0.269352 0)
(9.35104 -0.265073 0)
(9.32449 -0.261423 0)
(9.29689 -0.258365 0)
(9.2684 -0.255981 0)
(9.23865 -0.254198 0)
(9.20843 -0.254158 0)
(8.40928 -0.221693 0)
(8.63503 -0.429507 0)
(8.83302 -0.524638 0)
(8.97624 -0.586181 0)
(9.06898 -0.619938 0)
(9.1102 -0.631507 0)
(9.10413 -0.628454 0)
(9.06016 -0.614837 0)
(8.98712 -0.593479 0)
(8.89244 -0.566936 0)
(8.78257 -0.537259 0)
(8.66288 -0.506027 0)
(8.53754 -0.474463 0)
(8.40974 -0.443483 0)
(8.28186 -0.413736 0)
(8.1556 -0.385653 0)
(8.03212 -0.359495 0)
(7.9122 -0.335391 0)
(7.79628 -0.313373 0)
(7.6846 -0.293405 0)
(7.57722 -0.275402 0)
(7.47407 -0.259251 0)
(7.37502 -0.244815 0)
(7.2799 -0.231952 0)
(7.18848 -0.220507 0)
(7.10054 -0.210328 0)
(7.01584 -0.20125 0)
(6.93411 -0.193117 0)
(6.8551 -0.185734 0)
(6.77843 -0.178921 0)
(6.70371 -0.172548 0)
(6.62993 -0.165653 0)
(6.5574 -0.162187 0)
(8.13698 -0.207407 0)
(7.84698 -0.388705 0)
(7.38347 -0.440409 0)
(6.85629 -0.441326 0)
(6.35447 -0.41025 0)
(5.8809 -0.361482 0)
(5.43822 -0.307311 0)
(5.03382 -0.254139 0)
(4.66879 -0.205193 0)
(4.34117 -0.162096 0)
(4.04861 -0.125297 0)
(3.78828 -0.0945755 0)
(3.557 -0.0693929 0)
(3.35162 -0.0490585 0)
(3.16917 -0.0328465 0)
(3.00685 -0.0200703 0)
(2.86213 -0.0101164 0)
(2.73274 -0.00245584 0)
(2.61666 0.00335682 0)
(2.51212 0.00769007 0)
(2.41757 0.0108457 0)
(2.33165 0.0130693 0)
(2.25319 0.0145607 0)
(2.1812 0.015483 0)
(2.1148 0.0159753 0)
(2.05329 0.0161565 0)
(1.99601 0.0161592 0)
(1.94256 0.0161112 0)
(1.89237 0.016267 0)
(1.84574 0.0169455 0)
(1.8015 0.0185911 0)
(1.76237 0.0239459 0)
(1.72532 0.0190698 0)
(1.68221 0.0255176 0)