/*--------------------------------*- C++ -*----------------------------------*\
| =========                 |                                                 |
| \\      /  F ield         | OpenFOAM: The Open Source CFD Toolbox           |
|  \\    /   O peration     | Version:  2.1.1                                 |
|   \\  /    A nd           | Web:      www.OpenFOAM.org                      |
|    \\/     M anipulation  |                                                 |
\*---------------------------------------------------------------------------*/
FoamFile
{
    version     2.0;
    format      ascii;
    class       volScalarField;
    location    "0.045";
    object      nuSgs;
}
// * * * * * * * * * * * * * * * * * * * * * * * * * * * * * * * * * * * * * //

dimensions      [0 2 -1 0 0 0 0];

internalField   nonuniform List<scalar> 
6820
(
0.000556015
0.000457405
0.00036812
0.000306076
0.000268844
0.000243181
0.000224277
0.000209803
0.000198097
0.000188254
0.000179758
0.000172278
0.000165592
0.000159546
0.000154025
0.000148946
0.000144242
0.000139864
0.000135771
0.00013193
0.000128316
0.000124908
0.000121685
0.000118634
0.000115741
0.000112992
0.000110377
0.000107887
0.000105503
0.000103224
0.000101027
9.86873e-05
9.69652e-05
0.000103499
0.000170668
0.00022366
0.000240033
0.000235276
0.00022491
0.000213207
0.000201911
0.000191664
0.000182484
0.00017425
0.00016683
0.000160101
0.000153959
0.00014832
0.000143114
0.000138285
0.000133786
0.000129574
0.000125619
0.00012189
0.000118364
0.000115022
0.000111845
0.00010882
0.000105932
0.000103176
0.00010054
9.80375e-05
9.56252e-05
9.34989e-05
9.12726e-05
9.1148e-05
3.67748e-05
2.84747e-05
4.56261e-05
8.23238e-05
0.000107985
0.000123605
0.00013206
0.000135941
0.000137072
0.000136525
0.00013494
0.000132713
0.000130093
0.000127245
0.000124276
0.000121256
0.000118233
0.000115237
0.000112291
0.000109406
0.000106591
0.000103851
0.000101188
9.86013e-05
9.60921e-05
9.366e-05
9.13051e-05
8.9027e-05
8.68347e-05
8.47295e-05
8.27679e-05
8.08824e-05
7.95272e-05
2.07368e-05
2.8682e-05
2.65549e-05
1.50753e-05
3.65015e-06
1.38924e-05
2.57515e-05
3.5611e-05
4.35729e-05
4.99101e-05
5.48966e-05
5.87753e-05
6.17471e-05
6.39686e-05
6.55729e-05
6.66697e-05
6.73491e-05
6.76849e-05
6.7738e-05
6.75583e-05
6.71868e-05
6.66576e-05
6.59986e-05
6.52335e-05
6.4382e-05
6.34612e-05
6.24868e-05
6.14727e-05
6.04377e-05
5.93938e-05
5.83796e-05
5.73843e-05
5.65567e-05
1.44207e-05
1.75828e-05
2.26023e-05
2.42979e-05
2.39723e-05
2.19955e-05
1.91061e-05
1.58424e-05
1.24366e-05
9.03896e-06
5.75803e-06
2.68105e-06
7.31326e-07
3.06718e-06
5.47766e-06
7.67018e-06
9.63694e-06
1.13856e-05
1.29281e-05
1.4278e-05
1.54496e-05
1.64567e-05
1.7313e-05
1.80313e-05
1.86239e-05
1.91029e-05
1.94799e-05
1.97662e-05
1.9975e-05
2.01152e-05
2.0202e-05
2.02191e-05
2.01735e-05
1.09209e-05
1.2496e-05
1.38188e-05
1.43266e-05
1.51101e-05
1.57481e-05
1.61253e-05
1.63343e-05
1.63787e-05
1.6263e-05
1.6011e-05
1.56459e-05
1.51908e-05
1.46603e-05
1.40735e-05
1.3448e-05
1.27991e-05
1.21401e-05
1.14816e-05
1.08326e-05
1.01996e-05
9.58822e-06
9.00228e-06
8.44468e-06
7.91729e-06
7.42125e-06
6.95695e-06
6.52504e-06
6.12543e-06
5.76362e-06
5.44564e-06
5.20849e-06
5.0876e-06
8.24579e-06
9.42706e-06
1.02441e-05
1.00405e-05
9.8495e-06
9.67014e-06
9.48553e-06
9.39816e-06
9.39709e-06
9.43822e-06
9.49465e-06
9.54853e-06
9.58844e-06
9.61211e-06
9.61702e-06
9.60202e-06
9.56727e-06
9.51379e-06
9.44305e-06
9.3568e-06
9.25686e-06
9.14506e-06
9.02317e-06
8.89285e-06
8.75565e-06
8.61315e-06
8.46698e-06
8.3198e-06
8.17468e-06
8.04055e-06
7.92665e-06
7.86727e-06
7.88688e-06
6.36277e-06
7.40881e-06
8.21318e-06
8.07447e-06
7.76239e-06
7.42133e-06
7.0425e-06
6.71732e-06
6.46471e-06
6.26411e-06
6.10287e-06
5.97208e-06
5.86296e-06
5.769e-06
5.68599e-06
5.61092e-06
5.54138e-06
5.47551e-06
5.41195e-06
5.34967e-06
5.28798e-06
5.22639e-06
5.16464e-06
5.10264e-06
5.0405e-06
4.97874e-06
4.91833e-06
4.86156e-06
4.81188e-06
4.7773e-06
4.76758e-06
4.80504e-06
4.91029e-06
5.00324e-06
5.85966e-06
6.53925e-06
6.53085e-06
6.36127e-06
6.15235e-06
5.86819e-06
5.58116e-06
5.32978e-06
5.11041e-06
4.91837e-06
4.7503e-06
4.60147e-06
4.4678e-06
4.34651e-06
4.2355e-06
4.13311e-06
4.0381e-06
3.94955e-06
3.86673e-06
3.78911e-06
3.71629e-06
3.64802e-06
3.58424e-06
3.52514e-06
3.47132e-06
3.42392e-06
3.38528e-06
3.35882e-06
3.35092e-06
3.36899e-06
3.42509e-06
3.532e-06
3.99873e-06
4.70911e-06
5.30672e-06
5.37531e-06
5.27122e-06
5.1217e-06
4.90437e-06
4.67428e-06
4.46914e-06
4.28814e-06
4.12682e-06
3.98309e-06
3.85395e-06
3.73653e-06
3.62888e-06
3.52961e-06
3.43766e-06
3.35218e-06
3.27254e-06
3.19825e-06
3.12893e-06
3.06436e-06
3.00446e-06
2.94933e-06
2.89931e-06
2.85515e-06
2.81806e-06
2.79012e-06
2.77419e-06
2.77465e-06
2.7962e-06
2.84439e-06
2.9271e-06
3.24038e-06
3.83739e-06
4.36432e-06
4.47378e-06
4.41767e-06
4.31663e-06
4.1551e-06
3.97001e-06
3.79609e-06
3.63775e-06
3.4937e-06
3.36399e-06
3.24732e-06
3.14171e-06
3.04558e-06
2.95768e-06
2.87697e-06
2.80258e-06
2.73387e-06
2.67031e-06
2.61155e-06
2.55737e-06
2.5077e-06
2.46265e-06
2.42255e-06
2.38806e-06
2.3602e-06
2.34053e-06
2.331e-06
2.33422e-06
2.35263e-06
2.38761e-06
2.44367e-06
2.65509e-06
3.16276e-06
3.63705e-06
3.78096e-06
3.76984e-06
3.70664e-06
3.58406e-06
3.43047e-06
3.27891e-06
3.13781e-06
3.00775e-06
2.88957e-06
2.78279e-06
2.68602e-06
2.598e-06
2.51771e-06
2.44428e-06
2.37696e-06
2.31518e-06
2.25849e-06
2.20653e-06
2.15909e-06
2.11608e-06
2.07754e-06
2.04371e-06
2.01504e-06
1.9922e-06
1.97613e-06
1.96786e-06
1.96853e-06
1.97887e-06
1.99809e-06
2.02856e-06
2.19322e-06
2.63284e-06
3.06822e-06
3.23647e-06
3.25999e-06
3.22637e-06
3.13653e-06
3.01279e-06
2.88402e-06
2.76018e-06
2.64325e-06
2.53496e-06
2.43589e-06
2.34549e-06
2.26303e-06
2.18784e-06
2.11924e-06
2.05663e-06
1.99946e-06
1.9473e-06
1.8998e-06
1.85669e-06
1.81782e-06
1.78315e-06
1.75274e-06
1.72679e-06
1.70558e-06
1.68946e-06
1.67871e-06
1.67339e-06
1.67318e-06
1.67625e-06
1.68363e-06
1.82116e-06
2.21001e-06
2.61656e-06
2.8039e-06
2.85738e-06
2.84998e-06
2.78761e-06
2.68866e-06
2.57848e-06
2.46839e-06
2.362e-06
2.26188e-06
2.16935e-06
2.08443e-06
2.00674e-06
1.9358e-06
1.87108e-06
1.81204e-06
1.75821e-06
1.70917e-06
1.66455e-06
1.62407e-06
1.5875e-06
1.55468e-06
1.52551e-06
1.49993e-06
1.47785e-06
1.45917e-06
1.44357e-06
1.43046e-06
1.41888e-06
1.40672e-06
1.39411e-06
1.51543e-06
1.86797e-06
2.25397e-06
2.45698e-06
2.5355e-06
2.54996e-06
2.50991e-06
2.43187e-06
2.33827e-06
2.24092e-06
2.14445e-06
2.05193e-06
1.96518e-06
1.88475e-06
1.81062e-06
1.74257e-06
1.68028e-06
1.62333e-06
1.57131e-06
1.52385e-06
1.48056e-06
1.44113e-06
1.40524e-06
1.37263e-06
1.343e-06
1.31608e-06
1.29149e-06
1.26876e-06
1.24722e-06
1.22588e-06
1.20348e-06
1.17798e-06
1.14889e-06
1.25937e-06
1.5879e-06
1.96008e-06
2.1764e-06
2.27632e-06
2.31009e-06
2.28944e-06
2.22967e-06
2.15068e-06
2.0643e-06
1.97608e-06
1.88964e-06
1.80731e-06
1.73014e-06
1.65846e-06
1.59229e-06
1.53144e-06
1.4756e-06
1.42441e-06
1.3775e-06
1.3345e-06
1.29502e-06
1.25869e-06
1.22511e-06
1.19389e-06
1.16453e-06
1.13648e-06
1.10903e-06
1.08127e-06
1.05206e-06
1.02002e-06
9.83339e-07
9.41067e-07
1.04095e-06
1.35631e-06
1.7204e-06
1.9485e-06
2.06696e-06
2.11776e-06
2.11378e-06
2.06963e-06
2.00331e-06
1.92657e-06
1.84561e-06
1.76451e-06
1.68599e-06
1.61146e-06
1.54155e-06
1.47647e-06
1.4162e-06
1.36054e-06
1.3092e-06
1.26184e-06
1.21809e-06
1.17755e-06
1.13978e-06
1.10433e-06
1.07069e-06
1.03826e-06
1.00635e-06
9.74136e-07
9.4062e-07
9.04634e-07
8.64802e-07
8.1959e-07
7.67696e-07
8.51395e-07
1.16366e-06
1.52465e-06
1.76342e-06
1.89803e-06
1.96403e-06
1.97476e-06
1.94438e-06
1.88937e-06
1.82122e-06
1.74659e-06
1.66996e-06
1.59438e-06
1.52163e-06
1.45262e-06
1.3878e-06
1.3273e-06
1.27104e-06
1.21879e-06
1.17025e-06
1.12506e-06
1.08281e-06
1.04304e-06
1.00524e-06
9.68842e-07
9.33203e-07
8.97575e-07
8.61102e-07
8.22793e-07
7.8155e-07
7.361e-07
6.85224e-07
6.27425e-07
6.84504e-07
1.00355e-06
1.36564e-06
1.61421e-06
1.76297e-06
1.84256e-06
1.86634e-06
1.84804e-06
1.80298e-06
1.74236e-06
1.67316e-06
1.60024e-06
1.52697e-06
1.45539e-06
1.3867e-06
1.32154e-06
1.2602e-06
1.20269e-06
1.1489e-06
1.09855e-06
1.05134e-06
1.00685e-06
9.64656e-07
9.24235e-07
8.85019e-07
8.46369e-07
8.07566e-07
7.67809e-07
7.26207e-07
6.81822e-07
6.33587e-07
5.80657e-07
5.21602e-07
5.36441e-07
8.72357e-07
1.23867e-06
1.49611e-06
1.65721e-06
1.74894e-06
1.78434e-06
1.77675e-06
1.74056e-06
1.68664e-06
1.62225e-06
1.55254e-06
1.48106e-06
1.41019e-06
1.34137e-06
1.27543e-06
1.21282e-06
1.15367e-06
1.09795e-06
1.04548e-06
9.95976e-07
9.49092e-07
9.04413e-07
8.61469e-07
8.19734e-07
7.78631e-07
7.37534e-07
6.95775e-07
6.5265e-07
6.0749e-07
5.59586e-07
5.08654e-07
4.53832e-07
4.06645e-07
7.69046e-07
1.141e-06
1.4061e-06
1.5778e-06
1.68026e-06
1.72598e-06
1.72783e-06
1.69943e-06
1.65135e-06
1.591e-06
1.52372e-06
1.45337e-06
1.38255e-06
1.31294e-06
1.24558e-06
1.18107e-06
1.1197e-06
1.06153e-06
1.00647e-06
9.54316e-07
9.04799e-07
8.57573e-07
8.12245e-07
7.68383e-07
7.25526e-07
6.83195e-07
6.40916e-07
5.98244e-07
5.54846e-07
5.10465e-07
4.65413e-07
4.19682e-07
3.01398e-07
6.95127e-07
1.07154e-06
1.34257e-06
1.5231e-06
1.63492e-06
1.68978e-06
1.70004e-06
1.67863e-06
1.63586e-06
1.57921e-06
1.51419e-06
1.44491e-06
1.37418e-06
1.30388e-06
1.23522e-06
1.16897e-06
1.10552e-06
1.04506e-06
9.87595e-07
9.33029e-07
8.81173e-07
8.31785e-07
7.84584e-07
7.39268e-07
6.95533e-07
6.53092e-07
6.11716e-07
5.71257e-07
5.31761e-07
4.93435e-07
4.57151e-07
4.23511e-07
2.42385e-07
6.54026e-07
1.03041e-06
1.30502e-06
1.49245e-06
1.61217e-06
1.67486e-06
1.69223e-06
1.67661e-06
1.63801e-06
1.58392e-06
1.52011e-06
1.45081e-06
1.37909e-06
1.30703e-06
1.23608e-06
1.16715e-06
1.10081e-06
1.03737e-06
9.76956e-07
9.19576e-07
8.6515e-07
8.13551e-07
7.64617e-07
7.18186e-07
6.74109e-07
6.32279e-07
5.92669e-07
5.55359e-07
5.20619e-07
4.88881e-07
4.61066e-07
4.37899e-07
2.60479e-07
6.49523e-07
1.01863e-06
1.29394e-06
1.48641e-06
1.6128e-06
1.68251e-06
1.70652e-06
1.69658e-06
1.66241e-06
1.61148e-06
1.5496e-06
1.48117e-06
1.4094e-06
1.33656e-06
1.26423e-06
1.19348e-06
1.12503e-06
1.0593e-06
9.96545e-07
9.36899e-07
8.80405e-07
8.27058e-07
7.76834e-07
7.29711e-07
6.85691e-07
6.44825e-07
6.07238e-07
5.73148e-07
5.42924e-07
5.17006e-07
4.96228e-07
4.80856e-07
3.478e-07
6.83633e-07
1.03764e-06
1.31045e-06
1.50576e-06
1.63694e-06
1.71176e-06
1.74026e-06
1.73368e-06
1.70149e-06
1.65119e-06
1.58877e-06
1.51885e-06
1.44484e-06
1.36923e-06
1.2938e-06
1.21978e-06
1.148e-06
1.07902e-06
1.01319e-06
9.50737e-07
8.91795e-07
8.36451e-07
7.84768e-07
7.36812e-07
6.92668e-07
6.52454e-07
6.16338e-07
5.84535e-07
5.5733e-07
5.35008e-07
5.18013e-07
5.06431e-07
4.74817e-07
7.55634e-07
1.089e-06
1.35681e-06
1.55379e-06
1.68972e-06
1.77048e-06
1.80509e-06
1.80409e-06
1.77655e-06
1.72975e-06
1.66962e-06
1.60083e-06
1.52691e-06
1.45051e-06
1.37356e-06
1.29746e-06
1.22323e-06
1.15156e-06
1.08296e-06
1.01778e-06
9.56258e-07
8.98581e-07
8.44901e-07
7.95349e-07
7.50059e-07
7.09172e-07
6.72841e-07
6.41227e-07
6.14523e-07
5.92835e-07
5.76548e-07
5.65101e-07
6.28265e-07
8.64237e-07
1.17501e-06
1.43526e-06
1.63089e-06
1.76767e-06
1.84942e-06
1.8843e-06
1.88265e-06
1.85357e-06
1.80451e-06
1.74161e-06
1.6697e-06
1.59247e-06
1.51268e-06
1.43233e-06
1.35291e-06
1.27545e-06
1.20071e-06
1.12921e-06
1.06132e-06
9.97324e-07
9.37426e-07
8.81787e-07
8.30539e-07
7.83801e-07
7.41674e-07
7.04248e-07
6.71586e-07
6.43736e-07
6.20657e-07
6.0243e-07
5.88572e-07
8.06071e-07
1.00779e-06
1.2975e-06
1.55111e-06
1.74844e-06
1.89175e-06
1.98215e-06
2.02598e-06
2.0324e-06
2.00976e-06
1.96513e-06
1.90462e-06
1.83323e-06
1.75492e-06
1.67275e-06
1.58905e-06
1.50558e-06
1.42363e-06
1.34412e-06
1.26774e-06
1.19497e-06
1.12615e-06
1.06153e-06
1.00128e-06
9.45519e-07
8.94333e-07
8.47773e-07
8.05866e-07
7.68599e-07
7.35973e-07
7.07834e-07
6.84464e-07
6.64602e-07
1.01332e-06
1.19191e-06
1.46381e-06
1.70676e-06
1.89599e-06
2.03163e-06
2.11401e-06
2.14997e-06
2.14943e-06
2.1211e-06
2.07206e-06
2.00821e-06
1.93429e-06
1.85398e-06
1.77008e-06
1.68474e-06
1.59956e-06
1.51576e-06
1.43424e-06
1.35565e-06
1.28048e-06
1.20907e-06
1.14168e-06
1.07845e-06
1.01949e-06
9.64839e-07
9.1451e-07
8.68465e-07
8.26629e-07
7.88907e-07
7.55096e-07
7.25244e-07
6.9839e-07
1.25424e-06
1.41314e-06
1.67337e-06
1.91898e-06
2.12289e-06
2.27961e-06
2.38307e-06
2.43618e-06
2.44737e-06
2.4252e-06
2.37735e-06
2.31072e-06
2.23113e-06
2.14318e-06
2.05046e-06
1.95566e-06
1.86078e-06
1.76729e-06
1.67622e-06
1.58829e-06
1.50399e-06
1.42365e-06
1.34746e-06
1.27553e-06
1.20788e-06
1.14451e-06
1.08535e-06
1.03034e-06
9.79337e-07
9.32283e-07
8.88896e-07
8.49577e-07
8.1235e-07
1.54963e-06
1.70591e-06
1.95434e-06
2.17439e-06
2.34501e-06
2.46923e-06
2.54653e-06
2.58247e-06
2.58543e-06
2.56199e-06
2.51735e-06
2.45622e-06
2.38278e-06
2.30055e-06
2.21248e-06
2.12098e-06
2.02802e-06
1.93515e-06
1.84356e-06
1.75414e-06
1.66753e-06
1.58418e-06
1.50436e-06
1.42822e-06
1.35583e-06
1.28716e-06
1.22216e-06
1.16071e-06
1.10269e-06
1.04797e-06
9.96299e-07
9.47857e-07
9.01136e-07
1.89148e-06
2.02582e-06
2.28994e-06
2.56498e-06
2.80718e-06
2.99442e-06
3.11213e-06
3.16501e-06
3.16675e-06
3.12994e-06
3.06494e-06
2.98039e-06
2.88303e-06
2.7778e-06
2.66825e-06
2.55694e-06
2.4457e-06
2.3358e-06
2.22816e-06
2.12341e-06
2.02196e-06
1.92409e-06
1.82996e-06
1.73963e-06
1.6531e-06
1.57031e-06
1.49117e-06
1.41559e-06
1.34344e-06
1.2747e-06
1.20908e-06
1.14721e-06
1.08648e-06
2.37474e-06
2.5418e-06
2.75185e-06
2.90291e-06
3.02461e-06
3.13742e-06
3.23004e-06
3.29398e-06
3.32724e-06
3.3292e-06
3.30144e-06
3.24802e-06
3.17396e-06
3.08413e-06
2.98297e-06
2.87427e-06
2.76113e-06
2.64599e-06
2.5307e-06
2.4166e-06
2.30466e-06
2.19553e-06
2.08959e-06
1.98706e-06
1.88802e-06
1.79243e-06
1.70023e-06
1.61131e-06
1.52556e-06
1.44296e-06
1.36336e-06
1.2873e-06
1.21282e-06
2.85352e-06
2.97864e-06
3.38593e-06
3.81168e-06
4.13371e-06
4.33133e-06
4.41404e-06
4.41291e-06
4.35789e-06
4.26721e-06
4.1521e-06
4.02056e-06
3.87815e-06
3.72871e-06
3.57524e-06
3.4202e-06
3.26562e-06
3.11317e-06
2.96418e-06
2.81964e-06
2.68027e-06
2.54649e-06
2.41853e-06
2.29639e-06
2.17996e-06
2.069e-06
1.96322e-06
1.8623e-06
1.76596e-06
1.67408e-06
1.58639e-06
1.50397e-06
1.42372e-06
3.89687e-06
4.01418e-06
3.94265e-06
3.88321e-06
4.00127e-06
4.22518e-06
4.43096e-06
4.56881e-06
4.6354e-06
4.64053e-06
4.6006e-06
4.53355e-06
4.45385e-06
4.37145e-06
4.29245e-06
4.21992e-06
4.1548e-06
4.0967e-06
4.04455e-06
3.99705e-06
3.9529e-06
3.91094e-06
3.87018e-06
3.82982e-06
3.78921e-06
3.74781e-06
3.70519e-06
3.66103e-06
3.61513e-06
3.56752e-06
3.51839e-06
3.46952e-06
3.41894e-06
4.36074e-06
4.95175e-06
5.94439e-06
6.43691e-06
6.55859e-06
6.53892e-06
6.53141e-06
6.64019e-06
6.89449e-06
7.2624e-06
7.6944e-06
8.1463e-06
8.5845e-06
8.98659e-06
9.33982e-06
9.63848e-06
9.88152e-06
1.00708e-05
1.02101e-05
1.03038e-05
1.03567e-05
1.03738e-05
1.03595e-05
1.03178e-05
1.02526e-05
1.01669e-05
1.00633e-05
9.94385e-06
9.81036e-06
9.66396e-06
9.50641e-06
9.34011e-06
9.16592e-06
7.5551e-06
5.82855e-06
4.64291e-06
6.23938e-06
8.96792e-06
1.16735e-05
1.39995e-05
1.5886e-05
1.73326e-05
1.83543e-05
1.89885e-05
1.92836e-05
1.92894e-05
1.90554e-05
1.86286e-05
1.80513e-05
1.7361e-05
1.65894e-05
1.57632e-05
1.4904e-05
1.40291e-05
1.3152e-05
1.2283e-05
1.14295e-05
1.05969e-05
9.7885e-06
9.00606e-06
8.24966e-06
7.51874e-06
6.80951e-06
6.12252e-06
5.44608e-06
4.79469e-06
8.58315e-06
1.47294e-05
1.88283e-05
2.12265e-05
2.2311e-05
2.18355e-05
1.99769e-05
1.71886e-05
1.39392e-05
1.08506e-05
8.92905e-06
9.25677e-06
1.15896e-05
1.48324e-05
1.82988e-05
2.16871e-05
2.48665e-05
2.77811e-05
3.04117e-05
3.27582e-05
3.48309e-05
3.66459e-05
3.82222e-05
3.95794e-05
4.07375e-05
4.17156e-05
4.25321e-05
4.32051e-05
4.37519e-05
4.41945e-05
4.45483e-05
4.48722e-05
4.51554e-05
3.46412e-05
3.72181e-05
4.66543e-05
6.17737e-05
7.74703e-05
9.28543e-05
0.000107225
0.000119877
0.000130623
0.000139508
0.000146646
0.0001522
0.00015636
0.00015931
0.000161227
0.000162269
0.000162579
0.000162279
0.000161478
0.000160265
0.000158718
0.000156902
0.000154872
0.000152673
0.000150343
0.000147912
0.000145406
0.000142842
0.000140238
0.0001376
0.000134928
0.000132313
0.000129765
0.000608445
0.000582498
0.000556865
0.000530388
0.000504371
0.000479133
0.000454716
0.00043139
0.000409338
0.000388615
0.000369235
0.000351185
0.000334413
0.000318852
0.000304422
0.000291037
0.000278613
0.000267064
0.000256313
0.000246283
0.000236905
0.000228118
0.000219863
0.000212089
0.000204751
0.000197805
0.000191215
0.000184944
0.000178954
0.000173222
0.000167619
0.000162681
0.000158183
8.43349e-05
7.12345e-05
6.01665e-05
5.88412e-05
6.63889e-05
7.74232e-05
8.91732e-05
0.000101304
0.000111494
0.000116323
0.00010204
7.60603e-05
6.6119e-05
5.89749e-05
5.00639e-05
4.20986e-05
3.61881e-05
3.23773e-05
2.99396e-05
2.77154e-05
2.47724e-05
2.06638e-05
1.54944e-05
1.01194e-05
3.69211e-06
6.98358e-06
1.50885e-05
1.38344e-05
1.20744e-05
1.55773e-05
2.13373e-05
2.96977e-05
3.28648e-05
3.04182e-05
2.63192e-05
2.28529e-05
2.01741e-05
1.79657e-05
1.60581e-05
1.43877e-05
1.29168e-05
1.16125e-05
1.04486e-05
9.40635e-06
8.47131e-06
7.63117e-06
6.87473e-06
6.19196e-06
5.57408e-06
5.01357e-06
4.50404e-06
4.04021e-06
3.61788e-06
3.23387e-06
2.88541e-06
2.56924e-06
2.28093e-06
2.01571e-06
1.77109e-06
1.54964e-06
1.35897e-06
1.20693e-06
1.09465e-06
1.01408e-06
9.52504e-07
8.98814e-07
8.46324e-07
7.92751e-07
7.39374e-07
6.89365e-07
6.45364e-07
6.07519e-07
5.73228e-07
5.38651e-07
5.00858e-07
4.59254e-07
4.15543e-07
3.72587e-07
3.33028e-07
2.98391e-07
2.68946e-07
2.44161e-07
2.23223e-07
2.05382e-07
1.90253e-07
1.77456e-07
1.66732e-07
1.57836e-07
1.50525e-07
1.445e-07
1.39623e-07
1.35514e-07
1.32517e-07
1.29554e-07
1.28748e-07
1.25457e-07
1.29196e-07
1.20185e-07
1.36899e-07
1.1577e-07
0.000116663
0.000103493
9.18491e-05
8.7144e-05
8.68155e-05
8.89307e-05
9.28988e-05
9.85731e-05
0.000105005
0.000111348
0.000117931
0.000102938
7.30969e-05
5.90262e-05
5.20895e-05
4.37465e-05
3.65096e-05
3.18472e-05
2.89676e-05
2.64921e-05
2.34511e-05
1.93954e-05
1.46764e-05
9.25485e-06
5.0794e-06
1.31004e-05
1.5302e-05
9.54341e-06
1.2188e-05
1.63649e-05
2.5576e-05
3.2956e-05
3.32535e-05
2.95222e-05
2.55304e-05
2.24127e-05
1.9947e-05
1.78581e-05
1.60293e-05
1.44134e-05
1.29775e-05
1.16946e-05
1.05439e-05
9.50959e-06
8.57862e-06
7.73916e-06
6.98058e-06
6.29348e-06
5.66974e-06
5.10236e-06
4.58537e-06
4.11375e-06
3.68349e-06
3.29155e-06
2.93541e-06
2.61208e-06
2.31733e-06
2.04645e-06
1.79677e-06
1.57072e-06
1.37624e-06
1.22205e-06
1.11009e-06
1.03211e-06
9.74127e-07
9.2342e-07
8.72135e-07
8.17599e-07
7.61459e-07
7.07747e-07
6.60058e-07
6.19238e-07
5.82949e-07
5.47225e-07
5.08789e-07
4.66682e-07
4.22364e-07
3.78651e-07
3.3824e-07
3.02768e-07
2.7259e-07
2.47207e-07
2.25816e-07
2.07655e-07
1.92259e-07
1.79158e-07
1.68212e-07
1.59096e-07
1.51596e-07
1.45435e-07
1.40468e-07
1.36302e-07
1.33257e-07
1.30181e-07
1.29177e-07
1.25566e-07
1.28867e-07
1.1921e-07
1.35489e-07
1.1302e-07
0.000104506
0.000101587
9.58731e-05
9.08895e-05
8.70186e-05
8.43421e-05
8.38777e-05
8.63376e-05
9.09053e-05
9.58615e-05
0.000101417
0.000106979
9.43496e-05
6.73925e-05
5.10886e-05
4.49548e-05
3.87275e-05
3.24556e-05
2.78614e-05
2.45895e-05
2.13936e-05
1.76021e-05
1.32185e-05
9.17923e-06
1.2773e-05
1.63231e-05
9.52278e-06
8.01187e-06
1.22568e-05
2.01025e-05
3.09814e-05
3.50533e-05
3.26629e-05
2.83841e-05
2.47675e-05
2.20088e-05
1.97431e-05
1.77659e-05
1.60091e-05
1.44422e-05
1.30394e-05
1.17786e-05
1.06426e-05
9.61757e-06
8.69123e-06
7.8526e-06
7.09187e-06
6.40043e-06
5.7708e-06
5.19651e-06
4.67197e-06
4.19242e-06
3.75403e-06
3.35396e-06
2.98989e-06
2.65909e-06
2.35756e-06
2.08055e-06
1.82514e-06
1.59356e-06
1.39399e-06
1.23618e-06
1.12319e-06
1.04695e-06
9.9236e-07
9.45033e-07
8.95696e-07
8.40994e-07
7.82713e-07
7.25654e-07
6.74406e-07
6.30619e-07
5.92335e-07
5.55541e-07
5.16645e-07
4.74317e-07
4.29773e-07
3.85746e-07
3.4498e-07
3.09196e-07
2.78814e-07
2.53344e-07
2.31944e-07
2.13834e-07
1.98431e-07
1.85362e-07
1.74451e-07
1.65364e-07
1.579e-07
1.51785e-07
1.46905e-07
1.42852e-07
1.39953e-07
1.37035e-07
1.36201e-07
1.32711e-07
1.36097e-07
1.26446e-07
1.42782e-07
1.20145e-07
7.39888e-05
7.21902e-05
6.83848e-05
6.42459e-05
6.0208e-05
5.70133e-05
5.6074e-05
5.80217e-05
6.21141e-05
6.78832e-05
7.44952e-05
8.31672e-05
9.03622e-05
8.29904e-05
6.21132e-05
4.48381e-05
3.80298e-05
3.43579e-05
3.01364e-05
2.58441e-05
2.19985e-05
1.85618e-05
1.59513e-05
1.64098e-05
1.70852e-05
9.76065e-06
3.76509e-06
9.2999e-06
1.4408e-05
2.7478e-05
3.55132e-05
3.53316e-05
3.1246e-05
2.71695e-05
2.40814e-05
2.16436e-05
1.95405e-05
1.7661e-05
1.59741e-05
1.4458e-05
1.30912e-05
1.18557e-05
1.07373e-05
9.72342e-06
8.80313e-06
7.96636e-06
7.20424e-06
6.50902e-06
5.8739e-06
5.29295e-06
4.76099e-06
4.27354e-06
3.82702e-06
3.41874e-06
3.04661e-06
2.70815e-06
2.39958e-06
2.11615e-06
1.85469e-06
1.61719e-06
1.41213e-06
1.2503e-06
1.13604e-06
1.06163e-06
1.01093e-06
9.67759e-07
9.21248e-07
8.67147e-07
8.07217e-07
7.46955e-07
6.91989e-07
6.44886e-07
6.04181e-07
5.65873e-07
5.26069e-07
4.83057e-07
4.37787e-07
3.92892e-07
3.51178e-07
3.14468e-07
2.83272e-07
2.57128e-07
2.35181e-07
2.16616e-07
2.00855e-07
1.87538e-07
1.76291e-07
1.66962e-07
1.59296e-07
1.53019e-07
1.48024e-07
1.43887e-07
1.40952e-07
1.38002e-07
1.37205e-07
1.33675e-07
1.37188e-07
1.27371e-07
1.44064e-07
1.21061e-07
2.64457e-05
2.50482e-05
2.21254e-05
1.90402e-05
1.70844e-05
1.75905e-05
2.05545e-05
2.43871e-05
2.81299e-05
3.23648e-05
3.83944e-05
4.68183e-05
5.84183e-05
6.90582e-05
6.93374e-05
5.74436e-05
4.22979e-05
3.24808e-05
2.83016e-05
2.59176e-05
2.35779e-05
2.11522e-05
1.8725e-05
1.50602e-05
7.26587e-06
5.70157e-06
9.09066e-06
9.35429e-06
2.3585e-05
3.49556e-05
3.72806e-05
3.38839e-05
2.95149e-05
2.60955e-05
2.34945e-05
2.12968e-05
1.93247e-05
1.75382e-05
1.59225e-05
1.44592e-05
1.31311e-05
1.19239e-05
1.08253e-05
9.82451e-06
8.91163e-06
8.07781e-06
7.31522e-06
6.61695e-06
5.9769e-06
5.3897e-06
4.85058e-06
4.3554e-06
3.9008e-06
3.48432e-06
3.10408e-06
2.75787e-06
2.44211e-06
2.15205e-06
1.88428e-06
1.64048e-06
1.42933e-06
1.26267e-06
1.14633e-06
1.07324e-06
1.02636e-06
9.8773e-07
9.44705e-07
8.9192e-07
8.30911e-07
7.67773e-07
7.0918e-07
6.58705e-07
6.15483e-07
5.75614e-07
5.3495e-07
4.9141e-07
4.45661e-07
4.00227e-07
3.57943e-07
3.20724e-07
2.89146e-07
2.62767e-07
2.40705e-07
2.22103e-07
2.06328e-07
1.92977e-07
1.81705e-07
1.72357e-07
1.64676e-07
1.5839e-07
1.53402e-07
1.49277e-07
1.46379e-07
1.4345e-07
1.42721e-07
1.39186e-07
1.42824e-07
1.32871e-07
1.50015e-07
1.26733e-07
7.1776e-06
8.72079e-06
1.06221e-05
1.24188e-05
1.40389e-05
1.52513e-05
1.55571e-05
1.4593e-05
1.27111e-05
1.14154e-05
1.37598e-05
1.97508e-05
2.71425e-05
3.63397e-05
4.68824e-05
5.29886e-05
5.07087e-05
4.24199e-05
3.29427e-05
2.52423e-05
1.95239e-05
1.51085e-05
1.22736e-05
1.21841e-05
1.44286e-05
1.19016e-05
5.58652e-06
2.10464e-05
3.43987e-05
3.86005e-05
3.6043e-05
3.16086e-05
2.79375e-05
2.52124e-05
2.29657e-05
2.09436e-05
1.90896e-05
1.7397e-05
1.58543e-05
1.44466e-05
1.31602e-05
1.19839e-05
1.09074e-05
9.9213e-06
9.0172e-06
8.18748e-06
7.42536e-06
6.7248e-06
6.08038e-06
5.4873e-06
4.94126e-06
4.43848e-06
3.97588e-06
3.5512e-06
3.1628e-06
2.80871e-06
2.48558e-06
2.1887e-06
1.91436e-06
1.66395e-06
1.44629e-06
1.27427e-06
1.15539e-06
1.08345e-06
1.04066e-06
1.00721e-06
9.68526e-07
9.17901e-07
8.56449e-07
7.90753e-07
7.28546e-07
6.74496e-07
6.2845e-07
5.86692e-07
5.44857e-07
5.00494e-07
4.53964e-07
4.0766e-07
3.6444e-07
3.26311e-07
2.93936e-07
2.66905e-07
2.44323e-07
2.25297e-07
2.0917e-07
1.95517e-07
1.8406e-07
1.74496e-07
1.66644e-07
1.60222e-07
1.55134e-07
1.50931e-07
1.47994e-07
1.45019e-07
1.44307e-07
1.40704e-07
1.44457e-07
1.34267e-07
1.51838e-07
1.28014e-07
1.09231e-05
1.22327e-05
1.368e-05
1.47109e-05
1.5093e-05
1.47449e-05
1.36166e-05
1.1813e-05
9.78909e-06
8.45684e-06
9.27079e-06
1.31676e-05
1.86884e-05
2.28078e-05
2.48371e-05
2.85612e-05
3.42276e-05
3.7629e-05
3.70942e-05
3.38688e-05
2.98201e-05
2.65821e-05
2.389e-05
1.98556e-05
1.10065e-05
4.79154e-06
2.21972e-05
3.51314e-05
3.96062e-05
3.75045e-05
3.31879e-05
2.94488e-05
2.66973e-05
2.44676e-05
2.24495e-05
2.05707e-05
1.88342e-05
1.72379e-05
1.57707e-05
1.4421e-05
1.31791e-05
1.2036e-05
1.09834e-05
1.00136e-05
9.11972e-06
8.29531e-06
7.53466e-06
6.83256e-06
6.18434e-06
5.58577e-06
5.03306e-06
4.52283e-06
4.05228e-06
3.6194e-06
3.22276e-06
2.86065e-06
2.52996e-06
2.22599e-06
1.94482e-06
1.68743e-06
1.46271e-06
1.28462e-06
1.16242e-06
1.0911e-06
1.05233e-06
1.02446e-06
9.90816e-07
9.43139e-07
8.81896e-07
8.14032e-07
7.48317e-07
6.90594e-07
6.41537e-07
5.97713e-07
5.54601e-07
5.09397e-07
4.62155e-07
4.15121e-07
3.71162e-07
3.32367e-07
2.99473e-07
2.72094e-07
2.4931e-07
2.30188e-07
2.14023e-07
2.0035e-07
1.88872e-07
1.79296e-07
1.7146e-07
1.65051e-07
1.59995e-07
1.55829e-07
1.52951e-07
1.50019e-07
1.49394e-07
1.45798e-07
1.49701e-07
1.3936e-07
1.57426e-07
1.33245e-07
6.92944e-06
7.84937e-06
8.85106e-06
9.5879e-06
9.90544e-06
9.81697e-06
9.42601e-06
8.95706e-06
8.76768e-06
9.24634e-06
1.04393e-05
1.24772e-05
1.60357e-05
2.10504e-05
2.4953e-05
2.51633e-05
2.24725e-05
2.0224e-05
1.99737e-05
2.00977e-05
1.90578e-05
1.60266e-05
1.01408e-05
4.62915e-06
1.51822e-05
2.84397e-05
3.7634e-05
4.0357e-05
3.80391e-05
3.3972e-05
3.04377e-05
2.78289e-05
2.57104e-05
2.37625e-05
2.19126e-05
2.01759e-05
1.85611e-05
1.70629e-05
1.56728e-05
1.43834e-05
1.31881e-05
1.20802e-05
1.10534e-05
1.01016e-05
9.21933e-06
8.40147e-06
7.64327e-06
6.94042e-06
6.28896e-06
5.68531e-06
5.12619e-06
4.60864e-06
4.13021e-06
3.68911e-06
3.28415e-06
2.91389e-06
2.57542e-06
2.26413e-06
1.97583e-06
1.71112e-06
1.47887e-06
1.29406e-06
1.16789e-06
1.0968e-06
1.06212e-06
1.04035e-06
1.01259e-06
9.68761e-07
9.0848e-07
8.38901e-07
7.69811e-07
7.083e-07
6.55983e-07
6.09811e-07
5.65159e-07
5.18884e-07
4.70717e-07
4.22734e-07
3.77795e-07
3.38066e-07
3.04366e-07
2.76341e-07
2.53057e-07
2.3354e-07
2.17056e-07
2.03121e-07
1.91426e-07
1.81707e-07
1.73743e-07
1.67232e-07
1.6211e-07
1.57902e-07
1.55017e-07
1.52071e-07
1.51491e-07
1.47852e-07
1.51898e-07
1.4133e-07
1.59869e-07
1.35133e-07
5.00429e-06
5.64005e-06
6.32923e-06
6.86716e-06
7.1578e-06
7.22532e-06
7.17199e-06
7.1923e-06
7.56173e-06
8.51027e-06
1.00673e-05
1.20391e-05
1.43551e-05
1.75381e-05
2.19712e-05
2.63388e-05
2.86114e-05
2.81147e-05
2.57748e-05
2.31202e-05
2.13974e-05
2.16561e-05
2.47041e-05
3.03164e-05
3.63025e-05
3.99595e-05
3.99981e-05
3.72658e-05
3.37197e-05
3.07359e-05
2.84893e-05
2.65988e-05
2.47976e-05
2.30391e-05
2.13552e-05
1.97664e-05
1.8274e-05
1.68737e-05
1.55618e-05
1.43345e-05
1.31876e-05
1.21168e-05
1.11175e-05
1.01854e-05
9.31622e-06
8.50613e-06
7.7514e-06
7.04857e-06
6.39445e-06
5.78612e-06
5.22085e-06
4.69613e-06
4.20986e-06
3.76052e-06
3.34716e-06
2.96857e-06
2.62209e-06
2.3032e-06
2.00746e-06
1.73506e-06
1.49477e-06
1.30252e-06
1.17156e-06
1.1001e-06
1.06939e-06
1.05409e-06
1.03294e-06
9.93835e-07
9.35272e-07
8.64465e-07
7.92172e-07
7.26793e-07
6.70997e-07
6.22233e-07
5.75844e-07
5.2838e-07
4.79249e-07
4.30347e-07
3.84513e-07
3.43983e-07
3.09648e-07
2.81181e-07
2.57626e-07
2.37963e-07
2.21411e-07
2.07455e-07
1.95764e-07
1.86059e-07
1.78115e-07
1.71665e-07
1.66614e-07
1.62476e-07
1.59682e-07
1.56807e-07
1.56342e-07
1.52733e-07
1.56962e-07
1.46243e-07
1.6533e-07
1.40189e-07
4.10651e-06
4.53691e-06
4.99054e-06
5.34238e-06
5.52701e-06
5.57081e-06
5.58196e-06
5.75351e-06
6.3128e-06
7.39354e-06
8.97527e-06
1.09364e-05
1.30945e-05
1.53714e-05
1.80848e-05
2.16264e-05
2.56153e-05
2.90756e-05
3.14233e-05
3.28169e-05
3.3964e-05
3.54076e-05
3.71104e-05
3.84649e-05
3.86534e-05
3.73219e-05
3.49391e-05
3.24037e-05
3.02973e-05
2.86025e-05
2.70463e-05
2.54686e-05
2.38698e-05
2.23e-05
2.07897e-05
1.93474e-05
1.79745e-05
1.66715e-05
1.54386e-05
1.42747e-05
1.31781e-05
1.21461e-05
1.11761e-05
1.02653e-05
9.41068e-06
8.60959e-06
7.8593e-06
7.15727e-06
6.50108e-06
5.88848e-06
5.31731e-06
4.78556e-06
4.2915e-06
3.83389e-06
3.41202e-06
3.02492e-06
2.6702e-06
2.34341e-06
2.03991e-06
1.75943e-06
1.51059e-06
1.3102e-06
1.17363e-06
1.10121e-06
1.07436e-06
1.06597e-06
1.05224e-06
1.0188e-06
9.628e-07
8.91328e-07
8.16055e-07
7.46745e-07
6.8724e-07
6.35595e-07
5.87199e-07
5.3832e-07
4.88038e-07
4.38047e-07
3.91145e-07
3.49626e-07
3.14454e-07
2.85331e-07
2.61281e-07
2.41245e-07
2.24402e-07
2.10212e-07
1.98337e-07
1.88494e-07
1.80469e-07
1.7397e-07
1.68892e-07
1.64748e-07
1.61984e-07
1.59128e-07
1.58741e-07
1.55115e-07
1.59523e-07
1.48587e-07
1.68197e-07
1.42488e-07
3.38784e-06
3.66912e-06
3.95004e-06
4.15461e-06
4.24604e-06
4.26233e-06
4.31958e-06
4.60091e-06
5.28073e-06
6.41825e-06
7.95337e-06
9.78222e-06
1.17965e-05
1.38743e-05
1.59539e-05
1.81805e-05
2.07829e-05
2.37209e-05
2.66433e-05
2.91743e-05
3.11606e-05
3.25785e-05
3.33515e-05
3.337e-05
3.26853e-05
3.1566e-05
3.03546e-05
2.92319e-05
2.81498e-05
2.69864e-05
2.56987e-05
2.43297e-05
2.29397e-05
2.15656e-05
2.02233e-05
1.89207e-05
1.76639e-05
1.64574e-05
1.53041e-05
1.42049e-05
1.316e-05
1.21687e-05
1.12297e-05
1.03417e-05
9.50307e-06
8.71218e-06
7.96733e-06
7.26688e-06
6.6092e-06
5.99273e-06
5.41592e-06
4.87726e-06
4.37543e-06
3.90951e-06
3.47901e-06
3.08322e-06
2.71999e-06
2.38498e-06
2.07336e-06
1.78441e-06
1.52649e-06
1.31719e-06
1.17412e-06
1.09999e-06
1.07676e-06
1.0756e-06
1.07004e-06
1.04321e-06
9.90647e-07
9.19108e-07
8.41112e-07
7.67831e-07
7.04393e-07
6.49583e-07
5.98922e-07
5.48444e-07
4.96906e-07
4.45793e-07
3.97847e-07
3.55411e-07
3.19511e-07
2.89872e-07
2.65498e-07
2.4528e-07
2.2835e-07
2.14137e-07
2.0228e-07
1.92488e-07
1.84539e-07
1.78121e-07
1.73151e-07
1.69127e-07
1.66498e-07
1.63754e-07
1.63518e-07
1.5995e-07
1.64581e-07
1.53497e-07
1.73714e-07
1.47558e-07
2.77433e-06
2.94357e-06
3.09664e-06
3.19019e-06
3.21145e-06
3.2111e-06
3.31397e-06
3.69051e-06
4.45769e-06
5.61012e-06
7.07014e-06
8.75152e-06
1.05807e-05
1.24913e-05
1.44073e-05
1.62761e-05
1.8131e-05
2.00507e-05
2.20287e-05
2.39412e-05
2.55827e-05
2.68394e-05
2.7662e-05
2.80827e-05
2.81796e-05
2.8035e-05
2.76927e-05
2.71466e-05
2.63859e-05
2.54381e-05
2.43619e-05
2.32144e-05