/*--------------------------------*- C++ -*----------------------------------*\
| =========                 |                                                 |
| \\      /  F ield         | OpenFOAM: The Open Source CFD Toolbox           |
|  \\    /   O peration     | Version:  2.1.1                                 |
|   \\  /    A nd           | Web:      www.OpenFOAM.org                      |
|    \\/     M anipulation  |                                                 |
\*---------------------------------------------------------------------------*/
FoamFile
{
    version     2.0;
    format      ascii;
    class       volScalarField;
    location    "0.045";
    object      p;
}
// * * * * * * * * * * * * * * * * * * * * * * * * * * * * * * * * * * * * * //

dimensions      [0 2 -2 0 0 0 0];

internalField   nonuniform List<scalar> 
6820
(
8.93108
-8.90452
-11.9128
-12.0999
-12.2723
-12.1982
-12.1404
-12.1511
-12.1961
-12.26
-12.3344
-12.414
-12.4965
-12.5807
-12.6661
-12.7523
-12.8391
-12.9264
-13.0141
-13.1021
-13.1905
-13.2791
-13.368
-13.4571
-13.5463
-13.6354
-13.7246
-13.8129
-13.9008
-13.9846
-14.0716
-14.1321
-14.2455
2.24988
-8.72335
-11.6016
-11.9016
-12.154
-12.176
-12.1546
-12.1765
-12.2231
-12.284
-12.3545
-12.4305
-12.5099
-12.5917
-12.6753
-12.7602
-12.846
-12.9326
-13.0198
-13.1076
-13.1957
-13.2842
-13.373
-13.4621
-13.5514
-13.6408
-13.7298
-13.8187
-13.9072
-13.9938
-14.0837
-14.1662
-14.3137
-0.464836
-7.29309
-10.5812
-11.3392
-11.8073
-12.004
-12.0614
-12.1161
-12.1821
-12.2553
-12.3344
-12.417
-12.5015
-12.5869
-12.673
-12.7595
-12.8464
-12.9336
-13.0211
-13.1089
-13.1969
-13.2852
-13.3738
-13.4626
-13.5516
-13.6408
-13.7302
-13.8199
-13.9104
-14.0011
-14.0989
-14.1993
-14.3548
-2.4503
-7.06597
-10.1598
-11.0193
-11.4913
-11.7672
-11.8949
-11.9937
-12.0908
-12.1847
-12.2768
-12.3682
-12.4591
-12.5497
-12.6401
-12.7301
-12.82
-12.9096
-12.9992
-13.0886
-13.1781
-13.2675
-13.357
-13.4466
-13.5364
-13.6265
-13.7172
-13.8088
-13.9028
-14.0005
-14.1097
-14.2352
-14.4182
-4.08596
-7.16662
-9.76834
-10.6722
-11.18
-11.5353
-11.7333
-11.8719
-11.9937
-12.1045
-12.2084
-12.3089
-12.4068
-12.5026
-12.597
-12.6904
-12.7829
-12.8747
-12.9658
-13.0564
-13.1466
-13.2365
-13.3263
-13.416
-13.5058
-13.5961
-13.6875
-13.7807
-13.8777
-13.9811
-14.0988
-14.2386
-14.4308
-5.30875
-7.34773
-9.51773
-10.4623
-10.9893
-11.3718
-11.6048
-11.7663
-11.9044
-12.028
-12.1416
-12.2494
-12.3532
-12.4539
-12.5522
-12.6485
-12.7433
-12.8369
-12.9293
-13.0209
-13.1117
-13.202
-13.2918
-13.3814
-13.4711
-13.5612
-13.6526
-13.7463
-13.8445
-13.9501
-14.0699
-14.2106
-14.393
-6.25958
-7.63429
-9.40061
-10.308
-10.8227
-11.2135
-11.4767
-11.6637
-11.8199
-11.9571
-12.0807
-12.1957
-12.305
-12.4099
-12.5114
-12.6103
-12.7072
-12.8023
-12.896
-12.9884
-13.0797
-13.1701
-13.2599
-13.3493
-13.4385
-13.5281
-13.619
-13.7121
-13.8095
-13.9139
-14.0303
-14.1636
-14.3252
-7.00567
-7.94058
-9.34959
-10.1924
-10.6956
-11.0881
-11.3701
-11.5745
-11.7427
-11.8895
-12.0207
-12.1417
-12.2559
-12.3648
-12.4696
-12.5712
-12.6703
-12.767
-12.8619
-12.9552
-13.047
-13.1377
-13.2274
-13.3164
-13.405
-13.4938
-13.5835
-13.6751
-13.7702
-13.8708
-13.98
-14.1007
-14.2374
-7.59798
-8.24429
-9.35986
-10.1225
-10.6033
-10.9842
-11.2726
-11.4886
-11.667
-11.8226
-11.9614
-12.0885
-12.2076
-12.3205
-12.4285
-12.5327
-12.6337
-12.732
-12.828
-12.922
-13.0143
-13.105
-13.1944
-13.2828
-13.3706
-13.4581
-13.5461
-13.6351
-13.7265
-13.8213
-13.9213
-14.0272
-14.1397
-8.07434
-8.5298
-9.40795
-10.0819
-10.5338
-10.8989
-11.1882
-11.4123
-11.5982
-11.7605
-11.9051
-12.0372
-12.1603
-12.2766
-12.3874
-12.4939
-12.5967
-12.6964
-12.7934
-12.8881
-12.9806
-13.0713
-13.1604
-13.2481
-13.3348
-13.4207
-13.5064
-13.5923
-13.679
-13.7671
-13.857
-13.9483
-14.0391
-8.46166
-8.78941
-9.48006
-10.067
-10.4864
-10.8323
-11.1163
-11.3432
-11.5336
-11.7006
-11.85
-11.9864
-12.1133
-12.2328
-12.3464
-12.4551
-12.5597
-12.6607
-12.7587
-12.854
-12.9468
-13.0374
-13.126
-13.2128
-13.2981
-13.3822
-13.4652
-13.5475
-13.6291
-13.7102
-13.7903
-13.8681
-13.9408
-8.77958
-9.02077
-9.5653
-10.0707
-10.4553
-10.7797
-11.0547
-11.2813
-11.4741
-11.6445
-11.7976
-11.9376
-12.0677
-12.1899
-12.3058
-12.4165
-12.5226
-12.6249
-12.7237
-12.8195
-12.9124
-13.0028
-13.0908
-13.1766
-13.2605
-13.3424
-13.4226
-13.5011
-13.5777
-13.652
-13.7231
-13.7894
-13.8479
-9.04243
-9.22394
-9.65556
-10.0878
-10.4372
-10.7396
-11.0031
-11.2265
-11.4197
-11.5917
-11.7474
-11.8901
-12.0228
-12.1475
-12.2655
-12.3779
-12.4856
-12.589
-12.6886
-12.7848
-12.8778
-12.9679
-13.0552
-13.14
-13.2223
-13.3021
-13.3795
-13.4543
-13.5261
-13.5942
-13.6576
-13.7147
-13.7625
-9.26077
-9.40039
-9.74521
-10.1137
-10.4289
-10.7093
-10.9598
-11.1779
-11.3697
-11.5423
-11.6996
-11.8444
-11.9792
-12.106
-12.2259
-12.3399
-12.4488
-12.5532
-12.6535
-12.75
-12.843
-12.9328
-13.0194
-13.1031
-13.1837
-13.2615
-13.3361
-13.4074
-13.4749
-13.5378
-13.595
-13.6451
-13.6855
-9.44244
-9.55208
-9.8303
-10.1444
-10.4276
-10.6865
-10.9235
-11.135
-11.3242
-11.4962
-11.6542
-11.8004
-11.9369
-12.0653
-12.1868
-12.3023
-12.4123
-12.5176
-12.6185
-12.7153
-12.8083
-12.8976
-12.9836
-13.0661
-13.1453
-13.2211
-13.2932
-13.3615
-13.4253
-13.484
-13.5365
-13.5816
-13.6173
-9.5933
-9.68112
-9.90823
-10.1767
-10.4306
-10.6694
-10.8928
-11.0968
-11.2824
-11.4531
-11.6111
-11.7582
-11.896
-12.0258
-12.1486
-12.2653
-12.3764
-12.4824
-12.5838
-12.6808
-12.7737
-12.8627
-12.9479
-13.0294
-13.1072
-13.1811
-13.2511
-13.3167
-13.3776
-13.4331
-13.4822
-13.5242
-13.5574
-9.71775
-9.78943
-9.97729
-10.2081
-10.4357
-10.6559
-10.8663
-11.0625
-11.244
-11.4127
-11.5703
-11.7178
-11.8565
-11.9874
-12.1114
-12.2291
-12.3411
-12.4478
-12.5497
-12.6469
-12.7397
-12.8283
-12.9129
-12.9934
-13.0699
-13.1423
-13.2104
-13.274
-13.3326
-13.3858
-13.4329
-13.4731
-13.5056
-9.8191
-9.8787
-10.0364
-10.2363
-10.4411
-10.6445
-10.8427
-11.0311
-11.2082
-11.3747
-11.5314
-11.679
-11.8184
-11.9502
-12.0752
-12.1938
-12.3066
-12.414
-12.5162
-12.6136
-12.7063
-12.7946
-12.8785
-12.9581
-13.0335
-13.1046
-13.1712
-13.2331
-13.2901
-13.3418
-13.3877
-13.4274
-13.4604
-9.89983
-9.9503
-10.0847
-10.2598
-10.445
-10.6335
-10.8208
-11.0019
-11.1746
-11.3387
-11.4944
-11.642
-11.7818
-11.9144
-12.0402
-12.1598
-12.2733
-12.3813
-12.4839
-12.5814
-12.674
-12.762
-12.8454
-12.9243
-12.9988
-13.0688
-13.1343
-13.1951
-13.2511
-13.3019
-13.3475
-13.3875
-13.4217
-9.96175
-10.0053
-10.1219
-10.277
-10.4459
-10.6216
-10.7992
-10.9737
-11.1423
-11.3042
-11.4589
-11.6063
-11.7466
-11.8799
-12.0065
-12.1268
-12.2411
-12.3495
-12.4525
-12.5501
-12.6427
-12.7304
-12.8133
-12.8916
-12.9653
-13.0344
-13.099
-13.159
-13.2143
-13.2648
-13.3105
-13.3513
-13.3873
-10.0061
-10.0444
-10.1475
-10.287
-10.4425
-10.6076
-10.777
-10.9458
-11.1109
-11.2709
-11.4248
-11.5722
-11.7129
-11.847
-11.9745
-12.0956
-12.2106
-12.3197
-12.423
-12.5209
-12.6135
-12.701
-12.7835
-12.8613
-12.9344
-13.0029
-13.0669
-13.1264
-13.1814
-13.232
-13.2782
-13.3202
-13.358
-10.0337
-10.0682
-10.1611
-10.2886
-10.4336
-10.5901
-10.753
-10.9173
-11.0796
-11.2381
-11.3915
-11.5391
-11.6805
-11.8153
-11.9437
-12.0656
-12.1813
-12.2909
-12.3946
-12.4926
-12.5852
-12.6725
-12.7547
-12.832
-12.9046
-12.9725
-13.036
-13.0951
-13.1499
-13.2007
-13.2475
-13.2906
-13.3303
-10.045
-10.0766
-10.1622
-10.2809
-10.418
-10.5682
-10.7264
-10.8874
-11.048
-11.2058
-11.3594
-11.5076
-11.6499
-11.7859
-11.9154
-12.0384
-12.155
-12.2653
-12.3695
-12.4679
-12.5605
-12.6477
-12.7297
-12.8067
-12.8789
-12.9464
-13.0095
-13.0684
-13.1233
-13.1743
-13.2218
-13.266
-13.3072
-10.0399
-10.0696
-10.1502
-10.263
-10.3948
-10.5408
-10.696
-10.8552
-11.015
-11.173
-11.3272
-11.4765
-11.62
-11.7573
-11.888
-12.012
-12.1295
-12.2405
-12.3451
-12.4436
-12.5363
-12.6234
-12.705
-12.7816
-12.8533
-12.9203
-12.983
-13.0416
-13.0963
-13.1474
-13.1953
-13.2403
-13.2828
-10.0181
-10.0467
-10.1244
-10.2339
-10.3629
-10.5071
-10.6613
-10.8206
-10.9812
-11.1405
-11.2965
-11.4477
-11.5932
-11.7324
-11.8649
-11.9904
-12.1091
-12.2211
-12.3264
-12.4254
-12.5182
-12.6052
-12.6867
-12.763
-12.8343
-12.9009
-12.9632
-13.0214
-13.076
-13.1271
-13.1752
-13.2206
-13.2638
-9.97875
-10.007
-10.0838
-10.1924
-10.3211
-10.4655
-10.6207
-10.7816
-10.9442
-11.1058
-11.2642
-11.4179
-11.5657
-11.707
-11.8412
-11.9683
-12.0882
-12.201
-12.307
-12.4062
-12.4991
-12.5859
-12.667
-12.7427
-12.8134
-12.8794
-12.941
-12.9987
-13.0527
-13.1034
-13.1513
-13.1967
-13.2401
-9.92062
-9.94929
-10.0272
-10.1376
-10.2688
-10.4163
-10.5752
-10.7402
-10.9072
-11.0731
-11.2357
-11.3933
-11.5446
-11.689
-11.8259
-11.9552
-12.0768
-12.1909
-12.2977
-12.3974
-12.4905
-12.5772
-12.658
-12.7332
-12.8032
-12.8685
-12.9293
-12.9862
-13.0395
-13.0896
-13.1368
-13.1817
-13.2245
-9.84188
-9.87167
-9.95269
-10.0673
-10.2033
-10.3561
-10.5205
-10.691
-10.8634
-11.0346
-11.202
-11.364
-11.5192
-11.6669
-11.8066
-11.9382
-12.0615
-12.1768
-12.2844
-12.3845
-12.4775
-12.5639
-12.6441
-12.7185
-12.7876
-12.8518
-12.9115
-12.9672
-13.0193
-13.0682
-13.1143
-13.1582
-13.2001
-9.74009
-9.77204
-9.85887
-9.98143
-10.1264
-10.2889
-10.4633
-10.6434
-10.8248
-11.0042
-11.179
-11.3474
-11.5081
-11.6604
-11.8038
-11.9382
-12.0637
-12.1805
-12.289
-12.3896
-12.4826
-12.5686
-12.6481
-12.7215
-12.7895
-12.8523
-12.9106
-12.9647
-13.0152
-13.0624
-13.1068
-13.1488
-13.1887
-9.61171
-9.64655
-9.74125
-9.87398
-10.0297
-10.2032
-10.3884
-10.5791
-10.7704
-10.959
-11.142
-11.3177
-11.4846
-11.6422
-11.7898
-11.9276
-12.0556
-12.1741
-12.2836
-12.3845
-12.4774
-12.5628
-12.6413
-12.7135
-12.7799
-12.841
-12.8974
-12.9495
-12.9978
-13.0429
-13.0852
-13.125
-13.1629
-9.45264
-9.49279
-9.60124
-9.75196
-9.92685
-10.1196
-10.3233
-10.5308
-10.7369
-10.9382
-11.1321
-11.3168
-11.4912
-11.6546
-11.8069
-11.9481
-12.0785
-12.1985
-12.3088
-12.4098
-12.5022
-12.5866
-12.6638
-12.7342
-12.7985
-12.8574
-12.9112
-12.9607
-13.0062
-13.0483
-13.0874
-13.1239
-13.1581
-9.25545
-9.30033
-9.42276
-9.59073
-9.78333
-9.99463
-10.2172
-10.443
-10.6662
-10.883
-11.0905
-11.2869
-11.471
-11.6424
-11.8009
-11.9468
-12.0805
-12.2026
-12.314
-12.4152
-12.5071
-12.5904
-12.6659
-12.7343
-12.7962
-12.8524
-12.9034
-12.9498
-12.9922
-13.031
-13.0669
-13.1001
-13.1313
-9.01501
-9.07454
-9.22976
-9.43581
-9.66424
-9.90801
-10.1591
-10.4088
-10.6521
-10.8855
-11.1067
-11.3141
-11.5071
-11.6853
-11.8489
-11.9984
-12.1345
-12.2579
-12.3694
-12.47
-12.5605
-12.6418
-12.7147
-12.7801
-12.8386
-12.8911
-12.938
-12.9801
-13.018
-13.0521
-13.0829
-13.1109
-13.1365
-8.70913
-8.77109
-8.94634
-9.17908
-9.43818
-9.71703
-10.004
-10.2874
-10.5609
-10.8205
-11.0638
-11.2892
-11.4964
-11.6855
-11.8571
-12.0123
-12.1519
-12.2773
-12.3894
-12.4895
-12.5787
-12.658
-12.7283
-12.7906
-12.8458
-12.8945
-12.9374
-12.9753
-13.0088
-13.0385
-13.0648
-13.0884
-13.1098
-8.34819
-8.46547
-8.7263
-9.03035
-9.3407
-9.66029
-9.98036
-10.2904
-10.5858
-10.864
-11.1227
-11.3609
-11.5784
-11.7754
-11.9529
-12.1118
-12.2534
-12.3791
-12.4903
-12.5882
-12.6741
-12.7493
-12.8149
-12.8719
-12.9213
-12.9638
-13.0003
-13.0315
-13.0579
-13.0803
-13.0991
-13.1149
-13.1283
-7.81949
-7.91061
-8.20914
-8.58103
-8.97231
-9.37557
-9.7703
-10.1426
-10.489
-10.8074
-11.0967
-11.3576
-11.5915
-11.8
-11.985
-12.1486
-12.2927
-12.4191
-12.5296
-12.6258
-12.7093
-12.7815
-12.8435
-12.8966
-12.9416
-12.9796
-13.0111
-13.0371
-13.058
-13.0744
-13.0871
-13.0968
-13.1043
-7.32511
-7.64759
-8.11579
-8.5352
-8.94607
-9.37556
-9.79536
-10.192
-10.5638
-10.9071
-11.219
-11.499
-11.7479
-11.9674
-12.1595
-12.3264
-12.4707
-12.5946
-12.7006
-12.7906
-12.8666
-12.9303
-12.9833
-13.0268
-13.0621
-13.09
-13.1114
-13.127
-13.1372
-13.1425
-13.1433
-13.1404
-13.1341
-6.02332
-6.34532
-7.11885
-7.81917
-8.45649
-9.06392
-9.60941
-10.0927
-10.5241
-10.9075
-11.2462
-11.5445
-11.8063
-12.0348
-12.2333
-12.4047
-12.5517
-12.6769
-12.7827
-12.8714
-12.945
-13.0054
-13.0542
-13.0929
-13.1226
-13.1445
-13.1592
-13.1674
-13.1692
-13.165
-13.1539
-13.1374
-13.111
-6.01153
-6.75689
-7.36245
-7.83099
-8.43279
-9.06826
-9.6607
-10.2126
-10.7176
-11.1653
-11.5546
-11.8892
-12.1733
-12.4116
-12.6097
-12.7726
-12.9054
-13.0123
-13.0972
-13.1637
-13.2146
-13.2524
-13.2792
-13.297
-13.307
-13.3106
-13.3085
-13.3013
-13.2888
-13.2702
-13.2427
-13.2034
-13.1382
0.237686
-4.37053
-6.1559
-7.00827
-8.01236
-8.89053
-9.59321
-10.2032
-10.7367
-11.1943
-11.5849
-11.9167
-12.1962
-12.4296
-12.623
-12.7818
-12.9107
-13.0144
-13.0964
-13.1603
-13.2089
-13.2446
-13.2697
-13.2858
-13.2945
-13.2971
-13.2948
-13.2881
-13.2784
-13.2651
-13.251
-13.2313
-13.2172
-14.0285
-15.7222
-18.109
-19.468
-19.5179
-18.1254
-15.1303
-10.7358
-5.88987
-1.90283
0.207208
-0.0854507
-2.67887
-7.0745
-12.77
-19.1636
-25.7243
-32.1333
-38.2701
-44.0838
-49.4398
-54.0289
-57.4032
-59.1318
-58.902
-56.7278
-52.9644
-48.1164
-42.5461
-36.4794
-30.2175
-24.2147
-18.871
-14.3425
-10.5965
-7.53607
-5.06191
-3.08455
-1.52352
-0.307101
0.627104
1.33225
1.85296
2.22629
2.48273
2.64717
2.7398
2.77692
2.77165
2.73456
2.67414
2.59724
2.50931
2.4147
2.31681
2.21826
2.12105
2.02666
1.93615
1.85029
1.76953
1.69409
1.62391
1.55871
1.49808
1.44149
1.38835
1.33815
1.29038
1.24461
1.20048
1.15768
1.11594
1.07504
1.0348
0.995089
0.955787
0.916796
0.878036
0.839431
0.800911
0.762407
0.72386
0.685207
0.646403
0.607398
0.568137
0.528597
0.488733
0.448524
0.407914
0.366937
0.325432
0.283672
0.240983
0.198751
0.153914
0.112968
0.0620383
0.0307445
-14.3802
-15.7939
-17.8948
-19.1149
-19.0624
-17.6388
-14.7079
-10.4887
-5.87717
-2.1621
-0.253122
-0.465755
-2.88904
-7.10591
-12.4698
-18.4933
-24.7416
-30.8951
-36.7885
-42.3269
-47.3607
-51.6112
-54.6918
-56.2359
-55.9871
-53.9976
-50.5802
-46.1004
-40.823
-35.0023
-29.0329
-23.3934
-18.4062
-14.1584
-10.6061
-7.67067
-5.27319
-3.339
-1.79785
-0.585444
0.355186
1.07329
1.61076
2.00275
2.27848
2.46201
2.57302
2.6275
2.63844
2.61634
2.56968
2.50532
2.42877
2.34442
2.25574
2.16542
2.07552
1.98759
1.90277
1.82188
1.74544
1.67372
1.60674
1.5443
1.48601
1.43141
1.37997
1.3312
1.28464
1.23989
1.19662
1.15454
1.11341
1.07302
1.03322
0.993853
0.954839
0.916078
0.877504
0.839044
0.800637
0.762221
0.723738
0.685135
0.646363
0.607387
0.568138
0.528605
0.488744
0.448534
0.40792
0.366936
0.325419
0.283657
0.240947
0.198721
0.15385
0.112947
0.061955
0.0307531
-14.584
-15.8204
-17.5326
-18.4987
-18.3251
-16.9038
-14.1516
-10.3289
-6.22694
-2.89045
-1.11137
-1.37605
-3.62071
-7.50088
-12.5015
-18.0967
-23.9232
-29.7192
-35.2993
-40.5243
-45.2244
-49.1421
-51.9355
-53.3046
-53.068
-51.2909
-48.1964
-44.019
-38.9859
-33.4258
-27.8097
-22.5762
-17.951
-13.9744
-10.6078
-7.79463
-5.47446
-3.58548
-2.06659
-0.86044
0.0846837
0.814194
1.36722
1.77701
2.07144
2.2737
2.4029
2.47469
2.50188
2.49486
2.46211
2.41047
2.34549
2.27161
2.19235
2.11047
2.02808
1.94681
1.86785
1.79208
1.72011
1.65225
1.58861
1.52903
1.47319
1.42068
1.37103
1.32377
1.27849
1.23482
1.19247
1.15117
1.11069
1.07086
1.03151
0.992533
0.953836
0.915334
0.87697
0.838678
0.800403
0.76209
0.723686
0.685143
0.646412
0.607468
0.568236
0.528715
0.488859
0.44865
0.408032
0.367044
0.325516
0.283748
0.241021
0.1988
0.153896
0.113028
0.0619789
0.0308453
-14.729
-15.6988
-16.9654
-17.6605
-17.3845
-16.0339
-13.5948
-10.3273
-6.87498
-4.06605
-2.55718
-2.74134
-4.73545
-8.24071
-12.7999
-17.9569
-23.3329
-28.6885
-33.8655
-38.7162
-43.0569
-46.6373
-49.1587
-50.3951
-50.2226
-48.6589
-45.8111
-41.8447
-37.0316
-31.7915
-26.5971
-21.7886
-17.5111
-13.7885
-10.5992
-7.90655
-5.66495
-3.82332
-2.32903
-1.13138
-0.183731
0.555558
1.12288
1.54952
1.86198
2.08253
2.22966
2.31866
2.36209
2.37023
2.35151
2.31276
2.25954
2.19633
2.12669
2.05344
1.97876
1.90433
1.83141
1.76095
1.6936
1.62976
1.56959
1.513
1.45974
1.40943
1.36165
1.31598
1.27205
1.22953
1.18814
1.14765
1.10785
1.06859
1.02971
0.99113
0.952753
0.914512
0.876357
0.83823
0.800085
0.761872
0.723544
0.685057
0.646368
0.607435
0.56824
0.528731
0.488881
0.448672
0.40805
0.367058
0.325519
0.283747
0.241002
0.198787
0.153852
0.113016
0.0619191
0.0308498
-14.7383
-15.4299
-16.2819
-16.6981
-16.3449
-15.1412
-13.1127
-10.4859
-7.75492
-5.53104
-4.31292
-4.45933
-6.12762
-9.19238
-13.2869
-17.9843
-22.9267
-27.8562
-32.6036
-37.0325
-40.9769
-44.2201
-46.517
-47.672
-47.5513
-46.0984
-43.364
-39.5457
-34.9968
-30.1614
-25.4294
-21.0368
-17.084
-13.5997
-10.581
-8.00715
-5.84481
-4.0523
-2.58476
-1.39778
-0.449564
0.297859
0.878163
1.32064
1.65042
1.88877
2.05353
2.15957
2.2192
2.24255
2.23795
2.21223
2.17093
2.11857
2.05875
1.99432
1.92754
1.86013
1.79343
1.72844
1.66587
1.60619
1.54962
1.49614
1.44556
1.39755
1.35173
1.30774
1.26523
1.22391
1.18353
1.1439
1.10482
1.06616
1.0278
0.989635
0.951605
0.913648
0.875722
0.83778
0.799782
0.761684
0.723444
0.685025
0.646385
0.607489
0.568316
0.528823
0.48898
0.448775
0.40815
0.367154
0.325607
0.283829
0.241068
0.198856
0.153894
0.113084
0.061943
0.0309194
-14.6608
-15.1392
-15.6734
-15.882
-15.506
-14.4754
-12.8261
-10.7462
-8.61182
-6.90796
-6.01281
-6.21217
-7.62675
-10.228
-13.8093
-18.0379
-22.5636
-27.11
-31.485
-35.5397
-39.1193
-42.062
-44.159
-45.1788
-44.9631
-43.4597
-40.7664
-37.1444
-32.9648
-28.6001
-24.33
-20.3232
-16.6684
-13.4075
-10.553
-8.09639
-6.01382
-4.27202
-2.8333
-1.65909
-0.712248
0.041638
0.633557
1.09082
1.43712
1.69271
1.87475
1.99763
2.07337
2.11193
2.12153
2.10896
2.07974
2.0384
1.98857
1.93315
1.87445
1.81425
1.75394
1.69457
1.63694
1.58156
1.52873
1.47849
1.4307
1.3851
1.34134
1.29911
1.25809
1.21803
1.17872
1.13998
1.10166
1.06363
1.02579
0.988059
0.950384
0.912716
0.875022
0.837266
0.799413
0.761429
0.723276
0.684922
0.64633
0.607471
0.56832
0.528842
0.489007
0.448805
0.408178
0.367179
0.325622
0.283839
0.241063
0.198854
0.153868
0.113078
0.0619018
0.0309195
-14.545
-14.8736
-15.1985
-15.2706
-14.8945
-14.0124
-12.6656
-11.0115
-9.34231
-8.02278
-7.39827
-7.66269
-8.92982
-11.1791
-14.2746
-17.995
-22.071
-26.2387
-30.2797
-34.0189
-37.2982
-39.9455
-41.7532
-42.5265
-42.1395
-40.5988
-38.0525
-34.7637
-31.0382
-27.1491
-23.303
-19.643
-16.2617
-13.2117
-10.516
-8.17473
-6.17208
-4.4823
-3.07425
-1.91483
-0.971279
-0.212608
0.389531
0.860473
1.22245
1.49468
1.69358
1.83306
1.92478
1.97852
2.00237
2.00303
1.98602
1.95585
1.91618
1.86996
1.81952
1.76669
1.71293
1.65935
1.6068
1.55586
1.5069
1.46001
1.41513
1.37203
1.33043
1.29004
1.25058
1.21184
1.17365
1.13585
1.09832
1.06095
1.02366
0.98639
0.949093
0.911734
0.874291
0.836736
0.799044
0.761186
0.723131
0.684853
0.646317
0.6075
0.568377
0.528918
0.489093
0.448897
0.408269
0.367268
0.325704
0.283916
0.241126
0.198917
0.153909
0.113136
0.0619276
0.0309712
-14.4112
-14.6346
-14.8191
-14.8005
-14.4394
-13.6926
-12.6009
-11.2945
-10.0005
-9.00332
-8.57014
-8.87772
-10.0209
-11.9863
-14.6669
-17.8943
-21.4679
-25.1776
-28.8198
-32.2056
-35.1518
-37.4574
-38.9656
-39.5424
-39.1048
-37.6883
-35.4348
-32.5545
-29.2775
-25.8142
-22.3403
-18.9917
-15.8632
-13.0134
-10.4709
-8.24255
-6.31963
-4.68294
-3.30728
-2.16457
-1.22616
-0.464378
0.146558
0.630025
1.00679
1.29499
1.5103
1.66607
1.77363
1.84248
1.88058
1.89456
1.88986
1.87101
1.84166
1.80479
1.76277
1.71749
1.67045
1.62281
1.57548
1.52912
1.48415
1.44074
1.39888
1.35839
1.31903
1.28056
1.24274
1.20539
1.16837
1.13155
1.09484
1.05816
1.02144
0.984641
0.947732
0.910689
0.873502
0.836151
0.798621
0.76089
0.722933
0.684729
0.646249
0.607473
0.568377
0.528937
0.489123
0.448931
0.408304
0.3673
0.325729
0.283936
0.241133
0.198924
0.153895
0.113135
0.061901
0.0309661
-14.2731
-14.4207
-14.5123
-14.4398
-14.1068
-13.4827
-12.6051
-11.5817
-10.5911
-9.8548
-9.5829
-9.92459
-10.9585
-12.6798
-15.006
-17.7998
-20.8957
-24.1199
-27.2992
-30.261
-32.8275
-34.828
-36.1293
-36.6202
-36.2434
-35.0279
-33.0838
-30.5733
-27.6788
-24.579
-21.4323
-18.3664
-15.4737
-12.8135
-10.4183
-8.30032
-6.45664
-4.87388
-3.53212
-2.4079
-1.47644
-0.713205
-0.094904
0.399906
0.790522
1.094
1.32521
1.49694
1.62011
1.70398
1.75633
1.78366
1.79137
1.78395
1.76507
1.7377
1.70426
1.66668
1.62651
1.58495
1.54299
1.50134
1.46049
1.42067
1.38193
1.34415
1.30713
1.27066
1.23454
1.19864
1.16284
1.12704
1.0912
1.05523
1.01911
0.982805
0.946302
0.909594
0.872677
0.835545
0.798189
0.760596
0.722747
0.684626
0.64621
0.60748
0.568417
0.528999
0.489199
0.449016
0.40839
0.367386
0.325809
0.284011
0.241195
0.198985
0.153939
0.113187
0.0619305
0.0310042
-14.1392
-14.2335
-14.2663
-14.166
-13.8683
-13.3536
-12.6565
-11.8655
-11.1215
-10.5965
-10.4556
-10.822
-11.7623
-13.277
-15.3026
-17.7277
-20.4127
-23.207
-25.9595
-28.5202
-30.7443
-32.4906
-33.628
-34.0578
-33.7374
-32.6888
-30.9957
-28.7862
-26.2118
-23.4274
-20.5739
-17.7673
-15.0941
-12.613
-10.3591
-8.34856
-6.58335
-5.05509
-3.74856
-2.6445
-1.72171
-0.95864
-0.334406
0.170544
0.574047
0.892054
1.13861
1.32591
1.46447
1.56323
1.62978
1.67048
1.69068
1.69479
1.68649
1.66877
1.64406
1.61433
1.58116
1.54584
1.50938
1.47256
1.43594
1.39983
1.36432
1.32934
1.29474
1.26036
1.22602
1.19163
1.15709
1.12237
1.08741
1.05219
1.01669
0.980891
0.944807
0.908441
0.871801
0.834892
0.797713
0.760258
0.722518
0.684479
0.646125
0.607442
0.56841
0.529015
0.489228
0.449052
0.408429
0.367423
0.32584
0.284037
0.24121
0.198998
0.153935
0.113188
0.0619147
0.0309931
-14.0151
-14.0729
-14.0705
-13.961
-13.7028
-13.2855
-12.74
-12.139
-11.5936
-11.2378
-11.2017
-11.5856
-12.4448
-13.7827
-15.551
-17.6601
-19.9936
-22.4223
-24.8136
-27.0362
-28.9637
-30.4729
-31.448
-31.8107
-31.5257
-30.6053
-29.1137
-27.1552
-24.8574
-22.3526
-19.7636
-17.1944
-14.7252
-12.413
-10.2941
-8.38786
-6.7001
-5.22667
-3.95649
-2.87409
-1.9616
-1.20027
-0.571526
-0.0576472
0.35775
0.689506
0.950824
1.15329
1.30695
1.42044
1.50111
1.55518
1.5879
1.60365
1.60604
1.59809
1.58224
1.56049
1.53447
1.50551
1.47467
1.44281
1.41054
1.37824
1.34605
1.31397
1.28188
1.24966
1.21717
1.18434
1.15113
1.11751
1.08348
1.04903
1.01416
0.978899
0.943251
0.907241
0.870891
0.834216
0.797224
0.759919
0.722296
0.684348
0.646063
0.607432
0.568438
0.529069
0.489299
0.449133
0.408513
0.367508
0.325921
0.284114
0.241276
0.199061
0.153985
0.113238
0.0619503
0.0310216
-13.9032
-13.9373
-13.9165
-13.8104
-13.5934
-13.2618
-12.8432
-12.3971
-12.0114
-11.7904
-11.8366
-12.2303
-13.0173
-14.202
-15.7474
-17.5815
-19.6079
-21.7166
-23.7919
-25.7182
-27.3822
-28.6763
-29.5086
-29.8099
-29.5467
-28.7276
-27.4041
-25.6618
-23.6066
-21.3504
-19
-16.6477
-14.3676
-12.2142
-10.2242
-8.41889
-6.80729
-5.38876
-4.15585
-3.09647
-2.19581
-1.43774
-0.805863
-0.284267
0.142017
0.486717
0.762183
0.979357
1.14781
1.27583
1.37052
1.43795
1.48322
1.51065
1.52384
1.52576
1.5189
1.50526
1.48651
1.46403
1.43894
1.41215
1.38433
1.35593
1.32716
1.29807
1.26858
1.23858
1.20801
1.1768
1.14496
1.11249
1.07941
1.04576
1.01156
0.976835
0.941634
0.905989
0.869935
0.833497
0.796696
0.75954
0.722034
0.684177
0.645961
0.607381
0.568423
0.529079
0.489326
0.449169
0.408553
0.367548
0.325957
0.284145
0.241295
0.199077
0.153988
0.113239
0.0619416
0.031003
-13.8047
-13.8248
-13.7972
-13.7025
-13.5263
-13.2695
-12.9567
-12.6364
-12.3781
-12.2634
-12.3725
-12.7693
-13.491
-14.5421
-15.8937
-17.4876
-19.244
-21.0694
-22.864
-24.5263
-25.9575
-27.0656
-27.7702
-28.0121
-27.7629
-27.0284
-25.8493
-24.2946
-22.4521
-20.4169
-18.2811
-16.127
-14.022
-12.0177
-10.1503
-8.44241
-6.90542
-5.54163
-4.34668
-3.31151
-2.42408
-1.67071
-1.03706
-0.508938
-0.0727783
0.284043
0.573016
0.804421
0.987331
1.12966
1.23826
1.31898
1.37681
1.41598
1.44003
1.45193
1.45415
1.44873
1.43737
1.42148
1.40224
1.38061
1.35735
1.33295
1.30769
1.28166
1.25484
1.22716
1.19856
1.16903
1.13861
1.10732
1.07523
1.0424
1.00887
0.97471
0.939969
0.904701
0.868953
0.832763
0.796161
0.759164
0.721783
0.684023
0.645882
0.607359
0.568442
0.529128
0.489395
0.449251
0.408641
0.367638
0.326043
0.284228
0.241369
0.199146
0.154046
0.113292
0.0619859
0.0310258
-13.7194
-13.7327
-13.706
-13.6275
-13.4902
-13.2982
-13.0729
-12.8542
-12.6969
-12.6648
-12.8205
-13.2144
-13.8762
-14.8099
-15.9926
-17.3768
-18.8963
-20.4722
-22.0185
-23.447
-24.673
-25.6153
-26.2058
-26.394
-26.1548
-25.4911
-24.4348
-23.0424
-21.3865
-19.5476
-17.6053
-15.632
-13.6889
-11.8243
-10.0733
-8.45919
-6.99507
-5.68561
-4.52911
-3.51917
-2.64625
-1.89891
-1.26478
-0.731309
-0.28628
0.0818347
0.383657
0.628794
0.8258
0.982202
1.10455
1.19849
1.26887
1.3198
1.35477
1.37673
1.38813
1.39103
1.38715
1.37794
1.36465
1.34828
1.32966
1.30934
1.28767
1.26479
1.24071
1.2154
1.18885
1.16105
1.13208
1.10201
1.07094
1.03894
1.00611
0.972522
0.93825
0.903364
0.867927
0.831988
0.795586
0.758748
0.721491
0.683828
0.645761
0.607293
0.568417
0.529131
0.489417
0.449284
0.408679
0.367677
0.32608
0.28426
0.241389
0.199163
0.154053
0.113289
0.061981
0.0309977
-13.6468
-13.6585
-13.6376
-13.5777
-13.4765
-13.3399
-13.1868
-13.0494
-12.9713
-13.0023
-13.1909
-13.5767
-14.183
-15.0128
-16.0476
-17.2485
-18.5606
-19.9172
-21.245
-22.4683
-23.5115
-24.3073
-24.7965
-24.9355
-24.7021
-24.0973
-23.1464
-21.895
-20.4033
-18.7391
-16.971
-15.1625
-13.369
-11.635
-9.99421
-8.4701
-7.07688
-5.82113
-4.70336
-3.71948
-2.8622
-2.12214
-1.48876
-0.951064
-0.498153
-0.119571
0.194437
0.452793
0.663518
0.833726
0.969657
1.07673
1.15962
1.22232
1.26827
1.30034
1.32099
1.33228
1.33597
1.33354
1.32627
1.31525
1.30133
1.28517
1.26716
1.2475
1.22623
1.20336
1.1789
1.15289
1.12541
1.0966
1.06656
1.03543
1.0033
0.970298
0.936505
0.902011
0.866893
0.831212
0.795018
0.758346
0.721221
0.683661
0.645674
0.607266
0.568435
0.529182
0.48949
0.449372
0.408775
0.367776
0.326178
0.284355
0.241496
0.199243
0.154124
0.113348
0.0620377
0.0310183
-13.5854
-13.5989
-13.5868
-13.5462
-13.4777
-13.388
-13.2936
-13.2208
-13.2039
-13.2818
-13.4921
-13.8654
-14.4197
-15.157
-16.0619
-17.1026
-18.233
-19.3972
-20.5326
-21.5742
-22.4577
-23.1243
-23.5235
-23.618
-23.3879
-22.8329
-21.9725
-20.8438
-19.4966
-17.9879
-16.3766
-14.7184
-13.0627
-11.4506
-9.91404
-8.47603
-7.15159
-5.94871
-4.86972
-3.91256
-3.07191
-2.34026
-1.70877
-1.16793
-0.708091
-0.319854
0.00567869
0.276736
0.500792
0.684531
0.833863
0.953958
1.04931
1.12378
1.18072
1.22295
1.25291
1.27267
1.28398
1.28839
1.28722
1.2816
1.27246
1.26052
1.24623
1.22984
1.21144
1.19107
1.16875
1.14457
1.11863
1.09109
1.06211
1.03184
1.00044
0.968024
0.934714
0.900614
0.865815
0.830392
0.794405
0.757898
0.720903
0.683444
0.645534
0.607186
0.568398
0.529176
0.489505
0.4494
0.40881
0.367812
0.326213
0.284385
0.241517
0.199258
0.154132
0.11334
0.0620331
0.0309785
-13.5342
-13.5519
-13.5501
-13.5282
-13.4885
-13.438
-13.391
-13.3687
-13.3983
-13.51
-13.7328
-14.09
-14.5954
-15.2499
-16.0405
-16.9407
-17.9122
-18.9078
-19.8745
-20.7567
-21.4996
-22.0525
-22.3721
-22.4265
-22.1978
-21.6848
-20.9025
-19.8808
-18.661
-17.2908
-15.8207
-14.2993
-12.7706
-11.2721
-9.83377
-8.47794
-7.21997
-6.06892
-5.0286
-4.09862
-3.27543
-2.5532
-1.92466
-1.38168
-0.915823
-0.518715
-0.182306
0.10094
0.337936
0.534923
0.697463
0.830461
0.938207
1.02443
1.09236
1.14478
1.18409
1.21235
1.23136
1.24265
1.24762
1.24745
1.24314
1.23546
1.22495
1.21188
1.19641
1.17858
1.15846
1.13614
1.11177
1.08553
1.05763
1.02825
0.997572
0.965752
0.932931
0.899231
0.864758
0.829599
0.793824
0.757487
0.720628
0.683275
0.645449
0.607164
0.568424
0.529236
0.48959
0.4495
0.40892
0.367926
0.326327
0.284495
0.24162
0.199353
0.15422
0.113409
0.0621012
0.0309979
-13.491
-13.5142
-13.523
-13.5184
-13.5036
-13.4855
-13.476
-13.4926
-13.5566
-13.6913
-13.919
-14.2575
-14.7167
-15.2967
-15.9863
-16.7634
-17.5959
-18.4442
-19.2633
-20.0061
-20.6258
-21.079
-21.3287
-21.3472
-21.1189
-20.6416
-19.927
-18.999
-17.8915
-16.6448
-15.3019
-13.905
-12.4932
-11.1004
-9.7544
-8.4768
-7.2829
-6.18247
-5.18048
-4.27797
-3.4729
-2.76097
-2.13632
-1.59213
-1.12112
-0.715886
-0.369222
-0.0742862
0.175266
0.385219
0.560771
0.706544
0.826612
0.924547
1.00347
1.06608
1.11476
1.15156
1.17827
1.19649
1.20763
1.21294
1.21348
1.2101
1.20339
1.19369
1.18119
1.16595
1.14806
1.12763
1.10485
1.07993
1.05311
1.02462
0.994666
0.963441
0.931106
0.897801
0.86365
0.828752
0.793186
0.757015
0.720288
0.683039
0.645292
0.607067
0.568372
0.529218
0.489594
0.449519
0.408947
0.367957
0.326357
0.284521
0.24164
0.199363
0.154227
0.113392
0.0620956
0.030943
-13.4552
-13.4844
-13.5036
-13.5145
-13.5207
-13.5287
-13.5486
-13.5944
-13.6828
-13.8319
-14.0587
-14.3763
-14.7918
-15.3046
-15.9049
-16.574
-17.2849
-18.0045
-18.6947
-19.3157
-19.8277
-20.1937
-20.382
-20.3688
-20.1402
-19.6936
-19.0376
-18.1917
-17.1837
-16.0473
-14.8189
-13.5352
-12.2308
-10.9361
-9.67696
-8.47364
-7.34129
-6.29011
-5.32596
-4.45102
-3.66458
-2.96367
-2.34375
-1.79919
-1.3238
-0.911131
-0.554795
-0.248641
0.0131017
0.235748
0.424117
0.582534
0.714843
0.824442
0.914328
0.987138
1.04519
1.09052
1.12495
1.1501
1.16741
1.17821
1.18362
1.18456
1.18167
1.17537
1.16587
1.15326
1.13763
1.11913
1.09796
1.07437
1.04864
1.02104
0.991822
0.961192
0.929343
0.896437
0.862609
0.827973
0.79262
0.75662
0.720028
0.682886
0.645224
0.607063
0.568417
0.529298
0.489699
0.449641
0.409079
0.368093
0.326494
0.284653
0.241767
0.199477
0.154339
0.113475
0.0621878
0.0309645
-13.4239
-13.4592
-13.4879
-13.5121
-13.5356
-13.5642
-13.6063
-13.6732
-13.7781
-13.9347
-14.1558
-14.451
-14.8254
-15.2774
-15.7984
-16.3727
-16.9775
-17.585
-18.1631
-18.6782
-19.0965
-19.3865
-19.5214
-19.4805
-19.2515
-18.8314
-18.2269
-17.4533
-16.5334
-15.4954
-14.3703
-13.1897
-11.9839
-10.7803
-9.60246
-8.46952
-7.39614
-6.3927
-5.4657
-4.61827
-3.8508
-3.16151
-2.54701
-2.00281
-1.52374
-1.10426
-0.738778
-0.421837
-0.148241
0.086845
0.28785
0.458784
0.603248
0.724457
0.825274
0.90825
0.975653
1.02951
1.07164
1.10369
1.12716
1.14344
1.1537
1.15895
1.15989
1.157
1.15051
1.14055
1.12721
1.11065
1.09109
1.06882
1.04418
1.01746
0.988954
0.958908
0.927534
0.895014
0.861501
0.827119
0.791971
0.756135
0.719673
0.682633
0.645051
0.606951
0.568351
0.529266
0.489691
0.449649
0.409097
0.368115
0.326518
0.284672
0.241784
0.19948
0.154343
0.113446
0.0621817
0.0308894
-13.3979
-13.4387
-13.4757
-13.5111
-13.5484
-13.5926
-13.6511
-13.7326
-13.8474
-14.0059
-14.2178