/*--------------------------------*- C++ -*----------------------------------*\
| =========                 |                                                 |
| \\      /  F ield         | OpenFOAM: The Open Source CFD Toolbox           |
|  \\    /   O peration     | Version:  2.1.1                                 |
|   \\  /    A nd           | Web:      www.OpenFOAM.org                      |
|    \\/     M anipulation  |                                                 |
\*---------------------------------------------------------------------------*/
FoamFile
{
    version     2.0;
    format      ascii;
    class       surfaceScalarField;
    location    "0.045";
    object      phi;
}
// * * * * * * * * * * * * * * * * * * * * * * * * * * * * * * * * * * * * * //

dimensions      [0 3 -1 0 0 0 0];

internalField   nonuniform List<scalar> 
13452
(
4.59972e-05
2.24901e-05
2.96593e-05
1.63379e-05
2.11792e-05
8.48009e-06
1.72732e-05
3.90601e-06
1.56253e-05
1.64787e-06
1.48108e-05
8.14517e-07
1.4293e-05
5.17794e-07
1.3895e-05
3.97953e-07
1.35569e-05
3.38162e-07
1.32631e-05
2.93805e-07
1.3009e-05
2.54027e-07
1.27909e-05
2.18145e-07
1.26043e-05
1.86546e-07
1.24451e-05
1.59262e-07
1.23092e-05
1.3589e-07
1.21934e-05
1.15821e-07
1.20949e-05
9.84338e-08
1.20118e-05
8.31742e-08
1.19422e-05
6.95799e-08
1.18849e-05
5.72777e-08
1.18389e-05
4.59727e-08
1.18035e-05
3.54407e-08
1.1778e-05
2.55136e-08
1.17619e-05
1.61004e-08
1.17549e-05
6.99322e-09
1.17565e-05
-1.65172e-09
1.17656e-05
-9.07361e-09
1.17803e-05
-1.46741e-08
1.17995e-05
-1.92509e-08
1.181e-05
-1.04979e-08
1.18176e-05
-7.53012e-09
1.16934e-05
1.24114e-07
-6.50113e-09
1.16999e-05
7.49117e-05
1.80223e-05
7.0408e-05
2.08417e-05
6.33128e-05
1.55753e-05
5.66511e-05
1.05677e-05
5.15266e-05
6.77238e-06
4.78622e-05
4.47885e-06
4.52321e-05
3.14789e-06
4.32942e-05
2.33588e-06
4.18153e-05
1.81704e-06
4.06457e-05
1.46343e-06
3.96931e-05
1.20664e-06
3.88997e-05
1.01157e-06
3.82277e-05
8.58542e-07
3.76514e-05
7.35505e-07
3.71528e-05
6.34523e-07
3.67185e-05
5.50111e-07
3.63386e-05
4.78337e-07
3.60055e-05
4.16324e-07
3.57131e-05
3.61927e-07
3.54569e-05
3.13522e-07
3.5233e-05
2.69864e-07
3.50384e-05
2.29994e-07
3.48708e-05
1.93176e-07
3.4728e-05
1.58878e-07
3.46083e-05
1.26715e-07
3.45099e-05
9.67497e-08
3.44315e-05
6.92677e-08
3.43713e-05
4.55181e-08
3.4326e-05
2.60682e-08
3.42943e-05
2.12036e-08
3.42638e-05
2.29758e-08
3.42854e-05
1.02519e-07
1.49351e-07
3.41296e-05
7.85208e-05
1.1958e-05
8.23329e-05
1.70296e-05
8.29871e-05
1.4921e-05
8.14655e-05
1.20894e-05
7.89343e-05
9.30359e-06
7.62373e-05
7.1758e-06
7.37064e-05
5.67888e-06
7.14448e-05
4.59743e-06
6.94661e-05
3.79574e-06
6.77459e-05
3.18365e-06
6.6251e-05
2.70153e-06
6.49495e-05
2.31301e-06
6.38133e-05
1.99481e-06
6.2818e-05
1.73074e-06
6.19436e-05
1.509e-06
6.11729e-05
1.32074e-06
6.04921e-05
1.1592e-06
5.98893e-05
1.01914e-06
5.93548e-05
8.96415e-07
5.88805e-05
7.87761e-07
5.84598e-05
6.90562e-07
5.80871e-05
6.02727e-07
5.77577e-05
5.22587e-07
5.74677e-05
4.48857e-07
5.72139e-05
3.80577e-07
5.69933e-05
3.17277e-07
5.68036e-05
2.58953e-07
5.66426e-05
2.06594e-07
5.65074e-05
1.6128e-07
5.63985e-05
1.30106e-07
5.6309e-05
1.12422e-07
5.62669e-05
1.44644e-07
1.86295e-07
5.62299e-05
7.81464e-05
8.33823e-06
8.1922e-05
1.32541e-05
8.46167e-05
1.22263e-05
8.62371e-05
1.04689e-05
8.69118e-05
8.62892e-06
8.69931e-05
7.09451e-06
8.67232e-05
5.94876e-06
8.62443e-05
5.0763e-06
8.5648e-05
4.39209e-06
8.49899e-05
3.84172e-06
8.43048e-05
3.38665e-06
8.36154e-05
3.00238e-06
8.29377e-05
2.67255e-06
8.22825e-05
2.38593e-06
8.16566e-05
2.13491e-06
8.10638e-05
1.91349e-06
8.05063e-05
1.71676e-06
7.99847e-05
1.54073e-06
7.9499e-05
1.38211e-06
7.90486e-05
1.23814e-06
7.86326e-05
1.10654e-06
7.825e-05
9.85396e-07
7.78994e-05
8.73109e-07
7.75799e-05
7.68399e-07
7.72902e-05
6.70283e-07
7.70293e-05
5.78197e-07
7.67962e-05
4.91974e-07
7.65906e-05
4.12232e-07
7.64121e-05
3.39799e-07
7.62635e-05
2.78723e-07
7.61468e-05
2.29057e-07
7.60862e-05
2.05229e-07
1.85483e-07
7.60871e-05
7.89911e-05
6.00297e-06
8.15897e-05
1.06555e-05
8.35153e-05
1.03006e-05
8.49578e-05
9.02639e-06
8.59747e-05
7.61208e-06
8.67143e-05
6.35494e-06
8.72786e-05
5.38442e-06
8.77154e-05
4.63946e-06
8.8056e-05
4.05147e-06
8.83214e-05
3.57634e-06
8.85258e-05
3.18231e-06
8.86801e-05
2.84808e-06
8.87922e-05
2.56045e-06
8.88681e-05
2.30999e-06
8.8914e-05
2.08903e-06
8.89355e-05
1.89202e-06
8.89374e-05
1.71479e-06
8.89241e-05
1.55403e-06
8.88992e-05
1.40705e-06
8.88657e-05
1.27163e-06
8.88263e-05
1.14592e-06
8.87833e-05
1.02838e-06
8.87387e-05
9.17732e-07
8.86942e-05
8.12921e-07
8.86513e-05
7.13134e-07
8.86117e-05
6.17854e-07
8.85768e-05
5.26813e-07
8.85489e-05
4.40213e-07
8.85305e-05
3.58188e-07
8.8527e-05
2.82177e-07
8.85457e-05
2.10409e-07
8.86053e-05
1.45567e-07
6.72304e-08
8.87236e-05
8.04628e-05
4.38613e-06
8.25037e-05
8.61454e-06
8.39879e-05
8.81641e-06
8.50451e-05
7.96928e-06
8.57651e-05
6.89201e-06
8.62768e-05
5.84328e-06
8.66814e-05
4.97978e-06
8.70263e-05
4.29463e-06
8.73345e-05
3.74329e-06
8.76175e-05
3.29329e-06
8.78804e-05
2.91947e-06
8.81254e-05
2.603e-06
8.8355e-05
2.33091e-06
8.85708e-05
2.09415e-06
8.87739e-05
1.88592e-06
8.8965e-05
1.70094e-06
8.91447e-05
1.53506e-06
8.93138e-05
1.38496e-06
8.94729e-05
1.24796e-06
8.96227e-05
1.12183e-06
8.97639e-05
1.00474e-06
8.98971e-05
8.95146e-07
9.00231e-05
7.91757e-07
9.01425e-05
6.93499e-07
9.02561e-05
5.99486e-07
9.0365e-05
5.09031e-07
9.04702e-05
4.21556e-07
9.05738e-05
3.36664e-07
9.06784e-05
2.53566e-07
9.07888e-05
1.71724e-07
9.09118e-05
8.74152e-08
9.10595e-05
-2.14459e-09
-1.16153e-07
9.12429e-05
8.22338e-05
3.2509e-06
8.38929e-05
6.95541e-06
8.51788e-05
7.53055e-06
8.611e-05
7.03803e-06
8.67489e-05
6.25314e-06
8.71855e-05
5.40667e-06
8.75077e-05
4.65761e-06
8.77647e-05
4.03754e-06
8.79834e-05
3.52461e-06
8.81791e-05
3.0976e-06
8.836e-05
2.7386e-06
8.85303e-05
2.43264e-06
8.86926e-05
2.16863e-06
8.88484e-05
1.93842e-06
8.89985e-05
1.73579e-06
8.91436e-05
1.5558e-06
8.92842e-05
1.39452e-06
8.94204e-05
1.24878e-06
8.95524e-05
1.11593e-06
8.96804e-05
9.93821e-07
8.98045e-05
8.80606e-07
8.99249e-05
7.74743e-07
9.00418e-05
6.74906e-07
9.01553e-05
5.79962e-07
9.02659e-05
4.88914e-07
9.0374e-05
4.00879e-07
9.04806e-05
3.14962e-07
9.05871e-05
2.30228e-07
9.06955e-05
1.45174e-07
9.08093e-05
5.78984e-08
9.0933e-05
-3.62811e-08
9.10739e-05
-1.43061e-07
-2.7736e-07
9.12351e-05
8.42162e-05
2.45022e-06
8.5549e-05
5.62264e-06
8.66693e-05
6.41029e-06
8.75243e-05
6.18294e-06
8.81474e-05
5.63009e-06
8.85913e-05
4.96279e-06
8.89213e-05
4.32759e-06
8.91811e-05
3.77775e-06
8.93963e-05
3.30941e-06
8.95829e-05
2.91096e-06
8.97506e-05
2.57095e-06
8.99048e-05
2.27842e-06
9.0049e-05
2.02438e-06
9.01855e-05
1.80191e-06
9.03158e-05
1.60551e-06
9.04409e-05
1.43072e-06
9.05615e-05
1.27391e-06
9.06782e-05
1.13208e-06
9.07914e-05
1.00275e-06
9.09014e-05
8.83822e-07
9.10085e-05
7.73514e-07
9.11129e-05
6.70304e-07
9.1215e-05
5.72865e-07
9.13149e-05
4.80022e-07
9.14131e-05
3.90692e-07
9.15102e-05
3.03836e-07
9.16068e-05
2.18323e-07
9.17042e-05
1.32842e-07
9.18039e-05
4.54594e-08
9.19082e-05
-4.64077e-08
9.20193e-05
-1.47398e-07
9.21399e-05
-2.6362e-07
-4.05585e-07
9.22681e-05
8.63716e-05
1.87733e-06
8.74397e-05
4.55459e-06
8.84093e-05
5.44071e-06
8.91843e-05
5.40787e-06
8.9778e-05
5.03638e-06
9.0221e-05
4.51979e-06
9.05604e-05
3.98818e-06
9.08327e-05
3.50546e-06
9.10604e-05
3.08174e-06
9.1258e-05
2.71336e-06
9.14348e-05
2.39419e-06
9.15964e-05
2.11681e-06
9.17465e-05
1.87426e-06
9.18876e-05
1.66082e-06
9.20213e-05
1.47175e-06
9.2149e-05
1.30307e-06
9.22714e-05
1.1515e-06
9.23892e-05
1.01424e-06
9.2503e-05
8.88976e-07
9.26131e-05
7.73704e-07
9.27199e-05
6.66717e-07
9.28237e-05
5.66525e-07
9.29248e-05
4.71813e-07
9.30234e-05
3.81383e-07
9.312e-05
2.94102e-07
9.3215e-05
2.08832e-07
9.3309e-05
1.24309e-07
9.34028e-05
3.90377e-08
9.34973e-05
-4.90231e-08
9.35934e-05
-1.42547e-07
9.36917e-05
-2.45611e-07
9.37916e-05
-3.63534e-07
-5.02904e-07
9.38889e-05
8.86671e-05
1.46023e-06
8.95231e-05
3.69861e-06
9.03591e-05
4.60466e-06
9.10586e-05
4.70839e-06
9.16186e-05
4.47636e-06
9.20544e-05
4.08403e-06
9.23978e-05
3.64478e-06
9.26779e-05
3.22532e-06
9.29143e-05
2.84535e-06
9.31201e-05
2.50753e-06
9.33043e-05
2.21005e-06
9.34725e-05
1.94861e-06
9.36285e-05
1.71824e-06
9.37749e-05
1.51441e-06
9.39135e-05
1.33317e-06
9.40455e-05
1.17107e-06
9.41719e-05
1.02516e-06
9.42932e-05
8.92884e-07
9.44101e-05
7.72078e-07
9.4523e-05
6.60856e-07
9.46321e-05
5.57579e-07
9.47378e-05
4.60806e-07
9.48404e-05
3.69244e-07
9.49401e-05
2.81701e-07
9.50371e-05
1.97026e-07
9.51319e-05
1.14052e-07
9.52247e-05
3.14846e-08
9.5316e-05
-5.21822e-08
9.54058e-05
-1.38868e-07
9.54942e-05
-2.30982e-07
9.55804e-05
-3.31729e-07
9.56619e-05
-4.4511e-07
-5.74716e-07
9.57338e-05
9.10808e-05
1.1507e-06
9.17688e-05
3.01066e-06
9.24887e-05
3.88479e-06
9.31192e-05
4.07788e-06
9.36446e-05
3.95099e-06
9.40691e-05
3.6595e-06
9.44129e-05
3.30101e-06
9.46983e-05
2.93991e-06
9.49419e-05
2.60178e-06
9.51552e-05
2.29416e-06
9.53466e-05
2.01871e-06
9.55214e-05
1.77378e-06
9.56834e-05
1.55619e-06
9.58353e-05
1.36257e-06
9.59787e-05
1.18972e-06
9.61151e-05
1.03471e-06
9.62453e-05
8.94923e-07
9.63701e-05
7.68069e-07
9.64901e-05
6.52135e-07
9.66056e-05
5.45359e-07
9.6717e-05
4.46189e-07
9.68245e-05
3.53245e-07
9.69285e-05
2.65277e-07
9.70291e-05
1.81123e-07
9.71264e-05
9.96606e-08
9.72207e-05
1.9752e-08
9.7312e-05
-5.98322e-08
9.74003e-05
-1.40474e-07
9.74853e-05
-2.23817e-07
9.75661e-05
-3.11797e-07
9.7641e-05
-4.06682e-07
9.7707e-05
-5.11098e-07
-6.26491e-07
9.77588e-05
9.35992e-05
9.16163e-07
9.41549e-05
2.45495e-06
9.4774e-05
3.26564e-06
9.53412e-05
3.51073e-06
9.58317e-05
3.46047e-06
9.62425e-05
3.24875e-06
9.65845e-05
2.95899e-06
9.6874e-05
2.65042e-06
9.71242e-05
2.35153e-06
9.73451e-05
2.0733e-06
9.75438e-05
1.81995e-06
9.77257e-05
1.59195e-06
9.78942e-05
1.38769e-06
9.80519e-05
1.20484e-06
9.82007e-05
1.04093e-06
9.83419e-05
8.93517e-07
9.84764e-05
7.6035e-07
9.86051e-05
6.39376e-07
9.87285e-05
5.28762e-07
9.8847e-05
4.26874e-07
9.89609e-05
3.32257e-07
9.90706e-05
2.43605e-07
9.91761e-05
1.59731e-07
9.92777e-05
7.95308e-08
9.93754e-05
1.94613e-09
9.94692e-05
-7.40764e-08
9.9559e-05
-1.4963e-07
9.96445e-05
-2.2589e-07
9.97248e-05
-3.04142e-07
9.97988e-05
-3.85779e-07
9.98643e-05
-4.72198e-07
9.9918e-05
-5.64831e-07
-6.63696e-07
9.99552e-05
9.62136e-05
7.34664e-07
9.66656e-05
2.0029e-06
9.71984e-05
2.73288e-06
9.77081e-05
3.00102e-06
9.81647e-05
3.00384e-06
9.85599e-05
2.85354e-06
9.8898e-05
2.62092e-06
9.91897e-05
2.35871e-06
9.94453e-05
2.09592e-06
9.9673e-05
1.84567e-06
9.98789e-05
1.614e-06
0.000100068
1.40301e-06
0.000100243
1.2124e-06
0.000100407
1.04076e-06
0.000100562
8.86264e-07
0.000100708
7.46957e-07
0.000100848
6.2091e-07
0.000100981
5.06315e-07
0.000101108
4.01512e-07
0.00010123
3.05003e-07
0.000101347
2.15435e-07
0.000101459
1.31589e-07
0.000101566
5.23585e-08
0.000101669
-2.32812e-08
0.000101767
-9.62932e-08
0.000101861
-1.67606e-07
0.000101949
-2.38141e-07
0.000102032
-3.08819e-07
0.000102109
-3.80553e-07
0.000102177
-4.54214e-07
0.000102235
-5.30478e-07
0.00010228
-6.09842e-07
-6.91469e-07
0.000102308
9.89192e-05
5.91237e-07
9.92902e-05
1.63188e-06
9.97496e-05
2.27346e-06
0.000100208
2.54297e-06
0.000100632
2.57962e-06
0.00010101
2.47499e-06
0.000101343
2.2886e-06
0.000101635
2.0663e-06
0.000101895
1.83599e-06
0.000102129
1.61185e-06
0.000102342
1.40109e-06
0.000102538
1.20696e-06
0.00010272
1.03018e-06
0.000102891
8.70102e-07
0.000103052
7.25475e-07
0.000103204
5.94759e-07
0.000103348
4.76336e-07
0.000103486
3.68624e-07
0.000103617
2.70139e-07
0.000103743
1.79515e-07
0.000103863
9.55108e-08
0.000103977
1.7003e-08
0.000104087
-5.70247e-08
0.000104191
-1.27497e-07
0.00010429
-1.95263e-07
0.000104383
-2.6111e-07
0.000104471
-3.25764e-07
0.000104552
-3.89893e-07
0.000104626
-4.54063e-07
0.00010469
-5.18698e-07
0.000104744
-5.83927e-07
0.000104783
-6.49598e-07
-7.14429e-07
0.000104806
0.000101713
4.75574e-07
0.000102021
1.32413e-06
0.000102419
1.87572e-06
0.000102831
2.13079e-06
0.000103225
2.18569e-06
0.000103587
2.11331e-06
0.000103912
1.96317e-06
0.000104204
1.7744e-06
0.000104467
1.57278e-06
0.000104706
1.37261e-06
0.000104926
1.1817e-06
0.000105129
1.00404e-06
0.000105318
8.41081e-07
0.000105495
6.92795e-07
0.000105662
5.58394e-07
0.00010582
4.36702e-07
0.00010597
3.26375e-07
0.000106113
2.26041e-07
0.000106249
1.3438e-07
0.000106378
5.01558e-08
0.000106501
-2.77625e-08
0.000106619
-1.00397e-07
0.00010673
-1.68666e-07
0.000106836
-2.33387e-07
0.000106936
-2.95288e-07
0.00010703
-3.55008e-07
0.000107117
-4.13086e-07
0.000107198
-4.69955e-07
0.000107269
-5.25891e-07
0.000107332
-5.80973e-07
0.000107383
-6.34954e-07
0.00010742
-6.87274e-07
-7.36497e-07
0.000107442
0.000104596
3.80462e-07
0.000104854
1.06579e-06
0.0001052
1.52936e-06
0.000105572
1.75887e-06
0.000105938
1.81956e-06
0.000106283
1.76815e-06
0.000106601
1.64531e-06
0.000106892
1.48394e-06
0.000107157
1.3071e-06
0.000107402
1.12854e-06
0.000107627
9.56183e-07
0.000107837
7.94401e-07
0.000108033
6.45115e-07
0.000108217
5.08746e-07
0.00010839
3.84871e-07
0.000108554
2.72603e-07
0.00010871
1.70833e-07
0.000108858
7.83712e-08
0.000108998
-5.95751e-09
0.000109131
-8.32653e-08
0.000109258
-1.54575e-07
0.000109378
-2.20811e-07
0.000109493
-2.82788e-07
0.0001096
-3.41222e-07
0.000109702
-3.96718e-07
0.000109797
-4.49772e-07
0.000109884
-5.00762e-07
0.000109964
-5.4992e-07
0.000110036
-5.97301e-07
0.000110097
-6.42745e-07
0.000110148
-6.85776e-07
0.000110187
-7.25628e-07
-7.60902e-07
0.000110211
0.000107566
3.0076e-07
0.000107785
8.46001e-07
0.000108089
1.22541e-06
0.000108427
1.42178e-06
0.000108768
1.47841e-06
0.000109097
1.43855e-06
0.000109407
1.33512e-06
0.000109696
1.19542e-06
0.000109964
1.0395e-06
0.000110212
8.8009e-07
0.000110443
7.24852e-07
0.00011066
5.78211e-07
0.000110862
4.42332e-07
0.000111053
3.17918e-07
0.000111233
2.048e-07
0.000111404
1.02313e-07
0.000111565
9.52761e-09
0.000111718
-7.45918e-08
0.000111863
-1.51093e-07
0.000112001
-2.2098e-07
0.000112131
-2.85176e-07
0.000112255
-3.4451e-07
0.000112372
-3.99706e-07
0.000112482
-4.51375e-07
0.000112585
-5.00014e-07
0.000112682
-5.45996e-07
0.00011277
-5.89561e-07
0.000112851
-6.30792e-07
0.000112923
-6.6959e-07
0.000112986
-7.05648e-07
0.000113039
-7.38384e-07
0.00011308
-7.66966e-07
-7.90139e-07
0.00011311
0.000110625
2.32719e-07
0.000110815
6.56271e-07
0.000111084
9.56091e-07
0.000111391
1.11436e-06
0.000111711
1.15925e-06
0.000112026
1.12312e-06
0.000112329
1.03225e-06
0.000112615
9.08938e-07
0.000112885
7.70247e-07
0.000113137
6.27527e-07
0.000113374
4.87881e-07
0.000113597
3.55546e-07
0.000113806
2.32717e-07
0.000114004
1.20225e-07
0.000114191
1.80481e-08
0.000114368
-7.43349e-08
0.000114535
-1.57722e-07
0.000114693
-2.33034e-07
0.000114843
-3.01219e-07
0.000114986
-3.63187e-07
0.00011512
-4.19777e-07
0.000115247
-4.71734e-07
0.000115367
-5.19695e-07
0.00011548
-5.64186e-07
0.000115586
-6.05607e-07
0.000115684
-6.44232e-07
0.000115775
-6.80197e-07
0.000115857
-7.13482e-07
0.000115932
-7.43897e-07
0.000115997
-7.71066e-07
0.000116053
-7.94388e-07
0.000116099
-8.1307e-07
-8.26059e-07
0.000116135
0.000113775
1.73541e-07
0.000113941
4.8987e-07
0.000114182
7.14689e-07
0.000114465
8.31695e-07
0.000114765
8.58885e-07
0.000115069
8.20062e-07
0.000115365
7.3585e-07
0.00011565
6.24187e-07
0.000115921
4.99246e-07
0.000116177
3.70826e-07
0.00011642
2.45239e-07
0.000116649
1.26332e-07
0.000116866
1.61449e-08
0.000117071
-8.45013e-08
0.000117264
-1.75584e-07
0.000117447
-2.5756e-07
0.000117621
-3.31151e-07
0.000117785
-3.97204e-07
0.00011794
-4.56593e-07
0.000118087
-5.1016e-07
0.000118226
-5.58672e-07
0.000118357
-6.02806e-07
0.000118481
-6.43128e-07
0.000118597
-6.80088e-07
0.000118705
-7.14014e-07
0.000118806
-7.45105e-07
0.000118899
-7.73425e-07
0.000118985
-7.98895e-07
0.000119062
-8.21283e-07
0.000119131
-8.40202e-07
0.000119192
-8.55093e-07
0.000119244
-8.65254e-07
-8.6984e-07
0.000119288
0.000117017
1.21081e-07
0.000117165
3.41407e-07
0.000117385
4.95388e-07
0.000117647
5.69172e-07
0.000117932
5.74051e-07
0.000118225
5.2725e-07
0.000118516
4.44664e-07
0.0001188
3.40454e-07
0.000119073
2.26087e-07
0.000119334
1.09725e-07
0.000119582
-3.28473e-09
0.000119818
-1.09624e-07
0.000120042
-2.07578e-07
0.000120254
-2.96458e-07
0.000120455
-3.76299e-07
0.000120645
-4.47565e-07
0.000120825
-5.10961e-07
0.000120995
-5.673e-07
0.000121156
-6.17415e-07
0.000121307
-6.62101e-07
0.000121451
-7.02077e-07
0.000121586
-7.37965e-07
0.000121713
-7.70277e-07
0.000121833
-7.99407e-07
0.000121944
-8.25629e-07
0.000122048
-8.49093e-07
0.000122145
-8.6982e-07
0.000122233
-8.87706e-07
0.000122315
-9.02517e-07
0.000122388
-9.13896e-07
0.000122455
-9.21363e-07
0.000122514
-9.24343e-07
-9.22197e-07
0.000122566
0.000120353
7.36429e-08
0.000120488
2.06474e-07
0.000120691
2.93098e-07
0.000120937
3.22399e-07
0.00012121
3.01358e-07
0.000121495
2.42234e-07
0.000121783
1.57007e-07
0.000122067
5.65823e-08
0.000122343
-5.00647e-08
0.000122609
-1.56427e-07
0.000122864
-2.58209e-07
0.000123107
-3.52808e-07
0.000123338
-4.38906e-07
0.000123558
-5.16082e-07
0.000123766
-5.84515e-07
0.000123963
-6.44751e-07
0.00012415
-6.97535e-07
0.000124326
-7.43691e-07
0.000124493
-7.84042e-07
0.00012465
-8.19365e-07
0.000124799
-8.50348e-07
0.000124938
-8.7758e-07
0.000125069
-9.01535e-07
0.000125193
-9.2257e-07
0.000125308
-9.40925e-07
0.000125416
-9.56721e-07
0.000125516
-9.69962e-07
0.000125609
-9.80545e-07
0.000125694
-9.88257e-07
0.000125773
-9.92795e-07
0.000125846
-9.93769e-07
0.000125912
-9.9073e-07
-9.83206e-07
0.000125973
0.000123787
2.98391e-08
0.000123912
8.13751e-08
0.000124102
1.03283e-07
0.000124337
8.71687e-08
0.000124601
3.73167e-08
0.000124881
-3.77206e-08
0.000125167
-1.29174e-07
0.000125453
-2.28951e-07
0.000125733
-3.3035e-07
0.000126005
-4.28503e-07
0.000126267
-5.20252e-07
0.000126518
-6.03783e-07
0.000126758
-6.78308e-07
0.000126985
-7.43765e-07
0.000127201
-8.00565e-07
0.000127406
-8.49406e-07
0.0001276
-8.91123e-07
0.000127782
-9.26594e-07
0.000127955
-9.5667e-07
0.000128118
-9.8213e-07
0.000128271
-1.00366e-06
0.000128415
-1.02183e-06
0.000128551
-1.0371e-06
0.000128678
-1.0498e-06
0.000128797
-1.06015e-06
0.000128909
-1.06826e-06
0.000129013
-1.07415e-06
0.00012911
-1.07772e-06
0.000129201
-1.0788e-06
0.000129285
-1.07715e-06
0.000129364
-1.07247e-06
0.000129438
-1.06446e-06
-1.05278e-06
0.000129507
0.00012732
-1.15144e-08
0.000127438
-3.71025e-08
0.00012762
-7.82107e-08
0.000127848
-1.40646e-07
0.000128107
-2.21749e-07
0.000128385
-3.1572e-07
0.000128672
-4.1643e-07
0.000128961
-5.18228e-07
0.000129247
-6.16492e-07
0.000129527
-7.0796e-07
0.000129797
-7.90658e-07
0.000130057
-8.63643e-07
0.000130306
-9.26753e-07
0.000130542
-9.8037e-07
0.000130767
-1.02522e-06
0.00013098
-1.06221e-06
0.000131181
-1.09233e-06
0.000131371
-1.11655e-06
0.00013155
-1.13578e-06
0.000131719
-1.15084e-06
0.000131877
-1.16242e-06
0.000132027
-1.17109e-06
0.000132167
-1.17732e-06
0.000132299
-1.18142e-06
0.000132422
-1.18363e-06
0.000132538
-1.18404e-06
0.000132646
-1.18268e-06
0.000132748
-1.17948e-06
0.000132844
-1.17433e-06
0.000132933
-1.16703e-06
0.000133018
-1.15737e-06
0.000133099
-1.14513e-06
-1.13009e-06
0.000133176
0.000130955
-5.14777e-08
0.00013107
-1.51872e-07
0.000131247
-2.55309e-07
0.000131471
-3.65156e-07
0.000131729
-4.79679e-07
0.000132009
-5.9514e-07
0.0001323
-7.07609e-07
0.000132595
-8.13589e-07
0.000132889
-9.10391e-07
0.000133177
-9.96329e-07
0.000133457
-1.07066e-06
0.000133727
-1.13338e-06
0.000133985
-1.18503e-06
0.000134232
-1.22653e-06
0.000134465
-1.25898e-06
0.000134687
-1.28357e-06
0.000134896
-1.30148e-06
0.000135093
-1.31381e-06
0.000135279
-1.32158e-06
0.000135454
-1.32564e-06
0.000135618
-1.32674e-06
0.000135772
-1.32546e-06
0.000135917
-1.32227e-06
0.000136053
-1.31751e-06
0.000136181
-1.31139e-06
0.000136301
-1.30405e-06
0.000136414
-1.29551e-06
0.00013652
-1.28575e-06
0.000136621
-1.27467e-06
0.000136716
-1.26216e-06
0.000136806
-1.24806e-06
0.000136894
-1.23227e-06
-1.21461e-06
0.000136978
0.000134695
-9.10487e-08
0.000134809
-2.65733e-07
0.000134985
-4.31942e-07
0.000135211
-5.90709e-07
0.000135472
-7.40797e-07
0.000135757
-8.80052e-07
0.000136056
-1.00642e-06
0.00013636
-1.11835e-06
0.000136665
-1.21498e-06
0.000136965
-1.2962e-06
0.000137257
-1.36252e-06
0.000137538
-1.41496e-06
0.000137808
-1.45485e-06
0.000138065
-1.48371e-06
0.000138309
-1.5031e-06
0.00013854
-1.51453e-06
0.000138758
-1.51944e-06
0.000138964
-1.5191e-06
0.000139157
-1.51464e-06
0.000139338
-1.50701e-06
0.000139508
-1.497e-06
0.000139668
-1.48522e-06
0.000139818
-1.47218e-06
0.000139959
-1.4582e-06
0.000140091
-1.44354e-06
0.000140215
-1.42831e-06
0.000140332
-1.41259e-06
0.000140443
-1.39634e-06
0.000140548
-1.37953e-06
0.000140647
-1.36206e-06
0.000140743
-1.34384e-06
0.000140836
-1.32478e-06
-1.30473e-06
0.000140926
0.000138542
-1.31229e-07
0.000138658
-3.81497e-07
0.000138838
-6.12103e-07
0.000139069
-8.21792e-07
0.000139338
-1.00957e-06
0.000139633
-1.1746e-06
0.000139943
-1.31652e-06
0.00014026
-1.43564e-06
0.000140578
-1.53288e-06
0.000140892
-1.60972e-06
0.000141197
-1.668e-06
0.000141492
-1.70982e-06
0.000141774
-1.73738e-06
0.000142044
-1.75286e-06
0.000142299
-1.75833e-06
0.00014254
-1.7557e-06
0.000142767
-1.74668e-06
0.000142981
-1.73277e-06
0.000143181
-1.71523e-06
0.00014337
-1.69512e-06
0.000143546
-1.67329e-06
0.000143711
-1.65041e-06
0.000143866
-1.627e-06
0.000144011
-1.6034e-06
0.000144147
-1.57988e-06
0.000144276
-1.55658e-06
0.000144397
-1.53356e-06
0.000144511
-1.51084e-06
0.00014462
-1.48837e-06
0.000144724
-1.46611e-06
0.000144824
-1.44397e-06
0.000144921
-1.42195e-06
-1.3999e-06
0.000145017
0.000142501
-1.73131e-07
0.000142622
-5.02313e-07
0.00014281
-8.00438e-07
0.000143052
-1.06392e-06
0.000143335
-1.29189e-06
0.000143645
-1.48471e-06
0.000143972
-1.64362e-06
0.000144307
-1.77076e-06
0.000144643
-1.86888e-06
0.000144974
-1.94113e-06
0.000145297
-1.99076e-06
0.000145608
-2.02107e-06
0.000145906
-2.03519e-06
0.00014619
-2.03607e-06
0.000146458
-2.02636e-06
0.00014671
-2.0084e-06
0.000146948
-1.98423e-06
0.000147171
-1.95558e-06
0.000147379
-1.92389e-06
0.000147574
-1.89033e-06
0.000147757
-1.85582e-06
0.000147928
-1.82109e-06
0.000148087
-1.78666e-06
0.000148237
-1.75293e-06
0.000148377
-1.72014e-06
0.000148509
-1.68845e-06
0.000148633
-1.65792e-06
0.000148751
-1.62858e-06
0.000148863
-1.60037e-06
0.00014897
-1.57326e-06
0.000149073
-1.54715e-06
0.000149173
-1.52202e-06
-1.49768e-06
0.000149271
0.000146574
-2.1793e-07
0.000146703
-6.31505e-07
0.000146905
-1.00167e-06
0.000147163
-1.32237e-06
0.000147464
-1.59302e-06
0.000147795
-1.81528e-06
0.000148143
-1.99208e-06
0.0001485
-2.12753e-06
0.000148857
-2.22631e-06
0.00014921
-2.29331e-06
0.000149552
-2.33333e-06
0.000149882
-2.35089e-06
0.000150197
-2.35019e-06
0.000150496
-2.33499e-06
0.000150778
-2.30858e-06
0.000151043
-2.27379e-06
0.000151292
-2.23302e-06
0.000151525
-2.18828e-06
0.000151742
-2.14118e-06
0.000151945
-2.09301e-06
0.000152134
-2.04481e-06
0.00015231
-1.99732e-06
0.000152475
-1.95112e-06
0.000152628
-1.9066e-06
0.000152772
-1.86401e-06
0.000152907
-1.8235e-06
0.000153034
-1.78513e-06
0.000153155
-1.74891e-06
0.000153269
-1.71479e-06
0.000153379
-1.68271e-06
0.000153484
-1.65259e-06
0.000153586
-1.62439e-06
-1.59793e-06
0.000153687
0.000150765
-2.67355e-07
0.000150908
-7.73935e-07
0.000151129
-1.22311e-06
0.000151413
-1.60611e-06
0.000151742
-1.92276e-06
0.000152103
-2.1762e-06
0.000152483
-2.37133e-06
0.00015287
-2.51446e-06
0.000153256
-2.61255e-06
0.000153635
-2.67246e-06
0.000154002
-2.70071e-06
0.000154355
-2.70325e-06
0.00015469
-2.68543e-06
0.000155007
-2.65189e-06
0.000155305
-2.60661e-06
0.000155584
-2.55297e-06
0.000155845
-2.49375e-06
0.000156088
-2.43121e-06
0.000156314
-2.36717e-06
0.000156524
-2.30305e-06
0.000156719
-2.23995e-06
0.0001569
-2.17866e-06
0.000157069
-2.11978e-06
0.000157226
-2.0637e-06
0.000157373
-2.01066e-06
0.00015751
-1.96078e-06
0.000157639
-1.91411e-06
0.000157761
-1.87061e-06
0.000157876
-1.83021e-06
0.000157986
-1.7928e-06
0.000158092
-1.75827e-06
0.000158194
-1.7265e-06
-1.6972e-06
0.000158293
0.000155077
-3.22814e-07
0.000155237
-9.33743e-07
0.000155484
-1.4702e-06
0.000155799
-1.92074e-06
0.000156162
-2.28649e-06
0.000156559
-2.57267e-06
0.000156974
-2.78643e-06
0.000157396
-2.9366e-06
0.000157816
-3.03259e-06
0.000158227
-3.08346e-06
0.000158624
-3.09759e-06
0.000159003
-3.08251e-06
0.000159363
-3.04485e-06
0.000159701
-2.99025e-06
0.000160018
-2.92348e-06
0.000160313
-2.84849e-06
0.000160588
-2.76848e-06
0.000160843
-2.68602e-06
0.000161079
-2.60312e-06
0.000161297
-2.52133e-06
0.000161499
-2.44181e-06
0.000161686
-2.36542e-06
0.000161859
-2.29272e-06
0.000162019
-2.2241e-06
0.000162168
-2.15976e-06
0.000162307
-2.09981e-06
0.000162437
-2.04423e-06
0.00016256
-1.99296e-06
0.000162675
-1.94587e-06
0.000162785
-1.90283e-06
0.000162891
-1.86365e-06
0.000162993
-1.82823e-06
-1.79621e-06
0.000163092
0.000159516
-3.88561e-07
0.000159705
-1.12195e-06
0.000159993
-1.75899e-06
0.000160358
-2.28492e-06
0.000160774
-2.70322e-06
0.000161224
-3.0222e-06
0.00016169
-3.25229e-06
0.000162159
-3.40586e-06
0.000162622
-3.49551e-06
0.000163071
-3.53288e-06
0.000163502
-3.5285e-06
0.000163911
-3.49164e-06
0.000164297
-3.43024e-06
0.000164657
-3.35102e-06
0.000164993
-3.2595e-06
0.000165305
-3.16022e-06
0.000165593
-3.05678e-06
0.00016586
-2.95203e-06
0.000166105
-2.84818e-06
0.00016633
-2.74687e-06
0.000166538
-2.64932e-06
0.000166729
-2.55638e-06
0.000166904
-2.46862e-06
0.000167067
-2.38637e-06
0.000167217
-2.3098e-06
0.000167356
-2.23894e-06
0.000167485
-2.17373e-06
0.000167606
-2.11402e-06
0.00016772
-2.05963e-06
0.000167828
-2.01033e-06
0.00016793
-1.96585e-06
0.000168028
-1.92598e-06
-1.89021e-06
0.000168122
0.000164082
-4.6435e-07
0.000164301
-1.3406e-06
0.000164633
-2.09147e-06
0.000165049
-2.70103e-06
0.000165523
-3.17726e-06
0.000166033
-3.53178e-06
0.000166559
-3.7784e-06
0.000167087
-3.93349e-06
0.000167604
-4.01335e-06
0.000168104
-4.03274e-06
0.000168581
-4.0048e-06
0.00016903
-3.94087e-06
0.00016945
-3.85055e-06
0.000169841
-3.74174e-06
0.000170202
-3.62089e-06
0.000170535
-3.49315e-06
0.000170841
-3.36257e-06
0.000171121
-3.23227e-06
0.000171378
-3.10461e-06
0.000171612
-2.98131e-06
0.000171826
-2.86359e-06
0.000172022
-2.75228e-06
0.000172201
-2.64789e-06
0.000172366
-2.55067e-06
0.000172517
-2.46072e-06
0.000172656
-2.37797e-06
0.000172784
-2.30228e-06
0.000172904
-2.23343e-06
0.000173015
-2.17115e-06
0.00017312
-2.11514e-06
0.000173219
-2.06508e-06
0.000173314
-2.0207e-06
-1.9814e-06
0.000173405
0.000168795
-5.6753e-07
0.00016908
-1.62563e-06
0.0001695
-2.51182e-06
0.00017001
-3.21114e-06
0.000170576
-3.74266e-06
0.00017117
-4.1255e-06
0.000171771
-4.37978e-06
0.000172365
-4.52763e-06
0.000172941
-4.5896e-06
0.000173492
-4.58367e-06
0.000174013
-4.52552e-06
0.000174501
-4.42855e-06
0.000174954
-4.30386e-06
0.000175373
-4.16053e-06
0.000175758
-4.00585e-06
0.00017611
-3.84557e-06
0.000176432
-3.68416e-06
0.000176724
-3.52499e-06
0.00017699
-3.37055e-06
0.000177232
-3.22262e-06
0.000177451
-3.0824e-06
0.000177649
-2.95067e-06
0.000177829
-2.82784e-06
0.000177992
-2.71407e-06
0.000178141
-2.60933e-06
0.000178276
-2.51346e-06
0.0001784
-2.42618e-06
0.000178514
-2.34718e-06
0.000178619
-2.27607e-06
0.000178716
-2.21246e-06
0.000178807
-2.15589e-06
0.000178892
-2.10595e-06
-2.06188e-06
0.000178973
0.000173623
-6.79145e-07
0.000173954
-1.95688e-06
0.000174446
-3.00383e-06
0.000175049
-3.81381e-06
0.000175722
-4.41545e-06
0.000176428
-4.83217e-06
0.00017714
-5.09169e-06
0.000177837
-5.22474e-06
0.000178506
-5.25832e-06
0.000179138
-5.21519e-06
0.000179727
-5.11478e-06
0.000180272
-4.97322e-06
0.000180771
-4.80358e-06
0.000181227
-4.61629e-06
0.000181641
-4.41953e-06
0.000182015
-4.21964e-06
0.000182352
-4.02137e-06
0.000182655
-3.82826e-06
0.000182927
-3.6428e-06
0.000183172
-3.46672e-06
0.00018339
-3.30108e-06
0.000183586
-3.1465e-06
0.000183761
-3.00321e-06
0.000183919
-2.8712e-06
0.000184059
-2.75025e-06
0.000184186
-2.64003e-06
0.0001843
-2.54014e-06
0.000184403
-2.45011e-06
0.000184496
-2.36948e-06
0.000184582
-2.29777e-06
0.00018466
-2.23447e-06
0.000184733
-2.17916e-06
-2.13089e-06
0.000184803
0.000178682
-8.93092e-07
0.000179191
-2.46576e-06
0.000179865
-3.67774e-06
0.000180625
-4.57327e-06
0.000181428
-5.21878e-06
0.000182243
-5.64697e-06
0.000183045
-5.89406e-06
0.000183819
-5.9983e-06
0.000184552
-5.9915e-06
0.000185237
-5.90045e-06
0.000185871
-5.74809e-06
0.000186451
-5.55321e-06
0.000186978
-5.33085e-06
0.000187454
-5.09279e-06
0.000187883
-4.84816e-06
0.000188267
-4.60379e-06
0.00018861
-4.36472e-06
0.000188917
-4.13452e-06
0.00018919
-3.91561e-06
0.000189432
-3.70953e-06
0.000189648
-3.51713e-06
0.000189841
-3.33877e-06
0.000190012
-3.17441e-06
0.000190164
-3.02379e-06
0.000190301
-2.88643e-06
0.000190422
-2.76178e-06
0.000190531
-2.64925e-06
0.00019063
-2.5482e-06
0.000190718
-2.45806e-06
0.000190799
-2.37825e-06
0.000190872
-2.30825e-06
0.000190941
-2.24756e-06
-2.19515e-06
0.000191005
0.000183746
-1.0717e-06
0.000184338
-3.05815e-06
0.000185173
-4.51199e-06
0.000186145
-5.54606e-06
0.000187175
-6.24808e-06
0.000188197
-6.6694e-06
0.000189179
-6.87577e-06
0.000190105
-6.92435e-06
0.000190969
-6.85583e-06
0.000191771
-6.70222e-06
0.000192512
-6.48937e-06
0.000193196
-6.23731e-06
0.000193827
-5.96144e-06
0.000194408
-5.6736e-06
0.000194942
-5.38275e-06
0.000195434
-5.09554e-06
0.000195886
-4.81682e-06
0.000196302
-4.55003e-06
0.000196684
-4.29744e-06
0.000197035
-4.06048e-06
0.000197357
-3.83986e-06
0.000197654
-3.63577e-06
0.000197928
-3.44805e-06
0.00019818
-3.27625e-06
0.000198414
-3.11975e-06
0.00019863
-2.97783e-06
0.00019883
-2.84974e-06
0.000199017
-2.73477e-06
0.000199191
-2.63232e-06
0.000199355
-2.54183e-06
0.00019951
-2.46314e-06
0.000199658
-2.39581e-06
-2.33993e-06
0.000199803
0.000189418
-1.67775e-06
0.000190407
-4.04746e-06
0.000191491
-5.59588e-06
0.000192653
-6.70761e-06
0.000193898
-7.49345e-06
0.000195206
-7.97702e-06
0.000196555
-8.22478e-06
0.000197921
-8.29098e-06