/*--------------------------------*- C++ -*----------------------------------*\
| =========                 |                                                 |
| \\      /  F ield         | OpenFOAM: The Open Source CFD Toolbox           |
|  \\    /   O peration     | Version:  2.1.1                                 |
|   \\  /    A nd           | Web:      www.OpenFOAM.org                      |
|    \\/     M anipulation  |                                                 |
\*---------------------------------------------------------------------------*/
FoamFile
{
    version     2.0;
    format      ascii;
    class       volVectorField;
    location    "0.045";
    object      U;
}
// * * * * * * * * * * * * * * * * * * * * * * * * * * * * * * * * * * * * * //

dimensions      [0 1 -1 0 0 0 0];

internalField   nonuniform List<vector> 
6820
(
(6.37599 0.50375 0)
(4.42424 0.286877 0)
(2.9733 0.020222 0)
(2.23383 -0.0618908 0)
(1.96792 -0.0599588 0)
(1.84071 -0.0345314 0)
(1.76534 -0.0151204 0)
(1.7127 -0.0047492 0)
(1.66876 -5.21551e-05 0)
(1.63048 0.00145166 0)
(1.59727 0.00142987 0)
(1.56867 0.000818203 0)
(1.54417 4.94792e-05 0)
(1.52325 -0.000687177 0)
(1.50539 -0.00131849 0)
(1.49015 -0.00182838 0)
(1.47718 -0.0022266 0)
(1.46618 -0.00253185 0)
(1.45692 -0.00276372 0)
(1.44923 -0.00293955 0)
(1.44297 -0.00307353 0)
(1.43803 -0.00317622 0)
(1.43433 -0.00325444 0)
(1.43181 -0.00330839 0)
(1.43039 -0.00333512 0)
(1.43011 -0.00332073 0)
(1.43075 -0.00342323 0)
(1.43235 -0.00340336 0)
(1.43417 -0.0033571 0)
(1.43741 -0.00250823 0)
(1.43546 -0.00237046 0)
(1.44303 0.00840875 0)
(1.39022 -0.0167235 0)
(8.72021 0.959648 0)
(8.76468 1.01199 0)
(7.96849 0.679112 0)
(7.05455 0.394035 0)
(6.35292 0.202624 0)
(5.84582 0.103571 0)
(5.48306 0.0581396 0)
(5.22076 0.0376878 0)
(5.02398 0.028534 0)
(4.87051 0.0240406 0)
(4.74695 0.0213566 0)
(4.64493 0.0194282 0)
(4.55908 0.01786 0)
(4.48581 0.016485 0)
(4.42264 0.0152203 0)
(4.36776 0.0140224 0)
(4.31982 0.0128679 0)
(4.27782 0.0117425 0)
(4.24095 0.0106361 0)
(4.2086 0.00954053 0)
(4.18028 0.00844919 0)
(4.15559 0.00735667 0)
(4.13422 0.00625904 0)
(4.11589 0.00515685 0)
(4.1004 0.00405088 0)
(4.08754 0.00297025 0)
(4.07711 0.00188293 0)
(4.06898 0.000973251 0)
(4.0628 0.000199098 0)
(4.05843 0.000574017 0)
(4.05483 0.000914351 0)
(4.05361 0.00926945 0)
(4.05332 0.0142884 0)
(8.58611 0.583497 0)
(9.33126 0.762417 0)
(9.61426 0.660328 0)
(9.50391 0.526848 0)
(9.23716 0.397434 0)
(8.9239 0.299698 0)
(8.61701 0.230991 0)
(8.33969 0.181711 0)
(8.09618 0.145881 0)
(7.88425 0.119325 0)
(7.70019 0.099127 0)
(7.54015 0.0834243 0)
(7.40063 0.0710011 0)
(7.27862 0.0610278 0)
(7.17156 0.0529035 0)
(7.07734 0.046179 0)
(6.99418 0.0405171 0)
(6.92063 0.0356644 0)
(6.85544 0.0314285 0)
(6.79761 0.0276619 0)
(6.74629 0.0242502 0)
(6.70078 0.0211041 0)
(6.6605 0.0181538 0)
(6.62496 0.0153471 0)
(6.59375 0.0126466 0)
(6.56653 0.0100425 0)
(6.54298 0.00757704 0)
(6.52287 0.00533055 0)
(6.50587 0.00340847 0)
(6.49192 0.00242059 0)
(6.48052 0.00233929 0)
(6.4727 0.00677761 0)
(6.46921 0.0111813 0)
(8.44092 0.379714 0)
(8.94586 0.58412 0)
(9.35828 0.554769 0)
(9.58596 0.487443 0)
(9.69999 0.40772 0)
(9.73578 0.338813 0)
(9.71985 0.286574 0)
(9.67448 0.246669 0)
(9.61253 0.215457 0)
(9.54127 0.190349 0)
(9.46542 0.169493 0)
(9.38807 0.151757 0)
(9.31125 0.136419 0)
(9.23648 0.122982 0)
(9.1647 0.111112 0)
(9.09647 0.100558 0)
(9.03211 0.0911126 0)
(8.97175 0.0825982 0)
(8.91542 0.0748629 0)
(8.86309 0.0677757 0)
(8.81466 0.0612233 0)
(8.77003 0.0551085 0)
(8.72905 0.0493488 0)
(8.6916 0.0438769 0)
(8.65756 0.0386418 0)
(8.62679 0.0336212 0)
(8.59918 0.0288165 0)
(8.57466 0.0242994 0)
(8.55316 0.0201642 0)
(8.53484 0.0168537 0)
(8.51984 0.0144547 0)
(8.50949 0.0148079 0)
(8.50595 0.0163812 0)
(8.40214 0.280084 0)
(8.71893 0.480755 0)
(8.99876 0.462092 0)
(9.17419 0.404759 0)
(9.29868 0.342956 0)
(9.39214 0.290792 0)
(9.46129 0.25209 0)
(9.51426 0.222849 0)
(9.55586 0.199751 0)
(9.5884 0.180894 0)
(9.61362 0.16501 0)
(9.63286 0.151304 0)
(9.64721 0.139284 0)
(9.65728 0.128602 0)
(9.66376 0.118993 0)
(9.66729 0.110251 0)
(9.66845 0.102218 0)
(9.66774 0.0947617 0)
(9.66557 0.0877763 0)
(9.66233 0.0811706 0)
(9.6583 0.0748667 0)
(9.65377 0.0687976 0)
(9.64896 0.0629056 0)
(9.64407 0.0571435 0)
(9.63928 0.0514754 0)
(9.63476 0.0458845 0)
(9.63066 0.0403756 0)
(9.6272 0.0349972 0)
(9.62458 0.0298112 0)
(9.6233 0.0250326 0)
(9.62382 0.0206565 0)
(9.62778 0.017282 0)
(9.63655 0.0132396 0)
(8.37747 0.202195 0)
(8.60133 0.383635 0)
(8.81573 0.390817 0)
(8.94668 0.356592 0)
(9.03247 0.312436 0)
(9.09519 0.269173 0)
(9.14208 0.233585 0)
(9.18043 0.205348 0)
(9.21444 0.18267 0)
(9.24554 0.164211 0)
(9.2743 0.148874 0)
(9.30109 0.135828 0)
(9.32611 0.124529 0)
(9.34962 0.11461 0)
(9.37174 0.105771 0)
(9.39256 0.0977827 0)
(9.41214 0.0904715 0)
(9.43056 0.0837005 0)
(9.44789 0.0773581 0)
(9.4642 0.0713507 0)
(9.47956 0.0655983 0)
(9.49405 0.0600319 0)
(9.50774 0.0545914 0)
(9.52069 0.0492258 0)
(9.53299 0.0438932 0)
(9.54473 0.0385643 0)
(9.55601 0.0332194 0)
(9.567 0.0278594 0)
(9.57791 0.0224674 0)
(9.58919 0.0170747 0)
(9.60126 0.011474 0)
(9.61546 0.00558551 0)
(9.63216 -0.00217505 0)
(8.36128 0.148822 0)
(8.5227 0.311427 0)
(8.6974 0.337153 0)
(8.81212 0.317762 0)
(8.88669 0.284731 0)
(8.93973 0.248788 0)
(8.97744 0.217425 0)
(9.006 0.191844 0)
(9.02983 0.170883 0)
(9.05087 0.153497 0)
(9.07007 0.138845 0)
(9.08802 0.126262 0)
(9.10507 0.115277 0)
(9.12138 0.105554 0)
(9.13707 0.0968432 0)
(9.15223 0.0889562 0)
(9.1669 0.0817391 0)
(9.18112 0.0750641 0)
(9.1949 0.0688226 0)
(9.20825 0.0629215 0)
(9.22121 0.0572799 0)
(9.23377 0.0518265 0)
(9.24595 0.0464986 0)
(9.25779 0.0412403 0)
(9.26929 0.0360014 0)
(9.28052 0.0307372 0)
(9.29153 0.025402 0)
(9.30244 0.0199499 0)
(9.31342 0.014294 0)
(9.32477 0.00832904 0)
(9.33681 0.00170523 0)
(9.35031 -0.00598118 0)
(9.3655 -0.0161657 0)
(8.35116 0.111382 0)
(8.46738 0.251601 0)
(8.60812 0.286544 0)
(8.7098 0.278492 0)
(8.77958 0.256344 0)
(8.83117 0.229132 0)
(8.86893 0.203291 0)
(8.89738 0.180928 0)
(8.9205 0.161777 0)
(8.94029 0.145361 0)
(8.95781 0.131226 0)
(8.97377 0.118928 0)
(8.98861 0.108108 0)
(9.00259 0.0984926 0)
(9.01589 0.0898648 0)
(9.02862 0.082044 0)
(9.04088 0.0748795 0)
(9.05272 0.0682455 0)
(9.0642 0.0620358 0)
(9.07534 0.0561589 0)
(9.08618 0.0505348 0)
(9.09674 0.0450924 0)
(9.10705 0.0397671 0)
(9.11713 0.0344989 0)
(9.12702 0.0292296 0)
(9.13676 0.0239007 0)
(9.14642 0.0184441 0)
(9.15608 0.0127765 0)
(9.16588 0.00676237 0)
(9.17603 0.000209764 0)
(9.18671 -0.00727459 0)
(9.19827 -0.0162355 0)
(9.21062 -0.0277771 0)
(8.34486 0.0846999 0)
(8.42936 0.203697 0)
(8.54211 0.243719 0)
(8.63079 0.244555 0)
(8.69472 0.230577 0)
(8.74374 0.209815 0)
(8.7811 0.188122 0)
(8.81002 0.168341 0)
(8.83376 0.150906 0)
(8.85415 0.13567 0)
(8.87216 0.122375 0)
(8.88848 0.1107 0)
(8.90355 0.100354 0)
(8.91764 0.0911 0)
(8.93096 0.0827466 0)
(8.94363 0.0751334 0)
(8.95576 0.0681269 0)
(8.96741 0.0616146 0)
(8.97865 0.0554993 0)
(8.98951 0.0496956 0)
(9.00004 0.0441272 0)
(9.01026 0.0387246 0)
(9.0202 0.0334227 0)
(9.0299 0.0281588 0)
(9.03937 0.022869 0)
(9.04866 0.0174846 0)
(9.05783 0.0119224 0)
(9.06693 0.00607574 0)
(9.07606 -0.000214709 0)
(9.08529 -0.00717313 0)
(9.09472 -0.0151733 0)
(9.10436 -0.0247321 0)
(9.11401 -0.0366073 0)
(8.34093 0.0654479 0)
(8.40305 0.165344 0)
(8.4932 0.206585 0)
(8.56982 0.213281 0)
(8.62786 0.205317 0)
(8.6739 0.19001 0)
(8.71026 0.17242 0)
(8.73911 0.155479 0)
(8.76304 0.139993 0)
(8.78367 0.12607 0)
(8.80193 0.113646 0)
(8.81845 0.102559 0)
(8.83368 0.0926168 0)
(8.84791 0.0836476 0)
(8.86134 0.0755016 0)
(8.87409 0.0680462 0)
(8.88627 0.0611648 0)
(8.89795 0.0547545 0)
(8.90919 0.0487242 0)
(8.92003 0.0429921 0)
(8.93051 0.0374841 0)
(8.94065 0.0321314 0)
(8.95047 0.0268688 0)
(8.96002 0.0216315 0)
(8.9693 0.0163523 0)
(8.97836 0.0109563 0)
(8.98721 0.00535305 0)
(8.99589 -0.000572726 0)
(9.00444 -0.00698142 0)
(9.01286 -0.0140897 0)
(9.02112 -0.0222148 0)
(9.02909 -0.0317814 0)
(9.03647 -0.0432667 0)
(8.33845 0.0512844 0)
(8.3847 0.134509 0)
(8.45683 0.174574 0)
(8.5227 0.185216 0)
(8.57513 0.181924 0)
(8.61807 0.171103 0)
(8.65306 0.157012 0)
(8.68152 0.142501 0)
(8.70542 0.128686 0)
(8.72617 0.115921 0)
(8.7446 0.104313 0)
(8.7613 0.0938189 0)
(8.77669 0.0843253 0)
(8.79106 0.0757056 0)
(8.80458 0.067838 0)
(8.8174 0.0606084 0)
(8.82962 0.0539127 0)
(8.84131 0.0476575 0)
(8.85254 0.0417586 0)
(8.86334 0.0361393 0)
(8.87375 0.0307294 0)
(8.88379 0.0254626 0)
(8.8935 0.020275 0)
(8.90289 0.0151025 0)
(8.91197 0.00987746 0)
(8.92077 0.00452445 0)
(8.92929 -0.00104627 0)
(8.93753 -0.00694592 0)
(8.9455 -0.0133197 0)
(8.95313 -0.0203543 0)
(8.96032 -0.0282929 0)
(8.96686 -0.0374416 0)
(8.97242 -0.0480566 0)
(8.33687 0.0406551 0)
(8.37179 0.109657 0)
(8.42965 0.147051 0)
(8.48603 0.159939 0)
(8.53313 0.159929 0)
(8.57293 0.152541 0)
(8.60638 0.141386 0)
(8.63427 0.129101 0)
(8.65805 0.116942 0)
(8.67889 0.105402 0)
(8.69749 0.0946941 0)
(8.71438 0.0848639 0)
(8.72994 0.0758659 0)
(8.74446 0.0676212 0)
(8.7581 0.0600424 0)
(8.77102 0.0530403 0)
(8.78331 0.0465285 0)
(8.79505 0.0404264 0)
(8.80629 0.0346585 0)
(8.81707 0.0291547 0)
(8.82744 0.023849 0)
(8.83741 0.0186786 0)
(8.84701 0.0135821 0)
(8.85626 0.00849776 0)
(8.86515 0.0033605 0)
(8.8737 -0.00190123 0)
(8.8819 -0.00736994 0)
(8.88973 -0.0131438 0)
(8.89715 -0.0193425 0)
(8.90407 -0.0261102 0)
(8.91035 -0.0336132 0)
(8.91573 -0.0420441 0)
(8.91995 -0.0515014 0)
(8.33583 0.0325097 0)
(8.3626 0.0894984 0)
(8.40922 0.123366 0)
(8.45737 0.13721 0)
(8.49953 0.139452 0)
(8.53627 0.134717 0)
(8.56803 0.126021 0)
(8.59517 0.115698 0)
(8.61869 0.105028 0)
(8.6395 0.094604 0)
(8.6582 0.084725 0)
(8.67525 0.0755166 0)
(8.69099 0.0669954 0)
(8.70568 0.0591257 0)
(8.71948 0.0518496 0)
(8.73252 0.0450984 0)
(8.74492 0.0388001 0)
(8.75673 0.0328838 0)
(8.76801 0.0272813 0)
(8.77881 0.0219281 0)
(8.78917 0.0167626 0)
(8.79909 0.0117259 0)
(8.80861 0.00676036 0)
(8.81773 0.00180833 0)
(8.82646 -0.00319 0)
(8.83478 -0.00829853 0)
(8.84269 -0.013588 0)
(8.85014 -0.0191379 0)
(8.85708 -0.025038 0)
(8.8634 -0.0313868 0)
(8.86895 -0.0382817 0)
(8.87349 -0.0458198 0)
(8.87679 -0.053993 0)
(8.33513 0.026135 0)
(8.35598 0.0730168 0)
(8.39379 0.102967 0)
(8.43491 0.116795 0)
(8.47253 0.120415 0)
(8.50633 0.117592 0)
(8.53633 0.110833 0)
(8.56258 0.102156 0)
(8.58572 0.0928058 0)
(8.60642 0.0834244 0)
(8.62518 0.0743617 0)
(8.64236 0.0657934 0)
(8.65826 0.0577801 0)
(8.67311 0.0503194 0)
(8.68706 0.043378 0)
(8.70024 0.036906 0)
(8.71275 0.0308456 0)
(8.72464 0.025137 0)
(8.73598 0.0197204 0)
(8.74681 0.0145381 0)
(8.75716 0.00953417 0)
(8.76705 0.00465489 0)
(8.7765 -0.000152217 0)
(8.78551 -0.00493905 0)
(8.79408 -0.00975793 0)
(8.80221 -0.0146628 0)
(8.80986 -0.0197098 0)
(8.817 -0.0249579 0)
(8.82354 -0.0304664 0)
(8.8294 -0.0362916 0)
(8.83442 -0.0424744 0)
(8.8384 -0.0490388 0)
(8.84116 -0.055911 0)
(8.33465 0.0210427 0)
(8.35115 0.0594101 0)
(8.38207 0.08534 0)
(8.41724 0.0984385 0)
(8.45079 0.102737 0)
(8.48182 0.101221 0)
(8.51006 0.0959536 0)
(8.53534 0.0886481 0)
(8.558 0.0804518 0)
(8.57852 0.0720138 0)
(8.59726 0.0637091 0)
(8.61452 0.055747 0)
(8.63055 0.0482227 0)
(8.64555 0.0411629 0)
(8.65964 0.0345567 0)
(8.67296 0.0283713 0)
(8.68558 0.0225621 0)
(8.69756 0.0170789 0)
(8.70897 0.0118695 0)
(8.71984 0.00688244 0)
(8.7302 0.0020672 0)
(8.74006 -0.00262481 0)
(8.74946 -0.00724042 0)
(8.75838 -0.0118249 0)
(8.76683 -0.0164223 0)
(8.77479 -0.0210755 0)
(8.78224 -0.0258259 0)
(8.78912 -0.0307117 0)
(8.79537 -0.035765 0)
(8.8009 -0.0410071 0)
(8.80559 -0.0464359 0)
(8.80926 -0.0520248 0)
(8.8118 -0.0576648 0)
(8.33432 0.0168936 0)
(8.34758 0.0480499 0)
(8.37312 0.0700344 0)
(8.40333 0.0819027 0)
(8.43326 0.0863209 0)
(8.46173 0.0855947 0)
(8.48826 0.0814039 0)
(8.51253 0.0751779 0)
(8.53465 0.0679442 0)
(8.55491 0.0603301 0)
(8.57358 0.0527171 0)
(8.59089 0.0453318 0)
(8.60703 0.0382915 0)
(8.62215 0.0316431 0)
(8.63638 0.0253917 0)
(8.64983 0.0195177 0)
(8.66256 0.013987 0)
(8.67464 0.0087579 0)
(8.68612 0.00378526 0)
(8.69703 -0.000976488 0)
(8.7074 -0.00557207 0)
(8.71726 -0.0100444 0)
(8.72661 -0.0144343 0)
(8.73546 -0.0187798 0)
(8.74381 -0.0231162 0)
(8.75164 -0.0274754 0)
(8.75893 -0.0318842 0)
(8.76563 -0.0363629 0)
(8.77168 -0.0409209 0)
(8.77702 -0.0455525 0)
(8.78154 -0.0502265 0)
(8.78512 -0.0548847 0)
(8.78769 -0.0594045 0)
(8.33407 0.0134479 0)
(8.34492 0.0384447 0)
(8.36625 0.0566533 0)
(8.39235 0.0669514 0)
(8.41912 0.0710478 0)
(8.44528 0.0706826 0)
(8.4702 0.0672056 0)
(8.49346 0.0617948 0)
(8.51499 0.0553456 0)
(8.53496 0.0484406 0)
(8.55353 0.0414491 0)
(8.57084 0.0346007 0)
(8.58706 0.0280237 0)
(8.60229 0.0217782 0)
(8.61665 0.0158814 0)
(8.63022 0.0103245 0)
(8.64306 0.0050819 0)
(8.65524 0.000119472 0)
(8.66679 -0.00460149 0)
(8.67775 -0.00912092 0)
(8.68815 -0.0134782 0)
(8.698 -0.0177108 0)
(8.70733 -0.0218535 0)
(8.71614 -0.0259376 0)
(8.72441 -0.02999 0)
(8.73216 -0.0340324 0)
(8.73934 -0.0380793 0)
(8.74593 -0.0421362 0)
(8.75188 -0.0461955 0)
(8.75714 -0.050233 0)
(8.76164 -0.0541997 0)
(8.7653 -0.0580212 0)
(8.76808 -0.0615758 0)
(8.33389 0.0105327 0)
(8.34292 0.0302098 0)
(8.36096 0.0448524 0)
(8.3837 0.0533604 0)
(8.40775 0.056792 0)
(8.43185 0.0564326 0)
(8.45528 0.0533518 0)
(8.47756 0.0485079 0)
(8.49852 0.0426639 0)
(8.51817 0.036344 0)
(8.5366 0.0298936 0)
(8.55391 0.0235347 0)
(8.57018 0.0173982 0)
(8.58551 0.0115507 0)
(8.59999 0.00601687 0)
(8.61367 0.000794358 0)
(8.62663 -0.00413591 0)
(8.63889 -0.00880279 0)
(8.65052 -0.01324 0)
(8.66153 -0.0174829 0)
(8.67196 -0.0215662 0)
(8.68183 -0.0255225 0)
(8.69114 -0.0293813 0)
(8.69992 -0.0331674 0)
(8.70815 -0.0369007 0)
(8.71584 -0.0405941 0)
(8.72297 -0.0442525 0)
(8.72951 -0.0478703 0)
(8.73544 -0.0514285 0)
(8.74071 -0.0548916 0)
(8.7453 -0.0582026 0)
(8.74916 -0.0612823 0)
(8.75228 -0.0640191 0)
(8.33375 0.00802023 0)
(8.3414 0.0230417 0)
(8.35689 0.0343343 0)
(8.37689 0.0409165 0)
(8.39864 0.0434187 0)
(8.42094 0.0427726 0)
(8.44305 0.0398137 0)
(8.46443 0.0353125 0)
(8.48482 0.0299057 0)
(8.50416 0.0240516 0)
(8.52245 0.0180614 0)
(8.53974 0.0121413 0)
(8.55606 0.00641568 0)
(8.57149 0.000951074 0)
(8.58607 -0.00422543 0)
(8.59987 -0.00911268 0)
(8.61293 -0.013726 0)
(8.6253 -0.0180903 0)
(8.637 -0.0222357 0)
(8.64808 -0.0261935 0)
(8.65855 -0.0299946 0)
(8.66844 -0.0336672 0)
(8.67776 -0.0372359 0)
(8.68653 -0.0407205 0)
(8.69475 -0.0441345 0)
(8.70242 -0.0474845 0)
(8.70954 -0.050768 0)
(8.71609 -0.0539723 0)
(8.72206 -0.0570716 0)
(8.72744 -0.0600257 0)
(8.73221 -0.0627763 0)
(8.73634 -0.0652472 0)
(8.73987 -0.0673414 0)
(8.33365 0.00581391 0)
(8.34025 0.0166989 0)
(8.35376 0.0248419 0)
(8.37157 0.0294185 0)
(8.3914 0.0307884 0)
(8.41217 0.0296159 0)
(8.43312 0.026545 0)
(8.4537 0.0221868 0)
(8.47358 0.0170626 0)
(8.49263 0.0115617 0)
(8.5108 0.00595629 0)
(8.52806 0.000427518 0)
(8.54443 -0.00491079 0)
(8.55995 -0.00999724 0)
(8.57464 -0.0148067 0)
(8.58855 -0.0193381 0)
(8.60172 -0.0236055 0)
(8.61418 -0.0276325 0)
(8.62597 -0.0314468 0)
(8.6371 -0.0350777 0)
(8.64762 -0.0385534 0)
(8.65754 -0.041899 0)
(8.66689 -0.0451357 0)
(8.67567 -0.0482793 0)
(8.68389 -0.0513393 0)
(8.69158 -0.0543176 0)
(8.69872 -0.0572077 0)
(8.70532 -0.0599928 0)
(8.71138 -0.062645 0)
(8.7169 -0.0651239 0)
(8.72188 -0.067375 0)
(8.72634 -0.0693303 0)
(8.73032 -0.0709095 0)
(8.33357 0.00383844 0)
(8.33938 0.0109858 0)
(8.35137 0.0161516 0)
(8.36745 0.0186762 0)
(8.38574 0.0187562 0)
(8.40523 0.0168597 0)
(8.42521 0.0134759 0)
(8.44511 0.00908194 0)
(8.46456 0.00409507 0)
(8.48338 -0.00116455 0)
(8.50144 -0.0064685 0)
(8.51871 -0.0116641 0)
(8.53514 -0.0166552 0)
(8.55076 -0.0213905 0)
(8.56558 -0.0258509 0)
(8.57962 -0.0300383 0)
(8.5929 -0.0339684 0)
(8.60547 -0.0376647 0)
(8.61735 -0.0411545 0)
(8.62856 -0.0444657 0)
(8.63914 -0.0476246 0)
(8.64911 -0.0506543 0)
(8.65849 -0.0535735 0)
(8.6673 -0.0563952 0)
(8.67555 -0.0591262 0)
(8.68327 -0.0617659 0)
(8.69047 -0.0643054 0)
(8.69715 -0.0667272 0)
(8.70333 -0.069004 0)
(8.70903 -0.0710986 0)
(8.71427 -0.0729631 0)
(8.71907 -0.0745404 0)
(8.72348 -0.0757661 0)
(8.33351 0.00203328 0)
(8.33873 0.00574056 0)
(8.34958 0.00806602 0)
(8.36433 0.00850896 0)
(8.3814 0.00717481 0)
(8.39988 0.00439223 0)
(8.41909 0.00052814 0)
(8.43845 -0.0040512 0)
(8.45757 -0.00902049 0)
(8.47621 -0.0141255 0)
(8.49423 -0.0191844 0)
(8.51152 -0.0240742 0)
(8.52804 -0.0287218 0)
(8.54377 -0.0330911 0)
(8.55872 -0.0371723 0)
(8.57288 -0.0409741 0)
(8.58629 -0.0445165 0)
(8.59896 -0.0478256 0)
(8.61093 -0.0509305 0)
(8.62222 -0.0538596 0)
(8.63286 -0.0566394 0)
(8.64288 -0.0592924 0)
(8.65229 -0.0618365 0)
(8.66114 -0.0642836 0)
(8.66943 -0.0666395 0)
(8.6772 -0.068903 0)
(8.68446 -0.0710655 0)
(8.69124 -0.0731107 0)
(8.69756 -0.0750142 0)
(8.70344 -0.0767444 0)
(8.70892 -0.0782617 0)
(8.71404 -0.0795213 0)
(8.71886 -0.0804736 0)
(8.33347 0.000347805 0)
(8.33827 0.000824777 0)
(8.34828 0.000406785 0)
(8.36206 -0.00125971 0)
(8.37822 -0.0041132 0)
(8.39596 -0.00792248 0)
(8.41461 -0.0124172 0)
(8.43359 -0.0173246 0)
(8.45251 -0.0224013 0)
(8.47107 -0.0274569 0)
(8.48911 -0.0323561 0)
(8.50649 -0.0370115 0)
(8.52315 -0.0413747 0)
(8.53904 -0.0454271 0)
(8.55414 -0.0491715 0)
(8.56846 -0.0526254 0)
(8.58202 -0.055815 0)
(8.59482 -0.0587705 0)
(8.6069 -0.0615236 0)
(8.61828 -0.0641046 0)
(8.629 -0.0665407 0)
(8.63907 -0.0688549 0)
(8.64855 -0.0710651 0)
(8.65744 -0.0731833 0)
(8.66579 -0.0752156 0)
(8.67362 -0.0771615 0)
(8.68095 -0.0790139 0)
(8.68783 -0.0807594 0)
(8.69428 -0.0823781 0)
(8.70035 -0.0838444 0)
(8.70606 -0.0851279 0)
(8.71147 -0.0861946 0)
(8.71663 -0.0870079 0)
(8.33344 -0.00126167 0)
(8.33795 -0.00388371 0)
(8.3474 -0.00699092 0)
(8.36052 -0.0108003 0)
(8.37608 -0.0152625 0)
(8.39333 -0.0202105 0)
(8.41163 -0.0254472 0)
(8.43041 -0.0307766 0)
(8.44925 -0.0360271 0)
(8.46784 -0.0410681 0)
(8.48597 -0.045812 0)
(8.50349 -0.050209 0)
(8.52032 -0.0542397 0)
(8.53639 -0.0579081 0)
(8.55167 -0.0612342 0)
(8.56616 -0.0642483 0)
(8.57986 -0.0669863 0)
(8.59279 -0.069486 0)
(8.60498 -0.0717841 0)
(8.61645 -0.0739149 0)
(8.62724 -0.0759083 0)
(8.63738 -0.0777893 0)
(8.6469 -0.0795774 0)
(8.65584 -0.081286 0)
(8.66423 -0.0829228 0)
(8.67211 -0.0844891 0)
(8.67951 -0.0859807 0)
(8.68648 -0.0873878 0)
(8.69304 -0.0886956 0)
(8.69926 -0.0898854 0)
(8.70516 -0.0909351 0)
(8.71081 -0.0918221 0)
(8.71626 -0.0925199 0)
(8.33343 -0.00283596 0)
(8.33777 -0.00849991 0)
(8.3469 -0.0142901 0)
(8.35965 -0.0202972 0)
(8.3749 -0.0264664 0)
(8.39194 -0.0326755 0)
(8.41014 -0.0387877 0)
(8.42893 -0.0446744 0)
(8.44787 -0.0502301 0)
(8.46664 -0.0553811 0)
(8.485 -0.0600867 0)
(8.50278 -0.0643347 0)
(8.51986 -0.0681352 0)
(8.53618 -0.0715153 0)
(8.5517 -0.0745127 0)
(8.56641 -0.0771715 0)
(8.5803 -0.0795381 0)
(8.59339 -0.0816581 0)
(8.60572 -0.0835746 0)
(8.6173 -0.0853266 0)
(8.62817 -0.0869477 0)
(8.63838 -0.088466 0)
(8.64795 -0.0899034 0)
(8.65694 -0.0912759 0)
(8.66537 -0.0925935 0)
(8.6733 -0.0938606 0)
(8.68076 -0.0950761 0)
(8.6878 -0.0962348 0)
(8.69445 -0.097327 0)
(8.70078 -0.0983404 0)
(8.70682 -0.0992604 0)
(8.71264 -0.100073 0)
(8.71828 -0.100759 0)
(8.33342 -0.00441482 0)
(8.33771 -0.0131354 0)
(8.34674 -0.0216477 0)
(8.35941 -0.0299182 0)
(8.37463 -0.0378696 0)
(8.39172 -0.0454041 0)
(8.41005 -0.0524296 0)
(8.42904 -0.0588753 0)
(8.44824 -0.0646973 0)
(8.4673 -0.0698806 0)
(8.48598 -0.0744363 0)
(8.50407 -0.0783963 0)
(8.52147 -0.0818077 0)
(8.53808 -0.0847272 0)
(8.55387 -0.0872164 0)
(8.56881 -0.0893379 0)
(8.5829 -0.0911525 0)
(8.59616 -0.0927169 0)
(8.60862 -0.0940827 0)
(8.62031 -0.095295 0)
(8.63126 -0.0963924 0)
(8.64153 -0.0974066 0)
(8.65115 -0.0983628 0)
(8.66017 -0.0992797 0)
(8.66863 -0.10017 0)
(8.67658 -0.101041 0)
(8.68407 -0.101896 0)
(8.69114 -0.102733 0)
(8.69785 -0.103547 0)
(8.70424 -0.104332 0)
(8.71037 -0.10508 0)
(8.71629 -0.105784 0)
(8.72207 -0.106431 0)
(8.33343 -0.00603949 0)
(8.33777 -0.0179119 0)
(8.34695 -0.0292545 0)
(8.35983 -0.0399165 0)
(8.37535 -0.0498007 0)
(8.39282 -0.058833 0)
(8.4116 -0.0669641 0)
(8.43109 -0.0741764 0)
(8.45082 -0.0804819 0)
(8.47041 -0.0859172 0)
(8.4896 -0.0905387 0)
(8.50818 -0.0944179 0)
(8.52603 -0.0976349 0)
(8.54304 -0.100275 0)
(8.55917 -0.102421 0)
(8.57441 -0.104157 0)
(8.58875 -0.105558 0)
(8.60221 -0.106693 0)
(8.61482 -0.107625 0)
(8.62663 -0.108406 0)
(8.63767 -0.109081 0)
(8.64799 -0.109689 0)
(8.65764 -0.110258 0)
(8.66668 -0.110811 0)
(8.67514 -0.111366 0)
(8.68309 -0.111933 0)
(8.69058 -0.112518 0)
(8.69765 -0.113124 0)
(8.70435 -0.113751 0)
(8.71075 -0.114396 0)
(8.71689 -0.115057 0)
(8.72283 -0.115732 0)
(8.7286 -0.11641 0)
(8.33344 -0.00775497 0)
(8.33796 -0.0229506 0)
(8.3475 -0.037264 0)
(8.36087 -0.0504069 0)
(8.37697 -0.0622442 0)
(8.39509 -0.0727127 0)
(8.41455 -0.0818038 0)
(8.43473 -0.0895621 0)
(8.45514 -0.0960712 0)
(8.47539 -0.101438 0)
(8.49521 -0.105781 0)
(8.51437 -0.109227 0)
(8.53273 -0.111901 0)
(8.55021 -0.113922 0)
(8.56675 -0.115405 0)
(8.58232 -0.116453 0)
(8.59694 -0.117159 0)
(8.61063 -0.117605 0)
(8.62342 -0.117861 0)
(8.63536 -0.11799 0)
(8.64648 -0.118041 0)
(8.65686 -0.118057 0)
(8.66654 -0.118069 0)
(8.67557 -0.118105 0)
(8.68402 -0.118184 0)
(8.69194 -0.118319 0)
(8.69939 -0.11852 0)
(8.70641 -0.118792 0)
(8.71308 -0.11914 0)
(8.71943 -0.119564 0)
(8.72553 -0.120065 0)
(8.73143 -0.120646 0)
(8.73718 -0.121298 0)
(8.33348 -0.00961843 0)
(8.33832 -0.0284373 0)
(8.34854 -0.0460204 0)
(8.36284 -0.0619621 0)
(8.38 -0.0761156 0)
(8.39926 -0.088438 0)
(8.41988 -0.0989501 0)
(8.4412 -0.107737 0)
(8.46269 -0.11493 0)
(8.48393 -0.120685 0)
(8.50463 -0.125169 0)
(8.52457 -0.128554 0)
(8.54361 -0.131008 0)
(8.56165 -0.132689 0)
(8.57866 -0.133743 0)
(8.59463 -0.134301 0)
(8.60955 -0.13448 0)
(8.62347 -0.13438 0)
(8.63643 -0.134087 0)
(8.64847 -0.133674 0)
(8.65966 -0.133201 0)
(8.67006 -0.132716 0)
(8.67972 -0.132258 0)
(8.68872 -0.131859 0)
(8.6971 -0.13154 0)
(8.70494 -0.13132 0)
(8.71229 -0.13121 0)
(8.71921 -0.131219 0)
(8.72575 -0.131352 0)
(8.73197 -0.131613 0)
(8.73793 -0.132004 0)
(8.74366 -0.132529 0)
(8.74922 -0.133179 0)
(8.33352 -0.0116902 0)
(8.33881 -0.0344873 0)
(8.34993 -0.0555242 0)
(8.36541 -0.0742104 0)
(8.38386 -0.0903771 0)
(8.40447 -0.104034 0)
(8.42646 -0.115292 0)
(8.44911 -0.124351 0)
(8.47186 -0.13145 0)
(8.49428 -0.136839 0)
(8.51606 -0.140761 0)
(8.53697 -0.143449 0)
(8.55685 -0.145118 0)
(8.57562 -0.14596 0)
(8.59324 -0.146148 0)
(8.60971 -0.145835 0)
(8.62503 -0.14515 0)
(8.63926 -0.144206 0)
(8.65244 -0.143099 0)
(8.66463 -0.141906 0)
(8.67591 -0.140694 0)
(8.68635 -0.139515 0)
(8.696 -0.138412 0)
(8.70495 -0.137418 0)
(8.71325 -0.136558 0)
(8.72098 -0.135852 0)
(8.7282 -0.135315 0)
(8.73498 -0.134955 0)
(8.74136 -0.134782 0)
(8.74742 -0.134799 0)
(8.75319 -0.13501 0)
(8.75875 -0.135423 0)
(8.76414 -0.136024 0)
(8.3336 -0.0140845 0)
(8.33968 -0.0415741 0)
(8.35238 -0.0668768 0)
(8.36991 -0.0892785 0)
(8.39058 -0.108599 0)
(8.41343 -0.124824 0)
(8.43754 -0.138048 0)
(8.46214 -0.148496 0)
(8.48661 -0.156466 0)
(8.51054 -0.16228 0)
(8.53361 -0.166261 0)
(8.5556 -0.168719 0)
(8.57639 -0.16994 0)
(8.5959 -0.170179 0)
(8.61412 -0.169661 0)
(8.63104 -0.168578 0)
(8.64672 -0.167095 0)
(8.66119 -0.165349 0)
(8.67453 -0.163454 0)
(8.68682 -0.161501 0)
(8.69812 -0.159566 0)
(8.70852 -0.157708 0)
(8.71809 -0.155974 0)
(8.72691 -0.1544 0)
(8.73506 -0.153013 0)
(8.7426 -0.151834 0)
(8.7496 -0.150877 0)
(8.75614 -0.150153 0)
(8.76226 -0.149669 0)
(8.76803 -0.14943 0)
(8.7735 -0.149437 0)
(8.77872 -0.149696 0)
(8.78372 -0.150191 0)
(8.33366 -0.0168633 0)
(8.34051 -0.0494691 0)
(8.35483 -0.0787342 0)
(8.37438 -0.103772 0)
(8.39729 -0.124616 0)
(8.4225 -0.141524 0)
(8.44904 -0.154836 0)
(8.47599 -0.16497 0)
(8.50268 -0.172363 0)
(8.52863 -0.177423 0)
(8.5535 -0.180532 0)
(8.57706 -0.182039 0)
(8.59917 -0.18226 0)
(8.61979 -0.18147 0)
(8.6389 -0.179912 0)
(8.65654 -0.177793 0)
(8.67275 -0.17529 0)
(8.68763 -0.172552 0)
(8.70124 -0.169701 0)
(8.7137 -0.166838 0)
(8.72508 -0.164045 0)
(8.73548 -0.161384 0)
(8.745 -0.158908 0)
(8.75371 -0.156656 0)
(8.7617 -0.154656 0)
(8.76905 -0.152931 0)
(8.77584 -0.151498 0)
(8.78212 -0.150367 0)
(8.78797 -0.149545 0)
(8.79346 -0.149038 0)
(8.79863 -0.148846 0)
(8.80354 -0.148974 0)
(8.80826 -0.149401 0)
(8.33391 -0.0204112 0)
(8.3428 -0.0602583 0)
(8.36074 -0.0963388 0)
(8.38448 -0.127437 0)
(8.41142 -0.153342 0)
(8.44029 -0.174092 0)
(8.47005 -0.19 0)
(8.49975 -0.201632 0)
(8.52878 -0.20962 0)
(8.55671 -0.214577 0)
(8.58324 -0.217072 0)
(8.60818 -0.217617 0)
(8.63144 -0.216653 0)
(8.65299 -0.214557 0)
(8.67284 -0.211641 0)
(8.69104 -0.208164 0)
(8.70768 -0.204337 0)
(8.72283 -0.200329 0)
(8.73661 -0.196276 0)
(8.74912 -0.192285 0)
(8.76047 -0.18844 0)
(8.77075 -0.184806 0)
(8.78008 -0.181431 0)
(8.78854 -0.178352 0)
(8.79623 -0.175596 0)
(8.80323 -0.173182 0)
(8.80962 -0.171125 0)
(8.81548 -0.169433 0)
(8.82086 -0.168112 0)
(8.82585 -0.167164 0)
(8.83048 -0.166588 0)
(8.83482 -0.166384 0)
(8.83891 -0.166527 0)
(8.33387 -0.0244628 0)
(8.3436 -0.0704686 0)
(8.36396 -0.109524 0)
(8.39111 -0.14137 0)
(8.42216 -0.167074 0)
(8.45562 -0.187297 0)
(8.49001 -0.202595 0)
(8.52408 -0.213614 0)
(8.55702 -0.220975 0)
(8.58834 -0.225246 0)
(8.61772 -0.226965 0)
(8.64498 -0.226629 0)
(8.67007 -0.224682 0)
(8.69301 -0.221515 0)
(8.71387 -0.217467 0)
(8.73277 -0.212822 0)
(8.74982 -0.207819 0)
(8.76518 -0.202653 0)
(8.77897 -0.19748 0)
(8.79134 -0.192424 0)
(8.80243 -0.187581 0)
(8.81236 -0.183024 0)
(8.82125 -0.178807 0)
(8.82921 -0.174969 0)
(8.83635 -0.17154 0)
(8.84276 -0.168537 0)
(8.84851 -0.165973 0)
(8.85371 -0.163857 0)
(8.85841 -0.162193 0)
(8.86268 -0.160982 0)
(8.86661 -0.16022 0)
(8.87023 -0.159909 0)
(8.87365 -0.160011 0)
(8.33498 -0.0313491 0)
(8.35134 -0.0927286 0)
(8.38042 -0.146095 0)
(8.4151 -0.189328 0)
(8.45191 -0.222783 0)
(8.48992 -0.247269 0)
(8.52796 -0.264098 0)
(8.56495 -0.274746 0)
(8.60024 -0.280491 0)
(8.63344 -0.282407 0)
(8.66428 -0.2814 0)
(8.69262 -0.278212 0)
(8.71847 -0.273439 0)
(8.74189 -0.267562 0)
(8.763 -0.260962 0)
(8.78195 -0.253942 0)
(8.7989 -0.246743 0)
(8.81403 -0.23955 0)
(8.82752 -0.23251 0)
(8.83952 -0.225733 0)
(8.85021 -0.219301 0)
(8.85971 -0.213276 0)
(8.86817 -0.2077 0)
(8.87571 -0.202603 0)
(8.88243 -0.198005 0)
(8.88843 -0.193918 0)
(8.8938 -0.19035 0)
(8.89863 -0.187305 0)
(8.90297 -0.184787 0)
(8.9069 -0.182798 0)
(8.91049 -0.181336 0)
(8.9138 -0.180402 0)
(8.91688 -0.179954 0)
(8.33403 -0.0363377 0)
(8.34989 -0.098909 0)
(8.38385 -0.147619 0)
(8.42665 -0.187181 0)
(8.47281 -0.219569 0)
(8.51988 -0.244522 0)
(8.56573 -0.262493 0)
(8.60918 -0.274381 0)
(8.64986 -0.281042 0)
(8.6877 -0.28335 0)
(8.72271 -0.282194 0)
(8.75504 -0.278389 0)
(8.78485 -0.272644 0)
(8.81232 -0.26556 0)
(8.83761 -0.25763 0)
(8.86088 -0.249247 0)
(8.88228 -0.240717 0)
(8.90195 -0.232276 0)
(8.92002 -0.224098 0)
(8.93663 -0.216309 0)
(8.9519 -0.209 0)
(8.96594 -0.202229 0)
(8.97887 -0.196035 0)
(8.99079 -0.190438 0)
(9.0018 -0.185448 0)
(9.01198 -0.181068 0)
(9.02142 -0.177295 0)
(9.03019 -0.174129 0)
(9.03837 -0.171569 0)
(9.04602 -0.169619 0)
(9.05323 -0.168291 0)
(9.06009 -0.167596 0)
(9.0667 -0.167507 0)
(8.33959 -0.0604695 0)
(8.37707 -0.169671 0)
(8.42634 -0.247969 0)
(8.4762 -0.300966 0)
(8.52867 -0.335759 0)
(8.58523 -0.35672 0)
(8.64427 -0.367934 0)
(8.70447 -0.372488 0)
(8.76487 -0.372333 0)
(8.82437 -0.368798 0)
(8.88197 -0.362827 0)
(8.93693 -0.355099 0)
(8.98872 -0.34612 0)
(9.03702 -0.336291 0)
(9.08167 -0.325933 0)
(9.12263 -0.315318 0)
(9.15999 -0.304668 0)
(9.1939 -0.294171 0)
(9.22458 -0.283979 0)
(9.25224 -0.274209 0)
(9.27715 -0.264955 0)
(9.29955 -0.256282 0)
(9.31967 -0.248237 0)
(9.33774 -0.240849 0)
(9.35397 -0.234134 0)
(9.36854 -0.228101 0)
(9.38161 -0.222752 0)
(9.39335 -0.21809 0)
(9.40386 -0.21413 0)
(9.41325 -0.210885 0)
(9.42166 -0.208423 0)
(9.42917 -0.206756 0)
(9.43598 -0.206073 0)
(8.3376 -0.0465003 0)
(8.39351 -0.120835 0)
(8.49376 -0.184687 0)
(8.60852 -0.246267 0)
(8.73028 -0.299073 0)
(8.85356 -0.339942 0)
(8.97144 -0.369599 0)
(9.07982 -0.388942 0)
(9.17651 -0.399134 0)
(9.26034 -0.401773 0)
(9.33107 -0.398491 0)
(9.38918 -0.390761 0)
(9.43556 -0.379858 0)
(9.47135 -0.366838 0)
(9.49778 -0.35255 0)
(9.51609 -0.337658 0)
(9.52747 -0.32267 0)
(9.53299 -0.307962 0)
(9.53363 -0.293805 0)
(9.53022 -0.280384 0)
(9.5235 -0.26782 0)
(9.51407 -0.256181 0)
(9.50245 -0.2455 0)
(9.48907 -0.235777 0)
(9.47426 -0.226993 0)
(9.45831 -0.219115 0)
(9.44143 -0.212103 0)
(9.42376 -0.205913 0)
(9.40544 -0.200518 0)
(9.38646 -0.195899 0)
(9.36695 -0.192168 0)
(9.34659 -0.18929 0)
(9.32612 -0.188315 0)
(8.40922 -0.221235 0)
(8.63491 -0.428177 0)
(8.83309 -0.522368 0)
(8.97688 -0.582861 0)
(9.07067 -0.615468 0)
(9.11352 -0.625804 0)
(9.10976 -0.62146 0)
(9.06884 -0.606515 0)
(8.99965 -0.583814 0)
(8.90965 -0.555926 0)
(8.80531 -0.524916 0)
(8.69198 -0.492368 0)
(8.57384 -0.459509 0)
(8.45407 -0.427253 0)
(8.335 -0.396248 0)
(8.21832 -0.366927 0)
(8.10515 -0.339551 0)
(7.99623 -0.31425 0)
(7.89196 -0.291061 0)
(7.79254 -0.26995 0)
(7.69798 -0.25084 0)
(7.60818 -0.233622 0)
(7.52295 -0.218169 0)
(7.44207 -0.204343 0)
(7.36528 -0.192001 0)
(7.29229 -0.181 0)
(7.22282 -0.171187 0)
(7.15654 -0.162416 0)
(7.09315 -0.154514 0)
(7.03217 -0.147317 0)
(6.97322 -0.14073 0)
(6.9151 -0.13386 0)
(6.85832 -0.130426 0)
(8.1371 -0.207117 0)
(7.84783 -0.38793 0)
(7.38578 -0.439215 0)
(6.8607 -0.439769 0)
(6.3616 -0.408385 0)
(5.89137 -0.359353 0)
(5.45265 -0.304952 0)
(5.05279 -0.251575 0)
(4.69288 -0.202437 0)
(4.37091 -0.159152 0)
(4.08451 -0.122161 0)
(3.83082 -0.0912362 0)
(3.60664 -0.0658361 0)
(3.40881 -0.0452707 0)
(3.2343 -0.028816 0)
(3.08031 -0.0157881 0)
(2.94427 -0.00557666 0)
(2.82391 0.00234356 0)
(2.71716 0.00841391 0)
(2.62223 0.0129988 0)
(2.53754 0.016396 0)
(2.4617 0.0188471 0)
(2.39352 0.0205486 0)
(2.33195 0.0216608 0)
(2.2761 0.0223203 0)
(2.2252 0.0226456 0)
(2.1786 0.0227673 0)
(2.13582 0.0228174 0)
(2.0963 0.0230375 0)
(2.06019 0.0237633 0)
(2.02649 0.0253248 0)
(1.99739 0.0306382 0)
(1.97074 0.0249902 0)