/*--------------------------------*- C++ -*----------------------------------*\
| =========                 |                                                 |
| \\      /  F ield         | OpenFOAM: The Open Source CFD Toolbox           |
|  \\    /   O peration     | Version:  2.1.1                                 |
|   \\  /    A nd           | Web:      www.OpenFOAM.org                      |
|    \\/     M anipulation  |                                                 |
\*---------------------------------------------------------------------------*/
FoamFile
{
    version     2.0;
    format      ascii;
    class       volScalarField;
    location    "0.125";
    object      nuSgs;
}
// * * * * * * * * * * * * * * * * * * * * * * * * * * * * * * * * * * * * * //

dimensions      [0 2 -1 0 0 0 0];

internalField   nonuniform List<scalar> 
6820
(
0.000556014
0.000457405
0.000368125
0.000306095
0.000268888
0.00024326
0.000224401
0.00020998
0.000198337
0.000188562
0.000180141
0.000172739
0.000166134
0.000160169
0.000154729
0.000149727
0.000145096
0.000140784
0.000136746
0.000132947
0.000129358
0.000125951
0.000122704
0.000119594
0.0001166
0.000113702
0.000110877
0.000108103
0.00010535
0.000102601
9.98014e-05
9.67988e-05
9.35395e-05
0.000103498
0.000170664
0.000223652
0.000240022
0.00023527
0.000224916
0.000213233
0.000201967
0.000191757
0.00018262
0.000174437
0.000167073
0.000160405
0.000154328
0.000148758
0.000143625
0.000138872
0.000134451
0.000130321
0.000126448
0.000122805
0.000119368
0.000116115
0.00011303
0.000110098
0.000107306
0.000104647
0.000102106
9.96939e-05
9.73611e-05
9.52518e-05
9.29941e-05
9.20725e-05
3.67733e-05
2.84719e-05
4.56143e-05
8.22938e-05
0.00010793
0.000123521
0.000131947
0.000135801
0.000136909
0.000136344
0.000134746
0.000132512
0.000129891
0.000127047
0.000124086
0.000121079
0.000118072
0.000115097
0.000112175
0.000109319
0.000106537
0.000103834
0.000101214
9.86778e-05
9.62267e-05
9.38619e-05
9.15857e-05
8.93999e-05
8.73133e-05
8.5324e-05
8.34769e-05
8.17094e-05
8.03589e-05
2.07354e-05
2.86798e-05
2.65559e-05
1.50857e-05
3.63959e-06
1.38165e-05
2.56266e-05
3.54254e-05
4.33171e-05
4.95774e-05
5.44826e-05
5.82778e-05
6.11663e-05
6.33067e-05
6.48329e-05
6.58558e-05
6.64661e-05
6.67387e-05
6.6735e-05
6.65061e-05
6.60942e-05
6.55344e-05
6.48568e-05
6.40871e-05
6.32479e-05
6.23595e-05
6.14414e-05
6.05122e-05
5.95948e-05
5.87097e-05
5.78965e-05
5.71954e-05
5.67378e-05
1.44197e-05
1.758e-05
2.26008e-05
2.42977e-05
2.39752e-05
2.20066e-05
1.91335e-05
1.58963e-05
1.25288e-05
9.18124e-06
5.96103e-06
2.94762e-06
6.25176e-07
2.61126e-06
4.91947e-06
7.00883e-06
8.87046e-06
1.05136e-05
1.19522e-05
1.3202e-05
1.42794e-05
1.52011e-05
1.59835e-05
1.66431e-05
1.71963e-05
1.76597e-05
1.80508e-05
1.83881e-05
1.86933e-05
1.89904e-05
1.93083e-05
1.96903e-05
2.01674e-05
1.09202e-05
1.24922e-05
1.38167e-05
1.43263e-05
1.51092e-05
1.57438e-05
1.6115e-05
1.63167e-05
1.63539e-05
1.62325e-05
1.59775e-05
1.56128e-05
1.5163e-05
1.46435e-05
1.40729e-05
1.34685e-05
1.28452e-05
1.22153e-05
1.15883e-05
1.09717e-05
1.03706e-05
9.78851e-06
9.2271e-06
8.68657e-06
8.16574e-06
7.66204e-06
7.17141e-06
6.68841e-06
6.20574e-06
5.71545e-06
5.21044e-06
4.68839e-06
4.1748e-06
8.24572e-06
9.42262e-06
1.02407e-05
1.00399e-05
9.85141e-06
9.67274e-06
9.4863e-06
9.39416e-06
9.38521e-06
9.41538e-06
9.45784e-06
9.49505e-06
9.5154e-06
9.51688e-06
9.49751e-06
9.45643e-06
9.39394e-06
9.31108e-06
9.20925e-06
9.08996e-06
8.95464e-06
8.80459e-06
8.64086e-06
8.46418e-06
8.27497e-06
8.0734e-06
7.85924e-06
7.63231e-06
7.39236e-06
7.14156e-06
6.88384e-06
6.63881e-06
6.42648e-06
6.3634e-06
7.404e-06
8.20846e-06
8.07227e-06
7.76308e-06
7.42448e-06
7.04722e-06
6.72246e-06
6.46892e-06
6.26588e-06
6.10053e-06
5.96384e-06
5.8469e-06
5.74301e-06
5.64776e-06
5.55799e-06
5.47113e-06
5.3851e-06
5.29829e-06
5.20935e-06
5.11719e-06
5.02085e-06
4.91945e-06
4.8122e-06
4.69835e-06
4.57734e-06
4.44883e-06
4.31325e-06
4.17215e-06
4.03046e-06
3.89687e-06
3.79368e-06
3.74317e-06
5.00471e-06
5.85477e-06
6.53349e-06
6.52722e-06
6.36037e-06
6.15394e-06
5.87164e-06
5.58572e-06
5.33469e-06
5.11491e-06
4.92165e-06
4.75147e-06
4.59953e-06
4.46158e-06
4.33465e-06
4.21642e-06
4.10498e-06
3.99875e-06
3.89644e-06
3.7969e-06
3.69909e-06
3.60205e-06
3.5049e-06
3.40685e-06
3.30732e-06
3.20603e-06
3.10327e-06
3.00047e-06
2.90071e-06
2.81059e-06
2.74056e-06
2.70976e-06
2.73607e-06
4.00112e-06
4.7044e-06
5.30018e-06
5.37045e-06
5.26893e-06
5.12184e-06
4.90639e-06
4.67741e-06
4.47257e-06
4.29108e-06
4.12849e-06
3.98263e-06
3.85048e-06
3.72903e-06
3.61619e-06
3.51038e-06
3.41029e-06
3.31482e-06
3.223e-06
3.13398e-06
3.04701e-06
2.96141e-06
2.87664e-06
2.79235e-06
2.70846e-06
2.62538e-06
2.54425e-06
2.46748e-06
2.39917e-06
2.34626e-06
2.31828e-06
2.32881e-06
2.38889e-06
3.24378e-06
3.83311e-06
4.35731e-06
4.46794e-06
4.41422e-06
4.31566e-06
4.1562e-06
3.9725e-06
3.79919e-06
3.64067e-06
3.49563e-06
3.36407e-06
3.24464e-06
3.13524e-06
3.03415e-06
2.93999e-06
2.85153e-06
2.76772e-06
2.68764e-06
2.61057e-06
2.53589e-06
2.46313e-06
2.39204e-06
2.3226e-06
2.25518e-06
2.19072e-06
2.13094e-06
2.07873e-06
2.03836e-06
2.01594e-06
2.01882e-06
2.0553e-06
2.1311e-06
2.65952e-06
3.15911e-06
3.62989e-06
3.77446e-06
3.76551e-06
3.70478e-06
3.58442e-06
3.43247e-06
3.28186e-06
3.14099e-06
3.01042e-06
2.89093e-06
2.78201e-06
2.68217e-06
2.59006e-06
2.50456e-06
2.42465e-06
2.34946e-06
2.27828e-06
2.21052e-06
2.14577e-06
2.08376e-06
2.02445e-06
1.96813e-06
1.91548e-06
1.86772e-06
1.8268e-06
1.79554e-06
1.77769e-06
1.77784e-06
1.80083e-06
1.8508e-06
1.93005e-06
2.19871e-06
2.62994e-06
3.06121e-06
3.22964e-06
3.2551e-06
3.22393e-06
3.13643e-06
3.01461e-06
2.88717e-06
2.76402e-06
2.64713e-06
2.53819e-06
2.43773e-06
2.34517e-06
2.2597e-06
2.18057e-06
2.10705e-06
2.03847e-06
1.97427e-06
1.91402e-06
1.85742e-06
1.80438e-06
1.75505e-06
1.70989e-06
1.66973e-06
1.63585e-06
1.61008e-06
1.59481e-06
1.59287e-06
1.60726e-06
1.64067e-06
1.69457e-06
1.76945e-06
1.8277e-06
2.20796e-06
2.60995e-06
2.79708e-06
2.8523e-06
2.84732e-06
2.78742e-06
2.69064e-06
2.58215e-06
2.47323e-06
2.36747e-06
2.2674e-06
2.17432e-06
2.08825e-06
2.00877e-06
1.93539e-06
1.86759e-06
1.80485e-06
1.74677e-06
1.69305e-06
1.64356e-06
1.59833e-06
1.55762e-06
1.52197e-06
1.49221e-06
1.4695e-06
1.45534e-06
1.45151e-06
1.45984e-06
1.48199e-06
1.51916e-06
1.57126e-06
1.63789e-06
1.52299e-06
1.86679e-06
2.24799e-06
2.4505e-06
2.5306e-06
2.54744e-06
2.50999e-06
2.43438e-06
2.34288e-06
2.24722e-06
2.15203e-06
2.06036e-06
1.97404e-06
1.89362e-06
1.81911e-06
1.75034e-06
1.68702e-06
1.62885e-06
1.5756e-06
1.5271e-06
1.48332e-06
1.44436e-06
1.41054e-06
1.38234e-06
1.3605e-06
1.34592e-06
1.33967e-06
1.34288e-06
1.35656e-06
1.38142e-06
1.41767e-06
1.46447e-06
1.52108e-06
1.26791e-06
1.58759e-06
1.95488e-06
2.17054e-06
2.27194e-06
2.3081e-06
2.29017e-06
2.2331e-06
2.15661e-06
2.07248e-06
1.98622e-06
1.90148e-06
1.82061e-06
1.74469e-06
1.67414e-06
1.60903e-06
1.54933e-06
1.49489e-06
1.44557e-06
1.40133e-06
1.36217e-06
1.32822e-06
1.29978e-06
1.27722e-06
1.2611e-06
1.25201e-06
1.25062e-06
1.2575e-06
1.27305e-06
1.29734e-06
1.33004e-06
1.37002e-06
1.41642e-06
1.05037e-06
1.35679e-06
1.7161e-06
1.94352e-06
2.06341e-06
2.11664e-06
2.11551e-06
2.07433e-06
2.01092e-06
1.93696e-06
1.85866e-06
1.78012e-06
1.70412e-06
1.63212e-06
1.56486e-06
1.50269e-06
1.44575e-06
1.39405e-06
1.34759e-06
1.30636e-06
1.27042e-06
1.2399e-06
1.215e-06
1.196e-06
1.18322e-06
1.17699e-06
1.17761e-06
1.18526e-06
1.19991e-06
1.22127e-06
1.24875e-06
1.28114e-06
1.31762e-06
8.61573e-07
1.16481e-06
1.52131e-06
1.75952e-06
1.8956e-06
1.96409e-06
1.97782e-06
1.95065e-06
1.89892e-06
1.83406e-06
1.76275e-06
1.68951e-06
1.61745e-06
1.54845e-06
1.48355e-06
1.42336e-06
1.36821e-06
1.31824e-06
1.27354e-06
1.23417e-06
1.20018e-06
1.17166e-06
1.14873e-06
1.13151e-06
1.12015e-06
1.11474e-06
1.1153e-06
1.12173e-06
1.13377e-06
1.15092e-06
1.17249e-06
1.19738e-06
1.22481e-06
6.9522e-07
1.00521e-06
1.3633e-06
1.61156e-06
1.76191e-06
1.84408e-06
1.87098e-06
1.85611e-06
1.81466e-06
1.75776e-06
1.69247e-06
1.62366e-06
1.55478e-06
1.48801e-06
1.42469e-06
1.36564e-06
1.31133e-06
1.26205e-06
1.21795e-06
1.17913e-06
1.14564e-06
1.11752e-06
1.09481e-06
1.07753e-06
1.06567e-06
1.05914e-06
1.05779e-06
1.06137e-06
1.06947e-06
1.08152e-06
1.09685e-06
1.11446e-06
1.13364e-06
5.47321e-07
8.74284e-07
1.23735e-06
1.49486e-06
1.65772e-06
1.75213e-06
1.79077e-06
1.78677e-06
1.75442e-06
1.70458e-06
1.64453e-06
1.57945e-06
1.51306e-06
1.44782e-06
1.38532e-06
1.32657e-06
1.27222e-06
1.22265e-06
1.17808e-06
1.13864e-06
1.10438e-06
1.07531e-06
1.0514e-06
1.03257e-06
1.01871e-06
1.00963e-06
1.00508e-06
1.0047e-06
1.00806e-06
1.01458e-06
1.02366e-06
1.03444e-06
1.04633e-06
4.16944e-07
7.70944e-07
1.1407e-06
1.40637e-06
1.58005e-06
1.6853e-06
1.73433e-06
1.73986e-06
1.71543e-06
1.67162e-06
1.61584e-06
1.55354e-06
1.48867e-06
1.42394e-06
1.36119e-06
1.30162e-06
1.24601e-06
1.19485e-06
1.14844e-06
1.10693e-06
1.07038e-06
1.03878e-06
1.01207e-06
9.90129e-07
9.72776e-07
9.59779e-07
9.50841e-07
9.45596e-07
9.43609e-07
9.44363e-07
9.47308e-07
9.51726e-07
9.57089e-07
3.09419e-07
6.96665e-07
1.07226e-06
1.34448e-06
1.52724e-06
1.64195e-06
1.70014e-06
1.71407e-06
1.69662e-06
1.6581e-06
1.60604e-06
1.54604e-06
1.48227e-06
1.41767e-06
1.35423e-06
1.29333e-06
1.23586e-06
1.18241e-06
1.13333e-06
1.0888e-06
1.04891e-06
1.01364e-06
9.82924e-07
9.56625e-07
9.34559e-07
9.16489e-07
9.02132e-07
8.91151e-07
8.83168e-07
8.77748e-07
8.74447e-07
8.7271e-07
8.721e-07
2.44606e-07
6.54898e-07
1.03218e-06
1.30866e-06
1.49861e-06
1.62128e-06
1.68726e-06
1.70818e-06
1.69635e-06
1.66181e-06
1.61209e-06
1.553e-06
1.48889e-06
1.4229e-06
1.35723e-06
1.29341e-06
1.2325e-06
1.17516e-06
1.12181e-06
1.0727e-06
1.02792e-06
9.87492e-07
9.51351e-07
9.1938e-07
8.91415e-07
8.67256e-07
8.46664e-07
8.29368e-07
8.15066e-07
8.03411e-07
7.94055e-07
7.86519e-07
7.80468e-07
2.54837e-07
6.49569e-07
1.02147e-06
1.2994e-06
1.49467e-06
1.62404e-06
1.69689e-06
1.72417e-06
1.71765e-06
1.68706e-06
1.63992e-06
1.58208e-06
1.51803e-06
1.45102e-06
1.38341e-06
1.31684e-06
1.25245e-06
1.191e-06
1.13297e-06
1.07866e-06
1.0282e-06
9.81652e-07
9.38984e-07
9.00128e-07
8.64975e-07
8.33392e-07
8.05228e-07
7.80311e-07
7.58456e-07
7.39454e-07
7.23099e-07
7.09102e-07
6.97208e-07
3.37619e-07
6.82968e-07
1.04162e-06
1.31782e-06
1.51619e-06
1.65033e-06
1.72805e-06
1.75944e-06
1.75575e-06
1.72649e-06
1.6792e-06
1.61992e-06
1.55329e-06
1.48278e-06
1.41092e-06
1.33948e-06
1.26972e-06
1.20246e-06
1.13825e-06
1.0774e-06
1.02008e-06
9.66369e-07
9.16256e-07
8.69711e-07
8.26675e-07
7.87085e-07
7.50875e-07
7.17982e-07
6.88344e-07
6.61875e-07
6.38504e-07
6.18003e-07
6.00316e-07
4.63081e-07
7.54595e-07
1.09422e-06
1.36616e-06
1.56643e-06
1.70518e-06
1.78845e-06
1.82531e-06
1.82637e-06
1.80074e-06
1.75574e-06
1.69733e-06
1.63019e-06
1.55789e-06
1.48306e-06
1.40762e-06
1.33294e-06
1.25997e-06
1.18934e-06
1.12144e-06
1.05652e-06
9.94688e-07
9.36003e-07
8.80472e-07
8.28087e-07
7.78845e-07
7.32755e-07
6.89852e-07
6.50194e-07
6.13863e-07
5.80967e-07
5.51584e-07
5.25713e-07
6.16337e-07
8.63259e-07
1.18157e-06
1.44664e-06
1.64573e-06
1.78516e-06
1.86896e-06
1.90544e-06
1.905e-06
1.87679e-06
1.82832e-06
1.76571e-06
1.69384e-06
1.61637e-06
1.53602e-06
1.45476e-06
1.37396e-06
1.29458e-06
1.21724e-06
1.14233e-06
1.07007e-06
1.00058e-06
9.33905e-07
8.70049e-07
8.09019e-07
7.50826e-07
6.95511e-07
6.4315e-07
5.93866e-07
5.47806e-07
5.05197e-07
4.66144e-07
4.31062e-07
7.9467e-07
1.00735e-06
1.30555e-06
1.56454e-06
1.76535e-06
1.9109e-06
2.0026e-06
2.04696e-06
2.05328e-06
2.02999e-06
1.98422e-06
1.9221e-06
1.84865e-06
1.7678e-06
1.68258e-06
1.59525e-06
1.50745e-06
1.42037e-06
1.33478e-06
1.25121e-06
1.16998e-06
1.09127e-06
1.01514e-06
9.41637e-07
8.70752e-07
8.02485e-07
7.36849e-07
6.73885e-07
6.13668e-07
5.56334e-07
5.02047e-07
4.5113e-07
4.03489e-07
1.00292e-06
1.19239e-06
1.47343e-06
1.72218e-06
1.91494e-06
2.0525e-06
2.13556e-06
2.17118e-06
2.16945e-06
2.13917e-06
2.08752e-06
2.02041e-06
1.94262e-06
1.8578e-06
1.7687e-06
1.67741e-06
1.58543e-06
1.49387e-06
1.40348e-06
1.31477e-06
1.2281e-06
1.14366e-06
1.06156e-06
9.81868e-07
9.04605e-07
8.29781e-07
7.57406e-07
6.87497e-07
6.20082e-07
5.55187e-07
4.92865e-07
4.3308e-07
3.75872e-07
1.24526e-06
1.41499e-06
1.68479e-06
1.93633e-06
2.14332e-06
2.30105e-06
2.40394e-06
2.45525e-06
2.46363e-06
2.43779e-06
2.38553e-06
2.31382e-06
2.22849e-06
2.13416e-06
2.03438e-06
1.93178e-06
1.8283e-06
1.72531e-06
1.62373e-06
1.52418e-06
1.42705e-06
1.33258e-06
1.24089e-06
1.15204e-06
1.06606e-06
9.8295e-07
9.02734e-07
8.25436e-07
7.51089e-07
6.79771e-07
6.11488e-07
5.46548e-07
4.84026e-07
1.5424e-06
1.70928e-06
1.96738e-06
2.19349e-06
2.36712e-06
2.49195e-06
2.56789e-06
2.60091e-06
2.59972e-06
2.57113e-06
2.52052e-06
2.45272e-06
2.372e-06
2.28192e-06
2.18542e-06
2.0849e-06
1.98229e-06
1.87909e-06
1.77643e-06
1.67516e-06
1.57587e-06
1.47899e-06
1.38481e-06
1.29353e-06
1.20527e-06
1.12016e-06
1.03827e-06
9.59696e-07
8.84549e-07
8.12936e-07
7.44974e-07
6.80873e-07
6.20305e-07
1.88633e-06
2.03128e-06
2.30498e-06
2.58525e-06
2.82909e-06
3.01538e-06
3.1302e-06
3.17871e-06
3.17491e-06
3.13164e-06
3.05943e-06
2.96708e-06
2.86143e-06
2.74751e-06
2.62889e-06
2.50816e-06
2.38712e-06
2.26705e-06
2.14882e-06
2.03306e-06
1.92018e-06
1.81047e-06
1.70414e-06
1.60131e-06
1.5021e-06
1.40658e-06
1.31483e-06
1.22696e-06
1.14304e-06
1.06325e-06
9.87599e-07
9.16588e-07
8.48881e-07
2.37188e-06
2.54889e-06
2.76814e-06
2.92455e-06
3.04777e-06
3.15878e-06
3.24703e-06
3.30488e-06
3.33092e-06
3.32494e-06
3.28876e-06
3.2266e-06
3.14355e-06
3.04455e-06
2.93405e-06
2.81588e-06
2.69314e-06
2.56828e-06
2.44316e-06
2.31919e-06
2.19736e-06
2.0784e-06
1.96281e-06
1.85092e-06
1.74296e-06
1.63908e-06
1.53938e-06
1.44397e-06
1.35294e-06
1.26644e-06
1.18458e-06
1.10785e-06
1.03536e-06
2.85326e-06
2.98838e-06
3.40336e-06
3.83183e-06
4.1532e-06
4.34767e-06
4.42519e-06
4.41727e-06
4.35424e-06
4.25464e-06
4.12998e-06
3.98849e-06
3.83591e-06
3.67627e-06
3.51267e-06
3.34772e-06
3.18357e-06
3.022e-06
2.86446e-06
2.71207e-06
2.56565e-06
2.42576e-06
2.29273e-06
2.16674e-06
2.04779e-06
1.93579e-06
1.83059e-06
1.73201e-06
1.63986e-06
1.55406e-06
1.47442e-06
1.40167e-06
1.33386e-06
3.89913e-06
4.02495e-06
3.96092e-06
3.90431e-06
4.01989e-06
4.23753e-06
4.43508e-06
4.56369e-06
4.62057e-06
4.61595e-06
4.56679e-06
4.49163e-06
4.40553e-06
4.31893e-06
4.23829e-06
4.1669e-06
4.10573e-06
4.05431e-06
4.01139e-06
3.97546e-06
3.94497e-06
3.91851e-06
3.89488e-06
3.87306e-06
3.85223e-06
3.83168e-06
3.81087e-06
3.7893e-06
3.76665e-06
3.74278e-06
3.71774e-06
3.69292e-06
3.66709e-06
4.36568e-06
4.9637e-06
5.95931e-06
6.45147e-06
6.56944e-06
6.54274e-06
6.52664e-06
6.62794e-06
6.87848e-06
7.2479e-06
7.68698e-06
8.151e-06
8.60543e-06
9.02687e-06
9.40164e-06
9.72321e-06
9.98982e-06
1.02028e-05
1.03653e-05
1.04816e-05
1.0556e-05
1.05934e-05
1.0598e-05
1.0574e-05
1.05249e-05
1.04539e-05
1.03638e-05
1.02565e-05
1.01339e-05
9.99733e-06
9.84851e-06
9.68947e-06
9.52229e-06
7.56232e-06
5.8409e-06
4.65226e-06
6.23863e-06
8.96391e-06
1.16716e-05
1.4003e-05
1.58965e-05
1.73499e-05
1.83764e-05
1.90117e-05
1.93029e-05
1.9299e-05
1.90489e-05
1.85992e-05
1.79928e-05
1.72672e-05
1.64549e-05
1.55834e-05
1.46749e-05
1.37478e-05
1.28164e-05
1.18919e-05
1.09825e-05
1.00945e-05
9.23196e-06
8.39729e-06
7.59119e-06
6.81364e-06
6.06123e-06
5.33484e-06
4.62222e-06
3.93907e-06
8.58846e-06
1.47351e-05
1.88342e-05
2.12306e-05
2.23092e-05
2.18225e-05
1.99473e-05
1.71398e-05
1.38792e-05
1.08169e-05
9.01577e-06
9.54936e-06
1.2067e-05
1.54584e-05
1.90593e-05
2.25779e-05
2.58859e-05
2.89275e-05
3.16823e-05
3.41491e-05
3.63371e-05
3.82613e-05
3.99395e-05
4.13907e-05
4.26339e-05
4.36879e-05
4.45703e-05
4.52987e-05
4.58903e-05
4.63665e-05
4.67427e-05
4.70782e-05
4.73622e-05
3.46574e-05
3.72441e-05
4.67014e-05
6.18544e-05
7.7597e-05
9.30397e-05
0.00010748
0.000120209
0.000131038
0.000140007
0.000147229
0.000152863
0.000157097
0.000160116
0.000162094
0.000163189
0.000163544
0.000163282
0.000162509
0.000161318
0.000159786
0.000157978
0.00015595
0.000153747
0.000151406
0.000148959
0.000146432
0.000143842
0.000141208
0.000138533
0.000135822
0.000133163
0.000130571
0.000608457
0.00058251
0.000556872
0.000530379
0.000504331
0.000479046
0.000454563
0.000431153
0.000408997
0.000388154
0.00036864
0.000350442
0.000333513
0.000317786
0.000303184
0.000289624
0.000277021
0.000265294
0.000254365
0.00024416
0.000234611
0.000225657
0.000217242
0.000209315
0.000201832
0.000194751
0.000188034
0.000181647
0.000175552
0.000169726
0.00016404
0.000159028
0.000154457
8.41794e-05
7.589e-05
6.80343e-05
6.32535e-05
6.16502e-05
6.33146e-05
6.74903e-05
7.32151e-05
7.96483e-05
8.60492e-05
9.13303e-05
9.43862e-05
9.52839e-05
9.50336e-05
9.41331e-05
9.19218e-05
8.25475e-05
6.36004e-05
4.41464e-05
3.56509e-05
3.44614e-05
3.2498e-05
2.90181e-05
2.61623e-05
2.57779e-05
2.7459e-05
2.72551e-05
2.09121e-05
1.66103e-05
2.09938e-05
2.61147e-05
3.37925e-05
3.88486e-05
3.87921e-05
3.66177e-05
3.51018e-05
3.54839e-05
3.72897e-05
4.00484e-05
4.3497e-05
4.50455e-05
4.33639e-05
3.93572e-05
3.42945e-05
2.88808e-05
2.32712e-05
1.74086e-05
1.12779e-05
5.44165e-06
4.99936e-06
1.03755e-05
1.87056e-05
2.93897e-05
3.80177e-05
4.02585e-05
3.68502e-05
3.16634e-05
2.71859e-05
2.3672e-05
2.07351e-05
1.8162e-05
1.5889e-05
1.39038e-05
1.22193e-05
1.08649e-05
9.88024e-06
9.28175e-06
9.00115e-06
9.03229e-06
9.84394e-06
1.20226e-05
1.69862e-05
2.71994e-05
3.91386e-05
4.7138e-05
4.92282e-05
4.61998e-05
3.93647e-05
2.97997e-05
1.86851e-05
8.42779e-06
1.29961e-05
3.16156e-05
4.90529e-05
5.57038e-05
4.98605e-05
3.75382e-05
2.55721e-05
1.71355e-05
1.19078e-05
8.44329e-06
5.85537e-06
3.85544e-06
2.38135e-06
1.41788e-06
8.93875e-07
6.22595e-07
4.37027e-07
2.59988e-07
2.40088e-07
0.000118576
0.000112295
0.000102978
9.42345e-05
8.74145e-05
8.35908e-05
8.31619e-05
8.55586e-05
8.89526e-05
9.10185e-05
9.04295e-05
8.74851e-05
8.34873e-05
7.95924e-05
7.60786e-05
7.37196e-05
7.37316e-05
7.09156e-05
5.8801e-05
4.01797e-05
2.53129e-05
2.1406e-05
2.29872e-05
2.37882e-05
2.31109e-05
2.07242e-05
1.52979e-05
1.29859e-05
1.87974e-05
2.18421e-05
2.74399e-05
3.51948e-05
3.81644e-05
3.68738e-05
3.48301e-05
3.37499e-05
3.41815e-05
3.60822e-05
3.86125e-05
4.19035e-05
4.41577e-05
4.3279e-05
3.96729e-05
3.46936e-05
2.9234e-05
2.358e-05
1.77952e-05
1.20792e-05
7.7561e-06
7.84157e-06
1.30061e-05
2.25204e-05
3.34413e-05
4.02495e-05
4.02158e-05
3.58016e-05
3.07646e-05
2.66674e-05
2.3383e-05
2.0583e-05
1.8129e-05
1.59724e-05
1.40925e-05
1.24914e-05
1.1189e-05
1.02196e-05
9.61078e-06
9.32193e-06
9.34492e-06
1.01034e-05
1.22223e-05
1.67947e-05
2.67134e-05
3.92724e-05
4.81828e-05
5.0889e-05
4.81514e-05
4.14181e-05
3.18766e-05
2.11497e-05
1.25924e-05
1.71187e-05
3.56303e-05
5.27118e-05
5.79e-05
5.05485e-05
3.76194e-05
2.58763e-05
1.7842e-05
1.27255e-05
9.08657e-06
6.23079e-06
4.01076e-06
2.42425e-06
1.44581e-06
9.42862e-07
6.66177e-07
4.61136e-07
2.65857e-07
2.45519e-07
0.000106299
0.000107876
0.000107174
0.000104588
0.000100825
9.71833e-05
9.46396e-05
9.25572e-05
8.91142e-05
8.30618e-05
7.47733e-05
6.6057e-05
5.87944e-05
5.35658e-05
4.99712e-05
4.7555e-05
4.71451e-05
4.94657e-05
5.13407e-05
4.76348e-05
3.72357e-05
2.39443e-05
1.22352e-05
4.29377e-06
1.19334e-06
5.7792e-06
1.24591e-05
1.84653e-05
1.9762e-05
2.21094e-05
3.04184e-05
3.62998e-05
3.67575e-05
3.47451e-05
3.30763e-05
3.24257e-05
3.27976e-05
3.44984e-05
3.69374e-05
4.00129e-05
4.28931e-05
4.31108e-05
4.0202e-05
3.54458e-05
2.99981e-05
2.43743e-05
1.87855e-05
1.37084e-05
1.05058e-05
1.10742e-05
1.71734e-05
2.76656e-05
3.7559e-05
4.16521e-05
3.94414e-05
3.44758e-05
2.98034e-05
2.61134e-05
2.30786e-05
2.04473e-05
1.81319e-05
1.60933e-05
1.43082e-05
1.27762e-05
1.15131e-05
1.05505e-05
9.92701e-06
9.61921e-06
9.60973e-06
1.02803e-05
1.23209e-05
1.65342e-05
2.59768e-05
3.90798e-05
4.90706e-05
5.26014e-05
5.03148e-05
4.38243e-05
3.44835e-05
2.4384e-05
1.70838e-05
2.19036e-05
4.04172e-05
5.66732e-05
5.99059e-05
5.0877e-05
3.74856e-05
2.61868e-05
1.86434e-05
1.36025e-05
9.73935e-06
6.59477e-06
4.15998e-06
2.48028e-06
1.50214e-06
1.01455e-06
7.19275e-07
4.87921e-07
2.72354e-07
2.42923e-07
7.56781e-05
7.75935e-05
7.86825e-05
7.90151e-05
7.83199e-05
7.65714e-05
7.35584e-05
6.85601e-05
6.0938e-05
5.0949e-05
4.05635e-05
3.25419e-05
2.78011e-05
2.46889e-05
2.19922e-05
2.03183e-05
2.05677e-05
2.25293e-05
2.55542e-05
2.90686e-05
3.09672e-05
2.96746e-05
2.58295e-05
2.1651e-05
1.93336e-05
1.9265e-05
1.94302e-05
1.76946e-05
1.83894e-05
2.63632e-05
3.37696e-05
3.58894e-05
3.44154e-05
3.24498e-05
3.13338e-05
3.10302e-05
3.14066e-05
3.27924e-05
3.5052e-05
3.78698e-05
4.11097e-05
4.26405e-05
4.09209e-05
3.67176e-05
3.14123e-05
2.58754e-05
2.05676e-05
1.62274e-05
1.4048e-05
1.58829e-05
2.33828e-05
3.36984e-05
4.0977e-05
4.18202e-05
3.79174e-05
3.29589e-05
2.88358e-05
2.55571e-05
2.27711e-05
2.03196e-05
1.81508e-05
1.62296e-05
1.45326e-05
1.3061e-05
1.18314e-05
1.08727e-05
1.02347e-05
9.91516e-06
9.87559e-06
1.04311e-05
1.23414e-05
1.62325e-05
2.50293e-05
3.85493e-05
4.98071e-05
5.44255e-05
5.27667e-05
4.66282e-05
3.76118e-05
2.82501e-05
2.20922e-05
2.77104e-05
4.60733e-05
6.07292e-05
6.13979e-05
5.06345e-05
3.7111e-05
2.65686e-05
1.95826e-05
1.4546e-05
1.03944e-05
6.93935e-06
4.30098e-06
2.55271e-06
1.58737e-06
1.10273e-06
7.74854e-07
5.11545e-07
2.75438e-07
2.43147e-07
2.79345e-05
2.9647e-05
3.07334e-05
3.10764e-05
3.04447e-05
2.85939e-05
2.52559e-05
2.02795e-05
1.3998e-05
8.85502e-06
9.64484e-06
1.26888e-05
1.32651e-05
1.08561e-05
6.77879e-06
4.3908e-06
7.90882e-06
1.27693e-05
1.55793e-05
1.50093e-05
1.25466e-05
1.09339e-05
1.1061e-05
1.1714e-05
1.19131e-05
1.1468e-05
1.17069e-05
1.64462e-05
2.4935e-05
3.19586e-05
3.45287e-05
3.35359e-05
3.15875e-05
3.02246e-05
2.95702e-05
2.94378e-05
2.98164e-05
3.09509e-05
3.29694e-05
3.55368e-05
3.87497e-05
4.14505e-05
4.14609e-05
3.84873e-05
3.37709e-05
2.85587e-05
2.37259e-05
2.02537e-05
1.93744e-05
2.29184e-05
3.09787e-05
3.91984e-05
4.26665e-05
4.05736e-05
3.58853e-05
3.14243e-05
2.79024e-05
2.50005e-05
2.24586e-05
2.01951e-05
1.81756e-05
1.63668e-05
1.47492e-05
1.33289e-05
1.21259e-05
1.11676e-05
1.05101e-05
1.01776e-05
1.01225e-05
1.05712e-05
1.23012e-05
1.58987e-05
2.38898e-05
3.7567e-05
5.02209e-05
5.62467e-05
5.54613e-05
4.982e-05
4.12851e-05
3.27762e-05
2.77519e-05
3.44549e-05
5.2329e-05
6.45062e-05
6.21014e-05
4.97506e-05
3.6537e-05
2.70079e-05
2.05599e-05
1.54497e-05
1.09791e-05
7.22691e-06
4.42091e-06
2.64067e-06
1.69935e-06
1.20535e-06
8.36255e-07
5.38662e-07
2.82685e-07
2.40427e-07
5.06688e-06
5.42018e-06
6.36967e-06
7.46141e-06
8.53795e-06
9.77095e-06
1.13488e-05
1.33623e-05
1.55816e-05
1.73601e-05
1.78138e-05
1.63852e-05
1.32099e-05
8.94393e-06
4.46447e-06
2.60354e-06
6.50239e-06
1.1588e-05
1.67502e-05
2.04859e-05
2.14613e-05
1.98409e-05
1.67721e-05
1.40461e-05
1.36555e-05
1.64176e-05
2.15005e-05
2.72558e-05
3.15618e-05
3.29923e-05
3.19756e-05
3.01944e-05
2.8865e-05
2.8118e-05
2.77336e-05
2.76807e-05
2.80837e-05
2.90777e-05
3.0825e-05
3.31349e-05
3.60175e-05
3.9278e-05
4.11205e-05
4.01766e-05
3.69272e-05
3.26933e-05
2.87693e-05
2.64123e-05
2.69742e-05
3.14666e-05
3.8114e-05
4.25378e-05
4.21345e-05
3.82261e-05
3.36917e-05
2.99801e-05
2.70139e-05
2.4449e-05
2.21468e-05
2.00735e-05
1.82006e-05
1.64981e-05
1.49532e-05
1.3578e-05
1.23969e-05
1.14367e-05
1.0756e-05
1.04036e-05
1.03377e-05
1.06989e-05
1.22162e-05
1.55377e-05
2.26215e-05
3.60635e-05
5.01249e-05
5.79229e-05
5.83686e-05
5.34596e-05
4.56083e-05
3.80178e-05
3.42305e-05
4.22086e-05
5.89272e-05
6.75921e-05
6.17393e-05
4.81842e-05
3.58187e-05
2.74836e-05
2.14972e-05
1.62505e-05
1.14631e-05
7.45284e-06
4.52992e-06
2.75394e-06
1.83516e-06
1.31347e-06
8.94279e-07
5.60348e-07
2.84647e-07
2.35935e-07
8.52024e-06
9.24312e-06
1.04716e-05
1.19362e-05
1.33766e-05
1.46014e-05
1.55239e-05
1.60475e-05
1.6094e-05
1.54954e-05
1.41009e-05
1.19528e-05
9.33055e-06
6.65718e-06
4.6018e-06
4.41974e-06
6.26077e-06
9.05604e-06
1.26966e-05
1.70322e-05
2.11513e-05
2.41605e-05
2.58689e-05
2.6688e-05
2.73565e-05
2.84425e-05
2.98697e-05
3.08813e-05
3.07471e-05
2.95518e-05
2.81093e-05
2.70797e-05
2.64818e-05
2.60918e-05
2.5854e-05
2.58715e-05
2.63109e-05
2.72496e-05
2.87614e-05
3.07953e-05
3.32499e-05
3.63337e-05
3.93164e-05
4.06059e-05
3.96662e-05
3.73195e-05
3.49177e-05
3.3871e-05
3.52827e-05
3.89536e-05
4.2365e-05
4.26728e-05
3.96524e-05
3.53844e-05
3.16331e-05
2.86758e-05
2.61675e-05
2.39006e-05
2.18325e-05
1.99478e-05
1.82177e-05
1.66173e-05
1.51418e-05
1.38088e-05
1.26466e-05
1.16829e-05
1.09759e-05
1.05954e-05
1.05164e-05
1.0809e-05
1.2099e-05
1.51426e-05
2.13106e-05
3.40322e-05
4.93268e-05
5.92583e-05
6.14116e-05
5.75836e-05
5.0661e-05
4.40611e-05
4.1739e-05
5.08345e-05
6.53058e-05
6.9413e-05
6.00687e-05
4.60068e-05
3.50549e-05
2.79521e-05
2.22997e-05
1.68801e-05
1.18171e-05
7.61853e-06
4.64411e-06
2.90419e-06
1.9966e-06
1.43021e-06
9.56037e-07
5.85565e-07
2.92077e-07
2.29047e-07
5.13675e-06
5.82753e-06
6.869e-06
8.06835e-06
9.23088e-06
1.0212e-05
1.09103e-05
1.12782e-05
1.13004e-05
1.0932e-05
1.01198e-05
8.8592e-06
7.23754e-06
5.47303e-06
4.07372e-06
4.01399e-06
5.53156e-06
7.75802e-06
1.02321e-05
1.30006e-05
1.61197e-05
1.92922e-05
2.21297e-05
2.43559e-05
2.59214e-05
2.68868e-05
2.72468e-05
2.69679e-05
2.62255e-05
2.54322e-05
2.49003e-05
2.4602e-05
2.43617e-05
2.41301e-05
2.40049e-05
2.41105e-05
2.45828e-05
2.54934e-05
2.68386e-05
2.86114e-05
3.06897e-05
3.32106e-05
3.62448e-05
3.89166e-05
4.0227e-05
4.01721e-05
3.96271e-05
3.97089e-05
4.09211e-05
4.24162e-05
4.23792e-05
3.99694e-05
3.62309e-05
3.26839e-05
2.98536e-05
2.7489e-05
2.53394e-05
2.33461e-05
2.15095e-05
1.98113e-05
1.82217e-05
1.67226e-05
1.53163e-05
1.40247e-05
1.28794e-05
1.19104e-05
1.11742e-05
1.07563e-05
1.06576e-05
1.08974e-05
1.19661e-05
1.47037e-05
2.0039e-05
3.15372e-05
4.76168e-05
5.99339e-05
6.43676e-05
6.21231e-05
5.64589e-05
5.10049e-05
5.03665e-05
5.98896e-05
7.06478e-05
6.93626e-05
5.69828e-05
4.34036e-05
3.43266e-05
2.83388e-05
2.28875e-05
1.73028e-05
1.20437e-05
7.7473e-06
4.78708e-06
3.09707e-06
2.17687e-06
1.54889e-06
1.01589e-06
6.08339e-07
2.97639e-07
2.2066e-07
3.85879e-06
4.46285e-06
5.29633e-06
6.22566e-06
7.12868e-06
7.9116e-06
8.50783e-06
8.87825e-06
8.99017e-06
8.78741e-06
8.20159e-06
7.20403e-06
5.8542e-06
4.33447e-06
3.10669e-06
3.15104e-06
4.61646e-06
6.67063e-06
8.88429e-06
1.10947e-05
1.32887e-05
1.54684e-05
1.75639e-05
1.94252e-05
2.09035e-05
2.19036e-05
2.24191e-05
2.25644e-05
2.25475e-05
2.25364e-05
2.25478e-05
2.2507e-05
2.23876e-05
2.22619e-05
2.22464e-05
2.24353e-05
2.29232e-05
2.37865e-05
2.5013e-05
2.65798e-05
2.83925e-05
3.04052e-05
3.28302e-05
3.55723e-05
3.79746e-05
3.95331e-05
4.04157e-05
4.10669e-05
4.14762e-05
4.09778e-05
3.90185e-05
3.60122e-05
3.29701e-05
3.04423e-05
2.83156e-05
2.63587e-05
2.45074e-05
2.27796e-05
2.11733e-05
1.966e-05
1.82114e-05
1.68157e-05
1.54805e-05
1.42304e-05
1.31001e-05
1.21236e-05
1.13552e-05
1.08894e-05
1.07597e-05
1.09579e-05
1.18319e-05
1.42232e-05
1.88585e-05
2.87479e-05
4.48405e-05
5.95146e-05
6.68075e-05
6.68118e-05
6.28504e-05
5.88118e-05
5.98304e-05
6.84261e-05
7.38617e-05
6.69068e-05
5.26e-05
4.06639e-05
3.36775e-05
2.85733e-05
2.32264e-05
1.75288e-05
1.21773e-05
7.87822e-06
4.98302e-06
3.33465e-06
2.37352e-06
1.67216e-06
1.08003e-06
6.3588e-07
3.10256e-07
2.10757e-07
3.40153e-06
3.91657e-06
4.5875e-06
5.32319e-06
6.04012e-06
6.67043e-06
7.15219e-06
7.43778e-06
7.49254e-06
7.27744e-06
6.75051e-06
5.89387e-06
4.74409e-06
3.42869e-06
2.33025e-06
2.42713e-06
3.82185e-06
5.67456e-06
7.65883e-06
9.65372e-06
1.15801e-05
1.33861e-05
1.50349e-05
1.64901e-05
1.77076e-05
1.86546e-05
1.9341e-05
1.98231e-05
2.01686e-05
2.04107e-05
2.05453e-05
2.05735e-05
2.05359e-05
2.05098e-05
2.05827e-05
2.08254e-05
2.13113e-05
2.21115e-05
2.32346e-05
2.46445e-05
2.62784e-05
2.80096e-05
2.98606e-05
3.19659e-05
3.41771e-05
3.60747e-05
3.74028e-05
3.80741e-05
3.78988e-05
3.66886e-05
3.46653e-05
3.24226e-05
3.03972e-05
2.86004e-05
2.68909e-05
2.52312e-05
2.36612e-05
2.21991e-05
2.08221e-05
1.94941e-05
1.81895e-05
1.69007e-05
1.56386e-05
1.44298e-05
1.33119e-05
1.2324e-05
1.15198e-05
1.0996e-05
1.08193e-05
1.09806e-05
1.17014e-05
1.37242e-05
1.77725e-05
2.59285e-05
4.10099e-05
5.75244e-05
6.80566e-05
7.10405e-05
6.93235e-05
6.70203e-05
6.91552e-05
7.49267e-05
7.3775e-05
6.18178e-05
4.73443e-05
3.80992e-05
3.30927e-05
2.86194e-05
2.33472e-05
1.76237e-05
1.22861e-05
8.06065e-06
5.2492e-06
3.61157e-06
2.58065e-06
1.79777e-06
1.14679e-06
6.65091e-07
3.25288e-07
2.00394e-07
3.04695e-06
3.48523e-06
4.03159e-06
4.62091e-06
5.18903e-06
5.68066e-06
6.04867e-06
6.2569e-06
6.27518e-06
6.06893e-06
5.60135e-06
4.85305e-06
3.84583e-06
2.67137e-06
1.64889e-06
1.81499e-06
3.16687e-06
4.8475e-06
6.61268e-06
8.3808e-06
1.01011e-05
1.17286e-05
1.32188e-05
1.45329e-05
1.56481e-05
1.65592e-05
1.72782e-05
1.78286e-05
1.8235e-05
1.85165e-05
1.86888e-05
1.87752e-05
1.88147e-05
1.88646e-05
1.89934e-05
1.92626e-05
1.97358e-05
2.04735e-05
2.14964e-05
2.27747e-05
2.42618e-05
2.58537e-05
2.74365e-05
2.90204e-05
3.06214e-05
3.20835e-05
3.31541e-05
3.36361e-05
3.33851e-05
3.24637e-05
3.1163e-05
2.97666e-05
2.83608e-05
2.69231e-05
2.54763e-05
2.40897e-05
2.28038e-05
2.16063e-05
2.04572e-05
1.93169e-05
1.81604e-05
1.69819e-05
1.57941e-05
1.46255e-05
1.35166e-05
1.25119e-05
1.16669e-05
1.10755e-05
1.08323e-05
1.09517e-05
1.15635e-05
1.32433e-05
1.67562e-05
2.33552e-05
3.64143e-05
5.36189e-05
6.72493e-05
7.37516e-05
7.47946e-05
7.44085e-05
7.64915e-05
7.7496e-05
6.95124e-05
5.44213e-05
4.19125e-05
3.59247e-05
3.25322e-05
2.85108e-05
2.33502e-05
1.76962e-05
1.24541e-05
8.33839e-06
5.59174e-06
3.9217e-06
2.79801e-06
1.93031e-06
1.22221e-06
7.01505e-07
3.48986e-07
1.90983e-07
2.7581e-06
3.12735e-06
3.5701e-06
4.03908e-06
4.48753e-06
4.87376e-06
5.15942e-06
5.31073e-06
5.29823e-06
5.09312e-06
4.66836e-06
4.00921e-06
3.1267e-06
2.07483e-06
1.08106e-06
1.30067e-06
2.61327e-06
4.13626e-06
5.7129e-06
7.28785e-06
8.82239e-06
1.02816e-05
1.1631e-05
1.28408e-05
1.38899e-05
1.47688e-05
1.54806e-05
1.6039e-05