/*--------------------------------*- C++ -*----------------------------------*\
| =========                 |                                                 |
| \\      /  F ield         | OpenFOAM: The Open Source CFD Toolbox           |
|  \\    /   O peration     | Version:  2.1.1                                 |
|   \\  /    A nd           | Web:      www.OpenFOAM.org                      |
|    \\/     M anipulation  |                                                 |
\*---------------------------------------------------------------------------*/
FoamFile
{
    version     2.0;
    format      ascii;
    class       volScalarField;
    location    "0.125";
    object      p;
}
// * * * * * * * * * * * * * * * * * * * * * * * * * * * * * * * * * * * * * //

dimensions      [0 2 -2 0 0 0 0];

internalField   nonuniform List<scalar> 
6820
(
8.26761
-9.56766
-12.5751
-12.7606
-12.9307
-12.8533
-12.7911
-12.7963
-12.8344
-12.8902
-12.955
-13.0233
-13.0925
-13.1614
-13.229
-13.2947
-13.358
-13.4183
-13.4752
-13.528
-13.5761
-13.6189
-13.6556
-13.6854
-13.7074
-13.7207
-13.724
-13.7161
-13.6963
-13.6605
-13.6152
-13.5347
-13.4931
1.5864
-9.3865
-12.2639
-12.5624
-12.8124
-12.8311
-12.8054
-12.8218
-12.8618
-12.9146
-12.9755
-13.0402
-13.1065
-13.1731
-13.239
-13.3035
-13.366
-13.4258
-13.4824
-13.5351
-13.5833
-13.6262
-13.6633
-13.6935
-13.7161
-13.7301
-13.7344
-13.7276
-13.709
-13.6757
-13.6313
-13.5627
-13.522
-1.12836
-7.95624
-11.2434
-11.9998
-12.4655
-12.6591
-12.7122
-12.7615
-12.8209
-12.8862
-12.9558
-13.0272
-13.0987
-13.1691
-13.2378
-13.3044
-13.3683
-13.4292
-13.4866
-13.5401
-13.589
-13.6328
-13.6707
-13.7022
-13.7263
-13.7422
-13.749
-13.7457
-13.7315
-13.7045
-13.6669
-13.6103
-13.5531
-3.11394
-7.7292
-10.8219
-11.6796
-12.1491
-12.4218
-12.5451
-12.6386
-12.7293
-12.8154
-12.8982
-12.9788
-13.0571
-13.133
-13.2064
-13.2771
-13.3446
-13.4089
-13.4695
-13.526
-13.5779
-13.6249
-13.6663
-13.7017
-13.7303
-13.7517
-13.7652
-13.7703
-13.7669
-13.7546
-13.7356
-13.71
-13.6896
-4.74977
-7.83001
-10.4306
-11.3325
-11.8378
-12.1897
-12.3833
-12.5165
-12.6319
-12.7349
-12.8298
-12.9196
-13.0052
-13.0869
-13.1651
-13.2398
-13.3111
-13.3788
-13.4426
-13.5023
-13.5576
-13.6082
-13.6538
-13.6941
-13.7288
-13.7576
-13.7805
-13.7977
-13.81
-13.8186
-13.8273
-13.8409
-13.8734
-5.97281
-8.01136
-10.1802
-11.1228
-11.6472
-12.0264
-12.255
-12.4112
-12.543
-12.659
-12.7638
-12.8613
-12.9532
-13.0403
-13.1231
-13.2017
-13.2764
-13.3473
-13.4143
-13.4772
-13.5361
-13.5906
-13.6408
-13.6865
-13.7278
-13.7648
-13.7981
-13.8286
-13.8578
-13.8883
-13.9253
-13.9754
-14.0549
-6.92399
-8.29827
-10.0634
-10.9688
-11.4809
-11.8684
-12.1273
-12.3092
-12.4592
-12.589
-12.7041
-12.8092
-12.9071
-12.9991
-13.0859
-13.1682
-13.2463
-13.3204
-13.3905
-13.4567
-13.519
-13.5774
-13.632
-13.6829
-13.7305
-13.7751
-13.8177
-13.8596
-13.903
-13.951
-14.009
-14.0837
-14.1888
-7.67052
-8.60499
-10.0128
-10.8537
-11.3543
-11.7435
-12.0214
-12.2208
-12.3831
-12.5228
-12.6458
-12.7575
-12.8608
-12.9575
-13.0485
-13.1346
-13.2162
-13.2937
-13.3671
-13.4366
-13.5025
-13.5649
-13.6239
-13.68
-13.7336
-13.7856
-13.837
-13.8894
-13.9453
-14.008
-14.0826
-14.1751
-14.2959
-8.26337
-8.90926
-10.0236
-10.7844
-11.2627
-11.6404
-11.9248
-12.136
-12.3087
-12.4575
-12.5886
-12.7069
-12.8158
-12.9173
-13.0126
-13.1024
-13.1876
-13.2683
-13.3451
-13.4181
-13.4876
-13.5539
-13.6174
-13.6786
-13.7382
-13.797
-13.8564
-13.9182
-13.9847
-14.0591
-14.1459
-14.25
-14.3789
-8.7404
-9.19544
-10.0724
-10.7446
-11.194
-11.5561
-11.8416
-12.061
-12.2415
-12.3975
-12.5349
-12.6587
-12.7724
-12.8782
-12.9773
-13.0708
-13.1593
-13.2434
-13.3234
-13.3998
-13.473
-13.5432
-13.6111
-13.6771
-13.7422
-13.8074
-13.8739
-13.9436
-14.0188
-14.1023
-14.1978
-14.309
-14.4413
-9.12851
-9.45585
-10.1454
-10.7306
-11.1477
-11.4906
-11.7711
-11.9937
-12.1789
-12.34
-12.4827
-12.6115
-12.7298
-12.8398
-12.9428
-13.0398
-13.1318
-13.2193
-13.3027
-13.3825
-13.4592
-13.5333
-13.6054
-13.6761
-13.7463
-13.8171
-13.8899
-13.9663
-14.0484
-14.1385
-14.2397
-14.3547
-14.487
-9.44734
-9.68815
-10.2316
-10.7354
-11.1178
-11.4395
-11.7111
-11.9336
-12.1218
-12.2867
-12.4337
-12.5668
-12.6891
-12.8029
-12.9094
-13.0099
-13.1051
-13.1958
-13.2824
-13.3656
-13.4458
-13.5235
-13.5995
-13.6745
-13.7493
-13.8251
-13.903
-13.9848
-14.072
-14.1668
-14.2712
-14.3874
-14.5174
-9.71125
-9.8924
-10.323
-10.7537
-11.1012
-11.401
-11.6614
-11.8811
-12.07
-12.2372
-12.3873
-12.5238
-12.6497
-12.7669
-12.8768
-12.9806
-13.079
-13.1729
-13.2627
-13.3491
-13.4326
-13.5139
-13.5936
-13.6724
-13.7514
-13.8314
-13.9136
-13.9995
-14.0905
-14.1881
-14.2941
-14.4096
-14.5361
-9.93078
-10.0701
-10.414
-10.781
-11.0945
-11.3725
-11.6202
-11.835
-12.023
-12.1912
-12.3436
-12.483
-12.612
-12.7324
-12.8455
-12.9523
-13.0539
-13.1507
-13.2436
-13.3331
-13.4197
-13.5042
-13.5872
-13.6695
-13.7519
-13.8354
-13.921
-14.0099
-14.1033
-14.2024
-14.3083
-14.4219
-14.544
-10.1138
-10.2231
-10.5005
-10.8133
-11.0949
-11.3518
-11.5863
-11.7948
-11.9807
-12.149
-12.3027
-12.4444
-12.576
-12.6991
-12.8151
-12.9249
-13.0293
-13.1291
-13.2249
-13.3172
-13.4068
-13.4943
-13.5803
-13.6656
-13.7509
-13.8372
-13.9254
-14.0164
-14.1111
-14.2106
-14.3155
-14.4263
-14.5435
-10.2661
-10.3536
-10.58
-10.8474
-11.0998
-11.3369
-11.5581
-11.7596
-11.9424
-12.1099
-12.2645
-12.4078
-12.5416
-12.6673
-12.786
-12.8985
-13.0057
-13.1082
-13.2067
-13.3018
-13.394
-13.4841
-13.5728
-13.6606
-13.7483
-13.8367
-13.9266
-14.0188
-14.114
-14.2129
-14.316
-14.4235
-14.5356
-10.3921
-10.4636
-10.6508
-10.8807
-11.1071
-11.3258
-11.5345
-11.7285
-11.9077
-12.074
-12.2287
-12.3734
-12.5091
-12.637
-12.7581
-12.8732
-12.9829
-13.088
-13.189
-13.2866
-13.3813
-13.4737
-13.5646
-13.6545
-13.7441
-13.834
-13.925
-14.0177
-14.1126
-14.2103
-14.3111
-14.4149
-14.5219
-10.4952
-10.5546
-10.7118
-10.911
-11.1148
-11.317
-11.5138
-11.7006
-11.8759
-12.0405
-12.1952
-12.3408
-12.4782
-12.6081
-12.7315
-12.8489
-12.961
-13.0685
-13.1718
-13.2716
-13.3685
-13.4629
-13.5556
-13.6472
-13.7381
-13.829
-13.9205
-14.013
-14.1071
-14.203
-14.301
-14.401
-14.503
-10.5778
-10.6281
-10.7622
-10.9366
-11.1211
-11.3088
-11.495
-11.6749
-11.8464
-12.0093
-12.1638
-12.3101
-12.4489
-12.5808
-12.7062
-12.8259
-12.9402
-13.0499
-13.1554
-13.2572
-13.3559
-13.4521
-13.5463
-13.6391
-13.7309
-13.8223
-13.9138
-14.0057
-14.0985
-14.1923
-14.2873
-14.3834
-14.4804
-10.6417
-10.6851
-10.8015
-10.9562
-11.1246
-11.2998
-11.4768
-11.6506
-11.8185
-11.9798
-12.134
-12.281
-12.4212
-12.5548
-12.6822
-12.8039
-12.9203
-13.032
-13.1394
-13.243
-13.3433
-13.4409
-13.5362
-13.6298
-13.7221
-13.8135
-13.9045
-13.9954
-14.0864
-14.1778
-14.2696
-14.3617
-14.454
-10.6881
-10.7264
-10.8293
-10.9686
-11.1239
-11.2887
-11.4579
-11.6266
-11.7915
-11.9515
-12.1056
-12.2535
-12.3951
-12.5304
-12.6597
-12.7835
-12.9019
-13.0155
-13.1246
-13.2298
-13.3316
-13.4303
-13.5264
-13.6205
-13.7129
-13.804
-13.8941
-13.9837
-14.0727
-14.1615
-14.25
-14.3381
-14.4258
-10.7179
-10.7523
-10.8452
-10.9727
-11.1177
-11.2744
-11.4375
-11.602
-11.7647
-11.9239
-12.0782
-12.2271
-12.3701
-12.5071
-12.6384
-12.764
-12.8843
-12.9996
-13.1103
-13.2168
-13.3196
-13.4191
-13.5157
-13.6099
-13.702
-13.7924
-13.8814
-13.9692
-14.056
-14.1419
-14.227
-14.3112
-14.3945
-10.7313
-10.763
-10.8487
-10.9676
-11.1051
-11.2556
-11.4143
-11.5761
-11.7376
-11.8967
-12.0518
-12.2021
-12.3469
-12.4859
-12.6192
-12.7468
-12.869
-12.986
-13.0982
-13.206
-13.3097
-13.4099
-13.5068
-13.6008
-13.6924
-13.7818
-13.8694
-13.9552
-14.0396
-14.1226
-14.2043
-14.2846
-14.3635
-10.7285
-10.7583
-10.8391
-10.9523
-11.0847
-11.2314
-11.3875
-11.5479
-11.7092
-11.8689
-12.0254
-12.1774
-12.3241
-12.4653
-12.6006
-12.7302
-12.8541
-12.9726
-13.0861
-13.1948
-13.2992
-13.3996
-13.4964
-13.59
-13.6807
-13.7688
-13.8546
-13.9383
-14.0201
-14.1
-14.1782
-14.2546
-14.3293
-10.7089
-10.7377
-10.8158
-10.9258
-11.0557
-11.2008
-11.3563
-11.5172
-11.6798
-11.8414
-12.0002
-12.1548
-12.3043
-12.448
-12.5858
-12.7176
-12.8435
-12.9637
-13.0785
-13.1881
-13.2931
-13.3937
-13.4902
-13.5832
-13.6729
-13.7595
-13.8434
-13.9248
-14.0038
-14.0806
-14.1552
-14.2277
-14.2982
-10.6718
-10.7003
-10.7776
-10.8869
-11.0167
-11.1624
-11.3192
-11.4821
-11.6471
-11.8116
-11.9734
-12.131
-12.2833
-12.4299
-12.5702
-12.7042
-12.8319
-12.9535
-13.0694
-13.1797
-13.2849
-13.3854
-13.4814
-13.5734
-13.6617
-13.7466
-13.8283
-13.9071
-13.9832
-14.0567
-14.1277
-14.1964
-14.2627
-10.6159
-10.6448
-10.7233
-10.8346
-10.967
-11.1162
-11.2771
-11.4444
-11.6141
-11.7834
-11.9499
-12.1119
-12.2684
-12.4185
-12.562
-12.6987
-12.8287
-12.952
-13.069
-13.1801
-13.2855
-13.3857
-13.4811
-13.572
-13.6588
-13.7417
-13.8211
-13.8972
-13.9702
-14.0403
-14.1077
-14.1723
-14.2344
-10.5392
-10.5693
-10.651
-10.7667
-10.9041
-11.0588
-11.2255
-11.3987
-11.5743
-11.7492
-11.921
-12.0879
-12.2488
-12.4028
-12.5496
-12.689
-12.8211
-12.9461
-13.0642
-13.1757
-13.2812
-13.3809
-13.4753
-13.5648
-13.6498
-13.7305
-13.8073
-13.8805
-13.9503
-14.0169
-14.0804
-14.1412
-14.1992
-10.4394
-10.4717
-10.5593
-10.6831
-10.8297
-10.9943
-11.1711
-11.3542
-11.5392
-11.7227
-11.9022
-12.0759
-12.2426
-12.4016
-12.5525
-12.6952
-12.8297
-12.9564
-13.0755
-13.1875
-13.2928
-13.3919
-13.4852
-13.573
-13.6559
-13.7342
-13.8082
-13.8782
-13.9446
-14.0074
-14.067
-14.1235
-14.177
-10.3129
-10.348
-10.4436
-10.5777
-10.7352
-10.9109
-11.0989
-11.2929
-11.4881
-11.6811
-11.8693
-12.0506
-12.224
-12.3886
-12.5441
-12.6904
-12.8277
-12.9563
-13.0766
-13.189
-13.2941
-13.3923
-13.4842
-13.5702
-13.6508
-13.7264
-13.7974
-13.8641
-13.9268
-13.9859
-14.0415
-14.0939
-14.1434
-10.1554
-10.1959
-10.3053
-10.4574
-10.6342
-10.8294
-11.036
-11.2469
-11.4571
-11.6632
-11.8624
-12.0531
-12.2341
-12.4049
-12.5652
-12.7152
-12.8551
-12.9853
-13.1063
-13.2188
-13.3232
-13.4201
-13.5102
-13.5939
-13.6718
-13.7443
-13.8118
-13.8747
-13.9334
-13.9881
-14.0392
-14.0868
-14.1312
-9.95959
-10.0048
-10.1283
-10.2977
-10.4923
-10.7062
-10.9319
-11.1614
-11.3889
-11.6106
-11.8238
-12.0264
-12.2175
-12.3965
-12.5633
-12.7181
-12.8615
-12.9939
-13.1161
-13.2288
-13.3326
-13.4282
-13.5164
-13.5977
-13.6727
-13.7419
-13.8058
-13.8649
-13.9195
-13.97
-14.0168
-14.0602
-14.1005
-9.72024
-9.78013
-9.93635
-10.1439
-10.3744
-10.6207
-10.8749
-11.1285
-11.3761
-11.6146
-11.8416
-12.0554
-12.2555
-12.4414
-12.6135
-12.7721
-12.9179
-13.0516
-13.174
-13.2859
-13.3882
-13.4817
-13.567
-13.645
-13.7162
-13.7812
-13.8406
-13.8948
-13.9443
-13.9895
-14.0308
-14.0684
-14.1027
-9.41515
-9.47749
-9.65375
-9.88804
-10.1492
-10.4307
-10.721
-11.0083
-11.2862
-11.5511
-11.8003
-12.0322
-12.2466
-12.4437
-12.6239
-12.7883
-12.9378
-13.0735
-13.1966
-13.3081
-13.409
-13.5004
-13.583
-13.6578
-13.7254
-13.7865
-13.8417
-13.8915
-13.9364
-13.9769
-14.0135
-14.0465
-14.0765
-9.05465
-9.17227
-9.43405
-9.73954
-10.0518
-10.374
-10.6972
-11.011
-11.3109
-11.5943
-11.859
-12.1038
-12.3285
-12.5336
-12.7197
-12.8879
-13.0395
-13.1756
-13.2977
-13.407
-13.5047
-13.592
-13.6699
-13.7394
-13.8012
-13.8562
-13.9049
-13.948
-13.986
-14.0194
-14.0487
-14.0742
-14.0965
-8.52607
-8.61751
-8.91693
-9.2902
-9.6834
-10.0892
-10.487
-10.8632
-11.214
-11.5375
-11.8328
-12.1003
-12.3415
-12.558
-12.7517
-12.9247
-13.0787
-13.2156
-13.3372
-13.4449
-13.5404
-13.6247
-13.6993
-13.765
-13.8228
-13.8734
-13.9175
-13.9557
-13.9886
-14.0166
-14.0402
-14.0602
-14.0773
-8.03145
-8.3542
-8.82309
-9.24359
-9.65603
-10.0877
-10.5103
-10.9104
-11.2865
-11.6349
-11.9526
-12.2392
-12.4956
-12.7231
-12.9239
-13.1003
-13.2546
-13.3892
-13.5062
-13.6079
-13.696
-13.7721
-13.8378
-13.8943
-13.9426
-13.9837
-14.0182
-14.0467
-14.0696
-14.0873
-14.1
-14.1085
-14.1129
-6.72902
-7.05116
-7.82529
-8.52665
-9.16549
-9.77497
-10.3231
-10.8097
-11.2451
-11.6331
-11.9773
-12.2818
-12.5506
-12.7869
-12.9939
-13.1745
-13.3315
-13.4673
-13.5843
-13.6848
-13.7707
-13.8438
-13.9057
-13.9579
-14.0013
-14.0371
-14.0659
-14.0882
-14.1041
-14.1137
-14.1161
-14.1127
-14.0985
-6.71683
-7.46216
-8.06763
-8.53615
-9.13829
-9.7746
-10.3685
-10.9227
-11.4309
-11.8827
-12.277
-12.6175
-12.9083
-13.1543
-13.3607
-13.5328
-13.6755
-13.793
-13.8893
-13.9678
-14.0314
-14.0824
-14.1231
-14.1551
-14.1799
-14.1986
-14.2119
-14.2204
-14.2238
-14.2213
-14.21
-14.1868
-14.1381
-0.465157
-5.07339
-6.85825
-7.71025
-8.71438
-9.59313
-10.2971
-10.9093
-11.446
-11.9077
-12.3034
-12.6413
-12.9278
-13.1691
-13.3712
-13.5394
-13.6786
-13.7932
-13.887
-13.9632
-14.0248
-14.0741
-14.1132
-14.1438
-14.1675
-14.1854
-14.1985
-14.2076
-14.2138
-14.2163
-14.2182
-14.214
-14.2155
-13.1649
-13.4421
-14.5002
-15.88
-17.4189
-18.7898
-19.7186
-20.1651
-20.2428
-19.8838
-18.8127
-16.8851
-14.4993
-12.392
-11.3918
-11.9141
-13.9115
-17.1502
-21.2498
-25.7239
-30.1114
-33.9778
-36.8832
-38.4395
-38.4
-36.763
-33.7693
-29.8093
-25.2615
-20.3501
-15.185
-10.0373
-5.46227
-1.91187
0.54254
2.04323
2.70291
2.54412
1.44698
-0.845411
-4.59778
-9.88273
-16.4422
-23.724
-31.0413
-37.6863
-42.9969
-46.4017
-47.5267
-46.1768
-42.493
-36.9404
-30.2649
-23.3977
-17.1929
-12.1182
-8.21873
-5.32251
-3.22041
-1.73074
-0.705045
-0.0238283
0.407639
0.663061
0.797817
0.850884
0.847621
0.802503
0.719953
0.59643
0.419941
0.159126
-0.276922
-1.20458
-3.33401
-7.60337
-14.576
-23.699
-32.9199
-39.3569
-40.7841
-36.49
-27.6931
-17.7827
-9.98445
-5.24768
-2.71809
-1.36032
-0.590555
-0.152348
0.0821775
0.197031
0.245869
0.259284
0.247983
0.223931
0.181278
0.143661
0.0760481
0.0499477
-13.3234
-13.5301
-14.4842
-15.8177
-17.3122
-18.663
-19.6155
-20.1212
-20.248
-19.9135
-18.8706
-17.0437
-14.8452
-12.9619
-12.0746
-12.5466
-14.4079
-17.3976
-21.1149
-25.1498
-29.0819
-32.4983
-35.0344
-36.3785
-36.3245
-34.8733
-32.2012
-28.5883
-24.3224
-19.6248
-14.6905
-9.86516
-5.63707
-2.34028
-0.0209666
1.42161
2.06409
1.91395
0.870353
-1.27515
-4.75424
-9.64515
-15.7324
-22.5189
-29.3621
-35.5878
-40.5659
-43.7541
-44.8133
-43.554
-40.1132
-34.9398
-28.7567
-22.4353
-16.7221
-12.002
-8.3149
-5.52861
-3.47435
-1.99676
-0.962978
-0.263029
0.191826
0.471499
0.629096
0.702442
0.716476
0.685684
0.6149
0.500103
0.32918
0.0722917
-0.349477
-1.21663
-3.18697
-7.14827
-13.6463
-22.1674
-30.7876
-36.8059
-38.1482
-34.1433
-25.9566
-16.7866
-9.59773
-5.19801
-2.79161
-1.45883
-0.684713
-0.235675
0.0120237
0.141257
0.204032
0.229563
0.227887
0.211111
0.173548
0.139484
0.0742764
0.0493515
-13.4642
-13.776
-14.6848
-15.9177
-17.2819
-18.5373
-19.457
-19.9662
-20.0815
-19.7232
-18.7107
-17.0529
-15.1511
-13.6003
-12.939
-13.4312
-15.0635
-17.6802
-20.9967
-24.6286
-28.163
-31.2198
-33.467
-34.6307
-34.5444
-33.204
-30.7371
-27.3565
-23.3083
-18.8319
-14.1894
-9.73654
-5.86199
-2.80921
-0.62168
0.759939
1.38166
1.24078
0.249833
-1.75587
-4.96801
-9.46203
-15.0627
-21.3334
-27.6823
-33.473
-38.1089
-41.0779
-42.0692
-40.9001
-37.7091
-32.9348
-27.2691
-21.503
-16.2706
-11.8904
-8.40816
-5.73132
-3.7272
-2.26426
-1.22444
-0.507169
-0.0298017
0.273676
0.454
0.547762
0.579378
0.563211
0.50449
0.398971
0.234407
-0.0180669
-0.427869
-1.23933
-3.05097
-6.69197
-12.6891
-20.5761
-28.5689
-34.1554
-35.4123
-31.7117
-24.1708
-15.7774
-9.21282
-5.14884
-2.86255
-1.55448
-0.777197
-0.318447
-0.0581431
0.0853321
0.16209
0.199805
0.207786
0.198302
0.165808
0.135307
0.0723998
0.0488152
-13.7093
-14.0501
-14.843
-15.931
-17.1388
-18.2625
-19.0919
-19.5508
-19.6253
-19.2541
-18.3433
-16.9632
-15.4581
-14.2884
-13.8468
-14.3339
-15.7571
-18.002
-20.8594
-24.0323
-27.1688
-29.8983
-31.893
-32.9087
-32.792
-31.522
-29.1993
-26.0108
-22.1934
-18.0064
-13.7294
-9.67284
-6.13483
-3.30847
-1.24895
0.0682896
0.665882
0.53494
-0.402041
-2.27396
-5.22922
-9.33239
-14.442
-20.1833
-26.0226
-31.3667
-35.6541
-38.4018
-39.3225
-38.2467
-35.3193
-30.9687
-25.8382
-20.6197
-15.8435
-11.7825
-8.4967
-5.92905
-3.97773
-2.53228
-1.48868
-0.75574
-0.256948
0.0697254
0.272559
0.386814
0.436311
0.435194
0.38897
0.293306
0.135756
-0.111646
-0.510355
-1.26907
-2.92236
-6.23405
-11.7101
-18.9392
-26.2887
-31.4391
-32.6152
-29.2374
-22.3747
-14.7817
-8.84183
-5.10337
-2.93126
-1.64735
-0.868271
-0.40091
-0.128397
0.0293475
0.120223
0.170222
0.187915
0.185753
0.158309
0.131378
0.0706236
0.0485045
-13.9705
-14.3166
-14.9958
-15.9101
-16.913
-17.8453
-18.5243
-18.9008
-18.9425
-18.6148
-17.8839
-16.831
-15.7158
-14.8794
-14.6203
-15.1074
-16.359
-18.2787
-20.7005
-23.392
-26.0723
-28.4228
-30.1471
-31.0122
-30.8647
-29.6705
-27.5126
-24.5627
-21.0493
-17.2257
-13.3476
-9.67285
-6.44332
-3.82826
-1.8956
-0.646194
-0.0753357
-0.196086
-1.07629
-2.81843
-5.53072
-9.25925
-13.8863
-19.0945
-24.4135
-29.3007
-33.2331
-35.7566
-36.6052
-35.6323
-32.9891
-29.0824
-24.4876
-19.792
-15.4405
-11.678
-8.58094
-6.12219
-4.2259
-2.80058
-1.75551
-1.00865
-0.489643
-0.140469
0.0846004
0.2194
0.287053
0.301387
0.268097
0.182935
0.0332724
-0.208052
-0.595975
-1.30505
-2.80285
-5.78274
-10.7271
-17.2853
-23.9833
-28.6958
-29.7962
-26.7592
-20.6006
-13.82
-8.49366
-5.0656
-3.00076
-1.74011
-0.959853
-0.484097
-0.199116
-0.0267459
0.0784856
0.140877
0.168296
0.173436
0.150971
0.127588
0.0688006
0.0483188
-14.2024
-14.5355
-15.1035
-15.8432
-16.6423
-17.3787
-17.9642
-18.2912
-18.341
-18.0948
-17.544
-16.7613
-15.9443
-15.3544
-15.2251
-15.6959
-16.7934
-18.4448
-20.5042
-22.7738
-25.018
-26.9778
-28.4075
-29.0941
-28.9014
-27.7908
-25.828
-23.1621
-19.9957
-16.5523
-13.0556
-9.72734
-6.77721
-4.36056
-2.55335
-1.37392
-0.830963
-0.941507
-1.76343
-3.37909
-5.86401
-9.24204
-13.4084
-18.0934
-22.89
-27.3136
-30.8849
-33.1837
-33.9658
-33.1125
-30.773
-27.3159
-23.2354
-19.0233
-15.0607
-11.5762
-8.66063
-6.31035
-4.47121
-3.06867
-2.02455
-1.26567
-0.727754
-0.356859
-0.109877
0.0454939
0.131595
0.161848
0.141992
0.0679729
-0.0728976
-0.307016
-0.684248
-1.34817
-2.69796
-5.35149
-9.76315
-15.646
-21.6902
-25.9668
-27.0008
-24.3236
-18.8871
-12.9143
-8.17684
-5.03841
-3.07276
-1.83423
-1.053
-0.568527
-0.270414
-0.0828496
0.0370663
0.111992
0.149167
0.161599
0.144033
0.124171
0.0671203
0.048431
-14.3588
-14.6738
-15.1605
-15.7764
-16.4388
-17.057
-17.5472
-17.8318
-17.8874
-17.7037
-17.2882
-16.7094
-16.1209
-15.7226
-15.6957
-16.1538
-17.121
-18.5399
-20.2913
-22.2072
-24.085
-25.7084
-26.8671
-27.3824
-27.1404
-26.1062
-24.3305
-21.9361
-19.0939
-15.9961
-12.8395
-9.82084
-7.12616
-4.89763
-3.21405
-2.1057
-1.5912
-1.69129
-2.45431
-3.9462
-6.21815
-9.27339
-13.012
-17.2005
-21.4885
-25.4524
-28.6634
-30.7428
-31.4708
-30.7519
-28.7209
-25.6945
-22.0863
-18.3105
-14.7018
-11.4768
-8.7361
-6.49373
-4.71361
-3.33639
-2.29562
-1.52668
-0.971242
-0.579458
-0.310925
-0.134971
-0.0301387
0.0165135
0.0106588
-0.0515112
-0.182577
-0.408185
-0.774231
-1.39776
-2.61064
-4.95124
-8.8399
-14.0531
-19.4493
-23.2981
-24.2788
-21.9789
-17.2703
-12.0829
-7.89723
-5.02405
-3.14934
-1.93173
-1.14916
-0.654951
-0.342529
-0.138935
-0.00391598
0.0836894
0.130613
0.150279
0.137475
0.12107
0.0654677
0.0487625
-14.4771
-14.7757
-15.1998
-15.7186
-16.2687
-16.7805
-17.1891
-17.4386
-17.5049
-17.3824
-17.0858
-16.6741
-16.2668
-16.0175
-16.0673
-16.5071
-17.3592
-18.5786
-20.0664
-21.6808
-23.2501
-24.5903
-25.5216
-25.8942
-25.6124
-24.646
-23.0346
-20.8788
-18.3222
-15.5306
-12.6783
-9.94064
-7.48236
-5.43241
-3.86958
-2.83235
-2.34645
-2.4357
-3.1402
-4.51157
-6.5831
-9.34263
-12.6919
-16.4243
-20.2364
-23.762
-26.6271
-28.5009
-29.1863
-28.6027
-26.8615
-24.2242
-21.0352
-17.6483
-14.3619
-11.38
-8.80783
-6.67251
-4.95301
-3.60357
-2.56858
-1.79155
-1.22002
-0.808218
-0.518516
-0.32197
-0.1981
-0.134513
-0.125726
-0.175303
-0.295499
-0.511163
-0.864971
-1.45241
-2.54205
-4.59085
-7.9783
-12.5403
-17.3038
-20.7398
-21.6839
-19.7747
-15.7841
-11.3399
-7.65831
-5.0238
-3.23202
-2.03408
-1.24927
-0.743738
-0.415466
-0.194843
-0.0442405
0.0562082
0.112879
0.13972
0.131524
0.118503
0.0640091
0.0494841
-14.5623
-14.8412
-15.212
-15.6517
-16.1135
-16.5452
-16.8953
-17.1199
-17.1977
-17.1264
-16.9236
-16.6413
-16.3735
-16.2384
-16.3449
-16.7644
-17.5153
-18.5618
-19.8218
-21.1762
-22.4795
-23.5766
-24.3168
-24.5734
-24.2643
-23.3618
-21.8967
-19.9522
-17.6498
-15.1337
-12.5579
-10.078
-7.83925
-5.95845
-4.51282
-3.54617
-3.08899
-3.16707
-3.81371
-5.06843
-6.95086
-9.43869
-12.4362
-15.7584
-19.1402
-22.2658
-24.8134
-26.499
-27.1457
-26.6816
-25.1931
-22.8934
-20.071
-17.0311
-14.0397
-11.2863
-8.87652
-6.84708
-5.18957
-3.87021
-2.84337
-2.06023
-1.47404
-1.04311
-0.732635
-0.51548
-0.372248
-0.291156
-0.266994
-0.303138
-0.411336
-0.615519
-0.955604
-1.51044
-2.49206
-4.27707
-7.19773
-11.141
-15.2985
-18.3445
-19.2712
-17.7576
-14.4553
-10.693
-7.46062
-5.03816
-3.32216
-2.14262
-1.35412
-0.835175
-0.489214
-0.250426
-0.0837122
0.0297398
0.0961244
0.130032
0.126228
0.116471
0.0626684
0.0505466
-14.6221
-14.8817
-15.209
-15.5862
-15.9782
-16.3446
-16.6456
-16.8483
-16.936
-16.9087
-16.7841
-16.6062
-16.4482
-16.4005
-16.5471
-16.9435
-17.6043
-18.5005
-19.5637
-20.6942
-21.7699
-22.6601
-23.2379
-23.3965
-23.0657
-22.2209
-20.8865
-19.1313
-17.0585
-14.7929
-12.4699
-10.2266
-8.19157
-6.47053
-5.13798
-4.24069
-3.81203
-3.87879
-4.46855
-5.61104
-7.31517
-9.55226
-12.2311
-15.1859
-18.1847
-20.9544
-23.2181
-24.7321
-25.3374
-24.9694
-23.6933
-21.6834
-19.183
-16.4553
-13.7353
-11.1966
-8.94295
-7.01793
-5.42353
-4.1364
-3.11997
-2.33268
-1.73328
-1.28412
-0.953243
-0.715434
-0.552469
-0.453238
-0.412875
-0.434646
-0.529667
-0.720754
-1.04532
-1.56984
-2.4588
-4.01299
-6.51299
-9.88549
-13.4769
-16.1648
-17.0926
-15.966
-13.3
-10.1431
-7.30222
-5.0671
-3.42083
-2.25824
-1.46408
-0.92924
-0.563581
-0.305433
-0.122056
0.00456318
0.080619
0.121471
0.121811
0.115181
0.061588
0.052111
-14.662
-14.9025
-15.1931
-15.5193
-15.855
-16.1696
-16.433
-16.62
-16.7176
-16.7269
-16.6645
-16.567
-16.4918
-16.5084
-16.6809
-17.052
-17.6324
-18.3978
-19.2914
-20.2298
-21.1109
-21.8245
-22.2642
-22.3408
-21.9946
-21.2038
-19.9875
-18.4031
-16.538
-14.5
-12.4075
-10.3813
-8.53504
-6.9644
-5.74028
-4.91053
-4.50984
-4.56527
-5.0995
-6.13451
-7.67105
-9.67636
-12.0648
-14.6889
-17.3457
-19.7988
-21.808
-23.1642
-23.7252
-23.4329
-22.3364
-20.5786
-18.3641
-15.9189
-13.4488
-11.1118
-9.008
-7.18571
-5.65527
-4.40234
-3.39851
-2.60896
-1.99775
-1.53123
-1.18031
-0.921762
-0.738635
-0.620562
-0.563072
-0.569388
-0.649974
-0.826297
-1.13337
-1.62853
-2.43877
-3.79722
-5.93172
-8.796
-11.8757
-14.2454
-15.1886
-14.4231
-12.3207
-9.6842
-7.17949
-5.11042
-3.52896
-2.38155
-1.57925
-1.02579
-0.638334
-0.359606
-0.158997
-0.0190507
0.0666015
0.114225
0.118387
0.114693
0.0607324
0.0541592
-14.6852
-14.9078
-15.1673
-15.4525
-15.7433
-16.0168
-16.2499
-16.4239
-16.5292
-16.5678
-16.5545
-16.5193
-16.5071
-16.5706
-16.7585
-17.1029
-17.6112
-18.2627
-19.0102
-19.7838
-20.4984
-21.0618
-21.3853
-21.394
-21.0376
-20.297
-19.1876
-17.7569
-16.0794
-14.2477
-12.3652
-10.5379
-8.86625
-7.43666
-6.31578
-5.55112
-5.17754
-5.22161
-5.70212
-6.63473
-8.01433
-9.8057
-11.9293
-14.254
-16.6028
-18.7715
-20.5506
-21.7619
-22.2785
-22.0475
-21.1055
-19.5692
-17.6101
-15.4206
-13.1806
-11.0328
-9.07261
-7.35117
-5.88533
-4.66838
-3.67919
-2.88921
-2.26756
-1.78448
-1.41383
-1.13437
-0.930562
-0.792852
-0.717204
-0.706843
-0.771629
-0.931491
-1.219
-1.68462
-2.42741
-3.624
-5.45243
-7.88228
-10.5176
-12.6141
-13.579
-13.1309
-11.5058
-9.30531
-7.08824
-5.1682
-3.64744
-2.51293
-1.69955
-1.12455
-0.713165
-0.412604
-0.194193
-0.0407574
0.0543946
0.108582
0.116195
0.115211
0.0602252
0.0568377
-14.6957
-14.9017
-15.1349
-15.3864
-15.641
-15.8814
-16.0904
-16.2541
-16.3656
-16.4273
-16.452
-16.4637
-16.4974
-16.593
-16.7871
-17.1036
-17.5469
-18.0991
-18.7206
-19.3534
-19.9264
-20.363
-20.5892
-20.5425
-20.1806
-19.4872
-18.4746
-17.1827
-15.6745
-14.0298
-12.3384
-10.693
-9.18246
-7.88457
-6.86133
-6.15882
-5.81118
-5.84388
-6.27283
-7.1084
-8.34152
-9.93596
-11.8182
-13.8719
-15.9432
-17.8553
-19.4272
-20.506
-20.9789
-20.798
-19.9896
-18.6484
-16.9171
-14.9591
-12.9308
-10.9605
-9.13779
-7.51518
-6.11437
-4.935
-3.96238
-3.17369
-2.54286
-2.04398
-1.65378
-1.35316
-1.12804
-0.969778
-0.874827
-0.846424
-0.893896
-1.03557
-1.30144
-1.73648
-2.4198
-3.48407
-5.06403
-7.13742
-9.4028
-11.272
-12.2558
-12.0686
-10.8326
-8.99326
-7.025
-5.24108
-3.77726
-2.65276
-1.82494
-1.22534
-0.787802
-0.464076
-0.227278
-0.0601893
0.0443271
0.104808
0.115416
0.116851
0.0600697
0.0601572
-14.6953
-14.886
-15.0969
-15.3206
-15.5459
-15.7598
-15.9493
-16.1044
-16.2202
-16.2992
-16.3522
-16.3985
-16.4647
-16.5812
-16.7749
-17.0632
-17.448
-17.9137
-18.427
-18.9396
-19.3926
-19.7223
-19.8672
-19.7757
-19.4124
-18.7634
-17.8388
-16.6721
-15.3168
-13.8412
-12.3232
-10.8439
-9.48156
-8.30604
-7.37449
-6.73078
-6.4077
-6.42912
-6.80886
-7.55297
-8.64983
-10.0634
-11.7262
-13.5353
-15.3569
-17.0383
-18.4241
-19.3816
-19.8122
-19.6719
-18.979
-17.8094
-16.2813
-14.5329
-12.6996
-10.8956
-9.20466
-7.67879
-6.34325
-5.2029
-4.2486
-3.4628
-2.82396
-2.30987
-1.9002
-1.57802
-1.33082
-1.15094
-1.0354
-0.987456
-1.01595
-1.13766
-1.37984
-1.78279
-2.41138
-3.36632
-4.7478
-6.53769
-8.50595
-10.1896
-11.1821
-11.1976
-10.2732
-8.73591
-6.988
-5.33052
-3.91972
-2.80167
-1.95561
-1.32807
-0.862015
-0.513653
-0.257817
-0.0769067
0.0367991
0.103244
0.116316
0.119828
0.06038
0.0642506
-14.6867
-14.8634
-15.0552
-15.256
-15.4574
-15.6496
-15.8231
-15.9705
-16.0888
-16.1802
-16.2537
-16.3243
-16.4124
-16.5405
-16.7285
-16.9884
-17.3203
-17.7104
-18.1308
-18.5412
-18.8928
-19.133
-19.2111
-19.0842
-18.723
-18.1159
-17.2715
-16.2178
-15.0001
-13.6772
-12.3164
-10.9883
-9.76192
-8.69957
-7.85355
-7.26499
-6.96487
-6.97525
-7.30826
-7.96655
-8.93708
-10.1849
-11.6485
-13.2371
-14.8344
-16.3088
-17.5273
-18.3743
-18.7644
-18.657
-18.0639
-17.0455
-15.699
-14.1407
-12.4871
-10.8393
-9.27442
-7.84317
-6.57302
-5.47293
-4.53858
-3.75712
-3.11127
-2.58242
-2.15317
-1.80885
-1.5386
-1.33586
-1.19829
-1.12918
-1.13689
-1.23675
-1.45326
-1.82238
-2.39848
-3.25994
-4.48147
-6.04773
-7.78101
-9.31384
-10.3023
-10.4721
-9.8011
-8.52484
-6.9776
-5.43877
-4.07666
-2.9608
-2.09214
-1.43287
-0.935604
-0.560955
-0.285326
-0.0904208
0.0322431
0.10424
0.119142
0.124307
0.0611943
0.0691555
-14.6708
-14.835
-15.0103
-15.1919
-15.3735
-15.5478
-15.7078
-15.8484
-15.9673
-16.0669
-16.1542
-16.2409
-16.3424
-16.4752
-16.6537
-16.8857
-17.17
-17.4943
-17.835
-18.1588
-18.4252
-18.591
-18.6143
-18.4599
-18.1037
-17.5363
-16.7648
-15.813
-14.7194
-13.5342
-12.3154
-11.1247
-10.0224
-9.06417
-8.29738
-7.76011
-7.48121
-7.48085
-7.76965
-8.34782
-9.20167
-10.298
-11.5811
-12.9711
-14.3673
-15.6563
-16.7243
-17.4713
-17.8229
-17.7423
-17.2357
-16.3507
-15.1668
-13.7812
-12.2935
-10.7925
-9.34839
-8.00967
-6.80493
-5.74623
-4.83327
-4.05742
-3.40535
-2.86198
-2.41283
-2.04554
-1.75107
-1.524
-1.36277
-1.27071
-1.25573
-1.33179
-1.52071
-1.85427
-2.37856
-3.15628
-4.24438
-5.63024
-7.17446
-8.58099
-9.55879
-9.85161
-9.39782
-8.35645
-6.99604
-5.56899
-4.25069
-3.13197
-2.23552
-1.54009
-1.00834
-0.605537
-0.309237
-0.100164
0.0311614
0.108208
0.124208
0.130527
0.0626268
0.0749979
-14.6496
-14.8025
-14.9634
-15.1288
-15.2939
-15.4532
-15.6016
-15.7355
-15.8535
-15.9575
-16.0532
-16.1495
-16.2577
-16.3899
-16.5559
-16.7607
-17.0021
-17.2691
-17.5416
-17.7921
-17.9873
-18.0915
-18.0705
-17.8956
-17.5469
-17.017
-16.3121
-15.4521
-14.47
-13.4086
-12.3181
-11.2516
-10.2623
-9.39932
-8.70543
-8.21545
-7.95594
-7.94516
-8.19225
-8.69601
-9.44246
-10.4007
-11.5205
-12.732
-13.948
-15.0712
-16.0043
-16.661
-16.9766
-16.9176
-16.4862
-15.7193
-14.6814
-13.4531
-12.1189
-10.7562
-9.42797
-8.17982
-7.04048
-6.02418
-5.1339
-4.36472
-3.70702
-3.14907
-2.67939
-2.28803
-1.96788
-1.71476
-1.52802
-1.41108
-1.3714
-1.42164
-1.58112
-1.87758
-2.35013
-3.04984
-4.02145
-5.25549
-6.64153
-7.94168
-8.9097
-9.31109
-9.05432
-8.23103
-7.0469
-5.72534
-4.44545
-3.31776
-2.38718
-1.65022
-1.08003
-0.646876
-0.328896
-0.105493
0.0341103
0.115594
0.131832
0.138703
0.0647467
0.0818416
-14.6235
-14.7661
-14.9145
-15.0661
-15.217
-15.3634
-15.5015
-15.6288
-15.7444
-15.8499
-15.9497
-16.0503
-16.1601
-16.2876
-16.4394
-16.6182
-16.821
-17.0381
-17.2525
-17.4413
-17.5772
-17.6309
-17.5747
-17.385
-17.0458
-16.5513
-15.907
-15.1298
-14.2478
-13.2977
-12.3224
-11.3681
-10.4811
-9.70487
-9.07761
-8.63087
-8.38884
-8.36793
-8.57591
-9.01079
-9.65876
-10.4914
-11.4639
-12.5152
-13.57
-14.5452
-15.3575
-15.9328
-16.215
-16.1737
-15.808
-15.1462
-14.2397
-13.1552
-11.9635
-10.7314
-9.51469
-8.35536
-7.28143
-6.30847
-5.44201
-4.68037
-4.0173
-3.44441
-2.9532
-2.5363
-2.18867
-1.90748
-1.69312
-1.54918
-1.48271
-1.50512
-1.63337
-1.89149
-2.31243
-2.93814
-3.80474
-4.90638
-6.15689
-7.36895
-8.33427
-8.83912
-8.76751
-8.15065
-7.13486
-5.91319
-4.66568
-3.52148
-2.54889
-1.76373
-1.15048
-0.68434
-0.343536
-0.105671
0.0417248
0.126903
0.142389
0.149107
0.0676772
0.0898141
-14.5942
-14.7275
-14.8648
-15.0042
-15.143
-15.278
-15.4068
-15.5273
-15.6392
-15.7437
-15.844
-15.9449
-16.0524
-16.1722
-16.3086
-16.4627
-16.6309
-16.8046
-16.9694
-17.1065
-17.1933
-17.206
-17.1221
-16.9224
-16.5944
-16.1333
-15.5442
-14.8416
-14.0494
-13.1989
-12.327
-11.4735
-10.6788
-9.98106
-9.41426
-9.00672
-8.78025
-8.74946
-8.92098
-9.2923
-9.85023
-10.569
-11.4088
-12.3165
-13.2274
-14.0707
-14.7752
-15.2774
-15.5289
-15.5023
-15.1944
-14.6263
-13.839
-12.8863
-11.8276
-10.7193
-9.61022
-8.53826
-7.5299
-6.6012
-5.75958
-5.00607
-4.33758
-3.74896
-3.23478
-2.7904
-2.41303
-2.10142
-1.85705
-1.68381
-1.58836
-1.58093
-1.67629
-1.89503
-2.26484
-2.8203
-3.59131
-4.57634
-5.71083
-6.85148
-7.82247
-8.42938
-8.53591
-8.11834
-7.2659
-6.13943
-4.91734
-3.74722
-2.72285
-1.88112
-1.21939
-0.717156
-0.35226
-0.0998544
0.0547152
0.142689
0.156276
0.162002
0.0715157
0.0990009
-14.5614
-14.6861
-14.8136
-14.9423
-15.0702
-15.1951
-15.315
-15.4287
-15.5358
-15.6372
-15.7353
-15.8335
-15.9358
-16.046
-16.1665
-16.2972
-16.4345
-16.5706
-16.6935
-16.7873
-16.8338
-16.8136
-16.7083
-16.5028
-16.187
-15.7574
-15.2187
-14.5832
-13.8713
-13.1099
-12.3304
-11.5672
-10.8554
-10.2284
-9.71605
-9.34374