/*--------------------------------*- C++ -*----------------------------------*\
| =========                 |                                                 |
| \\      /  F ield         | OpenFOAM: The Open Source CFD Toolbox           |
|  \\    /   O peration     | Version:  2.1.1                                 |
|   \\  /    A nd           | Web:      www.OpenFOAM.org                      |
|    \\/     M anipulation  |                                                 |
\*---------------------------------------------------------------------------*/
FoamFile
{
    version     2.0;
    format      ascii;
    class       surfaceScalarField;
    location    "0.125";
    object      phi;
}
// * * * * * * * * * * * * * * * * * * * * * * * * * * * * * * * * * * * * * //

dimensions      [0 3 -1 0 0 0 0];

internalField   nonuniform List<scalar> 
13452
(
4.59972e-05
2.249e-05
2.96596e-05
1.63377e-05
2.11802e-05
8.47932e-06
1.72757e-05
3.90458e-06
1.563e-05
1.64567e-06
1.48185e-05
8.11458e-07
1.43046e-05
5.13925e-07
1.39113e-05
3.93354e-07
1.35783e-05
3.32935e-07
1.32903e-05
2.88068e-07
1.30423e-05
2.47907e-07
1.28306e-05
2.11788e-07
1.26504e-05
1.8012e-07
1.24975e-05
1.52972e-07
1.23675e-05
1.29998e-07
1.22568e-05
1.10652e-07
1.21624e-05
9.43847e-08
1.20817e-05
8.0731e-08
1.20124e-05
6.93389e-08
1.19524e-05
5.99731e-08
1.18999e-05
5.25095e-08
1.1853e-05
4.69185e-08
1.18097e-05
4.32522e-08
1.1768e-05
4.16945e-08
1.17254e-05
4.25863e-08
1.16789e-05
4.65451e-08
1.16249e-05
5.4022e-08
1.15582e-05
6.66525e-08
1.14748e-05
8.33743e-08
1.13604e-05
1.14444e-07
1.12209e-05
1.39514e-07
1.09677e-05
2.532e-07
1.51355e-07
1.08163e-05
7.49116e-05
1.80224e-05
7.04083e-05
2.0841e-05
6.33149e-05
1.55727e-05
5.66568e-05
1.05627e-05
5.15381e-05
6.76438e-06
4.78818e-05
4.46775e-06
4.5262e-05
3.1337e-06
4.33367e-05
2.3187e-06
4.18726e-05
1.79701e-06
4.07199e-05
1.44078e-06
3.97862e-05
1.18161e-06
3.90134e-05
9.84504e-07
3.83637e-05
8.2982e-07
3.78111e-05
7.05575e-07
3.73372e-05
6.03947e-07
3.69283e-05
5.19571e-07
3.6574e-05
4.48667e-07
3.62662e-05
3.88546e-07
3.59982e-05
3.37295e-07
3.57646e-05
2.93585e-07
3.55606e-05
2.56535e-07
3.53819e-05
2.25618e-07
3.52245e-05
2.0061e-07
3.50846e-05
1.81633e-07
3.4958e-05
1.69183e-07
3.48403e-05
1.64191e-07
3.47266e-05
1.67748e-07
3.46111e-05
1.82142e-07
3.44861e-05
2.08416e-07
3.43445e-05
2.56009e-07
3.41687e-05
3.15354e-07
3.39864e-05
4.35478e-07
5.3602e-07
3.36017e-05
7.85206e-05
1.19583e-05
8.23322e-05
1.70294e-05
8.29868e-05
1.49181e-05
8.14672e-05
1.20822e-05
7.89407e-05
9.2909e-06
7.62516e-05
7.1569e-06
7.37318e-05
5.65353e-06
7.14847e-05
4.56571e-06
6.95239e-05
3.7579e-06
6.78245e-05
3.1401e-06
6.63534e-05
2.65276e-06
6.50783e-05
2.25959e-06
6.39708e-05
1.93737e-06
6.30063e-05
1.67005e-06
6.21643e-05
1.44592e-06
6.14275e-05
1.25634e-06
6.07814e-05
1.09476e-06
6.02138e-05
9.56186e-07
5.97142e-05
8.36854e-07
5.92739e-05
7.33923e-07
5.88851e-05
6.45324e-07
5.85411e-05
5.69623e-07
5.82358e-05
5.05955e-07
5.79634e-05
4.54028e-07
5.77184e-05
4.14116e-07
5.74955e-05
3.87115e-07
5.72888e-05
3.74442e-07
5.70922e-05
3.78745e-07
5.68978e-05
4.02829e-07
5.66991e-05
4.54722e-07
5.64787e-05
5.35777e-07
5.62394e-05
6.74777e-07
8.63489e-07
5.59119e-05
7.81461e-05
8.33882e-06
8.1921e-05
1.32546e-05
8.46144e-05
1.22247e-05
8.62333e-05
1.04633e-05
8.6907e-05
8.61725e-06
8.69886e-05
7.07531e-06
8.67211e-05
5.92101e-06
8.62474e-05
5.03942e-06
8.56594e-05
4.34589e-06
8.50132e-05
3.7863e-06
8.43435e-05
3.3224e-06
8.36732e-05
2.92995e-06
8.30177e-05
2.59288e-06
8.23876e-05
2.30006e-06
8.17895e-05
2.04408e-06
8.12267e-05
1.81915e-06
8.07007e-05
1.62068e-06
8.02119e-05
1.44503e-06
7.97594e-05
1.28932e-06
7.9342e-05
1.15137e-06
7.89578e-05
1.02955e-06
7.86046e-05
9.22781e-07
7.82801e-05
8.30471e-07
7.79815e-05
7.52577e-07
7.7706e-05
6.89618e-07
7.74504e-05
6.42755e-07
7.7211e-05
6.13801e-07
7.69841e-05
6.05696e-07
7.67647e-05
6.22177e-07
7.65493e-05
6.70149e-07
7.63294e-05
7.5568e-07
7.61084e-05
8.95763e-07
1.10118e-06
7.58707e-05
7.89908e-05
6.00383e-06
8.15887e-05
1.06567e-05
8.3513e-05
1.03004e-05
8.49535e-05
9.02279e-06
8.59673e-05
7.60342e-06
8.67029e-05
6.33969e-06
8.72626e-05
5.36137e-06
8.76943e-05
4.60773e-06
8.80297e-05
4.01049e-06
8.82901e-05
3.52585e-06
8.84902e-05
3.12236e-06
8.86412e-05
2.77894e-06
8.87514e-05
2.48264e-06
8.88271e-05
2.22439e-06
8.88743e-05
1.99687e-06
8.88986e-05
1.79485e-06
8.89048e-05
1.61451e-06
8.88968e-05
1.45298e-06
8.8878e-05
1.30809e-06
8.88511e-05
1.17827e-06
8.88183e-05
1.06242e-06
8.87811e-05
9.59926e-07
8.8741e-05
8.70621e-07
8.86987e-05
7.94803e-07
8.86551e-05
7.33277e-07
8.86104e-05
6.87421e-07
8.8565e-05
6.59218e-07
8.85191e-05
6.51553e-07
8.84732e-05
6.68134e-07
8.84289e-05
7.14484e-07
8.8388e-05
7.96564e-07
8.83593e-05
9.24412e-07
1.10367e-06
8.83568e-05
8.04624e-05
4.3873e-06
8.25027e-05
8.61652e-06
8.39857e-05
8.81731e-06
8.50412e-05
7.96728e-06
8.57592e-05
6.88548e-06
8.6268e-05
5.83085e-06
8.6669e-05
4.96038e-06
8.70093e-05
4.26746e-06
8.73119e-05
3.70785e-06
8.75884e-05
3.24935e-06
8.78437e-05
2.86706e-06
8.80802e-05
2.54245e-06
8.83001e-05
2.26278e-06
8.85052e-05
2.01926e-06
8.86966e-05
1.80544e-06
8.88751e-05
1.61637e-06
8.90413e-05
1.4483e-06
8.91959e-05
1.29838e-06
8.93396e-05
1.16446e-06
8.94729e-05
1.04497e-06
8.95965e-05
9.38827e-07
8.9711e-05
8.45417e-07
8.98171e-05
7.64533e-07
8.99155e-05
6.964e-07
9.00071e-05
6.41677e-07
9.0093e-05
6.01494e-07
9.01747e-05
5.77452e-07
9.02545e-05
5.71773e-07
9.03355e-05
5.87155e-07
9.04228e-05
6.27206e-07
9.05241e-05
6.95204e-07
9.06527e-05
7.95867e-07
9.26271e-07
9.08301e-05
8.22335e-05
3.25239e-06
8.38918e-05
6.95821e-06
8.51764e-05
7.53268e-06
8.61061e-05
7.03758e-06
8.67431e-05
6.24844e-06
8.71776e-05
5.39635e-06
8.74974e-05
4.64057e-06
8.77519e-05
4.01302e-06
8.79676e-05
3.49214e-06
8.816e-05
3.05699e-06
8.83371e-05
2.68993e-06
8.85032e-05
2.37629e-06
8.86608e-05
2.10523e-06
8.88112e-05
1.86889e-06
8.89552e-05
1.66136e-06
8.90935e-05
1.47807e-06
8.92264e-05
1.31546e-06
8.93539e-05
1.17082e-06
8.94763e-05
1.04206e-06
8.95937e-05
9.27614e-07
8.97061e-05
8.26402e-07
8.98138e-05
7.37739e-07
8.9917e-05
6.61326e-07
9.00162e-05
5.97229e-07
9.0112e-05
5.45873e-07
9.02054e-05
5.08038e-07
9.02981e-05
4.84821e-07
9.03922e-05
4.77666e-07
9.04912e-05
4.88157e-07
9.06003e-05
5.18112e-07
9.07271e-05
5.68377e-07
9.08832e-05
6.39796e-07
7.25744e-07
9.10837e-05
8.42159e-05
2.45204e-06
8.55478e-05
5.6263e-06
8.66668e-05
6.4137e-06
8.75203e-05
6.18409e-06
8.81415e-05
5.62726e-06
8.85833e-05
4.95451e-06
8.89111e-05
4.31273e-06
8.91687e-05
3.75548e-06
8.93816e-05
3.27922e-06
8.9566e-05
2.87263e-06
8.97313e-05
2.52458e-06
8.98832e-05
2.22437e-06
9.00251e-05
1.96333e-06
9.01592e-05
1.7348e-06
9.0287e-05
1.53363e-06
9.04093e-05
1.35572e-06
9.05269e-05
1.19783e-06
9.06403e-05
1.05742e-06
9.07499e-05
9.32517e-07
9.08558e-05
8.21629e-07
9.09586e-05
7.23676e-07
9.10584e-05
6.37942e-07
9.11557e-05
5.6404e-07
9.1251e-05
5.01885e-07
9.13452e-05
4.51665e-07
9.14394e-05
4.13806e-07
9.15354e-05
3.88905e-07
9.16353e-05
3.77675e-07
9.17428e-05
3.80698e-07
9.18626e-05
3.98327e-07
9.20013e-05
4.29664e-07
9.21681e-05
4.72997e-07
5.20791e-07
9.23731e-05
8.63713e-05
1.8795e-06
8.74384e-05
4.55914e-06
8.84067e-05
5.44541e-06
8.91802e-05
5.41065e-06
8.9772e-05
5.03541e-06
9.0213e-05
4.51354e-06
9.05503e-05
3.97544e-06
9.08204e-05
3.48536e-06
9.10459e-05
3.0537e-06
9.12414e-05
2.67713e-06
9.14162e-05
2.34982e-06
9.15759e-05
2.06466e-06
9.17242e-05
1.81499e-06
9.18636e-05
1.59539e-06
9.19958e-05
1.40146e-06
9.21219e-05
1.22959e-06
9.22429e-05
1.07687e-06
9.23593e-05
9.40975e-07
9.24718e-05
8.20057e-07
9.25807e-05
7.1269e-07
9.26866e-05
6.17806e-07
9.27899e-05
5.34647e-07
9.28912e-05
4.62732e-07
9.29913e-05
4.01811e-07
9.30911e-05
3.51825e-07
9.31921e-05
3.12854e-07
9.3296e-05
2.85015e-07
9.34053e-05
2.68369e-07
9.35233e-05
2.6266e-07
9.36545e-05
2.67154e-07
9.38043e-05
2.79843e-07
9.39797e-05
2.97641e-07
3.13319e-07
9.41871e-05
8.86667e-05
1.46275e-06
8.95218e-05
3.70406e-06
9.03566e-05
4.61068e-06
9.10544e-05
4.71278e-06
9.16126e-05
4.47721e-06
9.20464e-05
4.07974e-06
9.23878e-05
3.63405e-06
9.2666e-05
3.20721e-06
9.29004e-05
2.81922e-06
9.31045e-05
2.47309e-06
9.3287e-05
2.16731e-06
9.34537e-05
1.8979e-06
9.36085e-05
1.6602e-06
9.37539e-05
1.45e-06
9.38917e-05
1.26367e-06
9.40232e-05
1.09813e-06
9.41493e-05
9.50791e-07
9.42707e-05
8.19543e-07
9.43881e-05
7.02663e-07
9.4502e-05
5.98783e-07
9.4613e-05
5.06835e-07
9.47216e-05
4.26011e-07
9.48286e-05
3.55723e-07
9.49349e-05
2.95552e-07
9.50415e-05
2.45202e-07
9.51499e-05
2.04423e-07
9.5262e-05
1.72909e-07
9.53802e-05
1.50181e-07
9.55075e-05
1.35353e-07
9.56477e-05
1.26967e-07
9.58051e-05
1.22423e-07
9.59847e-05
1.18089e-07
1.07551e-07
9.61904e-05
9.10805e-05
1.15357e-06
9.17676e-05
3.017e-06
9.24861e-05
3.89211e-06
9.3115e-05
4.08386e-06
9.36387e-05
3.95361e-06
9.40613e-05
3.65706e-06
9.44032e-05
3.29214e-06
9.46869e-05
2.92358e-06
9.49288e-05
2.5773e-06
9.51407e-05
2.26118e-06
9.53308e-05
1.97718e-06
9.55047e-05
1.72399e-06
9.56662e-05
1.49875e-06
9.58178e-05
1.29839e-06
9.59614e-05
1.12005e-06
9.60984e-05
9.61138e-07
9.62298e-05
8.19409e-07
9.63564e-05
6.9295e-07
9.64789e-05
5.80166e-07
9.65979e-05
4.79741e-07
9.67142e-05
3.9061e-07
9.68283e-05
3.11911e-07
9.6941e-05
2.42953e-07
9.70534e-05
1.83161e-07
9.71666e-05
1.32016e-07
9.7282e-05
8.89849e-08
9.74015e-05
5.34172e-08
9.75273e-05
2.44349e-08
9.76619e-05
7.25984e-10
9.78084e-05
-1.95668e-08
9.79701e-05
-3.92506e-08
9.81502e-05
-6.19702e-08
-9.31286e-08
9.83509e-05
9.35988e-05
9.19373e-07
9.41537e-05
2.46217e-06
9.47715e-05
3.27423e-06
9.53372e-05
3.51825e-06
9.5826e-05
3.46479e-06
9.6235e-05
3.24805e-06
9.65753e-05
2.95182e-06
9.68632e-05
2.63567e-06
9.71121e-05
2.32842e-06
9.73319e-05
2.04141e-06
9.75299e-05
1.77919e-06
9.77113e-05
1.54254e-06
9.78799e-05
1.33018e-06
9.80382e-05
1.1401e-06
9.81881e-05
9.70126e-07
9.8331e-05
8.1817e-07
9.84682e-05
6.82299e-07
9.86003e-05
5.60809e-07
9.87282e-05
4.52227e-07
9.88527e-05
3.55295e-07
9.89743e-05
2.68946e-07
9.9094e-05
1.92272e-07
9.92125e-05
1.24488e-07
9.93307e-05
6.4875e-08
9.945e-05
1.27312e-08
9.95717e-05
-3.26974e-08
9.96974e-05
-7.23153e-08
9.98291e-05
-1.07271e-07
9.9969e-05
-1.39107e-07
0.000100119
-1.69848e-07
0.000100282
-2.02237e-07
0.00010046
-2.39627e-07
-2.86399e-07
0.000100653
9.62133e-05
7.38204e-07
9.66645e-05
2.01097e-06
9.7196e-05
2.74269e-06
9.77042e-05
3.01001e-06
9.81593e-05
3.00974e-06
9.85529e-05
2.85445e-06
9.88894e-05
2.61527e-06
9.91798e-05
2.3453e-06
9.94343e-05
2.07389e-06
9.96612e-05
1.81452e-06
9.98669e-05
1.57356e-06
0.000100056
1.35345e-06
0.000100232
1.15419e-06
0.000100397
9.7468e-07
0.000100554
8.13408e-07
0.000100704
6.68718e-07
0.000100847
5.38981e-07
0.000100985
4.2269e-07
0.000101119
3.18486e-07
0.000101249
2.25165e-07
0.000101376
1.41665e-07
0.000101501
6.70361e-08
0.000101625
4.11625e-10
0.000101749
-5.90357e-08
0.000101874
-1.12147e-07
0.000102001
-1.59838e-07
0.000102132
-2.03179e-07
0.000102268
-2.43468e-07
0.000102412
-2.8233e-07
0.000102564
-3.21774e-07
0.000102726
-3.64311e-07
0.000102899
-4.12846e-07
-4.70811e-07
0.000103083
9.89188e-05
5.95091e-07
9.92891e-05
1.64076e-06
9.97473e-05
2.28442e-06
0.000100204
2.55331e-06
0.000100627
2.58697e-06
0.000101004
2.47732e-06
0.000101335
2.28425e-06
0.000101626
2.05396e-06
0.000101885
1.81473e-06
0.000102119
1.58106e-06
0.000102332
1.36054e-06
0.000102529
1.15672e-06
0.000102712
9.70626e-07
0.000102885
8.01932e-07
0.000103049
6.49662e-07
0.000103205
5.12553e-07
0.000103355
3.89251e-07
0.000103499
2.78427e-07
0.000103639
1.78831e-07
0.000103774
8.93124e-08
0.000103907
8.81458e-09
0.000104038
-6.36382e-08
0.000104167
-1.28969e-07
0.000104296
-1.88086e-07
0.000104426
-2.41927e-07
0.000104558
-2.91508e-07
0.000104693
-3.37985e-07
0.000104832
-3.82703e-07
0.000104977
-4.2726e-07
0.000105129
-4.73527e-07
0.000105288
-5.23694e-07
0.000105455
-5.80171e-07
-6.45569e-07
0.00010563
0.000101713
4.7972e-07
0.00010202
1.33375e-06
0.000102417
1.88773e-06
0.000102828
2.14237e-06
0.00010322
2.19433e-06
0.000103581
2.11688e-06
0.000103905
1.95988e-06
0.000104196
1.76285e-06
0.000104459
1.55194e-06
0.000104698
1.34179e-06
0.000104918
1.14057e-06
0.000105122
9.52576e-07
0.000105314
7.79565e-07
0.000105494
6.21801e-07
0.000105665
4.78761e-07
0.000105828
3.49515e-07
0.000105984
2.32945e-07
0.000106134
1.27879e-07
0.00010628
3.31666e-08
0.000106422
-5.22946e-08
0.00010656
-1.29545e-07
0.000106696
-1.99575e-07
0.00010683
-2.63343e-07
0.000106964
-3.21809e-07
0.000107098
-3.75962e-07
0.000107234
-4.26866e-07
0.000107371
-4.75692e-07
0.000107512
-5.23757e-07
0.000107658
-5.72552e-07
0.000107808
-6.2374e-07
0.000107963
-6.79159e-07
0.000108124
-7.4073e-07
-8.10373e-07
0.000108289
0.000104595
3.84873e-07
0.000104853
1.07608e-06
0.000105198
1.54231e-06
0.000105569
1.77153e-06
0.000105934
1.8293e-06
0.000106278
1.77271e-06
0.000106595
1.64281e-06
0.000106885
1.47288e-06
0.000107151
1.28634e-06
0.000107396
1.09729e-06
0.000107622
9.14019e-07
0.000107833
7.41188e-07
0.000108032
5.81027e-07
0.00010822
4.34226e-07
0.000108398
3.00606e-07
0.000108568
1.795e-07
0.000108731
6.99789e-08
0.000108888
-2.89959e-08
0.000109039
-1.18491e-07
0.000109187
-1.99559e-07
0.00010933
-2.73222e-07
0.000109471
-3.40472e-07
0.00010961
-4.02282e-07
0.000109748
-4.59632e-07
0.000109885
-5.13528e-07
0.000110024
-5.6503e-07
0.000110163
-6.15276e-07
0.000110305
-6.65498e-07
0.000110449
-7.17033e-07
0.000110597
-7.71304e-07
0.000110748
-8.29801e-07
0.000110901
-8.94003e-07
-9.65276e-07
0.000111056
0.000107565
3.05403e-07
0.000107785
8.56874e-07
0.000108088
1.23916e-06
0.000108424
1.43534e-06
0.000108764
1.48903e-06
0.000109093
1.44386e-06
0.000109403
1.33313e-06
0.000109691
1.18452e-06
0.000109959
1.01845e-06
0.000110208
8.48008e-07
0.000110441
6.81191e-07
0.00011066
5.22736e-07
0.000110866
3.75093e-07
0.000111061
2.3922e-07
0.000111246
1.15171e-07
0.000111423
2.4632e-09
0.000111593
-9.96842e-08
0.000111756
-1.92206e-07
0.000111914
-2.76099e-07
0.000112066
-3.52373e-07
0.000112215
-4.22025e-07
0.000112361
-4.8604e-07
0.000112504
-5.45387e-07
0.000112645
-6.01039e-07
0.000112786
-6.53986e-07
0.000112926
-7.05249e-07
0.000113067
-7.55894e-07
0.000113208
-8.07036e-07
0.000113351
-8.59831e-07
0.000113495
-9.1546e-07
0.00011364
-9.7509e-07
0.000113786
-1.03981e-06
-1.11056e-06
0.000113931
0.000110625
2.37556e-07
0.000110814
6.67622e-07
0.000111083
9.70487e-07
0.000111389
1.12861e-06
0.000111708
1.1705e-06
0.000112023
1.12889e-06
0.000112326
1.03045e-06
0.000112612
8.97848e-07
0.000112882
7.48526e-07
0.000113136
5.94188e-07
0.000113375
4.42272e-07
0.0001136
2.97314e-07
0.000113814
1.61787e-07
0.000114016
3.67582e-08
0.000114209
-7.75952e-08
0.000114393
-1.81638e-07
0.000114569
-2.76059e-07
0.000114739
-3.61718e-07
0.000114902
-4.39562e-07
0.00011506
-5.10563e-07
0.000115214
-5.75697e-07
0.000115364
-6.35925e-07
0.000115511
-6.92201e-07
0.000115655
-7.4547e-07
0.000115798
-7.9668e-07
0.00011594
-8.46789e-07
0.00011608
-8.96765e-07
0.000116221
-9.47587e-07
0.000116361
-1.00023e-06
0.000116502
-1.05564e-06
0.000116641
-1.11469e-06
0.00011678
-1.17818e-06
-1.24669e-06
0.000116916
0.000113775
1.7853e-07
0.000113941
5.01584e-07
0.000114181
7.29553e-07
0.000114464
8.46412e-07
0.000114764
8.705e-07
0.000115067
8.25993e-07
0.000115363
7.33901e-07
0.000115648
6.12544e-07
0.00011592
4.76465e-07
0.000116179
3.35819e-07
0.000116424
1.97247e-07
0.000116656
6.4883e-08
0.000116877
-5.89604e-08
0.000117087
-1.73246e-07
0.000117287
-2.77774e-07
0.000117478
-3.7287e-07
0.000117662
-4.59175e-07
0.000117837
-5.37516e-07
0.000118007
-6.08803e-07
0.00011817
-6.73985e-07
0.000118328
-7.34011e-07
0.000118482
-7.8982e-07
0.000118632
-8.42332e-07
0.000118779
-8.92452e-07
0.000118924
-9.41069e-07
0.000119066
-9.89059e-07
0.000119207
-1.03728e-06
0.000119346
-1.08658e-06
0.000119483
-1.13773e-06
0.000119619
-1.1915e-06
0.000119753
-1.24851e-06
0.000119884
-1.30928e-06
-1.37416e-06
0.000120011
0.000117017
1.26174e-07
0.000117165
3.53355e-07
0.000117384
5.10526e-07
0.000117646
5.84109e-07
0.000117931
5.85739e-07
0.000118224
5.33013e-07
0.000118516
4.42214e-07
0.0001188
3.27882e-07
0.000119075
2.01855e-07
0.000119338
7.26441e-08
0.000119589
-5.40677e-08
0.000119829
-1.74711e-07
0.000120057
-2.87283e-07
0.000120275
-3.90905e-07
0.000120483
-4.85451e-07
0.000120681
-5.71275e-07
0.000120871
-6.4903e-07
0.000121053
-7.19536e-07
0.000121228
-7.83693e-07
0.000121396
-8.42435e-07
0.000121559
-8.96689e-07
0.000121717
-9.47367e-07
0.00012187
-9.95351e-07
0.000122019
-1.04149e-06
0.000122164
-1.08661e-06
0.000122307
-1.1315e-06
0.000122446
-1.1769e-06
0.000122583
-1.22351e-06
0.000122717
-1.27197e-06
0.000122849
-1.32282e-06
0.000122977
-1.37653e-06
0.000123101
-1.4334e-06
-1.4936e-06
0.00012322
0.000120353
7.87873e-08
0.000120488
2.18517e-07
0.00012069
3.08299e-07
0.000120937
3.3729e-07
0.00012121
3.1281e-07
0.000121496
2.47489e-07
0.000121784
1.53693e-07
0.000122069
4.27055e-08
0.000122347
-7.61302e-08
0.000122616
-1.95961e-07
0.000122874
-3.12173e-07
0.000123121
-4.21891e-07
0.000123358
-5.23549e-07
0.000123583
-6.16534e-07
0.000123799
-7.00884e-07
0.000124004
-7.77055e-07
0.000124201
-8.45755e-07
0.000124389
-9.07836e-07
0.00012457
-9.64212e-07
0.000124743
-1.01581e-06
0.00012491
-1.06355e-06
0.000125071
-1.10831e-06
0.000125227
-1.15094e-06
0.000125377
-1.19222e-06
0.000125524
-1.23291e-06
0.000125666
-1.2737e-06
0.000125804
-1.31523e-06
0.000125939
-1.35806e-06
0.00012607
-1.4027e-06
0.000126196
-1.44953e-06
0.000126319
-1.49885e-06
0.000126436
-1.55081e-06
-1.60545e-06
0.000126548
0.000123787
3.49798e-08
0.000123912
9.33637e-08
0.000124102
1.18324e-07
0.000124338
1.01732e-07
0.000124602
4.8207e-08
0.000124883
-3.33284e-08
0.000125171
-1.33724e-07
0.000125458
-2.44512e-07
0.00012574
-3.58625e-07
0.000126015
-4.70856e-07
0.000126281
-5.77732e-07
0.000126536
-6.77172e-07
0.000126781
-7.68152e-07
0.000127014
-8.50427e-07
0.000127238
-9.2428e-07
0.000127451
-9.90328e-07
0.000127655
-1.04939e-06
0.000127849
-1.10237e-06
0.000128035
-1.15024e-06
0.000128213
-1.19393e-06
0.000128384
-1.23434e-06
0.000128548
-1.27234e-06
0.000128706
-1.30872e-06
0.000128858
-1.34423e-06
0.000129005
-1.37954e-06
0.000129146
-1.41526e-06
0.000129283
-1.45191e-06
0.000129415
-1.48995e-06
0.000129542
-1.52976e-06
0.000129664
-1.5716e-06
0.000129781
-1.61563e-06
0.000129892
-1.66192e-06
-1.71039e-06
0.000129997
0.00012732
-6.43513e-09
0.000127439
-2.53265e-08
0.000127621
-6.35657e-08
0.000127849
-1.26706e-07
0.000128109
-2.11756e-07
0.000128388
-3.12552e-07
0.000128677
-4.22589e-07
0.000128968
-5.35843e-07
0.000129257
-6.47331e-07
0.00012954
-7.53454e-07
0.000129814
-8.51932e-07
0.000130078
-9.41558e-07
0.000130332
-1.02194e-06
0.000130575
-1.0933e-06
0.000130807
-1.15622e-06
0.000131028
-1.21155e-06
0.000131239
-1.26026e-06
0.00013144
-1.30337e-06
0.000131632
-1.34188e-06
0.000131814
-1.37678e-06
0.000131989
-1.40896e-06
0.000132156
-1.43928e-06
0.000132316
-1.46848e-06
0.000132469
-1.49726e-06
0.000132615
-1.52622e-06
0.000132756
-1.55589e-06
0.000132891
-1.58669e-06
0.00013302
-1.61899e-06
0.000133143
-1.65305e-06
0.000133261
-1.68902e-06
0.000133372
-1.72699e-06
0.000133477
-1.7669e-06
-1.80862e-06
0.000133575
0.000130955
-4.65242e-08
0.00013107
-1.40471e-07
0.000131248
-2.41303e-07
0.000131473
-3.52139e-07
0.000131732
-4.70924e-07
0.000132013
-5.93561e-07
0.000132307
-7.15748e-07
0.000132604
-8.33618e-07
0.000132901
-9.4413e-07
0.000133193
-1.04526e-06
0.000133477
-1.13597e-06
0.000133751
-1.21599e-06
0.000134015
-1.28565e-06
0.000134268
-1.34569e-06
0.000134508
-1.39709e-06
0.000134738
-1.44097e-06
0.000134956
-1.47851e-06
0.000135164
-1.51086e-06
0.000135361
-1.5391e-06
0.000135548
-1.56425e-06
0.000135727
-1.58724e-06
0.000135896
-1.60889e-06
0.000136058
-1.62994e-06
0.000136211
-1.65102e-06
0.000136358
-1.67267e-06
0.000136497
-1.69533e-06
0.00013663
-1.71937e-06
0.000136756
-1.74504e-06
0.000136875
-1.77252e-06
0.000136988
-1.80189e-06
0.000137095
-1.83315e-06
0.000137194
-1.86621e-06
-1.90087e-06
0.000137286
0.000134695
-8.6284e-08
0.000134809
-2.54877e-07
0.000134987
-4.18823e-07
0.000135214
-5.78922e-07
0.000135476
-7.33622e-07
0.000135763
-8.80417e-07
0.000136064
-1.01689e-06
0.000136372
-1.14112e-06
0.00013668
-1.25191e-06
0.000136983
-1.3488e-06
0.000137279
-1.43201e-06
0.000137565
-1.50231e-06
0.000137841
-1.56082e-06
0.000138104
-1.60887e-06
0.000138355
-1.64792e-06
0.000138593
-1.6794e-06
0.000138819
-1.70474e-06
0.000139034
-1.72525e-06
0.000139237
-1.74212e-06
0.000139429
-1.75644e-06
0.000139611
-1.76915e-06
0.000139783
-1.78108e-06
0.000139946
-1.79293e-06
0.0001401
-1.80529e-06
0.000140246
-1.81864e-06
0.000140384
-1.83335e-06
0.000140515
-1.84972e-06
0.000140638
-1.86792e-06
0.000140753
-1.88806e-06
0.000140861
-1.91014e-06
0.000140962
-1.93409e-06
0.000141056
-1.95976e-06
-1.98692e-06
0.000141142
0.000138543
-1.26717e-07
0.000138659
-3.71356e-07
0.00013884
-6.00122e-07
0.000139073
-8.11542e-07
0.000139344
-1.00432e-06
0.000139641
-1.17727e-06
0.000139953
-1.32968e-06
0.000140274
-1.46148e-06
0.000140595
-1.57328e-06
0.000140913
-1.66621e-06
0.000141222
-1.74182e-06
0.000141522
-1.80196e-06
0.00014181
-1.84861e-06
0.000142085
-1.88378e-06
0.000142346
-1.90943e-06
0.000142594
-1.92739e-06
0.000142829
-1.93935e-06
0.00014305
-1.94681e-06
0.000143259
-1.95112e-06
0.000143456
-1.95342e-06
0.000143642
-1.95469e-06
0.000143817
-1.95577e-06
0.000143981
-1.95733e-06
0.000144136
-1.95993e-06
0.000144281
-1.96399e-06
0.000144417
-1.96983e-06
0.000144545
-1.97766e-06
0.000144665
-1.98761e-06
0.000144777
-1.9997e-06
0.00014488
-2.0139e-06
0.000144976
-2.03009e-06
0.000145065
-2.04809e-06
-2.06765e-06
0.000145146
0.000142501
-1.68937e-07
0.000142623
-4.93054e-07
0.000142813
-7.89838e-07
0.000143057
-1.0555e-06
0.000143341
-1.28888e-06
0.000143654
-1.49e-06
0.000143984
-1.65975e-06
0.000144323
-1.79992e-06
0.000144662
-1.91294e-06
0.000144998
-2.00161e-06
0.000145325
-2.0689e-06
0.000145641
-2.11785e-06
0.000145943
-2.15139e-06
0.000146232
-2.17229e-06
0.000146506
-2.18306e-06
0.000146764
-2.18599e-06
0.000147008
-2.18307e-06
0.000147237
-2.17602e-06
0.000147452
-2.16634e-06
0.000147654
-2.15525e-06
0.000147843
-2.14378e-06
0.00014802
-2.13277e-06
0.000148186
-2.12288e-06
0.000148341
-2.11463e-06
0.000148485
-2.10839e-06
0.00014862
-2.10442e-06
0.000148745
-2.10287e-06
0.000148861
-2.10379e-06
0.000148968
-2.10718e-06
0.000149067
-2.11291e-06
0.000149158
-2.12082e-06
0.000149241
-2.13069e-06
-2.1422e-06
0.000149315
0.000146574
-2.14116e-07
0.000146705
-6.23293e-07
0.000146908
-9.92687e-07
0.000147168
-1.31607e-06
0.000147472
-1.59257e-06
0.000147805
-1.82352e-06
0.000148157
-2.01151e-06
0.000148518
-2.1603e-06
0.000148879
-2.27426e-06
0.000149235
-2.35793e-06
0.000149582
-2.41583e-06
0.000149916
-2.45224e-06
0.000150236
-2.47114e-06
0.00015054
-2.47609e-06
0.000150827
-2.47027e-06
0.000151098
-2.45643e-06
0.000151352
-2.4369e-06
0.000151589
-2.41368e-06
0.000151811
-2.3884e-06
0.000152018
-2.36239e-06
0.000152211
-2.33675e-06
0.000152391
-2.31231e-06
0.000152558
-2.28973e-06
0.000152713
-2.26947e-06
0.000152856
-2.25188e-06
0.000152989
-2.23714e-06
0.000153111
-2.22537e-06
0.000153224
-2.21654e-06
0.000153327
-2.21059e-06
0.000153422
-2.20737e-06
0.000153508
-2.20667e-06
0.000153585
-2.20826e-06
-2.21182e-06
0.000153655
0.000150766
-2.6398e-07
0.000150909
-7.66921e-07
0.000151132
-1.21597e-06
0.000151419
-1.60218e-06
0.000151751
-1.92512e-06
0.000152115
-2.18763e-06
0.000152498
-2.39426e-06
0.000152889
-2.55099e-06
0.000153279
-2.66444e-06
0.000153662
-2.74118e-06
0.000154034
-2.78742e-06
0.00015439
-2.80887e-06
0.00015473
-2.81064e-06
0.000155051
-2.79722e-06
0.000155353
-2.77244e-06
0.000155636
-2.73957e-06
0.000155901
-2.70132e-06
0.000156147
-2.65993e-06
0.000156376
-2.61721e-06
0.000156588
-2.57459e-06
0.000156784
-2.5332e-06
0.000156966
-2.4939e-06
0.000157134
-2.45731e-06
0.000157288
-2.42386e-06
0.00015743
-2.39385e-06
0.00015756
-2.3674e-06
0.000157679
-2.34455e-06
0.000157788
-2.32524e-06
0.000157887
-2.30933e-06
0.000157976
-2.2966e-06
0.000158056
-2.2868e-06
0.000158128
-2.27964e-06
-2.27471e-06
0.00015819
0.000155078
-3.19935e-07
0.000155239
-9.28073e-07
0.000155488
-1.46511e-06
0.000155805
-1.91944e-06
0.000156172
-2.29195e-06
0.000156572
-2.58758e-06
0.000156991
-2.81313e-06
0.000157417
-2.97712e-06
0.000157841
-3.08862e-06
0.000158256
-3.15638e-06
0.000158657
-3.18849e-06
0.000159041
-3.19225e-06
0.000159404
-3.17404e-06
0.000159746
-3.13933e-06
0.000160067
-3.09275e-06
0.000160365
-3.03812e-06
0.000160642
-2.97857e-06
0.000160899
-2.91661e-06
0.000161136
-2.85422e-06
0.000161354
-2.79297e-06
0.000161555
-2.734e-06
0.000161739
-2.67817e-06
0.000161908
-2.62609e-06
0.000162063
-2.57814e-06
0.000162203
-2.53454e-06
0.000162331
-2.49537e-06
0.000162447
-2.46059e-06
0.000162552
-2.43007e-06
0.000162646
-2.40362e-06
0.000162731
-2.38098e-06
0.000162806
-2.36185e-06
0.000162872
-2.34593e-06
-2.33279e-06
0.00016293
0.000159517
-3.86221e-07
0.000159707
-1.11773e-06
0.000159998
-1.75608e-06
0.000160364
-2.28639e-06
0.000160784
-2.71192e-06
0.000161238
-3.04068e-06
0.000161707
-3.2828e-06
0.00016218
-3.45034e-06
0.000162647
-3.55555e-06
0.000163101
-3.60979e-06
0.000163536
-3.62329e-06
0.000163948
-3.60507e-06
0.000164337
-3.56284e-06
0.000164701
-3.50313e-06
0.00016504
-3.43132e-06
0.000165353
-3.35179e-06
0.000165643
-3.26809e-06
0.000165909
-3.18297e-06
0.000166153
-3.0986e-06
0.000166377
-3.0166e-06
0.000166581
-2.93817e-06
0.000166767
-2.86414e-06
0.000166936
-2.79507e-06
0.000167089
-2.7313e-06
0.000167228
-2.67295e-06
0.000167352
-2.62004e-06
0.000167464
-2.57245e-06
0.000167564
-2.52997e-06
0.000167653
-2.49235e-06
0.000167731
-2.45924e-06
0.0001678
-2.43027e-06
0.000167859
-2.40506e-06
-2.38306e-06
0.000167909
0.000164082
-4.62596e-07
0.000164303
-1.33795e-06
0.000164638
-2.09092e-06
0.000165057
-2.70549e-06
0.000165534
-3.18942e-06
0.000166048
-3.55408e-06
0.000166578
-3.81296e-06
0.00016711
-3.98212e-06
0.000167632
-4.07755e-06
0.000168135
-4.1137e-06
0.000168616
-4.10342e-06
0.000169068
-4.05782e-06
0.000169492
-3.98624e-06
0.000169885
-3.89642e-06
0.000170248
-3.79462e-06
0.000170582
-3.68587e-06
0.000170888
-3.5741e-06
0.000171168
-3.46237e-06
0.000171422
-3.35295e-06
0.000171653
-3.24754e-06
0.000171862
-3.14731e-06
0.000172051
-3.05305e-06
0.000172221
-2.96525e-06
0.000172374
-2.88413e-06
0.000172511
-2.80975e-06
0.000172633
-2.74201e-06
0.000172741
-2.6807e-06
0.000172837
-2.62554e-06
0.000172921
-2.57618e-06
0.000172994
-2.53225e-06
0.000173057
-2.49332e-06
0.000173111
-2.45898e-06
-2.42864e-06
0.000173156
0.000168796
-5.66371e-07
0.000169082
-1.62455e-06
0.000169505
-2.51361e-06
0.000170018
-3.21853e-06
0.000170587
-3.75819e-06
0.000171184
-4.15147e-06
0.000171789
-4.41819e-06
0.000172387
-4.58019e-06
0.000172967
-4.65769e-06
0.000173522
-4.66837e-06
0.000174046
-4.62764e-06
0.000174537
-4.5486e-06
0.000174993
-4.44216e-06
0.000175414
-4.31718e-06
0.0001758
-4.18079e-06
0.000176153
-4.0386e-06
0.000176474
-3.89495e-06
0.000176764
-3.75312e-06
0.000177027
-3.61553e-06
0.000177263
-3.4839e-06
0.000177475
-3.35938e-06
0.000177665
-3.24269e-06
0.000177834
-3.13421e-06
0.000177984
-3.03405e-06
0.000178116
-2.94215e-06
0.000178233
-2.85828e-06
0.000178334
-2.78214e-06
0.000178422
-2.71332e-06
0.000178497
-2.65141e-06
0.000178561
-2.59591e-06
0.000178614
-2.54632e-06
0.000178657
-2.50212e-06
-2.46257e-06
0.000178691
0.000173624
-6.78617e-07
0.000173956
-1.95745e-06
0.000174451
-3.00808e-06
0.000175057
-3.82427e-06
0.000175733
-4.4345e-06
0.000176443
-4.86196e-06
0.000177159
-5.13409e-06
0.00017786
-5.28131e-06
0.000178533
-5.3303e-06
0.000179168
-5.30353e-06
0.000179761
-5.22013e-06
0.000180308
-5.09598e-06
0.00018081
-4.94391e-06
0.000181267
-4.77414e-06
0.000181681
-4.5947e-06
0.000182054
-4.41177e-06
0.000182389
-4.22999e-06
0.000182689
-4.05279e-06
0.000182956
-3.88259e-06
0.000183193
-3.72102e-06
0.000183403
-3.56912e-06
0.000183587
-3.42743e-06
0.000183749
-3.29614e-06
0.00018389
-3.17519e-06
0.000184013
-3.06432e-06
0.000184117
-2.96315e-06
0.000184206
-2.87122e-06
0.000184281
-2.78802e-06
0.000184343
-2.71304e-06
0.000184393
-2.64575e-06
0.000184432
-2.58559e-06
0.000184462
-2.53207e-06
-2.48432e-06
0.000184484
0.000178683
-8.93137e-07
0.000179193
-2.46783e-06
0.00017987
-3.68415e-06
0.000180632
-4.58641e-06
0.000181438
-5.24088e-06
0.000182256
-5.68005e-06
0.000183062
-5.93985e-06
0.000183839
-6.05821e-06
0.000184575
-6.06662e-06
0.000185263
-5.99157e-06
0.000185899
-5.85572e-06
0.00018648
-5.67762e-06
0.000187009
-5.47207e-06
0.000187485
-5.25069e-06
0.000187913
-5.02242e-06
0.000188295
-4.79399e-06
0.000188635
-4.57029e-06
0.000188937
-4.3548e-06
0.000189205
-4.14984e-06
0.00018944
-3.95687e-06
0.000189648
-3.77668e-06
0.00018983
-3.60955e-06
0.000189989
-3.45538e-06
0.000190128
-3.31383e-06
0.000190248
-3.18441e-06
0.000190351
-3.06648e-06
0.00019044
-2.95941e-06
0.000190514
-2.86253e-06
0.000190576
-2.77521e-06
0.000190627
-2.69684e-06
0.000190669
-2.62689e-06
0.000190701
-2.56482e-06
-2.50969e-06
0.000190727
0.000183747
-1.07231e-06
0.00018434
-3.06165e-06
0.000185177
-4.52048e-06
0.000186152
-5.56172e-06
0.000187184
-6.27295e-06
0.000188209
-6.70535e-06
0.000189194
-6.92448e-06
0.000190123
-6.98723e-06
0.00019099
-6.93404e-06
0.000191796
-6.79666e-06
0.000192541
-6.60068e-06
0.000193229
-6.36586e-06
0.000193864
-6.10736e-06
0.00019445
-5.8368e-06
0.000194991
-5.56291e-06
0.000195489
-5.29216e-06
0.000195948
-5.02925e-06
0.00019637
-4.77744e-06
0.000196759
-4.5389e-06
0.000197118
-4.31492e-06
0.000197447
-4.10612e-06
0.00019775
-3.91262e-06
0.000198029
-3.73416e-06
0.000198285
-3.57022e-06
0.000198521
-3.42012e-06
0.000198738
-3.28308e-06
0.000198936
-3.15831e-06
0.000199119
-3.04506e-06
0.000199286
-2.94268e-06
0.00019944
-2.85061e-06
0.000199582
-2.76868e-06
0.000199714
-2.69645e-06
-2.63422e-06
0.000199838
0.000189418
-1.67881e-06
0.000190409
-4.05196e-06
0.000191494
-5.60578e-06
0.000192658
-6.7252e-06
0.000193906
-7.52115e-06
0.000195218
-8.01718e-06
0.000196573
-8.27958e-06
0.000197948
-8.36227e-06
0.000199317