/*--------------------------------*- C++ -*----------------------------------*\
| =========                 |                                                 |
| \\      /  F ield         | OpenFOAM: The Open Source CFD Toolbox           |
|  \\    /   O peration     | Version:  2.1.1                                 |
|   \\  /    A nd           | Web:      www.OpenFOAM.org                      |
|    \\/     M anipulation  |                                                 |
\*---------------------------------------------------------------------------*/
FoamFile
{
    version     2.0;
    format      ascii;
    class       volVectorField;
    location    "0.125";
    object      U;
}
// * * * * * * * * * * * * * * * * * * * * * * * * * * * * * * * * * * * * * //

dimensions      [0 1 -1 0 0 0 0];

internalField   nonuniform List<vector> 
6820
(
(6.37599 0.50375 0)
(4.42424 0.286877 0)
(2.97336 0.0202196 0)
(2.23402 -0.0618973 0)
(1.96833 -0.0599698 0)
(1.84144 -0.0345419 0)
(1.76649 -0.0151219 0)
(1.71437 -0.00473604 0)
(1.67103 -2.08613e-05 0)
(1.63342 0.00150419 0)
(1.60094 0.00150679 0)
(1.57309 0.000922948 0)
(1.54938 0.000185403 0)
(1.52923 -0.000516603 0)
(1.51212 -0.00110847 0)
(1.49757 -0.00157177 0)
(1.48517 -0.0019133 0)
(1.47458 -0.00214836 0)
(1.46551 -0.00229265 0)
(1.45769 -0.00235886 0)
(1.4509 -0.00235564 0)
(1.4449 -0.00228744 0)
(1.43947 -0.00215558 0)
(1.43437 -0.00195775 0)
(1.42932 -0.00168622 0)
(1.42401 -0.00131817 0)
(1.41798 -0.000836621 0)
(1.41089 -0.000163114 0)
(1.40167 0.000627946 0)
(1.39097 0.002125 0)
(1.37277 0.00285731 0)
(1.36053 0.0109385 0)
(1.29869 -0.0115288 0)
(8.7202 0.959647 0)
(8.76466 1.01197 0)
(7.96858 0.679046 0)
(7.05495 0.393911 0)
(6.35387 0.20243 0)
(5.84759 0.103297 0)
(5.4859 0.0577788 0)
(5.22496 0.037238 0)
(5.0298 0.0279957 0)
(4.8782 0.0234173 0)
(4.75676 0.0206545 0)
(4.65709 0.0186565 0)
(4.57379 0.0170319 0)
(4.50325 0.0156195 0)
(4.44295 0.0143428 0)
(4.39103 0.0131645 0)
(4.34612 0.0120687 0)
(4.30715 0.0110512 0)
(4.27324 0.0101149 0)
(4.2437 0.00926833 0)
(4.21793 0.0085261 0)
(4.1954 0.00790808 0)
(4.17562 0.00744048 0)
(4.15814 0.00716327 0)
(4.14249 0.00713522 0)
(4.12817 0.00744252 0)
(4.11464 0.00816814 0)
(4.10127 0.00949885 0)
(4.08727 0.0114446 0)
(4.07187 0.014898 0)
(4.05335 0.0186131 0)
(4.03215 0.02806 0)
(4.00423 0.0348983 0)
(8.58611 0.583506 0)
(9.3312 0.762388 0)
(9.61417 0.660191 0)
(9.50393 0.526544 0)
(9.23754 0.39693 0)
(8.92498 0.298977 0)
(8.61918 0.230049 0)
(8.34334 0.180549 0)
(8.1017 0.144503 0)
(7.892 0.117737 0)
(7.71051 0.0973392 0)
(7.55336 0.081449 0)
(7.41701 0.0688522 0)
(7.29842 0.0587233 0)
(7.19501 0.0504709 0)
(7.10461 0.0436579 0)
(7.02542 0.0379615 0)
(6.95589 0.0331458 0)
(6.89476 0.0290413 0)
(6.84091 0.0255295 0)
(6.7934 0.0225326 0)
(6.75142 0.0200067 0)
(6.71422 0.0179388 0)
(6.68114 0.0163485 0)
(6.65153 0.0152909 0)
(6.62477 0.0148628 0)
(6.60022 0.0151979 0)
(6.57722 0.0165232 0)
(6.55496 0.0190723 0)
(6.5326 0.0235344 0)
(6.50901 0.0298885 0)
(6.48257 0.0408531 0)
(6.45313 0.0539987 0)
(8.44091 0.379733 0)
(8.94581 0.584126 0)
(9.35811 0.554674 0)
(9.58561 0.487151 0)
(9.69948 0.407143 0)
(9.73521 0.337884 0)
(9.71941 0.285245 0)
(9.67444 0.244916 0)
(9.61324 0.213269 0)
(9.5431 0.187727 0)
(9.46877 0.166451 0)
(9.39335 0.148317 0)
(9.31885 0.132617 0)
(9.24673 0.118859 0)
(9.17792 0.106719 0)
(9.11293 0.0959565 0)
(9.05202 0.0863828 0)
(8.99527 0.0778433 0)
(8.94266 0.0702154 0)
(8.89405 0.0634063 0)
(8.84926 0.0573517 0)
(8.80808 0.0520155 0)
(8.77025 0.0473921 0)
(8.73548 0.043511 0)
(8.70346 0.040443 0)
(8.67384 0.0383088 0)
(8.64626 0.0372811 0)
(8.62031 0.0376324 0)
(8.59549 0.0396979 0)
(8.57131 0.0441397 0)
(8.54727 0.0514783 0)
(8.5224 0.0635231 0)
(8.4983 0.0814007 0)
(8.40213 0.280113 0)
(8.71888 0.480789 0)
(8.9986 0.462058 0)
(9.17386 0.404569 0)
(9.29807 0.342521 0)
(9.39115 0.290026 0)
(9.45982 0.250918 0)
(9.51225 0.221212 0)
(9.55327 0.197602 0)
(9.58526 0.178201 0)
(9.60996 0.161756 0)
(9.62878 0.147487 0)
(9.64284 0.134917 0)
(9.65279 0.123715 0)
(9.65932 0.113636 0)
(9.66308 0.104494 0)
(9.66463 0.0961546 0)
(9.66444 0.0885166 0)
(9.66291 0.0815099 0)
(9.66037 0.0750902 0)
(9.65707 0.069238 0)
(9.65323 0.0639589 0)
(9.649 0.0592864 0)
(9.6445 0.0552864 0)
(9.63982 0.0520642 0)
(9.63501 0.0497723 0)
(9.63012 0.0486199 0)
(9.62515 0.0489037 0)
(9.62016 0.0510112 0)
(9.61522 0.0555341 0)
(9.61054 0.0631418 0)
(9.60651 0.0750725 0)
(9.60468 0.0922489 0)
(8.37747 0.202236 0)
(8.60127 0.383699 0)
(8.81556 0.390831 0)
(8.94637 0.356476 0)
(9.03197 0.312117 0)
(9.09443 0.268582 0)
(9.14098 0.23266 0)
(9.1789 0.204037 0)
(9.21238 0.18093 0)
(9.24284 0.162009 0)
(9.27085 0.146191 0)
(9.29679 0.132654 0)
(9.32085 0.120867 0)
(9.34328 0.110478 0)
(9.36422 0.10121 0)
(9.38376 0.0928562 0)
(9.40196 0.0852701 0)
(9.4189 0.0783479 0)
(9.43465 0.0720188 0)
(9.44927 0.0662398 0)
(9.46284 0.0609934 0)
(9.47541 0.0562873 0)
(9.48705 0.0521563 0)
(9.49784 0.0486662 0)
(9.50786 0.0459181 0)
(9.51722 0.0440564 0)
(9.52604 0.0432746 0)
(9.53452 0.0438351 0)
(9.54292 0.0460699 0)
(9.55169 0.0504331 0)
(9.5614 0.0574313 0)
(9.5733 0.0677897 0)
(9.58858 0.081823 0)
(8.36127 0.148875 0)
(8.52264 0.311524 0)
(8.69723 0.337215 0)
(8.81181 0.317709 0)
(8.8862 0.284488 0)
(8.93904 0.248284 0)
(8.97652 0.216601 0)
(9.00482 0.190652 0)
(9.02837 0.169284 0)
(9.04909 0.151467 0)
(9.06792 0.136368 0)
(9.08547 0.12334 0)
(9.10205 0.111926 0)
(9.11785 0.101804 0)
(9.13296 0.0927452 0)
(9.14746 0.0845823 0)
(9.16138 0.0771889 0)
(9.17476 0.0704702 0)
(9.1876 0.0643582 0)
(9.19992 0.058809 0)
(9.21172 0.053802 0)
(9.22303 0.0493398 0)
(9.23386 0.0454493 0)
(9.24425 0.0421841 0)
(9.25425 0.0396272 0)
(9.26395 0.0378951 0)
(9.27347 0.0371393 0)
(9.283 0.0375565 0)
(9.29282 0.0393786 0)
(9.30339 0.0428949 0)
(9.31527 0.0483567 0)
(9.32958 0.0560836 0)
(9.34726 0.0657633 0)
(8.35115 0.111448 0)
(8.46732 0.251732 0)
(8.60795 0.286658 0)
(8.70948 0.278506 0)
(8.77908 0.256181 0)
(8.83048 0.228721 0)
(8.86802 0.202572 0)
(8.89626 0.17985 0)
(8.91915 0.160303 0)
(8.93871 0.143465 0)
(8.956 0.128895 0)
(8.97173 0.116163 0)
(8.98634 0.104924 0)
(9.00009 0.0949207 0)
(9.01313 0.0859569 0)
(9.02561 0.0778754 0)
(9.03758 0.0705535 0)
(9.04911 0.0638989 0)
(9.06024 0.0578453 0)
(9.071 0.0523498 0)
(9.08142 0.0473911 0)
(9.09153 0.0429691 0)
(9.10137 0.0391045 0)
(9.11097 0.0358404 0)
(9.12042 0.0332427 0)
(9.12981 0.0314017 0)
(9.13926 0.0304303 0)
(9.14898 0.0304651 0)
(9.15925 0.031651 0)
(9.17049 0.0341396 0)
(9.1832 0.0380043 0)
(9.19828 0.0432769 0)
(9.21641 0.0494556 0)
(8.34486 0.0847794 0)
(8.42929 0.203864 0)
(8.54194 0.243888 0)
(8.63047 0.244639 0)
(8.69423 0.230495 0)
(8.74306 0.209494 0)
(8.78022 0.187499 0)
(8.80893 0.167363 0)
(8.83246 0.14953 0)
(8.85264 0.133869 0)
(8.87045 0.120135 0)
(8.88658 0.108021 0)
(8.90147 0.0972514 0)
(8.91539 0.0876089 0)
(8.92855 0.078922 0)
(8.94107 0.0710545 0)
(8.95306 0.0639009 0)
(8.96457 0.0573816 0)
(8.97568 0.0514389 0)
(8.98642 0.0460341 0)
(8.99684 0.0411468 0)
(9.00699 0.0367737 0)
(9.01691 0.0329287 0)
(9.02667 0.0296427 0)
(9.03636 0.0269628 0)
(9.04608 0.0249507 0)
(9.05598 0.0236788 0)
(9.06627 0.0232249 0)
(9.07722 0.0236535 0)
(9.08922 0.025003 0)
(9.1027 0.0272125 0)
(9.11836 0.0301312 0)
(9.13666 0.0332005 0)
(8.34093 0.0655412 0)
(8.40299 0.165547 0)
(8.49303 0.206808 0)
(8.56951 0.213433 0)
(8.62739 0.205315 0)
(8.67324 0.189778 0)
(8.70942 0.171891 0)
(8.73808 0.154598 0)
(8.76182 0.138718 0)
(8.78227 0.12437 0)
(8.80036 0.111506 0)
(8.81674 0.0999771 0)
(8.83185 0.0896081 0)
(8.84597 0.0802454 0)
(8.85931 0.0717598 0)
(8.872 0.0640422 0)
(8.88414 0.0570034 0)
(8.89581 0.0505727 0)
(8.90708 0.0446964 0)
(8.91799 0.0393365 0)
(8.92859 0.0344703 0)
(8.93895 0.0300892 0)
(8.94911 0.0261982 0)
(8.95916 0.022814 0)
(8.96919 0.0199636 0)
(8.9793 0.0176809 0)
(8.98967 0.0159997 0)
(9.00048 0.0149463 0)
(9.012 0.0145191 0)
(9.02454 0.0146737 0)
(9.03846 0.0152658 0)
(9.05428 0.0160507 0)
(9.07228 0.0164913 0)
(8.33845 0.0513915 0)
(8.38464 0.134748 0)
(8.45666 0.174851 0)
(8.5224 0.185437 0)
(8.57468 0.182001 0)
(8.61744 0.170955 0)
(8.65226 0.156571 0)
(8.68055 0.141707 0)
(8.70429 0.127494 0)
(8.7249 0.114297 0)
(8.74321 0.102238 0)
(8.75981 0.0912901 0)
(8.77513 0.0813557 0)
(8.78945 0.0723266 0)
(8.80297 0.0641019 0)
(8.81583 0.0565908 0)
(8.82813 0.0497157 0)
(8.83995 0.0434133 0)
(8.85137 0.0376343 0)
(8.86245 0.0323419 0)
(8.87323 0.0275117 0)
(8.88379 0.0231297 0)
(8.89419 0.0191918 0)
(8.9045 0.0157011 0)
(8.91483 0.0126653 0)
(8.92529 0.010092 0)
(8.93603 0.00798116 0)
(8.94723 0.00631615 0)
(8.95912 0.00504652 0)
(8.97196 0.00407187 0)
(8.98601 0.00320177 0)
(9.00164 0.00215356 0)
(9.01899 0.000444223 0)
(8.33686 0.0407759 0)
(8.37173 0.109933 0)
(8.42949 0.147381 0)
(8.48574 0.160226 0)
(8.5327 0.160081 0)
(8.57235 0.152474 0)
(8.60563 0.141026 0)
(8.63338 0.128385 0)
(8.65703 0.115821 0)
(8.67775 0.103841 0)
(8.69627 0.0926696 0)
(8.7131 0.0823704 0)
(8.72865 0.0729135 0)
(8.74319 0.0642384 0)
(8.75691 0.0562774 0)
(8.76996 0.0489634 0)
(8.78244 0.0422348 0)
(8.79444 0.0360384 0)
(8.80603 0.0303302 0)
(8.81728 0.0250749 0)
(8.82825 0.0202455 0)
(8.839 0.0158226 0)
(8.84961 0.0117927 0)
(8.86015 0.00814561 0)
(8.87073 0.00487092 0)
(8.88145 0.00195329 0)
(8.89245 -0.000634648 0)
(8.9039 -0.00294154 0)
(8.91596 -0.00505136 0)
(8.92886 -0.00709667 0)
(8.94277 -0.00928532 0)
(8.95795 -0.0119004 0)
(8.97442 -0.0153554 0)
(8.33582 0.0326439 0)
(8.36254 0.0898095 0)
(8.40907 0.123748 0)
(8.4571 0.137561 0)
(8.49913 0.139675 0)
(8.53573 0.134723 0)
(8.56735 0.125734 0)
(8.59437 0.11505 0)
(8.61778 0.103965 0)
(8.63851 0.0930866 0)
(8.65716 0.082727 0)
(8.6742 0.0730275 0)
(8.68998 0.064021 0)
(8.70475 0.0556896 0)
(8.71869 0.0479943 0)
(8.73195 0.0408873 0)
(8.74463 0.0343193 0)
(8.75683 0.0282441 0)
(8.76861 0.0226206 0)
(8.78004 0.0174137 0)
(8.79119 0.0125937 0)
(8.80213 0.00813528 0)
(8.81293 0.00401611 0)
(8.82367 0.000213978 0)
(8.83444 -0.00329662 0)
(8.84535 -0.00654917 0)
(8.85651 -0.00959165 0)
(8.86806 -0.0124947 0)
(8.88014 -0.0153629 0)
(8.89291 -0.0183426 0)
(8.90649 -0.0216394 0)
(8.92103 -0.0255155 0)
(8.9365 -0.0303133 0)
(8.33513 0.026282 0)
(8.35592 0.0733615 0)
(8.39365 0.103398 0)
(8.43466 0.117206 0)
(8.47217 0.120704 0)
(8.50584 0.117666 0)
(8.53572 0.110609 0)
(8.56187 0.101564 0)
(8.58493 0.0917865 0)
(8.60558 0.0819335 0)
(8.62433 0.0723688 0)
(8.64154 0.0632834 0)
(8.65753 0.0547536 0)
(8.67252 0.0467941 0)
(8.68668 0.0393892 0)
(8.70015 0.0325081 0)
(8.71303 0.026113 0)
(8.72542 0.0201653 0)
(8.73738 0.0146278 0)
(8.74898 0.00946586 0)
(8.7603 0.00464762 0)
(8.7714 0.000142843 0)
(8.78236 -0.00407836 0)
(8.79324 -0.00804803 0)
(8.80413 -0.0118034 0)
(8.81514 -0.0153918 0)
(8.82635 -0.0188756 0)
(8.83788 -0.0223388 0)
(8.84984 -0.0258943 0)
(8.86233 -0.0296894 0)
(8.87543 -0.033915 0)
(8.88922 -0.0388012 0)
(8.90362 -0.0446236 0)
(8.33465 0.0212018 0)
(8.3511 0.0597864 0)
(8.38194 0.0858176 0)
(8.41702 0.0989049 0)
(8.45046 0.103086 0)
(8.48139 0.101354 0)
(8.50953 0.0957836 0)
(8.53474 0.0880993 0)
(8.55735 0.079461 0)
(8.57784 0.0705313 0)
(8.5966 0.0616992 0)
(8.61394 0.0531888 0)
(8.6301 0.0451106 0)
(8.64529 0.0375071 0)
(8.65965 0.0303838 0)
(8.67333 0.0237249 0)
(8.6864 0.0175029 0)
(8.69897 0.0116853 0)
(8.7111 0.00623776 0)
(8.72287 0.00112558 0)
(8.73434 -0.00368556 0)
(8.74557 -0.00823024 0)
(8.75664 -0.0125445 0)
(8.76762 -0.0166683 0)
(8.77858 -0.020648 0)
(8.78961 -0.0245403 0)
(8.80078 -0.0284161 0)
(8.81219 -0.0323649 0)
(8.82392 -0.0364998 0)
(8.83602 -0.0409602 0)
(8.84855 -0.0459154 0)
(8.86152 -0.0515597 0)
(8.87486 -0.0581094 0)
(8.33431 0.0170638 0)
(8.34754 0.0484549 0)
(8.37301 0.0705536 0)
(8.40313 0.0824182 0)
(8.43298 0.0867214 0)
(8.46137 0.0857773 0)
(8.48783 0.0812761 0)
(8.51204 0.0746589 0)
(8.53413 0.0669654 0)
(8.5544 0.0588364 0)
(8.57313 0.0506671 0)
(8.59055 0.0426984 0)
(8.60685 0.035062 0)
(8.62222 0.0278194 0)
(8.63678 0.0209905 0)
(8.65064 0.0145706 0)
(8.6639 0.00853962 0)
(8.67663 0.00286959 0)
(8.68892 -0.00247188 0)
(8.70082 -0.00751951 0)
(8.71241 -0.0123094 0)
(8.72374 -0.0168796 0)
(8.73489 -0.0212709 0)
(8.7459 -0.025529 0)
(8.75687 -0.0297062 0)
(8.76785 -0.0338643 0)
(8.7789 -0.0380776 0)
(8.79011 -0.0424358 0)
(8.80151 -0.0470463 0)
(8.81314 -0.0520349 0)
(8.82503 -0.0575467 0)
(8.83716 -0.0637404 0)
(8.84945 -0.0707818 0)
(8.33407 0.013628 0)
(8.34489 0.0388752 0)
(8.36616 0.0572087 0)
(8.39219 0.067509 0)
(8.41889 0.0714912 0)
(8.44498 0.070904 0)
(8.46986 0.0671074 0)
(8.49308 0.0612909 0)
(8.51462 0.0543619 0)
(8.53463 0.0469163 0)
(8.55329 0.0393366 0)
(8.57075 0.031866 0)
(8.58717 0.0246464 0)
(8.60269 0.0177511 0)
(8.61741 0.0112105 0)
(8.63144 0.00502783 0)
(8.64487 -0.000810849 0)
(8.65776 -0.00632999 0)
(8.67018 -0.0115602 0)
(8.6822 -0.0165362 0)
(8.69388 -0.0212955 0)
(8.70528 -0.0258787 0)
(8.71645 -0.0303302 0)
(8.72747 -0.0346989 0)
(8.73838 -0.0390404 0)
(8.74925 -0.0434184 0)
(8.76012 -0.0479069 0)
(8.77105 -0.0525913 0)
(8.78207 -0.0575696 0)
(8.79319 -0.0629516 0)
(8.80441 -0.0688578 0)
(8.81571 -0.0754141 0)
(8.827 -0.0827445 0)
(8.33389 0.0107212 0)
(8.34289 0.0306618 0)
(8.36089 0.0454379 0)
(8.38357 0.0539519 0)
(8.40757 0.0572683 0)
(8.43162 0.0566809 0)
(8.45504 0.0532694 0)
(8.47732 0.0480033 0)
(8.4983 0.0416575 0)
(8.51802 0.0347689 0)
(8.53657 0.0276957 0)
(8.55405 0.0206728 0)
(8.57057 0.0138435 0)
(8.58622 0.00728655 0)
(8.60109 0.00103761 0)
(8.61528 -0.00489558 0)
(8.62885 -0.0105238 0)
(8.64188 -0.0158694 0)
(8.65441 -0.0209626 0)
(8.66652 -0.0258386 0)
(8.67826 -0.0305364 0)
(8.68969 -0.0350985 0)
(8.70086 -0.0395713 0)
(8.71183 -0.0440057 0)
(8.72264 -0.0484582 0)
(8.73334 -0.0529919 0)
(8.74397 -0.0576775 0)
(8.75457 -0.0625937 0)
(8.76516 -0.0678271 0)
(8.77574 -0.0734708 0)
(8.78629 -0.0796224 0)
(8.79678 -0.086379 0)
(8.80714 -0.0938311 0)
(8.33375 0.00821565 0)
(8.34138 0.0235109 0)
(8.35684 0.0349429 0)
(8.3768 0.0415328 0)
(8.39852 0.0439168 0)
(8.42079 0.0430348 0)
(8.4429 0.0397323 0)
(8.4643 0.0347907 0)
(8.48475 0.0288584 0)
(8.50419 0.0224058 0)
(8.52263 0.0157568 0)
(8.54012 0.00912873 0)
(8.55671 0.00265813 0)
(8.57248 -0.00357787 0)
(8.5875 -0.0095429 0)
(8.60183 -0.015228 0)
(8.61553 -0.0206427 0)
(8.62867 -0.0258089 0)
(8.6413 -0.0307567 0)
(8.65348 -0.0355218 0)
(8.66526 -0.0401442 0)
(8.67669 -0.0446673 0)
(8.68782 -0.0491383 0)
(8.69869 -0.0536084 0)
(8.70936 -0.058133 0)
(8.71986 -0.0627725 0)
(8.73021 -0.0675924 0)
(8.74045 -0.0726631 0)
(8.75058 -0.0780591 0)
(8.7606 -0.0838573 0)
(8.77049 -0.0901346 0)
(8.78021 -0.0969638 0)
(8.7897 -0.104409 0)
(8.33365 0.00601441 0)
(8.34024 0.0171803 0)
(8.35373 0.0254661 0)
(8.37152 0.0300495 0)
(8.39134 0.031296 0)
(8.4121 0.029878 0)
(8.43308 0.026449 0)
(8.4537 0.0216306 0)
(8.47367 0.0159557 0)
(8.49285 0.00982503 0)
(8.51118 0.00352217 0)
(8.52867 -0.00275946 0)
(8.54533 -0.00889643 0)
(8.56121 -0.0148182 0)
(8.57636 -0.0204917 0)
(8.59081 -0.02591 0)
(8.60464 -0.0310839 0)
(8.61787 -0.0360367 0)
(8.63058 -0.0407995 0)
(8.6428 -0.0454093 0)
(8.65458 -0.049907 0)
(8.66598 -0.0543371 0)
(8.67704 -0.0587469 0)
(8.68779 -0.0631869 0)
(8.69828 -0.0677105 0)
(8.70853 -0.0723742 0)
(8.71857 -0.0772375 0)
(8.72843 -0.0823621 0)
(8.73809 -0.0878107 0)
(8.74755 -0.0936455 0)
(8.7568 -0.0999257 0)
(8.7658 -0.106705 0)
(8.77448 -0.114026 0)
(8.33357 0.00404204 0)
(8.33937 0.0114739 0)
(8.35136 0.0167828 0)
(8.36744 0.019311 0)
(8.38573 0.0192604 0)
(8.40525 0.0171069 0)
(8.42527 0.013349 0)
(8.44524 0.00847419 0)
(8.46481 0.00291056 0)
(8.48377 -0.00301041 0)
(8.50203 -0.00904979 0)
(8.51954 -0.0150432 0)
(8.53628 -0.0208858 0)
(8.55228 -0.0265184 0)
(8.56755 -0.0319154 0)
(8.58213 -0.0370745 0)
(8.59606 -0.0420102 0)
(8.60939 -0.0467478 0)
(8.62216 -0.0513204 0)
(8.6344 -0.0557661 0)
(8.64618 -0.0601269 0)
(8.65752 -0.0644472 0)
(8.66848 -0.0687738 0)
(8.67908 -0.0731552 0)
(8.68936 -0.077642 0)
(8.69935 -0.0822858 0)
(8.70906 -0.0871397 0)
(8.71851 -0.0922563 0)
(8.7277 -0.0976875 0)
(8.73663 -0.103482 0)
(8.74526 -0.109686 0)
(8.75357 -0.116334 0)
(8.76152 -0.123456 0)
(8.33351 0.00223791 0)
(8.33873 0.00622962 0)
(8.34959 0.00869533 0)
(8.36436 0.00913589 0)
(8.38145 0.00766178 0)
(8.39998 0.00460907 0)
(8.41926 0.000353629 0)
(8.43872 -0.00472836 0)
(8.45797 -0.0103011 0)
(8.47678 -0.0160998 0)
(8.495 -0.0219317 0)
(8.51255 -0.0276651 0)
(8.52939 -0.0332178 0)
(8.54551 -0.0385466 0)
(8.56091 -0.0436368 0)
(8.57561 -0.0484945 0)
(8.58964 -0.0531398 0)
(8.60304 -0.0576027 0)
(8.61585 -0.0619196 0)
(8.6281 -0.0661309 0)
(8.63984 -0.0702798 0)
(8.65111 -0.0744114 0)
(8.66194 -0.0785716 0)
(8.67236 -0.0828074 0)
(8.68241 -0.087166 0)
(8.69212 -0.0916944 0)
(8.70148 -0.096439 0)
(8.71053 -0.101445 0)
(8.71925 -0.106753 0)
(8.72764 -0.112404 0)
(8.73569 -0.118428 0)
(8.74337 -0.124851 0)
(8.75066 -0.131689 0)
(8.33347 0.000550968 0)
(8.33827 0.00130836 0)
(8.34831 0.00102456 0)
(8.36212 -0.000652916 0)
(8.37833 -0.0036578 0)
(8.39614 -0.00775182 0)
(8.41488 -0.012656 0)
(8.43398 -0.018088 0)
(8.45304 -0.0237944 0)
(8.4718 -0.0295742 0)
(8.49006 -0.0352825 0)
(8.50771 -0.0408228 0)
(8.52469 -0.0461385 0)
(8.54096 -0.0512051 0)
(8.5565 -0.0560212 0)
(8.57134 -0.0606028 0)
(8.58548 -0.0649772 0)
(8.59896 -0.0691796 0)
(8.6118 -0.07325 0)
(8.62406 -0.0772313 0)
(8.63575 -0.0811679 0)
(8.64693 -0.0851049 0)
(8.65762 -0.0890874 0)
(8.66785 -0.0931601 0)
(8.67766 -0.0973666 0)
(8.68706 -0.101749 0)
(8.69608 -0.106349 0)
(8.70471 -0.111202 0)
(8.71298 -0.116343 0)
(8.72086 -0.1218 0)
(8.72836 -0.127598 0)
(8.73545 -0.13375 0)
(8.7421 -0.140265 0)
(8.33345 -0.00106226 0)
(8.33797 -0.00341208 0)
(8.34745 -0.00639462 0)
(8.36062 -0.0102264 0)
(8.37624 -0.0148535 0)
(8.39358 -0.0201024 0)
(8.412 -0.0257677 0)
(8.43092 -0.0316443 0)
(8.44992 -0.037551 0)
(8.46871 -0.0433472 0)
(8.48708 -0.0489362 0)
(8.50488 -0.0542596 0)
(8.52203 -0.0592908 0)
(8.53847 -0.0640283 0)
(8.55417 -0.0684889 0)
(8.56914 -0.0727019 0)
(8.58339 -0.0767052 0)
(8.59693 -0.0805417 0)
(8.60981 -0.0842569 0)
(8.62205 -0.0878976 0)
(8.63368 -0.0915104 0)
(8.64475 -0.095141 0)
(8.65528 -0.0988339 0)
(8.66531 -0.102632 0)
(8.67486 -0.106575 0)
(8.68396 -0.110702 0)
(8.69262 -0.115047 0)
(8.70085 -0.119642 0)
(8.70867 -0.124514 0)
(8.71606 -0.129683 0)
(8.72304 -0.135165 0)
(8.72958 -0.14097 0)
(8.73568 -0.147099 0)
(8.33343 -0.00264262 0)
(8.33779 -0.00804687 0)
(8.34697 -0.0137254 0)
(8.35978 -0.0197688 0)
(8.37512 -0.0261184 0)
(8.39227 -0.0326454 0)
(8.4106 -0.0392052 0)
(8.42955 -0.0456603 0)
(8.44867 -0.0518957 0)
(8.46765 -0.0578281 0)
(8.48625 -0.0634078 0)
(8.5043 -0.0686143 0)
(8.5217 -0.0734512 0)
(8.53837 -0.0779402 0)
(8.55429 -0.0821161 0)
(8.56943 -0.0860223 0)
(8.58381 -0.0897075 0)
(8.59744 -0.0932225 0)
(8.61035 -0.0966189 0)
(8.62258 -0.0999473 0)
(8.63415 -0.103257 0)
(8.6451 -0.106594 0)
(8.65546 -0.110003 0)
(8.66528 -0.113525 0)
(8.67456 -0.117198 0)
(8.68335 -0.121056 0)
(8.69165 -0.125129 0)
(8.69949 -0.129444 0)
(8.70686 -0.134021 0)
(8.71379 -0.138876 0)
(8.72027 -0.144019 0)
(8.72629 -0.149453 0)
(8.73185 -0.155176 0)
(8.33342 -0.0042303 0)
(8.33774 -0.012708 0)
(8.34683 -0.0211252 0)
(8.35958 -0.0294487 0)
(8.3749 -0.0375979 0)
(8.39211 -0.0454689 0)
(8.4106 -0.0529623 0)
(8.42976 -0.0599986 0)
(8.44916 -0.0665252 0)
(8.46844 -0.0725179 0)
(8.48736 -0.077979 0)
(8.50573 -0.0829329 0)
(8.52343 -0.08742 0)
(8.54037 -0.0914923 0)
(8.55652 -0.0952083 0)
(8.57185 -0.0986302 0)
(8.58637 -0.101821 0)
(8.60009 -0.104841 0)
(8.61304 -0.10775 0)
(8.62525 -0.110604 0)
(8.63675 -0.113454 0)
(8.64758 -0.116348 0)
(8.65778 -0.119331 0)
(8.66737 -0.12244 0)
(8.67639 -0.125713 0)
(8.68487 -0.129179 0)
(8.69282 -0.132865 0)
(8.70027 -0.136792 0)
(8.70723 -0.140976 0)
(8.71371 -0.145428 0)
(8.71972 -0.150155 0)
(8.72526 -0.155156 0)
(8.73035 -0.160424 0)
(8.33343 -0.0058663 0)
(8.33781 -0.0175169 0)
(8.34705 -0.0287842 0)
(8.36003 -0.0395184 0)
(8.37567 -0.0496188 0)
(8.39328 -0.0590058 0)
(8.41223 -0.0676227 0)
(8.4319 -0.0754434 0)
(8.45183 -0.082471 0)
(8.47165 -0.0887331 0)
(8.49108 -0.0942775 0)
(8.50993 -0.0991679 0)
(8.52805 -0.103478 0)
(8.54536 -0.107288 0)
(8.56181 -0.110679 0)
(8.57739 -0.113732 0)
(8.59208 -0.116525 0)
(8.60591 -0.119131 0)
(8.6189 -0.121618 0)
(8.6311 -0.124048 0)
(8.64253 -0.126477 0)
(8.65323 -0.128956 0)
(8.66324 -0.13153 0)
(8.6726 -0.134237 0)
(8.68134 -0.137112 0)
(8.6895 -0.140183 0)
(8.6971 -0.143473 0)
(8.70415 -0.146999 0)
(8.71069 -0.150776 0)
(8.71673 -0.154809 0)
(8.72228 -0.159102 0)
(8.72735 -0.163651 0)
(8.73194 -0.168446 0)
(8.33345 -0.00759565 0)
(8.338 -0.022595 0)
(8.34762 -0.0368563 0)
(8.3611 -0.0500933 0)
(8.37733 -0.0621677 0)
(8.3956 -0.0730116 0)
(8.41524 -0.0826093 0)
(8.43562 -0.0909978 0)
(8.45624 -0.0982521 0)
(8.47673 -0.10447 0)
(8.49678 -0.109763 0)
(8.5162 -0.114248 0)
(8.53483 -0.118045 0)
(8.55258 -0.121268 0)
(8.5694 -0.124028 0)
(8.58526 -0.126426 0)
(8.60017 -0.128556 0)
(8.61415 -0.130502 0)
(8.62721 -0.132341 0)
(8.63941 -0.13414 0)
(8.65078 -0.135957 0)
(8.66137 -0.137845 0)
(8.67121 -0.139848 0)
(8.68035 -0.142004 0)
(8.68883 -0.144345 0)
(8.69668 -0.146896 0)
(8.70393 -0.149678 0)
(8.71062 -0.152705 0)
(8.71676 -0.155986 0)
(8.72239 -0.159528 0)
(8.72751 -0.163328 0)
(8.73216 -0.167383 0)
(8.73634 -0.171681 0)
(8.33348 -0.00947542 0)
(8.33837 -0.0281273 0)
(8.34867 -0.0456844 0)
(8.36309 -0.0617432 0)
(8.38039 -0.0761541 0)
(8.39982 -0.0888691 0)
(8.42063 -0.0999019 0)
(8.44215 -0.10933 0)
(8.46385 -0.117276 0)
(8.48531 -0.123886 0)
(8.50624 -0.12932 0)
(8.52642 -0.133742 0)
(8.54569 -0.137312 0)
(8.56397 -0.140184 0)
(8.58122 -0.142501 0)
(8.5974 -0.14439 0)
(8.61254 -0.145968 0)
(8.62665 -0.147337 0)
(8.63978 -0.148586 0)
(8.65197 -0.149791 0)
(8.66326 -0.15102 0)
(8.6737 -0.152328 0)
(8.68335 -0.153762 0)
(8.69224 -0.15536 0)
(8.70043 -0.157153 0)
(8.70795 -0.159166 0)
(8.71484 -0.161417 0)
(8.72113 -0.163919 0)
(8.72686 -0.166677 0)
(8.73206 -0.169694 0)
(8.73673 -0.172968 0)
(8.74092 -0.176491 0)
(8.74463 -0.180248 0)
(8.33352 -0.0115658 0)
(8.33886 -0.0342292 0)
(8.35007 -0.0552696 0)
(8.36568 -0.0740994 0)
(8.38429 -0.0905479 0)
(8.40508 -0.10462 0)
(8.42726 -0.116422 0)
(8.45012 -0.126145 0)
(8.47309 -0.134019 0)
(8.49574 -0.140287 0)
(8.51774 -0.145182 0)
(8.53887 -0.14893 0)
(8.55898 -0.151737 0)
(8.57796 -0.153791 0)
(8.59577 -0.15526 0)
(8.61241 -0.156291 0)
(8.62788 -0.157015 0)
(8.64223 -0.157543 0)
(8.65549 -0.157971 0)
(8.66772 -0.158381 0)
(8.67898 -0.158841 0)
(8.68932 -0.159409 0)
(8.6988 -0.160131 0)
(8.70748 -0.161045 0)
(8.7154 -0.16218 0)
(8.72261 -0.16356 0)
(8.72916 -0.1652 0)
(8.73509 -0.16711 0)
(8.74044 -0.169296 0)
(8.74523 -0.171756 0)
(8.74951 -0.174487 0)
(8.7533 -0.177482 0)
(8.75664 -0.180724 0)
(8.3336 -0.0139807 0)
(8.33973 -0.0413727 0)
(8.35254 -0.0667094 0)
(8.37019 -0.0892796 0)
(8.39103 -0.108901 0)
(8.41405 -0.125555 0)
(8.43836 -0.139329 0)
(8.46316 -0.150441 0)
(8.48784 -0.15918 0)
(8.51198 -0.165859 0)
(8.53525 -0.170793 0)
(8.55745 -0.174284 0)
(8.57842 -0.176609 0)
(8.59811 -0.17802 0)
(8.61647 -0.178734 0)
(8.63351 -0.17894 0)
(8.64927 -0.178801 0)
(8.66379 -0.178451 0)
(8.67712 -0.178004 0)
(8.68934 -0.177552 0)
(8.70051 -0.177171 0)
(8.71069 -0.176923 0)
(8.71996 -0.176855 0)
(8.72837 -0.177006 0)
(8.73597 -0.177403 0)
(8.74284 -0.178067 0)
(8.74901 -0.179012 0)
(8.75454 -0.180245 0)
(8.75946 -0.181768 0)
(8.76382 -0.18358 0)
(8.76765 -0.185672 0)
(8.77098 -0.188036 0)
(8.77383 -0.19065 0)
(8.33367 -0.0167819 0)
(8.34057 -0.0493297 0)
(8.35498 -0.0786633 0)
(8.37468 -0.103901 0)
(8.39775 -0.125075 0)
(8.42315 -0.14244 0)
(8.44989 -0.156328 0)
(8.47705 -0.167154 0)
(8.50396 -0.175342 0)
(8.53012 -0.181293 0)
(8.55519 -0.185378 0)
(8.57893 -0.18794 0)
(8.60122 -0.189283 0)
(8.62198 -0.189678 0)
(8.6412 -0.189359 0)
(8.65892 -0.18853 0)
(8.67517 -0.187364 0)
(8.69003 -0.186004 0)
(8.70358 -0.184573 0)
(8.71589 -0.183169 0)
(8.72706 -0.181871 0)
(8.73716 -0.180745 0)
(8.74627 -0.179838 0)
(8.75446 -0.179189 0)
(8.76181 -0.178827 0)
(8.76837 -0.17877 0)
(8.77421 -0.17903 0)
(8.77938 -0.179615 0)
(8.78393 -0.180523 0)
(8.7879 -0.181752 0)
(8.79135 -0.183293 0)
(8.79431 -0.185136 0)
(8.79684 -0.187256 0)
(8.33391 -0.0203534 0)
(8.34286 -0.0601823 0)
(8.3609 -0.096363 0)
(8.38477 -0.127684 0)
(8.41186 -0.153933 0)
(8.44092 -0.175143 0)
(8.47086 -0.191624 0)
(8.50076 -0.20393 0)
(8.52998 -0.212689 0)
(8.55809 -0.218502 0)
(8.5848 -0.221932 0)
(8.60991 -0.22348 0)
(8.63332 -0.22358 0)
(8.65498 -0.222601 0)
(8.67491 -0.220849 0)
(8.69315 -0.218576 0)
(8.70978 -0.215988 0)
(8.72487 -0.21325 0)
(8.73852 -0.210494 0)
(8.75083 -0.207824 0)
(8.76189 -0.20532 0)
(8.77179 -0.203045 0)
(8.78063 -0.201044 0)
(8.78849 -0.199351 0)
(8.79545 -0.19799 0)
(8.80158 -0.196974 0)
(8.80695 -0.196314 0)
(8.81161 -0.196011 0)
(8.81563 -0.196063 0)
(8.81905 -0.196465 0)
(8.82192 -0.197206 0)
(8.82429 -0.198272 0)
(8.82619 -0.199635 0)
(8.33388 -0.0244294 0)
(8.34365 -0.0704599 0)
(8.36412 -0.109653 0)
(8.3914 -0.141757 0)
(8.42261 -0.16784 0)
(8.45625 -0.188561 0)
(8.49083 -0.204468 0)
(8.52509 -0.2162 0)
(8.55823 -0.224368 0)
(8.58973 -0.22953 0)
(8.61927 -0.232214 0)
(8.64668 -0.232906 0)
(8.67188 -0.232042 0)
(8.6949 -0.230003 0)
(8.7158 -0.22712 0)
(8.73468 -0.223672 0)
(8.75167 -0.219891 0)
(8.76688 -0.215965 0)
(8.78047 -0.212047 0)
(8.79255 -0.208254 0)
(8.80326 -0.204678 0)
(8.81271 -0.201388 0)
(8.82102 -0.198432 0)
(8.82828 -0.195845 0)
(8.83458 -0.193651 0)
(8.84002 -0.19186 0)
(8.84466 -0.190481 0)
(8.84858 -0.189513 0)
(8.85185 -0.188953 0)
(8.85451 -0.188793 0)
(8.85664 -0.189021 0)
(8.85829 -0.189625 0)
(8.85952 -0.190565 0)
(8.33498 -0.0313397 0)
(8.35139 -0.0927828 0)
(8.38056 -0.146316 0)
(8.41536 -0.189822 0)
(8.4523 -0.223659 0)
(8.49046 -0.248629 0)
(8.52866 -0.266043 0)
(8.5658 -0.277367 0)
(8.60125 -0.283873 0)
(8.63459 -0.286623 0)
(8.66554 -0.286514 0)
(8.69399 -0.284278 0)
(8.7199 -0.280502 0)
(8.74334 -0.275657 0)
(8.76443 -0.270116 0)
(8.78331 -0.264175 0)
(8.80015 -0.258066 0)
(8.81511 -0.25197 0)
(8.82837 -0.246027 0)
(8.84008 -0.24034 0)
(8.85041 -0.234988 0)
(8.85948 -0.230026 0)
(8.86743 -0.225491 0)
(8.87436 -0.221407 0)
(8.88038 -0.217787 0)
(8.88558 -0.214637 0)
(8.89004 -0.211958 0)
(8.89382 -0.209747 0)
(8.897 -0.208 0)
(8.89964 -0.206711 0)
(8.90178 -0.20587 0)
(8.9035 -0.205469 0)
(8.90483 -0.205466 0)
(8.33403 -0.0363512 0)
(8.34994 -0.0990236 0)
(8.38398 -0.147935 0)
(8.42689 -0.187809 0)
(8.47317 -0.220623 0)
(8.52037 -0.246112 0)
(8.56636 -0.26472 0)
(8.60994 -0.277333 0)
(8.65075 -0.284795 0)
(8.68873 -0.287971 0)
(8.7239 -0.287739 0)
(8.75641 -0.284903 0)
(8.78642 -0.280167 0)
(8.81412 -0.274124 0)
(8.83966 -0.267259 0)
(8.86321 -0.259959 0)
(8.88491 -0.252524 0)
(8.9049 -0.245181 0)
(8.9233 -0.238097 0)
(8.94023 -0.231393 0)
(8.95582 -0.22515 0)
(8.97016 -0.219419 0)
(8.98335 -0.214231 0)
(8.99548 -0.209597 0)
(9.00663 -0.205519 0)
(9.01689 -0.201991 0)
(9.02631 -0.199002 0)
(9.03495 -0.196541 0)
(9.04289 -0.1946 0)
(9.05016 -0.193173 0)
(9.05686 -0.192265 0)
(9.06304 -0.191877 0)
(9.06882 -0.191984 0)
(8.3396 -0.0605055 0)
(8.37711 -0.169844 0)
(8.42643 -0.248359 0)
(8.47637 -0.301658 0)
(8.52894 -0.336841 0)
(8.58564 -0.358283 0)
(8.64491 -0.370077 0)
(8.70542 -0.375309 0)
(8.76624 -0.375928 0)
(8.82628 -0.373257 0)
(8.88454 -0.368232 0)
(8.94026 -0.361519 0)
(8.99291 -0.353612 0)
(9.04214 -0.344896 0)
(9.08776 -0.335681 0)
(9.12971 -0.32622 0)
(9.16807 -0.316728 0)
(9.20296 -0.307378 0)
(9.23456 -0.29831 0)
(9.26309 -0.289634 0)
(9.28877 -0.28143 0)
(9.31184 -0.273755 0)
(9.33252 -0.266645 0)
(9.351 -0.26012 0)
(9.3675 -0.254186 0)
(9.38218 -0.248841 0)
(9.39519 -0.24408 0)
(9.40667 -0.239894 0)
(9.41674 -0.236288 0)
(9.42549 -0.233269 0)
(9.43304 -0.230895 0)
(9.43948 -0.229175 0)
(9.44499 -0.228307 0)
(8.3376 -0.0465389 0)
(8.39354 -0.121014 0)
(8.49387 -0.185115 0)
(8.6088 -0.247084 0)
(8.73083 -0.300433 0)
(8.85445 -0.342 0)
(8.97276 -0.372499 0)
(9.08161 -0.392811 0)
(9.17877 -0.404071 0)
(9.263 -0.407852 0)
(9.33402 -0.405763 0)
(9.39226 -0.399252 0)
(9.43856 -0.389574 0)
(9.47404 -0.37777 0)
(9.4999 -0.364673 0)
(9.51738 -0.350938 0)
(9.52764 -0.337061 0)
(9.53178 -0.32341 0)
(9.53075 -0.310247 0)
(9.52541 -0.297752 0)
(9.5165 -0.286036 0)
(9.50464 -0.275162 0)
(9.49037 -0.265151 0)
(9.47413 -0.255999 0)
(9.45628 -0.247679 0)
(9.43711 -0.240148 0)
(9.41686 -0.233357 0)
(9.3957 -0.227255 0)
(9.37376 -0.221803 0)
(9.35106 -0.216974 0)
(9.32775 -0.212866 0)
(9.30352 -0.209429 0)
(9.2791 -0.207744 0)
(8.40924 -0.221331 0)
(8.63502 -0.428508 0)
(8.83327 -0.523027 0)
(8.97707 -0.583955 0)
(9.07072 -0.617097 0)
(9.11319 -0.628047 0)
(9.10876 -0.62437 0)
(9.0668 -0.610119 0)
(8.99616 -0.588111 0)
(8.90427 -0.560895 0)
(8.79758 -0.530521 0)
(8.68146 -0.498565 0)
(8.5601 -0.466248 0)
(8.43668 -0.434486 0)
(8.31358 -0.40393 0)
(8.19251 -0.375016 0)
(8.07465 -0.348006 0)
(7.96075 -0.323035 0)
(7.85128 -0.30014 0)
(7.74645 -0.279287 0)
(7.64633 -0.260397 0)
(7.55085 -0.24336 0)
(7.45987 -0.228043 0)
(7.37319 -0.214307 0)
(7.29059 -0.202003 0)
(7.21182 -0.190981 0)
(7.13663 -0.181082 0)
(7.06474 -0.172155 0)
(6.99586 -0.164016 0)
(6.92959 -0.156494 0)
(6.86553 -0.14948 0)
(6.80259 -0.142056 0)
(6.74117 -0.138023 0)
(8.13708 -0.207197 0)
(7.84762 -0.388176 0)
(7.38514 -0.43964 0)
(6.85937 -0.440381 0)
(6.35927 -0.409175 0)
(5.88772 -0.360301 0)
(5.44734 -0.30603 0)
(5.04552 -0.25275 0)
(4.68333 -0.203681 0)
(4.35883 -0.16044 0)
(4.06967 -0.123479 0)
(3.81302 -0.0925776 0)
(3.5857 -0.0672028 0)
(3.38459 -0.0466704 0)
(3.20667 -0.0302601 0)
(3.04917 -0.0172902 0)
(2.90955 -0.00715057 0)
(2.78551 0.000685319 0)
(2.67503 0.00666117 0)
(2.57633 0.0111446 0)
(2.48782 0.0144368 0)
(2.40816 0.0167833 0)
(2.33614 0.018384 0)
(2.27075 0.0194024 0)
(2.21111 0.0199782 0)
(2.15649 0.0202321 0)
(2.10622 0.0202969 0)
(2.05988 0.020305 0)
(2.01689 0.020504 0)
(1.97749 0.0212253 0)
(1.94061 0.0228418 0)
(1.90864 0.028211 0)
(1.87912 0.0229002 0)
(1.36891 0.0398787 0)
(1.66617 0.208924 0)
(2.12074 0.369987 0)
(2.57972 0.480646 0)