/*--------------------------------*- C++ -*----------------------------------*\
| =========                 |                                                 |
| \\      /  F ield         | OpenFOAM: The Open Source CFD Toolbox           |
|  \\    /   O peration     | Version:  2.1.1                                 |
|   \\  /    A nd           | Web:      www.OpenFOAM.org                      |
|    \\/     M anipulation  |                                                 |
\*---------------------------------------------------------------------------*/
FoamFile
{
    version     2.0;
    format      ascii;
    class       volScalarField;
    location    "0.11";
    object      nuSgs;
}
// * * * * * * * * * * * * * * * * * * * * * * * * * * * * * * * * * * * * * //

dimensions      [0 2 -1 0 0 0 0];

internalField   nonuniform List<scalar> 
6820
(
0.000556014
0.000457416
0.000368158
0.000306153
0.00026897
0.000243366
0.000224529
0.000210131
0.00019851
0.00018876
0.000180364
0.00017299
0.000166416
0.000160485
0.000155083
0.000150123
0.000145539
0.000141278
0.000137299
0.000133566
0.000130052
0.000126734
0.00012359
0.000120605
0.000117762
0.000115049
0.000112458
0.000109983
0.000107612
0.000105371
0.000103212
0.000101132
9.85531e-05
0.000103495
0.000170657
0.000223643
0.000240016
0.000235271
0.000224923
0.000213246
0.000201984
0.000191777
0.000182643
0.000174463
0.000167101
0.000160435
0.00015436
0.000148793
0.000143663
0.000138913
0.000134494
0.000130365
0.000126493
0.000122848
0.000119406
0.000116146
0.000113049
0.0001101
0.000107284
0.00010459
0.000101999
9.95158e-05
9.70628e-05
9.47522e-05
9.20906e-05
9.00383e-05
3.67748e-05
2.8478e-05
4.56022e-05
8.22707e-05
0.000107902
0.000123492
0.00013192
0.000135777
0.000136887
0.000136324
0.000134727
0.000132493
0.000129871
0.000127025
0.000124062
0.000121051
0.000118041
0.000115062
0.000112135
0.000109273
0.000106483
0.000103771
0.000101137
9.85814e-05
9.61035e-05
9.37009e-05
9.13696e-05
8.91015e-05
8.68923e-05
8.47063e-05
8.25492e-05
8.02451e-05
7.79859e-05
2.07362e-05
2.86855e-05
2.65654e-05
1.51025e-05
3.65473e-06
1.37915e-05
2.55942e-05
3.5389e-05
4.32784e-05
4.95369e-05
5.44403e-05
5.82329e-05
6.11177e-05
6.3253e-05
6.47727e-05
6.57875e-05
6.63885e-05
6.66504e-05
6.66347e-05
6.6392e-05
6.5964e-05
6.53852e-05
6.46838e-05
6.38832e-05
6.30028e-05
6.20577e-05
6.10601e-05
6.00174e-05
5.89356e-05
5.7809e-05
5.66403e-05
5.5436e-05
5.42638e-05
1.44191e-05
1.75871e-05
2.26064e-05
2.43016e-05
2.39793e-05
2.20133e-05
1.91442e-05
1.59116e-05
1.2549e-05
9.20644e-06
5.99173e-06
2.98563e-06
6.57837e-07
2.57511e-06
4.87152e-06
6.95061e-06
8.80106e-06
1.04315e-05
1.18555e-05
1.30884e-05
1.4146e-05
1.50436e-05
1.57963e-05
1.6418e-05
1.69216e-05
1.73187e-05
1.76194e-05
1.78319e-05
1.79638e-05
1.80216e-05
1.80166e-05
1.79928e-05
1.79877e-05
1.09188e-05
1.25004e-05
1.38259e-05
1.43326e-05
1.51121e-05
1.57443e-05
1.61146e-05
1.63167e-05
1.63552e-05
1.62358e-05
1.59833e-05
1.56215e-05
1.51748e-05
1.4659e-05
1.40927e-05
1.34933e-05
1.2876e-05
1.22533e-05
1.16352e-05
1.10298e-05
1.04428e-05
9.87863e-06
9.34028e-06
8.82974e-06
8.34813e-06
7.89606e-06
7.47355e-06
7.08017e-06
6.71378e-06
6.36926e-06
6.03649e-06
5.68256e-06
5.27969e-06
8.24297e-06
9.4308e-06
1.02522e-05
1.00507e-05
9.86028e-06
9.67972e-06
9.49185e-06
9.39891e-06
9.38981e-06
9.42038e-06
9.46368e-06
9.50206e-06
9.52386e-06
9.52698e-06
9.50954e-06
9.47078e-06
9.4112e-06
9.33209e-06
9.2352e-06
9.12248e-06
8.99595e-06
8.85761e-06
8.70935e-06
8.55296e-06
8.39001e-06
8.22187e-06
8.04949e-06
7.87314e-06
7.69125e-06
7.49957e-06
7.28976e-06
7.04485e-06
6.74544e-06
6.35921e-06
7.41183e-06
8.22094e-06
8.08498e-06
7.77485e-06
7.43525e-06
7.0574e-06
6.73259e-06
6.47953e-06
6.2774e-06
6.11332e-06
5.97822e-06
5.8632e-06
5.76158e-06
5.66904e-06
5.5825e-06
5.49956e-06
5.41839e-06
5.33765e-06
5.25636e-06
5.17388e-06
5.08976e-06
5.00374e-06
4.91562e-06
4.82521e-06
4.73219e-06
4.6359e-06
4.53495e-06
4.42683e-06
4.30667e-06
4.16691e-06
3.99694e-06
3.78284e-06
4.99895e-06
5.86185e-06
6.54669e-06
6.5414e-06
6.374e-06
6.16683e-06
5.88416e-06
5.59841e-06
5.34809e-06
5.12949e-06
4.93781e-06
4.76962e-06
4.62007e-06
4.48497e-06
4.3614e-06
4.24719e-06
4.14055e-06
4.04013e-06
3.94486e-06
3.85388e-06
3.76646e-06
3.68197e-06
3.59982e-06
3.51942e-06
3.44008e-06
3.36091e-06
3.28064e-06
3.19727e-06
3.10804e-06
3.00858e-06
2.89307e-06
2.75563e-06
2.58849e-06
3.99373e-06
4.71044e-06
5.31376e-06
5.38597e-06
5.2844e-06
5.13681e-06
4.92103e-06
4.69218e-06
4.48803e-06
4.30773e-06
4.1468e-06
4.00306e-06
3.87347e-06
3.75508e-06
3.64585e-06
3.5443e-06
3.44925e-06
3.35974e-06
3.27499e-06
3.1943e-06
3.11708e-06
3.04278e-06
2.97082e-06
2.9006e-06
2.83141e-06
2.7623e-06
2.69201e-06
2.61882e-06
2.54026e-06
2.45324e-06
2.35468e-06
2.24258e-06
2.11446e-06
3.2347e-06
3.83785e-06
4.37084e-06
4.48438e-06
4.43122e-06
4.33252e-06
4.17294e-06
3.98948e-06
3.81691e-06
3.65963e-06
3.5163e-06
3.38692e-06
3.27015e-06
3.16391e-06
3.06655e-06
2.97675e-06
2.89337e-06
2.81543e-06
2.74212e-06
2.67277e-06
2.60675e-06
2.54351e-06
2.48249e-06
2.42307e-06
2.36457e-06
2.30613e-06
2.24669e-06
2.18492e-06
2.11923e-06
2.0481e-06
1.97052e-06
1.88753e-06
1.8007e-06
2.64874e-06
3.16238e-06
3.64298e-06
3.79141e-06
3.78366e-06
3.72322e-06
3.603e-06
3.45144e-06
3.30166e-06
3.16208e-06
3.03327e-06
2.91603e-06
2.80983e-06
2.71323e-06
2.6249e-06
2.54374e-06
2.46879e-06
2.39922e-06
2.3343e-06
2.27341e-06
2.21597e-06
2.16144e-06
2.10929e-06
2.05895e-06
2.00981e-06
1.96119e-06
1.91231e-06
1.86238e-06
1.81069e-06
1.75697e-06
1.70197e-06
1.6486e-06
1.60072e-06
2.18622e-06
2.63166e-06
3.07354e-06
3.24667e-06
3.27394e-06
3.24349e-06
3.15642e-06
3.03518e-06
2.90867e-06
2.78689e-06
2.67183e-06
2.56517e-06
2.46747e-06
2.37814e-06
2.29639e-06
2.22148e-06
2.15268e-06
2.08929e-06
2.03067e-06
1.97624e-06
1.92547e-06
1.87784e-06
1.83288e-06
1.7901e-06
1.74903e-06
1.70919e-06
1.67017e-06
1.63169e-06
1.5938e-06
1.55715e-06
1.52357e-06
1.4966e-06
1.48073e-06
1.81352e-06
2.20811e-06
2.62126e-06
2.81378e-06
2.87138e-06
2.86754e-06
2.80837e-06
2.71237e-06
2.60494e-06
2.49745e-06
2.39353e-06
2.29574e-06
2.20537e-06
2.12245e-06
2.04655e-06
1.97715e-06
1.91369e-06
1.85558e-06
1.80227e-06
1.75327e-06
1.70809e-06
1.66633e-06
1.62756e-06
1.59143e-06
1.55762e-06
1.52589e-06
1.49614e-06
1.46852e-06
1.44359e-06
1.42253e-06
1.40754e-06
1.40189e-06
1.40968e-06
1.50717e-06
1.86544e-06
2.25813e-06
2.46654e-06
2.54947e-06
2.56783e-06
2.53139e-06
2.45674e-06
2.3664e-06
2.27222e-06
2.17888e-06
2.08945e-06
2.00574e-06
1.92832e-06
1.85715e-06
1.79202e-06
1.73258e-06
1.6784e-06
1.62909e-06
1.58421e-06
1.5434e-06
1.50629e-06
1.47259e-06
1.44205e-06
1.41449e-06
1.38987e-06
1.36832e-06
1.35026e-06
1.33649e-06
1.32834e-06
1.32788e-06
1.33768e-06
1.36106e-06
1.2505e-06
1.58487e-06
1.96377e-06
2.18563e-06
2.29021e-06
2.32818e-06
2.31149e-06
2.25554e-06
2.1803e-06
2.09766e-06
2.01321e-06
1.9306e-06
1.8522e-06
1.77905e-06
1.71153e-06
1.64967e-06
1.59332e-06
1.54221e-06
1.49602e-06
1.45444e-06
1.41715e-06
1.3839e-06
1.35446e-06
1.32868e-06
1.30651e-06
1.28803e-06
1.27351e-06
1.26346e-06
1.25874e-06
1.26054e-06
1.27056e-06
1.29058e-06
1.32316e-06
1.03149e-06
1.35294e-06
1.72377e-06
1.95748e-06
2.08073e-06
2.13596e-06
2.13625e-06
2.09629e-06
2.03416e-06
1.96167e-06
1.88509e-06
1.80855e-06
1.73479e-06
1.66528e-06
1.6007e-06
1.54132e-06
1.4872e-06
1.43821e-06
1.39416e-06
1.35483e-06
1.32001e-06
1.28953e-06
1.26322e-06
1.24103e-06
1.22298e-06
1.2092e-06
1.20002e-06
1.19592e-06
1.19766e-06
1.20617e-06
1.22272e-06
1.2484e-06
1.28514e-06
8.41424e-07
1.16018e-06
1.52788e-06
1.77223e-06
1.9117e-06
1.98226e-06
1.99748e-06
1.97157e-06
1.92111e-06
1.85765e-06
1.78792e-06
1.71647e-06
1.64639e-06
1.57954e-06
1.51692e-06
1.45906e-06
1.4062e-06
1.35837e-06
1.31551e-06
1.2775e-06
1.24421e-06
1.21552e-06
1.19135e-06
1.17167e-06
1.15653e-06
1.14609e-06
1.14063e-06
1.14056e-06
1.14644e-06
1.15894e-06
1.17892e-06
1.20694e-06
1.2445e-06
6.74151e-07
1.00029e-06
1.36898e-06
1.62298e-06
1.77657e-06
1.86077e-06
1.88914e-06
1.8755e-06
1.83523e-06
1.7796e-06
1.71569e-06
1.64842e-06
1.58121e-06
1.51623e-06
1.45476e-06
1.39756e-06
1.34506e-06
1.29744e-06
1.25476e-06
1.21698e-06
1.18407e-06
1.15596e-06
1.13262e-06
1.11404e-06
1.1003e-06
1.09152e-06
1.08791e-06
1.08976e-06
1.09746e-06
1.11141e-06
1.13214e-06
1.15984e-06
1.19566e-06
5.26021e-07
8.69767e-07
1.24242e-06
1.50502e-06
1.6708e-06
1.76707e-06
1.80705e-06
1.80416e-06
1.77285e-06
1.72408e-06
1.66518e-06
1.60133e-06
1.53624e-06
1.47237e-06
1.41126e-06
1.35391e-06
1.30089e-06
1.25256e-06
1.20908e-06
1.17052e-06
1.13691e-06
1.10824e-06
1.08451e-06
1.06574e-06
1.05199e-06
1.04333e-06
1.03991e-06
1.0419e-06
1.04952e-06
1.06296e-06
1.08251e-06
1.10813e-06
1.14073e-06
3.96938e-07
7.67762e-07
1.1455e-06
1.41535e-06
1.59145e-06
1.69825e-06
1.7484e-06
1.75485e-06
1.73125e-06
1.68826e-06
1.63334e-06
1.57192e-06
1.50796e-06
1.44418e-06
1.38237e-06
1.32373e-06
1.26903e-06
1.21874e-06
1.17317e-06
1.13247e-06
1.09675e-06
1.06604e-06
1.0404e-06
1.01985e-06
1.00443e-06
9.94198e-07
9.89215e-07
9.89562e-07
9.9532e-07
1.00656e-06
1.02334e-06
1.0455e-06
1.07371e-06
2.94422e-07
6.9593e-07
1.07717e-06
1.35237e-06
1.53689e-06
1.65273e-06
1.71174e-06
1.7263e-06
1.70941e-06
1.67142e-06
1.61985e-06
1.56035e-06
1.49706e-06
1.43292e-06
1.36992e-06
1.30945e-06
1.25242e-06
1.19944e-06
1.1509e-06
1.10706e-06
1.06809e-06
1.0341e-06
1.00516e-06
9.81334e-07
9.62662e-07
9.49186e-07
9.40938e-07
9.3794e-07
9.40194e-07
9.47683e-07
9.60365e-07
9.78034e-07
1.0012e-06
2.4236e-07
6.57716e-07
1.03754e-06
1.31558e-06
1.50647e-06
1.62975e-06
1.69615e-06
1.71737e-06
1.70579e-06
1.67143e-06
1.62186e-06
1.56286e-06
1.49878e-06
1.43277e-06
1.36704e-06
1.30316e-06
1.24221e-06
1.18491e-06
1.13179e-06
1.08317e-06
1.0393e-06
1.00034e-06
9.66407e-07
9.37603e-07
9.13993e-07
8.95628e-07
8.82537e-07
8.74727e-07
8.72163e-07
8.74789e-07
8.82486e-07
8.95004e-07
9.12703e-07
2.69484e-07
6.56653e-07
1.02757e-06
1.30542e-06
1.5007e-06
1.63005e-06
1.70286e-06
1.73005e-06
1.7234e-06
1.69261e-06
1.64519e-06
1.58699e-06
1.52246e-06
1.4549e-06
1.38665e-06
1.31941e-06
1.25438e-06
1.1924e-06
1.13405e-06
1.07976e-06
1.02984e-06
9.84503e-07
9.43944e-07
9.08309e-07
8.77727e-07
8.5231e-07
8.32141e-07
8.17286e-07
8.07759e-07
8.03558e-07
8.04583e-07
8.10698e-07
8.22119e-07
3.62405e-07
6.94276e-07
1.04855e-06
1.32297e-06
1.52034e-06
1.65378e-06
1.73095e-06
1.76184e-06
1.75765e-06
1.72782e-06
1.67988e-06
1.6198e-06
1.55224e-06
1.48066e-06
1.40761e-06
1.33491e-06
1.26387e-06
1.19543e-06
1.13023e-06
1.06873e-06
1.01128e-06
9.58131e-07
9.09501e-07
8.65586e-07
8.26572e-07
7.92646e-07
7.63991e-07
7.4078e-07
7.23144e-07
7.11192e-07
7.04902e-07
7.04199e-07
7.09254e-07
4.92383e-07
7.69442e-07
1.10191e-06
1.37037e-06
1.56855e-06
1.70586e-06
1.78801e-06
1.82392e-06
1.82407e-06
1.79746e-06
1.75137e-06
1.6917e-06
1.62313e-06
1.5492e-06
1.47256e-06
1.39517e-06
1.31847e-06
1.24348e-06
1.17095e-06
1.1014e-06
1.03521e-06
9.72696e-07
9.14091e-07
8.59628e-07
8.09539e-07
7.64085e-07
7.23557e-07
6.88292e-07
6.58631e-07
6.34966e-07
6.17544e-07
6.06727e-07
6.02647e-07
6.47772e-07
8.80701e-07
1.18981e-06
1.44982e-06
1.64577e-06
1.78304e-06
1.86521e-06
1.90033e-06
1.89863e-06
1.86912e-06
1.81921e-06
1.75498e-06
1.68123e-06
1.60163e-06
1.5189e-06
1.43503e-06
1.35145e-06
1.26919e-06
1.18895e-06
1.11122e-06
1.03634e-06
9.64571e-07
8.96098e-07
8.31112e-07
7.69818e-07
7.12477e-07
6.5943e-07
6.11132e-07
5.68141e-07
5.3118e-07
5.00941e-07
4.78301e-07
4.63923e-07
8.27123e-07
1.0264e-06
1.31388e-06
1.56633e-06
1.76292e-06
1.90554e-06
1.99503e-06
2.0376e-06
2.04229e-06
2.01737e-06
1.96986e-06
1.90577e-06
1.83008e-06
1.7467e-06
1.65862e-06
1.56812e-06
1.47689e-06
1.38613e-06
1.29669e-06
1.20916e-06
1.12391e-06
1.0412e-06
9.6118e-07
8.83959e-07
8.09633e-07
7.38327e-07
6.70221e-07
6.05611e-07
5.44927e-07
4.88907e-07
4.38411e-07
3.95173e-07
3.60279e-07
1.03571e-06
1.21225e-06
1.48154e-06
1.72257e-06
1.91021e-06
2.04419e-06
2.12461e-06
2.15811e-06
2.15449e-06
2.12236e-06
2.0687e-06
1.99936e-06
1.91902e-06
1.83129e-06
1.73891e-06
1.64395e-06
1.54795e-06
1.45201e-06
1.35694e-06
1.26328e-06
1.17139e-06
1.08148e-06
9.93687e-07
9.08051e-07
8.24584e-07
7.43277e-07
6.64119e-07
5.87129e-07
5.12357e-07
4.39988e-07
3.70216e-07
3.03923e-07
2.41742e-07
1.27787e-06
1.43481e-06
1.69179e-06
1.93431e-06
2.1352e-06
2.2887e-06
2.38855e-06
2.4375e-06
2.44388e-06
2.41613e-06
2.36185e-06
2.28788e-06
2.19996e-06
2.10267e-06
1.9995e-06
1.89309e-06
1.78537e-06
1.67773e-06
1.57111e-06
1.46615e-06
1.36323e-06
1.2626e-06
1.16436e-06
1.06854e-06
9.75123e-07
8.84059e-07
7.95292e-07
7.08774e-07
6.24445e-07
5.42344e-07
4.62304e-07
3.84893e-07
3.08459e-07
1.57433e-06
1.72857e-06
1.97344e-06
2.18987e-06
2.35676e-06
2.47683e-06
2.54933e-06
2.57974e-06
2.57638e-06
2.54577e-06
2.49307e-06
2.42298e-06
2.33964e-06
2.24657e-06
2.14667e-06
2.04234e-06
1.9355e-06
1.82768e-06
1.72003e-06
1.6134e-06
1.50842e-06
1.40552e-06
1.305e-06
1.20706e-06
1.11183e-06
1.01943e-06
9.29956e-07
8.43567e-07
7.6045e-07
6.80922e-07
6.05326e-07
5.34574e-07
4.68599e-07
1.91716e-06
2.04892e-06
2.30784e-06
2.5772e-06
2.81376e-06
2.99521e-06
3.10674e-06
3.1529e-06
3.14723e-06
3.10226e-06
3.02831e-06
2.93399e-06
2.82607e-06
2.70948e-06
2.58779e-06
2.46358e-06
2.33866e-06
2.21432e-06
2.09149e-06
1.97081e-06
1.85273e-06
1.73757e-06
1.62556e-06
1.51689e-06
1.41168e-06
1.31009e-06
1.21227e-06
1.11841e-06
1.02876e-06
9.43709e-07
8.63512e-07
7.89138e-07
7.19545e-07
2.40097e-06
2.56522e-06
2.77032e-06
2.91567e-06
3.03082e-06
3.13617e-06
3.22067e-06
3.27604e-06
3.30032e-06
3.29287e-06
3.25525e-06
3.19148e-06
3.10655e-06
3.00535e-06
2.89229e-06
2.7712e-06
2.64522e-06
2.51683e-06
2.38792e-06
2.25996e-06
2.13401e-06
2.01085e-06
1.89103e-06
1.77499e-06
1.66302e-06
1.55538e-06
1.45232e-06
1.35408e-06
1.26097e-06
1.17338e-06
1.09167e-06
1.01675e-06
9.47966e-07
2.88031e-06
3.00017e-06
3.39818e-06
3.81543e-06
4.12988e-06
4.3199e-06
4.39454e-06
4.38476e-06
4.32042e-06
4.21976e-06
4.09403e-06
3.95133e-06
3.7973e-06
3.63589e-06
3.47022e-06
3.30288e-06
3.13605e-06
2.97158e-06
2.81096e-06
2.65539e-06
2.50576e-06
2.36274e-06
2.22678e-06
2.09814e-06
1.97696e-06
1.86332e-06
1.75719e-06
1.65856e-06
1.56739e-06
1.48377e-06
1.40762e-06
1.33978e-06
1.27852e-06
3.92322e-06
4.03659e-06
3.95777e-06
3.88833e-06
3.99474e-06
4.20693e-06
4.40159e-06
4.52875e-06
4.58494e-06
4.58004e-06
4.53079e-06
4.45563e-06
4.36952e-06
4.28288e-06
4.20218e-06
4.13072e-06
4.06953e-06
4.01818e-06
3.97551e-06
3.94006e-06
3.91032e-06
3.88497e-06
3.86282e-06
3.84292e-06
3.82447e-06
3.80682e-06
3.78943e-06
3.77182e-06
3.75369e-06
3.7349e-06
3.71545e-06
3.69672e-06
3.67742e-06
4.38585e-06
4.9637e-06
5.94383e-06
6.42709e-06
6.53908e-06
6.50867e-06
6.49131e-06
6.59359e-06
6.84663e-06
7.21925e-06
7.66158e-06
8.12854e-06
8.58552e-06
9.00912e-06
9.38574e-06
9.70892e-06
9.97698e-06
1.01913e-05
1.03551e-05
1.04726e-05
1.05483e-05
1.05869e-05
1.05929e-05
1.05703e-05
1.05229e-05
1.04537e-05
1.03655e-05
1.02604e-05
1.01404e-05
1.00065e-05
9.86075e-06
9.70501e-06
9.54142e-06
7.57973e-06
5.84518e-06
4.6332e-06
6.21159e-06
8.93928e-06
1.16502e-05
1.39844e-05
1.58797e-05
1.73341e-05
1.83608e-05
1.89956e-05
1.92858e-05
1.92803e-05
1.9028e-05
1.85759e-05
1.79666e-05
1.72378e-05
1.64221e-05
1.55467e-05
1.46344e-05
1.37032e-05
1.27677e-05
1.18392e-05
1.09261e-05
1.00346e-05
9.16919e-06
8.33234e-06
7.52497e-06
6.74725e-06
5.99596e-06
5.27214e-06
4.56363e-06
3.88518e-06
8.58964e-06
1.47208e-05
1.88142e-05
2.12072e-05
2.22822e-05
2.17907e-05
1.99095e-05
1.70954e-05
1.38291e-05
1.07662e-05
8.9805e-06
9.54812e-06
1.20967e-05
1.5509e-05
1.91247e-05
2.26551e-05
2.59731e-05
2.90236e-05
3.17864e-05
3.42605e-05
3.64547e-05
3.83841e-05
4.00663e-05
4.15201e-05
4.27643e-05
4.38173e-05
4.46967e-05
4.54199e-05
4.60038e-05
4.64696e-05
4.68327e-05
4.71522e-05
4.74171e-05
3.46681e-05
3.72473e-05
4.67068e-05
6.18677e-05
7.76191e-05
9.30706e-05
0.000107519
0.000120255
0.000131089
0.000140064
0.000147291
0.00015293
0.000157168
0.000160191
0.000162172
0.00016327
0.000163627
0.000163365
0.000162592
0.000161399
0.000159864
0.000158051
0.000156016
0.000153805
0.000151456
0.000148999
0.000146461
0.000143859
0.000141212
0.000138525
0.000135799
0.000133126
0.00013052
0.000608464
0.00058251
0.000556858
0.000530348
0.000504279
0.000478971
0.000454463
0.000431028
0.000408847
0.000387978
0.000368439
0.000350215
0.000333259
0.000317506
0.000302878
0.000289291
0.000276664
0.000264913
0.00025396
0.000243733
0.000234164
0.000225191
0.000216758
0.000208815
0.000201317
0.000194223
0.000187495
0.000181099
0.000174996
0.000169165
0.000163476
0.000158462
0.00015389
8.84818e-05
8.72809e-05
8.42666e-05
8.12883e-05
7.64385e-05
6.96143e-05
6.31917e-05
5.95176e-05
5.70015e-05
5.25911e-05
4.48765e-05
3.41945e-05
2.08427e-05
1.04098e-05
1.50987e-05
2.7192e-05
2.35411e-05
2.35958e-05
4.19501e-05
5.00253e-05
4.78918e-05
4.33472e-05
4.03562e-05
3.86941e-05
3.90432e-05
4.24012e-05
4.81151e-05
5.71881e-05
5.6649e-05
4.59101e-05
3.48964e-05
2.88684e-05
2.61408e-05
2.3785e-05
2.06706e-05
1.70276e-05
1.38823e-05
1.24598e-05
1.29337e-05
1.43409e-05
1.76323e-05
2.6203e-05
3.6324e-05
3.95244e-05
3.57885e-05
3.13207e-05
2.92935e-05
2.84069e-05
2.66382e-05
2.37539e-05
2.07104e-05
1.81969e-05
1.63627e-05
1.52128e-05
1.46976e-05
1.45562e-05
1.50431e-05
1.74724e-05
2.26729e-05
3.58854e-05
5.40559e-05
6.31031e-05
5.90144e-05
4.71048e-05
3.31449e-05
2.0192e-05
9.14765e-06
8.01483e-07
1.08151e-05
2.39398e-05
3.9752e-05
5.19501e-05
5.40512e-05
4.66992e-05
3.59883e-05
2.69938e-05
2.08466e-05
1.65436e-05
1.32112e-05
1.05085e-05
8.30899e-06
6.52495e-06
5.07745e-06
3.90273e-06
2.9539e-06
2.19599e-06
1.60048e-06
1.14375e-06
8.10076e-07
5.9458e-07
4.90117e-07
4.61749e-07
4.58361e-07
4.47076e-07
4.26128e-07
3.91721e-07
3.79757e-07
3.43324e-07
4.00937e-07
3.36012e-07
0.000113899
0.000111876
0.000110788
0.000110609
0.000109302
0.000104076
9.35326e-05
7.99902e-05
6.74373e-05
5.68215e-05
4.65095e-05
3.50578e-05
2.56478e-05
2.66649e-05
3.52282e-05
3.16024e-05
1.63526e-05
3.20168e-05
4.69823e-05
4.88559e-05
4.48348e-05
4.08857e-05
3.85819e-05
3.73906e-05
3.73349e-05
4.02977e-05
4.49443e-05
5.4014e-05
5.86061e-05
5.08476e-05
3.82903e-05
2.94089e-05
2.54351e-05
2.31041e-05
2.03367e-05
1.70869e-05
1.42279e-05
1.26718e-05
1.26971e-05
1.37226e-05
1.77767e-05
2.84079e-05
3.8452e-05
3.99141e-05
3.524e-05
3.10762e-05
2.94944e-05
2.86061e-05
2.66029e-05
2.36336e-05
2.06912e-05
1.83189e-05
1.65906e-05
1.54965e-05
1.50231e-05
1.49297e-05
1.52855e-05
1.74502e-05
2.22724e-05
3.40096e-05
5.2973e-05
6.46983e-05
6.25428e-05
5.11713e-05
3.6884e-05
2.32966e-05
1.17933e-05
5.2676e-06
1.27454e-05
2.6405e-05
4.26618e-05
5.41839e-05
5.48128e-05
4.63161e-05
3.53729e-05
2.67099e-05
2.08817e-05
1.67189e-05
1.34323e-05
1.07429e-05
8.53838e-06
6.7336e-06
5.25422e-06
4.04257e-06
3.05708e-06
2.26634e-06
1.64357e-06
1.1658e-06
8.17361e-07
5.93603e-07
4.88611e-07
4.65669e-07
4.68954e-07
4.63084e-07
4.45958e-07
4.14198e-07
4.03783e-07
3.68564e-07
4.26471e-07
3.59935e-07
0.000101347
0.000102172
0.000103363
0.00010549
0.000108427
0.000111115
0.000110535
0.000103753
9.13259e-05
7.68694e-05
6.3405e-05
5.34428e-05
4.97925e-05
4.88306e-05
3.93223e-05
1.70768e-05
2.28934e-05
4.23637e-05
4.83392e-05
4.57e-05
4.14741e-05
3.84027e-05
3.66084e-05
3.57592e-05
3.55431e-05
3.76566e-05
4.17887e-05
4.94431e-05
5.81042e-05
5.57592e-05
4.39688e-05
3.19092e-05
2.49e-05
2.16836e-05
1.91671e-05
1.63744e-05
1.37438e-05
1.19799e-05
1.1532e-05
1.25018e-05
1.91293e-05
3.20481e-05
4.08366e-05
3.9936e-05
3.44924e-05
3.08751e-05
2.97492e-05
2.8754e-05
2.64723e-05
2.34462e-05
2.06321e-05
1.8409e-05
1.67893e-05
1.57515e-05
1.53068e-05
1.52657e-05
1.55401e-05
1.73274e-05
2.17539e-05
3.18851e-05
5.0977e-05
6.56032e-05
6.609e-05
5.5831e-05
4.15821e-05
2.76798e-05
1.62442e-05
1.06843e-05
1.63258e-05
2.99489e-05
4.62589e-05
5.65978e-05
5.53599e-05
4.56306e-05
3.45806e-05
2.63735e-05
2.09154e-05
1.69169e-05
1.36909e-05
1.10178e-05
8.80244e-06
6.96817e-06
5.44953e-06
4.19643e-06
3.17234e-06
2.34822e-06
1.69755e-06
1.19618e-06
8.27524e-07
5.88692e-07
4.78939e-07
4.61939e-07
4.74541e-07
4.76629e-07
4.65156e-07
4.36969e-07
4.2835e-07
3.93871e-07
4.51449e-07
3.83577e-07
7.13757e-05
7.30939e-05
7.5503e-05
7.88054e-05
8.2911e-05
8.75465e-05
9.19213e-05
9.41737e-05
9.21525e-05
8.5512e-05
7.62795e-05
6.68595e-05
5.58335e-05
3.86983e-05
1.37901e-05
1.88459e-05
3.90924e-05
4.67693e-05
4.53401e-05
4.13385e-05
3.81032e-05
3.59245e-05
3.45275e-05
3.39096e-05
3.3832e-05
3.51618e-05
3.86819e-05
4.45134e-05
5.46361e-05
5.8774e-05
5.11546e-05
3.7978e-05
2.67844e-05
2.03357e-05
1.68029e-05
1.40017e-05
1.13549e-05
9.30737e-06
8.68865e-06
1.18635e-05
2.32478e-05
3.70236e-05
4.28522e-05
3.92354e-05
3.35252e-05
3.07464e-05
3.00073e-05
2.87648e-05
2.62026e-05
2.31894e-05
2.05416e-05
1.84726e-05
1.69603e-05
1.59809e-05
1.55591e-05
1.55679e-05
1.58217e-05
1.72538e-05
2.12633e-05
2.97661e-05
4.81057e-05
6.56117e-05
6.95192e-05
6.11015e-05
4.73241e-05
3.3363e-05
2.21409e-05
1.70562e-05
2.16341e-05
3.48826e-05
5.05931e-05
5.89853e-05
5.54321e-05
4.45064e-05
3.36057e-05
2.60113e-05
2.09587e-05
1.71347e-05
1.39786e-05
1.13247e-05
9.09516e-06
7.22551e-06
5.66171e-06
4.36229e-06
3.29569e-06
2.43494e-06
1.75379e-06
1.22783e-06
8.40298e-07
5.89195e-07
4.77082e-07
4.66624e-07
4.87833e-07
4.96986e-07
4.90491e-07
4.65452e-07
4.58209e-07
4.24097e-07
4.80856e-07
4.1114e-07
2.44715e-05
2.63024e-05
2.88358e-05
3.22396e-05
3.65082e-05
4.1373e-05
4.6294e-05
5.04469e-05
5.25629e-05
5.12299e-05
4.57332e-05
3.51387e-05
1.88345e-05
2.86218e-06
2.40381e-05
3.92228e-05
4.48599e-05
4.353e-05
4.00475e-05
3.71463e-05
3.50615e-05
3.34836e-05
3.23792e-05
3.19214e-05
3.20472e-05
3.29349e-05
3.5656e-05
4.00605e-05
4.88403e-05
5.79248e-05
5.71732e-05
4.68935e-05
3.3715e-05
2.27858e-05
1.54125e-05
1.03705e-05
6.21076e-06
3.21873e-06
6.30002e-06
1.60919e-05
3.07052e-05
4.23217e-05
4.36616e-05
3.77108e-05
3.25228e-05
3.07645e-05
3.02144e-05
2.85844e-05
2.57906e-05
2.28689e-05
2.04116e-05
1.84963e-05
1.709e-05
1.61709e-05
1.57657e-05
1.58116e-05
1.60774e-05
1.71894e-05
2.0744e-05
2.78272e-05
4.44071e-05
6.42818e-05
7.23097e-05
6.66616e-05
5.39817e-05
4.03043e-05
2.94006e-05
2.45891e-05
2.85082e-05
4.11355e-05
5.54428e-05
6.10452e-05
5.48365e-05
4.29123e-05
3.24738e-05
2.56213e-05
2.09953e-05
1.73604e-05
1.42861e-05
1.16546e-05
9.40773e-06
7.498e-06
5.88537e-06
4.53763e-06
3.42786e-06
2.53045e-06
1.81876e-06
1.26703e-06
8.57485e-07
5.89682e-07
4.72064e-07
4.68458e-07
5.00095e-07
5.18126e-07
5.1808e-07
4.97289e-07
4.92115e-07
4.58869e-07
5.1487e-07
4.43924e-07
6.24799e-06
5.22909e-06
3.73161e-06
2.07001e-06
2.95904e-06
6.30314e-06
1.01098e-05
1.34886e-05
1.56673e-05
1.62178e-05
1.58444e-05
1.7891e-05
2.48731e-05
3.38453e-05
4.01922e-05
4.18408e-05
4.00409e-05
3.73795e-05
3.5284e-05
3.36837e-05
3.22675e-05
3.10737e-05
3.0255e-05
2.9953e-05
3.02471e-05
3.10027e-05
3.29216e-05
3.62991e-05
4.25108e-05
5.28588e-05
5.90075e-05
5.52566e-05
4.45616e-05
3.22772e-05
2.16965e-05
1.36012e-05
8.12891e-06
7.97923e-06
1.46456e-05
2.65976e-05
3.98637e-05
4.62261e-05
4.26118e-05
3.55854e-05
3.17407e-05
3.09515e-05
3.02729e-05
2.8167e-05
2.5248e-05
2.24971e-05
2.02461e-05
1.8483e-05
1.71807e-05
1.63231e-05
1.59302e-05
1.59951e-05
1.62968e-05
1.71574e-05
2.01772e-05
2.6162e-05
4.01526e-05
6.12814e-05
7.38338e-05
7.20413e-05
6.13468e-05
4.84599e-05
3.80254e-05
3.33907e-05
3.69079e-05
4.86138e-05
6.04989e-05
6.24032e-05
5.33692e-05
4.08409e-05
3.12303e-05
2.52226e-05
2.10353e-05
1.76026e-05
1.4619e-05
1.201e-05
9.7418e-06
7.78743e-06
6.12234e-06
4.72347e-06
3.56789e-06
2.63088e-06
1.88532e-06
1.30498e-06
8.72224e-07
5.8837e-07
4.6784e-07
4.73931e-07
5.17357e-07
5.44726e-07
5.51285e-07
5.3477e-07
5.31629e-07
4.99195e-07
5.54386e-07
4.82341e-07
8.46411e-06
7.97015e-06
7.31844e-06
6.79518e-06
7.04448e-06
8.72391e-06
1.17798e-05
1.56542e-05
1.97531e-05
2.3718e-05
2.75918e-05
3.13461e-05
3.44747e-05
3.61766e-05
3.61177e-05
3.49272e-05
3.36178e-05
3.26095e-05
3.16919e-05
3.06654e-05
2.96136e-05
2.87439e-05
2.81985e-05
2.8041e-05
2.84145e-05
2.92087e-05
3.06071e-05
3.31235e-05
3.72063e-05
4.54112e-05
5.52448e-05
5.89823e-05
5.45575e-05
4.53342e-05
3.53914e-05
2.73835e-05
2.29583e-05
2.34338e-05
2.94233e-05
3.94665e-05
4.74468e-05
4.69121e-05
3.96639e-05
3.34379e-05
3.14231e-05
3.12105e-05
3.00449e-05
2.74963e-05
2.46064e-05
2.20901e-05
2.00489e-05
1.8434e-05
1.72322e-05
1.64356e-05
1.6053e-05
1.61159e-05
1.64599e-05
1.71577e-05
1.95862e-05
2.4736e-05
3.58094e-05
5.6525e-05
7.34111e-05
7.65324e-05
6.89554e-05
5.75819e-05
4.78887e-05
4.3453e-05
4.66538e-05
5.68602e-05
6.51068e-05
6.25383e-05
5.08655e-05
3.83643e-05
2.99451e-05
2.48331e-05
2.10856e-05
1.7866e-05
1.49792e-05
1.23917e-05
1.00985e-05
8.0959e-06
6.37574e-06
4.92378e-06
3.72067e-06
2.74245e-06
1.9614e-06
1.35054e-06
8.91429e-07
5.87138e-07
4.60426e-07
4.76792e-07
5.33859e-07
5.72219e-07
5.86665e-07
5.7532e-07
5.74786e-07
5.43449e-07
5.97947e-07
5.25085e-07
4.66215e-06
4.28617e-06
3.88427e-06
3.80768e-06
4.59605e-06
6.46397e-06
9.23615e-06
1.26583e-05
1.64193e-05
2.01541e-05
2.34938e-05
2.61859e-05
2.80081e-05
2.89834e-05
2.93847e-05
2.95143e-05
2.94589e-05
2.91481e-05
2.85671e-05
2.78273e-05
2.70938e-05
2.6513e-05
2.61869e-05
2.61549e-05
2.65438e-05
2.73885e-05
2.85928e-05
3.04819e-05
3.32626e-05
3.83821e-05
4.73883e-05
5.58878e-05
5.86877e-05
5.55529e-05
4.94012e-05
4.34095e-05
3.98787e-05
4.00939e-05
4.42378e-05
4.95246e-05
5.00899e-05
4.37183e-05
3.58241e-05
3.20176e-05
3.16122e-05
3.12889e-05
2.94136e-05
2.66076e-05
2.39076e-05
2.16601e-05
1.98229e-05
1.83507e-05
1.72451e-05
1.65062e-05
1.61338e-05
1.61753e-05
1.65492e-05
1.71714e-05
1.90324e-05
2.34382e-05
3.18824e-05
5.02807e-05
7.0397e-05
7.91255e-05
7.59327e-05
6.7057e-05
5.85783e-05
5.44766e-05
5.72382e-05
6.50094e-05
6.83433e-05
6.0924e-05
4.72914e-05
3.5629e-05
2.86852e-05
2.44665e-05
2.11543e-05
1.81563e-05
1.53693e-05
1.28015e-05
1.04798e-05
8.42613e-06
6.64818e-06
5.14019e-06
3.88617e-06
2.86276e-06
2.0421e-06
1.39694e-06
9.0867e-07
5.82495e-07
4.51162e-07
4.81565e-07
5.54486e-07
6.04823e-07
6.2762e-07
6.21599e-07
6.23642e-07
5.93172e-07
6.46793e-07
5.72717e-07
3.17077e-06
2.93263e-06
2.78883e-06
3.05911e-06
4.01974e-06
5.6602e-06
7.84209e-06
1.04276e-05
1.32718e-05
1.61697e-05
1.88782e-05
2.12041e-05
2.30701e-05
2.44803e-05
2.54437e-05
2.59765e-05
2.61322e-05
2.59925e-05
2.56478e-05
2.51939e-05
2.47347e-05
2.43753e-05
2.42085e-05
2.42832e-05
2.46779e-05
2.55028e-05
2.66654e-05
2.82365e-05
3.03257e-05
3.33483e-05
3.9105e-05
4.75862e-05
5.4835e-05
5.78677e-05
5.70465e-05
5.4521e-05
5.24936e-05
5.21442e-05
5.30707e-05
5.2196e-05
4.64684e-05
3.81454e-05
3.27947e-05
3.1755e-05
3.19658e-05
3.08637e-05
2.83622e-05
2.55862e-05
2.31927e-05
2.12166e-05
1.95709e-05
1.82344e-05
1.72196e-05
1.65328e-05
1.61711e-05
1.61784e-05
1.65541e-05
1.7163e-05
1.85698e-05
2.21909e-05
2.8685e-05
4.3289e-05
6.44786e-05
7.86659e-05
8.09663e-05
7.5757e-05
6.91735e-05
6.56365e-05
6.75708e-05
7.1663e-05
6.90826e-05
5.71804e-05
4.28246e-05
3.28477e-05
2.75098e-05
2.41359e-05
2.12498e-05
1.8478e-05
1.57919e-05
1.32419e-05
1.08895e-05
8.78217e-06
6.94353e-06
5.3761e-06
4.06748e-06
2.99535e-06
2.13209e-06
1.44975e-06
9.29118e-07
5.76899e-07
4.3837e-07
4.84885e-07
5.75961e-07
6.39905e-07
6.72212e-07
6.72271e-07
6.77314e-07
6.47807e-07
7.00516e-07
6.25038e-07
2.62784e-06
2.53045e-06
2.58971e-06
3.01794e-06
3.94401e-06
5.34836e-06
7.14875e-06
9.24884e-06
1.15382e-05
1.3886e-05
1.61593e-05
1.82257e-05
1.99647e-05
2.13031e-05
2.22363e-05
2.28145e-05
2.31019e-05
2.31532e-05
2.30229e-05
2.27816e-05
2.2518e-05
2.23243e-05
2.22809e-05
2.24406e-05
2.28558e-05
2.36189e-05
2.47307e-05
2.61547e-05
2.79491e-05
3.0065e-05
3.31927e-05
3.86332e-05
4.56715e-05
5.16506e-05
5.49467e-05
5.57967e-05
5.53845e-05
5.43298e-05
5.19473e-05
4.6653e-05
3.91432e-05
3.34038e-05
3.18092e-05
3.22658e-05
3.18311e-05
2.97531e-05
2.70162e-05
2.45352e-05
2.24895e-05
2.07635e-05
1.92938e-05
1.80852e-05
1.71552e-05
1.6514e-05
1.61622e-05
1.61311e-05
1.64737e-05
1.70928e-05
1.8206e-05
2.10197e-05
2.61804e-05
3.66469e-05
5.60461e-05
7.42222e-05
8.24492e-05
8.19723e-05
7.80682e-05
7.53637e-05
7.58162e-05
7.49972e-05
6.63254e-05
5.1339e-05
3.78962e-05
3.024e-05
2.64532e-05
2.38492e-05
2.13786e-05
1.88354e-05
1.62507e-05
1.37172e-05
1.13322e-05
9.16842e-06
7.26519e-06
5.63365e-06
4.26528e-06
3.13944e-06
2.22884e-06
1.50511e-06
9.48398e-07
5.66792e-07
4.2152e-07
4.89356e-07
6.01491e-07
6.80359e-07
7.22835e-07
7.29224e-07
7.37278e-07
7.08489e-07
7.60076e-07
6.82711e-07
2.29576e-06
2.32038e-06
2.51639e-06
3.00936e-06
3.86335e-06
5.068e-06
6.57481e-06
8.31726e-06
1.02148e-05
1.21724e-05
1.40802e-05
1.58243e-05
1.73212e-05
1.85334e-05
1.94524e-05
2.00876e-05
2.04673e-05
2.06349e-05
2.06426e-05
2.05526e-05
2.04376e-05
2.03734e-05
2.04264e-05
2.06464e-05
2.10832e-05
2.1793e-05
2.28136e-05
2.41186e-05
2.57449e-05
2.76216e-05
2.96856e-05
3.25348e-05
3.67819e-05
4.17246e-05
4.58373e-05
4.81167e-05
4.84898e-05
4.69691e-05
4.32481e-05
3.78812e-05
3.33392e-05
3.18438e-05
3.23996e-05
3.239e-05
3.07053e-05
2.80915e-05
2.55876e-05
2.35308e-05
2.18064e-05
2.02988e-05
1.89909e-05
1.79028e-05
1.70515e-05
1.64499e-05
1.61055e-05
1.60383e-05
1.63184e-05
1.69299e-05
1.78922e-05
2.00083e-05
2.41281e-05
3.13072e-05
4.64214e-05
6.56604e-05
7.89367e-05
8.36376e-05
8.30384e-05
8.13399e-05
7.95378e-05
7.32405e-05
5.97316e-05
4.405e-05
3.31002e-05
2.79588e-05
2.55224e-05
2.36102e-05
2.15463e-05
1.92335e-05
1.6751e-05
1.42337e-05
1.18142e-05
9.59024e-06
7.61739e-06
5.91594e-06
4.48213e-06
3.2977e-06
2.33546e-06
1.5666e-06
9.70087e-07
5.54264e-07
3.99954e-07
4.93706e-07
6.29713e-07
7.25096e-07
7.78761e-07
7.92059e-07
8.03368e-07
7.75202e-07
8.25525e-07
7.45891e-07
2.10232e-06
2.21548e-06
2.48539e-06
2.98425e-06
3.7485e-06
4.77477e-06
6.0345e-06
7.48223e-06
9.05735e-06
1.06866e-05
1.22901e-05
1.37888e-05
1.51145e-05
1.62191e-05
1.70819e-05
1.77104e-05
1.81307e-05
1.83758e-05
1.8484e-05
1.85047e-05
1.84979e-05
1.85276e-05
1.86516e-05
1.89126e-05
1.9359e-05
2.00339e-05
2.09629e-05
2.21449e-05
2.35899e-05
2.53304e-05