/*--------------------------------*- C++ -*----------------------------------*\
| =========                 |                                                 |
| \\      /  F ield         | OpenFOAM: The Open Source CFD Toolbox           |
|  \\    /   O peration     | Version:  2.1.1                                 |
|   \\  /    A nd           | Web:      www.OpenFOAM.org                      |
|    \\/     M anipulation  |                                                 |
\*---------------------------------------------------------------------------*/
FoamFile
{
    version     2.0;
    format      ascii;
    class       volScalarField;
    location    "0.11";
    object      p;
}
// * * * * * * * * * * * * * * * * * * * * * * * * * * * * * * * * * * * * * //

dimensions      [0 2 -2 0 0 0 0];

internalField   nonuniform List<scalar> 
6820
(
9.09132
-8.74473
-11.7542
-11.9426
-12.1163
-12.0436
-11.987
-11.9991
-12.0452
-12.1101
-12.1852
-12.2652
-12.3477
-12.4314
-12.5157
-12.6001
-12.6844
-12.7685
-12.8521
-12.9352
-13.0177
-13.0995
-13.1807
-13.2614
-13.3417
-13.422
-13.5025
-13.5835
-13.6669
-13.7505
-13.8459
-13.9253
-14.0804
2.41039
-8.56328
-11.4427
-11.7441
-11.9978
-12.0212
-12.0012
-12.0245
-12.0723
-12.1343
-12.2055
-12.2819
-12.3614
-12.4427
-12.5252
-12.6084
-12.6918
-12.7752
-12.8584
-12.9411
-13.0234
-13.1051
-13.1863
-13.267
-13.3473
-13.4272
-13.5074
-13.5881
-13.6705
-13.7536
-13.8441
-13.9244
-14.045
-0.303909
-7.13251
-10.4217
-11.181
-11.6505
-11.8487
-11.9076
-11.9636
-12.0309
-12.1052
-12.1851
-12.2682
-12.3527
-12.4378
-12.5229
-12.6078
-12.6924
-12.7766
-12.8601
-12.9431
-13.0254
-13.107
-13.1879
-13.2683
-13.3481
-13.4274
-13.5067
-13.5859
-13.6655
-13.7438
-13.8219
-13.8815
-13.914
-2.28898
-6.90492
-9.9996
-10.8602
-11.3334
-11.6107
-11.7397
-11.8399
-11.9383
-12.0333
-12.1263
-12.2182
-12.3093
-12.3996
-12.4892
-12.5778
-12.6655
-12.7524
-12.8383
-12.9233
-13.0073
-13.0904
-13.1726
-13.2539
-13.3343
-13.4139
-13.4928
-13.5705
-13.6468
-13.7191
-13.7839
-13.827
-13.8262
-3.92419
-7.00507
-9.60751
-10.5123
-11.0212
-11.3777
-11.5769
-11.7166
-11.8396
-11.9513
-12.056
-12.1571
-12.2551
-12.3508
-12.4445
-12.5367
-12.6274
-12.7168
-12.8048
-12.8915
-12.977
-13.0612
-13.1443
-13.2263
-13.307
-13.3865
-13.4645
-13.5405
-13.6132
-13.6799
-13.7356
-13.77
-13.7648
-5.14649
-7.18566
-9.3563
-10.3017
-10.8297
-11.2134
-11.4475
-11.6101
-11.7492
-11.8737
-11.9881
-12.0964
-12.2004
-12.301
-12.3988
-12.4941
-12.5874
-12.6789
-12.7687
-12.8569
-12.9437
-13.029
-13.1129
-13.1955
-13.2766
-13.356
-13.4335
-13.5081
-13.5786
-13.6423
-13.6949
-13.7302
-13.7384
-6.09677
-7.47167
-9.23853
-10.1467
-10.6623
-11.0541
-11.3184
-11.5065
-11.6637
-11.8018
-11.9261
-12.0417
-12.1513
-12.2562
-12.3574
-12.4556
-12.5513
-12.6448
-12.7364
-12.8261
-12.914
-13.0004
-13.0851
-13.1682
-13.2497
-13.3292
-13.4063
-13.4804
-13.55
-13.6131
-13.6665
-13.7063
-13.7274
-6.84227
-7.77733
-9.18684
-10.0304
-10.5344
-10.9279
-11.2109
-11.4163
-11.5856
-11.7332
-11.8652
-11.9869
-12.1014
-12.2105
-12.3152
-12.4164
-12.5146
-12.6102
-12.7034
-12.7946
-12.8838
-12.9711
-13.0567
-13.1404
-13.2223
-13.3021
-13.3794
-13.4536
-13.5235
-13.5878
-13.6442
-13.6908
-13.7255
-7.43392
-8.08039
-9.19641
-9.95969
-10.4413
-10.8231
-11.1125
-11.3295
-11.5089
-11.6654
-11.805
-11.9328
-12.0524
-12.1656
-12.2738
-12.3778
-12.4784
-12.576
-12.671
-12.7636
-12.854
-12.9424
-13.0288
-13.1133
-13.1958
-13.2761
-13.354
-13.4289
-13.5001
-13.5667
-13.6276
-13.682
-13.7299
-7.90958
-8.36518
-9.24376
-9.91837
-10.371
-10.7369
-11.0272
-11.2522
-11.4391
-11.6023
-11.7479
-11.8808
-12.0045
-12.1213
-12.2325
-12.3392
-12.442
-12.5415
-12.6381
-12.7321
-12.8237
-12.913
-13.0003
-13.0855
-13.1687
-13.2497
-13.3284
-13.4046
-13.4777
-13.5473
-13.6133
-13.6757
-13.7354
-8.29614
-8.62403
-9.31507
-9.90257
-10.3228
-10.6694
-10.9544
-11.1823
-11.3736
-11.5416
-11.692
-11.8293
-11.9569
-12.0772
-12.1914
-12.3006
-12.4057
-12.5071
-12.6053
-12.7006
-12.7934
-12.8838
-12.9719
-13.058
-13.142
-13.2239
-13.3037
-13.3813
-13.4567
-13.5297
-13.6007
-13.6704
-13.7403
-8.61324
-8.85457
-9.39948
-9.90543
-10.2907
-10.6159
-10.8918
-11.1194
-11.3133
-11.4846
-11.6388
-11.7798
-11.9108
-12.0341
-12.1509
-12.2624
-12.3695
-12.4726
-12.5723
-12.669
-12.7628
-12.8542
-12.9432
-13.03
-13.1148
-13.1976
-13.2786
-13.3578
-13.4354
-13.5117
-13.5873
-13.6632
-13.7412
-8.87522
-9.05686
-9.48884
-9.92161
-10.2717
-10.5749
-10.8393
-11.0637
-11.2579
-11.4311
-11.5878
-11.7317
-11.8655
-11.9914
-12.1106
-12.2243
-12.3333
-12.4381
-12.5393
-12.6371
-12.7321
-12.8244
-12.9143
-13.0019
-13.0875
-13.1713
-13.2534
-13.3342
-13.4139
-13.4931
-13.5725
-13.6533
-13.7374
-9.09262
-9.23236
-9.57753
-9.94652
-10.2625
-10.5436
-10.795
-11.0141
-11.2071
-11.3808
-11.5392
-11.6853
-11.8215
-11.9497
-12.0711
-12.1868
-12.2975
-12.4038
-12.5063
-12.6053
-12.7013
-12.7944
-12.885
-12.9734
-13.0597
-13.1443
-13.2275
-13.3096
-13.391
-13.4725
-13.5548
-13.6391
-13.7271
-9.27328
-9.38304
-9.66161
-9.9762
-10.2601
-10.5198
-10.7577
-10.9702
-11.1606
-11.3338
-11.4931
-11.6407
-11.7788
-11.9088
-12.0321
-12.1495
-12.2618
-12.3696
-12.4733
-12.5734
-12.6703
-12.7642
-12.8555
-12.9445
-13.0315
-13.1168
-13.2008
-13.2839
-13.3666
-13.4496
-13.5338
-13.6202
-13.7104
-9.42305
-9.511
-9.73846
-10.0075
-10.262
-10.5016
-10.726
-10.931
-11.1178
-11.2898
-11.4492
-11.5978
-11.7373
-11.869
-11.9939
-12.1129
-12.2266
-12.3357
-12.4405
-12.5416
-12.6392
-12.7338
-12.8257
-12.9152
-13.0027
-13.0884
-13.1729
-13.2565
-13.3399
-13.4237
-13.5087
-13.5959
-13.6864
-9.54635
-9.61815
-9.80636
-10.0376
-10.266
-10.487
-10.6984
-10.8956
-11.0783
-11.2485
-11.4075
-11.5567
-11.6972
-11.8303
-11.9566
-12.077
-12.192
-12.3022
-12.408
-12.5099
-12.6083
-12.7034
-12.7957
-12.8855
-12.9732
-13.0592
-13.1438
-13.2276
-13.3111
-13.3949
-13.4798
-13.5665
-13.656
-9.64646
-9.70618
-9.8642
-10.0647
-10.2701
-10.4743
-10.6736
-10.8631
-11.0415
-11.2094
-11.3677
-11.5171
-11.6585
-11.7926
-11.9201
-12.0417
-12.1579
-12.2691
-12.3758
-12.4785
-12.5774
-12.6729
-12.7654
-12.8554
-12.943
-13.0288
-13.1132
-13.1966
-13.2796
-13.3627
-13.4465
-13.5316
-13.6189
-9.72587
-9.77647
-9.91126
-10.0868
-10.2727
-10.4621
-10.6503
-10.8326
-11.0066
-11.1722
-11.3296
-11.4791
-11.6211
-11.7562
-11.8848
-12.0075
-12.1247
-12.2368
-12.3443
-12.4475
-12.5469
-12.6426
-12.7353
-12.8251
-12.9125
-12.9979
-13.0816
-13.1642
-13.2461
-13.3278
-13.4097
-13.4924
-13.5765
-9.78637
-9.83005
-9.94702
-10.1027
-10.2722
-10.4488
-10.6274
-10.8031
-10.9731
-11.1365
-11.293
-11.4424
-11.5849
-11.7208
-11.8504
-11.9741
-12.0922
-12.2052
-12.3133
-12.4169
-12.5165
-12.6123
-12.7048
-12.7942
-12.8811
-12.9657
-13.0484
-13.1297
-13.2099
-13.2895
-13.3689
-13.4484
-13.5285
-9.82922
-9.86768
-9.97109
-10.1111
-10.2673
-10.4332
-10.6037
-10.7737
-10.9402
-11.1018
-11.2575
-11.407
-11.5501
-11.6869
-11.8175
-11.9422
-12.0612
-12.1749
-12.2835
-12.3875
-12.4872
-12.583
-12.6751
-12.764
-12.85
-12.9335
-13.0149
-13.0945
-13.1726
-13.2496
-13.3259
-13.4017
-13.4773
-9.85523
-9.8898
-9.98304
-10.1111
-10.2568
-10.4141
-10.5781
-10.7436
-10.9073
-11.0675
-11.2228
-11.3726
-11.5163
-11.654
-11.7855
-11.9111
-12.0309
-12.1452
-12.2543
-12.3585
-12.4581
-12.5535
-12.6451
-12.7331
-12.818
-12.9001
-12.9797
-13.0571
-13.1327
-13.2067
-13.2795
-13.3511
-13.4219
-9.86477
-9.89653
-9.98241
-10.1017
-10.2395
-10.3905
-10.5497
-10.712
-10.874
-11.0335
-11.1889
-11.3394
-11.4841
-11.6229
-11.7556
-11.8823
-12.003
-12.118
-12.2275
-12.3319
-12.4314
-12.5264
-12.6173
-12.7043
-12.7879
-12.8683
-12.9458
-13.0208
-13.0936
-13.1643
-13.2332
-13.3004
-13.366
-9.85785
-9.88771
-9.96861
-10.0819
-10.2144
-10.3612
-10.5174
-10.6779
-10.8392
-10.9988
-11.1549
-11.3064
-11.4524
-11.5925
-11.7263
-11.854
-11.9755
-12.0911
-12.2009
-12.3052
-12.4044
-12.4988
-12.5887
-12.6744
-12.7563
-12.8347
-12.9099
-12.9822
-13.0518
-13.1189
-13.1837
-13.2463
-13.3068
-9.83408
-9.86283
-9.94087
-10.0508
-10.1805
-10.3255
-10.4807
-10.6412
-10.8032
-10.9642
-11.1221
-11.2755
-11.4234
-11.5653
-11.7009
-11.8299
-11.9525
-12.0688
-12.179
-12.2834
-12.3822
-12.4759
-12.5648
-12.6491
-12.7292
-12.8055
-12.8781
-12.9475
-13.0137
-13.077
-13.1376
-13.1955
-13.2508
-9.79265
-9.82103
-9.89816
-10.0072
-10.1365
-10.2818
-10.438
-10.6
-10.764
-10.9272
-11.0875
-11.2433
-11.3934
-11.5374
-11.6747
-11.8051
-11.9287
-12.0456
-12.1561
-12.2603
-12.3586
-12.4514
-12.5389
-12.6215
-12.6996
-12.7735
-12.8433
-12.9095
-12.9722
-13.0316
-13.0878
-13.1411
-13.1913
-9.7323
-9.76107
-9.8393
-9.95012
-10.0819
-10.2302
-10.3901
-10.5561
-10.7244
-10.8919
-11.0563
-11.2158
-11.3695
-11.5164
-11.6561
-11.7885
-11.9135
-12.0314
-12.1422
-12.2464
-12.3442
-12.436
-12.5221
-12.603
-12.6789
-12.7502
-12.8171
-12.88
-12.939
-12.9943
-13.0462
-13.0947
-13.1397
-9.6512
-9.68109
-9.76238
-9.87739
-10.0139
-10.1675
-10.3328
-10.5044
-10.678
-10.8506
-11.0197
-11.1836
-11.341
-11.4911
-11.6335
-11.768
-11.8945
-12.0132
-12.1244
-12.2283
-12.3255
-12.4161
-12.5007
-12.5795
-12.6531
-12.7216
-12.7854
-12.8448
-12.9
-12.9513
-12.9988
-13.0427
-13.0831
-9.54692
-9.57895
-9.66602
-9.78894
-9.93442
-10.0976
-10.2727
-10.4537
-10.6363
-10.817
-10.9934
-11.1635
-11.3262
-11.4807
-11.6265
-11.7635
-11.8918
-12.0116
-12.1232
-12.227
-12.3234
-12.4127
-12.4956
-12.5722
-12.6432
-12.7087
-12.7692
-12.825
-12.8763
-12.9234
-12.9664
-13.0055
-13.0408
-9.41592
-9.45082
-9.54572
-9.67875
-9.83489
-10.0089
-10.1949
-10.3865
-10.5789
-10.7686
-10.9531
-11.1304
-11.2992
-11.4587
-11.6086
-11.7487
-11.8792
-12.0003
-12.1124
-12.2161
-12.3117
-12.3997
-12.4806
-12.555
-12.6232
-12.6857
-12.7427
-12.7948
-12.8421
-12.8851
-12.9238
-12.9585
-12.9895
-9.25409
-9.29428
-9.40286
-9.5538
-9.72899
-9.92217
-10.1264
-10.3346
-10.5416
-10.744
-10.9391
-11.1252
-11.3012
-11.4664
-11.6205
-11.7637
-11.8962
-12.0185
-12.1309
-12.234
-12.3285
-12.4148
-12.4935
-12.5652
-12.6302
-12.6892
-12.7425
-12.7905
-12.8335
-12.8719
-12.9059
-12.9356
-12.9614
-9.05402
-9.09893
-9.22145
-9.38956
-9.58239
-9.79402
-10.0171
-10.2434
-10.4674
-10.6851
-10.8937
-11.0914
-11.2769
-11.4498
-11.61
-11.7576
-11.8931
-12.0171
-12.1302
-12.2331
-12.3266
-12.4112
-12.4876
-12.5565
-12.6184
-12.6739
-12.7234
-12.7674
-12.8062
-12.8403
-12.8699
-12.8955
-12.9172
-8.81058
-8.8701
-9.02529
-9.23132
-9.45979
-9.70368
-9.95496
-10.2051
-10.4488
-10.6829
-10.905
-11.1134
-11.3075
-11.487
-11.652
-11.803
-11.9405
-12.0654
-12.1783
-12.2802
-12.3717
-12.4538
-12.5272
-12.5925
-12.6504
-12.7015
-12.7464
-12.7854
-12.8191
-12.8479
-12.8721
-12.8921
-12.908
-8.50166
-8.5636
-8.73875
-8.97138
-9.2304
-9.50921
-9.79627
-10.0799
-10.3536
-10.6138
-10.8577
-11.0839
-11.2919
-11.4821
-11.6549
-11.8113
-11.9522
-12.0788
-12.1921
-12.2932
-12.3831
-12.4629
-12.5333
-12.5953
-12.6495
-12.6966
-12.7372
-12.7719
-12.8011
-12.8253
-12.845
-12.8607
-12.8727
-8.13757
-8.25472
-8.51528
-8.81897
-9.12895
-9.4482
-9.76802
-10.0779
-10.3733
-10.6517
-10.9108
-11.1495
-11.3676
-11.5654
-11.7438
-11.9037
-12.0464
-12.1731
-12.2851
-12.3838
-12.4704
-12.5459
-12.6115
-12.6681
-12.7165
-12.7574
-12.7917
-12.8198
-12.8422
-12.8596
-12.8723
-12.8809
-12.8859
-7.60584
-7.69681
-7.99494
-8.36627
-8.75698
-9.15968
-9.55388
-9.92581
-10.2719
-10.5901
-10.8795
-11.1407
-11.3749
-11.584
-11.7697
-11.9341
-12.079
-12.2063
-12.3176
-12.4146
-12.4987
-12.5712
-12.6333
-12.6861
-12.7305
-12.7672
-12.797
-12.8205
-12.8381
-12.8505
-12.8581
-12.8618
-12.8621
-7.1083
-7.43057
-7.89811
-8.31657
-8.72637
-9.15476
-9.57355
-9.96929
-10.3404
-10.6833
-10.9949
-11.2749
-11.5241
-11.744
-11.9366
-12.1042
-12.2492
-12.374
-12.4807
-12.5715
-12.6482
-12.7124
-12.7657
-12.8092
-12.8442
-12.8714
-12.8917
-12.9056
-12.9136
-12.9161
-12.9133
-12.9059
-12.8943
-5.80374
-6.12526
-6.89796
-7.59718
-8.23325
-8.83932
-9.3834
-9.86534
-10.2955
-10.6778
-11.0157
-11.3134
-11.5748
-11.8032
-12.0018
-12.1735
-12.321
-12.4468
-12.5534
-12.6429
-12.7173
-12.7785
-12.828
-12.8673
-12.8976
-12.9199
-12.9348
-12.943
-12.9445
-12.9395
-12.9271
-12.9087
-12.8795
-5.78982
-6.53454
-7.13831
-7.60442
-8.20357
-8.83626
-9.42597
-9.97532
-10.4781
-10.9239
-11.3118
-11.6453
-11.9286
-12.1667
-12.3646
-12.5278
-12.661
-12.7686
-12.8545
-12.922
-12.9741
-13.0132
-13.0415
-13.0607
-13.0724
-13.0776
-13.0772
-13.0717
-13.061
-13.0443
-13.0187
-12.9811
-12.9181
0.463862
-4.14397
-5.92724
-6.77689
-7.77806
-8.65316
-9.35288
-9.96016
-10.4914
-10.9471
-11.3362
-11.6671
-11.946
-12.1793
-12.3729
-12.5322
-12.662
-12.7666
-12.85
-12.9153
-12.9654
-13.0029
-13.0297
-13.0477
-13.0584
-13.063
-13.0626
-13.0579
-13.0501
-13.0386
-13.0263
-13.0079
-12.9952
-13.997
-13.6494
-13.167
-12.4942
-11.9106
-11.7349
-12.4314
-14.4702
-18.1598
-23.4337
-29.6757
-35.7474
-40.4017
-42.8819
-42.9422
-40.5866
-35.8195
-28.8626
-20.7555
-13.1349
-7.05866
-2.65902
0.326992
2.15756
2.94152
2.6848
1.29479
-1.6889
-6.6834
-13.5805
-21.763
-30.4133
-38.8625
-46.6562
-53.4028
-58.6309
-61.8281
-62.6474
-60.9748
-56.9138
-50.6153
-42.4513
-33.6268
-25.7066
-19.3279
-14.2197
-10.0437
-6.70431
-4.1784
-2.3591
-1.0806
-0.189938
0.425896
0.843352
1.11124
1.25696
1.28928
1.19966
0.952212
0.466233
-0.658127
-3.42926
-9.04712
-17.723
-28.1318
-37.9759
-44.9366
-47.4732
-45.1891
-38.1718
-28.1975
-18.2046
-10.6369
-5.93881
-3.2519
-1.70241
-0.782988
-0.232011
0.0964732
0.290962
0.405867
0.473771
0.513371
0.534855
0.543497
0.541925
0.53152
0.513237
0.487995
0.456819
0.420781
0.381085
0.338553
0.294643
0.248814
0.204521
0.155425
0.116736
0.0552279
0.0442778
-13.9565
-13.5839
-13.1131
-12.4912
-11.9342
-11.7926
-12.5558
-14.6289
-18.1836
-23.065
-28.7031
-34.1415
-38.3666
-40.6516
-40.5774
-38.0433
-33.1912
-26.5599
-19.2622
-12.5444
-7.11766
-3.08482
-0.286863
1.44483
2.19252
1.9424
0.620662
-2.06089
-6.51156
-12.773
-20.4096
-28.6808
-36.8715
-44.4489
-50.9784
-56.0045
-59.0625
-59.8461
-58.2373
-54.3093
-48.2332
-40.4762
-32.2461
-24.9097
-18.9356
-14.0714
-10.0584
-6.83963
-4.39178
-2.60805
-1.33502
-0.43425
0.19738
0.63104
0.912844
1.06899
1.10768
1.01981
0.768397
0.283582
-0.751795
-3.23835
-8.31513
-16.2801
-25.9779
-35.2528
-41.8791
-44.3423
-42.2586
-35.7228
-26.4632
-17.2522
-10.295
-5.93355
-3.37818
-1.859
-0.93151
-0.360536
-0.0096653
0.20614
0.340007
0.424085
0.477057
0.50931
0.52641
0.531308
0.5257
0.510829
0.487876
0.458119
0.422833
0.383418
0.340825
0.29669
0.250477
0.205887
0.156335
0.117541
0.0555293
0.0446053
-13.8171
-13.5165
-13.0846
-12.5497
-12.1325
-12.1554
-13.0077
-15.0315
-18.3848
-22.8916
-27.9856
-32.8452
-36.5638
-38.3881
-37.9059
-35.1112
-30.3506
-24.3143
-17.937
-12.0791
-7.24553
-3.55976
-0.951758
0.677459
1.38339
1.14878
-0.10165
-2.54268
-6.50686
-12.1206
-19.1104
-26.8711
-34.7001
-42.0033
-48.2951
-53.1188
-56.0417
-56.7888
-55.2402
-51.4549
-45.6472
-38.3776
-30.812
-24.0849
-18.5187
-13.9032
-10.0627
-6.97286
-4.6075
-2.86168
-1.59593
-0.686692
-0.0406019
0.408266
0.703325
0.869423
0.91436
0.82867
0.575362
0.0892644
-0.875348
-3.09841
-7.6344
-14.8495
-23.7722
-32.4159
-38.6661
-41.0432
-39.1691
-33.1539
-24.6659
-16.284
-9.95726
-5.93442
-3.50909
-2.01978
-1.08435
-0.493294
-0.119588
0.118201
0.271737
0.372647
0.439552
0.483015
0.50889
0.520459
0.51976
0.508364
0.487743
0.459433
0.424915
0.385785
0.34313
0.298756
0.252152
0.20725
0.157248
0.118311
0.0558478
0.0448603
-13.7442
-13.5134
-13.1648
-12.7693
-12.5101
-12.6683
-13.5872
-15.5509
-18.6528
-22.7006
-27.1927
-31.357
-34.3561
-35.5675
-34.7015
-31.8882
-27.5602
-22.3204
-16.8399
-11.7375
-7.42879
-4.0693
-1.65259
-0.129144
0.531544
0.313807
-0.860363
-3.10171
-6.63448
-11.6154
-17.8988
-25.034
-32.3885
-39.3415
-45.3594
-49.9706
-52.759
-53.4712
-51.9889
-48.3771
-42.9104
-36.2199
-29.3699
-23.2516
-18.0835
-13.7192
-10.0602
-7.10562
-4.82508
-3.11857
-1.86205
-0.946408
-0.287561
0.175312
0.482883
0.658493
0.709518
0.626425
0.37303
-0.114248
-1.02177
-3.00111
-7.00486
-13.4459
-21.543
-29.5043
-35.3441
-37.626
-35.9734
-30.5185
-22.851
-15.328
-9.63394
-5.94218
-3.64284
-2.18324
-1.24071
-0.629923
-0.233128
0.027245
0.201163
0.319594
0.40104
0.456215
0.491254
0.509779
0.514177
0.506357
0.488087
0.461181
0.427357
0.38843
0.345633
0.300955
0.253912
0.208651
0.158193
0.119067
0.0561994
0.045049
-13.7062
-13.5505
-13.3183
-13.0859
-13.0048
-13.2984
-14.228
-16.0109
-18.7129
-22.1591
-25.8825
-29.2043
-31.4822
-32.2416
-31.3038
-28.8132
-25.1139
-20.6561
-15.9491
-11.4928
-7.65383
-4.60382
-2.37746
-0.961189
-0.347417
-0.550485
-1.64297
-3.70719
-6.87087
-11.2668
-16.834
-23.2597
-30.0231
-36.5271
-42.21
-46.5814
-49.2282
-49.9084
-48.5123
-45.1296
-40.0959
-34.0671
-27.9526
-22.4207
-17.6349
-13.5232
-10.0536
-7.23863
-5.04419
-3.37836
-2.13317
-1.21331
-0.54347
-0.0678658
0.251403
0.436092
0.493082
0.413087
0.161492
-0.324693
-1.18641
-2.94568
-6.44017
-12.1049
-19.3438
-26.5799
-31.9757
-34.1494
-32.7285
-27.8683
-21.0578
-14.4055
-9.33244
-5.95848
-3.77986
-2.34973
-1.40086
-0.770608
-0.350388
-0.0667765
0.128273
0.264943
0.361545
0.428913
0.473457
0.499148
0.508749
0.504532
0.488614
0.463094
0.429936
0.391178
0.348207
0.30319
0.255687
0.210041
0.15913
0.119781
0.0565605
0.0451658
-13.7149
-13.6344
-13.5197
-13.4384
-13.5085
-13.8961
-14.7895
-16.3389
-18.5777
-21.3496
-24.2872
-26.8882
-28.6402
-29.1819
-28.3581
-26.2462
-23.1045
-19.2916
-15.2258
-11.3251
-7.9098
-5.15186
-3.11226
-1.80379
-1.237
-1.42857
-2.43901
-4.33737
-7.19044
-11.0749
-15.9647
-21.6475
-27.7245
-33.671
-38.936
-43.0205
-45.5087
-46.1629
-44.8901
-41.8132
-37.3064
-31.9899
-26.5901
-21.6023
-17.1783
-13.3206
-10.0461
-7.37249
-5.26415
-3.64013
-2.40852
-1.48681
-0.807905
-0.320958
0.00912519
0.202495
0.265397
0.18901
-0.0590927
-0.540857
-1.36622
-2.93522
-5.9594
-10.8686
-17.2351
-23.7119
-28.6316
-30.684
-29.505
-25.2667
-19.3321
-13.5391
-9.05935
-5.98374
-3.91948
-2.51878
-1.56461
-0.915275
-0.471335
-0.163822
0.0531423
0.20881
0.321223
0.401305
0.455735
0.488851
0.503808
0.503267
0.489691
0.465498
0.432919
0.394234
0.350999
0.305565
0.257547
0.211466
0.16009
0.120477
0.0569465
0.0452218
-13.7306
-13.7057
-13.6745
-13.6955
-13.863
-14.3023
-15.1464
-16.4931
-18.3479
-20.5822
-22.927
-24.9863
-26.3457
-26.7124
-25.9564
-24.1305
-21.4324
-18.1512
-14.631
-11.2177
-8.18682
-5.70378
-3.84593
-2.6452
-2.1251
-2.30695
-3.23858
-4.97767
-7.56088
-11.0118
-15.299
-20.2677
-25.6181
-30.9231
-35.6853
-39.4236
-41.7285
-42.3663
-41.264
-38.5687
-34.6513
-30.0434
-25.2988
-20.8015
-16.7194
-13.1167
-10.0402
-7.50721
-5.48416
-3.90317
-2.68754
-1.76645
-1.0805
-0.583669
-0.24372
-0.0420786
0.0267716
-0.0454676
-0.288476
-0.762006
-1.55659
-2.96681
-5.57177
-9.77019
-15.2745
-20.9736
-25.3922
-27.3117
-26.3816
-22.7796
-17.7162
-12.7466
-8.81854
-6.01795
-4.06151
-2.69049
-1.73213
-1.06406
-0.596051
-0.263914
-0.0241935
0.151276
0.280183
0.373499
0.438172
0.478919
0.49932
0.502455
0.491173
0.468238
0.436163
0.397475
0.353909
0.307999
0.259428
0.212876
0.161035
0.121124
0.057334
0.0452104
-13.7543
-13.7767
-13.8121
-13.9095
-14.1429
-14.6055
-15.3917
-16.5643
-18.1147
-19.9328
-21.7949
-23.3945
-24.4175
-24.6337
-23.9341
-22.3468
-20.0219
-17.1938
-14.1446
-11.1604
-8.47739
-6.25151
-4.56892
-3.47469
-3.00098
-3.17348
-4.03085
-5.61791
-7.95666
-11.0388
-14.8118
-19.1435
-23.7974
-28.4355
-32.6405
-35.9827
-38.0797
-38.7104
-37.8167
-35.5451
-32.2186
-28.2571
-24.083
-20.0217
-16.265
-12.9173
-10.0379
-7.64241
-5.70337
-4.16667
-2.96953
-2.05161
-1.36071
-0.855523
-0.506701
-0.297199
-0.222238
-0.289701
-0.526128
-0.987822
-1.75321
-3.03381
-5.27808
-8.83274
-13.5149
-18.4404
-22.3443
-24.1217
-23.4421
-20.4725
-16.2473
-12.0407
-8.61148
-6.06049
-4.20566
-2.86489
-1.90354
-1.21708
-0.724601
-0.367053
-0.103662
0.092479
0.238607
0.345706
0.420997
0.469599
0.495549
0.502376
0.493338
0.471566
0.439877
0.401065
0.357059
0.31058
0.261388
0.214308
0.161989
0.121739
0.0577344
0.0451398
-13.7808
-13.8407
-13.9255
-14.0752
-14.3473
-14.8108
-15.5311
-16.5459
-17.8364
-19.3056
-20.7778
-22.0195
-22.7852
-22.8874
-22.2341
-20.8432
-18.8326
-16.3914
-13.7494
-11.1428
-8.77444
-6.78812
-5.27322
-4.283
-3.85535
-4.01855
-4.80561
-6.24943
-8.36213
-11.1218
-14.4602
-18.2501
-22.2902
-26.3052
-29.957
-32.8868
-34.765
-35.3925
-34.7133
-32.8469
-30.0456
-26.6294
-22.9374
-19.2666
-15.8231
-12.7273
-10.0399
-7.77729
-5.92092
-4.42994
-3.25384
-2.34166
-1.64794
-1.13598
-0.779306
-0.562364
-0.481039
-0.542956
-0.771377
-1.2181
-1.95297
-3.12803
-5.07233
-8.06725
-11.9974
-16.1816
-19.5731
-21.2034
-20.7669
-18.4018
-14.9513
-11.4262
-8.43697
-6.11045
-4.35195
-3.04232
-2.07917
-1.37456
-0.857127
-0.473276
-0.185201
0.0325541
0.196674
0.318119
0.404386
0.461029
0.492578
0.503051
0.496158
0.475424
0.443991
0.404932
0.360381
0.313245
0.263375
0.21572
0.162916
0.122297
0.0581287
0.0450049
-13.805
-13.8944
-14.0156
-14.2005
-14.493
-14.9431
-15.5946
-16.4678
-17.539
-18.7264
-19.8889
-20.8422
-21.396
-21.4033
-20.7906
-19.5687
-17.8278
-15.7191
-13.4301
-11.1567
-9.07224
-7.30781
-5.9519
-5.06201
-4.67954
-4.83393
-5.55402
-6.86386
-8.767
-11.2365
-14.1999
-17.5335
-21.0576
-24.5379
-27.6965
-30.2428
-31.9104
-32.5266
-32.0268
-30.4937
-28.1133
-25.137
-21.8552
-18.5429
-15.4018
-12.5498
-10.046
-7.9109
-6.13604
-4.69231
-3.53975
-2.63587
-1.94152
-1.4244
-1.06088
-0.836905
-0.748892
-0.804285
-1.02331
-1.45241
-2.15401
-3.24055
-4.94188
-7.46918
-10.7429
-14.2481
-17.1506
-18.6341
-18.4215
-16.6059
-13.8385
-10.9006
-8.29176
-6.16688
-4.50068
-3.22331
-2.25944
-1.53683
-0.993816
-0.58263
-0.268732
-0.028323
0.154619
0.290999
0.388607
0.453472
0.490663
0.504727
0.499861
0.480012
0.44867
0.409204
0.363967
0.316058
0.265428
0.217134
0.163828
0.122805
0.0585206
0.0448073
-13.8248
-13.9361
-14.082
-14.2875
-14.5854
-15.011
-15.5929
-16.3394
-17.2247
-18.1791
-19.0893
-19.8123
-20.2011
-20.1396
-19.5674
-18.4905
-16.9797
-15.1566
-13.1741
-11.1945
-9.36584
-7.80577
-6.59931
-5.80523
-5.46646
-5.61277
-6.2692
-7.45376
-9.16331
-11.3681
-13.9987
-16.9396
-20.0293
-23.0646
-25.8111
-28.0296
-29.5054
-30.091
-29.7143
-28.4262
-26.3695
-23.7548
-20.8368
-17.8606
-15.0072
-12.3856
-10.0551
-8.04237
-6.34813
-4.95317
-3.8266
-2.93352
-2.2407
-1.72004
-1.35067
-1.12004
-1.02498
-1.0727
-1.28085
-1.69003
-2.35539
-3.36337
-4.8697
-7.01926
-9.74641
-12.6618
-15.121
-16.463
-16.4421
-15.0965
-12.9025
-10.4546
-8.17143
-6.2292
-4.65255
-3.40863
-2.44498
-1.70434
-1.13494
-0.695201
-0.354177
-0.0899596
0.112699
0.264626
0.373928
0.44716
0.489978
0.507521
0.504511
0.48535
0.453905
0.413853
0.367781
0.318978
0.267509
0.218517
0.164698
0.123242
0.0588982
0.0445455
-13.837
-13.9637
-14.125
-14.3402
-14.6331
-15.0282
-15.5427
-16.1772
-16.9057
-17.6694
-18.3775
-18.9179
-19.1763
-19.0619
-18.5269
-17.5753
-16.2627
-14.6863
-12.9707
-11.2503
-9.65123
-8.27825
-7.21106
-6.50751
-6.21041
-6.34931
-6.94576
-8.01329
-9.54448
-11.5078
-13.8381
-16.4311
-19.1439
-21.8
-24.1992
-26.1401
-27.4391
-27.9724
-27.6701
-26.5639
-24.7722
-22.4756
-19.8916
-17.2279
-14.6415
-12.2338
-10.0661
-8.17107
-6.55675
-5.21198
-4.1137
-3.23387
-2.54469
-2.02208
-1.64782
-1.41084
-1.30836
-1.34713
-1.54274
-1.92995
-2.55649
-3.49068
-4.83785
-6.688
-8.97805
-11.4077
-13.4869
-14.6975
-14.825
-13.8556
-12.1217
-10.0748
-8.07164
-6.29749
-4.80869
-3.59936
-2.63666
-1.87773
-1.28088
-0.811107
-0.44145
-0.152126
0.0712283
0.239341
0.360691
0.442405
0.490807
0.511679
0.510317
0.491611
0.45983
0.418978
0.371888
0.322044
0.269634
0.21987
0.16552
0.123601
0.0592538
0.0442116
-13.8411
-13.9774
-14.1465
-14.3629
-14.6432
-15.0038
-15.4541
-15.9896
-16.5854
-17.1921
-17.737
-18.1322
-18.2895
-18.1382
-17.6405
-16.799
-15.6574
-14.2941
-12.8107
-11.3186
-9.92509
-8.72236
-7.78387
-7.16497
-6.90713
-7.03906
-7.57937
-8.53804
-9.90515
-11.6486
-13.7076
-15.9887
-18.3661
-20.6871
-22.7803
-24.4737
-25.6083
-26.0793
-25.827
-24.874
-23.318
-21.3096
-19.0282
-16.6468
-14.3029
-12.0923
-10.0781
-8.29666
-6.7616
-5.46827
-4.40042
-3.53615
-2.85268
-2.32966
-1.95141
-1.70833
-1.59798
-1.62652
-1.80769
-2.17094
-2.75654
-3.61891
-4.83065
-6.44236
-8.39011
-10.4361
-12.2058
-13.3
-13.5266
-12.8405
-11.4654
-9.74707
-7.98919
-6.37267
-4.97069
-3.79691
-2.83562
-2.05783
-1.43212
-0.930521
-0.530465
-0.214561
0.0305582
0.215533
0.349262
0.439531
0.493413
0.517401
0.517415
0.498878
0.466485
0.424587
0.376276
0.325234
0.271778
0.22117
0.166275
0.123869
0.0595845
0.0438087
-13.8357
-13.9768
-14.1478
-14.3589
-14.6218
-14.9465
-15.337
-15.786
-16.2702
-16.7485
-17.1625
-17.4436
-17.5233
-17.3469
-16.8849
-16.1397
-15.1462
-13.9674
-12.6863
-11.3952
-10.1848
-9.1361
-8.31553
-7.77493
-7.5536
-7.67886
-8.16677
-9.02463
-10.2411
-11.7849
-13.5996
-15.6015
-17.6799
-19.7022
-21.5217
-22.9918
-23.9792
-24.3925
-24.1817
-23.3634
-22.0153
-20.2598
-18.2438
-16.1126
-13.9878
-11.9597
-10.0907
-8.41913
-6.96252
-5.72167
-4.6862
-3.83966
-3.16382
-2.64184
-2.26044
-2.01142
-1.8927
-1.90972
-2.07448
-2.41168
-2.95454
-3.74597
-4.83677
-6.25259
-7.92992
-9.67672
-11.2009
-12.1918
-12.4753
-11.9959
-10.902
-9.45994
-7.92286
-6.45645
-5.14056
-4.0031
-3.04337
-2.24573
-1.5893
-1.05368
-0.621133
-0.276959
-0.00888822
0.193665
0.34008
0.438933
0.498134
0.524963
0.526026
0.507315
0.473987
0.430754
0.380984
0.328555
0.273928
0.222392
0.166934
0.124019
0.0598691
0.043318
-13.821
-13.9631
-14.1312
-14.3327
-14.575
-14.8637
-15.1993
-15.5728
-15.9632
-16.3364
-16.6455
-16.837
-16.8579
-16.6663
-16.2395
-15.5796
-14.7147
-13.6959
-12.5909
-11.4761
-10.4285
-9.51813
-8.8047
-8.33579
-8.14793
-8.26665
-8.70585
-9.47074
-10.5495
-11.912
-13.5071
-15.2598
-17.0732
-18.8321
-20.4109
-21.685
-22.5435
-22.9051
-22.728
-22.0234
-20.8523
-19.3137
-17.5283
-15.6193
-13.6939
-11.8355
-10.1041
-8.5386
-7.15945
-5.97189
-4.97051
-4.14368
-3.47728
-2.95769
-2.5739
-2.31903
-2.19132
-2.19554
-2.3419
-2.6509
-3.1494
-3.87042
-4.84929
-6.09675
-7.55239
-9.05945
-10.3853
-11.2799
-11.5951
-11.271
-10.4075
-9.20679
-7.87321
-6.55118
-5.32084
-4.22025
-3.26186
-2.44285
-1.75327
-1.18089
-0.713365
-0.338981
-0.0466179
0.174249
0.333641
0.441049
0.505329
0.534641
0.536346
0.517054
0.482412
0.437515
0.38602
0.332002
0.27607
0.223523
0.167486
0.124047
0.0601133
0.0427452
-13.7969
-13.9367
-14.0986
-14.2874
-14.5074
-14.7614
-15.0471
-15.3553
-15.6674
-15.9549
-16.1807
-16.3026
-16.2801
-16.0809
-15.688
-15.1036
-14.3506
-13.4704
-12.5185
-11.5583
-10.6545
-9.86776
-9.25086
-8.8469
-8.68925
-8.80137
-9.19542
-9.87486
-10.8279
-12.0264
-13.424
-14.9543
-16.5328
-18.0599
-19.428
-20.5305
-21.2747
-21.5888
-21.4376
-20.8279
-19.8073
-18.4556
-16.8729
-15.1632
-13.4202
-11.7197
-10.1185
-8.65532
-7.35245
-6.21873
-5.25293
-4.44758
-3.79226
-3.27628
-2.89075
-2.63002
-2.49265
-2.48272
-2.60877
-2.88745
-3.34007
-3.99125
-4.86457
-5.96158
-7.22706
-8.53243
-9.69007
-10.4979
-10.8316
-10.6338
-9.96876
-8.98514
-7.84185
-6.65968
-5.51462
-4.45132
-3.49355
-2.65099
-1.9251
-1.31257
-0.80708
-0.400205
-0.0820692
0.157893
0.330525
0.446383
0.515414
0.546762
0.548619
0.528264
0.491865
0.444921
0.391389
0.335547
0.278158
0.224504
0.167875
0.123901
0.0602828
0.0420629
-13.7643
-13.8995
-14.0527
-14.2268
-14.4241
-14.6451
-14.8863
-15.1383
-15.385
-15.603
-15.7625
-15.831
-15.777
-15.5762
-15.2158
-14.6986
-14.0431
-13.2832
-12.4644
-11.6391
-10.8619
-10.1848
-9.65417
-9.30842
-9.17764
-9.28301
-9.63531
-10.2365
-11.0753
-12.1257
-13.346
-14.678
-16.0479
-17.3701
-18.5528
-19.5055
-20.1461
-20.4169
-20.2859
-19.7561
-18.8645
-17.6759
-16.2725
-14.7421
-13.1661
-11.6125
-10.1344
-8.76963
-7.5417
-6.46213
-5.53314
-4.75083
-4.10804
-3.59675
-3.20999
-2.94329
-2.79551
-2.77004
-2.87393
-3.12031
-3.52567
-4.10769
-4.88089
-5.84075
-6.938
-8.06747
-9.07847
-9.80995
-10.1576
-10.0683
-9.57928
-8.79412
-7.83078
-6.78531
-5.72571
-4.70001
-3.7416
-2.87246
-2.10617
-1.44926
-0.902188
-0.460141
-0.114593
0.145305
0.331398
0.455511
0.528854
0.561683
0.563104
0.541118
0.502454
0.45303
0.397117
0.339194
0.280182
0.225326
0.168092
0.123579
0.0603857
0.0412727
-13.7236
-13.8523
-13.9951
-14.1536
-14.3286
-14.5189
-14.7205
-14.9246
-15.1171
-15.2789
-15.3864
-15.4142
-15.3383
-15.1404
-14.8112
-14.3536
-13.7832
-13.1275
-12.4241
-11.7163
-11.05
-10.4696
-10.0153
-9.72114
-9.61384
-9.71224
-10.0259
-10.5556
-11.2908
-12.2078
-13.2695
-14.4248
-15.6097
-16.7508
-17.7696
-18.5888
-19.1394
-19.3709
-19.2554
-18.7935
-18.0136
-16.9677
-15.7235
-14.3545
-12.931
-11.514
-10.1522
-8.88202
-7.72752
-6.70216
-5.81095
-5.053
-4.42398
-3.91828
-3.53069
-3.25778
-3.09874
-3.05632
-3.13622
-3.34845
-3.70537
-4.21904
-4.89718
-5.73132
-6.67822
-7.65273
-8.53532
-9.19976
-9.55899
-9.56508
-9.23432
-8.63318
-7.84234
-6.93203
-5.95882
-4.97097
-4.01001
-3.1102
-2.29821
-1.59168
-0.998577
-0.518254
-0.143409
0.137312
0.337023
0.469085
0.546173
0.579799
0.580079
0.555795
0.514269
0.46186
0.403168
0.34287
0.282052
0.225893
0.168052
0.123014
0.0603815
0.0403486
-13.6763
-13.7973
-13.9288
-14.0714
-14.2248
-14.3872
-14.554
-14.7172
-14.865
-14.9816
-15.0484
-15.0457
-14.9554
-14.7636
-14.4639
-14.0594
-13.563
-12.9977
-12.394
-11.7882
-11.2185
-10.7227
-10.3355
-10.0866
-9.9994
-10.0906
-10.3686
-10.8332
-11.4748
-12.272
-13.1921
-14.1904
-15.2118
-16.1931
-17.0677
-17.7694
-18.24
-18.4359
-18.3325
-17.9285
-17.2453
-16.3247
-15.2218
-13.9983
-12.7145
-11.4244
-10.1725
-8.99309
-7.91037
-6.93906
-6.08633
-5.35381
-4.7396
-4.24019
-3.85198
-3.57252
-3.40128
-3.34047
-3.39459
-3.57093
-3.87841
-4.32461
-4.91233
-5.63088
-6.44295
-7.2806
-8.05015
-8.65505
-9.02415
-9.11533
-8.92943
-8.50193
-7.87931
-7.10469
-6.2198
-5.27011
-4.30387
-3.36793
-2.50343
-1.74064
-1.09615
-0.573883
-0.167586
0.134884
0.348291
0.487854
0.567962
0.601554
0.59986
0.572507
0.527442
0.471484
0.40957
0.346576
0.283753
0.226184
0.167735
0.122186
0.0602633
0.0392731
-13.6228
-13.7351
-13.8548
-13.9818
-14.1149
-14.252
-14.3885
-14.5173
-14.6284
-14.7089
-14.7443
-14.7193
-14.6202
-14.4368
-14.1649
-13.8075
-13.3758
-12.8885
-12.371
-11.8532
-11.3673
-10.9451
-10.6162
-10.4063
-10.336
-10.4197
-10.6646
-11.0701
-11.6272
-12.3172
-13.1111
-13.9702
-14.8471
-15.6877
-16.4356
-17.0342
-17.4343
-17.5983
-17.5046