/*--------------------------------*- C++ -*----------------------------------*\
| =========                 |                                                 |
| \\      /  F ield         | OpenFOAM: The Open Source CFD Toolbox           |
|  \\    /   O peration     | Version:  2.1.1                                 |
|   \\  /    A nd           | Web:      www.OpenFOAM.org                      |
|    \\/     M anipulation  |                                                 |
\*---------------------------------------------------------------------------*/
FoamFile
{
    version     2.0;
    format      ascii;
    class       surfaceScalarField;
    location    "0.11";
    object      phi;
}
// * * * * * * * * * * * * * * * * * * * * * * * * * * * * * * * * * * * * * //

dimensions      [0 3 -1 0 0 0 0];

internalField   nonuniform List<scalar> 
13452
(
4.59982e-05
2.24891e-05
2.96624e-05
1.63358e-05
2.11854e-05
8.47701e-06
1.72833e-05
3.90207e-06
1.56403e-05
1.64299e-06
1.48317e-05
8.08607e-07
1.43208e-05
5.10917e-07
1.39307e-05
3.90148e-07
1.36012e-05
3.29463e-07
1.33169e-05
2.84257e-07
1.30733e-05
2.43676e-07
1.28662e-05
2.07054e-07
1.26914e-05
1.74789e-07
1.25445e-05
1.46937e-07
1.24214e-05
1.23133e-07
1.23186e-05
1.02799e-07
1.22332e-05
8.53451e-08
1.2163e-05
7.02516e-08
1.21059e-05
5.70901e-08
1.20603e-05
4.55187e-08
1.20251e-05
3.5268e-08
1.1999e-05
2.61233e-08
1.1981e-05
1.7919e-08
1.19706e-05
1.04242e-08
1.19674e-05
3.25058e-09
1.19707e-05
-3.35223e-09
1.19808e-05
-1.00597e-08
1.19976e-05
-1.68253e-08
1.20252e-05
-2.75852e-08
1.20617e-05
-3.64699e-08
1.21365e-05
-7.48181e-08
1.22186e-05
-8.2078e-08
-3.88979e-07
1.26075e-05
7.49124e-05
1.80206e-05
7.04115e-05
2.08367e-05
6.33216e-05
1.5567e-05
5.66673e-05
1.05563e-05
5.15524e-05
6.75789e-06
4.78999e-05
4.46116e-06
4.52838e-05
3.12695e-06
4.33624e-05
2.31162e-06
4.19025e-05
1.78938e-06
4.07543e-05
1.43239e-06
3.98257e-05
1.17226e-06
3.90588e-05
9.73995e-07
3.84156e-05
8.17954e-07
3.78704e-05
6.92145e-07
3.74048e-05
5.88724e-07
3.70053e-05
5.02284e-07
3.66617e-05
4.28979e-07
3.63659e-05
3.66017e-07
3.61117e-05
3.11339e-07
3.58938e-05
2.63405e-07
3.5708e-05
2.21046e-07
3.55508e-05
1.83351e-07
3.54191e-05
1.49592e-07
3.53105e-05
1.19099e-07
3.52225e-05
9.12328e-08
3.51535e-05
6.55868e-08
3.51024e-05
4.10553e-08
3.50687e-05
1.69112e-08
3.50525e-05
-1.14277e-08
3.50584e-05
-4.23949e-08
3.50879e-05
-1.04311e-07
3.51874e-05
-1.81562e-07
-3.99388e-07
3.51978e-05
7.85209e-05
1.19562e-05
8.2334e-05
1.70237e-05
8.29913e-05
1.49097e-05
8.14755e-05
1.20721e-05
7.89534e-05
9.28004e-06
7.62688e-05
7.14574e-06
7.37535e-05
5.64218e-06
7.15111e-05
4.55402e-06
6.9555e-05
3.74557e-06
6.78606e-05
3.12676e-06
6.63948e-05
2.63804e-06
6.51257e-05
2.24312e-06
6.40248e-05
1.91882e-06
6.30679e-05
1.64905e-06
6.22345e-05
1.42213e-06
6.15074e-05
1.22937e-06
6.08723e-05
1.06413e-06
6.0317e-05
9.21296e-07
5.98314e-05
7.96899e-07
5.9407e-05
6.87806e-07
5.90366e-05
5.91537e-07
5.87138e-05
5.06105e-07
5.84335e-05
4.29881e-07
5.81911e-05
3.61473e-07
5.79828e-05
2.99623e-07
5.78051e-05
2.43245e-07
5.76553e-05
1.90849e-07
5.75313e-05
1.40941e-07
5.74303e-05
8.95728e-08
5.73528e-05
3.51044e-08
5.72868e-05
-3.83889e-08
5.72338e-05
-1.28523e-07
-2.66817e-07
5.71012e-05
7.81465e-05
8.33634e-06
8.19222e-05
1.3248e-05
8.46171e-05
1.22148e-05
8.62383e-05
1.04509e-05
8.69151e-05
8.60326e-06
8.70005e-05
7.06027e-06
8.67375e-05
5.90523e-06
8.62686e-05
5.02294e-06
8.56856e-05
4.32849e-06
8.50447e-05
3.76766e-06
8.43807e-05
3.3021e-06
8.37163e-05
2.90752e-06
8.30672e-05
2.56785e-06
8.24443e-05
2.27196e-06
8.18541e-05
2.01237e-06
8.13001e-05
1.7833e-06
8.07842e-05
1.58004e-06
8.03067e-05
1.3988e-06
7.98671e-05
1.23649e-06
7.94644e-05
1.09056e-06
7.9097e-05
9.58903e-07
7.87634e-05
8.39768e-07
7.84616e-05
7.31647e-07
7.81898e-05
6.33212e-07
7.79462e-05
5.43237e-07
7.77289e-05
4.60577e-07
7.75359e-05
3.8382e-07
7.73654e-05
3.11446e-07
7.72143e-05
2.40683e-07
7.70797e-05
1.69749e-07
7.69488e-05
9.24894e-08
7.68103e-05
9.98865e-09
-7.09794e-08
7.66144e-05
7.89913e-05
6.0009e-06
8.15902e-05
1.0649e-05
8.35161e-05
1.02889e-05
8.49584e-05
9.0085e-06
8.59746e-05
7.58707e-06
8.67131e-05
6.32179e-06
8.72761e-05
5.34221e-06
8.77117e-05
4.58738e-06
8.80514e-05
3.98883e-06
8.83164e-05
3.5026e-06
8.85214e-05
3.09715e-06
8.86776e-05
2.75132e-06
8.87933e-05
2.45209e-06
8.8875e-05
2.19035e-06
8.89286e-05
1.95874e-06
8.896e-05
1.75193e-06
8.8974e-05
1.56601e-06
8.89749e-05
1.39791e-06
8.89662e-05
1.24521e-06
8.89508e-05
1.10597e-06
8.89311e-05
9.78585e-07
8.89091e-05
8.61746e-07
8.88864e-05
7.54336e-07
8.88642e-05
6.55377e-07
8.88435e-05
5.63972e-07
8.88248e-05
4.79279e-07
8.88083e-05
4.0033e-07
8.87936e-05
3.26137e-07
8.8779e-05
2.55329e-07
8.87614e-05
1.87296e-07
8.87324e-05
1.21498e-07
8.86806e-05
6.17414e-08
2.20524e-08
8.85876e-05
8.04629e-05
4.38392e-06
8.25044e-05
8.60757e-06
8.39893e-05
8.80403e-06
8.50471e-05
7.9507e-06
8.57677e-05
6.86644e-06
8.62796e-05
5.80992e-06
8.66839e-05
4.93786e-06
8.70278e-05
4.24345e-06
8.73344e-05
3.68225e-06
8.76151e-05
3.22191e-06
8.78748e-05
2.83744e-06
8.8116e-05
2.51019e-06
8.83407e-05
2.22736e-06
8.85509e-05
1.98009e-06
8.87478e-05
1.76183e-06
8.89322e-05
1.56755e-06
8.91049e-05
1.39335e-06
8.92666e-05
1.23618e-06
8.94182e-05
1.09361e-06
8.95605e-05
9.63714e-07
8.96941e-05
8.44924e-07
8.98199e-05
7.3596e-07
8.99385e-05
6.35765e-07
9.00504e-05
5.43444e-07
9.01562e-05
4.58223e-07
9.0256e-05
3.79432e-07
9.03499e-05
3.06436e-07
9.04373e-05
2.38739e-07
9.05167e-05
1.75973e-07
9.05853e-05
1.18623e-07
9.06384e-05
6.84158e-08
9.06699e-05
3.0214e-08
1.49393e-08
9.06771e-05
8.22339e-05
3.24854e-06
8.38935e-05
6.948e-06
8.518e-05
7.51748e-06
8.61122e-05
7.01854e-06
8.67522e-05
6.22649e-06
8.719e-05
5.37211e-06
8.75134e-05
4.61443e-06
8.77717e-05
3.98512e-06
8.79916e-05
3.46241e-06
8.81882e-05
3.02523e-06
8.83699e-05
2.65578e-06
8.85408e-05
2.3393e-06
8.87033e-05
2.06485e-06
8.88589e-05
1.82448e-06
8.90085e-05
1.61218e-06
8.91529e-05
1.42325e-06
8.92922e-05
1.25399e-06
8.94269e-05
1.10148e-06
8.95572e-05
9.63358e-07
8.96832e-05
8.37723e-07
8.9805e-05
7.23025e-07
8.9923e-05
6.18003e-07
9.00371e-05
5.21622e-07
9.01476e-05
4.33031e-07
9.02542e-05
3.5154e-07
9.03571e-05
2.76611e-07
9.04556e-05
2.07861e-07
9.05492e-05
1.45164e-07
9.06364e-05
8.87822e-08
9.07151e-05
3.99016e-08
9.07825e-05
9.93129e-10
9.08357e-05
-2.29217e-08
-2.39569e-08
9.08746e-05
8.42164e-05
2.44772e-06
8.55496e-05
5.61481e-06
8.66705e-05
6.39655e-06
8.75265e-05
6.16255e-06
8.81506e-05
5.60234e-06
8.85958e-05
4.92692e-06
8.89273e-05
4.28291e-06
8.91888e-05
3.72363e-06
8.94059e-05
3.24532e-06
8.95946e-05
2.8365e-06
8.97646e-05
2.48587e-06
8.99212e-05
2.18262e-06
9.00681e-05
1.91795e-06
9.02075e-05
1.68512e-06
9.03408e-05
1.47885e-06
9.04692e-05
1.2949e-06
9.05933e-05
1.12988e-06
9.07137e-05
9.81047e-07
9.08309e-05
8.4618e-07
9.09452e-05
7.23466e-07
9.10568e-05
6.11424e-07
9.11659e-05
5.08851e-07
9.12728e-05
4.14767e-07
9.13774e-05
3.28394e-07
9.14798e-05
2.49133e-07
9.15798e-05
1.76581e-07
9.16771e-05
1.10562e-07
9.17711e-05
5.12182e-08
9.18608e-05
-8.98867e-10
9.19448e-05
-4.41537e-08
9.20219e-05
-7.61141e-08
9.20913e-05
-9.23099e-08
-8.7305e-08
9.21547e-05
8.63717e-05
1.87471e-06
8.74402e-05
4.54634e-06
8.84105e-05
5.4263e-06
8.91864e-05
5.3866e-06
8.97812e-05
5.00752e-06
9.02255e-05
4.48261e-06
9.05665e-05
3.94197e-06
9.08405e-05
3.44959e-06
9.10702e-05
3.01567e-06
9.127e-05
2.63667e-06
9.14492e-05
2.30661e-06
9.16136e-05
2.01822e-06
9.17669e-05
1.76472e-06
9.19114e-05
1.54057e-06
9.2049e-05
1.34124e-06
9.21809e-05
1.16299e-06
9.23081e-05
1.00275e-06
9.24311e-05
8.57999e-07
9.25506e-05
7.26668e-07
9.2667e-05
6.07055e-07
9.27807e-05
4.97765e-07
9.28919e-05
3.97658e-07
9.30008e-05
3.05821e-07
9.31077e-05
2.21542e-07
9.32125e-05
1.44305e-07
9.33153e-05
7.38124e-08
9.34158e-05
1.00143e-08
9.35139e-05
-4.68048e-08
9.36088e-05
-9.58827e-08
9.37004e-05
-1.35749e-07
9.37885e-05
-1.64175e-07
9.38739e-05
-1.77676e-07
-1.72759e-07
9.39593e-05
8.86672e-05
1.45748e-06
8.95236e-05
3.68997e-06
9.03603e-05
4.58959e-06
9.10607e-05
4.68622e-06
9.16219e-05
4.44636e-06
9.2059e-05
4.04547e-06
9.2404e-05
3.59695e-06
9.2686e-05
3.16757e-06
9.29246e-05
2.77713e-06
9.31329e-05
2.4284e-06
9.33198e-05
2.1197e-06
9.34911e-05
1.8469e-06
9.36506e-05
1.60519e-06
9.3801e-05
1.39023e-06
9.39439e-05
1.19826e-06
9.40809e-05
1.02606e-06
9.42127e-05
8.70893e-07
9.43403e-05
7.30477e-07
9.4464e-05
6.02897e-07
9.45845e-05
4.86561e-07
9.47021e-05
3.80153e-07
9.48172e-05
2.82602e-07
9.493e-05
1.93047e-07
9.50407e-05
1.10832e-07
9.51495e-05
3.54976e-08
9.52565e-05
-3.31982e-08
9.53617e-05
-9.52457e-08
9.54653e-05
-1.50324e-07
9.55671e-05
-1.9772e-07
9.56676e-05
-2.36203e-07
9.57674e-05
-2.64032e-07
9.58685e-05
-2.78745e-07
-2.78406e-07
9.59741e-05
9.1081e-05
1.14782e-06
9.17693e-05
3.00161e-06
9.24899e-05
3.86906e-06
9.31213e-05
4.05479e-06
9.36478e-05
3.91981e-06
9.40738e-05
3.61949e-06
9.44193e-05
3.25146e-06
9.47067e-05
2.88014e-06
9.49526e-05
2.53122e-06
9.51687e-05
2.21235e-06
9.53631e-05
1.9253e-06
9.55414e-05
1.66858e-06
9.57074e-05
1.43917e-06
9.58638e-05
1.23389e-06
9.60123e-05
1.04971e-06
9.61544e-05
8.83939e-07
9.62912e-05
7.34169e-07
9.64233e-05
5.98347e-07
9.65515e-05
4.74722e-07
9.66762e-05
3.61817e-07
9.6798e-05
2.58399e-07
9.69171e-05
1.63456e-07
9.7034e-05
7.61775e-08
9.71489e-05
-4.0577e-09
9.7262e-05
-7.76776e-08
9.73737e-05
-1.44905e-07
9.74842e-05
-2.05737e-07
9.75938e-05
-2.59916e-07
9.7703e-05
-3.06883e-07
9.78125e-05
-3.45741e-07
9.79238e-05
-3.7532e-07
9.80392e-05
-3.9409e-07
-4.01285e-07
9.8162e-05
9.35993e-05
9.13153e-07
9.41554e-05
2.44551e-06
9.47752e-05
3.24925e-06
9.53433e-05
3.48671e-06
9.5835e-05
3.42808e-06
9.62473e-05
3.20725e-06
9.65911e-05
2.90763e-06
9.68827e-05
2.58852e-06
9.71355e-05
2.27848e-06
9.73592e-05
1.98859e-06
9.75614e-05
1.72319e-06
9.7747e-05
1.48289e-06
9.792e-05
1.26626e-06
9.80827e-05
1.07112e-06
9.82373e-05
8.95184e-07
9.8385e-05
7.36221e-07
9.8527e-05
5.92181e-07
9.86641e-05
4.61242e-07
9.8797e-05
3.41814e-07
9.89263e-05
2.32534e-07
9.90524e-05
1.3225e-07
9.91759e-05
4.00045e-08
9.9297e-05
-4.49772e-08
9.94162e-05
-1.2329e-07
9.95339e-05
-1.95357e-07
9.96504e-05
-2.6142e-07
9.97662e-05
-3.21535e-07
9.98819e-05
-3.75561e-07
9.99982e-05
-4.23157e-07
0.000100116
-4.63788e-07
0.000100238
-4.96829e-07
0.000100365
-5.21539e-07
-5.3799e-07
0.000100502
9.62137e-05
7.31525e-07
9.66662e-05
1.99306e-06
9.71996e-05
2.71581e-06
9.77103e-05
2.97605e-06
9.81681e-05
2.97021e-06
9.85649e-05
2.81049e-06
9.89048e-05
2.56768e-06
9.91988e-05
2.29456e-06
9.9457e-05
2.02022e-06
9.96878e-05
1.75785e-06
9.98973e-05
1.51363e-06
0.00010009
1.28979e-06
0.000100271
1.08616e-06
0.00010044
9.01518e-07
0.000100601
7.34197e-07
0.000100755
5.82427e-07
0.000100903
4.44478e-07
0.000101045
3.18749e-07
0.000101183
2.03807e-07
0.000101317
9.83973e-08
0.000101448
1.44005e-09
0.000101576
-8.79727e-08
0.000101702
-1.70585e-07
0.000101825
-2.46985e-07
0.000101948
-3.17609e-07
0.000102069
-3.82746e-07
0.00010219
-4.42538e-07
0.000102311
-4.96992e-07
0.000102434
-5.45999e-07
0.00010256
-5.89368e-07
0.00010269
-6.26941e-07
0.000102827
-6.58596e-07
-6.84949e-07
0.000102974
9.89193e-05
5.87967e-07
9.92907e-05
1.62164e-06
9.97508e-05
2.25571e-06
0.00010021
2.51702e-06
0.000100635
2.54471e-06
0.000101016
2.43033e-06
0.00010135
2.2334e-06
0.000101645
1.99979e-06
0.000101907
1.75749e-06
0.000102144
1.52074e-06
0.000102361
1.29688e-06
0.000102562
1.08928e-06
0.000102749
8.98779e-07
0.000102926
7.24904e-07
0.000103093
5.66552e-07
0.000103253
4.22354e-07
0.000103407
2.90868e-07
0.000103555
1.707e-07
0.000103698
6.05619e-08
0.000103837
-4.07e-08
0.000103973
-1.34096e-07
0.000104105
-2.20493e-07
0.000104235
-3.00614e-07
0.000104364
-3.75053e-07
0.00010449
-4.44274e-07
0.000104616
-5.08624e-07
0.000104742
-5.68347e-07
0.000104868
-6.23601e-07
0.000104997
-6.74495e-07
0.000105129
-7.21135e-07
0.000105266
-7.63727e-07
0.00010541
-8.02602e-07
-8.38694e-07
0.000105563
0.000101714
4.7217e-07
0.000102022
1.31348e-06
0.00010242
1.85727e-06
0.000102833
2.10385e-06
0.000103229
2.14947e-06
0.000103592
2.06699e-06
0.000103919
1.90592e-06
0.000104214
1.70543e-06
0.00010448
1.49134e-06
0.000104723
1.27804e-06
0.000104946
1.07344e-06
0.000105154
8.81633e-07
0.000105348
7.042e-07
0.000105532
5.41254e-07
0.000105706
3.92148e-07
0.000105873
2.55857e-07
0.000106032
1.31192e-07
0.000106186
1.69419e-08
0.000106335
-8.80522e-08
0.000106479
-1.84853e-07
0.000106619
-2.74412e-07
0.000106756
-3.5756e-07
0.000106891
-4.35011e-07
0.000107023
-5.07368e-07
0.000107154
-5.7513e-07
0.000107284
-6.38709e-07
0.000107414
-6.98445e-07
0.000107545
-7.54636e-07
0.000107678
-8.07576e-07
0.000107815
-8.576e-07
0.000107956
-9.05175e-07
0.000108104
-9.50928e-07
-9.95932e-07
0.000108262
0.000104596
3.76923e-07
0.000104854
1.05472e-06
0.000105201
1.5102e-06
0.000105574
1.7309e-06
0.000105942
1.78198e-06
0.000106289
1.72011e-06
0.000106609
1.58595e-06
0.000106902
1.41242e-06
0.000107171
1.22262e-06
0.000107418
1.03036e-06
0.000107648
8.43687e-07
0.000107863
6.67045e-07
0.000108064
5.02478e-07
0.000108255
3.5053e-07
0.000108436
2.10904e-07
0.000108609
8.28427e-08
0.000108775
-3.46343e-08
0.000108935
-1.42586e-07
0.000109089
-2.4206e-07
0.000109238
-3.34042e-07
0.000109383
-4.19433e-07
0.000109524
-4.99039e-07
0.000109663
-5.73566e-07
0.000109799
-6.43631e-07
0.000109934
-7.09768e-07
0.000110067
-7.72447e-07
0.000110201
-8.32096e-07
0.000110336
-8.89123e-07
0.000110472
-9.43963e-07
0.000110612
-9.97113e-07
0.000110756
-1.0492e-06
0.000110906
-1.10103e-06
-1.15367e-06
0.000111063
0.000107566
2.9708e-07
0.000107786
8.34499e-07
0.000108091
1.20551e-06
0.000108429
1.39276e-06
0.000108771
1.43944e-06
0.000109103
1.38874e-06
0.000109415
1.27358e-06
0.000109706
1.12125e-06
0.000109977
9.51862e-07
0.000110229
7.78182e-07
0.000110465
6.07965e-07
0.000110686
4.45722e-07
0.000110895
2.9372e-07
0.000111093
1.52769e-07
0.000111281
2.28058e-08
0.00011146
-9.67265e-08
0.000111633
-2.06652e-07
0.000111798
-3.0791e-07
0.000111957
-4.0146e-07
0.000112111
-4.88227e-07
0.000112261
-5.69071e-07
0.000112407
-6.44777e-07
0.000112549
-7.16047e-07
0.000112689
-7.83513e-07
0.000112827
-8.47737e-07
0.000112964
-9.09239e-07
0.0001131
-9.68511e-07
0.000113237
-1.02604e-06
0.000113376
-1.08236e-06
0.000113517
-1.13806e-06
0.000113661
-1.19384e-06
0.000113811
-1.25057e-06
-1.30924e-06
0.000113966
0.000110625
2.28895e-07
0.000110815
6.44325e-07
0.000111085
9.35438e-07
0.000111394
1.08425e-06
0.000111714
1.11884e-06
0.000112032
1.07149e-06
0.000112337
9.68468e-07
0.000112626
8.32059e-07
0.000112898
6.79363e-07
0.000113155
5.21782e-07
0.000113396
3.66487e-07
0.000113624
2.17789e-07
0.00011384
7.79742e-08
0.000114045
-5.20385e-08
0.00011424
-1.7218e-07
0.000114426
-2.82888e-07
0.000114604
-3.84883e-07
0.000114775
-4.79021e-07
0.00011494
-5.662e-07
0.000115099
-6.47298e-07
0.000115253
-7.23148e-07
0.000115403
-7.94518e-07
0.000115549
-8.62109e-07
0.000115692
-9.2656e-07
0.000115833
-9.88458e-07
0.000115972
-1.04835e-06
0.00011611
-1.10678e-06
0.000116248
-1.16428e-06
0.000116387
-1.22141e-06
0.000116528
-1.27882e-06
0.000116672
-1.33723e-06
0.000116819
-1.39746e-06
-1.4604e-06
0.00011697
0.000113775
1.69568e-07
0.000113942
4.77467e-07
0.000114184
6.93261e-07
0.000114468
8.00479e-07
0.000114769
8.17006e-07
0.000115074
7.66574e-07
0.000115373
6.69774e-07
0.000115661
5.44537e-07
0.000115935
4.05057e-07
0.000116196
2.61176e-07
0.000116443
1.19267e-07
0.000116677
-1.67702e-08
0.0001169
-1.44808e-07
0.000117112
-2.63957e-07
0.000117314
-3.74123e-07
0.000117507
-4.75701e-07
0.000117691
-5.69362e-07
0.000117868
-6.55919e-07
0.000118038
-7.3623e-07
0.000118202
-8.1115e-07
0.00011836
-8.81489e-07
0.000118514
-9.48007e-07
0.000118663
-1.0114e-06
0.000118809
-1.07231e-06
0.000118952
-1.13134e-06
0.000119092
-1.18906e-06
0.000119232
-1.24601e-06
0.00011937
-1.30274e-06
0.000119509
-1.35985e-06
0.000119648
-1.41794e-06
0.000119788
-1.47769e-06
0.000119931
-1.53988e-06
-1.60521e-06
0.000120075
0.000117017
1.16954e-07
0.000117166
3.28534e-07
0.000117386
4.73166e-07
0.00011765
5.3682e-07
0.000117936
5.3067e-07
0.000118231
4.71866e-07
0.000118524
3.76258e-07
0.000118811
2.57996e-07
0.000119087
1.28558e-07
0.000119352
-3.86344e-09
0.000119605
-1.33852e-07
0.000119847
-2.58082e-07
0.000120077
-3.74735e-07
0.000120296
-4.83081e-07
0.000120505
-5.83098e-07
0.000120704
-6.75209e-07
0.000120895
-7.60092e-07
0.000121078
-8.38552e-07
0.000121253
-9.11442e-07
0.000121421
-9.79603e-07
0.000121584
-1.04384e-06
0.000121741
-1.1049e-06
0.000121893
-1.16348e-06
0.000122041
-1.22023e-06
0.000122185
-1.27574e-06
0.000122326
-1.33056e-06
0.000122466
-1.38526e-06
0.000122603
-1.44037e-06
0.00012274
-1.49644e-06
0.000122876
-1.55405e-06
0.000123012
-1.6138e-06
0.000123149
-1.67635e-06
-1.74225e-06
0.000123286
0.000120354
6.9357e-08
0.000120489
1.93121e-07
0.000120692
2.70065e-07
0.00012094
2.8889e-07
0.000121214
2.56455e-07
0.000121501
1.84933e-07
0.000121791
8.62555e-08
0.000122078
-2.8693e-08
0.000122357
-1.5093e-07
0.000122627
-2.73926e-07
0.000122887
-3.93344e-07
0.000123135
-5.06546e-07
0.000123373
-6.12156e-07
0.000123599
-7.0971e-07
0.000123816
-7.99352e-07
0.000124022
-8.81602e-07
0.000124219
-9.57197e-07
0.000124408
-1.02698e-06
0.000124588
-1.09181e-06
0.000124761
-1.15255e-06
0.000124927
-1.21e-06
0.000125087
-1.26491e-06
0.000125242
-1.31797e-06
0.000125391
-1.3698e-06
0.000125536
-1.42101e-06
0.000125678
-1.47213e-06
0.000125816
-1.52368e-06
0.000125952
-1.57617e-06
0.000126086
-1.6301e-06
0.000126218
-1.68598e-06
0.000126348
-1.7443e-06
0.000126478
-1.80561e-06
-1.87026e-06
0.000126606
0.000123787
2.5391e-08
0.000123913
6.75323e-08
0.000124103
7.94269e-08
0.00012434
5.24912e-08
0.000124605
-9.12112e-09
0.000124887
-9.69438e-08
0.000125176
-2.02267e-07
0.000125464
-3.17024e-07
0.000125748
-4.34513e-07
0.000126024
-5.4985e-07
0.00012629
-6.59845e-07
0.000126546
-7.62653e-07
0.000126791
-8.57445e-07
0.000127026
-9.44123e-07
0.00012725
-1.02308e-06
0.000127463
-1.09499e-06
0.000127667
-1.16071e-06
0.000127861
-1.22115e-06
0.000128046
-1.27721e-06
0.000128223
-1.32979e-06
0.000128393
-1.37968e-06
0.000128556
-1.42765e-06
0.000128712
-1.47438e-06
0.000128863
-1.52048e-06
0.000129008
-1.56652e-06
0.000129149
-1.61301e-06
0.000129286
-1.66044e-06
0.000129419
-1.70925e-06
0.000129549
-1.75989e-06
0.000129676
-1.81276e-06
0.0001298
-1.86826e-06
0.000129921
-1.92681e-06
-1.98861e-06
0.000130039
0.00012732
-1.61289e-08
0.000127439
-5.1441e-08
0.000127621
-1.02896e-07
0.00012785
-1.76495e-07
0.000128111
-2.69716e-07
0.000128391
-3.7685e-07
0.00012868
-4.91832e-07
0.000128972
-6.09041e-07
0.000129262
-7.23861e-07
0.000129545
-8.3302e-07
0.00012982
-9.34518e-07
0.000130084
-1.02739e-06
0.000130338
-1.11143e-06
0.000130581
-1.18701e-06
0.000130813
-1.25483e-06
0.000131034
-1.31581e-06
0.000131244
-1.37094e-06
0.000131444
-1.42125e-06
0.000131635
-1.46772e-06
0.000131816
-1.51126e-06
0.000131989
-1.55273e-06
0.000132154
-1.59286e-06
0.000132312
-1.63234e-06
0.000132464
-1.67177e-06
0.000132609
-1.71167e-06
0.000132748
-1.75253e-06
0.000132883
-1.79478e-06
0.000133012
-1.8388e-06
0.000133137
-1.88494e-06
0.000133258
-1.93352e-06
0.000133375
-1.98483e-06
0.000133487
-2.03914e-06
-2.09651e-06
0.000133595
0.000130955
-5.62576e-08
0.00013107
-1.66706e-07
0.000131248
-2.8082e-07
0.000131474
-4.02167e-07
0.000131733
-5.29154e-07
0.000132015
-6.58139e-07
0.000132308
-7.85259e-07
0.000132606
-9.0705e-07
0.000132903
-1.02083e-06
0.000133195
-1.12492e-06
0.000133479
-1.21854e-06
0.000133753
-1.30167e-06
0.000134017
-1.37483e-06
0.000134268
-1.43891e-06
0.000134509
-1.495e-06
0.000134737
-1.54431e-06
0.000134954
-1.58802e-06
0.00013516
-1.62732e-06
0.000135356
-1.66325e-06
0.000135541
-1.69682e-06
0.000135718
-1.72888e-06
0.000135885
-1.7602e-06
0.000136044
-1.79144e-06
0.000136195
-1.82319e-06
0.00013634
-1.85594e-06
0.000136477
-1.89012e-06
0.000136609
-1.9261e-06
0.000136734
-1.96418e-06
0.000136854
-2.00465e-06
0.000136968
-2.04772e-06
0.000137077
-2.09357e-06
0.00013718
-2.14237e-06
-2.19406e-06
0.000137277
0.000134695
-9.59939e-08
0.000134809
-2.81058e-07
0.000134987
-4.58265e-07
0.000135213
-6.28856e-07
0.000135476
-7.91734e-07
0.000135763
-9.44849e-07
0.000136064
-1.08621e-06
0.000136371
-1.21431e-06
0.000136678
-1.32829e-06
0.000136981
-1.42804e-06
0.000137277
-1.51405e-06
0.000137563
-1.58732e-06
0.000137837
-1.64916e-06
0.000138099
-1.70106e-06
0.000138349
-1.74458e-06
0.000138586
-1.78125e-06
0.00013881
-1.81251e-06
0.000139022
-1.8397e-06
0.000139223
-1.864e-06
0.000139413
-1.88647e-06
0.000139592
-1.90801e-06
0.000139761
-1.92941e-06
0.000139921
-1.95132e-06
0.000140072
-1.9743e-06
0.000140215
-1.99879e-06
0.00014035
-2.02517e-06
0.000140478
-2.05375e-06
0.000140598
-2.08476e-06
0.000140712
-2.11839e-06
0.000140819
-2.15475e-06
0.000140919
-2.19393e-06
0.000141013
-2.23596e-06
-2.28068e-06
0.0001411
0.000138543
-1.36337e-07
0.000138659
-3.97301e-07
0.00013884
-6.39213e-07
0.000139072
-8.61031e-07
0.000139342
-1.06191e-06
0.000139638
-1.2411e-06
0.00013995
-1.39833e-06
0.00014027
-1.53393e-06
0.000140591
-1.64883e-06
0.000140907
-1.74451e-06
0.000141216
-1.8228e-06
0.000141514
-1.88576e-06
0.000141801
-1.93557e-06
0.000142074
-1.97439e-06
0.000142334
-2.00428e-06
0.00014258
-2.02717e-06
0.000142812
-2.04478e-06
0.000143031
-2.05864e-06
0.000143237
-2.07008e-06
0.000143431
-2.08023e-06
0.000143613
-2.09006e-06
0.000143784
-2.10035e-06
0.000143944
-2.11175e-06
0.000144095
-2.12479e-06
0.000144236
-2.13988e-06
0.000144368
-2.15734e-06
0.000144492
-2.1774e-06
0.000144607
-2.20022e-06
0.000144715
-2.2259e-06
0.000144814
-2.25448e-06
0.000144906
-2.28594e-06
0.000144991
-2.32025e-06
-2.35715e-06
0.000145067
0.000142501
-1.78395e-07
0.000142623
-5.18571e-07
0.000142812
-8.28289e-07
0.000143055
-1.10418e-06
0.000143338
-1.34552e-06
0.00014365
-1.55277e-06
0.000143979
-1.72724e-06
0.000144316
-1.8711e-06
0.000144654
-1.98712e-06
0.000144988
-2.07843e-06
0.000145314
-2.14826e-06
0.000145628
-2.19988e-06
0.000145929
-2.2364e-06
0.000146215
-2.26074e-06
0.000146486
-2.27552e-06
0.000146742
-2.28311e-06
0.000146983
-2.28554e-06
0.000147209
-2.28457e-06
0.000147421
-2.28167e-06
0.000147618
-2.27809e-06
0.000147803
-2.27482e-06
0.000147976
-2.27268e-06
0.000148136
-2.2723e-06
0.000148285
-2.27417e-06
0.000148424
-2.27866e-06
0.000148553
-2.28603e-06
0.000148672
-2.29644e-06
0.000148782
-2.30997e-06
0.000148882
-2.32663e-06
0.000148974
-2.34638e-06
0.000149058
-2.3691e-06
0.000149132
-2.39466e-06
-2.42271e-06
0.000149198
0.000146574
-2.2334e-07
0.000146704
-6.48185e-07
0.000146906
-1.0302e-06
0.000147165
-1.36357e-06
0.000147467
-1.64783e-06
0.000147799
-1.88474e-06
0.00014815
-2.07732e-06
0.000148508
-2.22968e-06
0.000148868
-2.34653e-06
0.000149222
-2.43272e-06
0.000149567
-2.49302e-06
0.000149899
-2.53194e-06
0.000150216
-2.55362e-06
0.000150517
-2.5618e-06
0.000150801
-2.55974e-06
0.000151068
-2.55027e-06
0.000151319
-2.53578e-06
0.000151552
-2.51827e-06
0.00015177
-2.49939e-06
0.000151972
-2.48049e-06
0.00015216
-2.46262e-06
0.000152334
-2.4466e-06
0.000152495
-2.43306e-06
0.000152643
-2.42246e-06
0.00015278
-2.41511e-06
0.000152905
-2.41121e-06
0.000153019
-2.41084e-06
0.000153123
-2.41403e-06
0.000153217
-2.4207e-06
0.000153302
-2.43072e-06
0.000153376
-2.44392e-06
0.000153442
-2.4601e-06
-2.47888e-06
0.000153498
0.000150765
-2.72894e-07
0.000150908
-7.90982e-07
0.00015113
-1.25223e-06
0.000151415
-1.64809e-06
0.000151745
-1.97854e-06
0.000152107
-2.24681e-06
0.000152488
-2.45785e-06
0.000152876
-2.61801e-06
0.000153264
-2.73423e-06
0.000153645
-2.81335e-06
0.000154013
-2.86185e-06
0.000154367
-2.88565e-06
0.000154703
-2.89002e-06
0.000155021
-2.87959e-06
0.00015532
-2.8583e-06
0.000155599
-2.82949e-06
0.000155859
-2.79591e-06
0.000156101
-2.75984e-06
0.000156324
-2.72308e-06
0.000156531
-2.68708e-06
0.000156721
-2.65294e-06
0.000156896
-2.6215e-06
0.000157057
-2.59336e-06
0.000157203
-2.56893e-06
0.000157336
-2.54848e-06
0.000157457
-2.53213e-06
0.000157566
-2.5199e-06
0.000157664
-2.51172e-06
0.000157751
-2.50744e-06
0.000157827
-2.50686e-06
0.000157893
-2.50969e-06
0.000157948
-2.51565e-06
-2.52427e-06
0.000157994
0.000155077
-3.28464e-07
0.000155237
-9.51098e-07
0.000155485
-1.49981e-06
0.0001558
-1.96338e-06
0.000156165
-2.34307e-06
0.000156562
-2.64421e-06
0.000156978
-2.87398e-06
0.000157401
-3.04123e-06
0.000157823
-3.15535e-06
0.000158235
-3.22536e-06
0.000158632
-3.25959e-06
0.000159012
-3.26553e-06
0.000159372
-3.24972e-06
0.00015971
-3.21778e-06
0.000160026
-3.1744e-06
0.00016032
-3.12349e-06
0.000160593
-3.06822e-06
0.000160844
-3.01114e-06
0.000161075
-2.95422e-06
0.000161287
-2.89902e-06
0.000161481
-2.84669e-06
0.000161657
-2.79806e-06
0.000161818
-2.7537e-06
0.000161963
-2.71399e-06
0.000162093
-2.6791e-06
0.00016221
-2.64909e-06
0.000162314
-2.6239e-06
0.000162406
-2.60338e-06
0.000162486
-2.58732e-06
0.000162554
-2.57542e-06
0.000162612
-2.56736e-06
0.000162659
-2.56283e-06
-2.56129e-06
0.000162696
0.000159516
-3.94285e-07
0.000159705
-1.1395e-06
0.000159994
-1.78889e-06
0.000160358
-2.32794e-06
0.000160776
-2.76026e-06
0.000161226
-3.09424e-06
0.000161692
-3.34035e-06
0.000162162
-3.51098e-06
0.000162625
-3.61866e-06
0.000163075
-3.67502e-06
0.000163506
-3.69049e-06
0.000163914
-3.67427e-06
0.000164299
-3.63425e-06
0.000164658
-3.57704e-06
0.000164992
-3.50813e-06
0.0001653
-3.43197e-06
0.000165584
-3.35213e-06
0.000165845
-3.27139e-06
0.000166082
-3.19193e-06
0.000166299
-3.11537e-06
0.000166495
-3.04287e-06
0.000166672
-2.97526e-06
0.000166831
-2.91307e-06
0.000166974
-2.85659e-06
0.000167101
-2.80595e-06
0.000167213
-2.76109e-06
0.000167311
-2.72188e-06
0.000167396
-2.68809e-06
0.000167468
-2.65939e-06
0.000167528
-2.63544e-06
0.000167576
-2.61579e-06
0.000167613
-2.60004e-06
-2.58756e-06
0.00016764
0.000164082
-4.70124e-07
0.000164301
-1.35827e-06
0.000164633
-2.12155e-06
0.00016505
-2.74427e-06
0.000165524
-3.23454e-06
0.000166034
-3.60407e-06
0.00016656
-3.86668e-06
0.000167088
-4.03873e-06
0.000167606
-4.13646e-06
0.000168105
-4.17459e-06
0.000168581
-4.16613e-06
0.000169029
-4.12237e-06
0.000169448
-4.05279e-06
0.000169836
-3.96523e-06
0.000170194
-3.86602e-06
0.000170522
-3.76026e-06
0.000170822
-3.65191e-06
0.000171094
-3.54403e-06
0.000171341
-3.43891e-06
0.000171564
-3.33823e-06
0.000171764
-3.24316e-06
0.000171944
-3.15446e-06
0.000172103
-3.07259e-06
0.000172244
-2.99773e-06
0.000172368
-2.9299e-06
0.000172476
-2.86897e-06
0.000172569
-2.81468e-06
0.000172648
-2.76672e-06
0.000172713
-2.72469e-06
0.000172766
-2.68817e-06
0.000172806
-2.65667e-06
0.000172836
-2.62975e-06
-2.60673e-06
0.000172855
0.000168795
-5.73267e-07
0.00016908
-1.64318e-06
0.0001695
-2.54169e-06
0.00017001
-3.2541e-06
0.000170575
-3.7996e-06
0.000171168
-4.19737e-06
0.000171769
-4.46754e-06
0.000172363
-4.63221e-06
0.000172938
-4.71186e-06
0.000173488
-4.72437e-06
0.000174007
-4.68531e-06
0.000174492
-4.60796e-06
0.000174943
-4.50332e-06
0.000175358
-4.38034e-06
0.000175738
-4.24622e-06
0.000176085
-4.10662e-06
0.000176399
-3.9659e-06
0.000176682
-3.82736e-06
0.000176937
-3.69342e-06
0.000177164
-3.56577e-06
0.000177366
-3.44556e-06
0.000177545
-3.33349e-06
0.000177703
-3.22988e-06
0.00017784
-3.13484e-06
0.000177958
-3.04823e-06
0.000178059
-2.96981e-06
0.000178144
-2.89922e-06
0.000178213
-2.83601e-06
0.000178268
-2.77971e-06
0.000178309
-2.72978e-06
0.000178338
-2.68566e-06
0.000178356
-2.64678e-06
-2.61233e-06
0.000178361
0.000173623
-6.84836e-07
0.000173954
-1.97423e-06
0.000174446
-3.03335e-06
0.000175048
-3.85627e-06
0.00017572
-4.47176e-06
0.000176426
-4.90327e-06
0.000177137
-5.17852e-06
0.000177833
-5.32819e-06
0.0001785
-5.37915e-06
0.00017913
-5.35406e-06
0.000179717
-5.2722e-06
0.000180258
-5.14958e-06
0.000180754
-4.99911e-06
0.000181205
-4.83109e-06
0.000181612
-4.6536e-06
0.000181978
-4.47284e-06
0.000182306
-4.29349e-06
0.000182598
-4.11897e-06
0.000182856
-3.9517e-06
0.000183083
-3.79331e-06
0.000183283
-3.6448e-06
0.000183456
-3.5067e-06
0.000183605
-3.37916e-06
0.000183732
-3.26208e-06
0.000183839
-3.15517e-06
0.000183928
-3.05799e-06
0.000183998
-2.97005e-06
0.000184053
-2.89079e-06
0.000184093
-2.81965e-06
0.000184119
-2.75604e-06
0.000184133
-2.69936e-06
0.000184135
-2.64907e-06
-2.60424e-06
0.000184127
0.000178682
-8.98545e-07
0.000179191
-2.48248e-06
0.000179863
-3.70626e-06
0.000180622
-4.61442e-06
0.000181423
-5.27352e-06
0.000182236
-5.71627e-06
0.000183037
-5.97885e-06
0.000183808
-6.09939e-06
0.000184538
-6.10959e-06
0.00018522
-6.03608e-06
0.00018585
-5.90164e-06
0.000186425
-5.72492e-06
0.000186947
-5.5208e-06
0.000187417
-5.30094e-06
0.000187837
-5.07431e-06
0.000188212
-4.84766e-06
0.000188545
-4.62589e-06
0.000188838
-4.41249e-06
0.000189096
-4.20976e-06
0.000189322
-4.01916e-06
0.000189519
-3.84146e-06
0.000189689
-3.67689e-06
0.000189835
-3.52537e-06
0.000189959
-3.38649e-06
0.000190064
-3.25973e-06
0.00019015
-3.14443e-06
0.00019022
-3.03988e-06
0.000190275
-2.94539e-06
0.000190316
-2.86027e-06
0.000190343
-2.78388e-06
0.00019036
-2.71561e-06
0.000190365
-2.65489e-06
-2.60073e-06
0.000190362
0.000183746
-1.07688e-06
0.000184337
-3.07401e-06
0.00018517
-4.53911e-06
0.000186141
-5.58531e-06
0.000187168
-6.30044e-06
0.000188188
-6.73591e-06
0.000189166
-6.95748e-06
0.000190089
-7.02222e-06
0.00019095
-6.97073e-06
0.000191749
-6.83485e-06
0.000192488
-6.64027e-06
0.000193169
-6.40681e-06
0.000193798
-6.14968e-06
0.000194378
-5.88051e-06
0.000194912
-5.60807e-06
0.000195403
-5.33882e-06
0.000195854
-5.07747e-06
0.000196269
-4.82728e-06
0.00019665
-4.59042e-06
0.000196999
-4.36816e-06
0.000197319
-4.16111e-06
0.000197611
-3.96936e-06
0.000197878
-3.79263e-06
0.000198122
-3.63036e-06
0.000198344
-3.48183e-06
0.000198546
-3.34622e-06
0.000198729
-3.2227e-06
0.000198894
-3.11044e-06
0.000199042
-3.00877e-06
0.000199176
-2.91706e-06
0.000199295
-2.83511e-06
0.000199403
-2.7624e-06
-2.69921e-06
0.000199501
0.000189418
-1.68247e-06
0.000190405
-4.06183e-06
0.000191487
-5.62068e-06
0.000192646
-6.7442e-06
0.000193889
-7.54352e-06
0.000195195
-8.04231e-06
0.000196545