/*--------------------------------*- C++ -*----------------------------------*\
| =========                 |                                                 |
| \\      /  F ield         | OpenFOAM: The Open Source CFD Toolbox           |
|  \\    /   O peration     | Version:  2.1.1                                 |
|   \\  /    A nd           | Web:      www.OpenFOAM.org                      |
|    \\/     M anipulation  |                                                 |
\*---------------------------------------------------------------------------*/
FoamFile
{
    version     2.0;
    format      ascii;
    class       volVectorField;
    location    "0.11";
    object      U;
}
// * * * * * * * * * * * * * * * * * * * * * * * * * * * * * * * * * * * * * //

dimensions      [0 1 -1 0 0 0 0];

internalField   nonuniform List<vector> 
6820
(
(6.37603 0.503734 0)
(4.42445 0.286852 0)
(2.97384 0.0201882 0)
(2.2348 -0.0619377 0)
(1.96942 -0.0600196 0)
(1.84286 -0.0345974 0)
(1.76827 -0.0151788 0)
(1.71653 -0.00479461 0)
(1.67359 -8.36123e-05 0)
(1.63642 0.00143451 0)
(1.60442 0.00142746 0)
(1.57713 0.00083123 0)
(1.55402 7.82192e-05 0)
(1.53456 -0.000642948 0)
(1.51824 -0.00125859 0)
(1.50457 -0.0017516 0)
(1.4932 -0.00213048 0)
(1.48379 -0.00241277 0)
(1.47608 -0.00261699 0)
(1.46988 -0.00275956 0)
(1.46499 -0.00285381 0)
(1.46128 -0.00290999 0)
(1.45863 -0.00293437 0)
(1.45692 -0.0029326 0)
(1.45609 -0.00289818 0)
(1.45612 -0.00291254 0)
(1.45689 -0.00302097 0)
(1.45861 -0.00311159 0)
(1.46084 -0.00340348 0)
(1.46577 -0.00349335 0)
(1.46837 -0.00541668 0)
(1.48804 -0.00322511 0)
(1.47453 -0.0362276 0)
(8.72021 0.95959 0)
(8.76485 1.01184 0)
(7.96914 0.678888 0)
(7.05596 0.39374 0)
(6.35535 0.202248 0)
(5.84951 0.103099 0)
(5.48826 0.0575616 0)
(5.22777 0.0369979 0)
(5.03307 0.0277275 0)
(4.88199 0.0231153 0)
(4.76112 0.0203118 0)
(4.66209 0.0182655 0)
(4.57952 0.0165836 0)
(4.5098 0.0151032 0)
(4.45042 0.0137458 0)
(4.39956 0.0124709 0)
(4.35583 0.0112585 0)
(4.31819 0.0100987 0)
(4.2858 0.00898612 0)
(4.25799 0.00791764 0)
(4.23421 0.00689137 0)
(4.214 0.00590578 0)
(4.19698 0.00495976 0)
(4.18282 0.00404624 0)
(4.17124 0.00315618 0)
(4.16199 0.00226643 0)
(4.1549 0.00131945 0)
(4.1499 0.000335961 0)
(4.14684 -0.00106822 0)
(4.14627 -0.00254807 0)
(4.14754 -0.00672443 0)
(4.15511 -0.0111584 0)
(4.1628 -0.0276926 0)
(8.58611 0.583423 0)
(9.33128 0.762169 0)
(9.61449 0.659872 0)
(9.50463 0.526175 0)
(9.23873 0.396546 0)
(8.92669 0.298589 0)
(8.62143 0.229653 0)
(8.34611 0.180132 0)
(8.105 0.144048 0)
(7.89585 0.117225 0)
(7.71495 0.096753 0)
(7.55844 0.0807718 0)
(7.42282 0.0680669 0)
(7.30504 0.057812 0)
(7.20256 0.0494142 0)
(7.11321 0.042433 0)
(7.03519 0.0365394 0)
(6.96701 0.0314889 0)
(6.90738 0.0270988 0)
(6.85524 0.023232 0)
(6.80969 0.0197845 0)
(6.76996 0.0166761 0)
(6.7354 0.0138433 0)
(6.70544 0.0112312 0)
(6.6796 0.00878625 0)
(6.65747 0.00647098 0)
(6.6387 0.00421235 0)
(6.623 0.00192054 0)
(6.61009 -0.000709901 0)
(6.5998 -0.00377187 0)
(6.59177 -0.00888597 0)
(6.58483 -0.0158788 0)
(6.57761 -0.0308403 0)
(8.44093 0.379643 0)
(8.94588 0.583878 0)
(9.35831 0.554289 0)
(9.58602 0.486664 0)
(9.70019 0.406589 0)
(9.73631 0.337287 0)
(9.72098 0.284617 0)
(9.67654 0.244255 0)
(9.61588 0.212562 0)
(9.54632 0.186955 0)
(9.4726 0.165589 0)
(9.39782 0.147338 0)
(9.32401 0.131494 0)
(9.25265 0.117564 0)
(9.18468 0.105219 0)
(9.12062 0.094219 0)
(9.06076 0.0843665 0)
(9.0052 0.0754974 0)
(8.95393 0.0674735 0)
(8.90685 0.0601787 0)
(8.86382 0.0535153 0)
(8.82466 0.0474004 0)
(8.78917 0.041763 0)
(8.75714 0.0365384 0)
(8.72836 0.0316648 0)
(8.70263 0.0270825 0)
(8.67972 0.0227006 0)
(8.65944 0.0184168 0)
(8.64153 0.0139909 0)
(8.62561 0.00925705 0)
(8.61117 0.00343658 0)
(8.59615 -0.00361584 0)
(8.58009 -0.0120047 0)
(8.40214 0.280005 0)
(8.71897 0.480501 0)
(8.99884 0.461617 0)
(9.17428 0.404005 0)
(9.29872 0.341861 0)
(9.39209 0.28929 0)
(9.4611 0.250117 0)
(9.51392 0.220347 0)
(9.55539 0.196666 0)
(9.58786 0.177176 0)
(9.61308 0.160619 0)
(9.63244 0.14621 0)
(9.64709 0.133468 0)
(9.65766 0.122059 0)
(9.66486 0.111734 0)
(9.66935 0.102302 0)
(9.6717 0.0936193 0)
(9.67242 0.0855728 0)
(9.67191 0.0780744 0)
(9.67053 0.0710535 0)
(9.66857 0.0644532 0)
(9.66626 0.0582266 0)
(9.66379 0.052334 0)
(9.66132 0.0467391 0)
(9.65897 0.0414052 0)
(9.65681 0.0362941 0)
(9.65489 0.0313493 0)
(9.65321 0.0265007 0)
(9.65166 0.0216169 0)
(9.64998 0.0166042 0)
(9.64774 0.0112527 0)
(9.64351 0.00575406 0)
(9.63676 0.00104172 0)
(8.37748 0.20211 0)
(8.60136 0.383361 0)
(8.81582 0.390318 0)
(8.94685 0.355825 0)
(9.03272 0.311356 0)
(9.09548 0.267729 0)
(9.14237 0.231723 0)
(9.18066 0.203016 0)
(9.21455 0.179815 0)
(9.24543 0.160786 0)
(9.2739 0.144837 0)
(9.30032 0.131142 0)
(9.32487 0.119164 0)
(9.34783 0.108547 0)
(9.36933 0.0990064 0)
(9.38947 0.0903289 0)
(9.40832 0.0823568 0)
(9.42597 0.074972 0)
(9.44252 0.0680833 0)
(9.45803 0.0616196 0)
(9.47259 0.0555247 0)
(9.48629 0.0497539 0)
(9.49919 0.0442702 0)
(9.51136 0.0390423 0)
(9.52286 0.0340414 0)
(9.53372 0.0292404 0)
(9.54396 0.0246057 0)
(9.55356 0.0201038 0)
(9.56241 0.0156926 0)
(9.57031 0.0113839 0)
(9.57689 0.00727199 0)
(9.58148 0.00374426 0)
(9.58374 0.00193259 0)
(8.36128 0.148731 0)
(8.52273 0.311135 0)
(8.69749 0.336625 0)
(8.81229 0.316954 0)
(8.88696 0.283599 0)
(8.94013 0.247283 0)
(8.97796 0.215499 0)
(9.00665 0.189451 0)
(9.03061 0.167977 0)
(9.05176 0.150038 0)
(9.07105 0.134796 0)
(9.08907 0.121595 0)
(9.10616 0.109974 0)
(9.12248 0.0996046 0)
(9.13814 0.0902504 0)
(9.15323 0.0817345 0)
(9.1678 0.0739191 0)
(9.18187 0.0666937 0)
(9.19548 0.0599693 0)
(9.20865 0.053674 0)
(9.22138 0.04775 0)
(9.2337 0.0421508 0)
(9.24562 0.036839 0)
(9.25716 0.0317841 0)
(9.26831 0.0269618 0)
(9.27908 0.0223535 0)
(9.28944 0.0179451 0)
(9.29933 0.013736 0)
(9.30866 0.00974553 0)
(9.31724 0.00606619 0)
(9.32483 0.00289881 0)
(9.33108 0.000690361 0)
(9.33587 0.000237681 0)
(8.35116 0.111286 0)
(8.46741 0.251291 0)
(8.6082 0.285987 0)
(8.70996 0.277645 0)
(8.77984 0.255164 0)
(8.83155 0.227573 0)
(8.86945 0.201305 0)
(8.89806 0.178468 0)
(8.92136 0.1588 0)
(8.94135 0.141825 0)
(8.95909 0.127096 0)
(8.97528 0.114176 0)
(8.99038 0.102713 0)
(9.00464 0.0924412 0)
(9.01823 0.083157 0)
(9.03128 0.0746929 0)
(9.04387 0.0669136 0)
(9.05608 0.0597107 0)
(9.06794 0.0529972 0)
(9.07949 0.0467034 0)
(9.09077 0.0407733 0)
(9.10179 0.0351629 0)
(9.11258 0.0298372 0)
(9.12314 0.02477 0)
(9.13348 0.0199434 0)
(9.1436 0.0153487 0)
(9.15347 0.0109898 0)
(9.16303 0.00689124 0)
(9.17223 0.0031151 0)
(9.18094 -0.000216807 0)
(9.18903 -0.00285915 0)
(9.19635 -0.00438695 0)
(9.20298 -0.00419467 0)
(8.34487 0.0845982 0)
(8.42938 0.203371 0)
(8.54219 0.243135 0)
(8.63095 0.243672 0)
(8.69497 0.229351 0)
(8.74411 0.208198 0)
(8.78161 0.186066 0)
(8.81069 0.165798 0)
(8.83461 0.147829 0)
(8.8552 0.132018 0)
(8.87344 0.118111 0)
(8.89001 0.105795 0)
(8.90537 0.0947846 0)
(8.91978 0.0848545 0)
(8.93345 0.0758241 0)
(8.94651 0.0675465 0)
(8.95907 0.0599031 0)
(8.97121 0.0527985 0)
(8.98298 0.0461551 0)
(8.99443 0.0399096 0)
(9.00559 0.0340108 0)
(9.01651 0.028418 0)
(9.02719 0.0231001 0)
(9.03767 0.0180349 0)
(9.04795 0.0132103 0)
(9.05803 0.00862626 0)
(9.06791 0.00429881 0)
(9.07756 0.000269028 0)
(9.08694 -0.00338113 0)
(9.09601 -0.00651675 0)
(9.10474 -0.00890114 0)
(9.11314 -0.0101697 0)
(9.12137 -0.00989658 0)
(8.34094 0.0653411 0)
(8.40308 0.165001 0)
(8.49327 0.205973 0)
(8.56997 0.21236 0)
(8.62811 0.204042 0)
(8.67426 0.188333 0)
(8.71077 0.170293 0)
(8.73979 0.152854 0)
(8.7639 0.136824 0)
(8.78475 0.122313 0)
(8.80325 0.109264 0)
(8.82005 0.0975184 0)
(8.83559 0.0868932 0)
(8.85017 0.0772256 0)
(8.86399 0.0683763 0)
(8.87718 0.0602254 0)
(8.88985 0.0526708 0)
(8.90208 0.0456266 0)
(8.91394 0.0390208 0)
(8.92546 0.0327938 0)
(8.93669 0.0268972 0)
(8.94767 0.0212926 0)
(8.95842 0.0159512 0)
(8.96897 0.010854 0)
(8.97933 0.00599278 0)
(8.98952 0.00137267 0)
(8.99954 -0.00298395 0)
(9.0094 -0.0070293 0)
(9.01909 -0.0106819 0)
(9.02863 -0.0138047 0)
(9.03807 -0.0162042 0)
(9.04751 -0.0175987 0)
(9.05718 -0.0177089 0)
(8.33845 0.0511724 0)
(8.38472 0.13415 0)
(8.4569 0.173935 0)
(8.52285 0.184257 0)
(8.57537 0.180599 0)
(8.61843 0.169364 0)
(8.65357 0.15481 0)
(8.68219 0.139785 0)
(8.70629 0.125409 0)
(8.72727 0.112037 0)
(8.74597 0.0997812 0)
(8.76297 0.0886047 0)
(8.7787 0.0784006 0)
(8.79345 0.0690513 0)
(8.80741 0.0604456 0)
(8.82073 0.0524817 0)
(8.83351 0.0450696 0)
(8.84583 0.038132 0)
(8.85777 0.0316033 0)
(8.86937 0.0254289 0)
(8.88068 0.0195637 0)
(8.89173 0.0139722 0)
(8.90255 0.00862782 0)
(8.91318 0.00351365 0)
(8.92365 -0.00137655 0)
(8.93396 -0.00603608 0)
(8.94416 -0.0104414 0)
(8.95425 -0.0145472 0)
(8.96428 -0.0182799 0)
(8.9743 -0.0215288 0)
(8.9844 -0.0241463 0)
(8.99475 -0.0259327 0)
(9.00559 -0.0267279 0)
(8.33687 0.040538 0)
(8.37181 0.109282 0)
(8.42971 0.146384 0)
(8.48617 0.15894 0)
(8.53337 0.158553 0)
(8.57329 0.150737 0)
(8.60688 0.139104 0)
(8.63495 0.12629 0)
(8.65894 0.113551 0)
(8.68001 0.101384 0)
(8.69889 0.0900057 0)
(8.7161 0.0794669 0)
(8.73203 0.0697288 0)
(8.74697 0.0607207 0)
(8.76109 0.0523647 0)
(8.77455 0.0445828 0)
(8.78746 0.037302 0)
(8.7999 0.0304564 0)
(8.81194 0.0239884 0)
(8.82363 0.0178483 0)
(8.83502 0.0119943 0)
(8.84615 0.0063931 0)
(8.85706 0.00101918 0)
(8.86778 -0.00414385 0)
(8.87834 -0.00910242 0)
(8.88879 -0.0138511 0)
(8.89914 -0.0183701 0)
(8.90946 -0.0226228 0)
(8.91979 -0.0265518 0)
(8.93022 -0.0300766 0)
(8.94087 -0.0330977 0)
(8.95193 -0.0354915 0)
(8.96362 -0.0371906 0)
(8.33583 0.0323875 0)
(8.36262 0.0891071 0)
(8.40929 0.122671 0)
(8.45751 0.136171 0)
(8.49976 0.138022 0)
(8.53663 0.132845 0)
(8.56853 0.123656 0)
(8.59585 0.112785 0)
(8.61958 0.101515 0)
(8.64064 0.0904406 0)
(8.65963 0.079864 0)
(8.67702 0.0699157 0)
(8.69315 0.0606182 0)
(8.70828 0.0519434 0)
(8.72259 0.0438422 0)
(8.73622 0.0362563 0)
(8.74928 0.0291258 0)
(8.76186 0.0223935 0)
(8.77401 0.0160074 0)
(8.78581 0.00992176 0)
(8.79729 0.00409719 0)
(8.80851 -0.00149865 0)
(8.81951 -0.00689078 0)
(8.83031 -0.0120963 0)
(8.84098 -0.0171235 0)
(8.85153 -0.0219713 0)
(8.86203 -0.0266274 0)
(8.87253 -0.0310675 0)
(8.88311 -0.0352544 0)
(8.89386 -0.039139 0)
(8.90491 -0.0426677 0)
(8.91645 -0.0457813 0)
(8.92868 -0.04848 0)
(8.33514 0.0260076 0)
(8.356 0.0726092 0)
(8.39386 0.102244 0)
(8.43504 0.115715 0)
(8.47277 0.118931 0)
(8.50668 0.115651 0)
(8.53683 0.10838 0)
(8.56327 0.0991365 0)
(8.58662 0.0891636 0)
(8.60758 0.0791062 0)
(8.62663 0.0693166 0)
(8.64416 0.0599748 0)
(8.66047 0.0511464 0)
(8.67578 0.0428359 0)
(8.69027 0.0350174 0)
(8.70407 0.0276504 0)
(8.71729 0.0206877 0)
(8.72999 0.0140812 0)
(8.74227 0.00778532 0)
(8.75417 0.00175838 0)
(8.76574 -0.00403655 0)
(8.77704 -0.00963077 0)
(8.7881 -0.0150495 0)
(8.79898 -0.0203115 0)
(8.80971 -0.0254287 0)
(8.82035 -0.0304058 0)
(8.83095 -0.0352398 0)
(8.84158 -0.0399203 0)
(8.85232 -0.044431 0)
(8.86327 -0.0487523 0)
(8.87455 -0.0528692 0)
(8.88636 -0.0567736 0)
(8.89884 -0.0605114 0)
(8.33466 0.0209101 0)
(8.35117 0.0589861 0)
(8.38213 0.0845891 0)
(8.41738 0.0973174 0)
(8.45102 0.101197 0)
(8.48217 0.0992072 0)
(8.51056 0.0934103 0)
(8.53603 0.085517 0)
(8.55891 0.0766745 0)
(8.57968 0.0675329 0)
(8.59873 0.0584693 0)
(8.61635 0.0496965 0)
(8.6328 0.041314 0)
(8.64827 0.0333543 0)
(8.66293 0.0258128 0)
(8.67689 0.0186646 0)
(8.69025 0.0118739 0)
(8.70309 0.00540044 0)
(8.71547 -0.000796234 0)
(8.72747 -0.00675485 0)
(8.73912 -0.0125107 0)
(8.75049 -0.018095 0)
(8.76161 -0.0235342 0)
(8.77254 -0.0288499 0)
(8.78332 -0.0340586 0)
(8.794 -0.0391717 0)
(8.80466 -0.0441965 0)
(8.81535 -0.0491366 0)
(8.82616 -0.0539951 0)
(8.83718 -0.0587775 0)
(8.84854 -0.0635 0)
(8.86039 -0.0681922 0)
(8.87286 -0.0729284 0)
(8.33432 0.0167557 0)
(8.3476 0.047609 0)
(8.37318 0.0692543 0)
(8.40346 0.0807388 0)
(8.43349 0.0847225 0)
(8.46208 0.0835063 0)
(8.48877 0.0787665 0)
(8.51322 0.0719307 0)
(8.53556 0.0640253 0)
(8.55608 0.0556782 0)
(8.57507 0.0472723 0)
(8.59274 0.0390368 0)
(8.6093 0.0310925 0)
(8.62492 0.0234908 0)
(8.63972 0.016242 0)
(8.65383 0.0093328 0)
(8.66732 0.00273581 0)
(8.68028 -0.00358311 0)
(8.69277 -0.00966052 0)
(8.70484 -0.0155326 0)
(8.71656 -0.0212338 0)
(8.72798 -0.0267954 0)
(8.73913 -0.0322459 0)
(8.75008 -0.0376098 0)
(8.76086 -0.0429085 0)
(8.77155 -0.0481605 0)
(8.7822 -0.0533827 0)
(8.79287 -0.0585915 0)
(8.80365 -0.0638064 0)
(8.81462 -0.0690531 0)
(8.82589 -0.0743702 0)
(8.8376 -0.0798127 0)
(8.84982 -0.0854698 0)
(8.33407 0.0133045 0)
(8.34494 0.0379866 0)
(8.36631 0.0558431 0)
(8.39249 0.0657435 0)
(8.41935 0.0693897 0)
(8.44563 0.0685169 0)
(8.47071 0.064471 0)
(8.49415 0.0584274 0)
(8.51591 0.05128 0)
(8.53614 0.0436113 0)
(8.55502 0.0357913 0)
(8.5727 0.0280513 0)
(8.58934 0.0205221 0)
(8.60508 0.0132669 0)
(8.62002 0.00630719 0)
(8.63425 -0.000361958 0)
(8.64786 -0.006761 0)
(8.66093 -0.0129191 0)
(8.6735 -0.0188696 0)
(8.68565 -0.0246469 0)
(8.69741 -0.0302851 0)
(8.70885 -0.0358162 0)
(8.72001 -0.0412707 0)
(8.73095 -0.0466764 0)
(8.74171 -0.0520596 0)
(8.75234 -0.0574453 0)
(8.76292 -0.0628589 0)
(8.7735 -0.0683276 0)
(8.78415 -0.0738838 0)
(8.79496 -0.0795676 0)
(8.806 -0.0854323 0)
(8.81739 -0.0915484 0)
(8.82917 -0.098009 0)
(8.33389 0.0103837 0)
(8.34294 0.0297338 0)
(8.36103 0.0440113 0)
(8.38383 0.0521071 0)
(8.40798 0.0550726 0)
(8.4322 0.0541874 0)
(8.45579 0.050517 0)
(8.47825 0.0450165 0)
(8.49943 0.0384469 0)
(8.51935 0.0313314 0)
(8.53809 0.0240156 0)
(8.55576 0.0167221 0)
(8.57246 0.00958335 0)
(8.58829 0.00266795 0)
(8.60335 -0.00399714 0)
(8.6177 -0.0104117 0)
(8.63141 -0.0165921 0)
(8.64457 -0.0225649 0)
(8.65721 -0.0283617 0)
(8.66941 -0.0340164 0)
(8.6812 -0.0395634 0)
(8.69264 -0.0450362 0)
(8.70377 -0.0504674 0)
(8.71466 -0.0558882 0)
(8.72534 -0.0613295 0)
(8.73588 -0.0668218 0)
(8.74632 -0.0723977 0)
(8.75672 -0.0780925 0)
(8.76715 -0.0839475 0)
(8.77768 -0.0900123 0)
(8.78837 -0.0963483 0)
(8.7993 -0.103033 0)
(8.81051 -0.110156 0)
(8.33375 0.00786536 0)
(8.34142 0.0225475 0)
(8.35696 0.0334614 0)
(8.37703 0.0396167 0)
(8.39887 0.0416363 0)
(8.42129 0.0404458 0)
(8.44355 0.0368762 0)
(8.46511 0.0316941 0)
(8.48573 0.0255338 0)
(8.50533 0.0188518 0)
(8.52393 0.0119592 0)
(8.54158 0.005061 0)
(8.55832 -0.00171735 0)
(8.57424 -0.00830857 0)
(8.58939 -0.0146847 0)
(8.60384 -0.0208439 0)
(8.61765 -0.026801 0)
(8.63088 -0.0325812 0)
(8.64359 -0.0382155 0)
(8.65581 -0.0437378 0)
(8.6676 -0.0491831 0)
(8.67902 -0.0545863 0)
(8.6901 -0.059982 0)
(8.7009 -0.0654043 0)
(8.71147 -0.0708876 0)
(8.72185 -0.0764669 0)
(8.73209 -0.0821796 0)
(8.74225 -0.0880666 0)
(8.75239 -0.0941746 0)
(8.76254 -0.100558 0)
(8.77277 -0.10728 0)
(8.78313 -0.114418 0)
(8.79364 -0.122055 0)
(8.33365 0.005653 0)
(8.34027 0.0161858 0)
(8.35383 0.0239365 0)
(8.3717 0.028071 0)
(8.39163 0.0289415 0)
(8.41252 0.0272058 0)
(8.43362 0.0235027 0)
(8.45438 0.0184391 0)
(8.47448 0.0125332 0)
(8.49379 0.00617203 0)
(8.51226 -0.000374339 0)
(8.52987 -0.00692444 0)
(8.54665 -0.0133659 0)
(8.56264 -0.0196381 0)
(8.57788 -0.0257161 0)
(8.59243 -0.0315999 0)
(8.60632 -0.0373054 0)
(8.61961 -0.0428586 0)
(8.63235 -0.0482914 0)
(8.64458 -0.053639 0)
(8.65636 -0.0589379 0)
(8.66772 -0.0642248 0)
(8.67871 -0.0695366 0)
(8.68939 -0.0749101 0)
(8.69979 -0.0803824 0)
(8.70997 -0.085992 0)
(8.71996 -0.0917793 0)
(8.72981 -0.0977883 0)
(8.73957 -0.104068 0)
(8.74928 -0.110673 0)
(8.75897 -0.117666 0)
(8.76867 -0.125121 0)
(8.77841 -0.133108 0)
(8.33357 0.00367133 0)
(8.3394 0.0104535 0)
(8.35144 0.0152128 0)
(8.36759 0.0172801 0)
(8.38596 0.0168437 0)
(8.40557 0.0143651 0)
(8.4257 0.0103277 0)
(8.44578 0.00520409 0)
(8.46544 -0.000592235 0)
(8.48451 -0.00674379 0)
(8.50287 -0.0130251 0)
(8.52047 -0.0192839 0)
(8.5373 -0.0254263 0)
(8.55337 -0.031403 0)
(8.5687 -0.0371965 0)
(8.58334 -0.0428112 0)
(8.5973 -0.0482662 0)
(8.61065 -0.0535899 0)
(8.62341 -0.0588161 0)
(8.63564 -0.0639816 0)
(8.64738 -0.0691245 0)
(8.65866 -0.0742832 0)
(8.66955 -0.0794962 0)
(8.68007 -0.084802 0)
(8.69027 -0.0902397 0)
(8.7002 -0.0958492 0)
(8.70989 -0.101672 0)
(8.71938 -0.107754 0)
(8.7287 -0.114142 0)
(8.73789 -0.120889 0)
(8.74698 -0.128053 0)
(8.75597 -0.135701 0)
(8.76488 -0.14389 0)
(8.33352 0.00185973 0)
(8.33875 0.00518846 0)
(8.34965 0.00709331 0)
(8.36447 0.00706345 0)
(8.38162 0.00519601 0)
(8.40022 0.00181239 0)
(8.41957 -0.00272646 0)
(8.4391 -0.00805943 0)
(8.45843 -0.0138654 0)
(8.47731 -0.0198937 0)
(8.4956 -0.0259647 0)
(8.51322 -0.0319593 0)
(8.53011 -0.0378062 0)
(8.54626 -0.0434717 0)
(8.56169 -0.0489495 0)
(8.57641 -0.054252 0)
(8.59044 -0.0594043 0)
(8.60382 -0.0644394 0)
(8.6166 -0.0693947 0)
(8.6288 -0.07431 0)
(8.64047 -0.0792259 0)
(8.65166 -0.0841829 0)
(8.6624 -0.0892215 0)
(8.67273 -0.0943817 0)
(8.68269 -0.0997036 0)
(8.69233 -0.105228 0)
(8.70167 -0.110996 0)
(8.71075 -0.117052 0)
(8.7196 -0.123441 0)
(8.72823 -0.130212 0)
(8.73667 -0.137417 0)
(8.74493 -0.145112 0)
(8.753 -0.153344 0)
(8.33347 0.000167833 0)
(8.33829 0.000252718 0)
(8.34835 -0.000600215 0)
(8.36219 -0.0027549 0)
(8.37844 -0.00615844 0)
(8.39629 -0.0105872 0)
(8.41508 -0.0157771 0)
(8.43423 -0.0214608 0)
(8.45333 -0.0273995 0)
(8.47213 -0.0334066 0)
(8.49042 -0.0393503 0)
(8.5081 -0.0451463 0)
(8.5251 -0.0507492 0)
(8.54137 -0.0561438 0)
(8.55691 -0.061337 0)
(8.57173 -0.0663513 0)
(8.58584 -0.0712189 0)
(8.59926 -0.0759782 0)
(8.61205 -0.0806708 0)
(8.62422 -0.0853397 0)
(8.63582 -0.0900279 0)
(8.64688 -0.0947777 0)
(8.65745 -0.0996309 0)
(8.66757 -0.104628 0)
(8.67727 -0.109809 0)
(8.68658 -0.115215 0)
(8.69554 -0.120886 0)
(8.70418 -0.126862 0)
(8.71251 -0.133185 0)
(8.72055 -0.139899 0)
(8.72832 -0.147046 0)
(8.73582 -0.154675 0)
(8.74304 -0.162818 0)
(8.33345 -0.0014482 0)
(8.33797 -0.00447591 0)
(8.34747 -0.00803233 0)
(8.36065 -0.0123452 0)
(8.37629 -0.0173739 0)
(8.39365 -0.0229592 0)
(8.41208 -0.0289109 0)
(8.43102 -0.0350386 0)
(8.45003 -0.0411759 0)
(8.46883 -0.0471962 0)
(8.4872 -0.0530159 0)
(8.505 -0.0585889 0)
(8.52213 -0.0638996 0)
(8.53854 -0.068956 0)
(8.55421 -0.0737828 0)
(8.56913 -0.0784161 0)
(8.58331 -0.0828988 0)
(8.59677 -0.0872775 0)
(8.60955 -0.0915999 0)
(8.62167 -0.0959136 0)
(8.63318 -0.100265 0)
(8.6441 -0.104698 0)
(8.65449 -0.109257 0)
(8.66437 -0.113982 0)
(8.67377 -0.118913 0)
(8.68274 -0.124089 0)
(8.69129 -0.129549 0)
(8.69946 -0.135328 0)
(8.70726 -0.141465 0)
(8.7147 -0.147995 0)
(8.7218 -0.154955 0)
(8.72855 -0.162382 0)
(8.73495 -0.170298 0)
(8.33343 -0.00302916 0)
(8.33779 -0.00911227 0)
(8.34696 -0.0153656 0)
(8.35977 -0.0218908 0)
(8.3751 -0.0286422 0)
(8.39224 -0.0355053 0)
(8.41056 -0.0423502 0)
(8.4295 -0.0490542 0)
(8.44861 -0.0555167 0)
(8.46756 -0.0616685 0)
(8.48613 -0.067473 0)
(8.50415 -0.0729217 0)
(8.5215 -0.0780288 0)
(8.53811 -0.0828256 0)
(8.55396 -0.0873549 0)
(8.56902 -0.0916669 0)
(8.58329 -0.0958153 0)
(8.59681 -0.099855 0)
(8.60959 -0.10384 0)
(8.62166 -0.107823 0)
(8.63307 -0.111853 0)
(8.64384 -0.115977 0)
(8.65402 -0.120239 0)
(8.66364 -0.124682 0)
(8.67273 -0.129343 0)
(8.68132 -0.134259 0)
(8.68945 -0.139467 0)
(8.69713 -0.144998 0)
(8.70437 -0.150886 0)
(8.71121 -0.157159 0)
(8.71763 -0.163845 0)
(8.72363 -0.170972 0)
(8.72922 -0.178553 0)
(8.33342 -0.00461453 0)
(8.33773 -0.0137674 0)
(8.3468 -0.0227566 0)
(8.35952 -0.0315593 0)
(8.37482 -0.040108 0)
(8.392 -0.0483126 0)
(8.41044 -0.0560884 0)
(8.42956 -0.0633704 0)
(8.44891 -0.0701201 0)
(8.46814 -0.0763272 0)
(8.487 -0.0820069 0)
(8.50531 -0.0871951 0)
(8.52293 -0.0919432 0)
(8.53978 -0.0963123 0)
(8.55583 -0.100369 0)
(8.57105 -0.104182 0)
(8.58543 -0.10782 0)
(8.59901 -0.111348 0)
(8.61179 -0.114828 0)
(8.62381 -0.118318 0)
(8.63511 -0.121872 0)
(8.64573 -0.125538 0)
(8.65569 -0.129361 0)
(8.66504 -0.133383 0)
(8.67381 -0.13764 0)
(8.68202 -0.142168 0)
(8.68971 -0.146997 0)
(8.6969 -0.152157 0)
(8.70361 -0.157674 0)
(8.70985 -0.163571 0)
(8.71562 -0.169868 0)
(8.72092 -0.176585 0)
(8.72577 -0.183726 0)
(8.33343 -0.00624554 0)
(8.33779 -0.0185629 0)
(8.347 -0.0303951 0)
(8.35993 -0.0416024 0)
(8.37552 -0.0520969 0)
(8.39308 -0.0618124 0)
(8.41196 -0.0707065 0)
(8.43156 -0.0787674 0)
(8.45141 -0.0860121 0)
(8.47115 -0.0924816 0)
(8.49049 -0.0982363 0)
(8.50924 -0.103351 0)
(8.52725 -0.107911 0)
(8.54444 -0.112004 0)
(8.56076 -0.115721 0)
(8.57619 -0.119147 0)
(8.59072 -0.122368 0)
(8.60436 -0.125459 0)
(8.61716 -0.128493 0)
(8.62913 -0.131533 0)
(8.64031 -0.134639 0)
(8.65075 -0.137863 0)
(8.66048 -0.14125 0)
(8.66954 -0.144843 0)
(8.67796 -0.148678 0)
(8.68578 -0.152787 0)
(8.69303 -0.157198 0)
(8.69972 -0.161936 0)
(8.70587 -0.167021 0)
(8.7115 -0.172472 0)
(8.71663 -0.178301 0)
(8.72124 -0.18452 0)
(8.72534 -0.191125 0)
(8.33345 -0.00796704 0)
(8.33798 -0.0236196 0)
(8.34754 -0.0384345 0)
(8.36097 -0.0521352 0)
(8.37713 -0.0645958 0)
(8.39531 -0.0757615 0)
(8.41486 -0.0856304 0)
(8.43514 -0.0942534 0)
(8.45566 -0.101719 0)
(8.47603 -0.108138 0)
(8.49596 -0.113633 0)
(8.51525 -0.118334 0)
(8.53375 -0.122369 0)
(8.55135 -0.125863 0)
(8.568 -0.128933 0)
(8.58369 -0.131688 0)
(8.5984 -0.134226 0)
(8.61216 -0.136636 0)
(8.625 -0.138998 0)
(8.63694 -0.141383 0)
(8.64803 -0.143851 0)
(8.65831 -0.146456 0)
(8.66782 -0.149245 0)
(8.6766 -0.152258 0)
(8.68469 -0.15553 0)
(8.69212 -0.159089 0)
(8.69893 -0.162961 0)
(8.70514 -0.167165 0)
(8.71077 -0.171716 0)
(8.71585 -0.176627 0)
(8.72037 -0.181905 0)
(8.72436 -0.187556 0)
(8.72783 -0.19357 0)
(8.33348 -0.009836 0)
(8.33834 -0.0291224 0)
(8.34858 -0.047217 0)
(8.36292 -0.0637259 0)
(8.38013 -0.0785111 0)
(8.39944 -0.0915373 0)
(8.42014 -0.102832 0)
(8.44153 -0.112485 0)
(8.46309 -0.120633 0)
(8.48442 -0.127435 0)
(8.5052 -0.133061 0)
(8.52522 -0.137686 0)
(8.54433 -0.141482 0)
(8.56243 -0.144609 0)
(8.57948 -0.147216 0)
(8.59546 -0.14944 0)
(8.61037 -0.151401 0)
(8.62424 -0.153205 0)
(8.6371 -0.154945 0)
(8.64899 -0.1567 0)
(8.65995 -0.15854 0)
(8.67004 -0.160521 0)
(8.6793 -0.162693 0)
(8.68778 -0.165097 0)
(8.69551 -0.167765 0)
(8.70253 -0.170725 0)
(8.70889 -0.173997 0)
(8.7146 -0.177599 0)
(8.7197 -0.181541 0)
(8.7242 -0.185829 0)
(8.72812 -0.190466 0)
(8.73147 -0.19545 0)
(8.73427 -0.200766 0)
(8.33352 -0.0119126 0)
(8.33882 -0.0351865 0)
(8.34996 -0.0567444 0)
(8.36547 -0.0760079 0)
(8.38397 -0.0928176 0)
(8.40462 -0.107191 0)
(8.42666 -0.119246 0)
(8.44937 -0.129186 0)
(8.47218 -0.137255 0)
(8.49466 -0.143706 0)
(8.51649 -0.148785 0)
(8.53744 -0.152726 0)
(8.55735 -0.155745 0)
(8.57613 -0.158039 0)
(8.59372 -0.159781 0)
(8.61013 -0.161126 0)
(8.62535 -0.162209 0)
(8.63942 -0.163145 0)
(8.65238 -0.164033 0)
(8.66428 -0.164958 0)
(8.67517 -0.165991 0)
(8.68512 -0.16719 0)
(8.69417 -0.168605 0)
(8.70237 -0.170273 0)
(8.70977 -0.172228 0)
(8.71642 -0.174492 0)
(8.72235 -0.177083 0)
(8.7276 -0.180015 0)
(8.73221 -0.183293 0)
(8.7362 -0.186921 0)
(8.73959 -0.190895 0)
(8.7424 -0.195211 0)
(8.74467 -0.199848 0)
(8.3336 -0.0143105 0)
(8.33969 -0.0422832 0)
(8.3524 -0.0681117 0)
(8.36995 -0.0910933 0)
(8.39065 -0.111057 0)
(8.41351 -0.127994 0)
(8.43766 -0.142006 0)
(8.46228 -0.153322 0)
(8.48678 -0.162244 0)
(8.51072 -0.169094 0)
(8.5338 -0.1742 0)
(8.55578 -0.17787 0)
(8.57654 -0.180393 0)
(8.59599 -0.182024 0)
(8.61411 -0.18299 0)
(8.63089 -0.183484 0)
(8.64637 -0.183672 0)
(8.66058 -0.183694 0)
(8.67359 -0.183665 0)
(8.68544 -0.183681 0)
(8.69621 -0.183818 0)
(8.70596 -0.18414 0)
(8.71474 -0.184696 0)
(8.72262 -0.185525 0)
(8.72966 -0.186654 0)
(8.73589 -0.188107 0)
(8.74137 -0.189896 0)
(8.74614 -0.192031 0)
(8.75023 -0.194514 0)
(8.75368 -0.197342 0)
(8.75651 -0.200508 0)
(8.75875 -0.204002 0)
(8.76041 -0.207801 0)
(8.33366 -0.0170919 0)
(8.34052 -0.0501859 0)
(8.35484 -0.0799832 0)
(8.37441 -0.105609 0)
(8.39732 -0.127108 0)
(8.42255 -0.144743 0)
(8.4491 -0.158859 0)
(8.47606 -0.16988 0)
(8.50275 -0.178241 0)
(8.5287 -0.184355 0)
(8.55354 -0.188601 0)
(8.57706 -0.19133 0)
(8.5991 -0.192856 0)
(8.61961 -0.193455 0)
(8.63857 -0.193367 0)
(8.656 -0.192801 0)
(8.67195 -0.191933 0)
(8.68648 -0.190912 0)
(8.69967 -0.18986 0)
(8.71159 -0.188879 0)
(8.72233 -0.188049 0)
(8.73196 -0.187436 0)
(8.74055 -0.18709 0)
(8.74818 -0.187048 0)
(8.7549 -0.187339 0)
(8.76078 -0.187982 0)
(8.76587 -0.188988 0)
(8.77022 -0.190363 0)
(8.77387 -0.192107 0)
(8.77686 -0.194213 0)
(8.77924 -0.196672 0)
(8.78102 -0.19947 0)
(8.78227 -0.202579 0)
(8.33391 -0.0206401 0)
(8.3428 -0.0609732 0)
(8.36073 -0.0975803 0)
(8.38446 -0.129258 0)
(8.41138 -0.155802 0)
(8.44024 -0.177259 0)
(8.46997 -0.193946 0)
(8.49965 -0.206431 0)
(8.52864 -0.215348 0)
(8.55651 -0.221311 0)
(8.58298 -0.224888 0)
(8.60784 -0.22659 0)
(8.63098 -0.226857 0)
(8.65237 -0.226062 0)
(8.67202 -0.224517 0)
(8.68995 -0.222477 0)
(8.70625 -0.220152 0)
(8.72099 -0.21771 0)
(8.73426 -0.215283 0)
(8.74615 -0.212979 0)
(8.75676 -0.210877 0)
(8.76616 -0.20904 0)
(8.77446 -0.207513 0)
(8.78171 -0.206331 0)
(8.78801 -0.205515 0)
(8.79341 -0.20508 0)
(8.79798 -0.205032 0)
(8.80177 -0.205371 0)
(8.80484 -0.206095 0)
(8.80722 -0.207195 0)
(8.80895 -0.208655 0)
(8.81008 -0.21046 0)
(8.81064 -0.212576 0)
(8.33387 -0.0246907 0)
(8.34359 -0.0711821 0)
(8.36394 -0.110767 0)
(8.39107 -0.143201 0)
(8.42209 -0.169559 0)
(8.45552 -0.19051 0)
(8.48987 -0.206612 0)
(8.52389 -0.21851 0)
(8.55677 -0.226827 0)
(8.58801 -0.232128 0)
(8.61729 -0.234947 0)
(8.64442 -0.235779 0)
(8.66935 -0.235065 0)
(8.69208 -0.23319 0)
(8.71267 -0.230491 0)
(8.73123 -0.227248 0)
(8.74787 -0.223696 0)
(8.76272 -0.220026 0)
(8.7759 -0.216391 0)
(8.78754 -0.21291 0)
(8.79777 -0.209675 0)
(8.80669 -0.206754 0)
(8.81442 -0.204195 0)
(8.82104 -0.202033 0)
(8.82665 -0.200288 0)
(8.83132 -0.198971 0)
(8.83513 -0.198086 0)
(8.83814 -0.197631 0)
(8.8404 -0.197599 0)
(8.84198 -0.197979 0)
(8.84293 -0.198754 0)
(8.8433 -0.199907 0)
(8.84316 -0.201396 0)
(8.33498 -0.0315701 0)
(8.35132 -0.0934178 0)
(8.38036 -0.147292 0)
(8.41499 -0.191085 0)
(8.45173 -0.225159 0)
(8.48966 -0.250329 0)
(8.52761 -0.267911 0)
(8.5645 -0.279383 0)
(8.59967 -0.286021 0)
(8.63273 -0.288897 0)
(8.6634 -0.288911 0)
(8.69155 -0.286801 0)
(8.71717 -0.283159 0)
(8.7403 -0.278458 0)
(8.76107 -0.273075 0)
(8.77962 -0.267307 0)
(8.7961 -0.261388 0)
(8.81068 -0.255501 0)
(8.82353 -0.249784 0)
(8.8348 -0.244343 0)
(8.84464 -0.239256 0)
(8.85318 -0.234575 0)
(8.86054 -0.230338 0)
(8.86684 -0.226567 0)
(8.87217 -0.223273 0)
(8.87661 -0.220459 0)
(8.88025 -0.218124 0)
(8.88314 -0.216262 0)
(8.88535 -0.214864 0)
(8.88694 -0.21392 0)
(8.88796 -0.213419 0)
(8.88847 -0.213345 0)
(8.88851 -0.213652 0)
(8.33403 -0.0365525 0)
(8.34987 -0.0995795 0)
(8.38377 -0.148792 0)
(8.4265 -0.188923 0)
(8.47256 -0.221951 0)
(8.51951 -0.24762 0)
(8.56523 -0.266379 0)
(8.60854 -0.279124 0)
(8.64907 -0.286705 0)
(8.68676 -0.289993 0)
(8.72165 -0.28987 0)
(8.75386 -0.287146 0)
(8.78359 -0.282528 0)
(8.81099 -0.276609 0)
(8.83623 -0.269878 0)
(8.85947 -0.262722 0)
(8.88085 -0.255443 0)
(8.90049 -0.248267 0)
(8.91852 -0.241363 0)
(8.93506 -0.23485 0)
(8.95022 -0.228809 0)
(8.9641 -0.223292 0)
(8.97679 -0.218328 0)
(8.98837 -0.213926 0)
(8.99894 -0.210087 0)
(9.00855 -0.206801 0)
(9.01726 -0.204054 0)
(9.02515 -0.201832 0)
(9.03226 -0.200122 0)
(9.03864 -0.198913 0)
(9.04436 -0.198206 0)
(9.0495 -0.197996 0)
(9.05414 -0.198252 0)
(8.33959 -0.0606679 0)
(8.37703 -0.170292 0)
(8.42621 -0.249045 0)
(8.47596 -0.30254 0)
(8.52831 -0.337888 0)
(8.58478 -0.359474 0)
(8.6438 -0.371396 0)
(8.70406 -0.376746 0)
(8.76463 -0.377479 0)
(8.82442 -0.374918 0)
(8.88243 -0.370003 0)
(8.9379 -0.363401 0)
(8.99029 -0.355609 0)
(9.03926 -0.347011 0)
(9.08461 -0.337919 0)
(9.1263 -0.328587 0)
(9.16436 -0.319228 0)
(9.19894 -0.310017 0)
(9.23021 -0.301093 0)
(9.25838 -0.292564 0)
(9.28367 -0.284511 0)
(9.30631 -0.276988 0)
(9.3265 -0.270029 0)
(9.34446 -0.263651 0)
(9.36038 -0.257857 0)
(9.37441 -0.252643 0)
(9.38672 -0.247996 0)
(9.39743 -0.243905 0)
(9.40666 -0.240371 0)
(9.4145 -0.237391 0)
(9.42105 -0.235023 0)
(9.42641 -0.233266 0)
(9.43077 -0.232316 0)
(8.33759 -0.0466604 0)
(8.39346 -0.121357 0)
(8.49368 -0.185661 0)
(8.60845 -0.247816 0)
(8.7303 -0.30133 0)
(8.85373 -0.34304 0)
(8.9718 -0.373665 0)
(9.08038 -0.394088 0)
(9.17724 -0.40545 0)
(9.26116 -0.409328 0)
(9.33184 -0.407333 0)
(9.38973 -0.400918 0)
(9.43568 -0.391337 0)
(9.47077 -0.379629 0)
(9.49624 -0.36663 0)
(9.51329 -0.35299 0)
(9.5231 -0.339207 0)
(9.52676 -0.325647 0)
(9.52521 -0.312572 0)
(9.51932 -0.300159 0)
(9.50981 -0.288521 0)
(9.49732 -0.277717 0)
(9.48236 -0.267768 0)
(9.46539 -0.258667 0)
(9.44676 -0.250384 0)
(9.42677 -0.242873 0)
(9.40566 -0.236081 0)
(9.38359 -0.229952 0)
(9.36072 -0.224443 0)
(9.33706 -0.219521 0)
(9.31278 -0.215278 0)
(9.28755 -0.211661 0)
(9.26213 -0.209745 0)
(8.40925 -0.221444 0)
(8.63499 -0.428801 0)
(8.83312 -0.523463 0)
(8.9767 -0.584506 0)
(9.07005 -0.617736 0)
(9.11215 -0.628755 0)
(9.10729 -0.625132 0)
(9.06487 -0.610929 0)
(8.99373 -0.588967 0)
(8.90131 -0.561801 0)
(8.79409 -0.531481 0)
(8.67742 -0.499583 0)
(8.55548 -0.467326 0)
(8.43147 -0.435623 0)
(8.30777 -0.405122 0)
(8.18607 -0.376255 0)
(8.06756 -0.349285 0)
(7.95299 -0.324342 0)
(7.84282 -0.301463 0)
(7.73727 -0.280614 0)
(7.63641 -0.261716 0)
(7.54018 -0.244658 0)
(7.44843 -0.22931 0)
(7.36098 -0.215531 0)
(7.27762 -0.203173 0)
(7.1981 -0.192086 0)
(7.12217 -0.18211 0)
(7.04959 -0.173094 0)
(6.98006 -0.164851 0)
(6.91318 -0.157209 0)
(6.84859 -0.150056 0)
(6.7852 -0.142472 0)
(6.72343 -0.138257 0)
(8.13705 -0.207256 0)
(7.84743 -0.388312 0)
(7.38468 -0.439819 0)
(6.85855 -0.440577 0)
(6.35807 -0.409374 0)
(5.88611 -0.3605 0)
(5.4453 -0.306231 0)
(5.04303 -0.252962 0)
(4.68038 -0.203912 0)
(4.3554 -0.160698 0)
(4.06573 -0.123766 0)
(3.80854 -0.0928936 0)
(3.58067 -0.0675432 0)
(3.37898 -0.0470278 0)
(3.20048 -0.0306256 0)
(3.04238 -0.0176547 0)
(2.90215 -0.00750603 0)
(2.77752 0.000344917 0)
(2.66646 0.00633919 0)
(2.56719 0.0108414 0)
(2.47813 0.0141498 0)
(2.39794 0.0165071 0)
(2.32542 0.0181107 0)
(2.25955 0.019122 0)
(2.19945 0.0196792 0)
(2.14439 0.0199016 0)
(2.0937 0.0199214 0)
(2.04696 0.0198706 0)
(2.0036 0.0199974 0)
(1.96383 0.0206338 0)
(1.92661 0.0221568 0)
(1.89433 0.027421 0)
(1.8645 0.0220177 0)