/*--------------------------------*- C++ -*----------------------------------*\
| =========                 |                                                 |
| \\      /  F ield         | OpenFOAM: The Open Source CFD Toolbox           |
|  \\    /   O peration     | Version:  2.1.1                                 |
|   \\  /    A nd           | Web:      www.OpenFOAM.org                      |
|    \\/     M anipulation  |                                                 |
\*---------------------------------------------------------------------------*/
FoamFile
{
    version     2.0;
    format      ascii;
    class       volScalarField;
    location    "0.005";
    object      epsilon;
}
// * * * * * * * * * * * * * * * * * * * * * * * * * * * * * * * * * * * * * //

dimensions      [0 2 -3 0 0 0 0];

internalField   nonuniform List<scalar> 
6820
(
151.445
203.144
260.736
321.767
383.654
444.039
501.049
552.993
597.924
633.839
659.541
675.265
682.372
683.285
680.939
677.843
675.601
674.887
675.714
677.79
680.787
684.466
688.708
693.477
698.783
704.647
711.093
718.115
725.701
733.737
741.793
750.781
749.188
11.745
21.388
29.844
38.3872
47.0811
55.6083
63.6459
70.8597
76.9001
81.4618
84.3702
85.6424
85.5279
84.3076
82.4087
80.3453
78.4912
77.0649
76.1056
75.5204
75.1648
74.9079
74.6599
74.3701
74.0105
73.5599
72.992
72.2641
71.3232
70.0223
68.3728
65.3265
62.7941
5.8375
7.52089
9.21877
10.8308
12.3471
13.7669
15.0937
16.3698
17.6643
19.0072
20.3196
21.4255
22.1619
22.4617
22.2618
21.6664
20.9414
20.2971
19.8255
19.5222
19.3353
19.2076
19.0971
18.981
18.8504
18.7035
18.541
18.3642
18.1761
17.9775
17.7951
17.5954
17.6147
5.24198
5.55993
6.00615
6.4992
6.99362
7.46477
7.91339
8.37579
8.90831
9.53793
10.2149
10.8173
11.2151
11.3371
11.1806
10.8323
10.4248
10.0658
9.80653
9.64689
9.55978
9.51366
9.48516
9.46204
9.44081
9.42333
9.4144
9.42117
9.4545
9.52924
9.6777
9.92066
10.3918
5.17345
5.18677
5.26891
5.40001
5.55691
5.72078
5.89076
6.09446
6.37478
6.75091
7.18298
7.57601
7.82701
7.87808
7.73901
7.47979
7.19081
6.94303
6.76941
6.66908
6.62309
6.60963
6.61269
6.62423
6.6427
6.67083
6.71408
6.78037
6.88117
7.03242
7.26162
7.59721
8.11653
5.16873
5.12102
5.09615
5.09593
5.11429
5.14264
5.18444
5.266
5.42525
5.67852
5.99139
6.28305
6.46575
6.48975
6.36511
6.14949
5.91513
5.7179
5.58334
5.51032
5.48344
5.48515
5.50266
5.5297
5.56548
5.61287
5.67721
5.76605
5.88999
6.06341
6.30854
6.65096
7.13997
5.16884
5.11157
5.06162
5.02114
4.98787
4.95815
4.93906
4.95807
5.0525
5.23904
5.48752
5.72533
5.87291
5.88492
5.76938
5.57639
5.369
5.19611
5.08016
5.02016
5.00254
5.01172
5.03631
5.0708
5.11457
5.17034
5.24305
5.33953
5.46903
5.64374
5.88106
6.20182
6.63815
5.16898
5.11048
5.0555
5.00478
4.95572
4.90522
4.86108
4.85114
4.91305
5.06483
5.27964
5.48977
5.62014
5.62719
5.51709
5.33557
5.141
4.97913
4.87127
4.81681
4.80311
4.81551
4.84315
4.88069
4.92743
4.98577
5.06013
5.15648
5.28259
5.44843
5.66726
5.95501
6.33283
5.16901
5.11042
5.0547
5.00192
4.94896
4.89231
4.83942
4.81782
4.8653
5.00097
5.20021
5.39808
5.52164
5.52776
5.42116
5.24512
5.05586
4.89793
4.79252
4.73946
4.72665
4.73975
4.76803
4.80604
4.85283
4.91043
4.98268
5.07468
5.19282
5.34499
5.54114
5.79299
6.11443
5.16901
5.11041
5.05458
5.00143
4.94768
4.88954
4.83401
4.80823
4.85
4.97918
5.17254
5.36653
5.48897
5.49639
5.39235
5.2188
5.03107
4.87355
4.76777
4.71402
4.70051
4.71299
4.7406
4.77767
4.82295
4.87808
4.94633
5.03199
5.14025
5.27726
5.45036
5.66799
5.93926
5.16901
5.11041
5.05456
5.00136
4.94751
4.88906
4.83274
4.80539
4.8449
4.97174
5.16355
5.35749
5.48138
5.49107
5.38911
5.21666
5.02879
4.87019
4.76289
4.70761
4.69277
4.70405
4.73043
4.76594
4.80904
4.86097
4.92451
5.00323
5.10132
5.2235
5.3752
5.5624
5.79108
5.16901
5.11041
5.05455
5.00134
4.94749
4.88899
4.83235
4.80424
4.84269
4.96869
5.16059
5.35586
5.48204
5.49419
5.39396
5.22198
5.03337
4.87322
4.76412
4.70714
4.69084
4.70081
4.72578
4.75955
4.80025
4.84881
4.90754
4.97943
5.06783
5.17638
5.30906
5.47009
5.66338
5.16902
5.11042
5.05454
5.00134
4.94751
4.88899
4.83215
4.80353
4.8413
4.96698
5.15944
5.35636
5.48488
5.49928
5.40044
5.22864
5.0391
4.87738
4.76655
4.708
4.69034
4.69905
4.72265
4.75467
4.793
4.83824
4.89234
4.9578
5.03729
5.13363
5.24971
5.38852
5.5526
5.16902
5.11042
5.05454
5.00133
4.94753
4.889
4.83199
4.80295
4.84022
4.96573
5.15883
5.35733
5.48796
5.50426
5.40648
5.23465
5.04415
4.88097
4.76861
4.70869
4.68986
4.69745
4.71976
4.75011
4.78615
4.82824
4.87799
4.93751
5.00894
5.09444
5.19615
5.31614
5.45604
5.16902
5.11042
5.05454
5.00134
4.94755
4.88902
4.83186
4.80247
4.83931
4.96471
5.15844
5.35833
5.49073
5.50855
5.41151
5.23945
5.04799
4.8835
4.76983
4.70878
4.68896
4.69557
4.7167
4.74548
4.77936
4.81847
4.86419
4.91826
4.98244
5.05838
5.14765
5.25169
5.37151
5.16902
5.11043
5.05454
5.00134
4.94757
4.88903
4.83175
4.80205
4.83853
4.96388
5.15815
5.35924
5.49309
5.51205
5.41542
5.24297
5.05054
4.88487
4.77009
4.70812
4.6875
4.69326
4.71332
4.74064
4.77248
4.80882
4.85081
4.89992
4.9576
5.02512
5.10363
5.19412
5.29717
5.16903
5.11044
5.05455
5.00135
4.94759
4.88905
4.83166
4.80169
4.83788
4.96319
5.15796
5.36005
5.49504
5.51479
5.41828
5.24527
5.05186
4.88513
4.76942
4.70671
4.68544
4.69047
4.70957
4.73552
4.76547
4.79923
4.83779
4.88242
4.9343
4.99442
5.06361
5.14254
5.23154
5.16903
5.11045
5.05456
5.00135
4.94761
4.88906
4.83158
4.80139
4.83734
4.96264
5.15785
5.36076
5.49663
5.51685
5.42019
5.24648
5.05208
4.88438
4.7679
4.7046
4.68281
4.68723
4.70545
4.73013
4.75832
4.78971
4.82514
4.86571
4.91242
4.96603
5.02716
5.09623
5.1734
5.16903
5.11045
5.05457
5.00136
4.94762
4.88908
4.83152
4.80114
4.83689
4.96221
5.15782
5.36141
5.4979
5.51833
5.4213
5.24674
5.05135
4.88276
4.76564
4.70189
4.6797
4.68359
4.70101
4.72453
4.75108
4.78028
4.81285
4.84978
4.89189
4.9398
4.99393
5.05458
5.12176
5.16904
5.11046
5.05457
5.00137
4.94764
4.88909
4.83146
4.80093
4.83652
4.96189
5.15786
5.36201
5.49892
5.51933
5.42173
5.24624
5.04985
4.88045
4.76279
4.6987
4.6762
4.67964
4.69633
4.71876
4.7438
4.77099
4.80098
4.83463
4.87267
4.91557
4.96364
5.01707
5.07579
5.16904
5.11047
5.05458
5.00138
4.94766
4.8891
4.83141
4.80075
4.83623
4.96166
5.15796
5.36256
5.49974
5.51995
5.42164
5.24514
5.04775
4.87762
4.75951
4.69518
4.67244
4.67548
4.69151
4.71293
4.73658
4.76193
4.78957
4.82029
4.85471
4.89322
4.93604
4.98327
5.03481
5.16904
5.11048
5.05459
5.00139
4.94767
4.88911
4.83137
4.8006
4.836
4.96151
5.15811
5.36308
5.50039
5.52027
5.42114
5.2436
5.04525
4.87444
4.75597
4.69146
4.66854
4.67123
4.68664
4.70713
4.72948
4.75315
4.77868
4.80677
4.83799
4.87265
4.91092
4.95282
4.99824
5.16904
5.11049
5.0546
5.0014
4.94768
4.88912
4.83133
4.80047
4.83581
4.96141
5.15828
5.36356
5.50092
5.52036
5.42038
5.24178
5.0425
4.87108
4.75232
4.68769
4.66462
4.667
4.68184
4.70145
4.72261
4.74475
4.76835
4.7941
4.82249
4.85378
4.88809
4.9254
4.96561
5.16905
5.11049
5.05461
5.0014
4.94769
4.88912
4.8313
4.80036
4.83565
4.96134
5.15847
5.364
5.50134
5.52031
5.41944
5.23982
5.03967
4.8677
4.7487
4.68399
4.66081
4.6629
4.67719
4.69599
4.71605
4.73678
4.75865
4.7823
4.80818
4.83652
4.86739
4.90075
4.9365
5.16905
5.1105
5.05461
5.00141
4.94769
4.88912
4.83126
4.80026
4.83551
4.96129
5.15864
5.36439
5.50168
5.52016
5.41844
5.23784
5.03688
4.86443
4.74524
4.68047
4.65719
4.65901
4.67279
4.69082
4.70986
4.72931
4.74962
4.77139
4.79505
4.82079
4.84867
4.87862
4.91054
5.16905
5.1105
5.05461
5.00141
4.94769
4.88911
4.83122
4.80016
4.83537
4.96123
5.15878
5.36472
5.50195
5.51998
5.41745
5.23594
5.03425
4.86137
4.74203
4.67723
4.65386
4.65541
4.6687
4.68601
4.7041
4.72238
4.74128
4.76137
4.78307
4.80653
4.83179
4.8588
4.88744
5.16905
5.1105
5.05461
5.0014
4.94768
4.8891
4.83119
4.80006
4.83523
4.96114
5.15887
5.36498
5.50216
5.51978
5.41653
5.23422
5.03187
4.85863
4.73916
4.67433
4.65087
4.65216
4.66499
4.68161
4.69883
4.71603
4.73365
4.75225
4.7722
4.79366
4.81665
4.8411
4.86691
5.16905
5.1105
5.05461
5.00139
4.94767
4.88909
4.83114
4.79995
4.83507
4.96101
5.15889
5.36516
5.50233
5.51961
5.41574
5.23272
5.02981
4.85625
4.73668
4.67182
4.64826
4.6493
4.66167
4.67766
4.69406
4.71028
4.72675
4.74401
4.76242
4.78211
4.80311
4.82535
4.84873
5.16905
5.1105
5.0546
5.00138
4.94766
4.88907
4.8311
4.79985
4.83489
4.96084
5.15883
5.36524
5.50243
5.51947
5.4151
5.23149
5.0281
4.85427
4.73461
4.66972
4.64606
4.64684
4.65878
4.67417
4.68982
4.70515
4.72058
4.73664
4.75367
4.77182
4.79108
4.81139
4.83267
5.16905
5.11049
5.05459
5.00136
4.94763
4.88904
4.83104
4.79971
4.83467
4.96059
5.15867
5.36524
5.50249
5.51938
5.41464
5.23057
5.02677
4.85271
4.73297
4.66804
4.64427
4.6448
4.65633
4.67115
4.68612
4.70063
4.71512
4.73011
4.74593
4.76271
4.78046
4.79909
4.81856
5.16905
5.11049
5.05459
5.00136
4.94764
4.88905
4.83103
4.79963
4.83448
4.96033
5.15845
5.36515
5.5025
5.51933
5.41433
5.2299
5.02579
4.85154
4.73173
4.66675
4.64287
4.64315
4.6543
4.66861
4.68294
4.69673
4.71037
4.72441
4.73915
4.75473
4.77115
4.78833
4.80624
5.16904
5.11047
5.05455
5.00129
4.94756
4.88896
4.83091
4.79944
4.83418
4.95996
5.15812
5.36498
5.5025
5.51938
5.41424
5.22955
5.02519
4.85077
4.73088
4.66585
4.64184
4.6419
4.65269
4.66653
4.68029
4.69341
4.7063
4.71948
4.73328
4.74781
4.76307
4.779
4.79555
5.16905
5.1105
5.05462
5.00142
4.94773
4.88917
4.83112
4.79957
4.83418
4.95982
5.15794
5.36487
5.50251
5.51942
5.41419
5.22932
5.02476
4.85023
4.73029
4.66522
4.64112
4.64098
4.65147
4.6649
4.67816
4.6907
4.70293
4.71536
4.72833
4.74195
4.75621
4.77106
4.78646
5.16903
5.11043
5.0545
5.00127
4.94757
4.88902
4.83097
4.7994
4.83396
4.95958
5.15778
5.36489
5.50275
5.5198
5.41454
5.22949
5.02473
4.85003
4.72999
4.66483
4.64061
4.64025
4.65042
4.66343
4.6762
4.68816
4.69976
4.71149
4.72368
4.73646
4.74982
4.76369
4.77806
5.16907
5.11068
5.05502
5.00203
4.94854
4.89017
4.83229
4.80087
4.83556
4.9613
5.15957
5.36665
5.50431
5.52097
5.41523
5.22969
5.02454
4.84957
4.72934
4.66402
4.63958
4.63888
4.64856
4.66097
4.673
4.68414
4.69481
4.70555
4.71667
4.72829
4.74042
4.75301
4.76603
5.16904
5.11063
5.05513
5.00258
4.9498
4.89239
4.83577
4.80595
4.84262
4.97062
5.17116
5.3801
5.51874
5.53524
5.42828
5.24085
5.03355
4.85654
4.7345
4.66752
4.64144
4.639
4.64677
4.65705
4.66678
4.67546
4.68354
4.69156
4.69986
4.70858
4.71774
4.72729
4.73724
5.16946
5.11381
5.06264
5.01588
4.97045
4.92195
4.8758
4.85817
4.90877
5.05184
5.26701
5.48785
5.63354
5.65124
5.54018
5.34518
5.12907
4.94371
4.81455
4.74163
4.71028
4.70274
4.70523
4.70992
4.71376
4.71631
4.71814
4.71984
4.72184
4.7243
4.72729
4.73081
4.73485
5.17818
5.16187
5.16523
5.18428
5.21152
5.23934
5.27136
5.33438
5.47065
5.70589
6.01609
6.32431
6.53571
6.58691
6.47583
6.25586
6.00347
5.78291
5.6268
5.53679
5.49635
5.48475
5.48571
5.48998
5.49388
5.49692
5.49971
5.50297
5.50714
5.51242
5.51881
5.52629
5.53456
5.63879
6.43396
7.15421
7.85896
8.56094
9.24867
9.92953
10.6477
11.4624
12.3892
13.3513
14.1899
14.7403
14.9189
14.7631
14.4052
14.0038
13.68
13.4877
13.4217
13.4452
13.5173
13.6079
13.7009
13.7906
13.8763
13.9591
14.0398
14.1187
14.1955
14.2699
14.3418
14.4092
44.7795
48.3124
51.8895
55.4714
59.0316
62.5525
66.0442
69.5476
73.0799
76.5425
79.6798
82.1541
83.708
84.3015
84.1285
83.5124
82.7635
82.0844
81.5516
81.1525
80.8369
80.5558
80.2775
79.988
79.6846
79.3692
79.0442
78.7117
78.3727
78.0281
77.678
77.325
76.9605
762.138
697.2
437.186
136.282
52.8342
81.9109
116.358
142.564
163.771
176.973
176.055
158.022
126.224
89.318
56.8033
34.1374
21.2349
14.8698
11.7619
9.96243
8.70226
7.76654
7.07765
6.56919
6.18421
5.8841
5.64539
5.45331
5.29758
5.17061
5.0667
4.98143
4.91141
4.85392
4.80676
4.76817
4.73667
4.71106
4.69033
4.67364
4.66029
4.6497
4.64138
4.63492
4.62997
4.62625
4.62353
4.62161
4.62033
4.61955
4.61917
4.61908
4.61923
4.61954
4.61997
4.62048
4.62105
4.62163
4.62222
4.62281
4.62338
4.62392
4.62442
4.62489
4.62533
4.62572
4.62608
4.6264
4.62668
4.62693
4.62714
4.62732
4.62747
4.6276
4.6277
4.62778
4.62784
4.62788
4.6279
4.62791
4.6279
4.62789
4.62786
4.62782
4.62778
4.62772
4.62766
4.6276
4.62753
4.62745
4.62738
4.6273
4.62721
4.62713
4.62704
4.62695
4.62688
4.62669
4.62715
4.62411
49.7261
30.9595
20.5806
29.9862
48.9721
70.5268
91.8015
110.558
126.271
136.292
136.153
123.343
100.017
72.4635
47.7649
30.1249
19.7135
14.3021
11.4877
9.78792
8.58947
7.70159
7.04579
6.55859
6.18779
5.89786
5.66666
5.47995
5.32784
5.20305
5.10012
5.01492
4.94422
4.88549
4.83669
4.79616
4.76256
4.73475
4.71178
4.69288
4.67738
4.66473
4.65444
4.64613
4.63945
4.63413
4.62993
4.62665
4.62411
4.62218
4.62075
4.61971
4.61899
4.61852
4.61823
4.6181
4.61808
4.61813
4.61825
4.6184
4.61858
4.61877
4.61896
4.61915
4.61933
4.61949
4.61964
4.61978
4.61989
4.61999
4.62007
4.62014
4.62018
4.62021
4.62023
4.62023
4.62022
4.6202
4.62017
4.62013
4.62008
4.62002
4.61996
4.61989
4.61982
4.61974
4.61966
4.61958
4.61949
4.6194
4.61931
4.61922
4.61912
4.61903
4.61893
4.61883
4.61875
4.61856
4.61901
4.61599
17.4824
17.9542
20.2061
26.4194
38.2836
53.8889
69.7271
84.0009
95.932
103.568
103.879
95.0298
78.3846
58.343
40.0077
26.5395
18.2587
13.7019
11.175
9.58582
8.45578
7.61796
6.99588
6.5303
6.17413
5.89493
5.67197
5.49161
5.34429
5.223
5.1225
5.03883
4.96891
4.91034
4.86121
4.81995
4.78531
4.75623
4.73185
4.71142
4.69434
4.68009
4.66821
4.65834
4.65016
4.6434
4.63782
4.63324
4.62949
4.62642
4.62393
4.62191
4.62028
4.61897
4.61791
4.61707
4.6164
4.61587
4.61545
4.61511
4.61484
4.61462
4.61445
4.6143
4.61418
4.61407
4.61398
4.61389
4.61381
4.61373
4.61365
4.61357
4.61349
4.6134
4.61331
4.61322
4.61313
4.61304
4.61294
4.61284
4.61274
4.61264
4.61253
4.61243
4.61232
4.61222
4.61211
4.612
4.61189
4.61178
4.61168
4.61157
4.61146
4.61136
4.61125
4.61114
4.61105
4.61085
4.61129
4.60828
11.1766
12.6256
15.5903
21.2693
30.1347
41.2365
52.7736
63.4059
72.2696
77.9576
78.4687
72.5247
60.9599
46.7426
33.4326
23.344
16.8572
13.0655
10.8243
9.3578
8.30298
7.51769
6.93031
6.48696
6.14575
5.87748
5.66294
5.48919
5.34708
5.22989
5.13257
5.0513
4.98313
4.92574
4.87731
4.83636
4.80169
4.77231
4.7474
4.72629
4.70839
4.69322
4.68037
4.6695
4.6603
4.65252
4.64594
4.64039
4.6357
4.63174
4.6284
4.62558
4.62319
4.62117
4.61946
4.618
4.61677
4.61571
4.61481
4.61403
4.61336
4.61277
4.61226
4.6118
4.6114
4.61104
4.61072
4.61043
4.61016
4.60991
4.60967
4.60946
4.60925
4.60906
4.60887
4.6087
4.60852
4.60836
4.6082
4.60805
4.6079
4.60775
4.60761
4.60747
4.60733
4.60719
4.60706
4.60693
4.6068
4.60668
4.60655
4.60643
4.60631
4.6062
4.60608
4.60596
4.60587
4.60566
4.6061
4.60307
8.99323
10.5059
13.0912
17.4646
23.9018
31.8136
40.0829
47.7782
54.1989
58.3625
58.9573
55.1075
47.2945
37.4503
27.9845
20.5512
15.5326
12.41
10.446
9.1105
8.13603
7.40512
6.85334
6.43281
6.10687
5.84956
5.64332
5.47605
5.33909
5.22602
5.13203
5.05343
4.98739
4.93167
4.8845
4.84447
4.81043
4.78142
4.75668
4.73555
4.71749
4.70205
4.68883
4.67752
4.66784
4.65953
4.65242
4.64631
4.64107
4.63656
4.63269
4.62935
4.62647
4.62398
4.62182
4.61995
4.61832
4.6169
4.61565
4.61456
4.61359
4.61274
4.61198
4.6113
4.61069
4.61015
4.60965
4.6092
4.60879
4.60842
4.60807
4.60775
4.60745
4.60718
4.60692
4.60667
4.60644
4.60622
4.60602
4.60582
4.60563
4.60545
4.60528
4.60511
4.60495
4.60479
4.60464
4.6045
4.60435
4.60422
4.60408
4.60395
4.60382
4.60369
4.60357
4.60345
4.60335
4.60313
4.60357
4.60052
7.9461
9.29068
11.4121
14.7192
19.3295
24.8618
30.6489
36.0876
40.6622
43.6967
44.3293
41.9588
36.8366
30.1754
23.5619
18.1547
14.3058
11.7544
10.052
8.85075
7.95955
7.28412
6.76861
6.37153
6.06125
5.81503
5.617
5.45602
5.32398
5.21483
5.12402
5.04802
4.9841
4.93012
4.88437
4.84549
4.81235
4.78405
4.75983
4.73908
4.72127
4.70597
4.6928
4.68146
4.67169
4.66326
4.65597
4.64967
4.64421
4.63947
4.63536
4.63178
4.62866
4.62594
4.62356
4.62147
4.61963
4.61801
4.61657
4.61531
4.61418
4.61317
4.61227
4.61146
4.61074
4.61008
4.60949
4.60895
4.60845
4.608
4.60759
4.60721
4.60686
4.60653
4.60622
4.60594
4.60567
4.60542
4.60519
4.60497
4.60475
4.60455
4.60436
4.60418
4.60401
4.60384
4.60368
4.60352
4.60337
4.60322
4.60308
4.60294
4.60281
4.60268
4.60255
4.60243
4.60232
4.6021
4.60254
4.59948
7.33675
8.4675
10.1479
12.6
15.8655
19.7034
23.7134
27.5147
30.7538
32.9763
33.615
32.2526
28.997
24.5813
20.0243
16.124
13.1871
11.1143
9.65284
8.58463
7.77731
7.1576
6.67875
6.30568
6.01155
5.77666
5.5869
5.43212
5.30485
5.19945
5.11162
5.03804
4.97612
4.92378
4.87941
4.84166
4.80946
4.78194
4.75837
4.73814
4.72075
4.70578
4.69287
4.68173
4.67209
4.66375
4.65652
4.65024
4.64478
4.64002
4.63587
4.63225
4.62907
4.62628
4.62383
4.62167
4.61977
4.61808
4.61658
4.61524
4.61405
4.61299
4.61203
4.61117
4.6104
4.6097
4.60906
4.60848
4.60795
4.60747
4.60703
4.60662
4.60624
4.60589
4.60557
4.60527
4.60499
4.60472
4.60448
4.60424
4.60402
4.60381
4.60361
4.60342
4.60324
4.60307
4.6029
4.60274
4.60259
4.60244
4.60229
4.60215
4.60202
4.60188
4.60175
4.60163
4.60152
4.6013
4.60174
4.59867
6.91955
7.84051
9.14466
10.9495
13.2627
15.9321
18.7162
21.3763
23.678
25.321
25.9319
25.2199
23.2108
20.3302
17.2172
14.4144
12.1778
10.5012
9.25738
8.31724
7.59238
7.02774
6.58555
6.2369
5.95938
5.73613
5.55481
5.4063
5.28377
5.18203
5.09709
5.02581
4.96575
4.91495
4.87184
4.83516
4.80385
4.77709
4.75415
4.73446
4.71752
4.70294
4.69035
4.67948
4.67007
4.66192
4.65484
4.64869
4.64334
4.63866
4.63458
4.63101
4.62787
4.62511
4.62269
4.62054
4.61865
4.61696
4.61547
4.61413
4.61294
4.61187
4.61092
4.61005
4.60927
4.60857
4.60792
4.60734
4.60681
4.60632
4.60587
4.60546
4.60508
4.60472
4.6044
4.60409
4.60381
4.60354
4.60329
4.60305
4.60283
4.60262
4.60242
4.60223
4.60204
4.60187
4.6017
4.60154
4.60139
4.60124
4.60109
4.60095
4.60081
4.60068
4.60055
4.60042
4.60031
4.6001
4.60053
4.59747
6.59922
7.33793
8.3429
9.67539
11.3312
13.2149
15.1775
17.0656
18.7229
19.9511
20.5059
20.1858
18.9763
17.1143
14.9932
12.9778
11.274
9.92272
8.87248
8.05277
7.40726
6.89625
6.49032
6.16626
5.90567
5.69439
5.52172
5.3796
5.26188
5.16382
5.08173
5.01271
4.95446
4.90512
4.86322
4.82753
4.79706
4.771
4.74866
4.72948
4.71298
4.69877
4.68652
4.67593
4.66677
4.65883
4.65194
4.64595
4.64073
4.63618
4.63221
4.62873
4.62567
4.62299
4.62062
4.61853
4.61668
4.61504
4.61358
4.61228
4.61112
4.61008
4.60914
4.60829
4.60753
4.60684
4.60621
4.60563
4.60511
4.60463
4.60419
4.60378
4.60341
4.60306
4.60274
4.60244
4.60216
4.60189
4.60164
4.60141
4.60119
4.60098
4.60078
4.60059
4.60041
4.60023
4.60007
4.5999
4.59975
4.5996
4.59945
4.59931
4.59918
4.59904
4.59891
4.59879
4.59868
4.59846
4.5989
4.59583
6.33769
6.92843
7.70596
8.70237
9.91053
11.2702
12.6866
14.0576
15.2751
16.2064
16.6908
16.5902
15.8755
14.6739
13.2239
11.7689
10.4692
9.38368
8.50328
7.79458
7.22408
6.76458
6.39409
6.0945
5.85101
5.65192
5.4881
5.35252
5.23971
5.14539
5.06619
4.99944
4.94298
4.89509
4.85436
4.81963
4.78996
4.76457
4.7428
4.7241
4.70802
4.69418
4.68223
4.67192
4.663
4.65527
4.64857
4.64274
4.63768
4.63326
4.6294
4.62603
4.62307
4.62047
4.61817
4.61615
4.61436
4.61278
4.61137
4.61011
4.60898
4.60797
4.60707
4.60625
4.60551
4.60484
4.60423
4.60368
4.60317
4.6027
4.60227
4.60188
4.60151
4.60117
4.60086
4.60056
4.60029
4.60003
4.59978
4.59955
4.59933
4.59913
4.59893
4.59874
4.59856
4.59839
4.59822
4.59806
4.59791
4.59776
4.59761
4.59747
4.59734
4.5972
4.59707
4.59694
4.59684
4.59662
4.59706
4.59398
6.11913
6.59384
7.20182
7.96009
8.86168
9.86779
10.9165
11.9371
12.8523
13.5703
13.9835
13.9977
13.5823
12.8036
11.8055
10.7492
9.75614
8.8867
8.15344
7.54531
7.04463
6.63398
6.29774
6.02223
5.79583
5.60904
5.45421
5.3253
5.2175
5.127
5.05074
4.98628
4.93164
4.88519
4.84562
4.81185
4.78297
4.75823
4.73701
4.71879
4.70311
4.6896
4.67796
4.66791
4.65922
4.6517
4.64517
4.63951
4.63459
4.6303
4.62656
4.62329
4.62042
4.61791
4.61569
4.61374
4.61201
4.61048
4.60912
4.60791
4.60683
4.60586
4.60498
4.60419
4.60348
4.60284
4.60225
4.60171
4.60122
4.60077
4.60036
4.59997
4.59962
4.59929
4.59898
4.59869
4.59842
4.59817
4.59793
4.5977
4.59749
4.59728
4.59709
4.5969
4.59672
4.59655
4.59639
4.59623
4.59608
4.59593
4.59578
4.59564
4.5955
4.59537
4.59524
4.59511
4.595
4.59478
4.59522
4.59214
5.93496
6.31966
6.80124
7.38883
8.07639
8.83818
9.63253
10.4092
11.1118
11.6745
12.0236
12.0937
11.8583
11.3508
10.6581
9.88698
9.12708
8.43267
7.82541
7.30704
6.87043
6.50559
6.20209
5.95001
5.7405
5.566
5.42023
5.29806
5.19535
5.10873
5.03546
4.97334
4.92053
4.87554
4.83715
4.80434
4.77624
4.75215
4.73147
4.7137
4.69841
4.68525
4.67389
4.66409
4.65562
4.6483
4.64195
4.63644
4.63166
4.6275
4.62387
4.6207
4.61792
4.61549
4.61335
4.61146
4.6098
4.60832
4.60701
4.60584
4.6048
4.60387
4.60303
4.60227
4.60158
4.60096
4.6004
4.59988
4.5994
4.59897
4.59857
4.5982
4.59785
4.59753
4.59723
4.59695
4.59669
4.59644
4.5962
4.59598
4.59577
4.59557
4.59538
4.59519
4.59502
4.59485
4.59468
4.59452
4.59437
4.59422
4.59408
4.59394
4.5938
4.59367
4.59354
4.59341
4.5933
4.59308
4.59352
4.59043
5.77892
6.09354
6.47984
6.94271
7.47706
8.06521
8.67828
9.27997
9.82846
10.2758
10.5697
10.6644
10.5377
10.2061
9.7222
9.15657
8.57441
8.02111
7.52062
7.08131
6.70277
6.3804
6.10786
5.87835
5.68535
5.52301
5.38628
5.2709
5.17332
5.09063
5.0204
4.96063
4.90968
4.86618
4.82897
4.79711
4.7698
4.74636
4.72622
4.7089
4.69399
4.68115
4.67008
4.66053
4.65227
4.64513
4.63895
4.6336
4.62894
4.6249
4.62138
4.61831
4.61562
4.61326
4.6112
4.60937
4.60777
4.60635
4.60508
4.60396
4.60295
4.60205
4.60125
4.60052
4.59986
4.59926
4.59871
4.59821
4.59776
4.59734
4.59695
4.59659
4.59625
4.59594
4.59565
4.59538
4.59512
4.59488
4.59465
4.59443
4.59422
4.59402
4.59383
4.59365
4.59347
4.59331
4.59314
4.59298
4.59283
4.59268
4.59254
4.5924
4.59226
4.59213
4.592
4.59187
4.59176
4.59153
4.59198
4.58888
5.64588
5.90545
6.21886
6.58866
7.01061
7.47211
7.95258
8.4254
8.85934
9.21894
9.46653
9.56898
9.50869
9.29278
8.95331
8.53694
8.09054
7.65053
7.23966
6.86919
6.54269
6.25928
6.01573
5.80773
5.63072
5.4803
5.35251
5.24389
5.15146
5.07272
5.00555
4.94817
4.8991
4.85709
4.82107
4.79017
4.76364
4.74085
4.72124
4.70437
4.68984
4.67732
4.66653
4.65721
4.64916
4.64221
4.63619
4.63097
4.62645
4.62252
4.6191
4.61612
4.61352
4.61124
4.60924
4.60748
4.60593
4.60455
4.60334
4.60225
4.60129
4.60042
4.59964
4.59894
4.59831
4.59773
4.5972
4.59672
4.59628
4.59587
4.5955
4.59515
4.59482
4.59452
4.59424
4.59397
4.59372
4.59348
4.59325
4.59304
4.59284
4.59264
4.59245
4.59227
4.5921
4.59193
4.59177
4.59161
4.59146
4.59131
4.59117
4.59103
4.59089
4.59076
4.59063
4.5905
4.59038
4.59016
4.59061
4.5875
5.53171
5.74757
6.0044
6.30343
6.64111
7.00818
7.3896
7.76559
8.1127
8.4045
8.61334
8.71489
8.69513
8.55631
8.31784
8.01061
7.66807
7.31866
6.98244
6.67132
6.39097
6.14295
5.92628
5.7386
5.57691
5.43808
5.31907
5.21713
5.12983
5.05504
4.99094
4.93596
4.88877
4.84825
4.81344
4.78351
4.75776
4.7356
4.71653
4.7001
4.68594
4.67374
4.66321
4.65413
4.64628
4.6395
4.63364
4.62856
4.62416
4.62034
4.61702
4.61413
4.6116
4.60939
4.60746
4.60576
4.60426
4.60294
4.60176
4.60072
4.59979
4.59895
4.5982
4.59753
4.59691
4.59636
4.59585
4.59539
4.59496
4.59457
4.5942
4.59386
4.59355
4.59325
4.59298
4.59272
4.59247
4.59224
4.59202
4.5918
4.5916
4.59141
4.59122
4.59105
4.59087
4.59071
4.59055
4.59039
4.59024
4.59009
4.58995
4.58981
4.58967
4.58954
4.5894
4.58927
4.58916
4.58894
4.58939
4.58627
5.43313
5.61392
5.82625
6.07058
6.34393
6.63931
6.94548
7.2476
7.52794
7.76665
7.94321
8.03946
8.04421
7.95717
7.78994
7.56296
7.29997
7.02279
6.74833
6.48794
6.24816
6.03199
5.84003
5.67135
5.52423
5.39654
5.28608
5.19071
5.10848
5.03761
4.97657
4.92399
4.87869
4.83968
4.80606
4.77709
4.75212
4.73061
4.71206
4.69606
4.68227
4.67038
4.66012
4.65126
4.64361
4.637
4.63129
4.62634
4.62206
4.61834
4.61511
4.6123
4.60985
4.60771
4.60584
4.6042
4.60275
4.60147
4.60034
4.59933
4.59843
4.59763
4.59691
4.59625
4.59566
4.59513
4.59464
4.59419
4.59378
4.5934
4.59304
4.59272
4.59241
4.59212
4.59185
4.5916
4.59136
4.59113
4.59091
4.5907
4.5905
4.59031
4.59013
4.58995
4.58978
4.58962
4.58946
4.5893
4.58915
4.589
4.58886
4.58872
4.58858
4.58845
4.58832
4.58818
4.58807
4.58785
4.5883
4.58518
5.34753
5.49994
5.67687
5.87834
6.10184
6.34196
6.59018
6.83523
7.06363
7.26038
7.41007
7.499
7.51818
7.46606
7.34941
7.1817
6.97971
6.75998
6.53634
6.319
6.11458
5.92685
5.75738
5.60634
5.47295
5.3559
5.25369
5.16472
5.08746
5.02048
4.96247
4.91227
4.86886
4.83134
4.79892
4.77091
4.74672
4.72584
4.70781
4.69225
4.67882
4.66723
4.65722
4.64858
4.64113
4.63468
4.62911
4.62429
4.62012
4.6165
4.61336
4.61063
4.60826
4.60618
4.60437
4.60277
4.60137
4.60014
4.59904
4.59807
4.59721
4.59643
4.59573
4.59511
4.59454
4.59402
4.59355
4.59311
4.59272
4.59235
4.592
4.59168
4.59139
4.59111
4.59084
4.59059
4.59036
4.59013
4.58992
4.58971
4.58952
4.58933
4.58915
4.58897
4.5888
4.58864
4.58848
4.58833
4.58818
4.58803
4.58789
4.58774
4.58761
4.58747
4.58734
4.58721
4.5871
4.58687
4.58732
4.5842
5.27285
5.40212
5.55061
5.7181
5.90247
6.09947
6.30253
6.50302
6.69062
6.85394
6.98129
7.06219
7.08942
7.06085
6.98026
6.85648
6.70132
6.52719
6.34521
6.16417
5.99036
5.8278
5.67868
5.54386
5.42329
5.31634
5.22203
5.13926
5.06685
5.00367
4.94865
4.90082
4.85928
4.82324
4.79201
4.76496
4.74154
4.72129
4.70378
4.68864
4.67556
4.66427
4.65451
4.64609
4.63881
4.63253
4.6271
4.6224
4.61833
4.61481
4.61176
4.6091
4.60679
4.60478
4.60302
4.60148
4.60012
4.59893
4.59787
4.59693
4.59609
4.59535
4.59467
4.59407
4.59352
4.59302
4.59256
4.59214
4.59176
4.5914
4.59107
4.59076
4.59047
4.59019
4.58994
4.58969
4.58946
4.58924
4.58903
4.58883
4.58864
4.58845
4.58827
4.5881
4.58793
4.58777
4.58761
4.58745
4.5873
4.58716
4.58701
4.58687
4.58673
4.5866
4.58647
4.58634
4.58623
4.586
4.58645
4.58332
5.20743
5.3177
5.44317
5.58346
5.73678
5.89976
6.06727
6.23264
6.38794
6.52442
6.63316
6.70606
6.73729
6.72455
6.66975
6.57862
6.45945
6.32148
6.1735
6.02293
5.87545
5.73503
5.60416
5.48415
5.37548
5.27801
5.19123
5.1144
5.04669
4.98723
4.93514
4.88964
4.84994
4.81538
4.78533
4.75922
4.73657
4.71694
4.69993
4.68522
4.67249
4.66148
4.65197
4.64375
4.63666
4.63053
4.62523
4.62065
4.61668
4.61325
4.61028
4.6077
4.60545
4.6035
4.60179
4.60029
4.59898
4.59782
4.5968
4.59589
4.59508
4.59436
4.59371
4.59313
4.5926
4.59211
4.59167
4.59127
4.59089
4.59054
4.59022
4.58992
4.58964
4.58937
4.58912
4.58888
4.58865
4.58844
4.58823
4.58803
4.58784
4.58766
4.58748
4.58731
4.58714
4.58698
4.58682
4.58667
4.58652
4.58637
4.58623
4.58609
4.58595
4.58582
4.58568
4.58555
4.58544
4.58521
4.58566
4.58253
5.14994
5.24453
5.3512
5.46953
5.598
5.73389
5.87318
6.01064
6.14014
6.25495
6.34817
6.41349
6.44617
6.44396
6.40763
6.34083
6.24935
6.14003
6.01974
5.89463
5.76966
5.64859
5.53398
5.42741
5.32969
5.24107
5.1614
5.09025
5.02706
4.97119
4.92198
4.87874
4.84087
4.80776
4.77887
4.7537
4.7318
4.71278
4.69628
4.68197
4.66958
4.65886
4.64959
4.64157
4.63464
4.62866
4.62349
4.61902
4.61516
4.61181
4.60891
4.6064
4.60422
4.60231
4.60066
4.5992
4.59793
4.59681
4.59582
4.59494
4.59416
4.59346
4.59284
4.59227
4.59176
4.59129
4.59086
4.59047
4.59011
4.58977
4.58946
4.58916
4.58889
4.58863
4.58838
4.58815
4.58792
4.58771
4.58751
4.58731
4.58712
4.58694
4.58676
4.58659
4.58643
4.58627
4.58611
4.58596
4.58581
4.58566
4.58552
4.58538
4.58524
4.58511
4.58497
4.58484
4.58473
4.5845
4.58495
4.58182
5.09929
5.18086
5.27209
5.37257
5.48099
5.59514
5.71182
5.82694
5.93572
6.0329
6.11315
6.1715
6.20406
6.20875
6.18564
6.137
6.06684
5.98021
5.88242
5.77849
5.6727
5.56844
5.46822
5.37375
5.28606
5.20565
5.13264
5.06687
5.00801
4.95561
4.90917
4.86816
4.83206
4.80037
4.77262
4.74837
4.72722
4.7088
4.69279
4.67889
4.66683
4.65639
4.64734
4.63952
4.63276
4.62692
4.62187
4.61751
4.61374
4.61048
4.60765
4.6052
4.60308
4.60123
4.59962
4.59821
4.59697
4.59588
4.59493
4.59408
4.59332
4.59264
4.59204
4.59149
4.59099
4.59054
4.59013
4.58974
4.58939
4.58906
4.58876
4.58847
4.5882
4.58795
4.58771
4.58748
4.58726
4.58705
4.58685
4.58666
4.58647
4.58629
4.58612
4.58595
4.58578
4.58562
4.58547
4.58531
4.58516
4.58502
4.58488
4.58474
4.5846
4.58446
4.58433
4.5842
4.58409
4.58386
4.58431
4.58118
5.05458
5.12529
5.20378
5.28964
5.38176
5.47834
5.5768
5.67392
5.76592
5.84871
5.91809
5.97013
6.00164
6.01073
5.99706
5.96199
5.90827
5.83959
5.76006
5.67371
5.58417
5.49445
5.40692
5.32328
5.24469
5.17184
5.10505
5.04435
4.9896
4.94052
4.89676
4.8579
4.82353
4.79323
4.7666
4.74325
4.72283
4.705
4.68947
4.67596
4.66423
4.65405
4.64524
4.63761
4.63101
4.6253
4.62037
4.61611
4.61243
4.60924
4.60649
4.6041
4.60203
4.60023
4.59866
4.59729
4.59609
4.59503
4.5941
4.59328
4.59255
4.59189
4.5913
4.59077
4.59029
4.58985
4.58945
4.58908
4.58874
4.58842
4.58812
4.58785
4.58758
4.58733
4.5871
4.58687
4.58666
4.58645
4.58625
4.58606
4.58588
4.5857
4.58553
4.58536
4.5852
4.58504
4.58488
4.58473
4.58458
4.58443
4.58429
4.58415
4.58402
4.58388
4.58375
4.58362
4.5835
4.58328
4.58373
4.58059
5.01507
5.07668
5.1446
5.21843
5.29722
5.3795
5.46318
5.54569
5.62404
5.695
5.75526
5.80167
5.83161
5.84337
5.83643
5.81151
5.77046
5.71599
5.65125
5.57946
5.50364
5.42644
5.35002
5.27602
5.20566
5.13974
5.0787
5.02275
4.97188
4.92597
4.88476
4.84798
4.81528
4.78634
4.76079
4.73833
4.71862
4.70137
4.68631
4.67318
4.66177
4.65185
4.64325
4.63581
4.62936
4.62379
4.61897
4.6148
4.61121
4.6081
4.60541
4.60308
4.60106
4.5993
4.59777
4.59644
4.59528
4.59425
4.59335
4.59255
4.59184
4.5912
4.59063
4.59012
4.58965
4.58923
4.58884
4.58848
4.58814
4.58783
4.58754
4.58727
4.58702
4.58677
4.58654
4.58632
4.58611
4.5859
4.58571
4.58552
4.58534
4.58516
4.58499
4.58482
4.58466
4.5845
4.58435
4.5842
4.58405
4.5839
4.58376
4.58362
4.58348
4.58335
4.58322
4.58308
4.58297
4.58274
4.5832
4.58005
4.98012
5.03408
5.09319
5.15707
5.22491
5.29548
5.3671
5.43768
5.50486
5.56607
5.61865
5.66008
5.68818
5.70146
5.69926
5.68192
5.65066
5.60744
5.55467
5.4949
5.43065
5.36418
5.29744
5.23199
5.16902
5.10939
5.05365
5.00212
4.9549
4.91198
4.87322
4.83842
4.80734
4.7797
4.75521
4.7336
4.71458
4.6979
4.6833
4.67055
4.65944
4.64978
4.64139
4.63412
4.62782
4.62237
4.61766
4.61359
4.61007
4.60703
4.6044
4.60213
4.60016
4.59845
4.59696
4.59566
4.59453
4.59353
4.59265
4.59187
4.59118
4.59057
4.59002
4.58952
4.58906
4.58865
4.58827
4.58792
4.5876
4.5873
4.58701