/*--------------------------------*- C++ -*----------------------------------*\
| =========                 |                                                 |
| \\      /  F ield         | OpenFOAM: The Open Source CFD Toolbox           |
|  \\    /   O peration     | Version:  2.1.1                                 |
|   \\  /    A nd           | Web:      www.OpenFOAM.org                      |
|    \\/     M anipulation  |                                                 |
\*---------------------------------------------------------------------------*/
FoamFile
{
    version     2.0;
    format      ascii;
    class       volScalarField;
    location    "0.005";
    object      k;
}
// * * * * * * * * * * * * * * * * * * * * * * * * * * * * * * * * * * * * * //

dimensions      [0 2 -2 0 0 0 0];

internalField   nonuniform List<scalar> 
6820
(
0.288906
0.351389
0.415006
0.477476
0.53689
0.591821
0.641407
0.685002
0.721758
0.750713
0.77138
0.784186
0.79026
0.791406
0.789834
0.787492
0.785682
0.785002
0.785519
0.787032
0.789287
0.792089
0.795331
0.798975
0.803021
0.807483
0.812373
0.817683
0.823402
0.829441
0.835479
0.842156
0.84118
0.265523
0.269379
0.270504
0.271291
0.272337
0.273514
0.274666
0.275927
0.277739
0.280445
0.283749
0.286561
0.287562
0.285915
0.281908
0.276764
0.27186
0.26817
0.266003
0.265139
0.265122
0.265528
0.266078
0.266645
0.267201
0.267766
0.268372
0.26905
0.269837
0.270748
0.271958
0.273076
0.276142
0.262043
0.26428
0.263672
0.26168
0.259098
0.256207
0.253247
0.250871
0.250077
0.25153
0.254818
0.258369
0.260241
0.259221
0.255357
0.249873
0.24442
0.240207
0.237679
0.236653
0.23666
0.237237
0.238077
0.239044
0.240131
0.241404
0.242969
0.244981
0.247649
0.251318
0.256573
0.264256
0.276857
0.25988
0.260255
0.259781
0.25854
0.256785
0.254632
0.252411
0.250958
0.251372
0.254215
0.258796
0.263256
0.265525
0.264446
0.260285
0.254441
0.248623
0.244086
0.241309
0.240136
0.240104
0.240747
0.241752
0.242982
0.244441
0.246221
0.248479
0.251436
0.255413
0.26088
0.268663
0.279657
0.296666
0.259299
0.258403
0.257608
0.256594
0.255249
0.253565
0.251888
0.251125
0.252399
0.256193
0.261651
0.266767
0.269411
0.268459
0.264271
0.258322
0.252361
0.247668
0.244754
0.243487
0.243423
0.244102
0.245211
0.246615
0.248321
0.250437
0.25314
0.256681
0.261418
0.267853
0.276785
0.289117
0.306894
0.259223
0.25784
0.256625
0.255454
0.254162
0.252658
0.251267
0.250913
0.25272
0.257108
0.263124
0.268679
0.271612
0.270818
0.266692
0.260732
0.254705
0.249913
0.246894
0.245541
0.24543
0.246107
0.247259
0.248746
0.250576
0.252855
0.255761
0.259547
0.264556
0.271254
0.280329
0.292565
0.309384
0.259216
0.257712
0.256325
0.255014
0.253644
0.252133
0.250815
0.250631
0.252704
0.257425
0.263783
0.26964
0.272811
0.272184
0.268151
0.262213
0.256143
0.251264
0.248142
0.246697
0.246519
0.247161
0.248304
0.249803
0.251657
0.253964
0.256891
0.260671
0.26561
0.272109
0.280721
0.29208
0.307145
0.259217
0.257687
0.256238
0.254855
0.253422
0.25187
0.250543
0.250397
0.252569
0.257448
0.264006
0.270078
0.273452
0.27299
0.269061
0.263153
0.257044
0.252078
0.24885
0.247306
0.247049
0.247633
0.248734
0.250197
0.25201
0.254257
0.257089
0.260708
0.265376
0.271422
0.279272
0.289412
0.302482
0.259217
0.257684
0.256222
0.254815
0.253353
0.251771
0.250415
0.250249
0.252429
0.257362
0.264028
0.270253
0.2738
0.273494
0.269668
0.26379
0.257642
0.252589
0.249257
0.247615
0.247276
0.247794
0.248837
0.250241
0.251978
0.25412
0.256796
0.260179
0.264486
0.269976
0.276973
0.285834
0.296983
0.259217
0.257683
0.256218
0.254804
0.253333
0.251737
0.250358
0.250161
0.252315
0.257254
0.263978
0.270319
0.274014
0.273849
0.270118
0.264266
0.25808
0.252946
0.249516
0.247782
0.247364
0.247816
0.248798
0.250131
0.251779
0.253796
0.256293
0.259415
0.263335
0.268259
0.274425
0.282092
0.291538
0.259217
0.257683
0.256217
0.254802
0.25333
0.251728
0.250333
0.250106
0.252227
0.257154
0.263916
0.270349
0.274172
0.274132
0.270486
0.264656
0.258433
0.253224
0.249706
0.247888
0.247399
0.247789
0.24871
0.249972
0.251527
0.253415
0.255729
0.258588
0.262133
0.266522
0.271931
0.278544
0.286543
0.259217
0.257683
0.256217
0.254802
0.25333
0.251726
0.250319
0.250066
0.252156
0.257069
0.26386
0.270373
0.274308
0.274378
0.270803
0.26499
0.258732
0.253455
0.249859
0.247967
0.247415
0.247749
0.248611
0.249804
0.251267
0.253028
0.255163
0.257773
0.260968
0.264871
0.26961
0.275316
0.282108
0.259217
0.257683
0.256216
0.254802
0.253331
0.251726
0.25031
0.250035
0.252097
0.256998
0.263814
0.270396
0.27443
0.274594
0.27108
0.265278
0.258985
0.253647
0.249982
0.248026
0.247419
0.247702
0.24851
0.249637
0.251012
0.25265
0.254617
0.256993
0.259868
0.263336
0.267491
0.272425
0.278213
0.259217
0.257683
0.256216
0.254802
0.253332
0.251727
0.250302
0.250008
0.252046
0.256936
0.263775
0.270419
0.274538
0.274782
0.271315
0.265518
0.259193
0.2538
0.250075
0.248064
0.247409
0.247646
0.248405
0.24947
0.25076
0.252283
0.254091
0.256252
0.258838
0.26192
0.265567
0.269844
0.274797
0.259218
0.257684
0.256216
0.254802
0.253333
0.251728
0.250296
0.249984
0.252001
0.256883
0.263741
0.270439
0.27463
0.27494
0.27151
0.265712
0.259355
0.253912
0.250134
0.248077
0.24738
0.247579
0.248292
0.249298
0.250509
0.251923
0.253585
0.255549
0.257873
0.260614
0.26382
0.267537
0.271793
0.259218
0.257684
0.256216
0.254802
0.253334
0.251728
0.250291
0.249964
0.251963
0.256836
0.263712
0.270455
0.274707
0.275069
0.271665
0.26586
0.25947
0.253983
0.25016
0.248062
0.247332
0.247495
0.248168
0.249119
0.250255
0.251568
0.253094
0.254879
0.256969
0.259408
0.262232
0.265472
0.269142
0.259218
0.257684
0.256217
0.254803
0.253335
0.251729
0.250286
0.249946
0.251929
0.256795
0.263687
0.270469
0.274769
0.275172
0.271783
0.265966
0.259542
0.254014
0.250152
0.248021
0.247261
0.247395
0.24803
0.24893
0.249996
0.251216
0.252617
0.254239
0.256121
0.258294
0.260786
0.263617
0.266794
0.259218
0.257684
0.256217
0.254803
0.253336
0.25173
0.250282
0.249931
0.251899
0.25676
0.263665
0.270479
0.274819
0.27525
0.271867
0.266032
0.259575
0.254009
0.250113
0.247955
0.247171
0.247278
0.247879
0.248732
0.249734
0.250867
0.252154
0.253629
0.255324
0.257264
0.259467
0.261949
0.264709
0.259218
0.257685
0.256217
0.254804
0.253337
0.251731
0.250279
0.249918
0.251873
0.256729
0.263646
0.270487
0.274858
0.275308
0.271923
0.266065
0.259574
0.253973
0.250047
0.247866
0.247062
0.247146
0.247716
0.248526
0.249468
0.250521
0.251705
0.253048
0.254576
0.256311
0.258264
0.260446
0.262853
0.259218
0.257685
0.256218
0.254804
0.253338
0.251732
0.250276
0.249906
0.251851
0.256703
0.26363
0.270493
0.274887
0.275348
0.271955
0.266071
0.259545
0.253911
0.24996
0.24776
0.246939
0.247003
0.247545
0.248315
0.249201
0.250182
0.251271
0.252495
0.253876
0.25543
0.257166
0.25909
0.261197
0.259218
0.257685
0.256218
0.254805
0.253339
0.251733
0.250274
0.249896
0.251832
0.256681
0.263616
0.270498
0.27491
0.275375
0.271967
0.266054
0.259495
0.253831
0.249857
0.247642
0.246807
0.246853
0.247369
0.248101
0.248937
0.24985
0.250854
0.251972
0.253222
0.254617
0.256165
0.257867
0.259719
0.259218
0.257685
0.256218
0.254805
0.25334
0.251733
0.250272
0.249888
0.251816
0.256662
0.263605
0.270502
0.274926
0.275391
0.271965
0.266022
0.259429
0.253737
0.249744
0.247515
0.246668
0.246699
0.247191
0.247888
0.248677
0.24953
0.250457
0.251479
0.252613
0.253869
0.255253
0.256764
0.258397
0.259218
0.257686
0.256218
0.254805
0.253341
0.251734
0.250271
0.24988
0.251801
0.256646
0.263596
0.270506
0.274939
0.275399
0.271953
0.265979
0.259354
0.253636
0.249626
0.247386
0.246529
0.246545
0.247015
0.24768
0.248426
0.249222
0.25008
0.251017
0.252048
0.253182
0.254423
0.25577
0.257217
0.259218
0.257686
0.256219
0.254806
0.253341
0.251735
0.250269
0.249873
0.251788
0.256631
0.263587
0.270508
0.274948
0.275402
0.271935
0.26593
0.259275
0.253534
0.249509
0.24726
0.246393
0.246396
0.246845
0.24748
0.248186
0.248931
0.249726
0.250586
0.251526
0.252554
0.253671
0.254875
0.256162
0.259219
0.257686
0.256219
0.254806
0.253342
0.251735
0.250267
0.249867
0.251776
0.256617
0.263579
0.270509
0.274954
0.275401
0.271914
0.26588
0.259197
0.253434
0.249397
0.247139
0.246264
0.246254
0.246683
0.247291
0.247959
0.248658
0.249396
0.250188
0.251048
0.251981
0.25299
0.254071
0.255221
0.259219
0.257686
0.256219
0.254806
0.253342
0.251735
0.250266
0.249861
0.251764
0.256604
0.26357
0.270509
0.274959
0.275399
0.271892
0.265832
0.259123
0.253342
0.249293
0.247028
0.246145
0.246123
0.246533
0.247114
0.247748
0.248405
0.249091
0.249823
0.250611
0.251462
0.252376
0.253351
0.254383
0.259219
0.257686
0.256219
0.254806
0.253342
0.251735
0.250264
0.249855
0.251753
0.25659
0.263561
0.270507
0.274962
0.275397
0.271873
0.26579
0.259058
0.25326
0.2492
0.246928
0.246039
0.246005
0.246397
0.246953
0.247555
0.248173
0.248813
0.24949
0.250215
0.250993
0.251824
0.252707
0.253637
0.259219
0.257686
0.256219
0.254805
0.253342
0.251735
0.250262
0.249848
0.251741
0.256576
0.263549
0.270503
0.274963
0.275395
0.271858
0.265755
0.259003
0.25319
0.249121
0.246843
0.245946
0.2459
0.246275
0.246808
0.247381
0.247963
0.248561
0.249189
0.249858
0.250572
0.251331
0.252134
0.252976
0.259219
0.257686
0.256219
0.254805
0.253342
0.251735
0.250261
0.249842
0.251729
0.25656
0.263535
0.270497
0.274963
0.275394
0.271847
0.265728
0.258959
0.253133
0.249056
0.246772
0.245867
0.24581
0.246169
0.24668
0.247226
0.247776
0.248336
0.24892
0.249539
0.250197
0.250893
0.251627
0.252393
0.259219
0.257686
0.256218
0.254804
0.253341
0.251734
0.250258
0.249835
0.251716
0.256542
0.263519
0.270488
0.274962
0.275396
0.271843
0.265711
0.258929
0.253091
0.249006
0.246716
0.245804
0.245736
0.246079
0.246569
0.24709
0.247611
0.248137
0.248682
0.249257
0.249865
0.250506
0.251179
0.25188
0.259219
0.257686
0.256218
0.254804
0.253342
0.251735
0.250258
0.24983
0.251704
0.256524
0.263501
0.270476
0.274959
0.275398
0.271843
0.265702
0.258909
0.253062
0.24897
0.246674
0.245754
0.245676
0.246004
0.246476
0.246974
0.247468
0.247964
0.248474
0.249009
0.249574
0.250167
0.250787
0.251431
0.259218
0.257685
0.256217
0.254802
0.253339
0.251733
0.250254
0.249822
0.251688
0.256503
0.263481
0.270463
0.274957
0.275404
0.27185
0.265704
0.258902
0.253047
0.248948
0.246645
0.245718
0.24563
0.245945
0.2464
0.246877
0.247347
0.247815
0.248294
0.248795
0.249321
0.249872
0.250447
0.251042
0.259218
0.257686
0.256219
0.254807
0.253345
0.25174
0.25026
0.249824
0.251683
0.256491
0.263465
0.270452
0.274955
0.27541
0.271859
0.26571
0.258901
0.253039
0.248935
0.246627
0.245695
0.245598
0.245901
0.246341
0.2468
0.247248
0.247692
0.248144
0.248614
0.249107
0.249621
0.250156
0.250709
0.259218
0.257684
0.256216
0.254802
0.253341
0.251737
0.250257
0.249818
0.251672
0.256475
0.26345
0.270444
0.274959
0.275424
0.271878
0.265727
0.258914
0.253045
0.248935
0.246623
0.245684
0.245579
0.245871
0.246297
0.24674
0.247169
0.24759
0.248018
0.248461
0.248924
0.249407
0.249909
0.250426
0.259219
0.257692
0.256233
0.254827
0.253372
0.251772
0.250295
0.249855
0.251703
0.256498
0.263463
0.27045
0.274959
0.275421
0.271873
0.26572
0.258906
0.253038
0.248929
0.246617
0.245677
0.245568
0.245853
0.246267
0.246695
0.247108
0.24751
0.247917
0.248337
0.248775
0.249232
0.249704
0.250192
0.259219
0.25769
0.256233
0.254833
0.253386
0.251794
0.250322
0.249881
0.251719
0.256497
0.263444
0.270417
0.274921
0.275385
0.271842
0.265695
0.258883
0.253017
0.248907
0.246592
0.245645
0.245526
0.245796
0.246195
0.246605
0.246997
0.247379
0.247765
0.248163
0.248579
0.249012
0.249461
0.249925
0.259231
0.257748
0.256326
0.254946
0.253509
0.251921
0.250441
0.24997
0.251743
0.25642
0.263247
0.27011
0.274538
0.274971
0.271435
0.26532
0.258549
0.25272
0.248639
0.246339
0.245394
0.245265
0.245517
0.245891
0.246274
0.246639
0.246993
0.247351
0.247723
0.248112
0.24852
0.248944
0.249384
0.259262
0.257814
0.256452
0.255138
0.253739
0.252145
0.250592
0.249938
0.251405
0.2557
0.262182
0.268849
0.273273
0.273845
0.270499
0.264544
0.257871
0.252083
0.248005
0.245687
0.244712
0.244544
0.244751
0.245078
0.245413
0.245729
0.246037
0.24635
0.246677
0.247023
0.247388
0.24777
0.248169
0.259606
0.258649
0.257605
0.256601
0.255624
0.254558
0.253536
0.253265
0.254844
0.258983
0.265176
0.271617
0.276031
0.276858
0.273984
0.268631
0.262604
0.257437
0.253902
0.252013
0.251339
0.251354
0.251652
0.252005
0.252328
0.25261
0.252867
0.253115
0.253364
0.253616
0.253871
0.254127
0.254384
0.266719
0.280569
0.294252
0.307643
0.320673
0.333303
0.345583
0.357668
0.369651
0.38127
0.391772
0.40013
0.405535
0.407818
0.407536
0.405685
0.403277
0.401015
0.399202
0.397834
0.396763
0.395824
0.394906
0.393956
0.392958
0.391919
0.390845
0.389745
0.38862
0.387476
0.386311
0.385135
0.383919
0.8743
0.889054
0.684622
0.479102
0.816383
1.38788
1.88504
2.27344
2.5471
2.68577
2.65579
2.44593
2.09024
1.66531
1.26154
0.941371
0.718153
0.572492
0.479073
0.418331
0.377404
0.348554
0.32733
0.311167
0.298543
0.288508
0.280435
0.273884
0.268534
0.264147
0.260538
0.257566
0.255118
0.253102
0.251446
0.250088
0.248977
0.248073
0.24734
0.246749
0.246275
0.245898
0.245602
0.245371
0.245193
0.245059
0.244961
0.244891
0.244844
0.244815
0.244799
0.244795
0.244799
0.244809
0.244823
0.244841
0.24486
0.244881
0.244901
0.244922
0.244942
0.244961
0.244979
0.244996
0.245012
0.245026
0.245039
0.245051
0.245062
0.245071
0.24508
0.245087
0.245093
0.245098
0.245103
0.245106
0.245109
0.245112
0.245113
0.245115
0.245115
0.245116
0.245116
0.245115
0.245114
0.245114
0.245112
0.245111
0.245109
0.245108
0.245106
0.245104
0.245102
0.2451
0.245098
0.245095
0.245094
0.245089
0.2451
0.245018
0.276416
0.279192
0.350293
0.583907
0.919477
1.30821
1.67594
1.97663
2.1959
2.31118
2.29135
2.12352
1.83276
1.4809
1.1423
0.869707
0.676832
0.549694
0.467209
0.412365
0.374337
0.346919
0.326518
0.310925
0.298731
0.289021
0.281186
0.274803
0.269564
0.265241
0.26166
0.258685
0.25621
0.254151
0.252438
0.251015
0.249834
0.248857
0.24805
0.247387
0.246843
0.246399
0.246038
0.245747
0.245514
0.245328
0.245182
0.245068
0.24498
0.244913
0.244864
0.244829
0.244805
0.24479
0.244781
0.244777
0.244778
0.244781
0.244786
0.244793
0.2448
0.244808
0.244816
0.244824
0.244831
0.244838
0.244845
0.24485
0.244856
0.24486
0.244864
0.244868
0.24487
0.244872
0.244874
0.244875
0.244876
0.244876
0.244876
0.244876
0.244875
0.244874
0.244873
0.244872
0.24487
0.244868
0.244866
0.244864
0.244862
0.24486
0.244858
0.244856
0.244853
0.244851
0.244848
0.244846
0.244844
0.244839
0.24485
0.244768
0.299576
0.344463
0.432889
0.603807
0.865291
1.17001
1.45744
1.6965
1.87374
1.96927
1.95771
1.82697
1.59488
1.30969
1.03104
0.802732
0.638316
0.528233
0.455506
0.405928
0.370632
0.344676
0.325152
0.31016
0.298411
0.289042
0.281469
0.275285
0.270195
0.265978
0.262468
0.259535
0.257078
0.255017
0.253286
0.251832
0.250612
0.249588
0.248731
0.248013
0.247415
0.246916
0.246501
0.246157
0.245873
0.24564
0.245447
0.24529
0.245162
0.245058
0.244974
0.244907
0.244853
0.24481
0.244776
0.24475
0.244729
0.244713
0.2447
0.244691
0.244684
0.244679
0.244675
0.244672
0.244669
0.244667
0.244666
0.244665
0.244663
0.244662
0.244661
0.24466
0.244658
0.244657
0.244655
0.244653
0.244651
0.244649
0.244647
0.244645
0.244642
0.24464
0.244637
0.244635
0.244632
0.244629
0.244627
0.244624
0.244621
0.244618
0.244615
0.244613
0.24461
0.244607
0.244604
0.244601
0.244599
0.244594
0.244605
0.244523
0.324662
0.373121
0.458927
0.602504
0.802576
1.03163
1.25305
1.44202
1.58421
1.66287
1.65807
1.55923
1.37851
1.15247
0.927761
0.740027
0.601983
0.507553
0.443643
0.3989
0.366267
0.341838
0.323257
0.308899
0.29761
0.28859
0.281288
0.275316
0.270393
0.266305
0.262893
0.260033
0.257626
0.255596
0.253881
0.25243
0.251202
0.250161
0.24928
0.248535
0.247904
0.24737
0.24692
0.246539
0.246219
0.245948
0.245721
0.24553
0.245369
0.245234
0.245121
0.245026
0.244946
0.244879
0.244823
0.244776
0.244736
0.244702
0.244674
0.244649
0.244629
0.244611
0.244596
0.244582
0.244571
0.24456
0.244551
0.244543
0.244536
0.244529
0.244522
0.244517
0.244511
0.244506
0.244501
0.244496
0.244492
0.244487
0.244483
0.244479
0.244475
0.244471
0.244467
0.244463
0.24446
0.244456
0.244452
0.244449
0.244445
0.244442
0.244439
0.244435
0.244432
0.244429
0.244426
0.244423
0.24442
0.244415
0.244426
0.244344
0.335622
0.382969
0.457853
0.572534
0.725534
0.898797
1.06819
1.21554
1.32848
1.39328
1.3943
1.32248
1.18567
1.01078
0.833439
0.681986
0.567829
0.487567
0.431635
0.391384
0.361365
0.338519
0.320939
0.307249
0.296433
0.287764
0.280732
0.274972
0.270217
0.266265
0.262961
0.260186
0.257846
0.255867
0.254189
0.252763
0.25155
0.250516
0.249635
0.248883
0.248242
0.247694
0.247226
0.246827
0.246486
0.246195
0.245946
0.245734
0.245552
0.245396
0.245263
0.245149
0.245051
0.244967
0.244895
0.244832
0.244778
0.244731
0.244691
0.244655
0.244624
0.244597
0.244573
0.244551
0.244532
0.244516
0.2445
0.244487
0.244474
0.244463
0.244453
0.244443
0.244434
0.244426
0.244419
0.244412
0.244405
0.244399
0.244393
0.244387
0.244382
0.244377
0.244372
0.244367
0.244363
0.244358
0.244354
0.24435
0.244346
0.244342
0.244338
0.244335
0.244331
0.244328
0.244324
0.244321
0.244318
0.244313
0.244324
0.244241
0.335996
0.378466
0.4414
0.53186
0.647881
0.777469
0.90522
1.01858
1.10762
1.16127
1.16724
1.11777
1.01754
0.885742
0.7489
0.629018
0.535953
0.468316
0.419591
0.383531
0.356072
0.334846
0.318315
0.305324
0.294994
0.28668
0.279916
0.274364
0.269773
0.265952
0.262755
0.260067
0.257798
0.255876
0.254243
0.252853
0.251667
0.250653
0.249786
0.249043
0.248406
0.247859
0.247389
0.246985
0.246638
0.246339
0.246081
0.245859
0.245667
0.245501
0.245358
0.245233
0.245125
0.245032
0.24495
0.244878
0.244816
0.244761
0.244713
0.244671
0.244633
0.2446
0.244571
0.244544
0.244521
0.2445
0.244481
0.244463
0.244448
0.244434
0.244421
0.244409
0.244398
0.244388
0.244379
0.24437
0.244362
0.244355
0.244348
0.244341
0.244335
0.244329
0.244323
0.244318
0.244313
0.244308
0.244303
0.244299
0.244295
0.244291
0.244287
0.244283
0.244279
0.244275
0.244272
0.244268
0.244265
0.244259
0.244271
0.244187
0.330462
0.366736
0.4179
0.487833
0.574794
0.670973
0.766492
0.852849
0.922592
0.967133
0.976817
0.945098
0.874338
0.777753
0.674534
0.58133
0.506416
0.449857
0.407625
0.375485
0.35052
0.330928
0.315477
0.303213
0.293387
0.285435
0.27894
0.273593
0.269162
0.265468
0.262373
0.259768
0.257566
0.2557
0.254114
0.252762
0.251607
0.250618
0.249771
0.249044
0.248419
0.247881
0.247418
0.247018
0.246673
0.246375
0.246117
0.245893
0.245699
0.24553
0.245384
0.245256
0.245144
0.245047
0.244962
0.244887
0.244821
0.244762
0.244711
0.244665
0.244625
0.244589
0.244557
0.244528
0.244502
0.244479
0.244458
0.244439
0.244422
0.244406
0.244392
0.244379
0.244367
0.244356
0.244346
0.244337
0.244328
0.24432
0.244312
0.244305
0.244298
0.244292
0.244286
0.244281
0.244275
0.24427
0.244265
0.244261
0.244256
0.244252
0.244248
0.244244
0.24424
0.244236
0.244233
0.244229
0.244226
0.24422
0.244231
0.244148
0.322238
0.352232
0.392929
0.446387
0.511224
0.58238
0.653502
0.718894
0.773188
0.809959
0.821811
0.803329
0.75532
0.68648
0.610249
0.538898
0.479218
0.432245
0.395847
0.36737
0.344816
0.326848
0.312495
0.300978
0.291673
0.284094
0.277873
0.272733
0.268461
0.264891
0.261894
0.259368
0.257231
0.255418
0.253876
0.25256
0.251436
0.250473
0.249647
0.248938
0.248328
0.247802
0.247349
0.246958
0.246619
0.246326
0.246072
0.245852
0.24566
0.245493
0.245348
0.245221
0.24511
0.245012
0.244927
0.244851
0.244785
0.244726
0.244674
0.244628
0.244587
0.24455
0.244518
0.244488
0.244462
0.244438
0.244417
0.244397
0.244379
0.244363
0.244349
0.244335
0.244323
0.244312
0.244301
0.244292
0.244283
0.244274
0.244267
0.244259
0.244253
0.244246
0.24424
0.244234
0.244229
0.244224
0.244219
0.244214
0.24421
0.244205
0.244201
0.244197
0.244193
0.244189
0.244186
0.244182
0.244179
0.244173
0.244184
0.244101
0.31344
0.337838
0.369899
0.410681
0.459158
0.512062
0.565233
0.614786
0.656906
0.686939
0.699423
0.690063
0.658731
0.610847
0.555495
0.501497
0.454313
0.415534
0.384356
0.359289
0.339046
0.322671
0.309417
0.298661
0.289891
0.282696
0.276758
0.271828
0.267716
0.26427
0.261371
0.258922
0.256848
0.255086
0.253586
0.252305
0.25121
0.250272
0.249467
0.248775
0.24818
0.247668
0.247225
0.246843
0.246513
0.246227
0.245979
0.245764
0.245576
0.245413
0.245271
0.245147
0.245038
0.244942
0.244859
0.244785
0.244719
0.244662
0.244611
0.244565
0.244525
0.244489
0.244456
0.244427
0.244401
0.244378
0.244357
0.244337
0.24432
0.244304
0.24429
0.244276
0.244264
0.244253
0.244243
0.244233
0.244224
0.244216
0.244208
0.244201
0.244194
0.244188
0.244182
0.244176
0.24417
0.244165
0.24416
0.244156
0.244151
0.244147
0.244142
0.244138
0.244135
0.244131
0.244127
0.244123
0.24412
0.244114
0.244125
0.244042
0.305171
0.324934
0.35022
0.381557
0.418208
0.458038
0.498258
0.536128
0.568888
0.593215
0.605201
0.601601
0.58184
0.549107
0.509341
0.468746
0.431626
0.399781
0.373243
0.351329
0.333281
0.31845
0.306281
0.29629
0.288064
0.281263
0.275614
0.270902
0.266954
0.263634
0.260833
0.258462
0.25645
0.254738
0.253278
0.252031
0.250964
0.250049
0.249264
0.24859
0.24801
0.24751
0.247078
0.246706
0.246384
0.246105
0.245864
0.245654
0.245472
0.245313
0.245175
0.245054
0.244948
0.244856
0.244774
0.244702
0.244639
0.244583
0.244534
0.24449
0.24445
0.244415
0.244384
0.244356
0.244331
0.244308
0.244287
0.244269
0.244252
0.244236
0.244222
0.244209
0.244197
0.244186
0.244176
0.244167
0.244158
0.24415
0.244142
0.244135
0.244128
0.244122
0.244116
0.24411
0.244105
0.2441
0.244095
0.24409
0.244086
0.244081
0.244077
0.244073
0.244069
0.244065
0.244062
0.244058
0.244055
0.244049
0.24406
0.243976
0.297853
0.313916
0.334012
0.358399
0.386544
0.417033
0.44795
0.477299
0.503023
0.522716
0.533621
0.533369
0.521265
0.499091
0.470634
0.440186
0.411067
0.385038
0.362593
0.343567
0.327581
0.314229
0.303119
0.293888
0.28621
0.279809
0.274456
0.269965
0.266185
0.262995
0.260294
0.258001
0.256051
0.254389
0.25297
0.251757
0.250717
0.249826
0.24906
0.248402
0.247836
0.247348
0.246927
0.246564
0.24625
0.245979
0.245744
0.24554
0.245363
0.245208
0.245074
0.244957
0.244855
0.244765
0.244686
0.244617
0.244556
0.244502
0.244454
0.244412
0.244374
0.24434
0.24431
0.244283
0.244258
0.244236
0.244217
0.244198
0.244182
0.244167
0.244153
0.244141
0.244129
0.244119
0.244109
0.2441
0.244091
0.244083
0.244076
0.244069
0.244062
0.244056
0.24405
0.244044
0.244039
0.244034
0.244029
0.244024
0.24402
0.244016
0.244011
0.244007
0.244003
0.244
0.243996
0.243992
0.243989
0.243983
0.243994
0.24391
0.291536
0.304681
0.320819
0.340066
0.362036
0.385768
0.40992
0.433011
0.453466
0.469505
0.47916
0.480725
0.473541
0.458566
0.438188
0.415341
0.392535
0.371349
0.352479
0.336068
0.321997
0.310047
0.299959
0.291473
0.28434
0.278342
0.273289
0.269024
0.265416
0.262357
0.259758
0.257546
0.255659
0.254048
0.25267
0.251489
0.250477
0.249609
0.248862
0.24822
0.247668
0.247192
0.246781
0.246427
0.246121
0.245857
0.245628
0.245429
0.245257
0.245107
0.244977
0.244864
0.244764
0.244678
0.244602
0.244535
0.244476
0.244424
0.244378
0.244337
0.244301
0.244268
0.244239
0.244213
0.24419
0.244169
0.244149
0.244132
0.244116
0.244102
0.244089
0.244077
0.244065
0.244055
0.244045
0.244037
0.244028
0.24402
0.244013
0.244006
0.244
0.243994
0.243988
0.243982
0.243977
0.243972
0.243967
0.243963
0.243958
0.243954
0.24395
0.243946
0.243942
0.243938
0.243934
0.243931
0.243927
0.243921
0.243933
0.243848
0.286117
0.29696
0.310055
0.32545
0.342855
0.361603
0.380734
0.399136
0.415595
0.428765
0.437212
0.439692
0.43564
0.425552
0.410924
0.393756
0.375915
0.358734
0.342956
0.328886
0.316575
0.305938
0.296827
0.289064
0.282469
0.276871
0.272119
0.268082
0.264648
0.261723
0.259228
0.257097
0.255275
0.253715
0.252379
0.251232
0.250247
0.249401
0.248673
0.248048
0.247509
0.247044
0.246644
0.246298
0.246
0.245742
0.245519
0.245326
0.245159
0.245013
0.244887
0.244777
0.244681
0.244597
0.244523
0.244459
0.244402
0.244352
0.244308
0.244268
0.244233
0.244202
0.244174
0.244149
0.244127
0.244107
0.244088
0.244071
0.244056
0.244042
0.24403
0.244018
0.244007
0.243997
0.243988
0.243979
0.243971
0.243964
0.243956
0.24395
0.243943
0.243937
0.243932
0.243926
0.243921
0.243916
0.243911
0.243907
0.243902
0.243898
0.243894
0.24389
0.243886
0.243882
0.243878
0.243874
0.243871
0.243865
0.243876
0.243792
0.281462
0.290472
0.301201
0.313659
0.327625
0.342621
0.357948
0.372766
0.386135
0.397028
0.404377
0.407259
0.405206
0.398453
0.38794
0.375025
0.361081
0.347193
0.334063
0.322066
0.311353
0.301934
0.293746
0.286678
0.280606
0.275403
0.270951
0.267142
0.263883
0.261094
0.258705
0.256657
0.2549
0.253392
0.252097
0.250984
0.250027
0.249203
0.248495
0.247884
0.247359
0.246906
0.246515
0.246178
0.245887
0.245636
0.245419
0.245231
0.245068
0.244927
0.244804
0.244697
0.244604
0.244523
0.244452
0.24439
0.244335
0.244286
0.244244
0.244206
0.244172
0.244143
0.244116
0.244092
0.24407
0.244051
0.244033
0.244017
0.244002
0.243989
0.243977
0.243965
0.243955
0.243945
0.243936
0.243928
0.24392
0.243913
0.243906
0.243899
0.243893
0.243887
0.243881
0.243876
0.243871
0.243866
0.243861
0.243856
0.243852
0.243848
0.243843
0.243839
0.243836
0.243832
0.243828
0.243824
0.243821
0.243815
0.243826
0.243741
0.277443
0.284983
0.293849
0.304032
0.315361
0.327483
0.33988
0.351912
0.362855
0.371917
0.378291
0.381283
0.380506
0.376049
0.368501
0.358783
0.347896
0.336701
0.32582
0.315639
0.306361
0.298062
0.290736
0.28433
0.278763
0.273947
0.26979
0.266208
0.263125
0.260471
0.258188
0.256224
0.254533
0.253077
0.251824
0.250745
0.249816
0.249015
0.248325
0.24773
0.247218
0.246776
0.246395
0.246067
0.245783
0.245538
0.245326
0.245143
0.244985
0.244847
0.244728
0.244625
0.244534
0.244456
0.244387
0.244327
0.244274
0.244227
0.244186
0.24415
0.244118
0.244089
0.244063
0.24404
0.244019
0.244001
0.243984
0.243968
0.243954
0.243941
0.243929
0.243918
0.243908
0.243899
0.24389
0.243882
0.243874
0.243867
0.24386
0.243854
0.243848
0.243842
0.243836
0.243831
0.243826
0.243821
0.243816
0.243812
0.243807
0.243803
0.243799
0.243795
0.243791
0.243787
0.243783
0.24378
0.243776
0.24377
0.243782
0.243696
0.273956
0.280306
0.287688
0.296085
0.30536
0.315249
0.32536
0.335203
0.344218
0.351793
0.357315
0.36025
0.36028
0.357414
0.352016
0.344709
0.336218
0.327215
0.318228
0.309624
0.301624
0.294343
0.287818
0.282035
0.276952
0.272509
0.268641
0.265284
0.262374
0.259857
0.25768
0.255799
0.254174
0.252771
0.25156
0.250515
0.249613
0.248835
0.248164
0.247585
0.247086
0.246655
0.246283
0.245963
0.245686
0.245447
0.245241
0.245062
0.244908
0.244775
0.244659
0.244558
0.244471
0.244394
0.244328
0.24427
0.244219
0.244174
0.244134
0.244099
0.244068
0.24404
0.244016
0.243994
0.243974
0.243956
0.243939
0.243924
0.243911
0.243898
0.243887
0.243876
0.243867
0.243857
0.243849
0.243841
0.243833
0.243826
0.24382
0.243813
0.243807
0.243802
0.243796
0.243791
0.243786
0.243781
0.243776
0.243772
0.243767
0.243763
0.243759
0.243755
0.243751
0.243747
0.243743
0.24374
0.243736
0.24373
0.243742
0.243656
0.270916
0.276294
0.282483
0.289461
0.297119
0.305252
0.31356
0.321667
0.329138
0.3355
0.340281
0.343068
0.343598
0.341838
0.338004
0.33252
0.325906
0.31868
0.311279
0.304031
0.297159
0.290796
0.285006
0.279806
0.275182
0.271098
0.26751
0.264372
0.261634
0.259251
0.257179
0.255382
0.253823
0.252473
0.251305
0.250293
0.249419
0.248664
0.248011
0.247447
0.246961
0.246541
0.246178
0.245866
0.245596
0.245363
0.245162
0.244988
0.244838
0.244708
0.244595
0.244497
0.244412
0.244339
0.244274
0.244218
0.244169
0.244125
0.244087
0.244053
0.244023
0.243997
0.243973
0.243952
0.243932
0.243915
0.243899
0.243885
0.243872
0.24386
0.243849
0.243839
0.243829
0.24382
0.243812
0.243804
0.243797
0.24379
0.243784
0.243777
0.243771
0.243766
0.24376
0.243755
0.24375
0.243745
0.243741
0.243736
0.243732
0.243728
0.243723
0.243719
0.243715
0.243712
0.243708
0.243704
0.243701
0.243695
0.243706
0.24362
0.268254
0.272834
0.278056
0.283896
0.290265
0.297004
0.30388
0.3106
0.316827
0.322195
0.326336
0.328929
0.329756
0.328762
0.326071
0.321966
0.316821
0.311031
0.304949
0.298861
0.292977
0.287435
0.282315
0.277655
0.273461
0.269719
0.266402
0.263476
0.260906
0.258655
0.256688
0.254974
0.253481
0.252184
0.251057
0.25008
0.249233
0.2485
0.247865
0.247317
0.246843
0.246434
0.24608
0.245775
0.245512
0.245285
0.245088
0.244919
0.244773
0.244646
0.244536
0.244442
0.244359
0.244287
0.244225
0.244171
0.244123
0.244081
0.244044
0.244012
0.243983
0.243957
0.243934
0.243914
0.243895
0.243879
0.243863
0.24385
0.243837
0.243825
0.243815
0.243805
0.243796
0.243787
0.243779
0.243771
0.243764
0.243758
0.243751
0.243745
0.243739
0.243734
0.243728
0.243723
0.243718
0.243713
0.243709
0.243704
0.2437
0.243696
0.243692
0.243688
0.243684
0.24368
0.243676
0.243672
0.243669
0.243663
0.243674
0.243588
0.265914
0.269835
0.274267
0.279187
0.284522
0.290144
0.295872
0.301478
0.306698
0.311247
0.31484
0.317221
0.318211
0.317744
0.315888
0.312828
0.308833
0.304198
0.299209
0.294107
0.289082
0.284268
0.279754
0.27559
0.271798
0.268379
0.26532
0.2626
0.260193
0.258071
0.256208
0.254575
0.253147
0.251902
0.250817
0.249874
0.249054
0.248343
0.247727
0.247193
0.246732
0.246333
0.245988
0.245691
0.245434
0.245212
0.245021
0.244855
0.244713
0.244589
0.244483
0.24439
0.24431
0.244241
0.24418
0.244127
0.244081
0.244041
0.244005
0.243974
0.243946
0.243921
0.243899
0.243879
0.243862
0.243845
0.243831
0.243818
0.243805
0.243794
0.243784
0.243774
0.243765
0.243757
0.243749
0.243742
0.243735
0.243728
0.243722
0.243716
0.24371
0.243705
0.243699
0.243694
0.243689
0.243685
0.24368
0.243676
0.243671
0.243667
0.243663
0.243659
0.243655
0.243651
0.243647
0.243644
0.24364
0.243634
0.243646
0.24356
0.263853
0.267227
0.27101
0.27518
0.279677
0.284399
0.289202
0.293908
0.298309
0.302182
0.305303
0.307471
0.308536
0.308429
0.307182
0.304915
0.301818
0.298113
0.294025
0.289756
0.285473
0.281301
0.277331
0.27362
0.2702
0.267084
0.264269
0.261746
0.259497
0.257501
0.255738
0.254186
0.252822
0.251629
0.250585
0.249675
0.248882
0.248193
0.247595
0.247076
0.246627
0.246238
0.245902
0.245611
0.245361
0.245144
0.244957
0.244796
0.244657
0.244537
0.244433
0.244343
0.244265
0.244198
0.244139
0.244088
0.244043
0.244004
0.243969
0.243939
0.243912
0.243888