/*--------------------------------*- C++ -*----------------------------------*\
| =========                 |                                                 |
| \\      /  F ield         | OpenFOAM: The Open Source CFD Toolbox           |
|  \\    /   O peration     | Version:  2.1.1                                 |
|   \\  /    A nd           | Web:      www.OpenFOAM.org                      |
|    \\/     M anipulation  |                                                 |
\*---------------------------------------------------------------------------*/
FoamFile
{
    version     2.0;
    format      ascii;
    class       volScalarField;
    location    "0.005";
    object      nut;
}
// * * * * * * * * * * * * * * * * * * * * * * * * * * * * * * * * * * * * * //

dimensions      [0 2 -1 0 0 0 0];

internalField   nonuniform List<scalar> 
6820
(
4.96022e-05
5.47036e-05
5.94496e-05
6.37683e-05
6.76198e-05
7.09908e-05
7.38975e-05
7.63672e-05
7.84115e-05
8.00224e-05
8.11966e-05
8.19609e-05
8.23685e-05
8.24971e-05
8.2453e-05
8.23391e-05
8.22329e-05
8.21775e-05
8.21851e-05
8.22493e-05
8.23572e-05
8.24971e-05
8.26615e-05
8.2847e-05
8.30529e-05
8.32794e-05
8.3527e-05
8.37952e-05
8.4083e-05
8.43864e-05
8.46897e-05
8.50186e-05
8.50021e-05
0.000540251
0.000305351
0.000220665
0.000172554
0.000141779
0.000121077
0.00010668
9.67015e-05
9.02792e-05
8.68928e-05
8.58859e-05
8.62955e-05
8.7016e-05
8.72669e-05
8.67932e-05
8.58028e-05
8.47449e-05
8.39859e-05
8.36759e-05
8.37768e-05
8.41628e-05
8.47104e-05
8.53442e-05
8.60422e-05
8.68213e-05
8.7723e-05
8.88058e-05
9.01541e-05
9.18785e-05
9.42186e-05
9.73563e-05
0.000102736
0.000109292
0.00105867
0.000835799
0.000678733
0.000569015
0.000489332
0.000429127
0.000382414
0.00034602
0.000318634
0.000299574
0.0002876
0.000280409
0.000275033
0.000269241
0.000263619
0.000259355
0.000256749
0.000255847
0.000256448
0.00025819
0.0002607
0.000263714
0.000267121
0.000270944
0.000275308
0.00028042
0.000286558
0.000294127
0.000303679
0.000316199
0.000332938
0.000357184
0.000391632
0.00115956
0.0010964
0.00101125
0.000925634
0.000848556
0.000781723
0.000724595
0.000676733
0.000638381
0.000609805
0.000590095
0.000576608
0.000565784
0.000555156
0.00054535
0.000537894
0.000533655
0.000532693
0.000534409
0.000537983
0.000542742
0.0005483
0.000554547
0.000561574
0.000569614
0.000579015
0.000590241
0.000603938
0.000620996
0.000642784
0.000671253
0.000709503
0.000762234
0.00116967
0.00115862
0.00113355
0.00109734
0.0010552
0.0010115
0.000969361
0.000931293
0.000899403
0.000875011
0.000857792
0.00084541
0.000834597
0.000823337
0.000812189
0.000802927
0.000797093
0.000795122
0.000796437
0.000800072
0.000805204
0.000811352
0.000818361
0.000826315
0.00083546
0.000846173
0.000858967
0.000874535
0.000893826
0.000918183
0.000949498
0.000990227
0.00104436
0.00117005
0.00116838
0.00116305
0.00115251
0.00113678
0.00111718
0.001096
0.00107599
0.0010595
0.00104771
0.00104001
0.00103404
0.00102688
0.00101712
0.00100567
0.000994926
0.00098708
0.000983068
0.000982579
0.000984726
0.000988656
0.000993808
0.000999938
0.00100706
0.00101536
0.00102518
0.001037
0.00105147
0.00106946
0.00109214
0.00112112
0.00115825
0.00120654
0.00116996
0.00116939
0.00116825
0.00116565
0.00116085
0.00115394
0.00114632
0.00114024
0.00113752
0.00113839
0.00114119
0.0011429
0.00114055
0.00113299
0.00112169
0.00110968
0.0010998
0.00109352
0.00109085
0.00109107
0.00109334
0.00109702
0.00110178
0.00110754
0.00111442
0.00112271
0.00113281
0.00114532
0.00116097
0.00118076
0.00120597
0.00123801
0.00127904
0.00116994
0.00116941
0.00116887
0.001168
0.00116633
0.00116396
0.00116218
0.0011632
0.00116856
0.00117776
0.00118813
0.00119582
0.00119745
0.00119191
0.00118096
0.00116809
0.00115667
0.00114857
0.00114413
0.00114275
0.00114363
0.00114608
0.0011497
0.00115432
0.00116
0.00116696
0.00117557
0.00118631
0.00119983
0.00121692
0.00123858
0.00126588
0.0013003
0.00116994
0.00116939
0.00116891
0.0011683
0.0011673
0.00116611
0.00116619
0.00116987
0.00117873
0.001192
0.00120648
0.00121771
0.00122192
0.00121783
0.00120729
0.001194
0.00118163
0.00117236
0.00116674
0.00116431
0.00116427
0.00116592
0.00116878
0.00117265
0.00117753
0.00118359
0.00119112
0.00120055
0.00121239
0.00122729
0.001246
0.00126931
0.00129822
0.00116994
0.00116939
0.0011689
0.00116832
0.00116742
0.00116646
0.00116696
0.00117137
0.00118138
0.00119621
0.00121248
0.00122547
0.00123111
0.00122796
0.00121778
0.00120436
0.00119149
0.00118155
0.00117524
0.00117217
0.00117158
0.00117275
0.00117517
0.00117859
0.00118296
0.00118841
0.00119518
0.00120362
0.00121416
0.00122728
0.00124355
0.00126356
0.00128795
0.00116994
0.00116939
0.00116889
0.00116832
0.00116743
0.00116649
0.00116704
0.00117155
0.00118179
0.00119708
0.00121402
0.00122781
0.00123424
0.0012317
0.00122184
0.00120841
0.00119529
0.00118497
0.00117823
0.00117477
0.00117385
0.00117472
0.00117687
0.00117999
0.00118401
0.00118901
0.00119519
0.00120284
0.00121228
0.0012239
0.00123813
0.00125536
0.00127603
0.00116994
0.00116939
0.00116889
0.00116832
0.00116743
0.00116649
0.00116701
0.00117146
0.00118167
0.00119702
0.0012142
0.0012284
0.00123532
0.00123321
0.00122361
0.00121023
0.00119697
0.00118639
0.00117937
0.00117564
0.00117448
0.00117515
0.00117709
0.00117998
0.00118372
0.00118835
0.00119403
0.00120098
0.00120947
0.00121979
0.00123224
0.00124713
0.00126473
0.00116994
0.00116939
0.00116889
0.00116832
0.00116743
0.00116649
0.00116697
0.00117134
0.00118145
0.00119676
0.00121404
0.0012285
0.00123577
0.00123401
0.00122464
0.00121131
0.00119795
0.00118718
0.00117993
0.00117598
0.00117464
0.00117514
0.00117692
0.00117962
0.0011831
0.0011874
0.00119261
0.00119893
0.00120657
0.00121573
0.00122666
0.00123955
0.00125459
0.00116994
0.00116939
0.00116889
0.00116832
0.00116744
0.00116649
0.00116693
0.00117123
0.00118124
0.00119649
0.00121383
0.00122848
0.00123605
0.00123458
0.0012254
0.00121212
0.00119868
0.00118774
0.0011803
0.00117617
0.00117466
0.00117502
0.00117664
0.00117917
0.00118242
0.0011864
0.00119119
0.00119694
0.0012038
0.00121194
0.00122154
0.00123274
0.00124563
0.00116994
0.00116939
0.00116889
0.00116832
0.00116744
0.00116649
0.00116691
0.00117113
0.00118104
0.00119624
0.00121361
0.00122843
0.00123626
0.00123504
0.00122602
0.00121278
0.00119926
0.00118817
0.00118056
0.00117627
0.00117462
0.00117484
0.00117633
0.00117869
0.00118173
0.00118541
0.00118981
0.00119503
0.0012012
0.00120844
0.00121688
0.00122663
0.00123772
0.00116994
0.00116939
0.00116889
0.00116832
0.00116745
0.0011665
0.00116688
0.00117104
0.00118087
0.001196
0.00121341
0.00122837
0.00123642
0.00123542
0.00122653
0.00121331
0.00119972
0.0011885
0.00118073
0.0011763
0.00117452
0.00117463
0.00117599
0.0011782
0.00118103
0.00118445
0.00118848
0.00119322
0.00119876
0.00120521
0.00121265
0.00122114
0.00123073
0.00116994
0.00116939
0.00116889
0.00116833
0.00116746
0.0011665
0.00116686
0.00117096
0.00118071
0.00119579
0.00121322
0.00122831
0.00123654
0.00123572
0.00122695
0.00121374
0.00120007
0.00118872
0.00118082
0.00117626
0.00117437
0.00117437
0.00117562
0.00117768
0.00118033
0.00118349
0.00118719
0.0011915
0.00119648
0.00120223
0.00120879
0.00121622
0.00122452
0.00116994
0.00116939
0.00116889
0.00116833
0.00116746
0.00116651
0.00116685
0.00117089
0.00118056
0.00119559
0.00121305
0.00122824
0.00123663
0.00123596
0.00122728
0.00121407
0.00120032
0.00118886
0.00118083
0.00117615
0.00117417
0.00117408
0.00117522
0.00117715
0.00117962
0.00118255
0.00118595
0.00118986
0.00119435
0.00119947
0.00120527
0.00121179
0.001219
0.00116994
0.00116939
0.00116889
0.00116833
0.00116747
0.00116651
0.00116683
0.00117083
0.00118043
0.00119541
0.00121288
0.00122816
0.00123669
0.00123615
0.00122753
0.00121431
0.00120049
0.00118891
0.00118077
0.00117599
0.00117392
0.00117374
0.00117479
0.0011766
0.00117891
0.00118162
0.00118474
0.0011883
0.00119234
0.00119692
0.00120207
0.00120779
0.00121408
0.00116994
0.00116939
0.0011689
0.00116833
0.00116747
0.00116652
0.00116682
0.00117077
0.00118031
0.00119525
0.00121272
0.00122808
0.00123673
0.00123629
0.00122772
0.00121447
0.00120058
0.0011889
0.00118066
0.00117578
0.00117363
0.00117337
0.00117434
0.00117603
0.00117819
0.00118071
0.00118358
0.00118682
0.00119047
0.00119457
0.00119914
0.00120419
0.0012097
0.00116994
0.00116939
0.0011689
0.00116833
0.00116748
0.00116652
0.00116681
0.00117072
0.00118021
0.0011951
0.00121258
0.001228
0.00123675
0.00123639
0.00122785
0.00121458
0.00120061
0.00118884
0.0011805
0.00117554
0.00117331
0.00117299
0.00117387
0.00117546
0.00117749
0.00117983
0.00118247
0.00118542
0.00118873
0.0011924
0.00119647
0.00120094
0.00120577
0.00116994
0.00116939
0.0011689
0.00116834
0.00116748
0.00116653
0.0011668
0.00117068
0.00118011
0.00119496
0.00121244
0.00122792
0.00123675
0.00123646
0.00122794
0.00121464
0.0012006
0.00118874
0.0011803
0.00117527
0.00117297
0.00117259
0.0011734
0.00117489
0.00117679
0.00117897
0.00118141
0.00118411
0.0011871
0.00119041
0.00119404
0.00119801
0.00120227
0.00116994
0.00116939
0.0011689
0.00116834
0.00116749
0.00116653
0.0011668
0.00117064
0.00118002
0.00119483
0.00121231
0.00122784
0.00123674
0.00123652
0.00122801
0.00121467
0.00120056
0.00118861
0.0011801
0.00117499
0.00117264
0.00117219
0.00117293
0.00117434
0.00117612
0.00117816
0.00118041
0.00118288
0.0011856
0.00118858
0.00119184
0.00119536
0.00119913
0.00116994
0.00116939
0.0011689
0.00116834
0.00116749
0.00116654
0.00116679
0.0011706
0.00117994
0.00119471
0.00121219
0.00122776
0.00123673
0.00123655
0.00122806
0.00121468
0.0012005
0.00118848
0.00117989
0.00117472
0.0011723
0.0011718
0.00117248
0.00117381
0.00117549
0.00117738
0.00117946
0.00118173
0.00118421
0.00118691
0.00118984
0.00119299
0.00119634
0.00116994
0.00116939
0.0011689
0.00116834
0.00116749
0.00116654
0.00116678
0.00117056
0.00117986
0.00119459
0.00121207
0.00122769
0.00123671
0.00123658
0.00122809
0.00121468
0.00120044
0.00118834
0.00117968
0.00117445
0.00117198
0.00117143
0.00117205
0.0011733
0.00117488
0.00117666
0.00117859
0.00118068
0.00118294
0.00118539
0.00118802
0.00119085
0.00119384
0.00116994
0.00116939
0.0011689
0.00116834
0.00116749
0.00116654
0.00116678
0.00117053
0.00117978
0.00119448
0.00121196
0.00122761
0.00123669
0.0012366
0.00122812
0.00121468
0.00120039
0.00118822
0.0011795
0.00117421
0.00117169
0.00117109
0.00117165
0.00117283
0.00117432
0.00117599
0.00117778
0.00117971
0.00118178
0.00118401
0.00118639
0.00118894
0.00119161
0.00116994
0.00116939
0.0011689
0.00116834
0.0011675
0.00116655
0.00116677
0.0011705
0.00117971
0.00119438
0.00121185
0.00122753
0.00123667
0.00123663
0.00122816
0.0012147
0.00120035
0.00118812
0.00117933
0.00117399
0.00117143
0.00117078
0.00117128
0.0011724
0.00117381
0.00117537
0.00117704
0.00117882
0.00118073
0.00118276
0.00118493
0.00118723
0.00118964
0.00116994
0.00116939
0.0011689
0.00116834
0.0011675
0.00116655
0.00116677
0.00117047
0.00117964
0.00119427
0.00121174
0.00122745
0.00123665
0.00123665
0.0012282
0.00121472
0.00120033
0.00118805
0.0011792
0.00117381
0.0011712
0.0011705
0.00117096
0.00117201
0.00117335
0.00117482
0.00117638
0.00117803
0.00117978
0.00118164
0.00118362
0.00118571
0.00118789
0.00116994
0.00116939
0.0011689
0.00116834
0.0011675
0.00116655
0.00116676
0.00117043
0.00117957
0.00119417
0.00121163
0.00122737
0.00123662
0.00123668
0.00122825
0.00121476
0.00120033
0.001188
0.0011791
0.00117366
0.001171
0.00117027
0.00117067
0.00117167
0.00117294
0.00117432
0.00117578
0.00117731
0.00117893
0.00118065
0.00118246
0.00118436
0.00118634
0.00116994
0.00116939
0.0011689
0.00116834
0.0011675
0.00116655
0.00116675
0.0011704
0.0011795
0.00119406
0.00121151
0.00122729
0.0012366
0.00123671
0.00122831
0.00121482
0.00120036
0.00118799
0.00117904
0.00117355
0.00117085
0.00117007
0.00117043
0.00117138
0.00117258
0.00117388
0.00117525
0.00117668
0.00117819
0.00117977
0.00118143
0.00118318
0.00118498
0.00116994
0.00116939
0.0011689
0.00116834
0.0011675
0.00116655
0.00116675
0.00117037
0.00117943
0.00119396
0.0012114
0.00122721
0.00123657
0.00123674
0.00122838
0.0012149
0.00120042
0.001188
0.00117901
0.00117347
0.00117073
0.00116991
0.00117023
0.00117113
0.00117227
0.00117351
0.0011748
0.00117614
0.00117753
0.001179
0.00118054
0.00118214
0.00118379
0.00116994
0.00116939
0.00116889
0.00116834
0.0011675
0.00116655
0.00116674
0.00117034
0.00117936
0.00119385
0.00121129
0.00122713
0.00123655
0.00123678
0.00122847
0.00121499
0.0012005
0.00118804
0.00117901
0.00117343
0.00117065
0.0011698
0.00117008
0.00117092
0.00117201
0.00117319
0.0011744
0.00117566
0.00117697
0.00117833
0.00117975
0.00118124
0.00118276
0.00116994
0.00116939
0.0011689
0.00116834
0.00116751
0.00116657
0.00116675
0.00117033
0.00117931
0.00119377
0.00121119
0.00122706
0.00123653
0.00123683
0.00122856
0.0012151
0.00120059
0.00118811
0.00117903
0.00117342
0.00117061
0.00116972
0.00116996
0.00117077
0.00117181
0.00117293
0.00117408
0.00117526
0.00117649
0.00117776
0.00117908
0.00118046
0.00118187
0.00116994
0.00116939
0.00116889
0.00116834
0.00116752
0.00116658
0.00116676
0.00117032
0.00117926
0.00119368
0.00121109
0.00122698
0.00123651
0.00123687
0.00122865
0.00121522
0.00120071
0.00118821
0.00117911
0.00117347
0.00117063
0.00116972
0.00116995
0.00117072
0.00117173
0.00117281
0.00117391
0.00117503
0.00117619
0.0011774
0.00117865
0.00117994
0.00118127
0.00116994
0.00116941
0.00116893
0.00116839
0.00116757
0.00116663
0.00116679
0.00117031
0.00117916
0.00119348
0.00121079
0.00122662
0.00123616
0.00123658
0.00122845
0.00121511
0.00120069
0.00118826
0.00117921
0.00117362
0.00117083
0.00116997
0.00117024
0.00117106
0.00117211
0.00117324
0.00117438
0.00117556
0.00117677
0.00117802
0.00117932
0.00118066
0.00118204
0.00116994
0.0011694
0.00116891
0.00116832
0.00116741
0.0011663
0.0011662
0.00116931
0.00117759
0.00119123
0.0012079
0.00122326
0.00123259
0.00123307
0.00122522
0.00121229
0.00119833
0.00118635
0.00117772
0.0011725
0.00117005
0.00116953
0.00117015
0.00117136
0.00117281
0.00117436
0.00117597
0.00117762
0.00117932
0.00118108
0.0011829
0.00118478
0.00118669
0.00116996
0.0011692
0.00116802
0.00116625
0.00116368
0.00116047
0.00115773
0.00115756
0.00116194
0.00117137
0.00118415
0.00119652
0.00120411
0.00120413
0.00119688
0.00118528
0.00117298
0.0011627
0.00115564
0.00115181
0.0011506
0.00115123
0.00115299
0.00115535
0.00115801
0.00116082
0.0011637
0.00116666
0.00116967
0.00117274
0.00117585
0.00117899
0.00118215
0.00116827
0.00115891
0.00114595
0.00113007
0.00111186
0.00109211
0.00107214
0.00105396
0.0010398
0.00103129
0.00102834
0.0010286
0.00102835
0.00102464
0.0010169
0.00100682
0.000996888
0.000988973
0.00098379
0.00098118
0.000980568
0.000981293
0.000982786
0.000984646
0.000986635
0.00098864
0.000990614
0.000992545
0.00099443
0.000996268
0.000998057
0.000999789
0.00100151
0.00107569
0.000935806
0.000834813
0.00075404
0.000686948
0.000630574
0.000582632
0.000542173
0.00050994
0.000487238
0.000474012
0.000467926
0.000465212
0.000462402
0.000457629
0.000450852
0.0004432
0.000436012
0.000430166
0.000425875
0.00042286
0.000420653
0.000418842
0.000417168
0.00041552
0.000413877
0.00041226
0.000410695
0.000409203
0.000407797
0.000406486
0.000405267
0.00040419
0.000142979
0.000146644
0.000150177
0.000153556
0.000156777
0.000159837
0.000162747
0.000165547
0.000168278
0.000170925
0.000173365
0.000175395
0.00017682
0.000177558
0.000177677
0.000177366
0.000176853
0.000176321
0.000175871
0.000175527
0.000175265
0.000175045
0.000174838
0.000174627
0.000174406
0.000174174
0.000173933
0.000173685
0.000173432
0.000173173
0.00017291
0.000172643
0.000172367
9.02671e-05
0.000102033
9.64889e-05
0.000151586
0.00113531
0.00211644
0.00274845
0.00326288
0.00356533
0.00366838
0.00360564
0.00340733
0.00311523
0.00279442
0.00252155
0.00233633
0.00218588
0.0019837
0.00175617
0.00158095
0.00147307
0.00140785
0.00136247
0.00132654
0.00129709
0.00127315
0.00125375
0.00123798
0.00122508
0.00121448
0.00120576
0.00119858
0.00119266
0.0011878
0.0011838
0.00118053
0.00117785
0.00117566
0.00117389
0.00117246
0.0011713
0.00117038
0.00116965
0.00116908
0.00116864
0.0011683
0.00116805
0.00116787
0.00116774
0.00116766
0.00116761
0.00116759
0.00116759
0.00116761
0.00116764
0.00116768
0.00116772
0.00116777
0.00116781
0.00116786
0.00116791
0.00116796
0.001168
0.00116804
0.00116809
0.00116812
0.00116816
0.00116819
0.00116822
0.00116825
0.00116827
0.0011683
0.00116832
0.00116833
0.00116835
0.00116837
0.00116838
0.00116839
0.0011684
0.00116841
0.00116842
0.00116843
0.00116843
0.00116844
0.00116844
0.00116845
0.00116845
0.00116846
0.00116846
0.00116846
0.00116846
0.00116847
0.00116847
0.00116847
0.00116847
0.00116847
0.00116847
0.00116847
0.00116847
0.00116845
0.000138288
0.000226597
0.000536596
0.00102331
0.00155373
0.00218397
0.00275366
0.00318055
0.00343687
0.00352726
0.00347054
0.00329031
0.0030226
0.00272379
0.00245865
0.00225976
0.00209142
0.00190145
0.00171013
0.00156356
0.00146826
0.00140643
0.00136184
0.00132662
0.00129798
0.00127469
0.00125575
0.00124025
0.00122748
0.00121693
0.00120819
0.00120094
0.00119492
0.00118992
0.00118578
0.00118236
0.00117952
0.00117719
0.00117527
0.0011737
0.00117241
0.00117137
0.00117052
0.00116985
0.00116931
0.00116888
0.00116854
0.00116828
0.00116809
0.00116794
0.00116783
0.00116776
0.00116771
0.00116769
0.00116767
0.00116767
0.00116768
0.0011677
0.00116772
0.00116775
0.00116777
0.0011678
0.00116783
0.00116785
0.00116788
0.0011679
0.00116793
0.00116795
0.00116797
0.00116799
0.001168
0.00116802
0.00116803
0.00116805
0.00116806
0.00116807
0.00116808
0.00116809
0.00116809
0.0011681
0.00116811
0.00116811
0.00116812
0.00116812
0.00116812
0.00116813
0.00116813
0.00116813
0.00116813
0.00116814
0.00116814
0.00116814
0.00116814
0.00116814
0.00116814
0.00116814
0.00116814
0.00116814
0.00116814
0.00116812
0.000462012
0.000594785
0.000834666
0.00124198
0.00176017
0.00228626
0.0027417
0.00308367
0.00329382
0.00336999
0.00332056
0.00316114
0.00292056
0.002646
0.00239139
0.0021852
0.00200837
0.00183279
0.00167102
0.00154707
0.0014621
0.00140355
0.00136011
0.00132581
0.00129807
0.00127551
0.0012571
0.00124196
0.00122944
0.00121903
0.00121035
0.00120311
0.00119705
0.00119198
0.00118774
0.00118419
0.00118123
0.00117876
0.00117671
0.00117501
0.00117359
0.00117243
0.00117147
0.00117068
0.00117003
0.00116951
0.00116908
0.00116874
0.00116847
0.00116825
0.00116808
0.00116795
0.00116784
0.00116777
0.00116771
0.00116767
0.00116764
0.00116762
0.00116761
0.00116761
0.00116761
0.00116761
0.00116762
0.00116763
0.00116763
0.00116764
0.00116765
0.00116766
0.00116767
0.00116768
0.00116769
0.0011677
0.0011677
0.00116771
0.00116772
0.00116772
0.00116773
0.00116773
0.00116773
0.00116774
0.00116774
0.00116774
0.00116774
0.00116775
0.00116775
0.00116775
0.00116775
0.00116775
0.00116775
0.00116775
0.00116775
0.00116775
0.00116775
0.00116775
0.00116775
0.00116775
0.00116775
0.00116776
0.00116775
0.00116773
0.000848783
0.000992411
0.00121583
0.00153606
0.00192375
0.00232276
0.00267771
0.00295159
0.00312545
0.00319227
0.00315319
0.00301701
0.00280556
0.00255733
0.0023171
0.00211136
0.00193476
0.00177452
0.00163648
0.00153037
0.00145414
0.00139894
0.00135702
0.00132384
0.00129707
0.0012753
0.00125749
0.00124279
0.00123059
0.00122042
0.0012119
0.00120474
0.00119873
0.00119366
0.00118938
0.00118578
0.00118275
0.0011802
0.00117805
0.00117624
0.00117473
0.00117346
0.00117239
0.00117151
0.00117077
0.00117015
0.00116964
0.00116922
0.00116887
0.00116858
0.00116835
0.00116815
0.001168
0.00116787
0.00116777
0.00116768
0.00116761
0.00116756
0.00116752
0.00116748
0.00116746
0.00116744
0.00116742
0.00116741
0.0011674
0.00116739
0.00116738
0.00116738
0.00116738
0.00116737
0.00116737
0.00116737
0.00116737
0.00116737
0.00116737
0.00116737
0.00116737
0.00116737
0.00116737
0.00116737
0.00116737
0.00116737
0.00116737
0.00116737
0.00116737
0.00116737
0.00116737
0.00116737
0.00116737
0.00116736
0.00116736
0.00116736
0.00116736
0.00116736
0.00116736
0.00116736
0.00116736
0.00116736
0.00116736
0.00116734
0.00112727
0.00125643
0.00144118
0.00168922
0.00198211
0.00228535
0.00256199
0.00278327
0.00293066
0.00299354
0.00296768
0.00285633
0.00267523
0.00245529
0.00223395
0.00203684
0.00186824
0.00172401
0.00160519
0.00151324
0.00144451
0.00139276
0.00135265
0.00132076
0.00129502
0.00127407
0.00125687
0.00124266
0.00123084
0.00122095
0.00121265
0.00120566
0.00119975
0.00119475
0.00119052
0.00118693
0.00118388
0.00118129
0.0011791
0.00117724
0.00117566
0.00117432
0.00117319
0.00117223
0.00117142
0.00117074
0.00117016
0.00116967
0.00116926
0.00116891
0.00116862
0.00116838
0.00116817
0.001168
0.00116785
0.00116773
0.00116763
0.00116754
0.00116746
0.0011674
0.00116735
0.00116731
0.00116727
0.00116724
0.00116721
0.00116719
0.00116717
0.00116715
0.00116714
0.00116712
0.00116711
0.0011671
0.00116709
0.00116709
0.00116708
0.00116708
0.00116707
0.00116707
0.00116706
0.00116706
0.00116705
0.00116705
0.00116705
0.00116705
0.00116704
0.00116704
0.00116704
0.00116704
0.00116704
0.00116703
0.00116703
0.00116703
0.00116703
0.00116703
0.00116703
0.00116703
0.00116702
0.00116703
0.00116702
0.001167
0.00127867
0.00138755
0.00153653
0.00172963
0.0019544
0.00218814
0.00240622
0.00258746
0.00271537
0.00277756
0.00276612
0.00267994
0.00252968
0.00233994
0.0021423
0.00196146
0.0018071
0.00167927
0.00157631
0.00149576
0.0014336
0.00138534
0.00134728
0.0013168
0.00129213
0.001272
0.00125543
0.00124171
0.00123028
0.0012207
0.00121265
0.00120585
0.00120009
0.00119521
0.00119105
0.00118752
0.00118451
0.00118194
0.00117974
0.00117787
0.00117627
0.00117491
0.00117374
0.00117274
0.00117189
0.00117117
0.00117055
0.00117002
0.00116957
0.00116918
0.00116885
0.00116857
0.00116832
0.00116812
0.00116794
0.00116779
0.00116766
0.00116754
0.00116745
0.00116736
0.00116729
0.00116723
0.00116718
0.00116713
0.00116709
0.00116705
0.00116702
0.00116699
0.00116697
0.00116695
0.00116693
0.00116691
0.0011669
0.00116689
0.00116687
0.00116686
0.00116685
0.00116685
0.00116684
0.00116683
0.00116683
0.00116682
0.00116682
0.00116681
0.00116681
0.0011668
0.0011668
0.0011668
0.0011668
0.00116679
0.00116679
0.00116679
0.00116679
0.00116678
0.00116678
0.00116678
0.00116678
0.00116678
0.00116677
0.00116675
0.00133962
0.00142953
0.00154886
0.00169986
0.00187418
0.00205642
0.00222979
0.00237915
0.00249094
0.00255278
0.00255468
0.00249248
0.00237273
0.00221473
0.002045
0.00188632
0.00175028
0.00163873
0.00154921
0.00147811
0.0014218
0.00137703
0.00134117
0.00131222
0.00128866
0.00126935
0.00125341
0.00124018
0.00122913
0.00121986
0.00121205
0.00120545
0.00119986
0.0011951
0.00119106
0.0011876
0.00118465
0.00118213
0.00117996
0.00117811
0.00117652
0.00117516
0.00117399
0.00117299
0.00117213
0.00117138
0.00117075
0.0011702
0.00116973
0.00116932
0.00116897
0.00116867
0.0011684
0.00116818
0.00116798
0.00116781
0.00116766
0.00116754
0.00116743
0.00116733
0.00116724
0.00116717
0.0011671
0.00116705
0.001167
0.00116695
0.00116691
0.00116688
0.00116685
0.00116682
0.0011668
0.00116678
0.00116676
0.00116674
0.00116673
0.00116671
0.0011667
0.00116669
0.00116668
0.00116667
0.00116667
0.00116666
0.00116665
0.00116665
0.00116664
0.00116664
0.00116663
0.00116663
0.00116663
0.00116662
0.00116662
0.00116662
0.00116662
0.00116661
0.00116661
0.00116661
0.00116661
0.00116661
0.0011666
0.00116658
0.00135058
0.00142415
0.00151951
0.00163784
0.0017735
0.00191593
0.00205362
0.0021759
0.00227231
0.00233179
0.00234397
0.00230296
0.00221215
0.00208621
0.00194668
0.00181326
0.00169722
0.00160127
0.00152339
0.0014604
0.00140942
0.0013681
0.00133455
0.0013072
0.0012848
0.00126633
0.00125103
0.00123828
0.00122761
0.00121864
0.00121107
0.00120467
0.00119923
0.00119461
0.00119067
0.0011873
0.00118442
0.00118196
0.00117984
0.00117803
0.00117647
0.00117513
0.00117397
0.00117298
0.00117212
0.00117138
0.00117075
0.0011702
0.00116972
0.00116931
0.00116895
0.00116864
0.00116837
0.00116814
0.00116794
0.00116776
0.00116761
0.00116747
0.00116736
0.00116725
0.00116716
0.00116708
0.00116701
0.00116695
0.0011669
0.00116685
0.00116681
0.00116677
0.00116673
0.0011667
0.00116668
0.00116665
0.00116663
0.00116662
0.0011666
0.00116658
0.00116657
0.00116656
0.00116655
0.00116654
0.00116653
0.00116652
0.00116652
0.00116651
0.0011665
0.0011665
0.00116649
0.00116649
0.00116649
0.00116648
0.00116648
0.00116648
0.00116647
0.00116647
0.00116647
0.00116647
0.00116646
0.00116646
0.00116646
0.00116644
0.00133986
0.00139987
0.00147602
0.00156885
0.00167452
0.00178576
0.00189451
0.00199328
0.00207432
0.00212869
0.00214705
0.00212311
0.00205801
0.00196222
0.00185229
0.00174413
0.00164768
0.00156612
0.00149853
0.00144273
0.0013967
0.00135878
0.00132759
0.0013019
0.00128068
0.00126309
0.00124844
0.00123618
0.00122589
0.00121722
0.00120989
0.00120367
0.00119839
0.00119389
0.00119006
0.00118678
0.00118397
0.00118156
0.0011795
0.00117772
0.0011762
0.00117489
0.00117376
0.00117278
0.00117194
0.00117122
0.00117059
0.00117005
0.00116958
0.00116917
0.00116882
0.00116851
0.00116825
0.00116801
0.00116781
0.00116763
0.00116748
0.00116734
0.00116723
0.00116712
0.00116703
0.00116695
0.00116688
0.00116682
0.00116676
0.00116671
0.00116667
0.00116663
0.0011666
0.00116657
0.00116654
0.00116651
0.00116649
0.00116647
0.00116646
0.00116644
0.00116643
0.00116642
0.0011664
0.0011664
0.00116639
0.00116638
0.00116637
0.00116636
0.00116636
0.00116635
0.00116635
0.00116634
0.00116634
0.00116634
0.00116633
0.00116633
0.00116633
0.00116633
0.00116632
0.00116632
0.00116632
0.00116632
0.00116631
0.00116629
0.00132251
0.00137151
0.00143251
0.00150565
0.00158829
0.00167538
0.00176118
0.00184021
0.00190682
0.00195425
0.00197499
0.0019634
0.00191921
0.00184932
0.00176563
0.00168028
0.00160156
0.0015329
0.00147448
0.00142521
0.00138383
0.00134923
0.00132039
0.0012964
0.00127641
0.00125972
0.00124573
0.00123398
0.00122408
0.0012157
0.00120861
0.00120258
0.00119745
0.00119308
0.00118934
0.00118614
0.0011834
0.00118106
0.00117904
0.00117731
0.00117582
0.00117454
0.00117343
0.00117248
0.00117166
0.00117095
0.00117034
0.00116981
0.00116935
0.00116895
0.00116861
0.00116831
0.00116805
0.00116782
0.00116762
0.00116745
0.0011673
0.00116717
0.00116705
0.00116695
0.00116686
0.00116678
0.00116671
0.00116665
0.0011666
0.00116655
0.00116651
0.00116647
0.00116644
0.00116641
0.00116638
0.00116635
0.00116633
0.00116631
0.0011663
0.00116628
0.00116627
0.00116626
0.00116625
0.00116624
0.00116623
0.00116622
0.00116621
0.00116621
0.0011662
0.0011662
0.00116619
0.00116619
0.00116618
0.00116618
0.00116618
0.00116617
0.00116617
0.00116617
0.00116617
0.00116616
0.00116616
0.00116616
0.00116615
0.00116613
0.00130484
0.00134503
0.0013942
0.00145231
0.00151748
0.00158622
0.00165431
0.00171762
0.00177189
0.00181211
0.0018327
0.00182912
0.00180047
0.00175093
0.0016886
0.00162233
0.0015588
0.00150145
0.00145124
0.00140795
0.00137095
0.00133956
0.00131306
0.00129077
0.00127202
0.00125625
0.00124295
0.00123172
0.00122222
0.00121415
0.0012073
0.00120146
0.00119648
0.00119223
0.00118859
0.00118547
0.0011828
0.00118051
0.00117854
0.00117685
0.0011754
0.00117415
0.00117307
0.00117214
0.00117134
0.00117065
0.00117005
0.00116954
0.00116909
0.0011687
0.00116837
0.00116808
0.00116782
0.0011676
0.00116741
0.00116724
0.0011671
0.00116697
0.00116686
0.00116676
0.00116667
0.0011666
0.00116653
0.00116647
0.00116642
0.00116637
0.00116633
0.0011663
0.00116626
0.00116624
0.00116621
0.00116619
0.00116617
0.00116615
0.00116613
0.00116612
0.0011661
0.00116609
0.00116608
0.00116607
0.00116606
0.00116606
0.00116605
0.00116604
0.00116604
0.00116603
0.00116603
0.00116602
0.00116602
0.00116602
0.00116601
0.00116601
0.00116601
0.001166
0.001166
0.001166
0.001166
0.001166
0.00116599
0.00116597
0.00128887
0.00132203
0.00136199
0.00140862
0.00146059
0.00151542
0.00157001
0.00162115
0.00166551
0.00169936
0.00171859
0.00171979
0.00170191
0.00166733
0.00162137
0.00157032
0.00151938
0.00147177
0.0014289
0.00139109
0.0013582
0.00132987
0.00130566
0.00128505
0.00126756
0.00125273
0.00124013
0.00122944
0.00122034
0.00121259
0.00120598
0.00120034
0.00119551
0.00119138
0.00118784
0.00118481
0.00118221
0.00117997
0.00117805
0.0011764
0.00117498
0.00117376
0.0011727
0.0011718
0.00117102
0.00117034
0.00116976
0.00116926
0.00116882
0.00116845
0.00116812
0.00116784
0.0011676
0.00116738
0.0011672
0.00116704
0.0011669
0.00116677
0.00116667
0.00116657
0.00116649
0.00116642
0.00116635
0.0011663
0.00116625
0.0011662
0.00116616
0.00116613
0.0011661
0.00116607
0.00116604
0.00116602
0.001166
0.00116599
0.00116597
0.00116596
0.00116594
0.00116593
0.00116592
0.00116591
0.00116591
0.0011659
0.00116589
0.00116589
0.00116588
0.00116587
0.00116587
0.00116587
0.00116586
0.00116586
0.00116586
0.00116585
0.00116585
0.00116585
0.00116584
0.00116584
0.00116584
0.00116584
0.00116583
0.00116581
0.00127492
0.00130247
0.00133523
0.00137303
0.00141492
0.00145912
0.00150332
0.00154503
0.0015816
0.00161015
0.00162765
0.00163156
0.00162088
0.00159694
0.00156315
0.00152393
0.00148326
0.00144395
0.00140755
0.00137474
0.00134568
0.00132027
0.00129826
0.00127931
0.00126306
0.00124917
0.00123729
0.00122713
0.00121845
0.00121103
0.00120467
0.00119922
0.00119456
0.00119055
0.00118711
0.00118416
0.00118163
0.00117945
0.00117757
0.00117596
0.00117457
0.00117338
0.00117235
0.00117147
0.00117071
0.00117005
0.00116948
0.00116899
0.00116857
0.00116821
0.00116789
0.00116762
0.00116738
0.00116717
0.001167
0.00116684
0.00116671
0.00116659
0.00116648
0.00116639
0.00116631
0.00116624
0.00116618
0.00116613
0.00116608
0.00116604
0.001166
0.00116597
0.00116594
0.00116591
0.00116589
0.00116587
0.00116585
0.00116584
0.00116582
0.00116581
0.0011658
0.00116579
0.00116578
0.00116577
0.00116576
0.00116575
0.00116575
0.00116574
0.00116573
0.00116573
0.00116572
0.00116572
0.00116572
0.00116571
0.00116571
0.00116571
0.0011657
0.0011657
0.0011657
0.0011657
0.00116569
0.00116569
0.00116569
0.00116566
0.00126284
0.00128588
0.00131294
0.00134388
0.00137797
0.00141393
0.00145002
0.00148431
0.00151468
0.00153888
0.00155462
0.00155998
0.00155408
0.00153762
0.00151282
0.00148272
0.00145035
0.00141805
0.00138733
0.00135903
0.00133349
0.00131082
0.00129091
0.00127357
0.00125855
0.00124559
0.00123443
0.00122482
0.00121657
0.00120947
0.00120337
0.00119813
0.00119362
0.00118974