/*--------------------------------*- C++ -*----------------------------------*\
| =========                 |                                                 |
| \\      /  F ield         | OpenFOAM: The Open Source CFD Toolbox           |
|  \\    /   O peration     | Version:  2.1.1                                 |
|   \\  /    A nd           | Web:      www.OpenFOAM.org                      |
|    \\/     M anipulation  |                                                 |
\*---------------------------------------------------------------------------*/
FoamFile
{
    version     2.0;
    format      ascii;
    class       volScalarField;
    location    "0.005";
    object      p;
}
// * * * * * * * * * * * * * * * * * * * * * * * * * * * * * * * * * * * * * //

dimensions      [0 2 -2 0 0 0 0];

internalField   nonuniform List<scalar> 
6820
(
-6.93977
-8.79233
-9.38357
-9.53802
-9.67801
-9.79998
-9.90646
-10.0134
-10.1225
-10.2305
-10.3374
-10.4455
-10.5612
-10.6909
-10.8364
-10.9967
-11.1728
-11.3667
-11.5808
-11.8181
-12.0824
-12.3781
-12.7108
-13.0871
-13.5158
-14.0084
-14.5799
-15.253
-16.0573
-17.0474
-18.2952
-19.9826
-22.3664
-10.89
-10.3608
-9.9571
-9.79045
-9.79616
-9.84654
-9.91416
-9.99706
-10.0909
-10.1922
-10.3009
-10.4185
-10.5464
-10.6842
-10.8323
-10.9934
-11.1695
-11.3627
-11.5758
-11.812
-12.0749
-12.3691
-12.6996
-13.0733
-13.4983
-13.9858
-14.5498
-15.2115
-15.9962
-16.9547
-18.1228
-19.6742
-21.4728
-9.24644
-8.94821
-9.25043
-9.51528
-9.65764
-9.77376
-9.88075
-9.98583
-10.0926
-10.2012
-10.3117
-10.4262
-10.5476
-10.6798
-10.8252
-10.9851
-11.1605
-11.3531
-11.5655
-11.8006
-12.0618
-12.3535
-12.6807
-13.0497
-13.4682
-13.9464
-14.4969
-15.1378
-15.8898
-16.7897
-17.8608
-19.1949
-20.6907
-9.75069
-9.79189
-9.81116
-9.77386
-9.79383
-9.85221
-9.92441
-10.0063
-10.0968
-10.1937
-10.297
-10.4086
-10.5309
-10.6654
-10.8128
-10.9737
-11.1494
-11.342
-11.5536
-11.7872
-12.0462
-12.3347
-12.6574
-13.0201
-13.4299
-13.8957
-14.4282
-15.042
-15.7524
-16.5848
-17.5478
-18.6919
-19.9167
-9.59048
-9.49125
-9.54937
-9.64451
-9.72939
-9.81497
-9.90177
-9.99203
-10.0872
-10.187
-10.2919
-10.4037
-10.5246
-10.6567
-10.8013
-10.9598
-11.1334
-11.3238
-11.5328
-11.763
-12.0177
-12.3005
-12.6157
-12.9685
-13.3648
-13.8122
-14.319
-14.8959
-15.5532
-16.3052
-17.1521
-18.1118
-19.1082
-9.64268
-9.63593
-9.67404
-9.71963
-9.77075
-9.83691
-9.91274
-9.99553
-10.0849
-10.1803
-10.2819
-10.3911
-10.5099
-10.6402
-10.7829
-10.9392
-11.1101
-11.2969
-11.5017
-11.7267
-11.9748
-12.2492
-12.5537
-12.8926
-13.2708
-13.694
-14.1684
-14.7009
-15.2969
-15.9627
-16.6924
-17.4861
-18.2858
-9.63119
-9.61476
-9.64523
-9.69828
-9.75831
-9.82782
-9.90421
-9.98622
-10.0742
-10.1681
-10.2683
-10.3759
-10.4929
-10.6205
-10.76
-10.9125
-11.0789
-11.2607
-11.4594
-11.6771
-11.9163
-12.1798
-12.4705
-12.792
-13.1479
-13.5423
-13.979
-14.4618
-14.9923
-15.5707
-16.188
-16.8351
-17.4674
-9.63928
-9.6368
-9.66669
-9.71339
-9.76681
-9.82993
-9.90135
-9.97933
-10.0638
-10.1546
-10.2519
-10.3569
-10.4709
-10.5952
-10.7308
-10.8787
-11.0398
-11.2152
-11.4065
-11.6153
-11.8438
-12.094
-12.3685
-12.6697
-13.0003
-13.3625
-13.7584
-14.189
-14.6531
-15.1471
-15.6604
-16.1802
-16.6718
-9.64207
-9.64286
-9.66895
-9.71194
-9.76341
-9.82418
-9.89287
-9.96819
-10.0497
-10.1376
-10.2321
-10.3341
-10.4447
-10.565
-10.696
-10.8384
-10.9931
-11.1611
-11.3437
-11.5422
-11.7582
-11.9935
-12.2497
-12.5286
-12.8315
-13.1595
-13.513
-13.8909
-14.2902
-14.705
-15.1243
-15.5346
-15.9085
-9.64456
-9.64861
-9.67348
-9.71346
-9.7619
-9.81905
-9.8841
-9.95584
-10.0339
-10.1183
-10.2093
-10.3077
-10.4142
-10.5299
-10.6555
-10.7917
-10.9392
-11.0989
-11.2716
-11.4585
-11.6608
-11.8797
-12.1161
-12.371
-12.6449
-12.9377
-13.2484
-13.5747
-13.9122
-14.2542
-14.5898
-14.9066
-15.1825
-9.64531
-9.65073
-9.67405
-9.711
-9.7566
-9.81063
-9.87237
-9.9407
-10.0153
-10.096
-10.1833
-10.2775
-10.3795
-10.49
-10.6096
-10.7388
-10.8783
-11.0287
-11.1907
-11.365
-11.5524
-11.7537
-11.9692
-12.1991
-12.4433
-12.7006
-12.9693
-13.246
-13.5258
-13.8018
-14.0638
-14.3011
-14.4958
-9.64414
-9.65029
-9.67237
-9.70675
-9.74956
-9.80042
-9.85866
-9.92336
-9.99414
-10.071
-10.154
-10.2436
-10.3405
-10.4452
-10.5582
-10.6799
-10.8106
-10.951
-11.1013
-11.2621
-11.4338
-11.6165
-11.8103
-12.0148
-12.229
-12.4514
-12.6795
-12.9094
-13.1361
-13.3529
-13.5509
-13.7209
-13.8488
-9.6408
-9.64715
-9.66796
-9.69989
-9.73992
-9.78761
-9.84237
-9.90336
-9.97021
-10.0428
-10.1213
-10.206
-10.2973
-10.3956
-10.5014
-10.6149
-10.7364
-10.866
-11.004
-11.1506
-11.3058
-11.4694
-11.6411
-11.82
-12.0047
-12.1931
-12.3825
-12.569
-12.7475
-12.9119
-13.0545
-13.1679
-13.2408
-9.63514
-9.64141
-9.66095
-9.69058
-9.72787
-9.7724
-9.82361
-9.88076
-9.94347
-10.0116
-10.0852
-10.1645
-10.2498
-10.3414
-10.4395
-10.5443
-10.6558
-10.7741
-10.8992
-11.031
-11.1693
-11.3135
-11.463
-11.6166
-11.7725
-11.9285
-12.0817
-12.2282
-12.3633
-12.4816
-12.5768
-12.6428
-12.6708
-9.62705
-9.63307
-9.6513
-9.6787
-9.71326
-9.75461
-9.80221
-9.8554
-9.9138
-9.97725
-10.0457
-10.1193
-10.1982
-10.2825
-10.3725
-10.4681
-10.5692
-10.6757
-10.7875
-10.9042
-11.0253
-11.1501
-11.2777
-11.4065
-11.5348
-11.6602
-11.7798
-11.8899
-11.9864
-12.0647
-12.1194
-12.1459
-12.1374
-9.61646
-9.62213
-9.63902
-9.66424
-9.69607
-9.73421
-9.77815
-9.82727
-9.88119
-9.93971
-10.0027
-10.0703
-10.1424
-10.2192
-10.3007
-10.3867
-10.477
-10.5715
-10.6696
-10.771
-10.8749
-10.9805
-11.0866
-11.1917
-11.2938
-11.3906
-11.4793
-11.5567
-11.6192
-11.6628
-11.6833
-11.6771
-11.6391
-9.60332
-9.60858
-9.6241
-9.64716
-9.67627
-9.71117
-9.75138
-9.79632
-9.84561
-9.89901
-9.95636
-10.0176
-10.0827
-10.1516
-10.2243
-10.3004
-10.3798
-10.4619
-10.5463
-10.6324
-10.7193
-10.8061
-10.8915
-10.9738
-11.0513
-11.1217
-11.1824
-11.2306
-11.2633
-11.2772
-11.2689
-11.2358
-11.1741
-9.58762
-9.59243
-9.60655
-9.62746
-9.65384
-9.68548
-9.7219
-9.76256
-9.80709
-9.85519
-9.90667
-9.96137
-10.0192
-10.08
-10.1437
-10.2098
-10.2779
-10.3477
-10.4183
-10.4893
-10.5596
-10.6281
-10.6937
-10.7547
-10.8093
-10.8555
-10.891
-10.9134
-10.9201
-10.9086
-10.8763
-10.8213
-10.7407
-9.56936
-9.5737
-9.5864
-9.60516
-9.62881
-9.65715
-9.68972
-9.72603
-9.76567
-9.80833
-9.85377
-9.90178
-9.95216
-10.0047
-10.0592
-10.1151
-10.1721
-10.2295
-10.2866
-10.3427
-10.3969
-10.448
-10.4948
-10.5358
-10.5693
-10.5935
-10.6066
-10.6063
-10.5907
-10.5577
-10.5054
-10.4326
-10.3371
-9.54855
-9.55242
-9.56368
-9.5803
-9.60121
-9.62622
-9.65491
-9.68678
-9.72145
-9.75857
-9.79785
-9.83903
-9.88185
-9.92605
-9.97126
-10.017
-10.0628
-10.108
-10.1519
-10.1936
-10.2323
-10.2669
-10.2961
-10.3186
-10.3329
-10.3374
-10.3304
-10.3104
-10.2756
-10.2246
-10.1559
-10.0687
-9.96158
-9.52526
-9.52864
-9.53846
-9.55293
-9.57109
-9.59276
-9.61753
-9.64493
-9.67456
-9.70606
-9.73911
-9.77338
-9.80859
-9.84439
-9.88039
-9.91608
-9.95089
-9.98416
-10.0152
-10.0431
-10.0671
-10.086
-10.0989
-10.1044
-10.1012
-10.0881
-10.0637
-10.0265
-9.97544
-9.90932
-9.8272
-9.72859
-9.61257
-9.49955
-9.50244
-9.51083
-9.52314
-9.53856
-9.55688
-9.57772
-9.60062
-9.62517
-9.65102
-9.67779
-9.70515
-9.73274
-9.7602
-9.78707
-9.81284
-9.83691
-9.85863
-9.87727
-9.89206
-9.90214
-9.90656
-9.90433
-9.89437
-9.87558
-9.84684
-9.80706
-9.75521
-9.69037
-9.61176
-9.51877
-9.4112
-9.28849
-9.47153
-9.47393
-9.48087
-9.49105
-9.50373
-9.51871
-9.53562
-9.55402
-9.57351
-9.5937
-9.61422
-9.63469
-9.65473
-9.67395
-9.69187
-9.70796
-9.72163
-9.73224
-9.7391
-9.74147
-9.73857
-9.72955
-9.71353
-9.6896
-9.65684
-9.61435
-9.56129
-9.49689
-9.42051
-9.33165
-9.22996
-9.11545
-8.98786
-9.44132
-9.44323
-9.44874
-9.45679
-9.46676
-9.47842
-9.49143
-9.50535
-9.5198
-9.53438
-9.54871
-9.56238
-9.575
-9.58615
-9.59536
-9.60209
-9.60577
-9.6058
-9.60151
-9.59226
-9.57732
-9.55596
-9.52742
-9.49096
-9.44583
-9.39134
-9.32685
-9.25182
-9.16585
-9.06866
-8.9601
-8.84034
-8.70932
-9.40908
-9.4105
-9.4146
-9.42055
-9.42783
-9.43623
-9.44538
-9.4549
-9.46439
-9.47345
-9.48169
-9.4887
-9.49408
-9.4974
-9.49819
-9.49594
-9.4901
-9.48011
-9.46539
-9.44532
-9.41931
-9.38671
-9.3469
-9.29928
-9.24328
-9.17837
-9.10411
-9.02017
-8.92629
-8.8224
-8.70851
-8.58487
-8.45162
-9.37499
-9.37594
-9.37864
-9.38251
-9.38714
-9.39231
-9.39768
-9.40286
-9.40749
-9.41115
-9.41347
-9.41402
-9.4124
-9.40819
-9.40093
-9.39014
-9.37532
-9.35595
-9.33152
-9.3015
-9.26538
-9.22263
-9.17275
-9.11527
-9.04977
-8.9759
-8.89336
-8.80198
-8.70167
-8.59248
-8.47453
-8.34815
-8.21361
-9.3393
-9.33978
-9.34111
-9.34297
-9.34506
-9.34713
-9.34886
-9.34987
-9.34979
-9.34824
-9.34482
-9.33914
-9.33079
-9.31937
-9.30444
-9.28557
-9.26231
-9.23421
-9.20081
-9.16168
-9.11639
-9.06452
-9.0057
-8.93957
-8.86585
-8.78432
-8.69482
-8.59731
-8.49181
-8.37848
-8.25753
-8.12934
-7.99425
-9.30224
-9.30224
-9.30218
-9.30198
-9.30149
-9.30046
-9.29859
-9.29553
-9.29091
-9.28437
-9.27551
-9.26393
-9.24925
-9.23107
-9.209
-9.18263
-9.15158
-9.11545
-9.07388
-9.02651
-8.973
-8.91304
-8.84635
-8.7727
-8.69192
-8.6039
-8.50861
-8.4061
-8.29648
-8.17999
-8.05692
-7.92765
-7.7926
-9.26416
-9.26375
-9.26247
-9.26052
-9.25782
-9.25408
-9.24896
-9.24213
-9.23322
-9.22189
-9.20777
-9.1905
-9.16972
-9.14507
-9.1162
-9.08276
-9.04444
-9.00091
-8.95187
-8.89704
-8.83617
-8.76903
-8.69545
-8.61529
-8.52847
-8.435
-8.33492
-8.22837
-8.11554
-7.99671
-7.87221
-7.74245
-7.60787
-9.22528
-9.22419
-9.22122
-9.21692
-9.21151
-9.20472
-9.19624
-9.18575
-9.17288
-9.15726
-9.13851
-9.11625
-9.09013
-9.05981
-9.02496
-8.9853
-8.94055
-8.89048
-8.83485
-8.77347
-8.70617
-8.6328
-8.55329
-8.46758
-8.3757
-8.2777
-8.17373
-8.06398
-7.9487
-7.8282
-7.70285
-7.57305
-7.43928
-9.1864
-9.18547
-9.1821
-9.17699
-9.17025
-9.16146
-9.15029
-9.13645
-9.11965
-9.09956
-9.07589
-9.04833
-9.0166
-8.98043
-8.93957
-8.89377
-8.84284
-8.7866
-8.72489
-8.65755
-8.58448
-8.50563
-8.42096
-8.3305
-8.23433
-8.13259
-8.02546
-7.9132
-7.79608
-7.67444
-7.54867
-7.41917
-7.28643
-9.14658
-9.14311
-9.13583
-9.12682
-9.11676
-9.10511
-9.09128
-9.07487
-9.05543
-9.03256
-9.00586
-8.97499
-8.93963
-8.89948
-8.85432
-8.80395
-8.74825
-8.6871
-8.62044
-8.54821
-8.47037
-8.38696
-8.29802
-8.20364
-8.10399
-7.99924
-7.88964
-7.77547
-7.65705
-7.53473
-7.40891
-7.27997
-7.14843
-9.11146
-9.11269
-9.10896
-9.10152
-9.09115
-9.07763
-9.06079
-9.04051
-9.0165
-8.98848
-8.95623
-8.91954
-8.87825
-8.83218
-8.78121
-8.72521
-8.66408
-8.59775
-8.52614
-8.44922
-8.36699
-8.27949
-8.1868
-8.08908
-7.98649
-7.87928
-7.76771
-7.65208
-7.53273
-7.41003
-7.28436
-7.15611
-7.02578
-9.06403
-9.05087
-9.03518
-9.022
-9.01013
-8.99686
-8.9809
-8.96175
-8.93891
-8.91191
-8.88036
-8.84396
-8.80241
-8.75546
-8.70294
-8.64479
-8.58101
-8.51165
-8.4368
-8.35655
-8.27104
-8.1804
-8.0848
-7.98446
-7.87961
-7.77052
-7.6575
-7.54087
-7.42098
-7.29821
-7.17295
-7.04557
-6.91658
-9.06451
-9.07605
-9.07084
-9.05538
-9.03727
-9.01671
-8.99292
-8.96548
-8.93394
-8.89794
-8.85727
-8.81186
-8.76174
-8.70694
-8.64749
-8.58336
-8.51445
-8.44068
-8.36195
-8.27823
-8.18959
-8.09612
-7.99799
-7.89543
-7.78869
-7.67806
-7.56386
-7.44643
-7.32614
-7.20334
-7.07844
-6.95177
-6.82385
-8.94297
-8.89581
-8.87851
-8.87734
-8.87653
-8.8704
-8.8595
-8.84404
-8.82346
-8.79749
-8.76601
-8.72876
-8.68537
-8.63553
-8.57909
-8.51612
-8.44686
-8.37166
-8.29087
-8.20483
-8.11384
-8.01815
-7.91805
-7.81378
-7.70564
-7.59394
-7.479
-7.36118
-7.24083
-7.11834
-6.99409
-6.86842
-6.74185
-9.14902
-9.17416
-9.12408
-9.06377
-9.02653
-8.99377
-8.95922
-8.92215
-8.88146
-8.83605
-8.78549
-8.73006
-8.67048
-8.60748
-8.54142
-8.47215
-8.39913
-8.32176
-8.23955
-8.15232
-8.06011
-7.96313
-7.86171
-7.75618
-7.64691
-7.53423
-7.41851
-7.30012
-7.17942
-7.05678
-6.93261
-6.80722
-6.68116
-8.65176
-8.5308
-8.5849
-8.67608
-8.7092
-8.72364
-8.73129
-8.72937
-8.71877
-8.7013
-8.67743
-8.64662
-8.60774
-8.55978
-8.50232
-8.4359
-8.3617
-8.281
-8.19491
-8.10418
-8.00924
-7.91036
-7.8077
-7.70146
-7.59187
-7.47921
-7.3638
-7.24597
-7.1261
-7.00454
-6.88169
-6.75789
-6.63371
-9.84919
-9.50463
-9.23107
-9.09408
-9.0304
-8.97891
-8.93032
-8.88354
-8.83387
-8.77819
-8.71693
-8.65301
-8.58952
-8.52801
-8.46772
-8.40604
-8.33996
-8.26728
-8.18712
-8.09973
-8.00605
-7.90718
-7.80402
-7.69719
-7.58712
-7.47413
-7.35851
-7.24058
-7.12067
-6.99913
-6.87633
-6.75257
-6.62842
-7.33664
-8.03818
-8.42403
-8.55535
-8.62925
-8.68006
-8.7032
-8.70835
-8.7047
-8.69579
-8.68152
-8.65874
-8.62312
-8.57169
-8.50477
-8.4256
-8.33863
-8.24759
-8.15459
-8.06014
-7.96379
-7.86481
-7.76269
-7.65724
-7.54856
-7.43695
-7.32276
-7.20635
-7.08805
-6.96819
-6.84701
-6.72489
-6.60175
-26.4179
-26.2302
-31.5943
-35.2878
-34.2157
-29.5794
-23.8797
-19.182
-15.417
-12.1662
-9.43286
-7.19725
-5.3935
-3.96453
-2.85606
-2.02125
-1.41056
-0.949887
-0.568038
-0.241131
0.0276702
0.241476
0.409564
0.541027
0.643077
0.72123
0.779827
0.822401
0.851864
0.870624
0.880676
0.883679
0.881011
0.873822
0.863067
0.849543
0.83391
0.816714
0.798406
0.779357
0.759867
0.740181
0.720493
0.700956
0.681691
0.662789
0.644314
0.626313
0.608818
0.591842
0.575393
0.559465
0.544048
0.529125
0.514677
0.500678
0.487103
0.473925
0.461115
0.448645
0.436485
0.424608
0.412986
0.401592
0.390401
0.379387
0.368529
0.357803
0.347189
0.336667
0.326219
0.315827
0.305477
0.295152
0.28484
0.274527
0.264202
0.253853
0.243471
0.233046
0.22257
0.212036
0.201435
0.190762
0.180009
0.169172
0.158245
0.147223
0.136101
0.124876
0.113541
0.102097
0.0905339
0.0788563
0.067045
0.0551253
0.0430304
0.0308811
0.0183838
0.00614972
-24.8252
-25.9368
-28.856
-31.24
-30.3073
-26.573
-22.1256
-18.1275
-14.7259
-11.7593
-9.23372
-7.13648
-5.42181
-4.04645
-2.96736
-2.14464
-1.53092
-1.05792
-0.665019
-0.33182
-0.0581712
0.160917
0.334699
0.4719
0.579484
0.662863
0.726349
0.773473
0.807152
0.829805
0.843445
0.849746
0.850107
0.845694
0.837484
0.826289
0.812785
0.797536
0.781007
0.763581
0.745572
0.727236
0.708779
0.690364
0.67212
0.654146
0.636516
0.619283
0.602484
0.586142
0.570266
0.554858
0.539912
0.525416
0.511353
0.497703
0.484443
0.471548
0.458995
0.446754
0.434801
0.42311
0.411655
0.400411
0.389354
0.378461
0.36771
0.35708
0.346551
0.336105
0.325724
0.315393
0.305097
0.294818
0.284548
0.274272
0.263979
0.253659
0.243302
0.2329
0.222443
0.211926
0.20134
0.19068
0.179939
0.169111
0.158192
0.147178
0.136062
0.124843
0.113514
0.102073
0.0905137
0.0788396
0.0670311
0.0551133
0.0430198
0.0308733
0.0183696
0.00614479
-22.9977
-24.1961
-26.1521
-27.7277
-26.9491
-24.0976
-20.4976
-17.0745
-14.0419
-11.352
-9.02734
-7.06782
-5.44469
-4.12655
-3.07964
-2.26958
-1.65223
-1.16734
-0.764517
-0.425515
-0.147008
0.0774761
0.257057
0.400096
0.513325
0.602059
0.670576
0.722398
0.760443
0.787139
0.80451
0.814248
0.81777
0.816258
0.810708
0.801948
0.790674
0.777463
0.762796
0.74707
0.730612
0.713691
0.696523
0.679282
0.662107
0.645105
0.628359
0.61193
0.59586
0.58018
0.564905
0.550041
0.535588
0.521538
0.507878
0.494593
0.481662
0.469064
0.456778
0.444778
0.433042
0.421545
0.410265
0.399178
0.388261
0.377493
0.366854
0.356324
0.345885
0.335518
0.325208
0.31494
0.304699
0.29447
0.284244
0.274006
0.263747
0.253457
0.243126
0.232748
0.222311
0.211812
0.201241
0.190595
0.179865
0.169048
0.158138
0.147132
0.136023
0.124809
0.113485
0.102049
0.0904931
0.0788223
0.0670166
0.0551014
0.0430102
0.0308655
0.0183631
0.00613959
-21.6244
-22.8519
-24.1535
-25.0431
-24.2744
-21.9586
-19.0028
-16.0755
-13.3841
-10.9524
-8.8186
-6.9935
-5.46209
-4.20293
-3.18982
-2.39302
-1.77265
-1.27746
-0.866137
-0.52179
-0.238448
-0.00853747
0.176873
0.325792
0.444733
0.538911
0.612567
0.669205
0.711741
0.742607
0.763838
0.777139
0.783941
0.785448
0.782668
0.776449
0.767502
0.75642
0.743701
0.729754
0.71492
0.699481
0.683663
0.667653
0.651598
0.635616
0.619798
0.604211
0.588907
0.573922
0.559276
0.544984
0.531048
0.517467
0.50423
0.491327
0.478741
0.466455
0.45445
0.442703
0.431194
0.419902
0.408805
0.397882
0.387113
0.376477
0.365956
0.355531
0.345185
0.334902
0.324667
0.314464
0.304282
0.294105
0.283924
0.273727
0.263504
0.253245
0.242942
0.232588
0.222172
0.211692
0.201138
0.190505
0.179788
0.168982
0.158082
0.147083
0.135981
0.124774
0.113455
0.102024
0.090472
0.0788045
0.0670018
0.0550894
0.0430012
0.0308579
0.018365
0.00613395
-20.3789
-21.4092
-22.2641
-22.7072
-21.9814
-20.0991
-17.6573
-15.1452
-12.7604
-10.5661
-8.61117
-6.91511
-5.47382
-4.2739
-3.29532
-2.51251
-1.89071
-1.38755
-0.969362
-0.620194
-0.332126
-0.0968439
0.0943537
0.249139
0.373813
0.47349
0.552363
0.613912
0.661044
0.696192
0.721397
0.738376
0.748574
0.753208
0.753306
0.74973
0.743207
0.734347
0.72366
0.711573
0.698438
0.684549
0.670147
0.655427
0.640547
0.625635
0.61079
0.596089
0.581589
0.567333
0.55335
0.539659
0.526267
0.513178
0.500387
0.487887
0.475664
0.463706
0.451996
0.440516
0.429247
0.41817
0.407266
0.396517
0.385903
0.375406
0.365009
0.354695
0.344448
0.334253
0.324096
0.313962
0.303842
0.29372
0.283587
0.273432
0.263247
0.253021
0.242748
0.232419
0.222026
0.211565
0.201029
0.190411
0.179707
0.168913
0.158022
0.147032
0.135938
0.124737
0.113424
0.101998
0.09045
0.0787861
0.0669868
0.0550772
0.0429927
0.0308504
0.0183741
0.00612791
-19.2392
-20.0589
-20.6158
-20.7675
-20.0675
-18.4987
-16.453
-14.2865
-12.1741
-10.1961
-8.40718
-6.83362
-5.47955
-4.33801
-3.39405
-2.62622
-2.00523
-1.49685
-1.07353
-0.720177
-0.427609
-0.187112
0.00975016
0.170326
0.30071
0.405902
0.490039
0.556568
0.60838
0.647904
0.677183
0.697942
0.71164
0.719506
0.722582
0.721746
0.717742
0.711192
0.702624
0.692476
0.681115
0.668848
0.655927
0.642558
0.62891
0.615121
0.601298
0.587526
0.573871
0.560384
0.547098
0.534038
0.521219
0.508649
0.496328
0.484252
0.472413
0.460801
0.449403
0.438204
0.427188
0.416338
0.405639
0.395072
0.384622
0.374272
0.364006
0.35381
0.343667
0.333566
0.323491
0.313431
0.303376
0.293312
0.28323
0.273121
0.262975
0.252785
0.242542
0.232241
0.221872
0.211432
0.200913
0.190312
0.179622
0.168839
0.157959
0.146979
0.135893
0.124698
0.113391
0.10197
0.0904271
0.078767
0.0669713
0.0550646
0.0429846
0.030843
0.0183881
0.00612161
-18.1812
-18.7997
-19.1394
-19.1038
-18.4336
-17.1052
-15.373
-13.4959
-11.6242
-9.84209
-8.20672
-6.74872
-5.4783
-4.39365
-3.48421
-2.7327
-2.11525
-1.60454
-1.1779
-0.821124
-0.524424
-0.278976
-0.0766524
0.0895788
0.225598
0.336282
0.425697
0.497248
0.553802
0.597776
0.631214
0.655846
0.673136
0.684329
0.690478
0.692476
0.69108
0.686928
0.68056
0.672431
0.66292
0.652345
0.64097
0.629014
0.616657
0.604043
0.591292
0.578496
0.565729
0.553049
0.540496
0.528102
0.515887
0.503863
0.492037
0.480408
0.468974
0.457728
0.446659
0.435757
0.425008
0.414398
0.403915
0.393542
0.383265
0.373071
0.362944
0.352872
0.34284
0.332837
0.32285
0.312868
0.302882
0.292879
0.282852
0.27279
0.262687
0.252534
0.242324
0.232051
0.221708
0.21129
0.200791
0.190206
0.179531
0.168762
0.157893
0.146922
0.135844
0.124657
0.113357
0.101941
0.0904029
0.0787469
0.0669552
0.0550514
0.0429767
0.0308355
0.0184042
0.00611518
-17.2003
-17.6448
-17.8248
-17.6696
-17.0294
-15.8847
-14.401
-12.7666
-11.1067
-9.50168
-8.00805
-6.65879
-5.46835
-4.43905
-3.56432
-2.83092
-2.21997
-1.70981
-1.28167
-0.922374
-0.622052
-0.372028
-0.164527
0.00715977
0.148689
0.264801
0.359473
0.436059
0.497392
0.545873
0.583539
0.612119
0.633086
0.647691
0.656999
0.661917
0.663214
0.661543
0.657457
0.651423
0.643834
0.635021
0.625259
0.614778
0.603768
0.592385
0.580756
0.568982
0.557147
0.545314
0.533531
0.521836
0.510256
0.498808
0.487502
0.476346
0.465338
0.454477
0.443756
0.433167
0.4227
0.412345
0.402089
0.391921
0.381828
0.371798
0.361818
0.351877
0.341963
0.332064
0.32217
0.312271
0.302358
0.29242
0.28245
0.27244
0.262381
0.252268
0.242093
0.23185
0.221534
0.21114
0.200661
0.190094
0.179435
0.168679
0.157822
0.146862
0.135793
0.124614
0.11332
0.10191
0.0903774
0.0787257
0.0669383
0.0550377
0.0429687
0.0308278
0.0184201
0.00610875
-16.291
-16.5904
-16.6503
-16.4182
-15.8077
-14.806
-13.5215
-12.091
-10.6168
-9.17161
-7.80877
-6.5618
-5.44795
-4.47284
-3.63346
-2.92029
-2.31881
-1.81193
-1.38407
-1.02326
-0.719957
-0.465834
-0.253518
-0.0766376
0.0702259
0.191656
0.291529
0.373133
0.439258
0.49228
0.534224
0.566815
0.591528
0.609621
0.622168
0.630086
0.634156
0.635044
0.633316
0.629451
0.623855
0.616871
0.608786
0.59984
0.590235
0.580136
0.569679
0.558975
0.548115
0.537169
0.526194
0.515233
0.504319
0.493475
0.482718
0.472058
0.461499
0.451044
0.440689
0.43043
0.420261
0.410174
0.400159
0.390207
0.380308
0.370451
0.360627
0.350825
0.341034
0.331246
0.32145
0.311638
0.301803
0.291934
0.282025
0.272068
0.262057
0.251986
0.241847
0.231637
0.22135
0.21098
0.200523
0.189976
0.179333
0.168592
0.157747
0.146798
0.135739
0.124568
0.113281
0.101878
0.0903504
0.0787034
0.0669206
0.0550234
0.0429604
0.0308198
0.0184341
0.00610243
-15.4487
-15.63
-15.5992
-15.3179
-14.7362
-13.8471
-12.7232
-11.4639
-10.1516
-8.85
-7.60745
-6.45663
-5.41629
-4.49456
-3.69142
-3.00065
-2.41138
-1.91023
-1.48437
-1.12313
-0.817602
-0.559946
-0.343249
-0.161497
-0.00952659
0.11707
0.222051
0.308623
0.379526
0.437101
0.483355
0.520005
0.548521
0.570166
0.586021
0.59701
0.603926
0.607446
0.608147
0.606522
0.602987
0.597898
0.591552
0.584202
0.576058
0.567295
0.55806
0.548472
0.538629
0.528611
0.518481
0.508288
0.498072
0.487863
0.477681
0.467541
0.457454
0.447425
0.437455
0.427544
0.417688
0.407883
0.398121
0.388397
0.378702
0.369029
0.359368
0.349712
0.340052
0.330381
0.320689
0.31097
0.301216
0.291419
0.281575
0.271675
0.261714
0.251687
0.241588
0.231412
0.221154
0.210811
0.200377
0.18985
0.179225
0.168499
0.157668
0.14673
0.135681
0.124519
0.11324
0.101843
0.0903219
0.0786798
0.066902
0.0550083
0.0429518
0.0308116
0.0184457
0.00609628
-14.6686
-14.7554
-14.6562
-14.3438
-13.7899
-12.9914
-11.998
-10.8825
-9.71084
-8.53722
-7.40467
-6.34387
-5.37397
-4.50481
-3.73872
-3.07221
-2.49747
-2.0042
-1.58194
-1.22139
-0.914461
-0.653915
-0.433334
-0.247086
-0.0902843
0.0412841
0.151242
0.242702
0.318341
0.380459
0.431035
0.471771
0.504134
0.529384
0.548605
0.562729
0.572557
0.578776
0.581974
0.582654
0.581245
0.578112
0.573566
0.567867
0.561239
0.553864
0.545899
0.537473
0.528691
0.51964
0.510391
0.501001
0.491515
0.481969
0.472388
0.462795
0.453202
0.443619
0.434054
0.424507
0.41498
0.405471
0.395976
0.386491
0.377011
0.36753
0.358042
0.34854
0.339018
0.329469
0.319886
0.310264
0.300596
0.290877
0.2811
0.27126
0.261352
0.251372
0.241314
0.231174
0.220948
0.210633
0.200223
0.189717
0.179111
0.168401
0.157584
0.146659
0.13562
0.124468
0.113197
0.101807
0.0902919
0.0786551
0.0668826
0.0549925
0.0429426
0.030803
0.0184546
0.00609033
-13.9465
-13.9583
-13.808
-13.4772
-12.9499
-12.2257
-11.3395
-10.3452
-9.29529
-8.23524
-7.20262
-6.22552
-5.32271
-4.50493
-3.77625
-3.13538
-2.57701
-2.09343
-1.67623
-1.3175
-1.01004
-0.747294
-0.523379
-0.33306
-0.171749
-0.0354445
0.0793223
0.175558
0.255863
0.322488
0.377378
0.422214
0.45845
0.487344
0.509978
0.527291
0.540089
0.549067
0.554822
0.557869
0.558646
0.557529
0.554839
0.550848
0.545787
0.539851
0.533203
0.525983
0.518302
0.510258
0.501927
0.493373
0.484648
0.475794
0.466842
0.457818
0.448742
0.439627
0.430484
0.421319
0.412137
0.402938
0.393722
0.384488
0.375233
0.365955
0.356647
0.347307
0.337929
0.328509
0.319042
0.309522
0.299945
0.290306
0.2806
0.270823
0.260971
0.25104
0.241025
0.230924
0.220731
0.210445
0.200061
0.189578
0.178991
0.168298
0.157496
0.146583
0.135557
0.124414
0.113151
0.101769
0.0902604
0.0786292
0.0668622
0.0549761
0.042933
0.0307941
0.0184609
0.0060846
-13.2783
-13.2313
-13.0433
-12.7029
-12.201
-11.5389
-10.742
-9.85041
-8.90588
-7.94625
-7.00389
-6.10407
-5.2646
-4.49653
-3.80508
-3.19067
-2.65005
-2.17762
-1.7668
-1.41096
-1.10386
-0.839652
-0.612991
-0.419069
-0.25361
-0.112845
0.00652831
0.107395
0.192269
0.263341
0.322513
0.371442
0.411564
0.444126
0.470211
0.490756
0.506572
0.518361
0.52673
0.532198
0.535217
0.536171
0.535391
0.533159
0.529716
0.525265
0.519981
0.514008
0.507471
0.50047
0.493092
0.485408
0.477475
0.46934
0.461043
0.452614
0.444076
0.435449
0.426748
0.417982
0.409159
0.400284
0.39136
0.382389
0.37337
0.364303
0.355185
0.346015
0.336788
0.327503
0.318156
0.308743
0.299261
0.289706
0.280075
0.270365
0.260571
0.250692
0.240722
0.23066
0.220503
0.210247
0.199891
0.189431
0.178864
0.16819
0.157404
0.146504
0.135489
0.124357
0.113104
0.101729
0.0902274
0.0786021
0.066841
0.0549591
0.0429227
0.030785
0.0184649
0.0060791
-12.6601
-12.5675
-12.3524
-12.0083
-11.5308
-10.9216
-10.1998
-9.39585
-8.54272
-7.67177
-6.81064
-5.98174
-5.20158
-4.48109
-3.82621
-3.23862
-2.71671
-2.25661
-1.8533
-1.50138
-1.19552
-0.93058
-0.701788
-0.504761
-0.335552
-0.190636
-0.0668922
0.0384298
0.127748
0.203182
0.266585
0.31958
0.363582
0.399824
0.429381
0.453191
0.472065
0.48671
0.497738
0.505679
0.51099
0.514065
0.515245
0.51482
0.513042
0.510123
0.506244
0.501561
0.496205
0.490285
0.483895
0.477111
0.47
0.462613
0.454996
0.447184
0.439207
0.431088
0.422846
0.414496
0.406048
0.397511
0.388892
0.380195
0.371422
0.362576
0.353656
0.344662
0.335594
0.32645
0.317229
0.307928
0.298545
0.289079
0.279526
0.269885
0.260152
0.250327
0.240405
0.230385
0.220264
0.210041
0.199712
0.189277
0.178732
0.168076
0.157307
0.146422
0.135419
0.124297
0.113054
0.101687
0.090193
0.0785738
0.0668189
0.0549414
0.0429119
0.0307755
0.0184669
0.00607386
-12.0885
-11.9607
-11.7266
-11.3833
-10.9289
-10.3656
-9.70773
-8.97887
-8.20521
-7.41254
-6.62433
-5.86021
-5.13525
-4.45994
-3.84058
-3.27976
-2.77715
-2.33028
-1.93547
-1.5884
-1.28462
-1.01969
-0.789399
-0.58979
-0.417256
-0.268528
-0.140681
-0.0311075
0.0625022
0.142188
0.209749
0.266764
0.314622
0.354539
0.38758
0.414674
0.436635
0.454172
0.4679
0.478355
0.486002
0.491244
0.494429
0.495857
0.495787
0.494441
0.49201
0.488655
0.484517
0.479713
0.474343
0.468492
0.46223
0.455618
0.448706
0.441535
0.434139
0.426548
0.418783
0.410864
0.402806
0.394622
0.386319
0.377907
0.369391
0.360774
0.35206
0.343251
0.334348
0.325351
0.316261
0.307076
0.297798
0.288423
0.278953
0.269383
0.259715
0.249945
0.240073
0.230097
0.220014
0.209825
0.199526
0.189116
0.178594
0.167958
0.157205
0.146335
0.135346
0.124235
0.113001
0.101643
0.0901572
0.0785445
0.066796
0.0549231
0.0429005
0.0307658
0.0184672
0.00606891
-11.5598
-11.4054
-11.1586
-10.8192
-10.3867
-9.86346
-9.26068
-8.59663
-7.89225
-7.16873
-6.44587
-5.74073
-5.06687
-4.43418
-3.84902
-3.31462
-2.8316
-2.39864
-2.01313
-1.67174
-1.37084
-1.10664
-0.875471
-0.673817
-0.498404
-0.346231
-0.214572
-0.100978
-0.00325455
0.0805512
0.152172
0.213143
0.264817
0.308388
0.344906
0.375294
0.400361
0.420814
0.437272
0.450277
0.460299
0.467747
0.472978
0.476299
0.477977
0.478244
0.477298
0.475308
0.472423
0.468768
0.464449
0.459559
0.454175
0.448363
0.44218
0.435671
0.428878
0.421832
0.414562
0.407091
0.399437
0.391617
0.383644
0.375528
0.367278
0.3589
0.3504
0.341783
0.333051
0.324207
0.315253
0.30619
0.29702
0.287741
0.278355
0.268861
0.259259
0.249548
0.239728
0.229797
0.219754
0.2096
0.199332
0.188949
0.17845
0.167834
0.1571
0.146245
0.135269
0.124171
0.112947
0.101598
0.09012
0.0785142
0.0667723
0.0549043
0.0428885
0.030756
0.0184662
0.00606428
-11.0711
-10.8967
-10.6422
-10.3087
-9.89702
-9.40915
-8.85411
-8.24631
-7.60251
-6.94011
-6.27575
-5.62418
-4.99746
-4.40474
-3.8523
-3.34372
-2.88035
-2.46172
-2.08616
-1.75119
-1.45388
-1.1911
-0.959676
-0.756515
-0.578684
-0.423449
-0.288296
-0.170935
-0.0692987
0.018471
0.0940356
0.158876
0.214307
0.261496
0.301473
0.33515
0.363328
0.386713
0.405925
0.421506
0.433934
0.443621
0.450932
0.456182
0.459645
0.46156
0.462133
0.461542
0.459942
0.457466
0.454228
0.450326
0.445846
0.440859
0.435427
0.429602
0.423429
0.416948
0.410189
0.40318
0.395945
0.388503
0.38087
0.37306
0.365085
0.356955
0.348677
0.340259
0.331704
0.323019
0.314207
0.30527
0.296212
0.287032
0.277735
0.268319
0.258786
0.249136
0.239369
0.229485
0.219484
0.209366
0.19913
0.188775
0.178301
0.167706
0.15699
0.146152
0.13519
0.124104
0.112891
0.101551
0.0900815
0.0784829
0.0667478
0.0548851
0.042876
0.030746
0.0184639
0.00606003
-10.6193
-10.4303
-10.1717
-9.84574
-9.45361
-8.99725
-8.48397
-7.92523
-7.33456
-6.72624
-6.11424
-5.51122
-4.92784
-4.37247
-3.85112
-3.36758
-2.92368
-2.51964
-2.15453
-1.82659
-1.53353
-1.2728
-1.04171
-0.837576
-0.657793
-0.499894
-0.361579
-0.240726
-0.135398
-0.0438414
0.0355291
0.104135
0.163247
0.214
0.257403
0.29435
0.325634
0.351956
0.373934
0.392111
0.406966
0.41892
0.428341
0.435549
0.440828
0.444421
0.446544
0.447382
0.447096
0.445828
0.443697
0.44081
0.437258
0.433117
0.428457
0.423336
0.417803
0.411902
0.40567
0.399138
0.392335
0.385282
0.378001
0.370508
0.362818
0.354943
0.346895
0.338681
0.330311
0.32179
0.313124
0.304317
0.295375
0.286299
0.277092
0.267757
0.258295
0.248708
0.238997
0.229162
0.219205
0.209124
0.198921
0.188595
0.178146
0.167573
0.156877
0.146055
0.135108
0.124035
0.112833
0.101503
0.0900419
0.0784507
0.0667228
0.0548654
0.0428631
0.0307359
0.0184606
0.00605621
-10.2016
-10.0024
-9.74251
-9.42498
-9.05127
-8.62316
-8.14661
-7.63089
-7.08695
-6.52655
-5.96141
-5.40234
-4.8587
-4.33808
-3.84614
-3.3867
-2.96193
-2.57256
-2.21825
-1.89782
-1.60959
-1.35149
-1.1213
-0.916712
-0.735439
-0.57528
-0.434148
-0.310093
-0.201316
-0.106167
-0.0231466
0.0491022
0.111802
0.166051
0.21283
0.253015
0.287388
0.31664
0.341385
0.362167
0.379467
0.393706
0.405257
0.414449
0.421568
0.426867
0.430567
0.43286
0.433915
0.433879
0.43288
0.43103
0.428427
0.425154
0.421286
0.416886
0.41201
0.406706
0.401015
0.394974
0.388614
0.381962
0.375042
0.367875
0.360478
0.352867
0.345055
0.337053
0.328872
0.320521
0.312006
0.303334
0.294511
0.285541
0.276428
0.267177
0.257789
0.248267
0.238613
0.228829
0.218916
0.208874
0.198705
0.188409
0.177986
0.167436
0.15676
0.145956
0.135024
0.123963
0.112773
0.101453
0.0900012
0.0784177
0.0666971
0.0548455
0.0428497
0.0307258
0.0184566
0.00605289
-9.81562
-9.60941
-9.35044
-9.04194
-8.68555
-8.28286
-7.83882
-7.36098
-6.85828
-6.34041
-5.8172
-5.29787
-4.79061
-4.3022
-3.83794
-3.40158
-2.99545
-2.62067
-2.27736
-1.96485
-1.68192
-1.42698
-1.19821
-0.993656