/*--------------------------------*- C++ -*----------------------------------*\
| =========                 |                                                 |
| \\      /  F ield         | OpenFOAM: The Open Source CFD Toolbox           |
|  \\    /   O peration     | Version:  2.1.1                                 |
|   \\  /    A nd           | Web:      www.OpenFOAM.org                      |
|    \\/     M anipulation  |                                                 |
\*---------------------------------------------------------------------------*/
FoamFile
{
    version     2.0;
    format      ascii;
    class       surfaceScalarField;
    location    "0.005";
    object      phi;
}
// * * * * * * * * * * * * * * * * * * * * * * * * * * * * * * * * * * * * * //

dimensions      [0 3 -1 0 0 0 0];

internalField   nonuniform List<scalar> 
13452
(
6.89987e-05
-5.11484e-07
6.88439e-05
1.54861e-07
6.82763e-05
5.67545e-07
6.7395e-05
8.8139e-07
6.6415e-05
9.79979e-07
6.54619e-05
9.53104e-07
6.45995e-05
8.62399e-07
6.38759e-05
7.23564e-07
6.33287e-05
5.47199e-07
6.29731e-05
3.55586e-07
6.27918e-05
1.81326e-07
6.27357e-05
5.60867e-08
6.27521e-05
-1.63963e-08
6.28139e-05
-6.17666e-08
6.29153e-05
-1.01404e-07
6.30571e-05
-1.41815e-07
6.32408e-05
-1.83736e-07
6.34675e-05
-2.26629e-07
6.37375e-05
-2.70081e-07
6.40521e-05
-3.14522e-07
6.44132e-05
-3.6117e-07
6.4825e-05
-4.11749e-07
6.52933e-05
-4.68294e-07
6.58264e-05
-5.33148e-07
6.64356e-05
-6.09196e-07
6.71359e-05
-7.00271e-07
6.79479e-05
-8.1199e-07
6.89008e-05
-9.52943e-07
7.00379e-05
-1.13711e-06
7.1432e-05
-1.3941e-06
7.31861e-05
-1.7541e-06
7.56484e-05
-2.46226e-06
-3.19879e-06
7.88472e-05
7.01662e-05
-2.33717e-07
7.00459e-05
2.75155e-07
7.01898e-05
4.23649e-07
7.05219e-05
5.49257e-07
7.08782e-05
6.23665e-07
7.11802e-05
6.51179e-07
7.13943e-05
6.4823e-07
7.15041e-05
6.13775e-07
7.14995e-05
5.5185e-07
7.13842e-05
4.70849e-07
7.11856e-05
3.79897e-07
7.09586e-05
2.83133e-07
7.07626e-05
1.7957e-07
7.06334e-05
6.7456e-08
7.05844e-05
-5.24138e-08
7.06188e-05
-1.76237e-07
7.0733e-05
-2.97929e-07
7.09191e-05
-4.12761e-07
7.11687e-05
-5.19595e-07
7.1475e-05
-6.20826e-07
7.18348e-05
-7.21041e-07
7.22487e-05
-8.25636e-07
7.27205e-05
-9.4003e-07
7.32569e-05
-1.06964e-06
7.38681e-05
-1.22035e-06
7.45675e-05
-1.39963e-06
7.53729e-05
-1.61747e-06
7.631e-05
-1.89004e-06
7.74122e-05
-2.23928e-06
7.87325e-05
-2.7144e-06
8.03404e-05
-3.36198e-06
8.22893e-05
-4.41117e-06
-5.78236e-06
8.48729e-05
7.22858e-05
-6.29462e-08
7.24123e-05
1.48582e-07
7.25347e-05
3.01274e-07
7.26503e-05
4.33653e-07
7.27671e-05
5.06853e-07
7.28897e-05
5.28655e-07
7.30207e-05
5.17161e-07
7.31501e-05
4.84388e-07
7.32616e-05
4.40365e-07
7.33394e-05
3.93038e-07
7.33766e-05
3.42715e-07
7.33809e-05
2.7885e-07
7.33731e-05
1.87343e-07
7.33791e-05
6.14802e-08
7.34212e-05
-9.45072e-08
7.35132e-05
-2.68277e-07
7.36611e-05
-4.45828e-07
7.38652e-05
-6.16889e-07
7.41234e-05
-7.77782e-07
7.44335e-05
-9.30876e-07
7.47948e-05
-1.08234e-06
7.5209e-05
-1.23984e-06
7.56801e-05
-1.41118e-06
7.62147e-05
-1.60417e-06
7.68215e-05
-1.82716e-06
7.75123e-05
-2.09047e-06
7.83024e-05
-2.4076e-06
7.92116e-05
-2.79919e-06
8.0265e-05
-3.29263e-06
8.14923e-05
-3.9418e-06
8.29292e-05
-4.7988e-06
8.45669e-05
-6.04887e-06
-7.66177e-06
8.64463e-05
7.45237e-05
-6.00629e-08
7.45086e-05
1.63712e-07
7.45171e-05
2.92771e-07
7.45855e-05
3.65301e-07
7.4685e-05
4.07323e-07
7.48004e-05
4.13246e-07
7.4924e-05
3.93592e-07
7.50498e-05
3.58551e-07
7.51702e-05
3.19936e-07
7.52772e-05
2.86048e-07
7.53667e-05
2.53255e-07
7.5441e-05
2.04493e-07
7.55095e-05
1.18877e-07
7.55862e-05
-1.52498e-08
7.56859e-05
-1.94141e-07
7.58205e-05
-4.02872e-07
7.59975e-05
-6.22822e-07
7.62204e-05
-8.39844e-07
7.64906e-05
-1.04795e-06
7.68086e-05
-1.24891e-06
7.71758e-05
-1.4495e-06
7.75947e-05
-1.6587e-06
7.80694e-05
-1.88594e-06
7.8606e-05
-2.14079e-06
7.92124e-05
-2.43352e-06
7.98985e-05
-2.77654e-06
8.06766e-05
-3.1857e-06
8.15612e-05
-3.6838e-06
8.25692e-05
-4.30061e-06
8.37139e-05
-5.08659e-06
8.5009e-05
-6.09386e-06
8.64121e-05
-7.45197e-06
-9.16576e-06
8.79161e-05
7.66065e-05
-1.06793e-08
7.66454e-05
1.2478e-07
7.67078e-05
2.30409e-07
7.67783e-05
2.94767e-07
7.68584e-05
3.27257e-07
7.6949e-05
3.22614e-07
7.70509e-05
2.91665e-07
7.71606e-05
2.48891e-07
7.72718e-05
2.0871e-07
7.7379e-05
1.78885e-07
7.74799e-05
1.5234e-07
7.7577e-05
1.07395e-07
7.76768e-05
1.90787e-08
7.77885e-05
-1.26967e-07
7.79218e-05
-3.27406e-07
7.80848e-05
-5.65869e-07
7.82835e-05
-8.21566e-07
7.8522e-05
-1.07831e-06
7.88028e-05
-1.32877e-06
7.91281e-05
-1.57421e-06
7.95002e-05
-1.82163e-06
7.99223e-05
-2.08075e-06
8.03984e-05
-2.36202e-06
8.09338e-05
-2.67623e-06
8.15352e-05
-3.03495e-06
8.22105e-05
-3.45185e-06
8.29688e-05
-3.94395e-06
8.38193e-05
-4.53435e-06
8.4771e-05
-5.25229e-06
8.58261e-05
-6.14172e-06
8.69806e-05
-7.24829e-06
8.81881e-05
-8.65952e-06
-1.03879e-05
8.94103e-05
7.88375e-05
-2.29631e-09
7.88575e-05
1.0481e-07
7.8899e-05
1.8892e-07
7.89605e-05
2.33253e-07
7.90398e-05
2.47996e-07
7.91316e-05
2.30829e-07
7.9233e-05
1.90253e-07
7.93409e-05
1.4096e-07
7.94516e-05
9.7968e-08
7.95625e-05
6.80262e-08
7.96734e-05
4.13959e-08
7.97874e-05
-6.52914e-09
7.99093e-05
-1.02877e-07
8.00454e-05
-2.63033e-07
8.0202e-05
-4.84049e-07
8.03851e-05
-7.48951e-07
8.05996e-05
-1.03607e-06
8.08495e-05
-1.32823e-06
8.11381e-05
-1.61734e-06
8.14681e-05
-1.90426e-06
8.18425e-05
-2.19599e-06
8.22643e-05
-2.50258e-06
8.27374e-05
-2.83507e-06
8.32661e-05
-3.20492e-06
8.38555e-05
-3.62439e-06
8.45113e-05
-4.10766e-06
8.52391e-05
-4.67178e-06
8.60435e-05
-5.33867e-06
8.69262e-05
-6.13502e-06
8.78814e-05
-7.09691e-06
8.88941e-05
-8.26103e-06
8.99186e-05
-9.68401e-06
-1.13757e-05
9.09064e-05
8.10895e-05
6.78659e-09
8.11135e-05
8.07595e-08
8.11614e-05
1.4106e-07
8.12254e-05
1.69229e-07
8.1303e-05
1.70412e-07
8.13914e-05
1.42381e-07
8.14893e-05
9.23953e-08
8.15947e-05
3.55323e-08
8.17055e-05
-1.27695e-08
8.18203e-05
-4.67919e-08
8.19401e-05
-7.83899e-08
8.20675e-05
-1.33992e-07
8.22064e-05
-2.41794e-07
8.23609e-05
-4.1753e-07
8.25353e-05
-6.5841e-07
8.27337e-05
-9.47361e-07
8.29602e-05
-1.26256e-06
8.32185e-05
-1.58656e-06
8.35121e-05
-1.91089e-06
8.3844e-05
-2.23613e-06
8.42171e-05
-2.56911e-06
8.46344e-05
-2.9199e-06
8.5099e-05
-3.29971e-06
8.56144e-05
-3.72023e-06
8.61838e-05
-4.19382e-06
8.68105e-05
-4.73441e-06
8.74969e-05
-5.35818e-06
8.82431e-05
-6.0848e-06
8.90452e-05
-6.93716e-06
8.98916e-05
-7.94334e-06
9.07612e-05
-9.13056e-06
9.16106e-05
-1.05335e-05
-1.21558e-05
9.23907e-05
8.3415e-05
7.35911e-09
8.34389e-05
5.68231e-08
8.34834e-05
9.6533e-08
8.3544e-05
1.08646e-07
8.36191e-05
9.53244e-08
8.37061e-05
5.53542e-08
8.38031e-05
-4.62604e-09
8.39087e-05
-6.99906e-08
8.40215e-05
-1.25579e-07
8.41416e-05
-1.66931e-07
8.42705e-05
-2.07257e-07
8.44104e-05
-2.73954e-07
8.45641e-05
-3.95428e-07
8.47339e-05
-5.87354e-07
8.49226e-05
-8.47059e-07
8.5133e-05
-1.15776e-06
8.53684e-05
-1.49799e-06
8.56322e-05
-1.85042e-06
8.59279e-05
-2.20652e-06
8.62583e-05
-2.56658e-06
8.66264e-05
-2.93715e-06
8.70345e-05
-3.32805e-06
8.74851e-05
-3.75032e-06
8.79803e-05
-4.21544e-06
8.85219e-05
-4.73538e-06
8.91106e-05
-5.32318e-06
8.97459e-05
-5.99345e-06
9.04241e-05
-6.763e-06
9.11372e-05
-7.65029e-06
9.18699e-05
-8.67601e-06
9.2598e-05
-9.85864e-06
9.3282e-05
-1.12174e-05
-1.27499e-05
9.38761e-05
8.58009e-05
5.15357e-09
8.58247e-05
3.30616e-08
8.58685e-05
5.27378e-08
8.59281e-05
4.90079e-08
8.60017e-05
2.17397e-08
8.6087e-05
-2.99264e-08
8.61825e-05
-1.00136e-07
8.62874e-05
-1.74909e-07
8.64018e-05
-2.39929e-07
8.65265e-05
-2.91639e-07
8.66632e-05
-3.44026e-07
8.68139e-05
-4.24624e-07
8.69799e-05
-5.61436e-07
8.71624e-05
-7.69793e-07
8.73625e-05
-1.04718e-06
8.75821e-05
-1.37739e-06
8.78238e-05
-1.73966e-06
8.80905e-05
-2.11711e-06
8.83853e-05
-2.50131e-06
8.8711e-05
-2.89229e-06
8.907e-05
-3.29621e-06
8.94644e-05
-3.72244e-06
8.98957e-05
-4.18154e-06
9.03646e-05
-4.6844e-06
9.08714e-05
-5.24217e-06
9.14148e-05
-5.86657e-06
9.19915e-05
-6.57019e-06
9.25952e-05
-7.36664e-06
9.32149e-05
-8.26998e-06
9.38332e-05
-9.29438e-06
9.44255e-05
-1.0451e-05
9.49565e-05
-1.17483e-05
-1.31793e-05
9.53858e-05
8.82547e-05
4.25575e-10
8.82785e-05
9.26054e-09
8.83209e-05
1.03546e-08
8.83786e-05
-8.66618e-09
8.84499e-05
-4.953e-08
8.8533e-05
-1.13026e-07
8.86267e-05
-1.93835e-07
8.87307e-05
-2.78983e-07
8.8846e-05
-3.55224e-07
8.89742e-05
-4.19863e-07
8.91174e-05
-4.87135e-07
8.92767e-05
-5.84002e-07
8.94528e-05
-7.37509e-07
8.96454e-05
-9.62375e-07
8.98545e-05
-1.25625e-06
9.00808e-05
-1.60374e-06
9.03262e-05
-1.98503e-06
9.05931e-05
-2.38399e-06
9.08841e-05
-2.79237e-06
9.12019e-05
-3.21002e-06
9.15483e-05
-3.64261e-06
9.19247e-05
-4.09886e-06
9.23317e-05
-4.58861e-06
9.27692e-05
-5.12188e-06
9.32357e-05
-5.70866e-06
9.37282e-05
-6.35909e-06
9.42415e-05
-7.08347e-06
9.47671e-05
-7.89225e-06
9.52925e-05
-8.79538e-06
9.57997e-05
-9.8016e-06
9.62649e-05
-1.09162e-05
9.66572e-05
-1.21406e-05
-1.34645e-05
9.69424e-05
9.07773e-05
-5.55285e-09
9.08008e-05
-1.42567e-08
9.08418e-05
-3.06351e-08
9.08977e-05
-6.45637e-08
9.09669e-05
-1.187e-07
9.10477e-05
-1.93876e-07
9.11393e-05
-2.85374e-07
9.12418e-05
-3.81491e-07
9.13568e-05
-4.70303e-07
9.14869e-05
-5.49946e-07
9.16343e-05
-6.34474e-07
9.17999e-05
-7.49665e-07
9.19835e-05
-9.21074e-07
9.21836e-05
-1.16251e-06
9.23991e-05
-1.47173e-06
9.26297e-05
-1.83429e-06
9.28762e-05
-2.23158e-06
9.31406e-05
-2.64839e-06
9.34251e-05
-3.07685e-06
9.37317e-05
-3.51664e-06
9.4062e-05
-3.97287e-06
9.44166e-05
-4.45349e-06
9.47954e-05
-4.96743e-06
9.51972e-05
-5.52361e-06
9.56192e-05
-6.13067e-06
9.60571e-05
-6.79697e-06
9.65041e-05
-7.53054e-06
9.69508e-05
-8.33888e-06
9.73837e-05
-9.22828e-06
9.77853e-05
-1.02032e-05
9.81336e-05
-1.12645e-05
9.8402e-05
-1.24091e-05
-1.36247e-05
9.85622e-05
9.33714e-05
-1.22626e-08
9.33945e-05
-3.74035e-08
9.34341e-05
-7.01833e-08
9.3488e-05
-1.18519e-07
9.35548e-05
-1.85521e-07
9.36331e-05
-2.7215e-07
9.37221e-05
-3.74322e-07
9.38223e-05
-4.81753e-07
9.39361e-05
-5.84067e-07
9.40664e-05
-6.80257e-07
9.42158e-05
-7.83911e-07
9.43853e-05
-9.1913e-07
9.45737e-05
-1.10948e-06
9.47787e-05
-1.36751e-06
9.49979e-05
-1.69098e-06
9.52301e-05
-2.06645e-06
9.54752e-05
-2.47669e-06
9.57344e-05
-2.90763e-06
9.60095e-05
-3.35192e-06
9.6302e-05
-3.80913e-06
9.66129e-05
-4.28379e-06
9.69424e-05
-4.78297e-06
9.72895e-05
-5.31455e-06
9.76521e-05
-5.88621e-06
9.80266e-05
-6.50513e-06
9.84075e-05
-7.1779e-06
9.87873e-05
-7.91036e-06
9.91558e-05
-8.70736e-06
9.94997e-05
-9.5722e-06
9.98026e-05
-1.0506e-05
0.000100045
-1.15065e-05
0.000100203
-1.25679e-05
-1.36771e-05
0.000100256
9.60391e-05
-1.92769e-08
9.60617e-05
-5.99862e-08
9.60997e-05
-1.08215e-07
9.61516e-05
-1.70423e-07
9.6216e-05
-2.49866e-07
9.62914e-05
-3.47636e-07
9.63774e-05
-4.60303e-07
9.64748e-05
-5.79111e-07
9.65862e-05
-6.95433e-07
9.67151e-05
-8.09194e-07
9.68645e-05
-9.33338e-07
9.70353e-05
-1.0899e-06
9.72258e-05
-1.3e-06
9.74329e-05
-1.57458e-06
9.76531e-05
-1.9112e-06
9.78841e-05
-2.29744e-06
9.8125e-05
-2.71762e-06
9.83763e-05
-3.15895e-06
9.86392e-05
-3.61476e-06
9.89147e-05
-4.0846e-06
9.92033e-05
-4.5724e-06
9.95046e-05
-5.08431e-06
9.98171e-05
-5.62707e-06
0.000100138
-6.20707e-06
0.000100463
-6.83e-06
0.000100786
-7.50073e-06
0.000101098
-8.22312e-06
0.000101391
-8.99979e-06
0.00010165
-9.83165e-06
0.000101862
-1.07174e-05
0.000102008
-1.16527e-05
0.00010207
-1.26301e-05
-1.36368e-05
0.00010203
9.87828e-05
-2.63417e-08
9.88047e-05
-8.18613e-08
9.88411e-05
-1.4465e-07
9.88908e-05
-2.20138e-07
9.89525e-05
-3.11537e-07
9.90249e-05
-4.20045e-07
9.91075e-05
-5.42888e-07
9.92013e-05
-6.72912e-07
9.93092e-05
-8.03391e-07
9.94353e-05
-9.35277e-07
9.95828e-05
-1.08078e-06
9.97524e-05
-1.25957e-06
9.99424e-05
-1.48993e-06
0.000100149
-1.78086e-06
0.000100367
-2.1295e-06
0.000100594
-2.52441e-06
0.000100828
-2.95153e-06
0.000101068
-3.39954e-06
0.000101316
-3.86259e-06
0.000101572
-4.34027e-06
0.000101835
-4.83598e-06
0.000102106
-5.35492e-06
0.000102382
-5.90265e-06
0.000102659
-6.48427e-06
0.000102933
-7.10403e-06
0.000103197
-7.76523e-06
0.000103444
-8.47e-06
0.000103664
-9.21916e-06
0.000103844
-1.00118e-05
0.000103971
-1.08448e-05
0.000104031
-1.17127e-05
0.000104009
-1.26074e-05
-1.35168e-05
0.000103889
0.000101605
-3.32835e-08
0.000101626
-1.02883e-07
0.00010166
-1.79382e-07
0.000101708
-2.67504e-07
0.000101767
-3.70316e-07
0.000101836
-4.89072e-07
0.000101914
-6.2165e-07
0.000102004
-7.62527e-07
0.000102108
-9.06993e-07
0.000102229
-1.05713e-06
0.000102373
-1.22436e-06
0.000102539
-1.42582e-06
0.000102726
-1.67662e-06
0.000102929
-1.98347e-06
0.000103142
-2.34289e-06
0.000103362
-2.74437e-06
0.000103586
-3.17551e-06
0.000103813
-3.62658e-06
0.000104043
-4.09267e-06
0.000104276
-4.57355e-06
0.000104512
-5.07209e-06
0.00010475
-5.59258e-06
0.000104987
-6.13945e-06
0.000105219
-6.71652e-06
0.000105442
-7.32673e-06
0.000105649
-7.97196e-06
0.000105831
-8.65292e-06
0.000105981
-9.36898e-06
0.000106087
-1.01179e-05
0.000106138
-1.08956e-05
0.000106121
-1.16958e-05
0.000106024
-1.25104e-05
-1.33284e-05
0.000105836
0.000104507
-3.99857e-08
0.000104527
-1.22919e-07
0.00010456
-2.12289e-07
0.000104605
-3.12344e-07
0.000104661
-4.25956e-07
0.000104726
-5.54385e-07
0.0001048
-6.96136e-07
0.000104885
-8.47327e-07
0.000104983
-1.00533e-06
0.0001051
-1.17345e-06
0.000105238
-1.36235e-06
0.000105398
-1.58643e-06
0.000105579
-1.85746e-06
0.000105775
-2.17955e-06
0.000105981
-2.54842e-06
0.000106191
-2.95435e-06
0.000106402
-3.38666e-06
0.000106613
-3.83728e-06
0.000106822
-4.3024e-06
0.000107031
-4.782e-06
0.000107237
-5.27856e-06
0.00010744
-5.79549e-06
0.000107637
-6.33612e-06
0.000107824
-6.90312e-06
0.000107995
-7.49821e-06
0.000108145
-8.12209e-06
0.000108267
-8.77432e-06
0.000108351
-9.45318e-06
0.000108388
-1.01555e-05
0.00010837
-1.08767e-05
0.000108284
-1.16103e-05
0.000108122
-1.23484e-05
-1.30813e-05
0.000107875
0.000107492
-4.63655e-08
0.000107511
-1.41846e-07
0.000107542
-2.43235e-07
0.000107584
-3.54462e-07
0.000107637
-4.78184e-07
0.000107698
-6.15626e-07
0.000107768
-7.65882e-07
0.000107847
-9.26688e-07
0.000107939
-1.09755e-06
0.000108049
-1.28303e-06
0.000108179
-1.49307e-06
0.000108332
-1.73931e-06
0.000108505
-2.02993e-06
0.000108692
-2.36631e-06
0.000108886
-2.74313e-06
0.000109083
-3.1514e-06
0.000109279
-3.58211e-06
0.00010947
-4.02897e-06
0.000109657
-4.4893e-06
0.000109839
-4.96345e-06
0.000110014
-5.45354e-06
0.000110181
-5.9622e-06
0.000110336
-6.49177e-06
0.000110477
-7.04384e-06
0.000110598
-7.61911e-06
0.000110693
-8.21728e-06
0.000110756
-8.83701e-06
0.000110778
-9.47585e-06
0.000110753
-1.01301e-05
0.000110671
-1.07948e-05
0.000110524
-1.14638e-05
0.000110306
-1.21296e-05
-1.27838e-05
0.000110008
0.000110563
-5.23601e-08
0.000110581
-1.59544e-07
0.000110609
-2.72069e-07
0.000110649
-3.93646e-07
0.000110697
-5.26712e-07
0.000110754
-6.72418e-07
0.000110818
-8.30407e-07
0.000110892
-9.99992e-07
0.000110977
-1.1828e-06
0.000111079
-1.38471e-06
0.000111201
-1.61497e-06
0.000111344
-1.88243e-06
0.000111505
-2.19164e-06
0.00011168
-2.54103e-06
0.000111861
-2.92416e-06
0.000112042
-3.33263e-06
0.000112219
-3.75911e-06
0.000112389
-4.19908e-06
0.000112551
-4.65109e-06
0.000112704
-5.11594e-06
0.000112846
-5.59548e-06
0.000112975
-6.09166e-06
0.000113089
-6.60592e-06
0.000113184
-7.13892e-06
0.000113256
-7.69048e-06
0.000113298
-8.25953e-06
0.000113305
-8.84407e-06
0.00011327
-9.44114e-06
0.000113187
-1.00468e-05
0.000113048
-1.06561e-05
0.000112848
-1.12631e-05
0.000112579
-1.18612e-05
-1.24431e-05
0.000112238
0.000113721
-5.79187e-08
0.000113737
-1.75899e-07
0.000113764
-2.98633e-07
0.0001138
-4.29671e-07
0.000113845
-5.71237e-07
0.000113896
-7.24375e-07
0.000113955
-8.89228e-07
0.000114022
-1.06662e-06
0.000114099
-1.26027e-06
0.000114192
-1.47739e-06
0.000114304
-1.72656e-06
0.000114435
-2.01389e-06
0.000114584
-2.34026e-06
0.000114744
-2.70112e-06
0.000114908
-3.08876e-06
0.000115071
-3.49532e-06
0.000115227
-3.91505e-06
0.000115373
-4.34524e-06
0.000115508
-4.78571e-06
0.00011563
-5.23777e-06
0.000115737
-5.70313e-06
0.000115829
-6.18313e-06
0.000115901
-6.67844e-06
0.000115951
-7.18894e-06
0.000115975
-7.71372e-06
0.000115966
-8.25111e-06
0.000115921
-8.79867e-06
0.000115833
-9.35315e-06
0.000115697
-9.91055e-06
0.000115507
-1.04661e-05
0.000115258
-1.10144e-05
0.000114946
-1.15495e-05
-1.20651e-05
0.000114568
0.000116969
-6.29972e-08
0.000116984
-1.908e-07
0.000117008
-3.22761e-07
0.000117041
-4.62304e-07
0.000117081
-6.11447e-07
0.000117128
-7.71101e-07
0.000117181
-9.41859e-07
0.00011724
-1.12599e-06
0.000117309
-1.3292e-06
0.000117392
-1.56003e-06
0.000117491
-1.82644e-06
0.000117609
-2.13189e-06
0.000117743
-2.47363e-06
0.000117886
-2.84413e-06
0.000118031
-3.23435e-06
0.000118173
-3.63687e-06
0.000118305
-4.0475e-06
0.000118425
-4.46528e-06
0.000118531
-4.89133e-06
0.000118621
-5.32754e-06
0.000118693
-5.77554e-06
0.000118746
-6.23621e-06
0.000118777
-6.70954e-06
0.000118783
-7.19478e-06
0.00011876
-7.69045e-06
0.000118703
-8.19444e-06
0.000118609
-8.70402e-06
0.000118471
-9.21586e-06
0.000118287
-9.72602e-06
0.000118051
-1.02301e-05
0.000117759
-1.07231e-05
0.00011741
-1.11998e-05
-1.16552e-05
0.000117
0.000120311
-6.75558e-08
0.000120324
-2.04137e-07
0.000120345
-3.44283e-07
0.000120374
-4.9131e-07
0.00012041
-6.47028e-07
0.000120451
-8.12205e-07
0.000120497
-9.87826e-07
0.000120549
-1.17749e-06
0.000120608
-1.38883e-06
0.00012068
-1.63163e-06
0.000120767
-1.9133e-06
0.00012087
-2.23475e-06
0.000120986
-2.58973e-06
0.000121109
-2.96777e-06
0.000121233
-3.35851e-06
0.000121351
-3.75489e-06
0.000121458
-4.15422e-06
0.00012155
-4.55723e-06
0.000121625
-4.96635e-06
0.000121682
-5.38408e-06
0.000121718
-5.81205e-06
0.000121733
-6.25076e-06
0.000121723
-6.69969e-06
0.000121686
-7.15756e-06
0.000121618
-7.62246e-06
0.000121515
-8.09199e-06
0.000121375
-8.56329e-06
0.000121192
-9.03303e-06
0.000120963
-9.49749e-06
0.000120686
-9.95257e-06
0.000120357
-1.03939e-05
0.000119974
-1.0817e-05
-1.12177e-05
0.000119536
0.000123747
-7.15568e-08
0.000123759
-2.15805e-07
0.000123778
-3.63032e-07
0.000123803
-5.16449e-07
0.000123833
-6.77671e-07
0.000123868
-8.47301e-07
0.000123907
-1.02667e-06
0.00012395
-1.2206e-06
0.000124
-1.43848e-06
0.00012406
-1.6913e-06
0.000124132
-1.98594e-06
0.000124219
-2.32091e-06
0.000124315
-2.68666e-06
0.000124418
-3.06992e-06
0.000124518
-3.45902e-06
0.00012461
-3.84723e-06
0.000124689
-4.23324e-06
0.000124752
-4.61941e-06
0.000124795
-5.00945e-06
0.000124817
-5.40648e-06
0.000124817
-5.81223e-06
0.000124793
-6.2269e-06
0.000124743
-6.64957e-06
0.000124664
-7.07855e-06
0.000124554
-7.51164e-06
0.000124408
-7.94626e-06
0.000124224
-8.37952e-06
0.000123999
-8.80821e-06
0.000123731
-9.22885e-06
0.000123416
-9.63776e-06
0.000123053
-1.00311e-05
0.000122641
-1.04051e-05
-1.07562e-05
0.00012218
0.000127282
-7.49648e-08
0.000127292
-2.25698e-07
0.000127308
-3.7884e-07
0.000127329
-5.37492e-07
0.000127354
-7.03075e-07
0.000127383
-8.76025e-07
0.000127414
-1.05796e-06
0.000127448
-1.25478e-06
0.000127487
-1.47751e-06
0.000127534
-1.73819e-06
0.000127592
-2.04325e-06
0.00012766
-2.38897e-06
0.000127736
-2.76273e-06
0.000127814
-3.14868e-06
0.000127889
-3.53389e-06
0.000127954
-3.91195e-06
0.000128004
-4.2828e-06
0.000128034
-4.65037e-06
0.000128045
-5.01954e-06
0.000128032
-5.39411e-06
0.000127996
-5.7759e-06
0.000127934
-6.16496e-06
0.000127844
-6.56003e-06
0.000127725
-6.95915e-06
0.000127573
-7.35992e-06
0.000127387
-7.75969e-06
0.000127163
-8.15562e-06
0.000126899
-8.54467e-06
0.000126594
-8.92366e-06
0.000126246
-9.28932e-06
0.000125853
-9.63835e-06
0.000125415
-9.9675e-06
-1.0274e-05
0.000124933
0.000130918
-7.77455e-08
0.000130926
-2.33719e-07
0.000130938
-3.91546e-07
0.000130955
-5.54217e-07
0.000130975
-7.22958e-07
0.000130997
-8.98036e-07
0.00013102
-1.08129e-06
0.000131045
-1.27959e-06
0.000131073
-1.50534e-06
0.000131106
-1.77157e-06
0.000131147
-2.08424e-06
0.000131196
-2.43765e-06
0.00013125
-2.81642e-06
0.000131303
-3.20233e-06
0.000131351
-3.58137e-06
0.000131386
-3.94735e-06
0.000131405
-4.30142e-06
0.000131403
-4.6489e-06
0.00013138
-4.99579e-06
0.000131332
-5.34653e-06
0.000131259
-5.70309e-06
0.00013116
-6.06542e-06
0.000131032
-6.43205e-06
0.000130873
-6.80081e-06
0.000130683
-7.16922e-06
0.000130458
-7.53462e-06
0.000130196
-7.89429e-06
0.000129897
-8.2454e-06
0.000129558
-8.58508e-06
0.00012918
-8.91047e-06
0.00012876
-9.21872e-06
0.0001283
-9.50712e-06
-9.77346e-06
0.000127799
0.000134657
-7.98671e-08
0.000134663
-2.39772e-07
0.000134673
-4.01001e-07
0.000134685
-5.66419e-07
0.000134699
-7.37064e-07
0.000134714
-9.13028e-07
0.000134729
-1.09632e-06
0.000134744
-1.29461e-06
0.00013476
-1.5215e-06
0.000134779
-1.7908e-06
0.000134803
-2.10806e-06
0.000134832
-2.46587e-06
0.000134862
-2.84641e-06
0.000134889
-3.22942e-06
0.000134907
-3.59994e-06
0.000134912
-3.95203e-06
0.000134898
-4.28788e-06
0.000134863
-4.61406e-06
0.000134805
-4.93762e-06
0.000134722
-5.26354e-06
0.000134613
-5.59401e-06
0.000134477
-5.92892e-06
0.000134311
-6.26668e-06
0.000134116
-6.60502e-06
0.000133888
-6.94141e-06
0.000133626
-7.27328e-06
0.00013333
-7.59804e-06
0.000132998
-7.91311e-06
0.000132629
-8.21592e-06
0.000132222
-8.50399e-06
0.000131778
-8.77491e-06
0.000131298
-9.02642e-06
-9.25678e-06
0.000130781
0.000138504
-8.12962e-08
0.000138508
-2.43763e-07
0.000138514
-4.07054e-07
0.000138521
-5.73904e-07
0.000138529
-7.45158e-07
0.000138537
-9.20734e-07
0.000138543
-1.10276e-06
0.000138548
-1.29953e-06
0.000138552
-1.52559e-06
0.000138557
-1.79536e-06
0.000138563
-2.11404e-06
0.00013857
-2.47272e-06
0.000138575
-2.8516e-06
0.000138574
-3.22873e-06
0.000138563
-3.58837e-06
0.000138536
-3.92484e-06
0.000138489
-4.24122e-06
0.00013842
-4.54518e-06
0.000138327
-4.84464e-06
0.000138209
-5.14512e-06
0.000138064
-5.44902e-06
0.000137891
-5.75621e-06
0.000137689
-6.06505e-06
0.000137458
-6.37325e-06
0.000137194
-6.6783e-06
0.000136899
-6.97774e-06
0.00013657
-7.26915e-06
0.000136207
-7.55021e-06
0.00013581
-7.81864e-06
0.000135378
-8.0723e-06
0.000134912
-8.30917e-06
0.000134413
-8.52739e-06
-8.72562e-06
0.000133882
0.00014246
-8.20102e-08
0.000142462
-2.45619e-07
0.000142464
-4.09601e-07
0.000142467
-5.76537e-07
0.000142469
-7.47073e-07
0.000142469
-9.20951e-07
0.000142467
-1.10036e-06
0.000142461
-1.29406e-06
0.000142453
-1.51726e-06
0.000142442
-1.78483e-06
0.00014243
-2.1016e-06
0.000142415
-2.45749e-06
0.000142394
-2.83114e-06
0.000142365
-3.19931e-06
0.000142322
-3.54571e-06
0.000142262
-3.86492e-06
0.000142182
-4.16077e-06
0.000142078
-4.44182e-06
0.000141951
-4.71673e-06
0.000141797
-4.99147e-06
0.000141616
-5.26862e-06
0.000141408
-5.54811e-06
0.000141172
-5.82831e-06
0.000140905
-6.10694e-06
0.000140609
-6.38158e-06
0.000140281
-6.64989e-06
0.000139921
-6.90967e-06
0.00013953
-7.15882e-06
0.000139107
-7.39536e-06
0.000138652
-7.61744e-06
0.000138166
-7.82338e-06
0.00013765
-8.01167e-06
-8.18127e-06
0.000137106
0.000146529
-8.19473e-08
0.000146529
-2.45199e-07
0.000146528
-4.08445e-07
0.000146525
-5.74106e-07
0.000146521
-7.42612e-07
0.000146513
-9.13522e-07
0.000146502
-1.08902e-06
0.000146486
-1.27812e-06
0.000146465
-1.49644e-06
0.000146439
-1.75904e-06
0.000146408
-2.07045e-06
0.000146371
-2.41972e-06
0.000146324
-2.78443e-06
0.000146265
-3.14049e-06
0.000146191
-3.47131e-06
0.000146097
-3.77169e-06
0.000145983
-4.0461e-06
0.000145845
-4.30377e-06
0.000145682
-4.55393e-06
0.000145493
-4.80288e-06
0.000145278
-5.0534e-06
0.000145035
-5.3055e-06
0.000144765
-5.55758e-06
0.000144465
-5.80746e-06
0.000144136
-6.05281e-06
0.000143778
-6.29147e-06
0.00014339
-6.52142e-06
0.000142972
-6.74079e-06
0.000142524
-6.94787e-06
0.000142048
-7.14109e-06
0.000141544
-7.31905e-06
0.000141012
-7.4805e-06
-7.6247e-06
0.000140456
0.000150715
-8.11752e-08
0.000150712
-2.4258e-07
0.000150708
-4.03687e-07
0.0001507
-5.66695e-07
0.000150689
-7.31781e-07
0.000150674
-8.98334e-07
0.000150654
-1.0685e-06
0.000150627
-1.25139e-06
0.000150593
-1.46276e-06
0.000150552
-1.71763e-06
0.000150502
-2.02023e-06
0.000150441
-2.35906e-06
0.000150368
-2.71112e-06
0.000150279
-3.05194e-06
0.000150173
-3.36487e-06
0.000150046
-3.64499e-06
0.000149897
-3.89718e-06
0.000149724
-4.13118e-06
0.000149527
-4.35656e-06
0.000149304
-4.57989e-06
0.000149055
-4.80411e-06
0.000148779
-5.02932e-06
0.000148475
-5.25402e-06
0.000148144
-5.47612e-06
0.000147784
-5.69345e-06
0.000147397
-5.90401e-06
0.000146981
-6.10598e-06
0.000146538
-6.2977e-06
0.000146068
-6.47769e-06
0.000145572
-6.64463e-06
0.00014505
-6.79735e-06
0.000144504
-6.93485e-06
-7.05659e-06
0.000143936
0.00015502
-7.92776e-08
0.000155014
-2.37089e-07
0.000155005
-3.94618e-07
0.000154992
-5.53813e-07
0.000154975
-7.14446e-07
0.000154952
-8.75626e-07
0.000154923
-1.03935e-06
0.000154886
-1.2146e-06
0.00015484
-1.41695e-06
0.000154784
-1.66121e-06
0.000154715
-1.95135e-06
0.000154632
-2.27571e-06
0.000154532
-2.61125e-06
0.000154414
-2.9336e-06
0.000154275
-3.22632e-06
0.000154115
-3.48475e-06
0.000153932
-3.71407e-06
0.000153725
-3.92421e-06
0.000153493
-4.12496e-06
0.000153236
-4.32302e-06
0.000152954
-4.52144e-06
0.000152645
-4.72044e-06
0.000152309
-4.91864e-06
0.000151947
-5.11409e-06
0.000151559
-5.30477e-06
0.000151143
-5.48885e-06
0.000150702
-5.66469e-06
0.000150235
-5.83084e-06
0.000149744
-5.98603e-06
0.000149228
-6.12912e-06
0.00014869
-6.25917e-06
0.000148131
-6.37537e-06
-6.47732e-06
0.000147551
0.000159449
-7.73507e-08
0.000159442
-2.30083e-07
0.00015943
-3.82474e-07
0.000159412
-5.36123e-07
0.000159388
-6.9051e-07
0.000159357
-8.4461e-07
0.000159318
-1.0003e-06
0.00015927
-1.16628e-06
0.00015921
-1.35766e-06
0.000159138
-1.58875e-06
0.00015905
-1.86325e-06
0.000158944
-2.16959e-06
0.000158817
-2.48514e-06
0.00015867
-2.78608e-06
0.0001585
-3.05645e-06
0.000158307
-3.29189e-06
0.000158091
-3.49769e-06
0.00015785
-3.68384e-06
0.000157586
-3.86011e-06
0.000157296
-4.03327e-06
0.000156981
-4.20644e-06
0.00015664
-4.37996e-06
0.000156274
-4.5526e-06
0.000155883
-4.72255e-06
0.000155466
-4.88797e-06
0.000155024
-5.04718e-06
0.000154558
-5.19872e-06
0.000154069
-5.34131e-06
0.000153557
-5.47384e-06
0.000153023
-5.59538e-06
0.000152469
-5.70513e-06
0.000151896
-5.80244e-06
-5.88704e-06
0.000151306
0.000164
-7.14748e-08
0.000163987
-2.17116e-07
0.000163969
-3.64095e-07
0.000163946
-5.1284e-07
0.000163917
-6.61413e-07
0.00016388
-8.08275e-07
0.000163835
-9.55156e-07
0.000163779
-1.11039e-06
0.00016371
-1.28845e-06
0.000163624
-1.50307e-06
0.000163519
-1.75788e-06
0.000163391
-2.04185e-06
0.000163239
-2.33337e-06
0.000163063
-2.60963e-06
0.000162862
-2.85535e-06
0.000162636
-3.06642e-06
0.000162387
-3.24808e-06
0.000162113
-3.41012e-06
0.000161815
-3.56215e-06
0.000161493
-3.71089e-06
0.000161146
-3.85948e-06
0.000160774
-4.0084e-06
0.000160378
-4.15655e-06
0.000159958
-4.30228e-06
0.000159514
-4.4439e-06
0.000159046
-4.57988e-06
0.000158557
-4.70891e-06
0.000158045
-4.82987e-06
0.000157513
-4.94181e-06
0.000156962
-5.04393e-06
0.000156392
-5.13557e-06
0.000155806
-5.21621e-06
-5.28566e-06
0.000155205
0.000168692
-7.21474e-08
0.000168682
-2.07133e-07
0.000168662
-3.44028e-07
0.000168633
-4.83149e-07
0.000168594
-6.22461e-07
0.000168545
-7.59861e-07
0.000168487
-8.96466e-07
0.000168416
-1.03981e-06
0.000168331
-1.2034e-06
0.000168228
-1.40014e-06
0.000168104
-1.6334e-06
0.000167955
-1.89282e-06
0.000167779
-2.158e-06
0.000167577
-2.40745e-06
0.000167348
-2.62677e-06
0.000167094
-2.81218e-06
0.000166815
-2.9688e-06
0.000166511
-3.10618e-06
0.000166183
-3.23371e-06
0.00016583
-3.35803e-06
0.000165453
-3.48236e-06
0.000165051
-3.60726e-06
0.000164627
-3.73179e-06
0.000164179
-3.85442e-06
0.000163708
-3.97357e-06
0.000163216
-4.08784e-06
0.000162704
-4.19605e-06
0.000162171
-4.29718e-06
0.00016162
-4.39041e-06
0.000161051
-4.47505e-06
0.000160466
-4.55057e-06
0.000159866
-4.61653e-06
-4.67279e-06
0.000159253
0.000173489
-5.02129e-08
0.000173461
-1.79238e-07
0.000173433
-3.15822e-07
0.000173404
-4.53964e-07
0.000173369
-5.87757e-07
0.000173325
-7.15948e-07
0.00017327
-8.40742e-07
0.000173199
-9.69456e-07
0.000173111
-1.11468e-06
0.000172999
-1.2886e-06
0.000172861
-1.49485e-06
0.000172692
-1.7244e-06
0.000172493
-1.95871e-06
0.000172263
-2.17785e-06
0.000172005
-2.36831e-06
0.000171719
-2.52647e-06
0.000171407
-2.65717e-06
0.000171071
-2.76954e-06
0.00017071
-2.87268e-06
0.000170325
-2.97308e-06
0.000169916
-3.07393e-06
0.000169485
-3.17587e-06
0.000169031
-3.27803e-06
0.000168556
-3.37896e-06
0.000168059
-3.47717e-06
0.000167543
-3.57136e-06
0.000167007
-3.66043e-06
0.000166454
-3.74348e-06
0.000165883
-3.8198e-06
0.000165297
-3.88879e-06
0.000164696
-3.95001e-06
0.000164083
-4.00311e-06
-4.04798e-06
0.000163458
0.000178484
-6.58322e-08
0.000178468
-1.62746e-07
0.000178429
-2.76922e-07
0.000178377
-4.02363e-07
0.000178317
-5.27789e-07
0.000178249
-6.4751e-07
0.000178169
-7.61465e-07
0.000178076
-8.76205e-07
0.000177966
-1.00397e-06
0.000177834
-1.15668e-06
0.000177677
-1.33818e-06
0.000177493
-1.54022e-06
0.000177279
-1.74537e-06
0.000177036
-1.93473e-06
0.000176763
-2.09544e-06
0.000176461
-2.22421e-06
0.00017613
-2.32609e-06
0.000175771
-2.41045e-06
0.000175385
-2.48665e-06
0.000174973
-2.56135e-06
0.000174537
-2.63785e-06
0.000174078
-2.71674e-06
0.000173597
-2.79704e-06
0.000173095
-2.8772e-06
0.000172574
-2.95568e-06
0.000172034
-3.03114e-06
0.000171476
-3.10253e-06
0.000170901
-3.16903e-06
0.000170311
-3.22999e-06
0.000169708
-3.28491e-06
0.000169091
-3.33341e-06
0.000168463
-3.37521e-06
-3.41022e-06
0.000167825
0.000183489
1.2549e-08
0.000183449
-1.22836e-07
0.000183428
-2.56031e-07
0.000183412
-3.86026e-07
0.000183384
-4.99746e-07
0.00018334
-6.03412e-07
0.000183278
-7.00135e-07
0.000183198
-7.95536e-07
0.000183094
-9.00262e-07
0.000182963
-1.0252e-06
0.000182799
-1.17449e-06
0.0001826
-1.3414e-06
0.000182365
-1.51038e-06
0.000182094
-1.66401e-06
0.000181789
-1.79034e-06
0.000181452
-1.88655e-06
0.000181083
-1.95796e-06
0.000180687
-2.01404e-06
0.000180265
-2.06416e-06
0.000179818
-2.11483e-06
0.000179349
-2.16904e-06
0.00017886
-2.22707e-06
0.00017835
-2.28766e-06
0.000177822
-2.34906e-06