/*--------------------------------*- C++ -*----------------------------------*\
| =========                 |                                                 |
| \\      /  F ield         | OpenFOAM: The Open Source CFD Toolbox           |
|  \\    /   O peration     | Version:  2.1.1                                 |
|   \\  /    A nd           | Web:      www.OpenFOAM.org                      |
|    \\/     M anipulation  |                                                 |
\*---------------------------------------------------------------------------*/
FoamFile
{
    version     2.0;
    format      ascii;
    class       volVectorField;
    location    "0.005";
    object      U;
}
// * * * * * * * * * * * * * * * * * * * * * * * * * * * * * * * * * * * * * //

dimensions      [0 1 -1 0 0 0 0];

internalField   nonuniform List<vector> 
6820
(
(8.34333 -0.360223 0)
(8.40277 -0.247957 0)
(8.36182 -0.116338 0)
(8.26009 -0.0382964 0)
(8.14132 0.00312214 0)
(8.02172 0.0231853 0)
(7.90953 0.0310383 0)
(7.81149 0.0310353 0)
(7.73316 0.0253916 0)
(7.67813 0.0162389 0)
(7.64643 0.00628069 0)
(7.63387 -0.00158165 0)
(7.63267 -0.00569662 0)
(7.63769 -0.00717128 0)
(7.64762 -0.00757913 0)
(7.66235 -0.00768821 0)
(7.68209 -0.00786722 0)
(7.70702 -0.00829459 0)
(7.7372 -0.00904002 0)
(7.7727 -0.0101176 0)
(7.8137 -0.0115219 0)
(7.86055 -0.0132535 0)
(7.91386 -0.015337 0)
(7.97448 -0.017831 0)
(8.04358 -0.0208402 0)
(8.12271 -0.024524 0)
(8.21403 -0.0291359 0)
(8.32032 -0.0350743 0)
(8.44628 -0.0429058 0)
(8.59719 -0.0545286 0)
(8.78754 -0.0686701 0)
(9.02528 -0.11088 0)
(9.38849 -0.103622 0)
(8.3215 0.165943 0)
(8.28738 0.188949 0)
(8.28616 0.130438 0)
(8.31863 0.0923318 0)
(8.36357 0.0700217 0)
(8.40435 0.055535 0)
(8.43547 0.045341 0)
(8.4551 0.0369009 0)
(8.46161 0.0288962 0)
(8.4542 0.0212536 0)
(8.4345 0.0144656 0)
(8.4073 0.009066 0)
(8.38074 0.00496229 0)
(8.3609 0.00109771 0)
(8.35009 -0.00322305 0)
(8.3492 -0.00796205 0)
(8.35814 -0.0129139 0)
(8.37613 -0.0178937 0)
(8.4021 -0.0228268 0)
(8.4351 -0.0277799 0)
(8.47452 -0.0329312 0)
(8.52019 -0.0385241 0)
(8.5724 -0.0448345 0)
(8.63176 -0.0521688 0)
(8.6993 -0.0608891 0)
(8.77633 -0.0714713 0)
(8.86479 -0.0845863 0)
(8.96686 -0.101282 0)
(9.08683 -0.123198 0)
(9.22716 -0.153472 0)
(9.40158 -0.19698 0)
(9.60134 -0.26915 0)
(9.88032 -0.379079 0)
(8.32258 -0.0612394 0)
(8.31491 -0.0845112 0)
(8.33308 -0.0561079 0)
(8.34955 -0.0233465 0)
(8.36211 -0.00215578 0)
(8.37541 0.0100429 0)
(8.39015 0.0169396 0)
(8.40551 0.020483 0)
(8.41987 0.021897 0)
(8.43118 0.0218942 0)
(8.43785 0.0205737 0)
(8.43981 0.0175957 0)
(8.43888 0.0125671 0)
(8.438 0.00569575 0)
(8.44021 -0.00245665 0)
(8.44763 -0.0113738 0)
(8.46133 -0.0205243 0)
(8.48159 -0.029512 0)
(8.50822 -0.0382179 0)
(8.54092 -0.0468032 0)
(8.57949 -0.0556199 0)
(8.62398 -0.0651108 0)
(8.67472 -0.0757513 0)
(8.73232 -0.0880483 0)
(8.79764 -0.102582 0)
(8.87185 -0.120105 0)
(8.95655 -0.141629 0)
(9.05353 -0.168763 0)
(9.16582 -0.20366 0)
(9.29542 -0.250953 0)
(9.44915 -0.314919 0)
(9.62222 -0.414472 0)
(9.83294 -0.545117 0)
(8.33374 0.0139681 0)
(8.33095 0.0456219 0)
(8.33059 0.0500708 0)
(8.33461 0.0416501 0)
(8.34425 0.0342895 0)
(8.35674 0.0293057 0)
(8.3703 0.0255125 0)
(8.3844 0.0221688 0)
(8.39843 0.0191638 0)
(8.41137 0.0166076 0)
(8.42241 0.0143462 0)
(8.4314 0.0116721 0)
(8.43903 0.00755418 0)
(8.44671 0.00116882 0)
(8.45617 -0.00759566 0)
(8.46897 -0.0182007 0)
(8.48622 -0.029792 0)
(8.50851 -0.041657 0)
(8.53604 -0.053474 0)
(8.56888 -0.0653283 0)
(8.60711 -0.0775996 0)
(8.65094 -0.0908248 0)
(8.70074 -0.10561 0)
(8.75707 -0.122617 0)
(8.8207 -0.142604 0)
(8.89262 -0.166532 0)
(8.9741 -0.195675 0)
(9.06653 -0.231921 0)
(9.17196 -0.277843 0)
(9.29152 -0.337941 0)
(9.42849 -0.417319 0)
(9.57846 -0.528877 0)
(9.7463 -0.675145 0)
(8.3302 -0.00602009 0)
(8.32799 -0.00944725 0)
(8.33436 -0.00668108 0)
(8.34229 0.00158131 0)
(8.35037 0.00846495 0)
(8.35957 0.0119161 0)
(8.37008 0.0128608 0)
(8.38171 0.0124472 0)
(8.3939 0.0116095 0)
(8.4059 0.0108937 0)
(8.41722 0.0101121 0)
(8.42786 0.00827004 0)
(8.43833 0.00409472 0)
(8.44955 -0.00319594 0)
(8.4626 -0.0135867 0)
(8.47849 -0.0263162 0)
(8.498 -0.0403836 0)
(8.52166 -0.0549767 0)
(8.54981 -0.0697181 0)
(8.58268 -0.0846921 0)
(8.62049 -0.100325 0)
(8.66354 -0.117233 0)
(8.71221 -0.136124 0)
(8.767 -0.157779 0)
(8.82857 -0.183094 0)
(8.8977 -0.21318 0)
(8.97535 -0.249483 0)
(9.06246 -0.294033 0)
(9.16023 -0.34951 0)
(9.26903 -0.42013 0)
(9.38978 -0.510595 0)
(9.51843 -0.630398 0)
(9.65428 -0.782265 0)
(8.33256 0.00127664 0)
(8.33227 0.0106138 0)
(8.33573 0.0158251 0)
(8.34141 0.0166449 0)
(8.34885 0.0158288 0)
(8.35797 0.0141856 0)
(8.36827 0.0120068 0)
(8.37942 0.00964447 0)
(8.39108 0.00759995 0)
(8.40284 0.00616034 0)
(8.41453 0.00490324 0)
(8.4263 0.00264599 0)
(8.4386 -0.00205313 0)
(8.45205 -0.0101317 0)
(8.46734 -0.0216793 0)
(8.48514 -0.0360044 0)
(8.50602 -0.0520781 0)
(8.53045 -0.0690258 0)
(8.55881 -0.0864194 0)
(8.59141 -0.104324 0)
(8.62853 -0.123178 0)
(8.6705 -0.143641 0)
(8.71765 -0.166486 0)
(8.77044 -0.192578 0)
(8.82936 -0.222902 0)
(8.89497 -0.258664 0)
(8.96791 -0.301386 0)
(9.04871 -0.3531 0)
(9.13785 -0.416405 0)
(9.23503 -0.494983 0)
(9.33975 -0.592914 0)
(9.44815 -0.716796 0)
(9.55733 -0.869184 0)
(8.33241 -0.000302926 0)
(8.33246 0.00186104 0)
(8.33631 0.0042739 0)
(8.34236 0.00630956 0)
(8.34967 0.00754182 0)
(8.35823 0.00732401 0)
(8.36785 0.00582648 0)
(8.37835 0.00373596 0)
(8.3895 0.00182449 0)
(8.4011 0.000445448 0)
(8.41311 -0.000873966 0)
(8.42572 -0.00341752 0)
(8.43929 -0.00870063 0)
(8.45425 -0.0177209 0)
(8.47102 -0.0305563 0)
(8.49006 -0.0464956 0)
(8.51177 -0.0644911 0)
(8.53658 -0.083652 0)
(8.56483 -0.10354 0)
(8.59687 -0.124219 0)
(8.63299 -0.14614 0)
(8.67351 -0.169989 0)
(8.71871 -0.19658 0)
(8.76895 -0.226825 0)
(8.82456 -0.261759 0)
(8.88591 -0.302618 0)
(8.95329 -0.350917 0)
(9.02687 -0.408586 0)
(9.10654 -0.477994 0)
(9.1915 -0.562222 0)
(9.28043 -0.664572 0)
(9.36963 -0.789541 0)
(9.4556 -0.939007 0)
(8.33281 0.000455808 0)
(8.33349 0.00331071 0)
(8.33698 0.00570569 0)
(8.34242 0.00665343 0)
(8.34922 0.00632032 0)
(8.35735 0.00472718 0)
(8.36659 0.00217869 0)
(8.37674 -0.000686001 0)
(8.38767 -0.00319123 0)
(8.39928 -0.00508735 0)
(8.41167 -0.00695787 0)
(8.42503 -0.0101748 0)
(8.43962 -0.0162927 0)
(8.4557 -0.026331 0)
(8.47353 -0.0403929 0)
(8.49337 -0.0577957 0)
(8.51555 -0.0775189 0)
(8.54039 -0.0986878 0)
(8.56824 -0.120869 0)
(8.59942 -0.144123 0)
(8.63423 -0.168902 0)
(8.67292 -0.1959 0)
(8.71573 -0.225944 0)
(8.7629 -0.25996 0)
(8.81462 -0.29899 0)
(8.87104 -0.344244 0)
(8.93219 -0.397163 0)
(8.99788 -0.459494 0)
(9.06761 -0.533297 0)
(9.14022 -0.62104 0)
(9.21395 -0.725255 0)
(9.28535 -0.8489 0)
(9.35102 -0.993119 0)
(8.33291 0.000246412 0)
(8.33381 0.00170208 0)
(8.33712 0.00284315 0)
(8.34229 0.00303719 0)
(8.3488 0.00225799 0)
(8.35654 0.000340804 0)
(8.36535 -0.00253603 0)
(8.37509 -0.00577029 0)
(8.38573 -0.0086954 0)
(8.3973 -0.0110819 0)
(8.40995 -0.0135646 0)
(8.42386 -0.0175388 0)
(8.4392 -0.0245574 0)
(8.45608 -0.0356329 0)
(8.47462 -0.0508808 0)
(8.49494 -0.0696494 0)
(8.51726 -0.0909564 0)
(8.54186 -0.113957 0)
(8.56904 -0.138233 0)
(8.5991 -0.163844 0)
(8.63228 -0.191235 0)
(8.66881 -0.221092 0)
(8.70885 -0.254233 0)
(8.75253 -0.291569 0)
(8.7999 -0.334109 0)
(8.85092 -0.382995 0)
(8.9054 -0.43954 0)
(8.96288 -0.505266 0)
(9.02259 -0.581881 0)
(9.08315 -0.671288 0)
(9.14267 -0.77532 0)
(9.19801 -0.895824 0)
(9.24614 -1.03331 0)
(8.33301 0.00012624 0)
(8.33408 0.000885035 0)
(8.33722 0.00134618 0)
(8.34205 0.000906283 0)
(8.34818 -0.000553049 0)
(8.35548 -0.00313931 0)
(8.36385 -0.00664844 0)
(8.37318 -0.010505 0)
(8.3835 -0.0140707 0)
(8.39494 -0.0171718 0)
(8.40771 -0.0204772 0)
(8.42196 -0.0253791 0)
(8.43779 -0.0334034 0)
(8.45519 -0.0455434 0)
(8.47414 -0.0619278 0)
(8.49466 -0.081948 0)
(8.51687 -0.104677 0)
(8.54098 -0.129313 0)
(8.56725 -0.15546 0)
(8.59593 -0.183178 0)
(8.62723 -0.212896 0)
(8.66131 -0.245277 0)
(8.69828 -0.28111 0)
(8.73815 -0.321266 0)
(8.78086 -0.366688 0)
(8.8262 -0.418418 0)
(8.87382 -0.477608 0)
(8.92308 -0.545533 0)
(8.97304 -0.623552 0)
(9.02224 -0.713068 0)
(9.06882 -0.815322 0)
(9.10999 -0.931369 0)
(9.14321 -1.06123 0)
(8.33305 -9.59613e-05 0)
(8.33419 -0.0001135 0)
(8.33715 -0.00046296 0)
(8.34169 -0.00161553 0)
(8.34746 -0.00372127 0)
(8.35437 -0.00687479 0)
(8.36229 -0.0109176 0)
(8.37117 -0.0153366 0)
(8.3811 -0.0195552 0)
(8.39229 -0.0234446 0)
(8.40498 -0.0276787 0)
(8.41933 -0.0336101 0)
(8.43537 -0.0427052 0)
(8.45301 -0.0559181 0)
(8.4721 -0.0733844 0)
(8.49256 -0.094543 0)
(8.51442 -0.118531 0)
(8.53782 -0.1446 0)
(8.56295 -0.172381 0)
(8.59003 -0.201935 0)
(8.61922 -0.233668 0)
(8.65064 -0.268208 0)
(8.68431 -0.306298 0)
(8.72016 -0.348746 0)
(8.75803 -0.39641 0)
(8.79761 -0.450208 0)
(8.8384 -0.511115 0)
(8.87966 -0.58016 0)
(8.92037 -0.658376 0)
(8.9591 -0.746742 0)
(8.99412 -0.846023 0)
(9.02301 -0.956716 0)
(9.0437 -1.0785 0)
(8.33308 -0.000351224 0)
(8.33423 -0.00105476 0)
(8.33703 -0.00211003 0)
(8.34127 -0.00390748 0)
(8.34669 -0.00662298 0)
(8.35318 -0.010356 0)
(8.36065 -0.0149701 0)
(8.36906 -0.0200069 0)
(8.37854 -0.0249581 0)
(8.38935 -0.0297406 0)
(8.40179 -0.035021 0)
(8.41601 -0.0420877 0)
(8.43202 -0.0523217 0)
(8.44963 -0.0666196 0)
(8.4686 -0.0851158 0)
(8.48875 -0.107299 0)
(8.51003 -0.132378 0)
(8.53249 -0.159668 0)
(8.55629 -0.188832 0)
(8.58158 -0.219931 0)
(8.60848 -0.253347 0)
(8.63705 -0.289661 0)
(8.66727 -0.329557 0)
(8.69899 -0.373763 0)
(8.73197 -0.423038 0)
(8.76581 -0.478164 0)
(8.79994 -0.539939 0)
(8.83359 -0.609158 0)
(8.86571 -0.686564 0)
(8.89496 -0.77279 0)
(8.9198 -0.868234 0)
(8.93815 -0.973008 0)
(8.94841 -1.08657 0)
(8.33309 -0.000626193 0)
(8.33422 -0.00198703 0)
(8.33685 -0.00372616 0)
(8.34081 -0.00616303 0)
(8.34588 -0.00947983 0)
(8.35196 -0.0137771 0)
(8.35897 -0.0189441 0)
(8.36688 -0.0245916 0)
(8.37586 -0.0302939 0)
(8.3862 -0.0360203 0)
(8.39822 -0.0424201 0)
(8.41211 -0.050696 0)
(8.42783 -0.0621181 0)
(8.44516 -0.077504 0)
(8.46376 -0.0969751 0)
(8.48336 -0.120068 0)
(8.50384 -0.146067 0)
(8.52517 -0.17436 0)
(8.54744 -0.204646 0)
(8.57077 -0.236991 0)
(8.59523 -0.271746 0)
(8.62084 -0.309439 0)
(8.64751 -0.350684 0)
(8.67506 -0.396123 0)
(8.70318 -0.446405 0)
(8.73142 -0.502174 0)
(8.75919 -0.564058 0)
(8.78569 -0.63264 0)
(8.80994 -0.70842 0)
(8.83072 -0.791753 0)
(8.84667 -0.882766 0)
(8.85609 -0.98131 0)
(8.85772 -1.08672 0)
(8.33309 -0.00090732 0)
(8.33418 -0.00289058 0)
(8.33664 -0.00526955 0)
(8.34032 -0.00831424 0)
(8.34505 -0.0122056 0)
(8.35072 -0.0170468 0)
(8.35725 -0.0227546 0)
(8.36465 -0.0290112 0)
(8.37307 -0.035481 0)
(8.38285 -0.0421894 0)
(8.39433 -0.0497637 0)
(8.40771 -0.0593053 0)
(8.42293 -0.0719515 0)
(8.43974 -0.0884211 0)
(8.45773 -0.108809 0)
(8.47656 -0.132694 0)
(8.49601 -0.159442 0)
(8.51602 -0.188515 0)
(8.5366 -0.219659 0)
(8.55782 -0.252944 0)
(8.57973 -0.288689 0)
(8.60228 -0.327367 0)
(8.62537 -0.369514 0)
(8.64877 -0.41568 0)
(8.67213 -0.466404 0)
(8.695 -0.522196 0)
(8.71676 -0.583525 0)
(8.73665 -0.650795 0)
(8.75378 -0.724301 0)
(8.76706 -0.80419 0)
(8.77534 -0.89039 0)
(8.77721 -0.982588 0)
(8.77174 -1.08007 0)
(8.33309 -0.00118644 0)
(8.33412 -0.00376263 0)
(8.33641 -0.00674678 0)
(8.33982 -0.0103738 0)
(8.34419 -0.0148176 0)
(8.34945 -0.0201816 0)
(8.3555 -0.0264096 0)
(8.36236 -0.0332582 0)
(8.3702 -0.0404886 0)
(8.37934 -0.0481891 0)
(8.39017 -0.0569633 0)
(8.40288 -0.0677996 0)
(8.41742 -0.081685 0)
(8.43349 -0.09922 0)
(8.45064 -0.120459 0)
(8.46848 -0.145017 0)
(8.48672 -0.172341 0)
(8.50522 -0.201973 0)
(8.52396 -0.23371 0)
(8.54296 -0.267628 0)
(8.56222 -0.304019 0)
(8.58168 -0.343295 0)
(8.6012 -0.385913 0)
(8.62052 -0.432331 0)
(8.63929 -0.482978 0)
(8.65705 -0.538242 0)
(8.67321 -0.598453 0)
(8.68706 -0.66386 0)
(8.69781 -0.734597 0)
(8.7045 -0.810655 0)
(8.7062 -0.891828 0)
(8.70175 -0.977707 0)
(8.69049 -1.06758 0)
(8.33309 -0.00145802 0)
(8.33405 -0.004597 0)
(8.33616 -0.0081504 0)
(8.3393 -0.0123289 0)
(8.34332 -0.017297 0)
(8.34816 -0.0231568 0)
(8.35373 -0.0298786 0)
(8.36003 -0.0372941 0)
(8.36725 -0.0452662 0)
(8.37571 -0.0539503 0)
(8.38578 -0.0639267 0)
(8.39769 -0.0760633 0)
(8.41138 -0.0911819 0)
(8.42652 -0.109749 0)
(8.44264 -0.131764 0)
(8.45929 -0.156872 0)
(8.47612 -0.184599 0)
(8.49296 -0.214571 0)
(8.50973 -0.24664 0)
(8.52641 -0.280894 0)
(8.54297 -0.317595 0)
(8.55933 -0.357097 0)
(8.57533 -0.39978 0)
(8.5907 -0.446011 0)
(8.60509 -0.496118 0)
(8.61805 -0.550376 0)
(8.62904 -0.608996 0)
(8.63743 -0.672102 0)
(8.6425 -0.739705 0)
(8.64346 -0.811684 0)
(8.63955 -0.887747 0)
(8.62986 -0.967436 0)
(8.6139 -1.05006 0)
(8.33308 -0.00171824 0)
(8.33397 -0.0053887 0)
(8.33591 -0.0094757 0)
(8.33877 -0.0141733 0)
(8.34244 -0.0196353 0)
(8.34686 -0.0259607 0)
(8.35193 -0.0331448 0)
(8.35767 -0.0410939 0)
(8.36423 -0.0497751 0)
(8.37195 -0.0594149 0)
(8.3812 -0.0705717 0)
(8.3922 -0.0839881 0)
(8.40489 -0.100311 0)
(8.41893 -0.119858 0)
(8.43384 -0.142564 0)
(8.44912 -0.168095 0)
(8.46439 -0.196053 0)
(8.47942 -0.226151 0)
(8.49411 -0.258299 0)
(8.5084 -0.292601 0)
(8.52224 -0.329292 0)
(8.53553 -0.368671 0)
(8.5481 -0.411045 0)
(8.55967 -0.456692 0)
(8.56992 -0.505849 0)
(8.57843 -0.558696 0)
(8.5847 -0.615341 0)
(8.58817 -0.675811 0)
(8.58824 -0.740025 0)
(8.58426 -0.807786 0)
(8.57561 -0.878754 0)
(8.56158 -0.952454 0)
(8.54184 -1.02825 0)
(8.33307 -0.00196428 0)
(8.33388 -0.00613281 0)
(8.33564 -0.0107165 0)
(8.33823 -0.0158978 0)
(8.34156 -0.0218195 0)
(8.34554 -0.0285758 0)
(8.35011 -0.0361852 0)
(8.35526 -0.0446273 0)
(8.36115 -0.0539737 0)
(8.3681 -0.0645247 0)
(8.37647 -0.0768181 0)
(8.38646 -0.0914699 0)
(8.39802 -0.108945 0)
(8.41082 -0.129404 0)
(8.42435 -0.152703 0)
(8.43811 -0.178525 0)
(8.45167 -0.206546 0)
(8.46479 -0.236563 0)
(8.47732 -0.26855 0)
(8.48919 -0.302627 0)
(8.50031 -0.339008 0)
(8.51059 -0.377941 0)
(8.51983 -0.419662 0)
(8.5278 -0.464374 0)
(8.53418 -0.512231 0)
(8.53858 -0.563328 0)
(8.54057 -0.617696 0)
(8.53967 -0.675282 0)
(8.53537 -0.735944 0)
(8.52715 -0.799436 0)
(8.51451 -0.865396 0)
(8.49693 -0.933357 0)
(8.47419 -1.00274 0)
(8.33307 -0.00219393 0)
(8.3338 -0.00682465 0)
(8.33537 -0.0118665 0)
(8.33769 -0.0174933 0)
(8.34066 -0.023837 0)
(8.34421 -0.0309855 0)
(8.34827 -0.0389786 0)
(8.35283 -0.0478664 0)
(8.35803 -0.0578238 0)
(8.36417 -0.0692256 0)
(8.3716 -0.0825911 0)
(8.38051 -0.0984099 0)
(8.39085 -0.116962 0)
(8.40228 -0.138244 0)
(8.4143 -0.16203 0)
(8.4264 -0.188008 0)
(8.43815 -0.215925 0)
(8.44926 -0.245665 0)
(8.45957 -0.277263 0)
(8.469 -0.310861 0)
(8.47744 -0.346657 0)
(8.48478 -0.38485 0)
(8.49085 -0.425616 0)
(8.49542 -0.469086 0)
(8.4982 -0.515346 0)
(8.49885 -0.564422 0)
(8.49699 -0.61628 0)
(8.49222 -0.670813 0)
(8.48413 -0.727835 0)
(8.47229 -0.787074 0)
(8.45634 -0.848167 0)
(8.43587 -0.910667 0)
(8.41077 -0.974054 0)
(8.33306 -0.00240535 0)
(8.33371 -0.00745964 0)
(8.3351 -0.0129188 0)
(8.33715 -0.0189499 0)
(8.33976 -0.0256742 0)
(8.34287 -0.0331722 0)
(8.34641 -0.0415027 0)
(8.35037 -0.0507828 0)
(8.35486 -0.0612876 0)
(8.36018 -0.0734657 0)
(8.36663 -0.0878196 0)
(8.3744 -0.104715 0)
(8.38342 -0.124247 0)
(8.39339 -0.146247 0)
(8.4038 -0.1704 0)
(8.41413 -0.196397 0)
(8.42397 -0.224049 0)
(8.43301 -0.253326 0)
(8.44108 -0.284323 0)
(8.44807 -0.317211 0)
(8.45388 -0.352171 0)
(8.4584 -0.389364 0)
(8.46145 -0.428908 0)
(8.46284 -0.470878 0)
(8.4623 -0.515296 0)
(8.45955 -0.562137 0)
(8.45425 -0.611317 0)
(8.44609 -0.662691 0)
(8.43473 -0.716046 0)
(8.41984 -0.771102 0)
(8.40114 -0.827504 0)
(8.37836 -0.884838 0)
(8.35143 -0.942643 0)
(8.33305 -0.00259687 0)
(8.33362 -0.00803333 0)
(8.33483 -0.0138666 0)
(8.3366 -0.0202576 0)
(8.33885 -0.0273176 0)
(8.34152 -0.0351186 0)
(8.34454 -0.0437359 0)
(8.34789 -0.0533493 0)
(8.35167 -0.0643294 0)
(8.35614 -0.0771963 0)
(8.36158 -0.0924368 0)
(8.36816 -0.110297 0)
(8.37582 -0.130692 0)
(8.38424 -0.153288 0)
(8.39294 -0.177679 0)
(8.40144 -0.203554 0)
(8.4093 -0.230787 0)
(8.41623 -0.259426 0)
(8.42205 -0.289631 0)
(8.42663 -0.321598 0)
(8.42989 -0.355501 0)
(8.4317 -0.391465 0)
(8.43192 -0.429562 0)
(8.43035 -0.469815 0)
(8.42678 -0.512198 0)
(8.42096 -0.556643 0)
(8.41262 -0.603031 0)
(8.40149 -0.651193 0)
(8.38732 -0.700903 0)
(8.36987 -0.751882 0)
(8.34893 -0.803795 0)
(8.3243 -0.856262 0)
(8.29598 -0.908881 0)
(8.33305 -0.00276698 0)
(8.33353 -0.00854132 0)
(8.33456 -0.0147027 0)
(8.33605 -0.0214065 0)
(8.33795 -0.0287536 0)
(8.34017 -0.0368073 0)
(8.34267 -0.0456567 0)
(8.3454 -0.0555392 0)
(8.34847 -0.0669149 0)
(8.35208 -0.080371 0)
(8.3565 -0.0963801 0)
(8.36186 -0.115074 0)
(8.36809 -0.136195 0)
(8.3749 -0.159249 0)
(8.38185 -0.183741 0)
(8.38844 -0.209355 0)
(8.39429 -0.23602 0)
(8.3991 -0.263862 0)
(8.40268 -0.293101 0)
(8.40491 -0.323963 0)
(8.40571 -0.356615 0)
(8.40495 -0.391155 0)
(8.40251 -0.427615 0)
(8.39822 -0.465976 0)
(8.39189 -0.506175 0)
(8.38332 -0.54811 0)
(8.37229 -0.591641 0)
(8.3586 -0.636582 0)
(8.34204 -0.682706 0)
(8.32245 -0.729742 0)
(8.29968 -0.777381 0)
(8.27362 -0.825279 0)
(8.24428 -0.873088 0)
(8.33304 -0.00291421 0)
(8.33344 -0.00897938 0)
(8.33428 -0.0154202 0)
(8.33551 -0.0223865 0)
(8.33704 -0.0299691 0)
(8.33883 -0.0382219 0)
(8.3408 -0.0472454 0)
(8.34292 -0.0573288 0)
(8.34527 -0.0690135 0)
(8.34803 -0.0829488 0)
(8.35141 -0.0995933 0)
(8.35552 -0.118972 0)
(8.36031 -0.140665 0)
(8.36548 -0.164027 0)
(8.37062 -0.188475 0)
(8.37529 -0.213687 0)
(8.3791 -0.239644 0)
(8.38179 -0.266542 0)
(8.38317 -0.294663 0)
(8.38312 -0.324258 0)
(8.38156 -0.355495 0)
(8.37838 -0.388448 0)
(8.37347 -0.423117 0)
(8.36668 -0.45945 0)
(8.35785 -0.497355 0)
(8.34683 -0.536708 0)
(8.33345 -0.577353 0)
(8.31754 -0.619099 0)
(8.29897 -0.661724 0)
(8.27761 -0.704972 0)
(8.25338 -0.748559 0)
(8.22621 -0.792179 0)
(8.19614 -0.835532 0)
(8.33303 -0.0030372 0)
(8.33334 -0.00934333 0)
(8.33401 -0.0160122 0)
(8.33496 -0.0231877 0)
(8.33614 -0.0309508 0)
(8.33749 -0.0393456 0)
(8.33894 -0.0484814 0)
(8.34046 -0.0586928 0)
(8.3421 -0.0705935 0)
(8.344 -0.0848881 0)
(8.34634 -0.102022 0)
(8.34921 -0.12192 0)
(8.35254 -0.144016 0)
(8.35605 -0.167523 0)
(8.35937 -0.191777 0)
(8.36209 -0.216448 0)
(8.36388 -0.241565 0)
(8.36448 -0.267391 0)
(8.36371 -0.294259 0)
(8.36147 -0.322451 0)
(8.35767 -0.352135 0)
(8.35222 -0.383368 0)
(8.34501 -0.416126 0)
(8.33594 -0.45033 0)
(8.32488 -0.485868 0)
(8.31169 -0.5226 0)
(8.29625 -0.560364 0)
(8.27845 -0.598969 0)
(8.25818 -0.638202 0)
(8.23537 -0.677826 0)
(8.20998 -0.717585 0)
(8.18198 -0.757206 0)
(8.15142 -0.796434 0)
(8.33302 -0.00313462 0)
(8.33326 -0.00962935 0)
(8.33374 -0.0164726 0)
(8.33443 -0.0238021 0)
(8.33525 -0.0316892 0)
(8.33617 -0.0401678 0)
(8.33711 -0.0493535 0)
(8.33803 -0.0596188 0)
(8.33897 -0.071639 0)
(8.34003 -0.0861653 0)
(8.34134 -0.103629 0)
(8.34297 -0.123869 0)
(8.34483 -0.146183 0)
(8.34668 -0.16966 0)
(8.34819 -0.193564 0)
(8.34899 -0.217559 0)
(8.34878 -0.241713 0)
(8.34733 -0.266349 0)
(8.34448 -0.291851 0)
(8.34014 -0.318526 0)
(8.33422 -0.346545 0)
(8.32666 -0.375954 0)
(8.31735 -0.40671 0)
(8.30621 -0.438714 0)
(8.29314 -0.471842 0)
(8.27804 -0.505944 0)
(8.26082 -0.540856 0)
(8.2414 -0.576395 0)
(8.21972 -0.612358 0)
(8.19573 -0.64853 0)
(8.16944 -0.68468 0)
(8.14083 -0.720569 0)
(8.10998 -0.75598 0)
(8.33302 -0.00320517 0)
(8.33317 -0.00983322 0)
(8.33348 -0.0167937 0)
(8.3339 -0.0242176 0)
(8.33438 -0.0321661 0)
(8.33487 -0.0406635 0)
(8.3353 -0.0498295 0)
(8.33564 -0.0600676 0)
(8.3359 -0.0721037 0)
(8.33613 -0.0867261 0)
(8.33644 -0.104352 0)
(8.33685 -0.124744 0)
(8.33727 -0.147082 0)
(8.33748 -0.17035 0)
(8.33719 -0.193749 0)
(8.33609 -0.216936 0)
(8.33393 -0.240016 0)
(8.33049 -0.263363 0)
(8.32565 -0.287405 0)
(8.31932 -0.312471 0)
(8.31142 -0.33874 0)
(8.30189 -0.366247 0)
(8.29066 -0.394936 0)
(8.27765 -0.424698 0)
(8.26279 -0.455398 0)
(8.24601 -0.486885 0)
(8.22725 -0.518996 0)
(8.20646 -0.551558 0)
(8.1836 -0.584383 0)
(8.15868 -0.617275 0)
(8.13168 -0.650029 0)
(8.10266 -0.682438 0)
(8.07166 -0.714317 0)
(8.33301 -0.00324782 0)
(8.33308 -0.00995297 0)
(8.33322 -0.0169755 0)
(8.33338 -0.0244395 0)
(8.33352 -0.0323962 0)
(8.3336 -0.0408591 0)
(8.33355 -0.0499477 0)
(8.33332 -0.0600864 0)
(8.33291 -0.0720378 0)
(8.33235 -0.0866164 0)
(8.33168 -0.104226 0)
(8.33089 -0.124562 0)
(8.3299 -0.146714 0)
(8.3285 -0.169578 0)
(8.32646 -0.192307 0)
(8.32352 -0.214553 0)
(8.31946 -0.236451 0)
(8.31412 -0.258419 0)
(8.30739 -0.280919 0)
(8.29917 -0.304303 0)
(8.28943 -0.328753 0)
(8.27809 -0.354301 0)
(8.2651 -0.380883 0)
(8.25041 -0.408381 0)
(8.23396 -0.436656 0)
(8.21572 -0.46556 0)
(8.19563 -0.494937 0)
(8.17368 -0.524621 0)
(8.14987 -0.554443 0)
(8.12419 -0.584227 0)
(8.09668 -0.613791 0)
(8.06737 -0.642955 0)
(8.03636 -0.671563 0)
(8.333 -0.00326064 0)
(8.33299 -0.00997932 0)
(8.33295 -0.0169942 0)
(8.33286 -0.024421 0)
(8.33268 -0.0323013 0)
(8.33235 -0.0406416 0)
(8.33183 -0.0495631 0)
(8.33106 -0.0595065 0)
(8.33002 -0.0712597 0)
(8.3287 -0.0856518 0)
(8.32709 -0.103069 0)
(8.32516 -0.123155 0)
(8.3228 -0.144923 0)
(8.31985 -0.167205 0)
(8.31612 -0.189115 0)
(8.3114 -0.210306 0)
(8.30553 -0.230938 0)
(8.29837 -0.251459 0)
(8.28984 -0.272361 0)
(8.27987 -0.294014 0)
(8.26841 -0.316603 0)
(8.25541 -0.340159 0)
(8.24083 -0.364613 0)
(8.22463 -0.389846 0)
(8.20679 -0.41572 0)
(8.18726 -0.44209 0)
(8.16604 -0.468808 0)
(8.14312 -0.495723 0)
(8.11851 -0.52268 0)
(8.09224 -0.549521 0)
(8.06435 -0.576089 0)
(8.0349 -0.602227 0)
(8.00395 -0.627805 0)
(8.33299 -0.00324484 0)
(8.33291 -0.00992857 0)
(8.33272 -0.0169046 0)
(8.33239 -0.0242796 0)
(8.33189 -0.0320783 0)
(8.33119 -0.0402889 0)
(8.33022 -0.0490217 0)
(8.32892 -0.0587176 0)
(8.32727 -0.0701727 0)
(8.3252 -0.0842197 0)
(8.32269 -0.101232 0)
(8.31966 -0.120818 0)
(8.31599 -0.14195 0)
(8.31156 -0.163419 0)
(8.30621 -0.184321 0)
(8.2998 -0.204312 0)
(8.29221 -0.223569 0)
(8.28334 -0.242563 0)
(8.27314 -0.261805 0)
(8.26154 -0.281676 0)
(8.2485 -0.302365 0)
(8.23399 -0.323903 0)
(8.21797 -0.34622 0)
(8.20044 -0.369199 0)
(8.18135 -0.392703 0)
(8.16072 -0.416596 0)
(8.13853 -0.440739 0)
(8.1148 -0.464993 0)
(8.08955 -0.489219 0)
(8.06282 -0.513278 0)
(8.03467 -0.537033 0)
(8.00515 -0.560347 0)
(7.97433 -0.583113 0)
(8.33298 -0.00318946 0)
(8.3328 -0.00972922 0)
(8.33241 -0.0165166 0)
(8.33183 -0.0236558 0)
(8.33102 -0.031176 0)
(8.32996 -0.0390726 0)
(8.32859 -0.0474612 0)
(8.32683 -0.0567848 0)
(8.32463 -0.0678344 0)
(8.32191 -0.081428 0)
(8.31857 -0.0979121 0)
(8.31452 -0.116862 0)
(8.30962 -0.137219 0)
(8.30379 -0.157754 0)
(8.29691 -0.177555 0)
(8.28891 -0.196284 0)
(8.2797 -0.214129 0)
(8.26923 -0.231576 0)
(8.25746 -0.249147 0)
(8.24435 -0.267227 0)
(8.22986 -0.286013 0)
(8.21397 -0.305537 0)
(8.19667 -0.325733 0)
(8.17794 -0.346486 0)
(8.15777 -0.367669 0)
(8.13617 -0.389153 0)
(8.11315 -0.41081 0)
(8.08874 -0.432514 0)
(8.06297 -0.454143 0)
(8.0359 -0.475572 0)
(8.00757 -0.496684 0)
(7.97806 -0.517363 0)
(7.94742 -0.537516 0)
(8.33299 -0.00312497 0)
(8.33279 -0.00959501 0)
(8.33229 -0.0163802 0)
(8.33151 -0.0235318 0)
(8.33044 -0.0310116 0)
(8.32902 -0.0387684 0)
(8.3272 -0.0468937 0)
(8.32494 -0.0558152 0)
(8.32216 -0.0663106 0)
(8.31875 -0.0791877 0)
(8.31459 -0.0947913 0)
(8.30955 -0.112707 0)
(8.30351 -0.131892 0)
(8.29638 -0.151138 0)
(8.2881 -0.169547 0)
(8.27864 -0.186791 0)
(8.26796 -0.203061 0)
(8.25604 -0.218843 0)
(8.24285 -0.234658 0)
(8.22837 -0.250891 0)
(8.21258 -0.267736 0)
(8.19546 -0.285228 0)
(8.177 -0.303303 0)
(8.15721 -0.321854 0)
(8.13609 -0.340759 0)
(8.11366 -0.359898 0)
(8.08995 -0.379154 0)
(8.06497 -0.398414 0)
(8.03879 -0.417569 0)
(8.01145 -0.43651 0)
(7.98302 -0.455136 0)
(7.95356 -0.473346 0)
(7.92313 -0.491064 0)
(8.33293 -0.00292526 0)
(8.33247 -0.00881612 0)
(8.33165 -0.0148929 0)
(8.33059 -0.0213142 0)
(8.32927 -0.0281177 0)
(8.32763 -0.0352799 0)
(8.32558 -0.0428833 0)
(8.32305 -0.0513216 0)
(8.31991 -0.0613203 0)
(8.31602 -0.0736259 0)
(8.31122 -0.0885296 0)
(8.30533 -0.105588 0)
(8.29825 -0.123758 0)
(8.28992 -0.141848 0)
(8.28033 -0.158984 0)
(8.2695 -0.174848 0)
(8.25743 -0.189637 0)
(8.24415 -0.203833 0)
(8.22963 -0.217956 0)
(8.21388 -0.232389 0)
(8.19689 -0.247334 0)
(8.17864 -0.262833 0)
(8.15914 -0.278832 0)
(8.13841 -0.295232 0)
(8.11645 -0.311923 0)
(8.09329 -0.328795 0)
(8.06898 -0.345743 0)
(8.04353 -0.362667 0)
(8.01702 -0.37947 0)
(7.98948 -0.396059 0)
(7.96099 -0.412345 0)
(7.93162 -0.428243 0)
(7.90141 -0.443692 0)
(8.33306 -0.00302107 0)
(8.33292 -0.009504 0)
(8.33218 -0.0163788 0)
(8.33094 -0.0234408 0)
(8.32924 -0.0305312 0)
(8.32709 -0.0376044 0)
(8.32446 -0.0447787 0)
(8.3213 -0.0524683 0)
(8.3175 -0.0613979 0)
(8.3129 -0.0723202 0)
(8.30734 -0.0855676 0)
(8.30062 -0.100776 0)
(8.29263 -0.116998 0)
(8.28331 -0.133125 0)
(8.27267 -0.148331 0)
(8.26074 -0.162308 0)
(8.24756 -0.175238 0)
(8.23316 -0.187576 0)
(8.21755 -0.199816 0)
(8.20073 -0.212324 0)
(8.1827 -0.22529 0)
(8.16348 -0.238757 0)
(8.14308 -0.25267 0)
(8.12153 -0.266938 0)
(8.09885 -0.281455 0)
(8.07508 -0.296119 0)
(8.05025 -0.310836 0)
(8.02442 -0.325515 0)
(7.99764 -0.34007 0)
(7.96996 -0.354421 0)
(7.94144 -0.368492 0)
(7.91217 -0.382211 0)
(7.88219 -0.395526 0)
(8.33268 -0.00188162 0)
(8.33137 -0.00557151 0)
(8.32993 -0.00980018 0)
(8.32857 -0.0149323 0)
(8.3271 -0.0208179 0)
(8.32526 -0.0272138 0)
(8.3229 -0.0340552 0)
(8.31992 -0.0416154 0)
(8.31615 -0.0504908 0)
(8.31141 -0.0613052 0)
(8.30545 -0.0742799 0)
(8.29811 -0.0889857 0)
(8.28929 -0.104465 0)
(8.27899 -0.119634 0)
(8.26726 -0.133701 0)
(8.25418 -0.146384 0)
(8.23983 -0.157876 0)
(8.22426 -0.168642 0)
(8.20751 -0.179185 0)
(8.1896 -0.189887 0)
(8.17054 -0.200958 0)
(8.15038 -0.212455 0)
(8.12912 -0.224344 0)
(8.10681 -0.236542 0)
(8.08346 -0.248956 0)
(8.05914 -0.261494 0)
(8.03387 -0.27407 0)
(8.0077 -0.286605 0)
(7.98069 -0.299024 0)
(7.9529 -0.311258 0)
(7.92439 -0.323242 0)
(7.89523 -0.334917 0)
(7.86546 -0.346237 0)
(8.3334 -0.00383909 0)
(8.33367 -0.0125712 0)
(8.33234 -0.020897 0)
(8.33007 -0.028135 0)
(8.32743 -0.034435 0)
(8.32446 -0.0401517 0)
(8.32105 -0.0455822 0)
(8.31706 -0.0511449 0)
(8.31235 -0.0574897 0)
(8.30673 -0.0653017 0)
(8.30004 -0.0749355 0)
(8.29212 -0.0861644 0)
(8.28286 -0.098242 0)
(8.27221 -0.110239 0)
(8.26017 -0.121431 0)
(8.24674 -0.13153 0)
(8.23195 -0.140674 0)
(8.21584 -0.149257 0)
(8.19844 -0.157717 0)
(8.1798 -0.166386 0)
(8.16 -0.175441 0)
(8.13909 -0.184921 0)
(8.11714 -0.194779 0)
(8.09419 -0.20493 0)
(8.07029 -0.215282 0)
(8.0455 -0.225745 0)
(8.01986 -0.236242 0)
(7.99341 -0.2467 0)
(7.96622 -0.257055 0)
(7.93834 -0.267248 0)
(7.90983 -0.277224 0)
(7.88077 -0.286933 0)
(7.85118 -0.296338 0)
(8.33169 0.00228006 0)
(8.32827 0.00586272 0)
(8.32683 0.00548394 0)
(8.32632 0.00134636 0)
(8.32548 -0.00450702 0)
(8.32387 -0.0109997 0)
(8.32148 -0.0178002 0)
(8.3183 -0.0250489 0)
(8.31417 -0.0332476 0)
(8.3089 -0.0429529 0)
(8.30225 -0.0543523 0)
(8.29405 -0.0670191 0)
(8.28422 -0.0800271 0)
(8.27274 -0.0923351 0)
(8.25966 -0.103195 0)
(8.24506 -0.112372 0)
(8.22902 -0.120118 0)
(8.21165 -0.126969 0)
(8.19304 -0.1335 0)
(8.1733 -0.140151 0)
(8.15252 -0.147164 0)
(8.13075 -0.15461 0)
(8.10807 -0.162448 0)
(8.08452 -0.17059 0)
(8.06013 -0.178939 0)
(8.03495 -0.187405 0)
(8.00902 -0.195912 0)
(7.98239 -0.204396 0)
(7.95509 -0.212799 0)
(7.9272 -0.221074 0)
(7.89877 -0.229173 0)
(7.86986 -0.237056 0)
(7.84051 -0.244693 0)
(8.3341 -0.0079937 0)
(8.33318 -0.0254909 0)
(8.3274 -0.0381834 0)
(8.3218 -0.0446582 0)
(8.31803 -0.0484141 0)
(8.31484 -0.0510848 0)
(8.31147 -0.0531428 0)
(8.30754 -0.0550305 0)
(8.30288 -0.0572777 0)
(8.2974 -0.0604244 0)
(8.29112 -0.0648418 0)
(8.28399 -0.0705116 0)
(8.27583 -0.0769798 0)
(8.26632 -0.0835617 0)
(8.25513 -0.0896654 0)
(8.24201 -0.095023 0)
(8.22688 -0.0997281 0)
(8.20985 -0.104106 0)
(8.19114 -0.108527 0)
(8.17104 -0.113266 0)
(8.1498 -0.11845 0)
(8.12761 -0.124078 0)
(8.10458 -0.130075 0)
(8.08079 -0.13634 0)
(8.05628 -0.142776 0)
(8.03107 -0.149301 0)
(8.00521 -0.155852 0)
(7.97873 -0.162377 0)
(7.95166 -0.168833 0)
(7.92408 -0.175182 0)
(7.89602 -0.181392 0)
(7.86755 -0.18743 0)
(7.83869 -0.193273 0)
(8.32885 0.021848 0)
(8.32191 0.0405523 0)
(8.32525 0.0406234 0)
(8.3293 0.0333917 0)
(8.32961 0.0244387 0)
(8.32839 0.0154889 0)
(8.32685 0.0070147 0)
(8.32534 -0.00119618 0)
(8.32413 -0.00996688 0)
(8.32304 -0.0201804 0)
(8.32129 -0.0320238 0)
(8.31764 -0.0446549 0)
(8.31086 -0.0565537 0)
(8.30023 -0.0662593 0)
(8.28582 -0.0730054 0)
(8.26835 -0.0769413 0)
(8.24885 -0.0789185 0)
(8.22825 -0.0800493 0)
(8.20719 -0.0812906 0)
(8.18592 -0.0832154 0)
(8.16449 -0.0860013 0)
(8.14277 -0.0895566 0)
(8.12063 -0.0936757 0)
(8.09799 -0.0981514 0)
(8.07477 -0.102825 0)
(8.05096 -0.107592 0)
(8.02658 -0.112388 0)
(8.00163 -0.117172 0)
(7.97616 -0.121912 0)
(7.95021 -0.126583 0)
(7.92381 -0.131162 0)
(7.89704 -0.135625 0)
(7.86988 -0.13996 0)
(8.32424 -0.038838 0)
(8.29318 -0.0708991 0)
(8.2696 -0.0765424 0)
(8.26465 -0.076395 0)
(8.27291 -0.0746738 0)
(8.28688 -0.0723021 0)
(8.3034 -0.0704337 0)
(8.32128 -0.0694938 0)
(8.33951 -0.0690359 0)
(8.35652 -0.0681435 0)
(8.37003 -0.065955 0)
(8.37759 -0.0621809 0)
(8.3775 -0.0573265 0)
(8.36952 -0.0524777 0)
(8.35493 -0.0487839 0)
(8.33598 -0.0469775 0)
(8.3151 -0.047175 0)
(8.29416 -0.0489917 0)
(8.27412 -0.0518258 0)
(8.25516 -0.0551233 0)
(8.23696 -0.058517 0)
(8.21902 -0.0618356 0)
(8.20092 -0.065041 0)
(8.18236 -0.0681542 0)
(8.16318 -0.0712055 0)
(8.14331 -0.0742115 0)
(8.12274 -0.0771727 0)
(8.10146 -0.0800792 0)
(8.07951 -0.082918 0)
(8.0569 -0.0856762 0)
(8.03367 -0.0883484 0)
(8.00988 -0.0909242 0)
(7.9855 -0.0934269 0)
(8.34002 0.156706 0)
(8.38094 0.148225 0)
(8.40003 0.101567 0)
(8.39195 0.0614742 0)
(8.36877 0.0306248 0)
(8.33702 0.00748089 0)
(8.29908 -0.0103157 0)
(8.2564 -0.0248398 0)
(8.2099 -0.0370358 0)
(8.16065 -0.0465036 0)
(8.1106 -0.0519587 0)
(8.06237 -0.0523146 0)
(8.01851 -0.0477648 0)
(7.98049 -0.0400997 0)
(7.94827 -0.0319987 0)
(7.92043 -0.02584 0)
(7.8949 -0.0228253 0)
(7.86974 -0.0228379 0)
(7.84361 -0.0249063 0)
(7.8159 -0.027864 0)
(7.78657 -0.0308306 0)
(7.75584 -0.0333696 0)