/*--------------------------------*- C++ -*----------------------------------*\
| =========                 |                                                 |
| \\      /  F ield         | OpenFOAM: The Open Source CFD Toolbox           |
|  \\    /   O peration     | Version:  2.1.1                                 |
|   \\  /    A nd           | Web:      www.OpenFOAM.org                      |
|    \\/     M anipulation  |                                                 |
\*---------------------------------------------------------------------------*/
FoamFile
{
    version     2.0;
    format      ascii;
    class       volScalarField;
    location    "0.025";
    object      epsilon;
}
// * * * * * * * * * * * * * * * * * * * * * * * * * * * * * * * * * * * * * //

dimensions      [0 2 -3 0 0 0 0];

internalField   nonuniform List<scalar> 
6820
(
151.447
203.149
260.733
321.765
383.653
443.799
499.935
550.372
594.073
630.614
660.076
682.91
699.798
711.541
718.966
722.869
723.979
722.935
720.287
716.491
711.923
706.888
701.625
696.323
691.127
686.147
681.46
677.138
673.147
669.843
665.625
668.183
640.619
11.7449
21.4118
29.9251
38.5822
47.4996
56.4205
65.1056
73.3519
80.9969
87.9314
94.1005
99.4964
104.148
108.112
111.455
114.255
116.586
118.517
120.112
121.425
122.502
123.381
124.094
124.667
125.122
125.478
125.752
125.965
126.141
126.327
126.597
127.045
128.448
5.83776
7.51761
9.20877
10.8128
12.3249
13.7541
15.0965
16.3481
17.507
18.5726
19.5465
20.4318
21.2334
21.9572
22.6102
23.1993
23.7318
24.2144
24.6535
25.0551
25.4242
25.7653
26.0826
26.3791
26.6579
26.9211
27.1707
27.4085
27.6347
27.8527
28.0564
28.2632
28.4573
5.24224
5.56003
6.00465
6.49417
6.98725
7.46472
7.91751
8.34139
8.73469
9.09728
9.4299
9.73385
10.0108
10.2626
10.4911
10.6984
10.8863
11.0567
11.2113
11.3519
11.4799
11.5968
11.7038
11.802
11.8926
11.9763
12.0538
12.1258
12.1926
12.2549
12.3115
12.3657
12.4079
5.17349
5.18679
5.26826
5.39791
5.55665
5.73014
5.90849
6.08529
6.25652
6.41976
6.57361
6.71739
6.85082
6.97398
7.08713
7.19064
7.28502
7.37078
7.44849
7.51872
7.58203
7.63898
7.6901
7.7359
7.77686
7.81344
7.84605
7.87509
7.90103
7.92426
7.94504
7.9636
7.97993
5.16877
5.12127
5.09596
5.09476
5.11533
5.15306
5.20298
5.26071
5.32282
5.38673
5.45055
5.51297
5.57305
5.63018
5.68396
5.73417
5.78068
5.8235
5.86267
5.89829
5.9305
5.95945
5.98531
6.00829
6.02855
6.04633
6.06185
6.0753
6.08675
6.09636
6.10442
6.11108
6.11685
5.16887
5.11168
5.06116
5.01965
4.98845
4.96761
4.95622
4.95284
4.95586
4.96376
4.97518
4.98901
5.00432
5.02039
5.03666
5.05269
5.06815
5.0828
5.09647
5.10906
5.12047
5.13068
5.13969
5.14751
5.15419
5.15976
5.16423
5.16769
5.17022
5.1719
5.17286
5.1732
5.1732
5.16901
5.11061
5.05513
5.0034
4.95623
4.91422
4.8776
4.8463
4.81995
4.79805
4.78003
4.76529
4.75327
4.74346
4.73541
4.72873
4.72309
4.71822
4.7139
4.70993
4.70617
4.70251
4.69886
4.69516
4.69133
4.68736
4.68322
4.67891
4.67446
4.66988
4.66525
4.66062
4.65615
5.16903
5.11053
5.0543
5.0005
4.94932
4.901
4.85576
4.81372
4.77491
4.73927
4.70667
4.67689
4.64971
4.62487
4.60213
4.58125
4.562
4.54418
4.5276
4.5121
4.49755
4.48381
4.47078
4.45836
4.44648
4.43509
4.42414
4.4136
4.40345
4.3937
4.38438
4.37552
4.36722
5.16904
5.11052
5.05419
5.00002
4.94799
4.89812
4.85044
4.80498
4.76177
4.72081
4.68208
4.64553
4.61108
4.57864
4.54809
4.51932
4.49222
4.46665
4.44251
4.41969
4.39808
4.37758
4.35811
4.3396
4.32198
4.30519
4.28919
4.27395
4.25943
4.24565
4.2326
4.22034
4.20891
5.16903
5.11052
5.05417
4.99994
4.94776
4.89756
4.84929
4.8029
4.75838
4.71567
4.67477
4.63563
4.59821
4.56247
4.52835
4.4958
4.46475
4.43513
4.40689
4.37995
4.35425
4.32973
4.30634
4.28401
4.2627
4.24237
4.223
4.20454
4.18699
4.17035
4.15462
4.13986
4.12609
5.16903
5.11051
5.05416
4.99991
4.9477
4.89743
4.84903
4.80242
4.75755
4.71436
4.67279
4.6328
4.59434
4.55737
4.52184
4.48772
4.45496
4.42351
4.39333
4.36438
4.33661
4.30999
4.28448
4.26004
4.23665
4.21427
4.19289
4.17249
4.15306
4.13462
4.11717
4.10076
4.08543
5.16903
5.11051
5.05415
4.99989
4.94767
4.89738
4.84894
4.80228
4.75732
4.71399
4.67224
4.632
4.59321
4.55584
4.51983
4.48513
4.45172
4.41954
4.38856
4.35874
4.33006
4.30248
4.27597
4.2505
4.22607
4.20264
4.1802
4.15875
4.1383
4.11884
4.1004
4.08302
4.06673
5.16903
5.1105
5.05414
4.99988
4.94764
4.89734
4.84889
4.8022
4.75721
4.71384
4.67203
4.63171
4.59283
4.55532
4.51915
4.48427
4.45062
4.41817
4.38689
4.35674
4.32769
4.29971
4.27277
4.24686
4.22195
4.19803
4.17509
4.15314
4.13216
4.11218
4.09321
4.0753
4.05847
5.16903
5.1105
5.05413
4.99987
4.94762
4.89731
4.84884
4.80214
4.75713
4.71374
4.6719
4.63155
4.59262
4.55507
4.51884
4.48388
4.45015
4.4176
4.3862
4.35592
4.32672
4.29857
4.27146
4.24535
4.22024
4.1961
4.17293
4.15073
4.1295
4.10925
4.09001
4.07179
4.05464
5.16903
5.1105
5.05413
4.99986
4.9476
4.89728
4.8488
4.80209
4.75706
4.71365
4.67179
4.63142
4.59246
4.55488
4.51861
4.48361
4.44983
4.41724
4.38578
4.35544
4.32616
4.29794
4.27074
4.24454
4.21932
4.19507
4.17178
4.14944
4.12807
4.10767
4.08825
4.06983
4.05246
5.16903
5.1105
5.05412
4.99985
4.94759
4.89726
4.84877
4.80204
4.757
4.71357
4.67169
4.63129
4.59232
4.55471
4.51841
4.48338
4.44956
4.41693
4.38543
4.35504
4.32572
4.29744
4.27018
4.24391
4.21862
4.19429
4.17091
4.14849
4.12701
4.10648
4.08692
4.06835
4.05077
5.16903
5.11049
5.05412
4.99984
4.94757
4.89723
4.84874
4.802
4.75694
4.7135
4.6716
4.63118
4.59218
4.55454
4.51822
4.48315
4.44931
4.41664
4.3851
4.35467
4.3253
4.29697
4.26965
4.24332
4.21797
4.19357
4.17012
4.1476
4.12602
4.10538
4.08569
4.06696
4.0492
5.16903
5.11049
5.05411
4.99983
4.94756
4.89722
4.84871
4.80196
4.75689
4.71343
4.67151
4.63107
4.59205
4.55439
4.51803
4.48294
4.44906
4.41635
4.38478
4.3543
4.32488
4.2965
4.26913
4.24275
4.21732
4.19285
4.16932
4.14671
4.12503
4.10427
4.08444
4.06555
4.0476
5.16903
5.11049
5.05411
4.99983
4.94755
4.8972
4.84868
4.80192
4.75684
4.71337
4.67143
4.63097
4.59192
4.55424
4.51786
4.48273
4.44882
4.41607
4.38446
4.35394
4.32447
4.29604
4.26862
4.24217
4.21668
4.19213
4.16851
4.14581
4.12402
4.10314
4.08317
4.06412
4.04598
5.16903
5.11049
5.05411
4.99982
4.94754
4.89719
4.84866
4.80189
4.7568
4.71331
4.67136
4.63087
4.59181
4.55409
4.51769
4.48253
4.44858
4.4158
4.38415
4.35358
4.32407
4.29559
4.2681
4.24159
4.21603
4.1914
4.1677
4.1449
4.123
4.102
4.08189
4.06267
4.04434
5.16903
5.11049
5.05411
4.99982
4.94754
4.89717
4.84864
4.80186
4.75676
4.71325
4.67128
4.63079
4.5917
4.55396
4.51752
4.48234
4.44836
4.41554
4.38384
4.35323
4.32367
4.29514
4.26759
4.24101
4.21538
4.19068
4.16689
4.14399
4.12198
4.10085
4.08059
4.06121
4.0427
5.16903
5.11049
5.05411
4.99982
4.94753
4.89716
4.84863
4.80184
4.75672
4.7132
4.67122
4.6307
4.59159
4.55383
4.51737
4.48215
4.44814
4.41528
4.38355
4.35289
4.32328
4.29469
4.26709
4.24045
4.21474
4.18996
4.16608
4.14308
4.12096
4.09971
4.07931
4.05977
4.04107
5.16903
5.11049
5.05411
4.99982
4.94753
4.89715
4.84861
4.80181
4.75669
4.71316
4.67116
4.63062
4.59149
4.55371
4.51722
4.48197
4.44793
4.41504
4.38326
4.35256
4.32291
4.29426
4.2666
4.23989
4.21412
4.18925
4.16528
4.14219
4.11996
4.09858
4.07805
4.05835
4.03947
5.16903
5.11049
5.05411
4.99981
4.94752
4.89715
4.8486
4.80179
4.75666
4.71312
4.6711
4.63055
4.5914
4.55359
4.51708
4.4818
4.44773
4.4148
4.38298
4.35224
4.32254
4.29384
4.26612
4.23935
4.2135
4.18856
4.16451
4.14132
4.11898
4.09749
4.07682
4.05697
4.03793
5.16903
5.11049
5.05411
4.99981
4.94752
4.89714
4.84859
4.80177
4.75663
4.71308
4.67105
4.63048
4.59131
4.55348
4.51694
4.48164
4.44753
4.41457
4.38272
4.35193
4.32218
4.29343
4.26566
4.23883
4.21291
4.1879
4.16376
4.14048
4.11804
4.09643
4.07563
4.05564
4.03644
5.16903
5.11049
5.05411
4.99981
4.94752
4.89714
4.84858
4.80176
4.7566
4.71304
4.671
4.63041
4.59123
4.55338
4.51681
4.48149
4.44735
4.41435
4.38246
4.35164
4.32184
4.29304
4.26521
4.23832
4.21234
4.18725
4.16303
4.13966
4.11713
4.09541
4.07449
4.05437
4.03502
5.16903
5.1105
5.05411
4.99981
4.94752
4.89713
4.84857
4.80174
4.75658
4.71301
4.67095
4.63036
4.59115
4.55328
4.5167
4.48134
4.44718
4.41415
4.38222
4.35136
4.32152
4.29268
4.26479
4.23784
4.2118
4.18665
4.16235
4.1389
4.11627
4.09445
4.07342
4.05317
4.03369
5.16903
5.1105
5.05411
4.99981
4.94752
4.89713
4.84856
4.80173
4.75656
4.71297
4.67091
4.63029
4.59107
4.55319
4.51658
4.4812
4.44701
4.41395
4.38199
4.35109
4.32121
4.29232
4.26439
4.23739
4.21129
4.18607
4.1617
4.13817
4.11546
4.09355
4.07241
4.05205
4.03244
5.16903
5.1105
5.05411
4.99981
4.94751
4.89712
4.84855
4.80172
4.75654
4.71295
4.67088
4.63026
4.59102
4.55312
4.51649
4.48109
4.44687
4.41379
4.3818
4.35086
4.32094
4.29201
4.26404
4.23698
4.21083
4.18555
4.16112
4.13752
4.11473
4.09273
4.0715
4.05104
4.03131
5.16903
5.1105
5.05412
4.99982
4.94752
4.89713
4.84855
4.80171
4.75653
4.71293
4.67085
4.63021
4.59096
4.55304
4.5164
4.48098
4.44674
4.41363
4.38161
4.35064
4.3207
4.29173
4.26371
4.23662
4.21042
4.18509
4.1606
4.13694
4.11408
4.09201
4.07071
4.05015
4.03033
5.16903
5.11049
5.05411
4.99982
4.94752
4.89714
4.84857
4.80174
4.75656
4.71296
4.67088
4.63024
4.59098
4.55305
4.51639
4.48096
4.4467
4.41357
4.38154
4.35055
4.32057
4.29158
4.26353
4.23641
4.21017
4.18481
4.16028
4.13657
4.11367
4.09154
4.07018
4.04956
4.02967
5.16903
5.11052
5.05416
4.99989
4.94761
4.89723
4.84866
4.80182
4.75664
4.71304
4.67095
4.6303
4.59105
4.55312
4.51646
4.48103
4.44678
4.41366
4.38163
4.35065
4.32069
4.29171
4.26369
4.23658
4.21037
4.18502
4.16052
4.13683
4.11395
4.09185
4.0705
4.04991
4.03003
5.16903
5.1105
5.05415
4.99991
4.94769
4.89737
4.84887
4.80209
4.75696
4.71342
4.67139
4.63081
4.59162
4.55377
4.51722
4.48189
4.44777
4.41479
4.38291
4.35211
4.32234
4.29356
4.26576
4.23888
4.21292
4.18783
4.1636
4.1402
4.1176
4.09579
4.07475
4.05445
4.03488
5.16906
5.11066
5.05446
5.00034
4.94821
4.89798
4.8496
4.80299
4.75809
4.71484
4.67318
4.63305
4.5944
4.55716
4.52128
4.48672
4.45342
4.42133
4.39041
4.36062
4.3319
4.30422
4.27755
4.25184
4.22707
4.20319
4.18017
4.158
4.13663
4.11604
4.09621
4.07711
4.05872
5.16907
5.11077
5.05485
5.00134
4.95012
4.90111
4.85423
4.80944
4.76668
4.72588
4.68698
4.6499
4.61455
4.58086
4.54874
4.5181
4.48886
4.46094
4.43426
4.40874
4.38433
4.36095
4.33853
4.31703
4.29638
4.27653
4.25744
4.23907
4.22136
4.20428
4.1878
4.17187
4.15647
5.16941
5.11368
5.06212
5.01466
4.9713
4.93199
4.89653
4.86465
4.83603
4.81034
4.78727
4.7665
4.74776
4.73077
4.71531
4.70116
4.68813
4.67605
4.66477
4.65416
4.6441
4.63449
4.62523
4.61625
4.60748
4.59886
4.59034
4.58187
4.57342
4.56497
4.55648
4.54795
4.53937
5.17806
5.16329
5.16865
5.18936
5.22138
5.26171
5.30795
5.35823
5.41118
5.46573
5.52108
5.57659
5.63178
5.6863
5.73987
5.79231
5.84349
5.89334
5.94181
5.98892
6.03469
6.07919
6.12249
6.1647
6.20593
6.24631
6.28599
6.3251
6.36382
6.40232
6.44075
6.47932
6.51814
5.6387
6.43107
7.14753
7.83303
8.51029
9.17332
9.8164
10.4375
11.0369
11.6158
12.1762
12.7199
13.2491
13.7655
14.271
14.7671
15.2553
15.7368
16.213
16.6849
17.1534
17.6196
18.0843
18.5481
19.0118
19.476
19.9412
20.4078
20.8762
21.3466
21.8193
22.2945
22.7718
44.7794
48.3125
51.8869
55.4663
59.0316
62.5708
66.0731
69.5285
72.928
76.2633
79.5272
82.7135
85.8167
88.8324
91.7567
94.5867
97.3201
99.955
102.49
104.925
107.26
109.494
111.628
113.663
115.6
117.44
119.184
120.834
122.391
123.858
125.236
126.527
127.735
736.929
872.082
1021.06
1169.18
1272.56
1294.12
1239.37
1141.61
1034.27
935.305
849.179
773.132
701.08
625.244
538.775
438.147
325.834
212.669
116.117
51.2864
20.6587
12.2299
12.011
13.4918
14.9872
16.2038
17.1136
17.7295
18.0849
18.2234
18.1869
18.0126
17.7381
17.4061
17.0632
16.7489
16.4838
16.2617
16.0506
15.8021
15.4633
14.9889
14.3491
13.5363
12.5671
11.4809
10.3346
9.19251
8.11548
7.15011
6.3229
5.63992
5.09128
4.65786
4.31775
4.05052
3.83925
3.67091
3.53581
3.42684
3.33876
3.26761
3.21029
3.16431
3.12765
3.0986
3.07574
3.0579
3.04409
3.03351
3.0255
3.0195
3.01508
3.01188
3.00961
3.00805
3.00702
3.00637
3.006
3.00582
3.00576
3.00579
3.00586
3.00594
3.00603
3.00609
3.00614
3.00615
3.00614
3.00609
3.00601
3.00591
3.00577
3.00561
3.00543
3.00522
3.00501
3.00471
3.0048
3.00284
129.016
134.712
155.827
200.984
272.487
361.814
452.35
527.2
575.514
591.506
574.888
530.058
463.85
383.175
294.749
206.239
126.985
66.4909
30.0194
14.5458
10.7349
10.8737
11.8669
12.9525
13.9685
14.8513
15.5524
16.0507
16.3559
16.4936
16.4903
16.3694
16.1561
15.8834
15.5915
15.3194
15.0915
14.9087
14.7469
14.5641
14.3111
13.9428
13.4273
12.7517
11.9253
10.9791
9.96141
8.92987
7.94116
7.04128
6.25914
5.6051
5.07406
4.65115
4.31747
4.05446
3.84617
3.68
3.54644
3.43846
3.35088
3.2798
3.2222
3.17568
3.13827
3.10836
3.08457
3.06579
3.05105
3.03958
3.03073
3.02395
3.01882
3.01498
3.01213
3.01006
3.00856
3.00751
3.00678
3.00628
3.00595
3.00573
3.00558
3.00547
3.00539
3.00531
3.00523
3.00513
3.00502
3.00489
3.00474
3.00456
3.00437
3.00416
3.00394
3.0037
3.00346
3.00313
3.00319
3.0012
28.7069
29.0164
28.7919
28.5235
30.7263
38.4553
52.5294
70.339
86.4682
99.2792
106.352
105.158
94.8563
77.0549
55.5582
35.2528
20.3851
12.5231
9.86104
9.56864
9.95505
10.5481
11.2649
12.0512
12.8351
13.5409
14.1141
14.5329
14.8031
14.9427
14.9688
14.895
14.7367
14.5179
14.2727
14.0378
13.8406
13.6882
13.5642
13.4334
13.251
12.9735
12.5673
12.0152
11.3195
10.5032
9.60626
8.6794
7.775
6.93801
6.19923
5.57293
5.05857
4.64533
4.31737
4.05798
3.85223
3.68796
3.55581
3.44881
3.36181
3.29093
3.23321
3.1863
3.1483
3.11764
3.09302
3.07335
3.05772
3.04538
3.03569
3.02812
3.02226
3.01774
3.01428
3.01165
3.00965
3.00815
3.00701
3.00616
3.00551
3.00501
3.00462
3.00429
3.00402
3.00377
3.00354
3.00332
3.00309
3.00286
3.00262
3.00237
3.00212
3.00185
3.00157
3.00129
3.00101
3.00065
3.00068
2.99866
12.4709
12.5444
12.5216
12.1987
11.4331
10.489
10.0575
10.808
12.9164
14.82
15.9246
15.9656
14.9709
13.2984
11.5203
10.1412
9.34041
8.97918
8.8838
9.00647
9.33345
9.82658
10.4341
11.097
11.7511
12.3377
12.8174
13.1758
13.4192
13.5609
13.6121
13.5791
13.4693
13.299
13.0962
12.895
12.7239
12.5953
12.4996
12.4083
12.2819
12.0792
11.7661
11.3219
10.7433
10.0454
9.2605
8.43242
7.60889
6.83318
6.13735
5.5389
5.04142
4.63797
4.31566
4.05976
3.85641
3.69393
3.56318
3.45724
3.37096
3.30048
3.24286
3.19578
3.15739
3.12618
3.10089
3.08048
3.06407
3.05093
3.04046
3.03214
3.02556
3.02038
3.0163
3.0131
3.01059
3.00862
3.00707
3.00584
3.00485
3.00406
3.00339
3.00284
3.00235
3.00192
3.00153
3.00116
3.00081
3.00047
3.00014
2.99981
2.99948
2.99915
2.99882
2.99848
2.99816
2.99776
2.99777
2.99571
7.99633
8.0159
8.04341
8.07157
8.06353
7.9802
7.84922
7.86138
8.00798
8.18951
8.33013
8.37753
8.31661
8.17343
8.00038
7.85355
7.77863
7.80689
7.95439
8.22318
8.60501
9.08343
9.62998
10.2038
10.7585
11.2524
11.6587
11.9696
12.1915
12.3353
12.4075
12.4092
12.3416
12.2147
12.0505
11.8798
11.7315
11.6218
11.5469
11.4849
11.4015
11.2587
11.0229
10.671
10.1951
9.60367
8.92164
8.18608
7.43986
6.724
6.07103
5.501
5.02108
4.62792
4.31155
4.05923
3.85824
3.69754
3.56819
3.46337
3.37794
3.30804
3.25073
3.20372
3.16518
3.13365
3.10789
3.08691
3.06987
3.05607
3.04492
3.03593
3.02871
3.02291
3.01825
3.01451
3.0115
3.00908
3.00711
3.00551
3.00419
3.00309
3.00216
3.00136
3.00066
3.00004
2.99949
2.99897
2.99849
2.99804
2.99761
2.99719
2.99678
2.99639
2.996
2.99561
2.99525
2.99481
2.99479
2.99269
6.12186
6.12808
6.13998
6.16267
6.19695
6.23703
6.27483
6.31755
6.37043
6.43026
6.48964
6.5416
6.5839
6.62174
6.66732
6.73725
6.84944
7.01984
7.2594
7.57324
7.95957
8.40716
8.8942
9.39047
9.86252
10.2812
10.6287
10.9016
11.1065
11.252
11.3416
11.3725
11.3414
11.2527
11.1233
10.9805
10.8527
10.7583
10.6988
10.6579
10.6064
10.5101
10.3368
10.0624
9.67504
9.1779
8.58915
7.93947
7.26669
6.6091
5.99893
5.45807
4.99664
4.61454
4.3046
4.05608
3.85755
3.69862
3.57068
3.46702
3.38253
3.31335
3.25653
3.2098
3.17133
3.1397
3.11369
3.09235
3.07487
3.06057
3.04888
3.03935
3.03158
3.02525
3.02008
3.01586
3.01241
3.00957
3.00722
3.00526
3.00362
3.00224
3.00105
3.00002
2.99912
2.99832
2.9976
2.99694
2.99633
2.99577
2.99524
2.99474
2.99426
2.9938
2.99335
2.99292
2.99251
2.99203
2.99198
2.98985
5.17275
5.1732
5.17841
5.19231
5.21722
5.25316
5.2981
5.35046
5.4094
5.47438
5.54513
5.62191
5.70632
5.8021
5.9154
6.05437
6.22798
6.44473
6.71095
7.02911
7.39614
7.80216
8.23017
8.65754
9.05995
9.41692
9.71698
9.95933
10.1504
10.2973
10.401
10.4562
10.4562
10.4008
10.3025
10.1851
10.0758
9.99462
9.94661
9.92042
9.89196
9.83084
9.70698
9.49607
9.18386
8.76896
8.26378
7.693
7.08944
6.48821
5.92062
5.40959
4.96764
4.5975
4.29461
4.05026
3.85433
3.69721
3.57068
3.46819
3.38469
3.31631
3.26011
3.21381
3.17561
3.14408
3.11803
3.09653
3.0788
3.06417
3.05212
3.04218
3.034
3.02725
3.02167
3.01705
3.01322
3.01002
3.00734
3.00508
3.00316
3.00152
3.0001
2.99887
2.99778
2.99681
2.99595
2.99516
2.99444
2.99377
2.99315
2.99257
2.99202
2.9915
2.991
2.99052
2.99007
2.98956
2.98948
2.98731
4.65126
4.64677
4.6457
4.6511
4.66536
4.69
4.72556
4.77197
4.82891
4.89611
4.9737
5.06248
5.16417
5.28167
5.41899
5.58101
5.77299
5.99964
6.2639
6.56581
6.9015
7.26235
7.63482
8.00179
8.34555
8.65178
8.91322
9.13074
9.31044
9.45791
9.57279
9.64787
9.6738
9.64711
9.57635
9.48199
9.38961
9.31989
9.28074
9.2649
9.25266
9.21747
9.13178
8.97199
8.72242
8.37825
7.94701
7.44795
6.90901
6.36184
5.83625
5.35554
4.93399
4.57673
4.28161
4.04185
3.84875
3.6935
3.56838
3.46704
3.38452
3.31697
3.26147
3.21571
3.17791
3.14663
3.12072
3.09924
3.08143
3.06665
3.05439
3.04421
3.03574
3.02869
3.02282
3.0179
3.01378
3.0103
3.00736
3.00485
3.00271
3.00086
2.99925
2.99784
2.9966
2.99549
2.9945
2.9936
2.99278
2.99202
2.99133
2.99068
2.99007
2.98949
2.98895
2.98843
2.98795
2.98741
2.9873
2.9851
4.35842
4.34985
4.34437
4.34421
4.35149
4.36787
4.39447
4.43212
4.48141
4.54285
4.61712
4.70526
4.80876
4.92969
5.07068
5.23471
5.42473
5.64314
5.89085
6.16664
6.46635
6.7825
7.10436
7.41901
7.71352
7.9779
8.20766
8.40463
8.57447
8.72169
8.84489
8.93569
8.98298
8.98062
8.93382
8.86003
8.78302
8.72358
8.69161
8.68307
8.68207
8.66561
8.60885
8.4895
8.29136
8.0072
7.64059
7.20602
6.72679
6.23097
5.74643
5.29624
4.89584
4.55234
4.26571
4.03105
3.84103
3.68778
3.56408
3.46386
3.38227
3.31555
3.26075
3.21559
3.17827
3.14735
3.12169
3.10037
3.08263
3.06785
3.05552
3.04523
3.03662
3.0294
3.02333
3.01822
3.0139
3.01023
3.0071
3.00442
3.0021
3.0001
2.99834
2.9968
2.99544
2.99422
2.99313
2.99215
2.99125
2.99043
2.98967
2.98896
2.98831
2.98769
2.98711
2.98656
2.98606
2.98549
2.98536
2.98313
4.19681
4.1847
4.17539
4.17061
4.17214
4.18165
4.20053
4.22996
4.27098
4.32448
4.3914
4.47284
4.57009
4.6847
4.81844
4.97315
5.15041
5.3512
5.57531
5.82085
6.08382
6.35795
6.63478
6.90455
7.15778
7.38742
7.59085
7.7704
7.93126
8.07717
8.20606
8.30886
8.37328
8.39114
8.3649
8.30921
8.24602
8.19583
8.16987
8.16666
8.17339
8.17027
8.13512
8.04731
7.89084
7.65697
7.34623
6.96902
6.54441
6.09688
5.65204
5.23223
4.85352
4.52455
4.24712
4.01808
3.83147
3.68035
3.5581
3.45898
3.3783
3.31235
3.25823
3.21366
3.17684
3.14634
3.12101
3.09994
3.08238
3.06771
3.05543
3.04514
3.0365
3.02921
3.02307
3.01786
3.01343
3.00964
3.0064
3.0036
3.00118
2.99907
2.99722
2.99559
2.99415
2.99286
2.9917
2.99065
2.9897
2.98882
2.98802
2.98728
2.98659
2.98595
2.98534
2.98477
2.98424
2.98366
2.98352
2.98127
4.11146
4.09657
4.08429
4.07597
4.07312
4.07723
4.08967
4.11174
4.1446
4.18935
4.24706
4.31883
4.4058
4.50919
4.6302
4.76994
4.92917
5.10807
5.30587
5.5205
5.7484
5.98438
6.22185
6.45336
6.6719
6.87246
7.05361
7.21796
7.37028
7.51377
7.64596
7.75746
7.83524
7.8696
7.86067
7.82066
7.7697
7.72777
7.70697
7.70774
7.71984
7.72617
7.70701
7.64355
7.52048
7.32834
7.06539
6.7387
6.36355
5.96097
5.55412
5.16421
4.80748
4.49364
4.22607
4.00318
3.82032
3.67154
3.55082
3.45279
3.37296
3.30774
3.25425
3.21023
3.1739
3.14383
3.11887
3.09809
3.08076
3.06628
3.05414
3.04394
3.03534
3.02809
3.02194
3.01671
3.01225
3.00842
3.00513
3.00228
2.99981
2.99764
2.99574
2.99406
2.99257
2.99124
2.99004
2.98895
2.98797
2.98706
2.98624
2.98547
2.98476
2.9841
2.98347
2.98289
2.98235
2.98175
2.9816
2.97934
4.06905
4.05216
4.03767
4.02667
4.02039
4.02014
4.02722
4.04285
4.06824
4.1045
4.1527
4.21389
4.28907
4.37922
4.4852
4.60768
4.74697
4.90286
5.07438
5.25956
5.45536
5.65756
5.861
6.05997
6.2492
6.42509
6.58705
6.73777
6.88173
7.02174
7.15514
7.27249
7.36035
7.40787
7.4133
7.38664
7.34631
7.31164
7.29526
7.29911
7.31496
7.32797
7.32061
7.27585
7.17939
7.02156
6.79915
6.51657
6.18579
5.82465
5.45376
5.09295
4.75821
4.45996
4.20282
3.98658
3.80785
3.66162
3.54254
3.44563
3.36664
3.30209
3.24917
3.20567
3.16979
3.14012
3.11552
3.09505
3.07799
3.06372
3.05176
3.04171
3.03323
3.02606
3.01997
3.01478
3.01035
3.00653
3.00325
3.00039
2.99791
2.99573
2.99382
2.99212
2.99061
2.98926
2.98805
2.98695
2.98595
2.98503
2.98419
2.98342
2.9827
2.98202
2.9814
2.9808
2.98026
2.97965
2.9795
2.97724
4.04925
4.03102
4.01498
4.002
3.99311
3.98942
3.99207
4.00221
4.02095
4.04936
4.08845
4.13918
4.20246
4.27908
4.36969
4.47472
4.59426
4.72795
4.87482
5.03314
5.20037
5.37314
5.54735
5.7186
5.88286
6.03757
6.18266
6.32091
6.45656
6.59215
6.72504
6.84584
6.94099
6.99879
7.01592
7.00046
6.96922
6.9408
6.92815
6.93436
6.95285
6.97061
6.97197
6.94156
6.8662
6.73647
6.54822
6.30384
6.01254
5.68924
5.35208
5.01928
4.70629
4.42387
4.1776
3.96848
3.79425
3.65083
3.53353
3.4378
3.35965
3.29575
3.24337
3.20032
3.16485
3.13555
3.11128
3.09111
3.07432
3.06028
3.04852
3.03864
3.03031
3.02326
3.01727
3.01216
3.00779
3.00403
3.00078
2.99796
2.9955
2.99335
2.99145
2.98976
2.98826
2.98691
2.9857
2.9846
2.9836
2.98269
2.98185
2.98107
2.98035
2.97968
2.97905
2.97845
2.97791
2.9773
2.97715
2.97489
4.04032
4.02121
4.00408
3.98963
3.97871
3.97226
3.97126
3.97674
3.98969
4.01109
4.04188
4.08291
4.13499
4.19879
4.27484
4.36343
4.46459
4.57792
4.70256
4.83705
4.97932
5.12665
5.27581
5.42335
5.56617
5.70243
5.8325
5.95918
6.08653
6.21699
6.34797
6.4703
6.57042
6.63604
6.66257
6.65637
6.63277
6.60961
6.60001
6.60798
6.62829
6.64943
6.65727
6.6379
6.57929
6.47249
6.31288
6.10139
5.84498
5.55596
5.25012
4.94401
4.65227
4.38575
4.15069
3.94909
3.77971
3.63936
3.52401
3.42955
3.35228
3.28901
3.23714
3.19451
3.15941
3.13044
3.10647
3.08658
3.07003
3.05622
3.04466
3.03496
3.02679
3.01987
3.014
3.009
3.00472
3.00104
2.99785
2.99509
2.99267
2.99056
2.98869
2.98703
2.98555
2.98422
2.98303
2.98195
2.98096
2.98005
2.97922
2.97845
2.97774
2.97707
2.97644
2.97585
2.97531
2.97471
2.97456
2.9723
4.03606
4.01635
3.9984
3.9828
3.97026
3.96155
3.95751
3.95904
3.967
3.98228
4.0057
4.03805
4.08003
4.13222
4.19507
4.26884
4.35351
4.44874
4.55381
4.66752
4.78819
4.91364
5.04131
5.16846
5.2927
5.41275
5.52928
5.64515
5.76431
5.88911
6.01711
6.13944
6.24266
6.31408
6.34803
6.34939
6.3321
6.31327
6.30607
6.31527
6.33675
6.36025
6.37293
6.36211
6.31682
6.22873
6.09309
5.9098
5.68401
5.42582
5.14884
4.86792
4.59674
4.34598
4.12232
3.92856
3.76437
3.62735
3.51413
3.42105
3.34471
3.28211
3.23073
3.1885
3.15374
3.12507
3.10136
3.08172
3.0654
3.0518
3.04044
3.03091
3.02289
3.01612
3.01038
3.00549
3.00131
2.99771
2.99461
2.99191
2.98955
2.98749
2.98566
2.98404
2.9826
2.9813
2.98013
2.97907
2.9781
2.97721
2.97639
2.97563
2.97493
2.97427
2.97365
2.97306
2.97253
2.97193
2.97178
2.96953
4.03355
4.01337
3.99475
3.9782
3.96429
3.95367
3.94707
3.94522
3.94891
3.95889
3.9759
4.00064
4.03372
4.07568
4.12691
4.18763
4.25784
4.33728
4.42535
4.5211
4.62317
4.72982
4.839
4.94853
5.05656
5.16225
5.26652
5.37227
5.48339
5.60221
5.72649
5.84766
5.9525
6.02805
6.06777
6.07523
6.0631
6.04773
6.04232
6.05225
6.07437
6.09946
6.11573
6.11155
6.07691
6.00412
5.88852
5.72934
5.53032
5.29969
5.04909
4.79174
4.54026
4.30496
4.09277
3.90708
3.74833
3.6149
3.504
3.41243
3.33709
3.27519
3.22432
3.18249
3.14805
3.11965
3.09619
3.07678
3.06066
3.04726
3.03607
3.0267
3.01884
3.0122
3.00659
3.00181
2.99773
2.99423
2.9912
2.98858
2.98629
2.98428
2.9825
2.98093
2.97952
2.97826
2.97712
2.97608
2.97513
2.97427
2.97346
2.97272
2.97203
2.97138
2.97077
2.97019
2.96966
2.96907
2.96892
2.96667
4.03159
4.01098
3.99177
3.97438
3.95927
3.94701
3.93819
3.93345
3.93345
3.93887
3.95034
3.96849
3.99386
4.02694
4.06806
4.11746
4.17515
4.24093
4.31435
4.39464
4.48072
4.5712
4.66441
4.75864
4.85246
4.94537
5.0385
5.13481
5.23813
5.35085
5.47088
5.59004
5.69535
5.77371
5.81785
5.83017
5.82219
5.80953
5.80535
5.81556
5.83785
5.8639
5.8828
5.88381
5.85772
5.79748
5.69865
5.56004
5.38435
5.17823
4.95161
4.71614
4.48336
4.26308
4.06228
3.8848
3.73173
3.60209
3.49368
3.40376
3.32951
3.26836
3.21802
3.17659
3.14247
3.11434
3.09112
3.07191
3.05598
3.04275
3.03173
3.02252
3.0148
3.00829
3.0028
2.99813
2.99415
2.99074
2.9878
2.98525
2.98302
2.98107
2.97935
2.97782
2.97645
2.97522
2.97411
2.9731
2.97218
2.97133
2.97055
2.96982
2.96914
2.9685
2.9679
2.96733
2.96681
2.96622
2.96609
2.96384
4.02974
4.00873
3.98896
3.97079
3.95462
3.9409
3.93015
3.9229
3.91974
3.92122
3.92793
3.9404
3.95913
3.98454
4.01696
4.05659
4.1035
4.15753
4.21835
4.28535
4.35767
4.43419
4.51359
4.59447
4.67577
4.75728
4.84029
4.92782
5.02368
5.13028
5.24578
5.36233
5.46724
5.54736
5.5948
5.61096
5.60629
5.5957
5.59225
5.60234
5.62438
5.65088
5.67166
5.6767
5.6575
5.6076
5.52282
5.40177
5.24635
5.06196
4.857
4.6417
4.42654
4.22071
4.03111
3.86188
3.71464
3.58898
3.48324
3.39508
3.32202
3.26167
3.21191
3.1709
3.13711
3.10924
3.08624
3.06723
3.05148
3.03842
3.02755
3.01848
3.01089
3.00451
2.99913
2.99457
2.99068
2.98736
2.9845
2.98202
2.97986
2.97796
2.97629
2.97481
2.97348
2.97229
2.97121
2.97023
2.96933
2.9685
2.96774
2.96703
2.96636
2.96573
2.96514
2.96458
2.96406
2.96349
2.96335
2.96111
4.02788
4.00647
3.98617
3.96728
3.95014
3.93513
3.92268
3.91325
3.90734
3.90544
3.90804
3.91563
3.92865
3.94747
3.9724
4.00364
4.04127
4.08521
4.13519
4.19075
4.25121
4.31567
4.38307
4.45229
4.52255
4.59387
4.66769
4.74708
4.83585
4.93647
5.04729
5.16082
5.2647
5.34576
5.39563
5.4148
5.41271
5.40364
5.40052
5.41014
5.43159
5.45809
5.48013
5.48829
5.47464
5.43327
5.36029
5.25423
5.11641
4.95121
4.76574
4.56894
4.37024
4.1782
3.99951
3.8385
3.69718
3.57564
3.4727
3.38643
3.31464
3.25516
3.20601
3.16545
3.13199
3.10439
3.08161
3.06279
3.04722
3.03432
3.02359
3.01466
3.00719
3.00093
2.99566
2.9912
2.9874
2.98416
2.98138
2.97897
2.97687
2.97503
2.97341
2.97197
2.97069
2.96953
2.96848
2.96753
2.96665
2.96585
2.9651
2.9644
2.96375
2.96313
2.96255
2.962
2.96149
2.96092
2.96079
2.95855
4.02599
4.0042
3.98339
3.96383
3.9458
3.92963
3.91568
3.90435
3.89605
3.89122
3.89029
3.89368
3.90178
3.91493
3.93343
3.95746
3.98712
4.02238
4.06303
4.10873
4.15895
4.21296
4.2699
4.32892
4.38941
4.45162
4.51712
4.589
4.6711
4.76593
4.87206
4.98234
5.08472
5.16609
5.21768
5.23918
5.23912
5.23113
5.22799
5.23684
5.2574
5.28354
5.30632
5.31684
5.30768
5.27336
5.21031
5.11705
4.9945
4.84621
4.67821
4.49829
4.31488
4.13589
3.96774
3.81482
3.67944
3.56212
3.4621
3.37782
3.30738
3.24883
3.20033
3.16024
3.12714
3.09982
3.07726
3.05864
3.04323
3.03048
3.0199
3.01109
3.00374
2.99759
2.99242
2.98806
2.98435
2.98119
2.97848
2.97614
2.9741
2.97231
2.97074
2.96935
2.9681
2.96698
2.96596
2.96503
2.96418
2.96339
2.96266
2.96198
2.96134
2.96073
2.96016
2.95962
2.95911
2.95855
2.95842
2.95619
4.02409
4.00192
3.98063
3.96044
3.94161
3.92439
3.90911
3.8961
3.88573
3.87836
3.87438
3.87414
3.87802
3.8863
3.89927
3.9171
3.9399
3.96767
4.00029
4.03748
4.07883
4.12377
4.17161
4.22165
4.27351
4.32758
4.38554
4.45053
4.52639
4.61569
4.7172
4.8241
4.92467
5.00589
5.05866
5.08195
5.08345
5.07617
5.07276
5.08061
5.10004
5.12549
5.14859
5.16085
5.15528
5.12679
5.07211
4.9898
4.88048
4.74708
4.59469
4.43008
4.2608
4.09409
3.93604
3.79101
3.66154
3.54849
3.45146
3.36926
3.30025
3.24268
3.19488
3.15528
3.12255
3.09551
3.07319
3.05476
3.03952
3.02692
3.01647
3.00779
3.00056
2.99451
2.98944
2.98516
2.98154
2.97846
2.97581
2.97353
2.97155
2.96982
2.9683
2.96694
2.96573
2.96464
2.96365
2.96275
2.96192
2.96115
2.96044
2.95977
2.95914
2.95855
2.95799
2.95745
2.95695
2.95639
2.95627
2.95404
4.02219
3.99966
3.97792
3.95715
3.93758
3.91942
3.90296
3.88848
3.87629
3.86672
3.86009
3.85673
3.85696
3.86105
3.86925
3.88174
3.89864
3.91996
3.94564
3.97547
4.00914
4.04619
4.08606
4.12823
4.17245
4.21924
4.27039
4.32907
4.39912
4.48318
4.58021
4.6837
4.78227
4.86299
4.91651
4.94116
4.94388
4.93705
4.93315
4.93984
4.95793
4.98246
5.0055
5.01898
5.01626
4.99258
4.94495
4.872
4.77417
4.65384
4.51536
4.36461
4.20832
4.05308
3.90462
3.76724
3.64359
3.53481
3.44084
3.36077
3.29324
3.23671
3.18963
3.15056
3.11821
3.09147
3.06938
3.05114
3.03607
3.02361
3.0133
3.00474
2.99762
2.99167
2.9867
2.98251
2.97897
2.97596
2.97338
2.97116
2.96923
2.96755
2.96607
2.96475
2.96358
2.96252
2.96156
2.96068
2.95987
2.95912
2.95842
2.95777
2.95715
2.95657
2.95602
2.95549
2.95499
2.95444
2.95432
2.9521
4.02031
3.99744
3.97527
3.95397
3.93373
3.91473
3.89722
3.88144
3.86766
3.85617
3.84724
3.84119
3.83826
3.83874
3.84283
3.85072
3.86252
3.87827
3.89795
3.92141
3.94841
3.97859
4.0115
4.04673
4.08418
4.12449
4.16949
4.22241
4.28708
4.36622
4.45895
4.55907
4.6555
4.73549
4.78944
4.81513
4.81878
4.81221
4.80769
4.8131
4.82973
4.85311
4.8758
4.89005
4.88955
4.86984
4.82814
4.7632
4.67531
4.56646
4.44035
4.30211
4.15769
4.0131
3.87371
3.74366
3.6257
3.52116
3.43026
3.35238
3.28638
3.23092
3.18459
3.14606
3.11411
3.08767
3.06582
3.04778
3.03287
3.02056
3.01037
3.00193
2.99491
2.98907
2.98418
2.98008
2.97661
2.97367
2.97116
2.96899
2.96712
2.96548
2.96404
2.96277
2.96162
2.9606
2.95966
2.9588
2.95801
2.95728
2.9566
2.95596
2.95536
2.95478
2.95424
2.95371
2.95323
2.95268
2.95257
2.95035
4.01848
3.99529
3.97272
3.95093
3.93007
3.91032
3.89187
3.87494
3.85977
3.8466
3.83569
3.82729
3.82165
3.819
3.81954
3.82345
3.83085
3.8418
3.85628
3.87422
3.89542
3.9196
3.94641
3.97555
4.00701
4.04152
4.08099
4.12866
4.18838
4.26291
4.35154
4.44836
4.54262
4.62169
4.67584
4.70234
4.70673
4.70029
4.69508
4.69915
4.71421
4.73629
4.75837
4.77302
4.77422
4.75773
4.72102
4.66293
4.58366
4.48488
4.36975
4.24274
4.10914
3.9744
3.84351
3.72045
3.60799
3.50762
3.41979
3.3441
3.27966
3.2253
3.17975
3.14177
3.11023
3.0841
3.06249
3.04464
3.02991
3.01773
3.00767
2.99934
2.99243
2.98668