/*--------------------------------*- C++ -*----------------------------------*\
| =========                 |                                                 |
| \\      /  F ield         | OpenFOAM: The Open Source CFD Toolbox           |
|  \\    /   O peration     | Version:  2.1.1                                 |
|   \\  /    A nd           | Web:      www.OpenFOAM.org                      |
|    \\/     M anipulation  |                                                 |
\*---------------------------------------------------------------------------*/
FoamFile
{
    version     2.0;
    format      ascii;
    class       volScalarField;
    location    "0.025";
    object      k;
}
// * * * * * * * * * * * * * * * * * * * * * * * * * * * * * * * * * * * * * //

dimensions      [0 2 -2 0 0 0 0];

internalField   nonuniform List<scalar> 
6820
(
0.288909
0.351396
0.415003
0.47747
0.536883
0.591622
0.640515
0.6829
0.718586
0.747757
0.770869
0.788544
0.801489
0.810428
0.816053
0.819
0.819834
0.819042
0.817035
0.814157
0.810687
0.806853
0.802835
0.798777
0.794789
0.790957
0.78734
0.783995
0.780897
0.778326
0.775038
0.77701
0.755443
0.265531
0.269393
0.270518
0.271326
0.272522
0.274137
0.276085
0.278247
0.28051
0.282786
0.285015
0.287165
0.289222
0.291188
0.293072
0.294888
0.296651
0.298375
0.30007
0.301743
0.303397
0.305034
0.306651
0.308245
0.309811
0.311344
0.312842
0.314307
0.315746
0.317194
0.3187
0.320434
0.322771
0.262039
0.264259
0.263609
0.261573
0.25902
0.25634
0.253648
0.250958
0.248258
0.245539
0.242805
0.240069
0.237348
0.234665
0.23204
0.229494
0.227044
0.224703
0.222482
0.22039
0.218429
0.216603
0.21491
0.21335
0.211917
0.210608
0.209418
0.208342
0.207372
0.206511
0.205733
0.205083
0.204434
0.259884
0.260269
0.259791
0.25853
0.256827
0.254894
0.252841
0.250724
0.248567
0.246386
0.244189
0.241983
0.239774
0.237571
0.235382
0.233215
0.231077
0.228975
0.226917
0.224909
0.222955
0.221059
0.219226
0.217457
0.215754
0.214118
0.21255
0.211049
0.209613
0.208244
0.206934
0.205692
0.204489
0.259299
0.258404
0.257599
0.256567
0.255296
0.253854
0.252299
0.250674
0.249002
0.247303
0.245586
0.24386
0.242133
0.240409
0.238693
0.23699
0.235304
0.23364
0.231999
0.230387
0.228805
0.227257
0.225745
0.224271
0.222836
0.221442
0.22009
0.218781
0.217515
0.216291
0.215111
0.213974
0.212878
0.259224
0.257847
0.25662
0.255434
0.254226
0.252971
0.251667
0.250322
0.248944
0.247545
0.246132
0.244712
0.243292
0.241875
0.240465
0.239066
0.237681
0.236312
0.234962
0.233633
0.232327
0.231046
0.229792
0.228565
0.227367
0.2262
0.225063
0.223959
0.222887
0.221849
0.220845
0.219875
0.218943
0.259217
0.257714
0.256309
0.25498
0.2537
0.252445
0.251202
0.24996
0.248719
0.247476
0.246234
0.244995
0.243761
0.242535
0.241318
0.240114
0.238924
0.23775
0.236593
0.235455
0.234337
0.233241
0.232167
0.231116
0.230091
0.229091
0.228117
0.227171
0.226253
0.225364
0.224505
0.223678
0.222886
0.259218
0.25769
0.256224
0.254822
0.253478
0.252184
0.250929
0.249706
0.248506
0.247327
0.246165
0.245019
0.243888
0.242772
0.241672
0.240589
0.239522
0.238473
0.237442
0.23643
0.235439
0.234468
0.233518
0.232591
0.231687
0.230806
0.22995
0.229119
0.228314
0.227537
0.226789
0.226072
0.225389
0.259218
0.257686
0.256206
0.25478
0.253407
0.252083
0.250805
0.24957
0.248371
0.247206
0.24607
0.244961
0.243877
0.242817
0.241779
0.240762
0.239767
0.238793
0.23784
0.236909
0.235998
0.235109
0.234242
0.233398
0.232576
0.231778
0.231004
0.230254
0.22953
0.228834
0.228166
0.22753
0.226928
0.259218
0.257685
0.256203
0.254769
0.253385
0.252048
0.250757
0.249509
0.248302
0.247134
0.246001
0.244902
0.243834
0.242795
0.241784
0.2408
0.239841
0.238907
0.237997
0.237112
0.236249
0.23541
0.234595
0.233802
0.233034
0.232289
0.231569
0.230875
0.230206
0.229565
0.228953
0.228374
0.227829
0.259218
0.257685
0.256202
0.254767
0.253379
0.252037
0.25074
0.249486
0.248273
0.247099
0.245963
0.244863
0.243797
0.242764
0.241762
0.24079
0.239846
0.23893
0.238041
0.237178
0.236341
0.235529
0.234742
0.233979
0.233242
0.23253
0.231843
0.231182
0.230548
0.229943
0.229367
0.228824
0.228317
0.259218
0.257685
0.256201
0.254766
0.253377
0.252034
0.250734
0.249477
0.248261
0.247084
0.245945
0.244842
0.243775
0.242741
0.24174
0.240771
0.239831
0.238921
0.23804
0.237187
0.23636
0.235561
0.234787
0.23404
0.233319
0.232624
0.231955
0.231313
0.230699
0.230114
0.229559
0.229038
0.228552
0.259218
0.257685
0.256201
0.254765
0.253376
0.252032
0.250731
0.249473
0.248255
0.247076
0.245935
0.244831
0.243762
0.242727
0.241725
0.240755
0.239815
0.238907
0.238027
0.237176
0.236353
0.235558
0.23479
0.234048
0.233334
0.232646
0.231986
0.231353
0.230748
0.230173
0.229629
0.229118
0.228642
0.259218
0.257685
0.2562
0.254764
0.253375
0.252031
0.250729
0.24947
0.248252
0.247072
0.24593
0.244824
0.243753
0.242717
0.241714
0.240742
0.239802
0.238893
0.238013
0.237162
0.236339
0.235544
0.234777
0.234037
0.233324
0.232639
0.231981
0.231351
0.230749
0.230178
0.229637
0.229129
0.228657
0.259218
0.257684
0.2562
0.254764
0.253374
0.252029
0.250728
0.249468
0.248249
0.247068
0.245925
0.244819
0.243747
0.24271
0.241705
0.240733
0.239791
0.238881
0.237999
0.237147
0.236323
0.235528
0.23476
0.234019
0.233306
0.23262
0.231962
0.231332
0.23073
0.230158
0.229617
0.229108
0.228634
0.259218
0.257684
0.2562
0.254763
0.253374
0.252028
0.250727
0.249466
0.248247
0.247065
0.245922
0.244814
0.243742
0.242703
0.241698
0.240724
0.239782
0.23887
0.237987
0.237134
0.236308
0.235511
0.234742
0.234
0.233285
0.232598
0.231938
0.231306
0.230702
0.230128
0.229584
0.229071
0.228592
0.259218
0.257684
0.2562
0.254763
0.253373
0.252028
0.250725
0.249465
0.248244
0.247063
0.245918
0.24481
0.243737
0.242697
0.241691
0.240716
0.239773
0.238859
0.237975
0.23712
0.236294
0.235495
0.234724
0.23398
0.233263
0.232574
0.231911
0.231277
0.23067
0.230092
0.229544
0.229027
0.228543
0.259218
0.257684
0.2562
0.254763
0.253373
0.252027
0.250724
0.249463
0.248242
0.24706
0.245915
0.244806
0.243732
0.242692
0.241684
0.240709
0.239764
0.238849
0.237964
0.237108
0.236279
0.235479
0.234706
0.23396
0.233241
0.232549
0.231884
0.231246
0.230636
0.230055
0.229502
0.228979
0.228488
0.259218
0.257684
0.256199
0.254763
0.253372
0.252026
0.250724
0.249462
0.248241
0.247058
0.245912
0.244803
0.243728
0.242687
0.241678
0.240701
0.239755
0.238839
0.237953
0.237095
0.236265
0.235463
0.234688
0.23394
0.233219
0.232524
0.231856
0.231215
0.230601
0.230015
0.229458
0.228929
0.22843
0.259218
0.257684
0.256199
0.254763
0.253372
0.252026
0.250723
0.249461
0.248239
0.247056
0.24591
0.244799
0.243724
0.242682
0.241672
0.240694
0.239747
0.23883
0.237942
0.237082
0.236251
0.235447
0.23467
0.23392
0.233196
0.232498
0.231827
0.231183
0.230565
0.229975
0.229412
0.228877
0.228371
0.259218
0.257684
0.256199
0.254762
0.253372
0.252025
0.250722
0.24946
0.248238
0.247054
0.245907
0.244796
0.24372
0.242677
0.241666
0.240688
0.239739
0.238821
0.237931
0.23707
0.236237
0.235431
0.234652
0.233899
0.233173
0.232473
0.231799
0.231151
0.230529
0.229934
0.229365
0.228824
0.228311
0.259218
0.257684
0.256199
0.254762
0.253371
0.252025
0.250721
0.249459
0.248236
0.247052
0.245905
0.244793
0.243716
0.242672
0.241661
0.240681
0.239732
0.238812
0.237921
0.237058
0.236223
0.235416
0.234634
0.233879
0.233151
0.232447
0.23177
0.231118
0.230492
0.229892
0.229319
0.228771
0.228251
0.259218
0.257684
0.256199
0.254762
0.253371
0.252025
0.250721
0.249458
0.248235
0.24705
0.245903
0.24479
0.243713
0.242668
0.241656
0.240675
0.239724
0.238803
0.237911
0.237047
0.23621
0.2354
0.234617
0.23386
0.233128
0.232422
0.231742
0.231086
0.230456
0.229852
0.229272
0.228719
0.228192
0.259218
0.257684
0.256199
0.254762
0.253371
0.252024
0.25072
0.249457
0.248234
0.247049
0.245901
0.244788
0.243709
0.242664
0.241651
0.240669
0.239717
0.238795
0.237901
0.237036
0.236197
0.235386
0.2346
0.233841
0.233106
0.232398
0.231714
0.231055
0.230421
0.229811
0.229227
0.228668
0.228134
0.259218
0.257684
0.256199
0.254762
0.253371
0.252024
0.25072
0.249457
0.248233
0.247048
0.245899
0.244785
0.243706
0.24266
0.241646
0.240663
0.239711
0.238787
0.237892
0.237025
0.236185
0.235371
0.234584
0.233822
0.233085
0.232373
0.231686
0.231024
0.230386
0.229772
0.229183
0.228618
0.228078
0.259218
0.257684
0.256199
0.254762
0.253371
0.252024
0.25072
0.249456
0.248232
0.247046
0.245897
0.244783
0.243703
0.242657
0.241642
0.240658
0.239704
0.238779
0.237883
0.237014
0.236173
0.235357
0.234568
0.233804
0.233065
0.23235
0.23166
0.230994
0.230353
0.229735
0.22914
0.22857
0.228024
0.259218
0.257684
0.256199
0.254762
0.253371
0.252024
0.250719
0.249456
0.248232
0.247045
0.245896
0.244781
0.243701
0.242653
0.241638
0.240653
0.239698
0.238772
0.237875
0.237004
0.236161
0.235344
0.234553
0.233786
0.233045
0.232328
0.231635
0.230966
0.23032
0.229699
0.2291
0.228525
0.227973
0.259218
0.257684
0.256199
0.254762
0.253371
0.252024
0.250719
0.249455
0.248231
0.247044
0.245894
0.244779
0.243698
0.24265
0.241634
0.240648
0.239693
0.238766
0.237867
0.236995
0.23615
0.235332
0.234539
0.23377
0.233027
0.232307
0.231611
0.230939
0.23029
0.229665
0.229062
0.228482
0.227925
0.259218
0.257684
0.256199
0.254762
0.253371
0.252024
0.250719
0.249455
0.24823
0.247043
0.245893
0.244777
0.243696
0.242647
0.24163
0.240644
0.239687
0.238759
0.237859
0.236986
0.23614
0.23532
0.234525
0.233755
0.233009
0.232287
0.231589
0.230914
0.230262
0.229633
0.229026
0.228442
0.22788
0.259218
0.257684
0.256199
0.254762
0.253371
0.252024
0.250719
0.249455
0.24823
0.247043
0.245892
0.244776
0.243694
0.242645
0.241627
0.24064
0.239683
0.238754
0.237853
0.236979
0.236131
0.23531
0.234513
0.233741
0.232994
0.23227
0.231569
0.230892
0.230237
0.229605
0.228995
0.228407
0.22784
0.259218
0.257684
0.2562
0.254762
0.253371
0.252024
0.250719
0.249455
0.24823
0.247042
0.245891
0.244775
0.243693
0.242643
0.241625
0.240637
0.239679
0.238749
0.237847
0.236972
0.236124
0.235301
0.234503
0.233729
0.23298
0.232254
0.231552
0.230872
0.230215
0.22958
0.228966
0.228375
0.227805
0.259218
0.257684
0.256199
0.254762
0.253371
0.252024
0.25072
0.249456
0.248231
0.247044
0.245893
0.244777
0.243694
0.242644
0.241625
0.240637
0.239678
0.238748
0.237845
0.236969
0.23612
0.235296
0.234496
0.233722
0.232971
0.232243
0.231539
0.230857
0.230197
0.22956
0.228944
0.228349
0.227775
0.259218
0.257685
0.256201
0.254765
0.253374
0.252027
0.250723
0.249459
0.248234
0.247047
0.245896
0.244779
0.243697
0.242646
0.241627
0.240639
0.23968
0.238749
0.237845
0.236969
0.236118
0.235293
0.234493
0.233717
0.232964
0.232235
0.231529
0.230844
0.230182
0.229542
0.228922
0.228324
0.227746
0.259218
0.257685
0.256201
0.254766
0.253378
0.252033
0.250731
0.249469
0.248245
0.247059
0.245908
0.244792
0.24371
0.242659
0.24164
0.240651
0.239691
0.238759
0.237854
0.236976
0.236123
0.235296
0.234493
0.233714
0.232958
0.232225
0.231514
0.230825
0.230158
0.229512
0.228886
0.22828
0.227695
0.259219
0.25769
0.256212
0.25478
0.253394
0.252051
0.250749
0.249487
0.248264
0.247078
0.245928
0.244811
0.243728
0.242676
0.241655
0.240663
0.2397
0.238764
0.237854
0.236971
0.236112
0.235277
0.234466
0.233678
0.232912
0.232168
0.231446
0.230744
0.230063
0.229402
0.228761
0.228139
0.227536
0.25922
0.257693
0.25622
0.254799
0.253423
0.25209
0.250796
0.249539
0.248318
0.247131
0.245977
0.244855
0.243763
0.242701
0.241667
0.240661
0.239681
0.238727
0.237797
0.236892
0.23601
0.235151
0.234314
0.233499
0.232705
0.231931
0.231178
0.230444
0.22973
0.229035
0.228358
0.2277
0.22706
0.25923
0.257741
0.256298
0.254889
0.253517
0.252181
0.25088
0.249611
0.248373
0.247165
0.245984
0.244831
0.243704
0.242604
0.241529
0.240478
0.239452
0.23845
0.237472
0.236516
0.235582
0.234671
0.233781
0.232912
0.232064
0.231237
0.230429
0.229641
0.228873
0.228123
0.227393
0.22668
0.225986
0.259264
0.257821
0.25645
0.255119
0.253796
0.25247
0.251145
0.249828
0.248528
0.247248
0.245995
0.24477
0.243575
0.24241
0.241276
0.240172
0.239098
0.238054
0.237038
0.23605
0.235089
0.234155
0.233248
0.232366
0.23151
0.230679
0.229874
0.229092
0.228336
0.227604
0.226896
0.226212
0.225552
0.259601
0.258637
0.257583
0.256548
0.255598
0.254732
0.253935
0.253197
0.252515
0.251887
0.251314
0.250797
0.250338
0.249937
0.249597
0.249316
0.249096
0.248936
0.248838
0.248801
0.248825
0.24891
0.249056
0.249263
0.249531
0.24986
0.250249
0.250697
0.251206
0.251773
0.252399
0.253082
0.25382
0.266719
0.28057
0.294243
0.307624
0.320669
0.333362
0.345688
0.357638
0.369202
0.380375
0.391152
0.401531
0.411512
0.421098
0.430289
0.439092
0.447511
0.455553
0.463225
0.470534
0.477488
0.484096
0.490367
0.496309
0.501932
0.507244
0.512255
0.516973
0.521407
0.525566
0.529458
0.533091
0.53648
0.865499
1.0533
1.32663
1.67907
2.04595
2.34207
2.53088
2.62799
2.6676
2.67197
2.64845
2.59411
2.49834
2.34643
2.12441
1.82478
1.45554
1.05325
0.688194
0.440434
0.345907
0.358802
0.409534
0.466905
0.521451
0.56909
0.607955
0.637588
0.65849
0.671656
0.678302
0.679822
0.677791
0.673847
0.669403
0.665328
0.661741
0.658022
0.653011
0.645318
0.633625
0.616945
0.594785
0.567244
0.53502
0.499349
0.461854
0.424319
0.388436
0.355566
0.326593
0.30188
0.281348
0.264606
0.251108
0.240271
0.231564
0.224543
0.218858
0.214244
0.210499
0.207464
0.205014
0.203047
0.201476
0.20023
0.199248
0.198482
0.197888
0.197433
0.197088
0.19683
0.196639
0.196502
0.196405
0.196339
0.196295
0.196269
0.196254
0.196249
0.196249
0.196252
0.196257
0.196264
0.19627
0.196276
0.196281
0.196285
0.196287
0.196288
0.196288
0.196287
0.196284
0.196281
0.196276
0.196271
0.196265
0.196256
0.196259
0.196194
0.325607
0.337351
0.369746
0.439577
0.564673
0.747774
0.969489
1.19682
1.39673
1.54126
1.61246
1.60415
1.51927
1.36549
1.15504
0.908718
0.660415
0.455916
0.335266
0.303565
0.325993
0.367416
0.414141
0.461176
0.505268
0.544052
0.576057
0.600819
0.61864
0.630186
0.636268
0.63786
0.636173
0.632593
0.628449
0.624682
0.621593
0.618766
0.615202
0.609591
0.600608
0.587181
0.568682
0.545032
0.516736
0.484837
0.450783
0.416227
0.382787
0.351813
0.324234
0.300497
0.28062
0.264306
0.251085
0.24043
0.231845
0.224908
0.219281
0.214703
0.210975
0.207941
0.205479
0.20349
0.20189
0.200611
0.199594
0.198792
0.198162
0.197673
0.197296
0.197009
0.196791
0.196629
0.19651
0.196424
0.196363
0.19632
0.196292
0.196274
0.196263
0.196256
0.196253
0.196252
0.196252
0.196252
0.196252
0.196251
0.19625
0.196248
0.196245
0.196241
0.196236
0.19623
0.196224
0.196217
0.19621
0.1962
0.196202
0.196136
0.203578
0.203209
0.203548
0.205126
0.211142
0.226869
0.256249
0.298488
0.346189
0.394993
0.435908
0.457668
0.452238
0.418998
0.366565
0.311455
0.272784
0.262451
0.276885
0.304194
0.33721
0.373934
0.412592
0.45098
0.486953
0.518695
0.545077
0.56577
0.581001
0.591209
0.596893
0.598678
0.597441
0.594318
0.590522
0.587033
0.584309
0.582143
0.579723
0.575855
0.569246
0.558768
0.543669
0.5237
0.499172
0.470923
0.440218
0.408567
0.377505
0.348367
0.322123
0.299306
0.280032
0.264101
0.251118
0.240616
0.232134
0.225268
0.21969
0.215143
0.211431
0.2084
0.205929
0.20392
0.202294
0.200984
0.199933
0.199095
0.198431
0.197907
0.197497
0.197178
0.196932
0.196744
0.196601
0.196493
0.196412
0.196352
0.196308
0.196276
0.196253
0.196235
0.196223
0.196213
0.196205
0.196199
0.196193
0.196187
0.196181
0.196175
0.196169
0.196162
0.196154
0.196147
0.196138
0.19613
0.196121
0.19611
0.196111
0.196044
0.203202
0.201875
0.200492
0.198835
0.196886
0.195163
0.19483
0.197146
0.202763
0.208845
0.214327
0.218578
0.221541
0.22421
0.228649
0.237095
0.250519
0.268295
0.289799
0.315015
0.343574
0.3745
0.406496
0.438041
0.467507
0.493528
0.515306
0.532649
0.545742
0.554867
0.560288
0.562348
0.561634
0.559044
0.555653
0.552445
0.549999
0.5483
0.546735
0.544255
0.539633
0.531722
0.519674
0.50309
0.48209
0.457311
0.429831
0.401006
0.372277
0.34495
0.320028
0.298119
0.279437
0.263876
0.251123
0.240763
0.232375
0.225575
0.220045
0.215532
0.21184
0.208816
0.206341
0.20432
0.202674
0.201338
0.200257
0.199387
0.19869
0.198134
0.197692
0.197343
0.197069
0.196854
0.196686
0.196556
0.196455
0.196377
0.196316
0.196269
0.196232
0.196204
0.19618
0.196161
0.196146
0.196132
0.19612
0.196108
0.196097
0.196087
0.196077
0.196067
0.196056
0.196046
0.196036
0.196025
0.196015
0.196002
0.196002
0.195933
0.211647
0.210317
0.209154
0.208207
0.207444
0.206856
0.206596
0.207133
0.208584
0.210873
0.214012
0.218108
0.223378
0.230149
0.238804
0.249718
0.26321
0.279509
0.298687
0.320584
0.344786
0.370637
0.397173
0.42317
0.447373
0.468781
0.486852
0.501497
0.512878
0.521161
0.526439
0.528834
0.528693
0.526691
0.523761
0.520856
0.51864
0.517264
0.516308
0.514886
0.511867
0.506123
0.496743
0.483201
0.465445
0.443919
0.41951
0.393416
0.366971
0.341438
0.317839
0.296847
0.278765
0.26358
0.251056
0.240839
0.232543
0.225808
0.220326
0.215848
0.21218
0.209169
0.206699
0.204672
0.203013
0.201658
0.200554
0.199658
0.198933
0.198348
0.197878
0.197501
0.1972
0.196959
0.196768
0.196616
0.196495
0.196399
0.196322
0.19626
0.19621
0.196169
0.196135
0.196106
0.196082
0.196061
0.196042
0.196025
0.196009
0.195994
0.19598
0.195966
0.195953
0.19594
0.195927
0.195915
0.195903
0.195888
0.195887
0.195817
0.21789
0.21674
0.215721
0.214946
0.214508
0.214475
0.214914
0.215935
0.217635
0.220095
0.223411
0.227719
0.2332
0.240068
0.24855
0.25887
0.27123
0.285764
0.302484
0.321252
0.341757
0.363445
0.385515
0.407006
0.426976
0.444705
0.459837
0.472355
0.4824
0.490057
0.495294
0.498066
0.498522
0.497142
0.494719
0.492149
0.490146
0.488996
0.488453
0.4878
0.486027
0.482053
0.474944
0.464076
0.449248
0.430723
0.409204
0.385726
0.361507
0.337751
0.315483
0.295428
0.277968
0.263175
0.250891
0.24082
0.232619
0.22595
0.220516
0.216076
0.212436
0.209446
0.206985
0.204961
0.203297
0.201931
0.200811
0.199896
0.199149
0.19854
0.198046
0.197645
0.19732
0.197058
0.196845
0.196673
0.196533
0.19642
0.196327
0.196251
0.196188
0.196136
0.196091
0.196054
0.196021
0.195992
0.195967
0.195944
0.195923
0.195904
0.195886
0.195869
0.195852
0.195837
0.195822
0.195807
0.195794
0.195778
0.195775
0.195703
0.222004
0.221061
0.220264
0.219729
0.219547
0.219785
0.220508
0.221782
0.22368
0.226291
0.229715
0.234065
0.239472
0.246083
0.254054
0.263539
0.274667
0.287516
0.302075
0.318214
0.335638
0.353879
0.372296
0.390153
0.406749
0.421572
0.434402
0.445268
0.454291
0.4615
0.466771
0.469938
0.470992
0.470248
0.468359
0.466155
0.464369
0.463388
0.463116
0.462998
0.462154
0.459583
0.454354
0.445782
0.433545
0.417746
0.398911
0.377915
0.355849
0.333847
0.312919
0.293825
0.277014
0.262637
0.25061
0.240697
0.232596
0.225994
0.220611
0.21621
0.212602
0.209635
0.20719
0.205175
0.203514
0.202144
0.201017
0.200089
0.199327
0.198701
0.198188
0.197768
0.197424
0.197143
0.196912
0.196723
0.196567
0.196438
0.196331
0.196242
0.196168
0.196105
0.196051
0.196005
0.195964
0.195929
0.195897
0.195869
0.195844
0.19582
0.195798
0.195778
0.195759
0.195741
0.195724
0.195707
0.195692
0.195675
0.195671
0.195598
0.224639
0.223846
0.223185
0.222757
0.222659
0.222975
0.223778
0.22513
0.227095
0.229738
0.233132
0.237361
0.242523
0.248727
0.256083
0.264699
0.274656
0.285993
0.298673
0.312558
0.327391
0.342786
0.358237
0.373181
0.387103
0.399647
0.410686
0.420277
0.428525
0.435417
0.440769
0.444325
0.445955
0.445833
0.444488
0.442673
0.441118
0.440279
0.440184
0.440422
0.440246
0.438748
0.435035
0.428392
0.418405
0.405041
0.388666
0.369998
0.349997
0.329715
0.310129
0.29202
0.275888
0.261956
0.250207
0.240466
0.232471
0.225941
0.22061
0.21625
0.212674
0.209733
0.207309
0.205309
0.203656
0.20229
0.201161
0.200228
0.199457
0.198821
0.198295
0.197862
0.197504
0.197207
0.196962
0.196759
0.19659
0.196449
0.19633
0.196231
0.196146
0.196074
0.196012
0.195958
0.195911
0.19587
0.195833
0.1958
0.19577
0.195743
0.195718
0.195695
0.195673
0.195653
0.195634
0.195616
0.195599
0.19558
0.195576
0.195501
0.226276
0.225601
0.225051
0.224709
0.224665
0.224995
0.225769
0.227052
0.228907
0.231393
0.234574
0.238519
0.243301
0.248998
0.255686
0.263432
0.272282
0.282244
0.293266
0.305217
0.317875
0.330924
0.34397
0.356587
0.368397
0.379157
0.3888
0.397404
0.405057
0.411719
0.417169
0.421087
0.42325
0.423717
0.422904
0.421486
0.420176
0.419471
0.419497
0.419963
0.420251
0.419552
0.417031
0.411971
0.403901
0.392677
0.378526
0.362016
0.343977
0.325365
0.307115
0.290008
0.274585
0.261127
0.249681
0.240128
0.23225
0.225796
0.220519
0.2162
0.212657
0.209744
0.207343
0.20536
0.20372
0.202362
0.201238
0.200306
0.199533
0.198891
0.198359
0.197917
0.19755
0.197244
0.196989
0.196775
0.196596
0.196446
0.196318
0.19621
0.196118
0.196038
0.19597
0.19591
0.195858
0.195811
0.19577
0.195733
0.1957
0.19567
0.195642
0.195616
0.195593
0.195571
0.19555
0.19553
0.195512
0.195493
0.195487
0.195411
0.227246
0.226649
0.226166
0.225864
0.22582
0.226107
0.226793
0.227942
0.229613
0.231862
0.234745
0.238319
0.242639
0.247764
0.253747
0.260627
0.268427
0.277136
0.286694
0.29698
0.307808
0.318924
0.330021
0.340776
0.350913
0.360265
0.368812
0.376636
0.383817
0.3903
0.395839
0.400073
0.402711
0.403716
0.403405
0.402379
0.401319
0.400749
0.400864
0.401476
0.402076
0.401957
0.400351
0.396566
0.390101
0.380731
0.368562
0.354028
0.33783
0.320826
0.303893
0.2878
0.273111
0.260154
0.249036
0.239689
0.231941
0.225569
0.220347
0.21607
0.21256
0.209675
0.207297
0.205333
0.203709
0.202364
0.201247
0.20032
0.19955
0.198909
0.198375
0.197929
0.197557
0.197246
0.196985
0.196765
0.196579
0.196422
0.196289
0.196175
0.196077
0.195992
0.195919
0.195854
0.195798
0.195748
0.195704
0.195664
0.195628
0.195595
0.195565
0.195538
0.195513
0.195489
0.195467
0.195447
0.195428
0.195407
0.195401
0.195324
0.227777
0.22723
0.226786
0.2265
0.226436
0.226659
0.227231
0.228211
0.229657
0.231621
0.234155
0.237308
0.241126
0.245653
0.250925
0.256967
0.263784
0.271355
0.27962
0.288474
0.297762
0.307279
0.316788
0.326043
0.334839
0.343067
0.350731
0.357921
0.364709
0.371032
0.376634
0.381129
0.384172
0.385653
0.385801
0.385144
0.384331
0.383896
0.384085
0.384791
0.385597
0.38589
0.384975
0.3822
0.377058
0.369269
0.358844
0.346098
0.33161
0.316138
0.300491
0.285411
0.271475
0.259046
0.24828
0.239159
0.231552
0.22527
0.220108
0.215873
0.212396
0.209538
0.207183
0.205239
0.203631
0.202299
0.201194
0.200275
0.199511
0.198873
0.198341
0.197896
0.197523
0.19721
0.196946
0.196724
0.196535
0.196374
0.196237
0.196119
0.196018
0.19593
0.195854
0.195786
0.195727
0.195675
0.195628
0.195586
0.195549
0.195514
0.195483
0.195455
0.195428
0.195404
0.195381
0.19536
0.19534
0.195319
0.195312
0.195235
0.228037
0.227516
0.227088
0.226798
0.226698
0.226844
0.227291
0.228094
0.229306
0.230977
0.233152
0.235876
0.239189
0.243124
0.247708
0.252957
0.258867
0.265415
0.272544
0.280165
0.288151
0.296339
0.304542
0.31257
0.320274
0.32758
0.334513
0.341166
0.347607
0.35377
0.359398
0.364092
0.36747
0.369359
0.369912
0.369594
0.369014
0.36871
0.368963
0.369731
0.370673
0.371255
0.370855
0.36887
0.364805
0.358349
0.34944
0.338292
0.325376
0.311346
0.296942
0.282866
0.269693
0.257814
0.247423
0.238547
0.231096
0.224912
0.219814
0.215623
0.212178
0.209346
0.207012
0.205087
0.203496
0.202178
0.201085
0.200176
0.19942
0.198789
0.198261
0.19782
0.197449
0.197137
0.196873
0.19665
0.196461
0.196299
0.196161
0.196042
0.195939
0.195849
0.195771
0.195702
0.195642
0.195588
0.19554
0.195497
0.195459
0.195423
0.195391
0.195362
0.195335
0.19531
0.195287
0.195265
0.195245
0.195223
0.195216
0.195139
0.228139
0.227626
0.227198
0.226891
0.226747
0.226813
0.227138
0.22777
0.228756
0.230142
0.231971
0.234283
0.237111
0.240485
0.244426
0.248943
0.254032
0.259668
0.265804
0.272364
0.279244
0.286315
0.293428
0.300437
0.307229
0.31376
0.320067
0.326246
0.332363
0.338355
0.343969
0.348802
0.352444
0.354672
0.355576
0.355557
0.35519
0.355007
0.355317
0.356125
0.357155
0.35794
0.357922
0.356551
0.353353
0.348009
0.340405
0.330673
0.319184
0.3065
0.293283
0.280191
0.267785
0.256471
0.246473
0.237861
0.230581
0.224505
0.219477
0.215332
0.21192
0.209113
0.2068
0.204893
0.203317
0.202013
0.200932
0.200034
0.199286
0.198663
0.198142
0.197705
0.197339
0.19703
0.196769
0.196548
0.196359
0.196198
0.19606
0.195941
0.195838
0.195749
0.19567
0.195601
0.195541
0.195487
0.195438
0.195395
0.195356
0.19532
0.195288
0.195258
0.195231
0.195206
0.195182
0.19516
0.19514
0.195118
0.195111
0.195033
0.228155
0.22764
0.227202
0.22687
0.226678
0.226665
0.226874
0.227346
0.228124
0.229248
0.230758
0.232688
0.23507
0.23793
0.241284
0.245142
0.249497
0.254329
0.259598
0.265243
0.271178
0.2773
0.28349
0.289635
0.29565
0.301511
0.307266
0.313012
0.318817
0.324623
0.330185
0.335099
0.33894
0.341443
0.342641
0.342881
0.342701
0.342625
0.342982
0.343816
0.344902
0.345828
0.346094
0.345196
0.342696
0.338273
0.331782
0.323292
0.31309
0.301648
0.289554
0.277415
0.265771
0.25503
0.245444
0.237112
0.230016
0.224059
0.219107
0.215012
0.211635
0.208853
0.20656
0.204669
0.203108
0.201816
0.200746
0.199859
0.19912
0.198505
0.197991
0.197561
0.1972
0.196895
0.196638
0.19642
0.196234
0.196076
0.195939
0.195822
0.19572
0.195631
0.195553
0.195485
0.195425
0.195371
0.195323
0.19528
0.195241
0.195205
0.195173
0.195143
0.195116
0.195091
0.195067
0.195045
0.195025
0.195004
0.194996
0.194918
0.228127
0.227604
0.22715
0.226788
0.226547
0.22646
0.226562
0.22689
0.22748
0.22837
0.229593
0.231181
0.233163
0.235562
0.238393
0.241665
0.245373
0.249501
0.254017
0.25887
0.263992
0.269299
0.274698
0.280098
0.285437
0.290706
0.295963
0.301305
0.306804
0.312409
0.317883
0.32283
0.326812
0.329531
0.330972
0.331431
0.33141
0.331424
0.331816
0.332664
0.333782
0.334806
0.335282
0.334752
0.332809
0.329146
0.323601
0.316192
0.307139
0.296835
0.285793
0.274569
0.263672
0.253508
0.244343
0.236306
0.229408
0.223582
0.218713
0.214673
0.211332
0.208576
0.206303
0.204428
0.20288
0.2016
0.200541
0.199663
0.198934
0.198327
0.19782
0.197396
0.197041
0.196741
0.196489
0.196275
0.196092
0.195937
0.195803
0.195687
0.195587
0.1955
0.195424
0.195357
0.195298
0.195245
0.195197
0.195155
0.195116
0.195081
0.195049
0.19502
0.194993
0.194968
0.194945
0.194923
0.194903
0.194881
0.194874
0.194796
0.228079
0.227543
0.227069
0.226676
0.226388
0.226233
0.226239
0.226438
0.226863
0.227545
0.228516
0.229803
0.231432
0.233425
0.235797
0.238554
0.241697
0.245211
0.249072
0.253239
0.257657
0.26226
0.266971
0.271721
0.276463
0.281203
0.286003
0.290965
0.296163
0.301554
0.306914
0.311851
0.315925
0.318809
0.320446
0.321085
0.321196
0.321281
0.321697
0.322545
0.323678
0.324767
0.325399
0.325155
0.32366
0.320624
0.315877
0.309406
0.301371
0.2921
0.282036
0.27168
0.26151
0.251919
0.243184
0.235453
0.228765
0.223078
0.218301
0.214321
0.211021
0.208292
0.206039
0.204179
0.202644
0.201375
0.200326
0.199457
0.198736
0.198137
0.197637
0.19722
0.19687
0.196576
0.196329
0.196119
0.19594
0.195788
0.195657
0.195545
0.195447
0.195362
0.195288
0.195222
0.195164
0.195112
0.195066
0.195024
0.194987
0.194952
0.194921
0.194892
0.194866
0.194841
0.194818
0.194796
0.194776
0.194755
0.194748
0.19467
0.22802
0.22747
0.226975
0.226551
0.226219
0.226
0.225921
0.226007
0.226287
0.226789
0.227539
0.228564
0.229886
0.231525
0.233496
0.235806
0.238456
0.241437
0.244729
0.2483
0.252108
0.256097
0.260207
0.264384
0.268595
0.272856
0.277236
0.281839
0.286742
0.291911
0.297134
0.30203
0.306154
0.309159
0.310951
0.311737
0.311955
0.312093
0.312518
0.313355
0.314486
0.315616
0.316364
0.316343
0.315208
0.312689
0.308615
0.302953
0.295818
0.287478
0.278316
0.268778
0.259306
0.250279
0.241975
0.234559
0.228092
0.222554
0.217877
0.213962
0.210705
0.208006
0.205774
0.20393
0.202408
0.20115
0.20011
0.199249
0.198536
0.197944
0.197451
0.19704
0.196696
0.196408
0.196165
0.195959
0.195785
0.195636
0.195509
0.195399
0.195304
0.195221
0.195149
0.195085
0.195029
0.194978
0.194933
0.194893
0.194856
0.194823
0.194792
0.194764
0.194738
0.194713
0.194691
0.194669
0.19465
0.194628
0.194622
0.194544
0.227956
0.227391
0.226875
0.226421
0.226047
0.225772
0.225617
0.225604
0.225757
0.226102
0.226661
0.227459
0.228515
0.229847
0.231471
0.233393
0.235615
0.238134
0.240932
0.243986
0.247262
0.250714
0.254296
0.257965
0.261702
0.265529
0.26952
0.273783
0.2784
0.283343
0.288415
0.293244
0.297385
0.300476
0.302388
0.303292
0.303592
0.303767
0.304188
0.305003
0.306119
0.307269
0.308101
0.308254
0.30741
0.305317
0.301813
0.296847
0.290503
0.282998
0.274661
0.265887
0.257082
0.248604
0.240729
0.233632
0.227393
0.222013
0.217442
0.213598
0.210389
0.207723
0.205513
0.203686
0.202176
0.200929
0.199898
0.199046
0.19834
0.197754
0.197268
0.196863
0.196525
0.196241
0.196003
0.195802
0.195632
0.195487
0.195363
0.195256
0.195164
0.195083
0.195013
0.194951
0.194897
0.194848
0.194804
0.194764
0.194729
0.194696
0.194666
0.194638
0.194613
0.194589
0.194567
0.194546
0.194526
0.194506
0.194499
0.194422
0.227888
0.227308
0.226771
0.22629
0.225878
0.225552
0.225329
0.225229
0.225272
0.225481
0.225876
0.226476
0.227303
0.228371
0.229693
0.231279
0.233132
0.235249
0.237619
0.240223
0.243034
0.246017
0.249133
0.252352
0.255662
0.259094
0.262727
0.266671
0.271011
0.27573
0.28064
0.285384
0.289517
0.292663
0.294666
0.295662
0.296026
0.296223
0.296629
0.29741
0.2985
0.299653
0.300542
0.300831
0.300223
0.298483
0.295459
0.291092
0.285441
0.278682
0.271095
0.263031
0.254856
0.246908
0.239456
0.232679
0.226674
0.221459
0.217001
0.213233
0.210076
0.207444
0.20526
0.20345
0.201954
0.200717
0.199695
0.19885
0.198151
0.197573
0.197092
0.196693
0.19636
0.196082
0.195848
0.195652
0.195485
0.195344
0.195223
0.195119
0.19503
0.194952
0.194883
0.194824
0.19477
0.194723
0.194681
0.194642
0.194608
0.194576
0.194547
0.19452
0.194495
0.194471
0.194449
0.194429
0.19441
0.194389
0.194383
0.194305
0.227818
0.227223
0.226667
0.226159
0.225713
0.22534
0.225058
0.224881
0.224829
0.22492
0.225172
0.225603
0.226231
0.22707
0.228133
0.229429
0.230962
0.23273
0.234728
0.23694
0.239345
0.241915
0.244621
0.247439
0.250366
0.253441
0.256744
0.260388
0.264465
0.268962
0.273707
0.278352
0.282457
0.285635
0.287706
0.288773
0.289184
0.289391
0.289772
0.29051
0.291561
0.292704
0.29363
0.294023
0.293604
0.292158
0.28954
0.285688
0.280643
0.274547
0.267641
0.26023
0.252648
0.245206
0.238165
0.231708
0.225939
0.220894
0.216554
0.212868
0.209766
0.207172
0.205014
0.203223
0.201741
0.200515