/*--------------------------------*- C++ -*----------------------------------*\
| =========                 |                                                 |
| \\      /  F ield         | OpenFOAM: The Open Source CFD Toolbox           |
|  \\    /   O peration     | Version:  2.1.1                                 |
|   \\  /    A nd           | Web:      www.OpenFOAM.org                      |
|    \\/     M anipulation  |                                                 |
\*---------------------------------------------------------------------------*/
FoamFile
{
    version     2.0;
    format      ascii;
    class       volScalarField;
    location    "0.025";
    object      nut;
}
// * * * * * * * * * * * * * * * * * * * * * * * * * * * * * * * * * * * * * //

dimensions      [0 2 -1 0 0 0 0];

internalField   nonuniform List<scalar> 
6820
(
4.96025e-05
5.47043e-05
5.94495e-05
6.3767e-05
6.7618e-05
7.09814e-05
7.38562e-05
7.62606e-05
7.82277e-05
7.97996e-05
8.10232e-05
8.19465e-05
8.26161e-05
8.30752e-05
8.33625e-05
8.35124e-05
8.35543e-05
8.35132e-05
8.34101e-05
8.32622e-05
8.30836e-05
8.28858e-05
8.26781e-05
8.24675e-05
8.226e-05
8.20598e-05
8.18703e-05
8.16943e-05
8.15306e-05
8.1394e-05
8.12192e-05
8.13205e-05
8.01763e-05
0.000540287
0.000305044
0.000220089
0.000171727
0.00014072
0.000119879
0.000105368
9.49931e-05
8.74322e-05
8.18491e-05
7.7694e-05
7.45932e-05
7.22859e-05
7.05857e-05
6.93569e-05
6.84984e-05
6.79343e-05
6.76061e-05
6.74684e-05
6.74851e-05
6.76275e-05
6.78722e-05
6.81996e-05
6.85936e-05
6.90404e-05
6.95278e-05
7.00454e-05
7.05829e-05
7.11313e-05
7.16795e-05
7.22076e-05
7.27378e-05
7.29967e-05
0.00105859
0.00083603
0.000679141
0.000569497
0.00048992
0.000429974
0.000383557
0.000346719
0.000316838
0.000292153
0.00027145
0.000253868
0.000238779
0.000225716
0.000214321
0.00020432
0.000195493
0.000187666
0.000180698
0.000174473
0.000168895
0.000163883
0.00015937
0.000155298
0.000151617
0.000148286
0.000145268
0.000142531
0.000140051
0.000137804
0.000135774
0.000133931
0.000132176
0.00115954
0.0010965
0.00101159
0.000926275
0.000849602
0.000783334
0.00072669
0.000678257
0.000636624
0.000600571
0.000569099
0.00054141
0.000516867
0.000494965
0.000475301
0.000457548
0.000441443
0.000426771
0.000413352
0.000401039
0.000389706
0.000379247
0.000369573
0.000360604
0.000352276
0.00034453
0.000337318
0.000330595
0.000324326
0.000318475
0.000313036
0.000307935
0.000303309
0.00116966
0.00115862
0.00113361
0.00109754
0.00105564
0.00101215
0.000969612
0.000929348
0.000891901
0.000857396
0.000825743
0.000796755
0.000770206
0.000745868
0.000723522
0.000702968
0.000684025
0.000666534
0.000650351
0.000635352
0.000621426
0.000608475
0.000596413
0.000585164
0.000574658
0.000564835
0.00055564
0.000547024
0.000538934
0.000531327
0.000524169
0.000517434
0.000511101
0.00117006
0.00116839
0.00116305
0.0011526
0.00113713
0.00111769
0.00109558
0.001072
0.00104786
0.00102382
0.00100032
0.000977617
0.000955882
0.000935192
0.000915577
0.000897033
0.000879533
0.00086304
0.000847507
0.000832887
0.00081913
0.000806185
0.000794007
0.000782547
0.000771764
0.000761613
0.000752048
0.000743037
0.000734558
0.000726584
0.000719072
0.000711994
0.000705302
0.00116996
0.00116938
0.00116821
0.00116569
0.00116123
0.00115459
0.00114587
0.00113535
0.00112341
0.00111045
0.0010968
0.00108278
0.00106862
0.00105451
0.00104059
0.00102697
0.00101371
0.00100088
0.0009885
0.000976602
0.000965194
0.000954279
0.000943856
0.000933915
0.000924444
0.000915437
0.000906886
0.000898775
0.00089109
0.000883814
0.00087693
0.000870423
0.000864269
0.00116994
0.0011694
0.00116883
0.00116802
0.00116674
0.00116473
0.00116182
0.00115795
0.00115312
0.00114741
0.00114094
0.00113384
0.00112624
0.00111827
0.00111004
0.00110166
0.00109322
0.00108478
0.00107641
0.00106816
0.00106006
0.00105215
0.00104446
0.001037
0.00102979
0.00102284
0.00101616
0.00100976
0.00100364
0.000997793
0.000992227
0.000986941
0.000981931
0.00116994
0.00116939
0.00116886
0.00116832
0.0011677
0.00116693
0.00116589
0.00116452
0.00116273
0.00116051
0.00115783
0.00115473
0.00115122
0.00114736
0.00114319
0.00113877
0.00113414
0.00112936
0.00112446
0.0011195
0.00111451
0.00110952
0.00110456
0.00109967
0.00109485
0.00109014
0.00108555
0.0010811
0.00107679
0.00107264
0.00106865
0.00106485
0.00106124
0.00116994
0.00116938
0.00116885
0.00116833
0.00116782
0.00116729
0.00116672
0.00116607
0.0011653
0.00116437
0.00116326
0.00116196
0.00116045
0.00115874
0.00115683
0.00115473
0.00115247
0.00115006
0.00114752
0.00114487
0.00114214
0.00113936
0.00113653
0.00113368
0.00113083
0.001128
0.0011252
0.00112245
0.00111976
0.00111715
0.00111462
0.00111221
0.00110992
0.00116994
0.00116938
0.00116884
0.00116832
0.00116782
0.00116733
0.00116684
0.00116636
0.00116585
0.00116531
0.00116472
0.00116407
0.00116335
0.00116255
0.00116166
0.00116068
0.00115961
0.00115845
0.00115721
0.0011559
0.00115453
0.0011531
0.00115163
0.00115013
0.00114861
0.00114707
0.00114554
0.00114402
0.00114252
0.00114106
0.00113966
0.00113831
0.00113705
0.00116994
0.00116938
0.00116884
0.00116832
0.00116781
0.00116732
0.00116685
0.00116639
0.00116594
0.00116549
0.00116504
0.00116459
0.00116412
0.00116363
0.00116312
0.00116258
0.00116201
0.00116141
0.00116078
0.00116011
0.00115942
0.0011587
0.00115796
0.0011572
0.00115643
0.00115565
0.00115488
0.00115411
0.00115336
0.00115263
0.00115195
0.00115131
0.00115073
0.00116994
0.00116938
0.00116884
0.00116832
0.00116781
0.00116732
0.00116684
0.00116639
0.00116594
0.00116551
0.00116509
0.00116468
0.00116428
0.00116388
0.00116349
0.0011631
0.0011627
0.00116231
0.00116191
0.00116151
0.00116111
0.0011607
0.00116029
0.00115988
0.00115948
0.00115908
0.00115869
0.00115832
0.00115797
0.00115765
0.00115736
0.00115712
0.00115694
0.00116994
0.00116938
0.00116884
0.00116832
0.00116781
0.00116732
0.00116684
0.00116638
0.00116593
0.0011655
0.00116509
0.00116469
0.0011643
0.00116392
0.00116356
0.00116321
0.00116286
0.00116253
0.00116221
0.0011619
0.0011616
0.00116131
0.00116103
0.00116076
0.00116051
0.00116028
0.00116006
0.00115987
0.0011597
0.00115957
0.00115948
0.00115943
0.00115944
0.00116994
0.00116938
0.00116884
0.00116831
0.00116781
0.00116731
0.00116684
0.00116637
0.00116593
0.0011655
0.00116508
0.00116468
0.00116429
0.00116392
0.00116356
0.00116321
0.00116288
0.00116257
0.00116227
0.00116198
0.00116171
0.00116146
0.00116122
0.001161
0.0011608
0.00116062
0.00116047
0.00116035
0.00116025
0.0011602
0.00116018
0.00116021
0.0011603
0.00116994
0.00116938
0.00116884
0.00116831
0.0011678
0.00116731
0.00116683
0.00116637
0.00116592
0.00116549
0.00116507
0.00116467
0.00116428
0.0011639
0.00116354
0.0011632
0.00116287
0.00116255
0.00116226
0.00116198
0.00116171
0.00116146
0.00116124
0.00116103
0.00116085
0.00116069
0.00116055
0.00116045
0.00116037
0.00116034
0.00116035
0.0011604
0.00116051
0.00116994
0.00116938
0.00116884
0.00116831
0.0011678
0.00116731
0.00116683
0.00116637
0.00116592
0.00116548
0.00116506
0.00116466
0.00116427
0.00116389
0.00116353
0.00116318
0.00116285
0.00116254
0.00116224
0.00116195
0.00116169
0.00116144
0.00116121
0.00116101
0.00116082
0.00116066
0.00116053
0.00116042
0.00116035
0.00116032
0.00116033
0.00116038
0.00116048
0.00116994
0.00116938
0.00116884
0.00116831
0.0011678
0.00116731
0.00116683
0.00116636
0.00116591
0.00116548
0.00116506
0.00116465
0.00116426
0.00116388
0.00116352
0.00116317
0.00116283
0.00116251
0.00116221
0.00116193
0.00116166
0.00116141
0.00116118
0.00116097
0.00116078
0.00116061
0.00116048
0.00116037
0.00116029
0.00116025
0.00116025
0.00116029
0.00116038
0.00116994
0.00116938
0.00116884
0.00116831
0.0011678
0.00116731
0.00116683
0.00116636
0.00116591
0.00116547
0.00116505
0.00116464
0.00116425
0.00116387
0.0011635
0.00116315
0.00116282
0.00116249
0.00116219
0.0011619
0.00116163
0.00116137
0.00116114
0.00116092
0.00116073
0.00116056
0.00116042
0.0011603
0.00116022
0.00116016
0.00116015
0.00116018
0.00116025
0.00116994
0.00116938
0.00116884
0.00116831
0.0011678
0.00116731
0.00116683
0.00116636
0.00116591
0.00116547
0.00116505
0.00116464
0.00116424
0.00116386
0.00116349
0.00116314
0.0011628
0.00116248
0.00116217
0.00116187
0.0011616
0.00116134
0.0011611
0.00116088
0.00116068
0.00116051
0.00116036
0.00116023
0.00116014
0.00116007
0.00116005
0.00116006
0.00116011
0.00116994
0.00116938
0.00116884
0.00116831
0.0011678
0.00116731
0.00116682
0.00116636
0.00116591
0.00116547
0.00116504
0.00116463
0.00116423
0.00116385
0.00116348
0.00116313
0.00116278
0.00116246
0.00116215
0.00116185
0.00116157
0.00116131
0.00116106
0.00116084
0.00116064
0.00116045
0.00116029
0.00116016
0.00116006
0.00115998
0.00115994
0.00115994
0.00115998
0.00116994
0.00116938
0.00116884
0.00116831
0.0011678
0.0011673
0.00116682
0.00116636
0.0011659
0.00116546
0.00116504
0.00116463
0.00116423
0.00116384
0.00116347
0.00116311
0.00116277
0.00116244
0.00116213
0.00116183
0.00116154
0.00116128
0.00116103
0.0011608
0.00116059
0.0011604
0.00116023
0.00116009
0.00115998
0.00115989
0.00115984
0.00115982
0.00115984
0.00116994
0.00116938
0.00116884
0.00116831
0.0011678
0.0011673
0.00116682
0.00116635
0.0011659
0.00116546
0.00116503
0.00116462
0.00116422
0.00116383
0.00116346
0.0011631
0.00116276
0.00116242
0.00116211
0.0011618
0.00116152
0.00116125
0.00116099
0.00116076
0.00116054
0.00116035
0.00116017
0.00116002
0.0011599
0.0011598
0.00115974
0.0011597
0.0011597
0.00116994
0.00116938
0.00116884
0.00116831
0.0011678
0.0011673
0.00116682
0.00116635
0.0011659
0.00116546
0.00116503
0.00116462
0.00116421
0.00116383
0.00116345
0.00116309
0.00116274
0.00116241
0.00116209
0.00116178
0.00116149
0.00116122
0.00116096
0.00116072
0.0011605
0.0011603
0.00116012
0.00115996
0.00115982
0.00115972
0.00115964
0.00115959
0.00115957
0.00116994
0.00116938
0.00116884
0.00116831
0.0011678
0.0011673
0.00116682
0.00116635
0.0011659
0.00116546
0.00116503
0.00116461
0.00116421
0.00116382
0.00116344
0.00116308
0.00116273
0.00116239
0.00116207
0.00116176
0.00116147
0.00116119
0.00116093
0.00116068
0.00116046
0.00116025
0.00116006
0.00115989
0.00115975
0.00115963
0.00115954
0.00115948
0.00115944
0.00116994
0.00116938
0.00116884
0.00116831
0.0011678
0.0011673
0.00116682
0.00116635
0.0011659
0.00116545
0.00116502
0.00116461
0.0011642
0.00116381
0.00116344
0.00116307
0.00116272
0.00116238
0.00116205
0.00116174
0.00116145
0.00116116
0.0011609
0.00116065
0.00116041
0.0011602
0.00116001
0.00115983
0.00115968
0.00115955
0.00115945
0.00115937
0.00115932
0.00116994
0.00116938
0.00116884
0.00116831
0.0011678
0.0011673
0.00116682
0.00116635
0.0011659
0.00116545
0.00116502
0.00116461
0.0011642
0.00116381
0.00116343
0.00116306
0.00116271
0.00116237
0.00116204
0.00116172
0.00116142
0.00116114
0.00116087
0.00116061
0.00116038
0.00116016
0.00115995
0.00115977
0.00115961
0.00115948
0.00115936
0.00115927
0.00115921
0.00116994
0.00116938
0.00116884
0.00116831
0.0011678
0.0011673
0.00116682
0.00116635
0.00116589
0.00116545
0.00116502
0.0011646
0.0011642
0.0011638
0.00116342
0.00116305
0.0011627
0.00116235
0.00116202
0.00116171
0.0011614
0.00116112
0.00116084
0.00116058
0.00116034
0.00116012
0.00115991
0.00115972
0.00115955
0.00115941
0.00115928
0.00115918
0.00115911
0.00116994
0.00116938
0.00116884
0.00116831
0.0011678
0.0011673
0.00116682
0.00116635
0.00116589
0.00116545
0.00116502
0.0011646
0.00116419
0.0011638
0.00116342
0.00116305
0.00116269
0.00116234
0.00116201
0.00116169
0.00116139
0.00116109
0.00116082
0.00116055
0.00116031
0.00116008
0.00115987
0.00115967
0.0011595
0.00115934
0.00115921
0.0011591
0.00115901
0.00116994
0.00116938
0.00116884
0.00116831
0.0011678
0.0011673
0.00116682
0.00116635
0.00116589
0.00116545
0.00116502
0.0011646
0.00116419
0.0011638
0.00116341
0.00116304
0.00116268
0.00116234
0.001162
0.00116168
0.00116137
0.00116108
0.0011608
0.00116053
0.00116028
0.00116005
0.00115983
0.00115963
0.00115945
0.00115929
0.00115915
0.00115903
0.00115893
0.00116994
0.00116938
0.00116884
0.00116831
0.0011678
0.0011673
0.00116682
0.00116635
0.00116589
0.00116545
0.00116502
0.0011646
0.00116419
0.0011638
0.00116341
0.00116304
0.00116268
0.00116233
0.001162
0.00116167
0.00116136
0.00116107
0.00116078
0.00116051
0.00116026
0.00116002
0.0011598
0.00115959
0.00115941
0.00115924
0.00115909
0.00115896
0.00115885
0.00116994
0.00116938
0.00116884
0.00116831
0.0011678
0.00116731
0.00116683
0.00116636
0.0011659
0.00116546
0.00116503
0.00116461
0.0011642
0.0011638
0.00116342
0.00116304
0.00116268
0.00116233
0.00116199
0.00116167
0.00116136
0.00116105
0.00116077
0.00116049
0.00116023
0.00115999
0.00115976
0.00115954
0.00115935
0.00115917
0.00115901
0.00115886
0.00115874
0.00116994
0.00116938
0.00116884
0.00116832
0.00116781
0.00116731
0.00116683
0.00116637
0.00116591
0.00116547
0.00116504
0.00116462
0.00116421
0.00116381
0.00116342
0.00116304
0.00116268
0.00116232
0.00116197
0.00116164
0.00116131
0.001161
0.00116069
0.0011604
0.00116012
0.00115985
0.00115959
0.00115935
0.00115912
0.0011589
0.0011587
0.00115851
0.00115834
0.00116994
0.00116938
0.00116884
0.00116833
0.00116782
0.00116733
0.00116686
0.00116639
0.00116593
0.00116549
0.00116505
0.00116461
0.00116419
0.00116376
0.00116335
0.00116293
0.00116253
0.00116212
0.00116172
0.00116132
0.00116092
0.00116052
0.00116013
0.00115974
0.00115935
0.00115897
0.00115859
0.00115821
0.00115784
0.00115748
0.00115712
0.00115677
0.00115643
0.00116994
0.00116939
0.00116887
0.00116835
0.00116785
0.00116735
0.00116685
0.00116635
0.00116584
0.00116532
0.00116478
0.00116423
0.00116366
0.00116306
0.00116245
0.00116181
0.00116114
0.00116045
0.00115974
0.001159
0.00115824
0.00115746
0.00115666
0.00115585
0.00115501
0.00115417
0.00115331
0.00115244
0.00115157
0.00115068
0.0011498
0.00114891
0.00114803
0.00116995
0.0011694
0.00116886
0.00116829
0.00116767
0.00116697
0.00116617
0.00116527
0.00116424
0.00116309
0.00116182
0.00116042
0.00115891
0.00115728
0.00115555
0.00115371
0.00115179
0.00114979
0.00114772
0.00114559
0.00114341
0.00114118
0.00113893
0.00113665
0.00113436
0.00113206
0.00112976
0.00112747
0.00112519
0.00112293
0.0011207
0.00111851
0.00111635
0.00116996
0.00116917
0.00116788
0.00116601
0.00116356
0.0011605
0.00115688
0.00115271
0.00114806
0.00114298
0.00113754
0.00113181
0.00112585
0.00111971
0.00111345
0.00110711
0.00110073
0.00109436
0.00108802
0.00108174
0.00107554
0.00106945
0.00106348
0.00105764
0.00105195
0.00104642
0.00104105
0.00103586
0.00103084
0.00102599
0.00102133
0.00101684
0.00101254
0.00116831
0.00115865
0.00114517
0.0011288
0.00111026
0.00109027
0.00106946
0.00104835
0.00102731
0.00100661
0.000986441
0.000966919
0.000948115
0.000930067
0.000912786
0.000896265
0.000880488
0.000865429
0.000851057
0.000837338
0.000824236
0.000811715
0.000799739
0.000788271
0.000777275
0.000766718
0.000756566
0.000746787
0.000737349
0.000728224
0.000719382
0.000710797
0.000702447
0.00107566
0.00093614
0.000835451
0.000756224
0.000690898
0.000636624
0.000591202
0.000552795
0.000519961
0.000491591
0.000466837
0.000445044
0.000425706
0.000408425
0.000392885
0.000378832
0.000366063
0.000354407
0.000343727
0.000333906
0.000324848
0.000316469
0.0003087
0.000301481
0.00029476
0.000288493
0.000282641
0.00027717
0.000272052
0.000267259
0.00026277
0.000258565
0.000254623
0.000142979
0.000146644
0.000150175
0.000153552
0.000156774
0.000159846
0.000162774
0.000165564
0.000168219
0.000170746
0.000173148
0.00017543
0.000177597
0.000179654
0.000181604
0.000183452
0.000185203
0.00018686
0.000188427
0.000189908
0.000191306
0.000192626
0.00019387
0.000195042
0.000196144
0.00019718
0.000198152
0.000199063
0.000199915
0.000200712
0.000201454
0.000202145
0.000202788
9.1485e-05
0.000114496
0.000155128
0.00021702
0.000296043
0.000381474
0.000465141
0.000544469
0.000619224
0.000686991
0.000743404
0.000783366
0.000801268
0.000792515
0.000753897
0.000683979
0.000585186
0.000469464
0.000367087
0.000340409
0.000521265
0.000947396
0.00125674
0.00145422
0.00163286
0.00179882
0.00194377
0.0020636
0.00215787
0.00222796
0.00227683
0.00230916
0.00233092
0.00234781
0.00236352
0.00237864
0.0023909
0.00239639
0.00239108
0.00237179
0.0023367
0.00228542
0.00221891
0.00213935
0.00204997
0.00195468
0.00185763
0.00176276
0.00167327
0.00159137
0.00151823
0.00145425
0.00139927
0.00135287
0.00131433
0.00128273
0.00125701
0.00123613
0.00121921
0.0012055
0.00119441
0.00118549
0.00117833
0.00117261
0.00116807
0.00116449
0.00116167
0.00115947
0.00115777
0.00115647
0.00115549
0.00115475
0.00115421
0.00115382
0.00115355
0.00115337
0.00115326
0.00115319
0.00115317
0.00115317
0.00115319
0.00115322
0.00115326
0.0011533
0.00115334
0.00115338
0.00115343
0.00115346
0.0011535
0.00115353
0.00115356
0.00115358
0.00115361
0.00115363
0.00115364
0.00115366
0.00115367
0.00115368
0.00115368
0.00115367
7.39581e-05
7.60328e-05
7.89598e-05
8.65268e-05
0.000105315
0.000139091
0.000187005
0.000244527
0.000305079
0.000361437
0.00040704
0.000436928
0.000447852
0.00043795
0.000407367
0.000360354
0.000309117
0.000281352
0.000336992
0.000570176
0.000890965
0.00111733
0.00130078
0.00147782
0.00164489
0.00179373
0.00192033
0.00202411
0.00210593
0.00216703
0.0022095
0.00223698
0.00225454
0.00226751
0.00227978
0.00229255
0.00230421
0.00231129
0.00230981
0.00229633
0.00226857
0.00222555
0.00216767
0.00209661
0.00201516
0.00192693
0.00183593
0.00174606
0.00166063
0.00158203
0.00151162
0.0014499
0.00139677
0.00135175
0.00131418
0.00128317
0.0012578
0.0012371
0.00122026
0.00120658
0.00119548
0.00118652
0.00117931
0.00117353
0.00116891
0.00116526
0.00116237
0.0011601
0.00115834
0.00115698
0.00115594
0.00115515
0.00115456
0.00115413
0.00115382
0.0011536
0.00115345
0.00115336
0.00115331
0.00115329
0.00115328
0.0011533
0.00115332
0.00115334
0.00115337
0.0011534
0.00115343
0.00115346
0.00115349
0.00115352
0.00115354
0.00115356
0.00115358
0.00115359
0.0011536
0.00115361
0.00115362
0.00115363
0.00115363
0.00115362
0.000129932
0.000128081
0.000129511
0.000132764
0.000130581
0.000120458
0.000112503
0.000113999
0.000124742
0.000141437
0.0001608
0.000179267
0.000194048
0.000205053
0.000217669
0.000247651
0.000328524
0.000495024
0.00069971
0.000870349
0.00102801
0.00119305
0.00136006
0.00151889
0.00166272
0.00178821
0.00189455
0.00198231
0.00205231
0.00210521
0.00214214
0.00216565
0.00217988
0.00218966
0.00219892
0.00220937
0.00222011
0.0022282
0.00222991
0.00222169
0.00220087
0.00216596
0.00211675
0.00205437
0.00198113
0.00190029
0.00181561
0.00173093
0.00164963
0.00157428
0.00150643
0.00144674
0.00139518
0.00135134
0.00131456
0.00128405
0.00125894
0.00123838
0.00122159
0.0012079
0.00119676
0.00118773
0.00118044
0.00117457
0.00116986
0.00116611
0.00116313
0.00116078
0.00115894
0.0011575
0.0011564
0.00115555
0.0011549
0.00115442
0.00115406
0.0011538
0.00115362
0.00115349
0.00115341
0.00115336
0.00115333
0.00115332
0.00115333
0.00115334
0.00115335
0.00115337
0.00115339
0.00115341
0.00115342
0.00115344
0.00115346
0.00115347
0.00115348
0.00115349
0.0011535
0.00115351
0.00115351
0.00115352
0.00115352
0.00115351
0.000297988
0.000292386
0.000288919
0.000291687
0.000305147
0.000326816
0.000339674
0.000323646
0.000286468
0.000264875
0.000259613
0.000269321
0.000295054
0.000340215
0.000408432
0.000498884
0.000604727
0.000721492
0.000850822
0.000991629
0.00113826
0.00128453
0.00142529
0.0015562
0.00167394
0.00177677
0.00186455
0.00193797
0.00199753
0.0020433
0.00207558
0.00209596
0.00210769
0.00211502
0.00212179
0.0021301
0.00213966
0.00214818
0.00215229
0.0021485
0.0021339
0.00210655
0.00206572
0.00201193
0.00194698
0.0018737
0.00179557
0.0017163
0.00163928
0.00156722
0.00150189
0.0014441
0.00139398
0.00135119
0.00131512
0.00128506
0.0012602
0.00123976
0.00122301
0.00120931
0.00119813
0.00118903
0.00118165
0.00117568
0.00117087
0.00116702
0.00116394
0.0011615
0.00115957
0.00115805
0.00115687
0.00115595
0.00115524
0.0011547
0.00115429
0.00115399
0.00115376
0.0011536
0.00115348
0.0011534
0.00115335
0.00115332
0.0011533
0.00115329
0.00115329
0.00115329
0.0011533
0.00115331
0.00115331
0.00115332
0.00115333
0.00115334
0.00115334
0.00115335
0.00115335
0.00115336
0.00115336
0.00115336
0.00115336
0.00115334
0.000504168
0.000496636
0.000489479
0.000483366
0.000480306
0.000482573
0.000489397
0.000491182
0.00048897
0.000488681
0.000494844
0.000511059
0.00053998
0.000583251
0.000641529
0.000714621
0.000801576
0.000900653
0.00100941
0.00112483
0.00124334
0.0013611
0.00147427
0.00157946
0.00167429
0.00175767
0.00182973
0.00189104
0.00194183
0.00198169
0.00201027
0.00202834
0.00203834
0.00204396
0.00204883
0.00205528
0.00206357
0.00207203
0.00207775
0.00207747
0.00206821
0.0020477
0.00201471
0.00196921
0.00191244
0.00184677
0.00177534
0.00170165
0.00162907
0.00156041
0.00149759
0.00144167
0.00139291
0.00135108
0.00131568
0.00128603
0.00126142
0.0012411
0.0012244
0.0012107
0.00119949
0.00119033
0.00118287
0.00117681
0.0011719
0.00116795
0.00116477
0.00116223
0.00116021
0.0011586
0.00115734
0.00115635
0.00115557
0.00115497
0.00115451
0.00115415
0.00115388
0.00115368
0.00115353
0.00115342
0.00115334
0.00115328
0.00115324
0.00115321
0.00115319
0.00115318
0.00115317
0.00115317
0.00115317
0.00115316
0.00115316
0.00115316
0.00115316
0.00115316
0.00115316
0.00115316
0.00115316
0.00115316
0.00115316
0.00115314
0.000697963
0.000689913
0.000682119
0.000674733
0.000668268
0.00066377
0.000662476
0.000664263
0.000669164
0.000678006
0.000692196
0.000713441
0.000743392
0.000783319
0.000833909
0.00089521
0.000966634
0.00104696
0.00113435
0.00122646
0.00132065
0.00141407
0.00150389
0.00158766
0.00166365
0.00173118
0.00179048
0.001842
0.00188573
0.0019209
0.00194668
0.00196318
0.00197216
0.00197674
0.00198029
0.00198525
0.00199231
0.00200036
0.00200702
0.00200935
0.00200445
0.00198988
0.001964
0.00192628
0.00187742
0.00181927
0.00175457
0.00168659
0.0016186
0.00155344
0.00149321
0.00143915
0.00139173
0.00135084
0.00131607
0.00128684
0.00126247
0.0012423
0.00122567
0.00121199
0.00120076
0.00119156
0.00118404
0.0011779
0.00117291
0.00116886
0.00116558
0.00116295
0.00116084
0.00115915
0.0011578
0.00115673
0.00115589
0.00115523
0.00115471
0.0011543
0.00115399
0.00115374
0.00115355
0.00115341
0.0011533
0.00115321
0.00115315
0.0011531
0.00115306
0.00115304
0.00115301
0.001153
0.00115298
0.00115297
0.00115297
0.00115296
0.00115295
0.00115295
0.00115294
0.00115294
0.00115293
0.00115293
0.00115292
0.0011529
0.000857513
0.000850172
0.000843207
0.00083687
0.000831491
0.000827597
0.000825986
0.000827374
0.000832432
0.000841866
0.000856462
0.000877062
0.000904472
0.000939334
0.000981999
0.00103244
0.00109021
0.00115441
0.00122374
0.00129652
0.00137082
0.00144457
0.00151569
0.00158241
0.0016435
0.00169855
0.00174781
0.00179166
0.00182989
0.0018615
0.00188528
0.00190086
0.0019094
0.00191351
0.00191628
0.00192016
0.00192614
0.00193359
0.00194065
0.00194478
0.00194328
0.00193365
0.00191402
0.00188341
0.00184198
0.00179109
0.00173307
0.00167084
0.00160754
0.00154601
0.00148847
0.00143634
0.00139026
0.00135031
0.00131618
0.00128737
0.00126327
0.00124326
0.00122672
0.00121309
0.00120187
0.00119265
0.00118508
0.00117889
0.00117382
0.0011697
0.00116634
0.00116362
0.00116143
0.00115966
0.00115824
0.0011571
0.00115619
0.00115547
0.00115489
0.00115443
0.00115407
0.00115378
0.00115356
0.00115338
0.00115324
0.00115313
0.00115304
0.00115297
0.00115291
0.00115287
0.00115283
0.0011528
0.00115278
0.00115276
0.00115274
0.00115273
0.00115271
0.0011527
0.00115269
0.00115268
0.00115267
0.00115267
0.00115266
0.00115263
0.00097643
0.000970492
0.000964984
0.000960173
0.000956397
0.000954077
0.000953723
0.000955898
0.000961191
0.000970192
0.000983481
0.00100161
0.00102506
0.00105418
0.00108915
0.00112988
0.00117603
0.00122696
0.00128171
0.00133911
0.00139776
0.00145617
0.00151281
0.00156637
0.001616
0.00166146
0.00170305
0.00174104
0.00177511
0.00180409
0.00182653
0.00184168
0.00185024
0.00185434
0.00185679
0.00185998
0.00186511
0.00187192
0.00187901
0.00188425
0.00188524
0.00187958
0.00186525
0.00184092
0.00180633
0.00176233
0.00171077
0.00165426
0.00159572
0.00153793
0.00148318
0.00143306
0.00138839
0.00134941
0.00131593
0.00128756
0.00126375
0.00124392
0.0012275
0.00121393
0.00120275
0.00119353
0.00118595
0.00117972
0.00117461
0.00117043
0.00116701
0.00116422
0.00116195
0.00116011
0.00115863
0.00115742
0.00115645
0.00115567
0.00115504
0.00115453
0.00115413
0.0011538
0.00115354
0.00115333
0.00115316
0.00115302
0.00115291
0.00115282
0.00115274
0.00115268
0.00115263
0.00115259
0.00115255
0.00115252
0.0011525
0.00115248
0.00115246
0.00115244
0.00115242
0.00115241
0.0011524
0.00115239
0.00115237
0.00115234
0.00105728
0.00105306
0.00104924
0.0010461
0.00104393
0.00104308
0.00104391
0.00104685
0.00105232
0.00106075
0.00107258
0.00108819
0.00110789
0.00113192
0.00116035
0.00119313
0.00122999
0.00127049
0.00131398
0.0013596
0.00140635
0.00145314
0.00149885
0.00154251
0.00158352
0.00162178
0.00165759
0.00169118
0.00172213
0.00174922
0.00177082
0.0017859
0.0017948
0.00179923
0.00180172
0.00180457
0.00180909
0.00181532
0.00182222
0.00182807
0.00183079
0.00182817
0.00181816
0.00179926
0.00177079
0.00173314
0.00168775
0.00163683
0.00158304
0.00152907
0.00147723
0.00142921
0.00138602
0.00134806
0.00131529
0.00128738
0.00126388
0.00124426
0.00122796
0.00121448
0.00120335
0.00119417
0.0011866
0.00118036
0.00117522
0.001171
0.00116754
0.0011647
0.00116238
0.00116049
0.00115894
0.00115768
0.00115666
0.00115583
0.00115515
0.0011546
0.00115416
0.00115379
0.0011535
0.00115325
0.00115306
0.00115289
0.00115276
0.00115265
0.00115256
0.00115248
0.00115242
0.00115236
0.00115232
0.00115228
0.00115224
0.00115221
0.00115219
0.00115216
0.00115214
0.00115212
0.00115211
0.0011521
0.00115208
0.00115204
0.00110742
0.00110481
0.00110255
0.00110088
0.00110004
0.00110033
0.00110204
0.00110549
0.00111098
0.00111884
0.00112936
0.00114281
0.00115942
0.00117934
0.00120264
0.00122928
0.00125908
0.00129175
0.00132681
0.00136367
0.0014016
0.00143979
0.0014774
0.00151372
0.00154832
0.00158123
0.00161273
0.00164302
0.00167167
0.00169738
0.00171848
0.00173373
0.00174314
0.00174813
0.00175091
0.00175369
0.00175783
0.00176358
0.00177019
0.0017763
0.00178015
0.00177977
0.00177321
0.00175883
0.00173569
0.00170381
0.00166417
0.00161862
0.00156952
0.0015194
0.00147055
0.00142474
0.00138313
0.00134626
0.00131423
0.00128683
0.00126366
0.00124426
0.00122812
0.00121474
0.00120367
0.00119454
0.00118699
0.00118076
0.00117562
0.00117139
0.0011679
0.00116504
0.00116268
0.00116074
0.00115916
0.00115786
0.00115679
0.00115592
0.00115521
0.00115462
0.00115414
0.00115374
0.00115342
0.00115315
0.00115293
0.00115274
0.00115259
0.00115246
0.00115235
0.00115226
0.00115219
0.00115212
0.00115206
0.00115202
0.00115197
0.00115194
0.00115191
0.00115188
0.00115185
0.00115183
0.00115181
0.0011518
0.00115178
0.00115174
0.00113571
0.00113437
0.00113333
0.00113279
0.00113294
0.00113403
0.00113629
0.00113996
0.0011453
0.00115253
0.00116188
0.00117355
0.0011877
0.00120445
0.00122386
0.0012459
0.00127048
0.00129736
0.00132624
0.00135668
0.00138814
0.00142
0.00145165
0.00148254
0.0015124
0.0015413
0.00156956
0.00159736
0.00162425
0.00164895
0.00166974
0.00168526
0.00169528
0.00170092
0.00170416
0.00170705
0.001711
0.00171639
0.00172271
0.00172888
0.00173341
0.00173462
0.0017307
0.00172001
0.00170143
0.00167465
0.00164028
0.00159979
0.00155524
0.00150896
0.00146315
0.00141965
0.0013797
0.001344
0.00131277
0.00128591
0.00126311
0.00124395
0.00122797
0.0012147
0.00120372
0.00119464
0.00118713
0.00118093
0.00117581
0.00117158
0.00116808
0.0011652
0.00116283
0.00116087
0.00115926
0.00115793
0.00115683
0.00115593
0.00115519
0.00115457
0.00115407
0.00115365
0.0011533
0.00115301
0.00115277
0.00115256
0.00115239
0.00115225
0.00115213
0.00115203
0.00115194
0.00115186
0.0011518
0.00115174
0.0011517
0.00115165
0.00115162
0.00115158
0.00115156
0.00115153
0.00115151
0.00115149
0.00115147
0.00115143
0.00115016
0.00114968
0.00114947
0.00114967
0.00115045
0.00115201
0.00115452
0.0011582
0.00116324
0.00116982
0.00117812
0.00118831
0.00120049
0.00121479
0.00123124
0.00124984
0.00127052
0.00129313
0.00131745
0.00134314
0.00136981
0.00139698
0.00142418
0.001451
0.00147728
0.00150313
0.0015289
0.00155474
0.00158023
0.00160413
0.00162471
0.00164052
0.00165116
0.00165747
0.00166123
0.00166435
0.00166825
0.00167339
0.00167945
0.00168556
0.00169049
0.00169279
0.00169084
0.00168309
0.00166831
0.00164596
0.00161634
0.00158055
0.00154034
0.00149782
0.00145508
0.00141395
0.00137575
0.0013413
0.00131093
0.00128466
0.00126225
0.00124336
0.00122755
0.0012144
0.0012035
0.00119449
0.00118703
0.00118087
0.00117577
0.00117156
0.00116807
0.0011652
0.00116282
0.00116085
0.00115923
0.00115788
0.00115677
0.00115585
0.00115509
0.00115445
0.00115393
0.00115349
0.00115312
0.00115282
0.00115256
0.00115235
0.00115216
0.00115201
0.00115188
0.00115177
0.00115167
0.00115159
0.00115152
0.00115145
0.0011514
0.00115135
0.00115131
0.00115128
0.00115125
0.00115122
0.00115119
0.00115117
0.00115115
0.00115111
0.00115682
0.00115684
0.0011571
0.00115771
0.00115882
0.00116057
0.00116312
0.00116663
0.00117127
0.0011772
0.00118455
0.00119346
0.00120404
0.00121638
0.00123051
0.00124646
0.00126416
0.00128353
0.00130438
0.00132648
0.00134951
0.0013731
0.00139688
0.00142056
0.00144404
0.00146749
0.00149125
0.00151549
0.00153981
0.00156301
0.00158339
0.00159946
0.00161065
0.00161761
0.00162189
0.00162531
0.00162922
0.0016342
0.00164005
0.00164604
0.00165118
0.00165421
0.00165373
0.00164827
0.00163661
0.00161805
0.00159261
0.00156111
0.00152499
0.00148611
0.00144642
0.0014077
0.00137132
0.00133818
0.00130875
0.00128311
0.00126114
0.00124252
0.0012269
0.00121389
0.00120308
0.00119413
0.00118672
0.0011806
0.00117554
0.00117135
0.00116789
0.00116502
0.00116265
0.00116068
0.00115906
0.00115771
0.00115659
0.00115566
0.00115489
0.00115425
0.00115371
0.00115326
0.00115289
0.00115257
0.00115231
0.00115208
0.00115189
0.00115173
0.00115159
0.00115147
0.00115137
0.00115128
0.00115121
0.00115114
0.00115109
0.00115104
0.00115099
0.00115095
0.00115092
0.00115089
0.00115086
0.00115084
0.00115082
0.00115077
0.00115954
0.0011598
0.00116028
0.00116108
0.0011623
0.00116406
0.00116649
0.00116974
0.00117393
0.00117921
0.00118569
0.0011935
0.00120272
0.00121343
0.00122569
0.0012395
0.00125485