/*--------------------------------*- C++ -*----------------------------------*\
| =========                 |                                                 |
| \\      /  F ield         | OpenFOAM: The Open Source CFD Toolbox           |
|  \\    /   O peration     | Version:  2.1.1                                 |
|   \\  /    A nd           | Web:      www.OpenFOAM.org                      |
|    \\/     M anipulation  |                                                 |
\*---------------------------------------------------------------------------*/
FoamFile
{
    version     2.0;
    format      ascii;
    class       volScalarField;
    location    "0.025";
    object      p;
}
// * * * * * * * * * * * * * * * * * * * * * * * * * * * * * * * * * * * * * //

dimensions      [0 2 -2 0 0 0 0];

internalField   nonuniform List<scalar> 
6820
(
-10.2285
-12.076
-12.6542
-12.7872
-12.9006
-12.9877
-13.0515
-13.1089
-13.1638
-13.2167
-13.2685
-13.3199
-13.3714
-13.4229
-13.4747
-13.5271
-13.5801
-13.6338
-13.6885
-13.7441
-13.8008
-13.8586
-13.9174
-13.9771
-14.0376
-14.0984
-14.1589
-14.2184
-14.2753
-14.3278
-14.3713
-14.3967
-14.3966
-14.1806
-13.647
-13.2282
-13.043
-13.0244
-13.0434
-13.073
-13.1117
-13.1562
-13.2034
-13.2523
-13.3024
-13.3534
-13.4051
-13.4574
-13.5103
-13.564
-13.6184
-13.6737
-13.73
-13.7873
-13.8457
-13.905
-13.9654
-14.0265
-14.0881
-14.1497
-14.2111
-14.2708
-14.3305
-14.3848
-14.4627
-14.5267
-12.5378
-12.2352
-12.5249
-12.7741
-12.8864
-12.9697
-13.0379
-13.0979
-13.1542
-13.208
-13.2604
-13.312
-13.3634
-13.4146
-13.4661
-13.5181
-13.5707
-13.6241
-13.6783
-13.7337
-13.7901
-13.8477
-13.9065
-13.9664
-14.0273
-14.0889
-14.151
-14.2132
-14.2746
-14.3359
-14.3935
-14.4531
-14.4853
-13.0442
-13.0799
-13.0814
-13.0267
-13.0247
-13.0528
-13.0883
-13.1278
-13.1708
-13.2158
-13.2621
-13.3096
-13.3579
-13.4072
-13.4574
-13.5084
-13.5604
-13.6134
-13.6675
-13.7228
-13.7793
-13.8371
-13.8961
-13.9564
-14.0178
-14.0803
-14.1436
-14.2076
-14.2718
-14.3371
-14.4006
-14.4715
-14.532
-12.8879
-12.7882
-12.8354
-12.9071
-12.9665
-13.0208
-13.0708
-13.1188
-13.1667
-13.2146
-13.2627
-13.311
-13.3598
-13.4092
-13.4592
-13.5099
-13.5614
-13.614
-13.6676
-13.7224
-13.7785
-13.8359
-13.8947
-13.955
-14.0166
-14.0795
-14.1438
-14.2093
-14.2759
-14.3443
-14.413
-14.4857
-14.5527
-12.9424
-12.9273
-12.9554
-12.9831
-13.0114
-13.0483
-13.0888
-13.131
-13.1746
-13.2195
-13.2651
-13.3115
-13.3587
-13.4067
-13.4556
-13.5054
-13.5561
-13.608
-13.6611
-13.7155
-13.7712
-13.8284
-13.8871
-13.9474
-14.0094
-14.073
-14.1384
-14.2057
-14.2749
-14.3467
-14.4207
-14.4998
-14.5805
-12.9385
-12.9186
-12.9375
-12.9712
-13.0075
-13.0479
-13.0897
-13.1321
-13.1754
-13.2197
-13.2646
-13.3104
-13.3569
-13.4042
-13.4524
-13.5015
-13.5517
-13.603
-13.6556
-13.7095
-13.7648
-13.8217
-13.8802
-13.9405
-14.0027
-14.0669
-14.1332
-14.202
-14.2735
-14.3485
-14.4272
-14.5117
-14.6014
-12.9514
-12.9448
-12.9632
-12.9923
-13.0235
-13.059
-13.0973
-13.1371
-13.1784
-13.221
-13.2645
-13.3089
-13.3543
-13.4005
-13.4478
-13.496
-13.5453
-13.5959
-13.6477
-13.701
-13.7558
-13.8122
-13.8705
-13.9306
-13.9928
-14.0574
-14.1245
-14.1946
-14.268
-14.3457
-14.4283
-14.5175
-14.6147
-12.9623
-12.9594
-12.9745
-13.0006
-13.0304
-13.0644
-13.1013
-13.1398
-13.1798
-13.221
-13.2633
-13.3066
-13.3508
-13.396
-13.4423
-13.4896
-13.538
-13.5877
-13.6388
-13.6913
-13.7454
-13.8013
-13.8591
-13.9189
-13.981
-14.0457
-14.1133
-14.1842
-14.2591
-14.3388
-14.4242
-14.5169
-14.6188
-12.9736
-12.974
-12.9882
-13.012
-13.0398
-13.0715
-13.1062
-13.1429
-13.1811
-13.2208
-13.2617
-13.3037
-13.3467
-13.3907
-13.4358
-13.4821
-13.5295
-13.5782
-13.6283
-13.68
-13.7333
-13.7884
-13.8455
-13.9048
-13.9665
-14.031
-14.0987
-14.17
-14.2457
-14.3265
-14.4135
-14.5082
-14.6124
-12.9844
-12.9864
-12.9996
-13.0213
-13.0473
-13.0771
-13.11
-13.145
-13.1817
-13.2199
-13.2594
-13.3
-13.3417
-13.3846
-13.4285
-13.4736
-13.5199
-13.5675
-13.6165
-13.6671
-13.7194
-13.7736
-13.8298
-13.8883
-13.9494
-14.0134
-14.0807
-14.1519
-14.2275
-14.3085
-14.3959
-14.4909
-14.5953
-12.9947
-12.9976
-13.0101
-13.03
-13.0543
-13.0823
-13.1134
-13.1467
-13.1818
-13.2185
-13.2565
-13.2957
-13.3361
-13.3776
-13.4202
-13.464
-13.5091
-13.5555
-13.6033
-13.6527
-13.7038
-13.7568
-13.8119
-13.8694
-13.9295
-13.9925
-14.0589
-14.1293
-14.2042
-14.2845
-14.371
-14.4648
-14.5673
-13.0041
-13.0074
-13.0192
-13.0377
-13.0604
-13.0867
-13.1161
-13.1477
-13.1812
-13.2164
-13.2529
-13.2906
-13.3295
-13.3696
-13.4109
-13.4533
-13.497
-13.5421
-13.5885
-13.6366
-13.6863
-13.738
-13.7917
-13.8478
-13.9065
-13.9682
-14.0333
-14.1022
-14.1756
-14.2541
-14.3385
-14.4297
-14.5288
-13.0126
-13.016
-13.0272
-13.0444
-13.0656
-13.0903
-13.118
-13.148
-13.1799
-13.2135
-13.2485
-13.2847
-13.3221
-13.3608
-13.4005
-13.4415
-13.4837
-13.5272
-13.5722
-13.6187
-13.6669
-13.7169
-13.769
-13.8234
-13.8804
-13.9403
-14.0034
-14.0703
-14.1413
-14.2172
-14.2985
-14.3858
-14.4801
-13.0201
-13.0235
-13.034
-13.05
-13.0698
-13.093
-13.1191
-13.1476
-13.1779
-13.2098
-13.2432
-13.2779
-13.3138
-13.3508
-13.389
-13.4284
-13.469
-13.5109
-13.5542
-13.5989
-13.6453
-13.6935
-13.7437
-13.7961
-13.851
-13.9086
-13.9692
-14.0334
-14.1014
-14.1738
-14.251
-14.3335
-14.4218
-13.0265
-13.0298
-13.0397
-13.0546
-13.0731
-13.0948
-13.1194
-13.1462
-13.175
-13.2053
-13.2371
-13.2702
-13.3044
-13.3398
-13.3764
-13.414
-13.4529
-13.493
-13.5344
-13.5772
-13.6216
-13.6677
-13.7157
-13.7657
-13.8181
-13.873
-13.9307
-13.9916
-14.0559
-14.124
-14.1963
-14.273
-14.3546
-13.0317
-13.0349
-13.0442
-13.058
-13.0753
-13.0957
-13.1188
-13.144
-13.1711
-13.1999
-13.23
-13.2614
-13.294
-13.3277
-13.3624
-13.3983
-13.4353
-13.4734
-13.5128
-13.5535
-13.5957
-13.6394
-13.6849
-13.7323
-13.7817
-13.8335
-13.8878
-13.9448
-14.0048
-14.0681
-14.1348
-14.2051
-14.2792
-13.0358
-13.0388
-13.0475
-13.0604
-13.0765
-13.0955
-13.1171
-13.1409
-13.1664
-13.1935
-13.222
-13.2517
-13.2825
-13.3143
-13.3472
-13.3812
-13.4161
-13.4522
-13.4894
-13.5278
-13.5675
-13.6086
-13.6513
-13.6957
-13.7419
-13.7901
-13.8405
-13.8932
-13.9484
-14.0062
-14.0668
-14.1302
-14.1964
-13.0387
-13.0415
-13.0496
-13.0616
-13.0766
-13.0943
-13.1145
-13.1367
-13.1607
-13.1861
-13.2129
-13.2408
-13.2698
-13.2998
-13.3307
-13.3626
-13.3954
-13.4292
-13.464
-13.4999
-13.537
-13.5753
-13.6149
-13.656
-13.6986
-13.7429
-13.789
-13.837
-13.887
-13.939
-13.993
-14.0491
-14.1072
-13.0404
-13.043
-13.0505
-13.0616
-13.0755
-13.092
-13.1108
-13.1316
-13.1539
-13.1777
-13.2027
-13.2289
-13.256
-13.284
-13.3129
-13.3426
-13.3732
-13.4046
-13.4368
-13.47
-13.5042
-13.5394
-13.5758
-13.6133
-13.652
-13.6921
-13.7336
-13.7765
-13.8209
-13.8667
-13.914
-13.9625
-14.0123
-13.0409
-13.0433
-13.0503
-13.0605
-13.0734
-13.0887
-13.1061
-13.1253
-13.1461
-13.1682
-13.1915
-13.2158
-13.2409
-13.2669
-13.2937
-13.3211
-13.3493
-13.3782
-13.4078
-13.4381
-13.4692
-13.5012
-13.534
-13.5676
-13.6023
-13.6379
-13.6744
-13.712
-13.7506
-13.79
-13.8303
-13.8713
-13.9127
-13.0401
-13.0424
-13.0488
-13.0582
-13.0701
-13.0842
-13.1003
-13.118
-13.1372
-13.1577
-13.1792
-13.2015
-13.2247
-13.2486
-13.2731
-13.2983
-13.3239
-13.3502
-13.3769
-13.4042
-13.4321
-13.4606
-13.4896
-13.5193
-13.5496
-13.5805
-13.612
-13.644
-13.6766
-13.7095
-13.7427
-13.7761
-13.8093
-13.0382
-13.0402
-13.0461
-13.0548
-13.0656
-13.0786
-13.0933
-13.1097
-13.1273
-13.1461
-13.1657
-13.1862
-13.2074
-13.2291
-13.2513
-13.274
-13.2971
-13.3205
-13.3444
-13.3685
-13.393
-13.4179
-13.443
-13.4685
-13.4943
-13.5203
-13.5466
-13.573
-13.5994
-13.6258
-13.652
-13.6778
-13.703
-13.0349
-13.0368
-13.0422
-13.0501
-13.06
-13.0718
-13.0853
-13.1002
-13.1163
-13.1333
-13.1512
-13.1697
-13.1888
-13.2083
-13.2282
-13.2484
-13.2688
-13.2894
-13.3102
-13.3311
-13.3521
-13.3732
-13.3943
-13.4155
-13.4367
-13.4577
-13.4786
-13.4993
-13.5197
-13.5396
-13.5588
-13.5772
-13.5946
-13.0305
-13.0322
-13.0371
-13.0442
-13.0532
-13.0639
-13.0762
-13.0897
-13.1042
-13.1196
-13.1357
-13.1523
-13.1693
-13.1866
-13.2041
-13.2217
-13.2393
-13.257
-13.2746
-13.2922
-13.3096
-13.3269
-13.3439
-13.3607
-13.3772
-13.3932
-13.4088
-13.4238
-13.4381
-13.4515
-13.464
-13.4753
-13.4852
-13.0249
-13.0264
-13.0307
-13.0371
-13.0452
-13.0549
-13.0658
-13.0779
-13.091
-13.1047
-13.1189
-13.1336
-13.1485
-13.1635
-13.1786
-13.1936
-13.2085
-13.2232
-13.2377
-13.2518
-13.2656
-13.279
-13.2919
-13.3043
-13.316
-13.3271
-13.3374
-13.3467
-13.3551
-13.3623
-13.3682
-13.3726
-13.3754
-13.018
-13.0194
-13.0233
-13.029
-13.0363
-13.0449
-13.0548
-13.0656
-13.0771
-13.0893
-13.1018
-13.1145
-13.1273
-13.14
-13.1527
-13.1651
-13.1772
-13.1889
-13.2001
-13.2108
-13.2209
-13.2304
-13.2391
-13.2471
-13.2542
-13.2603
-13.2653
-13.2691
-13.2717
-13.2728
-13.2724
-13.2703
-13.2663
-13.01
-13.0112
-13.0145
-13.0194
-13.0257
-13.0332
-13.0418
-13.0513
-13.0614
-13.0719
-13.0826
-13.0935
-13.1042
-13.1148
-13.125
-13.1349
-13.1442
-13.1529
-13.161
-13.1684
-13.1749
-13.1805
-13.1852
-13.1888
-13.1913
-13.1926
-13.1925
-13.1911
-13.1881
-13.1834
-13.177
-13.1687
-13.1584
-13.0009
-13.002
-13.005
-13.0095
-13.0153
-13.0221
-13.0298
-13.0381
-13.0469
-13.0559
-13.0649
-13.0739
-13.0826
-13.0908
-13.0986
-13.1058
-13.1123
-13.118
-13.1228
-13.1267
-13.1296
-13.1314
-13.1319
-13.1312
-13.1292
-13.1258
-13.1208
-13.1141
-13.1058
-13.0956
-13.0835
-13.0694
-13.053
-12.9906
-12.9911
-12.993
-12.9961
-13.0005
-13.0061
-13.0126
-13.0197
-13.0272
-13.0348
-13.0424
-13.0497
-13.0566
-13.063
-13.0686
-13.0735
-13.0775
-13.0804
-13.0823
-13.083
-13.0825
-13.0806
-13.0774
-13.0727
-13.0664
-13.0585
-13.0489
-13.0375
-13.0241
-13.0088
-12.9915
-12.9719
-12.9502
-12.98
-12.9815
-12.9841
-12.9878
-12.9923
-12.9976
-13.0033
-13.0094
-13.0155
-13.0215
-13.0272
-13.0325
-13.0372
-13.0411
-13.0442
-13.0463
-13.0473
-13.0472
-13.0459
-13.0432
-13.0391
-13.0335
-13.0263
-13.0175
-13.007
-12.9946
-12.9805
-12.9643
-12.9462
-12.926
-12.9036
-12.879
-12.8521
-12.9661
-12.9641
-12.9627
-12.9635
-12.9662
-12.9705
-12.9757
-12.9813
-12.9872
-12.9928
-12.998
-13.0025
-13.0062
-13.0089
-13.0106
-13.011
-13.0101
-13.0078
-13.004
-12.9986
-12.9916
-12.983
-12.9725
-12.9602
-12.946
-12.9298
-12.9116
-12.8914
-12.869
-12.8444
-12.8176
-12.7885
-12.7571
-12.96
-12.9651
-12.9684
-12.971
-12.9737
-12.9767
-12.98
-12.9834
-12.9867
-12.9896
-12.9919
-12.9935
-12.9943
-12.994
-12.9925
-12.9897
-12.9856
-12.98
-12.9728
-12.964
-12.9534
-12.9411
-12.9268
-12.9107
-12.8925
-12.8723
-12.85
-12.8255
-12.7989
-12.77
-12.7389
-12.7055
-12.6697
-12.9278
-12.9161
-12.9085
-12.9086
-12.9129
-12.9188
-12.9255
-12.9323
-12.9385
-12.944
-12.9484
-12.9516
-12.9534
-12.9536
-12.9523
-12.9492
-12.9444
-12.9377
-12.9291
-12.9186
-12.906
-12.8915
-12.8748
-12.8559
-12.8349
-12.8117
-12.7862
-12.7585
-12.7284
-12.6961
-12.6615
-12.6245
-12.5853
-12.9665
-12.9827
-12.9819
-12.9764
-12.9716
-12.9689
-12.9675
-12.9667
-12.9659
-12.9649
-12.9634
-12.961
-12.9577
-12.9532
-12.9474
-12.94
-12.9311
-12.9205
-12.9081
-12.8937
-12.8775
-12.8591
-12.8387
-12.8162
-12.7915
-12.7646
-12.7354
-12.7039
-12.6702
-12.6342
-12.5959
-12.5553
-12.5124
-12.8441
-12.7958
-12.7865
-12.8057
-12.8241
-12.8404
-12.8552
-12.8682
-12.8791
-12.8877
-12.8941
-12.8981
-12.8998
-12.8992
-12.8963
-12.8911
-12.8836
-12.8738
-12.8617
-12.8472
-12.8303
-12.811
-12.7894
-12.7653
-12.7389
-12.71
-12.6787
-12.645
-12.6089
-12.5705
-12.5297
-12.4867
-12.4414
-13.0814
-13.1136
-13.0768
-13.0289
-12.9969
-12.9823
-12.9721
-12.9636
-12.9567
-12.9505
-12.9443
-12.9377
-12.9302
-12.9217
-12.9118
-12.9003
-12.8872
-12.8723
-12.8555
-12.8367
-12.8157
-12.7926
-12.7673
-12.7398
-12.7099
-12.6777
-12.6432
-12.6063
-12.5672
-12.5256
-12.4818
-12.4358
-12.3875
-12.5884
-12.4685
-12.5292
-12.6287
-12.6939
-12.7343
-12.7678
-12.7951
-12.816
-12.8316
-12.8427
-12.8498
-12.8533
-12.8535
-12.8505
-12.8445
-12.8356
-12.8239
-12.8094
-12.7922
-12.7723
-12.7497
-12.7245
-12.6967
-12.6663
-12.6333
-12.5978
-12.5598
-12.5194
-12.4766
-12.4316
-12.3843
-12.3348
-13.7982
-13.4577
-13.1917
-13.067
-13.0143
-12.9823
-12.9584
-12.942
-12.9304
-12.9209
-12.9124
-12.904
-12.8951
-12.8851
-12.8738
-12.861
-12.8463
-12.8297
-12.811
-12.7901
-12.767
-12.7415
-12.7137
-12.6834
-12.6506
-12.6154
-12.5777
-12.5376
-12.495
-12.45
-12.4026
-12.3529
-12.3008
-11.2924
-11.9977
-12.3974
-12.5459
-12.6422
-12.7162
-12.7659
-12.7994
-12.8229
-12.8385
-12.848
-12.8526
-12.853
-12.8497
-12.8432
-12.8335
-12.8208
-12.8053
-12.787
-12.766
-12.7422
-12.7157
-12.6865
-12.6546
-12.6202
-12.5831
-12.5435
-12.5015
-12.457
-12.4102
-12.3611
-12.3099
-12.2565
-14.2863
-13.5783
-13.4826
-14.1303
-15.281
-16.6949
-18.2264
-19.7671
-21.2614
-22.6746
-23.9747
-25.1294
-26.104
-26.8594
-27.3543
-27.544
-27.3819
-26.8252
-25.8435
-24.4374
-22.6533
-20.5454
-18.2209
-15.8211
-13.4644
-11.2429
-9.2349
-7.4789
-5.97413
-4.69893
-3.62565
-2.72675
-1.97717
-1.35503
-0.841518
-0.420394
-0.0776779
0.198633
0.418809
0.591624
0.724574
0.824068
0.895591
0.943841
0.972855
0.986114
0.986631
0.977021
0.959555
0.936195
0.908612
0.878187
0.846019
0.812947
0.779604
0.746467
0.713897
0.682164
0.651462
0.621919
0.593612
0.566579
0.540822
0.51632
0.493036
0.470918
0.449904
0.429928
0.410918
0.392803
0.37551
0.358967
0.343106
0.327859
0.313163
0.298958
0.285187
0.271799
0.258743
0.245975
0.233453
0.221138
0.208994
0.19699
0.185096
0.173284
0.161532
0.149815
0.138115
0.126412
0.114689
0.102933
0.0911223
0.0792591
0.0672981
0.0552948
0.0430958
0.0309821
0.0183302
0.00640267
-14.9013
-14.5038
-14.2161
-14.6121
-15.4698
-16.6135
-17.9445
-19.3609
-20.7846
-22.1541
-23.4103
-24.5107
-25.4165
-26.0908
-26.4962
-26.5927
-26.3407
-25.7148
-24.7182
-23.365
-21.6767
-19.7164
-17.582
-15.3675
-13.17
-11.0875
-9.19157
-7.51712
-6.06742
-4.82738
-3.77493
-2.88673
-2.14079
-1.51746
-0.999493
-0.571788
-0.221191
0.0637263
0.292839
0.474655
0.616496
0.724655
0.804534
0.860771
0.897358
0.917738
0.924901
0.921447
0.909643
0.891452
0.868561
0.842369
0.814007
0.784355
0.754084
0.72371
0.693626
0.664127
0.635429
0.607683
0.580984
0.555387
0.530912
0.507553
0.485286
0.464072
0.443864
0.424603
0.406227
0.388676
0.371881
0.355781
0.340311
0.325411
0.31102
0.297085
0.283553
0.270374
0.257504
0.244898
0.232518
0.220328
0.208293
0.196385
0.184575
0.172836
0.161147
0.149487
0.137834
0.126174
0.114488
0.102764
0.0909821
0.079144
0.0672059
0.0552205
0.0430432
0.0309366
0.0183214
0.00636016
-14.5123
-14.2906
-14.2839
-14.737
-15.5665
-16.6339
-17.8497
-19.1297
-20.4012
-21.6119
-22.7282
-23.7091
-24.5124
-25.0962
-25.4217
-25.4559
-25.1761
-24.5674
-23.6217
-22.3442
-20.7684
-18.9601
-16.9845
-14.9257
-12.8796
-10.9316
-9.14348
-7.54857
-6.15401
-4.95016
-3.91988
-3.04375
-2.3027
-1.67921
-1.1576
-0.723929
-0.365895
-0.0726816
0.165157
0.355835
0.506477
0.623245
0.711454
0.775677
0.819859
0.847408
0.861286
0.864076
0.858035
0.845125
0.827039
0.805196
0.780754
0.754631
0.727536
0.700022
0.672512
0.645327
0.61871
0.592829
0.567802
0.543698
0.520558
0.49839
0.477184
0.456915
0.437547
0.419033
0.401321
0.384359
0.368087
0.352449
0.337388
0.32285
0.308779
0.295127
0.281843
0.268884
0.256207
0.243771
0.23154
0.219481
0.207561
0.195752
0.18403
0.172368
0.160746
0.149143
0.137542
0.125926
0.114278
0.102588
0.090836
0.0790234
0.0671094
0.0551426
0.0429891
0.0308893
0.0183139
0.00631612
-14.6594
-14.6587
-14.7303
-15.1199
-15.81
-16.7064
-17.7402
-18.8469
-19.9667
-21.0515
-22.0523
-22.9258
-23.6322
-24.135
-24.4015
-24.4028
-24.1148
-23.5171
-22.6029
-21.3947
-19.9289
-18.2472
-16.4117
-14.5016
-12.5989
-10.7769
-9.09108
-7.57336
-6.23363
-5.06675
-4.05989
-3.19716
-2.46224
-1.83968
-1.31532
-0.876388
-0.511443
-0.210315
0.0359818
0.235338
0.394659
0.519957
0.61645
0.688643
0.74043
0.775181
0.795831
0.804939
0.804751
0.797223
0.78405
0.766666
0.746255
0.723767
0.69995
0.67539
0.650541
0.625753
0.60129
0.577344
0.554051
0.531501
0.509748
0.48882
0.46872
0.449437
0.430945
0.413211
0.396192
0.379845
0.364118
0.348964
0.334331
0.320172
0.306435
0.293078
0.280056
0.267326
0.25485
0.242592
0.230517
0.218594
0.206794
0.195091
0.18346
0.171878
0.160326
0.148784
0.137236
0.125666
0.114059
0.102404
0.0906833
0.0788974
0.0670087
0.0550614
0.0429328
0.0308401
0.0183072
0.00627097
-14.64
-14.6891
-14.8257
-15.2074
-15.8378
-16.6472
-17.576
-18.5707
-19.5755
-20.542
-21.4273
-22.1946
-22.8085
-23.2349
-23.4419
-23.4012
-23.0925
-22.5061
-21.6408
-20.5084
-19.1377
-17.5726
-15.8704
-14.0987
-12.3284
-10.6239
-9.03487
-7.59166
-6.30614
-5.17675
-4.19437
-3.3463
-2.61875
-1.99823
-1.47207
-1.02865
-0.657394
-0.348803
-0.0943757
0.113428
0.281266
0.414988
0.519697
0.599823
0.659205
0.701174
0.728631
0.744113
0.749849
0.747787
0.739622
0.726797
0.710518
0.691766
0.671324
0.649809
0.627708
0.605396
0.583162
0.561219
0.539723
0.518784
0.498473
0.478834
0.459885
0.441628
0.42405
0.407129
0.390833
0.375128
0.359971
0.345322
0.331136
0.317372
0.303985
0.290937
0.278187
0.265697
0.253432
0.241359
0.229448
0.217668
0.205993
0.194399
0.182864
0.171366
0.159887
0.148409
0.136916
0.125395
0.11383
0.102212
0.0905237
0.0787658
0.0669037
0.0549766
0.0428744
0.0307891
0.0183012
0.00622514
-14.6908
-14.8155
-15.0101
-15.3802
-15.9415
-16.6495
-17.4564
-18.3229
-19.2019
-20.0488
-20.8245
-21.4933
-22.0208
-22.3748
-22.527
-22.4533
-22.1362
-21.5656
-20.7404
-19.674
-18.3942
-16.9396
-15.3605
-13.7159
-12.0679
-10.4728
-8.97514
-7.60363
-6.37144
-5.27986
-4.32288
-3.49062
-2.77164
-2.15427
-1.6273
-1.18022
-0.803325
-0.487789
-0.225619
-0.00964998
0.166508
0.308514
0.421346
0.509347
0.576296
0.625479
0.659762
0.681659
0.693376
0.696851
0.693775
0.6856
0.673549
0.658629
0.641654
0.623274
0.604004
0.584247
0.564315
0.544442
0.524808
0.505538
0.486723
0.468422
0.450669
0.433479
0.416853
0.400779
0.385237
0.370201
0.355638
0.341516
0.327797
0.314446
0.301425
0.288699
0.276233
0.263994
0.25195
0.240071
0.22833
0.216699
0.205155
0.193676
0.182241
0.170831
0.159428
0.148016
0.136582
0.125111
0.113591
0.102011
0.090357
0.0786284
0.066794
0.0548882
0.0428135
0.0307361
0.0182957
0.00617899
-14.719
-14.8692
-15.0852
-15.4414
-15.9455
-16.5707
-17.2863
-18.0502
-18.8242
-19.5684
-20.2466
-20.8254
-21.2734
-21.5618
-21.6651
-21.5617
-21.236
-20.6802
-19.8952
-18.8931
-17.6983
-16.3456
-14.8795
-13.352
-11.8168
-10.3235
-8.91207
-7.60941
-6.4295
-5.37585
-4.44504
-3.62966
-2.92039
-2.30728
-1.7805
-1.33062
-0.948813
-0.626907
-0.357439
-0.133636
0.050598
0.200716
0.321551
0.417347
0.491815
0.548191
0.589304
0.617639
0.63538
0.644451
0.646537
0.643093
0.635357
0.624359
0.610941
0.595782
0.579425
0.5623
0.544741
0.527007
0.509295
0.491753
0.474488
0.457574
0.441062
0.424981
0.409345
0.394152
0.379395
0.365056
0.351113
0.337541
0.324309
0.311389
0.298749
0.28636
0.274192
0.262214
0.250401
0.238725
0.227161
0.215687
0.20428
0.19292
0.18159
0.170271
0.158948
0.147606
0.136232
0.124815
0.11334
0.101801
0.0901827
0.0784848
0.0666794
0.0547959
0.04275
0.0306813
0.0182902
0.00613292
-14.7414
-14.9137
-15.1481
-15.4873
-15.9421
-16.4958
-17.1225
-17.7893
-18.4628
-19.1086
-19.6939
-20.1883
-20.5629
-20.7914
-20.8506
-20.7214
-20.3904
-19.8509
-19.1043
-18.1621
-17.0461
-15.7875
-14.4256
-13.0056
-11.5746
-10.176
-8.84584
-7.60918
-6.48037
-5.46459
-4.56057
-3.76303
-3.06455
-2.45678
-1.93119
-1.47941
-1.09344
-0.765784
-0.489512
-0.258258
-0.066232
0.0917899
0.220478
0.323965
0.405884
0.469414
0.517344
0.552125
0.575919
0.590633
0.597941
0.599301
0.59596
0.588968
0.57919
0.567335
0.55397
0.539551
0.524436
0.508907
0.49318
0.477423
0.46176
0.446284
0.431059
0.416128
0.401519
0.387243
0.373302
0.359689
0.346391
0.333391
0.320667
0.308197
0.295955
0.283917
0.272059
0.260355
0.248782
0.237317
0.22594
0.214628
0.203364
0.19213
0.180909
0.169685
0.158446
0.147177
0.135867
0.124504
0.113079
0.101582
0.0900004
0.0783346
0.0665597
0.0546995
0.0426836
0.0306245
0.0182845
0.0060873
-14.751
-14.932
-15.168
-15.4864
-15.8961
-16.3859
-16.9346
-17.5159
-18.1008
-18.659
-19.1612
-19.5796
-19.888
-20.0626
-20.0826
-19.9312
-19.5966
-19.0734
-18.3635
-17.4774
-16.4346
-15.2628
-13.9966
-12.6755
-11.3407
-10.0303
-8.77666
-7.60316
-6.52415
-5.54603
-4.66927
-3.89041
-3.20373
-2.60234
-2.07894
-1.62614
-1.23679
-0.904048
-0.621511
-0.383229
-0.183738
-0.0180581
0.118303
0.229352
0.318631
0.389259
0.443976
0.485198
0.51506
0.53545
0.54803
0.554256
0.555382
0.552471
0.546414
0.537939
0.527643
0.516002
0.5034
0.49014
0.476459
0.462543
0.448536
0.434545
0.420652
0.406914
0.39337
0.380045
0.366951
0.354093
0.341467
0.329063
0.316867
0.304865
0.293038
0.281367
0.269831
0.258413
0.247091
0.235847
0.224664
0.213523
0.202408
0.191304
0.180197
0.169074
0.157921
0.146728
0.135485
0.12418
0.112805
0.101352
0.0898099
0.0781777
0.0664345
0.054599
0.0426142
0.0305657
0.0182779
0.00604249
-14.747
-14.9301
-15.1619
-15.4592
-15.8281
-16.2603
-16.7393
-17.2432
-17.7472
-18.2252
-18.651
-18.9997
-19.2476
-19.3735
-19.3586
-19.1881
-18.8517
-18.3449
-17.6698
-16.8361
-15.861
-14.7691
-13.5908
-12.3607
-11.1146
-9.88637
-8.70479
-7.59164
-6.56104
-5.62022
-4.77104
-4.01158
-3.33762
-2.7436
-2.22333
-1.77042
-1.37848
-1.04133
-0.753102
-0.508256
-0.301666
-0.128608
0.0152156
0.13367
0.230199
0.307847
0.369304
0.416946
0.452877
0.478964
0.496855
0.507998
0.513653
0.514894
0.512629
0.507609
0.500452
0.49166
0.481637
0.470708
0.459132
0.447113
0.434813
0.422356
0.409839
0.397334
0.384893
0.372554
0.36034
0.348265
0.336336
0.324551
0.312906
0.301391
0.289995
0.278705
0.267507
0.256386
0.245326
0.234313
0.223331
0.212368
0.201409
0.190441
0.179454
0.168435
0.157373
0.14626
0.135085
0.123841
0.112519
0.101112
0.0896108
0.0780138
0.0663037
0.054494
0.0425416
0.0305048
0.01827
0.00599882
-14.7291
-14.9091
-15.1314
-15.4058
-15.736
-16.116
-16.5323
-16.9668
-17.3983
-17.804
-18.1609
-18.4467
-18.6403
-18.7225
-18.6767
-18.4899
-18.153
-17.6623
-17.0202
-16.2351
-15.3226
-14.3042
-13.2067
-12.0602
-10.8961
-9.74428
-8.63053
-7.57496
-6.59129
-5.68728
-4.86585
-4.1264
-3.46598
-2.88023
-2.36403
-1.91187
-1.51814
-1.17729
-0.883956
-0.633041
-0.419749
-0.239627
-0.0885835
0.0370949
0.140738
0.225311
0.293444
0.347469
0.389456
0.421247
0.444474
0.460578
0.470814
0.476268
0.477861
0.476363
0.472413
0.466534
0.459154
0.450617
0.441203
0.431135
0.420592
0.409717
0.39862
0.387388
0.376088
0.364768
0.353465
0.342202
0.330996
0.319854
0.30878
0.297772
0.286825
0.275932
0.265084
0.254272
0.243485
0.232711
0.221941
0.211163
0.200366
0.189541
0.178678
0.167767
0.156801
0.14577
0.134668
0.123487
0.11222
0.100861
0.0894028
0.0778426
0.0661671
0.0543845
0.0424656
0.0304419
0.0182602
0.00595655
-14.6978
-14.8711
-15.0804
-15.3313
-15.6255
-15.9582
-16.3181
-16.6901
-17.0562
-17.3967
-17.6913
-17.9203
-18.0648
-18.1079
-18.0349
-17.8341
-17.4978
-17.023
-16.4117
-15.6718
-14.817
-13.8662
-12.8428
-11.7732
-10.6849
-9.6042
-8.55425
-7.55354
-6.61524
-5.74741
-4.95378
-4.23479
-3.58863
-3.012
-2.50073
-2.05017
-1.65543
-1.31157
-1.01375
-0.757283
-0.537717
-0.350875
-0.192881
-0.0601878
0.0504126
0.141795
0.216522
0.276876
0.324893
0.362383
0.39096
0.412052
0.426914
0.436633
0.442141
0.444226
0.443545
0.440642
0.435964
0.429877
0.42268
0.414615
0.405878
0.39663
0.386995
0.377077
0.366954
0.356688
0.346326
0.335904
0.325446
0.314971
0.304489
0.294006
0.283525
0.273044
0.262561
0.252071
0.241567
0.231043
0.220492
0.209907
0.199279
0.188602
0.177869
0.167071
0.156204
0.14526
0.134233
0.123118
0.111908
0.1006
0.0891857
0.0776639
0.0660245
0.0542704
0.0423859
0.0303768
0.0182479
0.00591586
-14.6539
-14.8178
-15.0118
-15.2388
-15.4992
-15.7885
-16.0976
-16.4135
-16.7208
-17.0026
-17.2412
-17.4191
-17.5198
-17.528
-17.431
-17.2184
-16.8836
-16.4241
-15.8418
-15.1437
-14.342
-13.4533
-12.498
-11.4991
-10.4809
-9.46637
-8.47637
-7.52783
-6.63329
-5.80088
-5.03494
-4.33675
-3.70545
-3.13869
-2.63317
-2.18501
-1.79002
-1.44386
-1.14217
-0.880684
-0.655294
-0.462101
-0.297454
-0.157979
-0.0406022
0.0574522
0.138674
0.20529
0.259293
0.302463
0.336392
0.362491
0.382009
0.396036
0.40551
0.411232
0.413877
0.414006
0.412086
0.408503
0.403575
0.397562
0.39068
0.383102
0.374972
0.366405
0.357494
0.348315
0.338925
0.329371
0.319687
0.309901
0.300032
0.290094
0.280096
0.270043
0.259937
0.249781
0.239572
0.229307
0.218985
0.208599
0.198148
0.187625
0.177026
0.166346
0.155582
0.144728
0.133779
0.122733
0.111583
0.100327
0.0889594
0.0774777
0.0658758
0.0541516
0.0423026
0.0303096
0.0182328
0.00587687
-14.5981
-14.7507
-14.9281
-15.1313
-15.3598
-15.6096
-15.8727
-16.1381
-16.3927
-16.6219
-16.8102
-16.9423
-17.0037
-16.9811
-16.863
-16.6406
-16.308
-15.8632
-15.3079
-14.6486
-13.8958
-13.064
-12.1712
-11.2375
-10.2839
-9.33103
-8.39733
-7.49832
-6.64585
-5.84801
-5.10951
-4.43233
-3.81639
-3.26016
-2.76112
-2.31613
-1.92163
-1.57385
-1.26891
-1.00295
-0.772201
-0.573049
-0.402068
-0.256069
-0.132118
-0.0275483
0.0600499
0.132842
0.192774
0.241592
0.280859
0.311972
0.336168
0.354535
0.368016
0.377422
0.383442
0.386654
0.387544
0.386516
0.383906
0.379992
0.375008
0.369143
0.362556
0.355378
0.347715
0.339654
0.331265
0.322606
0.313721
0.304647
0.295412
0.286037
0.276538
0.266927
0.257214
0.247403
0.237499
0.227504
0.217418
0.207241
0.196971
0.186608
0.176149
0.165592
0.154935
0.144174
0.133308
0.122332
0.111245
0.100043
0.0887239
0.077284
0.065721
0.0540281
0.0422155
0.0302403
0.0182146
0.0058396
-14.5315
-14.6714
-14.8314
-15.0113
-15.2098
-15.4233
-15.6447
-15.8648
-16.0722
-16.2542
-16.3975
-16.4888
-16.5153
-16.4654
-16.329
-16.0984
-15.7687
-15.3379
-14.808
-14.1845
-13.4766
-12.6972
-11.8618
-10.9879
-10.0941
-9.19848
-8.31757
-7.46551
-6.6534
-5.88915
-5.17773
-4.52163
-3.92143
-3.37629
-2.88441
-2.4433
-2.05
-1.70126
-1.39368
-1.12379
-0.888162
-0.683456
-0.506482
-0.354238
-0.223937
-0.113027
-0.0191887
0.0596778
0.125467
0.179884
0.224465
0.260585
0.289468
0.312197
0.329717
0.342845
0.352283
0.358623
0.362369
0.363941
0.363694
0.361924
0.358879
0.354767
0.349762
0.344008
0.337624
0.330712
0.323353
0.315615
0.307553
0.299213
0.290631
0.281837
0.272853
0.2637
0.254392
0.244939
0.235351
0.225634
0.215793
0.205831
0.195751
0.185553
0.17524
0.16481
0.154263
0.1436
0.132818
0.121916
0.110894
0.0997485
0.0884792
0.0770827
0.0655601
0.0538999
0.0421245
0.0301689
0.0181931
0.005804
-14.455
-14.5815
-14.7237
-14.8809
-15.0513
-15.2314
-15.4151
-15.5944
-15.7595
-15.8994
-16.0026
-16.0576
-16.0532
-15.9793
-15.8271
-15.5899
-15.2635
-14.8463
-14.34
-13.7495
-13.083
-12.3515
-11.5688
-10.75
-9.91143
-9.06901
-8.23756
-7.42991
-6.6564
-5.9247
-5.23988
-4.60481
-4.0206
-3.48703
-3.00291
-2.56632
-2.17487
-1.82582
-1.5162
-1.24293
-1.0029
-0.793061
-0.61045
-0.452256
-0.315847
-0.198794
-0.0988686
-0.0140465
0.0575108
0.117466
0.167322
0.20843
0.241997
0.269099
0.290678
0.307558
0.320449
0.329956
0.336598
0.340811
0.342968
0.343381
0.342314
0.339993
0.336603
0.332306
0.327234
0.3215
0.315197
0.308405
0.301188
0.293603
0.285693
0.277497
0.269046
0.260364
0.251473
0.24239
0.233128
0.223698
0.214111
0.204371
0.194487
0.184461
0.174297
0.163999
0.153567
0.143004
0.13231
0.121485
0.110529
0.099443
0.0882256
0.0768742
0.0653932
0.0537672
0.0420298
0.0300955
0.0181682
0.00576994
-14.3697
-14.4822
-14.6067
-14.742
-14.8861
-15.0356
-15.1851
-15.3277
-15.4549
-15.5573
-15.625
-15.6478
-15.6162
-15.5212
-15.3555
-15.1131
-14.7904
-14.3862
-13.9019
-13.342
-12.7134
-12.026
-11.2916
-10.5235
-9.73589
-8.9429
-8.15772
-7.39201
-6.65534
-5.95505
-5.29623
-4.68204
-4.11398
-3.59236
-3.11649
-2.68501
-2.29604
-1.94728
-1.6362
-1.36008
-1.11614
-0.901597
-0.713717
-0.549886
-0.40763
-0.284645
-0.178804
-0.0881617
-0.0109398
0.0544773
0.109555
0.155617
0.193854
0.225327
0.250977
0.271629
0.287998
0.300704
0.310275
0.317165
0.321761
0.324393
0.32534
0.324841
0.323101
0.320291
0.316559
0.312029
0.306808
0.300985
0.294636
0.287825
0.280606
0.273025
0.26512
0.256923
0.248462
0.239759
0.230833
0.2217
0.212373
0.202864
0.193181
0.183332
0.173323
0.163161
0.152848
0.142388
0.131785
0.121039
0.110153
0.0991269
0.0879632
0.0766585
0.0652205
0.0536301
0.0419315
0.0300202
0.0181401
0.00573726
-14.2766
-14.375
-14.482
-14.5963
-14.7158
-14.8373
-14.9559
-15.0655
-15.1589
-15.228
-15.2641
-15.2585
-15.203
-15.0898
-14.9126
-14.6662
-14.3477
-13.9558
-13.4921
-12.9603
-12.3667
-11.7197
-11.0296
-10.3081
-9.56754
-8.82042
-8.07849
-7.35229
-6.65069
-5.98062
-5.34713
-4.75353
-4.20168
-3.69227
-3.22509
-2.79925
-2.41331
-2.06542
-1.75344
-1.475
-1.22763
-1.0088
-0.816029
-0.646885
-0.499055
-0.370367
-0.258799
-0.162487
-0.0797193
-0.00893224
0.0512999
0.102271
0.145148
0.180981
0.210701
0.235134
0.254999
0.270925
0.283452
0.293048
0.300114
0.304994
0.307985
0.30934
0.309277
0.307982
0.305617
0.302317
0.2982
0.293368
0.287906
0.281888
0.275377
0.268426
0.261082
0.253383
0.245363
0.237051
0.22847
0.219642
0.210584
0.20131
0.191835
0.182168
0.172319
0.162296
0.152106
0.141753
0.131243
0.120579
0.109764
0.0988009
0.0876925
0.076436
0.0650424
0.0534889
0.0418297
0.029943
0.0181089
0.00570577
-14.1768
-14.261
-14.3511
-14.4455
-14.5421
-14.6378
-14.7284
-14.8085
-14.8718
-14.9112
-14.9194
-14.889
-14.8126
-14.6837
-14.4969
-14.2476
-13.9335
-13.5535
-13.1089
-12.6032
-12.0416
-11.4316
-10.7822
-10.1035
-9.40641
-8.70182
-8.00026
-7.31124
-6.64291
-6.00183
-5.39291
-4.81954
-4.28384
-3.78682
-3.32867
-2.90892
-2.52652
-2.18004
-1.86768
-1.58742
-1.33708
-1.11441
-0.917126
-0.743002
-0.589886
-0.455738
-0.338644
-0.236828
-0.14865
-0.0725988
-0.00729383
0.0485255
0.0960025
0.136169
0.169948
0.19816
0.221529
0.240688
0.25619
0.268513
0.278073
0.285228
0.290288
0.293522
0.295161
0.295406
0.29443
0.292381
0.289391
0.285569
0.281012
0.275804
0.270016
0.263709
0.256939
0.24975
0.242182
0.23427
0.226043
0.217527
0.208744
0.199714
0.190451
0.180972
0.171287
0.161407
0.151343
0.1411
0.130686
0.120105
0.109364
0.0984655
0.0874141
0.0762072
0.0648592
0.0533438
0.0417247
0.0298642
0.0180751
0.00567529
-14.0714
-14.1417
-14.2154
-14.291
-14.3663
-14.4385
-14.5038
-14.5574
-14.5938
-14.607
-14.5907
-14.5384
-14.4439
-14.3017
-14.1068
-13.8557
-13.5462
-13.1775
-12.7508
-12.2691
-11.737
-11.1611
-10.549
-9.90962
-9.25252
-8.58733