/*--------------------------------*- C++ -*----------------------------------*\
| =========                 |                                                 |
| \\      /  F ield         | OpenFOAM: The Open Source CFD Toolbox           |
|  \\    /   O peration     | Version:  2.1.1                                 |
|   \\  /    A nd           | Web:      www.OpenFOAM.org                      |
|    \\/     M anipulation  |                                                 |
\*---------------------------------------------------------------------------*/
FoamFile
{
    version     2.0;
    format      ascii;
    class       surfaceScalarField;
    location    "0.025";
    object      phi;
}
// * * * * * * * * * * * * * * * * * * * * * * * * * * * * * * * * * * * * * //

dimensions      [0 3 -1 0 0 0 0];

internalField   nonuniform List<scalar> 
13452
(
6.89935e-05
-5.06242e-07
6.88192e-05
1.74354e-07
6.82154e-05
6.03706e-07
6.72788e-05
9.36602e-07
6.62168e-05
1.06208e-06
6.51435e-05
1.07329e-06
6.4101e-05
1.04248e-06
6.31069e-05
9.94134e-07
6.21696e-05
9.37224e-07
6.1293e-05
8.76646e-07
6.04782e-05
8.14812e-07
5.9725e-05
7.53175e-07
5.90323e-05
6.92674e-07
5.83984e-05
6.33968e-07
5.78209e-05
5.775e-07
5.72973e-05
5.23552e-07
5.6825e-05
4.72277e-07
5.64013e-05
4.23738e-07
5.60234e-05
3.77928e-07
5.56886e-05
3.34796e-07
5.53943e-05
2.94271e-07
5.5138e-05
2.56275e-07
5.49173e-05
2.20751e-07
5.47296e-05
1.87678e-07
5.45725e-05
1.57109e-07
5.44433e-05
1.29219e-07
5.43389e-05
1.04351e-07
5.42555e-05
8.34173e-08
5.41881e-05
6.74336e-08
5.41264e-05
6.16745e-08
5.40552e-05
7.12272e-08
5.39404e-05
1.14744e-07
3.21662e-07
5.36188e-05
7.01652e-05
-2.27496e-07
7.00422e-05
2.97363e-07
7.01839e-05
4.61966e-07
7.05132e-05
6.07316e-07
7.08668e-05
7.085e-07
7.117e-05
7.70045e-07
7.14005e-05
8.12024e-07
7.156e-05
8.3464e-07
7.16567e-05
8.40565e-07
7.16995e-05
8.33763e-07
7.16972e-05
8.17186e-07
7.16572e-05
7.93175e-07
7.15863e-05
7.63539e-07
7.14905e-05
7.29754e-07
7.1375e-05
6.93003e-07
7.12443e-05
6.54236e-07
7.11024e-05
6.14217e-07
7.09526e-05
5.73554e-07
7.07978e-05
5.32732e-07
7.06404e-05
4.9214e-07
7.04826e-05
4.52095e-07
7.0326e-05
4.12872e-07
7.0172e-05
3.74726e-07
7.00218e-05
3.37921e-07
6.98761e-05
3.02775e-07
6.97357e-05
2.69674e-07
6.96008e-05
2.39239e-07
6.94721e-05
2.12142e-07
6.93494e-05
1.90114e-07
6.9238e-05
1.73083e-07
6.91406e-05
1.68553e-07
6.91035e-05
1.51842e-07
1.8233e-07
6.92429e-05
7.22824e-05
-5.33714e-08
7.23998e-05
1.79966e-07
7.25081e-05
3.53651e-07
7.26003e-05
5.15143e-07
7.26901e-05
6.18655e-07
7.27801e-05
6.80114e-07
7.28754e-05
7.16659e-07
7.29728e-05
7.37261e-07
7.30683e-05
7.45104e-07
7.31593e-05
7.42731e-07
7.32444e-05
7.32087e-07
7.33228e-05
7.14741e-07
7.33944e-05
6.91966e-07
7.34593e-05
6.64879e-07
7.35179e-05
6.34425e-07
7.35707e-05
6.01403e-07
7.36184e-05
5.6648e-07
7.36618e-05
5.30215e-07
7.37014e-05
4.93074e-07
7.37381e-05
4.55454e-07
7.37725e-05
4.17701e-07
7.38053e-05
3.80134e-07
7.38369e-05
3.4307e-07
7.3868e-05
3.06848e-07
7.38989e-05
2.71875e-07
7.39299e-05
2.38636e-07
7.39613e-05
2.07863e-07
7.39931e-05
1.80293e-07
7.40256e-05
1.57702e-07
7.40587e-05
1.39946e-07
7.40926e-05
1.34661e-07
7.41173e-05
1.27085e-07
1.7283e-07
7.41268e-05
7.45195e-05
-4.62153e-08
7.4492e-05
2.07397e-07
7.44845e-05
3.61196e-07
7.45297e-05
4.69956e-07
7.45975e-05
5.50885e-07
7.4673e-05
6.04549e-07
7.47498e-05
6.3985e-07
7.48263e-05
6.6075e-07
7.49023e-05
6.69157e-07
7.49776e-05
6.67413e-07
7.50522e-05
6.57524e-07
7.51259e-05
6.41035e-07
7.51987e-05
6.1918e-07
7.52705e-05
5.93014e-07
7.53415e-05
5.63417e-07
7.54118e-05
5.31122e-07
7.54815e-05
4.96749e-07
7.55509e-05
4.60818e-07
7.56202e-05
4.23772e-07
7.56897e-05
3.85997e-07
7.57596e-05
3.4784e-07
7.58301e-05
3.09632e-07
7.59014e-05
2.71711e-07
7.59738e-05
2.34444e-07
7.60474e-05
1.98274e-07
7.61223e-05
1.63726e-07
7.61986e-05
1.31554e-07
7.62764e-05
1.02509e-07
7.6356e-05
7.81298e-08
7.64373e-05
5.86059e-08
7.65232e-05
4.87879e-08
7.66103e-05
3.99875e-08
5.62819e-08
7.67269e-05
7.66042e-05
5.47837e-09
7.66316e-05
1.79935e-07
7.6673e-05
3.19801e-07
7.67174e-05
4.25584e-07
7.67637e-05
5.04561e-07
7.68129e-05
5.55353e-07
7.68663e-05
5.86427e-07
7.69236e-05
6.0346e-07
7.69838e-05
6.09006e-07
7.7046e-05
6.05178e-07
7.71098e-05
5.93713e-07
7.71749e-05
5.75961e-07
7.7241e-05
5.53027e-07
7.73082e-05
5.25862e-07
7.73763e-05
4.95269e-07
7.74455e-05
4.61928e-07
7.75159e-05
4.26415e-07
7.75875e-05
3.89222e-07
7.76605e-05
3.50773e-07
7.7735e-05
3.11442e-07
7.78113e-05
2.71574e-07
7.78894e-05
2.31503e-07
7.79696e-05
1.91576e-07
7.80518e-05
1.52171e-07
7.81364e-05
1.13742e-07
7.82233e-05
7.68172e-08
7.83127e-05
4.21335e-08
7.84047e-05
1.04964e-08
7.84998e-05
-1.69388e-08
7.85979e-05
-3.9487e-08
7.87003e-05
-5.36481e-08
7.88032e-05
-6.28633e-08
-5.16868e-08
7.89111e-05
7.88322e-05
1.91685e-08
7.88424e-05
1.69718e-07
7.88652e-05
2.97019e-07
7.89005e-05
3.90321e-07
7.89451e-05
4.5994e-07
7.89944e-05
5.06065e-07
7.90465e-05
5.34317e-07
7.91008e-05
5.49162e-07
7.9157e-05
5.52831e-07
7.92149e-05
5.47258e-07
7.92745e-05
5.34129e-07
7.93357e-05
5.14772e-07
7.93984e-05
4.90266e-07
7.94628e-05
4.6152e-07
7.95287e-05
4.29304e-07
7.95964e-05
3.94266e-07
7.96659e-05
3.56955e-07
7.97372e-05
3.17844e-07
7.98107e-05
2.77341e-07
7.98863e-05
2.35814e-07
7.99643e-05
1.93602e-07
8.00447e-05
1.51037e-07
8.01278e-05
1.08468e-07
8.02138e-05
6.62689e-08
8.03026e-05
2.48803e-08
8.03946e-05
-1.5172e-08
8.049e-05
-5.32195e-08
8.0589e-05
-8.85577e-08
8.06922e-05
-1.20104e-07
8.07998e-05
-1.47142e-07
8.09135e-05
-1.67291e-07
8.10322e-05
-1.81541e-07
-1.82284e-07
8.11627e-05
8.10858e-05
3.19269e-08
8.10986e-05
1.56958e-07
8.11268e-05
2.68729e-07
8.11641e-05
3.5307e-07
8.12072e-05
4.16845e-07
8.12535e-05
4.59759e-07
8.13023e-05
4.85467e-07
8.13536e-05
4.97915e-07
8.1407e-05
4.99422e-07
8.14624e-05
4.91869e-07
8.15196e-05
4.76868e-07
8.15787e-05
4.55691e-07
8.16396e-05
4.29373e-07
8.17024e-05
3.98782e-07
8.1767e-05
3.64654e-07
8.18337e-05
3.2761e-07
8.19024e-05
2.88178e-07
8.19735e-05
2.46812e-07
8.20469e-05
2.03909e-07
8.21229e-05
1.59827e-07
8.22016e-05
1.14897e-07
8.22832e-05
6.94454e-08
8.23678e-05
2.38102e-08
8.24558e-05
-2.16491e-08
8.25472e-05
-6.65126e-08
8.26423e-05
-1.10303e-07
8.27415e-05
-1.52435e-07
8.28452e-05
-1.92272e-07
8.29541e-05
-2.28947e-07
8.30687e-05
-2.61778e-07
8.31906e-05
-2.89154e-07
8.33201e-05
-3.1108e-07
-3.2363e-07
8.34614e-05
8.34111e-05
3.63176e-08
8.34239e-05
1.442e-07
8.34495e-05
2.43114e-07
8.34837e-05
3.18904e-07
8.35246e-05
3.75933e-07
8.35699e-05
4.14499e-07
8.36182e-05
4.37167e-07
8.36689e-05
4.47164e-07
8.37217e-05
4.46594e-07
8.37765e-05
4.37151e-07
8.3833e-05
4.20322e-07
8.38914e-05
3.97321e-07
8.39516e-05
3.69142e-07
8.40138e-05
3.36622e-07
8.40779e-05
3.0047e-07
8.41443e-05
2.61284e-07
8.42129e-05
2.19574e-07
8.42839e-05
1.7578e-07
8.43575e-05
1.30287e-07
8.44339e-05
8.34404e-08
8.45133e-05
3.55603e-08
8.45957e-05
-1.30378e-08
8.46816e-05
-6.20371e-08
8.4771e-05
-1.11099e-07
8.48644e-05
-1.59848e-07
8.49619e-05
-2.07864e-07
8.50642e-05
-2.54658e-07
8.51716e-05
-2.99706e-07
8.5285e-05
-3.42358e-07
8.54053e-05
-3.82064e-07
8.5534e-05
-4.1784e-07
8.56724e-05
-4.49499e-07
-4.75316e-07
8.58241e-05
8.57973e-05
3.77177e-08
8.581e-05
1.31489e-07
8.58351e-05
2.18071e-07
8.58685e-05
2.85456e-07
8.59084e-05
3.36012e-07
8.59528e-05
3.70192e-07
8.60002e-05
3.89707e-07
8.60503e-05
3.97115e-07
8.61025e-05
3.94314e-07
8.61568e-05
3.82851e-07
8.62131e-05
3.641e-07
8.62712e-05
3.39199e-07
8.63312e-05
3.09093e-07
8.63933e-05
2.74579e-07
8.64574e-05
2.36331e-07
8.65238e-05
1.94925e-07
8.65925e-05
1.50849e-07
8.66638e-05
1.04526e-07
8.67377e-05
5.63263e-08
8.68146e-05
6.58464e-09
8.68945e-05
-4.44017e-08
8.69778e-05
-9.63297e-08
8.70647e-05
-1.4891e-07
8.71554e-05
-2.01838e-07
8.72504e-05
-2.54791e-07
8.73499e-05
-3.07421e-07
8.74546e-05
-3.59345e-07
8.75651e-05
-4.1017e-07
8.76822e-05
-4.59458e-07
8.7807e-05
-5.06855e-07
8.7941e-05
-5.51865e-07
8.8086e-05
-5.94452e-07
-6.34166e-07
8.82448e-05
8.82511e-05
3.6653e-08
8.8264e-05
1.1859e-07
8.8288e-05
1.94014e-07
8.83201e-05
2.53374e-07
8.83586e-05
2.97562e-07
8.84017e-05
3.27058e-07
8.84483e-05
3.43075e-07
8.84978e-05
3.47635e-07
8.85497e-05
3.42413e-07
8.86038e-05
3.28795e-07
8.86598e-05
3.08021e-07
8.87179e-05
2.81143e-07
8.87779e-05
2.49045e-07
8.884e-05
2.12478e-07
8.89043e-05
1.72081e-07
8.89708e-05
1.28399e-07
8.90398e-05
8.1899e-08
8.91113e-05
3.29835e-08
8.91856e-05
-1.79955e-08
8.92629e-05
-7.07236e-08
8.93435e-05
-1.24917e-07
8.94274e-05
-1.80303e-07
8.95151e-05
-2.36621e-07
8.96069e-05
-2.9361e-07
8.97031e-05
-3.51006e-07
8.98042e-05
-4.08539e-07
8.99108e-05
-4.65937e-07
9.00236e-05
-5.22944e-07
9.01435e-05
-5.7932e-07
9.02715e-05
-6.34919e-07
9.04093e-05
-6.89626e-07
9.05585e-05
-7.43653e-07
-7.97277e-07
9.07216e-05
9.07737e-05
3.42285e-08
9.07866e-05
1.05733e-07
9.08097e-05
1.70892e-07
9.08407e-05
2.22433e-07
9.08779e-05
2.60339e-07
9.09199e-05
2.85013e-07
9.09657e-05
2.97332e-07
9.10144e-05
2.98867e-07
9.10658e-05
2.91058e-07
9.11194e-05
2.75136e-07
9.11753e-05
2.52214e-07
9.12331e-05
2.23257e-07
9.12931e-05
1.89085e-07
9.13552e-05
1.50397e-07
9.14195e-05
1.07793e-07
9.14861e-05
6.17864e-08
9.15552e-05
1.28165e-08
9.16269e-05
-3.87374e-08
9.17014e-05
-9.25451e-08
9.1779e-05
-1.48314e-07
9.18599e-05
-2.05783e-07
9.19443e-05
-2.6471e-07
9.20325e-05
-3.24869e-07
9.2125e-05
-3.86047e-07
9.2222e-05
-4.48042e-07
9.23241e-05
-5.10666e-07
9.2432e-05
-5.7375e-07
9.25462e-05
-6.37172e-07
9.26677e-05
-7.00862e-07
9.27977e-05
-7.64865e-07
9.29374e-05
-8.29344e-07
9.30885e-05
-8.94736e-07
-9.61698e-07
9.32529e-05
9.33679e-05
3.09871e-08
9.33807e-05
9.29555e-08
9.34029e-05
1.48645e-07
9.34327e-05
1.92631e-07
9.34687e-05
2.24376e-07
9.35095e-05
2.44152e-07
9.35543e-05
2.52601e-07
9.36022e-05
2.50937e-07
9.36529e-05
2.40381e-07
9.3706e-05
2.22017e-07
9.37614e-05
1.96834e-07
9.38189e-05
1.65706e-07
9.38786e-05
1.29384e-07
9.39405e-05
8.85153e-08
9.40047e-05
4.36575e-08
9.40711e-05
-4.71177e-09
9.41401e-05
-5.61826e-08
9.42118e-05
-1.10402e-07
9.42863e-05
-1.67063e-07
9.43639e-05
-2.25899e-07
9.44448e-05
-2.86676e-07
9.45293e-05
-3.49182e-07
9.46176e-05
-4.13231e-07
9.47103e-05
-4.78659e-07
9.48075e-05
-5.45323e-07
9.491e-05
-6.13113e-07
9.50182e-05
-6.81956e-07
9.51329e-05
-7.51844e-07
9.52548e-05
-8.22847e-07
9.53851e-05
-8.95161e-07
9.55249e-05
-9.69138e-07
9.56756e-05
-1.04537e-06
-1.12466e-06
9.58385e-05
9.60358e-05
2.73141e-08
9.60484e-05
8.03614e-08
9.60698e-05
1.27244e-07
9.60985e-05
1.6393e-07
9.61332e-05
1.89631e-07
9.61729e-05
2.04477e-07
9.62165e-05
2.08939e-07
9.62635e-05
2.03949e-07
9.63134e-05
1.90526e-07
9.63658e-05
1.69609e-07
9.64205e-05
1.42071e-07
9.64776e-05
1.08695e-07
9.65368e-05
7.01634e-08
9.65982e-05
2.70696e-08
9.6662e-05
-2.00739e-08
9.67281e-05
-7.08262e-08
9.67967e-05
-1.24808e-07
9.6868e-05
-1.81696e-07
9.69421e-05
-2.41208e-07
9.70193e-05
-3.03104e-07
9.70998e-05
-3.67179e-07
9.71839e-05
-4.33254e-07
9.72719e-05
-5.01182e-07
9.73641e-05
-5.70844e-07
9.74609e-05
-6.42155e-07
9.75628e-05
-7.15072e-07
9.76705e-05
-7.89602e-07
9.77845e-05
-8.65829e-07
9.79056e-05
-9.43928e-07
9.80346e-05
-1.0242e-06
9.81725e-05
-1.10709e-06
9.83205e-05
-1.19329e-06
-1.28359e-06
9.84794e-05
9.87796e-05
2.34413e-08
9.87919e-05
6.80211e-08
9.88125e-05
1.06652e-07
9.88402e-05
1.36297e-07
9.88737e-05
1.56085e-07
9.89122e-05
1.66016e-07
9.89547e-05
1.66422e-07
9.90006e-05
1.58015e-07
9.90495e-05
1.4163e-07
9.91011e-05
1.18075e-07
9.9155e-05
8.81114e-08
9.92113e-05
5.24327e-08
9.92698e-05
1.16536e-08
9.93305e-05
-3.36883e-08
9.93936e-05
-8.31261e-08
9.9459e-05
-1.36257e-07
9.95269e-05
-1.92733e-07
9.95975e-05
-2.52261e-07
9.96709e-05
-3.14586e-07
9.97473e-05
-3.79497e-07
9.98269e-05
-4.46814e-07
9.99101e-05
-5.16393e-07
9.9997e-05
-5.88121e-07
0.000100088
-6.61923e-07
0.000100184
-7.37761e-07
0.000100284
-8.15646e-07
0.00010039
-8.95651e-07
0.000100502
-9.77921e-07
0.000100621
-1.0627e-06
0.000100747
-1.15034e-06
0.000100882
-1.24135e-06
0.000101025
-1.33638e-06
-1.43621e-06
0.000101177
0.000101602
1.95142e-08
0.000101614
5.59971e-08
0.000101634
8.68464e-08
0.00010166
1.09712e-07
0.000101692
1.23729e-07
0.00010173
1.28789e-07
0.000101771
1.25111e-07
0.000101816
1.1323e-07
0.000101864
9.38249e-08
0.000101914
6.75772e-08
0.000101967
3.51439e-08
0.000102022
-2.86575e-09
0.00010208
-4.59054e-08
0.00010214
-9.34926e-08
0.000102202
-1.45206e-07
0.000102266
-2.00681e-07
0.000102333
-2.59604e-07
0.000102403
-3.21709e-07
0.000102475
-3.86772e-07
0.00010255
-4.54604e-07
0.000102628
-5.25057e-07
0.00010271
-5.98014e-07
0.000102795
-6.73394e-07
0.000102884
-7.51157e-07
0.000102978
-8.31302e-07
0.000103076
-9.13884e-07
0.000103179
-9.99014e-07
0.000103288
-1.08688e-06
0.000103403
-1.17775e-06
0.000103525
-1.272e-06
0.000103654
-1.37012e-06
0.00010379
-1.47273e-06
-1.58046e-06
0.000103934
0.000104504
1.5621e-08
0.000104516
4.43366e-08
0.000104535
6.78107e-08
0.000104561
8.41587e-08
0.000104592
9.25594e-08
0.000104628
9.2822e-08
0.000104668
8.50696e-08
0.000104711
6.96976e-08
0.000104758
4.72444e-08
0.000104807
1.82791e-08
0.000104859
-1.66384e-08
0.000104913
-5.69799e-08
0.000104969
-1.02265e-07
0.000105028
-1.52066e-07
0.000105089
-2.06006e-07
0.000105152
-2.6376e-07
0.000105217
-3.25046e-07
0.000105285
-3.89628e-07
0.000105356
-4.57307e-07
0.000105429
-5.27923e-07
0.000105505
-6.01348e-07
0.000105585
-6.77494e-07
0.000105668
-7.56305e-07
0.000105754
-8.37765e-07
0.000105845
-9.21904e-07
0.00010594
-1.0088e-06
0.000106039
-1.09859e-06
0.000106144
-1.19146e-06
0.000106254
-1.2877e-06
0.00010637
-1.38766e-06
0.000106491
-1.49179e-06
0.000106619
-1.60061e-06
-1.71461e-06
0.000106753
0.00010749
1.18155e-08
0.000107501
3.3076e-08
0.000107519
4.95388e-08
0.000107544
5.96293e-08
0.000107574
6.25831e-08
0.000107609
5.81481e-08
0.000107647
4.63662e-08
0.000107689
2.75183e-08
0.000107735
2.02368e-09
0.000107783
-2.96517e-08
0.000107833
-6.70371e-08
0.000107886
-1.09681e-07
0.000107941
-1.57166e-07
0.000107998
-2.09117e-07
0.000108057
-2.65202e-07
0.000108118
-3.25133e-07
0.000108182
-3.88662e-07
0.000108248
-4.55578e-07
0.000108316
-5.25709e-07
0.000108387
-5.98916e-07
0.000108461
-6.75096e-07
0.000108538
-7.54177e-07
0.000108617
-8.36124e-07
0.000108701
-9.20939e-07
0.000108787
-1.00867e-06
0.000108878
-1.09939e-06
0.000108973
-1.19326e-06
0.000109072
-1.29046e-06
0.000109175
-1.39124e-06
0.000109283
-1.49591e-06
0.000109396
-1.60485e-06
0.000109514
-1.71849e-06
-1.83716e-06
0.000109637
0.000110561
8.12986e-09
0.000110571
2.22432e-08
0.000110589
3.20306e-08
0.000110612
3.61249e-08
0.000110641
3.38156e-08
0.000110675
2.4807e-08
0.000110712
9.0727e-09
0.000110753
-1.32011e-08
0.000110796
-4.1697e-08
0.000110843
-7.60416e-08
0.000110891
-1.15846e-07
0.000110942
-1.6073e-07
0.000110996
-2.10336e-07
0.000111051
-2.6434e-07
0.000111108
-3.22454e-07
0.000111167
-3.84424e-07
0.000111229
-4.50033e-07
0.000111292
-5.19098e-07
0.000111358
-5.91468e-07
0.000111426
-6.67024e-07
0.000111497
-7.4568e-07
0.00011157
-8.2738e-07
0.000111646
-9.12099e-07
0.000111725
-9.9985e-07
0.000111807
-1.09068e-06
0.000111892
-1.18467e-06
0.000111981
-1.28195e-06
0.000112073
-1.38269e-06
0.000112169
-1.4871e-06
0.000112268
-1.59544e-06
0.000112372
-1.70798e-06
0.000112478
-1.82505e-06
-1.94683e-06
0.000112588
0.000113719
4.58424e-09
0.000113729
1.18601e-08
0.000113746
1.52923e-08
0.000113769
1.3654e-08
0.000113796
6.28057e-09
0.000113828
-7.15385e-09
0.000113864
-2.67332e-08
0.000113903
-5.23496e-08
0.000113945
-8.37727e-08
0.00011399
-1.20712e-07
0.000114037
-1.62852e-07
0.000114086
-2.0988e-07
0.000114137
-2.61494e-07
0.00011419
-3.17418e-07
0.000114245
-3.77405e-07
0.000114302
-4.41236e-07
0.000114361
-5.08723e-07
0.000114421
-5.79705e-07
0.000114484
-6.54052e-07
0.000114548
-7.31663e-07
0.000114615
-8.12461e-07
0.000114684
-8.96402e-07
0.000114756
-9.83465e-07
0.000114829
-1.07366e-06
0.000114906
-1.16703e-06
0.000114985
-1.26365e-06
0.000115066
-1.36362e-06
0.000115151
-1.46707e-06
0.000115238
-1.57415e-06
0.000115328
-1.68506e-06
0.00011542
-1.79999e-06
0.000115514
-1.91916e-06
-2.0426e-06
0.000115609
0.000116968
1.19128e-09
0.000116978
1.9452e-09
0.000116994
-6.64882e-10
0.000117015
-7.76785e-09
0.000117041
-1.99909e-08
0.000117072
-3.76807e-08
0.000117106
-6.09682e-08
0.000117144
-8.98112e-08
0.000117184
-1.24054e-07
0.000117227
-1.63477e-07
0.000117272
-2.07836e-07
0.000117319
-2.56875e-07
0.000117367
-3.10347e-07
0.000117418
-3.68021e-07
0.00011747
-4.29688e-07
0.000117524
-4.95161e-07
0.00011758
-5.64278e-07
0.000117637
-6.36901e-07
0.000117696
-7.12916e-07
0.000117756
-7.92234e-07
0.000117819
-8.74787e-07
0.000117883
-9.60533e-07
0.000117949
-1.04945e-06
0.000118017
-1.14155e-06
0.000118087
-1.23685e-06
0.000118158
-1.3354e-06
0.000118232
-1.43727e-06
0.000118307
-1.54254e-06
0.000118385
-1.65133e-06
0.000118463
-1.76374e-06
0.000118543
-1.87988e-06
0.000118624
-1.99986e-06
-2.12361e-06
0.000118705
0.000120309
-2.04061e-09
0.000120319
-7.48546e-09
0.000120334
-1.58255e-08
0.000120354
-2.8118e-08
0.000120379
-4.49608e-08
0.000120408
-6.67134e-08
0.000120441
-9.35445e-08
0.000120476
-1.25466e-07
0.000120515
-1.62386e-07
0.000120555
-2.0415e-07
0.000120598
-2.50572e-07
0.000120643
-3.01453e-07
0.000120689
-3.56595e-07
0.000120737
-4.1581e-07
0.000120786
-4.78923e-07
0.000120837
-5.45777e-07
0.000120889
-6.16235e-07
0.000120942
-6.90176e-07
0.000120996
-7.67503e-07
0.000121052
-8.48132e-07
0.00012111
-9.32002e-07
0.000121168
-1.01907e-06
0.000121228
-1.1093e-06
0.000121289
-1.2027e-06
0.000121352
-1.29926e-06
0.000121415
-1.399e-06
0.00012148
-1.50197e-06
0.000121545
-1.60818e-06
0.000121612
-1.7177e-06
0.000121679
-1.83055e-06
0.000121746
-1.94677e-06
0.000121812
-2.06637e-06
-2.18918e-06
0.000121878
0.000123746
-5.10396e-09
0.000123755
-1.64154e-08
0.00012377
-3.01697e-08
0.000123789
-4.73692e-08
0.000123812
-6.85863e-08
0.00012384
-9.41873e-08
0.000123871
-1.2437e-07
0.000123904
-1.59192e-07
0.000123941
-1.98614e-07
0.000123979
-2.42539e-07
0.000124019
-2.90834e-07
0.000124061
-3.43351e-07
0.000124105
-3.99937e-07
0.000124149
-4.60443e-07
0.000124195
-5.24727e-07
0.000124242
-5.9266e-07
0.00012429
-6.64125e-07
0.000124339
-7.3902e-07
0.000124388
-8.17255e-07
0.000124439
-8.98754e-07
0.00012449
-9.83456e-07
0.000124543
-1.07131e-06
0.000124596
-1.16228e-06
0.000124649
-1.25634e-06
0.000124703
-1.35346e-06
0.000124758
-1.45364e-06
0.000124813
-1.55687e-06
0.000124868
-1.66314e-06
0.000124923
-1.77243e-06
0.000124977
-1.88471e-06
0.00012503
-1.99994e-06
0.000125082
-2.11806e-06
-2.23882e-06
0.000125131
0.000127281
-7.99234e-09
0.00012729
-2.48286e-08
0.000127303
-4.36755e-08
0.000127321
-6.54902e-08
0.000127344
-9.08217e-08
0.00012737
-1.20037e-07
0.000127399
-1.53355e-07
0.00012743
-1.90868e-07
0.000127464
-2.32584e-07
0.0001275
-2.78454e-07
0.000127538
-3.28395e-07
0.000127577
-3.82303e-07
0.000127617
-4.40068e-07
0.000127658
-5.01575e-07
0.0001277
-5.66716e-07
0.000127743
-6.35384e-07
0.000127786
-7.07483e-07
0.00012783
-7.82922e-07
0.000127874
-8.61622e-07
0.000127919
-9.43509e-07
0.000127964
-1.02852e-06
0.000128009
-1.11659e-06
0.000128055
-1.20768e-06
0.0001281
-1.30173e-06
0.000128145
-1.3987e-06
0.00012819
-1.49855e-06
0.000128235
-1.60122e-06
0.000128278
-1.70666e-06
0.00012832
-1.8148e-06
0.000128361
-1.92555e-06
0.0001284
-2.03881e-06
0.000128437
-2.15445e-06
-2.27216e-06
0.00012847
0.000130918
-1.06992e-08
0.000130925
-3.27063e-08
0.000130938
-5.63149e-08
0.000130955
-8.24429e-08
0.000130976
-1.11615e-07
0.000131
-1.4419e-07
0.000131027
-1.80403e-07
0.000131057
-2.20372e-07
0.000131088
-2.64144e-07
0.000131121
-3.11711e-07
0.000131156
-3.63034e-07
0.000131192
-4.18052e-07
0.000131228
-4.76692e-07
0.000131266
-5.38874e-07
0.000131303
-6.04516e-07
0.000131342
-6.73536e-07
0.00013138
-7.45853e-07
0.000131418
-8.2139e-07
0.000131457
-9.00072e-07
0.000131495
-9.81828e-07
0.000131533
-1.06659e-06
0.000131571
-1.15428e-06
0.000131608
-1.24485e-06
0.000131645
-1.33821e-06
0.00013168
-1.4343e-06
0.000131715
-1.53304e-06
0.000131748
-1.63435e-06
0.000131779
-1.73811e-06
0.000131809
-1.84423e-06
0.000131836
-1.95256e-06
0.00013186
-2.06294e-06
0.000131881
-2.1752e-06
-2.289e-06
0.000131897
0.000134658
-1.32187e-08
0.000134665
-4.00314e-08
0.000134677
-6.80641e-08
0.000134692
-9.81976e-08
0.000134712
-1.30925e-07
0.000134734
-1.66592e-07
0.000134759
-2.05435e-07
0.000134786
-2.47596e-07
0.000134815
-2.93151e-07
0.000134846
-3.42131e-07
0.000134877
-3.94536e-07
0.00013491
-4.50344e-07
0.000134942
-5.09517e-07
0.000134976
-5.72007e-07
0.000135009
-6.37757e-07
0.000135042
-7.06707e-07
0.000135075
-7.78792e-07
0.000135108
-8.53944e-07
0.00013514
-9.32094e-07
0.000135171
-1.01317e-06
0.000135201
-1.09709e-06
0.000135231
-1.18379e-06
0.000135259
-1.27318e-06
0.000135286
-1.36516e-06
0.000135312
-1.45964e-06
0.000135335
-1.55652e-06
0.000135356
-1.65568e-06
0.000135375
-1.75697e-06
0.000135391
-1.86024e-06
0.000135404
-1.96533e-06
0.000135413
-2.07202e-06
0.000135418
-2.1801e-06
-2.28922e-06
0.000135418
0.000138505
-1.55373e-08
0.000138511
-4.67686e-08
0.000138522
-7.88712e-08
0.000138537
-1.12692e-07
0.000138554
-1.48683e-07
0.000138575
-1.87163e-07
0.000138598
-2.28363e-07
0.000138623
-2.72436e-07
0.000138649
-3.19482e-07
0.000138676
-3.69565e-07
0.000138705
-4.22721e-07
0.000138733
-4.78965e-07
0.000138762
-5.38293e-07
0.000138791
-6.00686e-07
0.000138819
-6.66114e-07
0.000138847
-7.34536e-07
0.000138874
-8.05901e-07
0.0001389
-8.80152e-07
0.000138925
-9.57224e-07
0.000138949
-1.03704e-06
0.000138972
-1.11953e-06
0.000138992
-1.20459e-06
0.000139011
-1.29213e-06
0.000139028
-1.38204e-06
0.000139043
-1.47421e-06
0.000139055
-1.56849e-06
0.000139064
-1.66474e-06
0.00013907
-1.7628e-06
0.000139072
-1.86248e-06
0.00013907
-1.96357e-06
0.000139064
-2.06584e-06
0.000139053
-2.16906e-06
-2.27286e-06
0.000139037
0.000142461
-1.7662e-08
0.000142468
-5.29215e-08
0.000142477
-8.8748e-08
0.000142491
-1.25944e-07
0.000142507
-1.64899e-07
0.000142526
-2.0589e-07
0.000142546
-2.49137e-07
0.000142569
-2.948e-07
0.000142592
-3.43002e-07
0.000142617
-3.93836e-07
0.000142641
-4.47374e-07
0.000142666
-5.03663e-07
0.00014269
-5.62733e-07
0.000142714
-6.24594e-07
0.000142737
-6.8924e-07
0.000142759
-7.56648e-07
0.00014278
-8.26782e-07
0.0001428
-8.99594e-07
0.000142818
-9.75022e-07
0.000142834
-1.05299e-06
0.000142847
-1.13342e-06
0.000142859
-1.21621e-06
0.000142868
-1.30125e-06
0.000142875
-1.38841e-06
0.000142878
-1.47756e-06
0.000142878
-1.56854e-06
0.000142874
-1.66118e-06
0.000142867
-1.7553e-06
0.000142855
-1.85069e-06
0.000142839
-1.94711e-06
0.000142817
-2.04433e-06
0.00014279
-2.14209e-06
-2.24001e-06
0.000142757
0.000146531
-1.95126e-08
0.000146537
-5.83328e-08
0.000146545
-9.74972e-08
0.000146557
-1.37768e-07
0.000146572
-1.79433e-07
0.000146588
-2.22693e-07
0.000146607
-2.6773e-07
0.000146627
-3.14694e-07
0.000146648
-3.63724e-07
0.000146669
-4.14945e-07
0.00014669
-4.68466e-07
0.000146711
-5.24372e-07
0.000146731
-5.82728e-07
0.00014675
-6.43574e-07
0.000146767
-7.0693e-07
0.000146783
-7.72795e-07
0.000146798
-8.41146e-07
0.00014681
-9.11946e-07
0.00014682
-9.85138e-07
0.000146828
-1.06065e-06
0.000146833
-1.13839e-06
0.000146835
-1.21826e-06
0.000146834
-1.30013e-06
0.000146829
-1.38388e-06
0.000146821
-1.46934e-06
0.000146809
-1.55635e-06
0.000146792
-1.64473e-06
0.000146771
-1.73426e-06
0.000146745
-1.82473e-06
0.000146714
-1.91589e-06
0.000146677
-2.0075e-06
0.000146635
-2.0993e-06
-2.1909e-06
0.000146585
0.000150717
-2.1279e-08
0.000150722
-6.32649e-08
0.00015073
-1.05422e-07
0.000150741
-1.48423e-07
0.000150754
-1.92427e-07
0.000150769
-2.37571e-07
0.000150785
-2.84009e-07
0.000150802
-3.31886e-07
0.00015082
-3.81353e-07
0.000150838
-4.32561e-07
0.000150855
-4.8565e-07
0.000150871
-5.40738e-07
0.000150886
-5.97924e-07
0.0001509
-6.57276e-07
0.000150912
-7.18841e-07
0.000150922
-7.82636e-07
0.000150929
-8.48657e-07
0.000150934
-9.16875e-07
0.000150936
-9.87242e-07
0.000150935
-1.05969e-06
0.000150931
-1.13412e-06
0.000150923
-1.21044e-06
0.000150912
-1.28851e-06
0.000150896
-1.3682e-06
0.000150876
-1.44934e-06
0.000150851
-1.53175e-06
0.000150822
-1.61524e-06
0.000150787
-1.69959e-06
0.000150747
-1.78458e-06
0.000150701
-1.86996e-06
0.000150649
-1.95548e-06
0.000150591
-2.04088e-06
-2.12579e-06
0.000150526
0.000155023
-2.22094e-08
0.000155026
-6.66667e-08
0.000155032
-1.11541e-07
0.000155041
-1.57306e-07
0.000155052
-2.03744e-07
0.000155065
-2.50783e-07
0.00015508
-2.98491e-07
0.000155095
-3.47008e-07
0.00015511
-3.96529e-07
0.000155125
-4.47262e-07
0.000155139
-4.99401e-07
0.000155151
-5.5312e-07
0.000155162
-6.0856e-07
0.00015517
-6.65827e-07
0.000155176
-7.24997e-07
0.00015518
-7.86111e-07
0.00015518
-8.49182e-07
0.000155178
-9.14194e-07
0.000155172
-9.81105e-07
0.000155162
-1.04985e-06
0.000155148
-1.12034e-06
0.00015513
-1.19248e-06
0.000155108
-1.26612e-06
0.000155081
-1.34113e-06
0.000155049
-1.41733e-06
0.000155011
-1.49455e-06
0.000154969
-1.57259e-06
0.00015492
-1.65123e-06
0.000154866
-1.73025e-06
0.000154805
-1.8094e-06
0.000154738
-1.88843e-06
0.000154665
-1.96709e-06
-2.04505e-06
0.000154584
0.000159453
-2.44148e-08
0.000159457
-7.07222e-08
0.000159463
-1.17491e-07
0.000159471
-1.65047e-07
0.00015948
-2.13062e-07
0.00015949
-2.61359e-07
0.000159502
-3.09882e-07
0.000159514
-3.5869e-07
0.000159525
-4.07956e-07
0.000159536
-4.57901e-07
0.000159545
-5.08756e-07
0.000159553
-5.60733e-07
0.000159558
-6.14014e-07
0.000159561
-6.68745e-07
0.000159561
-7.25033e-07
0.000159558
-7.82947e-07
0.000159551
-8.42521e-07
0.000159541
-9.03757e-07
0.000159526
-9.66627e-07
0.000159507
-1.03108e-06
0.000159484
-1.09702e-06
0.000159456
-1.16437e-06
0.000159423
-1.23298e-06
0.000159384
-1.30271e-06
0.000159341
-1.37341e-06
0.000159291
-1.44489e-06
0.000159235
-1.51696e-06
0.000159173
-1.5894e-06
0.000159105
-1.66199e-06
0.00015903
-1.7345e-06
0.000158949
-1.80669e-06
0.00015886
-1.87832e-06
-1.94908e-06
0.000158764
0.000164003
-2.14952e-08
0.000164002
-6.94605e-08
0.000164004
-1.19865e-07
0.000164011
-1.71432e-07
0.00016402
-2.22484e-07
0.000164031
-2.72588e-07
0.000164043
-3.21775e-07
0.000164055
-3.70303e-07
0.000164065
-4.18532e-07
0.000164074
-4.66821e-07
0.000164081
-5.15501e-07
0.000164085
-5.64863e-07
0.000164086
-6.15146e-07
0.000164084
-6.66538e-07
0.000164078
-7.19178e-07
0.000164069
-7.73158e-07
0.000164055
-8.2853e-07
0.000164036
-8.8531e-07
0.000164013
-9.43479e-07
0.000163985
-1.00299e-06
0.000163952
-1.06377e-06
0.000163913
-1.12572e-06
0.000163869
-1.18872e-06
0.000163819
-1.25264e-06
0.000163762
-1.3173e-06
0.0001637
-1.38254e-06
0.000163631
-1.44818e-06
0.000163556
-1.514e-06
0.000163474
-1.57981e-06
0.000163385
-1.64537e-06
0.000163288
-1.71047e-06
0.000163185
-1.77487e-06
-1.83831e-06
0.000163074
0.000168699
-2.88478e-08
0.000168703
-7.34212e-08
0.000168706
-1.22285e-07
0.000168708
-1.73547e-07
0.000168711
-2.25596e-07
0.000168715
-2.77105e-07
0.000168721
-3.27256e-07
0.000168726
-3.75994e-07
0.000168732
-4.23631e-07
0.000168735
-4.70567e-07
0.000168737
-5.17208e-07
0.000168736
-5.6393e-07
0.000168732
-6.11048e-07
0.000168724
-6.58816e-07
0.000168712
-7.07427e-07
0.000168696
-7.57018e-07
0.000168675
-8.07679e-07
0.00016865
-8.59454e-07
0.000168619
-9.12349e-07
0.000168582
-9.66337e-07
0.000168539
-1.02136e-06
0.000168491
-1.07733e-06
0.000168436
-1.13415e-06
0.000168376
-1.19169e-06
0.000168308
-1.24979e-06
0.000168234
-1.30831e-06
0.000168153
-1.36706e-06
0.000168065
-1.42585e-06
0.000167969
-1.4845e-06
0.000167867
-1.5428e-06
0.000167757
-1.60053e-06
0.000167639
-1.6575e-06
-1.71346e-06
0.000167514
0.000173493
-1.05456e-08
0.000173481
-6.16752e-08
0.000173481
-1.22092e-07
0.00017349
-1.82196e-07
0.000173503
-2.38484e-07
0.000173516
-2.90885e-07
0.000173529
-3.39926e-07
0.00017354
-3.86435e-07
0.000173547
-4.31117e-07
0.000173551
-4.74568e-07
0.000173551
-5.17325e-07
0.000173547
-5.5984e-07
0.000173538
-6.02469e-07
0.000173525
-6.45489e-07
0.000173507
-6.89107e-07
0.000173483
-7.33473e-07
0.000173454
-7.78681e-07
0.00017342
-8.24785e-07
0.000173379
-8.71798e-07
0.000173332
-9.19702e-07
0.000173279
-9.68447e-07
0.00017322
-1.01796e-06
0.000173154
-1.06815e-06
0.000173081
-1.11889e-06
0.000173002
-1.17007e-06
0.000172915
-1.22152e-06
0.000172821
-1.27309e-06
0.00017272
-1.32461e-06
0.000172611
-1.37591e-06
0.000172495
-1.4268e-06
0.000172372
-1.4771e-06
0.000172241
-1.52663e-06
-1.57516e-06
0.000172102
0.000178491
-3.30974e-08
0.000178485
-5.59652e-08
0.000178471
-1.07455e-07
0.000178455
-1.66443e-07
0.000178445
-2.28658e-07
0.000178441
-2.87119e-07
0.000178441
-3.39848e-07
0.000178443
-3.87848e-07
0.000178444
-4.32255e-07
0.000178443
-4.74034e-07
0.00017844
-5.14019e-07
0.000178433
-5.52895e-07
0.000178422
-5.91202e-07
0.000178406
-6.29352e-07
0.000178384
-6.67656e-07
0.000178357
-7.06337e-07
0.000178324
-7.45549e-07
0.000178285
-7.85387e-07
0.000178239
-8.25899e-07
0.000178186
-8.67093e-07
0.000178127
-9.08947e-07
0.00017806
-9.51407e-07
0.000177986
-9.94397e-07
0.000177905
-1.03782e-06
0.000177817
-1.08157e-06
0.000177721
-1.12551e-06
0.000177617
-1.16951e-06
0.000177506
-1.21342e-06
0.000177387
-1.25707e-06
0.000177261
-1.30032e-06
0.000177127
-1.343e-06
0.000176985
-1.38493e-06
-1.42595e-06
0.000176836
0.000183489
4.53088e-08
0.000183469
-3.54929e-08
0.00018349
-1.28995e-07
0.000183522
-1.98026e-07
0.000183552
-2.58687e-07
0.000183574
-3.09693e-07
0.00018359
-3.55196e-07
0.000183598
-3.96702e-07
0.000183601
-4.34989e-07
0.000183598
-4.70943e-07
0.000183589
-5.05318e-07
0.000183575
-5.38688e-07
0.000183555
-5.71489e-07
0.00018353
-6.04062e-07
0.000183499
-6.36663e-07
0.000183462
-6.69482e-07
0.000183419
-7.0265e-07
0.00018337
-7.36254e-07
0.000183315
-7.70341e-07
0.000183253
-8.04927e-07
0.000183184
-8.39998e-07
0.000183108
-8.75518e-07
0.000183025
-9.11429e-07
0.000182935
-9.47656e-07
0.000182837
-9.84109e-07
0.000182732
-1.02069e-06
0.00018262
-1.05727e-06
0.0001825
-1.09375e-06
0.000182373
-1.12999e-06
0.000182239
-1.16586e-06
0.000182097
-1.20122e-06
0.000181948
-1.23594e-06
-1.26986e-06
0.000181792
0.000188856
1.53457e-09
0.00018878
4.04984e-08
0.000188683