/*--------------------------------*- C++ -*----------------------------------*\
| =========                 |                                                 |
| \\      /  F ield         | OpenFOAM: The Open Source CFD Toolbox           |
|  \\    /   O peration     | Version:  2.1.1                                 |
|   \\  /    A nd           | Web:      www.OpenFOAM.org                      |
|    \\/     M anipulation  |                                                 |
\*---------------------------------------------------------------------------*/
FoamFile
{
    version     2.0;
    format      ascii;
    class       volVectorField;
    location    "0.025";
    object      U;
}
// * * * * * * * * * * * * * * * * * * * * * * * * * * * * * * * * * * * * * //

dimensions      [0 1 -1 0 0 0 0];

internalField   nonuniform List<vector> 
6820
(
(8.34336 -0.360105 0)
(8.40142 -0.247303 0)
(8.35717 -0.115479 0)
(8.25003 -0.0368398 0)
(8.12316 0.00558898 0)
(7.99177 0.0272834 0)
(7.86219 0.0378709 0)
(7.73784 0.0423839 0)
(7.62015 0.0434637 0)
(7.5097 0.0425644 0)
(7.40674 0.0405259 0)
(7.31133 0.0378511 0)
(7.22338 0.034849 0)
(7.14269 0.0317132 0)
(7.06903 0.0285654 0)
(7.00209 0.0254813 0)
(6.94156 0.0225063 0)
(6.8871 0.0196659 0)
(6.83838 0.0169719 0)
(6.79507 0.0144278 0)
(6.75685 0.0120315 0)
(6.72341 0.00977825 0)
(6.69444 0.00766251 0)
(6.66964 0.00568 0)
(6.64872 0.00382983 0)
(6.63137 0.00211889 0)
(6.61724 0.000562389 0)
(6.60592 -0.000785048 0)
(6.59692 -0.00185959 0)
(6.58941 -0.00239608 0)
(6.5818 -0.00161083 0)
(6.57212 -0.000340513 0)
(6.55247 0.022124 0)
(8.32141 0.166191 0)
(8.28715 0.189802 0)
(8.28561 0.131839 0)
(8.31777 0.0952424 0)
(8.36236 0.0742035 0)
(8.40286 0.0613459 0)
(8.43457 0.0536369 0)
(8.45745 0.0488535 0)
(8.47239 0.0456532 0)
(8.48042 0.0433233 0)
(8.48261 0.0414699 0)
(8.47991 0.0398548 0)
(8.47319 0.0383383 0)
(8.46318 0.0368424 0)
(8.45056 0.0353255 0)
(8.43588 0.0337676 0)
(8.41966 0.0321616 0)
(8.40231 0.0305076 0)
(8.38422 0.0288098 0)
(8.36569 0.0270745 0)
(8.347 0.0253097 0)
(8.32835 0.0235247 0)
(8.30994 0.0217312 0)
(8.29192 0.0199438 0)
(8.27439 0.0181832 0)
(8.25744 0.0164785 0)
(8.24116 0.0148754 0)
(8.2255 0.0134513 0)
(8.21075 0.0123124 0)
(8.19633 0.0117736 0)
(8.1851 0.0120296 0)
(8.17191 0.0145001 0)
(8.18282 0.0203435 0)
(8.32252 -0.060954 0)
(8.31416 -0.0835243 0)
(8.33102 -0.0544957 0)
(8.34537 -0.0208929 0)
(8.35497 0.00156592 0)
(8.36483 0.0154083 0)
(8.37556 0.0243334 0)
(8.38674 0.0302042 0)
(8.39791 0.0340428 0)
(8.40869 0.0364924 0)
(8.41885 0.0379449 0)
(8.42827 0.0386405 0)
(8.4369 0.0387503 0)
(8.44474 0.0384032 0)
(8.45183 0.0376965 0)
(8.45822 0.0367045 0)
(8.46399 0.0354847 0)
(8.46921 0.0340823 0)
(8.47396 0.0325333 0)
(8.47834 0.0308668 0)
(8.48241 0.0291074 0)
(8.48625 0.0272768 0)
(8.48994 0.0253965 0)
(8.49353 0.0234891 0)
(8.49708 0.0215825 0)
(8.50063 0.0197105 0)
(8.50422 0.0179279 0)
(8.50784 0.0162846 0)
(8.51158 0.0149461 0)
(8.51521 0.0138092 0)
(8.51937 0.0137506 0)
(8.52229 0.0120045 0)
(8.52604 0.0151287 0)
(8.33366 0.0144479 0)
(8.32999 0.0473031 0)
(8.328 0.0532415 0)
(8.32987 0.0456437 0)
(8.3365 0.0398393 0)
(8.34498 0.0369738 0)
(8.35362 0.0357698 0)
(8.36219 0.0352947 0)
(8.37072 0.0350422 0)
(8.37919 0.0347872 0)
(8.38757 0.0344273 0)
(8.39586 0.033918 0)
(8.40405 0.0332468 0)
(8.41214 0.0324142 0)
(8.42013 0.0314254 0)
(8.42802 0.0302887 0)
(8.43584 0.0290138 0)
(8.44362 0.0276111 0)
(8.45136 0.0260912 0)
(8.45911 0.0244649 0)
(8.4669 0.0227439 0)
(8.47474 0.0209414 0)
(8.48266 0.0190732 0)
(8.49069 0.0171595 0)
(8.49885 0.0152279 0)
(8.50715 0.0133148 0)
(8.5156 0.0114764 0)
(8.5242 0.00977948 0)
(8.53303 0.0083451 0)
(8.54192 0.00723299 0)
(8.55144 0.00683452 0)
(8.5606 0.0067431 0)
(8.57244 0.00918336 0)
(8.3302 -0.00544397 0)
(8.32738 -0.00790722 0)
(8.33197 -0.00328228 0)
(8.33728 0.00680653 0)
(8.34213 0.015598 0)
(8.34727 0.0213954 0)
(8.35285 0.0251126 0)
(8.35887 0.0275575 0)
(8.36528 0.0291292 0)
(8.37195 0.0300578 0)
(8.37881 0.0304852 0)
(8.38582 0.0305025 0)
(8.39295 0.0301724 0)
(8.4002 0.0295425 0)
(8.40755 0.0286515 0)
(8.41501 0.0275317 0)
(8.42259 0.02621 0)
(8.4303 0.0247098 0)
(8.43816 0.023051 0)
(8.44617 0.0212516 0)
(8.45437 0.0193288 0)
(8.46275 0.0172998 0)
(8.47135 0.0151842 0)
(8.48017 0.0130051 0)
(8.48923 0.0107921 0)
(8.49855 0.00858374 0)
(8.50813 0.00643639 0)
(8.51798 0.00440578 0)
(8.52815 0.00262439 0)
(8.5386 0.00111727 0)
(8.54957 0.00023814 0)
(8.56062 -0.000505521 0)
(8.57236 0.000486445 0)
(8.33241 0.00208005 0)
(8.33138 0.0127741 0)
(8.33338 0.0194956 0)
(8.33668 0.0224119 0)
(8.34091 0.0240559 0)
(8.34595 0.0253201 0)
(8.35136 0.0264125 0)
(8.35698 0.0272745 0)
(8.36283 0.0278183 0)
(8.36886 0.0280266 0)
(8.37507 0.0279163 0)
(8.38145 0.02751 0)
(8.388 0.0268316 0)
(8.39472 0.0259055 0)
(8.4016 0.0247542 0)
(8.40866 0.0233976 0)
(8.4159 0.021853 0)
(8.42334 0.020136 0)
(8.43099 0.0182603 0)
(8.43886 0.0162394 0)
(8.44697 0.0140864 0)
(8.45534 0.011816 0)
(8.46397 0.00944563 0)
(8.4729 0.0069962 0)
(8.48213 0.00449638 0)
(8.49168 0.00198121 0)
(8.50157 -0.000497703 0)
(8.51183 -0.00288445 0)
(8.52251 -0.00506944 0)
(8.53362 -0.00699593 0)
(8.54532 -0.00842884 0)
(8.55752 -0.00944596 0)
(8.57069 -0.00918475 0)
(8.33235 0.000623237 0)
(8.33172 0.00502724 0)
(8.334 0.00951637 0)
(8.33764 0.0138004 0)
(8.34181 0.0176351 0)
(8.34643 0.0205413 0)
(8.35134 0.0225596 0)
(8.35649 0.0238821 0)
(8.36187 0.0246412 0)
(8.36746 0.024934 0)
(8.37325 0.0248326 0)
(8.37923 0.0243877 0)
(8.38539 0.0236373 0)
(8.39174 0.0226123 0)
(8.39828 0.0213382 0)
(8.40502 0.0198362 0)
(8.41198 0.0181247 0)
(8.41915 0.0162193 0)
(8.42657 0.0141342 0)
(8.43424 0.0118827 0)
(8.44218 0.00947789 0)
(8.45041 0.0069342 0)
(8.45895 0.00426817 0)
(8.46781 0.00150026 0)
(8.47701 -0.00134275 0)
(8.48658 -0.0042286 0)
(8.49656 -0.00711157 0)
(8.50697 -0.00993641 0)
(8.51788 -0.0126283 0)
(8.52933 -0.0151194 0)
(8.54146 -0.0172421 0)
(8.55432 -0.0189953 0)
(8.56818 -0.0199307 0)
(8.33274 0.00146192 0)
(8.33275 0.00649755 0)
(8.33475 0.0112271 0)
(8.33791 0.0148736 0)
(8.3417 0.017659 0)
(8.34603 0.0196677 0)
(8.35074 0.0210561 0)
(8.35569 0.0219502 0)
(8.36087 0.0224024 0)
(8.36625 0.0224523 0)
(8.3718 0.0221391 0)
(8.37754 0.0214969 0)
(8.38346 0.0205542 0)
(8.38957 0.019336 0)
(8.39588 0.0178637 0)
(8.4024 0.0161555 0)
(8.40913 0.0142273 0)
(8.4161 0.0120925 0)
(8.42332 0.00976338 0)
(8.43081 0.00725135 0)
(8.43858 0.0045676 0)
(8.44666 0.00172474 0)
(8.45506 -0.00126295 0)
(8.4638 -0.00437756 0)
(8.47292 -0.00759686 0)
(8.48245 -0.0108921 0)
(8.49241 -0.0142259 0)
(8.50287 -0.017555 0)
(8.51388 -0.020819 0)
(8.52552 -0.0239613 0)
(8.53792 -0.0268734 0)
(8.55121 -0.0295204 0)
(8.56561 -0.0316716 0)
(8.33286 0.00148714 0)
(8.33312 0.00552528 0)
(8.33499 0.00938678 0)
(8.33796 0.012582 0)
(8.34157 0.0152061 0)
(8.34569 0.0172015 0)
(8.35017 0.0185852 0)
(8.35492 0.0194331 0)
(8.35989 0.0198036 0)
(8.36507 0.0197479 0)
(8.37044 0.0193122 0)
(8.37599 0.018534 0)
(8.38172 0.0174428 0)
(8.38765 0.0160635 0)
(8.39377 0.0144164 0)
(8.40011 0.0125187 0)
(8.40666 0.0103847 0)
(8.41345 0.00802661 0)
(8.4205 0.00545522 0)
(8.42782 0.00268026 0)
(8.43543 -0.000288123 0)
(8.44335 -0.00343983 0)
(8.4516 -0.00676283 0)
(8.46022 -0.0102428 0)
(8.46923 -0.0138618 0)
(8.47866 -0.0175976 0)
(8.48856 -0.0214222 0)
(8.49899 -0.0253036 0)
(8.51002 -0.0292004 0)
(8.52173 -0.0330744 0)
(8.53426 -0.0368641 0)
(8.54776 -0.0405477 0)
(8.56242 -0.0440373 0)
(8.33295 0.00149083 0)
(8.33341 0.00509388 0)
(8.33517 0.00857283 0)
(8.33792 0.0114595 0)
(8.34129 0.013762 0)
(8.34516 0.0154616 0)
(8.34943 0.0165894 0)
(8.35398 0.0172168 0)
(8.35877 0.0173956 0)
(8.36377 0.0171658 0)
(8.36898 0.0165636 0)
(8.37436 0.0156192 0)
(8.37994 0.0143575 0)
(8.3857 0.0127999 0)
(8.39166 0.0109639 0)
(8.39783 0.0088643 0)
(8.40423 0.00651347 0)
(8.41085 0.00392167 0)
(8.41773 0.00109778 0)
(8.42489 -0.00195045 0)
(8.43233 -0.00521506 0)
(8.44009 -0.00868848 0)
(8.44819 -0.0123619 0)
(8.45665 -0.0162251 0)
(8.46551 -0.0202654 0)
(8.47482 -0.0244681 0)
(8.48461 -0.0288153 0)
(8.49494 -0.0332877 0)
(8.5059 -0.0378629 0)
(8.51758 -0.0425235 0)
(8.53009 -0.047247 0)
(8.54359 -0.0520383 0)
(8.55825 -0.0568949 0)
(8.333 0.00141523 0)
(8.33355 0.00454978 0)
(8.33521 0.00754446 0)
(8.33777 0.0100467 0)
(8.34093 0.012038 0)
(8.34459 0.0135009 0)
(8.34864 0.0144426 0)
(8.35299 0.0149059 0)
(8.35759 0.0149298 0)
(8.36242 0.0145477 0)
(8.36745 0.0137912 0)
(8.37266 0.0126878 0)
(8.37807 0.0112598 0)
(8.38367 0.00952632 0)
(8.38947 0.00750278 0)
(8.39547 0.00520195 0)
(8.4017 0.00263414 0)
(8.40816 -0.000192289 0)
(8.41486 -0.00327052 0)
(8.42184 -0.00659472 0)
(8.42911 -0.01016 0)
(8.43668 -0.0139612 0)
(8.4446 -0.0179931 0)
(8.45288 -0.0222501 0)
(8.46157 -0.0267256 0)
(8.4707 -0.0314125 0)
(8.48032 -0.0363032 0)
(8.49049 -0.0413915 0)
(8.50129 -0.0466728 0)
(8.5128 -0.0521497 0)
(8.52514 -0.0578313 0)
(8.53846 -0.0637502 0)
(8.55286 -0.0699559 0)
(8.33303 0.00129917 0)
(8.33363 0.00403109 0)
(8.3352 0.00661626 0)
(8.33757 0.00878209 0)
(8.34054 0.0104814 0)
(8.34399 0.0116939 0)
(8.34783 0.012419 0)
(8.35197 0.0126871 0)
(8.35638 0.0125303 0)
(8.36102 0.0119766 0)
(8.36586 0.0110519 0)
(8.3709 0.00977921 0)
(8.37613 0.00817733 0)
(8.38156 0.00626201 0)
(8.38718 0.00404615 0)
(8.393 0.00154006 0)
(8.39905 -0.00124822 0)
(8.40532 -0.00431255 0)
(8.41184 -0.00764834 0)
(8.41862 -0.0112522 0)
(8.42568 -0.0151219 0)
(8.43306 -0.0192554 0)
(8.44076 -0.0236516 0)
(8.44883 -0.0283095 0)
(8.45729 -0.0332288 0)
(8.46619 -0.0384101 0)
(8.47557 -0.0438558 0)
(8.4855 -0.0495717 0)
(8.49604 -0.0555687 0)
(8.50727 -0.0618675 0)
(8.51929 -0.0685008 0)
(8.53222 -0.0755235 0)
(8.54615 -0.0830137 0)
(8.33304 0.00115962 0)
(8.33366 0.00351383 0)
(8.33513 0.00570851 0)
(8.33735 0.00753679 0)
(8.34013 0.00894189 0)
(8.34338 0.00990181 0)
(8.34701 0.0104102 0)
(8.35095 0.0104849 0)
(8.35516 0.0101489 0)
(8.3596 0.00942389 0)
(8.36426 0.0083305 0)
(8.36911 0.00688741 0)
(8.37415 0.00511027 0)
(8.37938 0.00301199 0)
(8.38481 0.000602869 0)
(8.39044 -0.00210915 0)
(8.39628 -0.00511831 0)
(8.40235 -0.00842071 0)
(8.40865 -0.0120141 0)
(8.41521 -0.0158977 0)
(8.42205 -0.020072 0)
(8.42918 -0.0245384 0)
(8.43664 -0.0292997 0)
(8.44444 -0.0343598 0)
(8.45263 -0.0397242 0)
(8.46125 -0.0454009 0)
(8.47033 -0.0514012 0)
(8.47992 -0.0577416 0)
(8.4901 -0.0644459 0)
(8.50093 -0.0715488 0)
(8.51249 -0.0790994 0)
(8.52487 -0.0871678 0)
(8.53814 -0.0958451 0)
(8.33305 0.00100839 0)
(8.33365 0.00300683 0)
(8.33505 0.0048386 0)
(8.33712 0.00634507 0)
(8.33972 0.00746599 0)
(8.34277 0.00817597 0)
(8.3462 0.00846423 0)
(8.34995 0.00833951 0)
(8.35395 0.00781779 0)
(8.35819 0.00691535 0)
(8.36265 0.00564819 0)
(8.3673 0.0040309 0)
(8.37214 0.00207579 0)
(8.37717 -0.000207243 0)
(8.38239 -0.00281055 0)
(8.38781 -0.00572867 0)
(8.39343 -0.00895819 0)
(8.39926 -0.0124976 0)
(8.40533 -0.016347 0)
(8.41164 -0.0205082 0)
(8.41822 -0.0249845 0)
(8.42508 -0.0297807 0)
(8.43224 -0.0349035 0)
(8.43974 -0.0403612 0)
(8.44761 -0.0461651 0)
(8.45587 -0.0523293 0)
(8.46457 -0.0588729 0)
(8.47376 -0.0658209 0)
(8.48348 -0.073207 0)
(8.4938 -0.0810756 0)
(8.50476 -0.0894862 0)
(8.51645 -0.0985166 0)
(8.52888 -0.10826 0)
(8.33305 0.00085266 0)
(8.33364 0.00251157 0)
(8.33495 0.00400083 0)
(8.33688 0.00519605 0)
(8.33932 0.0060383 0)
(8.34218 0.00649982 0)
(8.34542 0.00656668 0)
(8.34896 0.00624075 0)
(8.35276 0.00553155 0)
(8.3568 0.00445022 0)
(8.36104 0.0030082 0)
(8.36549 0.00121617 0)
(8.37011 -0.000916902 0)
(8.37493 -0.00338399 0)
(8.37992 -0.00618007 0)
(8.38511 -0.00930213 0)
(8.39049 -0.0127491 0)
(8.39608 -0.0165217 0)
(8.40188 -0.0206225 0)
(8.40792 -0.0250559 0)
(8.4142 -0.0298279 0)
(8.42075 -0.0349465 0)
(8.42758 -0.0404218 0)
(8.43473 -0.0462663 0)
(8.44222 -0.052496 0)
(8.45007 -0.0591305 0)
(8.45833 -0.0661948 0)
(8.46703 -0.0737202 0)
(8.4762 -0.081747 0)
(8.4859 -0.0903256 0)
(8.49615 -0.0995203 0)
(8.50702 -0.109411 0)
(8.5185 -0.120085 0)
(8.33305 0.000696867 0)
(8.33361 0.0020304 0)
(8.33484 0.00319548 0)
(8.33664 0.00409152 0)
(8.33892 0.00466298 0)
(8.34161 0.00488027 0)
(8.34465 0.00472684 0)
(8.34799 0.00419925 0)
(8.35159 0.00330158 0)
(8.35542 0.00204035 0)
(8.35945 0.000422921 0)
(8.36368 -0.0015437 0)
(8.36808 -0.00385371 0)
(8.37266 -0.0065029 0)
(8.37742 -0.00948883 0)
(8.38236 -0.0128109 0)
(8.38748 -0.0164702 0)
(8.39279 -0.02047 0)
(8.39831 -0.0248149 0)
(8.40404 -0.0295117 0)
(8.41 -0.0345692 0)
(8.41621 -0.039998 0)
(8.42268 -0.0458115 0)
(8.42943 -0.0520256 0)
(8.43649 -0.0586601 0)
(8.44387 -0.0657386 0)
(8.45162 -0.0732905 0)
(8.45975 -0.0813512 0)
(8.4683 -0.0899645 0)
(8.47728 -0.0991834 0)
(8.48674 -0.109072 0)
(8.49668 -0.119708 0)
(8.50711 -0.131172 0)
(8.33305 0.000543694 0)
(8.33358 0.0015649 0)
(8.33473 0.00242184 0)
(8.33641 0.00303033 0)
(8.33854 0.00333881 0)
(8.34105 0.00331668 0)
(8.34391 0.00294534 0)
(8.34705 0.00221728 0)
(8.35045 0.00113198 0)
(8.35406 -0.000308128 0)
(8.35788 -0.0020995 0)
(8.36188 -0.00423851 0)
(8.36605 -0.00672239 0)
(8.37039 -0.00954964 0)
(8.37489 -0.0127203 0)
(8.37956 -0.016236 0)
(8.38441 -0.0201002 0)
(8.38943 -0.024318 0)
(8.39463 -0.0288965 0)
(8.40003 -0.0338445 0)
(8.40564 -0.039173 0)
(8.41146 -0.0448952 0)
(8.41752 -0.0510269 0)
(8.42384 -0.0575869 0)
(8.43042 -0.0645975 0)
(8.43729 -0.0720855 0)
(8.44446 -0.0800824 0)
(8.45196 -0.0886259 0)
(8.45981 -0.0977607 0)
(8.46801 -0.107539 0)
(8.47659 -0.118023 0)
(8.48554 -0.129284 0)
(8.49485 -0.14139 0)
(8.33305 0.000394763 0)
(8.33354 0.0011163 0)
(8.33462 0.00167985 0)
(8.33618 0.00201252 0)
(8.33816 0.00206668 0)
(8.34051 0.0018113 0)
(8.34319 0.00122616 0)
(8.34613 0.000300575 0)
(8.34932 -0.000969789 0)
(8.35272 -0.00258615 0)
(8.35631 -0.00454834 0)
(8.36008 -0.00685587 0)
(8.36401 -0.00950877 0)
(8.36809 -0.0125081 0)
(8.37233 -0.0158562 0)
(8.37672 -0.019557 0)
(8.38127 -0.0236158 0)
(8.38597 -0.0280399 0)
(8.39084 -0.032838 0)
(8.39588 -0.0380211 0)
(8.40111 -0.043602 0)
(8.40652 -0.0495958 0)
(8.41214 -0.0560203 0)
(8.41797 -0.0628962 0)
(8.42403 -0.0702477 0)
(8.43034 -0.0781027 0)
(8.43689 -0.0864938 0)
(8.4437 -0.095459 0)
(8.45079 -0.105042 0)
(8.45815 -0.115292 0)
(8.46579 -0.126265 0)
(8.47369 -0.138026 0)
(8.48184 -0.15063 0)
(8.33304 0.000251068 0)
(8.33351 0.000685622 0)
(8.33451 0.000969664 0)
(8.33596 0.00103826 0)
(8.3378 0.000847311 0)
(8.33999 0.00036584 0)
(8.34248 -0.000427612 0)
(8.34524 -0.00154621 0)
(8.34822 -0.00299743 0)
(8.3514 -0.00478565 0)
(8.35477 -0.0069137 0)
(8.35829 -0.00938393 0)
(8.36197 -0.012199 0)
(8.36579 -0.0153622 0)
(8.36975 -0.0188783 0)
(8.37384 -0.0227529 0)
(8.37807 -0.0269934 0)
(8.38244 -0.0316086 0)
(8.38695 -0.0366092 0)
(8.39161 -0.0420074 0)
(8.39642 -0.0478178 0)
(8.4014 -0.0540568 0)
(8.40654 -0.0607434 0)
(8.41186 -0.0678995 0)
(8.41735 -0.0755498 0)
(8.42304 -0.0837228 0)
(8.42893 -0.0924505 0)
(8.43501 -0.101769 0)
(8.44129 -0.11172 0)
(8.44777 -0.122348 0)
(8.45442 -0.133704 0)
(8.46125 -0.145841 0)
(8.46821 -0.158803 0)
(8.33304 0.000113205 0)
(8.33347 0.000273557 0)
(8.3344 0.000291559 0)
(8.33575 0.000108053 0)
(8.33746 -0.000318048 0)
(8.33949 -0.00101735 0)
(8.3418 -0.00201217 0)
(8.34436 -0.0033176 0)
(8.34714 -0.00494368 0)
(8.3501 -0.00689745 0)
(8.35323 -0.00918443 0)
(8.35651 -0.0118095 0)
(8.35992 -0.0147776 0)
(8.36347 -0.0180943 0)
(8.36713 -0.0217662 0)
(8.37092 -0.0258008 0)
(8.37482 -0.0302071 0)
(8.37883 -0.0349953 0)
(8.38297 -0.0401776 0)
(8.38722 -0.0457673 0)
(8.39159 -0.05178 0)
(8.3961 -0.0582331 0)
(8.40073 -0.0651462 0)
(8.4055 -0.0725413 0)
(8.4104 -0.0804432 0)
(8.41544 -0.0888794 0)
(8.42062 -0.0978805 0)
(8.42594 -0.10748 0)
(8.43138 -0.117715 0)
(8.43693 -0.128626 0)
(8.44259 -0.140254 0)
(8.44831 -0.152645 0)
(8.45408 -0.165832 0)
(8.33304 -1.83933e-05 0)
(8.33344 -0.000119118 0)
(8.33429 -0.000353816 0)
(8.33554 -0.000777257 0)
(8.33712 -0.00142793 0)
(8.33899 -0.00233585 0)
(8.34113 -0.00352386 0)
(8.3435 -0.00500851 0)
(8.34607 -0.00680185 0)
(8.34881 -0.00891323 0)
(8.35171 -0.0113504 0)
(8.35473 -0.0141205 0)
(8.35788 -0.0172306 0)
(8.36114 -0.0206882 0)
(8.3645 -0.0245014 0)
(8.36796 -0.0286795 0)
(8.37151 -0.0332327 0)
(8.37515 -0.0381727 0)
(8.37889 -0.0435124 0)
(8.38272 -0.0492661 0)
(8.38663 -0.05545 0)
(8.39064 -0.0620818 0)
(8.39474 -0.0691811 0)
(8.39893 -0.0767696 0)
(8.40321 -0.0848709 0)
(8.40758 -0.093511 0)
(8.41202 -0.102718 0)
(8.41654 -0.112522 0)
(8.42111 -0.122956 0)
(8.42573 -0.134052 0)
(8.43037 -0.145846 0)
(8.435 -0.158375 0)
(8.43958 -0.171659 0)
(8.33303 -0.000143412 0)
(8.3334 -0.000491745 0)
(8.33419 -0.000965706 0)
(8.33534 -0.00161653 0)
(8.33679 -0.00248043 0)
(8.33851 -0.00358655 0)
(8.34048 -0.004958 0)
(8.34266 -0.00661235 0)
(8.34502 -0.00856329 0)
(8.34754 -0.010822 0)
(8.35019 -0.0133983 0)
(8.35296 -0.0163012 0)
(8.35584 -0.0195395 0)
(8.3588 -0.0231224 0)
(8.36185 -0.0270597 0)
(8.36497 -0.0313618 0)
(8.36816 -0.0360403 0)
(8.37142 -0.0411074 0)
(8.37474 -0.046577 0)
(8.37812 -0.0524638 0)
(8.38156 -0.0587841 0)
(8.38505 -0.0655554 0)
(8.38859 -0.0727968 0)
(8.39218 -0.0805289 0)
(8.39581 -0.0887739 0)
(8.39948 -0.0975553 0)
(8.40317 -0.106898 0)
(8.40688 -0.116828 0)
(8.41057 -0.127374 0)
(8.41425 -0.138561 0)
(8.41787 -0.150418 0)
(8.42141 -0.162971 0)
(8.42483 -0.176235 0)
(8.33303 -0.000261621 0)
(8.33337 -0.000843802 0)
(8.33409 -0.00154342 0)
(8.33514 -0.00240881 0)
(8.33647 -0.00347414 0)
(8.33805 -0.00476759 0)
(8.33985 -0.00631219 0)
(8.34184 -0.00812614 0)
(8.34399 -0.0102243 0)
(8.34629 -0.0126193 0)
(8.3487 -0.0153225 0)
(8.3512 -0.0183445 0)
(8.3538 -0.0216958 0)
(8.35646 -0.0253868 0)
(8.35918 -0.0294287 0)
(8.36196 -0.033833 0)
(8.36478 -0.038612 0)
(8.36763 -0.0437788 0)
(8.37052 -0.0493473 0)
(8.37344 -0.0553327 0)
(8.37638 -0.0617508 0)
(8.37934 -0.0686186 0)
(8.38231 -0.0759543 0)
(8.38529 -0.0837769 0)
(8.38826 -0.0921064 0)
(8.39121 -0.100964 0)
(8.39414 -0.11037 0)
(8.39702 -0.120348 0)
(8.39984 -0.130919 0)
(8.40257 -0.142104 0)
(8.40519 -0.153923 0)
(8.40766 -0.166397 0)
(8.40995 -0.179531 0)
(8.33303 -0.000372748 0)
(8.33334 -0.00117443 0)
(8.33399 -0.00208555 0)
(8.33495 -0.00315175 0)
(8.33615 -0.00440516 0)
(8.33759 -0.0058727 0)
(8.33923 -0.00757707 0)
(8.34103 -0.00953685 0)
(8.34298 -0.0117678 0)
(8.34505 -0.0142839 0)
(8.34721 -0.0170977 0)
(8.34946 -0.0202214 0)
(8.35176 -0.0236667 0)
(8.35412 -0.0274453 0)
(8.35651 -0.0315692 0)
(8.35893 -0.0360508 0)
(8.36137 -0.0409029 0)
(8.36382 -0.046139 0)
(8.36627 -0.0517732 0)
(8.36871 -0.0578202 0)
(8.37114 -0.0642953 0)
(8.37356 -0.0712147 0)
(8.37594 -0.0785949 0)
(8.37829 -0.0864532 0)
(8.38059 -0.0948071 0)
(8.38282 -0.103674 0)
(8.38498 -0.113073 0)
(8.38704 -0.12302 0)
(8.38898 -0.133533 0)
(8.39079 -0.144627 0)
(8.39242 -0.156316 0)
(8.39386 -0.168613 0)
(8.39507 -0.181515 0)
(8.33303 -0.000476563 0)
(8.3333 -0.00148319 0)
(8.3339 -0.00259205 0)
(8.33476 -0.00384658 0)
(8.33585 -0.00527693 0)
(8.33715 -0.00690849 0)
(8.33862 -0.00876303 0)
(8.34024 -0.0108588 0)
(8.34199 -0.0132119 0)
(8.34383 -0.0158369 0)
(8.34575 -0.0187473 0)
(8.34773 -0.0219563 0)
(8.34975 -0.0254766 0)
(8.35179 -0.029321 0)
(8.35385 -0.0335023 0)
(8.35591 -0.0380336 0)
(8.35796 -0.0429282 0)
(8.35998 -0.0481997 0)
(8.36199 -0.0538619 0)
(8.36395 -0.0599292 0)
(8.36586 -0.0664161 0)
(8.36772 -0.0733375 0)
(8.36952 -0.0807084 0)
(8.37123 -0.0885439 0)
(8.37285 -0.0968589 0)
(8.37437 -0.105668 0)
(8.37576 -0.114986 0)
(8.37701 -0.124825 0)
(8.3781 -0.135198 0)
(8.37899 -0.146115 0)
(8.37968 -0.157584 0)
(8.38012 -0.169611 0)
(8.38029 -0.182191 0)
(8.33302 -0.000572649 0)
(8.33327 -0.00176817 0)
(8.3338 -0.00305801 0)
(8.33457 -0.00448295 0)
(8.33555 -0.00607069 0)
(8.33671 -0.00784511 0)
(8.33802 -0.00982748 0)
(8.33947 -0.0120363 0)
(8.34101 -0.0144883 0)
(8.34263 -0.0171988 0)
(8.34431 -0.0201824 0)
(8.34602 -0.023453 0)
(8.34775 -0.0270241 0)
(8.34949 -0.0309091 0)
(8.35121 -0.0351214 0)
(8.3529 -0.039674 0)
(8.35456 -0.0445805 0)
(8.35616 -0.0498541 0)
(8.35771 -0.0555082 0)
(8.35919 -0.0615564 0)
(8.36058 -0.0680121 0)
(8.36189 -0.0748886 0)
(8.36309 -0.0821992 0)
(8.36417 -0.0899567 0)
(8.36512 -0.0981733 0)
(8.36592 -0.106861 0)
(8.36656 -0.116029 0)
(8.36701 -0.125688 0)
(8.36726 -0.135846 0)
(8.36729 -0.146507 0)
(8.36706 -0.157676 0)
(8.36654 -0.169354 0)
(8.36573 -0.181529 0)
(8.33302 -0.000661033 0)
(8.33324 -0.00203186 0)
(8.33371 -0.00349371 0)
(8.3344 -0.00508581 0)
(8.33527 -0.00683244 0)
(8.33629 -0.00875366 0)
(8.33745 -0.0108676 0)
(8.33872 -0.0131905 0)
(8.34007 -0.0157383 0)
(8.34147 -0.0185263 0)
(8.34291 -0.0215695 0)
(8.34436 -0.024883 0)
(8.3458 -0.0284812 0)
(8.34722 -0.0323785 0)
(8.3486 -0.0365889 0)
(8.34992 -0.0411263 0)
(8.35118 -0.0460042 0)
(8.35237 -0.051236 0)
(8.35346 -0.0568346 0)
(8.35445 -0.0628129 0)
(8.35533 -0.0691831 0)
(8.35608 -0.0759572 0)
(8.35669 -0.0831466 0)
(8.35714 -0.0907618 0)
(8.35743 -0.0988126 0)
(8.35754 -0.107308 0)
(8.35744 -0.116254 0)
(8.35712 -0.125658 0)
(8.35657 -0.135522 0)
(8.35575 -0.14585 0)
(8.35464 -0.156639 0)
(8.35323 -0.167888 0)
(8.3515 -0.179582 0)
(8.33302 -0.000739678 0)
(8.33321 -0.00226038 0)
(8.33361 -0.00385974 0)
(8.3342 -0.00557441 0)
(8.33496 -0.00742759 0)
(8.33585 -0.00944027 0)
(8.33686 -0.0116321 0)
(8.33797 -0.0140204 0)
(8.33913 -0.0166215 0)
(8.34032 -0.0194507 0)
(8.34153 -0.0225232 0)
(8.34272 -0.0258533 0)
(8.34388 -0.0294554 0)
(8.345 -0.0333434 0)
(8.34604 -0.0375309 0)
(8.34701 -0.0420312 0)
(8.34788 -0.0468571 0)
(8.34864 -0.0520214 0)
(8.34929 -0.0575359 0)
(8.3498 -0.0634123 0)
(8.35016 -0.0696616 0)
(8.35036 -0.0762941 0)
(8.35039 -0.0833191 0)
(8.35024 -0.0907451 0)
(8.34988 -0.0985794 0)
(8.34931 -0.106828 0)
(8.3485 -0.115495 0)
(8.34744 -0.124583 0)
(8.34611 -0.134094 0)
(8.34449 -0.144024 0)
(8.34256 -0.154371 0)
(8.3403 -0.165128 0)
(8.3377 -0.17628 0)
(8.33302 -0.00081331 0)
(8.33319 -0.00249313 0)
(8.33354 -0.00426966 0)
(8.33406 -0.00617222 0)
(8.33472 -0.00820823 0)
(8.3355 -0.0103844 0)
(8.33637 -0.0127113 0)
(8.3373 -0.015202 0)
(8.33827 -0.0178723 0)
(8.33925 -0.0207392 0)
(8.34022 -0.0238202 0)
(8.34115 -0.0271325 0)
(8.34203 -0.0306931 0)
(8.34283 -0.0345179 0)
(8.34354 -0.0386222 0)
(8.34415 -0.0430204 0)
(8.34463 -0.047726 0)
(8.34498 -0.0527516 0)
(8.34518 -0.058109 0)
(8.34521 -0.063809 0)
(8.34507 -0.0698615 0)
(8.34474 -0.0762755 0)
(8.34421 -0.0830584 0)
(8.34346 -0.0902169 0)
(8.34248 -0.0977559 0)
(8.34125 -0.105679 0)
(8.33976 -0.113988 0)
(8.33799 -0.122682 0)
(8.33593 -0.13176 0)
(8.33356 -0.141218 0)
(8.33086 -0.151048 0)
(8.32781 -0.161242 0)
(8.3244 -0.171783 0)
(8.33301 -0.000860041 0)
(8.33311 -0.00258989 0)
(8.33336 -0.00437478 0)
(8.33376 -0.00626144 0)
(8.33431 -0.0082757 0)
(8.33498 -0.0104372 0)
(8.33573 -0.0127605 0)
(8.33653 -0.0152566 0)
(8.33735 -0.0179365 0)
(8.33816 -0.020812 0)
(8.33894 -0.0238954 0)
(8.33964 -0.0272 0)
(8.34027 -0.0307391 0)
(8.34079 -0.034526 0)
(8.34119 -0.0385738 0)
(8.34145 -0.0428953 0)
(8.34156 -0.0475024 0)
(8.34151 -0.0524067 0)
(8.34128 -0.0576187 0)
(8.34085 -0.063148 0)
(8.34022 -0.0690031 0)
(8.33937 -0.0751917 0)
(8.33829 -0.0817198 0)
(8.33697 -0.0885923 0)
(8.33538 -0.0958124 0)
(8.33353 -0.103382 0)
(8.33139 -0.1113 0)
(8.32895 -0.119566 0)
(8.32619 -0.128175 0)
(8.32311 -0.137121 0)
(8.31969 -0.146396 0)
(8.3159 -0.155989 0)
(8.31176 -0.165884 0)
(8.33303 -0.000954489 0)
(8.33319 -0.0029775 0)
(8.33346 -0.00515074 0)
(8.33381 -0.00744028 0)
(8.33426 -0.00980093 0)
(8.33479 -0.0122192 0)
(8.33537 -0.0147038 0)
(8.33598 -0.017274 0)
(8.33659 -0.0199541 0)
(8.33717 -0.0227694 0)
(8.3377 -0.0257447 0)
(8.33815 -0.0289027 0)
(8.3385 -0.0322645 0)
(8.33872 -0.0358488 0)
(8.33881 -0.0396726 0)
(8.33873 -0.0437507 0)
(8.33848 -0.0480965 0)
(8.33803 -0.0527217 0)
(8.33739 -0.0576366 0)
(8.33652 -0.0628499 0)
(8.33543 -0.068369 0)
(8.33409 -0.0741998 0)
(8.33249 -0.0803469 0)
(8.33063 -0.0868131 0)
(8.32848 -0.0935997 0)
(8.32604 -0.100706 0)
(8.32329 -0.108131 0)
(8.32023 -0.115869 0)
(8.31683 -0.123916 0)
(8.3131 -0.132262 0)
(8.30901 -0.140899 0)
(8.30456 -0.149815 0)
(8.29974 -0.158991 0)
(8.33294 -0.000815086 0)
(8.3328 -0.00234942 0)
(8.3328 -0.00396337 0)
(8.33302 -0.00577877 0)
(8.33344 -0.00781883 0)
(8.33398 -0.0100694 0)
(8.33458 -0.0125047 0)
(8.33518 -0.015105 0)
(8.33576 -0.0178612 0)
(8.33626 -0.0207726 0)
(8.33667 -0.0238442 0)
(8.33695 -0.0270848 0)
(8.33709 -0.0305059 0)
(8.33706 -0.0341198 0)
(8.33686 -0.0379395 0)
(8.33647 -0.0419775 0)
(8.33587 -0.0462456 0)
(8.33505 -0.050755 0)
(8.334 -0.0555155 0)
(8.3327 -0.0605358 0)
(8.33115 -0.065823 0)
(8.32933 -0.071383 0)
(8.32722 -0.07722 0)
(8.32483 -0.0833368 0)
(8.32214 -0.0897341 0)
(8.31913 -0.0964113 0)
(8.31581 -0.103366 0)
(8.31215 -0.110593 0)
(8.30815 -0.118087 0)
(8.3038 -0.12584 0)
(8.2991 -0.133841 0)
(8.29402 -0.142079 0)
(8.28859 -0.150538 0)
(8.33314 -0.00131982 0)
(8.33349 -0.00424465 0)
(8.33364 -0.00732679 0)
(8.33372 -0.0102872 0)
(8.33384 -0.0130315 0)
(8.33403 -0.0155979 0)
(8.33428 -0.0180538 0)
(8.33457 -0.0204662 0)
(8.33485 -0.0228945 0)
(8.33507 -0.0253881 0)
(8.33522 -0.0279876 0)
(8.33524 -0.0307264 0)
(8.33513 -0.0336312 0)
(8.33484 -0.0367235 0)
(8.33437 -0.0400209 0)
(8.33368 -0.0435378 0)
(8.33277 -0.047286 0)
(8.33163 -0.0512749 0)
(8.33022 -0.0555124 0)
(8.32855 -0.0600044 0)
(8.3266 -0.0647554 0)
(8.32437 -0.0697682 0)
(8.32183 -0.0750442 0)
(8.31898 -0.0805835 0)
(8.31581 -0.0863843 0)
(8.31231 -0.0924435 0)
(8.30848 -0.0987563 0)
(8.3043 -0.105316 0)
(8.29977 -0.112116 0)
(8.29489 -0.119145 0)
(8.28964 -0.126394 0)
(8.28403 -0.133849 0)
(8.27806 -0.141493 0)
(8.33269 3.72958e-05 0)
(8.33178 0.000229551 0)
(8.3314 -0.000292585 0)
(8.33165 -0.00171099 0)
(8.33223 -0.00383666 0)
(8.33291 -0.00640376 0)
(8.33356 -0.00921909 0)
(8.33413 -0.0121806 0)
(8.33457 -0.0152372 0)
(8.33485 -0.018365 0)
(8.33496 -0.0215592 0)
(8.33486 -0.0248264 0)
(8.33456 -0.0281795 0)
(8.33404 -0.0316343 0)
(8.33329 -0.0352072 0)
(8.33229 -0.0389146 0)
(8.33103 -0.0427717 0)
(8.3295 -0.0467922 0)
(8.3277 -0.0509881 0)
(8.32561 -0.0553696 0)
(8.32323 -0.059945 0)
(8.32053 -0.0647208 0)
(8.31753 -0.0697017 0)
(8.3142 -0.0748904 0)
(8.31054 -0.0802878 0)
(8.30654 -0.0858931 0)
(8.3022 -0.0917037 0)
(8.29752 -0.0977151 0)
(8.29248 -0.103921 0)
(8.28709 -0.110315 0)
(8.28135 -0.116886 0)
(8.27524 -0.123626 0)
(8.26878 -0.130518 0)
(8.33349 -0.00246833 0)
(8.33416 -0.00851392 0)
(8.33359 -0.0141279 0)
(8.3327 -0.0181882 0)
(8.33206 -0.0210861 0)
(8.33176 -0.0232914 0)
(8.3317 -0.0251055 0)
(8.33175 -0.0267293 0)
(8.33183 -0.0282986 0)
(8.33186 -0.0299067 0)
(8.33178 -0.0316172 0)
(8.33155 -0.0334718 0)
(8.33114 -0.0354981 0)
(8.3305 -0.0377145 0)
(8.32963 -0.0401332 0)
(8.3285 -0.0427624 0)
(8.3271 -0.0456076 0)
(8.32541 -0.0486721 0)
(8.32343 -0.051958 0)
(8.32113 -0.0554659 0)
(8.31852 -0.0591955 0)
(8.31558 -0.0631457 0)
(8.3123 -0.0673139 0)
(8.30869 -0.071697 0)
(8.30474 -0.0762905 0)
(8.30043 -0.0810891 0)
(8.29578 -0.0860861 0)
(8.29076 -0.091274 0)
(8.2854 -0.096644 0)
(8.27967 -0.102186 0)
(8.27359 -0.10789 0)
(8.26715 -0.113743 0)
(8.26036 -0.119731 0)
(8.33164 0.00332587 0)
(8.32847 0.00918511 0)
(8.32844 0.0116275 0)
(8.33012 0.0105919 0)
(8.33169 0.0074335 0)
(8.33288 0.0035401 0)
(8.33373 -0.000547982 0)
(8.33428 -0.00463463 0)
(8.33454 -0.00861645 0)
(8.33453 -0.0124533 0)
(8.33426 -0.0161481 0)
(8.33374 -0.019724 0)
(8.33297 -0.0232114 0)
(8.33195 -0.0266432 0)
(8.33068 -0.030051 0)
(8.32914 -0.0334643 0)
(8.32734 -0.0369092 0)
(8.32525 -0.0404086 0)
(8.32288 -0.043982 0)
(8.32021 -0.0476459 0)
(8.31724 -0.0514136 0)
(8.31395 -0.0552962 0)
(8.31035 -0.0593017 0)
(8.30642 -0.0634364 0)
(8.30217 -0.067704 0)
(8.29758 -0.0721063 0)
(8.29265 -0.0766436 0)
(8.28739 -0.081314 0)
(8.28179 -0.0861142 0)
(8.27586 -0.0910395 0)
(8.26959 -0.0960836 0)
(8.26299 -0.101239 0)
(8.25607 -0.106496 0)
(8.33425 -0.00681819 0)
(8.33421 -0.0218672 0)
(8.32977 -0.0321283 0)
(8.32529 -0.0369146 0)
(8.32296 -0.0384745 0)
(8.3224 -0.0387452 0)
(8.32257 -0.0384754 0)
(8.32303 -0.0380281 0)
(8.3236 -0.0376423 0)
(8.32417 -0.0374474 0)
(8.32462 -0.037502 0)
(8.32489 -0.0378298 0)
(8.32495 -0.0384365 0)
(8.32477 -0.0393175 0)
(8.32431 -0.0404636 0)
(8.32357 -0.0418636 0)
(8.32253 -0.0435061 0)
(8.32119 -0.04538 0)
(8.31952 -0.0474752 0)
(8.31753 -0.0497821 0)
(8.31521 -0.0522922 0)
(8.31255 -0.0549971 0)
(8.30955 -0.057889 0)
(8.3062 -0.0609603 0)
(8.30251 -0.0642031 0)
(8.29848 -0.0676097 0)
(8.29411 -0.0711718 0)
(8.28939 -0.074881 0)
(8.28433 -0.0787282 0)
(8.27894 -0.0827041 0)
(8.27323 -0.0867988 0)
(8.26719 -0.0910023 0)
(8.26084 -0.0953014 0)
(8.32885 0.0224157 0)
(8.32227 0.0422334 0)
(8.3264 0.0432587 0)
(8.33249 0.036962 0)
(8.33594 0.0292599 0)
(8.33759 0.0215632 0)
(8.33874 0.0142532 0)
(8.33969 0.00755822 0)
(8.34051 0.00153745 0)
(8.34126 -0.00385791 0)
(8.34195 -0.00870824 0)
(8.34257 -0.013098 0)
(8.34309 -0.0171087 0)
(8.34349 -0.0208153 0)
(8.34375 -0.0242836 0)
(8.34382 -0.0275705 0)
(8.3437 -0.0307246 0)
(8.34337 -0.0337869 0)
(8.34279 -0.0367923 0)
(8.34198 -0.0397699 0)
(8.3409 -0.0427441 0)
(8.33956 -0.0457352 0)
(8.33794 -0.0487598 0)
(8.33605 -0.0518316 0)
(8.33389 -0.0549613 0)
(8.33144 -0.0581572 0)
(8.32872 -0.0614257 0)
(8.32573 -0.0647709 0)
(8.32247 -0.0681955 0)
(8.31895 -0.0717004 0)
(8.31518 -0.0752854 0)
(8.31115 -0.078949 0)
(8.3069 -0.0826879 0)
(8.32433 -0.0382377 0)
(8.2937 -0.0689836 0)
(8.27142 -0.0729715 0)
(8.26593 -0.0706012 0)
(8.27307 -0.0669979 0)
(8.28579 -0.0627624 0)
(8.30054 -0.0586296 0)
(8.31579 -0.0550333 0)
(8.3307 -0.0520536 0)
(8.34481 -0.049677 0)
(8.35791 -0.047869 0)
(8.36996 -0.0465779 0)
(8.38096 -0.045747 0)
(8.39094 -0.0453238 0)
(8.39996 -0.0452617 0)
(8.40809 -0.045521 0)
(8.41537 -0.046068 0)
(8.42188 -0.0468743 0)
(8.42764 -0.0479167 0)
(8.43272 -0.0491755 0)
(8.43715 -0.0506343 0)
(8.44096 -0.0522791 0)
(8.44419 -0.0540978 0)
(8.44685 -0.0560796 0)
(8.44897 -0.0582149 0)
(8.45057 -0.0604946 0)
(8.45165 -0.0629099 0)
(8.45224 -0.0654521 0)
(8.45233 -0.0681126 0)
(8.45194 -0.0708823 0)
(8.45107 -0.0737527 0)
(8.44971 -0.0767125 0)