/*--------------------------------*- C++ -*----------------------------------*\
| =========                 |                                                 |
| \\      /  F ield         | OpenFOAM: The Open Source CFD Toolbox           |
|  \\    /   O peration     | Version:  2.1.1                                 |
|   \\  /    A nd           | Web:      www.OpenFOAM.org                      |
|    \\/     M anipulation  |                                                 |
\*---------------------------------------------------------------------------*/
FoamFile
{
    version     2.0;
    format      ascii;
    class       volScalarField;
    location    "0.195";
    object      epsilon;
}
// * * * * * * * * * * * * * * * * * * * * * * * * * * * * * * * * * * * * * //

dimensions      [0 2 -3 0 0 0 0];

internalField   nonuniform List<scalar> 
6820
(
151.448
203.151
260.735
321.761
383.628
443.723
499.761
550.032
593.479
629.66
658.644
680.87
697.013
707.869
714.266
717
716.8
714.308
710.074
704.556
698.132
691.105
683.714
676.147
668.548
661.025
653.652
646.501
639.524
633.129
625.427
625.469
589.839
11.7448
21.4175
29.9444
38.6258
47.5826
56.5613
65.3248
73.6718
81.4404
88.5219
94.8615
100.452
105.324
109.534
113.153
116.258
118.928
121.236
123.245
125.016
126.595
128.026
129.341
130.571
131.739
132.865
133.971
135.08
136.216
137.452
138.802
140.757
142.917
5.83781
7.51676
9.20651
10.8091
12.3195
13.747
15.088
16.3387
17.4976
18.5646
19.5412
20.4313
21.2401
21.9741
22.6404
23.2469
23.8011
24.3103
24.7816
25.2213
25.6351
26.028
26.4046
26.7685
27.1231
27.4712
27.8151
28.1572
28.4991
28.8437
29.1937
29.5451
29.9506
5.2423
5.56004
6.00442
6.49343
6.98562
7.46178
7.91281
8.3344
8.7249
9.08412
9.41284
9.7124
9.98449
10.231
10.454
10.6555
10.8375
11.0019
11.1507
11.2854
11.4079
11.5195
11.6217
11.7157
11.8026
11.8835
11.9591
12.0301
12.097
12.1602
12.2192
12.2743
12.3233
5.17349
5.18677
5.26821
5.39775
5.55636
5.72966
5.90776
6.08424
6.25507
6.41781
6.57107
6.71417
6.84685
6.96918
7.08144
7.18404
7.27747
7.36229
7.43907
7.50842
7.57091
7.62711
7.67758
7.72285
7.76342
7.79974
7.83225
7.86134
7.88737
7.91063
7.93139
7.94985
7.96611
5.16878
5.12131
5.09603
5.09482
5.11536
5.15307
5.20299
5.26075
5.32293
5.38694
5.45091
5.51351
5.57384
5.63127
5.68542
5.73607
5.7831
5.82653
5.8664
5.90282
5.93593
5.96589
5.99288
6.01708
6.03868
6.05788
6.07486
6.08981
6.1029
6.1143
6.12419
6.13268
6.13995
5.16887
5.11169
5.06115
5.01963
4.9884
4.96754
4.95615
4.95279
4.95587
4.96386
4.97544
4.98947
5.00505
5.02146
5.03814
5.05466
5.07069
5.08599
5.10041
5.11382
5.12616
5.13738
5.14748
5.15646
5.16437
5.17122
5.17707
5.18198
5.18601
5.18921
5.19167
5.19341
5.19453
5.16902
5.11063
5.05514
5.00339
4.95619
4.91413
4.87746
4.8461
4.81971
4.7978
4.77978
4.76509
4.75315
4.74347
4.7356
4.72915
4.7238
4.71927
4.71534
4.71183
4.70858
4.70547
4.70242
4.69935
4.69621
4.69295
4.68956
4.686
4.68229
4.6784
4.67436
4.67015
4.6658
5.16904
5.11054
5.05431
5.00049
4.94927
4.9009
4.85558
4.81344
4.77454
4.73879
4.70608
4.6762
4.64893
4.62401
4.60122
4.5803
4.56103
4.54321
4.52666
4.5112
4.4967
4.48303
4.47007
4.45774
4.44594
4.43462
4.42371
4.41317
4.40295
4.39301
4.38334
4.37391
4.36469
5.16904
5.11054
5.0542
5.00002
4.94795
4.89803
4.85026
4.8047
4.76136
4.72025
4.68136
4.64462
4.60997
4.57731
4.54653
4.51753
4.49018
4.46435
4.43994
4.41683
4.39491
4.37409
4.35427
4.33537
4.31732
4.30004
4.28348
4.26758
4.25229
4.23756
4.22337
4.20966
4.19641
5.16904
5.11053
5.05418
4.99994
4.94772
4.89747
4.84912
4.80263
4.75798
4.71512
4.67402
4.63466
4.59699
4.56097
4.52654
4.49363
4.4622
4.43217
4.40346
4.37602
4.34978
4.32466
4.3006
4.27755
4.25543
4.23421
4.21382
4.19421
4.17535
4.15719
4.1397
4.12282
4.10654
5.16904
5.11053
5.05417
4.99991
4.94767
4.89735
4.84887
4.80217
4.75717
4.71382
4.67206
4.63185
4.59313
4.55585
4.51998
4.48547
4.45226
4.42032
4.38958
4.36002
4.33157
4.3042
4.27785
4.25248
4.22804
4.2045
4.18182
4.15994
4.13885
4.1185
4.09885
4.07989
4.06156
5.16904
5.11052
5.05416
4.99989
4.94764
4.8973
4.8488
4.80205
4.75697
4.7135
4.67156
4.6311
4.59205
4.55438
4.51802
4.48292
4.44905
4.41636
4.38479
4.35432
4.3249
4.2965
4.26906
4.24257
4.21697
4.19224
4.16834
4.14525
4.12292
4.10133
4.08045
4.06026
4.04071
5.16904
5.11052
5.05415
4.99988
4.94762
4.89727
4.84876
4.80199
4.75689
4.71338
4.6714
4.63087
4.59174
4.55394
4.51743
4.48216
4.44806
4.41511
4.38324
4.35243
4.32264
4.29382
4.26594
4.23896
4.21285
4.18759
4.16313
4.13945
4.11653
4.09432
4.07282
4.05198
4.0318
5.16903
5.11051
5.05414
4.99987
4.9476
4.89725
4.84873
4.80195
4.75684
4.71332
4.67131
4.63076
4.59161
4.55378
4.51722
4.48189
4.44772
4.41468
4.38272
4.3518
4.32187
4.2929
4.26485
4.23769
4.21139
4.18591
4.16122
4.1373
4.11411
4.09163
4.06984
4.04872
4.02822
5.16903
5.11051
5.05414
4.99986
4.94758
4.89723
4.8487
4.80191
4.75679
4.71326
4.67125
4.63069
4.59152
4.55367
4.5171
4.48175
4.44756
4.41449
4.3825
4.35153
4.32156
4.29254
4.26444
4.23721
4.21083
4.18527
4.16049
4.13647
4.11319
4.0906
4.06869
4.04744
4.02682
5.16903
5.1105
5.05413
4.99985
4.94757
4.89721
4.84867
4.80188
4.75675
4.71321
4.67119
4.63062
4.59144
4.55359
4.51701
4.48164
4.44744
4.41436
4.38235
4.35137
4.32138
4.29234
4.26421
4.23696
4.21056
4.18496
4.16015
4.1361
4.11277
4.09014
4.06818
4.04688
4.0262
5.16903
5.1105
5.05412
4.99984
4.94756
4.89719
4.84865
4.80185
4.75672
4.71317
4.67114
4.63056
4.59137
4.55351
4.51692
4.48155
4.44734
4.41425
4.38223
4.35124
4.32124
4.29219
4.26405
4.23679
4.21037
4.18476
4.15993
4.13586
4.11251
4.08986
4.06788
4.04655
4.02585
5.16903
5.1105
5.05412
4.99983
4.94755
4.89718
4.84863
4.80182
4.75668
4.71313
4.6711
4.63051
4.59131
4.55344
4.51684
4.48146
4.44725
4.41415
4.38212
4.35112
4.32111
4.29205
4.2639
4.23663
4.2102
4.18458
4.15975
4.13566
4.1123
4.08964
4.06765
4.0463
4.02558
5.16903
5.1105
5.05412
4.99983
4.94754
4.89716
4.84861
4.8018
4.75666
4.7131
4.67105
4.63046
4.59126
4.55338
4.51677
4.48138
4.44716
4.41405
4.38202
4.35101
4.321
4.29193
4.26377
4.23649
4.21005
4.18442
4.15958
4.13548
4.11211
4.08944
4.06743
4.04608
4.02535
5.16903
5.1105
5.05411
4.99982
4.94753
4.89715
4.8486
4.80178
4.75663
4.71307
4.67102
4.63042
4.59121
4.55333
4.51671
4.48131
4.44708
4.41397
4.38193
4.35091
4.32089
4.29181
4.26365
4.23636
4.20991
4.18427
4.15942
4.13531
4.11193
4.08925
4.06724
4.04587
4.02513
5.16903
5.11049
5.05411
4.99981
4.94752
4.89714
4.84858
4.80176
4.75661
4.71304
4.67099
4.63038
4.59117
4.55327
4.51665
4.48125
4.44701
4.41389
4.38184
4.35082
4.32079
4.2917
4.26353
4.23623
4.20978
4.18413
4.15927
4.13516
4.11177
4.08907
4.06705
4.04568
4.02493
5.16903
5.11049
5.05411
4.99981
4.94752
4.89713
4.84857
4.80175
4.75659
4.71301
4.67096
4.63035
4.59113
4.55323
4.5166
4.48119
4.44695
4.41382
4.38176
4.35074
4.3207
4.29161
4.26342
4.23612
4.20966
4.184
4.15913
4.13501
4.11161
4.08891
4.06688
4.0455
4.02474
5.16903
5.11049
5.05411
4.99981
4.94751
4.89712
4.84856
4.80174
4.75657
4.71299
4.67093
4.63032
4.59109
4.55319
4.51656
4.48114
4.44689
4.41376
4.38169
4.35066
4.32061
4.29152
4.26333
4.23602
4.20955
4.18389
4.15901
4.13488
4.11147
4.08876
4.06672
4.04533
4.02456
5.16903
5.11049
5.0541
4.9998
4.94751
4.89712
4.84855
4.80172
4.75656
4.71297
4.67091
4.63029
4.59106
4.55315
4.51652
4.48109
4.44684
4.4137
4.38163
4.35059
4.32054
4.29143
4.26324
4.23592
4.20944
4.18378
4.15889
4.13475
4.11134
4.08862
4.06657
4.04517
4.02439
5.16903
5.11049
5.0541
4.9998
4.9475
4.89711
4.84854
4.80171
4.75654
4.71296
4.67089
4.63027
4.59103
4.55312
4.51648
4.48106
4.44679
4.41365
4.38158
4.35053
4.32047
4.29136
4.26316
4.23583
4.20935
4.18368
4.15878
4.13464
4.11122
4.08849
4.06643
4.04503
4.02424
5.16903
5.11049
5.0541
4.9998
4.9475
4.89711
4.84854
4.8017
4.75653
4.71294
4.67087
4.63025
4.59101
4.55309
4.51645
4.48102
4.44675
4.4136
4.38152
4.35047
4.32041
4.29129
4.26309
4.23575
4.20927
4.18358
4.15868
4.13453
4.1111
4.08837
4.06631
4.04489
4.0241
5.16903
5.11049
5.0541
4.9998
4.9475
4.89711
4.84853
4.8017
4.75653
4.71294
4.67086
4.63024
4.59099
4.55308
4.51643
4.48099
4.44672
4.41357
4.38149
4.35043
4.32036
4.29124
4.26303
4.23569
4.2092
4.18351
4.1586
4.13445
4.11101
4.08827
4.0662
4.04478
4.02398
5.16903
5.11049
5.0541
4.9998
4.9475
4.8971
4.84853
4.80169
4.75651
4.71292
4.67084
4.63022
4.59097
4.55305
4.5164
4.48096
4.44669
4.41353
4.38145
4.35039
4.32031
4.29119
4.26297
4.23563
4.20913
4.18344
4.15853
4.13436
4.11092
4.08818
4.0661
4.04468
4.02387
5.16903
5.11049
5.0541
4.9998
4.9475
4.89711
4.84854
4.8017
4.75653
4.71294
4.67086
4.63023
4.59099
4.55307
4.51641
4.48097
4.4467
4.41354
4.38145
4.35038
4.3203
4.29117
4.26295
4.23561
4.2091
4.18341
4.15849
4.13432
4.11088
4.08812
4.06604
4.04461
4.0238
5.16903
5.11049
5.0541
4.9998
4.9475
4.8971
4.84853
4.80169
4.75651
4.71292
4.67084
4.63021
4.59096
4.55304
4.51639
4.48095
4.44667
4.41351
4.38142
4.35036
4.32028
4.29115
4.26293
4.23559
4.20908
4.18338
4.15847
4.1343
4.11085
4.0881
4.06602
4.04459
4.02378
5.16903
5.11049
5.0541
4.99981
4.94752
4.89714
4.84859
4.80176
4.7566
4.71302
4.67094
4.63032
4.59107
4.55315
4.5165
4.48106
4.44678
4.41362
4.38154
4.35047
4.3204
4.29127
4.26306
4.23572
4.20922
4.18353
4.15862
4.13446
4.11103
4.08829
4.06623
4.04481
4.02402
5.16903
5.11051
5.05414
4.99985
4.94756
4.89718
4.84861
4.80178
4.75661
4.71303
4.67096
4.63035
4.59111
4.55321
4.51658
4.48117
4.44692
4.4138
4.38175
4.35073
4.3207
4.29163
4.26347
4.23619
4.20976
4.18414
4.15931
4.13524
4.11189
4.08924
4.06727
4.04596
4.02526
5.16903
5.1105
5.05415
4.99992
4.9477
4.89739
4.8489
4.80215
4.75704
4.71353
4.67153
4.63099
4.59184
4.55403
4.51751
4.48223
4.44813
4.41518
4.38332
4.35251
4.32271
4.29389
4.266
4.23901
4.21289
4.1876
4.16311
4.13939
4.11641
4.09415
4.07257
4.05166
4.03138
5.16905
5.11063
5.0544
5.00025
4.94809
4.89785
4.84947
4.80288
4.75802
4.71483
4.67324
4.6332
4.59464
4.55752
4.52176
4.48733
4.45416
4.4222
4.39141
4.36174
4.33313
4.30555
4.27895
4.25329
4.22853
4.20463
4.18155
4.15927
4.13774
4.11693
4.09682
4.07738
4.05857
5.16908
5.11079
5.05488
5.00137
4.95017
4.90121
4.85442
4.80974
4.76713
4.72652
4.68785
4.65104
4.61601
4.58268
4.55095
4.52074
4.49197
4.46455
4.43841
4.41347
4.38966
4.36691
4.34515
4.32433
4.30439
4.28527
4.26693
4.24933
4.23241
4.21615
4.20049
4.18542
4.17089
5.16939
5.11358
5.06201
5.01464
4.9715
4.93251
4.89751
4.86622
4.83833
4.81351
4.79144
4.77182
4.75436
4.7388
4.72491
4.71248
4.70133
4.69128
4.6822
4.67396
4.66645
4.65956
4.65321
4.64734
4.64187
4.63674
4.63191
4.62734
4.62299
4.61882
4.61482
4.61095
4.60719
5.17809
5.16328
5.16953
5.19126
5.22448
5.26618
5.31397
5.36596
5.42073
5.47718
5.53449
5.59198
5.64917
5.70567
5.76117
5.81547
5.86839
5.91983
5.96971
6.01798
6.06461
6.10961
6.15298
6.19473
6.23491
6.27353
6.31065
6.3463
6.38053
6.41339
6.44493
6.47519
6.50425
5.63861
6.43043
7.14585
7.82549
8.49434
9.14642
9.77583
10.3802
10.9594
11.5143
12.0463
12.5569
13.0476
13.5198
13.9748
14.4138
14.8375
15.2471
15.6431
16.0262
16.3972
16.7564
17.1044
17.4418
17.7687
18.0858
18.3933
18.6917
18.9811
19.262
19.5347
19.7994
20.0566
44.7794
48.3124
51.8864
55.4656
59.0311
62.5709
66.0744
69.532
72.9348
76.275
79.5459
82.7417
85.8573
88.8889
91.8333
94.6881
97.4516
100.123
102.701
105.187
107.581
109.883
112.095
114.219
116.255
118.207
120.076
121.864
123.574
125.208
126.769
128.259
129.682
704.306
838.64
943.709
1021.73
1078.89
1116.99
1135.3
1133.66
1113.7
1079.06
1034.48
984.803
934.054
885.022
839.252
797.291
759.047
724.113
692.009
662.316
634.725
609.025
585.076
562.769
541.997
522.643
504.578
487.659
471.745
456.695
442.382
428.686
415.503
402.737
390.301
378.116
366.11
354.215
342.371
330.524
318.627
306.641
294.537
282.292
269.898
257.355
244.675
231.884
219.018
206.127
193.269
180.51
167.925
155.589
143.578
131.966
120.822
110.207
100.175
90.7678
82.0186
73.947
66.5609
59.8561
53.8169
48.4175
43.6233
39.3937
35.6835
32.4456
29.6324
27.1979
25.0982
23.293
21.7455
20.4231
19.2967
18.3411
17.5347
16.8587
16.2971
15.8365
15.4654
15.1741
14.9545
14.7995
14.7032
14.66
14.6654
14.7145
14.8029
14.9257
15.0779
15.2537
15.4467
15.6494
15.8542
16.0515
16.2249
16.435
148.172
155.699
166.32
181.274
201.296
226.859
258.051
294.278
334.138
375.565
416.106
453.276
484.921
509.518
526.341
535.472
537.657
534.083
526.119
515.104
502.192
488.279
473.992
459.72
445.678
431.957
418.583
405.545
392.821
380.386
368.215
356.284
344.564
333.025
321.634
310.354
299.148
287.981
276.819
265.636
254.408
243.121
231.765
220.34
208.855
197.328
185.785
174.264
162.811
151.48
140.332
129.434
118.853
108.653
98.8981
89.6421
80.9315
72.8028
65.2814
58.3814
52.1059
46.447
41.3868
36.8983
32.9473
29.4937
26.4939
23.9027
21.6753
19.7682
18.141
16.7568
15.5828
14.5899
13.7531
13.051
12.4653
11.9809
11.5849
11.2667
11.0176
10.8305
10.6995
10.6197
10.5874
10.5993
10.6528
10.7456
10.8754
11.0403
11.2378
11.4652
11.719
11.9952
12.2886
12.5929
12.9003
13.2054
13.4757
13.8514
30.334
30.7638
31.4033
32.4433
34.0518
36.4123
39.6094
43.8332
49.3928
56.6087
65.7558
77.0178
90.44
105.89
123.04
141.375
160.237
178.881
196.56
212.606
226.492
237.88
246.63
252.78
256.512
258.097
257.846
256.075
253.07
249.076
244.289
238.863
232.912
226.518
219.745
212.64
205.239
197.572
189.666
181.547
173.239
164.77
156.169
147.467
138.702
129.913
121.146
112.451
103.884
95.5006
87.3608
79.5223
72.0396
64.9611
58.3273
52.1683
46.5041
41.3432
36.6841
32.5157
28.8186
25.5664
22.7276
20.2673
18.1481
16.3326
14.7842
13.4683
12.3531
11.4102
10.6147
9.945
9.3827
8.91237
8.52114
8.19834
7.93525
7.72475
7.56111
7.43977
7.35713
7.31044
7.29764
7.31725
7.36828
7.45012
7.56244
7.70509
7.87794
8.08079
8.31314
8.57405
8.86187
9.1741
9.50705
9.85595
10.2134
10.5773
10.9031
11.3904
12.3744
12.4405
12.5227
12.6266
12.7656
12.9607
13.2352
13.6201
14.1307
14.7967
15.6666
16.7996
18.2636
20.134
22.4907
25.4129
28.9711
33.216
38.1657
43.7951
50.0286
56.7388
63.7525
70.863
77.8468
84.4826
90.569
95.9389
100.469
104.082
106.747
108.47
109.287
109.256
108.446
106.93
104.785
102.082
98.89
95.275
91.2984
87.0193
82.4952
77.7824
72.9367
68.0134
63.0675
58.1535
53.3244
48.6312
44.1209
39.8355
35.81
32.0713
28.6372
25.5164
22.7089
20.207
17.9968
16.0596
14.3734
12.9148
11.6594
10.5836
9.66478
8.88193
8.21615
7.65067
7.17089
6.76427
6.42019
6.12974
5.88553
5.68146
5.51255
5.37478
5.26494
5.18052
5.11959
5.08077
5.06312
5.06611
5.08955
5.13361
5.19873
5.28561
5.39515
5.52841
5.68654
5.87062
6.08159
6.32005
6.58599
6.87869
7.1962
7.53561
7.8907
8.26263
8.6
9.13603
7.98252
7.99974
8.01599
8.0315
8.04744
8.06632
8.09174
8.12853
8.18169
8.25366
8.35
8.47811
8.64699
8.86717
9.15059
9.51055
9.96145
10.5184
11.1968
12.0114
12.9758
14.1007
15.3926
16.8519
18.4709
20.2319
22.1064
24.0552
26.0296
27.9739
29.8293
31.5377
33.0455
34.3066
35.2854
35.9571
36.3088
36.3385
36.0542
35.4723
34.6167
33.5164
32.2049
30.7181
29.0938
27.3698
25.5837
23.7715
21.967
20.2006
18.499
16.8841
15.3727
13.9762
12.7007
11.5479
10.5152
9.59709
8.78609
8.07336
7.44958
6.90542
6.43191
6.02067
5.664
5.35497
5.08742
4.85594
4.65583
4.48307
4.33422
4.20641
4.09724
4.00476
3.92738
3.86387
3.81328
3.77495
3.74847
3.73365
3.73052
3.73935
3.76058
3.7949
3.84317
3.90649
3.98614
4.0836
4.20048
4.33849
4.49937
4.6847
4.89579
5.13341
5.39743
5.687
5.99783
6.33391
6.64336
7.16536
6.14676
6.15241
6.15591
6.15752
6.15748
6.15611
6.15392
6.15174
6.15058
6.15129
6.155
6.16308
6.17718
6.19926
6.23155
6.27656
6.33702
6.41583
6.51592
6.64021
6.79144
6.9721
7.18422
7.4292
7.70763
8.01899
8.36145
8.73159
9.12429
9.53258
9.9478
10.3597
10.7569
11.1272
11.4585
11.739
11.9582
12.1076
12.1807
12.1739
12.0863
11.9199
11.6796
11.3722
11.0067
10.5935
10.1436
9.66833
9.1789
8.68569
8.19803
7.72389
7.26968
6.84021
6.43867
6.06687
5.72538
5.41381
5.1311
4.87568
4.64572
4.43926
4.2543
4.08889
3.94115
3.80933
3.69179
3.58707
3.49382
3.41089
3.33724
3.27202
3.21451
3.16413
3.12043
3.08308
3.05189
3.02676
3.00775
2.99499
2.98876
2.98945
2.9976
3.01389
3.03915
3.07438
3.12077
3.17968
3.25266
3.34145
3.4479
3.57395
3.72146
3.89214
4.08714
4.30727
4.55034
4.82238
5.07675
5.53352
5.19498
5.19433
5.1923
5.18887
5.18403
5.17781
5.17031
5.16172
5.15222
5.14207
5.13155
5.12101
5.11082
5.10144
5.0934
5.08731
5.08384
5.08374
5.0878
5.09682
5.11155
5.13272
5.16092
5.19658
5.23995
5.29101
5.34946
5.41467
5.48563
5.56097
5.63896
5.71751
5.79423
5.86654
5.9317
5.98694
6.02962
6.0573
6.06789
6.0598
6.03197
5.98399
5.91609
5.82914
5.72463
5.60452
5.47117
5.32724
5.17548
5.01871
4.85959
4.70061
4.54396
4.39149
4.24466
4.10456
3.97195
3.84724
3.73059
3.62198
3.52119
3.42792
3.34178
3.26234
3.18913
3.1217
3.05959
3.00237
2.94963
2.901
2.85617
2.81486
2.77685
2.74197
2.71012
2.68123
2.65531
2.63242
2.61268
2.59629
2.5835
2.57467
2.57021
2.57067
2.57668
2.58902
2.60859
2.63647
2.67389
2.72228
2.78322
2.85847
2.94989
3.05934
3.18851
3.33907
3.51041
3.7093
3.89797
4.25957
4.66048
4.65388
4.64654
4.63838
4.62938
4.61954
4.60884
4.59733
4.58502
4.57194
4.55816
4.54374
4.52877
4.51336
4.49763
4.48173
4.46584
4.45016
4.43491
4.42034
4.40671
4.39427
4.38325
4.37386
4.36623
4.36046
4.35655
4.35438
4.35375
4.35433
4.3557
4.3573
4.3585
4.35858
4.35679
4.35234
4.34446
4.33241
4.31553
4.29329
4.26528
4.23125
4.19114
4.14506
4.0933
4.03632
3.97472
3.90922
3.84061
3.76972
3.69741
3.62449
3.55174
3.47984
3.40939
3.34088
3.27469
3.21108
3.15023
3.09223
3.03707
2.98472
2.93508
2.88804
2.84343
2.8011
2.76089
2.72264
2.6862
2.65143
2.61821
2.58645
2.55607
2.52704
2.49933
2.47295
2.44794
2.42439
2.40241
2.38215
2.3638
2.34763
2.33394
2.32309
2.31555
2.31184
2.31262
2.31864
2.33079
2.35013
2.37786
2.41534
2.46408
2.52572
2.60188
2.69435
2.80337
2.93517
3.0619
3.32203
4.35415
4.34204
4.32963
4.31686
4.30368
4.29007
4.276
4.26145
4.2464
4.23086
4.21483
4.1983
4.18129
4.16379
4.14584
4.12745
4.10864
4.08946
4.06996
4.05021
4.03027
4.01022
3.99016
3.97016
3.95029
3.93063
3.91119
3.89201
3.87306
3.85428
3.83557
3.81681
3.79782
3.77841
3.75835
3.7374
3.71533
3.6919
3.66688
3.64011
3.61142
3.58072
3.54797
3.51319
3.47646
3.43792
3.39777
3.35623
3.31359
3.27013
3.22616
3.18198
3.13788
3.09411
3.05093
3.00852
2.96705
2.92664
2.88737
2.84928
2.81238
2.77666
2.74206
2.70853
2.67599
2.64437
2.61357
2.58352
2.55415
2.52539
2.49719
2.4695
2.44232
2.41561
2.38939
2.36367
2.33851
2.31397
2.29012
2.26708
2.24498
2.22399
2.20432
2.18621
2.16997
2.15594
2.14456
2.13633
2.13187
2.13188
2.13723
2.14887
2.16793
2.19566
2.23336
2.28257
2.34382
2.4221
2.49857
2.6684
4.18146
4.1646
4.14769
4.13068
4.11354
4.09625
4.07877
4.06109
4.04319
4.02505
4.00665
3.98798
3.96903
3.94978
3.93023
3.91035
3.89014
3.86959
3.84871
3.82749
3.80594
3.78408
3.76193
3.73951
3.71684
3.69395
3.67086
3.6476
3.62416
3.60057
3.5768
3.55284
3.52865
3.5042
3.47944
3.45429
3.42871
3.40262
3.37598
3.34872
3.32081
3.29223
3.26296
3.23303
3.20248
3.17135
3.13973
3.10771
3.0754
3.04291
3.01035
2.97784
2.94549
2.91339
2.88163
2.85028
2.8194
2.78903
2.7592
2.7299
2.70114
2.67288
2.64508
2.61771
2.5907
2.564
2.53756
2.51133
2.48525
2.45929
2.43343
2.40763
2.38189
2.3562
2.33058
2.30505
2.27964
2.25439
2.22936
2.20463
2.18029
2.15644
2.13322
2.11079
2.08933
2.06908
2.0503
2.03332
2.01854
2.00642
1.99753
1.99251
1.99215
1.99732
2.00899
2.02831
2.05586
2.09518
2.13477
2.23337
4.08822
4.06765
4.04714
4.02667
4.00621
3.98576
3.96527
3.94475
3.92417
3.90352
3.88279
3.86195
3.84101
3.81993
3.79872
3.77734
3.7558
3.73406
3.71211
3.68996
3.66757
3.64495
3.62209
3.59899
3.57566
3.55209
3.52829
3.50427
3.48004
3.45561
3.43098
3.40616
3.38115
3.35595
3.33056
3.30498
3.2792
3.25323
3.22705
3.20067
3.1741
3.14733
3.12039
3.09329
3.06606
3.03873
3.01135
2.98395
2.95657
2.92927
2.90209
2.87507
2.84823
2.82161
2.79524
2.76912
2.74327
2.71768
2.69236
2.66729
2.64245
2.6178
2.59331
2.56893
2.54463
2.52035
2.49606
2.4717
2.44726
2.42271
2.39801
2.37316
2.34815
2.32298
2.29767
2.27223
2.24668
2.22105
2.19539
2.16975
2.14419
2.11878
2.0936
2.06876
2.04437
2.02058
1.99755
1.97549
1.95463
1.93529
1.91779
1.90258
1.89015
1.88108
1.87604
1.87585
1.88101
1.89376
1.90812
1.95502
4.04093
4.01777
3.99469
3.97168
3.94874
3.92586
3.90303
3.88022
3.85745
3.83469
3.81194
3.78919
3.76644
3.74367
3.72087
3.69803
3.67514
3.65218
3.62915
3.60602
3.5828
3.55946
3.536
3.51242
3.48869
3.46483
3.44083
3.41669
3.39242
3.368
3.34346
3.3188
3.29403
3.26915
3.24417
3.21911
3.19397
3.16877
3.14353
3.11825
3.09296
3.06767
3.04239
3.01716
2.99199
2.9669
2.94192
2.91707
2.89236
2.86782
2.84345
2.81927
2.79527
2.77147
2.74784
2.72439
2.7011
2.67795
2.65493
2.63201
2.60916
2.58635
2.56354
2.5407
2.51778
2.49475
2.47156
2.4482
2.42462
2.4008
2.37673
2.3524
2.32781
2.30295
2.27784
2.25248
2.2269
2.20113
2.17519
2.14911
2.12296
2.09676
2.07058
2.04448
2.01855
1.99286
1.96752
1.94266
1.91842
1.89499
1.87257
1.85142
1.83186
1.81426
1.79904
1.78674
1.77778
1.77336
1.77141
1.78305
4.01868
3.9939
3.96919
3.94454
3.91995
3.89543
3.87095
3.84653
3.82217
3.79784
3.77357
3.74934
3.72514
3.70099
3.67686
3.65276
3.62869
3.60462
3.58056
3.5565
3.53243
3.50834
3.48423
3.46008
3.4359
3.41168
3.38742
3.36312
3.33877
3.31438
3.28994
3.26548
3.24098
3.21646
3.19193
3.1674
3.14288
3.11839
3.09394
3.06954
3.04521
3.02097
2.99684
2.97284
2.94897
2.92525
2.9017
2.87833
2.85515
2.83215
2.80935
2.78672
2.76426
2.74197
2.71981
2.69778
2.67584
2.65398
2.63216
2.61037
2.58857
2.56673
2.54481
2.52277
2.50059
2.47822
2.45563
2.43279
2.40968
2.38628
2.36258
2.33856
2.31422
2.28957
2.26461
2.23935
2.21382
2.18802
2.16199
2.13575
2.10934
2.08279
2.05615
2.02945
2.00276
1.97612
1.9496
1.92329
1.89727
1.87164
1.84654
1.82212
1.79857
1.77611
1.75501
1.73558
1.71817
1.70323
1.69127
1.68017
4.00901
3.98334
3.9577
3.9321
3.90654
3.88102
3.85554
3.8301
3.80471
3.77936
3.75405
3.7288
3.7036
3.67845
3.65335
3.6283
3.6033
3.57836
3.55346
3.5286
3.50379
3.47901
3.45427
3.42957
3.4049
3.38026
3.35565
3.33106
3.30651
3.28199
3.25751
3.23306
3.20866
3.18431
3.16001
3.13579
3.11163
3.08757
3.06361
3.03976
3.01604
2.99245
2.96902
2.94576
2.92267
2.89976
2.87705
2.85453
2.8322
2.81007
2.78812
2.76635
2.74473
2.72324
2.70187
2.68059
2.65937
2.63819
2.61701
2.59582
2.57457
2.55323
2.53177
2.51017
2.48837
2.46636
2.44409
2.42155
2.39871
2.37556
2.35207
2.32825
2.30409
2.27958
2.25475
2.2296
2.20413
2.17838
2.15236
2.1261
2.09962
2.07295
2.04612
2.01917
1.99214
1.96507
1.938
1.91098
1.88408
1.85735
1.83088
1.80475
1.77908
1.754
1.72967
1.70627
1.68409
1.66303
1.64528
1.62029
4.00507
3.97896
3.95286
3.92677
3.90069
3.87464
3.8486
3.82259
3.79661
3.77065
3.74474
3.71886
3.69302
3.66724
3.6415
3.61581
3.59019
3.56462
3.53911
3.51366
3.48828
3.46296
3.43771
3.41253
3.38741
3.36236
3.33739
3.3125
3.28768
3.26294
3.23828
3.21372
3.18925
3.16489
3.14063
3.11649
3.09247
3.06858
3.04484
3.02125
2.99782
2.97457
2.9515
2.92862
2.90593
2.88345
2.86117
2.83909
2.81722
2.79553
2.77402
2.75268
2.73149
2.71041
2.68943
2.66853
2.64767
2.62682
2.60597
2.58506
2.56409
2.54301
2.52179
2.5004
2.4788
2.45697
2.43489
2.41251
2.38983
2.36682
2.34347
2.31979
2.29575
2.27136
2.24664
2.22158
2.19621
2.17053
2.14457
2.11834
2.09188
2.0652
2.03834
2.01132
1.98418
1.95694
1.92964
1.90232
1.87502
1.84778
1.82065
1.79369
1.76696
1.74055
1.71456
1.68907
1.66432
1.63991
1.61899
1.58601
4.0035
3.97719
3.95087
3.92455
3.89823
3.87192
3.8456
3.8193
3.79301
3.76674
3.74049
3.71426
3.68807
3.66192
3.6358
3.60973
3.58371
3.55775
3.53185
3.50601
3.48023
3.45453
3.4289
3.40336
3.37789
3.35252
3.32724
3.30205
3.27697
3.252
3.22713
3.20239
3.17777
3.15329
3.12895
3.10475
3.0807
3.05682
3.03311
3.00959
2.98624
2.96309
2.94015
2.91741
2.89488
2.87256
2.85046
2.82856
2.80686
2.78536
2.76403
2.74287
2.72184
2.70094
2.68012
2.65937
2.63866
2.61795
2.59722
2.57645
2.55559
2.53461
2.51349
2.4922
2.4707
2.44897
2.42697
2.40468
2.38209
2.35918
2.33593
2.31233
2.28839
2.2641
2.23947
2.21451
2.18922
2.16363
2.13774
2.11159
2.08519
2.05856
2.03173
2.00473
1.97758
1.95031
1.92295
1.89553
1.86809
1.84064
1.81323
1.7859
1.75869
1.73166
1.70486
1.67833
1.65231
1.62616
1.60362
1.5663
4.00281
3.97642
3.95001
3.92359
3.89715
3.87072
3.84427
3.81783
3.79139
3.76496
3.73854
3.71214
3.68576
3.65941
3.63309
3.6068
3.58056
3.55437
3.52822
3.50214
3.47612
3.45017
3.42429
3.3985
3.37278
3.34717
3.32165
3.29623
3.27093
3.24574
3.22068
3.19576
3.17097
3.14633
3.12185
3.09753
3.07338
3.04941
3.02562
3.00204
2.97865
2.95547
2.9325
2.90975
2.88722
2.86491
2.84282
2.82094
2.79926
2.77778
2.75647
2.73533
2.71433
2.69344
2.67265
2.65192
2.63123
2.61054
2.58984
2.56908
2.54824
2.52729
2.5062
2.48493
2.46346
2.44176
2.41981
2.39757
2.37503
2.35218
2.32899
2.30547
2.2816
2.2574
2.23285
2.20797
2.18277
2.15727
2.13147
2.1054
2.07907
2.05252
2.02576
1.99882
1.97172
1.94449
1.91715
1.88973
1.86226
1.83476
1.80727
1.77981
1.75241
1.72512
1.69797
1.67098
1.64436
1.61739
1.59407
1.55455
4.00243
3.976
3.94954
3.92307
3.89659
3.87009
3.84359
3.81708
3.79057
3.76406
3.73756
3.71107
3.68459
3.65814
3.6317
3.6053
3.57893
3.55261
3.52633
3.5001
3.47393
3.44782
3.42178
3.39582
3.36994
3.34415
3.31846
3.29287
3.26739
3.24204
3.21681
3.19172
3.16677
3.14198
3.11735
3.09288
3.0686
3.0445
3.02059
2.99689
2.97339
2.95011
2.92705
2.90421
2.88159
2.8592
2.83702
2.81506
2.79331
2.77175
2.75038
2.72916
2.7081
2.68715
2.66629
2.64551
2.62476
2.60403
2.58328
2.56248
2.54161
2.52064
2.49952
2.47825
2.45677
2.43507
2.41313
2.39091
2.36841
2.34559
2.32245
2.29899
2.27519
2.25105
2.22658
2.20178
2.17666
2.15124
2.12553
2.09955
2.07331
2.04685
2.02017
1.99331
1.96628
1.93911
1.91184
1.88447
1.85704
1.82957
1.80208
1.77461
1.74717
1.7198
1.69253
1.66537
1.63852
1.61119
1.58754
1.547
4.00215
3.97569
3.94921
3.92271
3.8962
3.86967
3.84313
3.81659
3.79004
3.76349
3.73694
3.7104
3.68387
3.65736
3.63086
3.60439
3.57795
3.55155
3.52518
3.49886
3.4726
3.44639
3.42024
3.39417
3.36818
3.34227
3.31645
3.29073
3.26512
3.23963
3.21427
3.18904
3.16395
3.13902
3.11424
3.08964
3.06521
3.04097
3.01693
2.99309
2.96946
2.94605
2.92285
2.89988
2.87713
2.85461
2.83231
2.81022
2.78835
2.76667
2.74517
2.72384
2.70266
2.6816
2.66064
2.63975
2.61891
2.5981
2.57727
2.5564
2.53547
2.51444
2.49328
2.47196
2.45046
2.42875
2.4068
2.38458
2.36209
2.3393
2.3162
2.29278
2.26904
2.24496
2.22056
2.19584
2.17081
2.14547
2.11985
2.09395
2.0678
2.04143
2.01484
1.98806
1.96112
1.93404
1.90684
1.87955
1.85218
1.82477
1.79734
1.76991
1.74251
1.71515
1.68788
1.66068
1.63377
1.60632
1.58257
1.54161
4.0019
3.97542
3.94893
3.92241
3.89587
3.86932
3.84276
3.81619
3.78962
3.76304
3.73646
3.70989
3.68332
3.65677
3.63023
3.60372
3.57723
3.55077
3.52435
3.49797
3.47163
3.44535
3.41913
3.39298
3.3669
3.3409
3.31499
3.28917
3.26346
3.23786
3.21238
3.18703
3.16182
3.13676
3.11186
3.08713
3.06257
3.03819
3.01401
2.99003
2.96626
2.9427
2.91937
2.89625
2.87336
2.85069
2.82824
2.80601
2.78399
2.76216
2.74052
2.71905
2.69773
2.67654
2.65545
2.63444
2.61349
2.59257
2.57164
2.55068
2.52967
2.50857
2.48735
2.46598
2.44444
2.4227
2.40073
2.37852
2.35603
2.33326
2.31019
2.28681
2.26312
2.2391
2.21476
2.19011
2.16516
2.1399
2.11437
2.08856
2.0625
2.03622
2.00972
1.98304
1.95619
1.9292
1.90208
1.87488
1.8476
1.82026
1.79291
1.76555
1.73821
1.71091
1.68368
1.65653
1.62963
1.60218
1.57843
1.53735
4.00167
3.97518
3.94866
3.92213
3.89557
3.86901
3.84243
3.81584
3.78924
3.76264
3.73604
3.70944
3.68284
3.65626
3.62969
3.60314
3.57661
3.55011
3.52364
3.49721
3.47083
3.44449
3.41821
3.39199
3.36584
3.33976
3.31377
3.28787
3.26207
3.23638
3.2108
3.18535
3.16004
3.13486
3.10985
3.08499
3.06031
3.03581
3.0115
2.98738
2.96347
2.93977
2.91629
2.89303
2.86999
2.84717
2.82457
2.80218
2.78001
2.75803
2.73624
2.71462
2.69315
2.67182
2.6506
2.62946
2.60838
2.58734
2.56631
2.54526
2.52415
2.50297
2.48169
2.46026
2.43868
2.4169
2.39491
2.37269
2.35021
2.32745
2.3044
2.28106
2.25741
2.23345
2.20917
2.18459
2.15971
2.13454
2.10909
2.08337
2.05741
2.03121
2.00481
1.97822
1.95147
1.92457
1.89755
1.87043
1.84324
1.816
1.78872
1.76145
1.73418
1.70696
1.67981
1.65272
1.62589
1.59848
1.57478
1.53372
4.00145
3.97495
3.94842
3.92187
3.8953
3.86871
3.84211
3.8155
3.78888
3.76226
3.73564
3.70901
3.68239
3.65578
3.62918
3.6026
3.57604
3.5495
3.52299
3.49652
3.47009
3.4437
3.41737
3.39109
3.36488
3.33874
3.31268
3.2867
3.26082
3.23505
3.20938
3.18384
3.15843
3.13316
3.10803
3.08307
3.05827
3.03365
3.00921
2.98497
2.96093
2.9371
2.91347
2.89007
2.86688
2.84391
2.82117
2.79863
2.7763
2.75417
2.73223
2.71046
2.68885
2.66737
2.64601
2.62474
2.60354
2.58238
2.56124
2.54008
2.51889
2.49762
2.47627
2.45478
2.43315
2.41134
2.38932
2.36709
2.3446
2.32186
2.29884
2.27553
2.25192
2.22801
2.2038
2.17929
2.15449
2.1294
2.10403
2.0784
2.05253
2.02643
2.00013
1.97363
1.94698
1.92017
1.89325
1.86623
1.83913
1.81198
1.78479
1.7576
1.73043
1.70329
1.67622
1.6492
1.62244
1.59511
1.57147
1.53049
4.00125
3.97473
3.94819
3.92162
3.89503
3.86843
3.84182
3.81519
3.78855
3.76191
3.73526
3.70861
3.68197
3.65533
3.62871
3.60209
3.5755
3.54893
3.52238
3.49587
3.4694
3.44296
3.41658
3.39025
3.36398
3.33778
3.31166
3.28561
3.25966
3.23381
3.20807
3.18244
3.15694
3.13157
3.10635
3.08128
3.05637
3.03164
3.00709
2.98272
2.95856
2.93459
2.91084
2.8873
2.86397
2.84086
2.81797
2.79529
2.77281
2.75053
2.72844
2.70653
2.68477
2.66315
2.64165
2.62025
2.59893
2.57765
2.5564
2.53515
2.51386
2.49251
2.47108
2.44954
2.42786
2.40601
2.38397
2.36172
2.33924
2.31651
2.29351
2.27023
2.24667
2.22282
2.19868
2.17424
2.14951
2.12451
2.09923
2.0737
2.04793
2.02193
1.99572
1.96933
1.94277
1.91606
1.88924
1.86231
1.8353
1.80824
1.78115
1.75405
1.72696
1.6999
1.67291
1.64597
1.61929
1.59203
1.56846
1.52758
4.00106
3.97453
3.94797
3.92139
3.89479
3.86817
3.84154
3.81489
3.78823
3.76157
3.73491
3.70824
3.68157
3.65491
3.62825
3.60161
3.57499
3.54838
3.52181
3.49526
3.46874
3.44226
3.41583
3.38946
3.36313
3.33688
3.31069
3.28459
3.25857
3.23265
3.20683
3.18112
3.15553
3.13008
3.10476
3.0796
3.05459
3.02975
3.00509
2.98061
2.95633
2.93224
2.90836
2.88469
2.86123
2.83798
2.81495
2.79213
2.76951
2.74709
2.72486
2.7028
2.68091
2.65915
2.63753
2.616
2.59455
2.57316
2.5518
2.53045
2.50908
2.48765
2.46615
2.44455
2.42282
2.40094
2.37888
2.35663
2.33415
2.31143
2.28847