/*--------------------------------*- C++ -*----------------------------------*\
| =========                 |                                                 |
| \\      /  F ield         | OpenFOAM: The Open Source CFD Toolbox           |
|  \\    /   O peration     | Version:  2.1.1                                 |
|   \\  /    A nd           | Web:      www.OpenFOAM.org                      |
|    \\/     M anipulation  |                                                 |
\*---------------------------------------------------------------------------*/
FoamFile
{
    version     2.0;
    format      ascii;
    class       volScalarField;
    location    "0.195";
    object      k;
}
// * * * * * * * * * * * * * * * * * * * * * * * * * * * * * * * * * * * * * //

dimensions      [0 2 -2 0 0 0 0];

internalField   nonuniform List<scalar> 
6820
(
0.288909
0.351398
0.415005
0.477466
0.536859
0.591555
0.640366
0.682619
0.718109
0.747007
0.769758
0.786979
0.799369
0.807648
0.812507
0.814579
0.814427
0.812539
0.809324
0.805126
0.800225
0.794845
0.789168
0.783335
0.777455
0.771611
0.765863
0.760267
0.754787
0.749747
0.743655
0.743687
0.715169
0.265532
0.269396
0.270523
0.271341
0.272559
0.274217
0.276229
0.278482
0.280865
0.283294
0.28571
0.288086
0.29041
0.292688
0.294935
0.297168
0.299409
0.301675
0.303983
0.306346
0.308772
0.311269
0.313841
0.316487
0.31921
0.322009
0.324885
0.327848
0.330911
0.334132
0.337526
0.341604
0.345776
0.262038
0.264253
0.263596
0.261556
0.259
0.256318
0.253626
0.250938
0.24824
0.245524
0.242794
0.240061
0.237345
0.234668
0.232052
0.229518
0.227086
0.22477
0.222583
0.220534
0.218631
0.216876
0.215271
0.213817
0.21251
0.21135
0.210332
0.209453
0.208709
0.208104
0.207625
0.207302
0.207078
0.259885
0.260272
0.259797
0.258535
0.256829
0.254891
0.252833
0.250709
0.248546
0.246358
0.244151
0.241934
0.239712
0.237493
0.235285
0.233095
0.23093
0.228797
0.226704
0.224655
0.222656
0.22071
0.218823
0.216995
0.215229
0.213526
0.211886
0.210311
0.208798
0.207348
0.205958
0.204629
0.203351
0.259299
0.258404
0.2576
0.256567
0.255295
0.25385
0.252292
0.250661
0.248984
0.247277
0.245551
0.243814
0.242074
0.240334
0.2386
0.236876
0.235165
0.23347
0.231797
0.230146
0.22852
0.226923
0.225356
0.22382
0.222318
0.22085
0.219417
0.218019
0.216657
0.215331
0.214041
0.212787
0.21157
0.259224
0.257848
0.256623
0.255437
0.254227
0.25297
0.251663
0.250312
0.248929
0.247522
0.2461
0.24467
0.243236
0.241804
0.240376
0.238957
0.237548
0.236151
0.234769
0.233404
0.232058
0.230731
0.229424
0.22814
0.226879
0.225641
0.224427
0.223238
0.222073
0.220934
0.219821
0.218734
0.217675
0.259217
0.257715
0.256309
0.25498
0.253698
0.252442
0.251196
0.249951
0.248704
0.247455
0.246204
0.244955
0.243709
0.242469
0.241236
0.240012
0.238799
0.237599
0.236412
0.23524
0.234084
0.232944
0.231822
0.230717
0.229631
0.228564
0.227516
0.226488
0.22548
0.224492
0.223524
0.222578
0.221653
0.259218
0.25769
0.256225
0.254822
0.253477
0.252181
0.250924
0.249696
0.248492
0.247306
0.246136
0.244981
0.243839
0.24271
0.241594
0.240492
0.239404
0.238331
0.237272
0.236229
0.235201
0.234189
0.233193
0.232215
0.231252
0.230307
0.229379
0.228468
0.227575
0.2267
0.225842
0.225002
0.224181
0.259218
0.257686
0.256207
0.25478
0.253405
0.25208
0.250799
0.24956
0.248357
0.247185
0.246042
0.244924
0.24383
0.242757
0.241704
0.240671
0.239656
0.238659
0.23768
0.236718
0.235773
0.234846
0.233935
0.233041
0.232164
0.231304
0.23046
0.229633
0.228822
0.228028
0.22725
0.226488
0.225744
0.259218
0.257686
0.256203
0.254769
0.253384
0.252045
0.250751
0.2495
0.248288
0.247114
0.245974
0.244866
0.243788
0.242737
0.241712
0.240712
0.239734
0.238779
0.237844
0.23693
0.236035
0.235159
0.234302
0.233463
0.232641
0.231837
0.231049
0.230278
0.229524
0.228786
0.228064
0.227358
0.226668
0.259218
0.257686
0.256202
0.254767
0.253378
0.252035
0.250735
0.249477
0.248259
0.24708
0.245937
0.244829
0.243753
0.242708
0.241693
0.240705
0.239743
0.238806
0.237893
0.237003
0.236135
0.235287
0.23446
0.233653
0.232864
0.232094
0.231342
0.230607
0.229889
0.229188
0.228503
0.227834
0.22718
0.259218
0.257685
0.256201
0.254766
0.253376
0.252031
0.250729
0.249469
0.248248
0.247066
0.24592
0.244809
0.243732
0.242688
0.241673
0.240689
0.239732
0.238802
0.237898
0.237018
0.236161
0.235328
0.234516
0.233724
0.232953
0.232202
0.231469
0.230755
0.230058
0.229379
0.228716
0.22807
0.227439
0.259218
0.257685
0.256201
0.254765
0.253375
0.252029
0.250727
0.249465
0.248243
0.247059
0.245912
0.2448
0.243722
0.242676
0.241661
0.240676
0.23972
0.238792
0.23789
0.237013
0.236161
0.235333
0.234527
0.233743
0.23298
0.232238
0.231515
0.230811
0.230125
0.229458
0.228807
0.228173
0.227556
0.259218
0.257685
0.256201
0.254764
0.253374
0.252028
0.250725
0.249463
0.248241
0.247056
0.245908
0.244795
0.243716
0.242669
0.241653
0.240668
0.239712
0.238783
0.237881
0.237006
0.236155
0.235328
0.234524
0.233743
0.232983
0.232244
0.231525
0.230825
0.230145
0.229482
0.228838
0.22821
0.227598
0.259218
0.257685
0.2562
0.254764
0.253374
0.252028
0.250724
0.249462
0.248239
0.247054
0.245905
0.244792
0.243712
0.242664
0.241648
0.240662
0.239706
0.238777
0.237875
0.236999
0.236148
0.235321
0.234518
0.233737
0.232978
0.23224
0.231522
0.230824
0.230145
0.229485
0.228842
0.228217
0.227608
0.259218
0.257685
0.2562
0.254764
0.253373
0.252027
0.250723
0.249461
0.248237
0.247052
0.245903
0.244789
0.243709
0.242661
0.241645
0.240658
0.239701
0.238772
0.237869
0.236993
0.236142
0.235315
0.234511
0.23373
0.232971
0.232233
0.231516
0.230818
0.230139
0.229479
0.228837
0.228213
0.227605
0.259218
0.257685
0.2562
0.254763
0.253373
0.252026
0.250722
0.249459
0.248236
0.24705
0.245901
0.244787
0.243706
0.242658
0.241642
0.240655
0.239697
0.238767
0.237865
0.236988
0.236136
0.235309
0.234505
0.233724
0.232965
0.232226
0.231509
0.230811
0.230132
0.229472
0.22883
0.228205
0.227597
0.259218
0.257685
0.2562
0.254763
0.253372
0.252026
0.250722
0.249459
0.248235
0.247049
0.245899
0.244785
0.243704
0.242656
0.241639
0.240652
0.239694
0.238764
0.237861
0.236984
0.236132
0.235304
0.2345
0.233718
0.232959
0.23222
0.231502
0.230804
0.230125
0.229465
0.228822
0.228197
0.227589
0.259218
0.257684
0.2562
0.254763
0.253372
0.252025
0.250721
0.249458
0.248234
0.247048
0.245898
0.244783
0.243702
0.242654
0.241636
0.240649
0.239691
0.23876
0.237857
0.23698
0.236128
0.2353
0.234495
0.233713
0.232953
0.232215
0.231496
0.230798
0.230118
0.229458
0.228815
0.228189
0.227581
0.259218
0.257684
0.2562
0.254763
0.253371
0.252025
0.25072
0.249457
0.248233
0.247047
0.245897
0.244782
0.2437
0.242652
0.241634
0.240646
0.239688
0.238757
0.237854
0.236976
0.236124
0.235295
0.234491
0.233709
0.232948
0.232209
0.231491
0.230792
0.230112
0.229451
0.228808
0.228182
0.227573
0.259218
0.257684
0.256199
0.254762
0.253371
0.252024
0.25072
0.249456
0.248232
0.247046
0.245895
0.24478
0.243699
0.24265
0.241632
0.240644
0.239685
0.238754
0.237851
0.236973
0.23612
0.235292
0.234487
0.233704
0.232944
0.232204
0.231485
0.230786
0.230106
0.229445
0.228801
0.228175
0.227565
0.259218
0.257684
0.256199
0.254762
0.253371
0.252024
0.250719
0.249456
0.248231
0.247045
0.245894
0.244779
0.243697
0.242648
0.24163
0.240642
0.239683
0.238752
0.237848
0.23697
0.236117
0.235288
0.234483
0.2337
0.232939
0.2322
0.23148
0.230781
0.2301
0.229439
0.228795
0.228168
0.227558
0.259218
0.257684
0.256199
0.254762
0.253371
0.252024
0.250719
0.249455
0.248231
0.247044
0.245893
0.244778
0.243696
0.242647
0.241628
0.24064
0.239681
0.23875
0.237845
0.236967
0.236114
0.235285
0.234479
0.233696
0.232935
0.232195
0.231476
0.230776
0.230095
0.229433
0.228789
0.228162
0.227552
0.259218
0.257684
0.256199
0.254762
0.253371
0.252023
0.250719
0.249455
0.24823
0.247043
0.245893
0.244777
0.243695
0.242645
0.241627
0.240638
0.239679
0.238748
0.237843
0.236964
0.236111
0.235282
0.234476
0.233693
0.232931
0.232191
0.231471
0.230771
0.23009
0.229428
0.228783
0.228156
0.227546
0.259218
0.257684
0.256199
0.254762
0.25337
0.252023
0.250718
0.249454
0.24823
0.247043
0.245892
0.244776
0.243694
0.242644
0.241625
0.240637
0.239677
0.238746
0.237841
0.236962
0.236109
0.235279
0.234473
0.23369
0.232928
0.232187
0.231467
0.230767
0.230086
0.229423
0.228778
0.228151
0.22754
0.259218
0.257684
0.256199
0.254762
0.25337
0.252023
0.250718
0.249454
0.248229
0.247042
0.245891
0.244775
0.243693
0.242643
0.241624
0.240636
0.239676
0.238744
0.237839
0.23696
0.236106
0.235277
0.23447
0.233687
0.232925
0.232184
0.231464
0.230763
0.230082
0.229419
0.228774
0.228146
0.227535
0.259218
0.257684
0.256199
0.254762
0.25337
0.252023
0.250718
0.249454
0.248229
0.247042
0.245891
0.244775
0.243692
0.242642
0.241623
0.240634
0.239675
0.238743
0.237837
0.236958
0.236104
0.235274
0.234468
0.233684
0.232922
0.232181
0.231461
0.23076
0.230078
0.229415
0.228769
0.228141
0.22753
0.259218
0.257684
0.256199
0.254762
0.25337
0.252023
0.250718
0.249454
0.248229
0.247041
0.24589
0.244774
0.243692
0.242642
0.241623
0.240634
0.239674
0.238742
0.237836
0.236957
0.236103
0.235273
0.234466
0.233682
0.23292
0.232179
0.231458
0.230757
0.230075
0.229411
0.228766
0.228138
0.227526
0.259218
0.257684
0.256199
0.254762
0.25337
0.252023
0.250718
0.249453
0.248228
0.247041
0.24589
0.244774
0.243691
0.242641
0.241622
0.240633
0.239673
0.23874
0.237835
0.236956
0.236101
0.235271
0.234464
0.23368
0.232918
0.232176
0.231456
0.230754
0.230072
0.229408
0.228763
0.228134
0.227522
0.259218
0.257684
0.256199
0.254762
0.25337
0.252023
0.250718
0.249454
0.248229
0.247042
0.245891
0.244774
0.243692
0.242641
0.241622
0.240633
0.239673
0.238741
0.237835
0.236956
0.236101
0.235271
0.234464
0.23368
0.232917
0.232175
0.231454
0.230753
0.230071
0.229407
0.228761
0.228132
0.22752
0.259218
0.257684
0.256199
0.254762
0.25337
0.252023
0.250718
0.249453
0.248228
0.247041
0.24589
0.244774
0.243691
0.242641
0.241622
0.240633
0.239673
0.23874
0.237835
0.236955
0.236101
0.23527
0.234463
0.233679
0.232916
0.232175
0.231454
0.230752
0.23007
0.229406
0.228759
0.228131
0.227518
0.259218
0.257684
0.256199
0.254762
0.253371
0.252024
0.25072
0.249456
0.248232
0.247045
0.245894
0.244778
0.243695
0.242645
0.241626
0.240637
0.239676
0.238744
0.237838
0.236959
0.236104
0.235274
0.234466
0.233682
0.232919
0.232177
0.231456
0.230754
0.230071
0.229407
0.22876
0.228131
0.227519
0.259218
0.257685
0.2562
0.254764
0.253373
0.252026
0.250721
0.249457
0.248233
0.247046
0.245895
0.244779
0.243697
0.242647
0.241628
0.240639
0.239679
0.238747
0.237842
0.236962
0.236107
0.235277
0.23447
0.233685
0.232922
0.232179
0.231458
0.230755
0.230072
0.229407
0.22876
0.228129
0.227516
0.259218
0.257685
0.256201
0.254766
0.253378
0.252034
0.250731
0.249469
0.248246
0.24706
0.245911
0.244795
0.243713
0.242663
0.241644
0.240655
0.239694
0.238761
0.237854
0.236974
0.236118
0.235286
0.234477
0.23369
0.232925
0.23218
0.231456
0.230751
0.230064
0.229396
0.228746
0.228112
0.227495
0.259219
0.257689
0.25621
0.254777
0.25339
0.252045
0.250743
0.249482
0.248259
0.247074
0.245924
0.244809
0.243726
0.242676
0.241656
0.240664
0.239701
0.238765
0.237855
0.23697
0.23611
0.235272
0.234457
0.233664
0.232891
0.232139
0.231406
0.230693
0.229997
0.22932
0.228659
0.228015
0.227388
0.25922
0.257694
0.256221
0.254799
0.253423
0.252089
0.250795
0.249539
0.248318
0.247132
0.245979
0.244857
0.243767
0.242706
0.241674
0.24067
0.239692
0.238739
0.237812
0.236908
0.236027
0.235169
0.234332
0.233517
0.232721
0.231945
0.231189
0.230451
0.22973
0.229028
0.228342
0.227673
0.22702
0.259229
0.257738
0.256292
0.254882
0.253508
0.252172
0.250871
0.249603
0.248368
0.247162
0.245986
0.244837
0.243716
0.242622
0.241553
0.24051
0.239491
0.238496
0.237525
0.236577
0.235651
0.234746
0.233863
0.233
0.232158
0.231335
0.230531
0.229746
0.228979
0.228229
0.227497
0.226781
0.226082
0.259265
0.257822
0.256453
0.255125
0.253805
0.252483
0.251164
0.249855
0.248563
0.247292
0.246047
0.24483
0.243641
0.242482
0.241352
0.240251
0.239177
0.238129
0.237108
0.236112
0.23514
0.234191
0.233266
0.232362
0.231479
0.230617
0.229775
0.228953
0.228149
0.227364
0.226597
0.225848
0.225116
0.259599
0.258632
0.257578
0.256541
0.255587
0.254713
0.253904
0.253149
0.252442
0.251779
0.25116
0.250583
0.250049
0.249555
0.249101
0.248686
0.248308
0.247965
0.247656
0.247378
0.247129
0.246909
0.246715
0.246545
0.246399
0.246274
0.24617
0.246084
0.246016
0.245964
0.245928
0.245906
0.245897
0.266719
0.280569
0.294241
0.307622
0.320668
0.333362
0.345693
0.357649
0.369225
0.380414
0.391213
0.401622
0.411642
0.421275
0.430528
0.439405
0.447913
0.456061
0.463858
0.471313
0.478436
0.485238
0.491729
0.497919
0.503821
0.509444
0.514799
0.519898
0.52475
0.529367
0.533757
0.537931
0.541902
0.843857
1.01374
1.18206
1.34959
1.51542
1.67231
1.81063
1.92305
2.00671
2.06341
2.09822
2.11749
2.12717
2.13177
2.13408
2.13548
2.13642
2.13689
2.13685
2.13635
2.13558
2.13482
2.13436
2.13442
2.13511
2.13645
2.13836
2.14067
2.1432
2.14573
2.148
2.14979
2.15083
2.15086
2.14957
2.14668
2.14188
2.13485
2.12527
2.11285
2.09726
2.07824
2.05553
2.02891
1.99819
1.96327
1.92408
1.88064
1.83306
1.78154
1.72636
1.66787
1.60652
1.5428
1.47728
1.41053
1.34317
1.27582
1.2091
1.14362
1.07995
1.01863
0.960129
0.904832
0.853049
0.804991
0.76078
0.720447
0.683945
0.651162
0.621936
0.596069
0.57334
0.553521
0.53638
0.521694
0.509254
0.498868
0.490359
0.483574
0.478376
0.474647
0.472288
0.471212
0.471349
0.472637
0.475025
0.478466
0.482917
0.488331
0.494657
0.501835
0.50979
0.518426
0.527628
0.537244
0.547095
0.557057
0.566117
0.57945
0.354783
0.368634
0.388941
0.418627
0.460299
0.516243
0.587906
0.675266
0.776398
0.88755
1.00365
1.11903
1.22835
1.32731
1.41318
1.48497
1.54319
1.58941
1.62578
1.65452
1.67758
1.69653
1.71246
1.72606
1.73775
1.74776
1.7562
1.76316
1.76868
1.77279
1.77548
1.77671
1.77641
1.77445
1.77069
1.76495
1.75703
1.74671
1.73377
1.71802
1.69925
1.67728
1.65195
1.62314
1.59078
1.55485
1.51538
1.47249
1.42637
1.3773
1.32562
1.27176
1.21621
1.1595
1.10218
1.04483
0.988014
0.932278
0.878139
0.826074
0.776499
0.729766
0.686151
0.645842
0.608945
0.575479
0.545389
0.518558
0.49482
0.473976
0.455808
0.440094
0.426616
0.415167
0.405555
0.397611
0.391181
0.386136
0.382364
0.379773
0.378286
0.377843
0.378397
0.379911
0.382361
0.385728
0.390001
0.395171
0.401229
0.408161
0.415948
0.424558
0.433942
0.444029
0.454722
0.46589
0.47735
0.489048
0.49969
0.515817
0.206747
0.206555
0.20699
0.208453
0.211349
0.216202
0.223553
0.234182
0.249151
0.269629
0.296762
0.33152
0.374513
0.425818
0.484856
0.550378
0.620545
0.693121
0.76573
0.836119
0.902405
0.963224
1.01779
1.06585
1.10756
1.14339
1.17389
1.19968
1.22129
1.23916
1.25363
1.26493
1.27322
1.27857
1.28103
1.2806
1.27726
1.27097
1.2617
1.24939
1.234
1.21551
1.19391
1.16922
1.1415
1.11084
1.0774
1.04141
1.00314
0.96294
0.921213
0.878414
0.835031
0.791566
0.748517
0.706359
0.665529
0.626415
0.589346
0.554585
0.522325
0.492691
0.465736
0.441447
0.419755
0.40054
0.383651
0.36891
0.356134
0.345136
0.335741
0.327784
0.321119
0.315617
0.311168
0.307679
0.305074
0.303293
0.302288
0.302025
0.302481
0.303643
0.305507
0.308078
0.311367
0.315391
0.320171
0.32573
0.33209
0.339271
0.347282
0.356124
0.365778
0.376202
0.387326
0.399046
0.411184
0.423755
0.435243
0.453215
0.20193
0.200408
0.198985
0.197663
0.196474
0.195485
0.194778
0.194467
0.194657
0.195506
0.197231
0.200105
0.204453
0.21065
0.219115
0.230287
0.244596
0.262415
0.283997
0.309422
0.338547
0.370987
0.406124
0.443153
0.481151
0.519154
0.55624
0.591591
0.624541
0.65459
0.681402
0.704784
0.724656
0.741015
0.753907
0.763403
0.769585
0.772537
0.772339
0.769077
0.762841
0.753733
0.741871
0.727398
0.710483
0.691329
0.670174
0.647298
0.623016
0.597679
0.571665
0.545363
0.519161
0.493426
0.468492
0.444644
0.42211
0.401061
0.381609
0.363811
0.347679
0.333181
0.320254
0.308811
0.298748
0.28995
0.282303
0.275691
0.270009
0.26516
0.261057
0.257628
0.254809
0.252549
0.250808
0.249555
0.248767
0.248431
0.24854
0.249095
0.250104
0.251581
0.253547
0.256027
0.259053
0.262662
0.266896
0.271798
0.277414
0.283788
0.29096
0.298959
0.307801
0.317479
0.327959
0.339174
0.350971
0.363428
0.374903
0.393525
0.210201
0.208678
0.207177
0.205694
0.204227
0.202789
0.201395
0.200068
0.198829
0.197702
0.196719
0.195921
0.195363
0.195105
0.195223
0.195802
0.196938
0.19874
0.201325
0.204818
0.209344
0.215019
0.221946
0.230192
0.239783
0.250686
0.262802
0.275957
0.289915
0.304377
0.319008
0.333455
0.347365
0.360409
0.372293
0.382767
0.391636
0.398752
0.404021
0.407394
0.408867
0.408475
0.40629
0.402418
0.396992
0.390175
0.382152
0.373129
0.363325
0.35297
0.342294
0.331518
0.320845
0.310454
0.30049
0.291063
0.282248
0.274089
0.266604
0.25979
0.253626
0.248085
0.243129
0.238716
0.234805
0.231354
0.228321
0.225669
0.223363
0.221373
0.219676
0.218248
0.217076
0.216148
0.215457
0.215
0.21478
0.214801
0.215073
0.215612
0.216434
0.217562
0.219024
0.220852
0.223083
0.22576
0.228929
0.232644
0.23696
0.241936
0.247628
0.254091
0.26137
0.269494
0.278468
0.288275
0.2988
0.310185
0.320788
0.338736
0.216472
0.215111
0.213746
0.212383
0.211022
0.209665
0.208313
0.20697
0.205643
0.204339
0.203068
0.20184
0.200668
0.199569
0.198561
0.197665
0.196904
0.196305
0.195893
0.1957
0.195753
0.196085
0.196724
0.197698
0.199034
0.200748
0.202854
0.205351
0.208226
0.211453
0.214987
0.21877
0.222725
0.226763
0.230788
0.234694
0.23838
0.241744
0.244697
0.247162
0.24908
0.250409
0.25113
0.251243
0.250766
0.249737
0.248208
0.246242
0.243911
0.241295
0.23847
0.235515
0.2325
0.229487
0.226527
0.223662
0.22092
0.218322
0.215879
0.213598
0.211478
0.209517
0.207711
0.206053
0.204534
0.203148
0.201886
0.20074
0.199704
0.198773
0.197943
0.197211
0.196579
0.196046
0.195617
0.195298
0.195096
0.195022
0.195089
0.195312
0.19571
0.196304
0.197119
0.198186
0.199537
0.201212
0.203255
0.205714
0.208644
0.212104
0.216157
0.220867
0.226296
0.232498
0.23951
0.24736
0.255982
0.265569
0.27461
0.290661
0.220601
0.219405
0.218201
0.216989
0.215769
0.214542
0.213309
0.212072
0.210833
0.209596
0.208364
0.207142
0.205935
0.204747
0.203586
0.202458
0.201373
0.200339
0.199367
0.198467
0.197651
0.196927
0.196309
0.195804
0.195424
0.195174
0.195061
0.195089
0.195258
0.195564
0.196003
0.196563
0.197229
0.197985
0.198806
0.199669
0.200545
0.201406
0.202223
0.202969
0.203616
0.204145
0.204537
0.204779
0.204867
0.204797
0.204575
0.204209
0.203712
0.203101
0.202393
0.201608
0.200765
0.199881
0.198974
0.198057
0.197142
0.196237
0.19535
0.194484
0.193643
0.192828
0.192041
0.191281
0.190547
0.189839
0.189156
0.188498
0.187863
0.187253
0.186668
0.186111
0.185585
0.185093
0.184641
0.184235
0.183884
0.183596
0.183384
0.183259
0.183238
0.183338
0.183579
0.183985
0.184583
0.185405
0.186486
0.187867
0.189595
0.191722
0.194304
0.197403
0.201081
0.205402
0.210421
0.216189
0.222687
0.23013
0.23724
0.250531
0.223244
0.222178
0.221101
0.220013
0.218915
0.217808
0.216692
0.215569
0.21444
0.213306
0.212168
0.211029
0.20989
0.208755
0.207625
0.206506
0.2054
0.204311
0.203245
0.202205
0.201199
0.200229
0.199303
0.198426
0.197601
0.196835
0.196131
0.195492
0.19492
0.194416
0.193981
0.193612
0.193306
0.193059
0.192865
0.192717
0.192607
0.192526
0.192464
0.192412
0.192361
0.192301
0.192225
0.192125
0.191996
0.191834
0.191637
0.191403
0.191134
0.190829
0.190493
0.190128
0.189738
0.189326
0.188896
0.188451
0.187995
0.187529
0.187055
0.186574
0.186087
0.185594
0.185095
0.184589
0.184076
0.183556
0.183027
0.182491
0.181946
0.181395
0.180838
0.180279
0.179718
0.179161
0.178611
0.178074
0.177555
0.177063
0.176606
0.176193
0.175836
0.175549
0.175347
0.175247
0.17527
0.175441
0.175785
0.176335
0.177128
0.178204
0.17961
0.181398
0.183624
0.186345
0.189619
0.193506
0.198012
0.203344
0.208503
0.218689
0.224894
0.223926
0.222948
0.22196
0.220961
0.219952
0.218934
0.217907
0.216872
0.21583
0.214781
0.213728
0.21267
0.21161
0.21055
0.20949
0.208433
0.207381
0.206337
0.205302
0.20428
0.203274
0.202287
0.201321
0.200381
0.19947
0.19859
0.197744
0.196934
0.196163
0.195431
0.19474
0.194089
0.193478
0.192906
0.192371
0.19187
0.191402
0.190963
0.19055
0.190158
0.189784
0.189425
0.189077
0.188736
0.188401
0.188069
0.187737
0.187404
0.187069
0.18673
0.186386
0.186036
0.18568
0.185317
0.184947
0.184567
0.184179
0.183781
0.183372
0.182952
0.182518
0.18207
0.181607
0.181126
0.180628
0.18011
0.179574
0.179017
0.178442
0.177848
0.177237
0.176611
0.175972
0.175324
0.17467
0.174014
0.173362
0.172721
0.172096
0.171496
0.170932
0.170413
0.169952
0.169565
0.169268
0.169082
0.16903
0.169139
0.16944
0.169968
0.170766
0.171876
0.173349
0.175233
0.177585
0.180424
0.183925
0.187361
0.194576
0.225881
0.224985
0.22408
0.223165
0.222241
0.221307
0.220365
0.219414
0.218455
0.217488
0.216515
0.215536
0.214551
0.213561
0.212568
0.211573
0.210576
0.209579
0.208583
0.20759
0.206602
0.20562
0.204646
0.203682
0.20273
0.201793
0.200873
0.199971
0.19909
0.198231
0.197397
0.196588
0.195805
0.19505
0.194323
0.193624
0.192953
0.19231
0.191693
0.191102
0.190536
0.189992
0.18947
0.188969
0.188486
0.188019
0.187567
0.187129
0.186702
0.186285
0.185875
0.185471
0.185071
0.184671
0.184272
0.18387
0.183463
0.18305
0.18263
0.182199
0.181757
0.181301
0.18083
0.180342
0.179835
0.179308
0.178758
0.178186
0.17759
0.17697
0.176327
0.17566
0.174972
0.174264
0.173538
0.172795
0.17204
0.171275
0.170506
0.169736
0.168972
0.168219
0.167486
0.166782
0.166116
0.165501
0.164951
0.164482
0.164114
0.163869
0.163774
0.163858
0.164156
0.164706
0.165548
0.166729
0.168271
0.170311
0.17236
0.177025
0.226436
0.225589
0.224735
0.223873
0.223003
0.222124
0.221238
0.220344
0.219443
0.218534
0.217619
0.216698
0.215772
0.21484
0.213904
0.212964
0.212021
0.211076
0.21013
0.209183
0.208238
0.207294
0.206353
0.205417
0.204487
0.203564
0.20265
0.201747
0.200856
0.199978
0.199116
0.19827
0.197442
0.196633
0.195844
0.195076
0.194329
0.193604
0.192901
0.19222
0.191561
0.190924
0.190309
0.189714
0.18914
0.188584
0.188046
0.187525
0.187019
0.186527
0.186046
0.185575
0.185111
0.184652
0.184196
0.18374
0.183283
0.182821
0.182353
0.181877
0.181391
0.180893
0.18038
0.179851
0.179303
0.178735
0.178145
0.177532
0.176894
0.176232
0.175545
0.174832
0.174095
0.173335
0.172552
0.171748
0.170925
0.170085
0.169231
0.168367
0.167496
0.166623
0.165753
0.164891
0.164044
0.163222
0.162433
0.161688
0.161002
0.160389
0.159867
0.15946
0.159191
0.159088
0.159183
0.159512
0.160097
0.161034
0.162031
0.164667
0.226722
0.225908
0.225087
0.224259
0.223425
0.222585
0.221737
0.220884
0.220023
0.219157
0.218285
0.217407
0.216524
0.215637
0.214745
0.213849
0.212949
0.212047
0.211142
0.210236
0.209329
0.208422
0.207516
0.206612
0.20571
0.204812
0.203919
0.203032
0.202153
0.201282
0.200421
0.199571
0.198733
0.197909
0.197099
0.196304
0.195525
0.194763
0.19402
0.193294
0.192587
0.191898
0.191229
0.190578
0.189946
0.189332
0.188735
0.188155
0.18759
0.18704
0.186501
0.185973
0.185454
0.184941
0.184432
0.183925
0.183417
0.182907
0.182392
0.181871
0.18134
0.180799
0.180245
0.179675
0.179088
0.178482
0.177856
0.177206
0.176533
0.175836
0.175114
0.174366
0.173594
0.172796
0.171974
0.171129
0.170262
0.169374
0.168468
0.167545
0.166608
0.16566
0.164705
0.163746
0.162787
0.161835
0.160896
0.159977
0.159086
0.158235
0.157436
0.156703
0.156054
0.155509
0.15509
0.154825
0.154732
0.154874
0.15511
0.156214
0.226854
0.226058
0.225257
0.224451
0.223639
0.222822
0.222
0.221172
0.22034
0.219502
0.218659
0.217811
0.216959
0.216102
0.215242
0.214378
0.21351
0.21264
0.211768
0.210893
0.210017
0.20914
0.208263
0.207386
0.206511
0.205637
0.204766
0.203899
0.203037
0.20218
0.20133
0.200488
0.199654
0.198829
0.198016
0.197214
0.196424
0.195648
0.194885
0.194138
0.193405
0.192689
0.191988
0.191304
0.190636
0.189984
0.189348
0.188727
0.18812
0.187527
0.186945
0.186373
0.18581
0.185253
0.184701
0.184151
0.183602
0.183051
0.182497
0.181936
0.181368
0.180791
0.180201
0.179598
0.178978
0.178341
0.177684
0.177006
0.176306
0.175582
0.174833
0.174061
0.173263
0.17244
0.171592
0.170721
0.169825
0.168908
0.167969
0.167011
0.166035
0.165043
0.164037
0.16302
0.161995
0.160965
0.159935
0.15891
0.157895
0.156896
0.155923
0.154984
0.154092
0.153259
0.152502
0.151839
0.151288
0.150879
0.150589
0.150586
0.226905
0.226118
0.225328
0.224533
0.223734
0.222931
0.222123
0.221311
0.220495
0.219674
0.218849
0.218021
0.217188
0.216352
0.215513
0.21467
0.213825
0.212977
0.212127
0.211275
0.210421
0.209566
0.208711
0.207855
0.207
0.206146
0.205294
0.204444
0.203597
0.202754
0.201916
0.201084
0.200258
0.199439
0.198628
0.197826
0.197035
0.196253
0.195483
0.194725
0.19398
0.193248
0.19253
0.191825
0.191135
0.190458
0.189796
0.189147
0.18851
0.187886
0.187273
0.186669
0.186072
0.185483
0.184897
0.184315
0.183733
0.18315
0.182564
0.181973
0.181375
0.180768
0.180151
0.17952
0.178875
0.178214
0.177534
0.176834
0.176113
0.17537
0.174603
0.173812
0.172997
0.172158
0.171294
0.170405
0.169493
0.168558
0.1676
0.166621
0.165622
0.164605
0.16357
0.16252
0.161457
0.160383
0.1593
0.158213
0.157124
0.156038
0.15496
0.153897
0.152855
0.151844
0.150874
0.149957
0.149108
0.148337
0.147698
0.146931
0.226918
0.226135
0.22535
0.22456
0.223768
0.222971
0.222171
0.221367
0.22056
0.219749
0.218934
0.218117
0.217296
0.216472
0.215645
0.214816
0.213984
0.21315
0.212314
0.211476
0.210637
0.209797
0.208956
0.208115
0.207274
0.206434
0.205595
0.204757
0.203923
0.203091
0.202262
0.201438
0.200619
0.199806
0.199
0.198201
0.197409
0.196627
0.195854
0.195091
0.194339
0.193598
0.192868
0.192151
0.191446
0.190754
0.190073
0.189405
0.188748
0.188101
0.187465
0.186837
0.186217
0.185602
0.184992
0.184384
0.183777
0.18317
0.18256
0.181945
0.181325
0.180696
0.180057
0.179407
0.178743
0.178063
0.177366
0.17665
0.175914
0.175156
0.174377
0.173574
0.172747
0.171897
0.171022
0.170124
0.169202
0.168256
0.167288
0.166297
0.165286
0.164254
0.163204
0.162136
0.161052
0.159953
0.158842
0.157719
0.156589
0.155453
0.154316
0.15318
0.15205
0.150933
0.149835
0.148763
0.14773
0.146729
0.145869
0.1446
0.226915
0.226135
0.22535
0.224563
0.223773
0.222979
0.222182
0.221382
0.220579
0.219772
0.218963
0.218151
0.217336
0.216518
0.215698
0.214876
0.214052
0.213225
0.212397
0.211568
0.210737
0.209906
0.209073
0.208241
0.207409
0.206577
0.205746
0.204917
0.204089
0.203264
0.202442
0.201624
0.20081
0.200001
0.199197
0.1984
0.197609
0.196826
0.196052
0.195286
0.194529
0.193782
0.193045
0.192319
0.191604
0.1909
0.190207
0.189524
0.188852
0.18819
0.187537
0.186891
0.186252
0.185619
0.18499
0.184364
0.183739
0.183113
0.182484
0.181852
0.181214
0.180569
0.179914
0.179248
0.17857
0.177877
0.177167
0.17644
0.175693
0.174926
0.174137
0.173326
0.172492
0.171635
0.170754
0.16985
0.168922
0.16797
0.166996
0.166
0.164982
0.163943
0.162885
0.161807
0.160712
0.1596
0.158474
0.157333
0.15618
0.155017
0.153846
0.15267
0.151491
0.150313
0.149141
0.147978
0.146836
0.145697
0.144705
0.14312
0.226908
0.226127
0.225343
0.224556
0.223767
0.222974
0.222178
0.221379
0.220577
0.219772
0.218965
0.218155
0.217342
0.216527
0.21571
0.214891
0.21407
0.213247
0.212423
0.211597
0.210771
0.209943
0.209115
0.208287
0.207459
0.206631
0.205805
0.204979
0.204155
0.203334
0.202515
0.2017
0.200888
0.20008
0.199278
0.198481
0.19769
0.196906
0.196129
0.19536
0.194599
0.193847
0.193105
0.192372
0.191649
0.190936
0.190233
0.189539
0.188856
0.188181
0.187515
0.186856
0.186203
0.185556
0.184912
0.184271
0.183632
0.182991
0.182349
0.181704
0.181052
0.180394
0.179728
0.179051
0.178361
0.177658
0.176939
0.176203
0.175449
0.174675
0.17388
0.173064
0.172225
0.171364
0.170479
0.169571
0.16864
0.167686
0.166709
0.16571
0.164689
0.163647
0.162584
0.161502
0.160402
0.159284
0.158149
0.156999
0.155834
0.154657
0.153468
0.15227
0.151064
0.149853
0.14864
0.147427
0.146224
0.145004
0.143936
0.142162
0.226899
0.226118
0.225334
0.224547
0.223756
0.222963
0.222167
0.221368
0.220567
0.219762
0.218955
0.218146
0.217334
0.216519
0.215703
0.214885
0.214064
0.213243
0.212419
0.211595
0.21077
0.209943
0.209117
0.20829
0.207463
0.206636
0.205811
0.204986
0.204163
0.203343
0.202524
0.201709
0.200897
0.200089
0.199285
0.198487
0.197694
0.196908
0.196128
0.195355
0.19459
0.193834
0.193086
0.192347
0.191617
0.190896
0.190184
0.189482
0.188789
0.188104
0.187427
0.186757
0.186093
0.185434
0.184779
0.184127
0.183475
0.182824
0.182171
0.181514
0.180853
0.180185
0.179509
0.178823
0.178125
0.177414
0.176688
0.175946
0.175186
0.174407
0.173608
0.172788
0.171946
0.171082
0.170195
0.169286
0.168353
0.167397
0.166419
0.165419
0.164396
0.163353
0.162289
0.161205
0.160102
0.158981
0.157842
0.156687
0.155517
0.154332
0.153134
0.151925
0.150705
0.149476
0.148241
0.147
0.145764
0.1445
0.14339
0.141507
0.22689
0.226109
0.225324
0.224536
0.223746
0.222952
0.222155
0.221356
0.220554
0.219749
0.218941
0.218131
0.217319
0.216504
0.215688
0.214869
0.214048
0.213226
0.212403
0.211578
0.210752
0.209925
0.209098
0.208271
0.207443
0.206616
0.205789
0.204964
0.20414
0.203318
0.202498
0.201681
0.200867
0.200057
0.199251
0.19845
0.197655
0.196864
0.196081
0.195304
0.194534
0.193772
0.193019
0.192273
0.191536
0.190808
0.190089
0.189379
0.188677
0.187983
0.187296
0.186617
0.185943
0.185275
0.18461
0.183948
0.183287
0.182626
0.181963
0.181298
0.180628
0.179952
0.179268
0.178575
0.17787
0.177153
0.176422
0.175675
0.17491
0.174128
0.173325
0.172503
0.171659
0.170793
0.169905
0.168994
0.16806
0.167104
0.166125
0.165124
0.164101
0.163057
0.161992
0.160907
0.159802
0.15868
0.157539
0.156381
0.155208
0.154019
0.152817
0.151601
0.150374
0.149136
0.147889
0.146634
0.145379
0.144092
0.14296
0.141017
0.226882
0.2261
0.225315
0.224526
0.223735
0.22294
0.222143
0.221343
0.22054
0.219735
0.218927
0.218116
0.217303
0.216487
0.21567
0.21485
0.214029
0.213205
0.212381
0.211555
0.210728
0.2099
0.209071
0.208242
0.207413
0.206584
0.205755
0.204928
0.204102
0.203277
0.202455
0.201635
0.200819
0.200005
0.199196
0.198391
0.197591
0.196797
0.196009
0.195227
0.194452
0.193685
0.192925
0.192173
0.19143
0.190694
0.189968
0.18925
0.188539
0.187837
0.187142
0.186454
0.185771
0.185094
0.18442
0.183749
0.18308
0.182411
0.18174
0.181067
0.180389
0.179706
0.179015
0.178316
0.177606
0.176883
0.176147
0.175396
0.174628
0.173842
0.173037
0.172212
0.171366
0.170498
0.169609
0.168697