/*--------------------------------*- C++ -*----------------------------------*\
| =========                 |                                                 |
| \\      /  F ield         | OpenFOAM: The Open Source CFD Toolbox           |
|  \\    /   O peration     | Version:  2.1.1                                 |
|   \\  /    A nd           | Web:      www.OpenFOAM.org                      |
|    \\/     M anipulation  |                                                 |
\*---------------------------------------------------------------------------*/
FoamFile
{
    version     2.0;
    format      ascii;
    class       volScalarField;
    location    "0.195";
    object      nut;
}
// * * * * * * * * * * * * * * * * * * * * * * * * * * * * * * * * * * * * * //

dimensions      [0 2 -1 0 0 0 0];

internalField   nonuniform List<scalar> 
6820
(
4.96025e-05
5.47044e-05
5.94497e-05
6.37667e-05
6.76166e-05
7.09775e-05
7.38477e-05
7.62452e-05
7.8202e-05
7.976e-05
8.09655e-05
8.18661e-05
8.25081e-05
8.29343e-05
8.31833e-05
8.32893e-05
8.32816e-05
8.3185e-05
8.30203e-05
8.28047e-05
8.25522e-05
8.22743e-05
8.19799e-05
8.16764e-05
8.13692e-05
8.10629e-05
8.07604e-05
8.04648e-05
8.01742e-05
7.99061e-05
7.95808e-05
7.95825e-05
7.80417e-05
0.000540296
0.000304969
0.000219955
0.000171552
0.000140513
0.00011965
0.000105124
9.47405e-05
8.71764e-05
8.15953e-05
7.74471e-05
7.43579e-05
7.20672e-05
7.0389e-05
6.91878e-05
6.83634e-05
6.78401e-05
6.75604e-05
6.74794e-05
6.7562e-05
6.77801e-05
6.81112e-05
6.85367e-05
6.90411e-05
6.96115e-05
7.02369e-05
7.09074e-05
7.16142e-05
7.23497e-05
7.3102e-05
7.38687e-05
7.46137e-05
7.5292e-05
0.00105857
0.000836089
0.000679241
0.000569618
0.000490058
0.000430122
0.000383707
0.000346861
0.000316961
0.000292245
0.000271497
0.000253857
0.000238697
0.000225548
0.000214056
0.000203944
0.000194996
0.000187037
0.000179927
0.000173551
0.000167815
0.000162639
0.000157956
0.00015371
0.000149852
0.000146342
0.000143143
0.000140225
0.000137561
0.000135131
0.000132897
0.000130907
0.000128856
0.00115953
0.00109653
0.00101167
0.00092642
0.000849816
0.000783627
0.000727075
0.000678748
0.000637231
0.000601301
0.000569954
0.000542387
0.000517961
0.000496165
0.000476592
0.000458915
0.000442866
0.000428227
0.000414819
0.000402491
0.000391116
0.000380588
0.000370816
0.00036172
0.000353235
0.000345302
0.000337871
0.000330899
0.000324353
0.000318203
0.000312433
0.00030703
0.000302
0.00116966
0.00115863
0.00113363
0.00109757
0.00105569
0.0010122
0.000969675
0.000929418
0.000891977
0.000857477
0.000825827
0.000796836
0.000770278
0.000745919
0.000723539
0.000702934
0.000683921
0.000666337
0.000650036
0.000634891
0.00062079
0.000607631
0.000595328
0.0005838
0.000572979
0.000562803
0.000553216
0.000544169
0.000535619
0.000527526
0.00051986
0.000512596
0.000505714
0.00117006
0.00116839
0.00116306
0.00115261
0.00113713
0.00111767
0.00109554
0.00107191
0.00104771
0.0010236
0.000999996
0.000977182
0.000955312
0.000934465
0.000914669
0.000895915
0.000878178
0.000861415
0.000845579
0.000830618
0.000816481
0.000803116
0.000790472
0.000778503
0.000767163
0.000756409
0.000746201
0.000736502
0.000727276
0.000718492
0.000710122
0.000702144
0.000694534
0.00116996
0.00116938
0.00116821
0.00116569
0.00116123
0.00115458
0.00114584
0.00113528
0.00112328
0.00111023
0.00109648
0.00108233
0.00106802
0.00105372
0.00103957
0.00102569
0.00101214
0.000998978
0.000986229
0.000973914
0.000962043
0.000950616
0.000939631
0.000929076
0.000918942
0.000909214
0.000899878
0.000890918
0.000882317
0.000874061
0.000866134
0.000858525
0.000851223
0.00116994
0.0011694
0.00116883
0.00116803
0.00116674
0.00116472
0.0011618
0.00115791
0.00115304
0.00114728
0.00114074
0.00113354
0.00112581
0.00111769
0.00110928
0.00110068
0.00109198
0.00108325
0.00107454
0.0010659
0.00105738
0.00104899
0.00104077
0.00103272
0.00102487
0.00101721
0.00100976
0.00100252
0.000995484
0.000988659
0.00098204
0.000975629
0.000969422
0.00116994
0.00116939
0.00116886
0.00116832
0.0011677
0.00116692
0.00116588
0.00116449
0.00116269
0.00116043
0.00115772
0.00115455
0.00115097
0.00114701
0.00114272
0.00113814
0.00113333
0.00112833
0.00112318
0.00111792
0.0011126
0.00110723
0.00110184
0.00109646
0.00109111
0.00108581
0.00108056
0.00107538
0.00107027
0.00106526
0.00106034
0.00105552
0.0010508
0.00116994
0.00116938
0.00116885
0.00116833
0.00116782
0.00116729
0.00116671
0.00116605
0.00116526
0.00116432
0.00116319
0.00116185
0.0011603
0.00115852
0.00115654
0.00115434
0.00115196
0.00114941
0.0011467
0.00114385
0.00114089
0.00113783
0.00113469
0.00113149
0.00112824
0.00112495
0.00112164
0.00111832
0.001115
0.0011117
0.0011084
0.00110514
0.00110191
0.00116994
0.00116938
0.00116884
0.00116832
0.00116782
0.00116732
0.00116683
0.00116634
0.00116582
0.00116527
0.00116466
0.00116399
0.00116324
0.0011624
0.00116146
0.00116041
0.00115927
0.00115802
0.00115668
0.00115523
0.0011537
0.00115209
0.00115041
0.00114865
0.00114684
0.00114498
0.00114307
0.00114113
0.00113916
0.00113717
0.00113516
0.00113314
0.00113112
0.00116994
0.00116938
0.00116884
0.00116832
0.00116781
0.00116732
0.00116684
0.00116637
0.00116591
0.00116545
0.00116499
0.00116451
0.00116402
0.0011635
0.00116296
0.00116237
0.00116175
0.00116109
0.00116038
0.00115962
0.00115882
0.00115797
0.00115707
0.00115614
0.00115516
0.00115414
0.00115309
0.00115201
0.0011509
0.00114977
0.00114861
0.00114744
0.00114626
0.00116994
0.00116938
0.00116884
0.00116832
0.00116781
0.00116732
0.00116684
0.00116637
0.00116592
0.00116547
0.00116504
0.00116461
0.00116419
0.00116377
0.00116334
0.00116291
0.00116248
0.00116203
0.00116157
0.00116109
0.0011606
0.0011601
0.00115957
0.00115902
0.00115846
0.00115788
0.00115728
0.00115666
0.00115602
0.00115537
0.00115471
0.00115403
0.00115335
0.00116994
0.00116938
0.00116884
0.00116832
0.00116781
0.00116731
0.00116683
0.00116636
0.00116591
0.00116547
0.00116504
0.00116462
0.00116421
0.00116381
0.00116342
0.00116303
0.00116265
0.00116227
0.0011619
0.00116152
0.00116115
0.00116077
0.00116039
0.00116
0.00115962
0.00115922
0.00115883
0.00115842
0.00115801
0.0011576
0.00115718
0.00115676
0.00115633
0.00116994
0.00116938
0.00116884
0.00116832
0.00116781
0.00116731
0.00116683
0.00116636
0.00116591
0.00116546
0.00116503
0.00116462
0.00116421
0.00116381
0.00116343
0.00116305
0.00116268
0.00116232
0.00116197
0.00116162
0.00116128
0.00116095
0.00116062
0.00116029
0.00115997
0.00115965
0.00115933
0.00115901
0.0011587
0.00115839
0.00115808
0.00115777
0.00115746
0.00116994
0.00116938
0.00116884
0.00116831
0.0011678
0.00116731
0.00116683
0.00116636
0.0011659
0.00116546
0.00116503
0.00116461
0.0011642
0.00116381
0.00116342
0.00116305
0.00116268
0.00116232
0.00116198
0.00116164
0.00116131
0.00116098
0.00116067
0.00116036
0.00116005
0.00115976
0.00115947
0.00115918
0.0011589
0.00115863
0.00115836
0.00115809
0.00115783
0.00116994
0.00116938
0.00116884
0.00116831
0.0011678
0.00116731
0.00116683
0.00116636
0.0011659
0.00116546
0.00116503
0.00116461
0.0011642
0.0011638
0.00116342
0.00116304
0.00116267
0.00116232
0.00116197
0.00116163
0.0011613
0.00116098
0.00116067
0.00116036
0.00116007
0.00115978
0.00115949
0.00115922
0.00115895
0.00115868
0.00115843
0.00115817
0.00115793
0.00116994
0.00116938
0.00116884
0.00116831
0.0011678
0.00116731
0.00116682
0.00116635
0.0011659
0.00116545
0.00116502
0.0011646
0.0011642
0.0011638
0.00116341
0.00116303
0.00116267
0.00116231
0.00116196
0.00116163
0.0011613
0.00116097
0.00116066
0.00116036
0.00116006
0.00115977
0.00115949
0.00115922
0.00115895
0.00115869
0.00115843
0.00115819
0.00115794
0.00116994
0.00116938
0.00116884
0.00116831
0.0011678
0.0011673
0.00116682
0.00116635
0.0011659
0.00116545
0.00116502
0.0011646
0.00116419
0.00116379
0.00116341
0.00116303
0.00116266
0.00116231
0.00116196
0.00116162
0.00116129
0.00116097
0.00116065
0.00116035
0.00116005
0.00115976
0.00115948
0.00115921
0.00115894
0.00115868
0.00115842
0.00115818
0.00115794
0.00116994
0.00116938
0.00116884
0.00116831
0.0011678
0.0011673
0.00116682
0.00116635
0.00116589
0.00116545
0.00116502
0.0011646
0.00116419
0.00116379
0.0011634
0.00116302
0.00116266
0.0011623
0.00116195
0.00116161
0.00116128
0.00116096
0.00116065
0.00116034
0.00116004
0.00115975
0.00115947
0.0011592
0.00115893
0.00115867
0.00115841
0.00115816
0.00115792
0.00116994
0.00116938
0.00116884
0.00116831
0.0011678
0.0011673
0.00116682
0.00116635
0.00116589
0.00116545
0.00116502
0.00116459
0.00116419
0.00116379
0.0011634
0.00116302
0.00116265
0.00116229
0.00116195
0.00116161
0.00116128
0.00116095
0.00116064
0.00116033
0.00116004
0.00115974
0.00115946
0.00115919
0.00115892
0.00115866
0.0011584
0.00115815
0.00115791
0.00116994
0.00116938
0.00116884
0.00116831
0.0011678
0.0011673
0.00116682
0.00116635
0.00116589
0.00116545
0.00116501
0.00116459
0.00116418
0.00116378
0.0011634
0.00116302
0.00116265
0.00116229
0.00116194
0.0011616
0.00116127
0.00116095
0.00116063
0.00116033
0.00116003
0.00115974
0.00115945
0.00115918
0.00115891
0.00115865
0.00115839
0.00115814
0.0011579
0.00116994
0.00116938
0.00116884
0.00116831
0.0011678
0.0011673
0.00116682
0.00116635
0.00116589
0.00116545
0.00116501
0.00116459
0.00116418
0.00116378
0.00116339
0.00116301
0.00116265
0.00116229
0.00116194
0.0011616
0.00116126
0.00116094
0.00116063
0.00116032
0.00116002
0.00115973
0.00115945
0.00115917
0.0011589
0.00115864
0.00115838
0.00115813
0.00115789
0.00116994
0.00116938
0.00116884
0.00116831
0.0011678
0.0011673
0.00116682
0.00116635
0.00116589
0.00116544
0.00116501
0.00116459
0.00116418
0.00116378
0.00116339
0.00116301
0.00116264
0.00116228
0.00116193
0.00116159
0.00116126
0.00116094
0.00116062
0.00116031
0.00116001
0.00115972
0.00115944
0.00115916
0.00115889
0.00115863
0.00115837
0.00115812
0.00115788
0.00116994
0.00116938
0.00116884
0.00116831
0.0011678
0.0011673
0.00116682
0.00116635
0.00116589
0.00116544
0.00116501
0.00116459
0.00116418
0.00116378
0.00116339
0.00116301
0.00116264
0.00116228
0.00116193
0.00116159
0.00116126
0.00116093
0.00116062
0.00116031
0.00116001
0.00115972
0.00115943
0.00115915
0.00115888
0.00115862
0.00115836
0.00115811
0.00115787
0.00116994
0.00116938
0.00116884
0.00116831
0.0011678
0.0011673
0.00116682
0.00116635
0.00116589
0.00116544
0.00116501
0.00116459
0.00116418
0.00116378
0.00116339
0.00116301
0.00116264
0.00116228
0.00116193
0.00116159
0.00116125
0.00116093
0.00116061
0.0011603
0.00116
0.00115971
0.00115943
0.00115915
0.00115888
0.00115861
0.00115835
0.0011581
0.00115786
0.00116994
0.00116938
0.00116884
0.00116831
0.0011678
0.0011673
0.00116682
0.00116635
0.00116589
0.00116544
0.00116501
0.00116459
0.00116417
0.00116377
0.00116338
0.001163
0.00116264
0.00116228
0.00116192
0.00116158
0.00116125
0.00116092
0.00116061
0.0011603
0.00116
0.00115971
0.00115942
0.00115914
0.00115887
0.0011586
0.00115835
0.00115809
0.00115785
0.00116994
0.00116938
0.00116884
0.00116831
0.0011678
0.0011673
0.00116682
0.00116635
0.00116589
0.00116544
0.00116501
0.00116458
0.00116417
0.00116377
0.00116338
0.001163
0.00116263
0.00116227
0.00116192
0.00116158
0.00116125
0.00116092
0.00116061
0.0011603
0.00116
0.0011597
0.00115942
0.00115914
0.00115886
0.0011586
0.00115834
0.00115809
0.00115784
0.00116994
0.00116938
0.00116884
0.00116831
0.0011678
0.0011673
0.00116682
0.00116634
0.00116589
0.00116544
0.00116501
0.00116458
0.00116417
0.00116377
0.00116338
0.001163
0.00116263
0.00116227
0.00116192
0.00116158
0.00116125
0.00116092
0.0011606
0.00116029
0.00115999
0.0011597
0.00115941
0.00115913
0.00115886
0.00115859
0.00115834
0.00115808
0.00115784
0.00116994
0.00116938
0.00116884
0.00116831
0.0011678
0.0011673
0.00116682
0.00116635
0.00116589
0.00116544
0.00116501
0.00116459
0.00116417
0.00116377
0.00116338
0.001163
0.00116263
0.00116227
0.00116192
0.00116158
0.00116125
0.00116092
0.0011606
0.00116029
0.00115999
0.0011597
0.00115941
0.00115913
0.00115886
0.00115859
0.00115833
0.00115808
0.00115783
0.00116994
0.00116938
0.00116884
0.00116831
0.0011678
0.0011673
0.00116682
0.00116635
0.00116589
0.00116544
0.00116501
0.00116459
0.00116418
0.00116378
0.00116339
0.00116301
0.00116264
0.00116228
0.00116192
0.00116158
0.00116125
0.00116092
0.00116061
0.0011603
0.00115999
0.0011597
0.00115941
0.00115913
0.00115885
0.00115859
0.00115833
0.00115807
0.00115782
0.00116994
0.00116938
0.00116884
0.00116831
0.0011678
0.00116731
0.00116682
0.00116635
0.0011659
0.00116545
0.00116502
0.0011646
0.00116418
0.00116378
0.00116339
0.00116301
0.00116264
0.00116228
0.00116193
0.00116159
0.00116125
0.00116092
0.0011606
0.00116029
0.00115998
0.00115968
0.00115939
0.0011591
0.00115882
0.00115855
0.00115828
0.00115801
0.00115775
0.00116994
0.00116938
0.00116884
0.00116831
0.00116781
0.00116731
0.00116683
0.00116636
0.0011659
0.00116546
0.00116503
0.0011646
0.00116419
0.00116379
0.0011634
0.00116301
0.00116264
0.00116227
0.00116191
0.00116155
0.0011612
0.00116086
0.00116052
0.00116019
0.00115986
0.00115953
0.00115921
0.0011589
0.00115859
0.00115828
0.00115797
0.00115767
0.00115737
0.00116994
0.00116938
0.00116884
0.00116833
0.00116782
0.00116733
0.00116685
0.00116638
0.00116593
0.00116548
0.00116503
0.00116459
0.00116416
0.00116373
0.00116331
0.00116288
0.00116246
0.00116204
0.00116161
0.00116119
0.00116076
0.00116033
0.0011599
0.00115946
0.00115902
0.00115858
0.00115814
0.00115769
0.00115724
0.00115678
0.00115632
0.00115586
0.0011554
0.00116994
0.00116939
0.00116886
0.00116835
0.00116784
0.00116733
0.00116683
0.00116632
0.00116581
0.00116528
0.00116473
0.00116417
0.00116358
0.00116297
0.00116233
0.00116166
0.00116096
0.00116024
0.00115948
0.0011587
0.00115789
0.00115706
0.0011562
0.00115531
0.00115441
0.00115348
0.00115254
0.00115158
0.0011506
0.00114961
0.00114861
0.0011476
0.00114658
0.00116995
0.0011694
0.00116886
0.00116828
0.00116765
0.00116694
0.00116612
0.00116519
0.00116413
0.00116294
0.00116162
0.00116016
0.00115858
0.00115687
0.00115505
0.00115313
0.0011511
0.00114898
0.00114678
0.00114451
0.00114218
0.0011398
0.00113737
0.0011349
0.00113241
0.00112989
0.00112735
0.00112481
0.00112225
0.0011197
0.00111716
0.00111462
0.00111209
0.00116996
0.00116916
0.00116786
0.00116595
0.00116343
0.00116029
0.00115656
0.00115226
0.00114746
0.0011422
0.00113657
0.00113061
0.0011244
0.00111798
0.00111141
0.00110474
0.001098
0.00109123
0.00108445
0.00107771
0.00107101
0.00106438
0.00105782
0.00105136
0.001045
0.00103875
0.00103262
0.00102661
0.00102073
0.00101497
0.00100934
0.00100385
0.000998479
0.00116831
0.00115866
0.001145
0.00112843
0.00110968
0.00108946
0.00106841
0.00104706
0.00102579
0.00100486
0.000984466
0.000964727
0.000945713
0.000927462
0.000909986
0.000893279
0.000877326
0.000862104
0.000847584
0.000833735
0.000820526
0.000807925
0.0007959
0.00078442
0.000773456
0.000762979
0.000752964
0.000743384
0.000734215
0.000725436
0.000717025
0.000708962
0.000701227
0.00107567
0.000936197
0.000835613
0.00075691
0.000692132
0.000638401
0.00059351
0.000555633
0.00052333
0.000495499
0.000471291
0.000450054
0.000431282
0.000414576
0.000399621
0.000386162
0.000373993
0.000362943
0.000352872
0.000343662
0.000335214
0.000327443
0.000320276
0.000313651
0.000307513
0.000301816
0.000296518
0.000291582
0.000286976
0.000282672
0.000278645
0.00027487
0.000271327
0.000142979
0.000146644
0.000150174
0.000153551
0.000156773
0.000159846
0.000162776
0.000165567
0.000168225
0.000170755
0.000173161
0.00017545
0.000177625
0.000179691
0.000181654
0.000183517
0.000185285
0.000186963
0.000188554
0.000190064
0.000191495
0.000192851
0.000194136
0.000195355
0.000196509
0.000197602
0.000198638
0.00019962
0.000200549
0.000201429
0.000202263
0.000203052
0.0002038
9.09953e-05
0.000110286
0.000133256
0.000160438
0.000191572
0.000225336
0.000259889
0.000293589
0.000325417
0.000355116
0.00038302
0.000409766
0.000435989
0.000462133
0.000488395
0.000514776
0.000541186
0.000567547
0.000593856
0.000620187
0.00064668
0.000673488
0.000700752
0.000728569
0.000756984
0.000786003
0.000815597
0.000845721
0.000876319
0.000907328
0.000938676
0.000970279
0.00100203
0.00103382
0.00106548
0.00109686
0.00112777
0.001158
0.00118734
0.00121556
0.00124241
0.00126767
0.00129108
0.00131241
0.00133143
0.00134794
0.00136175
0.00137272
0.00138076
0.0013858
0.00138785
0.00138696
0.00138324
0.00137685
0.00136798
0.00135689
0.00134387
0.00132926
0.00131344
0.0012968
0.00127979
0.00126287
0.00124647
0.00123103
0.00121695
0.00120455
0.0011941
0.00118582
0.00117982
0.00117615
0.00117481
0.00117571
0.00117876
0.00118382
0.00119074
0.00119937
0.00120957
0.0012212
0.00123416
0.00124838
0.00126378
0.00128034
0.00129806
0.00131696
0.00133707
0.00135847
0.00138123
0.00140543
0.00143118
0.00145856
0.00148767
0.00151855
0.00155126
0.00158577
0.00162204
0.00165992
0.00169912
0.00173991
0.00177776
0.00183868
7.64546e-05
7.85501e-05
8.18588e-05
8.70084e-05
9.47302e-05
0.000105729
0.000120546
0.000139455
0.000162362
0.000188774
0.000217871
0.000248637
0.000280038
0.00031119
0.000341484
0.000370631
0.000398634
0.000425704
0.000452152
0.000478288
0.000504359
0.000530514
0.000556814
0.000583258
0.000609813
0.00063645
0.000663148
0.000689903
0.000716717
0.000743588
0.000770497
0.000797405
0.000824246
0.000850929
0.000877338
0.000903339
0.00092878
0.000953495
0.000977308
0.00100003
0.00102147
0.00104143
0.00105971
0.00107612
0.00109049
0.00110264
0.00111244
0.0011198
0.00112467
0.00112705
0.00112699
0.00112462
0.00112009
0.00111363
0.00110551
0.00109603
0.00108555
0.00107445
0.00106311
0.00105197
0.00104145
0.00103193
0.00102381
0.00101739
0.00101293
0.00101058
0.00101044
0.00101249
0.00101665
0.00102279
0.00103073
0.00104026
0.00105117
0.00106325
0.00107632
0.00109022
0.00110483
0.00112004
0.00113581
0.00115211
0.00116895
0.00118636
0.00120441
0.00122319
0.0012428
0.00126336
0.00128502
0.00130793
0.00133223
0.00135807
0.0013856
0.00141493
0.00144616
0.00147931
0.00151437
0.00155126
0.0015897
0.00163002
0.00166761
0.00172878
0.000126821
0.000124816
0.00012279
0.000120541
0.000118061
0.000115535
0.000113554
0.000112602
0.000113111
0.000115583
0.000120539
0.000128431
0.000139578
0.000154111
0.000171959
0.000192837
0.000216285
0.000241712
0.000268471
0.00029594
0.000323588
0.000351026
0.000378018
0.000404472
0.000430399
0.000455874
0.000480991
0.00050583
0.000530442
0.000554838
0.000578998
0.000602876
0.000626406
0.000649512
0.000672108
0.0006941
0.000715384
0.000735851
0.000755378
0.000773838
0.000791097
0.000807021
0.000821475
0.000834336
0.000845492
0.000854854
0.000862365
0.000868005
0.000871804
0.000873846
0.000874271
0.000873278
0.000871118
0.000868087
0.000864518
0.000860768
0.000857207
0.000854207
0.000852128
0.000851304
0.000852025
0.000854521
0.000858949
0.000865376
0.00087378
0.000884055
0.000896018
0.000909437
0.000924046
0.00093957
0.000955744
0.000972327
0.000989112
0.00100593
0.00102267
0.00103923
0.00105559
0.00107172
0.00108767
0.00110349
0.00111926
0.00113507
0.00115107
0.00116739
0.00118419
0.00120165
0.00121996
0.00123931
0.00125992
0.00128198
0.0013057
0.00133125
0.00135879
0.00138842
0.0014202
0.00145409
0.00148986
0.00152791
0.00156371
0.00162297
0.000296567
0.000290561
0.000284568
0.000278487
0.000272154
0.000265363
0.000257983
0.000249893
0.000241335
0.000232486
0.00022347
0.000214516
0.000205988
0.000198352
0.000192125
0.000187813
0.000185856
0.000186583
0.000190194
0.000196752
0.000206188
0.000218313
0.000232843
0.00024942
0.000267649
0.000287123
0.000307459
0.000328316
0.000349408
0.000370514
0.000391465
0.00041214
0.00043245
0.000452325
0.0004717
0.000490513
0.000508697
0.000526179
0.000542883
0.000558732
0.000573651
0.000587573
0.000600442
0.000612217
0.000622879
0.000632437
0.000640933
0.000648448
0.000655111
0.000661095
0.000666624
0.00067196
0.000677394
0.000683235
0.00068979
0.000697344
0.000706151
0.000716408
0.000728255
0.000741756
0.0007569
0.000773598
0.000791688
0.000810949
0.000831113
0.000851888
0.000872979
0.000894104
0.00091501
0.000935484
0.000955358
0.000974507
0.000992853
0.00101035
0.00102701
0.00104283
0.00105787
0.00107221
0.00108592
0.00109911
0.0011119
0.00112441
0.00113679
0.00114918
0.00116177
0.00117474
0.00118829
0.00120263
0.00121801
0.00123466
0.00125283
0.00127276
0.00129468
0.00131877
0.00134517
0.00137395
0.00140498
0.00143867
0.0014709
0.00152556
0.000498163
0.000489913
0.000481915
0.000474119
0.000466458
0.000458835
0.000451127
0.000443184
0.00043487
0.000426205
0.000417107
0.000407481
0.000397247
0.000386364
0.000374849
0.000362802
0.000350411
0.000337957
0.000325796
0.000314329
0.000303968
0.000295092
0.00028802
0.00028299
0.00028015
0.000279555
0.000281177
0.000284916
0.000290613
0.000298066
0.000307046
0.000317312
0.000328628
0.000340766
0.000353522
0.000366714
0.000380185
0.000393805
0.000407469
0.000421097
0.000434632
0.000448039
0.000461311
0.000474463
0.000487536
0.000500599
0.00051375
0.000527112
0.000540832
0.000555077
0.000570022
0.000585837
0.000602675
0.000620654
0.000639844
0.000660257
0.000681847
0.000704508
0.000728082
0.00075237
0.000777141
0.000802146
0.000827131
0.000851847
0.000876064
0.00089958
0.000922225
0.000943869
0.00096442
0.000983825
0.00100206
0.00101914
0.00103509
0.00104995
0.0010638
0.00107671
0.00108876
0.00110003
0.00111061
0.00112061
0.00113011
0.00113923
0.00114808
0.00115676
0.00116543
0.00117422
0.00118329
0.00119285
0.00120308
0.00121424
0.00122656
0.00124034
0.00125583
0.00127331
0.00129303
0.00131514
0.00133971
0.00136714
0.00139409
0.00144121
0.000686122
0.000676895
0.000667953
0.000659287
0.000650871
0.000642667
0.000634631
0.000626697
0.000618805
0.000610914
0.000602972
0.000594921
0.000586692
0.000578217
0.000569424
0.000560249
0.00055064
0.000540569
0.000530037
0.000519087
0.000507806
0.000496324
0.000484815
0.000473486
0.000462567
0.000452301
0.000442922
0.000434651
0.000427674
0.000422142
0.000418159
0.000415786
0.000415042
0.000415912
0.000418351
0.000422298
0.000427676
0.000434406
0.000442412
0.000451625
0.000461984
0.000473445
0.000485976
0.000499559
0.00051419
0.000529873
0.000546618
0.000564436
0.000583333
0.000603301
0.000624313
0.000646316
0.000669227
0.00069293
0.000717278
0.000742098
0.000767199
0.00079238
0.000817435
0.000842171
0.000866402
0.000889963
0.000912713
0.000934531
0.000955326
0.000975032
0.000993609
0.00101104
0.00102734
0.00104253
0.00105666
0.00106977
0.00108193
0.00109321
0.00110368
0.0011134
0.00112246
0.00113092
0.00113885
0.00114632
0.00115339
0.00116013
0.00116661
0.0011729
0.00117907
0.00118521
0.00119141
0.0011978
0.00120452
0.00121173
0.00121963
0.00122845
0.00123846
0.00124995
0.0012632
0.00127849
0.00129604
0.00131624
0.00133687
0.00137409
0.000843085
0.000834078
0.00082527
0.000816666
0.000808264
0.000800056
0.000792033
0.000784175
0.000776469
0.0007689
0.000761449
0.000754093
0.000746811
0.000739578
0.000732366
0.000725144
0.000717881
0.000710544
0.000703105
0.00069554
0.000687837
0.000679997
0.000672039
0.000664003
0.000655948
0.000647959
0.000640139
0.00063261
0.000625507
0.000618972
0.000613152
0.000608189
0.000604213
0.000601345
0.000599685
0.000599319
0.000600312
0.000602713
0.000606552
0.000611846
0.000618598
0.0006268
0.000636429
0.000647456
0.000659839
0.000673522
0.00068844
0.000704514
0.000721648
0.000739732
0.000758637
0.000778222
0.000798329
0.000818794
0.000839446
0.000860115
0.000880636
0.000900857
0.000920639
0.000939861
0.00095842
0.000976233
0.000993237
0.00100938
0.00102465
0.00103902
0.0010525
0.0010651
0.00107686
0.00108781
0.00109799
0.00110747
0.00111628
0.0011245
0.00113216
0.00113934
0.00114608
0.00115243
0.00115845
0.00116418
0.00116967
0.00117496
0.0011801
0.00118511
0.00119005
0.00119494
0.00119985
0.00120482
0.00120991
0.00121522
0.00122084
0.00122691
0.00123361
0.00124115
0.00124977
0.00125975
0.00127138
0.00128498
0.00129951
0.00132617
0.000962438
0.000954619
0.000946879
0.000939231
0.000931687
0.000924252
0.000916931
0.000909725
0.000902636
0.000895667
0.000888817
0.000882087
0.000875477
0.000868988
0.00086262
0.00085637
0.000850235
0.000844212
0.000838295
0.000832478
0.000826757
0.000821129
0.000815595
0.000810164
0.00080485
0.000799677
0.000794679
0.000789902
0.000785402
0.000781245
0.000777505
0.000774265
0.000771608
0.000769623
0.000768393
0.000767999
0.000768513
0.000770002
0.000772517
0.000776101
0.000780781
0.000786571
0.000793468
0.000801457
0.000810503
0.00082056
0.000831563
0.000843435
0.000856085
0.000869408
0.000883291
0.000897611
0.00091224
0.000927049
0.000941912
0.000956707
0.000971322
0.000985657
0.000999624
0.00101315
0.00102617
0.00103865
0.00105054
0.00106183
0.0010725
0.00108256
0.00109201
0.00110086
0.00110915
0.0011169
0.00112414
0.00113091
0.00113724
0.00114319
0.00114878
0.00115406
0.00115907
0.00116385
0.00116844
0.00117287
0.0011772
0.00118144
0.00118563
0.00118981
0.001194
0.00119824
0.00120255
0.00120695
0.00121147
0.00121615
0.00122101
0.00122612
0.00123153
0.00123735
0.00124372
0.00125077
0.00125877
0.00126787
0.00127783
0.00129566
0.00104543
0.00103934
0.00103324
0.00102712
0.00102102
0.00101493
0.00100886
0.00100283
0.000996847
0.000990914
0.000985042
0.000979242
0.000973522
0.000967893
0.000962365
0.000956948
0.000951652
0.000946489
0.000941466
0.000936594
0.000931881
0.000927335
0.000922967
0.000918786
0.000914804
0.000911037
0.000907502
0.000904221
0.000901221
0.000898532
0.00089619
0.000894233
0.000892706
0.000891652
0.000891118
0.000891148
0.000891787
0.000893074
0.000895045
0.000897727
0.00090114
0.000905297
0.000910198
0.000915833
0.000922181
0.000929211
0.000936878
0.000945129
0.000953901
0.000963121
0.000972712
0.000982589
0.000992666
0.00100286
0.00101308
0.00102325
0.0010333
0.00104317
0.00105279
0.00106212
0.00107112
0.00107977
0.00108803
0.0010959
0.00110337
0.00111043
0.00111709
0.00112335
0.00112924
0.00113477
0.00113996
0.00114483
0.00114941
0.00115373
0.00115781
0.00116169
0.00116539
0.00116895
0.00117239
0.00117576
0.00117907
0.00118237
0.00118569
0.00118906
0.0011925
0.00119607
0.00119977
0.00120365
0.00120772
0.00121202
0.00121655
0.00122133
0.00122639
0.00123174
0.00123742
0.00124346
0.00124999
0.001257
0.00126448
0.00127693
0.00109818
0.0010939
0.00108954
0.00108511
0.00108062
0.00107609
0.00107151
0.00106691
0.00106229
0.00105765
0.00105302
0.0010484
0.0010438
0.00103924
0.00103472
0.00103026
0.00102588
0.00102158
0.00101739
0.00101331
0.00100937
0.00100557
0.00100193
0.000998464
0.00099519
0.000992121
0.000989273
0.000986663
0.000984311
0.000982234
0.000980454
0.000978992
0.000977872
0.000977117
0.00097675
0.000976796
0.000977275
0.00097821
0.000979616
0.000981509
0.000983899
0.000986789
0.000990178
0.00099406
0.000998418
0.00100323
0.00100847
0.00101411
0.00102009
0.00102638
0.00103292
0.00103966
0.00104655
0.00105352
0.00106053
0.00106752
0.00107444
0.00108126
0.00108793
0.00109443
0.00110072
0.00110679
0.00111262
0.00111819
0.0011235
0.00112855
0.00113333
0.00113785
0.00114211
0.00114612
0.0011499
0.00115346
0.00115681
0.00115997
0.00116296
0.0011658
0.00116852
0.00117113
0.00117366
0.00117613
0.00117857
0.00118102
0.00118349
0.00118603
0.00118866
0.00119143
0.00119436
0.00119749
0.00120087
0.00120452
0.00120848
0.00121276
0.0012174
0.0012224
0.00122776
0.00123348
0.00123957
0.00124598
0.00125246
0.00126285
0.00112875
0.00112599
0.00112315
0.00112021
0.00111719
0.0011141
0.00111094
0.00110771
0.00110443
0.0011011
0.00109773
0.00109433
0.0010909
0.00108747
0.00108403
0.00108061
0.00107721
0.00107384
0.00107053
0.00106727
0.0010641
0.00106102
0.00105805
0.0010552
0.00105249
0.00104993
0.00104754
0.00104534
0.00104334
0.00104156
0.00104001
0.0010387
0.00103767
0.00103691
0.00103644
0.00103629
0.00103645
0.00103694
0.00103778
0.00103896
0.00104049
0.00104237
0.00104461
0.00104718
0.00105009
0.00105332
0.00105685
0.00106065
0.0010647
0.00106897
0.00107343
0.00107804
0.00108276
0.00108756
0.00109241
0.00109726
0.00110209
0.00110687
0.00111157
0.00111617
0.00112065
0.00112499
0.00112919
0.00113322
0.00113709
0.00114078
0.00114429
0.00114762
0.00115077
0.00115375
0.00115656
0.0011592
0.00116169
0.00116404
0.00116625
0.00116835
0.00117034
0.00117224
0.00117406
0.00117584
0.00117758
0.00117931
0.00118105
0.00118284
0.00118469
0.00118666
0.00118876
0.00119104
0.00119354
0.00119631
0.00119939
0.00120282
0.00120665
0.00121091
0.00121561
0.00122076
0.00122635
0.00123241
0.00123832
0.00124826
0.00114485
0.00114319
0.00114146
0.00113964
0.00113775
0.00113579
0.00113375
0.00113165
0.00112948
0.00112726
0.00112498
0.00112265
0.00112028
0.00111787
0.00111543
0.00111297
0.00111051
0.00110804
0.00110558
0.00110314
0.00110073
0.00109837
0.00109606
0.00109382
0.00109167
0.00108961
0.00108767
0.00108584
0.00108416
0.00108263
0.00108127
0.00108008
0.00107909
0.0010783
0.00107772
0.00107737
0.00107725
0.00107737
0.00107774
0.00107837
0.00107925
0.00108038
0.00108177
0.0010834
0.00108528
0.0010874
0.00108973
0.00109227
0.00109499
0.00109789
0.00110093
0.0011041
0.00110736
0.0011107
0.0011141
0.00111751
0.00112094
0.00112435
0.00112772
0.00113105
0.00113431
0.00113749
0.00114059
0.00114358
0.00114646
0.00114923
0.00115187
0.00115439
0.00115679
0.00115905
0.00116119
0.00116321
0.0011651
0.00116688
0.00116855
0.00117012
0.00117159
0.00117298
0.0011743
0.00117556
0.00117678
0.00117796
0.00117913
0.00118032
0.00118153
0.00118281
0.00118417
0.00118566
0.00118731
0.00118917
0.00119128
0.00119369
0.00119647
0.00119965
0.00120329
0.00120743
0.00121206
0.00121731
0.00122238
0.00123173
0.00115253
0.00115155
0.00115053
0.00114944
0.0011483
0.00114711
0.00114586
0.00114455
0.00114319
0.00114178
0.00114031
0.0011388
0.00113724
0.00113565
0.00113401
0.00113235
0.00113066
0.00112895
0.00112723
0.0011255
0.00112377
0.00112206
0.00112037
0.00111871
0.00111709
0.00111552
0.00111401
0.00111258
0.00111124
0.00110999
0.00110885
0.00110782
0.00110693
0.00110618
0.00110558
0.00110513
0.00110485
0.00110474
0.00110481
0.00110507
0.00110551
0.00110613
0.00110695
0.00110795
0.00110913
0.00111049
0.00111202
0.0011137
0.00111554
0.00111751
0.0011196
0.0011218
0.00112409
0.00112645
0.00112887
0.00113132
0.0011338
0.00113629
0.00113878
0.00114125
0.00114368
0.00114608
0.00114842
0.00115071
0.00115292
0.00115506
0.00115711
0.00115908
0.00116095
0.00116273
0.00116441
0.00116599
0.00116747
0.00116886
0.00117016
0.00117136
0.00117248
0.00117352
0.00117449
0.00117539