/*--------------------------------*- C++ -*----------------------------------*\
| =========                 |                                                 |
| \\      /  F ield         | OpenFOAM: The Open Source CFD Toolbox           |
|  \\    /   O peration     | Version:  2.1.1                                 |
|   \\  /    A nd           | Web:      www.OpenFOAM.org                      |
|    \\/     M anipulation  |                                                 |
\*---------------------------------------------------------------------------*/
FoamFile
{
    version     2.0;
    format      ascii;
    class       volScalarField;
    location    "0.195";
    object      p;
}
// * * * * * * * * * * * * * * * * * * * * * * * * * * * * * * * * * * * * * //

dimensions      [0 2 -2 0 0 0 0];

internalField   nonuniform List<scalar> 
6820
(
-10.2269
-12.0732
-12.6481
-12.7759
-12.8828
-12.9619
-13.0162
-13.0625
-13.1048
-13.1436
-13.1796
-13.2137
-13.246
-13.2767
-13.306
-13.334
-13.3607
-13.3863
-13.4109
-13.4347
-13.4576
-13.4797
-13.5011
-13.5217
-13.5416
-13.5606
-13.5784
-13.5947
-13.6084
-13.6183
-13.6201
-13.608
-13.5684
-14.1794
-13.6448
-13.2222
-13.0322
-13.0075
-13.0186
-13.0387
-13.0665
-13.0985
-13.1316
-13.1649
-13.1977
-13.2298
-13.2607
-13.2906
-13.3193
-13.3468
-13.3733
-13.3988
-13.4233
-13.4469
-13.4698
-13.4918
-13.5132
-13.5338
-13.5536
-13.5726
-13.5907
-13.6074
-13.6243
-13.6397
-13.6754
-13.7235
-12.5369
-12.2331
-12.5197
-12.7647
-12.8696
-12.9449
-13.0038
-13.0529
-13.0968
-13.1366
-13.1735
-13.208
-13.2404
-13.2712
-13.3004
-13.3282
-13.3548
-13.3803
-13.4049
-13.4286
-13.4514
-13.4736
-13.4951
-13.516
-13.5363
-13.556
-13.5752
-13.5938
-13.612
-13.6308
-13.6506
-13.678
-13.7102
-13.0439
-13.0782
-13.0754
-13.0161
-13.0083
-13.0287
-13.0549
-13.0836
-13.1143
-13.1454
-13.1763
-13.2067
-13.2364
-13.2652
-13.2932
-13.3203
-13.3465
-13.3718
-13.3963
-13.4201
-13.4432
-13.4657
-13.4875
-13.5089
-13.5297
-13.5502
-13.5703
-13.5903
-13.6105
-13.6322
-13.656
-13.6888
-13.7283
-12.8885
-12.7884
-12.8326
-12.8985
-12.9514
-12.9979
-13.0384
-13.0756
-13.1113
-13.1455
-13.1782
-13.2096
-13.2398
-13.2689
-13.2968
-13.3237
-13.3496
-13.3747
-13.3989
-13.4223
-13.4451
-13.4673
-13.4889
-13.5101
-13.5309
-13.5515
-13.5719
-13.5926
-13.6138
-13.6367
-13.6621
-13.6934
-13.7297
-12.9436
-12.9269
-12.952
-12.975
-12.9973
-13.0265
-13.0579
-13.0894
-13.121
-13.1521
-13.1826
-13.2122
-13.2411
-13.269
-13.296
-13.3222
-13.3476
-13.3722
-13.3961
-13.4193
-13.4419
-13.464
-13.4857
-13.507
-13.528
-13.5489
-13.5698
-13.5911
-13.6132
-13.637
-13.663
-13.6933
-13.7274
-12.9418
-12.9206
-12.9364
-12.9652
-12.9952
-13.028
-13.0608
-13.0926
-13.124
-13.1548
-13.1847
-13.2139
-13.2423
-13.2698
-13.2964
-13.3223
-13.3473
-13.3716
-13.3953
-13.4183
-13.4408
-13.4628
-13.4844
-13.5057
-13.5268
-13.5478
-13.569
-13.5907
-13.6132
-13.6371
-13.6629
-13.6916
-13.7229
-12.9559
-12.9481
-12.9635
-12.9879
-13.0131
-13.0411
-13.0706
-13.1001
-13.1297
-13.1591
-13.1879
-13.2161
-13.2436
-13.2703
-13.2964
-13.3217
-13.3463
-13.3702
-13.3935
-13.4163
-13.4386
-13.4604
-13.4819
-13.5032
-13.5243
-13.5455
-13.5668
-13.5886
-13.6112
-13.6349
-13.6601
-13.6873
-13.7161
-12.9689
-12.965
-12.9771
-12.9985
-13.0224
-13.0491
-13.0773
-13.1058
-13.1343
-13.1626
-13.1905
-13.2179
-13.2447
-13.2708
-13.2963
-13.3211
-13.3453
-13.3689
-13.3919
-13.4144
-13.4365
-13.4582
-13.4795
-13.5007
-13.5218
-13.5429
-13.5642
-13.586
-13.6084
-13.6317
-13.6561
-13.6817
-13.7083
-12.9824
-12.9818
-12.9931
-13.0125
-13.0345
-13.0592
-13.0854
-13.1123
-13.1394
-13.1665
-13.1934
-13.2199
-13.2459
-13.2713
-13.2962
-13.3205
-13.3442
-13.3674
-13.39
-13.4122
-13.4341
-13.4555
-13.4767
-13.4978
-13.5187
-13.5397
-13.5609
-13.5824
-13.6044
-13.6271
-13.6506
-13.6748
-13.6995
-12.996
-12.997
-13.0073
-13.0247
-13.0452
-13.0681
-13.0929
-13.1184
-13.1443
-13.1703
-13.1962
-13.2218
-13.247
-13.2718
-13.296
-13.3198
-13.343
-13.3658
-13.3881
-13.41
-13.4315
-13.4527
-13.4737
-13.4945
-13.5153
-13.5361
-13.557
-13.5781
-13.5997
-13.6217
-13.6442
-13.6671
-13.6901
-13.0092
-13.0112
-13.0209
-13.0368
-13.0557
-13.0772
-13.1004
-13.1246
-13.1492
-13.1742
-13.1991
-13.2238
-13.2482
-13.2723
-13.2959
-13.3191
-13.3419
-13.3642
-13.3861
-13.4076
-13.4288
-13.4497
-13.4704
-13.491
-13.5115
-13.5319
-13.5525
-13.5732
-13.5942
-13.6154
-13.6369
-13.6586
-13.6803
-13.0221
-13.0245
-13.0337
-13.0482
-13.0658
-13.0858
-13.1076
-13.1305
-13.154
-13.1779
-13.2019
-13.2257
-13.2494
-13.2727
-13.2957
-13.3184
-13.3406
-13.3625
-13.384
-13.4051
-13.426
-13.4466
-13.4669
-13.4871
-13.5073
-13.5274
-13.5475
-13.5677
-13.588
-13.6085
-13.6291
-13.6496
-13.67
-13.0344
-13.037
-13.0456
-13.059
-13.0754
-13.0941
-13.1147
-13.1364
-13.1588
-13.1816
-13.2046
-13.2276
-13.2505
-13.2731
-13.2955
-13.3176
-13.3393
-13.3607
-13.3817
-13.4025
-13.4229
-13.4431
-13.4631
-13.483
-13.5027
-13.5224
-13.542
-13.5616
-13.5813
-13.601
-13.6206
-13.6401
-13.6594
-13.0461
-13.0487
-13.0569
-13.0693
-13.0845
-13.1021
-13.1214
-13.142
-13.1633
-13.1851
-13.2072
-13.2294
-13.2515
-13.2735
-13.2952
-13.3167
-13.3379
-13.3588
-13.3794
-13.3997
-13.4197
-13.4395
-13.4591
-13.4785
-13.4978
-13.517
-13.5361
-13.5551
-13.5741
-13.593
-13.6117
-13.6303
-13.6485
-13.0571
-13.0596
-13.0674
-13.0789
-13.0932
-13.1096
-13.1279
-13.1473
-13.1677
-13.1886
-13.2098
-13.2311
-13.2525
-13.2738
-13.2949
-13.3158
-13.3364
-13.3568
-13.3769
-13.3967
-13.4163
-13.4356
-13.4548
-13.4737
-13.4925
-13.5112
-13.5297
-13.5481
-13.5664
-13.5845
-13.6024
-13.62
-13.6373
-13.0674
-13.0699
-13.0771
-13.0879
-13.1012
-13.1167
-13.134
-13.1524
-13.1718
-13.1918
-13.2121
-13.2327
-13.2533
-13.2739
-13.2944
-13.3147
-13.3348
-13.3546
-13.3742
-13.3936
-13.4127
-13.4316
-13.4502
-13.4687
-13.487
-13.5051
-13.523
-13.5407
-13.5583
-13.5756
-13.5927
-13.6095
-13.6259
-13.077
-13.0793
-13.0862
-13.0963
-13.1088
-13.1234
-13.1396
-13.1572
-13.1756
-13.1947
-13.2143
-13.2341
-13.254
-13.2739
-13.2937
-13.3134
-13.333
-13.3523
-13.3714
-13.3902
-13.4088
-13.4272
-13.4454
-13.4633
-13.4811
-13.4986
-13.5159
-13.533
-13.5499
-13.5664
-13.5827
-13.5987
-13.6143
-13.0858
-13.088
-13.0945
-13.104
-13.1157
-13.1295
-13.1449
-13.1616
-13.1792
-13.1974
-13.2162
-13.2353
-13.2545
-13.2737
-13.2929
-13.3121
-13.331
-13.3498
-13.3683
-13.3867
-13.4048
-13.4227
-13.4403
-13.4577
-13.4749
-13.4918
-13.5085
-13.5249
-13.5411
-13.5569
-13.5725
-13.5877
-13.6024
-13.0939
-13.096
-13.1021
-13.111
-13.1221
-13.1351
-13.1497
-13.1655
-13.1823
-13.1998
-13.2178
-13.2362
-13.2547
-13.2733
-13.2919
-13.3105
-13.3289
-13.3471
-13.3651
-13.3829
-13.4005
-13.4179
-13.435
-13.4518
-13.4684
-13.4847
-13.5008
-13.5166
-13.532
-13.5472
-13.562
-13.5764
-13.5904
-13.1012
-13.1032
-13.1089
-13.1173
-13.1278
-13.1401
-13.154
-13.1691
-13.1851
-13.2019
-13.2192
-13.2369
-13.2548
-13.2727
-13.2908
-13.3087
-13.3265
-13.3442
-13.3617
-13.379
-13.3961
-13.4129
-13.4294
-13.4457
-13.4617
-13.4774
-13.4928
-13.508
-13.5227
-13.5372
-13.5512
-13.5649
-13.5782
-13.1076
-13.1095
-13.1149
-13.1229
-13.1328
-13.1445
-13.1577
-13.1721
-13.1875
-13.2036
-13.2202
-13.2372
-13.2545
-13.2719
-13.2893
-13.3067
-13.324
-13.3411
-13.3581
-13.3748
-13.3913
-13.4076
-13.4236
-13.4393
-13.4547
-13.4699
-13.4846
-13.4991
-13.5132
-13.527
-13.5403
-13.5533
-13.5658
-13.1133
-13.115
-13.1202
-13.1277
-13.1371
-13.1482
-13.1608
-13.1746
-13.1894
-13.2048
-13.2209
-13.2373
-13.254
-13.2708
-13.2876
-13.3045
-13.3212
-13.3378
-13.3543
-13.3705
-13.3865
-13.4022
-13.4176
-13.4328
-13.4476
-13.4621
-13.4763
-13.4901
-13.5035
-13.5166
-13.5293
-13.5415
-13.5534
-13.118
-13.1197
-13.1246
-13.1317
-13.1407
-13.1513
-13.1633
-13.1765
-13.1907
-13.2056
-13.221
-13.2369
-13.253
-13.2693
-13.2856
-13.3019
-13.3181
-13.3342
-13.3501
-13.3658
-13.3813
-13.3965
-13.4114
-13.4259
-13.4402
-13.4541
-13.4677
-13.4809
-13.4937
-13.5061
-13.5181
-13.5297
-13.5408
-13.1219
-13.1235
-13.1281
-13.135
-13.1435
-13.1537
-13.1653
-13.178
-13.1916
-13.206
-13.2209
-13.2363
-13.2519
-13.2676
-13.2835
-13.2993
-13.315
-13.3306
-13.346
-13.3611
-13.3761
-13.3907
-13.405
-13.4191
-13.4327
-13.4461
-13.459
-13.4716
-13.4838
-13.4955
-13.5069
-13.5178
-13.5283
-13.1248
-13.1264
-13.1307
-13.1372
-13.1454
-13.1551
-13.1662
-13.1785
-13.1916
-13.2055
-13.22
-13.2349
-13.25
-13.2653
-13.2807
-13.296
-13.3113
-13.3264
-13.3413
-13.356
-13.3704
-13.3845
-13.3983
-13.4118
-13.425
-13.4377
-13.4501
-13.4621
-13.4737
-13.4848
-13.4956
-13.5059
-13.5157
-13.1269
-13.1284
-13.1326
-13.1389
-13.1468
-13.1562
-13.167
-13.179
-13.1918
-13.2053
-13.2193
-13.2337
-13.2484
-13.2633
-13.2782
-13.2931
-13.3078
-13.3225
-13.3369
-13.3511
-13.365
-13.3786
-13.3919
-13.4048
-13.4174
-13.4296
-13.4414
-13.4528
-13.4638
-13.4743
-13.4844
-13.4941
-13.5033
-13.1278
-13.1291
-13.1329
-13.1387
-13.1462
-13.1552
-13.1656
-13.1772
-13.1896
-13.2028
-13.2166
-13.2307
-13.2451
-13.2596
-13.2742
-13.2887
-13.3031
-13.3174
-13.3314
-13.3452
-13.3587
-13.3719
-13.3847
-13.3972
-13.4093
-13.4209
-13.4322
-13.4431
-13.4535
-13.4635
-13.4731
-13.4822
-13.4908
-13.128
-13.1296
-13.1337
-13.1396
-13.1471
-13.1561
-13.1664
-13.1777
-13.1899
-13.2027
-13.2161
-13.2298
-13.2438
-13.2579
-13.272
-13.286
-13.3
-13.3137
-13.3273
-13.3406
-13.3535
-13.3662
-13.3785
-13.3904
-13.402
-13.4131
-13.4238
-13.4341
-13.4439
-13.4534
-13.4623
-13.4708
-13.4789
-13.1264
-13.127
-13.1298
-13.1347
-13.1415
-13.15
-13.1601
-13.1713
-13.1835
-13.1964
-13.2099
-13.2236
-13.2376
-13.2517
-13.2657
-13.2797
-13.2935
-13.3071
-13.3204
-13.3335
-13.3462
-13.3586
-13.3705
-13.3821
-13.3933
-13.404
-13.4143
-13.4242
-13.4336
-13.4426
-13.451
-13.4591
-13.4666
-13.1259
-13.1284
-13.1329
-13.1388
-13.1461
-13.1547
-13.1645
-13.1753
-13.187
-13.1993
-13.2121
-13.2252
-13.2386
-13.252
-13.2654
-13.2787
-13.2919
-13.3048
-13.3176
-13.33
-13.3421
-13.3539
-13.3652
-13.3762
-13.3868
-13.397
-13.4067
-13.416
-13.4248
-13.4332
-13.4411
-13.4485
-13.4555
-13.118
-13.1159
-13.1162
-13.1198
-13.1265
-13.1354
-13.1461
-13.158
-13.1709
-13.1843
-13.1982
-13.2123
-13.2265
-13.2406
-13.2546
-13.2684
-13.282
-13.2953
-13.3082
-13.3208
-13.3329
-13.3447
-13.356
-13.3669
-13.3774
-13.3873
-13.3968
-13.4058
-13.4144
-13.4224
-13.43
-13.4371
-13.4438
-13.126
-13.1325
-13.1382
-13.1431
-13.1489
-13.1561
-13.1648
-13.1747
-13.1855
-13.197
-13.209
-13.2213
-13.2339
-13.2465
-13.2592
-13.2717
-13.2841
-13.2963
-13.3083
-13.3199
-13.3312
-13.3421
-13.3526
-13.3628
-13.3725
-13.3817
-13.3906
-13.3989
-13.4068
-13.4142
-13.4212
-13.4277
-13.4337
-13.0939
-13.0804
-13.0754
-13.0806
-13.0906
-13.1032
-13.1173
-13.1324
-13.1479
-13.1637
-13.1795
-13.1951
-13.2104
-13.2255
-13.2402
-13.2545
-13.2683
-13.2818
-13.2947
-13.3072
-13.3191
-13.3306
-13.3416
-13.352
-13.362
-13.3714
-13.3803
-13.3887
-13.3966
-13.404
-13.4108
-13.4172
-13.4231
-13.148
-13.1684
-13.1729
-13.1683
-13.1657
-13.1678
-13.173
-13.1801
-13.1886
-13.1982
-13.2087
-13.2197
-13.2311
-13.2426
-13.2543
-13.2659
-13.2774
-13.2888
-13.2999
-13.3107
-13.3211
-13.3313
-13.341
-13.3503
-13.3592
-13.3677
-13.3757
-13.3832
-13.3903
-13.3969
-13.4031
-13.4088
-13.414
-13.0251
-12.9756
-12.9637
-12.9896
-13.0178
-13.0422
-13.0661
-13.0893
-13.1114
-13.1324
-13.1523
-13.1712
-13.1893
-13.2064
-13.2227
-13.2383
-13.2532
-13.2673
-13.2808
-13.2936
-13.3057
-13.3173
-13.3282
-13.3386
-13.3483
-13.3575
-13.3661
-13.3741
-13.3816
-13.3885
-13.3948
-13.4006
-13.4059
-13.2736
-13.3085
-13.2776
-13.2352
-13.2065
-13.1954
-13.1925
-13.1934
-13.1972
-13.2034
-13.2111
-13.22
-13.2295
-13.2395
-13.2499
-13.2603
-13.2708
-13.2811
-13.2913
-13.3013
-13.3109
-13.3203
-13.3293
-13.3379
-13.3462
-13.3539
-13.3613
-13.3682
-13.3747
-13.3807
-13.3863
-13.3914
-13.3961
-12.7814
-12.6616
-12.724
-12.8254
-12.8994
-12.9514
-12.9952
-13.0335
-13.0669
-13.0963
-13.1226
-13.1465
-13.1683
-13.1884
-13.207
-13.2244
-13.2406
-13.2558
-13.27
-13.2834
-13.2959
-13.3077
-13.3188
-13.3292
-13.3389
-13.3479
-13.3563
-13.3641
-13.3713
-13.3779
-13.3839
-13.3893
-13.3941
-13.9959
-13.657
-13.3933
-13.2763
-13.2262
-13.2009
-13.1859
-13.1798
-13.18
-13.1842
-13.1908
-13.1992
-13.2087
-13.2189
-13.2295
-13.2403
-13.2512
-13.2619
-13.2725
-13.2828
-13.2928
-13.3025
-13.3117
-13.3206
-13.329
-13.3369
-13.3444
-13.3514
-13.358
-13.364
-13.3696
-13.3747
-13.3794
-11.4923
-12.199
-12.6036
-12.7559
-12.8607
-12.9432
-13.0027
-13.0478
-13.0844
-13.1149
-13.1408
-13.1634
-13.1837
-13.2021
-13.219
-13.2347
-13.2493
-13.263
-13.2759
-13.288
-13.2994
-13.3101
-13.3202
-13.3297
-13.3385
-13.3468
-13.3544
-13.3615
-13.3681
-13.374
-13.3795
-13.3844
-13.3887
-13.456
-13.7066
-13.8356
-13.924
-13.9902
-14.0375
-14.0719
-14.1027
-14.1321
-14.1627
-14.1963
-14.2332
-14.2737
-14.3178
-14.3648
-14.414
-14.4646
-14.5158
-14.5668
-14.6168
-14.665
-14.7108
-14.7535
-14.7925
-14.8271
-14.8566
-14.8803
-14.8973
-14.9068
-14.9078
-14.8992
-14.8801
-14.8493
-14.806
-14.7489
-14.6772
-14.59
-14.4864
-14.3656
-14.2269
-14.0698
-13.8936
-13.6981
-13.4829
-13.2479
-12.993
-12.7185
-12.4246
-12.1119
-11.7812
-11.4334
-11.0699
-10.6919
-10.3011
-9.89935
-9.4884
-9.07027
-8.647
-8.22067
-7.79336
-7.36718
-6.94416
-6.52628
-6.11543
-5.71339
-5.32176
-4.94199
-4.57537
-4.22296
-3.88564
-3.56407
-3.25874
-2.96994
-2.69779
-2.44226
-2.20319
-1.98026
-1.77307
-1.58114
-1.4039
-1.24075
-1.09102
-0.954052
-0.829167
-0.715692
-0.612963
-0.520351
-0.437226
-0.363047
-0.297197
-0.239298
-0.188618
-0.145158
-0.107647
-0.0770619
-0.0506219
-0.0311879
-0.0144869
0.000202213
-0.00600954
-14.0397
-14.1779
-14.1211
-14.0562
-14.0305
-14.0154
-14.0065
-14.0136
-14.0318
-14.0608
-14.0999
-14.1464
-14.1982
-14.2534
-14.3102
-14.3672
-14.4233
-14.4776
-14.5297
-14.5791
-14.6258
-14.6695
-14.7099
-14.7466
-14.7791
-14.8067
-14.8287
-14.8441
-14.8521
-14.8516
-14.8416
-14.821
-14.789
-14.7443
-14.6862
-14.6136
-14.5256
-14.4215
-14.3004
-14.1616
-14.0047
-13.8291
-13.6344
-13.4203
-13.1868
-12.9337
-12.6614
-12.37
-12.0602
-11.7327
-11.3885
-11.0288
-10.655
-10.2686
-9.87134
-9.46508
-9.05174
-8.63328
-8.21174
-7.78914
-7.36752
-6.94887
-6.53514
-6.12816
-5.72967
-5.34126
-4.96438
-4.60027
-4.25002
-3.91448
-3.59436
-3.29012
-3.00209
-2.73041
-2.47506
-2.23589
-2.01263
-1.8049
-1.61223
-1.43409
-1.26989
-1.11901
-0.980781
-0.854561
-0.739692
-0.635523
-0.541437
-0.456819
-0.381128
-0.313766
-0.254338
-0.202147
-0.15713
-0.118146
-0.085897
-0.0581638
-0.0366511
-0.0194563
-0.000962419
-0.010269
-13.7623
-13.7733
-13.7952
-13.8439
-13.8989
-13.9438
-13.9832
-14.0125
-14.0436
-14.074
-14.1067
-14.1418
-14.1803
-14.2223
-14.2674
-14.3152
-14.3649
-14.4158
-14.4667
-14.5169
-14.5653
-14.611
-14.6533
-14.6913
-14.7245
-14.752
-14.7733
-14.7875
-14.794
-14.7918
-14.78
-14.7578
-14.7241
-14.6781
-14.6188
-14.5452
-14.4564
-14.3518
-14.2304
-14.0917
-13.9351
-13.7602
-13.5665
-13.3537
-13.1219
-12.8709
-12.6009
-12.3124
-12.0057
-11.6817
-11.3414
-10.9858
-10.6163
-10.2345
-9.84203
-9.44063
-9.03218
-8.61862
-8.20192
-7.78405
-7.36702
-6.95276
-6.54318
-6.1401
-5.74522
-5.36011
-4.98618
-4.6247
-4.27671
-3.94309
-3.62452
-3.32151
-3.03437
-2.76326
-2.50819
-2.26902
-2.04551
-1.83731
-1.64397
-1.46498
-1.29978
-1.14776
-1.0083
-0.880758
-0.764501
-0.658892
-0.563328
-0.477204
-0.399984
-0.331083
-0.270096
-0.216357
-0.16974
-0.129232
-0.0952684
-0.0661636
-0.0425445
-0.0246716
-0.00263123
-0.0140243
-13.8152
-13.9234
-13.9824
-14.0005
-14.0082
-14.0129
-14.017
-14.0246
-14.0376
-14.0589
-14.0881
-14.1233
-14.1635
-14.2076
-14.2541
-14.3017
-14.3494
-14.3964
-14.4421
-14.486
-14.5277
-14.567
-14.6033
-14.6363
-14.6653
-14.6896
-14.7084
-14.7208
-14.7258
-14.7224
-14.7097
-14.6865
-14.652
-14.6051
-14.545
-14.4707
-14.3815
-14.2766
-14.1552
-14.0167
-13.8606
-13.6865
-13.4939
-13.2827
-13.0527
-12.804
-12.5366
-12.251
-11.9477
-11.6273
-11.2909
-10.9396
-10.5746
-10.1974
-9.80974
-9.41324
-9.00974
-8.60113
-8.18934
-7.77631
-7.36398
-6.95427
-6.54902
-6.15003
-5.75897
-5.37737
-5.00664
-4.64799
-4.30249
-3.97099
-3.65417
-3.35255
-3.06646
-2.79607
-2.5414
-2.30234
-2.07868
-1.87008
-1.67613
-1.49635
-1.33019
-1.17708
-1.03642
-0.907581
-0.789953
-0.682917
-0.58588
-0.498251
-0.419498
-0.349049
-0.286487
-0.231177
-0.182931
-0.140861
-0.105145
-0.0745999
-0.0488601
-0.0301242
-0.00482486
-0.0172332
-13.784
-13.8312
-13.8486
-13.8633
-13.8885
-13.917
-13.9453
-13.9726
-14.0049
-14.0392
-14.072
-14.1076
-14.1459
-14.1863
-14.2283
-14.2715
-14.3154
-14.3594
-14.403
-14.4454
-14.486
-14.5242
-14.5592
-14.5904
-14.617
-14.6384
-14.6539
-14.6628
-14.6642
-14.6573
-14.6413
-14.6152
-14.5781
-14.5291
-14.4672
-14.3916
-14.3015
-14.1959
-14.0743
-13.936
-13.7804
-13.6071
-13.4158
-13.2061
-12.9781
-12.7316
-12.4669
-12.1843
-11.8844
-11.5678
-11.2355
-10.8885
-10.5281
-10.1557
-9.77304
-9.38164
-8.98333
-8.57993
-8.17332
-7.76541
-7.35808
-6.9532
-6.5526
-6.158
-5.77104
-5.39324
-5.02595
-4.67039
-4.32759
-3.9984
-3.68352
-3.38345
-3.09854
-2.82897
-2.5748
-2.33593
-2.11218
-1.90324
-1.70872
-1.52818
-1.36109
-1.20691
-1.06506
-0.934934
-0.815944
-0.707485
-0.608978
-0.519843
-0.439555
-0.367552
-0.303406
-0.246513
-0.196621
-0.152962
-0.115469
-0.0834287
-0.0555679
-0.0357906
-0.00753964
-0.0198775
-13.7739
-13.8272
-13.8694
-13.9028
-13.9309
-13.9538
-13.9739
-13.9942
-14.0106
-14.0343
-14.0623
-14.0939
-14.1289
-14.1666
-14.2064
-14.2474
-14.289
-14.3303
-14.3707
-14.4095
-14.4463
-14.4804
-14.5114
-14.5388
-14.5619
-14.58
-14.5926
-14.5988
-14.5977
-14.5884
-14.5701
-14.5419
-14.5028
-14.4518
-14.3882
-14.3111
-14.2197
-14.1132
-13.991
-13.8524
-13.697
-13.5242
-13.3338
-13.1255
-12.8992
-12.655
-12.3929
-12.1134
-11.8169
-11.5041
-11.1759
-10.8334
-10.4778
-10.1105
-9.73299
-9.34694
-8.95406
-8.55613
-8.15499
-7.75248
-7.35045
-6.9507
-6.555
-6.16506
-5.78245
-5.40865
-5.045
-4.69269
-4.35273
-4.02597
-3.71312
-3.41467
-3.13099
-2.8623
-2.60866
-2.37001
-2.14619
-1.93692
-1.74184
-1.56054
-1.39252
-1.23727
-1.09422
-0.962803
-0.842441
-0.73255
-0.632561
-0.54191
-0.460075
-0.386506
-0.320765
-0.262274
-0.210723
-0.165454
-0.126171
-0.092588
-0.0626187
-0.0416344
-0.0107377
-0.0219766
-13.7622
-13.8057
-13.8389
-13.8638
-13.8867
-13.9095
-13.932
-13.9545
-13.9837
-14.012
-14.0421
-14.0744
-14.1088
-14.1449
-14.1823
-14.2205
-14.259
-14.2971
-14.3344
-14.3702
-14.4041
-14.4355
-14.4637
-14.4882
-14.5084
-14.5236
-14.533
-14.536
-14.5317
-14.5193
-14.498
-14.4669
-14.4252
-14.372
-14.3065
-14.2277
-14.135
-14.0275
-13.9047
-13.7659
-13.6107
-13.4385
-13.249
-13.0421
-12.8177
-12.5757
-12.3163
-12.0398
-11.7469
-11.438
-11.1142
-10.7763
-10.4257
-10.0635
-9.69147
-9.311
-8.92379
-8.53158
-8.13613
-7.73923
-7.34267
-6.94821
-6.55757
-6.17238
-5.79421
-5.42449
-5.06453
-4.71549
-4.3784
-4.05409
-3.74326
-3.44645
-3.16401
-2.8962
-2.64309
-2.40466
-2.18076
-1.97116
-1.77552
-1.59345
-1.4245
-1.26816
-1.1239
-0.991179
-0.86943
-0.758088
-0.656601
-0.564414
-0.481012
-0.405857
-0.3385
-0.278392
-0.225163
-0.17826
-0.137173
-0.102006
-0.0699476
-0.0476054
-0.0143388
-0.0235895
-13.7509
-13.79
-13.8238
-13.8527
-13.8796
-13.9049
-13.9292
-13.9525
-13.9759
-14.0011
-14.0285
-14.0582
-14.09
-14.1235
-14.1583
-14.1938
-14.2295
-14.2649
-14.2993
-14.3322
-14.363
-14.3911
-14.4161
-14.4374
-14.4543
-14.4662
-14.4724
-14.4723
-14.465
-14.4498
-14.4257
-14.3921
-14.348
-14.2926
-14.225
-14.1446
-14.0504
-13.9419
-13.8184
-13.6793
-13.5241
-13.3524
-13.1639
-12.9584
-12.7357
-12.496
-12.2393
-11.9661
-11.6767
-11.3719
-11.0524
-10.7194
-10.3738
-10.017
-9.65043
-9.27561
-8.89414
-8.50769
-8.11796
-7.72669
-7.33561
-6.94643
-6.56081
-6.18036
-5.8066
-5.44092
-5.08462
-4.73884
-4.40459
-4.08271
-3.7739
-3.4787
-3.19751
-2.93056
-2.67798
-2.43976
-2.21579
-2.00586
-1.80966
-1.62683
-1.45693
-1.29951
-1.15404
-1.02
-0.896858
-0.784054
-0.681052
-0.587312
-0.502324
-0.425562
-0.356566
-0.294816
-0.239886
-0.191323
-0.148414
-0.11162
-0.0774884
-0.0536514
-0.0182299
-0.0248123
-13.7396
-13.7749
-13.8066
-13.8344
-13.8599
-13.884
-13.9072
-13.931
-13.9555
-13.9815
-14.0089
-14.0379
-14.0684
-14.1002
-14.1328
-14.1659
-14.199
-14.2315
-14.263
-14.2929
-14.3207
-14.3458
-14.3678
-14.3861
-14.4
-14.4088
-14.4121
-14.4089
-14.3987
-14.3806
-14.3538
-14.3176
-14.271
-14.2134
-14.144
-14.0619
-13.9664
-13.8569
-13.7328
-13.5934
-13.4384
-13.2672
-13.0797
-12.8756
-12.6548
-12.4174
-12.1635
-11.8934
-11.6077
-11.3069
-10.9918
-10.6635
-10.3229
-9.97145
-9.61036
-9.24115
-8.86537
-8.48461
-8.10055
-7.71484
-7.32918
-6.94522
-6.56457
-6.18881
-5.8194
-5.45773
-5.10505
-4.7625
-4.43107
-4.11161
-3.80481
-3.51123
-3.23127
-2.9652
-2.71316
-2.47517
-2.25114
-2.04088
-1.84413
-1.66054
-1.48972
-1.33121
-1.18453
-1.04918
-0.92464
-0.810369
-0.705845
-0.610542
-0.523954
-0.445569
-0.374916
-0.311502
-0.254849
-0.204597
-0.159847
-0.121382
-0.0851866
-0.059733
-0.0222896
-0.0257701
-13.7282
-13.7606
-13.7908
-13.8183
-13.844
-13.8686
-13.8925
-13.9162
-13.9402
-13.9651
-13.9912
-14.0185
-14.0471
-14.0766
-14.1069
-14.1375
-14.1679
-14.1977
-14.2263
-14.2534
-14.2782
-14.3004
-14.3194
-14.3346
-14.3454
-14.3512
-14.3515
-14.3454
-14.3323
-14.3114
-14.282
-14.2432
-14.1944
-14.1347
-14.0634
-13.9798
-13.8831
-13.7726
-13.6479
-13.5083
-13.3535
-13.1829
-12.9964
-12.7938
-12.5749
-12.3398
-12.0886
-11.8218
-11.5396
-11.2429
-10.9322
-10.6085
-10.273
-9.92673
-9.57105
-9.20738
-8.83721
-8.46209
-8.08362
-7.70342
-7.32311
-6.94431
-6.56858
-6.19746
-5.83237
-5.47467
-5.1256
-4.78627
-4.45765
-4.14061
-3.83583
-3.54387
-3.26516
-2.99998
-2.7485
-2.51075
-2.28667
-2.07611
-1.87882
-1.69449
-1.52275
-1.36317
-1.21529
-1.07863
-0.952692
-0.836954
-0.730906
-0.634034
-0.545838
-0.465818
-0.393495
-0.328399
-0.270006
-0.218039
-0.171433
-0.131254
-0.0929996
-0.0658266
-0.0264127
-0.0265991
-13.7168
-13.7467
-13.7753
-13.802
-13.8271
-13.8513
-13.8747
-13.898
-13.9216
-13.9459
-13.9711
-13.9972
-14.0242
-14.0519
-14.08
-14.1082
-14.1361
-14.1632
-14.1891
-14.2133
-14.2353
-14.2545
-14.2705
-14.2828
-14.2906
-14.2935
-14.2908
-14.2818
-14.2659
-14.2423
-14.2103
-14.1692
-14.1181
-14.0564
-13.9833
-13.8982
-13.8002
-13.689
-13.5637
-13.424
-13.2694
-13.0994
-12.914
-12.7128
-12.4958
-12.263
-12.0146
-11.751
-11.4724
-11.1796
-10.8733
-10.5543
-10.2237
-9.8826
-9.53227
-9.17407
-8.80945
-8.43989
-8.06695
-7.69219
-7.31719
-6.9435
-6.57266
-6.20614
-5.84535
-5.49161
-5.14613
-4.81
-4.48421
-4.16958
-3.86682
-3.57651
-3.29907
-3.0348
-2.78389
-2.5464
-2.3223
-2.11145
-1.91364
-1.72859
-1.55594
-1.3953
-1.24623
-1.10828
-0.980944
-0.863742
-0.75617
-0.657726
-0.567916
-0.486253
-0.412249
-0.345459
-0.285311
-0.23161
-0.183133
-0.141204
-0.10089
-0.0719189
-0.0305189
-0.0274239
-13.7051
-13.7331
-13.7603
-13.786
-13.8106
-13.8343
-13.8574
-13.8803
-13.9034
-13.9268
-13.9509
-13.9755
-14.0008
-14.0266
-14.0525
-14.0784
-14.1038
-14.1283
-14.1515
-14.1729
-14.192
-14.2084
-14.2215
-14.2308
-14.2357
-14.2357
-14.2301
-14.2183
-14.1996
-14.1734
-14.1389
-14.0953
-14.0421
-13.9785
-13.9037
-13.8171
-13.718
-13.6059
-13.4802
-13.3403
-13.186
-13.0167
-12.8323
-12.6326
-12.4175
-12.1871
-11.9414
-11.6809
-11.406
-11.1171
-10.815
-10.5007
-10.1749
-9.83891
-9.49387
-9.14108
-8.78195
-8.4179
-8.05043
-7.68106
-7.31131
-6.9427
-6.5767
-6.21476
-5.85824
-5.50844
-5.16654
-4.83362
-4.51064
-4.19845
-3.89773
-3.60907
-3.33291
-3.06957
-2.81926
-2.58206
-2.35795
-2.14684
-1.94854
-1.76278
-1.58924
-1.42756
-1.27731
-1.13806
-1.00935
-0.890683
-0.781586
-0.681568
-0.590141
-0.506828
-0.431135
-0.362638
-0.300724
-0.24527
-0.194912
-0.151202
-0.108826
-0.0780007
-0.0345505
-0.028343
-13.6934
-13.7197
-13.7454
-13.7701
-13.7939
-13.817
-13.8396
-13.8619
-13.8842
-13.9067
-13.9296
-13.9529
-13.9766
-14.0005
-14.0244
-14.048
-14.0709
-14.0929
-14.1134
-14.1321
-14.1484
-14.162
-14.1722
-14.1786
-14.1807
-14.1778
-14.1694
-14.1549
-14.1335
-14.1047
-14.0677
-14.0219
-13.9665
-13.901
-13.8245
-13.7365
-13.6364
-13.5235
-13.3973
-13.2574
-13.1033
-12.9347
-12.7514
-12.5532
-12.34
-12.1118
-11.8689
-11.6116
-11.3401
-11.0552
-10.7573
-10.4475
-10.1266
-9.79562
-9.4558
-9.10836
-8.75464
-8.39604
-8.03399
-7.66996
-7.30542
-6.94183
-6.58064
-6.22325
-5.87099
-5.52511
-5.18678
-4.85706
-4.53691
-4.22715
-3.92849
-3.6415
-3.36665
-3.10426
-2.85457
-2.61768
-2.39359
-2.18224
-1.98346
-1.79701
-1.62261
-1.45989
-1.30848
-1.16795
-1.03786
-0.917735
-0.807116
-0.705523
-0.612475
-0.527506
-0.450114
-0.3799
-0.31621
-0.258988
-0.206737
-0.161224
-0.116776
-0.0840651
-0.0384669
-0.0294245
-13.6814
-13.7062
-13.7306
-13.7543
-13.7773
-13.7996
-13.8215
-13.8431
-13.8646
-13.8861
-13.9078
-13.9297
-13.9518
-13.9738
-13.9956
-14.017
-14.0376
-14.0571
-14.075
-14.091
-14.1046
-14.1154
-14.1228
-14.1264
-14.1257
-14.12
-14.1088
-14.0916
-14.0676
-14.0362
-13.9969
-13.9488
-13.8914
-13.824
-13.7459
-13.6566
-13.5554
-13.4417
-13.3151
-13.1751
-13.0214
-12.8535
-12.6712
-12.4745
-12.2632
-12.0374
-11.7972
-11.5429
-11.275
-10.9938
-10.7002
-10.3949
-10.0787
-9.7527
-9.41803
-9.07587
-8.72751
-8.37429
-8.0176
-7.65885
-7.29947
-6.94087
-6.58446
-6.23158
-5.88354
-5.54157
-5.20681
-4.88029
-4.56297
-4.25565
-3.95905
-3.67376
-3.40023
-3.13882
-2.88977
-2.6532
-2.42917
-2.2176
-2.01836
-1.83125
-1.65599
-1.49226
-1.3397
-1.1979
-1.06643
-0.944863
-0.832724
-0.729556
-0.634884
-0.548254
-0.469158
-0.397217
-0.33174
-0.272736
-0.218584
-0.171246
-0.124714
-0.0901073
-0.0422415
-0.0307088
-13.6693
-13.6928
-13.7159
-13.7386
-13.7606
-13.7821
-13.8032
-13.8239
-13.8445
-13.865
-13.8854
-13.9059
-13.9263
-13.9465
-13.9664
-13.9856
-14.0039
-14.0209
-14.0363
-14.0497
-14.0606
-14.0687
-14.0734
-14.0742
-14.0707
-14.0623
-14.0484
-14.0285
-14.002
-13.9681
-13.9264
-13.8762
-13.8168
-13.7476
-13.668
-13.5773
-13.4751
-13.3607
-13.2337
-13.0937
-12.9403
-12.7731
-12.5919
-12.3967
-12.1872
-11.9637
-11.7262
-11.475
-11.2105
-10.9331
-10.6436
-10.3427
-10.0312
-9.71016
-9.38057
-9.04362
-8.70055
-8.35265
-8.00126
-7.64773
-7.29345
-6.93979
-6.58811
-6.23972
-5.89588
-5.5578
-5.22659
-4.90327
-4.58877
-4.2839
-3.98938
-3.70579
-3.4336
-3.17319
-2.9248
-2.6886
-2.46463
-2.25287
-2.0532
-1.86544
-1.68935
-1.52463
-1.37093
-1.22787
-1.09505
-0.972029
-0.858375
-0.753634
-0.657337
-0.569042
-0.488237
-0.414561
-0.347289
-0.286491
-0.230428
-0.181251
-0.13262
-0.0961235
-0.0458593
-0.032214
-13.657
-13.6793
-13.7012
-13.7228
-13.7438
-13.7644
-13.7846
-13.8044
-13.824
-13.8434
-13.8626
-13.8816
-13.9004
-13.9188
-13.9367
-13.9538
-13.9698
-13.9844
-13.9974
-14.0082
-14.0166
-14.0219
-14.024
-14.0221
-14.0159
-14.0048
-13.9883
-13.9658
-13.9367
-13.9005
-13.8565
-13.8041
-13.7428
-13.6718
-13.5907
-13.4988
-13.3956
-13.2805
-13.1532
-13.0132
-12.86
-12.6936
-12.5135
-12.3197
-12.1121
-11.8909
-11.656
-11.4078
-11.1467
-10.8731
-10.5877
-10.2911
-9.98426
-9.66802
-9.34343
-9.01162
-8.67377
-8.33112
-7.98495
-7.63659
-7.28736
-6.93859
-6.59159
-6.24765
-5.90798
-5.57376
-5.24608
-4.92595
-4.61427
-4.31186
-4.01942
-3.73755
-3.46672
-3.20733
-2.95963
-2.7238
-2.49993
-2.28799
-2.08792
-1.89954
-1.72264
-1.55694
-1.40212
-1.25782
-1.12365
-0.999196
-0.884033
-0.777722
-0.679801
-0.589841
-0.507322
-0.431906
-0.362832
-0.300231
-0.242248
-0.191223
-0.140474
-0.102111
-0.0493147
-0.0339405
-13.6446
-13.6656
-13.6864
-13.7069
-13.727
-13.7466
-13.7658
-13.7847
-13.8032
-13.8214
-13.8393
-13.8568
-13.874
-13.8906
-13.9066
-13.9216
-13.9354
-13.9478
-13.9583
-13.9666
-13.9724
-13.9752
-13.9746
-13.9701
-13.9612
-13.9475
-13.9284
-13.9034
-13.8719
-13.8333
-13.7872
-13.7327
-13.6695
-13.5969
-13.5143
-13.4211
-13.317
-13.2013
-13.0736
-12.9336
-12.7808
-12.615
-12.436
-12.2437
-12.038
-11.8189
-11.5867
-11.3415
-11.0837
-10.8138
-10.5324
-10.2401
-9.93779
-9.6263
-9.30665
-8.9799
-8.64718
-8.3097
-7.96869
-7.62542
-7.28118
-6.93725
-6.59489
-6.25535
-5.91982
-5.58944
-5.26527
-4.94831
-4.63945
-4.3395
-4.04915
-3.769
-3.49955
-3.24118
-2.99419
-2.75877
-2.53501
-2.32293
-2.12247
-1.9335
-1.75581
-1.58915
-1.43323
-1.2877
-1.1522
-1.02632
-0.909658
-0.801784
-0.702243
-0.610617
-0.526384
-0.449223
-0.378344
-0.313933
-0.254023
-0.201146
-0.148259
-0.108065
-0.0526081
-0.0358768
-13.632
-13.6519
-13.6716
-13.691
-13.71
-13.7286
-13.7468
-13.7646
-13.782
-13.799
-13.8156
-13.8317
-13.8472
-13.8621
-13.8762
-13.8891
-13.9008
-13.9109
-13.9191
-13.925
-13.9283
-13.9285
-13.9254
-13.9183
-13.9069
-13.8906
-13.869
-13.8415
-13.8076
-13.7668
-13.7185
-13.662
-13.597
-13.5227
-13.4387
-13.3444
-13.2393
-13.123
-12.9951
-12.855
-12.7026
-12.5375
-12.3596
-12.1687
-11.9648
-11.748
-11.5183
-11.2761
-11.0216
-10.7553
-10.4778
-10.1897
-9.89186
-9.58505
-9.27025
-8.94847
-8.62081
-8.28842
-7.95249
-7.61425
-7.27493
-6.93576
-6.59799
-6.26281
-5.93137
-5.6048
-5.28412
-4.97032
-4.66426
-4.36676
-4.0785
-3.80009
-3.53203
-3.27471
-3.02845
-2.79345
-2.56983
-2.35763
-2.15681
-1.96726
-1.7888
-1.62121
-1.4642
-1.31747
-1.18065
-1.05336
-0.935209
-0.825779
-0.724624
-0.631336
-0.54539
-0.466484
-0.393796
-0.327574
-0.26573
-0.211003
-0.155958
-0.113982
-0.0557435
-0.0380041
-13.6192
-13.638
-13.6566
-13.675
-13.693
-13.7105
-13.7277
-13.7444
-13.7606
-13.7764
-13.7916
-13.8062
-13.8202
-13.8333
-13.8455
-13.8565
-13.8661
-13.8739
-13.8798
-13.8834
-13.8843
-13.8821
-13.8764
-13.8668
-13.8529
-13.8341
-13.8101
-13.7802
-13.744
-13.701
-13.6505
-13.5922
-13.5253
-13.4495
-13.3641
-13.2687
-13.1628
-13.0459
-12.9176
-12.7776
-12.6255
-12.4612
-12.2843
-12.0949
-11.8928
-11.6781
-11.4509
-11.2116
-10.9603
-10.6976
-10.424
-10.14
-9.84654
-9.54432
-9.23427
-8.91737
-8.59468
-8.2673
-7.93637
-7.60307
-7.2686
-6.93414
-6.60089
-6.27001
-5.94263
-5.61982
-5.30261
-4.99194
-4.68868
-4.39362
-4.10745
-3.83078
-3.56411
-3.30786
-3.06234
-2.82778
-2.60432
-2.39202
-2.19086
-2.00076
-1.82156
-1.65306
-1.49499
-1.34707
-1.20895
-1.08027
-0.96064
-0.849666
-0.746904
-0.651961
-0.564305
-0.483657
-0.409161
-0.341127
-0.277348
-0.220778
-0.163556
-0.119855
-0.0587257
-0.0403002
-13.6062
-13.624
-13.6416
-13.6589
-13.6758
-13.6923
-13.7084
-13.724
-13.739
-13.7535
-13.7674
-13.7805
-13.7929
-13.8043
-13.8147
-13.8237
-13.8313
-13.837
-13.8406