/*--------------------------------*- C++ -*----------------------------------*\
| =========                 |                                                 |
| \\      /  F ield         | OpenFOAM: The Open Source CFD Toolbox           |
|  \\    /   O peration     | Version:  2.1.1                                 |
|   \\  /    A nd           | Web:      www.OpenFOAM.org                      |
|    \\/     M anipulation  |                                                 |
\*---------------------------------------------------------------------------*/
FoamFile
{
    version     2.0;
    format      ascii;
    class       surfaceScalarField;
    location    "0.195";
    object      phi;
}
// * * * * * * * * * * * * * * * * * * * * * * * * * * * * * * * * * * * * * //

dimensions      [0 3 -1 0 0 0 0];

internalField   nonuniform List<scalar> 
13452
(
6.89922e-05
-5.04962e-07
6.88132e-05
1.78979e-07
6.82014e-05
6.11814e-07
6.72534e-05
9.48006e-07
6.61761e-05
1.07732e-06
6.50836e-05
1.09246e-06
6.40178e-05
1.06585e-06
6.29959e-05
1.02192e-06
6.20262e-05
9.69634e-07
6.11123e-05
9.13896e-07
6.02552e-05
8.57121e-07
5.94545e-05
8.00761e-07
5.87087e-05
7.45764e-07
5.80159e-05
6.92794e-07
5.73736e-05
6.423e-07
5.6779e-05
5.94565e-07
5.62293e-05
5.49746e-07
5.57214e-05
5.07901e-07
5.52524e-05
4.69018e-07
5.48193e-05
4.33035e-07
5.44195e-05
3.9986e-07
5.40501e-05
3.69393e-07
5.37085e-05
3.41541e-07
5.33923e-05
3.16242e-07
5.30988e-05
2.93504e-07
5.28253e-05
2.73455e-07
5.25689e-05
2.56455e-07
5.23255e-05
2.4339e-07
5.20896e-05
2.35929e-07
5.18505e-05
2.39113e-07
5.15894e-05
2.61086e-07
5.12568e-05
3.32556e-07
5.14273e-07
5.07425e-05
7.01649e-05
-2.2595e-07
7.00411e-05
3.02862e-07
7.01816e-05
4.71278e-07
7.05088e-05
6.20844e-07
7.0859e-05
7.2703e-07
7.11577e-05
7.93838e-07
7.1382e-05
8.4153e-07
7.15337e-05
8.70251e-07
7.16206e-05
8.82695e-07
7.16516e-05
8.82844e-07
7.16351e-05
8.73646e-07
7.15785e-05
8.5743e-07
7.14882e-05
8.36003e-07
7.13702e-05
8.10833e-07
7.12294e-05
7.83098e-07
7.10702e-05
7.53738e-07
7.08964e-05
7.23504e-07
7.07114e-05
6.92988e-07
7.05177e-05
6.62651e-07
7.03179e-05
6.32851e-07
7.01139e-05
6.03864e-07
6.99074e-05
5.75912e-07
6.96997e-05
5.49183e-07
6.94921e-05
5.23862e-07
6.92855e-05
5.00169e-07
6.90805e-05
4.78392e-07
6.88779e-05
4.59057e-07
6.86785e-05
4.42819e-07
6.84829e-05
4.31495e-07
6.8296e-05
4.2604e-07
6.81233e-05
4.33803e-07
6.80112e-05
4.44595e-07
4.84998e-07
6.80405e-05
7.22816e-05
-5.0985e-08
7.23966e-05
1.87829e-07
7.25013e-05
3.66624e-07
7.25875e-05
5.34582e-07
7.26705e-05
6.44041e-07
7.27522e-05
7.1215e-07
7.2838e-05
7.55775e-07
7.29242e-05
7.83979e-07
7.3007e-05
7.99935e-07
7.30836e-05
8.06195e-07
7.31526e-05
8.04716e-07
7.32129e-05
7.97071e-07
7.32644e-05
7.84542e-07
7.3307e-05
7.68247e-07
7.33409e-05
7.49131e-07
7.33667e-05
7.27986e-07
7.33847e-05
7.05468e-07
7.33956e-05
6.82116e-07
7.33999e-05
6.58368e-07
7.33981e-05
6.34582e-07
7.3391e-05
6.1105e-07
7.33789e-05
5.88021e-07
7.33623e-05
5.65721e-07
7.33418e-05
5.44372e-07
7.33177e-05
5.24237e-07
7.32905e-05
5.05633e-07
7.32605e-05
4.89074e-07
7.32282e-05
4.75128e-07
7.31945e-05
4.65188e-07
7.3161e-05
4.59536e-07
7.31318e-05
4.62946e-07
7.31099e-05
4.66521e-07
4.94286e-07
7.31006e-05
7.45184e-05
-4.27958e-08
7.44879e-05
2.18329e-07
7.44763e-05
3.78298e-07
7.45155e-05
4.95314e-07
7.45754e-05
5.84153e-07
7.46413e-05
6.46278e-07
7.47066e-05
6.90456e-07
7.47698e-05
7.20751e-07
7.48306e-05
7.3912e-07
7.48889e-05
7.4793e-07
7.49444e-05
7.49212e-07
7.4997e-05
7.44523e-07
7.50464e-05
7.35112e-07
7.50926e-05
7.22041e-07
7.51355e-05
7.06191e-07
7.51752e-05
6.88291e-07
7.52118e-05
6.6895e-07
7.52452e-05
6.48665e-07
7.52757e-05
6.27847e-07
7.53035e-05
6.06835e-07
7.53286e-05
5.85912e-07
7.53513e-05
5.65321e-07
7.53717e-05
5.45288e-07
7.53901e-05
5.26032e-07
7.54065e-05
5.07807e-07
7.54212e-05
4.90901e-07
7.54346e-05
4.75735e-07
7.5447e-05
4.62722e-07
7.54595e-05
4.52716e-07
7.54733e-05
4.45668e-07
7.5493e-05
4.43307e-07
7.55195e-05
4.40033e-07
4.39642e-07
7.55741e-05
7.66035e-05
9.54486e-09
7.6628e-05
1.9381e-07
7.66642e-05
3.42139e-07
7.6702e-05
4.57509e-07
7.674e-05
5.46193e-07
7.6779e-05
6.07236e-07
7.68204e-05
6.49098e-07
7.68636e-05
6.77493e-07
7.69077e-05
6.95024e-07
7.69518e-05
7.03843e-07
7.69953e-05
7.05719e-07
7.70378e-05
7.02026e-07
7.7079e-05
6.93887e-07
7.71188e-05
6.82267e-07
7.7157e-05
6.67973e-07
7.71936e-05
6.51684e-07
7.72286e-05
6.33962e-07
7.7262e-05
6.15277e-07
7.72938e-05
5.96016e-07
7.73242e-05
5.765e-07
7.73531e-05
5.56999e-07
7.73806e-05
5.37747e-07
7.7407e-05
5.18958e-07
7.74322e-05
5.00838e-07
7.74564e-05
4.83612e-07
7.74797e-05
4.67516e-07
7.75026e-05
4.52858e-07
7.75255e-05
4.39892e-07
7.75491e-05
4.29043e-07
7.75748e-05
4.20013e-07
7.76049e-05
4.13167e-07
7.76403e-05
4.04657e-07
3.95062e-07
7.76849e-05
7.88311e-05
2.43518e-08
7.88386e-05
1.8632e-07
7.88565e-05
3.24236e-07
7.8885e-05
4.2898e-07
7.89209e-05
5.10283e-07
7.89596e-05
5.68569e-07
7.89991e-05
6.09559e-07
7.90389e-05
6.37774e-07
7.90784e-05
6.5551e-07
7.91175e-05
6.64748e-07
7.9156e-05
6.67211e-07
7.91938e-05
6.64258e-07
7.92306e-05
6.56991e-07
7.92666e-05
6.46337e-07
7.93015e-05
6.33072e-07
7.93353e-05
6.17843e-07
7.93681e-05
6.01189e-07
7.93998e-05
5.83556e-07
7.94305e-05
5.65315e-07
7.94602e-05
5.46772e-07
7.94891e-05
5.28188e-07
7.9517e-05
5.09785e-07
7.95442e-05
4.91761e-07
7.95707e-05
4.74304e-07
7.95968e-05
4.576e-07
7.96224e-05
4.4183e-07
7.96481e-05
4.27192e-07
7.96742e-05
4.138e-07
7.97015e-05
4.01774e-07
7.97308e-05
3.90703e-07
7.97637e-05
3.80256e-07
7.98005e-05
3.67891e-07
3.52705e-07
7.98428e-05
8.10847e-05
3.82096e-08
8.10945e-05
1.7647e-07
8.11178e-05
3.00995e-07
8.11481e-05
3.98619e-07
8.11824e-05
4.76018e-07
8.12179e-05
5.33059e-07
8.1254e-05
5.73523e-07
8.12903e-05
6.01423e-07
8.13267e-05
6.19148e-07
8.13628e-05
6.28635e-07
8.13985e-05
6.31542e-07
8.14335e-05
6.29182e-07
8.14679e-05
6.22615e-07
8.15015e-05
6.12734e-07
8.15343e-05
6.00283e-07
8.15663e-05
5.85884e-07
8.15974e-05
5.70055e-07
8.16277e-05
5.53225e-07
8.16573e-05
5.35752e-07
8.16861e-05
5.1793e-07
8.17143e-05
5.00008e-07
8.17419e-05
4.82197e-07
8.1769e-05
4.6468e-07
8.17957e-05
4.4762e-07
8.18221e-05
4.31166e-07
8.18485e-05
4.15445e-07
8.18751e-05
4.00562e-07
8.19024e-05
3.86526e-07
8.19309e-05
3.73275e-07
8.19612e-05
3.60361e-07
8.19942e-05
3.47226e-07
8.203e-05
3.32178e-07
3.1419e-07
8.20685e-05
8.341e-05
4.3718e-08
8.34198e-05
1.66671e-07
8.34404e-05
2.80386e-07
8.34677e-05
3.71388e-07
8.34997e-05
4.44036e-07
8.3534e-05
4.98751e-07
8.35692e-05
5.38235e-07
8.36049e-05
5.65803e-07
8.36404e-05
5.8364e-07
8.36755e-05
5.93508e-07
8.37101e-05
5.96951e-07
8.37441e-05
5.95225e-07
8.37773e-05
5.8936e-07
8.38098e-05
5.80219e-07
8.38416e-05
5.68525e-07
8.38726e-05
5.5488e-07
8.39029e-05
5.39785e-07
8.39324e-05
5.23657e-07
8.39613e-05
5.06841e-07
8.39896e-05
4.89622e-07
8.40174e-05
4.72238e-07
8.40447e-05
4.54888e-07
8.40717e-05
4.37738e-07
8.40984e-05
4.20929e-07
8.41249e-05
4.04575e-07
8.41516e-05
3.88757e-07
8.41787e-05
3.73511e-07
8.42064e-05
3.58778e-07
8.42353e-05
3.444e-07
8.42657e-05
3.29952e-07
8.42981e-05
3.14863e-07
8.43322e-05
2.98007e-07
2.78575e-07
8.43679e-05
8.57963e-05
4.61614e-08
8.5806e-05
1.56957e-07
8.5826e-05
2.6038e-07
8.58525e-05
3.44935e-07
8.58834e-05
4.13102e-07
8.59167e-05
4.6546e-07
8.5951e-05
5.0387e-07
8.59859e-05
5.30994e-07
8.60207e-05
5.4882e-07
8.60552e-05
5.58972e-07
8.60893e-05
5.62887e-07
8.61227e-05
5.61755e-07
8.61555e-05
5.56562e-07
8.61876e-05
5.48135e-07
8.6219e-05
5.37168e-07
8.62496e-05
5.24243e-07
8.62796e-05
5.09843e-07
8.63089e-05
4.94372e-07
8.63375e-05
4.78163e-07
8.63657e-05
4.61492e-07
8.63933e-05
4.44584e-07
8.64206e-05
4.27628e-07
8.64475e-05
4.10773e-07
8.64743e-05
3.9414e-07
8.65011e-05
3.77814e-07
8.6528e-05
3.6184e-07
8.65553e-05
3.46208e-07
8.65833e-05
3.30825e-07
8.66122e-05
3.15497e-07
8.66423e-05
2.99852e-07
8.66737e-05
2.83403e-07
8.67063e-05
2.65407e-07
2.45319e-07
8.67396e-05
8.825e-05
4.61354e-08
8.82599e-05
1.4706e-07
8.8279e-05
2.41334e-07
8.83041e-05
3.19835e-07
8.83335e-05
3.8363e-07
8.83657e-05
4.33342e-07
8.83992e-05
4.70343e-07
8.84334e-05
4.96775e-07
8.84678e-05
5.14411e-07
8.85021e-05
5.24724e-07
8.85359e-05
5.29025e-07
8.85693e-05
5.28426e-07
8.8602e-05
5.23859e-07
8.8634e-05
5.16108e-07
8.86653e-05
5.05837e-07
8.8696e-05
4.93605e-07
8.87259e-05
4.79875e-07
8.87553e-05
4.65035e-07
8.8784e-05
4.49407e-07
8.88123e-05
4.33254e-07
8.884e-05
4.16793e-07
8.88675e-05
4.00199e-07
8.88946e-05
3.83607e-07
8.89217e-05
3.67119e-07
8.89487e-05
3.50801e-07
8.89758e-05
3.3467e-07
8.90034e-05
3.18695e-07
8.90314e-05
3.02766e-07
8.90602e-05
2.86695e-07
8.90899e-05
2.70178e-07
8.91205e-05
2.52834e-07
8.91517e-05
2.34181e-07
2.13893e-07
8.91831e-05
9.07727e-05
4.47312e-08
9.07826e-05
1.37193e-07
9.08007e-05
2.2319e-07
9.08247e-05
2.95841e-07
9.0853e-05
3.55339e-07
9.08841e-05
4.0226e-07
9.09168e-05
4.37645e-07
9.09504e-05
4.63198e-07
9.09843e-05
4.80472e-07
9.10182e-05
4.90792e-07
9.10519e-05
4.95353e-07
9.10852e-05
4.95184e-07
9.11179e-05
4.91158e-07
9.11499e-05
4.84017e-07
9.11814e-05
4.7439e-07
9.12122e-05
4.62806e-07
9.12424e-05
4.49711e-07
9.12719e-05
4.35474e-07
9.13009e-05
4.20402e-07
9.13294e-05
4.04747e-07
9.13575e-05
3.88714e-07
9.13852e-05
3.72465e-07
9.14127e-05
3.56124e-07
9.14401e-05
3.3978e-07
9.14674e-05
3.23479e-07
9.14948e-05
3.07229e-07
9.15225e-05
2.90986e-07
9.15507e-05
2.74645e-07
9.15793e-05
2.58042e-07
9.16085e-05
2.40941e-07
9.16383e-05
2.23066e-07
9.16684e-05
2.04113e-07
1.8391e-07
9.16984e-05
9.33669e-05
4.2494e-08
9.33767e-05
1.27377e-07
9.3394e-05
2.05864e-07
9.3417e-05
2.7291e-07
9.34441e-05
3.28216e-07
9.34741e-05
3.72248e-07
9.35059e-05
4.05824e-07
9.35388e-05
4.30306e-07
9.35722e-05
4.47037e-07
9.36058e-05
4.57206e-07
9.36393e-05
4.61891e-07
9.36724e-05
4.62037e-07
9.37051e-05
4.58458e-07
9.37373e-05
4.51847e-07
9.37689e-05
4.42796e-07
9.37999e-05
4.31808e-07
9.38303e-05
4.19302e-07
9.38602e-05
4.05631e-07
9.38895e-05
3.91086e-07
9.39183e-05
3.75907e-07
9.39467e-05
3.60285e-07
9.39748e-05
3.44373e-07
9.40027e-05
3.28284e-07
9.40304e-05
3.12094e-07
9.4058e-05
2.95842e-07
9.40857e-05
2.79529e-07
9.41136e-05
2.63111e-07
9.41417e-05
2.465e-07
9.41702e-05
2.29562e-07
9.4199e-05
2.12125e-07
9.42281e-05
1.94001e-07
9.42572e-05
1.75005e-07
1.55069e-07
9.4286e-05
9.60348e-05
3.98052e-08
9.60445e-05
1.177e-07
9.6061e-05
1.89302e-07
9.6083e-05
2.50967e-07
9.6109e-05
3.02167e-07
9.6138e-05
3.43247e-07
9.6169e-05
3.74864e-07
9.62012e-05
3.98113e-07
9.6234e-05
4.14145e-07
9.62672e-05
4.24015e-07
9.63004e-05
4.28691e-07
9.63334e-05
4.29037e-07
9.63661e-05
4.25803e-07
9.63983e-05
4.19635e-07
9.643e-05
4.11088e-07
9.64612e-05
4.00633e-07
9.64918e-05
3.88666e-07
9.65219e-05
3.7552e-07
9.65516e-05
3.6147e-07
9.65807e-05
3.46742e-07
9.66095e-05
3.31517e-07
9.66379e-05
3.15937e-07
9.66661e-05
3.00105e-07
9.66941e-05
2.8409e-07
9.6722e-05
2.67928e-07
9.67499e-05
2.51618e-07
9.67779e-05
2.35125e-07
9.6806e-05
2.18379e-07
9.68343e-05
2.01283e-07
9.68627e-05
1.83716e-07
9.68912e-05
1.65559e-07
9.69195e-05
1.46709e-07
1.27164e-07
9.69474e-05
9.87786e-05
3.68923e-08
9.87881e-05
1.08211e-07
9.8804e-05
1.73438e-07
9.8825e-05
2.29938e-07
9.88501e-05
2.7712e-07
9.88781e-05
3.15214e-07
9.89082e-05
3.44758e-07
9.89397e-05
3.66633e-07
9.8972e-05
3.81821e-07
9.90048e-05
3.91253e-07
9.90377e-05
3.95794e-07
9.90705e-05
3.96227e-07
9.9103e-05
3.93239e-07
9.91353e-05
3.87429e-07
9.9167e-05
3.79311e-07
9.91983e-05
3.69326e-07
9.92292e-05
3.57846e-07
9.92595e-05
3.45183e-07
9.92894e-05
3.31597e-07
9.93188e-05
3.17298e-07
9.93479e-05
3.02457e-07
9.93766e-05
2.87206e-07
9.94051e-05
2.71643e-07
9.94333e-05
2.55832e-07
9.94614e-05
2.39806e-07
9.94895e-05
2.23569e-07
9.95175e-05
2.07098e-07
9.95456e-05
1.90344e-07
9.95736e-05
1.7324e-07
9.96016e-05
1.55711e-07
9.96295e-05
1.37688e-07
9.96571e-05
1.19124e-07
1.00053e-07
9.96842e-05
0.000101601
3.3895e-08
0.00010161
9.89526e-08
0.000101625
1.58215e-07
0.000101645
2.09755e-07
0.00010167
2.53001e-07
0.000101697
2.88096e-07
0.000101726
3.15474e-07
0.000101757
3.35857e-07
0.000101788
3.50074e-07
0.000101821
3.58942e-07
0.000101853
3.6323e-07
0.000101886
3.63642e-07
0.000101918
3.60806e-07
0.000101951
3.5527e-07
0.000101982
3.47511e-07
0.000102014
3.37936e-07
0.000102045
3.26894e-07
0.000102075
3.14675e-07
0.000102105
3.01521e-07
0.000102135
2.87632e-07
0.000102164
2.73167e-07
0.000102193
2.58249e-07
0.000102222
2.42971e-07
0.00010225
2.27395e-07
0.000102279
2.11556e-07
0.000102307
1.95463e-07
0.000102335
1.79106e-07
0.000102362
1.62457e-07
0.00010239
1.45475e-07
0.000102418
1.2812e-07
0.000102445
1.10361e-07
0.000102472
9.21859e-08
7.36496e-08
0.000102499
0.000104503
3.08947e-08
0.000104512
8.99495e-08
0.000104527
1.43581e-07
0.000104546
1.90348e-07
0.00010457
2.29741e-07
0.000104596
2.61834e-07
0.000104624
2.86979e-07
0.000104655
3.05768e-07
0.000104686
3.18902e-07
0.000104718
3.27092e-07
0.00010475
3.31017e-07
0.000104782
3.3131e-07
0.000104814
3.28536e-07
0.000104846
3.23196e-07
0.000104878
3.15728e-07
0.00010491
3.06507e-07
0.000104941
2.95856e-07
0.000104971
2.84045e-07
0.000105002
2.71299e-07
0.000105031
2.57805e-07
0.000105061
2.43712e-07
0.00010509
2.29136e-07
0.000105119
2.14164e-07
0.000105147
1.98859e-07
0.000105176
1.83259e-07
0.000105204
1.67379e-07
0.000105232
1.51223e-07
0.000105259
1.34778e-07
0.000105287
1.18028e-07
0.000105314
1.00959e-07
0.000105341
8.35652e-08
0.000105367
6.58578e-08
4.79026e-08
0.000105393
0.000107489
2.79372e-08
0.000107498
8.12134e-08
0.000107512
1.29489e-07
0.00010753
1.71655e-07
0.000107553
2.07273e-07
0.000107578
2.3637e-07
0.000107606
2.59232e-07
0.000107636
2.76342e-07
0.000107666
2.88294e-07
0.000107698
2.95703e-07
0.000107729
2.99168e-07
0.000107761
2.99248e-07
0.000107794
2.96453e-07
0.000107826
2.91236e-07
0.000107857
2.83996e-07
0.000107889
2.75078e-07
0.00010792
2.64776e-07
0.00010795
2.53342e-07
0.000107981
2.40984e-07
0.000108011
2.27875e-07
0.00010804
2.14154e-07
0.000108069
1.99932e-07
0.000108098
1.85293e-07
0.000108127
1.70299e-07
0.000108155
1.54989e-07
0.000108183
1.3939e-07
0.000108211
1.23512e-07
0.000108238
1.07361e-07
0.000108265
9.09379e-08
0.000108292
7.42458e-08
0.000108318
5.72988e-08
0.000108344
4.01215e-08
2.27842e-08
0.000108369
0.00011056
2.50462e-08
0.000110568
7.27456e-08
0.000110582
1.15895e-07
0.0001106
1.53615e-07
0.000110622
1.85533e-07
0.000110646
2.11648e-07
0.000110673
2.32186e-07
0.000110702
2.47548e-07
0.000110732
2.58233e-07
0.000110763
2.64771e-07
0.000110795
2.67684e-07
0.000110826
2.67468e-07
0.000110858
2.64575e-07
0.00011089
2.59415e-07
0.000110922
2.52346e-07
0.000110953
2.43683e-07
0.000110984
2.33694e-07
0.000111015
2.2261e-07
0.000111045
2.10624e-07
0.000111075
1.97894e-07
0.000111105
1.84552e-07
0.000111134
1.70702e-07
0.000111163
1.56424e-07
0.000111192
1.4178e-07
0.00011122
1.26814e-07
0.000111248
1.11558e-07
0.000111275
9.60329e-08
0.000111302
8.02546e-08
0.000111329
6.42377e-08
0.000111355
4.79998e-08
0.000111381
3.15665e-08
0.000111406
1.49705e-08
-1.71711e-09
0.00011143
0.000113718
2.22322e-08
0.000113727
6.45395e-08
0.00011374
1.02758e-07
0.000113757
1.36169e-07
0.000113778
1.64459e-07
0.000113802
1.87607e-07
0.000113829
2.05794e-07
0.000113857
2.1935e-07
0.000113886
2.28694e-07
0.000113917
2.34281e-07
0.000113948
2.36562e-07
0.000113979
2.35973e-07
0.000114011
2.32914e-07
0.000114043
2.27749e-07
0.000114074
2.20801e-07
0.000114106
2.12351e-07
0.000114137
2.02644e-07
0.000114167
1.9189e-07
0.000114198
1.80264e-07
0.000114228
1.67914e-07
0.000114257
1.5496e-07
0.000114287
1.41501e-07
0.000114315
1.27615e-07
0.000114344
1.13364e-07
0.000114372
9.87933e-08
0.000114399
8.39403e-08
0.000114427
6.88338e-08
0.000114453
5.34984e-08
0.00011448
3.79583e-08
0.000114505
2.22405e-08
0.000114531
6.37755e-09
0.000114555
-9.59317e-09
-2.56021e-08
0.000114579
0.000116967
1.94977e-08
0.000116975
5.65829e-08
0.000116988
9.00391e-08
0.000117005
1.19263e-07
0.000117025
1.43991e-07
0.000117049
1.64191e-07
0.000117074
1.80006e-07
0.000117102
1.91707e-07
0.000117131
1.99647e-07
0.000117161
2.04212e-07
0.000117192
2.05791e-07
0.000117223
2.04761e-07
0.000117255
2.01475e-07
0.000117286
1.96252e-07
0.000117317
1.89378e-07
0.000117349
1.81107e-07
0.00011738
1.71657e-07
0.00011741
1.61216e-07
0.000117441
1.49945e-07
0.000117471
1.37977e-07
0.0001175
1.25426e-07
0.000117529
1.12382e-07
0.000117558
9.89214e-08
0.000117586
8.5104e-08
0.000117614
7.09787e-08
0.000117641
5.65856e-08
0.000117668
4.19589e-08
0.000117695
2.71295e-08
0.00011772
1.21283e-08
0.000117746
-3.01215e-09
0.00011777
-1.8255e-08
0.000117794
-3.35611e-08
-4.88638e-08
0.000117818
0.000120309
1.68409e-08
0.000120316
4.88597e-08
0.000120329
7.76994e-08
0.000120345
1.02844e-07
0.000120365
1.24069e-07
0.000120388
1.41339e-07
0.000120413
1.54766e-07
0.00012044
1.64574e-07
0.000120469
1.71056e-07
0.000120499
1.74538e-07
0.000120529
1.75353e-07
0.00012056
1.73823e-07
0.000120591
1.70256e-07
0.000120622
1.64928e-07
0.000120654
1.58093e-07
0.000120685
1.49971e-07
0.000120716
1.40757e-07
0.000120746
1.30619e-07
0.000120777
1.19702e-07
0.000120807
1.08125e-07
0.000120836
9.59927e-08
0.000120865
8.33905e-08
0.000120893
7.03895e-08
0.000120922
5.70485e-08
0.000120949
4.34169e-08
0.000120976
2.95372e-08
0.000121003
1.54468e-08
0.000121029
1.18104e-09
0.000121054
-1.32257e-08
0.000121079
-2.77373e-08
0.000121103
-4.23152e-08
0.000121126
-5.69202e-08
-7.1489e-08
0.000121149
0.000123746
1.42572e-08
0.000123753
4.13518e-08
0.000123765
6.57023e-08
0.000123781
8.68608e-08
0.000123801
1.04636e-07
0.000123823
1.18993e-07
0.000123848
1.30019e-07
0.000123874
1.37899e-07
0.000123903
1.42877e-07
0.000123932
1.45224e-07
0.000123962
1.45221e-07
0.000123993
1.43142e-07
0.000124024
1.39247e-07
0.000124055
1.33777e-07
0.000124086
1.26949e-07
0.000124117
1.18954e-07
0.000124148
1.09963e-07
0.000124178
1.00124e-07
0.000124209
8.95645e-08
0.000124238
7.83909e-08
0.000124268
6.66983e-08
0.000124296
5.45663e-08
0.000124325
4.20608e-08
0.000124352
2.92384e-08
0.00012438
1.61479e-08
0.000124406
2.83256e-09
0.000124433
-1.06683e-08
0.000124458
-2.43175e-08
0.000124483
-3.80785e-08
0.000124507
-5.19141e-08
0.000124531
-6.57855e-08
0.000124553
-7.96546e-08
-9.34621e-08
0.000124575
0.000127281
1.17405e-08
0.000127288
3.40388e-08
0.0001273
5.401e-08
0.000127316
7.12614e-08
0.000127335
8.5631e-08
0.000127357
9.7087e-08
0.000127381
1.05701e-07
0.000127407
1.11625e-07
0.000127435
1.15059e-07
0.000127464
1.16229e-07
0.000127494
1.15364e-07
0.000127524
1.12693e-07
0.000127555
1.08435e-07
0.000127586
1.02792e-07
0.000127617
9.59467e-08
0.000127648
8.80639e-08
0.000127679
7.92891e-08
0.000127709
6.9749e-08
0.000127739
5.95581e-08
0.000127769
4.88034e-08
0.000127798
3.75747e-08
0.000127826
2.59437e-08
0.000127854
1.39707e-08
0.000127882
1.7092e-09
0.000127909
-1.0794e-08
0.000127935
-2.34957e-08
0.000127961
-3.63568e-08
0.000127986
-4.93395e-08
0.00012801
-6.24069e-08
0.000128034
-7.55221e-08
0.000128057
-8.86471e-08
0.000128079
-1.01746e-07
-1.14763e-07
0.0001281
0.000130917
9.28616e-09
0.000130924
2.69047e-08
0.000130936
4.25925e-08
0.000130951
5.60024e-08
0.00013097
6.69997e-08
0.000130991
7.55613e-08
0.000131015
8.17489e-08
0.000131041
8.56888e-08
0.000131069
8.75444e-08
0.000131097
8.74986e-08
0.000131127
8.57337e-08
0.000131157
8.24351e-08
0.000131188
7.77852e-08
0.000131219
7.19481e-08
0.00013125
6.5072e-08
0.00013128
5.72939e-08
0.000131311
4.87356e-08
0.000131341
3.95034e-08
0.000131371
2.96974e-08
0.000131401
1.93776e-08
0.000131429
8.64352e-09
0.000131458
-2.45209e-09
0.000131486
-1.38532e-08
0.000131513
-2.5511e-08
0.00013154
-3.73804e-08
0.000131565
-4.94206e-08
0.000131591
-6.15933e-08
0.000131615
-7.38617e-08
0.000131639
-8.61899e-08
0.000131662
-9.8542e-08
0.000131684
-1.10882e-07
0.000131706
-1.23177e-07
-1.35374e-07
0.000131726
0.000134658
6.88198e-09
0.000134665
1.99202e-08
0.000134676
3.1402e-08
0.000134691
4.10201e-08
0.000134709
4.86678e-08
0.00013473
5.43368e-08
0.000134754
5.80847e-08
0.00013478
6.00173e-08
0.000134807
6.02664e-08
0.000134835
5.89787e-08
0.000134865
5.6288e-08
0.000134895
5.23372e-08
0.000134925
4.72752e-08
0.000134956
4.12287e-08
0.000134987
3.43132e-08
0.000135018
2.66399e-08
0.000135048
1.83014e-08
0.000135078
9.38412e-09
0.000135108
1.25751e-11
0.000135137
-9.87025e-09
0.000135166
-2.00769e-08
0.000135194
-3.0602e-08
0.000135221
-4.1391e-08
0.000135248
-5.24006e-08
0.000135275
-6.35902e-08
0.0001353
-7.49216e-08
0.000135325
-8.63585e-08
0.000135349
-9.7866e-08
0.000135372
-1.0941e-07
0.000135394
-1.20957e-07
0.000135416
-1.32474e-07
0.000135437
-1.43928e-07
-1.55274e-07
0.000135457
0.000138505
4.54591e-09
0.000138511
1.31057e-08
0.000138522
2.04494e-08
0.000138537
2.63038e-08
0.000138555
3.05983e-08
0.000138576
3.33508e-08
0.0001386
3.46253e-08
0.000138625
3.45151e-08
0.000138652
3.31261e-08
0.000138681
3.05684e-08
0.00013871
2.69207e-08
0.00013874
2.22995e-08
0.00013877
1.68244e-08
0.000138801
1.05716e-08
0.000138832
3.61864e-09
0.000138862
-3.93694e-09
0.000138893
-1.20288e-08
0.000138923
-2.05989e-08
0.000138952
-2.95769e-08
0.000138981
-3.89289e-08
0.00013901
-4.8579e-08
0.000139038
-5.84919e-08
0.000139065
-6.86265e-08
0.000139092
-7.89435e-08
0.000139117
-8.94066e-08
0.000139142
-9.99816e-08
0.000139167
-1.10635e-07
0.00013919
-1.21336e-07
0.000139213
-1.32052e-07
0.000139235
-1.42753e-07
0.000139256
-1.53407e-07
0.000139276
-1.63988e-07
-1.74451e-07
0.000139295
0.000142462
2.19369e-09
0.000142468
6.35175e-09
0.000142479
9.614e-09
0.000142494
1.17367e-08
0.000142512
1.26851e-08
0.000142533
1.25146e-08
0.000142556
1.12994e-08
0.000142581
9.12201e-09
0.000142608
6.07204e-09
0.000142637
2.26597e-09
0.000142666
-2.34559e-09
0.000142696
-7.67754e-09
0.000142726
-1.35806e-08
0.000142757
-2.00441e-08
0.000142787
-2.70145e-08
0.000142818
-3.44408e-08
0.000142848
-4.22778e-08
0.000142878
-5.04816e-08
0.000142908
-5.90045e-08
0.000142936
-6.78144e-08
0.000142965
-7.68676e-08
0.000142992
-8.61279e-08
0.000143019
-9.55626e-08
0.000143045
-1.0514e-07
0.000143071
-1.14828e-07
0.000143096
-1.24599e-07
0.000143119
-1.34422e-07
0.000143142
-1.44269e-07
0.000143164
-1.54112e-07
0.000143185
-1.63923e-07
0.000143206
-1.73675e-07
0.000143225
-1.83342e-07
-1.92886e-07
0.000143244
0.000146531
8.1763e-11
0.000146538
-6.5216e-11
0.000146548
-8.93505e-10
0.000146563
-2.58308e-09
0.00014658
-5.10043e-09
0.000146601
-8.3093e-09
0.000146625
-1.21037e-08
0.00014665
-1.64005e-08
0.000146677
-2.11445e-08
0.000146706
-2.63002e-08
0.000146736
-3.18687e-08
0.000146766
-3.78181e-08
0.000146796
-4.41126e-08
0.000146827
-5.07486e-08
0.000146858
-5.77086e-08
0.000146888
-6.49691e-08
0.000146918
-7.25069e-08
0.000146948
-8.02992e-08
0.000146977
-8.83201e-08
0.000147006
-9.65466e-08
0.000147034
-1.04951e-07
0.000147062
-1.13508e-07
0.000147088
-1.22192e-07
0.000147114
-1.30978e-07
0.000147139
-1.39842e-07
0.000147163
-1.48758e-07
0.000147187
-1.57702e-07
0.000147209
-1.66648e-07
0.00014723
-1.75574e-07
0.000147251
-1.84453e-07
0.000147271
-1.93264e-07
0.000147289
-2.01983e-07
-2.10577e-07
0.000147307
0.000150718
-2.45292e-09
0.000150725
-6.74136e-09
0.000150735
-1.1488e-08
0.00015075
-1.68808e-08
0.000150767
-2.27859e-08
0.000150788
-2.90084e-08
0.000150811
-3.53954e-08
0.000150837
-4.185e-08
0.000150864
-4.83309e-08
0.000150893
-5.48304e-08
0.000150922
-6.13766e-08
0.000150952
-6.79955e-08
0.000150983
-7.4701e-08
0.000151014
-8.15147e-08
0.000151044
-8.84537e-08
0.000151075
-9.5527e-08
0.000151105
-1.02738e-07
0.000151135
-1.10087e-07
0.000151164
-1.17566e-07
0.000151193
-1.25166e-07
0.000151221
-1.32877e-07
0.000151248
-1.40681e-07
0.000151274
-1.48564e-07
0.0001513
-1.56507e-07
0.000151324
-1.64493e-07
0.000151348
-1.72503e-07
0.000151371
-1.80516e-07
0.000151393
-1.88512e-07
0.000151414
-1.96471e-07
0.000151434
-2.04372e-07
0.000151453
-2.12195e-07
0.000151471
-2.19921e-07
-2.27519e-07
0.000151488
0.000155023
-3.70065e-09
0.000155028
-1.20761e-08
0.000155038
-2.12006e-08
0.000155052
-3.09739e-08
0.00015507
-4.0855e-08
0.000155092
-5.04734e-08
0.000155116
-5.96391e-08
0.000155142
-6.8294e-08
0.00015517
-7.64642e-08
0.0001552
-8.42154e-08
0.00015523
-9.16337e-08
0.000155261
-9.88015e-08
0.000155292
-1.0579e-07
0.000155323
-1.12663e-07
0.000155354
-1.19474e-07
0.000155385
-1.26264e-07
0.000155415
-1.33062e-07
0.000155445
-1.39886e-07
0.000155474
-1.46749e-07
0.000155503
-1.53655e-07
0.00015553
-1.60606e-07
0.000155557
-1.67596e-07
0.000155583
-1.74618e-07
0.000155608
-1.81662e-07
0.000155633
-1.88716e-07
0.000155656
-1.95767e-07
0.000155678
-2.02799e-07
0.0001557
-2.09797e-07
0.00015572
-2.16745e-07
0.000155739
-2.23626e-07
0.000155757
-2.30424e-07
0.000155774
-2.37123e-07
-2.43698e-07
0.000155791
0.000159455
-7.68075e-09
0.000159462
-1.92793e-08
0.000159472
-3.1631e-08
0.000159486
-4.46845e-08
0.000159503
-5.79615e-08
0.000159523
-7.08508e-08
0.000159547
-8.29251e-08
0.000159572
-9.40138e-08
0.0001596
-1.04123e-07
0.000159629
-1.13346e-07
0.000159659
-1.21815e-07
0.00015969
-1.29668e-07
0.000159721
-1.37033e-07
0.000159753
-1.44023e-07
0.000159784
-1.50733e-07
0.000159815
-1.57241e-07
0.000159846
-1.63605e-07
0.000159876
-1.69871e-07
0.000159905
-1.76073e-07
0.000159934
-1.82233e-07
0.000159961
-1.88366e-07
0.000159988
-1.94479e-07
0.000160014
-2.00577e-07
0.000160039
-2.06657e-07
0.000160063
-2.12715e-07
0.000160086
-2.18744e-07
0.000160108
-2.24733e-07
0.000160129
-2.30673e-07
0.000160149
-2.36552e-07
0.000160167
-2.42356e-07
0.000160185
-2.48072e-07
0.000160202
-2.53688e-07
-2.59183e-07
0.000160217
0.000164003
-5.06129e-09
0.000164005
-2.11912e-08
0.000164014
-4.00558e-08
0.000164029
-5.95877e-08
0.000164049
-7.81486e-08
0.000164073
-9.49814e-08
0.0001641
-1.09906e-07
0.000164129
-1.23026e-07
0.000164159
-1.34548e-07
0.000164191
-1.44704e-07
0.000164223
-1.53727e-07
0.000164255
-1.61835e-07
0.000164287
-1.69214e-07
0.000164319
-1.76023e-07
0.000164351
-1.82391e-07
0.000164382
-1.88421e-07
0.000164413
-1.94195e-07
0.000164442
-1.99776e-07
0.000164472
-2.05212e-07
0.0001645
-2.10538e-07
0.000164527
-2.15779e-07
0.000164554
-2.20953e-07
0.000164579
-2.2607e-07
0.000164604
-2.31136e-07
0.000164627
-2.36151e-07
0.00016465
-2.41114e-07
0.000164671
-2.4602e-07
0.000164691
-2.50864e-07
0.00016471
-2.55637e-07
0.000164728
-2.60331e-07
0.000164745
-2.64937e-07
0.000164761
-2.69446e-07
-2.7384e-07
0.000164775
0.000168701
-1.45763e-08
0.000168709
-2.93818e-08
0.000168717
-4.80112e-08
0.000168727
-6.94894e-08
0.000168741
-9.21673e-08
0.00016876
-1.1367e-07
0.000168783
-1.32762e-07
0.000168809
-1.49229e-07
0.000168838
-1.63289e-07
0.000168868
-1.7527e-07
0.0001689
-1.85517e-07
0.000168933
-1.94352e-07
0.000168966
-2.02058e-07
0.000168998
-2.08875e-07
0.000169031
-2.14994e-07
0.000169063
-2.20574e-07
0.000169095
-2.25735e-07
0.000169126
-2.30575e-07
0.000169155
-2.35167e-07
0.000169184
-2.39566e-07
0.000169213
-2.43816e-07
0.00016924
-2.47945e-07
0.000169265
-2.51976e-07
0.00016929
-2.55923e-07
0.000169314
-2.59795e-07
0.000169336
-2.63596e-07
0.000169358
-2.67328e-07
0.000169378
-2.70988e-07
0.000169397
-2.74575e-07
0.000169414
-2.78082e-07
0.000169431
-2.81504e-07
0.000169446
-2.84834e-07
-2.8806e-07
0.000169461
0.000173491
5.62621e-09
0.000173485
-2.30644e-08
0.000173495
-5.82022e-08
0.000173517
-9.14413e-08
0.000173546
-1.20736e-07
0.000173577
-1.45377e-07
0.00017361
-1.66014e-07
0.000173644
-1.83229e-07
0.000173679
-1.97573e-07
0.000173713
-2.09541e-07
0.000173747
-2.19575e-07
0.000173781
-2.28058e-07
0.000173814
-2.35305e-07
0.000173847
-2.41568e-07
0.000173879
-2.47054e-07
0.00017391
-2.51924e-07
0.000173941
-2.5631e-07
0.00017397
-2.60312e-07
0.000173999
-2.64009e-07
0.000174027
-2.67465e-07
0.000174054
-2.70725e-07
0.00017408
-2.73826e-07
0.000174105
-2.76795e-07
0.000174129
-2.7965e-07
0.000174151
-2.82407e-07
0.000174173
-2.85073e-07
0.000174193
-2.87655e-07
0.000174212
-2.90155e-07
0.00017423
-2.92573e-07
0.000174247
-2.94909e-07
0.000174263
-2.97158e-07
0.000174277
-2.99319e-07
-3.01379e-07
0.00017429
0.000178498
-2.3996e-08
0.000178501
-2.59671e-08
0.00017849
-4.74799e-08
0.000178482
-8.27387e-08
0.000178484
-1.23453e-07
0.000178498
-1.59364e-07
0.000178521
-1.88511e-07
0.000178549
-2.11535e-07
0.000178581
-2.29772e-07
0.000178616
-2.44227e-07
0.000178652
-2.55697e-07
0.000178689
-2.64848e-07
0.000178726
-2.72206e-07
0.000178762
-2.78179e-07
0.000178798
-2.83085e-07
0.000178834
-2.87169e-07
0.000178868
-2.90617e-07
0.000178901
-2.93572e-07
0.000178933
-2.96145e-07
0.000178964
-2.98417e-07
0.000178994
-3.00453e-07
0.000179023
-3.02298e-07
0.00017905
-3.0399e-07
0.000179076
-3.05554e-07
0.0001791
-3.0701e-07
0.000179124
-3.08371e-07
0.000179146
-3.09648e-07
0.000179166
-3.10846e-07
0.000179186
-3.11969e-07
0.000179204
-3.13019e-07
0.000179221
-3.13997e-07
0.000179236
-3.14905e-07
-3.15734e-07
0.000179251
0.000183487
5.68611e-08
0.000183465
-3.98409e-09
0.000183501
-8.3423e-08
0.000183554
-1.35769e-07
0.000183605
-1.75408e-07
0.000183652
-2.062e-07
0.000183694
-2.30577e-07
0.000183733
-2.50394e-07
0.00018377
-2.66379e-07
0.000183805
-2.79215e-07
0.000183839
-2.89556e-07
0.000183872
-2.97911e-07
0.000183904
-3.0467e-07
0.000183936
-3.1015e-07
0.000183968
-3.146e-07
0.000183999
-3.1822e-07
0.000184029
-3.21168e-07
0.000184059
-3.23569e-07
0.000184089
-3.25521e-07
0.000184117
-3.27105e-07
0.000184145
-3.28383e-07
0.000184172
-3.29406e-07
0.000184199
-3.30212e-07
0.000184224
-3.30833e-07
0.000184248
-3.31295e-07
0.000184271
-3.31618e-07
0.000184294
-3.31817e-07
0.000184315
-3.31903e-07
0.000184335
-3.31886e-07
0.000184353
-3.31771e-07
0.000184371
-3.31562e-07
0.000184387
-3.31261e-07
-3.30869e-07
0.000184402
0.000188861
7.81372e-09
0.000188796
6.06945e-08
0.000188711
1.57203e-09
0.000188648
-7.2489e-08
0.00018863
-1.57279e-07
0.000188644
-2.20327e-07
0.000188677
-2.63601e-07
0.000188721
-2.94176e-07
0.000188771
-3.16263e-07
0.000188824
-3.32458e-07
0.000188879
-3.44404e-07
0.000188934
-3.53226e-07
0.000188989
-3.59722e-07
0.000189043
-3.6446e-07
0.000189097
-3.67855e-07
0.000189149
-3.70207e-07
0.000189199
-3.71743e-07
0.000189248
-3.72631e-07
0.000189296
-3.73001e-07
0.000189342
-3.72953e-07
0.000189386