/*--------------------------------*- C++ -*----------------------------------*\
| =========                 |                                                 |
| \\      /  F ield         | OpenFOAM: The Open Source CFD Toolbox           |
|  \\    /   O peration     | Version:  2.1.1                                 |
|   \\  /    A nd           | Web:      www.OpenFOAM.org                      |
|    \\/     M anipulation  |                                                 |
\*---------------------------------------------------------------------------*/
FoamFile
{
    version     2.0;
    format      ascii;
    class       volVectorField;
    location    "0.195";
    object      U;
}
// * * * * * * * * * * * * * * * * * * * * * * * * * * * * * * * * * * * * * //

dimensions      [0 1 -1 0 0 0 0];

internalField   nonuniform List<vector> 
6820
(
(8.34337 -0.360076 0)
(8.40109 -0.24715 0)
(8.35607 -0.11529 0)
(8.24774 -0.0365527 0)
(8.11927 0.00601476 0)
(7.98579 0.0278789 0)
(7.85364 0.0386512 0)
(7.72618 0.0433534 0)
(7.60484 0.0446272 0)
(7.49016 0.0439293 0)
(7.38237 0.0421017 0)
(7.2815 0.0396486 0)
(7.18744 0.0368814 0)
(7.09995 0.0339957 0)
(7.01878 0.0311154 0)
(6.94359 0.0283181 0)
(6.87403 0.025651 0)
(6.80975 0.0231413 0)
(6.75039 0.0208026 0)
(6.69557 0.0186396 0)
(6.64496 0.0166515 0)
(6.59823 0.0148341 0)
(6.55503 0.0131826 0)
(6.51508 0.0116928 0)
(6.47805 0.0103639 0)
(6.44362 0.00920242 0)
(6.41148 0.00822778 0)
(6.38118 0.00749295 0)
(6.35223 0.00710416 0)
(6.32368 0.00733002 0)
(6.29401 0.00897361 0)
(6.25998 0.0129471 0)
(6.21281 0.0291397 0)
(8.32138 0.166252 0)
(8.28709 0.190008 0)
(8.28543 0.132164 0)
(8.31739 0.09587 0)
(8.36168 0.0750366 0)
(8.40172 0.062377 0)
(8.43279 0.0548968 0)
(8.45485 0.0503766 0)
(8.46876 0.0474752 0)
(8.47553 0.045479 0)
(8.47618 0.0439931 0)
(8.47167 0.0427796 0)
(8.46282 0.0416996 0)
(8.45037 0.0406761 0)
(8.43493 0.0396685 0)
(8.41708 0.0386581 0)
(8.3973 0.0376388 0)
(8.37599 0.0366116 0)
(8.35352 0.0355813 0)
(8.33019 0.0345547 0)
(8.30625 0.0335393 0)
(8.28193 0.0325437 0)
(8.2574 0.0315776 0)
(8.2328 0.030653 0)
(8.20827 0.0297868 0)
(8.1839 0.029004 0)
(8.15979 0.0283486 0)
(8.13596 0.0278961 0)
(8.11265 0.0277892 0)
(8.08962 0.0283529 0)
(8.06891 0.0300431 0)
(8.04814 0.0348106 0)
(8.04702 0.0428711 0)
(8.3225 -0.0608831 0)
(8.31397 -0.0832736 0)
(8.33049 -0.0540837 0)
(8.34429 -0.0202812 0)
(8.35314 0.00243509 0)
(8.36214 0.0165678 0)
(8.37184 0.0258136 0)
(8.38184 0.0320378 0)
(8.39165 0.0362641 0)
(8.40088 0.0391377 0)
(8.40928 0.0410532 0)
(8.41674 0.0422548 0)
(8.42318 0.0429163 0)
(8.42858 0.0431691 0)
(8.43298 0.0431123 0)
(8.43641 0.0428225 0)
(8.43891 0.0423589 0)
(8.44056 0.0417684 0)
(8.44142 0.0410877 0)
(8.44156 0.0403464 0)
(8.44103 0.0395687 0)
(8.43991 0.038775 0)
(8.43825 0.0379837 0)
(8.43611 0.0372131 0)
(8.43354 0.0364847 0)
(8.43058 0.0358244 0)
(8.42728 0.0352767 0)
(8.42368 0.0348885 0)
(8.41987 0.0348041 0)
(8.41591 0.0350112 0)
(8.41229 0.0361739 0)
(8.40903 0.0366577 0)
(8.40744 0.040121 0)
(8.33365 0.014568 0)
(8.32976 0.0477139 0)
(8.32735 0.0539962 0)
(8.32867 0.0465876 0)
(8.33453 0.0410973 0)
(8.34203 0.0386026 0)
(8.34949 0.0378012 0)
(8.35668 0.0377652 0)
(8.36362 0.0379936 0)
(8.37029 0.038266 0)
(8.37666 0.0384839 0)
(8.3827 0.0386062 0)
(8.38841 0.0386233 0)
(8.39376 0.0385384 0)
(8.39875 0.03836 0)
(8.40337 0.0380992 0)
(8.40763 0.0377683 0)
(8.41154 0.0373798 0)
(8.41511 0.0369459 0)
(8.41837 0.0364783 0)
(8.42132 0.0359885 0)
(8.42399 0.0354878 0)
(8.4264 0.0349886 0)
(8.42857 0.0345051 0)
(8.43051 0.0340558 0)
(8.43224 0.0336647 0)
(8.43381 0.0333693 0)
(8.43523 0.0332147 0)
(8.43661 0.0332868 0)
(8.438 0.0336347 0)
(8.43983 0.0344351 0)
(8.4422 0.035435 0)
(8.44637 0.0369786 0)
(8.3302 -0.00530507 0)
(8.32721 -0.00749227 0)
(8.33135 -0.00242179 0)
(8.33601 0.00807721 0)
(8.34005 0.0172619 0)
(8.34419 0.0234889 0)
(8.34856 0.0276832 0)
(8.35317 0.0306568 0)
(8.35795 0.0328108 0)
(8.36276 0.0343776 0)
(8.36753 0.0355022 0)
(8.37222 0.0362791 0)
(8.37677 0.036775 0)
(8.38118 0.0370413 0)
(8.38542 0.0371204 0)
(8.38949 0.037048 0)
(8.39338 0.0368544 0)
(8.3971 0.0365653 0)
(8.40064 0.0362024 0)
(8.40402 0.0357849 0)
(8.40724 0.0353291 0)
(8.41031 0.0348505 0)
(8.41324 0.034364 0)
(8.41604 0.0338853 0)
(8.41872 0.0334326 0)
(8.4213 0.0330273 0)
(8.42381 0.0326997 0)
(8.42627 0.0324787 0)
(8.42878 0.0324186 0)
(8.43141 0.0325099 0)
(8.43441 0.032841 0)
(8.43789 0.0330173 0)
(8.4422 0.0332026 0)
(8.33238 0.00229464 0)
(8.33117 0.0133315 0)
(8.33277 0.0204322 0)
(8.33545 0.0238391 0)
(8.33887 0.0260072 0)
(8.34289 0.027829 0)
(8.34707 0.0295193 0)
(8.35127 0.0310269 0)
(8.35546 0.0322713 0)
(8.35962 0.0332417 0)
(8.36373 0.0339604 0)
(8.36777 0.0344553 0)
(8.37171 0.0347552 0)
(8.37557 0.0348889 0)
(8.37931 0.0348836 0)
(8.38294 0.034763 0)
(8.38647 0.0345483 0)
(8.38987 0.034258 0)
(8.39317 0.0339083 0)
(8.39636 0.0335139 0)
(8.39946 0.0330877 0)
(8.40245 0.0326421 0)
(8.40537 0.0321894 0)
(8.4082 0.0317427 0)
(8.41098 0.0313168 0)
(8.4137 0.0309279 0)
(8.41641 0.0305968 0)
(8.41913 0.0303409 0)
(8.42193 0.0301834 0)
(8.42489 0.0301048 0)
(8.42815 0.0300996 0)
(8.4318 0.0299397 0)
(8.43596 0.0295627 0)
(8.33232 0.000884492 0)
(8.33151 0.00581864 0)
(8.33338 0.0108144 0)
(8.3364 0.0156324 0)
(8.33977 0.0200351 0)
(8.34339 0.0235627 0)
(8.34709 0.026262 0)
(8.35081 0.028328 0)
(8.35455 0.0298976 0)
(8.35828 0.0310732 0)
(8.36198 0.0319319 0)
(8.36561 0.0325298 0)
(8.36919 0.0329102 0)
(8.37268 0.0331092 0)
(8.37609 0.0331574 0)
(8.37942 0.0330809 0)
(8.38266 0.0329023 0)
(8.38582 0.032641 0)
(8.38889 0.0323139 0)
(8.39189 0.0319361 0)
(8.39482 0.0315208 0)
(8.39769 0.0310803 0)
(8.40049 0.0306263 0)
(8.40325 0.0301706 0)
(8.40598 0.0297253 0)
(8.40869 0.0293026 0)
(8.4114 0.0289153 0)
(8.41416 0.0285705 0)
(8.41701 0.0282726 0)
(8.42001 0.0279916 0)
(8.42325 0.0276907 0)
(8.42678 0.0272074 0)
(8.43059 0.0264431 0)
(8.33272 0.00172201 0)
(8.33254 0.00732641 0)
(8.33414 0.0126431 0)
(8.33671 0.0169304 0)
(8.3397 0.0204029 0)
(8.34305 0.0231487 0)
(8.34656 0.0253314 0)
(8.35011 0.0270847 0)
(8.35367 0.0284686 0)
(8.35721 0.0295295 0)
(8.36069 0.0303137 0)
(8.36412 0.0308616 0)
(8.36748 0.031208 0)
(8.37076 0.0313841 0)
(8.37398 0.0314171 0)
(8.37711 0.0313308 0)
(8.38017 0.031146 0)
(8.38316 0.0308807 0)
(8.38608 0.0305505 0)
(8.38894 0.0301693 0)
(8.39174 0.0297491 0)
(8.39449 0.029301 0)
(8.39719 0.0288353 0)
(8.39987 0.0283614 0)
(8.40253 0.0278887 0)
(8.40518 0.0274248 0)
(8.40786 0.0269761 0)
(8.41059 0.026542 0)
(8.41341 0.0261153 0)
(8.41635 0.0256637 0)
(8.41948 0.0251414 0)
(8.42281 0.0244377 0)
(8.4263 0.0234678 0)
(8.33284 0.00180335 0)
(8.33292 0.00650537 0)
(8.3344 0.0110479 0)
(8.33679 0.014966 0)
(8.33962 0.0183601 0)
(8.34277 0.0211823 0)
(8.34609 0.0234595 0)
(8.34946 0.0252753 0)
(8.35285 0.0266956 0)
(8.35622 0.0277786 0)
(8.35956 0.0285781 0)
(8.36284 0.0291384 0)
(8.36606 0.0294963 0)
(8.36921 0.0296833 0)
(8.3723 0.0297266 0)
(8.37531 0.0296495 0)
(8.37825 0.0294722 0)
(8.38112 0.0292123 0)
(8.38394 0.0288847 0)
(8.38669 0.0285027 0)
(8.3894 0.0280777 0)
(8.39207 0.0276198 0)
(8.3947 0.0271379 0)
(8.39731 0.0266399 0)
(8.3999 0.0261324 0)
(8.4025 0.0256198 0)
(8.40513 0.0251034 0)
(8.40781 0.0245781 0)
(8.41056 0.0240307 0)
(8.41342 0.0234304 0)
(8.41641 0.0227338 0)
(8.41952 0.0218649 0)
(8.42273 0.0207606 0)
(8.33294 0.00184714 0)
(8.33322 0.00618821 0)
(8.3346 0.0104308 0)
(8.33678 0.0141279 0)
(8.3394 0.0172959 0)
(8.34234 0.0199241 0)
(8.34546 0.0220531 0)
(8.34867 0.0237626 0)
(8.35192 0.0251128 0)
(8.35517 0.0261523 0)
(8.35839 0.0269253 0)
(8.36157 0.0274701 0)
(8.36469 0.0278196 0)
(8.36775 0.0280028 0)
(8.37074 0.0280447 0)
(8.37366 0.0279673 0)
(8.37652 0.0277897 0)
(8.37932 0.0275284 0)
(8.38207 0.0271976 0)
(8.38475 0.0268095 0)
(8.3874 0.0263748 0)
(8.39 0.0259025 0)
(8.39258 0.0254001 0)
(8.39513 0.024874 0)
(8.39768 0.0243283 0)
(8.40024 0.0237648 0)
(8.40281 0.0231817 0)
(8.40543 0.0225711 0)
(8.40811 0.0219179 0)
(8.41087 0.0211951 0)
(8.41371 0.0203661 0)
(8.41664 0.0193789 0)
(8.41961 0.0181918 0)
(8.33299 0.00181248 0)
(8.33337 0.00576737 0)
(8.33466 0.00961312 0)
(8.33667 0.0130149 0)
(8.33911 0.0159643 0)
(8.34186 0.0184536 0)
(8.34481 0.0205007 0)
(8.34787 0.0221579 0)
(8.35097 0.0234736 0)
(8.3541 0.0244905 0)
(8.3572 0.025249 0)
(8.36028 0.0257854 0)
(8.36331 0.0261309 0)
(8.36628 0.0263129 0)
(8.3692 0.0263555 0)
(8.37206 0.0262792 0)
(8.37486 0.0261023 0)
(8.3776 0.0258402 0)
(8.38029 0.0255063 0)
(8.38292 0.0251121 0)
(8.38552 0.0246672 0)
(8.38808 0.0241798 0)
(8.39061 0.0236561 0)
(8.39313 0.023101 0)
(8.39563 0.0225171 0)
(8.39814 0.0219041 0)
(8.40067 0.0212585 0)
(8.40323 0.0205714 0)
(8.40583 0.019828 0)
(8.40849 0.0190058 0)
(8.4112 0.0180761 0)
(8.41395 0.0170038 0)
(8.41672 0.0157626 0)
(8.33301 0.00173662 0)
(8.33345 0.0053693 0)
(8.33467 0.00888957 0)
(8.33652 0.0120421 0)
(8.33879 0.0147916 0)
(8.34136 0.0171286 0)
(8.34414 0.0190638 0)
(8.34704 0.020638 0)
(8.35001 0.0218934 0)
(8.35301 0.022868 0)
(8.35601 0.0235976 0)
(8.35898 0.0241148 0)
(8.36192 0.024448 0)
(8.36482 0.0246225 0)
(8.36767 0.0246603 0)
(8.37046 0.0245808 0)
(8.3732 0.0244008 0)
(8.37589 0.0241347 0)
(8.37853 0.0237951 0)
(8.38112 0.0233925 0)
(8.38368 0.0229355 0)
(8.3862 0.0224313 0)
(8.38869 0.0218853 0)
(8.39117 0.0213009 0)
(8.39364 0.0206795 0)
(8.3961 0.0200198 0)
(8.39858 0.0193173 0)
(8.40108 0.0185633 0)
(8.4036 0.0177447 0)
(8.40616 0.0168435 0)
(8.40875 0.0158381 0)
(8.41135 0.0147052 0)
(8.41394 0.0134295 0)
(8.33303 0.00163658 0)
(8.33349 0.00497157 0)
(8.33463 0.00818471 0)
(8.33635 0.0110864 0)
(8.33845 0.0136329 0)
(8.34086 0.0158141 0)
(8.34348 0.0176356 0)
(8.34624 0.0191267 0)
(8.34907 0.0203214 0)
(8.35195 0.0212521 0)
(8.35483 0.0219504 0)
(8.35771 0.0224453 0)
(8.36056 0.0227629 0)
(8.36338 0.0229265 0)
(8.36615 0.0229565 0)
(8.36888 0.0228709 0)
(8.37156 0.0226853 0)
(8.3742 0.0224132 0)
(8.37679 0.022066 0)
(8.37934 0.0216533 0)
(8.38185 0.0211831 0)
(8.38433 0.0206615 0)
(8.38679 0.0200929 0)
(8.38922 0.01948 0)
(8.39165 0.0188232 0)
(8.39407 0.0181208 0)
(8.39649 0.017368 0)
(8.39892 0.0165571 0)
(8.40137 0.015677 0)
(8.40383 0.0147139 0)
(8.4063 0.0136523 0)
(8.40876 0.0124769 0)
(8.41121 0.0111795 0)
(8.33304 0.00152398 0)
(8.3335 0.00458177 0)
(8.33457 0.00751343 0)
(8.33616 0.0101782 0)
(8.33813 0.0125298 0)
(8.34039 0.0145558 0)
(8.34285 0.0162583 0)
(8.34547 0.0176582 0)
(8.34817 0.0187834 0)
(8.35092 0.0196618 0)
(8.35369 0.020321 0)
(8.35647 0.0207869 0)
(8.35923 0.0210831 0)
(8.36197 0.0212307 0)
(8.36467 0.0212485 0)
(8.36733 0.0211529 0)
(8.36995 0.0209584 0)
(8.37253 0.0206773 0)
(8.37507 0.0203202 0)
(8.37757 0.0198956 0)
(8.38004 0.0194107 0)
(8.38247 0.0188708 0)
(8.38488 0.0182798 0)
(8.38728 0.0176394 0)
(8.38965 0.0169498 0)
(8.39202 0.016209 0)
(8.39439 0.0154125 0)
(8.39675 0.0145539 0)
(8.39911 0.0136243 0)
(8.40148 0.0126135 0)
(8.40384 0.0115107 0)
(8.40618 0.010306 0)
(8.40849 0.00899623 0)
(8.33304 0.00140582 0)
(8.33349 0.00420069 0)
(8.3345 0.00686908 0)
(8.33598 0.00930531 0)
(8.33782 0.0114652 0)
(8.33993 0.013335 0)
(8.34226 0.0149145 0)
(8.34474 0.0162185 0)
(8.34731 0.0172692 0)
(8.34994 0.0180903 0)
(8.35261 0.0187056 0)
(8.35529 0.0191379 0)
(8.35796 0.0194082 0)
(8.36061 0.0195358 0)
(8.36323 0.0195376 0)
(8.36582 0.0194288 0)
(8.36838 0.0192225 0)
(8.3709 0.01893 0)
(8.37339 0.0185608 0)
(8.37584 0.0181228 0)
(8.37825 0.0176223 0)
(8.38064 0.017064 0)
(8.383 0.016451 0)
(8.38534 0.0157849 0)
(8.38767 0.0150654 0)
(8.38998 0.0142907 0)
(8.39228 0.0134572 0)
(8.39457 0.0125594 0)
(8.39685 0.0115907 0)
(8.39912 0.0105438 0)
(8.40138 0.0094115 0)
(8.40361 0.00818777 0)
(8.4058 0.00687217 0)
(8.33304 0.00128626 0)
(8.33347 0.00382977 0)
(8.33442 0.00625039 0)
(8.3358 0.00846721 0)
(8.33752 0.0104402 0)
(8.33951 0.0121548 0)
(8.3417 0.0136088 0)
(8.34405 0.0148126 0)
(8.3465 0.0157838 0)
(8.34902 0.0165422 0)
(8.35158 0.0171081 0)
(8.35416 0.0175017 0)
(8.35674 0.0177415 0)
(8.35931 0.0178448 0)
(8.36186 0.017827 0)
(8.36438 0.0177017 0)
(8.36687 0.0174807 0)
(8.36933 0.0171744 0)
(8.37175 0.0167913 0)
(8.37415 0.0163386 0)
(8.37651 0.0158218 0)
(8.37885 0.0152451 0)
(8.38115 0.0146112 0)
(8.38344 0.0139213 0)
(8.38571 0.0131752 0)
(8.38795 0.0123714 0)
(8.39018 0.0115069 0)
(8.3924 0.0105777 0)
(8.3946 0.00957885 0)
(8.39678 0.00850545 0)
(8.39893 0.00735293 0)
(8.40105 0.00611788 0)
(8.40313 0.0048016 0)
(8.33304 0.0011677 0)
(8.33345 0.00346962 0)
(8.33434 0.00565508 0)
(8.33563 0.00766051 0)
(8.33724 0.00945071 0)
(8.33911 0.0110108 0)
(8.34119 0.0123373 0)
(8.34341 0.0134374 0)
(8.34575 0.0143248 0)
(8.34816 0.0150159 0)
(8.35062 0.015528 0)
(8.3531 0.0158784 0)
(8.35559 0.0160837 0)
(8.35807 0.016159 0)
(8.36054 0.0161181 0)
(8.36299 0.0159733 0)
(8.36542 0.0157353 0)
(8.36781 0.0154132 0)
(8.37018 0.0150148 0)
(8.37251 0.0145465 0)
(8.37482 0.0140132 0)
(8.3771 0.0134186 0)
(8.37935 0.0127651 0)
(8.38157 0.0120537 0)
(8.38378 0.0112845 0)
(8.38596 0.0104562 0)
(8.38812 0.00956659 0)
(8.39025 0.00861286 0)
(8.39237 0.00759168 0)
(8.39446 0.00649979 0)
(8.39651 0.00533461 0)
(8.39853 0.00409447 0)
(8.4005 0.00278172 0)
(8.33304 0.00105144 0)
(8.33343 0.00312047 0)
(8.33426 0.00508134 0)
(8.33548 0.00688273 0)
(8.33699 0.00849412 0)
(8.33875 0.0099009 0)
(8.34071 0.0110988 0)
(8.34282 0.0120925 0)
(8.34505 0.0128924 0)
(8.34736 0.0135121 0)
(8.34971 0.0139661 0)
(8.3521 0.0142694 0)
(8.3545 0.0144362 0)
(8.35691 0.0144801 0)
(8.3593 0.0144131 0)
(8.36168 0.0142462 0)
(8.36404 0.0139889 0)
(8.36637 0.0136493 0)
(8.36867 0.0132345 0)
(8.37094 0.0127501 0)
(8.37319 0.0122004 0)
(8.37541 0.0115887 0)
(8.37759 0.0109173 0)
(8.37976 0.010187 0)
(8.38189 0.00939816 0)
(8.384 0.00854987 0)
(8.38609 0.00764071 0)
(8.38815 0.00666875 0)
(8.39018 0.00563192 0)
(8.39217 0.00452834 0)
(8.39413 0.00335679 0)
(8.39605 0.00211676 0)
(8.39792 0.000811179 0)
(8.33303 0.000938096 0)
(8.3334 0.00278217 0)
(8.33419 0.0045274 0)
(8.33533 0.00613133 0)
(8.33675 0.00756764 0)
(8.33841 0.00882245 0)
(8.34027 0.00989091 0)
(8.34228 0.0107758 0)
(8.3444 0.0114851 0)
(8.34661 0.0120298 0)
(8.34887 0.012422 0)
(8.35117 0.0126744 0)
(8.35349 0.0127994 0)
(8.35581 0.0128087 0)
(8.35813 0.0127128 0)
(8.36043 0.0125215 0)
(8.36272 0.012243 0)
(8.36499 0.0118846 0)
(8.36722 0.0114526 0)
(8.36944 0.0109518 0)
(8.37162 0.0103862 0)
(8.37377 0.00975864 0)
(8.3759 0.00907118 0)
(8.378 0.00832483 0)
(8.38006 0.00751991 0)
(8.3821 0.00665606 0)
(8.38411 0.00573245 0)
(8.38609 0.00474795 0)
(8.38803 0.00370146 0)
(8.38994 0.0025921 0)
(8.39181 0.0014196 0)
(8.39363 0.000184221 0)
(8.39541 -0.00111081 0)
(8.33303 0.000827906 0)
(8.33338 0.00245429 0)
(8.33412 0.00399159 0)
(8.33519 0.00540396 0)
(8.33653 0.00666872 0)
(8.33811 0.00777297 0)
(8.33987 0.00871159 0)
(8.34178 0.00948598 0)
(8.34381 0.0101022 0)
(8.34592 0.0105688 0)
(8.34809 0.0108961 0)
(8.3503 0.0110945 0)
(8.35254 0.0111747 0)
(8.35478 0.0111466 0)
(8.35703 0.0110196 0)
(8.35926 0.0108018 0)
(8.36148 0.0105007 0)
(8.36368 0.0101226 0)
(8.36585 0.00967282 0)
(8.368 0.00915581 0)
(8.37012 0.008575 0)
(8.3722 0.00793302 0)
(8.37426 0.00723167 0)
(8.37629 0.00647205 0)
(8.37829 0.00565464 0)
(8.38026 0.00477945 0)
(8.38219 0.00384615 0)
(8.38409 0.00285429 0)
(8.38595 0.00180346 0)
(8.38777 0.000693521 0)
(8.38955 -0.000475157 0)
(8.39128 -0.00170181 0)
(8.39296 -0.00298311 0)
(8.33303 0.000720859 0)
(8.33336 0.00213625 0)
(8.33406 0.00347228 0)
(8.33507 0.00469825 0)
(8.33634 0.00579459 0)
(8.33783 0.00674954 0)
(8.3395 0.00755793 0)
(8.34132 0.00822021 0)
(8.34326 0.00874081 0)
(8.34528 0.0091266 0)
(8.34737 0.00938582 0)
(8.3495 0.00952726 0)
(8.35165 0.00955981 0)
(8.35382 0.00949193 0)
(8.35599 0.00933151 0)
(8.35816 0.00908567 0)
(8.36031 0.00876074 0)
(8.36244 0.00836217 0)
(8.36455 0.00789461 0)
(8.36663 0.00736183 0)
(8.36868 0.0067669 0)
(8.37071 0.00611218 0)
(8.3727 0.00539932 0)
(8.37466 0.00462942 0)
(8.37659 0.00380314 0)
(8.37848 0.00292076 0)
(8.38033 0.00198238 0)
(8.38215 0.000988009 0)
(8.38393 -6.22092e-05 0)
(8.38566 -0.0011679 0)
(8.38735 -0.00232829 0)
(8.389 -0.00354229 0)
(8.39059 -0.00480659 0)
(8.33303 0.000616819 0)
(8.33334 0.00182734 0)
(8.334 0.00296801 0)
(8.33496 0.00401228 0)
(8.33616 0.0049433 0)
(8.33757 0.00575055 0)
(8.33916 0.00642904 0)
(8.3409 0.00697853 0)
(8.34276 0.0074022 0)
(8.3447 0.00770536 0)
(8.3467 0.00789458 0)
(8.34875 0.00797701 0)
(8.35084 0.00795999 0)
(8.35293 0.00785055 0)
(8.35503 0.00765529 0)
(8.35713 0.00738022 0)
(8.35921 0.00703069 0)
(8.36127 0.00661132 0)
(8.36332 0.00612611 0)
(8.36533 0.00557822 0)
(8.36732 0.00497036 0)
(8.36928 0.00430462 0)
(8.3712 0.00358255 0)
(8.37309 0.00280523 0)
(8.37495 0.00197343 0)
(8.37677 0.00108766 0)
(8.37855 0.000148327 0)
(8.38029 -0.000844198 0)
(8.38198 -0.00188941 0)
(8.38363 -0.0029866 0)
(8.38524 -0.0041347 0)
(8.38679 -0.00533248 0)
(8.3883 -0.00657671 0)
(8.33303 0.000515565 0)
(8.33332 0.00152669 0)
(8.33395 0.00247687 0)
(8.33485 0.00334294 0)
(8.33599 0.00411045 0)
(8.33734 0.0047702 0)
(8.33886 0.00531765 0)
(8.34052 0.00575225 0)
(8.3423 0.00607629 0)
(8.34416 0.00629386 0)
(8.34609 0.0064101 0)
(8.34807 0.00643073 0)
(8.35008 0.00636173 0)
(8.35211 0.00620882 0)
(8.35414 0.00597732 0)
(8.35617 0.00567214 0)
(8.35818 0.00529767 0)
(8.36018 0.00485771 0)
(8.36216 0.0043556 0)
(8.36411 0.00379382 0)
(8.36604 0.00317493 0)
(8.36793 0.00250068 0)
(8.36978 0.00177239 0)
(8.37161 0.00099111 0)
(8.37339 0.00015769 0)
(8.37513 -0.000727214 0)
(8.37684 -0.00166301 0)
(8.3785 -0.00264906 0)
(8.38011 -0.00368462 0)
(8.38168 -0.00476877 0)
(8.38321 -0.0059003 0)
(8.38468 -0.00707788 0)
(8.3861 -0.00829841 0)
(8.33303 0.000416888 0)
(8.3333 0.00123389 0)
(8.3339 0.0019987 0)
(8.33476 0.00269123 0)
(8.33584 0.00329916 0)
(8.33713 0.0038146 0)
(8.33858 0.00423343 0)
(8.34018 0.00455485 0)
(8.34188 0.00478033 0)
(8.34368 0.00491288 0)
(8.34554 0.00495626 0)
(8.34745 0.00491476 0)
(8.34939 0.0047931 0)
(8.35135 0.00459582 0)
(8.35332 0.00432719 0)
(8.35528 0.00399116 0)
(8.35724 0.00359125 0)
(8.35917 0.0031305 0)
(8.36109 0.00261215 0)
(8.36297 0.0020369 0)
(8.36483 0.00140769 0)
(8.36666 0.000726178 0)
(8.36845 -6.56381e-06 0)
(8.3702 -0.000789553 0)
(8.37191 -0.00162194 0)
(8.37359 -0.002503 0)
(8.37521 -0.003432 0)
(8.3768 -0.00440818 0)
(8.37834 -0.00543064 0)
(8.37983 -0.00649835 0)
(8.38127 -0.00761002 0)
(8.38266 -0.00876435 0)
(8.384 -0.00995838 0)
(8.33303 0.000320397 0)
(8.33329 0.000946716 0)
(8.33386 0.00152758 0)
(8.33468 0.0020454 0)
(8.33571 0.00249026 0)
(8.33694 0.00285618 0)
(8.33834 0.00314028 0)
(8.33987 0.00334216 0)
(8.34151 0.00346304 0)
(8.34325 0.00350519 0)
(8.34504 0.00347117 0)
(8.34689 0.00336445 0)
(8.34877 0.0031886 0)
(8.35067 0.00294655 0)
(8.35257 0.00264109 0)
(8.35447 0.00227532 0)
(8.35636 0.00185177 0)
(8.35824 0.00137259 0)
(8.36009 0.000839142 0)
(8.36192 0.000255048 0)
(8.36371 -0.000379591 0)
(8.36547 -0.00106369 0)
(8.3672 -0.00179601 0)
(8.36888 -0.00257558 0)
(8.37052 -0.00340164 0)
(8.37212 -0.00427339 0)
(8.37368 -0.00519007 0)
(8.37519 -0.00615083 0)
(8.37665 -0.00715472 0)
(8.37806 -0.00820063 0)
(8.37943 -0.0092873 0)
(8.38074 -0.0104134 0)
(8.382 -0.0115762 0)
(8.33302 0.000226488 0)
(8.33327 0.000669736 0)
(8.33381 0.00107697 0)
(8.33459 0.00143239 0)
(8.33559 0.0017273 0)
(8.33676 0.00195661 0)
(8.33811 0.00211766 0)
(8.33959 0.00220987 0)
(8.34118 0.00223401 0)
(8.34285 0.00219208 0)
(8.34459 0.00208423 0)
(8.34638 0.00191227 0)
(8.34821 0.00168032 0)
(8.35005 0.00139086 0)
(8.3519 0.00104596 0)
(8.35374 0.000647241 0)
(8.35558 0.000196497 0)
(8.35739 -0.000304327 0)
(8.35919 -0.000854429 0)
(8.36095 -0.00145065 0)
(8.36268 -0.0020933 0)
(8.36438 -0.00278158 0)
(8.36604 -0.00351442 0)
(8.36766 -0.00429103 0)
(8.36923 -0.00511068 0)
(8.37077 -0.00597266 0)
(8.37225 -0.00687617 0)
(8.37369 -0.00782039 0)
(8.37508 -0.00880437 0)
(8.37641 -0.00982703 0)
(8.3777 -0.0108872 0)
(8.37893 -0.0119836 0)
(8.38011 -0.0131136 0)
(8.33302 0.000132124 0)
(8.33327 0.000383721 0)
(8.33378 0.000599271 0)
(8.33454 0.000767449 0)
(8.33549 0.000884194 0)
(8.33663 0.000948716 0)
(8.33793 0.00096141 0)
(8.33936 0.000922987 0)
(8.3409 0.000834211 0)
(8.34252 0.000695206 0)
(8.34421 0.000508792 0)
(8.34594 0.000275729 0)
(8.34771 -5.69441e-06 0)
(8.3495 -0.000334874 0)
(8.35129 -0.000710629 0)
(8.35308 -0.00113243 0)
(8.35486 -0.00159942 0)
(8.35662 -0.0021106 0)
(8.35836 -0.00266471 0)
(8.36007 -0.0032626 0)
(8.36174 -0.00390268 0)
(8.36338 -0.0045842 0)
(8.36497 -0.00530671 0)
(8.36653 -0.00606967 0)
(8.36804 -0.00687248 0)
(8.3695 -0.00771449 0)
(8.37092 -0.00859498 0)
(8.37229 -0.00951314 0)
(8.3736 -0.0104681 0)
(8.37487 -0.0114587 0)
(8.37608 -0.0124839 0)
(8.37724 -0.0135424 0)
(8.37834 -0.014632 0)
(8.33302 4.95759e-05 0)
(8.33324 0.000150595 0)
(8.33372 0.000229834 0)
(8.33443 0.000270389 0)
(8.33535 0.000267126 0)
(8.33645 0.0002179 0)
(8.33772 0.000122364 0)
(8.33911 -1.84711e-05 0)
(8.34062 -0.00020312 0)
(8.34221 -0.000430794 0)
(8.34387 -0.000698143 0)
(8.34557 -0.00100404 0)
(8.34729 -0.00135017 0)
(8.34904 -0.00173609 0)
(8.35079 -0.00216107 0)
(8.35253 -0.00262441 0)
(8.35426 -0.0031257 0)
(8.35597 -0.0036648 0)
(8.35765 -0.00424138 0)
(8.3593 -0.00485532 0)
(8.36092 -0.00550603 0)
(8.3625 -0.00619328 0)
(8.36403 -0.00691681 0)
(8.36553 -0.00767625 0)
(8.36697 -0.00847116 0)
(8.36837 -0.00930106 0)
(8.36972 -0.0101654 0)
(8.37102 -0.0110634 0)
(8.37227 -0.0119943 0)
(8.37346 -0.0129573 0)
(8.3746 -0.0139514 0)
(8.37569 -0.0149754 0)
(8.37673 -0.0160274 0)
(8.33303 -5.35633e-05 0)
(8.33326 -0.000184155 0)
(8.33374 -0.000361122 0)
(8.33444 -0.000582467 0)
(8.33532 -0.000832152 0)
(8.33639 -0.00109838 0)
(8.33761 -0.00137565 0)
(8.33896 -0.00166266 0)
(8.34042 -0.0019609 0)
(8.34197 -0.0022728 0)
(8.34358 -0.00260356 0)
(8.34523 -0.00295694 0)
(8.34692 -0.00333426 0)
(8.34861 -0.00373785 0)
(8.35032 -0.00416996 0)
(8.35201 -0.00463227 0)
(8.3537 -0.00512607 0)
(8.35536 -0.00565231 0)
(8.35699 -0.00621156 0)
(8.35859 -0.00680427 0)
(8.36016 -0.00743064 0)
(8.36168 -0.00809067 0)
(8.36316 -0.00878427 0)
(8.3646 -0.00951124 0)
(8.36598 -0.0102712 0)
(8.36732 -0.0110638 0)
(8.36861 -0.0118885 0)
(8.36985 -0.0127445 0)
(8.37103 -0.0136311 0)
(8.37216 -0.0145474 0)
(8.37323 -0.0154924 0)
(8.37425 -0.0164652 0)
(8.37522 -0.0174638 0)
(8.333 -9.81225e-05 0)
(8.33315 -0.000258063 0)
(8.33355 -0.000423903 0)
(8.33419 -0.000630814 0)
(8.33506 -0.000890819 0)
(8.33613 -0.00120171 0)
(8.33737 -0.00155465 0)
(8.33874 -0.00194017 0)
(8.34021 -0.0023511 0)
(8.34176 -0.00278278 0)
(8.34337 -0.0032328 0)
(8.34501 -0.00369983 0)
(8.34668 -0.00418364 0)
(8.34836 -0.00468517 0)
(8.35003 -0.00520562 0)
(8.35169 -0.00574616 0)
(8.35333 -0.00630796 0)
(8.35495 -0.00689218 0)
(8.35654 -0.00749985 0)
(8.35809 -0.00813185 0)
(8.3596 -0.00878893 0)
(8.36107 -0.00947162 0)
(8.3625 -0.0101803 0)
(8.36387 -0.0109154 0)
(8.3652 -0.0116769 0)
(8.36648 -0.0124647 0)
(8.3677 -0.0132788 0)
(8.36887 -0.0141188 0)
(8.36999 -0.0149843 0)
(8.37105 -0.0158747 0)
(8.37206 -0.0167893 0)
(8.37301 -0.0177275 0)
(8.37391 -0.0186875 0)
(8.33306 -0.000300114 0)
(8.33335 -0.00097066 0)
(8.33381 -0.00171713 0)
(8.33444 -0.00247059 0)
(8.33524 -0.00317553 0)
(8.33623 -0.00381202 0)
(8.33737 -0.00438152 0)
(8.33866 -0.00489464 0)
(8.34006 -0.00536488 0)
(8.34155 -0.00580566 0)
(8.3431 -0.00622929 0)
(8.3447 -0.00664631 0)
(8.34633 -0.00706515 0)
(8.34797 -0.00749256 0)
(8.34961 -0.00793384 0)
(8.35123 -0.00839303 0)
(8.35284 -0.00887319 0)
(8.35443 -0.0093766 0)
(8.35598 -0.00990489 0)
(8.35749 -0.0104592 0)
(8.35897 -0.0110403 0)
(8.36039 -0.0116485 0)
(8.36178 -0.0122842 0)
(8.36311 -0.0129472 0)
(8.36439 -0.0136375 0)
(8.36562 -0.0143546 0)
(8.36679 -0.0150981 0)
(8.36791 -0.0158675 0)
(8.36897 -0.016662 0)
(8.36998 -0.0174811 0)
(8.37093 -0.0183237 0)
(8.37183 -0.0191891 0)
(8.37267 -0.0200757 0)
(8.33294 -5.14527e-05 0)
(8.33286 -7.02198e-05 0)
(8.33309 -0.000159106 0)
(8.33369 -0.00044052 0)
(8.3346 -0.000918901 0)
(8.33574 -0.00153651 0)
(8.33705 -0.00223295 0)
(8.33848 -0.00296558 0)
(8.33999 -0.00370788 0)
(8.34157 -0.0044443 0)
(8.34318 -0.00516692 0)
(8.34481 -0.00587297 0)
(8.34645 -0.00656288 0)
(8.34808 -0.00723898 0)
(8.3497 -0.00790463 0)
(8.3513 -0.0085635 0)
(8.35287 -0.0092193 0)
(8.35441 -0.00987547 0)
(8.35591 -0.0105352 0)
(8.35737 -0.0112012 0)
(8.35879 -0.0118759 0)
(8.36016 -0.0125614 0)
(8.36148 -0.0132592 0)
(8.36275 -0.0139709 0)
(8.36397 -0.0146973 0)
(8.36513 -0.0154394 0)
(8.36624 -0.0161977 0)
(8.36729 -0.0169725 0)
(8.36829 -0.017764 0)
(8.36923 -0.0185722 0)
(8.37012 -0.0193968 0)
(8.37095 -0.0202376 0)
(8.37172 -0.0210936 0)
(8.33317 -0.000758912 0)
(8.33367 -0.00262318 0)
(8.33407 -0.00455487 0)
(8.33448 -0.00619768 0)
(8.33504 -0.00748029 0)
(8.33585 -0.00845886 0)
(8.33688 -0.00920809 0)
(8.3381 -0.00979216 0)
(8.33947 -0.0102624 0)
(8.34094 -0.0106587 0)
(8.34249 -0.0110111 0)
(8.34408 -0.0113415 0)
(8.3457 -0.0116657 0)
(8.34733 -0.0119949 0)
(8.34895 -0.0123367 0)
(8.35055 -0.0126963 0)
(8.35212 -0.0130772 0)
(8.35367 -0.0134817 0)
(8.35517 -0.013911 0)
(8.35663 -0.0143658 0)
(8.35804 -0.0148465 0)
(8.3594 -0.0153528 0)
(8.3607 -0.0158846 0)
(8.36196 -0.0164414 0)
(8.36315 -0.0170226 0)
(8.36429 -0.0176277 0)
(8.36538 -0.0182559 0)
(8.3664 -0.0189064 0)
(8.36736 -0.0195786 0)
(8.36827 -0.0202715 0)
(8.36912 -0.0209844 0)
(8.36991 -0.0217165 0)
(8.37064 -0.0224664 0)
(8.33263 0.000584117 0)
(8.33174 0.00202197 0)
(8.33175 0.00292747 0)
(8.33261 0.00287404 0)
(8.33389 0.00205778 0)
(8.33537 0.000843793 0)
(8.33694 -0.000530443 0)
(8.33856 -0.00194029 0)
(8.34021 -0.00331866 0)
(8.34186 -0.00462948 0)
(8.3435 -0.00585735 0)
(8.34513 -0.00699984 0)
(8.34674 -0.00806157 0)
(8.34832 -0.0090506 0)
(8.34988 -0.00997641 0)
(8.3514 -0.0108487 0)
(8.35289 -0.0116767 0)
(8.35434 -0.0124688 0)
(8.35575 -0.0132326 0)
(8.35711 -0.0139745 0)
(8.35843 -0.0147002 0)
(8.35969 -0.0154145 0)
(8.36091 -0.0161214 0)
(8.36208 -0.0168243 0)
(8.36319 -0.017526 0)
(8.36425 -0.0182287 0)
(8.36526 -0.0189344 0)
(8.3662 -0.0196444 0)
(8.3671 -0.02036 0)
(8.36793 -0.0210819 0)
(8.36871 -0.0218107 0)
(8.36944 -0.0225467 0)
(8.37011 -0.0232896 0)
(8.33358 -0.00194231 0)
(8.33468 -0.00685151 0)
(8.33444 -0.0116061 0)
(8.33375 -0.0147716 0)
(8.33352 -0.0165261 0)
(8.33393 -0.017463 0)
(8.33483 -0.0179117 0)
(8.33604 -0.0180657 0)
(8.33747 -0.0180595 0)
(8.33904 -0.0179803 0)
(8.34071 -0.0178822 0)
(8.34242 -0.0177977 0)
(8.34414 -0.0177455 0)
(8.34586 -0.0177355 0)
(8.34756 -0.0177722 0)
(8.34923 -0.0178566 0)
(8.35085 -0.017988 0)
(8.35243 -0.0181645 0)
(8.35396 -0.0183835 0)
(8.35544 -0.0186424 0)
(8.35685 -0.0189386 0)
(8.35821 -0.0192694 0)
(8.35951 -0.0196325 0)
(8.36075 -0.0200256 0)
(8.36193 -0.0204467 0)
(8.36305 -0.0208938 0)
(8.36411 -0.0213653 0)
(8.3651 -0.0218595 0)
(8.36604 -0.022375 0)
(8.36692 -0.0229106 0)
(8.36773 -0.0234651 0)
(8.36849 -0.0240374 0)
(8.36919 -0.0246262 0)
(8.33162 0.00370355 0)
(8.32827 0.0102731 0)
(8.32842 0.0134496 0)
(8.33099 0.0134154 0)
(8.33363 0.0113873 0)
(8.33585 0.00857045 0)
(8.33784 0.00559576 0)
(8.33967 0.00270842 0)
(8.34137 2.0621e-05 0)
(8.34299 -0.00241959 0)
(8.34455 -0.00460662 0)
(8.34607 -0.00655627 0)
(8.34755 -0.00829273 0)
(8.34901 -0.00984266 0)
(8.35045 -0.0112323 0)
(8.35187 -0.0124858 0)
(8.35327 -0.0136246 0)
(8.35465 -0.0146677 0)
(8.356 -0.0156309 0)
(8.35732 -0.016528 0)
(8.3586 -0.0173705 0)
(8.35985 -0.0181683 0)
(8.36106 -0.0189293 0)
(8.36223 -0.0196606 0)
(8.36336 -0.0203678 0)
(8.36444 -0.0210556 0)
(8.36547 -0.0217281 0)
(8.36645 -0.0223885 0)
(8.36738 -0.0230394 0)
(8.36826 -0.023683 0)
(8.36909 -0.0243211 0)
(8.36986 -0.0249547 0)
(8.37057 -0.0255847 0)
(8.3343 -0.00641922 0)
(8.33463 -0.0206412 0)
(8.33075 -0.0298443 0)
(8.32677 -0.0338046 0)
(8.32486 -0.0346775 0)
(8.32495 -0.0341075 0)
(8.32615 -0.0329062 0)
(8.32791 -0.0314719 0)
(8.33001 -0.0300264 0)
(8.33231 -0.0286862 0)
(8.33472 -0.0275023 0)
(8.33716 -0.0264911 0)
(8.3396 -0.0256509 0)
(8.34202 -0.024971 0)
(8.34439 -0.0244367 0)
(8.34672 -0.024032 0)
(8.34898 -0.0237416 0)
(8.35118 -0.0235511 0)
(8.35331 -0.0234476 0)
(8.35538 -0.0234199 0)
(8.35736 -0.0234582 0)
(8.35928 -0.0235538 0)
(8.36111 -0.0236996 0)
(8.36288 -0.0238893 0)
(8.36456 -0.0241175 0)
(8.36617 -0.0243798 0)
(8.3677 -0.0246723 0)
(8.36916 -0.0249915 0)
(8.37054 -0.0253347 0)
(8.37185 -0.0256995 0)
(8.37309 -0.0260838 0)
(8.37425 -0.0264861 0)
(8.37535 -0.0269045 0)
(8.32884 0.0226035 0)
(8.32235 0.0427953 0)
(8.32669 0.0440384 0)
(8.33333 0.0380955 0)
(8.33786 0.0307595 0)
(8.34074 0.0236287 0)
(8.34307 0.0170136 0)
(8.34529 0.0110885 0)
(8.34752 0.00590882 0)
(8.34982 0.00142697 0)
(8.35222 -0.0024373 0)
(8.35473 -0.00576579 0)
(8.35731 -0.00863607 0)
(8.35995 -0.0111185 0)
(8.36263 -0.0132744 0)
(8.36533 -0.0151559 0)
(8.36802 -0.0168073 0)
(8.37069 -0.0182654 0)
(8.37332 -0.0195613 0)
(8.3759 -0.0207208 0)
(8.37843 -0.0217656 0)
(8.38089 -0.0227136 0)
(8.38327 -0.02358 0)
(8.38558 -0.0243773 0)
(8.3878 -0.0251162 0)
(8.38994 -0.0258055 0)
(8.39198 -0.0264527 0)
(8.39394 -0.0270642 0)
(8.39581 -0.0276454 0)
(8.39758 -0.0282007 0)
(8.39926 -0.0287342 0)
(8.40085 -0.0292488 0)
(8.40234 -0.0297488 0)
(8.32436 -0.0380208 0)
(8.29387 -0.0682927 0)
(8.27218 -0.0716463 0)
(8.26671 -0.0685256 0)
(8.27359 -0.0641523 0)
(8.28621 -0.0593087 0)
(8.30095 -0.0546151 0)
(8.31625 -0.0504291 0)
(8.33128 -0.0468108 0)
(8.34556 -0.0437348 0)
(8.35889 -0.0411555 0)
(8.37122 -0.0390137 0)
(8.38256 -0.0372473 0)
(8.39294 -0.0357989 0)
(8.40242 -0.0346186 0)
(8.41108 -0.033663 0)
(8.41897 -0.0328955 0)
(8.42615 -0.0322854 0)
(8.4327 -0.0318072 0)
(8.43865 -0.0314398 0)
(8.44406 -0.0311654 0)
(8.44897 -0.0309696 0)
(8.45341 -0.0308404 0)
(8.45744 -0.0307677 0)
(8.46107 -0.0307431 0)
(8.46434 -0.0307596 0)
(8.46727 -0.0308113 0)
(8.46989 -0.0308933 0)
(8.47222 -0.0310012 0)
(8.47428 -0.0311315 0)
(8.4761 -0.0312807 0)
(8.47767 -0.0314461 0)
(8.47905 -0.0316239 0)
(8.34002 0.156992 0)
(8.382 0.149004 0)
(8.40251 0.103394 0)