/*--------------------------------*- C++ -*----------------------------------*\
| =========                 |                                                 |
| \\      /  F ield         | OpenFOAM: The Open Source CFD Toolbox           |
|  \\    /   O peration     | Version:  2.1.1                                 |
|   \\  /    A nd           | Web:      www.OpenFOAM.org                      |
|    \\/     M anipulation  |                                                 |
\*---------------------------------------------------------------------------*/
FoamFile
{
    version     2.0;
    format      ascii;
    class       volScalarField;
    location    "0.18";
    object      nuSgs;
}
// * * * * * * * * * * * * * * * * * * * * * * * * * * * * * * * * * * * * * //

dimensions      [0 2 -1 0 0 0 0];

internalField   nonuniform List<scalar> 
6820
(
0.000556014
0.000457469
0.000368329
0.000306486
0.000269489
0.000244094
0.000225484
0.000211332
0.000199977
0.000190512
0.000182424
0.000175381
0.000169161
0.000163612
0.00015862
0.000154101
0.000149992
0.000146241
0.000142812
0.000139679
0.000136815
0.000134196
0.000131813
0.000129655
0.000127715
0.000125988
0.000124472
0.00012317
0.000122079
0.000121231
0.000120612
0.00012013
0.000119288
0.000103478
0.000170612
0.000223574
0.000239959
0.000235257
0.000224974
0.000213377
0.000202208
0.000192103
0.000183078
0.000175013
0.000167773
0.000161234
0.000155292
0.000149863
0.000144877
0.000140276
0.000136011
0.000132046
0.000128342
0.000124872
0.000121619
0.000118561
0.000115682
0.000112964
0.000110393
0.000107958
0.000105641
0.00010345
0.000101317
9.93956e-05
9.71982e-05
9.62474e-05
3.67773e-05
2.84986e-05
4.55095e-05
8.20737e-05
0.000107614
0.000123128
0.000131495
0.000135307
0.000136385
0.0001358
0.00013419
0.00013195
0.000129327
0.00012648
0.000123515
0.000120502
0.000117487
0.0001145
0.000111559
0.000108672
0.000105846
0.000103086
0.000100385
9.77418e-05
9.51531e-05
9.26147e-05
9.01215e-05
8.76651e-05
8.52408e-05
8.28184e-05
8.04135e-05
7.78535e-05
7.53372e-05
2.07357e-05
2.87061e-05
2.66144e-05
1.52143e-05
3.71021e-06
1.3469e-05
2.51138e-05
3.47456e-05
4.24658e-05
4.85513e-05
5.3279e-05
5.68942e-05
5.95993e-05
6.15554e-05
6.28931e-05
6.37214e-05
6.41296e-05
6.419e-05
6.39612e-05
6.34931e-05
6.28256e-05
6.19838e-05
6.09825e-05
5.98427e-05
5.85792e-05
5.72046e-05
5.57283e-05
5.41549e-05
5.24889e-05
5.07225e-05
4.88617e-05
4.68923e-05
4.48872e-05
1.44135e-05
1.76127e-05
2.26296e-05
2.43201e-05
2.40075e-05
2.20751e-05
1.92665e-05
1.61218e-05
1.28734e-05
9.66986e-06
6.61712e-06
3.78997e-06
1.33683e-06
1.49425e-06
3.4653e-06
5.27459e-06
6.84911e-06
8.18955e-06
9.30645e-06
1.0213e-05
1.09235e-05
1.14526e-05
1.18251e-05
1.2051e-05
1.21405e-05
1.21015e-05
1.19401e-05
1.16605e-05
1.12673e-05
1.07603e-05
1.01464e-05
9.4334e-06
8.63344e-06
1.09097e-05
1.25288e-05
1.38654e-05
1.43634e-05
1.51249e-05
1.57359e-05
1.60861e-05
1.62722e-05
1.63014e-05
1.61814e-05
1.59381e-05
1.55969e-05
1.51823e-05
1.47145e-05
1.42104e-05
1.36873e-05
1.31602e-05
1.26416e-05
1.21417e-05
1.16679e-05
1.12254e-05
1.08176e-05
1.0441e-05
1.00988e-05
9.7901e-06
9.51558e-06
9.27621e-06
9.07324e-06
8.9064e-06
8.77674e-06
8.67954e-06
8.61074e-06
8.56256e-06
8.22952e-06
9.4572e-06
1.0299e-05
1.01037e-05
9.91194e-06
9.72463e-06
9.52551e-06
9.41764e-06
9.39052e-06
9.40036e-06
9.42071e-06
9.43439e-06
9.43019e-06
9.40497e-06
9.3587e-06
9.29134e-06
9.20378e-06
9.09756e-06
8.97491e-06
8.83715e-06
8.68806e-06
8.52978e-06
8.37242e-06
8.21673e-06
8.06538e-06
7.91998e-06
7.78149e-06
7.65089e-06
7.52823e-06
7.41398e-06
7.30569e-06
7.20207e-06
7.10268e-06
6.34097e-06
7.43544e-06
8.26927e-06
8.14379e-06
7.8389e-06
7.5027e-06
7.12771e-06
6.80581e-06
6.55571e-06
6.3563e-06
6.19449e-06
6.0612e-06
5.94774e-06
5.84752e-06
5.7563e-06
5.67124e-06
5.59033e-06
5.51218e-06
5.43599e-06
5.36148e-06
5.28884e-06
5.2193e-06
5.15256e-06
5.08919e-06
5.03073e-06
4.97778e-06
4.93052e-06
4.88921e-06
4.85355e-06
4.82326e-06
4.79674e-06
4.7727e-06
4.75224e-06
4.97579e-06
5.88156e-06
6.5956e-06
6.60394e-06
6.444e-06
6.24238e-06
5.96526e-06
5.68606e-06
5.44372e-06
5.23457e-06
5.05383e-06
4.89809e-06
4.76258e-06
4.64316e-06
4.53704e-06
4.44223e-06
4.35719e-06
4.28083e-06
4.21227e-06
4.15108e-06
4.09648e-06
4.04839e-06
4.00652e-06
3.97045e-06
3.94024e-06
3.91587e-06
3.89716e-06
3.88389e-06
3.87545e-06
3.87104e-06
3.86925e-06
3.86833e-06
3.86926e-06
3.96553e-06
4.72554e-06
5.3623e-06
5.4519e-06
5.36048e-06
5.22019e-06
5.01096e-06
4.7892e-06
4.59343e-06
4.42305e-06
4.27369e-06
4.14329e-06
4.02889e-06
3.92766e-06
3.83767e-06
3.75757e-06
3.68634e-06
3.62318e-06
3.56757e-06
3.51898e-06
3.4771e-06
3.44164e-06
3.41195e-06
3.38754e-06
3.36834e-06
3.35427e-06
3.34498e-06
3.33996e-06
3.33837e-06
3.33915e-06
3.34085e-06
3.34149e-06
3.34128e-06
3.20147e-06
3.84781e-06
4.41755e-06
4.55211e-06
4.5121e-06
4.4233e-06
4.27249e-06
4.09801e-06
3.9354e-06
3.78938e-06
3.6588e-06
3.54377e-06
3.44307e-06
3.35472e-06
3.27716e-06
3.2092e-06
3.14985e-06
3.09832e-06
3.05395e-06
3.01624e-06
2.98477e-06
2.95916e-06
2.93897e-06
2.92382e-06
2.91341e-06
2.90734e-06
2.90503e-06
2.90574e-06
2.90848e-06
2.91206e-06
2.91503e-06
2.91536e-06
2.91267e-06
2.61052e-06
3.16693e-06
3.6868e-06
3.85952e-06
3.8678e-06
3.81979e-06
3.71051e-06
3.56978e-06
3.43155e-06
3.30471e-06
3.19005e-06
3.08851e-06
2.99969e-06
2.92221e-06
2.85483e-06
2.79654e-06
2.74649e-06
2.70393e-06
2.66823e-06
2.63888e-06
2.61543e-06
2.59743e-06
2.58437e-06
2.57573e-06
2.57099e-06
2.56963e-06
2.57098e-06
2.57422e-06
2.57836e-06
2.58217e-06
2.58425e-06
2.58271e-06
2.57673e-06
2.1431e-06
2.63081e-06
3.11362e-06
3.31369e-06
3.35951e-06
3.34378e-06
3.26974e-06
3.16115e-06
3.0478e-06
2.94018e-06
2.84053e-06
2.75069e-06
2.67131e-06
2.60187e-06
2.54163e-06
2.4899e-06
2.44599e-06
2.40923e-06
2.37905e-06
2.35489e-06
2.33624e-06
2.32258e-06
2.31336e-06
2.30803e-06
2.30604e-06
2.30679e-06
2.30956e-06
2.3135e-06
2.31758e-06
2.32063e-06
2.32131e-06
2.31794e-06
2.30954e-06
1.76563e-06
2.20209e-06
2.6571e-06
2.87853e-06
2.95676e-06
2.96963e-06
2.92533e-06
2.84358e-06
2.75063e-06
2.65838e-06
2.57073e-06
2.4904e-06
2.4188e-06
2.35599e-06
2.30156e-06
2.25503e-06
2.21582e-06
2.18336e-06
2.15706e-06
2.13639e-06
2.1208e-06
2.10978e-06
2.10276e-06
2.09916e-06
2.09837e-06
2.09976e-06
2.10256e-06
2.10594e-06
2.10894e-06
2.11048e-06
2.10936e-06
2.10418e-06
2.09391e-06
1.45468e-06
1.85472e-06
2.28955e-06
2.52807e-06
2.63313e-06
2.66972e-06
2.64961e-06
2.5905e-06
2.5157e-06
2.43758e-06
2.3611e-06
2.28948e-06
2.22462e-06
2.16711e-06
2.11691e-06
2.07379e-06
2.03736e-06
2.00716e-06
1.9827e-06
1.96347e-06
1.94897e-06
1.93866e-06
1.932e-06
1.9284e-06
1.92726e-06
1.92794e-06
1.92972e-06
1.93183e-06
1.93338e-06
1.93341e-06
1.93088e-06
1.92467e-06
1.91382e-06
1.19369e-06
1.57021e-06
1.99096e-06
2.24333e-06
2.37089e-06
2.42808e-06
2.42872e-06
2.38918e-06
2.33016e-06
2.26402e-06
2.1966e-06
2.1317e-06
2.07174e-06
2.0178e-06
1.97022e-06
1.92901e-06
1.89394e-06
1.86468e-06
1.84078e-06
1.82181e-06
1.80726e-06
1.79664e-06
1.78941e-06
1.78502e-06
1.78288e-06
1.78237e-06
1.78281e-06
1.7835e-06
1.78363e-06
1.78239e-06
1.7789e-06
1.7723e-06
1.76172e-06
9.70792e-07
1.33543e-06
1.74727e-06
2.01109e-06
2.15748e-06
2.23228e-06
2.25032e-06
2.22715e-06
2.18145e-06
2.12545e-06
2.06565e-06
2.0063e-06
1.95018e-06
1.89877e-06
1.8527e-06
1.81221e-06
1.77726e-06
1.74762e-06
1.72298e-06
1.70296e-06
1.68713e-06
1.67504e-06
1.6662e-06
1.6601e-06
1.65619e-06
1.6539e-06
1.65263e-06
1.65173e-06
1.65051e-06
1.6483e-06
1.64436e-06
1.63805e-06
1.62861e-06
7.77596e-07
1.14136e-06
1.54858e-06
1.82183e-06
1.98385e-06
2.07369e-06
2.10649e-06
2.0972e-06
2.06287e-06
2.0154e-06
1.96173e-06
1.90647e-06
1.85276e-06
1.80243e-06
1.75647e-06
1.71533e-06
1.67918e-06
1.64795e-06
1.62145e-06
1.59937e-06
1.58137e-06
1.56705e-06
1.55598e-06
1.5477e-06
1.5417e-06
1.53749e-06
1.5345e-06
1.53217e-06
1.52991e-06
1.52714e-06
1.52326e-06
1.51782e-06
1.51015e-06
6.0864e-07
9.82311e-07
1.38812e-06
1.66895e-06
1.84377e-06
1.9463e-06
1.99145e-06
1.99365e-06
1.96865e-06
1.92799e-06
1.8789e-06
1.82635e-06
1.77379e-06
1.72337e-06
1.67635e-06
1.63345e-06
1.595e-06
1.5611e-06
1.53168e-06
1.50656e-06
1.48548e-06
1.46814e-06
1.45416e-06
1.44314e-06
1.43467e-06
1.42827e-06
1.42347e-06
1.41977e-06
1.41666e-06
1.41364e-06
1.41023e-06
1.40606e-06
1.40058e-06
4.61839e-07
8.55536e-07
1.26151e-06
1.548e-06
1.73294e-06
1.84591e-06
1.90125e-06
1.91284e-06
1.89538e-06
1.86001e-06
1.81415e-06
1.76305e-06
1.71042e-06
1.6587e-06
1.60944e-06
1.56358e-06
1.52167e-06
1.48399e-06
1.45062e-06
1.4215e-06
1.39649e-06
1.37538e-06
1.35788e-06
1.34368e-06
1.3324e-06
1.32366e-06
1.31701e-06
1.31203e-06
1.30827e-06
1.30529e-06
1.30265e-06
1.30008e-06
1.29709e-06
3.41265e-07
7.61093e-07
1.16634e-06
1.45616e-06
1.64864e-06
1.76991e-06
1.8334e-06
1.85237e-06
1.84062e-06
1.80892e-06
1.76478e-06
1.71369e-06
1.65959e-06
1.60522e-06
1.55238e-06
1.50226e-06
1.45564e-06
1.41297e-06
1.37451e-06
1.34035e-06
1.31048e-06
1.28479e-06
1.26312e-06
1.24521e-06
1.23078e-06
1.21949e-06
1.21095e-06
1.20478e-06
1.20055e-06
1.19786e-06
1.1963e-06
1.19559e-06
1.19527e-06
2.64186e-07
7.01071e-07
1.10157e-06
1.3919e-06
1.58935e-06
1.7168e-06
1.78654e-06
1.81109e-06
1.80349e-06
1.77412e-06
1.73054e-06
1.67838e-06
1.62181e-06
1.5638e-06
1.50639e-06
1.451e-06
1.39862e-06
1.34988e-06
1.30524e-06
1.26495e-06
1.22915e-06
1.19788e-06
1.17111e-06
1.14869e-06
1.13042e-06
1.11605e-06
1.10524e-06
1.09763e-06
1.09281e-06
1.0904e-06
1.08995e-06
1.09118e-06
1.09365e-06
2.61425e-07
6.78312e-07
1.06707e-06
1.35461e-06
1.55442e-06
1.68593e-06
1.75996e-06
1.78819e-06
1.78291e-06
1.75412e-06
1.70937e-06
1.65445e-06
1.59374e-06
1.53042e-06
1.4668e-06
1.40455e-06
1.34484e-06
1.28855e-06
1.23631e-06
1.18856e-06
1.14563e-06
1.10771e-06
1.07492e-06
1.04725e-06
1.02462e-06
1.00684e-06
9.93637e-07
9.84652e-07
9.79469e-07
9.77653e-07
9.78706e-07
9.8225e-07
9.87758e-07
3.33785e-07
6.94461e-07
1.06341e-06
1.34462e-06
1.54426e-06
1.67797e-06
1.7548e-06
1.78547e-06
1.78156e-06
1.75269e-06
1.70631e-06
1.64827e-06
1.58308e-06
1.51408e-06
1.44376e-06
1.37397e-06
1.30608e-06
1.24116e-06
1.18002e-06
1.12331e-06
1.07155e-06
1.02517e-06
9.84482e-07
9.49699e-07
9.20919e-07
8.98108e-07
8.81097e-07
8.69587e-07
8.63155e-07
8.61318e-07
8.6349e-07
8.69165e-07
8.77778e-07
4.49989e-07
7.48236e-07
1.09108e-06
1.36261e-06
1.55953e-06
1.69317e-06
1.77051e-06
1.80116e-06
1.79605e-06
1.76447e-06
1.71386e-06
1.65019e-06
1.57813e-06
1.50123e-06
1.42219e-06
1.34302e-06
1.26527e-06
1.19016e-06
1.11865e-06
1.05156e-06
9.8961e-07
9.33418e-07
8.83549e-07
8.40477e-07
8.04561e-07
7.76005e-07
7.54817e-07
7.40794e-07
7.33503e-07
7.32353e-07
7.36572e-07
7.45404e-07
7.5805e-07
5.91242e-07
8.36635e-07
1.15066e-06
1.41017e-06
1.60283e-06
1.73573e-06
1.81367e-06
1.84502e-06
1.83992e-06
1.8072e-06
1.75402e-06
1.68626e-06
1.60864e-06
1.52482e-06
1.43758e-06
1.34911e-06
1.26109e-06
1.17487e-06
1.09154e-06
1.01207e-06
9.37318e-07
8.68113e-07
8.05278e-07
7.49624e-07
7.0193e-07
6.62878e-07
6.32959e-07
6.12369e-07
6.00911e-07
5.98019e-07
6.02738e-07
6.13958e-07
6.30614e-07
7.53009e-07
9.57797e-07
1.24377e-06
1.48939e-06
1.67495e-06
1.80339e-06
1.87724e-06
1.9039e-06
1.89317e-06
1.85382e-06
1.79311e-06
1.71706e-06
1.63053e-06
1.53725e-06
1.44009e-06
1.34125e-06
1.24242e-06
1.14493e-06
1.04983e-06
9.58068e-07
8.70478e-07
7.87917e-07
7.1131e-07
6.41706e-07
5.80323e-07
5.28536e-07
4.8776e-07
4.59204e-07
4.43461e-07
4.40227e-07
4.48157e-07
4.65268e-07
4.89543e-07
9.36375e-07
1.11024e-06
1.37114e-06
1.60394e-06
1.78485e-06
1.91353e-06
1.98978e-06
2.01915e-06
2.01025e-06
1.97108e-06
1.90854e-06
1.8286e-06
1.73623e-06
1.63544e-06
1.52933e-06
1.42035e-06
1.31039e-06
1.20089e-06
1.09297e-06
9.87534e-07
8.85316e-07
7.8699e-07
6.9323e-07
6.04809e-07
5.22722e-07
4.48372e-07
3.83801e-07
3.31935e-07
2.96397e-07
2.80371e-07
2.84255e-07
3.04794e-07
3.37367e-07
1.14745e-06
1.30028e-06
1.54065e-06
1.75793e-06
1.92569e-06
2.04175e-06
2.10517e-06
2.1219e-06
2.10127e-06
2.0516e-06
1.97975e-06
1.89153e-06
1.79165e-06
1.68381e-06
1.57091e-06
1.45517e-06
1.33832e-06
1.22168e-06
1.10626e-06
9.92832e-07
8.81984e-07
7.74164e-07
6.69718e-07
5.6893e-07
4.72059e-07
3.79402e-07
2.91415e-07
2.09119e-07
1.35577e-07
8.36689e-08
8.83814e-08
1.38443e-07
1.99526e-07
1.39096e-06
1.52455e-06
1.74927e-06
1.9626e-06
2.13789e-06
2.26812e-06
2.3462e-06
2.37424e-06
2.36007e-06
2.31178e-06
2.23683e-06
2.14198e-06
2.03298e-06
1.91448e-06
1.79011e-06
1.66266e-06
1.53426e-06
1.40649e-06
1.28051e-06
1.15718e-06
1.03713e-06
9.20814e-07
8.08567e-07
7.00663e-07
5.97348e-07
4.98907e-07
4.0575e-07
3.18654e-07
2.39275e-07
1.71914e-07
1.27743e-07
1.24872e-07
1.60606e-07
1.68745e-06
1.81827e-06
2.02951e-06
2.21444e-06
2.35285e-06
2.44629e-06
2.49348e-06
2.49957e-06
2.47256e-06
2.41879e-06
2.34334e-06
2.25089e-06
2.14568e-06
2.03129e-06
1.91081e-06
1.78681e-06
1.66144e-06
1.53645e-06
1.41327e-06
1.29303e-06
1.17667e-06
1.06496e-06
9.58605e-07
8.58259e-07
7.64628e-07
6.78538e-07
6.01013e-07
5.3336e-07
4.77178e-07
4.3426e-07
4.06151e-07
3.93623e-07
3.95785e-07
2.02944e-06
2.13531e-06
2.35372e-06
2.58403e-06
2.78637e-06
2.93744e-06
3.02139e-06
3.0419e-06
3.01192e-06
2.94362e-06
2.84721e-06
2.73131e-06
2.60275e-06
2.46661e-06
2.32662e-06
2.18553e-06
2.04537e-06
1.90765e-06
1.77351e-06
1.64383e-06
1.51931e-06
1.40054e-06
1.28802e-06
1.18223e-06
1.08364e-06
9.92755e-07
9.101e-07
8.36271e-07
7.71872e-07
7.17523e-07
6.73651e-07
6.40629e-07
6.18019e-07
2.51032e-06
2.64856e-06
2.81522e-06
2.92178e-06
2.99939e-06
3.06905e-06
3.12091e-06
3.14695e-06
3.1448e-06
3.11332e-06
3.05368e-06
2.96966e-06
2.86612e-06
2.7479e-06
2.61947e-06
2.48477e-06
2.34706e-06
2.209e-06
2.0727e-06
1.93981e-06
1.81162e-06
1.68915e-06
1.57319e-06
1.46438e-06
1.36325e-06
1.27025e-06
1.1858e-06
1.11024e-06
1.0439e-06
9.87042e-07
9.39807e-07
9.0248e-07
8.74315e-07
2.98627e-06
3.06989e-06
3.4136e-06
3.78485e-06
4.06214e-06
4.2196e-06
4.26469e-06
4.22769e-06
4.13799e-06
4.01359e-06
3.86569e-06
3.70239e-06
3.52942e-06
3.35092e-06
3.17023e-06
2.99024e-06
2.81348e-06
2.64213e-06
2.47803e-06
2.32271e-06
2.17738e-06
2.04292e-06
1.92e-06
1.80899e-06
1.71005e-06
1.62313e-06
1.54797e-06
1.48414e-06
1.43102e-06
1.38792e-06
1.35392e-06
1.32873e-06
1.3105e-06
4.02205e-06
4.10676e-06
3.98328e-06
3.8626e-06
3.91873e-06
4.08778e-06
4.24723e-06
4.34508e-06
4.37642e-06
4.35091e-06
4.28579e-06
4.20027e-06
4.11017e-06
4.02647e-06
3.95591e-06
3.90168e-06
3.8644e-06
3.84299e-06
3.83551e-06
3.8397e-06
3.85325e-06
3.87408e-06
3.90033e-06
3.93043e-06
3.96299e-06
3.99684e-06
4.03092e-06
4.06429e-06
4.09615e-06
4.12589e-06
4.15307e-06
4.1787e-06
4.20133e-06
4.47447e-06
4.98914e-06
5.91045e-06
6.35176e-06
6.42539e-06
6.35909e-06
6.31444e-06
6.40386e-06
6.66106e-06
7.05354e-06
7.52787e-06
8.03524e-06
8.53793e-06
9.01026e-06
9.4369e-06
9.8101e-06
1.01272e-05
1.03887e-05
1.05972e-05
1.07566e-05
1.08709e-05
1.09445e-05
1.09818e-05
1.09867e-05
1.09628e-05
1.09132e-05
1.08407e-05
1.07473e-05
1.06349e-05
1.05047e-05
1.03586e-05
1.01979e-05
1.00256e-05
7.6617e-06
5.88817e-06
4.5749e-06
6.09583e-06
8.82467e-06
1.15522e-05
1.39073e-05
1.5823e-05
1.72931e-05
1.83276e-05
1.89598e-05
1.92348e-05
1.92007e-05
1.8906e-05
1.83978e-05
1.77196e-05
1.691e-05
1.60029e-05
1.50269e-05
1.40062e-05
1.29603e-05
1.19051e-05
1.08533e-05
9.81459e-06
8.79642e-06
7.80412e-06
6.84128e-06
5.90957e-06
5.00983e-06
4.13921e-06
3.29923e-06
2.47671e-06
1.68796e-06
8.60552e-06
1.46763e-05
1.87454e-05
2.11189e-05
2.21649e-05
2.16286e-05
1.96865e-05
1.68033e-05
1.34866e-05
1.04714e-05
8.98769e-06
1.00729e-05
1.30673e-05
1.68208e-05
2.07285e-05
2.45296e-05
2.81072e-05
3.14092e-05
3.44161e-05
3.71261e-05
3.95475e-05
4.16942e-05
4.35829e-05
4.52317e-05
4.66587e-05
4.78817e-05
4.8918e-05
4.97841e-05
5.04969e-05
5.10767e-05
5.15395e-05
5.19455e-05
5.22844e-05
3.47424e-05
3.73137e-05
4.68228e-05
6.20792e-05
7.79527e-05
9.35477e-05
0.000108153
0.000121051
0.000132049
0.000141183
0.00014856
0.000154339
0.000158705
0.000161842
0.000163923
0.000165108
0.000165538
0.000165337
0.000164612
0.000163456
0.000161947
0.000160151
0.000158123
0.000155912
0.000153554
0.000151081
0.00014852
0.000145889
0.000143208
0.000140478
0.000137705
0.000134978
0.000132327
0.000608516
0.000582535
0.000556821
0.000530205
0.000503988
0.000478491
0.000453755
0.000430055
0.000407577
0.000386382
0.000366494
0.000347901
0.000330563
0.000314416
0.000299387
0.000285396
0.000272362
0.000260207
0.000248854
0.000238233
0.000228278
0.00021893
0.000210133
0.00020184
0.000194005
0.00018659
0.000179558
0.000172875
0.000166503
0.000160419
0.000154494
0.000149251
0.000144447
0.000104326
0.000101548
0.00010006
0.000100395
0.000102509
0.000106015
0.000110015
0.000113601
0.000115386
0.000112338
0.000101173
8.38986e-05
6.56975e-05
5.07082e-05
3.95017e-05
3.0815e-05
2.4293e-05
2.20713e-05
2.55655e-05
2.43653e-05
1.00947e-05
1.87046e-05
3.47955e-05
3.86165e-05
3.49233e-05
3.01078e-05
2.6335e-05
2.33903e-05
2.09862e-05
1.90532e-05
1.75659e-05
1.64934e-05
1.57694e-05
1.52964e-05
1.5163e-05
1.61619e-05
1.95911e-05
2.90543e-05
4.27556e-05
5.34237e-05
5.55067e-05
4.81591e-05
4.42495e-05
4.63151e-05
4.43738e-05
3.69853e-05
2.75002e-05
2.21368e-05
2.1353e-05
2.30157e-05
2.46552e-05
2.31024e-05
1.95362e-05
2.02252e-05
2.79902e-05
3.6944e-05
4.23622e-05
4.29336e-05
3.94956e-05
3.39579e-05
2.82479e-05
2.35007e-05
1.99262e-05
1.72171e-05
1.50054e-05
1.30711e-05
1.13327e-05
9.77015e-06
8.37464e-06
7.13553e-06
6.04393e-06
5.09611e-06
4.29394e-06
3.64469e-06
3.1593e-06
2.848e-06
2.71805e-06
2.78386e-06
3.07758e-06
3.63995e-06
4.4866e-06
5.59648e-06
7.02661e-06
9.24006e-06
1.35309e-05
2.14192e-05
3.23448e-05
4.24969e-05
4.74649e-05
4.56315e-05
3.78956e-05
2.59912e-05
1.12351e-05
6.403e-06
2.41436e-05
3.86001e-05
4.75135e-05
4.70817e-05
4.78522e-05
2.90419e-05
0.000123042
0.000118718
0.000113501
0.000108657
0.0001049
0.000102726
0.000101858
0.000101745
0.00010197
0.000102075
0.000101773
9.79141e-05
8.84374e-05
7.53159e-05
6.24828e-05
5.28803e-05
4.71533e-05
4.27387e-05
3.28556e-05
1.27957e-05
1.46269e-05
3.29174e-05
3.89859e-05
3.65826e-05
3.20808e-05
2.83058e-05
2.52969e-05
2.27504e-05
2.06065e-05
1.88659e-05
1.75104e-05
1.65238e-05
1.58653e-05
1.54438e-05
1.5281e-05
1.60686e-05
1.90121e-05
2.76518e-05
4.23288e-05
5.51453e-05
5.89782e-05
5.18897e-05
4.57838e-05
4.66506e-05
4.43424e-05
3.63369e-05
2.62094e-05
2.11371e-05
2.17398e-05
2.43729e-05
2.63878e-05
2.46724e-05
2.06888e-05
2.09003e-05
2.85175e-05
3.76861e-05
4.33845e-05
4.41469e-05
4.07514e-05
3.51143e-05
2.92287e-05
2.43065e-05
2.05979e-05
1.77957e-05
1.55153e-05
1.3523e-05
1.17313e-05
1.0119e-05
8.67787e-06
7.39786e-06
6.2705e-06
5.29237e-06
4.46546e-06
3.79678e-06
3.29761e-06
2.97984e-06
2.85159e-06
2.92329e-06
3.21894e-06
3.77459e-06
4.61369e-06
5.72878e-06
7.176e-06
9.37625e-06
1.35582e-05
2.13328e-05
3.23854e-05
4.3027e-05
4.86602e-05
4.73004e-05
3.96172e-05
2.73981e-05
1.22296e-05
7.58925e-06
2.52672e-05
3.9862e-05
4.86748e-05
4.80302e-05
4.83562e-05
2.93536e-05
9.71891e-05
9.5654e-05
9.221e-05
8.75595e-05
8.27956e-05
7.87959e-05
7.59613e-05
7.42019e-05
7.30817e-05
7.21258e-05
7.13659e-05
7.10776e-05
7.00661e-05
6.6799e-05
6.10603e-05
5.29676e-05
4.21377e-05
2.68053e-05
5.98787e-06
1.6484e-05
3.27362e-05
3.87267e-05
3.71492e-05
3.31773e-05
2.96522e-05
2.68154e-05
2.43298e-05
2.21138e-05
2.02128e-05
1.86494e-05
1.7416e-05
1.65109e-05
1.59156e-05
1.55485e-05
1.53784e-05
1.59622e-05
1.84226e-05
2.6016e-05
4.12002e-05
5.63461e-05
6.24632e-05
5.61378e-05
4.78164e-05
4.68605e-05
4.41453e-05
3.55458e-05
2.45602e-05
1.93794e-05
2.1458e-05
2.53634e-05
2.78601e-05
2.59684e-05
2.16531e-05
2.16359e-05
2.92388e-05
3.86049e-05
4.45274e-05
4.54343e-05
4.20556e-05
3.63097e-05
3.02478e-05
2.51517e-05
2.13088e-05
1.84115e-05
1.60597e-05
1.40064e-05
1.21583e-05
1.04933e-05
9.00347e-06
7.6794e-06
6.5131e-06
5.50147e-06
4.64666e-06
3.95541e-06
3.43844e-06
3.10731e-06
2.97135e-06
3.04255e-06
3.3422e-06
3.89915e-06
4.73338e-06
5.84119e-06
7.2803e-06
9.44605e-06
1.34983e-05
2.11085e-05
3.22517e-05
4.34327e-05
4.98849e-05
4.92372e-05
4.19341e-05
2.98768e-05
1.56219e-05
1.19472e-05
2.74461e-05
4.16002e-05
5.00239e-05
4.90113e-05
4.87619e-05
2.96095e-05
5.71383e-05
5.49187e-05
5.12401e-05
4.66585e-05
4.2078e-05
3.8372e-05
3.59196e-05
3.44382e-05
3.34296e-05
3.27108e-05
3.22171e-05
3.17307e-05
3.07993e-05
2.86913e-05
2.43626e-05
1.73262e-05
9.02974e-06
1.26177e-05
2.52733e-05
3.48845e-05
3.8157e-05
3.64491e-05
3.30742e-05
3.01035e-05
2.77062e-05
2.55053e-05
2.33953e-05
2.14623e-05
1.97851e-05
1.83904e-05
1.7278e-05
1.64551e-05
1.59219e-05
1.56113e-05
1.54549e-05
1.58677e-05
1.79141e-05
2.43471e-05
3.94227e-05
5.69015e-05
6.58941e-05
6.09802e-05
5.06125e-05
4.7063e-05
4.37568e-05
3.46189e-05
2.26779e-05
1.70461e-05
2.07626e-05
2.60867e-05
2.90714e-05
2.7011e-05
2.2468e-05
2.2425e-05
3.01067e-05
3.96357e-05
4.57186e-05
4.67259e-05
4.33477e-05
3.74963e-05
3.12698e-05
2.60118e-05
2.20424e-05
1.90536e-05
1.6631e-05
1.4516e-05
1.26103e-05
1.08908e-05
9.34999e-06
7.9792e-06
6.77107e-06
5.72298e-06
4.83731e-06
4.12091e-06
3.58413e-06
3.23745e-06
3.08946e-06
3.15355e-06
3.45267e-06
4.01343e-06
4.84981e-06
5.9516e-06
7.36849e-06
9.47631e-06
1.33743e-05
2.07678e-05
3.19537e-05
4.37165e-05
5.11462e-05
5.14495e-05
4.48255e-05
3.33357e-05
2.05254e-05
1.77073e-05
3.06841e-05
4.37769e-05
5.14708e-05
4.99131e-05
4.90034e-05
2.97884e-05
1.02826e-05
8.64201e-06
6.20193e-06
3.58939e-06
3.12706e-06
4.88095e-06
5.94234e-06
5.45672e-06
3.70494e-06
3.05755e-06
6.07017e-06
1.00846e-05
1.38181e-05
1.69225e-05
1.97643e-05
2.31767e-05
2.76119e-05
3.22616e-05
3.53556e-05
3.57535e-05
3.39991e-05
3.16169e-05
2.95839e-05
2.78587e-05
2.61137e-05
2.42753e-05
2.24613e-05
2.07902e-05
1.93242e-05
1.80893e-05
1.70938e-05
1.63508e-05
1.58754e-05
1.56186e-05
1.54896e-05
1.57598e-05
1.74222e-05
2.27154e-05
3.70012e-05
5.65093e-05
6.89382e-05
6.63069e-05
5.44663e-05
4.75543e-05
4.32103e-05
3.36132e-05
2.07573e-05
1.44399e-05
1.98834e-05
2.65246e-05
2.98752e-05
2.7636e-05
2.3015e-05
2.32291e-05
3.11413e-05
4.08051e-05
4.69674e-05
4.80121e-05
4.46066e-05
3.86494e-05
3.2273e-05
2.68707e-05
2.27876e-05
1.97138e-05
1.72225e-05
1.50459e-05
1.30817e-05
1.13062e-05
9.71238e-06
8.29231e-06
7.03936e-06
5.95151e-06
5.03147e-06
4.28627e-06
3.72652e-06
3.36268e-06
3.20243e-06
3.25827e-06
3.55388e-06
4.11726e-06
4.96046e-06
6.06365e-06
7.45605e-06
9.48521e-06
1.31955e-05
2.03015e-05
3.14325e-05
4.37606e-05
5.22968e-05
5.37958e-05
4.81677e-05
3.76263e-05
2.64382e-05
2.41359e-05
3.46969e-05
4.62591e-05
5.29279e-05
5.06777e-05
4.90408e-05
2.98805e-05
1.14505e-05
1.20915e-05
1.29437e-05
1.36521e-05
1.37795e-05
1.29992e-05
1.11877e-05
8.5018e-06
5.60272e-06
4.68169e-06
7.45081e-06
1.16102e-05
1.59501e-05
2.00484e-05
2.37043e-05
2.67712e-05
2.90706e-05
3.0372e-05
3.05766e-05
2.99789e-05
2.91043e-05
2.82294e-05
2.72599e-05
2.60456e-05
2.46024e-05
2.3057e-05
2.15318e-05
2.01076e-05
1.88357e-05
1.77495e-05
1.6866e-05
1.62008e-05
1.57786e-05
1.55709e-05
1.54789e-05
1.56453e-05
1.69433e-05
2.11933e-05
3.40732e-05
5.4972e-05
7.11998e-05
7.18624e-05
5.95511e-05
4.87764e-05
4.25841e-05
3.25557e-05
1.89434e-05
1.19496e-05
1.91345e-05
2.68069e-05
3.02868e-05
2.78193e-05
2.32977e-05
2.40658e-05
3.23578e-05
4.21237e-05
4.82744e-05
4.92869e-05
4.58228e-05
3.97595e-05
3.32505e-05
2.77251e-05
2.35445e-05
2.03941e-05
1.78372e-05
1.55992e-05
1.35755e-05
1.17422e-05
1.0093e-05
8.62084e-06
7.31977e-06
6.18848e-06
5.23017e-06
4.45213e-06
3.86517e-06
3.48029e-06
3.3057e-06
3.35336e-06
3.64566e-06
4.21118e-06
5.06369e-06
6.17714e-06
7.55347e-06
9.49464e-06
1.2985e-05
1.97269e-05
3.06679e-05
4.34776e-05
5.32036e-05
5.61445e-05
5.18474e-05
4.25863e-05
3.29754e-05
3.09314e-05
3.925e-05
4.89372e-05
5.43112e-05
5.12338e-05
4.88375e-05
2.98745e-05
9.39036e-06
9.68869e-06
1.00186e-05
1.01245e-05
9.73075e-06
8.67681e-06
6.94602e-06
4.6629e-06
2.26107e-06
2.46554e-06
5.44624e-06
8.85752e-06
1.23325e-05
1.56809e-05
1.87266e-05
2.13197e-05
2.33517e-05
2.47815e-05
2.56751e-05
2.61452e-05
2.62398e-05
2.59424e-05
2.5267e-05
2.42961e-05
2.31379e-05
2.18875e-05
2.06249e-05
1.94183e-05
1.83217e-05
1.73741e-05
1.65972e-05
1.60069e-05
1.56327e-05
1.54676e-05
1.54161e-05
1.5519e-05
1.64799e-05
1.98115e-05
3.08318e-05
5.22145e-05
7.22785e-05
7.72718e-05
6.58785e-05
5.13242e-05
4.21046e-05
3.14516e-05
1.73275e-05
1.00129e-05
1.8785e-05
2.6997e-05
3.02617e-05
2.75161e-05
2.33262e-05
2.49687e-05
3.37827e-05
4.36053e-05
4.9639e-05
5.05396e-05
4.6981e-05
4.0811e-05
3.41901e-05
2.85679e-05
2.43103e-05
2.10947e-05
1.84765e-05
1.61776e-05
1.40933e-05
1.22002e-05
1.0493e-05
8.96545e-06
7.61259e-06
6.43378e-06
5.4328e-06
4.61738e-06
3.99889e-06
3.58902e-06
3.39716e-06
3.4358e-06
3.72569e-06
4.29401e-06
5.15702e-06
6.28784e-06
7.66212e-06
9.52019e-06
1.27683e-05
1.90738e-05
2.96682e-05
4.28091e-05
5.37375e-05
5.83296e-05
5.56737e-05
4.79489e-05
3.98095e-05
3.78135e-05
4.39985e-05
5.15963e-05
5.54754e-05
5.14861e-05
4.83598e-05
2.9775e-05
6.34769e-06
6.59865e-06
6.84506e-06
6.92798e-06
6.6669e-06
5.94261e-06
4.72065e-06
3.06288e-06
1.38116e-06
2.25807e-06
4.79931e-06
7.61616e-06
1.04919e-05
1.32976e-05
1.5923e-05
1.82696e-05
2.02578e-05
2.18385e-05
2.2985e-05
2.36836e-05
2.39432e-05
2.3809e-05
2.3354e-05
2.26523e-05
2.17702e-05
2.07743e-05
1.97361e-05
1.87222e-05
1.77859e-05
1.69668e-05
1.62898e-05
1.57707e-05
1.54401e-05
1.53098e-05
1.52978e-05
1.53722e-05
1.60384e-05
1.85782e-05
2.7502e-05
4.82787e-05
7.17748e-05
8.19955e-05
7.32033e-05
5.57983e-05
4.23071e-05
3.03391e-05
1.59132e-05
8.89063e-06
1.88497e-05
2.70761e-05
2.97915e-05
2.67623e-05
2.31896e-05
2.60145e-05
3.54535e-05
4.5258e-05
5.10508e-05
5.17525e-05
4.80623e-05
4.17869e-05
3.50794e-05
2.93924e-05
2.50829e-05
2.18163e-05
1.91427e-05
1.67842e-05
1.46378e-05
1.26824e-05
1.09139e-05
9.32733e-06
7.91857e-06
6.6878e-06
5.63937e-06
4.78162e-06
4.12662e-06
3.68723e-06
3.4747e-06
3.50306e-06
3.79157e-06
4.36427e-06
5.23873e-06
6.39144e-06
7.77812e-06
9.56936e-06
1.25691e-05
1.83774e-05
2.84565e-05
4.17076e-05
5.37488e-05
6.01207e-05
5.93612e-05
5.33706e-05
4.65925e-05
4.44528e-05
4.8586e-05
5.39922e-05
5.62496e-05
5.13264e-05
4.75835e-05
2.95936e-05
5.18722e-06
5.39193e-06
5.5697e-06
5.60993e-06
5.38229e-06
4.79488e-06
3.82438e-06
2.55968e-06
1.55631e-06
2.44135e-06
4.49112e-06
6.84822e-06
9.30231e-06
1.17366e-05
1.40536e-05
1.61676e-05
1.80067e-05
1.95133e-05
2.06498e-05
2.14058e-05
2.17958e-05
2.18534e-05
2.16223e-05
2.11506e-05
2.0492e-05
1.97082e-05
1.88651e-05
1.80234e-05
1.72324e-05
1.6531e-05
1.59464e-05
1.54949e-05
1.52039e-05
1.51001e-05
1.51225e-05
1.51947e-05
1.56253e-05
1.74838e-05
2.43097e-05
4.33545e-05
6.93795e-05
8.53655e-05
8.09712e-05
6.25084e-05
4.41243e-05
2.94623e-05
1.45807e-05
8.39311e-06
1.90871e-05
2.69403e-05
2.88701e-05
2.56472e-05
2.30401e-05
2.73161e-05
3.74189e-05
4.70841e-05
5.249e-05
5.29009e-05
4.90427e-05
4.26674e-05
3.59049e-05
3.01915e-05
2.586e-05
2.256e-05
1.98388e-05
1.74224e-05
1.52127e-05
1.31919e-05
1.13581e-05
9.70798e-06
8.2386e-06
6.95086e-06
5.84969e-06
4.94409e-06
4.24716e-06
3.77338e-06
3.53665e-06
3.55328e-06
3.84128e-06
4.42023e-06
5.30708e-06
6.48395e-06
7.89514e-06
9.64224e-06
1.24051e-05
1.76776e-05
2.70777e-05
4.01586e-05
5.31009e-05
6.12595e-05
6.25626e-05
5.84409e-05
5.29086e-05
5.04621e-05
5.26215e-05
5.58243e-05
5.64207e-05
5.06394e-05
4.65128e-05
2.9367e-05
4.4705e-06
4.62045e-06
4.7292e-06
4.71966e-06
4.50191e-06
4.01302e-06
3.24862e-06
2.32688e-06
1.78684e-06
2.56199e-06
4.22301e-06
6.20841e-06
8.31691e-06
1.04366e-05
1.24805e-05
1.43751e-05
1.60579e-05
1.74791e-05
1.86046e-05
1.94172e-05
1.99167e-05
2.01194e-05
2.00549e-05
1.9762e-05
1.92877e-05
1.86859e-05
1.80138e-05
1.73248e-05
1.66646e-05
1.60701e-05
1.55703e-05
1.51821e-05
1.49276e-05
1.48422e-05
1.48907e-05
1.49767e-05
1.52403e-05
1.65145e-05
2.14393e-05
3.77706e-05
6.49685e-05
8.66927e-05
8.83509e-05
7.12322e-05
4.86561e-05
2.96337e-05
1.32331e-05
7.86883e-06
1.91497e-05
2.64575e-05
2.75553e-05
2.43553e-05
2.31043e-05
2.90251e-05
3.9736e-05
4.90738e-05
5.39225e-05
5.395e-05
4.98929e-05
4.34297e-05
3.66521e-05
3.09578e-05
2.66395e-05
2.33267e-05
2.05677e-05
1.80968e-05
1.58228e-05
1.37328e-05
1.18287e-05
1.01095e-05
8.57386e-06
7.22349e-06
6.06378e-06
5.10434e-06
4.35944e-06
3.84573e-06
3.58085e-06
3.58447e-06
3.87328e-06
4.4608e-06
5.36099e-06
6.56242e-06
8.00656e-06
9.73399e-06
1.22871e-05
1.70133e-05
2.55964e-05
3.81924e-05
5.17027e-05
6.14985e-05
6.48995e-05
6.26971e-05
5.82843e-05
5.54119e-05
5.56994e-05
5.67529e-05
5.57519e-05
4.93304e-05
4.52039e-05
2.91574e-05
3.88821e-06
3.99951e-06
4.06604e-06
4.03375e-06
3.84123e-06
3.44842e-06
2.86999e-06
2.24588e-06
2.0188e-06
2.69406e-06
4.03879e-06
5.69757e-06
7.49831e-06
9.34059e-06
1.11473e-05
1.28527e-05
1.43999e-05
1.57419e-05
1.68426e-05
1.76805e-05
1.82488e-05
1.85552e-05
1.86199e-05
1.84734e-05
1.81543e-05
1.77082e-05
1.71842e-05
1.66296e-05
1.60859e-05
1.5588e-05
1.5165e-05
1.48353e-05
1.46152e-05
1.45411e-05
1.46053e-05
1.47113e-05
1.48762e-05
1.56631e-05
1.8999e-05
3.19515e-05
5.86506e-05
8.53928e-05
9.43277e-05
8.11754e-05
5.65241e-05
3.24578e-05
1.25629e-05
6.46082e-06
1.86833e-05
2.55091e-05
2.59562e-05
2.31624e-05
2.36735e-05
3.13256e-05
4.24592e-05
5.11969e-05
5.52964e-05
5.48547e-05
5.05775e-05
4.40486e-05
3.73056e-05
3.1684e-05
2.74188e-05
2.41173e-05
2.13327e-05
1.88121e-05
1.64737e-05
1.43108e-05
1.23303e-05
1.0535e-05
8.92625e-06
7.50657e-06
6.28173e-06
5.26183e-06
4.4623e-06
3.90252e-06
3.60517e-06
3.59457e-06
3.8861e-06
4.48525e-06
5.40007e-06
6.62505e-06
8.10668e-06
9.83758e-06
1.22192e-05
1.64188e-05
2.40904e-05
3.58862e-05
4.95297e-05
6.06408e-05
6.60094e-05
6.56671e-05
6.22286e-05
5.88638e-05
5.73947e-05
5.63924e-05
5.40087e-05
4.7373e-05
4.37947e-05
2.90511e-05
3.43121e-06
3.51535e-06
3.55655e-06
3.51724e-06
3.35752e-06
3.05665e-06
2.64407e-06
2.25716e-06
2.21334e-06
2.79423e-06
3.89103e-06
5.28281e-06
6.82871e-06
8.43763e-06
1.00393e-05
1.15742e-05
1.29912e-05
1.42469e-05
1.53072e-05
1.61486e-05
1.67597e-05
1.71414e-05
1.73065e-05
1.72783e-05
1.70881e-05
1.67739e-05
1.63775e-05
1.59404e-05
1.55e-05
1.50886e-05