/*--------------------------------*- C++ -*----------------------------------*\
| =========                 |                                                 |
| \\      /  F ield         | OpenFOAM: The Open Source CFD Toolbox           |
|  \\    /   O peration     | Version:  2.1.1                                 |
|   \\  /    A nd           | Web:      www.OpenFOAM.org                      |
|    \\/     M anipulation  |                                                 |
\*---------------------------------------------------------------------------*/
FoamFile
{
    version     2.0;
    format      ascii;
    class       volScalarField;
    location    "0.18";
    object      p;
}
// * * * * * * * * * * * * * * * * * * * * * * * * * * * * * * * * * * * * * //

dimensions      [0 2 -2 0 0 0 0];

internalField   nonuniform List<scalar> 
6820
(
10.174
-7.66472
-10.6815
-10.8781
-11.0619
-11.0014
-10.959
-10.9878
-11.0531
-11.1397
-11.239
-11.346
-11.4581
-11.5743
-11.6941
-11.8173
-11.9438
-12.0736
-12.2069
-12.3435
-12.484
-12.628
-12.7758
-12.9277
-13.0842
-13.2454
-13.412
-13.5842
-13.7637
-13.9476
-14.1477
-14.3308
-14.6007
3.4943
-7.48192
-10.3685
-10.6785
-10.9424
-10.9783
-10.9729
-11.0129
-11.0801
-11.1638
-11.2593
-11.3626
-11.4717
-11.5855
-11.7034
-11.8253
-11.9508
-12.0797
-12.2122
-12.3481
-12.4887
-12.6325
-12.7799
-12.9315
-13.0876
-13.2486
-13.4149
-13.5868
-13.7655
-13.95
-14.1483
-14.3449
-14.6186
0.782079
-6.04873
-9.34458
-10.1126
-10.5925
-10.8034
-10.8769
-10.9498
-11.0363
-11.1323
-11.2363
-11.3461
-11.4601
-11.5774
-11.6979
-11.8213
-11.9477
-12.0771
-12.2099
-12.3462
-12.4849
-12.6284
-12.7753
-12.926
-13.0809
-13.2404
-13.4048
-13.5744
-13.7502
-13.931
-14.1208
-14.305
-14.4975
-1.20097
-5.81882
-8.91927
-9.7879
-10.2711
-10.5606
-10.704
-10.8209
-10.9383
-11.0546
-11.1713
-11.2895
-11.4094
-11.5312
-11.6551
-11.7812
-11.9096
-12.0404
-12.1738
-12.31
-12.4488
-12.5908
-12.7354
-12.8838
-13.0361
-13.1923
-13.3526
-13.517
-13.686
-13.8583
-14.0349
-14.2071
-14.3769
-2.83378
-5.91637
-8.52409
-9.4365
-9.95491
-10.3231
-10.5361
-10.6918
-10.8329
-10.965
-11.0924
-11.2185
-11.3443
-11.4702
-11.5969
-11.7248
-11.8542
-11.9853
-12.1183
-12.2534
-12.3906
-12.5304
-12.6713
-12.8156
-12.9626
-13.1124
-13.265
-13.4203
-13.5781
-13.7372
-13.8972
-14.053
-14.204
-4.05333
-6.09412
-8.2697
-9.22249
-9.75969
-10.1546
-10.4021
-10.5801
-10.7367
-10.8809
-11.0171
-11.1494
-11.2798
-11.4092
-11.5382
-11.6674
-11.7972
-11.9279
-12.0598
-12.1931
-12.3277
-12.4642
-12.6039
-12.7444
-12.8863
-13.0301
-13.1755
-13.3222
-13.4698
-13.6172
-13.7635
-13.9057
-14.0429
-5.0005
-6.37692
-8.14838
-9.06348
-9.58789
-9.99058
-10.2677
-10.4707
-10.6447
-10.8017
-10.947
-11.0856
-11.2205
-11.353
-11.4841
-11.6145
-11.7449
-11.8756
-12.0068
-12.1389
-12.2719
-12.4059
-12.5413
-12.6772
-12.814
-12.9517
-13.09
-13.2285
-13.3666
-13.5032
-13.6373
-13.7668
-13.8903
-5.74246
-6.67898
-8.0928
-8.94295
-9.45546
-9.85933
-10.1547
-10.3744
-10.5599
-10.7256
-10.8776
-11.0213
-11.1599
-11.2952
-11.4281
-11.5597
-11.6905
-11.8208
-11.9511
-12.0815
-12.2121
-12.343
-12.4746
-12.6065
-12.7384
-12.8704
-13.002
-13.1328
-13.2622
-13.389
-13.5122
-13.6302
-13.7412
-6.33017
-6.97803
-8.09812
-8.86767
-9.35733
-9.74906
-10.0503
-10.2809
-10.4757
-10.6495
-10.8082
-10.957
-11.0994
-11.2374
-11.3722
-11.5049
-11.636
-11.766
-11.8954
-12.0242
-12.1527
-12.281
-12.4091
-12.5368
-12.6638
-12.79
-12.915
-13.0384
-13.1594
-13.277
-13.3902
-13.4976
-13.5973
-6.80144
-7.25838
-8.14079
-8.82133
-9.28158
-9.65699
-9.95855
-10.1965
-10.3981
-10.5777
-10.7414
-10.8941
-11.0394
-11.1794
-11.3156
-11.4489
-11.5801
-11.7096
-11.8378
-11.9649
-12.091
-12.2163
-12.3407
-12.464
-12.5862
-12.7068
-12.8256
-12.9419
-13.0552
-13.1644
-13.2686
-13.3667
-13.4567
-7.18316
-7.51232
-8.20699
-8.80008
-9.22751
-9.58313
-9.87875
-10.1189
-10.3241
-10.5076
-10.675
-10.8309
-10.9788
-11.1208
-11.2582
-11.3922
-11.5234
-11.6523
-11.7794
-11.9047
-12.0286
-12.151
-12.2719
-12.3911
-12.5085
-12.6238
-12.7366
-12.8463
-12.9523
-13.0539
-13.15
-13.2398
-13.3215
-7.49494
-7.73747
-8.2858
-8.797
-9.1891
-9.52275
-9.80867
-10.0478
-10.2547
-10.4406
-10.6108
-10.7692
-10.919
-11.0624
-11.2007
-11.3349
-11.4659
-11.594
-11.7197
-11.8432
-11.9646
-12.084
-12.2013
-12.3164
-12.4291
-12.5391
-12.6461
-12.7496
-12.8489
-12.9435
-13.0324
-13.1149
-13.1897
-7.75109
-7.93388
-8.36908
-8.80676
-9.16326
-9.47434
-9.74813
-9.98333
-10.1897
-10.3764
-10.548
-10.708
-10.8591
-11.0035
-11.1424
-11.2768
-11.4074
-11.5347
-11.659
-11.7806
-11.8995
-12.016
-12.1298
-12.241
-12.3492
-12.4543
-12.5559
-12.6535
-12.7467
-12.8349
-12.9174
-12.9936
-13.0624
-7.96217
-8.10298
-8.45116
-8.82472
-9.14661
-9.43507
-9.69519
-9.92434
-10.1286
-10.3148
-10.4869
-10.6478
-10.7999
-10.9449
-11.0841
-11.2184
-11.3484
-11.4747
-11.5975
-11.717
-11.8335
-11.947
-12.0574
-12.1646
-12.2684
-12.3687
-12.4651
-12.5572
-12.6447
-12.7271
-12.8038
-12.8744
-12.9382
-8.13598
-8.24674
-8.5281
-8.84692
-9.13626
-9.40281
-9.64871
-9.87043
-10.0712
-10.2559
-10.4276
-10.5887
-10.7411
-10.8864
-11.0255
-11.1595
-11.2888
-11.4139
-11.5351
-11.6527
-11.7667
-11.8772
-11.9842
-12.0876
-12.1873
-12.283
-12.3745
-12.4616
-12.5439
-12.621
-12.6925
-12.7582
-12.8175
-8.27837
-8.36724
-8.59727
-8.87014
-9.12968
-9.37549
-9.60717
-9.82058
-10.0168
-10.1992
-10.3699
-10.5306
-10.6829
-10.8281
-10.967
-11.1004
-11.2289
-11.3527
-11.4723
-11.5878
-11.6993
-11.8069
-11.9105
-12.0102
-12.1058
-12.1972
-12.2841
-12.3664
-12.4437
-12.516
-12.5827
-12.644
-12.6993
-8.39374
-8.46639
-8.65693
-8.89174
-9.12462
-9.35123
-9.56919
-9.77396
-9.96515
-10.1446
-10.3136
-10.4735
-10.6254
-10.7701
-10.9086
-11.0413
-11.1688
-11.2913
-11.4091
-11.5225
-11.6315
-11.7362
-11.8367
-11.9328
-12.0245
-12.1117
-12.1943
-12.2721
-12.3449
-12.4126
-12.475
-12.5321
-12.5838
-8.48538
-8.54586
-8.70598
-8.9096
-9.11913
-9.32832
-9.53343
-9.72963
-9.91546
-10.0916
-10.2586
-10.4173
-10.5684
-10.7126
-10.8504
-10.9823
-11.1087
-11.2298
-11.3459
-11.4571
-11.5637
-11.6656
-11.7628
-11.8554
-11.9434
-12.0266
-12.105
-12.1786
-12.2471
-12.3105
-12.3689
-12.4221
-12.4702
-8.55577
-8.60704
-8.74369
-8.92201
-9.11149
-9.30522
-9.49861
-9.68666
-9.86717
-10.0398
-10.2047
-10.3621
-10.5123
-10.6557
-10.7927
-10.9237
-11.0489
-11.1686
-11.2829
-11.3921
-11.4962
-11.5953
-11.6895
-11.7787
-11.8631
-11.9425
-12.017
-12.0864
-12.1509
-12.2103
-12.2648
-12.3143
-12.359
-8.60672
-8.65098
-8.76956
-8.92761
-9.10021
-9.28053
-9.46353
-9.64413
-9.81959
-9.98892
-10.1517
-10.3076
-10.4567
-10.5993
-10.7355
-10.8655
-10.9895
-11.1077
-11.2203
-11.3273
-11.429
-11.5254
-11.6166
-11.7025
-11.7834
-11.8591
-11.9298
-11.9954
-12.056
-12.1115
-12.1622
-12.2081
-12.2493
-8.63947
-8.67842
-8.78318
-8.92522
-9.08396
-9.25298
-9.4271
-9.60117
-9.77213
-9.93845
-10.0992
-10.2538
-10.402
-10.5438
-10.6792
-10.8083
-10.9311
-11.0479
-11.1587
-11.2638
-11.3631
-11.4569
-11.5451
-11.628
-11.7054
-11.7777
-11.8447
-11.9065
-11.9633
-12.0152
-12.0622
-12.1045
-12.1423
-8.65487
-8.68982
-8.78416
-8.91384
-9.06154
-9.22141
-9.38823
-9.5569
-9.7241
-9.88788
-10.0469
-10.2004
-10.3478
-10.4889
-10.6235
-10.7516
-10.8734
-10.9887
-11.0979
-11.2009
-11.2979
-11.3891
-11.4745
-11.5542
-11.6284
-11.6972
-11.7607
-11.8189
-11.872
-11.9202
-11.9636
-12.0023
-12.0366
-8.65327
-8.68534
-8.77205
-8.89254
-9.03188
-9.18475
-9.34603
-9.51063
-9.67506
-9.83706
-9.99504
-10.1479
-10.2948
-10.4355
-10.5696
-10.697
-10.8177
-10.9318
-11.0394
-11.1406
-11.2354
-11.3241
-11.4067
-11.4835
-11.5546
-11.62
-11.68
-11.7347
-11.7842
-11.8288
-11.8686
-11.9037
-11.9345
-8.63476
-8.66483
-8.74628
-8.8604
-8.99391
-9.14194
-9.29946
-9.46139
-9.62411
-9.78513
-9.94259
-10.0952
-10.2419
-10.3824
-10.5161
-10.6429
-10.7627
-10.8756
-10.9816
-11.0809
-11.1736
-11.2598
-11.3398
-11.4136
-11.4816
-11.5437
-11.6003
-11.6515
-11.6975
-11.7385
-11.7747
-11.8063
-11.8335
-8.59895
-8.62781
-8.70613
-8.81649
-8.94669
-9.09217
-9.24798
-9.40903
-9.57154
-9.73282
-9.89082
-10.044
-10.1914
-10.3322
-10.466
-10.5926
-10.7119
-10.8238
-10.9286
-11.0262
-11.1168
-11.2008
-11.2781
-11.3491
-11.414
-11.473
-11.5263
-11.574
-11.6165
-11.6539
-11.6865
-11.7145
-11.738
-8.54508
-8.57347
-8.6506
-8.75966
-8.88896
-9.0341
-9.19012
-9.35184
-9.51539
-9.6779
-9.83717
-9.99154
-10.1399
-10.2813
-10.4155
-10.542
-10.6608
-10.7719
-10.8754
-10.9714
-11.0601
-11.1417
-11.2165
-11.2847
-11.3466
-11.4024
-11.4523
-11.4967
-11.5357
-11.5695
-11.5985
-11.6229
-11.6429
-8.47193
-8.5006
-8.57856
-8.68896
-8.82015
-8.96775
-9.12668
-9.2916
-9.45843
-9.62413
-9.78635
-9.94331
-10.0938
-10.2368
-10.3721
-10.4991
-10.6179
-10.7285
-10.8309
-10.9255
-11.0123
-11.0918
-11.1641
-11.2296
-11.2884
-11.3411
-11.3877
-11.4286
-11.4641
-11.4944
-11.5197
-11.5404
-11.5565
-8.37773
-8.40742
-8.48816
-8.60235
-8.73781
-8.89001
-9.05369
-9.2233
-9.39461
-9.56448
-9.73042
-9.89058
-10.0436
-10.1888
-10.3254
-10.4532
-10.5722
-10.6825
-10.7841
-10.8773
-10.9624
-11.0397
-11.1096
-11.1723
-11.2282
-11.2777
-11.321
-11.3585
-11.3905
-11.4173
-11.439
-11.4562
-11.4688
-8.2601
-8.29184
-8.37807
-8.49974
-8.6436
-8.80472
-8.9774
-9.15564
-9.33489
-9.51183
-9.68388
-9.84914
-10.0063
-10.1545
-10.2934
-10.4226
-10.5421
-10.6522
-10.7531
-10.845
-10.9284
-11.0035
-11.0708
-11.1308
-11.1836
-11.2299
-11.2698
-11.3037
-11.3321
-11.3551
-11.3731
-11.3864
-11.3951
-8.11562
-8.15012
-8.24391
-8.3753
-8.52932
-8.70076
-8.88364
-9.07161
-9.25988
-9.44497
-9.6242
-9.79559
-9.95782
-10.11
-10.2519
-10.3831
-10.5038
-10.6142
-10.7147
-10.8056
-10.8874
-10.9605
-11.0254
-11.0826
-11.1324
-11.1755
-11.212
-11.2425
-11.2673
-11.2867
-11.3011
-11.3109
-11.3162
-7.94022
-7.97989
-8.08704
-8.23586
-8.40833
-8.59819
-8.79853
-9.00219
-9.2041
-9.40078
-9.58961
-9.76875
-9.93703
-10.0938
-10.2388
-10.3721
-10.4938
-10.6043
-10.7041
-10.7937
-10.8736
-10.9444
-11.0065
-11.0606
-11.1071
-11.1466
-11.1794
-11.206
-11.2269
-11.2423
-11.2526
-11.2582
-11.2592
-7.72664
-7.77096
-7.8918
-8.05742
-8.24707
-8.45483
-8.67332
-8.89442
-9.11244
-9.32358
-9.52499
-9.71472
-9.89163
-10.0552
-10.2052
-10.342
-10.4659
-10.5774
-10.6771
-10.7658
-10.8442
-10.9128
-10.9724
-11.0235
-11.0668
-11.1029
-11.1321
-11.1551
-11.1722
-11.1839
-11.1906
-11.1927
-11.1905
-7.46982
-7.52855
-7.68165
-7.88461
-8.10921
-8.34843
-8.59427
-8.83823
-9.0751
-9.30164
-9.51544
-9.71495
-9.89939
-10.0685
-10.2225
-10.3617
-10.4867
-10.5982
-10.6971
-10.7841
-10.86
-10.9257
-10.9819
-11.0292
-11.0685
-11.1002
-11.125
-11.1434
-11.1559
-11.1628
-11.1648
-11.162
-11.1549
-7.1479
-7.20905
-7.3819
-7.61109
-7.86574
-8.13927
-8.42017
-8.6968
-8.9628
-9.21448
-9.44919
-9.66551
-9.86302
-10.0419
-10.2028
-10.3466
-10.4742
-10.5868
-10.6855
-10.7713
-10.8452
-10.9083
-10.9615
-11.0055
-11.0412
-11.0692
-11.0901
-11.1046
-11.1131
-11.1162
-11.1143
-11.108
-11.0978
-6.77108
-6.88713
-7.14486
-7.44444
-7.74927
-8.06236
-8.37507
-8.67698
-8.96368
-9.23259
-9.48151
-9.70935
-9.91594
-10.1016
-10.2672
-10.4137
-10.5423
-10.6544
-10.7512
-10.8341
-10.9042
-10.9629
-11.011
-11.0497
-11.0797
-11.1018
-11.1168
-11.1251
-11.1275
-11.1245
-11.1164
-11.1039
-11.0875
-6.22773
-6.31758
-6.61251
-6.97918
-7.36407
-7.75986
-8.14611
-8.50915
-8.84547
-9.15323
-9.43144
-9.6807
-9.90245
-10.0984
-10.2706
-10.4208
-10.551
-10.6631
-10.7587
-10.8396
-10.9071
-10.9627
-11.0075
-11.0425
-11.0688
-11.0871
-11.0982
-11.1026
-11.1008
-11.0935
-11.0812
-11.0644
-11.0441
-5.71876
-6.03973
-6.50354
-6.91642
-7.3193
-7.73962
-8.1493
-8.53508
-8.89548
-9.22691
-9.52644
-9.79369
-10.0295
-10.2355
-10.4137
-10.5664
-10.696
-10.805
-10.8955
-10.9697
-11.0294
-11.0764
-11.1122
-11.1381
-11.1551
-11.1642
-11.1663
-11.1617
-11.1511
-11.1348
-11.1129
-11.0863
-11.0548
-4.4049
-4.72441
-5.49292
-6.18619
-6.81483
-7.41197
-7.94581
-8.4164
-8.83431
-9.20353
-9.5276
-9.81093
-10.0575
-10.2707
-10.4536
-10.6093
-10.7404
-10.8495
-10.9391
-11.0114
-11.0685
-11.1122
-11.1442
-11.166
-11.1787
-11.1834
-11.1808
-11.1714
-11.1554
-11.1328
-11.1025
-11.0656
-11.0168
-4.38375
-5.12612
-5.72335
-6.1804
-6.76905
-7.38997
-7.96689
-8.50269
-8.99131
-9.42238
-9.79508
-10.113
-10.3803
-10.6019
-10.7833
-10.9295
-11.0457
-11.136
-11.2046
-11.2548
-11.2895
-11.3115
-11.3227
-11.3251
-11.3201
-11.3089
-11.2925
-11.2713
-11.2454
-11.2139
-11.1743
-11.1229
-11.0474
1.88261
-2.72383
-4.50018
-5.34052
-6.33091
-7.19381
-7.88037
-8.47382
-8.99068
-9.43153
-9.80549
-10.1209
-10.3841
-10.6014
-10.7788
-10.9216
-11.0349
-11.1229
-11.1895
-11.2381
-11.2716
-11.2925
-11.3028
-11.3045
-11.2991
-11.2878
-11.2718
-11.2517
-11.2289
-11.2025
-11.1758
-11.1426
-11.1162
-14.5308
-14.9099
-15.6965
-16.3429
-16.3514
-15.4156
-13.6701
-11.6558
-10.071
-9.52876
-10.3466
-12.6467
-16.1959
-20.5024
-25.0248
-29.2372
-32.6744
-34.8871
-35.5437
-34.4423
-31.6291
-27.4938
-22.6752
-17.8054
-13.3235
-9.46128
-6.2803
-3.7301
-1.71424
-0.132504
1.10331
2.06493
2.8088
3.37658
3.79767
4.09457
4.28015
4.34784
4.10864
3.18627
0.866833
-3.83427
-11.0043
-20.2035
-31.6284
-45.568
-60.5748
-73.3196
-80.9429
-82.9556
-80.7765
-75.6938
-68.0513
-57.6438
-45.4559
-33.4826
-23.3621
-15.731
-10.4034
-6.81466
-4.38979
-2.70824
-1.51099
-0.647126
-0.0233637
0.424905
0.74558
0.974378
1.1375
1.25398
1.33764
1.39857
1.44407
1.47939
1.50807
1.53216
1.55233
1.56808
1.57761
1.57767
1.56277
1.52353
1.44422
1.3004
1.0493
0.593451
-0.314865
-2.26845
-6.18382
-12.6201
-20.873
-28.7722
-33.4009
-32.9963
-27.4798
-19.3624
-11.2752
-5.71281
-1.32161
-1.12386
-14.7364
-15.0304
-15.6745
-16.2222
-16.1681
-15.2692
-13.6644
-11.8357
-10.4209
-10.0127
-10.9064
-13.0729
-16.3055
-20.2199
-24.3488
-28.1873
-31.2082
-33.0175
-33.3108
-31.9903
-29.2138
-25.4055
-21.109
-16.7877
-12.7643
-9.23412
-6.27071
-3.85292
-1.91274
-0.371301
0.845046
1.79848
2.53912
3.10491
3.52212
3.81022
3.98063
4.03186
3.81967
2.98022
0.81034
-3.70671
-10.835
-20.1661
-31.6957
-45.5823
-60.4582
-73.1307
-80.7839
-82.8876
-80.8787
-76.0225
-68.5874
-58.2726
-46.027
-33.9111
-23.641
-15.8954
-10.499
-6.87841
-4.44263
-2.75876
-1.56117
-0.696453
-0.070731
0.38059
0.705304
0.938995
1.10768
1.23014
1.31993
1.38681
1.43778
1.4778
1.51018
1.5368
1.55826
1.57401
1.58223
1.57968
1.5608
1.5161
1.42967
1.27711
1.01724
0.559404
-0.322457
-2.1694
-5.83051
-11.8444
-19.5751
-27.0001
-31.3754
-31.0661
-25.9537
-18.3853
-10.7708
-5.54706
-1.2416
-1.21018
-14.6269
-14.939
-15.4868
-15.9016
-15.7954
-14.9974
-13.6434
-12.1464
-11.0334
-10.7631
-11.5679
-13.4855
-16.3657
-19.8555
-23.4925
-26.7875
-29.2985
-30.679
-30.6985
-29.3412
-26.8062
-23.4554
-19.6947
-15.8714
-12.2532
-9.02202
-6.26195
-3.9734
-2.11071
-0.613029
0.580214
1.52218
2.25673
2.81793
3.22911
3.50658
3.65981
3.68896
3.48673
2.71556
0.694056
-3.6087
-10.62
-19.9981
-31.5721
-45.3375
-59.9858
-72.5
-80.1563
-82.3904
-80.608
-76.03
-68.8398
-58.6581
-46.4084
-34.2099
-23.8432
-16.0206
-10.5778
-6.93663
-4.4952
-2.81137
-1.61451
-0.749358
-0.121704
0.332908
0.662055
0.901104
1.07583
1.20473
1.30105
1.37423
1.43096
1.47591
1.51216
1.54142
1.56425
1.58005
1.58698
1.58182
1.55893
1.50877
1.41536
1.25441
0.98618
0.526348
-0.330046
-2.07145
-5.47522
-11.0536
-18.2403
-25.1708
-29.2859
-29.0744
-24.3816
-17.3816
-10.2573
-5.37865
-1.1713
-1.28952
-14.5496
-14.8386
-15.2296
-15.4889
-15.3449
-14.6825
-13.6207
-12.4815
-11.6693
-11.5412
-12.2954
-13.9532
-16.3812
-19.2953
-22.3132
-25.0354
-27.0761
-28.1391
-28.0606
-26.8461
-24.6517
-21.7483
-18.4493
-15.0467
-11.7806
-8.82065
-6.2527
-4.09101
-2.30748
-0.856768
0.309837
1.23704
1.96265
2.51663
2.91954
3.18447
3.31857
3.32209
3.11763
2.40526
0.534719
-3.52188
-10.3392
-19.6757
-31.2248
-44.799
-59.1321
-71.4139
-79.0534
-81.4569
-79.9556
-75.7041
-68.7921
-58.7803
-46.5805
-34.3629
-23.9567
-16.0986
-10.6347
-6.98649
-4.54606
-2.86539
-1.6707
-0.805723
-0.176258
0.281827
0.615775
0.860643
1.04189
1.17771
1.28099
1.36084
1.42363
1.47376
1.51408
1.54614
1.57045
1.58638
1.59209
1.58434
1.55749
1.50196
1.40181
1.23288
0.956893
0.495712
-0.335093
-1.97153
-5.11673
-10.2521
-16.8819
-23.3078
-27.1627
-27.0529
-22.791
-16.3711
-9.74564
-5.21196
-1.11193
-1.36031
-14.3682
-14.592
-14.854
-15.0078
-14.87
-14.3674
-13.5938
-12.7866
-12.2457
-12.239
-12.92
-14.3107
-16.3102
-18.699
-21.1699
-23.3883
-25.0382
-25.8798
-25.7725
-24.7045
-22.7928
-20.25
-17.3337
-14.2944
-11.343
-8.63168
-6.2448
-4.20661
-2.50317
-1.10222
0.0344366
0.943685
1.65751
2.20172
2.59412
2.8448
2.95804
2.93319
2.71566
2.05261
0.337158
-3.44124
-9.98655
-19.1845
-30.6315
-43.9517
-57.9002
-69.8872
-77.4865
-80.0873
-78.9127
-75.027
-68.4188
-58.61
-46.517
-34.3509
-23.9701
-16.1238
-10.6677
-7.02797
-4.59596
-2.92178
-1.73069
-0.866412
-0.235159
0.226694
0.565927
0.817189
1.00556
1.14886
1.25961
1.34657
1.41578
1.47136
1.51596
1.55099
1.57689
1.59301
1.59755
1.58725
1.55649
1.49573
1.38909
1.21268
0.929625
0.46781
-0.337367
-1.8706
-4.76019
-9.45313
-15.5231
-21.4413
-25.0364
-25.0307
-21.2053
-15.3691
-9.24408
-5.05053
-1.06447
-1.42264
-14.1952
-14.379
-14.5638
-14.6557
-14.5358
-14.1592
-13.5981
-13.0287
-12.6755
-12.7434
-13.3565
-14.5353
-16.1973
-18.1639
-20.1858
-21.9901
-23.3186
-23.9673
-23.8162
-22.8515
-21.1622
-18.9175
-16.3292
-13.6088
-10.9387
-8.45487
-6.23833
-4.32018
-2.69741
-1.34869
-0.245061
0.643149
1.34244
1.87441
2.25412
2.48893
2.57993
2.52494
2.28452
1.65572
0.0909431
-3.38587
-9.58299
-18.5334
-29.7872
-42.7931
-56.3025
-67.9429
-75.4773
-78.295
-77.482
-73.9889
-67.6999
-58.123
-46.196
-34.1578
-23.8733
-16.0907
-10.6743
-7.06026
-4.64495
-2.98096
-1.79503
-0.93198
-0.298916
0.167066
0.512146
0.770459
0.96663
1.11805
1.23684
1.33138
1.40741
1.46876
1.51788
1.55605
1.58367
1.60008
1.60349
1.5907
1.55611
1.49026
1.37743
1.19405
0.904623
0.442732
-0.337504
-1.77149
-4.41326
-8.67207
-14.1878
-19.6014
-22.9404
-23.0405
-19.6511
-14.3931
-8.76178
-4.89804
-1.02934
-1.47642
-14.026
-14.1759
-14.307
-14.36
-14.2601
-13.9819
-13.5826
-13.1944
-12.9858
-13.1116
-13.6676
-14.6686
-16.0474
-17.6601
-19.3061
-20.762
-21.8149
-22.2957
-22.1036
-21.2217
-19.7176
-17.7268
-15.423
-12.9837
-10.5659
-8.29042
-6.23398
-4.43208
-2.89006
-1.59559
-0.527789
0.336486
1.01859
1.53604
1.90101
2.11849
2.18621
2.09993
1.8295
1.21795
-0.209015
-3.37237
-9.15335
-17.7405
-28.6948
-41.3217
-54.3495
-65.6069
-73.0566
-76.1011
-75.6681
-72.5792
-66.6144
-57.2947
-45.5966
-33.7697
-23.658
-15.9952
-10.6532
-7.08338
-4.69371
-3.04383
-1.86464
-1.0033
-0.368309
0.102278
0.453888
0.720029
0.924786
1.08507
1.21255
1.31525
1.39855
1.46602
1.51992
1.56141
1.59088
1.60766
1.61003
1.59481
1.55648
1.4857
1.36703
1.17727
0.882243
0.420875
-0.335382
-1.67558
-4.08143
-7.92178
-12.8979
-17.818
-20.9089
-21.1144
-18.1532
-13.4591
-8.30667
-4.75759
-1.00646
-1.52232
-13.8617
-13.9872
-14.0865
-14.1216
-14.0465
-13.8486
-13.5736
-13.3206
-13.2156
-13.3751
-13.8722
-14.718
-15.8576
-17.1746
-18.5062
-19.67
-20.4915
-20.8302
-20.6006
-19.7855
-18.4371
-16.6636
-14.6066
-12.4149
-10.2231
-8.13819
-6.23206
-4.54242
-3.08082
-1.84224
-0.812731
0.0249458
0.687391
1.18821
1.53662
1.73549
1.77944
1.66133
1.3563
0.745683
-0.562781
-3.41262
-8.72291
-16.8322
-27.3672
-39.5408
-52.0522
-62.9053
-70.2568
-73.5279
-73.4765
-70.7875
-65.142
-56.1035
-44.7021
-33.1761
-23.3188
-15.8347
-10.6036
-7.09764
-4.74303
-3.11137
-1.94052
-1.0813
-0.44415
0.0316452
0.390602
0.665481
0.879736
1.04973
1.18667
1.29815
1.38922
1.4632
1.52217
1.56719
1.59865
1.6159
1.61729
1.59971
1.55774
1.48225
1.35811
1.1626
0.862819
0.40263
-0.330734
-1.58368
-3.76904
-7.21373
-11.6744
-16.12
-18.9749
-19.2829
-16.7353
-12.5817
-7.88587
-4.63187
-0.995234
-1.56144
-13.704
-13.8109
-13.8894
-13.9157
-13.8631
-13.7276
-13.5461
-13.3934
-13.3632
-13.5425
-13.9857
-14.6996
-15.6384
-16.7075
-17.7755
-18.6939
-19.3198
-19.5374
-19.2749
-18.5157
-17.2995
-15.7125
-13.8703
-11.8971
-9.9083
-7.99811
-6.23296
-4.65138
-3.26944
-2.08795
-1.09884
-0.290136
0.3504
0.832713
1.16305
1.34227
1.36241
1.21276
0.870883
0.247264
-0.967447
-3.51696
-8.32031
-15.8467
-25.8326
-37.4638
-49.4225
-59.8589
-67.1028
-70.591
-70.9092
-68.599
-63.2612
-54.5302
-43.501
-32.3718
-22.8534
-15.6088
-10.5259
-7.10403
-4.79413
-3.18486
-2.0239
-1.1671
-0.527434
-0.0456652
0.321624
0.606313
0.831128
1.01182
1.15907
1.28005
1.37947
1.4604
1.52476
1.57353
1.60713
1.62495
1.62542
1.60557
1.56009
1.48008
1.35087
1.15029
0.846685
0.388392
-0.32323
-1.49622
-3.47938
-6.55737
-10.5352
-14.5332
-17.1672
-17.5729
-15.4176
-11.7732
-7.50493
-4.5229
-0.994576
-1.59549
-13.5521
-13.6453
-13.7118
-13.7368
-13.7061
-13.6208
-13.5105
-13.4312
-13.4526
-13.6386
-14.0291
-14.6272
-15.3949
-16.2554
-17.1023
-17.8151
-18.2773
-18.3933
-18.1032
-17.3913
-16.2878
-14.8613
-13.2064
-11.4266
-9.62027
-7.87007
-6.23693
-4.75907
-3.45561
-2.33195
-1.38497
-0.607303
0.00934973
0.471563
0.782678
0.941568
0.938308
0.758407
0.379595
-0.267073
-1.41543
-3.69142
-7.9742
-14.8312
-24.1364
-35.1187
-46.4754
-56.4805
-63.607
-67.2952
-67.96
-65.9939
-60.9504
-52.5614
-41.9891
-31.3576
-22.2641
-15.3195
-10.4219
-7.10418
-4.84861
-3.26583
-2.11624
-1.26202
-0.619292
-0.130591
0.246215
0.541979
0.77859
0.97111
1.12967
1.26097
1.36939
1.45775
1.52784
1.5806
1.61649
1.63498
1.63462
1.61256
1.5637
1.47942
1.34554
1.14061
0.834162
0.378576
-0.31238
-1.41303
-3.2141
-5.95907
-9.49389
-13.0778
-15.5088
-16.0064
-14.2162
-11.043
-7.16775
-4.43201
-1.00301
-1.62671
-13.4074
-13.4905
-13.5498
-13.5768
-13.5646
-13.5175
-13.4589
-13.4313
-13.4858
-13.6692
-14.0098
-14.5078
-15.131
-15.817
-16.4794
-17.0208
-17.3461
-17.3773
-17.0644
-16.3932
-15.3864
-14.0991
-12.6081
-10.9997
-9.35752
-7.75387
-6.24416
-4.86552
-3.639
-2.57351
-1.66998
-0.925024
-0.333904
0.106923
0.398077
0.5364
0.510604
0.302754
-0.11099
-0.786034
-1.89399
-3.93456
-7.7079
-13.8373
-22.3397
-32.551
-43.2343
-52.779
-59.7699
-63.6315
-64.609
-62.9465
-58.1903
-50.192
-40.1723
-30.1427
-21.5582
-14.9716
-10.2949
-7.10049
-4.90847
-3.35613
-2.21922
-1.3676
-0.721054
-0.224227
0.163519
0.47185
0.721702
0.927368
1.09836
1.24092
1.35906
1.45539
1.5316
1.58859
1.62694
1.64619
1.64507
1.62089
1.56878
1.48046
1.34235
1.13378
0.825546
0.373592
-0.297589
-1.33334
-2.97316
-5.42167
-8.55858
-11.7676
-14.0153
-14.5979
-13.1414
-10.3967
-6.87636
-4.35993
-1.01884
-1.65781
-13.268
-13.3437
-13.3991
-13.4297
-13.4332
-13.4151
-13.3942
-13.4022
-13.4764
-13.6503
-13.9436
-14.3539
-14.8541
-15.3931
-15.9012
-16.2996
-16.5112
-16.4723
-16.1414
-15.5059
-14.583
-13.4166
-12.0695
-10.6131
-9.11871
-7.64924
-6.25477
-4.97075
-3.81927
-2.81184
-1.95265
-1.2417
-0.677398
-0.258894
0.0119837
0.130048
0.0830564
-0.149463
-0.594082
-1.29803
-2.38623
-4.23608
-7.53502
-12.9139
-20.5149
-29.8276
-39.7398
-48.7685
-55.5862
-59.5807
-60.8269
-59.4309
-54.97
-47.4305
-38.0698
-28.7452
-20.7483
-14.5728
-10.1495
-7.09613
-4.9762
-3.45793
-2.33485
-1.48562
-0.834261
-0.327839
0.0725561
0.395222
0.660006
0.880343
1.06508
1.21994
1.34862
1.45353
1.53626
1.59777
1.63873
1.65884
1.65701
1.63079
1.57556
1.48345
1.34153
1.13006
0.821107
0.373821
-0.278195
-1.25595
-2.75491
-4.94446
-7.73141
-10.6083
-12.6942
-13.3546
-12.1979
-9.83651
-6.63101
-4.30692
-1.04044
-1.69178
-13.1344
-13.2045
-13.2577
-13.292
-13.3077
-13.3106
-13.3155
-13.346
-13.4292
-13.5886
-13.8371
-14.1709
-14.5667
-14.9827
-15.3625
-15.6425
-15.7603
-15.664
-15.3196
-14.716
-13.8662
-12.8055
-11.5848
-10.2638
-8.90251
-7.55586
-6.26879
-5.07472
-3.99606
-3.04614
-2.23175
-1.5557
-1.0191
-0.623481
-0.372765
-0.274062
-0.340378
-0.593514
-1.06303
-1.79186
-2.87288
-4.5768
-7.45602
-12.0998
-18.7389
-27.0349
-36.0575
-44.4804
-51.058
-55.1254
-56.5885
-55.4316
-51.2962
-44.3057
-35.7167
-27.1935
-19.8529
-14.134
-9.99205
-7.09503
-5.05473
-3.57377
-2.46544
-1.61817
-0.960711
-0.442897
-0.0278038
0.311291
0.592992
0.829769
1.02974
1.19812
1.33825
1.4524
1.5421
1.6084
1.65213
1.67317
1.6707
1.64251
1.58429
1.48862
1.34331
1.12965
0.821081
0.379616
-0.2535
-1.17926
-2.55637
-4.52339
-7.00859
-9.59739
-11.544
-12.2754
-11.3842
-9.36076
-6.43055
-4.27314
-1.06654
-1.7317
-13.005
-13.0707
-13.1224
-13.1598
-13.1845
-13.202
-13.2239
-13.2674
-13.3519
-13.4937
-13.7005
-13.9674
-14.2744
-14.5873
-14.8604
-15.0425
-15.0833
-14.9406
-14.5867
-14.012
-13.2266
-12.2585
-11.1495
-9.94881
-8.70761
-7.47333
-6.28617
-5.17731
-4.16895
-3.27562
-2.50607
-1.86538
-1.35696
-0.984375
-0.753287
-0.672461
-0.755612
-1.02472
-1.51153
-2.25732
-3.33441
-4.93019
-7.45608
-11.4169
-17.0818
-24.2733
-32.2815
-39.9779
-46.2129
-50.2687
-51.8912
-50.9614
-47.2067
-40.8731
-33.1664
-25.5265
-18.8957
-13.6685
-9.82998
-7.10182
-5.14746
-3.70658
-2.61367
-1.76765
-1.10248
-0.571102
-0.138863
0.219143
0.520095
0.775375
0.992309
1.17557
1.32819
1.4523
1.54945
1.62084
1.66748
1.68953
1.68643
1.65631
1.59522
1.49623
1.34793
1.13277
0.825665
0.391263
-0.222833
-1.1015
-2.37357
-4.15172
-6.38123
-8.72536
-10.5553
-11.3517
-10.6935
-8.96503
-6.27301
-4.25908
-1.09659
-1.7804
-12.8798
-12.9417
-12.9921
-13.0315
-13.0622
-13.0889
-13.1206
-13.1697
-13.2499
-13.3719
-13.5399
-13.7483
-13.9799
-14.2066
-14.3914
-14.4931
-14.4712
-14.2917
-13.932
-13.384
-12.6555
-11.7691
-10.7588
-9.66561
-8.53271
-7.40117
-6.30679
-5.27838
-4.33756
-3.49951
-2.77439
-2.1691
-1.68891
-1.33911
-1.12672
-1.06177
-1.15863
-1.43866
-1.93413
-2.68593
-3.75353
-5.26615
-7.50613
-10.8642
-15.5957
-21.6443
-28.5313
-35.3647
-41.1236
-45.0593
-46.7793
-46.0808
-42.7829
-37.2197
-30.4904
-23.7916
-17.9045
-13.1917
-9.67185
-7.12167
-5.2582
-3.85967
-2.78258
-1.93683
-1.26199
-0.714422
-0.26212
0.117735
0.440683
0.716874
0.952763
1.15247
1.31873
1.4536
1.55871
1.63548
1.68516
1.70825
1.70454
1.67251
1.60864
1.50654
1.35566
1.13964
0.835031
0.408985
-0.185591
-1.02083
-2.20195
-3.82084
-5.83656
-7.97648
-9.71188
-10.5691
-10.1148
-8.6431
-6.15667
-4.26618
-1.13103
-1.8402
-12.7575
-12.8159
-12.8647
-12.905
-12.939
-12.9706
-13.0067
-13.0561
-13.1281
-13.2295
-13.3619
-13.5193
-13.687
-13.8417
-13.9536
-13.9895
-13.917
-13.7088
-13.3465
-12.8234
-12.1457
-11.3316
-10.4089
-9.4117
-8.37652
-7.33886
-6.33045
-5.37775
-4.50147
-3.71701
-3.03554
-2.46528
-2.01297
-1.68528
-1.49028
-1.43879
-1.54562
-1.83115
-2.32624
-3.07131
-4.11714
-5.556
-7.56744
-10.4178
-14.3045
-19.2356
-24.9398
-30.7851
-35.9213
-39.6121
-41.3659
-40.9149
-38.157
-33.4639
-27.775
-22.0426
-16.9099
-12.7203
-9.52679
-7.16014
-5.39115
-4.03679
-2.97568
-2.1289
-1.44197
-0.875108
-0.399288
0.00588915
0.354063
0.653976
0.911126
1.12906
1.31026
1.45676
1.57035
1.65279
1.70561
1.72974
1.72538
1.69142
1.62483
1.51982
1.36671
1.15044
0.849299
0.432895
-0.141339
-0.93558
-2.0369
-3.52132
-5.35957
-7.33173
-8.99293
-9.90885
-9.63486
-8.38875
-6.08124
-4.2973
-1.17141
-1.91269
-12.6382
-12.6931
-12.7399
-12.7796
-12.8145
-12.8477
-12.8841
-12.9298
-12.991
-13.0716
-13.1714
-13.2844
-13.3978
-13.4927
-13.5447
-13.5273
-13.4145
-13.1844
-12.8222
-12.3227
-11.6906
-10.9408
-10.096
-9.18471
-8.23778
-7.28581
-6.35691
-5.47518
-4.66024
-3.9274
-3.28839
-2.75239
-2.32724
-2.02061
-1.84134
-1.80061
-1.91327
-2.19861
-2.68456
-3.40966
-4.41782
-5.77802
-7.59959
-10.0351
-13.1993
-17.1052
-21.6343
-26.4102
-30.7933
-34.1154
-35.8402
-35.6548
-33.5071
-29.7467
-25.1141
-20.3345
-15.9424
-12.2709
-9.40397
-7.22301
-5.55087
-4.24213
-3.19691
-2.34746
-1.64555
-1.05571
-0.552294
-0.117711
0.259475
0.586388
0.867457
1.10564
1.30322
1.4623
1.58494
1.67331
1.72935
1.75447
1.74936
1.71341
1.64412
1.53635
1.38135
1.16539
0.868593
0.463053
-0.0898101
-0.844399
-1.87416
-3.24377
-4.93453
-6.77063
-8.37574
-9.35087
-9.24106
-8.19804
-6.04905
-4.35684
-1.22021
-1.99884
-12.5209
-12.5722
-12.6164
-12.6545
-12.6883
-12.7203
-12.7539
-12.7933
-12.8422
-12.9025
-12.9728
-13.0472
-13.1149
-13.1601
-13.1632
-13.1028
-12.9582
-12.712
-12.3525
-11.8753
-11.2845
-10.592
-9.81679
-8.98246
-8.1152
-7.24141
-6.38585
-5.5704
-4.81345
-4.12995
-3.53188
-3.02901
-2.62992
-2.34299
-2.17748
-2.14461
-2.25874
-2.53797
-3.00664
-3.69923
-4.65351
-5.92112
-7.56995
-9.66654
-12.2414
-15.2696
-18.7128
-22.4118
-25.9596
-28.8131
-30.4523
-30.5401
-29.0378
-26.2148
-22.5978
-18.7181
-15.0299
-11.8589
-9.31207
-7.31608
-5.74229
-4.4804
-3.45075
-2.59658
-1.87625
-1.25906
-0.723262
-0.254492
0.156126
0.513848
0.821905
1.08265
1.29822
1.4709
1.60316
1.69769
1.75695
1.78294
1.77692
1.73884
1.6668
1.55638
1.39977
1.18464
0.892965
0.499391
-0.0310067
-0.74646
-1.71037
-2.98002
-4.54661
-6.27278
-7.83864
-8.87766
-8.92454
-8.0712
-6.06537
-4.45041
-1.28065
-2.09926
-12.4059
-12.4534
-12.4943
-12.5296
-12.5609
-12.5897
-12.6184
-12.6496
-12.6853
-12.7261
-12.7699
-12.811
-12.8401
-12.8443
-12.8075
-12.7129
-12.5438
-12.2864
-11.9314
-11.4755
-10.9221
-10.2811
-9.56812
-8.80287
-8.00757
-7.20498
-6.41691
-5.66312
-4.9607
-4.32403
-3.76505
-3.29384
-2.91941
-2.65052
-2.49661
-2.46861
-2.57998
-2.8473
-3.29138
-3.94081
-4.82701
-5.98625
-7.46223
-9.27052
-11.3759
-13.7028
-16.2241
-18.9287
-21.6337
-23.9645
-25.473
-25.8212
-24.9472
-22.998
-20.3003
-17.2339
-14.1953
-11.4972
-9.25881
-7.44509
-5.97079
-4.75691
-3.74228
-2.88086
-2.13798
-1.48827
-0.914478
-0.405948
0.0432252
0.43614
0.774689
1.0606
1.29593
1.4833
1.62579
1.72666
1.78907
1.81575
1.80858
1.76815
1.69325
1.58021
1.42224
1.20839
0.922545
0.541901
0.0349847
-0.641382
-1.54323
-2.7238
-4.18393
-5.82144
-7.36521
-8.47802
-8.68256
-8.0128
-6.13787
-4.58457
-1.35618
-2.21468
-12.2926
-12.336
-12.373
-12.4047
-12.4321
-12.4562
-12.4785
-12.5004
-12.5229
-12.5454
-12.5655
-12.578
-12.5748
-12.5452
-12.4764
-12.3547
-12.1671
-11.9025
-11.5538
-11.1183
-10.5992
-10.0045
-9.3472
-8.64399
-7.91366
-7.17585
-6.44972
-5.75304
-5.10158
-4.50902
-3.98702
-3.54572
-3.19428
-2.94157
-2.79691
-2.77073
-2.87531
-3.1253
-3.53821
-4.13629
-4.9437
-5.98331
-7.27957
-8.82656
-10.5531
-12.3482
-14.1579
-16.0357
-17.9769
-19.7904
-21.1405
-21.7129
-21.39
-20.1875
-18.269
-15.9077
-13.4547
-11.1956
-9.25065
-7.61579
-6.2423
-5.07775
-4.07734
-3.20552
-2.4351
-1.74675
-1.12834
-0.573563
-0.0799246
0.353216
0.726245
1.04024
1.29731
1.50056
1.65378
1.76107
1.82648
1.85351
1.84482
1.80172
1.72373
1.60803
1.44886
1.23668
0.957293