/*--------------------------------*- C++ -*----------------------------------*\
| =========                 |                                                 |
| \\      /  F ield         | OpenFOAM: The Open Source CFD Toolbox           |
|  \\    /   O peration     | Version:  2.1.1                                 |
|   \\  /    A nd           | Web:      www.OpenFOAM.org                      |
|    \\/     M anipulation  |                                                 |
\*---------------------------------------------------------------------------*/
FoamFile
{
    version     2.0;
    format      ascii;
    class       surfaceScalarField;
    location    "0.18";
    object      phi;
}
// * * * * * * * * * * * * * * * * * * * * * * * * * * * * * * * * * * * * * //

dimensions      [0 3 -1 0 0 0 0];

internalField   nonuniform List<scalar> 
13452
(
4.60029e-05
2.24843e-05
2.96768e-05
1.63261e-05
2.12132e-05
8.46365e-06
1.73273e-05
3.88588e-06
1.57034e-05
1.62385e-06
1.49171e-05
7.86327e-07
1.44314e-05
4.85699e-07
1.40695e-05
3.61953e-07
1.37714e-05
2.98102e-07
1.35219e-05
2.4946e-07
1.33168e-05
2.05077e-07
1.31526e-05
1.6423e-07
1.30254e-05
1.27244e-07
1.29312e-05
9.41059e-08
1.28668e-05
6.44418e-08
1.28293e-05
3.74627e-08
1.28169e-05
1.2405e-08
1.28279e-05
-1.09514e-08
1.2861e-05
-3.31221e-08
1.29161e-05
-5.50728e-08
1.29925e-05
-7.63794e-08
1.3091e-05
-9.85331e-08
1.32125e-05
-1.21544e-07
1.33583e-05
-1.45754e-07
1.35298e-05
-1.71546e-07
1.37291e-05
-1.99298e-07
1.3959e-05
-2.29826e-07
1.42219e-05
-2.62929e-07
1.45241e-05
-3.02161e-07
1.48635e-05
-3.39474e-07
1.52669e-05
-4.03395e-07
1.56613e-05
-3.94408e-07
-6.90233e-07
1.63516e-05
7.49161e-05
1.80122e-05
7.0428e-05
2.08143e-05
6.33598e-05
1.55318e-05
5.67343e-05
1.05113e-05
5.16536e-05
6.70456e-06
4.80402e-05
4.39975e-06
4.54684e-05
3.05752e-06
4.35965e-05
2.2338e-06
4.21921e-05
1.70253e-06
4.11058e-05
1.33575e-06
4.02459e-05
1.06497e-06
3.95551e-05
8.55066e-07
3.89961e-05
6.86238e-07
3.85439e-05
5.46314e-07
3.8181e-05
4.2731e-07
3.78949e-05
3.23541e-07
3.76764e-05
2.30976e-07
3.75186e-05
1.46756e-07
3.74173e-05
6.82647e-08
3.73697e-05
-7.51817e-09
3.73725e-05
-7.91443e-08
3.74245e-05
-1.50613e-07
3.75253e-05
-2.22306e-07
3.7675e-05
-2.9546e-07
3.78746e-05
-3.71108e-07
3.81257e-05
-4.50396e-07
3.84307e-05
-5.34879e-07
3.87933e-05
-6.25512e-07
3.92176e-05
-7.26479e-07
3.97126e-05
-8.34446e-07
4.02833e-05
-9.74103e-07
4.09989e-05
-1.11e-06
-1.39113e-06
4.16998e-05
7.85216e-05
1.19471e-05
8.23404e-05
1.69955e-05
8.30117e-05
1.48605e-05
8.15202e-05
1.20028e-05
7.90323e-05
9.1925e-06
7.63908e-05
7.04125e-06
7.39267e-05
5.52162e-06
7.17429e-05
4.41761e-06
6.98525e-05
3.59291e-06
6.82312e-05
2.95705e-06
6.6846e-05
2.45014e-06
6.56655e-05
2.03559e-06
6.46619e-05
1.68984e-06
6.38117e-05
1.39654e-06
6.30952e-05
1.14375e-06
6.24964e-05
9.2237e-07
6.2002e-05
7.25418e-07
6.16012e-05
5.47481e-07
6.12855e-05
3.83978e-07
6.10469e-05
2.31123e-07
6.08813e-05
8.64644e-08
6.07853e-05
-5.46443e-08
6.07574e-05
-1.94394e-07
6.07953e-05
-3.33402e-07
6.08977e-05
-4.73486e-07
6.1064e-05
-6.16698e-07
6.12945e-05
-7.65376e-07
6.15906e-05
-9.21648e-07
6.19538e-05
-1.08965e-06
6.23895e-05
-1.27014e-06
6.28926e-05
-1.4772e-06
6.3481e-05
-1.69835e-06
-1.97985e-06
6.40697e-05
7.81474e-05
8.32637e-06
8.1925e-05
1.32178e-05
8.46233e-05
1.21623e-05
8.62515e-05
1.03746e-05
8.69413e-05
8.5027e-06
8.70475e-05
6.93505e-06
8.68138e-05
5.75531e-06
8.63833e-05
4.8481e-06
8.5848e-05
4.12815e-06
8.52642e-05
3.54089e-06
8.46667e-05
3.04764e-06
8.40785e-05
2.62378e-06
8.35152e-05
2.25316e-06
8.29875e-05
1.92417e-06
8.25027e-05
1.62859e-06
8.20649e-05
1.36021e-06
8.16764e-05
1.11391e-06
8.13385e-05
8.85401e-07
8.10515e-05
6.70936e-07
8.08154e-05
4.67197e-07
8.063e-05
2.71894e-07
8.04932e-05
8.21882e-08
8.04038e-05
-1.05048e-07
8.03614e-05
-2.90967e-07
8.03661e-05
-4.78186e-07
8.04183e-05
-6.68946e-07
8.05186e-05
-8.65617e-07
8.06675e-05
-1.07055e-06
8.08651e-05
-1.28727e-06
8.11127e-05
-1.51779e-06
8.14051e-05
-1.7696e-06
8.17463e-05
-2.03956e-06
-2.33911e-06
8.21056e-05
7.89925e-05
5.98969e-06
8.15946e-05
1.06158e-05
8.35241e-05
1.02328e-05
8.49702e-05
8.92852e-06
8.59904e-05
7.48253e-06
8.67337e-05
6.19169e-06
8.73035e-05
5.18556e-06
8.77485e-05
4.40308e-06
8.81011e-05
3.77555e-06
8.83832e-05
3.25877e-06
8.86099e-05
2.82096e-06
8.8793e-05
2.44068e-06
8.89418e-05
2.10432e-06
8.90635e-05
1.80256e-06
8.9164e-05
1.528e-06
8.92495e-05
1.27473e-06
8.93251e-05
1.0383e-06
8.93954e-05
8.15125e-07
8.94642e-05
6.02148e-07
8.95346e-05
3.9676e-07
8.96097e-05
1.96832e-07
8.96896e-05
2.26893e-09
8.97752e-05
-1.90628e-07
8.9867e-05
-3.82822e-07
8.99663e-05
-5.77431e-07
9.00737e-05
-7.76336e-07
9.01897e-05
-9.81653e-07
9.03146e-05
-1.19547e-06
9.04479e-05
-1.4205e-06
9.05887e-05
-1.65866e-06
9.07331e-05
-1.91397e-06
9.08792e-05
-2.18563e-06
-2.47673e-06
9.10168e-05
8.04641e-05
4.37147e-06
8.25093e-05
8.57059e-06
8.39998e-05
8.74227e-06
8.50647e-05
7.86368e-06
8.57933e-05
6.75386e-06
8.63139e-05
5.67111e-06
8.67275e-05
4.77195e-06
8.70813e-05
4.04934e-06
8.73983e-05
3.45855e-06
8.76901e-05
2.96694e-06
8.79618e-05
2.54926e-06
8.82159e-05
2.1866e-06
8.84543e-05
1.86584e-06
8.86792e-05
1.57769e-06
8.88919e-05
1.31526e-06
8.90935e-05
1.07314e-06
8.92848e-05
8.46988e-07
8.94667e-05
6.33259e-07
8.96398e-05
4.29019e-07
8.98049e-05
2.31673e-07
8.99626e-05
3.92104e-08
9.01151e-05
-1.50305e-07
9.02644e-05
-3.39878e-07
9.04116e-05
-5.30064e-07
9.0557e-05
-7.22834e-07
9.07006e-05
-9.19927e-07
9.08421e-05
-1.12315e-06
9.0981e-05
-1.3343e-06
9.11159e-05
-1.55547e-06
9.12455e-05
-1.78826e-06
9.13666e-05
-2.03501e-06
9.14768e-05
-2.29589e-06
-2.57194e-06
9.1572e-05
8.22351e-05
3.23488e-06
8.38984e-05
6.90736e-06
8.51908e-05
7.44984e-06
8.61309e-05
6.92353e-06
8.6781e-05
6.10384e-06
8.72308e-05
5.22129e-06
8.75681e-05
4.43464e-06
8.78421e-05
3.77534e-06
8.80793e-05
3.22132e-06
8.82951e-05
2.75121e-06
8.84974e-05
2.34691e-06
8.86906e-05
1.99336e-06
8.88772e-05
1.67928e-06
8.90585e-05
1.39635e-06
8.92356e-05
1.13818e-06
8.94091e-05
8.99654e-07
8.95795e-05
6.76648e-07
8.9747e-05
4.65733e-07
8.9912e-05
2.64025e-07
9.00747e-05
6.89298e-08
9.02357e-05
-1.21778e-07
9.03955e-05
-3.1008e-07
9.05538e-05
-4.9821e-07
9.07111e-05
-6.87332e-07
9.08672e-05
-8.78966e-07
9.1022e-05
-1.07468e-06
9.11749e-05
-1.27604e-06
9.13251e-05
-1.48455e-06
9.14714e-05
-1.70182e-06
9.16123e-05
-1.92912e-06
9.17451e-05
-2.16781e-06
9.18675e-05
-2.41827e-06
-2.68056e-06
9.19761e-05
8.42176e-05
2.43286e-06
8.55544e-05
5.57054e-06
8.66812e-05
6.32306e-06
8.75451e-05
6.05955e-06
8.81795e-05
5.46949e-06
8.86371e-05
4.76371e-06
8.89832e-05
4.08851e-06
8.92615e-05
3.49699e-06
8.94978e-05
2.9851e-06
8.97079e-05
2.54106e-06
8.99016e-05
2.15327e-06
9.00843e-05
1.8106e-06
9.02597e-05
1.50393e-06
9.04299e-05
1.22613e-06
9.05965e-05
9.71548e-07
9.07606e-05
7.35548e-07
9.0923e-05
5.14292e-07
9.10842e-05
3.04568e-07
9.12446e-05
1.03607e-07
9.14045e-05
-9.0985e-08
9.1564e-05
-2.81309e-07
9.17232e-05
-4.69311e-07
9.18819e-05
-6.56898e-07
9.204e-05
-8.45402e-07
9.21972e-05
-1.03617e-06
9.23531e-05
-1.23061e-06
9.25072e-05
-1.43006e-06
9.26584e-05
-1.63574e-06
9.28054e-05
-1.84884e-06
9.29465e-05
-2.07026e-06
9.30794e-05
-2.30073e-06
9.32017e-05
-2.54047e-06
-2.78887e-06
9.331e-05
8.63729e-05
1.85864e-06
8.7445e-05
4.49847e-06
8.84211e-05
5.34694e-06
8.92051e-05
5.27555e-06
8.98102e-05
4.86448e-06
9.02668e-05
4.30705e-06
9.06223e-05
3.73305e-06
9.0913e-05
3.20623e-06
9.11616e-05
2.73649e-06
9.13827e-05
2.32e-06
9.15855e-05
1.95047e-06
9.17758e-05
1.62032e-06
9.19572e-05
1.32245e-06
9.21324e-05
1.05094e-06
9.23031e-05
8.00912e-07
9.24704e-05
5.68221e-07
9.26353e-05
3.49376e-07
9.27985e-05
1.41406e-07
9.29603e-05
-5.82608e-08
9.31212e-05
-2.51861e-07
9.32813e-05
-4.41375e-07
9.34406e-05
-6.28597e-07
9.35989e-05
-8.15205e-07
9.3756e-05
-1.00255e-06
9.39117e-05
-1.19186e-06
9.40654e-05
-1.38435e-06
9.42165e-05
-1.5811e-06
9.43638e-05
-1.78308e-06
9.45061e-05
-1.9911e-06
9.46415e-05
-2.2057e-06
9.47679e-05
-2.42714e-06
9.48828e-05
-2.65534e-06
-2.88919e-06
9.49831e-05
8.86684e-05
1.44022e-06
8.95284e-05
3.63852e-06
9.03709e-05
4.50437e-06
9.10794e-05
4.56712e-06
9.16508e-05
4.2931e-06
9.21003e-05
3.85752e-06
9.24598e-05
3.37349e-06
9.27586e-05
2.9075e-06
9.3016e-05
2.47906e-06
9.32454e-05
2.09065e-06
9.34555e-05
1.74029e-06
9.36523e-05
1.42352e-06
9.38396e-05
1.13522e-06
9.40198e-05
8.70695e-07
9.41949e-05
6.25839e-07
9.43661e-05
3.97051e-07
9.45342e-05
1.812e-07
9.47001e-05
-2.44321e-08
9.4864e-05
-2.22224e-07
9.50264e-05
-4.14245e-07
9.51874e-05
-6.02342e-07
9.5347e-05
-7.88174e-07
9.5505e-05
-9.73241e-07
9.56613e-05
-1.1588e-06
9.58153e-05
-1.34594e-06
9.59667e-05
-1.53567e-06
9.61144e-05
-1.72886e-06
9.62575e-05
-1.92621e-06
9.63947e-05
-2.12822e-06
9.65241e-05
-2.33514e-06
9.66438e-05
-2.54684e-06
9.67514e-05
-2.76294e-06
-2.98205e-06
9.68443e-05
9.10822e-05
1.12937e-06
9.1774e-05
2.94664e-06
9.25004e-05
3.77803e-06
9.31398e-05
3.9277e-06
9.36765e-05
3.75639e-06
9.41148e-05
3.41923e-06
9.44747e-05
3.01356e-06
9.47787e-05
2.6035e-06
9.50433e-05
2.21446e-06
9.52802e-05
1.85378e-06
9.54975e-05
1.52295e-06
9.57009e-05
1.22015e-06
9.5894e-05
9.42074e-07
9.60796e-05
6.85182e-07
9.62593e-05
4.46134e-07
9.64345e-05
2.21859e-07
9.66061e-05
9.58704e-09
9.67748e-05
-1.93119e-07
9.6941e-05
-3.88434e-07
9.7105e-05
-5.78265e-07
9.7267e-05
-7.6431e-07
9.74269e-05
-9.48078e-07
9.75845e-05
-1.1309e-06
9.77396e-05
-1.3139e-06
9.78917e-05
-1.49805e-06
9.80402e-05
-1.68416e-06
9.81842e-05
-1.87289e-06
9.83228e-05
-2.06474e-06
9.84545e-05
-2.25992e-06
9.85778e-05
-2.45844e-06
9.86908e-05
-2.65989e-06
9.87915e-05
-2.86363e-06
-3.06813e-06
9.88776e-05
9.36005e-05
8.93552e-07
9.416e-05
2.38707e-06
9.47855e-05
3.15253e-06
9.53615e-05
3.35176e-06
9.58632e-05
3.25467e-06
9.62876e-05
2.99488e-06
9.66456e-05
2.65553e-06
9.69535e-05
2.2956e-06
9.72246e-05
1.94338e-06
9.74687e-05
1.60965e-06
9.76932e-05
1.29846e-06
9.79032e-05
1.01013e-06
9.81024e-05
7.42904e-07
9.82932e-05
4.9431e-07
9.84776e-05
2.61738e-07
9.86569e-05
4.26335e-08
9.88318e-05
-1.65395e-07
9.90032e-05
-3.64514e-07
9.91715e-05
-5.56678e-07
9.93368e-05
-7.43623e-07
9.94994e-05
-9.2689e-07
9.96592e-05
-1.10784e-06
9.98159e-05
-1.28765e-06
9.99693e-05
-1.46731e-06
0.000100119
-1.64765e-06
0.000100264
-1.82932e-06
0.000100404
-2.0128e-06
0.000100538
-2.19836e-06
0.000100664
-2.38605e-06
0.000100781
-2.57563e-06
0.000100888
-2.76655e-06
0.000100982
-2.95798e-06
-3.14838e-06
0.000101062
9.62148e-05
7.10794e-07
9.66707e-05
1.93126e-06
9.72096e-05
2.61354e-06
9.7728e-05
2.83342e-06
9.81956e-05
2.78704e-06
9.86042e-05
2.58632e-06
9.89579e-05
2.30176e-06
9.92677e-05
1.98584e-06
9.95437e-05
1.66736e-06
9.97941e-05
1.35924e-06
0.000100025
1.06736e-06
0.000100242
7.93676e-07
0.000100447
5.37734e-07
0.000100643
2.98005e-07
0.000100832
7.25442e-08
0.000101016
-1.40715e-07
0.000101194
-3.43803e-07
0.000101368
-5.38616e-07
0.000101538
-7.26893e-07
0.000101705
-9.10197e-07
0.000101868
-1.08991e-06
0.000102027
-1.26725e-06
0.000102183
-1.44325e-06
0.000102335
-1.61877e-06
0.000102481
-1.79448e-06
0.000102623
-1.9709e-06
0.000102758
-2.14835e-06
0.000102887
-2.32694e-06
0.000103008
-2.50655e-06
0.000103119
-2.68683e-06
0.000103219
-2.8671e-06
0.000103308
-3.04644e-06
-3.22341e-06
0.000103383
9.89204e-05
5.66143e-07
9.92951e-05
1.55658e-06
9.97605e-05
2.14806e-06
0.000100227
2.36697e-06
0.000100662
2.35211e-06
0.000101053
2.19476e-06
0.000101401
1.95415e-06
0.000101711
1.67586e-06
0.000101991
1.3876e-06
0.000102247
1.10333e-06
0.000102484
8.30106e-07
0.000102707
5.71039e-07
0.000102918
3.26708e-07
0.000103119
9.63661e-08
0.000103313
-1.2135e-07
0.000103501
-3.28064e-07
0.000103682
-5.25472e-07
0.000103859
-7.15216e-07
0.000104031
-8.98827e-07
0.000104198
-1.07769e-06
0.000104361
-1.25305e-06
0.00010452
-1.42596e-06
0.000104674
-1.59732e-06
0.000104823
-1.76788e-06
0.000104967
-1.93818e-06
0.000105105
-2.1086e-06
0.000105236
-2.27932e-06
0.000105359
-2.45036e-06
0.000105474
-2.62147e-06
0.000105579
-2.79221e-06
0.000105674
-2.96187e-06
0.000105757
-3.12952e-06
-3.29384e-06
0.000105828
0.000101715
4.49298e-07
0.000102026
1.2453e-06
0.000102429
1.74448e-06
0.00010285
1.94668e-06
0.000103254
1.94784e-06
0.000103628
1.82054e-06
0.000103968
1.61398e-06
0.000104277
1.36705e-06
0.000104559
1.10532e-06
0.00010482
8.42879e-07
0.000105063
5.87398e-07
0.000105291
3.42718e-07
0.000105508
1.10173e-07
0.000105714
-1.10363e-07
0.000105913
-3.1976e-07
0.000106104
-5.19262e-07
0.000106289
-7.10264e-07
0.000106468
-8.9417e-07
0.000106641
-1.07232e-06
0.000106809
-1.24593e-06
0.000106972
-1.41609e-06
0.00010713
-1.58375e-06
0.000107283
-1.74967e-06
0.000107429
-1.91447e-06
0.00010757
-2.07859e-06
0.000107703
-2.2423e-06
0.00010783
-2.40569e-06
0.000107948
-2.56867e-06
0.000108057
-2.73094e-06
0.000108157
-2.89201e-06
0.000108246
-3.05117e-06
0.000108324
-3.20756e-06
-3.36001e-06
0.000108391
0.000104597
3.53053e-07
0.000104858
9.83568e-07
0.00010521
1.39253e-06
0.00010559
1.567e-06
0.000105966
1.57182e-06
0.000106323
1.46338e-06
0.000106655
1.28205e-06
0.000106962
1.06048e-06
0.000107246
8.21507e-07
0.00010751
5.78687e-07
0.000107757
3.39811e-07
0.000107991
1.09105e-07
0.000108213
-1.11608e-07
0.000108424
-3.2199e-07
0.000108627
-5.2253e-07
0.000108822
-7.14157e-07
0.00010901
-8.9801e-07
0.000109191
-1.07529e-06
0.000109366
-1.24715e-06
0.000109534
-1.41467e-06
0.000109697
-1.57881e-06
0.000109854
-1.74037e-06
0.000110004
-1.90003e-06
0.000110148
-2.0583e-06
0.000110285
-2.21551e-06
0.000110414
-2.37186e-06
0.000110536
-2.52736e-06
0.000110649
-2.68185e-06
0.000110753
-2.83501e-06
0.000110848
-2.98635e-06
0.000110932
-3.1352e-06
0.000111005
-3.28077e-06
-3.4221e-06
0.000111067
0.000107567
2.72275e-07
0.00010779
7.6057e-07
0.000108099
1.08327e-06
0.000108443
1.22256e-06
0.000108794
1.22131e-06
0.000109135
1.12245e-06
0.000109458
9.58595e-07
0.000109762
7.56782e-07
0.000110047
5.36869e-07
0.000110314
3.11388e-07
0.000110566
8.78662e-08
0.000110804
-1.29394e-07
0.000111031
-3.38315e-07
0.000111247
-5.3826e-07
0.000111454
-7.29445e-07
0.000111653
-9.12558e-07
0.000111843
-1.08853e-06
0.000112026
-1.25839e-06
0.000112202
-1.42315e-06
0.000112371
-1.58374e-06
0.000112534
-1.74101e-06
0.000112689
-1.89566e-06
0.000112837
-2.04826e-06
0.000112978
-2.19924e-06
0.000113111
-2.34885e-06
0.000113237
-2.49723e-06
0.000113354
-2.64432e-06
0.000113462
-2.78995e-06
0.000113561
-2.93379e-06
0.00011365
-3.07537e-06
0.000113729
-3.21408e-06
0.000113797
-3.34924e-06
-3.48004e-06
0.000113855
0.000110626
2.03222e-07
0.000110819
5.67823e-07
0.000111093
8.08975e-07
0.000111407
9.08241e-07
0.000111735
8.93387e-07
0.000112061
7.96432e-07
0.000112376
6.43357e-07
0.000112677
4.56204e-07
0.000112962
2.51833e-07
0.000113232
4.14235e-08
0.000113488
-1.68056e-07
0.000113731
-3.72479e-07
0.000113962
-5.6972e-07
0.000114183
-7.58997e-07
0.000114394
-9.40359e-07
0.000114596
-1.11433e-06
0.000114789
-1.2817e-06
0.000114974
-1.44334e-06
0.000115151
-1.60015e-06
0.00011532
-1.75297e-06
0.000115482
-1.90252e-06
0.000115636
-2.04943e-06
0.000115781
-2.19419e-06
0.000115919
-2.33714e-06
0.000116049
-2.47849e-06
0.00011617
-2.61831e-06
0.000116282
-2.75654e-06
0.000116385
-2.89297e-06
0.000116479
-3.02729e-06
0.000116562
-3.15907e-06
0.000116636
-3.2878e-06
0.0001167
-3.41287e-06
-3.53366e-06
0.000116753
0.000113776
1.43107e-07
0.000113945
3.98628e-07
0.000114191
5.62971e-07
0.00011448
6.19218e-07
0.000114788
5.84956e-07
0.000115101
4.83647e-07
0.000115409
3.35623e-07
0.000115706
1.58574e-07
0.000115992
-3.35285e-08
0.000116264
-2.31043e-07
0.000116524
-4.27783e-07
0.000116771
-6.19998e-07
0.000117007
-8.05696e-07
0.000117233
-9.84094e-07
0.000117447
-1.15517e-06
0.000117652
-1.31938e-06
0.000117848
-1.4774e-06
0.000118035
-1.63002e-06
0.000118213
-1.77805e-06
0.000118382
-1.92223e-06
0.000118543
-2.06322e-06
0.000118695
-2.20157e-06
0.000118838
-2.3377e-06
0.000118973
-2.47191e-06
0.000119099
-2.60435e-06
0.000119216
-2.73506e-06
0.000119323
-2.86397e-06
0.000119421
-2.99088e-06
0.000119509
-3.1155e-06
0.000119588
-3.23744e-06
0.000119656
-3.35626e-06
0.000119715
-3.47149e-06
-3.58261e-06
0.000119764
0.000117018
8.9792e-08
0.000117169
2.47618e-07
0.000117392
3.39488e-07
0.00011766
3.50927e-07
0.000117953
2.92823e-07
0.000118254
1.82064e-07
0.000118556
3.4254e-08
0.000118851
-1.36683e-07
0.000119137
-3.19476e-07
0.000119412
-5.06107e-07
0.000119675
-6.9133e-07
0.000119927
-8.71938e-07
0.000120168
-1.04622e-06
0.000120397
-1.21352e-06
0.000120616
-1.37385e-06
0.000120824
-1.52765e-06
0.000121022
-1.67558e-06
0.000121211
-1.81836e-06
0.000121389
-1.95674e-06
0.000121559
-2.09142e-06
0.000121718
-2.223e-06
0.000121869
-2.35197e-06
0.00012201
-2.4787e-06
0.000122141
-2.60345e-06
0.000122263
-2.72635e-06
0.000122376
-2.84742e-06
0.000122478
-2.96658e-06
0.000122571
-3.08363e-06
0.000122654
-3.19833e-06
0.000122727
-3.31035e-06
0.00012279
-3.41931e-06
0.000122843
-3.52483e-06
-3.6265e-06
0.000122887
0.000120354
4.15928e-08
0.000120491
1.10413e-07
0.000120697
1.33478e-07
0.000120949
9.90425e-08
0.000121228
1.36845e-08
0.000121521
-1.10666e-07
0.000121818
-2.62313e-07
0.000122112
-4.3058e-07
0.000122399
-6.06675e-07
0.000122677
-7.84226e-07
0.000122945
-9.59033e-07
0.000123201
-1.12856e-06
0.000123447
-1.2915e-06
0.00012368
-1.44744e-06
0.000123903
-1.59652e-06
0.000124115
-1.73925e-06
0.000124315
-1.87628e-06
0.000124505
-2.00837e-06
0.000124685
-2.13623e-06
0.000124854
-2.26052e-06
0.000125013
-2.38182e-06
0.000125161
-2.50057e-06
0.0001253
-2.61712e-06
0.000125428
-2.73171e-06
0.000125546
-2.84443e-06
0.000125654
-2.95531e-06
0.000125752
-3.06426e-06
0.000125839
-3.17112e-06
0.000125917
-3.27566e-06
0.000125984
-3.37762e-06
0.000126041
-3.47667e-06
0.000126089
-3.5725e-06
-3.6648e-06
0.000126127
0.000123788
-2.86426e-09
0.000123915
-1.66524e-08
0.000124108
-5.95453e-08
0.000124347
-1.4058e-07
0.000124617
-2.55866e-07
0.000124903
-3.97174e-07
0.000125197
-5.56015e-07
0.000125491
-7.24513e-07
0.00012578
-8.96135e-07
0.000126062
-1.06613e-06
0.000126335
-1.23143e-06
0.000126597
-1.39026e-06
0.000126847
-1.54184e-06
0.000127085
-1.68607e-06
0.000127312
-1.82334e-06
0.000127527
-1.95426e-06
0.000127731
-2.07959e-06
0.000127922
-2.20009e-06
0.000128103
-2.31652e-06
0.000128272
-2.42951e-06
0.000128429
-2.53963e-06
0.000128576
-2.64733e-06
0.000128712
-2.75292e-06
0.000128837
-2.85661e-06
0.000128951
-2.95853e-06
0.000129054
-3.05866e-06
0.000129147
-3.15695e-06
0.000129229
-3.25325e-06
0.000129301
-3.34737e-06
0.000129362
-3.43907e-06
0.000129414
-3.52809e-06
0.000129455
-3.6142e-06
-3.69713e-06
0.000129488
0.00012732
-4.47915e-08
0.000127441
-1.36758e-07
0.000127625
-2.43682e-07
0.000127856
-3.71989e-07
0.00012812
-5.19411e-07
0.000128403
-6.80461e-07
0.000128696
-8.49278e-07
0.000128992
-1.02041e-06
0.000129285
-1.1894e-06
0.000129572
-1.35309e-06
0.00012985
-1.50956e-06
0.000130118
-1.65791e-06
0.000130374
-1.79794e-06
0.000130618
-1.93002e-06
0.00013085
-2.05479e-06
0.000131068
-2.17308e-06
0.000131275
-2.28578e-06
0.000131468
-2.39373e-06
0.000131649
-2.49773e-06
0.000131818
-2.59846e-06
0.000131975
-2.69648e-06
0.00013212
-2.79223e-06
0.000132253
-2.88604e-06
0.000132375
-2.9781e-06
0.000132485
-3.06854e-06
0.000132583
-3.15736e-06
0.000132671
-3.2445e-06
0.000132748
-3.32983e-06
0.000132813
-3.4132e-06
0.000132869
-3.4944e-06
0.000132914
-3.57321e-06
0.000132949
-3.64942e-06
-3.72282e-06
0.000132975
0.000130955
-8.51932e-08
0.000131071
-2.52788e-07
0.00013125
-4.22813e-07
0.000131478
-5.99239e-07
0.000131739
-7.80716e-07
0.000132022
-9.63811e-07
0.000132318
-1.14485e-06
0.000132618
-1.32052e-06
0.000132917
-1.48828e-06
0.00013321
-1.64653e-06
0.000133495
-1.79457e-06
0.00013377
-1.9324e-06
0.000134032
-2.06054e-06
0.000134282
-2.17983e-06
0.000134519
-2.29131e-06
0.000134742
-2.39605e-06
0.000134951
-2.49512e-06
0.000135147
-2.58949e-06
0.000135329
-2.68004e-06
0.000135498
-2.76749e-06
0.000135654
-2.85244e-06
0.000135797
-2.93534e-06
0.000135928
-3.01652e-06
0.000136046
-3.0962e-06
0.000136152
-3.17448e-06
0.000136246
-3.25138e-06
0.000136328
-3.32685e-06
0.000136399
-3.40079e-06
0.000136459
-3.47305e-06
0.000136508
-3.54345e-06
0.000136547
-3.6118e-06
0.000136575
-3.67794e-06
-3.74168e-06
0.000136594
0.000134695
-1.25069e-07
0.00013481
-3.67516e-07
0.000134988
-6.00814e-07
0.000135215
-8.26599e-07
0.000135478
-1.044e-06
0.000135766
-1.25117e-06
0.000136067
-1.44629e-06
0.000136375
-1.62798e-06
0.000136682
-1.79551e-06
0.000136984
-1.94881e-06
0.000137278
-2.08845e-06
0.000137561
-2.21543e-06
0.000137832
-2.33102e-06
0.000138088
-2.43666e-06
0.000138331
-2.53381e-06
0.000138559
-2.62388e-06
0.000138772
-2.70815e-06
0.00013897
-2.78776e-06
0.000139154
-2.8637e-06
0.000139323
-2.93675e-06
0.000139478
-3.00758e-06
0.000139619
-3.07664e-06
0.000139747
-3.1443e-06
0.000139862
-3.21077e-06
0.000139963
-3.27617e-06
0.000140053
-3.34051e-06
0.000140129
-3.40377e-06
0.000140195
-3.46583e-06
0.000140248
-3.52657e-06
0.00014029
-3.58582e-06
0.000140322
-3.64341e-06
0.000140343
-3.69917e-06
-3.75291e-06
0.000140354
0.000138543
-1.65412e-07
0.000138659
-4.83717e-07
0.00013884
-7.81631e-07
0.000139071
-1.05849e-06
0.000139341
-1.31368e-06
0.000139637
-1.54663e-06
0.000139948
-1.75721e-06
0.000140265
-1.94588e-06
0.000140584
-2.11368e-06
0.000140897
-2.26211e-06
0.000141201
-2.39302e-06
0.000141495
-2.50849e-06
0.000141774
-2.61064e-06
0.000142039
-2.70156e-06
0.000142288
-2.78318e-06
0.000142522
-2.85731e-06
0.000142739
-2.92549e-06
0.000142941
-2.98906e-06
0.000143126
-3.04914e-06
0.000143296
-3.10662e-06
0.00014345
-3.16219e-06
0.00014359
-3.21639e-06
0.000143715
-3.26958e-06
0.000143827
-3.32198e-06
0.000143924
-3.37373e-06
0.000144009
-3.42484e-06
0.00014408
-3.47529e-06
0.000144139
-3.52497e-06
0.000144186
-3.57375e-06
0.000144222
-3.62148e-06
0.000144247
-3.66798e-06
0.000144261
-3.71312e-06
-3.7567e-06
0.000144264
0.000142501
-2.0732e-07
0.000142622
-6.04499e-07
0.00014281
-9.69837e-07
0.000143052
-1.30033e-06
0.000143334
-1.59549e-06
0.000143643
-1.85593e-06
0.000143969
-2.08309e-06
0.000144302
-2.27926e-06
0.000144636
-2.44728e-06
0.000144964
-2.5903e-06
0.000145283
-2.71157e-06
0.000145589
-2.81432e-06
0.000145879
-2.90161e-06
0.000146154
-2.97624e-06
0.000146412
-3.04074e-06
0.000146652
-3.09731e-06
0.000146874
-3.14782e-06
0.000147079
-3.19383e-06
0.000147266
-3.23661e-06
0.000147437
-3.27717e-06
0.000147591
-3.31626e-06
0.000147729
-3.35446e-06
0.000147852
-3.39215e-06
0.000147959
-3.42958e-06
0.000148052
-3.46686e-06
0.000148131
-3.50403e-06
0.000148197
-3.54104e-06
0.00014825
-3.57778e-06
0.00014829
-3.61412e-06
0.000148319
-3.6499e-06
0.000148336
-3.68493e-06
0.000148342
-3.71904e-06
-3.75201e-06
0.000148337
0.000146574
-2.51959e-07
0.000146703
-7.33159e-07
0.000146903
-1.17012e-06
0.00014716
-1.55738e-06
0.000147459
-1.89471e-06
0.000147787
-2.18399e-06
0.000148133
-2.42838e-06
0.000148485
-2.63207e-06
0.000148838
-2.79981e-06
0.000149184
-2.9365e-06
0.000149519
-3.04686e-06
0.00014984
-3.13537e-06
0.000150145
-3.2061e-06
0.000150431
-3.26266e-06
0.000150699
-3.3082e-06
0.000150947
-3.34539e-06
0.000151175
-3.37645e-06
0.000151385
-3.4032e-06
0.000151575
-3.42709e-06
0.000151747
-3.44923e-06
0.000151902
-3.47048e-06
0.000152039
-3.49143e-06
0.000152159
-3.5125e-06
0.000152263
-3.53395e-06
0.000152352
-3.55589e-06
0.000152427
-3.57833e-06
0.000152487
-3.60123e-06
0.000152533
-3.62445e-06
0.000152567
-3.64786e-06
0.000152589
-3.67128e-06
0.000152598
-3.6945e-06
0.000152596
-3.71736e-06
-3.73961e-06
0.000152584
0.000150765
-3.01033e-07
0.000150906
-8.74487e-07
0.000151126
-1.38967e-06
0.000151407
-1.83839e-06
0.000151733
-2.22083e-06
0.000152089
-2.54038e-06
0.000152463
-2.80207e-06
0.000152843
-3.01234e-06
0.000153221
-3.17816e-06
0.000153591
-3.30637e-06
0.000153948
-3.4034e-06
0.000154288
-3.47511e-06
0.000154608
-3.5267e-06
0.000154908
-3.56266e-06
0.000155187
-3.5868e-06
0.000155444
-3.60231e-06
0.000155679
-3.61179e-06
0.000155893
-3.6173e-06
0.000156087
-3.62048e-06
0.00015626
-3.62257e-06
0.000156414
-3.62448e-06
0.000156549
-3.62687e-06
0.000156667
-3.63015e-06
0.000156768
-3.63458e-06
0.000156852
-3.64025e-06
0.000156921
-3.64718e-06
0.000156975
-3.65526e-06
0.000157015
-3.66437e-06
0.000157041
-3.67432e-06
0.000157055
-3.68489e-06
0.000157056
-3.69586e-06
0.000157046
-3.70699e-06
-3.71799e-06
0.000157024
0.000155077
-3.55954e-07
0.000155235
-1.03263e-06
0.000155479
-1.63396e-06
0.00015579
-2.14908e-06
0.000156148
-2.57946e-06
0.000156538
-2.93053e-06
0.000156946
-3.20959e-06
0.000157359
-3.42553e-06
0.000157769
-3.58776e-06
0.000158168
-3.70526e-06
0.000158551
-3.78633e-06
0.000158914
-3.83838e-06
0.000159255
-3.86785e-06
0.000159573
-3.88022e-06
0.000159866
-3.88007e-06
0.000160135
-3.87114e-06
0.000160379
-3.85643e-06
0.0001606
-3.83832e-06
0.000160798
-3.81862e-06
0.000160975
-3.7987e-06
0.00016113
-3.77954e-06
0.000161265
-3.76182e-06
0.00016138
-3.74595e-06
0.000161478
-3.73217e-06
0.000161558
-3.72055e-06
0.000161622
-3.71107e-06
0.000161671
-3.7036e-06
0.000161704
-3.69796e-06
0.000161724
-3.69393e-06
0.00016173
-3.69126e-06
0.000161724
-3.6897e-06
0.000161706
-3.689e-06
-3.68884e-06
0.000161677
0.000159516
-4.20907e-07
0.000159701
-1.21843e-06
0.000159986
-1.91871e-06
0.000160345
-2.50762e-06
0.000160754
-2.98897e-06
0.000161195
-3.37126e-06
0.00016165
-3.66505e-06
0.000162108
-3.88275e-06
0.000162557
-4.03689e-06
0.00016299
-4.13904e-06
0.000163404
-4.19957e-06
0.000163793
-4.2276e-06
0.000164156
-4.23088e-06
0.000164492
-4.21592e-06
0.0001648
-4.18804e-06
0.00016508
-4.15155e-06
0.000165333
-4.10986e-06
0.000165561
-4.06561e-06
0.000165763
-4.02078e-06
0.000165941
-3.97686e-06
0.000166096
-3.93486e-06
0.00016623
-3.89547e-06
0.000166343
-3.8591e-06
0.000166437
-3.82595e-06
0.000166512
-3.79604e-06
0.000166571
-3.76928e-06
0.000166613
-3.74552e-06
0.000166639
-3.7245e-06
0.000166651
-3.70595e-06
0.000166649
-3.68957e-06
0.000166635
-3.67502e-06
0.000166608
-3.66199e-06
-3.65006e-06
0.000166569
0.000164081
-4.95719e-07
0.000164297
-1.43409e-06
0.000164624
-2.24624e-06
0.000165033
-2.91687e-06
0.000165499
-3.45426e-06
0.000165998
-3.87023e-06
0.000166511
-4.17868e-06
0.000167024
-4.39597e-06
0.000167526
-4.53831e-06
0.000168007
-4.62036e-06
0.000168463
-4.65507e-06
0.000168889
-4.65359e-06
0.000169283
-4.6253e-06
0.000169645
-4.57788e-06
0.000169975
-4.51754e-06
0.000170272
-4.4492e-06
0.000170539
-4.3767e-06
0.000170776
-4.30293e-06
0.000170986
-4.23003e-06
0.000171168
-4.15955e-06
0.000171326
-4.09252e-06
0.00017146
-4.0296e-06
0.000171572
-3.97112e-06
0.000171663
-3.91722e-06
0.000171735
-3.86785e-06
0.000171789
-3.82285e-06
0.000171825
-3.78196e-06
0.000171846
-3.74489e-06
0.000171851
-3.71129e-06
0.000171842
-3.68081e-06
0.00017182
-3.65307e-06
0.000171786
-3.62776e-06
-3.60436e-06
0.00017174
0.000168794
-5.97494e-07
0.000169074
-1.715e-06
0.000169488
-2.65985e-06
0.000169989
-3.41778e-06
0.000170543
-4.00816e-06
0.000171123
-4.45028e-06
0.000171709
-4.76429e-06
0.000172285
-4.97228e-06
0.000172841
-5.09466e-06
0.00017337
-5.14922e-06
0.000173866
-5.15143e-06
0.000174327
-5.11442e-06
0.000174751
-5.04906e-06
0.000175137
-4.96418e-06
0.000175487
-4.8668e-06
0.0001758
-4.76244e-06
0.000176078
-4.65533e-06
0.000176324
-4.5486e-06
0.000176539
-4.44455e-06
0.000176724
-4.34476e-06
0.000176882
-4.25025e-06
0.000177014
-4.16162e-06
0.000177122
-4.07914e-06
0.000177207
-4.00283e-06
0.000177272
-3.93254e-06
0.000177317
-3.868e-06
0.000177344
-3.80886e-06
0.000177354
-3.75474e-06
0.000177348
-3.70522e-06
0.000177327
-3.65985e-06
0.000177292
-3.61818e-06
0.000177244
-3.57977e-06
-3.54401e-06
0.000177184
0.000173621
-7.0763e-07
0.000173948
-2.04163e-06
0.000174432
-3.14425e-06
0.000175025
-4.00998e-06
0.000175684
-4.66781e-06
0.000176375
-5.14126e-06
0.000177069
-5.45807e-06
0.000177746
-5.64886e-06
0.000178391
-5.74041e-06
0.000178997
-5.75526e-06
0.000179559
-5.71255e-06
0.000180072
-5.62813e-06
0.000180538
-5.51477e-06
0.000180956
-5.38262e-06
0.000181329
-5.2396e-06
0.000181659
-5.09178e-06
0.000181947
-4.9437e-06
0.000182197
-4.79865e-06
0.000182411
-4.65894e-06
0.000182593
-4.52609e-06
0.000182743
-4.40101e-06
0.000182866
-4.28415e-06
0.000182962
-4.17561e-06
0.000183035
-4.07525e-06
0.000183085
-3.98273e-06
0.000183115
-3.89765e-06
0.000183125
-3.81952e-06
0.000183118
-3.74784e-06
0.000183095
-3.68211e-06
0.000183057
-3.62185e-06
0.000183006
-3.56656e-06
0.000182942
-3.51584e-06
-3.46893e-06
0.000182867
0.00017868
-9.19283e-07
0.000179183
-2.54415e-06
0.000179846
-3.80798e-06
0.000180592
-4.75581e-06
0.000181379
-5.45438e-06
0.000182174
-5.9364e-06
0.000182954
-6.23802e-06
0.000183702
-6.39726e-06
0.000184408
-6.44566e-06
0.000185062
-6.40975e-06
0.000185662
-6.31217e-06
0.000186205
-6.17144e-06
0.000186693
-6.00232e-06
0.000187126
-5.81632e-06
0.000187509
-5.62231e-06
0.000187844
-5.42687e-06
0.000188135
-5.23479e-06
0.000188386
-5.04943e-06
0.0001886
-4.873e-06
0.000188781
-4.70683e-06
0.000188931
-4.55159e-06
0.000189055
-4.40746e-06
0.000189153
-4.27425e-06
0.00018923
-4.15154e-06
0.000189286
-4.03876e-06
0.000189323
-3.93523e-06
0.000189344
-3.84029e-06
0.000189349
-3.75325e-06
0.000189341
-3.6735e-06
0.000189319
-3.60048e-06
0.000189287
-3.53373e-06
0.000189243
-3.47277e-06
-3.41684e-06
0.000189191
0.000183744
-1.0955e-06
0.000184329
-3.12931e-06
0.000185151
-4.63045e-06
0.000186108
-5.71252e-06
0.000187117
-6.46358e-06
0.000188116
-6.93516e-06
0.000189071
-7.19313e-06
0.000189968
-7.29457e-06
0.000190803
-7.27995e-06
0.000191574
-7.181e-06
0.000192285
-7.02321e-06
0.00019294
-6.82618e-06
0.000193542
-6.6049e-06
0.000194097
-6.37074e-06
0.000194607
-6.13221e-06
0.000195075
-5.8956e-06
0.000195506
-5.66539e-06
0.000195901
-5.44468e-06
0.000196264
-5.23548e-06
0.000196596
-5.03893e-06
0.0001969
-4.85551e-06
0.000197177
-4.68523e-06
0.000197431
-4.52772e-06
0.000197662
-4.38237e-06
0.000197871
-4.2484e-06
0.000198061
-4.125e-06
0.000198232
-4.01131e-06
0.000198385
-3.90654e-06
0.000198522
-3.81008e-06
0.000198643
-3.72136e-06
0.000198749
-3.64033e-06
0.000198843
-3.56662e-06
-3.50091e-06
0.000198927
0.000189415