/*--------------------------------*- C++ -*----------------------------------*\
| =========                 |                                                 |
| \\      /  F ield         | OpenFOAM: The Open Source CFD Toolbox           |
|  \\    /   O peration     | Version:  2.1.1                                 |
|   \\  /    A nd           | Web:      www.OpenFOAM.org                      |
|    \\/     M anipulation  |                                                 |
\*---------------------------------------------------------------------------*/
FoamFile
{
    version     2.0;
    format      ascii;
    class       volVectorField;
    location    "0.18";
    object      U;
}
// * * * * * * * * * * * * * * * * * * * * * * * * * * * * * * * * * * * * * //

dimensions      [0 1 -1 0 0 0 0];

internalField   nonuniform List<vector> 
6820
(
(6.37622 0.503655 0)
(4.42543 0.286731 0)
(2.9763 0.0200303 0)
(2.23909 -0.0621537 0)
(1.97582 -0.0602997 0)
(1.8518 -0.0349144 0)
(1.7801 -0.0154924 0)
(1.7316 -0.00509551 0)
(1.69227 -0.000380966 0)
(1.65911 0.00112784 0)
(1.63157 0.00109793 0)
(1.60921 0.00046568 0)
(1.59158 -0.000337389 0)
(1.57821 -0.00112438 0)
(1.56865 -0.00181824 0)
(1.56249 -0.00240192 0)
(1.5595 -0.00284515 0)
(1.55945 -0.00332067 0)
(1.56213 -0.00379518 0)
(1.5675 -0.00420113 0)
(1.57548 -0.00446077 0)
(1.58608 -0.0047384 0)
(1.59942 -0.00507653 0)
(1.61563 -0.00546957 0)
(1.63486 -0.00591307 0)
(1.65734 -0.00640859 0)
(1.68331 -0.00698227 0)
(1.71328 -0.00761454 0)
(1.74711 -0.00847061 0)
(1.78721 -0.00904782 0)
(1.82822 -0.0111926 0)
(1.88978 -0.00594823 0)
(1.90686 -0.039387 0)
(8.72023 0.959314 0)
(8.76572 1.01119 0)
(7.97211 0.677937 0)
(7.062 0.392565 0)
(6.36512 0.200839 0)
(5.86362 0.101405 0)
(5.5073 0.0555584 0)
(5.25233 0.0346602 0)
(5.06384 0.0250251 0)
(4.91968 0.0200147 0)
(4.80651 0.0167736 0)
(4.71602 0.0142423 0)
(4.6429 0.0120199 0)
(4.58363 0.00993662 0)
(4.5358 0.00790777 0)
(4.49768 0.00587434 0)
(4.46802 0.00381057 0)
(4.4459 0.00166834 0)
(4.43063 -0.00057338 0)
(4.42187 -0.00288539 0)
(4.41926 -0.00550113 0)
(4.4225 -0.00823841 0)
(4.43151 -0.0111506 0)
(4.44628 -0.0143123 0)
(4.46687 -0.0177969 0)
(4.49343 -0.0216761 0)
(4.5262 -0.0260564 0)
(4.56556 -0.0309728 0)
(4.61185 -0.0367845 0)
(4.66611 -0.0429987 0)
(4.72824 -0.0519703 0)
(4.80354 -0.0589177 0)
(4.88854 -0.0769788 0)
(8.5861 0.583056 0)
(9.33148 0.761035 0)
(9.61573 0.657938 0)
(9.50807 0.523536 0)
(9.24554 0.393308 0)
(8.93798 0.294799 0)
(8.63815 0.225316 0)
(8.36914 0.175211 0)
(8.13519 0.138477 0)
(7.93401 0.110923 0)
(7.76193 0.0896253 0)
(7.61514 0.0727128 0)
(7.49017 0.0589505 0)
(7.3841 0.0474888 0)
(7.29444 0.0377209 0)
(7.21915 0.0291863 0)
(7.15656 0.0215275 0)
(7.1053 0.0144926 0)
(7.06428 0.00786234 0)
(7.03256 0.00147479 0)
(7.00936 -0.0049688 0)
(6.99432 -0.011513 0)
(6.98723 -0.0182975 0)
(6.98782 -0.0254091 0)
(6.99587 -0.0329494 0)
(7.01129 -0.0410494 0)
(7.03404 -0.0498781 0)
(7.06424 -0.0596 0)
(7.10203 -0.0705584 0)
(7.14781 -0.0828059 0)
(7.20173 -0.0977666 0)
(7.26407 -0.114299 0)
(7.33459 -0.139675 0)
(8.44096 0.379272 0)
(8.94606 0.582709 0)
(9.35874 0.552156 0)
(9.58697 0.483473 0)
(9.70218 0.402309 0)
(9.74016 0.3319 0)
(9.7276 0.278115 0)
(9.68694 0.236617 0)
(9.63109 0.203743 0)
(9.56738 0.176884 0)
(9.50055 0.154168 0)
(9.43375 0.134443 0)
(9.369 0.116984 0)
(9.30774 0.101271 0)
(9.25096 0.0869307 0)
(9.19926 0.0736787 0)
(9.15299 0.0612828 0)
(9.11232 0.0495363 0)
(9.07736 0.0382409 0)
(9.04809 0.0271987 0)
(9.02451 0.0163281 0)
(9.00654 0.00537063 0)
(8.99389 -0.00590066 0)
(8.98649 -0.0175778 0)
(8.98434 -0.0298064 0)
(8.98748 -0.0427515 0)
(8.99596 -0.056615 0)
(9.00985 -0.0716112 0)
(9.02917 -0.0880859 0)
(9.05402 -0.106256 0)
(9.08429 -0.126969 0)
(9.11957 -0.149973 0)
(9.16009 -0.176935 0)
(8.40217 0.279585 0)
(8.71923 0.479223 0)
(8.9995 0.459388 0)
(9.17536 0.400719 0)
(9.3002 0.337421 0)
(9.39402 0.283594 0)
(9.46364 0.243073 0)
(9.51732 0.211856 0)
(9.55998 0.186615 0)
(9.59406 0.165434 0)
(9.62138 0.147039 0)
(9.64337 0.130623 0)
(9.66122 0.115678 0)
(9.67577 0.101847 0)
(9.68769 0.0888465 0)
(9.69766 0.076448 0)
(9.70629 0.0644606 0)
(9.7141 0.0527228 0)
(9.72157 0.0410858 0)
(9.72906 0.0294167 0)
(9.73689 0.0175888 0)
(9.74535 0.00549063 0)
(9.7543 -0.00688409 0)
(9.76391 -0.019748 0)
(9.77427 -0.0332993 0)
(9.78548 -0.0477181 0)
(9.7976 -0.063203 0)
(9.8107 -0.0799647 0)
(9.82473 -0.0982895 0)
(9.83967 -0.118412 0)
(9.85526 -0.140826 0)
(9.87113 -0.165539 0)
(9.88692 -0.193126 0)
(8.3775 0.201639 0)
(8.60162 0.381932 0)
(8.81659 0.387876 0)
(8.94831 0.352309 0)
(9.03498 0.306707 0)
(9.09863 0.261866 0)
(9.14647 0.224548 0)
(9.18576 0.194415 0)
(9.22072 0.169657 0)
(9.25274 0.148921 0)
(9.28243 0.131096 0)
(9.31016 0.115336 0)
(9.33614 0.101067 0)
(9.36058 0.0878981 0)
(9.38368 0.0755281 0)
(9.40556 0.063706 0)
(9.42631 0.0522302 0)
(9.44601 0.0409341 0)
(9.46476 0.0296712 0)
(9.48261 0.0183052 0)
(9.49967 0.00673029 0)
(9.51594 -0.00516172 0)
(9.53188 -0.0174134 0)
(9.54754 -0.0302413 0)
(9.563 -0.0438022 0)
(9.57827 -0.0582452 0)
(9.59334 -0.0737421 0)
(9.60818 -0.0904788 0)
(9.62268 -0.108688 0)
(9.63671 -0.128575 0)
(9.65004 -0.150449 0)
(9.66235 -0.174396 0)
(9.67334 -0.20063 0)
(8.3613 0.148213 0)
(8.52298 0.309559 0)
(8.69822 0.33394 0)
(8.81375 0.313095 0)
(8.88935 0.278501 0)
(8.94365 0.240867 0)
(8.98281 0.207675 0)
(9.01302 0.180115 0)
(9.03869 0.157006 0)
(9.06171 0.137289 0)
(9.08304 0.120103 0)
(9.10327 0.104769 0)
(9.12274 0.0908008 0)
(9.14161 0.077843 0)
(9.16001 0.0656227 0)
(9.178 0.0539238 0)
(9.19566 0.0425667 0)
(9.21301 0.0313944 0)
(9.23009 0.020267 0)
(9.24692 0.00904723 0)
(9.26353 -0.00237214 0)
(9.28001 -0.0141457 0)
(9.29635 -0.0264728 0)
(9.31257 -0.039429 0)
(9.32867 -0.0531256 0)
(9.34465 -0.0676975 0)
(9.36047 -0.083299 0)
(9.37606 -0.100094 0)
(9.39134 -0.118272 0)
(9.40614 -0.138007 0)
(9.42027 -0.159511 0)
(9.43345 -0.182895 0)
(9.44544 -0.208293 0)
(8.35118 0.110719 0)
(8.46765 0.249566 0)
(8.60891 0.283056 0)
(8.71137 0.273444 0)
(8.78215 0.249625 0)
(8.83499 0.220619 0)
(8.87424 0.192842 0)
(8.90442 0.168385 0)
(8.92952 0.146967 0)
(8.95153 0.128092 0)
(8.97152 0.111288 0)
(8.9902 0.0960963 0)
(9.00802 0.0821349 0)
(9.02524 0.0691069 0)
(9.04203 0.0567725 0)
(9.05853 0.044928 0)
(9.07482 0.0333962 0)
(9.09096 0.022021 0)
(9.10702 0.01066 0)
(9.12301 -0.000820206 0)
(9.13897 -0.0125545 0)
(9.15489 -0.024663 0)
(9.17077 -0.0372677 0)
(9.1866 -0.0504573 0)
(9.20235 -0.0643531 0)
(9.21801 -0.0790905 0)
(9.23351 -0.0948105 0)
(9.24878 -0.111657 0)
(9.26371 -0.129783 0)
(9.27815 -0.149331 0)
(9.29191 -0.170445 0)
(9.30471 -0.193228 0)
(9.31636 -0.217734 0)
(8.34489 0.0839835 0)
(8.42961 0.2015 0)
(8.54288 0.239964 0)
(8.63232 0.239135 0)
(8.69723 0.223375 0)
(8.74746 0.200698 0)
(8.78626 0.176939 0)
(8.81685 0.154924 0)
(8.84251 0.135073 0)
(8.86505 0.117223 0)
(8.88546 0.101097 0)
(8.90443 0.0863576 0)
(8.92241 0.0726925 0)
(8.93968 0.0598455 0)
(8.95644 0.0476026 0)
(8.97283 0.0357796 0)
(8.98895 0.0242158 0)
(9.00486 0.0127692 0)
(9.02064 0.00130901 0)
(9.03631 -0.0102874 0)
(9.05189 -0.0221323 0)
(9.0674 -0.03434 0)
(9.08283 -0.0470375 0)
(9.09815 -0.0603353 0)
(9.11335 -0.0743448 0)
(9.12839 -0.0891813 0)
(9.14321 -0.104962 0)
(9.15773 -0.121806 0)
(9.17183 -0.13983 0)
(9.18536 -0.159142 0)
(9.19814 -0.179836 0)
(9.20991 -0.201981 0)
(9.22049 -0.225574 0)
(8.34096 0.0646787 0)
(8.4033 0.162983 0)
(8.49394 0.202557 0)
(8.5713 0.207478 0)
(8.6303 0.197619 0)
(8.67752 0.180282 0)
(8.71529 0.160508 0)
(8.74579 0.141212 0)
(8.77158 0.123185 0)
(8.79431 0.106514 0)
(8.81491 0.0911182 0)
(8.83401 0.0768148 0)
(8.85206 0.0633925 0)
(8.86936 0.0506576 0)
(8.8861 0.038437 0)
(8.90242 0.0265736 0)
(8.91843 0.0149243 0)
(8.93419 0.003358 0)
(8.94975 -0.00824857 0)
(8.96515 -0.02001 0)
(8.98041 -0.0320385 0)
(8.99555 -0.0444452 0)
(9.01055 -0.0573385 0)
(9.02539 -0.070815 0)
(9.04006 -0.0849707 0)
(9.05449 -0.0999055 0)
(9.06863 -0.11572 0)
(9.0824 -0.132509 0)
(9.09566 -0.150364 0)
(9.10829 -0.169361 0)
(9.12012 -0.189553 0)
(9.13089 -0.210975 0)
(9.14048 -0.233578 0)
(8.33847 0.0504629 0)
(8.38494 0.131988 0)
(8.45754 0.170277 0)
(8.52412 0.179036 0)
(8.57749 0.173737 0)
(8.62157 0.160767 0)
(8.65794 0.144369 0)
(8.68799 0.127373 0)
(8.7137 0.110878 0)
(8.73649 0.0952174 0)
(8.7572 0.0804818 0)
(8.7764 0.0666094 0)
(8.79453 0.0534659 0)
(8.81186 0.0409035 0)
(8.82859 0.0287785 0)
(8.84486 0.0169536 0)
(8.86076 0.00529956 0)
(8.87637 -0.00630491 0)
(8.89173 -0.0179728 0)
(8.90688 -0.0298114 0)
(8.92185 -0.0419238 0)
(8.93662 -0.0544096 0)
(8.9512 -0.0673661 0)
(8.96557 -0.0808854 0)
(8.97968 -0.0950569 0)
(8.9935 -0.109968 0)
(9.00695 -0.1257 0)
(9.01994 -0.14233 0)
(9.03238 -0.15992 0)
(9.04413 -0.178518 0)
(9.05503 -0.198144 0)
(9.06488 -0.2188 0)
(9.07356 -0.240407 0)
(8.33688 0.0397821 0)
(8.37201 0.106979 0)
(8.43033 0.142487 0)
(8.48739 0.153382 0)
(8.53539 0.151252 0)
(8.57629 0.141597 0)
(8.61106 0.128012 0)
(8.64048 0.113114 0)
(8.66602 0.0981419 0)
(8.68882 0.0835698 0)
(8.7096 0.0695905 0)
(8.7289 0.0562312 0)
(8.74709 0.0434258 0)
(8.76445 0.0310743 0)
(8.78116 0.0190669 0)
(8.79736 0.00729109 0)
(8.81315 -0.00436381 0)
(8.8286 -0.0160053 0)
(8.84375 -0.0277351 0)
(8.85863 -0.0396513 0)
(8.87327 -0.0518484 0)
(8.88766 -0.064418 0)
(8.90179 -0.0774475 0)
(8.91564 -0.091019 0)
(8.92917 -0.105209 0)
(8.94235 -0.120088 0)
(8.95509 -0.135722 0)
(8.96732 -0.152166 0)
(8.97895 -0.16946 0)
(8.98984 -0.187627 0)
(8.99988 -0.206665 0)
(9.00888 -0.226547 0)
(9.01676 -0.24718 0)
(8.33585 0.0315861 0)
(8.36281 0.086665 0)
(8.40987 0.118541 0)
(8.45867 0.130283 0)
(8.50168 0.130293 0)
(8.53948 0.123176 0)
(8.57249 0.11193 0)
(8.6011 0.0988683 0)
(8.62628 0.0852529 0)
(8.64896 0.071658 0)
(8.66975 0.0583623 0)
(8.68908 0.0454724 0)
(8.70731 0.0329849 0)
(8.72469 0.0208437 0)
(8.74138 0.00896932 0)
(8.75752 -0.00272894 0)
(8.7732 -0.0143461 0)
(8.78849 -0.0259764 0)
(8.80342 -0.0377125 0)
(8.81803 -0.049644 0)
(8.83233 -0.061857 0)
(8.84632 -0.0744335 0)
(8.86 -0.0874513 0)
(8.87333 -0.100982 0)
(8.88628 -0.115092 0)
(8.89881 -0.12984 0)
(8.91086 -0.145277 0)
(8.92234 -0.161441 0)
(8.93318 -0.178356 0)
(8.94326 -0.196026 0)
(8.95249 -0.214431 0)
(8.96071 -0.233525 0)
(8.96787 -0.25321 0)
(8.33515 0.025162 0)
(8.35618 0.0700325 0)
(8.3944 0.097887 0)
(8.43613 0.109507 0)
(8.47456 0.110785 0)
(8.50936 0.105467 0)
(8.54055 0.0960385 0)
(8.56819 0.0845008 0)
(8.5929 0.0720771 0)
(8.61537 0.0593918 0)
(8.63609 0.0467751 0)
(8.65541 0.0343835 0)
(8.67365 0.0222577 0)
(8.69102 0.0103752 0)
(8.70768 -0.0013182 0)
(8.72374 -0.0128935 0)
(8.73929 -0.0244302 0)
(8.7544 -0.0360104 0)
(8.76909 -0.0477162 0)
(8.78341 -0.0596273 0)
(8.79735 -0.0718207 0)
(8.81093 -0.0843694 0)
(8.82413 -0.0973415 0)
(8.83693 -0.110799 0)
(8.8493 -0.124798 0)
(8.86118 -0.139384 0)
(8.87253 -0.154594 0)
(8.88329 -0.170453 0)
(8.89336 -0.186969 0)
(8.90268 -0.204133 0)
(8.91116 -0.221911 0)
(8.91867 -0.24025 0)
(8.92521 -0.25905 0)
(8.33467 0.020022 0)
(8.35134 0.0562797 0)
(8.38264 0.0800133 0)
(8.41839 0.0908005 0)
(8.4527 0.0926509 0)
(8.48466 0.088529 0)
(8.51402 0.0804797 0)
(8.5406 0.0701953 0)
(8.56474 0.0588039 0)
(8.5869 0.0469354 0)
(8.60747 0.0349456 0)
(8.62673 0.0230246 0)
(8.64493 0.0112482 0)
(8.66225 -0.000376247 0)
(8.67884 -0.0118796 0)
(8.6948 -0.0233142 0)
(8.71021 -0.0347448 0)
(8.72512 -0.0462415 0)
(8.73957 -0.0578763 0)
(8.75358 -0.0697201 0)
(8.76717 -0.0818412 0)
(8.78033 -0.094304 0)
(8.79306 -0.107168 0)
(8.80533 -0.120486 0)
(8.81711 -0.134303 0)
(8.82836 -0.148656 0)
(8.83905 -0.16357 0)
(8.8491 -0.179061 0)
(8.85846 -0.195124 0)
(8.86706 -0.211744 0)
(8.87484 -0.228878 0)
(8.88171 -0.24647 0)
(8.88767 -0.264429 0)
(8.33433 0.0158268 0)
(8.34776 0.0447789 0)
(8.37365 0.0644703 0)
(8.4044 0.0739278 0)
(8.43503 0.0757955 0)
(8.46438 0.0723589 0)
(8.49195 0.0652772 0)
(8.51742 0.0559601 0)
(8.5409 0.0454154 0)
(8.56269 0.0342516 0)
(8.58304 0.022831 0)
(8.60218 0.0113616 0)
(8.62031 -5.7991e-05 0)
(8.63756 -0.0113996 0)
(8.65406 -0.0226767 0)
(8.6699 -0.0339273 0)
(8.68515 -0.0452043 0)
(8.69985 -0.0565677 0)
(8.71404 -0.0680804 0)
(8.72774 -0.079805 0)
(8.74095 -0.0918016 0)
(8.75369 -0.104127 0)
(8.76594 -0.116831 0)
(8.77767 -0.129959 0)
(8.78888 -0.143548 0)
(8.79952 -0.157625 0)
(8.80955 -0.172207 0)
(8.81893 -0.187299 0)
(8.82761 -0.202893 0)
(8.83553 -0.218963 0)
(8.84266 -0.235469 0)
(8.84894 -0.252352 0)
(8.85437 -0.269531 0)
(8.33408 0.0123373 0)
(8.34509 0.0350397 0)
(8.36674 0.0508628 0)
(8.39334 0.0586557 0)
(8.42076 0.0601047 0)
(8.44772 0.0569295 0)
(8.47359 0.0504595 0)
(8.49795 0.0418526 0)
(8.52074 0.0319849 0)
(8.5421 0.02142 0)
(8.56219 0.0105089 0)
(8.58117 -0.000537409 0)
(8.59918 -0.0116084 0)
(8.61633 -0.0226619 0)
(8.63272 -0.0336977 0)
(8.64842 -0.0447423 0)
(8.66349 -0.0558376 0)
(8.67797 -0.0670343 0)
(8.69188 -0.0783868 0)
(8.70526 -0.0899498 0)
(8.7181 -0.101776 0)
(8.73041 -0.113914 0)
(8.74218 -0.126407 0)
(8.7534 -0.139293 0)
(8.76404 -0.152601 0)
(8.77408 -0.166351 0)
(8.78349 -0.180553 0)
(8.79222 -0.195207 0)
(8.80026 -0.210299 0)
(8.80755 -0.225803 0)
(8.81407 -0.241677 0)
(8.81978 -0.257869 0)
(8.82471 -0.274308 0)
(8.3339 0.00938052 0)
(8.34307 0.0266781 0)
(8.36141 0.0388482 0)
(8.3846 0.0447622 0)
(8.40924 0.0454557 0)
(8.43406 0.0421934 0)
(8.45837 0.0360246 0)
(8.48165 0.0278878 0)
(8.50372 0.0185265 0)
(8.52463 0.00844644 0)
(8.54443 -0.00202507 0)
(8.56322 -0.0126836 0)
(8.58109 -0.0234152 0)
(8.59811 -0.03417 0)
(8.61437 -0.0449395 0)
(8.62991 -0.0557417 0)
(8.64479 -0.066611 0)
(8.65904 -0.0775909 0)
(8.67268 -0.0887291 0)
(8.68573 -0.100074 0)
(8.69819 -0.111671 0)
(8.71008 -0.123563 0)
(8.72138 -0.135788 0)
(8.73208 -0.148376 0)
(8.74217 -0.161351 0)
(8.75163 -0.174727 0)
(8.76043 -0.188509 0)
(8.76855 -0.202694 0)
(8.77597 -0.217264 0)
(8.78266 -0.232194 0)
(8.7886 -0.247445 0)
(8.79377 -0.26297 0)
(8.79821 -0.278711 0)
(8.33376 0.00682932 0)
(8.34154 0.0193919 0)
(8.3573 0.0281313 0)
(8.3777 0.032037 0)
(8.39998 0.0317174 0)
(8.42293 0.0280833 0)
(8.44581 0.0219497 0)
(8.46808 0.0140677 0)
(8.48947 0.00505517 0)
(8.50991 -0.00464771 0)
(8.52941 -0.0147468 0)
(8.54799 -0.0250535 0)
(8.5657 -0.0354588 0)
(8.58259 -0.0459117 0)
(8.5987 -0.0563998 0)
(8.61408 -0.0669362 0)
(8.62876 -0.0775498 0)
(8.64276 -0.0882785 0)
(8.65612 -0.0991642 0)
(8.66884 -0.11025 0)
(8.68094 -0.121575 0)
(8.6924 -0.133178 0)
(8.70324 -0.145089 0)
(8.71344 -0.157335 0)
(8.723 -0.169934 0)
(8.73189 -0.182897 0)
(8.74012 -0.196224 0)
(8.74765 -0.20991 0)
(8.75447 -0.223938 0)
(8.76058 -0.238282 0)
(8.76597 -0.25291 0)
(8.77062 -0.26778 0)
(8.77458 -0.282844 0)
(8.33366 0.00458728 0)
(8.34037 0.0129403 0)
(8.35412 0.0184561 0)
(8.37229 0.0202813 0)
(8.39259 0.0187533 0)
(8.41392 0.014516 0)
(8.43555 0.00819328 0)
(8.4569 0.000376663 0)
(8.47765 -0.0084308 0)
(8.49766 -0.0178575 0)
(8.51686 -0.027648 0)
(8.53522 -0.037636 0)
(8.55277 -0.0477234 0)
(8.56951 -0.0578632 0)
(8.58547 -0.0680435 0)
(8.60067 -0.0782759 0)
(8.61515 -0.0885866 0)
(8.62892 -0.0990101 0)
(8.64199 -0.109585 0)
(8.65439 -0.120349 0)
(8.66611 -0.131339 0)
(8.67716 -0.142589 0)
(8.68754 -0.154125 0)
(8.69726 -0.16597 0)
(8.7063 -0.178138 0)
(8.71465 -0.190637 0)
(8.72231 -0.203467 0)
(8.72928 -0.21662 0)
(8.73554 -0.23008 0)
(8.74109 -0.243825 0)
(8.74594 -0.257825 0)
(8.75008 -0.272046 0)
(8.75355 -0.28645 0)
(8.33358 0.00257993 0)
(8.33948 0.00712985 0)
(8.35168 0.00960202 0)
(8.36807 0.00930829 0)
(8.38676 0.0064233 0)
(8.40674 0.00139462 0)
(8.4273 -0.00530822 0)
(8.44785 -0.0132269 0)
(8.46804 -0.0219618 0)
(8.48765 -0.0312094 0)
(8.50658 -0.0407574 0)
(8.52475 -0.0504667 0)
(8.54214 -0.0602554 0)
(8.55874 -0.0700854 0)
(8.57455 -0.0799492 0)
(8.58959 -0.0898597 0)
(8.60387 -0.0998427 0)
(8.61741 -0.109931 0)
(8.6302 -0.120161 0)
(8.64228 -0.130568 0)
(8.65364 -0.141186 0)
(8.66429 -0.152044 0)
(8.67423 -0.163166 0)
(8.68347 -0.174572 0)
(8.692 -0.186273 0)
(8.69983 -0.198276 0)
(8.70696 -0.210578 0)
(8.71337 -0.223173 0)
(8.71908 -0.236045 0)
(8.72409 -0.249176 0)
(8.72841 -0.26254 0)
(8.73204 -0.27611 0)
(8.73503 -0.289853 0)
(8.33352 0.000744841 0)
(8.33882 0.00179743 0)
(8.34984 0.00137204 0)
(8.36485 -0.00106111 0)
(8.38225 -0.0054178 0)
(8.40115 -0.0113897 0)
(8.42083 -0.0186291 0)
(8.44072 -0.0267879 0)
(8.46044 -0.0355578 0)
(8.47972 -0.0447006 0)
(8.49842 -0.0540488 0)
(8.51642 -0.063494 0)
(8.53368 -0.0729751 0)
(8.55015 -0.0824672 0)
(8.56583 -0.0919712 0)
(8.58071 -0.101505 0)
(8.59479 -0.111097 0)
(8.6081 -0.120782 0)
(8.62062 -0.130595 0)
(8.63239 -0.14057 0)
(8.64339 -0.150741 0)
(8.65365 -0.161135 0)
(8.66317 -0.171773 0)
(8.67195 -0.182674 0)
(8.68 -0.193848 0)
(8.68732 -0.205299 0)
(8.69392 -0.217027 0)
(8.69981 -0.229023 0)
(8.70499 -0.241276 0)
(8.70948 -0.253769 0)
(8.71328 -0.26648 0)
(8.71641 -0.279388 0)
(8.71891 -0.292466 0)
(8.33348 -0.000964657 0)
(8.33834 -0.00319123 0)
(8.34849 -0.00640875 0)
(8.36248 -0.0109994 0)
(8.37891 -0.0169228 0)
(8.39697 -0.023967 0)
(8.41599 -0.0318804 0)
(8.43538 -0.0404076 0)
(8.45475 -0.0493214 0)
(8.4738 -0.058446 0)
(8.49233 -0.0676596 0)
(8.51023 -0.0768868 0)
(8.52739 -0.0860902 0)
(8.54377 -0.0952608 0)
(8.55934 -0.10441 0)
(8.57409 -0.113564 0)
(8.58801 -0.122755 0)
(8.6011 -0.132019 0)
(8.61337 -0.141393 0)
(8.62484 -0.150912 0)
(8.6355 -0.160608 0)
(8.64538 -0.170506 0)
(8.65448 -0.18063 0)
(8.66282 -0.190994 0)
(8.6704 -0.201608 0)
(8.67723 -0.212478 0)
(8.68333 -0.223602 0)
(8.68871 -0.234973 0)
(8.69337 -0.246581 0)
(8.69733 -0.258413 0)
(8.70062 -0.270451 0)
(8.70325 -0.282676 0)
(8.70525 -0.295068 0)
(8.33345 -0.00259248 0)
(8.338 -0.00795769 0)
(8.34756 -0.0139035 0)
(8.36083 -0.0206747 0)
(8.37659 -0.0282429 0)
(8.39407 -0.0364601 0)
(8.41264 -0.0451479 0)
(8.43171 -0.0541266 0)
(8.45086 -0.0632401 0)
(8.46977 -0.0723713 0)
(8.48823 -0.0814453 0)
(8.50607 -0.0904231 0)
(8.52318 -0.0992949 0)
(8.53951 -0.108073 0)
(8.555 -0.116784 0)
(8.56963 -0.125465 0)
(8.58339 -0.134156 0)
(8.59629 -0.142899 0)
(8.60832 -0.151735 0)
(8.61951 -0.1607 0)
(8.62985 -0.169826 0)
(8.63937 -0.179141 0)
(8.64808 -0.188667 0)
(8.65599 -0.198418 0)
(8.66312 -0.208405 0)
(8.66948 -0.218632 0)
(8.6751 -0.229098 0)
(8.67998 -0.239799 0)
(8.68414 -0.250725 0)
(8.6876 -0.261865 0)
(8.69039 -0.273204 0)
(8.69252 -0.284728 0)
(8.69404 -0.296417 0)
(8.33343 -0.00418214 0)
(8.3378 -0.012618 0)
(8.34701 -0.0212739 0)
(8.35986 -0.0302684 0)
(8.37523 -0.039567 0)
(8.39241 -0.0490657 0)
(8.41077 -0.0586447 0)
(8.42973 -0.068191 0)
(8.44884 -0.0776127 0)
(8.46777 -0.0868485 0)
(8.48626 -0.0958684 0)
(8.50415 -0.104669 0)
(8.52131 -0.113269 0)
(8.53764 -0.121702 0)
(8.55311 -0.13001 0)
(8.56767 -0.138243 0)
(8.58132 -0.146448 0)
(8.59405 -0.154676 0)
(8.60587 -0.162969 0)
(8.61679 -0.171369 0)
(8.62683 -0.17991 0)
(8.636 -0.18862 0)
(8.64432 -0.197521 0)
(8.65182 -0.20663 0)
(8.65851 -0.215958 0)
(8.66442 -0.225509 0)
(8.66955 -0.235284 0)
(8.67394 -0.245279 0)
(8.67761 -0.255488 0)
(8.68058 -0.265899 0)
(8.68286 -0.276502 0)
(8.68449 -0.287283 0)
(8.68551 -0.298227 0)
(8.33342 -0.00577021 0)
(8.33773 -0.0172798 0)
(8.3468 -0.0286737 0)
(8.35951 -0.0399457 0)
(8.37478 -0.0510386 0)
(8.39192 -0.0618724 0)
(8.41031 -0.0723719 0)
(8.42934 -0.082481 0)
(8.44857 -0.0921688 0)
(8.46764 -0.101431 0)
(8.48628 -0.110289 0)
(8.5043 -0.118782 0)
(8.52156 -0.126963 0)
(8.53796 -0.134894 0)
(8.55345 -0.142639 0)
(8.56798 -0.150264 0)
(8.58155 -0.157829 0)
(8.59415 -0.165393 0)
(8.60578 -0.173006 0)
(8.61647 -0.180713 0)
(8.62623 -0.18855 0)
(8.63509 -0.196547 0)
(8.64306 -0.204729 0)
(8.65017 -0.213111 0)
(8.65645 -0.221706 0)
(8.66192 -0.230518 0)
(8.66661 -0.239548 0)
(8.67054 -0.248793 0)
(8.67373 -0.258248 0)
(8.67622 -0.267902 0)
(8.67803 -0.277747 0)
(8.67918 -0.28777 0)
(8.67972 -0.297957 0)
(8.33343 -0.00739828 0)
(8.33777 -0.0220647 0)
(8.34694 -0.0362915 0)
(8.35982 -0.0499547 0)
(8.37531 -0.0629758 0)
(8.39275 -0.0752974 0)
(8.41147 -0.0868852 0)
(8.43088 -0.0977348 0)
(8.45048 -0.107869 0)
(8.46992 -0.117334 0)
(8.48889 -0.126195 0)
(8.5072 -0.134527 0)
(8.52468 -0.142417 0)
(8.54125 -0.149952 0)
(8.55683 -0.157217 0)
(8.57139 -0.164297 0)
(8.58492 -0.171265 0)
(8.59742 -0.17819 0)
(8.60889 -0.185131 0)
(8.61936 -0.19214 0)
(8.62885 -0.199257 0)
(8.6374 -0.206518 0)
(8.64502 -0.213947 0)
(8.65174 -0.221564 0)
(8.65761 -0.229381 0)
(8.66265 -0.237406 0)
(8.66688 -0.24564 0)
(8.67035 -0.254081 0)
(8.67307 -0.262725 0)
(8.67508 -0.271564 0)
(8.67641 -0.280587 0)
(8.67707 -0.289785 0)
(8.67711 -0.299142 0)
(8.33344 -0.00911075 0)
(8.33794 -0.0270924 0)
(8.34744 -0.0442799 0)
(8.36075 -0.0604123 0)
(8.37675 -0.0753735 0)
(8.39474 -0.0891173 0)
(8.41404 -0.10165 0)
(8.43402 -0.113028 0)
(8.45418 -0.123345 0)
(8.47413 -0.132716 0)
(8.49357 -0.141266 0)
(8.51228 -0.149124 0)
(8.5301 -0.156418 0)
(8.54693 -0.163269 0)
(8.56269 -0.16979 0)
(8.57736 -0.176082 0)
(8.59092 -0.182235 0)
(8.60338 -0.188328 0)
(8.61475 -0.194428 0)
(8.62506 -0.20059 0)
(8.63433 -0.20686 0)
(8.64261 -0.213273 0)
(8.64992 -0.219857 0)
(8.65631 -0.226631 0)
(8.6618 -0.233608 0)
(8.66644 -0.240795 0)
(8.67026 -0.248195 0)
(8.6733 -0.255806 0)
(8.67558 -0.263622 0)
(8.67714 -0.271637 0)
(8.67802 -0.27984 0)
(8.67824 -0.288222 0)
(8.67784 -0.296768 0)
(8.33347 -0.0109641 0)
(8.33828 -0.0325458 0)
(8.34842 -0.0529759 0)
(8.36259 -0.0718751 0)
(8.37958 -0.0891135 0)
(8.39861 -0.104663 0)
(8.41896 -0.118557 0)
(8.43994 -0.130892 0)
(8.46103 -0.141807 0)
(8.48179 -0.151463 0)
(8.50194 -0.160034 0)
(8.52124 -0.167693 0)
(8.53953 -0.174609 0)
(8.55671 -0.18094 0)
(8.57272 -0.186829 0)
(8.58753 -0.192404 0)
(8.60114 -0.197777 0)
(8.61357 -0.203043 0)
(8.62483 -0.208281 0)
(8.63496 -0.213558 0)
(8.64401 -0.218927 0)
(8.65201 -0.224428 0)
(8.659 -0.230093 0)
(8.66503 -0.235944 0)
(8.67014 -0.241996 0)
(8.67437 -0.248257 0)
(8.67776 -0.25473 0)
(8.68035 -0.261414 0)
(8.68218 -0.268304 0)
(8.68328 -0.275393 0)
(8.68369 -0.28267 0)
(8.68344 -0.290124 0)
(8.68256 -0.29774 0)
(8.33351 -0.0130183 0)
(8.33875 -0.0385409 0)
(8.34975 -0.062387 0)
(8.36505 -0.0839937 0)
(8.38326 -0.103211 0)
(8.40356 -0.120063 0)
(8.42518 -0.134675 0)
(8.44739 -0.147253 0)
(8.46962 -0.158044 0)
(8.49144 -0.167301 0)
(8.51252 -0.175269 0)
(8.53262 -0.182181 0)
(8.55159 -0.188248 0)
(8.56932 -0.19366 0)
(8.58575 -0.198587 0)
(8.60087 -0.203172 0)
(8.61467 -0.207541 0)
(8.62718 -0.211798 0)
(8.63845 -0.216029 0)
(8.6485 -0.220306 0)
(8.6574 -0.224683 0)
(8.66518 -0.229205 0)
(8.67191 -0.233903 0)
(8.67764 -0.2388 0)
(8.68242 -0.243911 0)
(8.68629 -0.249245 0)
(8.6893 -0.254803 0)
(8.69149 -0.260585 0)
(8.69291 -0.266585 0)
(8.69361 -0.272795 0)
(8.69361 -0.279204 0)
(8.69295 -0.285801 0)
(8.69169 -0.292568 0)
(8.33359 -0.0153862 0)
(8.3396 -0.0455432 0)
(8.35214 -0.0735902 0)
(8.3694 -0.0988381 0)
(8.38975 -0.121123 0)
(8.41217 -0.140444 0)
(8.43579 -0.156907 0)
(8.4598 -0.170744 0)
(8.4836 -0.18226 0)
(8.50676 -0.191779 0)
(8.52896 -0.199625 0)
(8.54997 -0.206106 0)
(8.56966 -0.211505 0)
(8.58794 -0.216073 0)
(8.60477 -0.220028 0)
(8.62015 -0.223554 0)
(8.6341 -0.226809 0)
(8.64665 -0.229918 0)
(8.65787 -0.232986 0)
(8.6678 -0.236096 0)
(8.6765 -0.239309 0)
(8.68404 -0.242675 0)
(8.69048 -0.246229 0)
(8.69588 -0.249994 0)
(8.7003 -0.253986 0)
(8.70378 -0.258213 0)
(8.70639 -0.262678 0)
(8.70817 -0.267377 0)
(8.70917 -0.272304 0)
(8.70944 -0.277451 0)
(8.709 -0.282804 0)
(8.70791 -0.288351 0)
(8.70619 -0.294071 0)
(8.33365 -0.0181302 0)
(8.34041 -0.0533339 0)
(8.35453 -0.0852789 0)
(8.37378 -0.113107 0)
(8.39629 -0.136871 0)
(8.42101 -0.15684 0)
(8.44696 -0.173362 0)
(8.47323 -0.186862 0)
(8.49914 -0.197776 0)
(8.52421 -0.206512 0)
(8.54808 -0.213448 0)
(8.57052 -0.218929 0)
(8.59139 -0.223263 0)
(8.61062 -0.22672 0)
(8.6282 -0.229532 0)
(8.64413 -0.231899 0)
(8.65846 -0.233985 0)
(8.67126 -0.235929 0)
(8.6826 -0.237842 0)
(8.69254 -0.239811 0)
(8.70118 -0.241904 0)
(8.70858 -0.244174 0)
(8.71482 -0.246657 0)
(8.71997 -0.249378 0)
(8.7241 -0.252352 0)
(8.72728 -0.255588 0)
(8.72956 -0.259087 0)
(8.73099 -0.262846 0)
(8.73164 -0.266856 0)
(8.73154 -0.271109 0)
(8.73076 -0.275589 0)
(8.72932 -0.280284 0)
(8.72729 -0.285169 0)
(8.3339 -0.0216304 0)
(8.34267 -0.0639695 0)
(8.36034 -0.10261 0)
(8.38368 -0.136364 0)
(8.4101 -0.165037 0)
(8.43836 -0.18868 0)
(8.46739 -0.207615 0)
(8.49626 -0.222413 0)
(8.52436 -0.233711 0)
(8.55125 -0.242118 0)
(8.57663 -0.248201 0)
(8.60032 -0.252466 0)
(8.62219 -0.255346 0)
(8.64221 -0.257207 0)
(8.66038 -0.258351 0)
(8.67674 -0.259025 0)
(8.69135 -0.259427 0)
(8.70429 -0.259714 0)
(8.71564 -0.260006 0)
(8.7255 -0.260399 0)
(8.73395 -0.26096 0)
(8.74109 -0.261739 0)
(8.74701 -0.262772 0)
(8.75178 -0.264079 0)
(8.75548 -0.265673 0)
(8.75818 -0.267559 0)
(8.75995 -0.269734 0)
(8.76085 -0.272193 0)
(8.76093 -0.274927 0)
(8.76025 -0.277924 0)
(8.75887 -0.281169 0)
(8.75681 -0.284646 0)
(8.75414 -0.288325 0)
(8.33386 -0.0256277 0)
(8.34345 -0.0740244 0)
(8.36352 -0.115556 0)
(8.39024 -0.149993 0)
(8.42072 -0.178423 0)
(8.45348 -0.201517 0)
(8.48706 -0.219833 0)
(8.5202 -0.234015 0)
(8.5521 -0.244681 0)
(8.58226 -0.252391 0)
(8.61035 -0.257675 0)
(8.63619 -0.261019 0)
(8.65973 -0.262857 0)
(8.68096 -0.263569 0)
(8.69995 -0.263479 0)
(8.71679 -0.26286 0)
(8.73161 -0.261937 0)
(8.74451 -0.260888 0)
(8.75564 -0.259856 0)
(8.76512 -0.258948 0)
(8.77308 -0.258244 0)
(8.77962 -0.257801 0)
(8.78486 -0.257657 0)
(8.7889 -0.257834 0)
(8.79183 -0.258343 0)
(8.79373 -0.259187 0)
(8.79468 -0.260362 0)
(8.79476 -0.26186 0)
(8.79403 -0.263671 0)
(8.79255 -0.26578 0)
(8.79039 -0.268171 0)
(8.7876 -0.27083 0)
(8.78426 -0.273715 0)
(8.33496 -0.0324331 0)
(8.35113 -0.0960267 0)
(8.37983 -0.151674 0)
(8.41394 -0.197284 0)
(8.45004 -0.233229 0)
(8.4872 -0.260331 0)
(8.52426 -0.279911 0)
(8.56014 -0.293448 0)
(8.59419 -0.302217 0)
(8.62602 -0.307282 0)
(8.65535 -0.30954 0)
(8.68206 -0.309719 0)
(8.70613 -0.308401 0)
(8.72762 -0.30605 0)
(8.74666 -0.303034 0)
(8.76339 -0.299639 0)
(8.77798 -0.29609 0)
(8.7906 -0.292559 0)
(8.80142 -0.289176 0)
(8.8106 -0.286035 0)
(8.81831 -0.283205 0)
(8.82468 -0.280729 0)
(8.82984 -0.278635 0)
(8.8339 -0.276936 0)
(8.83697 -0.275635 0)
(8.83914 -0.274729 0)
(8.84049 -0.27421 0)
(8.84109 -0.274066 0)
(8.841 -0.274287 0)
(8.84029 -0.274862 0)
(8.83901 -0.275778 0)
(8.83723 -0.277025 0)
(8.83499 -0.27856 0)
(8.33401 -0.0373465 0)
(8.34968 -0.101985 0)
(8.3832 -0.15286 0)
(8.42537 -0.194729 0)
(8.4707 -0.229581 0)
(8.51677 -0.257149 0)
(8.56148 -0.277876 0)
(8.60366 -0.292649 0)
(8.643 -0.302312 0)
(8.67945 -0.307732 0)
(8.71308 -0.309788 0)
(8.74405 -0.309288 0)
(8.77255 -0.306933 0)
(8.79878 -0.303314 0)
(8.82291 -0.298912 0)
(8.8451 -0.294107 0)
(8.86549 -0.289191 0)
(8.88421 -0.28438 0)
(8.90139 -0.279833 0)
(8.91713 -0.275657 0)
(8.93155 -0.271922 0)
(8.94474 -0.268668 0)
(8.95678 -0.265913 0)
(8.96776 -0.263655 0)
(8.97775 -0.261885 0)
(8.98681 -0.260582 0)
(8.99499 -0.259727 0)
(9.00234 -0.259296 0)
(9.00891 -0.259273 0)
(9.01475 -0.259643 0)
(9.0199 -0.260406 0)
(9.02443 -0.26156 0)
(9.02844 -0.263085 0)
(8.33957 -0.0613573 0)
(8.3768 -0.172382 0)
(8.42552 -0.252546 0)
(8.47462 -0.307481 0)
(8.52623 -0.344327 0)
(8.58195 -0.3675 0)
(8.64027 -0.381125 0)
(8.69993 -0.388305 0)
(8.76003 -0.390998 0)
(8.8195 -0.39052 0)
(8.87732 -0.387801 0)
(8.93274 -0.383491 0)
(8.98517 -0.378066 0)
(9.03424 -0.371892 0)
(9.07973 -0.365258 0)
(9.12154 -0.358405 0)
(9.15971 -0.351527 0)
(9.19432 -0.344784 0)
(9.22554 -0.338302 0)
(9.25355 -0.332176 0)
(9.27855 -0.326473 0)
(9.30076 -0.321236 0)
(9.32037 -0.316487 0)
(9.33759 -0.312233 0)
(9.35259 -0.308466 0)
(9.36553 -0.305171 0)
(9.37656 -0.302328 0)
(9.38581 -0.299918 0)
(9.39338 -0.297935 0)
(9.39935 -0.296375 0)
(9.40386 -0.295298 0)
(9.40694 -0.294706 0)
(9.40882 -0.294833 0)
(8.33755 -0.0471968 0)
(8.39321 -0.123044 0)
(8.49314 -0.188673 0)
(8.60764 -0.252377 0)
(8.72926 -0.307661 0)
(8.85246 -0.351338 0)
(8.97026 -0.384094 0)
(9.07844 -0.406777 0)
(9.17468 -0.420489 0)
(9.25766 -0.426773 0)
(9.32704 -0.427214 0)
(9.38317 -0.423239 0)
(9.42687 -0.416082 0)
(9.4592 -0.406767 0)
(9.48135 -0.396115 0)
(9.49456 -0.384768 0)
(9.49998 -0.373214 0)
(9.49873 -0.361814 0)
(9.49177 -0.350821 0)
(9.47999 -0.340408 0)
(9.46413 -0.330678 0)
(9.44486 -0.321685 0)
(9.42274 -0.313444 0)
(9.39823 -0.30594 0)
(9.37174 -0.299134 0)
(9.3436 -0.292975 0)
(9.31406 -0.287399 0)
(9.28333 -0.282344 0)
(9.25158 -0.277754 0)
(9.21885 -0.273585 0)
(9.18531 -0.269916 0)
(9.15062 -0.266665 0)
(9.11561 -0.265001 0)
(8.40932 -0.22207 0)
(8.63513 -0.430603 0)
(8.83293 -0.5265 0)
(8.97564 -0.588871 0)
(9.06747 -0.62349 0)
(9.10728 -0.635929 0)
(9.09928 -0.63372 0)
(9.05282 -0.620892 0)
(8.97673 -0.600248 0)
(8.87846 -0.574331 0)
(8.76452 -0.545184 0)
(8.64028 -0.514386 0)
(8.51 -0.483162 0)
(8.37691 -0.452435 0)
(8.24346 -0.422862 0)
(8.11141 -0.39488 0)
(7.98199 -0.368758 0)
(7.85602 -0.34463 0)
(7.73402 -0.322534 0)
(7.61626 -0.302437 0)
(7.50286 -0.284257 0)
(7.39381 -0.267881 0)
(7.28903 -0.253176 0)
(7.18838 -0.239995 0)
(7.09168 -0.228184 0)
(6.99874 -0.217589 0)
(6.90938 -0.208042 0)
(6.82336 -0.199384 0)
(6.74046 -0.191412 0)
(6.66034 -0.183947 0)
(6.58263 -0.176842 0)
(6.50639 -0.169125 0)
(6.43187 -0.164797 0)
(8.13688 -0.207644 0)
(7.84629 -0.389338 0)
(7.38158 -0.441373 0)
(6.85269 -0.442558 0)
(6.3487 -0.41168 0)
(5.87254 -0.363049 0)
(5.42688 -0.308963 0)
(5.01917 -0.255834 0)
(4.65057 -0.206902 0)
(4.31917 -0.163803 0)
(4.02266 -0.126995 0)
(3.75828 -0.0962681 0)
(3.52288 -0.0710879 0)
(3.31336 -0.0507674 0)
(3.12676 -0.034583 0)
(2.96032 -0.0218493 0)
(2.81153 -0.0119539 0)
(2.67813 -0.00436823 0)
(2.55813 0.00135313 0)
(2.44974 0.00557903 0)
(2.35144 0.00861203 0)
(2.26188 0.0106987 0)
(2.1799 0.0120406 0)
(2.1045 0.0128021 0)
(2.03482 0.0131241 0)
(1.97016 0.0131265 0)
(1.90987 0.0129441 0)
(1.85358 0.0127043 0)
(1.80069 0.0126689 0)
(1.75155 0.0131542 0)
(1.70494 0.0146539 0)
(1.66375 0.0198643 0)
(1.62464 0.0150872 0)
(2.12437 -0.0459694 0)
(2.47462 0.000942639 0)
(2.88154 -0.00364143 0)
(3.28035 -0.0983977 0)
(3.63534 -0.257461 0)