/*--------------------------------*- C++ -*----------------------------------*\
| =========                 |                                                 |
| \\      /  F ield         | OpenFOAM: The Open Source CFD Toolbox           |
|  \\    /   O peration     | Version:  2.1.1                                 |
|   \\  /    A nd           | Web:      www.OpenFOAM.org                      |
|    \\/     M anipulation  |                                                 |
\*---------------------------------------------------------------------------*/
FoamFile
{
    version     2.0;
    format      ascii;
    class       volScalarField;
    location    "0.08";
    object      nuSgs;
}
// * * * * * * * * * * * * * * * * * * * * * * * * * * * * * * * * * * * * * //

dimensions      [0 2 -1 0 0 0 0];

internalField   nonuniform List<scalar> 
6820
(
0.000556015
0.000457429
0.000368195
0.000306214
0.000269047
0.000243448
0.000224605
0.000210187
0.000198536
0.000188744
0.000180298
0.000172869
0.000166238
0.000160251
0.000154798
0.000149797
0.000145186
0.000140919
0.000136958
0.000133278
0.000129855
0.000126674
0.000123726
0.000121005
0.000118506
0.000116225
0.000114163
0.00011233
0.000110723
0.000109373
0.000108269
0.000107259
0.000106764
0.000103491
0.000170649
0.000223635
0.000240015
0.000235277
0.000224931
0.000213247
0.000201967
0.000191729
0.000182551
0.000174312
0.000166881
0.000160132
0.000153965
0.000148296
0.000143055
0.000138186
0.000133642
0.000129384
0.000125378
0.000121594
0.000118012
0.000114614
0.000111378
0.000108292
0.00010535
0.000102544
9.98639e-05
9.73261e-05
9.48868e-05
9.27349e-05
9.05265e-05
9.02077e-05
3.67767e-05
2.84858e-05
4.55921e-05
8.22562e-05
0.000107898
0.000123511
0.000131971
0.000135865
0.000137014
0.000136487
0.000134921
0.000132711
0.000130105
0.000127265
0.000124299
0.000121275
0.000118242
0.00011523
0.00011226
0.000109344
0.00010649
0.000103703
0.000100982
9.83245e-05
9.57282e-05
9.31952e-05
9.0715e-05
8.82847e-05
8.59109e-05
8.35801e-05
8.13376e-05
7.90713e-05
7.71163e-05
2.07373e-05
2.86928e-05
2.65765e-05
1.51187e-05
3.68272e-06
1.38106e-05
2.56458e-05
3.54953e-05
4.34595e-05
4.98109e-05
5.48218e-05
5.8733e-05
6.1743e-05
6.40059e-05
6.56524e-05
6.67899e-05
6.75063e-05
6.78734e-05
6.79499e-05
6.77839e-05
6.7414e-05
6.68715e-05
6.61807e-05
6.53642e-05
6.44377e-05
6.34083e-05
6.2284e-05
6.10632e-05
5.97503e-05
5.83421e-05
5.68566e-05
5.52551e-05
5.36351e-05
1.44186e-05
1.75963e-05
2.26138e-05
2.4306e-05
2.39817e-05
2.20127e-05
1.91355e-05
1.58854e-05
1.24919e-05
9.10263e-06
5.82614e-06
2.75644e-06
8.30401e-07
3.08946e-06
5.51681e-06
7.73879e-06
9.73962e-06
1.15232e-05
1.30983e-05
1.44754e-05
1.56651e-05
1.66775e-05
1.75217e-05
1.82058e-05
1.87362e-05
1.91168e-05
1.93561e-05
1.94578e-05
1.94193e-05
1.92341e-05
1.89001e-05
1.83786e-05
1.76451e-05
1.09171e-05
1.25116e-05
1.38387e-05
1.4341e-05
1.51157e-05
1.57458e-05
1.6118e-05
1.63259e-05
1.6373e-05
1.62635e-05
1.60202e-05
1.56654e-05
1.52213e-05
1.4702e-05
1.41259e-05
1.35103e-05
1.28709e-05
1.22215e-05
1.15738e-05
1.09379e-05
1.03225e-05
9.73516e-06
9.18272e-06
8.67081e-06
8.20488e-06
7.78896e-06
7.42729e-06
7.1202e-06
6.87079e-06
6.69094e-06
6.59156e-06
6.60812e-06
6.77554e-06
8.23972e-06
9.44236e-06
1.02689e-05
1.00663e-05
9.87226e-06
9.68809e-06
9.49842e-06
9.407e-06
9.40378e-06
9.44522e-06
9.50482e-06
9.565e-06
9.61454e-06
9.65115e-06
9.67236e-06
9.67699e-06
9.66513e-06
9.63777e-06
9.59646e-06
9.54307e-06
9.47969e-06
9.40858e-06
9.332e-06
9.25235e-06
9.17133e-06
9.09348e-06
9.02077e-06
8.96186e-06
8.92081e-06
8.90676e-06
8.92829e-06
9.00796e-06
9.17371e-06
6.35408e-06
7.42319e-06
8.24003e-06
8.10503e-06
7.79314e-06
7.45101e-06
7.0711e-06
6.74561e-06
6.49385e-06
6.2954e-06
6.13781e-06
6.0124e-06
5.91062e-06
5.8262e-06
5.75522e-06
5.69494e-06
5.64323e-06
5.59852e-06
5.55972e-06
5.52615e-06
5.49741e-06
5.47343e-06
5.4544e-06
5.44064e-06
5.43331e-06
5.43366e-06
5.44507e-06
5.46963e-06
5.51039e-06
5.57414e-06
5.66806e-06
5.80419e-06
6.00306e-06
4.99176e-06
5.87236e-06
6.56751e-06
6.56496e-06
6.39714e-06
6.18856e-06
5.9047e-06
5.61878e-06
5.36971e-06
5.15397e-06
4.96696e-06
4.80547e-06
4.6649e-06
4.54133e-06
4.43221e-06
4.33568e-06
4.25037e-06
4.17537e-06
4.11011e-06
4.05428e-06
4.00778e-06
3.97066e-06
3.94323e-06
3.92577e-06
3.91918e-06
3.92385e-06
3.94111e-06
3.97293e-06
4.0217e-06
4.09168e-06
4.18773e-06
4.31529e-06
4.48988e-06
3.98432e-06
4.71956e-06
5.33567e-06
5.41266e-06
5.3122e-06
5.16428e-06
4.94805e-06
4.71961e-06
4.51724e-06
4.34036e-06
4.18468e-06
4.0482e-06
3.92804e-06
3.82146e-06
3.72667e-06
3.64247e-06
3.56804e-06
3.50278e-06
3.44636e-06
3.39858e-06
3.3594e-06
3.32892e-06
3.30733e-06
3.29499e-06
3.29227e-06
3.29993e-06
3.31886e-06
3.35023e-06
3.39552e-06
3.45718e-06
3.5382e-06
3.63976e-06
3.77329e-06
3.22298e-06
3.84512e-06
4.39298e-06
4.51336e-06
4.4629e-06
4.36509e-06
4.20594e-06
4.02347e-06
3.85305e-06
3.69939e-06
3.5614e-06
3.43928e-06
3.33188e-06
3.23734e-06
3.15422e-06
3.08148e-06
3.01822e-06
2.96378e-06
2.9177e-06
2.87966e-06
2.84948e-06
2.82709e-06
2.81252e-06
2.8059e-06
2.80747e-06
2.81759e-06
2.83669e-06
2.86541e-06
2.90456e-06
2.95523e-06
3.01886e-06
3.09427e-06
3.19001e-06
2.63466e-06
3.16746e-06
3.66458e-06
3.82173e-06
3.81825e-06
3.75997e-06
3.64114e-06
3.49121e-06
3.34393e-06
3.20812e-06
3.08461e-06
2.97439e-06
2.87714e-06
2.79157e-06
2.71654e-06
2.65116e-06
2.59468e-06
2.54647e-06
2.50606e-06
2.47311e-06
2.44733e-06
2.42851e-06
2.41652e-06
2.41128e-06
2.41276e-06
2.42101e-06
2.43613e-06
2.45826e-06
2.48758e-06
2.5242e-06
2.56854e-06
2.61843e-06
2.68042e-06
2.16976e-06
2.63434e-06
3.0939e-06
3.27733e-06
3.31029e-06
3.28319e-06
3.19842e-06
3.0794e-06
2.95571e-06
2.83775e-06
2.72777e-06
2.62768e-06
2.53819e-06
2.45885e-06
2.38903e-06
2.32814e-06
2.27557e-06
2.23078e-06
2.19327e-06
2.16262e-06
2.13843e-06
2.12037e-06
2.10814e-06
2.10145e-06
2.10008e-06
2.10379e-06
2.11234e-06
2.12548e-06
2.14295e-06
2.16428e-06
2.1894e-06
2.21588e-06
2.24896e-06
1.79471e-06
2.20833e-06
2.63985e-06
2.84386e-06
2.90831e-06
2.90884e-06
2.85278e-06
2.75951e-06
2.65512e-06
2.55138e-06
2.45219e-06
2.36032e-06
2.2772e-06
2.20296e-06
2.13727e-06
2.07969e-06
2.02972e-06
1.98682e-06
1.9505e-06
1.92026e-06
1.89567e-06
1.87628e-06
1.86168e-06
1.85143e-06
1.84513e-06
1.84234e-06
1.84261e-06
1.84542e-06
1.85027e-06
1.85642e-06
1.86355e-06
1.86941e-06
1.87835e-06
1.48607e-06
1.86325e-06
2.27455e-06
2.4952e-06
2.58583e-06
2.60933e-06
2.5766e-06
2.50505e-06
2.4178e-06
2.32712e-06
2.23795e-06
2.15352e-06
2.07578e-06
2.00535e-06
1.94225e-06
1.88627e-06
1.83707e-06
1.7942e-06
1.75719e-06
1.72555e-06
1.69878e-06
1.67637e-06
1.65781e-06
1.64258e-06
1.63012e-06
1.61987e-06
1.61121e-06
1.60349e-06
1.59605e-06
1.58807e-06
1.57919e-06
1.56754e-06
1.55681e-06
1.22723e-06
1.58047e-06
1.97783e-06
2.2122e-06
2.32495e-06
2.36852e-06
2.3559e-06
2.30319e-06
2.23089e-06
2.15131e-06
2.07024e-06
1.9915e-06
1.91753e-06
1.84941e-06
1.78751e-06
1.73181e-06
1.6821e-06
1.63801e-06
1.59907e-06
1.56478e-06
1.53463e-06
1.50805e-06
1.48447e-06
1.46329e-06
1.44388e-06
1.42559e-06
1.40772e-06
1.38957e-06
1.37045e-06
1.34956e-06
1.32661e-06
1.30016e-06
1.27354e-06
1.00626e-06
1.3467e-06
1.73546e-06
1.98146e-06
2.11294e-06
2.17389e-06
2.17829e-06
2.14145e-06
2.08191e-06
2.01181e-06
1.93762e-06
1.86358e-06
1.79249e-06
1.72579e-06
1.66411e-06
1.60765e-06
1.55632e-06
1.50983e-06
1.46779e-06
1.42974e-06
1.39515e-06
1.36346e-06
1.33408e-06
1.30637e-06
1.27967e-06
1.25331e-06
1.22656e-06
1.19872e-06
1.1691e-06
1.13703e-06
1.10228e-06
1.06387e-06
1.02481e-06
8.14565e-07
1.15265e-06
1.53735e-06
1.7933e-06
1.94063e-06
2.01666e-06
2.03572e-06
2.01255e-06
1.96408e-06
1.90213e-06
1.83361e-06
1.76311e-06
1.69377e-06
1.62736e-06
1.56481e-06
1.5065e-06
1.45252e-06
1.40267e-06
1.35664e-06
1.314e-06
1.27426e-06
1.23687e-06
1.20122e-06
1.16669e-06
1.13261e-06
1.0983e-06
1.06305e-06
1.02619e-06
9.87081e-07
9.45157e-07
9.00296e-07
8.51876e-07
8.02775e-07
6.46254e-07
9.92281e-07
1.37656e-06
1.641e-06
1.80166e-06
1.89071e-06
1.92234e-06
1.91077e-06
1.87166e-06
1.81649e-06
1.75245e-06
1.68449e-06
1.61599e-06
1.54904e-06
1.48481e-06
1.42389e-06
1.36649e-06
1.31256e-06
1.26186e-06
1.21404e-06
1.16866e-06
1.1252e-06
1.08312e-06
1.04181e-06
1.00064e-06
9.5896e-07
9.16108e-07
8.71447e-07
8.2441e-07
7.74514e-07
7.21688e-07
6.65592e-07
6.08929e-07
4.98218e-07
8.62365e-07
1.24856e-06
1.51998e-06
1.69164e-06
1.79179e-06
1.83414e-06
1.8324e-06
1.80123e-06
1.75172e-06
1.69124e-06
1.62499e-06
1.55661e-06
1.48844e-06
1.42188e-06
1.35772e-06
1.29632e-06
1.23777e-06
1.18192e-06
1.12852e-06
1.07719e-06
1.02748e-06
9.78896e-07
9.30882e-07
8.82857e-07
8.34213e-07
7.84338e-07
7.32636e-07
6.78572e-07
6.21703e-07
5.6193e-07
4.99027e-07
4.35496e-07
3.71725e-07
7.62401e-07
1.15079e-06
1.42735e-06
1.60778e-06
1.71717e-06
1.76854e-06
1.77501e-06
1.75038e-06
1.70534e-06
1.6474e-06
1.58195e-06
1.51284e-06
1.44267e-06
1.37306e-06
1.305e-06
1.23903e-06
1.17537e-06
1.11401e-06
1.05479e-06
9.97437e-07
9.4159e-07
8.86832e-07
8.32691e-07
7.78658e-07
7.24197e-07
6.68754e-07
6.11782e-07
5.52759e-07
4.9123e-07
4.26939e-07
3.59568e-07
2.90959e-07
2.77722e-07
6.94242e-07
1.0822e-06
1.36157e-06
1.54853e-06
1.66541e-06
1.72425e-06
1.73754e-06
1.71833e-06
1.67697e-06
1.62099e-06
1.55595e-06
1.4859e-06
1.41361e-06
1.34091e-06
1.26898e-06
1.1985e-06
1.12984e-06
1.06311e-06
9.98264e-07
9.35134e-07
8.73465e-07
8.12938e-07
7.53181e-07
6.93781e-07
6.34298e-07
5.74264e-07
5.13209e-07
4.50649e-07
3.86146e-07
3.19277e-07
2.49574e-07
1.77563e-07
2.44429e-07
6.61169e-07
1.04283e-06
1.32212e-06
1.5133e-06
1.63584e-06
1.70053e-06
1.7191e-06
1.7039e-06
1.66494e-06
1.60975e-06
1.54401e-06
1.47196e-06
1.39661e-06
1.31999e-06
1.24348e-06
1.16796e-06
1.09395e-06
1.02171e-06
9.51337e-07
8.82792e-07
8.15948e-07
7.50612e-07
6.86548e-07
6.23483e-07
5.61129e-07
4.99189e-07
4.37393e-07
3.75508e-07
3.1348e-07
2.51448e-07
1.90559e-07
1.34226e-07
2.91381e-07
6.65976e-07
1.03346e-06
1.30941e-06
1.5026e-06
1.62928e-06
1.69873e-06
1.72184e-06
1.71032e-06
1.67384e-06
1.61983e-06
1.55404e-06
1.48084e-06
1.40336e-06
1.32383e-06
1.2438e-06
1.16428e-06
1.08598e-06
1.00929e-06
9.34463e-07
8.61616e-07
7.90784e-07
7.2195e-07
6.55075e-07
5.90117e-07
5.27071e-07
4.66002e-07
4.07147e-07
3.51004e-07
2.98713e-07
2.52206e-07
2.15805e-07
1.94055e-07
3.94418e-07
7.09049e-07
1.05511e-06
1.3244e-06
1.51721e-06
1.64598e-06
1.71815e-06
1.74362e-06
1.73348e-06
1.69713e-06
1.642e-06
1.574e-06
1.49766e-06
1.41636e-06
1.33253e-06
1.2479e-06
1.16371e-06
1.08079e-06
9.99711e-07
9.20877e-07
8.44559e-07
7.7096e-07
7.00249e-07
6.32602e-07
5.68233e-07
5.07448e-07
4.50705e-07
3.98722e-07
3.5256e-07
3.13888e-07
2.84654e-07
2.6782e-07
2.63581e-07
5.28384e-07
7.88358e-07
1.10884e-06
1.36902e-06
1.56013e-06
1.69072e-06
1.76625e-06
1.79547e-06
1.78881e-06
1.75518e-06
1.70179e-06
1.63448e-06
1.55784e-06
1.47535e-06
1.38963e-06
1.30259e-06
1.21566e-06
1.12989e-06
1.04606e-06
9.64775e-07
8.86509e-07
8.11679e-07
7.40674e-07
6.739e-07
6.11812e-07
5.54956e-07
5.03988e-07
4.59726e-07
4.23063e-07
3.95059e-07
3.76306e-07
3.68026e-07
3.67883e-07
6.85092e-07
9.02169e-07
1.1966e-06
1.4455e-06
1.63201e-06
1.76067e-06
1.83479e-06
1.86225e-06
1.85318e-06
1.81651e-06
1.75959e-06
1.68843e-06
1.60782e-06
1.52138e-06
1.43185e-06
1.34127e-06
1.25117e-06
1.1627e-06
1.07673e-06
9.9397e-07
9.15006e-07
8.4036e-07
7.70527e-07
7.06002e-07
6.47292e-07
5.94929e-07
5.49443e-07
5.1135e-07
4.81032e-07
4.58789e-07
4.44357e-07
4.38077e-07
4.37255e-07
8.64357e-07
1.04883e-06
1.31964e-06
1.55832e-06
1.74316e-06
1.87536e-06
1.95556e-06
1.98982e-06
1.98708e-06
1.95552e-06
1.90209e-06
1.83276e-06
1.75245e-06
1.66509e-06
1.57371e-06
1.48069e-06
1.38786e-06
1.29663e-06
1.20811e-06
1.12317e-06
1.04253e-06
9.66811e-07
8.96522e-07
8.3213e-07
7.74036e-07
7.22579e-07
6.78004e-07
6.40464e-07
6.0992e-07
5.86297e-07
5.68979e-07
5.58372e-07
5.51116e-07
1.0719e-06
1.23434e-06
1.48563e-06
1.71087e-06
1.88491e-06
2.00705e-06
2.07724e-06
2.10202e-06
2.09109e-06
2.05297e-06
1.9946e-06
1.92176e-06
1.83911e-06
1.75029e-06
1.6581e-06
1.56475e-06
1.47196e-06
1.38107e-06
1.29318e-06
1.20915e-06
1.1297e-06
1.05539e-06
9.86701e-07
9.23983e-07
8.67485e-07
8.17343e-07
7.73559e-07
7.36017e-07
7.04433e-07
6.78492e-07
6.57477e-07
6.41581e-07
6.2782e-07
1.31223e-06
1.45523e-06
1.69268e-06
1.91725e-06
2.10279e-06
2.2434e-06
2.33277e-06
2.3735e-06
2.3737e-06
2.34168e-06
2.28491e-06
2.21013e-06
2.12302e-06
2.02813e-06
1.92901e-06
1.8284e-06
1.72839e-06
1.63054e-06
1.53605e-06
1.44582e-06
1.3605e-06
1.28057e-06
1.20637e-06
1.1381e-06
1.07583e-06
1.01953e-06
9.69061e-07
9.24202e-07
8.846e-07
8.49962e-07
8.19562e-07
7.93937e-07
7.69383e-07
1.60613e-06
1.7466e-06
1.97147e-06
2.16899e-06
2.31944e-06
2.42572e-06
2.48732e-06
2.50972e-06
2.50108e-06
2.46773e-06
2.41464e-06
2.34628e-06
2.26669e-06
2.17926e-06
2.08688e-06
1.99198e-06
1.89657e-06
1.80228e-06
1.71041e-06
1.62195e-06
1.53766e-06
1.45806e-06
1.38347e-06
1.31407e-06
1.24986e-06
1.19074e-06
1.13651e-06
1.08687e-06
1.04148e-06
1.00001e-06
9.61857e-07
9.27398e-07
8.93574e-07
1.94578e-06
2.06292e-06
2.29973e-06
2.54855e-06
2.76836e-06
2.93683e-06
3.03893e-06
3.07894e-06
3.07011e-06
3.0247e-06
2.9528e-06
2.8628e-06
2.76124e-06
2.65291e-06
2.54127e-06
2.42883e-06
2.31742e-06
2.20836e-06
2.1026e-06
2.00084e-06
1.90357e-06
1.81108e-06
1.72356e-06
1.64104e-06
1.56348e-06
1.49072e-06
1.42255e-06
1.35872e-06
1.29894e-06
1.24301e-06
1.19037e-06
1.1418e-06
1.09348e-06
2.42568e-06
2.57585e-06
2.76003e-06
2.8849e-06
2.98234e-06
3.07401e-06
3.14948e-06
3.20019e-06
3.22357e-06
3.21834e-06
3.18555e-06
3.1288e-06
3.05281e-06
2.96222e-06
2.86135e-06
2.75391e-06
2.64297e-06
2.53099e-06
2.41981e-06
2.31082e-06
2.205e-06
2.10298e-06
2.00514e-06
1.91164e-06
1.82248e-06
1.73754e-06
1.65662e-06
1.57949e-06
1.50589e-06
1.43569e-06
1.36852e-06
1.30511e-06
1.24244e-06
2.90069e-06
3.00356e-06
3.37768e-06
3.77543e-06
4.07533e-06
4.2549e-06
4.32309e-06
4.31066e-06
4.24719e-06
4.15057e-06
4.03165e-06
3.89809e-06
3.75513e-06
3.6064e-06
3.45471e-06
3.30242e-06
3.15149e-06
3.00354e-06
2.85987e-06
2.72147e-06
2.58902e-06
2.46292e-06
2.34334e-06
2.23024e-06
2.12342e-06
2.02255e-06
1.92724e-06
1.83705e-06
1.75157e-06
1.67058e-06
1.59364e-06
1.52195e-06
1.45168e-06
3.93864e-06
4.03834e-06
3.93889e-06
3.84877e-06
3.93945e-06
4.14278e-06
4.33441e-06
4.46288e-06
4.52372e-06
4.52609e-06
4.48599e-06
4.42095e-06
4.34501e-06
4.26763e-06
4.19443e-06
4.12808e-06
4.06916e-06
4.01703e-06
3.9705e-06
3.9282e-06
3.88883e-06
3.85127e-06
3.81461e-06
3.77812e-06
3.74122e-06
3.70344e-06
3.6644e-06
3.62381e-06
3.5815e-06
3.53753e-06
3.49204e-06
3.447e-06
3.39991e-06
4.39567e-06
4.95352e-06
5.91442e-06
6.38365e-06
6.4856e-06
6.45029e-06
6.43368e-06
6.5408e-06
6.79962e-06
7.17551e-06
7.61629e-06
8.07595e-06
8.52e-06
8.92573e-06
9.28052e-06
9.57893e-06
9.8203e-06
1.00069e-05
1.01428e-05
1.02329e-05
1.02823e-05
1.02961e-05
1.0279e-05
1.02353e-05
1.01688e-05
1.00827e-05
9.97968e-06
9.86175e-06
9.73071e-06
9.58766e-06
9.43425e-06
9.273e-06
9.10417e-06
7.58522e-06
5.83821e-06
4.60614e-06
6.18137e-06
8.91137e-06
1.16218e-05
1.39522e-05
1.58415e-05
1.72888e-05
1.83093e-05
1.89409e-05
1.92325e-05
1.92348e-05
1.89979e-05
1.85693e-05
1.79921e-05
1.73039e-05
1.65366e-05
1.57169e-05
1.48665e-05
1.40025e-05
1.31381e-05
1.22834e-05
1.14455e-05
1.06296e-05
9.83865e-06
9.07418e-06
8.33598e-06
7.62326e-06
6.93198e-06
6.26242e-06
5.60268e-06
4.96635e-06
8.58608e-06
1.4705e-05
1.87911e-05
2.11798e-05
2.22535e-05
2.17643e-05
1.98886e-05
1.70801e-05
1.38086e-05
1.0699e-05
8.77425e-06
9.13651e-06
1.15092e-05
1.47702e-05
1.82364e-05
2.16122e-05
2.47709e-05
2.76593e-05
3.02601e-05
3.25747e-05
3.46145e-05
3.63967e-05
3.79408e-05
3.92674e-05
4.03967e-05
4.13483e-05
4.2141e-05
4.2793e-05
4.33217e-05
4.37493e-05
4.40915e-05
4.44069e-05
4.46847e-05
3.46617e-05
3.72281e-05
4.66689e-05
6.1802e-05
7.75127e-05
9.29077e-05
0.000107283
0.000119932
0.000130668
0.000139537
0.000146653
0.000152182
0.000156313
0.000159236
0.000161126
0.000162144
0.000162433
0.000162115
0.000161298
0.000160074
0.000158519
0.000156699
0.000154667
0.00015247
0.000150143
0.000147718
0.00014522
0.000142665
0.000140072
0.000137445
0.000134785
0.000132182
0.000129646
0.000608459
0.0005825
0.000556843
0.00053033
0.000504269
0.000478981
0.000454514
0.000431139
0.000409041
0.000388277
0.000368863
0.000350784
0.00033399
0.000318412
0.000303968
0.000290574
0.000278143
0.000266591
0.000255838
0.000245808
0.000236432
0.000227646
0.000219393
0.000211622
0.000204286
0.000197342
0.000190754
0.000184485
0.000178496
0.000172764
0.000167162
0.000162224
0.000157727
9.26683e-05
8.41065e-05
7.62272e-05
7.21718e-05
7.41954e-05
8.08982e-05
8.9584e-05
9.77994e-05
0.000104122
0.000101905
7.63686e-05
5.78029e-05
5.75336e-05
5.53385e-05
5.09859e-05
4.4386e-05
3.57262e-05
2.63643e-05
1.76846e-05
1.01849e-05
3.81383e-06
2.1555e-06
8.56167e-06
1.53899e-05
1.89039e-05
2.24238e-05
3.22283e-05
4.43772e-05
5.11724e-05
5.05885e-05
4.66857e-05
4.34459e-05
4.25591e-05
4.53094e-05
4.93376e-05
5.48901e-05
5.9229e-05
5.64386e-05
4.82296e-05
3.87674e-05
3.04267e-05
2.35636e-05
1.7551e-05
1.17488e-05
6.12084e-06
2.55828e-06
8.92453e-06
2.06736e-05
3.35526e-05
4.12715e-05
4.12943e-05
3.65261e-05
3.10225e-05
2.65535e-05
2.30548e-05
2.01458e-05
1.7631e-05
1.54299e-05
1.34907e-05
1.17686e-05
1.02273e-05
8.84094e-06
7.59209e-06
6.46976e-06
5.46693e-06
4.57878e-06
3.80116e-06
3.12931e-06
2.55712e-06
2.077e-06
1.68023e-06
1.35745e-06
1.09907e-06
8.95246e-07
7.35909e-07
6.11209e-07
5.12519e-07
4.33471e-07
3.70247e-07
3.20949e-07
2.84459e-07
2.59419e-07
2.43873e-07
2.35617e-07
2.32996e-07
2.35599e-07
2.44627e-07
2.62344e-07
2.91209e-07
3.31638e-07
3.82347e-07
4.37704e-07
4.95261e-07
5.453e-07
5.9937e-07
6.31916e-07
6.96232e-07
6.73508e-07
8.0521e-07
6.62093e-07
0.000116054
0.000106556
9.51146e-05
8.57944e-05
8.09913e-05
8.14089e-05
8.55235e-05
9.09131e-05
9.62046e-05
0.000103273
0.000100517
7.17659e-05
5.58388e-05
5.61345e-05
5.29942e-05
4.66781e-05
3.84414e-05
2.92988e-05
2.04026e-05
1.23858e-05
5.71306e-06
2.9068e-06
9.51253e-06
1.59926e-05
1.77951e-05
2.19916e-05
3.35644e-05
4.59215e-05
5.13801e-05
4.9561e-05
4.53173e-05
4.2309e-05
4.13087e-05
4.33509e-05
4.73866e-05
5.20937e-05
5.74573e-05
5.7284e-05
5.05603e-05
4.11489e-05
3.20863e-05
2.42961e-05
1.74524e-05
1.10387e-05
4.89543e-06
4.04449e-06
1.40513e-05
2.73883e-05
3.88006e-05
4.32226e-05
4.07282e-05
3.52708e-05
3.01059e-05
2.60578e-05
2.28119e-05
2.00548e-05
1.76476e-05
1.55241e-05
1.36344e-05
1.19378e-05
1.0404e-05
9.01306e-06
7.75245e-06
6.61432e-06
5.59375e-06
4.68727e-06
3.89156e-06
3.20243e-06
2.61425e-06
2.11988e-06
1.71109e-06
1.37902e-06
1.11442e-06
9.07398e-07
7.47433e-07
6.23884e-07
5.27139e-07
4.4993e-07
3.87867e-07
3.38833e-07
3.01811e-07
2.75758e-07
2.59112e-07
2.50119e-07
2.47491e-07
2.51092e-07
2.61997e-07
2.81998e-07
3.12793e-07
3.54176e-07
4.04616e-07
4.58476e-07
5.13583e-07
5.60522e-07
6.12101e-07
6.43187e-07
7.10015e-07
6.89449e-07
8.3037e-07
6.86594e-07
0.000100126
9.62495e-05
8.77479e-05
7.83271e-05
7.12705e-05
6.87372e-05
7.06458e-05
7.51713e-05
8.03784e-05
8.6947e-05
9.67729e-05
9.15302e-05
6.39474e-05
5.28914e-05
5.34455e-05
4.9058e-05
4.13209e-05
3.24961e-05
2.3742e-05
1.57429e-05
9.47796e-06
6.69533e-06
1.20421e-05
1.62516e-05
1.58287e-05
2.19929e-05
3.56177e-05
4.76573e-05
5.12334e-05
4.8131e-05
4.37179e-05
4.09792e-05
4.0064e-05
4.12675e-05
4.48302e-05
4.8973e-05
5.44852e-05
5.70823e-05
5.29176e-05
4.43946e-05
3.50178e-05
2.64959e-05
1.90618e-05
1.27394e-05
8.65165e-06
1.16917e-05
2.23826e-05
3.4911e-05
4.30479e-05
4.38126e-05
3.94044e-05
3.3824e-05
2.91747e-05
2.55555e-05
2.25663e-05
1.99728e-05
1.76808e-05
1.56364e-05
1.37954e-05
1.21231e-05
1.05962e-05
9.20024e-06
7.92699e-06
6.77173e-06
5.7318e-06
4.80525e-06
3.98986e-06
3.28219e-06
2.67716e-06
2.16807e-06
1.74696e-06
1.4051e-06
1.13321e-06
9.21402e-07
7.58949e-07
6.34683e-07
5.38216e-07
4.61508e-07
3.99651e-07
3.50365e-07
3.12767e-07
2.8614e-07
2.6932e-07
2.60902e-07
2.59822e-07
2.65858e-07
2.79725e-07
3.02543e-07
3.35286e-07
3.7723e-07
4.26735e-07
4.78397e-07
5.30594e-07
5.74424e-07
6.23909e-07
6.53977e-07
7.23472e-07
7.0502e-07
8.54555e-07
7.11312e-07
6.87087e-05
6.46754e-05
5.72451e-05
4.87791e-05
4.26409e-05
4.14485e-05
4.44442e-05
4.91716e-05
5.48547e-05
6.20638e-05
7.34797e-05
8.65223e-05
7.98226e-05
5.62732e-05
4.92198e-05
4.95567e-05
4.44835e-05
3.63406e-05
2.77402e-05
1.99901e-05
1.39516e-05
1.17261e-05
1.55253e-05
1.48476e-05
1.31914e-05
2.30639e-05
3.86368e-05
4.92657e-05
5.03669e-05
4.61563e-05
4.18704e-05
3.94576e-05
3.86952e-05
3.93832e-05
4.21104e-05
4.57385e-05
5.05933e-05
5.52504e-05
5.45641e-05
4.82779e-05
3.95476e-05
3.08924e-05
2.34602e-05
1.81295e-05
1.67323e-05
2.1957e-05
3.22868e-05
4.18027e-05
4.54538e-05
4.28705e-05
3.74456e-05
3.22892e-05
2.82694e-05
2.50593e-05
2.23135e-05
1.98857e-05
1.77141e-05
1.57528e-05
1.39632e-05
1.23176e-05
1.07992e-05
9.39911e-06
8.11331e-06
6.94032e-06
5.87993e-06
4.93204e-06
4.09569e-06
3.36832e-06
2.74549e-06
2.2209e-06
1.78689e-06
1.435e-06
1.15613e-06
9.40249e-07
7.76253e-07
6.52275e-07
5.57081e-07
4.81847e-07
4.2112e-07
3.72404e-07
3.34859e-07
3.07993e-07
2.9097e-07
2.82681e-07
2.82266e-07
2.89503e-07
3.049e-07
3.29143e-07
3.62746e-07
4.04652e-07
4.53075e-07
5.02616e-07
5.51789e-07
5.91826e-07
6.3775e-07
6.64856e-07
7.35188e-07
7.1769e-07
8.75184e-07
7.33794e-07
2.18111e-05
1.84973e-05
1.29924e-05
8.78412e-06
1.20328e-05
1.81575e-05
2.2746e-05
2.54801e-05
2.81658e-05
3.32051e-05
4.2806e-05
5.93917e-05
7.42621e-05
6.81545e-05
4.95301e-05
4.4259e-05
4.43711e-05
3.99267e-05
3.27005e-05
2.55407e-05
1.9646e-05
1.78397e-05
1.68427e-05
9.8515e-06
1.14158e-05
2.62109e-05
4.26282e-05
5.02289e-05
4.85853e-05
4.37187e-05
3.98302e-05
3.77378e-05
3.70538e-05
3.7462e-05
3.93749e-05
4.24502e-05
4.63252e-05
5.15351e-05
5.42512e-05
5.15895e-05
4.50927e-05
3.7544e-05
3.10221e-05
2.71537e-05
2.76965e-05
3.34395e-05
4.13317e-05
4.6148e-05
4.53332e-05
4.06108e-05
3.52196e-05
3.08308e-05
2.74181e-05
2.45648e-05
2.20482e-05
1.97889e-05
1.7742e-05
1.58669e-05
1.41313e-05
1.25149e-05
1.10071e-05
9.6043e-06
8.30641e-06
7.11546e-06
6.03395e-06
5.0638e-06
4.20553e-06
3.45761e-06
2.81623e-06
2.27559e-06
1.82834e-06
1.46617e-06
1.17998e-06
9.5965e-07
7.93721e-07
6.69673e-07
5.75417e-07
5.01336e-07
4.41466e-07
3.93138e-07
3.55616e-07
3.28682e-07
3.11831e-07
3.04229e-07
3.05143e-07
3.14258e-07
3.31758e-07
3.57849e-07
3.92555e-07
4.34463e-07
4.81628e-07
5.28662e-07
5.74286e-07
6.09958e-07
6.51733e-07
6.7532e-07
7.45995e-07
7.29184e-07
8.94317e-07
7.55589e-07
9.82898e-06
1.20021e-05
1.49491e-05
1.79072e-05
2.00611e-05
2.07228e-05
1.96487e-05
1.73071e-05
1.50667e-05
1.52912e-05
2.04508e-05
3.03817e-05
4.72183e-05
6.14842e-05
5.77925e-05
4.37584e-05
3.77171e-05
3.69764e-05
3.40425e-05
2.90024e-05
2.37647e-05
1.93328e-05
1.12579e-05
2.42933e-06
1.32349e-05
3.24865e-05
4.67853e-05
4.98159e-05
4.58381e-05
4.09704e-05
3.76587e-05
3.58549e-05
3.5184e-05
3.54566e-05
3.67761e-05
3.92141e-05
4.22251e-05
4.65947e-05
5.12024e-05
5.24901e-05
4.96988e-05
4.47841e-05
4.01425e-05
3.78053e-05
3.90786e-05
4.3265e-05
4.69491e-05
4.68638e-05
4.29579e-05
3.76771e-05
3.30668e-05
2.95091e-05
2.66095e-05
2.40655e-05
2.17703e-05
1.96825e-05
1.77637e-05
1.59782e-05
1.43004e-05
1.27166e-05
1.12221e-05
9.8179e-06
8.50837e-06
7.29915e-06
6.19572e-06
5.20227e-06
4.32094e-06
3.55132e-06
2.89036e-06
2.33274e-06
1.87145e-06
1.49843e-06
1.20475e-06
9.80265e-07
8.13098e-07
6.89943e-07
5.97708e-07
5.25876e-07
4.67899e-07
4.20875e-07
3.84115e-07
3.57621e-07
3.41171e-07
3.34169e-07
3.35981e-07
3.46214e-07
3.64814e-07
3.9167e-07
4.26503e-07
4.67693e-07
5.13197e-07
5.5757e-07
5.99544e-07
6.30564e-07
6.6751e-07
6.86539e-07
7.56312e-07
7.39125e-07
9.10855e-07
7.75487e-07
1.28017e-05
1.42949e-05
1.60017e-05
1.72798e-05
1.7681e-05
1.71214e-05
1.58191e-05
1.42076e-05
1.28535e-05
1.24757e-05
1.46951e-05
2.00345e-05
2.60705e-05
3.74372e-05
4.89827e-05
4.85593e-05
3.91479e-05
3.11147e-05
2.6867e-05
2.26145e-05
1.77682e-05
1.28356e-05
8.37338e-06
1.75448e-06
2.17454e-05
4.09692e-05
4.92086e-05
4.74717e-05
4.23677e-05
3.81165e-05
3.5409e-05
3.38419e-05
3.31673e-05
3.33514e-05
3.43352e-05
3.61823e-05
3.85393e-05
4.16245e-05
4.60153e-05
4.97758e-05
5.0797e-05
4.93736e-05
4.72492e-05
4.62375e-05
4.6984e-05
4.82149e-05
4.75977e-05
4.4195e-05
3.93093e-05
3.47514e-05
3.11819e-05
2.83217e-05
2.58241e-05
2.35544e-05
2.14779e-05
1.95646e-05
1.77778e-05
1.60864e-05
1.4471e-05
1.29237e-05
1.1445e-05
1.00409e-05
8.72016e-06
7.49232e-06
6.3661e-06
5.34819e-06
4.44252e-06
3.6499e-06
2.96815e-06
2.39251e-06
1.91637e-06
1.53195e-06
1.23045e-06
1.00161e-06
8.33168e-07
7.1099e-07
6.20919e-07
5.51474e-07
4.95495e-07
4.49857e-07
4.13936e-07
3.87972e-07
3.72029e-07
3.65738e-07
3.68553e-07
3.79996e-07
3.99782e-07
4.27489e-07
4.62525e-07
5.03029e-07
5.46814e-07
5.88361e-07
6.26422e-07
6.52413e-07
6.8394e-07
6.9753e-07
7.65364e-07
7.4715e-07
9.24939e-07
7.93883e-07
8.49142e-06
9.54759e-06
1.0749e-05
1.17552e-05
1.23451e-05
1.25296e-05
1.24911e-05
1.24713e-05
1.27188e-05
1.34503e-05
1.47155e-05
1.80363e-05
2.3271e-05
2.60247e-05
2.972e-05
3.63608e-05
3.84017e-05
3.44754e-05
2.84123e-05
2.28091e-05
1.94561e-05
1.60703e-05
5.68534e-06
1.46888e-05
3.575e-05
4.74219e-05
4.8111e-05
4.34531e-05
3.86723e-05
3.53199e-05
3.31166e-05
3.17411e-05
3.10899e-05
3.11948e-05
3.19957e-05
3.34183e-05
3.5286e-05
3.74154e-05
4.0442e-05
4.4288e-05
4.73876e-05
4.87715e-05
4.89174e-05
4.87686e-05
4.84392e-05
4.70731e-05
4.39954e-05
3.97608e-05
3.56244e-05
3.2273e-05
2.95756e-05
2.72104e-05
2.50341e-05
2.30251e-05
2.11695e-05
1.94347e-05
1.77846e-05
1.61926e-05
1.46446e-05
1.31379e-05
1.16777e-05
1.02751e-05
8.94342e-06
7.69646e-06
6.54638e-06
5.5026e-06
4.57101e-06
3.75382e-06
3.04979e-06
2.45481e-06
1.96275e-06
1.56615e-06
1.25644e-06
1.02336e-06
8.54222e-07
7.33905e-07
6.46997e-07
5.8091e-07
5.27802e-07
4.8429e-07
4.49793e-07
4.24758e-07
4.09514e-07
4.03905e-07
4.07468e-07
4.19658e-07
4.40003e-07
4.67845e-07
5.0238e-07
5.416e-07
5.83246e-07
6.21727e-07
6.55734e-07
6.76507e-07
7.02194e-07
7.09613e-07
7.7439e-07
7.54079e-07
9.36617e-07
8.10417e-07
6.36993e-06
7.14286e-06
8.031e-06
8.84939e-06
9.46578e-06
9.88555e-06
1.02337e-05
1.06916e-05
1.1431e-05
1.26273e-05
1.42957e-05
1.64979e-05
2.07451e-05
2.6274e-05
2.82685e-05
2.66956e-05
2.58012e-05
2.56343e-05
2.39518e-05
2.07437e-05
1.5548e-05
7.34809e-06
1.70263e-05
3.49327e-05
4.61217e-05
4.77439e-05
4.36854e-05
3.88432e-05
3.5207e-05
3.26497e-05
3.0814e-05
2.96047e-05
2.90077e-05
2.90448e-05
2.96975e-05
3.08439e-05
3.23652e-05
3.4004e-05
3.58801e-05
3.84499e-05
4.1366e-05
4.36675e-05
4.49047e-05
4.5098e-05
4.41459e-05
4.19039e-05
3.87436e-05
3.5468e-05
3.26421e-05
3.02695e-05
2.813e-05
2.61145e-05
2.42269e-05
2.24778e-05
2.08459e-05
1.92934e-05
1.77854e-05
1.62988e-05
1.48237e-05
1.33615e-05
1.19224e-05
1.05225e-05
9.17999e-06
7.91317e-06
6.7379e-06
5.66653e-06
4.70716e-06
3.86355e-06
3.13553e-06
2.51975e-06
2.0106e-06
1.60103e-06
1.28272e-06
1.04542e-06
8.75904e-07
7.57987e-07
6.74834e-07
6.12636e-07
5.62827e-07
5.21761e-07
4.8891e-07
4.64938e-07
4.5044e-07
4.45479e-07
4.49691e-07
4.62495e-07
4.83273e-07
5.11164e-07
5.4516e-07
5.83082e-07
6.22554e-07
6.57871e-07
6.87623e-07
7.02792e-07
7.21864e-07
7.21849e-07
7.82057e-07
7.58668e-07
9.45101e-07
8.24804e-07
5.30918e-06
5.86653e-06
6.49676e-06
7.09628e-06
7.59139e-06
7.99791e-06
8.41459e-06
8.98944e-06
9.86523e-06
1.11382e-05
1.28819e-05
1.50286e-05
1.78096e-05
2.24935e-05
2.82437e-05
3.13781e-05
3.04394e-05
2.71146e-05
2.36571e-05
2.13598e-05
2.2274e-05
2.92665e-05
3.92892e-05
4.58966e-05
4.63294e-05
4.26008e-05
3.81645e-05
3.46984e-05
3.21256e-05
3.00941e-05
2.85286e-05
2.74736e-05
2.69378e-05
2.6922e-05
2.74288e-05
2.83704e-05
2.96363e-05
3.10499e-05
3.24343e-05
3.3953e-05
3.57514e-05
3.74815e-05
3.86154e-05
3.88311e-05
3.80107e-05
3.63324e-05
3.42729e-05
3.22449e-05
3.03527e-05
2.85233e-05
2.67264e-05
2.5006e-05
2.34031e-05
2.19152e-05
2.05087e-05
1.91425e-05
1.77827e-05
1.64079e-05
1.50109e-05
1.35971e-05
1.21816e-05
1.07854e-05
9.43197e-06
8.14422e-06
6.94206e-06
5.84105e-06
4.8517e-06
3.9795e-06
3.22551e-06
2.58719e-06
2.05957e-06
1.63605e-06
1.30865e-06
1.0672e-06
8.97958e-07
7.83429e-07
7.05099e-07
6.47754e-07
6.02031e-07
5.64017e-07
5.33239e-07
5.10584e-07
4.96924e-07
4.92553e-07
4.97227e-07
5.10347e-07
5.31176e-07
5.58682e-07
5.91693e-07
6.2791e-07
6.64889e-07
6.96825e-07
7.22174e-07
7.31574e-07
7.43685e-07
7.35559e-07
7.89963e-07
7.62269e-07
9.50972e-07
8.37118e-07
4.44684e-06
4.84426e-06
5.28453e-06
5.71281e-06
6.09737e-06
6.46756e-06
6.91076e-06
7.54288e-06
8.47006e-06
9.75267e-06
1.14107e-05
1.34437e-05
1.57683e-05
1.87051e-05
2.31347e-05
2.85645e-05
3.2925e-05
3.51428e-05
3.59234e-05
3.69752e-05
3.94518e-05
4.26358e-05
4.43176e-05
4.31052e-05
3.98423e-05
3.6339e-05
3.35276e-05
3.12817e-05
2.93213e-05
2.76238e-05
2.6285e-05
2.53695e-05
2.48835e-05
2.48252e-05
2.52034e-05
2.59707e-05
2.7032e-05
2.8279e-05
2.95335e-05
3.06907e-05
3.17935e-05
3.28085e-05
3.35094e-05
3.36902e-05
3.32697e-05
3.23682e-05
3.11858e-05
2.98408e-05
2.83734e-05
2.68372e-05
2.53186e-05
2.38886e-05
2.25692e-05
2.13401e-05
2.016e-05
1.89849e-05
1.77795e-05
1.65228e-05
1.52094e-05
1.38479e-05
1.24582e-05
1.10666e-05
9.70173e-06
8.39163e-06
7.16049e-06
6.02738e-06
5.00548e-06
4.1022e-06
3.31995e-06
2.65714e-06
2.10947e-06
1.6709e-06
1.33389e-06
1.0884e-06
9.20097e-07
8.09956e-07
7.37496e-07
6.85916e-07
6.45002e-07
6.10584e-07
5.82266e-07
5.61172e-07
5.48456e-07
5.44655e-07
5.49668e-07
5.62919e-07
5.83596e-07
6.10536e-07
6.42421e-07
6.76822e-07
7.11203e-07
7.39621e-07
7.60351e-07
7.63555e-07
7.67802e-07
7.50059e-07
7.9676e-07
7.63384e-07
9.52999e-07
8.46689e-07
3.69908e-06
3.9756e-06
4.27772e-06
4.58144e-06
4.88483e-06
5.22841e-06
5.68956e-06
6.35667e-06
7.29852e-06
8.54433e-06
1.00941e-05
1.19498e-05
1.40742e-05
1.63934e-05
1.91415e-05
2.2781e-05
2.71093e-05
3.11959e-05
3.43579e-05
3.66852e-05
3.8219e-05
3.85588e-05
3.74972e-05
3.55328e-05
3.34578e-05
3.16391e-05
2.99634e-05
2.82901e-05
2.66702e-05
2.52406e-05
2.41021e-05
2.33022e-05