/*--------------------------------*- C++ -*----------------------------------*\
| =========                 |                                                 |
| \\      /  F ield         | OpenFOAM: The Open Source CFD Toolbox           |
|  \\    /   O peration     | Version:  2.1.1                                 |
|   \\  /    A nd           | Web:      www.OpenFOAM.org                      |
|    \\/     M anipulation  |                                                 |
\*---------------------------------------------------------------------------*/
FoamFile
{
    version     2.0;
    format      ascii;
    class       volScalarField;
    location    "0.08";
    object      p;
}
// * * * * * * * * * * * * * * * * * * * * * * * * * * * * * * * * * * * * * //

dimensions      [0 2 -2 0 0 0 0];

internalField   nonuniform List<scalar> 
6820
(
8.01821
-9.81868
-12.8305
-13.022
-13.2
-13.1332
-13.0842
-13.1058
-13.1637
-13.2427
-13.3347
-13.4344
-13.5398
-13.6498
-13.7642
-13.8829
-14.006
-14.1338
-14.2664
-14.4042
-14.5475
-14.6969
-14.8524
-15.0146
-15.1842
-15.3608
-15.5451
-15.7365
-15.9359
-16.1392
-16.3541
-16.5489
-16.7962
1.33759
-9.6369
-12.5187
-12.8232
-13.0813
-13.1105
-13.0981
-13.1309
-13.1905
-13.2665
-13.3544
-13.4504
-13.5526
-13.6602
-13.7726
-13.8899
-14.0119
-14.1388
-14.2707
-14.408
-14.5509
-14.6994
-14.8547
-15.0163
-15.186
-15.3624
-15.5465
-15.738
-15.9376
-16.1434
-16.3621
-16.5813
-16.8821
-1.37619
-8.20559
-11.4971
-12.2598
-12.7336
-12.9377
-13.0041
-13.0696
-13.1484
-13.2367
-13.3331
-13.4356
-13.5426
-13.6536
-13.7683
-13.8869
-14.0096
-14.1366
-14.2682
-14.4049
-14.5468
-14.6945
-14.8486
-15.0094
-15.176
-15.3509
-15.5336
-15.7237
-15.9227
-16.1294
-16.3512
-16.5814
-16.8677
-3.36071
-7.97741
-11.0744
-11.9384
-12.4162
-12.6995
-12.8361
-12.9457
-13.0555
-13.1642
-13.2733
-13.3842
-13.4971
-13.6126
-13.7309
-13.8522
-13.9768
-14.105
-14.2373
-14.374
-14.5154
-14.6618
-14.8138
-14.9716
-15.1354
-15.306
-15.4834
-15.6679
-15.8618
-16.0651
-16.2845
-16.5219
-16.8125
-4.99523
-8.07685
-10.6815
-11.5898
-12.1034
-12.466
-12.6728
-12.822
-12.9564
-13.0816
-13.2022
-13.3217
-13.4409
-13.5608
-13.6821
-13.8054
-13.9311
-14.0596
-14.1912
-14.3263
-14.4652
-14.6083
-14.7559
-14.9084
-15.0657
-15.2283
-15.3963
-15.5705
-15.7518
-15.942
-16.1466
-16.3694
-16.6325
-6.21668
-8.25659
-10.4295
-11.3784
-11.911
-12.3007
-12.5424
-12.7143
-12.8646
-13.0023
-13.132
-13.2581
-13.3826
-13.5064
-13.6304
-13.7552
-13.8815
-14.0096
-14.14
-14.273
-14.4089
-14.5478
-14.6901
-14.8359
-14.9853
-15.1386
-15.2966
-15.4593
-15.6269
-15.801
-15.9854
-16.1831
-16.4064
-7.16596
-8.54159
-10.3106
-11.2222
-11.7424
-12.1403
-12.412
-12.6092
-12.7773
-12.9281
-13.0673
-13.2
-13.3291
-13.4561
-13.5821
-13.7081
-13.8347
-13.9624
-14.0915
-14.2223
-14.3551
-14.4901
-14.6274
-14.7671
-14.9093
-15.0543
-15.202
-15.3523
-15.5054
-15.6622
-15.8247
-15.9942
-16.1747
-7.91027
-8.84606
-10.2577
-11.1046
-11.6132
-12.0125
-12.3028
-12.517
-12.6968
-12.8567
-13.0029
-13.1408
-13.2739
-13.4038
-13.5319
-13.659
-13.7859
-13.9131
-14.0409
-14.1695
-14.2993
-14.4302
-14.5625
-14.696
-14.8308
-14.9667
-15.1036
-15.2413
-15.3798
-15.519
-15.6591
-15.7997
-15.9397
-8.50054
-9.14771
-10.2658
-11.0324
-11.5184
-11.9058
-12.2023
-12.4278
-12.6172
-12.7854
-12.9385
-13.0818
-13.2188
-13.3516
-13.4815
-13.6095
-13.7365
-13.8629
-13.9891
-14.1154
-14.2419
-14.3686
-14.4957
-14.6229
-14.7501
-14.8772
-15.0037
-15.1291
-15.253
-15.3745
-15.4926
-15.6054
-15.7092
-8.97461
-9.4309
-10.3115
-10.9892
-11.4461
-11.8175
-12.1145
-12.3476
-12.5441
-12.7184
-12.8766
-13.0239
-13.1639
-13.2988
-13.43
-13.5586
-13.6854
-13.8109
-13.9354
-14.0592
-14.1823
-14.3048
-14.4266
-14.5476
-14.6673
-14.7855
-14.9017
-15.0149
-15.1244
-15.2288
-15.3262
-15.4141
-15.4873
-9.35936
-9.68792
-10.3809
-10.9714
-11.3956
-11.7475
-12.0388
-12.2743
-12.4747
-12.653
-12.8152
-12.9659
-13.1085
-13.2454
-13.3778
-13.5068
-13.6333
-13.7577
-13.8804
-14.0016
-14.1213
-14.2394
-14.356
-14.4707
-14.583
-14.6926
-14.7986
-14.9002
-14.9962
-15.0848
-15.1638
-15.2303
-15.2788
-9.67442
-9.91638
-10.4631
-10.9719
-11.361
-11.6911
-11.973
-12.2077
-12.4099
-12.5909
-12.7559
-12.9092
-13.0538
-13.192
-13.3251
-13.4543
-13.5802
-13.7033
-13.824
-13.9424
-14.0586
-14.1725
-14.2838
-14.3923
-14.4975
-14.5988
-14.6953
-14.786
-14.8695
-14.944
-15.0071
-15.0559
-15.0854
-9.93411
-10.1164
-10.55
-10.9855
-11.3391
-11.6468
-11.9168
-12.1478
-12.3496
-12.5315
-12.6982
-12.8531
-12.9991
-13.1382
-13.2719
-13.4009
-13.5261
-13.6479
-13.7665
-13.8822
-13.9949
-14.1044
-14.2107
-14.3132
-14.4115
-14.5049
-14.5926
-14.6733
-14.7457
-14.808
-14.8578
-14.8926
-14.9082
-10.149
-10.2893
-10.636
-11.0075
-11.3267
-11.6119
-11.8684
-12.0935
-12.2934
-12.475
-12.6422
-12.7981
-12.945
-13.0847
-13.2185
-13.3472
-13.4714
-13.5917
-13.7082
-13.821
-13.9302
-14.0356
-14.1369
-14.2337
-14.3255
-14.4116
-14.4911
-14.563
-14.6257
-14.6777
-14.7169
-14.7412
-14.7471
-10.3268
-10.4371
-10.7171
-11.0339
-11.3207
-11.5842
-11.8266
-12.0445
-12.241
-12.4212
-12.5882
-12.7443
-12.8915
-13.0313
-13.1649
-13.2931
-13.4163
-13.5349
-13.6492
-13.7593
-13.8651
-13.9664
-14.063
-14.1544
-14.2402
-14.3197
-14.3919
-14.456
-14.5105
-14.5542
-14.5852
-14.602
-14.6017
-10.4736
-10.562
-10.7907
-11.0617
-11.3188
-11.5617
-11.79
-11.9997
-12.1919
-12.3698
-12.5358
-12.6916
-12.8387
-12.9784
-13.1116
-13.2389
-13.3609
-13.4779
-13.59
-13.6973
-13.7998
-13.8972
-13.9893
-14.0758
-14.1561
-14.2295
-14.2954
-14.3528
-14.4006
-14.4377
-14.4627
-14.4744
-14.4708
-10.5936
-10.6658
-10.8551
-11.0881
-11.3187
-11.5425
-11.7572
-11.9584
-12.1456
-12.3207
-12.4851
-12.6401
-12.7867
-12.9259
-13.0585
-13.185
-13.3057
-13.4209
-13.5309
-13.6355
-13.7348
-13.8286
-13.9166
-13.9985
-14.0738
-14.142
-14.2024
-14.2542
-14.2967
-14.3288
-14.3496
-14.3582
-14.3534
-10.6902
-10.7502
-10.9092
-11.1111
-11.3184
-11.5249
-11.7269
-11.9196
-12.1016
-12.2734
-12.4359
-12.5898
-12.7356
-12.8742
-13.006
-13.1314
-13.2508
-13.3643
-13.4721
-13.5741
-13.6704
-13.7607
-13.8449
-13.9227
-13.9935
-14.0571
-14.1129
-14.1602
-14.1984
-14.2269
-14.245
-14.2521
-14.2476
-10.7658
-10.8166
-10.9522
-11.1289
-11.3162
-11.5074
-11.6978
-11.8825
-12.0592
-12.2277
-12.3881
-12.5406
-12.6855
-12.8233
-12.9542
-13.0786
-13.1966
-13.3085
-13.4142
-13.5139
-13.6073
-13.6945
-13.7753
-13.8493
-13.9164
-13.976
-14.0279
-14.0717
-14.1067
-14.1327
-14.1492
-14.1561
-14.1529
-10.8223
-10.8662
-10.9837
-11.1402
-11.3108
-11.4886
-11.6688
-11.8461
-12.0179
-12.1831
-12.3414
-12.4925
-12.6364
-12.7733
-12.9033
-13.0266
-13.1433
-13.2535
-13.3573
-13.4546
-13.5455
-13.6298
-13.7074
-13.7781
-13.8418
-13.8981
-13.9468
-13.9876
-14.0203
-14.0446
-14.0604
-14.0677
-14.0664
-10.8609
-10.8995
-11.0033
-11.1438
-11.3006
-11.4673
-11.6387
-11.8096
-11.977
-12.1393
-12.2957
-12.4455
-12.5885
-12.7246
-12.8538
-12.9762
-13.0917
-13.2004
-13.3024
-13.3977
-13.4862
-13.568
-13.6428
-13.7107
-13.7715
-13.8251
-13.8712
-13.9099
-13.9409
-13.9642
-13.98
-13.9882
-13.9891
-10.8826
-10.9172
-11.0106
-11.1388
-11.2847
-11.4423
-11.6065
-11.7721
-11.9358
-12.0958
-12.2505
-12.3993
-12.5416
-12.677
-12.8054
-12.9268
-13.0412
-13.1485
-13.2489
-13.3422
-13.4285
-13.5079
-13.5802
-13.6456
-13.7038
-13.755
-13.799
-13.8359
-13.8656
-13.8884
-13.9043
-13.9137
-13.9169
-10.8876
-10.9193
-11.0051
-11.1243
-11.2619
-11.4126
-11.5714
-11.733
-11.8941
-12.0524
-12.2062
-12.3544
-12.4963
-12.6314
-12.7594
-12.8803
-12.9938
-13.1
-13.1989
-13.2906
-13.3752
-13.4525
-13.5227
-13.5859
-13.6421
-13.6913
-13.7336
-13.7692
-13.7981
-13.8207
-13.837
-13.8476
-13.8528
-10.876
-10.9057
-10.9864
-11.0992
-11.2311
-11.3772
-11.5323
-11.6914
-11.8509
-12.0083
-12.1617
-12.3098
-12.4516
-12.5866
-12.7144
-12.8347
-12.9474
-13.0526
-13.1502
-13.2404
-13.3231
-13.3986
-13.4668
-13.528
-13.5822
-13.6296
-13.6704
-13.7048
-13.733
-13.7553
-13.772
-13.7836
-13.7906
-10.8475
-10.8761
-10.9536
-11.0628
-11.1915
-11.3351
-11.4887
-11.6471
-11.8066
-11.9644
-12.1185
-12.2674
-12.41
-12.5456
-12.6737
-12.794
-12.9065
-13.0111
-13.1078
-13.1968
-13.2782
-13.3521
-13.4187
-13.4782
-13.5308
-13.5768
-13.6163
-13.6497
-13.6773
-13.6994
-13.7164
-13.7289
-13.7371
-10.8013
-10.8294
-10.9059
-11.0139
-11.1418
-11.2852
-11.4392
-11.5984
-11.7591
-11.9183
-12.0739
-12.2241
-12.3678
-12.5042
-12.6328
-12.7533
-12.8656
-12.9696
-13.0654
-13.1532
-13.2332
-13.3056
-13.3706
-13.4284
-13.4794
-13.5238
-13.562
-13.5944
-13.6212
-13.6429
-13.6599
-13.6727
-13.6819
-10.7362
-10.7646
-10.842
-10.9515
-11.0815
-11.2276
-11.3846
-11.5473
-11.7115
-11.8741
-12.0329
-12.186
-12.3322
-12.4705
-12.6005
-12.7219
-12.8346
-12.9386
-13.034
-13.1211
-13.2
-13.2711
-13.3347
-13.3911
-13.4406
-13.4837
-13.5207
-13.552
-13.5779
-13.5991
-13.6158
-13.6286
-13.6379
-10.6504
-10.6799
-10.7602
-10.8736
-11.008
-11.1589
-11.3208
-11.4884
-11.6573
-11.8243
-11.987
-12.1435
-12.2925
-12.4331
-12.5648
-12.6873
-12.8005
-12.9045
-12.9996
-13.0859
-13.1637
-13.2335
-13.2956
-13.3504
-13.3983
-13.4398
-13.4753
-13.5052
-13.5301
-13.5502
-13.5663
-13.5787
-13.5879
-10.5416
-10.5732
-10.6591
-10.7801
-10.9232
-11.0832
-11.2545
-11.4311
-11.6083
-11.7828
-11.952
-12.114
-12.2674
-12.4116
-12.5459
-12.6703
-12.7846
-12.8891
-12.9841
-13.0698
-13.1468
-13.2153
-13.276
-13.3293
-13.3756
-13.4154
-13.4493
-13.4777
-13.501
-13.5199
-13.5347
-13.546
-13.554
-10.4063
-10.4407
-10.5342
-10.6652
-10.8186
-10.9892
-11.171
-11.3575
-11.5439
-11.7268
-11.9035
-12.0719
-12.2307
-12.3791
-12.5168
-12.6435
-12.7593
-12.8646
-12.9596
-13.0449
-13.1209
-13.1882
-13.2474
-13.2989
-13.3433
-13.3812
-13.4131
-13.4395
-13.4611
-13.4782
-13.4915
-13.5014
-13.5083
-10.2404
-10.28
-10.3871
-10.5358
-10.7081
-10.8975
-11.0972
-11.2999
-11.5005
-11.6955
-11.8822
-12.0589
-12.2243
-12.3779
-12.5192
-12.6485
-12.766
-12.872
-12.967
-13.0517
-13.1266
-13.1924
-13.2497
-13.2991
-13.3413
-13.3769
-13.4064
-13.4304
-13.4495
-13.4642
-13.4749
-13.4823
-13.4866
-10.0365
-10.0809
-10.2018
-10.3676
-10.5572
-10.7649
-10.983
-11.2035
-11.4206
-11.6304
-11.8301
-12.0177
-12.1921
-12.3528
-12.4996
-12.6328
-12.7528
-12.8602
-12.9557
-13.04
-13.1138
-13.1781
-13.2334
-13.2806
-13.3203
-13.3532
-13.38
-13.4012
-13.4176
-13.4296
-13.4378
-13.4429
-13.4451
-9.78975
-9.84868
-10.0022
-10.2058
-10.431
-10.6707
-10.9169
-11.1609
-11.3975
-11.6234
-11.8362
-12.0342
-12.2168
-12.3836
-12.535
-12.6711
-12.7928
-12.9009
-12.996
-13.0792
-13.1513
-13.2132
-13.2657
-13.3098
-13.3461
-13.3754
-13.3984
-13.4158
-13.4281
-13.4361
-13.4401
-13.4408
-13.4385
-9.47793
-9.53929
-9.71278
-9.94287
-10.1985
-10.473
-10.7547
-11.0319
-11.2982
-11.5498
-11.784
-11.9994
-12.1956
-12.3727
-12.5315
-12.6727
-12.7975
-12.9069
-13.0022
-13.0845
-13.155
-13.2146
-13.2644
-13.3054
-13.3383
-13.3641
-13.3834
-13.397
-13.4056
-13.4098
-13.4101
-13.4074
-13.4019
-9.11143
-9.22799
-9.48692
-9.78811
-10.0948
-10.4097
-10.7242
-11.0277
-11.3156
-11.5853
-11.8346
-12.0623
-12.2682
-12.4528
-12.6168
-12.7613
-12.8876
-12.997
-13.0909
-13.1707
-13.2377
-13.2932
-13.3382
-13.3739
-13.4013
-13.4212
-13.4344
-13.4418
-13.4439
-13.4415
-13.4352
-13.4255
-13.4132
-8.5779
-8.66832
-8.96486
-9.33372
-9.72108
-10.1194
-10.5083
-10.8737
-11.2121
-11.5215
-11.8009
-12.0509
-12.2728
-12.4684
-12.6395
-12.7883
-12.9166
-13.0264
-13.1194
-13.1973
-13.2617
-13.314
-13.3554
-13.3873
-13.4105
-13.426
-13.4347
-13.4373
-13.4345
-13.4269
-13.4153
-13.4005
-13.3832
-8.07901
-8.40078
-8.86692
-9.28321
-9.69003
-10.1145
-10.5282
-10.9178
-11.2814
-11.6155
-11.9171
-12.1858
-12.4224
-12.6285
-12.8063
-12.958
-13.0862
-13.1932
-13.2814
-13.3529
-13.4097
-13.4536
-13.486
-13.5085
-13.5222
-13.5281
-13.5271
-13.5199
-13.5071
-13.4892
-13.4666
-13.4402
-13.4102
-6.77389
-7.09498
-7.86639
-8.56352
-9.19664
-9.79877
-10.3379
-10.8137
-11.2366
-11.6104
-11.9385
-12.2252
-12.4743
-12.6892
-12.8732
-13.0291
-13.1598
-13.2679
-13.3558
-13.4258
-13.4802
-13.5206
-13.549
-13.5667
-13.5751
-13.5752
-13.5679
-13.5539
-13.5333
-13.5065
-13.4729
-13.4338
-13.3849
-6.7595
-7.50393
-8.10691
-8.57177
-9.16911
-9.79922
-10.3853
-10.9299
-11.4264
-11.8645
-12.2432
-12.5659
-12.8371
-13.0616
-13.2448
-13.392
-13.5083
-13.5979
-13.6649
-13.7127
-13.7443
-13.7623
-13.7689
-13.766
-13.755
-13.7372
-13.7136
-13.6846
-13.6504
-13.6099
-13.5606
-13.4995
-13.4124
-0.506676
-5.11437
-6.89737
-7.74634
-8.7462
-9.61915
-10.3156
-10.9182
-11.4433
-11.8913
-12.271
-12.5909
-12.8574
-13.0768
-13.2552
-13.3981
-13.5105
-13.5967
-13.6607
-13.7058
-13.7351
-13.7511
-13.7558
-13.7513
-13.7391
-13.7205
-13.6967
-13.6685
-13.6371
-13.6023
-13.5667
-13.5255
-13.4902
-16.7428
-18.3121
-20.9333
-22.8442
-22.6483
-19.8018
-14.922
-9.4334
-4.8488
-2.12308
-1.54889
-2.92074
-5.93966
-10.3826
-16.3005
-23.6217
-31.8682
-40.2179
-47.7411
-53.6181
-57.2216
-58.2192
-56.4613
-52.1156
-45.6588
-37.4906
-28.0517
-18.5088
-10.4396
-4.54997
-0.552391
2.07443
3.65666
4.26217
3.7995
1.85914
-2.13531
-8.42565
-16.5964
-25.6644
-34.5398
-42.3208
-48.32
-52.0109
-53.0938
-51.4402
-47.2951
-41.2252
-34.0702
-26.8137
-20.2634
-14.8088
-10.4756
-7.12205
-4.57391
-2.67083
-1.27434
-0.268813
0.439378
0.924247
1.24333
1.44081
1.55026
1.59703
1.60015
1.5738
1.52844
1.4717
1.409
1.34408
1.27939
1.21643
1.156
1.09835
1.04342
0.990858
0.940225
0.891048
0.8429
0.795465
0.748567
0.702183
0.656423
0.611489
0.56761
0.525
0.483778
0.443993
0.405508
0.368273
0.331836
0.296467
0.260869
0.227032
0.190144
0.159665
0.115643
0.0991048
0.025149
0.069887
-17.1387
-18.4906
-20.7721
-22.2994
-21.8574
-19.0328
-14.4083
-9.25513
-4.93567
-2.34298
-1.78751
-3.0197
-5.83992
-10.0498
-15.5846
-22.3812
-30.0456
-37.8554
-44.9516
-50.545
-54.0172
-55.0313
-53.4495
-49.4446
-43.4078
-35.6465
-26.6507
-17.6636
-10.1535
-4.66308
-0.888261
1.6191
3.12863
3.69015
3.21483
1.39254
-2.24851
-7.96137
-15.444
-23.8603
-32.1976
-39.5629
-45.2638
-48.7771
-49.8252
-48.2857
-44.4153
-38.7891
-32.2257
-25.6116
-19.6204
-14.5676
-10.4863
-7.27677
-4.80357
-2.9324
-1.54154
-0.526234
0.200126
0.707173
1.04982
1.27072
1.40262
1.47041
1.49286
1.48403
1.45432
1.41135
1.36056
1.30576
1.24953
1.19352
1.13867
1.08543
1.03389
0.983925
0.935243
0.887535
0.840502
0.793935
0.747733
0.701922
0.656644
0.6121
0.568531
0.52614
0.48506
0.44534
0.406852
0.369571
0.333043
0.297556
0.261814
0.227829
0.190771
0.160175
0.115948
0.0994346
0.0250336
0.0704201
-17.2257
-18.4388
-20.2458
-21.3327
-20.6819
-18.01
-13.8553
-9.29214
-5.42907
-3.01689
-2.40747
-3.51961
-6.08584
-10.0011
-15.1278
-21.3552
-28.3766
-35.5741
-42.1662
-47.4101
-50.7056
-51.7181
-50.3236
-46.6727
-41.045
-33.6881
-25.1809
-16.8269
-9.92516
-4.84924
-1.30241
1.08186
2.51475
3.03211
2.55147
0.831101
-2.49081
-7.64667
-14.4214
-22.1275
-29.8571
-36.7496
-42.1157
-45.4351
-46.4468
-45.0407
-41.4876
-36.3609
-30.4279
-24.4573
-19.0026
-14.33
-10.4902
-7.42301
-5.02668
-3.19024
-1.80756
-0.784445
-0.0412779
0.487127
0.852937
1.09718
1.25165
1.3407
1.38279
1.39181
1.37808
1.34917
1.31057
1.26615
1.21859
1.16969
1.12057
1.07185
1.02383
0.976533
0.929869
0.883679
0.837798
0.792126
0.746644
0.701429
0.656653
0.612531
0.569303
0.52717
0.486259
0.446627
0.408153
0.370826
0.334206
0.298598
0.262713
0.228588
0.191377
0.160676
0.116272
0.0997642
0.0249849
0.0708872
-17.2272
-18.1865
-19.4458
-20.0663
-19.2769
-16.906
-13.4015
-9.58994
-6.31852
-4.17461
-3.49377
-4.38687
-6.70735
-10.2548
-14.9329
-20.5747
-26.9064
-33.43
-39.4572
-44.2987
-47.3763
-48.3741
-47.1708
-43.8578
-38.6017
-31.6417
-23.6826
-16.0341
-9.76537
-5.10173
-1.78194
0.476092
1.82957
2.303
1.82445
0.198288
-2.8378
-7.46967
-13.5433
-20.506
-27.5723
-33.9401
-38.9366
-42.0454
-43.0249
-41.7808
-38.5938
-34.0125
-28.7221
-23.3691
-18.4133
-14.095
-10.4862
-7.55984
-5.2425
-3.44364
-2.07177
-1.04292
-0.284414
0.264432
0.652937
0.920375
1.09749
1.20801
1.27004
1.29724
1.2998
1.28527
1.25914
1.22535
1.1867
1.14512
1.10191
1.05787
1.01347
0.96896
0.9244
0.879795
0.835119
0.790378
0.745636
0.701024
0.656746
0.613031
0.570124
0.528227
0.48747
0.447914
0.409453
0.372084
0.335382
0.299661
0.263639
0.229371
0.192001
0.161173
0.116595
0.100053
0.024966
0.0712412
-16.9959
-17.6585
-18.4259
-18.678
-17.8762
-15.9091
-13.1054
-10.0669
-7.42208
-5.61756
-4.95929
-5.60282
-7.59466
-10.7764
-14.9839
-20.0535
-25.6981
-31.5066
-36.9138
-41.304
-44.1236
-45.0922
-44.0609
-41.0344
-36.0939
-29.5338
-22.1994
-15.3117
-9.67568
-5.41127
-2.3157
-0.187186
1.08542
1.5159
1.04584
-0.485314
-3.26545
-7.42075
-12.8304
-19.0503
-25.4198
-31.2191
-35.8116
-38.698
-39.6508
-38.6006
-35.818
-31.7992
-27.1306
-22.3502
-17.8517
-13.8631
-10.4753
-7.68817
-5.45138
-3.69261
-2.33402
-1.30149
-0.529116
0.0392326
0.449938
0.740412
0.940242
1.07245
1.1547
1.20039
1.21958
1.21973
1.20634
1.18343
1.15389
1.1198
1.08263
1.04338
1.00271
0.961044
0.918643
0.875664
0.832221
0.788431
0.744443
0.700445
0.656676
0.613383
0.570816
0.529179
0.488597
0.44914
0.410706
0.373305
0.336525
0.300693
0.264536
0.230126
0.192607
0.161651
0.116923
0.10032
0.0250094
0.0714927
-16.6975
-17.1322
-17.5558
-17.5701
-16.8094
-15.1945
-12.9606
-10.5485
-8.4394
-7.02473
-6.48596
-6.99118
-8.64717
-11.4427
-15.2081
-19.7387
-24.7585
-29.8811
-34.6412
-38.5283
-41.0553
-41.9829
-41.0672
-38.2283
-33.5321
-27.4089
-20.788
-14.684
-9.65364
-5.7667
-2.8909
-0.89447
0.296886
0.68745
0.230354
-1.20311
-3.75027
-7.48219
-12.2875
-17.8013
-23.4736
-28.6812
-32.8455
-35.503
-36.4406
-35.606
-33.2384
-29.762
-25.6652
-21.4004
-17.3164
-13.6341
-10.4582
-7.80826
-5.65328
-3.93694
-2.59406
-1.55988
-0.77514
-0.188259
0.244122
0.557447
0.780046
0.934142
1.0369
1.1014
1.13753
1.15266
1.15229
1.14049
1.12027
1.09385
1.06287
1.02853
0.991689
0.952961
0.912784
0.871484
0.829313
0.786502
0.743285
0.69991
0.65665
0.613772
0.571534
0.530142
0.489726
0.450358
0.41195
0.374519
0.337666
0.301729
0.265444
0.230892
0.193225
0.162127
0.117261
0.100554
0.0251054
0.0716131
-16.3937
-16.6663
-16.8659
-16.7336
-16.024
-14.6848
-12.8884
-10.9628
-9.27889
-8.15947
-7.78059
-8.26167
-9.6897
-12.1112
-15.4511
-19.5014
-23.9757
-28.5142
-32.6963
-36.0937
-38.3063
-39.1475
-38.202
-35.3993
-30.9207
-25.3378
-19.5046
-14.163
-9.69065
-6.15616
-3.49546
-1.6326
-0.522023
-0.167243
-0.607284
-1.94108
-4.27053
-7.62664
-11.8961
-16.7689
-21.7834
-26.4105
-30.1452
-32.5764
-33.5045
-32.8816
-30.9021
-27.9137
-24.3215
-20.5137
-16.8051
-13.4085
-10.4357
-7.92088
-5.84854
-4.17671
-2.85181
-1.81796
-1.02235
-0.417906
0.03562
0.371608
0.617028
0.793219
0.916771
1.00041
1.0538
1.08421
1.09712
1.09666
1.08594
1.06733
1.04267
1.01333
0.980386
0.944645
0.906733
0.867138
0.826258
0.784437
0.741996
0.699247
0.656499
0.614044
0.572145
0.531013
0.490779
0.451518
0.41315
0.3757
0.338783
0.302743
0.266333
0.231637
0.193828
0.162581
0.117598
0.10075
0.0252638
0.0715973
-16.0961
-16.2536
-16.3092
-16.0936
-15.4458
-14.3337
-12.886
-11.3491
-10.0088
-9.12293
-8.86
-9.33069
-10.5978
-12.6963
-15.6006
-19.1752
-23.157
-27.197
-30.9034
-33.9004
-35.8635
-36.3566
-35.2284
-32.4505
-28.3261
-23.423
-18.3917
-13.7471
-9.77511
-6.56833
-4.11752
-2.38807
-1.35686
-1.03353
-1.45235
-2.68629
-4.80948
-7.82746
-11.6253
-15.9329
-20.3571
-24.4493
-27.7791
-29.9928
-30.904
-30.4615
-28.8144
-26.2434
-23.0874
-19.6838
-16.3168
-13.1873
-10.4092
-8.02675
-6.03754
-4.41205
-3.10728
-2.07566
-1.27062
-0.649582
-0.175436
0.183032
0.451334
0.649835
0.794482
0.897587
0.968554
1.01454
1.04099
1.05208
1.05103
1.04039
1.02215
0.997906
0.968925
0.936225
0.900617
0.862759
0.823191
0.782375
0.74072
0.698599
0.656364
0.614325
0.572758
0.531878
0.491818
0.452659
0.414329
0.376862
0.339884
0.303748
0.267219
0.232382
0.194438
0.16303
0.117952
0.100912
0.0254936
0.0714275
-15.8129
-15.888
-15.8524
-15.5953
-15.014
-14.0917
-12.9266
-11.7049
-10.6476
-9.96029
-9.79189
-10.2425
-11.3644
-13.1781
-15.6612
-18.722
-22.1659
-25.6901
-28.926
-31.4964
-33.0353
-33.2441
-32.046
-29.5082
-25.9308
-21.7597
-17.4615
-13.4226
-9.89436
-6.99285
-4.74587
-3.14815
-2.19426
-1.89875
-2.29237
-3.42718
-5.35466
-8.06396
-11.4431
-15.2548
-19.1617
-22.7807
-25.7451
-27.7525
-28.63
-28.3245
-26.9479
-24.7273
-21.9489
-18.9056
-15.8512
-12.9718
-10.3799
-8.12681
-6.22085
-4.64327
-3.36058
-2.333
-1.51993
-0.883221
-0.388956
-0.00816655
0.283103
0.504151
0.670209
0.793116
0.881991
0.943841
0.984076
1.00692
1.01571
1.01314
1.0014
0.982309
0.957331
0.927697
0.894409
0.858296
0.820044
0.780232
0.73936
0.697865
0.656139
0.614518
0.573287
0.532668
0.492794
0.453751
0.415473
0.378
0.340969
0.30474
0.268095
0.233114
0.195038
0.163457
0.118305
0.101023
0.0257922
0.0710878
-15.5496
-15.5677
-15.4779
-15.2085
-14.6958
-13.9342
-12.9998
-12.0345
-11.2097
-10.6888
-10.5977
-11.0241
-12.0141
-13.5769
-15.6829
-18.2486
-21.1195
-24.0555
-26.7446
-28.8379
-30.0267
-30.116
-29.0499
-26.8984
-23.8957
-20.3745
-16.6924
-13.1698
-10.0371
-7.42057
-5.37011
-3.9012
-3.02217
-2.75143
-3.11667
-4.15375
-5.8961
-8.32152
-11.324
-14.696
-18.1473
-21.3496
-23.9869
-25.7991
-26.6279
-26.4223
-25.2658
-23.3434
-20.8961
-18.1766
-15.4089
-12.7633
-10.349
-8.22205
-6.39916
-4.87079
-3.61197
-2.59011
-1.77032
-1.11881
-0.60488
-0.201884
0.112476
0.356345
0.544155
0.687222
0.794338
0.872343
0.9266
0.961376
0.980135
0.985737
0.980578
0.966675
0.945728
0.919174
0.888213
0.853847
0.816909
0.778098
0.738004
0.69713
0.655906
0.614696
0.573795
0.533429
0.493736
0.454806
0.416579
0.379101
0.342024
0.305709
0.268957
0.233834
0.195639
0.163875
0.118678
0.101096
0.0261786
0.0705653
-15.3098
-15.29
-15.1714
-14.908
-14.4624
-13.8365
-13.0906
-12.3334
-11.6982
-11.3145
-11.2874
-11.6908
-12.5641
-13.9107
-15.696
-17.8398
-20.2056
-22.5964
-24.7643
-26.4459
-27.4026
-27.4589
-26.5525
-24.7458
-22.2163
-19.2206
-16.0485
-12.9713
-10.1946
-7.84362
-5.98114
-4.6371
-3.83018
-3.58158
-3.9161
-4.85773
-6.42555
-8.58977
-11.2513
-14.2288
-17.2731
-20.1028
-22.4434
-24.0723
-24.8456
-24.715
-23.7423
-22.0777
-19.9233
-17.4952
-14.9903
-12.563
-10.3179
-8.31363
-6.57332
-5.0952
-3.86184
-2.84725
-2.02195
-1.35642
-0.823201
-0.398046
-0.0604099
0.2066
0.416545
0.580154
0.705858
0.800307
0.868811
0.915687
0.944526
0.958366
0.959811
0.951109
0.934185
0.910697
0.882045
0.849407
0.813766
0.77594
0.736612
0.696347
0.655619
0.614816
0.574246
0.53414
0.494637
0.45583
0.417665
0.380193
0.343076
0.306677
0.26982
0.234551
0.196239
0.16427
0.119055
0.101108
0.0266462
0.069837
-15.0939
-15.0507
-14.9206
-14.6749
-14.2933
-13.7826
-13.1909
-12.6026
-12.1211
-11.8489
-11.8721
-12.2523
-13.0218
-14.1816
-15.6971
-17.4941
-19.4538
-21.4121
-23.1709
-24.5254
-25.2803
-25.2883
-24.4998
-22.9616
-20.8077
-18.2424
-15.5029
-12.8156
-10.36
-8.25539
-6.57129
-5.34729
-4.60934
-4.38051
-4.68284
-5.5322
-6.93617
-8.86057
-11.2132
-13.8358
-16.5143
-19.008
-21.0801
-22.5379
-23.2533
-23.1796
-22.3619
-20.9213
-19.026
-16.8602
-14.5959
-12.3723
-10.288
-8.40279
-6.74434
-5.31728
-4.11077
-3.10482
-2.27509
-1.59621
-1.04397
-0.596611
-0.235429
0.0551162
0.287631
0.4722
0.616854
0.728039
0.811004
0.870124
0.909126
0.931239
0.939293
0.935772
0.92284
0.902381
0.876
0.845055
0.810679
0.773812
0.735226
0.695552
0.655305
0.614897
0.574647
0.534793
0.495475
0.45679
0.418689
0.381227
0.344077
0.307603
0.270653
0.235245
0.196833
0.164651
0.119456
0.101072
0.0272185
0.0688901
-14.9016
-14.8457
-14.7155
-14.4941
-14.1719
-13.7585
-13.293
-12.8411
-12.4833
-12.3002
-12.3617
-12.718
-13.3949
-14.3913
-15.6755
-17.1815
-18.8075
-20.4166
-21.847
-22.9285
-23.5087
-23.4732
-22.7771
-21.4534
-19.6086
-17.4064
-15.0392
-12.6944
-10.5277
-8.65038
-7.13425
-6.02465
-5.35222
-5.14108
-5.41073
-6.17163
-7.42241
-9.12707
-11.2004
-13.5042
-15.8547
-18.046
-19.8746
-21.1745
-21.831
-21.7997
-21.1124
-19.866
-18.1998
-16.27
-14.2259
-12.1922
-10.2609
-8.49093
-6.91341
-5.53799
-4.35949
-3.36339
-2.53016
-1.83845
-1.26732
-0.797578
-0.412466
-0.0978986
0.157692
0.363684
0.527676
0.655888
0.753513
0.824992
0.874204
0.904586
0.919209
0.920809
0.911802
0.894303
0.87013
0.840824
0.80767
0.771726
0.733856
0.694754
0.654976
0.614957
0.575027
0.535428
0.496304
0.457749
0.419721
0.382275
0.345097
0.308548
0.271505
0.235947
0.197435
0.165013
0.119869
0.100966
0.0278901
0.0676959
-14.7313
-14.6705
-14.5477
-14.3536
-14.0855
-13.7542
-13.3919
-13.0497
-12.7905
-12.6776
-12.7667
-13.098
-13.6918
-14.5453
-15.6294
-16.8869
-18.2311
-19.5481
-20.7054
-21.5643
-22.0039
-21.9322
-21.3115
-20.1673
-18.5836
-16.6908
-14.6445
-12.6004
-10.6929
-9.02417
-7.66503
-6.66351
-6.05288
-5.8576
-6.09495
-6.77167
-7.87997
-9.38368
-11.2049
-13.2229
-15.2799
-17.1997
-18.8087
-19.9625
-20.5602
-20.5596
-19.9819
-18.904
-17.4405
-15.723
-13.8806
-12.024
-10.2379
-8.57957
-7.08189
-5.7585
-4.609
-3.62376
-2.78774
-2.08354
-1.49348
-1.001
-0.591425
-0.252224
0.0270405
0.254981
0.438726
0.584263
0.696734
0.780659
0.840089
0.878695
0.899805
0.906425
0.901234
0.886592
0.864532
0.836781
0.804778
0.7697
0.7325
0.693934
0.654597
0.614946
0.575321
0.535968
0.497031
0.458606
0.420655
0.383232
0.346039
0.309427
0.272309
0.236614
0.198025
0.165354
0.120307
0.1008
0.0286858
0.0662375
-14.5812
-14.521
-14.4099
-14.2439
-14.0241
-13.7619
-13.4834
-13.229
-13.0476
-12.9887
-13.0962
-13.402
-13.9212
-14.6498
-15.5616
-16.6073
-17.7135
-18.786
-19.7163
-20.3931
-20.7179
-20.6177
-20.0619
-19.0694
-17.7063
-16.0768
-14.3073
-12.5272
-10.8518
-9.37341
-8.15989
-7.25963
-6.70686
-6.52582
-6.73184
-7.32896
-8.30556
-9.62602
-11.22
-12.9819
-14.7767
-16.4534
-17.8643
-18.8842
-19.4244
-19.4452
-18.9596
-18.0279
-16.7438
-15.2177
-13.5602
-11.8689
-10.2208
-8.67039
-7.25138
-5.98024
-4.86053
-3.88694
-3.04866
-2.33206
-1.72278
-1.207
-0.77223
-0.407627
-0.103973
0.146515
0.350466
0.513628
0.641105
0.737522
0.80713
0.853857
0.881318
0.892808
0.891283
0.879358
0.859291
0.832996
0.802065
0.767794
0.731222
0.693165
0.654253
0.614962
0.575642
0.536538
0.497795
0.459507
0.421638
0.384242
0.347033
0.310354
0.273155
0.237305
0.198638
0.165682
0.120771
0.100555
0.0296063
0.0644807
-14.4489
-14.393
-14.296
-14.1572
-13.98
-13.7753
-13.5646
-13.3799
-13.2591
-13.2407
-13.359
-13.6386
-14.0907
-14.7102
-15.474
-16.3396
-17.2456
-18.114
-18.8562
-19.3833
-19.6149
-19.493
-18.9928
-18.1286
-16.9526
-15.5483
-14.0182
-12.4695
-11.0013
-9.69568
-8.61626
-7.81008
-7.3111
-7.1428
-7.31889
-7.84133
-8.69683
-9.85079
-11.2403
-12.7732
-14.3338
-15.7934
-17.0261
-17.9237
-18.4085
-18.4435
-18.0354
-17.2309
-16.1061
-14.7527
-13.265
-11.728
-10.2111
-8.76523
-7.4237
-6.20491
-5.1156
-4.15425
-3.31394
-2.58477
-1.9557
-1.41577
-0.954835
-0.56386
-0.234955
0.0387753
0.263433
0.444532
0.587159
0.696075
0.775768
0.830457
0.864068
0.880215
0.882149
0.872748
0.854503
0.829518
0.799539
0.76598
0.729962
0.692356
0.653825
0.614864
0.575826
0.536959
0.498404
0.460253
0.422474
0.385117
0.347912
0.311185
0.273933
0.237945
0.19923
0.16598
0.121264
0.100234
0.0306758
0.0624002
-14.3326
-14.2832
-14.2012
-14.0877
-13.9474
-13.7904
-13.6343
-13.5043
-13.4298
-13.4408
-13.5637
-13.817
-14.2087
-14.7331
-15.3699
-16.0828
-16.8204
-17.5189
-18.1064
-18.5095
-18.6655
-18.5276
-18.0758
-17.3208
-16.304
-15.0922
-13.769
-12.4231
-11.1391
-9.98948
-9.03261
-8.31314
-7.86376
-7.70684
-7.85465
-8.30776
-9.0523
-10.0555
-11.2613
-12.5899
-13.9418
-15.2079
-16.2806
-17.067
-17.4993
-17.543
-17.2003
-16.5068
-15.5236
-14.3265
-12.995
-11.6025
-10.2107
-8.86609
-7.60094
-6.43455
-5.3761
-4.42733
-3.58494
-2.84267
-2.19287
-1.62761
-1.13922
-0.72066
-0.365461
-0.0676823
0.178235
0.377583
0.535467
0.656831
0.746443
0.808857
0.848356
0.868886
0.874019
0.866914
0.850296
0.826465
0.797319
0.764384
0.728859
0.691667
0.653498
0.614858
0.576102
0.537474
0.499114
0.461106
0.423418
0.386098
0.348889
0.312101
0.274781
0.238632
0.199866
0.166277
0.121799
0.0998261
0.0319042
0.059955
-14.2295
-14.1878
-14.1205
-14.0299
-13.9212
-13.8031
-13.6904
-13.6028
-13.5632
-13.5944
-13.7168
-13.944
-14.2813
-14.7229
-15.2508
-15.8342
-16.4307
-16.9877
-17.4468
-17.7495
-17.8448
-17.6959
-17.2865
-16.6249
-15.7439
-14.6972
-13.5528
-12.3844
-11.2636
-10.254
-9.40835
-8.76812
-8.36412
-8.21731
-8.33866
-8.72789
-9.37124
-10.2384
-11.2798
-12.4261
-13.5926
-14.6864
-15.6161
-16.3018
-16.6847
-16.7332
-16.4459
-15.8495
-14.9927
-13.9375
-12.7503
-11.4936
-10.2213
-8.97522
-7.7855
-6.67158
-5.64433
-4.70824
-3.86337
-3.10705
-2.43515
-1.84292
-1.32542
-0.877738
-0.494975
-0.172196
0.0956039
0.313527
0.486747
0.620448
0.719738
0.789558
0.834581
0.859133
0.867124
0.862005
0.846747
0.823847
0.795353
0.7629
0.727761
0.6909
0.653034
0.614672
0.57617
0.537766
0.499595
0.461734
0.424151
0.386887
0.349705
0.312888
0.275538
0.239251
0.200474
0.166532
0.122367
0.0993225
0.0333143
0.0571072
-14.1383
-14.1048
-14.0514
-13.9811
-13.8988
-13.8124
-13.7337
-13.6785
-13.6644
-13.7087
-13.8267
-14.0284
-14.3169
-14.6864
-15.1211
-15.5952
-16.0735
-16.513
-16.8665
-17.0871
-17.134
-16.9779
-16.6057
-16.0241
-15.2592
-14.3541
-13.3642
-12.3505
-11.3737
-10.4891
-9.74365
-9.17526
-8.81243
-8.67451
-8.77132
-9.10206
-9.65362
-10.3985
-11.2929
-12.2772
-13.2791
-14.2199
-15.0219
-15.617
-15.954
-16.0045
-15.7645
-15.2536
-14.5102
-13.5844
-12.5309
-11.4024
-10.2449
-9.09507
-7.98017
-6.91891
-5.92311
-4.99953
-4.15138
-3.37956
-2.68362
-2.06225
-1.5135
-1.03479
-0.622925
-0.274035
0.0163409
0.253161
0.441743
0.587586
0.696216
0.773022
0.823127
0.851266
0.861716
0.858237
0.844053
0.821857
0.793846
0.761755
0.726921
0.690345
0.652756
0.614665
0.576418
0.538242
0.500265
0.462553
0.425071
0.387852
0.350681
0.313806
0.276405
0.239947
0.201152
0.166803
0.123001
0.0987241
0.0349287
0.0538081
-14.056
-14.0304
-13.9896
-13.9367
-13.8762
-13.815
-13.7627
-13.7316
-13.7352
-13.7868
-13.8975
-14.0746
-14.3193
-14.626
-14.9812
-15.3632
-15.7429
-16.0852
-16.3522
-16.5064
-16.5151
-16.3552
-16.0162
-15.5035
-14.838
-14.0544
-13.1979
-12.319
-11.4688
-10.6951
-10.0393
-9.53552
-9.20971
-9.07951
-9.15368
-9.43119
-9.89988
-10.5351
-11.2986
-12.1392
-12.9954
-13.8005
-14.4889
-15.0026
-15.2976
-15.3481
-15.1488
-14.7136
-14.0724
-13.2653
-12.3367
-11.3301
-10.2836
-9.22841
-8.18819
-7.18
-6.21589
-5.30441
-4.4517
-3.66231
-2.93969