/*--------------------------------*- C++ -*----------------------------------*\
| =========                 |                                                 |
| \\      /  F ield         | OpenFOAM: The Open Source CFD Toolbox           |
|  \\    /   O peration     | Version:  2.1.1                                 |
|   \\  /    A nd           | Web:      www.OpenFOAM.org                      |
|    \\/     M anipulation  |                                                 |
\*---------------------------------------------------------------------------*/
FoamFile
{
    version     2.0;
    format      ascii;
    class       surfaceScalarField;
    location    "0.08";
    object      phi;
}
// * * * * * * * * * * * * * * * * * * * * * * * * * * * * * * * * * * * * * //

dimensions      [0 3 -1 0 0 0 0];

internalField   nonuniform List<scalar> 
13452
(
4.59993e-05
2.2488e-05
2.96656e-05
1.63337e-05
2.1191e-05
8.47459e-06
1.72912e-05
3.89978e-06
1.56501e-05
1.64104e-06
1.4843e-05
8.0716e-07
1.43329e-05
5.10072e-07
1.3943e-05
3.89864e-07
1.36135e-05
3.29594e-07
1.33289e-05
2.84572e-07
1.3085e-05
2.43877e-07
1.28782e-05
2.06773e-07
1.27046e-05
1.73593e-07
1.25603e-05
1.44305e-07
1.24419e-05
1.18433e-07
1.23466e-05
9.52796e-08
1.22725e-05
7.41209e-08
1.22182e-05
5.42822e-08
1.2183e-05
3.51986e-08
1.21669e-05
1.61076e-08
1.21703e-05
-3.43284e-09
1.21935e-05
-2.31273e-08
1.22379e-05
-4.4379e-08
1.23053e-05
-6.74785e-08
1.23973e-05
-9.19625e-08
1.25165e-05
-1.19257e-07
1.26659e-05
-1.49384e-07
1.28479e-05
-1.8192e-07
1.30667e-05
-2.18814e-07
1.33159e-05
-2.49245e-07
1.36068e-05
-2.90938e-07
1.38295e-05
-2.22638e-07
-3.78547e-07
1.4208e-05
7.49134e-05
1.80185e-05
7.04152e-05
2.0832e-05
6.33287e-05
1.55611e-05
5.66773e-05
1.05512e-05
5.15635e-05
6.75484e-06
4.79096e-05
4.46101e-06
4.52895e-05
3.13019e-06
4.33609e-05
2.31842e-06
4.18909e-05
1.79965e-06
4.07296e-05
1.44582e-06
3.97852e-05
1.18832e-06
3.9e-05
9.91951e-07
3.83367e-05
8.3688e-07
3.77701e-05
7.10899e-07
3.72827e-05
6.05907e-07
3.68617e-05
5.16222e-07
3.64981e-05
4.37685e-07
3.61853e-05
3.67148e-07
3.59183e-05
3.02148e-07
3.56938e-05
2.40602e-07
3.55094e-05
1.80998e-07
3.53644e-05
1.21931e-07
3.52583e-05
6.16587e-08
3.51932e-05
-2.31814e-09
3.51689e-05
-6.77118e-08
3.51888e-05
-1.39146e-07
3.52557e-05
-2.1632e-07
3.53742e-05
-3.00353e-07
3.55484e-05
-3.9303e-07
3.57863e-05
-4.87147e-07
3.60911e-05
-5.9571e-07
3.653e-05
-6.61633e-07
-8.01045e-07
3.69525e-05
7.85213e-05
1.19538e-05
8.23361e-05
1.70171e-05
8.29966e-05
1.49006e-05
8.14846e-05
1.20632e-05
7.89653e-05
9.27415e-06
7.62812e-05
7.14505e-06
7.37632e-05
5.64828e-06
7.15138e-05
4.56779e-06
6.95462e-05
3.76729e-06
6.78358e-05
3.15619e-06
6.63496e-05
2.67451e-06
6.5056e-05
2.28555e-06
6.39271e-05
1.96579e-06
6.29392e-05
1.69878e-06
6.20727e-05
1.47244e-06
6.13113e-05
1.27762e-06
6.06417e-05
1.10724e-06
6.00532e-05
9.55623e-07
5.95372e-05
8.18159e-07
5.90869e-05
6.90972e-07
5.86971e-05
5.70778e-07
5.83643e-05
4.54761e-07
5.80859e-05
3.40045e-07
5.78596e-05
2.23925e-07
5.76868e-05
1.05092e-07
5.75683e-05
-2.06732e-08
5.75075e-05
-1.5545e-07
5.75079e-05
-3.00747e-07
5.75732e-05
-4.58384e-07
5.77124e-05
-6.26276e-07
5.79291e-05
-8.1242e-07
5.82604e-05
-9.92946e-07
-1.21451e-06
5.86738e-05
7.81469e-05
8.33347e-06
8.19239e-05
1.32402e-05
8.46211e-05
1.22034e-05
8.6246e-05
1.04383e-05
8.69279e-05
8.59229e-06
8.70191e-05
7.05386e-06
8.67613e-05
5.90601e-06
8.62962e-05
5.03296e-06
8.57143e-05
4.34911e-06
8.5071e-05
3.79953e-06
8.44004e-05
3.34514e-06
8.3725e-05
2.96094e-06
8.30607e-05
2.63013e-06
8.24184e-05
2.341e-06
8.18054e-05
2.08549e-06
8.12259e-05
1.85714e-06
8.06826e-05
1.65055e-06
8.0177e-05
1.46116e-06
7.97101e-05
1.28503e-06
7.92825e-05
1.11865e-06
7.88944e-05
9.58858e-07
7.85464e-05
8.02733e-07
7.82391e-05
6.47313e-07
7.79734e-05
4.89684e-07
7.7751e-05
3.27529e-07
7.75726e-05
1.57689e-07
7.74399e-05
-2.27811e-08
7.73575e-05
-2.18323e-07
7.73295e-05
-4.30347e-07
7.7364e-05
-6.60786e-07
7.74685e-05
-9.16915e-07
7.76702e-05
-1.1947e-06
-1.52299e-06
7.79787e-05
7.89918e-05
5.99749e-06
8.15923e-05
1.06397e-05
8.35206e-05
1.02751e-05
8.49666e-05
8.99224e-06
8.59882e-05
7.57072e-06
8.67342e-05
6.30785e-06
8.73071e-05
5.33305e-06
8.7755e-05
4.58507e-06
8.81092e-05
3.99497e-06
8.83905e-05
3.51824e-06
8.86129e-05
3.12268e-06
8.87873e-05
2.78655e-06
8.89213e-05
2.49615e-06
8.90207e-05
2.24157e-06
8.90916e-05
2.01463e-06
8.91395e-05
1.80921e-06
8.91695e-05
1.62053e-06
8.91861e-05
1.44459e-06
8.91932e-05
1.27794e-06
8.91944e-05
1.11747e-06
8.91929e-05
9.6033e-07
8.91918e-05
8.03821e-07
8.91939e-05
6.45224e-07
8.92018e-05
4.8181e-07
8.92181e-05
3.11181e-07
8.92453e-05
1.30547e-07
8.92846e-05
-6.21078e-08
8.93364e-05
-2.7012e-07
8.94035e-05
-4.97417e-07
8.94907e-05
-7.48008e-07
8.96033e-05
-1.02951e-06
8.97548e-05
-1.34623e-06
-1.72097e-06
8.99528e-05
8.04635e-05
4.37993e-06
8.25067e-05
8.59651e-06
8.39944e-05
8.78738e-06
8.50563e-05
7.9304e-06
8.57823e-05
6.8447e-06
8.63012e-05
5.78892e-06
8.67146e-05
4.91965e-06
8.70699e-05
4.22975e-06
8.73905e-05
3.67437e-06
8.76881e-05
3.22065e-06
8.79677e-05
2.84306e-06
8.8232e-05
2.52232e-06
8.84831e-05
2.245e-06
8.87231e-05
2.00159e-06
8.89529e-05
1.78479e-06
8.91734e-05
1.58878e-06
8.93851e-05
1.40879e-06
8.95889e-05
1.24084e-06
8.97853e-05
1.08148e-06
8.99752e-05
9.27625e-07
9.0159e-05
7.76461e-07
9.03375e-05
6.2533e-07
9.05111e-05
4.71614e-07
9.06802e-05
3.12754e-07
9.08451e-05
1.46242e-07
9.10061e-05
-3.04376e-08
9.11641e-05
-2.20074e-07
9.13205e-05
-4.26543e-07
9.14763e-05
-6.53197e-07
9.16324e-05
-9.04095e-07
9.17894e-05
-1.18654e-06
9.19512e-05
-1.50798e-06
-1.88569e-06
9.21159e-05
8.22345e-05
3.24396e-06
8.38959e-05
6.93512e-06
8.51855e-05
7.49779e-06
8.6122e-05
6.99392e-06
8.67676e-05
6.19906e-06
8.72126e-05
5.344e-06
8.75446e-05
4.58759e-06
8.78132e-05
3.96117e-06
8.8045e-05
3.44256e-06
8.82555e-05
3.01016e-06
8.84529e-05
2.64564e-06
8.86416e-05
2.3336e-06
8.88242e-05
2.06247e-06
8.90021e-05
1.82365e-06
8.91765e-05
1.61038e-06
8.93481e-05
1.41718e-06
8.95173e-05
1.23955e-06
8.96846e-05
1.07362e-06
8.985e-05
9.16058e-07
9.00137e-05
7.6387e-07
9.01759e-05
6.14308e-07
9.03364e-05
4.64793e-07
9.04952e-05
3.12818e-07
9.06521e-05
1.55909e-07
9.08068e-05
-8.46862e-09
9.09594e-05
-1.83064e-07
9.111e-05
-3.70617e-07
9.12577e-05
-5.74313e-07
9.14021e-05
-7.97592e-07
9.15425e-05
-1.04452e-06
9.16774e-05
-1.32144e-06
9.18054e-05
-1.63589e-06
-1.99908e-06
9.19188e-05
8.4217e-05
2.44252e-06
8.5552e-05
5.60005e-06
8.66761e-05
6.37372e-06
8.75365e-05
6.13347e-06
8.81665e-05
5.56907e-06
8.8619e-05
4.89156e-06
8.89592e-05
4.24738e-06
8.92308e-05
3.68955e-06
8.94595e-05
3.2139e-06
8.96612e-05
2.80845e-06
8.98455e-05
2.46133e-06
9.0018e-05
2.16111e-06
9.01821e-05
1.89834e-06
9.03402e-05
1.66559e-06
9.04937e-05
1.45685e-06
9.06438e-05
1.2671e-06
9.07912e-05
1.09211e-06
9.09366e-05
9.28243e-07
9.10804e-05
7.72308e-07
9.12228e-05
6.21438e-07
9.13641e-05
4.73e-07
9.15044e-05
3.24526e-07
9.16435e-05
1.73642e-07
9.17815e-05
1.79748e-08
9.19178e-05
-1.44785e-07
9.20518e-05
-3.17108e-07
9.21828e-05
-5.01606e-07
9.23096e-05
-7.01128e-07
9.24309e-05
-9.18803e-07
9.25446e-05
-1.15825e-06
9.26476e-05
-1.42443e-06
9.27352e-05
-1.7235e-06
-2.06145e-06
9.27976e-05
8.63724e-05
1.86887e-06
8.74428e-05
4.52967e-06
8.84162e-05
5.40026e-06
8.91967e-05
5.35297e-06
8.97974e-05
4.96834e-06
9.02491e-05
4.43995e-06
9.05987e-05
3.89774e-06
9.08828e-05
3.40544e-06
9.11239e-05
2.97284e-06
9.13364e-05
2.5959e-06
9.15297e-05
2.26809e-06
9.17092e-05
1.98152e-06
9.18788e-05
1.72875e-06
9.20409e-05
1.50354e-06
9.21971e-05
1.30063e-06
9.23487e-05
1.11549e-06
9.24966e-05
9.44235e-07
9.26414e-05
7.83458e-07
9.27835e-05
6.30153e-07
9.29233e-05
4.8161e-07
9.3061e-05
3.3534e-07
9.31965e-05
1.89017e-07
9.33297e-05
4.04233e-08
9.34603e-05
-1.12596e-07
9.35877e-05
-2.72154e-07
9.3711e-05
-4.40457e-07
9.38292e-05
-6.19768e-07
9.39405e-05
-8.12487e-07
9.40429e-05
-1.0212e-06
9.41335e-05
-1.24876e-06
9.42076e-05
-1.49855e-06
9.42587e-05
-1.77466e-06
-2.079e-06
9.42763e-05
8.86679e-05
1.45101e-06
8.95262e-05
3.67136e-06
9.03661e-05
4.5603e-06
9.10711e-05
4.64801e-06
9.16382e-05
4.40125e-06
9.20826e-05
3.99553e-06
9.24362e-05
3.54413e-06
9.27281e-05
3.11354e-06
9.29778e-05
2.72319e-06
9.31983e-05
2.37537e-06
9.33986e-05
2.06784e-06
9.35842e-05
1.79583e-06
9.37591e-05
1.5539e-06
9.39256e-05
1.33699e-06
9.40856e-05
1.14063e-06
9.42403e-05
9.6082e-07
9.43905e-05
7.94024e-07
9.45369e-05
6.37108e-07
9.46798e-05
4.87268e-07
9.48194e-05
3.41966e-07
9.49559e-05
1.98879e-07
9.5089e-05
5.58472e-08
9.52186e-05
-8.91601e-08
9.53441e-05
-2.38081e-07
9.54647e-05
-3.92787e-07
9.55794e-05
-5.55147e-07
9.56867e-05
-7.27022e-07
9.57845e-05
-9.10288e-07
9.58701e-05
-1.10684e-06
9.594e-05
-1.31859e-06
9.59888e-05
-1.54738e-06
9.60094e-05
-1.79524e-06
-2.06118e-06
9.59916e-05
9.10816e-05
1.14071e-06
9.17719e-05
2.98107e-06
9.24957e-05
3.83651e-06
9.31317e-05
4.01201e-06
9.36641e-05
3.86882e-06
9.40973e-05
3.56238e-06
9.44512e-05
3.19022e-06
9.47482e-05
2.81653e-06
9.50048e-05
2.46661e-06
9.52325e-05
2.14764e-06
9.54395e-05
1.86084e-06
9.56312e-05
1.60412e-06
9.58113e-05
1.37379e-06
9.59823e-05
1.16598e-06
9.6146e-05
9.76962e-07
9.63035e-05
8.03265e-07
9.64558e-05
6.41729e-07
9.66034e-05
4.89495e-07
9.67467e-05
3.43984e-07
9.68858e-05
2.0285e-07
9.70208e-05
6.3956e-08
9.71513e-05
-7.46668e-08
9.7277e-05
-2.14838e-07
9.73971e-05
-3.58256e-07
9.75109e-05
-5.06512e-07
9.76168e-05
-6.61122e-07
9.77133e-05
-8.23504e-07
9.7798e-05
-9.94974e-07
9.78678e-05
-1.17669e-06
9.79189e-05
-1.36962e-06
9.79458e-05
-1.57426e-06
9.79414e-05
-1.7909e-06
-2.01673e-06
9.7897e-05
9.35999e-05
9.0542e-07
9.4158e-05
2.42305e-06
9.4781e-05
3.2135e-06
9.53535e-05
3.43945e-06
9.5851e-05
3.37134e-06
9.62702e-05
3.14316e-06
9.66222e-05
2.83826e-06
9.6923e-05
2.51571e-06
9.71859e-05
2.2037e-06
9.74207e-05
1.91287e-06
9.76345e-05
1.64701e-06
9.78325e-05
1.40614e-06
9.80181e-05
1.18815e-06
9.81939e-05
9.9021e-07
9.83616e-05
8.09319e-07
9.85223e-05
6.42533e-07
9.86769e-05
4.87071e-07
9.88261e-05
3.40365e-07
9.897e-05
2.00072e-07
9.91088e-05
6.40569e-08
9.92424e-05
-6.96182e-08
9.93704e-05
-2.02712e-07
9.94924e-05
-3.36819e-07
9.96075e-05
-4.73383e-07
9.97147e-05
-6.13699e-07
9.98125e-05
-7.58915e-07
9.9899e-05
-9.10004e-07
9.99717e-05
-1.06773e-06
0.000100028
-1.23258e-06
0.000100063
-1.40466e-06
0.000100072
-1.58343e-06
0.000100049
-1.76788e-06
-1.9542e-06
9.99863e-05
9.62143e-05
7.2318e-07
9.66686e-05
1.96875e-06
9.72052e-05
2.67696e-06
9.77202e-05
2.92444e-06
9.81836e-05
2.90791e-06
9.85871e-05
2.7397e-06
9.89348e-05
2.49056e-06
9.92374e-05
2.21305e-06
9.95052e-05
1.93591e-06
9.97462e-05
1.67193e-06
9.99665e-05
1.42673e-06
0.000100171
1.20194e-06
0.000100362
9.9679e-07
0.000100543
8.0936e-07
0.000100715
6.37328e-07
0.000100879
4.7824e-07
0.000101037
3.29684e-07
0.000101188
1.89382e-07
0.000101332
5.52299e-08
0.000101471
-7.4689e-08
0.000101604
-2.02103e-07
0.000101729
-3.28557e-07
0.000101848
-4.55412e-07
0.000101959
-5.83855e-07
0.00010206
-7.1488e-07
0.00010215
-8.49282e-07
0.000102228
-9.87616e-07
0.00010229
-1.13016e-06
0.000102334
-1.27679e-06
0.000102357
-1.42698e-06
0.000102353
-1.5794e-06
0.000102317
-1.73223e-06
-1.88125e-06
0.000102244
9.89199e-05
5.79035e-07
9.92931e-05
1.59555e-06
9.97562e-05
2.21388e-06
0.000100219
2.46126e-06
0.00010065
2.47713e-06
0.000101037
2.35321e-06
0.000101378
2.14899e-06
0.000101681
1.91017e-06
0.000101953
1.66441e-06
0.000102199
1.42553e-06
0.000102425
1.20036e-06
0.000102636
9.91677e-07
0.000102833
7.99725e-07
0.000103019
6.23379e-07
0.000103195
4.60898e-07
0.000103363
3.10276e-07
0.000103523
1.69448e-07
0.000103676
3.64155e-08
0.000103822
-9.06859e-08
0.000103961
-2.13555e-07
0.000104093
-3.33709e-07
0.000104217
-4.52477e-07
0.000104332
-5.70996e-07
0.000104438
-6.90194e-07
0.000104534
-8.10785e-07
0.000104618
-9.33238e-07
0.000104688
-1.05774e-06
0.000104742
-1.18416e-06
0.000104778
-1.31194e-06
0.000104791
-1.44003e-06
0.000104778
-1.56666e-06
0.000104735
-1.68956e-06
-1.80455e-06
0.000104659
0.000101714
4.62686e-07
0.000102024
1.28572e-06
0.000102425
1.81264e-06
0.000102842
2.04419e-06
0.000103242
2.07696e-06
0.000103612
1.984e-06
0.000103946
1.81481e-06
0.000104248
1.60842e-06
0.000104522
1.39035e-06
0.000104773
1.17458e-06
0.000105004
9.6852e-07
0.00010522
7.75719e-07
0.000105423
5.97154e-07
0.000105614
4.32332e-07
0.000105795
2.80002e-07
0.000105967
1.38551e-07
0.00010613
6.2276e-09
0.000106285
-1.18702e-07
0.000106432
-2.37874e-07
0.000106571
-3.52779e-07
0.000106702
-4.6473e-07
0.000106825
-5.74851e-07
0.000106938
-6.84059e-07
0.000107041
-7.93052e-07
0.000107132
-9.02285e-07
0.000107211
-1.01195e-06
0.000107275
-1.12195e-06
0.000107323
-1.23181e-06
0.000107351
-1.34066e-06
0.000107359
-1.44717e-06
0.000107341
-1.54935e-06
0.000107296
-1.64478e-06
-1.72958e-06
0.000107222
0.000104596
3.66929e-07
0.000104856
1.02541e-06
0.000105206
1.463e-06
0.000105583
1.66769e-06
0.000105955
1.70498e-06
0.000106307
1.6318e-06
0.000106633
1.48882e-06
0.000106932
1.30884e-06
0.000107208
1.11468e-06
0.000107463
9.19791e-07
0.0001077
7.3171e-07
0.000107921
5.54364e-07
0.000108129
3.89227e-07
0.000108325
2.36266e-07
0.00010851
9.46209e-08
0.000108686
-3.70007e-08
0.000108852
-1.60074e-07
0.00010901
-2.76099e-07
0.000109158
-3.86504e-07
0.000109298
-4.92585e-07
0.000109429
-5.95467e-07
0.00010955
-6.96082e-07
0.000109661
-7.9515e-07
0.000109761
-8.93161e-07
0.000109849
-9.90356e-07
0.000109924
-1.08671e-06
0.000109984
-1.18187e-06
0.000110027
-1.27519e-06
0.000110052
-1.36558e-06
0.000110057
-1.45159e-06
0.000110039
-1.53119e-06
0.000109996
-1.60203e-06
-1.66072e-06
0.000109927
0.000107566
2.86629e-07
0.000107788
8.03803e-07
0.000108095
1.15602e-06
0.000108436
1.32637e-06
0.000108783
1.35846e-06
0.000109119
1.29575e-06
0.000109436
1.17121e-06
0.000109733
1.01203e-06
0.00011001
8.38072e-07
0.000110268
6.61754e-07
0.000110509
4.90368e-07
0.000110736
3.27915e-07
0.000110949
1.76125e-07
0.00011115
3.52664e-08
0.00011134
-9.52418e-08
0.000111519
-2.16438e-07
0.000111689
-3.29575e-07
0.000111848
-4.35953e-07
0.000111999
-5.36818e-07
0.000112139
-6.33292e-07
0.00011227
-7.26331e-07
0.000112391
-8.16699e-07
0.000112501
-9.04945e-07
0.000112599
-9.91387e-07
0.000112685
-1.0761e-06
0.000112757
-1.15888e-06
0.000112814
-1.23924e-06
0.000112855
-1.31639e-06
0.000112879
-1.38918e-06
0.000112884
-1.45614e-06
0.000112868
-1.51536e-06
0.00011283
-1.5647e-06
-1.6013e-06
0.000112771
0.000110625
2.18046e-07
0.000110817
6.12428e-07
0.000111089
8.83952e-07
0.0001114
1.01512e-06
0.000111724
1.03446e-06
0.000112045
9.74543e-07
0.000112355
8.61719e-07
0.000112649
7.18214e-07
0.000112926
5.60904e-07
0.000113187
4.00851e-07
0.000113432
2.44797e-07
0.000113664
9.65714e-08
0.000113882
-4.20492e-08
0.000114088
-1.70647e-07
0.000114282
-2.89628e-07
0.000114466
-3.99857e-07
0.000114638
-5.02419e-07
0.000114801
-5.98457e-07
0.000114953
-6.89066e-07
0.000115095
-7.75221e-07
0.000115226
-8.57735e-07
0.000115347
-9.37232e-07
0.000115456
-1.01412e-06
0.000115553
-1.08859e-06
0.000115638
-1.16058e-06
0.000115709
-1.22979e-06
0.000115765
-1.29564e-06
0.000115806
-1.35729e-06
0.000115831
-1.41363e-06
0.000115838
-1.46324e-06
0.000115827
-1.50443e-06
0.000115797
-1.53536e-06
-1.5537e-06
0.00011575
0.000113775
1.58393e-07
0.000113943
4.4458e-07
0.000114187
6.40142e-07
0.000114473
7.29119e-07
0.000114777
7.29882e-07
0.000115085
6.66475e-07
0.000115388
5.59615e-07
0.000115679
4.27191e-07
0.000115956
2.83202e-07
0.00011622
1.37178e-07
0.00011647
-4.91747e-09
0.000116706
-1.39631e-07
0.000116929
-2.65317e-07
0.00011714
-3.81549e-07
0.000117339
-4.88667e-07
0.000117527
-5.87439e-07
0.000117703
-6.78841e-07
0.000117869
-7.63903e-07
0.000118023
-8.43606e-07
0.000118167
-9.1881e-07
0.000118299
-9.90217e-07
0.00011842
-1.05834e-06
0.00011853
-1.12348e-06
0.000118627
-1.18573e-06
0.000118711
-1.24496e-06
0.000118782
-1.30079e-06
0.000118839
-1.35264e-06
0.000118882
-1.39969e-06
0.000118909
-1.44087e-06
0.00011892
-1.47494e-06
0.000118916
-1.50045e-06
0.000118897
-1.51589e-06
-1.5194e-06
0.000118863
0.000117017
1.0553e-07
0.000117167
2.94893e-07
0.000117388
4.1881e-07
0.000117654
4.63789e-07
0.000117942
4.41523e-07
0.000118239
3.69501e-07
0.000118535
2.63733e-07
0.000118824
1.3835e-07
0.000119102
4.65992e-09
0.000119369
-1.29421e-07
0.000119623
-2.58874e-07
0.000119864
-3.80783e-07
0.000120092
-4.93783e-07
0.000120308
-5.97571e-07
0.000120512
-6.92517e-07
0.000120704
-7.79372e-07
0.000120884
-8.59064e-07
0.000121053
-9.32558e-07
0.00012121
-1.00076e-06
0.000121356
-1.06445e-06
0.00012149
-1.12425e-06
0.000121612
-1.18059e-06
0.000121722
-1.23371e-06
0.00012182
-1.28365e-06
0.000121905
-1.33021e-06
0.000121978
-1.37304e-06
0.000122037
-1.41154e-06
0.000122082
-1.44497e-06
0.000122113
-1.47239e-06
0.000122131
-1.49274e-06
0.000122136
-1.50482e-06
0.000122127
-1.50747e-06
-1.49924e-06
0.000122107
0.000120354
5.77708e-08
0.00012049
1.58985e-07
0.000120694
2.14905e-07
0.000120943
2.14798e-07
0.000121218
1.66066e-07
0.000121506
8.12547e-08
0.000121798
-2.75218e-08
0.000122085
-1.49368e-07
0.000122365
-2.75448e-07
0.000122635
-3.99489e-07
0.000122894
-5.17514e-07
0.000123141
-6.27281e-07
0.000123375
-7.2783e-07
0.000123596
-8.19094e-07
0.000123805
-9.01569e-07
0.000124002
-9.76065e-07
0.000124186
-1.04352e-06
0.000124359
-1.10489e-06
0.000124519
-1.16104e-06
0.000124667
-1.21271e-06
0.000124803
-1.26047e-06
0.000124928
-1.30472e-06
0.00012504
-1.34565e-06
0.000125139
-1.38327e-06
0.000125226
-1.41739e-06
0.000125301
-1.44767e-06
0.000125363
-1.47357e-06
0.000125412
-1.49443e-06
0.00012545
-1.50946e-06
0.000125475
-1.51781e-06
0.000125488
-1.51851e-06
0.000125492
-1.51071e-06
-1.4933e-06
0.000125486
0.000123787
1.3736e-08
0.000123913
3.31841e-08
0.000124104
2.3934e-08
0.000124341
-2.20067e-08
0.000124607
-9.99129e-08
0.000124889
-2.00923e-07
0.000125178
-3.16118e-07
0.000125466
-4.37397e-07
0.000125748
-5.58178e-07
0.000126023
-6.73819e-07
0.000126287
-7.81457e-07
0.000126539
-8.79622e-07
0.000126779
-9.67875e-07
0.000127006
-1.04648e-06
0.000127221
-1.11616e-06
0.000127423
-1.17783e-06
0.000127612
-1.23253e-06
0.000127788
-1.28122e-06
0.000127952
-1.3248e-06
0.000128103
-1.36399e-06
0.000128242
-1.39934e-06
0.000128368
-1.43125e-06
0.000128483
-1.45989e-06
0.000128585
-1.48527e-06
0.000128675
-1.50723e-06
0.000128752
-1.52547e-06
0.000128818
-1.53953e-06
0.000128873
-1.54886e-06
0.000128916
-1.55282e-06
0.000128949
-1.55074e-06
0.000128972
-1.5419e-06
0.000128987
-1.5257e-06
-1.50134e-06
0.000128995
0.00012732
-2.77583e-08
0.000127439
-8.57029e-08
0.000127621
-1.58223e-07
0.00012785
-2.50702e-07
0.00012811
-3.60025e-07
0.000128389
-4.80065e-07
0.000128677
-6.04528e-07
0.000128968
-7.27735e-07
0.000129255
-8.45172e-07
0.000129535
-9.53784e-07
0.000129805
-1.05188e-06
0.000130064
-1.13885e-06
0.000130311
-1.21485e-06
0.000130545
-1.28059e-06
0.000130766
-1.33707e-06
0.000130974
-1.38542e-06
0.000131168
-1.4268e-06
0.000131349
-1.46226e-06
0.000131517
-1.49273e-06
0.000131672
-1.51898e-06
0.000131814
-1.54158e-06
0.000131944
-1.56091e-06
0.000132061
-1.57719e-06
0.000132167
-1.59044e-06
0.00013226
-1.60055e-06
0.000132342
-1.60726e-06
0.000132412
-1.61022e-06
0.000132472
-1.60898e-06
0.000132523
-1.60305e-06
0.000132564
-1.59192e-06
0.000132597
-1.57506e-06
0.000132623
-1.55209e-06
-1.52241e-06
0.000132644
0.000130955
-6.77536e-08
0.00013107
-2.00564e-07
0.000131247
-3.35456e-07
0.000131472
-4.75354e-07
0.00013173
-6.18058e-07
0.000132009
-7.59488e-07
0.0001323
-8.95533e-07
0.000132595
-1.02266e-06
0.000132888
-1.13827e-06
0.000133175
-1.24086e-06
0.000133453
-1.32997e-06
0.00013372
-1.40591e-06
0.000133975
-1.46953e-06
0.000134216
-1.52205e-06
0.000134444
-1.56483e-06
0.000134658
-1.59928e-06
0.000134858
-1.62672e-06
0.000135044
-1.64836e-06
0.000135217
-1.66519e-06
0.000135376
-1.67804e-06
0.000135522
-1.68753e-06
0.000135655
-1.69409e-06
0.000135776
-1.69794e-06
0.000135884
-1.69918e-06
0.000135981
-1.69772e-06
0.000136068
-1.69339e-06
0.000136143
-1.68593e-06
0.000136209
-1.67498e-06
0.000136266
-1.66018e-06
0.000136316
-1.64118e-06
0.000136358
-1.6176e-06
0.000136395
-1.58925e-06
-1.55569e-06
0.000136429
0.000134695
-1.07247e-07
0.000134808
-3.14186e-07
0.000134984
-5.11665e-07
0.000135209
-7.0027e-07
0.00013547
-8.78282e-07
0.000135753
-1.0432e-06
0.000136051
-1.19278e-06
0.000136353
-1.32541e-06
0.000136655
-1.44033e-06
0.000136952
-1.53758e-06
0.00013724
-1.61796e-06
0.000137517
-1.68276e-06
0.000137781
-1.73362e-06
0.000138031
-1.77235e-06
0.000138267
-1.80076e-06
0.000138489
-1.82056e-06
0.000138695
-1.83334e-06
0.000138887
-1.84044e-06
0.000139065
-1.843e-06
0.000139229
-1.84193e-06
0.000139379
-1.83791e-06
0.000139517
-1.83142e-06
0.000139641
-1.82275e-06
0.000139754
-1.81203e-06
0.000139856
-1.79924e-06
0.000139947
-1.78428e-06
0.000140028
-1.76694e-06
0.0001401
-1.74699e-06
0.000140164
-1.72416e-06
0.000140221
-1.69819e-06
0.000140272
-1.66885e-06
0.000140319
-1.63603e-06
-1.59937e-06
0.000140362
0.000138542
-1.47236e-07
0.000138657
-4.29361e-07
0.000138837
-6.9082e-07
0.000139066
-9.29903e-07
0.000139333
-1.14513e-06
0.000139625
-1.33531e-06
0.000139932
-1.49989e-06
0.000140246
-1.6391e-06
0.00014056
-1.75395e-06
0.000140868
-1.84608e-06
0.000141168
-1.91757e-06
0.000141456
-1.97082e-06
0.00014173
-2.0083e-06
0.000141991
-2.03247e-06
0.000142235
-2.04565e-06
0.000142465
-2.04994e-06
0.000142679
-2.04719e-06
0.000142877
-2.03897e-06
0.000143061
-2.02656e-06
0.00014323
-2.01098e-06
0.000143385
-1.99299e-06
0.000143527
-1.97315e-06
0.000143656
-1.9518e-06
0.000143773
-1.92911e-06
0.000143879
-1.90515e-06
0.000143974
-1.87984e-06
0.00014406
-1.85308e-06
0.000144138
-1.82468e-06
0.000144208
-1.79447e-06
0.000144272
-1.76228e-06
0.000144332
-1.72795e-06
0.000144387
-1.69148e-06
-1.65257e-06
0.00014444
0.000142501
-1.88827e-07
0.000142621
-5.49224e-07
0.000142807
-8.77541e-07
0.000143047
-1.16973e-06
0.000143327
-1.42445e-06
0.000143633
-1.6417e-06
0.000143956
-1.82251e-06
0.000144285
-1.96896e-06
0.000144615
-2.08388e-06
0.00014494
-2.17055e-06
0.000145255
-2.23247e-06
0.000145557
-2.27321e-06
0.000145845
-2.29618e-06
0.000146117
-2.30458e-06
0.000146373
-2.3013e-06
0.000146612
-2.28888e-06
0.000146834
-2.26948e-06
0.00014704
-2.24492e-06
0.00014723
-2.21664e-06
0.000147405
-2.18581e-06
0.000147565
-2.15327e-06
0.000147712
-2.11965e-06
0.000147845
-2.08534e-06
0.000147967
-2.05058e-06
0.000148077
-2.01546e-06
0.000148177
-1.97998e-06
0.000148268
-1.94407e-06
0.000148351
-1.9076e-06
0.000148427
-1.87044e-06
0.000148497
-1.83247e-06
0.000148563
-1.79357e-06
0.000148625
-1.75373e-06
-1.71267e-06
0.000148685
0.000146574
-2.33192e-07
0.000146702
-6.77093e-07
0.000146901
-1.07654e-06
0.000147156
-1.42504e-06
0.000147453
-1.72151e-06
0.000147778
-1.96725e-06
0.000148121
-2.16502e-06
0.000148471
-2.31882e-06
0.00014882
-2.43344e-06
0.000149164
-2.51388e-06
0.000149496
-2.56517e-06
0.000149815
-2.59212e-06
0.000150118
-2.59917e-06
0.000150404
-2.59033e-06
0.000150672
-2.56912e-06
0.000150922
-2.53857e-06
0.000151153
-2.5012e-06
0.000151368
-2.4591e-06
0.000151565
-2.4139e-06
0.000151746
-2.36691e-06
0.000151912
-2.31908e-06
0.000152063
-2.2711e-06
0.000152201
-2.22342e-06
0.000152327
-2.17633e-06
0.000152441
-2.12995e-06
0.000152546
-2.08432e-06
0.000152641
-2.03939e-06
0.000152729
-1.99507e-06
0.000152809
-1.95124e-06
0.000152885
-1.90782e-06
0.000152956
-1.86471e-06
0.000153024
-1.82194e-06
-1.77921e-06
0.000153091
0.000150765
-2.82057e-07
0.000150905
-8.17816e-07
0.000151124
-1.29512e-06
0.000151404
-1.70473e-06
0.000151728
-2.04603e-06
0.000152083
-2.32182e-06
0.000152454
-2.53678e-06
0.000152833
-2.69718e-06
0.000153209
-2.81e-06
0.000153578
-2.88229e-06
0.000153933
-2.92075e-06
0.000154273
-2.9316e-06
0.000154594
-2.92042e-06
0.000154896
-2.89213e-06
0.000155178
-2.85091e-06
0.000155439
-2.80032e-06
0.000155681
-2.74327e-06
0.000155904
-2.6821e-06
0.000156109
-2.61868e-06
0.000156297
-2.55442e-06
0.000156468
-2.49038e-06
0.000156624
-2.42732e-06
0.000156767
-2.36573e-06
0.000156896
-2.30591e-06
0.000157014
-2.24803e-06
0.000157122
-2.1921e-06
0.000157221
-2.1381e-06
0.000157312
-2.08594e-06
0.000157396
-2.03549e-06
0.000157475
-1.98665e-06
0.000157549
-1.93928e-06
0.000157621
-1.89336e-06
-1.84852e-06
0.00015769
0.000155076
-3.36834e-07
0.000155234
-9.75546e-07
0.000155478
-1.53873e-06
0.000155787
-2.01448e-06
0.000156145
-2.40349e-06
0.000156534
-2.71066e-06
0.00015694
-2.94293e-06
0.000157352
-3.10909e-06
0.00015776
-3.2186e-06
0.000158159
-3.28065e-06
0.000158542
-3.30385e-06
0.000158906
-3.29596e-06
0.00015925
-3.26386e-06
0.000159571
-3.21343e-06
0.00015987
-3.14965e-06
0.000160146
-3.07664e-06
0.000160401
-2.99772e-06
0.000160634
-2.91555e-06
0.000160847
-2.8322e-06
0.000161042
-2.74923e-06
0.00016122
-2.66777e-06
0.000161381
-2.58863e-06
0.000161528
-2.51233e-06
0.000161661
-2.43918e-06
0.000161782
-2.36932e-06
0.000161893
-2.30279e-06
0.000161994
-2.23952e-06
0.000162088
-2.17941e-06
0.000162175
-2.12231e-06
0.000162256
-2.06807e-06
0.000162333
-2.01654e-06
0.000162408
-1.96769e-06
-1.92108e-06
0.00016248
0.000159516
-4.01766e-07
0.000159701
-1.16128e-06
0.000159986
-1.82336e-06
0.000160344
-2.37286e-06
0.000160754
-2.81281e-06
0.000161194
-3.15121e-06
0.00016165
-3.39833e-06
0.000162107
-3.56649e-06
0.000162557
-3.66833e-06
0.000162992
-3.71565e-06
0.000163407
-3.71916e-06
0.000163799
-3.68837e-06
0.000164167
-3.63148e-06
0.000164509
-3.5554e-06
0.000164825
-3.46589e-06
0.000165116
-3.36763e-06
0.000165383
-3.26436e-06
0.000165626
-3.15903e-06
0.000165848
-3.05388e-06
0.000166049
-2.95059e-06
0.000166232
-2.85036e-06
0.000166397
-2.75401e-06
0.000166547
-2.66208e-06
0.000166683
-2.57484e-06
0.000166806
-2.49242e-06
0.000166918
-2.4148e-06
0.00016702
-2.34188e-06
0.000167114
-2.2735e-06
0.000167201
-2.20944e-06
0.000167283
-2.1495e-06
0.00016736
-2.09343e-06
0.000167433
-2.04106e-06
-1.99186e-06
0.000167504
0.000164081
-4.76635e-07
0.000164297
-1.37712e-06
0.000164625
-2.15115e-06
0.000165034
-2.7824e-06
0.0001655
-3.27843e-06
0.000165999
-3.65061e-06
0.000166513
-3.91257e-06
0.000167028
-4.08067e-06
0.000167531
-4.17125e-06
0.000168014
-4.19924e-06
0.000168473
-4.17794e-06
0.000168903
-4.11896e-06
0.000169304
-4.03209e-06
0.000169674
-3.92547e-06
0.000170014
-3.80574e-06
0.000170325
-3.67821e-06
0.000170607
-3.54705e-06
0.000170864
-3.41548e-06
0.000171096
-3.2859e-06
0.000171305
-3.16007e-06
0.000171494
-3.03921e-06
0.000171664
-2.92413e-06
0.000171817
-2.81531e-06
0.000171956
-2.71298e-06
0.00017208
-2.61718e-06
0.000172193
-2.52782e-06
0.000172296
-2.44473e-06
0.00017239
-2.36768e-06
0.000172477
-2.29639e-06
0.000172558
-2.23058e-06
0.000172635
-2.16994e-06
0.000172708
-2.11425e-06
-2.06289e-06
0.000172779
0.000168794
-5.78733e-07
0.000169076
-1.6589e-06
0.000169491
-2.5661e-06
0.000169993
-3.28501e-06
0.000170549
-3.83432e-06
0.000171131
-4.2329e-06
0.00017172
-4.50073e-06
0.000172299
-4.6599e-06
0.000172859
-4.73106e-06
0.000173392
-4.73231e-06
0.000173893
-4.67954e-06
0.000174361
-4.58636e-06
0.000174793
-4.46409e-06
0.000175189
-4.32204e-06
0.000175551
-4.16766e-06
0.00017588
-4.00689e-06
0.000176177
-3.84428e-06
0.000176445
-3.68332e-06
0.000176686
-3.52654e-06
0.000176901
-3.37576e-06
0.000177094
-3.23219e-06
0.000177267
-3.0966e-06
0.000177421
-2.96937e-06
0.000177558
-2.85065e-06
0.000177682
-2.74038e-06
0.000177792
-2.63835e-06
0.000177892
-2.5443e-06
0.000177982
-2.45787e-06
0.000178064
-2.3787e-06
0.00017814
-2.30639e-06
0.000178211
-2.24049e-06
0.000178277
-2.18066e-06
-2.12608e-06
0.00017834
0.000173622
-6.89226e-07
0.00017395
-1.98668e-06
0.000174436
-3.0523e-06
0.00017503
-3.87953e-06
0.000175693
-4.49671e-06
0.000176387
-4.92701e-06
0.000177084
-5.19806e-06
0.000177765
-5.34057e-06
0.000178415
-5.38164e-06
0.000179027
-5.34418e-06
0.000179596
-5.2478e-06
0.000180118
-5.10887e-06
0.000180595
-4.94065e-06
0.000181026
-4.75379e-06
0.000181415
-4.55664e-06
0.000181764
-4.35568e-06
0.000182076
-4.15579e-06
0.000182353
-3.96058e-06
0.000182599
-3.77261e-06
0.000182817
-3.59363e-06
0.000183009
-3.42471e-06
0.000183179
-3.26648e-06
0.000183329
-3.11914e-06
0.000183461
-2.98266e-06
0.000183577
-2.85681e-06
0.00018368
-2.74122e-06
0.000183771
-2.63549e-06
0.000183853
-2.53912e-06
0.000183926
-2.45166e-06
0.000183992
-2.37262e-06
0.000184053
-2.30151e-06
0.00018411
-2.23793e-06
-2.18091e-06
0.000184165
0.000178681
-9.01818e-07
0.000179186
-2.49163e-06
0.000179854
-3.71973e-06
0.000180604
-4.63004e-06
0.000181396
-5.28871e-06
0.000182197
-5.72822e-06
0.000182984
-5.9847e-06
0.00018374
-6.09641e-06
0.000184453
-6.09528e-06
0.000185117
-6.00829e-06
0.000185728
-5.85857e-06
0.000186284
-5.66514e-06
0.000186787
-5.44323e-06
0.000187238
-5.20484e-06
0.000187641
-4.95923e-06
0.000187998
-4.71338e-06
0.000188315
-4.47241e-06
0.000188594
-4.23997e-06
0.00018884
-4.01854e-06
0.000189056
-3.80967e-06
0.000189246
-3.61423e-06
0.000189412
-3.43258e-06
0.000189558
-3.26466e-06
0.000189685
-3.11019e-06
0.000189797
-2.96869e-06
0.000189895
-2.83958e-06
0.000189982
-2.72224e-06
0.000190059
-2.61604e-06
0.000190128
-2.52038e-06
0.00019019
-2.43469e-06
0.000190247
-2.35844e-06
0.0001903
-2.29115e-06
-2.23175e-06
0.000190351
0.000183745
-1.07909e-06
0.000184333
-3.07988e-06
0.00018516
-4.54705e-06
0.000186123
-5.59315e-06
0.00018714
-6.30567e-06
0.000188148
-6.73582e-06
0.000189113
-6.94935e-06
0.00019002
-7.00345e-06
0.000190863
-6.93892e-06
0.000191643
-6.78791e-06
0.000192361
-6.57643e-06
0.00019302
-6.32469e-06
0.000193625
-6.04827e-06
0.00019418
-5.75918e-06
0.000194687
-5.46651e-06
0.000195151
-5.17706e-06
0.000195574
-4.89579e-06
0.00019596
-4.62621e-06
0.000196312
-4.37069e-06
0.000196633
-4.13066e-06
0.000196926
-3.90688e-06
0.000197193
-3.69956e-06
0.000197437
-3.50853e-06
0.00019766
-3.33333e-06
0.000197865
-3.17333e-06
0.000198053
-3.02778e-06
0.000198227
-2.89592e-06
0.000198387
-2.77703e-06
0.000198538
-2.67047e-06
0.000198679
-2.57569e-06
0.000198813
-2.49251e-06
0.000198942
-2.42049e-06
-2.3597e-06
0.00019907
0.000189417
-1.68367e-06
0.000190401
-4.06475e-06
0.000191478
-5.62369e-06
0.00019263
-6.74501e-06