/*--------------------------------*- C++ -*----------------------------------*\
| =========                 |                                                 |
| \\      /  F ield         | OpenFOAM: The Open Source CFD Toolbox           |
|  \\    /   O peration     | Version:  2.1.1                                 |
|   \\  /    A nd           | Web:      www.OpenFOAM.org                      |
|    \\/     M anipulation  |                                                 |
\*---------------------------------------------------------------------------*/
FoamFile
{
    version     2.0;
    format      ascii;
    class       volVectorField;
    location    "0.08";
    object      U;
}
// * * * * * * * * * * * * * * * * * * * * * * * * * * * * * * * * * * * * * //

dimensions      [0 1 -1 0 0 0 0];

internalField   nonuniform List<vector> 
6820
(
(6.37608 0.503716 0)
(4.42467 0.286824 0)
(2.97437 0.0201531 0)
(2.23563 -0.0619833 0)
(1.97051 -0.0600782 0)
(1.84417 -0.0346707 0)
(1.76972 -0.015269 0)
(1.71804 -0.00490873 0)
(1.67511 -0.000230998 0)
(1.6379 0.00124329 0)
(1.60586 0.00118078 0)
(1.57856 0.000516683 0)
(1.55553 -0.000316582 0)
(1.53629 -0.00113039 0)
(1.52038 -0.00185246 0)
(1.50744 -0.00246847 0)
(1.49717 -0.00299056 0)
(1.48938 -0.00344007 0)
(1.48394 -0.0038363 0)
(1.48079 -0.00420034 0)
(1.48 -0.00450262 0)
(1.48158 -0.00498314 0)
(1.48562 -0.00545206 0)
(1.49236 -0.00598776 0)
(1.50198 -0.00649754 0)
(1.51474 -0.00708603 0)
(1.53092 -0.00777822 0)
(1.5511 -0.00853546 0)
(1.57499 -0.00944127 0)
(1.60468 -0.00982005 0)
(1.63429 -0.0108761 0)
(1.67894 -0.00205033 0)
(1.67422 -0.0265326 0)
(8.72022 0.959526 0)
(8.76508 1.01171 0)
(7.96978 0.678729 0)
(7.05701 0.3936 0)
(6.35665 0.20215 0)
(5.85082 0.103056 0)
(5.48926 0.057587 0)
(5.22812 0.037097 0)
(5.0324 0.0278995 0)
(4.87994 0.0233519 0)
(4.75736 0.0205975 0)
(4.6563 0.0185759 0)
(4.57144 0.0168839 0)
(4.49925 0.0153453 0)
(4.43729 0.0138666 0)
(4.38383 0.0123924 0)
(4.33762 0.0108855 0)
(4.29775 0.00931572 0)
(4.26354 0.00765647 0)
(4.23454 0.00586992 0)
(4.21038 0.00395077 0)
(4.19087 0.00178398 0)
(4.17598 -0.00061396 0)
(4.16579 -0.00323958 0)
(4.16043 -0.00638241 0)
(4.16006 -0.00988656 0)
(4.16504 -0.0138508 0)
(4.17587 -0.0183083 0)
(4.19292 -0.0234602 0)
(4.21725 -0.0285537 0)
(4.24859 -0.0349572 0)
(4.29187 -0.0358397 0)
(4.34548 -0.0412547 0)
(8.58611 0.583329 0)
(9.33138 0.761922 0)
(9.61488 0.659545 0)
(9.50547 0.525878 0)
(9.23998 0.396379 0)
(8.92818 0.298624 0)
(8.62281 0.229936 0)
(8.34694 0.180685 0)
(8.10479 0.144874 0)
(7.89406 0.118313 0)
(7.71106 0.0980748 0)
(7.55196 0.0822872 0)
(7.41331 0.0697242 0)
(7.29212 0.0595448 0)
(7.18592 0.0511345 0)
(7.09267 0.0440268 0)
(7.01067 0.0378623 0)
(6.93855 0.0323603 0)
(6.87522 0.0272945 0)
(6.81978 0.0224753 0)
(6.77156 0.0177302 0)
(6.73005 0.0129528 0)
(6.69493 0.00797225 0)
(6.66592 0.0026857 0)
(6.64291 -0.00320704 0)
(6.62603 -0.00976631 0)
(6.6156 -0.0171167 0)
(6.61199 -0.025451 0)
(6.61556 -0.0349185 0)
(6.62713 -0.0452644 0)
(6.64715 -0.0571925 0)
(6.67815 -0.0682536 0)
(6.72126 -0.0839885 0)
(8.44094 0.379539 0)
(8.94597 0.583589 0)
(9.35858 0.553864 0)
(9.58663 0.486206 0)
(9.7013 0.406234 0)
(9.73806 0.337172 0)
(9.72338 0.284863 0)
(9.67947 0.244955 0)
(9.61912 0.213777 0)
(9.54951 0.188714 0)
(9.4753 0.167889 0)
(9.39955 0.150144 0)
(9.32426 0.134734 0)
(9.25096 0.121135 0)
(9.18061 0.108989 0)
(9.11383 0.0980176 0)
(9.05098 0.0879807 0)
(8.99229 0.0786637 0)
(8.93788 0.0698692 0)
(8.88784 0.0614092 0)
(8.8422 0.0531087 0)
(8.80101 0.0447847 0)
(8.76433 0.0362411 0)
(8.73224 0.0272579 0)
(8.70486 0.0177255 0)
(8.68243 0.0073427 0)
(8.66493 -0.00422348 0)
(8.65275 -0.0171327 0)
(8.64638 -0.0317181 0)
(8.64655 -0.0480523 0)
(8.65393 -0.0667633 0)
(8.67052 -0.0871162 0)
(8.69845 -0.111622 0)
(8.40215 0.279881 0)
(8.71908 0.480156 0)
(8.99917 0.461099 0)
(9.17493 0.403394 0)
(9.29985 0.341264 0)
(9.3939 0.288832 0)
(9.46386 0.249929 0)
(9.5179 0.22055 0)
(9.56082 0.197362 0)
(9.59497 0.178443 0)
(9.62204 0.162504 0)
(9.64337 0.148724 0)
(9.66001 0.136584 0)
(9.67254 0.125707 0)
(9.68165 0.115793 0)
(9.68798 0.106601 0)
(9.6921 0.0979261 0)
(9.69453 0.0895904 0)
(9.69572 0.0814279 0)
(9.69608 0.0732783 0)
(9.69598 0.0649807 0)
(9.69576 0.0563706 0)
(9.69574 0.047267 0)
(9.6962 0.0374755 0)
(9.69745 0.0267991 0)
(9.69974 0.0149868 0)
(9.70336 0.00177154 0)
(9.70827 -0.0130304 0)
(9.71462 -0.0298469 0)
(9.72291 -0.0490267 0)
(9.73353 -0.07127 0)
(9.74772 -0.0968678 0)
(9.76616 -0.12809 0)
(8.37749 0.201963 0)
(8.60149 0.382947 0)
(8.81619 0.389688 0)
(8.94758 0.355054 0)
(9.03394 0.310534 0)
(9.09734 0.266951 0)
(9.14508 0.231087 0)
(9.18443 0.202609 0)
(9.21966 0.179713 0)
(9.25217 0.161046 0)
(9.28258 0.145493 0)
(9.31126 0.1322 0)
(9.33843 0.1206 0)
(9.36436 0.110298 0)
(9.38917 0.100963 0)
(9.41295 0.0923273 0)
(9.43577 0.0841735 0)
(9.45772 0.0763128 0)
(9.47885 0.0685723 0)
(9.49925 0.0607858 0)
(9.51899 0.0527877 0)
(9.53812 0.0444071 0)
(9.55672 0.0354591 0)
(9.57482 0.0257436 0)
(9.59246 0.0150582 0)
(9.6097 0.00317692 0)
(9.62648 -0.0101155 0)
(9.64309 -0.0251358 0)
(9.65958 -0.0422739 0)
(9.67606 -0.061946 0)
(9.69255 -0.084877 0)
(9.70944 -0.111777 0)
(9.72652 -0.144451 0)
(8.36129 0.148561 0)
(8.52285 0.310649 0)
(8.69786 0.335872 0)
(8.81304 0.316003 0)
(8.88823 0.282535 0)
(8.94204 0.246197 0)
(8.98068 0.214481 0)
(9.01034 0.18858 0)
(9.03544 0.167318 0)
(9.05791 0.149636 0)
(9.07871 0.13467 0)
(9.09846 0.121734 0)
(9.11748 0.11033 0)
(9.13597 0.100092 0)
(9.15405 0.0907387 0)
(9.17181 0.0820435 0)
(9.18932 0.0738092 0)
(9.2066 0.065858 0)
(9.22368 0.0580224 0)
(9.24059 0.0501405 0)
(9.25733 0.0420504 0)
(9.27392 0.0335862 0)
(9.29033 0.0245716 0)
(9.30655 0.0148209 0)
(9.32257 0.00412902 0)
(9.33834 -0.0077182 0)
(9.35393 -0.0210029 0)
(9.36928 -0.0360675 0)
(9.38432 -0.0532651 0)
(9.39898 -0.0730119 0)
(9.41316 -0.0959689 0)
(9.42677 -0.12293 0)
(9.4393 -0.155263 0)
(8.35117 0.111092 0)
(8.46753 0.25073 0)
(8.60857 0.285104 0)
(8.71071 0.276507 0)
(8.7811 0.253849 0)
(8.83347 0.226167 0)
(8.87216 0.199892 0)
(8.90171 0.177122 0)
(8.92609 0.157581 0)
(8.94731 0.140772 0)
(8.96641 0.126222 0)
(8.98412 0.113464 0)
(9.00086 0.102111 0)
(9.01691 0.0918621 0)
(9.03244 0.0824661 0)
(9.04759 0.0737041 0)
(9.06243 0.0653816 0)
(9.07705 0.0573227 0)
(9.09148 0.0493629 0)
(9.10577 0.0413436 0)
(9.11994 0.033107 0)
(9.134 0.0244921 0)
(9.14796 0.0153293 0)
(9.1618 0.00543532 0)
(9.17552 -0.00538678 0)
(9.18904 -0.0173741 0)
(9.2023 -0.0307786 0)
(9.21521 -0.045881 0)
(9.22765 -0.0630079 0)
(9.23944 -0.0825639 0)
(9.25036 -0.105123 0)
(9.26002 -0.131408 0)
(9.26779 -0.162299 0)
(8.34488 0.084379 0)
(8.4295 0.202733 0)
(8.54256 0.242122 0)
(8.63169 0.242343 0)
(8.69622 0.227781 0)
(8.746 0.20647 0)
(8.78428 0.18426 0)
(8.81427 0.163986 0)
(8.83923 0.146071 0)
(8.861 0.130352 0)
(8.88054 0.116551 0)
(8.89853 0.104323 0)
(8.91541 0.0933482 0)
(8.93147 0.0833599 0)
(8.94689 0.0741314 0)
(8.96182 0.0654632 0)
(8.97634 0.0571776 0)
(8.99054 0.0491122 0)
(9.00447 0.041113 0)
(9.01815 0.0330301 0)
(9.03163 0.0247137 0)
(9.0449 0.0160106 0)
(9.05795 0.00676063 0)
(9.07077 -0.00320764 0)
(9.08332 -0.0140765 0)
(9.09551 -0.0260476 0)
(9.10728 -0.0393449 0)
(9.11847 -0.0542274 0)
(9.12891 -0.070995 0)
(9.13836 -0.0899985 0)
(9.14649 -0.11168 0)
(9.15273 -0.136591 0)
(9.15641 -0.165209 0)
(8.34095 0.0650967 0)
(8.40319 0.164284 0)
(8.49364 0.204825 0)
(8.57071 0.210836 0)
(8.62934 0.202214 0)
(8.67612 0.186281 0)
(8.71337 0.168094 0)
(8.74326 0.150578 0)
(8.76837 0.13453 0)
(8.79032 0.120037 0)
(8.81003 0.107019 0)
(8.82814 0.0952859 0)
(8.84508 0.0846195 0)
(8.86116 0.0748173 0)
(8.87654 0.0656946 0)
(8.89137 0.0570801 0)
(8.90575 0.0488138 0)
(8.91974 0.0407445 0)
(8.93339 0.0327268 0)
(8.94673 0.0246184 0)
(8.95976 0.0162771 0)
(8.9725 0.00755881 0)
(8.98491 -0.00168562 0)
(8.99697 -0.011612 0)
(9.00861 -0.0223851 0)
(9.01976 -0.0341862 0)
(9.03028 -0.0472136 0)
(9.04001 -0.0616858 0)
(9.04875 -0.0778432 0)
(9.05618 -0.0959537 0)
(9.06194 -0.116319 0)
(9.06537 -0.139295 0)
(9.06585 -0.165046 0)
(8.33846 0.0509027 0)
(8.38484 0.133354 0)
(8.45725 0.172651 0)
(8.52356 0.182539 0)
(8.57657 0.178515 0)
(8.62022 0.166991 0)
(8.65607 0.152225 0)
(8.68553 0.13706 0)
(8.71056 0.122601 0)
(8.73256 0.109185 0)
(8.75238 0.0968997 0)
(8.77057 0.0856781 0)
(8.78757 0.0753783 0)
(8.80364 0.0658426 0)
(8.81897 0.0569147 0)
(8.83369 0.048442 0)
(8.8479 0.0402783 0)
(8.86166 0.0322835 0)
(8.87501 0.0243222 0)
(8.88797 0.0162619 0)
(8.90055 0.00797091 0)
(8.91274 -0.000683289 0)
(8.92451 -0.00983583 0)
(8.93582 -0.0196259 0)
(8.94658 -0.0301983 0)
(8.9567 -0.0417061 0)
(8.96604 -0.0543099 0)
(8.97442 -0.0681783 0)
(8.98159 -0.0834869 0)
(8.98724 -0.100416 0)
(8.99097 -0.119137 0)
(8.99215 -0.139827 0)
(8.99023 -0.162423 0)
(8.33688 0.0402432 0)
(8.37192 0.108409 0)
(8.43005 0.144966 0)
(8.48685 0.157029 0)
(8.53451 0.156216 0)
(8.575 0.14805 0)
(8.60926 0.136144 0)
(8.63811 0.123129 0)
(8.66296 0.110249 0)
(8.68498 0.0979828 0)
(8.70488 0.0865219 0)
(8.72316 0.0758888 0)
(8.74021 0.0660099 0)
(8.7563 0.0567754 0)
(8.77159 0.0480638 0)
(8.78623 0.0397487 0)
(8.80029 0.0317036 0)
(8.81384 0.023804 0)
(8.82691 0.0159275 0)
(8.83953 0.0079535 0)
(8.85169 -0.000237604 0)
(8.86337 -0.00876507 0)
(8.87455 -0.0177483 0)
(8.88515 -0.0273077 0)
(8.8951 -0.0375649 0)
(8.90429 -0.0486425 0)
(8.91256 -0.0606633 0)
(8.91973 -0.0737472 0)
(8.92556 -0.0880058 0)
(8.92971 -0.103536 0)
(8.93182 -0.120394 0)
(8.93132 -0.138611 0)
(8.92778 -0.157976 0)
(8.33584 0.032068 0)
(8.36272 0.088157 0)
(8.40961 0.121122 0)
(8.45815 0.134073 0)
(8.50084 0.13544 0)
(8.53824 0.129855 0)
(8.57077 0.120336 0)
(8.59881 0.109209 0)
(8.62333 0.0977469 0)
(8.64524 0.0865265 0)
(8.66515 0.0758264 0)
(8.68349 0.0657487 0)
(8.70059 0.0562828 0)
(8.7167 0.0473628 0)
(8.73198 0.0388976 0)
(8.74655 0.0307829 0)
(8.76049 0.0229085 0)
(8.77387 0.0151629 0)
(8.7867 0.00743535 0)
(8.79901 -0.000383258 0)
(8.81078 -0.00840025 0)
(8.822 -0.0167208 0)
(8.83263 -0.025448 0)
(8.84259 -0.0346825 0)
(8.8518 -0.0445216 0)
(8.86015 -0.0550579 0)
(8.86749 -0.0663759 0)
(8.87363 -0.078548 0)
(8.87833 -0.0916258 0)
(8.8813 -0.105632 0)
(8.88222 -0.120534 0)
(8.88059 -0.136254 0)
(8.8761 -0.152495 0)
(8.33514 0.0256643 0)
(8.3561 0.0715851 0)
(8.39415 0.100569 0)
(8.43564 0.113436 0)
(8.47376 0.116113 0)
(8.50817 0.112371 0)
(8.5389 0.104718 0)
(8.56598 0.0951712 0)
(8.59005 0.0849623 0)
(8.61178 0.0747204 0)
(8.63163 0.0647757 0)
(8.64998 0.0552808 0)
(8.66711 0.0462695 0)
(8.68324 0.03771 0)
(8.6985 0.0295372 0)
(8.71301 0.0216673 0)
(8.72684 0.0140073 0)
(8.74005 0.00646037 0)
(8.75266 -0.00107088 0)
(8.76467 -0.0086824 0)
(8.77609 -0.0164676 0)
(8.78688 -0.0245166 0)
(8.797 -0.0329151 0)
(8.80639 -0.0417435 0)
(8.81495 -0.0510746 0)
(8.82257 -0.0609716 0)
(8.82912 -0.0714834 0)
(8.83441 -0.0826399 0)
(8.83824 -0.0944422 0)
(8.84035 -0.106855 0)
(8.84046 -0.11978 0)
(8.83819 -0.133069 0)
(8.83333 -0.146387 0)
(8.33466 0.0205441 0)
(8.35126 0.0578916 0)
(8.38241 0.0827934 0)
(8.41793 0.0948672 0)
(8.45193 0.0981573 0)
(8.48353 0.0956563 0)
(8.51244 0.0894317 0)
(8.53848 0.0811926 0)
(8.56199 0.0720778 0)
(8.58344 0.0627225 0)
(8.60317 0.0534831 0)
(8.62148 0.0445463 0)
(8.6386 0.0359816 0)
(8.65471 0.0277875 0)
(8.66995 0.0199228 0)
(8.68439 0.0123233 0)
(8.69812 0.00491178 0)
(8.71117 -0.00239495 0)
(8.72357 -0.00968151 0)
(8.73532 -0.0170314 0)
(8.74641 -0.0245248 0)
(8.75682 -0.0322375 0)
(8.76649 -0.0402386 0)
(8.77537 -0.0485889 0)
(8.78337 -0.0573389 0)
(8.79039 -0.0665247 0)
(8.79629 -0.0761647 0)
(8.80093 -0.0862531 0)
(8.80412 -0.0967514 0)
(8.80565 -0.107581 0)
(8.80531 -0.118604 0)
(8.80281 -0.129629 0)
(8.79803 -0.140319 0)
(8.33432 0.0163685 0)
(8.34768 0.046449 0)
(8.37343 0.0673469 0)
(8.40395 0.0781301 0)
(8.4343 0.0814784 0)
(8.46329 0.0797069 0)
(8.49043 0.0744992 0)
(8.51539 0.0672827 0)
(8.53827 0.0590768 0)
(8.55936 0.050496 0)
(8.57891 0.041904 0)
(8.59714 0.0335058 0)
(8.61422 0.0253939 0)
(8.6303 0.0175884 0)
(8.6455 0.0100661 0)
(8.65987 0.00277826 0)
(8.6735 -0.00433865 0)
(8.6864 -0.0113552 0)
(8.69861 -0.018344 0)
(8.71011 -0.0253764 0)
(8.72091 -0.0325196 0)
(8.73097 -0.0398349 0)
(8.74025 -0.0473756 0)
(8.74869 -0.0551842 0)
(8.75622 -0.0632908 0)
(8.76274 -0.0717084 0)
(8.76815 -0.0804297 0)
(8.77231 -0.0894213 0)
(8.77508 -0.0986162 0)
(8.77629 -0.107908 0)
(8.7758 -0.117137 0)
(8.7734 -0.126097 0)
(8.76905 -0.134467 0)
(8.33408 0.0128981 0)
(8.34501 0.0367669 0)
(8.36653 0.0538343 0)
(8.39291 0.0629913 0)
(8.42006 0.0659614 0)
(8.44668 0.0644954 0)
(8.47214 0.059948 0)
(8.496 0.0534962 0)
(8.51821 0.0460284 0)
(8.5389 0.0381154 0)
(8.55823 0.0301095 0)
(8.57634 0.0222199 0)
(8.59335 0.0145513 0)
(8.60939 0.00713873 0)
(8.62453 -2.69286e-05 0)
(8.63883 -0.00698133 0)
(8.65235 -0.0137758 0)
(8.66512 -0.0204694 0)
(8.67715 -0.0271236 0)
(8.68843 -0.0337984 0)
(8.69897 -0.040549 0)
(8.70873 -0.0474236 0)
(8.71768 -0.0544612 0)
(8.72576 -0.0616887 0)
(8.73292 -0.0691186 0)
(8.73906 -0.0767457 0)
(8.74411 -0.0845428 0)
(8.74797 -0.0924572 0)
(8.75051 -0.100404 0)
(8.75164 -0.108263 0)
(8.75124 -0.115866 0)
(8.74919 -0.123012 0)
(8.7455 -0.129409 0)
(8.3339 0.00996019 0)
(8.343 0.0284614 0)
(8.36121 0.0419132 0)
(8.38419 0.0492292 0)
(8.40857 0.0514837 0)
(8.43307 0.0499741 0)
(8.45697 0.0457758 0)
(8.47978 0.0398473 0)
(8.50131 0.0329459 0)
(8.52158 0.0255849 0)
(8.54066 0.0180938 0)
(8.55861 0.0106754 0)
(8.57554 0.00343862 0)
(8.59151 -0.00357357 0)
(8.60659 -0.0103607 0)
(8.62082 -0.016949 0)
(8.63425 -0.0233805 0)
(8.64688 -0.029705 0)
(8.65875 -0.0359745 0)
(8.66984 -0.0422389 0)
(8.68015 -0.0485431 0)
(8.68966 -0.054924 0)
(8.69833 -0.0614081 0)
(8.70612 -0.0680093 0)
(8.71299 -0.0747263 0)
(8.71887 -0.0815398 0)
(8.72369 -0.0884093 0)
(8.72738 -0.0952696 0)
(8.72987 -0.102027 0)
(8.73107 -0.108558 0)
(8.73095 -0.1147 0)
(8.72944 -0.120264 0)
(8.72658 -0.124998 0)
(8.33376 0.00742749 0)
(8.34147 0.0212304 0)
(8.3571 0.0312879 0)
(8.37731 0.0366332 0)
(8.39934 0.0379139 0)
(8.42198 0.0360747 0)
(8.44448 0.0319584 0)
(8.4663 0.0263367 0)
(8.48717 0.0198418 0)
(8.50702 0.0129221 0)
(8.52583 0.00587467 0)
(8.54363 -0.00111329 0)
(8.56046 -0.00793722 0)
(8.57636 -0.0145523 0)
(8.59138 -0.0209535 0)
(8.60554 -0.0271612 0)
(8.61887 -0.0332104 0)
(8.6314 -0.0391436 0)
(8.64313 -0.0450048 0)
(8.65406 -0.0508356 0)
(8.66418 -0.0566716 0)
(8.67348 -0.0625403 0)
(8.68194 -0.0684582 0)
(8.68952 -0.0744289 0)
(8.69618 -0.0804409 0)
(8.70189 -0.0864654 0)
(8.7066 -0.0924536 0)
(8.71026 -0.098335 0)
(8.71282 -0.104015 0)
(8.71426 -0.109373 0)
(8.71456 -0.11426 0)
(8.71369 -0.11851 0)
(8.71174 -0.121907 0)
(8.33365 0.00520366 0)
(8.34031 0.0148332 0)
(8.35393 0.0217031 0)
(8.37192 0.0250044 0)
(8.39198 0.0251153 0)
(8.41301 0.0227142 0)
(8.43428 0.0184536 0)
(8.45521 0.012947 0)
(8.47547 0.00671246 0)
(8.49492 0.00013023 0)
(8.51347 -0.00654091 0)
(8.53112 -0.0131354 0)
(8.54785 -0.0195591 0)
(8.56368 -0.0257706 0)
(8.57864 -0.0317647 0)
(8.59273 -0.0375591 0)
(8.60599 -0.0431848 0)
(8.61842 -0.0486795 0)
(8.63003 -0.0540815 0)
(8.64082 -0.059426 0)
(8.65079 -0.0647421 0)
(8.65993 -0.07005 0)
(8.66822 -0.0753589 0)
(8.67564 -0.0806654 0)
(8.68218 -0.0859514 0)
(8.6878 -0.0911828 0)
(8.69248 -0.0963076 0)
(8.6962 -0.101255 0)
(8.69895 -0.105935 0)
(8.7007 -0.110237 0)
(8.7015 -0.114029 0)
(8.70133 -0.11717 0)
(8.70033 -0.119483 0)
(8.33358 0.00321382 0)
(8.33943 0.00907551 0)
(8.3515 0.012937 0)
(8.36772 0.0141554 0)
(8.38618 0.0129465 0)
(8.40588 0.00979398 0)
(8.4261 0.00519647 0)
(8.44625 -0.000365242 0)
(8.46598 -0.00647611 0)
(8.48507 -0.0128235 0)
(8.50341 -0.0191915 0)
(8.52092 -0.0254413 0)
(8.53757 -0.031495 0)
(8.55335 -0.0373198 0)
(8.56826 -0.0429142 0)
(8.58232 -0.0482966 0)
(8.59552 -0.053497 0)
(8.60788 -0.0585502 0)
(8.6194 -0.0634909 0)
(8.63009 -0.0683499 0)
(8.63995 -0.0731511 0)
(8.64897 -0.0779098 0)
(8.65715 -0.0826301 0)
(8.66449 -0.0873041 0)
(8.67096 -0.0919103 0)
(8.67657 -0.0964128 0)
(8.68131 -0.10076 0)
(8.68518 -0.104886 0)
(8.68817 -0.108707 0)
(8.69032 -0.112127 0)
(8.69166 -0.115034 0)
(8.69222 -0.117312 0)
(8.69213 -0.118818 0)
(8.33352 0.00139735 0)
(8.33876 0.00379579 0)
(8.34967 0.00479357 0)
(8.36452 0.00390727 0)
(8.38171 0.0012628 0)
(8.40033 -0.0027948 0)
(8.4197 -0.00788794 0)
(8.43922 -0.0136457 0)
(8.45851 -0.0197439 0)
(8.47732 -0.0259344 0)
(8.49547 -0.0320459 0)
(8.51288 -0.0379701 0)
(8.52947 -0.0436493 0)
(8.54522 -0.0490637 0)
(8.56011 -0.0542196 0)
(8.57413 -0.05914 0)
(8.58729 -0.0638569 0)
(8.59959 -0.0684054 0)
(8.61105 -0.072819 0)
(8.62166 -0.0771269 0)
(8.63143 -0.0813507 0)
(8.64037 -0.085503 0)
(8.64848 -0.0895858 0)
(8.65576 -0.0935896 0)
(8.66223 -0.0974924 0)
(8.66787 -0.10126 0)
(8.67271 -0.104844 0)
(8.67677 -0.108184 0)
(8.68005 -0.11121 0)
(8.68261 -0.113839 0)
(8.6845 -0.115979 0)
(8.68577 -0.117539 0)
(8.68654 -0.118406 0)
(8.33347 -0.000295298 0)
(8.33828 -0.00114251 0)
(8.34833 -0.00290351 0)
(8.36216 -0.00591364 0)
(8.37839 -0.0100901 0)
(8.3962 -0.0151843 0)
(8.41493 -0.0209143 0)
(8.43399 -0.0270014 0)
(8.45296 -0.0332023 0)
(8.47158 -0.0393317 0)
(8.48963 -0.0452639 0)
(8.507 -0.0509242 0)
(8.52359 -0.0562784 0)
(8.53935 -0.0613229 0)
(8.55425 -0.0660747 0)
(8.56829 -0.0705638 0)
(8.58145 -0.0748263 0)
(8.59373 -0.0788994 0)
(8.60516 -0.0828176 0)
(8.61573 -0.0866096 0)
(8.62546 -0.0902965 0)
(8.63437 -0.0938902 0)
(8.64245 -0.0973925 0)
(8.64973 -0.100794 0)
(8.65623 -0.104075 0)
(8.66196 -0.107204 0)
(8.66695 -0.110139 0)
(8.67123 -0.112829 0)
(8.67483 -0.115213 0)
(8.67781 -0.117225 0)
(8.68023 -0.118793 0)
(8.68216 -0.119847 0)
(8.68371 -0.120298 0)
(8.33344 -0.00190791 0)
(8.33795 -0.00586106 0)
(8.34741 -0.0103178 0)
(8.36054 -0.0154762 0)
(8.37611 -0.0212647 0)
(8.39336 -0.0274981 0)
(8.41166 -0.033967 0)
(8.43042 -0.0404687 0)
(8.44922 -0.0468305 0)
(8.46775 -0.0529258 0)
(8.48578 -0.0586755 0)
(8.50316 -0.0640411 0)
(8.51979 -0.0690161 0)
(8.5356 -0.0736179 0)
(8.55054 -0.077879 0)
(8.5646 -0.0818406 0)
(8.57778 -0.0855468 0)
(8.59006 -0.0890406 0)
(8.60148 -0.0923601 0)
(8.61203 -0.0955368 0)
(8.62174 -0.0985936 0)
(8.63062 -0.101544 0)
(8.6387 -0.104392 0)
(8.646 -0.10713 0)
(8.65255 -0.109742 0)
(8.65838 -0.112202 0)
(8.66352 -0.114475 0)
(8.66802 -0.116519 0)
(8.67193 -0.118285 0)
(8.6753 -0.119722 0)
(8.67821 -0.120774 0)
(8.68072 -0.121392 0)
(8.68296 -0.121508 0)
(8.33343 -0.00348155 0)
(8.33776 -0.0104746 0)
(8.34687 -0.0176112 0)
(8.35959 -0.0249627 0)
(8.37479 -0.0324515 0)
(8.39177 -0.0399365 0)
(8.40988 -0.0472677 0)
(8.42857 -0.054309 0)
(8.44737 -0.0609527 0)
(8.46596 -0.0671286 0)
(8.4841 -0.0728031 0)
(8.50162 -0.0779744 0)
(8.51838 -0.0826643 0)
(8.53432 -0.0869119 0)
(8.54937 -0.0907664 0)
(8.56353 -0.0942813 0)
(8.57677 -0.09751 0)
(8.58911 -0.100502 0)
(8.60056 -0.103301 0)
(8.61113 -0.105943 0)
(8.62085 -0.108453 0)
(8.62975 -0.110848 0)
(8.63786 -0.113136 0)
(8.64521 -0.115314 0)
(8.65183 -0.117369 0)
(8.65778 -0.119283 0)
(8.66309 -0.121028 0)
(8.66781 -0.122571 0)
(8.67201 -0.123876 0)
(8.67574 -0.124904 0)
(8.67907 -0.125613 0)
(8.68208 -0.125971 0)
(8.68488 -0.125926 0)
(8.33342 -0.00505503 0)
(8.33768 -0.0150931 0)
(8.34667 -0.0249392 0)
(8.35927 -0.0345396 0)
(8.37438 -0.0437941 0)
(8.39134 -0.0525855 0)
(8.40951 -0.0608081 0)
(8.4283 -0.0683827 0)
(8.44727 -0.0752629 0)
(8.46605 -0.081436 0)
(8.4844 -0.0869191 0)
(8.50212 -0.0917533 0)
(8.51908 -0.0959963 0)
(8.53518 -0.0997154 0)
(8.55039 -0.102982 0)
(8.56466 -0.105868 0)
(8.578 -0.10844 0)
(8.59041 -0.110756 0)
(8.6019 -0.112869 0)
(8.61251 -0.11482 0)
(8.62225 -0.11664 0)
(8.63118 -0.118351 0)
(8.63932 -0.119963 0)
(8.64671 -0.121479 0)
(8.65341 -0.122893 0)
(8.65946 -0.12419 0)
(8.66492 -0.125352 0)
(8.66984 -0.126355 0)
(8.67427 -0.127171 0)
(8.6783 -0.127773 0)
(8.68199 -0.128133 0)
(8.68541 -0.128232 0)
(8.68868 -0.128028 0)
(8.33342 -0.00666972 0)
(8.33774 -0.0198384 0)
(8.34684 -0.0324916 0)
(8.3596 -0.0444583 0)
(8.37497 -0.0556177 0)
(8.39225 -0.0658762 0)
(8.41079 -0.0751704 0)
(8.43 -0.0834739 0)
(8.44939 -0.0907955 0)
(8.4686 -0.0971736 0)
(8.48736 -0.10267 0)
(8.50546 -0.107365 0)
(8.52275 -0.111348 0)
(8.53915 -0.114714 0)
(8.5546 -0.117556 0)
(8.56907 -0.119965 0)
(8.58256 -0.12202 0)
(8.59509 -0.123795 0)
(8.60667 -0.12535 0)
(8.61734 -0.126734 0)
(8.62713 -0.127987 0)
(8.6361 -0.129135 0)
(8.64428 -0.130196 0)
(8.65173 -0.131178 0)
(8.6585 -0.132081 0)
(8.66464 -0.132899 0)
(8.67022 -0.133619 0)
(8.67529 -0.134226 0)
(8.67992 -0.134701 0)
(8.68418 -0.135028 0)
(8.68814 -0.135185 0)
(8.69186 -0.135165 0)
(8.69543 -0.134933 0)
(8.33344 -0.00837041 0)
(8.33791 -0.0248309 0)
(8.34735 -0.0404216 0)
(8.36057 -0.0548339 0)
(8.37647 -0.0679094 0)
(8.39432 -0.0795657 0)
(8.41347 -0.0897796 0)
(8.43329 -0.0985869 0)
(8.45327 -0.106067 0)
(8.47305 -0.112328 0)
(8.49234 -0.117494 0)
(8.51091 -0.121697 0)
(8.52862 -0.125071 0)
(8.54539 -0.127747 0)
(8.56114 -0.129844 0)
(8.57586 -0.131475 0)
(8.58955 -0.132735 0)
(8.60223 -0.13371 0)
(8.61393 -0.13447 0)
(8.62468 -0.135072 0)
(8.63453 -0.135562 0)
(8.64355 -0.135971 0)
(8.65177 -0.136323 0)
(8.65926 -0.13663 0)
(8.66608 -0.136898 0)
(8.67229 -0.137127 0)
(8.67795 -0.13731 0)
(8.68314 -0.137438 0)
(8.68791 -0.137501 0)
(8.69233 -0.137488 0)
(8.69648 -0.137387 0)
(8.70042 -0.137197 0)
(8.70425 -0.13689 0)
(8.33347 -0.0102141 0)
(8.33826 -0.030256 0)
(8.34835 -0.0490716 0)
(8.36246 -0.0662351 0)
(8.37937 -0.0815762 0)
(8.3983 -0.0950327 0)
(8.41855 -0.106611 0)
(8.43942 -0.116388 0)
(8.4604 -0.124491 0)
(8.48108 -0.131077 0)
(8.50115 -0.136317 0)
(8.52041 -0.14039 0)
(8.53871 -0.143473 0)
(8.55595 -0.145732 0)
(8.5721 -0.14732 0)
(8.58713 -0.148376 0)
(8.60106 -0.149019 0)
(8.61391 -0.149352 0)
(8.62573 -0.149461 0)
(8.63657 -0.149414 0)
(8.64648 -0.149268 0)
(8.65552 -0.149062 0)
(8.66376 -0.148827 0)
(8.67126 -0.148583 0)
(8.6781 -0.14834 0)
(8.68433 -0.148105 0)
(8.69002 -0.147876 0)
(8.69525 -0.147651 0)
(8.70008 -0.147423 0)
(8.70457 -0.147188 0)
(8.7088 -0.146938 0)
(8.71281 -0.146674 0)
(8.7167 -0.146373 0)
(8.33351 -0.0122612 0)
(8.33873 -0.0362294 0)
(8.34971 -0.0584448 0)
(8.36496 -0.0782971 0)
(8.38312 -0.0955953 0)
(8.40335 -0.11033 0)
(8.42489 -0.122599 0)
(8.44703 -0.132591 0)
(8.46919 -0.140543 0)
(8.49097 -0.146703 0)
(8.51204 -0.151319 0)
(8.53217 -0.15463 0)
(8.55123 -0.156858 0)
(8.56911 -0.158203 0)
(8.58579 -0.158846 0)
(8.60125 -0.158944 0)
(8.61551 -0.158632 0)
(8.62862 -0.158025 0)
(8.64062 -0.157217 0)
(8.65158 -0.156285 0)
(8.66158 -0.15529 0)
(8.67067 -0.154279 0)
(8.67893 -0.153286 0)
(8.68643 -0.152336 0)
(8.69326 -0.151444 0)
(8.69948 -0.150621 0)
(8.70517 -0.14987 0)
(8.71039 -0.149192 0)
(8.71522 -0.148586 0)
(8.71973 -0.148051 0)
(8.72398 -0.147582 0)
(8.72803 -0.147185 0)
(8.73198 -0.146835 0)
(8.33359 -0.0146257 0)
(8.3396 -0.0432229 0)
(8.35213 -0.0696364 0)
(8.36939 -0.093132 0)
(8.38972 -0.113508 0)
(8.41213 -0.130732 0)
(8.43574 -0.144886 0)
(8.45975 -0.156187 0)
(8.48357 -0.164929 0)
(8.50678 -0.171436 0)
(8.52906 -0.176034 0)
(8.55021 -0.17904 0)
(8.5701 -0.180746 0)
(8.58865 -0.181415 0)
(8.60586 -0.181278 0)
(8.62173 -0.180534 0)
(8.63629 -0.179351 0)
(8.64961 -0.177867 0)
(8.66175 -0.176196 0)
(8.6728 -0.174429 0)
(8.68281 -0.172638 0)
(8.69189 -0.170875 0)
(8.70011 -0.169183 0)
(8.70755 -0.167588 0)
(8.7143 -0.166111 0)
(8.72043 -0.164765 0)
(8.72601 -0.163556 0)
(8.73113 -0.162487 0)
(8.73585 -0.161558 0)
(8.74024 -0.16077 0)
(8.74437 -0.160118 0)
(8.74827 -0.159607 0)
(8.75204 -0.15921 0)
(8.33365 -0.0173701 0)
(8.34042 -0.051012 0)
(8.35454 -0.0813152 0)
(8.37381 -0.107374 0)
(8.39634 -0.129203 0)
(8.42108 -0.14704 0)
(8.44705 -0.161213 0)
(8.47336 -0.172132 0)
(8.49933 -0.180227 0)
(8.52449 -0.18591 0)
(8.5485 -0.189565 0)
(8.57113 -0.191547 0)
(8.59228 -0.192178 0)
(8.61187 -0.191742 0)
(8.6299 -0.190486 0)
(8.64642 -0.188626 0)
(8.66148 -0.186341 0)
(8.67517 -0.183782 0)
(8.68756 -0.181073 0)
(8.69876 -0.178313 0)
(8.70886 -0.175581 0)
(8.71796 -0.172937 0)
(8.72616 -0.170426 0)
(8.73354 -0.168083 0)
(8.7402 -0.165929 0)
(8.74622 -0.163982 0)
(8.75169 -0.16225 0)
(8.75668 -0.160739 0)
(8.76127 -0.159451 0)
(8.76552 -0.158386 0)
(8.76951 -0.157542 0)
(8.77329 -0.156924 0)
(8.77696 -0.1565 0)
(8.3339 -0.020878 0)
(8.3427 -0.061675 0)
(8.36043 -0.0987002 0)
(8.38384 -0.13072 0)
(8.41036 -0.157505 0)
(8.43872 -0.179078 0)
(8.46786 -0.195743 0)
(8.49687 -0.208058 0)
(8.52512 -0.216653 0)
(8.5522 -0.222143 0)
(8.57781 -0.225101 0)
(8.60178 -0.226044 0)
(8.62402 -0.225421 0)
(8.64449 -0.223612 0)
(8.66322 -0.220938 0)
(8.68027 -0.217661 0)
(8.69571 -0.213997 0)
(8.70965 -0.210118 0)
(8.72219 -0.206159 0)
(8.73344 -0.202229 0)
(8.74351 -0.198407 0)
(8.75252 -0.194756 0)
(8.76056 -0.191321 0)
(8.76775 -0.188133 0)
(8.77417 -0.185215 0)
(8.77993 -0.182581 0)
(8.7851 -0.18024 0)
(8.78977 -0.178195 0)
(8.79401 -0.176448 0)
(8.7979 -0.174999 0)
(8.80151 -0.173842 0)
(8.80487 -0.172978 0)
(8.80808 -0.172375 0)
(8.33386 -0.0248867 0)
(8.34349 -0.0717555 0)
(8.36363 -0.11167 0)
(8.39044 -0.144354 0)
(8.42105 -0.170856 0)
(8.45395 -0.191823 0)
(8.48769 -0.207796 0)
(8.52101 -0.219417 0)
(8.55312 -0.227302 0)
(8.58353 -0.232023 0)
(8.61193 -0.23412 0)
(8.63816 -0.234098 0)
(8.66215 -0.232407 0)
(8.68396 -0.229446 0)
(8.70365 -0.225559 0)
(8.72135 -0.221038 0)
(8.73718 -0.216125 0)
(8.75129 -0.211017 0)
(8.76383 -0.205872 0)
(8.77494 -0.200814 0)
(8.78477 -0.195938 0)
(8.79344 -0.191315 0)
(8.8011 -0.186994 0)
(8.80784 -0.183014 0)
(8.81378 -0.179397 0)
(8.81903 -0.176158 0)
(8.82367 -0.173306 0)
(8.82779 -0.170846 0)
(8.83148 -0.168778 0)
(8.83481 -0.1671 0)
(8.83785 -0.165808 0)
(8.84066 -0.164899 0)
(8.84336 -0.164334 0)
(8.33497 -0.0317217 0)
(8.35121 -0.0938527 0)
(8.38005 -0.147958 0)
(8.41437 -0.191901 0)
(8.45071 -0.226023 0)
(8.48814 -0.251121 0)
(8.52549 -0.268502 0)
(8.56169 -0.279635 0)
(8.59612 -0.285799 0)
(8.62836 -0.288069 0)
(8.65818 -0.287356 0)
(8.68544 -0.284406 0)
(8.71016 -0.279824 0)
(8.73241 -0.274095 0)
(8.75231 -0.267608 0)
(8.77003 -0.260671 0)
(8.78574 -0.253527 0)
(8.79962 -0.246366 0)
(8.81185 -0.239336 0)
(8.8226 -0.232547 0)
(8.83204 -0.226081 0)
(8.84031 -0.219997 0)
(8.84756 -0.214336 0)
(8.85391 -0.209125 0)
(8.85948 -0.20438 0)
(8.86437 -0.20011 0)
(8.86867 -0.196319 0)
(8.87247 -0.193009 0)
(8.87586 -0.19018 0)
(8.87889 -0.187831 0)
(8.88166 -0.185957 0)
(8.88421 -0.18456 0)
(8.88663 -0.183591 0)
(8.33402 -0.0366625 0)
(8.34977 -0.0998876 0)
(8.38347 -0.149241 0)
(8.4259 -0.189422 0)
(8.47156 -0.222387 0)
(8.51801 -0.247859 0)
(8.56314 -0.266282 0)
(8.60577 -0.27855 0)
(8.64554 -0.285522 0)
(8.6824 -0.288078 0)
(8.71638 -0.287113 0)
(8.74762 -0.283451 0)
(8.77629 -0.277809 0)
(8.80258 -0.270794 0)
(8.82665 -0.262904 0)
(8.84866 -0.254537 0)
(8.86877 -0.246003 0)
(8.88712 -0.237538 0)
(8.90385 -0.229318 0)
(8.91911 -0.221471 0)
(8.93301 -0.214085 0)
(8.94569 -0.20722 0)
(8.95726 -0.200911 0)
(8.96784 -0.195178 0)
(8.97753 -0.190027 0)
(8.98642 -0.185459 0)
(8.99462 -0.181471 0)
(9.0022 -0.178056 0)
(9.00924 -0.175214 0)
(9.01583 -0.172946 0)
(9.02205 -0.171261 0)
(9.028 -0.170171 0)
(9.03382 -0.169643 0)
(8.33958 -0.0607326 0)
(8.37694 -0.170458 0)
(8.42595 -0.249252 0)
(8.47544 -0.302708 0)
(8.52743 -0.337917 0)
(8.58342 -0.359251 0)
(8.64182 -0.370794 0)
(8.7013 -0.375628 0)
(8.76088 -0.375704 0)
(8.81947 -0.372346 0)
(8.87606 -0.366502 0)
(8.9299 -0.35885 0)
(8.98048 -0.349903 0)
(9.02747 -0.340065 0)
(9.07071 -0.329667 0)
(9.1102 -0.318983 0)
(9.14603 -0.308245 0)
(9.17837 -0.297645 0)
(9.20744 -0.287338 0)
(9.23349 -0.277448 0)
(9.25679 -0.268068 0)
(9.27759 -0.259266 0)
(9.29615 -0.251088 0)
(9.3127 -0.243563 0)
(9.32747 -0.236706 0)
(9.34065 -0.230525 0)
(9.35242 -0.225019 0)
(9.36294 -0.22019 0)
(9.37233 -0.216049 0)
(9.38072 -0.212609 0)
(9.38823 -0.209933 0)
(9.39495 -0.208035 0)
(9.40112 -0.207099 0)
(8.33758 -0.0466949 0)
(8.39338 -0.121433 0)
(8.49343 -0.185703 0)
(8.60792 -0.2477 0)
(8.72932 -0.300893 0)
(8.85211 -0.342087 0)
(8.96937 -0.371988 0)
(9.07698 -0.391485 0)
(9.17274 -0.401739 0)
(9.25549 -0.404356 0)
(9.32503 -0.400983 0)
(9.38185 -0.393108 0)
(9.42689 -0.382019 0)
(9.46129 -0.36879 0)
(9.48634 -0.354282 0)
(9.5033 -0.339168 0)
(9.51337 -0.323965 0)
(9.51765 -0.309054 0)
(9.51713 -0.294711 0)
(9.51264 -0.281124 0)
(9.50493 -0.268414 0)
(9.49461 -0.256653 0)
(9.48219 -0.245868 0)
(9.46811 -0.236062 0)
(9.4527 -0.227212 0)
(9.43624 -0.219283 0)
(9.41894 -0.212231 0)
(9.40096 -0.20601 0)
(9.3824 -0.200589 0)
(9.36326 -0.195946 0)
(9.34369 -0.19219 0)
(9.32335 -0.189285 0)
(9.30298 -0.188277 0)
(8.40924 -0.22143 0)
(8.6349 -0.428716 0)
(8.83287 -0.52321 0)
(8.97626 -0.583954 0)
(9.06945 -0.616738 0)
(9.1115 -0.627165 0)
(9.1068 -0.622827 0)
(9.06483 -0.607815 0)
(8.99455 -0.584991 0)
(8.90345 -0.556946 0)
(8.79807 -0.525767 0)
(8.68379 -0.493056 0)
(8.56482 -0.460052 0)
(8.44435 -0.427679 0)
(8.32472 -0.396592 0)
(8.20761 -0.367224 0)
(8.09415 -0.339833 0)
(7.98506 -0.31455 0)
(7.88073 -0.291405 0)
(7.78134 -0.270361 0)
(7.68688 -0.251336 0)
(7.59723 -0.234218 0)
(7.51222 -0.218874 0)
(7.43158 -0.205165 0)
(7.35505 -0.192944 0)
(7.28233 -0.182062 0)
(7.21313 -0.172364 0)
(7.14712 -0.163703 0)
(7.08398 -0.1559 0)
(7.02323 -0.148789 0)
(6.96449 -0.142272 0)
(6.90655 -0.135454 0)
(6.84992 -0.132047 0)
(8.13705 -0.207225 0)
(7.8475 -0.388196 0)
(7.38491 -0.439574 0)
(6.85914 -0.440156 0)
(6.35927 -0.408747 0)
(5.88826 -0.359655 0)
(5.44877 -0.30518 0)
(5.04823 -0.251735 0)
(4.6877 -0.202552 0)
(4.3652 -0.159254 0)
(4.07836 -0.122284 0)
(3.8243 -0.0914132 0)
(3.59979 -0.0660921 0)
(3.40164 -0.0456227 0)
(3.22682 -0.0292726 0)
(3.07252 -0.0163503 0)
(2.93616 -0.00623967 0)
(2.81543 0.00158915 0)
(2.70829 0.00758036 0)
(2.61293 0.0121001 0)
(2.52777 0.0154472 0)
(2.45142 0.0178635 0)
(2.3827 0.0195455 0)
(2.32057 0.0206532 0)
(2.26413 0.0213232 0)
(2.21263 0.0216738 0)
(2.1654 0.0218356 0)
(2.12199 0.0219412 0)
(2.08184 0.0222338 0)
(2.04511 0.0230512 0)
(2.01081 0.0247319 0)
(1.98114 0.0301922 0)
(1.95396 0.024731 0)
(1.85592 0.0746742 0)