/*--------------------------------*- C++ -*----------------------------------*\
| =========                 |                                                 |
| \\      /  F ield         | OpenFOAM: The Open Source CFD Toolbox           |
|  \\    /   O peration     | Version:  2.1.1                                 |
|   \\  /    A nd           | Web:      www.OpenFOAM.org                      |
|    \\/     M anipulation  |                                                 |
\*---------------------------------------------------------------------------*/
FoamFile
{
    version     2.0;
    format      ascii;
    class       volScalarField;
    location    "0.11";
    object      epsilon;
}
// * * * * * * * * * * * * * * * * * * * * * * * * * * * * * * * * * * * * * //

dimensions      [0 2 -3 0 0 0 0];

internalField   nonuniform List<scalar> 
6820
(
151.448
203.151
260.735
321.761
383.63
443.73
499.775
550.059
593.525
629.733
658.751
681.019
697.212
708.127
714.59
717.398
717.278
714.874
710.734
705.317
699.001
692.088
684.819
677.382
669.92
662.543
655.327
648.343
641.547
635.344
627.883
628.025
593.345
11.7448
21.417
29.9428
38.6221
47.5759
56.5501
65.3079
73.6479
81.408
88.4798
94.8086
100.387
105.246
109.441
113.044
116.132
118.783
121.069
123.055
124.8
126.351
127.749
129.029
130.218
131.341
132.416
133.462
134.502
135.558
136.697
137.942
139.711
141.873
5.8378
7.51684
9.20671
10.8094
12.32
13.7477
15.0887
16.3396
17.4985
18.5654
19.5419
20.4318
21.2401
21.9735
22.6391
23.2445
23.7973
24.305
24.7743
25.2117
25.6227
26.0124
26.3851
26.7446
27.094
27.4361
27.7731
28.1072
28.4396
28.773
29.1089
29.4449
29.8239
5.24229
5.56004
6.00444
6.49349
6.98576
7.46202
7.91319
8.33496
8.72567
9.08515
9.41416
9.71403
9.98648
10.2334
10.4568
10.6587
10.8411
11.006
11.1551
11.2903
11.4132
11.5253
11.6279
11.7224
11.8098
11.8912
11.9673
12.039
12.1065
12.1705
12.2304
12.2871
12.3372
5.17349
5.18677
5.26821
5.39776
5.55639
5.7297
5.90782
6.08432
6.25517
6.41795
6.57125
6.71439
6.84712
6.9695
7.08182
7.18447
7.27796
7.36283
7.43968
7.50907
7.57161
7.62786
7.67838
7.72369
7.76429
7.80065
7.83319
7.86231
7.88837
7.91169
7.9325
7.95109
7.96751
5.16878
5.12131
5.09602
5.09481
5.11536
5.15307
5.20299
5.26075
5.32291
5.38691
5.45086
5.51345
5.57375
5.63116
5.68527
5.73587
5.78286
5.82623
5.86604
5.90238
5.93541
5.96527
5.99215
6.01623
6.0377
6.05675
6.07356
6.08831
6.10118
6.11234
6.12195
6.13012
6.13705
5.16887
5.11169
5.06116
5.01963
4.9884
4.96755
4.95615
4.95279
4.95586
4.96385
4.9754
4.98942
5.00497
5.02135
5.03799
5.05446
5.07044
5.08569
5.10004
5.11338
5.12562
5.13675
5.14674
5.15561
5.16337
5.17008
5.17577
5.1805
5.18432
5.1873
5.18949
5.19096
5.19176
5.16902
5.11062
5.05514
5.00339
4.95619
4.91414
4.87747
4.84611
4.81972
4.79781
4.77979
4.76509
4.75314
4.74345
4.73555
4.72908
4.72369
4.71913
4.71515
4.71159
4.70828
4.70511
4.70199
4.69883
4.6956
4.69224
4.68873
4.68505
4.68119
4.67716
4.67294
4.66854
4.66397
5.16904
5.11054
5.05431
5.00049
4.94927
4.9009
4.85559
4.81346
4.77456
4.73882
4.70611
4.67624
4.64896
4.62405
4.60125
4.58032
4.56104
4.54321
4.52664
4.51116
4.49663
4.48293
4.46994
4.45756
4.44572
4.43434
4.42337
4.41275
4.40245
4.39243
4.38267
4.37312
4.36378
5.16904
5.11054
5.0542
5.00002
4.94796
4.89803
4.85028
4.80472
4.76139
4.72029
4.6814
4.64467
4.61003
4.57738
4.54661
4.51762
4.49027
4.46445
4.44004
4.41692
4.395
4.37418
4.35435
4.33544
4.31738
4.30008
4.2835
4.26758
4.25226
4.2375
4.22326
4.20951
4.1962
5.16904
5.11053
5.05418
4.99994
4.94773
4.89748
4.84913
4.80265
4.758
4.71515
4.67407
4.63472
4.59706
4.56105
4.52664
4.49375
4.46233
4.43231
4.40362
4.3762
4.34996
4.32486
4.30081
4.27777
4.25567
4.23445
4.21407
4.19448
4.17562
4.15747
4.13997
4.1231
4.10681
5.16904
5.11052
5.05417
4.99991
4.94767
4.89735
4.84888
4.80219
4.7572
4.71386
4.67211
4.63191
4.5932
4.55594
4.52008
4.48559
4.4524
4.42047
4.38977
4.36022
4.3318
4.30445
4.27812
4.25278
4.22837
4.20486
4.1822
4.16035
4.13929
4.11896
4.09935
4.08041
4.06211
5.16904
5.11052
5.05416
4.99989
4.94764
4.89731
4.84881
4.80206
4.75699
4.71353
4.6716
4.63115
4.59212
4.55446
4.51812
4.48304
4.44919
4.41651
4.38498
4.35453
4.32514
4.29676
4.26936
4.24289
4.21733
4.19264
4.16878
4.14572
4.12343
4.10189
4.08105
4.0609
4.0414
5.16903
5.11051
5.05415
4.99988
4.94762
4.89728
4.84877
4.802
4.75691
4.71341
4.67143
4.63092
4.5918
4.55402
4.51753
4.48227
4.44819
4.41526
4.38342
4.35264
4.32287
4.29408
4.26623
4.23928
4.21321
4.18799
4.16357
4.13993
4.11705
4.0949
4.07344
4.05266
4.03252
5.16903
5.11051
5.05414
4.99987
4.9476
4.89725
4.84873
4.80196
4.75685
4.71334
4.67135
4.63081
4.59166
4.55385
4.51731
4.48199
4.44784
4.41483
4.38289
4.35199
4.32209
4.29315
4.26513
4.238
4.21173
4.18629
4.16164
4.13776
4.11462
4.09219
4.07045
4.04938
4.02894
5.16903
5.11051
5.05413
4.99986
4.94758
4.89723
4.8487
4.80192
4.75681
4.71328
4.67128
4.63073
4.59157
4.55374
4.51718
4.48184
4.44767
4.41462
4.38265
4.35171
4.32176
4.29277
4.26469
4.2375
4.21115
4.18563
4.16089
4.13691
4.11367
4.09113
4.06927
4.04807
4.0275
5.16903
5.1105
5.05413
4.99985
4.94757
4.89721
4.84868
4.80189
4.75676
4.71323
4.67122
4.63066
4.59149
4.55365
4.51708
4.48172
4.44754
4.41448
4.38249
4.35153
4.32156
4.29255
4.26445
4.23723
4.21085
4.18529
4.16052
4.1365
4.11321
4.09062
4.06872
4.04746
4.02683
5.16903
5.1105
5.05412
4.99984
4.94756
4.89719
4.84865
4.80186
4.75673
4.71319
4.67117
4.6306
4.59142
4.55356
4.51698
4.48162
4.44743
4.41435
4.38235
4.35138
4.3214
4.29238
4.26426
4.23702
4.21063
4.18506
4.16026
4.13622
4.11291
4.0903
4.06837
4.04709
4.02643
5.16903
5.1105
5.05412
4.99983
4.94755
4.89718
4.84863
4.80183
4.75669
4.71315
4.67112
4.63054
4.59135
4.55349
4.5169
4.48153
4.44733
4.41424
4.38223
4.35125
4.32126
4.29222
4.26409
4.23684
4.21044
4.18485
4.16004
4.13599
4.11266
4.09004
4.06809
4.04678
4.02611
5.16903
5.1105
5.05411
4.99982
4.94754
4.89716
4.84861
4.80181
4.75666
4.71311
4.67107
4.63049
4.59129
4.55342
4.51682
4.48144
4.44723
4.41414
4.38212
4.35113
4.32112
4.29207
4.26394
4.23668
4.21026
4.18466
4.15984
4.13577
4.11243
4.08979
4.06783
4.04651
4.02582
5.16903
5.1105
5.05411
4.99982
4.94753
4.89715
4.8486
4.80179
4.75664
4.71308
4.67103
4.63044
4.59123
4.55336
4.51675
4.48136
4.44714
4.41404
4.38201
4.35101
4.321
4.29194
4.26379
4.23652
4.21009
4.18448
4.15965
4.13557
4.11222
4.08956
4.06758
4.04625
4.02554
5.16903
5.11049
5.05411
4.99981
4.94752
4.89714
4.84858
4.80177
4.75661
4.71305
4.671
4.6304
4.59119
4.5533
4.51669
4.48129
4.44706
4.41395
4.38191
4.3509
4.32088
4.29181
4.26365
4.23637
4.20993
4.18431
4.15946
4.13537
4.11201
4.08934
4.06735
4.046
4.02528
5.16903
5.11049
5.05411
4.99981
4.94752
4.89713
4.84857
4.80175
4.75659
4.71302
4.67096
4.63036
4.59114
4.55325
4.51663
4.48122
4.44699
4.41387
4.38182
4.3508
4.32077
4.29169
4.26352
4.23623
4.20978
4.18415
4.15929
4.13519
4.11181
4.08913
4.06712
4.04577
4.02503
5.16903
5.11049
5.0541
4.99981
4.94751
4.89712
4.84856
4.80174
4.75657
4.713
4.67094
4.63033
4.5911
4.5532
4.51657
4.48116
4.44692
4.41379
4.38173
4.35071
4.32067
4.29158
4.2634
4.2361
4.20964
4.18399
4.15913
4.13501
4.11163
4.08893
4.06691
4.04554
4.0248
5.16903
5.11049
5.0541
4.9998
4.94751
4.89712
4.84855
4.80172
4.75656
4.71298
4.67091
4.63029
4.59106
4.55316
4.51653
4.48111
4.44685
4.41372
4.38166
4.35062
4.32057
4.29148
4.26329
4.23598
4.20951
4.18385
4.15898
4.13485
4.11145
4.08875
4.06671
4.04533
4.02457
5.16903
5.11049
5.0541
4.9998
4.9475
4.89711
4.84854
4.80171
4.75654
4.71296
4.67089
4.63027
4.59103
4.55313
4.51648
4.48106
4.4468
4.41366
4.38159
4.35055
4.32049
4.29138
4.26319
4.23587
4.20939
4.18372
4.15884
4.1347
4.11129
4.08857
4.06653
4.04514
4.02436
5.16903
5.11049
5.0541
4.9998
4.9475
4.89711
4.84854
4.8017
4.75653
4.71294
4.67087
4.63024
4.591
4.55309
4.51644
4.48101
4.44675
4.4136
4.38152
4.35047
4.32041
4.29129
4.26309
4.23576
4.20928
4.1836
4.1587
4.13456
4.11114
4.08841
4.06636
4.04495
4.02417
5.16903
5.11049
5.0541
4.9998
4.9475
4.8971
4.84853
4.8017
4.75652
4.71293
4.67086
4.63023
4.59099
4.55307
4.51642
4.48098
4.44671
4.41356
4.38147
4.35042
4.32035
4.29122
4.26301
4.23568
4.20918
4.18349
4.15859
4.13443
4.111
4.08827
4.0662
4.04478
4.02399
5.16903
5.11049
5.0541
4.9998
4.9475
4.8971
4.84853
4.80169
4.75651
4.71292
4.67084
4.63021
4.59096
4.55304
4.51638
4.48094
4.44667
4.41351
4.38142
4.35036
4.32028
4.29115
4.26293
4.23559
4.20909
4.18339
4.15848
4.13432
4.11088
4.08813
4.06606
4.04463
4.02383
5.16903
5.11049
5.0541
4.9998
4.9475
4.89711
4.84853
4.8017
4.75652
4.71293
4.67085
4.63022
4.59097
4.55305
4.51639
4.48094
4.44666
4.4135
4.3814
4.35034
4.32025
4.29112
4.26289
4.23554
4.20903
4.18333
4.15841
4.13424
4.11079
4.08804
4.06595
4.04452
4.02371
5.16903
5.11049
5.0541
4.9998
4.9475
4.8971
4.84853
4.80169
4.75651
4.71291
4.67083
4.63019
4.59094
4.55302
4.51636
4.48091
4.44663
4.41347
4.38137
4.3503
4.32022
4.29108
4.26285
4.2355
4.20899
4.18328
4.15836
4.13418
4.11073
4.08798
4.06589
4.04445
4.02364
5.16903
5.11049
5.0541
4.99981
4.94752
4.89714
4.84858
4.80176
4.75659
4.713
4.67093
4.6303
4.59105
4.55312
4.51646
4.48102
4.44673
4.41357
4.38147
4.3504
4.32032
4.29118
4.26296
4.23561
4.2091
4.1834
4.15848
4.13432
4.11087
4.08813
4.06606
4.04463
4.02383
5.16903
5.11051
5.05414
4.99985
4.94756
4.89718
4.84861
4.80178
4.75661
4.71302
4.67095
4.63033
4.59109
4.55318
4.51654
4.48112
4.44687
4.41373
4.38167
4.35065
4.32061
4.29152
4.26335
4.23606
4.20962
4.18399
4.15915
4.13506
4.1117
4.08904
4.06706
4.04573
4.02503
5.16903
5.1105
5.05415
4.99992
4.9477
4.89739
4.8489
4.80214
4.75703
4.71351
4.67151
4.63096
4.59181
4.55399
4.51746
4.48217
4.44806
4.4151
4.38322
4.3524
4.32259
4.29376
4.26586
4.23885
4.21271
4.18741
4.1629
4.13917
4.11618
4.0939
4.07231
4.05138
4.03109
5.16905
5.11063
5.05441
5.00026
4.9481
4.89786
4.84948
4.80288
4.75802
4.71482
4.67323
4.63317
4.59461
4.55747
4.5217
4.48725
4.45406
4.42209
4.39128
4.36159
4.33296
4.30536
4.27874
4.25306
4.22827
4.20435
4.18125
4.15894
4.13739
4.11656
4.09643
4.07696
4.05813
5.16908
5.11079
5.05488
5.00136
4.95017
4.9012
4.8544
4.80971
4.76709
4.72647
4.68778
4.65095
4.61589
4.58253
4.55077
4.52053
4.49173
4.46428
4.4381
4.41312
4.38926
4.36646
4.34466
4.32379
4.3038
4.28463
4.26624
4.24858
4.2316
4.21528
4.19957
4.18443
4.16984
5.16939
5.11359
5.06202
5.01464
4.97148
4.93247
4.89743
4.8661
4.83816
4.81328
4.79114
4.77144
4.75389
4.73824
4.72425
4.71171
4.70044
4.69027
4.68106
4.67267
4.66501
4.65796
4.65144
4.64539
4.63972
4.63439
4.62935
4.62456
4.61997
4.61555
4.61129
4.60714
4.6031
5.17808
5.16329
5.16947
5.1911
5.22423
5.26582
5.3135
5.36536
5.41999
5.4763
5.53346
5.59081
5.64784
5.70418
5.75952
5.81364
5.86639
5.91765
5.96734
6.01542
6.06186
6.10665
6.14981
6.19135
6.23131
6.26971
6.3066
6.34202
6.37603
6.40866
6.43997
6.47001
6.49884
5.63861
6.43047
7.14599
7.82609
8.49558
9.14845
9.77883
10.3844
10.9649
11.5213
12.055
12.5676
13.0606
13.5353
13.9932
14.4352
14.8625
15.2758
15.676
16.0637
16.4396
16.8042
17.1581
17.5016
17.8352
18.1594
18.4745
18.7808
19.0787
19.3686
19.6508
19.9254
20.1929
44.7794
48.3124
51.8864
55.4657
59.0311
62.5709
66.0743
69.5317
72.9342
76.2741
79.5445
82.7395
85.8542
88.8847
91.8278
94.6809
97.4425
100.112
102.687
105.17
107.56
109.859
112.066
114.185
116.216
118.162
120.024
121.805
123.507
125.133
126.685
128.165
129.578
704.654
833.862
939.295
1026.12
1097.77
1151.5
1183.03
1189.82
1173.03
1137.06
1088.11
1032.53
975.552
920.679
869.733
823.258
781.056
742.645
707.535
675.35
645.83
618.779
594.014
571.324
550.467
531.174
513.168
496.182
479.973
464.327
449.066
434.047
419.16
404.324
389.486
374.615
359.702
344.753
329.786
314.826
299.902
285.038
270.255
255.566
240.971
226.459
212.01
197.594
183.175
168.72
154.201
139.609
124.957
110.299
95.7315
81.4126
67.5639
54.4738
42.4843
31.9554
23.2001
16.3937
11.495
8.23694
6.21726
5.03305
4.3696
4.01645
3.84381
3.774
3.76073
3.77642
3.80471
3.83612
3.86538
3.88991
3.90875
3.922
3.93038
3.93497
3.93703
3.93787
3.93871
3.94066
3.94451
3.95076
3.9595
3.97045
3.98301
3.99632
4.00943
4.02138
4.03125
4.03827
4.04184
4.04151
4.03716
4.02802
4.01774
3.98836
146.306
152.956
163.236
178.574
200.435
229.85
267.145
311.591
361.265
413.157
463.525
508.509
544.832
570.4
584.61
588.27
583.19
571.644
555.881
537.789
518.755
499.669
481.022
463.031
445.749
429.141
413.141
397.671
382.657
368.027
353.713
339.659
325.813
312.137
298.605
285.206
271.94
258.817
245.854
233.07
220.485
208.112
195.958
184.02
172.284
160.728
149.319
138.023
126.802
115.625
104.476
93.3564
82.3015
71.3827
60.7175
50.4722
40.8584
32.1183
24.4941
18.1792
13.2612
9.68225
7.24679
5.68443
4.72912
4.16943
3.85825
3.69997
3.63384
3.62138
3.63821
3.66898
3.70418
3.73811
3.76759
3.79112
3.80831
3.81949
3.82545
3.82725
3.82611
3.82327
3.81993
3.81719
3.81593
3.81676
3.81998
3.82551
3.83298
3.84174
3.851
3.85989
3.86759
3.87332
3.87645
3.8765
3.87326
3.86592
3.85761
3.83263
30.1872
30.6243
31.2948
32.4131
34.051
36.3705
39.7029
44.4598
51.1088
60.1202
71.8836
86.6025
104.191
124.205
145.839
168.008
189.49
209.107
225.895
239.225
248.839
254.82
257.508
257.388
254.999
250.854
245.398
238.99
231.901
224.331
216.421
208.271
199.953
191.524
183.031
174.517
166.023
157.588
149.248
141.033
132.966
125.064
117.331
109.763
102.348
95.0642
87.8851
80.783
73.7332
66.7194
59.7401
52.815
45.9905
39.3433
32.9809
27.0365
21.6551
16.9724
13.0859
10.0274
7.751
6.1448
5.06426
4.36763
3.93772
3.68724
3.55479
3.49813
3.48849
3.50633
3.53846
3.57614
3.61369
3.6476
3.67589
3.6977
3.71291
3.72196
3.72564
3.72495
3.72101
3.71498
3.70801
3.70115
3.69532
3.69122
3.68927
3.68959
3.69199
3.69605
3.70114
3.70654
3.71149
3.71526
3.71726
3.71694
3.71403
3.70774
3.70073
3.67913
12.393
12.4711
12.5707
12.6995
12.8713
13.0852
13.3636
13.7435
14.2743
15.0178
16.0471
17.4456
19.3035
21.712
24.754
28.4898
32.9385
38.0613
43.7509
49.8318
56.0747
62.2209
68.0118
73.2171
77.6571
81.2141
83.8343
85.5212
86.3237
86.3214
85.6114
84.2971
82.4799
80.2546
77.7069
74.9129
71.939
68.8422
65.6701
62.4611
59.2444
56.04
52.8592
49.7054
46.5751
43.4597
40.3475
37.2267
34.0885
30.9308
27.7625
24.6059
21.4992
18.496
15.6617
13.0659
10.7721
8.82516
7.24262
6.01134
5.09319
4.43595
3.98468
3.68949
3.50887
3.41005
3.36785
3.36337
3.38258
3.41525
3.45403
3.49376
3.53092
3.56327
3.58952
3.60916
3.62223
3.62916
3.63071
3.62778
3.6214
3.61264
3.60255
3.59214
3.58231
3.5738
3.56713
3.56256
3.56008
3.55944
3.5602
3.56177
3.56353
3.5648
3.56502
3.56365
3.56037
3.55438
3.54801
3.52877
7.9844
8.00279
8.02084
8.03877
8.05828
8.08196
8.11119
8.14978
8.20318
8.2785
8.38446
8.53129
8.73046
8.99421
9.33494
9.76429
10.2922
10.9256
11.6675
12.5156
13.4616
14.4906
15.5806
16.7034
17.8255
18.9108
19.9228
20.8283
21.5997
22.2167
22.6676
22.9492
23.0653
23.0261
22.8461
22.5426
22.1343
21.6396
21.0757
20.4579
19.7983
19.1058
18.3861
17.6417
16.872
16.0744
15.2451
14.38
13.4765
12.5347
11.5593
10.5609
9.55601
8.56684
7.61902
6.73856
5.94818
5.26403
4.69383
4.23686
3.88547
3.62754
3.44875
3.33444
3.27077
3.24535
3.24754
3.2685
3.30112
3.33979
3.3802
3.41914
3.45432
3.48421
3.50793
3.52516
3.53598
3.54084
3.54038
3.53545
3.52694
3.51584
3.5031
3.48966
3.47638
3.464
3.45311
3.44405
3.43697
3.43177
3.42818
3.42577
3.42402
3.42236
3.42028
3.41725
3.41296
3.4066
3.40025
3.38237
6.14336
6.14828
6.15108
6.15209
6.15169
6.15022
6.1482
6.14632
6.14549
6.14686
6.15177
6.1618
6.17879
6.20476
6.24184
6.29214
6.35753
6.43945
6.5387
6.6553
6.78838
6.9361
7.0957
7.26352
7.43512
7.60546
7.76917
7.92087
8.05547
8.16856
8.25666
8.3174
8.34963
8.35335
8.32964
8.28042
8.20828
8.11613
8.00696
7.88359
7.74838
7.60305
7.44858
7.28515
7.11215
6.92826
6.73168
6.52035
6.29245
6.04681
5.78354
5.5045
5.21363
4.91701
4.62243
4.33866
4.07444
3.83741
3.6333
3.46546
3.33474
3.23983
3.17767
3.14405
3.13411
3.14284
3.16542
3.19741
3.23493
3.27467
3.31392
3.35052
3.38286
3.40982
3.43077
3.44547
3.45404
3.45686
3.45452
3.44776
3.43739
3.42427
3.40928
3.39327
3.37705
3.36134
3.34673
3.33365
3.32233
3.31283
3.30501
3.29858
3.29314
3.28826
3.28346
3.27829
3.27243
3.26508
3.25818
3.24069
5.19177
5.19052
5.18783
5.1837
5.17813
5.17115
5.16298
5.15388
5.1441
5.13388
5.12348
5.11315
5.10318
5.09391
5.08571
5.079
5.07419
5.07167
5.07174
5.07456
5.08011
5.08817
5.09829
5.1098
5.12185
5.13341
5.14337
5.15058
5.15389
5.1523
5.14493
5.13116
5.11058
5.08308
5.04877
5.00801
4.96133
4.90941
4.85298
4.7928
4.72954
4.66376
4.59584
4.52593
4.45398
4.37971
4.30263
4.22213
4.13754
4.04832
3.95419
3.85532
3.75254
3.64741
3.54222
3.4399
3.34368
3.25683
3.18224
3.12211
3.07774
3.04946
3.03665
3.03793
3.05134
3.07456
3.10511
3.14051
3.17838
3.21658
3.2532
3.28668
3.31578
3.33965
3.35776
3.36993
3.37628
3.37713
3.37302
3.36459
3.35256
3.33769
3.32079
3.30261
3.2839
3.26534
3.24752
3.2309
3.21578
3.2023
3.19046
3.1801
3.17095
3.16267
3.15488
3.14719
3.13929
3.13044
3.12246
3.10448
4.65836
4.65136
4.64352
4.63478
4.62517
4.61471
4.60345
4.59143
4.57872
4.56538
4.55147
4.53699
4.52198
4.50642
4.49034
4.47377
4.45675
4.43933
4.4216
4.4036
4.38539
4.36696
4.34829
4.32929
4.30982
4.28971
4.26872
4.2466
4.2231
4.19797
4.17097
4.14195
4.11078
4.07742
4.04188
4.00426
3.96471
3.92344
3.88067
3.83668
3.79171
3.746
3.69977
3.65316
3.60627
3.55916
3.5118
3.46415
3.41615
3.36776
3.31901
3.27006
3.2213
3.17333
3.12704
3.08357
3.04423
3.01042
2.98342
2.96432
2.95385
2.95227
2.9594
2.97461
2.99688
3.02492
3.05721
3.09214
3.12807
3.16342
3.19674
3.22679
3.25256
3.27333
3.28865
3.29836
3.30257
3.30155
3.29578
3.28581
3.27229
3.25591
3.23736
3.21735
3.19655
3.17559
3.15503
3.13533
3.11685
3.0998
3.08425
3.07016
3.05737
3.04565
3.03472
3.02423
3.01396
3.00316
2.9937
2.97443
4.35307
4.34073
4.32804
4.31493
4.30139
4.28737
4.27289
4.25795
4.2426
4.22683
4.21066
4.19407
4.17705
4.15953
4.14149
4.12287
4.10362
4.08371
4.0631
4.04179
4.01976
3.99703
3.9736
3.94947
3.92463
3.89909
3.87283
3.84582
3.81803
3.78942
3.75999
3.72969
3.69854
3.66654
3.63371
3.60011
3.5658
3.53085
3.49538
3.45948
3.42328
3.38689
3.35042
3.31401
3.27777
3.2418
3.20621
3.17114
3.1367
3.10305
3.07038
3.03896
3.00909
2.9812
2.9558
2.93348
2.91491
2.90074
2.89162
2.88807
2.89041
2.89877
2.91298
2.93264
2.95706
2.98533
3.01639
3.04902
3.08195
3.1139
3.1437
3.17028
3.19278
3.21055
3.2232
3.23058
3.23276
3.22999
3.22266
3.21129
3.19643
3.17872
3.15877
3.13721
3.11465
3.09167
3.0688
3.04649
3.02509
3.00487
2.98598
2.96844
2.9522
2.93712
2.923
2.90959
2.8967
2.88363
2.87235
2.85112
4.18118
4.16421
4.14715
4.12996
4.11262
4.09509
4.07738
4.05948
4.04141
4.02315
4.00472
3.98609
3.96724
3.94814
3.92875
3.90901
3.88887
3.86828
3.84719
3.82558
3.8034
3.78064
3.75728
3.73332
3.70877
3.68364
3.65794
3.63169
3.6049
3.5776
3.5498
3.52154
3.49285
3.46374
3.43426
3.40444
3.37433
3.34397
3.31342
3.28274
3.25198
3.22123
3.19056
3.16007
3.12986
3.10004
3.07074
3.04213
3.01437
2.98767
2.96227
2.93845
2.9165
2.89679
2.87969
2.86562
2.85499
2.84821
2.84565
2.84758
2.85417
2.86543
2.88121
2.90115
2.92472
2.9512
2.97972
3.00928
3.03882
3.06724
3.09353
3.11674
3.13611
3.15105
3.16119
3.16639
3.16668
3.16227
3.15352
3.14087
3.12482
3.10594
3.08478
3.06191
3.03788
3.01323
2.98842
2.9639
2.94002
2.91706
2.8952
2.87455
2.85512
2.83685
2.81963
2.80327
2.78766
2.77211
2.75878
2.73503
4.08848
4.06788
4.04733
4.02679
4.00626
3.9857
3.96512
3.94452
3.92389
3.90325
3.88258
3.86189
3.84116
3.82038
3.79951
3.77853
3.75739
3.73605
3.71447
3.69262
3.67046
3.64797
3.62511
3.60189
3.57828
3.5543
3.52995
3.50523
3.48017
3.45479
3.4291
3.40313
3.37691
3.35047
3.32384
3.29704
3.2701
3.24307
3.21597
3.18883
3.16172
3.13467
3.10775
3.08104
3.05462
3.0286
3.00311
2.97831
2.95437
2.93149
2.90992
2.88991
2.87174
2.85573
2.84221
2.83149
2.8239
2.81974
2.81926
2.82264
2.82998
2.84124
2.85628
2.87478
2.89627
2.92014
2.94564
2.97191
2.998
3.02296
3.04587
3.0659
3.08232
3.09462
3.10242
3.10559
3.10414
3.09823
3.08818
3.07437
3.05727
3.03737
3.01517
2.9912
2.96595
2.9399
2.91349
2.88713
2.86116
2.83587
2.81145
2.78806
2.76575
2.74454
2.72439
2.70516
2.68681
2.66869
2.65317
2.62651
4.04151
4.01837
3.99531
3.97232
3.94938
3.9265
3.90366
3.88088
3.85816
3.8355
3.81292
3.79041
3.76797
3.74559
3.72327
3.70098
3.67871
3.65642
3.63409
3.61169
3.5892
3.56659
3.54383
3.52091
3.49783
3.47456
3.45111
3.42749
3.40368
3.37971
3.35558
3.33131
3.30691
3.2824
3.25781
3.23314
3.20841
3.18366
3.1589
3.13415
3.10945
3.08485
3.06038
3.03612
3.01215
2.98856
2.96547
2.94302
2.92139
2.90075
2.88134
2.86338
2.84715
2.83291
2.82094
2.81154
2.80497
2.80148
2.80125
2.80444
2.8111
2.8212
2.83459
2.85097
2.86995
2.89097
2.91336
2.93636
2.95912
2.98078
3.00051
3.01754
3.03122
3.04106
3.04671
3.048
3.04495
3.03768
3.02645
3.01162
2.99359
2.9728
2.94972
2.92482
2.89855
2.87136
2.84363
2.81576
2.78806
2.7608
2.73421
2.70845
2.68363
2.65978
2.63693
2.61501
2.59403
2.57334
2.5556
2.52578
4.01942
3.9947
3.97004
3.94545
3.92092
3.89645
3.87205
3.84772
3.82348
3.79933
3.77528
3.75135
3.72753
3.70384
3.68027
3.65682
3.63347
3.61022
3.58705
3.56395
3.54089
3.51786
3.49484
3.47181
3.44878
3.42572
3.40263
3.3795
3.35633
3.33313
3.30989
3.28662
3.26332
3.24
3.21667
3.19334
3.17001
3.14671
3.12343
3.1002
3.07705
3.05401
3.03111
3.00841
2.98599
2.96394
2.94235
2.92136
2.90113
2.88183
2.86365
2.84681
2.83156
2.81813
2.80678
2.79776
2.7913
2.78761
2.78687
2.78918
2.79461
2.80309
2.8145
2.82858
2.84496
2.86313
2.88249
2.90236
2.92196
2.94051
2.95727
2.97152
2.98265
2.99021
2.99387
2.99345
2.98893
2.98042
2.96815
2.9524
2.93356
2.91202
2.8882
2.86253
2.83543
2.80729
2.7785
2.74939
2.72027
2.6914
2.663
2.63524
2.60824
2.5821
2.55684
2.53246
2.50902
2.48588
2.46598
2.43291
4.0098
3.9842
3.95864
3.93312
3.90765
3.88223
3.85686
3.83155
3.80633
3.78119
3.75616
3.73124
3.70645
3.68179
3.65728
3.63292
3.60871
3.58464
3.56071
3.53691
3.51324
3.48968
3.46624
3.44288
3.41962
3.39643
3.37332
3.35027
3.32729
3.30436
3.28149
3.25867
3.23591
3.2132
3.19054
3.16794
3.14539
3.12291
3.1005
3.07817
3.05593
3.03382
3.01187
2.99013
2.96866
2.94754
2.92687
2.90676
2.88736
2.86882
2.85131
2.83505
2.82024
2.80711
2.79587
2.78675
2.77997
2.7757
2.7741
2.77526
2.77924
2.78597
2.79534
2.80711
2.82093
2.83636
2.85285
2.86976
2.8864
2.90207
2.91605
2.92771
2.93649
2.94194
2.94376
2.94176
2.93591
2.92629
2.91307
2.89653
2.87699
2.85481
2.83038
2.80408
2.7763
2.74741
2.71775
2.68765
2.65739
2.62721
2.59732
2.5679
2.53909
2.51098
2.48364
2.45708
2.43142
2.406
2.38408
2.34781
4.00585
3.97982
3.9538
3.92781
3.90184
3.87589
3.84999
3.82414
3.79834
3.77262
3.74699
3.72146
3.69604
3.67076
3.64561
3.62061
3.59576
3.57108
3.54655
3.52219
3.49798
3.47393
3.45004
3.42629
3.40269
3.37923
3.35591
3.33272
3.30965
3.2867
3.26388
3.24116
3.21856
3.19607
3.17368
3.1514
3.12921
3.10713
3.08515
3.06328
3.04154
3.01994
2.99852
2.97732
2.9564
2.93582
2.91567
2.89605
2.87711
2.85897
2.84179
2.82577
2.81109
2.79794
2.78654
2.77708
2.76975
2.76471
2.76211
2.76202
2.76448
2.76945
2.77681
2.78634
2.79773
2.81057
2.82435
2.8385
2.85238
2.86535
2.87676
2.88602
2.89261
2.89612
2.89624
2.8928
2.88573
2.8751
2.86105
2.84382
2.82368
2.80097
2.77603
2.74923
2.72092
2.69143
2.6611
2.63021
2.59903
2.5678
2.53672
2.50596
2.47565
2.4459
2.4168
2.38837
2.36077
2.33332
2.30956
2.27027
4.00424
3.97802
3.95179
3.92556
3.89935
3.87315
3.84698
3.82084
3.79475
3.76871
3.74275
3.71686
3.69108
3.66541
3.63986
3.61445
3.58918
3.56407
3.53911
3.51432
3.4897
3.46525
3.44097
3.41686
3.39293
3.36916
3.34556
3.32213
3.29886
3.27575
3.2528
3.23
3.20736
3.18485
3.1625
3.14027
3.11819
3.09624
3.07442
3.05275
3.03122
3.00987
2.98871
2.96778
2.94713
2.92682
2.90694
2.88758
2.86885
2.85088
2.83382
2.81783
2.80308
2.78975
2.77803
2.76809
2.7601
2.75421
2.75055
2.74918
2.75014
2.75339
2.75882
2.76622
2.77531
2.78571
2.79696
2.80853
2.81984
2.8303
2.83933
2.84636
2.85092
2.85263
2.85118
2.84641
2.83824
2.8267
2.81191
2.79407
2.77344
2.75029
2.72496
2.69777
2.66904
2.6391
2.60824
2.57675
2.54486
2.51281
2.48078
2.44895
2.41743
2.38636
2.3558
2.32581
2.29656
2.26734
2.24199
2.19995
4.00351
3.97719
3.95087
3.92454
3.89821
3.8719
3.84559
3.81932
3.79307
3.76687
3.74073
3.71465
3.68866
3.66276
3.63697
3.6113
3.58576
3.56036
3.53511
3.51002
3.48509
3.46033
3.43574
3.41133
3.3871
3.36304
3.33918
3.31549
3.29198
3.26866
3.24552
3.22255
3.19975
3.17713
3.15468
3.13238
3.11025
3.08828
3.06647
3.04483
3.02336
3.00208
2.98101
2.96018
2.93965
2.91946
2.89969
2.88042
2.86176
2.84382
2.82673
2.81064
2.79571
2.78209
2.76996
2.75946
2.75077
2.744
2.73927
2.73665
2.73615
2.73775
2.74134
2.74673
2.75366
2.76177
2.77066
2.77982
2.78874
2.79687
2.80367
2.80863
2.81132
2.81135
2.80846
2.80247
2.79329
2.78093
2.76549
2.74714
2.72609
2.7026
2.67697
2.64949
2.62046
2.59018
2.55894
2.52699
2.49457
2.46188
2.42913
2.39645
2.364
2.33186
2.30014
2.26888
2.23827
2.20757
2.18087
2.13642
4.00307
3.97671
3.95033
3.92395
3.89757
3.87119
3.84483
3.81848
3.79215
3.76586
3.73962
3.71343
3.68731
3.66128
3.63533
3.6095
3.58378
3.55818
3.53273
3.50741
3.48226
3.45726
3.43243
3.40777
3.3833
3.359
3.33489
3.31096
3.28723
3.26368
3.24033
3.21716
3.19418
3.17139
3.14878
3.12636
3.10411
3.08205
3.06016
3.03846
3.01695
2.99565
2.97457
2.95375
2.93323
2.91306
2.8933
2.87404
2.85535
2.83735
2.82015
2.80389
2.78871
2.77475
2.76216
2.75108
2.74166
2.73401
2.72823
2.72438
2.72249
2.72252
2.72437
2.72786
2.73276
2.73874
2.74541
2.75234
2.75903
2.76499
2.76973
2.77277
2.77371
2.7722
2.76797
2.76086
2.75076
2.73766
2.72165
2.70286
2.68147
2.65772
2.63187
2.60419
2.57496
2.54446
2.51295
2.48068
2.44787
2.41473
2.38142
2.34812
2.31493
2.28198
2.24935
2.21708
2.18538
2.15348
2.12569
2.07921
4.00273
3.97634
3.94993
3.92352
3.8971
3.87069
3.84428
3.81788
3.79151
3.76516
3.73885
3.71259
3.68639
3.66026
3.63422
3.60826
3.58241
3.55667
3.53106
3.50558
3.48025
3.45506
3.43004
3.40518
3.38049
3.35598
3.33166
3.30752
3.28357
3.25982
3.23625
3.21289
3.18972
3.16675
3.14397
3.12139
3.09899
3.0768
3.0548
3.03299
3.0114
2.99003
2.9689
2.94803
2.92747
2.90726
2.88746
2.86813
2.84936
2.83125
2.8139
2.79742
2.78195
2.76761
2.75454
2.74287
2.73272
2.7242
2.71741
2.71239
2.70917
2.7077
2.70791
2.70962
2.71261
2.7166
2.72121
2.72605
2.73067
2.73461
2.73743
2.73869
2.73801
2.73506
2.72961
2.72146
2.71052
2.69677
2.68025
2.66109
2.63943
2.6155
2.58951
2.56172
2.53238
2.50176
2.47009
2.43761
2.40454
2.37108
2.33739
2.30362
2.2699
2.23633
2.20301
2.16997
2.13743
2.10458
2.07593
2.0278
4.00242
3.97601
3.94958
3.92314
3.89669
3.87025
3.8438
3.81737
3.79096
3.76457
3.73821
3.7119
3.68563
3.65943
3.6333
3.60725
3.5813
3.55544
3.52971
3.50409
3.47861
3.45327
3.42808
3.40304
3.37818
3.35348
3.32896
3.30463
3.28049
3.25654
3.23278
3.20923
3.18587
3.16272
3.13977
3.11702
3.09447
3.07213
3.05
3.02808
3.00638
2.98491
2.96369
2.94275
2.92212
2.90184
2.88196
2.86254
2.84366
2.8254
2.80786
2.79114
2.77536
2.76063
2.74707
2.73481
2.72395
2.71459
2.70682
2.70068
2.69619
2.69331
2.69197
2.69201
2.69322
2.69534
2.69803
2.70092
2.70361
2.70568
2.70671
2.70631
2.70413
2.69986
2.69327
2.68417
2.67246
2.65812
2.64117
2.6217
2.59984
2.57579
2.54973
2.52191
2.49255
2.46189
2.43017
2.3976
2.36439
2.33072
2.29677
2.26269
2.22859
2.19459
2.16076
2.12716
2.09399
2.06042
2.03113
1.98171
4.00213
3.97569
3.94924
3.92278
3.89631
3.86983
3.84336
3.8169
3.79045
3.76402
3.73762
3.71125
3.68493
3.65867
3.63246
3.60634
3.58029
3.55434
3.52849
3.50275
3.47714
3.45166
3.42633
3.40114
3.37611
3.35125
3.32656
3.30205
3.27773
3.2536
3.22966
3.20592
3.18239
3.15906
3.13594
3.11303
3.09033
3.06784
3.04557
3.02353
3.00171
2.98013
2.95882
2.93779
2.91706
2.89669
2.87671
2.85718
2.83817
2.81975
2.802
2.78503
2.76893
2.7538
2.73976
2.72691
2.71536
2.70519
2.69647
2.68926
2.68357
2.67936
2.67656
2.67502
2.67457
2.67494
2.67584
2.67693
2.67782
2.67815
2.67752
2.67558
2.67201
2.66651
2.65886
2.64888
2.63648
2.62161
2.60427
2.58455
2.56256
2.53845
2.51241
2.48463
2.45533
2.42473
2.39304
2.36048
2.32723
2.29348
2.2594
2.22513
2.19079
2.15649
2.12232
2.08832
2.05471
2.02063
1.99086
1.94049
4.00185
3.97539
3.94892
3.92243
3.89594
3.86944
3.84294
3.81645
3.78996
3.7635
3.73705
3.71064
3.68427
3.65794
3.63167
3.60547
3.57934
3.5533
3.52735
3.50151
3.47578
3.45018
3.42471
3.39938
3.3742
3.34918
3.32434
3.29966
3.27517
3.25087
3.22677
3.20286
3.17916
3.15566
3.13238
3.10931
3.08646
3.06383
3.04142
3.01924
2.99731
2.97562
2.9542
2.93306
2.91224
2.89177
2.87168
2.85202
2.83286
2.81427
2.79631
2.77907
2.76264
2.74712
2.7326
2.71917
2.70694
2.69599
2.68637
2.67814
2.67131
2.66584
2.66167
2.65866
2.65665
2.6554
2.65463
2.65403
2.65326
2.65197
2.64981
2.64644
2.64157
2.63492
2.62629
2.6155
2.60246
2.5871
2.56944
2.54952
2.52745
2.50335
2.47739
2.44974
2.42059
2.39014
2.35859
2.32613
2.29296
2.25923
2.22513
2.19079
2.15633
2.12187
2.08749
2.05323
2.01933
1.98489
1.95482
1.90378
4.00158
3.97511
3.94861
3.9221
3.89559
3.86906
3.84253
3.81601
3.78949
3.76299
3.73651
3.71005
3.68363
3.65724
3.63091
3.60464
3.57844
3.55231
3.52627
3.50033
3.4745
3.44878
3.42318
3.39772
3.37241
3.34725
3.32226
3.29743
3.27279
3.24833
3.22406
3.19999
3.17613
3.15247
3.12903
3.10581
3.08281
3.06004
3.0375
3.0152
2.99314
2.97134
2.94981
2.92857
2.90764
2.88705
2.86684
2.84706
2.82774
2.80896
2.79078
2.77327
2.75651
2.74059
2.7256
2.71162
2.69873
2.68702
2.67654
2.66734
2.65942
2.65277
2.64731
2.64293
2.63947
2.63671
2.6344
2.63224
2.62993
2.62713
2.62354
2.61884
2.61275
2.60502
2.59545
2.5839
2.57024
2.55444
2.53648
2.51642
2.49433
2.47032
2.44453
2.4171
2.3882
2.35801
2.3267
2.29446
2.26146
2.22788
2.19386
2.15956
2.1251
2.09059
2.05612
2.02174
1.98767
1.95303
1.92277
1.87129
4.00133
3.97484
3.94832
3.92179
3.89525
3.8687
3.84214
3.81559
3.78904
3.7625
3.73598
3.70948
3.68301
3.65658
3.63019
3.60385
3.57758
3.55137
3.52525
3.49921
3.47328
3.44745
3.42175
3.39617
3.37073
3.34544
3.3203
3.29533
3.27054
3.24593
3.22152
3.1973
3.17328
3.14948
3.12589
3.10252
3.07938
3.05647
3.0338
3.01137
2.98919
2.96727
2.94563
2.92428
2.90324
2.88254
2.86221
2.84228
2.82281
2.80384
2.78543
2.76765
2.75057
2.73425
2.71879
2.70426
2.69074
2.6783
2.667
2.65687
2.64794
2.64017
2.63351
2.62786
2.62305
2.6189
2.61516
2.61157
2.60782
2.60363
2.59869
2.59272
2.58545