/*--------------------------------*- C++ -*----------------------------------*\
| =========                 |                                                 |
| \\      /  F ield         | OpenFOAM: The Open Source CFD Toolbox           |
|  \\    /   O peration     | Version:  2.1.1                                 |
|   \\  /    A nd           | Web:      www.OpenFOAM.org                      |
|    \\/     M anipulation  |                                                 |
\*---------------------------------------------------------------------------*/
FoamFile
{
    version     2.0;
    format      ascii;
    class       volScalarField;
    location    "0.11";
    object      k;
}
// * * * * * * * * * * * * * * * * * * * * * * * * * * * * * * * * * * * * * //

dimensions      [0 2 -2 0 0 0 0];

internalField   nonuniform List<scalar> 
6820
(
0.288909
0.351398
0.415005
0.477466
0.536861
0.591561
0.640379
0.682642
0.718146
0.747064
0.769841
0.787093
0.799522
0.807844
0.812752
0.81488
0.814789
0.812968
0.809826
0.805706
0.800889
0.7956
0.790019
0.784289
0.778519
0.772794
0.767172
0.761712
0.75638
0.751496
0.745601
0.745714
0.718002
0.265532
0.269396
0.270522
0.27134
0.272556
0.27421
0.276218
0.278465
0.28084
0.283258
0.285663
0.288025
0.290333
0.292593
0.294818
0.297028
0.299242
0.301479
0.303753
0.306078
0.308463
0.310912
0.313431
0.316018
0.318674
0.321398
0.32419
0.327055
0.330005
0.333093
0.33634
0.34019
0.344292
0.262038
0.264254
0.263597
0.261558
0.259002
0.25632
0.253628
0.25094
0.248241
0.245526
0.242796
0.240063
0.237347
0.234669
0.232053
0.229519
0.227086
0.224768
0.22258
0.220529
0.218622
0.216863
0.215252
0.213791
0.212476
0.211305
0.210273
0.209379
0.208616
0.207987
0.207477
0.207114
0.206829
0.259885
0.260272
0.259796
0.258535
0.256829
0.254891
0.252834
0.25071
0.248548
0.24636
0.244154
0.241938
0.239717
0.2375
0.235293
0.233104
0.230941
0.228811
0.22672
0.224674
0.222678
0.220736
0.218852
0.217028
0.215267
0.213569
0.211935
0.210366
0.20886
0.207417
0.206034
0.204715
0.203446
0.259299
0.258404
0.2576
0.256567
0.255295
0.25385
0.252293
0.250662
0.248985
0.247279
0.245553
0.243818
0.242078
0.240339
0.238606
0.236883
0.235174
0.233482
0.23181
0.230162
0.228539
0.226945
0.225381
0.22385
0.222352
0.220888
0.219461
0.218069
0.216714
0.215396
0.214115
0.212871
0.211666
0.259224
0.257848
0.256622
0.255437
0.254227
0.25297
0.251663
0.250313
0.24893
0.247524
0.246102
0.244673
0.24324
0.241809
0.240382
0.238964
0.237556
0.236161
0.234781
0.233418
0.232074
0.23075
0.229446
0.228165
0.226907
0.225674
0.224464
0.22328
0.222122
0.220989
0.219883
0.218805
0.217755
0.259217
0.257715
0.256309
0.25498
0.253698
0.252442
0.251196
0.249951
0.248705
0.247456
0.246206
0.244958
0.243712
0.242473
0.241241
0.240018
0.238807
0.237608
0.236423
0.235252
0.234098
0.232961
0.231841
0.230739
0.229656
0.228593
0.227549
0.226525
0.225521
0.224538
0.223577
0.222637
0.22172
0.259218
0.25769
0.256225
0.254822
0.253477
0.252181
0.250924
0.249697
0.248493
0.247307
0.246138
0.244983
0.243842
0.242714
0.241599
0.240498
0.239411
0.238339
0.237281
0.236239
0.235213
0.234203
0.23321
0.232234
0.231274
0.230332
0.229407
0.2285
0.227611
0.22674
0.225887
0.225053
0.224237
0.259218
0.257686
0.256207
0.25478
0.253405
0.25208
0.2508
0.249561
0.248357
0.247186
0.246044
0.244927
0.243833
0.24276
0.241708
0.240676
0.239662
0.238666
0.237688
0.236728
0.235785
0.234859
0.23395
0.233058
0.232184
0.231326
0.230485
0.229661
0.228853
0.228063
0.227289
0.226532
0.225792
0.259218
0.257686
0.256203
0.254769
0.253384
0.252045
0.250752
0.2495
0.248289
0.247115
0.245976
0.244868
0.243791
0.24274
0.241716
0.240716
0.23974
0.238785
0.237852
0.236939
0.236045
0.235171
0.234315
0.233478
0.232658
0.231856
0.231071
0.230303
0.229552
0.228817
0.228099
0.227397
0.22671
0.259218
0.257685
0.256202
0.254767
0.253378
0.252035
0.250735
0.249478
0.24826
0.247081
0.245939
0.244831
0.243756
0.242711
0.241696
0.240709
0.239748
0.238812
0.2379
0.237011
0.236144
0.235298
0.234473
0.233667
0.23288
0.232112
0.231362
0.230629
0.229914
0.229215
0.228533
0.227868
0.227218
0.259218
0.257685
0.256201
0.254766
0.253376
0.252031
0.250729
0.249469
0.248249
0.247067
0.245921
0.244811
0.243735
0.242691
0.241677
0.240693
0.239737
0.238808
0.237904
0.237026
0.23617
0.235338
0.234527
0.233738
0.232968
0.232219
0.231488
0.230776
0.230081
0.229404
0.228744
0.228101
0.227473
0.259218
0.257685
0.256201
0.254765
0.253375
0.25203
0.250727
0.249466
0.248244
0.24706
0.245913
0.244802
0.243724
0.242678
0.241664
0.24068
0.239725
0.238797
0.237896
0.237021
0.23617
0.235343
0.234538
0.233756
0.232994
0.232253
0.231532
0.23083
0.230147
0.229481
0.228833
0.228202
0.227587
0.259218
0.257685
0.256201
0.254764
0.253374
0.252029
0.250726
0.249464
0.248241
0.247057
0.245909
0.244796
0.243718
0.242671
0.241657
0.240672
0.239716
0.238788
0.237887
0.237013
0.236163
0.235337
0.234534
0.233754
0.232996
0.232259
0.231541
0.230844
0.230165
0.229504
0.228862
0.228236
0.227627
0.259218
0.257685
0.2562
0.254764
0.253374
0.252028
0.250724
0.249462
0.248239
0.247055
0.245906
0.244793
0.243714
0.242667
0.241651
0.240666
0.23971
0.238781
0.23788
0.237005
0.236155
0.235329
0.234527
0.233748
0.23299
0.232253
0.231537
0.230841
0.230164
0.229505
0.228865
0.228242
0.227635
0.259218
0.257685
0.2562
0.254764
0.253373
0.252027
0.250723
0.249461
0.248238
0.247053
0.245904
0.24479
0.243711
0.242663
0.241647
0.240662
0.239705
0.238776
0.237874
0.236999
0.236149
0.235323
0.23452
0.23374
0.232982
0.232246
0.23153
0.230834
0.230157
0.229499
0.228859
0.228236
0.22763
0.259218
0.257685
0.2562
0.254763
0.253373
0.252026
0.250722
0.24946
0.248236
0.247051
0.245902
0.244788
0.243708
0.24266
0.241644
0.240658
0.239701
0.238771
0.237869
0.236993
0.236143
0.235316
0.234513
0.233733
0.232975
0.232238
0.231522
0.230826
0.230148
0.22949
0.22885
0.228227
0.227621
0.259218
0.257684
0.2562
0.254763
0.253372
0.252026
0.250722
0.249459
0.248235
0.247049
0.2459
0.244786
0.243706
0.242658
0.241641
0.240654
0.239697
0.238767
0.237865
0.236989
0.236138
0.235311
0.234507
0.233727
0.232968
0.232231
0.231514
0.230817
0.23014
0.229481
0.22884
0.228217
0.22761
0.259218
0.257684
0.2562
0.254763
0.253372
0.252025
0.250721
0.249458
0.248234
0.247048
0.245899
0.244784
0.243703
0.242655
0.241638
0.240651
0.239693
0.238764
0.237861
0.236984
0.236133
0.235306
0.234502
0.233721
0.232962
0.232224
0.231507
0.23081
0.230132
0.229472
0.228831
0.228207
0.2276
0.259218
0.257684
0.2562
0.254762
0.253371
0.252025
0.25072
0.249457
0.248233
0.247047
0.245897
0.244782
0.243701
0.242653
0.241636
0.240648
0.23969
0.23876
0.237857
0.23698
0.236128
0.235301
0.234497
0.233715
0.232956
0.232218
0.2315
0.230802
0.230124
0.229464
0.228822
0.228198
0.22759
0.259218
0.257684
0.256199
0.254762
0.253371
0.252024
0.25072
0.249456
0.248232
0.247046
0.245896
0.244781
0.2437
0.242651
0.241633
0.240646
0.239687
0.238757
0.237853
0.236976
0.236124
0.235296
0.234492
0.23371
0.23295
0.232212
0.231494
0.230795
0.230116
0.229456
0.228814
0.228189
0.227581
0.259218
0.257684
0.256199
0.254762
0.253371
0.252024
0.250719
0.249456
0.248231
0.247045
0.245895
0.24478
0.243698
0.242649
0.241631
0.240643
0.239685
0.238754
0.23785
0.236973
0.23612
0.235292
0.234487
0.233705
0.232945
0.232206
0.231487
0.230789
0.230109
0.229449
0.228806
0.22818
0.227572
0.259218
0.257684
0.256199
0.254762
0.253371
0.252024
0.250719
0.249455
0.248231
0.247044
0.245894
0.244778
0.243697
0.242647
0.241629
0.240641
0.239682
0.238751
0.237847
0.236969
0.236116
0.235288
0.234483
0.2337
0.23294
0.2322
0.231482
0.230782
0.230103
0.229441
0.228798
0.228172
0.227563
0.259218
0.257684
0.256199
0.254762
0.253371
0.252023
0.250719
0.249455
0.24823
0.247043
0.245893
0.244777
0.243695
0.242646
0.241627
0.240639
0.23968
0.238749
0.237844
0.236966
0.236113
0.235284
0.234479
0.233696
0.232935
0.232195
0.231476
0.230777
0.230096
0.229435
0.228791
0.228165
0.227555
0.259218
0.257684
0.256199
0.254762
0.25337
0.252023
0.250718
0.249454
0.24823
0.247043
0.245892
0.244776
0.243694
0.242644
0.241626
0.240637
0.239678
0.238746
0.237842
0.236963
0.23611
0.235281
0.234475
0.233692
0.232931
0.23219
0.231471
0.230771
0.23009
0.229428
0.228784
0.228157
0.227547
0.259218
0.257684
0.256199
0.254762
0.25337
0.252023
0.250718
0.249454
0.248229
0.247042
0.245891
0.244775
0.243693
0.242643
0.241625
0.240636
0.239676
0.238744
0.23784
0.236961
0.236107
0.235278
0.234472
0.233688
0.232927
0.232186
0.231466
0.230766
0.230085
0.229422
0.228778
0.22815
0.22754
0.259218
0.257684
0.256199
0.254762
0.25337
0.252023
0.250718
0.249454
0.248229
0.247042
0.245891
0.244775
0.243692
0.242642
0.241623
0.240634
0.239674
0.238743
0.237837
0.236958
0.236104
0.235275
0.234468
0.233685
0.232923
0.232182
0.231462
0.230761
0.23008
0.229417
0.228772
0.228144
0.227533
0.259218
0.257684
0.256199
0.254762
0.25337
0.252023
0.250718
0.249454
0.248229
0.247041
0.24589
0.244774
0.243692
0.242641
0.241622
0.240633
0.239673
0.238741
0.237836
0.236957
0.236102
0.235272
0.234466
0.233682
0.23292
0.232178
0.231458
0.230757
0.230075
0.229412
0.228767
0.228139
0.227527
0.259218
0.257684
0.256199
0.254762
0.25337
0.252023
0.250718
0.249453
0.248228
0.247041
0.24589
0.244773
0.243691
0.24264
0.241621
0.240632
0.239672
0.23874
0.237834
0.236955
0.2361
0.23527
0.234463
0.233679
0.232917
0.232175
0.231454
0.230753
0.230071
0.229407
0.228762
0.228133
0.227522
0.259218
0.257684
0.256199
0.254762
0.25337
0.252023
0.250718
0.249454
0.248229
0.247041
0.24589
0.244774
0.243691
0.242641
0.241622
0.240632
0.239672
0.238739
0.237834
0.236954
0.2361
0.235269
0.234462
0.233678
0.232915
0.232173
0.231452
0.230751
0.230068
0.229404
0.228758
0.22813
0.227518
0.259218
0.257684
0.256199
0.254762
0.25337
0.252023
0.250718
0.249453
0.248228
0.247041
0.24589
0.244773
0.243691
0.24264
0.241621
0.240632
0.239671
0.238739
0.237833
0.236953
0.236099
0.235268
0.234461
0.233676
0.232914
0.232172
0.23145
0.230749
0.230066
0.229402
0.228756
0.228127
0.227514
0.259218
0.257684
0.256199
0.254762
0.253371
0.252024
0.25072
0.249456
0.248231
0.247044
0.245893
0.244777
0.243694
0.242644
0.241625
0.240635
0.239675
0.238742
0.237836
0.236956
0.236101
0.235271
0.234463
0.233678
0.232915
0.232173
0.231451
0.230749
0.230066
0.229402
0.228755
0.228126
0.227513
0.259218
0.257685
0.2562
0.254764
0.253373
0.252026
0.250721
0.249457
0.248232
0.247045
0.245895
0.244779
0.243696
0.242646
0.241627
0.240638
0.239678
0.238745
0.237839
0.236959
0.236105
0.235274
0.234466
0.233681
0.232917
0.232175
0.231453
0.23075
0.230066
0.229401
0.228753
0.228123
0.227509
0.259218
0.257685
0.256201
0.254766
0.253378
0.252033
0.250731
0.249469
0.248246
0.24706
0.24591
0.244794
0.243712
0.242662
0.241643
0.240653
0.239692
0.238759
0.237852
0.236971
0.236114
0.235282
0.234473
0.233685
0.23292
0.232175
0.23145
0.230744
0.230058
0.229389
0.228738
0.228104
0.227486
0.259219
0.257689
0.25621
0.254777
0.25339
0.252046
0.250744
0.249482
0.248259
0.247074
0.245924
0.244808
0.243726
0.242675
0.241654
0.240663
0.2397
0.238763
0.237853
0.236967
0.236106
0.235268
0.234452
0.233658
0.232885
0.232133
0.231399
0.230685
0.229989
0.229311
0.22865
0.228005
0.227377
0.25922
0.257694
0.256221
0.254799
0.253423
0.252089
0.250795
0.249538
0.248318
0.247131
0.245978
0.244857
0.243766
0.242705
0.241673
0.240668
0.239689
0.238736
0.237808
0.236904
0.236023
0.235164
0.234326
0.23351
0.232713
0.231937
0.231179
0.23044
0.229719
0.229015
0.228328
0.227658
0.227004
0.259229
0.257738
0.256292
0.254882
0.253509
0.252172
0.250871
0.249604
0.248368
0.247162
0.245985
0.244836
0.243715
0.242619
0.24155
0.240506
0.239487
0.238491
0.237519
0.23657
0.235643
0.234737
0.233853
0.232989
0.232145
0.231321
0.230515
0.229729
0.22896
0.228209
0.227474
0.226757
0.226056
0.259265
0.257822
0.256453
0.255125
0.253804
0.252482
0.251163
0.249853
0.24856
0.247288
0.246042
0.244825
0.243636
0.242476
0.241345
0.240243
0.239168
0.23812
0.237099
0.236102
0.235129
0.23418
0.233254
0.232349
0.231466
0.230603
0.22976
0.228937
0.228133
0.227348
0.22658
0.22583
0.225098
0.259599
0.258632
0.257578
0.256542
0.255588
0.254714
0.253906
0.253152
0.252447
0.251786
0.251169
0.250596
0.250066
0.249578
0.24913
0.248722
0.248352
0.248019
0.24772
0.247454
0.247219
0.247013
0.246835
0.246683
0.246556
0.246451
0.246369
0.246307
0.246264
0.246239
0.246232
0.246241
0.246264
0.266719
0.28057
0.294241
0.307622
0.320668
0.333362
0.345692
0.357648
0.369223
0.38041
0.391208
0.401615
0.411632
0.421262
0.430511
0.439383
0.447885
0.456027
0.463816
0.471262
0.478376
0.485166
0.491644
0.497821
0.503707
0.509314
0.514651
0.51973
0.524561
0.529155
0.533521
0.537668
0.541611
0.843675
1.01287
1.19293
1.38591
1.58562
1.77791
1.94797
2.08515
2.18575
2.25259
2.29258
2.31399
2.3242
2.32851
2.33001
2.33012
2.32939
2.32812
2.32673
2.32577
2.32587
2.32752
2.33101
2.33637
2.34336
2.35159
2.3605
2.3695
2.37795
2.3852
2.39067
2.3938
2.39412
2.39122
2.38479
2.37461
2.36054
2.3425
2.32048
2.29448
2.26451
2.23055
2.19255
2.15036
2.10374
2.05236
1.99575
1.93337
1.86456
1.78865
1.705
1.61303
1.51239
1.40303
1.28537
1.16046
1.03018
0.897438
0.766288
0.641871
0.529944
0.435788
0.362652
0.310561
0.276521
0.256082
0.244987
0.239945
0.238672
0.239648
0.241877
0.244715
0.247754
0.250748
0.25356
0.256127
0.258439
0.260518
0.262408
0.264164
0.265845
0.267509
0.269206
0.270974
0.272832
0.274784
0.27681
0.278877
0.280938
0.282939
0.284827
0.286553
0.288074
0.289356
0.290376
0.29112
0.291588
0.291765
0.291764
0.291082
0.352378
0.365387
0.385768
0.417151
0.463535
0.528461
0.614288
0.721176
0.846492
0.984769
1.1283
1.26843
1.39708
1.50832
1.59914
1.66958
1.72196
1.75983
1.78698
1.80673
1.82159
1.83324
1.84271
1.85059
1.85718
1.86262
1.86695
1.87013
1.87203
1.87247
1.87121
1.86799
1.86256
1.85467
1.84414
1.83082
1.81464
1.79558
1.77366
1.7489
1.72133
1.69094
1.65768
1.62141
1.5819
1.53883
1.49177
1.44021
1.38359
1.32135
1.253
1.17817
1.0968
1.00919
0.916179
0.819288
0.72083
0.623956
0.532502
0.450549
0.381607
0.327655
0.288541
0.26226
0.245928
0.236735
0.232423
0.231335
0.232295
0.234478
0.237312
0.240407
0.243508
0.246457
0.249165
0.251597
0.253754
0.255663
0.257367
0.258919
0.260378
0.261799
0.263234
0.264726
0.266302
0.267975
0.269738
0.271567
0.273427
0.27527
0.277049
0.278714
0.280221
0.281534
0.282625
0.283475
0.284077
0.284415
0.284575
0.284181
0.206391
0.206089
0.20644
0.207891
0.210826
0.215863
0.223981
0.236457
0.254833
0.280816
0.316061
0.361831
0.418604
0.485739
0.561356
0.642486
0.725484
0.806599
0.882537
0.950887
1.01031
1.06046
1.1018
1.13527
1.16201
1.18314
1.19964
1.21229
1.22165
1.22811
1.23194
1.23327
1.23219
1.22876
1.22302
1.21502
1.20483
1.19252
1.17819
1.16192
1.14376
1.12373
1.10178
1.07781
1.05162
1.02294
0.991419
0.956661
0.918246
0.875791
0.829016
0.777836
0.722454
0.663463
0.601939
0.539487
0.478207
0.42053
0.36888
0.325195
0.29048
0.264625
0.246614
0.234976
0.228208
0.225006
0.224327
0.225364
0.227504
0.230286
0.233372
0.23652
0.239564
0.242398
0.244965
0.247243
0.24924
0.250982
0.25251
0.253874
0.255127
0.256324
0.257515
0.258746
0.26005
0.261446
0.262939
0.264517
0.266152
0.267808
0.269441
0.271006
0.272459
0.273762
0.274884
0.275801
0.276502
0.276968
0.27726
0.277115
0.202043
0.200557
0.199172
0.197891
0.196753
0.195796
0.195119
0.194861
0.195211
0.196421
0.198806
0.202754
0.208715
0.217188
0.228681
0.243649
0.262413
0.285064
0.311393
0.340865
0.372651
0.405721
0.438966
0.471322
0.501883
0.529958
0.555101
0.577091
0.595891
0.611601
0.624399
0.634506
0.642149
0.64755
0.650913
0.652426
0.652261
0.650572
0.647494
0.643134
0.637568
0.63083
0.622901
0.613712
0.603134
0.590984
0.577036
0.561037
0.542742
0.521951
0.498569
0.472663
0.444521
0.414695
0.384018
0.35356
0.324526
0.298088
0.275186
0.256375
0.241779
0.231147
0.224002
0.219766
0.217857
0.217737
0.218936
0.22105
0.223748
0.226762
0.229885
0.232958
0.23587
0.238547
0.240949
0.243063
0.244898
0.246478
0.24784
0.24903
0.250096
0.251088
0.252056
0.253044
0.25409
0.255219
0.256443
0.257762
0.259157
0.260601
0.262058
0.263488
0.264848
0.2661
0.267212
0.268158
0.268919
0.269477
0.269869
0.269932
0.210315
0.20882
0.207351
0.205896
0.204455
0.203043
0.201673
0.200366
0.199148
0.198057
0.197141
0.196462
0.196091
0.196109
0.196606
0.197679
0.199426
0.20194
0.205304
0.209578
0.214792
0.220935
0.227946
0.235716
0.244085
0.252859
0.26182
0.270748
0.279437
0.287708
0.295423
0.302482
0.308827
0.314434
0.319306
0.32347
0.326966
0.329839
0.332134
0.333892
0.335135
0.335869
0.336076
0.33571
0.334697
0.332939
0.330313
0.326687
0.321932
0.315947
0.308681
0.300167
0.290545
0.280071
0.269113
0.258122
0.247583
0.237951
0.229593
0.222756
0.217552
0.213976
0.211926
0.211235
0.211698
0.213091
0.215188
0.217777
0.220668
0.223697
0.226726
0.229649
0.232385
0.234881
0.237105
0.23905
0.240723
0.242147
0.243353
0.244382
0.245277
0.246084
0.246849
0.247615
0.248421
0.249296
0.25026
0.251319
0.252465
0.253681
0.254938
0.256201
0.257433
0.258597
0.259661
0.260595
0.261379
0.26199
0.262451
0.262675
0.216565
0.215217
0.213869
0.212526
0.211185
0.209846
0.208512
0.207186
0.205877
0.204594
0.203352
0.202164
0.201051
0.200034
0.199134
0.198379
0.197792
0.197398
0.197219
0.197272
0.197573
0.198129
0.198941
0.200004
0.201302
0.202814
0.204508
0.20635
0.208298
0.210313
0.212354
0.214387
0.216381
0.218312
0.220164
0.221925
0.22359
0.225158
0.22663
0.228005
0.229281
0.230452
0.231502
0.23241
0.233141
0.233654
0.233895
0.233805
0.233321
0.232388
0.230965
0.229039
0.226633
0.223819
0.220715
0.217479
0.214298
0.211366
0.208864
0.206941
0.205702
0.205199
0.205435
0.206367
0.207915
0.209976
0.212429
0.215153
0.218029
0.220946
0.223811
0.226543
0.229081
0.231384
0.233426
0.235201
0.236716
0.237989
0.239048
0.239927
0.240667
0.241306
0.241888
0.242454
0.24304
0.243679
0.244395
0.2452
0.246096
0.247074
0.248112
0.249185
0.250259
0.251301
0.252279
0.253163
0.253932
0.25456
0.255055
0.255392
0.220677
0.219494
0.218303
0.217106
0.2159
0.214685
0.213464
0.21224
0.211017
0.209801
0.208595
0.207406
0.206242
0.20511
0.204019
0.202979
0.202
0.201092
0.200264
0.199524
0.19888
0.198339
0.197903
0.197574
0.197351
0.197231
0.197208
0.197275
0.197421
0.197637
0.197911
0.198233
0.198592
0.198979
0.199385
0.199805
0.200232
0.200663
0.201094
0.201523
0.201948
0.202363
0.202765
0.203145
0.203494
0.203797
0.204039
0.2042
0.204258
0.204194
0.20399
0.203638
0.20314
0.202518
0.201813
0.201083
0.200405
0.199867
0.199555
0.19955
0.199915
0.200689
0.201885
0.203488
0.205458
0.207738
0.210254
0.212927
0.215674
0.218416
0.22108
0.223603
0.225936
0.228045
0.229906
0.231515
0.232875
0.234003
0.234923
0.235665
0.236262
0.23675
0.237168
0.237553
0.23794
0.238363
0.238847
0.23941
0.240061
0.240797
0.241608
0.242472
0.243364
0.244254
0.245113
0.245913
0.246629
0.247238
0.247733
0.248133
0.223309
0.222251
0.221183
0.220104
0.219015
0.217918
0.216814
0.215703
0.214589
0.213474
0.212361
0.211254
0.210156
0.209071
0.208004
0.206959
0.205941
0.204954
0.204005
0.203097
0.202235
0.201423
0.200665
0.199963
0.199319
0.198733
0.198206
0.197735
0.197318
0.196953
0.196635
0.196361
0.196126
0.195926
0.195757
0.195614
0.195494
0.195393
0.195309
0.195238
0.195179
0.195129
0.195087
0.195051
0.195018
0.194986
0.194952
0.194913
0.194866
0.19481
0.194743
0.194668
0.194592
0.194529
0.194501
0.194537
0.194674
0.194955
0.195424
0.196122
0.197082
0.198323
0.199853
0.20166
0.203718
0.205987
0.208414
0.210941
0.213505
0.216042
0.218492
0.220805
0.222935
0.224853
0.22654
0.227988
0.229201
0.230191
0.23098
0.231593
0.232059
0.232411
0.232681
0.232904
0.233114
0.233341
0.233612
0.233949
0.234365
0.234865
0.235444
0.236089
0.236781
0.237497
0.238209
0.238892
0.239522
0.240075
0.240538
0.24095
0.224949
0.223988
0.223018
0.222037
0.221046
0.220046
0.219037
0.21802
0.216999
0.215974
0.214949
0.213925
0.212905
0.211892
0.210888
0.209895
0.208916
0.207954
0.207012
0.206092
0.205197
0.204329
0.203492
0.202687
0.201917
0.201182
0.200483
0.199822
0.199198
0.19861
0.198057
0.197538
0.197051
0.196595
0.196165
0.195761
0.19538
0.195019
0.194675
0.194348
0.194035
0.193735
0.193447
0.193171
0.192909
0.19266
0.192428
0.192215
0.192026
0.191865
0.19174
0.191659
0.191633
0.191676
0.191806
0.192042
0.192408
0.192929
0.193629
0.19453
0.195649
0.196996
0.198571
0.200362
0.202348
0.204495
0.206763
0.209102
0.211461
0.213785
0.216023
0.218129
0.220065
0.221802
0.223322
0.224617
0.22569
0.226551
0.227217
0.22771
0.228056
0.228284
0.228422
0.228501
0.228552
0.228603
0.228682
0.228811
0.229008
0.22928
0.229631
0.230054
0.230537
0.23106
0.231603
0.232143
0.232657
0.233122
0.233522
0.233897
0.225928
0.225038
0.224139
0.223231
0.222313
0.221386
0.220452
0.219511
0.218565
0.217615
0.216663
0.215711
0.21476
0.213813
0.21287
0.211935
0.211008
0.210091
0.209186
0.208295
0.207418
0.206559
0.205718
0.204897
0.204097
0.203321
0.202568
0.201841
0.201138
0.200461
0.19981
0.199184
0.198582
0.198004
0.197448
0.196913
0.196398
0.1959
0.195418
0.194951
0.194498
0.194058
0.193631
0.193219
0.192821
0.192443
0.192086
0.191757
0.191461
0.191207
0.191004
0.190863
0.190797
0.190819
0.190946
0.191193
0.19158
0.192123
0.192839
0.193741
0.194839
0.196137
0.197631
0.19931
0.201154
0.203134
0.205215
0.207354
0.209505
0.21162
0.213654
0.215564
0.217316
0.218882
0.220246
0.221398
0.222339
0.223078
0.223629
0.224012
0.224248
0.224363
0.224382
0.224333
0.224243
0.224139
0.224047
0.223988
0.223982
0.224042
0.224174
0.224379
0.224648
0.22497
0.225328
0.225704
0.226077
0.226425
0.226734
0.227025
0.226478
0.225636
0.224787
0.22393
0.223066
0.222194
0.221316
0.220431
0.219541
0.218648
0.217752
0.216855
0.215959
0.215065
0.214174
0.213288
0.212407
0.211533
0.210667
0.209811
0.208964
0.208128
0.207305
0.206495
0.2057
0.204921
0.204158
0.203412
0.202683
0.201974
0.201282
0.200609
0.199954
0.199318
0.198698
0.198096
0.197508
0.196936
0.196377
0.195831
0.195297
0.194776
0.194268
0.193773
0.193295
0.192836
0.192401
0.191996
0.191627
0.191303
0.191035
0.190832
0.190709
0.190679
0.190756
0.190956
0.191293
0.191781
0.192434
0.193261
0.194269
0.195458
0.196824
0.198356
0.200036
0.201836
0.203726
0.205667
0.207617
0.209534
0.211375
0.213102
0.214682
0.216089
0.217306
0.218324
0.219143
0.219769
0.220214
0.220495
0.22063
0.220643
0.220556
0.220393
0.220178
0.219937
0.219692
0.219466
0.219278
0.219143
0.21907
0.219065
0.219125
0.219242
0.219407
0.219604
0.219817
0.220025
0.220221
0.220383
0.22676
0.22595
0.225133
0.224311
0.223482
0.222648
0.221807
0.220962
0.220113
0.21926
0.218405
0.21755
0.216694
0.21584
0.214988
0.214139
0.213295
0.212455
0.211622
0.210795
0.209975
0.209164
0.208362
0.207569
0.206787
0.206017
0.205258
0.204511
0.203778
0.203058
0.202352
0.20166
0.200981
0.200316
0.199665
0.199026
0.1984
0.197786
0.197184
0.196592
0.196011
0.195441
0.194883
0.194339
0.19381
0.193301
0.192816
0.19236
0.191941
0.191567
0.191247
0.190994
0.190818
0.190733
0.190752
0.190889
0.191158
0.19157
0.192136
0.192866
0.193762
0.194826
0.196053
0.197432
0.198945
0.200569
0.202275
0.204028
0.205789
0.20752
0.209181
0.210737
0.212157
0.213416
0.214497
0.215392
0.216097
0.216618
0.216965
0.217152
0.217196
0.217116
0.216933
0.216669
0.216345
0.215983
0.215605
0.215232
0.214881
0.21457
0.21431
0.214108
0.213968
0.213886
0.213855
0.213867
0.213907
0.213957
0.21402
0.214019
0.226888
0.226096
0.225299
0.224498
0.223691
0.22288
0.222065
0.221245
0.220422
0.219597
0.21877
0.217942
0.217114
0.216287
0.215462
0.21464
0.213821
0.213007
0.212197
0.211392
0.210594
0.209802
0.209017
0.208239
0.20747
0.206709
0.205958
0.205216
0.204485
0.203764
0.203053
0.202353
0.201664
0.200986
0.200318
0.19966
0.199013
0.198376
0.197747
0.197129
0.196519
0.19592
0.195332
0.194757
0.194197
0.193656
0.193138
0.192649
0.192195
0.191785
0.191427
0.191132
0.190912
0.190778
0.190743
0.190819
0.191018
0.191353
0.191831
0.192461
0.193246
0.194187
0.195277
0.196508
0.197864
0.199321
0.200854
0.202431
0.204017
0.205574
0.207069
0.208466
0.209737
0.210858
0.211814
0.212593
0.213194
0.213618
0.213875
0.213976
0.213936
0.213773
0.213505
0.213151
0.212731
0.212264
0.21177
0.211268
0.210775
0.210308
0.20988
0.209499
0.209172
0.208899
0.208679
0.208503
0.208366
0.208248
0.208166
0.207971
0.226937
0.226154
0.225367
0.224577
0.223783
0.222985
0.222184
0.221379
0.220572
0.219763
0.218953
0.218143
0.217332
0.216523
0.215715
0.214909
0.214107
0.213308
0.212513
0.211723
0.210938
0.210159
0.209385
0.208618
0.207858
0.207105
0.20636
0.205623
0.204894
0.204173
0.203461
0.202758
0.202064
0.201379
0.200702
0.200034
0.199374
0.198723
0.19808
0.197445
0.196819
0.196202
0.195596
0.195002
0.194422
0.19386
0.193321
0.192809
0.192331
0.191895
0.191508
0.191182
0.190925
0.190749
0.190666
0.190687
0.190824
0.191086
0.191482
0.192018
0.192699
0.193523
0.194486
0.195579
0.196787
0.19809
0.199463
0.200877
0.202299
0.203697
0.205036
0.206286
0.207419
0.208413
0.209251
0.209924
0.210427
0.210763
0.210936
0.210959
0.210844
0.210606
0.210262
0.209828
0.209324
0.208765
0.208171
0.207557
0.206942
0.206339
0.205762
0.205221
0.204724
0.204275
0.203874
0.203519
0.203204
0.202914
0.202681
0.202272
0.226947
0.226169
0.225387
0.224602
0.223813
0.223022
0.222228
0.221432
0.220633
0.219833
0.219032
0.218231
0.21743
0.216629
0.215831
0.215035
0.214241
0.213451
0.212664
0.211882
0.211104
0.210331
0.209564
0.208802
0.208047
0.207298
0.206555
0.20582
0.205091
0.204371
0.203657
0.202952
0.202254
0.201564
0.200882
0.200207
0.199539
0.198879
0.198227
0.197582
0.196945
0.196318
0.1957
0.195093
0.194501
0.193927
0.193373
0.192846
0.192352
0.191896
0.191488
0.191136
0.190849
0.190638
0.190514
0.190487
0.190567
0.190763
0.191084
0.191534
0.192118
0.192835
0.193681
0.194646
0.195718
0.196878
0.198103
0.199366
0.200638
0.201887
0.203082
0.204194
0.205199
0.206074
0.206803
0.207377
0.20779
0.208043
0.208141
0.208092
0.207909
0.207604
0.207192
0.206689
0.206111
0.205474
0.204793
0.204084
0.203363
0.202642
0.201937
0.201256
0.200608
0.2
0.199433
0.198908
0.198424
0.197964
0.197579
0.196945
0.226943
0.226165
0.225385
0.224602
0.223816
0.223027
0.222236
0.221443
0.220648
0.219852
0.219055
0.218258
0.217461
0.216665
0.21587
0.215077
0.214287
0.2135
0.212716
0.211936
0.211161
0.21039
0.209624
0.208863
0.208108
0.207359
0.206616
0.20588
0.20515
0.204427
0.203711
0.203002
0.202301
0.201606
0.200918
0.200238
0.199565
0.198898
0.198239
0.197587
0.196943
0.196308
0.195683
0.195069
0.194469
0.193885
0.193323
0.192785
0.192278
0.191808
0.191383
0.19101
0.190698
0.190458
0.190297
0.190227
0.190256
0.190393
0.190645
0.191017
0.191513
0.192131
0.192869
0.193717
0.194663
0.195691
0.196779
0.197903
0.199034
0.200144
0.201205
0.20219
0.203074
0.203838
0.204465
0.204946
0.205275
0.205452
0.20548
0.205367
0.205121
0.204757
0.204286
0.203722
0.20308
0.202375
0.20162
0.200831
0.200019
0.1992
0.198384
0.197582
0.196804
0.196054
0.195339
0.19466
0.194017
0.193396
0.192865
0.192003
0.226934
0.226156
0.225375
0.224592
0.223807
0.223019
0.222228
0.221436
0.220642
0.219847
0.219051
0.218255
0.217459
0.216664
0.215869
0.215077
0.214286
0.213499
0.212714
0.211933
0.211157
0.210384
0.209616
0.208853
0.208096
0.207344
0.206598
0.205858
0.205124
0.204397
0.203677
0.202963
0.202256
0.201557
0.200864
0.200178
0.199499
0.198827
0.198162
0.197504
0.196855
0.196214
0.195583
0.194963
0.194357
0.193768
0.193198
0.192652
0.192136
0.191655
0.191215
0.190825
0.190492
0.190225
0.190032
0.189923
0.189906
0.189989
0.190178
0.190479
0.190893
0.19142
0.192057
0.192797
0.193627
0.194533
0.195494
0.196487
0.197487
0.198468
0.199404
0.200269
0.20104
0.201699
0.202231
0.202625
0.202875
0.202981
0.202945
0.202772
0.202471
0.202053
0.20153
0.200914
0.200218
0.199456
0.198639
0.197781
0.196895
0.195992
0.195083
0.194179
0.193288
0.192418
0.191573
0.190755
0.18997
0.189199
0.188533
0.18745
0.226923
0.226144
0.225363
0.22458
0.223794
0.223005
0.222215
0.221422
0.220628
0.219833
0.219036
0.218239
0.217442
0.216646
0.21585
0.215056
0.214263
0.213473
0.212686
0.211902
0.211122
0.210345
0.209573
0.208806
0.208044
0.207287
0.206536
0.20579
0.205051
0.204318
0.203592
0.202873
0.20216
0.201454
0.200755
0.200063
0.199378
0.198701
0.19803
0.197367
0.196712
0.196067
0.195431
0.194806
0.194196
0.193601
0.193025
0.192473
0.191949
0.191458
0.191006
0.1906
0.190248
0.189957
0.189735
0.18959
0.189531
0.189564
0.189695
0.189928
0.190267
0.19071
0.191254
0.191893
0.192615
0.193406
0.194248
0.19512
0.195998
0.196858
0.197675
0.198427
0.199092
0.199652
0.200093
0.200405
0.200581
0.200621
0.200524
0.200298
0.199947
0.199483
0.198915
0.198254
0.197513
0.196702
0.195835
0.194921
0.193972
0.193001
0.192015
0.191026
0.190041
0.189068
0.188111
0.187174
0.186263
0.185359
0.18457
0.18328
0.226912
0.226133
0.225351
0.224567
0.22378
0.222991
0.222199
0.221406
0.220611
0.219814
0.219016
0.218218
0.217419
0.216621
0.215823
0.215026
0.214231
0.213437
0.212646
0.211858
0.211073
0.210292
0.209515
0.208742
0.207974
0.207211
0.206453
0.205702
0.204956
0.204216
0.203483
0.202757
0.202038
0.201325
0.200619
0.199921
0.199229
0.198546
0.197869
0.197201
0.196541
0.19589
0.19525
0.194621
0.194005
0.193406
0.192825
0.192267
0.191735
0.191235
0.190771
0.190351
0.189981
0.189667
0.189418
0.18924
0.189141
0.189127
0.189203
0.189374
0.189642
0.190006
0.190464
0.191008
0.191629
0.192313
0.193044
0.193801
0.194564
0.195309
0.196015
0.196659
0.197223
0.197688
0.198043
0.198277
0.198383
0.19836
0.198209
0.197933
0.197539
0.197034
0.196428
0.195731
0.194953
0.194104
0.193195
0.192236
0.191238
0.19021
0.189162
0.188103
0.187041
0.185982
0.184931
0.183893
0.182874
0.181853
0.180956
0.179478
0.226901
0.226122
0.225339
0.224554
0.223766
0.222976
0.222183
0.221389
0.220593
0.219795
0.218996
0.218196
0.217395
0.216594
0.215794
0.214994
0.214195
0.213398
0.212603
0.21181
0.21102
0.210233
0.209451
0.208672
0.207898
0.207128
0.206364
0.205605
0.204852
0.204106
0.203365
0.202632
0.201905
0.201185
0.200472
0.199767
0.199069
0.198378
0.197696
0.197022
0.196357
0.195701
0.195055
0.194422
0.193802
0.193197
0.192611
0.192047
0.191507
0.190998
0.190524
0.190089
0.189702
0.189367
0.189091
0.188882
0.188745
0.188686
0.188711
0.188823
0.189024
0.189314
0.18969
0.190145
0.19067
0.191253
0.191879
0.192528
0.193181
0.193817
0.194416