/*--------------------------------*- C++ -*----------------------------------*\
| =========                 |                                                 |
| \\      /  F ield         | OpenFOAM: The Open Source CFD Toolbox           |
|  \\    /   O peration     | Version:  2.1.1                                 |
|   \\  /    A nd           | Web:      www.OpenFOAM.org                      |
|    \\/     M anipulation  |                                                 |
\*---------------------------------------------------------------------------*/
FoamFile
{
    version     2.0;
    format      ascii;
    class       volScalarField;
    location    "0.11";
    object      nut;
}
// * * * * * * * * * * * * * * * * * * * * * * * * * * * * * * * * * * * * * //

dimensions      [0 2 -1 0 0 0 0];

internalField   nonuniform List<scalar> 
6820
(
4.96025e-05
5.47044e-05
5.94497e-05
6.37668e-05
6.76167e-05
7.09778e-05
7.38484e-05
7.62464e-05
7.82041e-05
7.97631e-05
8.09699e-05
8.18721e-05
8.2516e-05
8.29444e-05
8.31959e-05
8.33048e-05
8.33001e-05
8.3207e-05
8.3046e-05
8.28345e-05
8.25865e-05
8.23134e-05
8.20242e-05
8.17262e-05
8.14251e-05
8.11251e-05
8.08295e-05
8.05414e-05
8.0259e-05
7.99995e-05
7.96851e-05
7.96912e-05
7.81964e-05
0.000540295
0.000304976
0.000219967
0.000171567
0.00014053
0.000119668
0.000105143
9.47596e-05
8.71953e-05
8.16137e-05
7.74646e-05
7.43744e-05
7.20824e-05
7.04026e-05
6.91997e-05
6.83731e-05
6.78475e-05
6.75652e-05
6.74812e-05
6.75606e-05
6.77751e-05
6.81022e-05
6.85233e-05
6.9023e-05
6.95884e-05
7.02083e-05
7.08731e-05
7.15738e-05
7.23031e-05
7.30491e-05
7.3808e-05
7.45512e-05
7.51967e-05
0.00105857
0.000836084
0.000679232
0.000569607
0.000490046
0.000430109
0.000383694
0.000346849
0.00031695
0.000292236
0.000271492
0.000253855
0.0002387
0.000225557
0.000214072
0.000203967
0.000195026
0.000187076
0.000179975
0.000173609
0.000167882
0.000162717
0.000158045
0.00015381
0.000149964
0.000146466
0.00014328
0.000140375
0.000137725
0.00013531
0.000133093
0.000131115
0.000129092
0.00115953
0.00109653
0.00101166
0.000926408
0.000849797
0.000783602
0.000727043
0.000678709
0.000637183
0.000601244
0.000569888
0.000542313
0.000517879
0.000496076
0.000476498
0.000458815
0.000442762
0.000428121
0.000414712
0.000402383
0.00039101
0.000380484
0.000370715
0.000361625
0.000353145
0.000345218
0.000337794
0.000330829
0.00032429
0.000318144
0.00031238
0.000306967
0.000301945
0.00116966
0.00115863
0.00113363
0.00109757
0.00105569
0.0010122
0.00096967
0.000929413
0.000891972
0.000857472
0.000825822
0.000796831
0.000770274
0.000745917
0.000723539
0.000702938
0.00068393
0.000666352
0.000650059
0.000634924
0.000620834
0.000607688
0.0005954
0.000583889
0.000573088
0.000562934
0.000553372
0.000544352
0.000535832
0.000527774
0.000520146
0.000512921
0.000506085
0.00117006
0.00116839
0.00116306
0.00115261
0.00113713
0.00111768
0.00109554
0.00107192
0.00104773
0.00102362
0.00100002
0.000977215
0.000955355
0.00093452
0.000914736
0.000895997
0.000878276
0.000861531
0.000845716
0.000830778
0.000816667
0.00080333
0.000790718
0.000778784
0.000767482
0.000756771
0.00074661
0.000736964
0.000727797
0.00071908
0.000710783
0.000702889
0.000695373
0.00116996
0.00116938
0.00116821
0.00116569
0.00116123
0.00115458
0.00114584
0.00113528
0.00112329
0.00111025
0.00109651
0.00108237
0.00106806
0.00105377
0.00103965
0.00102578
0.00101225
0.000999111
0.000986386
0.000974099
0.000962259
0.000950867
0.000939918
0.000929405
0.000919317
0.00090964
0.000900359
0.00089146
0.000882928
0.000874747
0.000866904
0.00085939
0.000852192
0.00116994
0.0011694
0.00116883
0.00116803
0.00116674
0.00116472
0.0011618
0.00115791
0.00115305
0.00114729
0.00114075
0.00113356
0.00112584
0.00111773
0.00110933
0.00110075
0.00109207
0.00108335
0.00107467
0.00106606
0.00105756
0.0010492
0.00104101
0.001033
0.00102519
0.00101758
0.00101019
0.001003
0.000996029
0.000989273
0.000982731
0.000976405
0.000970293
0.00116994
0.00116939
0.00116886
0.00116832
0.0011677
0.00116692
0.00116588
0.00116449
0.00116269
0.00116044
0.00115772
0.00115456
0.00115099
0.00114703
0.00114275
0.00113818
0.00113338
0.00112839
0.00112326
0.00111803
0.00111272
0.00110737
0.00110202
0.00109667
0.00109135
0.00108608
0.00108087
0.00107574
0.00107069
0.00106573
0.00106087
0.00105611
0.00105147
0.00116994
0.00116938
0.00116885
0.00116833
0.00116782
0.00116729
0.00116671
0.00116605
0.00116526
0.00116432
0.00116319
0.00116186
0.00116031
0.00115854
0.00115655
0.00115437
0.00115199
0.00114945
0.00114675
0.00114392
0.00114097
0.00113792
0.0011348
0.00113162
0.00112839
0.00112513
0.00112185
0.00111857
0.00111528
0.00111201
0.00110877
0.00110555
0.00110237
0.00116994
0.00116938
0.00116884
0.00116832
0.00116782
0.00116732
0.00116683
0.00116634
0.00116582
0.00116527
0.00116467
0.001164
0.00116325
0.0011624
0.00116147
0.00116043
0.00115929
0.00115805
0.0011567
0.00115527
0.00115375
0.00115215
0.00115047
0.00114873
0.00114694
0.00114509
0.0011432
0.00114128
0.00113934
0.00113737
0.00113539
0.0011334
0.00113142
0.00116994
0.00116938
0.00116884
0.00116832
0.00116781
0.00116732
0.00116684
0.00116637
0.00116591
0.00116545
0.00116499
0.00116452
0.00116403
0.00116351
0.00116297
0.00116239
0.00116177
0.0011611
0.0011604
0.00115964
0.00115884
0.001158
0.00115711
0.00115618
0.00115522
0.00115421
0.00115317
0.00115211
0.00115101
0.00114989
0.00114876
0.00114761
0.00114644
0.00116994
0.00116938
0.00116884
0.00116832
0.00116781
0.00116732
0.00116684
0.00116637
0.00116592
0.00116547
0.00116504
0.00116461
0.00116419
0.00116377
0.00116335
0.00116292
0.00116249
0.00116204
0.00116158
0.00116111
0.00116063
0.00116012
0.0011596
0.00115906
0.0011585
0.00115792
0.00115733
0.00115672
0.00115609
0.00115546
0.0011548
0.00115414
0.00115347
0.00116994
0.00116938
0.00116884
0.00116832
0.00116781
0.00116731
0.00116683
0.00116637
0.00116591
0.00116547
0.00116504
0.00116462
0.00116422
0.00116382
0.00116343
0.00116304
0.00116266
0.00116228
0.00116191
0.00116154
0.00116116
0.00116079
0.00116041
0.00116003
0.00115965
0.00115926
0.00115887
0.00115847
0.00115807
0.00115766
0.00115725
0.00115684
0.00115642
0.00116994
0.00116938
0.00116884
0.00116832
0.00116781
0.00116731
0.00116683
0.00116636
0.00116591
0.00116547
0.00116504
0.00116462
0.00116421
0.00116382
0.00116343
0.00116306
0.00116269
0.00116233
0.00116198
0.00116164
0.0011613
0.00116097
0.00116064
0.00116031
0.00115999
0.00115968
0.00115936
0.00115905
0.00115874
0.00115844
0.00115813
0.00115783
0.00115753
0.00116994
0.00116938
0.00116884
0.00116831
0.0011678
0.00116731
0.00116683
0.00116636
0.0011659
0.00116546
0.00116503
0.00116461
0.00116421
0.00116381
0.00116343
0.00116305
0.00116269
0.00116233
0.00116199
0.00116165
0.00116132
0.001161
0.00116069
0.00116038
0.00116008
0.00115979
0.0011595
0.00115922
0.00115894
0.00115867
0.00115841
0.00115814
0.00115789
0.00116994
0.00116938
0.00116884
0.00116831
0.0011678
0.00116731
0.00116683
0.00116636
0.0011659
0.00116546
0.00116503
0.00116461
0.0011642
0.00116381
0.00116342
0.00116305
0.00116268
0.00116233
0.00116198
0.00116164
0.00116132
0.001161
0.00116069
0.00116038
0.00116009
0.0011598
0.00115952
0.00115925
0.00115898
0.00115872
0.00115847
0.00115822
0.00115798
0.00116994
0.00116938
0.00116884
0.00116831
0.0011678
0.00116731
0.00116682
0.00116635
0.0011659
0.00116546
0.00116502
0.00116461
0.0011642
0.0011638
0.00116342
0.00116304
0.00116267
0.00116232
0.00116197
0.00116164
0.00116131
0.00116099
0.00116068
0.00116038
0.00116008
0.0011598
0.00115952
0.00115925
0.00115898
0.00115872
0.00115847
0.00115823
0.00115799
0.00116994
0.00116938
0.00116884
0.00116831
0.0011678
0.0011673
0.00116682
0.00116635
0.0011659
0.00116545
0.00116502
0.0011646
0.00116419
0.0011638
0.00116341
0.00116303
0.00116267
0.00116231
0.00116197
0.00116163
0.0011613
0.00116098
0.00116067
0.00116037
0.00116007
0.00115978
0.00115951
0.00115923
0.00115897
0.00115871
0.00115846
0.00115822
0.00115798
0.00116994
0.00116938
0.00116884
0.00116831
0.0011678
0.0011673
0.00116682
0.00116635
0.00116589
0.00116545
0.00116502
0.0011646
0.00116419
0.00116379
0.00116341
0.00116303
0.00116266
0.00116231
0.00116196
0.00116162
0.00116129
0.00116097
0.00116066
0.00116036
0.00116006
0.00115977
0.00115949
0.00115922
0.00115896
0.0011587
0.00115845
0.0011582
0.00115797
0.00116994
0.00116938
0.00116884
0.00116831
0.0011678
0.0011673
0.00116682
0.00116635
0.00116589
0.00116545
0.00116502
0.0011646
0.00116419
0.00116379
0.0011634
0.00116302
0.00116266
0.0011623
0.00116195
0.00116161
0.00116128
0.00116096
0.00116065
0.00116035
0.00116005
0.00115976
0.00115948
0.00115921
0.00115894
0.00115868
0.00115843
0.00115819
0.00115795
0.00116994
0.00116938
0.00116884
0.00116831
0.0011678
0.0011673
0.00116682
0.00116635
0.00116589
0.00116545
0.00116501
0.00116459
0.00116418
0.00116379
0.0011634
0.00116302
0.00116265
0.00116229
0.00116195
0.00116161
0.00116128
0.00116096
0.00116064
0.00116034
0.00116004
0.00115975
0.00115947
0.0011592
0.00115893
0.00115867
0.00115842
0.00115817
0.00115793
0.00116994
0.00116938
0.00116884
0.00116831
0.0011678
0.0011673
0.00116682
0.00116635
0.00116589
0.00116545
0.00116501
0.00116459
0.00116418
0.00116378
0.00116339
0.00116302
0.00116265
0.00116229
0.00116194
0.0011616
0.00116127
0.00116095
0.00116064
0.00116033
0.00116003
0.00115974
0.00115946
0.00115919
0.00115892
0.00115866
0.0011584
0.00115816
0.00115792
0.00116994
0.00116938
0.00116884
0.00116831
0.0011678
0.0011673
0.00116682
0.00116635
0.00116589
0.00116544
0.00116501
0.00116459
0.00116418
0.00116378
0.00116339
0.00116301
0.00116264
0.00116229
0.00116194
0.0011616
0.00116127
0.00116094
0.00116063
0.00116032
0.00116002
0.00115973
0.00115945
0.00115917
0.00115891
0.00115864
0.00115839
0.00115814
0.0011579
0.00116994
0.00116938
0.00116884
0.00116831
0.0011678
0.0011673
0.00116682
0.00116635
0.00116589
0.00116544
0.00116501
0.00116459
0.00116418
0.00116378
0.00116339
0.00116301
0.00116264
0.00116228
0.00116193
0.00116159
0.00116126
0.00116094
0.00116062
0.00116031
0.00116002
0.00115972
0.00115944
0.00115916
0.0011589
0.00115863
0.00115838
0.00115813
0.00115789
0.00116994
0.00116938
0.00116884
0.00116831
0.0011678
0.0011673
0.00116682
0.00116635
0.00116589
0.00116544
0.00116501
0.00116459
0.00116418
0.00116378
0.00116339
0.00116301
0.00116264
0.00116228
0.00116193
0.00116159
0.00116126
0.00116093
0.00116062
0.00116031
0.00116001
0.00115972
0.00115943
0.00115916
0.00115889
0.00115862
0.00115837
0.00115812
0.00115787
0.00116994
0.00116938
0.00116884
0.00116831
0.0011678
0.0011673
0.00116682
0.00116635
0.00116589
0.00116544
0.00116501
0.00116459
0.00116417
0.00116377
0.00116338
0.00116301
0.00116264
0.00116228
0.00116193
0.00116158
0.00116125
0.00116093
0.00116061
0.0011603
0.00116
0.00115971
0.00115943
0.00115915
0.00115888
0.00115861
0.00115836
0.00115811
0.00115786
0.00116994
0.00116938
0.00116884
0.00116831
0.0011678
0.0011673
0.00116682
0.00116635
0.00116589
0.00116544
0.00116501
0.00116458
0.00116417
0.00116377
0.00116338
0.001163
0.00116263
0.00116227
0.00116192
0.00116158
0.00116125
0.00116092
0.00116061
0.0011603
0.00116
0.0011597
0.00115942
0.00115914
0.00115887
0.0011586
0.00115835
0.0011581
0.00115785
0.00116994
0.00116938
0.00116884
0.00116831
0.0011678
0.0011673
0.00116682
0.00116634
0.00116589
0.00116544
0.00116501
0.00116458
0.00116417
0.00116377
0.00116338
0.001163
0.00116263
0.00116227
0.00116192
0.00116158
0.00116124
0.00116092
0.0011606
0.00116029
0.00115999
0.0011597
0.00115941
0.00115913
0.00115886
0.0011586
0.00115834
0.00115809
0.00115784
0.00116994
0.00116938
0.00116884
0.00116831
0.0011678
0.0011673
0.00116682
0.00116635
0.00116589
0.00116544
0.00116501
0.00116459
0.00116417
0.00116377
0.00116338
0.001163
0.00116263
0.00116227
0.00116192
0.00116158
0.00116124
0.00116092
0.0011606
0.00116029
0.00115999
0.0011597
0.00115941
0.00115913
0.00115886
0.00115859
0.00115833
0.00115808
0.00115783
0.00116994
0.00116938
0.00116884
0.00116831
0.0011678
0.0011673
0.00116682
0.00116635
0.00116589
0.00116544
0.00116501
0.00116459
0.00116418
0.00116377
0.00116338
0.00116301
0.00116263
0.00116227
0.00116192
0.00116158
0.00116125
0.00116092
0.0011606
0.00116029
0.00115999
0.0011597
0.00115941
0.00115913
0.00115885
0.00115859
0.00115832
0.00115807
0.00115782
0.00116994
0.00116938
0.00116884
0.00116831
0.0011678
0.00116731
0.00116682
0.00116635
0.0011659
0.00116545
0.00116502
0.0011646
0.00116418
0.00116378
0.00116339
0.00116301
0.00116264
0.00116228
0.00116193
0.00116158
0.00116125
0.00116092
0.0011606
0.00116028
0.00115998
0.00115968
0.00115938
0.0011591
0.00115882
0.00115854
0.00115827
0.00115801
0.00115775
0.00116994
0.00116938
0.00116884
0.00116832
0.00116781
0.00116731
0.00116683
0.00116636
0.0011659
0.00116546
0.00116502
0.0011646
0.00116419
0.00116379
0.0011634
0.00116301
0.00116263
0.00116226
0.0011619
0.00116155
0.0011612
0.00116085
0.00116052
0.00116018
0.00115985
0.00115953
0.00115921
0.00115889
0.00115858
0.00115827
0.00115797
0.00115766
0.00115737
0.00116994
0.00116938
0.00116884
0.00116833
0.00116782
0.00116733
0.00116685
0.00116639
0.00116593
0.00116548
0.00116503
0.00116459
0.00116416
0.00116373
0.00116331
0.00116288
0.00116246
0.00116204
0.00116161
0.00116119
0.00116076
0.00116033
0.0011599
0.00115946
0.00115902
0.00115858
0.00115814
0.00115769
0.00115724
0.00115678
0.00115632
0.00115586
0.0011554
0.00116994
0.00116939
0.00116886
0.00116835
0.00116784
0.00116733
0.00116683
0.00116632
0.00116581
0.00116528
0.00116473
0.00116417
0.00116358
0.00116297
0.00116233
0.00116166
0.00116097
0.00116024
0.00115949
0.00115871
0.0011579
0.00115707
0.00115621
0.00115532
0.00115442
0.0011535
0.00115255
0.00115159
0.00115061
0.00114963
0.00114862
0.00114761
0.00114659
0.00116995
0.0011694
0.00116886
0.00116828
0.00116765
0.00116694
0.00116613
0.00116519
0.00116414
0.00116295
0.00116163
0.00116018
0.0011586
0.0011569
0.00115508
0.00115316
0.00115114
0.00114902
0.00114683
0.00114457
0.00114224
0.00113986
0.00113744
0.00113498
0.00113249
0.00112997
0.00112744
0.0011249
0.00112236
0.00111981
0.00111727
0.00111474
0.00111222
0.00116996
0.00116916
0.00116786
0.00116595
0.00116344
0.00116031
0.00115658
0.00115229
0.0011475
0.00114226
0.00113663
0.00113069
0.00112449
0.00111809
0.00111154
0.00110488
0.00109816
0.00109141
0.00108466
0.00107794
0.00107127
0.00106466
0.00105813
0.0010517
0.00104537
0.00103915
0.00103305
0.00102708
0.00102123
0.00101551
0.00100992
0.00100446
0.000999134
0.00116831
0.00115866
0.00114501
0.00112846
0.00110973
0.00108952
0.00106849
0.00104716
0.0010259
0.00100499
0.000984613
0.00096489
0.000945892
0.000927656
0.000910194
0.000893502
0.000877564
0.000862356
0.000847851
0.000834018
0.000820824
0.000808238
0.000796228
0.000784763
0.000773814
0.000763353
0.000753352
0.000743787
0.000734632
0.000725867
0.000717469
0.000709419
0.000701695
0.00107567
0.000936194
0.0008356
0.000756856
0.000692037
0.000638266
0.000593339
0.000555427
0.000523091
0.000495226
0.000470986
0.000449718
0.000430914
0.000414177
0.00039919
0.000385699
0.000373498
0.000362416
0.000352313
0.000343071
0.00033459
0.000326786
0.000319586
0.000312927
0.000306756
0.000301026
0.000295694
0.000290724
0.000286085
0.000281747
0.000277685
0.000273876
0.000270299
0.000142979
0.000146644
0.000150174
0.000153551
0.000156773
0.000159846
0.000162775
0.000165566
0.000168224
0.000170754
0.00017316
0.000175448
0.000177623
0.000179689
0.00018165
0.000183512
0.00018528
0.000186956
0.000188546
0.000190053
0.000191482
0.000192837
0.00019412
0.000195335
0.000196487
0.000197577
0.00019861
0.000199587
0.000200513
0.000201389
0.000202218
0.000203002
0.000203745
9.0911e-05
0.000110728
0.000136354
0.000168467
0.000206123
0.000247057
0.000288678
0.000328877
0.000366551
0.000401629
0.000434729
0.000466726
0.000498356
0.00053002
0.000561789
0.000593559
0.000625236
0.000656859
0.000688629
0.000720855
0.000753868
0.000787943
0.000823258
0.00085989
0.000897822
0.000936975
0.00097722
0.00101839
0.0010603
0.00110273
0.00114544
0.00118818
0.0012307
0.00127277
0.00131417
0.00135469
0.00139419
0.0014325
0.00146948
0.00150501
0.0015389
0.00157096
0.00160091
0.0016284
0.00165297
0.00167402
0.00169083
0.00170254
0.00170816
0.00170659
0.00169669
0.00167732
0.00164744
0.00160623
0.00155326
0.00148871
0.00141369
0.00133065
0.00124394
0.00116037
0.00108947
0.00104259
0.0010297
0.00105383
0.00110688
0.00117266
0.00123619
0.0012901
0.00133378
0.00136958
0.0014001
0.00142719
0.00145199
0.00147512
0.00149697
0.0015178
0.00153788
0.00155744
0.00157675
0.00159605
0.00161559
0.00163553
0.00165599
0.00167698
0.00169841
0.00172006
0.00174167
0.0017629
0.00178341
0.00180288
0.00182105
0.00183771
0.00185272
0.001866
0.00187752
0.00188732
0.00189542
0.00190203
0.00190688
0.00191196
7.63834e-05
7.85566e-05
8.205e-05
8.77022e-05
9.64792e-05
0.000109351
0.000127127
0.000150224
0.00017851
0.000211249
0.000247184
0.000284756
0.000322422
0.000358963
0.000393687
0.000426463
0.00045759
0.000487592
0.000517012
0.000546284
0.00057568
0.000605338
0.000635319
0.000665659
0.0006964
0.000727596
0.000759294
0.000791517
0.000824246
0.000857416
0.000890914
0.000924594
0.000958287
0.000991817
0.00102502
0.00105773
0.00108981
0.00112114
0.00115161
0.00118109
0.00120946
0.00123652
0.00126206
0.00128577
0.00130724
0.00132597
0.00134131
0.00135252
0.00135873
0.00135903
0.00135247
0.00133818
0.0013155
0.00128409
0.0012442
0.00119691
0.00114453
0.00109093
0.00104189
0.00100497
0.000988308
0.000997929
0.00103398
0.00108898
0.001151
0.00120973
0.00126012
0.00130176
0.00133647
0.00136638
0.00139313
0.00141772
0.00144071
0.00146242
0.00148304
0.00150274
0.00152172
0.00154018
0.00155835
0.00157647
0.00159475
0.0016134
0.00163257
0.00165231
0.0016726
0.00169331
0.00171421
0.00173503
0.00175545
0.00177514
0.00179383
0.00181127
0.00182727
0.00184171
0.00185451
0.00186565
0.00187516
0.00188319
0.00188937
0.00189642
0.000126999
0.00012482
0.000122563
0.000120003
0.000117479
0.000115306
0.000113721
0.000113182
0.000114356
0.00011805
0.00012507
0.000136058
0.000151363
0.000170967
0.000194467
0.000221125
0.000249984
0.000280021
0.000310314
0.000340168
0.000369172
0.000397188
0.000424287
0.000450668
0.00047657
0.000502224
0.000527808
0.000553446
0.000579205
0.000605104
0.000631131
0.000657245
0.00068339
0.000709498
0.0007355
0.000761325
0.000786906
0.00081218
0.000837084
0.000861543
0.000885466
0.000908726
0.000931151
0.000952505
0.000972474
0.000990657
0.00100656
0.00101962
0.0010292
0.00103464
0.00103539
0.00103101
0.0010214
0.00100695
0.000988746
0.000968844
0.000950416
0.000937763
0.000935857
0.00094916
0.000979752
0.00102565
0.00108084
0.00113774
0.00119031
0.00123575
0.00127407
0.0013067
0.00133531
0.00136121
0.00138524
0.00140788
0.00142934
0.00144975
0.00146922
0.00148785
0.00150578
0.00152319
0.00154028
0.00155725
0.00157433
0.00159171
0.00160956
0.00162799
0.00164703
0.00166662
0.0016866
0.00170676
0.0017268
0.00174644
0.00176537
0.00178333
0.00180011
0.00181551
0.00182944
0.00184183
0.00185265
0.00186205
0.00186951
0.00187853
0.000296451
0.000290275
0.000284016
0.000277531
0.000270682
0.000263677
0.0002564
0.000248653
0.000240269
0.000231213
0.00022167
0.000212078
0.000203103
0.000195531
0.000190132
0.000187536
0.000188153
0.000192151
0.000199468
0.000209846
0.000222884
0.000238101
0.000254988
0.000273065
0.000291921
0.000311239
0.0003308
0.000350475
0.000370209
0.000389996
0.00040986
0.000429834
0.000449952
0.00047024
0.000490715
0.000511386
0.000532257
0.000553323
0.000574574
0.000595986
0.000617517
0.000639099
0.000660632
0.000681974
0.000702937
0.000723282
0.000742732
0.000760978
0.000777717
0.000792702
0.000805814
0.000817161
0.000827189
0.0008368
0.000847434
0.00086105
0.000879922
0.000906168
0.000941019
0.000984066
0.00103297
0.00108401
0.00113333
0.00117814
0.00121736
0.00125126
0.00128092
0.00130752
0.00133202
0.00135507
0.00137701
0.00139799
0.00141808
0.00143728
0.00145565
0.00147324
0.00149017
0.00150658
0.00152263
0.00153852
0.00155445
0.00157061
0.00158718
0.00160428
0.00162201
0.00164035
0.00165923
0.00167849
0.00169789
0.00171717
0.00173606
0.00175427
0.00177156
0.00178771
0.00180258
0.00181605
0.00182807
0.00183874
0.00184741
0.00185835
0.000498588
0.000490394
0.000482431
0.000474621
0.00046687
0.000459095
0.000451288
0.000443346
0.000435121
0.000426451
0.000417179
0.000407179
0.000396387
0.000384833
0.000372671
0.000360184
0.000347776
0.000335926
0.000325133
0.000315852
0.000308448
0.000303168
0.000300138
0.000299374
0.000300803
0.000304292
0.00030967
0.000316752
0.000325359
0.000335327
0.000346517
0.000358819
0.000372147
0.000386438
0.000401647
0.000417741
0.000434692
0.000452478
0.000471072
0.000490447
0.000510569
0.000531394
0.000552874
0.00057495
0.000597559
0.000620635
0.000644115
0.000667954
0.000692143
0.000716733
0.000741873
0.000767838
0.000795048
0.000824057
0.000855484
0.00088987
0.000927474
0.000968052
0.00101072
0.00105404
0.00109629
0.00113595
0.00117206
0.00120435
0.00123318
0.00125925
0.00128329
0.00130593
0.00132758
0.00134847
0.00136868
0.00138821
0.00140701
0.00142506
0.00144236
0.00145896
0.00147492
0.00149037
0.00150545
0.00152033
0.00153517
0.00155017
0.0015655
0.0015813
0.00159769
0.00161472
0.00163236
0.00165053
0.00166906
0.00168772
0.00170627
0.00172443
0.00174195
0.00175859
0.00177416
0.00178853
0.00180157
0.00181339
0.00182317
0.00183594
0.000687087
0.00067802
0.000669251
0.000660758
0.000652488
0.000644397
0.000636437
0.000628562
0.000620725
0.00061288
0.000604975
0.000596959
0.00058878
0.000580395
0.000571772
0.000562905
0.000553824
0.000544602
0.000535361
0.000526268
0.000517525
0.000509356
0.000501991
0.000495646
0.000490515
0.000486757
0.000484495
0.000483812
0.000484754
0.000487335
0.000491542
0.000497339
0.000504677
0.000513497
0.000523731
0.000535306
0.000548145
0.000562172
0.000577309
0.00059348
0.000610617
0.000628659
0.00064756
0.000667287
0.000687829
0.000709193
0.00073141
0.000754531
0.000778629
0.000803792
0.000830121
0.000857713
0.000886644
0.000916932
0.000948498
0.000981122
0.00101441
0.00104779
0.00108061
0.00111218
0.00114198
0.00116969
0.00119532
0.00121908
0.00124137
0.00126258
0.00128304
0.00130299
0.00132253
0.00134168
0.00136039
0.00137857
0.00139617
0.00141311
0.00142939
0.00144502
0.00146006
0.0014746
0.00148876
0.00150268
0.00151651
0.00153042
0.00154458
0.00155913
0.0015742
0.00158989
0.00160622
0.00162317
0.00164062
0.00165842
0.00167636
0.00169418
0.00171164
0.00172848
0.0017445
0.00175953
0.0017734
0.0017862
0.00179695
0.00181142
0.000844192
0.000835364
0.000826755
0.000818362
0.000810165
0.000802154
0.00079431
0.000786616
0.000779059
0.000771632
0.000764337
0.000757177
0.000750162
0.000743301
0.000736603
0.000730077
0.000723736
0.000717597
0.000711688
0.000706048
0.000700734
0.000695818
0.000691388
0.00068754
0.000684377
0.000682006
0.000680527
0.000680033
0.000680605
0.000682304
0.000685179
0.000689254
0.000694537
0.000701017
0.000708667
0.000717444
0.000727294
0.000738153
0.00074995
0.000762613
0.000776071
0.000790259
0.000805126
0.00082063
0.000836749
0.000853479
0.000870832
0.000888835
0.000907527
0.000926944
0.000947117
0.00096805
0.000989712
0.00101202
0.00103482
0.00105791
0.00108103
0.0011039
0.00112625
0.00114788
0.0011687
0.00118869
0.00120797
0.00122671
0.00124508
0.00126325
0.00128131
0.00129928
0.00131714
0.0013348
0.00135216
0.00136912
0.00138557
0.00140146
0.00141675
0.00143146
0.00144561
0.00145928
0.00147257
0.0014856
0.00149849
0.00151139
0.00152445
0.00153782
0.00155163
0.001566
0.00158099
0.00159663
0.00161287
0.00162961
0.00164669
0.00166389
0.00168099
0.00169775
0.00171393
0.00172935
0.00174381
0.00175739
0.00176894
0.00178493
0.00096343
0.000955766
0.000948198
0.000940736
0.000933387
0.000926155
0.000919035
0.000912028
0.000905137
0.000898372
0.000891748
0.000885288
0.000879019
0.000872971
0.000867175
0.000861662
0.000856463
0.000851605
0.000847116
0.000843024
0.000839357
0.000836147
0.000833429
0.00083124
0.000829624
0.000828622
0.00082828
0.000828641
0.000829745
0.000831626
0.00083431
0.000837816
0.000842151
0.000847311
0.000853284
0.000860043
0.000867555
0.000875778
0.000884664
0.000894161
0.000904218
0.000914785
0.000925818
0.00093728
0.000949144
0.000961392
0.000974017
0.000987022
0.00100041
0.0010142
0.00102839
0.00104298
0.00105794
0.00107324
0.00108881
0.00110457
0.00112042
0.00113628
0.00115209
0.00116781
0.00118344
0.00119904
0.00121468
0.00123042
0.00124633
0.00126243
0.00127871
0.00129511
0.00131154
0.00132789
0.00134403
0.00135984
0.00137523
0.00139012
0.00140448
0.0014183
0.0014316
0.00144445
0.00145692
0.0014691
0.00148111
0.00149308
0.00150513
0.0015174
0.00153002
0.00154312
0.00155679
0.00157109
0.00158603
0.00160157
0.00161759
0.00163393
0.0016504
0.00166678
0.00168283
0.00169836
0.00171315
0.00172727
0.00173942
0.00175668
0.0010462
0.00104023
0.00103426
0.0010283
0.00102235
0.00101643
0.00101054
0.0010047
0.00099891
0.000993191
0.000987561
0.000982044
0.000976668
0.000971466
0.00096647
0.000961716
0.000957237
0.000953068
0.000949239
0.000945781
0.000942721
0.000940083
0.000937894
0.000936175
0.000934948
0.000934234
0.000934051
0.000934417
0.000935346
0.000936851
0.000938938
0.000941612
0.000944869
0.000948702
0.000953096
0.000958033
0.000963486
0.000969426
0.000975819
0.000982631
0.000989826
0.00099737
0.00100523
0.00101338
0.00102181
0.00103048
0.00103941
0.00104859
0.00105801
0.0010677
0.00107765
0.00108787
0.00109837
0.00110914
0.00112019
0.00113149
0.00114305
0.00115486
0.00116692
0.00117926
0.0011919
0.00120489
0.00121825
0.00123201
0.00124618
0.00126071
0.00127555
0.00129062
0.0013058
0.00132096
0.00133598
0.00135074
0.00136514
0.00137909
0.00139257
0.00140555
0.00141805
0.00143012
0.00144181
0.00145321
0.0014644
0.0014755
0.00148662
0.00149787
0.00150939
0.00152129
0.00153369
0.00154667
0.00156028
0.00157453
0.00158935
0.00160463
0.00162024
0.00163596
0.0016516
0.00166695
0.00168179
0.00169617
0.00170868
0.00172693
0.00109872
0.00109452
0.00109025
0.00108593
0.00108157
0.00107716
0.00107273
0.00106828
0.00106383
0.00105938
0.00105497
0.0010506
0.00104631
0.00104212
0.00103805
0.00103415
0.00103043
0.00102693
0.00102368
0.00102071
0.00101804
0.0010157
0.00101371
0.00101208
0.00101085
0.00101002
0.0010096
0.0010096
0.00101004
0.00101091
0.00101222
0.00101395
0.00101612
0.0010187
0.00102168
0.00102505
0.00102879
0.00103287
0.00103728
0.00104198
0.00104695
0.00105216
0.00105761
0.00106327
0.00106913
0.00107517
0.00108141
0.00108785
0.00109448
0.00110133
0.00110842
0.00111575
0.00112337
0.00113128
0.0011395
0.00114808
0.00115702
0.00116635
0.00117612
0.00118634
0.00119706
0.00120829
0.00122005
0.00123234
0.00124513
0.00125837
0.00127199
0.00128589
0.00129995
0.00131404
0.00132804
0.00134182
0.0013553
0.00136839
0.00138104
0.00139323
0.00140498
0.00141631
0.00142727
0.00143792
0.00144836
0.00145865
0.00146891
0.00147924
0.00148974
0.00150054
0.00151174
0.00152345
0.00153575
0.00154866
0.0015622
0.00157629
0.00159083
0.00160567
0.00162062
0.00163552
0.00165012
0.00166449
0.00167711
0.001696
0.0011291
0.0011264
0.00112361
0.00112075
0.00111782
0.00111482
0.00111176
0.00110865
0.0011055
0.00110232
0.00109912
0.00109593
0.00109276
0.00108962
0.00108655
0.00108356
0.00108068
0.00107792
0.00107533
0.00107291
0.00107069
0.0010687
0.00106694
0.00106545
0.00106424
0.00106331
0.00106269
0.00106237
0.00106238
0.0010627
0.00106334
0.0010643
0.00106558
0.00106716
0.00106903
0.00107119
0.00107362
0.00107631
0.00107922
0.00108236
0.00108571
0.00108924
0.00109294
0.00109681
0.00110085
0.00110504
0.0011094
0.00111393
0.00111864
0.00112357
0.00112872
0.00113413
0.00113983
0.00114586
0.00115224
0.00115903
0.00116625
0.00117394
0.00118215
0.0011909
0.00120023
0.00121015
0.00122067
0.00123177
0.00124342
0.00125556
0.00126811
0.00128096
0.00129401
0.00130713
0.0013202
0.00133309
0.00134572
0.001358
0.00136989
0.00138135
0.00139238
0.00140302
0.00141329
0.00142325
0.00143298
0.00144253
0.001452
0.00146147
0.00147105
0.00148083
0.00149093
0.00150145
0.00151248
0.00152409
0.00153631
0.00154913
0.00156247
0.00157624
0.00159029
0.00160447
0.00161855
0.00163263
0.0016451
0.00166426
0.00114507
0.00114344
0.00114175
0.00113999
0.00113815
0.00113625
0.00113429
0.00113226
0.00113019
0.00112808
0.00112593
0.00112376
0.00112158
0.0011194
0.00111724
0.00111511
0.00111303
0.00111102
0.00110909
0.00110727
0.00110556
0.00110399
0.00110257
0.00110132
0.00110025
0.00109938
0.00109871
0.00109825
0.00109802
0.00109801
0.00109822
0.00109867
0.00109934
0.00110023
0.00110134
0.00110266
0.00110417
0.00110588
0.00110777
0.00110982
0.00111203
0.0011144
0.0011169
0.00111955
0.00112233
0.00112525
0.00112833
0.00113157
0.00113498
0.0011386
0.00114246
0.00114657
0.00115099
0.00115574
0.00116087
0.00116643
0.00117246
0.00117899
0.00118607
0.00119373
0.001202
0.00121088
0.00122039
0.0012305
0.00124118
0.00125236
0.00126396
0.00127589
0.00128803
0.00130027
0.00131248
0.00132456
0.00133641
0.00134794
0.00135911
0.00136989
0.00138026
0.00139024
0.00139987
0.00140919
0.00141825
0.00142712
0.00143586
0.00144456
0.00145329
0.00146216
0.00147125
0.00148067
0.00149052
0.00150088
0.0015118
0.00152331
0.00153539
0.00154796
0.00156093
0.00157418
0.00158751
0.00160103
0.00161309
0.00163212
0.00115267
0.00115171
0.00115071
0.00114966
0.00114856
0.0011474
0.0011462
0.00114495
0.00114366
0.00114232
0.00114095
0.00113956
0.00113814
0.00113672
0.00113529
0.00113386
0.00113246
0.00113108
0.00112975
0.00112847
0.00112725
0.00112611
0.00112506
0.00112412
0.00112328
0.00112256
0.00112198
0.00112154
0.00112124
0.0011211
0.00112111
0.00112128
0.0011216
0.00112209
0.00112273
0.00112352
0.00112446
0.00112554
0.00112676
0.00112811
0.00112958
0.00113118
0.0011329
0.00113473
0.00113669
0.00113877
0.001141
0.00114338
0.00114593
0.00114869
0.00115167
0.00115492
0.00115846
0.00116235
0.00116662
0.00117132
0.00117649
0.00118217
0.00118841
0.00119523
0.00120267
0.00121072
0.0012194
0.00122867
0.00123851
0.00124885
0.00125961
0.00127071
0.00128203
0.00129347
0.00130491
0.00131624
0.00132736
0.0013382
0.00134871
0.00135885
0.0013686
0.00137798
0.001387
0.00139571
0.00140416
0.00141239
0.00142047
0.00142846
0.00143643
0.00144446
0.00145265
0.00146107
0.00146984
0.00147903
0.00148872
0.00149895
0.00150973