/*--------------------------------*- C++ -*----------------------------------*\
| =========                 |                                                 |
| \\      /  F ield         | OpenFOAM: The Open Source CFD Toolbox           |
|  \\    /   O peration     | Version:  2.1.1                                 |
|   \\  /    A nd           | Web:      www.OpenFOAM.org                      |
|    \\/     M anipulation  |                                                 |
\*---------------------------------------------------------------------------*/
FoamFile
{
    version     2.0;
    format      ascii;
    class       volScalarField;
    location    "0.11";
    object      p;
}
// * * * * * * * * * * * * * * * * * * * * * * * * * * * * * * * * * * * * * //

dimensions      [0 2 -2 0 0 0 0];

internalField   nonuniform List<scalar> 
6820
(
-11.1553
-13.0017
-13.577
-13.7052
-13.8128
-13.8927
-13.9479
-13.9952
-14.0387
-14.0788
-14.1165
-14.1523
-14.1865
-14.2193
-14.2509
-14.2813
-14.3108
-14.3395
-14.3674
-14.3946
-14.4214
-14.4477
-14.4737
-14.4993
-14.5247
-14.5496
-14.574
-14.5976
-14.6193
-14.6382
-14.6505
-14.6492
-14.625
-15.1078
-14.5733
-14.1511
-13.9615
-13.9374
-13.9493
-13.9703
-13.9991
-14.0323
-14.0669
-14.1016
-14.1362
-14.1701
-14.2032
-14.2353
-14.2665
-14.2968
-14.3263
-14.355
-14.383
-14.4105
-14.4375
-14.4641
-14.4904
-14.5163
-14.542
-14.5674
-14.5926
-14.6171
-14.6429
-14.6682
-14.7174
-14.7806
-13.4653
-13.1616
-13.4485
-13.6939
-13.7995
-13.8755
-13.9353
-13.9855
-14.0306
-14.0718
-14.1102
-14.1463
-14.1807
-14.2135
-14.245
-14.2753
-14.3046
-14.3331
-14.3609
-14.388
-14.4147
-14.441
-14.467
-14.4927
-14.5183
-14.5438
-14.5692
-14.5947
-14.6204
-14.6475
-14.6764
-14.7137
-14.7541
-13.9722
-14.0067
-14.0042
-13.9454
-13.9382
-13.9593
-13.9864
-14.0161
-14.048
-14.0805
-14.1129
-14.1449
-14.1765
-14.2074
-14.2376
-14.2672
-14.2961
-14.3243
-14.3521
-14.3793
-14.4061
-14.4326
-14.4589
-14.485
-14.511
-14.537
-14.5632
-14.5898
-14.617
-14.6466
-14.6786
-14.7206
-14.769
-13.8167
-13.7167
-13.7612
-13.8276
-13.8812
-13.9283
-13.9698
-14.0081
-14.0449
-14.0804
-14.1146
-14.1477
-14.1798
-14.2109
-14.241
-14.2704
-14.299
-14.3269
-14.3542
-14.3811
-14.4075
-14.4337
-14.4596
-14.4855
-14.5113
-14.5373
-14.5636
-14.5905
-14.6184
-14.6484
-14.6812
-14.7203
-14.7635
-13.8717
-13.8552
-13.8806
-13.9041
-13.9269
-13.9569
-13.9891
-14.0216
-14.0544
-14.0869
-14.1188
-14.1501
-14.1808
-14.2107
-14.2399
-14.2685
-14.2965
-14.3239
-14.3509
-14.3775
-14.4037
-14.4297
-14.4556
-14.4814
-14.5072
-14.5333
-14.5598
-14.5871
-14.6154
-14.6457
-14.6785
-14.7156
-14.7559
-13.8698
-13.8487
-13.8648
-13.894
-13.9246
-13.9582
-13.9918
-14.0247
-14.0572
-14.0893
-14.1207
-14.1515
-14.1817
-14.2111
-14.2399
-14.2681
-14.2958
-14.3229
-14.3495
-14.3758
-14.4018
-14.4276
-14.4532
-14.4789
-14.5046
-14.5307
-14.5571
-14.5844
-14.6126
-14.6426
-14.6745
-14.7092
-14.7459
-13.8838
-13.8761
-13.8917
-13.9166
-13.9424
-13.9711
-14.0014
-14.032
-14.0627
-14.0933
-14.1235
-14.1533
-14.1825
-14.2112
-14.2394
-14.267
-14.2941
-14.3207
-14.347
-14.3729
-14.3986
-14.4241
-14.4495
-14.475
-14.5005
-14.5264
-14.5527
-14.5797
-14.6077
-14.637
-14.6677
-14.7003
-14.734
-13.8965
-13.8927
-13.9051
-13.927
-13.9515
-13.9789
-14.0079
-14.0373
-14.0669
-14.0965
-14.1258
-14.1547
-14.1832
-14.2112
-14.2387
-14.2658
-14.2924
-14.3186
-14.3444
-14.37
-14.3953
-14.4205
-14.4457
-14.4708
-14.4961
-14.5217
-14.5477
-14.5743
-14.6017
-14.6301
-14.6595
-14.6901
-14.7212
-13.9099
-13.9093
-13.9209
-13.9407
-13.9633
-13.9886
-14.0157
-14.0435
-14.0717
-14.1
-14.1282
-14.1562
-14.1838
-14.2111
-14.2379
-14.2644
-14.2904
-14.3161
-14.3415
-14.3667
-14.3916
-14.4164
-14.4412
-14.466
-14.491
-14.5161
-14.5417
-14.5677
-14.5944
-14.6218
-14.6498
-14.6786
-14.7075
-13.9232
-13.9243
-13.9349
-13.9527
-13.9736
-13.9972
-14.0228
-14.0492
-14.0761
-14.1033
-14.1305
-14.1575
-14.1843
-14.2108
-14.237
-14.2628
-14.2883
-14.3135
-14.3384
-14.3631
-14.3876
-14.412
-14.4364
-14.4607
-14.4852
-14.5099
-14.5349
-14.5603
-14.5861
-14.6124
-14.6391
-14.6662
-14.6932
-13.9362
-13.9382
-13.9482
-13.9644
-13.9839
-14.0059
-14.0299
-14.0549
-14.0806
-14.1066
-14.1328
-14.1589
-14.1848
-14.2105
-14.236
-14.2612
-14.2861
-14.3107
-14.3351
-14.3592
-14.3833
-14.4072
-14.4311
-14.4549
-14.4789
-14.503
-14.5273
-14.5519
-14.5768
-14.602
-14.6274
-14.6529
-14.6783
-13.9487
-13.9512
-13.9606
-13.9755
-13.9935
-14.0142
-14.0367
-14.0604
-14.0849
-14.1098
-14.1349
-14.1601
-14.1852
-14.2101
-14.2349
-14.2594
-14.2836
-14.3077
-14.3315
-14.3551
-14.3786
-14.402
-14.4253
-14.4486
-14.472
-14.4954
-14.519
-14.5428
-14.5667
-14.5908
-14.615
-14.6391
-14.663
-13.9606
-13.9633
-13.9722
-13.9859
-14.0027
-14.022
-14.0432
-14.0657
-14.089
-14.1128
-14.137
-14.1612
-14.1854
-14.2096
-14.2336
-14.2574
-14.281
-14.3044
-14.3277
-14.3507
-14.3736
-14.3964
-14.4192
-14.4418
-14.4645
-14.4873
-14.5101
-14.5329
-14.5559
-14.5788
-14.6018
-14.6246
-14.6471
-13.9719
-13.9746
-13.983
-13.9957
-14.0114
-14.0295
-14.0495
-14.0707
-14.0929
-14.1157
-14.1388
-14.1622
-14.1855
-14.2089
-14.2321
-14.2553
-14.2782
-14.301
-14.3236
-14.346
-14.3683
-14.3905
-14.4126
-14.4346
-14.4566
-14.4785
-14.5005
-14.5224
-14.5444
-14.5662
-14.588
-14.6095
-14.6307
-13.9825
-13.9851
-13.993
-14.0049
-14.0195
-14.0365
-14.0553
-14.0755
-14.0966
-14.1183
-14.1405
-14.1629
-14.1855
-14.208
-14.2305
-14.2529
-14.2751
-14.2972
-14.3192
-14.341
-14.3626
-14.3841
-14.4055
-14.4268
-14.448
-14.4692
-14.4903
-14.5113
-14.5322
-14.553
-14.5736
-14.5939
-14.6139
-13.9923
-13.9948
-14.0023
-14.0134
-14.0271
-14.043
-14.0607
-14.0798
-14.0999
-14.1207
-14.1419
-14.1635
-14.1852
-14.2069
-14.2287
-14.2503
-14.2718
-14.2933
-14.3145
-14.3356
-14.3566
-14.3774
-14.3981
-14.4186
-14.439
-14.4593
-14.4795
-14.4996
-14.5195
-14.5391
-14.5586
-14.5777
-14.5966
-14.0014
-14.0038
-14.0108
-14.0212
-14.034
-14.049
-14.0657
-14.0838
-14.1029
-14.1227
-14.1431
-14.1638
-14.1846
-14.2056
-14.2266
-14.2475
-14.2683
-14.289
-14.3095
-14.3299
-14.3502
-14.3703
-14.3902
-14.4099
-14.4295
-14.449
-14.4682
-14.4873
-14.5062
-14.5248
-14.5431
-14.5611
-14.5787
-14.0097
-14.012
-14.0186
-14.0283
-14.0403
-14.0544
-14.0702
-14.0874
-14.1056
-14.1245
-14.1439
-14.1638
-14.1838
-14.204
-14.2242
-14.2444
-14.2645
-14.2844
-14.3043
-14.3239
-14.3434
-14.3627
-14.3819
-14.4008
-14.4196
-14.4381
-14.4564
-14.4745
-14.4924
-14.5099
-14.5271
-14.544
-14.5605
-14.0172
-14.0193
-14.0255
-14.0346
-14.0459
-14.0592
-14.0742
-14.0905
-14.1078
-14.1258
-14.1445
-14.1635
-14.1827
-14.2021
-14.2215
-14.241
-14.2603
-14.2796
-14.2986
-14.3176
-14.3363
-14.3549
-14.3732
-14.3913
-14.4092
-14.4268
-14.4442
-14.4613
-14.4781
-14.4946
-14.5107
-14.5264
-14.5418
-14.0238
-14.0258
-14.0317
-14.0402
-14.0509
-14.0635
-14.0776
-14.0931
-14.1096
-14.1268
-14.1446
-14.1628
-14.1813
-14.1999
-14.2186
-14.2373
-14.2559
-14.2744
-14.2927
-14.3109
-14.3289
-14.3466
-14.3641
-14.3814
-14.3984
-14.4151
-14.4315
-14.4476
-14.4634
-14.4788
-14.4938
-14.5085
-14.5227
-14.0296
-14.0315
-14.037
-14.0451
-14.0551
-14.067
-14.0805
-14.0952
-14.1108
-14.1273
-14.1443
-14.1618
-14.1795
-14.1974
-14.2153
-14.2333
-14.2511
-14.2689
-14.2865
-14.3039
-14.3211
-14.338
-14.3547
-14.3711
-14.3872
-14.403
-14.4184
-14.4336
-14.4483
-14.4627
-14.4766
-14.4901
-14.5032
-14.0345
-14.0363
-14.0415
-14.0491
-14.0586
-14.0699
-14.0827
-14.0967
-14.1116
-14.1274
-14.1437
-14.1604
-14.1774
-14.1945
-14.2117
-14.229
-14.2461
-14.2631
-14.2799
-14.2966
-14.313
-14.3291
-14.3449
-14.3605
-14.3757
-14.3905
-14.405
-14.4192
-14.4329
-14.4462
-14.4591
-14.4715
-14.4835
-14.0385
-14.0402
-14.0451
-14.0523
-14.0613
-14.072
-14.0842
-14.0975
-14.1118
-14.1268
-14.1425
-14.1585
-14.1748
-14.1912
-14.2077
-14.2242
-14.2407
-14.2569
-14.273
-14.2889
-14.3045
-14.3198
-14.3348
-14.3495
-14.3638
-14.3778
-14.3913
-14.4045
-14.4172
-14.4295
-14.4413
-14.4527
-14.4635
-14.0416
-14.0432
-14.0479
-14.0547
-14.0633
-14.0735
-14.0851
-14.0978
-14.1115
-14.1259
-14.1409
-14.1563
-14.1719
-14.1877
-14.2035
-14.2194
-14.2351
-14.2506
-14.266
-14.2811
-14.2959
-14.3104
-14.3246
-14.3384
-14.3518
-14.3648
-14.3775
-14.3896
-14.4013
-14.4126
-14.4234
-14.4337
-14.4435
-14.0438
-14.0453
-14.0497
-14.0561
-14.0642
-14.0739
-14.085
-14.0972
-14.1103
-14.1241
-14.1385
-14.1533
-14.1683
-14.1835
-14.1987
-14.2138
-14.2289
-14.2437
-14.2584
-14.2727
-14.2868
-14.3005
-14.3139
-14.3269
-14.3394
-14.3516
-14.3633
-14.3745
-14.3852
-14.3955
-14.4053
-14.4145
-14.4232
-14.045
-14.0464
-14.0506
-14.0569
-14.0647
-14.074
-14.0847
-14.0965
-14.1091
-14.1225
-14.1363
-14.1505
-14.1649
-14.1795
-14.1941
-14.2086
-14.2229
-14.2371
-14.251
-14.2646
-14.2779
-14.2909
-14.3034
-14.3155
-14.3272
-14.3385
-14.3492
-14.3595
-14.3693
-14.3786
-14.3873
-14.3955
-14.4032
-14.0451
-14.0464
-14.0502
-14.0559
-14.0633
-14.0721
-14.0823
-14.0936
-14.1058
-14.1187
-14.1321
-14.1458
-14.1598
-14.1739
-14.1879
-14.2019
-14.2157
-14.2293
-14.2425
-14.2555
-14.2681
-14.2804
-14.2922
-14.3035
-14.3144
-14.3248
-14.3347
-14.3441
-14.353
-14.3613
-14.3691
-14.3764
-14.3831
-14.0444
-14.0459
-14.0498
-14.0556
-14.063
-14.0718
-14.0818
-14.0928
-14.1046
-14.1171
-14.13
-14.1433
-14.1567
-14.1701
-14.1835
-14.1968
-14.21
-14.2228
-14.2354
-14.2476
-14.2595
-14.2709
-14.2819
-14.2924
-14.3025
-14.312
-14.321
-14.3295
-14.3374
-14.3448
-14.3517
-14.3579
-14.3636
-14.0421
-14.0427
-14.0455
-14.0502
-14.0567
-14.065
-14.0746
-14.0855
-14.0972
-14.1095
-14.1224
-14.1355
-14.1487
-14.162
-14.1752
-14.1882
-14.201
-14.2135
-14.2256
-14.2374
-14.2487
-14.2596
-14.27
-14.2799
-14.2892
-14.2981
-14.3063
-14.3141
-14.3212
-14.3278
-14.3338
-14.3392
-14.344
-14.0404
-14.0428
-14.0471
-14.0529
-14.0599
-14.0682
-14.0776
-14.088
-14.0992
-14.1109
-14.123
-14.1353
-14.1478
-14.1603
-14.1727
-14.1849
-14.1968
-14.2085
-14.2198
-14.2307
-14.2412
-14.2512
-14.2608
-14.2698
-14.2783
-14.2862
-14.2936
-14.3004
-14.3067
-14.3123
-14.3173
-14.3218
-14.3256
-14.0324
-14.0303
-14.0304
-14.0338
-14.04
-14.0485
-14.0586
-14.0699
-14.0821
-14.0948
-14.1078
-14.121
-14.1341
-14.1471
-14.1599
-14.1725
-14.1846
-14.1964
-14.2077
-14.2185
-14.2288
-14.2386
-14.2478
-14.2565
-14.2645
-14.272
-14.2788
-14.2851
-14.2907
-14.2957
-14.3001
-14.3038
-14.307
-14.0386
-14.0449
-14.0505
-14.0552
-14.0607
-14.0676
-14.0758
-14.0851
-14.0952
-14.1059
-14.117
-14.1283
-14.1398
-14.1512
-14.1625
-14.1736
-14.1844
-14.1949
-14.2051
-14.2147
-14.224
-14.2327
-14.2408
-14.2485
-14.2556
-14.262
-14.2679
-14.2732
-14.2779
-14.282
-14.2854
-14.2882
-14.2904
-14.0069
-13.9935
-13.9885
-13.9931
-14.0026
-14.0145
-14.0279
-14.0422
-14.0568
-14.0716
-14.0863
-14.1008
-14.1149
-14.1285
-14.1417
-14.1544
-14.1665
-14.178
-14.189
-14.1993
-14.2089
-14.218
-14.2264
-14.2341
-14.2412
-14.2476
-14.2533
-14.2583
-14.2627
-14.2664
-14.2695
-14.2718
-14.2736
-14.0595
-14.0795
-14.0834
-14.0783
-14.0757
-14.0775
-14.0821
-14.0885
-14.0962
-14.1048
-14.1142
-14.124
-14.134
-14.1441
-14.1541
-14.164
-14.1736
-14.1829
-14.1919
-14.2003
-14.2083
-14.2158
-14.2228
-14.2292
-14.235
-14.2402
-14.2447
-14.2487
-14.252
-14.2547
-14.2568
-14.2583
-14.2591
-13.9366
-13.8871
-13.8753
-13.9014
-13.9284
-13.9519
-13.975
-13.9972
-14.0183
-14.0381
-14.0568
-14.0744
-14.0909
-14.1064
-14.121
-14.1347
-14.1475
-14.1594
-14.1706
-14.1809
-14.1904
-14.1991
-14.2071
-14.2143
-14.2208
-14.2264
-14.2314
-14.2356
-14.2391
-14.2418
-14.2438
-14.2451
-14.2457
-14.1841
-14.2188
-14.1875
-14.1442
-14.1151
-14.1038
-14.1004
-14.1004
-14.1032
-14.1083
-14.1148
-14.1222
-14.1302
-14.1385
-14.147
-14.1555
-14.1638
-14.1719
-14.1796
-14.1869
-14.1938
-14.2003
-14.2061
-14.2115
-14.2162
-14.2204
-14.224
-14.2269
-14.2292
-14.2309
-14.2319
-14.2323
-14.2321
-13.6918
-13.572
-13.6342
-13.7355
-13.809
-13.8598
-13.9026
-13.94
-13.9722
-14.0003
-14.0253
-14.0477
-14.0679
-14.0862
-14.1029
-14.1181
-14.1321
-14.1448
-14.1565
-14.1671
-14.1768
-14.1855
-14.1933
-14.2003
-14.2063
-14.2116
-14.216
-14.2197
-14.2225
-14.2246
-14.2258
-14.2264
-14.2262
-14.9059
-14.5669
-14.3029
-14.1852
-14.1348
-14.1089
-14.0931
-14.0861
-14.0852
-14.0881
-14.0934
-14.1003
-14.1081
-14.1165
-14.1252
-14.1339
-14.1424
-14.1507
-14.1587
-14.1662
-14.1732
-14.1798
-14.1857
-14.1911
-14.1958
-14.1999
-14.2033
-14.2061
-14.2082
-14.2097
-14.2105
-14.2106
-14.2101
-12.4022
-13.1087
-13.5129
-13.6649
-13.7689
-13.8507
-13.9094
-13.9534
-13.9888
-14.018
-14.0425
-14.0636
-14.0821
-14.0986
-14.1135
-14.1269
-14.1392
-14.1503
-14.1605
-14.1697
-14.178
-14.1855
-14.1921
-14.1979
-14.203
-14.2072
-14.2107
-14.2134
-14.2153
-14.2165
-14.217
-14.2168
-14.2158
-14.5212
-14.744
-14.8992
-14.9831
-15.0306
-15.062
-15.0928
-15.1357
-15.1989
-15.2833
-15.3865
-15.5042
-15.632
-15.764
-15.8948
-16.0196
-16.1344
-16.2362
-16.3227
-16.3923
-16.4442
-16.478
-16.4937
-16.4913
-16.471
-16.433
-16.3771
-16.3032
-16.2113
-16.1009
-15.972
-15.8244
-15.6581
-15.4731
-15.2697
-15.0483
-14.8096
-14.5545
-14.2839
-13.9992
-13.7015
-13.3923
-13.073
-12.7449
-12.4093
-12.0671
-11.7191
-11.3657
-11.0071
-10.643
-10.2728
-9.89544
-9.5097
-9.1141
-8.707
-8.28677
-7.85187
-7.40102
-6.93339
-6.44872
-5.94767
-5.432
-4.90495
-4.37149
-3.83842
-3.31414
-2.80778
-2.32812
-1.88278
-1.47789
-1.11783
-0.804989
-0.539703
-0.320421
-0.144024
-0.0062806
0.0976743
0.172916
0.224388
0.256675
0.27386
0.279467
0.276457
0.26725
0.253784
0.237561
0.219729
0.20111
0.18231
0.16368
0.145533
0.127859
0.111019
0.0943976
0.0791783
0.0628882
0.0501325
0.0317458
0.0249907
-0.00349458
-15.1444
-15.2711
-15.1894
-15.1109
-15.0621
-15.0263
-15.0186
-15.0369
-15.0879
-15.1701
-15.2777
-15.404
-15.5415
-15.6827
-15.8208
-15.9501
-16.0667
-16.1677
-16.2518
-16.3182
-16.3667
-16.3974
-16.4106
-16.4062
-16.3845
-16.3453
-16.2886
-16.2141
-16.1218
-16.0113
-15.8826
-15.7355
-15.5699
-15.3861
-15.1842
-14.9647
-14.7283
-14.4757
-14.2079
-13.9263
-13.6319
-13.3262
-13.0104
-12.6859
-12.3539
-12.0152
-11.6706
-11.3205
-10.965
-10.6038
-10.2363
-9.86143
-9.47803
-9.0846
-8.67955
-8.26126
-7.82823
-7.37922
-6.91347
-6.43091
-5.93247
-5.42033
-4.89817
-4.37131
-3.84662
-3.33196
-2.83545
-2.36489
-1.92728
-1.52845
-1.17264
-0.862243
-0.597703
-0.37767
-0.19929
-0.0586288
0.0488882
0.128074
0.183654
0.22004
0.241191
0.250547
0.251015
0.244991
0.234404
0.220764
0.205232
0.188651
0.171652
0.154611
0.13787
0.121436
0.105693
0.0900517
0.0756908
0.0602061
0.0481138
0.0304624
0.0241561
-0.00345666
-14.8113
-14.8025
-14.8222
-14.8811
-14.938
-14.9807
-15.0158
-15.0609
-15.1199
-15.1943
-15.2838
-15.387
-15.5002
-15.6189
-15.7384
-15.8545
-15.9632
-16.0609
-16.145
-16.2133
-16.2646
-16.298
-16.3133
-16.3104
-16.2895
-16.2505
-16.1938
-16.1192
-16.0268
-15.9165
-15.7882
-15.6418
-15.4773
-15.295
-15.0949
-14.8777
-14.6438
-14.3941
-14.1296
-13.8513
-13.5605
-13.2584
-12.9463
-12.6255
-12.297
-11.9617
-11.6203
-11.2732
-10.9205
-10.5618
-10.1965
-9.82363
-9.44198
-9.05011
-8.64646
-8.22947
-7.79774
-7.35022
-6.88638
-6.40649
-5.9118
-5.40483
-4.88948
-4.37107
-3.85601
-3.35139
-2.86458
-2.40277
-1.97261
-1.57965
-1.22801
-0.920044
-0.656288
-0.435568
-0.255282
-0.111775
-0.000754724
0.0823352
0.142002
0.182488
0.207625
0.220764
0.224758
0.221973
0.214326
0.203332
0.190164
0.175686
0.16055
0.145157
0.129873
0.11473
0.100126
0.0855075
0.0720397
0.0573972
0.0459909
0.0291155
0.0232587
-0.00342282
-14.8718
-14.9923
-15.0551
-15.0697
-15.0614
-15.0495
-15.0471
-15.0707
-15.1156
-15.1796
-15.2626
-15.3609
-15.4697
-15.5836
-15.6971
-15.8056
-15.9053
-15.9933
-16.0676
-16.1271
-16.1709
-16.1985
-16.2097
-16.2043
-16.1821
-16.1429
-16.0865
-16.0128
-15.9215
-15.8125
-15.6857
-15.5411
-15.3785
-15.1984
-15.0008
-14.7863
-14.5554
-14.309
-14.0479
-13.7733
-13.4862
-13.1879
-12.8796
-12.5623
-12.2373
-11.9052
-11.5668
-11.2223
-10.8719
-10.5152
-10.1516
-9.7802
-9.39978
-9.00901
-8.60643
-8.19065
-7.76047
-7.31505
-6.85413
-6.37822
-5.88882
-5.38861
-4.88144
-4.37232
-3.86711
-3.37234
-2.89486
-2.44151
-2.01857
-1.63136
-1.28384
-0.978311
-0.715388
-0.494057
-0.311949
-0.165678
-0.0512228
0.0357215
0.0994484
0.144028
0.173163
0.190115
0.197677
0.198182
0.193535
0.18525
0.174511
0.162199
0.148987
0.135301
0.121528
0.107727
0.0943074
0.0807544
0.0682163
0.0544521
0.0437597
0.0276946
0.0223036
-0.00340446
-14.8249
-14.8682
-14.8756
-14.8852
-14.9105
-14.9506
-14.9947
-15.0408
-15.0965
-15.1648
-15.2458
-15.3371
-15.4354
-15.5372
-15.6387
-15.7364
-15.8273
-15.9087
-15.9784
-16.0347
-16.0762
-16.1021
-16.1118
-16.1048
-16.0812
-16.0406
-15.9831
-15.9085
-15.8167
-15.7077
-15.5813
-15.4375
-15.2764
-15.098
-14.9027
-14.6908
-14.4629
-14.2197
-13.9621
-13.6911
-13.4078
-13.1132
-12.8085
-12.4948
-12.173
-11.844
-11.5083
-11.1663
-10.818
-10.463
-10.101
-9.73088
-9.35169
-8.96217
-8.56102
-8.14701
-7.71914
-7.27678
-6.81988
-6.34914
-5.86619
-5.37364
-4.87516
-4.37538
-3.87979
-3.39452
-2.92609
-2.48093
-2.06504
-1.68349
-1.34004
-1.03697
-0.774933
-0.553068
-0.369224
-0.220272
-0.102455
-0.0117107
0.0560423
0.104702
0.137843
0.158631
0.169798
0.173641
0.172048
0.16653
0.158281
0.148196
0.136968
0.125047
0.112838
0.100429
0.0882397
0.075794
0.0642222
0.0513723
0.0414223
0.0262007
0.0212949
-0.00340212
-14.8093
-14.8679
-14.9161
-14.9576
-14.9888
-15.0034
-15.0218
-15.0551
-15.101
-15.1596
-15.2307
-15.3122
-15.401
-15.4938
-15.5868
-15.6764
-15.7596
-15.8335
-15.8962
-15.9459
-15.9817
-16.0027
-16.0085
-15.9986
-15.9729
-15.931
-15.8727
-15.7979
-15.7063
-15.5979
-15.4724
-15.3299
-15.1703
-14.9939
-14.8008
-14.5915
-14.3665
-14.1265
-13.8723
-13.6049
-13.3251
-13.0342
-12.7332
-12.4229
-12.1045
-11.7785
-11.4456
-11.106
-10.7598
-10.4068
-10.0464
-9.67788
-9.30025
-8.91241
-8.51322
-8.10163
-7.67681
-7.23832
-6.78626
-6.3214
-5.84536
-5.36066
-4.87076
-4.38006
-3.89378
-3.41773
-2.95807
-2.52093
-2.11195
-1.73596
-1.39656
-1.09596
-0.834863
-0.61254
-0.427049
-0.275505
-0.154403
-0.0599189
0.0118204
0.0645427
0.101689
0.126331
0.141136
0.14836
0.149871
0.147178
0.141477
0.133679
0.124494
0.114393
0.103802
0.0928347
0.0819208
0.0706246
0.0600564
0.0481565
0.0389784
0.0246329
0.0202348
-0.00341783
-14.791
-14.8382
-14.8717
-14.8945
-14.9159
-14.9496
-14.9848
-15.0267
-15.077
-15.1364
-15.2051
-15.2816
-15.3636
-15.4482
-15.5324
-15.6134
-15.6883
-15.7548
-15.8111
-15.8556
-15.887
-15.9044
-15.9072
-15.8949
-15.8671
-15.8235
-15.764
-15.6882
-15.5961
-15.4875
-15.3624
-15.2206
-15.0622
-14.8874
-14.6964
-14.4895
-14.2673
-14.0304
-13.7796
-13.5157
-13.2396
-12.9524
-12.6549
-12.3482
-12.0331
-11.7103
-11.3803
-11.0434
-10.6996
-10.3487
-9.99029
-9.62369
-9.24802
-8.86231
-8.46557
-8.0569
-7.63563
-7.20144
-6.7545
-6.29566
-5.82651
-5.34949
-4.86795
-4.38608
-3.90885
-3.44179
-2.99072
-2.56141
-2.15923
-1.78872
-1.45335
-1.15523
-0.895119
-0.672415
-0.485367
-0.331322
-0.207016
-0.108859
-0.033179
0.0235806
0.064728
0.0932369
0.111706
0.12235
0.127014
0.127197
0.124101
0.118649
0.111564
0.103339
0.0944189
0.0849422
0.0753493
0.065245
0.0557178
0.0448037
0.0364282
0.0229899
0.0191255
-0.00345432
-14.774
-14.8178
-14.8553
-14.8895
-14.9216
-14.9518
-14.9839
-15.0217
-15.0673
-15.1212
-15.1833
-15.2523
-15.3261
-15.4024
-15.4783
-15.5513
-15.6188
-15.6786
-15.7287
-15.7677
-15.7942
-15.8075
-15.8068
-15.7916
-15.7614
-15.7161
-15.6552
-15.5787
-15.4862
-15.3777
-15.253
-15.1121
-14.955
-14.7818
-14.5928
-14.3883
-14.1688
-13.9349
-13.6873
-13.4268
-13.1543
-12.8706
-12.5768
-12.2736
-11.9618
-11.6422
-11.3151
-10.9808
-10.6395
-10.2909
-9.93468
-9.5702
-9.1967
-8.81335
-8.41927
-8.01372
-7.59613
-7.16631
-6.72453
-6.27165
-5.80928
-5.33981
-4.86645
-4.39323
-3.92487
-3.46661
-3.02394
-2.60232
-2.20681
-1.84172
-1.51033
-1.21471
-0.95564
-0.732632
-0.544118
-0.387666
-0.260243
-0.158483
-0.0789139
-0.018148
0.0269898
0.0593729
0.0815293
0.095628
0.103488
0.106598
0.106161
0.103109
0.0981802
0.0918866
0.0846886
0.0767519
0.0685252
0.0596547
0.0512063
0.0413135
0.0337719
0.0212708
0.0179697
-0.00351446
-14.7574
-14.7974
-14.833
-14.8642
-14.8947
-14.9256
-14.9599
-14.9991
-15.0444
-15.0962
-15.1545
-15.2181
-15.2855
-15.3546
-15.4231
-15.4887
-15.549
-15.602
-15.6461
-15.6797
-15.7017
-15.7111
-15.7071
-15.6892
-15.6569
-15.6098
-15.5477
-15.4703
-15.3774
-15.2689
-15.1446
-15.0044
-14.8485
-14.6769
-14.4899
-14.2878
-14.0709
-13.84
-13.5956
-13.3385
-13.0694
-12.7893
-12.499
-12.1992
-11.8908
-11.5743
-11.2501
-10.9186
-10.5798
-10.2336
-9.87966
-9.51741
-9.14623
-8.76536
-8.37409
-7.97176
-7.55796
-7.13257
-6.69596
-6.24904
-5.7934
-5.33139
-4.86611
-4.4014
-3.94174
-3.49211
-3.05768
-2.64361
-2.25465
-1.89489
-1.56746
-1.27435
-1.01636
-0.793129
-0.603242
-0.444478
-0.314027
-0.208739
-0.125339
-0.0606038
-0.0114924
0.0247664
0.0506275
0.0682109
0.0793069
0.0853915
0.0876651
0.0870671
0.0843481
0.0800384
0.0746139
0.0682654
0.0614497
0.0538547
0.0465229
0.0376863
0.0310107
0.0194754
0.0167699
-0.00360117
-14.7409
-14.7781
-14.8127
-14.8451
-14.8769
-14.9091
-14.9435
-14.9814
-15.0242
-15.0724
-15.1258
-15.1835
-15.2444
-15.3064
-15.3676
-15.426
-15.4795
-15.5262
-15.5645
-15.5929
-15.6103
-15.6157
-15.6084
-15.5877
-15.5531
-15.5043
-15.4409
-15.3626
-15.2693
-15.1607
-15.0368
-14.8975
-14.7428
-14.5727
-14.3877
-14.1878
-13.9736
-13.7455
-13.5042
-13.2504
-12.9848
-12.7081
-12.4212
-12.1249
-11.8197
-11.5063
-11.1851
-10.8564
-10.5202
-10.1764
-9.82485
-9.46497
-9.09624
-8.71801
-8.32968
-7.93072
-7.52081
-7.09995
-6.66858
-6.22764
-5.77873
-5.32413
-4.86683
-4.4105
-3.95941
-3.51825
-3.09191
-2.68523
-2.30271
-1.9482
-1.62468
-1.33409
-1.07723
-0.853844
-0.662675
-0.501697
-0.368312
-0.259577
-0.172407
-0.103745
-0.0506825
-0.0105518
0.0190262
0.0401201
0.0544882
0.0635907
0.0686234
0.0705311
0.0700744
0.0678002
0.0641991
0.0594861
0.0541256
0.0478471
0.0416695
0.0339233
0.0281465
0.0176038
0.0155292
-0.00371745
-14.7243
-14.7591
-14.7924
-14.8242
-14.8556
-14.8875
-14.9213
-14.9582
-14.9991
-15.0443
-15.0936
-15.1463
-15.2012
-15.2568
-15.3114
-15.3631
-15.4101
-15.4507
-15.4834
-15.5067
-15.5196
-15.5212
-15.5105
-15.487
-15.4502
-15.3996
-15.3349
-15.2558
-15.162
-15.0534
-14.9298
-14.7912
-14.6376
-14.4691
-14.2859
-14.0883
-13.8766
-13.6513
-13.413
-13.1624
-12.9001
-12.6268
-12.3433
-12.0503
-11.7484
-11.4381
-11.1198
-10.7939
-10.4604
-10.1192
-9.77009
-9.41271
-9.04657
-8.67114
-8.2859
-7.89045
-7.48458
-7.06836
-6.6423
-6.20739
-5.7652
-5.31797
-4.86857
-4.42052
-3.97785
-3.54499
-3.12656
-2.72713
-2.35092
-2.00158
-1.68194
-1.39387
-1.13819
-0.914715
-0.722355
-0.559261
-0.423037
-0.310939
-0.220068
-0.147527
-0.0905416
-0.0465485
-0.0132462
0.0113794
0.0290518
0.0412124
0.04905
0.0535124
0.0553683
0.0551798
0.0534505
0.0504194
0.0465575
0.0416356
0.0366492
0.030027
0.0251816
0.0156566
0.0142507
-0.0038663
-14.7074
-14.7402
-14.7722
-14.8033
-14.8343
-14.8658
-14.8989
-14.9345
-14.9731
-15.015
-15.0601
-15.1078
-15.1571
-15.2066
-15.2549
-15.3002
-15.341
-15.3758
-15.403
-15.4214
-15.43
-15.4276
-15.4136
-15.3874
-15.3483
-15.2959
-15.2298
-15.1497
-15.0554
-14.9467
-14.8235
-14.6856
-14.5331
-14.366
-14.1846
-13.9891
-13.7799
-13.5573
-13.322
-13.0744
-12.8153
-12.5454
-12.2652
-11.9754
-11.6767
-11.3695
-11.0543
-10.7312
-10.4004
-10.0618
-9.71532
-9.36057
-8.99718
-8.6247
-8.24273
-7.85094
-7.44924
-7.03777
-6.61711
-6.18826
-5.7528
-5.3129
-4.87132
-4.43141
-3.997
-3.57228
-3.16161
-2.76927
-2.39925
-2.05499
-1.73918
-1.45363
-1.19916
-0.975679
-0.78222
-0.617109
-0.478143
-0.362769
-0.268269
-0.191902
-0.131028
-0.083187
-0.0461583
-0.0179846
0.0030202
0.0182758
0.0289611
0.0360248
0.0402415
0.042187
0.0423766
0.0410725
0.0387513
0.0352254
0.0314665
0.0260007
0.0221196
0.0136354
0.0129381
-0.00405069
-14.6903
-14.7213
-14.7518
-14.7819
-14.812
-14.8427
-14.8746
-14.9085
-14.9447
-14.9835
-15.0247
-15.0677
-15.1117
-15.1555
-15.1979
-15.2372
-15.2722
-15.3014
-15.3233
-15.337
-15.3412
-15.3351
-15.3178
-15.2888
-15.2473
-15.1931
-15.1256
-15.0446
-14.9498
-14.8409
-14.7179
-14.5807
-14.4292
-14.2635
-14.0839
-13.8904
-13.6835
-13.4635
-13.231
-12.9865
-12.7305
-12.4638
-12.1868
-11.9003
-11.6048
-11.3007
-10.9884
-10.6682
-10.3402
-10.0043
-9.66057
-9.30859
-8.9481
-8.57873
-8.20016
-7.8122
-7.41479
-7.00819
-6.59299
-6.17025
-5.74151
-5.30889
-4.87503
-4.44314
-4.01684
-3.6001
-3.19701
-2.81161
-2.44765
-2.10838
-1.79636
-1.51331
-1.2601
-1.03667
-0.842204
-0.675176
-0.533567
-0.415009
-0.316956
-0.236822
-0.172097
-0.120428
-0.0796761
-0.0479422
-0.0235811
-0.00519742
0.00837549
0.0180844
0.024708
0.028834
0.0309881
0.0314545
0.0307152
0.0286232
0.0261275
0.0218493
0.0189649
0.0115425
0.0115953
-0.00427341
-14.6729
-14.7021
-14.7312
-14.7601
-14.7891
-14.8186
-14.8491
-14.8811
-14.9149
-14.9505
-14.9879
-15.0264
-15.0654
-15.1039
-15.1406
-15.1743
-15.2037
-15.2275
-15.2444
-15.2534
-15.2535
-15.2436
-15.2231
-15.1912
-15.1475
-15.0914
-15.0225
-14.9405
-14.845
-14.736
-14.6132
-14.4765
-14.326
-14.1616
-13.9836
-13.7921
-13.5875
-13.37
-13.1403
-12.8986
-12.6457
-12.3821
-12.1083
-11.825
-11.5325
-11.2315
-10.9222
-10.6049
-10.2798
-9.9468
-9.60586
-9.25679
-8.89934
-8.53323
-8.15824
-7.77423
-7.38125
-6.97961
-6.56996
-6.15335
-5.73132
-5.30591
-4.87968
-4.45567
-4.03733
-3.62839
-3.23271
-2.85409
-2.49606
-2.16169
-1.8534
-1.57287
-1.32094
-1.09764
-0.902243
-0.733398
-0.589247
-0.467598
-0.366071
-0.282233
-0.213702
-0.158231
-0.113763
-0.0784611
-0.0507238
-0.0291824
-0.0126853
-0.000289828
0.00878448
0.0151355
0.0192978
0.0215769
0.0224592
0.0218379
0.0206396
0.0175788
0.0157227
0.00938122
0.0102266
-0.00453701
-14.655
-14.6826
-14.7102
-14.7377
-14.7654
-14.7935
-14.8224
-14.8523
-14.8836
-14.9161
-14.9497
-14.984
-15.0183
-15.0516
-15.0831
-15.1114
-15.1355
-15.1542
-15.1663
-15.1708
-15.1668
-15.1532
-15.1295
-15.0949
-15.0488
-14.9908
-14.9205
-14.8374
-14.7413
-14.6321
-14.5094
-14.3732
-14.2236
-14.0605
-13.884
-13.6944
-13.4919
-13.2769
-13.0497
-12.8109
-12.5609
-12.3003
-12.0297
-11.7494
-11.4601
-11.1622
-10.8559
-10.5416
-10.2193
-9.88926
-9.55127
-9.20523
-8.85096
-8.48826
-8.11699
-7.73707
-7.34864
-6.95206
-6.548
-6.13755
-5.72221
-5.30395
-4.88525
-4.46899
-4.05844
-3.65712
-3.26867
-2.89667
-2.54444
-2.21487
-1.91026
-1.63223
-1.38161
-1.1585
-0.962272
-0.791709
-0.645118
-0.520474
-0.415557
-0.328081
-0.255792
-0.196549
-0.148377
-0.109506
-0.0783765
-0.0536515
-0.0341967
-0.0190763
-0.00750992
0.0011085
0.007321
0.0114531
0.0139952
0.0148799
0.015012
0.013197
0.0123997
0.00715584
0.00883699
-0.00484364
-14.6367
-14.6627
-14.6888
-14.7148
-14.741
-14.7675
-14.7946
-14.8224
-14.851
-14.8805
-14.9105
-14.9407
-14.9705
-14.999
-15.0254
-15.0487
-15.0678
-15.0816
-15.089
-15.0892
-15.0812
-15.064
-15.0371
-14.9998
-14.9514
-14.8915
-14.8197
-14.7355
-14.6388
-14.5292
-14.4066
-14.2709
-14.122
-13.9601
-13.7851
-13.5973
-13.3968
-13.1841
-12.9595
-12.7234
-12.4763
-12.2186
-11.951
-11.6738
-11.3876
-11.0927
-10.7894
-10.4781
-10.1588
-9.83176
-9.49683
-9.15394
-8.803
-8.44385
-8.07643
-7.70074
-7.31697
-6.92553
-6.52712
-6.12284
-5.71416
-5.30299
-4.8917
-4.48304
-4.08012
-3.68624
-3.30486
-2.93931
-2.59274
-2.26787
-1.96689
-1.69134
-1.44207
-1.2192
-1.02223
-0.850043
-0.701115
-0.573573
-0.465353
-0.37431
-0.298316
-0.235335
-0.183478
-0.141038
-0.106505
-0.0785739
-0.0561314
-0.0382503
-0.0241532
-0.0132272
-0.00492467
0.00109911
0.00533739
0.00776174
0.00925535
0.00871301
0.00900354
0.00487185
0.00743155
-0.00519483
-14.618
-14.6424
-14.6669
-14.6914
-14.7159
-14.7407
-14.7658
-14.7914
-14.8174
-14.8438
-14.8703
-14.8966
-14.9221
-14.9461
-14.9678
-14.9862
-15.0005
-15.0096
-15.0126
-15.0086
-14.9967
-14.9761
-14.9461
-14.906
-14.8553
-14.7935
-14.7201
-14.6349
-14.5374
-14.4274
-14.3049
-14.1696
-14.0214
-13.8605
-13.687
-13.5008
-13.3023
-13.0918
-12.8696
-12.6362
-12.3918
-12.137
-11.8724
-11.5982
-11.315
-11.0231
-10.7229
-10.4146
-10.0984
-9.77439
-9.4426
-9.103
-8.7555
-8.40005
-8.03661
-7.66527
-7.28626
-6.90003
-6.50733
-6.10922
-5.70716
-5.303
-4.89901
-4.49781
-4.10233
-3.71572
-3.34121
-2.98195
-2.64091
-2.32064
-2.02323
-1.75015
-1.50224
-1.27968
-1.08204
-0.908333
-0.75717
-0.626829
-0.515395
-0.42086
-0.341219
-0.274539
-0.219018
-0.173015
-0.135071
-0.103916
-0.0784587
-0.0577844
-0.0411203
-0.0278491
-0.0174188
-0.0094668
-0.00349797
0.000497906
0.00338234
0.00413763
0.00554292
0.00253595
0.00601589
-0.00559135
-14.5988
-14.6217
-14.6445
-14.6674
-14.6902
-14.7132
-14.7362
-14.7595
-14.7828
-14.8062
-14.8293
-14.8518
-14.8732
-14.8929
-14.9101
-14.924
-14.9337
-14.9384
-14.9371
-14.9291
-14.9134
-14.8894
-14.8563
-14.8136
-14.7606
-14.6969
-14.622
-14.5356
-14.4373
-14.327
-14.2044
-14.0694
-13.9219
-13.762
-13.5897
-13.4052
-13.2086
-13.0002
-12.7803
-12.5493
-12.3076
-12.0557
-11.7938
-11.5226
-11.2424
-10.9535
-10.6564
-10.3511
-10.038
-9.71719
-9.38866
-9.05244
-8.70852
-8.35688
-7.99756
-7.63068
-7.25653
-6.87559
-6.48861
-6.09668
-5.70119
-5.30396
-4.90714
-4.51324
-4.12504
-3.74551
-3.37769
-3.02456
-2.68889
-2.37312
-2.07921
-1.80859
-1.56207
-1.33987
-1.14164
-0.966512
-0.813217
-0.680178
-0.565621
-0.467671
-0.384443
-0.314108
-0.254948
-0.205392
-0.164034
-0.12964
-0.101145
-0.0776477
-0.0583833
-0.0427316
-0.0301383
-0.0202237
-0.0124922
-0.00689495
-0.00259268
-0.000516594
0.00202783
0.000156206
0.00459581
-0.00603287
-14.5792
-14.6005
-14.6217
-14.6428
-14.6639
-14.6849
-14.7059
-14.7267
-14.7475
-14.7678
-14.7877
-14.8066
-14.8241
-14.8397
-14.8526
-14.8622
-14.8676
-14.868
-14.8627
-14.8507
-14.8315
-14.8041
-14.7681
-14.7227
-14.6674
-14.6018
-14.5254
-14.4378
-14.3387
-14.2279
-14.1052
-13.9705
-13.8236
-13.6646
-13.4935
-13.3104
-13.1156
-12.9092
-12.6915
-12.463
-12.2238
-11.9746
-11.7156
-11.4472
-11.1699
-10.8841
-10.5899
-10.2878
-9.97786
-9.66025
-9.33506
-9.00234
-8.66211
-8.31441
-7.95931
-7.597
-7.22779
-6.8522
-6.47099
-6.08521
-5.69625
-5.30585
-4.91607
-4.52931
-4.14821
-3.77556
-3.41424
-3.06707
-2.73664
-2.42526
-2.1348
-1.8666
-1.62149
-1.39971
-1.20097
-1.02451
-0.869187
-0.733552
-0.615965
-0.514681
-0.427929
-0.353985
-0.291217
-0.238123
-0.19335
-0.155705
-0.124152
-0.097806
-0.0759108
-0.0578462
-0.043057