/*--------------------------------*- C++ -*----------------------------------*\
| =========                 |                                                 |
| \\      /  F ield         | OpenFOAM: The Open Source CFD Toolbox           |
|  \\    /   O peration     | Version:  2.1.1                                 |
|   \\  /    A nd           | Web:      www.OpenFOAM.org                      |
|    \\/     M anipulation  |                                                 |
\*---------------------------------------------------------------------------*/
FoamFile
{
    version     2.0;
    format      ascii;
    class       surfaceScalarField;
    location    "0.11";
    object      phi;
}
// * * * * * * * * * * * * * * * * * * * * * * * * * * * * * * * * * * * * * //

dimensions      [0 3 -1 0 0 0 0];

internalField   nonuniform List<scalar> 
13452
(
6.89923e-05
-5.0508e-07
6.88138e-05
1.78569e-07
6.82027e-05
6.11116e-07
6.72556e-05
9.47055e-07
6.61795e-05
1.07609e-06
6.50886e-05
1.09095e-06
6.40245e-05
1.06406e-06
6.30047e-05
1.01984e-06
6.20374e-05
9.67271e-07
6.11262e-05
9.11237e-07
6.0272e-05
8.54157e-07
5.94745e-05
7.97481e-07
5.87324e-05
7.42155e-07
5.80435e-05
6.8884e-07
5.74055e-05
6.37982e-07
5.68157e-05
5.89861e-07
5.6271e-05
5.44629e-07
5.57687e-05
5.0234e-07
5.53057e-05
4.62977e-07
5.48793e-05
4.2647e-07
5.44865e-05
3.9272e-07
5.41249e-05
3.61613e-07
5.37919e-05
3.33041e-07
5.3485e-05
3.06922e-07
5.32017e-05
2.83233e-07
5.29397e-05
2.62064e-07
5.2696e-05
2.4371e-07
5.24669e-05
2.2901e-07
5.22475e-05
2.19432e-07
5.20273e-05
2.20246e-07
5.17883e-05
2.38958e-07
5.14815e-05
3.068e-07
4.99634e-07
5.09819e-05
7.0165e-05
-2.26096e-07
7.00412e-05
3.02358e-07
7.01818e-05
4.70443e-07
7.05092e-05
6.19658e-07
7.08599e-05
7.25442e-07
7.1159e-05
7.91845e-07
7.1384e-05
8.39112e-07
7.15364e-05
8.67392e-07
7.16243e-05
8.79378e-07
7.16565e-05
8.79047e-07
7.16413e-05
8.69348e-07
7.15862e-05
8.52606e-07
7.14977e-05
8.30627e-07
7.13817e-05
8.04877e-07
7.12431e-05
7.76529e-07
7.10865e-05
7.4652e-07
7.09155e-05
7.15596e-07
7.07335e-05
6.84342e-07
7.05433e-05
6.53215e-07
7.03472e-05
6.2256e-07
7.01472e-05
5.92644e-07
6.99452e-05
5.63673e-07
6.97424e-05
5.35817e-07
6.95401e-05
5.09231e-07
6.93392e-05
4.84102e-07
6.91406e-05
4.60665e-07
6.8945e-05
4.39375e-07
6.87532e-05
4.20783e-07
6.85661e-05
4.06543e-07
6.8389e-05
3.97317e-07
6.82279e-05
4.00093e-07
6.81327e-05
4.01922e-07
4.31492e-07
6.82009e-05
7.22817e-05
-5.12109e-08
7.23969e-05
1.87104e-07
7.25019e-05
3.65452e-07
7.25887e-05
5.32863e-07
7.26723e-05
6.41839e-07
7.27547e-05
7.09424e-07
7.28413e-05
7.52508e-07
7.29286e-05
7.80144e-07
7.30124e-05
7.95506e-07
7.30903e-05
8.01144e-07
7.31607e-05
7.99011e-07
7.32226e-05
7.90678e-07
7.32758e-05
7.77423e-07
7.33203e-05
7.6036e-07
7.33564e-05
7.40431e-07
7.33845e-05
7.1842e-07
7.34051e-05
6.94979e-07
7.34188e-05
6.70639e-07
7.34262e-05
6.4583e-07
7.34279e-05
6.20896e-07
7.34244e-05
5.96118e-07
7.34164e-05
5.71726e-07
7.34043e-05
5.47921e-07
7.33886e-05
5.24894e-07
7.33698e-05
5.02865e-07
7.33484e-05
4.82093e-07
7.33248e-05
4.63009e-07
7.32995e-05
4.4606e-07
7.32736e-05
4.32484e-07
7.32487e-05
4.22218e-07
7.32288e-05
4.1999e-07
7.32155e-05
4.15173e-07
4.36136e-07
7.32109e-05
7.45185e-05
-4.31183e-08
7.44883e-05
2.17324e-07
7.4477e-05
3.76752e-07
7.45168e-05
4.93066e-07
7.45774e-05
5.81258e-07
7.46441e-05
6.42711e-07
7.47104e-05
6.86203e-07
7.47748e-05
7.15787e-07
7.48369e-05
7.33414e-07
7.48966e-05
7.41449e-07
7.49536e-05
7.41916e-07
7.5008e-05
7.36371e-07
7.50593e-05
7.26057e-07
7.51077e-05
7.12029e-07
7.51529e-05
6.95164e-07
7.51952e-05
6.76187e-07
7.52344e-05
6.55695e-07
7.52709e-05
6.3418e-07
7.53047e-05
6.12041e-07
7.5336e-05
5.89605e-07
7.5365e-05
5.67137e-07
7.53918e-05
5.44861e-07
7.54168e-05
5.22975e-07
7.544e-05
5.01666e-07
7.54617e-05
4.81139e-07
7.54822e-05
4.6162e-07
7.55018e-05
4.43448e-07
7.55209e-05
4.26911e-07
7.55407e-05
4.12718e-07
7.55624e-05
4.00517e-07
7.55905e-05
3.91901e-07
7.56255e-05
3.80101e-07
3.69913e-07
7.56918e-05
7.66036e-05
9.15906e-09
7.66284e-05
1.92534e-07
7.6665e-05
3.40122e-07
7.67034e-05
4.5468e-07
7.67421e-05
5.42568e-07
7.6782e-05
6.02795e-07
7.68244e-05
6.43818e-07
7.68688e-05
6.71347e-07
7.69142e-05
6.87979e-07
7.69598e-05
6.95859e-07
7.7005e-05
6.96752e-07
7.70493e-05
6.92025e-07
7.70926e-05
6.82797e-07
7.71346e-05
6.70025e-07
7.71753e-05
6.54512e-07
7.72145e-05
6.36926e-07
7.72524e-05
6.17824e-07
7.72889e-05
5.97664e-07
7.73241e-05
5.76821e-07
7.73581e-05
5.55603e-07
7.7391e-05
5.34262e-07
7.74229e-05
5.1301e-07
7.74538e-05
4.92032e-07
7.7484e-05
4.71499e-07
7.75135e-05
4.51588e-07
7.75427e-05
4.32475e-07
7.75717e-05
4.14389e-07
7.76012e-05
3.97469e-07
7.76319e-05
3.82019e-07
7.76649e-05
3.67506e-07
7.77026e-05
3.54208e-07
7.7745e-05
3.37644e-07
3.19315e-07
7.77956e-05
7.88312e-05
2.38614e-08
7.8839e-05
1.84794e-07
7.88573e-05
3.2178e-07
7.88864e-05
4.25555e-07
7.89231e-05
5.05901e-07
7.89627e-05
5.63217e-07
7.90033e-05
6.03214e-07
7.90442e-05
6.30406e-07
7.90851e-05
6.47082e-07
7.91258e-05
6.55214e-07
7.9166e-05
6.56521e-07
7.92057e-05
6.52355e-07
7.92446e-05
6.43809e-07
7.92829e-05
6.31804e-07
7.93203e-05
6.1711e-07
7.93568e-05
6.00365e-07
7.93926e-05
5.82097e-07
7.94275e-05
5.62743e-07
7.94616e-05
5.4266e-07
7.94951e-05
5.2214e-07
7.95279e-05
5.01425e-07
7.95602e-05
4.80714e-07
7.95921e-05
4.60178e-07
7.96236e-05
4.39968e-07
7.9655e-05
4.20226e-07
7.96864e-05
4.01076e-07
7.97181e-05
3.82645e-07
7.97506e-05
3.64955e-07
7.97846e-05
3.48028e-07
7.98208e-05
3.31293e-07
7.98607e-05
3.14366e-07
7.99039e-05
2.94396e-07
2.7098e-07
7.99523e-05
8.10848e-05
3.76176e-08
8.10949e-05
1.74677e-07
8.11186e-05
2.98086e-07
8.11496e-05
3.94586e-07
8.11846e-05
4.70868e-07
8.1221e-05
5.26781e-07
8.12582e-05
5.66095e-07
8.12958e-05
5.92811e-07
8.13335e-05
6.0931e-07
8.13712e-05
6.17522e-07
8.14086e-05
6.19097e-07
8.14457e-05
6.15339e-07
8.14822e-05
6.07302e-07
8.15181e-05
5.95869e-07
8.15534e-05
5.81778e-07
8.15882e-05
5.65641e-07
8.16223e-05
5.47965e-07
8.16559e-05
5.29169e-07
8.16889e-05
5.09596e-07
8.17215e-05
4.89527e-07
8.17538e-05
4.6919e-07
8.17857e-05
4.48775e-07
8.18175e-05
4.28436e-07
8.18491e-05
4.08304e-07
8.18809e-05
3.88489e-07
8.19129e-05
3.69065e-07
8.19454e-05
3.50082e-07
8.19789e-05
3.31476e-07
8.20138e-05
3.13117e-07
8.20507e-05
2.94462e-07
8.20901e-05
2.74938e-07
8.21317e-05
2.52743e-07
2.27202e-07
8.21755e-05
8.34101e-05
4.30225e-08
8.34202e-05
1.64607e-07
8.34413e-05
2.77027e-07
8.34691e-05
3.66743e-07
8.35019e-05
4.38111e-07
8.35371e-05
4.91537e-07
8.35735e-05
5.29709e-07
8.36104e-05
5.5593e-07
8.36473e-05
5.72375e-07
8.3684e-05
5.80796e-07
8.37204e-05
5.82728e-07
8.37563e-05
5.79419e-07
8.37917e-05
5.71891e-07
8.38266e-05
5.60997e-07
8.38609e-05
5.47451e-07
8.38947e-05
5.31847e-07
8.3928e-05
5.14674e-07
8.39609e-05
4.96337e-07
8.39933e-05
4.77168e-07
8.40254e-05
4.57437e-07
8.40572e-05
4.37363e-07
8.40889e-05
4.17124e-07
8.41204e-05
3.96861e-07
8.4152e-05
3.76686e-07
8.41839e-05
3.56677e-07
8.4216e-05
3.36874e-07
8.42489e-05
3.1727e-07
8.42826e-05
2.97757e-07
8.43176e-05
2.78134e-07
8.43541e-05
2.5793e-07
8.43924e-05
2.36592e-07
8.44322e-05
2.12991e-07
1.86575e-07
8.44728e-05
8.57964e-05
4.53686e-08
8.58064e-05
1.54619e-07
8.58268e-05
2.56569e-07
8.58539e-05
3.39673e-07
8.58856e-05
4.06397e-07
8.59198e-05
4.57305e-07
8.59553e-05
4.9424e-07
8.59914e-05
5.19853e-07
8.60276e-05
5.36118e-07
8.60638e-05
5.4465e-07
8.60996e-05
5.46875e-07
8.61351e-05
5.43975e-07
8.61701e-05
5.36925e-07
8.62045e-05
5.26544e-07
8.62384e-05
5.13515e-07
8.62719e-05
4.98412e-07
8.63048e-05
4.81706e-07
8.63374e-05
4.63788e-07
8.63696e-05
4.44979e-07
8.64015e-05
4.25538e-07
8.64332e-05
4.05677e-07
8.64647e-05
3.85562e-07
8.64963e-05
3.65322e-07
8.65279e-05
3.4505e-07
8.65598e-05
3.24806e-07
8.6592e-05
3.04602e-07
8.66249e-05
2.84399e-07
8.66586e-05
2.64072e-07
8.66933e-05
2.4341e-07
8.67292e-05
2.22031e-07
8.67663e-05
1.99485e-07
8.68042e-05
1.7508e-07
1.48477e-07
8.68423e-05
8.82501e-05
4.52459e-08
8.82603e-05
1.44449e-07
8.82798e-05
2.37075e-07
8.83055e-05
3.13959e-07
8.83358e-05
3.76148e-07
8.83688e-05
4.24248e-07
8.84034e-05
4.59611e-07
8.84389e-05
4.84367e-07
8.84748e-05
5.00273e-07
8.85106e-05
5.08793e-07
8.85463e-05
5.11226e-07
8.85816e-05
5.08675e-07
8.86164e-05
5.02058e-07
8.86508e-05
4.92153e-07
8.86847e-05
4.79614e-07
8.87182e-05
4.64987e-07
8.87511e-05
4.48726e-07
8.87837e-05
4.31208e-07
8.8816e-05
4.1274e-07
8.88479e-05
3.93573e-07
8.88797e-05
3.73907e-07
8.89114e-05
3.53899e-07
8.8943e-05
3.33668e-07
8.89748e-05
3.13295e-07
8.90067e-05
2.92823e-07
8.90391e-05
2.7225e-07
8.9072e-05
2.51525e-07
8.91055e-05
2.30526e-07
8.91399e-05
2.09063e-07
8.91751e-05
1.86845e-07
8.9211e-05
1.63543e-07
8.92473e-05
1.38747e-07
1.12297e-07
8.92835e-05
9.07728e-05
4.37469e-08
9.07829e-05
1.34309e-07
9.08015e-05
2.18485e-07
9.08261e-05
2.89354e-07
9.08552e-05
3.47085e-07
9.08872e-05
3.92232e-07
9.0921e-05
4.25818e-07
9.09558e-05
4.49532e-07
9.09912e-05
4.64909e-07
9.10267e-05
4.73265e-07
9.10622e-05
4.75781e-07
9.10974e-05
4.73476e-07
9.11322e-05
4.67212e-07
9.11667e-05
4.57721e-07
9.12007e-05
4.45622e-07
9.12342e-05
4.31433e-07
9.12673e-05
4.15589e-07
9.13001e-05
3.98449e-07
9.13325e-05
3.80307e-07
9.13647e-05
3.61403e-07
9.13967e-05
3.41928e-07
9.14286e-05
3.22029e-07
9.14604e-05
3.01816e-07
9.14923e-05
2.81362e-07
9.15245e-05
2.607e-07
9.15569e-05
2.39823e-07
9.15897e-05
2.18681e-07
9.16231e-05
1.97168e-07
9.1657e-05
1.75133e-07
9.16915e-05
1.52365e-07
9.17264e-05
1.28646e-07
9.17614e-05
1.03747e-07
7.76306e-08
9.17961e-05
9.3367e-05
4.14166e-08
9.33771e-05
1.24224e-07
9.33948e-05
2.0072e-07
9.34184e-05
2.65821e-07
9.34462e-05
3.192e-07
9.34772e-05
3.61299e-07
9.35101e-05
3.92917e-07
9.35442e-05
4.15397e-07
9.35791e-05
4.30068e-07
9.36142e-05
4.38104e-07
9.36494e-05
4.4057e-07
9.36845e-05
4.38402e-07
9.37193e-05
4.324e-07
9.37538e-05
4.23248e-07
9.37879e-05
4.11527e-07
9.38216e-05
3.9773e-07
9.38549e-05
3.82266e-07
9.38879e-05
3.65477e-07
9.39206e-05
3.47644e-07
9.3953e-05
3.28994e-07
9.39852e-05
3.09708e-07
9.40173e-05
2.89927e-07
9.40493e-05
2.69753e-07
9.40815e-05
2.49251e-07
9.41137e-05
2.28454e-07
9.41462e-05
2.07355e-07
9.41789e-05
1.85912e-07
9.42121e-05
1.64046e-07
9.42456e-05
1.41643e-07
9.42794e-05
1.18565e-07
9.43133e-05
9.4679e-08
9.43472e-05
6.98726e-08
4.41865e-08
9.43806e-05
9.60349e-05
3.86368e-08
9.60448e-05
1.14282e-07
9.60618e-05
1.83728e-07
9.60843e-05
2.43287e-07
9.61111e-05
2.92403e-07
9.6141e-05
3.31394e-07
9.61731e-05
3.60897e-07
9.62065e-05
3.81986e-07
9.62407e-05
3.95797e-07
9.62755e-05
4.0337e-07
9.63104e-05
4.05659e-07
9.63453e-05
4.03516e-07
9.638e-05
3.9768e-07
9.64144e-05
3.88787e-07
9.64486e-05
3.7738e-07
9.64824e-05
3.63921e-07
9.65159e-05
3.48796e-07
9.6549e-05
3.32329e-07
9.65819e-05
3.14784e-07
9.66145e-05
2.96379e-07
9.66469e-05
2.77285e-07
9.66792e-05
2.57635e-07
9.67114e-05
2.37525e-07
9.67437e-05
2.1702e-07
9.6776e-05
1.9615e-07
9.68084e-05
1.74916e-07
9.6841e-05
1.5329e-07
9.68739e-05
1.31218e-07
9.69069e-05
1.08625e-07
9.694e-05
8.543e-08
9.69731e-05
6.15644e-08
9.7006e-05
3.69883e-08
1.17851e-08
9.70384e-05
9.87787e-05
3.56354e-08
9.87885e-05
1.04536e-07
9.88048e-05
1.67445e-07
9.88264e-05
2.21683e-07
9.88521e-05
2.66627e-07
9.8881e-05
3.02481e-07
9.89122e-05
3.29758e-07
9.89449e-05
3.49321e-07
9.89785e-05
3.62132e-07
9.90128e-05
3.69108e-07
9.90473e-05
3.71099e-07
9.9082e-05
3.68876e-07
9.91165e-05
3.63114e-07
9.91509e-05
3.54402e-07
9.91851e-05
3.43244e-07
9.92189e-05
3.30071e-07
9.92525e-05
3.15245e-07
9.92857e-05
2.9907e-07
9.93187e-05
2.81797e-07
9.93515e-05
2.6363e-07
9.9384e-05
2.44733e-07
9.94164e-05
2.25231e-07
9.94487e-05
2.05217e-07
9.9481e-05
1.84755e-07
9.95133e-05
1.63879e-07
9.95456e-05
1.42599e-07
9.9578e-05
1.20902e-07
9.96104e-05
9.87583e-08
9.96429e-05
7.61275e-08
9.96754e-05
5.29704e-08
9.97077e-05
2.92652e-08
9.97397e-05
5.01628e-09
-1.96722e-08
9.97711e-05
0.000101601
3.25528e-08
0.00010161
9.50294e-08
0.000101626
1.51817e-07
0.000101647
2.00944e-07
0.000101672
2.41805e-07
0.0001017
2.74513e-07
0.00010173
2.99479e-07
0.000101762
3.17401e-07
0.000101795
3.29092e-07
0.000101828
3.35351e-07
0.000101863
3.36934e-07
0.000101897
3.34531e-07
0.000101931
3.28759e-07
0.000101966
3.20155e-07
0.000102
3.09185e-07
0.000102033
2.96249e-07
0.000102067
2.81685e-07
0.0001021
2.65777e-07
0.000102133
2.48762e-07
0.000102166
2.30831e-07
0.000102199
2.1214e-07
0.000102231
1.92808e-07
0.000102263
1.72927e-07
0.000102296
1.5256e-07
0.000102328
1.31748e-07
0.00010236
1.10508e-07
0.000102392
8.8845e-08
0.000102424
6.6749e-08
0.000102456
4.4208e-08
0.000102488
2.12145e-08
0.000102519
-2.2222e-09
0.00010255
-2.60714e-08
-5.02215e-08
0.000102581
0.000104503
2.9471e-08
0.000104513
8.57887e-08
0.000104528
1.36796e-07
0.000104548
1.81007e-07
0.000104572
2.17873e-07
0.000104599
2.47439e-07
0.000104628
2.70033e-07
0.000104659
2.86221e-07
0.000104692
2.96687e-07
0.000104725
3.02124e-07
0.000104759
3.03198e-07
0.000104793
3.00525e-07
0.000104827
2.94662e-07
0.000104861
2.86099e-07
0.000104895
2.75262e-07
0.000104929
2.6252e-07
0.000104962
2.48187e-07
0.000104995
2.32526e-07
0.000105028
2.1576e-07
0.000105061
1.98068e-07
0.000105094
1.79597e-07
0.000105126
1.60464e-07
0.000105158
1.40757e-07
0.00010519
1.20541e-07
0.000105222
9.9861e-08
0.000105254
7.87466e-08
0.000105285
5.72138e-08
0.000105317
3.52723e-08
0.000105348
1.29309e-08
0.000105379
-9.79534e-09
0.00010541
-3.28767e-08
0.00010544
-5.6268e-08
-7.98575e-08
0.00010547
0.000107489
2.64366e-08
0.000107498
7.68282e-08
0.000107512
1.22339e-07
0.000107532
1.61812e-07
0.000107555
1.94771e-07
0.000107581
2.2121e-07
0.00010761
2.41388e-07
0.00010764
2.55766e-07
0.000107672
2.64918e-07
0.000107705
2.6944e-07
0.000107738
2.69916e-07
0.000107771
2.66892e-07
0.000107805
2.60867e-07
0.000107839
2.52284e-07
0.000107873
2.41531e-07
0.000107906
2.28946e-07
0.00010794
2.14818e-07
0.000107973
1.9939e-07
0.000108006
1.82869e-07
0.000108038
1.65425e-07
0.000108071
1.47196e-07
0.000108103
1.28293e-07
0.000108135
1.08805e-07
0.000108167
8.87967e-08
0.000108198
6.83201e-08
0.00010823
4.74119e-08
0.000108261
2.61003e-08
0.000108292
4.40914e-09
0.000108322
-1.7637e-08
0.000108352
-4.00075e-08
0.000108382
-6.26601e-08
0.000108411
-8.55425e-08
-1.08546e-07
0.00010844
0.00011056
2.34741e-08
0.000110569
6.81518e-08
0.000110582
1.08406e-07
0.000110601
1.43306e-07
0.000110623
1.72441e-07
0.000110649
1.95776e-07
0.000110677
2.13509e-07
0.000110706
2.26018e-07
0.000110737
2.3378e-07
0.00011077
2.37307e-07
0.000110802
2.37107e-07
0.000110836
2.33661e-07
0.000110869
2.27411e-07
0.000110903
2.18755e-07
0.000110936
2.08044e-07
0.000110969
1.95585e-07
0.000111003
1.81641e-07
0.000111036
1.66439e-07
0.000111068
1.50167e-07
0.000111101
1.32984e-07
0.000111133
1.15022e-07
0.000111165
9.63874e-08
0.000111196
7.71655e-08
0.000111228
5.74252e-08
0.000111259
3.72211e-08
0.00011129
1.65975e-08
0.00011132
-4.40838e-09
0.00011135
-2.57619e-08
0.00011138
-4.74272e-08
0.00011141
-6.93638e-08
0.000111438
-9.1522e-08
0.000111467
-1.13847e-07
-1.36235e-07
0.000111494
0.000113718
2.05949e-08
0.000113727
5.97555e-08
0.00011374
9.49598e-08
0.000113758
1.25435e-07
0.00011378
1.5083e-07
0.000113804
1.71087e-07
0.000113832
1.86359e-07
0.000113861
1.96951e-07
0.000113891
2.03262e-07
0.000113923
2.05727e-07
0.000113955
2.04784e-07
0.000113988
2.00853e-07
0.000114021
1.94324e-07
0.000114054
1.85551e-07
0.000114087
1.74847e-07
0.00011412
1.6249e-07
0.000114153
1.48719e-07
0.000114186
1.33739e-07
0.000114218
1.17725e-07
0.000114251
1.00824e-07
0.000114282
8.31593e-08
0.000114314
6.48331e-08
0.000114345
4.59293e-08
0.000114376
2.65173e-08
0.000114407
6.65485e-09
0.000114437
-1.36086e-08
0.000114467
-3.42287e-08
0.000114496
-5.51635e-08
0.000114525
-7.63697e-08
0.000114554
-9.78004e-08
0.000114581
-1.19403e-07
0.000114609
-1.41121e-07
-1.62859e-07
0.000114635
0.000116967
1.78025e-08
0.000116975
5.16299e-08
0.000116988
8.19658e-08
0.000117006
1.08152e-07
0.000117026
1.29884e-07
0.00011705
1.47095e-07
0.000117077
1.59897e-07
0.000117105
1.68538e-07
0.000117135
1.73348e-07
0.000117166
1.74695e-07
0.000117198
1.72952e-07
0.000117231
1.68485e-07
0.000117263
1.61632e-07
0.000117296
1.52705e-07
0.000117329
1.41983e-07
0.000117362
1.29711e-07
0.000117394
1.16106e-07
0.000117427
1.01353e-07
0.000117459
8.56118e-08
0.000117491
6.90178e-08
0.000117522
5.16861e-08
0.000117553
3.37134e-08
0.000117584
1.51814e-08
0.000117614
-3.84052e-09
0.000117644
-2.32927e-08
0.000117674
-4.31221e-08
0.000117703
-6.32801e-08
0.000117731
-8.37195e-08
0.000117759
-1.04393e-07
0.000117787
-1.25249e-07
0.000117814
-1.46236e-07
0.00011784
-1.67298e-07
-1.88344e-07
0.000117865
0.000120309
1.50961e-08
0.000120317
4.3762e-08
0.000120329
6.93905e-08
0.000120346
9.141e-08
0.000120366
1.09553e-07
0.00012039
1.23749e-07
0.000120415
1.34081e-07
0.000120443
1.40746e-07
0.000120473
1.44016e-07
0.000120503
1.44199e-07
0.000120534
1.41613e-07
0.000120566
1.36568e-07
0.000120599
1.29356e-07
0.000120631
1.20248e-07
0.000120664
1.09488e-07
0.000120696
9.72937e-08
0.000120728
8.38558e-08
0.00012076
6.93411e-08
0.000120792
5.38934e-08
0.000120823
3.76367e-08
0.000120854
2.06775e-08
0.000120885
3.10668e-09
0.000120915
-1.49972e-08
0.000120945
-3.3566e-08
0.000120974
-5.25394e-08
0.000121003
-7.18625e-08
0.000121031
-9.14842e-08
0.000121059
-1.11355e-07
0.000121086
-1.31424e-07
0.000121112
-1.5164e-07
0.000121138
-1.7195e-07
0.000121163
-1.92303e-07
-2.12611e-07
0.000121187
0.000123746
1.24721e-08
0.000123753
3.61366e-08
0.000123766
5.72021e-08
0.000123782
7.51648e-08
0.000123802
8.97879e-08
0.000123824
1.01002e-07
0.00012385
1.08866e-07
0.000123877
1.13538e-07
0.000123906
1.1524e-07
0.000123936
1.14224e-07
0.000123966
1.10759e-07
0.000123998
1.05103e-07
0.00012403
9.75067e-08
0.000124062
8.81998e-08
0.000124094
7.7393e-08
0.000124126
6.52752e-08
0.000124158
5.20137e-08
0.000124189
3.77553e-08
0.000124221
2.26286e-08
0.000124251
6.74534e-09
0.000124282
-9.79707e-09
0.000124312
-2.6914e-08
0.000124341
-4.4531e-08
0.000124371
-6.25822e-08
0.000124399
-8.10079e-08
0.000124427
-9.97531e-08
0.000124454
-1.18766e-07
0.000124481
-1.37995e-07
0.000124507
-1.5739e-07
0.000124532
-1.769e-07
0.000124557
-1.96473e-07
0.00012458
-2.1606e-07
-2.3558e-07
0.000124603
0.000127281
9.92571e-09
0.000127288
2.87367e-08
0.0001273
4.5368e-08
0.000127316
5.93717e-08
0.000127335
7.05358e-08
0.000127358
7.8798e-08
0.000127382
8.42012e-08
0.000127409
8.68695e-08
0.000127437
8.69815e-08
0.000127467
8.47426e-08
0.000127497
8.03748e-08
0.000127528
7.40891e-08
0.000127559
6.6092e-08
0.000127591
5.65776e-08
0.000127623
4.57233e-08
0.000127654
3.36899e-08
0.000127686
2.06214e-08
0.000127717
6.64465e-09
0.000127748
-8.12768e-09
0.000127778
-2.35961e-08
0.000127808
-3.96728e-08
0.000127837
-5.62803e-08
0.000127866
-7.33492e-08
0.000127894
-9.08166e-08
0.000127922
-1.08625e-07
0.000127949
-1.26721e-07
0.000127975
-1.45051e-07
0.000128001
-1.63567e-07
0.000128025
-1.82219e-07
0.00012805
-2.00956e-07
0.000128073
-2.1973e-07
0.000128095
-2.38492e-07
-2.57169e-07
0.000128117
0.000130917
7.45292e-09
0.000130925
2.15488e-08
0.000130936
3.38634e-08
0.000130951
4.39955e-08
0.00013097
5.17517e-08
0.000130992
5.70872e-08
0.000131016
6.00354e-08
0.000131042
6.06922e-08
0.00013107
5.91995e-08
0.000131099
5.57179e-08
0.000131129
5.04324e-08
0.00013116
4.3505e-08
0.000131191
3.51025e-08
0.000131222
2.53822e-08
0.000131253
1.44898e-08
0.000131284
2.55756e-09
0.000131315
-1.02921e-08
0.000131346
-2.39542e-08
0.000131376
-3.83315e-08
0.000131406
-5.33373e-08
0.000131435
-6.88944e-08
0.000131463
-8.49327e-08
0.000131492
-1.01389e-07
0.000131519
-1.18204e-07
0.000131546
-1.35324e-07
0.000131572
-1.52697e-07
0.000131597
-1.70274e-07
0.000131621
-1.88004e-07
0.000131645
-2.05842e-07
0.000131668
-2.23739e-07
0.00013169
-2.41648e-07
0.000131711
-2.59526e-07
-2.77301e-07
0.000131731
0.000134658
5.04474e-09
0.000134665
1.45493e-08
0.000134676
2.26461e-08
0.000134691
2.8981e-08
0.000134709
3.33707e-08
0.00013473
3.58024e-08
0.000134754
3.63024e-08
0.00013478
3.49456e-08
0.000134807
3.18408e-08
0.000134836
2.71108e-08
0.000134865
2.09095e-08
0.000134896
1.33366e-08
0.000134926
4.53425e-09
0.000134957
-5.38117e-09
0.000134988
-1.62945e-08
0.000135018
-2.80985e-08
0.000135049
-4.06979e-08
0.000135079
-5.40055e-08
0.000135108
-6.79411e-08
0.000135138
-8.24317e-08
0.000135166
-9.74106e-08
0.000135194
-1.12816e-07
0.000135221
-1.28592e-07
0.000135248
-1.44685e-07
0.000135273
-1.61044e-07
0.000135298
-1.77621e-07
0.000135322
-1.94369e-07
0.000135346
-2.11242e-07
0.000135368
-2.28195e-07
0.000135389
-2.45182e-07
0.00013541
-2.62159e-07
0.000135429
-2.79087e-07
-2.95898e-07
0.000135448
0.000138505
2.71317e-09
0.000138511
7.75541e-09
0.000138522
1.17361e-08
0.000138537
1.4328e-08
0.000138555
1.53562e-08
0.000138576
1.48895e-08
0.000138599
1.29345e-08
0.000138625
9.5562e-09
0.000138652
4.82966e-09
0.00013868
-1.18133e-09
0.000138709
-8.27548e-09
0.000138739
-1.64827e-08
0.000138769
-2.56687e-08
0.000138799
-3.57538e-08
0.00013883
-4.66543e-08
0.00013886
-5.82923e-08
0.00013889
-7.05962e-08
0.000138919
-8.34985e-08
0.000138948
-9.69363e-08
0.000138977
-1.1085e-07
0.000139005
-1.25186e-07
0.000139032
-1.3989e-07
0.000139058
-1.54914e-07
0.000139084
-1.7021e-07
0.000139108
-1.85732e-07
0.000139132
-2.01437e-07
0.000139155
-2.17281e-07
0.000139177
-2.33221e-07
0.000139198
-2.49215e-07
0.000139218
-2.65222e-07
0.000139237
-2.81201e-07
0.000139255
-2.97114e-07
-3.12899e-07
0.000139272
0.000142462
4.02374e-10
0.000142468
1.06639e-09
0.000142479
9.92846e-10
0.000142493
-4.12513e-11
0.000142511
-2.38376e-09
0.000142532
-5.73642e-09
0.000142555
-1.01441e-08
0.00014258
-1.55429e-08
0.000142607
-2.1879e-08
0.000142635
-2.90998e-08
0.000142663
-3.71319e-08
0.000142693
-4.59534e-08
0.000142723
-5.55015e-08
0.000142753
-6.57259e-08
0.000142783
-7.65775e-08
0.000142812
-8.80072e-08
0.000142842
-9.99671e-08
0.000142871
-1.1241e-07
0.000142899
-1.25291e-07
0.000142927
-1.38564e-07
0.000142954
-1.52188e-07
0.00014298
-1.66119e-07
0.000143005
-1.80316e-07
0.00014303
-1.94739e-07
0.000143053
-2.09348e-07
0.000143076
-2.24103e-07
0.000143098
-2.38966e-07
0.000143118
-2.53897e-07
0.000143138
-2.68858e-07
0.000143157
-2.83812e-07
0.000143174
-2.9872e-07
0.000143191
-3.13548e-07
-3.28238e-07
0.000143206
0.000146531
-1.70828e-09
0.000146538
-5.22641e-09
0.000146548
-9.29329e-09
0.000146562
-1.41666e-08
0.00014658
-1.98543e-08
0.0001466
-2.61849e-08
0.000146623
-3.31045e-08
0.000146648
-4.05607e-08
0.000146675
-4.85197e-08
0.000146703
-5.69681e-08
0.000146731
-6.58858e-08
0.000146761
-7.5275e-08
0.00014679
-8.51274e-08
0.00014682
-9.543e-08
0.00014685
-1.06167e-07
0.000146879
-1.17319e-07
0.000146908
-1.28861e-07
0.000146936
-1.4077e-07
0.000146964
-1.53016e-07
0.000146991
-1.6557e-07
0.000147017
-1.78401e-07
0.000147042
-1.91477e-07
0.000147067
-2.04766e-07
0.00014709
-2.18234e-07
0.000147113
-2.31847e-07
0.000147134
-2.45571e-07
0.000147155
-2.59373e-07
0.000147174
-2.73217e-07
0.000147192
-2.87069e-07
0.000147209
-3.00896e-07
0.000147225
-3.14662e-07
0.00014724
-3.28339e-07
-3.41873e-07
0.000147254
0.000150718
-4.11184e-09
0.000150725
-1.17403e-08
0.000150735
-1.96868e-08
0.000150749
-2.8176e-08
0.000150766
-3.71326e-08
0.000150786
-4.63728e-08
0.000150809
-5.57791e-08
0.000150834
-6.52865e-08
0.00015086
-7.4873e-08
0.000150888
-8.45514e-08
0.000150916
-9.43469e-08
0.000150945
-1.04297e-07
0.000150975
-1.14436e-07
0.000151004
-1.24787e-07
0.000151033
-1.3537e-07
0.000151062
-1.46195e-07
0.00015109
-1.57264e-07
0.000151118
-1.68574e-07
0.000151145
-1.80117e-07
0.000151172
-1.91878e-07
0.000151197
-2.03839e-07
0.000151222
-2.1598e-07
0.000151245
-2.28278e-07
0.000151268
-2.40707e-07
0.000151289
-2.5324e-07
0.000151309
-2.65851e-07
0.000151328
-2.78508e-07
0.000151346
-2.91183e-07
0.000151363
-3.03847e-07
0.000151379
-3.16467e-07
0.000151393
-3.29016e-07
0.000151406
-3.41464e-07
-3.53764e-07
0.000151418
0.000155023
-5.37977e-09
0.000155028
-1.6919e-08
0.000155037
-2.90481e-08
0.000155051
-4.17663e-08
0.000155068
-5.45706e-08
0.000155089
-6.70928e-08
0.000155113
-7.91669e-08
0.000155138
-9.07597e-08
0.000155165
-1.01914e-07
0.000155193
-1.12711e-07
0.000155222
-1.23243e-07
0.000155251
-1.33603e-07
0.000155281
-1.43876e-07
0.00015531
-1.54131e-07
0.000155339
-1.64423e-07
0.000155368
-1.74792e-07
0.000155396
-1.85267e-07
0.000155423
-1.95865e-07
0.00015545
-2.06596e-07
0.000155475
-2.1746e-07
0.0001555
-2.28452e-07
0.000155523
-2.39562e-07
0.000155546
-2.50776e-07
0.000155567
-2.62076e-07
0.000155587
-2.73442e-07
0.000155607
-2.84852e-07
0.000155624
-2.96283e-07
0.000155641
-3.07709e-07
0.000155656
-3.19106e-07
0.00015567
-3.30448e-07
0.000155683
-3.41708e-07
0.000155694
-3.52863e-07
-3.63871e-07
0.000155704
0.000159454
-9.13538e-09
0.000159461
-2.38537e-08
0.000159471
-3.91157e-08
0.000159485
-5.50008e-08
0.000159501
-7.10394e-08
0.000159521
-8.66482e-08
0.000159543
-1.01449e-07
0.000159567
-1.15299e-07
0.000159594
-1.28218e-07
0.000159621
-1.40313e-07
0.00015965
-1.51722e-07
0.000159679
-1.62593e-07
0.000159708
-1.73062e-07
0.000159737
-1.83244e-07
0.000159766
-1.93239e-07
0.000159794
-2.03122e-07
0.000159822
-2.12952e-07
0.000159849
-2.22774e-07
0.000159875
-2.32617e-07
0.0001599
-2.42501e-07
0.000159924
-2.52434e-07
0.000159947
-2.62419e-07
0.000159968
-2.72453e-07
0.000159989
-2.82527e-07
0.000160008
-2.92629e-07
0.000160026
-3.02744e-07
0.000160043
-3.12854e-07
0.000160058
-3.22939e-07
0.000160072
-3.32979e-07
0.000160084
-3.42952e-07
0.000160095
-3.52837e-07
0.000160105
-3.62612e-07
-3.72241e-07
0.000160113
0.000164003
-6.46744e-09
0.000164005
-2.54893e-08
0.000164013
-4.69452e-08
0.000164027
-6.91118e-08
0.000164046
-9.0267e-08
0.000164069
-1.09662e-07
0.000164095
-1.27159e-07
0.000164123
-1.42874e-07
0.000164151
-1.57028e-07
0.000164181
-1.69867e-07
0.000164211
-1.81635e-07
0.000164241
-1.92555e-07
0.000164271
-2.02823e-07
0.0001643
-2.12601e-07
0.000164329
-2.22021e-07
0.000164357
-2.31186e-07
0.000164384
-2.40179e-07
0.00016441
-2.4906e-07
0.000164436
-2.57874e-07
0.00016446
-2.66653e-07
0.000164483
-2.75417e-07
0.000164504
-2.84178e-07
0.000164525
-2.9294e-07
0.000164544
-3.01702e-07
0.000164562
-3.10458e-07
0.000164578
-3.192e-07
0.000164593
-3.27914e-07
0.000164607
-3.36587e-07
0.000164619
-3.45202e-07
0.00016463
-3.53743e-07
0.000164639
-3.62193e-07
0.000164647
-3.70534e-07
-3.78734e-07
0.000164654
0.000168701
-1.58344e-08
0.000168709
-3.34053e-08
0.000168717
-5.44012e-08
0.000168726
-7.84002e-08
0.000168739
-1.034e-07
0.000168756
-1.27171e-07
0.000168778
-1.48564e-07
0.000168802
-1.67373e-07
0.000168829
-1.83825e-07
0.000168858
-1.98255e-07
0.000168887
-2.1101e-07
0.000168917
-2.22421e-07
0.000168947
-2.32774e-07
0.000168976
-2.4231e-07
0.000169006
-2.51224e-07
0.000169034
-2.59673e-07
0.000169062
-2.67778e-07
0.000169088
-2.75635e-07
0.000169114
-2.83313e-07
0.000169138
-2.90865e-07
0.000169161
-2.98329e-07
0.000169182
-3.05731e-07
0.000169203
-3.13085e-07
0.000169221
-3.204e-07
0.000169238
-3.2768e-07
0.000169254
-3.34921e-07
0.000169268
-3.42117e-07
0.000169281
-3.4926e-07
0.000169292
-3.56338e-07
0.000169302
-3.63339e-07
0.00016931
-3.70249e-07
0.000169316
-3.77055e-07
-3.83731e-07
0.000169321
0.000173491
4.17819e-09
0.000173485
-2.69428e-08
0.000173494
-6.34713e-08
0.000173515
-9.91165e-08
0.000173542
-1.30516e-07
0.000173572
-1.57302e-07
0.000173603
-1.80083e-07
0.000173635
-1.99442e-07
0.000173668
-2.15955e-07
0.000173699
-2.30128e-07
0.000173731
-2.42414e-07
0.000173762
-2.53203e-07
0.000173792
-2.62815e-07
0.000173821
-2.71508e-07
0.000173849
-2.79488e-07
0.000173876
-2.8692e-07
0.000173903
-2.93933e-07
0.000173928
-3.00627e-07
0.000173951
-3.07079e-07
0.000173974
-3.13348e-07
0.000173995
-3.19476e-07
0.000174015
-3.25496e-07
0.000174033
-3.31429e-07
0.00017405
-3.37289e-07
0.000174065
-3.43084e-07
0.000174079
-3.48817e-07
0.000174092
-3.54487e-07
0.000174102
-3.60089e-07
0.000174112
-3.65619e-07
0.000174119
-3.71066e-07
0.000174126
-3.76422e-07
0.00017413
-3.81677e-07
-3.86808e-07
0.000174133
0.000178498
-2.48757e-08
0.000178499
-2.87328e-08
0.000178488
-5.19323e-08
0.000178479
-9.02182e-08
0.000178481
-1.32354e-07
0.000178493
-1.69959e-07
0.000178514
-2.00791e-07
0.00017854
-2.25592e-07
0.00017857
-2.45675e-07
0.000178602
-2.62025e-07
0.000178635
-2.75444e-07
0.000178668
-2.86597e-07
0.000178702
-2.96013e-07
0.000178734
-3.04102e-07
0.000178766
-3.11182e-07
0.000178796
-3.17498e-07
0.000178826
-3.23236e-07
0.000178854
-3.28537e-07
0.00017888
-3.33508e-07
0.000178905
-3.3823e-07
0.000178928
-3.42763e-07
0.00017895
-3.47149e-07
0.00017897
-3.51421e-07
0.000178988
-3.55599e-07
0.000179005
-3.59698e-07
0.00017902
-3.63726e-07
0.000179033
-3.67687e-07
0.000179044
-3.71582e-07
0.000179054
-3.75408e-07
0.000179062
-3.79161e-07
0.000179069
-3.82836e-07
0.000179073
-3.86428e-07
-3.89918e-07
0.000179077
0.000183487
5.5873e-08
0.000183465
-6.73844e-09
0.000183501
-8.77768e-08
0.000183551
-1.40874e-07
0.000183601
-1.82291e-07
0.000183646
-2.14611e-07
0.000183686
-2.40582e-07
0.000183722
-2.61997e-07
0.000183756
-2.79573e-07
0.000183788
-2.9402e-07
0.000183818
-3.06002e-07
0.000183848
-3.16035e-07
0.000183876
-3.24516e-07
0.000183904
-3.31764e-07
0.000183931
-3.3803e-07
0.000183957
-3.43516e-07
0.000183982
-3.48378e-07
0.000184006
-3.5274e-07
0.000184029
-3.56701e-07
0.000184052
-3.60337e-07
0.000184072
-3.63708e-07
0.000184092
-3.6686e-07
0.000184111
-3.6983e-07
0.000184128
-3.72645e-07
0.000184143
-3.75327e-07
0.000184157
-3.77889e-07
0.00018417
-3.80344e-07
0.000184181
-3.82698e-07
0.000184191
-3.84954e-07
0.000184199
-3.87114e-07
0.000184205
-3.89177e-07
0.00018421
-3.91139e-07
-3.92991e-07
0.000184213
0.000188861
7.24192e-09
0.000188795
5.88742e-08
0.000188708
-1.3092e-09
0.000188644
-7.65459e-08
0.000188625
-1.63442e-07
0.000188638
-2.2722e-07
0.000188669
-2.71559e-07
0.00018871
-3.03254e-07
0.000188757
-3.26534e-07
0.000188807
-3.43977e-07
0.000188858
-3.57213e-07
0.00018891
-3.67367e-07
0.00018896
-3.75235e-07
0.00018901
-3.81388e-07
0.000189058
-3.86238e-07
0.000189105
-3.90088e-07
0.00018915
-3.93161e-07
0.000189192