/*--------------------------------*- C++ -*----------------------------------*\
| =========                 |                                                 |
| \\      /  F ield         | OpenFOAM: The Open Source CFD Toolbox           |
|  \\    /   O peration     | Version:  2.1.1                                 |
|   \\  /    A nd           | Web:      www.OpenFOAM.org                      |
|    \\/     M anipulation  |                                                 |
\*---------------------------------------------------------------------------*/
FoamFile
{
    version     2.0;
    format      ascii;
    class       volVectorField;
    location    "0.11";
    object      U;
}
// * * * * * * * * * * * * * * * * * * * * * * * * * * * * * * * * * * * * * //

dimensions      [0 1 -1 0 0 0 0];

internalField   nonuniform List<vector> 
6820
(
(8.34337 -0.360078 0)
(8.40112 -0.247164 0)
(8.35617 -0.115305 0)
(8.24794 -0.0365758 0)
(8.1196 0.00598174 0)
(7.98629 0.0278341 0)
(7.85434 0.0385942 0)
(7.72711 0.0432847 0)
(7.60604 0.044547 0)
(7.49167 0.0438377 0)
(7.38422 0.0419984 0)
(7.28373 0.0395333 0)
(7.19008 0.0367533 0)
(7.10306 0.0338541 0)
(7.02239 0.030959 0)
(6.94774 0.0281454 0)
(6.87879 0.0254605 0)
(6.81515 0.022931 0)
(6.75649 0.0205701 0)
(6.70244 0.0183821 0)
(6.65267 0.0163656 0)
(6.60683 0.0145158 0)
(6.56463 0.0128266 0)
(6.52575 0.0112928 0)
(6.48991 0.00991153 0)
(6.45679 0.00868699 0)
(6.42611 0.00763446 0)
(6.39745 0.00680384 0)
(6.37036 0.00628914 0)
(6.34397 0.00636513 0)
(6.31669 0.00785393 0)
(6.28579 0.0113631 0)
(6.24134 0.0298716 0)
(8.32139 0.166247 0)
(8.28709 0.189989 0)
(8.28545 0.132135 0)
(8.31743 0.0958163 0)
(8.36175 0.0749672 0)
(8.40184 0.0622932 0)
(8.43298 0.0547969 0)
(8.45513 0.0502585 0)
(8.46914 0.0473368 0)
(8.47603 0.0453183 0)
(8.47683 0.0438082 0)
(8.47249 0.0425685 0)
(8.46383 0.0414601 0)
(8.4516 0.0404058 0)
(8.43642 0.0393648 0)
(8.41885 0.038318 0)
(8.39937 0.037259 0)
(8.37841 0.0361884 0)
(8.35633 0.0351103 0)
(8.33342 0.0340308 0)
(8.30994 0.0329565 0)
(8.28612 0.0318949 0)
(8.26214 0.030854 0)
(8.23815 0.0298438 0)
(8.21427 0.0288782 0)
(8.19062 0.0279783 0)
(8.16729 0.027182 0)
(8.14431 0.0265582 0)
(8.12196 0.0262319 0)
(8.09997 0.0265323 0)
(8.0806 0.0278256 0)
(8.06113 0.0321846 0)
(8.06328 0.0394323 0)
(8.3225 -0.0608898 0)
(8.31399 -0.0832969 0)
(8.33054 -0.0541212 0)
(8.34439 -0.0203358 0)
(8.35331 0.00235922 0)
(8.36238 0.0164688 0)
(8.37218 0.0256898 0)
(8.38228 0.0318874 0)
(8.39221 0.0360851 0)
(8.40157 0.0389279 0)
(8.41013 0.0408102 0)
(8.41775 0.0419759 0)
(8.42438 0.0425984 0)
(8.43 0.0428086 0)
(8.43463 0.0427055 0)
(8.43832 0.042365 0)
(8.44111 0.0418459 0)
(8.44307 0.0411944 0)
(8.44427 0.0404466 0)
(8.44477 0.0396311 0)
(8.44466 0.0387709 0)
(8.44398 0.0378849 0)
(8.44281 0.0369897 0)
(8.4412 0.036101 0)
(8.43921 0.0352368 0)
(8.43689 0.0344184 0)
(8.43429 0.0336836 0)
(8.43145 0.0330688 0)
(8.4285 0.0327071 0)
(8.42547 0.0325473 0)
(8.4229 0.0332655 0)
(8.42065 0.0329108 0)
(8.42005 0.0356185 0)
(8.33365 0.0145567 0)
(8.32978 0.0476763 0)
(8.32741 0.0539285 0)
(8.32878 0.0465042 0)
(8.33471 0.0409882 0)
(8.34229 0.0384639 0)
(8.34986 0.0376312 0)
(8.35716 0.0375618 0)
(8.36424 0.0377541 0)
(8.37106 0.0379876 0)
(8.37759 0.0381632 0)
(8.38383 0.0382395 0)
(8.38974 0.0382064 0)
(8.39532 0.0380669 0)
(8.40055 0.0378289 0)
(8.40545 0.0375029 0)
(8.41 0.0371005 0)
(8.41424 0.0366334 0)
(8.41816 0.036113 0)
(8.4218 0.0355497 0)
(8.42516 0.0349536 0)
(8.42828 0.0343343 0)
(8.43117 0.0337017 0)
(8.43386 0.0330672 0)
(8.43637 0.032445 0)
(8.43872 0.0318539 0)
(8.44095 0.0313237 0)
(8.44309 0.0308889 0)
(8.44526 0.0306204 0)
(8.44749 0.0305425 0)
(8.45025 0.0308082 0)
(8.45355 0.0310909 0)
(8.45884 0.0318417 0)
(8.3302 -0.00531834 0)
(8.32723 -0.00753092 0)
(8.33141 -0.00249965 0)
(8.33612 0.00796462 0)
(8.34024 0.017117 0)
(8.34446 0.0233098 0)
(8.34894 0.0274668 0)
(8.35367 0.0303997 0)
(8.35858 0.0325096 0)
(8.36355 0.0340286 0)
(8.36849 0.0351013 0)
(8.37337 0.0358219 0)
(8.37813 0.0362565 0)
(8.38277 0.0364561 0)
(8.38727 0.0364624 0)
(8.39161 0.0363104 0)
(8.39581 0.0360296 0)
(8.39985 0.0356448 0)
(8.40375 0.0351767 0)
(8.40751 0.0346429 0)
(8.41114 0.0340584 0)
(8.41466 0.0334366 0)
(8.41807 0.0327897 0)
(8.42138 0.0321302 0)
(8.42463 0.0314722 0)
(8.42781 0.0308314 0)
(8.43097 0.0302304 0)
(8.43413 0.0296877 0)
(8.43738 0.029245 0)
(8.44079 0.0288679 0)
(8.44461 0.0286335 0)
(8.44888 0.0280649 0)
(8.45397 0.0273924 0)
(8.33239 0.0022747 0)
(8.33119 0.0132801 0)
(8.33283 0.0203474 0)
(8.33556 0.0237124 0)
(8.33906 0.0258371 0)
(8.34316 0.0276141 0)
(8.34745 0.0292574 0)
(8.35177 0.0307151 0)
(8.3561 0.0319061 0)
(8.36041 0.0328191 0)
(8.36469 0.0334756 0)
(8.36892 0.0339031 0)
(8.37308 0.0341298 0)
(8.37716 0.0341839 0)
(8.38116 0.0340917 0)
(8.38507 0.0338764 0)
(8.38889 0.033558 0)
(8.39262 0.0331541 0)
(8.39627 0.0326797 0)
(8.39984 0.0321479 0)
(8.40334 0.0315698 0)
(8.40678 0.0309558 0)
(8.41017 0.0303155 0)
(8.41352 0.0296583 0)
(8.41684 0.0289949 0)
(8.42015 0.0283359 0)
(8.42348 0.0276949 0)
(8.42686 0.0270797 0)
(8.43036 0.0265025 0)
(8.43403 0.0259259 0)
(8.43803 0.0253338 0)
(8.4424 0.0244606 0)
(8.44724 0.0232904 0)
(8.33233 0.000860193 0)
(8.33153 0.00574627 0)
(8.33344 0.0106977 0)
(8.33651 0.0154704 0)
(8.33995 0.0198263 0)
(8.34366 0.023304 0)
(8.34746 0.0259497 0)
(8.3513 0.0279582 0)
(8.35518 0.0294659 0)
(8.35906 0.0305746 0)
(8.36293 0.0313611 0)
(8.36676 0.0318806 0)
(8.37054 0.0321759 0)
(8.37426 0.0322825 0)
(8.37792 0.03223 0)
(8.38152 0.0320437 0)
(8.38506 0.0317451 0)
(8.38854 0.0313525 0)
(8.39196 0.0308816 0)
(8.39533 0.0303456 0)
(8.39866 0.029756 0)
(8.40196 0.0291228 0)
(8.40523 0.028455 0)
(8.40848 0.0277609 0)
(8.41173 0.0270485 0)
(8.415 0.0263247 0)
(8.41831 0.0255959 0)
(8.42169 0.0248612 0)
(8.4252 0.0241159 0)
(8.42886 0.0233179 0)
(8.43277 0.0224237 0)
(8.43693 0.0212518 0)
(8.44134 0.0197295 0)
(8.33272 0.00169735 0)
(8.33256 0.00725001 0)
(8.3342 0.0125152 0)
(8.33682 0.0167482 0)
(8.33988 0.020164 0)
(8.34331 0.0228505 0)
(8.34692 0.0249707 0)
(8.35059 0.0266574 0)
(8.35429 0.02797 0)
(8.35797 0.0289542 0)
(8.36163 0.0296557 0)
(8.36524 0.0301139 0)
(8.36881 0.0303632 0)
(8.37232 0.0304337 0)
(8.37577 0.0303518 0)
(8.37918 0.0301405 0)
(8.38253 0.0298193 0)
(8.38583 0.0294049 0)
(8.38909 0.0289117 0)
(8.39231 0.0283517 0)
(8.3955 0.027735 0)
(8.39867 0.0270706 0)
(8.40182 0.0263658 0)
(8.40498 0.0256269 0)
(8.40814 0.0248592 0)
(8.41133 0.0240659 0)
(8.41457 0.0232476 0)
(8.41789 0.0223976 0)
(8.42131 0.0215018 0)
(8.42487 0.0205203 0)
(8.42861 0.0194038 0)
(8.43252 0.0180354 0)
(8.43655 0.0163499 0)
(8.33284 0.00177368 0)
(8.33294 0.00641546 0)
(8.33446 0.0108984 0)
(8.3369 0.0147551 0)
(8.3398 0.0180858 0)
(8.34303 0.0208415 0)
(8.34644 0.0230483 0)
(8.34993 0.0247891 0)
(8.35345 0.026129 0)
(8.35697 0.0271256 0)
(8.36047 0.0278318 0)
(8.36394 0.0282912 0)
(8.36736 0.0285398 0)
(8.37073 0.0286083 0)
(8.37405 0.0285227 0)
(8.37732 0.0283054 0)
(8.38055 0.0279754 0)
(8.38373 0.0275489 0)
(8.38687 0.0270395 0)
(8.38998 0.0264585 0)
(8.39307 0.0258156 0)
(8.39614 0.0251185 0)
(8.3992 0.0243736 0)
(8.40226 0.0235857 0)
(8.40534 0.0227577 0)
(8.40846 0.0218902 0)
(8.41161 0.0209799 0)
(8.41484 0.0200168 0)
(8.41816 0.0189833 0)
(8.42158 0.0178444 0)
(8.42513 0.0165557 0)
(8.42878 0.0150414 0)
(8.43249 0.0132535 0)
(8.33294 0.0018137 0)
(8.33324 0.00608777 0)
(8.33465 0.0102635 0)
(8.33689 0.0138919 0)
(8.33957 0.0169886 0)
(8.34258 0.0195422 0)
(8.34581 0.0215923 0)
(8.34913 0.0232179 0)
(8.35251 0.0244784 0)
(8.3559 0.0254215 0)
(8.35928 0.0260907 0)
(8.36263 0.0265233 0)
(8.36595 0.0267515 0)
(8.36922 0.0268029 0)
(8.37244 0.026702 0)
(8.37562 0.0264694 0)
(8.37876 0.026123 0)
(8.38185 0.0256779 0)
(8.38491 0.0251468 0)
(8.38794 0.0245402 0)
(8.39095 0.0238668 0)
(8.39394 0.0231335 0)
(8.39693 0.0223454 0)
(8.39992 0.021506 0)
(8.40292 0.0206163 0)
(8.40596 0.0196749 0)
(8.40903 0.0186765 0)
(8.41216 0.0176096 0)
(8.41537 0.0164566 0)
(8.41865 0.0151883 0)
(8.42201 0.0137695 0)
(8.42543 0.0121512 0)
(8.42887 0.0103043 0)
(8.33299 0.00177524 0)
(8.33339 0.00565572 0)
(8.33471 0.00942698 0)
(8.33677 0.0127526 0)
(8.33927 0.0156231 0)
(8.3421 0.01803 0)
(8.34514 0.0199899 0)
(8.34831 0.0215546 0)
(8.35154 0.0227715 0)
(8.3548 0.0236822 0)
(8.35806 0.0243264 0)
(8.36131 0.0247394 0)
(8.36453 0.0249515 0)
(8.36771 0.0249891 0)
(8.37085 0.0248749 0)
(8.37395 0.0246287 0)
(8.37701 0.0242672 0)
(8.38003 0.0238045 0)
(8.38302 0.0232524 0)
(8.38599 0.0226208 0)
(8.38893 0.0219175 0)
(8.39186 0.0211484 0)
(8.39478 0.0203177 0)
(8.39771 0.0194277 0)
(8.40065 0.0184784 0)
(8.40361 0.0174669 0)
(8.4066 0.016387 0)
(8.40964 0.0152276 0)
(8.41272 0.0139726 0)
(8.41586 0.0125991 0)
(8.41905 0.0110806 0)
(8.42227 0.00938638 0)
(8.42548 0.00750049 0)
(8.33302 0.00169564 0)
(8.33347 0.00524667 0)
(8.33472 0.00868514 0)
(8.33662 0.0117541 0)
(8.33894 0.0144172 0)
(8.34159 0.0166639 0)
(8.34446 0.0185039 0)
(8.34746 0.0199769 0)
(8.35055 0.0211243 0)
(8.35368 0.021983 0)
(8.35683 0.022588 0)
(8.35997 0.0229708 0)
(8.36309 0.0231588 0)
(8.36618 0.0231762 0)
(8.36925 0.0230438 0)
(8.37227 0.0227799 0)
(8.37526 0.0224 0)
(8.37822 0.0219171 0)
(8.38115 0.0213422 0)
(8.38405 0.0206841 0)
(8.38693 0.0199498 0)
(8.3898 0.0191445 0)
(8.39266 0.0182716 0)
(8.39553 0.0173323 0)
(8.3984 0.016326 0)
(8.40128 0.0152493 0)
(8.40419 0.0140957 0)
(8.40713 0.0128553 0)
(8.4101 0.0115146 0)
(8.41311 0.0100562 0)
(8.41614 0.00846126 0)
(8.41917 0.00671086 0)
(8.42218 0.00479825 0)
(8.33303 0.00159194 0)
(8.3335 0.00483809 0)
(8.33468 0.00796221 0)
(8.33644 0.0107731 0)
(8.3386 0.0132257 0)
(8.34108 0.0153089 0)
(8.34379 0.0170272 0)
(8.34664 0.0184086 0)
(8.34959 0.0194863 0)
(8.35259 0.0202918 0)
(8.35562 0.0208553 0)
(8.35865 0.021205 0)
(8.36167 0.0213659 0)
(8.36467 0.0213601 0)
(8.36765 0.0212069 0)
(8.3706 0.020923 0)
(8.37352 0.0205228 0)
(8.37641 0.0200183 0)
(8.37927 0.0194194 0)
(8.38211 0.0187342 0)
(8.38493 0.017969 0)
(8.38774 0.0171281 0)
(8.39054 0.0162142 0)
(8.39333 0.0152282 0)
(8.39613 0.0141688 0)
(8.39894 0.0130327 0)
(8.40176 0.0118138 0)
(8.4046 0.0105038 0)
(8.40746 0.00909178 0)
(8.41033 0.00756515 0)
(8.41321 0.00591123 0)
(8.41607 0.00411865 0)
(8.41891 0.00218631 0)
(8.33304 0.00147577 0)
(8.33351 0.00443769 0)
(8.33461 0.00727329 0)
(8.33625 0.00984014 0)
(8.33827 0.0120906 0)
(8.34059 0.0140111 0)
(8.34314 0.0156024 0)
(8.34585 0.0168845 0)
(8.34865 0.017884 0)
(8.35153 0.0186279 0)
(8.35444 0.0191426 0)
(8.35736 0.0194529 0)
(8.36028 0.0195812 0)
(8.36319 0.0195476 0)
(8.36608 0.0193696 0)
(8.36895 0.0190625 0)
(8.3718 0.0186393 0)
(8.37461 0.0181111 0)
(8.37741 0.0174868 0)
(8.38018 0.0167737 0)
(8.38293 0.0159773 0)
(8.38567 0.0151014 0)
(8.3884 0.0141482 0)
(8.39112 0.0131182 0)
(8.39384 0.0120099 0)
(8.39657 0.0108203 0)
(8.3993 0.00954425 0)
(8.40203 0.00817492 0)
(8.40477 0.0067041 0)
(8.40751 0.0051229 0)
(8.41025 0.00342316 0)
(8.41296 0.0015985 0)
(8.41564 -0.000348966 0)
(8.33304 0.00135416 0)
(8.3335 0.00404633 0)
(8.33454 0.00661182 0)
(8.33606 0.00894321 0)
(8.33795 0.010995 0)
(8.34013 0.012752 0)
(8.34253 0.0142127 0)
(8.34509 0.0153909 0)
(8.34777 0.0163076 0)
(8.35051 0.0169852 0)
(8.3533 0.0174465 0)
(8.35612 0.0177132 0)
(8.35894 0.0178051 0)
(8.36175 0.0177402 0)
(8.36456 0.0175344 0)
(8.36734 0.0172014 0)
(8.37011 0.0167532 0)
(8.37285 0.0161997 0)
(8.37557 0.015549 0)
(8.37827 0.0148076 0)
(8.38095 0.0139804 0)
(8.38361 0.0130707 0)
(8.38627 0.0120804 0)
(8.38891 0.0110095 0)
(8.39155 0.00985704 0)
(8.39418 0.00862014 0)
(8.39681 0.00729474 0)
(8.39944 0.00587559 0)
(8.40206 0.00435672 0)
(8.40468 0.00273214 0)
(8.40727 0.000996928 0)
(8.40984 -0.000852144 0)
(8.41237 -0.00281124 0)
(8.33304 0.00123128 0)
(8.33348 0.00366552 0)
(8.33446 0.00597668 0)
(8.33588 0.00808205 0)
(8.33764 0.00994014 0)
(8.33969 0.0115349 0)
(8.34196 0.0128629 0)
(8.34438 0.0139333 0)
(8.34693 0.0147624 0)
(8.34955 0.0153688 0)
(8.35223 0.0157719 0)
(8.35493 0.0159903 0)
(8.35765 0.0160416 0)
(8.36037 0.0159419 0)
(8.36308 0.0157052 0)
(8.36578 0.0153439 0)
(8.36846 0.0148688 0)
(8.37112 0.0142886 0)
(8.37377 0.0136108 0)
(8.37639 0.0128412 0)
(8.37899 0.0119839 0)
(8.38158 0.011042 0)
(8.38415 0.0100169 0)
(8.38671 0.00890891 0)
(8.38926 0.00771698 0)
(8.39179 0.00643895 0)
(8.39432 0.00507166 0)
(8.39684 0.00361127 0)
(8.39934 0.00205369 0)
(8.40183 0.0003951 0)
(8.40429 -0.00136717 0)
(8.40672 -0.0032344 0)
(8.4091 -0.00520194 0)
(8.33304 0.00110957 0)
(8.33346 0.00329599 0)
(8.33438 0.00536575 0)
(8.3357 0.00725342 0)
(8.33736 0.00892225 0)
(8.33928 0.0103559 0)
(8.34142 0.0115495 0)
(8.34372 0.012509 0)
(8.34614 0.0132467 0)
(8.34865 0.0137779 0)
(8.35121 0.0141186 0)
(8.35381 0.014285 0)
(8.35642 0.0142925 0)
(8.35905 0.0141549 0)
(8.36167 0.0138848 0)
(8.36428 0.0134932 0)
(8.36687 0.0129896 0)
(8.36945 0.0123821 0)
(8.37201 0.0116769 0)
(8.37455 0.0108794 0)
(8.37707 0.00999331 0)
(8.37958 0.00902116 0)
(8.38206 0.00796434 0)
(8.38453 0.00682312 0)
(8.38698 0.00559676 0)
(8.38942 0.00428368 0)
(8.39184 0.00288161 0)
(8.39424 0.0013879 0)
(8.39663 -0.000200082 0)
(8.39898 -0.00188455 0)
(8.40131 -0.00366666 0)
(8.4036 -0.0055465 0)
(8.40585 -0.00751914 0)
(8.33304 0.000990359 0)
(8.33344 0.00293803 0)
(8.3343 0.00477737 0)
(8.33554 0.0064551 0)
(8.33709 0.00793908 0)
(8.3389 0.00921322 0)
(8.34092 0.0102718 0)
(8.3431 0.0111181 0)
(8.3454 0.0117613 0)
(8.34779 0.0122136 0)
(8.35025 0.0124885 0)
(8.35274 0.0125996 0)
(8.35526 0.0125601 0)
(8.35778 0.012382 0)
(8.36031 0.0120763 0)
(8.36283 0.0116528 0)
(8.36534 0.0111198 0)
(8.36783 0.0104843 0)
(8.37031 0.00975208 0)
(8.37276 0.0089276 0)
(8.3752 0.00801425 0)
(8.37761 0.0070143 0)
(8.38001 0.00592903 0)
(8.38238 0.00475878 0)
(8.38474 0.00350314 0)
(8.38707 0.00216103 0)
(8.38938 0.000730975 0)
(8.39167 -0.000788705 0)
(8.39393 -0.00239954 0)
(8.39616 -0.00410257 0)
(8.39836 -0.00589799 0)
(8.40051 -0.00778516 0)
(8.40262 -0.00975917 0)
(8.33304 0.000874301 0)
(8.33341 0.00259161 0)
(8.33422 0.00420994 0)
(8.33538 0.00568478 0)
(8.33684 0.00698814 0)
(8.33855 0.00810458 0)
(8.34046 0.00902778 0)
(8.34253 0.00975913 0)
(8.34472 0.0103053 0)
(8.347 0.0106759 0)
(8.34934 0.010882 0)
(8.35173 0.0109349 0)
(8.35415 0.0108457 0)
(8.35658 0.0106249 0)
(8.35902 0.010282 0)
(8.36145 0.00982537 0)
(8.36387 0.00926227 0)
(8.36627 0.00859883 0)
(8.36866 0.00784008 0)
(8.37103 0.00698995 0)
(8.37338 0.00605141 0)
(8.3757 0.00502649 0)
(8.378 0.00391638 0)
(8.38028 0.00272155 0)
(8.38253 0.00144185 0)
(8.38476 7.66957e-05 0)
(8.38696 -0.00137477 0)
(8.38913 -0.00291346 0)
(8.39127 -0.00454006 0)
(8.39337 -0.00625484 0)
(8.39543 -0.00805732 0)
(8.39746 -0.0099465 0)
(8.39943 -0.0119176 0)
(8.33303 0.000761662 0)
(8.33339 0.00225643 0)
(8.33415 0.00366197 0)
(8.33524 0.00494036 0)
(8.33661 0.00606716 0)
(8.33822 0.00702791 0)
(8.34003 0.00781596 0)
(8.34199 0.00843131 0)
(8.34408 0.00887861 0)
(8.34625 0.00916524 0)
(8.3485 0.00930007 0)
(8.35079 0.00929246 0)
(8.35311 0.0091517 0)
(8.35545 0.0088866 0)
(8.35779 0.00850523 0)
(8.36013 0.00801475 0)
(8.36246 0.00742141 0)
(8.36478 0.00673048 0)
(8.36707 0.00594628 0)
(8.36935 0.00507223 0)
(8.37161 0.00411093 0)
(8.37384 0.00306419 0)
(8.37604 0.00193313 0)
(8.37822 0.000718335 0)
(8.38037 -0.000580108 0)
(8.38249 -0.0019624 0)
(8.38457 -0.00342889 0)
(8.38663 -0.0049799 0)
(8.38864 -0.00661553 0)
(8.39062 -0.0083355 0)
(8.39255 -0.0101389 0)
(8.39444 -0.0120246 0)
(8.39628 -0.013988 0)
(8.33303 0.000652477 0)
(8.33337 0.00193199 0)
(8.33408 0.00313205 0)
(8.33511 0.00421976 0)
(8.3364 0.00517379 0)
(8.33792 0.00598075 0)
(8.33963 0.00663398 0)
(8.3415 0.00713246 0)
(8.34348 0.00747924 0)
(8.34556 0.00767989 0)
(8.34771 0.00774139 0)
(8.3499 0.0076713 0)
(8.35213 0.00747722 0)
(8.35437 0.00716645 0)
(8.35662 0.00674573 0)
(8.35887 0.00622106 0)
(8.36111 0.00559771 0)
(8.36334 0.00488012 0)
(8.36555 0.00407197 0)
(8.36774 0.00317616 0)
(8.3699 0.00219494 0)
(8.37203 0.0011299 0)
(8.37414 -1.78764e-05 0)
(8.37621 -0.00124777 0)
(8.37826 -0.00255947 0)
(8.38026 -0.0039529 0)
(8.38224 -0.00542801 0)
(8.38417 -0.00698472 0)
(8.38607 -0.00862269 0)
(8.38792 -0.0103413 0)
(8.38972 -0.0121394 0)
(8.39148 -0.0140158 0)
(8.39319 -0.0159659 0)
(8.33303 0.000546647 0)
(8.33334 0.00161774 0)
(8.33402 0.00261886 0)
(8.33499 0.00352129 0)
(8.33621 0.00430631 0)
(8.33765 0.0049618 0)
(8.33927 0.00548126 0)
(8.34104 0.00586297 0)
(8.34293 0.00610872 0)
(8.34492 0.00622251 0)
(8.34697 0.00620972 0)
(8.34907 0.00607622 0)
(8.35121 0.00582806 0)
(8.35336 0.00547114 0)
(8.35552 0.00501094 0)
(8.35768 0.00445238 0)
(8.35984 0.0037998 0)
(8.36197 0.00305687 0)
(8.36409 0.00222663 0)
(8.36618 0.00131153 0)
(8.36825 0.00031346 0)
(8.37029 -0.000766171 0)
(8.37229 -0.00192637 0)
(8.37427 -0.00316648 0)
(8.3762 -0.00448605 0)
(8.3781 -0.00588476 0)
(8.37996 -0.00736233 0)
(8.38178 -0.00891833 0)
(8.38355 -0.0105522 0)
(8.38527 -0.012263 0)
(8.38695 -0.0140496 0)
(8.38858 -0.0159106 0)
(8.39015 -0.0178418 0)
(8.33303 0.000443999 0)
(8.33333 0.00131294 0)
(8.33396 0.00212085 0)
(8.33488 0.00284237 0)
(8.33603 0.00346103 0)
(8.33739 0.00396614 0)
(8.33894 0.00435166 0)
(8.34062 0.00461553 0)
(8.34243 0.00475861 0)
(8.34432 0.00478366 0)
(8.34629 0.00469475 0)
(8.3483 0.00449632 0)
(8.35035 0.00419301 0)
(8.35241 0.00378937 0)
(8.35449 0.0032897 0)
(8.35656 0.00269788 0)
(8.35862 0.00201734 0)
(8.36067 0.00125097 0)
(8.3627 0.00040121 0)
(8.3647 -0.000529985 0)
(8.36667 -0.00154106 0)
(8.36861 -0.00263084 0)
(8.37052 -0.00379844 0)
(8.37238 -0.0050432 0)
(8.37421 -0.0063646 0)
(8.376 -0.00776219 0)
(8.37775 -0.00923548 0)
(8.37944 -0.0107839 0)
(8.38109 -0.0124066 0)
(8.3827 -0.0141027 0)
(8.38425 -0.0158708 0)
(8.38574 -0.0177096 0)
(8.38718 -0.0196152 0)
(8.33303 0.000344357 0)
(8.33331 0.00101719 0)
(8.33391 0.00163766 0)
(8.33477 0.00218361 0)
(8.33587 0.00264054 0)
(8.33716 0.00299915 0)
(8.33863 0.00325386 0)
(8.34024 0.00340234 0)
(8.34196 0.00344471 0)
(8.34377 0.00338263 0)
(8.34565 0.00321897 0)
(8.34758 0.00295648 0)
(8.34955 0.0025987 0)
(8.35153 0.00214905 0)
(8.35352 0.00161072 0)
(8.35551 0.00098669 0)
(8.35748 0.000279503 0)
(8.35944 -0.000508594 0)
(8.36138 -0.00137572 0)
(8.36329 -0.00232036 0)
(8.36516 -0.0033413 0)
(8.36701 -0.00443755 0)
(8.36881 -0.00560837 0)
(8.37058 -0.00685312 0)
(8.3723 -0.00817127 0)
(8.37398 -0.00956226 0)
(8.37561 -0.0110255 0)
(8.37719 -0.0125603 0)
(8.37872 -0.0141658 0)
(8.3802 -0.0158409 0)
(8.38162 -0.0175843 0)
(8.38299 -0.0193947 0)
(8.3843 -0.0212684 0)
(8.33303 0.00024743 0)
(8.33329 0.000728891 0)
(8.33386 0.00116494 0)
(8.33468 0.00153558 0)
(8.33572 0.00182836 0)
(8.33695 0.00203683 0)
(8.33835 0.00215631 0)
(8.33989 0.00218461 0)
(8.34154 0.00212158 0)
(8.34327 0.00196781 0)
(8.34508 0.00172663 0)
(8.34693 0.0013988 0)
(8.34881 0.000986238 0)
(8.35071 0.000491328 0)
(8.35262 -8.38327e-05 0)
(8.35452 -0.000737413 0)
(8.35641 -0.00146777 0)
(8.35828 -0.00227339 0)
(8.36013 -0.00315303 0)
(8.36195 -0.00410565 0)
(8.36373 -0.0051304 0)
(8.36548 -0.0062266 0)
(8.36718 -0.00739365 0)
(8.36885 -0.00863103 0)
(8.37046 -0.00993821 0)
(8.37203 -0.0113147 0)
(8.37355 -0.0127597 0)
(8.37501 -0.0142727 0)
(8.37642 -0.0158526 0)
(8.37778 -0.0174983 0)
(8.37908 -0.0192087 0)
(8.38032 -0.0209824 0)
(8.3815 -0.0228158 0)
(8.33302 0.000153436 0)
(8.33327 0.000450893 0)
(8.33381 0.000712127 0)
(8.33459 0.000921016 0)
(8.33558 0.00106273 0)
(8.33675 0.00113325 0)
(8.33809 0.00112896 0)
(8.33956 0.00104756 0)
(8.34114 0.000888167 0)
(8.34281 0.00065133 0)
(8.34455 0.00033563 0)
(8.34633 -5.61455e-05 0)
(8.34813 -0.000522606 0)
(8.34996 -0.00106265 0)
(8.35179 -0.0016751 0)
(8.35361 -0.00235893 0)
(8.35542 -0.00311307 0)
(8.35721 -0.00393666 0)
(8.35897 -0.00482894 0)
(8.3607 -0.00578926 0)
(8.36239 -0.00681708 0)
(8.36404 -0.00791192 0)
(8.36565 -0.00907336 0)
(8.36721 -0.010301 0)
(8.36872 -0.0115943 0)
(8.37018 -0.0129528 0)
(8.37159 -0.0143758 0)
(8.37294 -0.0158627 0)
(8.37423 -0.0174125 0)
(8.37547 -0.0190241 0)
(8.37665 -0.0206964 0)
(8.37776 -0.0224281 0)
(8.37882 -0.0242158 0)
(8.33302 6.06241e-05 0)
(8.33326 0.000171006 0)
(8.33378 0.000244599 0)
(8.33452 0.000264823 0)
(8.33546 0.000232964 0)
(8.33659 0.000142974 0)
(8.33787 -6.876e-06 0)
(8.33929 -0.000216452 0)
(8.34081 -0.000486109 0)
(8.34241 -0.000815925 0)
(8.34408 -0.0012086 0)
(8.34579 -0.00166286 0)
(8.34752 -0.00217888 0)
(8.34928 -0.00275733 0)
(8.35103 -0.00339845 0)
(8.35278 -0.00410231 0)
(8.35451 -0.00486898 0)
(8.35621 -0.00569847 0)
(8.35789 -0.00659076 0)
(8.35953 -0.00754581 0)
(8.36113 -0.0085635 0)
(8.36269 -0.00964372 0)
(8.3642 -0.0107863 0)
(8.36566 -0.0119909 0)
(8.36707 -0.0132572 0)
(8.36843 -0.0145848 0)
(8.36972 -0.0159731 0)
(8.37096 -0.0174214 0)
(8.37214 -0.0189287 0)
(8.37326 -0.020494 0)
(8.37432 -0.0221163 0)
(8.37531 -0.0237942 0)
(8.37624 -0.0255246 0)
(8.33302 -2.5563e-05 0)
(8.33324 -7.53297e-05 0)
(8.33371 -0.000145453 0)
(8.33441 -0.000254482 0)
(8.33531 -0.000404396 0)
(8.33639 -0.000604016 0)
(8.33763 -0.000856697 0)
(8.339 -0.00116284 0)
(8.34048 -0.00152248 0)
(8.34203 -0.00193604 0)
(8.34365 -0.0024019 0)
(8.3453 -0.00292141 0)
(8.34698 -0.00349509 0)
(8.34867 -0.0041232 0)
(8.35036 -0.00480605 0)
(8.35204 -0.00554402 0)
(8.3537 -0.00633748 0)
(8.35533 -0.00718679 0)
(8.35692 -0.00809225 0)
(8.35848 -0.00905412 0)
(8.35999 -0.0100726 0)
(8.36146 -0.0111478 0)
(8.36288 -0.0122797 0)
(8.36424 -0.0134683 0)
(8.36555 -0.0147133 0)
(8.3668 -0.0160145 0)
(8.36799 -0.0173714 0)
(8.36912 -0.0187834 0)
(8.37019 -0.0202497 0)
(8.3712 -0.0217695 0)
(8.37214 -0.0233415 0)
(8.37301 -0.0249649 0)
(8.37382 -0.0266367 0)
(8.33303 -0.000121704 0)
(8.33325 -0.000387539 0)
(8.33372 -0.00069856 0)
(8.3344 -0.0010542 0)
(8.33527 -0.00144662 0)
(8.33631 -0.00186287 0)
(8.3375 -0.00229766 0)
(8.33882 -0.00275086 0)
(8.34023 -0.00322497 0)
(8.34173 -0.00372387 0)
(8.34328 -0.00425178 0)
(8.34488 -0.00481335 0)
(8.34649 -0.00541241 0)
(8.34812 -0.00605228 0)
(8.34974 -0.00673586 0)
(8.35135 -0.00746554 0)
(8.35293 -0.00824326 0)
(8.35449 -0.00907056 0)
(8.35601 -0.00994863 0)
(8.35749 -0.0108784 0)
(8.35892 -0.0118605 0)
(8.3603 -0.0128955 0)
(8.36163 -0.0139835 0)
(8.3629 -0.0151246 0)
(8.36411 -0.0163187 0)
(8.36527 -0.0175655 0)
(8.36636 -0.0188646 0)
(8.36738 -0.0202153 0)
(8.36834 -0.0216169 0)
(8.36924 -0.0230685 0)
(8.37007 -0.024569 0)
(8.37083 -0.0261174 0)
(8.37152 -0.0277108 0)
(8.333 -0.0001697 0)
(8.33315 -0.000471636 0)
(8.33354 -0.0007769 0)
(8.33416 -0.00112341 0)
(8.33499 -0.00152472 0)
(8.33603 -0.00197941 0)
(8.33722 -0.00248115 0)
(8.33854 -0.00302271 0)
(8.33996 -0.00359839 0)
(8.34145 -0.00420486 0)
(8.34298 -0.00484053 0)
(8.34455 -0.00550545 0)
(8.34614 -0.00620057 0)
(8.34772 -0.00692741 0)
(8.34929 -0.00768776 0)
(8.35084 -0.00848348 0)
(8.35237 -0.00931641 0)
(8.35385 -0.0101882 0)
(8.3553 -0.0111005 0)
(8.3567 -0.0120546 0)
(8.35805 -0.0130515 0)
(8.35935 -0.0140923 0)
(8.36059 -0.0151776 0)
(8.36177 -0.016308 0)
(8.36288 -0.0174836 0)
(8.36394 -0.0187047 0)
(8.36493 -0.0199711 0)
(8.36585 -0.0212826 0)
(8.36671 -0.0226386 0)
(8.36749 -0.0240386 0)
(8.36821 -0.0254818 0)
(8.36886 -0.0269674 0)
(8.36944 -0.028493 0)
(8.33305 -0.000354218 0)
(8.33333 -0.00113877 0)
(8.33378 -0.00200364 0)
(8.33439 -0.00288305 0)
(8.33516 -0.00372139 0)
(8.3361 -0.00449802 0)
(8.3372 -0.00521477 0)
(8.33843 -0.00588276 0)
(8.33977 -0.00651613 0)
(8.34118 -0.00712917 0)
(8.34265 -0.00773491 0)
(8.34416 -0.0083447 0)
(8.34568 -0.00896798 0)
(8.34721 -0.00961237 0)
(8.34872 -0.0102839 0)
(8.35022 -0.0109874 0)
(8.35168 -0.0117266 0)
(8.35311 -0.0125042 0)
(8.3545 -0.0133224 0)
(8.35583 -0.0141828 0)
(8.35712 -0.0150866 0)
(8.35834 -0.0160346 0)
(8.35951 -0.0170271 0)
(8.36061 -0.0180645 0)
(8.36164 -0.0191466 0)
(8.36261 -0.0202734 0)
(8.36351 -0.0214443 0)
(8.36435 -0.022659 0)
(8.36511 -0.0239166 0)
(8.3658 -0.0252164 0)
(8.36641 -0.0265573 0)
(8.36696 -0.0279386 0)
(8.36744 -0.0293576 0)
(8.33294 -0.000124855 0)
(8.33285 -0.000281159 0)
(8.33306 -0.000498148 0)
(8.33362 -0.000906174 0)
(8.33449 -0.00150911 0)
(8.33557 -0.00225206 0)
(8.33682 -0.00307851 0)
(8.33819 -0.00394801 0)
(8.33963 -0.00483538 0)
(8.34111 -0.00572619 0)
(8.34263 -0.00661339 0)
(8.34415 -0.00749503 0)
(8.34567 -0.00837234 0)
(8.34718 -0.00924832 0)
(8.34866 -0.0101269 0)
(8.3501 -0.0110122 0)
(8.35151 -0.0119085 0)
(8.35287 -0.0128196 0)
(8.35418 -0.0137492 0)
(8.35544 -0.0147003 0)
(8.35664 -0.0156757 0)
(8.35777 -0.0166776 0)
(8.35885 -0.0177081 0)
(8.35986 -0.0187685 0)
(8.3608 -0.01986 0)
(8.36167 -0.0209837 0)
(8.36247 -0.02214 0)
(8.3632 -0.0233292 0)
(8.36386 -0.0245516 0)
(8.36444 -0.0258069 0)
(8.36496 -0.0270948 0)
(8.3654 -0.028415 0)
(8.36576 -0.0297656 0)
(8.33317 -0.000813301 0)
(8.33366 -0.00277905 0)
(8.33404 -0.00479981 0)
(8.33442 -0.00654676 0)
(8.33495 -0.00794397 0)
(8.3357 -0.00904505 0)
(8.33667 -0.00992387 0)
(8.33782 -0.0106441 0)
(8.33909 -0.0112575 0)
(8.34046 -0.0118045 0)
(8.3419 -0.0123158 0)
(8.34336 -0.0128143 0)
(8.34485 -0.0133164 0)
(8.34632 -0.013834 0)
(8.34778 -0.0143755 0)
(8.34921 -0.0149467 0)
(8.3506 -0.0155516 0)
(8.35194 -0.016193 0)
(8.35322 -0.0168726 0)
(8.35445 -0.0175914 0)
(8.35562 -0.01835 0)
(8.35672 -0.0191487 0)
(8.35775 -0.0199875 0)
(8.35871 -0.0208659 0)
(8.35959 -0.0217837 0)
(8.36041 -0.0227402 0)
(8.36115 -0.0237348 0)
(8.36181 -0.0247668 0)
(8.3624 -0.0258352 0)
(8.36291 -0.0269391 0)
(8.36335 -0.0280777 0)
(8.36371 -0.0292499 0)
(8.364 -0.0304535 0)
(8.33264 0.000544834 0)
(8.33175 0.00189439 0)
(8.33173 0.00268432 0)
(8.33253 0.00250086 0)
(8.33375 0.00157339 0)
(8.33515 0.000252927 0)
(8.33664 -0.00123101 0)
(8.33818 -0.00275591 0)
(8.33973 -0.00425603 0)
(8.34127 -0.00569633 0)
(8.34279 -0.00706218 0)
(8.34428 -0.00835183 0)
(8.34574 -0.00957046 0)
(8.34717 -0.0107267 0)
(8.34855 -0.0118304 0)
(8.34988 -0.0128917 0)
(8.35117 -0.0139203 0)
(8.3524 -0.014925 0)
(8.35357 -0.0159135 0)
(8.35468 -0.0168927 0)
(8.35573 -0.0178684 0)
(8.35671 -0.0188457 0)
(8.35763 -0.0198287 0)
(8.35848 -0.020821 0)
(8.35925 -0.0218254 0)
(8.35996 -0.0228442 0)
(8.36059 -0.0238794 0)
(8.36114 -0.0249323 0)
(8.36163 -0.026004 0)
(8.36204 -0.0270953 0)
(8.36237 -0.0282065 0)
(8.36263 -0.0293378 0)
(8.36282 -0.0304883 0)
(8.33357 -0.00199516 0)
(8.33463 -0.00700542 0)
(8.33434 -0.0118673 0)
(8.33363 -0.015087 0)
(8.33338 -0.0169216 0)
(8.33374 -0.0179544 0)
(8.33456 -0.0185039 0)
(8.33568 -0.0187644 0)
(8.337 -0.0188708 0)
(8.33845 -0.0189104 0)
(8.33998 -0.0189379 0)
(8.34154 -0.0189864 0)
(8.3431 -0.0190752 0)
(8.34464 -0.0192148 0)
(8.34614 -0.0194102 0)
(8.3476 -0.0196629 0)
(8.349 -0.0199725 0)
(8.35034 -0.0203376 0)
(8.35161 -0.0207559 0)
(8.35281 -0.0212252 0)
(8.35393 -0.0217429 0)
(8.35498 -0.0223067 0)
(8.35595 -0.0229143 0)
(8.35685 -0.0235637 0)
(8.35767 -0.0242528 0)
(8.3584 -0.0249798 0)
(8.35906 -0.0257429 0)
(8.35964 -0.0265406 0)
(8.36013 -0.0273713 0)
(8.36055 -0.0282336 0)
(8.36089 -0.0291262 0)
(8.36115 -0.0300479 0)
(8.36134 -0.0309967 0)
(8.33162 0.00367071 0)
(8.32827 0.0101764 0)
(8.32844 0.0132999 0)
(8.33096 0.013203 0)
(8.33348 0.0110794 0)
(8.3356 0.00817469 0)
(8.33749 0.00511434 0)
(8.33921 0.0021368 0)
(8.3408 -0.000646331 0)
(8.34229 -0.00318728 0)
(8.34371 -0.00548109 0)
(8.34507 -0.00754406 0)
(8.34638 -0.00940081 0)
(8.34765 -0.0110784 0)
(8.34889 -0.0126034 0)
(8.35009 -0.0140005 0)
(8.35125 -0.0152913 0)
(8.35238 -0.016495 0)
(8.35345 -0.0176279 0)
(8.35448 -0.0187039 0)
(8.35546 -0.0197348 0)
(8.35638 -0.0207304 0)
(8.35725 -0.0216991 0)
(8.35806 -0.0226479 0)
(8.3588 -0.0235825 0)
(8.35948 -0.0245077 0)
(8.36008 -0.0254276 0)
(8.36062 -0.0263452 0)
(8.36109 -0.0272634 0)
(8.36149 -0.0281841 0)
(8.36182 -0.0291089 0)
(8.36207 -0.0300389 0)
(8.36225 -0.0309744 0)
(8.33429 -0.00645369 0)
(8.3346 -0.0207487 0)
(8.33067 -0.0300247 0)
(8.32661 -0.0340814 0)
(8.32467 -0.0350109 0)
(8.32472 -0.0345022 0)
(8.32585 -0.0333693 0)
(8.3275 -0.0320053 0)
(8.32948 -0.0306332 0)
(8.33165 -0.0293708 0)
(8.33389 -0.0282701 0)
(8.33617 -0.0273476 0)
(8.33843 -0.0266024 0)
(8.34065 -0.026024 0)
(8.34281 -0.0255982 0)
(8.3449 -0.0253093 0)
(8.34692 -0.0251421 0)
(8.34886 -0.0250825 0)
(8.35071 -0.0251179 0)
(8.35247 -0.0252371 0)
(8.35414 -0.0254305 0)
(8.35572 -0.0256896 0)
(8.3572 -0.0260072 0)
(8.35859 -0.0263773 0)
(8.35989 -0.0267944 0)
(8.36108 -0.027254 0)
(8.36219 -0.0277523 0)
(8.3632 -0.0282858 0)
(8.36411 -0.0288517 0)
(8.36493 -0.0294473 0)
(8.36566 -0.0300706 0)
(8.3663 -0.0307198 0)
(8.36685 -0.0313924 0)
(8.32884 0.0225857 0)
(8.32235 0.0427432 0)
(8.32666 0.0439617 0)
(8.33327 0.0379929 0)
(8.33772 0.030642 0)
(8.34048 0.0234718 0)
(8.34271 0.0168036 0)
(8.34482 0.0108203 0)
(8.34693 0.00557834 0)
(8.34911 0.00102982 0)
(8.35137 -0.00290502 0)
(8.35373 -0.00630795 0)
(8.35615 -0.0092567 0)
(8.35861 -0.0118218 0)
(8.3611 -0.0140649 0)
(8.36358 -0.0160383 0)
(8.36605 -0.0177865 0)
(8.36848 -0.0193466 0)
(8.37085 -0.02075 0)
(8.37317 -0.0220225 0)
(8.37541 -0.0231861 0)
(8.37756 -0.024259 0)
(8.37962 -0.0252562 0)
(8.38159 -0.0261906 0)
(8.38346 -0.0270729 0)
(8.38522 -0.027912 0)
(8.38688 -0.0287154 0)
(8.38842 -0.0294895 0)
(8.38986 -0.0302398 0)
(8.39119 -0.0309706 0)
(8.39241 -0.031686 0)
(8.39352 -0.0323887 0)
(8.39452 -0.0330827 0)
(8.32436 -0.0380394 0)
(8.29385 -0.0683512 0)
(8.27211 -0.0717555 0)
(8.26663 -0.0686924 0)
(8.27353 -0.0643886 0)
(8.28614 -0.0595936 0)
(8.30086 -0.0549388 0)
(8.31614 -0.0507911 0)
(8.33113 -0.0472126 0)
(8.34537 -0.0441786 0)
(8.35865 -0.0416447 0)
(8.37092 -0.0395521 0)
(8.38218 -0.037839 0)
(8.39248 -0.0364485 0)
(8.40187 -0.0353306 0)
(8.41042 -0.0344423 0)
(8.4182 -0.033747 0)
(8.42526 -0.0332142 0)
(8.43167 -0.0328184 0)
(8.43747 -0.0325385 0)
(8.44271 -0.032357 0)
(8.44745 -0.0322593 0)
(8.45171 -0.0322335 0)
(8.45553 -0.0322695 0)
(8.45895 -0.0323591 0)
(8.46199 -0.0324951 0)
(8.46468 -0.0326718 0)
(8.46705 -0.0328841 0)
(8.46911 -0.0331278 0)
(8.47088 -0.0333991 0)
(8.4724 -0.0336949 0)
(8.47366 -0.0340123 0)
(8.4747 -0.0343475 0)