/*--------------------------------*- C++ -*----------------------------------*\
| =========                 |                                                 |
| \\      /  F ield         | OpenFOAM: The Open Source CFD Toolbox           |
|  \\    /   O peration     | Version:  2.1.1                                 |
|   \\  /    A nd           | Web:      www.OpenFOAM.org                      |
|    \\/     M anipulation  |                                                 |
\*---------------------------------------------------------------------------*/
FoamFile
{
    version     2.0;
    format      ascii;
    class       volScalarField;
    location    "0.15";
    object      nuSgs;
}
// * * * * * * * * * * * * * * * * * * * * * * * * * * * * * * * * * * * * * //

dimensions      [0 2 -1 0 0 0 0];

internalField   nonuniform List<scalar> 
6820
(
0.000556015
0.000457389
0.000368069
0.000305982
0.000268706
0.000242997
0.000224047
0.000209526
0.000197774
0.000187881
0.000179333
0.000171796
0.000165048
0.000158931
0.000153332
0.000148164
0.000143358
0.000138863
0.000134636
0.000130643
0.000126854
0.000123245
0.000119797
0.000116492
0.000113314
0.000110251
0.000107292
0.000104431
0.000101655
9.89878e-05
9.63818e-05
9.38358e-05
9.10595e-05
0.000103504
0.00017068
0.000223677
0.000240045
0.000235277
0.000224897
0.000213181
0.000201873
0.000191616
0.000182427
0.000174189
0.000166766
0.000160036
0.000153895
0.000148258
0.000143056
0.000138231
0.000133734
0.000129526
0.000125571
0.000121842
0.000118312
0.000114962
0.000111774
0.000108731
0.000105819
0.000103029
0.000100341
9.77616e-05
9.52233e-05
9.28444e-05
9.01878e-05
8.83635e-05
3.67732e-05
2.84668e-05
4.56487e-05
8.2369e-05
0.000108045
0.000123672
0.000132129
0.000136008
0.000137134
0.000136581
0.000134989
0.000132758
0.000130135
0.000127287
0.00012432
0.000121306
0.000118291
0.000115309
0.000112378
0.000109514
0.000106724
0.000104012
0.000101381
9.88301e-05
9.63596e-05
9.39666e-05
9.16485e-05
8.93989e-05
8.72158e-05
8.50698e-05
8.29767e-05
8.0776e-05
7.8712e-05
2.07362e-05
2.86744e-05
2.65401e-05
1.50459e-05
3.62978e-06
1.39516e-05
2.5832e-05
3.57072e-05
4.36801e-05
5.00242e-05
5.50144e-05
5.88946e-05
6.18665e-05
6.4088e-05
6.56937e-05
6.67945e-05
6.74816e-05
6.78301e-05
6.79018e-05
6.77478e-05
6.74102e-05
6.69235e-05
6.63167e-05
6.56133e-05
6.4833e-05
6.39917e-05
6.31021e-05
6.21728e-05
6.12118e-05
6.0216e-05
5.91937e-05
5.81487e-05
5.71533e-05
1.44219e-05
1.75733e-05
2.25942e-05
2.42919e-05
2.39649e-05
2.19819e-05
1.90825e-05
1.58061e-05
1.23863e-05
8.97395e-06
5.67788e-06
2.58249e-06
7.22177e-07
3.1588e-06
5.58758e-06
7.79494e-06
9.77784e-06
1.1546e-05
1.31132e-05
1.44946e-05
1.5706e-05
1.67628e-05
1.76801e-05
1.84718e-05
1.91508e-05
1.9729e-05
2.02167e-05
2.06226e-05
2.09548e-05
2.12191e-05
2.14248e-05
2.15997e-05
2.17626e-05
1.09234e-05
1.24851e-05
1.38053e-05
1.43167e-05
1.51055e-05
1.57483e-05
1.61284e-05
1.63381e-05
1.63807e-05
1.62613e-05
1.60035e-05
1.56308e-05
1.51663e-05
1.46249e-05
1.40256e-05
1.33859e-05
1.2721e-05
1.20436e-05
1.1364e-05
1.06901e-05
1.0028e-05
9.38231e-06
8.7561e-06
8.15154e-06
7.56993e-06
7.01202e-06
6.47799e-06
5.96779e-06
5.48028e-06
5.0128e-06
4.55993e-06
4.10117e-06
3.62399e-06
8.24998e-06
9.41645e-06
1.02276e-05
1.00234e-05
9.8342e-06
9.65735e-06
9.47533e-06
9.3901e-06
9.39034e-06
9.43177e-06
9.48732e-06
9.53906e-06
9.57556e-06
9.5945e-06
9.5933e-06
9.57083e-06
9.52731e-06
9.46381e-06
9.3819e-06
9.28337e-06
9.17014e-06
9.04413e-06
8.90718e-06
8.76107e-06
8.60743e-06
8.44773e-06
8.28313e-06
8.11446e-06
7.94141e-06
7.76239e-06
7.57266e-06
7.36442e-06
7.12474e-06
6.36885e-06
7.39891e-06
8.19546e-06
8.05468e-06
7.74239e-06
7.4015e-06
7.02257e-06
6.69669e-06
6.44264e-06
6.23985e-06
6.07564e-06
5.94101e-06
5.8271e-06
5.72732e-06
5.63738e-06
5.55419e-06
5.47526e-06
5.39871e-06
5.32312e-06
5.24749e-06
5.1711e-06
5.09349e-06
5.01439e-06
4.93364e-06
4.85115e-06
4.76682e-06
4.68037e-06
4.59122e-06
4.498e-06
4.39831e-06
4.28776e-06
4.16165e-06
4.00893e-06
5.01131e-06
5.85098e-06
6.52082e-06
6.50909e-06
6.33844e-06
6.12894e-06
5.84387e-06
5.55523e-06
5.30136e-06
5.07861e-06
4.88225e-06
4.70888e-06
4.5537e-06
4.41256e-06
4.28258e-06
4.16155e-06
4.0477e-06
3.93966e-06
3.83637e-06
3.73695e-06
3.64069e-06
3.54695e-06
3.45519e-06
3.36488e-06
3.27547e-06
3.18632e-06
3.09657e-06
3.00498e-06
2.90969e-06
2.80803e-06
2.69607e-06
2.57035e-06
2.42205e-06
4.00888e-06
4.70203e-06
5.28803e-06
5.35182e-06
5.24565e-06
5.09488e-06
4.87624e-06
4.64426e-06
4.43637e-06
4.25167e-06
4.08566e-06
3.93618e-06
3.80019e-06
3.67474e-06
3.5578e-06
3.44788e-06
3.3438e-06
3.24456e-06
3.14938e-06
3.05756e-06
2.96849e-06
2.88163e-06
2.79644e-06
2.71239e-06
2.62889e-06
2.54518e-06
2.46032e-06
2.373e-06
2.28143e-06
2.18328e-06
2.0755e-06
1.95588e-06
1.81755e-06
3.25266e-06
3.83224e-06
4.34604e-06
4.44925e-06
4.38994e-06
4.28676e-06
4.12322e-06
3.93568e-06
3.75857e-06
3.59616e-06
3.4471e-06
3.31137e-06
3.18761e-06
3.07375e-06
2.96812e-06
2.86938e-06
2.77637e-06
2.68809e-06
2.60372e-06
2.52254e-06
2.44393e-06
2.36733e-06
2.29218e-06
2.21791e-06
2.1439e-06
2.06937e-06
1.99339e-06
1.91476e-06
1.83199e-06
1.74334e-06
1.64676e-06
1.54143e-06
1.42268e-06
2.66949e-06
3.15974e-06
3.61973e-06
3.75605e-06
3.74065e-06
3.67441e-06
3.5491e-06
3.39249e-06
3.23727e-06
3.09172e-06
2.95632e-06
2.83182e-06
2.71769e-06
2.61246e-06
2.5148e-06
2.42359e-06
2.33786e-06
2.25675e-06
2.1795e-06
2.10548e-06
2.03407e-06
1.96473e-06
1.89689e-06
1.82999e-06
1.76339e-06
1.6964e-06
1.62818e-06
1.5578e-06
1.4842e-06
1.40639e-06
1.32349e-06
1.23622e-06
1.14252e-06
2.20972e-06
2.63205e-06
3.05234e-06
3.21189e-06
3.23016e-06
3.19269e-06
3.09942e-06
2.97211e-06
2.83926e-06
2.71063e-06
2.5881e-06
2.47333e-06
2.36682e-06
2.26798e-06
2.17601e-06
2.09015e-06
2.00963e-06
1.93375e-06
1.86183e-06
1.79326e-06
1.72747e-06
1.66392e-06
1.60209e-06
1.54144e-06
1.48144e-06
1.42151e-06
1.36106e-06
1.2995e-06
1.23639e-06
1.17155e-06
1.10536e-06
1.03997e-06
9.75927e-07
1.83973e-06
2.21145e-06
2.60246e-06
2.78028e-06
2.82773e-06
2.81578e-06
2.74939e-06
2.6464e-06
2.5318e-06
2.4167e-06
2.30462e-06
2.19804e-06
2.09821e-06
2.00512e-06
1.91834e-06
1.83732e-06
1.76148e-06
1.69021e-06
1.62293e-06
1.55911e-06
1.49825e-06
1.43988e-06
1.38355e-06
1.32882e-06
1.2753e-06
1.22262e-06
1.17049e-06
1.11878e-06
1.06764e-06
1.01771e-06
9.70418e-07
9.28779e-07
8.94958e-07
1.536e-06
1.87154e-06
2.24187e-06
2.43488e-06
2.50681e-06
2.5162e-06
2.4717e-06
2.38929e-06
2.29108e-06
2.18867e-06
2.08658e-06
1.98782e-06
1.89417e-06
1.80614e-06
1.72369e-06
1.64659e-06
1.57446e-06
1.50687e-06
1.44338e-06
1.38356e-06
1.32698e-06
1.27327e-06
1.22209e-06
1.17312e-06
1.12615e-06
1.08103e-06
1.03779e-06
9.96691e-07
9.58403e-07
9.2409e-07
8.95695e-07
8.76205e-07
8.6806e-07
1.28185e-06
1.5934e-06
1.95006e-06
2.15623e-06
2.24929e-06
2.27771e-06
2.25237e-06
2.1881e-06
2.10448e-06
2.01319e-06
1.91966e-06
1.82746e-06
1.73892e-06
1.65505e-06
1.57621e-06
1.50241e-06
1.43349e-06
1.36915e-06
1.30908e-06
1.25294e-06
1.20041e-06
1.1512e-06
1.1051e-06
1.06192e-06
1.02162e-06
9.84266e-07
9.50135e-07
9.19762e-07
8.94066e-07
8.74352e-07
8.62521e-07
8.60841e-07
8.71298e-07
1.06517e-06
1.36341e-06
1.71241e-06
1.93056e-06
2.04216e-06
2.0876e-06
2.07894e-06
2.03038e-06
1.95966e-06
1.87838e-06
1.79266e-06
1.70657e-06
1.62281e-06
1.54281e-06
1.46725e-06
1.3964e-06
1.33027e-06
1.26876e-06
1.21166e-06
1.15877e-06
1.10987e-06
1.06479e-06
1.02342e-06
9.85704e-07
9.51717e-07
9.2167e-07
8.95964e-07
8.75218e-07
8.60341e-07
8.5245e-07
8.5305e-07
8.63516e-07
8.85288e-07
8.77111e-07
1.17191e-06
1.51848e-06
1.74785e-06
1.87592e-06
1.93681e-06
1.94314e-06
1.90868e-06
1.84974e-06
1.77767e-06
1.6991e-06
1.61851e-06
1.53897e-06
1.46231e-06
1.38952e-06
1.32113e-06
1.25736e-06
1.19826e-06
1.14378e-06
1.09381e-06
1.04822e-06
1.00695e-06
9.69946e-07
9.37252e-07
9.09001e-07
8.85448e-07
8.66997e-07
8.54189e-07
8.47757e-07
8.48482e-07
8.57398e-07
8.75144e-07
9.02763e-07
7.11291e-07
1.0123e-06
1.36098e-06
1.60102e-06
1.74387e-06
1.81889e-06
1.83879e-06
1.81701e-06
1.76873e-06
1.70506e-06
1.63299e-06
1.5574e-06
1.48168e-06
1.40799e-06
1.33761e-06
1.2713e-06
1.20948e-06
1.15235e-06
1.09995e-06
1.05229e-06
1.00934e-06
9.71085e-07
9.37538e-07
9.08771e-07
8.84927e-07
8.66229e-07
8.52996e-07
8.4562e-07
8.44595e-07
8.50367e-07
8.63574e-07
8.84327e-07
9.13426e-07
5.63518e-07
8.80728e-07
1.23511e-06
1.48523e-06
1.64133e-06
1.72927e-06
1.76157e-06
1.75133e-06
1.71285e-06
1.65699e-06
1.591e-06
1.52007e-06
1.44789e-06
1.3769e-06
1.30866e-06
1.24414e-06
1.18393e-06
1.12838e-06
1.07764e-06
1.03181e-06
9.90911e-07
9.54976e-07
9.24036e-07
8.98156e-07
8.77441e-07
8.62038e-07
8.52146e-07
8.47985e-07
8.49824e-07
8.57851e-07
8.7241e-07
8.93316e-07
9.21197e-07
4.32315e-07
7.75813e-07
1.138e-06
1.39736e-06
1.56524e-06
1.66493e-06
1.70852e-06
1.70875e-06
1.67919e-06
1.63042e-06
1.56987e-06
1.503e-06
1.43373e-06
1.3648e-06
1.29799e-06
1.23449e-06
1.17505e-06
1.12015e-06
1.07005e-06
1.02491e-06
9.84814e-07
9.49802e-07
9.19912e-07
8.95182e-07
8.75664e-07
8.61422e-07
8.52538e-07
8.49088e-07
8.5117e-07
8.58779e-07
8.72062e-07
8.90622e-07
9.15012e-07
3.21819e-07
6.98945e-07
1.06858e-06
1.33578e-06
1.5139e-06
1.62417e-06
1.67807e-06
1.6879e-06
1.6666e-06
1.62452e-06
1.56919e-06
1.50626e-06
1.43989e-06
1.37302e-06
1.30764e-06
1.24511e-06
1.18632e-06
1.13184e-06
1.08201e-06
1.03705e-06
9.97063e-07
9.62105e-07
9.32201e-07
9.07359e-07
8.87576e-07
8.72847e-07
8.63161e-07
8.58492e-07
8.58821e-07
8.64038e-07
8.74173e-07
8.88796e-07
9.08337e-07
2.48698e-07
6.53436e-07
1.027e-06
1.29998e-06
1.48661e-06
1.60614e-06
1.66917e-06
1.6874e-06
1.67322e-06
1.6367e-06
1.58543e-06
1.52523e-06
1.46047e-06
1.3943e-06
1.32893e-06
1.26587e-06
1.20618e-06
1.15053e-06
1.09933e-06
1.05286e-06
1.01124e-06
9.74536e-07
9.42764e-07
9.15896e-07
8.9389e-07
8.76685e-07
8.64207e-07
8.56362e-07
8.53058e-07
8.54116e-07
8.59489e-07
8.68673e-07
8.82103e-07
2.45991e-07
6.43365e-07
1.01421e-06
1.29041e-06
1.48388e-06
1.61161e-06
1.68306e-06
1.7093e-06
1.70218e-06
1.67149e-06
1.62481e-06
1.56801e-06
1.5056e-06
1.44084e-06
1.37609e-06
1.31299e-06
1.25266e-06
1.19588e-06
1.14313e-06
1.0947e-06
1.05077e-06
1.0114e-06
9.7662e-07
9.46386e-07
9.20644e-07
8.9931e-07
8.8229e-07
8.69468e-07
8.60729e-07
8.55905e-07
8.5493e-07
8.57429e-07
8.63673e-07
3.19959e-07
6.72131e-07
1.03225e-06
1.30847e-06
1.50661e-06
1.64067e-06
1.71861e-06
1.75064e-06
1.74813e-06
1.72064e-06
1.67577e-06
1.61957e-06
1.55672e-06
1.49069e-06
1.424e-06
1.35844e-06
1.29525e-06
1.23527e-06
1.17901e-06
1.12681e-06
1.07884e-06
1.03517e-06
9.95791e-07
9.6066e-07
9.29699e-07
9.02809e-07
8.79885e-07
8.60802e-07
8.45446e-07
8.33649e-07
8.25343e-07
8.2012e-07
8.18356e-07
4.41391e-07
7.39673e-07
1.08273e-06
1.35643e-06
1.55815e-06
1.69855e-06
1.78385e-06
1.8233e-06
1.82758e-06
1.80586e-06
1.7655e-06
1.71247e-06
1.65147e-06
1.58603e-06
1.5188e-06
1.45168e-06
1.38603e-06
1.3228e-06
1.2626e-06
1.20584e-06
1.15275e-06
1.10342e-06
1.05791e-06
1.01616e-06
9.78138e-07
9.43742e-07
9.12887e-07
8.85475e-07
8.61421e-07
8.40627e-07
8.2306e-07
8.08575e-07
7.97258e-07
5.92493e-07
8.45075e-07
1.16816e-06
1.43659e-06
1.63873e-06
1.78145e-06
1.86898e-06
1.90977e-06
1.91433e-06
1.89185e-06
1.84987e-06
1.79453e-06
1.73067e-06
1.66197e-06
1.5911e-06
1.52003e-06
1.4501e-06
1.38227e-06
1.31713e-06
1.25506e-06
1.19627e-06
1.14084e-06
1.0888e-06
1.0401e-06
9.9468e-07
9.5245e-07
9.13333e-07
8.77248e-07
8.44139e-07
8.13926e-07
7.86614e-07
7.61997e-07
7.40419e-07
7.69543e-07
9.86886e-07
1.29078e-06
1.55468e-06
1.7603e-06
1.91102e-06
2.00843e-06
2.05914e-06
2.0725e-06
2.05696e-06
2.01966e-06
1.9667e-06
1.90305e-06
1.83263e-06
1.75842e-06
1.68266e-06
1.60697e-06
1.5325e-06
1.46002e-06
1.39004e-06
1.32285e-06
1.2586e-06
1.19734e-06
1.13906e-06
1.08368e-06
1.03115e-06
9.81372e-07
9.34283e-07
8.89833e-07
8.48008e-07
8.08814e-07
7.72392e-07
7.38494e-07
9.76959e-07
1.17039e-06
1.45768e-06
1.71254e-06
1.91147e-06
2.05565e-06
2.14592e-06
2.18942e-06
2.19626e-06
2.17526e-06
2.13354e-06
2.07696e-06
2.01022e-06
1.93693e-06
1.85977e-06
1.78077e-06
1.7014e-06
1.62271e-06
1.54542e-06
1.47002e-06
1.39681e-06
1.32596e-06
1.25753e-06
1.19154e-06
1.12793e-06
1.06665e-06
1.00764e-06
9.50824e-07
8.96162e-07
8.43605e-07
7.93151e-07
7.44734e-07
6.98459e-07
1.21873e-06
1.39218e-06
1.66909e-06
1.92836e-06
2.14344e-06
2.30972e-06
2.42168e-06
2.48257e-06
2.50106e-06
2.48582e-06
2.4446e-06
2.3843e-06
2.31067e-06
2.22827e-06
2.14055e-06
2.05011e-06
1.95881e-06
1.86797e-06
1.77846e-06
1.69085e-06
1.60549e-06
1.52254e-06
1.44207e-06
1.36406e-06
1.28846e-06
1.21517e-06
1.14412e-06
1.07522e-06
1.00842e-06
9.43689e-07
8.80957e-07
8.20515e-07
7.61397e-07
1.51563e-06
1.68615e-06
1.95164e-06
2.18612e-06
2.36873e-06
2.50329e-06
2.58962e-06
2.63358e-06
2.64374e-06
2.6268e-06
2.58802e-06
2.53211e-06
2.46324e-06
2.38486e-06
2.29984e-06
2.2105e-06
2.1187e-06
2.02588e-06
1.9331e-06
1.84115e-06
1.75055e-06
1.66165e-06
1.57467e-06
1.48968e-06
1.40673e-06
1.32579e-06
1.24683e-06
1.16979e-06
1.09463e-06
1.0213e-06
9.49749e-07
8.79991e-07
8.11567e-07
1.85948e-06
2.00869e-06
2.29169e-06
2.58263e-06
2.83737e-06
3.03477e-06
3.16091e-06
3.22096e-06
3.22886e-06
3.19738e-06
3.13692e-06
3.05615e-06
2.96178e-06
2.85872e-06
2.75047e-06
2.63951e-06
2.5276e-06
2.41594e-06
2.30536e-06
2.19643e-06
2.08951e-06
1.98482e-06
1.88247e-06
1.78253e-06
1.685e-06
1.58985e-06
1.49706e-06
1.40662e-06
1.31852e-06
1.23283e-06
1.1495e-06
1.06902e-06
9.89796e-07
2.34544e-06
2.52677e-06
2.75467e-06
2.9216e-06
3.0567e-06
3.18047e-06
3.2817e-06
3.35226e-06
3.39059e-06
3.3964e-06
3.37146e-06
3.31993e-06
3.24686e-06
3.15715e-06
3.0552e-06
2.94475e-06
2.82888e-06
2.70998e-06
2.58986e-06
2.46986e-06
2.35092e-06
2.23371e-06
2.11864e-06
2.00598e-06
1.89587e-06
1.78838e-06
1.68355e-06
1.58141e-06
1.48202e-06
1.38548e-06
1.29188e-06
1.20166e-06
1.11396e-06
2.82728e-06
2.96944e-06
3.39757e-06
3.83889e-06
4.17226e-06
4.37867e-06
4.46822e-06
4.47233e-06
4.42118e-06
4.33315e-06
4.2196e-06
4.0886e-06
3.94579e-06
3.79504e-06
3.63937e-06
3.48127e-06
3.32279e-06
3.16561e-06
3.01109e-06
2.86027e-06
2.71391e-06
2.57249e-06
2.43633e-06
2.30552e-06
2.18007e-06
2.05987e-06
1.94479e-06
1.83468e-06
1.72945e-06
1.62915e-06
1.53376e-06
1.44427e-06
1.35867e-06
3.87452e-06
4.00554e-06
3.952e-06
3.90956e-06
4.04087e-06
4.27356e-06
4.48469e-06
4.62564e-06
4.69371e-06
4.699e-06
4.6581e-06
4.58913e-06
4.50678e-06
4.42122e-06
4.33885e-06
4.263e-06
4.19485e-06
4.13419e-06
4.08013e-06
4.03146e-06
3.98697e-06
3.94553e-06
3.90619e-06
3.86816e-06
3.83079e-06
3.79357e-06
3.75608e-06
3.71801e-06
3.67919e-06
3.63964e-06
3.59961e-06
3.56061e-06
3.52159e-06
4.34315e-06
4.95549e-06
5.96593e-06
6.47015e-06
6.6006e-06
6.58677e-06
6.58161e-06
6.68949e-06
6.94084e-06
7.30537e-06
7.73488e-06
8.18598e-06
8.62533e-06
9.03049e-06
9.38854e-06
9.69347e-06
9.94394e-06
1.01415e-05
1.02897e-05
1.03925e-05
1.04548e-05
1.04812e-05
1.04759e-05
1.04431e-05
1.03863e-05
1.03086e-05
1.02126e-05
1.01003e-05
9.97362e-06
9.8336e-06
9.68219e-06
9.52142e-06
9.35339e-06
7.5409e-06
5.82797e-06
4.66589e-06
6.26927e-06
8.99539e-06
1.16986e-05
1.40235e-05
1.59102e-05
1.73578e-05
1.83809e-05
1.9016e-05
1.93108e-05
1.93145e-05
1.90759e-05
1.86414e-05
1.80532e-05
1.73484e-05
1.65588e-05
1.57111e-05
1.4827e-05
1.39241e-05
1.30162e-05
1.2114e-05
1.12254e-05
1.03561e-05
9.50994e-06
8.68918e-06
7.89432e-06
7.12529e-06
6.37872e-06
5.6557e-06
4.94462e-06
4.26272e-06
8.58351e-06
1.47446e-05
1.88498e-05
2.12517e-05
2.2339e-05
2.18663e-05
2.00107e-05
1.72262e-05
1.39849e-05
1.09169e-05
9.03955e-06
9.42265e-06
1.18016e-05
1.50895e-05
1.86072e-05
2.20537e-05
2.52975e-05
2.82816e-05
3.09856e-05
3.34082e-05
3.55586e-05
3.74521e-05
3.91064e-05
4.05404e-05
4.1773e-05
4.28228e-05
4.37072e-05
4.44436e-05
4.50485e-05
4.55433e-05
4.59429e-05
4.63056e-05
4.66201e-05
3.46355e-05
3.72215e-05
4.66619e-05
6.17845e-05
7.74878e-05
9.28841e-05
0.000107274
0.000119951
0.000130729
0.000139652
0.000146831
0.00015243
0.000156635
0.000159631
0.000161593
0.000162679
0.00016303
0.000162769
0.000162003
0.000160821
0.000159302
0.00015751
0.000155499
0.000153315
0.000150996
0.000148571
0.000146067
0.000143502
0.000140892
0.000138244
0.000135558
0.000132926
0.000130358
0.000608442
0.000582501
0.000556879
0.000530416
0.000504413
0.000479185
0.000454774
0.000431448
0.000409387
0.000388646
0.000369242
0.000351157
0.000334343
0.000318732
0.000304245
0.000290798
0.000278305
0.000266684
0.000255856
0.000245747
0.000236289
0.00022742
0.000219083
0.000211227
0.000203807
0.000196782
0.000190115
0.00018377
0.000177708
0.000171909
0.000166243
0.000161246
0.000156689
8.20779e-05
7.92371e-05
7.76505e-05
7.84169e-05
8.05408e-05
8.21295e-05
7.9383e-05
7.17814e-05
6.70893e-05
6.63654e-05
6.46229e-05
5.93927e-05
5.0856e-05
4.14435e-05
3.33601e-05
2.63008e-05
2.53736e-05
3.16562e-05
4.09408e-05
4.28995e-05
4.20219e-05
4.61854e-05
4.75496e-05
4.36836e-05
3.86713e-05
3.54713e-05
3.56738e-05
3.615e-05
3.54512e-05
3.41176e-05
3.12009e-05
2.63705e-05
2.08193e-05
1.54771e-05
1.02958e-05
4.79591e-06
1.93764e-06
8.90532e-06
1.62778e-05
2.20724e-05
2.48496e-05
2.56e-05
2.60928e-05
2.66054e-05
2.64682e-05
2.51391e-05
2.29324e-05
2.06504e-05
1.87138e-05
1.70586e-05
1.55435e-05
1.41508e-05
1.2947e-05
1.20452e-05
1.15505e-05
1.13918e-05
1.15561e-05
1.28409e-05
1.59414e-05
2.36946e-05
3.93527e-05
5.25895e-05
5.52648e-05
4.97836e-05
4.13091e-05
3.20798e-05
2.26863e-05
1.40003e-05
7.73612e-06
9.17957e-06
1.75084e-05
3.00567e-05
4.4179e-05
5.32006e-05
5.23427e-05
4.3461e-05
3.2334e-05
2.34256e-05
1.77269e-05
1.41862e-05
1.17344e-05
9.83763e-06
8.30437e-06
7.11158e-06
6.29285e-06
5.87507e-06
5.90075e-06
6.4365e-06
7.59944e-06
9.94342e-06
1.49174e-05
2.39973e-05
3.5673e-05
4.51519e-05
4.77929e-05
4.36097e-05
3.15415e-05
1.99758e-05
1.94665e-05
2.63318e-05
0.000112067
0.000108247
0.000105189
0.000103755
0.000104166
0.000106027
0.000107297
0.000102266
8.89653e-05
7.60169e-05
6.73752e-05
5.87198e-05
4.75744e-05
3.52862e-05
2.3054e-05
1.68689e-05
2.41383e-05
3.76737e-05
4.32354e-05
3.68757e-05
3.68088e-05
4.3016e-05
4.32559e-05
3.87848e-05
3.44838e-05
3.20639e-05
3.19914e-05
3.32281e-05
3.33717e-05
3.25942e-05
3.11419e-05
2.82772e-05
2.38881e-05
1.88028e-05
1.40435e-05
1.11727e-05
1.23268e-05
1.66523e-05
2.12068e-05
2.39601e-05
2.49619e-05
2.57115e-05
2.67757e-05
2.74283e-05
2.68094e-05
2.48965e-05
2.24956e-05
2.03251e-05
1.85228e-05
1.69394e-05
1.54803e-05
1.4162e-05
1.30464e-05
1.22204e-05
1.17857e-05
1.16896e-05
1.18388e-05
1.29362e-05
1.5952e-05
2.27757e-05
3.81435e-05
5.32943e-05
5.78131e-05
5.27929e-05
4.38007e-05
3.38127e-05
2.36439e-05
1.38865e-05
5.39583e-06
6.79402e-06
1.70101e-05
3.10258e-05
4.5988e-05
5.47683e-05
5.29628e-05
4.32815e-05
3.19746e-05
2.33294e-05
1.791e-05
1.4486e-05
1.2042e-05
1.01082e-05
8.52084e-06
7.26788e-06
6.39791e-06
5.95298e-06
5.96501e-06
6.48555e-06
7.62587e-06
9.90626e-06
1.47166e-05
2.36373e-05
3.551e-05
4.57168e-05
4.92647e-05
4.59545e-05
3.48464e-05
2.46183e-05
2.50385e-05
2.79207e-05
0.000102391
0.000102313
0.000101975
0.000102354
0.000104088
0.000107343
0.000111533
0.00011487
0.000111401
9.77775e-05
8.02111e-05
6.45176e-05
5.05127e-05
3.73051e-05
2.72532e-05
2.83867e-05
3.91364e-05
4.51764e-05
3.67911e-05
2.84147e-05
3.65582e-05
4.21799e-05
4.00907e-05
3.54223e-05
3.19604e-05
3.03144e-05
2.98768e-05
3.10471e-05
3.19993e-05
3.16319e-05
3.05622e-05
2.89888e-05
2.6611e-05
2.35939e-05
2.08335e-05
1.94455e-05
2.00045e-05
2.18368e-05
2.35225e-05
2.44031e-05
2.52079e-05
2.65903e-05
2.7943e-05
2.81338e-05
2.67238e-05
2.43492e-05
2.19518e-05
1.99556e-05
1.82881e-05
1.67916e-05
1.5413e-05
1.41828e-05
1.31549e-05
1.23963e-05
1.20042e-05
1.1959e-05
1.21176e-05
1.2998e-05
1.58037e-05
2.17812e-05
3.63566e-05
5.33356e-05
6.02451e-05
5.61992e-05
4.69151e-05
3.62288e-05
2.53629e-05
1.47972e-05
4.6801e-06
5.42753e-06
1.73108e-05
3.27385e-05
4.83673e-05
5.65527e-05
5.34778e-05
4.28819e-05
3.1467e-05
2.31923e-05
1.80993e-05
1.48029e-05
1.23682e-05
1.03945e-05
8.74935e-06
7.43216e-06
6.4947e-06
5.99367e-06
5.97978e-06
6.50177e-06
7.64016e-06
9.85304e-06
1.44633e-05
2.31488e-05
3.51543e-05
4.61312e-05
5.077e-05
4.8573e-05
3.87358e-05
2.9726e-05
3.08428e-05
3.03658e-05
7.51969e-05
7.63212e-05
7.76671e-05
7.98224e-05
8.32215e-05
8.80354e-05
9.40596e-05
0.000100668
0.000105989
0.000105529
9.63562e-05
8.16614e-05
6.67652e-05
5.49786e-05
4.95766e-05
4.99485e-05
4.82232e-05
3.62229e-05
2.18043e-05
2.97758e-05
3.99238e-05
4.06862e-05
3.65848e-05
3.26038e-05
3.01662e-05
2.89848e-05
2.84328e-05
2.88857e-05
3.03809e-05
3.10979e-05
3.05276e-05
2.92895e-05
2.77548e-05
2.60359e-05
2.4514e-05
2.36345e-05
2.35244e-05
2.38759e-05
2.43062e-05
2.50172e-05
2.64537e-05
2.82014e-05
2.90663e-05
2.82462e-05
2.60762e-05
2.35502e-05
2.13558e-05
1.95754e-05
1.80407e-05
1.66368e-05
1.53473e-05
1.42078e-05
1.32639e-05
1.25675e-05
1.22094e-05
1.22054e-05
1.23981e-05
1.31103e-05
1.563e-05
2.08599e-05
3.41006e-05
5.26046e-05
6.24702e-05
6.00812e-05
5.08428e-05
3.95296e-05
2.80113e-05
1.69192e-05
6.97388e-06
6.82686e-06
1.89263e-05
3.54765e-05
5.13547e-05
5.83879e-05
5.36724e-05
4.21398e-05
3.08038e-05
2.30472e-05
1.83158e-05
1.51445e-05
1.27152e-05
1.0697e-05
8.98865e-06
7.60357e-06
6.59692e-06
6.02978e-06
5.97128e-06
6.48817e-06
7.63817e-06
9.7943e-06
1.41852e-05
2.25632e-05
3.46155e-05
4.63733e-05
5.22555e-05
5.1382e-05
4.30479e-05
3.5246e-05
3.70706e-05
3.33792e-05
2.95626e-05
3.12247e-05
3.33295e-05
3.632e-05
4.05798e-05
4.63265e-05
5.34907e-05
6.16094e-05
6.98989e-05
7.67952e-05
7.95438e-05
7.65884e-05
6.94603e-05
6.14697e-05
5.38188e-05
4.33699e-05
2.72062e-05
1.36979e-05
2.63682e-05
3.82128e-05
4.04656e-05
3.7015e-05
3.28874e-05
3.00866e-05
2.83424e-05
2.7253e-05
2.67051e-05
2.66574e-05
2.78042e-05
2.9571e-05
3.04104e-05
2.99895e-05
2.88415e-05
2.74684e-05
2.62228e-05
2.53798e-05
2.50029e-05
2.50602e-05
2.56318e-05
2.69086e-05
2.86134e-05
2.97477e-05
2.93749e-05
2.75069e-05
2.49963e-05
2.26654e-05
2.07708e-05
1.91919e-05
1.77789e-05
1.64728e-05
1.52783e-05
1.42275e-05
1.33604e-05
1.27191e-05
1.23857e-05
1.24095e-05
1.26436e-05
1.32306e-05
1.54091e-05
2.00466e-05
3.14973e-05
5.08402e-05
6.40755e-05
6.42122e-05
5.55962e-05
4.38681e-05
3.17965e-05
2.04612e-05
1.14758e-05
1.10275e-05
2.22927e-05
3.9464e-05
5.49371e-05
6.01204e-05
5.34051e-05
4.10056e-05
2.99943e-05
2.28938e-05
1.85434e-05
1.54956e-05
1.30707e-05
1.1005e-05
9.22847e-06
7.76927e-06
6.68709e-06
6.04712e-06
5.9349e-06
6.44167e-06
7.61303e-06
9.72755e-06
1.3888e-05
2.18754e-05
3.38312e-05
4.63012e-05
5.35332e-05
5.41889e-05
4.75901e-05
4.09673e-05
4.32002e-05
3.6347e-05
4.05004e-06
3.21085e-06
2.1069e-06
1.28569e-06
3.31369e-06
7.15912e-06
1.23491e-05
1.86248e-05
2.53685e-05
3.16634e-05
3.62568e-05
3.77113e-05
3.52781e-05
2.90217e-05
1.82623e-05
3.2019e-06
1.45969e-05
2.98621e-05
3.84194e-05
3.9526e-05
3.62529e-05
3.23483e-05
2.94731e-05
2.74807e-05
2.59882e-05
2.4921e-05
2.44016e-05
2.43571e-05
2.49771e-05
2.66728e-05
2.86885e-05
2.98668e-05
2.99314e-05
2.9266e-05
2.83629e-05
2.76345e-05
2.73205e-05
2.75443e-05
2.83503e-05
2.95223e-05
3.0369e-05
3.00844e-05
2.84696e-05
2.61075e-05
2.37688e-05
2.18183e-05
2.02134e-05
1.88059e-05
1.751e-05
1.63061e-05
1.52064e-05
1.42384e-05
1.34391e-05
1.2847e-05
1.25324e-05
1.25702e-05
1.28485e-05
1.33616e-05
1.51597e-05
1.93148e-05
2.87807e-05
4.79069e-05
6.45864e-05
6.82328e-05
6.1125e-05
4.94319e-05
3.70077e-05
2.56594e-05
1.76034e-05
1.72484e-05
2.77865e-05
4.49176e-05
5.9025e-05
6.15077e-05
5.2492e-05
3.94418e-05
2.90774e-05
2.27565e-05
1.87904e-05
1.58621e-05
1.34393e-05
1.13215e-05
9.47015e-06
7.92777e-06
6.75981e-06
6.03869e-06
5.86642e-06
6.3604e-06
7.5625e-06
9.65517e-06
1.35872e-05
2.11087e-05
3.27835e-05
4.58115e-05
5.4434e-05
5.67887e-05
5.20982e-05
4.65291e-05
4.87835e-05
3.87595e-05
9.1472e-06
8.96854e-06
8.54774e-06
7.73084e-06
6.46225e-06
5.07933e-06
5.10557e-06
7.8836e-06
1.21231e-05
1.63166e-05
1.93004e-05
2.04675e-05
2.02688e-05
2.06798e-05
2.41175e-05
3.0298e-05
3.60024e-05
3.84136e-05
3.71632e-05
3.39557e-05
3.07544e-05
2.83078e-05
2.63754e-05
2.47076e-05
2.33377e-05
2.23862e-05
2.19398e-05
2.20064e-05
2.24847e-05
2.36125e-05
2.55516e-05
2.76835e-05
2.92299e-05
2.99595e-05
3.01001e-05
3.0006e-05
2.99836e-05
3.01981e-05
3.05838e-05
3.07737e-05
3.02501e-05
2.87806e-05
2.66753e-05
2.4504e-05
2.26229e-05
2.10536e-05
1.96811e-05
1.8419e-05
1.72371e-05
1.61353e-05
1.51262e-05
1.42337e-05
1.34946e-05
1.29471e-05
1.26486e-05
1.26872e-05
1.30037e-05
1.34924e-05
1.49178e-05
1.86021e-05
2.62228e-05
4.38698e-05
6.35304e-05
7.1607e-05
6.71915e-05
5.62976e-05
4.38889e-05
3.27242e-05
2.54326e-05
2.53841e-05
3.54952e-05
5.17598e-05
6.32652e-05
6.21637e-05
5.07441e-05
3.74693e-05
2.81202e-05
2.26553e-05
1.90598e-05
1.62464e-05
1.3823e-05
1.16484e-05
9.7161e-06
8.0825e-06
6.81757e-06
6.00186e-06
5.75887e-06
6.2375e-06
7.48108e-06
9.57655e-06
1.32957e-05
2.02977e-05
3.14878e-05
4.48258e-05
5.47626e-05
5.88883e-05
5.6182e-05
5.14669e-05
5.32551e-05
4.00809e-05
5.10383e-06
4.92998e-06
4.58864e-06
4.00734e-06
3.25562e-06
2.94477e-06
4.2931e-06
7.32508e-06
1.15136e-05
1.63805e-05
2.12815e-05
2.55623e-05
2.8929e-05
3.17169e-05
3.39275e-05
3.504e-05
3.45864e-05
3.27582e-05
3.04246e-05
2.83502e-05
2.66468e-05
2.50568e-05
2.34672e-05
2.19979e-05
2.08164e-05
2.00357e-05
1.96934e-05
1.98e-05
2.02957e-05
2.11302e-05
2.24757e-05
2.43599e-05
2.63758e-05
2.80657e-05
2.92399e-05
2.99412e-05
3.02948e-05
3.03964e-05
3.01945e-05
2.95104e-05
2.82351e-05
2.65219e-05
2.47123e-05
2.30675e-05
2.1637e-05
2.03542e-05
1.91585e-05
1.80274e-05
1.69584e-05
1.59561e-05
1.5032e-05
1.42091e-05
1.35245e-05
1.30175e-05
1.27344e-05
1.27627e-05
1.31021e-05
1.36052e-05
1.4722e-05
1.78677e-05
2.40228e-05
3.90296e-05
6.04854e-05
7.35497e-05
7.32096e-05
6.42584e-05
5.25065e-05
4.17981e-05
3.51795e-05
3.5542e-05
4.52572e-05
5.95611e-05
6.7031e-05
6.16032e-05
4.80184e-05
3.51774e-05
2.7198e-05
2.26037e-05
1.93559e-05
1.6653e-05
1.4225e-05
1.19878e-05
9.96731e-06
8.2325e-06
6.85789e-06
5.93409e-06
5.60953e-06
6.06986e-06
7.36493e-06
9.4907e-06
1.3026e-05
1.94828e-05
2.9987e-05
4.32934e-05
5.43114e-05
6.01371e-05
5.9367e-05
5.52174e-05
5.6027e-05
3.99006e-05
2.9839e-06
2.73667e-06
2.35136e-06
1.82039e-06
1.43322e-06
2.08681e-06
3.81421e-06
6.23961e-06
9.26877e-06
1.28408e-05
1.6765e-05
2.06364e-05
2.39786e-05
2.63737e-05
2.77056e-05
2.79688e-05
2.74483e-05
2.6577e-05
2.5636e-05
2.4635e-05
2.34719e-05
2.21422e-05
2.0776e-05
1.95428e-05
1.85669e-05
1.7925e-05
1.766e-05
1.77741e-05
1.82588e-05
1.90398e-05
2.00722e-05
2.14176e-05
2.30316e-05
2.46836e-05
2.61226e-05
2.71739e-05
2.77624e-05
2.78799e-05
2.75246e-05
2.67212e-05
2.55853e-05
2.43107e-05
2.30589e-05
2.18828e-05
2.07635e-05
1.96806e-05
1.86337e-05
1.76296e-05
1.66719e-05
1.57648e-05
1.49205e-05
1.41631e-05
1.35287e-05
1.30581e-05
1.27899e-05
1.28004e-05
1.31405e-05
1.36773e-05
1.45874e-05
1.7129e-05
2.22173e-05
3.39557e-05
5.52931e-05
7.31346e-05
7.81719e-05
7.26474e-05
6.25586e-05
5.27831e-05
4.68738e-05
4.76133e-05
5.648e-05
6.73819e-05
6.93876e-05
5.93143e-05
4.43043e-05
3.27455e-05
2.6384e-05
2.26109e-05
1.96851e-05
1.70871e-05
1.46491e-05
1.23434e-05
1.02274e-05
8.38161e-06
6.88379e-06
5.83493e-06
5.41462e-06
5.85364e-06
7.21068e-06
9.39605e-06
1.2789e-05
1.87097e-05
2.83643e-05
4.12356e-05
5.29274e-05
6.01946e-05
6.11408e-05
5.71984e-05
5.6584e-05
3.79867e-05
2.19519e-06
1.95915e-06
1.64522e-06
1.35276e-06
1.49664e-06
2.42109e-06
3.95014e-06
5.92837e-06
8.2668e-06
1.08785e-05
1.36474e-05
1.64005e-05
1.88767e-05
2.0808e-05
2.2098e-05
2.27985e-05
2.30208e-05
2.28553e-05
2.23669e-05
2.1606e-05
2.06247e-05
1.95057e-05
1.83654e-05
1.73283e-05
1.64981e-05
1.59501e-05
1.57356e-05
1.58663e-05
1.63295e-05
1.70875e-05
1.80541e-05
1.91641e-05
2.03932e-05
2.16659e-05
2.28576e-05
2.38191e-05
2.4438e-05
2.46631e-05
2.4505e-05
2.40344e-05
2.33596e-05
2.25766e-05
2.17337e-05
2.08465e-05
1.99301e-05
1.90089e-05
1.8104e-05
1.72252e-05
1.63752e-05
1.55591e-05
1.47911e-05
1.4096e-05
1.35084e-05
1.30693e-05
1.28144e-05
1.28034e-05
1.31195e-05
1.36873e-05
1.4496e-05
1.64559e-05
2.06949e-05
2.93434e-05
4.82969e-05
6.95564e-05
8.07044e-05
8.01941e-05
7.31219e-05
6.50276e-05
6.00077e-05
6.08964e-05
6.79226e-05
7.37357e-05
6.92165e-05
5.49393e-05
3.98187e-05
3.04123e-05
2.57243e-05
2.26821e-05
2.00552e-05
1.75544e-05
1.50999e-05
1.27196e-05
1.05e-05
8.53196e-06
6.8959e-06
5.70366e-06
5.17183e-06
5.58741e-06
7.01723e-06
9.29081e-06
1.25934e-05
1.80217e-05
2.67354e-05
3.87711e-05
5.05793e-05
5.882e-05
6.10697e-05
5.69544e-05
5.4645e-05
3.4389e-05
1.70887e-06
1.5351e-06
1.36628e-06
1.35913e-06
1.7673e-06
2.66541e-06
3.97697e-06
5.63205e-06
7.56414e-06
9.68745e-06
1.18911e-05
1.40441e-05
1.60028e-05
1.76405e-05
1.88653e-05
1.96308e-05
1.99496e-05
1.98871e-05
1.95204e-05
1.89075e-05
1.80975e-05
1.71586e-05
1.61866e-05
1.52901e-05
1.45678e-05
1.40958e-05
1.39247e-05
1.40719e-05
1.45226e-05
1.52438e-05
1.61731e-05
1.72252e-05
1.83263e-05
1.94109e-05
2.04049e-05
2.12294e-05
2.18186e-05
2.21378e-05
2.21925e-05
2.20201e-05
2.16672e-05
2.11697e-05
2.05545e-05
1.98534e-05
1.91037e-05
1.83373e-05
1.75722e-05
1.68148e-05
1.60682e-05
1.53397e-05
1.46452e-05
1.40094e-05
1.34649e-05
1.30517e-05
1.28063e-05
1.27736e-05
1.30449e-05
1.36201e-05
1.44039e-05
1.59148e-05
1.9341e-05
2.56795e-05
4.0468e-05
6.25399e-05
7.93457e-05
8.504e-05
8.24587e-05
7.70138e-05
7.31788e-05
7.3761e-05
7.75348e-05
7.67049e-05
6.55073e-05
4.85237e-05
3.50502e-05
2.84004e-05
2.52332e-05
2.28241e-05
2.04748e-05
1.80616e-05
1.55841e-05
1.31227e-05
1.07912e-05
8.68936e-06
6.89914e-06
5.54163e-06
4.87788e-06
5.26921e-06
6.7851e-06
9.17288e-06
1.24434e-05
1.74539e-05
2.52273e-05
3.61174e-05
4.74229e-05
5.59974e-05
5.89641e-05
5.4353e-05
5.03458e-05
2.94862e-05
1.38872e-06
1.30283e-06
1.29133e-06
1.47895e-06
1.97365e-06
2.79397e-06
3.9133e-06
5.29704e-06
6.89962e-06
8.65528e-06
1.04753e-05
1.22545e-05
1.38856e-05
1.52642e-05
1.63089e-05
1.69855e-05
1.73085e-05
1.73143e-05
1.70443e-05
1.65433e-05
1.586e-05
1.50564e-05
1.42143e-05
1.34286e-05
1.27912e-05
1.23779e-05
1.22405e-05
1.2399e-05
1.28393e-05
1.35276e-05
1.44093e-05
1.54143e-05
1.64674e-05