/*--------------------------------*- C++ -*----------------------------------*\
| =========                 |                                                 |
| \\      /  F ield         | OpenFOAM: The Open Source CFD Toolbox           |
|  \\    /   O peration     | Version:  2.1.1                                 |
|   \\  /    A nd           | Web:      www.OpenFOAM.org                      |
|    \\/     M anipulation  |                                                 |
\*---------------------------------------------------------------------------*/
FoamFile
{
    version     2.0;
    format      ascii;
    class       volScalarField;
    location    "0.15";
    object      p;
}
// * * * * * * * * * * * * * * * * * * * * * * * * * * * * * * * * * * * * * //

dimensions      [0 2 -2 0 0 0 0];

internalField   nonuniform List<scalar> 
6820
(
21.6821
3.84745
0.841915
0.658248
0.490252
0.569861
0.634542
0.632037
0.596824
0.544197
0.482735
0.417776
0.351864
0.286255
0.221674
0.158586
0.0973338
0.0381969
-0.0185916
-0.0728373
-0.124383
-0.173109
-0.218938
-0.261833
-0.301823
-0.338954
-0.373482
-0.405334
-0.435875
-0.462596
-0.49546
-0.508392
-0.580044
15.0004
4.02819
1.15266
0.856078
0.60822
0.591877
0.620116
0.606491
0.569561
0.51989
0.462368
0.401009
0.338077
0.274785
0.21193
0.150088
0.0897151
0.0311805
-0.0252109
-0.0792099
-0.130617
-0.179281
-0.225098
-0.26801
-0.308021
-0.345171
-0.379647
-0.411471
-0.44156
-0.468554
-0.499001
-0.517283
-0.577703
12.2851
5.45769
2.17216
1.41771
0.954199
0.763132
0.712627
0.666185
0.609817
0.54771
0.481441
0.413376
0.345317
0.278243
0.212699
0.148989
0.0873362
0.0279419
-0.0290145
-0.0833743
-0.135002
-0.18379
-0.229658
-0.27256
-0.312491
-0.349458
-0.383578
-0.414754
-0.443456
-0.468032
-0.490428
-0.495759
-0.485439
10.2989
5.68405
2.59262
1.73658
1.26906
0.998732
0.877925
0.787206
0.699558
0.616686
0.537131
0.459953
0.385044
0.31237
0.242067
0.174249
0.109003
0.0464179
-0.0134074
-0.0703727
-0.124385
-0.175365
-0.223251
-0.267993
-0.309562
-0.347914
-0.383022
-0.414629
-0.44255
-0.465002
-0.480645
-0.479502
-0.451885
8.66241
5.58251
2.98305
2.08262
1.57912
1.22929
1.03804
0.907379
0.794746
0.694675
0.602865
0.516151
0.433774
0.355292
0.280119
0.208082
0.13914
0.0732835
0.0105216
-0.0491204
-0.105609
-0.158908
-0.208978
-0.255772
-0.29923
-0.339235
-0.375609
-0.407897
-0.435422
-0.456284
-0.467753
-0.463197
-0.431737
7.43863
5.40038
3.23255
2.29129
1.76856
1.39141
1.16498
1.01119
0.882072
0.768786
0.666884
0.572363
0.483415
0.39927
0.319408
0.24339
0.170951
0.101934
0.0362471
-0.0261595
-0.0853039
-0.141183
-0.193774
-0.243028
-0.288855
-0.331082
-0.36942
-0.403301
-0.431836
-0.453263
-0.465072
-0.463011
-0.441827
6.48664
5.11263
3.3484
2.44424
1.93368
1.54806
1.2912
1.11161
0.964111
0.836906
0.724675
0.622398
0.527373
0.438345
0.354381
0.27478
0.199132
0.127195
0.0588102
-0.00612451
-0.0676699
-0.125855
-0.180677
-0.232097
-0.280017
-0.324245
-0.364456
-0.400073
-0.430205
-0.453385
-0.467568
-0.470011
-0.45747
5.73921
4.80499
3.39796
2.55824
2.05905
1.67159
1.39571
1.19852
1.03859
0.901418
0.781037
0.672166
0.571615
0.477772
0.389553
0.306177
0.227149
0.152139
0.0809161
0.0133137
-0.0507793
-0.111431
-0.16867
-0.222475
-0.272762
-0.319349
-0.361926
-0.399973
-0.432715
-0.459006
-0.477338
-0.485971
-0.483031
5.14538
4.49973
3.38606
2.62639
2.14944
1.77337
1.49078
1.28164
1.11127
0.964801
0.836318
0.720706
0.614501
0.515818
0.423409
0.336358
0.254035
0.176012
0.101983
0.0317262
-0.0349169
-0.098053
-0.157742
-0.213993
-0.26675
-0.315872
-0.361105
-0.402039
-0.438084
-0.468437
-0.492114
-0.508148
-0.51559
4.6673
4.21248
3.33613
2.66494
2.21677
1.85627
1.57249
1.35504
1.17668
1.02304
0.888091
0.766896
0.655858
0.552892
0.456634
0.366083
0.280539
0.199516
0.122657
0.0496938
-0.0195735
-0.0852918
-0.14756
-0.206425
-0.26188
-0.313843
-0.362149
-0.406526
-0.446595
-0.481884
-0.511875
-0.536183
-0.554591
4.27805
3.9509
3.26197
2.67771
2.26173
1.92023
1.64144
1.42074
1.23751
1.07863
0.938304
0.812039
0.696383
0.589207
0.489104
0.395035
0.306248
0.222199
0.142479
0.066772
-0.00516821
-0.0735309
-0.138458
-0.200046
-0.258344
-0.313346
-0.364991
-0.413159
-0.457686
-0.498395
-0.535164
-0.568055
-0.597418
3.95798
3.71736
3.17445
2.67154
2.29023
1.96989
1.69984
1.47904
1.29283
1.13002
0.98531
0.854699
0.734969
0.624
0.520365
0.423002
0.331122
0.244138
0.161604
0.0831647
0.00853656
-0.0625113
-0.130166
-0.194575
-0.255852
-0.314075
-0.369294
-0.421536
-0.470836
-0.51727
-0.561035
-0.602515
-0.642469
3.69275
3.51178
3.08167
2.65176
2.30536
2.00675
1.74782
1.52977
1.34273
1.17762
1.02972
0.895564
0.772261
0.6578
0.550801
0.450225
0.355278
0.265357
0.179986
0.0987791
0.0214166
-0.0523734
-0.122824
-0.190138
-0.254496
-0.31606
-0.374986
-0.431439
-0.485627
-0.537826
-0.588477
-0.638183
-0.687973
3.47181
3.3327
2.98928
2.62295
2.31047
2.03361
1.78729
1.57406
1.38779
1.22151
1.07126
0.93415
0.807683
0.690029
0.579888
0.476263
0.378373
0.285602
0.197456
0.113524
0.0334505
-0.0430727
-0.116324
-0.186559
-0.254024
-0.31896
-0.38162
-0.442286
-0.501306
-0.55911
-0.616305
-0.673631
-0.732264
3.28731
3.17813
2.90118
2.58905
2.30839
2.05255
1.81937
1.6123
1.42807
1.26165
1.10991
0.970504
0.841356
0.720852
0.607806
0.501288
0.40055
0.304986
0.214095
0.127447
0.0446621
-0.0346014
-0.110663
-0.183828
-0.254402
-0.322695
-0.389043
-0.453825
-0.517488
-0.580572
-0.643784
-0.707929
-0.774231
3.13339
3.04598
2.82001
2.55326
2.30166
2.06563
1.84557
1.64549
1.46423
1.29846
1.14587
1.00466
0.873189
0.750091
0.634325
0.525052
0.42157
0.323296
0.229729
0.140427
0.0549905
-0.0269531
-0.105759
-0.181778
-0.255365
-0.326891
-0.396755
-0.465407
-0.533365
-0.601233
-0.669765
-0.739777
-0.81247
3.00563
2.93432
2.74746
2.51821
2.29251
2.07473
1.86723
1.67445
1.49671
1.33213
1.17917
1.03659
0.903121
0.777686
0.659399
0.547517
0.441403
0.340501
0.244324
0.152424
0.064387
-0.0201817
-0.101667
-0.180456
-0.256944
-0.331546
-0.404711
-0.476931
-0.548768
-0.620851
-0.693938
-0.768816
-0.846607
2.90075
2.84146
2.68465
2.48601
2.28287
2.08155
1.88572
1.70014
1.52617
1.3631
1.21012
1.06645
0.931245
0.803669
0.683013
0.568648
0.460007
0.356574
0.257879
0.163479
0.0729505
-0.0141191
-0.0981391
-0.179523
-0.258696
-0.336108
-0.412235
-0.487596
-0.562768
-0.638377
-0.715157
-0.793835
-0.875433
2.81626
2.76605
2.63231
2.45835
2.27448
2.08762
1.90231
1.72348
1.55323
1.39176
1.23889
1.09431
0.957499
0.827906
0.704985
0.588224
0.477131
0.371239
0.270097
0.173272
0.0803378
-0.00912857
-0.0955525
-0.179367
-0.261018
-0.340973
-0.419725
-0.497797
-0.575761
-0.65422
-0.733857
-0.815326
-0.899519
2.75037
2.70702
2.59095
2.43663
2.26883
2.09436
1.91822
1.74542
1.57858
1.4186
1.26586
1.12041
0.982093
0.850576
0.725488
0.606433
0.492996
0.38476
0.281303
0.182202
0.0870332
-0.00463129
-0.0932272
-0.179199
-0.263006
-0.345121
-0.42604
-0.506281
-0.586393
-0.666943
-0.748554
-0.831803
-0.917462
2.70183
2.66364
2.56097
2.42204
2.26727
2.10306
1.93458
1.76685
1.60286
1.44404
1.2912
1.14477
1.00486
0.871373
0.744087
0.622724
0.506946
0.396388
0.290656
0.189346
0.0920373
-0.00169815
-0.0923003
-0.180219
-0.265916
-0.349865
-0.432554
-0.514482
-0.596167
-0.678132
-0.760931
-0.845057
-0.931153
2.66984
2.6355
2.54282
2.4156
2.27102
2.11494
1.9525
1.78872
1.62684
1.4687
1.31547
1.16788
1.0263
0.890823
0.761375
0.63778
0.519775
0.407039
0.299209
0.195896
0.0966875
0.00115657
-0.0911369
-0.180643
-0.267822
-0.35314
-0.43707
-0.52009
-0.602682
-0.685321
-0.768497
-0.852639
-0.938284
2.65402
2.62246
2.53697
2.41827
2.28121
2.13107
1.97292
1.81175
1.65097
1.49274
1.33853
1.18933
1.04572
0.907962
0.776132
0.650142
0.529795
0.414815
0.304867
0.199578
0.0985439
0.00133981
-0.0924721
-0.18334
-0.271718
-0.358062
-0.442828
-0.526468
-0.609427
-0.692134
-0.775013
-0.858419
-0.942785
2.65452
2.6247
2.54403
2.43105
2.29896
2.1526
1.99695
1.837
1.67629
1.51721
1.36149
1.21033
1.06448
0.924367
0.790153
0.661837
0.539277
0.422233
0.310393
0.203394
0.100839
0.00230636
-0.09264
-0.184445
-0.273555
-0.360415
-0.445464
-0.529127
-0.611817
-0.693923
-0.775821
-0.857825
-0.9403
2.67153
2.64278
2.56479
2.4549
2.32526
2.18038
2.02517
1.86465
1.70249
1.54129
1.383
1.22899
1.08018
0.937101
0.800031
0.669025
0.543987
0.424702
0.310873
0.202141
0.0981106
-0.00164215
-0.0975542
-0.190069
-0.279631
-0.366673
-0.451619
-0.534873
-0.616818
-0.697805
-0.778162
-0.858147
-0.938042
2.70601
2.67758
2.60032
2.49106
2.36147
2.21587
2.05922
1.89659
1.7318
1.56761
1.40611
1.24884
1.09682
0.950667
0.81073
0.67711
0.54974
0.428419
0.312856
0.202694
0.0975321
-0.00305698
-0.099514
-0.192284
-0.281808
-0.368515
-0.452815
-0.535098
-0.615726
-0.69503
-0.77331
-0.850819
-0.92781
2.75925
2.73036
2.65183
2.54055
2.40818
2.25906
2.09822
1.93095
1.76124
1.59204
1.42562
1.26364
1.10721
0.957045
0.813508
0.676728
0.546638
0.423032
0.305605
0.193981
0.0877437
-0.0135515
-0.110359
-0.203133
-0.29232
-0.37835
-0.461627
-0.54253
-0.621407
-0.698565
-0.774276
-0.848745
-0.922171
2.8331
2.80303
2.72127
2.60553
2.46806
2.31332
2.14654
1.97321
1.79751
1.6225
1.45056
1.28344
1.12232
0.967956
0.820736
0.680795
0.548061
0.422316
0.303234
0.190417
0.0834246
-0.0182088
-0.114958
-0.207293
-0.295673
-0.380535
-0.462289
-0.541314
-0.617957
-0.692526
-0.765295
-0.836501
-0.906348
2.93006
2.89778
2.81005
2.68614
2.53936
2.37461
2.19754
2.01414
1.82888
1.64503
1.46509
1.29087
1.12356
0.963876
0.812183
0.668558
0.532873
0.40485
0.284109
0.170201
0.0626402
-0.0390795
-0.135465
-0.227015
-0.314206
-0.397491
-0.477291
-0.553987
-0.627928
-0.699413
-0.768701
-0.83599
-0.901448
3.05369
3.01849
2.92276
2.78849
2.63076
2.45474
2.26635
2.07195
1.87627
1.68273
1.49395
1.31182
1.13759
0.971969
0.815301
0.667623
0.52875
0.398343
0.275956
0.161074
0.0531523
-0.0483713
-0.144052
-0.23443
-0.320019
-0.4013
-0.478719
-0.552682
-0.623556
-0.691671
-0.757313
-0.820749
-0.882184
3.20818
3.16762
3.05803
2.90557
2.72842
2.53282
2.32567
2.11412
1.90321
1.6964
1.49625
1.30453
1.12232
0.950199
0.788336
0.636629
0.494763
0.362282
0.238639
0.123232
0.0154377
-0.0853684
-0.179798
-0.268435
-0.351834
-0.430507
-0.504925
-0.575515
-0.642659
-0.706691
-0.767899
-0.826507
-0.8827
3.40101
3.35568
3.23201
3.06217
2.86711
2.65272
2.42634
2.19614
1.96778
1.74506
1.53078
1.32683
1.13432
0.953712
0.78507
0.628135
0.48243
0.347334
0.222147
0.106126
-0.00147623
-0.101394
-0.194329
-0.280943
-0.361853
-0.437624
-0.508774
-0.575772
-0.639043
-0.698973
-0.755906
-0.810175
-0.862028
3.63735
3.57733
3.42077
3.21271
2.98164
2.73457
2.47951
2.225
1.97627
1.73657
1.50826
1.29287
1.09114
0.903256
0.729039
0.568029
0.419573
0.282896
0.157161
0.0415038
-0.0649313
-0.162973
-0.253405
-0.336962
-0.414319
-0.486095
-0.552851
-0.615092
-0.673273
-0.7278
-0.77903
-0.827258
-0.872739
3.93949
3.87702
3.70039
3.46554
3.20366
2.92133
2.63009
2.34166
2.06243
1.79614
1.54541
1.31168
1.09533
0.896136
0.713477
0.546452
0.39401
0.255024
0.128358
0.0128982
-0.0924166
-0.188581
-0.276511
-0.357042
-0.430932
-0.49886
-0.561437
-0.619217
-0.672703
-0.722369
-0.768652
-0.812003
-0.852794
4.29703
4.17921
3.91693
3.6107
3.2975
2.97432
2.64989
2.33473
2.03334
1.74832
1.48188
1.23513
1.00824
0.80082
0.612101
0.441019
0.286335
0.146729
0.0208649
-0.0925676
-0.194814
-0.287034
-0.370289
-0.44554
-0.513644
-0.575361
-0.631364
-0.682245
-0.728539
-0.770735
-0.8093
-0.84467
-0.877352
4.82287
4.73123
4.43122
4.05709
3.66286
3.25588
2.85664
2.47897
2.12648
1.80108
1.5038
1.23411
0.990578
0.771482
0.574932
0.398967
0.241661
0.101166
-0.0242533
-0.136208
-0.236171
-0.325472
-0.4053
-0.476705
-0.540604
-0.597792
-0.648954
-0.694687
-0.735517
-0.771966
-0.804539
-0.833931
-0.860842
5.31473
4.99172
4.52209
4.10048
3.68671
3.25358
2.82932
2.42742
2.04946
1.69907
1.37924
1.09036
0.831562
0.601329
0.397628
0.218136
0.0604479
-0.0777897
-0.198812
-0.304685
-0.397283
-0.478276
-0.549129
-0.61111
-0.665296
-0.712584
-0.753697
-0.789215
-0.819552
-0.845107
-0.866071
-0.883242
-0.896724
6.6148
6.29222
5.51724
4.81471
4.17445
3.5633
3.01326
2.5246
2.08698
1.69653
1.34988
1.04271
0.771191
0.531953
0.321857
0.137987
-0.0223809
-0.161806
-0.28268
-0.38721
-0.477404
-0.55507
-0.621806
-0.679001
-0.727829
-0.769246
-0.80397
-0.832497
-0.854983
-0.871554
-0.881377
-0.88576
-0.880021
6.62521
5.87932
5.2723
4.80165
4.19716
3.55835
2.96184
2.40509
1.8943
1.43997
1.04298
0.69981
0.406214
0.157306
-0.0522247
-0.227586
-0.37362
-0.494703
-0.594712
-0.677019
-0.744528
-0.799712
-0.844664
-0.881128
-0.910541
-0.934033
-0.952424
-0.966138
-0.975055
-0.97825
-0.972926
-0.956047
-0.913856
12.8732
8.26471
6.47812
5.6239
4.61735
3.736
3.02938
2.41462
1.87535
1.41113
1.01292
0.672432
0.383266
0.139163
-0.0658398
-0.237146
-0.379623
-0.497609
-0.594914
-0.674848
-0.740261
-0.793591
-0.836914
-0.871976
-0.900262
-0.922973
-0.941209
-0.955624
-0.967341
-0.975817
-0.983843
-0.986221
-0.994549
-0.421441
-0.407605
-0.31272
0.104234
0.925367
2.08713
3.24468
3.84021
3.18457
0.620574
-4.20134
-11.0338
-18.7516
-25.626
-30.2101
-31.9507
-31.0494
-28.1362
-23.6353
-17.3143
-9.27366
-1.05708
5.3855
9.25976
10.769
10.343
8.31182
4.9261
0.506755
-4.61558
-10.0956
-15.5869
-20.7338
-25.1585
-28.4706
-30.3274
-30.5224
-29.0363
-26.0747
-21.9897
-17.2004
-12.1418
-7.21749
-2.72804
1.1727
4.45361
7.14988
9.31946
11.0242
12.327
13.2923
13.9836
14.4596
14.7707
14.9572
15.0475
15.0576
14.9925
14.8414
14.5807
14.089
12.8225
9.77217
4.04656
-4.3719
-14.5479
-24.6746
-32.5321
-36.3876
-35.551
-29.9448
-20.615
-9.84049
-0.496924
5.77802
9.30876
11.1823
12.2183
12.8345
13.2209
13.4674
13.6231
13.718
13.7718
13.7962
13.7961
13.7716
13.7159
13.6151
13.4396
13.1459
12.6022
11.519
9.14093
4.84391
-1.39641
-7.1654
-11.0494
-8.09853
-7.05564
-0.465538
-0.369203
-0.229078
0.217636
1.05017
2.17333
3.26103
3.77528
3.03591
0.459223
-4.14267
-10.4661
-17.5269
-23.8451
-28.1502
-29.9202
-29.2665
-26.6092
-22.217
-16.0528
-8.55667
-1.21313
4.46428
7.93663
9.36703
9.06739
7.32125
4.3324
0.380335
-4.23748
-9.21309
-14.2274
-18.9458
-23.011
-26.056
-27.7684
-27.9613
-26.6234
-23.9384
-20.2187
-15.8355
-11.1764
-6.60714
-2.40805
1.27058
4.39164
6.98022
9.08308
10.7521
12.042
13.0104
13.7149
14.2096
14.5413
14.7473
14.8548
14.8789
14.8233
14.6771
14.4148
13.9451
12.7975
10.0206
4.71751
-3.19948
-12.8509
-22.4971
-30.0186
-33.7439
-33.009
-27.7165
-18.884
-8.73343
0.00951976
5.86955
9.20319
11.0205
12.0607
12.6992
13.11
13.3784
13.5526
13.6627
13.7286
13.7619
13.7678
13.7465
13.6912
13.5883
13.4088
13.1109
12.5728
11.5384
9.32009
5.3569
-0.421861
-5.75439
-9.51546
-6.80327
-6.65137
-0.389068
-0.315351
-0.138757
0.320679
1.10783
2.11752
3.03845
3.36665
2.52089
0.00226304
-4.35493
-10.1755
-16.5413
-22.219
-26.1807
-27.9304
-27.395
-24.8168
-20.4615
-14.5556
-7.76494
-1.35296
3.59295
6.69514
8.04714
7.85637
6.35266
3.72118
0.202536
-3.93939
-8.4292
-12.971
-17.2511
-20.9403
-23.7077
-25.2757
-25.472
-24.2849
-21.8711
-18.501
-14.5023
-10.2243
-6.00023
-2.08868
1.3685
4.33063
6.81221
8.84819
10.4805
11.7561
12.7259
13.4421
13.954
14.3051
14.5299
14.6539
14.6913
14.6452
14.504
14.2406
13.7838
12.7401
10.2345
5.38397
-1.97324
-11.0368
-20.1516
-27.3037
-30.8856
-30.2534
-25.2976
-17.0128
-7.55261
0.536052
5.95696
9.08894
10.8511
11.8969
12.5587
12.9946
13.2857
13.479
13.605
13.6835
13.7262
13.7385
13.7207
13.6661
13.5615
13.3783
13.0769
12.5439
11.5557
9.49199
5.85727
0.537701
-4.36423
-8.00265
-5.55227
-6.21233
-0.376529
-0.285256
-0.0821633
0.34663
1.02672
1.85376
2.5513
2.67814
1.71611
-0.737174
-4.77178
-10.0485
-15.7532
-20.8258
-24.3772
-25.896
-25.236
-22.6066
-18.3679
-12.9391
-7.0048
-1.51112
2.77534
5.54445
6.81354
6.71307
5.42084
3.10737
-0.0159392
-3.71219
-7.73542
-11.8186
-15.6729
-18.9972
-21.4953
-22.9214
-23.1161
-22.0657
-19.9003
-16.8522
-13.2127
-9.29814
-5.40958
-1.77928
1.46215
4.26992
6.64685
8.61614
10.2106
11.47
12.4394
13.1656
13.6933
14.0624
14.3051
14.4449
14.4951
14.4581
14.3223
14.0585
13.6093
12.658
10.4206
6.04551
-0.701199
-9.11929
-17.6567
-24.4114
-27.8404
-27.3144
-22.722
-15.0373
-6.32853
1.06519
6.03503
8.96674
10.676
11.7282
12.4135
12.8749
13.1892
13.4025
13.5451
13.6368
13.6895
13.7085
13.6945
13.641
13.5352
13.3489
13.0446
12.5172
11.573
9.6579
6.34184
1.4711
-3.01497
-6.53429
-4.36931
-5.74625
-0.36592
-0.270143
-0.0819556
0.270148
0.792524
1.38735
1.82404
1.74655
0.737601
-1.54096
-5.16297
-9.81914
-14.8072
-19.209
-22.2037
-23.3409
-22.5235
-19.9816
-16.1225
-11.3943
-6.35494
-1.68872
2.02091
4.48399
5.6607
5.62822
4.52368
2.4972
-0.264995
-3.54873
-7.13204
-10.7765
-14.2226
-17.1985
-19.4378
-20.7218
-20.9051
-19.9718
-18.0292
-15.2782
-11.9783
-8.41199
-4.84549
-1.4841
1.5512
4.21021
6.48459
8.38713
9.94258
11.1843
12.1514
12.8857
13.4276
13.8135
14.073
14.2277
14.2902
14.2623
14.132
13.8694
13.4247
12.5535
10.5749
6.68545
0.587929
-7.13405
-15.0509
-21.3793
-24.6429
-24.2256
-20.0244
-12.9919
-5.088
1.58263
6.09914
8.83581
10.4951
11.5546
12.2635
12.7509
13.0891
13.3231
13.483
13.5885
13.6516
13.6779
13.668
13.6159
13.5094
13.3208
13.0145
12.4928
11.5902
9.81546
6.80241
2.36244
-1.72839
-5.13188
-3.27124
-5.25778
-0.394524
-0.312214
-0.161504
0.0945969
0.446
0.806065
0.993872
0.740219
-0.266121
-2.27932
-5.35979
-9.26132
-13.4132
-17.0285
-19.4391
-20.282
-19.507
-17.3179
-14.0515
-10.0792
-5.84389
-1.88116
1.32729
3.50733
4.58639
4.60418
3.66501
1.8981
-0.535025
-3.44078
-6.6172
-9.84918
-12.9058
-15.5466
-17.5344
-18.6757
-18.8397
-18.0079
-16.269
-13.7964
-10.8175
-7.57967
-4.31506
-1.2053
1.63558
4.15195
6.326
8.16181
9.67715
10.8994
11.8624
12.6029
13.1573
13.5585
13.8337
14.0028
14.077
14.0578
13.9336
13.6738
13.2322
12.4262
10.6868
7.27774
1.85447
-5.12723
-12.381
-18.2528
-21.3374
-21.0334
-17.2534
-10.9224
-3.86444
2.07248
6.14544
8.69664
10.3095
11.3764
12.109
12.6225
12.9852
13.2408
13.4188
13.5389
13.613
13.6469
13.6416
13.5914
13.4846
13.2943
12.9867
12.4711
11.6069
9.96204
7.23168
3.19818
-0.523314
-3.81526
-2.27426
-4.75432
-0.424459
-0.360329
-0.250094
-0.0785966
0.134493
0.312349
0.310836
-0.0719484
-1.05796
-2.81776
-5.37694
-8.538
-11.8609
-14.7509
-16.7258
-17.4412
-16.8417
-15.0573
-12.3442
-9.01504
-5.44433
-2.07309
0.696242
2.61502
3.59521
3.64957
2.85442
1.32069
-0.813749
-3.37569
-6.18107
-9.03453
-11.7291
-14.0533
-15.8007
-16.8013
-16.9396
-16.196
-14.6429
-12.4272
-9.7443
-6.80782
-3.81959
-0.942008
1.71631
4.0958
6.17149
7.94054
9.41469
10.6159
11.5728
12.3176
12.8827
13.2978
13.5876
13.7702
13.8557
13.8452
13.7273
13.472
13.0341
12.2792
10.7523
7.80174
3.0588
-3.15039
-9.70302
-15.0884
-17.9807
-17.796
-14.4675
-8.88
-2.69127
2.52104
6.17141
8.54973
10.1194
11.1938
11.9497
12.4898
12.8777
13.1557
13.3527
13.4881
13.5738
13.6158
13.6155
13.5675
13.4609
13.2697
12.9617
12.4525
11.6235
10.0967
7.62491
3.96773
0.584251
-2.60105
-1.38936
-4.24312
-0.465908
-0.426202
-0.357639
-0.258214
-0.15248
-0.107451
-0.237792
-0.695654
-1.63994
-3.18261
-5.3231
-7.89758
-10.5751
-12.9392
-14.5456
-15.1462
-14.6636
-13.1904
-10.9256
-8.12885
-5.11679
-2.25287
0.129172
1.80904
2.6921
2.77191
2.10197
0.775687
-1.08873
-3.33897
-5.8083
-8.31972
-10.687
-12.7235
-14.2497
-15.1167
-15.2253
-14.5559
-13.1665
-11.1796
-8.76111
-6.09459
-3.35633
-0.69245
1.7941
4.04197
6.02127
7.72368
9.15564
10.3341
11.283
12.0302
12.6042
13.0317
13.335
13.5303
13.6267
13.6248
13.5138
13.2644
12.8326
12.1173
10.7716
8.2421
4.16233
-1.26099
-7.08394
-11.9563
-14.6431
-14.5851
-11.7363
-6.92114
-1.6011
2.91726
6.17601
8.39604
9.9257
11.007
11.7857
12.3525
12.7665
13.0679
13.2849
13.4363
13.5342
13.585
13.59
13.5447
13.4388
13.2474
12.9399
12.4375
11.6404
10.2192
7.97924
4.66356
1.5827
-1.50103
-0.622199
-3.73225
-0.514733
-0.500519
-0.471671
-0.434381
-0.414848
-0.470058
-0.690178
-1.18905
-2.07982
-3.43508
-5.24041
-7.36004
-9.53737
-11.4406
-12.7395
-13.228
-12.8348
-11.6172
-9.72661
-7.37943
-4.8425
-2.41497
-0.373087
1.08999
1.87896
1.97454
1.41278
0.270166
-1.35108
-3.31885
-5.48371
-7.68644
-9.76029
-11.5393
-12.8663
-13.6111
-13.6892
-13.0808
-11.832
-10.0446
-7.85901
-5.43319
-2.92148
-0.455181
1.86923
3.99048
5.87545
7.51144
8.9003
10.0544
10.9934
11.7411
12.3223
12.7607
13.0762
13.2836
13.3906
13.3973
13.2936
13.0518
12.6289
11.9455
10.7482
8.58959
5.1306
0.480949
-4.59982
-8.93955
-11.4099
-11.4863
-9.1372
-5.10175
-0.621133
3.2546
6.15986
8.23663
9.72853
10.8158
11.6167
12.2107
12.6517
12.9776
13.2155
13.3839
13.4947
13.5546
13.5655
13.5233
13.4187
13.2278
12.9217
12.4265
11.6585
10.3304
8.29411
5.28234
2.46634
-0.520783
0.0281744
-3.22953
-0.570141
-0.581514
-0.589885
-0.605577
-0.654029
-0.782792
-1.06204
-1.57609
-2.40425
-3.59149
-5.11548
-6.86344
-8.63294
-10.1685
-11.2217
-11.6195
-11.2937
-10.2816
-8.70349
-6.73831
-4.60714
-2.5553
-0.811739
0.455508
1.1546
1.25821
0.789121
-0.191347
-1.59469
-3.30707
-5.19601
-7.11921
-8.92828
-10.4755
-11.623
-12.2575
-12.3056
-11.7476
-10.6198
-9.00671
-7.0273
-4.81759
-2.51256
-0.229684
1.94154
3.94113
5.73399
7.30394
8.64892
9.77724
10.7045
11.4507
12.0374
12.4852
12.8119
13.0305
13.1479
13.1634
13.0677
12.8348
12.4239
11.7689
10.6895
8.8436
5.93966
2.0208
-2.32923
-6.12941
-8.37796
-8.59363
-6.74851
-3.47086
0.23033
3.53158
6.12492
8.07242
9.52792
10.6199
11.4426
12.0642
12.5333
12.885
13.1449
13.3311
13.4556
13.5252
13.5425
13.5039
13.4011
13.2113
12.9074
12.4201
11.6786
10.4319
8.57147
5.82534
3.23638
0.340971
0.5692
-2.74215
-0.6288
-0.664097
-0.705275
-0.764312
-0.864645
-1.04537
-1.3605
-1.87161
-2.63307
-3.67057
-4.95795
-6.40176
-7.84314
-9.0852
-9.93516
-10.2526
-9.97912
-9.13965
-7.82734
-6.18718
-4.40155
-2.67226
-1.18929
-0.0976628
0.516878
0.622643
0.232445
-0.605203
-1.81446
-3.29711
-4.93688
-6.60736
-8.17691
-9.51474
-10.5002
-11.0345
-11.0532
-10.5368
-9.51385
-8.0543
-6.25883
-4.24429
-2.12843
-0.0159426
2.01072
3.89367
5.59677
7.10124
8.40169
9.50284
10.4166
11.1596
11.7499
12.2058
12.5425
12.7718
12.8993
12.9238
12.8369
12.6144
12.2184
11.5915
10.6053
9.01257
6.58121
3.31906
-0.342367
-3.61585
-5.64442
-5.99794
-4.6379
-2.06214
0.947144
3.75184
6.07394
7.90395
9.32339
10.4186
11.2628
11.9128
12.4113
12.7902
13.0734
13.2785
13.4173
13.4973
13.5213
13.4868
13.3862
13.1983
12.8976
12.4188
11.7018
10.5261
8.81551
6.29822
3.89974
1.09194
1.0139
-2.27583
-0.688654
-0.745544
-0.814812
-0.908538
-1.0474
-1.26301
-1.59637
-2.09176
-2.78542
-3.6899
-4.77792
-5.97219
-7.14776
-8.15237
-8.83682
-9.08962
-8.86044
-8.16454
-7.07472
-5.70896
-4.2171
-2.76457
-1.50869
-0.573605
-0.0375802
0.065989
-0.257355
-0.969578
-2.00667
-3.28376
-4.69951
-6.14242
-7.49609
-8.64535
-9.4846
-9.92754
-9.91744
-9.43566
-8.50396
-7.18016
-5.54916
-3.71107
-1.76834
0.185991
2.07643
3.84777
5.46361
6.90331
8.15874
9.23148
10.1302
10.8681
11.4606
11.923
12.2688
12.508
12.6455
12.6796
12.6022
12.3917
12.0131
11.4159
10.5058
9.11215
7.06457
4.36068
1.31363
-1.47051
-3.29008
-3.77009
-2.84863
-0.886803
1.53601
3.92281
6.00965
7.73103
9.11393
10.2112
11.0768
11.7563
12.2857
12.6934
13.0014
13.2264
13.3805
13.4714
13.5027
13.4726
13.3748
13.1894
12.8926
12.4231
11.7292
10.6158
9.03206
6.7102
4.46808
1.74497
1.37886
-1.83434
-0.747502
-0.823115
-0.915481
-1.03587
-1.20193
-1.4388
-1.7772
-2.24836
-2.87546
-3.66235
-4.58237
-5.57163
-6.532
-7.34544
-7.89607
-8.09572
-7.90244
-7.32613
-6.42382
-5.29053
-4.04834
-2.83268
-1.7737
-0.977104
-0.513
-0.414581
-0.681416
-1.28397
-2.16877
-3.2628
-4.47804
-5.71672
-6.87649
-7.85642
-8.56414
-8.92428
-8.8868
-8.43384
-7.58179
-6.37816
-4.89432
-3.2158
-1.43152
0.376112
2.13834
3.80304
5.33424
6.71004
7.92013
8.96339
9.8455
10.5767
11.1698
11.6375
11.9914
12.24
12.3874
12.4316
12.3648
12.1678
11.8089
11.2439
10.4
9.16195
7.41459
5.16009
2.62848
0.272556
-1.35588
-1.94068
-1.38757
0.0690453
2.01416
4.05362
5.93393
7.55252
8.898
9.9964
10.8838
11.5942
12.1566
12.5949
12.9293
13.1754
13.3456
13.448
13.4871
13.462
13.3674
13.185
12.8929
12.4336
11.762
10.704
9.22783
7.07288
4.95754
2.31628
1.68159
-1.41935
-0.803446
-0.894731
-1.00538
-1.14538
-1.32937
-1.57701
-1.91093
-2.35259
-2.91593
-3.59926
-4.37749
-5.19812
-5.98391
-6.64303
-7.08573
-7.24295
-7.08042
-6.60437
-5.85933
-4.92168
-3.8907
-2.87704
-1.98807
-1.31318
-0.914184
-0.822776
-1.04194
-1.54899
-2.29946
-3.23102
-4.26753
-5.32372
-6.31014
-7.13858
-7.72845
-8.01388
-7.95071
-7.52194
-6.73962
-5.64254
-4.29053
-2.75643
-1.11721
0.55438
2.19605
3.75903
5.20829
6.52123
7.68585
8.6987
9.56288
10.286
10.8781
11.3499
11.7111
11.9687
12.126
12.1809
12.126
11.9439
11.6071
11.0765
10.2945
9.18151
7.66534
5.75781
3.634
1.62992
0.169499
-0.490249
-0.222731
0.839902
2.40442
4.15276
5.84709
7.3663
8.67348
9.77261
10.6828
11.4262
12.0238
12.4951
12.8576
13.1262
13.3135
13.428
13.4753
13.4555
13.3645
13.1856
12.899
12.4507
11.8009
10.7934
9.40946
7.39833
5.38593
2.82256
1.93804
-1.0308
-0.855202
-0.959077
-1.08349
-1.23697
-1.43134
-1.68169
-2.00436
-2.41363
-2.91699
-3.50944
-4.16801
-4.84982
-5.49381
-6.0286
-6.38478
-6.5084
-6.37198
-5.97962
-5.3663
-4.59325
-3.74076
-2.89889
-2.15601
-1.58724
-1.24643
-1.16295
-1.3419
-1.76599
-2.39847
-3.1864
-4.06427
-4.95817
-5.79025
-6.48371
-6.96836
-7.18673
-7.09982
-6.69156
-5.97051
-4.96814
-3.73439
-2.33111
-0.824746
0.72071
2.24913
3.71524
5.08534
6.33662
7.4558
8.43751
9.28257
9.99619
10.5861
11.0609
11.4286
11.6949
11.8622
11.9285
11.8867
11.7214
11.4086
10.9147
10.1931
9.18671
7.85187
6.20874
4.39562
2.66618
1.34084
0.644561
0.706949
1.47069
2.72919
4.22587
5.74754
7.16935
8.43771
9.5378
10.4725
11.2514
11.8872
12.3941
12.7868
13.0796
13.2847
13.412
13.468
13.4538
13.3668
13.1919
12.9113
12.4747
11.8468
10.8861
9.5827
7.69684
5.76884
3.27822
2.1608
-0.667724
-0.901346
-1.01484
-1.14894
-1.3107
-1.50943
-1.75649
-2.06341
-2.43921
-2.88701
-3.39994
-3.95776
-4.52515
-5.05391
-5.4886
-5.77557
-5.87299
-5.75914
-5.43688
-4.9337
-4.29851
-3.5961
-2.8996
-2.2815
-1.80458
-1.51516
-1.43982
-1.5848
-1.93703
-2.46626
-3.12777
-3.86549
-4.61567
-5.3109
-5.88455
-6.27571
-6.43426
-6.32579
-5.93521
-5.26824
-4.35028
-3.2228
-1.93817
-0.553541
0.874991
2.2971
3.67109
4.96489
6.15584
7.2298
8.17982
9.00479
9.70774
10.2943
10.7712
11.1447
11.4194
11.5972
11.6755
11.6482
11.5015
11.2148
10.7596
10.0981
9.18811
8.00287
6.5668
4.9915
3.47376
2.26424
1.55455
1.47265
2.004
3.00492
4.27455
5.63196
6.95776
8.18729
9.28936
10.251
11.069
11.7467
12.2924
12.7178
13.0362
13.2604
13.401
13.4659
13.4577
13.3749
13.2043
12.9303
12.5059
11.9001
10.9835
9.75213
7.97613
6.11819
3.69408
2.35872
-0.32921
-0.941514
-1.06187
-1.20209
-1.36784
-1.56627
-1.80565
-2.09398
-2.4365
-2.83342
-3.27712
-3.74985
-4.22279
-4.65784
-5.01194
-5.24373
-5.3209
-5.22652
-4.96276
-4.55133
-4.03128
-3.45468
-2.88072
-2.36864
-1.97058
-1.72598
-1.65844
-1.77462
-2.06471
-2.50392
-3.05462
-3.66908
-4.29258
-4.86703
-5.33489
-5.64339
-5.74896
-5.62124
-5.24616
-4.62721
-3.7847
-2.75293
-1.57604
-0.303043
1.0171
2.33949
3.62599
4.84637
5.97846
7.00758
7.92558
8.72964
9.42095
10.0032
10.4814
10.8603
11.1434
11.3319
11.4232
11.4117
11.2855
11.0267
10.6118
10.0106
9.19136
8.13713
6.87276
5.48894
4.14199
3.03353
2.3245
2.13224
2.4682
3.23912
4.29686
5.4958
6.72678
7.91799
9.02392
10.0161
10.8778
11.6019
12.1902
12.6511
12.9971
13.2413
13.3959
13.47
13.4678
13.3894
13.2235
12.9563
12.5447
11.9611
11.0867
9.92071
8.24163
6.44247
4.07732
2.53775
-0.0151574
-0.974628
-1.09932
-1.24254
-1.4087
-1.60316
-1.83203
-2.10027
-2.41057
-2.76139
-3.14499
-3.54601
-3.94097
-4.29981
-4.5891
-4.777
-4.83869
-4.76117
-4.54623
-4.21106
-3.78678
-3.31514
-2.8439
-2.42127
-2.09032
-1.88433
-1.82386
-1.91551
-2.15196
-2.51292
-2.96691
-3.47344
-3.98582
-4.45422
-4.82912
-5.06499
-5.12402
-4.97948
-4.61833
-4.04232
-3.26752
-2.32215
-1.24327
-0.0727353
1.14689
2.37577
3.57925
4.72911
5.80392
6.78877
7.67459
8.45717
9.13606
9.71328
10.1922
10.5762
10.8677
11.0674
11.1728
11.1785
11.0744
10.8455
10.4723
9.93123
9.19863
8.26392
7.15003
5.93024
4.73015
3.70982
3.00308
2.71472
2.87478
3.43272
4.2891
5.33364
6.4706
7.62446
8.7372
9.76493
10.6762
11.4525
12.088
12.5878
12.9633
13.2288
13.3978
13.4813
13.4851
13.4111
13.2499
12.9899
12.5914
12.0299
11.1961
10.0901
8.49718
6.74773
4.43273
2.70243
0.273342
-1.00135
-1.12821
-1.2719
-1.43577
-1.62371
-1.83991
-2.08742
-2.36713
-2.67643
-3.00791
-3.34841
-3.67889
-3.97562
-4.21269
-4.36566
-4.41554
-4.35248
-4.17806
-3.90596
-3.56095
-3.17643
-2.7908
-2.44315
-2.16882
-1.99563
-1.94123
-2.01186
-2.20203
-2.4952
-2.86509
-3.27758
-3.69296
-4.06872
-4.36241
-4.53488
-4.55341
-4.39454
-4.04624
-3.50892
-2.79516
-1.92803
-0.938495
0.137865
1.26422
2.40541
3.53018
4.61239
5.63158
6.57288
7.42657
8.18731
8.85322
9.42485
9.90407
10.2931
10.5933
10.8049
10.9253
10.9498
10.8695
10.6721
10.3419
9.86038
9.21056
8.38624
7.40754
6.33276
5.26085
4.31553
3.60798
3.23111
3.22823
3.58508
4.24696
5.13904
6.18207
7.30001
8.42382
9.4938
10.4623
11.2979
11.9863
12.5286
12.936
13.224
13.4078
13.5007
13.5104
13.4407
13.2841
13.0315
12.6463
12.1071
11.3124
10.2618
8.74583
7.03901
4.76393
2.85694
0.533712
-1.02053
-1.14766
-1.2897
-1.44912
-1.62866
-1.83106
-2.05797
-2.30909
-2.58128
-2.8677
-3.15718
-3.43433
-3.68044
-3.87546
-4.00065
-4.04159
-3.99088
-3.85001
-3.62988
-3.35022
-3.03764
-2.72292
-2.43762
-2.21059
-2.06487
-2.01542
-2.06788
-2.21815
-2.45274
-2.74982
-3.08072
-3.41188
-3.70716
-3.93036
-4.04793
-4.03164
-3.86095
-3.52484
-3.02272
-2.36428
-1.56827
-0.660405
0.32922
1.36891
2.42783
3.47799
4.49538
5.46069
6.35932
7.18111
7.91986
8.57248
9.1382
9.61759
10.0117
10.3211
10.5454
10.682
10.7267
10.672
10.5077
10.2213
9.79868
9.22776
8.50536
7.64843
6.70193
5.74152
4.86084
4.14999
3.68966
3.5325
3.69526
4.16528
4.90413
5.85231
6.93627
8.077
9.19811
10.2337
11.1375
11.8854
12.4749
12.9168
13.2283
13.4273
13.5293
13.5445
13.4786
13.3266
13.0813
12.7096
12.1929
11.4361
10.4376
8.99063
7.32126
5.07413
3.00552
0.761032
-1.03409
-1.15989
-1.2986
-1.45197
-1.62184
-1.80987
-2.01672
-2.24136
-2.48047
-2.7279
-2.97426
-3.20713
-3.41181
-3.57278
-3.67573
-3.70975
-3.66937
-3.55599
-3.37836
-3.15214
-2.89851
-2.64206
-2.40816
-2.22019
-2.09709
-2.05137
-2.08798
-2.20382
-2.38792
-2.62218
-2.88264
-3.14104
-3.36682
-3.52924
-3.59966
-3.55382
-3.3738