/*--------------------------------*- C++ -*----------------------------------*\
| =========                 |                                                 |
| \\      /  F ield         | OpenFOAM: The Open Source CFD Toolbox           |
|  \\    /   O peration     | Version:  2.1.1                                 |
|   \\  /    A nd           | Web:      www.OpenFOAM.org                      |
|    \\/     M anipulation  |                                                 |
\*---------------------------------------------------------------------------*/
FoamFile
{
    version     2.0;
    format      ascii;
    class       surfaceScalarField;
    location    "0.15";
    object      phi;
}
// * * * * * * * * * * * * * * * * * * * * * * * * * * * * * * * * * * * * * //

dimensions      [0 3 -1 0 0 0 0];

internalField   nonuniform List<scalar> 
13452
(
4.59957e-05
2.24915e-05
2.96549e-05
1.63408e-05
2.11711e-05
8.48384e-06
1.72608e-05
3.91029e-06
1.56081e-05
1.65265e-06
1.47883e-05
8.1981e-07
1.42648e-05
5.23557e-07
1.38605e-05
4.04241e-07
1.35154e-05
3.45092e-07
1.32139e-05
3.01532e-07
1.29512e-05
2.62741e-07
1.27231e-05
2.28066e-07
1.25252e-05
1.97926e-07
1.23528e-05
1.72387e-07
1.22017e-05
1.51083e-07
1.20683e-05
1.33446e-07
1.19494e-05
1.18899e-07
1.18424e-05
1.06935e-07
1.17453e-05
9.71343e-08
1.16561e-05
8.91675e-08
1.15733e-05
8.27733e-08
1.14956e-05
7.7745e-08
1.14217e-05
7.39083e-08
1.13506e-05
7.1118e-08
1.12814e-05
6.9188e-08
1.12134e-05
6.80254e-08
1.11463e-05
6.70736e-08
1.10794e-05
6.68329e-08
1.10156e-05
6.38556e-08
1.09507e-05
6.49331e-08
1.09071e-05
4.35252e-08
1.08411e-05
6.6085e-08
-1.62024e-07
1.10031e-05
7.49105e-05
1.8025e-05
7.0403e-05
2.08483e-05
6.3302e-05
1.55849e-05
5.66333e-05
1.0579e-05
5.15013e-05
6.78464e-06
4.78292e-05
4.49187e-06
4.51912e-05
3.1616e-06
4.3245e-05
2.35041e-06
4.17575e-05
1.83263e-06
4.05786e-05
1.48041e-06
3.96159e-05
1.22539e-06
3.88114e-05
1.03259e-06
3.81269e-05
8.82411e-07
3.75364e-05
7.62886e-07
3.70213e-05
6.66186e-07
3.65678e-05
5.86933e-07
3.61654e-05
5.21312e-07
3.58058e-05
4.66564e-07
3.54823e-05
4.20662e-07
3.51893e-05
3.82097e-07
3.49224e-05
3.49726e-07
3.46775e-05
3.22667e-07
3.44512e-05
3.00212e-07
3.42405e-05
2.81775e-07
3.40429e-05
2.66797e-07
3.38561e-05
2.54791e-07
3.36783e-05
2.44863e-07
3.35084e-05
2.36753e-07
3.33456e-05
2.26721e-07
3.31927e-05
2.17737e-07
3.30505e-05
1.85738e-07
3.29633e-05
1.53316e-07
1.89993e-08
3.27823e-05
7.85205e-05
1.1961e-05
8.23305e-05
1.70383e-05
8.29806e-05
1.49348e-05
8.14525e-05
1.21071e-05
7.89131e-05
9.32399e-06
7.6207e-05
7.19797e-06
7.36663e-05
5.70231e-06
7.13947e-05
4.62198e-06
6.94058e-05
3.82156e-06
6.76751e-05
3.21113e-06
6.61692e-05
2.73124e-06
6.48562e-05
2.34568e-06
6.37072e-05
2.03134e-06
6.26979e-05
1.77221e-06
6.18075e-05
1.55663e-06
6.10185e-05
1.37595e-06
6.03162e-05
1.22359e-06
5.96882e-05
1.0945e-06
5.91242e-05
9.84735e-07
5.86151e-05
8.9122e-07
5.81533e-05
8.11515e-07
5.77323e-05
7.43672e-07
5.73464e-05
6.86101e-07
5.69907e-05
6.37479e-07
5.66608e-05
5.96626e-07
5.63532e-05
5.62474e-07
5.60643e-05
5.3371e-07
5.57918e-05
5.09272e-07
5.55325e-05
4.85981e-07
5.52867e-05
4.63604e-07
5.50433e-05
4.29097e-07
5.4807e-05
3.8959e-07
3.15654e-07
5.45104e-05
7.8146e-05
8.34166e-06
8.19205e-05
1.32637e-05
8.46135e-05
1.22418e-05
8.62309e-05
1.04897e-05
8.69009e-05
8.65402e-06
8.69757e-05
7.12312e-06
8.66978e-05
5.98022e-06
8.62096e-05
5.11022e-06
8.56027e-05
4.42839e-06
8.49333e-05
3.8806e-06
8.42359e-05
3.42859e-06
8.35335e-05
3.0481e-06
8.28418e-05
2.72305e-06
8.21715e-05
2.44246e-06
8.15291e-05
2.19904e-06
8.0918e-05
1.98702e-06
8.03399e-05
1.80176e-06
7.97948e-05
1.63955e-06
7.92822e-05
1.49738e-06
7.88006e-05
1.37275e-06
7.83485e-05
1.26365e-06
7.79238e-05
1.16835e-06
7.75245e-05
1.08542e-06
7.71484e-05
1.0136e-06
7.67933e-05
9.51713e-07
7.64571e-05
8.98668e-07
7.61376e-05
8.53185e-07
7.58328e-05
8.14045e-07
7.55399e-05
7.78917e-07
7.52568e-05
7.46655e-07
7.49743e-05
7.11689e-07
7.46882e-05
6.75634e-07
6.40461e-07
7.43634e-05
7.89906e-05
6.00693e-06
8.15878e-05
1.06666e-05
8.35116e-05
1.0318e-05
8.49518e-05
9.04948e-06
8.59657e-05
7.64012e-06
8.67014e-05
6.38738e-06
8.72608e-05
5.42084e-06
8.76914e-05
4.67962e-06
8.80245e-05
4.09536e-06
8.82809e-05
3.62419e-06
8.84749e-05
3.23461e-06
8.86174e-05
2.90557e-06
8.87163e-05
2.62417e-06
8.87775e-05
2.38122e-06
8.88072e-05
2.16935e-06
8.88109e-05
1.98334e-06
8.87933e-05
1.81934e-06
8.87585e-05
1.67436e-06
8.87098e-05
1.54606e-06
8.865e-05
1.43256e-06
8.85813e-05
1.33231e-06
8.85056e-05
1.24406e-06
8.84243e-05
1.16676e-06
8.83384e-05
1.09947e-06
8.82488e-05
1.04135e-06
8.81559e-05
9.91579e-07
8.80598e-05
9.49256e-07
8.79604e-05
9.13492e-07
8.78563e-05
8.82979e-07
8.77459e-05
8.57035e-07
8.76233e-05
8.34354e-07
8.74819e-05
8.17043e-07
8.12542e-07
8.73098e-05
8.04622e-05
4.39064e-06
8.25016e-05
8.62715e-06
8.39834e-05
8.83621e-06
8.50375e-05
7.99545e-06
8.57538e-05
6.92378e-06
8.62611e-05
5.88008e-06
8.66607e-05
5.02128e-06
8.69996e-05
4.34068e-06
8.7301e-05
3.79398e-06
8.75762e-05
3.34894e-06
8.78302e-05
2.98065e-06
8.80653e-05
2.67051e-06
8.82836e-05
2.40582e-06
8.84871e-05
2.17779e-06
8.86765e-05
1.97992e-06
8.88526e-05
1.80722e-06
8.90161e-05
1.65585e-06
8.91676e-05
1.52282e-06
8.93079e-05
1.40577e-06
8.94377e-05
1.30282e-06
8.95575e-05
1.21245e-06
8.96681e-05
1.13344e-06
8.97701e-05
1.06477e-06
8.9864e-05
1.00559e-06
8.99502e-05
9.55125e-07
9.00291e-05
9.12716e-07
9.01006e-05
8.77697e-07
9.01646e-05
8.4951e-07
9.022e-05
8.27564e-07
9.02652e-05
8.11832e-07
9.02969e-05
8.02688e-07
9.03112e-05
8.02783e-07
8.16894e-07
9.03068e-05
8.22332e-05
3.25596e-06
8.38908e-05
6.96961e-06
8.51741e-05
7.55285e-06
8.6102e-05
7.06756e-06
8.67367e-05
6.28911e-06
8.71683e-05
5.44851e-06
8.74846e-05
4.70496e-06
8.7735e-05
4.09026e-06
8.79462e-05
3.58282e-06
8.81335e-05
3.16166e-06
8.8305e-05
2.8091e-06
8.84651e-05
2.51045e-06
8.8616e-05
2.25484e-06
8.87594e-05
2.03443e-06
8.88961e-05
1.84325e-06
8.90266e-05
1.67667e-06
8.91514e-05
1.53105e-06
8.92707e-05
1.40353e-06
8.93847e-05
1.29181e-06
8.94935e-05
1.19404e-06
8.95972e-05
1.10872e-06
8.9696e-05
1.03464e-06
8.979e-05
9.70786e-07
8.98792e-05
9.16335e-07
8.99638e-05
8.70589e-07
9.00435e-05
8.32972e-07
9.01182e-05
8.03006e-07
9.01873e-05
7.80387e-07
9.02499e-05
7.6499e-07
9.03045e-05
7.57249e-07
9.0349e-05
7.58205e-07
9.03811e-05
7.7068e-07
7.97899e-07
9.04001e-05
8.42157e-05
2.45583e-06
8.55469e-05
5.63843e-06
8.66646e-05
6.43511e-06
8.75163e-05
6.21586e-06
8.81351e-05
5.67032e-06
8.85738e-05
5.00974e-06
8.88979e-05
4.38091e-06
8.91509e-05
3.8373e-06
8.93583e-05
3.37533e-06
8.95364e-05
2.98361e-06
8.96945e-05
2.65096e-06
8.98383e-05
2.36666e-06
8.99712e-05
2.122e-06
9.00953e-05
1.91031e-06
9.02122e-05
1.72638e-06
9.03228e-05
1.56606e-06
9.04278e-05
1.42599e-06
9.05278e-05
1.30351e-06
9.06232e-05
1.19646e-06
9.07142e-05
1.10306e-06
9.0801e-05
1.0219e-06
9.08838e-05
9.51809e-07
9.09628e-05
8.91834e-07
9.10379e-05
8.41207e-07
9.11092e-05
7.99311e-07
9.11765e-05
7.6568e-07
9.12395e-05
7.40002e-07
9.12977e-05
7.22187e-07
9.13502e-05
7.12422e-07
9.13961e-05
7.11419e-07
9.14338e-05
7.2049e-07
9.14622e-05
7.42285e-07
7.79223e-07
9.14809e-05
8.63711e-05
1.8835e-06
8.74375e-05
4.57197e-06
8.84046e-05
5.46806e-06
8.91762e-05
5.4442e-06
8.97657e-05
5.08087e-06
9.02036e-05
4.57183e-06
9.05371e-05
4.0474e-06
9.08026e-05
3.57176e-06
9.10227e-05
3.15523e-06
9.12119e-05
2.79442e-06
9.13794e-05
2.48347e-06
9.15309e-05
2.21518e-06
9.167e-05
1.98289e-06
9.17992e-05
1.78113e-06
9.19201e-05
1.60545e-06
9.2034e-05
1.45216e-06
9.21417e-05
1.31827e-06
9.22439e-05
1.20131e-06
9.23411e-05
1.09929e-06
9.24336e-05
1.01054e-06
9.25218e-05
9.3372e-07
9.26059e-05
8.67734e-07
9.2686e-05
8.1169e-07
9.27624e-05
7.64881e-07
9.28349e-05
7.26768e-07
9.29036e-05
6.96983e-07
9.29683e-05
6.75343e-07
9.30285e-05
6.61908e-07
9.30839e-05
6.57042e-07
9.31338e-05
6.6157e-07
9.31774e-05
6.76829e-07
9.32146e-05
7.05146e-07
7.48356e-07
9.32454e-05
8.86665e-05
1.46696e-06
8.95209e-05
3.71759e-06
9.03544e-05
4.63455e-06
9.10505e-05
4.74812e-06
9.16063e-05
4.52508e-06
9.2037e-05
4.14111e-06
9.23746e-05
3.70984e-06
9.26481e-05
3.29822e-06
9.28771e-05
2.92622e-06
9.30748e-05
2.59675e-06
9.325e-05
2.30825e-06
9.34085e-05
2.05669e-06
9.35541e-05
1.83734e-06
9.36892e-05
1.64597e-06
9.38158e-05
1.47889e-06
9.3935e-05
1.33294e-06
9.40478e-05
1.20546e-06
9.41549e-05
1.09423e-06
9.42568e-05
9.97378e-07
9.43539e-05
9.13381e-07
9.44467e-05
8.40967e-07
9.45353e-05
7.79102e-07
9.46201e-05
7.26952e-07
9.47011e-05
6.83867e-07
9.47785e-05
6.49372e-07
9.48523e-05
6.23169e-07
9.49225e-05
6.05156e-07
9.49889e-05
5.95471e-07
9.50514e-05
5.94541e-07
9.51098e-05
6.03173e-07
9.51641e-05
6.2257e-07
9.52146e-05
6.54657e-07
7.0069e-07
9.52622e-05
9.10803e-05
1.15798e-06
9.17667e-05
3.0312e-06
9.24841e-05
3.91717e-06
9.31112e-05
4.12096e-06
9.36324e-05
4.00387e-06
9.4052e-05
3.72152e-06
9.43901e-05
3.37176e-06
9.46691e-05
3.01924e-06
9.49055e-05
2.68979e-06
9.5111e-05
2.39123e-06
9.52938e-05
2.12545e-06
9.54594e-05
1.89107e-06
9.56116e-05
1.68517e-06
9.57529e-05
1.50465e-06
9.58853e-05
1.34657e-06
9.60099e-05
1.20829e-06
9.61279e-05
1.08749e-06
9.62399e-05
9.82168e-07
9.63467e-05
8.90638e-07
9.64486e-05
8.11475e-07
9.65461e-05
7.43495e-07
9.66394e-05
6.85726e-07
9.6729e-05
6.37387e-07
9.6815e-05
5.97876e-07
9.68976e-05
5.66761e-07
9.6977e-05
5.43786e-07
9.70533e-05
5.28885e-07
9.71265e-05
5.22209e-07
9.71969e-05
5.24162e-07
9.72646e-05
5.35442e-07
9.73302e-05
5.57018e-07
9.73945e-05
5.90381e-07
6.36232e-07
9.74589e-05
9.35986e-05
9.2398e-07
9.41528e-05
2.47702e-06
9.47695e-05
3.30046e-06
9.53334e-05
3.55709e-06
9.58199e-05
3.51741e-06
9.62258e-05
3.31556e-06
9.65623e-05
3.03523e-06
9.68457e-05
2.73593e-06
9.70891e-05
2.44637e-06
9.73025e-05
2.17782e-06
9.74932e-05
1.93473e-06
9.76664e-05
1.71785e-06
9.78258e-05
1.52581e-06
9.79739e-05
1.35656e-06
9.81126e-05
1.20787e-06
9.82433e-05
1.07758e-06
9.83671e-05
9.63725e-07
9.84847e-05
8.64533e-07
9.85969e-05
7.78477e-07
9.87041e-05
7.04249e-07
9.88068e-05
6.40746e-07
9.89055e-05
5.87057e-07
9.90004e-05
5.42447e-07
9.9092e-05
5.06346e-07
9.91804e-05
4.78348e-07
9.9266e-05
4.5821e-07
9.9349e-05
4.45864e-07
9.94298e-05
4.41426e-07
9.95087e-05
4.45211e-07
9.95864e-05
4.57751e-07
9.96637e-05
4.7974e-07
9.97418e-05
5.12236e-07
5.55439e-07
9.98226e-05
9.62131e-05
7.43001e-07
9.66636e-05
2.02646e-06
9.7194e-05
2.77005e-06
9.77006e-05
3.05054e-06
9.81533e-05
3.06467e-06
9.85439e-05
2.92494e-06
9.88768e-05
2.70241e-06
9.91626e-05
2.45006e-06
9.94118e-05
2.19718e-06
9.96325e-05
1.95713e-06
9.9831e-05
1.73623e-06
0.000100012
1.53681e-06
0.000100179
1.35882e-06
0.000100334
1.20112e-06
0.00010048
1.06212e-06
0.000100618
9.40133e-07
0.000100748
8.3349e-07
0.000100872
7.40655e-07
0.00010099
6.60253e-07
0.000101103
5.91086e-07
0.000101212
5.32128e-07
0.000101316
4.82522e-07
0.000101417
4.41567e-07
0.000101515
4.08718e-07
0.00010161
3.83574e-07
0.000101702
3.65884e-07
0.000101792
3.55544e-07
0.000101881
3.52597e-07
0.000101969
3.57236e-07
0.000102057
3.69799e-07
0.000102146
3.90694e-07
0.000102238
4.20571e-07
4.59217e-07
0.000102334
9.89187e-05
6.0007e-07
9.92883e-05
1.65685e-06
9.97454e-05
2.31288e-06
0.000100201
2.59548e-06
0.000100621
2.64414e-06
0.000100995
2.55071e-06
0.000101323
2.37499e-06
0.00010161
2.16309e-06
0.000101864
1.94319e-06
0.000102091
1.72969e-06
0.000102297
1.53008e-06
0.000102486
1.34785e-06
0.000102661
1.18395e-06
0.000102824
1.03799e-06
0.000102977
9.08952e-07
0.000103122
7.95535e-07
0.000103259
6.96367e-07
0.00010339
6.10115e-07
0.000103514
5.35551e-07
0.000103634
4.71578e-07
0.000103749
4.1724e-07
0.00010386
3.71727e-07
0.000103967
3.34364e-07
0.000104071
3.04617e-07
0.000104172
2.82077e-07
0.000104272
2.66463e-07
0.00010437
2.57615e-07
0.000104467
2.55485e-07
0.000104564
2.60124e-07
0.000104662
2.71668e-07
0.000104762
2.90259e-07
0.000104867
3.16188e-07
3.48918e-07
0.000104977
0.000101713
4.84876e-07
0.000102019
1.35043e-06
0.000102415
1.91724e-06
0.000102824
2.1861e-06
0.000103215
2.25364e-06
0.000103573
2.19304e-06
0.000103893
2.05408e-06
0.00010418
1.87617e-06
0.000104438
1.68534e-06
0.000104672
1.49616e-06
0.000104885
1.31667e-06
0.000105082
1.15111e-06
0.000105265
1.00115e-06
0.000105436
8.66991e-07
0.000105597
7.48076e-07
0.000105749
6.43447e-07
0.000105893
5.51981e-07
0.000106031
4.72526e-07
0.000106162
4.03984e-07
0.000106288
3.45346e-07
0.00010641
2.95719e-07
0.000106527
2.54327e-07
0.000106641
2.20515e-07
0.000106752
1.93747e-07
0.000106861
1.73597e-07
0.000106967
1.5974e-07
0.000107073
1.51949e-07
0.000107178
1.50075e-07
0.000107284
1.54026e-07
0.000107392
1.63753e-07
0.000107503
1.79164e-07
0.000107619
2.00251e-07
2.26253e-07
0.000107742
0.000104595
3.90198e-07
0.000104852
1.09331e-06
0.000105197
1.57282e-06
0.000105566
1.81675e-06
0.000105929
1.89064e-06
0.000106271
1.8515e-06
0.000106584
1.74028e-06
0.00010687
1.59014e-06
0.000107131
1.4244e-06
0.00010737
1.25705e-06
0.000107591
1.09627e-06
0.000107795
9.46645e-07
0.000107986
8.10318e-07
0.000108165
6.87924e-07
0.000108334
5.79242e-07
0.000108494
4.83587e-07
0.000108646
4.00039e-07
0.000108791
3.27599e-07
0.000108929
2.65274e-07
0.000109063
2.12132e-07
0.000109191
1.67328e-07
0.000109315
1.30115e-07
0.000109436
9.98472e-08
0.000109554
7.59801e-08
0.000109669
5.80601e-08
0.000109783
4.57169e-08
0.000109897
3.86498e-08
0.00011001
3.66114e-08
0.000110125
3.93817e-08
0.000110242
4.67483e-08
0.000110362
5.84312e-08
0.000110488
7.41906e-08
9.31258e-08
0.000110622
0.000107565
3.10889e-07
0.000107784
8.74629e-07
0.000108086
1.27061e-06
0.000108421
1.48196e-06
0.000108759
1.55228e-06
0.000109086
1.5251e-06
0.000109392
1.43363e-06
0.000109677
1.30543e-06
0.000109941
1.16082e-06
0.000110185
1.01274e-06
0.000110412
8.69102e-07
0.000110624
7.34542e-07
0.000110823
6.11431e-07
0.00011101
5.00666e-07
0.000111187
4.02261e-07
0.000111355
3.15724e-07
0.000111515
2.4029e-07
0.000111668
1.75073e-07
0.000111814
1.19168e-07
0.000111954
7.16977e-08
0.00011209
3.18556e-08
0.000112221
-1.08678e-09
0.000112348
-2.7773e-08
0.000112473
-4.87616e-08
0.000112596
-6.45359e-08
0.000112717
-7.55137e-08
0.000112838
-8.20628e-08
0.000112959
-8.45187e-08
0.000113081
-8.32099e-08
0.000113207
-7.84774e-08
0.000113336
-7.07405e-08
0.00011347
-6.04038e-08
-4.8425e-08
0.000113612
0.000110625
2.43194e-07
0.000110813
6.85869e-07
0.000111081
1.0028e-06
0.000111387
1.17652e-06
0.000111703
1.23549e-06
0.000112016
1.21238e-06
0.000112316
1.13372e-06
0.000112599
1.02209e-06
0.000112865
8.94791e-07
0.000113115
7.63408e-07
0.000113349
6.35265e-07
0.000113568
5.14798e-07
0.000113775
4.04395e-07
0.000113971
3.0506e-07
0.000114156
2.16935e-07
0.000114332
1.39643e-07
0.0001145
7.25159e-08
0.00011466
1.4747e-08
0.000114814
-3.4513e-08
0.000114962
-7.61001e-08
0.000115105
-1.10799e-07
0.000115243
-1.39327e-07
0.000115377
-1.62331e-07
0.000115509
-1.80387e-07
0.000115638
-1.94007e-07
0.000115767
-2.03652e-07
0.000115894
-2.09748e-07
0.000116022
-2.12701e-07
0.000116152
-2.12922e-07
0.000116285
-2.10846e-07
0.000116421
-2.06983e-07
0.000116562
-2.01843e-07
-1.96383e-07
0.00011671
0.000113774
1.8431e-07
0.00011394
5.20284e-07
0.00011418
7.62664e-07
0.000114461
8.95496e-07
0.00011476
9.37077e-07
0.00011506
9.11494e-07
0.000115354
8.39649e-07
0.000115637
7.39736e-07
0.000115905
6.26168e-07
0.00011616
5.0897e-07
0.000116401
3.94662e-07
0.000116628
2.87271e-07
0.000116843
1.89023e-07
0.000117048
1.00887e-07
0.000117241
2.30239e-08
0.000117426
-4.49046e-08
0.000117602
-1.03523e-07
0.00011777
-1.536e-07
0.000117932
-1.95958e-07
0.000118087
-2.31412e-07
0.000118237
-2.60735e-07
0.000118382
-2.84645e-07
0.000118524
-3.03794e-07
0.000118662
-3.18777e-07
0.000118798
-3.3013e-07
0.000118933
-3.38351e-07
0.000119067
-3.43908e-07
0.000119202
-3.47258e-07
0.000119338
-3.48868e-07
0.000119476
-3.49228e-07
0.000119618
-3.48894e-07
0.000119765
-3.48424e-07
-3.48716e-07
0.000119917
0.000117017
1.32087e-07
0.000117164
3.72465e-07
0.000117383
5.44349e-07
0.000117644
6.34232e-07
0.000117927
6.53703e-07
0.000118219
6.20269e-07
0.000118508
5.50097e-07
0.00011879
4.57599e-07
0.000119062
3.54473e-07
0.000119322
2.49098e-07
0.000119569
1.47028e-07
0.000119805
5.17176e-08
0.000120029
-3.49239e-08
0.000120242
-1.12088e-07
0.000120445
-1.79696e-07
0.000120638
-2.38119e-07
0.000120822
-2.87996e-07
0.000120999
-3.301e-07
0.000121168
-3.65251e-07
0.000121331
-3.94264e-07
0.000121488
-4.17915e-07
0.00012164
-4.36928e-07
0.000121789
-4.51967e-07
0.000121933
-4.63638e-07
0.000122076
-4.72501e-07
0.000122217
-4.79076e-07
0.000122357
-4.8386e-07
0.000122497
-4.87338e-07
0.000122638
-4.90007e-07
0.000122781
-4.92379e-07
0.000122927
-4.95019e-07
0.000123077
-4.98495e-07
-5.03619e-07
0.000123232
0.000120353
8.48218e-08
0.000120488
2.37988e-07
0.000120689
3.42741e-07
0.000120935
3.88303e-07
0.000121207
3.81946e-07
0.000121491
3.36207e-07
0.000121778
2.63333e-07
0.000122061
1.74472e-07
0.000122337
7.88242e-08
0.000122603
-1.69003e-08
0.000122858
-1.08223e-07
0.000123102
-1.92386e-07
0.000123335
-2.67927e-07
0.000123557
-3.34312e-07
0.000123769
-3.91631e-07
0.000123971
-4.40364e-07
0.000124165
-4.81217e-07
0.00012435
-5.15005e-07
0.000124527
-5.42578e-07
0.000124697
-5.6477e-07
0.000124862
-5.82374e-07
0.000125021
-5.96123e-07
0.000125176
-6.06694e-07
0.000125327
-6.14707e-07
0.000125475
-6.20733e-07
0.000125621
-6.25304e-07
0.000125766
-6.28929e-07
0.000125911
-6.32103e-07
0.000126056
-6.35322e-07
0.000126203
-6.39091e-07
0.000126352
-6.43951e-07
0.000126504
-6.50434e-07
-6.59232e-07
0.00012666
0.000123787
4.1129e-08
0.000123912
1.13136e-07
0.000124101
1.5328e-07
0.000124336
1.53469e-07
0.0001246
1.18279e-07
0.000124879
5.65333e-08
0.000125165
-2.27409e-08
0.000125451
-1.11213e-07
0.000125732
-2.01968e-07
0.000126005
-2.89947e-07
0.000126269
-3.71819e-07
0.000126522
-4.45631e-07
0.000126764
-5.10469e-07
0.000126996
-5.66174e-07
0.000127218
-6.13089e-07
0.000127429
-6.5187e-07
0.000127631
-6.83339e-07
0.000127825
-7.08395e-07
0.00012801
-7.27942e-07
0.000128188
-7.42853e-07
0.00012836
-7.53946e-07
0.000128526
-7.61974e-07
0.000128686
-7.67626e-07
0.000128843
-7.71529e-07
0.000128997
-7.74258e-07
0.000129148
-7.76346e-07
0.000129297
-7.78297e-07
0.000129446
-7.80594e-07
0.000129594
-7.83715e-07
0.000129743
-7.88136e-07
0.000129894
-7.94348e-07
0.000130046
-8.02836e-07
-8.14172e-07
0.000130201
0.00012732
-1.63729e-10
0.000127438
-5.3154e-09
0.00012762
-2.82134e-08
0.000127848
-7.4428e-08
0.000128107
-1.41011e-07
0.000128385
-2.21899e-07
0.000128673
-3.10715e-07
0.000128964
-4.01577e-07
0.000129251
-4.89663e-07
0.000129533
-5.71526e-07
0.000129806
-6.45035e-07
0.00013007
-7.09119e-07
0.000130323
-7.63508e-07
0.000130565
-8.08503e-07
0.000130797
-8.44779e-07
0.000131018
-8.73226e-07
0.00013123
-8.94836e-07
0.000131432
-9.10626e-07
0.000131625
-9.21582e-07
0.000131811
-9.28633e-07
0.00013199
-9.32636e-07
0.000132162
-9.34365e-07
0.000132329
-9.34522e-07
0.000132491
-9.33735e-07
0.00013265
-9.32577e-07
0.000132805
-9.31568e-07
0.000132958
-9.31192e-07
0.000133109
-9.31904e-07
0.00013326
-9.34143e-07
0.00013341
-9.38333e-07
0.00013356
-9.44895e-07
0.000133712
-9.54232e-07
-9.66773e-07
0.000133864
0.000130955
-4.02218e-08
0.00013107
-1.20267e-07
0.000131247
-2.05667e-07
0.000131472
-2.99505e-07
0.000131731
-3.99777e-07
0.000132012
-5.02485e-07
0.000132305
-6.0346e-07
0.000132602
-6.98984e-07
0.000132898
-7.86177e-07
0.00013319
-8.63181e-07
0.000133474
-9.29106e-07
0.000133749
-9.83832e-07
0.000134013
-1.02781e-06
0.000134267
-1.06189e-06
0.000134509
-1.08714e-06
0.00013474
-1.10474e-06
0.000134961
-1.11589e-06
0.000135173
-1.12177e-06
0.000135375
-1.12346e-06
0.000135568
-1.12197e-06
0.000135753
-1.1182e-06
0.000135932
-1.11296e-06
0.000136104
-1.10694e-06
0.000136271
-1.10078e-06
0.000136434
-1.09504e-06
0.000136593
-1.09022e-06
0.000136748
-1.08677e-06
0.000136901
-1.0851e-06
0.000137053
-1.08559e-06
0.000137203
-1.08861e-06
0.000137353
-1.09451e-06
0.000137502
-1.10361e-06
-1.11622e-06
0.000137652
0.000134695
-7.99473e-08
0.000134809
-2.34552e-07
0.000134987
-3.83042e-07
0.000135213
-5.26151e-07
0.000135476
-6.6238e-07
0.000135763
-7.89329e-07
0.000136064
-9.04713e-07
0.000136372
-1.00677e-06
0.00013668
-1.09447e-06
0.000136984
-1.16751e-06
0.000137281
-1.22629e-06
0.000137569
-1.27172e-06
0.000137847
-1.30504e-06
0.000138112
-1.32773e-06
0.000138367
-1.34131e-06
0.000138609
-1.34731e-06
0.00013884
-1.34719e-06
0.000139061
-1.34231e-06
0.000139271
-1.33388e-06
0.000139472
-1.323e-06
0.000139665
-1.31061e-06
0.000139849
-1.29755e-06
0.000140027
-1.28454e-06
0.000140198
-1.2722e-06
0.000140364
-1.26106e-06
0.000140526
-1.25159e-06
0.000140683
-1.24419e-06
0.000140837
-1.23923e-06
0.000140989
-1.23702e-06
0.000141138
-1.23785e-06
0.000141285
-1.24197e-06
0.000141431
-1.2496e-06
-1.26092e-06
0.000141576
0.000138543
-1.2036e-07
0.000138659
-3.50997e-07
0.00013884
-5.64344e-07
0.000139073
-7.58858e-07
0.000139344
-9.33297e-07
0.000139641
-1.08659e-06
0.000139955
-1.21815e-06
0.000140276
-1.32808e-06
0.000140599
-1.41714e-06
0.000140918
-1.48665e-06
0.00014123
-1.53833e-06
0.000141532
-1.57418e-06
0.000141824
-1.59633e-06
0.000142103
-1.6069e-06
0.000142369
-1.60796e-06
0.000142624
-1.60143e-06
0.000142865
-1.58907e-06
0.000143096
-1.57243e-06
0.000143315
-1.55289e-06
0.000143523
-1.53163e-06
0.000143722
-1.50966e-06
0.000143913
-1.48785e-06
0.000144095
-1.46692e-06
0.00014427
-1.44747e-06
0.000144439
-1.43001e-06
0.000144603
-1.41497e-06
0.000144761
-1.4027e-06
0.000144915
-1.3935e-06
0.000145066
-1.38761e-06
0.000145213
-1.38524e-06
0.000145358
-1.38655e-06
0.0001455
-1.39171e-06
-1.40075e-06
0.00014564
0.000142501
-1.62583e-07
0.000142623
-4.72747e-07
0.000142813
-7.54223e-07
0.000143057
-1.00315e-06
0.000143343
-1.21843e-06
0.000143656
-1.40019e-06
0.000143987
-1.54946e-06
0.000144328
-1.66819e-06
0.000144669
-1.75899e-06
0.000145008
-1.82482e-06
0.000145338
-1.86885e-06
0.000145658
-1.89426e-06
0.000145966
-1.90414e-06
0.00014626
-1.90139e-06
0.000146541
-1.88864e-06
0.000146808
-1.86826e-06
0.000147061
-1.84232e-06
0.000147301
-1.81264e-06
0.000147529
-1.78072e-06
0.000147746
-1.74787e-06
0.000147951
-1.71516e-06
0.000148147
-1.68348e-06
0.000148333
-1.65355e-06
0.000148512
-1.62594e-06
0.000148683
-1.60115e-06
0.000148847
-1.57952e-06
0.000149006
-1.56136e-06
0.000149159
-1.54689e-06
0.000149308
-1.53628e-06
0.000149453
-1.52963e-06
0.000149593
-1.52701e-06
0.00014973
-1.52847e-06
-1.53392e-06
0.000149863
0.000146575
-2.07789e-07
0.000146705
-6.0313e-07
0.000146908
-9.57401e-07
0.000147169
-1.26431e-06
0.000147474
-1.52304e-06
0.000147809
-1.73502e-06
0.000148162
-1.90302e-06
0.000148525
-2.03093e-06
0.000148889
-2.1233e-06
0.000149249
-2.18487e-06
0.000149601
-2.22032e-06
0.000149941
-2.23411e-06
0.000150267
-2.23036e-06
0.000150578
-2.21279e-06
0.000150874
-2.18467e-06
0.000151155
-2.14886e-06
0.00015142
-2.10781e-06
0.000151671
-2.06355e-06
0.000151908
-2.0178e-06
0.000152133
-1.97197e-06
0.000152345
-1.92718e-06
0.000152545
-1.88436e-06
0.000152736
-1.84421e-06
0.000152917
-1.80729e-06
0.00015309
-1.77402e-06
0.000153256
-1.74473e-06
0.000153414
-1.71962e-06
0.000153566
-1.69884e-06
0.000153712
-1.68249e-06
0.000153853
-1.67058e-06
0.000153989
-1.66309e-06
0.00015412
-1.66001e-06
-1.66116e-06
0.000154248
0.000150766
-2.57712e-07
0.000150909
-7.47007e-07
0.000151133
-1.18121e-06
0.00015142
-1.5513e-06
0.000151754
-1.85691e-06
0.00015212
-2.10099e-06
0.000152505
-2.28822e-06
0.000152899
-2.42477e-06
0.000153293
-2.51743e-06
0.000153681
-2.57294e-06
0.000154059
-2.5977e-06
0.000154422
-2.59759e-06
0.00015477
-2.57788e-06
0.0001551
-2.54319e-06
0.000155413
-2.49748e-06
0.000155708
-2.44413e-06
0.000155986
-2.38595e-06
0.000156248
-2.32526e-06
0.000156494
-2.26394e-06
0.000156726
-2.20349e-06
0.000156944
-2.14511e-06
0.000157149
-2.08972e-06
0.000157343
-2.03801e-06
0.000157526
-1.99051e-06
0.0001577
-1.94758e-06
0.000157864
-1.90945e-06
0.000158021
-1.87628e-06
0.00015817
-1.84812e-06
0.000158313
-1.82496e-06
0.000158449
-1.80672e-06
0.000158579
-1.79329e-06
0.000158704
-1.78451e-06
-1.78008e-06
0.000158822
0.000155078
-3.13756e-07
0.000155239
-9.08508e-07
0.000155489
-1.43104e-06
0.000155807
-1.86969e-06
0.000156176
-2.22541e-06
0.000156578
-2.50322e-06
0.000157
-2.7101e-06
0.00015743
-2.85472e-06
0.000157859
-2.94633e-06
0.00015828
-2.99388e-06
0.000158688
-3.00563e-06
0.000159079
-2.98904e-06
0.000159452
-2.95065e-06
0.000159805
-2.89609e-06
0.000160137
-2.83009e-06
0.00016045
-2.7566e-06
0.000160743
-2.67883e-06
0.000161017
-2.59939e-06
0.000161273
-2.52035e-06
0.000161513
-2.44331e-06
0.000161738
-2.36952e-06
0.000161948
-2.29989e-06
0.000162145
-2.23508e-06
0.00016233
-2.17558e-06
0.000162504
-2.12165e-06
0.000162668
-2.07347e-06
0.000162823
-2.03109e-06
0.000162969
-1.99448e-06
0.000163108
-1.96352e-06
0.000163239
-1.93808e-06
0.000163364
-1.91793e-06
0.000163482
-1.90287e-06
-1.89252e-06
0.000163594
0.000159517
-3.80177e-07
0.000159707
-1.09866e-06
0.000159999
-1.72296e-06
0.000160368
-2.23815e-06
0.00016079
-2.64753e-06
0.000161246
-2.95922e-06
0.000161719
-3.1835e-06
0.000162197
-3.33261e-06
0.00016267
-3.41897e-06
0.00016313
-3.45412e-06
0.000163573
-3.44849e-06
0.000163995
-3.41123e-06
0.000164394
-3.35026e-06
0.000164771
-3.2722e-06
0.000165123
-3.18257e-06
0.000165452
-3.08588e-06
0.000165759
-2.98575e-06
0.000166045
-2.88504e-06
0.000166311
-2.78597e-06
0.000166557
-2.69025e-06
0.000166787
-2.59912e-06
0.000167001
-2.5135e-06
0.0001672
-2.43401e-06
0.000167385
-2.36101e-06
0.000167558
-2.29474e-06
0.00016772
-2.23524e-06
0.000167871
-2.18247e-06
0.000168013
-2.1363e-06
0.000168146
-2.09651e-06
0.000168271
-2.06285e-06
0.000168388
-2.03497e-06
0.000168498
-2.01255e-06
-1.99506e-06
0.0001686
0.000164083
-4.56712e-07
0.000164303
-1.31946e-06
0.000164639
-2.05891e-06
0.00016506
-2.65898e-06
0.00016554
-3.12749e-06
0.000166057
-3.47591e-06
0.000166591
-3.71789e-06
0.000167128
-3.86968e-06
0.000167657
-3.9474e-06
0.000168168
-3.96573e-06
0.000168658
-3.93766e-06
0.000169121
-3.87448e-06
0.000169556
-3.78568e-06
0.000169963
-3.67913e-06
0.000170342
-3.56122e-06
0.000170693
-3.43708e-06
0.000171018
-3.31073e-06
0.000171318
-3.18531e-06
0.000171595
-3.06318e-06
0.000171851
-2.94608e-06
0.000172087
-2.83525e-06
0.000172305
-2.73153e-06
0.000172507
-2.63547e-06
0.000172693
-2.54733e-06
0.000172866
-2.46722e-06
0.000173026
-2.39507e-06
0.000173174
-2.33073e-06
0.000173311
-2.27395e-06
0.000173439
-2.22443e-06
0.000173558
-2.1818e-06
0.000173669
-2.14565e-06
0.000173772
-2.11561e-06
-2.09105e-06
0.000173868
0.000168796
-5.60729e-07
0.000169083
-1.60687e-06
0.000169507
-2.48306e-06
0.000170023
-3.17423e-06
0.000170594
-3.69931e-06
0.000171196
-4.07728e-06
0.000171806
-4.32813e-06
0.00017241
-4.47385e-06
0.000172998
-4.53487e-06
0.000173561
-4.52904e-06
0.000174095
-4.47193e-06
0.000174598
-4.37682e-06
0.000175067
-4.25475e-06
0.000175502
-4.11473e-06
0.000175905
-3.96398e-06
0.000176276
-3.80822e-06
0.000176617
-3.65187e-06
0.00017693
-3.49829e-06
0.000177217
-3.34996e-06
0.00017748
-3.20866e-06
0.00017772
-3.07558e-06
0.00017794
-2.95149e-06
0.000178141
-2.8368e-06
0.000178326
-2.73167e-06
0.000178494
-2.63605e-06
0.000178649
-2.54974e-06
0.000178791
-2.47246e-06
0.000178921
-2.40383e-06
0.00017904
-2.34342e-06
0.000179149
-2.29076e-06
0.000179248
-2.2453e-06
0.000179339
-2.20654e-06
-2.17368e-06
0.000179422
0.000173624
-6.73215e-07
0.000173958
-1.94063e-06
0.000174454
-2.97912e-06
0.000175062
-3.78238e-06
0.000175741
-4.37896e-06
0.000176456
-4.79213e-06
0.000177178
-5.04951e-06
0.000177885
-5.18169e-06
0.000178566
-5.21554e-06
0.000179211
-5.1737e-06
0.000179814
-5.07547e-06
0.000180374
-4.9369e-06
0.000180891
-4.77094e-06
0.000181364
-4.58794e-06
0.000181796
-4.39601e-06
0.000182189
-4.20143e-06
0.000182546
-4.00892e-06
0.00018287
-3.82195e-06
0.000183163
-3.643e-06
0.000183428
-3.47377e-06
0.000183668
-3.31529e-06
0.000183884
-3.16816e-06
0.00018408
-3.0326e-06
0.000184257
-2.90854e-06
0.000184417
-2.79576e-06
0.000184561
-2.69387e-06
0.000184691
-2.60241e-06
0.000184808
-2.52089e-06
0.000184913
-2.44876e-06
0.000185008
-2.38547e-06
0.000185093
-2.33043e-06
0.00018517
-2.28312e-06
-2.2426e-06
0.000185238
0.000178683
-8.88137e-07
0.000179195
-2.45222e-06
0.000179873
-3.6573e-06
0.000180638
-4.54757e-06
0.000181449
-5.18939e-06
0.000182272
-5.61537e-06
0.000183084
-5.86162e-06
0.000183869
-5.96626e-06
0.000184614
-5.96096e-06
0.000185313
-5.87241e-06
0.000185961
-5.72338e-06
0.000186556
-5.53258e-06
0.0001871
-5.31492e-06
0.000187595
-5.0821e-06
0.000188042
-4.84316e-06
0.000188445
-4.60487e-06
0.000188809
-4.37221e-06
0.000189135
-4.14869e-06
0.000189429
-3.9367e-06
0.000189693
-3.73772e-06
0.00018993
-3.55257e-06
0.000190144
-3.38156e-06
0.000190336
-3.22462e-06
0.000190508
-3.08142e-06
0.000190664
-2.95147e-06
0.000190804
-2.83413e-06
0.000190931
-2.72876e-06
0.000191045
-2.63467e-06
0.000191147
-2.5512e-06
0.000191239
-2.47771e-06
0.000191322
-2.41361e-06
0.000191398
-2.35831e-06
-2.31079e-06
0.000191466
0.000183747
-1.06771e-06
0.000184342
-3.04738e-06
0.000185181
-4.49598e-06
0.00018616
-5.52634e-06
0.000187196
-6.22612e-06
0.000188228
-6.64659e-06
0.000189219
-6.85341e-06
0.000190157
-6.90365e-06
0.000191034
-6.83788e-06
0.000191849
-6.68803e-06
0.000192606
-6.47984e-06
0.000193306
-6.23322e-06
0.000193955
-5.96349e-06
0.000194555
-5.68236e-06
0.000195111
-5.39868e-06
0.000195625
-5.11903e-06
0.000196101
-4.84815e-06
0.000196542
-4.5894e-06
0.00019695
-4.34499e-06
0.000197328
-4.11624e-06
0.00019768
-3.90381e-06
0.000198006
-3.70783e-06
0.000198309
-3.52805e-06
0.000198592
-3.36397e-06
0.000198855
-3.21487e-06
0.000199101
-3.07998e-06
0.000199331
-2.95848e-06
0.000199546
-2.84956e-06
0.000199747
-2.75254e-06
0.000199936
-2.66679e-06
0.000200115
-2.59209e-06
0.000200284
-2.52788e-06
-2.47435e-06
0.000200448
0.000189419
-1.67476e-06
0.000190411
-4.03947e-06
0.000191499
-5.58423e-06
0.000192667
-6.69363e-06
0.000193919
-7.47855e-06
0.000195235
-7.96264e-06
0.000196594
-8.21242e-06
0.000197973
-8.2821e-06
0.000199345
-8.20992e-06
0.000200687
-8.03027e-06
0.00020198
-7.77322e-06
0.00020321