/*--------------------------------*- C++ -*----------------------------------*\
| =========                 |                                                 |
| \\      /  F ield         | OpenFOAM: The Open Source CFD Toolbox           |
|  \\    /   O peration     | Version:  2.1.1                                 |
|   \\  /    A nd           | Web:      www.OpenFOAM.org                      |
|    \\/     M anipulation  |                                                 |
\*---------------------------------------------------------------------------*/
FoamFile
{
    version     2.0;
    format      ascii;
    class       volVectorField;
    location    "0.15";
    object      U;
}
// * * * * * * * * * * * * * * * * * * * * * * * * * * * * * * * * * * * * * //

dimensions      [0 1 -1 0 0 0 0];

internalField   nonuniform List<vector> 
6820
(
(6.37593 0.503775 0)
(4.42393 0.286915 0)
(2.97257 0.0202701 0)
(2.23259 -0.0618265 0)
(1.96615 -0.0598762 0)
(1.83831 -0.0344359 0)
(1.76227 -0.015019 0)
(1.70891 -0.00464087 0)
(1.66417 6.85856e-05 0)
(1.62499 0.00159131 0)
(1.5908 0.00159525 0)
(1.56107 0.0010163 0)
(1.53528 0.000287505 0)
(1.51288 -0.000401754 0)
(1.49331 -0.00097793 0)
(1.47609 -0.0014244 0)
(1.46081 -0.00175014 0)
(1.44714 -0.00197293 0)
(1.43478 -0.00211136 0)
(1.42349 -0.00218195 0)
(1.41307 -0.0021985 0)
(1.40334 -0.00217221 0)
(1.39414 -0.00211244 0)
(1.38535 -0.00202663 0)
(1.37684 -0.00192347 0)
(1.36852 -0.00180639 0)
(1.36027 -0.00170008 0)
(1.35224 -0.00157417 0)
(1.34388 -0.00159715 0)
(1.33712 -0.00134286 0)
(1.32684 -0.00245713 0)
(1.33017 0.00124908 0)
(1.29845 -0.0256853 0)
(8.7202 0.959734 0)
(8.7644 1.01218 0)
(7.96761 0.679373 0)
(7.05288 0.394335 0)
(6.35039 0.202958 0)
(5.84238 0.103948 0)
(5.47869 0.0585643 0)
(5.21544 0.0381658 0)
(5.01766 0.0290744 0)
(4.86314 0.0246554 0)
(4.73844 0.0220614 0)
(4.63518 0.020243 0)
(4.54795 0.0188094 0)
(4.47312 0.017599 0)
(4.40814 0.0165349 0)
(4.35117 0.0155806 0)
(4.30078 0.01472 0)
(4.2559 0.0139464 0)
(4.21565 0.0132579 0)
(4.17932 0.0126548 0)
(4.14631 0.0121384 0)
(4.11613 0.0117105 0)
(4.08834 0.0113719 0)
(4.06257 0.0111228 0)
(4.03849 0.0109572 0)
(4.01581 0.0108727 0)
(3.99428 0.0108257 0)
(3.97376 0.0108458 0)
(3.95401 0.0106269 0)
(3.93544 0.0106151 0)
(3.91723 0.0085933 0)
(3.90376 0.00761158 0)
(3.88917 -0.00299044 0)
(8.58611 0.583616 0)
(9.33117 0.762756 0)
(9.61382 0.660858 0)
(9.50285 0.527507 0)
(9.23523 0.398168 0)
(8.92096 0.30048 0)
(8.61298 0.231814 0)
(8.33452 0.182582 0)
(8.08985 0.14682 0)
(7.87673 0.120357 0)
(7.69144 0.100285 0)
(7.53011 0.0847479 0)
(7.38921 0.0725371 0)
(7.26566 0.062832 0)
(7.15689 0.0550407 0)
(7.06071 0.0487254 0)
(6.97529 0.0435617 0)
(6.89908 0.0393102 0)
(6.83077 0.0357944 0)
(6.76926 0.032883 0)
(6.7136 0.0304784 0)
(6.66299 0.028507 0)
(6.61672 0.0269126 0)
(6.57419 0.0256505 0)
(6.53487 0.0246807 0)
(6.4983 0.0239664 0)
(6.46407 0.0234478 0)
(6.43185 0.0230823 0)
(6.40132 0.0226388 0)
(6.37228 0.0221555 0)
(6.34435 0.0202988 0)
(6.31668 0.0177522 0)
(6.28854 0.00894272 0)
(8.44091 0.37984 0)
(8.94578 0.584488 0)
(9.35806 0.555384 0)
(9.58547 0.488282 0)
(9.69908 0.408743 0)
(9.73425 0.339984 0)
(9.71751 0.287862 0)
(9.67116 0.248061 0)
(9.60809 0.216953 0)
(9.5356 0.191964 0)
(9.45843 0.171258 0)
(9.37966 0.153717 0)
(9.30134 0.138634 0)
(9.22496 0.125527 0)
(9.15142 0.11408 0)
(9.08126 0.104061 0)
(9.01473 0.0952809 0)
(8.95193 0.0875838 0)
(8.8928 0.0808401 0)
(8.83725 0.0749425 0)
(8.78508 0.0698025 0)
(8.73611 0.0653466 0)
(8.69008 0.0615133 0)
(8.64678 0.0582493 0)
(8.60595 0.0555047 0)
(8.56735 0.0532304 0)
(8.53074 0.0513582 0)
(8.49589 0.0498225 0)
(8.46253 0.0484401 0)
(8.43037 0.047137 0)
(8.39904 0.0452894 0)
(8.36717 0.0429936 0)
(8.33504 0.0400626 0)
(8.40213 0.280231 0)
(8.71882 0.481172 0)
(8.99847 0.46277 0)
(9.17368 0.405685 0)
(9.29788 0.344109 0)
(9.39099 0.292156 0)
(9.45966 0.253648 0)
(9.51203 0.224593 0)
(9.55288 0.201684 0)
(9.58453 0.18303 0)
(9.60869 0.167378 0)
(9.62673 0.153947 0)
(9.63973 0.142264 0)
(9.64828 0.131999 0)
(9.65308 0.122909 0)
(9.65477 0.114811 0)
(9.6539 0.10757 0)
(9.65097 0.101086 0)
(9.64635 0.0952789 0)
(9.6404 0.0900902 0)
(9.63336 0.0854743 0)
(9.62548 0.0813963 0)
(9.61691 0.0778285 0)
(9.6078 0.074748 0)
(9.59825 0.0721317 0)
(9.58832 0.0699547 0)
(9.57804 0.0681778 0)
(9.56743 0.0667564 0)
(9.5564 0.0655896 0)
(9.54479 0.0646191 0)
(9.53233 0.0636334 0)
(9.51804 0.0627764 0)
(9.50186 0.0624174 0)
(8.37746 0.202364 0)
(8.60122 0.384116 0)
(8.8154 0.391588 0)
(8.94606 0.35763 0)
(9.03149 0.31372 0)
(9.09378 0.270689 0)
(9.14017 0.235329 0)
(9.17794 0.207324 0)
(9.2113 0.184892 0)
(9.24162 0.166703 0)
(9.2695 0.151675 0)
(9.29529 0.138988 0)
(9.31919 0.128118 0)
(9.34146 0.118715 0)
(9.36221 0.110498 0)
(9.38151 0.103261 0)
(9.39945 0.0968579 0)
(9.41608 0.0911798 0)
(9.43149 0.0861459 0)
(9.44575 0.0816961 0)
(9.45893 0.0777855 0)
(9.47109 0.0743807 0)
(9.48232 0.0714568 0)
(9.49266 0.0689948 0)
(9.50217 0.0669779 0)
(9.51089 0.0653904 0)
(9.51884 0.0642107 0)
(9.52602 0.0634179 0)
(9.53236 0.0629751 0)
(9.53772 0.0628805 0)
(9.54188 0.0631502 0)
(9.54441 0.0640032 0)
(9.54502 0.0660228 0)
(8.36127 0.149012 0)
(8.52259 0.311971 0)
(8.69708 0.338026 0)
(8.81149 0.318943 0)
(8.88567 0.286199 0)
(8.93824 0.25053 0)
(8.97539 0.219436 0)
(9.00331 0.194128 0)
(9.02642 0.173454 0)
(9.04664 0.156385 0)
(9.06493 0.14209 0)
(9.08187 0.12992 0)
(9.09781 0.119421 0)
(9.11291 0.110275 0)
(9.12728 0.102254 0)
(9.14099 0.0951902 0)
(9.15411 0.0889559 0)
(9.16665 0.0834503 0)
(9.17863 0.0785946 0)
(9.19007 0.0743278 0)
(9.20099 0.070603 0)
(9.21139 0.0673852 0)
(9.2213 0.0646482 0)
(9.23071 0.062373 0)
(9.23964 0.0605457 0)
(9.24809 0.0591569 0)
(9.25603 0.0581988 0)
(9.26344 0.0576725 0)
(9.27023 0.0575849 0)
(9.27629 0.0579859 0)
(9.28144 0.0589706 0)
(9.28543 0.0608077 0)
(9.2881 0.0638483 0)
(8.35115 0.111595 0)
(8.46728 0.25221 0)
(8.60781 0.287522 0)
(8.70919 0.279817 0)
(8.77858 0.257996 0)
(8.82971 0.231099 0)
(8.86691 0.205569 0)
(8.89473 0.183524 0)
(8.91712 0.16471 0)
(8.9361 0.148663 0)
(8.95271 0.134942 0)
(8.96768 0.12312 0)
(8.98143 0.112852 0)
(8.99423 0.103884 0)
(9.00623 0.0960216 0)
(9.01758 0.0891047 0)
(9.02834 0.0830084 0)
(9.03857 0.0776345 0)
(9.04832 0.0729069 0)
(9.05763 0.0687671 0)
(9.0665 0.0651708 0)
(9.07498 0.0620849 0)
(9.08306 0.0594861 0)
(9.09075 0.0573589 0)
(9.09807 0.0556946 0)
(9.105 0.0544915 0)
(9.11151 0.0537556 0)
(9.11758 0.0535065 0)
(9.12314 0.0537821 0)
(9.12808 0.0546629 0)
(9.1323 0.0562835 0)
(9.13562 0.0589087 0)
(9.13801 0.0628245 0)
(8.34485 0.0849342 0)
(8.42925 0.204371 0)
(8.54181 0.244802 0)
(8.63019 0.246023 0)
(8.69375 0.232412 0)
(8.74232 0.212007 0)
(8.77914 0.19067 0)
(8.80745 0.171254 0)
(8.8305 0.154204 0)
(8.85011 0.139386 0)
(8.86726 0.126558 0)
(8.88264 0.115412 0)
(8.89668 0.105676 0)
(8.90966 0.0971306 0)
(8.92178 0.0896061 0)
(8.93316 0.0829649 0)
(8.9439 0.0770989 0)
(8.95409 0.0719233 0)
(8.96376 0.0673717 0)
(8.97297 0.0633921 0)
(8.98174 0.0599448 0)
(8.9901 0.0570009 0)
(8.99807 0.0545403 0)
(9.00567 0.0525517 0)
(9.0129 0.051032 0)
(9.01976 0.0499872 0)
(9.02624 0.0494349 0)
(9.03232 0.0494095 0)
(9.03795 0.0499693 0)
(9.04308 0.0512132 0)
(9.04764 0.0532906 0)
(9.05157 0.0564519 0)
(9.05489 0.060935 0)
(8.34092 0.0657043 0)
(8.40295 0.166082 0)
(8.4929 0.207773 0)
(8.56924 0.214894 0)
(8.62692 0.207338 0)
(8.67252 0.192428 0)
(8.70837 0.175234 0)
(8.73663 0.1587 0)
(8.7599 0.143643 0)
(8.7798 0.130185 0)
(8.79724 0.118277 0)
(8.81289 0.107771 0)
(8.82717 0.0984931 0)
(8.84038 0.0902903 0)
(8.8527 0.0830336 0)
(8.86428 0.0766132 0)
(8.87522 0.0709376 0)
(8.88559 0.0659318 0)
(8.89544 0.0615352 0)
(8.90484 0.0577 0)
(8.9138 0.0543895 0)
(8.92236 0.0515773 0)
(8.93054 0.0492464 0)
(8.93836 0.0473885 0)
(8.94584 0.0460051 0)
(8.95298 0.045108 0)
(8.95978 0.0447225 0)
(8.96624 0.0448919 0)
(8.97233 0.0456844 0)
(8.97804 0.0472036 0)
(8.98336 0.0495956 0)
(8.9883 0.0530823 0)
(8.99292 0.0578555 0)
(8.33844 0.0515628 0)
(8.3846 0.135311 0)
(8.45654 0.175867 0)
(8.52214 0.186973 0)
(8.57423 0.184127 0)
(8.61674 0.173741 0)
(8.65125 0.160087 0)
(8.67915 0.146023 0)
(8.70243 0.132681 0)
(8.72249 0.120424 0)
(8.74017 0.109376 0)
(8.75606 0.0995092 0)
(8.77057 0.0907271 0)
(8.784 0.0829218 0)
(8.79653 0.0759925 0)
(8.8083 0.0698476 0)
(8.81942 0.0644079 0)
(8.82996 0.0596075 0)
(8.84 0.0553925 0)
(8.84957 0.05172 0)
(8.85871 0.0485574 0)
(8.86747 0.0458812 0)
(8.87586 0.0436771 0)
(8.88391 0.0419398 0)
(8.89165 0.0406736 0)
(8.89908 0.0398938 0)
(8.90623 0.0396298 0)
(8.91309 0.0399279 0)
(8.91968 0.0408576 0)
(8.92601 0.0425177 0)
(8.93212 0.0450391 0)
(8.93806 0.0486098 0)
(8.94394 0.0533726 0)
(8.33686 0.0409551 0)
(8.37169 0.110523 0)
(8.42937 0.148446 0)
(8.4855 0.161837 0)
(8.53228 0.162311 0)
(8.57168 0.155396 0)
(8.60466 0.144716 0)
(8.63204 0.132917 0)
(8.65524 0.121267 0)
(8.67544 0.110276 0)
(8.69334 0.100167 0)
(8.70949 0.0910041 0)
(8.72426 0.0827583 0)
(8.73794 0.0753692 0)
(8.7507 0.0687695 0)
(8.7627 0.0628921 0)
(8.77404 0.0576752 0)
(8.7848 0.0530644 0)
(8.79504 0.0490141 0)
(8.80482 0.0454867 0)
(8.81419 0.0424534 0)
(8.82317 0.0398933 0)
(8.8318 0.037794 0)
(8.84012 0.0361519 0)
(8.84814 0.0349727 0)
(8.8559 0.0342729 0)
(8.86342 0.0340819 0)
(8.87073 0.0344448 0)
(8.87785 0.0354256 0)
(8.88482 0.0371112 0)
(8.89172 0.0396106 0)
(8.89863 0.043074 0)
(8.90568 0.047596 0)
(8.33582 0.0328307 0)
(8.36251 0.0904255 0)
(8.40896 0.124861 0)
(8.45687 0.139244 0)
(8.49873 0.142006 0)
(8.5351 0.13778 0)
(8.56643 0.129594 0)
(8.59309 0.119791 0)
(8.61608 0.109666 0)
(8.6363 0.0998253 0)
(8.65438 0.0905808 0)
(8.67077 0.0820741 0)
(8.6858 0.0743384 0)
(8.69975 0.0673562 0)
(8.71279 0.0610891 0)
(8.72505 0.0554897 0)
(8.73664 0.0505095 0)
(8.74766 0.046103 0)
(8.75815 0.0422303 0)
(8.76818 0.038858 0)
(8.77779 0.0359598 0)
(8.78703 0.0335168 0)
(8.79594 0.0315175 0)
(8.80454 0.0299586 0)
(8.81288 0.0288457 0)
(8.82099 0.028194 0)
(8.82891 0.0280301 0)
(8.83667 0.0283933 0)
(8.84433 0.029338 0)
(8.85194 0.0309345 0)
(8.85959 0.0332666 0)
(8.8674 0.0364461 0)
(8.8755 0.0405238 0)
(8.33513 0.0264762 0)
(8.35589 0.0740026 0)
(8.39355 0.104557 0)
(8.43444 0.11896 0)
(8.47179 0.123134 0)
(8.50525 0.120853 0)
(8.53486 0.114635 0)
(8.56067 0.106512 0)
(8.58333 0.0977372 0)
(8.60351 0.0889685 0)
(8.62171 0.080569 0)
(8.63831 0.0727298 0)
(8.6536 0.0655273 0)
(8.66782 0.0589768 0)
(8.68113 0.0530635 0)
(8.69367 0.0477579 0)
(8.70553 0.0430244 0)
(8.71681 0.0388268 0)
(8.72756 0.0351318 0)
(8.73785 0.0319105 0)
(8.74773 0.0291394 0)
(8.75724 0.0268011 0)
(8.76643 0.0248847 0)
(8.77533 0.0233864 0)
(8.784 0.02231 0)
(8.79246 0.0216678 0)
(8.80077 0.0214809 0)
(8.80899 0.0217808 0)
(8.81716 0.0226088 0)
(8.82538 0.0240169 0)
(8.83372 0.0260627 0)
(8.84233 0.0288219 0)
(8.85133 0.0323071 0)
(8.33465 0.0214031 0)
(8.35107 0.0604517 0)
(8.38185 0.0870208 0)
(8.41682 0.100727 0)
(8.45011 0.105611 0)
(8.48084 0.104666 0)
(8.50873 0.0999697 0)
(8.53362 0.0932447 0)
(8.55586 0.0856508 0)
(8.57591 0.0778502 0)
(8.59417 0.0702314 0)
(8.61094 0.0630185 0)
(8.62645 0.0563221 0)
(8.64093 0.0501853 0)
(8.65451 0.0446149 0)
(8.66732 0.039597 0)
(8.67947 0.0351074 0)
(8.69101 0.0311177 0)
(8.70204 0.0275996 0)
(8.7126 0.0245275 0)
(8.72275 0.0218794 0)
(8.73254 0.0196384 0)
(8.74201 0.0177928 0)
(8.75122 0.0163371 0)
(8.7602 0.0152721 0)
(8.76902 0.0146051 0)
(8.77771 0.0143505 0)
(8.78635 0.0145295 0)
(8.79501 0.0151697 0)
(8.80376 0.0163039 0)
(8.81271 0.0179649 0)
(8.82199 0.0201959 0)
(8.83172 0.0229786 0)
(8.33431 0.017272 0)
(8.34752 0.0491434 0)
(8.37292 0.0717992 0)
(8.40295 0.0843049 0)
(8.43265 0.0893366 0)
(8.46086 0.0892096 0)
(8.48708 0.0856145 0)
(8.51101 0.0799925 0)
(8.53276 0.0733826 0)
(8.55263 0.0664249 0)
(8.5709 0.059514 0)
(8.5878 0.0528905 0)
(8.60352 0.0466862 0)
(8.61824 0.0409634 0)
(8.63209 0.0357436 0)
(8.64517 0.0310246 0)
(8.65759 0.0267905 0)
(8.66941 0.023019 0)
(8.6807 0.019686 0)
(8.69153 0.0167681 0)
(8.70195 0.0142445 0)
(8.71202 0.0120981 0)
(8.72177 0.010316 0)
(8.73126 0.00889009 0)
(8.74055 0.00781726 0)
(8.74969 0.00709921 0)
(8.75874 0.0067424 0)
(8.76776 0.00675741 0)
(8.77684 0.00715763 0)
(8.78605 0.0079581 0)
(8.7955 0.00916956 0)
(8.80531 0.010807 0)
(8.81559 0.0128293 0)
(8.33406 0.0138428 0)
(8.34486 0.0395857 0)
(8.36608 0.0584944 0)
(8.39202 0.069457 0)
(8.41859 0.0741918 0)
(8.44452 0.0744488 0)
(8.46918 0.0715887 0)
(8.49215 0.0668005 0)
(8.51338 0.0609912 0)
(8.53303 0.0547555 0)
(8.55127 0.0484754 0)
(8.56827 0.0423934 0)
(8.58417 0.0366515 0)
(8.59911 0.031324 0)
(8.61321 0.0264429 0)
(8.62656 0.0220147 0)
(8.63925 0.0180301 0)
(8.65134 0.0144715 0)
(8.6629 0.0113177 0)
(8.674 0.00854682 0)
(8.68468 0.00613837 0)
(8.69501 0.00407424 0)
(8.70503 0.00233959 0)
(8.7148 0.000923028 0)
(8.72437 -0.000183242 0)
(8.73381 -0.00098371 0)
(8.74317 -0.00148013 0)
(8.75253 -0.00167241 0)
(8.76195 -0.00156027 0)
(8.77154 -0.00114467 0)
(8.78137 -0.000433371 0)
(8.79157 0.000566195 0)
(8.80223 0.00179682 0)
(8.33388 0.0109422 0)
(8.34287 0.031393 0)
(8.36082 0.0467612 0)
(8.38342 0.0559571 0)
(8.4073 0.0600482 0)
(8.43121 0.06033 0)
(8.45443 0.0578825 0)
(8.47648 0.0536749 0)
(8.49719 0.0484813 0)
(8.5166 0.0428374 0)
(8.53479 0.0371004 0)
(8.55186 0.0315046 0)
(8.56793 0.0261932 0)
(8.58308 0.0212458 0)
(8.59742 0.0167 0)
(8.61103 0.0125668 0)
(8.62397 0.0088408 0)
(8.63632 0.00550684 0)
(8.64815 0.00254488 0)
(8.6595 -6.66637e-05 0)
(8.67043 -0.00234907 0)
(8.681 -0.00432214 0)
(8.69127 -0.00600345 0)
(8.70129 -0.00740817 0)
(8.71112 -0.00854905 0)
(8.72081 -0.00943695 0)
(8.73044 -0.0100815 0)
(8.74006 -0.0104925 0)
(8.74976 -0.010681 0)
(8.75962 -0.0106615 0)
(8.76971 -0.0104565 0)
(8.78016 -0.0100905 0)
(8.79102 -0.00963049 0)
(8.33375 0.0084425 0)
(8.34136 0.0242612 0)
(8.35677 0.0363009 0)
(8.37666 0.0435902 0)
(8.39828 0.0467689 0)
(8.42043 0.0467784 0)
(8.44237 0.0444644 0)
(8.46357 0.0406078 0)
(8.48379 0.0358559 0)
(8.50296 0.030678 0)
(8.52109 0.0253964 0)
(8.53824 0.0202278 0)
(8.55445 0.0153082 0)
(8.56981 0.0107156 0)
(8.58438 0.00648825 0)
(8.59824 0.00263841 0)
(8.61144 -0.000838268 0)
(8.62404 -0.00395618 0)
(8.63612 -0.00673531 0)
(8.64771 -0.00919788 0)
(8.65888 -0.0113665 0)
(8.66969 -0.0132632 0)
(8.68019 -0.0149083 0)
(8.69043 -0.0163211 0)
(8.70047 -0.017519 0)
(8.71038 -0.0185189 0)
(8.72021 -0.0193376 0)
(8.73004 -0.0199931 0)
(8.73994 -0.0205062 0)
(8.74997 -0.0209017 0)
(8.76021 -0.0212128 0)
(8.77077 -0.0214759 0)
(8.78168 -0.0217621 0)
(8.33365 0.00624675 0)
(8.34022 0.0179483 0)
(8.35367 0.0268555 0)
(8.3714 0.0321541 0)
(8.39113 0.0342127 0)
(8.41179 0.0337053 0)
(8.43262 0.0312857 0)
(8.45308 0.0275748 0)
(8.47286 0.023104 0)
(8.49181 0.0182726 0)
(8.5099 0.0133627 0)
(8.52711 0.00856654 0)
(8.54347 0.00400697 0)
(8.55903 -0.000245039 0)
(8.57383 -0.00415484 0)
(8.58792 -0.00771234 0)
(8.60137 -0.0109235 0)
(8.61422 -0.0138042 0)
(8.62652 -0.0163761 0)
(8.63834 -0.0186633 0)
(8.64973 -0.0206912 0)
(8.66074 -0.0224845 0)
(8.67143 -0.0240674 0)
(8.68186 -0.0254629 0)
(8.69208 -0.0266935 0)
(8.70215 -0.0277815 0)
(8.71213 -0.0287501 0)
(8.72209 -0.0296241 0)
(8.73209 -0.0304318 0)
(8.7422 -0.0312057 0)
(8.75249 -0.031986 0)
(8.76303 -0.0328171 0)
(8.77386 -0.0337697 0)
(8.33357 0.00427931 0)
(8.33936 0.0122572 0)
(8.35131 0.0181995 0)
(8.36734 0.0214563 0)
(8.38556 0.0222325 0)
(8.40498 0.0210055 0)
(8.4249 0.0182738 0)
(8.44474 0.0145242 0)
(8.46415 0.010183 0)
(8.48294 0.00557988 0)
(8.50101 0.000951822 0)
(8.51831 -0.00353837 0)
(8.53484 -0.00778675 0)
(8.5506 -0.0117343 0)
(8.56563 -0.0153541 0)
(8.57997 -0.0186413 0)
(8.59365 -0.021606 0)
(8.60674 -0.0242672 0)
(8.61928 -0.0266492 0)
(8.63131 -0.0287792 0)
(8.6429 -0.030685 0)
(8.6541 -0.0323947 0)
(8.66496 -0.0339356 0)
(8.67554 -0.0353346 0)
(8.68589 -0.0366183 0)
(8.69608 -0.0378135 0)
(8.70615 -0.0389483 0)
(8.71617 -0.0400527 0)
(8.72621 -0.0411599 0)
(8.7363 -0.0423074 0)
(8.74653 -0.043539 0)
(8.75694 -0.0449024 0)
(8.76756 -0.046465 0)
(8.33351 0.00248063 0)
(8.33872 0.00702759 0)
(8.34955 0.0101363 0)
(8.36427 0.0113159 0)
(8.38131 0.0106799 0)
(8.39977 0.00856576 0)
(8.41897 0.00534917 0)
(8.43832 0.00140512 0)
(8.45747 -0.00293233 0)
(8.47616 -0.00740052 0)
(8.49425 -0.0118091 0)
(8.51167 -0.0160284 0)
(8.52837 -0.0199775 0)
(8.54435 -0.0236137 0)
(8.55961 -0.0269218 0)
(8.57418 -0.0299058 0)
(8.5881 -0.0325825 0)
(8.60141 -0.0349765 0)
(8.61416 -0.0371169 0)
(8.62639 -0.0390351 0)
(8.63815 -0.040763 0)
(8.6495 -0.0423322 0)
(8.66049 -0.043774 0)
(8.67118 -0.0451191 0)
(8.68161 -0.0463978 0)
(8.69186 -0.047641 0)
(8.70196 -0.0488805 0)
(8.71198 -0.0501499 0)
(8.72196 -0.0514857 0)
(8.73196 -0.0529279 0)
(8.74203 -0.0545216 0)
(8.75222 -0.0563154 0)
(8.76255 -0.0583707 0)
(8.33347 0.000793891 0)
(8.33826 0.00211563 0)
(8.34827 0.00248382 0)
(8.36206 0.00155363 0)
(8.37823 -0.000604916 0)
(8.39599 -0.00375237 0)
(8.41467 -0.00761001 0)
(8.43371 -0.011897 0)
(8.45271 -0.016362 0)
(8.4714 -0.020807 0)
(8.48959 -0.0250895 0)
(8.50718 -0.0291157 0)
(8.5241 -0.032831 0)
(8.54033 -0.036212 0)
(8.55585 -0.0392577 0)
(8.57067 -0.0419828 0)
(8.58484 -0.0444123 0)
(8.59838 -0.0465775 0)
(8.61133 -0.0485128 0)
(8.62374 -0.0502542 0)
(8.63566 -0.0518374 0)
(8.64714 -0.0532979 0)
(8.65824 -0.0546703 0)
(8.669 -0.0559883 0)
(8.67948 -0.0572854 0)
(8.68973 -0.0585951 0)
(8.69981 -0.0599517 0)
(8.70976 -0.0613907 0)
(8.71962 -0.0629499 0)
(8.72945 -0.0646695 0)
(8.73929 -0.0665934 0)
(8.74917 -0.068768 0)
(8.7591 -0.0712473 0)
(8.33345 -0.00081632 0)
(8.33796 -0.00259598 0)
(8.34743 -0.00492114 0)
(8.36057 -0.00800064 0)
(8.37618 -0.011777 0)
(8.39349 -0.0160756 0)
(8.41188 -0.0206915 0)
(8.43077 -0.0254213 0)
(8.44975 -0.030086 0)
(8.46853 -0.0345484 0)
(8.48689 -0.0387148 0)
(8.50471 -0.0425297 0)
(8.52188 -0.0459694 0)
(8.53836 -0.0490341 0)
(8.55415 -0.0517416 0)
(8.56923 -0.0541213 0)
(8.58363 -0.0562099 0)
(8.59738 -0.0580479 0)
(8.61051 -0.0596774 0)
(8.62308 -0.0611403 0)
(8.63513 -0.0624776 0)
(8.64671 -0.063729 0)
(8.65787 -0.0649325 0)
(8.66867 -0.066125 0)
(8.67914 -0.0673424 0)
(8.68935 -0.0686202 0)
(8.69934 -0.0699941 0)
(8.70916 -0.0715003 0)
(8.71885 -0.0731763 0)
(8.72844 -0.0750613 0)
(8.73798 -0.0771966 0)
(8.74749 -0.0796254 0)
(8.75699 -0.0823937 0)
(8.33343 -0.00239087 0)
(8.33778 -0.00722268 0)
(8.34695 -0.0122423 0)
(8.35976 -0.0175323 0)
(8.37509 -0.0230311 0)
(8.39223 -0.0286093 0)
(8.41057 -0.034123 0)
(8.42953 -0.039437 0)
(8.44868 -0.044439 0)
(8.46769 -0.0490497 0)
(8.48635 -0.053223 0)
(8.50449 -0.056942 0)
(8.52199 -0.0602136 0)
(8.53881 -0.0630622 0)
(8.55491 -0.0655246 0)
(8.57028 -0.0676453 0)
(8.58494 -0.069473 0)
(8.59892 -0.0710578 0)
(8.61224 -0.0724493 0)
(8.62497 -0.073696 0)
(8.63713 -0.0748437 0)
(8.64879 -0.0759364 0)
(8.65998 -0.0770154 0)
(8.67077 -0.0781201 0)
(8.6812 -0.0792884 0)
(8.69132 -0.0805568 0)
(8.70118 -0.0819614 0)
(8.71081 -0.083538 0)
(8.72026 -0.0853225 0)
(8.72955 -0.0873516 0)
(8.73873 -0.0896625 0)
(8.74781 -0.0922931 0)
(8.75679 -0.0952809 0)
(8.33342 -0.00397819 0)
(8.33773 -0.0118818 0)
(8.34682 -0.0196398 0)
(8.35957 -0.0272113 0)
(8.3749 -0.034513 0)
(8.39214 -0.0414405 0)
(8.41065 -0.0478952 0)
(8.42986 -0.0538001 0)
(8.44932 -0.0591055 0)
(8.4687 -0.0637914 0)
(8.48774 -0.0678644 0)
(8.50626 -0.0713528 0)
(8.52415 -0.0743014 0)
(8.54132 -0.0767654 0)
(8.55775 -0.0788066 0)
(8.57342 -0.0804892 0)
(8.58834 -0.0818775 0)
(8.60253 -0.0830336 0)
(8.61604 -0.0840167 0)
(8.6289 -0.0848824 0)
(8.64115 -0.085682 0)
(8.65286 -0.0864635 0)
(8.66406 -0.0872711 0)
(8.67481 -0.0881461 0)
(8.68515 -0.0891274 0)
(8.69514 -0.0902517 0)
(8.70482 -0.0915546 0)
(8.71422 -0.0930701 0)
(8.72338 -0.0948321 0)
(8.73234 -0.0968735 0)
(8.74112 -0.0992273 0)
(8.74974 -0.101927 0)
(8.75822 -0.105 0)
(8.33343 -0.0056137 0)
(8.33781 -0.0166907 0)
(8.34706 -0.0273019 0)
(8.36005 -0.0372899 0)
(8.37571 -0.0465517 0)
(8.39337 -0.0550074 0)
(8.41237 -0.0626017 0)
(8.43213 -0.0693115 0)
(8.45217 -0.0751436 0)
(8.47213 -0.0801302 0)
(8.49175 -0.0843238 0)
(8.51081 -0.087793 0)
(8.52921 -0.0906162 0)
(8.54684 -0.0928775 0)
(8.56367 -0.0946623 0)
(8.57969 -0.0960546 0)
(8.5949 -0.0971348 0)
(8.60932 -0.0979783 0)
(8.62301 -0.0986548 0)
(8.63599 -0.099228 0)
(8.64831 -0.099756 0)
(8.66003 -0.100291 0)
(8.6712 -0.100882 0)
(8.68187 -0.101571 0)
(8.69209 -0.102399 0)
(8.7019 -0.103402 0)
(8.71134 -0.104615 0)
(8.72046 -0.10607 0)
(8.72929 -0.107797 0)
(8.73786 -0.109825 0)
(8.74618 -0.112182 0)
(8.75429 -0.114895 0)
(8.76218 -0.117984 0)
(8.33345 -0.00734366 0)
(8.33801 -0.0217728 0)
(8.34763 -0.0353841 0)
(8.36114 -0.0478838 0)
(8.37742 -0.0591312 0)
(8.39575 -0.0690581 0)
(8.41547 -0.0776505 0)
(8.43597 -0.0849483 0)
(8.45674 -0.0910307 0)
(8.47742 -0.0960003 0)
(8.49771 -0.0999737 0)
(8.51741 -0.103074 0)
(8.53637 -0.105426 0)
(8.55452 -0.107149 0)
(8.57181 -0.108359 0)
(8.58821 -0.109162 0)
(8.60373 -0.109654 0)
(8.61841 -0.109925 0)
(8.63228 -0.110054 0)
(8.64539 -0.110111 0)
(8.65778 -0.110158 0)
(8.66951 -0.110253 0)
(8.68063 -0.110444 0)
(8.6912 -0.110776 0)
(8.70127 -0.111287 0)
(8.71087 -0.112014 0)
(8.72006 -0.112989 0)
(8.72887 -0.114242 0)
(8.73735 -0.115798 0)
(8.74551 -0.117684 0)
(8.75338 -0.119921 0)
(8.76099 -0.122531 0)
(8.76834 -0.125527 0)
(8.33348 -0.00922512 0)
(8.33838 -0.0273131 0)
(8.34869 -0.0442301 0)
(8.36315 -0.059566 0)
(8.38052 -0.0731691 0)
(8.40003 -0.0849921 0)
(8.42096 -0.0950508 0)
(8.44264 -0.103426 0)
(8.46452 -0.110245 0)
(8.48623 -0.11566 0)
(8.50745 -0.119835 0)
(8.52797 -0.122941 0)
(8.54766 -0.125144 0)
(8.56642 -0.126604 0)
(8.58421 -0.127467 0)
(8.60102 -0.127867 0)
(8.61687 -0.127925 0)
(8.63179 -0.127748 0)
(8.64582 -0.127428 0)
(8.65902 -0.127049 0)
(8.67143 -0.12668 0)
(8.68313 -0.126384 0)
(8.69415 -0.126212 0)
(8.70456 -0.12621 0)
(8.71442 -0.126419 0)
(8.72376 -0.126873 0)
(8.73264 -0.127602 0)
(8.74109 -0.128632 0)
(8.74915 -0.129986 0)
(8.75684 -0.131683 0)
(8.7642 -0.133741 0)
(8.77125 -0.136174 0)
(8.77797 -0.138988 0)
(8.33352 -0.0113184 0)
(8.33887 -0.0334268 0)
(8.35011 -0.0538396 0)
(8.36577 -0.0719621 0)
(8.38445 -0.0876215 0)
(8.40534 -0.100823 0)
(8.42766 -0.111676 0)
(8.45071 -0.120373 0)
(8.4739 -0.127153 0)
(8.49683 -0.132261 0)
(8.51917 -0.135939 0)
(8.5407 -0.138418 0)
(8.56127 -0.139912 0)
(8.5808 -0.140614 0)
(8.59923 -0.140699 0)
(8.61657 -0.140321 0)
(8.63284 -0.139614 0)
(8.64807 -0.138697 0)
(8.66232 -0.13767 0)
(8.67565 -0.136621 0)
(8.68811 -0.135624 0)
(8.69978 -0.134743 0)
(8.71072 -0.134031 0)
(8.72098 -0.133533 0)
(8.73062 -0.133289 0)
(8.7397 -0.133332 0)
(8.74826 -0.133687 0)
(8.75634 -0.13438 0)
(8.764 -0.135427 0)
(8.77125 -0.136845 0)
(8.77812 -0.138646 0)
(8.78465 -0.14084 0)
(8.79085 -0.143425 0)
(8.33361 -0.0137377 0)
(8.33975 -0.0405879 0)
(8.35259 -0.0653154 0)
(8.37031 -0.0872033 0)
(8.39123 -0.106069 0)
(8.41438 -0.121892 0)
(8.43887 -0.134766 0)
(8.46389 -0.14491 0)
(8.48884 -0.152621 0)
(8.5133 -0.158217 0)
(8.53696 -0.162018 0)
(8.55961 -0.164333 0)
(8.58111 -0.165448 0)
(8.6014 -0.165618 0)
(8.62044 -0.165068 0)
(8.63826 -0.163994 0)
(8.65488 -0.162563 0)
(8.67035 -0.160917 0)
(8.68474 -0.159175 0)
(8.69813 -0.157435 0)
(8.71056 -0.15578 0)
(8.72213 -0.154277 0)
(8.7329 -0.152981 0)
(8.74293 -0.151939 0)
(8.75229 -0.151186 0)
(8.76103 -0.150753 0)
(8.7692 -0.150662 0)
(8.77686 -0.150934 0)
(8.78403 -0.151582 0)
(8.79076 -0.152616 0)
(8.79708 -0.154041 0)
(8.803 -0.155862 0)
(8.80854 -0.158068 0)
(8.33367 -0.0165447 0)
(8.34059 -0.0485655 0)
(8.35504 -0.0773079 0)
(8.37481 -0.101883 0)
(8.39799 -0.122323 0)
(8.42353 -0.138883 0)
(8.45046 -0.151899 0)
(8.47786 -0.161788 0)
(8.50506 -0.168984 0)
(8.53158 -0.173892 0)
(8.55707 -0.176892 0)
(8.58131 -0.178333 0)
(8.60417 -0.178527 0)
(8.62558 -0.177752 0)
(8.64554 -0.176249 0)
(8.66408 -0.174228 0)
(8.68125 -0.171868 0)
(8.69712 -0.169321 0)
(8.71177 -0.166713 0)
(8.7253 -0.164149 0)
(8.73778 -0.161717 0)
(8.74931 -0.159486 0)
(8.75995 -0.157513 0)
(8.76979 -0.155844 0)
(8.77889 -0.154514 0)
(8.78732 -0.153551 0)
(8.79514 -0.152977 0)
(8.80239 -0.152807 0)
(8.80913 -0.153051 0)
(8.8154 -0.153716 0)
(8.82122 -0.154801 0)
(8.82665 -0.156309 0)
(8.8317 -0.15822 0)
(8.33392 -0.0201243 0)
(8.34288 -0.0594484 0)
(8.36098 -0.095068 0)
(8.38494 -0.125766 0)
(8.41216 -0.15133 0)
(8.44139 -0.171795 0)
(8.47155 -0.187471 0)
(8.50172 -0.198921 0)
(8.53127 -0.206775 0)
(8.55978 -0.211643 0)
(8.58695 -0.214093 0)
(8.61259 -0.214633 0)
(8.6366 -0.213706 0)
(8.65896 -0.211685 0)
(8.67966 -0.208884 0)
(8.69877 -0.205563 0)
(8.71635 -0.201933 0)
(8.73249 -0.198166 0)
(8.74729 -0.194401 0)
(8.76084 -0.190746 0)
(8.77324 -0.18729 0)
(8.78459 -0.1841 0)
(8.79498 -0.181229 0)
(8.80449 -0.178717 0)
(8.8132 -0.176595 0)
(8.82118 -0.174883 0)
(8.82849 -0.173599 0)
(8.83519 -0.172752 0)
(8.84133 -0.172348 0)
(8.84695 -0.172387 0)
(8.85209 -0.172866 0)
(8.8568 -0.173778 0)
(8.86108 -0.1751 0)
(8.33388 -0.0242093 0)
(8.34368 -0.0697552 0)
(8.3642 -0.108409 0)
(8.39158 -0.139912 0)
(8.42293 -0.165332 0)
(8.45675 -0.18533 0)
(8.49156 -0.200458 0)
(8.52611 -0.211363 0)
(8.5596 -0.218662 0)
(8.59152 -0.222921 0)
(8.62156 -0.224675 0)
(8.64953 -0.224419 0)
(8.67539 -0.222595 0)
(8.69914 -0.219593 0)
(8.72087 -0.215748 0)
(8.74066 -0.211347 0)
(8.75866 -0.206629 0)
(8.77498 -0.201786 0)
(8.78976 -0.196978 0)
(8.80314 -0.19233 0)
(8.81524 -0.187937 0)
(8.82618 -0.183875 0)
(8.83606 -0.1802 0)
(8.84499 -0.176951 0)
(8.85306 -0.174157 0)
(8.86034 -0.171838 0)
(8.86691 -0.170005 0)
(8.87283 -0.168664 0)
(8.87816 -0.167817 0)
(8.88295 -0.167462 0)
(8.88726 -0.167591 0)
(8.89113 -0.168194 0)
(8.89463 -0.169237 0)
(8.33499 -0.0311335 0)
(8.35143 -0.0921275 0)
(8.38067 -0.145166 0)
(8.41559 -0.188128 0)
(8.4527 -0.221369 0)
(8.49107 -0.245697 0)
(8.52954 -0.262423 0)
(8.56701 -0.273019 0)
(8.60284 -0.278763 0)
(8.63664 -0.280726 0)
(8.66813 -0.27981 0)
(8.69719 -0.276756 0)
(8.72379 -0.272159 0)
(8.74802 -0.266494 0)
(8.76997 -0.260144 0)
(8.7898 -0.253409 0)
(8.80767 -0.246527 0)
(8.82375 -0.239685 0)
(8.8382 -0.233028 0)
(8.85119 -0.226664 0)
(8.86286 -0.220677 0)
(8.87336 -0.215126 0)
(8.8828 -0.210054 0)
(8.8913 -0.20549 0)
(8.89895 -0.201451 0)
(8.90585 -0.197948 0)
(8.91206 -0.194986 0)
(8.91765 -0.192566 0)
(8.92269 -0.190687 0)
(8.92723 -0.189346 0)
(8.93131 -0.188535 0)
(8.935 -0.188248 0)
(8.93833 -0.188441 0)
(8.33404 -0.0361576 0)
(8.34998 -0.0984096 0)
(8.3841 -0.146853 0)
(8.42714 -0.186205 0)
(8.4736 -0.218442 0)
(8.52104 -0.243305 0)
(8.56733 -0.261246 0)
(8.61126 -0.273164 0)
(8.65248 -0.279908 0)
(8.69092 -0.282351 0)
(8.72659 -0.281377 0)
(8.75964 -0.277797 0)
(8.79023 -0.272317 0)
(8.81855 -0.265537 0)
(8.84476 -0.257946 0)
(8.86901 -0.249936 0)
(8.89146 -0.241812 0)
(8.91224 -0.233808 0)
(8.93148 -0.226095 0)
(8.94932 -0.2188 0)
(8.96586 -0.21201 0)
(8.98122 -0.205782 0)
(8.99549 -0.200151 0)
(9.00878 -0.195136 0)
(9.02116 -0.190742 0)
(9.0327 -0.186968 0)
(9.04348 -0.183807 0)
(9.05356 -0.181252 0)
(9.063 -0.179297 0)
(9.07185 -0.177939 0)
(9.08018 -0.177181 0)
(9.08806 -0.177027 0)
(9.09558 -0.177448 0)
(8.3396 -0.0603325 0)
(8.37715 -0.169297 0)
(8.42658 -0.247409 0)
(8.47667 -0.300273 0)
(8.52943 -0.334985 0)
(8.58632 -0.355915 0)
(8.64577 -0.36715 0)
(8.70644 -0.371779 0)
(8.7674 -0.371757 0)
(8.82757 -0.368411 0)
(8.88594 -0.362688 0)
(8.94178 -0.355265 0)
(8.99457 -0.346647 0)
(9.04398 -0.337228 0)
(9.08984 -0.327328 0)
(9.13211 -0.317211 0)
(9.17087 -0.307098 0)
(9.20626 -0.297169 0)
(9.23847 -0.287572 0)
(9.26772 -0.27842 0)
(9.29425 -0.2698 0)
(9.31827 -0.261773 0)
(9.34003 -0.254379 0)
(9.35972 -0.247643 0)
(9.37753 -0.241573 0)
(9.39363 -0.236171 0)
(9.40818 -0.231432 0)
(9.4213 -0.227352 0)
(9.43311 -0.223934 0)
(9.44368 -0.221184 0)
(9.45313 -0.219159 0)
(9.46154 -0.217864 0)
(9.46909 -0.217489 0)
(8.33761 -0.0464028 0)
(8.39359 -0.120567 0)
(8.49398 -0.184284 0)
(8.60894 -0.245778 0)
(8.73097 -0.298565 0)
(8.8546 -0.339492 0)
(8.97292 -0.369294 0)
(9.08183 -0.388871 0)
(9.17914 -0.399381 0)
(9.26365 -0.402416 0)
(9.33511 -0.3996 0)
(9.39398 -0.392397 0)
(9.44111 -0.382069 0)
(9.47762 -0.369664 0)
(9.50472 -0.356021 0)
(9.52363 -0.341797 0)
(9.53552 -0.327491 0)
(9.54145 -0.313472 0)
(9.54238 -0.300006 0)
(9.53913 -0.287271 0)
(9.53243 -0.275383 0)
(9.52288 -0.264405 0)
(9.51099 -0.254362 0)
(9.49718 -0.245248 0)
(9.48181 -0.237038 0)
(9.46513 -0.229692 0)
(9.44738 -0.223161 0)
(9.42869 -0.217392 0)
(9.40921 -0.212349 0)
(9.38892 -0.208002 0)
(9.36798 -0.20445 0)
(9.34605 -0.201641 0)
(9.32387 -0.200639 0)
(8.40922 -0.221158 0)
(8.63495 -0.427994 0)
(8.83327 -0.522132 0)
(8.97727 -0.582634 0)
(9.07133 -0.615317 0)
(9.11445 -0.625797 0)
(9.11096 -0.621658 0)
(9.07024 -0.606972 0)
(9.00115 -0.584571 0)
(8.9111 -0.557012 0)
(8.80655 -0.526348 0)
(8.69281 -0.494154 0)
(8.57405 -0.461648 0)
(8.45343 -0.429737 0)
(8.33329 -0.399068 0)
(8.21529 -0.370068 0)
(8.10059 -0.342998 0)
(7.9899 -0.317987 0)
(7.88366 -0.29507 0)
(7.78205 -0.274213 0)
(7.68512 -0.255338 0)
(7.59276 -0.238333 0)
(7.50483 -0.223072 0)
(7.4211 -0.209413 0)
(7.34134 -0.197211 0)
(7.26527 -0.186319 0)
(7.19264 -0.176581 0)
(7.12315 -0.167846 0)
(7.0565 -0.159935 0)
(6.99226 -0.152678 0)
(6.93006 -0.145972 0)
(6.86878 -0.138904 0)
(6.80885 -0.135243 0)
(8.13712 -0.207084 0)
(7.84795 -0.387867 0)
(7.38604 -0.439159 0)
(6.86111 -0.439754 0)
(6.36209 -0.408435 0)
(5.89187 -0.359482 0)
(5.45303 -0.305162 0)
(5.05292 -0.251861 0)
(4.69261 -0.20279 0)
(4.37009 -0.159558 0)
(4.08299 -0.122606 0)
(3.82846 -0.0917076 0)
(3.60331 -0.0663232 0)
(3.40439 -0.0457652 0)
(3.22868 -0.0293121 0)
(3.07339 -0.0162823 0)
(2.93598 -0.00606757 0)
(2.81416 0.00185578 0)
(2.70589 0.0079279 0)
(2.60938 0.0125124 0)
(2.52307 0.0159067 0)
(2.44556 0.0183522 0)
(2.37568 0.0200455 0)
(2.31239 0.0211469 0)
(2.25481 0.0217935 0)
(2.20218 0.0221039 0)
(2.15384 0.0222088 0)
(2.10934 0.0222393 0)
(2.06812 0.0224384 0)
(2.03035 0.0231377 0)
(1.99503 0.0246826 0)
(1.96442 0.0299571 0)
(1.93623 0.0243825 0)
(1.40626 -0.0163616 0)
(1.55753 -0.0113265 0)
(1.66565 -0.0505353 0)
(1.68675 -0.116149 0)