/*--------------------------------*- C++ -*----------------------------------*\
| =========                 |                                                 |
| \\      /  F ield         | OpenFOAM: The Open Source CFD Toolbox           |
|  \\    /   O peration     | Version:  2.1.1                                 |
|   \\  /    A nd           | Web:      www.OpenFOAM.org                      |
|    \\/     M anipulation  |                                                 |
\*---------------------------------------------------------------------------*/
FoamFile
{
    version     2.0;
    format      ascii;
    class       volScalarField;
    location    "0.085";
    object      nuSgs;
}
// * * * * * * * * * * * * * * * * * * * * * * * * * * * * * * * * * * * * * //

dimensions      [0 2 -1 0 0 0 0];

internalField   nonuniform List<scalar> 
6820
(
0.000556014
0.000457395
0.000368097
0.000306046
0.000268817
0.000243168
0.000224286
0.000209842
0.000198174
0.000188371
0.000179918
0.00017248
0.000165835
0.000159824
0.000154333
0.000149275
0.000144581
0.000140198
0.000136082
0.000132197
0.000128512
0.000124999
0.000121631
0.000118385
0.000115235
0.000112153
0.00010911
0.000106072
0.000102994
9.98275e-05
9.65178e-05
9.27372e-05
8.94371e-05
0.000103501
0.000170671
0.00022366
0.000240028
0.00023527
0.00022491
0.000213222
0.00020195
0.000191734
0.00018259
0.0001744
0.000167026
0.000160346
0.000154255
0.000148667
0.000143515
0.000138738
0.000134291
0.000130133
0.000126229
0.000122554
0.000119082
0.000115794
0.000112675
0.00010971
0.000106888
0.000104204
0.000101648
9.92347e-05
9.69308e-05
9.49231e-05
9.28525e-05
9.28478e-05
3.6772e-05
2.84669e-05
4.56247e-05
8.23142e-05
0.000107956
0.00012355
0.000131978
0.000135832
0.000136942
0.000136379
0.000134784
0.000132554
0.000129939
0.0001271
0.000124145
0.000121145
0.000118145
0.000115177
0.000112261
0.000109411
0.000106636
0.000103941
0.00010133
9.8806e-05
9.63714e-05
9.40306e-05
9.17894e-05
8.96572e-05
8.76529e-05
8.58009e-05
8.41785e-05
8.28263e-05
8.22693e-05
2.07347e-05
2.8675e-05
2.6548e-05
1.50713e-05
3.62792e-06
1.38419e-05
2.5662e-05
3.54698e-05
4.33712e-05
4.96428e-05
5.45617e-05
5.83739e-05
6.12831e-05
6.3448e-05
6.5003e-05
6.60587e-05
6.67061e-05
6.70197e-05
6.70609e-05
6.68806e-05
6.65211e-05
6.60182e-05
6.54024e-05
6.47009e-05
6.39384e-05
6.31384e-05
6.23255e-05
6.15265e-05
6.07762e-05
6.01145e-05
5.96105e-05
5.93262e-05
5.94598e-05
1.44202e-05
1.75742e-05
2.25961e-05
2.42944e-05
2.39713e-05
2.19999e-05
1.91222e-05
1.58787e-05
1.25033e-05
9.14578e-06
5.91313e-06
2.88427e-06
6.1136e-07
2.7106e-06
5.05069e-06
7.17521e-06
9.07749e-06
1.07674e-05
1.22592e-05
1.35689e-05
1.47133e-05
1.57096e-05
1.65751e-05
1.73278e-05
1.79863e-05
1.85705e-05
1.91027e-05
1.96089e-05
2.01203e-05
2.06737e-05
2.13127e-05
2.20765e-05
2.30069e-05
1.09215e-05
1.24855e-05
1.38092e-05
1.43211e-05
1.51067e-05
1.57431e-05
1.61153e-05
1.63169e-05
1.63532e-05
1.62302e-05
1.5973e-05
1.56054e-05
1.51516e-05
1.46267e-05
1.40491e-05
1.34356e-05
1.28008e-05
1.21563e-05
1.15113e-05
1.08727e-05
1.0245e-05
9.63082e-06
9.03092e-06
8.4442e-06
7.86772e-06
7.29659e-06
6.72372e-06
6.14012e-06
5.53523e-06
4.902e-06
4.24616e-06
3.62588e-06
3.21302e-06
8.24802e-06
9.41596e-06
1.02315e-05
1.00312e-05
9.84405e-06
9.66671e-06
9.4813e-06
9.3898e-06
9.38117e-06
9.41147e-06
9.45408e-06
9.49156e-06
9.51253e-06
9.51512e-06
9.49732e-06
9.45824e-06
9.39807e-06
9.3177e-06
9.21824e-06
9.10083e-06
8.96645e-06
8.81579e-06
8.64915e-06
8.46642e-06
8.26699e-06
8.04992e-06
7.81395e-06
7.5586e-06
7.28494e-06
7.00183e-06
6.72727e-06
6.51979e-06
6.44518e-06
6.36691e-06
7.39767e-06
8.19846e-06
8.06211e-06
7.75359e-06
7.41559e-06
7.03856e-06
6.71357e-06
6.45941e-06
6.25549e-06
6.08906e-06
5.95118e-06
5.83299e-06
5.72784e-06
5.63135e-06
5.54034e-06
5.45216e-06
5.36465e-06
5.27599e-06
5.1846e-06
5.08905e-06
4.98799e-06
4.88008e-06
4.764e-06
4.63857e-06
4.50301e-06
4.35736e-06
4.20393e-06
4.0488e-06
3.90753e-06
3.80682e-06
3.8016e-06
3.94287e-06
5.00949e-06
5.84908e-06
6.523e-06
6.51603e-06
6.34962e-06
6.14366e-06
5.86149e-06
5.57527e-06
5.3235e-06
5.10263e-06
4.90798e-06
4.73616e-06
4.58234e-06
4.44226e-06
4.31294e-06
4.19198e-06
4.07737e-06
3.96743e-06
3.86069e-06
3.75578e-06
3.65145e-06
3.54648e-06
3.43975e-06
3.33036e-06
3.21782e-06
3.10247e-06
2.98623e-06
2.874e-06
2.77537e-06
2.70836e-06
2.69924e-06
2.78565e-06
2.99423e-06
4.00726e-06
4.69958e-06
5.28945e-06
5.35833e-06
5.25693e-06
5.11024e-06
4.89501e-06
4.66586e-06
4.46047e-06
4.27808e-06
4.11427e-06
3.96695e-06
3.83308e-06
3.70965e-06
3.59454e-06
3.48611e-06
3.38298e-06
3.28392e-06
3.18786e-06
3.09382e-06
3.0009e-06
2.90838e-06
2.81572e-06
2.72281e-06
2.63017e-06
2.53949e-06
2.45427e-06
2.38102e-06
2.33016e-06
2.31752e-06
2.36222e-06
2.48451e-06
2.69491e-06
3.2513e-06
3.82936e-06
4.34667e-06
4.45521e-06
4.40121e-06
4.30286e-06
4.14357e-06
3.95976e-06
3.78601e-06
3.62675e-06
3.48069e-06
3.34787e-06
3.22693e-06
3.11579e-06
3.01269e-06
2.91623e-06
2.8251e-06
2.73818e-06
2.65453e-06
2.57334e-06
2.49402e-06
2.41621e-06
2.33988e-06
2.26556e-06
2.19459e-06
2.12954e-06
2.07471e-06
2.03679e-06
2.02499e-06
2.05092e-06
2.12615e-06
2.25931e-06
2.45295e-06
2.66844e-06
3.15654e-06
3.61963e-06
3.76141e-06
3.75177e-06
3.69102e-06
3.57074e-06
3.41872e-06
3.26778e-06
3.12632e-06
2.99492e-06
2.87439e-06
2.76421e-06
2.66292e-06
2.56912e-06
2.48168e-06
2.39956e-06
2.32187e-06
2.24788e-06
2.17708e-06
2.10914e-06
2.04406e-06
1.98224e-06
1.92467e-06
1.87318e-06
1.83069e-06
1.80145e-06
1.7912e-06
1.80678e-06
1.85536e-06
1.94269e-06
2.07082e-06
2.23892e-06
2.20901e-06
2.62863e-06
3.05158e-06
3.21659e-06
3.24094e-06
3.20951e-06
3.12199e-06
3.0001e-06
2.87242e-06
2.74884e-06
2.63133e-06
2.52159e-06
2.42017e-06
2.32649e-06
2.23973e-06
2.15914e-06
2.084e-06
2.01366e-06
1.94761e-06
1.88554e-06
1.82737e-06
1.77336e-06
1.72419e-06
1.6811e-06
1.64603e-06
1.62173e-06
1.61176e-06
1.62034e-06
1.65182e-06
1.70992e-06
1.79671e-06
1.91114e-06
2.05124e-06
1.83939e-06
2.2079e-06
2.60112e-06
2.7843e-06
2.83803e-06
2.83255e-06
2.77251e-06
2.67566e-06
2.56702e-06
2.45782e-06
2.35166e-06
2.25107e-06
2.15737e-06
2.07058e-06
1.99029e-06
1.91602e-06
1.84729e-06
1.78364e-06
1.72476e-06
1.67053e-06
1.62108e-06
1.57684e-06
1.53861e-06
1.50766e-06
1.48573e-06
1.47507e-06
1.47826e-06
1.498e-06
1.53661e-06
1.59552e-06
1.67481e-06
1.77215e-06
1.88536e-06
1.53604e-06
1.86794e-06
2.24007e-06
2.43824e-06
2.51651e-06
2.53263e-06
2.49493e-06
2.41923e-06
2.32765e-06
2.23187e-06
2.13651e-06
2.04461e-06
1.95802e-06
1.87731e-06
1.8025e-06
1.73345e-06
1.66992e-06
1.61172e-06
1.5587e-06
1.51093e-06
1.46863e-06
1.4323e-06
1.40273e-06
1.38099e-06
1.36847e-06
1.36674e-06
1.37744e-06
1.40199e-06
1.44134e-06
1.49555e-06
1.56374e-06
1.64325e-06
1.73206e-06
1.28226e-06
1.58983e-06
1.94791e-06
2.15896e-06
2.25829e-06
2.29354e-06
2.27526e-06
2.21808e-06
2.14158e-06
2.05748e-06
1.97126e-06
1.88658e-06
1.80581e-06
1.73004e-06
1.6597e-06
1.59494e-06
1.53574e-06
1.48208e-06
1.43396e-06
1.39151e-06
1.355e-06
1.32488e-06
1.30179e-06
1.28656e-06
1.28011e-06
1.28339e-06
1.29725e-06
1.32221e-06
1.35833e-06
1.40499e-06
1.46087e-06
1.52348e-06
1.59097e-06
1.06594e-06
1.35994e-06
1.71004e-06
1.93275e-06
2.05041e-06
2.10259e-06
2.10102e-06
2.05972e-06
1.99635e-06
1.92256e-06
1.84451e-06
1.76631e-06
1.69074e-06
1.6193e-06
1.55274e-06
1.49147e-06
1.43568e-06
1.38548e-06
1.34098e-06
1.30236e-06
1.26986e-06
1.24385e-06
1.22479e-06
1.2132e-06
1.20958e-06
1.21439e-06
1.22789e-06
1.25003e-06
1.28037e-06
1.31797e-06
1.36144e-06
1.40857e-06
1.45774e-06
8.78229e-07
1.16861e-06
1.51606e-06
1.74962e-06
1.8834e-06
1.95076e-06
1.96399e-06
1.93669e-06
1.88507e-06
1.82048e-06
1.7496e-06
1.67694e-06
1.60562e-06
1.53753e-06
1.47375e-06
1.41493e-06
1.36145e-06
1.31354e-06
1.27138e-06
1.23513e-06
1.20501e-06
1.18125e-06
1.16411e-06
1.15382e-06
1.15056e-06
1.15441e-06
1.16523e-06
1.18264e-06
1.20596e-06
1.23415e-06
1.2659e-06
1.29934e-06
1.33309e-06
7.12708e-07
1.00926e-06
1.35869e-06
1.60252e-06
1.75062e-06
1.83165e-06
1.85803e-06
1.84302e-06
1.80171e-06
1.74518e-06
1.68045e-06
1.6124e-06
1.54449e-06
1.47892e-06
1.41704e-06
1.3597e-06
1.30743e-06
1.26056e-06
1.2193e-06
1.18384e-06
1.1543e-06
1.1308e-06
1.11342e-06
1.10221e-06
1.09708e-06
1.09788e-06
1.10424e-06
1.11561e-06
1.13124e-06
1.15012e-06
1.1711e-06
1.19262e-06
1.21348e-06
5.65161e-07
8.78061e-07
1.23315e-06
1.48663e-06
1.6474e-06
1.74073e-06
1.77885e-06
1.77472e-06
1.74254e-06
1.69311e-06
1.63371e-06
1.56952e-06
1.50425e-06
1.44038e-06
1.37951e-06
1.32268e-06
1.27056e-06
1.22356e-06
1.18193e-06
1.14583e-06
1.11534e-06
1.09047e-06
1.07119e-06
1.05737e-06
1.04879e-06
1.04514e-06
1.04595e-06
1.05061e-06
1.0584e-06
1.06838e-06
1.07961e-06
1.09082e-06
1.10102e-06
4.34052e-07
7.73683e-07
1.13661e-06
1.39887e-06
1.57073e-06
1.675e-06
1.72355e-06
1.72897e-06
1.70471e-06
1.66133e-06
1.60623e-06
1.54485e-06
1.48115e-06
1.41785e-06
1.35679e-06
1.29917e-06
1.2458e-06
1.19716e-06
1.15356e-06
1.11514e-06
1.08195e-06
1.05395e-06
1.03102e-06
1.01297e-06
9.99488e-07
9.90207e-07
9.84642e-07
9.82213e-07
9.82249e-07
9.83964e-07
9.8657e-07
9.89038e-07
9.90534e-07
3.23284e-07
6.97525e-07
1.06799e-06
1.33759e-06
1.51891e-06
1.63281e-06
1.69061e-06
1.70443e-06
1.68714e-06
1.64903e-06
1.59761e-06
1.53849e-06
1.47584e-06
1.4126e-06
1.35077e-06
1.29171e-06
1.23632e-06
1.18518e-06
1.1386e-06
1.09676e-06
1.05968e-06
1.02731e-06
9.99488e-07
9.75988e-07
9.56507e-07
9.40673e-07
9.28043e-07
9.18108e-07
9.10311e-07
9.04014e-07
8.98617e-07
8.93317e-07
8.87471e-07
2.49255e-07
6.52933e-07
1.02743e-06
1.30229e-06
1.49127e-06
1.61337e-06
1.67903e-06
1.69985e-06
1.68814e-06
1.65392e-06
1.60474e-06
1.54639e-06
1.48323e-06
1.4184e-06
1.35411e-06
1.29187e-06
1.23271e-06
1.1773e-06
1.12601e-06
1.07903e-06
1.03644e-06
9.9815e-07
9.64037e-07
9.33883e-07
9.07421e-07
8.8433e-07
8.6425e-07
8.46773e-07
8.31469e-07
8.17837e-07
8.05438e-07
7.93574e-07
7.81794e-07
2.4499e-07
6.43957e-07
1.01588e-06
1.29339e-06
1.48828e-06
1.61737e-06
1.69002e-06
1.71723e-06
1.71076e-06
1.68038e-06
1.6336e-06
1.57629e-06
1.51294e-06
1.4468e-06
1.38022e-06
1.31484e-06
1.25177e-06
1.19175e-06
1.13522e-06
1.08242e-06
1.03346e-06
9.88294e-07
9.46839e-07
9.08935e-07
8.74385e-07
8.42962e-07
8.14417e-07
7.8848e-07
7.64875e-07
7.43277e-07
7.23433e-07
7.04847e-07
6.87255e-07
3.17794e-07
6.73762e-07
1.03518e-06
1.31218e-06
1.51078e-06
1.64492e-06
1.72256e-06
1.75387e-06
1.75013e-06
1.7209e-06
1.67373e-06
1.61467e-06
1.54839e-06
1.47834e-06
1.40705e-06
1.3363e-06
1.2673e-06
1.20088e-06
1.13752e-06
1.07752e-06
1.02099e-06
9.67931e-07
9.18299e-07
8.7199e-07
8.28883e-07
7.88848e-07
7.51759e-07
7.17483e-07
6.85903e-07
6.56839e-07
6.30207e-07
6.05549e-07
5.82895e-07
4.38692e-07
7.42223e-07
1.08691e-06
1.36087e-06
1.56203e-06
1.70114e-06
1.78448e-06
1.82126e-06
1.82218e-06
1.79639e-06
1.75123e-06
1.69271e-06
1.62551e-06
1.5532e-06
1.47843e-06
1.40311e-06
1.3286e-06
1.25583e-06
1.1854e-06
1.11767e-06
1.05286e-06
9.91028e-07
9.32192e-07
8.76318e-07
8.2336e-07
7.73277e-07
7.26046e-07
6.81665e-07
6.40166e-07
6.0156e-07
5.65971e-07
5.33223e-07
5.03502e-07
5.89649e-07
8.48373e-07
1.17347e-06
1.44172e-06
1.64234e-06
1.78246e-06
1.86645e-06
1.90281e-06
1.90207e-06
1.87344e-06
1.82448e-06
1.76135e-06
1.68895e-06
1.61096e-06
1.5301e-06
1.44834e-06
1.36708e-06
1.28724e-06
1.20944e-06
1.13404e-06
1.06125e-06
9.91162e-07
9.23794e-07
8.59144e-07
7.97202e-07
7.3798e-07
6.81518e-07
6.27893e-07
5.77235e-07
5.2965e-07
4.85407e-07
4.44318e-07
4.0709e-07
7.66725e-07
9.9075e-07
1.29699e-06
1.56022e-06
1.76325e-06
1.90988e-06
2.00194e-06
2.04619e-06
2.05209e-06
2.02814e-06
1.98157e-06
1.91854e-06
1.8441e-06
1.76223e-06
1.67596e-06
1.58758e-06
1.49875e-06
1.41065e-06
1.32406e-06
1.2395e-06
1.15728e-06
1.07758e-06
1.00046e-06
9.25959e-07
8.54092e-07
7.84877e-07
7.18356e-07
6.54603e-07
5.93741e-07
5.35903e-07
4.8135e-07
4.30156e-07
3.82601e-07
9.74287e-07
1.17468e-06
1.46459e-06
1.71846e-06
1.91398e-06
2.05291e-06
2.13642e-06
2.17188e-06
2.16955e-06
2.13836e-06
2.08556e-06
2.01714e-06
1.93792e-06
1.85158e-06
1.76094e-06
1.66808e-06
1.57455e-06
1.48147e-06
1.3896e-06
1.29947e-06
1.21143e-06
1.1257e-06
1.0424e-06
9.61623e-07
8.83418e-07
8.07843e-07
7.34967e-07
6.64867e-07
5.97656e-07
5.33405e-07
4.7232e-07
4.14208e-07
3.59602e-07
1.21632e-06
1.39682e-06
1.67636e-06
1.93396e-06
2.1444e-06
2.30389e-06
2.40739e-06
2.45853e-06
2.46618e-06
2.4392e-06
2.3855e-06
2.31212e-06
2.22498e-06
2.12875e-06
2.02702e-06
1.92249e-06
1.81711e-06
1.71229e-06
1.60898e-06
1.50782e-06
1.40922e-06
1.31343e-06
1.22061e-06
1.13085e-06
1.0442e-06
9.60745e-07
8.80547e-07
8.03702e-07
7.30328e-07
6.60558e-07
5.94531e-07
5.32468e-07
4.73791e-07
1.51356e-06
1.69104e-06
1.95921e-06
2.19188e-06
2.36936e-06
2.49624e-06
2.57295e-06
2.60584e-06
2.60384e-06
2.57397e-06
2.52171e-06
2.45202e-06
2.36924e-06
2.27699e-06
2.17828e-06
2.07558e-06
1.97086e-06
1.86565e-06
1.76112e-06
1.65815e-06
1.55735e-06
1.45919e-06
1.36397e-06
1.27192e-06
1.18321e-06
1.09799e-06
1.0164e-06
9.38571e-07
8.6466e-07
7.94801e-07
7.29167e-07
6.67882e-07
6.10717e-07
1.85789e-06
2.01385e-06
2.29892e-06
2.58681e-06
2.83502e-06
3.02354e-06
3.13912e-06
3.18738e-06
3.18262e-06
3.13787e-06
3.06381e-06
2.96935e-06
2.86144e-06
2.74516e-06
2.62418e-06
2.50113e-06
2.37787e-06
2.25572e-06
2.13559e-06
2.01812e-06
1.90376e-06
1.79282e-06
1.68552e-06
1.58201e-06
1.48243e-06
1.38688e-06
1.29547e-06
1.20829e-06
1.12548e-06
1.04716e-06
9.73385e-07
9.04554e-07
8.39294e-07
2.34439e-06
2.53206e-06
2.76218e-06
2.92636e-06
3.05463e-06
3.16857e-06
3.25812e-06
3.31603e-06
3.34129e-06
3.33395e-06
3.29601e-06
3.23182e-06
3.14661e-06
3.0454e-06
2.93272e-06
2.81247e-06
2.68779e-06
2.56119e-06
2.43456e-06
2.30931e-06
2.18648e-06
2.06678e-06
1.95071e-06
1.83861e-06
1.7307e-06
1.62712e-06
1.52797e-06
1.43334e-06
1.34331e-06
1.25798e-06
1.17743e-06
1.10208e-06
1.03085e-06
2.82695e-06
2.97493e-06
3.40349e-06
3.84027e-06
4.16613e-06
4.36293e-06
4.44134e-06
4.43334e-06
4.36954e-06
4.26871e-06
4.1425e-06
3.99927e-06
3.84486e-06
3.68333e-06
3.51786e-06
3.35108e-06
3.18518e-06
3.02196e-06
2.86286e-06
2.70901e-06
2.56122e-06
2.42002e-06
2.28573e-06
2.15847e-06
2.03823e-06
1.92487e-06
1.8182e-06
1.71799e-06
1.62399e-06
1.53609e-06
1.45404e-06
1.37853e-06
1.30738e-06
3.8749e-06
4.01119e-06
3.95896e-06
3.91224e-06
4.0348e-06
4.2565e-06
4.45597e-06
4.58517e-06
4.64177e-06
4.63622e-06
4.5856e-06
4.50847e-06
4.41989e-06
4.33032e-06
4.24617e-06
4.17072e-06
4.10487e-06
4.04809e-06
3.99911e-06
3.95635e-06
3.91823e-06
3.88331e-06
3.85039e-06
3.81847e-06
3.78675e-06
3.75459e-06
3.72148e-06
3.68703e-06
3.65099e-06
3.61335e-06
3.57422e-06
3.53519e-06
3.49478e-06
4.34446e-06
4.96055e-06
5.96943e-06
6.46874e-06
6.59147e-06
6.56795e-06
6.55308e-06
6.65348e-06
6.90105e-06
7.26572e-06
7.69857e-06
8.15507e-06
8.60085e-06
9.0126e-06
9.37673e-06
9.68684e-06
9.94129e-06
1.01415e-05
1.02909e-05
1.03937e-05
1.04546e-05
1.04784e-05
1.04695e-05
1.04322e-05
1.03702e-05
1.02867e-05
1.01846e-05
1.00659e-05
9.93275e-06
9.78629e-06
9.62847e-06
9.46157e-06
9.28706e-06
7.54313e-06
5.83352e-06
4.6675e-06
6.26323e-06
8.98666e-06
1.16904e-05
1.40176e-05
1.59072e-05
1.73573e-05
1.83816e-05
1.90163e-05
1.93087e-05
1.93082e-05
1.9064e-05
1.86231e-05
1.80282e-05
1.73174e-05
1.6523e-05
1.56724e-05
1.4788e-05
1.38879e-05
1.29861e-05
1.20938e-05
1.12188e-05
1.03671e-05
9.54246e-06
8.74699e-06
7.98107e-06
7.24438e-06
6.53324e-06
5.84818e-06
5.17699e-06
4.53276e-06
8.58593e-06
1.47476e-05
1.88518e-05
2.12516e-05
2.23349e-05
2.18553e-05
1.99897e-05
1.71922e-05
1.39367e-05
1.08595e-05
8.99449e-06
9.42001e-06
1.18417e-05
1.51567e-05
1.86877e-05
2.21364e-05
2.53723e-05
2.83388e-05
3.10158e-05
3.34022e-05
3.5508e-05
3.73487e-05
3.89429e-05
4.03104e-05
4.1471e-05
4.24441e-05
4.32482e-05
4.39017e-05
4.44222e-05
4.48321e-05
4.51474e-05
4.54274e-05
4.56616e-05
3.46427e-05
3.72344e-05
4.66837e-05
6.18194e-05
7.75398e-05
9.2956e-05
0.000107366
0.000120062
0.000130855
0.000139786
0.000146966
0.000152557
0.000156746
0.000159719
0.000161651
0.000162701
0.000163012
0.000162707
0.000161895
0.000160667
0.000159102
0.000157265
0.000155211
0.000152987
0.00015063
0.000148171
0.000145637
0.000143044
0.000140412
0.000137745
0.000135044
0.0001324
0.000129825
0.000608447
0.000582507
0.000556883
0.000530412
0.000504393
0.000479142
0.000454699
0.000431336
0.000409235
0.000388453
0.000369007
0.000350883
0.000334036
0.000318397
0.000303887
0.000290425
0.000277924
0.000266302
0.000255479
0.000245381
0.00023594
0.000227093
0.000218782
0.000210958
0.000203575
0.000196589
0.000189964
0.000183665
0.000177651
0.000171901
0.000166285
0.000161339
0.000156833
8.11808e-05
7.02334e-05
5.90219e-05
5.03296e-05
4.76044e-05
5.12614e-05
5.85216e-05
6.71626e-05
7.55246e-05
8.15807e-05
8.42995e-05
8.45641e-05
8.36635e-05
8.24086e-05
8.21734e-05
7.66572e-05
5.87503e-05
4.33171e-05
4.14767e-05
3.99349e-05
3.40407e-05
2.61468e-05
1.80165e-05
1.04473e-05
5.33555e-06
8.72117e-06
1.58522e-05
2.39152e-05
3.22771e-05
3.70415e-05
3.43921e-05
2.96787e-05
3.19613e-05
3.92183e-05
4.47286e-05
4.56891e-05
4.43251e-05
4.56793e-05
4.88964e-05
5.51405e-05
6.12956e-05
5.81354e-05
4.79163e-05
3.65111e-05
2.7109e-05
2.00326e-05
1.42213e-05
8.57118e-06
2.00801e-06
8.27108e-06
2.22907e-05
3.6446e-05
4.42278e-05
4.35614e-05
3.8032e-05
3.20122e-05
2.72124e-05
2.34732e-05
2.03916e-05
1.77625e-05
1.54852e-05
1.34847e-05
1.17004e-05
1.00895e-05
8.6267e-06
7.29972e-06
6.10406e-06
5.03888e-06
4.10411e-06
3.29853e-06
2.61862e-06
2.0581e-06
1.60803e-06
1.25731e-06
9.9377e-07
8.04789e-07
6.77024e-07
5.95394e-07
5.43269e-07
5.0508e-07
4.69446e-07
4.30489e-07
3.87196e-07
3.41684e-07
2.97329e-07
2.57265e-07
2.2375e-07
1.98148e-07
1.81902e-07
1.76532e-07
1.84761e-07
2.06809e-07
2.44847e-07
2.92579e-07
3.56329e-07
4.11819e-07
4.96641e-07
5.13668e-07
6.61351e-07
5.87823e-07
0.000120188
0.000105924
8.87789e-05
7.61063e-05
6.91977e-05
6.8904e-05
7.37663e-05
7.97061e-05
8.24356e-05
8.0336e-05
7.53983e-05
7.06769e-05
6.72778e-05
6.44999e-05
6.30682e-05
6.53811e-05
6.35784e-05
4.90532e-05
3.49068e-05
3.49848e-05
3.62491e-05
3.25332e-05
2.61794e-05
1.99088e-05
1.61152e-05
1.68251e-05
2.13691e-05
2.80143e-05
3.44876e-05
3.56491e-05
2.98656e-05
2.62665e-05
3.11349e-05
3.90778e-05
4.39661e-05
4.42623e-05
4.2436e-05
4.30283e-05
4.65951e-05
5.18065e-05
5.9245e-05
5.972e-05
5.15442e-05
4.01174e-05
2.95802e-05
2.1083e-05
1.40541e-05
7.74026e-06
5.1771e-06
1.50845e-05
2.95226e-05
4.16123e-05
4.59388e-05
4.28236e-05
3.67099e-05
3.10785e-05
2.67124e-05
2.32384e-05
2.0324e-05
1.78139e-05
1.56178e-05
1.36645e-05
1.19001e-05
1.02899e-05
8.81588e-06
7.47076e-06
6.25359e-06
5.16599e-06
4.20951e-06
3.3839e-06
2.68609e-06
2.10987e-06
1.6462e-06
1.28411e-06
1.0117e-06
8.16599e-07
6.85568e-07
6.03243e-07
5.52217e-07
5.15894e-07
4.82039e-07
4.44219e-07
4.01124e-07
3.54829e-07
3.08899e-07
2.66909e-07
2.31807e-07
2.0576e-07
1.90885e-07
1.88782e-07
2.01342e-07
2.27484e-07
2.68439e-07
3.17614e-07
3.8146e-07
4.35338e-07
5.17835e-07
5.30946e-07
6.74042e-07
6.0085e-07
0.000110555
0.000111085
0.000105313
9.75191e-05
9.13189e-05
8.83808e-05
8.69324e-05
8.32047e-05
7.5008e-05
6.37481e-05
5.36957e-05
4.75705e-05
4.4167e-05
4.19384e-05
4.0733e-05
4.25134e-05
4.77284e-05
4.85993e-05
3.81653e-05
2.64798e-05
2.80192e-05
3.23907e-05
3.24351e-05
2.9766e-05
2.72317e-05
2.68382e-05
2.89346e-05
3.27266e-05
3.51209e-05
3.12809e-05
2.39171e-05
2.38393e-05
3.09289e-05
3.901e-05
4.29422e-05
4.24641e-05
4.05073e-05
4.04118e-05
4.37303e-05
4.8328e-05
5.57181e-05
5.98656e-05
5.51852e-05
4.5009e-05
3.40728e-05
2.4635e-05
1.71401e-05
1.23309e-05
1.4063e-05
2.43181e-05
3.72825e-05
4.57963e-05
4.63784e-05
4.13738e-05
3.51964e-05
3.01195e-05
2.62033e-05
2.30043e-05
2.02691e-05
1.78824e-05
1.57666e-05
1.38584e-05
1.21126e-05
1.05032e-05
9.01815e-06
7.65496e-06
6.41589e-06
5.30495e-06
4.32546e-06
3.47835e-06
2.76118e-06
2.16798e-06
1.6897e-06
1.31522e-06
1.03251e-06
8.29434e-07
6.93175e-07
6.08474e-07
5.57357e-07
5.22201e-07
4.89774e-07
4.52986e-07
4.10211e-07
3.63512e-07
3.16732e-07
2.7396e-07
2.38787e-07
2.13997e-07
2.02004e-07
2.04012e-07
2.20876e-07
2.50489e-07
2.93495e-07
3.43127e-07
4.06082e-07
4.57595e-07
5.37516e-07
5.47374e-07
6.86639e-07
6.15485e-07
8.00559e-05
8.18619e-05
8.13233e-05
7.90878e-05
7.59036e-05
7.17867e-05
6.54805e-05
5.56911e-05
4.29686e-05
3.14769e-05
2.62039e-05
2.5351e-05
2.4024e-05
2.1733e-05
2.04521e-05
2.19767e-05
2.61211e-05
3.21269e-05
3.48747e-05
2.84153e-05
1.85322e-05
1.96504e-05
2.63891e-05
3.03916e-05
3.16944e-05
3.20953e-05
3.26687e-05
3.31222e-05
3.04778e-05
2.3014e-05
1.8898e-05
2.31513e-05
3.13501e-05
3.89155e-05
4.14928e-05
4.02581e-05
3.84635e-05
3.82169e-05
4.08778e-05
4.49499e-05
5.11665e-05
5.78265e-05
5.77087e-05
5.05753e-05
4.06733e-05
3.13563e-05
2.43987e-05
2.15307e-05
2.51786e-05
3.47419e-05
4.43879e-05
4.82207e-05
4.53294e-05
3.9289e-05
3.358e-05
2.91736e-05
2.56951e-05
2.2763e-05
2.02102e-05
1.79519e-05
1.59198e-05
1.40592e-05
1.23346e-05
1.07278e-05
9.23312e-06
7.85223e-06
6.59083e-06
5.45554e-06
4.45168e-06
3.5815e-06
2.84335e-06
2.2316e-06
1.73732e-06
1.34952e-06
1.05643e-06
8.46119e-07
7.05861e-07
6.20023e-07
5.69706e-07
5.36204e-07
5.05469e-07
4.69943e-07
4.27799e-07
3.81098e-07
3.33893e-07
2.90687e-07
2.55624e-07
2.31993e-07
2.22335e-07
2.27387e-07
2.47189e-07
2.79037e-07
3.23299e-07
3.73141e-07
4.35344e-07
4.84787e-07
5.61871e-07
5.67975e-07
7.00687e-07
6.29813e-07
3.22418e-05
3.38272e-05
3.36877e-05
3.20586e-05
2.90063e-05
2.43074e-05
1.78221e-05
1.03649e-05
8.85976e-06
1.50749e-05
1.93228e-05
1.93096e-05
1.60843e-05
1.20036e-05
9.91059e-06
1.22313e-05
1.64732e-05
1.8439e-05
2.04841e-05
2.29322e-05
1.99674e-05
1.18977e-05
9.27566e-06
1.61134e-05
2.19432e-05
2.49923e-05
2.58456e-05
2.44001e-05
1.95542e-05
1.5558e-05
1.80878e-05
2.3736e-05
3.23579e-05
3.85991e-05
3.9524e-05
3.77412e-05
3.62924e-05
3.62178e-05
3.81931e-05
4.16831e-05
4.63655e-05
5.33989e-05
5.75133e-05
5.49897e-05
4.80356e-05
4.03333e-05
3.467e-05
3.31819e-05
3.70715e-05
4.41301e-05
4.89714e-05
4.8124e-05
4.29226e-05
3.68991e-05
3.20163e-05
2.82686e-05
2.51834e-05
2.25074e-05
2.01403e-05
1.80144e-05
1.60691e-05
1.42595e-05
1.25594e-05
1.09582e-05
9.45562e-06
8.05775e-06
6.77385e-06
5.61346e-06
4.58408e-06
3.68954e-06
2.92913e-06
2.29774e-06
1.78666e-06
1.38495e-06
1.08091e-06
8.62815e-07
7.18089e-07
6.3085e-07
5.81271e-07
5.49461e-07
5.20468e-07
4.86251e-07
4.44824e-07
3.98329e-07
3.51113e-07
3.0814e-07
2.74078e-07
2.52547e-07
2.45938e-07
2.54355e-07
2.77126e-07
3.11122e-07
3.56491e-07
4.06274e-07
4.67307e-07
5.14223e-07
5.87904e-07
5.90152e-07
7.15387e-07
6.45409e-07
4.77594e-06
6.66975e-06
8.54423e-06
9.90879e-06
1.1294e-05
1.32568e-05
1.59201e-05
1.88849e-05
2.11912e-05
2.17194e-05
2.0022e-05
1.67006e-05
1.29501e-05
1.00177e-05
8.98571e-06
1.04771e-05
1.47942e-05
1.89668e-05
1.85268e-05
1.4765e-05
1.31792e-05
1.22709e-05
8.29672e-06
2.16615e-06
4.60835e-06
9.39783e-06
1.21327e-05
1.2854e-05
1.35942e-05
1.62038e-05
1.88822e-05
2.54129e-05
3.38118e-05
3.76991e-05
3.70041e-05
3.50766e-05
3.40827e-05
3.42846e-05
3.57378e-05
3.85136e-05
4.19695e-05
4.75532e-05
5.38143e-05
5.60262e-05
5.34817e-05
4.88248e-05
4.50614e-05
4.43376e-05
4.69103e-05
5.00034e-05
4.98547e-05
4.56402e-05
3.97394e-05
3.45409e-05
3.05747e-05
2.73992e-05
2.4663e-05
2.22367e-05
2.00585e-05
1.80689e-05
1.6215e-05
1.44614e-05
1.27904e-05
1.11979e-05
9.68899e-06
8.27446e-06
6.96749e-06
5.78083e-06
4.72447e-06
3.80395e-06
3.01969e-06
2.36714e-06
1.83786e-06
1.42114e-06
1.10552e-06
8.79677e-07
7.31216e-07
6.43755e-07
5.96168e-07
5.67134e-07
5.40771e-07
5.0864e-07
4.68675e-07
4.23124e-07
3.76588e-07
3.34403e-07
3.01607e-07
2.81973e-07
2.77667e-07
2.88319e-07
3.12831e-07
3.47883e-07
3.93541e-07
4.42771e-07
5.02472e-07
5.46887e-07
6.17086e-07
6.15256e-07
7.31625e-07
6.61579e-07
9.09896e-06
1.08913e-05
1.32235e-05
1.53947e-05
1.70653e-05
1.82064e-05
1.88146e-05
1.88755e-05
1.82689e-05
1.69061e-05
1.49697e-05
1.29077e-05
1.11847e-05
1.01142e-05
9.95056e-06
1.06609e-05
1.25943e-05
1.68108e-05
2.09791e-05
2.08789e-05
1.58354e-05
9.00445e-06
4.63846e-06
5.34862e-06
7.56894e-06
9.94205e-06
1.23281e-05
1.43915e-05
1.57535e-05
1.63213e-05
2.03344e-05
2.87626e-05
3.47944e-05
3.57635e-05
3.40388e-05
3.24282e-05
3.18753e-05
3.22527e-05
3.33947e-05
3.5488e-05
3.81346e-05
4.18492e-05
4.75651e-05
5.25727e-05
5.42805e-05
5.32658e-05
5.17159e-05
5.12509e-05
5.16112e-05
5.07144e-05
4.70763e-05
4.16562e-05
3.64763e-05
3.24384e-05
2.9266e-05
2.65499e-05
2.41274e-05
2.19483e-05
1.9963e-05
1.8115e-05
1.63587e-05
1.46672e-05
1.30299e-05
1.14489e-05
9.93494e-06
8.50376e-06
7.17287e-06
5.95857e-06
4.87356e-06
3.92532e-06
3.11548e-06
2.44022e-06
1.89147e-06
1.45874e-06
1.13082e-06
8.9673e-07
7.44302e-07
6.56695e-07
6.11396e-07
5.85515e-07
5.62156e-07
5.3246e-07
4.94293e-07
4.50037e-07
4.0457e-07
3.63581e-07
3.32401e-07
3.14843e-07
3.12793e-07
3.25485e-07
3.51543e-07
3.87511e-07
4.33371e-07
4.8191e-07
5.40074e-07
5.81699e-07
6.481e-07
6.4204e-07
7.48797e-07
6.78737e-07
5.90818e-06
7.38842e-06
9.20512e-06
1.09059e-05
1.22084e-05
1.30459e-05
1.34487e-05
1.34955e-05
1.32229e-05
1.26222e-05
1.1717e-05
1.06377e-05
9.6338e-06
9.00631e-06
9.02187e-06
9.80025e-06
1.11317e-05
1.34257e-05
1.75231e-05
2.17336e-05
2.29416e-05
2.00347e-05
1.43272e-05
7.8724e-06
3.55504e-06
5.89266e-06
9.09524e-06
1.11725e-05
1.31223e-05
1.78674e-05
2.55871e-05
3.18969e-05
3.39201e-05
3.27231e-05
3.09221e-05
2.98872e-05
2.96435e-05
3.00416e-05
3.10151e-05
3.2641e-05
3.47615e-05
3.72232e-05
4.10241e-05
4.59457e-05
4.98395e-05
5.1596e-05
5.18935e-05
5.14451e-05
4.99765e-05
4.67807e-05
4.21668e-05
3.7479e-05
3.36562e-05
3.06353e-05
2.80398e-05
2.56944e-05
2.35704e-05
2.16411e-05
1.98538e-05
1.81539e-05
1.65026e-05
1.48796e-05
1.32806e-05
1.17138e-05
1.01957e-05
8.74757e-06
7.39164e-06
6.14805e-06
5.03247e-06
4.05446e-06
3.21704e-06
2.51719e-06
1.94727e-06
1.49709e-06
1.15587e-06
9.13189e-07
7.5726e-07
6.70618e-07
6.28929e-07
6.07383e-07
5.87987e-07
5.61515e-07
5.25842e-07
4.83514e-07
4.39651e-07
4.00206e-07
3.70679e-07
3.54852e-07
3.54401e-07
3.68338e-07
3.95151e-07
4.31304e-07
4.76743e-07
5.24114e-07
5.80464e-07
6.19194e-07
6.81724e-07
6.71404e-07
7.67649e-07
6.97155e-07
4.58687e-06
5.72227e-06
7.05935e-06
8.32637e-06
9.35425e-06
1.00913e-05
1.05519e-05
1.07572e-05
1.06896e-05
1.03078e-05
9.62475e-06
8.76663e-06
7.96679e-06
7.51885e-06
7.65863e-06
8.47565e-06
9.82379e-06
1.14593e-05
1.38079e-05
1.74555e-05
2.14176e-05
2.3766e-05
2.35492e-05
2.12524e-05
1.80332e-05
1.53721e-05
1.45383e-05
1.61614e-05
2.02065e-05
2.56074e-05
3.00869e-05
3.17595e-05
3.08588e-05
2.91597e-05
2.79723e-05
2.7445e-05
2.73532e-05
2.7698e-05
2.85625e-05
2.99409e-05
3.17451e-05
3.36467e-05
3.59116e-05
3.91383e-05
4.26815e-05
4.52658e-05
4.63933e-05
4.60179e-05
4.40584e-05
4.08316e-05
3.72251e-05
3.40338e-05
3.13807e-05
2.90252e-05
2.68344e-05
2.48194e-05
2.29923e-05
2.13164e-05
1.97325e-05
1.81885e-05
1.66501e-05
1.51019e-05
1.35456e-05
1.19952e-05
1.04736e-05
9.00799e-06
7.62557e-06
6.35073e-06
5.20232e-06
4.19222e-06
3.32494e-06
2.59838e-06
2.00545e-06
1.53636e-06
1.1808e-06
9.29029e-07
7.69723e-07
6.84711e-07
6.47516e-07
6.31132e-07
6.1638e-07
5.93694e-07
5.60992e-07
5.21008e-07
4.79101e-07
4.41445e-07
4.13651e-07
3.99447e-07
4.00347e-07
4.15235e-07
4.42553e-07
4.78715e-07
5.23632e-07
5.69737e-07
6.24158e-07
6.59815e-07
7.18223e-07
7.03445e-07
7.88144e-07
7.16821e-07
4.0904e-06
4.97518e-06
5.99422e-06
6.97481e-06
7.79899e-06
8.40791e-06
8.78002e-06
8.91596e-06
8.8145e-06
8.46901e-06
7.90228e-06
7.21008e-06
6.57811e-06
6.26043e-06
6.47745e-06
7.27585e-06
8.55864e-06
1.01053e-05
1.1771e-05
1.3889e-05
1.68394e-05
2.01774e-05
2.29187e-05
2.4445e-05
2.48238e-05
2.46092e-05
2.46065e-05
2.54867e-05
2.72129e-05
2.88253e-05
2.92296e-05
2.8289e-05
2.68845e-05
2.58545e-05
2.53135e-05
2.50593e-05
2.50301e-05
2.53443e-05
2.61316e-05
2.73726e-05
2.89751e-05
3.06864e-05
3.23189e-05
3.41612e-05
3.63179e-05
3.82349e-05
3.92531e-05
3.9069e-05
3.77084e-05
3.56588e-05
3.34898e-05
3.14335e-05
2.94387e-05
2.7476e-05
2.56166e-05
2.39249e-05
2.23959e-05
2.09762e-05
1.96023e-05
1.82225e-05
1.68048e-05
1.53378e-05
1.38281e-05
1.22963e-05
1.07716e-05
9.28748e-06
7.87676e-06
6.56828e-06
5.38439e-06
4.33946e-06
3.43967e-06
2.68393e-06
2.06579e-06
1.57595e-06
1.20474e-06
9.43325e-07
7.8113e-07
6.99098e-07
6.67998e-07
6.58148e-07
6.49079e-07
6.30953e-07
6.01815e-07
5.64623e-07
5.24963e-07
4.89179e-07
4.62956e-07
4.49992e-07
4.51743e-07
4.6707e-07
4.94414e-07
5.30141e-07
5.74136e-07
6.18639e-07
6.70896e-07
7.03375e-07
7.57565e-07
7.38382e-07
8.10732e-07
7.38498e-07
3.67919e-06
4.37734e-06
5.16666e-06
5.92653e-06
6.56497e-06
7.03252e-06
7.31213e-06
7.40075e-06
7.29169e-06
6.97733e-06
6.48007e-06
5.88914e-06
5.37465e-06
5.16199e-06
5.43735e-06
6.2256e-06
7.41587e-06
8.87147e-06
1.04237e-05
1.19892e-05
1.3754e-05
1.59297e-05
1.838e-05
2.07145e-05
2.25935e-05
2.39286e-05
2.48684e-05
2.5568e-05
2.59395e-05
2.57389e-05
2.49797e-05
2.40812e-05
2.3452e-05
2.3113e-05
2.28914e-05
2.27435e-05
2.27654e-05
2.30934e-05
2.38254e-05
2.49517e-05
2.6382e-05
2.79717e-05
2.94825e-05
3.08352e-05
3.21149e-05
3.32325e-05
3.39007e-05
3.39069e-05
3.32604e-05
3.21718e-05
3.08172e-05
2.92652e-05
2.7591e-05
2.59261e-05
2.43882e-05
2.3018e-05
2.17847e-05
2.06236e-05
1.94666e-05
1.82598e-05
1.6971e-05
1.55913e-05
1.41322e-05
1.26207e-05
1.10929e-05
9.589e-06
8.14765e-06
6.80266e-06
5.58014e-06
4.4972e-06
3.56185e-06
2.77413e-06
2.1283e-06
1.61567e-06
1.22735e-06
9.5569e-07
7.9107e-07
7.13365e-07
6.89917e-07
6.87906e-07
6.8551e-07
6.727e-07
6.47719e-07
6.13788e-07
5.76712e-07
5.42984e-07
5.18341e-07
5.06468e-07
5.08818e-07
5.24288e-07
5.51384e-07
5.86444e-07
6.29345e-07
6.72092e-07
7.22044e-07
7.51159e-07
8.00889e-07
7.77041e-07
8.3585e-07
7.6208e-07
3.31435e-06
3.86468e-06
4.47353e-06
5.05761e-06
5.55054e-06
5.911e-06
6.11663e-06
6.1563e-06
6.0242e-06
5.7224e-06
5.27849e-06
4.77076e-06
4.34649e-06
4.20863e-06
4.52026e-06
5.28424e-06
6.3864e-06
7.70941e-06
9.16e-06
1.06286e-05
1.20523e-05
1.34904e-05
1.50254e-05
1.66376e-05
1.81982e-05
1.95468e-05
2.057e-05
2.11999e-05
2.14095e-05
2.12862e-05