/*--------------------------------*- C++ -*----------------------------------*\
| =========                 |                                                 |
| \\      /  F ield         | OpenFOAM: The Open Source CFD Toolbox           |
|  \\    /   O peration     | Version:  2.1.1                                 |
|   \\  /    A nd           | Web:      www.OpenFOAM.org                      |
|    \\/     M anipulation  |                                                 |
\*---------------------------------------------------------------------------*/
FoamFile
{
    version     2.0;
    format      ascii;
    class       volScalarField;
    location    "0.085";
    object      p;
}
// * * * * * * * * * * * * * * * * * * * * * * * * * * * * * * * * * * * * * //

dimensions      [0 2 -2 0 0 0 0];

internalField   nonuniform List<scalar> 
6820
(
8.58986
-9.24473
-12.2503
-12.4335
-12.6004
-12.5191
-12.4521
-12.4516
-12.4832
-12.5315
-12.5877
-12.6465
-12.7052
-12.7622
-12.8166
-12.8676
-12.9145
-12.9566
-12.9928
-13.0224
-13.0442
-13.057
-13.0595
-13.05
-13.0268
-12.9876
-12.9303
-12.8517
-12.7491
-12.617
-12.4581
-12.2453
-12.0534
1.90841
-9.06383
-11.9394
-12.2355
-12.4824
-12.4971
-12.4666
-12.4773
-12.5107
-12.556
-12.6084
-12.6637
-12.7194
-12.7742
-12.8269
-12.8768
-12.923
-12.9646
-13.0007
-13.0304
-13.0524
-13.0657
-13.0689
-13.0603
-13.0382
-13.0005
-12.945
-12.8688
-12.7691
-12.6417
-12.4866
-12.2922
-12.1065
-0.806744
-7.63401
-10.9194
-11.6734
-12.1359
-12.3254
-12.3738
-12.4174
-12.4703
-12.5281
-12.5893
-12.6514
-12.7123
-12.7711
-12.8268
-12.8789
-12.9267
-12.9697
-13.007
-13.0378
-13.0612
-13.076
-13.081
-13.0749
-13.0559
-13.0223
-12.9722
-12.9033
-12.814
-12.7015
-12.5691
-12.414
-12.2802
-2.79275
-7.40743
-10.4985
-11.3538
-11.8202
-12.0889
-12.2075
-12.2954
-12.3797
-12.4584
-12.533
-12.6044
-12.6723
-12.7368
-12.7976
-12.8541
-12.906
-12.9529
-12.994
-13.0287
-13.0561
-13.0755
-13.0858
-13.0858
-13.0744
-13.0505
-13.0127
-12.9601
-12.8928
-12.8114
-12.7228
-12.6374
-12.5977
-4.42911
-7.5088
-10.1078
-11.0073
-11.5095
-11.8576
-12.0466
-12.1744
-12.2835
-12.3794
-12.4663
-12.5473
-12.6229
-12.6935
-12.7595
-12.8207
-12.877
-12.928
-12.9734
-13.0125
-13.0449
-13.0699
-13.087
-13.0954
-13.0945
-13.084
-13.0638
-13.0344
-12.9981
-12.9589
-12.9275
-12.9208
-12.9807
-5.6528
-7.69081
-9.85808
-10.7984
-11.3198
-11.6952
-11.9193
-12.0703
-12.196
-12.3051
-12.4022
-12.4911
-12.5735
-12.65
-12.721
-12.7868
-12.8473
-12.9025
-12.9521
-12.996
-13.0337
-13.0651
-13.0897
-13.1075
-13.1184
-13.123
-13.1221
-13.1179
-13.1142
-13.1175
-13.1405
-13.2003
-13.3352
-6.60473
-7.97849
-9.7421
-10.6453
-11.1545
-11.5383
-11.7928
-11.9696
-12.1137
-12.237
-12.3445
-12.4414
-12.5302
-12.612
-12.6877
-12.7577
-12.8224
-12.8818
-12.9358
-12.9844
-13.0275
-13.065
-13.097
-13.1238
-13.1458
-13.1642
-13.1806
-13.198
-13.2212
-13.2575
-13.3191
-13.4213
-13.5931
-7.35215
-8.28611
-9.69248
-10.5312
-11.029
-11.4146
-11.6883
-11.8827
-12.0394
-12.1727
-12.2886
-12.3923
-12.487
-12.574
-12.6545
-12.7291
-12.7982
-12.8619
-12.9205
-12.9741
-13.0227
-13.0666
-13.1061
-13.1419
-13.1748
-13.2063
-13.2387
-13.2754
-13.3217
-13.3844
-13.4746
-13.6047
-13.7952
-7.94603
-8.59141
-9.70442
-10.4631
-10.9386
-11.3129
-11.5933
-11.7998
-11.967
-12.1098
-12.234
-12.3448
-12.4455
-12.5379
-12.6232
-12.7024
-12.7759
-12.8441
-12.9074
-12.966
-13.0202
-13.0706
-13.1176
-13.1621
-13.2053
-13.2491
-13.296
-13.3494
-13.4144
-13.4975
-13.6074
-13.7537
-13.9502
-8.42421
-8.87878
-9.75445
-10.4246
-10.8714
-11.2302
-11.5118
-11.7267
-11.9021
-12.0523
-12.1832
-12.2999
-12.4059
-12.5032
-12.5931
-12.6766
-12.7545
-12.8272
-12.8952
-12.9589
-13.0188
-13.0755
-13.1297
-13.1826
-13.2355
-13.2904
-13.3499
-13.4174
-13.4973
-13.5952
-13.718
-13.8726
-14.0677
-8.81364
-9.14052
-9.8288
-10.4121
-10.8267
-11.1665
-11.4433
-11.6615
-11.842
-11.9976
-12.1342
-12.2564
-12.3674
-12.4695
-12.564
-12.6521
-12.7344
-12.8117
-12.8844
-12.9532
-13.0187
-13.0817
-13.1429
-13.2036
-13.2654
-13.3302
-13.4004
-13.4792
-13.5706
-13.6788
-13.8091
-13.9661
-14.1552
-9.13395
-9.37431
-9.91659
-10.4185
-10.7986
-11.1173
-11.3854
-11.6039
-11.7875
-11.9474
-12.0887
-12.2156
-12.3312
-12.4378
-12.5366
-12.6289
-12.7156
-12.7973
-12.8747
-12.9485
-13.0194
-13.0882
-13.156
-13.2239
-13.2936
-13.3668
-13.4459
-13.5337
-13.6332
-13.7481
-13.8818
-14.0375
-14.218
-9.39948
-9.58022
-10.0097
-10.4387
-10.7839
-11.081
-11.3381
-11.5541
-11.7387
-11.9011
-12.046
-12.1769
-12.2966
-12.4073
-12.5103
-12.6068
-12.6977
-12.7838
-12.8659
-12.9445
-13.0206
-13.0951
-13.1689
-13.2433
-13.3199
-13.4003
-13.4866
-13.5811
-13.6863
-13.8048
-13.9391
-14.091
-14.2617
-9.62081
-9.7597
-10.1025
-10.468
-10.7794
-11.0548
-11.2995
-11.5108
-11.6949
-11.8588
-12.0064
-12.1407
-12.2641
-12.3786
-12.4856
-12.5861
-12.6812
-12.7715
-12.8579
-12.9412
-13.0222
-13.1018
-13.1811
-13.2612
-13.3437
-13.4299
-13.5217
-13.621
-13.7297
-13.8496
-13.9824
-14.129
-14.2897
-9.80578
-9.91476
-10.1912
-10.5025
-10.7821
-11.0367
-11.2684
-11.4737
-11.6561
-11.8204
-11.9698
-12.1069
-12.2335
-12.3516
-12.4622
-12.5666
-12.6656
-12.76
-12.8506
-12.9383
-13.0238
-13.1082
-13.1923
-13.2775
-13.3648
-13.4557
-13.5516
-13.6541
-13.7646
-13.8843
-14.0142
-14.1547
-14.3055
-9.96026
-10.0475
-10.273
-10.539
-10.7897
-11.0246
-11.2433
-11.4419
-11.6215
-11.7854
-11.9362
-12.0754
-12.205
-12.3262
-12.4404
-12.5484
-12.6511
-12.7494
-12.844
-12.9357
-13.0254
-13.114
-13.2024
-13.2917
-13.383
-13.4774
-13.5762
-13.6805
-13.7914
-13.9097
-14.0358
-14.1699
-14.3113
-10.0886
-10.1598
-10.3462
-10.5748
-10.7997
-11.0165
-11.2228
-11.4143
-11.5907
-11.7538
-11.9052
-12.0463
-12.1784
-12.3026
-12.42
-12.5314
-12.6377
-12.7396
-12.8379
-12.9334
-13.0268
-13.1192
-13.2112
-13.304
-13.3983
-13.4954
-13.596
-13.701
-13.8113
-13.9273
-14.0493
-14.1769
-14.3095
-10.1942
-10.2534
-10.4098
-10.6079
-10.8103
-11.0108
-11.2057
-11.3902
-11.563
-11.725
-11.8768
-12.0194
-12.1537
-12.2807
-12.401
-12.5156
-12.6252
-12.7305
-12.8322
-12.9311
-13.0279
-13.1235
-13.2186
-13.314
-13.4107
-13.5094
-13.6109
-13.7159
-13.8248
-13.938
-14.0554
-14.1766
-14.3013
-10.2795
-10.3296
-10.463
-10.6365
-10.8198
-11.006
-11.1905
-11.3685
-11.5379
-11.6985
-11.8506
-11.9946
-12.1309
-12.2604
-12.3836
-12.5013
-12.614
-12.7224
-12.8272
-12.9292
-13.0289
-13.1272
-13.2248
-13.3224
-13.4207
-13.5204
-13.6221
-13.7263
-13.8333
-13.9433
-14.056
-14.1713
-14.2886
-10.3462
-10.3895
-10.5053
-10.6592
-10.8266
-11.0005
-11.1761
-11.3483
-11.5145
-11.674
-11.8263
-11.9715
-12.1098
-12.2417
-12.3675
-12.488
-12.6036
-12.7149
-12.8226
-12.9272
-13.0294
-13.13
-13.2295
-13.3286
-13.4279
-13.5279
-13.6292
-13.732
-13.8367
-13.9431
-14.0513
-14.1609
-14.2713
-10.3957
-10.4338
-10.5363
-10.6749
-10.8294
-10.9932
-11.1613
-11.3286
-11.4923
-11.6508
-11.8036
-11.9501
-12.0904
-12.2246
-12.3532
-12.4763
-12.5947
-12.7087
-12.8189
-12.9259
-13.0304
-13.1328
-13.2338
-13.3339
-13.4337
-13.5335
-13.6339
-13.735
-13.837
-13.94
-14.0437
-14.1478
-14.252
-10.4286
-10.4629
-10.5555
-10.6825
-10.8269
-10.9828
-11.145
-11.3086
-11.4704
-11.6285
-11.7819
-11.9299
-12.0722
-12.2088
-12.3399
-12.4656
-12.5865
-12.7029
-12.8154
-12.9244
-13.0306
-13.1344
-13.2363
-13.337
-13.4367
-13.5359
-13.6349
-13.734
-13.8331
-13.9323
-14.0316
-14.1306
-14.229
-10.4455
-10.477
-10.5625
-10.6811
-10.818
-10.9681
-11.1262
-11.2874
-11.4483
-11.6068
-11.7615
-11.9114
-12.056
-12.1951
-12.3288
-12.4572
-12.5805
-12.6993
-12.8139
-12.9248
-13.0324
-13.1373
-13.2399
-13.3407
-13.44
-13.5383
-13.6357
-13.7324
-13.8286
-13.9242
-14.0191
-14.1132
-14.2062
-10.4461
-10.4759
-10.5566
-10.6695
-10.8016
-10.9481
-11.1038
-11.264
-11.4251
-11.5846
-11.741
-11.8931
-12.0402
-12.1819
-12.3182
-12.4491
-12.5748
-12.6956
-12.812
-12.9243
-13.033
-13.1385
-13.2413
-13.3418
-13.4403
-13.5372
-13.6326
-13.7268
-13.8198
-13.9116
-14.0023
-14.0916
-14.1795
-10.4302
-10.4589
-10.537
-10.647
-10.7767
-10.9218
-11.0773
-11.2382
-11.4009
-11.5628
-11.7219
-11.8771
-12.0273
-12.1721
-12.3114
-12.445
-12.5731
-12.6961
-12.8142
-12.9279
-13.0375
-13.1435
-13.2463
-13.3463
-13.4438
-13.539
-13.6323
-13.7238
-13.8135
-13.9017
-13.9881
-14.0728
-14.1558
-10.3968
-10.4253
-10.5026
-10.6121
-10.7419
-10.8878
-11.0449
-11.2081
-11.3736
-11.5386
-11.7012
-11.8597
-12.0133
-12.1614
-12.3035
-12.4398
-12.5702
-12.695
-12.8146
-12.9293
-13.0394
-13.1455
-13.2479
-13.3469
-13.4429
-13.5362
-13.6271
-13.7156
-13.8019
-13.8862
-13.9685
-14.0487
-14.1269
-10.3447
-10.3737
-10.4523
-10.5639
-10.6966
-10.8461
-11.0075
-11.1755
-11.346
-11.5162
-11.6838
-11.8472
-12.0053
-12.1574
-12.3031
-12.4425
-12.5754
-12.7023
-12.8234
-12.939
-13.0497
-13.1557
-13.2574
-13.3553
-13.4497
-13.5409
-13.6291
-13.7146
-13.7975
-13.8779
-13.9559
-14.0316
-14.1049
-10.272
-10.3021
-10.3841
-10.5002
-10.6381
-10.7934
-10.9608
-11.135
-11.3116
-11.4878
-11.661
-11.8297
-11.9925
-12.1488
-12.2982
-12.4406
-12.5761
-12.7048
-12.8272
-12.9435
-13.0543
-13.1598
-13.2606
-13.3571
-13.4495
-13.5382
-13.6235
-13.7057
-13.7849
-13.8613
-13.9351
-14.0063
-14.0751
-10.1761
-10.2085
-10.2965
-10.4208
-10.5681
-10.7335
-10.9113
-11.0956
-11.282
-11.467
-11.6483
-11.8241
-11.9931
-12.1547
-12.3085
-12.4545
-12.5927
-12.7234
-12.847
-12.9639
-13.0746
-13.1795
-13.2791
-13.3738
-13.464
-13.5501
-13.6323
-13.711
-13.7863
-13.8585
-13.9278
-13.9942
-14.058
-10.0535
-10.0889
-10.1849
-10.3196
-10.4779
-10.6547
-10.844
-11.0394
-11.2363
-11.4312
-11.6214
-11.8051
-11.9811
-12.1486
-12.3073
-12.4571
-12.5982
-12.731
-12.8559
-12.9733
-13.0838
-13.1878
-13.2859
-13.3786
-13.4663
-13.5493
-13.6281
-13.7031
-13.7744
-13.8423
-13.9071
-13.969
-14.0281
-9.90004
-9.94074
-10.0507
-10.2036
-10.3814
-10.5778
-10.786
-10.9986
-11.2108
-11.4189
-11.6206
-11.8139
-11.9978
-12.1718
-12.3355
-12.4892
-12.6331
-12.7677
-12.8934
-13.0109
-13.1207
-13.2234
-13.3196
-13.4098
-13.4945
-13.5741
-13.6491
-13.7199
-13.7867
-13.8499
-13.9096
-13.9662
-14.0197
-9.70814
-9.75362
-9.87767
-10.0481
-10.2439
-10.4592
-10.6866
-10.918
-11.1477
-11.3719
-11.5877
-11.7933
-11.9875
-12.1698
-12.3402
-12.4989
-12.6464
-12.7833
-12.9102
-13.0278
-13.1369
-13.2382
-13.3322
-13.4198
-13.5013
-13.5773
-13.6483
-13.7147
-13.777
-13.8354
-13.8904
-13.9421
-13.991
-9.47262
-9.5328
-9.68976
-9.89841
-10.1302
-10.3783
-10.6344
-10.8902
-11.1403
-11.3815
-11.6114
-11.8284
-12.0318
-12.2214
-12.3973
-12.5599
-12.71
-12.8481
-12.9753
-13.0922
-13.1997
-13.2986
-13.3897
-13.4736
-13.551
-13.6225
-13.6885
-13.7497
-13.8064
-13.8589
-13.9078
-13.9532
-13.9954
-9.17121
-9.23385
-9.41092
-9.64643
-9.90915
-10.1925
-10.485
-10.7747
-11.0554
-11.3232
-11.5755
-11.8109
-12.0289
-12.2297
-12.4139
-12.5823
-12.7361
-12.8764
-13.0041
-13.1205
-13.2265
-13.3231
-13.4112
-13.4916
-13.565
-13.6321
-13.6935
-13.7497
-13.8012
-13.8485
-13.892
-13.9321
-13.9694
-8.81424
-8.93224
-9.19496
-9.50184
-9.8159
-10.1401
-10.4658
-10.7824
-11.0853
-11.372
-11.6401
-11.8885
-12.1171
-12.3261
-12.5163
-12.6887
-12.8447
-12.9853
-13.112
-13.2261
-13.3287
-13.4211
-13.5042
-13.5789
-13.6462
-13.7067
-13.7612
-13.8102
-13.8542
-13.8937
-13.9292
-13.9611
-13.9901
-8.28883
-8.38066
-8.68113
-9.05596
-9.45111
-9.85922
-10.2598
-10.6389
-10.993
-11.32
-11.619
-11.8904
-12.1355
-12.3562
-12.5541
-12.7314
-12.8898
-13.0312
-13.1573
-13.2697
-13.3698
-13.459
-13.5384
-13.609
-13.6718
-13.7274
-13.7767
-13.8202
-13.8583
-13.8918
-13.9209
-13.9466
-13.9695
-7.79725
-8.12044
-8.5905
-9.01277
-9.42742
-9.8617
-10.2873
-10.6908
-11.0706
-11.4228
-11.7445
-12.0353
-12.2959
-12.5277
-12.7329
-12.9136
-13.0723
-13.2113
-13.3328
-13.4389
-13.5315
-13.6121
-13.6823
-13.7433
-13.7961
-13.8417
-13.8808
-13.9139
-13.9414
-13.9638
-13.9813
-13.9947
-14.0041
-6.49719
-6.81992
-7.59536
-8.29861
-8.93984
-9.55221
-10.1037
-10.5939
-11.0333
-11.4255
-11.774
-12.0831
-12.3564
-12.5973
-12.8089
-12.9941
-13.1556
-13.2959
-13.4174
-13.5223
-13.6125
-13.6899
-13.7561
-13.8123
-13.8599
-13.8996
-13.9323
-13.9583
-13.9779
-13.9912
-13.9974
-13.9977
-13.9877
-6.4869
-7.23287
-7.8401
-8.31112
-8.91627
-9.5561
-10.154
-10.7125
-11.2254
-11.682
-12.0813
-12.4268
-12.7226
-12.9735
-13.1848
-13.3616
-13.5088
-13.6307
-13.7313
-13.8139
-13.8815
-13.9364
-13.9808
-14.0164
-14.0447
-14.0666
-14.083
-14.0944
-14.1005
-14.1004
-14.0913
-14.0701
-14.0228
-0.237886
-4.84654
-6.63321
-7.48776
-8.49501
-9.37745
-10.0856
-10.7023
-11.2438
-11.7104
-12.1111
-12.4541
-12.7456
-12.9918
-13.1986
-13.3714
-13.5151
-13.6339
-13.7317
-13.8119
-13.8772
-13.93
-13.9726
-14.0065
-14.0333
-14.0541
-14.0701
-14.0818
-14.0903
-14.0951
-14.099
-14.0968
-14.1
-11.4883
-12.4692
-15.0733
-17.9081
-20.2461
-21.5888
-22.0223
-21.9592
-21.4461
-19.9434
-17.1107
-13.4932
-10.2316
-8.36057
-8.29993
-9.94499
-12.9955
-17.1328
-22.0013
-27.2819
-32.629
-37.6025
-41.7134
-44.5071
-45.6479
-44.9466
-42.4074
-38.255
-32.9175
-27.0464
-21.2793
-15.7664
-10.2935
-5.00775
-0.622279
2.35589
3.97475
4.39982
3.68787
1.50811
-2.79804
-9.5141
-18.1018
-27.3697
-36.0877
-43.3178
-48.3912
-50.8215
-50.3583
-46.9547
-41.0792
-33.6903
-26.0546
-19.2346
-13.6985
-9.42447
-6.20348
-3.81584
-2.0753
-0.829566
0.0431949
0.63836
1.02948
1.2727
1.41051
1.47471
1.48887
1.4702
1.43101
1.37995
1.32284
1.26344
1.20404
1.14589
1.08958
1.03527
0.982878
0.932179
0.882868
0.834613
0.787098
0.740067
0.693365
0.646961
0.600955
0.555551
0.510994
0.46757
0.425435
0.384761
0.345311
0.307297
0.269695
0.233872
0.196151
0.163495
0.120561
0.0992301
0.031217
0.0625865
-11.7587
-12.5839
-14.9947
-17.7109
-19.9622
-21.3421
-21.8932
-21.9055
-21.3652
-19.8306
-17.1087
-13.7975
-10.9244
-9.30823
-9.25034
-10.7375
-13.5404
-17.3038
-21.7064
-26.4427
-31.1951
-35.605
-39.2609
-41.7525
-42.7645
-42.1147
-39.8066
-36.0503
-31.2449
-25.9569
-20.6758
-15.4808
-10.2297
-5.1734
-1.02337
1.78262
3.31234
3.71462
3.01756
0.983894
-2.90788
-8.95678
-16.7732
-25.3497
-33.535
-40.3828
-45.202
-47.5101
-47.0761
-43.8983
-38.476
-31.7413
-24.8256
-18.6163
-13.4978
-9.47014
-6.38089
-4.05595
-2.33735
-1.08991
-0.202356
0.414184
0.829392
1.09718
1.25878
1.34533
1.38004
1.37993
1.35724
1.3206
1.27588
1.22692
1.17616
1.12503
1.07429
1.02431
0.975204
0.926944
0.879398
0.832403
0.785783
0.739396
0.693179
0.647163
0.601479
0.556349
0.512017
0.468754
0.426714
0.386069
0.346586
0.308497
0.270779
0.234841
0.19695
0.16421
0.120992
0.0997572
0.0311793
0.0631217
-12.1902
-13.105
-15.2359
-17.6586
-19.7101
-21.0298
-21.5919
-21.5792
-20.9613
-19.4318
-16.9549
-14.1084
-11.727
-10.4303
-10.4399
-11.7288
-14.1877
-17.5648
-21.5361
-25.7849
-29.9989
-33.859
-37.0345
-39.1894
-40.0476
-39.4356
-37.3561
-33.9982
-29.7156
-24.9706
-20.1158
-15.1969
-10.1662
-5.37363
-1.49118
1.13207
2.57263
2.95549
2.28676
0.383055
-3.14148
-8.5587
-15.5888
-23.4072
-30.9794
-37.3819
-41.9122
-44.0924
-43.709
-40.8057
-35.8956
-29.8512
-23.65
-18.0235
-13.3
-9.50943
-6.55127
-4.29152
-2.59775
-1.35096
-0.450269
0.186642
0.625462
0.917727
1.10329
1.21252
1.26818
1.28705
1.28128
1.25943
1.22743
1.1892
1.14731
1.10337
1.05835
1.01281
0.967087
0.921341
0.875625
0.829939
0.784247
0.738529
0.692813
0.647195
0.601844
0.556999
0.512906
0.469829
0.427911
0.387319
0.347823
0.309669
0.271837
0.235777
0.197714
0.164875
0.121405
0.100225
0.0312111
0.0635129
-12.6955
-13.5623
-15.3537
-17.4351
-19.2285
-20.4095
-20.9222
-20.8598
-20.198
-18.7868
-16.7006
-14.4189
-12.561
-11.5779
-11.6506
-12.7773
-14.8952
-17.8522
-21.3955
-25.2063
-28.9619
-32.357
-35.1004
-36.9266
-37.6202
-37.0284
-35.1584
-32.1727
-28.3635
-24.0826
-19.5765
-14.8961
-10.1019
-5.61369
-2.02073
0.418517
1.77429
2.14043
1.50855
-0.27344
-3.47423
-8.30634
-14.5663
-21.5922
-28.4892
-34.3907
-38.6011
-40.6513
-40.3465
-37.7682
-33.4152
-28.0677
-22.5469
-17.4601
-13.1044
-9.54114
-6.71371
-4.52182
-2.85585
-1.61216
-0.700103
-0.0439282
0.417939
0.734527
0.944182
1.07638
1.15337
1.19165
1.2032
1.19653
1.17758
1.15038
1.11763
1.0811
1.04197
1.00102
0.95879
0.915639
0.87181
0.827474
0.782741
0.737714
0.692512
0.647298
0.60228
0.557713
0.513848
0.470942
0.42913
0.388577
0.349059
0.310838
0.272901
0.236725
0.198508
0.165563
0.121866
0.100674
0.0313262
0.0637321
-13.2023
-13.982
-15.4142
-17.0864
-18.5411
-19.5131
-19.9363
-19.8479
-19.2478
-18.0854
-16.4548
-14.7069
-13.2938
-12.5667
-12.7011
-13.7163
-15.5572
-18.116
-21.2189
-24.61
-27.9738
-30.9991
-33.4106
-34.9813
-35.5321
-34.9516
-33.2567
-30.5847
-27.1637
-23.2485
-19.0205
-14.5642
-10.0438
-5.89771
-2.60264
-0.342434
0.933431
1.28382
0.693306
-0.967266
-3.88199
-8.18952
-13.7291
-19.9688
-26.1562
-31.5125
-35.3743
-37.2944
-37.095
-34.8766
-31.0939
-26.4146
-21.5202
-16.9258
-12.9115
-9.56647
-6.869
-4.74709
-3.1116
-1.8734
-0.951751
-0.277447
0.206887
0.547635
0.781506
0.936978
1.0357
1.09381
1.12309
1.13198
1.12643
1.11054
1.08714
1.05821
1.02511
0.988855
0.950188
0.909689
0.867793
0.824838
0.781088
0.736764
0.692084
0.647277
0.602593
0.558309
0.514678
0.471955
0.430264
0.389771
0.350252
0.311978
0.273945
0.237653
0.199284
0.166218
0.122323
0.101065
0.0315079
0.0637981
-13.6186
-14.2919
-15.4028
-16.6913
-17.8383
-18.6434
-19.0171
-18.964
-18.4872
-17.574
-16.3144
-14.975
-13.9007
-13.3734
-13.5516
-14.4716
-16.0914
-18.3165
-21.0072
-23.9704
-26.9508
-29.6571
-31.8144
-33.2043
-33.6679
-33.1196
-31.5781
-29.1587
-26.0374
-22.4035
-18.414
-14.2041
-10.0091
-6.22866
-3.22478
-1.13409
0.0657742
0.401181
-0.147065
-1.68524
-4.34197
-8.18941
-13.0815
-18.5817
-24.0639
-28.8549
-32.3519
-34.1441
-34.0657
-32.2133
-28.9749
-24.9049
-20.5701
-16.4192
-12.7215
-9.58586
-7.01733
-4.96726
-3.36483
-2.13446
-1.20501
-0.513737
-0.00754817
0.357175
0.615377
0.794423
0.915271
0.993638
1.04107
1.06591
1.07409
1.06979
1.05599
1.03484
1.00793
0.97647
0.941454
0.903666
0.863742
0.822197
0.779446
0.735839
0.691688
0.647292
0.602943
0.558938
0.515535
0.472986
0.431409
0.390966
0.35144
0.313111
0.274984
0.238579
0.200072
0.166875
0.122813
0.101427
0.0317696
0.0636999
-13.8958
-14.4837
-15.3733
-16.3979
-17.3308
-18.002
-18.3285
-18.2982
-17.9157
-17.1949
-16.2232
-15.2052
-14.4035
-14.0423
-14.2571
-15.0896
-16.5145
-18.4523
-20.7782
-23.3321
-25.9132
-28.2853
-30.2
-31.4382
-31.8485
-31.3542
-29.9605
-27.7554
-24.879
-21.491
-17.7532
-13.8443
-10.0184
-6.60391
-3.87275
-1.9411
-0.815493
-0.494893
-1.00102
-2.41677
-4.83362
-8.27666
-12.6009
-17.4373
-22.2613
-26.5033
-29.639
-31.3053
-31.342
-29.8255
-27.0713
-23.5334
-19.6899
-15.938
-12.5348
-9.6004
-7.15941
-5.18262
-3.61557
-2.39531
-1.45981
-0.752729
-0.225298
0.163218
0.445874
0.648809
0.792199
0.891271
0.957293
0.998466
1.02071
1.02827
1.02428
1.01107
0.990445
0.963871
0.932557
0.897515
0.859584
0.819461
0.777717
0.734828
0.691205
0.647217
0.6032
0.559471
0.516299
0.47393
0.432478
0.392101
0.352585
0.314216
0.276009
0.239492
0.200855
0.167512
0.123313
0.101736
0.0320997
0.0634427
-14.0993
-14.6193
-15.3472
-16.169
-16.9185
-17.469
-17.7516
-17.7465
-17.4577
-16.9071
-16.1723
-15.4123
-14.8297
-14.6035
-14.8483
-15.6052
-16.8587
-18.5432
-20.5492
-22.7364
-24.9362
-26.9574
-28.5975
-29.6633
-30.0113
-29.5584
-28.2954
-26.2859
-23.6457
-20.5227
-17.0864
-13.53
-10.0857
-7.01445
-4.53224
-2.75031
-1.69841
-1.39242
-1.85615
-3.15123
-5.34131
-8.42276
-12.2517
-16.5086
-20.7482
-24.4891
-27.2856
-28.8254
-28.9509
-27.7155
-25.3694
-22.286
-18.8724
-15.481
-12.3525
-9.61119
-7.29588
-5.39348
-3.86396
-2.65595
-1.71612
-0.994371
-0.4463
-0.0341585
0.273095
0.500257
0.666623
0.786863
0.871913
0.929811
0.966443
0.986137
0.992158
0.987035
0.972817
0.951199
0.923633
0.891364
0.855441
0.816745
0.776008
0.733836
0.69074
0.647157
0.603467
0.560012
0.517065
0.474871
0.43354
0.393224
0.353715
0.315302
0.277018
0.24039
0.201635
0.168135
0.123831
0.102004
0.0325047
0.0630247
-14.243
-14.7012
-15.3023
-15.9672
-16.5788
-17.0402
-17.2915
-17.3104
-17.1001
-16.6871
-16.1407
-15.5863
-15.1802
-15.0634
-15.3314
-16.0222
-17.1261
-18.5902
-20.3198
-22.1909
-24.0568
-25.7549
-27.1188
-27.9916
-28.247
-27.8039
-26.6459
-24.8192
-22.4224
-19.5918
-16.4893
-13.2951
-10.2094
-7.44666
-5.19062
-3.55083
-2.57202
-2.28032
-2.70077
-3.87794
-5.85323
-8.60574
-11.9975
-15.7498
-19.4812
-22.7818
-25.2698
-26.6811
-26.8626
-25.8494
-23.8407
-21.1454
-18.1112
-15.0477
-12.1758
-9.61949
-7.42763
-5.60037
-4.11028
-2.91654
-1.97402
-1.2387
-0.670553
-0.234918
0.0971147
0.34888
0.538695
0.680593
0.785128
0.86015
0.911499
0.943574
0.959789
0.962882
0.955142
0.938519
0.914717
0.885221
0.851295
0.814014
0.774271
0.732803
0.69022
0.647032
0.603664
0.560477
0.517755
0.475741
0.434539
0.394298
0.35481
0.316369
0.27802
0.241285
0.202421
0.168749
0.124371
0.102226
0.0329822
0.0624443
-14.3438
-14.7486
-15.2519
-15.7974
-16.3005
-16.6874
-16.9101
-16.9488
-16.8073
-16.5115
-16.1202
-15.7316
-15.4668
-15.437
-15.7208
-16.3522
-17.3246
-18.595
-20.0836
-21.6829
-23.2648
-24.6888
-25.8146
-26.51
-26.6658
-26.2151
-25.1429
-23.4854
-21.3256
-18.783
-16.0014
-13.1405
-10.3743
-7.88635
-5.83755
-4.3332
-3.4259
-3.14773
-3.52426
-4.58694
-6.35982
-8.81057
-11.8107
-15.1173
-18.4031
-21.317
-23.5315
-24.809
-25.0205
-24.1834
-22.4574
-20.0989
-17.4028
-14.6384
-12.0061
-9.6266
-7.55562
-5.80393
-4.35495
-3.17735
-2.23368
-1.48582
-0.898111
-0.439052
-0.0819977
0.194805
0.408587
0.572669
0.69717
0.789722
0.85611
0.900804
0.927378
0.938791
0.937585
0.925978
0.90594
0.879199
0.847249
0.811357
0.772584
0.731799
0.689714
0.646908
0.60385
0.560925
0.518423
0.476584
0.435508
0.395338
0.355872
0.3174
0.27899
0.242147
0.203188
0.169332
0.124917
0.102394
0.0335289
0.061702
-14.4122
-14.7703
-15.1962
-15.6486
-16.0671
-16.3964
-16.5986
-16.6565
-16.5735
-16.3732
-16.1053
-15.8474
-15.6936
-15.7315
-16.0244
-16.6018
-17.4587
-18.5594
-19.8372
-21.2002
-22.5385
-23.7312
-24.6572
-25.2032
-25.278
-24.8252
-23.8315
-22.3274
-20.3832
-18.1018
-15.6085
-13.0442
-10.5622
-8.32195
-6.46469
-5.08891
-4.2506
-3.9851
-4.31788
-5.27026
-6.85338
-9.02736
-11.6737
-14.5814
-17.4698
-20.0373
-21.9995
-23.1522
-23.3783
-22.6857
-21.2018
-19.1387
-16.745
-14.2536
-11.8447
-9.63387
-7.68095
-6.00501
-4.59858
-3.43883
-2.49544
-1.73597
-1.12911
-0.646605
-0.264198
0.0381538
0.276488
0.463328
0.608306
0.718805
0.800548
0.858081
0.895151
0.914953
0.920301
0.913694
0.897381
0.87335
0.843324
0.808776
0.770933
0.7308
0.689187
0.646745
0.603986
0.561317
0.519034
0.477375
0.436433
0.396347
0.356917
0.318427
0.27997
0.243022
0.203978
0.169921
0.125498
0.102526
0.0341555
0.0607952
-14.4555
-14.7735
-15.138
-15.5186
-15.8714
-16.1554
-16.341
-16.4147
-16.38
-16.2578
-16.089
-15.9349
-15.8683
-15.9577
-16.2539
-16.7814
-17.5361
-18.4879
-19.5812
-20.7379
-21.8643
-22.8573
-23.6126
-24.0343
-24.0455
-23.5979
-22.6796
-21.3157
-19.566
-17.5188
-15.2838
-12.9857
-10.76
-8.74529
-7.06532
-5.81079
-5.03837
-4.78475
-5.0746
-5.92187
-7.32798
-9.24884
-11.5755
-14.1248
-16.6564
-18.9112
-20.645
-21.6797
-21.9106
-21.338
-20.0629
-18.2594
-16.1362
-13.8937
-11.6928
-9.64269
-7.80488
-6.2046
-4.84196
-3.7016
-2.75978
-1.9895
-1.36377
-0.857678
-0.449469
-0.120947
0.142611
0.352844
0.518844
0.647722
0.745133
0.815707
0.863382
0.891611
0.903497
0.901843
0.889188
0.867792
0.839619
0.806348
0.769379
0.729851
0.688675
0.646572
0.604093
0.561666
0.519594
0.478109
0.437299
0.397295
0.3579
0.319394
0.280893
0.243841
0.204727
0.170459
0.12607
0.10259
0.0348453
0.0597215
-14.4806
-14.764
-15.0795
-15.4038
-15.7054
-15.954
-16.1273
-16.2148
-16.2199
-16.1605
-16.0699
-15.9963
-15.9963
-16.1232
-16.4172
-16.8978
-17.5618
-18.3838
-19.3164
-20.2938
-21.2363
-22.0563
-22.6652
-22.9822
-22.9419
-22.5033
-21.6554
-20.4192
-18.8452
-17.0097
-15.0088
-12.9524
-10.9594
-9.15059
-7.63425
-6.49335
-5.78341
-5.541
-5.78927
-6.53725
-7.779
-9.469
-11.5076
-13.7357
-15.9475
-17.9211
-19.448
-20.3719
-20.5999
-20.1267
-19.0312
-17.4556
-15.5742
-13.5587
-11.5517
-9.65455
-7.92881
-6.40392
-5.08611
-3.96649
-3.02737
-2.24692
-1.60245
-1.07245
-0.637828
-0.282377
0.00718686
0.241529
0.429145
0.576849
0.690232
0.774023
0.832375
0.869023
0.887385
0.890588
0.881483
0.862609
0.836186
0.804104
0.767935
0.728956
0.688178
0.646385
0.604171
0.56198
0.520119
0.478815
0.438148
0.398238
0.358894
0.320383
0.281851
0.244697
0.205522
0.171023
0.126695
0.102628
0.0356253
0.0584822
-14.4911
-14.7452
-15.021
-15.3013
-15.5631
-15.7842
-15.9479
-16.0466
-16.0836
-16.0737
-16.0442
-16.0327
-16.0828
-16.2359
-16.5233
-16.9602
-17.5435
-18.2515
-19.0442
-19.866
-20.6495
-21.3206
-21.8044
-22.0327
-21.9504
-21.5228
-20.7402
-19.6201
-18.2055
-16.5622
-14.7738
-12.9367
-11.155
-9.53368
-8.16783
-7.13282
-6.48167
-6.24974
-6.45828
-7.11311
-8.20294
-9.6828
-11.4623
-13.403
-15.3292
-17.0505
-18.39
-19.2103
-19.4298
-19.0385
-18.0975
-16.7221
-15.0571
-13.2488
-11.4224
-9.67099
-8.0543
-6.6044
-5.3323
-4.23461
-3.29912
-2.50895
-1.84563
-1.29119
-0.829339
-0.446019
-0.129524
0.129741
0.339624
0.506625
0.636277
0.733434
0.802493
0.847504
0.87223
0.880148
0.874438
0.857937
0.833125
0.802112
0.766646
0.728138
0.687698
0.646173
0.604194
0.56222
0.520558
0.479426
0.438898
0.399082
0.359789
0.321275
0.28272
0.245467
0.20625
0.171513
0.127293
0.102585
0.036461
0.0570671
-14.4912
-14.7202
-14.964
-15.2096
-15.4402
-15.6397
-15.7959
-15.9034
-15.9654
-15.9942
-16.0114
-16.0465
-16.133
-16.3027
-16.5796
-16.9753
-17.4866
-18.0947
-18.7658
-19.4531
-20.0997
-20.6432
-21.0206
-21.1745
-21.0588
-20.644
-19.9222
-18.9077
-17.6375
-16.168
-14.5719
-12.9331
-11.3426
-9.89156
-8.66362
-7.72671
-7.13041
-6.90819
-7.07923
-7.64713
-8.59722
-9.88628
-11.4329
-13.117
-14.7882
-16.2841
-17.454
-18.1783
-18.3849
-18.0611
-17.2531
-16.0538
-14.5829
-12.964
-11.3063
-9.69364
-8.18308
-6.80772
-5.58207
-4.50735
-3.57622
-2.77651
-2.09399
-1.51429
-1.02412
-0.611766
-0.267237
0.01789
0.25076
0.437552
0.583758
0.694392
0.774136
0.827393
0.858309
0.870741
0.868218
0.853895
0.830522
0.800433
0.765555
0.727433
0.687272
0.645978
0.604215
0.562452
0.520992
0.480043
0.439668
0.39996
0.360735
0.322229
0.283662
0.246309
0.207055
0.172056
0.127966
0.102531
0.0374008
0.0554851
-14.4828
-14.6905
-14.9082
-15.1261
-15.3322
-15.5146
-15.6647
-15.7788
-15.8598
-15.9179
-15.97
-16.0392
-16.151
-16.3296
-16.5931
-16.95
-17.3968
-17.9173
-18.4829
-19.0541
-19.5832
-20.0179
-20.3053
-20.3975
-20.2557
-19.8555
-19.1901
-18.2718
-17.132
-15.8193
-14.3965
-12.9367
-11.5188
-10.2222
-9.12019
-8.27358
-7.72806
-7.51471
-7.65069
-8.13789
-8.96012
-10.0765
-11.4143
-12.8694
-14.3133
-15.6081
-16.625
-17.2608
-17.4519
-17.1835
-16.4902
-15.4463
-14.1497
-12.7044
-11.2043
-9.7242
-8.31707
-7.01586
-5.83734
-4.78644
-3.86018
-3.05084
-2.34839
-1.74228
-1.22237
-0.77952
-0.405628
-0.0935479
0.163118
0.370226
0.533259
0.657439
0.747782
0.809097
0.845958
0.862633
0.863028
0.850631
0.828474
0.799121
0.764679
0.726827
0.686857
0.645733
0.604144
0.562565
0.521291
0.480515
0.440288
0.400687
0.361532
0.323039
0.28447
0.247025
0.207759
0.172497
0.128587
0.102381
0.0383887
0.0537149
-14.4684
-14.658
-14.8542
-15.05
-15.2365
-15.4052
-15.5499
-15.6684
-15.7633
-15.8428
-15.9203
-16.0133
-16.1413
-16.3226
-16.5705
-16.8908
-17.2798
-17.7235
-18.1976
-18.6691
-19.0978
-19.4401
-19.6519
-19.6932
-19.5317
-19.1473
-18.5342
-17.7032
-16.6811
-15.5096
-14.2429
-12.944
-11.6816
-10.5246
-9.53693
-8.77292
-8.27403
-8.0687
-8.17213
-8.5849
-9.2906
-10.2511
-11.402
-12.6531
-13.895
-15.0105
-15.8899
-16.4445
-16.6182
-16.3955
-15.8016
-14.895
-13.7557
-12.4699
-11.1176
-9.76445
-8.45841
-7.23108
-6.10038
-5.07405
-4.15292
-3.33349
-2.61
-1.97584
-1.42436
-0.949198
-0.54434
-0.204033
0.0773378
0.305319
0.485432
0.62317
0.723953
0.793059
0.835537
0.856108
0.859085
0.848309
0.827106
0.798276
0.764106
0.726402
0.686544
0.645541
0.604104
0.562704
0.521624
0.481037
0.440977
0.401503
0.362435
0.323967
0.285404
0.247861
0.208582
0.173022
0.129313
0.102239
0.0394994
0.0517784
-14.4489
-14.623
-14.8014
-14.9792
-15.1497
-15.307
-15.4469
-15.5678
-15.6722
-15.7666
-15.8615
-15.9701
-16.1072
-16.2862
-16.5168
-16.8028
-17.1401
-17.5165
-17.9115
-18.2974
-18.6407
-18.9049
-19.0536
-19.0534
-18.8778
-18.5101
-17.9458
-17.1941
-16.278
-15.2333
-14.1064
-12.9521
-11.8294
-10.798
-9.91387
-9.22498
-8.7686
-8.57041
-8.64379
-8.98844
-9.58835
-10.4086
-11.3925
-12.4623
-13.5247
-14.4808
-15.2369
-15.7173
-15.873
-15.6881
-15.1804
-14.3959
-13.3988
-12.2603
-11.0473
-9.81627
-8.60949
-7.45609
-6.37399
-5.37288
-4.45686
-3.62647
-2.88028
-2.21591
-1.63048
-1.12073
-0.682952
-0.312909
-0.00580236
0.243643
0.441061
0.5923
0.703269
0.779794
0.827459
0.851481
0.856615
0.847076
0.826495
0.797915
0.763799
0.726081
0.686215
0.645252
0.603914
0.56266
0.521755
0.481346
0.441449
0.402101
0.363124
0.32469
0.28615
0.248526
0.209266
0.173421
0.129973
0.101985
0.0406478
0.0496417
-14.4262
-14.5869
-14.7505
-14.9133
-15.0706
-15.2182
-15.3532
-15.4747
-15.5849
-15.6889
-15.7947
-15.9124
-16.0528
-16.2258
-16.4381
-16.6918
-16.9827
-17.3003
-17.627
-17.9397
-18.2105
-18.4092
-18.5055
-18.4721
-18.2869
-17.9365
-17.4174
-16.7375
-15.9167
-14.9855
-13.9839
-12.9588
-11.9611
-11.0425
-10.2517
-9.63068
-9.21276
-9.02084
-9.06662
-9.34923
-9.85355
-10.548
-11.383
-12.2918
-13.1953
-14.0095
-14.6556
-15.0686
-15.2061
-15.0526
-14.6202
-13.9447
-13.0772
-12.0753
-10.9945
-9.88164
-8.773
-7.69401
-6.66152
-5.68624
-4.77503
-3.93231
-3.16112
-2.46366
-1.84124
-1.29407
-0.821015
-0.41946
-0.0854409
0.186104
0.401017
0.565616
0.686419
0.76988
0.822193
0.849126
0.855911
0.847162
0.82683
0.798199
0.763913
0.726019
0.686042
0.64506
0.603796
0.562689
0.521973
0.481765
0.442057
0.402859
0.363992
0.325602
0.287087
0.249369
0.210115
0.173942
0.130762
0.101766
0.0419403
0.0473446
-14.4001
-14.5491
-14.7
-14.8502
-14.9963
-15.1353
-15.2652
-15.3857
-15.4986
-15.6078
-15.7194
-15.8409
-15.9803
-16.1444
-16.3378
-16.5613
-16.8108
-17.0768
-17.3447
-17.5951
-17.8047
-17.9487
-18.0021
-17.9424
-17.7517
-17.4189
-16.9417
-16.327
-15.5917
-14.7621
-13.8723
-12.9624
-12.0764
-11.2587
-10.5514
-9.99143
-9.60805
-9.42155
-9.4421
-9.66847
-10.0867
-10.6688
-11.3714
-12.1375
-12.9002
-13.5888
-14.1365
-14.4887
-14.6084
-14.4812
-14.1151
-13.5373
-12.7885
-11.9145
-10.9599
-9.96268