/*--------------------------------*- C++ -*----------------------------------*\
| =========                 |                                                 |
| \\      /  F ield         | OpenFOAM: The Open Source CFD Toolbox           |
|  \\    /   O peration     | Version:  2.1.1                                 |
|   \\  /    A nd           | Web:      www.OpenFOAM.org                      |
|    \\/     M anipulation  |                                                 |
\*---------------------------------------------------------------------------*/
FoamFile
{
    version     2.0;
    format      ascii;
    class       surfaceScalarField;
    location    "0.085";
    object      phi;
}
// * * * * * * * * * * * * * * * * * * * * * * * * * * * * * * * * * * * * * //

dimensions      [0 3 -1 0 0 0 0];

internalField   nonuniform List<scalar> 
13452
(
4.59964e-05
2.24909e-05
2.96572e-05
1.63392e-05
2.11759e-05
8.48128e-06
1.72691e-05
3.90675e-06
1.56211e-05
1.64804e-06
1.48071e-05
8.14054e-07
1.42903e-05
5.16753e-07
1.38938e-05
3.96461e-07
1.35575e-05
3.36386e-07
1.32655e-05
2.91931e-07
1.30133e-05
2.52255e-07
1.27966e-05
2.16697e-07
1.26109e-05
1.85671e-07
1.24516e-05
1.59255e-07
1.23145e-05
1.37112e-07
1.21958e-05
1.18713e-07
1.20923e-05
1.03533e-07
1.20011e-05
9.1143e-08
1.19199e-05
8.12404e-08
1.18462e-05
7.36611e-08
1.17779e-05
6.83776e-08
1.17124e-05
6.54927e-08
1.16471e-05
6.52508e-08
1.1579e-05
6.81072e-08
1.15042e-05
7.47725e-08
1.14179e-05
8.6356e-08
1.13138e-05
1.04077e-07
1.11831e-05
1.30677e-07
1.10161e-05
1.67018e-07
1.0789e-05
2.27148e-07
1.04954e-05
2.93576e-07
9.99802e-06
4.97361e-07
4.67248e-07
9.53078e-06
7.49109e-05
1.80239e-05
7.04056e-05
2.08446e-05
6.33092e-05
1.55776e-05
5.66478e-05
1.05682e-05
5.15255e-05
6.77026e-06
4.78656e-05
4.47401e-06
4.52418e-05
3.14048e-06
4.33121e-05
2.32622e-06
4.1843e-05
1.80553e-06
4.06843e-05
1.45056e-06
3.97437e-05
1.19293e-06
3.89627e-05
9.97624e-07
3.83034e-05
8.45016e-07
3.77395e-05
7.23118e-07
3.72525e-05
6.24109e-07
3.68286e-05
5.42638e-07
3.64572e-05
4.74956e-07
3.61299e-05
4.18422e-07
3.58399e-05
3.71209e-07
3.55815e-05
3.32117e-07
3.53494e-05
3.00449e-07
3.51389e-05
2.75941e-07
3.49454e-05
2.58752e-07
3.4764e-05
2.49544e-07
3.45892e-05
2.49554e-07
3.44149e-05
2.60732e-07
3.42332e-05
2.85745e-07
3.40347e-05
3.29142e-07
3.38056e-05
3.9611e-07
3.35305e-05
5.0225e-07
3.31733e-05
6.50793e-07
3.27472e-05
9.23482e-07
1.26356e-06
3.19509e-05
7.85203e-05
1.19602e-05
8.23307e-05
1.70342e-05
8.29831e-05
1.49253e-05
8.14603e-05
1.2091e-05
7.89299e-05
9.30065e-06
7.62365e-05
7.16743e-06
7.3712e-05
5.66494e-06
7.14599e-05
4.57829e-06
6.94934e-05
3.77208e-06
6.77876e-05
3.15637e-06
6.63088e-05
2.67165e-06
6.50248e-05
2.28163e-06
6.39067e-05
1.9631e-06
6.29299e-05
1.69998e-06
6.20734e-05
1.48057e-06
6.13198e-05
1.29621e-06
6.06544e-05
1.14038e-06
6.00647e-05
1.00816e-06
5.954e-05
8.95861e-07
5.90713e-05
8.00831e-07
5.86505e-05
7.21248e-07
5.82704e-05
6.56051e-07
5.79243e-05
6.04912e-07
5.76055e-05
5.68287e-07
5.73076e-05
5.47491e-07
5.70234e-05
5.44876e-07
5.67452e-05
5.64007e-07
5.64637e-05
6.10635e-07
5.61672e-05
6.92571e-07
5.58442e-05
8.25226e-07
5.54724e-05
1.02267e-06
5.50585e-05
1.33738e-06
1.77527e-06
5.45467e-05
7.81459e-05
8.34092e-06
8.19199e-05
1.32601e-05
8.46122e-05
1.22331e-05
8.62293e-05
1.04738e-05
8.69005e-05
8.62949e-06
8.69789e-05
7.089e-06
8.67077e-05
5.93615e-06
8.62297e-05
5.05625e-06
8.5637e-05
4.36485e-06
8.49854e-05
3.80799e-06
8.43095e-05
3.34749e-06
8.3632e-05
2.95917e-06
8.29681e-05
2.62697e-06
8.23283e-05
2.33978e-06
8.17187e-05
2.09019e-06
8.11425e-05
1.87243e-06
8.06009e-05
1.68192e-06
8.0094e-05
1.51505e-06
7.96208e-05
1.36909e-06
7.91796e-05
1.24204e-06
7.87683e-05
1.13256e-06
7.83844e-05
1.04e-06
7.80249e-05
9.64404e-07
7.76865e-05
9.06607e-07
7.73657e-05
8.68338e-07
7.70581e-05
8.52442e-07
7.6759e-05
8.63116e-07
7.6463e-05
9.06638e-07
7.6164e-05
9.91596e-07
7.58576e-05
1.13166e-06
7.55382e-05
1.34201e-06
7.52217e-05
1.65388e-06
2.07742e-06
7.49196e-05
7.89905e-05
6.0063e-06
8.15874e-05
1.06632e-05
8.35105e-05
1.03099e-05
8.49495e-05
9.0348e-06
8.59616e-05
7.6174e-06
8.66952e-05
6.35542e-06
8.72525e-05
5.37883e-06
8.76817e-05
4.62711e-06
8.80143e-05
4.03218e-06
8.8272e-05
3.55036e-06
8.84691e-05
3.15035e-06
8.86171e-05
2.81114e-06
8.87242e-05
2.51987e-06
8.87965e-05
2.2675e-06
8.884e-05
2.04673e-06
8.88601e-05
1.85236e-06
8.88613e-05
1.68063e-06
8.88476e-05
1.52877e-06
8.8822e-05
1.39473e-06
8.87869e-05
1.27716e-06
8.87442e-05
1.17527e-06
8.86952e-05
1.08891e-06
8.86411e-05
1.01854e-06
8.85824e-05
9.65348e-07
8.85194e-05
9.31346e-07
8.84523e-05
9.19536e-07
8.83813e-05
9.34106e-07
8.8307e-05
9.80877e-07
8.82312e-05
1.0674e-06
8.81589e-05
1.204e-06
8.80994e-05
1.40148e-06
8.80779e-05
1.67547e-06
2.02256e-06
8.81327e-05
8.04621e-05
4.39015e-06
8.25013e-05
8.62396e-06
8.39829e-05
8.82833e-06
8.50366e-05
7.98108e-06
8.57525e-05
6.9015e-06
8.62591e-05
5.84879e-06
8.66578e-05
4.98018e-06
8.69956e-05
4.28925e-06
8.72959e-05
3.73194e-06
8.75701e-05
3.27616e-06
8.78232e-05
2.89716e-06
8.80579e-05
2.57647e-06
8.82764e-05
2.30143e-06
8.84805e-05
2.06332e-06
8.86715e-05
1.85574e-06
8.88501e-05
1.67379e-06
8.90169e-05
1.51382e-06
8.91726e-05
1.37308e-06
8.93177e-05
1.24958e-06
8.94529e-05
1.14197e-06
8.95787e-05
1.04951e-06
8.96956e-05
9.72012e-07
8.98043e-05
9.09862e-07
8.99055e-05
8.6408e-07
9.00005e-05
8.36362e-07
9.00909e-05
8.29178e-07
9.01791e-05
8.4583e-07
9.02694e-05
8.90637e-07
9.03681e-05
9.68669e-07
9.04861e-05
1.08605e-06
9.06403e-05
1.24719e-06
9.08589e-05
1.45694e-06
1.70017e-06
9.11813e-05
8.22331e-05
3.25563e-06
8.38904e-05
6.96668e-06
8.51735e-05
7.54521e-06
8.61013e-05
7.05329e-06
8.67361e-05
6.26669e-06
8.71681e-05
5.41674e-06
8.74853e-05
4.66298e-06
8.77371e-05
4.03751e-06
8.79501e-05
3.51893e-06
8.81398e-05
3.08647e-06
8.83144e-05
2.72257e-06
8.84782e-05
2.41267e-06
8.86336e-05
2.146e-06
8.87821e-05
1.91477e-06
8.89247e-05
1.71315e-06
8.90619e-05
1.53661e-06
8.9194e-05
1.38173e-06
8.93212e-05
1.24589e-06
8.94436e-05
1.12718e-06
8.95613e-05
1.02427e-06
8.96744e-05
9.36379e-07
8.97832e-05
8.63221e-07
8.98881e-05
8.05019e-07
8.99896e-05
7.62501e-07
9.00891e-05
7.36913e-07
9.01882e-05
7.30025e-07
9.029e-05
7.44075e-07
9.03989e-05
7.81739e-07
9.05219e-05
8.4564e-07
9.06698e-05
9.38202e-07
9.0858e-05
1.05894e-06
9.11093e-05
1.20562e-06
1.35963e-06
9.14499e-05
8.42155e-05
2.45567e-06
8.55464e-05
5.63581e-06
8.66638e-05
6.42777e-06
8.75154e-05
6.20173e-06
8.81343e-05
5.64774e-06
8.85737e-05
4.97737e-06
8.88989e-05
4.33777e-06
8.91537e-05
3.78269e-06
8.93639e-05
3.30876e-06
8.95455e-05
2.90482e-06
8.97083e-05
2.55984e-06
8.98577e-05
2.26323e-06
8.99973e-05
2.00639e-06
9.01293e-05
1.78276e-06
9.02552e-05
1.58725e-06
9.0376e-05
1.41586e-06
9.04923e-05
1.26543e-06
9.06046e-05
1.13357e-06
9.07133e-05
1.01847e-06
9.08187e-05
9.18841e-07
9.09212e-05
8.3389e-07
9.10212e-05
7.6324e-07
9.11193e-05
7.0693e-07
9.12164e-05
6.65384e-07
9.13139e-05
6.39375e-07
9.1414e-05
6.29969e-07
9.15197e-05
6.3838e-07
9.16356e-05
6.65802e-07
9.17684e-05
7.12833e-07
9.19275e-05
7.79091e-07
9.21255e-05
8.61031e-07
9.23787e-05
9.5241e-07
1.03544e-06
9.27029e-05
8.63709e-05
1.88352e-06
8.7437e-05
4.56969e-06
8.84037e-05
5.46103e-06
8.91752e-05
5.43022e-06
8.97649e-05
5.05812e-06
9.02034e-05
4.53886e-06
9.05381e-05
4.00307e-06
9.08055e-05
3.51523e-06
9.10284e-05
3.08592e-06
9.12212e-05
2.71194e-06
9.13935e-05
2.3876e-06
9.15509e-05
2.10587e-06
9.16971e-05
1.8602e-06
9.18346e-05
1.64526e-06
9.19651e-05
1.45672e-06
9.20899e-05
1.29108e-06
9.22098e-05
1.14553e-06
9.23255e-05
1.01787e-06
9.24375e-05
9.06411e-07
9.25464e-05
8.09912e-07
9.26528e-05
7.27539e-07
9.27572e-05
6.58807e-07
9.28606e-05
6.0355e-07
9.29641e-05
5.61865e-07
9.30694e-05
5.34045e-07
9.31789e-05
5.20476e-07
9.32959e-05
5.2144e-07
9.34248e-05
5.36884e-07
9.35718e-05
5.65857e-07
9.37448e-05
6.06086e-07
9.39534e-05
6.52399e-07
9.42089e-05
6.96916e-07
7.24254e-07
9.45201e-05
8.86664e-05
1.46717e-06
8.95204e-05
3.71566e-06
9.03536e-05
4.62785e-06
9.10495e-05
4.73429e-06
9.16055e-05
4.50215e-06
9.20368e-05
4.10748e-06
9.23757e-05
3.66424e-06
9.26512e-05
3.23969e-06
9.28831e-05
2.85404e-06
9.30846e-05
2.51042e-06
9.32648e-05
2.20748e-06
9.34293e-05
1.94132e-06
9.35821e-05
1.70739e-06
9.37258e-05
1.50158e-06
9.38622e-05
1.32034e-06
9.39926e-05
1.1607e-06
9.41179e-05
1.02017e-06
9.4239e-05
8.9675e-07
9.43566e-05
7.88867e-07
9.44712e-05
6.95308e-07
9.45835e-05
6.15184e-07
9.46945e-05
5.47884e-07
9.4805e-05
4.93021e-07
9.49165e-05
4.50367e-07
9.50308e-05
4.19759e-07
9.51503e-05
4.00972e-07
9.52782e-05
3.93511e-07
9.54187e-05
3.96357e-07
9.55771e-05
4.07504e-07
9.57596e-05
4.23586e-07
9.59731e-05
4.38845e-07
9.62248e-05
4.45274e-07
4.30313e-07
9.65187e-05
9.10801e-05
1.15837e-06
9.17661e-05
3.02964e-06
9.24832e-05
3.91082e-06
9.31102e-05
4.10729e-06
9.36316e-05
3.98075e-06
9.40519e-05
3.68719e-06
9.43913e-05
3.32483e-06
9.46724e-05
2.9586e-06
9.49118e-05
2.61462e-06
9.51213e-05
2.30093e-06
9.53091e-05
2.01962e-06
9.5481e-05
1.76947e-06
9.56406e-05
1.54775e-06
9.57907e-05
1.35148e-06
9.59331e-05
1.1779e-06
9.60693e-05
1.02451e-06
9.62003e-05
8.89161e-07
9.6327e-05
7.70052e-07
9.64502e-05
6.65703e-07
9.65706e-05
5.74925e-07
9.6689e-05
4.96773e-07
9.68064e-05
4.30508e-07
9.69239e-05
3.75532e-07
9.70429e-05
3.31316e-07
9.71654e-05
2.97297e-07
9.72936e-05
2.72744e-07
9.74305e-05
2.56567e-07
9.75798e-05
2.47086e-07
9.77456e-05
2.41682e-07
9.79327e-05
2.36526e-07
9.81456e-05
2.2597e-07
9.83881e-05
2.02713e-07
1.56916e-07
9.86615e-05
9.35985e-05
9.24562e-07
9.41523e-05
2.47583e-06
9.47686e-05
3.29446e-06
9.53323e-05
3.54357e-06
9.5819e-05
3.49408e-06
9.62257e-05
3.28052e-06
9.65636e-05
2.98694e-06
9.6849e-05
2.67315e-06
9.70955e-05
2.36817e-06
9.73129e-05
2.08348e-06
9.75088e-05
1.82376e-06
9.76883e-05
1.58994e-06
9.78553e-05
1.38083e-06
9.80122e-05
1.19451e-06
9.81612e-05
1.02892e-06
9.83036e-05
8.82063e-07
9.84407e-05
7.52091e-07
9.85734e-05
6.37398e-07
9.87025e-05
5.36602e-07
9.88289e-05
4.48532e-07
9.89534e-05
3.72193e-07
9.90772e-05
3.06725e-07
9.92014e-05
2.51342e-07
9.93275e-05
2.05256e-07
9.94572e-05
1.67581e-07
9.95927e-05
1.37204e-07
9.97367e-05
1.1263e-07
9.9892e-05
9.1797e-08
0.000100062
7.18323e-08
0.000100249
4.88902e-08
0.000100458
1.78401e-08
0.000100688
-2.75349e-08
-9.46591e-08
0.000100939
9.62129e-05
7.43771e-07
9.66631e-05
2.02563e-06
9.71931e-05
2.7644e-06
9.76995e-05
3.03717e-06
9.81525e-05
3.04113e-06
9.85438e-05
2.88918e-06
9.8878e-05
2.65274e-06
9.9166e-05
2.38515e-06
9.94182e-05
2.11595e-06
9.96429e-05
1.85877e-06
9.98466e-05
1.62014e-06
0.000100034
1.40261e-06
0.000100208
1.20629e-06
0.000100373
1.0302e-06
0.000100529
8.72913e-07
0.000100678
7.32854e-07
0.000100822
6.08486e-07
0.000100961
4.98378e-07
0.000101096
4.01239e-07
0.000101229
3.15917e-07
0.000101359
2.41372e-07
0.000101489
1.76642e-07
0.00010162
1.20783e-07
0.000101752
7.28065e-08
0.000101888
3.15879e-08
0.00010203
-4.23391e-09
0.000102179
-3.63848e-08
0.000102338
-6.70839e-08
0.000102509
-9.91949e-08
0.000102694
-1.36293e-07
0.000102895
-1.82781e-07
0.000103111
-2.43675e-07
-3.24397e-07
0.000103341
9.89185e-05
6.01024e-07
9.92877e-05
1.65638e-06
9.97446e-05
2.30757e-06
0.000100199
2.58226e-06
0.00010062
2.6204e-06
0.000100995
2.51425e-06
0.000101324
2.32399e-06
0.000101613
2.09607e-06
0.00010187
1.85897e-06
0.000102101
1.62737e-06
0.000102313
1.40897e-06
0.000102508
1.20748e-06
0.00010269
1.02402e-06
0.000102862
8.58373e-07
0.000103025
7.09651e-07
0.000103181
5.76678e-07
0.000103331
4.58175e-07
0.000103477
3.52874e-07
0.000103619
2.59571e-07
0.000103757
1.77136e-07
0.000103894
1.04495e-07
0.00010403
4.06066e-08
0.000104167
-1.55854e-08
0.000104305
-6.52097e-08
0.000104446
-1.0954e-07
0.000104592
-1.50075e-07
0.000104744
-1.88626e-07
0.000104904
-2.27397e-07
0.000105074
-2.6906e-07
0.000105255
-3.16757e-07
0.000105446
-3.74101e-07
0.000105647
-4.44964e-07
-5.33169e-07
0.000105856
0.000101713
4.86004e-07
0.000102019
1.35031e-06
0.000102414
1.91226e-06
0.000102823
2.17303e-06
0.000103214
2.22971e-06
0.000103572
2.1559e-06
0.000103895
2.00178e-06
0.000104184
1.80712e-06
0.000104444
1.59826e-06
0.000104682
1.39003e-06
0.0001049
1.19073e-06
0.000105103
1.00479e-06
0.000105293
8.34084e-07
0.000105472
6.78975e-07
0.000105643
5.39031e-07
0.000105806
4.13402e-07
0.000105963
3.01033e-07
0.000106115
2.00804e-07
0.000106263
1.11585e-07
0.000106408
3.22708e-08
0.000106551
-3.82293e-08
0.000106692
-1.01005e-07
0.000106834
-1.57185e-07
0.000106977
-2.07979e-07
0.000107122
-2.54735e-07
0.000107271
-2.9899e-07
0.000107425
-3.42528e-07
0.000107585
-3.87416e-07
0.000107752
-4.36025e-07
0.000107926
-4.90996e-07
0.000108107
-5.55178e-07
0.000108293
-6.31436e-07
-7.22348e-07
0.000108483
0.000104595
3.91491e-07
0.000104852
1.09352e-06
0.000105196
1.56815e-06
0.000105565
1.80382e-06
0.000105928
1.86652e-06
0.00010627
1.81372e-06
0.000106585
1.68675e-06
0.000106873
1.51917e-06
0.000107137
1.3346e-06
0.00010738
1.14732e-06
0.000107605
9.65752e-07
0.000107815
7.94704e-07
0.000108012
6.36512e-07
0.000108199
4.9197e-07
0.000108377
3.60985e-07
0.000108548
2.42964e-07
0.000108712
1.37037e-07
0.00010887
4.21997e-08
0.000109025
-4.26055e-08
0.000109175
-1.18456e-07
0.000109324
-1.86442e-07
0.00010947
-2.47677e-07
0.000109616
-3.03323e-07
0.000109763
-3.54618e-07
0.000109911
-4.02918e-07
0.000110062
-4.49722e-07
0.000110216
-4.96703e-07
0.000110374
-5.45716e-07
0.000110537
-5.98784e-07
0.000110704
-6.5804e-07
0.000110875
-7.25647e-07
0.000111047
-8.03632e-07
-8.93645e-07
0.000111218
0.000107565
3.12332e-07
0.000107784
8.75141e-07
0.000108085
1.26623e-06
0.00010842
1.46916e-06
0.000108759
1.52799e-06
0.000109086
1.48673e-06
0.000109393
1.37899e-06
0.00010968
1.2327e-06
0.000109946
1.06852e-06
0.000110194
8.99687e-07
0.000110425
7.34365e-07
0.000110642
5.77417e-07
0.000110847
4.31408e-07
0.000111042
2.97396e-07
0.000111227
1.75519e-07
0.000111405
6.53674e-08
0.000111576
-3.37925e-08
0.000111741
-1.22867e-07
0.000111901
-2.02856e-07
0.000112057
-2.74803e-07
0.000112211
-3.39788e-07
0.000112362
-3.98923e-07
0.000112512
-4.53368e-07
0.000112662
-5.04347e-07
0.000112812
-5.53169e-07
0.000112964
-6.01242e-07
0.000113117
-6.50076e-07
0.000113273
-7.01276e-07
0.00011343
-7.56507e-07
0.00011359
-8.17434e-07
0.00011375
-8.85631e-07
0.000113908
-9.62455e-07
-1.04888e-06
0.000114064
0.000110624
2.44773e-07
0.000110813
6.86654e-07
0.00011108
9.98695e-07
0.000111386
1.16385e-06
0.000111703
1.21107e-06
0.000112016
1.17349e-06
0.000112317
1.07808e-06
0.000112602
9.47782e-07
0.00011287
8.00257e-07
0.000113122
6.47385e-07
0.00011336
4.96756e-07
0.000113584
3.53037e-07
0.000113797
2.18816e-07
0.000113999
9.5259e-08
0.000114192
-1.73725e-08
0.000114377
-1.19378e-07
0.000114554
-2.11398e-07
0.000114726
-2.94274e-07
0.000114892
-3.68957e-07
0.000115053
-4.36461e-07
0.000115212
-4.97845e-07
0.000115367
-5.54199e-07
0.00011552
-6.06655e-07
0.000115672
-6.56385e-07
0.000115824
-7.04618e-07
0.000115975
-7.52632e-07
0.000116127
-8.0175e-07
0.000116279
-8.53317e-07
0.000116431
-9.08661e-07
0.000116582
-9.69032e-07
0.000116732
-1.03553e-06
0.000116879
-1.10899e-06
-1.18991e-06
0.00011702
0.000113774
1.86006e-07
0.00011394
5.21309e-07
0.00011418
7.58796e-07
0.00011446
8.82943e-07
0.000114759
9.12545e-07
0.00011506
8.72167e-07
0.000115355
7.83151e-07
0.000115639
6.64081e-07
0.000115909
5.2972e-07
0.000116166
3.90401e-07
0.00011641
2.52918e-07
0.000116642
1.21539e-07
0.000116862
-1.31009e-09
0.000117072
-1.14494e-07
0.000117272
-2.1773e-07
0.000117464
-3.11278e-07
0.000117648
-3.95738e-07
0.000117826
-4.71913e-07
0.000117998
-5.40724e-07
0.000118164
-6.03159e-07
0.000118327
-6.60246e-07
0.000118486
-7.13042e-07
0.000118642
-7.62626e-07
0.000118795
-8.101e-07
0.000118947
-8.56585e-07
0.000119098
-9.03214e-07
0.000119247
-9.51114e-07
0.000119395
-1.00138e-06
0.000119542
-1.05504e-06
0.000119686
-1.113e-06
0.000119826
-1.17596e-06
0.000119961
-1.24441e-06
-1.31848e-06
0.00012009
0.000117016
1.33878e-07
0.000117164
3.73693e-07
0.000117382
5.40689e-07
0.000117643
6.21794e-07
0.000117927
6.29102e-07
0.000118218
5.80609e-07
0.000118509
4.92928e-07
0.000118792
3.8087e-07
0.000119065
2.56489e-07
0.000119327
1.28482e-07
0.000119577
2.67944e-09
0.000119816
-1.1721e-07
0.000120044
-2.29076e-07
0.000120261
-3.31938e-07
0.000120469
-4.25587e-07
0.000120668
-5.10315e-07
0.000120859
-5.8673e-07
0.000121043
-6.55628e-07
0.00012122
-7.17919e-07
0.000121391
-7.74568e-07
0.000121558
-8.26575e-07
0.00012172
-8.74951e-07
0.000121878
-9.20712e-07
0.000122032
-9.64875e-07
0.000122184
-1.00844e-06
0.000122333
-1.0524e-06
0.00012248
-1.09768e-06
0.000122624
-1.14515e-06
0.000122764
-1.19559e-06
0.000122901
-1.24961e-06
0.000123033
-1.30764e-06
0.000123158
-1.36988e-06
-1.43629e-06
0.000123276
0.000120353
8.66875e-08
0.000120488
2.39382e-07
0.000120689
3.39256e-07
0.000120935
3.75977e-07
0.000121207
3.57326e-07
0.000121491
2.96334e-07
0.000121778
2.05703e-07
0.000122062
9.6984e-08
0.000122339
-2.02589e-08
0.000122606
-1.38991e-07
0.000122863
-2.54447e-07
0.00012311
-3.63616e-07
0.000123345
-4.6482e-07
0.000123571
-5.57347e-07
0.000123786
-6.41153e-07
0.000123993
-7.16626e-07
0.00012419
-7.8443e-07
0.00012438
-8.45392e-07
0.000124563
-9.00426e-07
0.000124739
-9.50489e-07
0.000124909
-9.96549e-07
0.000125073
-1.03957e-06
0.000125233
-1.08051e-06
0.000125388
-1.12027e-06
0.00012554
-1.15976e-06
0.000125687
-1.19981e-06
0.000125831
-1.24118e-06
0.00012597
-1.28454e-06
0.000126105
-1.33044e-06
0.000126235
-1.37929e-06
0.000126358
-1.43131e-06
0.000126475
-1.4865e-06
-1.54467e-06
0.000126583
0.000123787
4.3042e-08
0.000123912
1.14657e-07
0.000124101
1.49939e-07
0.000124336
1.41259e-07
0.000124599
9.37009e-08
0.000124879
1.6585e-08
0.000125165
-8.05937e-08
0.000125451
-1.89106e-07
0.000125733
-3.01661e-07
0.000126007
-4.12871e-07
0.000126271
-5.19111e-07
0.000126526
-6.18168e-07
0.00012677
-7.08904e-07
0.000127004
-7.90974e-07
0.000127227
-8.64577e-07
0.000127441
-9.30263e-07
0.000127645
-9.88801e-07
0.000127841
-1.04108e-06
0.000128028
-1.08803e-06
0.000128208
-1.13063e-06
0.000128382
-1.1698e-06
0.000128549
-1.20649e-06
0.00012871
-1.24156e-06
0.000128865
-1.27585e-06
0.000129016
-1.31013e-06
0.000129161
-1.34511e-06
0.000129301
-1.38139e-06
0.000129436
-1.41948e-06
0.000129565
-1.45977e-06
0.000129689
-1.50249e-06
0.000129805
-1.5477e-06
0.000129914
-1.59529e-06
-1.64502e-06
0.000130014
0.00012732
1.76271e-09
0.000127438
-3.70738e-09
0.00012762
-3.14445e-08
0.000127847
-8.65177e-08
0.000128107
-1.65477e-07
0.000128385
-2.61759e-07
0.000128673
-3.68523e-07
0.000128963
-4.79475e-07
0.000129251
-5.89415e-07
0.000129533
-6.94564e-07
0.000129806
-7.92488e-07
0.00013007
-8.81849e-07
0.000130323
-9.62147e-07
0.000130565
-1.03349e-06
0.000130797
-1.09639e-06
0.000131019
-1.15162e-06
0.00013123
-1.20011e-06
0.000131432
-1.24283e-06
0.000131624
-1.28077e-06
0.000131809
-1.31491e-06
0.000131985
-1.3462e-06
0.000132154
-1.37549e-06
0.000132316
-1.40363e-06
0.000132472
-1.43135e-06
0.000132621
-1.45932e-06
0.000132764
-1.48813e-06
0.000132901
-1.51826e-06
0.000133031
-1.55008e-06
0.000133155
-1.58383e-06
0.000133273
-1.61962e-06
0.000133382
-1.65742e-06
0.000133484
-1.69703e-06
-1.73815e-06
0.000133577
0.000130955
-3.82709e-08
0.00013107
-1.18629e-07
0.000131247
-2.08818e-07
0.000131472
-3.11465e-07
0.000131731
-4.24054e-07
0.000132011
-5.42089e-07
0.000132303
-6.60935e-07
0.0001326
-7.76459e-07
0.000132896
-8.85401e-07
0.000133187
-9.85565e-07
0.000133471
-1.07575e-06
0.000133744
-1.15557e-06
0.000134008
-1.22524e-06
0.000134259
-1.28539e-06
0.0001345
-1.33693e-06
0.000134729
-1.38091e-06
0.000134948
-1.41843e-06
0.000135155
-1.45061e-06
0.000135353
-1.47851e-06
0.000135541
-1.50315e-06
0.000135721
-1.52546e-06
0.000135891
-1.54628e-06
0.000136054
-1.56639e-06
0.000136209
-1.58646e-06
0.000136357
-1.60706e-06
0.000136498
-1.62869e-06
0.000136631
-1.6517e-06
0.000136757
-1.67637e-06
0.000136876
-1.70283e-06
0.000136988
-1.7311e-06
0.000137091
-1.76108e-06
0.000137187
-1.79254e-06
-1.82518e-06
0.000137274
0.000134695
-7.80072e-08
0.000134809
-2.32926e-07
0.000134986
-3.86145e-07
0.000135213
-5.37965e-07
0.000135475
-6.86375e-07
0.000135762
-8.2848e-07
0.000136062
-9.61528e-07
0.000136369
-1.08335e-06
0.000136676
-1.19251e-06
0.000136979
-1.28839e-06
0.000137274
-1.37106e-06
0.00013756
-1.44117e-06
0.000137834
-1.49972e-06
0.000138097
-1.54794e-06
0.000138347
-1.5872e-06
0.000138585
-1.61887e-06
0.000138811
-1.64431e-06
0.000139025
-1.66479e-06
0.000139228
-1.68147e-06
0.000139421
-1.69541e-06
0.000139603
-1.70756e-06
0.000139775
-1.71875e-06
0.000139938
-1.7297e-06
0.000140093
-1.74103e-06
0.000140239
-1.75323e-06
0.000140377
-1.76669e-06
0.000140507
-1.7817e-06
0.000140629
-1.79843e-06
0.000140743
-1.81694e-06
0.000140849
-1.83718e-06
0.000140947
-1.85899e-06
0.000141037
-1.88212e-06
-1.90622e-06
0.000141118
0.000138543
-1.18461e-07
0.000138659
-3.49423e-07
0.00013884
-5.67428e-07
0.000139073
-7.70507e-07
0.000139344
-9.56915e-07
0.00013964
-1.12508e-06
0.000139953
-1.27397e-06
0.000140273
-1.40326e-06
0.000140593
-1.51334e-06
0.00014091
-1.60517e-06
0.000141219
-1.68017e-06
0.000141518
-1.74004e-06
0.000141805
-1.78668e-06
0.000142079
-1.82199e-06
0.00014234
-1.84784e-06
0.000142587
-1.866e-06
0.000142821
-1.87808e-06
0.000143041
-1.88555e-06
0.00014325
-1.88971e-06
0.000143446
-1.89167e-06
0.000143631
-1.89241e-06
0.000143805
-1.89276e-06
0.000143968
-1.8934e-06
0.000144122
-1.89489e-06
0.000144267
-1.89766e-06
0.000144402
-1.90204e-06
0.000144529
-1.90822e-06
0.000144647
-1.91632e-06
0.000144756
-1.92633e-06
0.000144857
-1.93815e-06
0.000144949
-1.95159e-06
0.000145034
-1.96641e-06
-1.98227e-06
0.00014511
0.000142502
-1.6075e-07
0.000142623
-4.7127e-07
0.000142813
-7.57314e-07
0.000143057
-1.01461e-06
0.000143342
-1.24156e-06
0.000143655
-1.43781e-06
0.000143985
-1.60392e-06
0.000144323
-1.74145e-06
0.000144662
-1.8526e-06
0.000144997
-1.94002e-06
0.000145323
-2.00656e-06
0.000145638
-2.05511e-06
0.00014594
-2.0885e-06
0.000146228
-2.10942e-06
0.0001465
-2.12029e-06
0.000146757
-2.12333e-06
0.000147
-2.12046e-06
0.000147228
-2.11337e-06
0.000147441
-2.10348e-06
0.000147642
-2.09201e-06
0.000147829
-2.07997e-06
0.000148005
-2.06817e-06
0.000148169
-2.05729e-06
0.000148322
-2.04782e-06
0.000148464
-2.04016e-06
0.000148597
-2.03454e-06
0.000148719
-2.03112e-06
0.000148833
-2.02993e-06
0.000148938
-2.03091e-06
0.000149033
-2.03392e-06
0.000149121
-2.03874e-06
0.000149199
-2.0451e-06
-2.05261e-06
0.00014927
0.000146575
-2.06051e-07
0.000146705
-6.01793e-07
0.000146908
-9.60527e-07
0.000147169
-1.27556e-06
0.000147473
-1.54558e-06
0.000147807
-1.77155e-06
0.000148159
-1.95578e-06
0.000148519
-2.10176e-06
0.00014888
-2.21366e-06
0.000149236
-2.29588e-06
0.000149582
-2.3528e-06
0.000149916
-2.38859e-06
0.000150234
-2.40712e-06
0.000150537
-2.41188e-06
0.000150823
-2.40595e-06
0.000151091
-2.39202e-06
0.000151343
-2.37238e-06
0.000151579
-2.34894e-06
0.000151799
-2.32331e-06
0.000152003
-2.2968e-06
0.000152194
-2.27046e-06
0.000152371
-2.24511e-06
0.000152535
-2.22141e-06
0.000152687
-2.19982e-06
0.000152827
-2.18067e-06
0.000152957
-2.16416e-06
0.000153076
-2.15036e-06
0.000153186
-2.13926e-06
0.000153286
-2.13076e-06
0.000153376
-2.12468e-06
0.000153458
-2.12078e-06
0.000153532
-2.1188e-06
-2.11837e-06
0.000153598
0.000150766
-2.56093e-07
0.00015091
-7.45851e-07
0.000151134
-1.18438e-06
0.00015142
-1.56229e-06
0.000151754
-1.87873e-06
0.000152118
-2.13617e-06
0.000152501
-2.33887e-06
0.000152892
-2.49258e-06
0.000153282
-2.60374e-06
0.000153665
-2.67875e-06
0.000154036
-2.72372e-06
0.000154392
-2.74424e-06
0.00015473
-2.74533e-06
0.000155049
-2.7314e-06
0.00015535
-2.70621e-06
0.00015563
-2.67296e-06
0.000155892
-2.63431e-06
0.000156136
-2.59246e-06
0.000156362
-2.54915e-06
0.000156571
-2.50582e-06
0.000156764
-2.46354e-06
0.000156942
-2.42317e-06
0.000157106
-2.38531e-06
0.000157256
-2.35041e-06
0.000157394
-2.31873e-06
0.000157521
-2.2904e-06
0.000157636
-2.26546e-06
0.00015774
-2.24384e-06
0.000157835
-2.22536e-06
0.00015792
-2.20982e-06
0.000157996
-2.19692e-06
0.000158064
-2.18636e-06
-2.1777e-06
0.000158123
0.000155078
-3.12282e-07
0.00015524
-9.0758e-07
0.000155489
-1.43431e-06
0.000155808
-1.88043e-06
0.000156175
-2.24642e-06
0.000156576
-2.53688e-06
0.000156995
-2.75833e-06
0.000157422
-2.91906e-06
0.000157846
-3.02796e-06
0.000158261
-3.09366e-06
0.000158661
-3.12412e-06
0.000159044
-3.12654e-06
0.000159406
-3.10723e-06
0.000159746
-3.07159e-06
0.000160064
-3.02417e-06
0.00016036
-2.96876e-06
0.000160634
-2.90842e-06
0.000160887
-2.84562e-06
0.00016112
-2.78233e-06
0.000161334
-2.72005e-06
0.000161531
-2.65993e-06
0.00016171
-2.60282e-06
0.000161874
-2.54929e-06
0.000162024
-2.49974e-06
0.000162159
-2.45438e-06
0.000162282
-2.41328e-06
0.000162393
-2.37641e-06
0.000162493
-2.34364e-06
0.000162582
-2.31475e-06
0.000162662
-2.2895e-06
0.000162733
-2.26756e-06
0.000162795
-2.24864e-06
-2.23226e-06
0.000162849
0.000159517
-3.78868e-07
0.000159708
-1.09798e-06
0.00016
-1.72631e-06
0.000160368
-2.24856e-06
0.000160789
-2.66758e-06
0.000161243
-2.99107e-06
0.000161714
-3.22889e-06
0.000162187
-3.39289e-06
0.000162655
-3.49515e-06
0.000163108
-3.54691e-06
0.000163542
-3.5583e-06
0.000163954
-3.53824e-06
0.000164341
-3.49439e-06
0.000164703
-3.43321e-06
0.000165038
-3.36003e-06
0.000165349
-3.2792e-06
0.000165635
-3.1942e-06
0.000165897
-3.10779e-06
0.000166137
-3.02207e-06
0.000166355
-2.93867e-06
0.000166554
-2.85876e-06
0.000166734
-2.78316e-06
0.000166897
-2.71243e-06
0.000167045
-2.64689e-06
0.000167177
-2.5867e-06
0.000167296
-2.53185e-06
0.000167401
-2.48223e-06
0.000167495
-2.43764e-06
0.000167578
-2.39781e-06
0.000167651
-2.36241e-06
0.000167715
-2.33105e-06
0.00016777
-2.30336e-06
-2.27877e-06
0.000167816
0.000164083
-4.55599e-07
0.000164304
-1.3191e-06
0.00016464
-2.06242e-06
0.000165061
-2.66911e-06
0.00016554
-3.14658e-06
0.000166054
-3.50587e-06
0.000166586
-3.76024e-06
0.000167118
-3.92554e-06
0.000167641
-4.01761e-06
0.000168145
-4.05079e-06
0.000168624
-4.03783e-06
0.000169076
-3.98979e-06
0.000169497
-3.91594e-06
0.000169888
-3.82398e-06
0.000170248
-3.72015e-06
0.000170579
-3.60944e-06
0.00017088
-3.49576e-06
0.000171154
-3.38213e-06
0.000171403
-3.27082e-06
0.000171628
-3.16351e-06
0.000171831
-3.06138e-06
0.000172013
-2.9652e-06
0.000172176
-2.87547e-06
0.000172321
-2.79241e-06
0.000172451
-2.71608e-06
0.000172565
-2.64639e-06
0.000172666
-2.58315e-06
0.000172755
-2.52608e-06
0.000172832
-2.47484e-06
0.000172898
-2.42904e-06
0.000172955
-2.38827e-06
0.000173004
-2.35213e-06
-2.32e-06
0.000173045
0.000168796
-5.59819e-07
0.000169084
-1.60683e-06
0.000169508
-2.48668e-06
0.000170023
-3.18399e-06
0.000170594
-3.71726e-06
0.000171193
-4.10508e-06
0.0001718
-4.36706e-06
0.000172399
-4.52483e-06
0.00017298
-4.5985e-06
0.000173535
-4.60564e-06
0.000174058
-4.56158e-06
0.000174548
-4.47939e-06
0.000175002
-4.36992e-06
0.00017542
-4.24203e-06
0.000175803
-4.10281e-06
0.000176151
-3.95787e-06
0.000176467
-3.81154e-06
0.000176752
-3.6671e-06
0.000177008
-3.52697e-06
0.000177237
-3.39285e-06
0.000177442
-3.26592e-06
0.000177624
-3.14689e-06
0.000177784
-3.03615e-06
0.000177926
-2.93384e-06
0.000178049
-2.83988e-06
0.000178157
-2.75408e-06
0.00017825
-2.67614e-06
0.00017833
-2.60567e-06
0.000178397
-2.54224e-06
0.000178453
-2.4854e-06
0.0001785
-2.43461e-06
0.000178537
-2.38938e-06
-2.34893e-06
0.000178566
0.000173624
-6.72549e-07
0.000173958
-1.941e-06
0.000174455
-2.98298e-06
0.000175062
-3.79187e-06
0.000175741
-4.39584e-06
0.000176454
-4.81779e-06
0.000177172
-5.08494e-06
0.000177874
-5.22755e-06
0.000178548
-5.27218e-06
0.000179184
-5.24123e-06
0.000179776
-5.15376e-06
0.000180322
-5.02564e-06
0.000180822
-4.86967e-06
0.000181276
-4.69608e-06
0.000181686
-4.5129e-06
0.000182054
-4.32632e-06
0.000182384
-4.14099e-06
0.000182677
-3.96036e-06
0.000182937
-3.78686e-06
0.000183166
-3.62214e-06
0.000183368
-3.46724e-06
0.000183543
-3.32274e-06
0.000183696
-3.18884e-06
0.000183828
-3.06549e-06
0.00018394
-2.95245e-06
0.000184036
-2.84936e-06
0.000184115
-2.75578e-06
0.000184181
-2.67122e-06
0.000184234
-2.59517e-06
0.000184275
-2.5271e-06
0.000184307
-2.46647e-06
0.000184331
-2.41279e-06
-2.36512e-06
0.000184347
0.000178684
-8.87702e-07
0.000179196
-2.45295e-06
0.000179874
-3.6613e-06
0.000180639
-4.55667e-06
0.000181448
-5.20506e-06
0.000182269
-5.63869e-06
0.000183077
-5.8933e-06
0.000183856
-6.00667e-06
0.000184594
-6.01019e-06
0.000185283
-5.93029e-06
0.000185919
-5.78956e-06
0.0001865
-5.60658e-06
0.000187027
-5.39613e-06
0.0001875
-5.16988e-06
0.000187924
-4.93678e-06
0.000188302
-4.70358e-06
0.000188636
-4.47524e-06
0.000188931
-4.25525e-06
0.00018919
-4.04597e-06
0.000189417
-3.84891e-06
0.000189614
-3.66485e-06
0.000189786
-3.49413e-06
0.000189933
-3.33666e-06
0.00019006
-3.19216e-06
0.000190168
-3.06011e-06
0.000190258
-2.93995e-06
0.000190334
-2.83104e-06
0.000190395
-2.73273e-06
0.000190444
-2.64442e-06
0.000190483
-2.56549e-06
0.000190512
-2.49541e-06
0.000190533
-2.43365e-06
-2.37919e-06
0.000190547
0.000183747
-1.06754e-06
0.000184343
-3.04855e-06
0.000185182
-4.50023e-06
0.00018616
-5.53513e-06
0.000187196
-6.24058e-06
0.000188225
-6.66749e-06
0.000189212
-6.8812e-06
0.000190144
-6.93847e-06
0.000191014
-6.87964e-06
0.00019182
-6.73641e-06
0.000192565
-6.53435e-06
0.000193251
-6.29322e-06
0.000193883
-6.02825e-06
0.000194465
-5.75108e-06
0.000194998
-5.47053e-06
0.000195488
-5.19312e-06
0.000195936
-4.92362e-06
0.000196346
-4.66537e-06
0.000196721
-4.42059e-06
0.000197063
-4.19062e-06
0.000197374
-3.97615e-06
0.000197657
-3.77734e-06
0.000197914
-3.59397e-06
0.000198148
-3.42557e-06
0.000198359
-3.27152e-06
0.00019855
-3.13108e-06
0.000198723
-3.00349e-06
0.000198878
-2.88803e-06
0.000199018
-2.7841e-06
0.000199144
-2.69115e-06
0.000199257
-2.60902e-06
0.000199361
-2.53727e-06
-2.47607e-06
0.000199458
0.000189419
-1.67484e-06
0.000190412
-4.041e-06
0.0001915
-5.58863e-06
0.000192667
-6.7022e-06
0.000193919
-7.49237e-06
0.000195234
-7.98247e-06
0.000196591
-8.23863e-06
0.000197968
-8.31466e-06
0.000199336
-8.24841e-06