/*--------------------------------*- C++ -*----------------------------------*\
| =========                 |                                                 |
| \\      /  F ield         | OpenFOAM: The Open Source CFD Toolbox           |
|  \\    /   O peration     | Version:  2.1.1                                 |
|   \\  /    A nd           | Web:      www.OpenFOAM.org                      |
|    \\/     M anipulation  |                                                 |
\*---------------------------------------------------------------------------*/
FoamFile
{
    version     2.0;
    format      ascii;
    class       volVectorField;
    location    "0.085";
    object      U;
}
// * * * * * * * * * * * * * * * * * * * * * * * * * * * * * * * * * * * * * //

dimensions      [0 1 -1 0 0 0 0];

internalField   nonuniform List<vector> 
6820
(
(6.37595 0.503763 0)
(4.42407 0.286898 0)
(2.97296 0.0202462 0)
(2.23336 -0.061863 0)
(1.9674 -0.0599275 0)
(1.84021 -0.0344951 0)
(1.76493 -0.0150749 0)
(1.71245 -0.00468937 0)
(1.66872 2.6603e-05 0)
(1.63066 0.00155355 0)
(1.59768 0.00155887 0)
(1.56928 0.000978393 0)
(1.54493 0.00024505 0)
(1.52407 -0.000451404 0)
(1.50614 -0.00103568 0)
(1.49067 -0.00148844 0)
(1.47723 -0.00181521 0)
(1.46546 -0.00202966 0)
(1.45503 -0.00214528 0)
(1.44567 -0.00217189 0)
(1.43709 -0.00211425 0)
(1.42902 -0.00197144 0)
(1.42114 -0.00173765 0)
(1.41313 -0.00140021 0)
(1.40456 -0.000935764 0)
(1.39493 -0.000300237 0)
(1.38353 0.000554408 0)
(1.36963 0.00175251 0)
(1.35166 0.00329241 0)
(1.32932 0.00595608 0)
(1.29542 0.00824494 0)
(1.26155 0.0209624 0)
(1.16068 -0.00201597 0)
(8.72019 0.959695 0)
(8.7645 1.01207 0)
(7.9681 0.67918 0)
(7.05408 0.39406 0)
(6.3526 0.202594 0)
(5.84589 0.103482 0)
(5.48376 0.0579906 0)
(5.22234 0.037482 0)
(5.02662 0.0282787 0)
(4.87438 0.0237468 0)
(4.75219 0.0210389 0)
(4.65162 0.0191053 0)
(4.56727 0.0175558 0)
(4.4955 0.0162298 0)
(4.43376 0.0150519 0)
(4.38019 0.0139868 0)
(4.33339 0.013021 0)
(4.29226 0.012154 0)
(4.25591 0.0113938 0)
(4.22361 0.0107567 0)
(4.19472 0.0102684 0)
(4.16866 0.0099638 0)
(4.1449 0.00989253 0)
(4.12286 0.0101281 0)
(4.10195 0.0107753 0)
(4.08149 0.0119832 0)
(4.06068 0.0139347 0)
(4.03852 0.0169626 0)
(4.0137 0.0213471 0)
(3.98448 0.0284268 0)
(3.94835 0.0376971 0)
(3.90181 0.0577008 0)
(3.84273 0.0797532 0)
(8.58611 0.583575 0)
(9.33114 0.762573 0)
(9.6139 0.660461 0)
(9.50333 0.526864 0)
(9.23653 0.397278 0)
(8.9235 0.299349 0)
(8.61719 0.230455 0)
(8.34079 0.181005 0)
(8.09854 0.145031 0)
(7.88815 0.11836 0)
(7.70586 0.0980821 0)
(7.54777 0.0823366 0)
(7.41031 0.0699106 0)
(7.29041 0.0599799 0)
(7.18546 0.051954 0)
(7.09327 0.0453979 0)
(7.012 0.0399918 0)
(6.94011 0.0355056 0)
(6.87627 0.0317778 0)
(6.81935 0.0287019 0)
(6.76839 0.0262176 0)
(6.7225 0.0243061 0)
(6.6809 0.0229904 0)
(6.64283 0.0223414 0)
(6.60755 0.0224864 0)
(6.57428 0.0236251 0)
(6.54217 0.0260485 0)
(6.51028 0.0302131 0)
(6.47741 0.0367502 0)
(6.44224 0.0469359 0)
(6.40303 0.0619502 0)
(6.35791 0.0867728 0)
(6.30775 0.121685 0)
(8.44091 0.379809 0)
(8.94575 0.584333 0)
(9.35795 0.554999 0)
(9.58529 0.48757 0)
(9.69892 0.407635 0)
(9.73433 0.338439 0)
(9.71814 0.285867 0)
(9.67273 0.245618 0)
(9.61102 0.214076 0)
(9.54032 0.188671 0)
(9.46534 0.167569 0)
(9.38918 0.149651 0)
(9.31382 0.13421 0)
(9.2407 0.120757 0)
(9.17071 0.108969 0)
(9.10433 0.0986086 0)
(9.0418 0.0894903 0)
(8.98318 0.0814651 0)
(8.9284 0.0744198 0)
(8.87731 0.068276 0)
(8.8297 0.0629911 0)
(8.7853 0.0585608 0)
(8.7438 0.0550254 0)
(8.70487 0.0524801 0)
(8.66812 0.0510878 0)
(8.63311 0.0511003 0)
(8.59933 0.0528822 0)
(8.56623 0.0569845 0)
(8.53315 0.0641694 0)
(8.49949 0.0757362 0)
(8.46473 0.0931617 0)
(8.42881 0.119941 0)
(8.39475 0.157935 0)
(8.40212 0.280203 0)
(8.7188 0.481031 0)
(8.99841 0.462426 0)
(9.17352 0.405045 0)
(9.29755 0.34309 0)
(9.39043 0.290683 0)
(9.45887 0.251666 0)
(9.51103 0.222064 0)
(9.55176 0.198582 0)
(9.58344 0.179342 0)
(9.60783 0.1631 0)
(9.62633 0.149082 0)
(9.64006 0.136816 0)
(9.64966 0.125977 0)
(9.65581 0.116322 0)
(9.65914 0.107672 0)
(9.6602 0.0998953 0)
(9.65944 0.0929006 0)
(9.65723 0.0866283 0)
(9.65387 0.0810513 0)
(9.6496 0.0761745 0)
(9.64459 0.0720392 0)
(9.63897 0.0687296 0)
(9.63283 0.0663832 0)
(9.62621 0.065205 0)
(9.61914 0.065487 0)
(9.61164 0.0676354 0)
(9.60374 0.0722224 0)
(9.59554 0.0800235 0)
(9.5874 0.0921575 0)
(9.57994 0.109951 0)
(9.57499 0.135542 0)
(9.57567 0.169631 0)
(8.37746 0.202341 0)
(8.60119 0.383981 0)
(8.81535 0.391257 0)
(8.94598 0.357021 0)
(9.03138 0.312763 0)
(9.09361 0.269321 0)
(9.13992 0.233496 0)
(9.17758 0.204982 0)
(9.21081 0.182004 0)
(9.24102 0.163241 0)
(9.2688 0.147615 0)
(9.29452 0.134313 0)
(9.3184 0.122809 0)
(9.34071 0.112759 0)
(9.36158 0.103889 0)
(9.38109 0.0960006 0)
(9.39933 0.0889542 0)
(9.41636 0.0826568 0)
(9.43225 0.0770513 0)
(9.44705 0.0721139 0)
(9.46083 0.0678535 0)
(9.47365 0.0643146 0)
(9.48555 0.0615828 0)
(9.49663 0.0597929 0)
(9.50697 0.0591404 0)
(9.51673 0.0598966 0)
(9.5261 0.0624256 0)
(9.53543 0.0672151 0)
(9.54522 0.0748819 0)
(9.55641 0.0862277 0)
(9.57023 0.10207 0)
(9.58942 0.123425 0)
(9.61629 0.149829 0)
(8.36126 0.148996 0)
(8.52256 0.311847 0)
(8.69702 0.337704 0)
(8.81141 0.318335 0)
(8.88559 0.28523 0)
(8.93819 0.249133 0)
(8.97541 0.217557 0)
(9.00343 0.191722 0)
(9.02671 0.170486 0)
(9.04715 0.152826 0)
(9.06571 0.137916 0)
(9.08301 0.125113 0)
(9.09936 0.113969 0)
(9.11495 0.104166 0)
(9.12989 0.0954823 0)
(9.14426 0.0877575 0)
(9.15809 0.0808735 0)
(9.17141 0.0747466 0)
(9.18423 0.0693231 0)
(9.19656 0.0645786 0)
(9.20842 0.0605187 0)
(9.21982 0.0571807 0)
(9.23079 0.0546382 0)
(9.24138 0.0530057 0)
(9.25168 0.0524454 0)
(9.26183 0.0531752 0)
(9.27207 0.0554735 0)
(9.28278 0.0596896 0)
(9.2945 0.0662201 0)
(9.30815 0.0755158 0)
(9.32493 0.0878625 0)
(9.34708 0.103492 0)
(9.37631 0.121144 0)
(8.35114 0.111585 0)
(8.46724 0.252097 0)
(8.60774 0.287211 0)
(8.7091 0.279214 0)
(8.77849 0.25702 0)
(8.82965 0.22968 0)
(8.86694 0.203646 0)
(8.8949 0.181046 0)
(8.91752 0.161635 0)
(8.9368 0.144955 0)
(8.95383 0.130571 0)
(8.9693 0.11806 0)
(8.98367 0.107083 0)
(8.9972 0.0973906 0)
(9.01005 0.0887917 0)
(9.02235 0.081137 0)
(9.03418 0.0743132 0)
(9.04559 0.0682394 0)
(9.05662 0.0628641 0)
(9.06731 0.0581636 0)
(9.07769 0.0541412 0)
(9.0878 0.0508286 0)
(9.09768 0.048287 0)
(9.1074 0.0466106 0)
(9.11709 0.0459279 0)
(9.12691 0.0464041 0)
(9.1371 0.0482365 0)
(9.14806 0.0516496 0)
(9.1603 0.056856 0)
(9.17465 0.0640313 0)
(9.19211 0.0731204 0)
(9.21433 0.0838612 0)
(9.24243 0.09486 0)
(8.34485 0.0849312 0)
(8.42922 0.204271 0)
(8.54174 0.244504 0)
(8.6301 0.245428 0)
(8.69365 0.231431 0)
(8.74225 0.210561 0)
(8.77916 0.188692 0)
(8.80762 0.168684 0)
(8.83089 0.150991 0)
(8.85081 0.135489 0)
(8.86837 0.121939 0)
(8.88426 0.110043 0)
(8.89893 0.0995291 0)
(8.91266 0.0901884 0)
(8.92564 0.081856 0)
(8.93802 0.0744037 0)
(8.94988 0.0677354 0)
(8.96131 0.0617829 0)
(8.97236 0.0565027 0)
(8.98308 0.0518738 0)
(8.99352 0.0478978 0)
(9.00374 0.0445989 0)
(9.01382 0.042024 0)
(9.02383 0.0402435 0)
(9.03393 0.0393493 0)
(9.04431 0.0394513 0)
(9.05522 0.0406672 0)
(9.06705 0.0431067 0)
(9.08029 0.0468282 0)
(9.09563 0.0517995 0)
(9.11389 0.0577443 0)
(9.13622 0.0641338 0)
(9.16328 0.06965 0)
(8.34092 0.0657087 0)
(8.40292 0.165997 0)
(8.49283 0.207488 0)
(8.56915 0.214305 0)
(8.62682 0.206348 0)
(8.67246 0.190953 0)
(8.70839 0.1732 0)
(8.73681 0.156041 0)
(8.7603 0.140303 0)
(8.78052 0.126113 0)
(8.79837 0.11343 0)
(8.81453 0.102112 0)
(8.82944 0.0919898 0)
(8.84339 0.0829174 0)
(8.85658 0.0747724 0)
(8.86915 0.0674542 0)
(8.88121 0.0608829 0)
(8.89283 0.0549988 0)
(8.90408 0.0497616 0)
(8.91503 0.0451492 0)
(8.92573 0.0411579 0)
(8.93626 0.0378011 0)
(8.94669 0.0351089 0)
(8.95714 0.0331255 0)
(8.96775 0.0319055 0)
(8.97873 0.0315061 0)
(8.99033 0.0319733 0)
(9.00291 0.0333218 0)
(9.01689 0.0354939 0)
(9.03283 0.0383197 0)
(9.05133 0.0414084 0)
(9.07318 0.0441343 0)
(9.09866 0.0453536 0)
(8.33844 0.0515746 0)
(8.38457 0.135241 0)
(8.45647 0.175596 0)
(8.52205 0.186391 0)
(8.57413 0.18313 0)
(8.61668 0.172237 0)
(8.65128 0.157994 0)
(8.67934 0.143269 0)
(8.70284 0.1292 0)
(8.72322 0.11616 0)
(8.74131 0.104278 0)
(8.75772 0.0935335 0)
(8.77286 0.0838363 0)
(8.78703 0.0750851 0)
(8.80042 0.0671863 0)
(8.81318 0.060057 0)
(8.82543 0.0536289 0)
(8.83724 0.0478489 0)
(8.8487 0.0426795 0)
(8.85986 0.0380975 0)
(8.8708 0.0340934 0)
(8.88161 0.0306699 0)
(8.89236 0.0278395 0)
(8.90319 0.0256213 0)
(8.91423 0.0240345 0)
(8.92568 0.0230899 0)
(8.93778 0.0227737 0)
(8.95083 0.0230278 0)
(8.96519 0.0237152 0)
(8.98128 0.0245867 0)
(8.99951 0.0252096 0)
(9.02036 0.0249589 0)
(9.04389 0.0228881 0)
(8.33685 0.0409745 0)
(8.37166 0.110467 0)
(8.42931 0.14819 0)
(8.4854 0.16126 0)
(8.53218 0.161304 0)
(8.57162 0.153861 0)
(8.6047 0.142561 0)
(8.63222 0.130063 0)
(8.65565 0.117643 0)
(8.67616 0.105817 0)
(8.69448 0.0948178 0)
(8.71113 0.0847136 0)
(8.72652 0.0754824 0)
(8.74093 0.0670705 0)
(8.75455 0.0594175 0)
(8.76753 0.052464 0)
(8.77998 0.0461572 0)
(8.792 0.0404532 0)
(8.80366 0.035318 0)
(8.81505 0.0307273 0)
(8.82623 0.0266655 0)
(8.83729 0.0231241 0)
(8.84833 0.0200988 0)
(8.85947 0.0175852 0)
(8.87084 0.0155717 0)
(8.88263 0.0140302 0)
(8.89504 0.0129012 0)
(8.90833 0.0120768 0)
(8.92276 0.0113732 0)
(8.93864 0.0105077 0)
(8.95622 0.00905465 0)
(8.97577 0.00644649 0)
(8.99721 0.00192822 0)
(8.33582 0.0328576 0)
(8.36248 0.0903846 0)
(8.4089 0.124619 0)
(8.45678 0.138674 0)
(8.49863 0.140991 0)
(8.53505 0.136212 0)
(8.56646 0.127377 0)
(8.59327 0.116839 0)
(8.61648 0.105899 0)
(8.63701 0.0951718 0)
(8.65548 0.0849773 0)
(8.67236 0.0754635 0)
(8.688 0.0666701 0)
(8.70265 0.058586 0)
(8.71651 0.0511794 0)
(8.72973 0.0444098 0)
(8.74241 0.0382359 0)
(8.75466 0.0326195 0)
(8.76654 0.0275282 0)
(8.77815 0.0229349 0)
(8.78956 0.0188173 0)
(8.80086 0.0151561 0)
(8.81215 0.0119316 0)
(8.82353 0.00911875 0)
(8.83514 0.00668072 0)
(8.84713 0.00455991 0)
(8.85968 0.00266577 0)
(8.87299 0.00086043 0)
(8.88725 -0.00106051 0)
(8.90266 -0.00338232 0)
(8.91936 -0.00649402 0)
(8.93746 -0.0108811 0)
(8.95679 -0.0171278 0)
(8.33512 0.0265105 0)
(8.35587 0.0739766 0)
(8.39349 0.10433 0)
(8.43436 0.118396 0)
(8.4717 0.12211 0)
(8.5052 0.119254 0)
(8.53489 0.112357 0)
(8.56085 0.10346 0)
(8.58371 0.0938268 0)
(8.60419 0.0841212 0)
(8.62276 0.0747144 0)
(8.63983 0.0658041 0)
(8.65569 0.0574733 0)
(8.67059 0.0497434 0)
(8.68469 0.0426056 0)
(8.69814 0.0360359 0)
(8.71104 0.0300037 0)
(8.7235 0.0244773 0)
(8.7356 0.019426 0)
(8.74741 0.0148211 0)
(8.75902 0.0106349 0)
(8.77051 0.0068386 0)
(8.78198 0.00339947 0)
(8.79353 0.000276429 0)
(8.80527 -0.00258601 0)
(8.81734 -0.00526541 0)
(8.82988 -0.0078711 0)
(8.84302 -0.0105546 0)
(8.85692 -0.0135215 0)
(8.87167 -0.0170388 0)
(8.88734 -0.0214441 0)
(8.90394 -0.0271346 0)
(8.92124 -0.0345492 0)
(8.33464 0.0214446 0)
(8.35105 0.0604401 0)
(8.38179 0.0868075 0)
(8.41674 0.10017 0)
(8.45003 0.104578 0)
(8.48079 0.103036 0)
(8.50876 0.0976318 0)
(8.53378 0.0900977 0)
(8.55622 0.0816021 0)
(8.57655 0.0728152 0)
(8.59516 0.064133 0)
(8.61236 0.0557864 0)
(8.62841 0.0478922 0)
(8.64352 0.0404997 0)
(8.65785 0.0336206 0)
(8.67152 0.0272457 0)
(8.68464 0.0213536 0)
(8.6973 0.0159177 0)
(8.70959 0.0109085 0)
(8.72158 0.00629502 0)
(8.73336 0.00204406 0)
(8.745 -0.00188101 0)
(8.75659 -0.00552315 0)
(8.76823 -0.00893539 0)
(8.78001 -0.0121861 0)
(8.79205 -0.0153649 0)
(8.80444 -0.0185896 0)
(8.81729 -0.0220127 0)
(8.83068 -0.0258279 0)
(8.84467 -0.0302722 0)
(8.85924 -0.0356266 0)
(8.87436 -0.0422041 0)
(8.88979 -0.0503256 0)
(8.33431 0.0173202 0)
(8.34749 0.0491455 0)
(8.37287 0.0715993 0)
(8.40287 0.0837539 0)
(8.43258 0.0882954 0)
(8.46081 0.0875502 0)
(8.48711 0.0832195 0)
(8.51116 0.0767538 0)
(8.53309 0.0692013 0)
(8.55321 0.06121 0)
(8.57181 0.0531822 0)
(8.58911 0.0453652 0)
(8.60532 0.0378971 0)
(8.62062 0.0308458 0)
(8.63515 0.0242372 0)
(8.64902 0.0180724 0)
(8.66234 0.0123368 0)
(8.67518 0.00700716 0)
(8.68764 0.00205455 0)
(8.69978 -0.00255401 0)
(8.71168 -0.0068557 0)
(8.72342 -0.0108929 0)
(8.73508 -0.0147159 0)
(8.74673 -0.0183856 0)
(8.75847 -0.0219777 0)
(8.77036 -0.0255868 0)
(8.7825 -0.0293305 0)
(8.79495 -0.0333536 0)
(8.80774 -0.0378298 0)
(8.8209 -0.0429609 0)
(8.83437 -0.0489728 0)
(8.84807 -0.0561034 0)
(8.8618 -0.0645807 0)
(8.33406 0.0138972 0)
(8.34484 0.0396006 0)
(8.36603 0.0583072 0)
(8.39195 0.0689118 0)
(8.41852 0.073143 0)
(8.44448 0.0727621 0)
(8.4692 0.0691403 0)
(8.49228 0.0634764 0)
(8.51367 0.0566863 0)
(8.53355 0.049373 0)
(8.55208 0.041926 0)
(8.56944 0.0345949 0)
(8.58578 0.0275275 0)
(8.60125 0.0208035 0)
(8.61596 0.0144588 0)
(8.63001 0.00850199 0)
(8.6435 0.00292386 0)
(8.65651 -0.00229628 0)
(8.6691 -0.0071868 0)
(8.68136 -0.011782 0)
(8.69335 -0.0161217 0)
(8.70514 -0.0202528 0)
(8.7168 -0.0242299 0)
(8.72841 -0.0281185 0)
(8.74002 -0.0319967 0)
(8.7517 -0.0359584 0)
(8.76351 -0.0401157 0)
(8.77548 -0.0445996 0)
(8.78763 -0.0495604 0)
(8.79993 -0.0551637 0)
(8.81233 -0.0615854 0)
(8.82473 -0.0690001 0)
(8.83694 -0.0775641 0)
(8.33388 0.0110024 0)
(8.34285 0.0314196 0)
(8.36078 0.0465856 0)
(8.38336 0.0554172 0)
(8.40724 0.0589927 0)
(8.43117 0.0586186 0)
(8.45445 0.0553857 0)
(8.47659 0.0502731 0)
(8.49744 0.0440638 0)
(8.51705 0.037302 0)
(8.53549 0.0303527 0)
(8.55288 0.0234569 0)
(8.56933 0.0167641 0)
(8.58494 0.0103584 0)
(8.59981 0.00428119 0)
(8.61402 -0.00145518 0)
(8.62766 -0.00685729 0)
(8.6408 -0.0119446 0)
(8.65351 -0.0167456 0)
(8.66585 -0.021296 0)
(8.67788 -0.0256381 0)
(8.68968 -0.0298212 0)
(8.70129 -0.0339025 0)
(8.71279 -0.0379483 0)
(8.72421 -0.042036 0)
(8.73562 -0.0462549 0)
(8.74703 -0.0507073 0)
(8.75848 -0.0555081 0)
(8.76995 -0.0607827 0)
(8.78141 -0.0666632 0)
(8.79279 -0.0732822 0)
(8.804 -0.0807629 0)
(8.81487 -0.0892079 0)
(8.33375 0.00850765 0)
(8.34134 0.0242983 0)
(8.35674 0.0361358 0)
(8.37661 0.0430555 0)
(8.39823 0.0457081 0)
(8.42039 0.0450458 0)
(8.44238 0.0419255 0)
(8.46366 0.037138 0)
(8.484 0.03134 0)
(8.50333 0.025009 0)
(8.52167 0.0184753 0)
(8.53908 0.0119625 0)
(8.55561 0.00561279 0)
(8.57135 -0.000491253 0)
(8.58636 -0.00630817 0)
(8.60072 -0.0118246 0)
(8.61449 -0.0170463 0)
(8.62775 -0.0219927 0)
(8.64054 -0.0266928 0)
(8.65292 -0.0311833 0)
(8.66497 -0.0355077 0)
(8.67673 -0.0397163 0)
(8.68825 -0.0438662 0)
(8.69959 -0.0480227 0)
(8.71078 -0.0522591 0)
(8.72186 -0.0566578 0)
(8.73285 -0.061309 0)
(8.74375 -0.0663104 0)
(8.75455 -0.0717638 0)
(8.7652 -0.0777713 0)
(8.77565 -0.0844293 0)
(8.78579 -0.0918209 0)
(8.79548 -0.100009 0)
(8.33364 0.00631613 0)
(8.34021 0.0179943 0)
(8.35364 0.0266996 0)
(8.37135 0.0316243 0)
(8.39109 0.0331478 0)
(8.41175 0.0319555 0)
(8.43262 0.0287121 0)
(8.45314 0.0240486 0)
(8.47301 0.0185059 0)
(8.49209 0.0124919 0)
(8.51034 0.00629647 0)
(8.52776 0.000118912 0)
(8.54437 -0.00591169 0)
(8.56023 -0.0117196 0)
(8.57537 -0.0172671 0)
(8.58985 -0.0225429 0)
(8.60373 -0.0275544 0)
(8.61707 -0.0323226 0)
(8.62992 -0.0368779 0)
(8.64233 -0.0412583 0)
(8.65435 -0.045508 0)
(8.66603 -0.0496776 0)
(8.67742 -0.0538233 0)
(8.68856 -0.0580075 0)
(8.69948 -0.0622981 0)
(8.7102 -0.0667691 0)
(8.72073 -0.0714984 0)
(8.73108 -0.076567 0)
(8.74122 -0.0820553 0)
(8.75111 -0.0880401 0)
(8.76068 -0.0945892 0)
(8.76987 -0.101755 0)
(8.77856 -0.109573 0)
(8.33357 0.00435208 0)
(8.33935 0.0123108 0)
(8.35129 0.0180517 0)
(8.3673 0.0209314 0)
(8.38552 0.0211658 0)
(8.40495 0.0192435 0)
(8.42489 0.0156744 0)
(8.44477 0.0109554 0)
(8.46424 0.00552248 0)
(8.48312 -0.000286075 0)
(8.50131 -0.00622502 0)
(8.51876 -0.0121244 0)
(8.53545 -0.0178739 0)
(8.55142 -0.0234092 0)
(8.56669 -0.0287002 0)
(8.58129 -0.0337406 0)
(8.59528 -0.0385415 0)
(8.60869 -0.0431262 0)
(8.62157 -0.047527 0)
(8.63398 -0.0517827 0)
(8.64595 -0.0559381 0)
(8.65753 -0.0600427 0)
(8.66876 -0.0641506 0)
(8.67967 -0.06832 0)
(8.69029 -0.0726126 0)
(8.70063 -0.0770929 0)
(8.71071 -0.081827 0)
(8.72051 -0.0868803 0)
(8.73002 -0.0923149 0)
(8.7392 -0.0981865 0)
(8.74799 -0.10454 0)
(8.75633 -0.111407 0)
(8.76414 -0.1188 0)
(8.33351 0.00255574 0)
(8.33871 0.00708691 0)
(8.34953 0.00999483 0)
(8.36425 0.0107956 0)
(8.38128 0.00961342 0)
(8.39974 0.00679737 0)
(8.41895 0.00273394 0)
(8.43832 -0.00219112 0)
(8.4575 -0.00763413 0)
(8.47624 -0.0133236 0)
(8.4944 -0.0190608 0)
(8.5119 -0.0247084 0)
(8.52869 -0.030179 0)
(8.54478 -0.0354245 0)
(8.56017 -0.0404259 0)
(8.57488 -0.045185 0)
(8.58895 -0.0497191 0)
(8.60241 -0.0540556 0)
(8.61531 -0.0582299 0)
(8.62769 -0.0622829 0)
(8.63958 -0.0662599 0)
(8.65103 -0.0702095 0)
(8.66206 -0.0741834 0)
(8.67272 -0.0782356 0)
(8.68302 -0.0824215 0)
(8.69298 -0.0867969 0)
(8.70259 -0.0914168 0)
(8.71186 -0.0963332 0)
(8.72077 -0.101593 0)
(8.72928 -0.107236 0)
(8.73736 -0.11329 0)
(8.74496 -0.119769 0)
(8.75201 -0.126677 0)
(8.33347 0.000872555 0)
(8.33826 0.00217959 0)
(8.34827 0.00234782 0)
(8.36204 0.00103847 0)
(8.3782 -0.00166801 0)
(8.39596 -0.00552042 0)
(8.41463 -0.0102292 0)
(8.43367 -0.0155026 0)
(8.45267 -0.0210793 0)
(8.47137 -0.0267521 0)
(8.48957 -0.0323699 0)
(8.50717 -0.0378308 0)
(8.52411 -0.0430734 0)
(8.54035 -0.0480681 0)
(8.55587 -0.0528095 0)
(8.57071 -0.0573094 0)
(8.58487 -0.0615921 0)
(8.59839 -0.0656902 0)
(8.61129 -0.0696425 0)
(8.62363 -0.0734915 0)
(8.63543 -0.0772828 0)
(8.64673 -0.0810642 0)
(8.65757 -0.0848845 0)
(8.66796 -0.0887932 0)
(8.67793 -0.0928395 0)
(8.6875 -0.0970712 0)
(8.69666 -0.101534 0)
(8.70542 -0.106267 0)
(8.71376 -0.111307 0)
(8.72167 -0.116679 0)
(8.7291 -0.1224 0)
(8.73604 -0.128473 0)
(8.74242 -0.134892 0)
(8.33344 -0.000736908 0)
(8.33796 -0.00252966 0)
(8.34742 -0.00505325 0)
(8.36056 -0.00851059 0)
(8.37615 -0.0128338 0)
(8.39346 -0.0178367 0)
(8.41182 -0.0233029 0)
(8.43069 -0.0290182 0)
(8.44965 -0.034794 0)
(8.46838 -0.0404833 0)
(8.4867 -0.0459836 0)
(8.50446 -0.0512313 0)
(8.52156 -0.0561948 0)
(8.53796 -0.0608681 0)
(8.55364 -0.0652635 0)
(8.5686 -0.0694066 0)
(8.58284 -0.0733318 0)
(8.5964 -0.0770794 0)
(8.6093 -0.0806931 0)
(8.62158 -0.0842187 0)
(8.63327 -0.087703 0)
(8.64441 -0.0911932 0)
(8.65502 -0.0947358 0)
(8.66513 -0.0983765 0)
(8.67477 -0.102159 0)
(8.68394 -0.106124 0)
(8.69267 -0.110308 0)
(8.70094 -0.114744 0)
(8.70875 -0.119456 0)
(8.71609 -0.124461 0)
(8.72294 -0.129768 0)
(8.72929 -0.135372 0)
(8.7351 -0.141263 0)
(8.33343 -0.00231354 0)
(8.33779 -0.0071563 0)
(8.34695 -0.012372 0)
(8.35976 -0.0180366 0)
(8.37507 -0.0240777 0)
(8.39219 -0.0303544 0)
(8.4105 -0.0367113 0)
(8.42941 -0.0430021 0)
(8.44849 -0.0491043 0)
(8.46743 -0.0549286 0)
(8.48598 -0.0604197 0)
(8.50399 -0.0655519 0)
(8.52134 -0.070324 0)
(8.53797 -0.0747533 0)
(8.55385 -0.0788704 0)
(8.56896 -0.0827148 0)
(8.58331 -0.0863317 0)
(8.59693 -0.089769 0)
(8.60983 -0.0930762 0)
(8.62205 -0.0963024 0)
(8.63363 -0.0994961 0)
(8.6446 -0.102704 0)
(8.65498 -0.105972 0)
(8.66482 -0.109341 0)
(8.67412 -0.112851 0)
(8.68291 -0.116538 0)
(8.6912 -0.120431 0)
(8.69901 -0.124555 0)
(8.70632 -0.128928 0)
(8.71313 -0.133561 0)
(8.71945 -0.138455 0)
(8.72526 -0.143602 0)
(8.73053 -0.148989 0)
(8.33342 -0.00390181 0)
(8.33774 -0.0118165 0)
(8.34683 -0.0197678 0)
(8.35958 -0.0277088 0)
(8.37489 -0.0355455 0)
(8.3921 -0.0431618 0)
(8.41056 -0.0504476 0)
(8.4297 -0.057315 0)
(8.44907 -0.0637039 0)
(8.46832 -0.0695843 0)
(8.4872 -0.0749531 0)
(8.50552 -0.0798298 0)
(8.52317 -0.0842501 0)
(8.54007 -0.0882616 0)
(8.55616 -0.0919189 0)
(8.57144 -0.09528 0)
(8.58591 -0.098404 0)
(8.59958 -0.101349 0)
(8.61248 -0.104172 0)
(8.62465 -0.106927 0)
(8.63611 -0.109663 0)
(8.6469 -0.112428 0)
(8.65705 -0.115265 0)
(8.6666 -0.118214 0)
(8.67557 -0.121311 0)
(8.68399 -0.124586 0)
(8.69186 -0.128063 0)
(8.69922 -0.131761 0)
(8.70605 -0.135694 0)
(8.71238 -0.139867 0)
(8.71821 -0.144278 0)
(8.72353 -0.148918 0)
(8.72835 -0.15377 0)
(8.33343 -0.00553947 0)
(8.33782 -0.0166285 0)
(8.34707 -0.0274298 0)
(8.36006 -0.0377799 0)
(8.3757 -0.0475651 0)
(8.39332 -0.0566935 0)
(8.41226 -0.0650983 0)
(8.43193 -0.0727452 0)
(8.45184 -0.07963 0)
(8.47163 -0.0857745 0)
(8.49102 -0.0912214 0)
(8.50982 -0.0960296 0)
(8.52789 -0.100269 0)
(8.54515 -0.104014 0)
(8.56153 -0.107344 0)
(8.57703 -0.110334 0)
(8.59165 -0.11306 0)
(8.6054 -0.115591 0)
(8.61831 -0.117993 0)
(8.63042 -0.120325 0)
(8.64176 -0.122641 0)
(8.65237 -0.124992 0)
(8.66229 -0.12742 0)
(8.67155 -0.129964 0)
(8.68018 -0.132657 0)
(8.68822 -0.135526 0)
(8.69569 -0.138593 0)
(8.70261 -0.141872 0)
(8.70899 -0.145374 0)
(8.71485 -0.149099 0)
(8.7202 -0.153044 0)
(8.72505 -0.157199 0)
(8.7294 -0.161545 0)
(8.33345 -0.00727264 0)
(8.33802 -0.0217154 0)
(8.34765 -0.0355129 0)
(8.36116 -0.0483655 0)
(8.37741 -0.0601221 0)
(8.3957 -0.0707029 0)
(8.41534 -0.0800822 0)
(8.43572 -0.0882889 0)
(8.45634 -0.0953912 0)
(8.4768 -0.101481 0)
(8.49682 -0.106666 0)
(8.5162 -0.111058 0)
(8.53477 -0.114771 0)
(8.55245 -0.117919 0)
(8.56918 -0.120605 0)
(8.58495 -0.122929 0)
(8.59976 -0.124981 0)
(8.61362 -0.126841 0)
(8.62656 -0.128583 0)
(8.63863 -0.130272 0)
(8.64986 -0.131965 0)
(8.66031 -0.133711 0)
(8.67 -0.135553 0)
(8.67898 -0.137529 0)
(8.68729 -0.139669 0)
(8.69497 -0.141996 0)
(8.70204 -0.144529 0)
(8.70854 -0.147281 0)
(8.71448 -0.150256 0)
(8.7199 -0.153457 0)
(8.72481 -0.156876 0)
(8.72924 -0.160505 0)
(8.73319 -0.164325 0)
(8.33348 -0.00915834 0)
(8.33839 -0.0272622 0)
(8.34872 -0.0443606 0)
(8.36317 -0.0600371 0)
(8.38051 -0.0741296 0)
(8.39997 -0.0865787 0)
(8.4208 -0.0973884 0)
(8.44234 -0.106628 0)
(8.46404 -0.114414 0)
(8.48549 -0.120886 0)
(8.50639 -0.126201 0)
(8.52652 -0.130517 0)
(8.54573 -0.133992 0)
(8.56393 -0.136776 0)
(8.58108 -0.139007 0)
(8.59715 -0.14081 0)
(8.61216 -0.142298 0)
(8.62613 -0.14357 0)
(8.6391 -0.144712 0)
(8.65111 -0.1458 0)
(8.66222 -0.146896 0)
(8.67247 -0.148056 0)
(8.68192 -0.149323 0)
(8.69061 -0.150736 0)
(8.69858 -0.152325 0)
(8.70588 -0.154111 0)
(8.71255 -0.156111 0)
(8.71861 -0.158335 0)
(8.72412 -0.160787 0)
(8.72908 -0.163467 0)
(8.73353 -0.166366 0)
(8.73751 -0.169475 0)
(8.741 -0.172774 0)
(8.33353 -0.0112568 0)
(8.33888 -0.0333843 0)
(8.35014 -0.0539735 0)
(8.36579 -0.0724238 0)
(8.38445 -0.0885524 0)
(8.40528 -0.102353 0)
(8.4275 -0.113923 0)
(8.45039 -0.123444 0)
(8.47337 -0.131143 0)
(8.49601 -0.137256 0)
(8.51799 -0.142012 0)
(8.53907 -0.145632 0)
(8.55911 -0.148321 0)
(8.578 -0.150261 0)
(8.5957 -0.151619 0)
(8.6122 -0.152538 0)
(8.62751 -0.153145 0)
(8.64168 -0.15355 0)
(8.65474 -0.153845 0)
(8.66676 -0.154111 0)
(8.67779 -0.154413 0)
(8.68788 -0.154807 0)
(8.69711 -0.155337 0)
(8.70552 -0.156042 0)
(8.71317 -0.156949 0)
(8.72011 -0.158078 0)
(8.72639 -0.159446 0)
(8.73205 -0.16106 0)
(8.73712 -0.162923 0)
(8.74166 -0.165033 0)
(8.7457 -0.167383 0)
(8.74926 -0.169964 0)
(8.75239 -0.172754 0)
(8.33361 -0.0136824 0)
(8.33976 -0.040555 0)
(8.35261 -0.0654521 0)
(8.37033 -0.0876501 0)
(8.39123 -0.106955 0)
(8.41431 -0.123337 0)
(8.43868 -0.136875 0)
(8.46352 -0.147778 0)
(8.48822 -0.15633 0)
(8.51236 -0.16284 0)
(8.53562 -0.167618 0)
(8.55777 -0.170963 0)
(8.57867 -0.173149 0)
(8.59825 -0.174424 0)
(8.61649 -0.175004 0)
(8.63338 -0.175075 0)
(8.64895 -0.174797 0)
(8.66326 -0.174303 0)
(8.67637 -0.173703 0)
(8.68833 -0.173089 0)
(8.69923 -0.172536 0)
(8.70913 -0.172102 0)
(8.71809 -0.171834 0)
(8.72619 -0.171771 0)
(8.73348 -0.171938 0)
(8.74002 -0.172356 0)
(8.74588 -0.173038 0)
(8.75109 -0.173989 0)
(8.75571 -0.175212 0)
(8.75978 -0.176703 0)
(8.76333 -0.178452 0)
(8.76642 -0.180449 0)
(8.76905 -0.182671 0)
(8.33367 -0.0164965 0)
(8.3406 -0.0485446 0)
(8.35508 -0.0774511 0)
(8.37485 -0.102321 0)
(8.39799 -0.123177 0)
(8.42346 -0.140263 0)
(8.45027 -0.153902 0)
(8.47749 -0.1645 0)
(8.50443 -0.172479 0)
(8.5306 -0.178233 0)
(8.55565 -0.182131 0)
(8.57935 -0.184512 0)
(8.60156 -0.185679 0)
(8.62221 -0.185898 0)
(8.6413 -0.185404 0)
(8.65883 -0.184396 0)
(8.67487 -0.183047 0)
(8.68949 -0.181499 0)
(8.70277 -0.179872 0)
(8.71478 -0.178262 0)
(8.72563 -0.17675 0)
(8.73539 -0.175398 0)
(8.74414 -0.174254 0)
(8.75196 -0.173357 0)
(8.75893 -0.172734 0)
(8.76512 -0.172404 0)
(8.77058 -0.17238 0)
(8.77538 -0.172667 0)
(8.77957 -0.173265 0)
(8.78321 -0.174172 0)
(8.78635 -0.175377 0)
(8.78903 -0.176871 0)
(8.79131 -0.178625 0)
(8.33392 -0.020084 0)
(8.3429 -0.0594399 0)
(8.36101 -0.0952143 0)
(8.38497 -0.126184 0)
(8.41216 -0.152124 0)
(8.4413 -0.17306 0)
(8.47133 -0.189289 0)
(8.5013 -0.201362 0)
(8.53057 -0.209898 0)
(8.55871 -0.215498 0)
(8.58542 -0.218718 0)
(8.61049 -0.220059 0)
(8.63381 -0.219954 0)
(8.65536 -0.218768 0)
(8.67514 -0.216806 0)
(8.69319 -0.214321 0)
(8.70958 -0.211517 0)
(8.72441 -0.208557 0)
(8.73775 -0.205575 0)
(8.74973 -0.202673 0)
(8.76043 -0.199931 0)
(8.76995 -0.197411 0)
(8.77839 -0.195159 0)
(8.78583 -0.193211 0)
(8.79237 -0.191588 0)
(8.79807 -0.190307 0)
(8.80302 -0.189377 0)
(8.80727 -0.188802 0)
(8.81088 -0.18858 0)
(8.81393 -0.188705 0)
(8.81646 -0.189167 0)
(8.81852 -0.189954 0)
(8.82013 -0.191034 0)
(8.33388 -0.024178 0)
(8.3437 -0.0697623 0)
(8.36424 -0.108566 0)
(8.39162 -0.140325 0)
(8.42294 -0.166097 0)
(8.45669 -0.186532 0)
(8.49137 -0.202169 0)
(8.52572 -0.213642 0)
(8.55892 -0.221556 0)
(8.59046 -0.226466 0)
(8.62001 -0.228896 0)
(8.64738 -0.229332 0)
(8.67251 -0.228207 0)
(8.69541 -0.225903 0)
(8.71615 -0.222749 0)
(8.73483 -0.219025 0)
(8.75156 -0.214963 0)
(8.76649 -0.210751 0)
(8.77975 -0.206542 0)
(8.79147 -0.202454 0)
(8.80179 -0.19858 0)
(8.81082 -0.194989 0)
(8.81869 -0.191731 0)
(8.8255 -0.188842 0)
(8.83135 -0.186345 0)
(8.83632 -0.184256 0)
(8.84051 -0.182582 0)
(8.84398 -0.181325 0)
(8.84681 -0.180483 0)
(8.84907 -0.18005 0)
(8.85082 -0.180014 0)
(8.85213 -0.180366 0)
(8.85307 -0.181064 0)
(8.33499 -0.0311116 0)
(8.35144 -0.0921495 0)
(8.38071 -0.145327 0)
(8.41562 -0.188516 0)
(8.4527 -0.222061 0)
(8.49099 -0.246758 0)
(8.52932 -0.263907 0)
(8.56658 -0.274968 0)
(8.60212 -0.281208 0)
(8.63552 -0.283688 0)
(8.66651 -0.2833 0)
(8.69494 -0.280778 0)
(8.72079 -0.276707 0)
(8.74413 -0.271558 0)
(8.76507 -0.265706 0)
(8.78375 -0.259447 0)
(8.80033 -0.253015 0)
(8.81498 -0.246593 0)
(8.82788 -0.24032 0)
(8.8392 -0.234305 0)
(8.84907 -0.228625 0)
(8.85766 -0.223338 0)
(8.86509 -0.218483 0)
(8.87148 -0.214088 0)
(8.87693 -0.210166 0)
(8.88154 -0.206728 0)
(8.8854 -0.203775 0)
(8.88857 -0.201308 0)
(8.89115 -0.199323 0)
(8.89318 -0.197817 0)
(8.89474 -0.196782 0)
(8.89589 -0.196211 0)
(8.89668 -0.196059 0)
(8.33404 -0.0361452 0)
(8.35 -0.0984476 0)
(8.38414 -0.147026 0)
(8.42719 -0.186592 0)
(8.47362 -0.219112 0)
(8.52097 -0.244314 0)
(8.56712 -0.262634 0)
(8.61084 -0.274954 0)
(8.65177 -0.282113 0)
(8.68982 -0.284971 0)
(8.72502 -0.284404 0)
(8.75748 -0.281218 0)
(8.78739 -0.276114 0)
(8.8149 -0.269687 0)
(8.84018 -0.262425 0)
(8.86339 -0.254716 0)
(8.88465 -0.246862 0)
(8.90411 -0.239094 0)
(8.9219 -0.231582 0)
(8.93814 -0.224447 0)
(8.95294 -0.217774 0)
(8.96642 -0.211617 0)
(8.97867 -0.206008 0)
(8.98979 -0.200964 0)
(8.99987 -0.196487 0)
(9.00899 -0.192576 0)
(9.01723 -0.189224 0)
(9.02466 -0.186422 0)
(9.03134 -0.184166 0)
(9.03734 -0.182453 0)
(9.04276 -0.18129 0)
(9.04767 -0.180681 0)
(9.05217 -0.180598 0)
(8.33961 -0.0603322 0)
(8.37717 -0.169356 0)
(8.42662 -0.24759 0)
(8.47671 -0.300629 0)
(8.52944 -0.33556 0)
(8.5863 -0.356746 0)
(8.64569 -0.368266 0)
(8.70628 -0.373201 0)
(8.76713 -0.373494 0)
(8.82712 -0.370463 0)
(8.88524 -0.365044 0)
(8.94074 -0.357903 0)
(8.99306 -0.349534 0)
(9.04185 -0.340325 0)
(9.08692 -0.330588 0)
(9.12823 -0.320584 0)
(9.16583 -0.310527 0)
(9.19987 -0.300598 0)
(9.23052 -0.290941 0)
(9.25802 -0.281669 0)
(9.28259 -0.272868 0)
(9.30448 -0.264601 0)
(9.32393 -0.256909 0)
(9.34114 -0.249818 0)
(9.35632 -0.243339 0)
(9.36966 -0.237476 0)
(9.38133 -0.23223 0)
(9.39147 -0.227599 0)
(9.40022 -0.223594 0)
(9.40767 -0.220225 0)
(9.41398 -0.217558 0)
(9.41923 -0.215602 0)
(9.42361 -0.214549 0)
(8.33761 -0.0464052 0)
(8.39361 -0.120625 0)
(8.49404 -0.184465 0)
(8.60905 -0.246155 0)
(8.73117 -0.299202 0)
(8.85488 -0.340437 0)
(8.97326 -0.370571 0)
(9.08217 -0.390476 0)
(9.17938 -0.401287 0)
(9.26366 -0.404572 0)
(9.33474 -0.401941 0)
(9.39304 -0.394846 0)
(9.43943 -0.384545 0)
(9.47501 -0.372084 0)
(9.50101 -0.358307 0)
(9.51867 -0.343873 0)
(9.52918 -0.329287 0)
(9.53362 -0.314923 0)
(9.53297 -0.301051 0)
(9.5281 -0.287855 0)
(9.51975 -0.275454 0)
(9.50856 -0.263916 0)
(9.49505 -0.253268 0)
(9.47968 -0.243512 0)
(9.46281 -0.234627 0)
(9.44474 -0.226578 0)
(9.42569 -0.219322 0)
(9.40584 -0.212817 0)
(9.38531 -0.207031 0)
(9.36414 -0.201946 0)
(9.34246 -0.197671 0)
(9.31997 -0.194169 0)
(9.29739 -0.192498 0)
(8.40923 -0.221192 0)
(8.63501 -0.428131 0)
(8.83338 -0.522424 0)
(8.97739 -0.583124 0)
(9.07136 -0.616029 0)
(9.11428 -0.62673 0)
(9.11043 -0.622785 0)
(9.0692 -0.608244 0)
(8.99943 -0.585921 0)
(8.90857 -0.558366 0)
(8.80308 -0.527629 0)
(8.68834 -0.49529 0)
(8.56853 -0.462577 0)
(8.44687 -0.430409 0)
(8.32572 -0.399445 0)
(8.20681 -0.370127 0)
(8.09131 -0.342726 0)
(7.97998 -0.317381 0)
(7.87327 -0.294134 0)
(7.77141 -0.272957 0)
(7.67443 -0.253774 0)
(7.58228 -0.236477 0)
(7.49478 -0.220938 0)
(7.41173 -0.20702 0)
(7.3329 -0.194575 0)
(7.25801 -0.183457 0)
(7.18678 -0.17351 0)
(7.11892 -0.164586 0)
(7.05412 -0.156504 0)
(6.99192 -0.149099 0)
(6.93194 -0.14227 0)
(6.87301 -0.135117 0)
(6.81559 -0.131377 0)
(8.13711 -0.207118 0)
(7.84786 -0.387978 0)
(7.38577 -0.439354 0)
(6.86052 -0.440024 0)
(6.36107 -0.40876 0)
(5.89029 -0.359829 0)
(5.45081 -0.305497 0)
(5.05001 -0.252148 0)
(4.689 -0.203001 0)
(4.36581 -0.159675 0)
(4.07812 -0.122622 0)
(3.82309 -0.0916288 0)
(3.59756 -0.0661657 0)
(3.39838 -0.045554 0)
(3.22255 -0.0290783 0)
(3.06725 -0.0160602 0)
(2.92995 -0.00589179 0)
(2.80833 0.00195298 0)
(2.70034 0.00791854 0)
(2.60418 0.0123742 0)
(2.51827 0.0156238 0)
(2.44121 0.0179154 0)
(2.3718 0.0194519 0)
(2.30901 0.0203994 0)
(2.25194 0.0208999 0)
(2.19984 0.0210762 0)
(2.15205 0.0210626 0)
(2.10811 0.0209937 0)
(2.06745 0.0211154 0)
(2.03027 0.021764 0)
(1.99554 0.023288 0)
(1.96553 0.0285883 0)
(1.93798 0.0230488 0)
(1.2167 0.167409 0)
(1.87112 0.561942 0)
(2.72589 0.800182 0)
(3.41071 0.801075 0)
(3.85877 0.612636 0)