/*--------------------------------*- C++ -*----------------------------------*\
| =========                 |                                                 |
| \\      /  F ield         | OpenFOAM: The Open Source CFD Toolbox           |
|  \\    /   O peration     | Version:  2.1.1                                 |
|   \\  /    A nd           | Web:      www.OpenFOAM.org                      |
|    \\/     M anipulation  |                                                 |
\*---------------------------------------------------------------------------*/
FoamFile
{
    version     2.0;
    format      ascii;
    class       volScalarField;
    location    "0.09";
    object      nuSgs;
}
// * * * * * * * * * * * * * * * * * * * * * * * * * * * * * * * * * * * * * //

dimensions      [0 2 -1 0 0 0 0];

internalField   nonuniform List<scalar> 
6820
(
0.000556015
0.000457359
0.000367972
0.000305794
0.000268415
0.000242594
0.000223524
0.000208878
0.000196993
0.000186959
0.000178261
0.000170564
0.000163643
0.000157339
0.000151535
0.00014614
0.000141085
0.000136313
0.000131777
0.000127437
0.00012326
0.000119215
0.000115276
0.000111417
0.000107614
0.000103845
0.000100089
9.63244e-05
9.2529e-05
8.86928e-05
8.47762e-05
8.0689e-05
7.63082e-05
0.000103513
0.000170706
0.000223715
0.000240076
0.000235283
0.000224868
0.00021311
0.000201757
0.000191454
0.00018222
0.000173936
0.000166469
0.000159696
0.000153512
0.000147833
0.000142589
0.00013772
0.000133178
0.000128921
0.000124915
0.00012113
0.000117541
0.000114125
0.000110864
0.000107741
0.000104741
0.000101851
9.90544e-05
9.63516e-05
9.36804e-05
9.11628e-05
8.83826e-05
8.66347e-05
3.67719e-05
2.84549e-05
4.57008e-05
8.24779e-05
0.0001082
0.000123863
0.000132344
0.000136236
0.000137367
0.000136813
0.000135218
0.00013298
0.000130351
0.000127498
0.00012453
0.000121517
0.00011851
0.000115541
0.00011263
0.000109792
0.000107037
0.000104369
0.000101793
9.93098e-05
9.69202e-05
9.46246e-05
9.2423e-05
9.03142e-05
8.82999e-05
8.63685e-05
8.45385e-05
8.27361e-05
8.12055e-05
2.07365e-05
2.86625e-05
2.6512e-05
1.49827e-05
3.60288e-06
1.4122e-05
2.60789e-05
3.60271e-05
4.407e-05
5.04801e-05
5.55319e-05
5.94703e-05
6.24973e-05
6.47726e-05
6.64332e-05
6.75921e-05
6.8343e-05
6.87632e-05
6.89171e-05
6.88582e-05
6.86312e-05
6.82739e-05
6.78182e-05
6.72915e-05
6.67176e-05
6.61172e-05
6.55093e-05
6.49102e-05
6.43374e-05
6.38017e-05
6.33288e-05
6.29402e-05
6.27468e-05
1.44252e-05
1.75585e-05
2.25807e-05
2.42811e-05
2.3949e-05
2.19481e-05
1.90174e-05
1.56971e-05
1.22227e-05
8.74674e-06
5.37891e-06
2.20389e-06
9.88283e-07
3.66644e-06
6.19646e-06
8.50423e-06
1.05939e-05
1.24786e-05
1.41751e-05
1.57017e-05
1.70778e-05
1.8323e-05
1.94568e-05
2.04984e-05
2.14669e-05
2.23812e-05
2.326e-05
2.41222e-05
2.49877e-05
2.58776e-05
2.68159e-05
2.78489e-05
2.9003e-05
1.09286e-05
1.24685e-05
1.37821e-05
1.42987e-05
1.50981e-05
1.57527e-05
1.6143e-05
1.63594e-05
1.64039e-05
1.62806e-05
1.60127e-05
1.56239e-05
1.51356e-05
1.45629e-05
1.39249e-05
1.32388e-05
1.25194e-05
1.17785e-05
1.1025e-05
1.02654e-05
9.50371e-06
8.74193e-06
7.98016e-06
7.21682e-06
6.44879e-06
5.67144e-06
4.87865e-06
4.06272e-06
3.21441e-06
2.32165e-06
1.37762e-06
4.35326e-07
9.47689e-07
8.25776e-06
9.40096e-06
1.01997e-05
9.99199e-06
9.80401e-06
9.63163e-06
9.45634e-06
9.37916e-06
9.38805e-06
9.43816e-06
9.50199e-06
9.561e-06
9.60402e-06
9.62801e-06
9.62984e-06
9.6081e-06
9.56272e-06
9.49454e-06
9.40483e-06
9.29502e-06
9.16657e-06
9.02081e-06
8.85883e-06
8.68145e-06
8.48912e-06
8.28191e-06
8.05941e-06
7.82073e-06
7.56437e-06
7.28829e-06
6.99069e-06
6.67255e-06
6.33867e-06
6.37942e-06
7.38505e-06
8.16649e-06
8.01925e-06
7.70403e-06
7.36164e-06
6.98164e-06
6.65453e-06
6.39888e-06
6.19411e-06
6.02753e-06
5.88997e-06
5.77242e-06
5.66817e-06
5.5728e-06
5.48297e-06
5.39598e-06
5.30973e-06
5.2226e-06
5.13338e-06
5.04117e-06
4.94531e-06
4.84533e-06
4.74095e-06
4.63206e-06
4.51874e-06
4.40132e-06
4.28054e-06
4.15768e-06
4.0356e-06
3.91858e-06
3.81995e-06
3.7501e-06
5.02478e-06
5.83947e-06
6.49132e-06
6.47099e-06
6.29581e-06
6.08325e-06
5.79528e-06
5.50311e-06
5.24468e-06
5.01619e-06
4.81285e-06
4.63111e-06
4.46608e-06
4.31347e-06
4.17024e-06
4.03397e-06
3.90269e-06
3.7748e-06
3.64897e-06
3.52405e-06
3.39904e-06
3.27303e-06
3.14525e-06
3.01505e-06
2.88198e-06
2.74587e-06
2.60697e-06
2.46633e-06
2.32613e-06
2.19103e-06
2.06853e-06
1.97455e-06
1.92374e-06
4.02532e-06
4.69338e-06
5.25871e-06
5.31134e-06
5.19873e-06
5.04359e-06
4.82124e-06
4.58522e-06
4.37238e-06
4.18152e-06
4.00799e-06
3.84949e-06
3.70283e-06
3.56495e-06
3.43368e-06
3.30736e-06
3.18461e-06
3.06425e-06
2.94527e-06
2.82676e-06
2.70793e-06
2.5881e-06
2.46674e-06
2.34348e-06
2.21823e-06
2.09132e-06
1.96375e-06
1.83763e-06
1.71671e-06
1.60761e-06
1.52023e-06
1.46964e-06
1.46905e-06
3.27207e-06
3.82685e-06
4.31789e-06
4.40749e-06
4.33964e-06
4.23026e-06
4.06148e-06
3.86866e-06
3.6856e-06
3.51625e-06
3.35908e-06
3.21389e-06
3.07918e-06
2.95277e-06
2.83285e-06
2.71796e-06
2.60678e-06
2.49818e-06
2.39123e-06
2.28516e-06
2.17934e-06
2.07333e-06
1.9669e-06
1.8601e-06
1.75341e-06
1.64792e-06
1.54567e-06
1.45003e-06
1.3663e-06
1.30214e-06
1.26729e-06
1.27214e-06
1.32328e-06
2.69186e-06
3.15786e-06
3.59356e-06
3.71407e-06
3.68809e-06
3.61385e-06
3.48173e-06
3.31855e-06
3.15631e-06
3.00291e-06
2.85859e-06
2.72394e-06
2.5983e-06
2.48011e-06
2.36793e-06
2.26059e-06
2.15704e-06
2.05638e-06
1.95789e-06
1.86101e-06
1.76535e-06
1.67075e-06
1.57735e-06
1.4857e-06
1.3969e-06
1.31288e-06
1.23662e-06
1.17252e-06
1.12646e-06
1.10536e-06
1.11602e-06
1.16249e-06
1.24573e-06
2.23501e-06
2.63376e-06
3.02882e-06
3.17079e-06
3.17671e-06
3.12958e-06
3.02801e-06
2.89284e-06
2.75189e-06
2.61451e-06
2.48235e-06
2.3569e-06
2.23855e-06
2.12665e-06
2.02034e-06
1.91886e-06
1.82146e-06
1.72749e-06
1.63644e-06
1.54797e-06
1.46197e-06
1.37862e-06
1.29847e-06
1.22258e-06
1.15269e-06
1.09137e-06
1.04218e-06
1.00953e-06
9.98279e-07
1.01265e-06
1.05539e-06
1.12579e-06
1.22247e-06
1.86786e-06
2.21671e-06
2.58208e-06
2.74103e-06
2.77468e-06
2.75164e-06
2.67562e-06
2.56364e-06
2.44003e-06
2.31552e-06
2.19335e-06
2.07586e-06
1.96421e-06
1.85838e-06
1.75792e-06
1.66236e-06
1.57122e-06
1.48411e-06
1.40076e-06
1.32112e-06
1.24538e-06
1.17409e-06
1.10822e-06
1.04925e-06
9.99314e-07
9.61133e-07
9.37916e-07
9.32906e-07
9.48805e-07
9.8691e-07
1.04723e-06
1.12711e-06
1.22511e-06
1.56691e-06
1.88016e-06
2.2249e-06
2.39829e-06
2.4554e-06
2.45265e-06
2.3975e-06
2.30521e-06
2.19732e-06
2.08504e-06
1.97267e-06
1.86309e-06
1.75803e-06
1.65803e-06
1.56314e-06
1.47324e-06
1.38821e-06
1.30793e-06
1.23244e-06
1.16196e-06
1.097e-06
1.03836e-06
9.8729e-07
9.45405e-07
9.14716e-07
8.97429e-07
8.95657e-07
9.10986e-07
9.44179e-07
9.94782e-07
1.06173e-06
1.14209e-06
1.23497e-06
1.3154e-06
1.60505e-06
1.93652e-06
2.1229e-06
2.20062e-06
2.21626e-06
2.17964e-06
2.10495e-06
2.01132e-06
1.91007e-06
1.80645e-06
1.70396e-06
1.60491e-06
1.51042e-06
1.42097e-06
1.33681e-06
1.25811e-06
1.18503e-06
1.11783e-06
1.05697e-06
1.00313e-06
9.57242e-07
9.20511e-07
8.94328e-07
8.80141e-07
8.79247e-07
8.92557e-07
9.20367e-07
9.62348e-07
1.01737e-06
1.08419e-06
1.16019e-06
1.24496e-06
1.10118e-06
1.3776e-06
1.70212e-06
1.90085e-06
1.99712e-06
2.02964e-06
2.00953e-06
1.95047e-06
1.86982e-06
1.77892e-06
1.68376e-06
1.58836e-06
1.49551e-06
1.40677e-06
1.32303e-06
1.24485e-06
1.17268e-06
1.1069e-06
1.04797e-06
9.96464e-07
9.53084e-07
9.1867e-07
8.94142e-07
8.80397e-07
8.78189e-07
8.87977e-07
9.09831e-07
9.43359e-07
9.87805e-07
1.04193e-06
1.1046e-06
1.17359e-06
1.24888e-06
9.15304e-07
1.18793e-06
1.51103e-06
1.72187e-06
1.83516e-06
1.88351e-06
1.87871e-06
1.83416e-06
1.76585e-06
1.68498e-06
1.59808e-06
1.50968e-06
1.42297e-06
1.33997e-06
1.26191e-06
1.18969e-06
1.12396e-06
1.06528e-06
1.01418e-06
9.71213e-07
9.36962e-07
9.12006e-07
8.9686e-07
8.91901e-07
8.97298e-07
9.12949e-07
9.38471e-07
9.73193e-07
1.01626e-06
1.06653e-06
1.12305e-06
1.18397e-06
1.24949e-06
7.51184e-07
1.02916e-06
1.35573e-06
1.57865e-06
1.70779e-06
1.77116e-06
1.78078e-06
1.74979e-06
1.6932e-06
1.622e-06
1.54318e-06
1.46171e-06
1.38113e-06
1.30382e-06
1.23135e-06
1.16481e-06
1.105e-06
1.05256e-06
1.00801e-06
9.718e-07
9.44298e-07
9.25788e-07
9.16423e-07
9.16196e-07
9.2492e-07
9.422e-07
9.6747e-07
9.99993e-07
1.03896e-06
1.08336e-06
1.13241e-06
1.18457e-06
1.24016e-06
6.04228e-07
8.97043e-07
1.23118e-06
1.46614e-06
1.6101e-06
1.68777e-06
1.71111e-06
1.69303e-06
1.64773e-06
1.58606e-06
1.5153e-06
1.44077e-06
1.36634e-06
1.29467e-06
1.22758e-06
1.16633e-06
1.11184e-06
1.06472e-06
1.02543e-06
9.9425e-07
9.71361e-07
9.5679e-07
9.50431e-07
9.52028e-07
9.61186e-07
9.77391e-07
1.00003e-06
1.0284e-06
1.06178e-06
1.0993e-06
1.14037e-06
1.1837e-06
1.22969e-06
4.72052e-07
7.89765e-07
1.1344e-06
1.38106e-06
1.53884e-06
1.63008e-06
1.66647e-06
1.66062e-06
1.62612e-06
1.57355e-06
1.51045e-06
1.44241e-06
1.37355e-06
1.30677e-06
1.24408e-06
1.18686e-06
1.13606e-06
1.0923e-06
1.05596e-06
1.02721e-06
1.00607e-06
9.92402e-07
9.85948e-07
9.8634e-07
9.93121e-07
1.00575e-06
1.02364e-06
1.04616e-06
1.07268e-06
1.1025e-06
1.13511e-06
1.16941e-06
1.2059e-06
3.56099e-07
7.08055e-07
1.06412e-06
1.32168e-06
1.49217e-06
1.5962e-06
1.64502e-06
1.65089e-06
1.62682e-06
1.58324e-06
1.52781e-06
1.46628e-06
1.40298e-06
1.34099e-06
1.28244e-06
1.22879e-06
1.181e-06
1.13965e-06
1.10504e-06
1.07727e-06
1.05624e-06
1.04173e-06
1.03342e-06
1.0309e-06
1.03369e-06
1.04131e-06
1.05323e-06
1.06891e-06
1.08784e-06
1.10944e-06
1.13334e-06
1.1587e-06
1.18591e-06
2.67049e-07
6.5508e-07
1.02053e-06
1.28745e-06
1.4693e-06
1.58513e-06
1.64545e-06
1.66207e-06
1.64745e-06
1.61178e-06
1.56276e-06
1.50634e-06
1.44698e-06
1.38792e-06
1.33144e-06
1.27907e-06
1.23181e-06
1.19027e-06
1.15474e-06
1.12526e-06
1.1017e-06
1.08384e-06
1.07132e-06
1.06375e-06
1.06071e-06
1.06177e-06
1.06645e-06
1.07433e-06
1.08499e-06
1.09796e-06
1.11296e-06
1.12924e-06
1.1473e-06
2.34246e-07
6.35606e-07
1.00496e-06
1.27904e-06
1.47086e-06
1.59765e-06
1.66904e-06
1.69621e-06
1.69117e-06
1.66384e-06
1.62185e-06
1.57119e-06
1.5164e-06
1.46079e-06
1.40668e-06
1.35567e-06
1.30877e-06
1.26659e-06
1.22941e-06
1.19728e-06
1.17012e-06
1.14769e-06
1.12972e-06
1.11588e-06
1.1058e-06
1.09913e-06
1.09552e-06
1.09464e-06
1.09619e-06
1.09982e-06
1.10538e-06
1.11234e-06
1.12108e-06
2.82914e-07
6.54037e-07
1.01942e-06
1.29776e-06
1.49757e-06
1.63363e-06
1.71418e-06
1.74966e-06
1.75158e-06
1.72963e-06
1.69151e-06
1.6433e-06
1.58971e-06
1.53417e-06
1.47915e-06
1.42631e-06
1.37676e-06
1.33113e-06
1.28974e-06
1.25268e-06
1.21984e-06
1.19106e-06
1.16608e-06
1.14461e-06
1.12639e-06
1.11113e-06
1.09857e-06
1.08845e-06
1.08059e-06
1.07473e-06
1.07079e-06
1.06825e-06
1.06769e-06
3.92313e-07
7.12321e-07
1.06637e-06
1.3464e-06
1.55326e-06
1.69877e-06
1.78957e-06
1.83516e-06
1.8464e-06
1.83255e-06
1.80103e-06
1.75779e-06
1.70752e-06
1.65368e-06
1.5988e-06
1.54466e-06
1.49245e-06
1.44291e-06
1.39648e-06
1.35334e-06
1.31351e-06
1.27691e-06
1.24338e-06
1.21275e-06
1.18483e-06
1.15943e-06
1.13639e-06
1.11557e-06
1.09688e-06
1.08018e-06
1.06549e-06
1.05261e-06
1.04183e-06
5.38128e-07
8.1058e-07
1.14868e-06
1.42725e-06
1.63783e-06
1.78854e-06
1.88415e-06
1.93336e-06
1.94689e-06
1.93402e-06
1.90231e-06
1.85791e-06
1.80561e-06
1.74896e-06
1.69055e-06
1.63217e-06
1.57502e-06
1.51984e-06
1.46707e-06
1.41692e-06
1.36942e-06
1.32454e-06
1.28216e-06
1.24219e-06
1.20448e-06
1.16895e-06
1.1355e-06
1.1041e-06
1.07472e-06
1.04731e-06
1.02197e-06
9.98419e-07
9.77296e-07
7.12602e-07
9.47495e-07
1.26923e-06
1.54693e-06
1.76445e-06
1.92635e-06
2.03468e-06
2.09634e-06
2.12083e-06
2.11665e-06
2.09097e-06
2.04984e-06
1.9982e-06
1.93987e-06
1.87771e-06
1.81384e-06
1.74974e-06
1.68641e-06
1.62451e-06
1.56441e-06
1.50631e-06
1.45028e-06
1.39633e-06
1.3444e-06
1.29445e-06
1.24644e-06
1.20035e-06
1.1562e-06
1.11402e-06
1.07388e-06
1.03594e-06
1.00027e-06
9.67e-07
9.18882e-07
1.12804e-06
1.43484e-06
1.70629e-06
1.91982e-06
2.0776e-06
2.18093e-06
2.2372e-06
2.25665e-06
2.24816e-06
2.21884e-06
2.17451e-06
2.11982e-06
2.05824e-06
1.99239e-06
1.92415e-06
1.85491e-06
1.7856e-06
1.71686e-06
1.64911e-06
1.58259e-06
1.51747e-06
1.45381e-06
1.39166e-06
1.33103e-06
1.27198e-06
1.21453e-06
1.15877e-06
1.10479e-06
1.05267e-06
1.00261e-06
9.54469e-07
9.08928e-07
1.16043e-06
1.34876e-06
1.64722e-06
1.92643e-06
2.15944e-06
2.34223e-06
2.46958e-06
2.54497e-06
2.57725e-06
2.57519e-06
2.54658e-06
2.49828e-06
2.43604e-06
2.36435e-06
2.28659e-06
2.2053e-06
2.12226e-06
2.03874e-06
1.95556e-06
1.87326e-06
1.79219e-06
1.71252e-06
1.63435e-06
1.55775e-06
1.48274e-06
1.40936e-06
1.33766e-06
1.2677e-06
1.19959e-06
1.13347e-06
1.0695e-06
1.00796e-06
9.48526e-07
1.45796e-06
1.64278e-06
1.93032e-06
2.18611e-06
2.38843e-06
2.54143e-06
2.64497e-06
2.70492e-06
2.7299e-06
2.72666e-06
2.70049e-06
2.65611e-06
2.59768e-06
2.52865e-06
2.45186e-06
2.36963e-06
2.28378e-06
2.19575e-06
2.1066e-06
2.01713e-06
1.92792e-06
1.83935e-06
1.75171e-06
1.66518e-06
1.57991e-06
1.49599e-06
1.41354e-06
1.33264e-06
1.25341e-06
1.17594e-06
1.10039e-06
1.02669e-06
9.55135e-07
1.80301e-06
1.96763e-06
2.27637e-06
2.59254e-06
2.86964e-06
3.08689e-06
3.2308e-06
3.30686e-06
3.32922e-06
3.31078e-06
3.26201e-06
3.19156e-06
3.10619e-06
3.01081e-06
2.90893e-06
2.80306e-06
2.69497e-06
2.5859e-06
2.47673e-06
2.36805e-06
2.26029e-06
2.15373e-06
2.04859e-06
1.94501e-06
1.84308e-06
1.74292e-06
1.64461e-06
1.54827e-06
1.45404e-06
1.3621e-06
1.27257e-06
1.18589e-06
1.10106e-06
2.2913e-06
2.48747e-06
2.73939e-06
2.93143e-06
3.09085e-06
3.23723e-06
3.35838e-06
3.44602e-06
3.49885e-06
3.51694e-06
3.50232e-06
3.4594e-06
3.39337e-06
3.30923e-06
3.21145e-06
3.10388e-06
2.98962e-06
2.87111e-06
2.75023e-06
2.62837e-06
2.50655e-06
2.3855e-06
2.26572e-06
2.14756e-06
2.03126e-06
1.91698e-06
1.80487e-06
1.69505e-06
1.58768e-06
1.48295e-06
1.38107e-06
1.28233e-06
1.18644e-06
2.77571e-06
2.93828e-06
3.39837e-06
3.86743e-06
4.22377e-06
4.45031e-06
4.55767e-06
4.57743e-06
4.53988e-06
4.46355e-06
4.35986e-06
4.237e-06
4.10067e-06
3.95484e-06
3.80257e-06
3.64638e-06
3.48834e-06
3.33019e-06
3.17331e-06
3.01879e-06
2.86746e-06
2.71991e-06
2.57652e-06
2.43751e-06
2.30298e-06
2.17296e-06
2.04742e-06
1.92635e-06
1.80977e-06
1.69786e-06
1.59075e-06
1.48939e-06
1.39214e-06
3.82732e-06
3.97389e-06
3.94681e-06
3.93514e-06
4.09584e-06
4.35284e-06
4.58307e-06
4.73914e-06
4.81916e-06
4.83348e-06
4.79864e-06
4.73266e-06
4.65018e-06
4.56144e-06
4.47305e-06
4.38867e-06
4.30983e-06
4.23676e-06
4.16892e-06
4.10547e-06
4.04549e-06
3.98813e-06
3.93262e-06
3.87837e-06
3.82487e-06
3.77173e-06
3.71863e-06
3.66532e-06
3.61175e-06
3.55797e-06
3.50434e-06
3.45231e-06
3.40109e-06
4.30184e-06
4.94716e-06
5.98971e-06
6.51821e-06
6.67091e-06
6.67702e-06
6.68614e-06
6.80016e-06
7.04902e-06
7.40392e-06
7.819e-06
8.25295e-06
8.67399e-06
9.06067e-06
9.40067e-06
9.68833e-06
9.9225e-06
1.01049e-05
1.02388e-05
1.03287e-05
1.03789e-05
1.03943e-05
1.0379e-05
1.03371e-05
1.0272e-05
1.01869e-05
1.00842e-05
9.96606e-06
9.83414e-06
9.68959e-06
9.53434e-06
9.37042e-06
9.2e-06
7.50327e-06
5.8104e-06
4.70013e-06
6.33119e-06
9.05699e-06
1.17529e-05
1.40687e-05
1.59469e-05
1.73882e-05
1.84082e-05
1.9044e-05
1.93436e-05
1.93561e-05
1.91299e-05
1.87109e-05
1.81407e-05
1.74557e-05
1.66871e-05
1.58612e-05
1.49992e-05
1.41183e-05
1.3232e-05
1.23508e-05
1.14824e-05
1.06323e-05
9.8044e-06
9.00077e-06
8.22197e-06
7.46792e-06
6.73544e-06
6.02572e-06
5.32774e-06
4.65888e-06
8.57717e-06
1.47676e-05
1.88859e-05
2.12983e-05
2.23999e-05
2.19481e-05
2.01205e-05
1.73689e-05
1.41576e-05
1.10941e-05
9.14317e-06
9.3564e-06
1.15694e-05
1.4737e-05
1.81637e-05
2.15354e-05
2.47146e-05
2.76416e-05
3.02946e-05
3.26715e-05
3.47812e-05
3.66383e-05
3.82602e-05
3.96656e-05
4.08731e-05
4.19008e-05
4.27661e-05
4.34861e-05
4.40773e-05
4.45608e-05
4.49513e-05
4.53067e-05
4.56155e-05
3.46028e-05
3.7194e-05
4.66156e-05
6.17008e-05
7.73579e-05
9.27025e-05
0.000107039
0.000119666
0.000130397
0.000139279
0.000146424
0.000151995
0.000156177
0.000159156
0.000161104
0.00016218
0.000162524
0.000162257
0.000161487
0.000160303
0.000158782
0.000156989
0.000154979
0.000152796
0.000150479
0.000148058
0.000145559
0.000142999
0.000140398
0.00013776
0.000135086
0.000132468
0.000129913
0.000608419
0.000582491
0.000556898
0.000530485
0.000504549
0.000479405
0.000455092
0.000431874
0.000409931
0.000389314
0.000370037
0.000352081
0.000335397
0.000319915
0.000305556
0.000292235
0.000279866
0.000268365
0.000257655
0.000247659
0.000238309
0.000229544
0.000221305
0.000213542
0.000206208
0.000199263
0.000192669
0.00018639
0.000180388
0.000174642
0.000169023
0.000164069
0.000159553
6.79667e-05
5.80796e-05
5.14648e-05
5.20259e-05
5.86756e-05
6.78363e-05
7.54201e-05
7.99311e-05
8.19629e-05
8.2966e-05
8.4013e-05
8.5409e-05
8.68731e-05
8.80729e-05
8.90591e-05
9.0285e-05
9.20518e-05
9.33817e-05
9.22741e-05
8.76378e-05
7.98687e-05
6.99489e-05
5.89654e-05
4.78162e-05
3.72434e-05
2.78976e-05
2.05122e-05
1.62533e-05
1.60892e-05
1.88814e-05
2.25362e-05
2.58017e-05
2.81742e-05
2.95494e-05
2.99677e-05
2.9518e-05
2.86233e-05
2.84296e-05
3.02017e-05
3.33748e-05
3.67581e-05
4.17504e-05
4.64909e-05
5.3529e-05
6.12685e-05
5.84491e-05
4.73352e-05
3.47346e-05
2.40987e-05
1.57712e-05
8.9439e-06
2.51887e-06
6.02039e-06
1.94411e-05
3.53125e-05
4.5837e-05
4.65001e-05
4.04415e-05
3.3352e-05
2.7877e-05
2.38311e-05
2.05827e-05
1.78349e-05
1.54684e-05
1.34023e-05
1.15678e-05
9.91484e-06
8.41335e-06
7.04898e-06
5.81735e-06
4.71927e-06
3.75715e-06
2.93221e-06
2.24267e-06
1.683e-06
1.24408e-06
9.1433e-07
6.81311e-07
5.32434e-07
4.53623e-07
4.26611e-07
4.3009e-07
4.44829e-07
4.56664e-07
4.56641e-07
4.40617e-07
4.08795e-07
3.64646e-07
3.13616e-07
2.61005e-07
2.11991e-07
1.69383e-07
1.40396e-07
1.27336e-07
1.44892e-07
1.7179e-07
2.35067e-07
2.66803e-07
3.86197e-07
3.99277e-07
0.000109665
9.86254e-05
8.61866e-05
7.73536e-05
7.2652e-05
7.20979e-05
7.46685e-05
7.8744e-05
8.27313e-05
8.58407e-05
8.81282e-05
8.99639e-05
9.14658e-05
9.2498e-05
9.31358e-05
9.38187e-05
9.42377e-05
9.23297e-05
8.64918e-05
7.70999e-05
6.54808e-05
5.32138e-05
4.15211e-05
3.09686e-05
2.16456e-05
1.36636e-05
8.14557e-06
8.36805e-06
1.25967e-05
1.69988e-05
2.04575e-05
2.27149e-05
2.38605e-05
2.41699e-05
2.39382e-05
2.34182e-05
2.30587e-05
2.37279e-05
2.60729e-05
2.94276e-05
3.26209e-05
3.70956e-05
4.26701e-05
4.9155e-05
5.86344e-05
6.03454e-05
5.19256e-05
3.95398e-05
2.78604e-05
1.82751e-05
1.07905e-05
6.96752e-06
1.35921e-05
2.77906e-05
4.20146e-05
4.86145e-05
4.59422e-05
3.88235e-05
3.21555e-05
2.72569e-05
2.35466e-05
2.04926e-05
1.78794e-05
1.56054e-05
1.35926e-05
1.17795e-05
1.01258e-05
8.61028e-06
7.22491e-06
5.96917e-06
4.8463e-06
3.86018e-06
3.01303e-06
2.30378e-06
1.72732e-06
1.27485e-06
9.34908e-07
6.94816e-07
5.41857e-07
4.6177e-07
4.35473e-07
4.40386e-07
4.5641e-07
4.69044e-07
4.69281e-07
4.52914e-07
4.20042e-07
3.74034e-07
3.20452e-07
2.6497e-07
2.13676e-07
1.70816e-07
1.45303e-07
1.39523e-07
1.63986e-07
1.96142e-07
2.61258e-07
2.95045e-07
4.13361e-07
4.25619e-07
0.000106975
0.000107854
0.00010619
0.000102598
9.75946e-05
9.24946e-05
8.85971e-05
8.65524e-05
8.61978e-05
8.68653e-05
8.78627e-05
8.87913e-05
8.94948e-05
8.99574e-05
9.03427e-05
9.02257e-05
8.73416e-05
7.9773e-05
6.80757e-05
5.4263e-05
4.02582e-05
2.73489e-05
1.63578e-05
8.22778e-06
5.99356e-06
9.45832e-06
1.34722e-05
1.69419e-05
1.96737e-05
2.15363e-05
2.24597e-05
2.24991e-05
2.18533e-05
2.08179e-05
1.97127e-05
1.88643e-05
1.87193e-05
1.98377e-05
2.23529e-05
2.56323e-05
2.87531e-05
3.2584e-05
3.8254e-05
4.46098e-05
5.44703e-05
6.06159e-05
5.64971e-05
4.59331e-05
3.43054e-05
2.44316e-05
1.77461e-05
1.66316e-05
2.41472e-05
3.72712e-05
4.78533e-05
4.98303e-05
4.43632e-05
3.69028e-05
3.09301e-05
2.66281e-05
2.32587e-05
2.04136e-05
1.79425e-05
1.57607e-05
1.37984e-05
1.20046e-05
1.03496e-05
8.82009e-06
7.41361e-06
6.1333e-06
4.9848e-06
3.97366e-06
3.10327e-06
2.37336e-06
1.77924e-06
1.31206e-06
9.59993e-07
7.10226e-07
5.50251e-07
4.66326e-07
4.39282e-07
4.45322e-07
4.62991e-07
4.77035e-07
4.78158e-07
4.62051e-07
4.28784e-07
3.81769e-07
3.26771e-07
2.69969e-07
2.18328e-07
1.77324e-07
1.56796e-07
1.57871e-07
1.87371e-07
2.22933e-07
2.88731e-07
3.23369e-07
4.39204e-07
4.50867e-07
8.40423e-05
8.69645e-05
8.99281e-05
9.31718e-05
9.58482e-05
9.71548e-05
9.69809e-05
9.5884e-05
9.45831e-05
9.35075e-05
9.27019e-05
9.19794e-05
9.1075e-05
8.96802e-05
8.69944e-05
8.08068e-05
6.94251e-05
5.42414e-05
3.84126e-05
2.42369e-05
1.24591e-05
4.03092e-06
6.94168e-06
1.28652e-05
1.76103e-05
2.10677e-05
2.33328e-05
2.45732e-05
2.49852e-05
2.47276e-05
2.39054e-05
2.26122e-05
2.09772e-05
1.91902e-05
1.7518e-05
1.63247e-05
1.60664e-05
1.71053e-05
1.93432e-05
2.23056e-05
2.54e-05
2.89001e-05
3.41154e-05
4.02642e-05
4.92854e-05
5.85601e-05
5.97291e-05
5.28884e-05
4.29367e-05
3.39089e-05
2.84112e-05
2.88162e-05
3.62736e-05
4.64369e-05
5.17597e-05
4.90816e-05
4.18206e-05
3.48119e-05
2.97404e-05
2.60149e-05
2.29679e-05
2.03335e-05
1.80101e-05
1.59241e-05
1.40148e-05
1.22424e-05
1.05877e-05
9.04513e-06
7.61755e-06
6.3119e-06
5.13647e-06
4.0987e-06
3.20331e-06
2.45087e-06
1.83717e-06
1.35361e-06
9.88451e-07
7.28916e-07
5.62745e-07
4.76373e-07
4.49849e-07
4.57683e-07
4.77087e-07
4.92309e-07
4.93996e-07
4.77909e-07
4.44167e-07
3.96254e-07
3.40114e-07
2.82418e-07
2.31026e-07
1.92563e-07
1.77044e-07
1.83726e-07
2.16683e-07
2.5461e-07
3.20803e-07
3.56408e-07
4.70018e-07
4.81543e-07
4.09361e-05
4.49534e-05
4.93887e-05
5.45125e-05
6.01614e-05
6.58949e-05
7.11439e-05
7.54086e-05
7.84312e-05
8.01753e-05
8.06703e-05
7.98491e-05
7.73978e-05
7.24817e-05
6.34693e-05
4.95598e-05
3.30241e-05
1.80181e-05
7.90019e-06
4.36141e-06
6.21298e-06
9.46229e-06
1.28832e-05
1.59719e-05
1.85232e-05
2.05065e-05
2.19375e-05
2.28232e-05
2.31647e-05
2.29764e-05
2.22966e-05
2.11901e-05
1.97518e-05
1.81221e-05
1.65251e-05
1.5308e-05
1.49055e-05
1.56271e-05
1.74049e-05
1.99593e-05
2.29534e-05
2.62662e-05
3.07918e-05
3.64293e-05
4.39082e-05
5.40021e-05
5.998e-05
5.82886e-05
5.18217e-05
4.48833e-05
4.08073e-05
4.183e-05
4.75412e-05
5.28825e-05
5.24647e-05
4.63251e-05
3.87309e-05
3.2795e-05
2.86349e-05
2.54125e-05
2.26659e-05
2.02447e-05
1.80738e-05
1.60868e-05
1.42334e-05
1.24857e-05
1.0834e-05
9.27993e-06
7.83167e-06
6.50017e-06
5.29672e-06
4.23096e-06
3.30914e-06
2.53284e-06
1.89844e-06
1.39755e-06
1.01831e-06
7.47952e-07
5.7456e-07
4.85046e-07
4.58916e-07
4.68862e-07
4.90494e-07
5.07364e-07
5.09987e-07
4.94204e-07
4.60271e-07
4.11868e-07
3.55286e-07
2.97785e-07
2.48089e-07
2.13559e-07
2.03448e-07
2.1505e-07
2.50793e-07
2.9057e-07
3.5686e-07
3.93033e-07
5.03525e-07
5.14855e-07
3.21183e-06
5.70355e-06
8.56343e-06
1.20337e-05
1.61607e-05
2.08132e-05
2.57413e-05
3.05654e-05
3.47961e-05
3.78966e-05
3.93435e-05
3.86265e-05
3.51149e-05
2.80443e-05
1.73891e-05
5.31008e-06
5.71121e-06
1.18463e-05
1.34336e-05
1.21065e-05
1.03415e-05
9.96946e-06
1.1086e-05
1.28293e-05
1.46418e-05
1.63196e-05
1.7771e-05
1.89152e-05
1.96771e-05
2.00068e-05
1.98924e-05
1.93615e-05
1.84751e-05
1.73357e-05
1.61203e-05
1.51189e-05
1.47084e-05
1.51895e-05
1.65955e-05
1.87807e-05
2.15641e-05
2.46959e-05
2.85162e-05
3.33183e-05
3.91487e-05
4.78219e-05
5.64399e-05
5.98681e-05
5.80698e-05
5.42724e-05
5.18311e-05
5.25255e-05
5.49205e-05
5.4765e-05
4.97881e-05
4.22514e-05
3.5626e-05
3.09892e-05
2.76121e-05
2.48143e-05
2.23527e-05
2.01475e-05
1.8133e-05
1.62493e-05
1.44568e-05
1.27384e-05
1.10928e-05
9.52862e-06
8.05959e-06
6.70117e-06
5.46809e-06
4.37249e-06
3.4223e-06
2.6202e-06
1.96319e-06
1.44313e-06
1.04837e-06
7.66412e-07
5.85989e-07
4.9456e-07
4.70513e-07
4.83982e-07
5.08753e-07
5.27817e-07
5.31749e-07
5.16621e-07
4.82929e-07
4.34603e-07
3.78271e-07
3.21714e-07
2.74283e-07
2.43568e-07
2.37662e-07
2.52503e-07
2.89803e-07
3.30523e-07
3.96544e-07
4.3304e-07
5.40504e-07
5.51959e-07
8.07202e-06
8.09062e-06
8.17796e-06
8.18419e-06
8.08488e-06
7.8999e-06
7.6396e-06
7.35995e-06
7.16005e-06
7.06695e-06
7.00176e-06
7.06451e-06
8.09192e-06
1.10848e-05
1.51031e-05
1.82179e-05
1.89479e-05
1.7115e-05
1.37284e-05
1.02421e-05
7.95118e-06
7.57604e-06
8.71314e-06
1.04773e-05
1.23295e-05
1.40296e-05
1.54781e-05
1.66328e-05
1.7468e-05
1.79669e-05
1.81259e-05
1.79579e-05
1.74953e-05
1.6803e-05
1.60054e-05
1.53186e-05
1.50408e-05
1.54449e-05
1.66283e-05
1.85112e-05
2.09805e-05
2.38483e-05
2.70831e-05
3.09702e-05
3.5401e-05
4.15899e-05
4.98553e-05
5.64375e-05
5.8978e-05
5.86024e-05
5.7741e-05
5.73911e-05
5.60631e-05
5.16579e-05
4.46971e-05
3.78929e-05
3.29175e-05
2.94332e-05
2.66492e-05
2.42094e-05
2.20248e-05
2.00394e-05
1.81867e-05
1.64126e-05
1.46875e-05
1.30033e-05
1.13668e-05
9.79347e-06
8.30313e-06
6.91632e-06
5.65166e-06
4.52409e-06
3.54342e-06
2.71355e-06
2.03218e-06
1.49148e-06
1.07993e-06
7.85261e-07
5.96995e-07
5.03385e-07
4.81732e-07
4.99285e-07
5.27774e-07
5.49563e-07
5.55294e-07
5.41292e-07
5.08336e-07
4.60654e-07
4.05251e-07
3.50394e-07
3.05835e-07
2.78981e-07
2.7668e-07
2.94003e-07
3.32469e-07
3.73832e-07
4.39523e-07
4.76015e-07
5.80037e-07
5.91329e-07
5.06242e-06
5.56279e-06
6.32797e-06
7.28726e-06
8.41699e-06
9.68889e-06
1.10217e-05
1.23145e-05
1.35007e-05
1.45782e-05
1.55977e-05
1.66201e-05
1.76316e-05
1.83896e-05
1.84735e-05
1.75139e-05
1.55247e-05
1.29023e-05
1.02167e-05
8.01734e-06
6.83221e-06
6.98186e-06
8.15934e-06
9.78067e-06
1.14569e-05
1.29925e-05
1.42959e-05
1.53309e-05
1.60922e-05
1.65872e-05
1.68281e-05
1.68312e-05
1.66237e-05
1.6254e-05
1.58112e-05
1.54489e-05
1.53854e-05
1.58369e-05
1.69076e-05
1.85508e-05
2.06768e-05
2.32047e-05
2.59987e-05
2.91518e-05
3.25677e-05
3.65841e-05
4.24391e-05
4.90798e-05
5.38803e-05
5.59857e-05
5.62118e-05
5.48011e-05
5.10952e-05
4.52573e-05
3.90579e-05
3.41819e-05
3.07452e-05
2.80576e-05
2.57009e-05
2.35852e-05
2.16796e-05
1.99198e-05
1.82357e-05
1.65793e-05
1.49289e-05
1.32841e-05
1.16592e-05
1.00772e-05
8.56459e-06
7.14751e-06
5.84896e-06
4.68694e-06
3.67337e-06
2.81339e-06
2.10544e-06
1.54201e-06
1.11184e-06
8.0317e-07
6.06729e-07
5.11902e-07
4.94379e-07
5.17584e-07
5.50873e-07
5.76102e-07
5.84147e-07
5.71727e-07
5.39989e-07
4.93493e-07
4.39583e-07
3.86853e-07
3.45164e-07
3.21489e-07
3.2168e-07
3.4043e-07
3.79357e-07
4.20761e-07
4.85757e-07
5.21939e-07
6.22339e-07
6.33735e-07
2.63258e-06
3.00366e-06
3.57543e-06
4.29993e-06
5.18235e-06
6.23536e-06
7.43684e-06
8.73118e-06
1.00429e-05
1.12892e-05
1.23929e-05
1.32825e-05
1.38643e-05
1.40582e-05
1.38238e-05
1.31247e-05
1.20004e-05
1.05561e-05
8.98977e-06
7.62969e-06
6.89596e-06
7.05776e-06
7.97306e-06
9.27961e-06
1.06884e-05
1.20304e-05
1.3212e-05
1.41831e-05
1.49217e-05
1.54263e-05
1.57112e-05
1.58019e-05
1.57344e-05
1.55599e-05
1.53549e-05
1.5236e-05
1.53607e-05
1.58852e-05
1.68904e-05
1.83469e-05
2.01789e-05
2.23629e-05
2.48141e-05
2.74803e-05
3.02724e-05
3.30374e-05
3.64461e-05
4.09601e-05
4.53264e-05
4.80594e-05
4.86436e-05
4.69362e-05
4.31706e-05
3.85556e-05
3.44955e-05
3.14295e-05
2.89639e-05
2.67501e-05
2.47354e-05
2.2939e-05
2.13176e-05
1.97898e-05
1.82831e-05
1.67535e-05
1.51851e-05
1.35844e-05
1.19734e-05
1.03828e-05
8.8465e-06
7.39689e-06
6.06171e-06
4.8624e-06
3.81311e-06
2.92041e-06
2.1835e-06
1.59525e-06
1.14465e-06
8.20558e-07
6.15191e-07
5.19472e-07
5.07187e-07
5.37165e-07
5.76133e-07
6.05489e-07
6.16428e-07
6.06118e-07
5.76114e-07
5.3133e-07
4.79417e-07
4.2919e-07
3.90437e-07
3.69592e-07
3.71733e-07
3.91426e-07
4.30547e-07
4.71769e-07
5.36012e-07
5.71648e-07
6.68171e-07
6.79382e-07
2.07925e-06
2.43262e-06
2.91921e-06
3.49332e-06
4.1497e-06
4.89259e-06
5.71339e-06
6.59321e-06
7.50581e-06
8.41559e-06
9.27727e-06
1.00393e-05
1.06531e-05
1.10796e-05
1.12466e-05
1.10549e-05
1.04477e-05
9.48275e-06
8.35658e-06
7.3707e-06
6.85207e-06
6.99451e-06
7.72323e-06
8.79806e-06
9.99629e-06
1.11712e-05
1.2236e-05
1.31402e-05
1.38557e-05
1.43721e-05
1.46948e-05
1.48455e-05
1.48608e-05
1.47937e-05
1.47171e-05
1.47295e-05
1.49518e-05
1.54975e-05
1.64258e-05
1.77173e-05
1.93129e-05
2.11998e-05
2.33565e-05
2.56992e-05
2.81343e-05
3.03982e-05
3.25074e-05
3.49184e-05
3.75097e-05
3.94079e-05
3.98504e-05
3.86627e-05
3.63185e-05
3.37315e-05
3.14241e-05
2.93393e-05
2.73287e-05
2.5432e-05
2.37446e-05
2.22729e-05
2.09407e-05
1.96524e-05
1.8333e-05
1.69398e-05
1.54606e-05
1.39084e-05
1.23129e-05
1.07134e-05
9.15175e-06
7.66691e-06
6.29192e-06
5.05198e-06
3.96375e-06
3.03526e-06
2.26656e-06
1.65086e-06
1.1775e-06
8.3616e-07
6.21156e-07
5.25628e-07
5.20768e-07
5.5944e-07
6.05392e-07
6.39737e-07
6.54167e-07
6.46425e-07
6.1855e-07
5.75824e-07
5.26154e-07
4.78446e-07
4.42273e-07
4.23567e-07
4.26921e-07
4.46957e-07
4.85866e-07
5.26547e-07
5.89757e-07
6.24656e-07
7.17006e-07
7.28372e-07
1.93516e-06
2.29632e-06
2.75714e-06
3.28379e-06
3.86796e-06
4.5068e-06
5.18972e-06
5.9019e-06
6.62838e-06
7.35274e-06
8.05517e-06
8.71317e-06
9.29229e-06
9.72191e-06
9.91056e-06
9.79081e-06
9.35061e-06
8.65368e-06
7.84806e-06
7.15314e-06
6.80366e-06
6.94034e-06
7.52854e-06
8.41286e-06
9.42798e-06
1.04502e-05
1.13991e-05
1.22256e-05
1.29017e-05
1.34142e-05
1.37627e-05
1.3961e-05
1.40384e-05
1.40413e-05
1.40353e-05
1.41053e-05
1.43501e-05
1.4859e-05
1.56808e-05
1.68066e-05
1.81962e-05
1.98362e-05
2.1725e-05
2.38049e-05
2.59854e-05
2.80698e-05
2.98265e-05
3.13049e-05
3.26276e-05
3.35822e-05
3.38398e-05
3.33088e-05
3.22018e-05
3.08019e-05
2.92048e-05
2.7452e-05
2.56879e-05
2.40893e-05
2.27366e-05
2.15911e-05
2.05516e-05
1.95116e-05
1.83903e-05
1.7143e-05
1.57601e-05
1.42604e-05
1.2682e-05
1.10731e-05
9.4838e-06
7.96051e-06
6.54198e-06
5.25754e-06
4.12659e-06
3.15882e-06
2.3551e-06
1.70907e-06
1.2104e-06
8.49801e-07
6.2424e-07
5.29929e-07
5.34677e-07
5.83869e-07
6.38051e-07
6.78263e-07
6.96863e-07
6.92259e-07
6.67017e-07
6.26791e-07
5.79701e-07
5.34654e-07
5.00945e-07
4.84046e-07
4.88232e-07
5.08268e-07
5.46718e-07
5.86615e-07
6.48669e-07
6.82573e-07
7.70532e-07
7.81713e-07
1.85428e-06
2.20609e-06
2.63429e-06
3.11526e-06
3.64267e-06
4.21329e-06
4.81809e-06
5.4442e-06
6.07778e-06
6.70383e-06
7.30498e-06
7.85948e-06
8.33618e-06
8.68821e-06
8.86018e-06
8.8037e-06
8.50391e-06
8.00708e-06
7.43115e-06
6.94595e-06
6.72265e-06
6.86233e-06
7.35031e-06
8.08545e-06
8.94658e-06
9.83322e-06
1.0674e-05
1.14225e-05