/*--------------------------------*- C++ -*----------------------------------*\
| =========                 |                                                 |
| \\      /  F ield         | OpenFOAM: The Open Source CFD Toolbox           |
|  \\    /   O peration     | Version:  2.1.1                                 |
|   \\  /    A nd           | Web:      www.OpenFOAM.org                      |
|    \\/     M anipulation  |                                                 |
\*---------------------------------------------------------------------------*/
FoamFile
{
    version     2.0;
    format      ascii;
    class       volScalarField;
    location    "0.09";
    object      p;
}
// * * * * * * * * * * * * * * * * * * * * * * * * * * * * * * * * * * * * * //

dimensions      [0 2 -2 0 0 0 0];

internalField   nonuniform List<scalar> 
6820
(
9.07254
-8.76061
-11.7621
-11.9411
-12.1034
-12.0169
-11.9438
-11.9364
-11.9598
-11.9989
-12.045
-12.0925
-12.1388
-12.1825
-12.2227
-12.2589
-12.2905
-12.3171
-12.3383
-12.3538
-12.3634
-12.3667
-12.3637
-12.3545
-12.3392
-12.3181
-12.2919
-12.2614
-12.2287
-12.1935
-12.1658
-12.126
-12.147
2.39021
-8.58063
-11.4522
-11.744
-11.986
-11.9953
-11.9585
-11.9621
-11.9873
-12.0234
-12.0655
-12.1094
-12.1528
-12.1943
-12.2329
-12.268
-12.2988
-12.3249
-12.3458
-12.3612
-12.3707
-12.3741
-12.3713
-12.3622
-12.347
-12.3259
-12.2997
-12.269
-12.2356
-12.2002
-12.1695
-12.1345
-12.143
-0.326343
-7.15249
-10.4343
-11.1839
-11.6415
-11.8253
-11.8673
-11.9037
-11.9483
-11.997
-12.048
-12.0988
-12.1474
-12.1929
-12.2344
-12.2716
-12.304
-12.3314
-12.3533
-12.3696
-12.38
-12.3843
-12.3823
-12.3742
-12.3601
-12.3401
-12.3151
-12.2855
-12.253
-12.2179
-12.1847
-12.1459
-12.1166
-2.31364
-6.92743
-10.0156
-10.8671
-11.329
-11.5922
-11.7046
-11.7854
-11.8615
-11.9312
-11.9958
-12.0562
-12.1123
-12.164
-12.2111
-12.2533
-12.2904
-12.3222
-12.3485
-12.3691
-12.3839
-12.3927
-12.3956
-12.3925
-12.3838
-12.3697
-12.3508
-12.3279
-12.3022
-12.2744
-12.2467
-12.2172
-12.1876
-3.95148
-7.03044
-9.62693
-10.523
-11.0211
-11.3641
-11.5473
-11.6684
-11.77
-11.8574
-11.9349
-12.0056
-12.0699
-12.1285
-12.1817
-12.2296
-12.2722
-12.3094
-12.3411
-12.3673
-12.3879
-12.4031
-12.4128
-12.4174
-12.4171
-12.4123
-12.4039
-12.3925
-12.3795
-12.366
-12.3537
-12.3442
-12.3382
-5.1768
-7.21416
-9.37921
-10.3163
-10.8338
-11.2043
-11.4229
-11.5675
-11.686
-11.7872
-11.8755
-11.9547
-12.0267
-12.0921
-12.1514
-12.205
-12.2531
-12.2959
-12.3334
-12.3658
-12.3931
-12.4157
-12.4336
-12.4474
-12.4574
-12.4644
-12.4692
-12.4728
-12.4767
-12.4825
-12.4927
-12.5099
-12.54
-6.13054
-7.5037
-9.26535
-10.1656
-10.6711
-11.0504
-11.2997
-11.4704
-11.6077
-11.7233
-11.8226
-11.9103
-11.9892
-12.0606
-12.1253
-12.184
-12.2371
-12.2849
-12.3276
-12.3655
-12.3988
-12.4277
-12.4527
-12.4743
-12.4931
-12.5099
-12.5256
-12.5416
-12.5595
-12.5811
-12.6093
-12.6471
-12.7013
-6.87995
-7.81336
-9.21797
-10.0539
-10.5483
-10.9297
-11.1983
-11.3871
-11.5373
-11.6634
-11.7715
-11.8666
-11.9521
-12.0294
-12.0997
-12.1638
-12.2221
-12.2752
-12.3233
-12.3669
-12.4061
-12.4416
-12.4737
-12.503
-12.5303
-12.5565
-12.5826
-12.6101
-12.6405
-12.6758
-12.7188
-12.7723
-12.8419
-7.47598
-8.12086
-9.23226
-9.98837
-10.4607
-10.8311
-11.1068
-11.3079
-11.469
-11.6051
-11.7219
-11.8247
-11.9168
-12.0001
-12.076
-12.1453
-12.2088
-12.2671
-12.3205
-12.3696
-12.4147
-12.4565
-12.4954
-12.5321
-12.5675
-12.6024
-12.6381
-12.6759
-12.7175
-12.7646
-12.82
-12.8859
-12.9668
-7.95652
-8.41061
-9.28482
-9.95266
-10.3965
-10.7516
-11.0288
-11.2387
-11.4083
-11.5522
-11.6763
-11.7855
-11.8835
-11.9723
-12.0534
-12.1279
-12.1966
-12.26
-12.3188
-12.3734
-12.4244
-12.4725
-12.5181
-12.5621
-12.6053
-12.6486
-12.6934
-12.7408
-12.7925
-12.8502
-12.9161
-12.9922
-13.0818
-8.34848
-8.67493
-9.36185
-9.94298
-10.3549
-10.6913
-10.9639
-11.1775
-11.3526
-11.5024
-11.6326
-11.7479
-11.8515
-11.9458
-12.0322
-12.1118
-12.1856
-12.2542
-12.3183
-12.3784
-12.4353
-12.4894
-12.5415
-12.5924
-12.643
-12.6942
-12.7472
-12.8033
-12.8639
-12.9307
-13.0054
-13.0897
-13.186
-8.67152
-8.91148
-9.45252
-9.9525
-10.33
-10.6456
-10.9099
-11.1241
-11.3028
-11.4572
-11.5926
-11.7131
-11.822
-11.9213
-12.0127
-12.0973
-12.176
-12.2497
-12.319
-12.3845
-12.447
-12.507
-12.5654
-12.6229
-12.6805
-12.739
-12.7997
-12.8636
-12.9321
-13.0067
-13.0888
-13.1797
-13.2813
-8.94
-9.12035
-9.54871
-9.97592
-10.3188
-10.613
-10.8667
-11.0786
-11.2588
-11.4162
-11.5557
-11.6807
-11.7942
-11.8983
-11.9945
-12.0839
-12.1676
-12.2463
-12.3207
-12.3915
-12.4595
-12.5253
-12.5897
-12.6535
-12.7175
-12.7828
-12.8504
-12.9213
-12.9967
-13.0779
-13.1661
-13.2623
-13.368
-9.16446
-9.303
-9.64481
-10.0087
-10.3179
-10.5907
-10.8322
-11.0399
-11.2199
-11.3793
-11.5219
-11.6509
-11.7687
-11.8773
-11.9781
-12.0722
-12.1606
-12.2441
-12.3235
-12.3995
-12.4728
-12.544
-12.6141
-12.6838
-12.7539
-12.8253
-12.8991
-12.9762
-13.0576
-13.1444
-13.2376
-13.3381
-13.4469
-9.35278
-9.46143
-9.7369
-10.0468
-10.3245
-10.5767
-10.8055
-11.0076
-11.1862
-11.3465
-11.4915
-11.6238
-11.7454
-11.8581
-11.9632
-12.0618
-12.1548
-12.2431
-12.3273
-12.4082
-12.4866
-12.5631
-12.6386
-12.7137
-12.7894
-12.8664
-12.9457
-13.0282
-13.1147
-13.2062
-13.3035
-13.4072
-13.5183
-9.5108
-9.59773
-9.82237
-10.0871
-10.3361
-10.5688
-10.785
-10.9807
-11.157
-11.3174
-11.4642
-11.5992
-11.7243
-11.8409
-11.9501
-12.053
-12.1505
-12.2432
-12.3321
-12.4178
-12.501
-12.5825
-12.6629
-12.7431
-12.8238
-12.9058
-12.99
-13.0771
-13.1679
-13.2632
-13.3637
-13.4699
-13.5825
-9.64294
-9.71383
-9.8995
-10.127
-10.3503
-10.5653
-10.7694
-10.9583
-11.1318
-11.2918
-11.4398
-11.5772
-11.7054
-11.8256
-11.9387
-12.0457
-12.1474
-12.2446
-12.3379
-12.4281
-12.5159
-12.602
-12.6871
-12.7719
-12.8571
-12.9436
-13.032
-13.123
-13.2174
-13.3158
-13.4187
-13.5266
-13.6401
-9.7525
-9.81141
-9.96719
-10.1643
-10.3654
-10.5643
-10.7573
-10.9396
-11.11
-11.2692
-11.4181
-11.5576
-11.6887
-11.8122
-11.929
-12.0399
-12.1457
-12.247
-12.3446
-12.439
-12.5311
-12.6215
-12.7108
-12.7997
-12.889
-12.9793
-13.0713
-13.1656
-13.2628
-13.3635
-13.4681
-13.577
-13.6907
-9.84194
-9.89184
-10.0247
-10.1974
-10.3796
-10.5644
-10.7473
-10.9235
-11.0908
-11.2492
-11.3989
-11.5403
-11.674
-11.8008
-11.9211
-12.0358
-12.1455
-12.2508
-12.3524
-12.4509
-12.5469
-12.6412
-12.7344
-12.8271
-12.9199
-13.0135
-13.1085
-13.2055
-13.3049
-13.4073
-13.513
-13.6224
-13.7357
-9.91306
-9.95616
-10.0715
-10.2248
-10.3912
-10.5641
-10.7383
-10.9091
-11.0737
-11.2314
-11.3818
-11.525
-11.6613
-11.791
-11.9148
-12.0331
-12.1464
-12.2555
-12.3608
-12.463
-12.5628
-12.6606
-12.7572
-12.8531
-12.949
-13.0453
-13.1427
-13.2417
-13.3426
-13.446
-13.5522
-13.6614
-13.7739
-9.9671
-10.0051
-10.1072
-10.2453
-10.3991
-10.5621
-10.7292
-10.8954
-11.0579
-11.2151
-11.3665
-11.5116
-11.6505
-11.7833
-11.9104
-12.0322
-12.1492
-12.2619
-12.3708
-12.4766
-12.5797
-12.6808
-12.7804
-12.8792
-12.9776
-13.0762
-13.1756
-13.276
-13.378
-13.4819
-13.588
-13.6965
-13.8076
-10.0048
-10.0391
-10.1313
-10.258
-10.4019
-10.5572
-10.7187
-10.8816
-11.0426
-11.1999
-11.3525
-11.4996
-11.6411
-11.777
-11.9073
-12.0325
-12.1529
-12.269
-12.3812
-12.4901
-12.5962
-12.7001
-12.8023
-12.9034
-13.0039
-13.1042
-13.2048
-13.3061
-13.4085
-13.5123
-13.6177
-13.725
-13.8343
-10.0266
-10.0581
-10.1434
-10.2618
-10.3985
-10.5482
-10.706
-10.8668
-11.0273
-11.1854
-11.3398
-11.4894
-11.6339
-11.773
-11.9068
-12.0354
-12.1592
-12.2786
-12.394
-12.506
-12.6149
-12.7213
-12.8259
-12.9289
-13.031
-13.1326
-13.2341
-13.3358
-13.4382
-13.5414
-13.6458
-13.7514
-13.8585
-10.0324
-10.0621
-10.1428
-10.2557
-10.3877
-10.5341
-10.6898
-10.8499
-11.011
-11.1707
-11.3273
-11.4797
-11.6272
-11.7696
-11.9067
-12.0387
-12.1657
-12.2881
-12.4064
-12.5209
-12.6322
-12.7408
-12.847
-12.9515
-13.0547
-13.157
-13.2588
-13.3604
-13.4621
-13.5643
-13.667
-13.7705
-13.875
-10.0217
-10.0505
-10.1286
-10.2387
-10.3686
-10.5139
-10.6696
-10.8308
-10.994
-11.1564
-11.3163
-11.4724
-11.6237
-11.7699
-11.9108
-12.0463
-12.1767
-12.3023
-12.4234
-12.5405
-12.654
-12.7645
-12.8723
-12.9779
-13.0818
-13.1844
-13.2861
-13.3871
-13.4879
-13.5885
-13.6893
-13.7903
-13.8916
-9.9938
-10.0223
-10.0998
-10.2095
-10.3397
-10.486
-10.6437
-10.8075
-10.9738
-11.1399
-11.3037
-11.4637
-11.619
-11.7691
-11.9136
-12.0526
-12.1861
-12.3145
-12.4381
-12.5574
-12.6726
-12.7845
-12.8933
-12.9995
-13.1036
-13.206
-13.307
-13.4069
-13.5061
-13.6048
-13.7031
-13.8012
-13.8993
-9.94724
-9.97627
-10.0552
-10.1672
-10.3004
-10.4506
-10.6129
-10.7819
-10.9537
-11.1254
-11.2948
-11.4602
-11.6206
-11.7755
-11.9244
-12.0673
-12.2043
-12.3357
-12.4618
-12.5831
-12.7
-12.813
-12.9226
-13.0291
-13.1331
-13.2348
-13.3348
-13.4333
-13.5305
-13.6267
-13.7222
-13.8169
-13.9111
-9.88015
-9.91042
-9.99276
-10.1094
-10.248
-10.4042
-10.5728
-10.7483
-10.9266
-11.1046
-11.2801
-11.4513
-11.6171
-11.7768
-11.93
-12.0767
-12.217
-12.3512
-12.4796
-12.6026
-12.7207
-12.8344
-12.9442
-13.0505
-13.1538
-13.2545
-13.3529
-13.4493
-13.5441
-13.6375
-13.7298
-13.821
-13.9114
-9.79
-9.82254
-9.91099
-10.036
-10.1842
-10.3508
-10.5301
-10.7161
-10.9045
-11.0919
-11.276
-11.4549
-11.6275
-11.7932
-11.9515
-12.1025
-12.2464
-12.3834
-12.5139
-12.6385
-12.7576
-12.8717
-12.9814
-13.0871
-13.1893
-13.2883
-13.3847
-13.4787
-13.5706
-13.6607
-13.7492
-13.8362
-13.9218
-9.67317
-9.70868
-9.80526
-9.94083
-10.1002
-10.2784
-10.4693
-10.6668
-10.866
-11.0636
-11.257
-11.4444
-11.6245
-11.7966
-11.9605
-12.1161
-12.2636
-12.4034
-12.5361
-12.662
-12.7817
-12.8959
-13.0051
-13.1097
-13.2103
-13.3073
-13.4012
-13.4923
-13.5809
-13.6674
-13.7519
-13.8347
-13.9161
-9.52544
-9.56636
-9.67697
-9.83095
-10.0101
-10.2081
-10.4183
-10.6333
-10.8482
-11.0596
-11.2649
-11.4623
-11.6509
-11.8301
-11.9996
-12.1598
-12.3107
-12.4531
-12.5873
-12.7141
-12.8339
-12.9476
-13.0556
-13.1585
-13.2569
-13.3512
-13.4419
-13.5294
-13.6141
-13.6961
-13.7759
-13.8535
-13.9292
-9.33924
-9.38497
-9.50976
-9.68128
-9.87852
-10.0956
-10.3253
-10.5593
-10.7921
-11.0198
-11.2396
-11.4498
-11.6491
-11.8372
-12.014
-12.1798
-12.335
-12.4803
-12.6163
-12.7439
-12.8638
-12.9766
-13.0832
-13.1841
-13.2799
-13.3712
-13.4584
-13.5421
-13.6225
-13.7002
-13.7753
-13.8481
-13.9191
-9.10938
-9.16988
-9.32774
-9.53774
-9.77128
-10.0214
-10.2801
-10.5389
-10.7924
-11.0375
-11.2718
-11.4938
-11.7028
-11.8986
-12.0814
-12.2515
-12.4098
-12.557
-12.6938
-12.8212
-12.94
-13.0511
-13.1551
-13.2528
-13.3449
-13.432
-13.5146
-13.5932
-13.6681
-13.7399
-13.8089
-13.8752
-13.9392
-8.81344
-8.87637
-9.05437
-9.29129
-9.55584
-9.84148
-10.1367
-10.4297
-10.7141
-10.9862
-11.2433
-11.4841
-11.7081
-11.9155
-12.1071
-12.2836
-12.4461
-12.5958
-12.7337
-12.861
-12.9788
-13.0879
-13.1894
-13.2839
-13.3723
-13.4553
-13.5334
-13.6071
-13.677
-13.7435
-13.8069
-13.8678
-13.9265
-8.46188
-8.5803
-8.84416
-9.15271
-9.46887
-9.79566
-10.1244
-10.4444
-10.7514
-11.0425
-11.3157
-11.5699
-11.8048
-12.0208
-12.2187
-12.3995
-12.5645
-12.715
-12.8522
-12.9776
-13.0922
-13.1973
-13.2939
-13.383
-13.4653
-13.5417
-13.6128
-13.6791
-13.7412
-13.7996
-13.8547
-13.907
-13.9568
-7.94139
-8.03362
-8.33533
-8.71198
-9.1094
-9.52028
-9.92411
-10.307
-10.6654
-10.9974
-11.3018
-11.5793
-11.8312
-12.0592
-12.2652
-12.4511
-12.6189
-12.7703
-12.9072
-13.031
-13.1433
-13.2453
-13.3383
-13.4232
-13.501
-13.5725
-13.6383
-13.699
-13.7551
-13.8072
-13.8556
-13.9012
-13.9446
-7.45473
-7.77838
-8.24987
-8.67431
-9.09162
-9.529
-9.95818
-10.3656
-10.7498
-11.107
-11.4343
-11.7312
-11.9986
-12.238
-12.4514
-12.641
-12.8094
-12.9587
-13.0911
-13.2088
-13.3136
-13.4071
-13.4908
-13.5659
-13.6335
-13.6944
-13.7495
-13.7993
-13.8442
-13.8845
-13.9205
-13.953
-13.982
-6.15879
-6.4823
-7.2593
-7.96474
-8.6087
-9.2244
-9.77977
-10.2745
-10.7188
-11.1167
-11.4713
-11.7869
-12.0675
-12.3162
-12.5362
-12.7305
-12.9016
-13.0521
-13.1844
-13.3006
-13.4028
-13.4927
-13.572
-13.6419
-13.7036
-13.7581
-13.8062
-13.8482
-13.8844
-13.9149
-13.9389
-13.9577
-13.9668
-6.15157
-6.8985
-7.50848
-7.98323
-8.59249
-9.23671
-9.83923
-10.4025
-10.9204
-11.3825
-11.7877
-12.1397
-12.4426
-12.7013
-12.921
-13.1069
-13.2638
-13.3959
-13.5071
-13.6008
-13.6799
-13.7467
-13.8034
-13.8517
-13.8931
-13.9287
-13.9593
-13.9853
-14.0066
-14.0222
-14.0294
-14.0252
-13.9956
0.090919
-4.5182
-6.30779
-7.16607
-8.17733
-9.06411
-9.77676
-10.3981
-10.9445
-11.4164
-11.8228
-12.172
-12.4704
-12.7242
-12.9393
-13.1211
-13.2742
-13.4032
-13.5116
-13.6028
-13.6797
-13.7446
-13.7995
-13.8464
-13.8865
-13.9212
-13.9515
-13.9782
-14.0021
-14.023
-14.0434
-14.0584
-14.0792
-11.9745
-12.3244
-12.9782
-13.4188
-13.7613
-14.0592
-14.3806
-14.7519
-15.1927
-15.7319
-16.4125
-17.2745
-18.3548
-19.6574
-21.0911
-22.4476
-23.5045
-24.2566
-25.0227
-26.2597
-28.2355
-30.8606
-33.7804
-36.5518
-38.7509
-40.0371
-40.192
-39.1215
-36.8594
-33.5599
-29.4765
-24.9292
-20.2582
-15.7715
-11.7007
-8.16741
-5.16341
-2.56949
-0.259461
1.72574
3.14842
3.66037
2.99242
0.760898
-3.65943
-10.5041
-19.1407
-28.2807
-36.5834
-42.9971
-46.7987
-47.6383
-45.4123
-40.4445
-33.5472
-25.9817
-19.0274
-13.3742
-9.07028
-5.88399
-3.56327
-1.90149
-0.73411
0.067906
0.603312
0.946528
1.15317
1.2646
1.31133
1.31562
1.29338
1.25566
1.20975
1.16018
1.10953
1.05908
1.00928
0.960173
0.911648
0.86357
0.815833
0.768372
0.721149
0.674151
0.627379
0.58087
0.534711
0.489083
0.444199
0.400381
0.357743
0.316673
0.276642
0.238641
0.199991
0.165515
0.123971
0.0981535
0.0394826
0.0495804
-12.0418
-12.2142
-12.7458
-13.1844
-13.5479
-13.8856
-14.2509
-14.6685
-15.1567
-15.7471
-16.4857
-17.4135
-18.5626
-19.9305
-21.4156
-22.7867
-23.8041
-24.4696
-25.1214
-26.2063
-27.9584
-30.2778
-32.8381
-35.2428
-37.1207
-38.1754
-38.2166
-37.1639
-35.0484
-32.0068
-28.2615
-24.0918
-19.7931
-15.6342
-11.82
-8.46273
-5.56788
-3.05274
-0.832544
1.04077
2.36003
2.8248
2.18259
0.131329
-3.8084
-9.90136
-17.69
-26.086
-33.8341
-39.8856
-43.4996
-44.3263
-42.2742
-37.7023
-31.4304
-24.6146
-18.3336
-13.1472
-9.11185
-6.06235
-3.80276
-2.15967
-0.987385
-0.168025
0.390573
0.759068
0.991001
1.12658
1.19572
1.22033
1.21615
1.19414
1.16165
1.12332
1.08188
1.03882
0.994823
0.950169
0.904985
0.859345
0.813341
0.767076
0.720651
0.674178
0.627752
0.58149
0.535516
0.490048
0.445297
0.401583
0.358996
0.317927
0.277821
0.239729
0.20088
0.166333
0.124458
0.098788
0.0394535
0.0502464
-12.061
-12.2814
-12.7441
-13.1133
-13.4288
-13.7705
-14.1747
-14.6478
-15.1981
-15.851
-16.6454
-17.6181
-18.7963
-20.1704
-21.6326
-22.9505
-23.903
-24.5087
-25.1077
-26.1057
-27.6801
-29.713
-31.912
-33.9424
-35.4971
-36.3283
-36.2708
-35.2519
-33.2949
-30.5146
-27.1014
-23.2956
-19.3531
-15.5087
-11.944
-8.76422
-5.98724
-3.56288
-1.44141
0.318754
1.53687
1.95797
1.34964
-0.538678
-4.05698
-9.44933
-16.3855
-23.9753
-31.0922
-36.7235
-40.1218
-40.939
-39.0987
-34.9823
-29.3819
-23.317
-17.6776
-12.9288
-9.1489
-6.23452
-4.03853
-2.41707
-1.24218
-0.406985
0.173992
0.567483
0.824784
0.984834
1.07681
1.12222
1.13657
1.13073
1.11206
1.08528
1.05332
1.01784
0.979804
0.939722
0.897967
0.854835
0.810615
0.765584
0.719989
0.674063
0.627999
0.581988
0.536209
0.490905
0.446296
0.402694
0.360174
0.319125
0.278964
0.240795
0.201763
0.167132
0.124935
0.0993641
0.0394248
0.0507905
-12.1771
-12.364
-12.73
-13.0872
-13.4275
-13.7942
-14.217
-14.7145
-15.3018
-15.9984
-16.8318
-17.8277
-19.0019
-20.3355
-21.7192
-22.9295
-23.7817
-24.3542
-24.9596
-25.9161
-27.3342
-29.0989
-30.9711
-32.6773
-33.9598
-34.6056
-34.4703
-33.4889
-31.6793
-29.1379
-26.027
-22.5532
-18.9378
-15.3861
-12.0597
-9.05692
-6.40631
-4.08384
-2.06743
-0.41879
0.703572
1.08281
0.511139
-1.22802
-4.37913
-9.1324
-15.246
-22.005
-28.4364
-33.599
-36.7587
-37.5748
-35.9863
-32.3732
-27.4605
-22.1139
-17.0648
-12.7178
-9.17981
-6.39941
-4.26981
-2.67306
-1.49799
-0.648591
-0.0461555
0.371967
0.654664
0.839461
0.954696
1.02138
1.05473
1.06551
1.06106
1.0462
1.024
0.996369
0.964482
0.929117
0.89089
0.85033
0.80793
0.764149
0.719387
0.674006
0.6283
0.582537
0.536947
0.491802
0.447327
0.403829
0.361366
0.320328
0.280104
0.241853
0.202644
0.167926
0.125437
0.0999377
0.0394681
0.0512706
-12.3669
-12.5418
-12.852
-13.1824
-13.512
-13.8797
-14.3148
-14.8309
-15.438
-16.1512
-16.9906
-17.9724
-19.1004
-20.3411
-21.5733
-22.6301
-23.4126
-24.0147
-24.6802
-25.6289
-26.9226
-28.4636
-30.0615
-31.4933
-32.5439
-33.0326
-32.8336
-31.8885
-30.2103
-27.8806
-25.0385
-21.8618
-18.5425
-15.2602
-12.1591
-9.33119
-6.81283
-4.60024
-2.69241
-1.15248
-0.120146
0.218426
-0.316849
-1.91583
-4.7492
-8.93948
-14.2959
-20.2439
-25.9667
-30.6257
-33.5286
-34.3513
-33.041
-29.9475
-25.6983
-21.0106
-16.4933
-12.5139
-9.20555
-6.55785
-4.49688
-2.92762
-1.75473
-0.892774
-0.269833
0.17254
0.480664
0.690497
0.829424
0.917868
0.970727
0.998581
1.00875
1.00614
0.993979
0.974388
0.948798
0.918249
0.883619
0.845675
0.805122
0.762607
0.71869
0.673859
0.628514
0.582998
0.537598
0.492611
0.44827
0.404881
0.362484
0.321469
0.281201
0.242881
0.203512
0.168704
0.12594
0.10047
0.0395301
0.051647
-12.6049
-12.7721
-13.0394
-13.342
-13.6601
-14.0196
-14.4431
-14.9443
-15.5343
-16.2259
-17.0308
-17.9544
-18.9868
-20.0831
-21.1541
-22.1111
-22.9
-23.5884
-24.334
-25.2781
-26.46
-27.8067
-29.1703
-30.3701
-31.2262
-31.5838
-31.3337
-30.4242
-28.8651
-26.7256
-24.1248
-21.2159
-18.1657
-15.1317
-12.2427
-9.58551
-7.20216
-5.10415
-3.30597
-1.871
-0.922661
-0.622242
-1.12336
-2.58997
-5.1457
-8.85235
-13.5401
-18.738
-23.7693
-27.915
-30.5541
-31.3869
-30.3564
-27.7585
-24.1119
-20.006
-15.9599
-12.3162
-9.22634
-6.71
-4.71967
-3.18058
-2.01221
-1.13939
-0.496922
-0.0307012
0.302869
0.538033
0.701096
0.811811
0.884676
0.930073
0.955272
0.965249
0.9634
0.952064
0.93293
0.907311
0.876349
0.84106
0.802373
0.761126
0.718047
0.673757
0.628762
0.583486
0.538268
0.493433
0.449223
0.405938
0.363603
0.322607
0.282291
0.243899
0.204375
0.169469
0.126455
0.100982
0.0396417
0.0519502
-12.7893
-12.9547
-13.2007
-13.4892
-13.8019
-14.1535
-14.5614
-15.0378
-15.5934
-16.2385
-16.981
-17.8211
-18.7488
-19.7352
-20.7291
-21.6497
-22.461
-23.2021
-23.9778
-24.8882
-25.9612
-27.1392
-28.3031
-29.3044
-29.9929
-30.238
-29.9463
-29.0726
-27.6236
-25.6577
-23.2764
-20.6115
-17.8078
-15.0037
-12.315
-9.82334
-7.57531
-5.59374
-3.90432
-2.56991
-1.69972
-1.43389
-1.90285
-3.24473
-5.55211
-8.84408
-12.957
-17.4936
-21.891
-25.547
-27.9279
-28.7642
-27.9847
-25.8219
-22.6941
-19.0895
-15.4598
-12.1244
-9.24319
-6.85661
-4.93849
-3.43203
-2.27046
-1.38842
-0.727411
-0.237739
0.121315
0.382128
0.5698
0.703318
0.796715
0.860132
0.90077
0.923668
0.932383
0.929483
0.916926
0.896309
0.869053
0.836433
0.79961
0.759623
0.717369
0.673609
0.628954
0.583909
0.538867
0.49418
0.450098
0.40692
0.364654
0.323686
0.283339
0.244887
0.205225
0.170222
0.126979
0.101465
0.0397858
0.0521667
-12.9443
-13.111
-13.3432
-13.6186
-13.9238
-14.2677
-14.6635
-15.1209
-15.6486
-16.2551
-16.9466
-17.7239
-18.5787
-19.4871
-20.402
-21.2682
-22.0637
-22.8164
-23.5948
-24.4633
-25.4364
-26.4665
-27.4578
-28.2888
-28.8349
-28.986
-28.6623
-27.8242
-26.477
-24.6694
-22.4881
-20.0465
-17.4698
-14.8799
-12.3807
-10.0495
-7.93588
-6.07094
-4.48836
-3.24972
-2.45188
-2.21624
-2.65361
-3.87784
-5.95845
-8.88914
-12.5112
-16.4818
-20.3267
-23.5431
-25.682
-26.5038
-25.9247
-24.1189
-21.4235
-18.2487
-14.9894
-11.9389
-9.25716
-6.99837
-5.15369
-3.68213
-2.52953
-1.6399
-0.961315
-0.448564
-0.0639613
0.222855
0.435648
0.592535
0.707015
0.788944
0.845433
0.881579
0.901103
0.906813
0.900949
0.885402
0.861882
0.831936
0.796964
0.758215
0.716761
0.673506
0.629172
0.584343
0.539464
0.494919
0.450962
0.407886
0.365689
0.324749
0.284371
0.245855
0.206063
0.170952
0.127502
0.101913
0.0399607
0.0523015
-13.0798
-13.2486
-13.4716
-13.7365
-14.0346
-14.3714
-14.7566
-15.198
-15.7027
-16.2772
-16.9256
-17.647
-18.4323
-19.2616
-20.104
-20.9218
-21.6962
-22.4417
-23.2015
-24.0171
-24.8947
-25.7941
-26.6366
-27.3225
-27.7478
-27.8203
-27.4724
-26.67
-25.417
-23.7544
-21.756
-19.519
-17.1521
-14.7622
-12.443
-10.2674
-8.28655
-6.53747
-5.05919
-3.91145
-3.18025
-2.97033
-3.37555
-4.48842
-6.35951
-8.96841
-12.1656
-15.6526
-19.0258
-21.8607
-23.7776
-24.5633
-24.1307
-22.6095
-20.2744
-17.4724
-14.5466
-11.7609
-9.26958
-7.1362
-5.36585
-3.93123
-2.78967
-1.894
-1.19874
-0.663235
-0.252963
0.0602702
0.298751
0.479619
0.615765
0.716718
0.789474
0.839186
0.869746
0.884212
0.885118
0.874671
0.854883
0.827583
0.794424
0.756872
0.716181
0.673399
0.62936
0.584728
0.540002
0.495591
0.451755
0.408785
0.366663
0.32576
0.285366
0.246799
0.206895
0.171678
0.128045
0.102346
0.0401809
0.0523656
-13.2024
-13.3735
-13.5904
-13.8469
-14.1374
-14.4658
-14.8393
-15.2643
-15.7464
-16.2903
-16.8988
-17.5701
-18.2959
-19.0603
-19.8394
-20.6057
-21.3447
-22.0651
-22.7933
-23.5531
-24.3429
-25.1273
-25.8415
-26.4032
-26.7263
-26.734
-26.369
-25.6023
-24.4367
-22.907
-21.0758
-19.0268
-16.8539
-14.6513
-12.5032
-10.4782
-8.6278
-6.99306
-5.61615
-4.5544
-3.88428
-3.6958
-4.06801
-5.07512
-6.75188
-9.0694
-11.8907
-14.9566
-17.9219
-20.4239
-22.1366
-22.8705
-22.544
-21.2544
-19.2271
-16.7545
-14.1312
-11.5915
-9.28179
-7.27111
-5.57566
-4.17982
-3.05122
-2.15098
-1.43988
-0.88187
-0.445723
-0.105577
0.159233
0.364756
0.523196
0.643706
0.733151
0.796738
0.838542
0.861887
0.86962
0.86428
0.848199
0.823499
0.792098
0.755687
0.715706
0.673351
0.629572
0.585112
0.540521
0.496232
0.452513
0.409647
0.3676
0.326736
0.286329
0.247709
0.207698
0.172366
0.128569
0.102727
0.0404128
0.0523384
-13.3124
-13.4854
-13.6982
-13.9476
-14.2305
-14.5501
-14.9116
-15.32
-15.7798
-16.2944
-16.8652
-17.4898
-18.1608
-18.8657
-19.5866
-20.3036
-21.0047
-21.6925
-22.3809
-23.0816
-23.7886
-24.4704
-25.0732
-25.5289
-25.7662
-25.7208
-25.3449
-24.6138
-23.5297
-22.122
-20.4442
-18.5678
-16.5745
-14.5471
-12.5614
-10.6814
-8.95857
-7.43575
-6.15674
-5.17601
-4.56152
-4.39045
-4.72897
-5.63558
-7.13228
-9.18445
-11.6683
-14.3595
-16.9631
-19.1672
-20.6918
-21.3683
-21.1236
-20.0298
-18.2711
-16.0919
-13.7433
-11.4321
-9.29515
-7.40428
-5.78404
-4.4286
-3.31473
-2.41126
-1.68505
-1.10467
-0.64233
-0.274662
0.0172214
0.248153
0.429566
0.570196
0.676759
0.754519
0.807748
0.84006
0.854637
0.854371
0.841929
0.819748
0.79002
0.754667
0.715326
0.673342
0.62978
0.585462
0.540987
0.496813
0.453209
0.41045
0.368487
0.327673
0.287269
0.248609
0.208511
0.173064
0.12913
0.103111
0.0407054
0.0522571
-13.412
-13.5865
-13.7961
-14.0393
-14.3146
-14.6248
-14.9738
-15.3655
-15.8034
-16.2896
-16.8249
-17.4068
-18.0288
-18.6806
-19.3482
-20.016
-20.6739
-21.3212
-21.9637
-22.6051
-23.2355
-23.8266
-24.333
-24.6984
-24.8637
-24.7755
-24.3939
-23.6982
-22.6902
-21.3949
-19.8577
-18.1402
-16.3132
-14.4495
-12.6174
-10.8767
-9.27735
-7.86311
-6.67794
-5.77314
-5.20902
-5.05154
-5.3559
-6.16718
-7.4974
-9.30831
-11.4882
-13.8434
-16.1222
-18.0574
-19.4101
-20.0296
-19.85
-18.9239
-17.4003
-15.4823
-13.383
-11.2838
-9.31106
-7.53698
-5.99208
-4.67847
-3.58095
-2.67545
-1.93471
-1.33195
-0.842932
-0.44698
-0.127149
0.130047
0.335182
0.49653
0.620647
0.712864
0.777672
0.819002
0.8404
0.845136
0.836234
0.816458
0.788289
0.753891
0.715099
0.673414
0.630013
0.585798
0.541414
0.497338
0.453842
0.411188
0.369312
0.328549
0.288152
0.249452
0.209274
0.173703
0.129649
0.103422
0.040988
0.0520724
-13.502
-13.6774
-13.8841
-14.1215
-14.3892
-14.6896
-15.0257
-15.4007
-15.8169
-16.2758
-16.7774
-17.3192
-17.8954
-18.4979
-19.1152
-19.7352
-20.349
-20.9529
-21.5473
-22.1299
-22.689
-23.1991
-23.6218
-23.9103
-24.0156
-23.8934
-23.5106
-22.85
-21.9131
-20.7213
-19.3133
-17.7421
-16.069
-14.3582
-12.6712
-11.0633
-9.58283
-8.27306
-7.1772
-6.34314
-5.82432
-5.67692
-5.94684
-6.6679
-7.84448
-9.4366
-11.3436
-13.3984
-15.3865
-17.0797
-18.2756
-18.8389
-18.7103
-17.9272
-16.6089
-14.9231
-13.0501
-11.1476
-9.33097
-7.67069
-6.2011
-4.93058
-3.85086
-2.94437
-2.18951
-1.56414
-1.04776
-0.622561
-0.273741
0.0107013
0.240392
0.423099
0.565215
0.672154
0.74866
0.799012
0.827158
0.836772
0.83126
0.813734
0.786974
0.753398
0.715044
0.67357
0.630267
0.586113
0.541795
0.497808
0.45442
0.411879
0.370101
0.329406
0.289034
0.250308
0.21007
0.174377
0.130228
0.103761
0.0413514
0.0518519
-13.5831
-13.7588
-13.9626
-14.1943
-14.4543
-14.7446
-15.0677
-15.4257
-15.8206
-16.2531
-16.7228
-17.2271
-17.7612
-18.318
-18.8881
-19.4615
-20.0299
-20.588
-21.1327
-21.6583
-22.1516
-22.5898
-22.94
-23.1632
-23.2188
-23.0703
-22.69
-22.064
-21.1938
-20.0974
-18.8082
-17.3716
-15.841
-14.2728
-12.7224
-11.2408
-9.87387
-8.66391
-7.65251
-6.88403
-6.40575
-6.2653
-6.50074
-7.1366
-8.17161
-9.56555
-11.2281
-13.0151
-14.744
-16.2202
-17.2726
-17.781
-17.6915
-17.0298
-15.8907
-14.4117
-12.7442
-11.0246
-9.35642
-7.80703
-6.41264
-5.18635
-4.12573
-3.21911
-2.45028
-1.80182
-1.25712
-0.801477
-0.422412
-0.10958
0.145605
0.350365
0.510934
0.632841
0.721119
0.780444
0.815206
0.829518
0.827195
0.811715
0.786175
0.753256
0.715202
0.673829
0.630544
0.586394
0.542108
0.498189
0.4549
0.412469
0.370793
0.330168
0.289827
0.251076
0.210783
0.17496
0.130736
0.103999
0.0416791
0.0515128
-13.656
-13.8313
-14.032
-14.2581
-14.5101
-14.79
-15.0998
-15.441
-15.8149
-16.2218
-16.6609
-17.1298
-17.6243
-18.1381
-18.6634
-19.1916
-19.715
-20.2274
-20.723
-21.1939
-21.6268
-22.0009
-22.2882
-22.4559
-22.4707
-22.3021
-21.9276
-21.3356
-20.5277
-19.5196
-18.3396
-17.027
-15.6282
-14.1928
-12.7706
-11.4084
-10.1495
-9.03425
-8.10227
-7.3943
-6.95211
-6.81593
-7.01711
-7.57279
-8.47754
-9.69209
-11.1357
-12.6841
-14.1821
-15.4643
-16.3858
-16.8409
-16.781
-16.2225
-15.2399
-13.9453
-12.465
-10.9156
-9.389
-7.94779
-6.62853
-5.44756
-4.40719
-3.50105
-2.71815
-2.04579
-1.47148
-0.983851
-0.573021
-0.230457
0.0512851
0.278856
0.458342
0.595433
0.695505
0.763692
0.804872
0.823635
0.824238
0.810549
0.785997
0.753533
0.715617
0.674224
0.630869
0.586668
0.542382
0.498521
0.455335
0.413027
0.371471
0.330937
0.290651
0.251891
0.211567
0.175615
0.131338
0.104297
0.0421138
0.0511581
-13.7209
-13.8952
-14.0923
-14.3125
-14.5565
-14.8258
-15.1221
-15.4465
-15.7997
-16.1819
-16.5919
-17.0275
-17.4847
-17.9582
-18.441
-18.9257
-19.4049
-19.8718
-20.3193
-20.7385
-21.1161
-21.4333
-21.6661
-21.7871
-21.7685
-21.5853
-21.2191
-20.6605
-19.9111
-18.9845
-17.9051
-16.7066
-15.4295
-14.1176
-12.8153
-11.5656
-10.4087
-9.38285
-8.52514
-7.8728
-7.46257
-7.32839
-7.49578
-7.97627
-8.76143
-9.81375
-11.0613
-12.3973
-13.6897
-14.7989
-15.6013
-16.0055
-15.9674
-15.4967
-14.6511
-13.5215
-12.2121
-10.8217
-9.43035
-8.09499
-6.85093
-5.71633
-4.69724
-3.79198
-2.99454
-2.29707
-1.69141
-1.16987
-0.725417
-0.351535
-0.0420137
0.209197
0.408078
0.56053
0.672355
0.749214
0.796528
0.819414
0.822605
0.810386
0.786534
0.754281
0.716304
0.674736
0.6312
0.586873
0.542543
0.498716
0.455624
0.413439
0.372008
0.331569
0.291343
0.252576
0.212228
0.17614
0.131832
0.104463
0.0424827
0.050668
-13.7785
-13.9511
-14.1444
-14.3585
-14.594
-14.8526
-15.1353
-15.443
-15.776
-16.1342
-16.5163
-16.9201
-17.3421
-17.7773
-18.2198
-18.6628
-19.0993
-19.5221
-19.9236
-20.2944
-20.6215
-20.8882
-21.0738
-21.1554
-21.1099
-20.9168
-20.5609
-20.0348
-19.3402
-18.489
-17.5021
-16.4087
-15.244
-14.0465
-12.8561
-11.7118
-10.6508
-9.70876
-8.92016
-8.31871
-7.93666
-7.8026
-7.93696
-8.34722
-9.02286
-9.92865
-11.0009
-12.1478
-13.2575
-14.2122
-14.9067
-15.2626
-15.2403
-14.8443
-14.1192
-13.1377
-11.985
-10.7437
-9.48219
-8.25086
-7.08234
-5.99528
-4.99839
-4.09414
-3.28129
-2.55697
-1.91769
-1.3598
-0.879458
-0.472369
-0.133666
0.142103
0.360859
0.528805
0.652273
0.737524
0.790598
0.817192
0.822559
0.811425
0.787934
0.755609
0.717346
0.675436
0.631604
0.587081
0.542671
0.498869
0.455881
0.41384
0.372561
0.332246
0.292109
0.253356
0.213007
0.176784
0.132462
0.104727
0.0429887
0.0501819
-13.8285
-13.9989
-14.1878
-14.3954
-14.6224
-14.8699
-15.139
-15.4302
-15.7435
-16.0785
-16.4339
-16.8076
-17.1963
-17.5954
-17.9997
-18.4029
-18.7983
-19.179
-19.5368
-19.8625
-20.1438
-20.3658
-20.5108
-20.5595
-20.4925
-20.2932
-19.9493
-19.4548
-18.8116
-18.03
-17.1282
-16.1315
-15.0704
-13.9789
-12.8925
-11.8465
-10.8751
-10.0113
-9.2867
-8.73163
-8.37433
-8.23882
-8.34129
-8.68615
-9.26167
-10.0353
-10.9509
-11.9296
-12.8768
-13.6937
-14.2908
-14.6014
-14.5902
-14.2582
-13.6393
-12.7913
-11.783
-10.6823
-9.54633
-8.41789
-7.32572
-6.28757
-5.31379
-4.41037
-3.58074
-2.82718
-2.15132
-1.55402
-1.03499
-0.59243
-0.222912
0.0784281
0.317535
0.501057
0.635957
0.729206
0.787545
0.817318
0.82434
0.813815
0.790269
0.757525
0.718702
0.676245
0.631973
0.587161
0.542618
0.498818
0.455927
0.414034
0.372916
0.332732
0.292693
0.253955
0.213615
0.177252
0.132942
0.104822
0.0434028
0.0495453
-13.8723
-14.0398
-14.2239
-14.4247
-14.6429
-14.8793
-15.1348
-15.4095
-15.7035
-16.0161
-16.346
-16.6909
-17.0479
-17.4129
-17.7809
-18.1463
-18.5028
-18.8434
-19.1603
-19.4443
-19.6843
-19.8669
-19.9769
-19.9979
-19.9142
-19.7119
-19.381
-18.9171
-18.3221
-17.6049
-16.7814
-15.8735
-14.9077
-13.914
-12.924
-11.9694
-11.0814
-10.2902
-9.62448
-9.11152
-8.77587
-8.63766
-8.70964
-8.99382
-9.47805
-10.1326
-10.9082
-11.7374
-12.5405
-13.2344
-13.7437
-14.012
-14.0082
-13.7312
-13.2065
-12.4796
-11.6054
-10.6383
-9.62465
-8.5989
-7.58457
-6.59708
-5.64734
-4.74426
-3.89585
-3.10987
-2.39361
-1.75302
-1.19187
-0.711125
-0.308898
0.0191281
0.27908
0.478191
0.624205
0.72493
0.787915
0.820225
0.828291
0.817823
0.793748
0.760199
0.720516
0.677293
0.632435
0.587247
0.542533
0.498729
0.455956
0.414243
0.373325
0.33331
0.293406
0.254708
0.2144
0.177895
0.133611
0.105057
0.0439813
0.0489303
-13.9087
-14.0728
-14.2516
-14.4453
-14.6544
-14.8796
-15.1215
-15.3802
-15.6554
-15.9464
-16.2517
-16.5694
-16.8964
-17.2292
-17.563
-17.8928
-18.2124
-18.5154
-18.7942
-19.0401
-19.2429
-19.3909
-19.4708
-19.4691
-19.3725
-19.1698
-18.853
-18.4186
-17.8686
-17.211
-16.4595
-15.633
-14.7548
-13.8512
-12.9501
-12.0801
-11.2694
-10.5452
-9.93355
-9.45867
-9.14188
-9.00001
-9.04302
-9.27117
-9.67239
-10.2197
-10.8704
-11.5669
-12.242
-12.8261
-13.2565
-13.4854
-13.4864
-13.2567
-12.816