/*--------------------------------*- C++ -*----------------------------------*\
| =========                 |                                                 |
| \\      /  F ield         | OpenFOAM: The Open Source CFD Toolbox           |
|  \\    /   O peration     | Version:  2.1.1                                 |
|   \\  /    A nd           | Web:      www.OpenFOAM.org                      |
|    \\/     M anipulation  |                                                 |
\*---------------------------------------------------------------------------*/
FoamFile
{
    version     2.0;
    format      ascii;
    class       surfaceScalarField;
    location    "0.09";
    object      phi;
}
// * * * * * * * * * * * * * * * * * * * * * * * * * * * * * * * * * * * * * //

dimensions      [0 3 -1 0 0 0 0];

internalField   nonuniform List<scalar> 
13452
(
4.59931e-05
2.24942e-05
2.96467e-05
1.63463e-05
2.11553e-05
8.49139e-06
1.7236e-05
3.91935e-06
1.55728e-05
1.66324e-06
1.47408e-05
8.31976e-07
1.42036e-05
5.37165e-07
1.37843e-05
4.19315e-07
1.34225e-05
3.61771e-07
1.31025e-05
3.2003e-07
1.28192e-05
2.83349e-07
1.2568e-05
2.51139e-07
1.23441e-05
2.23883e-07
1.21424e-05
2.01712e-07
1.19581e-05
1.84331e-07
1.17868e-05
1.71265e-07
1.16248e-05
1.62041e-07
1.14685e-05
1.56272e-07
1.13148e-05
1.53677e-07
1.11608e-05
1.54082e-07
1.10033e-05
1.57406e-07
1.08397e-05
1.63645e-07
1.06668e-05
1.7286e-07
1.04817e-05
1.85166e-07
1.0281e-05
2.00698e-07
1.00613e-05
2.19681e-07
9.81925e-06
2.42048e-07
9.55054e-06
2.6871e-07
9.25356e-06
2.96981e-07
8.91828e-06
3.35285e-07
8.56213e-06
3.56147e-07
8.12045e-06
4.41683e-07
2.88452e-07
7.83199e-06
7.49084e-05
1.80297e-05
7.03937e-05
2.08611e-05
6.32804e-05
1.56047e-05
5.65957e-05
1.0604e-05
5.14453e-05
6.8137e-06
4.77527e-05
4.52456e-06
4.50922e-05
3.19769e-06
4.31215e-05
2.38997e-06
4.16073e-05
1.87599e-06
4.03993e-05
1.52805e-06
3.94047e-05
1.27794e-06
3.8565e-05
1.09082e-06
3.78416e-05
9.47275e-07
3.72078e-05
8.35533e-07
3.66442e-05
7.47954e-07
3.6136e-05
6.79383e-07
3.56718e-05
6.26262e-07
3.5242e-05
5.8612e-07
3.48384e-05
5.57259e-07
3.44539e-05
5.38543e-07
3.40821e-05
5.29258e-07
3.37167e-05
5.29016e-07
3.33519e-05
5.37688e-07
3.29817e-05
5.55354e-07
3.26001e-05
5.82267e-07
3.22009e-05
6.18845e-07
3.17775e-05
6.65462e-07
3.13231e-05
7.23116e-07
3.08295e-05
7.90604e-07
3.02916e-05
8.73237e-07
2.96936e-05
9.54071e-07
2.90683e-05
1.06701e-06
1.12473e-06
2.8232e-05
7.85201e-05
1.19662e-05
8.23268e-05
1.70543e-05
8.29688e-05
1.49626e-05
8.1427e-05
1.21458e-05
7.88688e-05
9.37194e-06
7.61396e-05
7.25379e-06
7.35723e-05
5.76499e-06
7.12712e-05
4.69101e-06
6.92503e-05
3.89696e-06
6.7485e-05
3.29331e-06
6.5942e-05
2.82098e-06
6.45887e-05
2.44412e-06
6.3396e-05
2.13996e-06
6.23387e-05
1.89281e-06
6.13953e-05
1.69135e-06
6.05474e-05
1.52731e-06
5.97791e-05
1.39452e-06
5.90769e-05
1.28837e-06
5.84287e-05
1.20545e-06
5.7824e-05
1.14325e-06
5.72532e-05
1.10001e-06
5.67077e-05
1.07457e-06
5.61791e-05
1.06623e-06
5.56598e-05
1.07474e-06
5.51418e-05
1.10019e-06
5.46177e-05
1.143e-06
5.40793e-05
1.20379e-06
5.35188e-05
1.28368e-06
5.29265e-05
1.38288e-06
5.22948e-05
1.50494e-06
5.16049e-05
1.64398e-06
5.08561e-05
1.81576e-06
2.00501e-06
4.99759e-05
7.81455e-05
8.3473e-06
8.19189e-05
1.3281e-05
8.46098e-05
1.22718e-05
8.62228e-05
1.05328e-05
8.68847e-05
8.70998e-06
8.69471e-05
7.19139e-06
8.66521e-05
6.06004e-06
8.61421e-05
5.20101e-06
8.55091e-05
4.52997e-06
8.48092e-05
3.99316e-06
8.40774e-05
3.55278e-06
8.33366e-05
3.18491e-06
8.26026e-05
2.87393e-06
8.1886e-05
2.6095e-06
8.11925e-05
2.38481e-06
8.05252e-05
2.19464e-06
7.98848e-05
2.03493e-06
7.92705e-05
1.90259e-06
7.86807e-05
1.79531e-06
7.81125e-05
1.7114e-06
7.75628e-05
1.6497e-06
7.70279e-05
1.60951e-06
7.65035e-05
1.59059e-06
7.59852e-05
1.59303e-06
7.54681e-05
1.6173e-06
7.49469e-05
1.66421e-06
7.44159e-05
1.73486e-06
7.38687e-05
1.83081e-06
7.32981e-05
1.95348e-06
7.2697e-05
2.10607e-06
7.20517e-05
2.28928e-06
7.13557e-05
2.51179e-06
2.78294e-06
7.05777e-05
7.89899e-05
6.01328e-06
8.15852e-05
1.06856e-05
8.35067e-05
1.03502e-05
8.49444e-05
9.09515e-06
8.59552e-05
7.69922e-06
8.66867e-05
6.45987e-06
8.72401e-05
5.50663e-06
8.76624e-05
4.7787e-06
8.79844e-05
4.20796e-06
8.82268e-05
3.75081e-06
8.84035e-05
3.37609e-06
8.85252e-05
3.06323e-06
8.85993e-05
2.79978e-06
8.86319e-05
2.57691e-06
8.86289e-05
2.38778e-06
8.85958e-05
2.2278e-06
8.85369e-05
2.0938e-06
8.8456e-05
1.98349e-06
8.8356e-05
1.89533e-06
8.82391e-05
1.82831e-06
8.81069e-05
1.78192e-06
8.79604e-05
1.75602e-06
8.78001e-05
1.75088e-06
8.7626e-05
1.76708e-06
8.74378e-05
1.80553e-06
8.72345e-05
1.8675e-06
8.70148e-05
1.95454e-06
8.6777e-05
2.06862e-06
8.65185e-05
2.21199e-06
8.62368e-05
2.38781e-06
8.59264e-05
2.59966e-06
8.55848e-05
2.85334e-06
3.15934e-06
8.52084e-05
8.04615e-05
4.3977e-06
8.24987e-05
8.64837e-06
8.39771e-05
8.87182e-06
8.50267e-05
8.04555e-06
8.57378e-05
6.98819e-06
8.62389e-05
5.95869e-06
8.66315e-05
5.11406e-06
8.69625e-05
4.44774e-06
8.72547e-05
3.91571e-06
8.75195e-05
3.48599e-06
8.77616e-05
3.13401e-06
8.79833e-05
2.84153e-06
8.81868e-05
2.5963e-06
8.83737e-05
2.38999e-06
8.85449e-05
2.2166e-06
8.8701e-05
2.07167e-06
8.88429e-05
1.95197e-06
8.89711e-05
1.85521e-06
8.90867e-05
1.77975e-06
8.91904e-05
1.72457e-06
8.92833e-05
1.6891e-06
8.93661e-05
1.67316e-06
8.944e-05
1.67696e-06
8.95061e-05
1.70101e-06
8.95655e-05
1.74615e-06
8.96195e-05
1.8135e-06
8.96695e-05
1.9045e-06
8.97172e-05
2.02091e-06
8.97644e-05
2.16481e-06
8.98134e-05
2.33881e-06
8.98671e-05
2.54599e-06
8.99299e-05
2.79052e-06
3.07544e-06
9.00138e-05
8.22325e-05
3.26371e-06
8.38879e-05
6.99299e-06
8.51677e-05
7.59204e-06
8.60906e-05
7.12267e-06
8.67188e-05
6.36001e-06
8.71424e-05
5.53507e-06
8.74493e-05
4.80716e-06
8.76888e-05
4.20823e-06
8.78876e-05
3.71692e-06
8.8061e-05
3.31256e-06
8.82172e-05
2.97779e-06
8.83605e-05
2.69829e-06
8.84931e-05
2.46363e-06
8.86168e-05
2.26638e-06
8.87323e-05
2.10108e-06
8.88404e-05
1.9636e-06
8.89415e-05
1.85088e-06
8.9036e-05
1.76068e-06
8.91244e-05
1.69138e-06
8.9207e-05
1.6419e-06
8.92846e-05
1.61156e-06
8.93577e-05
1.60006e-06
8.94272e-05
1.60744e-06
8.94942e-05
1.63398e-06
8.95601e-05
1.68025e-06
8.96266e-05
1.74703e-06
8.96958e-05
1.83531e-06
8.97704e-05
1.9463e-06
8.98539e-05
2.08134e-06
8.99507e-05
2.24202e-06
9.00669e-05
2.42975e-06
9.02109e-05
2.64654e-06
2.89031e-06
9.0396e-05
8.4215e-05
2.46426e-06
8.5544e-05
5.66396e-06
8.66582e-05
6.47788e-06
8.75048e-05
6.27602e-06
8.8117e-05
5.74781e-06
8.85476e-05
5.1045e-06
8.88618e-05
4.49296e-06
8.91032e-05
3.96681e-06
8.92975e-05
3.52268e-06
8.94605e-05
3.14949e-06
8.9602e-05
2.83636e-06
8.97273e-05
2.57294e-06
8.984e-05
2.3509e-06
8.99424e-05
2.16404e-06
9.00359e-05
2.00759e-06
9.01216e-05
1.87789e-06
9.02003e-05
1.77214e-06
9.02727e-05
1.68825e-06
9.03394e-05
1.62468e-06
9.0401e-05
1.58035e-06
9.0458e-05
1.55456e-06
9.05111e-05
1.54694e-06
9.05612e-05
1.55737e-06
9.06091e-05
1.586e-06
9.06563e-05
1.63314e-06
9.0704e-05
1.69926e-06
9.07544e-05
1.78497e-06
9.08097e-05
1.89092e-06
9.08733e-05
2.01778e-06
9.09492e-05
2.16616e-06
9.10428e-05
2.33613e-06
9.11614e-05
2.52789e-06
2.73745e-06
9.13143e-05
8.63704e-05
1.89262e-06
8.74347e-05
4.59965e-06
8.83981e-05
5.51443e-06
8.91647e-05
5.50943e-06
8.97476e-05
5.16495e-06
9.01773e-05
4.67475e-06
9.05011e-05
4.16922e-06
9.07552e-05
3.71269e-06
9.09622e-05
3.31569e-06
9.11366e-05
2.97509e-06
9.12876e-05
2.68533e-06
9.1421e-05
2.43957e-06
9.15404e-05
2.23153e-06
9.16482e-05
2.05615e-06
9.17464e-05
1.90942e-06
9.18362e-05
1.78814e-06
9.19185e-05
1.68979e-06
9.19943e-05
1.61247e-06
9.20643e-05
1.55472e-06
9.21291e-05
1.5155e-06
9.21896e-05
1.49408e-06
9.22465e-05
1.49003e-06
9.23007e-05
1.50312e-06
9.23534e-05
1.53332e-06
9.24058e-05
1.58073e-06
9.24596e-05
1.64554e-06
9.25165e-05
1.72798e-06
9.25792e-05
1.82827e-06
9.26505e-05
1.94646e-06
9.27342e-05
2.08244e-06
9.2835e-05
2.23536e-06
9.29587e-05
2.40419e-06
2.58458e-06
9.31116e-05
8.86659e-05
1.47676e-06
8.95181e-05
3.74738e-06
9.03481e-05
4.6845e-06
9.10391e-05
4.81842e-06
9.15883e-05
4.61577e-06
9.20108e-05
4.25219e-06
9.23386e-05
3.84141e-06
9.26008e-05
3.4505e-06
9.28169e-05
3.09961e-06
9.30001e-05
2.79192e-06
9.31592e-05
2.52617e-06
9.33002e-05
2.29864e-06
9.34267e-05
2.10499e-06
9.35415e-05
1.94135e-06
9.36465e-05
1.80447e-06
9.3743e-05
1.69162e-06
9.38322e-05
1.6006e-06
9.3915e-05
1.52966e-06
9.39923e-05
1.47744e-06
9.40648e-05
1.44293e-06
9.41335e-05
1.42537e-06
9.41993e-05
1.42423e-06
9.42633e-05
1.43919e-06
9.43266e-05
1.47002e-06
9.43907e-05
1.51663e-06
9.44573e-05
1.57892e-06
9.45285e-05
1.6568e-06
9.46067e-05
1.75006e-06
9.46949e-05
1.85827e-06
9.47966e-05
1.98072e-06
9.4916e-05
2.11598e-06
9.50579e-05
2.26231e-06
2.41548e-06
9.5227e-05
9.10796e-05
1.16844e-06
9.17639e-05
3.06308e-06
9.24778e-05
3.97067e-06
9.30999e-05
4.19628e-06
9.36146e-05
4.1011e-06
9.40261e-05
3.84067e-06
9.43545e-05
3.51295e-06
9.46224e-05
3.18266e-06
9.48461e-05
2.87586e-06
9.50375e-05
2.60057e-06
9.52047e-05
2.35897e-06
9.53533e-05
2.14999e-06
9.54873e-05
1.97106e-06
9.56092e-05
1.81943e-06
9.57211e-05
1.69256e-06
9.58245e-05
1.58821e-06
9.59206e-05
1.50445e-06
9.60106e-05
1.43973e-06
9.60952e-05
1.39277e-06
9.61756e-05
1.36257e-06
9.62526e-05
1.34835e-06
9.63273e-05
1.34952e-06
9.64009e-05
1.3656e-06
9.64747e-05
1.39623e-06
9.65502e-05
1.4411e-06
9.66293e-05
1.49986e-06
9.6714e-05
1.57212e-06
9.68067e-05
1.65732e-06
9.69103e-05
1.75464e-06
9.70281e-05
1.86294e-06
9.71637e-05
1.98044e-06
9.7321e-05
2.10502e-06
2.23274e-06
9.75037e-05
9.3598e-05
9.35095e-07
9.41501e-05
2.51093e-06
9.47634e-05
3.35742e-06
9.53223e-05
3.63733e-06
9.58024e-05
3.62103e-06
9.62005e-05
3.44261e-06
9.65276e-05
3.1858e-06
9.68001e-05
2.91021e-06
9.70312e-05
2.64474e-06
9.72309e-05
2.40083e-06
9.74067e-05
2.18324e-06
9.75637e-05
1.99297e-06
9.77057e-05
1.829e-06
9.78356e-05
1.6896e-06
9.79552e-05
1.57288e-06
9.80664e-05
1.47708e-06
9.81703e-05
1.40055e-06
9.82681e-05
1.3419e-06
9.83609e-05
1.29996e-06
9.84498e-05
1.27373e-06
9.85357e-05
1.26242e-06
9.86199e-05
1.26534e-06
9.87035e-05
1.28193e-06
9.87881e-05
1.31167e-06
9.88752e-05
1.35405e-06
9.89665e-05
1.40851e-06
9.90642e-05
1.47439e-06
9.91707e-05
1.55088e-06
9.92885e-05
1.63686e-06
9.94205e-05
1.73092e-06
9.95698e-05
1.83111e-06
9.97397e-05
1.93517e-06
2.03952e-06
9.99329e-05
9.62124e-05
7.54747e-07
9.6661e-05
2.06233e-06
9.71881e-05
2.83037e-06
9.76899e-05
3.13554e-06
9.81364e-05
3.17449e-06
9.85194e-05
3.05963e-06
9.88432e-05
2.86203e-06
9.91186e-05
2.63479e-06
9.9356e-05
2.40732e-06
9.95637e-05
2.19318e-06
9.9748e-05
1.99894e-06
9.99137e-05
1.82719e-06
0.000100065
1.67818e-06
0.000100203
1.55106e-06
0.000100331
1.44458e-06
0.000100451
1.35734e-06
0.000100564
1.288e-06
0.00010067
1.23531e-06
0.000100772
1.19818e-06
0.00010087
1.17565e-06
0.000100966
1.16688e-06
0.00010106
1.17113e-06
0.000101154
1.18772e-06
0.00010125
1.21601e-06
0.000101348
1.25532e-06
0.000101452
1.30492e-06
0.000101563
1.36395e-06
0.000101682
1.43138e-06
0.000101813
1.50593e-06
0.000101958
1.58604e-06
0.000102119
1.6697e-06
0.0001023
1.75467e-06
1.83778e-06
0.000102501
9.89181e-05
6.1242e-07
9.92858e-05
1.6946e-06
9.97397e-05
2.3764e-06
0.00010019
2.68505e-06
0.000100605
2.75989e-06
0.000100972
2.69269e-06
0.000101291
2.54324e-06
0.000101568
2.35772e-06
0.000101811
2.16445e-06
0.000102026
1.978e-06
0.000102219
1.80607e-06
0.000102393
1.65239e-06
0.000102553
1.51818e-06
0.000102701
1.40333e-06
0.000102839
1.30708e-06
0.000102968
1.22842e-06
0.000103089
1.16623e-06
0.000103205
1.1194e-06
0.000103316
1.08693e-06
0.000103424
1.06786e-06
0.00010353
1.06134e-06
0.000103634
1.06656e-06
0.000103739
1.08276e-06
0.000103846
1.10919e-06
0.000103956
1.14504e-06
0.000104072
1.18943e-06
0.000104194
1.24137e-06
0.000104326
1.2997e-06
0.000104469
1.36304e-06
0.000104625
1.42976e-06
0.000104797
1.49791e-06
0.000104986
1.56538e-06
1.62937e-06
0.000105195
0.000101712
4.97796e-07
0.000102017
1.38996e-06
0.00010241
1.9838e-06
0.000102815
2.28e-06
0.0001032
2.375e-06
0.00010355
2.34189e-06
0.000103863
2.23043e-06
0.000104141
2.08007e-06
0.000104388
1.91697e-06
0.000104611
1.75581e-06
0.000104812
1.60486e-06
0.000104996
1.46855e-06
0.000105165
1.3488e-06
0.000105322
1.24605e-06
0.000105469
1.15997e-06
0.000105608
1.08984e-06
0.000105739
1.03474e-06
0.000105865
9.93692e-07
0.000105986
9.65744e-07
0.000106104
9.49968e-07
0.00010622
9.45481e-07
0.000106335
9.51437e-07
0.000106451
9.66997e-07
0.000106569
9.91312e-07
0.00010669
1.02349e-06
0.000106817
1.06255e-06
0.000106951
1.10741e-06
0.000107094
1.15684e-06
0.000107248
1.20943e-06
0.000107414
1.26357e-06
0.000107594
1.31743e-06
0.000107791
1.36906e-06
1.41607e-06
0.000108004
0.000104595
4.03651e-07
0.00010485
1.13451e-06
0.000105192
1.64222e-06
0.000105557
1.91467e-06
0.000105915
2.01721e-06
0.00010625
2.00673e-06
0.000106556
1.92411e-06
0.000106834
1.80257e-06
0.000107085
1.6655e-06
0.000107314
1.52701e-06
0.000107523
1.39545e-06
0.000107716
1.2756e-06
0.000107895
1.1698e-06
0.000108062
1.07889e-06
0.00010822
1.00286e-06
0.000108368
9.41194e-07
0.00010851
8.93143e-07
0.000108646
8.57828e-07
0.000108777
8.34338e-07
0.000108905
8.21759e-07
0.000109032
8.19194e-07
0.000109157
8.25755e-07
0.000109284
8.40552e-07
0.000109412
8.6267e-07
0.000109545
8.9115e-07
0.000109682
9.2496e-07
0.000109827
9.62968e-07
0.00010998
1.00393e-06
0.000110143
1.04645e-06
0.000110317
1.08901e-06
0.000110505
1.12992e-06
0.000110706
1.16744e-06
1.19953e-06
0.000110923
0.000107565
3.2483e-07
0.000107782
9.17352e-07
0.000108082
1.3426e-06
0.000108413
1.58356e-06
0.000108746
1.68361e-06
0.000109067
1.68613e-06
0.000109367
1.62426e-06
0.000109644
1.52555e-06
0.000109899
1.4104e-06
0.000110134
1.29186e-06
0.000110352
1.17795e-06
0.000110554
1.0735e-06
0.000110742
9.81032e-07
0.00011092
9.01623e-07
0.000111087
8.35453e-07
0.000111246
7.82173e-07
0.000111398
7.41134e-07
0.000111544
7.1153e-07
0.000111686
6.9248e-07
0.000111825
6.8308e-07
0.000111962
6.82417e-07
0.000112098
6.89576e-07
0.000112235
7.03629e-07
0.000112374
7.23622e-07
0.000112516
7.4856e-07
0.000112664
7.77387e-07
0.000112818
8.08969e-07
0.00011298
8.42082e-07
0.000113151
8.75404e-07
0.000113332
9.07525e-07
0.000113525
9.36926e-07
0.000113731
9.621e-07
9.81312e-07
0.000113949
0.000110624
2.57573e-07
0.000110812
7.29961e-07
0.000111077
1.07713e-06
0.000111379
1.28142e-06
0.000111692
1.37108e-06
0.000111999
1.37856e-06
0.000112293
1.33035e-06
0.00011257
1.24897e-06
0.000112828
1.15177e-06
0.00011307
1.05042e-06
0.000113295
9.52346e-07
0.000113507
8.62127e-07
0.000113706
7.82291e-07
0.000113893
7.13984e-07
0.000114071
6.57476e-07
0.000114241
6.125e-07
0.000114403
5.78465e-07
0.00011456
5.54603e-07
0.000114713
5.40051e-07
0.000114862
5.33902e-07
0.000115009
5.35234e-07
0.000115156
5.43111e-07
0.000115303
5.56585e-07
0.000115452
5.74683e-07
0.000115604
5.96402e-07
0.000115761
6.20692e-07
0.000115923
6.46448e-07
0.000116093
6.72504e-07
0.00011627
6.97634e-07
0.000116457
7.2056e-07
0.000116654
7.3995e-07
0.000116862
7.54513e-07
7.62807e-07
0.00011708
0.000113774
1.99071e-07
0.000113938
5.65572e-07
0.000114176
8.39025e-07
0.000114455
1.00327e-06
0.000114749
1.07634e-06
0.000115046
1.08212e-06
0.000115335
1.0414e-06
0.000115611
9.72337e-07
0.000115874
8.89344e-07
0.000116122
8.02505e-07
0.000116356
7.18428e-07
0.000116577
6.41247e-07
0.000116786
5.73301e-07
0.000116984
5.15674e-07
0.000117173
4.68623e-07
0.000117353
4.31888e-07
0.000117527
4.0489e-07
0.000117695
3.86862e-07
0.000117858
3.7694e-07
0.000118017
3.74211e-07
0.000118175
3.77741e-07
0.000118331
3.86583e-07
0.000118488
3.99782e-07
0.000118647
4.16368e-07
0.000118808
4.35347e-07
0.000118973
4.55704e-07
0.000119143
4.76386e-07
0.000119319
4.96312e-07
0.000119502
5.14368e-07
0.000119693
5.29428e-07
0.000119893
5.40346e-07
0.000120101
5.46048e-07
5.45359e-07
0.000120319
0.000117016
1.47166e-07
0.000117163
4.18759e-07
0.00011738
6.22416e-07
0.000117639
7.44404e-07
0.000117919
7.96022e-07
0.000118206
7.94558e-07
0.000118492
7.56042e-07
0.000118769
6.94816e-07
0.000119036
6.22568e-07
0.000119291
5.47706e-07
0.000119533
4.75847e-07
0.000119764
4.1053e-07
0.000119984
3.5375e-07
0.000120193
3.06402e-07
0.000120393
2.68637e-07
0.000120585
2.40131e-07
0.000120769
2.20262e-07
0.000120948
2.08239e-07
0.000121122
2.03177e-07
0.000121292
2.04144e-07
0.000121459
2.10195e-07
0.000121626
2.20379e-07
0.000121792
2.33745e-07
0.000121959
2.49338e-07
0.000122128
2.66201e-07
0.0001223
2.83366e-07
0.000122477
2.99857e-07
0.000122658
3.14688e-07
0.000122846
3.26874e-07
0.00012304
3.3544e-07
0.000123241
3.39422e-07
0.000123449
3.37941e-07
3.30055e-07
0.000123664
0.000120353
1.00151e-07
0.000120487
2.85081e-07
0.000120687
4.22157e-07
0.000120931
5.00359e-07
0.0001212
5.26647e-07
0.000121482
5.13316e-07
0.000121765
4.72454e-07
0.000122045
4.15119e-07
0.000122317
3.50475e-07
0.000122579
2.85242e-07
0.000122831
2.2394e-07
0.000123073
1.69379e-07
0.000123303
1.23091e-07
0.000123524
8.56711e-08
0.000123735
5.70762e-08
0.000123939
3.68539e-08
0.000124135
2.42975e-08
0.000124324
1.85526e-08
0.000124509
1.86829e-08
0.000124689
2.37372e-08
0.000124867
3.27584e-08
0.000125042
4.47956e-08
0.000125217
5.89112e-08
0.000125392
7.41781e-08
0.000125569
8.96849e-08
0.000125748
1.04529e-07
0.00012593
1.17823e-07
0.000126116
1.28691e-07
0.000126306
1.36277e-07
0.000126502
1.39762e-07
0.000126703
1.38358e-07
0.00012691
1.31377e-07
1.18093e-07
0.000127122
0.000123787
5.66297e-08
0.000123911
1.60812e-07
0.000124099
2.33662e-07
0.000124333
2.66859e-07
0.000124595
2.64638e-07
0.000124873
2.35564e-07
0.000125157
1.88482e-07
0.00012544
1.31612e-07
0.000125719
7.18111e-08
0.00012599
1.41253e-08
0.000126252
-3.80882e-08
0.000126504
-8.28456e-08
0.000126747
-1.19188e-07
0.000126979
-1.46917e-07
0.000127203
-1.66347e-07
0.000127418
-1.78123e-07
0.000127625
-1.83088e-07
0.000127826
-1.82187e-07
0.000128021
-1.76408e-07
0.000128211
-1.66745e-07
0.000128398
-1.54175e-07
0.000128583
-1.39647e-07
0.000128766
-1.24079e-07
0.000128948
-1.08355e-07
0.000129131
-9.33307e-08
0.000129315
-7.98328e-08
0.000129502
-6.86568e-08
0.000129691
-6.05632e-08
0.000129884
-5.62749e-08
0.00013008
-5.64643e-08
0.00013028
-6.17588e-08
0.000130484
-7.26862e-08
-8.97906e-08
0.000130692
0.00012732
1.54084e-08
0.000127438
4.27092e-08
0.000127619
5.27318e-08
0.000127846
3.97145e-08
0.000128104
6.24272e-09
0.000128382
-4.18972e-08
0.000128669
-9.85272e-08
0.000128958
-1.57896e-07
0.000129245
-2.15254e-07
0.000129527
-2.67187e-07
0.0001298
-3.11565e-07
0.000130065
-3.473e-07
0.00013032
-3.74095e-07
0.000130565
-3.92228e-07
0.000130801
-4.02359e-07
0.000131028
-4.05383e-07
0.000131247
-4.02319e-07
0.000131459
-3.94236e-07
0.000131665
-3.82207e-07
0.000131866
-3.67273e-07
0.000132062
-3.5043e-07
0.000132255
-3.32625e-07
0.000132446
-3.14752e-07
0.000132635
-2.97651e-07
0.000132824
-2.82115e-07
0.000133013
-2.68889e-07
0.000133203
-2.58665e-07
0.000133394
-2.52091e-07
0.000133588
-2.49758e-07
0.000133783
-2.52195e-07
0.000133982
-2.59875e-07
0.000134182
-2.73164e-07
-2.92433e-07
0.000134385
0.000130955
-2.45809e-08
0.00013107
-7.21667e-08
0.000131247
-1.24604e-07
0.000131472
-1.85241e-07
0.000131731
-2.52444e-07
0.000132011
-3.22512e-07
0.000132304
-3.9149e-07
0.000132602
-4.55808e-07
0.0001329
-5.12674e-07
0.000133193
-5.60283e-07
0.000133479
-5.97757e-07
0.000133757
-6.24977e-07
0.000134025
-6.42386e-07
0.000134283
-6.50814e-07
0.000134532
-6.51333e-07
0.000134772
-6.45137e-07
0.000135003
-6.33463e-07
0.000135227
-6.17531e-07
0.000135443
-5.98512e-07
0.000135653
-5.7751e-07
0.000135858
-5.55545e-07
0.000136059
-5.33564e-07
0.000136257
-5.12431e-07
0.000136452
-4.92941e-07
0.000136646
-4.75816e-07
0.000136839
-4.61716e-07
0.000137031
-4.51234e-07
0.000137224
-4.44904e-07
0.000137418
-4.43192e-07
0.000137612
-4.46497e-07
0.000137807
-4.55157e-07
0.000138003
-4.69417e-07
-4.89507e-07
0.0001382
0.000134695
-6.43474e-08
0.000134809
-1.8664e-07
0.000134987
-3.0231e-07
0.000135214
-4.12407e-07
0.000135478
-5.15807e-07
0.000135766
-6.10423e-07
0.000136068
-6.94193e-07
0.000136378
-7.65521e-07
0.000136689
-8.23465e-07
0.000136996
-8.67807e-07
0.000137297
-8.98967e-07
0.00013759
-9.17862e-07
0.000137874
-9.25748e-07
0.000138147
-9.24081e-07
0.00013841
-9.14403e-07
0.000138663
-8.98262e-07
0.000138907
-8.7715e-07
0.000139142
-8.52469e-07
0.000139369
-8.25509e-07
0.000139589
-7.97443e-07
0.000139803
-7.69325e-07
0.000140011
-7.42097e-07
0.000140215
-7.16599e-07
0.000140416
-6.93572e-07
0.000140614
-6.73669e-07
0.000140809
-6.57463e-07
0.000141004
-6.45446e-07
0.000141197
-6.38039e-07
0.000141389
-6.35588e-07
0.000141581
-6.38365e-07
0.000141772
-6.46577e-07
0.000141963
-6.60328e-07
-6.79708e-07
0.000142154
0.000138543
-1.04898e-07
0.00013866
-3.03537e-07
0.000138842
-4.8441e-07
0.000139076
-6.463e-07
0.000139348
-7.8835e-07
0.000139648
-9.09806e-07
0.000139964
-1.01032e-06
0.000140288
-1.09017e-06
0.000140615
-1.15023e-06
0.000140939
-1.19189e-06
0.000141257
-1.21691e-06
0.000141567
-1.22732e-06
0.000141866
-1.22525e-06
0.000142155
-1.21283e-06
0.000142433
-1.19215e-06
0.0001427
-1.16514e-06
0.000142956
-1.13358e-06
0.000143203
-1.09909e-06
0.00014344
-1.06309e-06
0.00014367
-1.02682e-06
0.000143892
-9.91389e-07
0.000144107
-9.57733e-07
0.000144317
-9.26663e-07
0.000144523
-8.9887e-07
0.000144724
-8.74936e-07
0.000144922
-8.55346e-07
0.000145117
-8.40495e-07
0.000145309
-8.30696e-07
0.0001455
-8.26186e-07
0.000145689
-8.27124e-07
0.000145876
-8.33605e-07
0.000146061
-8.45648e-07
-8.63235e-07
0.000146245
0.000142502
-1.4735e-07
0.000142624
-4.26025e-07
0.000142815
-6.75577e-07
0.000143062
-8.92474e-07
0.000143349
-1.07602e-06
0.000143666
-1.22665e-06
0.000144001
-1.34564e-06
0.000144346
-1.43513e-06
0.000144694
-1.49783e-06
0.000145039
-1.5368e-06
0.000145377
-1.55527e-06
0.000145706
-1.55643e-06
0.000146024
-1.54339e-06
0.000146331
-1.51906e-06
0.000146625
-1.48609e-06
0.000146906
-1.44686e-06
0.000147176
-1.40348e-06
0.000147435
-1.35779e-06
0.000147683
-1.31135e-06
0.000147922
-1.2655e-06
0.000148152
-1.22138e-06
0.000148374
-1.17994e-06
0.000148589
-1.14194e-06
0.000148799
-1.10803e-06
0.000149002
-1.07872e-06
0.000149201
-1.05439e-06
0.000149396
-1.03536e-06
0.000149587
-1.02183e-06
0.000149775
-1.01392e-06
0.00014996
-1.01168e-06
0.000150141
-1.01508e-06
0.000150319
-1.02403e-06
-1.03839e-06
0.000150495
0.000146575
-1.9288e-07
0.000146706
-5.57434e-07
0.000146911
-8.8053e-07
0.000147175
-1.15621e-06
0.000147483
-1.38405e-06
0.000147822
-1.56579e-06
0.000148181
-1.70446e-06
0.00014855
-1.80413e-06
0.000148922
-1.86947e-06
0.00014929
-1.90533e-06
0.000149651
-1.91642e-06
0.000150002
-1.90725e-06
0.000150341
-1.88194e-06
0.000150666
-1.84424e-06
0.000150977
-1.79743e-06
0.000151275
-1.74439e-06
0.000151559
-1.68757e-06
0.00015183
-1.62905e-06
0.000152089
-1.57058e-06
0.000152337
-1.51358e-06
0.000152575
-1.45924e-06
0.000152804
-1.4085e-06
0.000153024
-1.3621e-06
0.000153237
-1.32062e-06
0.000153442
-1.2845e-06
0.000153642
-1.25406e-06
0.000153836
-1.22949e-06
0.000154025
-1.21089e-06
0.00015421
-1.1983e-06
0.00015439
-1.19166e-06
0.000154565
-1.19087e-06
0.000154737
-1.19576e-06
-1.20609e-06
0.000154905
0.000150766
-2.43226e-07
0.000150911
-7.02643e-07
0.000151137
-1.10664e-06
0.000151428
-1.44652e-06
0.000151766
-1.72231e-06
0.000152137
-1.93725e-06
0.000152529
-2.0963e-06
0.000152931
-2.20578e-06
0.000153334
-2.27263e-06
0.000153732
-2.30368e-06
0.000154121
-2.30539e-06
0.000154498
-2.28367e-06
0.00015486
-2.24381e-06
0.000155206
-2.19044e-06
0.000155536
-2.12755e-06
0.00015585
-2.05852e-06
0.000156149
-1.98617e-06
0.000156432
-1.91284e-06
0.000156702
-1.84044e-06
0.000156959
-1.77048e-06
0.000157204
-1.70418e-06
0.000157438
-1.64247e-06
0.000157662
-1.58607e-06
0.000157877
-1.53549e-06
0.000158084
-1.49109e-06
0.000158283
-1.45309e-06
0.000158475
-1.42159e-06
0.00015866
-1.39659e-06
0.00015884
-1.37802e-06
0.000159014
-1.36571e-06
0.000159183
-1.35946e-06
0.000159346
-1.35896e-06
-1.36389e-06
0.000159504
0.000155078
-2.99784e-07
0.000155241
-8.65765e-07
0.000155494
-1.35926e-06
0.000155816
-1.76891e-06
0.00015619
-2.09605e-06
0.000156599
-2.34602e-06
0.000157029
-2.52602e-06
0.000157468
-2.64492e-06
0.000157907
-2.71209e-06
0.00015834
-2.73657e-06
0.000158761
-2.72667e-06
0.000159168
-2.6899e-06
0.000159557
-2.63282e-06
0.000159927
-2.56106e-06
0.000160279
-2.47937e-06
0.000160612
-2.39169e-06
0.000160927
-2.30126e-06
0.000161225
-2.21069e-06
0.000161507
-2.12206e-06
0.000161773
-2.03697e-06
0.000162026
-1.95669e-06
0.000162265
-1.88212e-06
0.000162493
-1.81393e-06
0.00016271
-1.75256e-06
0.000162918
-1.69829e-06
0.000163116
-1.65123e-06
0.000163305
-1.6114e-06
0.000163488
-1.57869e-06
0.000163662
-1.55292e-06
0.000163831
-1.53386e-06
0.000163992
-1.52121e-06
0.000164148
-1.51463e-06
-1.51369e-06
0.000164298
0.000159518
-3.66832e-07
0.00015971
-1.05788e-06
0.000160005
-1.65454e-06
0.000160378
-2.14219e-06
0.000160807
-2.52446e-06
0.000161271
-2.8098e-06
0.000161753
-3.00869e-06
0.000162242
-3.13356e-06
0.000162727
-3.19696e-06
0.000163201
-3.21052e-06
0.000163659
-3.18471e-06
0.000164098
-3.12874e-06
0.000164515
-3.05052e-06
0.000164911
-2.95671e-06
0.000165284
-2.85282e-06
0.000165636
-2.74337e-06
0.000165967
-2.63197e-06
0.000166277
-2.52149e-06
0.00016657
-2.41416e-06
0.000166844
-2.31167e-06
0.000167103
-2.21528e-06
0.000167347
-2.12587e-06
0.000167577
-2.04405e-06
0.000167794
-1.97017e-06
0.000168
-1.90441e-06
0.000168196
-1.8468e-06
0.000168382
-1.79721e-06
0.000168559
-1.75546e-06
0.000168727
-1.72125e-06
0.000168887
-1.69424e-06
0.00016904
-1.674e-06
0.000169186
-1.66009e-06
-1.65195e-06
0.000169324
0.000164083
-4.4407e-07
0.000164306
-1.2809e-06
0.000164646
-1.99429e-06
0.000165072
-2.56844e-06
0.000165559
-3.0115e-06
0.000166085
-3.33523e-06
0.00016663
-3.5535e-06
0.000167179
-3.6827e-06
0.000167721
-3.73909e-06
0.000168248
-3.73742e-06
0.000168754
-3.69075e-06
0.000169236
-3.61038e-06
0.000169691
-3.50583e-06
0.000170119
-3.38496e-06
0.00017052
-3.25417e-06
0.000170896
-3.1186e-06
0.000171246
-2.98228e-06
0.000171573
-2.84831e-06
0.000171878
-2.71907e-06
0.000172162
-2.59629e-06
0.000172428
-2.4812e-06
0.000172677
-2.37463e-06
0.00017291
-2.27708e-06
0.000173129
-2.18879e-06
0.000173334
-2.10983e-06
0.000173527
-2.04009e-06
0.000173709
-1.97934e-06
0.000173881
-1.92728e-06
0.000174044
-1.88352e-06
0.000174197
-1.84763e-06
0.000174342
-1.8191e-06
0.000174479
-1.79747e-06
-1.78206e-06
0.00017461
0.000168797
-5.48953e-07
0.000169087
-1.57096e-06
0.000169515
-2.42294e-06
0.000170037
-3.09006e-06
0.000170617
-3.59154e-06
0.000171228
-3.94664e-06
0.00017185
-4.17554e-06
0.000172468
-4.30041e-06
0.000173071
-4.34179e-06
0.000173651
-4.3176e-06
0.000174204
-4.24347e-06
0.000174726
-4.1327e-06
0.000175217
-3.99635e-06
0.000175675
-3.84342e-06
0.000176102
-3.68113e-06
0.000176499
-3.5152e-06
0.000176866
-3.35005e-06
0.000177207
-3.18903e-06
0.000177523
-3.03461e-06
0.000177815
-2.88855e-06
0.000178086
-2.75204e-06
0.000178337
-2.62582e-06
0.00017857
-2.51028e-06
0.000178787
-2.40552e-06
0.000178989
-2.31147e-06
0.000179176
-2.22789e-06
0.000179351
-2.15441e-06
0.000179515
-2.0906e-06
0.000179667
-2.03596e-06
0.00017981
-1.98994e-06
0.000179942
-1.95192e-06
0.000180066
-1.9213e-06
-1.89725e-06
0.000180181
0.000173625
-6.62317e-07
0.000173961
-1.90755e-06
0.000174462
-2.92383e-06
0.000175077
-3.70509e-06
0.000175766
-4.28011e-06
0.000176492
-4.67243e-06
0.000177226
-4.90985e-06
0.000177949
-5.02311e-06
0.000178646
-5.03917e-06
0.000179309
-4.98077e-06
0.000179933
-4.86723e-06
0.000180515
-4.71462e-06
0.000181054
-4.5359e-06
0.000181552
-4.34141e-06
0.00018201
-4.13927e-06
0.000182431
-3.93573e-06
0.000182816
-3.73552e-06
0.00018317
-3.5421e-06
0.000183493
-3.35793e-06
0.000183789
-3.1847e-06
0.00018406
-3.02343e-06
0.000184309
-2.87469e-06
0.000184538
-2.73867e-06
0.000184747
-2.61529e-06
0.00018494
-2.50425e-06
0.000185117
-2.40515e-06
0.00018528
-2.31746e-06
0.00018543
-2.24061e-06
0.000185569
-2.17402e-06
0.000185696
-2.11705e-06
0.000185813
-2.06906e-06
0.000185921
-2.02943e-06
-1.99717e-06
0.000186021
0.000178685
-8.78399e-07
0.0001792
-2.42254e-06
0.000179883
-3.60768e-06
0.000180657
-4.47819e-06
0.000181477
-5.10065e-06
0.000182313
-5.50793e-06
0.000183139
-5.73632e-06
0.00018394
-5.8241e-06
0.000184704
-5.80303e-06
0.000185423
-5.69982e-06
0.000186093
-5.53729e-06
0.000186713
-5.33412e-06
0.000187282
-5.1052e-06
0.000187803
-4.86224e-06
0.000188278
-4.61424e-06
0.00018871
-4.36799e-06
0.000189103
-4.12844e-06
0.00018946
-3.89912e-06
0.000189784
-3.6824e-06
0.000190079
-3.47978e-06
0.000190348
-3.29207e-06
0.000190593
-3.11956e-06
0.000190816
-2.96216e-06
0.000191021
-2.81953e-06
0.000191207
-2.69113e-06
0.000191379
-2.5763e-06
0.000191536
-2.47434e-06
0.000191679
-2.3845e-06
0.000191811
-2.30607e-06
0.000191933
-2.23835e-06
0.000192044
-2.18067e-06
0.000192147
-2.13238e-06
-2.0924e-06
0.000192243
0.000183748
-1.05912e-06
0.000184347
-3.02132e-06
0.000185192
-4.45252e-06
0.000186179
-5.46567e-06
0.000187227
-6.14862e-06
0.000188272
-6.55281e-06
0.00018928
-6.74398e-06
0.000190235
-6.77929e-06
0.000191131
-6.69937e-06
0.000191968
-6.53622e-06
0.000192746
-6.31559e-06
0.000193469
-6.05744e-06
0.000194141
-5.7771e-06
0.000194765
-5.48631e-06
0.000195345
-5.19396e-06
0.000195884
-4.90661e-06
0.000196384
-4.62906e-06
0.00019685
-4.36464e-06
0.000197283
-4.11559e-06
0.000197686
-3.88324e-06
0.000198063
-3.66824e-06
0.000198414
-3.47071e-06
0.000198742
-3.29038e-06
0.000199049
-3.12672e-06
0.000199337
-2.97899e-06
0.000199607
-2.84636e-06
0.000199861
-2.72797e-06
0.000200099
-2.62295e-06
0.000200324
-2.53057e-06
0.000200535
-2.45014e-06
0.000200736
-2.38135e-06
0.000200927
-2.32359e-06
-2.27692e-06
0.000201112
0.00018942
-1.66751e-06
0.000190417
-4.01764e-06
0.000191512
-5.5477e-06
0.000192688
-6.64204e-06
0.000193951
-7.41161e-06
0.000195279
-7.88032e-06
0.00019665
-8.11497e-06
0.00019804
-8.17004e-06
0.000199425
-8.08404e-06
0.00020078
-7.89153e-06
0.000202087
-7.62265e-06
0.000203332
-7.30212e-06
0.000204505
-6.94986e-06
0.0002056
-6.58166e-06
0.000206616
-6.20972e-06
0.000207553
-5.84325e-06
0.000208413
-5.48898e-06