/*--------------------------------*- C++ -*----------------------------------*\
| =========                 |                                                 |
| \\      /  F ield         | OpenFOAM: The Open Source CFD Toolbox           |
|  \\    /   O peration     | Version:  2.1.1                                 |
|   \\  /    A nd           | Web:      www.OpenFOAM.org                      |
|    \\/     M anipulation  |                                                 |
\*---------------------------------------------------------------------------*/
FoamFile
{
    version     2.0;
    format      ascii;
    class       volVectorField;
    location    "0.09";
    object      U;
}
// * * * * * * * * * * * * * * * * * * * * * * * * * * * * * * * * * * * * * //

dimensions      [0 1 -1 0 0 0 0];

internalField   nonuniform List<vector> 
6820
(
(6.37582 0.503819 0)
(4.42338 0.286984 0)
(2.97117 0.02036 0)
(2.23017 -0.061703 0)
(1.96255 -0.0597145 0)
(1.83332 -0.0342491 0)
(1.75571 -0.014827 0)
(1.70061 -0.00444577 0)
(1.65394 0.00027468 0)
(1.61264 0.00181885 0)
(1.57607 0.00185573 0)
(1.54369 0.00132187 0)
(1.51494 0.000651441 0)
(1.48919 3.48736e-05 0)
(1.46583 -0.000453565 0)
(1.44432 -0.000796075 0)
(1.42414 -0.000999641 0)
(1.40487 -0.0010791 0)
(1.38611 -0.00104923 0)
(1.36748 -0.000921908 0)
(1.34862 -0.000705353 0)
(1.32918 -0.00040431 0)
(1.30881 -2.05425e-05 0)
(1.28713 0.000446838 0)
(1.26377 0.000999354 0)
(1.23833 0.00164316 0)
(1.21035 0.00236664 0)
(1.1795 0.00321329 0)
(1.14493 0.00401132 0)
(1.10764 0.00529349 0)
(1.06235 0.00508145 0)
(1.02435 0.0106319 0)
(0.943778 -0.0146098 0)
(8.72019 0.95989 0)
(8.76391 1.01255 0)
(7.96593 0.679909 0)
(7.04947 0.394988 0)
(6.34493 0.203728 0)
(5.83461 0.104857 0)
(5.46838 0.0596216 0)
(5.20236 0.0393827 0)
(5.00156 0.0304672 0)
(4.84374 0.0262442 0)
(4.71545 0.0238727 0)
(4.60823 0.0223106 0)
(4.51664 0.0211748 0)
(4.43697 0.020313 0)
(4.36659 0.0196599 0)
(4.30354 0.0191929 0)
(4.24631 0.0189116 0)
(4.19367 0.0188275 0)
(4.14458 0.0189591 0)
(4.09816 0.0193305 0)
(4.0536 0.0199712 0)
(4.01017 0.0209155 0)
(3.96716 0.0222031 0)
(3.92386 0.023879 0)
(3.87959 0.0259928 0)
(3.83362 0.0286032 0)
(3.78519 0.0317545 0)
(3.7335 0.0355608 0)
(3.67771 0.0398845 0)
(3.61694 0.0453509 0)
(3.55006 0.0501103 0)
(3.47723 0.0584507 0)
(3.39656 0.0608424 0)
(8.58612 0.583825 0)
(9.33106 0.763401 0)
(9.61311 0.66195 0)
(9.50088 0.528974 0)
(9.23137 0.39993 0)
(8.91466 0.302489 0)
(8.6038 0.234049 0)
(8.3221 0.185051 0)
(8.07389 0.149554 0)
(7.85695 0.1234 0)
(7.66754 0.103696 0)
(7.50178 0.0885982 0)
(7.35606 0.0769173 0)
(7.22727 0.067848 0)
(7.11272 0.0608156 0)
(7.01014 0.0554032 0)
(6.91758 0.0513127 0)
(6.83334 0.0483361 0)
(6.75598 0.0463332 0)
(6.68419 0.0452158 0)
(6.61684 0.0449371 0)
(6.55287 0.0454836 0)
(6.49133 0.0468705 0)
(6.43129 0.0491381 0)
(6.37186 0.0523496 0)
(6.31217 0.0565905 0)
(6.25131 0.0619611 0)
(6.18839 0.0686007 0)
(6.12239 0.0765732 0)
(6.05229 0.0862253 0)
(5.97687 0.0969613 0)
(5.89423 0.110262 0)
(5.8037 0.12317 0)
(8.44089 0.38005 0)
(8.94568 0.585155 0)
(9.3578 0.556597 0)
(9.58489 0.490074 0)
(9.69785 0.411102 0)
(9.73188 0.342883 0)
(9.71349 0.291269 0)
(9.66497 0.251952 0)
(9.59922 0.221329 0)
(9.52356 0.196849 0)
(9.44276 0.176701 0)
(9.35992 0.159792 0)
(9.2771 0.14544 0)
(9.19577 0.133199 0)
(9.1168 0.122789 0)
(9.04067 0.114012 0)
(8.96754 0.106721 0)
(8.89742 0.100805 0)
(8.83015 0.0961876 0)
(8.76548 0.0928222 0)
(8.70308 0.0906925 0)
(8.64254 0.0898095 0)
(8.58344 0.0902122 0)
(8.52527 0.0919671 0)
(8.46753 0.0951684 0)
(8.40964 0.0999405 0)
(8.35099 0.106432 0)
(8.29091 0.114839 0)
(8.22866 0.125334 0)
(8.16337 0.138282 0)
(8.09419 0.153692 0)
(8.0192 0.172515 0)
(7.93904 0.195393 0)
(8.40211 0.280469 0)
(8.71867 0.481903 0)
(8.99808 0.464046 0)
(9.17302 0.407553 0)
(9.29693 0.346602 0)
(9.38966 0.295299 0)
(9.4578 0.257456 0)
(9.5094 0.229082 0)
(9.54921 0.206883 0)
(9.5795 0.188982 0)
(9.60197 0.174148 0)
(9.61795 0.161623 0)
(9.62848 0.150963 0)
(9.63413 0.14187 0)
(9.6356 0.134138 0)
(9.63352 0.12763 0)
(9.62842 0.122261 0)
(9.62075 0.117988 0)
(9.61086 0.114798 0)
(9.59903 0.112708 0)
(9.58546 0.111762 0)
(9.5703 0.112029 0)
(9.55363 0.113602 0)
(9.53547 0.116604 0)
(9.51581 0.121184 0)
(9.49457 0.127523 0)
(9.47163 0.135836 0)
(9.44683 0.14638 0)
(9.41995 0.159441 0)
(9.39067 0.17541 0)
(9.35873 0.194682 0)
(9.32322 0.217998 0)
(9.28505 0.246433 0)
(8.37745 0.202631 0)
(8.60107 0.384935 0)
(8.81495 0.392992 0)
(8.94518 0.359646 0)
(9.0301 0.316365 0)
(9.09178 0.273986 0)
(9.13749 0.239308 0)
(9.17447 0.212021 0)
(9.20693 0.190358 0)
(9.23622 0.173004 0)
(9.26293 0.158892 0)
(9.28738 0.147231 0)
(9.30979 0.137526 0)
(9.33041 0.129453 0)
(9.34932 0.122769 0)
(9.36661 0.11731 0)
(9.38234 0.112981 0)
(9.3966 0.10973 0)
(9.40947 0.107545 0)
(9.42104 0.106441 0)
(9.43141 0.106465 0)
(9.44068 0.107688 0)
(9.44894 0.11021 0)
(9.45631 0.114157 0)
(9.46292 0.119684 0)
(9.46888 0.126979 0)
(9.47434 0.136264 0)
(9.47947 0.147805 0)
(9.48443 0.161909 0)
(9.48946 0.178956 0)
(9.49479 0.199414 0)
(9.50086 0.223883 0)
(9.5082 0.253156 0)
(8.36125 0.149306 0)
(8.52245 0.312877 0)
(8.69664 0.339578 0)
(8.81061 0.321173 0)
(8.8842 0.289132 0)
(8.93603 0.254188 0)
(8.97229 0.223847 0)
(8.99916 0.199328 0)
(9.02108 0.179491 0)
(9.03995 0.163323 0)
(9.05674 0.150014 0)
(9.07204 0.138938 0)
(9.08617 0.129667 0)
(9.09931 0.121915 0)
(9.11158 0.115491 0)
(9.12305 0.110269 0)
(9.13379 0.106167 0)
(9.14384 0.103138 0)
(9.15323 0.101163 0)
(9.16201 0.100254 0)
(9.17022 0.100443 0)
(9.17795 0.101791 0)
(9.18525 0.104379 0)
(9.19224 0.108314 0)
(9.19904 0.113729 0)
(9.20579 0.12078 0)
(9.2127 0.129655 0)
(9.22001 0.14057 0)
(9.22804 0.153775 0)
(9.23718 0.169567 0)
(9.24792 0.188271 0)
(9.26112 0.21031 0)
(9.27744 0.235868 0)
(8.35113 0.111916 0)
(8.46714 0.253204 0)
(8.60739 0.289224 0)
(8.70834 0.282263 0)
(8.77715 0.261213 0)
(8.82754 0.235115 0)
(8.86384 0.210416 0)
(8.89059 0.189243 0)
(8.91175 0.171356 0)
(8.92931 0.156307 0)
(8.94435 0.143675 0)
(8.95756 0.133053 0)
(8.96939 0.124128 0)
(8.98009 0.116675 0)
(8.98984 0.110532 0)
(8.99877 0.10558 0)
(9.00697 0.101738 0)
(9.01451 0.0989585 0)
(9.02145 0.0972243 0)
(9.02784 0.096542 0)
(9.03375 0.0969416 0)
(9.03924 0.0984742 0)
(9.04437 0.101211 0)
(9.04925 0.105245 0)
(9.05396 0.110685 0)
(9.05866 0.117661 0)
(9.06351 0.126322 0)
(9.06873 0.136834 0)
(9.07458 0.149377 0)
(9.08144 0.164148 0)
(9.08973 0.181324 0)
(9.10018 0.201116 0)
(9.11334 0.223391 0)
(8.34484 0.0852829 0)
(8.42912 0.205451 0)
(8.5414 0.246652 0)
(8.62936 0.248681 0)
(8.69235 0.235912 0)
(8.74021 0.216384 0)
(8.77616 0.195964 0)
(8.80344 0.177511 0)
(8.8253 0.161484 0)
(8.84356 0.147764 0)
(8.8592 0.136125 0)
(8.87289 0.126286 0)
(8.88509 0.117997 0)
(8.89608 0.111071 0)
(8.90606 0.105371 0)
(8.91516 0.100798 0)
(8.9235 0.0972874 0)
(8.93116 0.0948018 0)
(8.93823 0.0933291 0)
(8.94476 0.0928775 0)
(8.95083 0.0934746 0)
(8.95651 0.0951657 0)
(8.96189 0.0980126 0)
(8.96705 0.102093 0)
(8.97213 0.107499 0)
(8.97724 0.114336 0)
(8.98257 0.12272 0)
(8.98831 0.132774 0)
(8.99474 0.144622 0)
(9.00217 0.158384 0)
(9.01099 0.174135 0)
(9.02177 0.191946 0)
(9.03493 0.211585 0)
(8.34091 0.0660801 0)
(8.40282 0.167249 0)
(8.49251 0.209773 0)
(8.56844 0.217769 0)
(8.62557 0.211126 0)
(8.67047 0.197168 0)
(8.70547 0.18097 0)
(8.73275 0.165481 0)
(8.75487 0.151534 0)
(8.77347 0.139262 0)
(8.78947 0.128638 0)
(8.80353 0.119534 0)
(8.81608 0.111803 0)
(8.82743 0.105319 0)
(8.83777 0.0999874 0)
(8.84726 0.0957331 0)
(8.856 0.092505 0)
(8.86411 0.0902729 0)
(8.87165 0.0890255 0)
(8.87871 0.0887693 0)
(8.88536 0.0895268 0)
(8.89169 0.0913353 0)
(8.89779 0.0942457 0)
(8.90377 0.0983206 0)
(8.90975 0.103633 0)
(8.91588 0.110262 0)
(8.92233 0.118292 0)
(8.92932 0.127806 0)
(8.9371 0.138875 0)
(8.94598 0.151555 0)
(8.95629 0.165846 0)
(8.96853 0.181719 0)
(8.983 0.198916 0)
(8.33843 0.0519654 0)
(8.38448 0.136564 0)
(8.45616 0.178014 0)
(8.52137 0.190062 0)
(8.57293 0.1882 0)
(8.61477 0.17884 0)
(8.64847 0.16626 0)
(8.67542 0.153326 0)
(8.6976 0.141179 0)
(8.71643 0.130198 0)
(8.73274 0.120523 0)
(8.74713 0.11215 0)
(8.76003 0.105004 0)
(8.77173 0.0990046 0)
(8.78242 0.0940824 0)
(8.79228 0.0901791 0)
(8.80142 0.0872531 0)
(8.80994 0.0852792 0)
(8.81793 0.0842476 0)
(8.82549 0.0841633 0)
(8.83269 0.0850439 0)
(8.83963 0.0869189 0)
(8.84641 0.0898275 0)
(8.85315 0.093817 0)
(8.85997 0.0989403 0)
(8.86702 0.105253 0)
(8.87448 0.112807 0)
(8.88256 0.121648 0)
(8.8915 0.131805 0)
(8.90159 0.143279 0)
(8.91311 0.156019 0)
(8.92648 0.169936 0)
(8.94192 0.184763 0)
(8.33685 0.0413839 0)
(8.37158 0.111859 0)
(8.42902 0.150739 0)
(8.48476 0.165136 0)
(8.53104 0.166665 0)
(8.56981 0.160851 0)
(8.60202 0.151321 0)
(8.62849 0.14073 0)
(8.65066 0.130357 0)
(8.66969 0.120722 0)
(8.68632 0.112069 0)
(8.70108 0.10448 0)
(8.71435 0.0979494 0)
(8.72644 0.0924419 0)
(8.73753 0.0879191 0)
(8.74781 0.0843451 0)
(8.75738 0.0816918 0)
(8.76636 0.0799414 0)
(8.77485 0.0790868 0)
(8.78293 0.0791312 0)
(8.79071 0.0800871 0)
(8.79828 0.0819753 0)
(8.80574 0.0848233 0)
(8.81321 0.088663 0)
(8.82083 0.0935282 0)
(8.82875 0.0994507 0)
(8.83714 0.106456 0)
(8.8462 0.114556 0)
(8.85613 0.123743 0)
(8.86721 0.13398 0)
(8.87968 0.145178 0)
(8.89387 0.157212 0)
(8.90994 0.169823 0)
(8.33581 0.033285 0)
(8.3624 0.0918429 0)
(8.40863 0.127295 0)
(8.45618 0.14275 0)
(8.49756 0.146633 0)
(8.53334 0.143578 0)
(8.56394 0.136616 0)
(8.58976 0.128097 0)
(8.61178 0.119325 0)
(8.63093 0.110918 0)
(8.64782 0.103205 0)
(8.66293 0.096346 0)
(8.6766 0.090395 0)
(8.68911 0.0853584 0)
(8.70065 0.0812238 0)
(8.71138 0.077972 0)
(8.72143 0.0755845 0)
(8.73092 0.0740477 0)
(8.73993 0.0733548 0)
(8.74858 0.0735058 0)
(8.75696 0.0745072 0)
(8.76517 0.0763711 0)
(8.77331 0.079113 0)
(8.78152 0.0827501 0)
(8.78992 0.0872983 0)
(8.79865 0.0927682 0)
(8.80789 0.099161 0)
(8.81782 0.106463 0)
(8.82862 0.114636 0)
(8.84053 0.123616 0)
(8.85375 0.133292 0)
(8.86853 0.143521 0)
(8.88501 0.154057 0)
(8.33512 0.026955 0)
(8.35579 0.0754983 0)
(8.39324 0.107128 0)
(8.4338 0.122663 0)
(8.47071 0.128025 0)
(8.50361 0.126983 0)
(8.53254 0.122059 0)
(8.55758 0.11529 0)
(8.57935 0.107939 0)
(8.59854 0.100674 0)
(8.61566 0.0938729 0)
(8.6311 0.0877446 0)
(8.64516 0.0823846 0)
(8.6581 0.0778299 0)
(8.6701 0.0740891 0)
(8.6813 0.0711579 0)
(8.69185 0.0690269 0)
(8.70186 0.0676871 0)
(8.71142 0.0671323 0)
(8.72063 0.0673602 0)
(8.72961 0.0683717 0)
(8.73844 0.0701705 0)
(8.74725 0.0727613 0)
(8.75615 0.0761477 0)
(8.76528 0.0803295 0)
(8.77476 0.0852991 0)
(8.78476 0.0910375 0)
(8.79544 0.0975095 0)
(8.80697 0.104657 0)
(8.81954 0.112397 0)
(8.83332 0.120606 0)
(8.84852 0.129134 0)
(8.86521 0.137755 0)
(8.33464 0.0219053 0)
(8.35098 0.0620218 0)
(8.38156 0.0897215 0)
(8.41623 0.104619 0)
(8.44911 0.110752 0)
(8.47933 0.11111 0)
(8.5066 0.107772 0)
(8.53078 0.102467 0)
(8.55221 0.0963603 0)
(8.57138 0.0901256 0)
(8.58867 0.0841645 0)
(8.6044 0.0787163 0)
(8.61884 0.0739093 0)
(8.63219 0.0698061 0)
(8.64464 0.0664339 0)
(8.65633 0.0638008 0)
(8.66738 0.0619048 0)
(8.67791 0.0607399 0)
(8.68801 0.0602994 0)
(8.69779 0.0605775 0)
(8.70735 0.0615692 0)
(8.7168 0.0632698 0)
(8.72624 0.0656735 0)
(8.73579 0.0687715 0)
(8.74557 0.0725495 0)
(8.75572 0.0769847 0)
(8.76638 0.0820417 0)
(8.77769 0.0876696 0)
(8.78981 0.0937963 0)
(8.80288 0.100326 0)
(8.81705 0.107133 0)
(8.83248 0.114068 0)
(8.84922 0.120924 0)
(8.3343 0.0177961 0)
(8.34743 0.0507836 0)
(8.37266 0.074622 0)
(8.40241 0.0883748 0)
(8.43175 0.0947125 0)
(8.45949 0.0959474 0)
(8.48516 0.0937708 0)
(8.50845 0.0896271 0)
(8.52948 0.084562 0)
(8.54856 0.0792245 0)
(8.56598 0.0740208 0)
(8.58197 0.0692053 0)
(8.59676 0.0649253 0)
(8.61053 0.06126 0)
(8.62343 0.0582489 0)
(8.63559 0.0559083 0)
(8.64714 0.0542406 0)
(8.65818 0.0532415 0)
(8.66881 0.0529031 0)
(8.67914 0.0532158 0)
(8.68926 0.0541689 0)
(8.69928 0.05575 0)
(8.70931 0.0579442 0)
(8.71945 0.060732 0)
(8.72982 0.0640872 0)
(8.74055 0.0679748 0)
(8.75176 0.0723472 0)
(8.76358 0.0771423 0)
(8.77614 0.0822791 0)
(8.78957 0.0876573 0)
(8.80397 0.0931507 0)
(8.81947 0.0986173 0)
(8.83609 0.103872 0)
(8.33406 0.0143872 0)
(8.34479 0.0412907 0)
(8.36584 0.0614302 0)
(8.39154 0.0736907 0)
(8.41779 0.0797842 0)
(8.44331 0.0814568 0)
(8.46748 0.0800685 0)
(8.48988 0.0768108 0)
(8.51048 0.0725957 0)
(8.52945 0.0680257 0)
(8.54696 0.0634926 0)
(8.56319 0.0592511 0)
(8.57831 0.0554565 0)
(8.59247 0.0521974 0)
(8.6058 0.0495213 0)
(8.61843 0.0474496 0)
(8.63046 0.0459878 0)
(8.642 0.0451317 0)
(8.65315 0.0448716 0)
(8.664 0.045194 0)
(8.67466 0.0460828 0)
(8.68521 0.0475184 0)
(8.69577 0.0494776 0)
(8.70644 0.0519319 0)
(8.71733 0.0548457 0)
(8.72855 0.0581744 0)
(8.74021 0.0618618 0)
(8.75242 0.0658388 0)
(8.7653 0.07002 0)
(8.77894 0.0743043 0)
(8.79342 0.0785706 0)
(8.80885 0.0826865 0)
(8.82523 0.0864867 0)
(8.33388 0.0115051 0)
(8.3428 0.0331568 0)
(8.36061 0.0497994 0)
(8.383 0.0603391 0)
(8.4066 0.0658362 0)
(8.43015 0.0675811 0)
(8.45295 0.0666521 0)
(8.47452 0.0640197 0)
(8.4947 0.0604616 0)
(8.51352 0.0565199 0)
(8.53111 0.0525601 0)
(8.54755 0.0488264 0)
(8.56298 0.0454735 0)
(8.57752 0.0425929 0)
(8.59127 0.0402344 0)
(8.60435 0.0384215 0)
(8.61686 0.0371596 0)
(8.62888 0.0364431 0)
(8.64052 0.0362593 0)
(8.65186 0.0365904 0)
(8.66301 0.0374145 0)
(8.67405 0.0387058 0)
(8.68509 0.0404339 0)
(8.69622 0.0425627 0)
(8.70754 0.0450492 0)
(8.71915 0.0478419 0)
(8.73116 0.0508791 0)
(8.74365 0.0540877 0)
(8.75671 0.0573818 0)
(8.77044 0.0606626 0)
(8.78489 0.0638165 0)
(8.80013 0.0667223 0)
(8.81616 0.0692343 0)
(8.33374 0.00902164 0)
(8.34131 0.0260772 0)
(8.3566 0.0394299 0)
(8.37631 0.0481033 0)
(8.39769 0.0527292 0)
(8.41953 0.0542426 0)
(8.44112 0.0534865 0)
(8.46193 0.0512417 0)
(8.48171 0.048158 0)
(8.50041 0.0447092 0)
(8.51806 0.0412244 0)
(8.53471 0.0379284 0)
(8.55044 0.0349664 0)
(8.56534 0.0324261 0)
(8.57951 0.0303553 0)
(8.59303 0.0287753 0)
(8.60599 0.0276899 0)
(8.61847 0.0270907 0)
(8.63058 0.0269612 0)
(8.64238 0.0272793 0)
(8.65398 0.0280179 0)
(8.66547 0.0291456 0)
(8.67693 0.030626 0)
(8.68845 0.0324176 0)
(8.70013 0.0344719 0)
(8.71205 0.0367331 0)
(8.7243 0.0391365 0)
(8.73697 0.0416082 0)
(8.75012 0.0440641 0)
(8.76382 0.0464104 0)
(8.77812 0.0485426 0)
(8.79307 0.0503523 0)
(8.80866 0.0517124 0)
(8.33364 0.00683981 0)
(8.34017 0.019809 0)
(8.35353 0.0300621 0)
(8.37111 0.036779 0)
(8.39065 0.0403191 0)
(8.41106 0.0413492 0)
(8.43162 0.0405191 0)
(8.45176 0.0384483 0)
(8.47119 0.0356693 0)
(8.48979 0.0325846 0)
(8.50751 0.0294813 0)
(8.52437 0.0265577 0)
(8.5404 0.023944 0)
(8.55566 0.0217186 0)
(8.57023 0.0199234 0)
(8.58417 0.018575 0)
(8.59756 0.0176725 0)
(8.61048 0.0172029 0)
(8.62301 0.0171447 0)
(8.63524 0.0174707 0)
(8.64725 0.0181491 0)
(8.65912 0.0191429 0)
(8.67093 0.020411 0)
(8.68278 0.0219068 0)
(8.69473 0.0235782 0)
(8.70688 0.0253668 0)
(8.71929 0.0272071 0)
(8.73203 0.0290262 0)
(8.74516 0.0307438 0)
(8.75874 0.0322726 0)
(8.77279 0.0335181 0)
(8.78736 0.0343841 0)
(8.80243 0.0347608 0)
(8.33357 0.00488383 0)
(8.33932 0.014155 0)
(8.3512 0.02147 0)
(8.36711 0.0261725 0)
(8.38519 0.0284572 0)
(8.40443 0.0287934 0)
(8.42414 0.0276744 0)
(8.44375 0.0255841 0)
(8.46291 0.0229488 0)
(8.48145 0.0200993 0)
(8.49928 0.0172766 0)
(8.51637 0.0146478 0)
(8.5327 0.0123219 0)
(8.54833 0.0103631 0)
(8.56329 0.00880324 0)
(8.57764 0.00765114 0)
(8.59146 0.0068993 0)
(8.6048 0.0065294 0)
(8.61774 0.00651528 0)
(8.63036 0.00682469 0)
(8.64273 0.00742037 0)
(8.65494 0.00826155 0)
(8.66706 0.00930288 0)
(8.67916 0.010495 0)
(8.69132 0.011784 0)
(8.70361 0.0131104 0)
(8.7161 0.0144098 0)
(8.72883 0.0156124 0)
(8.74186 0.016643 0)
(8.75523 0.017422 0)
(8.76896 0.0178652 0)
(8.78308 0.0178892 0)
(8.79756 0.0174003 0)
(8.33351 0.00309279 0)
(8.3387 0.0089523 0)
(8.34947 0.0134543 0)
(8.36412 0.0161 0)
(8.38106 0.0169922 0)
(8.3994 0.0164587 0)
(8.41845 0.0148693 0)
(8.43767 0.0125951 0)
(8.45666 0.00996841 0)
(8.47521 0.00725247 0)
(8.49319 0.00463898 0)
(8.51051 0.00226064 0)
(8.52717 0.000201745 0)
(8.54315 -0.00149158 0)
(8.5585 -0.00280129 0)
(8.57325 -0.00372954 0)
(8.58746 -0.00429273 0)
(8.60119 -0.00451683 0)
(8.61451 -0.00443459 0)
(8.62747 -0.00408411 0)
(8.64016 -0.00350766 0)
(8.65265 -0.00275032 0)
(8.66501 -0.00186082 0)
(8.6773 -0.00089086 0)
(8.68959 0.000104409 0)
(8.70195 0.00106603 0)
(8.71442 0.00193147 0)
(8.72706 0.00263476 0)
(8.73991 0.00310657 0)
(8.75299 0.00327538 0)
(8.76633 0.00306702 0)
(8.77994 0.00240957 0)
(8.7938 0.00122404 0)
(8.33347 0.00141564 0)
(8.33825 0.00406113 0)
(8.34823 0.00583432 0)
(8.36197 0.00638252 0)
(8.37809 0.00576302 0)
(8.39578 0.0042049 0)
(8.4144 0.00197951 0)
(8.43338 -0.000637173 0)
(8.45233 -0.00339703 0)
(8.47098 -0.00610272 0)
(8.48918 -0.00861216 0)
(8.50681 -0.01083 0)
(8.52382 -0.0127 0)
(8.54019 -0.0141969 0)
(8.55595 -0.0153187 0)
(8.57111 -0.0160797 0)
(8.58571 -0.0165061 0)
(8.59982 -0.0166324 0)
(8.61348 -0.0164983 0)
(8.62677 -0.0161475 0)
(8.63975 -0.015626 0)
(8.65247 -0.0149825 0)
(8.66502 -0.0142679 0)
(8.67744 -0.013535 0)
(8.68981 -0.0128392 0)
(8.70216 -0.0122375 0)
(8.71456 -0.0117892 0)
(8.72704 -0.0115556 0)
(8.73964 -0.0115992 0)
(8.75237 -0.0119835 0)
(8.76526 -0.0127722 0)
(8.77831 -0.0140259 0)
(8.7915 -0.0158101 0)
(8.33344 -0.000191847 0)
(8.33795 -0.000641908 0)
(8.34742 -0.00155648 0)
(8.36055 -0.00315307 0)
(8.37615 -0.00538771 0)
(8.39346 -0.00809687 0)
(8.41185 -0.0110841 0)
(8.43077 -0.0141518 0)
(8.44979 -0.0171252 0)
(8.46864 -0.0198694 0)
(8.48712 -0.0222913 0)
(8.50509 -0.0243358 0)
(8.52248 -0.025979 0)
(8.53925 -0.0272211 0)
(8.55541 -0.02808 0)
(8.57096 -0.0285867 0)
(8.58594 -0.0287803 0)
(8.60039 -0.0287054 0)
(8.61437 -0.0284101 0)
(8.62793 -0.0279447 0)
(8.64114 -0.0273606 0)
(8.65405 -0.0267101 0)
(8.66672 -0.0260462 0)
(8.67922 -0.0254226 0)
(8.69158 -0.0248937 0)
(8.70388 -0.0245147 0)
(8.71613 -0.0243414 0)
(8.72839 -0.0244299 0)
(8.74068 -0.0248363 0)
(8.75301 -0.0256159 0)
(8.76541 -0.0268234 0)
(8.77787 -0.0285094 0)
(8.79039 -0.0307273 0)
(8.33343 -0.00177061 0)
(8.33779 -0.00527263 0)
(8.34697 -0.00888274 0)
(8.35981 -0.0126935 0)
(8.37517 -0.016657 0)
(8.39237 -0.0206557 0)
(8.41079 -0.0245549 0)
(8.42985 -0.0282264 0)
(8.44913 -0.0315633 0)
(8.46832 -0.0344894 0)
(8.4872 -0.036961 0)
(8.50562 -0.0389627 0)
(8.52347 -0.0405023 0)
(8.5407 -0.0416053 0)
(8.5573 -0.0423098 0)
(8.57327 -0.0426629 0)
(8.58863 -0.0427165 0)
(8.60344 -0.0425257 0)
(8.61772 -0.0421466 0)
(8.63154 -0.0416357 0)
(8.64495 -0.0410489 0)
(8.658 -0.0404416 0)
(8.67076 -0.0398685 0)
(8.68327 -0.0393834 0)
(8.69559 -0.0390396 0)
(8.70776 -0.0388896 0)
(8.71982 -0.0389853 0)
(8.7318 -0.0393771 0)
(8.74372 -0.0401146 0)
(8.75561 -0.041245 0)
(8.76747 -0.042814 0)
(8.77931 -0.0448624 0)
(8.79109 -0.0474323 0)
(8.33343 -0.00336065 0)
(8.33775 -0.00994343 0)
(8.34688 -0.0163028 0)
(8.35969 -0.0224079 0)
(8.3751 -0.0281897 0)
(8.39245 -0.0335559 0)
(8.4111 -0.038418 0)
(8.43049 -0.0427064 0)
(8.45018 -0.0463778 0)
(8.46982 -0.0494163 0)
(8.48919 -0.0518317 0)
(8.50809 -0.0536549 0)
(8.52643 -0.0549328 0)
(8.54414 -0.0557228 0)
(8.56119 -0.0560892 0)
(8.57757 -0.0560997 0)
(8.59331 -0.0558226 0)
(8.60844 -0.0553255 0)
(8.623 -0.0546743 0)
(8.63703 -0.0539325 0)
(8.6506 -0.0531607 0)
(8.66376 -0.0524175 0)
(8.67656 -0.0517586 0)
(8.68904 -0.0512376 0)
(8.70126 -0.050906 0)
(8.71326 -0.0508134 0)
(8.72508 -0.051007 0)
(8.73673 -0.0515323 0)
(8.74826 -0.0524321 0)
(8.75967 -0.0537465 0)
(8.77097 -0.0555133 0)
(8.78218 -0.0577654 0)
(8.79327 -0.0605352 0)
(8.33343 -0.0050036 0)
(8.33784 -0.0147769 0)
(8.34714 -0.0240087 0)
(8.36023 -0.0325524 0)
(8.37602 -0.04032 0)
(8.39384 -0.0472445 0)
(8.41306 -0.0532814 0)
(8.43308 -0.0584161 0)
(8.45342 -0.0626623 0)
(8.47375 -0.0660571 0)
(8.49379 -0.0686571 0)
(8.51334 -0.070534 0)
(8.5323 -0.0717691 0)
(8.55058 -0.0724493 0)
(8.56814 -0.0726631 0)
(8.58497 -0.0724982 0)
(8.60111 -0.0720395 0)
(8.61656 -0.0713677 0)
(8.63138 -0.0705592 0)
(8.64561 -0.0696849 0)
(8.65931 -0.0688115 0)
(8.67252 -0.0680007 0)
(8.68531 -0.0673101 0)
(8.69771 -0.0667933 0)
(8.70978 -0.0665004 0)
(8.72155 -0.066478 0)
(8.73307 -0.0667695 0)
(8.74435 -0.0674148 0)
(8.75543 -0.0684506 0)
(8.76632 -0.0699102 0)
(8.77702 -0.0718231 0)
(8.78755 -0.0742141 0)
(8.79789 -0.0771062 0)
(8.33345 -0.00674454 0)
(8.33804 -0.0198946 0)
(8.34775 -0.0321539 0)
(8.36138 -0.0432396 0)
(8.37782 -0.0530257 0)
(8.39638 -0.0614571 0)
(8.41637 -0.0685305 0)
(8.4372 -0.0742947 0)
(8.45835 -0.0788363 0)
(8.47947 -0.0822638 0)
(8.50028 -0.0846987 0)
(8.52057 -0.0862683 0)
(8.54019 -0.0871004 0)
(8.55908 -0.0873194 0)
(8.57719 -0.0870433 0)
(8.59451 -0.086383 0)
(8.61104 -0.0854406 0)
(8.62683 -0.08431 0)
(8.64191 -0.0830765 0)
(8.65632 -0.0818178 0)
(8.67013 -0.0806043 0)
(8.68338 -0.0794996 0)
(8.69613 -0.0785617 0)
(8.70843 -0.077843 0)
(8.72032 -0.0773912 0)
(8.73184 -0.0772493 0)
(8.74303 -0.0774563 0)
(8.75392 -0.078047 0)
(8.76453 -0.0790522 0)
(8.77489 -0.0804989 0)
(8.78501 -0.0824102 0)
(8.79489 -0.0848049 0)
(8.80454 -0.0876978 0)
(8.33348 -0.00864085 0)
(8.33842 -0.025483 0)
(8.34884 -0.0410854 0)
(8.36345 -0.0550491 0)
(8.38103 -0.0672381 0)
(8.40082 -0.0776183 0)
(8.42208 -0.0862169 0)
(8.44415 -0.0931242 0)
(8.46651 -0.0984745 0)
(8.48874 -0.102426 0)
(8.51057 -0.105148 0)
(8.53177 -0.106815 0)
(8.55221 -0.107598 0)
(8.5718 -0.107659 0)
(8.59051 -0.10715 0)
(8.60832 -0.106208 0)
(8.62526 -0.104958 0)
(8.64135 -0.103513 0)
(8.65665 -0.101972 0)
(8.6712 -0.100423 0)
(8.68506 -0.0989438 0)
(8.69829 -0.0976014 0)
(8.71094 -0.0964561 0)
(8.72306 -0.0955605 0)
(8.73471 -0.0949605 0)
(8.74591 -0.0946964 0)
(8.75672 -0.0948028 0)
(8.76716 -0.0953097 0)
(8.77726 -0.0962422 0)
(8.78703 -0.0976208 0)
(8.7965 -0.0994617 0)
(8.80568 -0.101777 0)
(8.81455 -0.104572 0)
(8.33353 -0.0107527 0)
(8.33892 -0.0316563 0)
(8.35028 -0.0507987 0)
(8.36612 -0.067596 0)
(8.38505 -0.0818897 0)
(8.40626 -0.0936985 0)
(8.42897 -0.103142 0)
(8.45247 -0.110423 0)
(8.47619 -0.115789 0)
(8.49973 -0.119491 0)
(8.52275 -0.121778 0)
(8.54503 -0.122885 0)
(8.56644 -0.12303 0)
(8.58687 -0.122411 0)
(8.6063 -0.121207 0)
(8.62471 -0.119576 0)
(8.64213 -0.117657 0)
(8.6586 -0.115574 0)
(8.67416 -0.113433 0)
(8.68888 -0.111326 0)
(8.70282 -0.109334 0)
(8.71604 -0.107527 0)
(8.72859 -0.105962 0)
(8.74054 -0.104692 0)
(8.75194 -0.103761 0)
(8.76282 -0.103203 0)
(8.77324 -0.103052 0)
(8.78323 -0.103331 0)
(8.79282 -0.104061 0)
(8.80204 -0.105258 0)
(8.8109 -0.106932 0)
(8.81943 -0.10909 0)
(8.82764 -0.111732 0)
(8.33361 -0.0131948 0)
(8.33981 -0.038891 0)
(8.35279 -0.0624056 0)
(8.37072 -0.0830329 0)
(8.39194 -0.100604 0)
(8.41546 -0.115114 0)
(8.44039 -0.126665 0)
(8.46593 -0.135486 0)
(8.49148 -0.14188 0)
(8.51662 -0.146173 0)
(8.54104 -0.148689 0)
(8.56452 -0.149741 0)
(8.58693 -0.14962 0)
(8.60819 -0.148585 0)
(8.6283 -0.146865 0)
(8.64724 -0.144659 0)
(8.66507 -0.142141 0)
(8.68182 -0.139455 0)
(8.69757 -0.136726 0)
(8.71237 -0.134058 0)
(8.72629 -0.131537 0)
(8.7394 -0.129236 0)
(8.75177 -0.127216 0)
(8.76346 -0.125524 0)
(8.77453 -0.124203 0)
(8.78501 -0.123285 0)
(8.79497 -0.122796 0)
(8.80444 -0.122757 0)
(8.81345 -0.123181 0)
(8.82204 -0.124078 0)
(8.83022 -0.125452 0)
(8.83801 -0.127305 0)
(8.84542 -0.129629 0)
(8.33367 -0.016028 0)
(8.34066 -0.0469516 0)
(8.35526 -0.07454 0)
(8.37527 -0.0979142 0)
(8.39876 -0.117119 0)
(8.4247 -0.132423 0)
(8.45212 -0.144173 0)
(8.48009 -0.152798 0)
(8.50795 -0.158736 0)
(8.5352 -0.162403 0)
(8.56151 -0.164183 0)
(8.58665 -0.164431 0)
(8.61048 -0.163462 0)
(8.63294 -0.161558 0)
(8.65402 -0.158965 0)
(8.67374 -0.155896 0)
(8.69216 -0.152535 0)
(8.70935 -0.149036 0)
(8.72539 -0.145532 0)
(8.74035 -0.142132 0)
(8.75432 -0.138926 0)
(8.76738 -0.13599 0)
(8.77961 -0.133384 0)
(8.79107 -0.131157 0)
(8.80183 -0.129347 0)
(8.81195 -0.127986 0)
(8.82148 -0.127095 0)
(8.83047 -0.126692 0)
(8.83895 -0.126786 0)
(8.84696 -0.127382 0)
(8.85454 -0.128481 0)
(8.86171 -0.130079 0)
(8.8685 -0.13216 0)
(8.33392 -0.019639 0)
(8.34297 -0.0579375 0)
(8.36124 -0.092485 0)
(8.38547 -0.122075 0)
(8.41305 -0.146505 0)
(8.44273 -0.165824 0)
(8.47343 -0.180351 0)
(8.50422 -0.190656 0)
(8.53449 -0.197376 0)
(8.56379 -0.201126 0)
(8.59183 -0.202478 0)
(8.61842 -0.201947 0)
(8.64346 -0.199977 0)
(8.66691 -0.196948 0)
(8.68878 -0.193176 0)
(8.70911 -0.188924 0)
(8.72798 -0.184409 0)
(8.74546 -0.179806 0)
(8.76165 -0.175257 0)
(8.77665 -0.170876 0)
(8.79054 -0.166753 0)
(8.80342 -0.162961 0)
(8.81537 -0.159556 0)
(8.82647 -0.156579 0)
(8.83679 -0.154064 0)
(8.84639 -0.152035 0)
(8.85535 -0.150508 0)
(8.8637 -0.149493 0)
(8.87149 -0.148997 0)
(8.87876 -0.149019 0)
(8.88555 -0.149554 0)
(8.89189 -0.150593 0)
(8.89779 -0.152114 0)
(8.33388 -0.0237576 0)
(8.34376 -0.0683472 0)
(8.36446 -0.105997 0)
(8.39213 -0.136457 0)
(8.42386 -0.160807 0)
(8.45815 -0.17972 0)
(8.49354 -0.193758 0)
(8.52876 -0.203578 0)
(8.563 -0.209805 0)
(8.59577 -0.213012 0)
(8.62674 -0.213738 0)
(8.65572 -0.212483 0)
(8.68267 -0.209692 0)
(8.70758 -0.205757 0)
(8.73052 -0.201019 0)
(8.75161 -0.195766 0)
(8.77094 -0.190239 0)
(8.78865 -0.184637 0)
(8.80487 -0.179121 0)
(8.81972 -0.17382 0)
(8.83333 -0.168833 0)
(8.8458 -0.16424 0)
(8.85724 -0.160097 0)
(8.86775 -0.156449 0)
(8.8774 -0.153326 0)
(8.88627 -0.150748 0)
(8.89443 -0.148728 0)
(8.90194 -0.147273 0)
(8.90885 -0.146383 0)
(8.9152 -0.146056 0)
(8.92106 -0.146281 0)
(8.92646 -0.147049 0)
(8.93145 -0.148323 0)
(8.33499 -0.0307246 0)
(8.35153 -0.0908599 0)
(8.38099 -0.143005 0)
(8.41622 -0.185048 0)
(8.45376 -0.217354 0)
(8.49265 -0.240738 0)
(8.53173 -0.256519 0)
(8.56992 -0.266177 0)
(8.60658 -0.270993 0)
(8.64128 -0.272044 0)
(8.67376 -0.270237 0)
(8.70389 -0.266317 0)
(8.73165 -0.260882 0)
(8.75709 -0.254412 0)
(8.78032 -0.247289 0)
(8.80147 -0.239819 0)
(8.8207 -0.232242 0)
(8.83818 -0.224748 0)
(8.85406 -0.217484 0)
(8.8685 -0.210562 0)
(8.88163 -0.204069 0)
(8.8936 -0.198066 0)
(8.90451 -0.192598 0)
(8.91448 -0.187697 0)
(8.92359 -0.183382 0)
(8.93193 -0.179664 0)
(8.93958 -0.176549 0)
(8.94659 -0.174039 0)
(8.95302 -0.172133 0)
(8.95893 -0.170827 0)
(8.96435 -0.170114 0)
(8.96936 -0.169983 0)
(8.97396 -0.170394 0)
(8.33404 -0.035788 0)
(8.35008 -0.0972641 0)
(8.38442 -0.144894 0)
(8.42781 -0.183396 0)
(8.47472 -0.214759 0)
(8.52272 -0.238739 0)
(8.56968 -0.255801 0)
(8.61438 -0.266852 0)
(8.65645 -0.272749 0)
(8.6958 -0.274367 0)
(8.73244 -0.27259 0)
(8.76651 -0.268229 0)
(8.79815 -0.261992 0)
(8.82754 -0.254478 0)
(8.85483 -0.246179 0)
(8.88019 -0.237489 0)
(8.90376 -0.228716 0)
(8.92566 -0.220097 0)
(8.94604 -0.211809 0)
(8.965 -0.203982 0)
(8.98268 -0.196707 0)
(8.99917 -0.190046 0)
(9.01457 -0.184036 0)
(9.02898 -0.178699 0)
(9.04247 -0.174042 0)
(9.05512 -0.170066 0)
(9.06699 -0.166765 0)
(9.07815 -0.164131 0)
(9.08865 -0.162159 0)
(9.09854 -0.160844 0)
(9.10789 -0.160189 0)
(9.11677 -0.160195 0)
(9.12526 -0.160831 0)
(8.33961 -0.0600174 0)
(8.37727 -0.168324 0)
(8.42695 -0.245767 0)
(8.4774 -0.297954 0)
(8.5306 -0.33198 0)
(8.58798 -0.352211 0)
(8.64795 -0.36273 0)
(8.70916 -0.366626 0)
(8.77067 -0.365858 0)
(8.8314 -0.361762 0)
(8.89036 -0.35529 0)
(8.94682 -0.347126 0)
(9.00027 -0.337781 0)
(9.05038 -0.327658 0)
(9.097 -0.31708 0)
(9.14008 -0.306317 0)
(9.17971 -0.295592 0)
(9.21602 -0.28509 0)
(9.24921 -0.274959 0)
(9.27948 -0.265319 0)
(9.30707 -0.256256 0)
(9.3322 -0.247836 0)
(9.35509 -0.2401 0)
(9.37593 -0.233074 0)
(9.39493 -0.226769 0)
(9.41224 -0.221185 0)
(9.428 -0.21632 0)
(9.44234 -0.212168 0)
(9.45536 -0.208734 0)
(9.46715 -0.206021 0)
(9.47782 -0.204085 0)
(9.48743 -0.202928 0)
(9.49617 -0.202728 0)
(8.33762 -0.0461619 0)
(8.39371 -0.119798 0)
(8.49426 -0.182906 0)
(8.60941 -0.243706 0)
(8.73165 -0.295733 0)
(8.85554 -0.335859 0)
(8.97421 -0.364845 0)
(9.08359 -0.383614 0)
(9.18153 -0.393342 0)
(9.26685 -0.395632 0)
(9.33931 -0.392114 0)
(9.39938 -0.384252 0)
(9.44792 -0.373307 0)
(9.48602 -0.360326 0)
(9.51488 -0.346147 0)
(9.5357 -0.331424 0)
(9.54963 -0.316654 0)
(9.55771 -0.30221 0)
(9.56087 -0.288355 0)
(9.55992 -0.275272 0)
(9.55558 -0.263078 0)
(9.54842 -0.251839 0)
(9.53895 -0.24158 0)
(9.52758 -0.232298 0)
(9.51464 -0.223969 0)
(9.5004 -0.216553 0)
(9.48507 -0.209999 0)
(9.46879 -0.204259 0)
(9.45168 -0.199293 0)
(9.43375 -0.195073 0)
(9.41514 -0.1917 0)
(9.39552 -0.189126 0)
(9.37563 -0.188392 0)
(8.40918 -0.220881 0)
(8.6349 -0.427192 0)
(8.83338 -0.520791 0)
(8.97782 -0.580738 0)
(9.07261 -0.612876 0)
(9.11681 -0.622843 0)
(9.11475 -0.618241 0)
(9.07581 -0.603152 0)
(9.00882 -0.580406 0)
(8.92118 -0.552556 0)
(8.81928 -0.521644 0)
(8.70841 -0.489235 0)
(8.59269 -0.456534 0)
(8.47525 -0.424438 0)
(8.3584 -0.393585 0)
(8.24377 -0.3644 0)
(8.13248 -0.337139 0)
(8.02525 -0.311935 0)
(7.92248 -0.288824 0)
(7.82435 -0.267777 0)
(7.73088 -0.24872 0)
(7.64197 -0.231548 0)
(7.55745 -0.216137 0)
(7.47711 -0.202353 0)
(7.40069 -0.190055 0)
(7.32792 -0.179098 0)
(7.25854 -0.16933 0)
(7.19224 -0.160605 0)
(7.12872 -0.152746 0)
(7.06755 -0.145587 0)
(7.00835 -0.139033 0)
(6.94998 -0.132185 0)
(6.89292 -0.12876 0)
(8.13719 -0.206913 0)
(7.84846 -0.387418 0)
(7.38741 -0.438492 0)
(6.86368 -0.438928 0)
(6.36615 -0.407511 0)
(5.89765 -0.35851 0)
(5.46074 -0.304177 0)
(5.06271 -0.25088 0)
(4.70458 -0.201813 0)
(4.38434 -0.158574 0)
(4.09959 -0.121593 0)
(3.84747 -0.0906383 0)
(3.62478 -0.0651691 0)
(3.42837 -0.0445005 0)
(3.25524 -0.0279159 0)
(3.1026 -0.01474 0)
(2.9679 -0.00437125 0)
(2.84885 0.00370696 0)
(2.74342 0.00992771 0)
(2.64981 0.0146479 0)
(2.56643 0.0181587 0)
(2.49189 0.0206963 0)
(2.425 0.022453 0)
(2.36469 0.0235863 0)
(2.31007 0.0242318 0)
(2.26036 0.0245079 0)
(2.21488 0.024546 0)
(2.17316 0.0244796 0)
(2.13463 0.02455 0)
(2.09943 0.0250934 0)
(2.06658 0.0264247 0)
(2.0382 0.0314701 0)
(2.01224 0.0254598 0)
(0.989616 0.0151081 0)
(1.34679 0.155381 0)
(1.77246 0.262005 0)
(2.04632 0.340577 0)
(2.14631 0.388432 0)
(2.09672 0.418739 0)
(1.96251 0.446424 0)
(1.81818 0.490198 0)
(1.724 0.562603 0)
(1.71113 0.662978 0)
(1.78752 0.776905 0)
(1.95262 0.884337 0)
(2.2106 0.963688 0)
(2.57143 0.988738 0)