/*--------------------------------*- C++ -*----------------------------------*\
| =========                 |                                                 |
| \\      /  F ield         | OpenFOAM: The Open Source CFD Toolbox           |
|  \\    /   O peration     | Version:  2.1.1                                 |
|   \\  /    A nd           | Web:      www.OpenFOAM.org                      |
|    \\/     M anipulation  |                                                 |
\*---------------------------------------------------------------------------*/
FoamFile
{
    version     2.0;
    format      ascii;
    class       volScalarField;
    location    "0.025";
    object      nuSgs;
}
// * * * * * * * * * * * * * * * * * * * * * * * * * * * * * * * * * * * * * //

dimensions      [0 2 -1 0 0 0 0];

internalField   nonuniform List<scalar> 
6820
(
0.000556014
0.000457434
0.000368219
0.000306276
0.000269168
0.000243652
0.000224916
0.000210632
0.00019914
0.000189534
0.0001813
0.000174106
0.000167732
0.000162022
0.000156864
0.000152171
0.000147878
0.000143934
0.000140298
0.000136934
0.00013382
0.000130931
0.000128244
0.000125743
0.000123414
0.000121245
0.000119225
0.000117346
0.000115594
0.000113981
0.000112477
0.00011099
0.000109175
0.000103489
0.00017064
0.000223616
0.000239992
0.000235263
0.00022494
0.000213298
0.000202078
0.00019192
0.000182842
0.000174724
0.000167432
0.000160844
0.000154856
0.000149383
0.000144358
0.000139721
0.000135427
0.000131432
0.000127705
0.000124216
0.000120942
0.000117862
0.000114961
0.000112225
0.000109638
0.000107189
0.000104859
0.000102651
0.000100501
9.85305e-05
9.62745e-05
9.50148e-05
3.67752e-05
2.84843e-05
4.55656e-05
8.21911e-05
0.000107781
0.000123333
0.000131728
0.000135555
0.00013664
0.000136054
0.000134438
0.000132188
0.000129551
0.00012669
0.000123711
0.000120686
0.00011766
0.000114664
0.000111718
0.000108837
0.000106025
0.000103284
0.000100617
9.80232e-05
9.54977e-05
9.30382e-05
9.06417e-05
8.83022e-05
8.60173e-05
8.37617e-05
8.15488e-05
7.92271e-05
7.70205e-05
2.07355e-05
2.8692e-05
2.65834e-05
1.51462e-05
3.67012e-06
1.36492e-05
2.53765e-05
3.50877e-05
4.28844e-05
4.90419e-05
5.38359e-05
5.75109e-05
6.02697e-05
6.2272e-05
6.365e-05
6.45139e-05
6.49539e-05
6.50444e-05
6.48462e-05
6.4409e-05
6.37739e-05
6.29754e-05
6.20417e-05
6.0991e-05
5.98344e-05
5.8587e-05
5.72625e-05
5.58712e-05
5.44234e-05
5.29203e-05
5.1375e-05
4.97942e-05
4.82827e-05
1.44168e-05
1.7595e-05
2.26144e-05
2.43092e-05
2.39925e-05
2.20427e-05
1.92027e-05
1.60138e-05
1.27102e-05
9.44268e-06
6.31907e-06
3.41622e-06
9.38396e-07
1.90818e-06
4.01654e-06
5.91002e-06
7.55935e-06
8.97062e-06
1.01565e-05
1.11319e-05
1.19122e-05
1.25129e-05
1.29491e-05
1.32376e-05
1.34e-05
1.34482e-05
1.33937e-05
1.32467e-05
1.30172e-05
1.27136e-05
1.23519e-05
1.19597e-05
1.15877e-05
1.09153e-05
1.25087e-05
1.38391e-05
1.43443e-05
1.51185e-05
1.57437e-05
1.61067e-05
1.63028e-05
1.6338e-05
1.62192e-05
1.59721e-05
1.56218e-05
1.51935e-05
1.47057e-05
1.41767e-05
1.36244e-05
1.30644e-05
1.25093e-05
1.19694e-05
1.14526e-05
1.09646e-05
1.05091e-05
1.00876e-05
9.70103e-06
9.3435e-06
9.0134e-06
8.70813e-06
8.42568e-06
8.16279e-06
7.91568e-06
7.6734e-06
7.42124e-06
7.12315e-06
8.23813e-06
9.438e-06
1.02672e-05
1.00697e-05
9.88089e-06
9.69985e-06
9.50943e-06
9.41193e-06
9.3963e-06
9.41831e-06
9.451e-06
9.47671e-06
9.48366e-06
9.46896e-06
9.43149e-06
9.37066e-06
9.28698e-06
9.18172e-06
9.05654e-06
8.91328e-06
8.75385e-06
8.57972e-06
8.39334e-06
8.19611e-06
7.99506e-06
7.79138e-06
7.58566e-06
7.37795e-06
7.16624e-06
6.94769e-06
6.71467e-06
6.46138e-06
6.16576e-06
6.35297e-06
7.41766e-06
8.23558e-06
8.10495e-06
7.79889e-06
7.46302e-06
7.08882e-06
6.76767e-06
6.51821e-06
6.31943e-06
6.15822e-06
6.02538e-06
5.9119e-06
5.81093e-06
5.71792e-06
5.62967e-06
5.54371e-06
5.45813e-06
5.37154e-06
5.28295e-06
5.19177e-06
5.09776e-06
5.00084e-06
4.90143e-06
4.79936e-06
4.69451e-06
4.58685e-06
4.47544e-06
4.35812e-06
4.23213e-06
4.09225e-06
3.93555e-06
3.74968e-06
4.99134e-06
5.86601e-06
6.56063e-06
6.56152e-06
6.3989e-06
6.1962e-06
5.91821e-06
5.63764e-06
5.39314e-06
5.18101e-06
4.99644e-06
4.83594e-06
4.6946e-06
4.56815e-06
4.45358e-06
4.34865e-06
4.25152e-06
4.16073e-06
4.0751e-06
3.99374e-06
3.91578e-06
3.84052e-06
3.76727e-06
3.69517e-06
3.62345e-06
3.55105e-06
3.47686e-06
3.39959e-06
3.31734e-06
3.22793e-06
3.12827e-06
3.01766e-06
2.89023e-06
3.98478e-06
4.71278e-06
5.32665e-06
5.40599e-06
5.30995e-06
5.16737e-06
4.95658e-06
4.73307e-06
4.53479e-06
4.36101e-06
4.20724e-06
4.07133e-06
3.9502e-06
3.84088e-06
3.74126e-06
3.64981e-06
3.56527e-06
3.4866e-06
3.41293e-06
3.34352e-06
3.27766e-06
3.21469e-06
3.15395e-06
3.09475e-06
3.03604e-06
2.9768e-06
2.91617e-06
2.85323e-06
2.78673e-06
2.7154e-06
2.63792e-06
2.55528e-06
2.46548e-06
3.2245e-06
3.83828e-06
4.3822e-06
4.50366e-06
4.4568e-06
4.36388e-06
4.21002e-06
4.03252e-06
3.86635e-06
3.71601e-06
3.58019e-06
3.45891e-06
3.35079e-06
3.25375e-06
3.16606e-06
3.08636e-06
3.01345e-06
2.94629e-06
2.88401e-06
2.82584e-06
2.77116e-06
2.71931e-06
2.66969e-06
2.62169e-06
2.57462e-06
2.52775e-06
2.48044e-06
2.43197e-06
2.3816e-06
2.32887e-06
2.27375e-06
2.21829e-06
2.1628e-06
2.63738e-06
3.1609e-06
3.65249e-06
3.8094e-06
3.80857e-06
3.75452e-06
3.64061e-06
3.49554e-06
3.35263e-06
3.22043e-06
3.09956e-06
2.99082e-06
2.89371e-06
2.80673e-06
2.72851e-06
2.65793e-06
2.59397e-06
2.53574e-06
2.48246e-06
2.43346e-06
2.3881e-06
2.34581e-06
2.30604e-06
2.26825e-06
2.23184e-06
2.19623e-06
2.16089e-06
2.12546e-06
2.08977e-06
2.05403e-06
2.01912e-06
1.98755e-06
1.96074e-06
2.17379e-06
2.62834e-06
3.08097e-06
3.26283e-06
3.29741e-06
3.27379e-06
3.19348e-06
3.07915e-06
2.9599e-06
2.84584e-06
2.73902e-06
2.64114e-06
2.55277e-06
2.47328e-06
2.40188e-06
2.33776e-06
2.28017e-06
2.22835e-06
2.18161e-06
2.13933e-06
2.10092e-06
2.06584e-06
2.0336e-06
2.00372e-06
1.97573e-06
1.94926e-06
1.92406e-06
1.90007e-06
1.8775e-06
1.85695e-06
1.8397e-06
1.82815e-06
1.82415e-06
1.80014e-06
2.20309e-06
2.62652e-06
2.82773e-06
2.89279e-06
2.89598e-06
2.84381e-06
2.75494e-06
2.65493e-06
2.55527e-06
2.45966e-06
2.37068e-06
2.28964e-06
2.21654e-06
2.15094e-06
2.0923e-06
2.04002e-06
1.99348e-06
1.95208e-06
1.91529e-06
1.88258e-06
1.8535e-06
1.82761e-06
1.80454e-06
1.78396e-06
1.76564e-06
1.7495e-06
1.73565e-06
1.72451e-06
1.71688e-06
1.71412e-06
1.71828e-06
1.73119e-06
1.49295e-06
1.85891e-06
2.26119e-06
2.47797e-06
2.56823e-06
2.59358e-06
2.56412e-06
2.49661e-06
2.41365e-06
2.32722e-06
2.24206e-06
2.16127e-06
2.08667e-06
2.01883e-06
1.95772e-06
1.90308e-06
1.85456e-06
1.8117e-06
1.77405e-06
1.74117e-06
1.71262e-06
1.68802e-06
1.66701e-06
1.6493e-06
1.63467e-06
1.62298e-06
1.6143e-06
1.60885e-06
1.60716e-06
1.61002e-06
1.61868e-06
1.63467e-06
1.65969e-06
1.2356e-06
1.57708e-06
1.96475e-06
2.19438e-06
2.30589e-06
2.35052e-06
2.34054e-06
2.29145e-06
2.22328e-06
2.14804e-06
2.07137e-06
1.99695e-06
1.92717e-06
1.86309e-06
1.80509e-06
1.75321e-06
1.70727e-06
1.667e-06
1.63205e-06
1.60207e-06
1.57672e-06
1.55568e-06
1.53865e-06
1.52543e-06
1.51585e-06
1.50986e-06
1.50758e-06
1.50925e-06
1.51537e-06
1.52663e-06
1.54405e-06
1.56867e-06
1.60201e-06
1.01608e-06
1.34419e-06
1.72284e-06
1.96349e-06
2.093e-06
2.15429e-06
2.16071e-06
2.12703e-06
2.07139e-06
2.00566e-06
1.93617e-06
1.86709e-06
1.80119e-06
1.73997e-06
1.68414e-06
1.63397e-06
1.58953e-06
1.5507e-06
1.51728e-06
1.48902e-06
1.46567e-06
1.44699e-06
1.43277e-06
1.42283e-06
1.41706e-06
1.41546e-06
1.41812e-06
1.42529e-06
1.43736e-06
1.45486e-06
1.47857e-06
1.5091e-06
1.54782e-06
8.25721e-07
1.15084e-06
1.5253e-06
1.77554e-06
1.92035e-06
1.9961e-06
2.01658e-06
1.99609e-06
1.95122e-06
1.89355e-06
1.82991e-06
1.76486e-06
1.70157e-06
1.6419e-06
1.58692e-06
1.5372e-06
1.49301e-06
1.45443e-06
1.42138e-06
1.39375e-06
1.37137e-06
1.35407e-06
1.3417e-06
1.3341e-06
1.33121e-06
1.33299e-06
1.33953e-06
1.35098e-06
1.36762e-06
1.3898e-06
1.41806e-06
1.45263e-06
1.4948e-06
6.58482e-07
9.90819e-07
1.36507e-06
1.62372e-06
1.7815e-06
1.86976e-06
1.90226e-06
1.89286e-06
1.85694e-06
1.80583e-06
1.74669e-06
1.68444e-06
1.62258e-06
1.56335e-06
1.50811e-06
1.45771e-06
1.41262e-06
1.3731e-06
1.33925e-06
1.31106e-06
1.28846e-06
1.27138e-06
1.25969e-06
1.25329e-06
1.25211e-06
1.25609e-06
1.26526e-06
1.27968e-06
1.29949e-06
1.32488e-06
1.35615e-06
1.39326e-06
1.43741e-06
5.1091e-07
8.60732e-07
1.23753e-06
1.50336e-06
1.67198e-06
1.77096e-06
1.81366e-06
1.81356e-06
1.78509e-06
1.73927e-06
1.68342e-06
1.62284e-06
1.5613e-06
1.50136e-06
1.44467e-06
1.39235e-06
1.3451e-06
1.30337e-06
1.26743e-06
1.23741e-06
1.21337e-06
1.1953e-06
1.18315e-06
1.17686e-06
1.17633e-06
1.18149e-06
1.19229e-06
1.20869e-06
1.2307e-06
1.25833e-06
1.29169e-06
1.33052e-06
1.37596e-06
3.8341e-07
7.59841e-07
1.14001e-06
1.4115e-06
1.58892e-06
1.69689e-06
1.74816e-06
1.75569e-06
1.73315e-06
1.69119e-06
1.63732e-06
1.57708e-06
1.51454e-06
1.45251e-06
1.39297e-06
1.33727e-06
1.28635e-06
1.24088e-06
1.2013e-06
1.16792e-06
1.14094e-06
1.12046e-06
1.10651e-06
1.09905e-06
1.09801e-06
1.10328e-06
1.11473e-06
1.1322e-06
1.15558e-06
1.1847e-06
1.21948e-06
1.25948e-06
1.30574e-06
2.8478e-07
6.89847e-07
1.07142e-06
1.34652e-06
1.53071e-06
1.64602e-06
1.70435e-06
1.71808e-06
1.70018e-06
1.66101e-06
1.60818e-06
1.54742e-06
1.48298e-06
1.41795e-06
1.35453e-06
1.29432e-06
1.23848e-06
1.18787e-06
1.14315e-06
1.10482e-06
1.07324e-06
1.04869e-06
1.03131e-06
1.02116e-06
1.01822e-06
1.02236e-06
1.03339e-06
1.05105e-06
1.07509e-06
1.10517e-06
1.14106e-06
1.18212e-06
1.22935e-06
2.40677e-07
6.54058e-07
1.03179e-06
1.30788e-06
1.49669e-06
1.61762e-06
1.68141e-06
1.69973e-06
1.68492e-06
1.64704e-06
1.59371e-06
1.53079e-06
1.46277e-06
1.39297e-06
1.32384e-06
1.2572e-06
1.19445e-06
1.13667e-06
1.08473e-06
1.03937e-06
1.00116e-06
9.70586e-07
9.48005e-07
9.33623e-07
9.27496e-07
9.29524e-07
9.39463e-07
9.56947e-07
9.81528e-07
1.01268e-06
1.04995e-06
1.09244e-06
1.14104e-06
2.7619e-07
6.55588e-07
1.02192e-06
1.29594e-06
1.48732e-06
1.61243e-06
1.6806e-06
1.70271e-06
1.69047e-06
1.65361e-06
1.59967e-06
1.53458e-06
1.46295e-06
1.38824e-06
1.31303e-06
1.23933e-06
1.16867e-06
1.10233e-06
1.04137e-06
9.86756e-07
9.3935e-07
8.99941e-07
8.69208e-07
8.47675e-07
8.35662e-07
8.33235e-07
8.40198e-07
8.56109e-07
8.80338e-07
9.12125e-07
9.50731e-07
9.95019e-07
1.04576e-06
3.72868e-07
6.95378e-07
1.04292e-06
1.31168e-06
1.50335e-06
1.63068e-06
1.70121e-06
1.72487e-06
1.71278e-06
1.67439e-06
1.61725e-06
1.54741e-06
1.46964e-06
1.38756e-06
1.30394e-06
1.22091e-06
1.14013e-06
1.06301e-06
9.90743e-07
9.24489e-07
8.65373e-07
8.14537e-07
7.73113e-07
7.42138e-07
7.22427e-07
7.14426e-07
7.18104e-07
7.32934e-07
7.5798e-07
7.92036e-07
8.33874e-07
8.81874e-07
9.36462e-07
5.03517e-07
7.7184e-07
1.09601e-06
1.35709e-06
1.54782e-06
1.67716e-06
1.75067e-06
1.77719e-06
1.76713e-06
1.72947e-06
1.67151e-06
1.59919e-06
1.51726e-06
1.42942e-06
1.33847e-06
1.24662e-06
1.15561e-06
1.06686e-06
9.81643e-07
9.01171e-07
8.26712e-07
7.59681e-07
7.01686e-07
6.54513e-07
6.19972e-07
5.99595e-07
5.94227e-07
6.03726e-07
6.2695e-07
6.62048e-07
7.06981e-07
7.59321e-07
8.19092e-07
6.58176e-07
8.83397e-07
1.18321e-06
1.43439e-06
1.62132e-06
1.74894e-06
1.82073e-06
1.8446e-06
1.8307e-06
1.78803e-06
1.72397e-06
1.64461e-06
1.55482e-06
1.45833e-06
1.35799e-06
1.25593e-06
1.1538e-06
1.05291e-06
9.54359e-07
8.59172e-07
7.68461e-07
6.83578e-07
6.06314e-07
5.39122e-07
4.85253e-07
4.48527e-07
4.32339e-07
4.38057e-07
4.64057e-07
5.06503e-07
5.61115e-07
6.23742e-07
6.93385e-07
8.36038e-07
1.02844e-06
1.30599e-06
1.54832e-06
1.73442e-06
1.86584e-06
1.94336e-06
1.97306e-06
1.96394e-06
1.92419e-06
1.86083e-06
1.77987e-06
1.68629e-06
1.58402e-06
1.47612e-06
1.36494e-06
1.25224e-06
1.13936e-06
1.02733e-06
9.16967e-07
8.0901e-07
7.0423e-07
6.03625e-07
5.08725e-07
4.22152e-07
3.48629e-07
2.96229e-07
2.75388e-07
2.91249e-07
3.37265e-07
4.02153e-07
4.76791e-07
5.5847e-07
1.04262e-06
1.21289e-06
1.47194e-06
1.70199e-06
1.87807e-06
1.99973e-06
2.06699e-06
2.08646e-06
2.06784e-06
2.01971e-06
1.94906e-06
1.86171e-06
1.76235e-06
1.65459e-06
1.54121e-06
1.42429e-06
1.30541e-06
1.18571e-06
1.06605e-06
9.47014e-07
8.29041e-07
7.12428e-07
5.97393e-07
4.84116e-07
3.72809e-07
2.63889e-07
1.58751e-07
6.74774e-08
8.09834e-08
1.73399e-07
2.71962e-07
3.69848e-07
4.6773e-07
1.28237e-06
1.43334e-06
1.67973e-06
1.91045e-06
2.09893e-06
2.23939e-06
2.32558e-06
2.36021e-06
2.3515e-06
2.30784e-06
2.23682e-06
2.14524e-06
2.03886e-06
1.92224e-06
1.7989e-06
1.67151e-06
1.54204e-06
1.41192e-06
1.28218e-06
1.15353e-06
1.02648e-06
9.01438e-07
7.78723e-07
6.58709e-07
5.41934e-07
4.29386e-07
3.23248e-07
2.29314e-07
1.6485e-07
1.63539e-07
2.23049e-07
3.07089e-07
4.00126e-07
1.57611e-06
1.7247e-06
1.95917e-06
2.16366e-06
2.31778e-06
2.42438e-06
2.4829e-06
2.4989e-06
2.48068e-06
2.43479e-06
2.36635e-06
2.28006e-06
2.18006e-06
2.06988e-06
1.95245e-06
1.83024e-06
1.70527e-06
1.5792e-06
1.45338e-06
1.32893e-06
1.20683e-06
1.08803e-06
9.7353e-07
8.64526e-07
7.62612e-07
6.70018e-07
5.89902e-07
5.26521e-07
4.84826e-07
4.68904e-07
4.79544e-07
5.13673e-07
5.65099e-07
1.91597e-06
2.04202e-06
2.29031e-06
2.54775e-06
2.77211e-06
2.94115e-06
3.04008e-06
3.07343e-06
3.05468e-06
2.99638e-06
2.90885e-06
2.80075e-06
2.67885e-06
2.54814e-06
2.41221e-06
2.27371e-06
2.13455e-06
1.99616e-06
1.85964e-06
1.72588e-06
1.59569e-06
1.46985e-06
1.34919e-06
1.23467e-06
1.12746e-06
1.02899e-06
9.41012e-07
8.65599e-07
8.05e-07
7.61343e-07
7.35998e-07
7.29386e-07
7.39779e-07
2.39674e-06
2.55586e-06
2.75131e-06
2.88526e-06
2.98842e-06
3.08192e-06
3.15519e-06
3.19998e-06
3.21421e-06
3.19712e-06
3.15015e-06
3.07728e-06
2.98349e-06
2.8737e-06
2.75241e-06
2.62356e-06
2.49042e-06
2.35567e-06
2.22144e-06
2.08947e-06
1.96119e-06
1.83781e-06
1.72043e-06
1.6101e-06
1.50786e-06
1.4148e-06
1.33201e-06
1.26063e-06
1.20169e-06
1.15607e-06
1.12421e-06
1.10676e-06
1.10135e-06
2.87293e-06
2.98762e-06
3.37692e-06
3.78508e-06
4.09045e-06
4.2715e-06
4.33755e-06
4.3197e-06
4.24794e-06
4.1406e-06
4.00897e-06
3.86108e-06
3.70252e-06
3.5372e-06
3.36815e-06
3.19796e-06
3.0288e-06
2.86256e-06
2.70083e-06
2.54497e-06
2.3961e-06
2.2552e-06
2.12308e-06
2.00046e-06
1.88799e-06
1.78624e-06
1.69573e-06
1.61685e-06
1.54987e-06
1.49489e-06
1.45161e-06
1.42016e-06
1.39825e-06
3.91319e-06
4.02262e-06
3.93643e-06
3.85887e-06
3.9586e-06
4.16618e-06
4.3578e-06
4.48301e-06
4.53813e-06
4.53298e-06
4.48416e-06
4.40986e-06
4.32471e-06
4.23867e-06
4.15771e-06
4.08463e-06
4.01995e-06
3.96284e-06
3.91182e-06
3.86518e-06
3.82131e-06
3.77885e-06
3.73668e-06
3.69399e-06
3.65017e-06
3.60484e-06
3.55777e-06
3.50883e-06
3.45801e-06
3.40553e-06
3.35145e-06
3.2978e-06
3.24123e-06
4.37352e-06
4.95025e-06
5.92734e-06
6.40649e-06
6.51511e-06
6.48346e-06
6.46718e-06
6.57196e-06
6.82718e-06
7.19965e-06
7.63795e-06
8.09618e-06
8.53946e-06
8.94449e-06
9.29797e-06
9.59381e-06
9.83079e-06
1.00108e-05
1.01374e-05
1.02154e-05
1.02497e-05
1.02455e-05
1.02074e-05
1.01401e-05
1.00475e-05
9.93312e-06
9.79999e-06
9.65059e-06
9.4871e-06
9.31109e-06
9.12422e-06
8.9297e-06
8.72555e-06
7.56568e-06
5.83082e-06
4.62511e-06
6.21285e-06
8.94299e-06
1.16524e-05
1.39828e-05
1.58737e-05
1.73244e-05
1.83501e-05
1.89884e-05
1.92883e-05
1.93007e-05
1.90761e-05
1.86626e-05
1.8104e-05
1.74386e-05
1.66996e-05
1.59144e-05
1.51057e-05
1.42914e-05
1.34856e-05
1.2699e-05
1.19394e-05
1.12123e-05
1.05212e-05
9.86783e-06
9.25239e-06
8.67424e-06
8.12954e-06
7.61761e-06
7.12743e-06
6.6597e-06
8.58382e-06
1.47202e-05
1.88144e-05
2.12098e-05
2.22915e-05
2.18124e-05
1.99487e-05
1.71523e-05
1.38882e-05
1.07677e-05
8.78285e-06
9.03145e-06
1.12949e-05
1.44622e-05
1.78344e-05
2.11057e-05
2.41442e-05
2.68937e-05
2.93349e-05
3.14679e-05
3.33037e-05
3.48592e-05
3.61543e-05
3.72102e-05
3.80483e-05
3.86896e-05
3.91544e-05
3.94628e-05
3.9634e-05
3.96922e-05
3.96547e-05
3.95806e-05
3.94625e-05
3.46484e-05
3.72222e-05
4.66595e-05
6.17821e-05
7.74801e-05
9.28613e-05
0.000107222
0.000119854
0.000130569
0.00013941
0.000146489
0.000151969
0.000156039
0.000158886
0.000160684
0.000161595
0.000161761
0.000161306
0.000160339
0.000158952
0.000157224
0.00015522
0.000152996
0.0001506
0.000148069
0.000145435
0.000142726
0.00013996
0.000137156
0.000134322
0.00013146
0.000128657
0.000125917
0.00060845
0.000582499
0.000556858
0.000530368
0.000504333
0.000479076
0.00045464
0.000431299
0.000409239
0.000388517
0.000369153
0.000351134
0.000334412
0.000318922
0.000304586
0.000291318
0.000279035
0.000267654
0.000257093
0.000247278
0.00023814
0.000229614
0.000221642
0.00021417
0.000207152
0.000200543
0.000194304
0.000188398
0.000182782
0.000177433
0.000172216
0.000167665
0.000163555
9.95432e-05
0.000102324
0.000107688
0.000102629
9.36791e-05
8.20551e-05
7.01727e-05
5.92859e-05
5.00854e-05
4.26909e-05
3.68314e-05
3.22696e-05
2.97572e-05
3.17556e-05
3.97149e-05
5.03496e-05
5.54649e-05
4.70458e-05
2.53123e-05
9.35008e-06
2.42143e-05
3.09049e-05
2.9453e-05
2.57373e-05
2.28355e-05
2.07911e-05
1.90213e-05
1.73253e-05
1.57252e-05
1.42477e-05
1.28815e-05
1.16044e-05
1.04091e-05
9.31039e-06
8.33507e-06
7.50206e-06
6.80677e-06
6.22185e-06
5.7114e-06
5.24655e-06
4.81249e-06
4.40628e-06
4.03035e-06
3.68691e-06
3.37535e-06
3.09201e-06
2.83142e-06
2.58794e-06
2.3574e-06
2.13806e-06
1.93046e-06
1.73642e-06
1.55772e-06
1.39517e-06
1.24851e-06
1.11669e-06
9.9839e-07
8.92309e-07
7.9731e-07
7.12381e-07
6.36589e-07
5.69075e-07
5.09042e-07
4.55768e-07
4.08596e-07
3.66916e-07
3.30153e-07
2.9777e-07
2.69266e-07
2.44173e-07
2.22099e-07
2.02711e-07
1.85739e-07
1.70912e-07
1.58087e-07
1.47096e-07
1.37804e-07
1.3007e-07
1.23743e-07
1.18657e-07
1.14634e-07
1.11498e-07
1.09091e-07
1.07282e-07
1.05969e-07
1.05062e-07
1.04487e-07
1.04162e-07
1.04048e-07
1.04049e-07
1.04236e-07
1.04389e-07
1.04943e-07
1.04993e-07
1.06409e-07
1.05376e-07
1.0955e-07
1.03521e-07
1.17068e-07
1.01418e-07
0.000120953
0.000117488
0.000117953
0.000119216
0.000118718
0.000115253
0.000109146
0.000101095
9.22159e-05
8.37442e-05
7.67366e-05
7.23875e-05
7.10108e-05
7.14523e-05
7.04209e-05
6.30721e-05
4.6014e-05
2.10423e-05
8.23014e-06
2.4708e-05
3.1263e-05
3.01044e-05
2.66322e-05
2.38018e-05
2.18141e-05
2.01291e-05
1.84998e-05
1.69227e-05
1.54342e-05
1.40445e-05
1.27436e-05
1.15178e-05
1.03636e-05
9.29688e-06
8.34553e-06
7.53017e-06
6.8479e-06
6.2724e-06
5.76821e-06
5.30666e-06
4.87334e-06
4.46592e-06
4.0875e-06
3.74087e-06
3.42589e-06
3.13927e-06
2.87575e-06
2.62976e-06
2.39698e-06
2.17546e-06
1.96557e-06
1.76908e-06
1.58783e-06
1.42277e-06
1.27371e-06
1.13964e-06
1.01924e-06
9.11209e-07
8.14387e-07
7.27776e-07
6.50468e-07
5.81607e-07
5.20388e-07
4.66054e-07
4.1791e-07
3.75319e-07
3.37708e-07
3.04563e-07
2.75423e-07
2.49856e-07
2.27482e-07
2.07954e-07
1.90958e-07
1.76201e-07
1.63467e-07
1.52502e-07
1.43113e-07
1.35122e-07
1.28371e-07
1.22699e-07
1.17971e-07
1.14047e-07
1.10805e-07
1.08146e-07
1.05979e-07
1.0423e-07
1.02845e-07
1.01756e-07
1.0094e-07
1.00312e-07
9.99291e-08
9.95483e-08
9.95796e-08
9.9096e-08
1.00013e-07
9.84017e-08
1.02303e-07
9.53205e-08
1.09238e-07
9.17109e-08
9.99561e-05
0.000100162
0.00010121
0.000102191
0.000103034
0.000103511
0.000103324
0.000102019
9.93737e-05
9.55064e-05
9.08229e-05
8.53965e-05
7.82778e-05
6.81059e-05
5.32194e-05
3.30749e-05
9.8777e-06
1.22871e-05
2.63709e-05
3.14392e-05
3.02681e-05
2.71007e-05
2.44237e-05
2.25438e-05
2.09957e-05
1.94924e-05
1.79946e-05
1.65388e-05
1.51529e-05
1.38455e-05
1.26109e-05
1.14379e-05
1.0325e-05
9.28947e-06
8.36146e-06
7.56355e-06
6.89441e-06
6.32855e-06
5.83075e-06
5.37249e-06
4.93976e-06
4.53089e-06
4.14967e-06
3.79953e-06
3.48079e-06
3.19053e-06
2.92372e-06
2.67485e-06
2.43948e-06
2.21544e-06
2.00294e-06
1.80367e-06
1.61955e-06
1.45165e-06
1.29989e-06
1.16332e-06
1.04063e-06
9.30485e-07
8.31721e-07
7.43313e-07
6.64344e-07
5.93959e-07
5.31361e-07
4.758e-07
4.26585e-07
3.83076e-07
3.44689e-07
3.10895e-07
2.81223e-07
2.5524e-07
2.32558e-07
2.1283e-07
1.95739e-07
1.80986e-07
1.68307e-07
1.57462e-07
1.48218e-07
1.40374e-07
1.33745e-07
1.28157e-07
1.23468e-07
1.19552e-07
1.16303e-07
1.13627e-07
1.1144e-07
1.09663e-07
1.08235e-07
1.07092e-07
1.0621e-07
1.05508e-07
1.05051e-07
1.04612e-07
1.04601e-07
1.04096e-07
1.04977e-07
1.03315e-07
1.07085e-07
9.99199e-08
1.13637e-07
9.57904e-08
6.26336e-05
6.27213e-05
6.34136e-05
6.44493e-05
6.54197e-05
6.60369e-05
6.62648e-05
6.59469e-05
6.4732e-05
6.2082e-05
5.74655e-05
5.00426e-05
3.95557e-05
2.59187e-05
9.87106e-06
7.25881e-06
2.1028e-05
2.93397e-05
3.1537e-05
2.9755e-05
2.68623e-05
2.45293e-05
2.2907e-05
2.1567e-05
2.02329e-05
1.88606e-05
1.74883e-05
1.615e-05
1.48643e-05
1.36391e-05
1.24708e-05
1.13506e-05
1.02789e-05
9.2752e-06
8.37135e-06
7.59192e-06
6.93704e-06
6.38197e-06
5.89163e-06
5.43758e-06
5.00615e-06
4.59632e-06
4.21263e-06
3.85918e-06
3.53679e-06
3.24291e-06
2.97277e-06
2.72095e-06
2.48294e-06
2.25636e-06
2.04122e-06
1.83916e-06
1.65216e-06
1.48139e-06
1.32691e-06
1.1878e-06
1.06277e-06
9.50468e-07
8.4971e-07
7.59462e-07
6.78793e-07
6.06836e-07
5.42782e-07
4.85876e-07
4.35425e-07
3.90792e-07
3.51395e-07
3.16704e-07
2.86243e-07
2.59573e-07
2.36301e-07
2.16071e-07
1.98558e-07
1.83457e-07
1.705e-07
1.59445e-07
1.50045e-07
1.42095e-07
1.35404e-07
1.29797e-07
1.25118e-07
1.21231e-07
1.18018e-07
1.15375e-07
1.13213e-07
1.11455e-07
1.10038e-07
1.08901e-07
1.08022e-07
1.07317e-07
1.06858e-07
1.06412e-07
1.06404e-07
1.05888e-07
1.06779e-07
1.05051e-07
1.08841e-07
1.01458e-07
1.15326e-07
9.71467e-08
1.51148e-05
1.53765e-05
1.60623e-05
1.6894e-05
1.75777e-05
1.80249e-05
1.81666e-05
1.78189e-05
1.66748e-05
1.45054e-05
1.13203e-05
8.47026e-06
9.88543e-06
1.58196e-05
2.26522e-05
2.79598e-05
3.03918e-05
2.99744e-05
2.79445e-05
2.5752e-05
2.41122e-05
2.29229e-05
2.18409e-05
2.06914e-05
1.94731e-05
1.82295e-05
1.69877e-05
1.5764e-05
1.45739e-05
1.34275e-05
1.23238e-05
1.12557e-05
1.02253e-05
9.25374e-06
8.37484e-06
7.6149e-06
6.9754e-06
6.43221e-06
5.95035e-06
5.50136e-06
5.07187e-06
4.66155e-06
4.27573e-06
3.9192e-06
3.59328e-06
3.29583e-06
3.02234e-06
2.76752e-06
2.52681e-06
2.29764e-06
2.07984e-06
1.87497e-06
1.68504e-06
1.51136e-06
1.3541e-06
1.2124e-06
1.08498e-06
9.70466e-07
8.6767e-07
7.75544e-07
6.9315e-07
6.19618e-07
5.54131e-07
4.95928e-07
4.44311e-07
3.98635e-07
3.58315e-07
3.22816e-07
2.91657e-07
2.64394e-07
2.40631e-07
2.20003e-07
2.02177e-07
1.86843e-07
1.73725e-07
1.62552e-07
1.53091e-07
1.45116e-07
1.38428e-07
1.32847e-07
1.28213e-07
1.24383e-07
1.21235e-07
1.1866e-07
1.16566e-07
1.14872e-07
1.13518e-07
1.12438e-07
1.11613e-07
1.10958e-07
1.10548e-07
1.10142e-07
1.10178e-07
1.09678e-07
1.1061e-07
1.08854e-07
1.12721e-07
1.05188e-07
1.19369e-07
1.00881e-07
9.01914e-06
8.65588e-06
8.06932e-06
7.58666e-06
7.71786e-06
8.68224e-06
1.02994e-05
1.22939e-05
1.45311e-05
1.69136e-05
1.93916e-05
2.18691e-05
2.41649e-05
2.59925e-05
2.70117e-05
2.70317e-05
2.62351e-05
2.51103e-05
2.41049e-05
2.33224e-05
2.25994e-05
2.17761e-05
2.08234e-05
1.97894e-05
1.87155e-05
1.7616e-05
1.6499e-05
1.53807e-05
1.42806e-05
1.32106e-05
1.21703e-05
1.11537e-05
1.01645e-05
9.2255e-06
8.37233e-06
7.63282e-06
7.00971e-06
6.47945e-06
6.00705e-06
5.56395e-06
5.13709e-06
4.72676e-06
4.33916e-06
3.97975e-06
3.65044e-06
3.34945e-06
3.07259e-06
2.8147e-06
2.57121e-06
2.3394e-06
2.11891e-06
1.9112e-06
1.71832e-06
1.54171e-06
1.38162e-06
1.2373e-06
1.10745e-06
9.90708e-07
8.85845e-07
7.91809e-07
7.07655e-07
6.32505e-07
5.65537e-07
5.05982e-07
4.53137e-07
4.06355e-07
3.65045e-07
3.2867e-07
2.96742e-07
2.68814e-07
2.4448e-07
2.23371e-07
2.05145e-07
1.89487e-07
1.76111e-07
1.64744e-07
1.55145e-07
1.47079e-07
1.40337e-07
1.34732e-07
1.30094e-07
1.26277e-07
1.23152e-07
1.20605e-07
1.18543e-07
1.16883e-07
1.15561e-07
1.14513e-07
1.13717e-07
1.13085e-07
1.12696e-07
1.12299e-07
1.1235e-07
1.11841e-07
1.12798e-07
1.10985e-07
1.14925e-07
1.0718e-07
1.21661e-07
1.02732e-07
7.77069e-06
7.44043e-06
7.01033e-06
6.74891e-06
7.03514e-06
8.02736e-06
9.56468e-06
1.14094e-05
1.33597e-05
1.53154e-05
1.71635e-05
1.88015e-05
2.01531e-05
2.11631e-05
2.18158e-05
2.21712e-05
2.23372e-05
2.23681e-05
2.22309e-05
2.18771e-05
2.13135e-05
2.05981e-05
1.97908e-05
1.89218e-05
1.79987e-05
1.70266e-05
1.60199e-05
1.49995e-05
1.39857e-05
1.29896e-05
1.2011e-05
1.1045e-05
1.00968e-05
9.19078e-06
8.364e-06
7.64583e-06
7.04009e-06
6.52376e-06
6.06176e-06
5.6254e-06
5.20181e-06
4.79197e-06
4.40292e-06
4.04088e-06
3.7083e-06
3.40382e-06
3.12355e-06
2.86253e-06
2.61618e-06
2.38167e-06
2.15844e-06
1.94786e-06
1.75199e-06
1.57239e-06
1.40943e-06
1.26243e-06
1.1301e-06
1.01107e-06
9.04096e-07
8.08111e-07
7.22165e-07
6.45374e-07
5.76907e-07
5.15992e-07
4.61917e-07
4.14033e-07
3.71746e-07
3.34516e-07
3.01849e-07
2.73293e-07
2.48437e-07
2.26905e-07
2.08347e-07
1.92442e-07
1.78893e-07
1.67425e-07
1.5777e-07
1.49689e-07
1.42964e-07
1.374e-07
1.32821e-07
1.29072e-07
1.26022e-07
1.23553e-07
1.21567e-07
1.19981e-07
1.1873e-07
1.17747e-07
1.17012e-07
1.16435e-07
1.16098e-07
1.15742e-07
1.15837e-07
1.15345e-07
1.16347e-07
1.14504e-07
1.18531e-07
1.10616e-07
1.25434e-07
1.06118e-07
4.71472e-06
4.52076e-06
4.33569e-06
4.39099e-06
4.94274e-06
6.00856e-06
7.43273e-06
9.06774e-06
1.07991e-05
1.25357e-05
1.42076e-05
1.5759e-05
1.71419e-05
1.83259e-05
1.92965e-05
2.00374e-05
2.05225e-05
2.07346e-05
2.0689e-05
2.04303e-05
2.00107e-05
1.94709e-05
1.88338e-05
1.81109e-05
1.73126e-05
1.64524e-05
1.55485e-05
1.46215e-05
1.36902e-05
1.27652e-05
1.18465e-05
1.09302e-05
1.00228e-05
9.15e-06
8.35025e-06
7.65421e-06
7.06677e-06
6.5653e-06
6.11461e-06
5.68577e-06
5.26612e-06
4.85726e-06
4.4671e-06
4.10265e-06
3.76693e-06
3.45901e-06
3.1753e-06
2.91106e-06
2.66176e-06
2.42446e-06
2.19844e-06
1.98494e-06
1.78604e-06
1.6034e-06
1.43752e-06
1.28779e-06
1.15295e-06
1.03159e-06
9.22476e-07
8.24511e-07
7.36743e-07
6.58281e-07
5.88287e-07
5.25981e-07
4.70645e-07
4.21625e-07
3.78327e-07
3.40203e-07
3.06758e-07
2.77534e-07
2.52113e-07
2.30112e-07
2.11177e-07
1.94976e-07
1.81207e-07
1.69578e-07
1.59823e-07
1.51693e-07
1.44958e-07
1.39412e-07
1.34871e-07
1.31175e-07
1.28185e-07
1.25779e-07
1.23858e-07
1.22333e-07
1.21141e-07
1.20213e-07
1.19528e-07
1.18993e-07
1.18693e-07
1.18362e-07
1.18487e-07
1.17999e-07
1.19035e-07
1.17146e-07
1.21256e-07
1.13131e-07
1.28279e-07
1.08494e-07
3.6703e-06
3.5968e-06
3.59372e-06
3.82694e-06
4.44305e-06
5.43206e-06
6.68815e-06
8.10863e-06
9.6169e-06
1.1152e-05
1.26594e-05
1.40909e-05
1.54049e-05
1.65646e-05
1.75348e-05
1.82862e-05
1.88068e-05
1.91025e-05
1.91905e-05
1.90938e-05
1.8838e-05
1.84474e-05
1.7942e-05
1.73382e-05
1.66506e-05
1.58943e-05
1.50868e-05
1.42477e-05
1.33948e-05
1.2538e-05
1.16775e-05
1.08099e-05
9.94297e-06
9.10361e-06
8.33143e-06
7.65829e-06
7.08999e-06
6.60427e-06
6.16573e-06
5.7452e-06
5.3301e-06
4.9227e-06
4.53177e-06
4.16514e-06
3.82642e-06
3.51509e-06
3.22791e-06
2.96036e-06
2.70801e-06
2.46782e-06
2.23893e-06
2.02246e-06
1.82048e-06
1.63475e-06
1.46589e-06
1.31338e-06
1.17596e-06
1.05225e-06
9.40943e-07
8.4096e-07
7.51333e-07
6.71167e-07
5.99617e-07
5.35895e-07
4.7928e-07
4.29113e-07
3.84795e-07
3.45778e-07
3.1156e-07
2.81679e-07
2.55713e-07
2.33272e-07
2.13996e-07
1.97546e-07
1.83609e-07
1.71885e-07
1.62094e-07
1.53973e-07
1.47283e-07
1.41806e-07
1.37353e-07
1.33754e-07
1.30865e-07
1.2856e-07
1.26735e-07
1.25302e-07
1.24196e-07
1.23346e-07
1.22733e-07
1.22262e-07
1.22021e-07
1.21736e-07
1.21909e-07
1.21442e-07
1.22526e-07
1.20605e-07
1.24811e-07
1.16496e-07
1.32007e-07
1.11773e-07
3.17319e-06
3.18536e-06
3.29256e-06
3.60557e-06
4.21008e-06
5.09732e-06
6.19873e-06
7.44267e-06
8.77031e-06
1.0131e-05
1.14793e-05
1.27746e-05
1.39802e-05
1.50631e-05
1.59954e-05
1.67556e-05
1.73284e-05
1.7707e-05
1.78958e-05
1.79097e-05
1.77686e-05
1.74919e-05
1.70972e-05
1.65998e-05
1.60135e-05
1.53531e-05
1.46353e-05
1.38788e-05
1.31003e-05
1.2309e-05
1.15047e-05
1.06849e-05
9.85796e-06
9.05214e-06
8.30803e-06
7.65849e-06
7.11012e-06
6.64094e-06
6.21534e-06
5.80382e-06
5.39389e-06
4.98842e-06
4.59706e-06
4.22846e-06
3.88686e-06
3.57216e-06
3.28146e-06
3.0105e-06
2.75497e-06
2.51178e-06
2.27994e-06
2.06042e-06
1.85531e-06
1.66643e-06
1.49454e-06
1.33918e-06
1.19915e-06
1.07302e-06
9.595e-07
8.57465e-07
7.65946e-07
6.84044e-07
6.10906e-07
5.4574e-07
4.87817e-07
4.36476e-07
3.91112e-07
3.51174e-07
3.16157e-07
2.85594e-07
2.59058e-07
2.36155e-07
2.16516e-07
1.99795e-07
1.85668e-07
1.73826e-07
1.63977e-07
1.55849e-07
1.49194e-07
1.43782e-07
1.39411e-07
1.35907e-07
1.33118e-07
1.30912e-07
1.29184e-07
1.27842e-07
1.2682e-07
1.26048e-07
1.25504e-07
1.25092e-07
1.24905e-07
1.24659e-07
1.24875e-07
1.24422e-07
1.25551e-07
1.23591e-07
1.27894e-07
1.19363e-07
1.35237e-07
1.14499e-07
2.83024e-06
2.9124e-06
3.09602e-06
3.45211e-06
4.03083e-06
4.82651e-06
5.7952e-06
6.88663e-06
8.05623e-06
9.26422e-06
1.04737e-05
1.16505e-05
1.2763e-05
1.37822e-05
1.46814e-05
1.54373e-05
1.6033e-05
1.64608e-05
1.67217e-05
1.6823e-05
1.67767e-05
1.65972e-05
1.62991e-05
1.58962e-05
1.54014e-05
1.48288e-05
1.41944e-05
1.35155e-05
1.28077e-05
1.2079e-05
1.13291e-05
1.05557e-05
9.76841e-06
8.99618e-06
8.28057e-06
7.65527e-06
7.12753e-06
6.67563e-06
6.26369e-06
5.86184e-06
5.45765e-06
5.05455e-06
4.66308e-06
4.29273e-06
3.94836e-06
3.63032e-06
3.33605e-06
3.06157e-06
2.80271e-06
2.5564e-06
2.32148e-06
2.09885e-06
1.89054e-06
1.69845e-06
1.52346e-06
1.3652e-06
1.2225e-06
1.09392e-06
9.78133e-07
8.74006e-07
7.80558e-07
6.96883e-07
6.22127e-07
5.55489e-07
4.96236e-07
4.437e-07
3.97276e-07
3.56407e-07
3.20585e-07
2.89341e-07
2.62244e-07
2.38893e-07
2.18915e-07
2.01955e-07
1.87677e-07
1.75762e-07
1.65905e-07
1.57823e-07
1.51252e-07
1.45951e-07
1.41709e-07
1.3834e-07
1.35686e-07
1.33612e-07
1.32008e-07
1.30782e-07
1.29867e-07
1.2919e-07
1.28734e-07
1.28397e-07
1.2828e-07
1.28089e-07
1.28361e-07
1.27935e-07
1.29118e-07
1.27127e-07
1.31537e-07
1.22801e-07
1.39068e-07
1.17824e-07
2.60868e-06
2.74111e-06
2.96975e-06
3.33919e-06
3.88047e-06
4.59205e-06
5.44699e-06
6.41058e-06
7.44896e-06
8.52995e-06
9.62253e-06
1.06971e-05
1.17256e-05
1.26816e-05
1.35408e-05
1.42822e-05
1.48892e-05
1.5351e-05
1.56636e-05
1.583e-05
1.58584e-05
1.57595e-05
1.55447e-05
1.52255e-05
1.48135e-05
1.43216e-05
1.37647e-05
1.31587e-05
1.25178e-05
1.1849e-05