/*--------------------------------*- C++ -*----------------------------------*\
| =========                 |                                                 |
| \\      /  F ield         | OpenFOAM: The Open Source CFD Toolbox           |
|  \\    /   O peration     | Version:  2.1.1                                 |
|   \\  /    A nd           | Web:      www.OpenFOAM.org                      |
|    \\/     M anipulation  |                                                 |
\*---------------------------------------------------------------------------*/
FoamFile
{
    version     2.0;
    format      ascii;
    class       volScalarField;
    location    "0.025";
    object      p;
}
// * * * * * * * * * * * * * * * * * * * * * * * * * * * * * * * * * * * * * //

dimensions      [0 2 -2 0 0 0 0];

internalField   nonuniform List<scalar> 
6820
(
9.61915
-8.21771
-11.2295
-11.4203
-11.5968
-11.5275
-11.4749
-11.4914
-11.5428
-11.6135
-11.6951
-11.7821
-11.8722
-11.964
-12.0568
-12.1502
-12.2438
-12.3374
-12.4305
-12.523
-12.6148
-12.7054
-12.7947
-12.8821
-12.9673
-13.0499
-13.1295
-13.2054
-13.2779
-13.3435
-13.411
-13.4507
-13.5501
2.93866
-8.03579
-10.9174
-11.2214
-11.478
-11.5049
-11.489
-11.5168
-11.57
-11.6378
-11.7154
-11.7989
-11.886
-11.9754
-12.0665
-12.1586
-12.2513
-12.3443
-12.437
-12.5293
-12.6208
-12.7114
-12.8009
-12.8884
-12.9737
-13.0565
-13.1363
-13.2125
-13.2851
-13.3518
-13.4176
-13.4655
-13.5519
0.225078
-6.60416
-9.89535
-10.6572
-11.1296
-11.3314
-11.3943
-11.4549
-11.5274
-11.6076
-11.6939
-11.784
-11.876
-11.9692
-12.0628
-12.1567
-12.2506
-12.3443
-12.4375
-12.53
-12.6218
-12.7124
-12.8016
-12.8894
-12.975
-13.0579
-13.1379
-13.2141
-13.2863
-13.3521
-13.4123
-13.4502
-13.4664
-1.75932
-6.37578
-9.47205
-10.3348
-10.8107
-11.0912
-11.2241
-11.3287
-11.4321
-11.5327
-11.6319
-11.7306
-11.8289
-11.9268
-12.0245
-12.1217
-12.2183
-12.3143
-12.4094
-12.5035
-12.5966
-12.6883
-12.7783
-12.8664
-12.9522
-13.0356
-13.1163
-13.1932
-13.2656
-13.3312
-13.388
-13.4245
-13.4324
-3.39376
-6.47506
-9.07888
-9.98561
-10.4969
-10.8564
-11.059
-11.2027
-11.3301
-11.4468
-11.557
-11.6641
-11.7687
-11.8713
-11.9724
-12.0723
-12.1711
-12.2686
-12.3649
-12.4599
-12.5536
-12.6457
-12.7362
-12.8244
-12.9103
-12.9938
-13.0743
-13.1511
-13.2234
-13.2891
-13.3459
-13.3867
-13.4062
-4.61518
-6.65474
-8.82659
-9.77383
-10.304
-10.6904
-10.9276
-11.0939
-11.2371
-11.3662
-11.4856
-11.5993
-11.7091
-11.8159
-11.9202
-12.0223
-12.1227
-12.2214
-12.3185
-12.414
-12.5079
-12.6002
-12.6906
-12.7795
-12.8666
-12.951
-13.0324
-13.1103
-13.1842
-13.2523
-13.3132
-13.3633
-13.4013
-5.56451
-6.93974
-8.70766
-9.6174
-10.135
-10.5293
-10.7964
-10.9878
-11.1487
-11.2909
-11.4198
-11.5403
-11.6552
-11.7657
-11.8729
-11.9773
-12.0795
-12.1796
-12.2778
-12.3741
-12.4688
-12.5616
-12.6528
-12.7421
-12.8293
-12.914
-12.996
-13.0752
-13.151
-13.2224
-13.2887
-13.3485
-13.4022
-6.30894
-7.2443
-8.65473
-9.49968
-10.0055
-10.4012
-10.6868
-10.8952
-11.0678
-11.2191
-11.3552
-11.4813
-11.6005
-11.7146
-11.8246
-11.9313
-12.0352
-12.1366
-12.2358
-12.3329
-12.428
-12.5213
-12.6126
-12.7021
-12.7898
-12.8754
-12.9588
-13.0399
-13.1185
-13.1942
-13.2669
-13.3365
-13.4047
-6.89944
-7.54617
-8.66299
-9.42751
-9.91069
-10.2944
-10.5862
-10.8058
-10.9881
-11.1479
-11.2911
-11.4228
-11.5466
-11.6643
-11.7771
-11.886
-11.9917
-12.0945
-12.1947
-12.2927
-12.3885
-12.4824
-12.5743
-12.6645
-12.7529
-12.8395
-12.9243
-13.0073
-13.0888
-13.1687
-13.2476
-13.3261
-13.4066
-7.37385
-7.82968
-8.70894
-9.38462
-9.8386
-10.2063
-10.4986
-10.7259
-10.9154
-11.0815
-11.2301
-11.3664
-11.4938
-11.6144
-11.7296
-11.8405
-11.9477
-12.0517
-12.1529
-12.2516
-12.348
-12.4424
-12.5347
-12.6254
-12.7144
-12.8019
-12.8881
-12.9732
-13.0575
-13.1416
-13.2263
-13.3127
-13.4033
-7.75906
-8.08715
-8.77877
-9.36718
-9.78853
-10.1367
-10.4233
-10.6532
-10.8467
-11.0171
-11.1702
-11.3103
-11.4411
-11.5646
-11.6822
-11.795
-11.9037
-12.009
-12.1112
-12.2107
-12.3077
-12.4026
-12.4955
-12.5868
-12.6765
-12.765
-12.8526
-12.9397
-13.0267
-13.1144
-13.2039
-13.2965
-13.3947
-8.07473
-8.31622
-8.8616
-9.3683
-9.75454
-10.081
-10.3583
-10.5875
-10.7831
-10.9565
-11.1129
-11.2562
-11.3898
-11.5157
-11.6353
-11.7497
-11.8598
-11.9661
-12.0691
-12.1693
-12.2668
-12.3621
-12.4554
-12.5471
-12.6374
-12.7266
-12.8153
-12.9039
-12.9931
-13.0837
-13.1769
-13.2741
-13.3777
-8.33518
-8.51695
-8.94931
-9.38267
-9.73354
-10.0377
-10.3032
-10.5289
-10.7245
-10.8992
-11.0576
-11.2033
-11.3391
-11.467
-11.5884
-11.7044
-11.8157
-11.923
-12.0268
-12.1275
-12.2255
-12.3212
-12.4149
-12.5069
-12.5976
-12.6875
-12.777
-12.8668
-12.9576
-13.0503
-13.146
-13.2462
-13.3528
-8.55098
-8.69081
-9.03626
-9.40567
-9.72217
-10.004
-10.2562
-10.4763
-10.6702
-10.8451
-11.0047
-11.1521
-11.2897
-11.4192
-11.5422
-11.6594
-11.7718
-11.8799
-11.9843
-12.0855
-12.1838
-12.2797
-12.3735
-12.4656
-12.5565
-12.6466
-12.7366
-12.8269
-12.9185
-13.0122
-13.1092
-13.2106
-13.3182
-8.72995
-8.83978
-9.11852
-9.43338
-9.71758
-9.9778
-10.2162
-10.4292
-10.6202
-10.7941
-10.9541
-11.1025
-11.2413
-11.3722
-11.4963
-11.6146
-11.7279
-11.8367
-11.9416
-12.0431
-12.1416
-12.2375
-12.3313
-12.4233
-12.5141
-12.6042
-12.6941
-12.7845
-12.8762
-12.9699
-13.0669
-13.168
-13.2748
-8.87798
-8.96595
-9.19348
-9.46258
-9.71724
-9.95704
-10.1816
-10.3868
-10.5739
-10.7461
-10.9057
-11.0545
-11.1941
-11.326
-11.4511
-11.5703
-11.6842
-11.7936
-11.8988
-12.0005
-12.0989
-12.1947
-12.2882
-12.3799
-12.4702
-12.5597
-12.649
-12.7388
-12.8297
-12.9225
-13.0181
-13.1175
-13.2219
-8.99946
-9.07125
-9.25943
-9.49066
-9.71894
-9.93987
-10.1511
-10.3482
-10.5307
-10.7006
-10.8593
-11.0081
-11.1483
-11.2808
-11.4066
-11.5264
-11.6409
-11.7506
-11.856
-11.9576
-12.0559
-12.1513
-12.2442
-12.3352
-12.4248
-12.5133
-12.6015
-12.69
-12.7793
-12.8702
-12.9635
-13.0599
-13.1604
-9.09773
-9.1574
-9.31527
-9.51552
-9.72072
-9.92458
-10.1234
-10.3124
-10.4901
-10.6574
-10.8148
-10.9633
-11.1036
-11.2366
-11.3629
-11.4831
-11.5979
-11.7078
-11.8132
-11.9146
-12.0125
-12.1072
-12.1994
-12.2893
-12.3776
-12.4647
-12.5512
-12.6377
-12.7246
-12.8128
-12.9027
-12.995
-13.0905
-9.17525
-9.22575
-9.3603
-9.53547
-9.7209
-9.90965
-10.0972
-10.2785
-10.4515
-10.616
-10.772
-10.9199
-11.0602
-11.1935
-11.3201
-11.4407
-11.5557
-11.6656
-11.7708
-11.8718
-11.969
-12.0629
-12.154
-12.2425
-12.3292
-12.4144
-12.4986
-12.5825
-12.6664
-12.7509
-12.8366
-12.9239
-13.0134
-9.23384
-9.27739
-9.39402
-9.54915
-9.71799
-9.8937
-10.0713
-10.2457
-10.4142
-10.576
-10.7306
-10.8779
-11.018
-11.1514
-11.2782
-11.399
-11.514
-11.6238
-11.7286
-11.829
-11.9253
-12.0181
-12.1076
-12.1945
-12.2791
-12.3619
-12.4433
-12.5239
-12.6041
-12.6843
-12.765
-12.8465
-12.9292
-9.27479
-9.31309
-9.41604
-9.55539
-9.71067
-9.87546
-10.0446
-10.213
-10.3776
-10.537
-10.6903
-10.8371
-10.9772
-11.1107
-11.2377
-11.3586
-11.4736
-11.5831
-11.6875
-11.7871
-11.8824
-11.9737
-12.0616
-12.1463
-12.2285
-12.3084
-12.3866
-12.4635
-12.5393
-12.6147
-12.6897
-12.7648
-12.8402
-9.29892
-9.33328
-9.42597
-9.55321
-9.69776
-9.85378
-10.0161
-10.1796
-10.341
-10.4985
-10.6509
-10.7973
-10.9374
-11.071
-11.1982
-11.3191
-11.4339
-11.543
-11.6467
-11.7453
-11.8392
-11.9288
-12.0146
-12.097
-12.1763
-12.2529
-12.3273
-12.3999
-12.4709
-12.5408
-12.6097
-12.6779
-12.7456
-9.30663
-9.33815
-9.42338
-9.54167
-9.67819
-9.82761
-9.98481
-10.1448
-10.304
-10.4604
-10.6123
-10.7588
-10.8992
-11.0333
-11.1608
-11.2818
-11.3966
-11.5053
-11.6082
-11.7057
-11.7982
-11.886
-11.9695
-12.0491
-12.1252
-12.1983
-12.2686
-12.3364
-12.4022
-12.4662
-12.5286
-12.5896
-12.6492
-9.29795
-9.32753
-9.40769
-9.51987
-9.65088
-9.79586
-9.94977
-10.1076
-10.2657
-10.4217
-10.5738
-10.7207
-10.8617
-10.9962
-11.1241
-11.2452
-11.3598
-11.4679
-11.5699
-11.6661
-11.7568
-11.8424
-11.9233
-11.9998
-12.0724
-12.1414
-12.2071
-12.2699
-12.3301
-12.3878
-12.4434
-12.4968
-12.5483
-9.27252
-9.30097
-9.37817
-9.48686
-9.61491
-9.75776
-9.91045
-10.0679
-10.2264
-10.3833
-10.5366
-10.6849
-10.8271
-10.9627
-11.0914
-11.213
-11.3276
-11.4353
-11.5365
-11.6313
-11.7202
-11.8036
-11.8817
-11.9549
-12.0238
-12.0885
-12.1494
-12.2069
-12.2611
-12.3124
-12.3609
-12.4067
-12.4498
-9.22956
-9.25762
-9.33383
-9.4415
-9.56901
-9.71194
-9.86531
-10.024
-10.1841
-10.3428
-10.498
-10.648
-10.7918
-10.9287
-11.0582
-11.1803
-11.2948
-11.402
-11.5022
-11.5955
-11.6823
-11.763
-11.838
-11.9077
-11.9724
-12.0325
-12.0883
-12.1401
-12.1881
-12.2327
-12.2739
-12.312
-12.347
-9.16786
-9.19628
-9.27352
-9.38284
-9.51262
-9.65847
-9.81527
-9.97771
-10.1417
-10.3043
-10.4631
-10.6164
-10.7629
-10.902
-11.0332
-11.1562
-11.2712
-11.3782
-11.4774
-11.5693
-11.654
-11.7321
-11.804
-11.8699
-11.9303
-11.9856
-12.0361
-12.0821
-12.1238
-12.1616
-12.1955
-12.2257
-12.2524
-9.0856
-9.11512
-9.19536
-9.30878
-9.44322
-9.59412
-9.75618
-9.92385
-10.0929
-10.2602
-10.4233
-10.5803
-10.73
-10.8716
-11.0046
-11.1287
-11.2441
-11.3508
-11.449
-11.5392
-11.6217
-11.697
-11.7653
-11.8272
-11.8831
-11.9333
-11.9782
-12.0181
-12.0533
-12.084
-12.1105
-12.1331
-12.1517
-8.98039
-9.01204
-9.09802
-9.21929
-9.36259
-9.52295
-9.69462
-9.87159
-10.0493
-10.2244
-10.3943
-10.5571
-10.7115
-10.8568
-10.9924
-11.1183
-11.2345
-11.3411
-11.4386
-11.5272
-11.6074
-11.6797
-11.7445
-11.8023
-11.8535
-11.8985
-11.9376
-11.9713
-11.9998
-12.0235
-12.0426
-12.0572
-12.0675
-8.84874
-8.88325
-8.97704
-9.10838
-9.26226
-9.43342
-9.61585
-9.80312
-9.99043
-10.1743
-10.3519
-10.5214
-10.6814
-10.8311
-10.97
-11.0981
-11.2154
-11.3222
-11.4189
-11.5059
-11.5838
-11.653
-11.714
-11.7673
-11.8135
-11.853
-11.8861
-11.9134
-11.9351
-11.9516
-11.9632
-11.9702
-11.9728
-8.68655
-8.72636
-8.83383
-8.98308
-9.15602
-9.34631
-9.54695
-9.75074
-9.95254
-10.1488
-10.3369
-10.5149
-10.6816
-10.8364
-10.9791
-11.1095
-11.2281
-11.335
-11.4309
-11.5162
-11.5915
-11.6574
-11.7144
-11.7632
-11.8042
-11.838
-11.865
-11.8856
-11.9003
-11.9094
-11.9133
-11.9122
-11.9062
-8.48645
-8.53098
-8.65242
-8.81887
-9.00947
-9.21821
-9.43765
-9.65956
-9.87818
-10.0896
-10.2909
-10.4802
-10.6561
-10.8181
-10.9661
-11.1003
-11.2209
-11.3286
-11.4239
-11.5077
-11.5804
-11.6429
-11.6958
-11.7398
-11.7754
-11.8032
-11.8238
-11.8376
-11.8452
-11.8469
-11.8432
-11.8345
-11.8212
-8.24333
-8.30249
-8.45669
-8.66117
-8.88754
-9.12868
-9.37647
-9.6223
-9.86083
-10.0887
-10.3035
-10.5034
-10.6878
-10.8562
-11.0087
-11.1458
-11.2679
-11.3757
-11.4701
-11.5518
-11.6215
-11.6802
-11.7285
-11.7671
-11.7969
-11.8183
-11.8319
-11.8384
-11.8382
-11.8319
-11.8198
-11.8023
-11.7799
-7.93505
-7.99667
-8.17091
-8.40212
-8.65917
-8.93538
-9.21909
-9.49851
-9.76714
-10.0211
-10.2577
-10.4754
-10.6736
-10.8524
-11.0124
-11.1544
-11.2792
-11.388
-11.4817
-11.5615
-11.6284
-11.6832
-11.7269
-11.7602
-11.7841
-11.7992
-11.8061
-11.8054
-11.7978
-11.7838
-11.764
-11.7389
-11.7091
-7.57198
-7.6889
-7.94873
-8.25127
-8.55963
-8.87666
-9.19355
-9.49967
-9.79042
-10.0631
-10.3153
-10.5458
-10.7543
-10.941
-11.1067
-11.2522
-11.3787
-11.4874
-11.5795
-11.6563
-11.719
-11.7686
-11.8063
-11.8329
-11.8494
-11.8565
-11.8549
-11.8454
-11.8285
-11.8049
-11.7752
-11.7398
-11.6995
-7.04152
-7.13231
-7.4299
-7.80034
-8.1897
-8.59051
-8.98215
-9.35073
-9.69249
-10.0054
-10.2883
-10.5416
-10.7665
-10.9647
-11.1379
-11.2879
-11.4165
-11.5255
-11.6165
-11.691
-11.7504
-11.796
-11.829
-11.8504
-11.8611
-11.8619
-11.8537
-11.837
-11.8126
-11.7811
-11.7431
-11.6996
-11.6514
-6.54559
-6.86778
-7.33512
-7.75322
-8.16236
-8.58966
-9.00675
-9.40004
-9.76782
-10.1063
-10.4123
-10.6853
-10.926
-11.1357
-11.3164
-11.4702
-11.5994
-11.7062
-11.7928
-11.861
-11.9128
-11.9497
-11.9731
-11.9843
-11.9844
-11.9742
-11.9546
-11.9263
-11.8897
-11.8454
-11.7939
-11.7361
-11.6725
-5.2427
-5.56437
-6.33712
-7.03626
-7.67202
-8.27743
-8.82041
-9.30064
-9.72835
-10.1073
-10.4406
-10.7326
-10.9867
-11.2063
-11.3944
-11.5535
-11.6864
-11.7955
-11.8829
-11.9508
-12.001
-12.0353
-12.0552
-12.062
-12.0568
-12.0407
-12.0143
-11.9783
-11.9329
-11.8785
-11.8146
-11.7427
-11.6591
-5.23014
-5.9752
-6.57993
-7.04732
-7.64783
-8.28184
-8.87265
-9.42266
-9.92549
-10.3704
-10.7564
-11.0867
-11.3653
-11.5969
-11.7867
-11.9396
-12.0603
-12.1529
-12.2212
-12.2685
-12.2974
-12.3103
-12.3092
-12.2958
-12.2713
-12.2369
-12.1934
-12.141
-12.0799
-12.0091
-11.9259
-11.828
-11.7001
1.02031
-3.58778
-5.37248
-6.22397
-7.2271
-8.10419
-8.80564
-9.41414
-9.94588
-10.4011
-10.7885
-11.1163
-11.3905
-11.6173
-11.8023
-11.9509
-12.0676
-12.1567
-12.2217
-12.2659
-12.292
-12.3023
-12.2987
-12.2829
-12.2564
-12.2203
-12.1756
-12.1231
-12.0638
-11.9976
-11.9268
-11.8474
-11.7692
-13.3396
-13.3901
-12.8734
-12.3347
-12.2722
-12.9204
-14.2032
-16.0853
-18.5139
-21.3939
-24.586
-27.9024
-31.1031
-34.0218
-36.3117
-37.7065
-37.9649
-36.9707
-34.7921
-31.6967
-28.062
-24.23
-20.4293
-16.7963
-13.4239
-10.381
-7.70924
-5.41956
-3.49708
-1.91095
-0.622608
0.409014
1.22435
1.86106
2.35249
2.72671
3.00639
3.20951
3.35034
3.4405
3.4896
3.5057
3.49553
3.46466
3.41766
3.35827
3.28959
3.21417
3.13411
3.05117
2.96677
2.88208
2.79798
2.71513
2.63403
2.55497
2.47815
2.40366
2.33152
2.26167
2.19405
2.12852
2.06495
2.00319
1.94309
1.88449
1.82722
1.77113
1.71608
1.66191
1.60851
1.55573
1.50347
1.45161
1.40004
1.34868
1.29744
1.24623
1.19498
1.14363
1.09212
1.04038
0.988379
0.936057
0.883376
0.830298
0.776789
0.722816
0.668345
0.613358
0.557806
0.501717
0.44495
0.387736
0.329504
0.271402
0.210905
0.153322
0.0873789
0.0370048
-13.4281
-13.3011
-12.8266
-12.4875
-12.548
-13.1938
-14.4295
-16.2454
-18.5886
-21.3507
-24.3824
-27.5125
-30.5276
-33.0948
-35.0398
-36.0804
-36.0382
-34.8617
-32.6853
-29.7923
-26.4899
-23.0233
-19.5597
-16.2167
-13.0854
-10.2355
-7.71091
-5.52697
-3.6756
-2.13325
-0.868071
0.155288
0.972635
1.61807
2.12228
2.51148
2.80709
3.02626
3.18277
3.28789
3.3511
3.38037
3.38241
3.3628
3.32615
3.27624
3.21623
3.14869
3.07579
2.99932
2.92077
2.84132
2.76192
2.68327
2.60591
2.53019
2.45633
2.38448
2.31467
2.24689
2.18109
2.11717
2.05503
1.99453
1.93553
1.8779
1.82148
1.76615
1.71175
1.65817
1.60527
1.55293
1.50105
1.44953
1.39826
1.34715
1.29612
1.2451
1.19402
1.14281
1.09142
1.03979
0.987876
0.935629
0.883013
0.829991
0.776528
0.722594
0.668154
0.613194
0.557663
0.501592
0.444837
0.387637
0.329408
0.271327
0.210817
0.153279
0.0872983
0.0370142
-13.3613
-13.2874
-12.9996
-12.7559
-12.8576
-13.5091
-14.7234
-16.4691
-18.6851
-21.2642
-24.0699
-26.9054
-29.542
-31.7484
-33.3244
-34.037
-33.7717
-32.5583
-30.5511
-27.9664
-25.0223
-21.9007
-18.7436
-15.6646
-12.7561
-10.0879
-7.70414
-5.62342
-3.84302
-2.34567
-1.10553
-0.0924983
0.724909
1.37736
1.89296
2.29604
2.60676
2.84139
3.01315
3.13299
3.21017
3.25255
3.26681
3.25851
3.23229
3.19197
3.14073
3.08121
3.0156
2.94574
2.87315
2.79907
2.7245
2.65017
2.57667
2.50439
2.4336
2.36447
2.29708
2.23145
2.16755
2.10531
2.04466
1.98547
1.92763
1.87102
1.8155
1.76096
1.70726
1.65428
1.60191
1.55004
1.49857
1.4474
1.39643
1.34559
1.2948
1.24398
1.19307
1.14201
1.09075
1.03923
0.987411
0.935245
0.882697
0.829734
0.77632
0.722427
0.668022
0.61309
0.557582
0.501531
0.444789
0.387604
0.329378
0.271317
0.210796
0.1533
0.0872864
0.0370743
-13.3825
-13.337
-13.1609
-13.0461
-13.2448
-13.9033
-15.0416
-16.6397
-18.6463
-20.9635
-23.4434
-25.9101
-28.1685
-30.0083
-31.2501
-31.7456
-31.4373
-30.3541
-28.5952
-26.315
-23.6837
-20.8579
-17.971
-15.1333
-12.4332
-9.93714
-7.6886
-5.70852
-3.9988
-2.54756
-1.33428
-0.333617
0.481866
1.13957
1.66508
2.08088
2.4058
2.65522
2.84178
2.97603
3.06698
3.12239
3.14883
3.15187
3.13614
3.1055
3.06314
3.01174
2.95355
2.89042
2.82393
2.75535
2.68572
2.61584
2.54631
2.47758
2.40995
2.34364
2.27875
2.21535
2.15342
2.09293
2.03382
1.97599
1.91936
1.86381
1.80922
1.7555
1.70252
1.65017
1.59836
1.54697
1.49592
1.44512
1.39448
1.34391
1.29336
1.24276
1.19203
1.14113
1.09
1.0386
0.986873
0.934792
0.882316
0.829413
0.77605
0.722201
0.667831
0.61293
0.557445
0.501415
0.444687
0.387518
0.329296
0.271255
0.210726
0.153267
0.0872279
0.0370823
-13.3964
-13.3904
-13.3428
-13.3708
-13.6467
-14.2848
-15.3199
-16.7376
-18.4904
-20.4902
-22.6175
-24.7163
-26.622
-28.165
-29.2031
-29.6192
-29.3481
-28.3958
-26.841
-24.8087
-22.4415
-19.8771
-17.2371
-14.6232
-12.118
-9.78433
-7.665
-5.78275
-4.14314
-2.73885
-1.55403
-0.567632
0.244026
0.90525
1.43919
1.86649
2.20466
2.46816
2.66899
2.81728
2.92178
2.99007
3.02864
3.04301
3.03781
3.0169
2.98351
2.94034
2.88966
2.83339
2.77311
2.71015
2.64559
2.58025
2.51481
2.44973
2.38537
2.32197
2.25967
2.19857
2.13869
2.08001
2.0225
1.9661
1.91072
1.85627
1.80267
1.7498
1.69758
1.64589
1.59466
1.54378
1.49318
1.44276
1.39246
1.34219
1.29189
1.24151
1.19097
1.14023
1.08925
1.03796
0.986346
0.934354
0.881954
0.829116
0.775807
0.722003
0.667672
0.612802
0.557343
0.501334
0.444622
0.38747
0.329254
0.271231
0.210697
0.153272
0.0872122
0.0371204
-13.4297
-13.4695
-13.5121
-13.6324
-13.9554
-14.5721
-15.5113
-16.7588
-18.283
-20.0141
-21.8423
-23.6381
-25.2638
-26.5756
-27.4454
-27.7708
-27.4994
-26.6378
-25.2458
-23.4222
-21.286
-18.9563
-16.5413
-14.1337
-11.81
-9.62942
-7.63356
-5.84627
-4.27601
-2.9193
-1.76437
-0.794031
0.0119528
0.674974
1.21584
1.65338
2.0038
2.2806
2.49511
2.65703
2.7748
2.85579
2.90639
2.93205
2.93739
2.92626
2.9019
2.86705
2.82399
2.77467
2.72072
2.66349
2.6041
2.54344
2.48218
2.42086
2.35986
2.29946
2.23984
2.18112
2.12335
2.06656
2.01071
1.95578
1.9017
1.84841
1.79582
1.74384
1.6924
1.64141
1.59078
1.54043
1.49029
1.44027
1.39032
1.34036
1.29033
1.24017
1.18983
1.13927
1.08843
1.03727
0.985765
0.933866
0.881546
0.828775
0.775523
0.721767
0.667475
0.612639
0.557207
0.501221
0.444525
0.38739
0.329181
0.271177
0.210639
0.153245
0.0871701
0.0371259
-13.4588
-13.5359
-13.6397
-13.8247
-14.179
-14.7704
-15.6235
-16.7353
-18.0699
-19.5661
-21.134
-22.6648
-24.0392
-25.1357
-25.8475
-26.0915
-25.8216
-25.0371
-23.7834
-22.1411
-20.2097
-18.0915
-15.8817
-13.6642
-11.5094
-9.47298
-7.59484
-5.89949
-4.3976
-3.08889
-1.96507
-1.01243
-0.213873
0.449263
0.995543
1.44206
1.80368
2.09295
2.32053
2.49561
2.6263
2.71977
2.78226
2.81915
2.83501
2.83368
2.8184
2.79193
2.75657
2.7143
2.66678
2.61539
2.56128
2.50539
2.44842
2.39096
2.33342
2.27611
2.21925
2.16298
2.1074
2.05255
1.99844
1.94503
1.89231
1.84021
1.78867
1.73763
1.68701
1.63673
1.58673
1.53694
1.48728
1.43769
1.3881
1.33846
1.28871
1.23879
1.18866
1.13828
1.08759
1.03657
0.985178
0.933378
0.881141
0.828441
0.775249
0.721543
0.667293
0.612492
0.557088
0.501127
0.444449
0.387331
0.329131
0.271145
0.210606
0.153241
0.0871542
0.0371479
-13.4852
-13.5951
-13.744
-13.9723
-14.3418
-14.9036
-15.6789
-16.6632
-17.8265
-19.1168
-20.4584
-21.7587
-22.9166
-23.8303
-24.4086
-24.5802
-24.3048
-23.5807
-22.4438
-20.9592
-19.2089
-17.2802
-15.2568
-13.214
-11.2163
-9.31538
-7.54935
-5.94282
-4.50812
-3.24757
-2.15591
-1.22246
-0.432995
0.228622
0.778828
1.23302
1.60476
1.90564
2.14559
2.33332
2.47657
2.58225
2.65647
2.70448
2.7308
2.73927
2.7331
2.71506
2.68747
2.65233
2.61133
2.56587
2.51715
2.46612
2.41355
2.36004
2.30605
2.25191
2.19789
2.14417
2.09085
2.038
1.98567
1.93385
1.88253
1.83167
1.78123
1.73115
1.68138
1.63185
1.58251
1.53329
1.48413
1.43498
1.38577
1.33646
1.287
1.23734
1.18743
1.13723
1.08671
1.03582
0.98455
0.932851
0.880701
0.828075
0.774945
0.721292
0.667087
0.612322
0.556948
0.501012
0.444353
0.387254
0.329063
0.271095
0.210557
0.153216
0.0871237
0.0371496
-13.5055
-13.6404
-13.8192
-14.073
-14.4457
-14.9752
-15.678
-16.5489
-17.5625
-18.6736
-19.8179
-20.9173
-21.8861
-22.6385
-23.0974
-23.2032
-22.9218
-22.2498
-21.2142
-19.8672
-18.2772
-16.5187
-14.6648
-12.7827
-10.9309
-9.15721
-7.4977
-5.97676
-4.60788
-3.39545
-2.33677
-1.42384
-0.645018
0.0135119
0.566179
1.02675
1.40751
1.71908
1.9707
2.17051
2.32589
2.44349
2.52922
2.58822
2.62493
2.64316
2.64611
2.63653
2.61676
2.58882
2.55441
2.51498
2.47173
2.42567
2.37758
2.32811
2.27775
2.22688
2.17578
2.12467
2.07368
2.02291
1.97242
1.92224
1.87237
1.82279
1.77348
1.72441
1.67552
1.62677
1.57811
1.52949
1.48085
1.43216
1.38335
1.33439
1.28523
1.23583
1.18615
1.13615
1.08579
1.03506
0.983906
0.932314
0.880255
0.827707
0.774642
0.721044
0.666885
0.612159
0.556817
0.500908
0.444269
0.387189
0.32901
0.271058
0.210524
0.153205
0.0871095
0.03716
-13.5166
-13.6701
-13.8685
-14.1359
-14.5034
-14.9984
-15.6327
-16.401
-17.281
-18.2339
-19.2054
-20.1294
-20.9339
-21.5465
-21.9024
-21.9513
-21.6634
-21.0343
-20.0851
-18.8583
-17.4104
-15.8046
-14.1046
-12.37
-10.6535
-8.99899
-7.44053
-6.00186
-4.69723
-3.53267
-2.5076
-1.61636
-0.849596
-0.195642
0.358061
0.823718
1.21238
1.53372
1.79624
2.00754
2.1746
2.30376
2.40075
2.47057
2.51757
2.5455
2.55754
2.55643
2.54453
2.52384
2.49609
2.46275
2.42506
2.38405
2.34054
2.2952
2.24856
2.20103
2.15293
2.10449
2.0559
2.00727
1.95868
1.91019
1.86182
1.81357
1.76544
1.7174
1.66943
1.62148
1.57353
1.52553
1.47744
1.42922
1.38083
1.33223
1.28338
1.23425
1.18481
1.13501
1.08483
1.03425
0.983225
0.931745
0.879781
0.827313
0.774317
0.720777
0.666666
0.611981
0.556672
0.50079
0.444173
0.387113
0.328945
0.271011
0.210482
0.153183
0.0870872
0.0371574
-13.5181
-13.6839
-13.893
-14.164
-14.519
-14.9773
-15.5471
-16.2226
-16.9841
-17.7983
-18.619
-19.3906
-20.0523
-20.5434
-20.8093
-20.8076
-20.5129
-19.9206
-19.0468
-17.9256
-16.6038
-15.1352
-13.5749
-11.9755
-10.3842
-8.84132
-7.37849
-6.0187
-4.7766
-3.65945
-2.66842
-1.79986
-1.04644
-0.398461
0.154904
0.624383
1.01983
1.34999
1.62261
1.84477
2.023
2.16335
2.27131
2.35175
2.4089
2.44644
2.46754
2.4749
2.47087
2.45747
2.43643
2.40926
2.3772
2.34131
2.30245
2.26131
2.21847
2.17437
2.12934
2.08366
2.03753
1.99109
1.94447
1.89772
1.85089
1.80402
1.7571
1.71013
1.66311
1.616
1.56878
1.52142
1.47389
1.42617
1.37821
1.32998
1.28146
1.23262
1.18342
1.13383
1.08384
1.03341
0.982527
0.931163
0.879298
0.826914
0.773989
0.720509
0.666448
0.611805
0.556531
0.500679
0.444084
0.387045
0.328891
0.270973
0.21045
0.153168
0.0870763
0.0371599
-13.5077
-13.6804
-13.8936
-14.1611
-14.4987
-14.9197
-15.4289
-16.0204
-16.6764
-17.3684
-18.0572
-18.6959
-19.2336
-19.6193
-19.8073
-19.7618
-19.4611
-18.9003
-18.0919
-17.0634
-15.8537
-14.5083
-13.0746
-11.5989
-10.1235
-8.68477
-7.31226
-6.02793
-4.84647
-3.77607
-2.81931
-1.97424
-1.23532
-0.594613
-0.0428942
0.429173
0.830301
1.1683
1.45023
1.68257
1.87144
2.02256
2.14118
2.232
2.29913
2.34618
2.37626
2.39205
2.39589
2.3898
2.37552
2.35456
2.32819
2.29749
2.26335
2.2265
2.18754
2.14692
2.10503
2.06217
2.01856
1.97439
1.92978
1.88482
1.83959
1.79413
1.74847
1.70261
1.65656
1.61031
1.56385
1.51715
1.47021
1.423
1.37548
1.32765
1.27947
1.23092
1.18197
1.1326
1.0828
1.03254
0.981793
0.93055
0.878788
0.826491
0.773641
0.720223
0.666215
0.611616
0.556379
0.500557
0.443986
0.386968
0.328829
0.270927
0.210412
0.153146
0.0870597
0.0371526
-13.4861
-13.6611
-13.8727
-14.1313
-14.4477
-14.8308
-15.2831
-15.798
-16.36
-16.9444
-17.518
-18.0413
-18.4716
-18.7662
-18.8869
-18.8034
-18.4973
-17.964
-17.2128
-16.2662
-15.1562
-13.9213
-12.6024
-11.2399
-9.87144
-8.52993
-7.24256
-6.03018
-4.90737
-3.88289
-2.96044
-2.13948
-1.41607
-0.783817
-0.234977
0.238489
0.6442
0.989088
1.27948
1.52132
1.72027
1.88171
2.01064
2.11157
2.18849
2.2449
2.28387
2.30804
2.31973
2.32095
2.31345
2.29873
2.2781
2.25266
2.2233
2.1908
2.15578
2.11872
2.08004
2.04006
1.99904
1.95717
1.91463
1.87151
1.82792
1.78392
1.73954
1.69483
1.64978
1.60442
1.55875
1.51274
1.4664
1.41972
1.37267
1.32524
1.2774
1.22916
1.18048
1.13134
1.08173
1.03164
0.981042
0.929924
0.878269
0.826063
0.77329
0.719937
0.665984
0.611431
0.556231
0.500441
0.443896
0.3869
0.328777
0.27089
0.210385
0.153131
0.0870536
0.0371504
-13.4521
-13.6255
-13.8314
-14.077
-14.3699
-14.7155
-15.1144
-15.56
-16.0383
-16.528
-17.001
-17.4241
-17.7614
-17.9774
-18.04
-17.924
-17.6136
-17.1043
-16.4035
-15.5292
-14.508
-13.3724
-12.1574
-10.8983
-9.62842
-8.37735
-7.17006
-6.02616
-4.95987
-3.98029
-3.09201
-2.29564
-1.58858
-0.965843
-0.42103
0.0526984
0.461931
0.812746
1.11078
1.3614
1.56984
1.74113
1.87999
1.99073
2.07721
2.14282
2.19056
2.22304
2.24253
2.25105
2.25032
2.24188
2.22703
2.20687
2.18236
2.15427
2.12324
2.0898
2.05438
2.01734
1.97896
1.93946
1.89903
1.85781
1.8159
1.77339
1.73034
1.68679
1.64279
1.59835
1.55347
1.50818
1.46246
1.41632
1.36975
1.32273
1.27526
1.22733
1.17892
1.13002
1.08062
1.0307
0.980256
0.929268
0.877723
0.825611
0.772918
0.719633
0.665737
0.611231
0.556072
0.500314
0.443796
0.386822
0.328716
0.270845
0.210351
0.153108
0.0870404
0.0371379
-13.4067
-13.5754
-13.7721
-14.002
-14.2697
-14.5786
-14.9275
-15.31
-15.7137
-16.12
-16.5052
-16.8413
-17.0984
-17.2467
-17.2596
-17.1159
-16.8021
-16.3143
-15.6579
-14.8478
-13.9058
-12.8594
-11.7385
-10.5738
-9.39463
-8.22761
-7.09548
-6.01656
-5.00456
-4.06875
-3.2143
-2.4428
-1.7528
-1.14052
-0.600784
-0.127863
0.283867
0.63967
0.944509
1.2032
1.42053
1.60116
1.74954
1.86977
1.96555
2.04017
2.09654
2.13722
2.16445
2.18022
2.18627
2.1841
2.17505
2.16023
2.14059
2.11695
2.08997
2.0602
2.0281
1.99406
1.95837
1.92129
1.88302
1.84372
1.80353
1.76255
1.72086
1.67853
1.63559
1.59209
1.54805
1.50349
1.45841
1.41283
1.36675
1.32016
1.27307
1.22546
1.17733
1.12868
1.07949
1.02975
0.979459
0.928604
0.877174
0.82516
0.772549
0.719333
0.665497
0.611041
0.555922
0.500199
0.443709
0.386758
0.32867
0.270814
0.210332
0.153097
0.0870414
0.0371339
-13.3497
-13.5113
-13.6963
-13.9083
-14.1503
-14.4235
-14.7259
-15.0514
-15.3885
-15.7215
-16.0301
-16.2909
-16.4788
-16.5692
-16.5396
-16.3725
-16.0565
-15.5879
-14.9711
-14.2179
-13.3467
-12.3804
-11.3446
-10.266
-9.17027
-8.08122
-7.0195
-6.00209
-5.0421
-4.14875
-3.32765
-2.58115
-1.90873
-1.30773
-0.774019
-0.302901
0.110352
0.470234
0.781058
1.0471
1.2727
1.46215
1.61961
1.74898
1.85379
1.93719
2.00202
2.05078
2.08566
2.10863
2.12142
2.12552
2.12227
2.1128
2.09808
2.07893
2.05603
2.02998
2.00125
1.97024
1.93729
1.90266
1.8666
1.82927
1.79084
1.75143
1.71113
1.67003
1.62818
1.58565
1.54246
1.49864
1.45423
1.40922
1.36365
1.3175
1.27079
1.22352
1.17568
1.12727
1.0783
1.02875
0.978621
0.927904
0.876592
0.824679
0.772153
0.71901
0.665234
0.61083
0.555754
0.500067
0.443606
0.386678
0.32861
0.270768
0.210299
0.15307
0.0870294
0.0371145
-13.2826
-13.4348
-13.6064
-13.7994
-14.0153
-14.2542
-14.5136
-14.7872
-15.0651
-15.3336
-15.5754
-15.771
-15.8995
-15.9401
-15.8745
-15.6879
-15.3707
-14.9196
-14.3381
-13.6357
-12.8278
-11.9335
-10.9748
-9.97458
-8.95552
-7.93869
-6.94278
-5.98346
-5.07312
-4.22083
-3.43245
-2.71089
-2.05646
-1.4674
-0.940563
-0.47216
-0.0582986
0.304789
0.620795
0.893474
1.12671
1.32444
1.49055
1.62868
1.74221
1.83415
1.90725
1.96393
2.00636
2.03646
2.05593
2.06628
2.06882
2.0647
2.05491
2.04027
2.02151
1.99921
1.97388
1.94595
1.91577
1.88364
1.84982
1.8145
1.77786
1.74005
1.70117
1.66133
1.6206
1.57906
1.53674
1.49369
1.44995
1.40554
1.36048
1.31479
1.26847
1.22154
1.174
1.12586
1.07711
1.02775
0.977787
0.927212
0.876021
0.824211
0.771774
0.718705
0.664992
0.61064
0.555608
0.499958
0.443527
0.386623
0.328575
0.270747
0.210293
0.153067
0.0870413
0.037112
-13.2055
-13.347
-13.5037
-13.677
-13.8672
-14.0735
-14.293
-14.5198
-14.745
-14.9568
-15.1406
-15.2799
-15.3573
-15.3556
-15.2596
-15.0569
-14.7395
-14.3046
-13.7547
-13.0978
-12.3465
-11.5171
-10.628
-9.69929
-8.75054
-7.8005
-6.86599
-5.96138
-5.09831
-4.28556
-3.52911
-2.83231
-2.19611
-1.61954
-1.1003
-0.635427
-0.221806
0.143661
0.464075
0.742684
0.982935
1.18841
1.36269
1.5092
1.63111
1.73133
1.81248
1.87692
1.92676
1.96388
1.98997
2.00651
2.01483
2.01606
2.01119
2.00109
1.98646
1.96794
1.94604
1.92122
1.89385
1.86425
1.8327
1.79942
1.7646
1.72841
1.69098
1.65242
1.61283
1.57229
1.53086
1.4886
1.44555
1.40174
1.35721
1.31198
1.26607
1.21949
1.17226
1.12438
1.07585
1.02669
0.9769
0.926471
0.875405
0.823701
0.771354
0.718362
0.664714
0.610416
0.55543
0.499818
0.443418
0.386539
0.328513
0.270698
0.21026
0.153035
0.0870274
0.0370823
-13.1202
-13.2498
-13.391
-13.5442
-13.7093
-13.8848
-14.0675
-14.2519
-14.4303
-14.5923
-14.7255
-14.8163
-14.8499
-14.8123
-14.6907
-14.4749
-14.1583
-13.7383
-13.217
-12.6009
-11.9005
-11.1294
-10.3035
-9.43974
-8.55545
-7.66709
-6.78976
-5.93656
-5.11834
-4.34354
-3.61813
-2.94575
-2.32787
-1.76419
-1.25315
-0.792537
-0.379926
-0.012851
0.311235
0.595091
0.841743
1.05442
1.23639
1.39086
1.52082
1.62902
1.71798
1.78998
1.84708
1.89111
1.92372
1.9464
1.96044
1.967
1.96705
1.96147
1.951
1.93627
1.91783
1.89614
1.8716
1.84456
1.81531
1.78409
1.75112
1.71657
1.68061
1.64337
1.60494
1.56542
1.5249
1.48344
1.44109
1.39791
1.35392
1.30916
1.26366
1.21744
1.17052
1.12291
1.07462
1.02566
0.976043
0.925763
0.874824
0.823229
0.770975
0.718061
0.664479
0.610238
0.555298
0.499724
0.443357
0.386502
0.328499
0.270696
0.210274
0.153047
0.087057
0.0370853
-13.0271
-13.144
-13.2691
-13.4025
-13.5433
-13.6898
-13.8388
-13.9851
-14.1218
-14.2402
-14.3296
-14.3785
-14.3749
-14.3069
-14.1641
-13.9379
-13.6229
-13.2169
-12.7215
-12.1421
-11.4875
-10.769
-10.0002
-9.19562
-8.37035
-7.53888
-6.71469
-5.90969
-5.13393
-4.3954
-3.70002
-3.05158
-2.45198
-1.90146
-1.3991
-0.943368
-0.532453
-0.164475
0.162592
0.451042
0.703493
0.922821
1.11202
1.27403
1.41166
1.52753
1.62405
1.7034
1.76757
1.81836
1.8574
1.88612
1.90583
1.91766
1.92261
1.92155
1.91522
1.90429
1.8893
1.87075
1.84906
1.82459
1.79765
1.76851
1.7374
1.70453
1.67005
1.63412
1.59687
1.5584
1.51879
1.47814
1.43651
1.39395
1.35051
1.30623
1.26115
1.2153
1.16869
1.12136
1.07331
1.02455
0.975109
0.924981
0.874173
0.822689
0.770529
0.717696
0.664182
0.609998
0.555107
0.499572
0.443239
0.38641
0.32843
0.270638
0.210236
0.153002
0.087037
0.0370384
-12.9284
-13.0322
-13.1411
-13.255
-13.3725
-13.4919
-13.6099
-13.7219
-13.8217
-13.9017
-13.953
-13.966
-13.9306
-13.837
-13.6766
-13.4423
-13.1296
-12.7367
-12.265
-11.7188
-11.1053
-10.4344
-9.71724
-8.96657
-8.19532
-7.41626
-6.64139
-5.88147
-5.14576
-4.4418
-3.77533
-3.15024
-2.56873
-2.03151
-1.5382
-1.08785
-0.679221
-0.310972
0.0184407
0.310871
0.568543
0.793992
0.98992
1.15904
1.30398
1.4272
1.53098
1.61744
1.68849
1.74589
1.79121