/*--------------------------------*- C++ -*----------------------------------*\
| =========                 |                                                 |
| \\      /  F ield         | OpenFOAM: The Open Source CFD Toolbox           |
|  \\    /   O peration     | Version:  2.1.1                                 |
|   \\  /    A nd           | Web:      www.OpenFOAM.org                      |
|    \\/     M anipulation  |                                                 |
\*---------------------------------------------------------------------------*/
FoamFile
{
    version     2.0;
    format      ascii;
    class       surfaceScalarField;
    location    "0.025";
    object      phi;
}
// * * * * * * * * * * * * * * * * * * * * * * * * * * * * * * * * * * * * * //

dimensions      [0 3 -1 0 0 0 0];

internalField   nonuniform List<scalar> 
13452
(
4.59999e-05
2.24874e-05
2.96675e-05
1.63323e-05
2.11955e-05
8.47203e-06
1.72997e-05
3.89577e-06
1.56645e-05
1.63522e-06
1.48654e-05
7.99176e-07
1.43656e-05
4.99796e-07
1.39883e-05
3.77222e-07
1.36738e-05
3.14561e-07
1.34066e-05
2.67175e-07
1.31824e-05
2.24174e-07
1.29976e-05
1.84871e-07
1.28479e-05
1.49641e-07
1.27294e-05
1.18524e-07
1.26382e-05
9.11548e-08
1.25713e-05
6.69527e-08
1.25259e-05
4.53573e-08
1.25003e-05
2.56139e-08
1.2493e-05
7.3394e-09
1.25024e-05
-9.42366e-09
1.25273e-05
-2.48999e-08
1.25669e-05
-3.96131e-08
1.26206e-05
-5.37057e-08
1.26881e-05
-6.74646e-08
1.27691e-05
-8.10288e-08
1.28635e-05
-9.43878e-08
1.29714e-05
-1.07878e-07
1.30923e-05
-1.20949e-07
1.32289e-05
-1.36573e-07
1.33764e-05
-1.47538e-07
1.35577e-05
-1.81243e-07
1.37157e-05
-1.58034e-07
-4.24985e-07
1.41407e-05
7.49137e-05
1.80177e-05
7.04174e-05
2.08286e-05
6.33357e-05
1.55538e-05
5.66928e-05
1.05386e-05
5.15921e-05
6.73592e-06
4.79566e-05
4.4347e-06
4.53607e-05
3.09568e-06
4.34629e-05
2.27504e-06
4.20306e-05
1.74688e-06
4.09145e-05
1.38326e-06
4.00229e-05
1.11575e-06
3.92985e-05
9.09306e-07
3.87039e-05
7.44225e-07
3.82139e-05
6.08463e-07
3.78109e-05
4.94153e-07
3.7482e-05
3.95858e-07
3.72177e-05
3.09708e-07
3.70106e-05
2.32736e-07
3.68548e-05
1.63083e-07
3.67462e-05
9.9224e-08
3.66815e-05
3.97246e-08
3.66585e-05
-1.65268e-08
3.66741e-05
-6.93956e-08
3.67266e-05
-1.19943e-07
3.68145e-05
-1.68862e-07
3.69366e-05
-2.16512e-07
3.7092e-05
-2.63326e-07
3.72803e-05
-3.09261e-07
3.7501e-05
-3.57211e-07
3.7757e-05
-4.03567e-07
3.80467e-05
-4.70946e-07
3.84197e-05
-5.30997e-07
-7.16053e-07
3.87107e-05
7.85211e-05
1.19531e-05
8.2336e-05
1.70137e-05
8.29983e-05
1.48914e-05
8.14918e-05
1.20451e-05
7.89834e-05
9.24431e-06
7.63171e-05
7.10106e-06
7.38245e-05
5.58824e-06
7.16093e-05
4.49022e-06
6.96852e-05
3.67106e-06
6.80279e-05
3.04049e-06
6.66049e-05
2.53878e-06
6.53847e-05
2.12954e-06
6.43395e-05
1.7894e-06
6.34458e-05
1.5022e-06
6.26837e-05
1.25621e-06
6.20369e-05
1.04266e-06
6.14917e-05
8.54862e-07
6.10369e-05
6.87607e-07
6.0663e-05
5.36959e-07
6.03624e-05
3.99841e-07
6.01284e-05
2.73678e-07
5.99553e-05
1.56584e-07
5.98393e-05
4.66413e-08
5.97778e-05
-5.84298e-08
5.97682e-05
-1.59262e-07
5.98074e-05
-2.55732e-07
5.98925e-05
-3.4846e-07
6.00213e-05
-4.38005e-07
6.01906e-05
-5.26529e-07
6.04002e-05
-6.13185e-07
6.06383e-05
-7.09021e-07
6.09092e-05
-8.01888e-07
-9.28441e-07
6.11216e-05
7.81467e-05
8.33306e-06
8.19228e-05
1.32376e-05
8.46185e-05
1.21958e-05
8.62416e-05
1.04219e-05
8.69227e-05
8.56321e-06
8.70158e-05
7.00801e-06
8.67643e-05
5.83976e-06
8.63114e-05
4.94312e-06
8.57494e-05
4.23301e-06
8.51349e-05
3.65503e-06
8.4503e-05
3.17064e-06
8.38771e-05
2.75544e-06
8.32731e-05
2.39337e-06
8.27022e-05
2.07313e-06
8.21715e-05
1.78697e-06
8.16851e-05
1.52905e-06
8.12453e-05
1.29464e-06
8.0853e-05
1.07986e-06
8.05084e-05
8.81635e-07
8.02107e-05
6.97481e-07
7.99592e-05
5.25239e-07
7.97525e-05
3.6321e-07
7.9589e-05
2.10136e-07
7.9466e-05
6.46341e-08
7.93812e-05
-7.45033e-08
7.9333e-05
-2.07542e-07
7.93198e-05
-3.35254e-07
7.93399e-05
-4.58071e-07
7.93905e-05
-5.77105e-07
7.94692e-05
-6.91885e-07
7.9566e-05
-8.05848e-07
7.9676e-05
-9.11944e-07
-1.01171e-06
7.97593e-05
7.89916e-05
5.9973e-06
8.15913e-05
1.06378e-05
8.3518e-05
1.02691e-05
8.4961e-05
8.97898e-06
8.59775e-05
7.54666e-06
8.67163e-05
6.26918e-06
8.72801e-05
5.27601e-06
8.77171e-05
4.5061e-06
8.80593e-05
3.89079e-06
8.83284e-05
3.38597e-06
8.85391e-05
2.95994e-06
8.87031e-05
2.59139e-06
8.88295e-05
2.26702e-06
8.89249e-05
1.97768e-06
8.89958e-05
1.71612e-06
8.90479e-05
1.47687e-06
8.90867e-05
1.25592e-06
8.91163e-05
1.05018e-06
8.91407e-05
8.57257e-07
8.91629e-05
6.75258e-07
8.91855e-05
5.02645e-07
8.92105e-05
3.38251e-07
8.92395e-05
1.8118e-07
8.92723e-05
3.17934e-08
8.93081e-05
-1.10339e-07
8.93467e-05
-2.46122e-07
8.93879e-05
-3.76467e-07
8.94313e-05
-5.01489e-07
8.94757e-05
-6.21451e-07
8.95192e-05
-7.35409e-07
8.95565e-05
-8.4316e-07
8.95829e-05
-9.38278e-07
-1.01632e-06
8.95875e-05
8.04632e-05
4.38001e-06
8.25056e-05
8.59542e-06
8.3992e-05
8.78278e-06
8.50516e-05
7.91936e-06
8.57742e-05
6.82406e-06
8.6288e-05
5.75536e-06
8.66942e-05
4.86985e-06
8.70397e-05
4.16058e-06
8.73476e-05
3.58294e-06
8.76291e-05
3.1044e-06
8.78892e-05
2.69982e-06
8.81302e-05
2.35045e-06
8.83539e-05
2.04333e-06
8.85621e-05
1.76945e-06
8.8756e-05
1.52222e-06
8.89363e-05
1.29654e-06
8.91038e-05
1.0885e-06
8.92589e-05
8.95014e-07
8.94025e-05
7.13718e-07
8.9535e-05
5.42747e-07
8.9657e-05
3.80638e-07
8.9769e-05
2.26226e-07
8.98714e-05
7.87765e-08
8.99657e-05
-6.24664e-08
9.00536e-05
-1.98264e-07
9.0136e-05
-3.28545e-07
9.02129e-05
-4.53375e-07
9.0284e-05
-5.72558e-07
9.03483e-05
-6.85747e-07
9.04045e-05
-7.91615e-07
9.045e-05
-8.88633e-07
9.0483e-05
-9.71269e-07
-1.03579e-06
9.05024e-05
8.22342e-05
3.24436e-06
8.38947e-05
6.93495e-06
8.51827e-05
7.49475e-06
8.61169e-05
6.98514e-06
8.67595e-05
6.18145e-06
8.72005e-05
5.31435e-06
8.75277e-05
4.54273e-06
8.77901e-05
3.89812e-06
8.80145e-05
3.35861e-06
8.82159e-05
2.90296e-06
8.84025e-05
2.51325e-06
8.85784e-05
2.17456e-06
8.87458e-05
1.87584e-06
8.89063e-05
1.60904e-06
8.90604e-05
1.36806e-06
8.92088e-05
1.14815e-06
8.93517e-05
9.45585e-07
8.94893e-05
7.57423e-07
8.96217e-05
5.81338e-07
8.9749e-05
4.15485e-07
8.98712e-05
2.58393e-07
8.99885e-05
1.0888e-07
9.01013e-05
-3.39786e-08
9.02098e-05
-1.70961e-07
9.03141e-05
-3.02593e-07
9.04144e-05
-4.28815e-07
9.05105e-05
-5.49457e-07
9.06021e-05
-6.64153e-07
9.06886e-05
-7.72252e-07
9.07693e-05
-8.72304e-07
9.0843e-05
-9.62403e-07
9.09099e-05
-1.03809e-06
-1.09655e-06
9.09706e-05
8.42166e-05
2.44328e-06
8.55506e-05
5.60092e-06
8.6673e-05
6.37243e-06
8.75309e-05
6.12721e-06
8.81576e-05
5.55476e-06
8.86059e-05
4.866e-06
8.89413e-05
4.20742e-06
8.92072e-05
3.6322e-06
8.94293e-05
3.13648e-06
8.96237e-05
2.7086e-06
8.97998e-05
2.33714e-06
8.99632e-05
2.01117e-06
9.01172e-05
1.72177e-06
9.02642e-05
1.4621e-06
9.04054e-05
1.2268e-06
9.0542e-05
1.0116e-06
9.06745e-05
8.13062e-07
9.08035e-05
6.28449e-07
9.09293e-05
4.55559e-07
9.10521e-05
2.92637e-07
9.11722e-05
1.38272e-07
9.12898e-05
-8.67109e-09
9.14048e-05
-1.49009e-07
9.15173e-05
-2.83434e-07
9.16271e-05
-4.12395e-07
9.17342e-05
-5.35886e-07
9.18384e-05
-6.53691e-07
9.19396e-05
-7.65386e-07
9.20376e-05
-8.70228e-07
9.21322e-05
-9.66861e-07
9.22233e-05
-1.05349e-06
9.23119e-05
-1.12679e-06
-1.18487e-06
9.24003e-05
8.6372e-05
1.87002e-06
8.74412e-05
4.53168e-06
8.84128e-05
5.40088e-06
8.91906e-05
5.34941e-06
8.97878e-05
4.95755e-06
9.0235e-05
4.41874e-06
9.05795e-05
3.86295e-06
9.08576e-05
3.35408e-06
9.10919e-05
2.90217e-06
9.1297e-05
2.50355e-06
9.1482e-05
2.15213e-06
9.16526e-05
1.84051e-06
9.18126e-05
1.56182e-06
9.19643e-05
1.31041e-06
9.21094e-05
1.08168e-06
9.22491e-05
8.71861e-07
9.23844e-05
6.77845e-07
9.25157e-05
4.97114e-07
9.26436e-05
3.27624e-07
9.27685e-05
1.67727e-07
9.28907e-05
1.60988e-08
9.30104e-05
-1.28322e-07
9.31276e-05
-2.66296e-07
9.32426e-05
-3.9843e-07
9.33554e-05
-5.25103e-07
9.34658e-05
-6.46365e-07
9.35742e-05
-7.6203e-07
9.36805e-05
-8.71682e-07
9.37849e-05
-9.74621e-07
9.38877e-05
-1.0697e-06
9.39897e-05
-1.15547e-06
9.40925e-05
-1.22961e-06
-1.2911e-06
9.41987e-05
8.86674e-05
1.45258e-06
8.95245e-05
3.6746e-06
9.03624e-05
4.56296e-06
9.10645e-05
4.64732e-06
9.16279e-05
4.39415e-06
9.20679e-05
3.97883e-06
9.24162e-05
3.51464e-06
9.2702e-05
3.06823e-06
9.29449e-05
2.65929e-06
9.3158e-05
2.29046e-06
9.33502e-05
1.95994e-06
9.35272e-05
1.66349e-06
9.36928e-05
1.39619e-06
9.38496e-05
1.15362e-06
9.39993e-05
9.31962e-07
9.41432e-05
7.27945e-07
9.42823e-05
5.38815e-07
9.44171e-05
3.62284e-07
9.45483e-05
1.96464e-07
9.46762e-05
3.98103e-08
9.48012e-05
-1.08928e-07
9.49236e-05
-2.50739e-07
9.50437e-05
-3.86361e-07
9.51616e-05
-5.16352e-07
9.52776e-05
-6.4106e-07
9.53918e-05
-7.60567e-07
9.55045e-05
-8.74726e-07
9.5616e-05
-9.83188e-07
9.57267e-05
-1.08538e-06
9.58375e-05
-1.18045e-06
9.59494e-05
-1.26737e-06
9.60644e-05
-1.34465e-06
-1.41206e-06
9.61854e-05
9.10812e-05
1.14272e-06
9.17702e-05
2.98562e-06
9.24918e-05
3.84133e-06
9.31248e-05
4.01433e-06
9.36534e-05
3.86555e-06
9.40819e-05
3.55032e-06
9.44304e-05
3.16614e-06
9.47213e-05
2.77732e-06
9.49711e-05
2.40945e-06
9.51915e-05
2.07004e-06
9.53907e-05
1.76077e-06
9.55742e-05
1.48002e-06
9.57457e-05
1.2247e-06
9.59078e-05
9.91526e-07
9.60623e-05
7.77425e-07
9.62106e-05
5.79642e-07
9.63537e-05
3.95764e-07
9.64922e-05
2.23736e-07
9.66268e-05
6.18256e-08
9.67581e-05
-9.1404e-08
9.68862e-05
-2.37122e-07
9.70118e-05
-3.76263e-07
9.7135e-05
-5.09541e-07
9.72561e-05
-6.37483e-07
9.73754e-05
-7.6042e-07
9.74933e-05
-8.78473e-07
9.76102e-05
-9.91575e-07
9.77265e-05
-1.09949e-06
9.7843e-05
-1.20183e-06
9.79606e-05
-1.29805e-06
9.80807e-05
-1.38753e-06
9.82055e-05
-1.46948e-06
-1.5442e-06
9.83377e-05
9.35995e-05
9.0789e-07
9.41561e-05
2.42896e-06
9.47769e-05
3.22056e-06
9.53464e-05
3.44487e-06
9.58399e-05
3.37203e-06
9.62544e-05
3.13584e-06
9.66008e-05
2.81965e-06
9.68955e-05
2.48264e-06
9.71517e-05
2.15325e-06
9.73793e-05
1.84246e-06
9.75856e-05
1.55451e-06
9.77757e-05
1.2899e-06
9.79533e-05
1.0471e-06
9.8121e-05
8.2386e-07
9.82806e-05
6.17833e-07
9.84335e-05
4.26749e-07
9.85807e-05
2.48536e-07
9.87231e-05
8.13685e-08
9.88612e-05
-7.63248e-08
9.89957e-05
-2.25869e-07
9.91269e-05
-3.68359e-07
9.92553e-05
-5.04682e-07
9.93813e-05
-6.3553e-07
9.95053e-05
-7.61416e-07
9.96275e-05
-8.82687e-07
9.97486e-05
-9.99517e-07
9.98689e-05
-1.11193e-06
9.99892e-05
-1.21982e-06
0.00010011
-1.323e-06
0.000100234
-1.42119e-06
0.00010036
-1.51416e-06
0.000100492
-1.60162e-06
-1.68425e-06
0.000100632
9.62139e-05
7.26124e-07
9.66668e-05
1.97606e-06
9.7201e-05
2.68632e-06
9.77128e-05
2.93305e-06
9.81722e-05
2.91263e-06
9.85709e-05
2.7372e-06
9.8913e-05
2.47747e-06
9.92096e-05
2.18611e-06
9.94707e-05
1.89211e-06
9.97046e-05
1.60857e-06
9.99175e-05
1.34156e-06
0.000100114
1.0932e-06
0.000100298
8.63252e-07
0.000100472
6.50394e-07
0.000100636
4.52916e-07
0.000100794
2.69004e-07
0.000100946
9.69049e-08
0.000101092
-6.49872e-08
0.000101234
-2.18089e-07
0.000101372
-3.6362e-07
0.000101506
-5.02608e-07
0.000101637
-6.35899e-07
0.000101766
-7.64164e-07
0.000101892
-8.87921e-07
0.000102017
-1.00754e-06
0.000102141
-1.12325e-06
0.000102264
-1.23517e-06
0.000102388
-1.34333e-06
0.000102512
-1.44772e-06
0.000102639
-1.54832e-06
0.000102771
-1.64517e-06
0.000102907
-1.73839e-06
-1.82882e-06
0.000103052
9.89194e-05
5.8246e-07
9.92912e-05
1.60428e-06
9.97519e-05
2.22558e-06
0.000100212
2.4731e-06
0.000100639
2.48592e-06
0.00010102
2.35555e-06
0.000101356
2.14143e-06
0.000101653
1.88934e-06
0.000101918
1.62717e-06
0.000102157
1.36908e-06
0.000102377
1.12228e-06
0.00010258
8.90067e-07
0.00010277
6.73193e-07
0.000102949
4.71102e-07
0.00010312
2.82637e-07
0.000103282
1.06385e-07
0.000103438
-5.91185e-08
0.000103588
-2.15274e-07
0.000103734
-3.63356e-07
0.000103875
-5.04487e-07
0.000104012
-6.39631e-07
0.000104145
-7.69598e-07
0.000104276
-8.95047e-07
0.000104405
-1.0165e-06
0.000104532
-1.13436e-06
0.000104657
-1.24892e-06
0.000104782
-1.36039e-06
0.000104908
-1.46892e-06
0.000105035
-1.57465e-06
0.000105164
-1.67775e-06
0.000105298
-1.7785e-06
0.000105437
-1.87724e-06
-1.97491e-06
0.000105583
0.000101714
4.66593e-07
0.000102022
1.29587e-06
0.000102421
1.82669e-06
0.000102835
2.05927e-06
0.000103231
2.08982e-06
0.000103595
1.99117e-06
0.000103924
1.81274e-06
0.00010422
1.59362e-06
0.000104487
1.35956e-06
0.000104731
1.12485e-06
0.000104956
8.97288e-07
0.000105166
6.80894e-07
0.000105362
4.77156e-07
0.000105547
2.86114e-07
0.000105722
1.07063e-07
0.00010589
-6.10681e-08
0.00010605
-2.19493e-07
0.000106204
-3.6943e-07
0.000106353
-5.12028e-07
0.000106497
-6.48322e-07
0.000106636
-7.79223e-07
0.000106772
-9.05507e-07
0.000106905
-1.02783e-06
0.000107035
-1.14672e-06
0.000107163
-1.26261e-06
0.00010729
-1.37585e-06
0.000107417
-1.48673e-06
0.000107543
-1.5955e-06
0.000107671
-1.70243e-06
0.000107801
-1.80781e-06
0.000107935
-1.91207e-06
0.000108073
-2.01571e-06
-2.11962e-06
0.000108218
0.000104596
3.71312e-07
0.000104855
1.03698e-06
0.000105202
1.47938e-06
0.000105575
1.68597e-06
0.000105943
1.72187e-06
0.000106291
1.64373e-06
0.000106611
1.49214e-06
0.000106905
1.29996e-06
0.000107174
1.0902e-06
0.000107422
8.76589e-07
0.000107653
6.67061e-07
0.000107868
4.65985e-07
0.000108069
2.75319e-07
0.00010826
9.55326e-08
0.000108441
-7.37343e-08
0.000108613
-2.33282e-07
0.000108778
-3.84119e-07
0.000108936
-5.27314e-07
0.000109087
-6.6391e-07
0.000109234
-7.94868e-07
0.000109376
-9.21052e-07
0.000109514
-1.04321e-06
0.000109648
-1.162e-06
0.000109779
-1.27796e-06
0.000109908
-1.39154e-06
0.000110035
-1.50315e-06
0.000110162
-1.61313e-06
0.000110288
-1.72182e-06
0.000110415
-1.82955e-06
0.000110544
-1.93672e-06
0.000110676
-2.04382e-06
0.000110811
-2.15143e-06
-2.26035e-06
0.000110952
0.000107566
2.91478e-07
0.000107786
8.16765e-07
0.000108091
1.17468e-06
0.000108429
1.34779e-06
0.000108772
1.37929e-06
0.000109103
1.31234e-06
0.000109415
1.17981e-06
0.000109706
1.00892e-06
0.000109977
8.19713e-07
0.000110228
6.24868e-07
0.000110463
4.32045e-07
0.000110684
2.45668e-07
0.000110891
6.79215e-08
0.000111087
-1.00463e-07
0.000111273
-2.59607e-07
0.00011145
-4.10116e-07
0.000111619
-5.52846e-07
0.00011178
-6.88749e-07
0.000111935
-8.18783e-07
0.000112084
-9.43852e-07
0.000112228
-1.06478e-06
0.000112367
-1.1823e-06
0.000112502
-1.29706e-06
0.000112633
-1.4096e-06
0.000112762
-1.52042e-06
0.000112889
-1.62994e-06
0.000113015
-1.73854e-06
0.000113139
-1.84661e-06
0.000113264
-1.95455e-06
0.00011339
-2.06278e-06
0.000113518
-2.17181e-06
0.000113649
-2.28222e-06
-2.3947e-06
0.000113784
0.000110625
2.23346e-07
0.000110815
6.26731e-07
0.000111085
9.04822e-07
0.000111393
1.03959e-06
0.000111713
1.0591e-06
0.00011203
9.95645e-07
0.000112334
8.75432e-07
0.000112623
7.20699e-07
0.000112894
5.48466e-07
0.000113149
3.7006e-07
0.000113388
1.92556e-07
0.000113614
2.01785e-08
0.000113826
-1.44867e-07
0.000114028
-3.01741e-07
0.000114219
-4.50437e-07
0.0001144
-5.91444e-07
0.000114573
-7.25518e-07
0.000114737
-8.53533e-07
0.000114895
-9.76386e-07
0.000115046
-1.09494e-06
0.000115191
-1.20999e-06
0.000115331
-1.32227e-06
0.000115466
-1.4324e-06
0.000115598
-1.54094e-06
0.000115726
-1.6484e-06
0.000115851
-1.75522e-06
0.000115974
-1.86181e-06
0.000116096
-1.96857e-06
0.000116218
-2.07591e-06
0.000116339
-2.18428e-06
0.000116462
-2.29415e-06
0.000116585
-2.40607e-06
-2.52056e-06
0.000116711
0.000113775
1.64119e-07
0.000113941
4.60162e-07
0.000114183
6.63121e-07
0.000114466
7.56492e-07
0.000114767
7.58179e-07
0.000115071
6.91909e-07
0.000115368
5.7824e-07
0.000115654
4.35054e-07
0.000115926
2.76468e-07
0.000116183
1.12263e-07
0.000116427
-5.12968e-08
0.000116658
-2.10387e-07
0.000116876
-3.62966e-07
0.000117082
-5.08227e-07
0.000117278
-6.46141e-07
0.000117464
-7.77157e-07
0.00011764
-9.01986e-07
0.000117808
-1.02146e-06
0.000117968
-1.13645e-06
0.000118121
-1.2478e-06
0.000118267
-1.35628e-06
0.000118408
-1.4626e-06
0.000118543
-1.5674e-06
0.000118673
-1.67124e-06
0.000118799
-1.77462e-06
0.000118922
-1.878e-06
0.000119042
-1.98179e-06
0.00011916
-2.08639e-06
0.000119276
-2.1922e-06
0.000119391
-2.29963e-06
0.000119506
-2.4091e-06
0.000119621
-2.52111e-06
-2.63601e-06
0.000119737
0.000117017
1.11655e-07
0.000117165
3.11675e-07
0.000117385
4.43774e-07
0.000117647
4.93906e-07
0.000117932
4.7328e-07
0.000118225
3.99048e-07
0.000118516
2.87037e-07
0.0001188
1.5136e-07
0.000119073
3.39757e-09
0.000119334
-1.48666e-07
0.000119582
-2.99572e-07
0.000119818
-4.46047e-07
0.000120041
-5.86368e-07
0.000120253
-7.19883e-07
0.000120453
-8.46646e-07
0.000120643
-9.67136e-07
0.000120823
-1.08208e-06
0.000120994
-1.1923e-06
0.000121157
-1.29868e-06
0.000121311
-1.40203e-06
0.000121458
-1.50314e-06
0.000121598
-1.60272e-06
0.000121732
-1.70139e-06
0.00012186
-1.79971e-06
0.000121984
-1.89819e-06
0.000122103
-1.99726e-06
0.000122219
-2.09733e-06
0.000122331
-2.19879e-06
0.000122441
-2.30199e-06
0.000122548
-2.4073e-06
0.000122654
-2.51508e-06
0.000122759
-2.62573e-06
-2.73944e-06
0.000122862
0.000120353
6.42614e-08
0.000120488
1.76871e-07
0.00012069
2.41705e-07
0.000120937
2.47465e-07
0.000121209
2.01055e-07
0.000121493
1.14665e-07
0.00012178
1.98341e-10
0.000122063
-1.31465e-07
0.000122338
-2.71444e-07
0.000122602
-4.1325e-07
0.000122856
-5.52655e-07
0.000123097
-6.87099e-07
0.000123325
-8.15299e-07
0.000123542
-9.36876e-07
0.000123748
-1.05205e-06
0.000123942
-1.16141e-06
0.000124126
-1.26574e-06
0.000124299
-1.36591e-06
0.000124464
-1.46282e-06
0.000124619
-1.55731e-06
0.000124766
-1.65016e-06
0.000124905
-1.74208e-06
0.000125038
-1.8337e-06
0.000125163
-1.92557e-06
0.000125283
-2.01819e-06
0.000125398
-2.11197e-06
0.000125508
-2.20729e-06
0.000125614
-2.30451e-06
0.000125716
-2.40394e-06
0.000125814
-2.50588e-06
0.00012591
-2.6106e-06
0.000126003
-2.71839e-06
-2.82931e-06
0.000126092
0.000123787
2.05529e-08
0.000123912
5.20654e-08
0.000124101
5.23985e-08
0.000124335
1.29878e-08
0.000124598
-6.19531e-08
0.000124877
-1.63933e-07
0.000125162
-2.8425e-07
0.000125445
-4.14861e-07
0.000125723
-5.49133e-07
0.000125992
-6.82245e-07
0.00012625
-8.11099e-07
0.000126497
-9.3394e-07
0.000126732
-1.05003e-06
0.000126954
-1.15937e-06
0.000127164
-1.26242e-06
0.000127363
-1.35994e-06
0.00012755
-1.45284e-06
0.000127726
-1.54207e-06
0.000127892
-1.62857e-06
0.000128048
-1.71321e-06
0.000128195
-1.79681e-06
0.000128333
-1.88007e-06
0.000128463
-1.96363e-06
0.000128585
-2.04802e-06
0.0001287
-2.13372e-06
0.00012881
-2.22113e-06
0.000128913
-2.3106e-06
0.000129011
-2.40241e-06
0.000129104
-2.49684e-06
0.000129192
-2.5941e-06
0.000129276
-2.69439e-06
0.000129355
-2.7979e-06
-2.90456e-06
0.000129431
0.00012732
-2.06551e-08
0.000127438
-6.59497e-08
0.000127618
-1.28287e-07
0.000127845
-2.1363e-07
0.000128102
-3.19382e-07
0.000128378
-4.39799e-07
0.000128663
-5.68813e-07
0.000128949
-7.00826e-07
0.000129231
-8.31281e-07
0.000129506
-9.56973e-07
0.000129771
-1.07599e-06
0.000130024
-1.18746e-06
0.000130265
-1.29129e-06
0.000130494
-1.38793e-06
0.00013071
-1.47817e-06
0.000130913
-1.56301e-06
0.000131103
-1.64353e-06
0.000131282
-1.72078e-06
0.000131449
-1.79579e-06
0.000131606
-1.86948e-06
0.000131752
-1.9427e-06
0.000131888
-2.01617e-06
0.000132015
-2.09052e-06
0.000132133
-2.16628e-06
0.000132243
-2.24391e-06
0.000132346
-2.32376e-06
0.000132441
-2.40615e-06
0.00013253
-2.49132e-06
0.000132613
-2.57946e-06
0.000132689
-2.67071e-06
0.00013276
-2.76518e-06
0.000132825
-2.86297e-06
-2.96386e-06
0.000132885
0.000130955
-6.04138e-08
0.000131069
-1.80076e-07
0.000131245
-3.04262e-07
0.000131468
-4.36478e-07
0.000131723
-5.75044e-07
0.000132
-7.1627e-07
0.000132287
-8.56282e-07
0.000132578
-9.91637e-07
0.000132866
-1.11971e-06
0.000133148
-1.23887e-06
0.000133421
-1.34845e-06
0.000133682
-1.44852e-06
0.00013393
-1.53971e-06
0.000134165
-1.62299e-06
0.000134387
-1.69958e-06
0.000134594
-1.77075e-06
0.000134789
-1.83778e-06
0.00013497
-1.9019e-06
0.000135138
-1.96422e-06
0.000135295
-2.02575e-06
0.000135439
-2.08736e-06
0.000135573
-2.14981e-06
0.000135696
-2.21372e-06
0.000135809
-2.27961e-06
0.000135913
-2.34792e-06
0.000136009
-2.41897e-06
0.000136095
-2.49302e-06
0.000136174
-2.57025e-06
0.000136246
-2.65081e-06
0.00013631
-2.73474e-06
0.000136367
-2.82208e-06
0.000136417
-2.91284e-06
-3.00671e-06
0.000136459
0.000134694
-9.97232e-08
0.000134807
-2.93112e-07
0.000134983
-4.79446e-07
0.000135206
-6.59886e-07
0.000135464
-8.33233e-07
0.000135745
-9.97376e-07
0.000136039
-1.15031e-06
0.000136338
-1.29053e-06
0.000136636
-1.41725e-06
0.000136927
-1.5304e-06
0.000137209
-1.63058e-06
0.00013748
-1.71888e-06
0.000137737
-1.79673e-06
0.00013798
-1.86573e-06
0.000138208
-1.92755e-06
0.000138421
-1.9838e-06
0.000138619
-2.03603e-06
0.000138803
-2.08563e-06
0.000138972
-2.13388e-06
0.000139128
-2.18184e-06
0.000139271
-2.23045e-06
0.000139402
-2.28048e-06
0.000139521
-2.33258e-06
0.000139629
-2.38725e-06
0.000139726
-2.44489e-06
0.000139812
-2.50579e-06
0.00013989
-2.57017e-06
0.000139957
-2.63814e-06
0.000140016
-2.70978e-06
0.000140067
-2.78506e-06
0.000140109
-2.86393e-06
0.000140142
-2.94631e-06
-3.03178e-06
0.000140167
0.000138542
-1.39584e-07
0.000138657
-4.07862e-07
0.000138835
-6.57827e-07
0.000139064
-8.8833e-07
0.000139329
-1.09841e-06
0.000139619
-1.28725e-06
0.000139923
-1.45454e-06
0.000140233
-1.60062e-06
0.000140542
-1.72649e-06
0.000140846
-1.83367e-06
0.000141139
-1.92409e-06
0.00014142
-1.99992e-06
0.000141687
-2.06346e-06
0.000141938
-2.11699e-06
0.000142173
-2.16269e-06
0.000142392
-2.20259e-06
0.000142595
-2.23852e-06
0.000142781
-2.27209e-06
0.000142952
-2.30471e-06
0.000143108
-2.33757e-06
0.000143249
-2.37166e-06
0.000143376
-2.40779e-06
0.00014349
-2.44661e-06
0.000143591
-2.48861e-06
0.000143681
-2.53416e-06
0.000143758
-2.58353e-06
0.000143825
-2.63686e-06
0.000143881
-2.69423e-06
0.000143927
-2.75564e-06
0.000143963
-2.82101e-06
0.000143989
-2.89021e-06
0.000144006
-2.96309e-06
-3.03918e-06
0.000144014
0.000142501
-1.81107e-07
0.00014262
-5.27473e-07
0.000142807
-8.44043e-07
0.000143046
-1.12731e-06
0.000143324
-1.37644e-06
0.000143628
-1.59178e-06
0.000143948
-1.77462e-06
0.000144275
-1.92713e-06
0.0001446
-2.05213e-06
0.000144919
-2.1528e-06
0.000145228
-2.23248e-06
0.000145523
-2.29455e-06
0.000145801
-2.34225e-06
0.000146063
-2.37861e-06
0.000146307
-2.40641e-06
0.000146532
-2.42812e-06
0.00014674
-2.44589e-06
0.000146929
-2.4616e-06
0.000147101
-2.4768e-06
0.000147256
-2.49279e-06
0.000147395
-2.51065e-06
0.000147519
-2.53122e-06
0.000147627
-2.55514e-06
0.000147722
-2.58291e-06
0.000147802
-2.61486e-06
0.00014787
-2.65122e-06
0.000147925
-2.69209e-06
0.000147968
-2.73748e-06
0.000148
-2.78733e-06
0.000148021
-2.84148e-06
0.00014803
-2.89973e-06
0.000148029
-2.96185e-06
-3.02726e-06
0.000148017
0.000146574
-2.25469e-07
0.000146701
-6.55275e-07
0.0001469
-1.04283e-06
0.000147155
-1.38214e-06
0.000147451
-1.67261e-06
0.000147775
-1.91591e-06
0.000148116
-2.11498e-06
0.000148463
-2.27395e-06
0.000148808
-2.39756e-06
0.000149146
-2.49074e-06
0.000149472
-2.55835e-06
0.000149782
-2.60503e-06
0.000150075
-2.63504e-06
0.000150349
-2.65226e-06
0.000150602
-2.6601e-06
0.000150836
-2.66152e-06
0.000151049
-2.65905e-06
0.000151242
-2.65482e-06
0.000151416
-2.65057e-06
0.000151571
-2.64775e-06
0.000151708
-2.64749e-06
0.000151827
-2.65067e-06
0.00015193
-2.65795e-06
0.000152017
-2.66981e-06
0.000152089
-2.68656e-06
0.000152146
-2.70838e-06
0.000152189
-2.73533e-06
0.000152219
-2.76736e-06
0.000152236
-2.80435e-06
0.000152241
-2.84609e-06
0.000152233
-2.89233e-06
0.000152214
-2.9428e-06
-2.99687e-06
0.000152184
0.000150765
-2.744e-07
0.000150905
-7.96131e-07
0.000151124
-1.2615e-06
0.000151404
-1.66175e-06
0.000151728
-1.99671e-06
0.000152081
-2.26949e-06
0.000152451
-2.48498e-06
0.000152827
-2.64952e-06
0.0001532
-2.77009e-06
0.000153562
-2.8536e-06
0.000153911
-2.90662e-06
0.000154241
-2.9352e-06
0.000154551
-2.94477e-06
0.000154838
-2.94008e-06
0.000155103
-2.92524e-06
0.000155346
-2.90375e-06
0.000155565
-2.87851e-06
0.000155762
-2.85193e-06
0.000155938
-2.82595e-06
0.000156092
-2.80213e-06
0.000156226
-2.78168e-06
0.000156341
-2.7655e-06
0.000156437
-2.75428e-06
0.000156516
-2.74846e-06
0.000156578
-2.74833e-06
0.000156623
-2.75402e-06
0.000156654
-2.76554e-06
0.000156669
-2.78279e-06
0.00015667
-2.80557e-06
0.000156658
-2.83363e-06
0.000156632
-2.86661e-06
0.000156594
-2.90418e-06
-2.94562e-06
0.000156542
0.000155077
-3.29315e-07
0.000155235
-9.54205e-07
0.000155479
-1.50553e-06
0.000155789
-1.97184e-06
0.000156146
-2.35422e-06
0.000156535
-2.65786e-06
0.00015694
-2.88986e-06
0.000157349
-3.05908e-06
0.000157754
-3.17491e-06
0.000158147
-3.24646e-06
0.000158522
-3.28216e-06
0.000158877
-3.28963e-06
0.000159208
-3.27556e-06
0.000159513
-3.24572e-06
0.000159793
-3.20499e-06
0.000160047
-3.15745e-06
0.000160275
-3.10643e-06
0.000160477
-3.05464e-06
0.000160656
-3.00422e-06
0.00016081
-2.95685e-06
0.000160942
-2.91381e-06
0.000161053
-2.87605e-06
0.000161143
-2.84423e-06
0.000161213
-2.81878e-06
0.000161265
-2.79995e-06
0.000161299
-2.78783e-06
0.000161315
-2.78236e-06
0.000161316
-2.78339e-06
0.000161301
-2.79069e-06
0.000161271
-2.80393e-06
0.000161228
-2.82274e-06
0.00016117
-2.84677e-06
-2.87525e-06
0.0001611
0.000159516
-3.94466e-07
0.000159702
-1.14051e-06
0.000159987
-1.79097e-06
0.000160347
-2.33104e-06
0.000160757
-2.76413e-06
0.000161197
-3.09849e-06
0.000161652
-3.3445e-06
0.000162107
-3.51451e-06
0.000162553
-3.6211e-06
0.000162983
-3.67594e-06
0.00016339
-3.68959e-06
0.000163772
-3.67138e-06
0.000164126
-3.62935e-06
0.000164451
-3.57029e-06
0.000164745
-3.49987e-06
0.000165011
-3.42274e-06
0.000165247
-3.34264e-06
0.000165455
-3.26257e-06
0.000165635
-3.18486e-06
0.00016579
-3.11129e-06
0.000165919
-3.04321e-06
0.000166025
-2.98156e-06
0.000166108
-2.92699e-06
0.000166169
-2.87991e-06
0.000166209
-2.84052e-06
0.00016623
-2.80884e-06
0.000166233
-2.78476e-06
0.000166217
-2.76809e-06
0.000166185
-2.7585e-06
0.000166137
-2.75562e-06
0.000166073
-2.75899e-06
0.000165995
-2.76816e-06
-2.78227e-06
0.000165902
0.000164081
-4.69631e-07
0.000164298
-1.35717e-06
0.000164627
-2.11993e-06
0.000165038
-2.7419e-06
0.000165505
-3.23096e-06
0.000166005
-3.59865e-06
0.000166519
-3.85868e-06
0.000167032
-4.02739e-06
0.000167532
-4.12103e-06
0.00016801
-4.15437e-06
0.000168461
-4.14055e-06
0.000168881
-4.09099e-06
0.000169267
-4.01534e-06
0.000169618
-3.9216e-06
0.000169935
-3.81635e-06
0.000170217
-3.70485e-06
0.000170465
-3.59129e-06
0.000170682
-3.47895e-06
0.000170867
-3.37031e-06
0.000171023
-3.26725e-06
0.000171151
-3.17113e-06
0.000171252
-3.08287e-06
0.000171328
-3.00309e-06
0.000171381
-2.93213e-06
0.00017141
-2.87011e-06
0.000171418
-2.81699e-06
0.000171406
-2.77262e-06
0.000171375
-2.73672e-06
0.000171325
-2.70893e-06
0.000171258
-2.68884e-06
0.000171175
-2.67595e-06
0.000171077
-2.66985e-06
-2.6696e-06
0.000170964
0.000168794
-5.72139e-07
0.000169077
-1.64007e-06
0.000169494
-2.53652e-06
0.000169998
-3.24645e-06
0.000170556
-3.78875e-06
0.00017114
-4.18244e-06
0.000171729
-4.44751e-06
0.000172307
-4.60602e-06
0.000172865
-4.67844e-06
0.000173393
-4.68272e-06
0.000173887
-4.63455e-06
0.000174343
-4.54734e-06
0.00017476
-4.43227e-06
0.000175137
-4.29849e-06
0.000175474
-4.15342e-06
0.000175772
-4.00292e-06
0.000176033
-3.85161e-06
0.000176257
-3.70301e-06
0.000176446
-3.55978e-06
0.000176603
-3.42384e-06
0.000176728
-3.29655e-06
0.000176824
-3.17882e-06
0.000176892
-3.07117e-06
0.000176934
-2.97388e-06
0.000176951
-2.88699e-06
0.000176944
-2.81037e-06
0.000176916
-2.74379e-06
0.000176866
-2.6869e-06
0.000176796
-2.63928e-06
0.000176708
-2.60044e-06
0.000176601
-2.56981e-06
0.000176479
-2.54687e-06
-2.53056e-06
0.000176339
0.000173622
-6.83101e-07
0.000173951
-1.9692e-06
0.00017444
-3.0248e-06
0.000175037
-3.84351e-06
0.000175702
-4.45383e-06
0.000176398
-4.879e-06
0.000177097
-5.14658e-06
0.000177779
-5.28718e-06
0.000178428
-5.32769e-06
0.000179036
-5.29081e-06
0.000179597
-5.19593e-06
0.000180109
-5.05921e-06
0.000180571
-4.89374e-06
0.000180982
-4.71003e-06
0.000181345
-4.51638e-06
0.000181662
-4.31925e-06
0.000181933
-4.12356e-06
0.000182163
-3.93298e-06
0.000182354
-3.75021e-06
0.000182507
-3.57711e-06
0.000182626
-3.41495e-06
0.000182711
-3.2645e-06
0.000182766
-3.12614e-06
0.000182792
-2.99999e-06
0.000182791
-2.88596e-06
0.000182765
-2.78381e-06
0.000182714
-2.6932e-06
0.000182641
-2.61372e-06
0.000182547
-2.54489e-06
0.000182432
-2.48622e-06
0.0001823
-2.43715e-06
0.00018215
-2.39721e-06
-2.36524e-06
0.000181985
0.000178682
-8.96345e-07
0.000179188
-2.47591e-06
0.000179859
-3.69489e-06
0.000180612
-4.59733e-06
0.000181408
-5.24945e-06
0.000182213
-5.68372e-06
0.000183002
-5.93617e-06
0.00018376
-6.04484e-06
0.000184474
-6.04141e-06
0.000185135
-5.95258e-06
0.000185741
-5.8012e-06
0.000186288
-5.60608e-06
0.000186776
-5.38225e-06
0.000187208
-5.14159e-06
0.000187585
-4.89328e-06
0.00018791
-4.64431e-06
0.000188186
-4.39986e-06
0.000188417
-4.16366e-06
0.000188605
-3.93832e-06
0.000188753
-3.72558e-06
0.000188865
-3.52647e-06
0.000188942
-3.34155e-06
0.000188987
-3.17099e-06
0.000189001
-3.01467e-06
0.000188988
-2.87233e-06
0.000188947
-2.74354e-06
0.000188882
-2.62784e-06
0.000188793
-2.5247e-06
0.000188682
-2.43363e-06
0.00018855
-2.35409e-06
0.000188398
-2.28555e-06
0.000188228
-2.22753e-06
-2.1788e-06
0.000188042
0.000183745
-1.07431e-06
0.000184336
-3.06621e-06
0.000185166
-4.52545e-06
0.000186133
-5.56461e-06
0.000187155
-6.27118e-06
0.000188168
-6.69624e-06
0.000189137
-6.90532e-06
0.000190047
-6.95533e-06
0.000190893
-6.88675e-06
0.000191672
-6.73143e-06
0.000192385
-6.51505e-06
0.000193037
-6.25756e-06
0.000193629
-5.9743e-06
0.000194165
-5.67712e-06
0.000194646
-5.37503e-06
0.000195077
-5.07478e-06
0.000195458
-4.78137e-06
0.000195793
-4.49841e-06
0.000196083
-4.22839e-06
0.00019633
-3.97294e-06
0.000196537
-3.73302e-06
0.000196705
-3.50911e-06
0.000196835
-3.30126e-06
0.000196929
-3.10931e-06
0.00019699
-2.93288e-06
0.000197018
-2.7715e-06
0.000197015
-2.62466e-06
0.000196982
-2.49184e-06
0.000196921
-2.37264e-06
0.000196833
-2.26664e-06
0.000196722
-2.17375e-06
0.000196588
-2.09368e-06
-2.0262e-06
0.000196435
0.000189417
-1.67975e-06
0.000190405