/*--------------------------------*- C++ -*----------------------------------*\
| =========                 |                                                 |
| \\      /  F ield         | OpenFOAM: The Open Source CFD Toolbox           |
|  \\    /   O peration     | Version:  2.1.1                                 |
|   \\  /    A nd           | Web:      www.OpenFOAM.org                      |
|    \\/     M anipulation  |                                                 |
\*---------------------------------------------------------------------------*/
FoamFile
{
    version     2.0;
    format      ascii;
    class       volVectorField;
    location    "0.025";
    object      U;
}
// * * * * * * * * * * * * * * * * * * * * * * * * * * * * * * * * * * * * * //

dimensions      [0 1 -1 0 0 0 0];

internalField   nonuniform List<vector> 
6820
(
(6.3761 0.503706 0)
(4.42479 0.286809 0)
(2.97472 0.0201305 0)
(2.23638 -0.0620197 0)
(1.97183 -0.0601291 0)
(1.84633 -0.0347235 0)
(1.77298 -0.0153046 0)
(1.7227 -0.0049151 0)
(1.68145 -0.000201283 0)
(1.64621 0.00131575 0)
(1.61643 0.00130367 0)
(1.59166 0.000698998 0)
(1.57142 -6.62911e-05 0)
(1.55521 -0.00080431 0)
(1.54254 -0.00144099 0)
(1.533 -0.00195713 0)
(1.52622 -0.00235633 0)
(1.52193 -0.00265424 0)
(1.51997 -0.00283168 0)
(1.52013 -0.00309653 0)
(1.52223 -0.00331973 0)
(1.52617 -0.00341207 0)
(1.53185 -0.00344743 0)
(1.53922 -0.00350678 0)
(1.54824 -0.00359561 0)
(1.55892 -0.00368898 0)
(1.57118 -0.00378541 0)
(1.58519 -0.00384759 0)
(1.60047 -0.00402301 0)
(1.6188 -0.00387026 0)
(1.63508 -0.00518203 0)
(1.6668 -0.000637529 0)
(1.65891 -0.0317476 0)
(8.72021 0.959493 0)
(8.76515 1.0116 0)
(7.97021 0.67853 0)
(7.05821 0.393278 0)
(6.35911 0.201668 0)
(5.85511 0.102369 0)
(5.49605 0.0566613 0)
(5.23813 0.0359042 0)
(5.04645 0.0264148 0)
(4.89888 0.0215556 0)
(4.78208 0.0184743 0)
(4.68773 0.0161153 0)
(4.61052 0.0140825 0)
(4.54692 0.0122111 0)
(4.49449 0.0104204 0)
(4.45148 0.00866548 0)
(4.41659 0.00692457 0)
(4.38886 0.00516908 0)
(4.36752 0.00342016 0)
(4.35195 0.00164364 0)
(4.34175 -0.000144987 0)
(4.33661 -0.00201549 0)
(4.33623 -0.00395685 0)
(4.34028 -0.00588191 0)
(4.34859 -0.00782996 0)
(4.36102 -0.00983312 0)
(4.37743 -0.0119437 0)
(4.39777 -0.0141362 0)
(4.42188 -0.0166707 0)
(4.45012 -0.0190557 0)
(4.48182 -0.0234776 0)
(4.5206 -0.0261507 0)
(4.56201 -0.0394534 0)
(8.5861 0.583297 0)
(9.33133 0.761763 0)
(9.61489 0.659146 0)
(9.50584 0.525138 0)
(9.24126 0.395213 0)
(8.93106 0.296954 0)
(8.62814 0.227695 0)
(8.35568 0.177809 0)
(8.11797 0.141304 0)
(7.91278 0.113994 0)
(7.73646 0.0929605 0)
(7.5852 0.0763367 0)
(7.45556 0.0628963 0)
(7.3446 0.0518014 0)
(7.24982 0.0424539 0)
(7.16916 0.0344079 0)
(7.10091 0.0273261 0)
(7.04365 0.0209526 0)
(6.99619 0.0150928 0)
(6.95755 0.00962351 0)
(6.92695 0.00443016 0)
(6.90366 -0.000592258 0)
(6.88706 -0.00555843 0)
(6.87689 -0.0105052 0)
(6.87286 -0.0154953 0)
(6.87462 -0.0205252 0)
(6.88181 -0.0256093 0)
(6.89415 -0.0307717 0)
(6.91132 -0.0361904 0)
(6.93312 -0.0417829 0)
(6.95908 -0.0487236 0)
(6.98823 -0.0559849 0)
(7.01933 -0.0697529 0)
(8.44094 0.379519 0)
(8.94592 0.58347 0)
(9.3584 0.553507 0)
(9.58624 0.485434 0)
(9.70072 0.404859 0)
(9.73749 0.335005 0)
(9.7232 0.281734 0)
(9.68028 0.240713 0)
(9.62168 0.208291 0)
(9.55476 0.18187 0)
(9.48429 0.159589 0)
(9.41345 0.140308 0)
(9.3443 0.12331 0)
(9.27835 0.108091 0)
(9.21658 0.0943003 0)
(9.15961 0.0816808 0)
(9.10776 0.0700241 0)
(9.0612 0.0591496 0)
(9.01998 0.048914 0)
(8.98407 0.0391902 0)
(8.95337 0.029854 0)
(8.92775 0.0208242 0)
(8.90711 0.0120275 0)
(8.89114 0.0033235 0)
(8.87955 -0.00536982 0)
(8.87213 -0.0140616 0)
(8.86872 -0.0227816 0)
(8.86914 -0.031551 0)
(8.87313 -0.0404764 0)
(8.88042 -0.0495294 0)
(8.89049 -0.0591836 0)
(8.90211 -0.0688901 0)
(8.91479 -0.0793982 0)
(8.40215 0.279869 0)
(8.71904 0.480066 0)
(8.99901 0.460822 0)
(9.17453 0.402775 0)
(9.29902 0.340119 0)
(9.39241 0.286949 0)
(9.46147 0.247089 0)
(9.51441 0.216533 0)
(9.55608 0.191954 0)
(9.58889 0.171442 0)
(9.61464 0.153722 0)
(9.63473 0.137997 0)
(9.65034 0.123769 0)
(9.66224 0.110691 0)
(9.67112 0.0985006 0)
(9.67767 0.0869923 0)
(9.68248 0.0760064 0)
(9.6861 0.0654146 0)
(9.68895 0.0551162 0)
(9.6914 0.0450289 0)
(9.69378 0.0350871 0)
(9.69631 0.0252346 0)
(9.69919 0.0154267 0)
(9.7026 0.00565612 0)
(9.70634 -0.00402584 0)
(9.71038 -0.0136741 0)
(9.71472 -0.0233531 0)
(9.71933 -0.03308 0)
(9.72413 -0.0428918 0)
(9.72897 -0.0527345 0)
(9.73349 -0.0626779 0)
(9.73711 -0.0721942 0)
(9.73921 -0.0810249 0)
(8.37748 0.20196 0)
(8.60143 0.382886 0)
(8.81602 0.389468 0)
(8.94723 0.354543 0)
(9.0333 0.309584 0)
(9.09627 0.265394 0)
(9.14336 0.228741 0)
(9.18183 0.199289 0)
(9.21588 0.175234 0)
(9.24688 0.155226 0)
(9.27542 0.138158 0)
(9.30185 0.123191 0)
(9.32635 0.109766 0)
(9.34915 0.0975086 0)
(9.37038 0.0861283 0)
(9.39015 0.0753968 0)
(9.40851 0.0651424 0)
(9.42555 0.0552329 0)
(9.44132 0.0455668 0)
(9.4559 0.0360652 0)
(9.46934 0.0266628 0)
(9.4817 0.0173104 0)
(9.49304 0.00797872 0)
(9.50335 -0.00132346 0)
(9.51296 -0.0105774 0)
(9.52196 -0.0198306 0)
(9.53038 -0.0291052 0)
(9.53821 -0.0383838 0)
(9.54539 -0.0476466 0)
(9.55181 -0.0567927 0)
(9.55724 -0.065713 0)
(9.56148 -0.0739023 0)
(9.56421 -0.0809132 0)
(8.36128 0.14857 0)
(8.52279 0.310622 0)
(8.69767 0.335712 0)
(8.81266 0.315581 0)
(8.88757 0.281703 0)
(8.94103 0.244793 0)
(8.97922 0.212335 0)
(9.00832 0.185522 0)
(9.03272 0.163181 0)
(9.05435 0.144258 0)
(9.07414 0.127901 0)
(9.09268 0.113441 0)
(9.11028 0.100404 0)
(9.1271 0.0884475 0)
(9.14325 0.0773212 0)
(9.15878 0.0668339 0)
(9.17374 0.0568352 0)
(9.18815 0.0472036 0)
(9.20202 0.0378408 0)
(9.21536 0.028667 0)
(9.22818 0.0196187 0)
(9.24049 0.0106429 0)
(9.2523 0.00171117 0)
(9.26366 -0.00722932 0)
(9.2746 -0.0162479 0)
(9.28511 -0.0253237 0)
(9.2952 -0.0344207 0)
(9.30486 -0.0434984 0)
(9.31402 -0.0524997 0)
(9.32264 -0.0612965 0)
(9.3306 -0.0697209 0)
(9.33785 -0.0773389 0)
(9.34435 -0.0838254 0)
(8.35116 0.111114 0)
(8.46746 0.250743 0)
(8.60836 0.285013 0)
(8.71029 0.276186 0)
(8.78039 0.253155 0)
(8.83239 0.224944 0)
(8.87063 0.197974 0)
(8.89966 0.174344 0)
(8.92343 0.153779 0)
(8.94395 0.13579 0)
(8.96228 0.119917 0)
(8.97912 0.105709 0)
(8.99491 0.0927997 0)
(9.00991 0.0809094 0)
(9.02427 0.0698191 0)
(9.03813 0.0593495 0)
(9.05156 0.0493534 0)
(9.06461 0.0397104 0)
(9.07733 0.0303231 0)
(9.08974 0.0211127 0)
(9.10188 0.0120149 0)
(9.11375 0.0029779 0)
(9.12537 -0.00604685 0)
(9.13673 -0.0150893 0)
(9.14784 -0.0241541 0)
(9.15867 -0.0332178 0)
(9.16923 -0.0422567 0)
(9.1795 -0.0512319 0)
(9.18946 -0.0600767 0)
(9.19908 -0.0686653 0)
(9.20835 -0.0768232 0)
(9.21732 -0.0842081 0)
(9.22609 -0.090568 0)
(8.34487 0.0844168 0)
(8.42943 0.202791 0)
(8.54234 0.242107 0)
(8.63125 0.242134 0)
(8.69547 0.227236 0)
(8.74487 0.205434 0)
(8.78269 0.182568 0)
(8.81213 0.161471 0)
(8.83648 0.142568 0)
(8.85755 0.125706 0)
(8.87633 0.110617 0)
(8.89348 0.096976 0)
(8.90947 0.0844839 0)
(8.92455 0.0729024 0)
(8.93893 0.0620382 0)
(8.95274 0.0517321 0)
(8.96608 0.0418538 0)
(8.97901 0.032297 0)
(8.99159 0.0229742 0)
(9.00387 0.0138143 0)
(9.01586 0.00475848 0)
(9.0276 -0.00423948 0)
(9.0391 -0.0132128 0)
(9.05038 -0.0221842 0)
(9.06144 -0.0311732 0)
(9.07228 -0.0401773 0)
(9.0829 -0.0491734 0)
(9.09333 -0.0581166 0)
(9.10356 -0.0669349 0)
(9.11361 -0.0755111 0)
(9.12354 -0.0836895 0)
(9.13346 -0.0912127 0)
(9.14352 -0.0979129 0)
(8.34094 0.0651506 0)
(8.40312 0.16439 0)
(8.4934 0.204892 0)
(8.57024 0.210745 0)
(8.62856 0.201826 0)
(8.67496 0.185441 0)
(8.71174 0.16664 0)
(8.7411 0.148346 0)
(8.7656 0.131355 0)
(8.78688 0.115766 0)
(8.80586 0.101509 0)
(8.82317 0.0884129 0)
(8.83928 0.0762804 0)
(8.85445 0.0649362 0)
(8.86889 0.0542281 0)
(8.88273 0.0440239 0)
(8.89607 0.0342099 0)
(8.90899 0.0246895 0)
(8.92154 0.0153809 0)
(8.93376 0.00621613 0)
(8.9457 -0.00286198 0)
(8.95737 -0.0118967 0)
(8.96882 -0.020922 0)
(8.98005 -0.0299635 0)
(8.99109 -0.0390325 0)
(9.00195 -0.0481196 0)
(9.01266 -0.0571984 0)
(9.02324 -0.0662263 0)
(9.03372 -0.07514 0)
(9.04416 -0.0838446 0)
(9.05464 -0.0922202 0)
(9.06532 -0.100088 0)
(9.07637 -0.107359 0)
(8.33846 0.0509737 0)
(8.38476 0.133512 0)
(8.45701 0.172806 0)
(8.52308 0.182573 0)
(8.57578 0.178291 0)
(8.61904 0.166355 0)
(8.65443 0.151014 0)
(8.68336 0.135107 0)
(8.70779 0.119743 0)
(8.72916 0.105265 0)
(8.74827 0.091772 0)
(8.76573 0.0792165 0)
(8.78195 0.0674784 0)
(8.79722 0.0564273 0)
(8.81172 0.0459398 0)
(8.82559 0.0359025 0)
(8.83895 0.0262143 0)
(8.85186 0.0167874 0)
(8.86439 0.00754696 0)
(8.87658 -0.00157037 0)
(8.88848 -0.0106171 0)
(8.90012 -0.0196356 0)
(8.91153 -0.0286571 0)
(8.92274 -0.0377035 0)
(8.93378 -0.0467855 0)
(8.94466 -0.0559004 0)
(8.95543 -0.0650312 0)
(8.96612 -0.0741466 0)
(8.97679 -0.0831982 0)
(8.98751 -0.0921167 0)
(8.99838 -0.10082 0)
(9.00959 -0.109195 0)
(9.02129 -0.117213 0)
(8.33687 0.0403322 0)
(8.37184 0.108621 0)
(8.42981 0.145212 0)
(8.48637 0.157193 0)
(8.53371 0.15616 0)
(8.57381 0.147621 0)
(8.60762 0.135179 0)
(8.63594 0.121459 0)
(8.66023 0.107709 0)
(8.68162 0.0944139 0)
(8.70086 0.0817774 0)
(8.71845 0.0698395 0)
(8.73479 0.0585485 0)
(8.75016 0.0478214 0)
(8.76473 0.037568 0)
(8.77865 0.0276987 0)
(8.79202 0.0181293 0)
(8.80493 0.0087837 0)
(8.81744 -0.000405751 0)
(8.82959 -0.00949774 0)
(8.84144 -0.0185416 0)
(8.85302 -0.0275778 0)
(8.86437 -0.0366378 0)
(8.87552 -0.0457445 0)
(8.8865 -0.0549106 0)
(8.89734 -0.0641373 0)
(8.90811 -0.0734135 0)
(8.91883 -0.0827169 0)
(8.92959 -0.0920145 0)
(8.94047 -0.101262 0)
(8.95158 -0.110415 0)
(8.96309 -0.119413 0)
(8.97515 -0.128276 0)
(8.33583 0.0321755 0)
(8.36264 0.0884252 0)
(8.40936 0.121463 0)
(8.45767 0.134371 0)
(8.50005 0.135558 0)
(8.53706 0.129638 0)
(8.56914 0.11962 0)
(8.59667 0.107824 0)
(8.62064 0.0955231 0)
(8.64195 0.0833011 0)
(8.66123 0.0714482 0)
(8.67892 0.060083 0)
(8.69537 0.0492163 0)
(8.71083 0.0388078 0)
(8.72548 0.0287965 0)
(8.73945 0.0191127 0)
(8.75286 0.00968565 0)
(8.76577 0.000447952 0)
(8.77826 -0.008662 0)
(8.79038 -0.0176987 0)
(8.80217 -0.0267092 0)
(8.81368 -0.0357333 0)
(8.82495 -0.0448026 0)
(8.83601 -0.053941 0)
(8.8469 -0.063164 0)
(8.85768 -0.0724783 0)
(8.86838 -0.0818824 0)
(8.87907 -0.0913673 0)
(8.88982 -0.100919 0)
(8.90072 -0.110518 0)
(8.91188 -0.120151 0)
(8.92347 -0.129802 0)
(8.9356 -0.139524 0)
(8.33514 0.0257908 0)
(8.35602 0.0719108 0)
(8.39391 0.101006 0)
(8.43517 0.11387 0)
(8.47298 0.116407 0)
(8.50701 0.112369 0)
(8.5373 0.104253 0)
(8.56389 0.0940692 0)
(8.58742 0.0830507 0)
(8.60858 0.0718318 0)
(8.62784 0.0607537 0)
(8.64559 0.0499847 0)
(8.66212 0.0395789 0)
(8.67766 0.0295285 0)
(8.69237 0.0197963 0)
(8.70639 0.0103302 0)
(8.71982 0.00107226 0)
(8.73272 -0.00803607 0)
(8.74518 -0.01705 0)
(8.75724 -0.0260201 0)
(8.76895 -0.0349915 0)
(8.78036 -0.0440029 0)
(8.79151 -0.053087 0)
(8.80245 -0.0622697 0)
(8.81321 -0.0715705 0)
(8.82385 -0.0810025 0)
(8.83442 -0.0905731 0)
(8.84498 -0.100285 0)
(8.85561 -0.110141 0)
(8.8664 -0.120141 0)
(8.87745 -0.130296 0)
(8.88891 -0.140624 0)
(8.90086 -0.151194 0)
(8.33466 0.0206898 0)
(8.35118 0.0582753 0)
(8.38217 0.0833281 0)
(8.41746 0.0954387 0)
(8.45117 0.0986275 0)
(8.4824 0.0958683 0)
(8.51088 0.0892157 0)
(8.53645 0.0803718 0)
(8.55945 0.0704744 0)
(8.58035 0.0601634 0)
(8.59952 0.0498052 0)
(8.61727 0.0396008 0)
(8.63384 0.0296386 0)
(8.64943 0.0199391 0)
(8.66419 0.0104864 0)
(8.67824 0.00124435 0)
(8.69167 -0.00783374 0)
(8.70455 -0.0167982 0)
(8.71696 -0.025699 0)
(8.72894 -0.0345837 0)
(8.74056 -0.043496 0)
(8.75185 -0.0524746 0)
(8.76286 -0.0615534 0)
(8.77363 -0.0707611 0)
(8.78422 -0.0801215 0)
(8.79467 -0.089654 0)
(8.80505 -0.0993748 0)
(8.8154 -0.109298 0)
(8.82581 -0.11944 0)
(8.83637 -0.12982 0)
(8.84715 -0.140469 0)
(8.85828 -0.151424 0)
(8.86984 -0.162767 0)
(8.33432 0.0165333 0)
(8.34761 0.0468906 0)
(8.3732 0.0679789 0)
(8.4035 0.0788384 0)
(8.43356 0.0821242 0)
(8.4622 0.0801316 0)
(8.48893 0.0745299 0)
(8.51344 0.0667385 0)
(8.53583 0.0577748 0)
(8.5564 0.0482568 0)
(8.57543 0.0385569 0)
(8.59313 0.0288932 0)
(8.60971 0.0193753 0)
(8.62533 0.0100429 0)
(8.64011 0.000895237 0)
(8.65417 -0.00809243 0)
(8.66758 -0.0169581 0)
(8.68043 -0.0257461 0)
(8.69277 -0.0345025 0)
(8.70466 -0.0432726 0)
(8.71615 -0.0520991 0)
(8.72728 -0.0610212 0)
(8.73811 -0.0700745 0)
(8.74868 -0.0792905 0)
(8.75905 -0.0886974 0)
(8.76925 -0.0983208 0)
(8.77935 -0.108185 0)
(8.78941 -0.118313 0)
(8.7995 -0.128733 0)
(8.80969 -0.139477 0)
(8.82005 -0.150588 0)
(8.83071 -0.162118 0)
(8.84168 -0.174151 0)
(8.33407 0.0130816 0)
(8.34494 0.0372655 0)
(8.36631 0.0545622 0)
(8.39249 0.0638345 0)
(8.41936 0.0667802 0)
(8.44564 0.0651291 0)
(8.47071 0.0602207 0)
(8.49415 0.0532227 0)
(8.51589 0.0450203 0)
(8.5361 0.0361864 0)
(8.55494 0.027081 0)
(8.57256 0.0179242 0)
(8.58911 0.00883602 0)
(8.60472 -0.000131692 0)
(8.6195 -0.00896904 0)
(8.63355 -0.0176917 0)
(8.64693 -0.0263309 0)
(8.65972 -0.0349258 0)
(8.67197 -0.0435193 0)
(8.68373 -0.052155 0)
(8.69507 -0.0608749 0)
(8.70602 -0.0697191 0)
(8.71664 -0.0787246 0)
(8.72697 -0.0879261 0)
(8.73706 -0.0973557 0)
(8.74696 -0.107044 0)
(8.75672 -0.117022 0)
(8.7664 -0.127321 0)
(8.77607 -0.137977 0)
(8.78579 -0.14903 0)
(8.79562 -0.160533 0)
(8.80564 -0.172545 0)
(8.81588 -0.185146 0)
(8.33389 0.0101619 0)
(8.34293 0.0290156 0)
(8.36101 0.0427344 0)
(8.38379 0.0502037 0)
(8.40791 0.0524709 0)
(8.43209 0.0508112 0)
(8.45564 0.0462838 0)
(8.47804 0.0398367 0)
(8.49913 0.0322224 0)
(8.51894 0.0239554 0)
(8.53756 0.0153708 0)
(8.55506 0.00668103 0)
(8.57156 -0.00199265 0)
(8.58715 -0.0105927 0)
(8.60191 -0.0191033 0)
(8.61592 -0.0275351 0)
(8.62925 -0.0359152 0)
(8.64196 -0.0442802 0)
(8.6541 -0.0526714 0)
(8.66572 -0.0611317 0)
(8.67688 -0.0697036 0)
(8.68762 -0.0784282 0)
(8.69798 -0.0873448 0)
(8.70802 -0.0964907 0)
(8.71779 -0.105902 0)
(8.72732 -0.115614 0)
(8.73667 -0.125661 0)
(8.7459 -0.136083 0)
(8.75506 -0.146919 0)
(8.7642 -0.158216 0)
(8.77337 -0.170028 0)
(8.78265 -0.18242 0)
(8.79203 -0.195462 0)
(8.33375 0.00764668 0)
(8.34141 0.0218379 0)
(8.35692 0.0321989 0)
(8.37694 0.037734 0)
(8.39873 0.0390632 0)
(8.42107 0.0371079 0)
(8.44323 0.0326934 0)
(8.46467 0.0265797 0)
(8.48514 0.0193928 0)
(8.50456 0.0115814 0)
(8.52293 0.003446 0)
(8.54031 -0.00481839 0)
(8.55674 -0.0130972 0)
(8.57228 -0.021334 0)
(8.58701 -0.029512 0)
(8.60097 -0.03764 0)
(8.61423 -0.0457436 0)
(8.62684 -0.0538582 0)
(8.63885 -0.0620242 0)
(8.65031 -0.0702846 0)
(8.66126 -0.0786824 0)
(8.67175 -0.0872599 0)
(8.68183 -0.0960582 0)
(8.69154 -0.105117 0)
(8.70093 -0.114475 0)
(8.71005 -0.12417 0)
(8.71893 -0.134242 0)
(8.72763 -0.144732 0)
(8.7362 -0.155683 0)
(8.74468 -0.167145 0)
(8.75311 -0.179171 0)
(8.76153 -0.191825 0)
(8.76995 -0.205167 0)
(8.33365 0.00543929 0)
(8.34025 0.0154911 0)
(8.35376 0.0226993 0)
(8.37158 0.0262254 0)
(8.39142 0.0264191 0)
(8.41218 0.0239347 0)
(8.43314 0.0194058 0)
(8.45371 0.0134335 0)
(8.47359 0.00652846 0)
(8.49264 -0.00093196 0)
(8.51079 -0.00868575 0)
(8.52803 -0.0165618 0)
(8.54438 -0.0244583 0)
(8.55987 -0.0323254 0)
(8.57455 -0.0401495 0)
(8.58845 -0.0479411 0)
(8.60163 -0.0557268 0)
(8.61412 -0.0635428 0)
(8.62598 -0.0714308 0)
(8.63724 -0.0794346 0)
(8.64796 -0.0875989 0)
(8.65817 -0.0959679 0)
(8.66793 -0.104584 0)
(8.67727 -0.113491 0)
(8.68624 -0.122728 0)
(8.69488 -0.132336 0)
(8.70324 -0.142357 0)
(8.71135 -0.152834 0)
(8.71925 -0.163811 0)
(8.72699 -0.175337 0)
(8.7346 -0.187464 0)
(8.7421 -0.200251 0)
(8.7495 -0.213748 0)
(8.33357 0.00346463 0)
(8.33938 0.0097802 0)
(8.35135 0.0140125 0)
(8.36742 0.0154888 0)
(8.38567 0.0143955 0)
(8.40513 0.0111912 0)
(8.42506 0.00635515 0)
(8.44489 0.000353422 0)
(8.46427 -0.00640652 0)
(8.48298 -0.0136166 0)
(8.50093 -0.0210593 0)
(8.51806 -0.0285922 0)
(8.53434 -0.0361321 0)
(8.54978 -0.0436403 0)
(8.56441 -0.0511101 0)
(8.57825 -0.058557 0)
(8.59133 -0.0660105 0)
(8.6037 -0.0735094 0)
(8.61539 -0.0810969 0)
(8.62644 -0.088819 0)
(8.63691 -0.0967217 0)
(8.64682 -0.104851 0)
(8.65622 -0.113251 0)
(8.66515 -0.121965 0)
(8.67366 -0.131036 0)
(8.68178 -0.140507 0)
(8.68955 -0.150418 0)
(8.69702 -0.160813 0)
(8.7042 -0.171736 0)
(8.71114 -0.183233 0)
(8.71786 -0.195351 0)
(8.72438 -0.208145 0)
(8.73069 -0.221652 0)
(8.33351 0.0016621 0)
(8.33872 0.00454336 0)
(8.34954 0.00594198 0)
(8.36425 0.00534431 0)
(8.38126 0.00284638 0)
(8.39966 -0.00123258 0)
(8.41877 -0.00653541 0)
(8.438 -0.012707 0)
(8.45696 -0.0194322 0)
(8.47541 -0.0264674 0)
(8.4932 -0.0336427 0)
(8.51023 -0.0408481 0)
(8.52646 -0.0480226 0)
(8.54186 -0.0551431 0)
(8.55644 -0.0622142 0)
(8.5702 -0.0692591 0)
(8.58318 -0.0763136 0)
(8.59541 -0.083421 0)
(8.60692 -0.0906285 0)
(8.61774 -0.0979849 0)
(8.62792 -0.105539 0)
(8.6375 -0.113339 0)
(8.64652 -0.121431 0)
(8.65501 -0.12986 0)
(8.66301 -0.13867 0)
(8.67057 -0.147904 0)
(8.67772 -0.157602 0)
(8.68449 -0.167808 0)
(8.69091 -0.178563 0)
(8.697 -0.18991 0)
(8.70279 -0.201891 0)
(8.70829 -0.214552 0)
(8.7135 -0.227923 0)
(8.33347 -1.8429e-05 0)
(8.33825 -0.000357001 0)
(8.34822 -0.00168995 0)
(8.36193 -0.00438307 0)
(8.37801 -0.00838386 0)
(8.39562 -0.0134702 0)
(8.41411 -0.0193814 0)
(8.4329 -0.0258544 0)
(8.45158 -0.0326569 0)
(8.46986 -0.0396092 0)
(8.48756 -0.0465882 0)
(8.50456 -0.0535187 0)
(8.52077 -0.0603653 0)
(8.53616 -0.0671234 0)
(8.55071 -0.0738108 0)
(8.56442 -0.0804606 0)
(8.57731 -0.087116 0)
(8.5894 -0.0938258 0)
(8.60072 -0.100641 0)
(8.61131 -0.107615 0)
(8.62119 -0.114798 0)
(8.63042 -0.122241 0)
(8.63902 -0.129991 0)
(8.64704 -0.138094 0)
(8.65451 -0.146595 0)
(8.66147 -0.155535 0)
(8.66796 -0.164956 0)
(8.67399 -0.174896 0)
(8.6796 -0.185396 0)
(8.68481 -0.196493 0)
(8.68964 -0.208223 0)
(8.69409 -0.220627 0)
(8.69816 -0.233721 0)
(8.33344 -0.00162083 0)
(8.33792 -0.005043 0)
(8.34732 -0.0090476 0)
(8.36035 -0.0138632 0)
(8.37578 -0.0194488 0)
(8.39287 -0.025646 0)
(8.41096 -0.0322671 0)
(8.42948 -0.0391259 0)
(8.448 -0.0460614 0)
(8.46621 -0.0529539 0)
(8.4839 -0.0597279 0)
(8.50091 -0.0663462 0)
(8.51715 -0.0728032 0)
(8.53255 -0.0791171 0)
(8.54708 -0.0853237 0)
(8.56075 -0.0914698 0)
(8.57354 -0.0976094 0)
(8.58549 -0.1038 0)
(8.59661 -0.110098 0)
(8.60694 -0.116562 0)
(8.61651 -0.123247 0)
(8.62536 -0.130205 0)
(8.63353 -0.137486 0)
(8.64105 -0.145137 0)
(8.64797 -0.153202 0)
(8.6543 -0.161722 0)
(8.66009 -0.170737 0)
(8.66536 -0.180284 0)
(8.67015 -0.190397 0)
(8.67445 -0.201112 0)
(8.6783 -0.212457 0)
(8.6817 -0.224467 0)
(8.68465 -0.237148 0)
(8.33342 -0.00318602 0)
(8.33773 -0.00962953 0)
(8.3468 -0.0162935 0)
(8.35944 -0.0232793 0)
(8.37453 -0.03054 0)
(8.39137 -0.0379612 0)
(8.4093 -0.0454148 0)
(8.42777 -0.0527815 0)
(8.44631 -0.0599657 0)
(8.4646 -0.0669045 0)
(8.4824 -0.073569 0)
(8.49954 -0.0799595 0)
(8.51588 -0.0860998 0)
(8.53136 -0.0920316 0)
(8.54594 -0.0978086 0)
(8.55959 -0.103492 0)
(8.57232 -0.109146 0)
(8.58414 -0.114837 0)
(8.59507 -0.120629 0)
(8.60514 -0.126585 0)
(8.6144 -0.132763 0)
(8.62286 -0.139219 0)
(8.63058 -0.146004 0)
(8.63758 -0.153166 0)
(8.64391 -0.160748 0)
(8.64959 -0.168792 0)
(8.65466 -0.177334 0)
(8.65914 -0.18641 0)
(8.66307 -0.19605 0)
(8.66645 -0.206283 0)
(8.6693 -0.217133 0)
(8.67163 -0.228626 0)
(8.67345 -0.240763 0)
(8.33342 -0.00475329 0)
(8.33767 -0.0142275 0)
(8.34662 -0.0235841 0)
(8.35916 -0.0327989 0)
(8.37419 -0.0418021 0)
(8.39103 -0.0505029 0)
(8.40905 -0.0588175 0)
(8.42765 -0.0666837 0)
(8.44637 -0.0740674 0)
(8.46487 -0.0809641 0)
(8.48288 -0.0873963 0)
(8.5002 -0.0934084 0)
(8.51671 -0.099061 0)
(8.53231 -0.104426 0)
(8.54696 -0.10958 0)
(8.56062 -0.114604 0)
(8.5733 -0.119576 0)
(8.585 -0.124574 0)
(8.59575 -0.12967 0)
(8.60557 -0.134933 0)
(8.6145 -0.140425 0)
(8.62257 -0.146206 0)
(8.62983 -0.152328 0)
(8.6363 -0.158838 0)
(8.64203 -0.165781 0)
(8.64705 -0.173196 0)
(8.65139 -0.181118 0)
(8.65508 -0.189578 0)
(8.65815 -0.198603 0)
(8.66061 -0.208218 0)
(8.66248 -0.218442 0)
(8.66377 -0.229295 0)
(8.6645 -0.240769 0)
(8.33342 -0.00636408 0)
(8.33773 -0.0189589 0)
(8.34681 -0.0311098 0)
(8.35954 -0.0426744 0)
(8.37484 -0.0535614 0)
(8.39203 -0.063703 0)
(8.41044 -0.0730569 0)
(8.42948 -0.0816135 0)
(8.44865 -0.0893934 0)
(8.46759 -0.0964428 0)
(8.486 -0.102829 0)
(8.50368 -0.108636 0)
(8.52048 -0.113956 0)
(8.53631 -0.118889 0)
(8.5511 -0.123535 0)
(8.56484 -0.127993 0)
(8.5775 -0.132357 0)
(8.58911 -0.136717 0)
(8.59969 -0.141154 0)
(8.60926 -0.145745 0)
(8.61786 -0.150558 0)
(8.62553 -0.155656 0)
(8.63231 -0.161093 0)
(8.63823 -0.166919 0)
(8.64335 -0.173177 0)
(8.64768 -0.179907 0)
(8.65127 -0.18714 0)
(8.65415 -0.194906 0)
(8.65634 -0.203229 0)
(8.65786 -0.212127 0)
(8.65874 -0.221615 0)
(8.65898 -0.231706 0)
(8.6586 -0.242388 0)
(8.33344 -0.00806334 0)
(8.33791 -0.023945 0)
(8.34734 -0.0390246 0)
(8.36055 -0.0530216 0)
(8.3764 -0.0658056 0)
(8.3942 -0.0773192 0)
(8.41325 -0.0875596 0)
(8.43292 -0.0965789 0)
(8.4527 -0.104468 0)
(8.47222 -0.111343 0)
(8.49116 -0.117334 0)
(8.5093 -0.122576 0)
(8.52648 -0.127208 0)
(8.54261 -0.131363 0)
(8.55763 -0.135171 0)
(8.57148 -0.138751 0)
(8.58419 -0.142213 0)
(8.59574 -0.145659 0)
(8.60618 -0.14918 0)
(8.61552 -0.152858 0)
(8.62381 -0.156765 0)
(8.6311 -0.160966 0)
(8.63741 -0.165517 0)
(8.6428 -0.170469 0)
(8.6473 -0.175863 0)
(8.65096 -0.181737 0)
(8.65381 -0.188121 0)
(8.65589 -0.195042 0)
(8.65722 -0.20252 0)
(8.65783 -0.21057 0)
(8.65775 -0.219203 0)
(8.657 -0.228429 0)
(8.6556 -0.238229 0)
(8.33347 -0.0099083 0)
(8.33827 -0.0293714 0)
(8.34836 -0.0476722 0)
(8.36248 -0.0644111 0)
(8.37937 -0.0794445 0)
(8.39827 -0.0927335 0)
(8.41845 -0.104304 0)
(8.4392 -0.114246 0)
(8.45999 -0.122697 0)
(8.48041 -0.129822 0)
(8.50013 -0.135796 0)
(8.51894 -0.140802 0)
(8.53666 -0.145019 0)
(8.5532 -0.148619 0)
(8.5685 -0.151761 0)
(8.58254 -0.154593 0)
(8.5953 -0.157246 0)
(8.60682 -0.159841 0)
(8.61712 -0.162481 0)
(8.62623 -0.165259 0)
(8.6342 -0.168255 0)
(8.64108 -0.171539 0)
(8.64691 -0.17517 0)
(8.65174 -0.179201 0)
(8.65562 -0.183673 0)
(8.65858 -0.188623 0)
(8.66067 -0.19408 0)
(8.66193 -0.200068 0)
(8.66239 -0.206603 0)
(8.66207 -0.213698 0)
(8.66102 -0.221358 0)
(8.65924 -0.229589 0)
(8.65676 -0.238366 0)
(8.33351 -0.0119594 0)
(8.33875 -0.0353542 0)
(8.34975 -0.0570555 0)
(8.36502 -0.0764773 0)
(8.38319 -0.0934531 0)
(8.40342 -0.107995 0)
(8.42492 -0.120219 0)
(8.44696 -0.130326 0)
(8.46896 -0.138563 0)
(8.49049 -0.145185 0)
(8.51122 -0.150442 0)
(8.53089 -0.154577 0)
(8.54934 -0.157814 0)
(8.56647 -0.160357 0)
(8.58222 -0.162392 0)
(8.59657 -0.164085 0)
(8.60951 -0.165582 0)
(8.62109 -0.167013 0)
(8.63132 -0.168489 0)
(8.64027 -0.170108 0)
(8.64797 -0.171954 0)
(8.65449 -0.174099 0)
(8.65987 -0.176603 0)
(8.66417 -0.179518 0)
(8.66744 -0.182886 0)
(8.66973 -0.186744 0)
(8.67108 -0.191118 0)
(8.67154 -0.196029 0)
(8.67116 -0.201494 0)
(8.66995 -0.207522 0)
(8.66797 -0.214116 0)
(8.66524 -0.221282 0)
(8.66181 -0.22899 0)
(8.33359 -0.014331 0)
(8.33962 -0.0423667 0)
(8.35219 -0.0682734 0)
(8.3695 -0.091339 0)
(8.38987 -0.111384 0)
(8.4123 -0.128394 0)
(8.4359 -0.142466 0)
(8.45984 -0.153827 0)
(8.48352 -0.162779 0)
(8.5065 -0.169649 0)
(8.52843 -0.174765 0)
(8.54911 -0.178445 0)
(8.56836 -0.180983 0)
(8.58611 -0.182645 0)
(8.6023 -0.183668 0)
(8.61695 -0.184256 0)
(8.63005 -0.184589 0)
(8.64166 -0.184818 0)
(8.6518 -0.185072 0)
(8.66055 -0.185462 0)
(8.66796 -0.186078 0)
(8.67409 -0.186996 0)
(8.679 -0.18828 0)
(8.68275 -0.189982 0)
(8.6854 -0.192144 0)
(8.68701 -0.194798 0)
(8.68761 -0.197972 0)
(8.68727 -0.201684 0)
(8.68602 -0.205946 0)
(8.68391 -0.210765 0)
(8.68098 -0.216142 0)
(8.67726 -0.222076 0)
(8.67277 -0.228535 0)
(8.33366 -0.0170856 0)
(8.34045 -0.0501831 0)
(8.35462 -0.0799903 0)
(8.37396 -0.105621 0)
(8.39656 -0.127108 0)
(8.42135 -0.144708 0)
(8.44735 -0.158759 0)
(8.47363 -0.169681 0)
(8.49949 -0.17791 0)
(8.52445 -0.183858 0)
(8.54814 -0.187909 0)
(8.5703 -0.190418 0)
(8.5908 -0.191707 0)
(8.60955 -0.19206 0)
(8.62653 -0.191728 0)
(8.64174 -0.190931 0)
(8.65522 -0.189858 0)
(8.66702 -0.18867 0)
(8.67722 -0.187506 0)
(8.68589 -0.186479 0)
(8.69309 -0.185688 0)
(8.6989 -0.185211 0)
(8.7034 -0.185115 0)
(8.70665 -0.185453 0)
(8.70872 -0.186268 0)
(8.70967 -0.187593 0)
(8.70956 -0.189454 0)
(8.70844 -0.19187 0)
(8.70638 -0.194853 0)
(8.70341 -0.198409 0)
(8.6996 -0.202538 0)
(8.69498 -0.20724 0)
(8.68963 -0.212478 0)
(8.3339 -0.0206076 0)
(8.34274 -0.0608869 0)
(8.36054 -0.0974388 0)
(8.38404 -0.129046 0)
(8.41066 -0.155493 0)
(8.43911 -0.176816 0)
(8.46831 -0.193326 0)
(8.49733 -0.205586 0)
(8.52551 -0.214228 0)
(8.55242 -0.219865 0)
(8.57774 -0.223068 0)
(8.60126 -0.224351 0)
(8.62285 -0.224162 0)
(8.64248 -0.222881 0)
(8.66011 -0.22083 0)
(8.6758 -0.218276 0)
(8.68959 -0.21544 0)
(8.70154 -0.212505 0)
(8.71174 -0.209617 0)
(8.72028 -0.206898 0)
(8.72723 -0.204445 0)
(8.73269 -0.202336 0)
(8.73673 -0.200634 0)
(8.73943 -0.199389 0)
(8.74086 -0.19864 0)
(8.74111 -0.198417 0)
(8.74022 -0.198742 0)
(8.73827 -0.199633 0)
(8.73531 -0.201099 0)
(8.7314 -0.203145 0)
(8.72659 -0.205769 0)
(8.72092 -0.208968 0)
(8.71445 -0.212703 0)
(8.33386 -0.0246331 0)
(8.34353 -0.0710133 0)
(8.36376 -0.110475 0)
(8.39069 -0.142755 0)
(8.42142 -0.168916 0)
(8.45446 -0.189613 0)
(8.4883 -0.205394 0)
(8.52168 -0.2169 0)
(8.55378 -0.224748 0)
(8.58408 -0.229503 0)
(8.61223 -0.2317 0)
(8.63804 -0.231836 0)
(8.66143 -0.230358 0)
(8.6824 -0.22766 0)
(8.70099 -0.224086 0)
(8.71729 -0.219927 0)
(8.7314 -0.215432 0)
(8.74343 -0.210804 0)
(8.75351 -0.206211 0)
(8.76174 -0.20179 0)
(8.76825 -0.197648 0)
(8.77313 -0.193873 0)
(8.7765 -0.19053 0)
(8.77843 -0.187674 0)
(8.77902 -0.185343 0)
(8.77834 -0.183569 0)
(8.77648 -0.182375 0)
(8.7735 -0.181775 0)
(8.76946 -0.181782 0)
(8.76444 -0.1824 0)
(8.7585 -0.183628 0)
(8.75171 -0.185468 0)
(8.74414 -0.187871 0)
(8.33497 -0.0314917 0)
(8.35127 -0.0931814 0)
(8.38022 -0.146878 0)
(8.41468 -0.190454 0)
(8.45118 -0.224258 0)
(8.48878 -0.24909 0)
(8.52629 -0.266257 0)
(8.56261 -0.277224 0)
(8.59709 -0.283265 0)
(8.62929 -0.285446 0)
(8.65893 -0.284669 0)
(8.68586 -0.281673 0)
(8.71004 -0.277053 0)
(8.73151 -0.271289 0)
(8.75037 -0.264767 0)
(8.76674 -0.257795 0)
(8.78075 -0.250617 0)
(8.79257 -0.24343 0)
(8.80232 -0.236386 0)
(8.81015 -0.229608 0)
(8.8162 -0.223189 0)
(8.82059 -0.217202 0)
(8.82341 -0.211702 0)
(8.82479 -0.206732 0)
(8.8248 -0.202324 0)
(8.82353 -0.198501 0)
(8.82105 -0.195284 0)
(8.81744 -0.192687 0)
(8.81275 -0.190721 0)
(8.80706 -0.189395 0)
(8.80042 -0.188713 0)
(8.79291 -0.18868 0)
(8.78459 -0.189247 0)
(8.33402 -0.0364553 0)
(8.34983 -0.0992807 0)
(8.38366 -0.148258 0)
(8.42626 -0.188094 0)
(8.47212 -0.220747 0)
(8.5188 -0.245947 0)
(8.56415 -0.264131 0)
(8.60696 -0.276186 0)
(8.64687 -0.282955 0)
(8.68375 -0.285305 0)
(8.71764 -0.284115 0)
(8.74861 -0.280195 0)
(8.77682 -0.27425 0)
(8.8024 -0.266878 0)
(8.82547 -0.258573 0)
(8.84616 -0.249727 0)
(8.86458 -0.240653 0)
(8.88082 -0.231589 0)
(8.89499 -0.222716 0)
(8.90718 -0.21417 0)
(8.91747 -0.20605 0)
(8.92595 -0.198427 0)
(8.9327 -0.191351 0)
(8.93779 -0.184854 0)
(8.94131 -0.178962 0)
(8.94331 -0.173689 0)
(8.94386 -0.169048 0)
(8.94303 -0.165049 0)
(8.94089 -0.161706 0)
(8.93751 -0.159033 0)
(8.93297 -0.157047 0)
(8.92737 -0.155772 0)
(8.92083 -0.155165 0)
(8.33959 -0.0605604 0)
(8.37701 -0.169956 0)
(8.42617 -0.248447 0)
(8.47585 -0.301626 0)
(8.52807 -0.33658 0)
(8.58431 -0.357671 0)
(8.64295 -0.368974 0)
(8.70265 -0.373559 0)
(8.76241 -0.373361 0)
(8.82111 -0.36969 0)
(8.87769 -0.363474 0)
(8.93137 -0.355373 0)
(8.98158 -0.34588 0)
(9.02793 -0.335384 0)
(9.07022 -0.324199 0)
(9.10837 -0.312589 0)
(9.14242 -0.300776 0)
(9.17249 -0.288949 0)
(9.19875 -0.277261 0)
(9.22139 -0.26584 0)
(9.24064 -0.254785 0)
(9.25672 -0.244175 0)
(9.26984 -0.234069 0)
(9.28022 -0.22451 0)
(9.28804 -0.215533 0)
(9.29349 -0.207163 0)
(9.29672 -0.199423 0)
(9.29789 -0.192334 0)
(9.29713 -0.185929 0)
(9.29455 -0.18024 0)
(9.2903 -0.175345 0)
(9.2845 -0.171281 0)
(9.27736 -0.168206 0)
(8.33759 -0.0465633 0)
(8.39346 -0.121037 0)
(8.49363 -0.185038 0)
(8.60827 -0.246766 0)
(8.72987 -0.299697 0)
(8.85292 -0.340638 0)
(8.97047 -0.370285 0)
(9.0784 -0.389502 0)
(9.17449 -0.399423 0)
(9.25755 -0.401616 0)
(9.32733 -0.397694 0)
(9.38431 -0.389109 0)
(9.42936 -0.377123 0)
(9.46365 -0.362785 0)
(9.48841 -0.346939 0)
(9.5049 -0.330248 0)
(9.51433 -0.313222 0)
(9.5178 -0.296243 0)
(9.5163 -0.279589 0)
(9.51069 -0.263457 0)
(9.50171 -0.247977 0)
(9.49 -0.233235 0)
(9.47608 -0.219275 0)
(9.4604 -0.206119 0)
(9.4433 -0.193768 0)
(9.42508 -0.182212 0)
(9.40596 -0.171435 0)
(9.38609 -0.161424 0)
(9.36561 -0.15218 0)
(9.34452 -0.143712 0)
(9.32298 -0.136159 0)
(9.3007 -0.129532 0)
(9.27835 -0.124795 0)
(8.40923 -0.221299 0)
(8.63491 -0.428363 0)
(8.83303 -0.522665 0)
(8.97669 -0.583244 0)
(9.07027 -0.61589 0)
(9.11284 -0.626194 0)
(9.10876 -0.621724 0)
(9.0675 -0.606543 0)
(8.99801 -0.583476 0)
(8.9078 -0.555086 0)
(8.80341 -0.523428 0)
(8.69027 -0.490085 0)
(8.57263 -0.456281 0)
(8.45374 -0.422932 0)
(8.33601 -0.39069 0)
(8.22119 -0.35999 0)
(8.11048 -0.331099 0)
(8.00466 -0.304153 0)
(7.90421 -0.279194 0)
(7.80935 -0.256197 0)
(7.72014 -0.235091 0)
(7.6365 -0.215775 0)
(7.55829 -0.198132 0)
(7.48529 -0.182036 0)
(7.41725 -0.167356 0)
(7.35387 -0.153962 0)
(7.29487 -0.14172 0)
(7.23991 -0.130502 0)
(7.18866 -0.120161 0)
(7.14063 -0.110555 0)
(7.09544 -0.101624 0)
(7.05179 -0.092562 0)
(7.01028 -0.0868154 0)
(8.13709 -0.207155 0)
(7.84772 -0.388028 0)
(7.38547 -0.439351 0)
(6.86015 -0.439912 0)
(6.36078 -0.4085 0)
(5.89031 -0.359401 0)
(5.45142 -0.304894 0)
(5.05154 -0.251373 0)
(4.69179 -0.202057 0)
(4.37025 -0.158564 0)
(4.08459 -0.121339 0)
(3.83202 -0.0901591 0)
(3.60938 -0.0644868 0)
(3.41354 -0.0436361 0)
(3.24154 -0.0268869 0)
(3.09059 -0.0135586 0)
(2.95817 -0.00304451 0)
(2.84201 0.00517779 0)
(2.74007 0.0115467 0)
(2.65057 0.0164242 0)
(2.57194 0.0201059 0)
(2.50279 0.0228321 0)
(2.44193 0.0247979 0)
(2.3883 0.0261627 0)
(2.34101 0.0270608 0)
(2.29927 0.0276062 0)
(2.26241 0.0279174 0)
(2.22992 0.0281121 0)
(2.20121 0.0284 0)
(2.17631 0.0291185 0)
(2.15435 0.0305357 0)
(2.13703 0.0357854 0)
(2.12298 0.0298136 0)