/*--------------------------------*- C++ -*----------------------------------*\
| =========                 |                                                 |
| \\      /  F ield         | OpenFOAM: The Open Source CFD Toolbox           |
|  \\    /   O peration     | Version:  2.1.1                                 |
|   \\  /    A nd           | Web:      www.OpenFOAM.org                      |
|    \\/     M anipulation  |                                                 |
\*---------------------------------------------------------------------------*/
FoamFile
{
    version     2.0;
    format      ascii;
    class       volScalarField;
    location    "0.115";
    object      epsilon;
}
// * * * * * * * * * * * * * * * * * * * * * * * * * * * * * * * * * * * * * //

dimensions      [0 2 -3 0 0 0 0];

internalField   nonuniform List<scalar> 
6820
(
151.448
203.151
260.735
321.761
383.63
443.73
499.775
550.059
593.525
629.733
658.751
681.019
697.213
708.128
714.592
717.401
717.284
714.881
710.744
705.331
699.018
692.109
684.845
677.413
669.957
662.587
655.378
648.403
641.615
635.422
627.969
628.136
593.406
11.7448
21.417
29.9428
38.6222
47.5759
56.5502
65.3079
73.6479
81.408
88.4797
94.8082
100.387
105.245
109.44
113.042
116.13
118.78
121.064
123.05
124.793
126.342
127.739
129.016
130.204
131.323
132.395
133.438
134.474
135.526
136.66
137.9
139.669
141.813
5.8378
7.51683
9.20671
10.8094
12.32
13.7476
15.0887
16.3396
17.4985
18.5654
19.5419
20.4317
21.2401
21.9734
22.639
23.2443
23.7972
24.3047
24.774
25.2112
25.6221
26.0116
26.3842
26.7434
27.0926
27.4344
27.771
28.1045
28.4364
28.7693
29.1044
29.4396
29.8177
5.24229
5.56004
6.00444
6.49349
6.98576
7.46202
7.91319
8.33496
8.72567
9.08515
9.41415
9.71403
9.98648
10.2334
10.4568
10.6587
10.8411
11.006
11.1552
11.2904
11.4133
11.5254
11.628
11.7225
11.81
11.8913
11.9675
12.0391
12.1066
12.1706
12.2305
12.2872
12.3372
5.17349
5.18677
5.26821
5.39776
5.55639
5.7297
5.90782
6.08432
6.25517
6.41795
6.57125
6.71439
6.84712
6.9695
7.08182
7.18447
7.27797
7.36284
7.43969
7.50909
7.57163
7.62788
7.6784
7.72372
7.76432
7.80068
7.83322
7.86235
7.88841
7.91173
7.93254
7.95112
7.96755
5.16878
5.12131
5.09602
5.09481
5.11536
5.15307
5.20299
5.26075
5.32291
5.38691
5.45086
5.51345
5.57375
5.63116
5.68527
5.73587
5.78286
5.82623
5.86604
5.90238
5.93541
5.96527
5.99215
6.01622
6.03769
6.05673
6.07354
6.08828
6.10115
6.1123
6.12191
6.13007
6.13699
5.16887
5.11169
5.06116
5.01963
4.9884
4.96755
4.95615
4.95279
4.95586
4.96385
4.9754
4.98942
5.00497
5.02135
5.03799
5.05446
5.07044
5.08569
5.10004
5.11337
5.12562
5.13674
5.14673
5.15559
5.16336
5.17006
5.17574
5.18047
5.18428
5.18725
5.18944
5.1909
5.19169
5.16902
5.11062
5.05514
5.00339
4.95619
4.91414
4.87747
4.84611
4.81972
4.79781
4.77979
4.76509
4.75314
4.74345
4.73555
4.72908
4.72369
4.71913
4.71515
4.71158
4.70828
4.70511
4.70198
4.69883
4.69559
4.69223
4.68871
4.68503
4.68117
4.67713
4.6729
4.6685
4.66393
5.16904
5.11054
5.05431
5.00049
4.94927
4.9009
4.85559
4.81346
4.77456
4.73882
4.70611
4.67624
4.64896
4.62405
4.60125
4.58032
4.56104
4.54321
4.52664
4.51116
4.49663
4.48293
4.46993
4.45756
4.44571
4.43433
4.42336
4.41274
4.40244
4.39242
4.38265
4.3731
4.36376
5.16904
5.11054
5.0542
5.00002
4.94796
4.89803
4.85027
4.80472
4.76139
4.72029
4.6814
4.64467
4.61003
4.57738
4.54661
4.51762
4.49027
4.46445
4.44004
4.41693
4.395
4.37418
4.35435
4.33544
4.31738
4.30008
4.2835
4.26757
4.25225
4.2375
4.22326
4.2095
4.1962
5.16904
5.11053
5.05418
4.99994
4.94773
4.89747
4.84913
4.80265
4.758
4.71515
4.67407
4.63472
4.59706
4.56105
4.52664
4.49375
4.46233
4.43231
4.40362
4.3762
4.34996
4.32486
4.30082
4.27777
4.25567
4.23446
4.21408
4.19448
4.17563
4.15747
4.13998
4.12311
4.10682
5.16904
5.11052
5.05417
4.99991
4.94767
4.89735
4.84888
4.80219
4.7572
4.71386
4.67211
4.6319
4.5932
4.55594
4.52008
4.48559
4.4524
4.42048
4.38977
4.36022
4.3318
4.30445
4.27813
4.25278
4.22838
4.20486
4.18221
4.16036
4.1393
4.11897
4.09936
4.08042
4.06212
5.16904
5.11052
5.05416
4.99989
4.94764
4.89731
4.84881
4.80206
4.75699
4.71353
4.6716
4.63115
4.59212
4.55446
4.51812
4.48304
4.44919
4.41652
4.38498
4.35453
4.32514
4.29676
4.26936
4.2429
4.21734
4.19264
4.16878
4.14573
4.12344
4.1019
4.08107
4.06092
4.04142
5.16903
5.11051
5.05415
4.99988
4.94762
4.89728
4.84877
4.802
4.75691
4.71341
4.67143
4.63092
4.5918
4.55402
4.51753
4.48227
4.44819
4.41526
4.38342
4.35264
4.32287
4.29408
4.26623
4.23929
4.21322
4.18799
4.16358
4.13994
4.11706
4.09491
4.07345
4.05267
4.03254
5.16903
5.11051
5.05414
4.99987
4.9476
4.89725
4.84873
4.80196
4.75685
4.71334
4.67135
4.63081
4.59166
4.55385
4.51731
4.48199
4.44784
4.41483
4.38289
4.35199
4.32209
4.29315
4.26513
4.23801
4.21174
4.18629
4.16165
4.13777
4.11463
4.0922
4.07046
4.04939
4.02896
5.16903
5.11051
5.05413
4.99986
4.94758
4.89723
4.8487
4.80192
4.75681
4.71328
4.67128
4.63073
4.59157
4.55374
4.51718
4.48184
4.44767
4.41462
4.38265
4.35171
4.32176
4.29277
4.26469
4.2375
4.21116
4.18563
4.16089
4.13692
4.11367
4.09113
4.06928
4.04808
4.02751
5.16903
5.1105
5.05413
4.99985
4.94757
4.89721
4.84868
4.80189
4.75676
4.71323
4.67122
4.63066
4.59149
4.55364
4.51708
4.48172
4.44754
4.41448
4.38249
4.35153
4.32157
4.29255
4.26445
4.23723
4.21086
4.1853
4.16052
4.13651
4.11322
4.09063
4.06872
4.04747
4.02684
5.16903
5.1105
5.05412
4.99984
4.94756
4.89719
4.84865
4.80186
4.75673
4.71319
4.67116
4.6306
4.59141
4.55356
4.51698
4.48162
4.44743
4.41435
4.38235
4.35138
4.3214
4.29238
4.26426
4.23703
4.21064
4.18506
4.16027
4.13623
4.11292
4.09031
4.06837
4.04709
4.02643
5.16903
5.1105
5.05412
4.99983
4.94755
4.89718
4.84863
4.80183
4.75669
4.71315
4.67112
4.63054
4.59135
4.55349
4.5169
4.48153
4.44732
4.41424
4.38223
4.35125
4.32126
4.29222
4.26409
4.23685
4.21044
4.18485
4.16005
4.13599
4.11267
4.09004
4.06809
4.04679
4.02611
5.16903
5.1105
5.05411
4.99982
4.94754
4.89716
4.84861
4.80181
4.75666
4.71311
4.67107
4.63049
4.59129
4.55342
4.51682
4.48144
4.44723
4.41414
4.38211
4.35112
4.32112
4.29207
4.26394
4.23668
4.21026
4.18466
4.15984
4.13577
4.11243
4.08979
4.06783
4.04651
4.02582
5.16903
5.1105
5.05411
4.99982
4.94753
4.89715
4.8486
4.80179
4.75664
4.71308
4.67103
4.63044
4.59123
4.55336
4.51675
4.48136
4.44714
4.41404
4.38201
4.35101
4.321
4.29194
4.26379
4.23652
4.21009
4.18448
4.15965
4.13557
4.11221
4.08956
4.06758
4.04625
4.02554
5.16903
5.11049
5.05411
4.99981
4.94752
4.89714
4.84858
4.80177
4.75661
4.71305
4.671
4.6304
4.59118
4.5533
4.51669
4.48129
4.44706
4.41395
4.38191
4.3509
4.32088
4.29181
4.26365
4.23637
4.20993
4.18431
4.15946
4.13537
4.11201
4.08934
4.06734
4.046
4.02528
5.16903
5.11049
5.05411
4.99981
4.94752
4.89713
4.84857
4.80175
4.75659
4.71302
4.67096
4.63036
4.59114
4.55325
4.51663
4.48122
4.44698
4.41386
4.38182
4.3508
4.32077
4.29169
4.26352
4.23623
4.20978
4.18414
4.15929
4.13519
4.11181
4.08913
4.06712
4.04576
4.02503
5.16903
5.11049
5.0541
4.99981
4.94751
4.89712
4.84856
4.80174
4.75657
4.713
4.67094
4.63033
4.5911
4.5532
4.51657
4.48116
4.44692
4.41379
4.38173
4.35071
4.32067
4.29158
4.2634
4.2361
4.20964
4.18399
4.15913
4.13501
4.11162
4.08893
4.06691
4.04554
4.02479
5.16903
5.11049
5.0541
4.9998
4.94751
4.89712
4.84855
4.80172
4.75656
4.71298
4.67091
4.63029
4.59106
4.55316
4.51653
4.48111
4.44685
4.41372
4.38166
4.35062
4.32057
4.29147
4.26329
4.23598
4.20951
4.18385
4.15897
4.13485
4.11145
4.08874
4.06671
4.04533
4.02456
5.16903
5.11049
5.0541
4.9998
4.9475
4.89711
4.84854
4.80171
4.75654
4.71296
4.67089
4.63027
4.59103
4.55312
4.51648
4.48106
4.4468
4.41366
4.38159
4.35054
4.32049
4.29138
4.26319
4.23586
4.20939
4.18372
4.15883
4.1347
4.11128
4.08857
4.06652
4.04513
4.02436
5.16903
5.11049
5.0541
4.9998
4.9475
4.89711
4.84854
4.8017
4.75653
4.71294
4.67087
4.63024
4.591
4.55309
4.51644
4.48101
4.44675
4.4136
4.38152
4.35047
4.32041
4.29129
4.26309
4.23576
4.20927
4.1836
4.1587
4.13455
4.11113
4.0884
4.06635
4.04494
4.02416
5.16903
5.11049
5.0541
4.9998
4.9475
4.8971
4.84853
4.8017
4.75652
4.71293
4.67086
4.63023
4.59099
4.55307
4.51642
4.48098
4.44671
4.41356
4.38147
4.35042
4.32035
4.29122
4.26301
4.23567
4.20918
4.18349
4.15859
4.13443
4.111
4.08826
4.06619
4.04478
4.02398
5.16903
5.11049
5.0541
4.9998
4.9475
4.8971
4.84853
4.80169
4.75651
4.71292
4.67084
4.63021
4.59096
4.55304
4.51638
4.48094
4.44667
4.41351
4.38142
4.35036
4.32028
4.29115
4.26293
4.23559
4.20908
4.18339
4.15848
4.13431
4.11087
4.08813
4.06605
4.04463
4.02382
5.16903
5.11049
5.0541
4.9998
4.9475
4.89711
4.84853
4.8017
4.75652
4.71293
4.67085
4.63022
4.59097
4.55305
4.51639
4.48094
4.44666
4.4135
4.3814
4.35034
4.32025
4.29112
4.26289
4.23554
4.20903
4.18333
4.15841
4.13423
4.11079
4.08803
4.06595
4.04451
4.0237
5.16903
5.11049
5.0541
4.9998
4.9475
4.8971
4.84853
4.80169
4.75651
4.71291
4.67083
4.63019
4.59094
4.55302
4.51636
4.48091
4.44663
4.41346
4.38137
4.3503
4.32022
4.29108
4.26285
4.2355
4.20898
4.18328
4.15836
4.13418
4.11073
4.08797
4.06589
4.04445
4.02363
5.16903
5.11049
5.0541
4.99981
4.94752
4.89714
4.84858
4.80176
4.75659
4.713
4.67093
4.6303
4.59105
4.55312
4.51646
4.48102
4.44673
4.41357
4.38147
4.3504
4.32032
4.29118
4.26295
4.2356
4.2091
4.1834
4.15848
4.13431
4.11087
4.08813
4.06605
4.04463
4.02382
5.16903
5.11051
5.05414
4.99985
4.94756
4.89718
4.84861
4.80178
4.75661
4.71302
4.67095
4.63033
4.59109
4.55318
4.51654
4.48112
4.44687
4.41373
4.38167
4.35065
4.32061
4.29152
4.26335
4.23606
4.20962
4.18399
4.15914
4.13506
4.1117
4.08904
4.06706
4.04573
4.02502
5.16903
5.1105
5.05415
4.99992
4.9477
4.89739
4.8489
4.80214
4.75703
4.71351
4.67151
4.63096
4.59181
4.55399
4.51746
4.48217
4.44806
4.4151
4.38322
4.3524
4.32259
4.29376
4.26586
4.23885
4.21271
4.18741
4.1629
4.13917
4.11617
4.09389
4.0723
4.05137
4.03108
5.16905
5.11063
5.05441
5.00026
4.9481
4.89786
4.84948
4.80288
4.75802
4.71482
4.67323
4.63317
4.59461
4.55747
4.5217
4.48725
4.45406
4.42209
4.39128
4.36159
4.33296
4.30536
4.27874
4.25305
4.22827
4.20435
4.18125
4.15894
4.13739
4.11656
4.09643
4.07696
4.05813
5.16908
5.11079
5.05488
5.00136
4.95017
4.9012
4.8544
4.80971
4.76709
4.72647
4.68778
4.65095
4.61589
4.58253
4.55077
4.52053
4.49173
4.46428
4.4381
4.41312
4.38926
4.36646
4.34466
4.32379
4.30379
4.28463
4.26623
4.24857
4.2316
4.21527
4.19956
4.18442
4.16983
5.16939
5.11359
5.06202
5.01464
4.97148
4.93247
4.89743
4.8661
4.83816
4.81328
4.79114
4.77144
4.75389
4.73824
4.72425
4.71171
4.70044
4.69027
4.68106
4.67268
4.66501
4.65796
4.65145
4.64539
4.63973
4.6344
4.62936
4.62457
4.61998
4.61557
4.61131
4.60717
4.60313
5.17808
5.16329
5.16947
5.19111
5.22424
5.26583
5.3135
5.36537
5.42
5.47632
5.53348
5.59083
5.64786
5.7042
5.75954
5.81367
5.86642
5.91768
5.96738
6.01547
6.06191
6.10672
6.14988
6.19144
6.23141
6.26982
6.30673
6.34218
6.3762
6.40885
6.44019
6.47026
6.49913
5.63861
6.43047
7.14599
7.82608
8.49556
9.14842
9.77879
10.3843
10.9648
11.5213
12.055
12.5676
13.0605
13.5353
13.9932
14.4353
14.8626
15.276
15.6762
16.064
16.4399
16.8046
17.1585
17.5021
17.8358
18.16
18.4752
18.7816
19.0796
19.3696
19.6517
19.9264
20.194
44.7794
48.3124
51.8864
55.4657
59.0311
62.5709
66.0743
69.5317
72.9342
76.2741
79.5445
82.7395
85.8543
88.8848
91.8278
94.681
97.4426
100.112
102.687
105.17
107.56
109.859
112.066
114.185
116.216
118.161
120.024
121.805
123.507
125.133
126.684
128.164
129.576
705.014
834.555
939.498
1024.83
1094.35
1145.87
1175.6
1181.3
1164.19
1128.56
1080.38
1025.74
969.696
915.634
865.35
819.407
777.639
739.582
704.749
672.751
643.313
616.231
591.322
568.387
547.203
527.518
509.072
491.607
474.887
458.7
442.867
427.243
411.715
396.203
380.657
365.053
349.393
333.7
318.015
302.393
286.898
271.597
256.559
241.844
227.506
213.581
200.092
187.04
174.411
162.173
150.281
138.681
127.315
116.131
105.086
94.1579
83.3508
72.7055
62.3049
52.279
42.8038
34.0915
26.3678
19.8317
14.6044
10.6822
7.92628
6.10315
4.95586
4.2628
3.86048
3.63883
3.52705
3.48043
3.47093
3.48114
3.5004
3.52238
3.54352
3.56208
3.57747
3.58986
3.59986
3.60835
3.61631
3.62472
3.63442
3.64608
3.66001
3.67621
3.69431
3.71359
3.73313
3.75186
3.76872
3.78273
3.79318
3.79899
3.80199
3.7923
146.283
152.943
163.17
178.325
199.78
228.484
264.684
307.635
355.477
405.348
453.73
497.018
532.16
557.186
571.488
575.747
571.58
561.061
546.276
529.016
510.627
492.002
473.659
455.843
438.63
422.003
405.904
390.257
374.986
360.021
345.295
330.753
316.352
302.063
287.871
273.781
259.813
246.001
232.39
219.034
205.987
193.307
181.041
169.232
157.908
147.082
136.752
126.901
117.495
108.488
99.8255
91.4496
83.3039
75.3405
67.5264
59.8503
52.3293
45.0132
37.987
31.3686
25.2991
19.9249
15.3689
11.6992
8.90418
6.89146
5.51441
4.61264
4.04458
3.70126
3.50526
3.40369
3.36099
3.35351
3.36568
3.38741
3.41233
3.43659
3.45804
3.47572
3.48945
3.49956
3.50675
3.5119
3.516
3.52003
3.52487
3.53127
3.53971
3.55037
3.56308
3.57737
3.59251
3.60759
3.62166
3.63378
3.64322
3.64895
3.65237
3.64518
30.1798
30.6147
31.2817
32.3947
34.0101
36.2838
39.5227
44.1108
50.4793
59.0579
70.1992
84.0853
100.636
119.448
139.799
160.707
181.062
199.781
215.957
228.972
238.534
244.666
247.631
247.843
245.778
241.906
236.643
230.33
223.235
215.556
207.438
198.99
190.296
181.424
172.44
163.406
154.386
145.443
136.641
128.041
119.698
111.66
103.966
96.6427
89.7049
83.1543
76.9796
71.1573
65.6538
60.4279
55.4342
50.6271
45.9657
41.418
36.9665
32.6116
28.3754
24.3024
20.4569
16.9169
13.7615
11.056
8.83581
7.09652
5.79518
4.86256
4.22034
3.79527
3.52652
3.36711
3.28218
3.24646
3.2419
3.25578
3.27929
3.30651
3.33354
3.35801
3.37858
3.39475
3.40652
3.41434
3.41889
3.42101
3.42165
3.42175
3.42221
3.4238
3.42712
3.43247
3.43991
3.44915
3.45967
3.47073
3.4815
3.49113
3.49892
3.50386
3.50705
3.50133
12.3928
12.4703
12.5692
12.6977
12.871
13.0819
13.3528
13.7189
14.2262
14.9318
15.9027
17.2146
18.9485
21.1862
24.0012
27.4473
31.5426
36.2542
41.489
47.0924
52.8595
58.5553
63.9409
68.7986
72.952
76.2788
78.7134
80.2433
80.8994
80.7442
79.8612
78.3442
76.291
73.7978
70.9569
67.8551
64.5724
61.1818
57.7486
54.3299
50.9738
47.7192
44.5959
41.6241
38.8149
36.1706
33.6858
31.348
29.1393
27.038
25.0205
23.0638
21.1484
19.2601
17.3935
15.553
13.7543
12.0236
10.3943
8.90258
7.58088
6.45159
5.52295
4.78844
4.22961
3.821
3.53489
3.34489
3.22772
3.16394
3.13789
3.13729
3.15278
3.17736
3.20594
3.23492
3.26186
3.28523
3.30418
3.31845
3.32815
3.33372
3.33581
3.33521
3.33279
3.32943
3.326
3.32329
3.32192
3.32234
3.32474
3.32901
3.33483
3.34164
3.34875
3.35542
3.36098
3.36447
3.36683
3.36156
7.98442
8.00276
8.02075
8.03855
8.05814
8.08137
8.10945
8.14599
8.19607
8.26631
8.36478
8.5009
8.6852
8.92885
9.24308
9.63847
10.1239
10.7056
11.3861
12.163
13.0283
13.9677
14.9607
15.9805
16.9956
17.9714
18.8728
19.6672
20.3263
20.8288
21.1613
21.3189
21.3045
21.1281
20.8054
20.3562
19.8028
19.1684
18.476
17.7467
16.9996
16.2505
15.5122
14.7939
14.1016
13.4383
12.804
12.1962
11.6101
11.0396
10.4773
9.91602
9.34914
8.77212
8.18333
7.58494
6.98332
6.38885
5.81484
5.27586
4.78559
4.3548
3.99004
3.69313
3.46167
3.28996
3.17028
3.09397
3.05229
3.03705
3.041
3.05799
3.08296
3.11193
3.1418
3.17029
3.19579
3.21726
3.23415
3.2463
3.25387
3.25727
3.2571
3.25406
3.24894
3.24256
3.23573
3.22921
3.22365
3.21957
3.21726
3.21678
3.21796
3.22042
3.22364
3.22697
3.22984
3.23135
3.23233
3.22655
6.14329
6.14821
6.15096
6.15191
6.15144
6.14979
6.14741
6.14494
6.14322
6.14332
6.14648
6.1542
6.16817
6.19027
6.22249
6.2668
6.32495
6.3983
6.48761
6.59291
6.71339
6.8473
6.99196
7.14381
7.29846
7.45094
7.59583
7.72763
7.84109
7.93147
7.99494
8.02878
8.03156
8.00316
7.94475
7.85862
7.74797
7.6166
7.46866
7.30833
7.1396
6.96605
6.79073
6.61605
6.44375
6.27487
6.10971
5.94793
5.78852
5.62992
5.47013
5.30692
5.13813
4.96198
4.77744
4.58469
4.3853
4.18242
3.98059
3.7853
3.60237
3.43722
3.29418
3.17605
3.08393
3.01727
2.97414
2.95164
2.94631
2.95446
2.97254
2.99723
3.02565
3.05535
3.08433
3.11104
3.13433
3.15347
3.16805
3.17798
3.18341
3.18473
3.18246
3.17722
3.16972
3.16071
3.15093
3.14109
3.13185
3.12373
3.11711
3.11218
3.10891
3.10707
3.10629
3.10605
3.10588
3.10494
3.10409
3.09693
5.1917
5.19043
5.18773
5.18356
5.17794
5.17085
5.16249
5.15311
5.14295
5.13223
5.12118
5.11003
5.09907
5.0886
5.079
5.07066
5.06397
5.05931
5.05698
5.05714
5.05979
5.06474
5.07156
5.07962
5.08806
5.09586
5.1019
5.10497
5.10389
5.09754
5.08498
5.06545
5.03849
5.00389
4.96176
4.91249
4.85672
4.79526
4.7291
4.65927
4.58679
4.51266
4.43776
4.36281
4.2884
4.21492
4.14256
4.07133
4.00103
3.93128
3.86155
3.7912
3.71954
3.64597
3.57006
3.49174
3.4114
3.33001
3.24912
3.17077
3.09733
3.03123
2.97465
2.92926
2.89605
2.87523
2.8663
2.86812
2.8791
2.89739
2.921
2.94799
2.97652
3.00494
3.03184
3.05608
3.07679
3.09339
3.10556
3.11324
3.11659
3.11591
3.11169
3.10446
3.09487
3.08357
3.07124
3.05853
3.04606
3.03438
3.02391
3.0149
3.00744
3.00146
2.9967
2.99278
2.98934
2.98562
2.98257
2.97327
4.65831
4.6513
4.64345
4.63469
4.62505
4.61454
4.60317
4.59101
4.5781
4.5645
4.55025
4.53537
4.51988
4.50379
4.48711
4.46988
4.45214
4.43395
4.4154
4.39653
4.3774
4.35803
4.33838
4.31838
4.2979
4.27674
4.25469
4.23147
4.20681
4.18044
4.15212
4.12163
4.08884
4.05368
4.01616
3.97639
3.93453
3.89082
3.84556
3.79907
3.75169
3.70376
3.65558
3.60744
3.55957
3.51215
3.4653
3.4191
3.37357
3.32867
3.28434
3.24046
3.19694
3.15368
3.11067
3.06801
3.02594
2.98493
2.94566
2.90901
2.87602
2.84777
2.82527
2.80934
2.8005
2.79888
2.80425
2.816
2.83323
2.85482
2.87949
2.90593
2.93282
2.95893
2.98319
3.00466
3.02264
3.03666
3.04643
3.05192
3.05324
3.05068
3.04464
3.03561
3.02416
3.01085
2.99631
2.98114
2.9659
2.95112
2.93724
2.92456
2.91327
2.90338
2.89477
2.88719
2.88038
2.87364
2.86812
2.85604
4.35305
4.3407
4.328
4.31489
4.30133
4.28728
4.27274
4.25773
4.24226
4.22634
4.20998
4.19317
4.17587
4.15805
4.13967
4.12068
4.10104
4.08073
4.05972
4.03799
4.01556
3.99243
3.96859
3.94408
3.91887
3.89296
3.86634
3.83898
3.81084
3.78189
3.75209
3.72142
3.68987
3.65744
3.62415
3.59005
3.55521
3.51972
3.48369
3.44723
3.41047
3.37354
3.33655
3.29962
3.26286
3.22634
3.19016
3.15438
3.11908
3.08431
3.05016
3.0167
2.98402
2.95224
2.92152
2.89207
2.86416
2.83813
2.81443
2.79354
2.77601
2.7624
2.75319
2.74877
2.74937
2.75501
2.76547
2.78032
2.79892
2.82045
2.84396
2.86844
2.89286
2.91621
2.9376
2.95623
2.9715
2.98299
2.99045
2.99383
2.99323
2.98889
2.98117
2.97051
2.95739
2.94233
2.92588
2.90859
2.89098
2.87353
2.85668
2.84077
2.82602
2.81254
2.80031
2.78918
2.77899
2.76913
2.76097
2.74563
4.18118
4.16421
4.14715
4.12996
4.11261
4.09506
4.07733
4.05939
4.04125
4.02291
4.00436
3.98559
3.96657
3.94727
3.92765
3.90767
3.88727
3.86642
3.84507
3.82318
3.80074
3.77772
3.75412
3.72994
3.70518
3.67985
3.65398
3.62757
3.60065
3.57324
3.54536
3.51702
3.48827
3.45911
3.4296
3.39975
3.36962
3.33924
3.30866
3.27793
3.2471
3.21622
3.18534
3.1545
3.12375
3.09315
3.06274
3.03259
3.00278
2.9734
2.94455
2.91637
2.889
2.86265
2.83751
2.81384
2.79192
2.77206
2.75461
2.73993
2.72837
2.72027
2.71593
2.71554
2.7192
2.72684
2.73827
2.7531
2.77081
2.79072
2.81207
2.83399
2.8556
2.87606
2.89455
2.91041
2.92306
2.93214
2.9374
2.93879
2.93639
2.93041
2.92115
2.90899
2.89439
2.87779
2.8597
2.84059
2.82094
2.80122
2.78182
2.7631
2.7453
2.72859
2.71303
2.69855
2.6851
2.6721
2.66125
2.6423
4.08849
4.0679
4.04735
4.02681
4.00628
3.98572
3.96513
3.94451
3.92384
3.90315
3.88241
3.86163
3.84079
3.81987
3.79884
3.77768
3.75635
3.73481
3.71303
3.69097
3.6686
3.6459
3.62285
3.59944
3.57566
3.55152
3.52704
3.50221
3.47706
3.45161
3.42589
3.39992
3.37373
3.34733
3.32077
3.29406
3.26722
3.24029
3.21327
3.1862
3.15908
3.13194
3.1048
3.07768
3.0506
3.0236
2.99671
2.96999
2.94352
2.91738
2.89168
2.86658
2.84224
2.81885
2.79664
2.77585
2.75677
2.73967
2.72486
2.71263
2.70328
2.69705
2.69414
2.69468
2.69869
2.70611
2.71673
2.7302
2.74606
2.76372
2.78251
2.80167
2.82042
2.83801
2.85371
2.86691
2.87709
2.8839
2.88711
2.88665
2.88258
2.87507
2.8644
2.85091
2.83498
2.81703
2.79751
2.77685
2.75549
2.73383
2.71226
2.69112
2.67068
2.65112
2.63256
2.615
2.59847
2.58245
2.56894
2.5462
4.04153
4.0184
3.99534
3.97235
3.94942
3.92654
3.9037
3.88091
3.85817
3.83548
3.81285
3.79028
3.76776
3.74528
3.72285
3.70043
3.678
3.65556
3.63306
3.61048
3.58781
3.56501
3.54208
3.51899
3.49575
3.47233
3.44875
3.42501
3.40112
3.37708
3.35291
3.32864
3.30426
3.2798
3.25528
3.2307
3.20607
3.18141
3.15672
3.13201
3.10727
3.08252
3.05775
3.03298
3.00823
2.9835
2.95885
2.93431
2.90995
2.88586
2.86215
2.83897
2.81646
2.79483
2.77428
2.75505
2.7374
2.7216
2.7079
2.69658
2.68787
2.682
2.67911
2.6793
2.68258
2.68887
2.69796
2.70955
2.72321
2.73842
2.75457
2.77098
2.78695
2.80179
2.81484
2.82554
2.8334
2.83809
2.8394
2.83723
2.83162
2.82273
2.81079
2.79609
2.77899
2.75986
2.73911
2.71713
2.6943
2.67102
2.64762
2.62444
2.60173
2.5797
2.55849
2.53817
2.51883
2.49995
2.4839
2.45734
4.01944
3.99473
3.97008
3.94549
3.92096
3.8965
3.8721
3.84777
3.82351
3.79934
3.77526
3.75128
3.72741
3.70365
3.67999
3.65643
3.63297
3.60959
3.58627
3.56301
3.53979
3.5166
3.49342
3.47023
3.44704
3.42384
3.40061
3.37736
3.3541
3.33081
3.30752
3.28422
3.26092
3.23762
3.21434
3.19106
3.16779
3.14454
3.12128
3.09803
3.07477
3.0515
3.02822
3.00493
2.98163
2.95835
2.93511
2.91196
2.88895
2.86618
2.84374
2.82176
2.8004
2.77984
2.76026
2.74191
2.72499
2.70977
2.69648
2.68537
2.67664
2.67047
2.66702
2.66635
2.66847
2.67328
2.6806
2.69016
2.70156
2.71432
2.7279
2.74166
2.75498
2.76722
2.77778
2.78613
2.79184
2.79457
2.79411
2.79037
2.78337
2.77322
2.76013
2.74437
2.72624
2.70609
2.68427
2.66116
2.63711
2.61246
2.58754
2.56264
2.53801
2.51388
2.4904
2.46765
2.44579
2.42429
2.4059
2.37561
4.00982
3.98423
3.95867
3.93316
3.90769
3.88227
3.8569
3.8316
3.80636
3.78121
3.75615
3.7312
3.70637
3.68166
3.65707
3.63263
3.60831
3.58413
3.56008
3.53615
3.51234
3.48864
3.46504
3.44153
3.41812
3.39479
3.37154
3.34837
3.32528
3.30226
3.27932
3.25645
3.23366
3.21094
3.18829
3.1657
3.14316
3.12068
3.09823
3.07581
3.0534
3.031
3.0086
2.98619
2.96378
2.94138
2.91902
2.89674
2.87459
2.85265
2.83101
2.8098
2.78915
2.76923
2.75023
2.73234
2.71578
2.70077
2.68753
2.67628
2.66721
2.66048
2.65622
2.65449
2.65529
2.65853
2.66405
2.67158
2.68077
2.69117
2.70229
2.71355
2.72437
2.73417
2.7424
2.74858
2.75228
2.7532
2.75112
2.74594
2.73767
2.72639
2.71228
2.69557
2.67654
2.65551
2.6328
2.60874
2.58366
2.55787
2.53168
2.50535
2.47914
2.45323
2.42782
2.40298
2.37893
2.3551
2.33459
2.30081
4.00587
3.97984
3.95383
3.92784
3.90187
3.87593
3.85003
3.82417
3.79837
3.77264
3.74699
3.72143
3.69598
3.67064
3.64544
3.62036
3.59543
3.57065
3.54602
3.52154
3.49721
3.47303
3.449
3.42511
3.40137
3.37777
3.35431
3.33099
3.30781
3.28477
3.26185
3.23907
3.21642
3.19389
3.17147
3.14916
3.12694
3.1048
3.08274
3.06072
3.03875
3.0168
2.99487
2.97296
2.95105
2.92917
2.90733
2.88558
2.86395
2.84252
2.82138
2.80064
2.78042
2.76089
2.74219
2.72453
2.70809
2.69308
2.6797
2.66814
2.65858
2.65117
2.646
2.64316
2.64261
2.6443
2.64805
2.65362
2.66069
2.66886
2.67765
2.68655
2.69504
2.70257
2.70863
2.71278
2.71462
2.71386
2.71029
2.7038
2.69437
2.68208
2.66706
2.64953
2.62973
2.60794
2.58447
2.55962
2.53369
2.50697
2.47973
2.45224
2.42471
2.39734
2.37031
2.34372
2.31779
2.29193
2.26957
2.2326
4.00426
3.97803
3.95181
3.92559
3.89938
3.87318
3.84701
3.82087
3.79477
3.76872
3.74274
3.71683
3.69102
3.6653
3.6397
3.61423
3.58889
3.56369
3.53864
3.51375
3.48902
3.46445
3.44004
3.4158
3.39173
3.36783
3.34411
3.32055
3.29716
3.27395
3.2509
3.22802
3.2053
3.18273
3.16031
3.13803
3.11587
3.09382
3.07187
3.05
3.0282
3.00645
2.98473
2.96305
2.94141
2.9198
2.89825
2.8768
2.85548
2.83436
2.81352
2.79306
2.77309
2.75376
2.73522
2.71763
2.70118
2.68604
2.67241
2.66045
2.65033
2.64218
2.63609
2.63212
2.63026
2.63043
2.63248
2.63619
2.64126
2.64732
2.65393
2.66064
2.66693
2.67234
2.67638
2.67864
2.67876
2.67645
2.67151
2.66382
2.65335
2.64015
2.62434
2.60609
2.58563
2.56321
2.53911
2.51361
2.48698
2.4595
2.43142
2.40297
2.37438
2.34582
2.31746
2.28941
2.26191
2.23433
2.2104
2.1706
4.00352
3.9772
3.95088
3.92455
3.89823
3.87191
3.84561
3.81933
3.79308
3.76687
3.74071
3.71461
3.68859
3.66265
3.63682
3.61109
3.58549
3.56002
3.53468
3.5095
3.48447
3.4596
3.43489
3.41036
3.38601
3.36183
3.33784
3.31403
3.2904
3.26697
3.24372
3.22065
3.19777
3.17506
3.15252
3.13013
3.1079
3.0858
3.06381
3.04193
3.02014
2.99843
2.97678
2.95518
2.93364
2.91216
2.89076
2.86946
2.84831
2.82736
2.80669
2.78639
2.76656
2.74732
2.72883
2.71122
2.69467
2.67934
2.66539
2.65298
2.64227
2.63337
2.62636
2.62129
2.61816
2.61688
2.61733
2.61928
2.62246
2.62654
2.63111
2.63575
2.64001
2.64343
2.6456
2.64611
2.64463
2.64088
2.63468
2.6259
2.61449
2.60048
2.58397
2.56511
2.54409
2.52115
2.49654
2.47051
2.44333
2.41524
2.38648
2.35727
2.32782
2.29831
2.26888
2.23965
2.21086
2.18186
2.15661
2.11438
4.00308
3.97672
3.95034
3.92396
3.89758
3.8712
3.84483
3.81848
3.79215
3.76585
3.73959
3.71338
3.68724
3.66117
3.63519
3.6093
3.58352
3.55786
3.53233
3.50694
3.48169
3.45659
3.43166
3.40689
3.3823
3.35788
3.33365
3.3096
3.28575
3.26209
3.23862
3.21535
3.19226
3.16937
3.14665
3.12411
3.10173
3.0795
3.05741
3.03544
3.01358
2.99182
2.97014
2.94854
2.92702
2.90558
2.88423
2.86301
2.84194
2.82109
2.8005
2.78027
2.7605
2.74129
2.72278
2.70509
2.68839
2.67281
2.65852
2.64565
2.63433
2.62469
2.61678
2.61066
2.6063
2.60365
2.60257
2.60287
2.60428
2.6065
2.60916
2.61187
2.61422
2.6158
2.61621
2.61509
2.61213
2.60707
2.59971
2.58993
2.57767
2.56294
2.54582
2.52644
2.50497
2.48161
2.45659
2.43016
2.40254
2.37398
2.34469
2.31489
2.28477
2.2545
2.22422
2.19405
2.16423
2.13406
2.10775
2.06349
4.00273
3.97634
3.94994
3.92352
3.89711
3.87069
3.84428
3.81787
3.79149
3.76514
3.73881
3.71254
3.68631
3.66016
3.63407
3.60807
3.58217
3.55638
3.5307
3.50514
3.47972
3.45445
3.42933
3.40436
3.37957
3.35495
3.33051
3.30625
3.28218
3.25831
3.23463
3.21115
3.18787
3.16477
3.14187
3.11915
3.0966
3.07421
3.05198
3.02988
3.00791
2.98606
2.96431
2.94266
2.92111
2.89966
2.87832
2.85712
2.83608
2.81526
2.79471
2.77451
2.75475
2.73552
2.71694
2.69914
2.68225
2.6664
2.65174
2.6384
2.62649
2.61612
2.60735
2.60021
2.5947
2.59074
2.58822
2.58695
2.5867
2.58718
2.58806
2.58897
2.58954
2.58939
2.58817
2.58554
2.58121
2.57492
2.5665
2.55581
2.54278
2.52742
2.50978
2.48997
2.46813
2.44445
2.41913
2.39239
2.36445
2.33554
2.30586
2.27562
2.24498
2.21412
2.18319
2.15227
2.12165
2.09056
2.0634
2.0175
4.00242
3.97601
3.94958
3.92314
3.89669
3.87024
3.8438
3.81736
3.79094
3.76454
3.73817
3.71183
3.68555
3.65932
3.63316
3.60707
3.58107
3.55516
3.52936
3.50368
3.47812
3.4527
3.42742
3.40229
3.37732
3.35252
3.32789
3.30344
3.27918
3.25511
3.23124
3.20756
3.18408
3.16079
3.1377
3.1148
3.09207
3.06952
3.04714
3.0249
3.00281
2.98084
2.959
2.93728
2.91567
2.89418
2.87282
2.8516
2.83057
2.80975
2.78921
2.769
2.74921
2.72993
2.71126
2.69331
2.67621
2.66009
2.64506
2.63124
2.61875
2.60767
2.59806
2.58996
2.58334
2.57816
2.57428
2.57154
2.56973
2.56858
2.56778
2.56701
2.56592
2.56417
2.56143
2.5574
2.55179
2.54437
2.53497
2.52345
2.50974
2.49382
2.47574
2.45557
2.43345
2.40953
2.384
2.35707
2.32892
2.29978
2.26983
2.23926
2.20825
2.17696
2.14553
2.11405
2.0828
2.051
2.0232
1.97599
4.00212
3.97569
3.94924
3.92277
3.8963
3.86982
3.84335
3.81688
3.79042
3.76398
3.73757
3.71119
3.68485
3.65856
3.63232
3.60616
3.58007
3.55407
3.52817
3.50237
3.47669
3.45114
3.42572
3.40044
3.37531
3.35035
3.32555
3.30093
3.2765
3.25225
3.22819
3.20432
3.18066
3.15719
3.13391
3.11083
3.08794
3.06522
3.04268
3.0203
2.99808
2.976
2.95406
2.93225
2.91057
2.88902
2.86762
2.84638
2.82532
2.80448
2.78392
2.76368
2.74384
2.72448
2.7057
2.6876
2.67028
2.65386
2.63846
2.62417
2.61111
2.59935
2.58894
2.57992
2.57226
2.5659
2.56075
2.55664
2.55336
2.55069
2.54832
2.54598
2.54334
2.5401
2.53595
2.5306
2.52381
2.51535
2.50504
2.49276
2.47843
2.46203
2.44357
2.42312
2.4008
2.37674
2.35111
2.32407
2.29582
2.26655
2.23644
2.20568
2.17442
2.14283
2.11105
2.07916
2.04746
2.01512
1.98683
1.93863
4.00184
3.97539
3.94891
3.92242
3.89593
3.86942
3.84292
3.81642
3.78993
3.76345
3.737
3.71057
3.68418
3.65783
3.63154
3.6053
3.57914
3.55305
3.52705
3.50115
3.47536
3.44969
3.42414
3.39873
3.37346
3.34835
3.3234
3.29862
3.27401
3.24959
3.22536
3.20133
3.17748
3.15384
3.13039
3.10714
3.08408
3.06121
3.03852
3.016
2.99364
2.97145
2.9494
2.9275
2.90574
2.88413
2.86268
2.84139
2.8203
2.79943
2.77882
2.75854
2.73863
2.71918
2.70027
2.68199
2.66444
2.64773
2.63195
2.61721
2.60359
2.59117
2.58
2.57009
2.56145
2.55399
2.54764
2.54224
2.5376
2.53349
2.52968
2.52587
2.52179
2.51715
2.51168
2.5051
2.4972
2.48775
2.47661
2.46363
2.44874
2.43191
2.41315
2.39251
2.37007
2.34596
2.32031
2.29328
2.26504
2.23576
2.2056
2.17476
2.14337
2.11161
2.0796
2.04744
2.01542
1.9827
1.95407
1.90513
4.00157
3.9751
3.9486
3.92209
3.89557
3.86904
3.84251
3.81598
3.78946
3.76294
3.73645
3.70998
3.68354
3.65714
3.63078
3.60448
3.57824
3.55208
3.52599
3.5
3.4741
3.44832
3.42266
3.39712
3.37172
3.34647
3.32138
3.29645
3.27169
3.24711
3.22272
3.19852
3.17451
3.1507
3.12709
3.10368
3.08046
3.05744
3.0346
3.01194
2.98946
2.96715
2.945
2.923
2.90116
2.87948
2.85797
2.83663
2.81549
2.79457
2.77392
2.75357
2.73358
2.71403
2.69498
2.67651
2.65873
2.64171
2.62556
2.61036
2.5962
2.58315
2.57125
2.56051
2.55093
2.54245
2.53497
2.52836
2.52245
2.51702
2.51185
2.50668
2.50125
2.49529
2.48857
2.48083
2.47187
2.46149
2.44954
2.4359
2.4205
2.40331
2.38431
2.36355
2.3411
2.31703
2.29148
2.26458
2.23646
2.20729
2.17722
2.14641
2.11503
2.08321
2.05111
2.0188
1.98659
1.95363
1.92478
1.87533
4.00132
3.97483
3.94831
3.92178
3.89523
3.86868
3.84212
3.81556
3.789
3.76245
3.73592
3.70941
3.68292
3.65647
3.63006
3.6037
3.57739
3.55115
3.52499
3.4989
3.47292
3.44703
3.42126
3.39561
3.37009
3.34471
3.31948
3.29441
3.26951
3.24478
3.22024
3.19588
3.17172
3.14776
3.12399
3.10043
3.07706
3.05389
3.03091
3.00812
2.98552
2.96309
2.94083
2.91875
2.89683
2.87507
2.85349
2.8321
2.8109
2.78992
2.76921
2.74878
2.72871
2.70903
2.68983
2.67117
2.65314
2.63582
2.6193
2.60367
2.58899
2.57533
2.56273
2.55121
2.54076
2.53132
2.5228
2.51507
2.50798
2.50132
2.49487
2.48842
2.4817
2.4745
2.46656
2.45768
2.44767
2.43636
2.42362