/*--------------------------------*- C++ -*----------------------------------*\
| =========                 |                                                 |
| \\      /  F ield         | OpenFOAM: The Open Source CFD Toolbox           |
|  \\    /   O peration     | Version:  2.1.1                                 |
|   \\  /    A nd           | Web:      www.OpenFOAM.org                      |
|    \\/     M anipulation  |                                                 |
\*---------------------------------------------------------------------------*/
FoamFile
{
    version     2.0;
    format      ascii;
    class       volScalarField;
    location    "0.115";
    object      k;
}
// * * * * * * * * * * * * * * * * * * * * * * * * * * * * * * * * * * * * * //

dimensions      [0 2 -2 0 0 0 0];

internalField   nonuniform List<scalar> 
6820
(
0.288909
0.351398
0.415005
0.477466
0.536861
0.591561
0.640379
0.682642
0.718146
0.747064
0.769841
0.787093
0.799522
0.807845
0.812754
0.814882
0.814793
0.812973
0.809833
0.805716
0.800902
0.795616
0.790039
0.784313
0.778547
0.772827
0.767211
0.761758
0.756432
0.751557
0.745669
0.745801
0.71805
0.265532
0.269396
0.270522
0.27134
0.272556
0.274211
0.276218
0.278465
0.28084
0.283258
0.285663
0.288024
0.290332
0.292591
0.294816
0.297025
0.299238
0.301473
0.303746
0.306069
0.308451
0.310898
0.313413
0.315997
0.318649
0.321368
0.324154
0.327013
0.329957
0.333037
0.336276
0.340121
0.344204
0.262038
0.264254
0.263597
0.261558
0.259002
0.25632
0.253628
0.250939
0.248241
0.245526
0.242795
0.240063
0.237347
0.234669
0.232053
0.229519
0.227085
0.224768
0.222579
0.220528
0.218621
0.216861
0.215251
0.213789
0.212473
0.211302
0.21027
0.209375
0.208611
0.207981
0.207469
0.207106
0.206819
0.259885
0.260272
0.259796
0.258535
0.256829
0.254891
0.252834
0.25071
0.248548
0.24636
0.244154
0.241938
0.239717
0.2375
0.235293
0.233104
0.230941
0.228811
0.22672
0.224674
0.222678
0.220736
0.218852
0.217029
0.215267
0.21357
0.211936
0.210367
0.208861
0.207418
0.206036
0.204716
0.203448
0.259299
0.258404
0.2576
0.256567
0.255295
0.25385
0.252293
0.250662
0.248985
0.247279
0.245553
0.243818
0.242078
0.240339
0.238606
0.236883
0.235174
0.233482
0.23181
0.230162
0.228539
0.226945
0.225382
0.22385
0.222352
0.220889
0.219461
0.21807
0.216715
0.215397
0.214116
0.212873
0.211669
0.259224
0.257848
0.256622
0.255437
0.254227
0.25297
0.251663
0.250313
0.24893
0.247524
0.246102
0.244673
0.24324
0.241809
0.240382
0.238964
0.237556
0.236161
0.234781
0.233418
0.232074
0.23075
0.229447
0.228166
0.226908
0.225674
0.224465
0.223281
0.222123
0.22099
0.219885
0.218807
0.217757
0.259217
0.257715
0.256309
0.25498
0.253698
0.252442
0.251196
0.249951
0.248705
0.247456
0.246206
0.244958
0.243712
0.242473
0.241241
0.240018
0.238807
0.237608
0.236423
0.235253
0.234098
0.232961
0.231841
0.230739
0.229657
0.228593
0.227549
0.226525
0.225522
0.22454
0.223578
0.222639
0.221722
0.259218
0.25769
0.256225
0.254822
0.253477
0.252181
0.250924
0.249697
0.248493
0.247307
0.246138
0.244983
0.243842
0.242714
0.241599
0.240498
0.239411
0.238339
0.237281
0.23624
0.235213
0.234204
0.23321
0.232234
0.231274
0.230332
0.229408
0.228501
0.227612
0.226741
0.225888
0.225054
0.224239
0.259218
0.257686
0.256207
0.25478
0.253405
0.25208
0.2508
0.249561
0.248357
0.247186
0.246044
0.244927
0.243833
0.24276
0.241708
0.240676
0.239662
0.238666
0.237688
0.236728
0.235785
0.234859
0.23395
0.233059
0.232184
0.231326
0.230485
0.229661
0.228854
0.228064
0.22729
0.226534
0.225794
0.259218
0.257686
0.256203
0.254769
0.253384
0.252045
0.250751
0.2495
0.248289
0.247115
0.245976
0.244868
0.243791
0.24274
0.241716
0.240716
0.23974
0.238785
0.237852
0.236939
0.236045
0.235171
0.234316
0.233478
0.232659
0.231857
0.231072
0.230304
0.229553
0.228818
0.2281
0.227398
0.226712
0.259218
0.257685
0.256202
0.254767
0.253378
0.252035
0.250735
0.249478
0.24826
0.247081
0.245939
0.244831
0.243756
0.242711
0.241696
0.240709
0.239748
0.238812
0.2379
0.237011
0.236144
0.235298
0.234473
0.233667
0.23288
0.232112
0.231362
0.23063
0.229915
0.229216
0.228534
0.227869
0.227219
0.259218
0.257685
0.256201
0.254766
0.253376
0.252031
0.250729
0.249469
0.248249
0.247067
0.245921
0.244811
0.243735
0.242691
0.241677
0.240693
0.239737
0.238808
0.237904
0.237026
0.23617
0.235338
0.234527
0.233738
0.232969
0.232219
0.231488
0.230776
0.230082
0.229405
0.228745
0.228102
0.227474
0.259218
0.257685
0.256201
0.254765
0.253375
0.25203
0.250727
0.249466
0.248244
0.24706
0.245913
0.244802
0.243724
0.242678
0.241664
0.24068
0.239725
0.238797
0.237896
0.237021
0.23617
0.235343
0.234538
0.233756
0.232995
0.232254
0.231533
0.230831
0.230147
0.229482
0.228834
0.228203
0.227588
0.259218
0.257685
0.256201
0.254764
0.253374
0.252029
0.250726
0.249464
0.248241
0.247057
0.245909
0.244796
0.243718
0.242671
0.241657
0.240672
0.239716
0.238788
0.237888
0.237013
0.236163
0.235337
0.234535
0.233755
0.232996
0.232259
0.231542
0.230844
0.230165
0.229505
0.228862
0.228237
0.227628
0.259218
0.257685
0.2562
0.254764
0.253374
0.252028
0.250724
0.249462
0.248239
0.247055
0.245906
0.244793
0.243714
0.242667
0.241651
0.240666
0.23971
0.238781
0.23788
0.237005
0.236155
0.23533
0.234527
0.233748
0.23299
0.232254
0.231538
0.230841
0.230164
0.229506
0.228865
0.228242
0.227636
0.259218
0.257685
0.2562
0.254764
0.253373
0.252027
0.250723
0.249461
0.248238
0.247053
0.245904
0.24479
0.243711
0.242663
0.241647
0.240661
0.239705
0.238776
0.237874
0.236999
0.236149
0.235323
0.23452
0.23374
0.232983
0.232246
0.23153
0.230834
0.230157
0.229499
0.228859
0.228236
0.227631
0.259218
0.257685
0.2562
0.254763
0.253373
0.252026
0.250722
0.24946
0.248236
0.247051
0.245902
0.244788
0.243708
0.24266
0.241644
0.240658
0.239701
0.238771
0.237869
0.236994
0.236143
0.235316
0.234514
0.233733
0.232975
0.232238
0.231522
0.230826
0.230149
0.22949
0.22885
0.228227
0.227621
0.259218
0.257684
0.2562
0.254763
0.253372
0.252026
0.250722
0.249459
0.248235
0.247049
0.2459
0.244786
0.243706
0.242658
0.241641
0.240654
0.239697
0.238767
0.237865
0.236989
0.236138
0.235311
0.234507
0.233727
0.232968
0.232231
0.231514
0.230818
0.23014
0.229481
0.22884
0.228217
0.227611
0.259218
0.257684
0.2562
0.254763
0.253372
0.252025
0.250721
0.249458
0.248234
0.247048
0.245899
0.244784
0.243703
0.242655
0.241638
0.240651
0.239693
0.238764
0.237861
0.236984
0.236133
0.235306
0.234502
0.233721
0.232962
0.232224
0.231507
0.23081
0.230132
0.229472
0.228831
0.228207
0.2276
0.259218
0.257684
0.2562
0.254762
0.253371
0.252025
0.25072
0.249457
0.248233
0.247047
0.245897
0.244782
0.243701
0.242653
0.241636
0.240648
0.23969
0.23876
0.237857
0.23698
0.236128
0.235301
0.234497
0.233715
0.232956
0.232218
0.2315
0.230802
0.230124
0.229464
0.228822
0.228198
0.22759
0.259218
0.257684
0.256199
0.254762
0.253371
0.252024
0.25072
0.249456
0.248232
0.247046
0.245896
0.244781
0.2437
0.242651
0.241633
0.240646
0.239687
0.238757
0.237853
0.236976
0.236124
0.235296
0.234492
0.23371
0.23295
0.232212
0.231494
0.230795
0.230116
0.229456
0.228814
0.228189
0.227581
0.259218
0.257684
0.256199
0.254762
0.253371
0.252024
0.250719
0.249456
0.248231
0.247045
0.245895
0.244779
0.243698
0.242649
0.241631
0.240643
0.239685
0.238754
0.23785
0.236973
0.23612
0.235292
0.234487
0.233705
0.232945
0.232206
0.231487
0.230789
0.230109
0.229448
0.228806
0.22818
0.227572
0.259218
0.257684
0.256199
0.254762
0.253371
0.252024
0.250719
0.249455
0.248231
0.247044
0.245894
0.244778
0.243697
0.242647
0.241629
0.240641
0.239682
0.238751
0.237847
0.236969
0.236116
0.235288
0.234483
0.2337
0.23294
0.2322
0.231481
0.230782
0.230103
0.229441
0.228798
0.228172
0.227563
0.259218
0.257684
0.256199
0.254762
0.253371
0.252023
0.250719
0.249455
0.24823
0.247043
0.245893
0.244777
0.243695
0.242646
0.241627
0.240639
0.23968
0.238749
0.237844
0.236966
0.236113
0.235284
0.234479
0.233696
0.232935
0.232195
0.231476
0.230776
0.230096
0.229434
0.228791
0.228164
0.227555
0.259218
0.257684
0.256199
0.254762
0.25337
0.252023
0.250718
0.249454
0.24823
0.247043
0.245892
0.244776
0.243694
0.242644
0.241626
0.240637
0.239678
0.238746
0.237842
0.236963
0.23611
0.235281
0.234475
0.233692
0.23293
0.23219
0.231471
0.230771
0.23009
0.229428
0.228784
0.228157
0.227547
0.259218
0.257684
0.256199
0.254762
0.25337
0.252023
0.250718
0.249454
0.248229
0.247042
0.245891
0.244775
0.243693
0.242643
0.241625
0.240636
0.239676
0.238744
0.23784
0.236961
0.236107
0.235278
0.234471
0.233688
0.232926
0.232186
0.231466
0.230766
0.230085
0.229422
0.228777
0.22815
0.22754
0.259218
0.257684
0.256199
0.254762
0.25337
0.252023
0.250718
0.249454
0.248229
0.247042
0.245891
0.244775
0.243692
0.242642
0.241623
0.240634
0.239674
0.238743
0.237837
0.236958
0.236104
0.235275
0.234468
0.233685
0.232923
0.232182
0.231462
0.230761
0.23008
0.229417
0.228772
0.228144
0.227533
0.259218
0.257684
0.256199
0.254762
0.25337
0.252023
0.250718
0.249454
0.248229
0.247041
0.24589
0.244774
0.243692
0.242641
0.241622
0.240633
0.239673
0.238741
0.237836
0.236957
0.236102
0.235272
0.234466
0.233682
0.232919
0.232178
0.231458
0.230757
0.230075
0.229412
0.228766
0.228138
0.227527
0.259218
0.257684
0.256199
0.254762
0.25337
0.252023
0.250718
0.249453
0.248228
0.247041
0.24589
0.244773
0.243691
0.24264
0.241621
0.240632
0.239672
0.23874
0.237834
0.236955
0.2361
0.23527
0.234463
0.233679
0.232917
0.232175
0.231454
0.230753
0.230071
0.229407
0.228762
0.228133
0.227522
0.259218
0.257684
0.256199
0.254762
0.25337
0.252023
0.250718
0.249454
0.248229
0.247041
0.24589
0.244774
0.243691
0.242641
0.241622
0.240632
0.239672
0.238739
0.237834
0.236954
0.2361
0.235269
0.234462
0.233677
0.232915
0.232173
0.231452
0.23075
0.230068
0.229404
0.228758
0.228129
0.227517
0.259218
0.257684
0.256199
0.254762
0.25337
0.252023
0.250718
0.249453
0.248228
0.247041
0.24589
0.244773
0.243691
0.24264
0.241621
0.240632
0.239671
0.238739
0.237833
0.236953
0.236099
0.235268
0.234461
0.233676
0.232913
0.232172
0.23145
0.230749
0.230066
0.229402
0.228755
0.228126
0.227514
0.259218
0.257684
0.256199
0.254762
0.253371
0.252024
0.25072
0.249456
0.248231
0.247044
0.245893
0.244777
0.243694
0.242644
0.241625
0.240635
0.239675
0.238742
0.237836
0.236956
0.236101
0.235271
0.234463
0.233678
0.232915
0.232173
0.231451
0.230749
0.230066
0.229402
0.228755
0.228126
0.227513
0.259218
0.257685
0.2562
0.254764
0.253373
0.252026
0.250721
0.249457
0.248232
0.247045
0.245895
0.244779
0.243696
0.242646
0.241627
0.240638
0.239678
0.238745
0.237839
0.236959
0.236105
0.235274
0.234466
0.233681
0.232917
0.232175
0.231453
0.23075
0.230066
0.229401
0.228753
0.228123
0.227509
0.259218
0.257685
0.256201
0.254766
0.253378
0.252033
0.250731
0.249469
0.248246
0.24706
0.24591
0.244794
0.243712
0.242662
0.241643
0.240653
0.239692
0.238759
0.237852
0.236971
0.236114
0.235282
0.234472
0.233685
0.23292
0.232175
0.23145
0.230744
0.230058
0.229389
0.228738
0.228104
0.227486
0.259219
0.257689
0.25621
0.254777
0.25339
0.252046
0.250744
0.249482
0.248259
0.247074
0.245924
0.244808
0.243726
0.242675
0.241654
0.240663
0.2397
0.238763
0.237853
0.236967
0.236106
0.235268
0.234452
0.233658
0.232885
0.232133
0.231399
0.230685
0.229989
0.229311
0.22865
0.228005
0.227377
0.25922
0.257694
0.256221
0.254799
0.253423
0.252089
0.250795
0.249538
0.248318
0.247131
0.245978
0.244857
0.243766
0.242705
0.241673
0.240668
0.239689
0.238736
0.237808
0.236904
0.236023
0.235164
0.234326
0.23351
0.232713
0.231937
0.231179
0.23044
0.229719
0.229015
0.228328
0.227658
0.227004
0.259229
0.257738
0.256292
0.254882
0.253509
0.252172
0.250871
0.249604
0.248368
0.247162
0.245985
0.244836
0.243715
0.242619
0.24155
0.240506
0.239487
0.238491
0.237519
0.23657
0.235643
0.234737
0.233853
0.232989
0.232145
0.231321
0.230516
0.229729
0.22896
0.228209
0.227475
0.226758
0.226057
0.259265
0.257822
0.256453
0.255125
0.253804
0.252482
0.251163
0.249853
0.24856
0.247288
0.246043
0.244825
0.243636
0.242476
0.241345
0.240243
0.239168
0.238121
0.237099
0.236102
0.23513
0.234181
0.233254
0.23235
0.231467
0.230604
0.229762
0.228939
0.228135
0.227349
0.226582
0.225833
0.2251
0.259599
0.258632
0.257578
0.256542
0.255588
0.254714
0.253906
0.253152
0.252447
0.251786
0.251169
0.250596
0.250066
0.249578
0.24913
0.248723
0.248353
0.248019
0.24772
0.247454
0.247219
0.247014
0.246836
0.246684
0.246557
0.246453
0.246371
0.246309
0.246267
0.246242
0.246235
0.246244
0.246268
0.266719
0.28057
0.294241
0.307622
0.320668
0.333362
0.345692
0.357648
0.369223
0.380411
0.391208
0.401615
0.411632
0.421262
0.430511
0.439383
0.447886
0.456027
0.463816
0.471262
0.478376
0.485166
0.491644
0.497821
0.503707
0.509313
0.51465
0.519729
0.52456
0.529153
0.533519
0.537666
0.541608
0.843995
1.013
1.19124
1.38074
1.5759
1.76344
1.92919
2.06293
2.16111
2.22639
2.26541
2.28614
2.29575
2.29942
2.30024
2.29966
2.29822
2.2962
2.29391
2.29182
2.29046
2.29027
2.29152
2.29424
2.29823
2.3031
2.30833
2.31332
2.31743
2.32
2.32042
2.31812
2.31263
2.30353
2.29054
2.27346
2.25222
2.22686
2.1975
2.16438
2.12778
2.08803
2.04551
2.00055
1.95346
1.90448
1.85373
1.80121
1.74677
1.6901
1.63077
1.56821
1.50179
1.43084
1.35473
1.273
1.1854
1.09206
0.993598
0.891279
0.787123
0.683979
0.585447
0.495545
0.418033
0.355468
0.30844
0.275513
0.253986
0.240899
0.233695
0.230427
0.229702
0.230553
0.232323
0.234571
0.237013
0.239472
0.241853
0.244113
0.246249
0.248281
0.250246
0.252188
0.25415
0.25617
0.258274
0.260471
0.262755
0.265101
0.267466
0.269798
0.272039
0.27413
0.27602
0.277664
0.279032
0.280093
0.280877
0.281289
0.352321
0.365313
0.385555
0.416538
0.462063
0.525472
0.608909
0.712439
0.833489
0.966834
1.1052
1.24045
1.36502
1.47326
1.56225
1.63181
1.68392
1.7218
1.74892
1.76841
1.78269
1.79343
1.80168
1.80802
1.81274
1.81598
1.81772
1.8179
1.81635
1.81285
1.80716
1.799
1.7881
1.77426
1.75732
1.73721
1.71395
1.68764
1.65847
1.6267
1.59265
1.55665
1.51906
1.48019
1.44033
1.39967
1.3583
1.31617
1.27312
1.22884
1.18289
1.13477
1.08389
1.0297
0.97174
0.909715
0.843617
0.773834
0.701249
0.627326
0.554123
0.484193
0.420296
0.364921
0.319706
0.28504
0.26008
0.243206
0.23258
0.22654
0.223742
0.223159
0.224027
0.225789
0.228048
0.230527
0.233043
0.235483
0.237784
0.239924
0.24191
0.243766
0.245532
0.24725
0.248966
0.250723
0.25255
0.254468
0.256479
0.258569
0.260707
0.262851
0.264948
0.266944
0.268787
0.270432
0.271844
0.27299
0.273876
0.274516
0.206383
0.206082
0.206428
0.207861
0.210736
0.215651
0.223527
0.235567
0.253203
0.278009
0.3115
0.354833
0.40845
0.471789
0.543172
0.61993
0.698753
0.776183
0.849115
0.915192
0.972992
1.02201
1.0625
1.09519
1.12104
1.14104
1.15607
1.16683
1.17384
1.17745
1.17789
1.17529
1.16975
1.16135
1.15017
1.13635
1.12005
1.10149
1.08093
1.05867
1.03503
1.01031
0.984842
0.958879
0.932638
0.906256
0.879777
0.853143
0.826184
0.798629
0.770123
0.740253
0.70859
0.674748
0.638446
0.599589
0.558339
0.515191
0.471015
0.427042
0.384778
0.345816
0.311567
0.282981
0.260385
0.243497
0.231616
0.223855
0.219327
0.217242
0.216937
0.217872
0.219624
0.221864
0.224346
0.226893
0.229384
0.231743
0.233929
0.235933
0.237763
0.239446
0.241019
0.242526
0.24401
0.245515
0.247075
0.248717
0.250452
0.252276
0.254169
0.256098
0.258019
0.259883
0.261641
0.263248
0.264665
0.26586
0.266813
0.267637
0.202045
0.200557
0.199172
0.19789
0.196754
0.195792
0.195099
0.194809
0.1951
0.196207
0.198421
0.202099
0.207649
0.215523
0.226177
0.240023
0.257352
0.278258
0.302569
0.32982
0.359275
0.390002
0.420972
0.451181
0.479739
0.50594
0.529285
0.549481
0.566407
0.580074
0.590586
0.598103
0.60282
0.604947
0.60471
0.602342
0.598089
0.592204
0.584946
0.576574
0.567341
0.557482
0.547209
0.536698
0.526077
0.515423
0.50475
0.494005
0.483072
0.471771
0.459877
0.447135
0.433293
0.418135
0.401526
0.383458
0.364087
0.343765
0.32303
0.302571
0.283146
0.265472
0.250115
0.237413
0.227461
0.220142
0.215196
0.212284
0.211042
0.21111
0.212161
0.213905
0.216098
0.218539
0.221073
0.223581
0.225981
0.228219
0.230269
0.232125
0.233798
0.235314
0.236706
0.238015
0.239283
0.240552
0.241859
0.243234
0.244696
0.24625
0.247886
0.249581
0.251299
0.253
0.254637
0.256168
0.257552
0.258756
0.259743
0.260699
0.210318
0.208823
0.207355
0.205901
0.204463
0.203053
0.201684
0.200377
0.199157
0.198059
0.197129
0.196424
0.19601
0.195962
0.196364
0.197302
0.198866
0.20114
0.204197
0.208091
0.212844
0.218444
0.224831
0.231901
0.239501
0.247444
0.255519
0.263506
0.271194
0.278393
0.284949
0.290744
0.295705
0.299797
0.303023
0.305418
0.307042
0.307973
0.308302
0.308125
0.307538
0.306631
0.305483
0.304159
0.302705
0.301146
0.299482
0.297687
0.295707
0.29346
0.290844
0.287744
0.284038
0.279625
0.274432
0.268446
0.261726
0.254418
0.246749
0.239013
0.231537
0.224644
0.218609
0.213632
0.209826
0.207216
0.205751
0.205322
0.205782
0.206965
0.208697
0.210817
0.213175
0.215645
0.218122
0.220524
0.222791
0.224884
0.226783
0.228486
0.230004
0.231358
0.23258
0.233706
0.234774
0.235825
0.236896
0.23802
0.239218
0.240505
0.241879
0.243326
0.244823
0.246333
0.247818
0.249236
0.250549
0.251724
0.25271
0.253748
0.216567
0.215221
0.213874
0.212531
0.211192
0.209857
0.208525
0.207203
0.205897
0.204617
0.203375
0.202187
0.201069
0.200043
0.199129
0.198351
0.197733
0.197298
0.197065
0.197051
0.19727
0.197728
0.198425
0.199354
0.2005
0.201839
0.203341
0.204967
0.206676
0.208425
0.21017
0.211872
0.213496
0.215014
0.216406
0.217661
0.218776
0.219752
0.2206
0.22133
0.221957
0.222497
0.222961
0.223363
0.223708
0.224
0.224234
0.224398
0.224473
0.224429
0.224227
0.223823
0.223167
0.222212
0.220923
0.219282
0.217297
0.215014
0.212516
0.20992
0.207369
0.205014
0.203002
0.201456
0.200465
0.200074
0.200287
0.201068
0.202352
0.204052
0.206071
0.208308
0.210668
0.213062
0.215418
0.217673
0.219783
0.221717
0.223459
0.225008
0.226373
0.227573
0.228635
0.229591
0.230476
0.231328
0.232181
0.233069
0.234019
0.235047
0.236161
0.237356
0.238616
0.239915
0.24122
0.242495
0.243703
0.244813
0.245763
0.246831
0.22068
0.219497
0.218308
0.217112
0.215907
0.214694
0.213476
0.212255
0.211035
0.209821
0.208617
0.20743
0.206266
0.205133
0.204039
0.202993
0.202006
0.201085
0.200241
0.199482
0.198815
0.198245
0.197776
0.197409
0.197143
0.196974
0.196897
0.196904
0.196985
0.197128
0.197323
0.197556
0.197817
0.198095
0.19838
0.198665
0.198943
0.199211
0.199465
0.199705
0.199929
0.200137
0.20033
0.200508
0.200671
0.200816
0.200941
0.201042
0.201113
0.201143
0.201122
0.201035
0.200868
0.200604
0.200233
0.199746
0.199149
0.198461
0.197714
0.196961
0.196266
0.195703
0.195347
0.195265
0.195509
0.19611
0.197075
0.198387
0.200011
0.201894
0.203972
0.206179
0.208445
0.210706
0.212905
0.214993
0.216935
0.218704
0.220288
0.221684
0.2229
0.223953
0.224865
0.225664
0.226382
0.227051
0.227707
0.228379
0.229096
0.229879
0.230741
0.231684
0.232702
0.233776
0.234881
0.235985
0.237057
0.238067
0.23895
0.239994
0.223311
0.222255
0.221187
0.220109
0.219022
0.217926
0.216824
0.215716
0.214604
0.21349
0.212379
0.211272
0.210174
0.209089
0.208019
0.206971
0.205948
0.204956
0.203998
0.203081
0.202208
0.201383
0.200611
0.199892
0.199229
0.198624
0.198074
0.19758
0.197139
0.196748
0.196404
0.196102
0.195837
0.195606
0.195402
0.195222
0.195062
0.194916
0.194781
0.194655
0.194533
0.194414
0.194294
0.194173
0.194047
0.193916
0.193777
0.19363
0.193474
0.193306
0.193127
0.192934
0.192728
0.192508
0.192275
0.192035
0.191796
0.191572
0.191384
0.19126
0.191235
0.191347
0.191635
0.192134
0.192871
0.193862
0.195108
0.196597
0.198302
0.200185
0.2022
0.204296
0.206418
0.208516
0.210543
0.212457
0.214228
0.215834
0.217262
0.218509
0.219582
0.220495
0.221266
0.22192
0.222484
0.222989
0.223464
0.22394
0.224444
0.224998
0.225621
0.22632
0.227095
0.227937
0.228827
0.229741
0.230651
0.231531
0.232316
0.233286
0.224951
0.223991
0.223021
0.222041
0.221052
0.220053
0.219045
0.21803
0.21701
0.215986
0.214962
0.213938
0.212918
0.211903
0.210896
0.2099
0.208917
0.20795
0.207002
0.206075
0.205172
0.204296
0.203449
0.202634
0.201852
0.201106
0.200395
0.199722
0.199086
0.198487
0.197924
0.197395
0.1969
0.196434
0.195997
0.195585
0.195195
0.194824
0.194469
0.194127
0.193794
0.193467
0.193145
0.192824
0.192502
0.192178
0.191852
0.191523
0.191191
0.19086
0.190532
0.19021
0.1899
0.189609
0.189344
0.189115
0.188934
0.188816
0.188778
0.18884
0.189024
0.189354
0.189851
0.190535
0.19142
0.192512
0.193807
0.195293
0.196947
0.198737
0.200627
0.202573
0.204529
0.206454
0.208304
0.210046
0.21165
0.213096
0.214374
0.215478
0.216415
0.217195
0.217834
0.218354
0.218779
0.219134
0.219447
0.219745
0.220055
0.2204
0.2208
0.221266
0.221805
0.222414
0.223082
0.223792
0.224519
0.225244
0.225905
0.226755
0.22593
0.225041
0.224142
0.223234
0.222317
0.221392
0.220459
0.219519
0.218573
0.217624
0.216672
0.215719
0.214767
0.213818
0.212873
0.211935
0.211004
0.210082
0.209171
0.208273
0.20739
0.206522
0.205673
0.204844
0.204036
0.203251
0.20249
0.201755
0.201045
0.200362
0.199706
0.199076
0.198472
0.197892
0.197337
0.196802
0.196288
0.195791
0.195309
0.194839
0.194378
0.193925
0.193476
0.193029
0.192583
0.192137
0.19169
0.191243
0.190797
0.190355
0.189923
0.189505
0.189109
0.188743
0.188419
0.188147
0.18794
0.187815
0.187786
0.18787
0.188085
0.188446
0.18897
0.189667
0.190545
0.191605
0.192841
0.19424
0.195782
0.197438
0.199175
0.200956
0.202741
0.204491
0.206169
0.207744
0.209188
0.210483
0.211617
0.212586
0.213394
0.214049
0.214566
0.214962
0.215258
0.215478
0.215645
0.215784
0.21592
0.216075
0.21627
0.21652
0.216835
0.217217
0.217662
0.218159
0.218691
0.219241
0.219756
0.220443
0.226479
0.225638
0.22479
0.223934
0.22307
0.222199
0.221321
0.220437
0.219547
0.218654
0.217758
0.216861
0.215963
0.215067
0.214174
0.213284
0.212399
0.21152
0.210649
0.209786
0.208932
0.20809
0.207259
0.206442
0.205639
0.204852
0.204082
0.20333
0.202596
0.201881
0.201186
0.200511
0.199856
0.19922
0.198603
0.198003
0.197419
0.196849
0.196292
0.195745
0.195207
0.194674
0.194146
0.19362
0.193095
0.192571
0.192047
0.191524
0.191004
0.190491
0.18999
0.189506
0.189048
0.188624
0.188246
0.187926
0.187676
0.187511
0.187446
0.187497
0.187677
0.188
0.188477
0.189118
0.189925
0.190898
0.192031
0.193309
0.194715
0.196221
0.197799
0.199414
0.20103
0.202612
0.204125
0.20554
0.206833
0.207985
0.208985
0.209827
0.210514
0.211053
0.211455
0.211737
0.211917
0.212014
0.21205
0.212047
0.212028
0.212013
0.212023
0.212074
0.212179
0.212345
0.212573
0.212857
0.213187
0.213548
0.213904
0.214392
0.226761
0.225951
0.225135
0.224313
0.223485
0.222651
0.221812
0.220967
0.220118
0.219265
0.21841
0.217553
0.216696
0.21584
0.214985
0.214133
0.213285
0.21244
0.211602
0.210769
0.209943
0.209125
0.208316
0.207516
0.206727
0.20595
0.205184
0.204432
0.203693
0.202969
0.202259
0.201565
0.200886
0.200222
0.199572
0.198936
0.198313
0.197701
0.197099
0.196506
0.195919
0.195337
0.194758
0.194182
0.193607
0.193032
0.192459
0.191887
0.19132
0.190761
0.190215
0.189687
0.189186
0.18872
0.188301
0.187938
0.187647
0.187438
0.187328
0.187329
0.187455
0.187716
0.188124
0.188684
0.189399
0.190268
0.191283
0.192432
0.193696
0.195053
0.196474
0.197928
0.199383
0.200805
0.202162
0.203428
0.204579
0.205597
0.20647
0.207194
0.207769
0.2082
0.208497
0.208674
0.208747
0.208733
0.208652
0.208523
0.208366
0.2082
0.208045
0.207917
0.207831
0.207796
0.207817
0.207894
0.208021
0.208188
0.208374
0.208635
0.226889
0.226098
0.225301
0.2245
0.223694
0.222883
0.222068
0.221249
0.220426
0.2196
0.218773
0.217944
0.217114
0.216286
0.215458
0.214633
0.21381
0.212991
0.212176
0.211366
0.210562
0.209763
0.208972
0.208188
0.207412
0.206645
0.205887
0.205139
0.204403
0.203677
0.202963
0.202261
0.20157
0.200892
0.200225
0.199568
0.198922
0.198285
0.197656
0.197034
0.196417
0.195804
0.195194
0.194585
0.193978
0.193372
0.192767
0.192165
0.191568
0.190979
0.190404
0.189847
0.189317
0.188822
0.188371
0.187976
0.187649
0.187401
0.187247
0.187198
0.187267
0.187464
0.187798
0.188274
0.188894
0.189656
0.190554
0.191575
0.192703
0.193916
0.195188
0.19649
0.197792
0.199064
0.200275
0.201401
0.202419
0.203312
0.204068
0.204682
0.205152
0.205483
0.205684
0.205765
0.205741
0.205628
0.205441
0.2052
0.204921
0.204623
0.204322
0.204035
0.203777
0.203559
0.203388
0.203268
0.203199
0.203171
0.203184
0.2032
0.226937
0.226155
0.225369
0.224579
0.223785
0.222987
0.222186
0.221382
0.220575
0.219766
0.218955
0.218143
0.217331
0.21652
0.21571
0.214901
0.214095
0.213293
0.212493
0.211698
0.210908
0.210122
0.209343
0.20857
0.207803
0.207044
0.206292
0.205549
0.204815
0.20409
0.203374
0.202668
0.201972
0.201285
0.200608
0.19994
0.19928
0.198627
0.197981
0.197341
0.196705
0.196072
0.195442
0.194813
0.194185
0.193559
0.192934
0.192313
0.191698
0.191091
0.190497
0.189922
0.189373
0.188857
0.188384
0.187964
0.187608
0.187327
0.187134
0.18704
0.187056
0.187192
0.187455
0.18785
0.188379
0.18904
0.189826
0.190727
0.191725
0.192803
0.193935
0.195094
0.196254
0.197385
0.19846
0.199455
0.200349
0.201126
0.201772
0.202284
0.202657
0.202896
0.203008
0.203002
0.20289
0.202687
0.202408
0.202067
0.201682
0.201267
0.200839
0.200413
0.200003
0.19962
0.199275
0.198974
0.198718
0.198502
0.198345
0.198107
0.226948
0.22617
0.225388
0.224603
0.223815
0.223024
0.22223
0.221433
0.220635
0.219834
0.219033
0.21823
0.217428
0.216626
0.215826
0.215027
0.21423
0.213436
0.212645
0.211858
0.211075
0.210297
0.209524
0.208756
0.207995
0.20724
0.206491
0.20575
0.205017
0.204291
0.203574
0.202865
0.202164
0.201472
0.200787
0.200111
0.199441
0.198778
0.198121
0.197468
0.19682
0.196174
0.195531
0.194889
0.194249
0.19361
0.192974
0.192341
0.191714
0.191097
0.190492
0.189905
0.189343
0.188814
0.188324
0.187885
0.187506
0.187198
0.186971
0.186837
0.186806
0.186885
0.187083
0.187403
0.187847
0.188413
0.189096
0.189883
0.190762
0.191713
0.192714
0.19374
0.194767
0.195766
0.196714
0.197587
0.198364
0.199032
0.199577
0.199992
0.200276
0.200431
0.200461
0.200376
0.200185
0.199902
0.19954
0.199113
0.198634
0.198118
0.19758
0.197033
0.19649
0.195963
0.195463
0.194997
0.194571
0.194177
0.193858
0.193367
0.226944
0.226166
0.225386
0.224603
0.223817
0.223028
0.222237
0.221444
0.220649
0.219853
0.219055
0.218257
0.217459
0.216661
0.215865
0.215069
0.214276
0.213486
0.212698
0.211914
0.211134
0.210358
0.209587
0.208821
0.20806
0.207305
0.206557
0.205815
0.20508
0.204352
0.203631
0.202918
0.202213
0.201515
0.200825
0.200141
0.199464
0.198793
0.198127
0.197466
0.196808
0.196154
0.195502
0.194851
0.194203
0.193557
0.192913
0.192274
0.19164
0.191016
0.190405
0.189811
0.189241
0.188702
0.188201
0.187747
0.187349
0.187017
0.186761
0.186592
0.186517
0.186545
0.186683
0.186934
0.1873
0.187779
0.188364
0.189047
0.189814
0.190647
0.191525
0.192427
0.193329
0.194205
0.195033
0.195791
0.19646
0.197025
0.197474
0.197801
0.198002
0.198079
0.198035
0.197878
0.197617
0.197263
0.196828
0.196324
0.195765
0.195162
0.194529
0.193878
0.193221
0.192569
0.191934
0.191322
0.190742
0.190186
0.189717
0.18898
0.226934
0.226156
0.225376
0.224593
0.223807
0.223019
0.222229
0.221437
0.220643
0.219847
0.219051
0.218254
0.217457
0.21666
0.215864
0.215069
0.214276
0.213486
0.212698
0.211913
0.211132
0.210355
0.209582
0.208814
0.208051
0.207294
0.206542
0.205797
0.205058
0.204326
0.203601
0.202883
0.202172
0.201468
0.200771
0.20008
0.199396
0.198718
0.198045
0.197376
0.196711
0.19605
0.195391
0.194735
0.194081
0.19343
0.192782
0.192138
0.191501
0.190873
0.190258
0.18966
0.189085
0.188538
0.188028
0.187562
0.187148
0.186796
0.186514
0.186312
0.186199
0.18618
0.186263
0.18645
0.186743
0.187141
0.187636
0.188221
0.188883
0.189606
0.19037
0.191155
0.191939
0.1927
0.193415
0.194064
0.194631
0.195099
0.195459
0.195703
0.195827
0.195832
0.19572
0.195498
0.195174
0.194758
0.19426
0.193691
0.193062
0.192385
0.191672
0.190932
0.190178
0.18942
0.188668
0.18793
0.187215
0.186513
0.185909
0.184943
0.226923
0.226145
0.225364
0.22458
0.223794
0.223006
0.222215
0.221422
0.220628
0.219832
0.219035
0.218237
0.217439
0.216642
0.215844
0.215048
0.214254
0.213461
0.21267
0.211883
0.211099
0.210318
0.209542
0.20877
0.208002
0.20724
0.206484
0.205733
0.204989
0.204251
0.20352
0.202795
0.202078
0.201367
0.200663
0.199966
0.199275
0.198589
0.197909
0.197234
0.196563
0.195895
0.195231
0.19457
0.193911
0.193256
0.192605
0.191958
0.191319
0.190689
0.190071
0.18947
0.188891
0.188339
0.187821
0.187344
0.186916
0.186545
0.18624
0.186009
0.185859
0.185797
0.185829
0.185957
0.186182
0.186503
0.186915
0.187408
0.187972
0.188591
0.189248
0.189923
0.190596
0.191247
0.191855
0.192402
0.192871
0.193248
0.193523
0.193689
0.193741
0.19368
0.193507
0.193227
0.192848
0.192378
0.191825
0.191201
0.190514
0.189775
0.188994
0.18818
0.187345
0.186497
0.185647
0.1848
0.183969
0.18314
0.182417
0.181242
0.226912
0.226133
0.225351
0.224567
0.22378
0.222991
0.222199
0.221406
0.22061
0.219813
0.219015
0.218216
0.217417
0.216617
0.215817
0.215019
0.214221
0.213426
0.212632
0.21184
0.211052
0.210267
0.209485
0.208708
0.207935
0.207168
0.206405
0.205648
0.204897
0.204153
0.203415
0.202683
0.201958
0.20124
0.200529
0.199824
0.199125
0.198432
0.197745
0.197063
0.196386
0.195713
0.195043
0.194377
0.193715
0.193056
0.192402
0.191753
0.191112
0.19048
0.18986
0.189257
0.188674
0.188117
0.187592
0.187105
0.186664
0.186276
0.185949
0.18569
0.185506
0.185404
0.185387
0.18546
0.185621
0.185871
0.186203
0.18661
0.187081
0.187602
0.188157
0.188728
0.189296
0.189842
0.190348
0.190797
0.191172
0.191463
0.191658
0.19175
0.191736
0.191614
0.191385
0.191055
0.190628
0.190112
0.189514
0.188844
0.188109
0.187319
0.186483
0.185609
0.184706
0.183784
0.182851
0.181914
0.180985
0.180046
0.179221
0.177859
0.226901
0.226122
0.225339
0.224554
0.223766
0.222976
0.222183
0.221388
0.220592
0.219794
0.218994
0.218193
0.217392
0.21659
0.215788
0.214987
0.214186
0.213387
0.212589
0.211793
0.211
0.21021
0.209424
0.208641
0.207862
0.207088
0.206319
0.205555
0.204797
0.204045
0.2033
0.202561
0.201828
0.201102
0.200383
0.19967
0.198964
0.198264
0.19757
0.196881
0.196197
0.195518
0.194844
0.194173
0.193507
0.192845
0.192188
0.191537
0.190893
0.19026
0.189638
0.189032
0.188445
0.187884
0.187351
0.186855
0.186401
0.185997
0.185648
0.185363
0.185147
0.185005
0.184943
0.184962
0.185064
0.185245
0.185503
0.185828
0.18621
0.186637
0.187095
0.187565
0.188032
0.188478
0.188886
0.18924