/*--------------------------------*- C++ -*----------------------------------*\
| =========                 |                                                 |
| \\      /  F ield         | OpenFOAM: The Open Source CFD Toolbox           |
|  \\    /   O peration     | Version:  2.1.1                                 |
|   \\  /    A nd           | Web:      www.OpenFOAM.org                      |
|    \\/     M anipulation  |                                                 |
\*---------------------------------------------------------------------------*/
FoamFile
{
    version     2.0;
    format      ascii;
    class       volScalarField;
    location    "0.115";
    object      nut;
}
// * * * * * * * * * * * * * * * * * * * * * * * * * * * * * * * * * * * * * //

dimensions      [0 2 -1 0 0 0 0];

internalField   nonuniform List<scalar> 
6820
(
4.96025e-05
5.47044e-05
5.94497e-05
6.37668e-05
6.76167e-05
7.09778e-05
7.38484e-05
7.62464e-05
7.82041e-05
7.97631e-05
8.09699e-05
8.18721e-05
8.2516e-05
8.29444e-05
8.3196e-05
8.33049e-05
8.33003e-05
8.32072e-05
8.30464e-05
8.2835e-05
8.25872e-05
8.23142e-05
8.20252e-05
8.17274e-05
8.14264e-05
8.11268e-05
8.08315e-05
8.05437e-05
8.02617e-05
8.00026e-05
7.96886e-05
7.96956e-05
7.81988e-05
0.000540295
0.000304976
0.000219967
0.000171567
0.00014053
0.000119668
0.000105143
9.47595e-05
8.71953e-05
8.16137e-05
7.74646e-05
7.43745e-05
7.20825e-05
7.04027e-05
6.91997e-05
6.83732e-05
6.78475e-05
6.75651e-05
6.7481e-05
6.75602e-05
6.77746e-05
6.81015e-05
6.85223e-05
6.90217e-05
6.95866e-05
7.02061e-05
7.08703e-05
7.15704e-05
7.2299e-05
7.30442e-05
7.38021e-05
7.45438e-05
7.51895e-05
0.00105857
0.000836084
0.000679232
0.000569607
0.000490046
0.000430109
0.000383694
0.000346849
0.00031695
0.000292236
0.000271492
0.000253856
0.0002387
0.000225558
0.000214072
0.000203968
0.000195027
0.000187077
0.000179976
0.000173611
0.000167885
0.00016272
0.000158048
0.000153814
0.000149969
0.000146472
0.000143287
0.000140383
0.000137734
0.000135319
0.000133104
0.000131128
0.000129107
0.00115953
0.00109653
0.00101166
0.000926408
0.000849798
0.000783603
0.000727044
0.000678709
0.000637183
0.000601244
0.000569888
0.000542313
0.000517879
0.000496076
0.000476497
0.000458814
0.000442761
0.00042812
0.00041471
0.000402381
0.000391008
0.000380482
0.000370713
0.000361623
0.000353143
0.000345216
0.000337792
0.000330828
0.000324289
0.000318144
0.000312381
0.00030697
0.000301949
0.00116966
0.00115863
0.00113363
0.00109757
0.00105569
0.0010122
0.00096967
0.000929413
0.000891972
0.000857472
0.000825821
0.000796831
0.000770273
0.000745917
0.000723539
0.000702938
0.00068393
0.000666351
0.000650059
0.000634923
0.000620833
0.000607688
0.000595399
0.00058389
0.000573089
0.000562935
0.000553373
0.000544355
0.000535836
0.000527778
0.000520152
0.000512929
0.000506094
0.00117006
0.00116839
0.00116306
0.00115261
0.00113713
0.00111768
0.00109554
0.00107192
0.00104773
0.00102361
0.00100002
0.000977215
0.000955355
0.00093452
0.000914736
0.000895997
0.000878276
0.000861532
0.000845717
0.000830779
0.000816668
0.000803332
0.000790721
0.000778788
0.000767487
0.000756777
0.000746618
0.000736973
0.000727808
0.000719093
0.000710799
0.000702907
0.000695395
0.00116996
0.00116938
0.00116821
0.00116569
0.00116123
0.00115458
0.00114584
0.00113528
0.00112329
0.00111025
0.00109651
0.00108237
0.00106806
0.00105377
0.00103965
0.00102578
0.00101225
0.000999112
0.000986388
0.000974101
0.000962261
0.00095087
0.000939922
0.000929411
0.000919323
0.000909648
0.000900369
0.000891472
0.000882942
0.000874764
0.000866924
0.000859414
0.000852219
0.00116994
0.0011694
0.00116883
0.00116803
0.00116674
0.00116472
0.0011618
0.00115791
0.00115305
0.00114729
0.00114075
0.00113356
0.00112584
0.00111773
0.00110933
0.00110075
0.00109207
0.00108335
0.00107467
0.00106606
0.00105756
0.00104921
0.00104102
0.00103301
0.0010252
0.00101759
0.00101019
0.00100301
0.000996042
0.000989289
0.00098275
0.000976427
0.000970318
0.00116994
0.00116939
0.00116886
0.00116832
0.0011677
0.00116692
0.00116588
0.00116449
0.00116269
0.00116044
0.00115772
0.00115456
0.00115099
0.00114703
0.00114275
0.00113818
0.00113338
0.00112839
0.00112326
0.00111803
0.00111272
0.00110738
0.00110202
0.00109667
0.00109135
0.00108609
0.00108088
0.00107575
0.0010707
0.00106574
0.00106088
0.00105613
0.00105149
0.00116994
0.00116938
0.00116885
0.00116833
0.00116782
0.00116729
0.00116671
0.00116605
0.00116526
0.00116432
0.00116319
0.00116186
0.00116031
0.00115854
0.00115655
0.00115437
0.00115199
0.00114945
0.00114675
0.00114392
0.00114097
0.00113793
0.0011348
0.00113162
0.00112839
0.00112513
0.00112186
0.00111857
0.00111529
0.00111202
0.00110878
0.00110556
0.00110239
0.00116994
0.00116938
0.00116884
0.00116832
0.00116782
0.00116732
0.00116683
0.00116634
0.00116582
0.00116527
0.00116467
0.001164
0.00116325
0.0011624
0.00116147
0.00116043
0.00115929
0.00115805
0.0011567
0.00115527
0.00115375
0.00115215
0.00115047
0.00114873
0.00114694
0.00114509
0.00114321
0.00114129
0.00113934
0.00113737
0.0011354
0.00113341
0.00113143
0.00116994
0.00116938
0.00116884
0.00116832
0.00116781
0.00116732
0.00116684
0.00116637
0.00116591
0.00116545
0.00116499
0.00116452
0.00116403
0.00116351
0.00116297
0.00116239
0.00116177
0.0011611
0.0011604
0.00115964
0.00115884
0.001158
0.00115711
0.00115618
0.00115522
0.00115421
0.00115318
0.00115211
0.00115101
0.0011499
0.00114876
0.00114761
0.00114645
0.00116994
0.00116938
0.00116884
0.00116832
0.00116781
0.00116732
0.00116684
0.00116637
0.00116592
0.00116547
0.00116504
0.00116461
0.00116419
0.00116377
0.00116335
0.00116292
0.00116249
0.00116204
0.00116158
0.00116111
0.00116063
0.00116012
0.0011596
0.00115906
0.0011585
0.00115792
0.00115733
0.00115672
0.0011561
0.00115546
0.00115481
0.00115414
0.00115347
0.00116994
0.00116938
0.00116884
0.00116832
0.00116781
0.00116731
0.00116683
0.00116637
0.00116591
0.00116547
0.00116504
0.00116462
0.00116422
0.00116382
0.00116343
0.00116304
0.00116266
0.00116228
0.00116191
0.00116154
0.00116116
0.00116079
0.00116041
0.00116003
0.00115965
0.00115926
0.00115887
0.00115847
0.00115807
0.00115766
0.00115725
0.00115684
0.00115642
0.00116994
0.00116938
0.00116884
0.00116832
0.00116781
0.00116731
0.00116683
0.00116636
0.00116591
0.00116547
0.00116504
0.00116462
0.00116421
0.00116382
0.00116343
0.00116306
0.00116269
0.00116233
0.00116198
0.00116164
0.0011613
0.00116097
0.00116064
0.00116032
0.00116
0.00115968
0.00115937
0.00115905
0.00115875
0.00115844
0.00115813
0.00115783
0.00115753
0.00116994
0.00116938
0.00116884
0.00116831
0.0011678
0.00116731
0.00116683
0.00116636
0.0011659
0.00116546
0.00116503
0.00116461
0.00116421
0.00116381
0.00116343
0.00116305
0.00116269
0.00116233
0.00116199
0.00116165
0.00116132
0.001161
0.00116069
0.00116038
0.00116008
0.00115979
0.0011595
0.00115922
0.00115894
0.00115867
0.00115841
0.00115815
0.00115789
0.00116994
0.00116938
0.00116884
0.00116831
0.0011678
0.00116731
0.00116683
0.00116636
0.0011659
0.00116546
0.00116503
0.00116461
0.0011642
0.00116381
0.00116342
0.00116305
0.00116268
0.00116233
0.00116198
0.00116164
0.00116132
0.001161
0.00116069
0.00116038
0.00116009
0.0011598
0.00115952
0.00115925
0.00115898
0.00115872
0.00115847
0.00115822
0.00115798
0.00116994
0.00116938
0.00116884
0.00116831
0.0011678
0.00116731
0.00116682
0.00116635
0.0011659
0.00116546
0.00116502
0.00116461
0.0011642
0.0011638
0.00116342
0.00116304
0.00116267
0.00116232
0.00116197
0.00116164
0.00116131
0.00116099
0.00116068
0.00116038
0.00116008
0.0011598
0.00115952
0.00115925
0.00115898
0.00115873
0.00115848
0.00115823
0.001158
0.00116994
0.00116938
0.00116884
0.00116831
0.0011678
0.0011673
0.00116682
0.00116635
0.0011659
0.00116545
0.00116502
0.0011646
0.00116419
0.0011638
0.00116341
0.00116303
0.00116267
0.00116231
0.00116197
0.00116163
0.0011613
0.00116098
0.00116067
0.00116037
0.00116007
0.00115978
0.00115951
0.00115923
0.00115897
0.00115871
0.00115846
0.00115822
0.00115798
0.00116994
0.00116938
0.00116884
0.00116831
0.0011678
0.0011673
0.00116682
0.00116635
0.00116589
0.00116545
0.00116502
0.0011646
0.00116419
0.00116379
0.00116341
0.00116303
0.00116266
0.00116231
0.00116196
0.00116162
0.00116129
0.00116097
0.00116066
0.00116036
0.00116006
0.00115977
0.00115949
0.00115922
0.00115896
0.0011587
0.00115845
0.0011582
0.00115797
0.00116994
0.00116938
0.00116884
0.00116831
0.0011678
0.0011673
0.00116682
0.00116635
0.00116589
0.00116545
0.00116502
0.0011646
0.00116419
0.00116379
0.0011634
0.00116302
0.00116266
0.0011623
0.00116195
0.00116161
0.00116128
0.00116096
0.00116065
0.00116035
0.00116005
0.00115976
0.00115948
0.00115921
0.00115894
0.00115868
0.00115843
0.00115819
0.00115795
0.00116994
0.00116938
0.00116884
0.00116831
0.0011678
0.0011673
0.00116682
0.00116635
0.00116589
0.00116545
0.00116501
0.00116459
0.00116418
0.00116379
0.0011634
0.00116302
0.00116265
0.00116229
0.00116195
0.00116161
0.00116128
0.00116096
0.00116064
0.00116034
0.00116004
0.00115975
0.00115947
0.0011592
0.00115893
0.00115867
0.00115842
0.00115817
0.00115793
0.00116994
0.00116938
0.00116884
0.00116831
0.0011678
0.0011673
0.00116682
0.00116635
0.00116589
0.00116545
0.00116501
0.00116459
0.00116418
0.00116378
0.00116339
0.00116302
0.00116265
0.00116229
0.00116194
0.0011616
0.00116127
0.00116095
0.00116063
0.00116033
0.00116003
0.00115974
0.00115946
0.00115918
0.00115892
0.00115866
0.0011584
0.00115816
0.00115792
0.00116994
0.00116938
0.00116884
0.00116831
0.0011678
0.0011673
0.00116682
0.00116635
0.00116589
0.00116544
0.00116501
0.00116459
0.00116418
0.00116378
0.00116339
0.00116301
0.00116264
0.00116229
0.00116194
0.0011616
0.00116127
0.00116094
0.00116063
0.00116032
0.00116002
0.00115973
0.00115945
0.00115917
0.00115891
0.00115864
0.00115839
0.00115814
0.0011579
0.00116994
0.00116938
0.00116884
0.00116831
0.0011678
0.0011673
0.00116682
0.00116635
0.00116589
0.00116544
0.00116501
0.00116459
0.00116418
0.00116378
0.00116339
0.00116301
0.00116264
0.00116228
0.00116193
0.00116159
0.00116126
0.00116094
0.00116062
0.00116031
0.00116002
0.00115972
0.00115944
0.00115916
0.0011589
0.00115863
0.00115838
0.00115813
0.00115789
0.00116994
0.00116938
0.00116884
0.00116831
0.0011678
0.0011673
0.00116682
0.00116635
0.00116589
0.00116544
0.00116501
0.00116459
0.00116418
0.00116378
0.00116339
0.00116301
0.00116264
0.00116228
0.00116193
0.00116159
0.00116125
0.00116093
0.00116062
0.00116031
0.00116001
0.00115972
0.00115943
0.00115916
0.00115889
0.00115862
0.00115837
0.00115812
0.00115787
0.00116994
0.00116938
0.00116884
0.00116831
0.0011678
0.0011673
0.00116682
0.00116635
0.00116589
0.00116544
0.00116501
0.00116459
0.00116417
0.00116377
0.00116338
0.00116301
0.00116264
0.00116228
0.00116193
0.00116158
0.00116125
0.00116093
0.00116061
0.0011603
0.00116
0.00115971
0.00115943
0.00115915
0.00115888
0.00115861
0.00115836
0.0011581
0.00115786
0.00116994
0.00116938
0.00116884
0.00116831
0.0011678
0.0011673
0.00116682
0.00116635
0.00116589
0.00116544
0.00116501
0.00116458
0.00116417
0.00116377
0.00116338
0.001163
0.00116263
0.00116227
0.00116192
0.00116158
0.00116125
0.00116092
0.00116061
0.0011603
0.00116
0.0011597
0.00115942
0.00115914
0.00115887
0.0011586
0.00115835
0.00115809
0.00115785
0.00116994
0.00116938
0.00116884
0.00116831
0.0011678
0.0011673
0.00116682
0.00116634
0.00116589
0.00116544
0.00116501
0.00116458
0.00116417
0.00116377
0.00116338
0.001163
0.00116263
0.00116227
0.00116192
0.00116158
0.00116124
0.00116092
0.0011606
0.00116029
0.00115999
0.0011597
0.00115941
0.00115913
0.00115886
0.0011586
0.00115834
0.00115809
0.00115784
0.00116994
0.00116938
0.00116884
0.00116831
0.0011678
0.0011673
0.00116682
0.00116635
0.00116589
0.00116544
0.00116501
0.00116459
0.00116417
0.00116377
0.00116338
0.001163
0.00116263
0.00116227
0.00116192
0.00116158
0.00116124
0.00116092
0.0011606
0.00116029
0.00115999
0.0011597
0.00115941
0.00115913
0.00115886
0.00115859
0.00115833
0.00115808
0.00115783
0.00116994
0.00116938
0.00116884
0.00116831
0.0011678
0.0011673
0.00116682
0.00116635
0.00116589
0.00116544
0.00116501
0.00116459
0.00116418
0.00116377
0.00116338
0.00116301
0.00116263
0.00116227
0.00116192
0.00116158
0.00116125
0.00116092
0.0011606
0.00116029
0.00115999
0.0011597
0.00115941
0.00115913
0.00115885
0.00115858
0.00115832
0.00115807
0.00115782
0.00116994
0.00116938
0.00116884
0.00116831
0.0011678
0.00116731
0.00116682
0.00116635
0.0011659
0.00116545
0.00116502
0.0011646
0.00116418
0.00116378
0.00116339
0.00116301
0.00116264
0.00116228
0.00116193
0.00116158
0.00116125
0.00116092
0.0011606
0.00116028
0.00115998
0.00115968
0.00115938
0.0011591
0.00115882
0.00115854
0.00115827
0.00115801
0.00115775
0.00116994
0.00116938
0.00116884
0.00116832
0.00116781
0.00116731
0.00116683
0.00116636
0.0011659
0.00116546
0.00116502
0.0011646
0.00116419
0.00116379
0.0011634
0.00116301
0.00116263
0.00116226
0.0011619
0.00116155
0.0011612
0.00116085
0.00116052
0.00116018
0.00115985
0.00115953
0.00115921
0.00115889
0.00115858
0.00115827
0.00115797
0.00115766
0.00115736
0.00116994
0.00116938
0.00116884
0.00116833
0.00116782
0.00116733
0.00116685
0.00116639
0.00116593
0.00116548
0.00116503
0.00116459
0.00116416
0.00116373
0.00116331
0.00116288
0.00116246
0.00116204
0.00116161
0.00116119
0.00116076
0.00116033
0.0011599
0.00115946
0.00115902
0.00115858
0.00115814
0.00115769
0.00115724
0.00115678
0.00115632
0.00115586
0.0011554
0.00116994
0.00116939
0.00116886
0.00116835
0.00116784
0.00116733
0.00116683
0.00116632
0.00116581
0.00116528
0.00116473
0.00116417
0.00116358
0.00116297
0.00116233
0.00116166
0.00116097
0.00116024
0.00115949
0.00115871
0.0011579
0.00115707
0.00115621
0.00115533
0.00115442
0.0011535
0.00115255
0.00115159
0.00115062
0.00114963
0.00114862
0.00114761
0.00114659
0.00116995
0.0011694
0.00116886
0.00116828
0.00116765
0.00116694
0.00116613
0.00116519
0.00116414
0.00116295
0.00116163
0.00116018
0.0011586
0.0011569
0.00115508
0.00115316
0.00115114
0.00114902
0.00114683
0.00114457
0.00114224
0.00113986
0.00113744
0.00113498
0.00113249
0.00112998
0.00112745
0.00112491
0.00112236
0.00111981
0.00111727
0.00111474
0.00111222
0.00116996
0.00116916
0.00116786
0.00116595
0.00116344
0.00116031
0.00115658
0.00115229
0.0011475
0.00114226
0.00113663
0.00113069
0.00112449
0.00111809
0.00111154
0.00110488
0.00109816
0.00109141
0.00108466
0.00107794
0.00107127
0.00106466
0.00105813
0.0010517
0.00104537
0.00103915
0.00103305
0.00102708
0.00102123
0.00101551
0.00100992
0.00100446
0.000999134
0.00116831
0.00115866
0.00114501
0.00112846
0.00110973
0.00108952
0.00106849
0.00104716
0.0010259
0.00100499
0.000984611
0.000964888
0.00094589
0.000927653
0.000910191
0.000893499
0.000877561
0.000862353
0.000847848
0.000834014
0.00082082
0.000808233
0.000796223
0.000784757
0.000773808
0.000763345
0.000753344
0.000743777
0.000734622
0.000725855
0.000717456
0.000709405
0.00070168
0.00107567
0.000936194
0.000835601
0.000756857
0.000692038
0.000638268
0.000593341
0.000555429
0.000523093
0.000495228
0.000470987
0.000449718
0.000430914
0.000414177
0.000399189
0.000385698
0.000373496
0.000362414
0.00035231
0.000343067
0.000334586
0.000326781
0.000319581
0.000312922
0.000306751
0.00030102
0.000295687
0.000290718
0.000286078
0.00028174
0.000277678
0.00027387
0.000270293
0.000142979
0.000146644
0.000150174
0.000153551
0.000156773
0.000159846
0.000162775
0.000165566
0.000168224
0.000170754
0.00017316
0.000175448
0.000177623
0.000179689
0.00018165
0.000183513
0.00018528
0.000186956
0.000188546
0.000190053
0.000191482
0.000192837
0.00019412
0.000195335
0.000196487
0.000197577
0.00019861
0.000199587
0.000200513
0.000201389
0.000202218
0.000203002
0.000203745
9.09338e-05
0.000110665
0.000135939
0.000167422
0.000204243
0.000244245
0.000284926
0.000324227
0.000361053
0.000395294
0.000427525
0.000458574
0.000489165
0.000519707
0.000550299
0.000580857
0.000611291
0.000641614
0.000671986
0.000702666
0.000733947
0.000766077
0.00079922
0.000833443
0.000868722
0.000904964
0.000942022
0.000979708
0.0010178
0.00105606
0.00109421
0.00113199
0.00116912
0.00120535
0.00124047
0.00127427
0.00130663
0.00133743
0.00136664
0.00139424
0.00142026
0.00144475
0.00146777
0.00148938
0.00150959
0.00152838
0.00154563
0.00156112
0.00157448
0.00158522
0.00159266
0.00159602
0.00159434
0.00158663
0.00157183
0.00154897
0.00151727
0.00147627
0.00142607
0.00136755
0.0013027
0.00123504
0.00116989
0.00111442
0.00107691
0.0010646
0.00108022
0.00111937
0.0011715
0.00122523
0.00127321
0.00131325
0.00134635
0.00137453
0.00139953
0.00142256
0.00144433
0.00146527
0.00148563
0.00150564
0.00152551
0.00154544
0.00156564
0.00158629
0.00160753
0.00162939
0.00165184
0.0016747
0.00169771
0.00172054
0.00174279
0.00176411
0.00178415
0.00180264
0.0018194
0.00183432
0.00184734
0.00185857
0.00186751
0.00187779
7.63703e-05
7.85316e-05
8.19924e-05
8.75666e-05
9.61821e-05
0.000108764
0.000126072
0.000148492
0.000175886
0.000207548
0.000242287
0.000278632
0.000315123
0.000350593
0.000384357
0.000416244
0.000446489
0.000475551
0.000503929
0.000532034
0.000560133
0.000588365
0.000616783
0.000645405
0.000674242
0.00070331
0.000732613
0.000762134
0.000791817
0.000821563
0.000851228
0.000880641
0.000909612
0.000937953
0.00096549
0.000992077
0.0010176
0.00104199
0.00106522
0.0010873
0.00110826
0.00112818
0.00114713
0.00116519
0.0011824
0.00119877
0.00121422
0.00122858
0.00124155
0.00125271
0.00126151
0.00126728
0.00126924
0.00126659
0.00125855
0.00124448
0.00122402
0.00119729
0.00116507
0.0011291
0.00109232
0.00105897
0.00103445
0.00102443
0.00103312
0.00106107
0.00110397
0.00115409
0.00120369
0.00124791
0.00128534
0.0013168
0.00134393
0.0013682
0.00139066
0.00141195
0.0014324
0.00145222
0.00147156
0.00149055
0.00150936
0.00152819
0.00154722
0.00156665
0.00158663
0.00160725
0.00162852
0.00165035
0.00167255
0.00169481
0.00171682
0.00173819
0.00175859
0.00177772
0.00179536
0.00181134
0.00182556
0.0018381
0.00184831
0.00186063
0.000127021
0.000124851
0.000122599
0.000120037
0.00011752
0.000115354
0.000113778
0.000113221
0.000114306
0.000117783
0.000124402
0.000134763
0.0001492
0.00016771
0.000189939
0.000215226
0.000242697
0.000271405
0.000300475
0.000329219
0.000357199
0.000384222
0.000410298
0.000435561
0.000460199
0.000484396
0.000508298
0.000531993
0.000555514
0.00057885
0.000601951
0.000624745
0.000647148
0.000669075
0.000690449
0.000711211
0.000731324
0.000750776
0.000769586
0.0007878
0.000805486
0.00082273
0.000839623
0.000856251
0.000872674
0.000888913
0.000904925
0.00092059
0.000935698
0.000949937
0.000962908
0.000974134
0.000983102
0.000989318
0.000992392
0.00099215
0.000988771
0.00098295
0.000976049
0.000970204
0.000968271
0.000973496
0.000988776
0.00101558
0.00105295
0.0010974
0.00114401
0.00118832
0.00122767
0.00126146
0.00129047
0.00131594
0.00133907
0.0013607
0.00138133
0.00140125
0.00142057
0.00143937
0.00145773
0.00147574
0.00149355
0.0015113
0.00152919
0.00154741
0.00156611
0.00158544
0.00160544
0.00162609
0.00164726
0.00166873
0.00169021
0.00171136
0.00173185
0.00175137
0.00176965
0.00178651
0.00180178
0.00181552
0.00182691
0.0018412
0.000296462
0.000290296
0.000284046
0.000277566
0.000270693
0.000263731
0.000256554
0.000248965
0.000240806
0.000232037
0.000222817
0.000213537
0.000204798
0.000197322
0.000191825
0.000188906
0.000188973
0.000192211
0.00019859
0.000207896
0.000219773
0.000233781
0.000249443
0.000266296
0.000283933
0.000302021
0.000320312
0.000338641
0.000356906
0.000375057
0.000393073
0.000410949
0.000428691
0.000446307
0.000463811
0.000481223
0.000498571
0.000515896
0.000533251
0.000550698
0.000568308
0.000586153
0.000604302
0.000622812
0.000641716
0.000661019
0.000680687
0.000700641
0.000720753
0.000740851
0.00076073
0.000780168
0.000798966
0.000816987
0.000834224
0.00085087
0.00086739
0.000884571
0.000903512
0.000925509
0.000951794
0.000983134
0.00101941
0.00105939
0.00110092
0.00114148
0.00117905
0.00121254
0.00124189
0.00126775
0.00129103
0.00131259
0.00133306
0.0013528
0.00137201
0.00139075
0.00140903
0.00142686
0.00144427
0.00146134
0.00147816
0.00149489
0.00151168
0.00152872
0.00154617
0.00156419
0.00158287
0.00160223
0.00162221
0.00164267
0.00166337
0.00168402
0.00170432
0.00172395
0.00174262
0.00176013
0.00177626
0.00179104
0.00180347
0.00181962
0.0004986
0.000490411
0.000482455
0.000474659
0.000466914
0.000459172
0.000451435
0.000443603
0.000435538
0.000427089
0.000418108
0.000408474
0.000398123
0.000387071
0.000375446
0.000363495
0.000351573
0.000340117
0.000329585
0.000320412
0.000312954
0.000307467
0.000304092
0.00030287
0.000303753
0.000306631
0.000311352
0.000317747
0.000325645
0.000334885
0.000345329
0.000356861
0.000369392
0.000382857
0.000397208
0.000412417
0.000428462
0.000445329
0.000463006
0.000481479
0.000500726
0.000520722
0.000541431
0.000562809
0.000584807
0.000607368
0.000630433
0.000653942
0.00067784
0.00070208
0.00072663
0.000751478
0.000776649
0.000802211
0.000828288
0.000855074
0.000882826
0.000911833
0.000942355
0.000974519
0.00100821
0.00104295
0.00107795
0.00111219
0.00114466
0.00117462
0.00120179
0.0012263
0.00124863
0.00126935
0.00128902
0.00130803
0.00132662
0.00134491
0.0013629
0.00138056
0.00139784
0.00141472
0.00143121
0.00144735
0.00146323
0.00147897
0.00149471
0.00151062
0.00152687
0.0015436
0.00156095
0.00157896
0.00159765
0.00161693
0.00163664
0.00165653
0.00167635
0.0016958
0.00171459
0.00173248
0.00174923
0.00176485
0.00177817
0.00179602
0.000687112
0.000678051
0.000669291
0.000660814
0.000652563
0.000644507
0.000636602
0.000628806
0.000621076
0.000613368
0.000605634
0.000597827
0.000589899
0.000581806
0.000573517
0.000565023
0.000556346
0.000547548
0.000538735
0.000530059
0.000521703
0.000513878
0.000506801
0.000500685
0.000495725
0.000492089
0.00048991
0.000489287
0.000490284
0.000492935
0.000497245
0.0005032
0.000510765
0.000519892
0.000530519
0.000542573
0.000555972
0.000570623
0.000586422
0.000603261
0.000621024
0.000639592
0.000658848
0.00067868
0.000698983
0.00071967
0.000740669
0.000761932
0.000783438
0.00080519
0.000827222
0.000849587
0.000872359
0.000895621
0.000919455
0.000943925
0.00096906
0.000994831
0.00102113
0.00104773
0.00107433
0.00110053
0.00112589
0.00115005
0.00117278
0.00119402
0.00121391
0.00123273
0.00125078
0.00126837
0.00128573
0.00130297
0.00132014
0.0013372
0.00135408
0.00137071
0.00138703
0.00140298
0.00141856
0.0014338
0.00144877
0.00146356
0.00147831
0.00149315
0.00150825
0.00152375
0.00153978
0.00155644
0.00157378
0.00159176
0.0016103
0.00162922
0.00164829
0.00166728
0.00168589
0.00170389
0.001721
0.00173723
0.00175123
0.00177055
0.000844225
0.000835404
0.000826805
0.000818429
0.000810253
0.000802273
0.000794474
0.00078684
0.00077936
0.000772028
0.000764844
0.000757812
0.000750941
0.00074424
0.000737715
0.000731376
0.000725233
0.000719302
0.000713607
0.000708184
0.000703084
0.000698375
0.000694139
0.000690468
0.000687467
0.000685241
0.000683896
0.000683532
0.000684237
0.000686087
0.00068914
0.000693435
0.000698988
0.000705799
0.000713842
0.000723073
0.000733429
0.000744829
0.000757179
0.000770373
0.000784301
0.000798848
0.000813901
0.000829355
0.000845112
0.000861091
0.000877226
0.000893473
0.000909808
0.00092623
0.000942758
0.000959426
0.00097628
0.000993369
0.00101073
0.00102839
0.00104633
0.0010645
0.00108281
0.00110113
0.00111929
0.00113715
0.00115457
0.00117148
0.00118787
0.00120384
0.0012195
0.00123502
0.00125053
0.00126614
0.0012819
0.00129779
0.00131376
0.00132972
0.00134557
0.00136122
0.00137658
0.00139162
0.00140632
0.00142069
0.00143478
0.00144867
0.00146248
0.00147632
0.00149033
0.00150465
0.00151943
0.00153476
0.00155073
0.00156736
0.00158461
0.00160237
0.00162049
0.00163874
0.00165689
0.0016747
0.00169189
0.00170847
0.00172292
0.00174345
0.000963461
0.000955805
0.000948247
0.0009408
0.00093347
0.000926263
0.000919179
0.000912217
0.000905381
0.000898681
0.000892132
0.000885756
0.000879578
0.000873625
0.000867927
0.000862513
0.000857412
0.000852651
0.000848255
0.000844251
0.000840665
0.00083753
0.000834877
0.000832745
0.000831176
0.000830215
0.000829909
0.000830306
0.000831449
0.000833379
0.00083613
0.000839725
0.000844177
0.000849487
0.000855639
0.000862607
0.00087035
0.000878811
0.000887928
0.000897626
0.000907826
0.000918447
0.000929408
0.000940633
0.000952051
0.0009636
0.000975232
0.00098691
0.000998611
0.00101033
0.00102207
0.00103384
0.00104567
0.0010576
0.00106964
0.00108181
0.00109411
0.00110656
0.00111911
0.00113174
0.00114442
0.00115713
0.00116986
0.00118262
0.00119548
0.00120849
0.00122173
0.00123527
0.00124915
0.00126336
0.00127788
0.00129263
0.00130753
0.00132247
0.00133734
0.00135204
0.0013665
0.00138066
0.0013945
0.00140802
0.00142127
0.00143431
0.00144722
0.00146012
0.00147312
0.00148635
0.00149993
0.00151399
0.00152862
0.00154388
0.00155978
0.00157626
0.00159323
0.00161053
0.00162796
0.0016453
0.00166228
0.00167892
0.00169357
0.00171497
0.00104622
0.00104026
0.0010343
0.00102835
0.00102242
0.00101651
0.00101065
0.00100484
0.00099909
0.000993415
0.000987834
0.000982372
0.000977054
0.00097191
0.000966973
0.000962275
0.000957849
0.000953727
0.000949939
0.000946514
0.000943478
0.000940858
0.000938677
0.000936958
0.000935724
0.000934997
0.000934798
0.000935148
0.000936063
0.000937561
0.000939651
0.00094234
0.000945629
0.000949511
0.000953971
0.000958987
0.000964527
0.000970554
0.000977021
0.00098388
0.000991076
0.000998555
0.00100626
0.00101414
0.00102215
0.00103025
0.0010384
0.00104657
0.00105476
0.00106295
0.00107116
0.00107939
0.00108766
0.00109599
0.00110443
0.00111298
0.00112168
0.00113055
0.00113961
0.00114888
0.00115839
0.00116816
0.00117824
0.00118865
0.00119946
0.00121069
0.00122239
0.00123458
0.00124724
0.00126033
0.00127379
0.00128753
0.00130145
0.00131543
0.00132937
0.00134317
0.00135676
0.00137007
0.00138308
0.0013958
0.00140824
0.00142047
0.00143254
0.00144456
0.00145661
0.00146882
0.0014813
0.00149417
0.00150751
0.00152143
0.00153595
0.00155109
0.00156679
0.00158296
0.00159943
0.00161604
0.00163253
0.00164895
0.00166353
0.00168544
0.00109873
0.00109454
0.00109028
0.00108597
0.00108161
0.00107722
0.00107281
0.00106838
0.00106395
0.00105953
0.00105515
0.00105082
0.00104656
0.0010424
0.00103837
0.0010345
0.00103081
0.00102733
0.0010241
0.00102114
0.00101847
0.00101613
0.00101412
0.00101248
0.00101123
0.00101037
0.00100992
0.00100989
0.0010103
0.00101114
0.00101243
0.00101416
0.00101632
0.00101891
0.00102191
0.00102531
0.00102908
0.00103319
0.00103761
0.0010423
0.00104723
0.00105236
0.00105765
0.00106306
0.00106857
0.00107415
0.00107977
0.00108542
0.00109109
0.00109678
0.0011025
0.00110826
0.00111408
0.00112
0.00112604
0.00113223
0.00113862
0.00114525
0.00115214
0.00115936
0.00116693
0.00117491
0.00118334
0.00119226
0.0012017
0.0012117
0.00122227
0.00123339
0.00124503
0.00125715
0.00126966
0.00128247
0.00129547
0.00130856
0.00132163
0.00133458
0.00134734
0.00135985
0.00137208
0.00138402
0.0013957
0.00140715
0.00141844
0.00142963
0.00144081
0.00145207
0.00146353
0.00147528
0.00148742
0.00150005
0.00151323
0.00152701
0.00154138
0.00155629
0.00157164
0.00158729
0.00160304
0.00161894
0.0016332
0.00165521
0.00112911
0.00112641
0.00112363
0.00112078
0.00111785
0.00111486
0.00111181
0.00110871
0.00110557
0.00110241
0.00109923
0.00109606
0.00109291
0.00108979
0.00108673
0.00108376
0.00108089
0.00107815
0.00107555
0.00107313
0.00107091
0.00106891
0.00106714
0.00106563
0.00106439
0.00106343
0.00106278
0.00106243
0.00106241
0.0010627
0.00106332
0.00106427
0.00106553
0.00106711
0.00106899
0.00107116
0.00107359
0.00107628
0.0010792
0.00108231
0.0010856
0.00108905
0.00109261
0.00109628
0.00110002
0.00110382
0.00110767
0.00111156
0.00111548
0.00111944
0.00112345
0.00112752
0.00113169
0.00113597
0.0011404
0.00114503
0.0011499
0.00115504
0.00116052
0.00116638
0.00117266
0.00117942
0.0011867
0.00119454
0.00120296
0.00121199
0.00122162
0.00123184
0.0012426
0.00125384
0.00126548
0.00127743
0.00128959
0.00130184
0.00131409
0.00132624
0.00133822
0.00134998
0.00136147
0.00137269
0.00138364
0.00139436
0.0014049
0.00141532
0.00142568
0.00143608
0.00144659
0.00145732
0.00146835
0.00147978
0.00149168
0.00150412
0.00151714
0.00153073
0.00154483
0.00155936
0.00157414
0.00158929
0.00160297
0.00162467
0.00114507
0.00114345
0.00114176
0.00114
0.00113817
0.00113627
0.00113432
0.0011323
0.00113024
0.00112813
0.001126
0.00112383
0.00112166
0.00111949
0.00111734
0.00111521
0.00111314
0.00111113
0.0011092
0.00110736
0.00110565
0.00110406
0.00110263
0.00110136
0.00110027
0.00109937
0.00109867
0.00109819
0.00109793
0.00109789
0.00109809
0.00109852
0.00109918
0.00110006
0.00110117
0.00110249
0.001104
0.00110571
0.00110758
0.00110961
0.00111177
0.00111405
0.00111643
0.0011189
0.00112143
0.00112402
0.00112667
0.00112935
0.00113209
0.00113488
0.00113773
0.00114067
0.00114372
0.0011469
0.00115026
0.00115384
0.00115767
0.00116181
0.00116631
0.00117122
0.00117659
0.00118246
0.00118889
0.00119589
0.0012035
0.00121172
0.00122056
0.00122998
0.00123995
0.00125039
0.00126124
0.0012724
0.00128377
0.00129525
0.00130674
0.00131815
0.0013294
0.00134045
0.00135124
0.00136177
0.00137204
0.00138208
0.00139192
0.00140161
0.00141122
0.00142082
0.00143047
0.00144026
0.00145027
0.00146059
0.0014713
0.00148247
0.00149417
0.00150643
0.00151922
0.00153251
0.00154617
0.00156035
0.00157323
0.00159423
0.00115267
0.00115172
0.00115072
0.00114967
0.00114857
0.00114742
0.00114622
0.00114497
0.00114368
0.00114235
0.00114099
0.0011396
0.00113818
0.00113676
0.00113533
0.00113391
0.0011325
0.00113112
0.00112978
0.00112849
0.00112726
0.00112611
0.00112504
0.00112407
0.00112321
0.00112248
0.00112187
0.00112141
0.00112109
0.00112092
0.00112092
0.00112107
0.00112139
0.00112186
0.0011225
0.00112329
0.00112422
0.0011253
0.0011265
0.00112782
0.00112924
0.00113076
0.00113237
0.00113404
0.00113578
0.00113757
0.00113942
0.00114131
0.00114326
0.00114528
0.00114737
0.00114956
0.00115186
0.00115432
0.00115696
0.00115983
0.00116297
0.00116642
0.00117024
0.00117447
0.00117917
0.00118438
0.00119014
0.00119648
0.00120342
0.00121097
0.00121912
0.00122784
0.0012371
0.00124683
0.00125695
0.00126739
0.00127803
0.00128879
0.00129957
0.00131029
0.00132086
0.00133124
0.00134138
0.00135126
0.00136089
0.00137029
0.00137947
0.00138849
0.0013974
0.00140625
0.00141512
0.00142405
0.00143314