/*--------------------------------*- C++ -*----------------------------------*\
| =========                 |                                                 |
| \\      /  F ield         | OpenFOAM: The Open Source CFD Toolbox           |
|  \\    /   O peration     | Version:  2.1.1                                 |
|   \\  /    A nd           | Web:      www.OpenFOAM.org                      |
|    \\/     M anipulation  |                                                 |
\*---------------------------------------------------------------------------*/
FoamFile
{
    version     2.0;
    format      ascii;
    class       volScalarField;
    location    "0.115";
    object      p;
}
// * * * * * * * * * * * * * * * * * * * * * * * * * * * * * * * * * * * * * //

dimensions      [0 2 -2 0 0 0 0];

internalField   nonuniform List<scalar> 
6820
(
-11.1529
-12.9993
-13.5745
-13.7028
-13.8103
-13.8902
-13.9454
-13.9927
-14.0362
-14.0763
-14.1139
-14.1496
-14.1838
-14.2166
-14.2481
-14.2785
-14.308
-14.3366
-14.3644
-14.3916
-14.4183
-14.4446
-14.4705
-14.496
-14.5213
-14.5461
-14.5704
-14.5939
-14.6155
-14.6343
-14.6464
-14.645
-14.6202
-15.1054
-14.5708
-14.1486
-13.959
-13.9349
-13.9468
-13.9678
-13.9966
-14.0298
-14.0643
-14.099
-14.1335
-14.1674
-14.2005
-14.2326
-14.2637
-14.294
-14.3234
-14.352
-14.38
-14.4074
-14.4343
-14.4608
-14.487
-14.5129
-14.5386
-14.5638
-14.5889
-14.6133
-14.639
-14.6642
-14.713
-14.7759
-13.4628
-13.1592
-13.446
-13.6914
-13.797
-13.873
-13.9328
-13.983
-14.028
-14.0692
-14.1076
-14.1437
-14.178
-14.2108
-14.2422
-14.2725
-14.3018
-14.3302
-14.3579
-14.385
-14.4116
-14.4378
-14.4637
-14.4894
-14.5149
-14.5403
-14.5656
-14.591
-14.6166
-14.6436
-14.6724
-14.7096
-14.75
-13.9698
-14.0042
-14.0018
-13.9429
-13.9357
-13.9568
-13.9839
-14.0136
-14.0454
-14.0779
-14.1103
-14.1423
-14.1738
-14.2047
-14.2349
-14.2644
-14.2932
-14.3214
-14.3491
-14.3762
-14.403
-14.4295
-14.4556
-14.4817
-14.5076
-14.5335
-14.5596
-14.5861
-14.6133
-14.6427
-14.6746
-14.7166
-14.765
-13.8143
-13.7143
-13.7587
-13.8252
-13.8787
-13.9259
-13.9673
-14.0055
-14.0424
-14.0778
-14.112
-14.1451
-14.1771
-14.2081
-14.2383
-14.2676
-14.2961
-14.324
-14.3512
-14.378
-14.4044
-14.4305
-14.4564
-14.4822
-14.5079
-14.5338
-14.56
-14.5868
-14.6146
-14.6446
-14.6774
-14.7164
-14.7597
-13.8693
-13.8528
-13.8782
-13.9016
-13.9245
-13.9544
-13.9866
-14.0191
-14.0518
-14.0843
-14.1162
-14.1475
-14.1781
-14.208
-14.2372
-14.2657
-14.2937
-14.321
-14.3479
-14.3744
-14.4006
-14.4265
-14.4523
-14.4781
-14.5038
-14.5299
-14.5563
-14.5834
-14.6117
-14.6419
-14.6747
-14.7118
-14.7521
-13.8673
-13.8463
-13.8624
-13.8916
-13.9222
-13.9557
-13.9893
-14.0222
-14.0546
-14.0867
-14.1181
-14.1489
-14.179
-14.2084
-14.2372
-14.2653
-14.2929
-14.32
-14.3466
-14.3728
-14.3987
-14.4244
-14.45
-14.4756
-14.5013
-14.5272
-14.5536
-14.5807
-14.609
-14.6388
-14.6707
-14.7054
-14.7422
-13.8813
-13.8737
-13.8893
-13.9142
-13.9399
-13.9686
-13.9989
-14.0294
-14.0601
-14.0907
-14.1209
-14.1507
-14.1799
-14.2085
-14.2366
-14.2642
-14.2912
-14.3178
-14.344
-14.3699
-14.3955
-14.4209
-14.4463
-14.4717
-14.4972
-14.5229
-14.5492
-14.5761
-14.604
-14.6332
-14.664
-14.6965
-14.7303
-13.8941
-13.8903
-13.9027
-13.9246
-13.949
-13.9764
-14.0054
-14.0348
-14.0644
-14.0939
-14.1232
-14.1521
-14.1805
-14.2085
-14.236
-14.263
-14.2895
-14.3157
-14.3415
-14.367
-14.3923
-14.4174
-14.4424
-14.4675
-14.4928
-14.5183
-14.5442
-14.5707
-14.598
-14.6264
-14.6558
-14.6863
-14.7174
-13.9075
-13.9069
-13.9185
-13.9383
-13.9609
-13.9862
-14.0132
-14.041
-14.0692
-14.0975
-14.1256
-14.1536
-14.1812
-14.2084
-14.2352
-14.2616
-14.2876
-14.3132
-14.3386
-14.3637
-14.3885
-14.4133
-14.438
-14.4627
-14.4876
-14.5127
-14.5382
-14.5641
-14.5907
-14.618
-14.6461
-14.6747
-14.7036
-13.9207
-13.9218
-13.9324
-13.9502
-13.9712
-13.9948
-14.0203
-14.0467
-14.0736
-14.1008
-14.1279
-14.1549
-14.1817
-14.2082
-14.2343
-14.2601
-14.2855
-14.3106
-14.3355
-14.3601
-14.3846
-14.4089
-14.4332
-14.4575
-14.4819
-14.5065
-14.5314
-14.5567
-14.5824
-14.6086
-14.6353
-14.6623
-14.6892
-13.9337
-13.9358
-13.9458
-13.962
-13.9815
-14.0035
-14.0274
-14.0524
-14.0781
-14.1041
-14.1302
-14.1563
-14.1822
-14.2079
-14.2333
-14.2584
-14.2833
-14.3078
-14.3322
-14.3563
-14.3802
-14.4041
-14.4279
-14.4517
-14.4756
-14.4996
-14.5238
-14.5483
-14.5731
-14.5982
-14.6236
-14.649
-14.6743
-13.9463
-13.9488
-13.9582
-13.9731
-13.9911
-14.0117
-14.0342
-14.0579
-14.0824
-14.1073
-14.1324
-14.1575
-14.1826
-14.2075
-14.2322
-14.2566
-14.2809
-14.3048
-14.3286
-14.3522
-14.3756
-14.3989
-14.4222
-14.4454
-14.4687
-14.492
-14.5155
-14.5392
-14.563
-14.587
-14.6111
-14.6351
-14.6588
-13.9582
-13.9609
-13.9698
-13.9835
-14.0003
-14.0196
-14.0408
-14.0632
-14.0865
-14.1103
-14.1344
-14.1586
-14.1828
-14.207
-14.2309
-14.2547
-14.2783
-14.3016
-14.3248
-14.3478
-14.3706
-14.3934
-14.416
-14.4386
-14.4612
-14.4839
-14.5066
-14.5294
-14.5522
-14.575
-14.5979
-14.6205
-14.6429
-13.9695
-13.9722
-13.9806
-13.9933
-14.009
-14.0271
-14.047
-14.0683
-14.0904
-14.1132
-14.1363
-14.1596
-14.183
-14.2063
-14.2295
-14.2526
-14.2754
-14.2982
-14.3207
-14.3431
-14.3653
-14.3874
-14.4094
-14.4314
-14.4533
-14.4751
-14.497
-14.5189
-14.5407
-14.5624
-14.584
-14.6054
-14.6265
-13.9801
-13.9827
-13.9907
-14.0025
-14.0171
-14.0341
-14.0529
-14.073
-14.0941
-14.1158
-14.138
-14.1604
-14.1829
-14.2054
-14.2279
-14.2502
-14.2724
-14.2945
-14.3164
-14.3381
-14.3597
-14.3811
-14.4024
-14.4237
-14.4448
-14.4659
-14.4868
-14.5077
-14.5285
-14.5492
-14.5696
-14.5898
-14.6096
-13.99
-13.9925
-13.9999
-14.011
-14.0247
-14.0406
-14.0583
-14.0774
-14.0975
-14.1182
-14.1394
-14.1609
-14.1826
-14.2043
-14.226
-14.2477
-14.2692
-14.2905
-14.3117
-14.3328
-14.3537
-14.3744
-14.395
-14.4155
-14.4358
-14.456
-14.4761
-14.4961
-14.5158
-14.5354
-14.5547
-14.5737
-14.5923
-13.999
-14.0014
-14.0085
-14.0188
-14.0316
-14.0466
-14.0633
-14.0814
-14.1005
-14.1203
-14.1406
-14.1613
-14.1821
-14.203
-14.224
-14.2448
-14.2656
-14.2863
-14.3068
-14.3271
-14.3473
-14.3673
-14.3872
-14.4068
-14.4264
-14.4457
-14.4649
-14.4838
-14.5026
-14.521
-14.5392
-14.557
-14.5745
-14.0073
-14.0096
-14.0162
-14.0259
-14.0379
-14.052
-14.0679
-14.085
-14.1031
-14.122
-14.1415
-14.1613
-14.1813
-14.2015
-14.2216
-14.2418
-14.2618
-14.2817
-14.3015
-14.3211
-14.3406
-14.3598
-14.3789
-14.3978
-14.4165
-14.4349
-14.4531
-14.4711
-14.4888
-14.5062
-14.5233
-14.54
-14.5563
-14.0148
-14.017
-14.0232
-14.0323
-14.0436
-14.0569
-14.0719
-14.0881
-14.1054
-14.1234
-14.142
-14.161
-14.1802
-14.1996
-14.219
-14.2384
-14.2577
-14.2769
-14.296
-14.3148
-14.3335
-14.352
-14.3703
-14.3883
-14.4061
-14.4237
-14.4409
-14.4579
-14.4746
-14.491
-14.5069
-14.5225
-14.5377
-14.0215
-14.0235
-14.0293
-14.0379
-14.0486
-14.0611
-14.0753
-14.0907
-14.1072
-14.1244
-14.1422
-14.1604
-14.1788
-14.1975
-14.2161
-14.2348
-14.2533
-14.2718
-14.2901
-14.3082
-14.3261
-14.3438
-14.3613
-14.3785
-14.3954
-14.412
-14.4284
-14.4444
-14.46
-14.4753
-14.4902
-14.5047
-14.5187
-14.0273
-14.0292
-14.0347
-14.0428
-14.0528
-14.0647
-14.0781
-14.0928
-14.1085
-14.1249
-14.142
-14.1594
-14.1771
-14.195
-14.2129
-14.2308
-14.2486
-14.2664
-14.2839
-14.3013
-14.3184
-14.3353
-14.3519
-14.3682
-14.3843
-14.4
-14.4154
-14.4304
-14.445
-14.4593
-14.4731
-14.4865
-14.4994
-14.0322
-14.034
-14.0392
-14.0468
-14.0563
-14.0676
-14.0804
-14.0944
-14.1093
-14.125
-14.1413
-14.158
-14.175
-14.1921
-14.2093
-14.2265
-14.2436
-14.2606
-14.2774
-14.294
-14.3104
-14.3265
-14.3422
-14.3577
-14.3729
-14.3877
-14.4021
-14.4161
-14.4298
-14.443
-14.4558
-14.4681
-14.4799
-14.0362
-14.0379
-14.0428
-14.0501
-14.0591
-14.0698
-14.0819
-14.0952
-14.1095
-14.1245
-14.1401
-14.1562
-14.1724
-14.1889
-14.2054
-14.2219
-14.2383
-14.2545
-14.2706
-14.2864
-14.302
-14.3173
-14.3322
-14.3469
-14.3611
-14.375
-14.3885
-14.4016
-14.4142
-14.4264
-14.4382
-14.4494
-14.4602
-14.0394
-14.041
-14.0456
-14.0525
-14.061
-14.0712
-14.0828
-14.0956
-14.1093
-14.1237
-14.1386
-14.154
-14.1696
-14.1854
-14.2012
-14.217
-14.2327
-14.2483
-14.2636
-14.2787
-14.2935
-14.3079
-14.3221
-14.3359
-14.3492
-14.3622
-14.3748
-14.3869
-14.3986
-14.4097
-14.4204
-14.4307
-14.4404
-14.0415
-14.0431
-14.0474
-14.0539
-14.062
-14.0717
-14.0828
-14.095
-14.1081
-14.1219
-14.1363
-14.151
-14.1661
-14.1812
-14.1964
-14.2116
-14.2266
-14.2414
-14.2561
-14.2704
-14.2845
-14.2982
-14.3115
-14.3245
-14.337
-14.3491
-14.3608
-14.3719
-14.3826
-14.3928
-14.4026
-14.4117
-14.4204
-14.0428
-14.0442
-14.0484
-14.0547
-14.0624
-14.0718
-14.0825
-14.0943
-14.1069
-14.1203
-14.1341
-14.1483
-14.1627
-14.1773
-14.1918
-14.2063
-14.2207
-14.2349
-14.2488
-14.2624
-14.2757
-14.2886
-14.3011
-14.3133
-14.3249
-14.3361
-14.3469
-14.3571
-14.3669
-14.3761
-14.3849
-14.393
-14.4007
-14.0429
-14.0442
-14.048
-14.0537
-14.0611
-14.0699
-14.0801
-14.0914
-14.1036
-14.1165
-14.1299
-14.1437
-14.1577
-14.1717
-14.1858
-14.1997
-14.2135
-14.2271
-14.2404
-14.2534
-14.266
-14.2782
-14.29
-14.3014
-14.3123
-14.3227
-14.3326
-14.342
-14.3508
-14.3592
-14.3669
-14.3742
-14.3809
-14.0422
-14.0437
-14.0476
-14.0535
-14.0608
-14.0696
-14.0796
-14.0906
-14.1025
-14.115
-14.1279
-14.1411
-14.1545
-14.168
-14.1815
-14.1948
-14.2079
-14.2208
-14.2334
-14.2456
-14.2575
-14.2689
-14.2799
-14.2904
-14.3005
-14.31
-14.3191
-14.3275
-14.3355
-14.3429
-14.3497
-14.356
-14.3617
-14.0399
-14.0405
-14.0433
-14.048
-14.0546
-14.0628
-14.0725
-14.0833
-14.0951
-14.1074
-14.1203
-14.1334
-14.1467
-14.1599
-14.1732
-14.1862
-14.199
-14.2115
-14.2237
-14.2355
-14.2468
-14.2577
-14.2681
-14.278
-14.2874
-14.2963
-14.3046
-14.3123
-14.3195
-14.3261
-14.3321
-14.3376
-14.3424
-14.0383
-14.0407
-14.045
-14.0507
-14.0578
-14.0661
-14.0755
-14.0859
-14.0971
-14.1088
-14.1209
-14.1333
-14.1458
-14.1583
-14.1707
-14.1829
-14.1949
-14.2066
-14.218
-14.2289
-14.2394
-14.2495
-14.2591
-14.2681
-14.2766
-14.2846
-14.2921
-14.2989
-14.3052
-14.3109
-14.316
-14.3205
-14.3244
-14.0302
-14.0282
-14.0283
-14.0316
-14.0379
-14.0464
-14.0565
-14.0678
-14.08
-14.0927
-14.1058
-14.119
-14.1321
-14.1452
-14.158
-14.1706
-14.1828
-14.1946
-14.2059
-14.2168
-14.2271
-14.237
-14.2462
-14.2549
-14.263
-14.2706
-14.2775
-14.2838
-14.2895
-14.2946
-14.299
-14.3029
-14.3061
-14.0365
-14.0428
-14.0484
-14.0531
-14.0586
-14.0656
-14.0738
-14.0831
-14.0932
-14.1039
-14.115
-14.1264
-14.1378
-14.1493
-14.1607
-14.1718
-14.1827
-14.1932
-14.2034
-14.2131
-14.2224
-14.2311
-14.2394
-14.2471
-14.2542
-14.2608
-14.2668
-14.2721
-14.2769
-14.2811
-14.2846
-14.2876
-14.2899
-14.0048
-13.9914
-13.9864
-13.991
-14.0005
-14.0125
-14.0259
-14.0401
-14.0548
-14.0697
-14.0844
-14.0989
-14.113
-14.1267
-14.1399
-14.1526
-14.1648
-14.1764
-14.1874
-14.1977
-14.2075
-14.2166
-14.225
-14.2328
-14.24
-14.2465
-14.2523
-14.2575
-14.2619
-14.2658
-14.2689
-14.2714
-14.2733
-14.0574
-14.0775
-14.0813
-14.0763
-14.0737
-14.0755
-14.0801
-14.0865
-14.0942
-14.1029
-14.1123
-14.1221
-14.1322
-14.1423
-14.1524
-14.1623
-14.172
-14.1814
-14.1903
-14.1989
-14.207
-14.2145
-14.2216
-14.228
-14.2339
-14.2392
-14.2439
-14.248
-14.2515
-14.2543
-14.2565
-14.2581
-14.2591
-13.9346
-13.8851
-13.8732
-13.8994
-13.9264
-13.9499
-13.973
-13.9953
-14.0164
-14.0362
-14.0549
-14.0726
-14.0891
-14.1047
-14.1193
-14.133
-14.1459
-14.1579
-14.1691
-14.1795
-14.1891
-14.198
-14.206
-14.2133
-14.2199
-14.2257
-14.2307
-14.2351
-14.2387
-14.2416
-14.2438
-14.2453
-14.246
-14.1821
-14.2167
-14.1855
-14.1422
-14.1131
-14.1018
-14.0984
-14.0984
-14.1013
-14.1064
-14.1129
-14.1204
-14.1284
-14.1368
-14.1454
-14.1539
-14.1623
-14.1704
-14.1782
-14.1856
-14.1926
-14.1992
-14.2051
-14.2106
-14.2155
-14.2198
-14.2235
-14.2265
-14.229
-14.2308
-14.232
-14.2327
-14.2327
-13.6897
-13.57
-13.6322
-13.7335
-13.807
-13.8578
-13.9007
-13.938
-13.9703
-13.9985
-14.0235
-14.0459
-14.0661
-14.0845
-14.1012
-14.1166
-14.1306
-14.1434
-14.1552
-14.1659
-14.1757
-14.1845
-14.1924
-14.1995
-14.2057
-14.211
-14.2156
-14.2194
-14.2224
-14.2247
-14.2261
-14.2269
-14.2269
-14.9039
-14.5648
-14.3009
-14.1832
-14.1328
-14.107
-14.0912
-14.0842
-14.0834
-14.0863
-14.0916
-14.0985
-14.1064
-14.1149
-14.1236
-14.1323
-14.141
-14.1494
-14.1574
-14.165
-14.1721
-14.1788
-14.1848
-14.1903
-14.1952
-14.1994
-14.203
-14.2059
-14.2082
-14.2099
-14.2109
-14.2112
-14.2109
-12.4001
-13.1066
-13.5109
-13.6629
-13.767
-13.8487
-13.9074
-13.9515
-13.987
-14.0162
-14.0407
-14.0618
-14.0804
-14.097
-14.1119
-14.1254
-14.1377
-14.149
-14.1592
-14.1685
-14.1769
-14.1845
-14.1913
-14.1972
-14.2024
-14.2068
-14.2104
-14.2133
-14.2154
-14.2168
-14.2175
-14.2175
-14.2167
-14.5171
-14.7442
-14.8989
-14.9846
-15.0354
-15.0697
-15.1014
-15.1427
-15.2014
-15.2786
-15.3722
-15.4792
-15.5951
-15.7151
-15.8344
-15.9487
-16.0545
-16.149
-16.2302
-16.2967
-16.3476
-16.3824
-16.401
-16.4033
-16.3893
-16.3589
-16.3117
-16.2475
-16.1657
-16.0659
-15.9473
-15.8094
-15.6519
-15.4742
-15.2762
-15.0579
-14.8195
-14.5616
-14.2849
-13.9905
-13.6797
-13.354
-13.0152
-12.6652
-12.3059
-11.9393
-11.5675
-11.1921
-10.8147
-10.4367
-10.0589
-9.68183
-9.30567
-8.93011
-8.55448
-8.17779
-7.79877
-7.41597
-7.02787
-6.63302
-6.23014
-5.81828
-5.39703
-4.96665
-4.52831
-4.08429
-3.63815
-3.19479
-2.76028
-2.34138
-1.94475
-1.57636
-1.24108
-0.942392
-0.682293
-0.461175
-0.277931
-0.130183
-0.0146091
0.0726886
0.135841
0.178924
0.205759
0.219773
0.223946
0.220783
0.212341
0.200248
0.18579
0.169876
0.15326
0.136256
0.119453
0.102434
0.0864456
0.0692331
0.0551729
0.0357102
0.0271081
-0.00217463
-15.137
-15.2665
-15.1886
-15.1134
-15.0678
-15.0349
-15.0276
-15.0447
-15.0916
-15.1667
-15.265
-15.3804
-15.5061
-15.6354
-15.7621
-15.8814
-15.9894
-16.0838
-16.1631
-16.2268
-16.2746
-16.3064
-16.3225
-16.3227
-16.3069
-16.2751
-16.2268
-16.1617
-16.0793
-15.9789
-15.8601
-15.7224
-15.5653
-15.3884
-15.1917
-14.975
-14.7387
-14.4833
-14.2096
-13.9185
-13.6113
-13.2896
-12.955
-12.6094
-12.2546
-11.8926
-11.5252
-11.1542
-10.781
-10.4069
-10.0328
-9.65908
-9.28596
-8.91312
-8.53992
-8.16536
-7.78822
-7.40708
-7.02046
-6.62695
-6.22532
-5.81474
-5.39492
-4.96633
-4.5304
-4.0897
-3.64801
-3.21028
-2.78229
-2.37018
-1.97994
-1.61701
-1.28597
-0.990179
-0.731616
-0.510745
-0.326601
-0.177004
-0.0588495
0.0315344
0.0980748
0.144674
0.175012
0.192415
0.199793
0.199605
0.193888
0.184264
0.172023
0.158089
0.143238
0.127802
0.112399
0.0966327
0.0817738
0.0655789
0.0524766
0.0338373
0.0261722
-0.00261125
-14.8074
-14.8013
-14.8224
-14.8823
-14.9417
-14.9865
-15.0207
-15.0642
-15.1196
-15.1882
-15.2702
-15.3643
-15.4674
-15.5756
-15.6848
-15.7913
-15.8915
-15.9823
-16.0613
-16.1265
-16.1767
-16.211
-16.229
-16.2305
-16.2154
-16.1836
-16.1351
-16.0696
-15.9867
-15.8862
-15.7674
-15.63
-15.4736
-15.2979
-15.1027
-14.888
-14.6542
-14.4018
-14.1314
-13.8441
-13.541
-13.2237
-12.8937
-12.5527
-12.2027
-11.8453
-11.4825
-11.1159
-10.7468
-10.3765
-10.0057
-9.63509
-9.26463
-8.89408
-8.52281
-8.14988
-7.77408
-7.39407
-7.00845
-6.61589
-6.21533
-5.8061
-5.38812
-4.96211
-4.52972
-4.09365
-3.6577
-3.22657
-2.80555
-2.40024
-2.01618
-1.6585
-1.33154
-1.03857
-0.781522
-0.560915
-0.375912
-0.224514
-0.103828
-0.0103956
0.0595088
0.109615
0.143464
0.16428
0.174897
0.17773
0.17479
0.167691
0.157727
0.145833
0.132803
0.118992
0.105041
0.0905767
0.0768912
0.0617582
0.0496454
0.0318748
0.0251573
-0.00306172
-14.8675
-14.9888
-15.0533
-15.0699
-15.0629
-15.051
-15.0492
-15.0727
-15.114
-15.1724
-15.2479
-15.3376
-15.437
-15.5411
-15.6453
-15.7452
-15.8375
-15.9195
-15.9895
-16.0463
-16.0891
-16.1174
-16.131
-16.1295
-16.1126
-16.0799
-16.0312
-15.9658
-15.8835
-15.7836
-15.6658
-15.5296
-15.3747
-15.2007
-15.0077
-14.7956
-14.5648
-14.3157
-14.0491
-13.7659
-13.4672
-13.1545
-12.8293
-12.4933
-12.1481
-11.7956
-11.4374
-11.075
-10.71
-10.3433
-9.97576
-9.6079
-9.23981
-8.87122
-8.50156
-8.12993
-7.75523
-7.3762
-6.99157
-6.60017
-6.20111
-5.79391
-5.37867
-4.95628
-4.5285
-4.09804
-3.66848
-3.2442
-2.83009
-2.43137
-2.05328
-1.70066
-1.37768
-1.08748
-0.831938
-0.611627
-0.425817
-0.272676
-0.149514
-0.0530786
0.0201588
0.0737576
0.111121
0.135366
0.149254
0.155149
0.155036
0.150516
0.142886
0.133091
0.12194
0.109811
0.0973644
0.0842528
0.0717861
0.0577592
0.0466729
0.0298118
0.0240665
-0.00353734
-14.8213
-14.8656
-14.8743
-14.8846
-14.912
-14.9537
-14.9968
-15.0395
-15.0916
-15.1551
-15.2297
-15.3135
-15.4036
-15.4968
-15.5899
-15.6798
-15.7638
-15.8395
-15.905
-15.9586
-15.999
-16.0255
-16.0374
-16.0341
-16.0154
-15.981
-15.9306
-15.8639
-15.7805
-15.68
-15.562
-15.4261
-15.2719
-15.0993
-14.9081
-14.6984
-14.4704
-14.2247
-13.9618
-13.6828
-13.3886
-13.0807
-12.7604
-12.4293
-12.0892
-11.7415
-11.3879
-11.03
-10.669
-10.3059
-9.94163
-9.57654
-9.2108
-8.84417
-8.47615
-8.10592
-7.73248
-7.3547
-6.97147
-6.58176
-6.18485
-5.78043
-5.36874
-4.95076
-4.52823
-4.10375
-3.6807
-3.26314
-2.85573
-2.46338
-2.09105
-1.74336
-1.42429
-1.13682
-0.882802
-0.662822
-0.476257
-0.321435
-0.195854
-0.0964654
-0.0199303
0.0371423
0.0780174
0.105705
0.12289
0.131884
0.134642
0.132754
0.127512
0.119872
0.110657
0.100265
0.0893743
0.0776648
0.0664619
0.0535849
0.043562
0.0276511
0.0229049
-0.00403632
-14.8057
-14.865
-14.914
-14.9566
-14.9874
-15.0005
-15.0205
-15.052
-15.0947
-15.1489
-15.2141
-15.2887
-15.37
-15.455
-15.5404
-15.6229
-15.6999
-15.7687
-15.8276
-15.875
-15.9099
-15.9315
-15.9393
-15.9327
-15.9115
-15.8752
-15.8235
-15.7559
-15.672
-15.5714
-15.4537
-15.3184
-15.1652
-14.994
-14.8047
-14.5974
-14.3722
-14.1298
-13.8706
-13.5957
-13.306
-13.0027
-12.6873
-12.3613
-12.0261
-11.6833
-11.3345
-10.9811
-10.6242
-10.2649
-9.904
-9.54187
-9.17868
-8.81426
-8.44814
-8.07961
-7.7078
-7.3317
-6.95033
-6.56285
-6.16865
-5.76754
-5.35987
-4.94662
-4.52948
-4.11095
-3.69423
-3.2832
-2.88226
-2.49609
-2.12939
-1.78654
-1.4713
-1.18655
-0.934063
-0.714451
-0.527187
-0.370746
-0.242808
-0.140519
-0.0607262
-0.000203387
0.0441763
0.0753154
0.0958185
0.107946
0.113618
0.114409
0.111608
0.106178
0.0989533
0.0903521
0.0810698
0.0708118
0.0609177
0.0492343
0.0403122
0.025392
0.0216742
-0.00455936
-14.7874
-14.8351
-14.8691
-14.8921
-14.9148
-14.9485
-14.9826
-15.0222
-15.0692
-15.1244
-15.1877
-15.2581
-15.3333
-15.411
-15.4885
-15.5631
-15.6324
-15.6944
-15.7472
-15.7895
-15.82
-15.838
-15.8426
-15.8334
-15.8099
-15.7715
-15.7181
-15.649
-15.5641
-15.4627
-15.3447
-15.2096
-15.0571
-14.8871
-14.6995
-14.4944
-14.272
-14.0328
-13.7773
-13.5064
-13.2212
-12.9226
-12.6122
-12.2911
-11.961
-11.6232
-11.2792
-10.9304
-10.5778
-10.2224
-9.865
-9.50599
-9.14554
-8.78353
-8.41957
-8.05303
-7.68314
-7.30903
-6.92986
-6.54489
-6.15366
-5.75606
-5.35249
-4.94396
-4.53213
-4.11939
-3.70883
-3.30416
-2.90953
-2.52941
-2.16821
-1.83011
-1.51867
-1.23661
-0.985672
-0.766468
-0.578561
-0.420564
-0.290335
-0.185202
-0.102195
-0.0382506
0.00962194
0.0442164
0.0680565
0.0833465
0.0919722
0.0954883
0.095179
0.0920118
0.086831
0.0800738
0.0724505
0.0636929
0.0551527
0.0447066
0.0369235
0.0230339
0.0203766
-0.00510802
-14.7704
-14.8145
-14.8523
-14.887
-14.9182
-14.9484
-14.9795
-15.0154
-15.0581
-15.1082
-15.1656
-15.229
-15.2969
-15.3669
-15.4368
-15.5041
-15.5666
-15.6222
-15.6692
-15.7062
-15.732
-15.7458
-15.7469
-15.7345
-15.7083
-15.6678
-15.6126
-15.5423
-15.4564
-15.3546
-15.2364
-15.1016
-14.95
-14.7812
-14.5953
-14.3924
-14.1728
-13.9367
-13.6849
-13.418
-13.1371
-12.8432
-12.5376
-12.2215
-11.8964
-11.5635
-11.2243
-10.8799
-10.5316
-10.1801
-9.82623
-9.47039
-9.11275
-8.75325
-8.39155
-8.02713
-7.6593
-7.28732
-6.91046
-6.52812
-6.13992
-5.74585
-5.34638
-4.94251
-4.5359
-4.12885
-3.72434
-3.32589
-2.93745
-2.56325
-2.20747
-1.87404
-1.56634
-1.28697
-1.03758
-0.818825
-0.630331
-0.470845
-0.338391
-0.230474
-0.144301
-0.0769677
-0.0256187
0.0124308
0.0396219
0.0581009
0.0697158
0.0760002
0.0782307
0.0773775
0.0742929
0.0694317
0.0635176
0.0563088
0.0491675
0.040002
0.0333965
0.0205766
0.0190146
-0.0056841
-14.7537
-14.7938
-14.8295
-14.8606
-14.8911
-14.9216
-14.9547
-14.9919
-15.0344
-15.0827
-15.1366
-15.1952
-15.2573
-15.3209
-15.3839
-15.4444
-15.5002
-15.5496
-15.5909
-15.6228
-15.6441
-15.654
-15.6516
-15.6364
-15.6077
-15.5652
-15.5083
-15.4366
-15.3498
-15.2475
-15.1292
-14.9948
-14.8439
-14.6764
-14.4922
-14.2915
-14.0745
-13.8416
-13.5934
-13.3305
-13.0539
-12.7646
-12.4637
-12.1525
-11.8322
-11.5041
-11.1696
-10.8297
-10.4855
-10.1379
-9.78759
-9.43493
-9.08016
-8.72323
-8.36389
-8.00168
-7.63602
-7.26628
-6.89184
-6.51221
-6.12711
-5.73662
-5.34125
-4.94204
-4.5406
-4.13919
-3.74063
-3.3483
-2.96596
-2.59758
-2.24712
-1.91829
-1.61428
-1.33757
-1.08975
-0.871474
-0.682448
-0.52154
-0.386929
-0.276292
-0.187006
-0.11632
-0.0615156
-0.020016
0.0105359
0.0322263
0.0468628
0.0559561
0.0607719
0.0622818
0.061344
0.0584295
0.0542739
0.0486617
0.0429637
0.0351216
0.0297325
0.0180204
0.0175911
-0.00628953
-14.737
-14.7742
-14.8089
-14.8411
-14.8726
-14.9041
-14.9371
-14.9732
-15.0134
-15.0584
-15.1078
-15.1612
-15.2172
-15.2743
-15.3308
-15.3846
-15.4341
-15.4775
-15.5133
-15.5402
-15.5571
-15.563
-15.5572
-15.539
-15.5078
-15.4631
-15.4046
-15.3316
-15.244
-15.1411
-15.0228
-14.8887
-14.7386
-14.5724
-14.39
-14.1915
-13.9772
-13.7474
-13.5026
-13.2437
-12.9712
-12.6864
-12.3901
-12.0836
-11.7681
-11.4448
-11.1148
-10.7793
-10.4393
-10.0955
-9.74872
-9.39928
-9.04742
-8.69315
-8.33626
-7.97637
-7.61301
-7.24564
-6.87374
-6.49693
-6.11503
-5.72819
-5.33697
-4.94242
-4.54615
-4.15032
-3.75766
-3.37137
-2.99501
-2.63235
-2.28711
-1.9628
-1.66244
-1.38837
-1.14213
-0.924366
-0.734864
-0.5726
-0.435902
-0.322612
-0.230267
-0.156271
-0.0980365
-0.0530962
-0.019178
0.00574232
0.0234297
0.0353691
0.0428136
0.0467337
0.0479916
0.0470731
0.0447242
0.0407552
0.0365444
0.0300677
0.025934
0.0153665
0.0161093
-0.00692635
-14.7202
-14.755
-14.7882
-14.8197
-14.8506
-14.8817
-14.9143
-14.9494
-14.9879
-15.0301
-15.0758
-15.1246
-15.1752
-15.2265
-15.2768
-15.3245
-15.368
-15.4057
-15.4361
-15.4582
-15.4707
-15.4727
-15.4635
-15.4423
-15.4087
-15.3619
-15.3017
-15.2275
-15.1389
-15.0356
-14.9172
-14.7835
-14.6342
-14.4692
-14.2885
-14.0922
-13.8805
-13.6537
-13.4124
-13.1572
-12.8889
-12.6084
-12.3166
-12.0148
-11.7039
-11.3852
-11.0597
-10.7286
-10.3926
-10.0527
-9.70945
-9.36326
-9.01438
-8.66285
-8.30852
-7.95108
-7.59015
-7.22528
-6.85605
-6.48218
-6.10358
-5.72048
-5.33347
-4.94362
-4.5525
-4.16222
-3.77538
-3.39504
-3.02457
-2.66752
-2.32742
-2.00755
-1.71078
-1.43932
-1.19466
-0.977453
-0.787527
-0.623976
-0.485262
-0.369386
-0.274042
-0.196781
-0.135147
-0.0867798
-0.0494939
-0.021329
-0.000565113
0.014255
0.0243688
0.030744
0.0342446
0.0353699
0.0348746
0.0325946
0.029914
0.0248438
0.0220044
0.0126165
0.0145731
-0.00759672
-14.7033
-14.7359
-14.7677
-14.7984
-14.8288
-14.8595
-14.8913
-14.9251
-14.9615
-15.0007
-15.0427
-15.0869
-15.1324
-15.178
-15.2225
-15.2643
-15.302
-15.3342
-15.3596
-15.3768
-15.3851
-15.3833
-15.3707
-15.3466
-15.3104
-15.2616
-15.1997
-15.1242
-15.0347
-14.9309
-14.8125
-14.6791
-14.5306
-14.3668
-14.1878
-13.9936
-13.7844
-13.5606
-13.3227
-13.0711
-12.8068
-12.5305
-12.2432
-11.9458
-11.6395
-11.3253
-11.0043
-10.6774
-10.3455
-10.0094
-9.66971
-9.32681
-8.98098
-8.63228
-8.28062
-7.92576
-7.56739
-7.20516
-6.83874
-6.46795
-6.09276
-5.71347
-5.33073
-4.9456
-4.55963
-4.17485
-3.79378
-3.4193
-3.05461
-2.70307
-2.368
-2.05249
-1.75925
-1.49038
-1.24731
-1.03068
-0.840389
-0.675616
-0.53496
-0.416568
-0.318287
-0.237811
-0.17281
-0.121034
-0.0803838
-0.0489636
-0.0251008
-0.00736871
0.00545262
0.0143255
0.0201141
0.0233295
0.0247334
0.0241867
0.0230786
0.0194547
0.017948
0.00977333
0.0129867
-0.00830274
-14.686
-14.7168
-14.747
-14.7767
-14.8061
-14.8359
-14.8666
-14.8988
-14.933
-14.9694
-15.0077
-15.0476
-15.0883
-15.1287
-15.1677
-15.204
-15.2362
-15.2632
-15.2835
-15.2962
-15.3002
-15.2947
-15.2787
-15.2517
-15.2131
-15.1622
-15.0986
-15.0218
-14.9314
-14.8272
-14.7086
-14.5756
-14.4278
-14.2652
-14.0878
-13.8957
-13.689
-13.4681
-13.2334
-12.9854
-12.725
-12.4528
-12.1697
-11.8768
-11.5749
-11.2652
-10.9485
-10.6258
-10.2979
-9.96564
-9.6295
-9.28994
-8.94722
-8.60145
-8.25257
-7.90041
-7.54475
-7.18529
-6.82182
-6.45422
-6.08255
-5.70717
-5.32874
-4.94835
-4.56751
-4.1882
-3.81281
-3.4441
-3.08509
-2.73895
-2.40881
-2.09758
-1.80781
-1.54151
-1.30002
-1.08401
-0.893397
-0.72747
-0.584945
-0.46411
-0.362956
-0.279317
-0.210988
-0.155826
-0.111817
-0.0771348
-0.0501544
-0.0294819
-0.0139176
-0.00250652
0.00561328
0.0109632
0.0143104
0.0155401
0.0160455
0.0139067
0.0137704
0.00684045
0.0113549
-0.00904641
-14.6685
-14.6974
-14.7262
-14.7546
-14.7829
-14.8115
-14.8409
-14.8713
-14.9032
-14.9367
-14.9715
-15.0072
-15.0433
-15.0788
-15.1126
-15.1436
-15.1707
-15.1925
-15.2081
-15.2164
-15.2163
-15.207
-15.1878
-15.1579
-15.1167
-15.0638
-14.9985
-14.9204
-14.8291
-14.7243
-14.6057
-14.473
-14.3259
-14.1645
-13.9887
-13.7985
-13.5943
-13.3761
-13.1446
-12.9001
-12.6434
-12.3752
-12.0963
-11.8077
-11.5102
-11.2047
-10.8923
-10.5737
-10.2499
-9.92139
-9.58885
-9.25267
-8.91313
-8.57037
-8.22438
-7.87506
-7.52222
-7.16569
-6.80529
-6.441
-6.07296
-5.70155
-5.32749
-4.95185
-4.57614
-4.20224
-3.83245
-3.46941
-3.11597
-2.77512
-2.4498
-2.14277
-1.85642
-1.59265
-1.35275
-1.13738
-0.9465
-0.779485
-0.635165
-0.511961
-0.408001
-0.321255
-0.24964
-0.191117
-0.143762
-0.105814
-0.0757003
-0.0520621
-0.0337221
-0.0197348
-0.00924259
-0.00171541
0.00361754
0.00666536
0.00882375
0.0082074
0.0094783
0.00382257
0.00968308
-0.00982946
-14.6506
-14.6778
-14.705
-14.7321
-14.7591
-14.7863
-14.814
-14.8425
-14.8721
-14.9026
-14.934
-14.9658
-14.9975
-15.0283
-15.0572
-15.0833
-15.1053
-15.1224
-15.1334
-15.1373
-15.1332
-15.1203
-15.0979
-15.0651
-15.0215
-14.9665
-14.8995
-14.8201
-14.7279
-14.6226
-14.5038
-14.3714
-14.225
-14.0647
-13.8904
-13.7022
-13.5002
-13.2848
-13.0563
-12.8152
-12.5621
-12.2978
-12.023
-11.7385
-11.4452
-11.144
-10.8358
-10.5213
-10.2014
-9.87672
-9.54778
-9.21502
-8.87873
-8.53908
-8.19609
-7.84971
-7.49984
-7.14636
-6.78917
-6.42831
-6.06398
-5.69662
-5.32696
-4.95609
-4.58547
-4.21693
-3.85268
-3.4952
-3.14722
-2.81154
-2.49094
-2.18802
-1.90502
-1.64375
-1.40544
-1.19074
-0.999644
-0.831608
-0.685568
-0.56007
-0.453375
-0.363581
-0.288724
-0.22687
-0.176182
-0.134969
-0.101711
-0.0750846
-0.0539388
-0.0373396
-0.024436
-0.0146907
-0.00733129
-0.00242534
0.00142417
0.00236602
0.0050795
0.000725442
0.00797694
-0.0106532
-14.6322
-14.6579
-14.6835
-14.709
-14.7346
-14.7602
-14.7862
-14.8127
-14.8398
-14.8675
-14.8955
-14.9236
-14.9511
-14.9774
-15.0017
-15.023
-15.0403
-15.0528
-15.0593
-15.0591
-15.0511
-15.0347
-15.009
-14.9735
-14.9274
-14.8703
-14.8016
-14.7209
-14.6279
-14.522
-14.4031
-14.2709
-14.1252
-13.9659
-13.7931
-13.6067
-13.407
-13.1941
-12.9686
-12.7308
-12.4812
-12.2207
-11.9498
-11.6693
-11.3802
-11.0831
-10.779
-10.4686
-10.1526
-9.83166
-9.50634
-9.17704
-8.84407
-8.5076
-8.16772
-7.82441
-7.47763
-7.12732
-6.77346
-6.41614
-6.05561
-5.69237
-5.32715
-4.96105
-4.59549
-4.23225
-3.87344
-3.52142
-3.17878
-2.84816
-2.53218
-2.23328
-1.95357
-1.69477
-1.45805
-1.24403
-1.05278
-0.883786
-0.736102
-0.608386
-0.499026
-0.406245
-0.328195
-0.263044
-0.209042
-0.164567
-0.128155
-0.098522
-0.0745431
-0.055299
-0.039947
-0.0279449
-0.0185201
-0.0117177
-0.00614088
-0.00360657
0.000582995
-0.00244398
0.0062426
-0.0115181
-14.6135
-14.6376
-14.6616
-14.6856
-14.7095
-14.7335
-14.7576
-14.7819
-14.8065
-14.8313
-14.8561
-14.8806
-14.9041
-14.9262
-14.9461
-14.9628
-14.9757
-14.9837
-14.986
-14.9818
-14.9701
-14.9502
-14.9214
-14.8831
-14.8346
-14.7754
-14.7051
-14.6231
-14.529
-14.4226
-14.3036
-14.1716
-14.0265
-13.8682
-13.6968
-13.5122
-13.3146
-13.1043
-12.8815
-12.6469
-12.4007
-12.1438
-11.8767
-11.6002
-11.3151
-11.0221
-10.722
-10.4155
-10.1034
-9.78627
-9.46458
-9.13878
-8.80918
-8.47598
-8.1393
-7.79918
-7.45561
-7.10859
-6.75817
-6.4045
-6.04786
-5.68879
-5.32804
-4.96671
-4.60618
-4.24817
-3.8947
-3.54804
-3.21062
-2.88494
-2.57347
-2.2785
-2.00202
-1.74565
-1.51051
-1.29722
-1.10584
-0.935965
-0.786711
-0.656855
-0.544905
-0.449201
-0.368008
-0.299596
-0.242301
-0.194572
-0.155001
-0.122345
-0.095508
-0.0735881
-0.0557534
-0.0414578
-0.0299309
-0.0211956
-0.0138572
-0.00969784
-0.00400105
-0.00567747
0.00448642
-0.012424
-14.5944
-14.6168
-14.6393
-14.6616
-14.6838
-14.706
-14.7282
-14.7503
-14.7724
-14.7944
-14.816
-14.837
-14.8567
-14.8748
-14.8904
-14.903
-14.9115
-14.9153
-14.9136
-14.9054
-14.8901
-14.8668
-14.835
-14.794
-14.7431
-14.6819
-14.6099
-14.5266
-14.4316
-14.3246
-14.2053
-14.0735
-13.929
-13.7717
-13.6016
-13.4187
-13.2232
-13.0152
-12.7952
-12.5636
-12.3208
-12.0673
-11.8039
-11.5313
-11.25
-10.961
-10.6648
-10.3623
-10.054
-9.74059
-9.42254
-9.10027
-8.7741
-8.44425
-8.11088
-7.77404
-7.4338
-7.0902
-6.74333
-6.39339
-6.04072
-5.68587
-5.32961
-4.97303
-4.61749
-4.26464
-3.91643
-3.57501
-3.24269
-2.92184
-2.61476
-2.32363
-2.05032
-1.79634
-1.56279
-1.35024
-1.15879
-0.98809
-0.837342
-0.705425
-0.590958
-0.492397
-0.408116
-0.336482
-0.275918
-0.224946
-0.182213
-0.14652
-0.116804
-0.0921801
-0.0718304
-0.0552067
-0.0415431
-0.0308404
-0.0217089
-0.0158936
-0.0086613
-0.00896538
0.00271494
-0.0133692
-14.5748
-14.5957
-14.6165
-14.6372
-14.6577
-14.678
-14.6981
-14.718
-14.7377
-14.7569
-14.7754
-14.7929
-14.8091
-14.8233
-14.8349
-14.8434
-14.8479
-14.8477
-14.842
-14.8301
-14.8113
-14.7848
-14.75
-14.7063
-14.6531
-14.5899
-14.5162
-14.4316
-14.3356
-14.2281
-14.1086
-13.9769
-13.8329
-13.6765
-13.5076
-13.3263
-13.1328
-12.9271
-12.7098
-12.481
-12.2414
-11.9913
-11.7315
-11.4625
-11.1851
-10.8999
-10.6076
-10.3089
-10.0044
-9.6947
-9.38029
-9.06158
-8.73889
-8.41247
-8.08248
-7.74904
-7.41224
-7.07216
-6.72895
-6.38283
-6.0342
-5.6836
-5.33185
-4.98001
-4.6294
-4.28164
-3.93858
-3.60229
-3.27494
-2.95879
-2.656
-2.36862
-2.0984
-1.84679
-1.61481
-1.40303
-1.21157
-1.04011
-0.88794
-0.754041
-0.637134
-0.535783
-0.448469
-0.373656
-0.30985
-0.255647
-0.209753
-0.171013
-0.138398
-0.111045
-0.0881504
-0.0691664
-0.0533341
-0.0406316
-0.029678
-0.0221776
-0.0133853