/*--------------------------------*- C++ -*----------------------------------*\
| =========                 |                                                 |
| \\      /  F ield         | OpenFOAM: The Open Source CFD Toolbox           |
|  \\    /   O peration     | Version:  2.1.1                                 |
|   \\  /    A nd           | Web:      www.OpenFOAM.org                      |
|    \\/     M anipulation  |                                                 |
\*---------------------------------------------------------------------------*/
FoamFile
{
    version     2.0;
    format      ascii;
    class       surfaceScalarField;
    location    "0.115";
    object      phi;
}
// * * * * * * * * * * * * * * * * * * * * * * * * * * * * * * * * * * * * * //

dimensions      [0 3 -1 0 0 0 0];

internalField   nonuniform List<scalar> 
13452
(
6.89923e-05
-5.05078e-07
6.88138e-05
1.78576e-07
6.82026e-05
6.11127e-07
6.72556e-05
9.47066e-07
6.61795e-05
1.0761e-06
6.50885e-05
1.09096e-06
6.40244e-05
1.06406e-06
6.30046e-05
1.01985e-06
6.20373e-05
9.67266e-07
6.11261e-05
9.11224e-07
6.0272e-05
8.54135e-07
5.94745e-05
7.97449e-07
5.87324e-05
7.4211e-07
5.80436e-05
6.88782e-07
5.74057e-05
6.37908e-07
5.6816e-05
5.89769e-07
5.62714e-05
5.44518e-07
5.57692e-05
5.02208e-07
5.53064e-05
4.62822e-07
5.48801e-05
4.2629e-07
5.44876e-05
3.92511e-07
5.41262e-05
3.61374e-07
5.37935e-05
3.32769e-07
5.34868e-05
3.06615e-07
5.3204e-05
2.82889e-07
5.29423e-05
2.61681e-07
5.2699e-05
2.43291e-07
5.24704e-05
2.28556e-07
5.22515e-05
2.1896e-07
5.20317e-05
2.19741e-07
5.17932e-05
2.38491e-07
5.14869e-05
3.06327e-07
4.98031e-07
5.09889e-05
7.0165e-05
-2.26093e-07
7.00412e-05
3.02368e-07
7.01818e-05
4.70457e-07
7.05092e-05
6.19676e-07
7.08599e-05
7.25464e-07
7.1159e-05
7.91868e-07
7.13839e-05
8.39135e-07
7.15363e-05
8.67413e-07
7.16242e-05
8.79394e-07
7.16564e-05
8.79058e-07
7.16412e-05
8.6935e-07
7.1586e-05
8.52598e-07
7.14975e-05
8.30607e-07
7.13814e-05
8.04842e-07
7.12429e-05
7.76477e-07
7.10862e-05
7.46448e-07
7.09152e-05
7.15502e-07
7.07332e-05
6.84224e-07
7.0543e-05
6.53068e-07
7.03469e-05
6.22382e-07
7.01469e-05
5.92432e-07
6.99449e-05
5.63424e-07
6.97421e-05
5.35527e-07
6.95398e-05
5.08897e-07
6.9339e-05
4.83721e-07
6.91405e-05
4.60236e-07
6.89449e-05
4.38898e-07
6.87531e-05
4.20263e-07
6.85661e-05
4.05992e-07
6.83891e-05
3.96758e-07
6.8228e-05
3.99572e-07
6.81327e-05
4.01652e-07
4.31489e-07
6.81992e-05
7.22816e-05
-5.12062e-08
7.23969e-05
1.87119e-07
7.25019e-05
3.65473e-07
7.25887e-05
5.32891e-07
7.26723e-05
6.41871e-07
7.27547e-05
7.09459e-07
7.28413e-05
7.52544e-07
7.29285e-05
7.80179e-07
7.30124e-05
7.95538e-07
7.30902e-05
8.0117e-07
7.31606e-05
7.9903e-07
7.32225e-05
7.90688e-07
7.32757e-05
7.77421e-07
7.33202e-05
7.60343e-07
7.33562e-05
7.40397e-07
7.33843e-05
7.18366e-07
7.34049e-05
6.94901e-07
7.34186e-05
6.70535e-07
7.3426e-05
6.45695e-07
7.34276e-05
6.20727e-07
7.34242e-05
5.95911e-07
7.34161e-05
5.71477e-07
7.3404e-05
5.47626e-07
7.33883e-05
5.24549e-07
7.33696e-05
5.02467e-07
7.33482e-05
4.8164e-07
7.33246e-05
4.62501e-07
7.32994e-05
4.45502e-07
7.32735e-05
4.31886e-07
7.32486e-05
4.21609e-07
7.32288e-05
4.19393e-07
7.32157e-05
4.14751e-07
4.35692e-07
7.32115e-05
7.45185e-05
-4.31116e-08
7.44883e-05
2.17344e-07
7.4477e-05
3.7678e-07
7.45168e-05
4.93104e-07
7.45774e-05
5.81301e-07
7.46441e-05
6.42758e-07
7.47103e-05
6.86252e-07
7.47747e-05
7.15836e-07
7.48368e-05
7.3346e-07
7.48964e-05
7.4149e-07
7.49535e-05
7.4195e-07
7.50078e-05
7.36395e-07
7.50592e-05
7.26068e-07
7.51075e-05
7.12025e-07
7.51527e-05
6.95142e-07
7.5195e-05
6.76142e-07
7.52342e-05
6.55625e-07
7.52707e-05
6.34081e-07
7.53045e-05
6.11909e-07
7.53358e-05
5.89435e-07
7.53648e-05
5.66926e-07
7.53916e-05
5.44604e-07
7.54166e-05
5.22667e-07
7.54398e-05
5.01301e-07
7.54616e-05
4.80715e-07
7.54821e-05
4.61133e-07
7.55017e-05
4.42897e-07
7.55209e-05
4.263e-07
7.55407e-05
4.12055e-07
7.55625e-05
3.99824e-07
7.55907e-05
3.91199e-07
7.5626e-05
3.79493e-07
3.69372e-07
7.56923e-05
7.66036e-05
9.16704e-09
7.66284e-05
1.92559e-07
7.6665e-05
3.40159e-07
7.67034e-05
4.54727e-07
7.6742e-05
5.42623e-07
7.67819e-05
6.02855e-07
7.68243e-05
6.43881e-07
7.68687e-05
6.71409e-07
7.69142e-05
6.88039e-07
7.69597e-05
6.95914e-07
7.70049e-05
6.968e-07
7.70492e-05
6.92062e-07
7.70925e-05
6.82821e-07
7.71345e-05
6.70032e-07
7.71751e-05
6.54498e-07
7.72144e-05
6.36889e-07
7.72522e-05
6.17759e-07
7.72887e-05
5.97568e-07
7.7324e-05
5.76689e-07
7.7358e-05
5.5543e-07
7.73908e-05
5.34042e-07
7.74227e-05
5.12739e-07
7.74537e-05
4.91704e-07
7.74839e-05
4.71109e-07
7.75134e-05
4.5113e-07
7.75426e-05
4.31946e-07
7.75717e-05
4.13786e-07
7.76013e-05
3.96792e-07
7.7632e-05
3.81271e-07
7.76652e-05
3.66699e-07
7.7703e-05
3.53352e-07
7.77457e-05
3.36788e-07
3.18421e-07
7.77967e-05
7.88312e-05
2.38716e-08
7.88389e-05
1.84824e-07
7.88573e-05
3.21825e-07
7.88864e-05
4.25613e-07
7.89231e-05
5.05967e-07
7.89626e-05
5.6329e-07
7.90032e-05
6.0329e-07
7.90441e-05
6.30483e-07
7.9085e-05
6.47156e-07
7.91256e-05
6.55284e-07
7.91659e-05
6.56582e-07
7.92055e-05
6.52404e-07
7.92445e-05
6.43844e-07
7.92827e-05
6.31822e-07
7.93201e-05
6.17106e-07
7.93567e-05
6.00335e-07
7.93924e-05
5.82037e-07
7.94273e-05
5.62648e-07
7.94615e-05
5.42526e-07
7.94949e-05
5.21962e-07
7.95278e-05
5.01196e-07
7.95601e-05
4.80428e-07
7.9592e-05
4.59829e-07
7.96235e-05
4.39549e-07
7.96549e-05
4.19732e-07
7.96864e-05
4.005e-07
7.97182e-05
3.81983e-07
7.97508e-05
3.64201e-07
7.97848e-05
3.47181e-07
7.98212e-05
3.30355e-07
7.98612e-05
3.13332e-07
7.99047e-05
2.93276e-07
2.6973e-07
7.99534e-05
8.10848e-05
3.76299e-08
8.10949e-05
1.74713e-07
8.11186e-05
2.98139e-07
8.11495e-05
3.94654e-07
8.11846e-05
4.70947e-07
8.1221e-05
5.26867e-07
8.12581e-05
5.66185e-07
8.12957e-05
5.92902e-07
8.13334e-05
6.09399e-07
8.13711e-05
6.17606e-07
8.14085e-05
6.19172e-07
8.14455e-05
6.15402e-07
8.1482e-05
6.0735e-07
8.15179e-05
5.95897e-07
8.15533e-05
5.81783e-07
8.1588e-05
5.65618e-07
8.16221e-05
5.4791e-07
8.16557e-05
5.29077e-07
8.16887e-05
5.09461e-07
8.17214e-05
4.89343e-07
8.17536e-05
4.68951e-07
8.17856e-05
4.48474e-07
8.18173e-05
4.28066e-07
8.1849e-05
4.07858e-07
8.18808e-05
3.87958e-07
8.19128e-05
3.68442e-07
8.19455e-05
3.49358e-07
8.1979e-05
3.30645e-07
8.2014e-05
3.12168e-07
8.2051e-05
2.93387e-07
8.20906e-05
2.73721e-07
8.21325e-05
2.51368e-07
2.25614e-07
8.21766e-05
8.34101e-05
4.3037e-08
8.34202e-05
1.64648e-07
8.34412e-05
2.77088e-07
8.34691e-05
3.66821e-07
8.35018e-05
4.38202e-07
8.35371e-05
4.91637e-07
8.35734e-05
5.29813e-07
8.36103e-05
5.56036e-07
8.36472e-05
5.72479e-07
8.36839e-05
5.80894e-07
8.37203e-05
5.82817e-07
8.37562e-05
5.79496e-07
8.37916e-05
5.71951e-07
8.38264e-05
5.61037e-07
8.38608e-05
5.47466e-07
8.38945e-05
5.31832e-07
8.39278e-05
5.14625e-07
8.39607e-05
4.96248e-07
8.39931e-05
4.77033e-07
8.40252e-05
4.57249e-07
8.4057e-05
4.37116e-07
8.40887e-05
4.1681e-07
8.41203e-05
3.96473e-07
8.41519e-05
3.76213e-07
8.41838e-05
3.56111e-07
8.4216e-05
3.36205e-07
8.42489e-05
3.16487e-07
8.42827e-05
2.96848e-07
8.43178e-05
2.77085e-07
8.43544e-05
2.56723e-07
8.43929e-05
2.35202e-07
8.44329e-05
2.11385e-07
1.84692e-07
8.44738e-05
8.57964e-05
4.53853e-08
8.58064e-05
1.54666e-07
8.58268e-05
2.56639e-07
8.58539e-05
3.39763e-07
8.58856e-05
4.06501e-07
8.59198e-05
4.57418e-07
8.59552e-05
4.9436e-07
8.59913e-05
5.19974e-07
8.60275e-05
5.36238e-07
8.60637e-05
5.44764e-07
8.60995e-05
5.4698e-07
8.61349e-05
5.44067e-07
8.61699e-05
5.36999e-07
8.62043e-05
5.26596e-07
8.62383e-05
5.13541e-07
8.62717e-05
4.98406e-07
8.63046e-05
4.81663e-07
8.63372e-05
4.63703e-07
8.63694e-05
4.44845e-07
8.64013e-05
4.25349e-07
8.6433e-05
4.05425e-07
8.64645e-05
3.85238e-07
8.64961e-05
3.64917e-07
8.65278e-05
3.44555e-07
8.65597e-05
3.2421e-07
8.6592e-05
3.03893e-07
8.66249e-05
2.83563e-07
8.66586e-05
2.63094e-07
8.66935e-05
2.42271e-07
8.67295e-05
2.20707e-07
8.67667e-05
1.97944e-07
8.68048e-05
1.73281e-07
1.46358e-07
8.68432e-05
8.82501e-05
4.52647e-08
8.82603e-05
1.44501e-07
8.82798e-05
2.37154e-07
8.83055e-05
3.14059e-07
8.83357e-05
3.76264e-07
8.83688e-05
4.24375e-07
8.84034e-05
4.59746e-07
8.84388e-05
4.84504e-07
8.84747e-05
5.00409e-07
8.85105e-05
5.08923e-07
8.85461e-05
5.11347e-07
8.85814e-05
5.08782e-07
8.86163e-05
5.02147e-07
8.86507e-05
4.9222e-07
8.86845e-05
4.79653e-07
8.8718e-05
4.64993e-07
8.87509e-05
4.48693e-07
8.87835e-05
4.3113e-07
8.88157e-05
4.12611e-07
8.88477e-05
3.93385e-07
8.88795e-05
3.73652e-07
8.89111e-05
3.53569e-07
8.89428e-05
3.33253e-07
8.89746e-05
3.12784e-07
8.90066e-05
2.92203e-07
8.9039e-05
2.71509e-07
8.90719e-05
2.50646e-07
8.91055e-05
2.29491e-07
8.91399e-05
2.0785e-07
8.91752e-05
1.85427e-07
8.92112e-05
1.61884e-07
8.92477e-05
1.36802e-07
1.10007e-07
8.92841e-05
9.07728e-05
4.37679e-08
9.07829e-05
1.34367e-07
9.08015e-05
2.18573e-07
9.08261e-05
2.89466e-07
9.08552e-05
3.47214e-07
9.08872e-05
3.92374e-07
9.09209e-05
4.25968e-07
9.09558e-05
4.49685e-07
9.09911e-05
4.65061e-07
9.10266e-05
4.73412e-07
9.1062e-05
4.75919e-07
9.10972e-05
4.736e-07
9.11321e-05
4.67317e-07
9.11665e-05
4.57803e-07
9.12005e-05
4.45675e-07
9.1234e-05
4.31452e-07
9.12671e-05
4.15568e-07
9.12999e-05
3.98381e-07
9.13323e-05
3.80186e-07
9.13645e-05
3.6122e-07
9.13964e-05
3.41675e-07
9.14283e-05
3.21698e-07
9.14602e-05
3.01396e-07
9.14921e-05
2.80841e-07
9.15242e-05
2.60065e-07
9.15567e-05
2.39059e-07
9.15896e-05
2.17771e-07
9.1623e-05
1.96093e-07
9.16569e-05
1.73868e-07
9.16915e-05
1.50881e-07
9.17265e-05
1.26907e-07
9.17616e-05
1.01707e-07
7.5237e-08
9.17963e-05
9.3367e-05
4.14397e-08
9.33771e-05
1.24288e-07
9.33948e-05
2.00817e-07
9.34183e-05
2.65943e-07
9.34462e-05
3.19342e-07
9.34771e-05
3.61456e-07
9.351e-05
3.93082e-07
9.35441e-05
4.15567e-07
9.3579e-05
4.30237e-07
9.36141e-05
4.38269e-07
9.36493e-05
4.40726e-07
9.36843e-05
4.38543e-07
9.37191e-05
4.32522e-07
9.37536e-05
4.23346e-07
9.37877e-05
4.11596e-07
9.38214e-05
3.97764e-07
9.38547e-05
3.82259e-07
9.38876e-05
3.65422e-07
9.39203e-05
3.47534e-07
9.39527e-05
3.28821e-07
9.39849e-05
3.09464e-07
9.4017e-05
2.89602e-07
9.40491e-05
2.69335e-07
9.40812e-05
2.4873e-07
9.41134e-05
2.27815e-07
9.41459e-05
2.06583e-07
9.41787e-05
1.84989e-07
9.42118e-05
1.6295e-07
9.42453e-05
1.40351e-07
9.42792e-05
1.17048e-07
9.43132e-05
9.29013e-08
9.43471e-05
6.77929e-08
4.17565e-08
9.43806e-05
9.60349e-05
3.8662e-08
9.60448e-05
1.14352e-07
9.60618e-05
1.83834e-07
9.60843e-05
2.43421e-07
9.61111e-05
2.92558e-07
9.6141e-05
3.31565e-07
9.6173e-05
3.61079e-07
9.62064e-05
3.82173e-07
9.62406e-05
3.95985e-07
9.62753e-05
4.03553e-07
9.63102e-05
4.05833e-07
9.63451e-05
4.03676e-07
9.63798e-05
3.97821e-07
9.64142e-05
3.88904e-07
9.64484e-05
3.77468e-07
9.64822e-05
3.63973e-07
9.65156e-05
3.48806e-07
9.65488e-05
3.32291e-07
9.65816e-05
3.14691e-07
9.66142e-05
2.96222e-07
9.66466e-05
2.77055e-07
9.66789e-05
2.57323e-07
9.67111e-05
2.3712e-07
9.67433e-05
2.16508e-07
9.67756e-05
1.95519e-07
9.6808e-05
1.7415e-07
9.68407e-05
1.52371e-07
9.68735e-05
1.30125e-07
9.69065e-05
1.07335e-07
9.69396e-05
8.39152e-08
9.69727e-05
5.97922e-08
9.70056e-05
3.49219e-08
9.3833e-09
9.7038e-05
9.87787e-05
3.56627e-08
9.87885e-05
1.04611e-07
9.88047e-05
1.67559e-07
9.88263e-05
2.21828e-07
9.88521e-05
2.66796e-07
9.8881e-05
3.02668e-07
9.89121e-05
3.29956e-07
9.89448e-05
3.49525e-07
9.89784e-05
3.62338e-07
9.90127e-05
3.6931e-07
9.90472e-05
3.71292e-07
9.90818e-05
3.69055e-07
9.91164e-05
3.63275e-07
9.91507e-05
3.54539e-07
9.91848e-05
3.43352e-07
9.92187e-05
3.30143e-07
9.92522e-05
3.15276e-07
9.92854e-05
2.99053e-07
9.93184e-05
2.81724e-07
9.93511e-05
2.63494e-07
9.93837e-05
2.44524e-07
9.9416e-05
2.24939e-07
9.94483e-05
2.04833e-07
9.94806e-05
1.84265e-07
9.95128e-05
1.63271e-07
9.95451e-05
1.41857e-07
9.95775e-05
1.20009e-07
9.96099e-05
9.76937e-08
9.96424e-05
7.48697e-08
9.96748e-05
5.14942e-08
9.97071e-05
2.75423e-08
9.9739e-05
3.01519e-09
-2.19853e-08
9.97703e-05
0.000101601
3.25822e-08
0.00010161
9.51101e-08
0.000101626
1.51939e-07
0.000101647
2.011e-07
0.000101671
2.41987e-07
0.000101699
2.74714e-07
0.00010173
2.99693e-07
0.000101762
3.17623e-07
0.000101795
3.29316e-07
0.000101828
3.35572e-07
0.000101863
3.37147e-07
0.000101897
3.34732e-07
0.000101931
3.28941e-07
0.000101965
3.20314e-07
0.000101999
3.09315e-07
0.000102033
2.96344e-07
0.000102067
2.8174e-07
0.0001021
2.65785e-07
0.000102133
2.48715e-07
0.000102166
2.30721e-07
0.000102198
2.11959e-07
0.000102231
1.92546e-07
0.000102263
1.72574e-07
0.000102295
1.52105e-07
0.000102327
1.31177e-07
0.000102359
1.09807e-07
0.000102391
8.79974e-08
0.000102423
6.57374e-08
0.000102455
4.30124e-08
0.000102487
1.98128e-08
0.000102518
-3.85385e-09
0.000102549
-2.79588e-08
-5.23913e-08
0.00010258
0.000104503
2.95024e-08
0.000104513
8.58749e-08
0.000104528
1.36927e-07
0.000104548
1.81173e-07
0.000104572
2.18067e-07
0.000104599
2.47655e-07
0.000104628
2.70264e-07
0.000104659
2.8646e-07
0.000104692
2.96929e-07
0.000104725
3.02365e-07
0.000104759
3.03432e-07
0.000104793
3.00747e-07
0.000104827
2.94867e-07
0.000104861
2.86281e-07
0.000104895
2.75417e-07
0.000104928
2.62642e-07
0.000104962
2.48269e-07
0.000104995
2.32563e-07
0.000105028
2.15743e-07
0.000105061
1.97991e-07
0.000105093
1.79452e-07
0.000105125
1.60241e-07
0.000105158
1.40446e-07
0.00010519
1.20132e-07
0.000105221
9.93418e-08
0.000105253
7.8104e-08
0.000105285
5.64336e-08
0.000105316
3.43386e-08
0.000105347
1.18266e-08
0.000105378
-1.10885e-08
0.000105409
-3.43782e-08
0.000105439
-5.79979e-08
-8.18357e-08
0.000105468
0.000107489
2.647e-08
0.000107498
7.69197e-08
0.000107512
1.22478e-07
0.000107532
1.6199e-07
0.000107555
1.94978e-07
0.000107581
2.2144e-07
0.00010761
2.41635e-07
0.00010764
2.56023e-07
0.000107672
2.65179e-07
0.000107704
2.69701e-07
0.000107738
2.70171e-07
0.000107771
2.67137e-07
0.000107805
2.61096e-07
0.000107839
2.52492e-07
0.000107873
2.41713e-07
0.000107906
2.29097e-07
0.000107939
2.14931e-07
0.000107973
1.9946e-07
0.000108005
1.82889e-07
0.000108038
1.65387e-07
0.00010807
1.47093e-07
0.000108102
1.28118e-07
0.000108134
1.08547e-07
0.000108166
8.8447e-08
0.000108198
6.78679e-08
0.000108229
4.68457e-08
0.00010826
2.54078e-08
0.000108291
3.57709e-09
0.000108321
-1.86226e-08
0.000108351
-4.11612e-08
0.000108381
-6.39967e-08
0.00010841
-8.70766e-08
-1.10292e-07
0.000108438
0.00011056
2.35094e-08
0.000110569
6.82484e-08
0.000110582
1.08553e-07
0.000110601
1.43493e-07
0.000110623
1.72661e-07
0.000110649
1.9602e-07
0.000110677
2.13772e-07
0.000110706
2.26292e-07
0.000110737
2.3406e-07
0.000110769
2.37588e-07
0.000110802
2.37384e-07
0.000110835
2.33928e-07
0.000110869
2.27665e-07
0.000110902
2.1899e-07
0.000110936
2.08255e-07
0.000110969
1.95767e-07
0.000111002
1.81788e-07
0.000111035
1.66545e-07
0.000111068
1.50227e-07
0.0001111
1.32992e-07
0.000111132
1.1497e-07
0.000111164
9.62676e-08
0.000111196
7.69706e-08
0.000111227
5.71467e-08
0.000111258
3.685e-08
0.000111289
1.61241e-08
0.000111319
-4.99415e-09
0.000111349
-2.64706e-08
0.000111379
-4.82696e-08
0.000111408
-7.03506e-08
0.000111437
-9.26638e-08
0.000111465
-1.15153e-07
-1.37715e-07
0.000111492
0.000113718
2.06319e-08
0.000113727
5.98569e-08
0.00011374
9.5114e-08
0.000113758
1.25633e-07
0.00011378
1.51061e-07
0.000113804
1.71345e-07
0.000113831
1.86636e-07
0.000113861
1.97242e-07
0.000113891
2.0356e-07
0.000113923
2.06028e-07
0.000113955
2.05082e-07
0.000113988
2.01144e-07
0.000114021
1.94603e-07
0.000114054
1.85813e-07
0.000114087
1.75089e-07
0.00011412
1.62705e-07
0.000114153
1.48903e-07
0.000114186
1.33886e-07
0.000114218
1.1783e-07
0.00011425
1.00882e-07
0.000114282
8.31635e-08
0.000114313
6.47773e-08
0.000114345
4.58068e-08
0.000114375
2.63211e-08
0.000114406
6.37767e-09
0.000114436
-1.39744e-08
0.000114466
-3.46909e-08
0.000114495
-5.57299e-08
0.000114524
-7.70478e-08
0.000114552
-9.85975e-08
0.00011458
-1.20325e-07
0.000114607
-1.42174e-07
-1.64047e-07
0.000114633
0.000116967
1.78412e-08
0.000116975
5.17357e-08
0.000116988
8.2127e-08
0.000117006
1.08359e-07
0.000117026
1.30127e-07
0.00011705
1.47365e-07
0.000117077
1.60189e-07
0.000117105
1.68845e-07
0.000117135
1.73665e-07
0.000117166
1.75015e-07
0.000117198
1.73273e-07
0.00011723
1.688e-07
0.000117263
1.61938e-07
0.000117296
1.52997e-07
0.000117329
1.42256e-07
0.000117361
1.29962e-07
0.000117394
1.16329e-07
0.000117426
1.01544e-07
0.000117458
8.57664e-08
0.00011749
6.9131e-08
0.000117522
5.17528e-08
0.000117553
3.37286e-08
0.000117583
1.51397e-08
0.000117614
-3.94467e-09
0.000117643
-2.34648e-08
0.000117673
-4.33677e-08
0.000117702
-6.36046e-08
0.00011773
-8.4128e-08
0.000117758
-1.0489e-07
0.000117785
-1.25839e-07
0.000117812
-1.46921e-07
0.000117838
-1.68079e-07
-1.89222e-07
0.000117863
0.000120309
1.51362e-08
0.000120317
4.38718e-08
0.000120329
6.9558e-08
0.000120346
9.16247e-08
0.000120366
1.09806e-07
0.00012039
1.24032e-07
0.000120415
1.34387e-07
0.000120443
1.41068e-07
0.000120472
1.4435e-07
0.000120503
1.44539e-07
0.000120534
1.41954e-07
0.000120566
1.36906e-07
0.000120598
1.29687e-07
0.000120631
1.20568e-07
0.000120663
1.09794e-07
0.000120696
9.75804e-08
0.000120728
8.41199e-08
0.00012076
6.95785e-08
0.000120791
5.41003e-08
0.000120823
3.78093e-08
0.000120854
2.08117e-08
0.000120884
3.19868e-09
0.000120914
-1.49514e-08
0.000120944
-3.35703e-08
0.000120973
-5.25974e-08
0.000121002
-7.19779e-08
0.00012103
-9.166e-08
0.000121057
-1.11593e-07
0.000121084
-1.31727e-07
0.00012111
-1.52009e-07
0.000121136
-1.72385e-07
0.00012116
-1.92801e-07
-2.1317e-07
0.000121184
0.000123746
1.25135e-08
0.000123753
3.62498e-08
0.000123766
5.7375e-08
0.000123782
7.53868e-08
0.000123802
9.00499e-08
0.000123824
1.01296e-07
0.00012385
1.09184e-07
0.000123877
1.13875e-07
0.000123905
1.15589e-07
0.000123935
1.14582e-07
0.000123966
1.1112e-07
0.000123998
1.05465e-07
0.00012403
9.78641e-08
0.000124062
8.85494e-08
0.000124094
7.77315e-08
0.000124126
6.55991e-08
0.000124157
5.23199e-08
0.000124189
3.80407e-08
0.00012422
2.28902e-08
0.000124251
6.98018e-09
0.000124281
-9.59181e-09
0.000124311
-2.6741e-08
0.000124341
-4.43928e-08
0.00012437
-6.24809e-08
0.000124398
-8.09456e-08
0.000124426
-9.97313e-08
0.000124453
-1.18785e-07
0.000124479
-1.38056e-07
0.000124505
-1.57492e-07
0.00012453
-1.77042e-07
0.000124554
-1.96652e-07
0.000124578
-2.16271e-07
-2.35817e-07
0.000124601
0.000127281
9.9681e-09
0.000127288
2.88529e-08
0.0001273
4.55455e-08
0.000127316
5.96e-08
0.000127335
7.08058e-08
0.000127358
7.91012e-08
0.000127382
8.45307e-08
0.000127409
8.72192e-08
0.000127437
8.73461e-08
0.000127467
8.51166e-08
0.000127497
8.07554e-08
0.000127528
7.44725e-08
0.000127559
6.64743e-08
0.000127591
5.69556e-08
0.000127623
4.60942e-08
0.000127654
3.4051e-08
0.000127685
2.09701e-08
0.000127716
6.97864e-09
0.000127747
-7.81045e-09
0.000127777
-2.32975e-08
0.000127807
-3.93947e-08
0.000127837
-5.60239e-08
0.000127865
-7.31157e-08
0.000127893
-9.06068e-08
0.000127921
-1.08439e-07
0.000127948
-1.26558e-07
0.000127974
-1.44912e-07
0.000127999
-1.63448e-07
0.000128024
-1.82118e-07
0.000128048
-2.0087e-07
0.000128071
-2.19652e-07
0.000128093
-2.38418e-07
-2.57089e-07
0.000128114
0.000130917
7.49607e-09
0.000130925
2.16671e-08
0.000130936
3.40443e-08
0.000130951
4.42289e-08
0.00013097
5.20283e-08
0.000130992
5.73984e-08
0.000131016
6.03742e-08
0.000131042
6.10529e-08
0.00013107
5.95771e-08
0.000131099
5.6106e-08
0.000131129
5.08303e-08
0.000131159
4.39085e-08
0.00013119
3.5508e-08
0.000131222
2.57873e-08
0.000131253
1.48919e-08
0.000131284
2.95476e-09
0.000131315
-9.90185e-09
0.000131345
-2.35723e-08
0.000131375
-3.7959e-08
0.000131405
-5.29752e-08
0.000131434
-6.85432e-08
0.000131463
-8.45927e-08
0.000131491
-1.0106e-07
0.000131518
-1.17885e-07
0.000131545
-1.35014e-07
0.000131571
-1.52394e-07
0.000131596
-1.69975e-07
0.00013162
-1.87707e-07
0.000131643
-2.0554e-07
0.000131666
-2.23428e-07
0.000131687
-2.41321e-07
0.000131708
-2.59174e-07
-2.76917e-07
0.000131728
0.000134658
5.08838e-09
0.000134665
1.4669e-08
0.000134676
2.28291e-08
0.000134691
2.92178e-08
0.000134709
3.36523e-08
0.00013473
3.61196e-08
0.000134754
3.66486e-08
0.00013478
3.53153e-08
0.000134807
3.22289e-08
0.000134836
2.75096e-08
0.000134865
2.13236e-08
0.000134895
1.37582e-08
0.000134926
4.96059e-09
0.000134957
-4.95115e-09
0.000134988
-1.58635e-08
0.000135018
-2.76675e-08
0.000135049
-4.02681e-08
0.000135079
-5.35775e-08
0.000135108
-6.75152e-08
0.000135137
-8.20079e-08
0.000135166
-9.69884e-08
0.000135193
-1.12395e-07
0.00013522
-1.2817e-07
0.000135247
-1.4426e-07
0.000135272
-1.60614e-07
0.000135297
-1.77182e-07
0.000135321
-1.93917e-07
0.000135344
-2.10772e-07
0.000135366
-2.277e-07
0.000135388
-2.44657e-07
0.000135408
-2.61595e-07
0.000135427
-2.78475e-07
-2.95229e-07
0.000135446
0.000138505
2.75689e-09
0.000138511
7.87559e-09
0.000138522
1.19198e-08
0.000138537
1.45671e-08
0.000138555
1.56412e-08
0.000138576
1.52099e-08
0.000138599
1.32855e-08
0.000138625
9.93339e-09
0.000138652
5.22955e-09
0.00013868
-7.81995e-10
0.000138709
-7.8476e-09
0.000138739
-1.6046e-08
0.000138769
-2.52235e-08
0.000138799
-3.5302e-08
0.00013883
-4.61972e-08
0.00013886
-5.78305e-08
0.00013889
-7.013e-08
0.000138919
-8.30279e-08
0.000138948
-9.64607e-08
0.000138977
-1.10369e-07
0.000139004
-1.24697e-07
0.000139031
-1.39392e-07
0.000139057
-1.54403e-07
0.000139083
-1.69684e-07
0.000139107
-1.85188e-07
0.000139131
-2.00869e-07
0.000139154
-2.16684e-07
0.000139176
-2.3259e-07
0.000139197
-2.48542e-07
0.000139216
-2.64499e-07
0.000139235
-2.80419e-07
0.000139253
-2.96263e-07
-3.1197e-07
0.00013927
0.000142462
4.46208e-10
0.000142468
1.18639e-09
0.000142479
1.17296e-09
0.000142493
1.97137e-10
0.000142511
-2.09503e-09
0.000142532
-5.41447e-09
0.000142555
-9.79121e-09
0.00014258
-1.51642e-08
0.000142607
-2.14789e-08
0.000142635
-2.86848e-08
0.000142663
-3.66973e-08
0.000142693
-4.55061e-08
0.000142723
-5.5043e-08
0.000142753
-6.5257e-08
0.000142782
-7.6099e-08
0.000142812
-8.75193e-08
0.000142842
-9.94695e-08
0.00014287
-1.11902e-07
0.000142899
-1.24771e-07
0.000142926
-1.38031e-07
0.000142953
-1.51639e-07
0.000142979
-1.65551e-07
0.000143005
-1.79726e-07
0.000143029
-1.94123e-07
0.000143053
-2.087e-07
0.000143075
-2.23419e-07
0.000143097
-2.38239e-07
0.000143117
-2.5312e-07
0.000143137
-2.68024e-07
0.000143155
-2.82911e-07
0.000143173
-2.97743e-07
0.000143189
-3.12485e-07
-3.2708e-07
0.000143204
0.000146531
-1.66509e-09
0.000146538
-5.10784e-09
0.000146548
-9.11175e-09
0.000146562
-1.39301e-08
0.00014658
-1.95716e-08
0.0001466
-2.58656e-08
0.000146623
-3.27533e-08
0.000146648
-4.01826e-08
0.000146675
-4.81184e-08
0.000146703
-5.65489e-08
0.000146731
-6.54482e-08
0.000146761
-7.48213e-08
0.00014679
-8.46595e-08
0.00014682
-9.49485e-08
0.000146849
-1.05672e-07
0.000146879
-1.1681e-07
0.000146908
-1.28338e-07
0.000146936
-1.40231e-07
0.000146964
-1.52459e-07
0.000146991
-1.64993e-07
0.000147017
-1.77801e-07
0.000147042
-1.9085e-07
0.000147066
-2.04107e-07
0.00014709
-2.17538e-07
0.000147112
-2.3111e-07
0.000147134
-2.44786e-07
0.000147154
-2.58533e-07
0.000147173
-2.72314e-07
0.000147191
-2.86096e-07
0.000147208
-2.99843e-07
0.000147224
-3.1352e-07
0.000147239
-3.27098e-07
-3.40522e-07
0.000147252
0.000150718
-4.0704e-09
0.000150725
-1.16243e-08
0.000150735
-1.95085e-08
0.000150749
-2.79441e-08
0.000150766
-3.6855e-08
0.000150786
-4.60579e-08
0.000150809
-5.54326e-08
0.000150834
-6.49128e-08
0.00015086
-7.44756e-08
0.000150888
-8.41338e-08
0.000150916
-9.39098e-08
0.000150945
-1.03842e-07
0.000150975
-1.13964e-07
0.000151004
-1.24299e-07
0.000151033
-1.34866e-07
0.000151062
-1.45673e-07
0.00015109
-1.56723e-07
0.000151118
-1.68013e-07
0.000151145
-1.79532e-07
0.000151172
-1.91267e-07
0.000151197
-2.03198e-07
0.000151221
-2.15305e-07
0.000151245
-2.27564e-07
0.000151267
-2.39948e-07
0.000151289
-2.52431e-07
0.000151309
-2.64984e-07
0.000151328
-2.77577e-07
0.000151346
-2.9018e-07
0.000151362
-3.02762e-07
0.000151378
-3.15293e-07
0.000151392
-3.27742e-07
0.000151405
-3.4008e-07
-3.52261e-07
0.000151417
0.000155023
-5.33859e-09
0.000155028
-1.68064e-08
0.000155037
-2.88756e-08
0.000155051
-4.15422e-08
0.000155068
-5.43023e-08
0.000155089
-6.67874e-08
0.000155113
-7.88296e-08
0.000155138
-9.03948e-08
0.000155165
-1.01525e-07
0.000155193
-1.123e-07
0.000155222
-1.22812e-07
0.000155252
-1.33153e-07
0.000155281
-1.43408e-07
0.00015531
-1.53644e-07
0.000155339
-1.63916e-07
0.000155368
-1.74265e-07
0.000155396
-1.84717e-07
0.000155423
-1.95291e-07
0.00015545
-2.05995e-07
0.000155475
-2.16828e-07
0.0001555
-2.27785e-07
0.000155523
-2.38855e-07
0.000155546
-2.50024e-07
0.000155567
-2.61273e-07
0.000155587
-2.72582e-07
0.000155606
-2.83928e-07
0.000155624
-2.95287e-07
0.00015564
-3.06633e-07
0.000155656
-3.17942e-07
0.00015567
-3.29187e-07
0.000155682
-3.4034e-07
0.000155693
-3.5138e-07
-3.62262e-07
0.000155703
0.000159454
-9.09837e-09
0.000159461
-2.3746e-08
0.000159471
-3.89496e-08
0.000159485
-5.4785e-08
0.000159501
-7.07814e-08
0.000159521
-8.63546e-08
0.000159543
-1.01125e-07
0.000159568
-1.14948e-07
0.000159594
-1.27843e-07
0.000159621
-1.39915e-07
0.00015965
-1.51304e-07
0.000159679
-1.62155e-07
0.000159708
-1.72604e-07
0.000159737
-1.82766e-07
0.000159766
-1.92739e-07
0.000159794
-2.02599e-07
0.000159822
-2.12405e-07
0.000159849
-2.222e-07
0.000159875
-2.32012e-07
0.0001599
-2.41861e-07
0.000159924
-2.51755e-07
0.000159947
-2.61697e-07
0.000159969
-2.71682e-07
0.000159989
-2.817e-07
0.000160008
-2.91741e-07
0.000160026
-3.01787e-07
0.000160043
-3.1182e-07
0.000160058
-3.21821e-07
0.000160072
-3.31769e-07
0.000160084
-3.41642e-07
0.000160095
-3.51417e-07
0.000160105
-3.61073e-07
-3.70575e-07
0.000160113
0.000164003
-6.43218e-09
0.000164005
-2.53879e-08
0.000164013
-4.67912e-08
0.000164027
-6.89105e-08
0.000164046
-9.00251e-08
0.000164069
-1.09386e-07
0.000164095
-1.26852e-07
0.000164123
-1.42541e-07
0.000164151
-1.56671e-07
0.000164181
-1.69488e-07
0.000164211
-1.81235e-07
0.000164241
-1.92135e-07
0.000164271
-2.02382e-07
0.0001643
-2.12139e-07
0.000164329
-2.21537e-07
0.000164357
-2.30679e-07
0.000164384
-2.39645e-07
0.000164411
-2.48497e-07
0.000164436
-2.57279e-07
0.00016446
-2.66021e-07
0.000164483
-2.74744e-07
0.000164505
-2.83459e-07
0.000164525
-2.9217e-07
0.000164544
-3.00875e-07
0.000164562
-3.09567e-07
0.000164579
-3.18238e-07
0.000164594
-3.26874e-07
0.000164607
-3.35462e-07
0.00016462
-3.43984e-07
0.00016463
-3.52424e-07
0.00016464
-3.60764e-07
0.000164648
-3.68988e-07
-3.77062e-07
0.000164654
0.000168701
-1.58018e-08
0.000168709
-3.33096e-08
0.000168717
-5.42576e-08
0.000168726
-7.82114e-08
0.000168739
-1.03175e-07
0.000168757
-1.26915e-07
0.000168778
-1.4828e-07
0.000168802
-1.67065e-07
0.000168829
-1.83495e-07
0.000168858
-1.97903e-07
0.000168887
-2.10638e-07
0.000168917
-2.22028e-07
0.000168947
-2.32361e-07
0.000168977
-2.41876e-07
0.000169006
-2.50767e-07
0.000169034
-2.59192e-07
0.000169062
-2.67271e-07
0.000169089
-2.75097e-07
0.000169114
-2.82743e-07
0.000169138
-2.90258e-07
0.000169161
-2.97681e-07
0.000169183
-3.05036e-07
0.000169203
-3.12339e-07
0.000169222
-3.19597e-07
0.000169239
-3.26813e-07
0.000169255
-3.33984e-07
0.000169269
-3.41104e-07
0.000169282
-3.48163e-07
0.000169293
-3.55151e-07
0.000169303
-3.62053e-07
0.000169311
-3.68858e-07
0.000169317
-3.7555e-07
-3.82105e-07
0.000169322
0.000173491
4.21344e-09
0.000173485
-2.68517e-08
0.000173494
-6.33522e-08
0.000173515
-9.8952e-08
0.000173542
-1.30317e-07
0.000173572
-1.57073e-07
0.000173604
-1.79827e-07
0.000173636
-1.99162e-07
0.000173668
-2.15654e-07
0.0001737
-2.29807e-07
0.000173731
-2.42074e-07
0.000173762
-2.52844e-07
0.000173792
-2.62437e-07
0.000173821
-2.71109e-07
0.00017385
-2.79068e-07
0.000173877
-2.86477e-07
0.000173903
-2.93464e-07
0.000173928
-3.00129e-07
0.000173952
-3.06549e-07
0.000173974
-3.12783e-07
0.000173996
-3.18871e-07
0.000174015
-3.24847e-07
0.000174034
-3.30731e-07
0.000174051
-3.36536e-07
0.000174066
-3.42271e-07
0.00017408
-3.47938e-07
0.000174093
-3.53535e-07
0.000174103
-3.59059e-07
0.000174113
-3.64502e-07
0.000174121
-3.69858e-07
0.000174127
-3.75114e-07
0.000174132
-3.80264e-07
-3.85282e-07
0.000174135
0.000178498
-2.48523e-08
0.000178499
-2.8665e-08
0.000178488
-5.18296e-08
0.000178479
-9.00577e-08
0.000178481
-1.32173e-07
0.000178494
-1.69755e-07
0.000178514
-2.00567e-07
0.00017854
-2.25348e-07
0.00017857
-2.45413e-07
0.000178602
-2.61745e-07
0.000178635
-2.75146e-07
0.000178669
-2.86282e-07
0.000178702
-2.9568e-07
0.000178735
-3.03751e-07
0.000178766
-3.10811e-07
0.000178797
-3.17106e-07
0.000178826
-3.2282e-07
0.000178854
-3.28094e-07
0.000178881
-3.33036e-07
0.000178906
-3.37726e-07
0.000178929
-3.42222e-07
0.000178951
-3.46568e-07
0.000178971
-3.50794e-07
0.000178989
-3.54923e-07
0.000179006
-3.58967e-07
0.000179021
-3.62935e-07
0.000179034
-3.6683e-07
0.000179046
-3.70654e-07
0.000179056
-3.74403e-07
0.000179064
-3.78073e-07
0.00017907
-3.81659e-07
0.000179075
-3.85155e-07
-3.88545e-07
0.000179079
0.000183487
5.58973e-08
0.000183465
-6.67334e-09
0.000183501
-8.76784e-08
0.000183551
-1.40763e-07
0.000183601
-1.82149e-07
0.000183646
-2.14446e-07
0.000183686
-2.40396e-07
0.000183722
-2.61793e-07
0.000183756
-2.79353e-07
0.000183788
-2.93783e-07
0.000183819
-3.05751e-07
0.000183848
-3.15769e-07
0.000183877
-3.24236e-07
0.000183904
-3.31468e-07
0.000183931
-3.37718e-07
0.000183957
-3.43185e-07
0.000183983
-3.48027e-07
0.000184007
-3.52367e-07
0.00018403
-3.56303e-07
0.000184052
-3.59911e-07
0.000184073
-3.63251e-07
0.000184093
-3.66369e-07
0.000184112
-3.69301e-07
0.000184129
-3.72074e-07
0.000184145
-3.74709e-07
0.000184159
-3.7722e-07
0.000184172
-3.79619e-07
0.000184183
-3.81912e-07
0.000184193
-3.84102e-07
0.000184201
-3.86192e-07
0.000184207
-3.88178e-07
0.000184212
-3.90059e-07
-3.91827e-07
0.000184216
0.000188861
7.25703e-09
0.000188795
5.89185e-08
0.000188709
-1.24254e-09
0.000188644
-7.64579e-08
0.000188625
-1.63316e-07
0.000188638
-2.27086e-07
0.000188669
-2.71413e-07
0.00018871
-3.03096e-07
0.000188757
-3.26363e-07
0.000188807
-3.43795e-07
0.000188859
-3.5702e-07
0.00018891
-3.67162e-07
0.000188961
-3.75019e-07
0.000189011
-3.8116e-07
0.000189059
-3.85998e-07
0.000189105
-3.89833e-07
0.00018915
-3.92892e-07