/*--------------------------------*- C++ -*----------------------------------*\
| =========                 |                                                 |
| \\      /  F ield         | OpenFOAM: The Open Source CFD Toolbox           |
|  \\    /   O peration     | Version:  2.1.1                                 |
|   \\  /    A nd           | Web:      www.OpenFOAM.org                      |
|    \\/     M anipulation  |                                                 |
\*---------------------------------------------------------------------------*/
FoamFile
{
    version     2.0;
    format      ascii;
    class       volVectorField;
    location    "0.115";
    object      U;
}
// * * * * * * * * * * * * * * * * * * * * * * * * * * * * * * * * * * * * * //

dimensions      [0 1 -1 0 0 0 0];

internalField   nonuniform List<vector> 
6820
(
(8.34337 -0.360078 0)
(8.40112 -0.247163 0)
(8.35617 -0.115305 0)
(8.24794 -0.0365756 0)
(8.11959 0.0059819 0)
(7.98629 0.0278342 0)
(7.85433 0.0385942 0)
(7.72711 0.0432844 0)
(7.60603 0.0445464 0)
(7.49166 0.0438367 0)
(7.38422 0.041997 0)
(7.28373 0.0395313 0)
(7.19009 0.0367507 0)
(7.10307 0.0338508 0)
(7.02241 0.0309549 0)
(6.94777 0.0281405 0)
(6.87883 0.0254546 0)
(6.81521 0.022924 0)
(6.75656 0.0205618 0)
(6.70253 0.0183725 0)
(6.65278 0.0163543 0)
(6.60698 0.0145027 0)
(6.5648 0.0128117 0)
(6.52596 0.0112757 0)
(6.49016 0.00989205 0)
(6.45709 0.00866499 0)
(6.42645 0.00760989 0)
(6.39784 0.00677659 0)
(6.37082 0.00626001 0)
(6.34448 0.00633359 0)
(6.31727 0.00781938 0)
(6.2864 0.0113502 0)
(6.24208 0.0296414 0)
(8.32139 0.166247 0)
(8.28709 0.18999 0)
(8.28545 0.132136 0)
(8.31743 0.0958171 0)
(8.36175 0.074968 0)
(8.40184 0.062294 0)
(8.43297 0.0547975 0)
(8.45512 0.050259 0)
(8.46913 0.047337 0)
(8.47601 0.0453182 0)
(8.47681 0.0438076 0)
(8.47247 0.0425674 0)
(8.46381 0.0414582 0)
(8.45157 0.0404031 0)
(8.43639 0.0393611 0)
(8.41882 0.0383131 0)
(8.39934 0.0372528 0)
(8.37838 0.0361806 0)
(8.35629 0.0351008 0)
(8.33338 0.0340192 0)
(8.30991 0.0329427 0)
(8.28609 0.0318784 0)
(8.2621 0.0308347 0)
(8.23812 0.0298213 0)
(8.21425 0.0288522 0)
(8.1906 0.0279487 0)
(8.16727 0.0271487 0)
(8.1443 0.0265211 0)
(8.12196 0.0261923 0)
(8.09998 0.0264896 0)
(8.08061 0.0277882 0)
(8.06117 0.0321426 0)
(8.06319 0.0394244 0)
(8.3225 -0.0608897 0)
(8.31399 -0.0832964 0)
(8.33054 -0.0541205 0)
(8.34439 -0.0203349 0)
(8.35331 0.00236036 0)
(8.36238 0.01647 0)
(8.37217 0.0256912 0)
(8.38227 0.0318887 0)
(8.3922 0.0360863 0)
(8.40156 0.0389289 0)
(8.41012 0.0408109 0)
(8.41774 0.0419761 0)
(8.42437 0.042598 0)
(8.42998 0.0428075 0)
(8.43461 0.0427035 0)
(8.43829 0.0423618 0)
(8.44108 0.0418415 0)
(8.44304 0.0411884 0)
(8.44424 0.0404388 0)
(8.44474 0.0396212 0)
(8.44462 0.0387586 0)
(8.44395 0.0378699 0)
(8.44278 0.0369715 0)
(8.44117 0.0360794 0)
(8.43918 0.0352114 0)
(8.43686 0.0343889 0)
(8.43427 0.0336499 0)
(8.43143 0.0330312 0)
(8.42849 0.032666 0)
(8.42546 0.0325054 0)
(8.42289 0.0332229 0)
(8.42066 0.0328918 0)
(8.42008 0.0356003 0)
(8.33365 0.0145569 0)
(8.32978 0.0476771 0)
(8.32741 0.0539297 0)
(8.32878 0.0465056 0)
(8.3347 0.0409898 0)
(8.34229 0.0384657 0)
(8.34985 0.0376331 0)
(8.35715 0.0375637 0)
(8.36423 0.037756 0)
(8.37105 0.0379892 0)
(8.37758 0.0381645 0)
(8.38381 0.0382403 0)
(8.38973 0.0382066 0)
(8.3953 0.0380664 0)
(8.40054 0.0378274 0)
(8.40543 0.0375001 0)
(8.40998 0.0370963 0)
(8.41421 0.0366275 0)
(8.41814 0.0361051 0)
(8.42177 0.0355396 0)
(8.42514 0.0349408 0)
(8.42826 0.0343184 0)
(8.43115 0.0336823 0)
(8.43384 0.0330439 0)
(8.43635 0.0324175 0)
(8.43871 0.0318217 0)
(8.44094 0.0312867 0)
(8.44309 0.0308471 0)
(8.44526 0.0305744 0)
(8.4475 0.030494 0)
(8.45028 0.0307596 0)
(8.45359 0.03105 0)
(8.45889 0.031806 0)
(8.3302 -0.00531806 0)
(8.32723 -0.00753016 0)
(8.33141 -0.00249823 0)
(8.33612 0.0079665 0)
(8.34024 0.0171192 0)
(8.34446 0.0233122 0)
(8.34893 0.0274693 0)
(8.35366 0.0304023 0)
(8.35857 0.0325122 0)
(8.36354 0.0340309 0)
(8.36848 0.0351033 0)
(8.37335 0.0358235 0)
(8.37812 0.0362574 0)
(8.38276 0.0364562 0)
(8.38725 0.0364614 0)
(8.39159 0.0363082 0)
(8.39579 0.0360259 0)
(8.39983 0.0356392 0)
(8.40373 0.035169 0)
(8.40749 0.0346327 0)
(8.41112 0.0340453 0)
(8.41464 0.0334201 0)
(8.41805 0.0327695 0)
(8.42137 0.0321057 0)
(8.42462 0.0314429 0)
(8.4278 0.0307969 0)
(8.43097 0.0301904 0)
(8.43413 0.0296421 0)
(8.4374 0.0291939 0)
(8.44082 0.0288127 0)
(8.44465 0.0285749 0)
(8.44894 0.0280091 0)
(8.45406 0.0273368 0)
(8.33239 0.00227512 0)
(8.33119 0.0132811 0)
(8.33283 0.0203489 0)
(8.33556 0.0237145 0)
(8.33905 0.0258397 0)
(8.34315 0.027617 0)
(8.34744 0.0292605 0)
(8.35176 0.0307183 0)
(8.35609 0.0319093 0)
(8.3604 0.0328221 0)
(8.36468 0.0334783 0)
(8.3689 0.0339053 0)
(8.37306 0.0341313 0)
(8.37714 0.0341846 0)
(8.38114 0.0340913 0)
(8.38505 0.0338745 0)
(8.38887 0.0335545 0)
(8.3926 0.0331486 0)
(8.39625 0.0326719 0)
(8.39982 0.0321373 0)
(8.40333 0.031556 0)
(8.40677 0.0309384 0)
(8.41016 0.0302938 0)
(8.4135 0.0296319 0)
(8.41683 0.028963 0)
(8.42014 0.0282981 0)
(8.42348 0.0276507 0)
(8.42687 0.0270286 0)
(8.43037 0.0264444 0)
(8.43406 0.025861 0)
(8.43808 0.025262 0)
(8.44247 0.0243837 0)
(8.44733 0.0232049 0)
(8.33233 0.0008607 0)
(8.33153 0.0057477 0)
(8.33344 0.0106998 0)
(8.33651 0.0154731 0)
(8.33995 0.0198295 0)
(8.34365 0.0233076 0)
(8.34746 0.0259535 0)
(8.3513 0.0279621 0)
(8.35517 0.0294697 0)
(8.35905 0.0305783 0)
(8.36292 0.0313644 0)
(8.36674 0.0318835 0)
(8.37052 0.0321781 0)
(8.37424 0.0322837 0)
(8.3779 0.03223 0)
(8.3815 0.0320423 0)
(8.38504 0.0317419 0)
(8.38852 0.0313471 0)
(8.39194 0.0308737 0)
(8.39531 0.0303347 0)
(8.39864 0.0297416 0)
(8.40194 0.0291044 0)
(8.40521 0.028432 0)
(8.40847 0.0277326 0)
(8.41172 0.0270142 0)
(8.415 0.0262837 0)
(8.41831 0.0255476 0)
(8.4217 0.0248047 0)
(8.42521 0.0240505 0)
(8.42889 0.023243 0)
(8.43282 0.022338 0)
(8.437 0.0211545 0)
(8.44144 0.0196161 0)
(8.33272 0.00169786 0)
(8.33256 0.00725152 0)
(8.3342 0.0125175 0)
(8.33681 0.0167512 0)
(8.33988 0.0201677 0)
(8.34331 0.0228546 0)
(8.34692 0.0249751 0)
(8.35059 0.026662 0)
(8.35428 0.0279745 0)
(8.35796 0.0289586 0)
(8.36162 0.0296597 0)
(8.36523 0.0301174 0)
(8.36879 0.0303659 0)
(8.3723 0.0304355 0)
(8.37576 0.0303524 0)
(8.37916 0.0301394 0)
(8.38251 0.0298163 0)
(8.38581 0.0293997 0)
(8.38907 0.0289037 0)
(8.39229 0.0283405 0)
(8.39548 0.0277201 0)
(8.39865 0.0270513 0)
(8.40181 0.0263414 0)
(8.40496 0.0255968 0)
(8.40813 0.0248225 0)
(8.41133 0.0240217 0)
(8.41457 0.023195 0)
(8.41789 0.0223354 0)
(8.42133 0.0214288 0)
(8.4249 0.0204351 0)
(8.42865 0.0193043 0)
(8.43258 0.0179188 0)
(8.43664 0.0162109 0)
(8.33284 0.0017743 0)
(8.33294 0.00641724 0)
(8.33445 0.0109011 0)
(8.33689 0.0147587 0)
(8.33979 0.01809 0)
(8.34303 0.0208462 0)
(8.34644 0.0230534 0)
(8.34992 0.0247943 0)
(8.35344 0.0261343 0)
(8.35696 0.0271307 0)
(8.36046 0.0278366 0)
(8.36393 0.0282955 0)
(8.36735 0.0285433 0)
(8.37072 0.0286107 0)
(8.37404 0.0285237 0)
(8.37731 0.0283048 0)
(8.38053 0.0279728 0)
(8.38371 0.0275439 0)
(8.38685 0.0270315 0)
(8.38996 0.0264472 0)
(8.39305 0.0258002 0)
(8.39612 0.0250985 0)
(8.39918 0.0243482 0)
(8.40225 0.023554 0)
(8.40533 0.0227188 0)
(8.40845 0.021843 0)
(8.41161 0.0209233 0)
(8.41484 0.0199494 0)
(8.41816 0.0189034 0)
(8.4216 0.0177498 0)
(8.42516 0.0164437 0)
(8.42883 0.0149081 0)
(8.43256 0.0130932 0)
(8.33294 0.00181441 0)
(8.33324 0.00608977 0)
(8.33465 0.0102666 0)
(8.33688 0.0138959 0)
(8.33957 0.0169934 0)
(8.34258 0.0195475 0)
(8.3458 0.021598 0)
(8.34912 0.0232238 0)
(8.3525 0.0244845 0)
(8.35589 0.0254274 0)
(8.35927 0.0260962 0)
(8.36262 0.0265283 0)
(8.36593 0.0267556 0)
(8.3692 0.026806 0)
(8.37243 0.0267037 0)
(8.3756 0.0264694 0)
(8.37874 0.0261209 0)
(8.38183 0.0256732 0)
(8.38489 0.025139 0)
(8.38792 0.0245288 0)
(8.39093 0.0238512 0)
(8.39392 0.0231129 0)
(8.39691 0.0223191 0)
(8.3999 0.0214729 0)
(8.40291 0.0205756 0)
(8.40594 0.0196252 0)
(8.40902 0.0186164 0)
(8.41216 0.0175376 0)
(8.41537 0.0163706 0)
(8.41866 0.0150858 0)
(8.42203 0.0136471 0)
(8.42546 0.0120047 0)
(8.42891 0.0101278 0)
(8.33299 0.00177603 0)
(8.33339 0.00565795 0)
(8.33471 0.00943044 0)
(8.33677 0.012757 0)
(8.33927 0.0156284 0)
(8.34209 0.0180359 0)
(8.34514 0.0199964 0)
(8.3483 0.0215613 0)
(8.35153 0.0227783 0)
(8.35479 0.0236889 0)
(8.35805 0.0243328 0)
(8.36129 0.0247452 0)
(8.36451 0.0249565 0)
(8.36769 0.0249929 0)
(8.37083 0.0248774 0)
(8.37393 0.0246294 0)
(8.37699 0.0242656 0)
(8.38001 0.0238002 0)
(8.383 0.023245 0)
(8.38597 0.0226097 0)
(8.38891 0.0219019 0)
(8.39184 0.0211276 0)
(8.39476 0.0202909 0)
(8.39769 0.0193938 0)
(8.40063 0.0184363 0)
(8.40359 0.0174153 0)
(8.40658 0.0163243 0)
(8.40962 0.0151521 0)
(8.41271 0.0138819 0)
(8.41586 0.0124905 0)
(8.41905 0.0109506 0)
(8.42228 0.0092305 0)
(8.4255 0.00731312 0)
(8.33302 0.00169651 0)
(8.33347 0.00524913 0)
(8.33472 0.00868896 0)
(8.33661 0.0117591 0)
(8.33894 0.0144231 0)
(8.34158 0.0166705 0)
(8.34445 0.018511 0)
(8.34746 0.0199844 0)
(8.35054 0.0211319 0)
(8.35367 0.0219905 0)
(8.35682 0.0225953 0)
(8.35996 0.0229775 0)
(8.36308 0.0231647 0)
(8.36617 0.0231809 0)
(8.36923 0.0230471 0)
(8.37225 0.0227813 0)
(8.37524 0.0223992 0)
(8.3782 0.0219135 0)
(8.38113 0.0213353 0)
(8.38403 0.0206734 0)
(8.38691 0.0199345 0)
(8.38978 0.0191239 0)
(8.39264 0.0182446 0)
(8.3955 0.0172981 0)
(8.39837 0.0162833 0)
(8.40126 0.0151966 0)
(8.40417 0.0140315 0)
(8.40711 0.0127776 0)
(8.41008 0.011421 0)
(8.41309 0.00994381 0)
(8.41612 0.00832667 0)
(8.41916 0.00654973 0)
(8.42217 0.00460538 0)
(8.33303 0.0015929 0)
(8.3335 0.00484079 0)
(8.33468 0.00796639 0)
(8.33643 0.0107785 0)
(8.3386 0.0132322 0)
(8.34108 0.0153162 0)
(8.34378 0.017035 0)
(8.34663 0.0184169 0)
(8.34958 0.0194948 0)
(8.35258 0.0203002 0)
(8.3556 0.0208634 0)
(8.35863 0.0212126 0)
(8.36166 0.0213727 0)
(8.36466 0.0213657 0)
(8.36763 0.0212111 0)
(8.37058 0.0209254 0)
(8.3735 0.0205229 0)
(8.37639 0.0200156 0)
(8.37925 0.0194134 0)
(8.38209 0.0187242 0)
(8.38491 0.0179543 0)
(8.38771 0.017108 0)
(8.39051 0.0161878 0)
(8.3933 0.0151943 0)
(8.3961 0.0141262 0)
(8.39891 0.0129799 0)
(8.40173 0.0117492 0)
(8.40457 0.0104254 0)
(8.40742 0.00899724 0)
(8.4103 0.00745165 0)
(8.41317 0.0057754 0)
(8.41604 0.0039565 0)
(8.41888 0.00199319 0)
(8.33304 0.00147682 0)
(8.33351 0.00444063 0)
(8.33461 0.00727783 0)
(8.33625 0.00984604 0)
(8.33827 0.0120976 0)
(8.34059 0.014019 0)
(8.34314 0.015611 0)
(8.34584 0.0168935 0)
(8.34865 0.0178933 0)
(8.35152 0.0186372 0)
(8.35442 0.0191516 0)
(8.35735 0.0194614 0)
(8.36027 0.019589 0)
(8.36318 0.0195543 0)
(8.36607 0.0193749 0)
(8.36893 0.0190659 0)
(8.37177 0.0186405 0)
(8.37459 0.0181094 0)
(8.37738 0.0174818 0)
(8.38015 0.0167648 0)
(8.3829 0.0159637 0)
(8.38564 0.0150824 0)
(8.38837 0.0141228 0)
(8.39109 0.0130853 0)
(8.39381 0.0119683 0)
(8.39653 0.0107686 0)
(8.39926 0.00948069 0)
(8.40199 0.00809761 0)
(8.40473 0.00661079 0)
(8.40747 0.00501094 0)
(8.4102 0.00328945 0)
(8.41291 0.00143947 0)
(8.41558 -0.000537323 0)
(8.33304 0.00135528 0)
(8.3335 0.0040495 0)
(8.33454 0.00661672 0)
(8.33606 0.00894959 0)
(8.33794 0.0110026 0)
(8.34012 0.0127606 0)
(8.34253 0.014222 0)
(8.34509 0.0154007 0)
(8.34776 0.0163177 0)
(8.3505 0.0169954 0)
(8.35329 0.0174566 0)
(8.35611 0.0177227 0)
(8.35892 0.0178139 0)
(8.36174 0.017748 0)
(8.36454 0.0175407 0)
(8.36732 0.017206 0)
(8.37008 0.0167556 0)
(8.37282 0.0161993 0)
(8.37554 0.0155454 0)
(8.37824 0.0148001 0)
(8.38092 0.0139684 0)
(8.38358 0.0130533 0)
(8.38623 0.0120566 0)
(8.38887 0.0109785 0)
(8.39151 0.00981741 0)
(8.39414 0.00857058 0)
(8.39676 0.00723367 0)
(8.39939 0.00580117 0)
(8.40201 0.00426685 0)
(8.40461 0.00262442 0)
(8.4072 0.000868622 0)
(8.40976 -0.00100411 0)
(8.41228 -0.00299024 0)
(8.33304 0.00123249 0)
(8.33348 0.00366891 0)
(8.33446 0.00598194 0)
(8.33587 0.00808889 0)
(8.33764 0.00994831 0)
(8.33969 0.0115441 0)
(8.34195 0.0128729 0)
(8.34438 0.0139439 0)
(8.34692 0.0147734 0)
(8.34954 0.01538 0)
(8.35222 0.0157829 0)
(8.35492 0.0160009 0)
(8.35764 0.0160516 0)
(8.36035 0.0159509 0)
(8.36306 0.0157128 0)
(8.36576 0.0153499 0)
(8.36844 0.0148726 0)
(8.3711 0.0142898 0)
(8.37374 0.0136089 0)
(8.37636 0.0128355 0)
(8.37896 0.0119738 0)
(8.38154 0.0110267 0)
(8.38411 0.00999553 0)
(8.38667 0.00888047 0)
(8.38921 0.00768034 0)
(8.39174 0.0063928 0)
(8.39427 0.00501455 0)
(8.39678 0.00354154 0)
(8.39927 0.00196945 0)
(8.40175 0.000294249 0)
(8.4042 -0.00148698 0)
(8.40662 -0.00337571 0)
(8.40899 -0.00536749 0)
(8.33304 0.00111086 0)
(8.33346 0.00329959 0)
(8.33437 0.00537136 0)
(8.3357 0.00726072 0)
(8.33735 0.00893096 0)
(8.33928 0.0103657 0)
(8.34141 0.0115603 0)
(8.34371 0.0125204 0)
(8.34613 0.0132586 0)
(8.34864 0.01379 0)
(8.3512 0.0141307 0)
(8.35379 0.0142968 0)
(8.35641 0.0143036 0)
(8.35903 0.0141651 0)
(8.36165 0.0138938 0)
(8.36426 0.0135007 0)
(8.36685 0.0129951 0)
(8.36943 0.0123851 0)
(8.37198 0.011677 0)
(8.37452 0.0108759 0)
(8.37704 0.00998562 0)
(8.37954 0.00900856 0)
(8.38202 0.00794601 0)
(8.38448 0.00679814 0)
(8.38693 0.00556411 0)
(8.38936 0.00424217 0)
(8.39178 0.00282994 0)
(8.39418 0.00132461 0)
(8.39655 -0.000276614 0)
(8.3989 -0.00197609 0)
(8.40121 -0.00377514 0)
(8.40349 -0.00567395 0)
(8.40572 -0.00766767 0)
(8.33304 0.000991724 0)
(8.33344 0.00294185 0)
(8.33429 0.00478331 0)
(8.33554 0.00646284 0)
(8.33709 0.00794834 0)
(8.3389 0.00922373 0)
(8.34092 0.0102833 0)
(8.3431 0.0111303 0)
(8.3454 0.0117741 0)
(8.34779 0.0122267 0)
(8.35024 0.0125017 0)
(8.35273 0.0126125 0)
(8.35524 0.0125725 0)
(8.35777 0.0123936 0)
(8.36029 0.0120869 0)
(8.36281 0.0116619 0)
(8.36532 0.0111271 0)
(8.36781 0.0104893 0)
(8.37028 0.00975436 0)
(8.37273 0.00892662 0)
(8.37516 0.00800941 0)
(8.37758 0.00700495 0)
(8.37997 0.00591442 0)
(8.38234 0.00473809 0)
(8.38468 0.00347545 0)
(8.38701 0.00212533 0)
(8.38932 0.000686128 0)
(8.39159 -0.000843925 0)
(8.39385 -0.00246646 0)
(8.39606 -0.00418263 0)
(8.39825 -0.00599268 0)
(8.40039 -0.00789601 0)
(8.40248 -0.00988772 0)
(8.33304 0.000875738 0)
(8.33341 0.00259563 0)
(8.33422 0.00421619 0)
(8.33538 0.00569294 0)
(8.33684 0.00699792 0)
(8.33854 0.0081157 0)
(8.34045 0.00904 0)
(8.34252 0.0097722 0)
(8.34471 0.010319 0)
(8.34699 0.01069 0)
(8.34933 0.0108962 0)
(8.35172 0.0109489 0)
(8.35414 0.0108594 0)
(8.35657 0.010638 0)
(8.359 0.0102941 0)
(8.36143 0.00983625 0)
(8.36385 0.00927153 0)
(8.36625 0.00860609 0)
(8.36863 0.00784489 0)
(8.371 0.00699184 0)
(8.37334 0.00604985 0)
(8.37566 0.0050209 0)
(8.37796 0.00390612 0)
(8.38023 0.0027059 0)
(8.38247 0.00142004 0)
(8.38469 4.78671e-05 0)
(8.38689 -0.00141154 0)
(8.38905 -0.00295915 0)
(8.39117 -0.00459572 0)
(8.39326 -0.00632153 0)
(8.39531 -0.00813614 0)
(8.39732 -0.0100385 0)
(8.39927 -0.0120238 0)
(8.33303 0.000763167 0)
(8.33339 0.00226064 0)
(8.33415 0.00366852 0)
(8.33524 0.00494892 0)
(8.33661 0.00607744 0)
(8.33822 0.00703962 0)
(8.34002 0.00782886 0)
(8.34199 0.00844515 0)
(8.34407 0.00889315 0)
(8.34625 0.00918026 0)
(8.34849 0.00931534 0)
(8.35078 0.00930775 0)
(8.3531 0.00916677 0)
(8.35543 0.00890119 0)
(8.35777 0.00851905 0)
(8.36011 0.00802753 0)
(8.36244 0.00743282 0)
(8.36475 0.00674017 0)
(8.36705 0.00595387 0)
(8.36932 0.00507731 0)
(8.37157 0.00411305 0)
(8.3738 0.00306285 0)
(8.376 0.0019278 0)
(8.37817 0.000708415 0)
(8.38031 -0.000595236 0)
(8.38242 -0.0019834 0)
(8.3845 -0.00345648 0)
(8.38654 -0.00501482 0)
(8.38854 -0.00665852 0)
(8.39051 -0.00838731 0)
(8.39243 -0.0102003 0)
(8.3943 -0.0120961 0)
(8.39612 -0.0140702 0)
(8.33303 0.000654043 0)
(8.33337 0.00193637 0)
(8.33408 0.00313887 0)
(8.33511 0.0042287 0)
(8.3364 0.00518453 0)
(8.33792 0.00599302 0)
(8.33963 0.00664752 0)
(8.34149 0.00714703 0)
(8.34348 0.00749462 0)
(8.34555 0.00769585 0)
(8.3477 0.00775772 0)
(8.34989 0.00768778 0)
(8.35212 0.00749363 0)
(8.35436 0.00718256 0)
(8.35661 0.00676129 0)
(8.35886 0.00623582 0)
(8.36109 0.00561138 0)
(8.36332 0.00489241 0)
(8.36552 0.00408255 0)
(8.36771 0.0031847 0)
(8.36986 0.00220106 0)
(8.37199 0.00113321 0)
(8.37409 -1.78045e-05 0)
(8.37616 -0.00125138 0)
(8.3782 -0.00256724 0)
(8.3802 -0.00396531 0)
(8.38216 -0.00544555 0)
(8.38408 -0.00700788 0)
(8.38597 -0.00865195 0)
(8.3878 -0.0103771 0)
(8.38959 -0.0121821 0)
(8.39133 -0.0140655 0)
(8.39302 -0.016023 0)
(8.33303 0.000548267 0)
(8.33334 0.00162227 0)
(8.33402 0.00262593 0)
(8.33499 0.00353055 0)
(8.33621 0.00431747 0)
(8.33764 0.00497457 0)
(8.33927 0.00549539 0)
(8.34104 0.00587823 0)
(8.34293 0.00612489 0)
(8.34491 0.00623937 0)
(8.34696 0.00622708 0)
(8.34906 0.00609389 0)
(8.3512 0.00584583 0)
(8.35335 0.0054888 0)
(8.35551 0.00502827 0)
(8.35767 0.00446918 0)
(8.35982 0.00381583 0)
(8.36195 0.00307188 0)
(8.36406 0.00224037 0)
(8.36615 0.00132373 0)
(8.36822 0.000323845 0)
(8.37025 -0.000757897 0)
(8.37225 -0.00192051 0)
(8.37421 -0.00316334 0)
(8.37614 -0.00448594 0)
(8.37803 -0.00588799 0)
(8.37988 -0.00736917 0)
(8.38169 -0.00892905 0)
(8.38345 -0.010567 0)
(8.38516 -0.012282 0)
(8.38682 -0.0140728 0)
(8.38843 -0.015938 0)
(8.38998 -0.0178732 0)
(8.33303 0.000445664 0)
(8.33333 0.0013176 0)
(8.33396 0.00212813 0)
(8.33488 0.00285193 0)
(8.33603 0.00347257 0)
(8.33739 0.00397937 0)
(8.33893 0.00436633 0)
(8.34062 0.00463141 0)
(8.34242 0.0047755 0)
(8.34432 0.00480133 0)
(8.34628 0.00471307 0)
(8.34829 0.00451511 0)
(8.35034 0.00421207 0)
(8.3524 0.00380854 0)
(8.35447 0.0033088 0)
(8.35655 0.00271673 0)
(8.35861 0.00203575 0)
(8.36065 0.00126877 0)
(8.36267 0.000418202 0)
(8.36467 -0.000513985 0)
(8.36664 -0.00152624 0)
(8.36857 -0.00261739 0)
(8.37047 -0.00378654 0)
(8.37233 -0.00503301 0)
(8.37416 -0.00635628 0)
(8.37594 -0.00775587 0)
(8.37767 -0.00923124 0)
(8.37936 -0.0107818 0)
(8.38099 -0.0124066 0)
(8.38258 -0.0141046 0)
(8.38412 -0.0158744 0)
(8.38559 -0.0177146 0)
(8.38702 -0.0196211 0)
(8.33303 0.000346058 0)
(8.33331 0.00102195 0)
(8.33391 0.0016451 0)
(8.33477 0.00219341 0)
(8.33587 0.0026524 0)
(8.33716 0.00301278 0)
(8.33863 0.00326901 0)
(8.34023 0.00341879 0)
(8.34196 0.00346228 0)
(8.34377 0.00340109 0)
(8.34565 0.00323826 0)
(8.34758 0.00297638 0)
(8.34954 0.00261904 0)
(8.35152 0.0021697 0)
(8.35351 0.00163155 0)
(8.35549 0.00100756 0)
(8.35747 0.00030029 0)
(8.35942 -0.000488009 0)
(8.36136 -0.00135546 0)
(8.36326 -0.00230053 0)
(8.36513 -0.00332198 0)
(8.36697 -0.00441884 0)
(8.36877 -0.00559032 0)
(8.37053 -0.00683578 0)
(8.37224 -0.00815463 0)
(8.37391 -0.00954628 0)
(8.37553 -0.0110101 0)
(8.3771 -0.0125453 0)
(8.37862 -0.014151 0)
(8.38009 -0.0158259 0)
(8.3815 -0.0175686 0)
(8.38285 -0.0193778 0)
(8.38414 -0.0212495 0)
(8.33303 0.000249156 0)
(8.33329 0.000733735 0)
(8.33386 0.00117252 0)
(8.33468 0.00154558 0)
(8.33572 0.00184045 0)
(8.33695 0.00205072 0)
(8.33835 0.0021718 0)
(8.33989 0.00220149 0)
(8.34153 0.00213968 0)
(8.34327 0.00198668 0)
(8.34507 0.00174653 0)
(8.34692 0.00141958 0)
(8.3488 0.0010077 0)
(8.3507 0.000513326 0)
(8.35261 -6.13892e-05 0)
(8.35451 -0.000714615 0)
(8.3564 -0.00144469 0)
(8.35827 -0.00225009 0)
(8.36011 -0.00312955 0)
(8.36193 -0.00408203 0)
(8.36371 -0.00510665 0)
(8.36545 -0.00620269 0)
(8.36715 -0.00736953 0)
(8.3688 -0.0086066 0)
(8.37041 -0.00991335 0)
(8.37197 -0.0112892 0)
(8.37348 -0.0127333 0)
(8.37494 -0.0142451 0)
(8.37634 -0.0158233 0)
(8.37768 -0.0174669 0)
(8.37896 -0.0191744 0)
(8.38019 -0.0209444 0)
(8.38135 -0.0227734 0)
(8.33302 0.00015517 0)
(8.33327 0.000455758 0)
(8.33381 0.0007197 0)
(8.33459 0.000931104 0)
(8.33558 0.00107512 0)
(8.33675 0.00114751 0)
(8.33809 0.00114484 0)
(8.33956 0.00106491 0)
(8.34114 0.000906817 0)
(8.34281 0.000671473 0)
(8.34454 0.00035659 0)
(8.34632 -3.44089e-05 0)
(8.34813 -0.000500068 0)
(8.34995 -0.00103938 0)
(8.35178 -0.00165115 0)
(8.3536 -0.00233432 0)
(8.35541 -0.00308784 0)
(8.3572 -0.0039108 0)
(8.35896 -0.00480242 0)
(8.36068 -0.00576204 0)
(8.36237 -0.00678907 0)
(8.36402 -0.00788301 0)
(8.36562 -0.00904339 0)
(8.36717 -0.0102697 0)
(8.36868 -0.0115615 0)
(8.37013 -0.0129182 0)
(8.37153 -0.014339 0)
(8.37287 -0.0158231 0)
(8.37415 -0.0173696 0)
(8.37538 -0.0189772 0)
(8.37654 -0.0206447 0)
(8.37764 -0.0223706 0)
(8.37868 -0.0241517 0)
(8.33302 6.23814e-05 0)
(8.33326 0.000175928 0)
(8.33378 0.000252349 0)
(8.33452 0.000274883 0)
(8.33546 0.000244989 0)
(8.33659 0.000156976 0)
(8.33787 8.91457e-06 0)
(8.33929 -0.000199059 0)
(8.34081 -0.000467295 0)
(8.34241 -0.000795475 0)
(8.34407 -0.00118718 0)
(8.34578 -0.00164051 0)
(8.34752 -0.00215556 0)
(8.34927 -0.00273304 0)
(8.35103 -0.00337322 0)
(8.35277 -0.00407614 0)
(8.3545 -0.00484183 0)
(8.3562 -0.00567028 0)
(8.35788 -0.00656146 0)
(8.35952 -0.00751527 0)
(8.36111 -0.00853157 0)
(8.36267 -0.00961019 0)
(8.36417 -0.0107509 0)
(8.36563 -0.0119534 0)
(8.36703 -0.0132172 0)
(8.36838 -0.0145418 0)
(8.36967 -0.0159266 0)
(8.3709 -0.0173708 0)
(8.37208 -0.0188733 0)
(8.37318 -0.0204331 0)
(8.37423 -0.0220488 0)
(8.37521 -0.0237192 0)
(8.37613 -0.0254409 0)
(8.33302 -2.3797e-05 0)
(8.33324 -7.03424e-05 0)
(8.33371 -0.000137564 0)
(8.33441 -0.000244218 0)
(8.33531 -0.000392137 0)
(8.3364 -0.000589779 0)
(8.33764 -0.00084067 0)
(8.33901 -0.00114524 0)
(8.34048 -0.00150344 0)
(8.34203 -0.00191595 0)
(8.34365 -0.00238044 0)
(8.3453 -0.00289867 0)
(8.34698 -0.00347116 0)
(8.34867 -0.0040981 0)
(8.35036 -0.00477978 0)
(8.35204 -0.00551653 0)
(8.35369 -0.00630871 0)
(8.35532 -0.00715662 0)
(8.35691 -0.00806053 0)
(8.35847 -0.00902067 0)
(8.35998 -0.0100372 0)
(8.36145 -0.0111101 0)
(8.36286 -0.0122395 0)
(8.36422 -0.0134251 0)
(8.36552 -0.0146668 0)
(8.36677 -0.015964 0)
(8.36795 -0.0173164 0)
(8.36908 -0.0187231 0)
(8.37014 -0.0201834 0)
(8.37113 -0.0216961 0)
(8.37207 -0.0232602 0)
(8.37293 -0.0248746 0)
(8.37373 -0.0265362 0)
(8.33303 -0.000120061 0)
(8.33325 -0.000382923 0)
(8.33372 -0.000691357 0)
(8.3344 -0.00104454 0)
(8.33527 -0.00143464 0)
(8.33631 -0.00184894 0)
(8.3375 -0.00228199 0)
(8.33882 -0.00273357 0)
(8.34024 -0.00320617 0)
(8.34173 -0.00370367 0)
(8.34329 -0.00423016 0)
(8.34488 -0.00479041 0)
(8.3465 -0.00538817 0)
(8.34812 -0.00602672 0)
(8.34974 -0.00670892 0)
(8.35135 -0.00743714 0)
(8.35293 -0.00821329 0)
(8.35449 -0.00903886 0)
(8.35601 -0.00991502 0)
(8.35748 -0.0108426 0)
(8.35891 -0.0118223 0)
(8.36029 -0.0128545 0)
(8.36162 -0.0139393 0)
(8.36289 -0.0150768 0)
(8.3641 -0.0162667 0)
(8.36524 -0.0175087 0)
(8.36633 -0.0188024 0)
(8.36735 -0.0201469 0)
(8.36831 -0.0215414 0)
(8.36919 -0.0229849 0)
(8.37001 -0.0244764 0)
(8.37077 -0.0260146 0)
(8.37145 -0.0275966 0)
(8.333 -0.00016795 0)
(8.33315 -0.000466691 0)
(8.33354 -0.000769177 0)
(8.33416 -0.00111326 0)
(8.335 -0.00151246 0)
(8.33603 -0.00196531 0)
(8.33722 -0.00246537 0)
(8.33854 -0.00300536 0)
(8.33996 -0.00357957 0)
(8.34145 -0.00418465 0)
(8.34299 -0.00481896 0)
(8.34456 -0.00548249 0)
(8.34614 -0.00617622 0)
(8.34772 -0.00690161 0)
(8.34929 -0.00766042 0)
(8.35085 -0.0084545 0)
(8.35237 -0.00928563 0)
(8.35386 -0.0101555 0)
(8.3553 -0.0110655 0)
(8.3567 -0.0120171 0)
(8.35805 -0.0130112 0)
(8.35935 -0.0140488 0)
(8.36058 -0.0151304 0)
(8.36176 -0.0162566 0)
(8.36288 -0.0174275 0)
(8.36393 -0.0186431 0)
(8.36491 -0.0199034 0)
(8.36583 -0.0212079 0)
(8.36668 -0.0225561 0)
(8.36747 -0.0239472 0)
(8.36818 -0.0253805 0)
(8.36882 -0.0268551 0)
(8.36939 -0.0283684 0)
(8.33305 -0.000352848 0)
(8.33333 -0.00113478 0)
(8.33378 -0.00199725 0)
(8.33439 -0.00287439 0)
(8.33516 -0.00371058 0)
(8.33611 -0.00448526 0)
(8.3372 -0.00520019 0)
(8.33843 -0.0058665 0)
(8.33977 -0.00649828 0)
(8.34118 -0.00710981 0)
(8.34266 -0.00771406 0)
(8.34416 -0.00832235 0)
(8.34569 -0.00894412 0)
(8.34721 -0.00958694 0)
(8.34873 -0.0102568 0)
(8.35023 -0.0109585 0)
(8.35169 -0.0116957 0)
(8.35312 -0.0124711 0)
(8.35451 -0.0132869 0)
(8.35584 -0.0141445 0)
(8.35712 -0.0150452 0)
(8.35835 -0.0159896 0)
(8.35951 -0.0169781 0)
(8.36061 -0.0180109 0)
(8.36165 -0.0190878 0)
(8.36261 -0.0202087 0)
(8.36351 -0.0213731 0)
(8.36434 -0.0225803 0)
(8.3651 -0.0238295 0)
(8.36579 -0.02512 0)
(8.36641 -0.0264505 0)
(8.36695 -0.0278203 0)
(8.36742 -0.0292266 0)
(8.33294 -0.000123053 0)
(8.33285 -0.000276251 0)
(8.33306 -0.000490665 0)
(8.33362 -0.000896448 0)
(8.33449 -0.00149746 0)
(8.33558 -0.00223873 0)
(8.33683 -0.00306365 0)
(8.33819 -0.0039317 0)
(8.33963 -0.00481767 0)
(8.34112 -0.00570709 0)
(8.34264 -0.00659291 0)
(8.34416 -0.00747313 0)
(8.34568 -0.00834895 0)
(8.34719 -0.00922335 0)
(8.34867 -0.0101002 0)
(8.35012 -0.0109836 0)
(8.35152 -0.0118778 0)
(8.35288 -0.0127867 0)
(8.3542 -0.0137137 0)
(8.35545 -0.0146619 0)
(8.35665 -0.0156339 0)
(8.35779 -0.0166322 0)
(8.35886 -0.0176583 0)
(8.35987 -0.0187139 0)
(8.36081 -0.0198001 0)
(8.36168 -0.0209176 0)
(8.36249 -0.022067 0)
(8.36322 -0.0232486 0)
(8.36387 -0.0244624 0)
(8.36446 -0.0257082 0)
(8.36497 -0.0269855 0)
(8.36541 -0.028294 0)
(8.36578 -0.0296319 0)
(8.33317 -0.00081195 0)
(8.33366 -0.00277536 0)
(8.33404 -0.00479429 0)
(8.33442 -0.00653933 0)
(8.33495 -0.00793466 0)
(8.33571 -0.00903395 0)
(8.33668 -0.00991108 0)
(8.33782 -0.0106297 0)
(8.3391 -0.0112416 0)
(8.34047 -0.0117871 0)
(8.3419 -0.012297 0)
(8.34338 -0.0127939 0)
(8.34486 -0.0132945 0)
(8.34634 -0.0138105 0)
(8.3478 -0.0143503 0)
(8.34923 -0.0149195 0)
(8.35061 -0.0155224 0)
(8.35196 -0.0161614 0)
(8.35324 -0.0168383 0)
(8.35447 -0.0175541 0)
(8.35564 -0.0183094 0)
(8.35674 -0.0191043 0)
(8.35777 -0.0199388 0)
(8.35873 -0.0208124 0)
(8.35962 -0.0217247 0)
(8.36044 -0.0226751 0)
(8.36118 -0.0236628 0)
(8.36184 -0.0246871 0)
(8.36243 -0.025747 0)
(8.36295 -0.0268416 0)
(8.36339 -0.0279697 0)
(8.36375 -0.0291304 0)
(8.36404 -0.0303216 0)
(8.33264 0.000545852 0)
(8.33175 0.00189749 0)
(8.33173 0.00268985 0)
(8.33253 0.00250884 0)
(8.33375 0.0015832 0)
(8.33515 0.000264258 0)
(8.33665 -0.00121829 0)
(8.33819 -0.00274187 0)
(8.33973 -0.00424071 0)
(8.34128 -0.00567972 0)
(8.3428 -0.00704427 0)
(8.3443 -0.00833257 0)
(8.34576 -0.00954977 0)
(8.34719 -0.0107044 0)
(8.34857 -0.0118065 0)
(8.3499 -0.012866 0)
(8.35119 -0.0138926 0)
(8.35242 -0.0148949 0)
(8.35359 -0.0158809 0)
(8.35471 -0.0168571 0)
(8.35576 -0.0178296 0)
(8.35674 -0.0188031 0)
(8.35766 -0.019782 0)
(8.35851 -0.0207695 0)
(8.35929 -0.0217686 0)
(8.36 -0.0227815 0)
(8.36063 -0.0238101 0)
(8.36119 -0.0248556 0)
(8.36168 -0.0259192 0)
(8.36209 -0.0270015 0)
(8.36243 -0.0281028 0)
(8.36269 -0.0292232 0)
(8.36288 -0.0303619 0)
(8.33357 -0.00199385 0)
(8.33463 -0.00700181 0)
(8.33434 -0.0118615 0)
(8.33363 -0.0150803 0)
(8.33338 -0.0169137 0)
(8.33375 -0.017945 0)
(8.33457 -0.0184933 0)
(8.33569 -0.0187525 0)
(8.33701 -0.0188577 0)
(8.33847 -0.0188961 0)
(8.33999 -0.0189223 0)
(8.34155 -0.0189695 0)
(8.34312 -0.019057 0)
(8.34466 -0.0191952 0)
(8.34617 -0.019389 0)
(8.34762 -0.0196401 0)
(8.34903 -0.0199478 0)
(8.35037 -0.0203107 0)
(8.35164 -0.0207267 0)
(8.35284 -0.0211932 0)
(8.35397 -0.0217079 0)
(8.35502 -0.0222682 0)
(8.356 -0.022872 0)
(8.3569 -0.023517 0)
(8.35772 -0.0242012 0)
(8.35846 -0.0249226 0)
(8.35912 -0.0256796 0)
(8.3597 -0.0264705 0)
(8.3602 -0.0272937 0)
(8.36062 -0.0281477 0)
(8.36097 -0.0290311 0)
(8.36124 -0.0299429 0)
(8.36143 -0.0308808 0)
(8.33162 0.00367157 0)
(8.32827 0.0101788 0)
(8.32844 0.0133035 0)
(8.33096 0.0132078 0)
(8.33348 0.011086 0)
(8.3356 0.00818266 0)
(8.3375 0.00512351 0)
(8.33922 0.00214714 0)
(8.34081 -0.00063486 0)
(8.3423 -0.00317469 0)
(8.34372 -0.00546736 0)
(8.34508 -0.00752917 0)
(8.3464 -0.0093847 0)
(8.34768 -0.011061 0)
(8.34892 -0.0125846 0)
(8.35012 -0.0139801 0)
(8.35128 -0.0152692 0)
(8.35241 -0.016471 0)
(8.35349 -0.0176017 0)
(8.35452 -0.0186753 0)
(8.3555 -0.0197034 0)
(8.35643 -0.020696 0)
(8.3573 -0.0216613 0)
(8.35811 -0.0226062 0)
(8.35886 -0.0235364 0)
(8.35954 -0.0244568 0)
(8.36016 -0.0253713 0)
(8.3607 -0.026283 0)
(8.36118 -0.0271946 0)
(8.36158 -0.028108 0)
(8.36192 -0.0290249 0)
(8.36218 -0.0299463 0)
(8.36236 -0.0308725 0)
(8.33429 -0.00645284 0)
(8.3346 -0.0207462 0)
(8.33067 -0.0300207 0)
(8.32662 -0.0340757 0)
(8.32467 -0.0350044 0)
(8.32473 -0.0344949 0)
(8.32585 -0.0333612 0)
(8.32751 -0.0319965 0)
(8.32949 -0.0306237 0)
(8.33166 -0.0293606 0)
(8.33391 -0.0282591 0)
(8.33619 -0.0273359 0)
(8.33845 -0.0265898 0)
(8.34067 -0.0260105 0)
(8.34283 -0.0255836 0)
(8.34493 -0.0252936 0)
(8.34695 -0.0251251 0)
(8.34889 -0.025064 0)
(8.35075 -0.0250977 0)
(8.35251 -0.0252151 0)
(8.35419 -0.0254063 0)
(8.35577 -0.0256629 0)
(8.35726 -0.0259778 0)
(8.35866 -0.0263447 0)
(8.35996 -0.0267583 0)
(8.36116 -0.027214 0)
(8.36227 -0.0277078 0)
(8.36329 -0.0282363 0)
(8.36421 -0.0287967 0)
(8.36504 -0.0293863 0)
(8.36578 -0.0300029 0)
(8.36643 -0.0306448 0)
(8.36699 -0.0313096 0)
(8.32884 0.0225862 0)
(8.32235 0.0427446 0)
(8.32666 0.0439636 0)
(8.33327 0.0379955 0)
(8.33772 0.0306449 0)
(8.34048 0.0234754 0)
(8.34272 0.0168081 0)
(8.34483 0.0108258 0)
(8.34694 0.00558467 0)
(8.34912 0.00103702 0)
(8.35139 -0.00289697 0)
(8.35375 -0.00629906 0)
(8.35617 -0.00924696 0)
(8.35864 -0.0118112 0)
(8.36113 -0.0140534 0)
(8.36362 -0.0160259 0)
(8.36609 -0.017773 0)
(8.36852 -0.019332 0)
(8.3709 -0.0207341 0)
(8.37322 -0.0220053 0)
(8.37546 -0.0231674 0)
(8.37763 -0.0242385 0)
(8.3797 -0.0252338 0)
(8.38167 -0.026166 0)
(8.38355 -0.0270458 0)
(8.38532 -0.0278822 0)
(8.38698 -0.0286825 0)
(8.38854 -0.0294533 0)
(8.38999 -0.0301997 0)
(8.39133 -0.0309263 0)
(8.39257 -0.0316371 0)
(8.39369 -0.0323349 0)
(8.3947 -0.0330234 0)
(8.32436 -0.038039 0)
(8.29385 -0.0683499 0)
(8.27211 -0.0717533 0)
(8.26663 -0.0686892 0)
(8.27353 -0.0643844 0)
(8.28614 -0.0595889 0)
(8.30087 -0.054934 0)
(8.31615 -0.0507862 0)
(8.33114 -0.0472078 0)
(8.34538 -0.0441738 0)
(8.35867 -0.04164 0)
(8.37094 -0.0395475 0)
(8.38221 -0.0378345 0)
(8.39251 -0.0364441 0)
(8.40191 -0.0353262 0)
(8.41047 -0.0344379 0)
(8.41825 -0.0337426 0)
(8.42532 -0.0332097 0)
(8.43173 -0.0328136 0)
(8.43754 -0.0325334 0)
(8.4428 -0.0323514 0)
(8.44755 -0.0322532 0)
(8.45182 -0.0322266 0)
(8.45565 -0.0322617 0)
(8.45908 -0.03235 0)
(8.46214 -0.0324846 0)
(8.46484 -0.0326595 0)
(8.46722 -0.0328698 0)
(8.46929 -0.0331111 0)
(8.47109 -0.0333797 0)
(8.47262 -0.0336724 0)
(8.47389 -0.0339861 0)
(8.47495 -0.0343173 0)
(8.34002 0.156986 0)