/*--------------------------------*- C++ -*----------------------------------*\
| =========                 |                                                 |
| \\      /  F ield         | OpenFOAM: The Open Source CFD Toolbox           |
|  \\    /   O peration     | Version:  2.1.1                                 |
|   \\  /    A nd           | Web:      www.OpenFOAM.org                      |
|    \\/     M anipulation  |                                                 |
\*---------------------------------------------------------------------------*/
FoamFile
{
    version     2.0;
    format      ascii;
    class       volScalarField;
    location    "0.075";
    object      nuSgs;
}
// * * * * * * * * * * * * * * * * * * * * * * * * * * * * * * * * * * * * * //

dimensions      [0 2 -1 0 0 0 0];

internalField   nonuniform List<scalar> 
6820
(
0.000556016
0.000457373
0.000368009
0.00030585
0.000268481
0.000242657
0.000223572
0.000208899
0.000196974
0.000186891
0.000178133
0.000170367
0.00016337
0.000156986
0.000151098
0.000145622
0.000140488
0.000135646
0.000131054
0.000126678
0.000122493
0.000118476
0.000114614
0.000110892
0.000107306
0.000103854
0.000100537
9.73706e-05
9.43627e-05
9.1585e-05
8.89888e-05
8.67418e-05
8.4137e-05
0.00010351
0.000170699
0.00022371
0.000240078
0.00023529
0.000224874
0.000213105
0.000201732
0.000191397
0.000182119
0.000173781
0.000166249
0.0001594
0.00015313
0.000147355
0.000142004
0.00013702
0.000132353
0.000127962
0.000123812
0.000119874
0.000116121
0.000112532
0.000109087
0.000105768
0.000102559
9.94466e-05
9.64077e-05
9.34427e-05
9.04599e-05
8.75394e-05
8.41669e-05
8.08722e-05
3.67747e-05
2.84643e-05
4.56951e-05
8.24733e-05
0.000108211
0.000123899
0.000132412
0.000136338
0.000137503
0.00013698
0.000135411
0.000133193
0.000130579
0.000127734
0.000124766
0.000121748
0.000118726
0.000115734
0.000112792
0.000109913
0.000107105
0.000104373
0.000101716
9.91326e-05
9.66199e-05
9.41712e-05
9.17781e-05
8.94246e-05
8.70954e-05
8.47315e-05
8.23077e-05
7.95918e-05
7.66578e-05
2.07385e-05
2.8671e-05
2.65226e-05
1.49946e-05
3.63091e-06
1.4157e-05
2.61515e-05
3.61566e-05
4.42734e-05
5.07724e-05
5.59255e-05
5.99755e-05
6.31202e-05
6.55176e-05
6.73022e-05
6.85847e-05
6.94564e-05
6.99923e-05
7.02542e-05
7.02928e-05
7.01494e-05
6.98577e-05
6.94446e-05
6.89311e-05
6.83332e-05
6.76609e-05
6.69192e-05
6.61045e-05
6.52078e-05
6.41979e-05
6.30467e-05
6.17027e-05
6.01799e-05
1.44252e-05
1.75692e-05
2.25885e-05
2.42853e-05
2.39501e-05
2.19441e-05
1.90021e-05
1.56601e-05
1.21505e-05
8.62362e-06
5.18977e-06
1.9506e-06
1.38901e-06
4.19989e-06
6.86824e-06
9.32932e-06
1.1584e-05
1.3642e-05
1.55166e-05
1.72221e-05
1.87732e-05
2.01837e-05
2.14664e-05
2.26319e-05
2.36889e-05
2.46426e-05
2.54948e-05
2.62417e-05
2.68755e-05
2.73804e-05
2.77432e-05
2.7983e-05
2.81219e-05
1.09273e-05
1.24815e-05
1.37952e-05
1.43062e-05
1.51009e-05
1.57541e-05
1.61468e-05
1.63682e-05
1.64192e-05
1.63021e-05
1.60379e-05
1.56491e-05
1.51541e-05
1.45671e-05
1.39062e-05
1.31883e-05
1.24279e-05
1.16373e-05
1.08266e-05
1.00038e-05
9.17508e-06
8.34564e-06
7.5197e-06
6.7011e-06
5.8937e-06
5.1019e-06
4.33076e-06
3.58641e-06
2.87465e-06
2.19967e-06
1.57063e-06
1.02789e-06
9.68097e-07
8.25449e-06
9.41465e-06
1.02169e-05
1.00059e-05
9.81295e-06
9.63644e-06
9.45926e-06
9.38342e-06
9.39747e-06
9.45692e-06
9.53453e-06
9.61173e-06
9.67819e-06
9.73021e-06
9.7644e-06
9.77906e-06
9.77396e-06
9.74979e-06
9.70784e-06
9.64978e-06
9.57752e-06
9.49315e-06
9.39891e-06
9.29715e-06
9.19039e-06
9.08121e-06
8.97206e-06
8.86478e-06
8.75947e-06
8.65125e-06
8.5303e-06
8.36277e-06
8.12542e-06
6.37383e-06
7.39872e-06
8.18634e-06
8.03758e-06
7.71855e-06
7.37209e-06
6.98874e-06
6.65959e-06
6.40354e-06
6.20026e-06
6.03739e-06
5.90608e-06
5.79775e-06
5.70623e-06
5.62763e-06
5.55915e-06
5.49864e-06
5.44464e-06
5.39625e-06
5.35309e-06
5.3152e-06
5.283e-06
5.25724e-06
5.23888e-06
5.22905e-06
5.22875e-06
5.23857e-06
5.25786e-06
5.28399e-06
5.30959e-06
5.32337e-06
5.2999e-06
5.2187e-06
5.01661e-06
5.85239e-06
6.51327e-06
6.49297e-06
6.31493e-06
6.09899e-06
5.80813e-06
5.514e-06
5.25469e-06
5.02642e-06
4.82447e-06
4.64548e-06
4.48476e-06
4.33833e-06
4.20353e-06
4.07838e-06
3.96143e-06
3.85172e-06
3.74865e-06
3.65191e-06
3.56143e-06
3.47731e-06
3.39982e-06
3.32924e-06
3.26581e-06
3.20943e-06
3.15934e-06
3.11355e-06
3.06831e-06
3.01657e-06
2.94899e-06
2.84925e-06
2.70504e-06
4.01436e-06
4.70493e-06
5.28214e-06
5.33672e-06
5.22246e-06
5.06467e-06
4.83988e-06
4.60229e-06
4.389e-06
4.19888e-06
4.02733e-06
3.87214e-06
3.73026e-06
3.59882e-06
3.47591e-06
3.36022e-06
3.25075e-06
3.14678e-06
3.0478e-06
2.95348e-06
2.8636e-06
2.778e-06
2.69652e-06
2.61889e-06
2.54454e-06
2.47239e-06
2.40055e-06
2.32585e-06
2.24362e-06
2.14679e-06
2.02707e-06
1.87277e-06
1.67608e-06
3.25819e-06
3.83647e-06
4.34197e-06
4.43557e-06
4.36743e-06
4.25633e-06
4.08571e-06
3.89173e-06
3.70853e-06
3.54019e-06
3.38525e-06
3.24364e-06
3.11401e-06
2.99435e-06
2.8831e-06
2.77905e-06
2.68117e-06
2.58865e-06
2.50088e-06
2.41737e-06
2.33771e-06
2.26147e-06
2.18812e-06
2.11693e-06
2.04676e-06
1.97589e-06
1.90175e-06
1.8206e-06
1.72745e-06
1.61552e-06
1.47721e-06
1.30322e-06
1.0858e-06
2.67496e-06
3.16513e-06
3.61748e-06
3.74403e-06
3.71925e-06
3.64438e-06
3.51123e-06
3.34743e-06
3.18544e-06
3.0333e-06
2.8914e-06
2.76041e-06
2.63982e-06
2.52819e-06
2.42426e-06
2.32704e-06
2.23566e-06
2.1494e-06
2.06763e-06
1.9898e-06
1.91536e-06
1.84368e-06
1.77395e-06
1.7051e-06
1.63565e-06
1.56352e-06
1.48586e-06
1.39889e-06
1.29785e-06
1.17678e-06
1.0291e-06
8.4761e-07
6.2403e-07
2.21503e-06
2.63839e-06
3.05185e-06
3.20173e-06
3.21032e-06
3.16373e-06
3.06201e-06
2.92687e-06
2.78661e-06
2.65081e-06
2.52124e-06
2.39947e-06
2.28602e-06
2.1803e-06
2.08156e-06
1.98913e-06
1.9023e-06
1.82041e-06
1.74283e-06
1.66891e-06
1.59798e-06
1.52923e-06
1.46167e-06
1.39402e-06
1.32463e-06
1.2513e-06
1.17129e-06
1.08115e-06
9.76872e-07
8.53894e-07
7.07773e-07
5.35752e-07
3.39289e-07
1.8448e-06
2.21854e-06
2.6036e-06
2.77206e-06
2.80976e-06
2.7884e-06
2.71316e-06
2.60191e-06
2.47951e-06
2.3569e-06
2.23748e-06
2.12364e-06
2.01663e-06
1.91643e-06
1.82262e-06
1.73469e-06
1.65207e-06
1.57414e-06
1.50028e-06
1.42983e-06
1.36205e-06
1.29607e-06
1.23085e-06
1.1651e-06
1.09724e-06
1.02537e-06
9.47269e-07
8.60553e-07
7.63068e-07
6.53734e-07
5.35147e-07
4.2159e-07
3.56852e-07
1.54077e-06
1.87918e-06
2.24443e-06
2.42858e-06
2.49093e-06
2.4909e-06
2.4374e-06
2.34653e-06
2.24032e-06
2.13023e-06
2.02067e-06
1.91458e-06
1.8137e-06
1.71854e-06
1.62906e-06
1.54499e-06
1.46596e-06
1.39148e-06
1.32098e-06
1.25384e-06
1.18935e-06
1.1267e-06
1.06493e-06
1.00296e-06
9.39583e-07
8.73572e-07
8.03871e-07
7.30037e-07
6.5323e-07
5.78051e-07
5.16288e-07
4.90751e-07
5.28746e-07
1.28626e-06
1.60138e-06
1.95377e-06
2.15172e-06
2.2356e-06
2.25483e-06
2.22061e-06
2.14794e-06
2.05638e-06
1.95751e-06
1.85666e-06
1.75735e-06
1.66185e-06
1.57118e-06
1.48563e-06
1.40521e-06
1.3297e-06
1.25872e-06
1.1918e-06
1.12842e-06
1.06796e-06
1.00977e-06
9.53166e-07
8.97457e-07
8.42091e-07
7.8683e-07
7.32126e-07
6.7972e-07
6.33667e-07
6.01361e-07
5.94147e-07
6.24398e-07
7.00687e-07
1.06919e-06
1.37153e-06
1.71696e-06
1.92763e-06
2.03064e-06
2.06738e-06
2.05024e-06
1.99363e-06
1.91532e-06
1.82685e-06
1.73426e-06
1.64156e-06
1.55144e-06
1.46529e-06
1.38374e-06
1.30703e-06
1.23512e-06
1.16782e-06
1.10479e-06
1.04566e-06
9.90018e-07
9.37454e-07
8.87632e-07
8.40368e-07
7.95792e-07
7.54575e-07
7.18262e-07
6.89648e-07
6.73161e-07
6.74613e-07
7.00569e-07
7.55908e-07
8.43737e-07
8.80707e-07
1.17992e-06
1.52352e-06
1.74621e-06
1.86646e-06
1.91936e-06
1.91787e-06
1.876e-06
1.81012e-06
1.73155e-06
1.64688e-06
1.56055e-06
1.47561e-06
1.39385e-06
1.31625e-06
1.24328e-06
1.17513e-06
1.11179e-06
1.05309e-06
9.98835e-07
9.4883e-07
9.02932e-07
8.61133e-07
8.23659e-07
7.91107e-07
7.64595e-07
7.45923e-07
7.37635e-07
7.42991e-07
7.65424e-07
8.08248e-07
8.73235e-07
9.61893e-07
7.14446e-07
1.01992e-06
1.3661e-06
1.6003e-06
1.73624e-06
1.80418e-06
1.81718e-06
1.7889e-06
1.73462e-06
1.66545e-06
1.58836e-06
1.50822e-06
1.42839e-06
1.35102e-06
1.27738e-06
1.20819e-06
1.14383e-06
1.08447e-06
1.03012e-06
9.80772e-07
9.36399e-07
8.97077e-07
8.63027e-07
8.34665e-07
8.1273e-07
7.98326e-07
7.92957e-07
7.98441e-07
8.16807e-07
8.49872e-07
8.99299e-07
9.65565e-07
1.0496e-06
5.66218e-07
8.8761e-07
1.23983e-06
1.485e-06
1.63524e-06
1.71719e-06
1.74371e-06
1.72813e-06
1.68487e-06
1.62479e-06
1.55517e-06
1.48118e-06
1.40652e-06
1.33363e-06
1.26405e-06
1.19874e-06
1.13829e-06
1.08303e-06
1.03313e-06
9.887e-07
9.49866e-07
9.16806e-07
8.89793e-07
8.69294e-07
8.55968e-07
8.50671e-07
8.54424e-07
8.6832e-07
8.93517e-07
9.30922e-07
9.81332e-07
1.04471e-06
1.12157e-06
4.34548e-07
7.81517e-07
1.14184e-06
1.39716e-06
1.56032e-06
1.65526e-06
1.6944e-06
1.69065e-06
1.65772e-06
1.60623e-06
1.54364e-06
1.47541e-06
1.40549e-06
1.3366e-06
1.27051e-06
1.20844e-06
1.15113e-06
1.09906e-06
1.05252e-06
1.01174e-06
9.76888e-07
9.48192e-07
9.25934e-07
9.10492e-07
9.0232e-07
9.01997e-07
9.10161e-07
9.27461e-07
9.54459e-07
9.91491e-07
1.03888e-06
1.0963e-06
1.16406e-06
3.23489e-07
7.02978e-07
1.07103e-06
1.33515e-06
1.50976e-06
1.61666e-06
1.66757e-06
1.67496e-06
1.6519e-06
1.60881e-06
1.55324e-06
1.49086e-06
1.42587e-06
1.36118e-06
1.29882e-06
1.24014e-06
1.18602e-06
1.13707e-06
1.09364e-06
1.05602e-06
1.02441e-06
9.9901e-07
9.80037e-07
9.67745e-07
9.62445e-07
9.64473e-07
9.74125e-07
9.9166e-07
1.01733e-06
1.05122e-06
1.09337e-06
1.14342e-06
1.20139e-06
2.49595e-07
6.5519e-07
1.02754e-06
1.29845e-06
1.48288e-06
1.60049e-06
1.66208e-06
1.67951e-06
1.66527e-06
1.6295e-06
1.57981e-06
1.52205e-06
1.46061e-06
1.39864e-06
1.33836e-06
1.2813e-06
1.2285e-06
1.18063e-06
1.13818e-06
1.10142e-06
1.0706e-06
1.04586e-06
1.02738e-06
1.01529e-06
1.00973e-06
1.01082e-06
1.01869e-06
1.03342e-06
1.05504e-06
1.08339e-06
1.11834e-06
1.1595e-06
1.20679e-06
2.45946e-07
6.42356e-07
1.01244e-06
1.2876e-06
1.48023e-06
1.60757e-06
1.67925e-06
1.70645e-06
1.7011e-06
1.67307e-06
1.62993e-06
1.57761e-06
1.52061e-06
1.4622e-06
1.40472e-06
1.34981e-06
1.2986e-06
1.25186e-06
1.21008e-06
1.1736e-06
1.14263e-06
1.11732e-06
1.09776e-06
1.08403e-06
1.07619e-06
1.07426e-06
1.07823e-06
1.08802e-06
1.10352e-06
1.12458e-06
1.15097e-06
1.18247e-06
1.2187e-06
3.19285e-07
6.68334e-07
1.0279e-06
1.30407e-06
1.50271e-06
1.63791e-06
1.71772e-06
1.75241e-06
1.75338e-06
1.73027e-06
1.69067e-06
1.64066e-06
1.58491e-06
1.52689e-06
1.46912e-06
1.41338e-06
1.3609e-06
1.3125e-06
1.26875e-06
1.22996e-06
1.19635e-06
1.16804e-06
1.14505e-06
1.12741e-06
1.11507e-06
1.10797e-06
1.10603e-06
1.10915e-06
1.11714e-06
1.12977e-06
1.14674e-06
1.16782e-06
1.19262e-06
4.40386e-07
7.33434e-07
1.0758e-06
1.35033e-06
1.55389e-06
1.69704e-06
1.78597e-06
1.8299e-06
1.83957e-06
1.82411e-06
1.79089e-06
1.74587e-06
1.69374e-06
1.63803e-06
1.58134e-06
1.52558e-06
1.47208e-06
1.42178e-06
1.37532e-06
1.3331e-06
1.29537e-06
1.26227e-06
1.23385e-06
1.21013e-06
1.19105e-06
1.17653e-06
1.16646e-06
1.1607e-06
1.15907e-06
1.1614e-06
1.1674e-06
1.17716e-06
1.18982e-06
5.91214e-07
8.36783e-07
1.15876e-06
1.42871e-06
1.63388e-06
1.78077e-06
1.87344e-06
1.92025e-06
1.93168e-06
1.91689e-06
1.88339e-06
1.83731e-06
1.78347e-06
1.72552e-06
1.66613e-06
1.60721e-06
1.55013e-06
1.49581e-06
1.44486e-06
1.39767e-06
1.35445e-06
1.31533e-06
1.28033e-06
1.24944e-06
1.22259e-06
1.19969e-06
1.18063e-06
1.16529e-06
1.1535e-06
1.14511e-06
1.13982e-06
1.13769e-06
1.13801e-06
7.67882e-07
9.7694e-07
1.27921e-06
1.54529e-06
1.75524e-06
1.91177e-06
2.01608e-06
2.07459e-06
2.09654e-06
2.09028e-06
2.06291e-06
2.02047e-06
1.96792e-06
1.90915e-06
1.8471e-06
1.78401e-06
1.72147e-06
1.66064e-06
1.60231e-06
1.54698e-06
1.49498e-06
1.44648e-06
1.40155e-06
1.3602e-06
1.32239e-06
1.28803e-06
1.25703e-06
1.22929e-06
1.20469e-06
1.18317e-06
1.16446e-06
1.14906e-06
1.13552e-06
9.74774e-07
1.15911e-06
1.4442e-06
1.70157e-06
1.90569e-06
2.05678e-06
2.15516e-06
2.20766e-06
2.22419e-06
2.21344e-06
2.18244e-06
2.13699e-06
2.08175e-06
2.02026e-06
1.9552e-06
1.88858e-06
1.82185e-06
1.75606e-06
1.69196e-06
1.63006e-06
1.57067e-06
1.51401e-06
1.46017e-06
1.4092e-06
1.36109e-06
1.31581e-06
1.27331e-06
1.23355e-06
1.19645e-06
1.16199e-06
1.12994e-06
1.10069e-06
1.07312e-06
1.21582e-06
1.37971e-06
1.65425e-06
1.91684e-06
2.13854e-06
2.31338e-06
2.43505e-06
2.50637e-06
2.53572e-06
2.53165e-06
2.50181e-06
2.45301e-06
2.39099e-06
2.32024e-06
2.24421e-06
2.16547e-06
2.0859e-06
2.00681e-06
1.92909e-06
1.85335e-06
1.77994e-06
1.70909e-06
1.64087e-06
1.57533e-06
1.51244e-06
1.45216e-06
1.39444e-06
1.33925e-06
1.28654e-06
1.23638e-06
1.18856e-06
1.14394e-06
1.10033e-06
1.51182e-06
1.67268e-06
1.93541e-06
2.17315e-06
2.36277e-06
2.50665e-06
2.60366e-06
2.65897e-06
2.68074e-06
2.67542e-06
2.6481e-06
2.60343e-06
2.5455e-06
2.47776e-06
2.40305e-06
2.32372e-06
2.24163e-06
2.15823e-06
2.07461e-06
1.99157e-06
1.90968e-06
1.82933e-06
1.75076e-06
1.6741e-06
1.59943e-06
1.52678e-06
1.45615e-06
1.38756e-06
1.32099e-06
1.25652e-06
1.19396e-06
1.1339e-06
1.07467e-06
1.85449e-06
1.99421e-06
2.27536e-06
2.57131e-06
2.8348e-06
3.04282e-06
3.18048e-06
3.25237e-06
3.2721e-06
3.2522e-06
3.20294e-06
3.13285e-06
3.0486e-06
2.95505e-06
2.8557e-06
2.75306e-06
2.64891e-06
2.54447e-06
2.44063e-06
2.33798e-06
2.23692e-06
2.13772e-06
2.04052e-06
1.94542e-06
1.85244e-06
1.76161e-06
1.67292e-06
1.58642e-06
1.50212e-06
1.42021e-06
1.34049e-06
1.26412e-06
1.18806e-06
2.33922e-06
2.51149e-06
2.73694e-06
2.90817e-06
3.0523e-06
3.18789e-06
3.30193e-06
3.38516e-06
3.43547e-06
3.45237e-06
3.43756e-06
3.39525e-06
3.33051e-06
3.2483e-06
3.15306e-06
3.04859e-06
2.93798e-06
2.82367e-06
2.70749e-06
2.59081e-06
2.47461e-06
2.35955e-06
2.24607e-06
2.13446e-06
2.02488e-06
1.9174e-06
1.81209e-06
1.70902e-06
1.60824e-06
1.50995e-06
1.41411e-06
1.32161e-06
1.2303e-06
2.81942e-06
2.95373e-06
3.38285e-06
3.83137e-06
4.17467e-06
4.39251e-06
4.49419e-06
4.51045e-06
4.47105e-06
4.3941e-06
4.29076e-06
4.16902e-06
4.03446e-06
3.89095e-06
3.74148e-06
3.58854e-06
3.43414e-06
3.27996e-06
3.12734e-06
2.97731e-06
2.8306e-06
2.68774e-06
2.54902e-06
2.41457e-06
2.28442e-06
2.15848e-06
2.03667e-06
1.91889e-06
1.80512e-06
1.69555e-06
1.5901e-06
1.49038e-06
1.39292e-06
3.8653e-06
3.98886e-06
3.9344e-06
3.89917e-06
4.04328e-06
4.29048e-06
4.51553e-06
4.66913e-06
4.74837e-06
4.76303e-06
4.72929e-06
4.66482e-06
4.58392e-06
4.49654e-06
4.40897e-06
4.32467e-06
4.24501e-06
4.17014e-06
4.09952e-06
4.03236e-06
3.9678e-06
3.9051e-06
3.84361e-06
3.78285e-06
3.72243e-06
3.66206e-06
3.60156e-06
3.54081e-06
3.47985e-06
3.41892e-06
3.35844e-06
3.3004e-06
3.24293e-06
4.33242e-06
4.94228e-06
5.95766e-06
6.47e-06
6.6117e-06
6.61111e-06
6.61786e-06
6.73279e-06
6.98394e-06
7.34047e-06
7.75507e-06
8.18583e-06
8.60093e-06
8.97927e-06
9.30902e-06
9.58508e-06
9.80682e-06
9.97642e-06
1.00977e-05
1.01752e-05
1.02138e-05
1.02184e-05
1.01934e-05
1.01429e-05
1.00704e-05
9.97904e-06
9.87133e-06
9.74926e-06
9.6146e-06
9.46845e-06
9.31261e-06
9.14944e-06
8.97998e-06
7.52851e-06
5.81244e-06
4.66418e-06
6.28425e-06
9.01316e-06
1.17113e-05
1.40269e-05
1.59022e-05
1.73387e-05
1.83527e-05
1.89825e-05
1.92767e-05
1.92853e-05
1.90573e-05
1.86389e-05
1.80719e-05
1.73925e-05
1.6632e-05
1.58158e-05
1.49651e-05
1.40964e-05
1.32228e-05
1.23539e-05
1.14972e-05
1.06577e-05
9.83863e-06
9.04181e-06
8.26741e-06
7.51508e-06
6.78138e-06
6.0674e-06
5.36227e-06
4.68387e-06
8.57692e-06
1.47419e-05
1.88498e-05
2.1256e-05
2.23519e-05
2.1894e-05
2.00597e-05
1.73002e-05
1.40777e-05
1.09934e-05
9.00768e-06
9.18716e-06
1.13781e-05
1.45223e-05
1.79195e-05
2.12573e-05
2.44006e-05
2.72917e-05
2.99107e-05
3.2257e-05
3.43408e-05
3.61775e-05
3.77856e-05
3.91844e-05
4.03929e-05
4.14295e-05
4.23118e-05
4.30569e-05
4.3681e-05
4.42052e-05
4.46438e-05
4.50545e-05
4.54251e-05
3.46136e-05
3.71889e-05
4.6605e-05
6.16884e-05
7.73394e-05
9.26712e-05
0.000106987
0.000119586
0.000130285
0.00013913
0.000146237
0.00015177
0.000155918
0.000158868
0.000160793
0.000161852
0.000162186
0.000161919
0.000161154
0.000159983
0.000158482
0.000156716
0.000154737
0.000152591
0.000150315
0.000147938
0.000145485
0.000142974
0.000140421
0.000137832
0.000135208
0.000132638
0.00013013
0.000608426
0.000582486
0.000556874
0.000530437
0.000504477
0.000479313
0.000454985
0.000431762
0.00040982
0.000389214
0.000369954
0.000352022
0.000335366
0.000319914
0.000305586
0.000292295
0.000279954
0.000268478
0.000257786
0.000247804
0.000238461
0.000229696
0.00022145
0.000213673
0.000206319
0.000199345
0.000192715
0.000186394
0.000180343
0.000174542
0.000168861
0.000163839
0.000159253
7.5497e-05
7.72896e-05
8.01311e-05
8.09948e-05
7.38371e-05
6.05932e-05
5.67425e-05
5.9251e-05
6.23191e-05
6.30318e-05
6.06799e-05
5.55843e-05
4.84758e-05
4.08423e-05
3.4064e-05
2.83378e-05
2.38599e-05
1.72548e-05
8.57697e-06
9.53108e-06
1.4575e-05
2.24181e-05
3.47072e-05
4.6519e-05
5.03797e-05
4.77689e-05
4.39275e-05
4.1602e-05
4.11594e-05
4.31864e-05
4.64301e-05
5.11165e-05
5.50165e-05
5.29265e-05
4.58834e-05
3.7657e-05
3.05407e-05
2.48398e-05
1.99308e-05
1.53558e-05
1.12466e-05
8.37507e-06
7.42397e-06
8.7845e-06
1.6329e-05
2.82117e-05
3.73848e-05
3.98676e-05
3.6879e-05
3.18841e-05
2.7225e-05
2.34831e-05
2.0471e-05
1.79487e-05
1.57734e-05
1.38659e-05
1.21771e-05
1.0673e-05
9.32849e-06
8.12378e-06
7.04267e-06
6.07209e-06
5.20171e-06
4.42338e-06
3.73061e-06
3.118e-06
2.58076e-06
2.11448e-06
1.71487e-06
1.37762e-06
1.09823e-06
8.71915e-07
6.93619e-07
5.57958e-07
4.59167e-07
3.9111e-07
3.47429e-07
3.21936e-07
3.09132e-07
3.04709e-07
3.0581e-07
3.11201e-07
3.21277e-07
3.37674e-07
3.62343e-07
3.96126e-07
4.37636e-07
4.83294e-07
5.29161e-07
5.72644e-07
6.14074e-07
6.52239e-07
6.85932e-07
7.04962e-07
7.15469e-07
7.02019e-07
7.14013e-07
6.70688e-07
7.52592e-07
6.32109e-07
9.9207e-05
9.57345e-05
9.73491e-05
0.000101981
0.000105092
9.65847e-05
7.69512e-05
6.70481e-05
6.48615e-05
6.37988e-05
6.1251e-05
5.62551e-05
4.92015e-05
4.14908e-05
3.42172e-05
2.81255e-05
2.2127e-05
1.16173e-05
4.21137e-06
8.30541e-06
1.50384e-05
2.39461e-05
3.81453e-05
4.8412e-05
4.96192e-05
4.59231e-05
4.22613e-05
4.03271e-05
3.98661e-05
4.13839e-05
4.44941e-05
4.83925e-05
5.31324e-05
5.34923e-05
4.78585e-05
3.95439e-05
3.15893e-05
2.49943e-05
1.94362e-05
1.43974e-05
9.73185e-06
5.58428e-06
3.41359e-06
1.00361e-05
2.20589e-05
3.38974e-05
4.03214e-05
4.00964e-05
3.58892e-05
3.0885e-05
2.65959e-05
2.31627e-05
2.0339e-05
1.79296e-05
1.58261e-05
1.39659e-05
1.23074e-05
1.08205e-05
9.48239e-06
8.27497e-06
7.1842e-06
6.19931e-06
5.31216e-06
4.51645e-06
3.80708e-06
3.17957e-06
2.6297e-06
2.15333e-06
1.74626e-06
1.40402e-06
1.12182e-06
8.94332e-07
7.15855e-07
5.80412e-07
4.81798e-07
4.1365e-07
3.69558e-07
3.43399e-07
3.29798e-07
3.24602e-07
3.25168e-07
3.30435e-07
3.40829e-07
3.57786e-07
3.82852e-07
4.16464e-07
4.57026e-07
5.00976e-07
5.446e-07
5.85806e-07
6.258e-07
6.64361e-07
7.00827e-07
7.24378e-07
7.39929e-07
7.30002e-07
7.43362e-07
6.97503e-07
7.78308e-07
6.48889e-07
9.78404e-05
9.67589e-05
9.78017e-05
0.000101917
0.000108745
0.00011539
0.000108192
8.63621e-05
7.13158e-05
6.52264e-05
6.05698e-05
5.49369e-05
4.8034e-05
4.04552e-05
3.29531e-05
2.60206e-05
1.64183e-05
4.33747e-06
2.29221e-06
9.32388e-06
1.57025e-05
2.73043e-05
4.26343e-05
4.96468e-05
4.80737e-05
4.37686e-05
4.04916e-05
3.88821e-05
3.84651e-05
3.93726e-05
4.20492e-05
4.54296e-05
5.01735e-05
5.30614e-05
4.99884e-05
4.24794e-05
3.39289e-05
2.62525e-05
1.97082e-05
1.38847e-05
8.42274e-06
3.06918e-06
6.35725e-06
1.73205e-05
2.98258e-05
3.91022e-05
4.2e-05
3.94256e-05
3.45562e-05
2.98211e-05
2.59591e-05
2.28329e-05
2.01985e-05
1.79084e-05
1.58839e-05
1.40764e-05
1.24514e-05
1.09825e-05
9.64971e-06
8.43789e-06
7.33578e-06
6.33529e-06
5.43051e-06
4.61691e-06
3.89062e-06
3.24796e-06
2.6852e-06
2.19842e-06
1.78338e-06
1.4354e-06
1.14922e-06
9.19039e-07
7.38654e-07
6.01639e-07
5.01492e-07
4.31734e-07
3.86014e-07
3.58402e-07
3.43802e-07
3.38296e-07
3.39378e-07
3.45938e-07
3.58107e-07
3.76832e-07
4.03074e-07
4.36788e-07
4.76206e-07
5.17942e-07
5.58755e-07
5.97247e-07
6.35544e-07
6.74324e-07
7.13423e-07
7.41544e-07
7.62593e-07
7.5705e-07
7.73096e-07
7.25991e-07
8.07065e-07
6.69013e-07
7.83444e-05
7.95976e-05
8.29247e-05
8.8688e-05
9.61052e-05
0.000104785
0.000113107
0.000109009
8.94375e-05
7.13312e-05
6.14922e-05
5.41732e-05
4.63419e-05
3.80026e-05
2.98107e-05
2.07362e-05
1.06424e-05
4.35292e-06
6.7938e-06
1.21126e-05
1.69346e-05
3.38972e-05
4.69699e-05
4.93003e-05
4.55449e-05
4.13278e-05
3.86097e-05
3.72559e-05
3.68857e-05
3.74489e-05
3.94667e-05
4.23894e-05
4.64436e-05
5.09861e-05
5.13562e-05
4.62301e-05
3.81924e-05
2.98763e-05
2.24529e-05
1.61533e-05
1.1388e-05
1.05755e-05
1.69323e-05
2.75991e-05
3.75869e-05
4.27327e-05
4.2084e-05
3.78876e-05
3.29679e-05
2.87377e-05
2.533e-05
2.24966e-05
2.0046e-05
1.78789e-05
1.59399e-05
1.41909e-05
1.26029e-05
1.11536e-05
9.82655e-06
8.60997e-06
7.49595e-06
6.47925e-06
5.55631e-06
4.72432e-06
3.98061e-06
3.32231e-06
2.74616e-06
2.24848e-06
1.82505e-06
1.47106e-06
1.18097e-06
9.48535e-07
7.67e-07
6.29407e-07
5.28853e-07
4.58626e-07
4.12331e-07
3.84108e-07
3.68972e-07
3.63123e-07
3.64123e-07
3.70877e-07
3.83413e-07
4.02428e-07
4.28562e-07
4.61485e-07
4.99288e-07
5.38605e-07
5.76346e-07
6.11484e-07
6.46967e-07
6.84622e-07
7.25169e-07
7.57011e-07
7.83188e-07
7.82194e-07
8.01723e-07
7.5425e-07
8.36881e-07
6.90126e-07
3.82171e-05
4.13164e-05
4.63839e-05
5.37955e-05
6.34032e-05
7.45973e-05
8.72858e-05
9.89094e-05
9.98105e-05
8.63956e-05
6.89294e-05
5.57699e-05
4.6026e-05
3.71395e-05
2.8193e-05
1.91402e-05
1.29753e-05
1.34197e-05
1.53983e-05
1.05532e-05
2.44792e-05
4.22986e-05
4.91093e-05
4.69893e-05
4.23885e-05
3.88127e-05
3.6623e-05
3.54307e-05
3.50542e-05
3.54512e-05
3.68958e-05
3.9331e-05
4.2507e-05
4.71543e-05
5.05537e-05
4.92452e-05
4.36894e-05
3.63418e-05
2.92478e-05
2.36753e-05
2.09439e-05
2.27777e-05
2.93294e-05
3.75029e-05
4.30998e-05
4.38392e-05
4.05742e-05
3.57909e-05
3.13344e-05
2.77021e-05
2.47159e-05
2.21494e-05
1.98777e-05
1.78381e-05
1.59907e-05
1.43048e-05
1.27567e-05
1.13283e-05
1.00074e-05
8.78615e-06
7.66021e-06
6.62727e-06
5.68604e-06
4.83542e-06
4.07396e-06
3.3996e-06
2.80964e-06
2.30068e-06
1.86858e-06
1.50835e-06
1.21411e-06
9.7911e-07
7.96041e-07
6.57433e-07
5.55978e-07
4.84757e-07
4.37377e-07
4.08126e-07
3.92224e-07
3.86062e-07
3.87307e-07
3.94828e-07
4.08435e-07
4.28441e-07
4.55038e-07
4.87519e-07
5.23774e-07
5.60427e-07
5.94574e-07
6.25636e-07
6.57471e-07
6.93177e-07
7.34559e-07
7.69982e-07
8.01624e-07
8.05834e-07
8.29826e-07
7.82926e-07
8.68279e-07
7.13074e-07
2.55817e-06
5.3371e-06
9.57088e-06
1.54738e-05
2.33788e-05
3.35155e-05
4.58536e-05
6.03929e-05
7.44095e-05
8.09176e-05
7.62292e-05
6.46907e-05
5.23446e-05
4.17009e-05
3.28726e-05
2.75438e-05
2.61947e-05
2.28839e-05
1.04226e-05
1.72417e-05
3.78401e-05
4.79424e-05
4.76846e-05
4.32151e-05
3.90951e-05
3.63296e-05
3.45449e-05
3.34753e-05
3.3088e-05
3.3413e-05
3.44812e-05
3.63882e-05
3.88372e-05
4.24615e-05
4.70346e-05
4.94331e-05
4.78979e-05
4.35236e-05
3.84317e-05
3.45025e-05
3.32739e-05
3.55002e-05
4.00846e-05
4.41242e-05
4.50272e-05
4.24426e-05
3.80052e-05
3.35284e-05
2.97871e-05
2.67275e-05
2.41119e-05
2.17917e-05
1.96973e-05
1.77896e-05
1.60385e-05
1.44195e-05
1.29136e-05
1.15075e-05
1.01935e-05
8.96813e-06
7.83049e-06
6.78127e-06
5.82147e-06
4.95171e-06
4.17182e-06
3.4807e-06
2.87623e-06
2.35536e-06
1.91407e-06
1.54726e-06
1.24876e-06
1.01137e-06
8.27232e-07
6.88282e-07
5.86749e-07
5.15438e-07
4.67876e-07
4.38413e-07
4.2238e-07
4.16255e-07
4.17732e-07
4.25615e-07
4.39551e-07
4.59611e-07
4.85723e-07
5.16976e-07
5.51149e-07
5.84838e-07
6.15191e-07
6.41891e-07
6.6959e-07
7.02669e-07
7.44083e-07
7.82205e-07
8.18661e-07
8.27905e-07
8.56853e-07
8.1124e-07
9.00552e-07
7.37e-07
1.02908e-05
9.45001e-06
7.64035e-06
4.64626e-06
2.18793e-06
7.34849e-06
1.51035e-05
2.42284e-05
3.48458e-05
4.59783e-05
5.3953e-05
5.57673e-05
5.22354e-05
4.60748e-05
3.97526e-05
3.3619e-05
2.3884e-05
6.91699e-06
1.62989e-05
3.65205e-05
4.6967e-05
4.7537e-05
4.33694e-05
3.90698e-05
3.60294e-05
3.39203e-05
3.24162e-05
3.14652e-05
3.10921e-05
3.13599e-05
3.22197e-05
3.36823e-05
3.55896e-05
3.80671e-05
4.18877e-05
4.60003e-05
4.81127e-05
4.75882e-05
4.55562e-05
4.36918e-05
4.32628e-05
4.44107e-05
4.58691e-05
4.5801e-05
4.33724e-05
3.93349e-05
3.50703e-05
3.14002e-05
2.83859e-05
2.58105e-05
2.35138e-05
2.14241e-05
1.95066e-05
1.77345e-05
1.60838e-05
1.45348e-05
1.30734e-05
1.16913e-05
1.03855e-05
9.15671e-06
8.00771e-06
6.94212e-06
5.96327e-06
5.07363e-06
4.27447e-06
3.56568e-06
2.94589e-06
2.41244e-06
1.96146e-06
1.58775e-06
1.28483e-06
1.045e-06
8.59772e-07
7.20486e-07
6.18852e-07
5.47366e-07
4.9947e-07
4.69595e-07
4.53228e-07
4.4699e-07
4.48643e-07
4.56948e-07
4.71377e-07
4.91723e-07
5.17595e-07
5.47812e-07
5.79988e-07
6.10649e-07
6.36951e-07
6.58774e-07
6.81468e-07
7.10735e-07
7.51092e-07
7.91431e-07
8.32853e-07
8.47718e-07
8.82618e-07
8.39314e-07
9.33954e-07
7.62563e-07
6.70711e-06
6.28389e-06
5.23556e-06
3.3533e-06
4.52172e-07
3.71367e-06
9.08009e-06
1.50465e-05
2.02785e-05
2.37771e-05
2.60044e-05
2.74647e-05
2.73182e-05
2.47831e-05
1.95993e-05
1.12759e-05
1.05966e-05
2.5665e-05
3.97573e-05
4.67674e-05
4.6463e-05
4.24667e-05
3.83772e-05
3.54184e-05
3.32712e-05
3.15729e-05
3.02794e-05
2.94538e-05
2.91177e-05
2.93196e-05
3.0041e-05
3.1204e-05
3.27262e-05
3.44697e-05
3.69272e-05
4.04743e-05
4.40238e-05
4.62502e-05
4.69693e-05
4.6957e-05
4.68637e-05
4.66232e-05
4.55408e-05
4.3077e-05
3.95143e-05
3.57175e-05
3.23535e-05
2.95425e-05
2.71175e-05
2.49291e-05
2.29136e-05
2.10461e-05
1.93065e-05
1.76735e-05
1.61268e-05
1.4651e-05
1.32367e-05
1.18808e-05
1.05847e-05
9.35338e-06
8.19326e-06
7.11095e-06
6.1123e-06
5.20179e-06
4.38224e-06
3.65472e-06
3.01863e-06
2.47178e-06
2.01048e-06
1.62945e-06
1.32192e-06
1.07971e-06
8.93732e-07
7.5463e-07
6.53541e-07
5.82579e-07
5.35039e-07
5.0538e-07
4.89191e-07
4.83182e-07
4.8513e-07
4.93721e-07
5.08265e-07
5.28337e-07
5.53335e-07
5.81924e-07
6.11635e-07
6.38937e-07
6.60941e-07
6.77619e-07
6.9492e-07
7.1981e-07
7.58321e-07
7.99954e-07
8.45622e-07
8.65851e-07
9.07118e-07
8.66824e-07
9.68113e-07
7.89227e-07
3.30121e-06
2.8659e-06
2.18192e-06
1.6309e-06
2.46458e-06
4.75102e-06
8.25963e-06
1.31371e-05
1.90115e-05
2.45309e-05
2.80595e-05
2.9011e-05
2.82138e-05
2.72473e-05
2.80017e-05
3.18678e-05
3.81273e-05
4.36585e-05
4.56356e-05
4.3818e-05
4.01772e-05
3.67817e-05
3.42931e-05
3.23766e-05
3.07116e-05
2.92771e-05
2.81713e-05
2.74641e-05
2.71648e-05
2.73007e-05
2.78894e-05
2.88523e-05
3.01138e-05
3.1513e-05
3.30784e-05
3.52711e-05
3.81345e-05
4.0909e-05
4.28494e-05
4.38175e-05
4.38807e-05
4.29724e-05
4.10272e-05
3.82837e-05
3.5283e-05
3.2501e-05
3.00788e-05
2.79246e-05
2.59331e-05
2.40635e-05
2.23081e-05
2.06587e-05
1.90984e-05
1.76074e-05
1.61681e-05
1.4769e-05
1.34049e-05
1.20775e-05
1.07928e-05
9.55981e-06
8.38857e-06
7.28892e-06
6.26943e-06
5.3368e-06
4.49556e-06
3.74806e-06
3.09457e-06
2.53342e-06
2.06111e-06
1.67235e-06
1.36005e-06
1.11555e-06
9.29054e-07
7.90478e-07
6.90281e-07
6.20127e-07
5.7312e-07
5.43739e-07
5.27693e-07
5.21815e-07
5.23939e-07
5.32712e-07
5.47312e-07
5.67111e-07
5.91283e-07
6.18307e-07
6.45578e-07
6.69458e-07
6.86933e-07
6.97926e-07
7.08792e-07
7.27794e-07
7.63057e-07
8.05233e-07
8.55101e-07
8.81162e-07
9.29749e-07
8.93531e-07
1.003e-06
8.1738e-07
1.86466e-06
1.41051e-06
1.17691e-06
1.97323e-06
3.58779e-06
5.69748e-06
8.24506e-06
1.13759e-05
1.54034e-05
2.04043e-05
2.57374e-05
3.0387e-05
3.38192e-05
3.62637e-05
3.84805e-05
4.04822e-05
4.15744e-05
4.10741e-05
3.91012e-05
3.65706e-05
3.43464e-05
3.26149e-05
3.11142e-05
2.96516e-05
2.82553e-05
2.70427e-05
2.61069e-05
2.54957e-05
2.52203e-05
2.53013e-05
2.57655e-05
2.65694e-05
2.76362e-05
2.88643e-05
3.01079e-05
3.14542e-05
3.31441e-05
3.507e-05
3.67583e-05
3.77747e-05
3.79332e-05
3.71771e-05
3.56768e-05
3.37794e-05
3.18179e-05
2.99478e-05
2.81693e-05
2.64502e-05
2.47891e-05
2.3202e-05
2.16961e-05
2.02626e-05
1.88829e-05
1.7537e-05
1.6209e-05
1.48903e-05
1.358e-05
1.22838e-05
1.1012e-05
9.77781e-06
8.59512e-06
7.47719e-06
6.43555e-06
5.47929e-06
4.61483e-06
3.84591e-06
3.17373e-06
2.5972e-06
2.11307e-06
1.71603e-06
1.39874e-06
1.15201e-06
9.65358e-07
8.27848e-07
7.29177e-07
6.60467e-07
6.14574e-07
5.85963e-07
5.70447e-07
5.64961e-07
5.6738e-07
5.763e-07
5.90766e-07
6.09978e-07
6.32939e-07
6.58004e-07
6.82487e-07
7.02661e-07
7.15361e-07
7.20395e-07
7.24413e-07
7.36854e-07
7.67877e-07
8.09517e-07
8.62793e-07
8.94406e-07
9.5073e-07
9.19344e-07
1.03847e-06
8.46701e-07
1.04548e-06
5.81528e-07
8.79784e-07
2.06375e-06
3.67519e-06
5.64397e-06
7.92228e-06
1.04624e-05
1.32787e-05
1.6494e-05
2.0182e-05
2.4104e-05
2.7747e-05
3.06949e-05
3.27151e-05
3.37744e-05
3.38631e-05
3.3246e-05
3.23288e-05
3.13919e-05
3.04621e-05
2.9438e-05
2.82807e-05
2.70621e-05
2.58983e-05
2.48861e-05
2.40899e-05
2.35519e-05
2.32919e-05
2.33306e-05
2.36926e-05
2.43573e-05
2.52634e-05
2.63444e-05
2.74881e-05
2.85892e-05
2.96829e-05
3.08145e-05
3.18566e-05
3.25603e-05
3.27557e-05
3.23889e-05
3.15671e-05
3.04614e-05
2.92014e-05
2.78515e-05
2.64505e-05
2.50407e-05
2.3663e-05
2.23415e-05
2.10785e-05
1.98593e-05
1.86616e-05
1.7464e-05
1.62515e-05
1.50176e-05
1.37646e-05
1.2502e-05
1.12445e-05
1.00094e-05
8.81459e-06
7.67714e-06
6.61172e-06
5.63005e-06
4.74057e-06
3.94853e-06
3.25616e-06
2.663e-06
2.16611e-06
1.76021e-06
1.43772e-06
1.18895e-06
1.00261e-06
8.6682e-07
7.70368e-07
7.03726e-07
6.59437e-07
6.3193e-07
6.17122e-07
6.1208e-07
6.1475e-07
6.23717e-07
6.37936e-07
6.56461e-07
6.78137e-07
7.01181e-07
7.228e-07
7.39134e-07
7.46783e-07
7.45253e-07
7.41235e-07
7.45363e-07
7.70432e-07
8.10434e-07
8.66806e-07
9.04279e-07
9.69254e-07
9.43821e-07
1.07432e-06
8.77428e-07
4.15185e-07
2.24068e-07
1.07874e-06
2.22071e-06
3.65488e-06
5.37935e-06
7.37405e-06
9.59359e-06
1.19716e-05
1.4453e-05
1.70219e-05
1.96458e-05
2.21913e-05
2.44227e-05
2.61218e-05
2.72677e-05
2.79371e-05
2.82373e-05
2.82287e-05
2.79307e-05
2.73585e-05
2.65584e-05
2.56135e-05
2.46197e-05
2.36631e-05
2.28138e-05
2.21273e-05
2.16474e-05
2.14002e-05
2.14057e-05
2.16875e-05
2.22349e-05