/*--------------------------------*- C++ -*----------------------------------*\
| =========                 |                                                 |
| \\      /  F ield         | OpenFOAM: The Open Source CFD Toolbox           |
|  \\    /   O peration     | Version:  2.1.1                                 |
|   \\  /    A nd           | Web:      www.OpenFOAM.org                      |
|    \\/     M anipulation  |                                                 |
\*---------------------------------------------------------------------------*/
FoamFile
{
    version     2.0;
    format      ascii;
    class       volScalarField;
    location    "0.075";
    object      p;
}
// * * * * * * * * * * * * * * * * * * * * * * * * * * * * * * * * * * * * * //

dimensions      [0 2 -2 0 0 0 0];

internalField   nonuniform List<scalar> 
6820
(
10.0281
-7.80621
-10.8108
-10.9942
-11.1626
-11.084
-11.0209
-11.0257
-11.0638
-11.1202
-11.1865
-11.2575
-11.3309
-11.4057
-11.4815
-11.5584
-11.6364
-11.7157
-11.797
-11.8806
-11.9675
-12.0585
-12.1549
-12.2581
-12.3697
-12.4918
-12.627
-12.7775
-12.9479
-13.1385
-13.3651
-13.6018
-13.9407
3.34613
-7.62586
-10.5005
-10.7968
-11.0449
-11.062
-11.0353
-11.0511
-11.0908
-11.1442
-11.2064
-11.2737
-11.344
-11.4164
-11.4904
-11.5659
-11.6428
-11.7213
-11.8019
-11.8849
-11.9712
-12.0617
-12.1574
-12.2597
-12.3704
-12.4913
-12.6248
-12.7734
-12.941
-13.1287
-13.3464
-13.5774
-13.8672
0.630171
-6.19711
-9.48211
-10.2363
-10.7
-10.8918
-10.9436
-10.9921
-11.0513
-11.117
-11.188
-11.2619
-11.3372
-11.4132
-11.4897
-11.5667
-11.6445
-11.7235
-11.804
-11.8867
-11.9722
-12.0616
-12.1558
-12.2562
-12.3642
-12.4817
-12.6106
-12.7528
-12.9111
-13.0851
-13.2776
-13.4685
-13.6455
-1.35645
-5.97135
-9.06272
-9.91896
-10.3871
-10.6584
-10.7808
-10.8737
-10.9642
-11.0507
-11.1349
-11.218
-11.3003
-11.382
-11.4632
-11.5443
-11.6256
-11.7074
-11.7903
-11.8748
-11.9616
-12.0515
-12.1455
-12.2447
-12.3501
-12.4632
-12.5852
-12.7171
-12.8594
-13.0097
-13.1628
-13.2977
-13.3756
-2.9934
-6.07346
-8.6731
-9.57402
-10.0785
-10.4297
-10.6229
-10.7561
-10.8721
-10.9764
-11.0734
-11.1664
-11.2564
-11.3442
-11.4306
-11.516
-11.601
-11.6859
-11.7713
-11.8577
-11.9456
-12.0358
-12.1291
-12.226
-12.3275
-12.4341
-12.5461
-12.6632
-12.7836
-12.9026
-13.01
-13.0858
-13.0883
-4.21763
-6.25608
-8.42427
-9.36618
-9.89001
-10.2687
-10.4973
-10.6539
-10.7866
-10.9043
-11.0116
-11.1128
-11.2099
-11.3036
-11.395
-11.4847
-11.5733
-11.6614
-11.7494
-11.8379
-11.9274
-12.0183
-12.1111
-12.2063
-12.304
-12.4041
-12.5061
-12.6083
-12.7072
-12.7967
-12.8653
-12.8958
-12.8562
-5.17005
-6.54429
-8.30904
-9.21403
-9.72587
-10.1132
-10.3724
-10.555
-10.7062
-10.838
-10.9559
-11.0649
-11.168
-11.2667
-11.362
-11.4551
-11.5466
-11.6369
-11.7267
-11.8164
-11.9064
-11.9969
-12.0883
-12.1807
-12.2739
-12.3672
-12.4594
-12.548
-12.6289
-12.6954
-12.7369
-12.7394
-12.6799
-5.91787
-6.85236
-8.26
-9.10069
-9.60128
-9.99062
-10.2689
-10.4692
-10.633
-10.7749
-10.9009
-11.0166
-11.1253
-11.2287
-11.3283
-11.4249
-11.5193
-11.612
-11.7037
-11.7946
-11.8851
-11.9754
-12.0655
-12.1553
-12.2444
-12.3316
-12.4154
-12.4929
-12.5597
-12.6097
-12.6335
-12.6203
-12.5537
-6.51204
-7.15798
-8.27235
-9.03308
-9.51153
-9.88961
-10.1747
-10.3871
-10.5614
-10.7126
-10.8468
-10.9692
-11.0834
-11.1916
-11.295
-11.3948
-11.4918
-11.5866
-11.6798
-11.7716
-11.8623
-11.9519
-12.0405
-12.1277
-12.2128
-12.2945
-12.3709
-12.4393
-12.4955
-12.534
-12.5474
-12.5277
-12.4638
-6.99042
-7.44554
-8.32265
-8.99497
-9.44472
-9.80728
-10.0937
-10.3143
-10.4967
-10.655
-10.7957
-10.9236
-11.0425
-11.1546
-11.2615
-11.3642
-11.4637
-11.5605
-11.6551
-11.7478
-11.8387
-11.9279
-12.0152
-12.1001
-12.1818
-12.2591
-12.3299
-12.3917
-12.4408
-12.4728
-12.4819
-12.4626
-12.408
-7.3799
-7.70735
-8.39708
-8.98253
-9.40012
-9.74372
-10.0252
-10.2491
-10.4363
-10.5998
-10.7457
-10.8785
-11.0018
-11.1178
-11.228
-11.3336
-11.4354
-11.5341
-11.63
-11.7234
-11.8145
-11.9032
-11.9893
-12.0722
-12.1511
-12.2248
-12.2914
-12.3487
-12.3936
-12.4228
-12.4321
-12.4181
-12.3767
-7.70012
-7.94106
-8.48478
-8.98889
-9.37184
-9.6943
-9.96698
-10.191
-10.3811
-10.5485
-10.6986
-10.8355
-10.9625
-11.0819
-11.195
-11.3031
-11.4071
-11.5074
-11.6045
-11.6986
-11.79
-11.8784
-11.9635
-12.0449
-12.1218
-12.193
-12.2569
-12.3117
-12.3552
-12.3847
-12.3976
-12.3919
-12.366
-7.96543
-8.14671
-8.57763
-9.00876
-9.35679
-9.65748
-9.919
-10.1402
-10.331
-10.5005
-10.6536
-10.7938
-10.924
-11.0463
-11.1622
-11.2727
-11.3786
-11.4805
-11.5788
-11.6737
-11.7653
-11.8535
-11.938
-12.0184
-12.0939
-12.1636
-12.2261
-12.2802
-12.3241
-12.3561
-12.3748
-12.3794
-12.3694
-8.18636
-8.32578
-8.67
-9.03752
-9.3516
-9.6305
-9.87933
-10.0956
-10.2855
-10.456
-10.6111
-10.7539
-10.8868
-11.0117
-11.13
-11.2427
-11.3504
-11.4538
-11.5532
-11.6488
-11.7408
-11.829
-11.9132
-11.993
-12.0679
-12.1369
-12.1993
-12.254
-12.2999
-12.3361
-12.3619
-12.3774
-12.3831
-8.37076
-8.48024
-8.75796
-9.07125
-9.35344
-9.61125
-9.84683
-10.0568
-10.2444
-10.4148
-10.5712
-10.7158
-10.8509
-10.978
-11.0985
-11.213
-11.3225
-11.4273
-11.5278
-11.6242
-11.7167
-11.8051
-11.8894
-11.9691
-12.0438
-12.1131
-12.1762
-12.2326
-12.2816
-12.3228
-12.3564
-12.3827
-12.403
-8.52449
-8.61218
-8.83889
-9.10673
-9.35979
-9.59767
-9.82001
-10.0228
-10.2072
-10.3767
-10.5335
-10.6795
-10.8164
-10.9454
-11.0677
-11.1841
-11.2951
-11.4012
-11.5028
-11.6001
-11.6932
-11.782
-11.8666
-11.9465
-12.0217
-12.0918
-12.1563
-12.2151
-12.2678
-12.3146
-12.3558
-12.3923
-12.4258
-8.65194
-8.72352
-8.91107
-9.14135
-9.36841
-9.58791
-9.7975
-9.99277
-10.1734
-10.3414
-10.4981
-10.645
-10.7833
-10.914
-11.038
-11.1559
-11.2684
-11.3759
-11.4786
-11.5767
-11.6705
-11.76
-11.8451
-11.9257
-12.0018
-12.0731
-12.1395
-12.2011
-12.2578
-12.3101
-12.3587
-12.4045
-12.4492
-8.75643
-8.81595
-8.97339
-9.17298
-9.37736
-9.58025
-9.77798
-9.96581
-10.1424
-10.3084
-10.4648
-10.6123
-10.7516
-10.8837
-11.0092
-11.1287
-11.2426
-11.3513
-11.455
-11.5542
-11.6488
-11.739
-11.8248
-11.9063
-11.9834
-12.0562
-12.1248
-12.1893
-12.25
-12.3075
-12.3626
-12.4164
-12.4705
-8.84041
-8.89084
-9.02514
-9.19994
-9.38492
-9.57317
-9.76015
-9.94097
-10.1135
-10.2776
-10.4334
-10.5812
-10.7215
-10.8549
-10.9818
-11.1027
-11.2179
-11.3278
-11.4328
-11.5329
-11.6284
-11.7195
-11.8062
-11.8888
-11.9672
-12.0417
-12.1125
-12.1799
-12.2444
-12.3066
-12.3674
-12.4278
-12.4894
-8.90569
-8.94923
-9.0658
-9.22084
-9.3896
-9.56525
-9.74283
-9.91732
-10.0861
-10.2482
-10.4034
-10.5515
-10.6927
-10.8273
-10.9555
-11.0777
-11.1942
-11.3054
-11.4114
-11.5125
-11.6089
-11.7009
-11.7885
-11.8721
-11.9519
-12.028
-12.1009
-12.1709
-12.2386
-12.3047
-12.3701
-12.4357
-12.503
-8.95353
-8.99187
-9.09495
-9.23449
-9.39005
-9.55523
-9.72489
-9.89399
-10.0595
-10.2201
-10.3749
-10.5234
-10.6655
-10.8013
-10.9309
-11.0545
-11.1724
-11.2848
-11.3919
-11.4941
-11.5916
-11.6845
-11.7732
-11.858
-11.939
-12.0167
-12.0915
-12.1638
-12.2343
-12.3035
-12.3725
-12.442
-12.5132
-8.98471
-9.01919
-9.11219
-9.23989
-9.38507
-9.5419
-9.70524
-9.87005
-10.0331
-10.1925
-10.3472
-10.4963
-10.6394
-10.7764
-10.9074
-11.0323
-11.1515
-11.2651
-11.3733
-11.4764
-11.5748
-11.6686
-11.7582
-11.8438
-11.9259
-12.0049
-12.0811
-12.1552
-12.2276
-12.2991
-12.3705
-12.4425
-12.5161
-8.99965
-9.03134
-9.11705
-9.23607
-9.37355
-9.52421
-9.68297
-9.84483
-10.0064
-10.1654
-10.3205
-10.4706
-10.6152
-10.7538
-10.8863
-11.0129
-11.1335
-11.2484
-11.3579
-11.4621
-11.5614
-11.6562
-11.7466
-11.8332
-11.9162
-11.9962
-12.0736
-12.149
-12.2229
-12.2959
-12.3687
-12.442
-12.5165
-8.99832
-9.02814
-9.10893
-9.22207
-9.35438
-9.50101
-9.65696
-9.81725
-9.97832
-10.1378
-10.2938
-10.4453
-10.5914
-10.7316
-10.8658
-10.9939
-11.1159
-11.232
-11.3425
-11.4477
-11.5477
-11.6431
-11.7341
-11.8212
-11.9048
-11.9854
-12.0634
-12.1393
-12.2138
-12.2873
-12.3605
-12.434
-12.5083
-8.98031
-9.00905
-9.08704
-9.19694
-9.3266
-9.4715
-9.62671
-9.78722
-9.94932
-10.1104
-10.2686
-10.4223
-10.5708
-10.7133
-10.8496
-10.9797
-11.1034
-11.221
-11.3328
-11.439
-11.5399
-11.6359
-11.7275
-11.815
-11.899
-11.9798
-12.058
-12.134
-12.2085
-12.2818
-12.3546
-12.4272
-12.5003
-8.9448
-8.97319
-9.05035
-9.15947
-9.28888
-9.43422
-9.59057
-9.7528
-9.91712
-10.0807
-10.2415
-10.398
-10.549
-10.694
-10.8325
-10.9644
-11.0897
-11.2086
-11.3214
-11.4283
-11.5297
-11.6261
-11.7178
-11.8053
-11.8891
-11.9696
-12.0473
-12.1228
-12.1964
-12.2687
-12.3401
-12.4112
-12.4822
-8.89053
-8.91934
-8.99767
-9.10866
-9.24063
-9.38926
-9.54949
-9.71603
-9.88487
-10.0531
-10.2183
-10.3789
-10.5338
-10.6821
-10.8236
-10.958
-11.0855
-11.206
-11.3201
-11.4279
-11.5299
-11.6265
-11.7182
-11.8055
-11.8888
-11.9686
-12.0455
-12.1198
-12.1921
-12.2627
-12.3321
-12.4006
-12.4686
-8.81566
-8.84561
-8.92707
-9.04236
-9.17924
-9.33322
-9.49907
-9.67129
-9.84571
-10.0192
-10.1895
-10.3547
-10.5136
-10.6655
-10.81
-10.947
-11.0764
-11.1984
-11.3135
-11.4219
-11.5241
-11.6206
-11.7119
-11.7984
-11.8808
-11.9594
-12.0347
-12.1073
-12.1775
-12.2458
-12.3125
-12.378
-12.4427
-8.71774
-8.74986
-8.83719
-8.96051
-9.1065
-9.27027
-9.44614
-9.62813
-9.81174
-9.99369
-10.1715
-10.3433
-10.5079
-10.6646
-10.813
-10.9531
-11.0848
-11.2086
-11.3248
-11.4338
-11.5361
-11.6322
-11.7228
-11.8083
-11.8892
-11.9661
-12.0394
-12.1097
-12.1772
-12.2425
-12.3058
-12.3674
-12.4276
-8.59321
-8.62822
-8.72345
-8.85698
-9.01373
-9.18851
-9.37539
-9.56801
-9.76163
-9.95282
-10.139
-10.3181
-10.4891
-10.6512
-10.804
-10.9474
-11.0818
-11.2073
-11.3245
-11.4339
-11.5361
-11.6316
-11.7211
-11.805
-11.8841
-11.9587
-12.0295
-12.0968
-12.1612
-12.223
-12.2826
-12.3403
-12.3963
-8.43795
-8.47829
-8.58732
-8.73892
-8.91494
-9.10912
-9.31454
-9.52405
-9.73258
-9.93668
-10.1338
-10.3221
-10.5006
-10.6687
-10.8261
-10.9731
-11.1098
-11.2369
-11.3549
-11.4643
-11.5658
-11.6601
-11.7479
-11.8297
-11.9062
-11.9779
-12.0454
-12.1091
-12.1695
-12.2269
-12.2818
-12.3344
-12.3848
-8.2445
-8.28957
-8.41258
-8.58142
-8.77517
-8.9879
-9.21226
-9.44008
-9.66569
-9.88529
-10.0961
-10.2961
-10.4844
-10.6604
-10.8241
-10.9757
-11.1157
-11.2448
-11.3637
-11.4732
-11.574
-11.6669
-11.7527
-11.832
-11.9056
-11.974
-12.0378
-12.0976
-12.1537
-12.2067
-12.2569
-12.3048
-12.3504
-8.00772
-8.06748
-8.22336
-8.43039
-8.66006
-8.90536
-9.15825
-9.41018
-9.6559
-9.89217
-10.1166
-10.3277
-10.5248
-10.7075
-10.8763
-11.0314
-11.1736
-11.3037
-11.4226
-11.5311
-11.6302
-11.7207
-11.8034
-11.8792
-11.9486
-12.0125
-12.0714
-12.1259
-12.1764
-12.2235
-12.2674
-12.3086
-12.3473
-7.70537
-7.76753
-7.94341
-8.17712
-8.43746
-8.71783
-9.00667
-9.29225
-9.56817
-9.83069
-10.0772
-10.3062
-10.5174
-10.711
-10.8876
-11.0482
-11.1939
-11.3257
-11.4449
-11.5526
-11.6499
-11.7379
-11.8175
-11.8896
-11.955
-12.0144
-12.0686
-12.118
-12.1632
-12.2048
-12.2432
-12.2789
-12.3122
-7.34791
-7.46546
-7.72703
-8.03216
-8.34385
-8.66506
-8.98704
-9.29923
-9.59712
-9.87811
-10.14
-10.3816
-10.6029
-10.8043
-10.9864
-11.1505
-11.2978
-11.4296
-11.5474
-11.6524
-11.7459
-11.8293
-11.9035
-11.9696
-12.0285
-12.0809
-12.1277
-12.1695
-12.2068
-12.2401
-12.27
-12.2969
-12.3214
-6.82236
-6.91373
-7.21303
-7.58604
-7.9787
-8.38362
-8.78028
-9.15483
-9.50363
-9.82478
-10.1172
-10.3815
-10.6191
-10.8316
-11.0211
-11.1895
-11.3388
-11.4709
-11.5875
-11.6903
-11.7809
-11.8605
-11.9305
-11.9919
-12.0457
-12.0928
-12.1338
-12.1695
-12.2005
-12.2272
-12.2502
-12.2703
-12.2882
-6.33115
-6.65391
-7.12298
-7.54371
-7.95617
-8.38746
-8.80926
-9.20804
-9.58221
-9.9281
-10.2428
-10.5258
-10.7781
-11.0013
-11.1974
-11.3687
-11.5177
-11.6468
-11.7582
-11.8542
-11.9365
-12.007
-12.0671
-12.1181
-12.1613
-12.1975
-12.2276
-12.2521
-12.2715
-12.2862
-12.2966
-12.3034
-12.3068
-5.03205
-5.35453
-6.129
-6.83059
-7.46947
-8.07875
-8.62637
-9.112
-9.54594
-9.93198
-10.2735
-10.5748
-10.8397
-11.0715
-11.2735
-11.4486
-11.5996
-11.7291
-11.8395
-11.9331
-12.0119
-12.0778
-12.1325
-12.1774
-12.2137
-12.2425
-12.2645
-12.2804
-12.2902
-12.2943
-12.2918
-12.2842
-12.2668
-5.02224
-5.7682
-6.37551
-6.84638
-7.45068
-8.0887
-8.68365
-9.23794
-9.74531
-10.1953
-10.5869
-10.9238
-11.2102
-11.4511
-11.6518
-11.8176
-11.9534
-12.0635
-12.152
-12.2222
-12.2772
-12.3194
-12.3509
-12.3737
-12.3893
-12.3987
-12.4029
-12.4024
-12.3971
-12.3861
-12.3667
-12.3359
-12.2797
1.22251
-3.38598
-5.17323
-6.02794
-7.03444
-7.91509
-8.62016
-9.23237
-9.76808
-10.2277
-10.6203
-10.9541
-11.2358
-11.4715
-11.6672
-11.8285
-11.9603
-12.067
-12.1523
-12.2198
-12.2723
-12.3124
-12.342
-12.3632
-12.3774
-12.3859
-12.3898
-12.39
-12.3875
-12.3819
-12.3761
-12.365
-12.3601
-14.1528
-14.0483
-13.0157
-11.0936
-8.79272
-6.7892
-5.65972
-5.87421
-7.81443
-11.6912
-17.5223
-25.0134
-33.4468
-41.772
-48.9832
-54.4365
-57.72
-58.501
-56.5187
-51.975
-45.3145
-36.9191
-27.465
-18.3025
-10.7007
-5.02429
-0.994606
1.75342
3.43915
4.09936
3.66726
1.82409
-1.8694
-7.60303
-15.0485
-23.4306
-31.8745
-39.6511
-46.1757
-50.9642
-53.6329
-54.0082
-52.0331
-47.9453
-42.1735
-35.3452
-28.256
-21.6617
-16.0285
-11.4786
-7.92043
-5.19225
-3.13299
-1.60217
-0.482606
0.320684
0.883144
1.26392
1.50892
1.65352
1.72482
1.74349
1.72524
1.68201
1.62278
1.55428
1.48141
1.40768
1.33541
1.26604
1.20028
1.13828
1.07985
1.02452
0.971728
0.920915
0.871602
0.823451
0.776285
0.730083
0.684942
0.641027
0.598506
0.557503
0.518064
0.480148
0.44362
0.408292
0.373881
0.340187
0.306828
0.273983
0.240872
0.209072
0.175166
0.146443
0.106949
0.0901864
0.0244504
0.0611939
-14.0099
-13.7365
-12.6596
-10.7236
-8.3443
-6.26776
-5.16734
-5.47651
-7.44886
-11.2824
-16.9562
-24.1456
-32.1643
-40.0497
-46.8732
-52.0002
-55.0109
-55.6228
-53.669
-49.3279
-42.9169
-34.8234
-25.8818
-17.4287
-10.4751
-5.22606
-1.43317
1.18357
2.78948
3.40751
2.9714
1.2434
-2.12354
-7.32863
-14.1476
-21.9343
-29.8794
-37.2543
-43.4624
-48.0234
-50.5704
-50.9371
-49.0706
-45.21
-39.8019
-33.479
-26.9766
-20.9333
-15.7247
-11.455
-8.06234
-5.42254
-3.40338
-1.88322
-0.756939
0.062789
0.646627
1.05079
1.31946
1.48701
1.57998
1.61877
1.61895
1.59239
1.54807
1.49273
1.43131
1.36738
1.30338
1.24087
1.1807
1.12319
1.06831
1.01576
0.965151
0.916052
0.868105
0.821056
0.774789
0.729334
0.6848
0.641367
0.599213
0.558464
0.519176
0.481325
0.444786
0.409384
0.374855
0.341021
0.307517
0.274538
0.24131
0.20941
0.175411
0.146611
0.107045
0.0902216
0.024456
0.0611001
-13.6977
-13.3429
-12.2037
-10.2954
-8.07445
-6.15092
-5.0788
-5.40704
-7.46459
-11.2248
-16.6301
-23.3999
-30.9023
-38.257
-44.6127
-49.3444
-52.0688
-52.5417
-50.6569
-46.5126
-40.3342
-32.599
-24.2925
-16.624
-10.3246
-5.49303
-1.9368
0.543232
2.0643
2.63927
2.20679
0.581735
-2.49268
-7.19276
-13.3678
-20.5
-27.8741
-34.7871
-40.6396
-44.9517
-47.3669
-47.7225
-45.9811
-42.3906
-37.4075
-31.641
-25.7403
-20.2332
-15.4283
-11.4261
-8.1951
-5.64488
-3.6686
-2.16192
-1.03121
-0.196692
0.407452
0.834399
1.12647
1.31693
1.43172
1.49086
1.50976
1.50019
1.47109
1.4292
1.3795
1.32563
1.27011
1.21464
1.16021
1.10731
1.05609
1.00642
0.958062
0.910735
0.864199
0.818295
0.772974
0.728305
0.684423
0.641518
0.59977
0.55931
0.520202
0.482429
0.445883
0.41041
0.375767
0.341798
0.308159
0.275057
0.241722
0.209729
0.175646
0.146772
0.107143
0.0902571
0.0244675
0.061034
-13.3259
-12.8934
-11.8027
-10.0847
-8.08733
-6.34813
-5.46611
-5.87411
-7.85997
-11.4971
-16.5933
-22.8351
-29.6965
-36.4193
-42.2326
-46.5193
-48.9744
-49.3578
-47.5514
-43.5482
-37.5872
-30.3182
-22.7749
-15.9222
-10.2493
-5.81355
-2.49156
-0.15357
1.279
1.81079
1.38865
-0.138151
-2.95031
-7.17927
-12.7199
-19.1655
-25.9094
-32.302
-37.756
-41.7939
-44.067
-44.4183
-42.834
-39.5684
-35.0667
-29.8838
-24.5722
-19.5688
-15.1396
-11.3907
-8.31769
-5.85835
-3.92783
-2.43751
-1.30476
-0.45722
0.166042
0.615059
0.930181
1.14348
1.28018
1.35989
1.39778
1.4055
1.39193
1.36378
1.32608
1.28252
1.23572
1.1875
1.13901
1.09091
1.0435
0.996829
0.950831
0.90536
0.860297
0.815577
0.771219
0.727338
0.684097
0.6417
0.600339
0.560152
0.521213
0.483518
0.446973
0.411438
0.376689
0.342589
0.308811
0.275577
0.242126
0.21003
0.175859
0.146906
0.107221
0.0902714
0.0244659
0.0609748
-12.9661
-12.5204
-11.5566
-10.1062
-8.4536
-7.03359
-6.32623
-6.79066
-8.69302
-12.0754
-16.7969
-22.501
-28.673
-34.681
-39.8717
-43.6979
-45.9457
-46.2284
-44.3781
-40.4131
-34.7237
-28.0816
-21.3892
-15.331
-10.2388
-6.17661
-3.08706
-0.895219
0.447313
0.936796
0.52963
-0.89756
-3.47256
-7.2754
-12.2195
-17.9819
-24.0609
-29.882
-34.8929
-38.6282
-40.7515
-41.1153
-39.7271
-36.8334
-32.8427
-28.2369
-23.4794
-18.9398
-14.8587
-11.3497
-8.43096
-6.06337
-4.18105
-2.70978
-1.5773
-0.718505
-0.0773516
0.392979
0.730769
0.966799
1.12548
1.22595
1.2831
1.3084
1.31065
1.29654
1.2711
1.23808
1.20022
1.15943
1.11703
1.07385
1.03035
0.986778
0.943205
0.899641
0.85609
0.812585
0.769219
0.726151
0.683579
0.641719
0.600771
0.560884
0.522137
0.484536
0.448001
0.412411
0.377559
0.34333
0.309418
0.276055
0.24249
0.210292
0.176041
0.147014
0.107287
0.0902763
0.0244641
0.0609407
-12.7037
-12.2891
-11.5009
-10.3761
-9.1204
-8.0567
-7.56799
-8.04722
-9.78974
-12.8691
-17.1418
-22.2857
-27.8175
-33.1582
-37.7627
-41.2273
-43.0584
-43.0289
-40.9837
-37.0956
-31.8692
-26.0089
-20.1773
-14.8479
-10.2819
-6.57114
-3.711
-1.66718
-0.414711
0.0350452
-0.35461
-1.68116
-4.03777
-7.46194
-11.8667
-16.9847
-22.4011
-27.6244
-32.1588
-35.5694
-37.542
-37.9377
-36.7741
-34.2718
-30.7843
-26.7182
-22.4644
-18.3453
-14.585
-11.3033
-8.53511
-6.25984
-4.42797
-2.97832
-1.84842
-0.980179
-0.322413
0.168421
0.528449
0.78706
0.967778
1.0892
1.16585
1.20902
1.22739
1.22758
1.21467
1.19244
1.16371
1.13055
1.09442
1.0563
1.01685
0.976466
0.935407
0.893822
0.851836
0.809583
0.767229
0.724983
0.683075
0.641743
0.601198
0.5616
0.523038
0.48553
0.449009
0.413369
0.378423
0.344071
0.310025
0.276531
0.242849
0.210542
0.176207
0.147099
0.107335
0.0902624
0.0244519
0.0609168
-12.5223
-12.1599
-11.5376
-10.6956
-9.79312
-9.07472
-8.83079
-9.35976
-10.9142
-13.6136
-17.3789
-21.9299
-26.8259
-31.5398
-35.5634
-38.4429
-39.7828
-39.4107
-37.3239
-33.7762
-29.2234
-24.1895
-19.1454
-14.4573
-10.3655
-6.98665
-4.35169
-2.45574
-1.29245
-0.879408
-1.24923
-2.47562
-4.62691
-7.71264
-11.6399
-16.1767
-20.973
-25.6121
-29.6653
-32.7456
-34.5705
-35.0066
-34.0682
-31.9387
-28.9115
-25.3274
-21.5217
-17.782
-14.3181
-11.2523
-8.63082
-6.44809
-4.66861
-3.24297
-2.11788
-1.24198
-0.568903
-0.0584022
0.323409
0.604434
0.807231
0.949767
1.04618
1.10749
1.14225
1.15704
1.15689
1.14567
1.12628
1.10091
1.07117
1.03823
1.00291
0.965802
0.927313
0.887748
0.847358
0.806379
0.765054
0.723645
0.682418
0.64163
0.601507
0.562216
0.523856
0.486455
0.449959
0.414279
0.379242
0.344768
0.310588
0.27696
0.243159
0.210743
0.176331
0.147147
0.10736
0.0902317
0.0244359
0.0609138
-12.4047
-12.097
-11.6089
-10.984
-10.3514
-9.90255
-9.86142
-10.452
-11.859
-14.1798
-17.3767
-21.2458
-25.4219
-29.4393
-32.7986
-35.0919
-36.0666
-35.6213
-33.7892
-30.7804
-26.9354
-22.6415
-18.2708
-14.1406
-10.4788
-7.41353
-4.99764
-3.24763
-2.17199
-1.79284
-2.14038
-3.26855
-5.22554
-8.0041
-11.509
-15.5336
-19.7763
-23.8808
-27.4811
-30.2451
-31.9253
-32.3923
-31.6509
-29.8462
-27.2181
-24.0535
-20.6442
-17.2475
-14.0584
-11.1974
-8.71879
-6.62844
-4.903
-3.5036
-2.38546
-1.50369
-0.816594
-0.287276
0.115846
0.419109
0.644014
0.80783
0.924237
1.00397
1.05541
1.08504
1.09791
1.09791
1.08804
1.07061
1.04741
1.01976
0.988678
0.95492
0.919068
0.881575
0.84282
0.803142
0.762862
0.722297
0.681749
0.641501
0.601792
0.562802
0.52464
0.487346
0.450878
0.415162
0.380041
0.345452
0.311143
0.277383
0.243461
0.210931
0.176438
0.14717
0.107366
0.0901815
0.0244121
0.0609204
-12.3336
-12.0838
-11.712
-11.2614
-10.8356
-10.585
-10.6848
-11.3064
-12.5844
-14.5809
-17.257
-20.4526
-23.8838
-27.1746
-29.9278
-31.8249
-32.6455
-32.2881
-30.7731
-28.2594
-25.0061
-21.3219
-17.5211
-13.8817
-10.6127
-7.84299
-5.63856
-4.03139
-3.04137
-2.69382
-3.01692
-4.04917
-5.82258
-8.31906
-11.4461
-15.0192
-18.7759
-22.4089
-25.6043
-28.0775
-29.6151
-30.093
-29.5079
-27.9722
-25.6824
-22.882
-19.8248
-16.74
-13.8062
-11.1399
-8.79988
-6.80144
-5.13137
-3.76025
-2.65109
-1.76515
-1.06532
-0.518027
-0.094061
0.231263
0.478309
0.663572
0.800218
0.89865
0.967036
1.01178
1.03788
1.04929
1.04911
1.03977
1.02321
1.00094
0.974161
0.943806
0.91063
0.875236
0.838134
0.799769
0.760541
0.720825
0.680965
0.641265
0.601981
0.563304
0.525353
0.488176
0.451747
0.416001
0.380801
0.346098
0.311657
0.277759
0.24371
0.211063
0.176495
0.147148
0.107342
0.0901073
0.0243828
0.0609418
-12.3021
-12.1094
-11.8382
-11.529
-11.2654
-11.1652
-11.3641
-11.993
-13.1511
-14.878
-17.1318
-19.7779
-22.5916
-25.2845
-27.5594
-29.1457
-29.8303
-29.5275
-28.2552
-26.1302
-23.354
-20.1798
-16.8721
-13.67
-10.7602
-8.2675
-6.2656
-4.79705
-3.89006
-3.57201
-3.86924
-4.8083
-6.40883
-8.64528
-11.4301
-14.6002
-17.9272
-21.145
-23.9825
-26.1922
-27.5896
-28.061
-27.5961
-26.2824
-24.2816
-21.8006
-19.0588
-16.2588
-13.5625
-11.0808
-8.8751
-6.96773
-5.3541
-4.01305
-2.91478
-2.0263
-1.31496
-0.750511
-0.30615
0.0410741
0.310307
0.517197
0.674332
0.791736
0.877346
0.937441
0.977004
1.00001
1.00966
1.00853
0.998703
0.981891
0.959472
0.932568
0.902102
0.868835
0.833405
0.796363
0.758193
0.719328
0.68015
0.640992
0.602127
0.563758
0.526015
0.488958
0.45257
0.416803
0.381531
0.34672
0.312154
0.278121
0.243947
0.211177
0.176529
0.147096
0.107295
0.0900098
0.0243481
0.0609687
-12.2978
-12.1591
-11.9743
-11.7799
-11.6434
-11.6568
-11.9246
-12.5459
-13.5937
-15.0928
-17.0036
-19.2138
-21.5426
-23.7616
-25.6262
-26.9177
-27.4685
-27.1997
-26.1153
-24.3027
-21.9239
-19.1864
-16.3098
-13.4976
-10.9151
-8.68061
-6.87124
-5.53611
-4.70898
-4.41843
-4.68893
-5.53828
-6.97657
-8.97362
-11.4474
-14.254
-17.1959
-20.0425
-22.559
-24.529
-25.7923
-26.2464
-25.8761
-24.7494
-22.9996
-20.8012
-18.3433
-15.8036
-13.3282
-11.0214
-8.94552
-7.12812
-5.5717
-4.26232
-3.17666
-2.28717
-1.56548
-0.984636
-0.520288
-0.151289
0.140207
0.368926
0.546816
0.683477
0.786582
0.862273
0.915494
0.950261
0.969865
0.977027
0.97401
0.962701
0.944675
0.921242
0.8935
0.862365
0.828609
0.79289
0.755774
0.717757
0.679261
0.640647
0.602205
0.564152
0.526625
0.489695
0.453356
0.417571
0.382229
0.347309
0.312613
0.278436
0.24413
0.211232
0.17651
0.146991
0.107212
0.0898804
0.0243079
0.0610021
-12.3143
-12.2247
-12.1125
-12.01
-11.9713
-12.0681
-12.3804
-12.9827
-13.9274
-15.2288
-16.8505
-18.699
-20.6278
-22.4523
-23.9758
-25.0245
-25.4601
-25.2103
-24.2747
-22.7224
-20.6821
-18.3215
-15.8222
-13.3571
-11.0719
-9.07694
-7.44925
-6.24139
-5.49047
-5.22549
-5.46888
-6.23273
-7.51943
-9.29661
-11.4877
-13.9663
-16.5609
-19.0728
-21.2985
-23.0504
-24.1873
-24.6178
-24.3234
-23.3563
-21.8256
-19.8782
-17.6761
-15.3744
-13.1044
-10.9631
-9.01239
-7.28358
-5.78485
-4.50849
-3.43702
-2.54791
-1.81693
-1.22037
-0.736377
-0.345671
-0.0317893
0.218997
0.417935
0.574152
0.695026
0.786547
0.853613
0.900279
0.92994
0.945465
0.949297
0.943514
0.929892
0.909933
0.884912
0.855902
0.823811
0.789404
0.753333
0.716151
0.678326
0.640247
0.60222
0.564476
0.527164
0.490364
0.454079
0.418284
0.382883
0.347864
0.313046
0.27873
0.244293
0.211262
0.176461
0.146849
0.107101
0.0897205
0.0242648
0.0610333
-12.3438
-12.2977
-12.2458
-12.2158
-12.251
-12.4072
-12.7451
-13.3197
-14.168
-15.2966
-16.672
-18.2166
-19.8117
-21.3089
-22.5511
-23.3964
-23.7319
-23.4967
-22.6871
-21.3556
-19.6039
-17.568
-15.3986
-13.2421
-11.2262
-9.4521
-7.99457
-6.90713
-6.22838
-5.98713
-6.20373
-6.88667
-8.03233
-9.60801
-11.543
-13.7257
-16.008
-18.2183
-20.1809
-21.7339
-22.7523
-23.155
-22.9214
-22.0906
-20.7516
-19.027
-17.0552
-14.9712
-12.8919
-10.9071
-9.07702
-7.43522
-5.99442
-4.7522
-3.69628
-2.8088
-2.06946
-1.45776
-0.954365
-0.541939
-0.205479
0.0676683
0.287984
0.464077
0.603001
0.710578
0.791657
0.850337
0.890124
0.914045
0.924731
0.924467
0.91523
0.898722
0.876397
0.849491
0.819043
0.78593
0.750887
0.71453
0.677368
0.639818
0.602205
0.564773
0.527679
0.491012
0.454785
0.418982
0.383519
0.348396
0.313448
0.278981
0.244406
0.211232
0.176355
0.146646
0.106947
0.0895191
0.024218
0.0610602
-12.3815
-12.3728
-12.37
-12.3962
-12.486
-12.6823
-13.0309
-13.5719
-14.3306
-15.3081
-16.4741
-17.7639
-19.0812
-20.307
-21.3158
-21.9923
-22.2448
-22.0217
-21.3171
-20.1715
-18.6658
-16.9104
-15.0295
-13.1469
-11.3741
-9.80267
-8.50336
-7.52891
-6.91801
-6.69871
-6.88943
-7.4963
-8.51138
-9.90282
-11.606
-13.5226
-15.5244
-17.4639
-19.189
-20.5609
-21.4689
-21.841
-21.6555
-20.9412
-19.7697
-18.2431
-16.4789
-14.5939
-12.6919
-10.855
-9.14085
-7.58431
-6.20146
-4.99427
-3.95507
-3.07027
-2.32335
-1.69694
-1.17426
-0.739983
-0.380657
-0.0847813
0.157295
0.353614
0.510881
0.634734
0.729977
0.800758
0.850705
0.883019
0.90053
0.905737
0.900832
0.887719
0.868037
0.843184
0.814336
0.782478
0.74843
0.712869
0.676347
0.639309
0.602099
0.564972
0.528095
0.491565
0.455404
0.419605
0.384095
0.348881
0.313814
0.279203
0.24449
0.211167
0.176211
0.146395
0.10676
0.0892756
0.0241712
0.0610728
-12.4226
-12.4456
-12.4818
-12.5507
-12.6792
-12.9006
-13.2488
-13.7526
-14.4285
-15.2739
-16.2614
-17.3374
-18.4237
-19.4246
-20.2401
-20.7765
-20.9598
-20.7468
-20.1311
-19.1436
-17.8487
-16.3355
-14.7068
-13.0671
-11.5128
-10.1262
-8.97291
-8.10365
-7.55604
-7.35698
-7.52309
-8.05879
-8.95367
-10.1772
-11.6709
-13.3485
-15.0989
-16.7954
-18.3072
-19.5144
-20.3199
-20.6601
-20.5126
-19.8977
-18.8728
-17.5223
-15.9454
-14.2426
-12.5054
-10.8082
-9.20548
-7.73232
-6.40723
-5.23575
-4.21421
-3.33296
-2.57903
-1.93816
-1.39613
-0.939731
-0.557122
-0.238052
0.0262362
0.243172
0.419087
0.55943
0.668961
0.751891
0.811992
0.852649
0.876913
0.887507
0.886848
0.877049
0.859939
0.837078
0.80978
0.779138
0.746054
0.711267
0.675369
0.638832
0.602018
0.565193
0.528531
0.492137
0.456039
0.420239
0.384674
0.349358
0.31416
0.27939
0.244529
0.211043
0.176007
0.146075
0.106525
0.0889777
0.024125
0.0610661
-12.4637
-12.5125
-12.5791
-12.6792
-12.834
-13.0686
-13.4081
-13.8727
-14.4724
-15.2021
-16.0376
-16.934
-17.828
-18.643
-19.2988
-19.7199
-19.8466
-19.6432
-19.1032
-18.2503
-17.1358
-15.832
-14.4236
-12.9985
-11.6399
-10.4209
-9.40152
-8.62941
-8.1404
-7.95988
-8.10285
-8.57237
-9.35722
-10.4282
-11.7332
-13.1963
-14.7219
-16.2009
-17.5211
-18.5792
-19.2905
-19.5983
-19.4805
-18.9507
-18.0544
-16.8608
-15.453
-13.9173
-12.3334
-10.7682
-9.27258
-7.88091
-6.61323
-5.47794
-4.47478
-3.59769
-2.83711
-2.18179
-1.62015
-1.14115
-0.734677
-0.391817
-0.104776
0.133224
0.328115
0.485158
0.609079
0.704175
0.774374
0.823275
0.854163
0.870005
0.87345
0.866831
0.852173
0.831199
0.80536
0.775857
0.743676
0.709613
0.674301
0.638238
0.601802
0.56527
0.528824
0.492574
0.456553
0.420771
0.385172
0.349775
0.314461
0.27954
0.244532
0.210876
0.175757
0.145695
0.10625
0.0886204
0.0240841
0.0610262
-12.5024
-12.5717
-12.6612
-12.7832
-12.9542
-13.1931
-13.5181
-13.9428
-14.4727
-15.1013
-15.8071
-16.5528
-17.2869
-17.9482
-18.4723
-18.7988
-18.8796
-18.6854
-18.2103
-17.4725
-16.5129
-15.39
-14.1737
-12.9378
-11.7538
-10.6858
-9.78839
-9.1053
-8.67012
-8.50647
-8.62787
-9.03641
-9.72087
-10.6539
-11.7891
-13.0604
-14.3852
-15.6699
-16.8187
-17.7422
-18.3671
-18.6431
-18.5485
-18.0918
-17.3085
-16.2549
-15.0003
-13.6179
-12.1769
-10.7367
-9.34402
-8.03194
-6.82123
-5.72241
-4.73814
-3.86559
-3.0984
-2.42837
-1.84658
-1.34425
-0.91313
-0.545723
-0.235275
0.0242956
0.238513
0.412453
0.55083
0.658051
0.738236
0.795223
0.832555
0.853461
0.860838
0.857246
0.844906
0.825711
0.801246
0.772819
0.741492
0.708119
0.673368
0.637762
0.601692
0.565443
0.529203
0.493088
0.457131
0.421353
0.385704
0.350206
0.314758
0.279667
0.244496
0.210651
0.175446
0.145234
0.105924
0.0881897
0.0240527
0.060943
-12.5359
-12.621
-12.7269
-12.8632
-13.0425
-13.2789
-13.5853
-13.9706
-14.437
-14.9772
-15.5724
-16.1914
-16.7928
-17.3273
-17.7434
-17.9928
-18.0371
-17.8523
-17.4333
-16.7941
-15.9675
-15.0009
-13.9518
-12.8823
-11.8532
-10.9207
-10.1335
-9.53136
-9.14521
-8.99679
-9.09823
-9.45096
-10.0442
-10.8529
-11.8359
-12.9359
-14.0817
-15.1935
-16.189
-16.9917
-17.5379
-17.7832
-17.7068
-17.3131
-16.6294
-15.7013
-14.5857
-13.3445
-12.0369
-10.7153
-9.4218
-8.18754
-7.0333
-5.97109
-5.00598
-4.13804
-3.36399
-2.67863
-2.0758
-1.54911
-1.09229
-0.699377
-0.364723
-0.0829814
0.150953
0.341989
0.494859
0.614115
0.704106
0.768942
0.812455
0.838156
0.849208
0.848407
0.83818
0.820586
0.797347
0.769872
0.739302
0.706543
0.672297
0.637109
0.601382
0.565406
0.529377
0.493412
0.457543
0.421799
0.38613
0.35056
0.315
0.27975
0.244419
0.210374
0.175079
0.144696
0.105549
0.0876736
0.0240381
0.0607943
-12.5642
-12.6608
-12.7776
-12.9221
-13.1037
-13.3327
-13.618
-13.9651
-14.374
-14.8371
-15.3379
-15.8506
-16.3417
-16.7716
-17.0992
-17.2862
-17.3016
-17.1263
-16.7558
-16.2013
-15.4889
-14.6572
-13.7535
-12.8297
-11.9375
-11.1258
-10.4375
-9.90836
-9.56653
-9.43171
-9.51476
-9.81668
-10.3274
-11.0244
-11.8714
-12.8188
-13.8056
-14.7635
-15.6226
-16.3171
-16.792
-17.0083
-16.9463
-16.6074
-16.012
-15.1966
-14.2078
-13.097
-11.9146
-10.7058
-9.50812
-8.35009
-7.25187
-6.22631
-5.2804
-4.41682
-3.63526
-2.93352
-2.30834
-1.75588
-1.27199
-0.852355
-0.492531
-0.187933
0.0661335
0.27444
0.441783
0.572913
0.672455
0.744834
0.794206
0.82439
0.838832
0.840576
0.832254
0.816096
0.793954
0.767338
0.737456
0.705263
0.671489
0.636692
0.601288
0.565566
0.52973
0.493894
0.458087
0.422347
0.386632
0.350963
0.315265
0.279828
0.244315
0.210041
0.17465
0.144063
0.10512
0.0870543
0.0240513
0.0605579
-12.5847
-12.6889
-12.8121
-12.9599
-13.1391
-13.3572
-13.6202
-13.9309
-14.2878
-14.6837
-15.1041
-15.5279
-15.9276
-16.2717
-16.5272
-16.6639
-16.6571
-16.4915
-16.1635
-15.6819
-15.0677
-14.3523
-13.5747
-12.778
-12.0063
-11.3016
-10.7014
-10.2377
-9.93557
-9.81275
-9.87892
-10.1348
-10.5713
-11.1682
-11.894
-12.7059
-13.5517
-14.3733
-15.1112
-15.7092
-16.12
-16.3093
-16.259
-15.9679
-15.4512
-14.7377
-13.865
-12.8754
-11.8109
-10.7101
-9.6054
-8.52236
-7.47982
-6.49087
-5.56398
-4.70416
-3.91396
-3.1943
-2.54493
-1.96478
-1.45203
-1.00415