/*--------------------------------*- C++ -*----------------------------------*\
| =========                 |                                                 |
| \\      /  F ield         | OpenFOAM: The Open Source CFD Toolbox           |
|  \\    /   O peration     | Version:  2.1.1                                 |
|   \\  /    A nd           | Web:      www.OpenFOAM.org                      |
|    \\/     M anipulation  |                                                 |
\*---------------------------------------------------------------------------*/
FoamFile
{
    version     2.0;
    format      ascii;
    class       surfaceScalarField;
    location    "0.075";
    object      phi;
}
// * * * * * * * * * * * * * * * * * * * * * * * * * * * * * * * * * * * * * //

dimensions      [0 3 -1 0 0 0 0];

internalField   nonuniform List<scalar> 
13452
(
4.59942e-05
2.2493e-05
2.96499e-05
1.63443e-05
2.11608e-05
8.48919e-06
1.72433e-05
3.91749e-06
1.55813e-05
1.66193e-06
1.475e-05
8.31364e-07
1.42126e-05
5.3733e-07
1.37924e-05
4.20241e-07
1.3429e-05
3.63382e-07
1.31068e-05
3.22212e-07
1.28208e-05
2.85952e-07
1.25669e-05
2.53979e-07
1.23401e-05
2.26723e-07
1.21359e-05
2.04234e-07
1.19498e-05
1.86117e-07
1.1778e-05
1.71767e-07
1.16175e-05
1.60557e-07
1.14656e-05
1.51906e-07
1.13203e-05
1.45294e-07
1.118e-05
1.40246e-07
1.10437e-05
1.3631e-07
1.09107e-05
1.33023e-07
1.07808e-05
1.29869e-07
1.06546e-05
1.26257e-07
1.05332e-05
1.21394e-07
1.04188e-05
1.14415e-07
1.03152e-05
1.03555e-07
1.02273e-05
8.78838e-08
1.01665e-05
6.08569e-08
1.01421e-05
2.43589e-08
1.01995e-05
-5.74337e-08
1.03589e-05
-1.59342e-07
-5.86309e-07
1.09452e-05
7.49095e-05
1.80275e-05
7.03974e-05
2.08564e-05
6.3287e-05
1.55996e-05
5.66041e-05
1.06004e-05
5.14534e-05
6.81264e-06
4.77581e-05
4.52664e-06
4.50922e-05
3.20324e-06
4.31132e-05
2.39917e-06
4.15877e-05
1.88888e-06
4.03654e-05
1.54459e-06
3.93533e-05
1.29798e-06
3.84932e-05
1.11411e-06
3.77465e-05
9.73436e-07
3.70867e-05
8.63998e-07
3.64949e-05
7.77941e-07
3.59568e-05
7.09849e-07
3.54615e-05
6.55838e-07
3.50004e-05
6.13037e-07
3.45664e-05
5.79245e-07
3.4154e-05
5.52699e-07
3.37584e-05
5.31898e-07
3.3376e-05
5.15468e-07
3.30038e-05
5.02033e-07
3.26399e-05
4.90113e-07
3.22834e-05
4.77924e-07
3.19345e-05
4.63359e-07
3.15949e-05
4.4312e-07
3.1269e-05
4.13796e-07
3.0964e-05
3.6589e-07
3.06941e-05
2.9426e-07
3.04775e-05
1.59161e-07
3.03711e-05
-5.29909e-08
-4.83941e-07
3.02687e-05
7.85206e-05
1.19634e-05
8.23294e-05
1.70476e-05
8.29745e-05
1.49545e-05
8.14357e-05
1.21392e-05
7.8879e-05
9.36941e-06
7.61485e-05
7.2571e-06
7.35765e-05
5.77529e-06
7.12667e-05
4.70897e-06
6.92326e-05
3.9229e-06
6.74499e-05
3.32733e-06
6.58849e-05
2.86295e-06
6.45053e-05
2.49374e-06
6.3282e-05
2.19671e-06
6.21901e-05
1.95591e-06
6.12083e-05
1.75972e-06
6.03187e-05
1.59946e-06
5.95061e-05
1.4685e-06
5.87575e-05
1.36165e-06
5.8062e-05
1.27474e-06
5.74103e-05
1.20436e-06
5.67946e-05
1.14757e-06
5.62084e-05
1.10172e-06
5.56461e-05
1.0643e-06
5.51035e-05
1.0327e-06
5.45775e-05
1.00399e-06
5.40661e-05
9.74754e-07
5.35688e-05
9.40358e-07
5.30874e-05
8.95208e-07
5.26244e-05
8.28921e-07
5.21875e-05
7.31161e-07
5.17752e-05
5.71483e-07
5.1396e-05
3.26155e-07
-5.92585e-08
5.09713e-05
7.81461e-05
8.34387e-06
8.19212e-05
1.32726e-05
8.46148e-05
1.22608e-05
8.62318e-05
1.05222e-05
8.68985e-05
8.70266e-06
8.69657e-05
7.18997e-06
8.66742e-05
6.06673e-06
8.61657e-05
5.21753e-06
8.5531e-05
4.55756e-06
8.48257e-05
4.03266e-06
8.4084e-05
3.60464e-06
8.33286e-05
3.24907e-06
8.25754e-05
2.94993e-06
8.18348e-05
2.69657e-06
8.11128e-05
2.48169e-06
8.04127e-05
2.29953e-06
7.97358e-05
2.1454e-06
7.9082e-05
2.01546e-06
7.84503e-05
1.90645e-06
7.78391e-05
1.81553e-06
7.72466e-05
1.74009e-06
7.66707e-05
1.67762e-06
7.61094e-05
1.62556e-06
7.5561e-05
1.58112e-06
7.50239e-05
1.54109e-06
7.44971e-05
1.50159e-06
7.39799e-05
1.45752e-06
7.34726e-05
1.40253e-06
7.29746e-05
1.32691e-06
7.24861e-05
1.21964e-06
7.19966e-05
1.06103e-06
7.14902e-05
8.3254e-07
5.28575e-07
7.09024e-05
7.89906e-05
6.00911e-06
8.15879e-05
1.06753e-05
8.35123e-05
1.03364e-05
8.4954e-05
9.08049e-06
8.59704e-05
7.68632e-06
8.67092e-05
6.45115e-06
8.72717e-05
5.50425e-06
8.77047e-05
4.78453e-06
8.80387e-05
4.22355e-06
8.8294e-05
3.77739e-06
8.84841e-05
3.4145e-06
8.86191e-05
3.11407e-06
8.87058e-05
2.8632e-06
8.875e-05
2.65244e-06
8.87572e-05
2.47445e-06
8.87327e-05
2.32403e-06
8.86808e-05
2.19726e-06
8.86053e-05
2.09099e-06
8.85092e-05
2.0026e-06
8.83949e-05
1.9298e-06
8.82645e-05
1.87048e-06
8.81196e-05
1.82252e-06
8.79614e-05
1.78371e-06
8.7791e-05
1.75155e-06
8.7609e-05
1.7231e-06
8.74158e-05
1.69475e-06
8.72115e-05
1.66189e-06
8.69952e-05
1.61879e-06
8.67643e-05
1.55783e-06
8.65135e-05
1.47044e-06
8.6228e-05
1.34646e-06
8.58833e-05
1.17731e-06
9.75932e-07
8.54359e-05
8.04623e-05
4.39274e-06
8.25016e-05
8.63596e-06
8.39833e-05
8.85478e-06
8.50372e-05
8.02663e-06
8.57536e-05
6.96992e-06
8.62614e-05
5.94329e-06
8.66622e-05
5.10344e-06
8.70033e-05
4.44351e-06
8.73077e-05
3.91916e-06
8.75869e-05
3.49812e-06
8.7846e-05
3.15548e-06
8.80874e-05
2.87265e-06
8.83136e-05
2.637e-06
8.85262e-05
2.43981e-06
8.87261e-05
2.27452e-06
8.89141e-05
2.13606e-06
8.90909e-05
2.02052e-06
8.92571e-05
1.92472e-06
8.94137e-05
1.84602e-06
8.95614e-05
1.78213e-06
8.97009e-05
1.73097e-06
8.98329e-05
1.6905e-06
8.9958e-05
1.65863e-06
9.00764e-05
1.63309e-06
9.01883e-05
1.61125e-06
9.0293e-05
1.59007e-06
9.0389e-05
1.56584e-06
9.04736e-05
1.53425e-06
9.05411e-05
1.49031e-06
9.05825e-05
1.42902e-06
9.0582e-05
1.347e-06
9.05156e-05
1.24369e-06
1.1358e-06
9.03557e-05
8.22334e-05
3.25793e-06
8.3891e-05
6.97835e-06
8.51742e-05
7.57157e-06
8.61016e-05
7.09923e-06
8.67353e-05
6.33618e-06
8.71655e-05
5.51309e-06
8.74801e-05
4.7889e-06
8.77284e-05
4.1952e-06
8.79372e-05
3.71031e-06
8.81221e-05
3.31319e-06
8.82915e-05
2.98616e-06
8.84496e-05
2.7145e-06
8.85992e-05
2.48738e-06
8.87421e-05
2.29697e-06
8.88793e-05
2.13724e-06
8.90119e-05
2.00349e-06
8.91405e-05
1.89195e-06
8.92657e-05
1.79956e-06
8.9388e-05
1.72371e-06
8.9508e-05
1.66214e-06
8.96261e-05
1.61279e-06
8.9743e-05
1.57367e-06
8.98588e-05
1.54281e-06
8.99738e-05
1.51812e-06
9.00876e-05
1.49736e-06
9.01997e-05
1.47804e-06
9.03081e-05
1.45744e-06
9.04096e-05
1.43271e-06
9.04987e-05
1.40119e-06
9.05667e-05
1.36102e-06
9.06007e-05
1.31302e-06
9.0583e-05
1.26146e-06
1.22254e-06
9.04962e-05
8.42158e-05
2.45765e-06
8.55472e-05
5.64701e-06
8.66649e-05
6.45386e-06
8.75162e-05
6.24789e-06
8.81342e-05
5.71825e-06
8.85715e-05
5.07577e-06
8.88934e-05
4.46696e-06
8.91436e-05
3.94506e-06
8.93475e-05
3.50634e-06
8.95214e-05
3.13935e-06
8.96747e-05
2.83284e-06
8.98131e-05
2.57607e-06
8.99402e-05
2.3603e-06
9.00583e-05
2.17886e-06
9.01691e-05
2.02647e-06
9.02737e-05
1.89886e-06
9.03731e-05
1.79254e-06
9.04681e-05
1.70462e-06
9.05591e-05
1.63264e-06
9.06469e-05
1.57441e-06
9.07317e-05
1.52798e-06
9.08139e-05
1.49148e-06
9.08936e-05
1.46311e-06
9.09706e-05
1.44104e-06
9.10446e-05
1.42343e-06
9.11142e-05
1.40838e-06
9.11776e-05
1.39408e-06
9.12313e-05
1.37896e-06
9.12704e-05
1.36217e-06
9.12872e-05
1.34412e-06
9.12722e-05
1.32811e-06
9.12128e-05
1.32085e-06
1.33685e-06
9.10985e-05
8.63712e-05
1.88514e-06
8.74379e-05
4.58033e-06
8.8405e-05
5.48675e-06
8.91764e-05
5.4765e-06
8.97651e-05
5.12952e-06
9.02018e-05
4.63914e-06
9.05334e-05
4.13537e-06
9.07963e-05
3.68212e-06
9.10131e-05
3.28955e-06
9.11983e-05
2.95416e-06
9.13611e-05
2.67e-06
9.15073e-05
2.42985e-06
9.16407e-05
2.22698e-06
9.17636e-05
2.05589e-06
9.18781e-05
1.91204e-06
9.19853e-05
1.79164e-06
9.20863e-05
1.69153e-06
9.21819e-05
1.60903e-06
9.22727e-05
1.54185e-06
9.23591e-05
1.48796e-06
9.24416e-05
1.44552e-06
9.25202e-05
1.41285e-06
9.2595e-05
1.38835e-06
9.26655e-05
1.3705e-06
9.27311e-05
1.35787e-06
9.27903e-05
1.34916e-06
9.2841e-05
1.34337e-06
9.288e-05
1.34e-06
9.29026e-05
1.33951e-06
9.29029e-05
1.34382e-06
9.28736e-05
1.35744e-06
9.28066e-05
1.38788e-06
1.44752e-06
9.26959e-05
8.86667e-05
1.4684e-06
8.95214e-05
3.72565e-06
9.03551e-05
4.65309e-06
9.1051e-05
4.7806e-06
9.16061e-05
4.57439e-06
9.20356e-05
4.20965e-06
9.23713e-05
3.79967e-06
9.26423e-05
3.41111e-06
9.28681e-05
3.06375e-06
9.30619e-05
2.76034e-06
9.32327e-05
2.49926e-06
9.33861e-05
2.27638e-06
9.35262e-05
2.08693e-06
9.36555e-05
1.92661e-06
9.37759e-05
1.79163e-06
9.38888e-05
1.67873e-06
9.39952e-05
1.58509e-06
9.4096e-05
1.50826e-06
9.41917e-05
1.44614e-06
9.42828e-05
1.39686e-06
9.43696e-05
1.35874e-06
9.44522e-05
1.33027e-06
9.45304e-05
1.31009e-06
9.4604e-05
1.29697e-06
9.46719e-05
1.28989e-06
9.4733e-05
1.28807e-06
9.47852e-05
1.29117e-06
9.48257e-05
1.29949e-06
9.48509e-05
1.31435e-06
9.48562e-05
1.33847e-06
9.48369e-05
1.37673e-06
9.47885e-05
1.43636e-06
1.52741e-06
9.47086e-05
9.10805e-05
1.15919e-06
9.17672e-05
3.03892e-06
9.24848e-05
3.9355e-06
9.31119e-05
4.15355e-06
9.36325e-05
4.05374e-06
9.4051e-05
3.79118e-06
9.43873e-05
3.46335e-06
9.46639e-05
3.13454e-06
9.48972e-05
2.8304e-06
9.5099e-05
2.55856e-06
9.52775e-05
2.3208e-06
9.54382e-05
2.11565e-06
9.5585e-05
1.94012e-06
9.57206e-05
1.79103e-06
9.58469e-05
1.66534e-06
9.59653e-05
1.56031e-06
9.6077e-05
1.47345e-06
9.61826e-05
1.40258e-06
9.6283e-05
1.34579e-06
9.63785e-05
1.30137e-06
9.64694e-05
1.26783e-06
9.65558e-05
1.24384e-06
9.66376e-05
1.22826e-06
9.67145e-05
1.22014e-06
9.67856e-05
1.2188e-06
9.68497e-05
1.22388e-06
9.69054e-05
1.23552e-06
9.69503e-05
1.25454e-06
9.6982e-05
1.28272e-06
9.69974e-05
1.32304e-06
9.6994e-05
1.38013e-06
9.697e-05
1.46033e-06
1.57134e-06
9.69261e-05
9.35989e-05
9.24968e-07
9.41534e-05
2.48435e-06
9.47704e-05
3.31851e-06
9.53343e-05
3.58968e-06
9.58203e-05
3.56773e-06
9.62253e-05
3.38623e-06
9.65602e-05
3.12843e-06
9.68413e-05
2.85349e-06
9.70818e-05
2.58989e-06
9.72917e-05
2.34868e-06
9.74783e-05
2.1342e-06
9.76468e-05
1.94708e-06
9.78011e-05
1.78587e-06
9.79437e-05
1.64842e-06
9.80766e-05
1.53242e-06
9.82013e-05
1.43559e-06
9.83189e-05
1.35583e-06
9.84303e-05
1.29121e-06
9.85361e-05
1.24002e-06
9.86367e-05
1.20073e-06
9.87325e-05
1.17201e-06
9.88237e-05
1.15272e-06
9.891e-05
1.14192e-06
9.89913e-05
1.1389e-06
9.90668e-05
1.14324e-06
9.91358e-05
1.15491e-06
9.9197e-05
1.17434e-06
9.92489e-05
1.20262e-06
9.929e-05
1.24166e-06
9.93187e-05
1.29433e-06
9.93341e-05
1.36465e-06
9.93367e-05
1.4578e-06
1.57933e-06
9.93287e-05
9.62133e-05
7.4375e-07
9.66643e-05
2.03335e-06
9.71951e-05
2.78774e-06
9.77017e-05
3.08304e-06
9.81541e-05
3.11532e-06
9.85439e-05
2.99646e-06
9.88753e-05
2.79703e-06
9.91591e-05
2.56966e-06
9.94056e-05
2.34334e-06
9.96231e-05
2.13123e-06
9.98178e-05
1.93948e-06
9.99946e-05
1.77032e-06
0.000100157
1.62359e-06
0.000100307
1.49804e-06
0.000100448
1.39202e-06
0.000100579
1.30372e-06
0.000100704
1.23135e-06
0.000100822
1.17325e-06
0.000100934
1.12791e-06
0.000101041
1.09396e-06
0.000101143
1.07025e-06
0.00010124
1.05579e-06
0.000101332
1.04981e-06
0.000101419
1.05181e-06
0.0001015
1.06155e-06
0.000101576
1.07918e-06
0.000101645
1.1053e-06
0.000101707
1.14107e-06
0.00010176
1.18828e-06
0.000101805
1.24944e-06
0.000101842
1.32781e-06
0.000101872
1.42732e-06
1.5517e-06
0.0001019
9.89189e-05
6.00575e-07
9.9289e-05
1.66329e-06
9.97466e-05
2.33016e-06
0.000100202
2.62781e-06
0.000100622
2.695e-06
0.000100996
2.62292e-06
0.000101322
2.47084e-06
0.000101607
2.28448e-06
0.000101859
2.0917e-06
0.000102083
1.90668e-06
0.000102286
1.73673e-06
0.000102471
1.58519e-06
0.000102642
1.45293e-06
0.0001028
1.33945e-06
0.000102949
1.24363e-06
0.000103088
1.1641e-06
0.00010322
1.09938e-06
0.000103346
1.04804e-06
0.000103465
1.00874e-06
0.000103578
9.8031e-07
0.000103687
9.6171e-07
0.000103791
9.52106e-07
0.00010389
9.5087e-07
0.000103984
9.57618e-07
0.000104073
9.7225e-07
0.000104157
9.94999e-07
0.000104236
1.02649e-06
0.000104309
1.06779e-06
0.000104377
1.12044e-06
0.00010444
1.18648e-06
0.0001045
1.26831e-06
0.000104558
1.36873e-06
1.48997e-06
0.00010462
0.000101713
4.85134e-07
0.00010202
1.3564e-06
0.000102416
1.93406e-06
0.000102826
2.21818e-06
0.000103216
2.30459e-06
0.000103573
2.26576e-06
0.000103893
2.15093e-06
0.000104179
1.99907e-06
0.000104435
1.83587e-06
0.000104666
1.67564e-06
0.000104876
1.52624e-06
0.000105069
1.39176e-06
0.000105249
1.27375e-06
0.000105416
1.17233e-06
0.000105573
1.08685e-06
0.00010572
1.01627e-06
0.00010586
9.59383e-07
0.000105993
9.14979e-07
0.00010612
8.81894e-07
0.000106242
8.5908e-07
0.000106358
8.45636e-07
0.000106469
8.40835e-07
0.000106576
8.44148e-07
0.000106678
8.55272e-07
0.000106776
8.74162e-07
0.00010687
9.01055e-07
0.00010696
9.36507e-07
0.000107046
9.81401e-07
0.00010713
1.03694e-06
0.000107212
1.10462e-06
0.000107294
1.18609e-06
0.00010738
1.2831e-06
1.39676e-06
0.000107473
0.000104595
3.90213e-07
0.000104853
1.09879e-06
0.000105198
1.58915e-06
0.000105568
1.8485e-06
0.000105931
1.94155e-06
0.000106272
1.92457e-06
0.000106585
1.8379e-06
0.00010687
1.71425e-06
0.000107129
1.57657e-06
0.000107366
1.43858e-06
0.000107584
1.30825e-06
0.000107786
1.19001e-06
0.000107974
1.08589e-06
0.000108149
9.96419e-07
0.000108315
9.21303e-07
0.000108472
8.59787e-07
0.00010862
8.10895e-07
0.000108761
7.73581e-07
0.000108896
7.46827e-07
0.000109026
7.29705e-07
0.00010915
7.2141e-07
0.00010927
7.21295e-07
0.000109385
7.28894e-07
0.000109496
7.43941e-07
0.000109604
7.66386e-07
0.000109709
7.96414e-07
0.000109811
8.34444e-07
0.000109911
8.81123e-07
0.000110011
9.3729e-07
0.000110111
1.00391e-06
0.000110215
1.08197e-06
0.000110326
1.17236e-06
1.27536e-06
0.000110448
0.000107566
3.10666e-07
0.000107785
8.79631e-07
0.000108087
1.28642e-06
0.000108423
1.51333e-06
0.000108761
1.60305e-06
0.000109087
1.59834e-06
0.000109393
1.53179e-06
0.000109677
1.43044e-06
0.00010994
1.31423e-06
0.000110182
1.19584e-06
0.000110408
1.08292e-06
0.000110618
9.7997e-07
0.000110814
8.89224e-07
0.000110999
8.11485e-07
0.000111174
7.46693e-07
0.000111339
6.94301e-07
0.000111497
6.535e-07
0.000111647
6.23385e-07
0.000111791
6.03049e-07
0.000111929
5.91651e-07
0.000112062
5.88459e-07
0.00011219
5.92877e-07
0.000112315
6.04465e-07
0.000112436
6.22955e-07
0.000112554
6.48256e-07
0.00011267
6.80454e-07
0.000112784
7.19802e-07
0.000112899
7.6669e-07
0.000113014
8.21602e-07
0.000113133
8.85044e-07
0.000113258
9.5743e-07
0.000113391
1.03901e-06
1.1295e-06
0.000113537
0.000110625
2.42746e-07
0.000110814
6.90399e-07
0.000111082
1.01809e-06
0.000111388
1.20745e-06
0.000111705
1.28601e-06
0.000112018
1.28562e-06
0.000112318
1.23216e-06
0.0001126
1.14766e-06
0.000112866
1.04904e-06
0.000113114
9.47561e-07
0.000113346
8.50322e-07
0.000113565
7.61582e-07
0.00011377
6.83604e-07
0.000113965
6.17295e-07
0.000114149
5.62725e-07
0.000114323
5.19471e-07
0.00011449
4.86839e-07
0.00011465
4.64013e-07
0.000114802
4.50166e-07
0.00011495
4.44516e-07
0.000115092
4.46374e-07
0.000115229
4.55166e-07
0.000115363
4.70452e-07
0.000115494
4.91932e-07
0.000115623
5.19448e-07
0.000115751
5.52964e-07
0.000115878
5.92557e-07
0.000116006
6.38374e-07
0.000116137
6.9058e-07
0.000116273
7.49296e-07
0.000116416
8.14501e-07
0.000116569
8.85958e-07
9.63026e-07
0.000116735
0.000113775
1.83653e-07
0.000113941
5.24364e-07
0.000114181
7.77425e-07
0.000114463
9.25944e-07
0.000114762
9.87244e-07
0.000115063
9.84564e-07
0.000115357
9.38111e-07
0.000115639
8.65528e-07
0.000115907
7.80804e-07
0.000116161
6.93639e-07
0.000116401
6.10308e-07
0.000116628
5.34657e-07
0.000116843
4.68779e-07
0.000117046
4.1355e-07
0.00011724
3.6906e-07
0.000117425
3.34933e-07
0.000117601
3.10524e-07
0.00011777
2.95068e-07
0.000117932
2.87778e-07
0.000118089
2.879e-07
0.000118241
2.94763e-07
0.000118388
3.07792e-07
0.000118532
3.26522e-07
0.000118673
3.50608e-07
0.000118813
3.79806e-07
0.000118952
4.13957e-07
0.000119091
4.52967e-07
0.000119233
4.96769e-07
0.000119378
5.45264e-07
0.000119529
5.98276e-07
0.000119688
6.55472e-07
0.000119858
7.16288e-07
7.79914e-07
0.000120041
0.000117017
1.3124e-07
0.000117165
3.76128e-07
0.000117384
5.58599e-07
0.000117646
6.64173e-07
0.000117929
7.03433e-07
0.000118221
6.93006e-07
0.000118511
6.48338e-07
0.000118793
5.83267e-07
0.000119065
5.0905e-07
0.000119325
4.33724e-07
0.000119572
3.62589e-07
0.000119808
2.98912e-07
0.000120032
2.44464e-07
0.000120246
1.99958e-07
0.00012045
1.65404e-07
0.000120644
1.40396e-07
0.00012083
1.2428e-07
0.000121009
1.16294e-07
0.000121181
1.15652e-07
0.000121348
1.21605e-07
0.000121509
1.33471e-07
0.000121666
1.5066e-07
0.00012182
1.72659e-07
0.000121971
1.99072e-07
0.000122122
2.29564e-07
0.000122272
2.63862e-07
0.000122423
3.01725e-07
0.000122577
3.42913e-07
0.000122735
3.87125e-07
0.000122899
4.33966e-07
0.000123072
4.82899e-07
0.000123255
5.33157e-07
5.83872e-07
0.000123451
0.000120353
8.38106e-08
0.000120488
2.41279e-07
0.00012069
3.56506e-07
0.000120937
4.17723e-07
0.000121209
4.31163e-07
0.000121494
4.08457e-07
0.000121781
3.61106e-07
0.000122064
2.99667e-07
0.000122341
2.32881e-07
0.000122607
1.67105e-07
0.000122863
1.06551e-07
0.000123108
5.37809e-08
0.000123343
1.01178e-08
0.000123567
-2.39966e-08
0.000123781
-4.8739e-08
0.000123986
-6.46091e-08
0.000124183
-7.23319e-08
0.000124372
-7.27126e-08
0.000124554
-6.65669e-08
0.00012473
-5.46722e-08
0.000124901
-3.77362e-08
0.000125068
-1.63737e-08
0.000125232
8.81117e-09
0.000125394
3.74114e-08
0.000125554
6.89951e-08
0.000125715
1.03191e-07
0.000125877
1.39635e-07
0.000126042
1.77955e-07
0.000126211
2.17714e-07
0.000126387
2.58385e-07
0.000126571
2.99319e-07
0.000126764
3.39671e-07
3.78618e-07
0.000126969
0.000123787
3.99802e-08
0.000123912
1.16113e-07
0.000124102
1.66602e-07
0.000124337
1.82371e-07
0.000124602
1.66922e-07
0.000124882
1.28153e-07
0.000125169
7.43275e-08
0.000125455
1.31646e-08
0.000125737
-4.88905e-08
0.000126011
-1.07145e-07
0.000126276
-1.58542e-07
0.000126531
-2.01331e-07
0.000126776
-2.34746e-07
0.000127011
-2.58728e-07
0.000127236
-2.73696e-07
0.000127452
-2.80338e-07
0.000127659
-2.79495e-07
0.000127858
-2.72061e-07
0.000128051
-2.58915e-07
0.000128237
-2.40883e-07
0.000128418
-2.1872e-07
0.000128595
-1.93099e-07
0.000128768
-1.64627e-07
0.000128939
-1.33822e-07
0.000129109
-1.01168e-07
0.00012928
-6.71144e-08
0.000129451
-3.21185e-08
0.000129626
3.40735e-09
0.000129805
3.89188e-08
0.000129989
7.38011e-08
0.000130181
1.07378e-07
0.000130382
1.38783e-07
1.67288e-07
0.000130594
0.00012732
-1.42983e-09
0.000127439
-2.57922e-09
0.000127621
-1.52816e-08
0.000127849
-4.60277e-08
0.000128109
-9.29892e-08
0.000128388
-1.51041e-07
0.000128677
-2.14585e-07
0.000128968
-2.78362e-07
0.000129258
-3.38031e-07
0.000129541
-3.90524e-07
0.000129816
-4.33992e-07
0.000130083
-4.67572e-07
0.000130339
-4.91148e-07
0.000130585
-5.05127e-07
0.000130822
-5.10258e-07
0.000131049
-5.07476e-07
0.000131267
-4.97795e-07
0.000131478
-4.82233e-07
0.00013168
-4.61762e-07
0.000131877
-4.37283e-07
0.000132068
-4.09609e-07
0.000132254
-3.79467e-07
0.000132437
-3.47504e-07
0.000132617
-3.14297e-07
0.000132797
-2.80373e-07
0.000132976
-2.46233e-07
0.000133156
-2.12372e-07
0.000133339
-1.79295e-07
0.000133525
-1.47548e-07
0.000133717
-1.17736e-07
0.000133915
-9.05189e-08
0.00013412
-6.67017e-08
-4.68562e-08
0.000134334
0.000130955
-4.15266e-08
0.00013107
-1.17728e-07
0.000131248
-1.93045e-07
0.000131473
-2.71575e-07
0.000131733
-3.5241e-07
0.000132014
-4.32507e-07
0.000132308
-5.08483e-07
0.000132607
-5.77254e-07
0.000132906
-6.36435e-07
0.0001332
-6.84551e-07
0.000133487
-7.21e-07
0.000133765
-7.45882e-07
0.000134034
-7.59807e-07
0.000134292
-7.63731e-07
0.000134541
-7.58805e-07
0.000134779
-7.46262e-07
0.000135009
-7.27336e-07
0.00013523
-7.03206e-07
0.000135443
-6.74966e-07
0.000135649
-6.43604e-07
0.00013585
-6.1e-07
0.000136045
-5.74936e-07
0.000136237
-5.39103e-07
0.000136426
-5.03115e-07
0.000136613
-4.67535e-07
0.0001368
-4.32889e-07
0.000136987
-3.99686e-07
0.000137176
-3.68436e-07
0.000137368
-3.39676e-07
0.000137564
-3.13983e-07
0.000137766
-2.91956e-07
0.000137973
-2.74323e-07
-2.61516e-07
0.000138188
0.000134695
-8.12629e-08
0.000134809
-2.32118e-07
0.000134987
-3.70652e-07
0.000135214
-4.98644e-07
0.000135477
-6.15686e-07
0.000135765
-7.20335e-07
0.000136068
-8.11099e-07
0.000136377
-8.86859e-07
0.000136688
-9.47072e-07
0.000136995
-9.91844e-07
0.000137296
-1.02186e-06
0.000137588
-1.03826e-06
0.000137871
-1.04245e-06
0.000138143
-1.036e-06
0.000138405
-1.02055e-06
0.000138657
-9.97683e-07
0.000138898
-9.68892e-07
0.00013913
-9.35552e-07
0.000139354
-8.98899e-07
0.000139571
-8.60024e-07
0.000139781
-8.19884e-07
0.000139985
-7.7931e-07
0.000140185
-7.3903e-07
0.000140382
-6.99683e-07
0.000140576
-6.61841e-07
0.000140769
-6.26031e-07
0.000140962
-5.92754e-07
0.000141156
-5.62494e-07
0.000141352
-5.3574e-07
0.000141551
-5.12994e-07
0.000141754
-4.94754e-07
0.000141961
-4.81609e-07
-4.73808e-07
0.000142174
0.000138543
-1.21644e-07
0.000138659
-3.48567e-07
0.00013884
-5.52089e-07
0.000139074
-7.31709e-07
0.000139345
-8.87268e-07
0.000139643
-1.01865e-06
0.000139958
-1.12606e-06
0.000140282
-1.21025e-06
0.000140607
-1.27248e-06
0.00014093
-1.31447e-06
0.000141246
-1.33823e-06
0.000141554
-1.34599e-06
0.000141852
-1.34005e-06
0.000142138
-1.32268e-06
0.000142414
-1.29602e-06
0.000142678
-1.26206e-06
0.000142932
-1.2226e-06
0.000143175
-1.17923e-06
0.00014341
-1.13336e-06
0.000143636
-1.08619e-06
0.000143855
-1.03874e-06
0.000144068
-9.91908e-07
0.000144275
-9.46438e-07
0.000144478
-9.02981e-07
0.000144679
-8.62105e-07
0.000144877
-8.24315e-07
0.000145074
-7.90073e-07
0.000145271
-7.59812e-07
0.00014547
-7.33952e-07
0.00014567
-7.12905e-07
0.000145872
-6.97064e-07
0.000146077
-6.86904e-07
-6.82526e-07
0.000146286
0.000142501
-1.63785e-07
0.000142623
-4.70222e-07
0.000142813
-7.42e-07
0.000143058
-9.76289e-07
0.000143343
-1.17306e-06
0.000143658
-1.33339e-06
0.000143991
-1.4591e-06
0.000144334
-1.55277e-06
0.000144679
-1.6175e-06
0.000145021
-1.65668e-06
0.000145356
-1.67378e-06
0.000145683
-1.6722e-06
0.000145998
-1.65521e-06
0.000146301
-1.62583e-06
0.000146592
-1.58681e-06
0.00014687
-1.54059e-06
0.000147137
-1.4893e-06
0.000147393
-1.43478e-06
0.000147638
-1.37859e-06
0.000147874
-1.32207e-06
0.000148101
-1.26631e-06
0.000148322
-1.21224e-06
0.000148536
-1.16062e-06
0.000148745
-1.1121e-06
0.00014895
-1.06722e-06
0.000149152
-1.02644e-06
0.000149352
-9.90162e-07
0.000149551
-9.58744e-07
0.00014975
-9.32511e-07
0.000149949
-9.11762e-07
0.000150148
-8.96752e-07
0.000150349
-8.87789e-07
-8.84797e-07
0.000150551
0.000146574
-2.0886e-07
0.000146705
-6.004e-07
0.000146908
-9.45088e-07
0.000147169
-1.23764e-06
0.000147474
-1.47828e-06
0.00014781
-1.66938e-06
0.000148166
-1.81447e-06
0.000148531
-1.91808e-06
0.000148899
-1.98527e-06
0.000149263
-2.02118e-06
0.00014962
-2.03079e-06
0.000149967
-2.0188e-06
0.000150301
-1.98951e-06
0.000150622
-1.94678e-06
0.000150929
-1.89399e-06
0.000151223
-1.83407e-06
0.000151503
-1.76954e-06
0.000151771
-1.70248e-06
0.000152027
-1.63466e-06
0.000152272
-1.56751e-06
0.000152508
-1.50222e-06
0.000152736
-1.43974e-06
0.000152956
-1.38085e-06
0.00015317
-1.32615e-06
0.000153379
-1.27614e-06
0.000153584
-1.23123e-06
0.000153785
-1.19175e-06
0.000153984
-1.15796e-06
0.000154182
-1.13008e-06
0.000154378
-1.1083e-06
0.000154574
-1.09275e-06
0.00015477
-1.08362e-06
-1.08071e-06
0.000154966
0.000150765
-2.58601e-07
0.000150909
-7.43968e-07
0.000151133
-1.1687e-06
0.00015142
-1.52474e-06
0.000151754
-1.81276e-06
0.000152121
-2.03658e-06
0.000152509
-2.20167e-06
0.000152905
-2.3148e-06
0.000153303
-2.38327e-06
0.000153696
-2.41422e-06
0.00015408
-2.41435e-06
0.000154451
-2.38979e-06
0.000154807
-2.34599e-06
0.000155148
-2.28772e-06
0.000155473
-2.21904e-06
0.000155783
-2.14342e-06
0.000156077
-2.06375e-06
0.000156357
-1.98238e-06
0.000156623
-1.90127e-06
0.000156878
-1.82196e-06
0.000157121
-1.74568e-06
0.000157355
-1.67342e-06
0.00015758
-1.60591e-06
0.000157798
-1.54374e-06
0.000158009
-1.48734e-06
0.000158215
-1.43704e-06
0.000158416
-1.39307e-06
0.000158614
-1.35558e-06
0.000158808
-1.32468e-06
0.000159
-1.30041e-06
0.00015919
-1.28276e-06
0.000159378
-1.27175e-06
-1.267e-06
0.000159565
0.000155077
-3.14405e-07
0.000155239
-9.05039e-07
0.000155488
-1.41819e-06
0.000155806
-1.84311e-06
0.000156175
-2.18173e-06
0.000156579
-2.43997e-06
0.000157003
-2.62552e-06
0.000157435
-2.74768e-06
0.000157868
-2.81618e-06
0.000158294
-2.84035e-06
0.000158709
-2.82878e-06
0.000159108
-2.78917e-06
0.000159491
-2.72824e-06
0.000159855
-2.65177e-06
0.0001602
-2.56461e-06
0.000160528
-2.47079e-06
0.000160837
-2.3736e-06
0.000161131
-2.27571e-06
0.000161409
-2.17923e-06
0.000161673
-2.08584e-06
0.000161924
-1.9968e-06
0.000162163
-1.91309e-06
0.000162393
-1.83542e-06
0.000162613
-1.76431e-06
0.000162826
-1.70011e-06
0.000163032
-1.64305e-06
0.000163232
-1.59325e-06
0.000163428
-1.55076e-06
0.000163618
-1.51554e-06
0.000163806
-1.48754e-06
0.000163989
-1.46661e-06
0.00016417
-1.45267e-06
-1.44522e-06
0.000164349
0.000159517
-3.80545e-07
0.000159706
-1.09468e-06
0.000159998
-1.70969e-06
0.000160366
-2.21152e-06
0.000160789
-2.60439e-06
0.000161246
-2.89726e-06
0.000161722
-3.10112e-06
0.000162203
-3.22879e-06
0.00016268
-3.29318e-06
0.000163146
-3.30622e-06
0.000163596
-3.27864e-06
0.000164026
-3.21985e-06
0.000164436
-3.13794e-06
0.000164824
-3.0397e-06
0.00016519
-2.93076e-06
0.000165535
-2.81572e-06
0.00016586
-2.69828e-06
0.000166165
-2.58136e-06
0.000166453
-2.46725e-06
0.000166725
-2.35767e-06
0.000166982
-2.25394e-06
0.000167226
-2.15699e-06
0.000167458
-2.06749e-06
0.00016768
-1.98586e-06
0.000167892
-1.91235e-06
0.000168096
-1.84709e-06
0.000168293
-1.79006e-06
0.000168483
-1.74118e-06
0.000168668
-1.70029e-06
0.000168848
-1.66717e-06
0.000169023
-1.64153e-06
0.000169193
-1.6231e-06
-1.61123e-06
0.000169359
0.000164082
-4.56736e-07
0.000164302
-1.31483e-06
0.000164638
-2.04504e-06
0.000165058
-2.6321e-06
0.000165539
-3.08468e-06
0.000166056
-3.41506e-06
0.000166593
-3.63756e-06
0.000167133
-3.76898e-06
0.000167666
-3.82594e-06
0.000168183
-3.82348e-06
0.000168679
-3.77491e-06
0.000169151
-3.69174e-06
0.000169597
-3.58368e-06
0.000170016
-3.45872e-06
0.000170409
-3.3234e-06
0.000170776
-3.18293e-06
0.000171119
-3.04142e-06
0.00017144
-2.90205e-06
0.00017174
-2.76724e-06
0.000172021
-2.63878e-06
0.000172285
-2.51794e-06
0.000172533
-2.40559e-06
0.000172768
-2.30231e-06
0.000172991
-2.20839e-06
0.000173202
-2.12395e-06
0.000173404
-2.04898e-06
0.000173598
-1.98333e-06
0.000173783
-1.92677e-06
0.000173962
-1.87902e-06
0.000174134
-1.83974e-06
0.000174301
-1.80851e-06
0.000174463
-1.78498e-06
-1.7684e-06
0.000174621
0.000168795
-5.60402e-07
0.000169082
-1.6016e-06
0.000169506
-2.46866e-06
0.000170021
-3.14723e-06
0.000170593
-3.65703e-06
0.000171196
-4.01778e-06
0.000171809
-4.25011e-06
0.000172416
-4.37656e-06
0.000173008
-4.418e-06
0.000173577
-4.39268e-06
0.000174119
-4.31647e-06
0.00017463
-4.20291e-06
0.00017511
-4.06321e-06
0.000175557
-3.90654e-06
0.000175974
-3.74026e-06
0.000176362
-3.57018e-06
0.000176721
-3.40079e-06
0.000177054
-3.23551e-06
0.000177364
-3.07686e-06
0.000177652
-2.92664e-06
0.00017792
-2.7861e-06
0.00017817
-2.65601e-06
0.000178405
-2.5368e-06
0.000178625
-2.42864e-06
0.000178833
-2.33148e-06
0.000179029
-2.24513e-06
0.000179215
-2.16931e-06
0.000179392
-2.10362e-06
0.00017956
-2.04763e-06
0.000179721
-2.00085e-06
0.000179876
-1.96271e-06
0.000180023
-1.93269e-06
-1.90983e-06
0.000180165
0.000173623
-6.72461e-07
0.000173956
-1.93456e-06
0.000174452
-2.96397e-06
0.000175059
-3.75501e-06
0.000175739
-4.33694e-06
0.000176455
-4.73373e-06
0.000177179
-4.97359e-06
0.00017789
-5.08763e-06
0.000178575
-5.10316e-06
0.000179226
-5.0432e-06
0.000179836
-4.92737e-06
0.000180405
-4.77194e-06
0.000180932
-4.59007e-06
0.000181418
-4.39227e-06
0.000181865
-4.18677e-06
0.000182274
-3.97994e-06
0.00018265
-3.77656e-06
0.000182995
-3.58017e-06
0.000183311
-3.39328e-06
0.000183602
-3.2176e-06
0.00018387
-3.05419e-06
0.000184118
-2.90364e-06
0.000184347
-2.76616e-06
0.00018456
-2.64171e-06
0.000184759
-2.53001e-06
0.000184944
-2.43068e-06
0.000185118
-2.34324e-06
0.000185282
-2.26714e-06
0.000185436
-2.20181e-06
0.000185582
-2.14666e-06
0.00018572
-2.10103e-06
0.000185852
-2.06436e-06
-2.03555e-06
0.000185978
0.000178683
-8.87027e-07
0.000179194
-2.44553e-06
0.000179872
-3.64169e-06
0.000180637
-4.52021e-06
0.000181448
-5.14808e-06
0.000182273
-5.55853e-06
0.000183088
-5.78827e-06
0.000183876
-5.87591e-06
0.000184626
-5.85358e-06
0.000185331
-5.7483e-06
0.000185987
-5.58317e-06
0.000186592
-5.37711e-06
0.000187148
-5.1452e-06
0.000187655
-4.89932e-06
0.000188116
-4.6486e-06
0.000188536
-4.39991e-06
0.000188918
-4.15828e-06
0.000189265
-3.92727e-06
0.000189581
-3.70932e-06
0.00018987
-3.50591e-06
0.000190133
-3.31789e-06
0.000190375
-3.14555e-06
0.000190598
-2.98881e-06
0.000190803
-2.84734e-06
0.000190994
-2.7206e-06
0.000191171
-2.60794e-06
0.000191337
-2.50865e-06
0.000191492
-2.42201e-06
0.000191637
-2.3473e-06
0.000191774
-2.2838e-06
0.000191904
-2.23085e-06
0.000192027
-2.18779e-06
-2.15342e-06
0.000192145
0.000183747
-1.0662e-06
0.000184341
-3.04001e-06
0.000185179
-4.47988e-06
0.000186158
-5.49904e-06
0.000187196
-6.1857e-06
0.000188229
-6.59163e-06
0.000189223
-6.78295e-06
0.000190165
-6.81713e-06
0.000191046
-6.73512e-06
0.000191867
-6.56919e-06
0.000192629
-6.34537e-06
0.000193336
-6.08384e-06
0.000193991
-5.80015e-06
0.000194598
-5.50623e-06
0.00019516
-5.21111e-06
0.000195682
-4.92149e-06
0.000196166
-4.64223e-06
0.000196615
-4.37677e-06
0.000197033
-4.12735e-06
0.000197423
-3.89536e-06
0.000197786
-3.68144e-06
0.000198127
-3.48574e-06
0.000198446
-3.30797e-06
0.000198746
-3.1476e-06
0.000199029
-3.00388e-06
0.000199297
-2.87596e-06
0.000199552
-2.76298e-06
0.000199794
-2.66404e-06
0.000200025
-2.5784e-06
0.000200246
-2.50532e-06
0.00020046
-2.44446e-06
0.000200667
-2.39519e-06
-2.35745e-06
0.000200871
0.000189419
-1.67293e-06
0.00019041
-4.03183e-06
0.000191499
-5.56823e-06
0.000192666
-6.6667e-06
0.000193919
-7.43833e-06
0.000195235
-7.90718e-06
0.000196592
-8.14023e-06
0.000197967
-8.19225e-06
0.000199334
-8.10206e-06
0.000200669
-7.90461e-06
0.000201955
-7.63045e-06
0.000203175
-7.30466e-06
0.000204323
-6.9475e-06
0.000205391
-6.57504e-06
0.00020638
-6.1997e-06
0.000207289
-5.83085e-06
0.000208123