/*--------------------------------*- C++ -*----------------------------------*\
| =========                 |                                                 |
| \\      /  F ield         | OpenFOAM: The Open Source CFD Toolbox           |
|  \\    /   O peration     | Version:  2.1.1                                 |
|   \\  /    A nd           | Web:      www.OpenFOAM.org                      |
|    \\/     M anipulation  |                                                 |
\*---------------------------------------------------------------------------*/
FoamFile
{
    version     2.0;
    format      ascii;
    class       volVectorField;
    location    "0.075";
    object      U;
}
// * * * * * * * * * * * * * * * * * * * * * * * * * * * * * * * * * * * * * //

dimensions      [0 1 -1 0 0 0 0];

internalField   nonuniform List<vector> 
6820
(
(6.37587 0.5038 0)
(4.42362 0.286954 0)
(2.9717 0.0203247 0)
(2.23096 -0.0617451 0)
(1.96353 -0.059764 0)
(1.83443 -0.034307 0)
(1.75685 -0.0148964 0)
(1.70167 -0.00453345 0)
(1.65485 0.000161155 0)
(1.61331 0.00167172 0)
(1.57645 0.00166673 0)
(1.54374 0.00108246 0)
(1.51463 0.000353207 0)
(1.48855 -0.00033144 0)
(1.46492 -0.000899735 0)
(1.44324 -0.00133797 0)
(1.42311 -0.00165843 0)
(1.40416 -0.00188257 0)
(1.38614 -0.00203346 0)
(1.36881 -0.00213339 0)
(1.35201 -0.00220366 0)
(1.33564 -0.00226532 0)
(1.31965 -0.00234076 0)
(1.30405 -0.00245449 0)
(1.28893 -0.00263865 0)
(1.27452 -0.00292641 0)
(1.26108 -0.00339049 0)
(1.24939 -0.00405592 0)
(1.23953 -0.00521885 0)
(1.23509 -0.00666826 0)
(1.23212 -0.0105081 0)
(1.25306 -0.0139198 0)
(1.25832 -0.0505767 0)
(8.72021 0.959822 0)
(8.76415 1.01242 0)
(7.96655 0.67977 0)
(7.0504 0.394883 0)
(6.34597 0.203677 0)
(5.83549 0.104874 0)
(5.46878 0.0597183 0)
(5.20196 0.0395685 0)
(5.00001 0.0307475 0)
(4.84068 0.0266208 0)
(4.71051 0.0243433 0)
(4.60106 0.0228678 0)
(4.50687 0.0218034 0)
(4.42428 0.0209874 0)
(4.35069 0.0203436 0)
(4.28419 0.0198363 0)
(4.22333 0.0194482 0)
(4.16697 0.0191691 0)
(4.1142 0.0189897 0)
(4.06428 0.0188983 0)
(4.0166 0.0188783 0)
(3.97068 0.0189052 0)
(3.92611 0.0189429 0)
(3.88263 0.0189397 0)
(3.84003 0.0188167 0)
(3.79828 0.0184724 0)
(3.75747 0.0177107 0)
(3.71798 0.0163625 0)
(3.68028 0.0137357 0)
(3.64604 0.00971615 0)
(3.61561 0.00088925 0)
(3.59647 -0.0130975 0)
(3.58226 -0.0451366 0)
(8.58613 0.583719 0)
(9.33119 0.763156 0)
(9.61356 0.661667 0)
(9.50173 0.528769 0)
(9.23251 0.399889 0)
(8.91585 0.302664 0)
(8.60467 0.234471 0)
(8.32221 0.18574 0)
(8.07275 0.150519 0)
(7.85406 0.12465 0)
(7.66239 0.105232 0)
(7.49385 0.0904168 0)
(7.34486 0.0790111 0)
(7.21231 0.0701984 0)
(7.09356 0.063387 0)
(6.98637 0.0581387 0)
(6.88884 0.054128 0)
(6.79936 0.051112 0)
(6.71658 0.0489049 0)
(6.63933 0.0473601 0)
(6.56664 0.0463549 0)
(6.49768 0.0457782 0)
(6.43177 0.0455184 0)
(6.36833 0.0454524 0)
(6.30695 0.0454279 0)
(6.24732 0.045251 0)
(6.18931 0.0446285 0)
(6.13296 0.0431911 0)
(6.07849 0.0401538 0)
(6.0265 0.0347512 0)
(5.9774 0.0241612 0)
(5.93181 0.00614598 0)
(5.88736 -0.0272207 0)
(8.4409 0.379928 0)
(8.94581 0.584851 0)
(9.35817 0.556201 0)
(9.58565 0.489713 0)
(9.69911 0.41091 0)
(9.73371 0.34298 0)
(9.71581 0.291754 0)
(9.6676 0.252903 0)
(9.60186 0.222802 0)
(9.52583 0.198884 0)
(9.44419 0.179324 0)
(9.35999 0.163009 0)
(9.27528 0.149236 0)
(9.19154 0.137544 0)
(9.10963 0.127634 0)
(9.03006 0.119279 0)
(8.95306 0.112295 0)
(8.87866 0.106526 0)
(8.80682 0.101835 0)
(8.73737 0.0980986 0)
(8.67013 0.0951993 0)
(8.60485 0.093018 0)
(8.54133 0.0914245 0)
(8.47933 0.0902662 0)
(8.41868 0.0893504 0)
(8.35921 0.0884271 0)
(8.30084 0.0871374 0)
(8.24355 0.0850074 0)
(8.18732 0.0812289 0)
(8.13211 0.074839 0)
(8.07771 0.0638141 0)
(8.02222 0.0460093 0)
(7.9639 0.0193463 0)
(8.40213 0.280318 0)
(8.71882 0.481526 0)
(8.9985 0.463535 0)
(9.17381 0.407016 0)
(9.29823 0.346159 0)
(9.39165 0.295071 0)
(9.46068 0.257563 0)
(9.51337 0.229634 0)
(9.55442 0.20798 0)
(9.58608 0.190711 0)
(9.60999 0.176578 0)
(9.62746 0.164809 0)
(9.63939 0.154936 0)
(9.64637 0.146634 0)
(9.64903 0.139667 0)
(9.64798 0.133858 0)
(9.64374 0.129079 0)
(9.63674 0.125228 0)
(9.62734 0.122221 0)
(9.61586 0.119983 0)
(9.60252 0.118438 0)
(9.58753 0.117504 0)
(9.57104 0.117081 0)
(9.55316 0.117037 0)
(9.534 0.117197 0)
(9.5136 0.117319 0)
(9.492 0.117058 0)
(9.46915 0.115949 0)
(9.44493 0.113295 0)
(9.41886 0.10824 0)
(9.39021 0.0995143 0)
(9.35638 0.0858382 0)
(9.31545 0.0672771 0)
(8.37747 0.202449 0)
(8.60123 0.384474 0)
(8.8154 0.392354 0)
(8.94603 0.358937 0)
(9.03145 0.31569 0)
(9.09377 0.273444 0)
(9.14025 0.238991 0)
(9.1782 0.212019 0)
(9.21182 0.190748 0)
(9.24251 0.173859 0)
(9.27087 0.160271 0)
(9.29725 0.149185 0)
(9.32191 0.140091 0)
(9.34508 0.13264 0)
(9.36686 0.126557 0)
(9.38735 0.121646 0)
(9.40661 0.117764 0)
(9.42472 0.114802 0)
(9.44177 0.112674 0)
(9.45783 0.111303 0)
(9.47299 0.110615 0)
(9.48733 0.11053 0)
(9.5009 0.110953 0)
(9.51377 0.111762 0)
(9.52595 0.112798 0)
(9.53741 0.113844 0)
(9.54806 0.114609 0)
(9.55769 0.114707 0)
(9.56588 0.113633 0)
(9.57187 0.110797 0)
(9.57454 0.105606 0)
(9.57149 0.0975985 0)
(9.56078 0.0878925 0)
(8.36127 0.149093 0)
(8.52261 0.312328 0)
(8.6971 0.338801 0)
(8.81148 0.320276 0)
(8.88559 0.288221 0)
(8.93804 0.253362 0)
(8.97503 0.223195 0)
(9.00274 0.198929 0)
(9.02562 0.179413 0)
(9.0456 0.163622 0)
(9.06365 0.150734 0)
(9.08038 0.140104 0)
(9.09614 0.131283 0)
(9.11113 0.123963 0)
(9.1255 0.117926 0)
(9.13934 0.113008 0)
(9.15274 0.109083 0)
(9.16577 0.106046 0)
(9.17847 0.103809 0)
(9.19091 0.102293 0)
(9.20313 0.101422 0)
(9.21519 0.101115 0)
(9.22714 0.10128 0)
(9.23899 0.101807 0)
(9.25075 0.10256 0)
(9.26238 0.103363 0)
(9.27376 0.103999 0)
(9.28463 0.104204 0)
(9.29458 0.103679 0)
(9.30287 0.102138 0)
(9.3085 0.0994553 0)
(9.30969 0.0957693 0)
(9.30508 0.0923763 0)
(8.35115 0.11167 0)
(8.4673 0.252562 0)
(8.60784 0.288301 0)
(8.70921 0.28117 0)
(8.77855 0.260056 0)
(8.82956 0.233992 0)
(8.86659 0.209414 0)
(8.89416 0.188437 0)
(8.91624 0.170809 0)
(8.93482 0.156069 0)
(8.95099 0.143781 0)
(8.96545 0.133522 0)
(8.97864 0.124957 0)
(8.99084 0.11784 0)
(9.00224 0.111977 0)
(9.01298 0.107211 0)
(9.02315 0.103416 0)
(9.03284 0.100488 0)
(9.04212 0.098339 0)
(9.05104 0.0968913 0)
(9.05965 0.0960693 0)
(9.06799 0.095796 0)
(9.07607 0.0959867 0)
(9.08391 0.0965446 0)
(9.09146 0.0973559 0)
(9.09867 0.0982878 0)
(9.10536 0.0991898 0)
(9.1113 0.0999042 0)
(9.11607 0.100297 0)
(9.11904 0.100305 0)
(9.11942 0.100085 0)
(9.11594 0.100085 0)
(9.10776 0.101554 0)
(8.34486 0.0850027 0)
(8.42928 0.204715 0)
(8.54186 0.245579 0)
(8.63023 0.247387 0)
(8.69374 0.234504 0)
(8.74222 0.214959 0)
(8.77889 0.194609 0)
(8.80698 0.176301 0)
(8.82974 0.160479 0)
(8.849 0.147013 0)
(8.86573 0.135661 0)
(8.88063 0.126121 0)
(8.89413 0.118123 0)
(8.90653 0.111455 0)
(8.91802 0.105947 0)
(8.92876 0.101464 0)
(8.93885 0.0978951 0)
(8.94838 0.0951497 0)
(8.95742 0.0931491 0)
(8.96602 0.0918222 0)
(8.97422 0.0911011 0)
(8.98204 0.0909176 0)
(8.98949 0.0912003 0)
(8.99656 0.091872 0)
(9.00319 0.0928491 0)
(9.00928 0.0940445 0)
(9.01468 0.0953755 0)
(9.01911 0.0967811 0)
(9.02222 0.0982583 0)
(9.02349 0.0999112 0)
(9.02229 0.102064 0)
(9.01775 0.105331 0)
(9.00945 0.110862 0)
(8.34093 0.0657653 0)
(8.40298 0.166416 0)
(8.49296 0.208546 0)
(8.5693 0.216269 0)
(8.62694 0.209462 0)
(8.67246 0.195437 0)
(8.70816 0.179258 0)
(8.73622 0.163861 0)
(8.75922 0.150065 0)
(8.77878 0.137988 0)
(8.79583 0.127587 0)
(8.81103 0.118716 0)
(8.82481 0.111205 0)
(8.83748 0.104904 0)
(8.84923 0.0996881 0)
(8.86022 0.0954462 0)
(8.87056 0.0920844 0)
(8.88033 0.0895212 0)
(8.88959 0.0876849 0)
(8.8984 0.0865105 0)
(8.9068 0.0859372 0)
(8.91479 0.0859066 0)
(8.92239 0.0863611 0)
(8.92957 0.0872438 0)
(8.93627 0.0885011 0)
(8.9424 0.0900881 0)
(8.9478 0.0919807 0)
(8.95225 0.0941948 0)
(8.95544 0.0968218 0)
(8.95698 0.10007 0)
(8.95646 0.104347 0)
(8.95334 0.110307 0)
(8.94746 0.118949 0)
(8.33845 0.0516155 0)
(8.38464 0.135632 0)
(8.45661 0.176632 0)
(8.52222 0.188353 0)
(8.57428 0.186276 0)
(8.61672 0.176802 0)
(8.6511 0.164192 0)
(8.6788 0.1513 0)
(8.70183 0.139254 0)
(8.72158 0.128416 0)
(8.73889 0.118912 0)
(8.75435 0.110716 0)
(8.76839 0.103733 0)
(8.78131 0.097858 0)
(8.79329 0.0929912 0)
(8.8045 0.0890403 0)
(8.81504 0.0859233 0)
(8.825 0.0835685 0)
(8.83445 0.0819123 0)
(8.84343 0.0808978 0)
(8.85198 0.0804731 0)
(8.86012 0.0805909 0)
(8.86785 0.0812084 0)
(8.87514 0.082289 0)
(8.88195 0.0838065 0)
(8.88819 0.0857528 0)
(8.89373 0.0881503 0)
(8.8984 0.0910709 0)
(8.90198 0.094666 0)
(8.9042 0.0991978 0)
(8.90483 0.105093 0)
(8.90359 0.112974 0)
(8.90054 0.123667 0)
(8.33686 0.0409989 0)
(8.37173 0.110829 0)
(8.42945 0.149201 0)
(8.48559 0.163219 0)
(8.53235 0.164483 0)
(8.57169 0.158505 0)
(8.60456 0.148898 0)
(8.63176 0.138303 0)
(8.65473 0.127983 0)
(8.67464 0.118443 0)
(8.69221 0.10991 0)
(8.70796 0.102448 0)
(8.7223 0.0960282 0)
(8.7355 0.0905937 0)
(8.74776 0.0860776 0)
(8.75923 0.0824124 0)
(8.77003 0.0795339 0)
(8.78023 0.0773831 0)
(8.78991 0.0759067 0)
(8.79911 0.0750569 0)
(8.80788 0.0747913 0)
(8.81622 0.0750733 0)
(8.82414 0.0758738 0)
(8.83163 0.0771741 0)
(8.83864 0.0789706 0)
(8.84511 0.0812832 0)
(8.85095 0.0841669 0)
(8.85603 0.087728 0)
(8.86022 0.0921467 0)
(8.86337 0.0976986 0)
(8.86537 0.104786 0)
(8.86615 0.113955 0)
(8.8659 0.125854 0)
(8.33583 0.0328652 0)
(8.36255 0.0907143 0)
(8.40904 0.125602 0)
(8.45697 0.140625 0)
(8.49882 0.144195 0)
(8.53514 0.140929 0)
(8.56638 0.133844 0)
(8.59289 0.125276 0)
(8.61567 0.116512 0)
(8.63564 0.108157 0)
(8.65341 0.100521 0)
(8.66945 0.0937456 0)
(8.68409 0.0878658 0)
(8.69761 0.0828649 0)
(8.7102 0.0787048 0)
(8.72198 0.0753377 0)
(8.73309 0.0727131 0)
(8.74359 0.0707824 0)
(8.75356 0.0695006 0)
(8.76305 0.0688275 0)
(8.77209 0.0687292 0)
(8.78071 0.0691788 0)
(8.78892 0.0701592 0)
(8.7967 0.071666 0)
(8.80403 0.0737129 0)
(8.81087 0.076339 0)
(8.81717 0.0796192 0)
(8.82285 0.0836758 0)
(8.82786 0.0886947 0)
(8.83213 0.0949378 0)
(8.83567 0.102758 0)
(8.83854 0.112605 0)
(8.84102 0.124966 0)
(8.33513 0.0265011 0)
(8.35593 0.0742735 0)
(8.39363 0.105283 0)
(8.43455 0.120335 0)
(8.4719 0.125334 0)
(8.50532 0.124036 0)
(8.53485 0.118946 0)
(8.56054 0.112086 0)
(8.58302 0.104703 0)
(8.60298 0.097449 0)
(8.62092 0.0906868 0)
(8.63721 0.0846062 0)
(8.65216 0.0792843 0)
(8.66601 0.0747368 0)
(8.67892 0.0709497 0)
(8.69105 0.0678934 0)
(8.70248 0.0655314 0)
(8.71332 0.063826 0)
(8.72361 0.0627415 0)
(8.73343 0.0622463 0)
(8.74279 0.0623145 0)
(8.75174 0.0629283 0)
(8.76029 0.06408 0)
(8.76844 0.0657761 0)
(8.77618 0.0680419 0)
(8.7835 0.0709273 0)
(8.79038 0.0745151 0)
(8.7968 0.0789288 0)
(8.80275 0.0843425 0)
(8.80826 0.0909865 0)
(8.81339 0.0991506 0)
(8.81832 0.109185 0)
(8.82332 0.121433 0)
(8.33465 0.0214183 0)
(8.35111 0.0607036 0)
(8.38193 0.0877285 0)
(8.41693 0.102093 0)
(8.45024 0.107817 0)
(8.48094 0.107876 0)
(8.50876 0.104331 0)
(8.53355 0.0988951 0)
(8.55565 0.0927191 0)
(8.57552 0.0864604 0)
(8.59356 0.080505 0)
(8.61006 0.0750754 0)
(8.62529 0.0702821 0)
(8.63946 0.0661688 0)
(8.65271 0.0627426 0)
(8.66518 0.0599902 0)
(8.67697 0.0578873 0)
(8.68815 0.0564056 0)
(8.6988 0.055517 0)
(8.70896 0.0551964 0)
(8.71869 0.0554243 0)
(8.72801 0.0561891 0)
(8.73694 0.0574899 0)
(8.74551 0.0593396 0)
(8.75373 0.061769 0)
(8.76161 0.0648314 0)
(8.76915 0.068608 0)
(8.77637 0.0732126 0)
(8.78332 0.0787962 0)
(8.79008 0.085548 0)
(8.79676 0.0936918 0)
(8.80358 0.103483 0)
(8.81083 0.115147 0)
(8.33432 0.0172774 0)
(8.34755 0.0493758 0)
(8.373 0.0724871 0)
(8.40306 0.0856587 0)
(8.43278 0.0915442 0)
(8.46098 0.0924387 0)
(8.48716 0.0900165 0)
(8.51101 0.0857062 0)
(8.53264 0.0805378 0)
(8.55237 0.0751455 0)
(8.57046 0.06992 0)
(8.58715 0.0651001 0)
(8.60264 0.060817 0)
(8.61712 0.0571331 0)
(8.63071 0.0540706 0)
(8.64353 0.0516282 0)
(8.65567 0.0497912 0)
(8.66721 0.048539 0)
(8.67822 0.0478497 0)
(8.68876 0.0477039 0)
(8.69886 0.0480868 0)
(8.70857 0.0489915 0)
(8.71792 0.050421 0)
(8.72695 0.0523909 0)
(8.73568 0.0549329 0)
(8.74414 0.0580975 0)
(8.75237 0.0619571 0)
(8.76042 0.0666086 0)
(8.76837 0.0721736 0)
(8.77633 0.0787969 0)
(8.78444 0.0866386 0)
(8.79294 0.09587 0)
(8.80211 0.106621 0)
(8.33407 0.0138386 0)
(8.3449 0.0397985 0)
(8.36615 0.0591614 0)
(8.39214 0.0707956 0)
(8.41873 0.0763955 0)
(8.44466 0.0776894 0)
(8.46929 0.07602 0)
(8.4922 0.0725629 0)
(8.51335 0.0682148 0)
(8.53289 0.0635634 0)
(8.551 0.0589863 0)
(8.56784 0.0547235 0)
(8.58358 0.0509161 0)
(8.59835 0.0476382 0)
(8.61226 0.0449228 0)
(8.62543 0.0427775 0)
(8.63793 0.0411953 0)
(8.64984 0.0401614 0)
(8.66122 0.0396588 0)
(8.67213 0.0396717 0)
(8.68263 0.0401885 0)
(8.69275 0.0412044 0)
(8.70254 0.0427233 0)
(8.71204 0.0447602 0)
(8.7213 0.0473433 0)
(8.73036 0.0505156 0)
(8.73928 0.0543365 0)
(8.74814 0.0588816 0)
(8.75703 0.0642412 0)
(8.76609 0.0705165 0)
(8.77547 0.0778111 0)
(8.7854 0.0862253 0)
(8.79614 0.0958179 0)
(8.33389 0.0109288 0)
(8.3429 0.0315863 0)
(8.36089 0.0474064 0)
(8.38353 0.057278 0)
(8.40744 0.0622432 0)
(8.43136 0.0635743 0)
(8.45457 0.0623321 0)
(8.47659 0.059471 0)
(8.49725 0.055754 0)
(8.51658 0.0517089 0)
(8.53469 0.0476877 0)
(8.55166 0.0439217 0)
(8.56762 0.0405526 0)
(8.58266 0.0376599 0)
(8.5969 0.0352819 0)
(8.6104 0.0334317 0)
(8.62326 0.0321064 0)
(8.63553 0.0312948 0)
(8.64729 0.0309825 0)
(8.65858 0.0311555 0)
(8.66947 0.0318034 0)
(8.68 0.0329212 0)
(8.69023 0.0345113 0)
(8.70021 0.0365853 0)
(8.70999 0.0391648 0)
(8.71963 0.0422826 0)
(8.72921 0.0459817 0)
(8.73881 0.0503153 0)
(8.74855 0.0553428 0)
(8.75857 0.0611259 0)
(8.76902 0.0677202 0)
(8.78012 0.0751685 0)
(8.79209 0.0834775 0)
(8.33375 0.00842045 0)
(8.34139 0.0244358 0)
(8.35684 0.0369241 0)
(8.37677 0.0448915 0)
(8.39842 0.0489508 0)
(8.42058 0.0500188 0)
(8.44253 0.048921 0)
(8.46373 0.0464221 0)
(8.48392 0.0431574 0)
(8.50306 0.0395874 0)
(8.52115 0.0360286 0)
(8.53825 0.0326939 0)
(8.55442 0.0297177 0)
(8.56974 0.0271774 0)
(8.58429 0.0251121 0)
(8.59813 0.0235362 0)
(8.61134 0.0224483 0)
(8.62398 0.0218387 0)
(8.6361 0.0216936 0)
(8.64778 0.0219995 0)
(8.65906 0.022745 0)
(8.67 0.0239234 0)
(8.68066 0.0255337 0)
(8.6911 0.027582 0)
(8.70138 0.0300815 0)
(8.71157 0.0330529 0)
(8.72175 0.036523 0)
(8.73203 0.0405228 0)
(8.74251 0.0450842 0)
(8.75333 0.0502347 0)
(8.76464 0.0559914 0)
(8.77664 0.0623534 0)
(8.7895 0.0692923 0)
(8.33365 0.00621674 0)
(8.34024 0.0181051 0)
(8.35373 0.027457 0)
(8.37149 0.0334342 0)
(8.39127 0.0363774 0)
(8.41195 0.0369345 0)
(8.4328 0.0357378 0)
(8.45327 0.0333913 0)
(8.47305 0.0304134 0)
(8.49201 0.0271939 0)
(8.5101 0.024008 0)
(8.52732 0.0210441 0)
(8.5437 0.0184228 0)
(8.55929 0.0162146 0)
(8.57415 0.0144546 0)
(8.58832 0.013155 0)
(8.60187 0.0123132 0)
(8.61486 0.0119182 0)
(8.62735 0.0119547 0)
(8.63939 0.0124074 0)
(8.65105 0.0132622 0)
(8.66238 0.0145086 0)
(8.67344 0.0161401 0)
(8.68431 0.0181563 0)
(8.69504 0.0205609 0)
(8.70572 0.0233616 0)
(8.71643 0.0265688 0)
(8.72727 0.0301933 0)
(8.73835 0.0342427 0)
(8.7498 0.0387174 0)
(8.76176 0.0436048 0)
(8.77439 0.048872 0)
(8.78784 0.0544683 0)
(8.33357 0.00424228 0)
(8.33938 0.012398 0)
(8.35136 0.0187804 0)
(8.36742 0.0227147 0)
(8.38568 0.0243766 0)
(8.40514 0.0242164 0)
(8.42509 0.0227103 0)
(8.44496 0.0203267 0)
(8.4644 0.0174783 0)
(8.48323 0.0144844 0)
(8.50135 0.0115745 0)
(8.51872 0.00890674 0)
(8.53532 0.00658226 0)
(8.55119 0.00465895 0)
(8.56635 0.00316452 0)
(8.58086 0.00210545 0)
(8.59476 0.00147473 0)
(8.60811 0.0012579 0)
(8.62095 0.0014368 0)
(8.63335 0.00199247 0)
(8.64537 0.00290726 0)
(8.65707 0.00416612 0)
(8.66852 0.00575785 0)
(8.67977 0.00767284 0)
(8.69091 0.00990522 0)
(8.70202 0.012451 0)
(8.71317 0.0153062 0)
(8.72448 0.018466 0)
(8.73603 0.0219179 0)
(8.74794 0.0256406 0)
(8.76035 0.0296005 0)
(8.77337 0.0337438 0)
(8.78714 0.0380085 0)
(8.33351 0.00243759 0)
(8.33874 0.00715438 0)
(8.34959 0.0106977 0)
(8.36435 0.012552 0)
(8.38143 0.0128002 0)
(8.39993 0.0117517 0)
(8.41917 0.00975892 0)
(8.43857 0.00717795 0)
(8.45777 0.00432812 0)
(8.47654 0.00146102 0)
(8.49472 -0.00124086 0)
(8.51225 -0.00365307 0)
(8.52909 -0.00569802 0)
(8.54524 -0.00733448 0)
(8.56072 -0.00854679 0)
(8.57555 -0.00933759 0)
(8.58978 -0.00972106 0)
(8.60346 -0.00971772 0)
(8.61663 -0.00935117 0)
(8.62937 -0.00864563 0)
(8.64172 -0.00762427 0)
(8.65375 -0.00630812 0)
(8.66552 -0.00471534 0)
(8.67711 -0.00286352 0)
(8.68859 -0.000767982 0)
(8.70003 0.00155648 0)
(8.71152 0.00409325 0)
(8.72316 0.00682076 0)
(8.73503 0.0097131 0)
(8.74724 0.0127351 0)
(8.75989 0.0158388 0)
(8.77309 0.0189573 0)
(8.78694 0.0220245 0)
(8.33347 0.000747106 0)
(8.33827 0.00222953 0)
(8.34831 0.00302769 0)
(8.36212 0.00276798 0)
(8.37833 0.00148928 0)
(8.39613 -0.0005975 0)
(8.41487 -0.00323791 0)
(8.43398 -0.00617073 0)
(8.45306 -0.0091603 0)
(8.47185 -0.0120203 0)
(8.49018 -0.0146171 0)
(8.50793 -0.0168627 0)
(8.52505 -0.0187064 0)
(8.54152 -0.0201267 0)
(8.55732 -0.0211233 0)
(8.5725 -0.0217103 0)
(8.58707 -0.0219104 0)
(8.60109 -0.0217516 0)
(8.6146 -0.0212639 0)
(8.62766 -0.0204774 0)
(8.64032 -0.0194212 0)
(8.65266 -0.0181226 0)
(8.66473 -0.0166076 0)
(8.67661 -0.0148998 0)
(8.68836 -0.0130226 0)
(8.70007 -0.0110004 0)
(8.71182 -0.00885957 0)
(8.72368 -0.00663188 0)
(8.73574 -0.00435354 0)
(8.74809 -0.00206945 0)
(8.76082 0.000164917 0)
(8.774 0.00227705 0)
(8.78772 0.00420346 0)
(8.33345 -0.000866215 0)
(8.33797 -0.00249105 0)
(8.34745 -0.00439191 0)
(8.36062 -0.00680699 0)
(8.37626 -0.00971051 0)
(8.39362 -0.0129568 0)
(8.41207 -0.0163662 0)
(8.43105 -0.0197551 0)
(8.45014 -0.0229611 0)
(8.46905 -0.0258589 0)
(8.48758 -0.028364 0)
(8.5056 -0.0304277 0)
(8.52302 -0.0320305 0)
(8.53981 -0.0331752 0)
(8.55595 -0.0338809 0)
(8.57146 -0.0341768 0)
(8.58636 -0.0340983 0)
(8.60069 -0.0336838 0)
(8.61449 -0.0329722 0)
(8.62783 -0.0320013 0)
(8.64076 -0.0308074 0)
(8.65335 -0.0294248 0)
(8.66565 -0.0278861 0)
(8.67774 -0.0262226 0)
(8.68969 -0.0244651 0)
(8.70157 -0.0226459 0)
(8.71346 -0.0207989 0)
(8.72542 -0.0189612 0)
(8.73753 -0.017177 0)
(8.74988 -0.0154978 0)
(8.76251 -0.0139819 0)
(8.77552 -0.0127028 0)
(8.78894 -0.0117185 0)
(8.33343 -0.0024431 0)
(8.33779 -0.00712237 0)
(8.34696 -0.0117243 0)
(8.35979 -0.0163579 0)
(8.37515 -0.0209939 0)
(8.39235 -0.0255327 0)
(8.41075 -0.0298562 0)
(8.42981 -0.03385 0)
(8.44908 -0.0374189 0)
(8.46827 -0.0404964 0)
(8.48713 -0.0430466 0)
(8.50552 -0.04506 0)
(8.52333 -0.0465484 0)
(8.54051 -0.0475398 0)
(8.55704 -0.0480728 0)
(8.57291 -0.0481928 0)
(8.58816 -0.0479481 0)
(8.60282 -0.0473877 0)
(8.61693 -0.0465597 0)
(8.63054 -0.04551 0)
(8.64372 -0.044282 0)
(8.65652 -0.0429167 0)
(8.66902 -0.0414528 0)
(8.68127 -0.0399277 0)
(8.69335 -0.0383781 0)
(8.70532 -0.0368416 0)
(8.71726 -0.0353575 0)
(8.72922 -0.033968 0)
(8.74127 -0.0327198 0)
(8.75348 -0.0316647 0)
(8.7659 -0.0308599 0)
(8.77858 -0.0303747 0)
(8.79156 -0.0302589 0)
(8.33342 -0.00403 0)
(8.33773 -0.0117837 0)
(8.34682 -0.0191293 0)
(8.35959 -0.0260532 0)
(8.37495 -0.0325043 0)
(8.39223 -0.0384081 0)
(8.41082 -0.0436916 0)
(8.43014 -0.0482991 0)
(8.44974 -0.0521983 0)
(8.4693 -0.0553823 0)
(8.48858 -0.0578684 0)
(8.50738 -0.0596928 0)
(8.52562 -0.0609059 0)
(8.54321 -0.0615673 0)
(8.56012 -0.0617414 0)
(8.57636 -0.0614943 0)
(8.59194 -0.060891 0)
(8.6069 -0.0599941 0)
(8.62127 -0.0588626 0)
(8.63512 -0.0575513 0)
(8.64849 -0.0561113 0)
(8.66146 -0.05459 0)
(8.67408 -0.0530321 0)
(8.68642 -0.0514798 0)
(8.69855 -0.0499745 0)
(8.71052 -0.0485575 0)
(8.72241 -0.0472708 0)
(8.73427 -0.0461586 0)
(8.74615 -0.0452682 0)
(8.75812 -0.0446507 0)
(8.77021 -0.04436 0)
(8.78246 -0.0444607 0)
(8.79491 -0.044993 0)
(8.33343 -0.00566331 0)
(8.3378 -0.016591 0)
(8.34704 -0.0267952 0)
(8.36004 -0.0361462 0)
(8.37573 -0.0445731 0)
(8.39344 -0.0520261 0)
(8.41253 -0.0584764 0)
(8.43241 -0.0639226 0)
(8.45261 -0.0683893 0)
(8.47278 -0.0719229 0)
(8.49265 -0.0745872 0)
(8.51205 -0.0764593 0)
(8.53083 -0.0776241 0)
(8.54893 -0.0781705 0)
(8.56631 -0.0781877 0)
(8.58296 -0.0777622 0)
(8.5989 -0.0769763 0)
(8.61417 -0.0759067 0)
(8.62881 -0.0746244 0)
(8.64287 -0.0731942 0)
(8.65641 -0.0716752 0)
(8.66949 -0.0701217 0)
(8.68219 -0.0685838 0)
(8.69456 -0.0671084 0)
(8.70666 -0.0657401 0)
(8.71855 -0.0645226 0)
(8.73031 -0.063499 0)
(8.74196 -0.0627133 0)
(8.75358 -0.0622106 0)
(8.76519 -0.062038 0)
(8.77684 -0.0622433 0)
(8.78855 -0.0628822 0)
(8.80035 -0.0639847 0)
(8.33345 -0.00738904 0)
(8.33799 -0.0216668 0)
(8.34761 -0.0348759 0)
(8.36112 -0.0467493 0)
(8.37741 -0.0571781 0)
(8.39579 -0.0661236 0)
(8.4156 -0.0735975 0)
(8.43622 -0.0796615 0)
(8.45716 -0.0844125 0)
(8.47806 -0.087968 0)
(8.49863 -0.090456 0)
(8.51868 -0.0920093 0)
(8.53807 -0.0927592 0)
(8.55671 -0.0928321 0)
(8.57458 -0.0923473 0)
(8.59166 -0.0914147 0)
(8.60797 -0.0901351 0)
(8.62355 -0.0885993 0)
(8.63843 -0.0868894 0)
(8.65268 -0.0850784 0)
(8.66635 -0.0832321 0)
(8.67952 -0.0814098 0)
(8.69224 -0.0796651 0)
(8.70457 -0.0780475 0)
(8.71658 -0.0766033 0)
(8.72834 -0.0753765 0)
(8.73988 -0.0744097 0)
(8.75127 -0.073745 0)
(8.76254 -0.0734242 0)
(8.77374 -0.07349 0)
(8.78489 -0.0739838 0)
(8.79603 -0.0749542 0)
(8.80718 -0.0764207 0)
(8.33348 -0.00926426 0)
(8.33836 -0.0271969 0)
(8.34866 -0.0437166 0)
(8.36311 -0.0584396 0)
(8.3805 -0.0712461 0)
(8.40006 -0.0821182 0)
(8.42107 -0.0910979 0)
(8.44288 -0.0982882 0)
(8.46495 -0.103834 0)
(8.4869 -0.107903 0)
(8.50843 -0.110672 0)
(8.52933 -0.11232 0)
(8.54947 -0.113022 0)
(8.56876 -0.112944 0)
(8.58718 -0.112237 0)
(8.60472 -0.111041 0)
(8.6214 -0.109479 0)
(8.63727 -0.107663 0)
(8.65236 -0.105689 0)
(8.66676 -0.103642 0)
(8.68051 -0.101598 0)
(8.69369 -0.0996216 0)
(8.70635 -0.0977722 0)
(8.71858 -0.0961014 0)
(8.73042 -0.0946566 0)
(8.74194 -0.0934811 0)
(8.75318 -0.0926157 0)
(8.7642 -0.0920989 0)
(8.77504 -0.0919675 0)
(8.78572 -0.0922573 0)
(8.79628 -0.0930016 0)
(8.80673 -0.0942383 0)
(8.81709 -0.0959768 0)
(8.33352 -0.0113491 0)
(8.33884 -0.0332953 0)
(8.35006 -0.0533137 0)
(8.3657 -0.0708347 0)
(8.3844 -0.0857154 0)
(8.40533 -0.0979896 0)
(8.42774 -0.107791 0)
(8.45091 -0.115335 0)
(8.47429 -0.120877 0)
(8.49746 -0.12468 0)
(8.52012 -0.126998 0)
(8.54203 -0.128072 0)
(8.56307 -0.128124 0)
(8.58314 -0.127357 0)
(8.60222 -0.12595 0)
(8.62031 -0.124064 0)
(8.63743 -0.121838 0)
(8.65363 -0.119394 0)
(8.66898 -0.11684 0)
(8.68353 -0.114266 0)
(8.69735 -0.111752 0)
(8.71053 -0.109367 0)
(8.72313 -0.107172 0)
(8.73521 -0.105218 0)
(8.74684 -0.103553 0)
(8.75809 -0.102219 0)
(8.769 -0.101253 0)
(8.77961 -0.10069 0)
(8.78998 -0.100562 0)
(8.80013 -0.100899 0)
(8.8101 -0.101727 0)
(8.8199 -0.103076 0)
(8.82956 -0.104946 0)
(8.3336 -0.0137581 0)
(8.33972 -0.0404376 0)
(8.35253 -0.0647756 0)
(8.37023 -0.0860796 0)
(8.39117 -0.104196 0)
(8.41437 -0.119134 0)
(8.43894 -0.131011 0)
(8.4641 -0.140068 0)
(8.48925 -0.146619 0)
(8.51397 -0.150999 0)
(8.53796 -0.153539 0)
(8.56101 -0.154561 0)
(8.583 -0.154357 0)
(8.60385 -0.153191 0)
(8.62356 -0.151296 0)
(8.64214 -0.148873 0)
(8.65963 -0.146095 0)
(8.67609 -0.143109 0)
(8.69159 -0.14004 0)
(8.7062 -0.136991 0)
(8.72001 -0.13405 0)
(8.73309 -0.131292 0)
(8.74551 -0.128776 0)
(8.75735 -0.126558 0)
(8.76867 -0.124679 0)
(8.77954 -0.12318 0)
(8.79 -0.122094 0)
(8.80011 -0.121448 0)
(8.80991 -0.121268 0)
(8.81942 -0.121577 0)
(8.82869 -0.12239 0)
(8.83771 -0.123728 0)
(8.84651 -0.125581 0)
(8.33366 -0.0165526 0)
(8.34055 -0.0483906 0)
(8.35497 -0.0767433 0)
(8.37472 -0.100744 0)
(8.39789 -0.12045 0)
(8.42347 -0.136144 0)
(8.45047 -0.148186 0)
(8.47801 -0.157015 0)
(8.50539 -0.163081 0)
(8.53216 -0.166808 0)
(8.55798 -0.168589 0)
(8.58262 -0.168785 0)
(8.60596 -0.167717 0)
(8.62794 -0.165673 0)
(8.64856 -0.162902 0)
(8.66785 -0.159621 0)
(8.68589 -0.156014 0)
(8.70274 -0.15224 0)
(8.71849 -0.148431 0)
(8.73323 -0.144699 0)
(8.74707 -0.141136 0)
(8.76007 -0.137819 0)
(8.77234 -0.134811 0)
(8.78394 -0.132165 0)
(8.79495 -0.129925 0)
(8.80545 -0.128126 0)
(8.81548 -0.126797 0)
(8.82509 -0.125964 0)
(8.83434 -0.125646 0)
(8.84326 -0.125859 0)
(8.85188 -0.126612 0)
(8.86022 -0.127918 0)
(8.86834 -0.129757 0)
(8.33391 -0.0201184 0)
(8.34285 -0.0592488 0)
(8.36091 -0.0944857 0)
(8.38485 -0.124634 0)
(8.41208 -0.149505 0)
(8.44135 -0.169161 0)
(8.4716 -0.183935 0)
(8.50191 -0.194409 0)
(8.53166 -0.201231 0)
(8.56043 -0.205026 0)
(8.58792 -0.206373 0)
(8.61396 -0.205796 0)
(8.63845 -0.203744 0)
(8.66136 -0.200602 0)
(8.68271 -0.196691 0)
(8.70256 -0.192278 0)
(8.72099 -0.187581 0)
(8.73808 -0.18278 0)
(8.75395 -0.178019 0)
(8.76868 -0.173414 0)
(8.7824 -0.169057 0)
(8.79519 -0.165024 0)
(8.80715 -0.161374 0)
(8.81836 -0.158152 0)
(8.82891 -0.155395 0)
(8.83887 -0.153133 0)
(8.8483 -0.151388 0)
(8.85725 -0.150177 0)
(8.86577 -0.149512 0)
(8.87391 -0.149402 0)
(8.88169 -0.149847 0)
(8.88914 -0.150853 0)
(8.8963 -0.152388 0)
(8.33387 -0.0241877 0)
(8.34364 -0.0695231 0)
(8.36412 -0.10779 0)
(8.39147 -0.138745 0)
(8.42281 -0.16348 0)
(8.45666 -0.182677 0)
(8.49155 -0.196914 0)
(8.52623 -0.206854 0)
(8.5599 -0.213137 0)
(8.59207 -0.216345 0)
(8.62242 -0.217028 0)
(8.65079 -0.215692 0)
(8.67711 -0.212793 0)
(8.70142 -0.208729 0)
(8.72379 -0.203846 0)
(8.74433 -0.198437 0)
(8.76317 -0.192748 0)
(8.78044 -0.18698 0)
(8.79629 -0.181299 0)
(8.81085 -0.175834 0)
(8.82425 -0.170689 0)
(8.83661 -0.165946 0)
(8.84804 -0.161664 0)
(8.85865 -0.157892 0)
(8.86852 -0.154662 0)
(8.87773 -0.152001 0)
(8.88635 -0.149926 0)
(8.89444 -0.148447 0)
(8.90206 -0.147573 0)
(8.90925 -0.147305 0)
(8.91607 -0.147639 0)
(8.92254 -0.148572 0)
(8.92873 -0.150064 0)
(8.33498 -0.0310966 0)
(8.35139 -0.0918699 0)
(8.38061 -0.144533 0)
(8.41551 -0.186983 0)
(8.45264 -0.219596 0)
(8.49106 -0.243199 0)
(8.52962 -0.259124 0)
(8.56724 -0.268862 0)
(8.60328 -0.273704 0)
(8.63734 -0.274739 0)
(8.66916 -0.272884 0)
(8.69862 -0.268891 0)
(8.72571 -0.263366 0)
(8.75049 -0.256799 0)
(8.77309 -0.249577 0)
(8.79365 -0.242012 0)
(8.81233 -0.234349 0)
(8.82931 -0.226781 0)
(8.84476 -0.219459 0)
(8.85884 -0.212499 0)
(8.8717 -0.205989 0)
(8.88348 -0.199994 0)
(8.8943 -0.194562 0)
(8.90428 -0.189726 0)
(8.91351 -0.185507 0)
(8.92208 -0.181922 0)
(8.93007 -0.178978 0)
(8.93753 -0.176681 0)
(8.94453 -0.175031 0)
(8.95112 -0.174028 0)
(8.95734 -0.173666 0)
(8.96325 -0.17394 0)
(8.96888 -0.174801 0)
(8.33403 -0.0361048 0)
(8.34994 -0.0981219 0)
(8.38403 -0.146186 0)
(8.42707 -0.185021 0)
(8.47354 -0.21662 0)
(8.52104 -0.240747 0)
(8.56744 -0.25788 0)
(8.61152 -0.268937 0)
(8.65294 -0.274789 0)
(8.6916 -0.276324 0)
(8.72752 -0.274441 0)
(8.76084 -0.269961 0)
(8.79172 -0.263602 0)
(8.82033 -0.25597 0)
(8.84685 -0.247565 0)
(8.87143 -0.238785 0)
(8.89422 -0.229944 0)
(8.91538 -0.221282 0)
(8.93505 -0.212978 0)
(8.95335 -0.205166 0)
(8.97042 -0.197938 0)
(8.98637 -0.19136 0)
(9.00131 -0.18547 0)
(9.01535 -0.180293 0)
(9.02858 -0.17584 0)
(9.04108 -0.172113 0)
(9.05292 -0.169109 0)
(9.06417 -0.166823 0)
(9.0749 -0.165253 0)
(9.08516 -0.164396 0)
(9.09502 -0.164258 0)
(9.10456 -0.164842 0)
(9.11387 -0.166111 0)
(8.3396 -0.060263 0)
(8.37713 -0.168982 0)
(8.42655 -0.24674 0)
(8.47666 -0.299153 0)
(8.52943 -0.333327 0)
(8.58633 -0.353639 0)
(8.64573 -0.364183 0)
(8.7063 -0.368051 0)
(8.76707 -0.36721 0)
(8.82697 -0.363002 0)
(8.885 -0.356389 0)
(8.94045 -0.348064 0)
(8.99281 -0.338551 0)
(9.04177 -0.328263 0)
(9.08719 -0.317537 0)
(9.12907 -0.30665 0)
(9.1675 -0.295836 0)
(9.20265 -0.285289 0)
(9.23472 -0.275163 0)
(9.26395 -0.265584 0)
(9.2906 -0.256643 0)
(9.31491 -0.24841 0)
(9.3371 -0.24093 0)
(9.35739 -0.234232 0)
(9.37599 -0.228329 0)
(9.39306 -0.223224 0)
(9.40875 -0.218917 0)
(9.4232 -0.215404 0)
(9.4365 -0.212689 0)
(9.44875 -0.210776 0)
(9.46005 -0.209722 0)
(9.47046 -0.209527 0)
(9.48017 -0.210366 0)
(8.33761 -0.0463407 0)
(8.39357 -0.120282 0)
(8.4939 -0.183632 0)
(8.60872 -0.244595 0)
(8.73055 -0.296692 0)
(8.8539 -0.336787 0)
(8.97191 -0.365644 0)
(9.08052 -0.384197 0)
(9.1776 -0.393641 0)
(9.26198 -0.3956 0)
(9.33348 -0.391729 0)
(9.39259 -0.383516 0)
(9.44019 -0.372244 0)
(9.47742 -0.358978 0)
(9.5055 -0.344572 0)
(9.52564 -0.329691 0)
(9.53902 -0.314843 0)
(9.54667 -0.300404 0)
(9.54953 -0.286642 0)
(9.54842 -0.273742 0)
(9.54403 -0.261821 0)
(9.53695 -0.250945 0)
(9.52765 -0.24114 0)
(9.51654 -0.232402 0)
(9.50393 -0.224704 0)
(9.49008 -0.218008 0)
(9.47517 -0.212261 0)
(9.45933 -0.207411 0)
(9.44267 -0.203418 0)
(9.42516 -0.200251 0)
(9.40693 -0.198006 0)
(9.38763 -0.196631 0)
(9.368 -0.197164 0)
(8.40919 -0.221024 0)
(8.63482 -0.427534 0)
(8.83307 -0.521239 0)
(8.97713 -0.581197 0)
(9.07147 -0.613255 0)
(9.11517 -0.62306 0)
(9.11262 -0.618233 0)
(9.07327 -0.60288 0)
(9.00596 -0.579857 0)
(8.91814 -0.551742 0)
(8.81624 -0.520599 0)
(8.70553 -0.488011 0)
(8.59016 -0.455195 0)
(8.47322 -0.423059 0)
(8.357 -0.392244 0)
(8.24313 -0.363175 0)
(8.13268 -0.336109 0)
(8.02635 -0.311172 0)
(7.92449 -0.288398 0)
(7.82726 -0.267752 0)
(7.73464 -0.249152 0)
(7.6465 -0.232489 0)
(7.56263 -0.217633 0)
(7.48279 -0.204444 0)
(7.40669 -0.192776 0)
(7.33405 -0.18248 0)
(7.26455 -0.173399 0)
(7.19789 -0.165382 0)
(7.13375 -0.158248 0)
(7.07165 -0.151826 0)
(7.01123 -0.146013 0)
(6.95131 -0.139903 0)
(6.89239 -0.137218 0)
(8.13716 -0.206975 0)
(7.84824 -0.38754 0)
(7.38691 -0.438608 0)
(6.8629 -0.43899 0)
(6.36515 -0.407489 0)
(5.89654 -0.358397 0)
(5.45964 -0.303982 0)
(5.06177 -0.250629 0)
(4.70394 -0.201539 0)
(4.38411 -0.158313 0)
(4.09985 -0.121381 0)
(3.84827 -0.0905105 0)
(3.62614 -0.0651533 0)
(3.43026 -0.044619 0)
(3.25759 -0.0281852 0)
(3.10532 -0.0151701 0)
(2.97087 -0.00496645 0)
(2.85192 0.00294809 0)
(2.74642 0.00901174 0)
(2.65257 0.0135861 0)
(2.56876 0.0169665 0)
(2.49361 0.0193925 0)
(2.42591 0.0210591 0)
(2.3646 0.0221256 0)
(2.30879 0.0227281 0)
(2.25772 0.0229853 0)
(2.2107 0.0230276 0)
(2.16729 0.0229877 0)
(2.1269 0.0231061 0)
(2.0897 0.0237184 0)
(2.0547 0.0251472 0)
(2.02408 0.0303098 0)
(1.99573 0.0244658 0)
(1.42408 -0.120057 0)
(1.47933 -0.285251 0)
(1.30346 -0.529581 0)
(0.945596 -0.742831 0)
(0.55996 -0.78325 0)
(0.535434 -0.437146 0)
(1.0233 0.297538 0)
(1.6311 1.16167 0)
(2.26983 2.02462 0)
(2.98048 2.78462 0)
(3.77798 3.31766 0)