/*--------------------------------*- C++ -*----------------------------------*\
| =========                 |                                                 |
| \\      /  F ield         | OpenFOAM: The Open Source CFD Toolbox           |
|  \\    /   O peration     | Version:  2.1.1                                 |
|   \\  /    A nd           | Web:      www.OpenFOAM.org                      |
|    \\/     M anipulation  |                                                 |
\*---------------------------------------------------------------------------*/
FoamFile
{
    version     2.0;
    format      ascii;
    class       volScalarField;
    location    "0.165";
    object      nuSgs;
}
// * * * * * * * * * * * * * * * * * * * * * * * * * * * * * * * * * * * * * //

dimensions      [0 2 -1 0 0 0 0];

internalField   nonuniform List<scalar> 
6820
(
0.000556015
0.000457437
0.00036822
0.000306264
0.000269128
0.000243569
0.000224773
0.000210412
0.000198826
0.000189108
0.000180744
0.000173402
0.000166863
0.000160969
0.00015561
0.000150699
0.000146172
0.000141978
0.000138076
0.000134432
0.000131019
0.000127812
0.000124791
0.000121937
0.000119232
0.000116658
0.000114195
0.00011182
0.000109505
0.000107232
0.000104947
0.000102482
9.94263e-05
0.000103489
0.000170643
0.000223624
0.000240005
0.000235272
0.000224937
0.000213271
0.000202015
0.00019181
0.000182671
0.000174479
0.000167102
0.000160415
0.000154316
0.00014872
0.000143559
0.000138775
0.000134321
0.000130157
0.000126249
0.000122569
0.000119093
0.000115801
0.000112678
0.000109708
0.000106877
0.000104177
0.0001016
9.91533e-05
9.68003e-05
9.46739e-05
9.25154e-05
9.16278e-05
3.67773e-05
2.84889e-05
4.5578e-05
8.22242e-05
0.000107846
0.000123436
0.000131872
0.000135742
0.000136868
0.00013632
0.000134738
0.000132517
0.000129904
0.000127062
0.0001241
0.000121086
0.000118069
0.00011508
0.000112138
0.000109259
0.00010645
0.000103716
0.000101062
9.84876e-05
9.59951e-05
9.35837e-05
9.12575e-05
8.9022e-05
8.68873e-05
8.48578e-05
8.29848e-05
8.12356e-05
7.98945e-05
2.07374e-05
2.86958e-05
2.65834e-05
1.51354e-05
3.68468e-06
1.37436e-05
2.55364e-05
3.53329e-05
4.32337e-05
4.95124e-05
5.44432e-05
5.82688e-05
6.11903e-05
6.33644e-05
6.49233e-05
6.59764e-05
6.66134e-05
6.69082e-05
6.69217e-05
6.67041e-05
6.62972e-05
6.57361e-05
6.50498e-05
6.42639e-05
6.34006e-05
6.24817e-05
6.15274e-05
6.05561e-05
5.9594e-05
5.86674e-05
5.78212e-05
5.71172e-05
5.66758e-05
1.44179e-05
1.76e-05
2.26169e-05
2.43087e-05
2.39869e-05
2.20253e-05
1.91627e-05
1.59362e-05
1.25769e-05
9.23359e-06
6.01398e-06
3.00391e-06
7.49631e-07
2.65234e-06
4.97081e-06
7.08304e-06
8.97124e-06
1.06417e-05
1.21065e-05
1.33797e-05
1.44765e-05
1.54123e-05
1.62024e-05
1.68622e-05
1.74074e-05
1.78545e-05
1.82203e-05
1.85241e-05
1.87888e-05
1.90418e-05
1.93137e-05
1.96587e-05
2.00869e-05
1.09159e-05
1.25153e-05
1.38434e-05
1.43447e-05
1.51174e-05
1.57444e-05
1.61124e-05
1.63151e-05
1.6357e-05
1.6243e-05
1.59971e-05
1.56425e-05
1.52026e-05
1.46927e-05
1.4131e-05
1.35345e-05
1.29183e-05
1.22951e-05
1.16749e-05
1.10657e-05
1.04736e-05
9.90276e-06
9.35573e-06
8.83371e-06
8.33631e-06
7.86164e-06
7.40635e-06
6.96622e-06
6.53568e-06
6.1103e-06
5.69421e-06
5.30038e-06
5.0176e-06
8.23782e-06
9.44573e-06
1.0274e-05
1.00719e-05
9.87819e-06
9.69382e-06
9.50271e-06
9.40791e-06
9.39881e-06
9.43145e-06
9.47907e-06
9.52404e-06
9.55472e-06
9.56887e-06
9.56439e-06
9.54026e-06
9.4966e-06
9.43434e-06
9.3548e-06
9.25948e-06
9.14986e-06
9.02734e-06
8.89317e-06
8.74831e-06
8.59346e-06
8.42899e-06
8.25552e-06
8.07424e-06
7.88692e-06
7.69932e-06
7.52531e-06
7.39371e-06
7.36786e-06
6.35146e-06
7.4261e-06
8.24476e-06
8.11029e-06
7.79913e-06
7.45806e-06
7.07923e-06
6.75439e-06
6.50243e-06
6.30256e-06
6.14192e-06
6.01156e-06
5.90263e-06
5.80849e-06
5.72485e-06
5.64863e-06
5.57736e-06
5.5091e-06
5.4423e-06
5.3758e-06
5.30865e-06
5.24011e-06
5.16962e-06
5.09677e-06
5.02145e-06
4.94385e-06
4.86513e-06
4.7877e-06
4.7169e-06
4.66265e-06
4.64296e-06
4.68721e-06
4.84688e-06
4.98842e-06
5.87473e-06
6.57192e-06
6.56981e-06
6.40251e-06
6.19484e-06
5.91211e-06
5.62725e-06
5.37893e-06
5.1634e-06
4.97588e-06
4.81292e-06
4.6697e-06
4.54204e-06
4.42707e-06
4.32263e-06
4.22696e-06
4.1387e-06
4.05679e-06
3.98037e-06
3.90875e-06
3.84139e-06
3.77791e-06
3.71821e-06
3.66252e-06
3.61181e-06
3.56783e-06
3.53436e-06
3.51791e-06
3.52946e-06
3.5862e-06
3.71021e-06
3.93812e-06
3.98025e-06
4.72138e-06
5.33977e-06
5.41718e-06
5.31707e-06
5.16985e-06
4.95456e-06
4.72701e-06
4.52527e-06
4.34855e-06
4.19235e-06
4.05454e-06
3.93205e-06
3.82195e-06
3.72223e-06
3.63144e-06
3.54846e-06
3.47239e-06
3.40254e-06
3.33838e-06
3.27953e-06
3.22577e-06
3.17712e-06
3.13393e-06
3.09698e-06
3.06777e-06
3.04903e-06
3.04518e-06
3.06286e-06
3.11181e-06
3.20535e-06
3.35714e-06
3.59257e-06
3.21819e-06
3.84638e-06
4.39673e-06
4.51752e-06
4.46732e-06
4.37014e-06
4.21194e-06
4.03048e-06
3.86089e-06
3.70767e-06
3.56955e-06
3.44657e-06
3.3374e-06
3.24003e-06
3.15286e-06
3.07463e-06
3.0043e-06
2.94103e-06
2.88417e-06
2.8333e-06
2.78816e-06
2.74874e-06
2.71533e-06
2.68855e-06
2.66958e-06
2.66033e-06
2.66371e-06
2.68397e-06
2.72692e-06
2.80017e-06
2.9131e-06
3.07309e-06
3.29874e-06
2.62917e-06
3.16818e-06
3.668e-06
3.82559e-06
3.8223e-06
3.76459e-06
3.6467e-06
3.4979e-06
3.3517e-06
3.21672e-06
3.09362e-06
2.98326e-06
2.88517e-06
2.79796e-06
2.72037e-06
2.65142e-06
2.59026e-06
2.53624e-06
2.48888e-06
2.4479e-06
2.41319e-06
2.38489e-06
2.36344e-06
2.34963e-06
2.34474e-06
2.35069e-06
2.37017e-06
2.40682e-06
2.4652e-06
2.55068e-06
2.66939e-06
2.82446e-06
3.03041e-06
2.1636e-06
2.63457e-06
3.09701e-06
3.28093e-06
3.31403e-06
3.28745e-06
3.20368e-06
3.08595e-06
2.96365e-06
2.84698e-06
2.73806e-06
2.63867e-06
2.54942e-06
2.4698e-06
2.39913e-06
2.33678e-06
2.28219e-06
2.23486e-06
2.19447e-06
2.16079e-06
2.13385e-06
2.11384e-06
2.10124e-06
2.09688e-06
2.10198e-06
2.11824e-06
2.14792e-06
2.19384e-06
2.25924e-06
2.34766e-06
2.46289e-06
2.60554e-06
2.78772e-06
1.78788e-06
2.20812e-06
2.64269e-06
2.84726e-06
2.91185e-06
2.9129e-06
2.8579e-06
2.7661e-06
2.66341e-06
2.56144e-06
2.46398e-06
2.37368e-06
2.29194e-06
2.21885e-06
2.1541e-06
2.09731e-06
2.0481e-06
2.0061e-06
1.97108e-06
1.94293e-06
1.92171e-06
1.90765e-06
1.90125e-06
1.90325e-06
1.9147e-06
1.93699e-06
1.97184e-06
2.02126e-06
2.08744e-06
2.17255e-06
2.27879e-06
2.40537e-06
2.56288e-06
1.4786e-06
1.86267e-06
2.27718e-06
2.49847e-06
2.58926e-06
2.61331e-06
2.58172e-06
2.51184e-06
2.42664e-06
2.33825e-06
2.2515e-06
2.16958e-06
2.09441e-06
2.02664e-06
1.96635e-06
1.91347e-06
1.86783e-06
1.82924e-06
1.79759e-06
1.77283e-06
1.75507e-06
1.74453e-06
1.74165e-06
1.74703e-06
1.7615e-06
1.78609e-06
1.82201e-06
1.87062e-06
1.93327e-06
2.01117e-06
2.10555e-06
2.21486e-06
2.34866e-06
1.21915e-06
1.57961e-06
1.98031e-06
2.2154e-06
2.32835e-06
2.37253e-06
2.36117e-06
2.31033e-06
2.24042e-06
2.16363e-06
2.08568e-06
2.01035e-06
1.9401e-06
1.8761e-06
1.8188e-06
1.7684e-06
1.72492e-06
1.68828e-06
1.65845e-06
1.63543e-06
1.61932e-06
1.61031e-06
1.60873e-06
1.61505e-06
1.62984e-06
1.65382e-06
1.68777e-06
1.73253e-06
1.78885e-06
1.85733e-06
1.9386e-06
2.03078e-06
2.14263e-06
9.97609e-07
1.34566e-06
1.73784e-06
1.98464e-06
2.1164e-06
2.17802e-06
2.18379e-06
2.14902e-06
2.09218e-06
2.02533e-06
1.95489e-06
1.88509e-06
1.8188e-06
1.75755e-06
1.70213e-06
1.65296e-06
1.61022e-06
1.574e-06
1.54432e-06
1.52124e-06
1.50485e-06
1.49532e-06
1.49287e-06
1.49783e-06
1.51057e-06
1.53154e-06
1.56119e-06
1.59998e-06
1.64827e-06
1.70627e-06
1.77427e-06
1.8503e-06
1.94244e-06
8.05442e-07
1.15157e-06
1.5397e-06
1.79651e-06
1.94419e-06
2.02098e-06
2.04152e-06
2.02058e-06
1.97506e-06
1.91674e-06
1.85248e-06
1.78692e-06
1.72325e-06
1.66339e-06
1.60845e-06
1.55907e-06
1.51562e-06
1.4783e-06
1.44722e-06
1.42246e-06
1.40413e-06
1.39234e-06
1.38723e-06
1.389e-06
1.39786e-06
1.41405e-06
1.4378e-06
1.46929e-06
1.50865e-06
1.55585e-06
1.61102e-06
1.67225e-06
1.74698e-06
6.36857e-07
9.91353e-07
1.37895e-06
1.64427e-06
1.80535e-06
1.89525e-06
1.92844e-06
1.91921e-06
1.88323e-06
1.83192e-06
1.77249e-06
1.70993e-06
1.64772e-06
1.58809e-06
1.53243e-06
1.48158e-06
1.43607e-06
1.39621e-06
1.36221e-06
1.3342e-06
1.31226e-06
1.29652e-06
1.28706e-06
1.284e-06
1.28744e-06
1.29749e-06
1.31422e-06
1.33768e-06
1.36784e-06
1.40457e-06
1.44792e-06
1.49609e-06
1.55592e-06
4.88972e-07
8.61848e-07
1.25106e-06
1.52332e-06
1.69548e-06
1.79654e-06
1.8405e-06
1.84116e-06
1.81316e-06
1.76758e-06
1.71184e-06
1.65117e-06
1.58933e-06
1.52881e-06
1.47124e-06
1.41767e-06
1.36878e-06
1.325e-06
1.28662e-06
1.25383e-06
1.22676e-06
1.20551e-06
1.19016e-06
1.1808e-06
1.17747e-06
1.18021e-06
1.18903e-06
1.2039e-06
1.22473e-06
1.25137e-06
1.28385e-06
1.3205e-06
1.36765e-06
3.63676e-07
7.62641e-07
1.15348e-06
1.43079e-06
1.61175e-06
1.72211e-06
1.77509e-06
1.7839e-06
1.76235e-06
1.72113e-06
1.66777e-06
1.60773e-06
1.54499e-06
1.4823e-06
1.42148e-06
1.36379e-06
1.31008e-06
1.26088e-06
1.2166e-06
1.17748e-06
1.14372e-06
1.11548e-06
1.09285e-06
1.07595e-06
1.06482e-06
1.05953e-06
1.06006e-06
1.06641e-06
1.07849e-06
1.09615e-06
1.11942e-06
1.14678e-06
1.18397e-06
2.73399e-07
6.95628e-07
1.08515e-06
1.36511e-06
1.55261e-06
1.67046e-06
1.73086e-06
1.74633e-06
1.72994e-06
1.69205e-06
1.64019e-06
1.58e-06
1.51563e-06
1.45001e-06
1.38517e-06
1.3225e-06
1.26298e-06
1.20726e-06
1.15582e-06
1.10899e-06
1.06706e-06
1.03022e-06
9.98686e-07
9.72616e-07
9.52168e-07
9.37477e-07
9.28641e-07
9.2573e-07
9.2874e-07
9.37598e-07
9.52386e-07
9.71715e-07
1.00084e-06
2.47594e-07
6.64032e-07
1.04611e-06
1.32574e-06
1.51745e-06
1.64093e-06
1.70705e-06
1.72754e-06
1.71474e-06
1.67866e-06
1.62683e-06
1.565e-06
1.49748e-06
1.42741e-06
1.357e-06
1.28781e-06
1.22094e-06
1.15717e-06
1.09707e-06
1.04106e-06
9.89508e-07
9.42718e-07
9.01002e-07
8.64672e-07
8.3405e-07
8.09459e-07
7.91195e-07
7.79522e-07
7.746e-07
7.76473e-07
7.85255e-07
7.99628e-07
8.24217e-07
3.01468e-07
6.70494e-07
1.03712e-06
1.3131e-06
1.50677e-06
1.6343e-06
1.70497e-06
1.7296e-06
1.71986e-06
1.68538e-06
1.63361e-06
1.57032e-06
1.49992e-06
1.42565e-06
1.34984e-06
1.27413e-06
1.19973e-06
1.12748e-06
1.05799e-06
9.9176e-07
9.29187e-07
8.70664e-07
8.16605e-07
7.67482e-07
7.23843e-07
6.86319e-07
6.55595e-07
6.32378e-07
6.17265e-07
6.10679e-07
6.1294e-07
6.2281e-07
6.44408e-07
4.08089e-07
7.15139e-07
1.05914e-06
1.32813e-06
1.52132e-06
1.65083e-06
1.72394e-06
1.75043e-06
1.74133e-06
1.70596e-06
1.65174e-06
1.58457e-06
1.50901e-06
1.42846e-06
1.34539e-06
1.2616e-06
1.17834e-06
1.09652e-06
1.01679e-06
9.39629e-07
8.65447e-07
7.94642e-07
7.27668e-07
6.65096e-07
6.07682e-07
5.56433e-07
5.12624e-07
4.77789e-07
4.53491e-07
4.41037e-07
4.41176e-07
4.52551e-07
4.78075e-07
5.43876e-07
7.95757e-07
1.11321e-06
1.37273e-06
1.56408e-06
1.69523e-06
1.77132e-06
1.80094e-06
1.79435e-06
1.76041e-06
1.70626e-06
1.63771e-06
1.55933e-06
1.47459e-06
1.38608e-06
1.29566e-06
1.20471e-06
1.11418e-06
1.02476e-06
9.36927e-07
8.51031e-07
7.67372e-07
6.86248e-07
6.08034e-07
5.33273e-07
4.62827e-07
3.98087e-07
3.41357e-07
2.96158e-07
2.67307e-07
2.59245e-07
2.71738e-07
3.05062e-07
7.01688e-07
9.10584e-07
1.20123e-06
1.44912e-06
1.63572e-06
1.76473e-06
1.83904e-06
1.86626e-06
1.85633e-06
1.8181e-06
1.75881e-06
1.68443e-06
1.5997e-06
1.5082e-06
1.41257e-06
1.31476e-06
1.21613e-06
1.11765e-06
1.01997e-06
9.23531e-07
8.28611e-07
7.35388e-07
6.4398e-07
5.54479e-07
4.6699e-07
3.8169e-07
2.9892e-07
2.19533e-07
1.45951e-07
8.84694e-08
8.29629e-08
1.31834e-07
1.98471e-07
8.81705e-07
1.05797e-06
1.32441e-06
1.56175e-06
1.74646e-06
1.8787e-06
1.95858e-06
1.99178e-06
1.98705e-06
1.95245e-06
1.89487e-06
1.82021e-06
1.73337e-06
1.63819e-06
1.53765e-06
1.43398e-06
1.32886e-06
1.22351e-06
1.11879e-06
1.01531e-06
9.13518e-07
8.13717e-07
7.16152e-07
6.21047e-07
5.28659e-07
4.39363e-07
3.5379e-07
2.73255e-07
2.00719e-07
1.44416e-07
1.22558e-07
1.47022e-07
1.97651e-07
1.08976e-06
1.24397e-06
1.49045e-06
1.71403e-06
1.88776e-06
2.00973e-06
2.0792e-06
2.10231e-06
2.0885e-06
2.04618e-06
1.98222e-06
1.90238e-06
1.81132e-06
1.71265e-06
1.60913e-06
1.50289e-06
1.39555e-06
1.28836e-06
1.18228e-06
1.07808e-06
9.76423e-07
8.77913e-07
7.83191e-07
6.93005e-07
6.08319e-07
5.30467e-07
4.61332e-07
4.03567e-07
3.60497e-07
3.35593e-07
3.30449e-07
3.44232e-07
3.71186e-07
1.33041e-06
1.4651e-06
1.6973e-06
1.91987e-06
2.10479e-06
2.24484e-06
2.33291e-06
2.37117e-06
2.36754e-06
2.33019e-06
2.26663e-06
2.18359e-06
2.08682e-06
1.9809e-06
1.86941e-06
1.75511e-06
1.6401e-06
1.52596e-06
1.41392e-06
1.30496e-06
1.19991e-06
1.09953e-06
1.00456e-06
9.1583e-07
8.34252e-07
7.60889e-07
6.96929e-07
6.43645e-07
6.02164e-07
5.73371e-07
5.57192e-07
5.53556e-07
5.58635e-07
1.62439e-06
1.75653e-06
1.9759e-06
2.17121e-06
2.3209e-06
2.42645e-06
2.48644e-06
2.50588e-06
2.49274e-06
2.4533e-06
2.39261e-06
2.3153e-06
2.22553e-06
2.12685e-06
2.02228e-06
1.91439e-06
1.80532e-06
1.69686e-06
1.59049e-06
1.48748e-06
1.38891e-06
1.29574e-06
1.20884e-06
1.12902e-06
1.05703e-06
9.93565e-07
9.3919e-07
8.9432e-07
8.59106e-07
8.33475e-07
8.16839e-07
8.08981e-07
8.06831e-07
1.96394e-06
2.07252e-06
2.30327e-06
2.54947e-06
2.76821e-06
2.9356e-06
3.03573e-06
3.07243e-06
3.05876e-06
3.00702e-06
2.92739e-06
2.82848e-06
2.71703e-06
2.59806e-06
2.47525e-06
2.3513e-06
2.22826e-06
2.10764e-06
1.99063e-06
1.8782e-06
1.77114e-06
1.67012e-06
1.57574e-06
1.48851e-06
1.40886e-06
1.33713e-06
1.27355e-06
1.21824e-06
1.17111e-06
1.13201e-06
1.10035e-06
1.0762e-06
1.05641e-06
2.44341e-06
2.58519e-06
2.76346e-06
2.88563e-06
2.98181e-06
3.07213e-06
3.14528e-06
3.19233e-06
3.21063e-06
3.19908e-06
3.15892e-06
3.09405e-06
3.00943e-06
2.90997e-06
2.8002e-06
2.68409e-06
2.56494e-06
2.44544e-06
2.32769e-06
2.21335e-06
2.10368e-06
1.99964e-06
1.90193e-06
1.81104e-06
1.72729e-06
1.65081e-06
1.58163e-06
1.51962e-06
1.46455e-06
1.41616e-06
1.37396e-06
1.33813e-06
1.30603e-06
2.91781e-06
3.01124e-06
3.37836e-06
3.77328e-06
4.07208e-06
4.25051e-06
4.31664e-06
4.30087e-06
4.23269e-06
4.13013e-06
4.00431e-06
3.86319e-06
3.71236e-06
3.55576e-06
3.39649e-06
3.2372e-06
3.08012e-06
2.92715e-06
2.77984e-06
2.63945e-06
2.50691e-06
2.3829e-06
2.26782e-06
2.16185e-06
2.06498e-06
1.97699e-06
1.89753e-06
1.82614e-06
1.76223e-06
1.7053e-06
1.65461e-06
1.61052e-06
1.56999e-06
3.95459e-06
4.0463e-06
3.94059e-06
3.84686e-06
3.93539e-06
4.13676e-06
4.32587e-06
4.45091e-06
4.50744e-06
4.5049e-06
4.45971e-06
4.38997e-06
4.31027e-06
4.2306e-06
4.15699e-06
4.09239e-06
4.0375e-06
3.99171e-06
3.95372e-06
3.92204e-06
3.8952e-06
3.87191e-06
3.85109e-06
3.83183e-06
3.8134e-06
3.79518e-06
3.77665e-06
3.75732e-06
3.73683e-06
3.71503e-06
3.69179e-06
3.66862e-06
3.64343e-06
4.40979e-06
4.95561e-06
5.91004e-06
6.3772e-06
6.47804e-06
6.44132e-06
6.42291e-06
6.52839e-06
6.78667e-06
7.16394e-06
7.60845e-06
8.07424e-06
8.5266e-06
8.94253e-06
9.30901e-06
9.62027e-06
9.87529e-06
1.00761e-05
1.02265e-05
1.03311e-05
1.03951e-05
1.04233e-05
1.04205e-05
1.0391e-05
1.03385e-05
1.02663e-05
1.01771e-05
1.0073e-05
9.9557e-06
9.82644e-06
9.68677e-06
9.53897e-06
9.38388e-06
7.59818e-06
5.84291e-06
4.59863e-06
6.17011e-06
8.90221e-06
1.16159e-05
1.39502e-05
1.58436e-05
1.72951e-05
1.83193e-05
1.89537e-05
1.92466e-05
1.92487e-05
1.90098e-05
1.85776e-05
1.79955e-05
1.73014e-05
1.65278e-05
1.57022e-05
1.48467e-05
1.39791e-05
1.31134e-05
1.22602e-05
1.14275e-05
1.06207e-05
9.84342e-06
9.09753e-06
8.38317e-06
7.69982e-06
7.0436e-06
6.41468e-06
5.80101e-06
5.21392e-06
8.58775e-06
1.46976e-05
1.87823e-05
2.11709e-05
2.22435e-05
2.17512e-05
1.98705e-05
1.70562e-05
1.37816e-05
1.06824e-05
8.80195e-06
9.23889e-06
1.16759e-05
1.49854e-05
1.84924e-05
2.19042e-05
2.50943e-05
2.80089e-05
3.06296e-05
3.29566e-05
3.50007e-05
3.67782e-05
3.8308e-05
3.96103e-05
4.07049e-05
4.16115e-05
4.23487e-05
4.29349e-05
4.33881e-05
4.37306e-05
4.39788e-05
4.41917e-05
4.43597e-05
3.46719e-05
3.72354e-05
4.66835e-05
6.18315e-05
7.75617e-05
9.2981e-05
0.000107385
0.000120065
0.000130834
0.000139736
0.000146884
0.000152442
0.000156598
0.000159539
0.000161442
0.000162466
0.000162752
0.000162426
0.000161594
0.000160347
0.000158764
0.000156909
0.000154837
0.000152594
0.000150217
0.000147738
0.000145182
0.000142566
0.000139909
0.000137217
0.000134491
0.00013182
0.000129215
0.000608466
0.000582502
0.000556836
0.000530311
0.000504231
0.000478921
0.000454422
0.00043101
0.000408868
0.000388053
0.000368584
0.000350445
0.000333589
0.000317948
0.000303444
0.000289992
0.000277507
0.000265906
0.00025511
0.000245045
0.000235643
0.000226841
0.000218581
0.000210814
0.000203494
0.000196578
0.000190029
0.000183811
0.000177885
0.00017223
0.000166716
0.000161879
0.000157494
8.76329e-05
7.65417e-05
6.62941e-05
5.76463e-05
4.8539e-05
3.787e-05
2.87083e-05
3.00291e-05
4.11868e-05
5.04583e-05
4.68317e-05
3.48676e-05
3.77467e-05
4.8695e-05
5.27711e-05
5.04603e-05
4.90016e-05
5.77129e-05
6.24445e-05
5.62999e-05
5.43008e-05
5.35552e-05
5.19431e-05
5.00022e-05
4.77771e-05
4.55903e-05
4.42257e-05
4.47715e-05
4.79227e-05
5.22175e-05
5.56407e-05
5.7818e-05
5.8148e-05
5.64805e-05
5.18772e-05
4.39881e-05
3.40073e-05
2.38783e-05
1.52433e-05
8.95088e-06
5.20937e-06
3.90606e-06
4.26378e-06
5.32917e-06
6.71602e-06
8.18363e-06
9.49877e-06
1.05162e-05
1.12049e-05
1.16006e-05
1.17519e-05
1.16972e-05
1.14685e-05
1.10969e-05
1.06134e-05
1.00477e-05
9.42704e-06
8.77617e-06
8.11794e-06
7.47349e-06
6.8618e-06
6.29932e-06
5.79964e-06
5.37237e-06
5.02487e-06
4.76639e-06
4.61202e-06
4.56423e-06
4.58959e-06
4.75545e-06
5.50977e-06
7.51548e-06
1.25223e-05
2.15437e-05
3.19472e-05
4.03412e-05
4.47286e-05
4.44764e-05
3.98278e-05
3.1713e-05
2.13558e-05
9.53163e-06
4.33343e-06
1.87865e-05
3.5279e-05
4.90651e-05
5.39269e-05
4.85852e-05
3.73433e-05
2.56604e-05
1.67247e-05
1.0921e-05
7.1291e-06
4.98392e-06
4.10576e-06
5.18047e-06
5.81989e-06
8.44317e-06
1.1454e-05
1.2452e-05
0.000119466
0.000112532
9.76055e-05
8.30326e-05
7.01642e-05
6.02118e-05
5.61533e-05
5.8156e-05
5.98291e-05
5.23008e-05
3.4644e-05
2.73992e-05
4.06729e-05
4.9347e-05
4.99303e-05
4.66583e-05
4.35839e-05
4.9972e-05
6.07022e-05
5.93783e-05
5.66018e-05
5.64899e-05
5.55417e-05
5.39744e-05
5.21695e-05
5.05422e-05
4.97771e-05
5.06406e-05
5.31626e-05
5.56213e-05
5.67626e-05
5.67138e-05
5.52885e-05
5.23418e-05
4.68054e-05
3.87661e-05
2.9755e-05
2.14509e-05
1.475e-05
9.79977e-06
6.48531e-06
4.74667e-06
4.52096e-06
5.40212e-06
6.79428e-06
8.24849e-06
9.50424e-06
1.04617e-05
1.11218e-05
1.15197e-05
1.16901e-05
1.16619e-05
1.14633e-05
1.11238e-05
1.06723e-05
1.01363e-05
9.54137e-06
8.91158e-06
8.26955e-06
7.63647e-06
7.03142e-06
6.47088e-06
5.96859e-06
5.53486e-06
5.17784e-06
4.90982e-06
4.75119e-06
4.71316e-06
4.76644e-06
4.94385e-06
5.65509e-06
7.55767e-06
1.23149e-05
2.13807e-05
3.22657e-05
4.12006e-05
4.59938e-05
4.60433e-05
4.16047e-05
3.35302e-05
2.30358e-05
1.1494e-05
7.32695e-06
2.04684e-05
3.74973e-05
5.15089e-05
5.58334e-05
4.96826e-05
3.79657e-05
2.62317e-05
1.73972e-05
1.1646e-05
7.81e-06
5.53708e-06
4.51503e-06
5.48555e-06
6.04028e-06
8.51052e-06
1.17026e-05
1.2636e-05
0.000106271
0.000109188
0.000106794
9.9894e-05
9.06379e-05
8.15085e-05
7.3101e-05
6.36464e-05
4.96439e-05
3.02268e-05
1.98658e-05
3.3954e-05
4.57299e-05
4.86708e-05
4.67392e-05
4.39668e-05
4.09818e-05
4.3882e-05
5.58922e-05
6.06691e-05
5.85689e-05
5.86716e-05
5.85478e-05
5.7481e-05
5.60736e-05
5.48372e-05
5.42962e-05
5.49058e-05
5.62436e-05
5.67773e-05
5.60227e-05
5.4366e-05
5.15925e-05
4.74476e-05
4.12735e-05
3.38751e-05
2.67925e-05
2.06883e-05
1.54236e-05
1.09812e-05
7.62767e-06
5.6086e-06
5.05343e-06
5.74304e-06
7.03359e-06
8.38631e-06
9.54414e-06
1.0435e-05
1.10665e-05
1.14632e-05
1.16481e-05
1.16435e-05
1.14739e-05
1.11657e-05
1.0745e-05
1.02372e-05
9.66654e-06
9.05617e-06
8.42851e-06
7.8048e-06
7.20433e-06
6.64387e-06
6.1376e-06
5.69677e-06
5.33063e-06
5.05191e-06
4.88386e-06
4.84793e-06
4.92692e-06
5.12783e-06
5.80415e-06
7.60675e-06
1.20613e-05
2.1053e-05
3.24077e-05
4.19806e-05
4.72883e-05
4.77338e-05
4.36173e-05
3.57464e-05
2.53523e-05
1.45224e-05
1.09741e-05
2.27862e-05
4.01993e-05
5.423e-05
5.77469e-05
5.06245e-05
3.84556e-05
2.68066e-05
1.81785e-05
1.24697e-05
8.52231e-06
6.07679e-06
4.90032e-06
5.7607e-06
6.26e-06
8.55691e-06
1.1903e-05
1.27795e-05
7.5844e-05
7.79659e-05
7.78829e-05
7.5289e-05
6.95959e-05
6.02856e-05
4.76747e-05
3.18429e-05
1.49197e-05
1.59324e-05
3.18051e-05
4.26214e-05
4.61725e-05
4.50857e-05
4.29172e-05
4.17453e-05
4.02376e-05
4.06581e-05
5.02621e-05
5.97417e-05
6.01936e-05
6.02387e-05
6.08266e-05
6.03862e-05
5.93398e-05
5.82904e-05
5.76365e-05
5.75736e-05
5.74633e-05
5.62508e-05
5.40716e-05
5.09754e-05
4.67461e-05
4.13728e-05
3.51542e-05
2.96449e-05
2.53531e-05
2.11315e-05
1.64703e-05
1.20257e-05
8.56541e-06
6.42062e-06
5.7026e-06
6.22528e-06
7.35486e-06
8.55617e-06
9.59758e-06
1.04201e-05
1.10231e-05
1.14168e-05
1.16139e-05
1.16312e-05
1.14898e-05
1.12126e-05
1.0823e-05
1.0344e-05
9.79811e-06
9.20759e-06
8.59441e-06
7.97977e-06
7.38326e-06
6.8221e-06
6.3112e-06
5.86295e-06
5.48839e-06
5.20107e-06
5.02523e-06
4.98787e-06
5.08321e-06
5.30423e-06
5.94496e-06
7.6555e-06
1.17818e-05
2.05744e-05
3.2383e-05
4.2717e-05
4.86757e-05
4.961e-05
4.58922e-05
3.83283e-05
2.82023e-05
1.82066e-05
1.51437e-05
2.58883e-05
4.34455e-05
5.71284e-05
5.94754e-05
5.12542e-05
3.87632e-05
2.74189e-05
1.91285e-05
1.34603e-05
9.33428e-06
6.65668e-06
5.28865e-06
6.0038e-06
6.45489e-06
8.56861e-06
1.20583e-05
1.28974e-05
2.78262e-05
2.93624e-05
2.91974e-05
2.68231e-05
2.15609e-05
1.31184e-05
2.76054e-06
1.16522e-05
2.42235e-05
3.43373e-05
4.02843e-05
4.2056e-05
4.13282e-05
4.01172e-05
3.93925e-05
3.97164e-05
4.01026e-05
3.9816e-05
4.55232e-05
5.64831e-05
6.08744e-05
6.13091e-05
6.22471e-05
6.2438e-05
6.17276e-05
6.06687e-05
5.96193e-05
5.86076e-05
5.70081e-05
5.43672e-05
5.09961e-05
4.63827e-05
4.05775e-05
3.42514e-05
2.93312e-05
2.73042e-05
2.57377e-05
2.22905e-05
1.74747e-05
1.2848e-05
9.34912e-06
7.19412e-06
6.41627e-06
6.78771e-06
7.72034e-06
8.74771e-06
9.67006e-06
1.04259e-05
1.09983e-05
1.13844e-05
1.15893e-05
1.16256e-05
1.15105e-05
1.12635e-05
1.09046e-05
1.04542e-05
9.93305e-06
9.36231e-06
8.76325e-06
8.1569e-06
7.56313e-06
6.99975e-06
6.48247e-06
6.02521e-06
5.64079e-06
5.34429e-06
5.16202e-06
5.1258e-06
5.23728e-06
5.47863e-06
6.07955e-06
7.69371e-06
1.1485e-05
1.99243e-05
3.21082e-05
4.33143e-05
5.00874e-05
5.16219e-05
4.8379e-05
4.12195e-05
3.15252e-05
2.24255e-05
1.96751e-05
2.96606e-05
4.71751e-05
6.00782e-05
6.08731e-05
5.14814e-05
3.88584e-05
2.80423e-05
2.01813e-05
1.45339e-05
1.01933e-05
7.26263e-06
5.68914e-06
6.22749e-06
6.62049e-06
8.54149e-06
1.21623e-05
1.29921e-05
6.77872e-06
8.39707e-06
1.11534e-05
1.44244e-05
1.81033e-05
2.23118e-05
2.69156e-05
3.12266e-05
3.43755e-05
3.58836e-05
3.60465e-05
3.57005e-05
3.55803e-05
3.58833e-05
3.63683e-05
3.73023e-05
3.90245e-05
3.97188e-05
4.26002e-05
5.17941e-05
5.96925e-05
6.17803e-05
6.2821e-05
6.34131e-05
6.29824e-05
6.17959e-05
6.01755e-05
5.80862e-05
5.51328e-05
5.13523e-05
4.67326e-05
4.03741e-05
3.28923e-05
2.65465e-05
2.54517e-05
2.76715e-05
2.73584e-05
2.34736e-05
1.8161e-05
1.34263e-05
1.00048e-05
7.9305e-06
7.14614e-06
7.36958e-06
8.09676e-06
8.95261e-06
9.76169e-06
1.04516e-05
1.099e-05
1.1364e-05
1.15735e-05
1.16268e-05
1.15369e-05
1.13192e-05
1.09906e-05
1.05689e-05
1.00728e-05
9.52186e-06
8.9367e-06
8.33801e-06
7.74583e-06
7.17864e-06
6.65311e-06
6.18467e-06
5.78834e-06
5.48059e-06
5.28953e-06
5.25308e-06
5.38142e-06
5.64929e-06
6.21535e-06
7.72037e-06
1.11854e-05
1.91106e-05
3.152e-05
4.36763e-05
5.14546e-05
5.37434e-05
5.10813e-05
4.44306e-05
3.53115e-05
2.70735e-05
2.45719e-05
3.41736e-05
5.13973e-05
6.29378e-05
6.17617e-05
5.12096e-05
3.87291e-05
2.86706e-05
2.13018e-05
1.56479e-05
1.10576e-05
7.86143e-06
6.08438e-06
6.43229e-06
6.7557e-06
8.47706e-06
1.22111e-05
1.30646e-05
1.02046e-05
1.18199e-05
1.44193e-05
1.75166e-05
2.0686e-05
2.36001e-05
2.59653e-05
2.75907e-05
2.85028e-05
2.90324e-05
2.96159e-05
3.04635e-05
3.14663e-05
3.24694e-05
3.34117e-05
3.44876e-05
3.66415e-05
3.88623e-05
4.09802e-05
4.72882e-05
5.62342e-05
6.10473e-05
6.26021e-05
6.32881e-05
6.29331e-05
6.15355e-05
5.92914e-05
5.61642e-05
5.21013e-05
4.72089e-05
4.09081e-05
3.25589e-05
2.36108e-05
2.00737e-05
2.56384e-05
3.02885e-05
2.92039e-05
2.41957e-05
1.84667e-05
1.38182e-05
1.05852e-05
8.64852e-06
7.86694e-06
7.94087e-06
8.47305e-06
9.17061e-06
9.87278e-06
1.04959e-05
1.09965e-05
1.1355e-05
1.15665e-05
1.16349e-05
1.15689e-05
1.138e-05
1.10815e-05
1.06886e-05
1.02176e-05
9.68666e-06
9.11521e-06
8.52354e-06
7.93182e-06
7.3592e-06
6.82338e-06
6.34145e-06
5.93084e-06
5.60963e-06
5.40689e-06
5.36601e-06
5.50818e-06
5.808e-06
6.35458e-06
7.73841e-06
1.08961e-05
1.81628e-05
3.05718e-05
4.37068e-05
5.27079e-05
5.59567e-05
5.40101e-05
4.79696e-05
3.95383e-05
3.20954e-05
2.98849e-05
3.94435e-05
5.59937e-05
6.54525e-05
6.19307e-05
5.03836e-05
3.84091e-05
2.9299e-05
2.24249e-05
1.67294e-05
1.18727e-05
8.4158e-06
6.44816e-06
6.60661e-06
6.85543e-06
8.38011e-06
1.22059e-05
1.31163e-05
7.04121e-06
8.49155e-06
1.06056e-05
1.30849e-05
1.56226e-05
1.79898e-05
2.00239e-05
2.16797e-05
2.30644e-05
2.4351e-05
2.56456e-05
2.69394e-05
2.8162e-05
2.93097e-05
3.04778e-05
3.1733e-05
3.37797e-05
3.68848e-05
3.95852e-05
4.40423e-05
5.14895e-05
5.82796e-05
6.13158e-05
6.21857e-05
6.16857e-05
5.98832e-05
5.69228e-05
5.28438e-05
4.77215e-05
4.12853e-05
3.30283e-05
2.2689e-05
1.34976e-05
1.94106e-05
2.99603e-05
3.35945e-05
3.03886e-05
2.42693e-05
1.84647e-05
1.41007e-05
1.11311e-05
9.34409e-06
8.5494e-06
8.48087e-06
8.84173e-06
9.39844e-06
9.99962e-06
1.05552e-05
1.10155e-05
1.13561e-05
1.15678e-05
1.16499e-05
1.16069e-05
1.14463e-05
1.11781e-05
1.08141e-05
1.03686e-05
9.85766e-06
9.29971e-06
8.71438e-06
8.1219e-06
7.54208e-06
6.99376e-06
6.49565e-06
6.06779e-06
5.7304e-06
5.51317e-06
5.46353e-06
5.61429e-06
5.9473e-06
6.49471e-06
7.75335e-06
1.06251e-05
1.71299e-05
2.92282e-05
4.32752e-05
5.37221e-05
5.82017e-05
5.7156e-05
5.18408e-05
4.41952e-05
3.74828e-05
3.57338e-05
4.5493e-05
6.07426e-05
6.72755e-05
6.11668e-05
4.90002e-05
3.79574e-05
2.99036e-05
2.34659e-05
1.76987e-05
1.2588e-05
8.89715e-06
6.76065e-06
6.73732e-06
6.91093e-06
8.25343e-06
1.21522e-05
1.31483e-05
5.84931e-06
7.08762e-06
8.77811e-06
1.07455e-05
1.28055e-05
1.48217e-05
1.66974e-05
1.83829e-05
1.98871e-05
2.12661e-05
2.25867e-05
2.38838e-05
2.51552e-05
2.64148e-05
2.77546e-05
2.92344e-05
3.11477e-05
3.42867e-05
3.776e-05
4.1754e-05
4.74308e-05
5.37895e-05
5.82996e-05
5.99397e-05
5.94674e-05
5.7215e-05
5.33939e-05
4.82363e-05
4.16776e-05
3.35326e-05
2.37098e-05
1.07627e-05
1.02407e-05
2.64488e-05
3.58305e-05
3.59786e-05
3.04533e-05
2.37782e-05
1.82946e-05
1.43475e-05
1.16612e-05
9.99835e-06
9.17451e-06
8.98253e-06
9.19971e-06
9.63175e-06
1.01372e-05
1.06256e-05
1.10445e-05
1.1366e-05
1.15767e-05
1.16716e-05
1.16511e-05
1.15188e-05
1.1281e-05
1.09464e-05
1.05266e-05
1.00359e-05
9.49118e-06
8.91147e-06
8.31695e-06
7.72803e-06
7.16475e-06
6.64751e-06
6.19903e-06
5.84213e-06
5.6072e-06
5.54442e-06
5.69772e-06
6.06152e-06
6.63018e-06
7.77324e-06
1.03743e-05
1.60814e-05
2.74927e-05
4.22358e-05
5.43099e-05
6.03578e-05
6.04772e-05
5.60528e-05
4.92957e-05
4.32902e-05
4.22822e-05
5.22243e-05
6.52103e-05
6.79485e-05
5.92971e-05
4.7147e-05
3.74601e-05
3.04486e-05
2.43366e-05
1.84772e-05
1.31537e-05
9.28117e-06
7.00829e-06
6.81474e-06
6.91408e-06
8.09695e-06
1.20563e-05
1.31632e-05
5.33258e-06
6.37036e-06
7.73929e-06
9.33567e-06
1.10357e-05
1.27381e-05
1.4365e-05
1.58712e-05
1.72603e-05
1.85765e-05
1.9869e-05
2.11642e-05
2.24696e-05
2.38026e-05
2.52304e-05
2.68537e-05
2.87746e-05
3.15679e-05
3.53119e-05
3.94369e-05
4.46392e-05
4.97617e-05
5.39164e-05
5.61779e-05
5.60855e-05
5.37617e-05
4.9402e-05
4.32296e-05
3.53223e-05
2.6222e-05
1.47605e-05
4.18938e-06
2.20738e-05
3.6171e-05
4.03804e-05
3.64682e-05
2.94594e-05
2.29829e-05
1.80957e-05
1.45974e-05
1.21605e-05
1.05864e-05
9.73231e-06
9.44293e-06
9.54205e-06
9.86375e-06
1.02795e-05
1.07029e-05
1.1081e-05
1.13832e-05
1.15924e-05
1.16999e-05
1.17019e-05
1.15981e-05
1.13912e-05
1.10866e-05
1.0693e-05
1.02226e-05
9.69091e-06
9.11601e-06
8.518e-06
7.91789e-06
7.3369e-06
6.79717e-06
6.32408e-06
5.94364e-06
5.68737e-06
5.60706e-06
5.75674e-06
6.14641e-06
6.7532e-06
7.80792e-06
1.01429e-05
1.50913e-05
2.54327e-05
4.04575e-05
5.422e-05
6.22158e-05
6.38673e-05
6.0592e-05
5.48546e-05
4.96215e-05
4.96513e-05
5.92861e-05
6.86994e-05
6.69562e-05
5.62696e-05
4.50151e-05
3.69969e-05
3.08819e-05
2.49626e-05
1.90094e-05
1.35406e-05
9.55765e-06
7.18614e-06
6.83427e-06
6.86042e-06
7.9099e-06
1.19231e-05
1.31635e-05
4.87833e-06
5.75327e-06
6.87303e-06
8.17229e-06
9.56847e-06
1.09914e-05
1.23885e-05
1.3729e-05
1.50098e-05
1.62528e-05
1.74906e-05
1.87502e-05
2.00496e-05
2.14099e-05
2.28749e-05
2.45449e-05
2.65186e-05
2.90164e-05
3.24804e-05
3.66339e-05
4.17903e-05
4.71932e-05
5.067e-05
5.21546e-05
5.18357e-05
4.95027e-05
4.5074e-05
3.85601e-05
3.04707e-05
2.13587e-05
1.33447e-05
2.18101e-05
3.6508e-05
4.36934e-05
4.17858e-05
3.5039e-05
2.78759e-05
2.21646e-05
1.79444e-05
1.48385e-05
1.25979e-05
1.10931e-05
1.0222e-05
9.86065e-06
9.86293e-06
1.00875e-05
1.04209e-05
1.07832e-05
1.11225e-05
1.14061e-05
1.16142e-05
1.17344e-05
1.17593e-05
1.16848e-05
1.15096e-05
1.12358e-05
1.08692e-05
1.04194e-05
9.90044e-06
9.32946e-06
8.72637e-06
8.11273e-06
7.51099e-06
6.94501e-06
6.44277e-06
6.03394e-06
5.75199e-06
5.64954e-06
5.78912e-06
6.19801e-06
6.8536e-06
7.86417e-06
9.93677e-06
1.42158e-05
2.31937e-05
3.78701e-05
5.31466e-05
6.34339e-05
6.70899e-05
6.53526e-05
6.08263e-05
5.65608e-05
5.77133e-05
6.58754e-05
7.02335e-05
6.38469e-05
5.22513e-05
4.2878e-05
3.66133e-05
3.11582e-05
2.53153e-05
1.92879e-05
1.37531e-05
9.7347e-06
7.29779e-06
6.79565e-06
6.74926e-06
7.69289e-06
1.17555e-05
1.31509e-05
4.45589e-06
5.19137e-06
6.11073e-06
7.17403e-06
8.32813e-06
9.52481e-06
1.07262e-05
1.19085e-05
1.30679e-05
1.42204e-05
1.53918e-05
1.66045e-05
1.78751e-05
1.92251e-05
2.06897e-05
2.23448e-05
2.43141e-05
2.66635e-05
2.96761e-05
3.35084e-05
3.82242e-05
4.41022e-05
4.89809e-05
5.07378e-05
4.97225e-05
4.6771e-05
4.21801e-05
3.62089e-05
2.978e-05
2.51288e-05
2.88092e-05
3.95229e-05