/*--------------------------------*- C++ -*----------------------------------*\
| =========                 |                                                 |
| \\      /  F ield         | OpenFOAM: The Open Source CFD Toolbox           |
|  \\    /   O peration     | Version:  2.1.1                                 |
|   \\  /    A nd           | Web:      www.OpenFOAM.org                      |
|    \\/     M anipulation  |                                                 |
\*---------------------------------------------------------------------------*/
FoamFile
{
    version     2.0;
    format      ascii;
    class       volScalarField;
    location    "0.165";
    object      p;
}
// * * * * * * * * * * * * * * * * * * * * * * * * * * * * * * * * * * * * * //

dimensions      [0 2 -2 0 0 0 0];

internalField   nonuniform List<scalar> 
6820
(
7.89648
-9.94095
-12.9542
-13.1473
-13.3274
-13.2628
-13.2162
-13.2402
-13.3004
-13.3816
-13.4755
-13.5767
-13.6831
-13.7934
-13.9073
-14.0244
-14.1447
-14.2681
-14.3945
-14.5238
-14.6562
-14.7915
-14.9297
-15.0706
-15.2142
-15.3601
-15.5081
-15.6573
-15.8078
-15.9565
-16.1092
-16.2436
-16.422
1.21606
-9.75895
-12.6421
-12.9484
-13.2085
-13.24
-13.2301
-13.2653
-13.3272
-13.4055
-13.4954
-13.593
-13.6962
-13.8041
-13.9161
-14.0319
-14.1512
-14.2738
-14.3997
-14.5287
-14.6609
-14.7959
-14.9338
-15.0748
-15.2185
-15.3644
-15.5129
-15.6628
-15.814
-15.965
-16.1198
-16.2687
-16.4655
-1.49737
-8.32723
-11.6201
-12.3844
-12.8603
-13.0668
-13.1356
-13.2036
-13.2848
-13.3754
-13.4739
-13.578
-13.6862
-13.7977
-13.9121
-14.0295
-14.1497
-14.2729
-14.399
-14.528
-14.66
-14.795
-14.9329
-15.074
-15.2179
-15.3647
-15.5136
-15.6654
-15.82
-15.9765
-16.1386
-16.3021
-16.4866
-3.48154
-8.09866
-11.1968
-12.0623
-12.542
-12.8275
-12.9664
-13.0785
-13.1908
-13.3018
-13.4131
-13.5257
-13.6401
-13.7565
-13.8749
-13.9955
-14.1184
-14.2437
-14.3716
-14.5022
-14.6356
-14.7718
-14.911
-15.0534
-15.1991
-15.3481
-15.5008
-15.658
-15.8205
-15.9896
-16.1703
-16.368
-16.6008
-5.11563
-8.19762
-10.8034
-11.7131
-12.2284
-12.593
-12.802
-12.9535
-13.0902
-13.2177
-13.3404
-13.4617
-13.5826
-13.7037
-13.8257
-13.9491
-14.0742
-14.2011
-14.3303
-14.4617
-14.5958
-14.7326
-14.8726
-15.0161
-15.1635
-15.3154
-15.4726
-15.6365
-15.8096
-15.9951
-16.2002
-16.4355
-16.7233
-6.33658
-8.37684
-10.5507
-11.501
-12.0353
-12.4269
-12.6707
-12.8449
-12.9974
-13.1373
-13.2693
-13.3974
-13.5236
-13.649
-13.7743
-13.9
-14.0267
-14.1548
-14.2847
-14.4166
-14.5509
-14.6881
-14.8285
-14.9727
-15.1214
-15.2756
-15.4367
-15.6069
-15.7895
-15.9893
-16.2149
-16.4786
-16.8041
-7.28528
-8.66124
-10.4312
-11.3441
-11.8659
-12.2656
-12.5394
-12.7387
-12.909
-13.0621
-13.2036
-13.3384
-13.4696
-13.5986
-13.7265
-13.8542
-13.9823
-14.1114
-14.2419
-14.3741
-14.5086
-14.6457
-14.7862
-14.9306
-15.08
-15.2355
-15.3991
-15.5732
-15.7615
-15.9694
-16.2052
-16.4801
-16.814
-8.02892
-8.96503
-10.3775
-11.2257
-11.7358
-12.1369
-12.4292
-12.6455
-12.8275
-12.9897
-13.1383
-13.2786
-13.414
-13.5464
-13.6768
-13.8065
-13.936
-14.0659
-14.1968
-14.3292
-14.4635
-14.6004
-14.7405
-14.8846
-15.034
-15.1898
-15.3542
-15.5298
-15.7205
-15.9313
-16.1698
-16.4452
-16.7728
-8.61844
-9.26593
-10.3848
-11.1526
-11.6401
-12.0292
-12.3276
-12.5552
-12.7469
-12.9174
-13.073
-13.2188
-13.3585
-13.4941
-13.627
-13.7583
-13.8889
-14.0195
-14.1506
-14.2828
-14.4167
-14.5529
-14.6922
-14.8354
-14.9838
-15.1388
-15.3023
-15.4771
-15.6666
-15.8753
-16.1095
-16.3759
-16.685
-9.09168
-9.54827
-10.4296
-11.1085
-11.5668
-11.9398
-12.2388
-12.4739
-12.6726
-12.8494
-13.0102
-13.1602
-13.3032
-13.4413
-13.5761
-13.7087
-13.8401
-13.971
-14.102
-14.2337
-14.3668
-14.5019
-14.6398
-14.7814
-14.9279
-15.0807
-15.2417
-15.4132
-15.5983
-15.8005
-16.0248
-16.2755
-16.5592
-9.4755
-9.80434
-10.498
-11.0896
-11.5152
-11.8687
-12.1619
-12.3995
-12.6021
-12.7829
-12.9478
-13.1014
-13.2473
-13.3877
-13.5242
-13.658
-13.79
-13.921
-14.0517
-14.1826
-14.3145
-14.4481
-14.584
-14.7232
-14.8668
-15.0161
-15.1727
-15.3388
-15.5165
-15.7088
-15.9187
-16.1491
-16.4033
-9.78953
-10.0318
-10.5792
-11.089
-11.4794
-11.8111
-12.0948
-12.3315
-12.536
-12.7195
-12.8874
-13.0437
-13.1919
-13.334
-13.4717
-13.6062
-13.7385
-13.8692
-13.9992
-14.129
-14.2593
-14.3907
-14.5239
-14.66
-14.7997
-14.9442
-15.095
-15.2535
-15.4216
-15.601
-15.7937
-16.0009
-16.2239
-10.0481
-10.2306
-10.665
-11.1014
-11.4563
-11.7656
-12.0373
-12.2703
-12.4744
-12.6589
-12.8284
-12.9865
-13.1363
-13.2797
-13.4183
-13.5532
-13.6855
-13.8157
-13.9447
-14.073
-14.2012
-14.33
-14.4601
-14.5922
-14.7271
-14.8657
-15.0092
-15.1587
-15.3152
-15.4798
-15.6534
-15.8362
-16.0276
-10.2617
-10.4023
-10.7497
-11.1221
-11.4425
-11.7292
-11.9874
-12.2145
-12.4167
-12.6008
-12.7711
-12.9303
-13.0811
-13.2253
-13.3644
-13.4994
-13.6312
-13.7606
-13.8882
-14.0146
-14.1404
-14.2661
-14.3923
-14.5197
-14.649
-14.7808
-14.9159
-15.0549
-15.1986
-15.3472
-15.5008
-15.6589
-15.8199
-10.4383
-10.5488
-10.8294
-11.1471
-11.4351
-11.7
-11.9441
-12.1639
-12.3627
-12.5454
-12.7154
-12.8749
-13.0262
-13.1707
-13.3099
-13.4446
-13.5757
-13.704
-13.8299
-13.954
-14.0769
-14.199
-14.3209
-14.4431
-14.566
-14.6902
-14.816
-14.9438
-15.0738
-15.2059
-15.3395
-15.4735
-15.606
-10.5835
-10.6722
-10.9015
-11.1733
-11.4316
-11.6759
-11.9058
-12.1174
-12.3118
-12.4923
-12.6612
-12.8205
-12.9716
-13.1161
-13.255
-13.3891
-13.5193
-13.646
-13.7699
-13.8914
-14.0111
-14.1292
-14.2463
-14.3627
-14.4786
-14.5945
-14.7105
-14.8266
-14.9427
-15.0582
-15.1723
-15.2836
-15.3898
-10.702
-10.7744
-10.9643
-11.1981
-11.4297
-11.6548
-11.8712
-12.0742
-12.2635
-12.4411
-12.6085
-12.7669
-12.9176
-13.0616
-13.1998
-13.3331
-13.4619
-13.5869
-13.7085
-13.8271
-13.9432
-14.057
-14.1689
-14.2791
-14.3878
-14.4951
-14.601
-14.7052
-14.8074
-14.9069
-15.0024
-15.0927
-15.1754
-10.7968
-10.8571
-11.0166
-11.2192
-11.4275
-11.6353
-11.8388
-12.0333
-12.2173
-12.3916
-12.557
-12.7141
-12.8639
-13.0072
-13.1445
-13.2766
-13.4039
-13.5269
-13.6459
-13.7614
-13.8736
-13.9828
-14.0892
-14.1929
-14.2941
-14.3926
-14.4883
-14.5808
-14.6695
-14.7537
-14.8321
-14.9034
-14.9652
-10.8707
-10.9217
-11.0577
-11.2351
-11.4234
-11.6157
-11.8075
-11.9939
-12.1725
-12.3434
-12.5065
-12.6622
-12.8109
-12.9532
-13.0894
-13.2201
-13.3457
-13.4664
-13.5827
-13.6948
-13.803
-13.9074
-14.0082
-14.1053
-14.1989
-14.2886
-14.3744
-14.4556
-14.5316
-14.6016
-14.6644
-14.7187
-14.7625
-10.9252
-10.9693
-11.0872
-11.2443
-11.4158
-11.5947
-11.7761
-11.955
-12.1286
-12.296
-12.4568
-12.6109
-12.7584
-12.8994
-13.0344
-13.1636
-13.2872
-13.4056
-13.519
-13.6276
-13.7315
-13.831
-13.926
-14.0165
-14.1025
-14.1837
-14.2598
-14.3302
-14.3944
-14.4514
-14.5002
-14.5397
-14.5681
-10.9618
-11.0005
-11.1047
-11.2458
-11.4034
-11.571
-11.7435
-11.9158
-12.0848
-12.2491
-12.4078
-12.5604
-12.7066
-12.8465
-12.9802
-13.1078
-13.2295
-13.3454
-13.4558
-13.5609
-13.6606
-13.7551
-13.8445
-13.9285
-14.0072
-14.0802
-14.1472
-14.2076
-14.261
-14.3064
-14.3429
-14.3697
-14.3851
-10.9812
-11.016
-11.1097
-11.2384
-11.385
-11.5434
-11.7086
-11.8754
-12.0406
-12.2022
-12.359
-12.5102
-12.6553
-12.794
-12.9263
-13.0523
-13.1719
-13.2854
-13.3927
-13.4941
-13.5896
-13.6792
-13.7629
-13.8407
-13.9122
-13.9774
-14.0359
-14.0872
-14.1307
-14.1658
-14.1916
-14.2076
-14.2123
-10.9839
-11.0157
-11.1018
-11.2214
-11.3596
-11.511
-11.6706
-11.8333
-11.9956
-12.1552
-12.3108
-12.461
-12.6052
-12.743
-12.8743
-12.9988
-13.1166
-13.2277
-13.3321
-13.43
-13.5214
-13.6063
-13.6847
-13.7564
-13.8214
-13.8794
-13.9301
-13.9731
-14.0079
-14.0341
-14.0509
-14.0579
-14.054
-10.9699
-10.9997
-11.0806
-11.1938
-11.3261
-11.4726
-11.6284
-11.7883
-11.9488
-12.1073
-12.262
-12.4117
-12.5553
-12.6924
-12.8226
-12.9457
-13.0616
-13.1703
-13.2719
-13.3663
-13.4537
-13.5339
-13.6071
-13.6731
-13.7319
-13.7831
-13.8267
-13.8622
-13.8894
-13.9078
-13.917
-13.9165
-13.9058
-10.9389
-10.9675
-11.0452
-11.1546
-11.2836
-11.4276
-11.5816
-11.7406
-11.9007
-12.0593
-12.2143
-12.3643
-12.5081
-12.6451
-12.7748
-12.897
-13.0114
-13.1181
-13.2171
-13.3084
-13.3921
-13.4681
-13.5366
-13.5973
-13.6504
-13.6957
-13.7329
-13.7619
-13.7825
-13.7944
-13.7972
-13.7908
-13.7746
-10.89
-10.9182
-10.9947
-11.1028
-11.2309
-11.3745
-11.5287
-11.6882
-11.8492
-12.0089
-12.1649
-12.3157
-12.4601
-12.5972
-12.7265
-12.8478
-12.9609
-13.0656
-13.1621
-13.2503
-13.3304
-13.4024
-13.4663
-13.5221
-13.5699
-13.6096
-13.6411
-13.6643
-13.6792
-13.6855
-13.683
-13.6719
-13.6517
-10.8222
-10.8506
-10.928
-11.0375
-11.1675
-11.3135
-11.4706
-11.6333
-11.7975
-11.9602
-12.119
-12.2721
-12.4183
-12.5566
-12.6865
-12.8076
-12.9199
-13.0232
-13.1177
-13.2033
-13.2802
-13.3485
-13.4084
-13.4598
-13.5029
-13.5377
-13.5642
-13.5825
-13.5925
-13.5941
-13.5874
-13.5725
-13.5491
-10.7336
-10.7631
-10.8432
-10.9565
-11.0908
-11.2415
-11.4032
-11.5705
-11.7391
-11.9058
-12.0681
-12.2241
-12.3724
-12.5123
-12.643
-12.7643
-12.876
-12.978
-13.0706
-13.1538
-13.2277
-13.2926
-13.3486
-13.3959
-13.4346
-13.465
-13.487
-13.5008
-13.5065
-13.5042
-13.494
-13.4761
-13.4506
-10.6219
-10.6534
-10.7391
-10.86
-11.0027
-11.1624
-11.3332
-11.5092
-11.6857
-11.8595
-12.0278
-12.1887
-12.341
-12.4836
-12.6162
-12.7383
-12.8501
-12.9514
-13.0425
-13.1236
-13.1949
-13.2567
-13.3093
-13.3529
-13.3877
-13.414
-13.432
-13.442
-13.444
-13.4383
-13.4252
-13.4048
-13.3772
-10.4837
-10.518
-10.6113
-10.7419
-10.8948
-11.0648
-11.2459
-11.4316
-11.6171
-11.7989
-11.9742
-12.1411
-12.2981
-12.4444
-12.5795
-12.7032
-12.8154
-12.9164
-13.0064
-13.0857
-13.1547
-13.2137
-13.2631
-13.3032
-13.3344
-13.357
-13.3713
-13.3777
-13.3765
-13.3679
-13.3523
-13.33
-13.3014
-10.3148
-10.3544
-10.4611
-10.6093
-10.7809
-10.9696
-11.1683
-11.3699
-11.5692
-11.7627
-11.9478
-12.1224
-12.2855
-12.4362
-12.5744
-12.6999
-12.8129
-12.9137
-13.0026
-13.0802
-13.1469
-13.2032
-13.2495
-13.2863
-13.314
-13.3331
-13.3439
-13.3469
-13.3425
-13.3311
-13.3129
-13.2885
-13.258
-10.1081
-10.1523
-10.2728
-10.4379
-10.6268
-10.8335
-11.0505
-11.2696
-11.4851
-11.6931
-11.8907
-12.0759
-12.2475
-12.4049
-12.548
-12.6767
-12.7916
-12.893
-12.9816
-13.058
-13.1227
-13.1765
-13.22
-13.2536
-13.2781
-13.2938
-13.3014
-13.3013
-13.294
-13.2801
-13.2599
-13.234
-13.2028
-9.85846
-9.91718
-10.0702
-10.273
-10.4973
-10.7358
-10.9806
-11.223
-11.4577
-11.6815
-11.8918
-12.0871
-12.2664
-12.4296
-12.5766
-12.7079
-12.8239
-12.9254
-13.0131
-13.0878
-13.1502
-13.2012
-13.2413
-13.2714
-13.2922
-13.3041
-13.3079
-13.3042
-13.2934
-13.2761
-13.2528
-13.2241
-13.1903
-9.54388
-9.60502
-9.77793
-10.0072
-10.2617
-10.5348
-10.815
-11.0904
-11.3546
-11.6038
-11.8353
-12.0476
-12.2403
-12.4134
-12.5675
-12.7034
-12.8222
-12.9248
-13.0123
-13.0857
-13.1462
-13.1946
-13.2319
-13.2589
-13.2763
-13.285
-13.2855
-13.2786
-13.2649
-13.2449
-13.2195
-13.1891
-13.1544
-9.17474
-9.29102
-9.54926
-9.84945
-10.1548
-10.4682
-10.7809
-11.0824
-11.368
-11.6351
-11.8814
-12.1058
-12.308
-12.4883
-12.6476
-12.7866
-12.9067
-13.0091
-13.0952
-13.1661
-13.2232
-13.2675
-13.3002
-13.3223
-13.3346
-13.3381
-13.3334
-13.3213
-13.3025
-13.2776
-13.2473
-13.2122
-13.173
-8.6388
-8.72892
-9.02468
-9.39241
-9.77835
-10.175
-10.5619
-10.9251
-11.261
-11.5677
-11.844
-12.0905
-12.3085
-12.4998
-12.6661
-12.8094
-12.9315
-13.0343
-13.1196
-13.1888
-13.2436
-13.2852
-13.3149
-13.3337
-13.3428
-13.3429
-13.3348
-13.3194
-13.2972
-13.269
-13.2355
-13.1976
-13.1562
-8.13762
-8.45906
-8.92433
-9.33931
-9.74449
-10.167
-10.5786
-10.9657
-11.3267
-11.658
-11.9564
-12.2216
-12.4544
-12.6563
-12.8293
-12.9757
-13.098
-13.1984
-13.2792
-13.3425
-13.3903
-13.4241
-13.4456
-13.4561
-13.4568
-13.4486
-13.4324
-13.4089
-13.3787
-13.3424
-13.3003
-13.2535
-13.2022
-6.8307
-7.15133
-7.92175
-8.61748
-9.24886
-9.84895
-10.3857
-10.859
-11.2791
-11.6499
-11.9747
-12.2579
-12.5031
-12.7139
-12.8933
-13.0442
-13.1694
-13.2715
-13.3528
-13.4156
-13.462
-13.4938
-13.5127
-13.5202
-13.5176
-13.5058
-13.4858
-13.4582
-13.4232
-13.3812
-13.3316
-13.2759
-13.2097
-6.81486
-7.5588
-8.16045
-8.62346
-9.21857
-9.84613
-10.4295
-10.9711
-11.4646
-11.8996
-12.2751
-12.5946
-12.8623
-13.0832
-13.2624
-13.4054
-13.5169
-13.6014
-13.6628
-13.7044
-13.7294
-13.7401
-13.7388
-13.7273
-13.7071
-13.6794
-13.6452
-13.6049
-13.5586
-13.5054
-13.4425
-13.3671
-13.2651
-0.560111
-5.16744
-6.94904
-7.79604
-8.79354
-9.66382
-10.3574
-10.957
-11.4791
-11.924
-12.3007
-12.6174
-12.8806
-13.0965
-13.2711
-13.4099
-13.5178
-13.599
-13.6576
-13.6968
-13.7195
-13.7284
-13.7254
-13.7125
-13.6912
-13.6628
-13.6285
-13.5891
-13.5458
-13.4982
-13.4492
-13.3939
-13.3438
-16.3828
-16.8305
-19.2213
-22.711
-27.1079
-31.7702
-35.6569
-37.9149
-38.2386
-36.7991
-33.5229
-27.9844
-20.3422
-12.1013
-5.03078
0.165599
3.72279
5.7968
6.45899
5.84231
3.78143
0.311675
-4.61343
-11.0608
-18.9659
-28.0406
-37.7368
-47.2514
-55.5511
-61.5938
-64.5869
-63.9768
-60.017
-53.7249
-46.8629
-40.9487
-36.6985
-33.9941
-32.2912
-31.0406
-29.8597
-28.5259
-26.9258
-25.018
-22.8145
-20.3691
-17.7658
-15.1058
-12.4927
-10.0201
-7.76181
-5.76717
-4.06035
-2.64347
-1.50168
-0.608808
0.0674425
0.56137
0.906276
1.13255
1.26667
1.3308
1.34299
1.31747
1.26516
1.19391
1.1087
1.0118
0.902121
0.774541
0.620845
0.427454
0.166952
-0.232135
-0.988325
-2.60886
-5.9
-11.6436
-19.9911
-29.7548
-38.391
-43.0553
-42.2077
-35.6903
-25.6542
-15.5312
-8.04735
-3.74648
-1.63607
-0.634429
-0.1227
0.149974
0.291363
0.350565
0.387939
0.391742
0.418617
0.374771
0.35531
0.242525
-16.5971
-17.0425
-19.244
-22.6086
-26.7145
-30.9673
-34.476
-36.3983
-36.4103
-34.6018
-30.9649
-25.3892
-18.3039
-10.9833
-4.69326
0.0575588
3.44552
5.6007
6.44678
6.0264
4.15647
0.747857
-4.22831
-10.828
-18.9697
-28.3331
-38.321
-48.0708
-56.4936
-62.5324
-65.4164
-64.6495
-60.5137
-54.0445
-47.0339
-41.0068
-36.6539
-33.8306
-31.9969
-30.6274
-29.361
-27.9845
-26.385
-24.5168
-22.3854
-20.0364
-17.5443
-14.9998
-12.4971
-10.1218
-7.94285
-6.00728
-4.33954
-2.9438
-1.80827
-0.91022
-0.220592
0.292074
0.658793
0.908228
1.0656
1.15224
1.18562
1.1796
1.14485
1.08903
1.01693
0.930743
0.829379
0.707758
0.557458
0.365277
0.105676
-0.285211
-1.00623
-2.5326
-5.62905
-11.0423
-18.9199
-28.1383
-36.3009
-40.7196
-39.962
-33.838
-24.377
-14.8428
-7.80082
-3.73131
-1.69797
-0.704882
-0.18487
0.0978068
0.248016
0.318675
0.361525
0.380078
0.397881
0.386518
0.314782
0.313057
-16.7303
-17.4678
-19.5685
-22.654
-26.3291
-30.0357
-32.9214
-34.3237
-33.9361
-31.8086
-28.0366
-22.7477
-16.4342
-10.0487
-4.47816
-0.132302
3.05956
5.21525
6.19585
5.94027
4.26997
0.978208
-3.99088
-10.6768
-18.9796
-28.5437
-38.7207
-48.5901
-57.0199
-62.9628
-65.6886
-64.7807
-60.5012
-53.939
-46.8872
-40.8507
-36.4752
-33.5874
-31.6592
-30.1964
-28.8616
-27.4525
-25.8579
-24.0298
-21.9684
-19.7124
-17.3272
-14.894
-12.4981
-10.2177
-8.1168
-6.24022
-4.61241
-3.23925
-2.11172
-1.21023
-0.508808
0.0212811
0.408808
0.680696
0.860892
0.969833
1.02437
1.03795
1.02093
0.980765
0.922098
0.846983
0.754353
0.639202
0.492986
0.302808
0.0445907
-0.338943
-1.02639
-2.45691
-5.34863
-10.4104
-17.7873
-26.4277
-34.0921
-38.2569
-37.5903
-31.8787
-23.0291
-14.1236
-7.5482
-3.71733
-1.76067
-0.774975
-0.246431
0.0458932
0.204392
0.286334
0.33458
0.367793
0.376336
0.397078
0.273772
0.379916
-16.979
-17.8287
-19.6837
-22.37
-25.4762
-28.4821
-30.7143
-31.6102
-30.9131
-28.6937
-25.1162
-20.3764
-14.8852
-9.3326
-4.38064
-0.391141
2.60243
4.69229
5.74688
5.61854
4.12391
0.992748
-3.90349
-10.596
-18.9643
-28.6165
-38.8556
-48.7134
-57.0355
-62.8072
-65.3366
-64.3029
-59.9324
-53.3768
-46.4063
-40.4741
-36.1599
-33.2626
-31.2764
-29.7449
-28.3582
-26.9262
-25.3413
-23.5544
-21.5619
-19.396
-17.114
-14.7884
-12.4958
-10.3079
-8.28388
-6.46618
-4.87905
-3.52983
-2.41196
-1.50873
-0.797078
-0.250881
0.156432
0.450051
0.652619
0.783635
0.859291
0.892564
0.893477
0.86926
0.824372
0.760731
0.677293
0.569171
0.427724
0.240287
-0.0157959
-0.391693
-1.04554
-2.37765
-5.05534
-9.74696
-16.5978
-24.6359
-31.7873
-35.6963
-35.1247
-29.8443
-21.638
-13.3922
-7.29864
-3.70739
-1.82469
-0.844881
-0.307698
-0.00606506
0.160429
0.253583
0.307181
0.35491
0.354215
0.406513
0.232854
0.443415
-17.1779
-18.0486
-19.6276
-21.8107
-24.252
-26.5349
-28.1425
-28.6433
-27.8445
-25.785
-22.5898
-18.4377
-13.6664
-8.80652
-4.38522
-0.723795
2.07647
4.0576
5.13506
5.09719
3.74427
0.795385
-3.96013
-10.5684
-18.891
-28.5024
-38.6645
-48.3761
-56.4835
-62.0178
-64.3225
-63.1756
-58.781
-52.3419
-45.5846
-39.8741
-35.7054
-32.8539
-30.8466
-29.272
-27.8499
-26.405
-24.8347
-23.0905
-21.1659
-19.0873
-16.905
-14.6831
-12.4907
-10.3929
-8.44437
-6.6853
-5.1395
-3.81549
-2.70886
-1.80555
-1.08521
-0.524231
-0.0981749
0.216423
0.440882
0.593722
0.690429
0.743477
0.762512
0.754506
0.72374
0.671994
0.59822
0.497685
0.361735
0.177876
-0.0752091
-0.443049
-1.06321
-2.29511
-4.7522
-9.06081
-15.3685
-22.789
-29.418
-33.0697
-32.5953
-27.7618
-20.226
-12.6639
-7.06021
-3.70561
-1.89287
-0.916976
-0.370437
-0.0591512
0.115598
0.220207
0.279283
0.341379
0.331568
0.414638
0.192278
0.503214
-17.2906
-18.1131
-19.4121
-21.1286
-23.0029
-24.7031
-25.8483
-26.1057
-25.2962
-23.4151
-20.561
-16.9004
-12.7199
-8.43999
-4.48651
-1.13904
1.47211
3.32664
4.38552
4.4074
3.16847
0.401392
-4.15378
-10.5806
-18.7341
-28.1645
-38.1041
-47.5361
-55.3293
-60.5672
-62.636
-61.3872
-57.0488
-50.8494
-44.4419
-39.0673
-35.122
-32.366
-30.3713
-28.7771
-27.3354
-25.887
-24.3365
-22.6368
-20.7795
-18.7861
-16.7001
-14.5784
-12.4829
-10.4728
-8.59855
-6.89781
-5.39391
-4.09627
-3.00238
-2.1006
-1.3731
-0.798649
-0.354899
-0.0200867
0.225766
0.400169
0.517858
0.590765
0.628123
0.63662
0.620338
0.580915
0.517288
0.424901
0.295176
0.115747
-0.133479
-0.493069
-1.08073
-2.21343
-4.44783
-8.36629
-14.1204
-20.9144
-27.0161
-30.4112
-30.0378
-25.6651
-18.8209
-11.9567
-6.84127
-3.71524
-1.96697
-0.99268
-0.435759
-0.114028
0.0696199
0.186114
0.2509
0.327192
0.308522
0.421358
0.152324
0.55888
-17.2922
-18.0438
-19.1265
-20.4892
-21.9315
-23.192
-23.9768
-24.0245
-23.1871
-21.4502
-18.8906
-15.653
-11.9781
-8.20275
-4.67182
-1.62899
0.789798
2.51423
3.51849
3.57726
2.43811
-0.155095
-4.46676
-10.6175
-18.4724
-27.5746
-37.1454
-46.1708
-53.5603
-58.4521
-60.2873
-58.9593
-54.7704
-48.9432
-43.0194
-38.0829
-34.4253
-31.8057
-29.8528
-28.2603
-26.8138
-25.3714
-23.846
-22.193
-20.4025
-18.4921
-16.4993
-14.4744
-12.4728
-10.5482
-8.74677
-7.10399
-5.64245
-4.37225
-3.29253
-2.39381
-1.66064
-1.07402
-0.613629
-0.259376
0.00736484
0.203061
0.341659
0.434504
0.490386
0.515675
0.514248
0.487595
0.434621
0.350959
0.228201
0.0540951
-0.19035
-0.541405
-1.09833
-2.1352
-4.14934
-7.67689
-12.8746
-19.0404
-24.6156
-27.7578
-27.49
-23.5894
-17.4511
-11.2876
-6.64916
-3.73926
-2.04905
-1.07395
-0.505282
-0.171769
0.0219776
0.151112
0.222019
0.312342
0.285216
0.426614
0.113291
0.610231
-17.2261
-17.897
-18.7918
-19.862
-20.9534
-21.8615
-22.3607
-22.2498
-21.4062
-19.8069
-17.5106
-14.6432
-11.4076
-8.07527
-4.92665
-2.17545
0.0446284
1.63747
2.55975
2.63267
1.58944
-0.828233
-4.86756
-10.662
-18.0944
-26.7218
-35.7809
-44.2826
-51.1904
-55.6969
-57.3078
-55.9496
-52.0201
-46.7
-41.3804
-36.9613
-33.6356
-31.1817
-29.2943
-27.7222
-26.2845
-24.8574
-23.3624
-21.7583
-20.0345
-18.2052
-16.3027
-14.3714
-12.4608
-10.6193
-8.88943
-7.30417
-5.88536
-4.64358
-3.57936
-2.6852
-1.94779
-1.35029
-0.87429
-0.501364
-0.21424
0.00248171
0.161921
0.274798
0.349419
0.391813
0.405629
0.392203
0.350402
0.276045
0.160991
-0.00687082
-0.245571
-0.587697
-1.11601
-2.06245
-3.86342
-7.00628
-11.6528
-17.197
-22.2528
-25.1487
-24.9924
-21.5728
-16.1458
-10.6729
-6.48996
-3.77981
-2.14064
-1.16232
-0.580239
-0.233104
-0.0276345
0.115101
0.192668
0.296849
0.26181
0.430378
0.0754572
0.657139
-17.0995
-17.6831
-18.4143
-19.2472
-20.0617
-20.697
-20.9778
-20.747
-19.9048
-18.429
-16.3675
-13.8275
-10.9775
-8.03715
-5.23614
-2.76177
-0.744272
0.714445
1.54322
1.60428
0.652067
-1.57685
-5.31644
-10.6929
-17.6012
-25.6236
-34.0381
-41.9079
-48.2662
-52.3647
-53.7766
-52.4677
-48.9151
-44.2267
-39.6035
-35.7465
-32.7737
-30.5033
-28.6994
-27.1638
-25.7475
-24.3444
-22.8851
-21.3323
-19.6752
-17.9252
-16.1104
-14.2697
-12.4472
-10.6867
-9.02696
-7.49874
-6.12294
-4.91046
-3.86301
-2.97482
-2.23457
-1.62743
-1.13683
-0.745989
-0.438974
-0.201482
-0.0212569
0.111759
0.20535
0.265177
0.294639
0.294917
0.264832
0.200375
0.0937538
-0.0669254
-0.298881
-0.631578
-1.13361
-1.99694
-3.59659
-6.36859
-10.4782
-15.4154
-19.9647
-22.6242
-22.5872
-19.654
-14.9331
-10.1262
-6.36779
-3.83825
-2.24307
-1.25925
-0.661848
-0.298819
-0.079566
0.0779756
0.162893
0.280765
0.238492
0.432667
0.0390985
0.699529
-16.929
-17.4271
-18.0173
-18.6558
-19.2476
-19.667
-19.7778
-19.4585
-18.6303
-17.2733
-15.4254
-13.1763
-10.6659
-8.07353
-5.58913
-3.37598
-1.55994
-0.239404
0.496199
0.526864
-0.346724
-2.37473
-5.78235
-10.6895
-16.9992
-24.3221
-31.9899
-39.1415
-44.9018
-48.5893
-49.8429
-48.6726
-45.608
-41.6507
-37.7699
-34.4798
-31.8588
-29.7794
-28.0723
-26.5869
-25.2034
-23.8324
-22.4139
-20.9146
-19.3243
-17.6521
-15.9224
-14.1695
-12.4325
-10.7508
-9.15986
-7.68813
-6.35557
-5.17318
-4.14367
-3.26279
-2.52104
-1.90545
-1.40125
-0.993214
-0.666778
-0.408748
-0.207766
-0.0544782
0.0583421
0.135958
0.181492
0.195967
0.178157
0.12421
0.0267346
-0.125825
-0.350003
-0.672634
-1.15067
-1.93963
-3.35429
-5.7771
-9.37339
-13.7271
-17.7892
-20.2272
-20.3176
-17.8712
-13.8377
-9.65711
-6.28459
-3.91513
-2.35728
-1.36585
-0.75091
-0.369329
-0.133931
0.0397459
0.132806
0.264187
0.215484
0.433545
0.00447965
0.737399
-16.7257
-17.1422
-17.61
-18.0892
-18.5039
-18.7557
-18.739
-18.3595
-17.555
-16.3091
-14.6529
-12.6618
-10.4517
-8.16987
-5.97411
-4.00642
-2.38621
-1.20647
-0.561815
-0.566943
-1.37807
-3.20644
-6.25821
-10.6501
-16.3032
-22.8662
-29.7307
-36.1219
-41.2659
-44.5459
-45.6816
-44.7456
-42.274
-39.1007
-35.9501
-33.1942
-30.907
-29.0186
-27.4175
-25.9938
-24.653
-23.3216
-21.9487
-20.5051
-18.9815
-17.3858
-15.7389
-14.0711
-12.417
-10.8122
-9.28865
-7.87286
-6.58369
-5.43211
-4.42163
-3.54932
-2.80733
-2.18445
-1.66758
-1.24304
-0.89761
-0.619237
-0.397491
-0.223764
-0.091424
0.00436652
0.0664263
0.0956123
0.0906552
0.0478465
-0.0397788
-0.183302
-0.39864
-0.710438
-1.16643
-1.89048
-3.14014
-5.24304
-8.35968
-12.1626
-15.7638
-18.0001
-18.2266
-16.2591
-12.8787
-9.27049
-6.24013
-4.01043
-2.48402
-1.48291
-0.847919
-0.44486
-0.190739
0.000492368
0.102577
0.247271
0.193042
0.433126
-0.0281449
0.770799
-16.4991
-16.8404
-17.2035
-17.5526
-17.8269
-17.9492
-17.8373
-17.4187
-16.6453
-15.5046
-14.0225
-12.2619
-10.3188
-8.31467
-6.38158
-4.64313
-3.20985
-2.16944
-1.61452
-1.65301
-2.41314
-4.05743
-6.7552
-10.6093
-15.5633
-21.322
-27.3521
-32.9718
-37.4998
-40.3906
-41.4968
-40.9097
-39.0967
-36.6839
-34.1933
-31.9125
-29.9312
-28.2292
-26.7404
-25.3875
-24.0979
-22.8126
-21.4894
-20.1034
-18.6469
-17.1264
-15.5602
-13.9748
-12.4013
-10.8713
-9.41394
-8.0535
-6.80781
-5.68769
-4.69724
-3.8347
-3.09368
-2.46458
-1.93591
-1.4955
-1.13146
-0.832882
-0.590313
-0.395929
-0.243733
-0.12934
-0.0502672
-0.00583283
0.00265695
-0.0283681
-0.105446
-0.23906
-0.444483
-0.744564
-1.17995
-1.84842
-2.95545
-4.77434
-7.455
-10.7498
-13.9243
-15.983
-16.3531
-14.8454
-12.0662
-8.96565
-6.23243
-4.12397
-2.62392
-1.61087
-0.952919
-0.525196
-0.249749
-0.0395604
0.0724648
0.230238
0.171466
0.431576
-0.058529
0.799819
-16.2577
-16.5309
-16.8049
-17.0481
-17.2118
-17.2353
-17.055
-16.6152
-15.8791
-14.8378
-13.5135
-11.9585
-10.2527
-8.49707
-6.80242
-5.27641
-4.0189
-3.11297
-2.64585
-2.71482
-3.42885
-4.9102
-7.28302
-10.6221
-14.8805
-19.8222
-25.0077
-29.863
-33.8123
-36.4215
-37.5903
-37.4096
-36.2176
-34.4594
-32.522
-30.6478
-28.9423
-27.4196
-26.0465
-24.7711
-23.5397
-22.3061
-21.0362
-19.7098
-18.3203
-16.8738
-15.3863
-13.8812
-12.3859
-10.9289
-9.53637
-8.2307
-7.02855
-5.94047
-4.97098
-4.11931
-3.38038
-2.74607
-2.20641
-1.75069
-1.36833
-1.04963
-0.786108
-0.570785
-0.398339
-0.264868
-0.168257
-0.108009
-0.0854619
-0.104043
-0.169876
-0.292755
-0.487208
-0.774589
-1.19021
-1.81147
-2.79888
-4.37425
-6.67163
-9.51141
-12.302
-14.2107
-14.7272
-13.6452
-11.3999
-8.73707
-6.25875
-4.25577
-2.77764
-1.74992
-1.06562
-0.609829
-0.31057
-0.0800782
0.042816
0.213388
0.151094
0.429114
-0.0864301
0.824583
-16.0078
-16.2208
-16.4197
-16.5775
-16.6549
-16.6044
-16.3768
-15.9294
-15.2349
-14.2874
-13.1061
-11.7351
-10.241
-8.70775
-7.22888
-5.89806
-4.8042
-4.02498
-3.64109
-3.73829
-4.4086
-5.746
-7.83564
-10.7215
-14.3536
-18.5404
-22.9355
-27.0852
-30.535
-32.9443
-34.2085
-34.3761
-33.6772
-32.4317
-30.9389
-29.4087
-27.9506
-26.5985
-25.3417
-24.1484
-22.9804
-21.8031
-20.5897
-19.3242
-18.0019
-16.6283
-15.2176
-13.7905
-12.3714
-10.9855
-9.65663
-8.40515
-7.24658
-6.19107
-5.24343
-4.40366
-3.66786
-3.02927
-2.47933
-2.00875
-1.6083
-1.26944
-0.984751
-0.748125
-0.554958
-0.401875
-0.287152
-0.210494
-0.173263
-0.178733
-0.232619
-0.343988
-0.526473
-0.800099
-1.19617
-1.77698
-2.66644
-4.04031
-6.01344
-8.46057
-10.9182
-12.7055
-13.3626
-12.6573
-10.8688
-8.57616
-6.31668
-4.40656
-2.94596
-1.90004
-1.18549
-0.698076
-0.372629
-0.12059
0.0140771
0.197102
0.132311
0.426008
-0.111604
0.845222
-15.7556
-15.916
-16.0523
-16.1417
-16.1528
-16.0481
-15.7898
-15.3458
-14.6957
-13.8366
-12.7852
-11.5789
-10.2732
-8.93873
-7.65431
-6.50141
-5.55829
-4.89643
-4.58914
-4.71148
-5.34007
-6.54823
-8.39394
-10.8973
-14.0047
-17.557
-21.2821
-24.8319
-27.8543
-30.0735
-31.3789
-31.7808
-31.436
-30.5785
-29.442
-28.2031
-26.9658
-25.7738
-24.6317
-23.5228
-22.4221
-21.3045
-20.1501
-18.9469
-17.6917
-16.3899
-15.0543
-13.7031
-12.3581
-11.0418
-9.77548
-8.57766
-7.4627
-6.44026
-5.51527
-4.68838
-3.95667
-3.3146
-2.755
-2.26993
-1.85147
-1.49231
-1.18612
-0.92772
-0.713269
-0.539972
-0.406509
-0.312807
-0.260248
-0.251936
-0.293177
-0.392295
-0.561905
-0.8207
-1.19693
-1.74204
-2.55207
-3.76418
-5.47368
-7.59617
-9.77722
-11.4686
-12.2505
-11.8628
-10.4544
-8.47402
-6.40533
-4.57795
-3.12994
-2.06124
-1.31204
-0.789285
-0.43527
-0.160524
-0.0132109
0.181848
0.11555
0.422584
-0.133794
0.861866
-15.5052
-15.6205
-15.7053
-15.7406
-15.7015
-15.5586
-15.283
-14.8504
-14.2464
-13.4701
-12.5366
-11.4776
-10.3399
-9.18254
-8.07256
-7.08046
-6.27458
-5.71978
-5.4815
-5.62491
-6.21335
-7.30384
-8.93624
-11.1156
-13.7886
-16.8218
-19.9993
-23.0496
-25.6951
-27.7111
-28.995
-29.5375
-29.4428
-28.881
-28.0314
-27.0387
-25.9967
-24.9528
-23.9216
-22.8979
-21.8669
-20.8116
-19.7182
-18.5781
-17.3898
-16.1588
-14.8966
-13.6196
-12.3469
-11.0986
-9.89375
-8.7491
-7.6778
-6.68892
-5.78736
-4.97424
-4.24748
-3.60267
-3.03388
-2.53452
-2.098
-1.71825
-1.39009
-1.10932
-0.872911
-0.678707
-0.525811
-0.414386
-0.345838
-0.32308
-0.35099
-0.437152
-0.593078
-0.836023
-1.19173
-1.70392
-2.44858
-3.53283
-5.03472
-6.89943
-8.85937
-10.4745
-11.3586
-11.2292
-10.1361
-8.42425
-6.52605
-4.77257
-3.33106
-2.23382
-1.44489
-0.882862
-0.497785
-0.199202
-0.0384045
0.168185
0.101298
0.419218
-0.152739
0.874635
-15.2609
-15.3379
-15.3809
-15.3742
-15.2981
-15.1297
-14.8468
-14.4317
-13.8743
-13.1755
-12.349
-11.4217
-10.4333
-9.43353
-8.47929
-7.6314
-6.94912
-6.4905
-6.31321
-6.47318
-7.02256
-8.00525
-9.44823
-11.3479
-13.6534
-16.2534
-18.9742
-21.6011
-23.9133
-25.7294
-26.9586
-27.5814
-27.6639
-27.3274
-26.7076
-25.9213
-25.0502
-24.1417
-23.2165
-22.2772
-21.317
-20.3258
-19.2946
-18.2182
-17.0965
-15.9353
-14.745
-13.5404
-12.3383
-11.1566
-10.0123
-8.92043
-7.8929
-6.93807
-6.06069
-5.26218
-4.54117
-3.89421
-3.31657
-2.80297
-2.34815
-1.94734
-1.59655
-1.29265
-1.03348
-0.817567
-0.644472
-0.514602
-0.429386
-0.391525
-0.405445
-0.477979
-0.619502
-0.845698
-1.18
-1.66044
-2.349
-3.33095
-4.67092
-6.33535
-8.1214
-9.67437
-10.6384
-10.7207
-9.89711
-8.42497
-6.68249
-4.99405
-3.55146
-2.41857
-1.58383
-0.978309
-0.559439
-0.235842
-0.0607501
0.156776
0.090103
0.416342
-0.168167
0.883667
-15.0249
-15.0701
-15.0796
-15.041
-14.9386
-14.7546
-14.4723
-14.0789
-13.5679
-12.9412
-12.2115
-11.4018
-10.5458
-9.68567
-8.86962
-8.14986
-7.57772
-7.20435
-7.07995
-7.25209
-7.7634
-8.64746
-9.92176
-11.5775
-13.568
-15.8
-18.1337
-20.3985
-22.4186
-24.0482
-25.2066
-25.8687
-26.0737
-25.9068
-25.4695
-24.8546
-24.132
-23.3462
-22.5207
-21.6638
-20.7746
-19.8483
-18.8801
-17.8675
-16.8121
-15.7196
-14.5998
-13.4658
-12.3328
-11.2166
-10.1321
-9.09271
-8.10912
-7.18889
-6.33646
-5.55337
-4.83879
-4.19015
-3.60384
-3.07583
-2.60225
-2.17967
-1.80538
-1.47741
-1.1945
-0.955957
-0.761807
-0.612721
-0.51014
-0.456537
-0.455853
-0.514146
-0.640635
-0.849345
-1.16139
-1.61021
-2.24787
-3.14438
-4.35479
-5.86159
-7.50826
-9.01004
-10.0411
-10.3085
-9.72916
-8.47896
-6.88025
-5.24724
-3.79425
-2.61707
-1.72894
-1.07516
-0.61941
-0.269524
-0.0793635
0.148391
0.0825802
0.414445
-0.179821
0.889136
-14.8002
-14.8194
-14.8028
-14.7405
-14.6203
-14.4286
-14.1528
-13.784
-13.3181
-12.7584
-12.116
-11.4112
-10.6725
-9.93554
-9.24148
-8.63477
-8.15973
-7.86085
-7.78138
-7.9614
-8.43558
-9.22941
-10.3536
-11.7965
-13.516
-15.4344
-17.4388
-19.3935
-21.1581
-22.615
-23.6933
-24.3647
-24.6503
-24.6088
-24.3149
-23.8413
-23.2464
-22.5707
-21.8383
-21.0608
-20.2417
-19.3803
-18.4753
-17.5265
-16.5367
-15.5119
-14.4612
-13.3965
-12.3313
-11.2794
-10.2541
-9.26711
-8.32777
-7.44277
-6.61607
-5.84918
-5.14165
-4.49166
-3.89664
-3.35383
-2.86075
-2.41543
-2.01651
-1.66328
-1.35546
-1.09321
-0.877052
-0.707924
-0.58727
-0.517307
-0.501456
-0.544967
-0.655881
-0.846524
-1.13563
-1.55255
-2.14188
-2.96277
-4.06412
-5.44097
-6.9754
-8.43586
-9.53523
-9.97945
-9.6322
-8.59224
-7.12675
-5.53854
-4.06368
-2.83128
-1.88073
-1.17285
-0.676717
-0.299148
-0.0932044
0.143924
0.0794221
0.414081
-0.187455
0.891305
-14.5876
-14.5858
-14.5492
-14.47
-14.3389
-14.1455
-13.8805
-13.5378
-13.1155
-12.6173
-12.0536
-11.442
-10.8066
-10.1779
-9.59066
-9.08284
-8.69246
-8.4578
-8.41572
-8.59974
-9.03787
-9.74929
-10.74
-11.997
-13.4832
-15.1338
-16.8573
-18.5458
-20.0863
-21.3846
-22.3784
-23.0385