/*--------------------------------*- C++ -*----------------------------------*\
| =========                 |                                                 |
| \\      /  F ield         | OpenFOAM: The Open Source CFD Toolbox           |
|  \\    /   O peration     | Version:  2.1.1                                 |
|   \\  /    A nd           | Web:      www.OpenFOAM.org                      |
|    \\/     M anipulation  |                                                 |
\*---------------------------------------------------------------------------*/
FoamFile
{
    version     2.0;
    format      ascii;
    class       surfaceScalarField;
    location    "0.165";
    object      phi;
}
// * * * * * * * * * * * * * * * * * * * * * * * * * * * * * * * * * * * * * //

dimensions      [0 3 -1 0 0 0 0];

internalField   nonuniform List<scalar> 
13452
(
4.6e-05
2.24872e-05
2.96677e-05
1.63323e-05
2.11952e-05
8.47258e-06
1.72979e-05
3.89723e-06
1.56601e-05
1.63784e-06
1.48569e-05
8.03176e-07
1.43516e-05
5.05289e-07
1.39673e-05
3.84282e-07
1.36441e-05
3.23248e-07
1.33665e-05
2.77545e-07
1.31303e-05
2.36291e-07
1.29315e-05
1.98797e-07
1.2766e-05
1.65447e-07
1.26297e-05
1.36281e-07
1.25188e-05
1.10917e-07
1.243e-05
8.8767e-08
1.23608e-05
6.92349e-08
1.2309e-05
5.18105e-08
1.22729e-05
3.60851e-08
1.22511e-05
2.17836e-08
1.22426e-05
8.49096e-09
1.22463e-05
-3.63423e-09
1.22606e-05
-1.43141e-08
1.22845e-05
-2.39255e-08
1.23166e-05
-3.20388e-08
1.23548e-05
-3.82625e-08
1.23964e-05
-4.1581e-08
1.24372e-05
-4.07894e-08
1.24728e-05
-3.56448e-08
1.24887e-05
-1.58613e-08
1.24829e-05
5.79087e-09
1.23641e-05
1.18809e-07
8.36727e-08
1.22804e-05
7.4914e-05
1.80172e-05
7.04176e-05
2.08286e-05
6.33344e-05
1.55558e-05
5.66877e-05
1.0544e-05
5.15802e-05
6.74535e-06
4.79345e-05
4.44887e-06
4.53247e-05
3.11508e-06
4.34088e-05
2.30013e-06
4.1954e-05
1.7781e-06
4.08105e-05
1.42105e-06
3.98862e-05
1.16052e-06
3.91236e-05
9.6143e-07
3.8485e-05
8.04082e-07
3.79448e-05
6.76422e-07
3.74852e-05
5.70552e-07
3.7093e-05
4.81024e-07
3.67582e-05
4.03966e-07
3.64734e-05
3.36588e-07
3.62327e-05
2.76862e-07
3.60311e-05
2.23333e-07
3.58647e-05
1.74906e-07
3.573e-05
1.31101e-07
3.56241e-05
9.15785e-08
3.5544e-05
5.61836e-08
3.54867e-05
2.52303e-08
3.54495e-05
-1.03044e-09
3.54274e-05
-1.94914e-08
3.54159e-05
-2.93088e-08
3.54077e-05
-2.74513e-08
3.53954e-05
-3.59656e-09
3.53625e-05
3.87253e-08
3.53342e-05
1.47144e-07
2.8132e-07
3.51365e-05
7.85215e-05
1.19523e-05
8.23372e-05
1.70129e-05
8.29996e-05
1.48934e-05
8.14912e-05
1.20524e-05
7.89776e-05
9.25894e-06
7.63018e-05
7.1247e-06
7.37948e-05
5.62209e-06
7.15596e-05
4.53526e-06
6.96096e-05
3.72815e-06
6.79202e-05
3.11041e-06
6.64585e-05
2.62229e-06
6.51925e-05
2.22734e-06
6.40944e-05
1.90223e-06
6.31401e-05
1.63076e-06
6.23094e-05
1.40117e-06
6.15858e-05
1.20467e-06
6.09552e-05
1.03458e-06
6.0406e-05
8.85795e-07
5.99285e-05
7.54363e-07
5.95145e-05
6.37272e-07
5.91572e-05
5.32221e-07
5.88507e-05
4.37638e-07
5.85898e-05
3.52508e-07
5.83697e-05
2.76228e-07
5.81861e-05
2.08831e-07
5.8034e-05
1.51085e-07
5.79094e-05
1.0507e-07
5.78069e-05
7.32135e-08
5.77198e-05
5.96774e-08
5.76422e-05
7.39677e-08
5.75589e-05
1.22062e-07
5.74713e-05
2.34681e-07
4.27428e-07
5.73252e-05
7.81471e-05
8.33183e-06
8.19243e-05
1.32357e-05
8.46218e-05
1.21958e-05
8.62473e-05
1.04269e-05
8.69302e-05
8.57603e-06
8.70235e-05
7.03139e-06
8.67695e-05
5.87607e-06
8.63104e-05
4.99444e-06
8.57373e-05
4.3012e-06
8.5106e-05
3.74172e-06
8.4451e-05
3.27731e-06
8.3795e-05
2.88339e-06
8.31536e-05
2.54359e-06
8.25378e-05
2.24655e-06
8.19544e-05
1.98461e-06
8.14072e-05
1.7518e-06
8.08985e-05
1.54333e-06
8.04289e-05
1.35535e-06
7.99985e-05
1.18477e-06
7.96066e-05
1.02917e-06
7.92522e-05
8.8666e-07
7.89339e-05
7.55926e-07
7.86502e-05
6.36148e-07
7.83995e-05
5.2694e-07
7.81798e-05
4.28559e-07
7.79889e-05
3.41975e-07
7.78247e-05
2.69324e-07
7.76843e-05
2.13596e-07
7.75646e-05
1.79358e-07
7.74639e-05
1.74641e-07
7.73775e-05
2.08456e-07
7.73136e-05
2.98658e-07
4.67661e-07
7.72733e-05
7.89921e-05
5.99562e-06
8.15929e-05
1.06348e-05
8.35215e-05
1.02673e-05
8.49675e-05
8.98098e-06
8.59883e-05
7.5552e-06
8.67328e-05
6.2869e-06
8.73035e-05
5.3054e-06
8.77484e-05
4.5495e-06
8.80992e-05
3.95044e-06
8.83769e-05
3.46395e-06
8.85961e-05
3.05819e-06
8.87677e-05
2.71172e-06
8.89001e-05
2.41123e-06
8.89993e-05
2.14734e-06
8.90714e-05
1.91246e-06
8.91222e-05
1.70103e-06
8.91566e-05
1.50897e-06
8.91788e-05
1.3331e-06
8.91926e-05
1.17095e-06
8.92012e-05
1.02063e-06
8.92071e-05
8.80732e-07
8.92127e-05
7.50306e-07
8.922e-05
6.28852e-07
8.92307e-05
5.16286e-07
8.92462e-05
4.13069e-07
8.92678e-05
3.20308e-07
8.92972e-05
2.39986e-07
8.93359e-05
1.74869e-07
8.93863e-05
1.28934e-07
8.94529e-05
1.08037e-07
8.95422e-05
1.19226e-07
8.96694e-05
1.71404e-07
2.74208e-07
8.98629e-05
8.04637e-05
4.37783e-06
8.25074e-05
8.5911e-06
8.39957e-05
8.77898e-06
8.50579e-05
7.91878e-06
8.57839e-05
6.82921e-06
8.63021e-05
5.76864e-06
8.6714e-05
4.8935e-06
8.70668e-05
4.1967e-06
8.73837e-05
3.63352e-06
8.76764e-05
3.17131e-06
8.79498e-05
2.7848e-06
8.82064e-05
2.4551e-06
8.84485e-05
2.16913e-06
8.8678e-05
1.91779e-06
8.88962e-05
1.69431e-06
8.91038e-05
1.49344e-06
8.93016e-05
1.31112e-06
8.94906e-05
1.14417e-06
8.96714e-05
9.90099e-07
8.98451e-05
8.46987e-07
9.00124e-05
7.1339e-07
9.01744e-05
5.88299e-07
9.03321e-05
4.71116e-07
9.04868e-05
3.61628e-07
9.06398e-05
2.60064e-07
9.0793e-05
1.67158e-07
9.09487e-05
8.42056e-08
9.11105e-05
1.30735e-08
9.12833e-05
-4.37944e-08
9.14748e-05
-8.35246e-08
9.16975e-05
-1.03402e-07
9.19706e-05
-1.01713e-07
-8.12188e-08
9.2326e-05
8.22347e-05
3.24165e-06
8.38966e-05
6.92923e-06
8.51867e-05
7.48887e-06
8.61236e-05
6.98186e-06
8.67695e-05
6.18336e-06
8.72143e-05
5.32382e-06
8.75459e-05
4.56194e-06
8.78135e-05
3.9291e-06
8.80438e-05
3.40322e-06
8.82522e-05
2.96292e-06
8.84468e-05
2.59013e-06
8.86321e-05
2.2698e-06
8.88105e-05
1.99073e-06
8.89836e-05
1.74474e-06
8.91523e-05
1.52557e-06
8.93174e-05
1.32833e-06
8.94794e-05
1.14913e-06
8.96387e-05
9.84914e-07
8.97956e-05
8.33228e-07
8.99504e-05
6.9214e-07
9.01036e-05
5.60157e-07
9.02558e-05
4.36173e-07
9.04074e-05
3.19438e-07
9.05595e-05
2.09528e-07
9.07133e-05
1.06349e-07
9.08703e-05
1.01028e-08
9.10332e-05
-7.86903e-08
9.12055e-05
-1.59267e-07
9.13926e-05
-2.30857e-07
9.1602e-05
-2.92913e-07
9.18448e-05
-3.46191e-07
9.21369e-05
-3.93853e-07
-4.4448e-07
9.25002e-05
8.42172e-05
2.44e-06
8.55527e-05
5.59371e-06
8.66773e-05
6.36431e-06
8.75381e-05
6.12104e-06
8.81682e-05
5.55319e-06
8.86206e-05
4.87146e-06
8.89604e-05
4.22212e-06
8.92314e-05
3.65817e-06
8.9459e-05
3.17555e-06
8.96595e-05
2.76245e-06
8.98423e-05
2.40729e-06
9.00132e-05
2.09897e-06
9.01755e-05
1.82842e-06
9.03316e-05
1.58864e-06
9.0483e-05
1.3741e-06
9.0631e-05
1.18034e-06
9.07764e-05
1.00377e-06
9.09198e-05
8.41485e-07
9.10619e-05
6.91117e-07
9.12033e-05
5.50767e-07
9.13445e-05
4.18923e-07
9.14863e-05
2.94401e-07
9.16294e-05
1.76314e-07
9.17749e-05
6.40183e-08
9.19242e-05
-4.29252e-08
9.20791e-05
-1.44757e-07
9.2242e-05
-2.41632e-07
9.24166e-05
-3.33814e-07
9.26077e-05
-4.21964e-07
9.28222e-05
-5.07495e-07
9.30697e-05
-5.93623e-07
9.33623e-05
-6.86484e-07
-7.96407e-07
9.37142e-05
8.63726e-05
1.86614e-06
8.74434e-05
4.5229e-06
8.84173e-05
5.39037e-06
8.91982e-05
5.34019e-06
8.97991e-05
4.95232e-06
9.02506e-05
4.41997e-06
9.05998e-05
3.87289e-06
9.08832e-05
3.37474e-06
9.11234e-05
2.9354e-06
9.13348e-05
2.55101e-06
9.15268e-05
2.21529e-06
9.17051e-05
1.92067e-06
9.18734e-05
1.6601e-06
9.20343e-05
1.42776e-06
9.21896e-05
1.21885e-06
9.23405e-05
1.02941e-06
9.24881e-05
8.56118e-07
9.26334e-05
6.9626e-07
9.27769e-05
5.47579e-07
9.29195e-05
4.08215e-07
9.30617e-05
2.76638e-07
9.32045e-05
1.5159e-07
9.33488e-05
3.20459e-08
9.34957e-05
-8.2848e-08
9.36466e-05
-1.93823e-07
9.38034e-05
-3.01578e-07
9.39687e-05
-4.06922e-07
9.41458e-05
-5.10956e-07
9.43393e-05
-6.1542e-07
9.45549e-05
-7.23063e-07
9.47997e-05
-8.38491e-07
9.50824e-05
-9.69161e-07
-1.12489e-06
9.54109e-05
8.86681e-05
1.44807e-06
8.95268e-05
3.66416e-06
9.03672e-05
4.54996e-06
9.10725e-05
4.63488e-06
9.16398e-05
4.38508e-06
9.20841e-05
3.97566e-06
9.24373e-05
3.51963e-06
9.27287e-05
3.08343e-06
9.29775e-05
2.68653e-06
9.31972e-05
2.33136e-06
9.33965e-05
2.01595e-06
9.35813e-05
1.73586e-06
9.37555e-05
1.48597e-06
9.39215e-05
1.26167e-06
9.40815e-05
1.05892e-06
9.42366e-05
8.7424e-07
9.43881e-05
7.04634e-07
9.45368e-05
5.47573e-07
9.46835e-05
4.00907e-07
9.48289e-05
2.62815e-07
9.49738e-05
1.31748e-07
9.5119e-05
6.37399e-09
9.52655e-05
-1.14463e-07
9.54145e-05
-2.31817e-07
9.55674e-05
-3.46709e-07
9.5726e-05
-4.60228e-07
9.58928e-05
-5.73686e-07
9.60706e-05
-6.88806e-07
9.62632e-05
-8.08045e-07
9.64751e-05
-9.34908e-07
9.67111e-05
-1.07453e-06
9.69765e-05
-1.23453e-06
-1.42316e-06
9.72748e-05
9.10818e-05
1.13757e-06
9.17725e-05
2.97345e-06
9.24968e-05
3.82573e-06
9.31331e-05
3.99855e-06
9.36657e-05
3.8525e-06
9.40987e-05
3.54259e-06
9.44523e-05
3.16603e-06
9.47489e-05
2.7869e-06
9.50049e-05
2.43053e-06
9.5232e-05
2.10426e-06
9.54384e-05
1.80954e-06
9.56297e-05
1.54454e-06
9.58097e-05
1.30597e-06
9.5981e-05
1.09032e-06
9.61457e-05
8.94292e-07
9.6305e-05
7.1489e-07
9.64602e-05
5.49435e-07
9.66122e-05
3.95591e-07
9.67618e-05
2.51318e-07
9.69098e-05
1.14843e-07
9.70569e-05
-1.53919e-08
9.72041e-05
-1.40787e-07
9.73522e-05
-2.626e-07
9.75024e-05
-3.8206e-07
9.76562e-05
-5.00421e-07
9.7815e-05
-6.19069e-07
9.7981e-05
-7.39672e-07
9.81565e-05
-8.64345e-07
9.83444e-05
-9.95913e-07
9.85476e-05
-1.13814e-06
9.87692e-05
-1.29607e-06
9.90113e-05
-1.47671e-06
-1.6864e-06
9.92746e-05
9.36001e-05
9.02074e-07
9.41586e-05
2.41503e-06
9.4782e-05
3.20228e-06
9.53549e-05
3.42565e-06
9.58526e-05
3.35487e-06
9.62717e-05
3.12341e-06
9.66235e-05
2.81429e-06
9.69239e-05
2.48644e-06
9.71864e-05
2.16805e-06
9.74208e-05
1.86988e-06
9.76344e-05
1.59593e-06
9.78324e-05
1.3465e-06
9.80186e-05
1.11983e-06
9.81955e-05
9.13435e-07
9.8365e-05
7.24719e-07
9.85288e-05
5.51147e-07
9.86879e-05
3.90362e-07
9.88432e-05
2.40223e-07
9.89957e-05
9.88144e-08
9.91462e-05
-3.55871e-08
9.92953e-05
-1.64535e-07
9.9444e-05
-2.8946e-07
9.95931e-05
-4.11718e-07
9.97437e-05
-5.32658e-07
9.9897e-05
-6.53698e-07
0.000100054
-7.76418e-07
0.000100217
-9.02683e-07
0.000100388
-1.03478e-06
0.000100567
-1.17561e-06
0.000100758
-1.32882e-06
0.000100961
-1.49896e-06
0.000101176
-1.69203e-06
-1.91245e-06
0.000101402
9.62145e-05
7.19634e-07
9.66692e-05
1.96032e-06
9.72062e-05
2.6653e-06
9.77216e-05
2.9103e-06
9.81852e-05
2.89126e-06
9.85886e-05
2.71995e-06
9.89362e-05
2.46674e-06
9.92386e-05
2.18402e-06
9.95062e-05
1.90051e-06
9.9747e-05
1.62907e-06
9.99674e-05
1.37554e-06
0.000100172
1.14182e-06
0.000100364
9.27421e-07
0.000100547
7.30779e-07
0.000100722
5.4992e-07
0.00010089
3.82751e-07
0.000101053
2.27209e-07
0.000101212
8.13532e-08
0.000101368
-5.66162e-08
0.000101521
-1.88355e-07
0.000101671
-3.15395e-07
0.000101821
-4.39189e-07
0.000101971
-5.61141e-07
0.000102121
-6.82675e-07
0.000102272
-8.05293e-07
0.000102426
-9.30661e-07
0.000102584
-1.0607e-06
0.000102747
-1.19769e-06
0.000102916
-1.34436e-06
0.000103091
-1.50402e-06
0.000103273
-1.68047e-06
0.000103459
-1.87856e-06
-2.10097e-06
0.000103648
9.89201e-05
5.75291e-07
9.92937e-05
1.58671e-06
9.97572e-05
2.20178e-06
0.000100221
2.44676e-06
0.000100652
2.46027e-06
0.000101038
2.3334e-06
0.00010138
2.12523e-06
0.000101683
1.88125e-06
0.000101954
1.62907e-06
0.0001022
1.38257e-06
0.000102427
1.14876e-06
0.000102638
9.30665e-07
0.000102837
7.28803e-07
0.000103025
5.42359e-07
0.000103205
3.69903e-07
0.000103378
2.0973e-07
0.000103546
6.00551e-08
0.000103708
-8.08785e-08
0.000103866
-2.14744e-07
0.000104021
-3.43124e-07
0.000104173
-4.67516e-07
0.000104323
-5.89362e-07
0.000104472
-7.10078e-07
0.00010462
-8.31104e-07
0.000104769
-9.53956e-07
0.000104919
-1.08029e-06
0.00010507
-1.21196e-06
0.000105223
-1.35108e-06
0.000105379
-1.5001e-06
0.000105537
-1.66178e-06
0.000105696
-1.83913e-06
0.000105853
-2.03584e-06
-2.25315e-06
0.000106005
0.000101714
4.58748e-07
0.000102025
1.27648e-06
0.000102426
1.80011e-06
0.000102844
2.02933e-06
0.000103244
2.05985e-06
0.000103613
1.96407e-06
0.000103948
1.79102e-06
0.000104249
1.57948e-06
0.000104524
1.35489e-06
0.000104775
1.13128e-06
0.000105007
9.16219e-07
0.000105225
7.13458e-07
0.000105429
5.24238e-07
0.000105623
3.48336e-07
0.000105808
1.8477e-07
0.000105986
3.2172e-08
0.000106157
-1.10998e-07
0.000106322
-2.4632e-07
0.000106483
-3.75348e-07
0.000106639
-4.99583e-07
0.000106792
-6.2047e-07
0.000106942
-7.39415e-07
0.00010709
-8.57805e-07
0.000107236
-9.77048e-07
0.000107381
-1.09861e-06
0.000107525
-1.22405e-06
0.000107668
-1.35507e-06
0.00010781
-1.49353e-06
0.000107951
-1.64147e-06
0.000108091
-1.80109e-06
0.000108226
-1.97459e-06
0.000108355
-2.16459e-06
-2.3712e-06
0.000108473
0.000104596
3.62799e-07
0.000104857
1.01577e-06
0.000105207
1.45002e-06
0.000105584
1.65243e-06
0.000105956
1.68758e-06
0.000106309
1.61167e-06
0.000106635
1.46489e-06
0.000106935
1.27974e-06
0.000107211
1.07894e-06
0.000107466
8.7595e-07
0.000107704
6.78446e-07
0.000107927
4.90543e-07
0.000108137
3.13946e-07
0.000108336
1.48859e-07
0.000108526
-5.35319e-09
0.000108708
-1.49787e-07
0.000108883
-2.85773e-07
0.000109052
-4.14739e-07
0.000109214
-5.38122e-07
0.000109372
-6.57338e-07
0.000109525
-7.73762e-07
0.000109675
-8.8874e-07
0.000109821
-1.0036e-06
0.000109963
-1.11966e-06
0.000110103
-1.2383e-06
0.00011024
-1.36091e-06
0.000110374
-1.48899e-06
0.000110504
-1.62407e-06
0.00011063
-1.76776e-06
0.000110751
-1.9217e-06
0.000110864
-2.08734e-06
0.000110966
-2.26639e-06
-2.45814e-06
0.000111053
0.000107566
2.82312e-07
0.000107788
7.9378e-07
0.000108096
1.14258e-06
0.000108438
1.31069e-06
0.000108785
1.34073e-06
0.000109121
1.27536e-06
0.000109439
1.14704e-06
0.000109736
9.82644e-07
0.000110013
8.01886e-07
0.000110272
6.17179e-07
0.000110514
4.35923e-07
0.000110742
2.62287e-07
0.000110958
9.82023e-08
0.000111163
-5.58566e-08
0.000111358
-2.00283e-07
0.000111544
-3.35968e-07
0.000111722
-4.6408e-07
0.000111893
-5.8591e-07
0.000112058
-7.02791e-07
0.000112217
-8.16049e-07
0.00011237
-9.26978e-07
0.000112518
-1.03684e-06
0.000112661
-1.14688e-06
0.0001128
-1.25831e-06
0.000112934
-1.37234e-06
0.000113063
-1.4902e-06
0.000113187
-1.61312e-06
0.000113306
-1.7423e-06
0.000113417
-1.87892e-06
0.000113519
-2.02409e-06
0.000113611
-2.17863e-06
0.000113688
-2.34351e-06
-2.51742e-06
0.000113747
0.000110626
2.13549e-07
0.000110817
6.0202e-07
0.00011109
8.70066e-07
0.000111402
9.99014e-07
0.000111726
1.01634e-06
0.000112048
9.53824e-07
0.000112357
8.37228e-07
0.000112652
6.88429e-07
0.000112929
5.24136e-07
0.000113191
3.55386e-07
0.000113438
1.89004e-07
0.000113671
2.89611e-08
0.000113892
-1.22787e-07
0.000114102
-2.65645e-07
0.000114302
-3.99869e-07
0.000114492
-5.26217e-07
0.000114674
-6.45734e-07
0.000114847
-7.59608e-07
0.000115014
-8.69077e-07
0.000115173
-9.75378e-07
0.000115326
-1.07972e-06
0.000115472
-1.18327e-06
0.000115612
-1.28715e-06
0.000115747
-1.39246e-06
0.000115874
-1.50024e-06
0.000115996
-1.6115e-06
0.00011611
-1.7272e-06
0.000116216
-1.84823e-06
0.000116312
-1.97537e-06
0.000116397
-2.10926e-06
0.000116469
-2.25022e-06
0.000116524
-2.39862e-06
-2.55282e-06
0.000116559
0.000113775
1.53723e-07
0.000113944
4.33799e-07
0.000114188
6.25803e-07
0.000114474
7.12556e-07
0.000114779
7.11345e-07
0.000115088
6.45359e-07
0.00011539
5.34711e-07
0.000115682
3.96902e-07
0.00011596
2.45741e-07
0.000116225
9.07112e-08
0.000116476
-6.21637e-08
0.000116714
-2.09309e-07
0.00011694
-3.48919e-07
0.000117155
-4.80421e-07
0.000117359
-6.04028e-07
0.000117554
-7.20436e-07
0.000117738
-8.30617e-07
0.000117915
-9.35681e-07
0.000118082
-1.03679e-06
0.000118242
-1.1351e-06
0.000118394
-1.23172e-06
0.000118538
-1.32773e-06
0.000118675
-1.42413e-06
0.000118805
-1.52186e-06
0.000118926
-1.6218e-06
0.00011904
-1.72474e-06
0.000119144
-1.83139e-06
0.000119238
-1.94233e-06
0.00011932
-2.05801e-06
0.00011939
-2.17867e-06
0.000119444
-2.30424e-06
0.00011948
-2.43468e-06
-2.56813e-06
0.000119495
0.000117017
1.00698e-07
0.000117167
2.83752e-07
0.000117389
4.04023e-07
0.000117655
4.4676e-07
0.000117944
4.2253e-07
0.000118241
3.47934e-07
0.000118538
2.38343e-07
0.000118827
1.07476e-07
0.000119106
-3.35718e-08
0.000119374
-1.76957e-07
0.000119629
-3.17612e-07
0.000119873
-4.52519e-07
0.000120104
-5.80175e-07
0.000120324
-7.00147e-07
0.000120532
-8.12703e-07
0.00012073
-9.18542e-07
0.000120918
-1.01861e-06
0.000121097
-1.11398e-06
0.000121266
-1.20574e-06
0.000121426
-1.29499e-06
0.000121577
-1.38275e-06
0.000121719
-1.46999e-06
0.000121852
-1.5576e-06
0.000121977
-1.64637e-06
0.000122092
-1.73699e-06
0.000122197
-1.83007e-06
0.000122292
-1.92608e-06
0.000122375
-2.02534e-06
0.000122445
-2.12801e-06
0.0001225
-2.23403e-06
0.000122539
-2.34307e-06
0.000122559
-2.45477e-06
-2.56722e-06
0.000122558
0.000120354
5.27891e-08
0.00012049
1.47503e-07
0.000120695
1.99682e-07
0.000120944
1.97298e-07
0.00012122
1.46593e-07
0.000121509
5.91946e-08
0.0001218
-5.34496e-08
0.000122089
-1.8088e-07
0.00012237
-3.14492e-07
0.000122641
-4.48102e-07
0.000122901
-5.77703e-07
0.000123149
-7.00961e-07
0.000123386
-8.16797e-07
0.000123611
-9.25025e-07
0.000123824
-1.02605e-06
0.000124026
-1.12065e-06
0.000124218
-1.2098e-06
0.000124398
-1.29454e-06
0.000124568
-1.37594e-06
0.000124728
-1.45504e-06
0.000124878
-1.53279e-06
0.000125019
-1.61006e-06
0.000125149
-1.68762e-06
0.000125268
-1.76612e-06
0.000125377
-1.8461e-06
0.000125475
-1.92797e-06
0.000125561
-2.01201e-06
0.000125634
-2.09833e-06
0.000125693
-2.18685e-06
0.000125736
-2.27732e-06
0.000125762
-2.36918e-06
0.00012577
-2.4619e-06
-2.55361e-06
0.000125756
0.000123787
8.6207e-09
0.000123913
2.13865e-08
0.000124105
8.29551e-09
0.000124342
-3.99734e-08
0.000124609
-1.19878e-07
0.000124891
-2.23502e-07
0.00012518
-3.42616e-07
0.000125469
-4.6957e-07
0.000125753
-5.98035e-07
0.000126028
-7.23465e-07
0.000126293
-8.42982e-07
0.000126547
-9.55037e-07
0.00012679
-1.05907e-06
0.00012702
-1.15526e-06
0.000127238
-1.24421e-06
0.000127444
-1.32685e-06
0.000127639
-1.4042e-06
0.000127821
-1.47735e-06
0.000127993
-1.54737e-06
0.000128153
-1.61523e-06
0.000128302
-1.68183e-06
0.00012844
-1.74796e-06
0.000128567
-1.81428e-06
0.000128682
-1.88132e-06
0.000128785
-1.94948e-06
0.000128876
-2.01902e-06
0.000128954
-2.09004e-06
0.000129018
-2.16248e-06
0.000129068
-2.23611e-06
0.000129101
-2.31053e-06
0.000129117
-2.38506e-06
0.000129114
-2.45908e-06
-2.53082e-06
0.000129091
0.00012732
-3.29923e-08
0.000127439
-9.7781e-08
0.000127622
-1.74245e-07
0.000127851
-2.69115e-07
0.000128112
-3.80478e-07
0.000128391
-5.0317e-07
0.00012868
-6.31601e-07
0.000128971
-7.60559e-07
0.000129259
-8.85792e-07
0.00012954
-1.00435e-06
0.000129811
-1.11454e-06
0.000130072
-1.21567e-06
0.000130321
-1.3078e-06
0.000130557
-1.39152e-06
0.000130781
-1.46775e-06
0.000130991
-1.5376e-06
0.000131189
-1.60222e-06
0.000131375
-1.66276e-06
0.000131548
-1.7203e-06
0.000131708
-1.77581e-06
0.000131857
-1.83014e-06
0.000131993
-1.884e-06
0.000132116
-1.93797e-06
0.000132227
-1.99247e-06
0.000132326
-2.04779e-06
0.000132411
-2.10405e-06
0.000132482
-2.16124e-06
0.000132539
-2.21916e-06
0.00013258
-2.27748e-06
0.000132605
-2.33569e-06
0.000132613
-2.39307e-06
0.000132603
-2.44894e-06
-2.50167e-06
0.000132574
0.000130955
-7.30829e-08
0.00013107
-2.12881e-07
0.000131248
-3.5182e-07
0.000131473
-4.94182e-07
0.000131731
-6.38979e-07
0.000132011
-7.83105e-07
0.000132303
-9.23163e-07
0.000132598
-1.05609e-06
0.000132892
-1.17956e-06
0.00013318
-1.29219e-06
0.000133459
-1.3935e-06
0.000133727
-1.48373e-06
0.000133983
-1.56364e-06
0.000134226
-1.63432e-06
0.000134455
-1.69706e-06
0.00013467
-1.75321e-06
0.000134872
-1.80409e-06
0.000135061
-1.85095e-06
0.000135235
-1.89491e-06
0.000135396
-1.93695e-06
0.000135544
-1.97791e-06
0.000135678
-2.01843e-06
0.0001358
-2.05902e-06
0.000135907
-2.10004e-06
0.000136001
-2.14166e-06
0.000136081
-2.18392e-06
0.000136146
-2.22669e-06
0.000136197
-2.26972e-06
0.000136232
-2.31259e-06
0.000136251
-2.35474e-06
0.000136253
-2.39547e-06
0.000136239
-2.43411e-06
-2.46918e-06
0.000136206
0.000134695
-1.12646e-07
0.000134808
-3.26691e-07
0.000134985
-5.28317e-07
0.00013521
-7.19466e-07
0.000135471
-8.99633e-07
0.000135755
-1.06729e-06
0.000136053
-1.22091e-06
0.000136356
-1.35937e-06
0.000136659
-1.48216e-06
0.000136956
-1.58944e-06
0.000137244
-1.682e-06
0.000137522
-1.76107e-06
0.000137786
-1.82818e-06
0.000138037
-1.88501e-06
0.000138273
-1.93327e-06
0.000138495
-1.97462e-06
0.000138701
-2.0106e-06
0.000138893
-2.04259e-06
0.00013907
-2.07179e-06
0.000139232
-2.0992e-06
0.00013938
-2.12566e-06
0.000139513
-2.15179e-06
0.000139632
-2.17805e-06
0.000139737
-2.20472e-06
0.000139827
-2.2319e-06
0.000139903
-2.25958e-06
0.000139964
-2.28755e-06
0.000140009
-2.31551e-06
0.00014004
-2.343e-06
0.000140054
-2.36945e-06
0.000140053
-2.39417e-06
0.000140036
-2.41651e-06
-2.43515e-06
0.000140002
0.000138542
-1.52674e-07
0.000138658
-4.41994e-07
0.000138837
-7.07692e-07
0.000139067
-9.49403e-07
0.000139334
-1.16686e-06
0.000139627
-1.35983e-06
0.000139934
-1.52846e-06
0.000140248
-1.67348e-06
0.000140562
-1.79615e-06
0.000140871
-1.89821e-06
0.000141171
-1.98176e-06
0.000141459
-2.04908e-06
0.000141733
-2.10256e-06
0.000141993
-2.14452e-06
0.000142237
-2.17716e-06
0.000142464
-2.20249e-06
0.000142676
-2.22231e-06
0.000142872
-2.23817e-06
0.000143051
-2.25137e-06
0.000143215
-2.26299e-06
0.000143363
-2.27385e-06
0.000143496
-2.28459e-06
0.000143614
-2.29561e-06
0.000143716
-2.30716e-06
0.000143804
-2.31931e-06
0.000143876
-2.33197e-06
0.000143933
-2.34491e-06
0.000143976
-2.3578e-06
0.000144003
-2.37016e-06
0.000144015
-2.38145e-06
0.000144012
-2.39101e-06
0.000143993
-2.39827e-06
-2.40208e-06
0.00014396
0.000142501
-1.94271e-07
0.000142621
-5.61916e-07
0.000142808
-8.94552e-07
0.000143048
-1.18945e-06
0.000143327
-1.44647e-06
0.000143634
-1.66655e-06
0.000143957
-1.85142e-06
0.000144287
-2.00362e-06
0.000144617
-2.12623e-06
0.000144942
-2.22264e-06
0.000145256
-2.29634e-06
0.000145558
-2.35079e-06
0.000145845
-2.38929e-06
0.000146115
-2.41491e-06
0.000146368
-2.43039e-06
0.000146604
-2.43816e-06
0.000146822
-2.4403e-06
0.000147022
-2.43857e-06
0.000147205
-2.43441e-06
0.000147371
-2.42895e-06
0.000147521
-2.42307e-06
0.000147653
-2.41738e-06
0.00014777
-2.4123e-06
0.000147871
-2.40804e-06
0.000147956
-2.40462e-06
0.000148026
-2.40193e-06
0.000148081
-2.39973e-06
0.000148121
-2.39765e-06
0.000148146
-2.39523e-06
0.000148156
-2.39194e-06
0.000148153
-2.38716e-06
0.000148135
-2.38035e-06
-2.37047e-06
0.000148103
0.000146574
-2.38606e-07
0.000146702
-6.89766e-07
0.000146901
-1.0936e-06
0.000147156
-1.44489e-06
0.000147453
-1.74374e-06
0.000147779
-1.99235e-06
0.000148122
-2.19416e-06
0.000148472
-2.35363e-06
0.000148821
-2.47575e-06
0.000149164
-2.56565e-06
0.000149496
-2.62831e-06
0.000149814
-2.66845e-06
0.000150115
-2.69037e-06
0.000150398
-2.69793e-06
0.000150662
-2.6945e-06
0.000150907
-2.68296e-06
0.000151132
-2.66575e-06
0.000151339
-2.64483e-06
0.000151526
-2.62181e-06
0.000151695
-2.59792e-06
0.000151846
-2.57409e-06
0.00015198
-2.55094e-06
0.000152096
-2.52889e-06
0.000152196
-2.50812e-06
0.00015228
-2.48866e-06
0.000152349
-2.47035e-06
0.000152402
-2.45295e-06
0.00015244
-2.43609e-06
0.000152465
-2.41933e-06
0.000152475
-2.40215e-06
0.000152472
-2.38401e-06
0.000152456
-2.36443e-06
-2.34252e-06
0.000152428
0.000150764
-2.874e-07
0.000150905
-8.30381e-07
0.000151124
-1.31211e-06
0.000151403
-1.72461e-06
0.000151728
-2.06835e-06
0.000152083
-2.34705e-06
0.000152454
-2.56601e-06
0.000152833
-2.73192e-06
0.000153209
-2.85201e-06
0.000153577
-2.93336e-06
0.000153931
-2.98266e-06
0.000154269
-3.00601e-06
0.000154587
-3.00886e-06
0.000154885
-2.99592e-06
0.000155162
-2.97124e-06
0.000155417
-2.9382e-06
0.000155651
-2.89958e-06
0.000155864
-2.85763e-06
0.000156056
-2.81409e-06
0.000156228
-2.7703e-06
0.000156382
-2.72723e-06
0.000156516
-2.68556e-06
0.000156633
-2.64567e-06
0.000156733
-2.60775e-06
0.000156816
-2.57179e-06
0.000156883
-2.53765e-06
0.000156935
-2.50504e-06
0.000156973
-2.47361e-06
0.000156996
-2.44291e-06
0.000157006
-2.41245e-06
0.000157004
-2.3817e-06
0.00015699
-2.35018e-06
-2.31707e-06
0.000156964
0.000155076
-3.42063e-07
0.000155234
-9.8791e-07
0.000155477
-1.55554e-06
0.000155787
-2.03425e-06
0.000156144
-2.4258e-06
0.000156533
-2.73591e-06
0.000156939
-2.97215e-06
0.000157351
-3.14367e-06
0.000157759
-3.26014e-06
0.000158157
-3.3308e-06
0.000158538
-3.3642e-06
0.0001589
-3.368e-06
0.00015924
-3.34888e-06
0.000159557
-3.31257e-06
0.000159849
-3.26386e-06
0.000160118
-3.20668e-06
0.000160363
-3.14422e-06
0.000160584
-3.079e-06
0.000160783
-3.01295e-06
0.00016096
-2.94752e-06
0.000161117
-2.88374e-06
0.000161253
-2.82229e-06
0.000161371
-2.76358e-06
0.000161471
-2.70776e-06
0.000161554
-2.65481e-06
0.000161621
-2.60456e-06
0.000161673
-2.55673e-06
0.00016171
-2.51093e-06
0.000161734
-2.46674e-06
0.000161745
-2.4237e-06
0.000161745
-2.38128e-06
0.000161734
-2.3391e-06
-2.2964e-06
0.000161713
0.000159515
-4.06831e-07
0.000159701
-1.17333e-06
0.000159985
-1.83985e-06
0.000160343
-2.39237e-06
0.000160752
-2.83494e-06
0.000161193
-3.17633e-06
0.000161648
-3.42735e-06
0.000162105
-3.60069e-06
0.000162554
-3.70914e-06
0.000162988
-3.76454e-06
0.000163401
-3.77754e-06
0.000163791
-3.75749e-06
0.000164154
-3.71242e-06
0.000164491
-3.64906e-06
0.0001648
-3.57297e-06
0.000165082
-3.48864e-06
0.000165337
-3.39965e-06
0.000165567
-3.30879e-06
0.000165772
-3.21817e-06
0.000165954
-3.12932e-06
0.000166113
-3.04332e-06
0.000166252
-2.96086e-06
0.000166371
-2.88234e-06
0.000166471
-2.80789e-06
0.000166554
-2.73745e-06
0.00016662
-2.67082e-06
0.000166671
-2.60769e-06
0.000166708
-2.54767e-06
0.000166731
-2.4903e-06
0.000166743
-2.43511e-06
0.000166743
-2.38158e-06
0.000166733
-2.32924e-06
-2.27736e-06
0.000166714
0.000164081
-4.8149e-07
0.000164296
-1.38875e-06
0.000164624
-2.1672e-06
0.000165033
-2.80154e-06
0.000165498
-3.30029e-06
0.000165997
-3.67551e-06
0.000166511
-3.94134e-06
0.000167025
-4.11443e-06
0.000167527
-4.21127e-06
0.000168009
-4.24678e-06
0.000168466
-4.23417e-06
0.000168893
-4.1849e-06
0.00016929
-4.10859e-06
0.000169654
-4.01317e-06
0.000169986
-3.90507e-06
0.000170287
-3.78942e-06
0.000170557
-3.67021e-06
0.000170799
-3.55049e-06
0.000171013
-3.43252e-06
0.000171202
-3.31792e-06
0.000171366
-3.20777e-06
0.000171508
-3.10275e-06
0.000171629
-3.00319e-06
0.00017173
-2.90918e-06
0.000171813
-2.8206e-06
0.00017188
-2.73722e-06
0.000171931
-2.65867e-06
0.000171968
-2.58452e-06
0.000171992
-2.51431e-06
0.000172004
-2.44756e-06
0.000172006
-2.38375e-06
0.000171999
-2.32247e-06
-2.26296e-06
0.000171985
0.000168794
-5.83313e-07
0.000169075
-1.66997e-06
0.000169489
-2.58151e-06
0.000169991
-3.30358e-06
0.000170547
-3.8557e-06
0.000171128
-4.25738e-06
0.000171716
-4.52905e-06
0.000172295
-4.69305e-06
0.000172854
-4.77011e-06
0.000173385
-4.77831e-06
0.000173884
-4.73343e-06
0.000174348
-4.6489e-06
0.000174776
-4.53588e-06
0.000175166
-4.40344e-06
0.00017552
-4.25884e-06
0.000175838
-4.10782e-06
0.000176123
-3.95476e-06
0.000176375
-3.80298e-06
0.000176598
-3.65486e-06
0.000176792
-3.51207e-06
0.00017696
-3.3757e-06
0.000177103
-3.24638e-06
0.000177224
-3.12438e-06
0.000177325
-3.00971e-06
0.000177407
-2.90217e-06
0.000177471
-2.80144e-06
0.000177519
-2.70709e-06
0.000177553
-2.61865e-06
0.000177575
-2.53559e-06
0.000177584
-2.45739e-06
0.000177584
-2.38347e-06
0.000177575
-2.31334e-06
-2.24615e-06
0.000177558
0.000173621
-6.93492e-07
0.000173949
-1.99709e-06
0.000174434
-3.06695e-06
0.000175028
-3.8974e-06
0.00017569
-4.51751e-06
0.000176383
-4.95103e-06
0.00017708
-5.22594e-06
0.00017776
-5.37315e-06
0.00017841
-5.41979e-06
0.00017902
-5.38871e-06
0.000179586
-5.29939e-06
0.000180105
-5.16803e-06
0.000180577
-5.00768e-06
0.000181003
-4.82877e-06
0.000181383
-4.63946e-06
0.000181721
-4.44605e-06
0.00018202
-4.25324e-06
0.000182281
-4.06447e-06
0.000182509
-3.88217e-06
0.000182705
-3.70794e-06
0.000182872
-3.54277e-06
0.000183012
-3.38713e-06
0.000183129
-3.24115e-06
0.000183224
-3.10468e-06
0.000183299
-2.97739e-06
0.000183357
-2.85882e-06
0.000183398
-2.74845e-06
0.000183425
-2.64572e-06
0.00018344
-2.55007e-06
0.000183443
-2.46095e-06
0.000183438
-2.37778e-06
0.000183424
-2.30012e-06
-2.22702e-06
0.000183405
0.000178681
-9.05672e-07
0.000179185
-2.50118e-06
0.000179851
-3.73336e-06
0.000180601
-4.64692e-06
0.000181392
-5.30866e-06
0.000182192
-5.75152e-06
0.000182978
-6.01191e-06
0.000183733
-6.12822e-06
0.000184446
-6.13237e-06
0.000185109
-6.05123e-06
0.000185717
-5.90777e-06
0.00018627
-5.72084e-06
0.000186768
-5.50546e-06
0.000187212
-5.27342e-06
0.000187606
-5.0338e-06
0.000187954
-4.79339e-06
0.000188258
-4.55716e-06
0.000188522
-4.32862e-06
0.00018875
-4.11009e-06
0.000188945
-3.90303e-06
0.00018911
-3.70819e-06
0.000189249
-3.52581e-06
0.000189364
-3.35578e-06
0.000189457
-3.19771e-06
0.00018953
-3.05106e-06
0.000189587
-2.91518e-06
0.000189628
-2.78939e-06
0.000189655
-2.67301e-06
0.00018967
-2.5654e-06
0.000189675
-2.46598e-06
0.000189672
-2.37419e-06
0.000189661
-2.28955e-06
-2.21108e-06
0.000189645
0.000183744
-1.08248e-06
0.000184331
-3.08842e-06
0.000185158
-4.55947e-06
0.000186119
-5.60884e-06
0.000187135
-6.32457e-06
0.000188142
-6.75825e-06
0.000189106
-6.97583e-06
0.000190012
-7.03457e-06
0.000190855
-6.97523e-06
0.000191634
-6.82985e-06
0.00019235
-6.62427e-06
0.000193008
-6.37849e-06
0.00019361
-6.10788e-06
0.000194161
-5.8242e-06
0.000194664
-5.53636e-06
0.000195121
-5.25095e-06
0.000195537
-4.97275e-06
0.000195913
-4.70511e-06
0.000196254
-4.45025e-06
0.00019656
-4.20949e-06
0.000196835
-3.98347e-06
0.000197082
-3.77233e-06
0.000197302
-3.5758e-06
0.000197498
-3.39337e-06
0.000197671
-3.22437e-06
0.000197824
-3.06801e-06
0.000197958
-2.92353e-06
0.000198075
-2.79019e-06
0.000198177
-2.66737e-06
0.000198266
-2.55454e-06
0.000198343
-2.45157e-06
0.000198411
-2.35807e-06
-2.27423e-06
0.000198475
0.000189416
-1.68653e-06
0.0001904
-4.07204e-06
0.000191475
-5.63454e-06
0.000192625
-6.75922e-06
0.000193858
-7.55711e-06