/*--------------------------------*- C++ -*----------------------------------*\
| =========                 |                                                 |
| \\      /  F ield         | OpenFOAM: The Open Source CFD Toolbox           |
|  \\    /   O peration     | Version:  2.1.1                                 |
|   \\  /    A nd           | Web:      www.OpenFOAM.org                      |
|    \\/     M anipulation  |                                                 |
\*---------------------------------------------------------------------------*/
FoamFile
{
    version     2.0;
    format      ascii;
    class       volVectorField;
    location    "0.165";
    object      U;
}
// * * * * * * * * * * * * * * * * * * * * * * * * * * * * * * * * * * * * * //

dimensions      [0 1 -1 0 0 0 0];

internalField   nonuniform List<vector> 
6820
(
(6.37611 0.503704 0)
(4.42482 0.286805 0)
(2.97474 0.0201293 0)
(2.23628 -0.0620146 0)
(1.97149 -0.0601165 0)
(1.84559 -0.0347093 0)
(1.77167 -0.015299 0)
(1.72063 -0.0049256 0)
(1.67842 -0.000232238 0)
(1.64203 0.00126069 0)
(1.61089 0.00122095 0)
(1.58453 0.000584866 0)
(1.56249 -0.000214647 0)
(1.54424 -0.000988261 0)
(1.5293 -0.0016617 0)
(1.51722 -0.00221753 0)
(1.50767 -0.00266395 0)
(1.50035 -0.00301767 0)
(1.49504 -0.00329546 0)
(1.49155 -0.0035075 0)
(1.48972 -0.00366216 0)
(1.48947 -0.00375623 0)
(1.49059 -0.00393524 0)
(1.49294 -0.00405064 0)
(1.49638 -0.00410786 0)
(1.50074 -0.00412945 0)
(1.50566 -0.00402408 0)
(1.51089 -0.00377536 0)
(1.51548 -0.00342006 0)
(1.51985 -0.00236414 0)
(1.51844 -0.00164015 0)
(1.52138 0.00659871 0)
(1.47852 -0.0107347 0)
(8.72023 0.959483 0)
(8.76521 1.01161 0)
(7.97022 0.678585 0)
(7.05792 0.393409 0)
(6.3582 0.2019 0)
(5.85321 0.10273 0)
(5.49274 0.0571721 0)
(5.23295 0.0365861 0)
(5.03888 0.0272879 0)
(4.88837 0.0226395 0)
(4.76803 0.0197881 0)
(4.66951 0.0176783 0)
(4.58744 0.0159136 0)
(4.51828 0.0143268 0)
(4.45954 0.012835 0)
(4.40945 0.0113944 0)
(4.36666 0.00998234 0)
(4.33019 0.00858749 0)
(4.29923 0.00720467 0)
(4.27317 0.0058356 0)
(4.2515 0.00448046 0)
(4.23376 0.00315112 0)
(4.21959 0.00184017 0)
(4.20866 0.000607155 0)
(4.2006 -0.000514124 0)
(4.19511 -0.00142471 0)
(4.19172 -0.0021569 0)
(4.1899 -0.0024034 0)
(4.18894 -0.00206779 0)
(4.18812 -0.000229036 0)
(4.18568 0.00242886 0)
(4.18215 0.0110555 0)
(4.17374 0.0219598 0)
(8.58611 0.583271 0)
(9.33142 0.761755 0)
(9.61507 0.659256 0)
(9.50596 0.525455 0)
(9.241 0.395801 0)
(8.92999 0.297864 0)
(8.62571 0.228967 0)
(8.35129 0.179483 0)
(8.11096 0.143424 0)
(7.90245 0.116607 0)
(7.72206 0.0961153 0)
(7.56597 0.0800832 0)
(7.43067 0.0672916 0)
(7.31319 0.0569095 0)
(7.211 0.0483388 0)
(7.122 0.0411332 0)
(7.04443 0.034959 0)
(6.97684 0.0295677 0)
(6.91801 0.024775 0)
(6.86692 0.0204451 0)
(6.82272 0.0164783 0)
(6.78467 0.0128147 0)
(6.75215 0.00943928 0)
(6.7246 0.00633575 0)
(6.70149 0.00352945 0)
(6.68231 0.00112634 0)
(6.66651 -0.000820364 0)
(6.6536 -0.00200318 0)
(6.64289 -0.00211445 0)
(6.63365 -0.000369489 0)
(6.62486 0.00358185 0)
(6.61507 0.0126081 0)
(6.60438 0.0265741 0)
(8.44095 0.379478 0)
(8.94601 0.583416 0)
(9.35865 0.553553 0)
(9.58674 0.485716 0)
(9.70148 0.405511 0)
(9.7384 0.336153 0)
(9.72403 0.283487 0)
(9.68065 0.243169 0)
(9.62111 0.211541 0)
(9.55265 0.185999 0)
(9.47997 0.164684 0)
(9.40617 0.146453 0)
(9.33325 0.130584 0)
(9.26272 0.11657 0)
(9.19551 0.104072 0)
(9.1322 0.0928389 0)
(9.07311 0.0826648 0)
(9.01839 0.0733795 0)
(8.96806 0.0648418 0)
(8.92209 0.0569379 0)
(8.88038 0.0495777 0)
(8.84279 0.0427043 0)
(8.80916 0.0362821 0)
(8.77932 0.0303024 0)
(8.75305 0.0248047 0)
(8.73015 0.0198693 0)
(8.71034 0.0157082 0)
(8.69339 0.01257 0)
(8.67894 0.0108388 0)
(8.66667 0.0112653 0)
(8.65643 0.014658 0)
(8.64763 0.0229853 0)
(8.64292 0.0386924 0)
(8.40216 0.279811 0)
(8.71913 0.479967 0)
(8.99927 0.460782 0)
(9.17505 0.402918 0)
(9.29992 0.340577 0)
(9.39386 0.287865 0)
(9.46361 0.248605 0)
(9.51735 0.218792 0)
(9.55993 0.195098 0)
(9.5937 0.175613 0)
(9.62038 0.159063 0)
(9.64136 0.144646 0)
(9.65775 0.131863 0)
(9.67019 0.120365 0)
(9.67935 0.109885 0)
(9.6859 0.100216 0)
(9.69041 0.0911985 0)
(9.69339 0.0827099 0)
(9.69526 0.0746529 0)
(9.6964 0.0669546 0)
(9.69712 0.0595634 0)
(9.69769 0.0524519 0)
(9.69834 0.0456179 0)
(9.69928 0.039087 0)
(9.70066 0.032923 0)
(9.70264 0.0272431 0)
(9.70538 0.0222385 0)
(9.70903 0.0181755 0)
(9.71381 0.0154568 0)
(9.72006 0.0147072 0)
(9.72835 0.0167281 0)
(9.73968 0.0227386 0)
(9.75655 0.0342147 0)
(8.37749 0.201884 0)
(8.60153 0.382737 0)
(8.81629 0.389351 0)
(8.94774 0.354571 0)
(9.03412 0.309871 0)
(9.09749 0.266056 0)
(9.14512 0.229898 0)
(9.18427 0.201064 0)
(9.21917 0.177752 0)
(9.25123 0.158614 0)
(9.28105 0.142547 0)
(9.309 0.128713 0)
(9.33529 0.116557 0)
(9.36019 0.10571 0)
(9.38383 0.0958735 0)
(9.40631 0.086816 0)
(9.42772 0.0783656 0)
(9.44814 0.0703906 0)
(9.46766 0.0627894 0)
(9.48638 0.0554854 0)
(9.50438 0.048424 0)
(9.52176 0.0415735 0)
(9.53863 0.0349259 0)
(9.55511 0.0284977 0)
(9.57133 0.0223393 0)
(9.58746 0.016545 0)
(9.60371 0.0112673 0)
(9.62041 0.00672428 0)
(9.63794 0.00321214 0)
(9.65699 0.00113686 0)
(9.67849 0.000979599 0)
(9.70426 0.00325779 0)
(9.7363 0.00834475 0)
(8.3613 0.148473 0)
(8.52289 0.310419 0)
(8.69795 0.335512 0)
(8.81319 0.315501 0)
(8.88841 0.281858 0)
(8.94223 0.2453 0)
(8.98085 0.213308 0)
(9.01043 0.187075 0)
(9.0354 0.165427 0)
(9.05769 0.147312 0)
(9.07825 0.131878 0)
(9.09768 0.118453 0)
(9.11632 0.106562 0)
(9.13434 0.095859 0)
(9.15188 0.0860931 0)
(9.16902 0.0770712 0)
(9.18582 0.0686406 0)
(9.20231 0.060677 0)
(9.21855 0.05308 0)
(9.23455 0.04577 0)
(9.25037 0.0386868 0)
(9.26605 0.0317894 0)
(9.28164 0.025057 0)
(9.29722 0.0184895 0)
(9.3129 0.0121128 0)
(9.32882 0.00598112 0)
(9.34519 0.000182097 0)
(9.36232 -0.00516026 0)
(9.38063 -0.00989807 0)
(9.40081 -0.013862 0)
(9.4237 -0.016943 0)
(9.45086 -0.0191707 0)
(9.48364 -0.0210392 0)
(8.35118 0.110996 0)
(8.46757 0.250482 0)
(8.60866 0.284723 0)
(8.71085 0.275987 0)
(8.78127 0.253164 0)
(8.83364 0.225275 0)
(8.87231 0.198742 0)
(8.90181 0.175658 0)
(8.9261 0.15575 0)
(8.94721 0.138529 0)
(8.96618 0.123531 0)
(8.98372 0.110305 0)
(9.00029 0.0984831 0)
(9.01615 0.0877846 0)
(9.03148 0.077988 0)
(9.04642 0.0689096 0)
(9.06105 0.0603976 0)
(9.07546 0.0523277 0)
(9.08971 0.0445986 0)
(9.10386 0.0371285 0)
(9.11796 0.029853 0)
(9.13208 0.0227243 0)
(9.14629 0.0157101 0)
(9.16068 0.00879363 0)
(9.17536 0.00197371 0)
(9.19051 -0.0047356 0)
(9.20631 -0.0113054 0)
(9.22308 -0.0177016 0)
(9.24121 -0.0239035 0)
(9.2613 -0.0299295 0)
(9.28409 -0.0359247 0)
(9.31083 -0.0422672 0)
(9.34239 -0.0497673 0)
(8.34488 0.0842746 0)
(8.42954 0.202466 0)
(8.54265 0.241721 0)
(8.63182 0.241808 0)
(8.69638 0.22709 0)
(8.74616 0.205583 0)
(8.78441 0.183126 0)
(8.81435 0.162551 0)
(8.83923 0.14428 0)
(8.8609 0.128157 0)
(8.88032 0.113914 0)
(8.89819 0.101221 0)
(8.91495 0.0897768 0)
(8.93088 0.0793383 0)
(8.9462 0.0697069 0)
(8.96104 0.0607172 0)
(8.97552 0.0522321 0)
(8.98973 0.0441378 0)
(9.00373 0.0363388 0)
(9.01761 0.028755 0)
(9.03142 0.0213194 0)
(9.04525 0.0139774 0)
(9.05917 0.00668516 0)
(9.07328 -0.000592236 0)
(9.0877 -0.00788279 0)
(9.1026 -0.0152097 0)
(9.11817 -0.0225992 0)
(9.13471 -0.0300961 0)
(9.15259 -0.03779 0)
(9.17231 -0.0458484 0)
(9.19446 -0.0545994 0)
(9.21993 -0.0646336 0)
(9.24919 -0.0768537 0)
(8.34095 0.064984 0)
(8.40323 0.164 0)
(8.49372 0.204405 0)
(8.57083 0.210286 0)
(8.62948 0.201517 0)
(8.67627 0.185399 0)
(8.7135 0.166979 0)
(8.74334 0.149175 0)
(8.76838 0.132782 0)
(8.79025 0.117896 0)
(8.80988 0.104444 0)
(8.8279 0.0922499 0)
(8.84477 0.0811142 0)
(8.86078 0.0708558 0)
(8.87614 0.0613167 0)
(8.89099 0.0523573 0)
(8.90544 0.0438552 0)
(8.9196 0.0357034 0)
(8.93353 0.0278087 0)
(8.9473 0.0200891 0)
(8.96099 0.0124735 0)
(8.97467 0.00489836 0)
(8.98842 -0.00269277 0)
(9.00234 -0.0103524 0)
(9.01655 -0.0181333 0)
(9.03122 -0.0260943 0)
(9.04652 -0.0343125 0)
(9.06272 -0.0428984 0)
(9.08011 -0.0520241 0)
(9.0991 -0.061955 0)
(9.1201 -0.0731149 0)
(9.1437 -0.0861738 0)
(9.17006 -0.101972 0)
(8.33847 0.0507819 0)
(8.38487 0.133053 0)
(8.45733 0.172213 0)
(8.52367 0.181975 0)
(8.57671 0.177812 0)
(8.62036 0.166114 0)
(8.6562 0.151125 0)
(8.68562 0.13568 0)
(8.71059 0.120885 0)
(8.73254 0.107078 0)
(8.7523 0.0943574 0)
(8.77045 0.0826684 0)
(8.78742 0.0718863 0)
(8.8035 0.0618743 0)
(8.81888 0.0525013 0)
(8.83373 0.043644 0)
(8.84814 0.03519 0)
(8.86223 0.0270384 0)
(8.87605 0.0190982 0)
(8.88969 0.0112875 0)
(8.90322 0.00353071 0)
(8.91671 -0.00424185 0)
(8.93025 -0.0120984 0)
(8.94391 -0.0201081 0)
(8.95783 -0.0283466 0)
(8.97214 -0.036904 0)
(8.987 -0.045896 0)
(9.00262 -0.0554796 0)
(9.01923 -0.0658787 0)
(9.03711 -0.0774113 0)
(9.05652 -0.0905337 0)
(9.07779 -0.105914 0)
(9.10087 -0.124268 0)
(8.33688 0.0401143 0)
(8.37195 0.108091 0)
(8.43013 0.14451 0)
(8.48696 0.156451 0)
(8.53464 0.155506 0)
(8.57514 0.147175 0)
(8.60939 0.135055 0)
(8.63821 0.121768 0)
(8.66303 0.108557 0)
(8.68501 0.0959011 0)
(8.70487 0.0840006 0)
(8.72315 0.0728899 0)
(8.74022 0.062511 0)
(8.75637 0.0527734 0)
(8.7718 0.043578 0)
(8.78665 0.0348245 0)
(8.80103 0.0264155 0)
(8.81505 0.0182592 0)
(8.82877 0.0102692 0)
(8.84227 0.00236395 0)
(8.85562 -0.00553496 0)
(8.8689 -0.0135034 0)
(8.88217 -0.0216195 0)
(8.89552 -0.0299664 0)
(8.90905 -0.0386379 0)
(8.92288 -0.0477466 0)
(8.93714 -0.0574345 0)
(8.95198 -0.0678874 0)
(8.96756 -0.0793549 0)
(8.98405 -0.092171 0)
(9.00157 -0.106779 0)
(9.02025 -0.12379 0)
(9.03992 -0.143769 0)
(8.33584 0.0319311 0)
(8.36275 0.0878227 0)
(8.40968 0.120648 0)
(8.45826 0.133481 0)
(8.50097 0.134723 0)
(8.53837 0.128981 0)
(8.5709 0.119256 0)
(8.59892 0.107863 0)
(8.62342 0.0960706 0)
(8.64532 0.0844571 0)
(8.66522 0.0733074 0)
(8.68358 0.0627344 0)
(8.70074 0.0527415 0)
(8.71697 0.0432801 0)
(8.73244 0.034279 0)
(8.74731 0.0256562 0)
(8.76167 0.0173259 0)
(8.77563 0.00920274 0)
(8.78925 0.00120321 0)
(8.8026 -0.00675439 0)
(8.81576 -0.0147505 0)
(8.82879 -0.0228671 0)
(8.84175 -0.0311898 0)
(8.85472 -0.0398118 0)
(8.86779 -0.0488399 0)
(8.88103 -0.0584011 0)
(8.89456 -0.0686523 0)
(8.90846 -0.0797908 0)
(8.92282 -0.0920697 0)
(8.93773 -0.105811 0)
(8.95321 -0.121413 0)
(8.96922 -0.139404 0)
(8.98552 -0.160198 0)
(8.33515 0.0255194 0)
(8.35613 0.0712344 0)
(8.39422 0.100076 0)
(8.43575 0.112829 0)
(8.47389 0.115388 0)
(8.50832 0.111496 0)
(8.53904 0.103643 0)
(8.56611 0.0938332 0)
(8.59017 0.083293 0)
(8.6119 0.0726515 0)
(8.63177 0.0622438 0)
(8.65017 0.0522317 0)
(8.6674 0.0426614 0)
(8.68369 0.0335159 0)
(8.6992 0.024747 0)
(8.71407 0.0162894 0)
(8.7284 0.00806884 0)
(8.74227 7.5999e-06 0)
(8.75577 -0.00797348 0)
(8.76896 -0.0159543 0)
(8.78189 -0.0240163 0)
(8.79463 -0.0322442 0)
(8.80723 -0.040728 0)
(8.81976 -0.0495674 0)
(8.83228 -0.0588756 0)
(8.84484 -0.0687859 0)
(8.85752 -0.0794583 0)
(8.87036 -0.091088 0)
(8.8834 -0.103914 0)
(8.89663 -0.118226 0)
(8.91 -0.134365 0)
(8.92338 -0.152762 0)
(8.93651 -0.173694 0)
(8.33467 0.0203914 0)
(8.35129 0.0575247 0)
(8.38247 0.0822824 0)
(8.41803 0.094245 0)
(8.45206 0.097422 0)
(8.48367 0.0947773 0)
(8.51258 0.0883572 0)
(8.53863 0.0798568 0)
(8.56215 0.0704074 0)
(8.5836 0.060643 0)
(8.60338 0.0509234 0)
(8.62176 0.0414427 0)
(8.63901 0.0322809 0)
(8.65532 0.023449 0)
(8.67085 0.0149194 0)
(8.6857 0.00664198 0)
(8.69998 -0.00144663 0)
(8.71376 -0.00941727 0)
(8.72712 -0.017345 0)
(8.74011 -0.025308 0)
(8.75279 -0.0333878 0)
(8.76521 -0.0416701 0)
(8.77741 -0.0502473 0)
(8.78944 -0.0592211 0)
(8.80135 -0.068706 0)
(8.81317 -0.0788342 0)
(8.82493 -0.0897602 0)
(8.83664 -0.101666 0)
(8.84829 -0.114764 0)
(8.85983 -0.129304 0)
(8.87113 -0.145559 0)
(8.88203 -0.163864 0)
(8.89224 -0.184382 0)
(8.33433 0.0162082 0)
(8.34771 0.0460659 0)
(8.37349 0.0668176 0)
(8.40405 0.0774917 0)
(8.43443 0.0807313 0)
(8.46344 0.078821 0)
(8.49059 0.0734209 0)
(8.51555 0.0659426 0)
(8.53845 0.0573968 0)
(8.55957 0.0483949 0)
(8.57918 0.0393026 0)
(8.5975 0.0303306 0)
(8.61474 0.0215798 0)
(8.63105 0.0130802 0)
(8.64656 0.00481915 0)
(8.66137 -0.00324205 0)
(8.67558 -0.0111584 0)
(8.68925 -0.0189946 0)
(8.70245 -0.0268218 0)
(8.71522 -0.0347157 0)
(8.72761 -0.0427561 0)
(8.73967 -0.051028 0)
(8.75143 -0.0596224 0)
(8.76292 -0.0686393 0)
(8.77418 -0.0781894 0)
(8.7852 -0.0883976 0)
(8.796 -0.0994059 0)
(8.80656 -0.111375 0)
(8.81682 -0.124486 0)
(8.82669 -0.138941 0)
(8.83605 -0.154946 0)
(8.84466 -0.17275 0)
(8.85229 -0.19242 0)
(8.33408 0.0127303 0)
(8.34504 0.0363678 0)
(8.36659 0.0532864 0)
(8.39301 0.0623359 0)
(8.42018 0.0652008 0)
(8.44682 0.0635995 0)
(8.4723 0.0588614 0)
(8.49619 0.0521459 0)
(8.51842 0.0443311 0)
(8.53916 0.0359831 0)
(8.55856 0.0274548 0)
(8.57678 0.0189591 0)
(8.59396 0.0106073 0)
(8.61023 0.00244143 0)
(8.62571 -0.00553992 0)
(8.64047 -0.0133662 0)
(8.65458 -0.021085 0)
(8.66812 -0.0287555 0)
(8.68113 -0.0364445 0)
(8.69366 -0.0442244 0)
(8.70574 -0.0521722 0)
(8.71742 -0.0603699 0)
(8.72871 -0.0689052 0)
(8.73964 -0.0778728 0)
(8.75021 -0.0873759 0)
(8.76042 -0.0975277 0)
(8.77026 -0.108453 0)
(8.77967 -0.120286 0)
(8.78859 -0.133175 0)
(8.7969 -0.147272 0)
(8.80446 -0.162725 0)
(8.81104 -0.179704 0)
(8.81644 -0.198205 0)
(8.3339 0.00978507 0)
(8.34303 0.0280466 0)
(8.36127 0.0413465 0)
(8.38429 0.0485557 0)
(8.4087 0.0507076 0)
(8.43322 0.0490649 0)
(8.45715 0.0446763 0)
(8.47998 0.0384809 0)
(8.50155 0.0312241 0)
(8.52187 0.0234129 0)
(8.54103 0.0153759 0)
(8.55911 0.00731797 0)
(8.57621 -0.000647712 0)
(8.59243 -0.00847302 0)
(8.60784 -0.016153 0)
(8.62252 -0.0237111 0)
(8.63653 -0.0311899 0)
(8.64991 -0.0386442 0)
(8.66272 -0.046137 0)
(8.67498 -0.0537373 0)
(8.68674 -0.0615186 0)
(8.69801 -0.0695584 0)
(8.70882 -0.0779391 0)
(8.71916 -0.0867477 0)
(8.72904 -0.0960769 0)
(8.73845 -0.106025 0)
(8.74733 -0.116697 0)
(8.75564 -0.128202 0)
(8.7633 -0.140649 0)
(8.77018 -0.15415 0)
(8.77614 -0.168798 0)
(8.78097 -0.1847 0)
(8.78448 -0.201798 0)
(8.33376 0.00724535 0)
(8.34149 0.0208002 0)
(8.35716 0.0307024 0)
(8.3774 0.0359408 0)
(8.39946 0.0371204 0)
(8.42213 0.0351493 0)
(8.44466 0.030842 0)
(8.46651 0.0249491 0)
(8.48743 0.0180895 0)
(8.50733 0.010704 0)
(8.52623 0.00308698 0)
(8.54416 -0.00457364 0)
(8.56116 -0.0121709 0)
(8.57731 -0.019657 0)
(8.59265 -0.0270251 0)
(8.60724 -0.0342956 0)
(8.62112 -0.0415076 0)
(8.63434 -0.0487124 0)
(8.64693 -0.0559694 0)
(8.65892 -0.0633435 0)
(8.67034 -0.0709036 0)
(8.68121 -0.0787218 0)
(8.69152 -0.086873 0)
(8.70129 -0.0954349 0)
(8.71049 -0.104488 0)
(8.7191 -0.114114 0)
(8.72709 -0.124396 0)
(8.73438 -0.135418 0)
(8.74088 -0.147256 0)
(8.74649 -0.159983 0)
(8.75106 -0.173648 0)
(8.7544 -0.188305 0)
(8.75638 -0.20386 0)
(8.33366 0.00501485 0)
(8.34033 0.014388 0)
(8.35398 0.0210988 0)
(8.372 0.0242925 0)
(8.3921 0.0243026 0)
(8.41317 0.02177 0)
(8.43447 0.0173167 0)
(8.45543 0.0115341 0)
(8.47574 0.00492513 0)
(8.49525 -0.00213849 0)
(8.51389 -0.00940221 0)
(8.53166 -0.0167012 0)
(8.54856 -0.0239406 0)
(8.56462 -0.0310779 0)
(8.57988 -0.0381081 0)
(8.59436 -0.0450513 0)
(8.60811 -0.0519453 0)
(8.62116 -0.0588395 0)
(8.63352 -0.0657903 0)
(8.64524 -0.0728592 0)
(8.65631 -0.0801104 0)
(8.66676 -0.0876099 0)
(8.67659 -0.0954249 0)
(8.68578 -0.103623 0)
(8.69433 -0.112271 0)
(8.7022 -0.121436 0)
(8.70935 -0.13118 0)
(8.7157 -0.141561 0)
(8.72118 -0.152629 0)
(8.72568 -0.164421 0)
(8.72908 -0.176953 0)
(8.73121 -0.190241 0)
(8.73198 -0.204165 0)
(8.33358 0.00301884 0)
(8.33944 0.00861614 0)
(8.35155 0.0123144 0)
(8.3678 0.0134235 0)
(8.38629 0.0121135 0)
(8.40603 0.0088287 0)
(8.42628 0.00403615 0)
(8.44648 -0.0018068 0)
(8.46625 -0.00830126 0)
(8.48541 -0.0151445 0)
(8.50383 -0.0221258 0)
(8.52145 -0.0291086 0)
(8.53826 -0.0360152 0)
(8.55424 -0.0428133 0)
(8.56942 -0.049503 0)
(8.58381 -0.0561071 0)
(8.59743 -0.0626639 0)
(8.6103 -0.0692216 0)
(8.62245 -0.0758343 0)
(8.63388 -0.0825598 0)
(8.64463 -0.0894574 0)
(8.65468 -0.0965865 0)
(8.66404 -0.104006 0)
(8.67269 -0.111772 0)
(8.68063 -0.11994 0)
(8.68781 -0.12856 0)
(8.6942 -0.137675 0)
(8.69972 -0.147323 0)
(8.70432 -0.157528 0)
(8.70788 -0.168301 0)
(8.71032 -0.179631 0)
(8.7115 -0.191505 0)
(8.71135 -0.203791 0)
(8.33352 0.00119646 0)
(8.33878 0.00332289 0)
(8.34972 0.00415312 0)
(8.36459 0.00315537 0)
(8.38181 0.00040861 0)
(8.40047 -0.00378267 0)
(8.41987 -0.00907359 0)
(8.43944 -0.0151177 0)
(8.45878 -0.021608 0)
(8.47764 -0.0283073 0)
(8.49588 -0.0350504 0)
(8.51338 -0.0417323 0)
(8.53011 -0.0482966 0)
(8.54602 -0.054725 0)
(8.56113 -0.0610265 0)
(8.57542 -0.0672296 0)
(8.58891 -0.0733753 0)
(8.60161 -0.0795128 0)
(8.61354 -0.0856954 0)
(8.6247 -0.0919783 0)
(8.63512 -0.0984166 0)
(8.64478 -0.105064 0)
(8.6537 -0.111971 0)
(8.66185 -0.119185 0)
(8.66922 -0.126749 0)
(8.67578 -0.134698 0)
(8.68149 -0.143061 0)
(8.68629 -0.151855 0)
(8.69013 -0.161087 0)
(8.69293 -0.170747 0)
(8.69462 -0.180805 0)
(8.69507 -0.191228 0)
(8.69428 -0.201882 0)
(8.33348 -0.000501167 0)
(8.3383 -0.00162753 0)
(8.34837 -0.00356062 0)
(8.36223 -0.00668499 0)
(8.37849 -0.0109657 0)
(8.39633 -0.0161955 0)
(8.41509 -0.022126 0)
(8.43419 -0.0285039 0)
(8.45321 -0.0351037 0)
(8.47188 -0.0417517 0)
(8.49 -0.0483292 0)
(8.50745 -0.0547649 0)
(8.52414 -0.0610267 0)
(8.54003 -0.067113 0)
(8.55509 -0.0730441 0)
(8.56931 -0.0788557 0)
(8.5827 -0.0845931 0)
(8.59525 -0.0903069 0)
(8.60698 -0.0960501 0)
(8.6179 -0.101876 0)
(8.62802 -0.107835 0)
(8.63733 -0.113975 0)
(8.64584 -0.12034 0)
(8.65353 -0.126969 0)
(8.6604 -0.133892 0)
(8.66641 -0.141134 0)
(8.67154 -0.148708 0)
(8.67574 -0.15662 0)
(8.67897 -0.164858 0)
(8.68117 -0.173401 0)
(8.68228 -0.182205 0)
(8.68222 -0.191223 0)
(8.68099 -0.200325 0)
(8.33345 -0.00211778 0)
(8.33796 -0.00635652 0)
(8.34745 -0.01099 0)
(8.3606 -0.0162659 0)
(8.37619 -0.0221611 0)
(8.39348 -0.0285325 0)
(8.41181 -0.0352048 0)
(8.43061 -0.042001 0)
(8.44945 -0.048767 0)
(8.46802 -0.0553882 0)
(8.4861 -0.0617929 0)
(8.50354 -0.0679465 0)
(8.52024 -0.0738452 0)
(8.53613 -0.0795082 0)
(8.55116 -0.0849717 0)
(8.56533 -0.0902822 0)
(8.57862 -0.0954922 0)
(8.59104 -0.100657 0)
(8.60259 -0.105831 0)
(8.61328 -0.111067 0)
(8.62311 -0.116413 0)
(8.6321 -0.121914 0)
(8.64023 -0.127606 0)
(8.64751 -0.133521 0)
(8.65393 -0.139681 0)
(8.65947 -0.1461 0)
(8.66411 -0.152782 0)
(8.66781 -0.15972 0)
(8.67055 -0.166893 0)
(8.67229 -0.17427 0)
(8.67299 -0.181799 0)
(8.6726 -0.189428 0)
(8.67114 -0.197033 0)
(8.33343 -0.00369477 0)
(8.33777 -0.0109789 0)
(8.34689 -0.0182966 0)
(8.35963 -0.0257692 0)
(8.37486 -0.0333676 0)
(8.39186 -0.0409929 0)
(8.41001 -0.0485294 0)
(8.42873 -0.0558671 0)
(8.44756 -0.0629168 0)
(8.46619 -0.0696204 0)
(8.48436 -0.0759518 0)
(8.50191 -0.0819129 0)
(8.5187 -0.0875282 0)
(8.53466 -0.0928383 0)
(8.54974 -0.0978953 0)
(8.56391 -0.102757 0)
(8.57715 -0.107484 0)
(8.58948 -0.112136 0)
(8.60088 -0.116771 0)
(8.61138 -0.121441 0)
(8.62097 -0.126193 0)
(8.62968 -0.131067 0)
(8.63749 -0.136097 0)
(8.64442 -0.141307 0)
(8.65045 -0.146713 0)
(8.65559 -0.152321 0)
(8.65983 -0.158129 0)
(8.66314 -0.16412 0)
(8.6655 -0.170269 0)
(8.66691 -0.176537 0)
(8.66734 -0.18287 0)
(8.66675 -0.189214 0)
(8.6652 -0.195453 0)
(8.33342 -0.00527041 0)
(8.33769 -0.0156039 0)
(8.34669 -0.0256352 0)
(8.3593 -0.0353604 0)
(8.37443 -0.0447278 0)
(8.39142 -0.0536622 0)
(8.40961 -0.062092 0)
(8.42843 -0.0699642 0)
(8.44742 -0.0772508 0)
(8.46623 -0.0839512 0)
(8.48459 -0.0900898 0)
(8.50231 -0.0957115 0)
(8.51926 -0.100876 0)
(8.53534 -0.105652 0)
(8.5505 -0.110113 0)
(8.5647 -0.114333 0)
(8.57793 -0.118384 0)
(8.59018 -0.122335 0)
(8.60147 -0.126245 0)
(8.6118 -0.13017 0)
(8.62119 -0.134157 0)
(8.62965 -0.138244 0)
(8.63718 -0.14246 0)
(8.6438 -0.146826 0)
(8.64952 -0.151352 0)
(8.65433 -0.156039 0)
(8.65824 -0.160877 0)
(8.66124 -0.165849 0)
(8.66333 -0.170921 0)
(8.66452 -0.176056 0)
(8.66479 -0.181198 0)
(8.66414 -0.186295 0)
(8.66263 -0.191241 0)
(8.33342 -0.00688602 0)
(8.33774 -0.020353 0)
(8.34684 -0.0331951 0)
(8.35962 -0.0452904 0)
(8.375 -0.0565659 0)
(8.3923 -0.0669694 0)
(8.41086 -0.0764709 0)
(8.43009 -0.0850699 0)
(8.44949 -0.0927927 0)
(8.46871 -0.0996893 0)
(8.48746 -0.105828 0)
(8.50553 -0.111293 0)
(8.52277 -0.116174 0)
(8.53909 -0.120566 0)
(8.55442 -0.124565 0)
(8.56872 -0.12826 0)
(8.582 -0.131736 0)
(8.59424 -0.135071 0)
(8.60545 -0.138331 0)
(8.61566 -0.141576 0)
(8.62488 -0.144854 0)
(8.63313 -0.148204 0)
(8.64043 -0.151653 0)
(8.64679 -0.155221 0)
(8.65224 -0.158914 0)
(8.65678 -0.162732 0)
(8.66043 -0.166661 0)
(8.6632 -0.170681 0)
(8.6651 -0.174759 0)
(8.66614 -0.178856 0)
(8.66634 -0.182921 0)
(8.66569 -0.186902 0)
(8.66428 -0.190705 0)
(8.33344 -0.00858625 0)
(8.33791 -0.0253464 0)
(8.34735 -0.0411291 0)
(8.36057 -0.0556739 0)
(8.37648 -0.0688691 0)
(8.39435 -0.0806729 0)
(8.41351 -0.0910951 0)
(8.43334 -0.100196 0)
(8.45333 -0.108073 0)
(8.4731 -0.114843 0)
(8.49236 -0.120639 0)
(8.51088 -0.125594 0)
(8.5285 -0.129842 0)
(8.54513 -0.133514 0)
(8.56071 -0.136728 0)
(8.57519 -0.139595 0)
(8.58857 -0.142215 0)
(8.60084 -0.144672 0)
(8.61204 -0.147041 0)
(8.62217 -0.149383 0)
(8.63127 -0.15175 0)
(8.63936 -0.154178 0)
(8.64647 -0.156695 0)
(8.65263 -0.159317 0)
(8.65786 -0.16205 0)
(8.6622 -0.164891 0)
(8.66565 -0.167825 0)
(8.66826 -0.17083 0)
(8.67004 -0.173875 0)
(8.67101 -0.176922 0)
(8.67121 -0.179923 0)
(8.67065 -0.182834 0)
(8.66943 -0.18557 0)
(8.33347 -0.010428 0)
(8.33825 -0.0307689 0)
(8.34834 -0.0497787 0)
(8.36244 -0.0670778 0)
(8.37935 -0.0825416 0)
(8.3983 -0.0961466 0)
(8.41855 -0.107931 0)
(8.43943 -0.117994 0)
(8.4604 -0.12648 0)
(8.48105 -0.133554 0)
(8.50107 -0.139395 0)
(8.52025 -0.144181 0)
(8.53842 -0.148088 0)
(8.55548 -0.151281 0)
(8.57139 -0.153911 0)
(8.5861 -0.156113 0)
(8.59963 -0.158006 0)
(8.61197 -0.159691 0)
(8.62317 -0.161256 0)
(8.63325 -0.16277 0)
(8.64224 -0.164289 0)
(8.65019 -0.165854 0)
(8.65714 -0.167495 0)
(8.66312 -0.169229 0)
(8.66817 -0.171062 0)
(8.67232 -0.17299 0)
(8.67562 -0.175001 0)
(8.67809 -0.177073 0)
(8.67977 -0.179176 0)
(8.6807 -0.181275 0)
(8.68092 -0.183328 0)
(8.68045 -0.185293 0)
(8.67937 -0.187095 0)
(8.33351 -0.0124714 0)
(8.33872 -0.0367361 0)
(8.34969 -0.0591471 0)
(8.36493 -0.079139 0)
(8.38308 -0.0965641 0)
(8.40332 -0.11145 0)
(8.42486 -0.123925 0)
(8.44699 -0.1342 0)
(8.46914 -0.142526 0)
(8.49088 -0.14916 0)
(8.51189 -0.154354 0)
(8.53192 -0.158348 0)
(8.55082 -0.161359 0)
(8.5685 -0.163587 0)
(8.58489 -0.165207 0)
(8.59997 -0.166372 0)
(8.61376 -0.167213 0)
(8.62629 -0.167842 0)
(8.63758 -0.16835 0)
(8.64768 -0.168813 0)
(8.65664 -0.169286 0)
(8.66452 -0.169815 0)
(8.67135 -0.170427 0)
(8.6772 -0.171142 0)
(8.68212 -0.171966 0)
(8.68614 -0.172894 0)
(8.68932 -0.173917 0)
(8.6917 -0.175013 0)
(8.69334 -0.176156 0)
(8.69427 -0.177315 0)
(8.69456 -0.178451 0)
(8.69423 -0.179531 0)
(8.6934 -0.180487 0)
(8.33359 -0.0148304 0)
(8.33958 -0.0437192 0)
(8.35209 -0.0703279 0)
(8.36934 -0.093965 0)
(8.38966 -0.11447 0)
(8.41207 -0.131845 0)
(8.43567 -0.146199 0)
(8.45967 -0.15777 0)
(8.48346 -0.166864 0)
(8.50661 -0.173813 0)
(8.52881 -0.178944 0)
(8.54984 -0.182574 0)
(8.56955 -0.18499 0)
(8.58786 -0.186453 0)
(8.60474 -0.187186 0)
(8.62018 -0.187383 0)
(8.63422 -0.187205 0)
(8.6469 -0.186788 0)
(8.65826 -0.186239 0)
(8.66836 -0.185643 0)
(8.67727 -0.185065 0)
(8.68505 -0.184555 0)
(8.69177 -0.184143 0)
(8.69748 -0.183849 0)
(8.70224 -0.183681 0)
(8.70613 -0.183637 0)
(8.70918 -0.183705 0)
(8.71146 -0.183869 0)
(8.71303 -0.184104 0)
(8.71393 -0.18438 0)
(8.71423 -0.184665 0)
(8.71396 -0.184926 0)
(8.71322 -0.185105 0)
(8.33365 -0.0175674 0)
(8.3404 -0.0514938 0)
(8.3545 -0.081992 0)
(8.37375 -0.108197 0)
(8.39626 -0.13016 0)
(8.42098 -0.148153 0)
(8.44695 -0.162528 0)
(8.47324 -0.173715 0)
(8.49918 -0.182154 0)
(8.52429 -0.188261 0)
(8.54821 -0.192422 0)
(8.57072 -0.19499 0)
(8.59167 -0.196281 0)
(8.611 -0.196572 0)
(8.62869 -0.196106 0)
(8.64477 -0.195088 0)
(8.65928 -0.193691 0)
(8.67228 -0.192058 0)
(8.68385 -0.190306 0)
(8.69408 -0.188527 0)
(8.70303 -0.18679 0)
(8.7108 -0.185148 0)
(8.71746 -0.183635 0)
(8.72309 -0.182274 0)
(8.72777 -0.181075 0)
(8.73155 -0.180038 0)
(8.73452 -0.179154 0)
(8.73674 -0.178408 0)
(8.73828 -0.177781 0)
(8.73919 -0.177246 0)
(8.73955 -0.176775 0)
(8.73941 -0.176341 0)
(8.73889 -0.175889 0)
(8.3339 -0.0210656 0)
(8.34267 -0.0621361 0)
(8.36037 -0.0993523 0)
(8.38375 -0.131518 0)
(8.41024 -0.158438 0)
(8.43858 -0.180165 0)
(8.46771 -0.197024 0)
(8.49669 -0.209589 0)
(8.52491 -0.218499 0)
(8.55192 -0.224372 0)
(8.57745 -0.22778 0)
(8.60128 -0.229236 0)
(8.62331 -0.229183 0)
(8.64352 -0.227996 0)
(8.6619 -0.225984 0)
(8.67849 -0.223403 0)
(8.69337 -0.220459 0)
(8.70663 -0.217316 0)
(8.71834 -0.2141 0)
(8.72861 -0.210909 0)
(8.73753 -0.207816 0)
(8.74521 -0.204871 0)
(8.75174 -0.20211 0)
(8.7572 -0.199551 0)
(8.76168 -0.197203 0)
(8.76526 -0.195067 0)
(8.76803 -0.193132 0)
(8.77006 -0.191386 0)
(8.77141 -0.189811 0)
(8.77217 -0.188383 0)
(8.77239 -0.187077 0)
(8.77214 -0.185867 0)
(8.77151 -0.184703 0)
(8.33386 -0.025063 0)
(8.34346 -0.0721938 0)
(8.36356 -0.112298 0)
(8.39034 -0.145132 0)
(8.42091 -0.171778 0)
(8.4538 -0.192908 0)
(8.48752 -0.209084 0)
(8.52081 -0.220958 0)
(8.55289 -0.229154 0)
(8.58325 -0.234245 0)
(8.61156 -0.236768 0)
(8.63765 -0.237222 0)
(8.66146 -0.23605 0)
(8.683 -0.233641 0)
(8.70234 -0.23033 0)
(8.71958 -0.226398 0)
(8.73485 -0.222078 0)
(8.74827 -0.217558 0)
(8.75999 -0.212984 0)
(8.77012 -0.208471 0)
(8.77881 -0.204103 0)
(8.78618 -0.19994 0)
(8.79235 -0.196021 0)
(8.79741 -0.19237 0)
(8.80148 -0.188998 0)
(8.80465 -0.185907 0)
(8.807 -0.183089 0)
(8.80863 -0.180533 0)
(8.80961 -0.178223 0)
(8.81002 -0.176142 0)
(8.80996 -0.174264 0)
(8.80948 -0.17257 0)
(8.80871 -0.171008 0)
(8.33496 -0.0318827 0)
(8.35118 -0.0942565 0)
(8.37997 -0.148542 0)
(8.41424 -0.192633 0)
(8.45053 -0.226898 0)
(8.48792 -0.252155 0)
(8.52525 -0.269728 0)
(8.56142 -0.281095 0)
(8.5958 -0.287539 0)
(8.62799 -0.290133 0)
(8.65771 -0.289783 0)
(8.68485 -0.287231 0)
(8.70937 -0.283071 0)
(8.73136 -0.277778 0)
(8.75093 -0.271731 0)
(8.76822 -0.265227 0)
(8.78339 -0.258501 0)
(8.79662 -0.251731 0)
(8.80808 -0.245054 0)
(8.81792 -0.238571 0)
(8.82631 -0.232352 0)
(8.83338 -0.226448 0)
(8.83927 -0.220888 0)
(8.8441 -0.215687 0)
(8.84797 -0.210851 0)
(8.85099 -0.206375 0)
(8.85324 -0.202253 0)
(8.85482 -0.198473 0)
(8.8558 -0.195021 0)
(8.85626 -0.191885 0)
(8.85627 -0.189049 0)
(8.85592 -0.186498 0)
(8.8553 -0.184179 0)
(8.33401 -0.0368088 0)
(8.34973 -0.10026 0)
(8.38338 -0.149789 0)
(8.42576 -0.190124 0)
(8.47136 -0.223246 0)
(8.51776 -0.248896 0)
(8.56286 -0.267528 0)
(8.60545 -0.280043 0)
(8.6452 -0.287299 0)
(8.68202 -0.290173 0)
(8.71595 -0.289552 0)
(8.74712 -0.286253 0)
(8.77569 -0.280982 0)
(8.80184 -0.274337 0)
(8.82572 -0.266807 0)
(8.84749 -0.258777 0)
(8.86729 -0.250548 0)
(8.88524 -0.242346 0)
(8.90149 -0.234334 0)
(8.91614 -0.226631 0)
(8.92932 -0.219313 0)
(8.94115 -0.212428 0)
(8.95172 -0.206001 0)
(8.96113 -0.200039 0)
(8.96949 -0.194539 0)
(8.97688 -0.18949 0)
(8.98338 -0.184875 0)
(8.98907 -0.18068 0)
(8.99403 -0.176894 0)
(8.99833 -0.173506 0)
(9.00208 -0.170517 0)
(9.00536 -0.167929 0)
(9.00832 -0.165707 0)
(8.33958 -0.0608566 0)
(8.3769 -0.17078 0)
(8.42584 -0.249733 0)
(8.47525 -0.303331 0)
(8.52719 -0.338687 0)
(8.58315 -0.360187 0)
(8.64155 -0.371927 0)
(8.70107 -0.376995 0)
(8.76074 -0.37734 0)
(8.81947 -0.374286 0)
(8.87624 -0.36877 0)
(8.93028 -0.361464 0)
(8.98107 -0.352865 0)
(9.02826 -0.343365 0)
(9.07168 -0.333279 0)
(9.11128 -0.322867 0)
(9.14714 -0.312345 0)
(9.17941 -0.301893 0)
(9.2083 -0.29165 0)
(9.23403 -0.281728 0)
(9.25685 -0.272208 0)
(9.277 -0.263143 0)
(9.29473 -0.254571 0)
(9.31026 -0.246508 0)
(9.32381 -0.23896 0)
(9.33556 -0.231923 0)
(9.3457 -0.225388 0)
(9.35438 -0.21935 0)
(9.36174 -0.213813 0)
(9.3679 -0.208782 0)
(9.37299 -0.204316 0)
(9.37713 -0.200424 0)
(9.38056 -0.19729 0)
(8.33757 -0.0467917 0)
(8.39333 -0.121694 0)
(8.49334 -0.18612 0)
(8.60779 -0.248288 0)
(8.72919 -0.301685 0)
(8.85203 -0.343129 0)
(8.96938 -0.373332 0)
(9.0771 -0.393179 0)
(9.17299 -0.403822 0)
(9.25587 -0.406851 0)
(9.32548 -0.403895 0)
(9.38232 -0.396422 0)
(9.42728 -0.385704 0)
(9.46149 -0.372794 0)
(9.48622 -0.358538 0)
(9.50272 -0.343597 0)
(9.5122 -0.328473 0)
(9.51576 -0.313537 0)
(9.51437 -0.299054 0)
(9.50891 -0.285202 0)
(9.50012 -0.272094 0)
(9.48864 -0.259791 0)
(9.475 -0.248315 0)
(9.45965 -0.237659 0)
(9.44296 -0.227797 0)
(9.42522 -0.218687 0)
(9.40668 -0.210281 0)
(9.3875 -0.20253 0)
(9.36783 -0.195402 0)
(9.34771 -0.188876 0)
(9.32728 -0.183062 0)
(9.30625 -0.177932 0)
(9.28539 -0.17453 0)
(8.40925 -0.221529 0)
(8.6349 -0.428975 0)
(8.83281 -0.523624 0)
(8.97609 -0.58454 0)
(9.06911 -0.617524 0)
(9.11092 -0.628184 0)
(9.10588 -0.624105 0)
(9.06345 -0.609367 0)
(8.99256 -0.586814 0)
(8.9007 -0.559022 0)
(8.7944 -0.52806 0)
(8.67903 -0.49552 0)
(8.55881 -0.462628 0)
(8.43696 -0.430305 0)
(8.31585 -0.3992 0)
(8.19718 -0.369743 0)
(8.08212 -0.342193 0)
(7.97142 -0.316677 0)
(7.86553 -0.293226 0)
(7.76466 -0.271803 0)
(7.66884 -0.252322 0)
(7.57801 -0.234668 0)
(7.49201 -0.218709 0)
(7.41063 -0.204301 0)
(7.33364 -0.191295 0)
(7.26078 -0.179541 0)
(7.19179 -0.168883 0)
(7.12637 -0.159173 0)
(7.06423 -0.150232 0)
(7.00493 -0.141898 0)
(6.9481 -0.134075 0)
(6.89254 -0.125881 0)
(6.83879 -0.12101 0)
(8.13703 -0.207281 0)
(7.84733 -0.388337 0)
(7.38447 -0.439786 0)
(6.85833 -0.440439 0)
(6.35797 -0.409101 0)
(5.88636 -0.360079 0)
(5.44613 -0.305667 0)
(5.04472 -0.252269 0)
(4.68321 -0.203113 0)
(4.35963 -0.159817 0)
(4.07163 -0.122826 0)
(3.81636 -0.0919124 0)
(3.59064 -0.0665331 0)
(3.3913 -0.0459946 0)
(3.21533 -0.029569 0)
(3.05995 -0.0165681 0)
(2.9226 -0.00637805 0)
(2.80101 0.00153033 0)
(2.69314 0.00760163 0)
(2.59721 0.0122034 0)
(2.51165 0.0156361 0)
(2.43512 0.0181441 0)
(2.36642 0.0199264 0)
(2.30454 0.0211453 0)
(2.24861 0.0219399 0)
(2.19789 0.0224308 0)
(2.15174 0.0227507 0)
(2.10972 0.0230342 0)
(2.07128 0.0235259 0)
(2.0366 0.0245669 0)
(2.00472 0.0264908 0)
(1.97782 0.0322275 0)
(1.9538 0.0270391 0)
(1.53904 0.00448656 0)
(1.9374 0.314322 0)
(2.76397 0.632341 0)
(3.68533 0.820269 0)