/*--------------------------------*- C++ -*----------------------------------*\
| =========                 |                                                 |
| \\      /  F ield         | OpenFOAM: The Open Source CFD Toolbox           |
|  \\    /   O peration     | Version:  2.1.1                                 |
|   \\  /    A nd           | Web:      www.OpenFOAM.org                      |
|    \\/     M anipulation  |                                                 |
\*---------------------------------------------------------------------------*/
FoamFile
{
    version     2.0;
    format      ascii;
    class       volScalarField;
    location    "0.105";
    object      nuSgs;
}
// * * * * * * * * * * * * * * * * * * * * * * * * * * * * * * * * * * * * * //

dimensions      [0 2 -1 0 0 0 0];

internalField   nonuniform List<scalar> 
6820
(
0.000556014
0.000457433
0.000368211
0.000306257
0.00026913
0.000243588
0.000224816
0.000210486
0.000198935
0.000189257
0.000180937
0.000173642
0.00016715
0.000161306
0.000155996
0.000151133
0.000146653
0.000142503
0.000138643
0.000135039
0.000131661
0.000128487
0.000125497
0.000122672
0.000119996
0.000117454
0.000115027
0.000112703
0.000110461
0.000108306
0.000106183
0.000104036
0.000101221
0.000103489
0.000170643
0.000223621
0.000239999
0.000235268
0.000224939
0.000213286
0.000202048
0.000191867
0.000182758
0.0001746
0.00016726
0.000160613
0.000154556
0.000149005
0.000143889
0.000139152
0.000134744
0.000130627
0.000126767
0.000123134
0.000119705
0.00011646
0.000113382
0.000110455
0.000107665
0.000105007
0.000102463
0.000100043
9.76821e-05
9.55196e-05
9.31095e-05
9.16722e-05
3.67755e-05
2.84845e-05
4.55735e-05
8.22104e-05
0.000107816
0.000123386
0.000131802
0.000135652
0.000136761
0.000136201
0.000134609
0.000132383
0.000129769
0.00012693
0.000123973
0.000120968
0.00011796
0.000114982
0.000112054
0.000109188
0.000106392
0.000103672
0.000101029
9.84647e-05
9.59765e-05
9.35647e-05
9.12305e-05
8.89707e-05
8.67881e-05
8.46651e-05
8.2628e-05
8.05577e-05
7.8671e-05
2.0736e-05
2.8692e-05
2.65808e-05
1.51372e-05
3.67268e-06
1.36981e-05
2.54592e-05
3.5215e-05
4.30684e-05
4.92949e-05
5.41705e-05
5.79397e-05
6.0805e-05
6.29249e-05
6.4432e-05
6.54361e-05
6.60273e-05
6.62795e-05
6.62535e-05
6.59992e-05
6.55581e-05
6.49641e-05
6.42457e-05
6.34266e-05
6.25284e-05
6.15694e-05
6.05634e-05
5.95243e-05
5.84661e-05
5.73961e-05
5.63406e-05
5.53333e-05
5.44884e-05
1.44173e-05
1.75952e-05
2.26138e-05
2.43072e-05
2.39875e-05
2.20309e-05
1.91783e-05
1.59687e-05
1.26343e-05
9.32373e-06
6.14391e-06
3.17517e-06
7.7781e-07
2.35542e-06
4.60432e-06
6.64827e-06
8.46682e-06
1.00668e-05
1.1461e-05
1.26639e-05
1.36909e-05
1.45573e-05
1.5278e-05
1.58673e-05
1.63395e-05
1.67076e-05
1.69855e-05
1.7187e-05
1.73278e-05
1.7426e-05
1.7502e-05
1.76039e-05
1.77591e-05
1.09159e-05
1.25095e-05
1.38386e-05
1.43424e-05
1.51158e-05
1.57412e-05
1.61053e-05
1.6303e-05
1.63396e-05
1.62211e-05
1.59725e-05
1.56176e-05
1.51805e-05
1.46774e-05
1.41263e-05
1.35441e-05
1.29457e-05
1.23433e-05
1.17469e-05
1.11639e-05
1.06001e-05
1.00596e-05
9.54495e-06
9.05748e-06
8.5972e-06
8.16294e-06
7.75256e-06
7.36227e-06
6.98675e-06
6.61748e-06
6.24454e-06
5.84629e-06
5.41882e-06
8.23874e-06
9.43935e-06
1.02675e-05
1.0068e-05
9.87677e-06
9.69357e-06
9.5017e-06
9.40395e-06
9.38964e-06
9.41494e-06
9.4532e-06
9.48706e-06
9.505e-06
9.50487e-06
9.48513e-06
9.44512e-06
9.38525e-06
9.3067e-06
9.21101e-06
9.09984e-06
8.97481e-06
8.83748e-06
8.68921e-06
8.53112e-06
8.36389e-06
8.1879e-06
8.00381e-06
7.81091e-06
7.60784e-06
7.39524e-06
7.1711e-06
6.93427e-06
6.69091e-06
6.35346e-06
7.41955e-06
8.23696e-06
8.10455e-06
7.79596e-06
7.45707e-06
7.07961e-06
6.75519e-06
6.50265e-06
6.30115e-06
6.13783e-06
6.0037e-06
5.88993e-06
5.78989e-06
5.69927e-06
5.61505e-06
5.53482e-06
5.45672e-06
5.37933e-06
5.30153e-06
5.22245e-06
5.14143e-06
5.05793e-06
4.9715e-06
4.8817e-06
4.78836e-06
4.69106e-06
4.59004e-06
4.48528e-06
4.37665e-06
4.26594e-06
4.15974e-06
4.07082e-06
4.99163e-06
5.86835e-06
6.5631e-06
6.56256e-06
6.39765e-06
6.19212e-06
5.91092e-06
5.62692e-06
5.37882e-06
5.16297e-06
4.97461e-06
4.81032e-06
4.66527e-06
4.53527e-06
4.41743e-06
4.30956e-06
4.20988e-06
4.11699e-06
4.02977e-06
3.9473e-06
3.86877e-06
3.79349e-06
3.72081e-06
3.65015e-06
3.58113e-06
3.51326e-06
3.44611e-06
3.37986e-06
3.3154e-06
3.25476e-06
3.20241e-06
3.16712e-06
3.16364e-06
3.98479e-06
4.71546e-06
5.3302e-06
5.40859e-06
5.31063e-06
5.16549e-06
4.95175e-06
4.72507e-06
4.52353e-06
4.34643e-06
4.18933e-06
4.05012e-06
3.92577e-06
3.81336e-06
3.71084e-06
3.61675e-06
3.52989e-06
3.4493e-06
3.37417e-06
3.30384e-06
3.23771e-06
3.17528e-06
3.11611e-06
3.05993e-06
3.00645e-06
2.95571e-06
2.90812e-06
2.86455e-06
2.82664e-06
2.79742e-06
2.7822e-06
2.78926e-06
2.83148e-06
3.22413e-06
3.84118e-06
4.38678e-06
4.50789e-06
4.45956e-06
4.36441e-06
4.20785e-06
4.02741e-06
3.85821e-06
3.7048e-06
3.56593e-06
3.44168e-06
3.33073e-06
3.23105e-06
3.141e-06
3.0593e-06
2.98482e-06
2.91663e-06
2.85394e-06
2.79613e-06
2.7427e-06
2.69326e-06
2.64758e-06
2.60554e-06
2.56722e-06
2.53301e-06
2.50365e-06
2.48045e-06
2.46562e-06
2.46256e-06
2.47643e-06
2.51364e-06
2.58442e-06
2.63654e-06
3.1639e-06
3.658e-06
3.81526e-06
3.81351e-06
3.7577e-06
3.64149e-06
3.49384e-06
3.34822e-06
3.21326e-06
3.08966e-06
2.97828e-06
2.87868e-06
2.78942e-06
2.70921e-06
2.637e-06
2.57188e-06
2.51304e-06
2.45986e-06
2.41181e-06
2.36853e-06
2.32972e-06
2.29528e-06
2.26524e-06
2.23987e-06
2.21976e-06
2.2059e-06
2.19983e-06
2.20377e-06
2.22077e-06
2.25504e-06
2.31086e-06
2.39604e-06
2.17241e-06
2.63133e-06
3.08729e-06
3.27026e-06
3.30456e-06
3.27975e-06
3.19765e-06
3.08118e-06
2.95965e-06
2.84325e-06
2.7341e-06
2.63399e-06
2.54353e-06
2.46219e-06
2.38921e-06
2.3239e-06
2.26561e-06
2.21369e-06
2.16764e-06
2.12701e-06
2.09151e-06
2.06095e-06
2.03529e-06
2.01468e-06
1.99951e-06
1.99043e-06
1.98847e-06
1.99505e-06
2.01212e-06
2.04215e-06
2.08828e-06
2.15304e-06
2.24255e-06
1.79814e-06
2.20597e-06
2.6335e-06
2.83661e-06
2.90209e-06
2.90476e-06
2.85141e-06
2.76098e-06
2.65923e-06
2.55775e-06
2.46034e-06
2.36963e-06
2.28701e-06
2.21255e-06
2.14588e-06
2.08654e-06
2.03403e-06
1.98788e-06
1.94764e-06
1.91301e-06
1.88373e-06
1.85972e-06
1.84099e-06
1.82776e-06
1.82043e-06
1.81964e-06
1.82632e-06
1.84168e-06
1.86728e-06
1.90491e-06
1.95674e-06
2.024e-06
2.11155e-06
1.49026e-06
1.86161e-06
2.26873e-06
2.48817e-06
2.5796e-06
2.60513e-06
2.57519e-06
2.50677e-06
2.42269e-06
2.33505e-06
2.24867e-06
2.16671e-06
2.09109e-06
2.0224e-06
1.96069e-06
1.90579e-06
1.85744e-06
1.81533e-06
1.77915e-06
1.74868e-06
1.72377e-06
1.70434e-06
1.69048e-06
1.68239e-06
1.68043e-06
1.68516e-06
1.69733e-06
1.71787e-06
1.7479e-06
1.78862e-06
1.84142e-06
1.90666e-06
1.98839e-06
1.23215e-06
1.57957e-06
1.97273e-06
2.20575e-06
2.31916e-06
2.36473e-06
2.35501e-06
2.30574e-06
2.23716e-06
2.16139e-06
2.08415e-06
2.0092e-06
1.93897e-06
1.87459e-06
1.81647e-06
1.76473e-06
1.71929e-06
1.67997e-06
1.64659e-06
1.61897e-06
1.59702e-06
1.5807e-06
1.57007e-06
1.56532e-06
1.56672e-06
1.57471e-06
1.58983e-06
1.61274e-06
1.64416e-06
1.68484e-06
1.73558e-06
1.79618e-06
1.87013e-06
1.01183e-06
1.34649e-06
1.73122e-06
1.97589e-06
2.10801e-06
2.17098e-06
2.17843e-06
2.14535e-06
2.09005e-06
2.02453e-06
1.95519e-06
1.88623e-06
1.82049e-06
1.75949e-06
1.70398e-06
1.65428e-06
1.61052e-06
1.57268e-06
1.54066e-06
1.51438e-06
1.49378e-06
1.47886e-06
1.46966e-06
1.46631e-06
1.46902e-06
1.47807e-06
1.49382e-06
1.51668e-06
1.54706e-06
1.58533e-06
1.63191e-06
1.68627e-06
1.75146e-06
8.20673e-07
1.15305e-06
1.53406e-06
1.78886e-06
1.93691e-06
2.01507e-06
2.03736e-06
2.01825e-06
1.97451e-06
1.91784e-06
1.85508e-06
1.79086e-06
1.72835e-06
1.66945e-06
1.61522e-06
1.56625e-06
1.52285e-06
1.48514e-06
1.45314e-06
1.42683e-06
1.4062e-06
1.39123e-06
1.38196e-06
1.37846e-06
1.38084e-06
1.38927e-06
1.40392e-06
1.425e-06
1.45268e-06
1.48709e-06
1.52836e-06
1.57579e-06
1.63209e-06
6.52714e-07
9.93143e-07
1.37426e-06
1.63788e-06
1.79945e-06
1.89078e-06
1.92583e-06
1.9186e-06
1.88463e-06
1.83531e-06
1.77781e-06
1.71712e-06
1.6567e-06
1.59877e-06
1.54469e-06
1.49528e-06
1.45101e-06
1.41213e-06
1.37879e-06
1.35102e-06
1.32886e-06
1.31232e-06
1.30141e-06
1.29617e-06
1.29663e-06
1.30285e-06
1.31489e-06
1.33279e-06
1.35655e-06
1.38613e-06
1.42147e-06
1.46179e-06
1.50949e-06
5.04703e-07
8.63502e-07
1.24726e-06
1.51833e-06
1.69119e-06
1.79381e-06
1.83976e-06
1.84259e-06
1.81685e-06
1.77359e-06
1.7202e-06
1.66192e-06
1.6025e-06
1.54446e-06
1.48939e-06
1.43832e-06
1.39193e-06
1.3506e-06
1.31457e-06
1.28398e-06
1.25891e-06
1.23939e-06
1.22543e-06
1.21705e-06
1.21424e-06
1.21698e-06
1.22523e-06
1.23892e-06
1.25793e-06
1.28212e-06
1.3113e-06
1.34469e-06
1.38444e-06
3.77575e-07
7.6357e-07
1.15049e-06
1.42728e-06
1.60926e-06
1.72137e-06
1.77648e-06
1.78764e-06
1.76857e-06
1.72997e-06
1.67935e-06
1.62218e-06
1.56248e-06
1.50298e-06
1.44555e-06
1.39143e-06
1.34145e-06
1.29617e-06
1.25594e-06
1.22099e-06
1.19146e-06
1.16745e-06
1.14898e-06
1.13608e-06
1.12873e-06
1.12686e-06
1.13038e-06
1.13916e-06
1.15302e-06
1.17171e-06
1.19498e-06
1.22203e-06
1.25475e-06
2.81472e-07
6.95194e-07
1.08288e-06
1.36317e-06
1.55209e-06
1.67191e-06
1.73458e-06
1.75256e-06
1.73885e-06
1.70381e-06
1.65501e-06
1.5981e-06
1.53727e-06
1.47549e-06
1.41482e-06
1.35669e-06
1.30209e-06
1.2517e-06
1.206e-06
1.16531e-06
1.12988e-06
1.09985e-06
1.07535e-06
1.05643e-06
1.04309e-06
1.0353e-06
1.03297e-06
1.03593e-06
1.04398e-06
1.05685e-06
1.07424e-06
1.09537e-06
1.12192e-06
2.43856e-07
6.61713e-07
1.04451e-06
1.32548e-06
1.51906e-06
1.64474e-06
1.71328e-06
1.73638e-06
1.72639e-06
1.69332e-06
1.64475e-06
1.58648e-06
1.52287e-06
1.45712e-06
1.39149e-06
1.32761e-06
1.26663e-06
1.20938e-06
1.15646e-06
1.10832e-06
1.0653e-06
1.02767e-06
9.95621e-07
9.69312e-07
9.48835e-07
9.34222e-07
9.25427e-07
9.22333e-07
9.24718e-07
9.32296e-07
9.44715e-07
9.61168e-07
9.83046e-07
2.86791e-07
6.6606e-07
1.03615e-06
1.31458e-06
1.51062e-06
1.64059e-06
1.71379e-06
1.74107e-06
1.73415e-06
1.7027e-06
1.65422e-06
1.59455e-06
1.52818e-06
1.45841e-06
1.38766e-06
1.31767e-06
1.24974e-06
1.18479e-06
1.12355e-06
1.06656e-06
1.01427e-06
9.67092e-07
9.25355e-07
8.89372e-07
8.59407e-07
8.35667e-07
8.1827e-07
8.07241e-07
8.02459e-07
8.037e-07
8.10607e-07
8.22385e-07
8.40204e-07
3.88146e-07
7.0883e-07
1.05885e-06
1.33143e-06
1.52752e-06
1.65968e-06
1.73538e-06
1.76448e-06
1.7581e-06
1.72564e-06
1.67458e-06
1.61089e-06
1.53922e-06
1.46306e-06
1.38499e-06
1.3069e-06
1.23018e-06
1.15586e-06
1.08473e-06
1.01739e-06
9.54405e-07
8.96249e-07
8.43413e-07
7.96389e-07
7.55678e-07
7.21764e-07
6.95069e-07
6.75904e-07
6.64369e-07
6.60362e-07
6.63505e-07
6.72901e-07
6.89323e-07
5.21827e-07
7.88149e-07
1.11373e-06
1.37797e-06
1.57273e-06
1.70669e-06
1.78531e-06
1.81735e-06
1.81317e-06
1.78173e-06
1.73025e-06
1.66462e-06
1.58952e-06
1.50849e-06
1.42422e-06
1.3387e-06
1.25344e-06
1.16954e-06
1.08785e-06
1.00904e-06
9.33681e-07
8.62311e-07
7.95482e-07
7.33808e-07
6.78002e-07
6.28888e-07
5.87372e-07
5.54392e-07
5.30727e-07
5.16899e-07
5.12897e-07
5.17931e-07
5.32415e-07
6.78931e-07
9.02332e-07
1.20274e-06
1.45638e-06
1.64685e-06
1.77879e-06
1.8555e-06
1.88484e-06
1.87692e-06
1.84066e-06
1.78342e-06
1.71124e-06
1.62892e-06
1.54013e-06
1.4476e-06
1.35335e-06
1.25886e-06
1.1652e-06
1.07317e-06
9.8337e-07
8.96274e-07
8.12324e-07
7.3198e-07
6.55793e-07
5.84485e-07
5.19056e-07
4.60881e-07
4.11816e-07
3.74093e-07
3.50008e-07
3.40964e-07
3.46492e-07
3.65897e-07
8.59022e-07
1.04975e-06
1.32718e-06
1.57118e-06
1.76011e-06
1.89523e-06
1.97714e-06
2.01186e-06
2.00832e-06
1.97472e-06
1.91802e-06
1.84423e-06
1.75828e-06
1.66409e-06
1.56468e-06
1.46232e-06
1.35872e-06
1.25513e-06
1.15245e-06
1.05131e-06
9.52163e-07
8.55349e-07
7.61127e-07
6.69741e-07
5.81469e-07
4.96704e-07
4.16067e-07
3.40666e-07
2.72536e-07
2.15837e-07
1.77999e-07
1.68278e-07
1.88905e-07
1.06772e-06
1.23631e-06
1.49465e-06
1.7256e-06
1.90384e-06
2.02861e-06
2.09977e-06
2.12382e-06
2.11043e-06
2.06813e-06
2.00391e-06
1.92357e-06
1.83181e-06
1.73225e-06
1.62767e-06
1.52016e-06
1.41131e-06
1.30228e-06
1.19394e-06
1.08692e-06
9.81641e-07
8.7844e-07
7.77538e-07
6.79103e-07
5.83267e-07
4.90153e-07
3.9989e-07
3.12665e-07
2.28761e-07
1.49031e-07
7.67366e-08
4.47647e-08
9.54605e-08
1.30949e-06
1.45862e-06
1.70343e-06
1.93386e-06
2.12323e-06
2.26554e-06
2.35441e-06
2.39248e-06
2.38793e-06
2.34913e-06
2.28365e-06
2.19831e-06
2.09887e-06
1.98991e-06
1.87498e-06
1.75677e-06
1.63729e-06
1.51801e-06
1.4e-06
1.28403e-06
1.17066e-06
1.06033e-06
9.53374e-07
8.50141e-07
7.50993e-07
6.56393e-07
5.66983e-07
4.8373e-07
4.08097e-07
3.42512e-07
2.90388e-07
2.56874e-07
2.44427e-07
1.60506e-06
1.75151e-06
1.98375e-06
2.18721e-06
2.34144e-06
2.44901e-06
2.50921e-06
2.52754e-06
2.51228e-06
2.46997e-06
2.40575e-06
2.32434e-06
2.22992e-06
2.12604e-06
2.01567e-06
1.90132e-06
1.78502e-06
1.66843e-06
1.55289e-06
1.43947e-06
1.32906e-06
1.2224e-06
1.12017e-06
1.02302e-06
9.31615e-07
8.4672e-07
7.69197e-07
7.0005e-07
6.4038e-07
5.91373e-07
5.53943e-07
5.29059e-07
5.15417e-07
1.94663e-06
2.06979e-06
2.31389e-06
2.56797e-06
2.79025e-06
2.95834e-06
3.05727e-06
3.09143e-06
3.07423e-06
3.01815e-06
2.93352e-06
2.82898e-06
2.71134e-06
2.58561e-06
2.45543e-06
2.32346e-06
2.19166e-06
2.06146e-06
1.93394e-06
1.80994e-06
1.69017e-06
1.5752e-06
1.46557e-06
1.36179e-06
1.26436e-06
1.17379e-06
1.09061e-06
1.01536e-06
9.48523e-07
8.90589e-07
8.41709e-07
8.02388e-07
7.7086e-07
2.42856e-06
2.5843e-06
2.77539e-06
2.90554e-06
3.00535e-06
3.09583e-06
3.16659e-06
3.20953e-06
3.2226e-06
3.20502e-06
3.15821e-06
3.08614e-06
2.99379e-06
2.88606e-06
2.76743e-06
2.64183e-06
2.51251e-06
2.38209e-06
2.25263e-06
2.12577e-06
2.00277e-06
1.88461e-06
1.77206e-06
1.66574e-06
1.56615e-06
1.47368e-06
1.38866e-06
1.31136e-06
1.24196e-06
1.18059e-06
1.12721e-06
1.08219e-06
1.04375e-06
2.9058e-06
3.01417e-06
3.3939e-06
3.79462e-06
4.09477e-06
4.27175e-06
4.33439e-06
4.3136e-06
4.23923e-06
4.12953e-06
3.99577e-06
3.84606e-06
3.68606e-06
3.51976e-06
3.35033e-06
3.18044e-06
3.01237e-06
2.84808e-06
2.68917e-06
2.53697e-06
2.3925e-06
2.25654e-06
2.12961e-06
2.01207e-06
1.90409e-06
1.80566e-06
1.71666e-06
1.63685e-06
1.56587e-06
1.50337e-06
1.44872e-06
1.40215e-06
1.36125e-06
3.94575e-06
4.0501e-06
3.95607e-06
3.86882e-06
3.95799e-06
4.15569e-06
4.33874e-06
4.45648e-06
4.505e-06
4.49408e-06
4.44053e-06
4.36284e-06
4.27599e-06
4.19031e-06
4.11208e-06
4.04433e-06
3.9878e-06
3.94177e-06
3.90479e-06
3.87519e-06
3.8513e-06
3.83164e-06
3.81498e-06
3.80026e-06
3.78667e-06
3.77348e-06
3.76012e-06
3.74607e-06
3.73094e-06
3.71452e-06
3.69669e-06
3.67885e-06
3.65914e-06
4.40469e-06
4.96499e-06
5.92752e-06
6.397e-06
6.49632e-06
6.45471e-06
6.42943e-06
6.52822e-06
6.78206e-06
7.15845e-06
7.60587e-06
8.07791e-06
8.5391e-06
8.96563e-06
9.34372e-06
9.66695e-06
9.93376e-06
1.01457e-05
1.03063e-05
1.042e-05
1.04915e-05
1.05258e-05
1.05276e-05
1.05011e-05
1.04501e-05
1.0378e-05
1.02875e-05
1.01808e-05
1.00599e-05
9.9259e-06
9.78056e-06
9.62603e-06
9.46352e-06
7.59604e-06
5.85082e-06
4.6133e-06
6.17916e-06
8.90724e-06
1.16209e-05
1.39578e-05
1.58551e-05
1.73103e-05
1.83366e-05
1.89702e-05
1.92586e-05
1.92513e-05
1.89982e-05
1.85465e-05
1.79396e-05
1.72159e-05
1.64083e-05
1.55446e-05
1.46475e-05
1.37356e-05
1.28233e-05
1.19219e-05
1.10398e-05
1.01832e-05
9.35619e-06
8.5611e-06
7.79861e-06
7.06864e-06
6.36763e-06
5.69617e-06
5.04184e-06
4.41581e-06
8.59144e-06
1.47081e-05
1.87946e-05
2.11825e-05
2.22514e-05
2.17517e-05
1.98599e-05
1.70325e-05
1.37501e-05
1.0669e-05
8.87133e-06
9.44761e-06
1.20081e-05
1.54181e-05
1.90174e-05
2.25197e-05
2.57998e-05
2.88039e-05
3.15129e-05
3.39265e-05
3.60546e-05
3.79128e-05
3.95197e-05
4.08947e-05
4.20576e-05
4.30273e-05
4.38224e-05
4.4461e-05
4.49606e-05
4.53434e-05
4.56258e-05
4.58671e-05
4.60573e-05
3.46798e-05
3.72543e-05
4.67173e-05
6.18869e-05
7.76475e-05
9.31063e-05
0.000107557
0.000120291
0.000131116
0.000140075
0.000147279
0.00015289
0.000157095
0.000160081
0.000162022
0.000163079
0.000163393
0.00016309
0.000162275
0.000161043
0.00015947
0.000157622
0.000155555
0.000153314
0.000150938
0.000148458
0.0001459
0.00014328
0.000140619
0.00013792
0.000135187
0.000132507
0.000129897
0.000608472
0.000582512
0.000556847
0.000530317
0.000504222
0.000478884
0.000454346
0.000430879
0.00040867
0.000387778
0.000368219
0.000349983
0.000333023
0.000317271
0.000302652
0.000289082
0.000276477
0.000264754
0.000253836
0.000243648
0.000234123
0.000225198
0.000216817
0.000208929
0.000201489
0.000194455
0.00018779
0.000181458
0.00017542
0.000169655
0.000164033
0.000159087
0.000154587
8.97677e-05
8.32047e-05
7.51432e-05
6.87818e-05
6.38065e-05
5.99493e-05
5.61597e-05
5.12727e-05
4.49772e-05
4.11509e-05
4.47426e-05
5.10287e-05
4.75276e-05
3.16964e-05
2.95348e-05
4.2999e-05
4.83544e-05
4.61768e-05
4.22712e-05
3.81526e-05
4.15216e-05
5.26134e-05
5.2484e-05
6.0985e-05
6.25885e-05
5.09945e-05
3.70037e-05
2.70704e-05
2.23158e-05
2.04175e-05
1.88528e-05
1.66775e-05
1.40782e-05
1.0824e-05
9.69652e-06
1.96719e-05
3.18146e-05
3.50579e-05
2.79805e-05
2.1628e-05
2.3162e-05
2.96615e-05
3.41888e-05
3.30442e-05
2.86056e-05
2.4122e-05
2.08191e-05
1.86391e-05
1.72777e-05
1.65867e-05
1.64687e-05
1.66302e-05
1.80765e-05
2.25522e-05
3.09773e-05
4.76057e-05
6.22773e-05
6.36756e-05
5.41381e-05
4.07911e-05
2.82225e-05
1.77721e-05
9.42351e-06
4.2653e-06
1.10172e-05
2.72653e-05
4.46894e-05
5.31738e-05
4.98447e-05
4.04299e-05
3.13671e-05
2.48215e-05
2.0141e-05
1.64969e-05
1.352e-05
1.10511e-05
8.98387e-06
7.23875e-06
5.76242e-06
4.52127e-06
3.49054e-06
2.64643e-06
1.96415e-06
1.42029e-06
9.97281e-07
6.87663e-07
4.91958e-07
4.01808e-07
3.77494e-07
3.71612e-07
3.62515e-07
3.50034e-07
3.42511e-07
3.44839e-07
3.58161e-07
3.70742e-07
3.85916e-07
3.67802e-07
3.85889e-07
2.75059e-07
0.000117634
0.000115444
0.000110409
0.000103872
9.6032e-05
8.7685e-05
7.94518e-05
7.1862e-05
6.62331e-05
6.42381e-05
6.30477e-05
5.48945e-05
3.49662e-05
2.02256e-05
3.52044e-05
4.60585e-05
4.67272e-05
4.31491e-05
4.02639e-05
3.73203e-05
3.69772e-05
4.71071e-05
5.16575e-05
5.61716e-05
6.31607e-05
5.55775e-05
4.14728e-05
2.98547e-05
2.35738e-05
2.09383e-05
1.91367e-05
1.68587e-05
1.37182e-05
8.59921e-06
8.96766e-06
2.26058e-05
3.43857e-05
3.47728e-05
2.58981e-05
2.09027e-05
2.40286e-05
3.11893e-05
3.497e-05
3.29461e-05
2.83067e-05
2.40335e-05
2.09586e-05
1.89207e-05
1.76397e-05
1.69775e-05
1.69093e-05
1.71382e-05
1.83138e-05
2.25387e-05
3.0231e-05
4.57369e-05
6.23327e-05
6.64184e-05
5.82587e-05
4.50627e-05
3.20524e-05
2.1052e-05
1.2669e-05
8.69729e-06
1.51877e-05
3.18865e-05
4.85224e-05
5.47688e-05
4.9515e-05
3.95357e-05
3.07894e-05
2.46261e-05
2.01545e-05
1.66236e-05
1.37182e-05
1.12876e-05
9.22768e-06
7.46585e-06
5.95854e-06
4.68064e-06
3.61331e-06
2.73594e-06
2.02505e-06
1.45769e-06
1.01633e-06
6.93074e-07
4.89477e-07
3.99553e-07
3.81084e-07
3.81349e-07
3.76799e-07
3.67473e-07
3.6213e-07
3.65671e-07
3.78981e-07
3.90548e-07
4.03647e-07
3.8404e-07
3.98541e-07
2.87696e-07
0.000103189
0.000105163
0.000106376
0.00010674
0.000105265
0.00010134
9.52287e-05
8.79072e-05
7.98965e-05
6.98574e-05
5.48291e-05
3.26626e-05
1.3577e-05
2.89536e-05
4.27766e-05
4.60769e-05
4.35622e-05
4.01738e-05
3.84193e-05
3.72241e-05
3.54717e-05
4.10819e-05
4.93667e-05
5.1443e-05
6.067e-05
5.95605e-05
4.72172e-05
3.3969e-05
2.53541e-05
2.12175e-05
1.87415e-05
1.59555e-05
1.15638e-05
3.98321e-06
1.16762e-05
2.741e-05
3.70652e-05
3.34458e-05
2.33422e-05
2.04566e-05
2.54092e-05
3.29852e-05
3.56128e-05
3.26502e-05
2.79082e-05
2.39002e-05
2.10643e-05
1.91659e-05
1.79615e-05
1.73267e-05
1.72845e-05
1.76025e-05
1.85641e-05
2.23039e-05
2.93918e-05
4.33433e-05
6.1374e-05
6.86617e-05
6.25621e-05
4.99441e-05
3.672e-05
2.53563e-05
1.7119e-05
1.38225e-05
2.06089e-05
3.7474e-05
5.25549e-05
5.59876e-05
4.87464e-05
3.84087e-05
3.01319e-05
2.44112e-05
2.01861e-05
1.67927e-05
1.39653e-05
1.15668e-05
9.50366e-06
7.71585e-06
6.17133e-06
4.85341e-06
3.74817e-06
2.83732e-06
2.09787e-06
1.50591e-06
1.04279e-06
7.00402e-07
4.82749e-07
3.89477e-07
3.77508e-07
3.86171e-07
3.88258e-07
3.83518e-07
3.8104e-07
3.85874e-07
3.99076e-07
4.09603e-07
4.21128e-07
4.00677e-07
4.13317e-07
3.04373e-07
7.22633e-05
7.42898e-05
7.6083e-05
7.76035e-05
7.83272e-05
7.73263e-05
7.36459e-05
6.64048e-05
5.47794e-05
3.84229e-05
1.77935e-05
8.92064e-06
2.80134e-05
4.03921e-05
4.39813e-05
4.22093e-05
3.93194e-05
3.72247e-05
3.63958e-05
3.66053e-05
3.54566e-05
3.71498e-05
4.5122e-05
4.81293e-05
5.50335e-05
6.09514e-05
5.37171e-05
4.03899e-05
2.90066e-05
2.20438e-05
1.77797e-05
1.3663e-05
7.46311e-06
4.03978e-06
1.87838e-05
3.35999e-05
3.87878e-05
3.03529e-05
2.0614e-05
2.05213e-05
2.75053e-05
3.48617e-05
3.58961e-05
3.20777e-05
2.74108e-05
2.37305e-05
2.1136e-05
1.93715e-05
1.82416e-05
1.76407e-05
1.7611e-05
1.80181e-05
1.88806e-05
2.20687e-05
2.85966e-05
4.06961e-05
5.9324e-05
7.01658e-05
6.6952e-05
5.54891e-05
4.23336e-05
3.07772e-05
2.27376e-05
2.00826e-05
2.76429e-05
4.40929e-05
5.64887e-05
5.64818e-05
4.7376e-05
3.70443e-05
2.94231e-05
2.41882e-05
2.02292e-05
1.69891e-05
1.42455e-05
1.18773e-05
9.80608e-06
7.98741e-06
6.40195e-06
5.04118e-06
3.89549e-06
2.94838e-06
2.17731e-06
1.55846e-06
1.07295e-06
7.12355e-07
4.82304e-07
3.86994e-07
3.81852e-07
3.98558e-07
4.06837e-07
4.06285e-07
4.06247e-07
4.11913e-07
4.24562e-07
4.33694e-07
4.43253e-07
4.21678e-07
4.31979e-07
3.24865e-07
2.4379e-05
2.6112e-05
2.77358e-05
2.90022e-05
2.94262e-05
2.8295e-05
2.47751e-05
1.80679e-05
8.56775e-06
7.99028e-06
2.07882e-05
3.22121e-05
3.88955e-05
4.04702e-05
3.89376e-05
3.68091e-05
3.53376e-05
3.44826e-05
3.41122e-05
3.48837e-05
3.5183e-05
3.53577e-05
4.03087e-05
4.53324e-05
4.84435e-05
5.75148e-05
5.83333e-05
4.87139e-05
3.63212e-05
2.62503e-05
1.9125e-05
1.34047e-05
9.44292e-06
1.52909e-05
2.87114e-05
3.95863e-05
3.78993e-05
2.53143e-05
1.84319e-05
2.14909e-05
3.03904e-05
3.65132e-05
3.56808e-05
3.12541e-05
2.68425e-05
2.3521e-05
2.116e-05
1.95235e-05
1.84651e-05
1.79021e-05
1.78735e-05
1.83443e-05
1.91822e-05
2.18136e-05
2.77789e-05
3.8036e-05
5.60673e-05
7.03805e-05
7.09455e-05
6.14655e-05
4.88636e-05
3.74133e-05
2.96806e-05
2.7783e-05
3.61556e-05
5.1211e-05
5.97331e-05
5.59661e-05
4.54134e-05
3.55079e-05
2.8676e-05
2.39494e-05
2.02764e-05
1.72044e-05
1.45487e-05
1.22085e-05
1.0125e-05
8.27236e-06
6.64416e-06
5.23957e-06
4.05276e-06
3.06884e-06
2.26573e-06
1.61916e-06
1.10942e-06
7.2779e-07
4.81586e-07
3.81499e-07
3.83397e-07
4.09548e-07
4.25492e-07
4.30406e-07
4.33815e-07
4.41083e-07
4.53758e-07
4.61976e-07
4.69859e-07
4.47591e-07
4.5561e-07
3.51549e-07
6.57637e-06
6.37219e-06
6.88154e-06
8.23073e-06
1.02849e-05
1.29472e-05
1.62271e-05
2.01923e-05
2.47786e-05
2.94362e-05
3.31209e-05
3.49327e-05
3.48966e-05
3.39233e-05
3.29876e-05
3.23953e-05
3.19976e-05
3.17193e-05
3.1579e-05
3.2304e-05
3.37674e-05
3.43298e-05
3.68219e-05
4.16698e-05
4.37164e-05
4.97665e-05
5.73096e-05
5.54849e-05
4.64465e-05
3.60928e-05
2.7691e-05
2.23921e-05
2.21585e-05
2.89215e-05
3.8951e-05
4.25917e-05
3.27741e-05
1.93527e-05
1.73963e-05
2.40676e-05
3.37909e-05
3.75393e-05
3.48939e-05
3.02364e-05
2.62331e-05
2.32778e-05
2.11364e-05
1.9621e-05
1.8631e-05
1.81076e-05
1.80754e-05
1.8577e-05
1.94464e-05
2.15884e-05
2.68804e-05
3.55826e-05
5.17554e-05
6.87828e-05
7.38908e-05
6.74842e-05
5.62128e-05
4.5333e-05
3.80696e-05
3.70835e-05
4.58606e-05
5.81264e-05
6.1681e-05
5.42436e-05
4.29213e-05
3.38664e-05
2.79132e-05
2.37076e-05
2.0336e-05
1.74416e-05
1.48752e-05
1.25604e-05
1.04623e-05
8.57404e-06
6.9019e-06
5.45205e-06
4.22205e-06
3.19853e-06
2.35998e-06
1.68237e-06
1.1461e-06
7.42296e-07
4.80068e-07
3.77139e-07
3.88654e-07
4.25673e-07
4.49924e-07
4.6055e-07
4.67425e-07
4.76219e-07
4.88875e-07
4.96188e-07
5.02415e-07
4.79503e-07
4.85149e-07
3.84301e-07
8.6612e-06
8.93092e-06
9.7438e-06
1.12152e-05
1.32991e-05
1.58464e-05
1.87007e-05
2.15773e-05
2.41748e-05
2.61898e-05
2.74351e-05
2.80223e-05
2.8323e-05
2.86195e-05
2.88977e-05
2.90154e-05
2.89679e-05
2.89475e-05
2.90694e-05
2.96515e-05
3.14021e-05
3.29657e-05
3.48029e-05
3.79991e-05
4.04968e-05
4.2181e-05
4.94998e-05
5.53708e-05
5.38423e-05
4.7625e-05
4.102e-05
3.69906e-05
3.72055e-05
4.15839e-05
4.51437e-05
3.89431e-05
2.33474e-05
1.48818e-05
1.83329e-05
2.8635e-05
3.68984e-05
3.75512e-05
3.35859e-05
2.91205e-05
2.56133e-05
2.30038e-05
2.10622e-05
1.9661e-05
1.87367e-05
1.82523e-05
1.82173e-05
1.87145e-05
1.96359e-05
2.1419e-05
2.59019e-05
3.34106e-05
4.68615e-05
6.50534e-05
7.49651e-05
7.28243e-05
6.3962e-05
5.43165e-05
4.78142e-05
4.77819e-05
5.58814e-05
6.36859e-05
6.16593e-05
5.1261e-05
4.00638e-05
3.22071e-05
2.71579e-05
2.34709e-05
2.041e-05
1.76992e-05
1.52232e-05
1.29332e-05
1.08199e-05
8.8955e-06
7.17847e-06
5.68167e-06
4.40622e-06
3.34071e-06
2.46452e-06
1.75392e-06
1.18887e-06
7.60053e-07
4.78119e-07
3.69856e-07
3.91939e-07
4.41469e-07
4.75392e-07
4.92776e-07
5.0387e-07
5.14706e-07
5.27718e-07
5.34432e-07
5.3933e-07
5.16101e-07
5.19866e-07
4.22904e-07
5.41236e-06
5.83667e-06
6.71087e-06
8.07404e-06
9.88463e-06
1.20395e-05
1.43735e-05
1.67076e-05
1.88648e-05
2.07069e-05
2.22026e-05
2.34149e-05
2.44041e-05
2.51699e-05
2.56858e-05
2.59729e-05
2.61329e-05
2.63394e-05
2.67253e-05
2.73376e-05
2.8814e-05
3.09572e-05
3.30601e-05
3.56839e-05
3.76224e-05
3.79952e-05
3.99294e-05
4.65641e-05
5.17783e-05
5.23069e-05
5.00506e-05
4.78315e-05
4.7163e-05
4.68757e-05
4.14845e-05
2.70667e-05
1.35507e-05
1.37777e-05
2.29465e-05
3.41559e-05
3.86536e-05
3.64233e-05
3.19498e-05
2.80038e-05
2.49994e-05
2.26964e-05
2.09341e-05
1.96415e-05
1.87807e-05
1.83319e-05
1.82974e-05
1.87626e-05
1.97184e-05
2.12933e-05
2.49268e-05
3.14347e-05
4.20429e-05
5.92765e-05
7.32729e-05
7.63198e-05
7.1135e-05
6.36012e-05
5.82952e-05
5.88853e-05
6.46221e-05
6.65537e-05
5.92576e-05
4.72316e-05
3.70686e-05
3.05977e-05
2.64215e-05
2.32425e-05
2.04985e-05
1.79766e-05
1.55932e-05
1.33293e-05
1.12015e-05
9.2408e-06
7.47737e-06
5.93095e-06
4.60665e-06
3.49535e-06
2.57758e-06
1.83032e-06
1.2334e-06
7.77179e-07
4.73889e-07
3.61314e-07
3.97386e-07
4.61502e-07
5.06149e-07
5.30812e-07
5.46297e-07
5.59121e-07
5.72339e-07
5.78271e-07
5.81727e-07
5.58067e-07
5.601e-07
4.66901e-07
4.33664e-06
4.83803e-06
5.68263e-06
6.87955e-06
8.38801e-06
1.01447e-05
1.20593e-05
1.40215e-05
1.59178e-05
1.76508e-05
1.91523e-05
2.03955e-05
2.13946e-05
2.21773e-05
2.27665e-05
2.32009e-05
2.35564e-05
2.39458e-05
2.45001e-05
2.52503e-05
2.64592e-05
2.85343e-05
3.09093e-05
3.38553e-05
3.59552e-05
3.59591e-05
3.48876e-05
3.58931e-05
4.03501e-05
4.45636e-05
4.62798e-05
4.57904e-05
4.37717e-05
3.82012e-05
2.63402e-05
1.25828e-05
9.83493e-06
1.8233e-05
3.07623e-05
3.83712e-05
3.83709e-05
3.44234e-05
3.02436e-05
2.69539e-05
2.43931e-05
2.23502e-05
2.07498e-05
1.95612e-05
1.87621e-05
1.83447e-05
1.83127e-05
1.87322e-05
1.9677e-05
2.1157e-05
2.40571e-05
2.95516e-05
3.7845e-05
5.21879e-05
6.82593e-05
7.65327e-05
7.6099e-05
7.16193e-05
6.79382e-05
6.83127e-05
6.99312e-05
6.56286e-05
5.45751e-05
4.26226e-05
3.41686e-05
2.90815e-05
2.57082e-05
2.30229e-05
2.06012e-05
1.82739e-05
1.59875e-05
1.3753e-05
1.16122e-05
9.61467e-06
7.80239e-06
6.20271e-06
4.82552e-06
3.66449e-06
2.70177e-06
1.9149e-06
1.28341e-06
7.96916e-07
4.6859e-07
3.49715e-07
4.0218e-07
4.82931e-07
5.39675e-07
5.72565e-07
5.93057e-07
6.08214e-07
6.21816e-07
6.27058e-07
6.29198e-07
6.05218e-07
6.059e-07
5.16658e-07
3.94897e-06
4.44845e-06
5.20766e-06
6.23239e-06
7.49904e-06
8.96423e-06
1.05616e-05
1.22095e-05
1.38212e-05
1.53168e-05
1.66415e-05
1.77784e-05
1.87371e-05
1.95326e-05
2.01812e-05
2.07154e-05
2.11966e-05
2.1708e-05
2.23514e-05
2.32085e-05
2.43453e-05
2.60882e-05
2.84143e-05
3.13502e-05
3.46314e-05
3.56026e-05
3.39502e-05
3.15616e-05
3.041e-05
3.11299e-05
3.19692e-05
3.10221e-05
2.74143e-05
2.00624e-05
1.07994e-05
7.63049e-06
1.57504e-05
2.85314e-05
3.7669e-05
3.94361e-05
3.62751e-05
3.21031e-05
2.8672e-05
2.59869e-05
2.37804e-05
2.19581e-05
2.0508e-05
1.942e-05
1.86809e-05
1.82908e-05
1.82597e-05
1.86319e-05
1.9516e-05
2.0942e-05
2.33272e-05
2.7779e-05
3.4409e-05
4.50908e-05
6.03098e-05
7.23349e-05
7.68427e-05
7.60279e-05
7.41181e-05
7.31976e-05
6.98977e-05
6.07307e-05
4.83884e-05
3.80317e-05
3.15236e-05
2.76621e-05
2.50107e-05
2.28101e-05
2.07184e-05
1.8594e-05
1.64112e-05
1.42103e-05
1.20579e-05
1.00219e-05
8.15708e-06
6.4995e-06
5.06452e-06
3.84891e-06
2.83687e-06
2.00637e-06
1.33677e-06
8.16775e-07
4.60076e-07
3.34917e-07
4.08573e-07
5.08506e-07
5.78609e-07
6.20379e-07
6.46141e-07
6.63637e-07
6.77494e-07
6.81856e-07
6.82531e-07
6.58072e-07
6.57452e-07
5.71924e-07
3.64622e-06
4.12634e-06
4.8071e-06
5.69015e-06
6.75763e-06
7.9774e-06
9.30264e-06
1.06755e-05
1.20341e-05
1.3322e-05
1.44964e-05
1.55351e-05
1.64364e-05
1.72122e-05
1.78803e-05
1.84688e-05
1.90254e-05
1.96161e-05
2.03118e-05
2.1204e-05
2.23516e-05
2.3853e-05
2.58849e-05
2.84412e-05
3.19355e-05
3.50957e-05
3.52946e-05
3.27048e-05
2.9181e-05
2.59429e-05
2.30815e-05
1.99868e-05
1.60934e-05
1.19541e-05
1.08389e-05
1.77975e-05
2.91515e-05
3.77394e-05
3.99881e-05
3.73776e-05
3.33733e-05
2.99622e-05
2.73018e-05
2.50724e-05
2.31425e-05
2.15168e-05
2.02101e-05
1.92193e-05
1.85384e-05
1.81724e-05
1.81371e-05
1.84645e-05
1.9256e-05
2.06026e-05
2.26719e-05
2.62122e-05
3.15638e-05
3.91734e-05
5.10885e-05
6.38928e-05
7.19793e-05
7.45463e-05
7.40654e-05
7.12821e-05
6.41661e-05
5.30629e-05
4.19276e-05
3.39372e-05
2.91699e-05
2.63115e-05
2.43192e-05
2.26039e-05
2.08535e-05
1.89426e-05
1.68716e-05
1.47088e-05
1.25451e-05
1.04677e-05
8.54562e-06
6.82461e-06
5.32616e-06
4.05088e-06
2.98498e-06
2.10693e-06
1.39583e-06
8.38983e-07
4.49444e-07
3.16058e-07
4.1566e-07
5.37225e-07
6.22061e-07
6.73575e-07
7.05103e-07
7.25152e-07
7.39306e-07
7.42749e-07
7.41963e-07
7.17017e-07
7.15371e-07
6.33532e-07
3.40013e-06
3.84586e-06
4.44613e-06
5.20083e-06
6.09852e-06
7.11744e-06
8.22452e-06
9.37754e-06
1.05302e-05
1.16384e-05
1.26675e-05
1.35994e-05
1.44321e-05
1.51733e-05
1.58365e-05
1.64449e-05
1.70377e-05
1.76691e-05
1.83934e-05
1.92804e-05
2.04123e-05
2.18056e-05
2.3553e-05
2.56992e-05
2.84909e-05
3.22268e-05
3.52972e-05
3.56429e-05
3.3357e-05
2.98266e-05