/*--------------------------------*- C++ -*----------------------------------*\
| =========                 |                                                 |
| \\      /  F ield         | OpenFOAM: The Open Source CFD Toolbox           |
|  \\    /   O peration     | Version:  2.1.1                                 |
|   \\  /    A nd           | Web:      www.OpenFOAM.org                      |
|    \\/     M anipulation  |                                                 |
\*---------------------------------------------------------------------------*/
FoamFile
{
    version     2.0;
    format      ascii;
    class       volScalarField;
    location    "0.105";
    object      p;
}
// * * * * * * * * * * * * * * * * * * * * * * * * * * * * * * * * * * * * * //

dimensions      [0 2 -2 0 0 0 0];

internalField   nonuniform List<scalar> 
6820
(
8.36101
-9.47583
-12.4875
-12.6784
-12.8551
-12.7861
-12.734
-12.7512
-12.8035
-12.8754
-12.9585
-13.0475
-13.14
-13.2346
-13.3309
-13.4284
-13.5269
-13.626
-13.7256
-13.8254
-13.9252
-14.0246
-14.1236
-14.2218
-14.3188
-14.414
-14.5071
-14.5973
-14.685
-14.7664
-14.8506
-14.9075
-15.0258
1.68048
-9.29396
-12.1756
-12.4795
-12.7363
-12.7635
-12.748
-12.7765
-12.8306
-12.8996
-12.9788
-13.0642
-13.1536
-13.2459
-13.3404
-13.4366
-13.5341
-13.6325
-13.7317
-13.8312
-13.9309
-14.0303
-14.1292
-14.2275
-14.3246
-14.4202
-14.5137
-14.6044
-14.6923
-14.7751
-14.8583
-14.9259
-15.0332
-1.03318
-7.86244
-11.1537
-11.9156
-12.3882
-12.5903
-12.6537
-12.715
-12.7885
-12.8698
-12.9577
-13.0496
-13.1441
-13.2401
-13.3372
-13.4352
-13.5339
-13.6331
-13.7327
-13.8325
-13.9322
-14.0318
-14.1309
-14.2294
-14.3268
-14.4225
-14.5169
-14.6087
-14.6979
-14.782
-14.8627
-14.9248
-14.9706
-3.01763
-7.63414
-10.7306
-11.5936
-12.0699
-12.351
-12.4845
-12.59
-12.6945
-12.7964
-12.8973
-12.998
-13.0989
-13.1999
-13.3012
-13.4027
-13.5043
-13.606
-13.7078
-13.8095
-13.911
-14.0121
-14.1128
-14.2128
-14.3119
-14.4099
-14.5067
-14.6014
-14.694
-14.7831
-14.8685
-14.9429
-15.0013
-4.6521
-7.7335
-10.3376
-11.2447
-11.7565
-12.1167
-12.3203
-12.4652
-12.5941
-12.7126
-12.8249
-12.9345
-13.0421
-13.1482
-13.2534
-13.3581
-13.4624
-13.5662
-13.6697
-13.7729
-13.8756
-13.978
-14.0799
-14.1814
-14.2823
-14.3826
-14.4824
-14.5813
-14.6795
-14.7764
-14.8723
-14.9651
-15.053
-5.87356
-7.91322
-10.0854
-11.0331
-11.564
-11.9512
-12.1896
-12.3572
-12.5021
-12.6332
-12.755
-12.8716
-12.9848
-13.0956
-13.2044
-13.3118
-13.4182
-13.5238
-13.6286
-13.7329
-13.8368
-13.9401
-14.0432
-14.1459
-14.2485
-14.351
-14.4538
-14.5571
-14.6615
-14.7676
-14.8764
-14.9895
-15.1127
-6.82289
-8.19825
-9.96653
-10.8769
-11.3952
-11.7905
-12.059
-12.252
-12.4148
-12.5593
-12.6908
-12.8144
-12.933
-13.0478
-13.1597
-13.2697
-13.3782
-13.4854
-13.5917
-13.6972
-13.8021
-13.9065
-14.0107
-14.1147
-14.219
-14.3237
-14.4295
-14.5368
-14.6467
-14.7602
-14.8794
-15.0075
-15.1513
-7.5673
-8.50281
-9.91366
-10.7593
-11.266
-11.6628
-11.9499
-12.16
-12.3347
-12.4886
-12.6275
-12.757
-12.8801
-12.9987
-13.1138
-13.2264
-13.3369
-13.4458
-13.5535
-13.6601
-13.766
-13.8714
-13.9765
-14.0817
-14.1873
-14.2938
-14.4019
-14.5125
-14.6267
-14.7464
-14.874
-15.0133
-15.1711
-8.15774
-8.80464
-9.92193
-10.6872
-11.1714
-11.5564
-11.8497
-12.0713
-12.2558
-12.4183
-12.5646
-12.7
-12.8279
-12.9503
-13.0685
-13.1834
-13.2959
-13.4065
-13.5154
-13.6231
-13.73
-13.8362
-13.9423
-14.0484
-14.1553
-14.2634
-14.3735
-14.4868
-14.6047
-14.7289
-14.8623
-15.0083
-15.1729
-8.63205
-9.08807
-9.96785
-10.6443
-11.0994
-11.4684
-11.7625
-11.9918
-12.1838
-12.3527
-12.5047
-12.6447
-12.7764
-12.902
-13.0228
-13.1399
-13.2542
-13.3661
-13.4762
-13.5849
-13.6925
-13.7994
-13.9061
-14.013
-14.1207
-14.2298
-14.3413
-14.4563
-14.5763
-14.7031
-14.8394
-14.9882
-15.1546
-9.01712
-9.34541
-10.0376
-10.6269
-11.0494
-11.399
-11.6875
-11.9195
-12.1157
-12.2891
-12.4456
-12.5897
-12.7249
-12.8535
-12.9769
-13.0961
-13.2121
-13.3254
-13.4365
-13.546
-13.6543
-13.7618
-13.869
-13.9763
-14.0845
-14.1942
-14.3063
-14.4221
-14.5429
-14.6706
-14.8073
-14.9556
-15.1194
-9.33259
-9.57429
-10.1203
-10.6279
-11.0154
-11.3434
-11.6226
-11.8541
-12.0525
-12.229
-12.389
-12.5364
-12.6746
-12.8057
-12.9312
-13.0522
-13.1696
-13.284
-13.396
-13.5061
-13.6148
-13.7226
-13.8299
-13.9373
-14.0454
-14.1551
-14.2671
-14.3825
-14.5028
-14.6293
-14.7641
-14.909
-15.0669
-9.59277
-9.77477
-10.2078
-10.6421
-10.9943
-11.3001
-11.5676
-11.7957
-11.9941
-12.1721
-12.3343
-12.4842
-12.6247
-12.7579
-12.8853
-13.0078
-13.1265
-13.2419
-13.3547
-13.4653
-13.5742
-13.6821
-13.7892
-13.8963
-14.004
-14.1129
-14.224
-14.3382
-14.4565
-14.5804
-14.7113
-14.8506
-15.0001
-9.80822
-9.94829
-10.2944
-10.6648
-10.9827
-11.2662
-11.5206
-11.7431
-11.94
-12.1182
-12.2817
-12.4334
-12.5758
-12.7108
-12.8397
-12.9635
-13.0832
-13.1994
-13.3126
-13.4235
-13.5324
-13.64
-13.7467
-13.853
-13.9597
-14.0672
-14.1765
-14.2884
-14.4037
-14.5235
-14.6489
-14.7807
-14.9202
-9.98676
-10.0968
-10.3763
-10.6922
-10.9778
-11.2398
-11.4804
-11.696
-11.89
-12.0673
-12.2312
-12.384
-12.5277
-12.664
-12.7941
-12.9191
-13.0396
-13.1563
-13.2698
-13.3807
-13.4894
-13.5964
-13.7023
-13.8075
-13.9126
-14.0183
-14.1251
-14.2338
-14.345
-14.4596
-14.5783
-14.7015
-14.8299
-10.1343
-10.2225
-10.4507
-10.7209
-10.9771
-11.2187
-11.4455
-11.6533
-11.8434
-12.0191
-12.1827
-12.336
-12.4806
-12.6179
-12.749
-12.8747
-12.9958
-13.1128
-13.2264
-13.3371
-13.4453
-13.5515
-13.6561
-13.7598
-13.8629
-13.966
-14.0696
-14.1743
-14.2807
-14.3892
-14.5002
-14.614
-14.7307
-10.2551
-10.3272
-10.5161
-10.7484
-10.9782
-11.201
-11.4145
-11.6143
-11.7999
-11.9734
-12.1361
-12.2894
-12.4344
-12.5724
-12.7042
-12.8304
-12.9519
-13.0691
-13.1826
-13.2928
-13.4002
-13.5052
-13.6084
-13.7101
-13.8107
-13.9108
-14.0107
-14.1109
-14.2117
-14.3134
-14.4163
-14.5202
-14.6252
-10.3526
-10.4125
-10.5712
-10.7726
-10.9793
-11.1851
-11.3862
-11.5779
-11.7588
-11.9296
-12.0911
-12.244
-12.3893
-12.5276
-12.6598
-12.7864
-12.908
-13.0252
-13.1383
-13.2478
-13.3542
-13.4578
-13.5591
-13.6585
-13.7562
-13.8528
-13.9485
-14.0436
-14.1384
-14.233
-14.3274
-14.4214
-14.5147
-10.4292
-10.48
-10.6153
-10.7917
-10.9786
-11.1693
-11.3592
-11.5433
-11.7194
-11.8874
-12.0475
-12.1999
-12.3451
-12.4837
-12.6161
-12.7429
-12.8645
-12.9814
-13.094
-13.2026
-13.3077
-13.4097
-13.5089
-13.6056
-13.7002
-13.793
-13.8841
-13.9739
-14.0623
-14.1496
-14.2354
-14.3197
-14.4019
-10.4868
-10.5306
-10.648
-10.8043
-10.9747
-11.1524
-11.3323
-11.5094
-11.6811
-11.8465
-12.0051
-12.1568
-12.3019
-12.4405
-12.573
-12.6998
-12.8212
-12.9377
-13.0495
-13.1571
-13.2607
-13.3608
-13.4575
-13.5514
-13.6425
-13.7311
-13.8174
-13.9016
-13.9836
-14.0634
-14.1409
-14.2157
-14.2874
-10.5265
-10.5651
-10.6688
-10.8094
-10.9662
-11.1329
-11.3044
-11.4755
-11.6433
-11.8063
-11.9636
-12.1148
-12.2597
-12.3983
-12.5309
-12.6577
-12.7789
-12.8949
-13.0058
-13.1122
-13.2142
-13.3122
-13.4064
-13.4971
-13.5846
-13.6689
-13.7503
-13.8288
-13.9044
-13.977
-14.0464
-14.1122
-14.1741
-10.5493
-10.5839
-10.6774
-10.8058
-10.9519
-11.1099
-11.2745
-11.4407
-11.6053
-11.7663
-11.9226
-12.0734
-12.2182
-12.3569
-12.4895
-12.6162
-12.737
-12.8523
-12.9623
-13.0672
-13.1674
-13.2631
-13.3546
-13.442
-13.5256
-13.6055
-13.6819
-13.7547
-13.8239
-13.8895
-13.9511
-14.0086
-14.0614
-10.5554
-10.5872
-10.6733
-10.7927
-10.9308
-11.0821
-11.2416
-11.4042
-11.5666
-11.7264
-11.8823
-12.033
-12.1781
-12.3171
-12.45
-12.5767
-12.6972
-12.8119
-12.9209
-13.0245
-13.1228
-13.2162
-13.3048
-13.3889
-13.4686
-13.5442
-13.6155
-13.6828
-13.7459
-13.8047
-13.8591
-13.9088
-13.9534
-10.545
-10.5749
-10.6558
-10.7691
-10.9016
-11.0485
-11.2046
-11.3651
-11.5263
-11.6857
-11.8416
-11.9927
-12.1383
-12.2777
-12.4108
-12.5375
-12.6578
-12.7717
-12.8796
-12.9816
-13.0779
-13.1688
-13.2544
-13.3351
-13.4109
-13.4819
-13.5484
-13.6102
-13.6673
-13.7198
-13.7673
-13.8099
-13.8472
-10.5176
-10.5464
-10.6243
-10.7341
-10.8636
-11.0083
-11.1631
-11.3232
-11.4847
-11.6449
-11.802
-11.9544
-12.1011
-12.2416
-12.3754
-12.5024
-12.6226
-12.7361
-12.843
-12.9435
-13.0379
-13.1264
-13.2091
-13.2864
-13.3583
-13.4251
-13.4867
-13.5433
-13.5948
-13.6413
-13.6826
-13.7186
-13.7491
-10.4725
-10.5008
-10.5778
-10.6865
-10.8154
-10.9601
-11.1156
-11.2767
-11.4397
-11.6018
-11.7606
-11.9147
-12.0629
-12.2046
-12.3392
-12.4666
-12.5867
-12.6997
-12.8055
-12.9045
-12.9968
-13.0828
-13.1625
-13.2363
-13.3044
-13.3668
-13.4237
-13.4753
-13.5215
-13.5623
-13.5978
-13.6279
-13.6525
-10.4084
-10.4371
-10.515
-10.6253
-10.7564
-10.9039
-11.0628
-11.2276
-11.3944
-11.5602
-11.7225
-11.8798
-12.0307
-12.1745
-12.3107
-12.4391
-12.5596
-12.6722
-12.7773
-12.8749
-12.9654
-13.0489
-13.1258
-13.1962
-13.2605
-13.3188
-13.3712
-13.418
-13.4591
-13.4947
-13.5248
-13.5494
-13.5684
-10.3236
-10.3533
-10.4342
-10.5485
-10.6842
-10.8367
-11.0006
-11.1706
-11.3423
-11.5127
-11.6793
-11.8402
-11.9942
-12.1404
-12.2784
-12.4079
-12.5289
-12.6414
-12.7456
-12.8419
-12.9304
-13.0115
-13.0854
-13.1525
-13.2131
-13.2672
-13.3153
-13.3574
-13.3937
-13.4244
-13.4495
-13.4692
-13.4834
-10.2155
-10.2474
-10.3339
-10.456
-10.6004
-10.7622
-10.9356
-11.1147
-11.2949
-11.4729
-11.6461
-11.8127
-11.9713
-12.1211
-12.2618
-12.393
-12.5149
-12.6275
-12.7311
-12.8261
-12.9128
-12.9914
-13.0625
-13.1263
-13.1831
-13.2333
-13.2771
-13.3147
-13.3464
-13.3724
-13.3927
-13.4076
-13.4171
-10.0808
-10.1155
-10.2097
-10.3418
-10.4967
-10.6691
-10.8532
-11.0424
-11.2321
-11.4186
-11.5995
-11.7726
-11.9367
-12.0909
-12.2348
-12.3684
-12.4915
-12.6046
-12.7078
-12.8017
-12.8866
-12.9629
-13.0311
-13.0916
-13.1448
-13.191
-13.2306
-13.2639
-13.2912
-13.3127
-13.3286
-13.3393
-13.3449
-9.91529
-9.95522
-10.0631
-10.2129
-10.3866
-10.578
-10.78
-10.9855
-11.1894
-11.3881
-11.5792
-11.7606
-11.9312
-12.0905
-12.2381
-12.374
-12.4984
-12.6118
-12.7145
-12.8071
-12.89
-12.9638
-13.029
-13.0861
-13.1355
-13.1776
-13.213
-13.2418
-13.2645
-13.2814
-13.2928
-13.2989
-13.2998
-9.71168
-9.75631
-9.87802
-10.0449
-10.2361
-10.4457
-10.6663
-10.8897
-11.1102
-11.3239
-11.5279
-11.7204
-11.9001
-12.0665
-12.2195
-12.3591
-12.4859
-12.6004
-12.7031
-12.7947
-12.8758
-12.9473
-13.0095
-13.0632
-13.1089
-13.1471
-13.1782
-13.2028
-13.2213
-13.2339
-13.2412
-13.2435
-13.241
-9.46485
-9.52404
-9.67833
-9.883
-10.1097
-10.3514
-10.5999
-10.8468
-11.0868
-11.3166
-11.5337
-11.7365
-11.9243
-12.0968
-12.2541
-12.3966
-12.5249
-12.6396
-12.7416
-12.8316
-12.9104
-12.9788
-13.0375
-13.0872
-13.1285
-13.1621
-13.1884
-13.2081
-13.2215
-13.2291
-13.2313
-13.2285
-13.221
-9.15276
-9.21438
-9.3886
-9.61979
-9.87692
-10.1534
-10.4375
-10.7176
-10.9873
-11.2428
-11.4814
-11.7016
-11.903
-12.0857
-12.2504
-12.3978
-12.5289
-12.6449
-12.7467
-12.8354
-12.9122
-12.9778
-13.0332
-13.0793
-13.1166
-13.146
-13.1681
-13.1833
-13.1924
-13.1957
-13.1937
-13.1872
-13.1764
-8.78571
-8.90249
-9.16202
-9.46419
-9.77217
-10.0889
-10.4057
-10.7119
-11.0031
-11.2766
-11.5302
-11.7627
-11.9738
-12.1639
-12.3338
-12.4844
-12.6169
-12.7327
-12.8329
-12.919
-12.992
-13.0532
-13.1035
-13.144
-13.1755
-13.1988
-13.2146
-13.2234
-13.226
-13.2227
-13.2143
-13.2012
-13.184
-8.25141
-8.34202
-8.63909
-9.00883
-9.39744
-9.79751
-10.1885
-10.5566
-10.8983
-11.2114
-11.4951
-11.7497
-11.9767
-12.1778
-12.3548
-12.5096
-12.6441
-12.7601
-12.8594
-12.9435
-13.0139
-13.0719
-13.1187
-13.1554
-13.1828
-13.2019
-13.2133
-13.2177
-13.2156
-13.2077
-13.1945
-13.1769
-13.1556
-7.75149
-8.07338
-8.53984
-8.95666
-9.36433
-9.79007
-10.2056
-10.5976
-10.9643
-11.3021
-11.6079
-11.8813
-12.1231
-12.3349
-12.5185
-12.6764
-12.8108
-12.9242
-13.0187
-13.0965
-13.1594
-13.209
-13.247
-13.2745
-13.2927
-13.3025
-13.3047
-13.2999
-13.2886
-13.2713
-13.2483
-13.2203
-13.1877
-6.44514
-6.76619
-7.53778
-8.23535
-8.86926
-9.47258
-10.0133
-10.4913
-10.9169
-11.294
-11.6259
-11.917
-12.171
-12.3913
-12.5809
-12.7429
-12.8799
-12.9944
-13.0889
-13.1655
-13.2264
-13.2732
-13.3078
-13.3314
-13.3453
-13.3506
-13.3479
-13.3378
-13.3206
-13.2963
-13.2643
-13.2259
-13.1764
-6.42985
-7.17408
-7.77648
-8.24068
-8.83754
-9.46752
-10.0541
-10.5998
-11.0984
-11.5393
-11.9216
-12.2487
-12.5249
-12.7549
-12.9441
-13.0977
-13.2205
-13.3169
-13.3908
-13.4457
-13.4844
-13.5094
-13.523
-13.5269
-13.5225
-13.5111
-13.4936
-13.4704
-13.4414
-13.4058
-13.3607
-13.3032
-13.2193
-0.174121
-4.78169
-6.5637
-7.41161
-8.41065
-9.28319
-9.97988
-10.5836
-11.1107
-11.5615
-11.9451
-12.2696
-12.5414
-12.7667
-12.9515
-13.101
-13.2203
-13.3137
-13.3849
-13.4374
-13.4741
-13.4973
-13.5092
-13.5117
-13.5062
-13.494
-13.4763
-13.4537
-13.4274
-13.397
-13.3652
-13.3268
-13.2937
-14.8664
-14.6951
-15.0887
-15.8612
-17.2642
-19.5049
-22.6913
-26.6968
-31.0145
-34.7955
-37.1696
-37.585
-35.743
-31.3522
-24.5631
-16.6602
-9.41896
-3.79408
0.13968
2.70331
4.01646
3.93465
2.55857
-0.631666
-6.27454
-14.3226
-23.969
-34.0018
-43.498
-51.9603
-59.0609
-64.3774
-67.3166
-67.3026
-63.9104
-57.5121
-49.5331
-41.7534
-34.9756
-28.7807
-22.6067
-16.6087
-11.495
-7.65843
-4.94192
-3.01745
-1.63013
-0.619213
0.115917
0.64008
0.994903
1.2042
1.27578
1.18188
0.870231
0.162821
-1.66423
-5.84367
-13.2279
-23.077
-33.3998
-41.9622
-47.0438
-47.7752
-43.8984
-35.9418
-26.0376
-17.0612
-10.6021
-6.46163
-3.85522
-2.1912
-1.12382
-0.444521
-0.0182891
0.244688
0.404099
0.499076
0.554658
0.586198
0.602547
0.608428
0.606148
0.596837
0.581092
0.559401
0.532333
0.500602
0.465032
0.426507
0.385875
0.34398
0.301384
0.258911
0.216271
0.175476
0.132588
0.097391
0.0469298
0.0343165
-14.9721
-14.8103
-15.1609
-15.9432
-17.3655
-19.596
-22.6636
-26.3925
-30.3109
-33.6326
-35.5338
-35.4731
-33.2149
-28.7199
-22.4137
-15.4481
-9.11744
-4.09635
-0.482572
1.89535
3.16026
3.13791
1.80862
-1.04614
-6.08311
-13.3883
-22.3675
-31.9418
-41.1507
-49.4014
-56.2946
-61.3959
-64.1446
-64.0363
-60.7403
-54.7327
-47.4095
-40.3149
-34.0031
-28.0521
-22.0544
-16.2838
-11.4181
-7.75838
-5.12813
-3.23158
-1.84446
-0.822437
-0.0721694
0.468093
0.838353
1.0613
1.14466
1.06255
0.758999
0.0969028
-1.5386
-5.29269
-12.0191
-21.1416
-30.8318
-38.9503
-43.8112
-44.549
-40.931
-33.5332
-24.4354
-16.2592
-10.3473
-6.48185
-3.98478
-2.35284
-1.2846
-0.590615
-0.144377
0.139758
0.319381
0.43262
0.50406
0.548958
0.576243
0.590833
0.595293
0.591026
0.578892
0.559657
0.534144
0.503278
0.468075
0.429574
0.388738
0.346531
0.303569
0.260771
0.217776
0.176796
0.133499
0.0983577
0.0471172
0.0351206
-14.9364
-14.9613
-15.3799
-16.2284
-17.6486
-19.7783
-22.6241
-25.9855
-29.37
-32.0574
-33.3489
-32.7978
-30.2958
-26.0024
-20.4153
-14.4168
-8.91989
-4.44672
-1.13437
1.06472
2.24373
2.26601
1.01236
-1.60796
-6.09583
-12.6456
-20.848
-29.8217
-38.6268
-46.5873
-53.2266
-58.0876
-60.6389
-60.4511
-57.3165
-51.7999
-45.2158
-38.8256
-32.9583
-27.2396
-21.4357
-15.9276
-11.3323
-7.85623
-5.31476
-3.44887
-2.06487
-1.03425
-0.270811
0.284011
0.668482
0.904002
0.99811
0.927122
0.632829
0.0033475
-1.46518
-4.80845
-10.8572
-19.1971
-28.1885
-35.8103
-40.4225
-41.1659
-37.8362
-31.056
-22.8206
-15.4661
-10.098
-6.50257
-4.11423
-2.51582
-1.44808
-0.740046
-0.273883
0.0316811
0.231982
0.364018
0.451862
0.510601
0.549216
0.572806
0.5842
0.585095
0.576653
0.559929
0.536004
0.50602
0.471181
0.43269
0.391638
0.349104
0.305757
0.262619
0.219259
0.178079
0.134381
0.0992866
0.0473171
0.0358857
-15.0568
-15.1921
-15.6333
-16.4764
-17.8296
-19.7849
-22.3053
-25.1465
-27.8731
-29.8871
-30.6259
-29.7823
-27.3523
-23.5361
-18.742
-13.6119
-8.82892
-4.84051
-1.81583
0.215844
1.29223
1.33818
0.173973
-2.26746
-6.27603
-12.0921
-19.4548
-27.6958
-35.9665
-43.5418
-49.8705
-54.4657
-56.8295
-56.6045
-53.7263
-48.8076
-43.0157
-37.3054
-31.8399
-26.344
-20.7638
-15.5553
-11.2443
-7.95219
-5.50001
-3.66778
-2.2905
-1.25426
-0.479821
0.0878985
0.485248
0.732215
0.835821
0.774902
0.490859
-0.114488
-1.43767
-4.38801
-9.75302
-17.269
-25.5066
-32.5873
-36.9282
-37.6811
-34.6752
-28.5703
-21.2362
-14.7011
-9.85827
-6.52242
-4.24173
-2.67896
-1.61362
-0.892502
-0.406644
-0.0794394
0.141986
0.293368
0.398177
0.471276
0.521667
0.554621
0.573229
0.579479
0.574841
0.560664
0.538305
0.509152
0.474611
0.436062
0.39473
0.351811
0.308032
0.264517
0.220768
0.179367
0.135266
0.100193
0.0475294
0.0365941
-15.1689
-15.3918
-15.8646
-16.6803
-17.9067
-19.5878
-21.6461
-23.9046
-25.9835
-27.4278
-27.826
-26.9536
-24.7955
-21.5053
-17.4066
-12.9976
-8.82211
-5.27121
-2.52738
-0.657816
0.318005
0.369261
-0.695862
-2.96798
-6.58519
-11.731
-18.2554
-25.6683
-33.2689
-40.3445
-46.2913
-50.5927
-52.7544
-52.6006
-50.0866
-45.85
-40.8533
-35.7586
-30.6447
-25.3704
-20.0533
-15.1776
-11.1573
-8.04635
-5.68375
-3.88838
-2.52147
-1.48262
-0.699476
-0.120677
0.288055
0.54528
0.657151
0.605165
0.33236
-0.25324
-1.45333
-4.03862
-8.73526
-15.4081
-22.8495
-29.3481
-33.3933
-34.1593
-31.5132
-26.131
-19.7145
-13.9761
-9.6311
-6.54253
-4.36804
-2.84274
-1.78147
-1.04813
-0.542773
-0.19369
0.0493472
0.22067
0.343042
0.431037
0.493639
0.536277
0.562305
0.57402
0.573243
0.56163
0.540828
0.512478
0.478197
0.439546
0.397893
0.354553
0.310315
0.266399
0.222248
0.180614
0.136118
0.101056
0.0477436
0.0372586
-15.2823
-15.5659
-16.0443
-16.7938
-17.8548
-19.2461
-20.9202
-22.6896
-24.2712
-25.3209
-25.5166
-24.6633
-22.7418
-19.8803
-16.345
-12.534
-8.88445
-5.7316
-3.25853
-1.55033
-0.664618
-0.625342
-1.58995
-3.68108
-6.97493
-11.5477
-17.2975
-23.8576
-30.6822
-37.1398
-42.6239
-46.6093
-48.6421
-48.603
-46.5438
-43.0226
-38.7581
-34.1819
-29.3695
-24.3315
-19.3252
-14.8068
-11.0742
-8.13834
-5.86518
-4.11003
-2.7573
-1.71903
-0.929612
-0.341653
0.0768706
0.343137
0.462111
0.41775
0.156489
-0.41105
-1.51181
-3.77176
-7.83768
-13.6716
-20.2883
-26.1681
-29.8951
-30.6815
-28.4292
-23.8001
-18.2886
-13.3016
-9.41832
-6.56279
-4.49288
-3.00697
-1.95154
-1.20693
-0.682294
-0.31108
-0.0459054
0.145998
0.286572
0.390031
0.465309
0.517984
0.551683
0.569028
0.572185
0.563142
0.543855
0.51624
0.482138
0.443304
0.401252
0.357426
0.312676
0.268319
0.223741
0.181852
0.136961
0.10189
0.0479651
0.0378726
-15.3476
-15.6528
-16.1247
-16.8112
-17.7411
-18.9138
-20.2693
-21.6568
-22.8517
-23.5833
-23.6036
-22.7625
-21.0415
-18.543
-15.4845
-12.1858
-8.99913
-6.20939
-3.99355
-2.44721
-1.64447
-1.62484
-2.49961
-4.40003
-7.3963
-11.4918
-16.572
-22.3395
-28.3624
-34.1241
-39.0781
-42.7286
-44.6662
-44.8088
-43.2411
-40.3865
-36.728
-32.5611
-28.0154
-23.2506
-18.6031
-14.4521
-10.996
-8.22757
-6.04387
-4.3324
-2.99768
-1.9632
-1.17006
-0.574972
-0.148345
0.125679
0.250714
0.212661
-0.0372763
-0.586133
-1.60816
-3.5893
-7.08182
-12.1095
-17.8956
-23.1323
-26.5253
-27.3412
-25.5067
-21.6337
-16.9822
-12.6832
-9.22059
-6.58358
-4.61673
-3.172
-2.12409
-1.36908
-0.825363
-0.431709
-0.143799
0.0693915
0.228858
0.34838
0.436806
0.499853
0.541427
0.564502
0.571614
0.565116
0.54729
0.520335
0.486334
0.44724
0.404722
0.360353
0.31505
0.270221
0.225198
0.183042
0.137764
0.102675
0.048182
0.0384413
-15.3844
-15.7028
-16.156
-16.7774
-17.5811
-18.5553
-19.6424
-20.7188
-21.6045
-22.0908
-21.9869
-21.1725
-19.6296
-17.4429
-14.7921
-11.9345
-9.15464
-6.6944
-4.71969
-3.3322
-2.61045
-2.60852
-3.40949
-5.1218
-7.82412
-11.5024
-16.0208
-21.111
-26.4043
-31.4787
-35.8829
-39.1903
-41.0521
-41.3975
-40.27
-37.9452
-34.7322
-30.8786
-26.5983
-22.1628
-17.9092
-14.119
-10.9225
-8.3134
-6.21941
-4.55505
-3.24211
-2.21465
-1.42043
-0.820314
-0.387299
-0.106833
0.0234155
-0.0094698
-0.248744
-0.777356
-1.7353
-3.48549
-6.47671
-10.7611
-15.7417
-20.3311
-23.384
-24.2371
-22.8261
-19.6773
-15.8096
-12.1222
-9.03766
-6.60518
-4.73999
-3.33814
-2.29936
-1.53482
-0.972157
-0.555671
-0.24434
-0.00907473
0.170037
0.306264
0.408331
0.482099
0.531767
0.560685
0.571778
0.567788
0.551343
0.524946
0.490935
0.451475
0.408397
0.363407
0.317488
0.272142
0.226647
0.184204
0.138541
0.10342
0.0483971
0.038961
-15.3922
-15.7074
-16.1308
-16.6843
-17.3728
-18.1786
-19.0469
-19.8749
-20.5191
-20.8164
-20.6192
-19.8346
-18.4499
-16.5351
-14.2362
-11.7606
-9.33944
-7.17793
-5.42815
-4.19319
-3.55187
-3.56319
-4.3005
-5.83965
-8.25387
-11.5396
-15.5695
-20.0942
-24.7814
-29.2637
-33.1691
-36.1512
-37.9326
-38.4329
-37.6135
-35.6329
-32.7174
-29.1295
-25.158
-21.1087
-17.2597
-13.8092
-10.8526
-8.39537
-6.39157
-4.77759
-3.49003
-2.47283
-1.68021
-1.07722
-0.639539
-0.353964
-0.219221
-0.247707
-0.477066
-0.984042
-1.88633
-3.44962
-6.01879
-9.6485
-13.883
-17.8476
-20.5675
-21.4592
-20.45
-17.9566
-14.7728
-11.6159
-8.86874
-6.62818
-4.86342
-3.50598
-2.47782
-1.70454
-1.12296
-0.683127
-0.347567
-0.089337
0.110249
0.263866
0.380089
0.464917
0.522867
0.557691
0.572745
0.571183
0.556007
0.530044
0.495898
0.455958
0.412222
0.366532
0.319941
0.274037
0.228051
0.185308
0.13927
0.104111
0.0486027
0.0394376
-15.3727
-15.6766
-16.0665
-16.5549
-17.1396
-17.7997
-18.485
-19.1108
-19.5629
-19.7147
-19.4531
-18.7068
-17.4664
-15.7892
-13.7945
-11.6502
-9.54521
-7.65349
-6.11203
-5.02105
-4.45833
-4.48136
-5.15793
-6.54221
-8.68579
-11.5933
-15.1662
-19.191
-23.3701
-27.3714
-30.8687
-33.5694
-35.2369
-35.7923
-35.1207
-33.3308
-30.6448
-27.3521
-23.7557
-20.1225
-16.6614
-13.5209
-10.785
-8.47329
-6.5602
-4.99955
-3.7408
-2.73703
-1.94871
-1.34502
-0.904361
-0.614955
-0.476322
-0.500704
-0.720674
-1.2052
-2.05554
-3.46733
-5.69167
-8.76963
-12.3481
-15.7399
-18.1471
-19.0679
-18.4093
-16.4728
-13.863
-11.159
-8.71305
-6.65345
-4.98793
-3.67626
-2.66009
-1.87872
-1.27812
-0.814277
-0.453529
-0.171315
0.0496682
0.221419
0.352336
0.448568
0.514983
0.555765
0.574739
0.575504
0.561458
0.535773
0.50134
0.460779
0.416263
0.369775
0.322439
0.275926
0.229419
0.186358
0.13995
0.104747
0.0487939
0.0398629
-15.3305
-15.6165
-15.9693
-16.3943
-16.8853
-17.4202
-17.9547
-18.4187
-18.7214
-18.7645
-18.4609
-17.7566
-16.6459
-15.1764
-13.4456
-11.5899
-9.76393
-8.11501
-6.76512
-5.80862
-5.32055
-5.35556
-5.97341
-7.21717
-9.11617
-11.6693
-14.8021
-18.3466
-22.0531
-25.6264
-28.7687
-31.2153
-32.7536
-33.2252
-32.6047
-30.9768
-28.5622
-25.6334
-22.4497
-19.2212
-16.1122
-13.2506
-10.7188
-8.5473
-6.72524
-5.22049
-3.99374
-3.00648
-2.22512
-1.62289
-1.18088
-0.888816
-0.746818
-0.766937
-0.977506
-1.43912
-2.23875
-3.52364
-5.46982
-8.09816
-11.1278
-14.0225
-16.1463
-17.075
-16.6942
-15.2046
-13.0636
-10.7452
-8.57018
-6.68216
-5.11472
-3.84998
-2.84702
-2.05806
-1.43812
-0.949395
-0.562307
-0.254931
-0.0115152
0.179181
0.325357
0.433334
0.508363
0.555111
0.577913
0.580854
0.567756
0.542162
0.507262
0.46592
0.420492
0.373102
0.324946
0.277777
0.230725
0.187334
0.14057
0.105323
0.0489713
0.0402492
-15.2671
-15.5314
-15.846
-16.2119
-16.62
-17.0487
-17.459
-17.7933
-17.9797
-17.9418
-17.6134
-16.9541
-15.9613
-14.6745
-13.1735
-11.5694
-9.9894
-8.55799
-7.38275
-6.55059
-6.13195
-6.17858
-6.74138
-7.85555
-9.5365
-11.7713
-14.495
-17.5733
-20.8054
-23.9428
-26.7198
-28.887
-30.2323
-30.6383
-30.0943
-28.6855
-26.599
-24.0578
-21.2684
-18.4028
-15.6055
-12.9954
-10.654
-8.61773
-6.88664
-5.43993
-4.2481
-3.28027
-2.50847
-1.9098
-1.468
-1.17431
-1.02933
-1.04466
-1.24521
-1.68338
-2.43267
-3.60602
-5.32503
-7.59142
-10.1764
-12.6577
-14.5309
-15.4405
-15.2604
-14.116
-12.3561
-10.3691
-8.44039
-6.71576
-5.24521
-4.02839
-3.03969
-2.24341
-1.60359
-1.08884
-0.674011
-0.340098
-0.0730747
0.137461
0.299493
0.419555
0.503322
0.556008
0.582511
0.587435
0.575066
0.549336
0.513756
0.471445
0.424947
0.376533
0.32747
0.279584
0.231958
0.188224
0.141114
0.105822
0.0491183
0.0405793
-15.1868
-15.427
-15.7038
-16.0149
-16.3498
-16.6883
-16.9967
-17.2279
-17.325
-17.229
-16.8897
-16.2771
-15.391
-14.2649
-12.964
-11.5794
-10.2159
-8.97853
-7.96127
-7.24287
-6.88797
-6.94485
-7.4568
-8.45175
-9.93741
-11.8927
-14.2549
-16.9087
-19.6881
-22.3882
-24.7848
-26.6604
-27.8367
-28.218
-27.788
-26.6155
-24.8456
-22.6528
-20.2057
-17.6553
-15.1344
-12.7538
-10.5908
-8.68499
-7.04434
-5.65739
-4.50311
-3.55748
-2.79769
-2.20461
-1.76447
-1.47002
-1.32226
-1.33212
-1.52148
-1.93518
-2.6342
-3.70535
-5.23257
-7.20342
-9.42866
-11.5704
-13.2231
-14.0907
-14.0471
-13.1696
-11.7245
-10.0273
-8.3245
-6.75595
-5.38109
-4.21308
-3.23947
-2.4359
-1.77532
-1.23306
-0.788798
-0.426729
-0.134753
0.0966061
0.275137
0.407609
0.500201
0.558747
0.588759
0.595416
0.583503
0.557367
0.520859
0.477364
0.429623
0.380051
0.329989
0.281331
0.233105
0.189018
0.14158
0.106251
0.049247
0.0408756
-15.0916
-15.3068
-15.5472
-15.8084
-16.0798
-16.3425
-16.568
-16.718
-16.7475
-16.6111
-16.271
-15.7054
-14.9162
-13.9316
-12.8055
-11.6125
-10.4391
-9.37386
-8.49837
-7.88285
-7.5857
-7.65096
-8.11563
-9.00148
-10.3112
-12.0208
-14.0703
-16.3578
-18.742
-21.0516
-23.1017
-24.7168
-25.7511
-26.1146
-25.7828
-24.8084
-23.3006
-21.3975
-19.2418
-16.9676
-14.6955
-12.5254
-10.5298
-8.74947
-7.19831
-5.87243
-4.75801
-3.8371
-3.09165
-2.50603
-2.06889
-1.77439
-1.62385
-1.62741
-1.80407
-2.19181
-2.84031
-3.81545
-5.17452
-6.89631
-8.82274
-10.68
-12.1374
-12.9506
-13.0014
-12.3367
-11.1582
-9.71773
-8.2236
-6.80459
-5.52439
-4.40598
-3.44811
-2.63694
-1.95432
-1.38266
-0.906875
-0.51473
-0.196251
0.057038
0.252745
0.397938
0.499405
0.563672
0.596943
0.605022
0.593234
0.566373
0.528645
0.483716
0.434528
0.383646
0.332479
0.282982
0.234127
0.189679
0.141933
0.106578
0.0493267
0.0411086
-14.9852
-15.1755
-15.3815
-15.5979
-15.8143
-16.0139
-16.1724
-16.2588
-16.238
-16.0751
-15.7418
-15.2229
-14.5215
-13.6617
-12.6881
-11.6619
-10.655
-9.74187
-8.99259
-8.46914
-8.22357
-8.29529
-8.71584
-9.50212
-10.6533
-12.1449
-13.9219
-15.8953
-17.9442
-19.9244
-21.6824
-23.0735
-23.9744
-24.3058
-24.0426
-23.2213
-21.9249
-20.2649
-18.3621
-16.334
-14.2868
-12.3103
-10.4716
-8.81152
-7.34852
-6.08462
-5.01203
-4.11811
-3.38913
-2.8127
-2.37975
-2.08574
-1.93224
-1.92849
-2.09083
-2.45084
-3.04833
-3.93216
-5.13987
-6.64535
-8.31584
-9.92827
-11.2119
-11.9684
-12.0886
-11.599
-10.65
-9.43922
-8.13891
-6.86381
-5.6775
-4.60947
-3.66776
-2.8483
-2.14187
-1.53838
-1.02852
-0.604001
-0.257228
0.0192432
0.232834
0.39105
0.501387
0.571167
0.607366
0.616482
0.604423
0.576462
0.53718
0.490535
0.439677
0.387318
0.334936
0.284534
0.235027
0.190214
0.142185
0.106821
0.0493819
0.0413128
-14.8696
-15.0358
-15.2101
-15.3869
-15.5563
-15.7035
-15.8083
-15.8459
-15.7886
-15.61
-15.2892
-14.8156
-14.1936
-13.4438
-12.6032
-11.7224
-10.8608
-10.0811
-9.4433
-9.00134
-8.8011
-8.87721
-9.25651
-9.952
-10.9604
-12.2579
-13.7952
-15.4951
-17.2547
-18.9525
-20.46
-21.6538
-22.4317
-22.7254
-22.5103
-21.8105
-20.6902
-19.2394
-17.5593
-15.7507
-13.907
-12.1083
-10.4163
-8.87149
-7.49502
-6.2936
-5.26444
-4.39951
-3.68891
-3.12323
-2.69547
-2.40233
-2.24552
-2.23332
-2.37962
-2.71011
-3.25603
-4.05255
-5.12233
-6.43673
-7.88421
-9.28329
-10.412
-11.1143
-11.287
-10.9439
-10.1945
-9.19076
-8.07177
-6.936
-5.84325
-4.82647
-3.90114
-3.07221
-2.33958
-1.70118
-1.15408
-0.694441
-0.317262
-0.0162221
0.216016
0.387534
0.50667
0.581666
0.620373
0.630055
0.617251
0.587747
0.546519
0.497829
0.445041
0.391015
0.337293
0.285916
0.235731
0.190557
0.142278
0.10693
0.0493681
0.0414455
-14.748
-14.8913
-15.0368
-15.1788
-15.3084
-15.4127
-15.4751
-15.4755
-15.3926
-15.2065
-14.9018
-14.4719
-13.9215
-13.2685
-12.5438
-11.7892
-11.0541
-10.3909
-9.85074
-9.48016
-9.31923
-9.39767
-9.73845
-10.3514
-11.2317
-12.3567
-13.6825
-15.1426
-16.6496
-18.1012
-19.3894
-20.41
-21.0778
-21.3335
-21.1532
-20.5529
-19.5816
-18.3117
-16.8273
-15.2145
-13.5548
-11.9193
-10.3646
-8.92976
-7.63787
-6.49906
-5.51458
-4.68033
-3.98977
-3.43618
-3.01446
-2.72239
-2.56179
-2.5399
-2.6684
-2.96763
-3.46149
-4.17431
-5.11771
-6.26213
-7.51415
-8.72696
-9.7266
-10.3682
-10.5806
-10.3611
-9.78676
-8.97142
-8.02359
-7.02389
-6.02505
-5.06058
-4.1516
-3.3115
-2.54948
-1.87226
-1.284
-0.785935
-0.375879
-0.0487124
0.203
0.388067
0.51585
0.595664
0.636355
0.646032
0.631928
0.60037
0.556754
0.505654
0.450653
0.394756
0.339562
0.287137
0.236254
0.190724
0.142235
0.106933
0.0493195
0.0415509
-14.6222
-14.7443
-14.8639
-14.9757
-15.0719
-15.1414
-15.1705
-15.1433
-15.0435
-14.856
-14.5699
-14.1814
-13.6954
-13.1275
-12.5037
-11.8585
-11.2329
-10.6708
-10.2154
-9.90651
-9.7784
-9.8577
-10.1625
-10.7003
-11.4658
-12.4378
-13.5776
-14.8277
-16.1143
-17.3512
-18.448
-19.317
-19.8865
-20.1049
-19.9499
-19.4312
-18.5862
-17.4728
-16.1603
-14.7221
-13.2287
-11.7431
-10.3167
-8.98675
-7.77722
-6.70078
-5.76188
-4.95967
-4.29056
-3.75019
-3.33516
-3.0442
-2.87919
-2.84631
-2.95528
-3.2216
-3.66306
-4.29548
-5.12253
-6.11498
-7.19487
-8.24361
-9.12086
-9.71287
-9.9555
-9.8412
-9.4222
-8.7803
-7.99595
-7.13063
-6.22698
-5.31623
-4.4234
-3.56972
-2.77414
-2.0531
-1.41888
-0.878325
-0.432527
-0.0774461
0.194619
0.393432
0.529602
0.61371
0.655731
0.664717
0.648649
0.614434
0.56791
0.513974
0.456434
0.398434
0.341625
0.288082
0.236489
0.190625
0.14198
0.106767
0.0491841
0.0415785
-14.4948
-14.5975
-14.6942
-14.7802
-14.8487
-14.8901
-14.8935
-14.8464
-14.7362
-14.5518
-14.2857
-13.9358
-13.5076
-13.0144
-12.478
-11.9273
-11.3961
-10.9212
-10.5388
-10.2829
-10.1826
-10.2604
-10.5315
-11.0014
-11.6642
-12.5007
-13.477
-14.5437
-15.6383
-16.6885
-17.6183
-18.3544
-18.8359
-19.0185
-18.8816
-18.4301
-17.6923
-16.7142
-15.5531
-14.2706
-12.9277
-11.5797
-10.273
-9.04289
-7.9133
-6.89864
-6.00585
-5.23675
-4.59021
-4.06396
-3.65607
-3.36611
-3.19596
-3.15079
-3.23851
-3.47044
-3.85931
-4.4144
-5.13383
-5.98961
-6.91704
-7.82068
-8.5895
-9.13389
-9.39936
-9.37578
-9.0964
-8.61647
-7.99062
-7.25993
-6.45402
-5.59897
-4.72188
-3.85136
-3.0168
-2.24561
-1.5594
-0.971484
-0.486545
-0.101499
0.191849
0.404535
0.548707
0.636436
0.67899
0.686469
0.66767
0.630117
0.580105
0.522866
0.46243
0.402078
0.343502
0.288765
0.236451
0.190277
0.141534
0.106459
0.0489943
0.0415734
-14.3669
-14.4521
-14.5288
-14.5929
-14.6384
-14.6577
-14.6416
-14.5806
-14.465
-14.2869
-14.0412
-13.7274
-13.3506
-12.9228
-12.4621
-11.9926
-11.5424
-11.142
-10.822
-10.6107
-10.533
-10.6076
-10.847
-11.2553
-11.8264
-12.5431
-13.3758
-14.2824
-15.21
-16.0979
-16.8824
-17.5025
-17.9061
-18.0553
-17.9312
-17.5354
-16.889
-16.0285
-15.0007
-13.8573