/*--------------------------------*- C++ -*----------------------------------*\
| =========                 |                                                 |
| \\      /  F ield         | OpenFOAM: The Open Source CFD Toolbox           |
|  \\    /   O peration     | Version:  2.1.1                                 |
|   \\  /    A nd           | Web:      www.OpenFOAM.org                      |
|    \\/     M anipulation  |                                                 |
\*---------------------------------------------------------------------------*/
FoamFile
{
    version     2.0;
    format      ascii;
    class       surfaceScalarField;
    location    "0.105";
    object      phi;
}
// * * * * * * * * * * * * * * * * * * * * * * * * * * * * * * * * * * * * * //

dimensions      [0 3 -1 0 0 0 0];

internalField   nonuniform List<scalar> 
13452
(
4.59997e-05
2.24876e-05
2.96669e-05
1.63328e-05
2.1194e-05
8.47285e-06
1.7297e-05
3.89709e-06
1.56598e-05
1.63719e-06
1.48578e-05
8.01981e-07
1.43542e-05
5.03569e-07
1.39721e-05
3.82101e-07
1.36514e-05
3.20681e-07
1.33768e-05
2.7467e-07
1.31436e-05
2.33181e-07
1.29481e-05
1.95528e-07
1.2786e-05
1.6209e-07
1.26531e-05
1.32911e-07
1.25454e-05
1.07619e-07
1.24598e-05
8.56299e-08
1.23935e-05
6.63508e-08
1.23442e-05
4.92603e-08
1.23102e-05
3.39774e-08
1.22901e-05
2.008e-08
1.22828e-05
7.34712e-09
1.22871e-05
-4.27883e-09
1.23016e-05
-1.45286e-08
1.23255e-05
-2.38781e-08
1.23576e-05
-3.20821e-08
1.23964e-05
-3.87966e-08
1.24408e-05
-4.44863e-08
1.24884e-05
-4.75888e-08
1.25389e-05
-5.04722e-08
1.2583e-05
-4.41104e-08
1.26367e-05
-5.36421e-08
1.26365e-05
1.67376e-10
-1.76942e-07
1.28134e-05
7.49136e-05
1.8018e-05
7.04167e-05
2.08297e-05
6.33335e-05
1.5556e-05
5.66881e-05
1.05425e-05
5.15833e-05
6.7419e-06
4.7942e-05
4.44328e-06
4.53382e-05
3.1074e-06
4.34298e-05
2.29047e-06
4.19839e-05
1.76661e-06
4.08507e-05
1.40788e-06
3.9938e-05
1.14587e-06
3.9188e-05
9.45499e-07
3.85631e-05
7.87085e-07
3.80374e-05
6.58575e-07
3.75929e-05
5.52085e-07
3.72164e-05
4.62167e-07
3.68978e-05
3.84944e-07
3.66294e-05
3.17604e-07
3.64053e-05
2.58108e-07
3.62205e-05
2.04888e-07
3.60709e-05
1.56912e-07
3.59532e-05
1.13478e-07
3.58645e-05
7.4164e-08
3.58022e-05
3.83852e-08
3.57644e-05
5.76689e-09
3.57479e-05
-2.23145e-08
3.57503e-05
-4.68859e-08
3.57687e-05
-6.60166e-08
3.57996e-05
-8.13129e-08
3.5842e-05
-8.65261e-08
3.58889e-05
-1.00578e-07
3.59798e-05
-9.0716e-08
-1.55043e-07
3.59579e-05
7.85211e-05
1.19534e-05
8.2336e-05
1.70148e-05
8.29977e-05
1.48943e-05
8.14895e-05
1.20507e-05
7.89777e-05
9.25363e-06
7.63059e-05
7.11514e-06
7.38052e-05
5.60811e-06
7.15787e-05
4.51697e-06
6.96395e-05
3.7058e-06
6.7963e-05
3.08433e-06
6.6516e-05
2.59287e-06
6.52665e-05
2.19498e-06
6.41863e-05
1.86733e-06
6.32511e-05
1.59375e-06
6.24408e-05
1.36246e-06
6.17383e-05
1.16467e-06
6.11295e-05
9.93694e-07
6.06027e-05
8.44377e-07
6.01481e-05
7.12735e-07
5.97573e-05
5.9565e-07
5.94235e-05
4.90763e-07
5.91406e-05
3.96325e-07
5.89038e-05
3.11052e-07
5.87082e-05
2.33919e-07
5.85495e-05
1.64463e-07
5.84243e-05
1.02867e-07
5.83287e-05
4.87574e-08
5.82595e-05
3.20359e-09
5.82121e-05
-3.38903e-08
5.81836e-05
-5.80368e-08
5.81581e-05
-7.51129e-08
5.81347e-05
-6.73529e-08
-4.88739e-08
5.80286e-05
7.81468e-05
8.33325e-06
8.19231e-05
1.32385e-05
8.46191e-05
1.21983e-05
8.62427e-05
1.04272e-05
8.69238e-05
8.57248e-06
8.70161e-05
7.02287e-06
8.67624e-05
5.8618e-06
8.63053e-05
4.97405e-06
8.57365e-05
4.27458e-06
8.51118e-05
3.70903e-06
8.44659e-05
3.23886e-06
8.38212e-05
2.83963e-06
8.31934e-05
2.49516e-06
8.2593e-05
2.19409e-06
8.20267e-05
1.92874e-06
8.14982e-05
1.69318e-06
8.10093e-05
1.48261e-06
8.05606e-05
1.29313e-06
8.01517e-05
1.12162e-06
7.97818e-05
9.65525e-07
7.94497e-05
8.22869e-07
7.91539e-05
6.92131e-07
7.88928e-05
5.72169e-07
7.86645e-05
4.62162e-07
7.84673e-05
3.61671e-07
7.82992e-05
2.70954e-07
7.81578e-05
1.90171e-07
7.80405e-05
1.20497e-07
7.79438e-05
6.28763e-08
7.7865e-05
2.0707e-08
7.77946e-05
-4.70733e-09
7.77298e-05
-2.57448e-09
4.05309e-08
7.76404e-05
7.89917e-05
5.99743e-06
8.15916e-05
1.06386e-05
8.35187e-05
1.02712e-05
8.49625e-05
8.98338e-06
8.59804e-05
7.55458e-06
8.67212e-05
6.28206e-06
8.72875e-05
5.29544e-06
8.77278e-05
4.53381e-06
8.80737e-05
3.92865e-06
8.83468e-05
3.43593e-06
8.85617e-05
3.024e-06
8.87297e-05
2.67158e-06
8.88594e-05
2.36544e-06
8.89572e-05
2.09638e-06
8.90289e-05
1.85694e-06
8.90805e-05
1.64164e-06
8.91167e-05
1.4464e-06
8.91418e-05
1.26807e-06
8.91592e-05
1.10416e-06
8.9172e-05
9.52714e-07
8.91827e-05
8.12236e-07
8.91932e-05
6.81617e-07
8.92053e-05
5.60081e-07
8.92203e-05
4.47159e-07
8.92392e-05
3.42721e-07
8.9263e-05
2.47171e-07
8.92921e-05
1.61027e-07
8.93271e-05
8.55653e-08
8.93671e-05
2.28451e-08
8.94118e-05
-2.39845e-08
8.94586e-05
-5.15512e-08
8.95082e-05
-5.21577e-08
-1.26683e-08
8.95614e-05
8.04633e-05
4.38006e-06
8.25059e-05
8.59593e-06
8.39927e-05
8.78445e-06
8.5053e-05
7.92312e-06
8.57766e-05
6.831e-06
8.62919e-05
5.76674e-06
8.67002e-05
4.8871e-06
8.70488e-05
4.18524e-06
8.73608e-05
3.61666e-06
8.76478e-05
3.14891e-06
8.79149e-05
2.75691e-06
8.81646e-05
2.4219e-06
8.8399e-05
2.13096e-06
8.86204e-05
1.87506e-06
8.88297e-05
1.64756e-06
8.90281e-05
1.4433e-06
8.92162e-05
1.25826e-06
8.9395e-05
1.08932e-06
8.95651e-05
9.34012e-07
8.97274e-05
7.90401e-07
8.98827e-05
6.57004e-07
9.00316e-05
5.32724e-07
9.01748e-05
4.16797e-07
9.03132e-05
3.0876e-07
9.04475e-05
2.08498e-07
9.05784e-05
1.16253e-07
9.07068e-05
3.26282e-08
9.08335e-05
-4.1167e-08
9.09603e-05
-1.03961e-07
9.10898e-05
-1.53455e-07
9.12246e-05
-1.86353e-07
9.13699e-05
-1.9743e-07
-1.8101e-07
9.15382e-05
8.22343e-05
3.24431e-06
8.38951e-05
6.93516e-06
8.51836e-05
7.49592e-06
8.61185e-05
6.98817e-06
8.67621e-05
6.18741e-06
8.72044e-05
5.32445e-06
8.75332e-05
4.5583e-06
8.77978e-05
3.92062e-06
8.80249e-05
3.38958e-06
8.82298e-05
2.94399e-06
8.84208e-05
2.56597e-06
8.8602e-05
2.24063e-06
8.87761e-05
1.9569e-06
8.89444e-05
1.70671e-06
8.91081e-05
1.48391e-06
8.92677e-05
1.2837e-06
8.94237e-05
1.10227e-06
8.95764e-05
9.36615e-07
8.97261e-05
7.84338e-07
8.98729e-05
6.4353e-07
9.00172e-05
5.12706e-07
9.01592e-05
3.90742e-07
9.02992e-05
2.76824e-07
9.04375e-05
1.70432e-07
9.05747e-05
7.13153e-08
9.07114e-05
-2.04946e-08
9.08488e-05
-1.04682e-07
9.09881e-05
-1.80479e-07
9.1131e-05
-2.4685e-07
9.12797e-05
-3.02233e-07
9.1438e-05
-3.44629e-07
9.16118e-05
-3.71263e-07
-3.80731e-07
9.18116e-05
8.42167e-05
2.44311e-06
8.55511e-05
5.60078e-06
8.6674e-05
6.373e-06
8.75328e-05
6.12937e-06
8.81607e-05
5.55955e-06
8.86105e-05
4.8746e-06
8.89477e-05
4.22113e-06
8.92159e-05
3.65243e-06
8.94408e-05
3.1647e-06
8.96384e-05
2.74634e-06
8.98185e-05
2.38596e-06
8.99864e-05
2.07264e-06
9.01459e-05
1.79745e-06
9.02991e-05
1.5535e-06
9.04476e-05
1.3354e-06
9.05925e-05
1.13881e-06
9.07346e-05
9.60203e-07
9.08744e-05
7.96771e-07
9.10125e-05
6.46229e-07
9.11493e-05
5.06742e-07
9.12852e-05
3.76857e-07
9.14205e-05
2.55447e-07
9.15556e-05
1.41676e-07
9.16911e-05
3.4926e-08
9.18276e-05
-6.51385e-08
9.19657e-05
-1.58582e-07
9.21063e-05
-2.4531e-07
9.22508e-05
-3.24992e-07
9.24011e-05
-3.97116e-07
9.25598e-05
-4.60957e-07
9.27309e-05
-5.15779e-07
9.29206e-05
-5.60892e-07
-5.97564e-07
9.31374e-05
8.63721e-05
1.86971e-06
8.74418e-05
4.53112e-06
8.84141e-05
5.40074e-06
8.91929e-05
5.35056e-06
8.97914e-05
4.96099e-06
9.02404e-05
4.42561e-06
9.0587e-05
3.87452e-06
9.08678e-05
3.3717e-06
9.11052e-05
2.92726e-06
9.13139e-05
2.5376e-06
9.15033e-05
2.19662e-06
9.1679e-05
1.89694e-06
9.18447e-05
1.63167e-06
9.20031e-05
1.39513e-06
9.21559e-05
1.18266e-06
9.23043e-05
9.904e-07
9.24493e-05
8.15177e-07
9.25917e-05
6.54371e-07
9.27321e-05
5.05839e-07
9.2871e-05
3.6783e-07
9.30089e-05
2.38928e-07
9.31464e-05
1.18009e-07
9.32838e-05
4.21359e-09
9.34219e-05
-1.03158e-07
9.35613e-05
-2.04508e-07
9.37028e-05
-3.00136e-07
9.38477e-05
-3.90198e-07
9.39975e-05
-4.74726e-07
9.41541e-05
-5.53726e-07
9.43203e-05
-6.27236e-07
9.45002e-05
-6.95607e-07
9.4699e-05
-7.5968e-07
-8.22049e-07
9.49234e-05
8.86676e-05
1.4521e-06
8.95252e-05
3.67356e-06
9.03639e-05
4.562e-06
9.10672e-05
4.6473e-06
9.16321e-05
4.39605e-06
9.2074e-05
3.98376e-06
9.24247e-05
3.52381e-06
9.27134e-05
3.08296e-06
9.29597e-05
2.68094e-06
9.31769e-05
2.32045e-06
9.33738e-05
1.99971e-06
9.35563e-05
1.71446e-06
9.37282e-05
1.45978e-06
9.38921e-05
1.23119e-06
9.40499e-05
1.02482e-06
9.4203e-05
8.37315e-07
9.43524e-05
6.65824e-07
9.44988e-05
5.07951e-07
9.46429e-05
3.6169e-07
9.47854e-05
2.25368e-07
9.49267e-05
9.7606e-08
9.50675e-05
-2.27285e-08
9.52082e-05
-1.36544e-07
9.53497e-05
-2.44587e-07
9.54926e-05
-3.4742e-07
9.56379e-05
-4.45507e-07
9.5787e-05
-5.39256e-07
9.59413e-05
-6.29058e-07
9.6103e-05
-7.1539e-07
9.62747e-05
-7.98922e-07
9.64599e-05
-8.80787e-07
9.6663e-05
-9.62803e-07
-1.0481e-06
9.6889e-05
9.10814e-05
1.14206e-06
9.17709e-05
2.98402e-06
9.24934e-05
3.83946e-06
9.31277e-05
4.013e-06
9.3658e-05
3.86573e-06
9.40887e-05
3.55308e-06
9.44399e-05
3.17265e-06
9.4734e-05
2.78886e-06
9.49876e-05
2.42733e-06
9.52124e-05
2.09563e-06
9.54167e-05
1.79543e-06
9.5606e-05
1.52514e-06
9.57842e-05
1.28162e-06
9.59538e-05
1.06154e-06
9.61169e-05
8.61767e-07
9.62747e-05
6.79453e-07
9.64285e-05
5.1208e-07
9.6579e-05
3.5747e-07
9.67269e-05
2.13755e-07
9.68729e-05
7.93438e-08
9.70176e-05
-4.71094e-08
9.71617e-05
-1.66737e-07
9.73056e-05
-2.80489e-07
9.74502e-05
-3.8918e-07
9.75963e-05
-4.93506e-07
9.77449e-05
-5.94103e-07
9.78972e-05
-6.91606e-07
9.80549e-05
-7.86699e-07
9.82197e-05
-8.8023e-07
9.83941e-05
-9.73322e-07
9.85809e-05
-1.06759e-06
9.87835e-05
-1.16538e-06
-1.26984e-06
9.90052e-05
9.35997e-05
9.07021e-07
9.4157e-05
2.42676e-06
9.47787e-05
3.21767e-06
9.53496e-05
3.44209e-06
9.58451e-05
3.3703e-06
9.6262e-05
3.1362e-06
9.66114e-05
2.82324e-06
9.69096e-05
2.49067e-06
9.71699e-05
2.16702e-06
9.74022e-05
1.86327e-06
9.7614e-05
1.58368e-06
9.78104e-05
1.32875e-06
9.79951e-05
1.09692e-06
9.81707e-05
8.85889e-07
9.83393e-05
6.93228e-07
9.85021e-05
5.16578e-07
9.86605e-05
3.5375e-07
9.88151e-05
2.02786e-07
9.89669e-05
6.19593e-08
9.91165e-05
-7.02386e-08
9.92645e-05
-1.95113e-07
9.94116e-05
-3.13795e-07
9.95584e-05
-4.27273e-07
9.97056e-05
-5.36429e-07
9.98542e-05
-6.42067e-07
0.000100005
-7.44969e-07
0.000100159
-8.45947e-07
0.000100319
-9.45913e-07
0.000100484
-1.04597e-06
0.000100659
-1.14753e-06
0.000100843
-1.25244e-06
0.000101041
-1.36323e-06
-1.48275e-06
0.000101254
9.62141e-05
7.2503e-07
9.66677e-05
1.97318e-06
9.7203e-05
2.6823e-06
9.77164e-05
2.92868e-06
9.81779e-05
2.9088e-06
9.85792e-05
2.73493e-06
9.89246e-05
2.47786e-06
9.92249e-05
2.19035e-06
9.94905e-05
1.90142e-06
9.97295e-05
1.62423e-06
9.99484e-05
1.36483e-06
0.000100152
1.12536e-06
0.000100343
9.05535e-07
0.000100525
7.03978e-07
0.000100699
5.18904e-07
0.000100868
3.48398e-07
0.000101031
1.90587e-07
0.00010119
4.37193e-08
0.000101346
-9.37955e-08
0.000101499
-2.23379e-07
0.00010165
-3.46295e-07
0.0001018
-4.63673e-07
0.000101949
-5.76525e-07
0.000102098
-6.85787e-07
0.000102249
-7.92347e-07
0.000102401
-8.97092e-07
0.000102556
-1.00097e-06
0.000102715
-1.10503e-06
0.000102879
-1.21053e-06
0.000103051
-1.31898e-06
0.000103231
-1.43229e-06
0.00010342
-1.5529e-06
-1.68319e-06
0.000103621
9.89196e-05
5.81121e-07
9.92921e-05
1.60067e-06
9.97541e-05
2.22033e-06
0.000100216
2.46698e-06
0.000100645
2.47981e-06
0.000101029
2.35043e-06
0.000101369
2.13836e-06
0.00010167
1.88947e-06
0.000101939
1.63169e-06
0.000102184
1.37921e-06
0.00010241
1.13926e-06
0.00010262
9.1511e-07
0.000102818
7.07492e-07
0.000103006
5.1579e-07
0.000103187
3.38766e-07
0.00010336
1.74906e-07
0.000103528
2.26188e-08
0.000103691
-1.19652e-07
0.000103851
-2.53361e-07
0.000104008
-3.79848e-07
0.000104162
-5.00335e-07
0.000104314
-6.15935e-07
0.000104465
-7.27676e-07
0.000104616
-8.36526e-07
0.000104767
-9.43427e-07
0.000104919
-1.04933e-06
0.000105073
-1.15526e-06
0.000105231
-1.26233e-06
0.000105392
-1.37183e-06
0.000105558
-1.48529e-06
0.00010573
-1.60447e-06
0.000105909
-1.73162e-06
-1.86858e-06
0.000106095
0.000101714
4.6499e-07
0.000102023
1.29147e-06
0.000102423
1.82012e-06
0.000102839
2.05127e-06
0.000103238
2.08125e-06
0.000103605
1.98296e-06
0.000103937
1.80594e-06
0.000104238
1.58934e-06
0.00010451
1.35895e-06
0.00010476
1.12908e-06
0.000104992
9.07564e-07
0.000105209
6.98395e-07
0.000105413
5.03031e-07
0.000105608
3.21455e-07
0.000105794
1.52886e-07
0.000105972
-3.85104e-09
0.000106145
-1.50099e-07
0.000106313
-2.87234e-07
0.000106476
-4.1659e-07
0.000106635
-5.39428e-07
0.000106792
-6.56921e-07
0.000106946
-7.70162e-07
0.000107099
-8.80176e-07
0.00010725
-9.87943e-07
0.000107401
-1.09443e-06
0.000107552
-1.20061e-06
0.000107705
-1.30752e-06
0.000107859
-1.41627e-06
0.000108015
-1.52813e-06
0.000108174
-1.64449e-06
0.000108337
-1.76694e-06
0.000108502
-1.89739e-06
-2.03715e-06
0.000108671
0.000104596
3.69428e-07
0.000104856
1.03173e-06
0.000105204
1.47139e-06
0.00010558
1.67595e-06
0.00010595
1.71065e-06
0.000106301
1.63224e-06
0.000106626
1.48137e-06
0.000106924
1.29098e-06
0.000107199
1.08413e-06
0.000107453
8.74567e-07
0.000107691
6.7025e-07
0.000107914
4.75532e-07
0.000108124
2.92342e-07
0.000108325
1.21095e-07
0.000108516
-3.86427e-08
0.0001087
-1.87773e-07
0.000108877
-3.27431e-07
0.000109049
-4.58842e-07
0.000109216
-5.83233e-07
0.000109378
-7.01787e-07
0.000109537
-8.1563e-07
0.000109692
-9.25822e-07
0.000109846
-1.03337e-06
0.000109997
-1.13925e-06
0.000110147
-1.24441e-06
0.000110296
-1.34982e-06
0.000110445
-1.45647e-06
0.000110594
-1.56544e-06
0.000110744
-1.67785e-06
0.000110894
-1.79497e-06
0.000111046
-1.9181e-06
0.000111197
-2.04881e-06
-2.18791e-06
0.000111348
0.000107566
2.89294e-07
0.000107787
8.10616e-07
0.000108093
1.16517e-06
0.000108434
1.33563e-06
0.000108779
1.36527e-06
0.000109114
1.29735e-06
0.000109431
1.16482e-06
0.000109727
9.94964e-07
0.000110003
8.07866e-07
0.000110261
6.16242e-07
0.000110504
4.27768e-07
0.000110732
2.46861e-07
0.000110949
7.5677e-08
0.000111155
-8.50983e-08
0.000111352
-2.35658e-07
0.000111541
-3.76702e-07
0.000111723
-5.09206e-07
0.000111898
-6.34272e-07
0.000112068
-7.53032e-07
0.000112233
-8.66602e-07
0.000112393
-9.76057e-07
0.00011255
-1.08242e-06
0.000112703
-1.18666e-06
0.000112854
-1.28972e-06
0.000113002
-1.39253e-06
0.000113148
-1.49599e-06
0.000113293
-1.60105e-06
0.000113436
-1.70865e-06
0.000113578
-1.8198e-06
0.000113718
-1.93554e-06
0.000113857
-2.0569e-06
0.000113993
-2.18508e-06
-2.32049e-06
0.000114126
0.000110625
2.20845e-07
0.000110816
6.19631e-07
0.000111088
8.93719e-07
0.000111398
1.02516e-06
0.000111721
1.04212e-06
0.000112042
9.76973e-07
0.000112351
8.55996e-07
0.000112644
7.01494e-07
0.000112921
5.30543e-07
0.000113183
3.54495e-07
0.00011343
1.80451e-07
0.000113665
1.26321e-08
0.000113887
-1.46778e-07
0.000114099
-2.96978e-07
0.000114301
-4.38025e-07
0.000114495
-5.70493e-07
0.000114681
-6.95246e-07
0.00011486
-8.13294e-07
0.000115033
-9.25697e-07
0.0001152
-1.03351e-06
0.000115361
-1.13776e-06
0.000115518
-1.23941e-06
0.000115671
-1.33941e-06
0.00011582
-1.43864e-06
0.000115966
-1.53797e-06
0.000116108
-1.63824e-06
0.000116247
-1.74028e-06
0.000116383
-1.84493e-06
0.000116517
-1.95301e-06
0.000116646
-2.06534e-06
0.000116772
-2.18269e-06
0.000116893
-2.30592e-06
-2.43508e-06
0.000117008
0.000113775
1.61287e-07
0.000113943
4.52063e-07
0.000114186
6.50342e-07
0.000114471
7.39691e-07
0.000114775
7.38097e-07
0.000115083
6.69367e-07
0.000115385
5.54137e-07
0.000115676
4.10349e-07
0.000115954
2.52183e-07
0.00011622
8.94394e-08
0.000116472
-7.15769e-08
0.000116711
-2.27042e-07
0.000116939
-3.74929e-07
0.000117157
-5.14456e-07
0.000117364
-6.4565e-07
0.000117563
-7.69029e-07
0.000117753
-8.85399e-07
0.000117936
-9.95711e-07
0.000118111
-1.10097e-06
0.00011828
-1.20219e-06
0.000118442
-1.30033e-06
0.000118599
-1.39634e-06
0.000118751
-1.49108e-06
0.000118897
-1.58539e-06
0.00011904
-1.68006e-06
0.000119177
-1.77584e-06
0.00011931
-1.87344e-06
0.000119439
-1.97356e-06
0.000119563
-2.07684e-06
0.000119681
-2.1839e-06
0.000119794
-2.29524e-06
0.000119899
-2.41143e-06
-2.53223e-06
0.000119997
0.000117017
1.08479e-07
0.000117167
3.02535e-07
0.000117388
4.29247e-07
0.000117653
4.74627e-07
0.000117941
4.49957e-07
0.000118238
3.72469e-07
0.000118534
2.58067e-07
0.000118823
1.20917e-07
0.000119103
-2.75114e-08
0.000119372
-1.79053e-07
0.000119628
-3.2836e-07
0.000119873
-4.7217e-07
0.000120107
-6.08758e-07
0.00012033
-7.37492e-07
0.000120543
-8.5846e-07
0.000120746
-9.72198e-07
0.00012094
-1.0795e-06
0.000121126
-1.18131e-06
0.000121304
-1.27858e-06
0.000121474
-1.37229e-06
0.000121637
-1.46338e-06
0.000121793
-1.55273e-06
0.000121943
-1.64114e-06
0.000122087
-1.72939e-06
0.000122225
-1.81819e-06
0.000122358
-1.90817e-06
0.000122484
-1.99994e-06
0.000122605
-2.09403e-06
0.000122719
-2.19094e-06
0.000122826
-2.29105e-06
0.000122925
-2.39467e-06
0.000123016
-2.5021e-06
-2.61291e-06
0.000123097
0.000120354
6.07287e-08
0.00012049
1.66656e-07
0.000120694
2.2537e-07
0.000120943
2.25619e-07
0.000121218
1.74374e-07
0.000121507
8.38992e-08
0.000121799
-3.38147e-08
0.000122087
-1.67857e-07
0.000122369
-3.09246e-07
0.000122642
-4.51478e-07
0.000122903
-5.90266e-07
0.000123154
-7.23034e-07
0.000123394
-8.48487e-07
0.000123623
-9.6625e-07
0.000123841
-1.07656e-06
0.000124049
-1.18005e-06
0.000124247
-1.27754e-06
0.000124435
-1.36999e-06
0.000124615
-1.45837e-06
0.000124787
-1.54361e-06
0.00012495
-1.62662e-06
0.000125105
-1.70823e-06
0.000125253
-1.7892e-06
0.000125394
-1.87022e-06
0.000125528
-1.95191e-06
0.000125655
-2.03482e-06
0.000125774
-2.11941e-06
0.000125886
-2.20608e-06
0.00012599
-2.29516e-06
0.000126086
-2.38688e-06
0.000126173
-2.48133e-06
0.000126249
-2.57861e-06
-2.67816e-06
0.000126315
0.000123787
1.66555e-08
0.000123913
4.07459e-08
0.000124104
3.42052e-08
0.000124341
-1.14989e-08
0.000124608
-9.20911e-08
0.000124891
-1.9901e-07
0.00012518
-3.23478e-07
0.00012547
-4.57394e-07
0.000125755
-5.94051e-07
0.000126032
-7.28582e-07
0.0001263
-8.57837e-07
0.000126556
-9.80025e-07
0.000126802
-1.09439e-06
0.000127037
-1.2009e-06
0.000127261
-1.30005e-06
0.000127473
-1.39258e-06
0.000127675
-1.47945e-06
0.000127867
-1.56163e-06
0.000128048
-1.64012e-06
0.000128221
-1.71586e-06
0.000128384
-1.78972e-06
0.000128538
-1.86249e-06
0.000128684
-1.93488e-06
0.000128821
-2.0075e-06
0.00012895
-2.08089e-06
0.000129071
-2.15548e-06
0.000129183
-2.23163e-06
0.000129286
-2.30962e-06
0.000129381
-2.38961e-06
0.000129466
-2.4717e-06
0.00012954
-2.55583e-06
0.000129603
-2.64195e-06
-2.7294e-06
0.000129655
0.00012732
-2.49252e-08
0.000127439
-7.83942e-08
0.000127622
-1.48376e-07
0.000127851
-2.40813e-07
0.000128112
-3.53056e-07
0.000128392
-4.79293e-07
0.000128682
-6.13385e-07
0.000128975
-7.4967e-07
0.000129264
-8.83518e-07
0.000129547
-1.01166e-06
0.000129821
-1.13214e-06
0.000130085
-1.24403e-06
0.000130338
-1.34719e-06
0.000130579
-1.44204e-06
0.000130809
-1.52936e-06
0.000131026
-1.61014e-06
0.000131232
-1.68545e-06
0.000131427
-1.75635e-06
0.000131611
-1.82388e-06
0.000131784
-1.889e-06
0.000131947
-1.95257e-06
0.0001321
-2.01535e-06
0.000132243
-2.07798e-06
0.000132376
-2.14102e-06
0.0001325
-2.20491e-06
0.000132615
-2.27001e-06
0.00013272
-2.33656e-06
0.000132815
-2.40471e-06
0.0001329
-2.47453e-06
0.000132974
-2.54597e-06
0.000133037
-2.61886e-06
0.000133088
-2.69303e-06
-2.76775e-06
0.000133126
0.000130955
-6.50585e-08
0.00013107
-1.93656e-07
0.000131248
-3.26267e-07
0.000131474
-4.66393e-07
0.000131733
-6.12308e-07
0.000132014
-7.6026e-07
0.000132307
-9.06306e-07
0.000132604
-1.04694e-06
0.0001329
-1.17945e-06
0.000133191
-1.30215e-06
0.000133473
-1.41429e-06
0.000133745
-1.5159e-06
0.000134005
-1.60753e-06
0.000134253
-1.69013e-06
0.000134488
-1.76484e-06
0.000134711
-1.83293e-06
0.000134921
-1.89563e-06
0.000135119
-1.95415e-06
0.000135305
-2.00958e-06
0.000135479
-2.06292e-06
0.000135641
-2.11502e-06
0.000135793
-2.16663e-06
0.000135933
-2.21833e-06
0.000136063
-2.27063e-06
0.000136182
-2.32389e-06
0.00013629
-2.37839e-06
0.000136388
-2.43427e-06
0.000136475
-2.4916e-06
0.00013655
-2.55033e-06
0.000136615
-2.61032e-06
0.000136667
-2.67133e-06
0.000136707
-2.73309e-06
-2.79488e-06
0.000136734
0.000134695
-1.04742e-07
0.000134809
-3.07826e-07
0.000134986
-5.0337e-07
0.000135212
-6.92542e-07
0.000135474
-8.7411e-07
0.00013576
-1.0459e-06
0.000136059
-1.20585e-06
0.000136365
-1.35239e-06
0.00013667
-1.48463e-06
0.00013697
-1.60244e-06
0.000137262
-1.70635e-06
0.000137544
-1.79738e-06
0.000137813
-1.87687e-06
0.000138069
-1.94636e-06
0.000138312
-2.00743e-06
0.000138541
-2.06167e-06
0.000138756
-2.11055e-06
0.000138957
-2.15541e-06
0.000139145
-2.19746e-06
0.000139319
-2.23774e-06
0.000139482
-2.27711e-06
0.000139631
-2.3163e-06
0.000139769
-2.35587e-06
0.000139894
-2.39628e-06
0.000140008
-2.43781e-06
0.000140111
-2.48066e-06
0.000140201
-2.52491e-06
0.00014028
-2.57053e-06
0.000140347
-2.6174e-06
0.000140402
-2.66531e-06
0.000140445
-2.71394e-06
0.000140475
-2.76295e-06
-2.81162e-06
0.000140491
0.000138542
-1.44971e-07
0.000138658
-4.23696e-07
0.000138839
-6.83649e-07
0.00013907
-9.2371e-07
0.000139339
-1.14289e-06
0.000139633
-1.34032e-06
0.000139943
-1.51564e-06
0.000140259
-1.6691e-06
0.000140576
-1.80163e-06
0.000140889
-1.91467e-06
0.000141192
-2.01005e-06
0.000141485
-2.08987e-06
0.000141764
-2.15633e-06
0.00014203
-2.21162e-06
0.00014228
-2.25783e-06
0.000142515
-2.29691e-06
0.000142735
-2.3306e-06
0.00014294
-2.36044e-06
0.000143131
-2.38774e-06
0.000143306
-2.4136e-06
0.000143468
-2.43893e-06
0.000143616
-2.46444e-06
0.000143751
-2.49069e-06
0.000143873
-2.51806e-06
0.000143982
-2.5468e-06
0.000144078
-2.57704e-06
0.000144162
-2.60879e-06
0.000144234
-2.64196e-06
0.000144293
-2.67637e-06
0.000144339
-2.71174e-06
0.000144373
-2.74772e-06
0.000144394
-2.78397e-06
-2.81977e-06
0.000144402
0.000142501
-1.86851e-07
0.000142622
-5.44395e-07
0.00014281
-8.71716e-07
0.000143052
-1.16535e-06
0.000143333
-1.42446e-06
0.000143642
-1.64934e-06
0.000143968
-1.84124e-06
0.000144301
-2.00223e-06
0.000144634
-2.13507e-06
0.000144962
-2.24284e-06
0.000145281
-2.32881e-06
0.000145588
-2.39622e-06
0.000145879
-2.44823e-06
0.000146156
-2.48776e-06
0.000146415
-2.51747e-06
0.000146658
-2.53972e-06
0.000146884
-2.55657e-06
0.000147093
-2.56975e-06
0.000147286
-2.58073e-06
0.000147463
-2.59068e-06
0.000147625
-2.60056e-06
0.000147772
-2.61107e-06
0.000147904
-2.62275e-06
0.000148022
-2.63595e-06
0.000148126
-2.65088e-06
0.000148216
-2.6676e-06
0.000148294
-2.68606e-06
0.000148358
-2.70613e-06
0.000148409
-2.72755e-06
0.000148447
-2.75003e-06
0.000148473
-2.77315e-06
0.000148485
-2.79654e-06
-2.81948e-06
0.000148485
0.000146574
-2.31553e-07
0.000146703
-6.73234e-07
0.000146903
-1.07227e-06
0.000147161
-1.42275e-06
0.00014746
-1.72408e-06
0.000147789
-1.97787e-06
0.000148135
-2.18704e-06
0.000148488
-2.35564e-06
0.000148841
-2.48833e-06
0.000149189
-2.58994e-06
0.000149525
-2.66523e-06
0.000149847
-2.71871e-06
0.000150154
-2.75456e-06
0.000150443
-2.77651e-06
0.000150713
-2.78783e-06
0.000150965
-2.79137e-06
0.000151197
-2.78951e-06
0.000151412
-2.78424e-06
0.000151608
-2.77717e-06
0.000151787
-2.76959e-06
0.000151949
-2.76249e-06
0.000152095
-2.75661e-06
0.000152224
-2.75244e-06
0.000152339
-2.75033e-06
0.000152438
-2.75042e-06
0.000152524
-2.75274e-06
0.000152595
-2.75719e-06
0.000152652
-2.76359e-06
0.000152696
-2.77164e-06
0.000152727
-2.78101e-06
0.000152745
-2.79129e-06
0.000152751
-2.8021e-06
-2.81276e-06
0.000152744
0.000150765
-2.80795e-07
0.000150907
-8.15045e-07
0.000151127
-1.29259e-06
0.000151409
-1.70477e-06
0.000151736
-2.05141e-06
0.000152094
-2.33564e-06
0.000152469
-2.56228e-06
0.000152851
-2.73762e-06
0.000153232
-2.86854e-06
0.000153604
-2.96188e-06
0.000153962
-3.02408e-06
0.000154305
-3.06107e-06
0.000154628
-3.07815e-06
0.000154932
-3.07993e-06
0.000155214
-3.07037e-06
0.000155476
-3.05281e-06
0.000155716
-3.03001e-06
0.000155936
-3.0042e-06
0.000156136
-2.97716e-06
0.000156317
-2.95028e-06
0.000156479
-2.9246e-06
0.000156623
-2.90086e-06
0.00015675
-2.87955e-06
0.000156861
-2.86097e-06
0.000156956
-2.84525e-06
0.000157035
-2.83234e-06
0.0001571
-2.82211e-06
0.000157151
-2.81432e-06
0.000157188
-2.80864e-06
0.000157212
-2.8047e-06
0.000157223
-2.80206e-06
0.000157221
-2.80027e-06
-2.79868e-06
0.000157207
0.000155077
-3.35988e-07
0.000155236
-9.73974e-07
0.000155481
-1.53811e-06
0.000155794
-2.01706e-06
0.000156154
-2.41195e-06
0.000156546
-2.72797e-06
0.000156956
-2.97219e-06
0.000157372
-3.1534e-06
0.000157785
-3.28093e-06
0.000158186
-3.36377e-06
0.000158573
-3.41026e-06
0.000158939
-3.42786e-06
0.000159284
-3.42315e-06
0.000159606
-3.40174e-06
0.000159904
-3.36833e-06
0.000160178
-3.32684e-06
0.000160429
-3.28041e-06
0.000160656
-3.23158e-06
0.000160861
-3.18229e-06
0.000161045
-3.13405e-06
0.000161208
-3.08792e-06
0.000161352
-3.04468e-06
0.000161477
-3.00479e-06
0.000161585
-2.96851e-06
0.000161675
-2.93592e-06
0.00016175
-2.90693e-06
0.000161809
-2.88136e-06
0.000161854
-2.85891e-06
0.000161884
-2.83925e-06
0.000161902
-2.82195e-06
0.000161906
-2.80657e-06
0.000161899
-2.7927e-06
-2.77967e-06
0.00016188
0.000159516
-4.01359e-07
0.000159703
-1.16097e-06
0.00015999
-1.82476e-06
0.000160351
-2.3781e-06
0.000160763
-2.82445e-06
0.000161207
-3.17208e-06
0.000161666
-3.43135e-06
0.000162128
-3.61457e-06
0.000162581
-3.73424e-06
0.000163019
-3.80193e-06
0.000163437
-3.82808e-06
0.000163831
-3.8219e-06
0.000164199
-3.79126e-06
0.00016454
-3.74281e-06
0.000164854
-3.68203e-06
0.00016514
-3.61338e-06
0.0001654
-3.54041e-06
0.000165635
-3.46592e-06
0.000165844
-3.39202e-06
0.000166031
-3.32029e-06
0.000166195
-3.25186e-06
0.000166337
-3.18748e-06
0.00016646
-3.12759e-06
0.000166564
-3.0724e-06
0.00016665
-3.02192e-06
0.000166719
-2.97604e-06
0.000166772
-2.93448e-06
0.00016681
-2.89693e-06
0.000166834
-2.86296e-06
0.000166844
-2.83213e-06
0.000166842
-2.80394e-06
0.000166827
-2.77791e-06
-2.75333e-06
0.0001668
0.000164081
-4.76694e-07
0.000164299
-1.37816e-06
0.000164629
-2.15469e-06
0.000165041
-2.79048e-06
0.00016551
-3.2935e-06
0.000166013
-3.6753e-06
0.000166531
-3.94962e-06
0.00016705
-4.13275e-06
0.000167556
-4.24087e-06
0.000168043
-4.28868e-06
0.000168504
-4.28919e-06
0.000168936
-4.25369e-06
0.000169336
-4.19168e-06
0.000169705
-4.111e-06
0.000170041
-4.01801e-06
0.000170345
-3.9178e-06
0.000170619
-3.81434e-06
0.000170864
-3.71068e-06
0.000171081
-3.60909e-06
0.000171272
-3.51122e-06
0.000171438
-3.41818e-06
0.000171581
-3.3307e-06
0.000171703
-3.24915e-06
0.000171804
-3.17366e-06
0.000171886
-3.10419e-06
0.000171951
-3.0405e-06
0.000171999
-2.9823e-06
0.000172031
-2.92918e-06
0.000172049
-2.8807e-06
0.000172053
-2.83636e-06
0.000172044
-2.79565e-06
0.000172025
-2.75812e-06
-2.72301e-06
0.000171994
0.000168794
-5.79247e-07
0.000169077
-1.66125e-06
0.000169494
-2.57173e-06
0.00017
-3.29586e-06
0.000170559
-3.85268e-06
0.000171145
-4.26124e-06
0.000171737
-4.54159e-06
0.00017232
-4.71572e-06
0.000172883
-4.80408e-06
0.000173419
-4.82452e-06
0.000173922
-4.79263e-06
0.00017439
-4.72167e-06
0.000174821
-4.62268e-06
0.000175215
-4.50464e-06
0.000175572
-4.37476e-06
0.000175893
-4.23871e-06
0.000176179
-4.10088e-06
0.000176433
-3.96455e-06
0.000176656
-3.83215e-06
0.00017685
-3.70535e-06
0.000177017
-3.58526e-06
0.000177159
-3.47254e-06
0.000177278
-3.3675e-06
0.000177374
-3.27016e-06
0.00017745
-3.18037e-06
0.000177508
-3.09782e-06
0.000177547
-3.02211e-06
0.000177571
-2.95276e-06
0.000177579
-2.88925e-06
0.000177574
-2.83104e-06
0.000177556
-2.77753e-06
0.000177526
-2.72818e-06
-2.68214e-06
0.000177485
0.000173622
-6.90211e-07
0.000173951
-1.99038e-06
0.00017444
-3.06009e-06
0.000175037
-3.89326e-06
0.000175703
-4.51853e-06
0.000176401
-4.95921e-06
0.000177102
-5.24295e-06
0.000177787
-5.40031e-06
0.000178441
-5.45816e-06
0.000179056
-5.43911e-06
0.000179625
-5.36248e-06
0.000180148
-5.24427e-06
0.000180623
-5.09745e-06
0.000181051
-4.93234e-06
0.000181433
-4.75706e-06
0.000181772
-4.57783e-06
0.00018207
-4.39937e-06
0.000182331
-4.22511e-06
0.000182556
-4.05747e-06
0.000182749
-3.89809e-06
0.000182912
-3.74794e-06
0.000183047
-3.60755e-06
0.000183156
-3.47703e-06
0.000183242
-3.35627e-06
0.000183307
-3.24494e-06
0.000183352
-3.14259e-06
0.000183378
-3.0487e-06
0.000183388
-2.96271e-06
0.000183383
-2.88403e-06
0.000183364
-2.81209e-06
0.000183333
-2.74628e-06
0.000183291
-2.68612e-06
-2.63063e-06
0.000183239
0.000178682
-9.03192e-07
0.000179188
-2.49647e-06
0.000179857
-3.72934e-06
0.00018061
-4.64622e-06
0.000181405
-5.3135e-06
0.000182209
-5.76376e-06
0.000182999
-6.03305e-06
0.000183759
-6.15946e-06
0.000184475
-6.17461e-06
0.000185141
-6.10517e-06
0.000185753
-5.97393e-06
0.000186308
-5.79959e-06
0.000186807
-5.59705e-06
0.000187253
-5.37805e-06
0.000187648
-5.15161e-06
0.000187994
-4.92449e-06
0.000188297
-4.70166e-06
0.000188558
-4.4866e-06
0.000188782
-4.28167e-06
0.000188973
-4.0883e-06
0.000189132
-3.90726e-06
0.000189263
-3.73881e-06
0.000189369
-3.58282e-06
0.000189452
-3.43891e-06
0.000189513
-3.30652e-06
0.000189556
-3.18501e-06
0.000189581
-3.07366e-06
0.00018959
-2.97178e-06
0.000189584
-2.8787e-06
0.000189566
-2.7938e-06
0.000189536
-2.7165e-06
0.000189496
-2.64626e-06
-2.5821e-06
0.000189448
0.000183745
-1.08082e-06
0.000184334
-3.08577e-06
0.000185163
-4.55837e-06
0.000186129
-5.61161e-06
0.000187148
-6.33319e-06
0.000188159
-6.77437e-06
0.000189127
-7.00085e-06
0.000190037
-7.06964e-06
0.000190884
-7.02127e-06
0.000191666
-6.8876e-06
0.000192386
-6.69429e-06
0.000193048
-6.4612e-06
0.000193655
-6.20358e-06
0.00019421
-5.93309e-06
0.000194717
-5.65855e-06
0.000195179
-5.38649e-06
0.000195599
-5.12165e-06
0.000195979
-4.86735e-06
0.000196323
-4.62579e-06
0.000196633
-4.39829e-06
0.000196912
-4.18547e-06
0.00019716
-3.98746e-06
0.000197381
-3.80397e-06
0.000197577
-3.63448e-06
0.000197749
-3.47829e-06
0.000197898
-3.3346e-06
0.000198027
-3.20259e-06
0.000198137
-3.08149e-06
0.000198229
-2.97067e-06
0.000198305
-2.86954e-06
0.000198366
-2.77796e-06
0.000198415
-2.69548e-06
-2.62235e-06
0.000198456
0.000189417
-1.68563e-06
0.000190402
-4.0712e-06
0.00019148
-5.63598e-06
0.000192633
-6.76512e-06
0.00019387