/*--------------------------------*- C++ -*----------------------------------*\
| =========                 |                                                 |
| \\      /  F ield         | OpenFOAM: The Open Source CFD Toolbox           |
|  \\    /   O peration     | Version:  2.1.1                                 |
|   \\  /    A nd           | Web:      www.OpenFOAM.org                      |
|    \\/     M anipulation  |                                                 |
\*---------------------------------------------------------------------------*/
FoamFile
{
    version     2.0;
    format      ascii;
    class       volVectorField;
    location    "0.105";
    object      U;
}
// * * * * * * * * * * * * * * * * * * * * * * * * * * * * * * * * * * * * * //

dimensions      [0 1 -1 0 0 0 0];

internalField   nonuniform List<vector> 
6820
(
(6.37609 0.503709 0)
(4.42475 0.286814 0)
(2.97461 0.0201391 0)
(2.23613 -0.0620049 0)
(1.9714 -0.0601074 0)
(1.84561 -0.0346984 0)
(1.77187 -0.0152819 0)
(1.72106 -0.00489833 0)
(1.67915 -0.000192188 0)
(1.64308 0.00131556 0)
(1.61231 0.00129223 0)
(1.58634 0.000673856 0)
(1.56471 -0.000107244 0)
(1.54687 -0.000862391 0)
(1.53233 -0.00151728 0)
(1.52065 -0.00205388 0)
(1.51147 -0.00247943 0)
(1.50448 -0.00281005 0)
(1.49946 -0.00305963 0)
(1.49619 -0.00324402 0)
(1.49455 -0.00334642 0)
(1.4944 -0.00347136 0)
(1.49557 -0.00361377 0)
(1.49792 -0.00369524 0)
(1.50136 -0.00374873 0)
(1.50572 -0.00368639 0)
(1.51079 -0.0036026 0)
(1.51657 -0.00345492 0)
(1.52223 -0.00336456 0)
(1.52927 -0.0027727 0)
(1.53165 -0.00332214 0)
(1.54639 0.00265205 0)
(1.51754 -0.0224547 0)
(8.72022 0.959504 0)
(8.76512 1.01164 0)
(7.97007 0.678593 0)
(7.05784 0.39338 0)
(6.35836 0.201826 0)
(5.85379 0.102604 0)
(5.49394 0.0569917 0)
(5.23494 0.0363502 0)
(5.04185 0.0269975 0)
(4.89247 0.022297 0)
(4.77343 0.0193972 0)
(4.67634 0.0172439 0)
(4.59583 0.0154419 0)
(4.52834 0.0138259 0)
(4.47136 0.0123149 0)
(4.42309 0.0108651 0)
(4.3822 0.00945394 0)
(4.34765 0.00806918 0)
(4.31865 0.00670683 0)
(4.29457 0.00535955 0)
(4.27488 0.00403468 0)
(4.25914 0.00273967 0)
(4.24699 0.00145943 0)
(4.2381 0.000230293 0)
(4.23224 -0.000902846 0)
(4.22909 -0.00203767 0)
(4.22833 -0.00305009 0)
(4.22965 -0.00378837 0)
(4.23261 -0.00443347 0)
(4.23714 -0.00430818 0)
(4.24204 -0.00537161 0)
(4.25022 -0.00340942 0)
(4.2563 -0.00844919 0)
(8.58611 0.583309 0)
(9.33134 0.761815 0)
(9.61488 0.659269 0)
(9.50571 0.525365 0)
(9.24085 0.395575 0)
(8.93016 0.297488 0)
(8.62647 0.22844 0)
(8.35291 0.178811 0)
(8.1137 0.142613 0)
(7.90656 0.115664 0)
(7.72777 0.0950479 0)
(7.57347 0.0789014 0)
(7.44016 0.0660034 0)
(7.32482 0.0555221 0)
(7.2249 0.0468615 0)
(7.13828 0.0395773 0)
(7.06319 0.0333366 0)
(6.99815 0.0278909 0)
(6.94192 0.0230549 0)
(6.89349 0.0186892 0)
(6.85197 0.0146919 0)
(6.81663 0.0109977 0)
(6.78685 0.00757269 0)
(6.76208 0.00437206 0)
(6.74182 0.00141753 0)
(6.72557 -0.00134406 0)
(6.71295 -0.00383481 0)
(6.70355 -0.00595891 0)
(6.69695 -0.00772908 0)
(6.6927 -0.00876985 0)
(6.68998 -0.00981788 0)
(6.68724 -0.00945517 0)
(6.68314 -0.0113209 0)
(8.44094 0.379528 0)
(8.94594 0.583512 0)
(9.35844 0.553622 0)
(9.58633 0.485676 0)
(9.70085 0.405291 0)
(9.73759 0.335697 0)
(9.72317 0.282764 0)
(9.67991 0.242162 0)
(9.62071 0.210245 0)
(9.55286 0.184422 0)
(9.48105 0.162835 0)
(9.4084 0.144352 0)
(9.33688 0.128253 0)
(9.26797 0.114036 0)
(9.20259 0.101359 0)
(9.14129 0.0899717 0)
(9.08435 0.0796683 0)
(9.03191 0.0702773 0)
(8.98395 0.0616557 0)
(8.94042 0.0536838 0)
(8.90119 0.0462683 0)
(8.86611 0.0393379 0)
(8.835 0.0328378 0)
(8.80767 0.0267323 0)
(8.78392 0.0209997 0)
(8.76354 0.0157106 0)
(8.74628 0.0108832 0)
(8.73189 0.00660724 0)
(8.72 0.00294972 0)
(8.71025 0.000213732 0)
(8.70224 -0.00160341 0)
(8.69453 -0.00142379 0)
(8.68796 0.0017089 0)
(8.40215 0.279875 0)
(8.71905 0.4801 0)
(8.99905 0.460916 0)
(9.17464 0.402978 0)
(9.29924 0.340491 0)
(9.39281 0.287568 0)
(9.46212 0.248045 0)
(9.51538 0.217926 0)
(9.55743 0.193898 0)
(9.59067 0.174059 0)
(9.61686 0.157147 0)
(9.63741 0.142367 0)
(9.65344 0.129231 0)
(9.66565 0.117397 0)
(9.67472 0.106603 0)
(9.68129 0.0966488 0)
(9.68594 0.0873781 0)
(9.68918 0.0786687 0)
(9.6914 0.0704238 0)
(9.69298 0.0625673 0)
(9.69419 0.0550426 0)
(9.69529 0.047812 0)
(9.69648 0.0408549 0)
(9.69791 0.0341672 0)
(9.69973 0.0277693 0)
(9.70203 0.021713 0)
(9.70489 0.0160513 0)
(9.70837 0.0109183 0)
(9.71247 0.00649098 0)
(9.71708 0.00308132 0)
(9.72213 0.000993957 0)
(9.72727 0.00100369 0)
(9.73327 0.00438213 0)
(8.37748 0.201964 0)
(8.60145 0.382912 0)
(8.81607 0.389546 0)
(8.94734 0.354716 0)
(9.03349 0.309902 0)
(9.09658 0.26592 0)
(9.14386 0.229551 0)
(9.1826 0.20047 0)
(9.21702 0.176883 0)
(9.24852 0.157451 0)
(9.27771 0.141077 0)
(9.30497 0.126931 0)
(9.33049 0.114463 0)
(9.35454 0.10331 0)
(9.37728 0.0931817 0)
(9.39881 0.0838542 0)
(9.41922 0.0751602 0)
(9.43859 0.0669721 0)
(9.45701 0.0591912 0)
(9.47456 0.0517416 0)
(9.49133 0.0445678 0)
(9.50738 0.0376326 0)
(9.52281 0.0309153 0)
(9.53768 0.0244125 0)
(9.55207 0.0181418 0)
(9.56606 0.0121532 0)
(9.57974 0.00652665 0)
(9.59321 0.00137936 0)
(9.60653 -0.0031236 0)
(9.62002 -0.00669857 0)
(9.63391 -0.00902215 0)
(9.64859 -0.00949311 0)
(9.66475 -0.00720149 0)
(8.36129 0.148571 0)
(8.52281 0.310638 0)
(8.69773 0.335771 0)
(8.81278 0.315726 0)
(8.88778 0.281985 0)
(8.94136 0.245272 0)
(8.9797 0.213081 0)
(9.00898 0.186615 0)
(9.03364 0.16471 0)
(9.05559 0.146321 0)
(9.07577 0.130604 0)
(9.0948 0.116897 0)
(9.11301 0.104729 0)
(9.13057 0.0937648 0)
(9.14761 0.0837572 0)
(9.1642 0.0745197 0)
(9.18041 0.0659051 0)
(9.19626 0.0577946 0)
(9.21179 0.0500922 0)
(9.22703 0.0427218 0)
(9.24198 0.0356251 0)
(9.25668 0.028761 0)
(9.27116 0.0221043 0)
(9.28545 0.0156467 0)
(9.29959 0.00940064 0)
(9.31365 0.00339758 0)
(9.3277 -0.00230062 0)
(9.34187 -0.00760182 0)
(9.35633 -0.0123887 0)
(9.37125 -0.0164943 0)
(9.38692 -0.0196627 0)
(9.40385 -0.0215025 0)
(9.42267 -0.0216719 0)
(8.35117 0.11111 0)
(8.46749 0.250745 0)
(8.60844 0.28505 0)
(8.71044 0.276297 0)
(8.78064 0.25339 0)
(8.83277 0.225359 0)
(8.87117 0.198639 0)
(8.9004 0.175333 0)
(8.92442 0.155177 0)
(8.94525 0.13769 0)
(8.96393 0.122419 0)
(8.9812 0.108918 0)
(8.99748 0.0968283 0)
(9.01306 0.0858749 0)
(9.0281 0.0758438 0)
(9.04273 0.0665585 0)
(9.05705 0.0578744 0)
(9.07111 0.049674 0)
(9.08499 0.0418624 0)
(9.09871 0.034364 0)
(9.11232 0.0271202 0)
(9.12585 0.020088 0)
(9.13935 0.0132391 0)
(9.15286 0.00655898 0)
(9.16643 4.73553e-05 0)
(9.18012 -0.00627541 0)
(9.19402 -0.0123773 0)
(9.20823 -0.0181958 0)
(9.2229 -0.0236432 0)
(9.23826 -0.0285934 0)
(9.25462 -0.0328971 0)
(9.27252 -0.0363778 0)
(9.29249 -0.038998 0)
(8.34487 0.0844071 0)
(8.42946 0.202777 0)
(8.54242 0.242116 0)
(8.63141 0.242205 0)
(8.69575 0.227416 0)
(8.7453 0.205778 0)
(8.7833 0.183142 0)
(8.81298 0.162349 0)
(8.8376 0.143832 0)
(8.859 0.127445 0)
(8.87817 0.112927 0)
(8.89577 0.0999576 0)
(8.91228 0.0882443 0)
(8.92798 0.077552 0)
(8.94305 0.0676905 0)
(8.95765 0.0585025 0)
(8.97188 0.0498593 0)
(8.98582 0.0416557 0)
(8.99954 0.0338048 0)
(9.01309 0.0262358 0)
(9.02652 0.0188917 0)
(9.03989 0.0117285 0)
(9.05322 0.00471425 0)
(9.06659 -0.00217039 0)
(9.08005 -0.00893534 0)
(9.09367 -0.015573 0)
(9.10755 -0.0220643 0)
(9.12181 -0.0283785 0)
(9.13664 -0.0344779 0)
(9.15225 -0.0403184 0)
(9.16894 -0.0458684 0)
(9.18722 -0.0511184 0)
(9.20751 -0.0562103 0)
(8.34094 0.0651348 0)
(8.40315 0.164358 0)
(8.4935 0.20487 0)
(8.57043 0.21077 0)
(8.62887 0.201943 0)
(8.67543 0.185704 0)
(8.71242 0.167112 0)
(8.74203 0.149096 0)
(8.76682 0.132462 0)
(8.78845 0.117314 0)
(8.80784 0.103588 0)
(8.82564 0.0911198 0)
(8.8423 0.0797161 0)
(8.8581 0.069205 0)
(8.87326 0.0594373 0)
(8.88791 0.0502827 0)
(8.90217 0.0416282 0)
(8.91612 0.0333774 0)
(8.92982 0.0254478 0)
(8.94334 0.01777 0)
(8.95673 0.0102864 0)
(8.97003 0.00295011 0)
(8.98331 -0.00427603 0)
(8.99662 -0.0114183 0)
(9.01002 -0.0184952 0)
(9.02361 -0.0255173 0)
(9.03748 -0.0324925 0)
(9.05176 -0.0394249 0)
(9.06663 -0.0463211 0)
(9.0823 -0.0531974 0)
(9.09905 -0.0601025 0)
(9.1173 -0.0671391 0)
(9.13736 -0.0745449 0)
(8.33846 0.0509511 0)
(8.38479 0.133459 0)
(8.45711 0.172748 0)
(8.52328 0.182545 0)
(8.57612 0.178337 0)
(8.61955 0.166527 0)
(8.65517 0.151371 0)
(8.68436 0.135717 0)
(8.70912 0.12068 0)
(8.73085 0.106609 0)
(8.7504 0.0936119 0)
(8.76836 0.0816433 0)
(8.78516 0.0705878 0)
(8.80107 0.0603182 0)
(8.81631 0.0507131 0)
(8.83101 0.0416598 0)
(8.8453 0.0330567 0)
(8.85924 0.0248147 0)
(8.87293 0.0168562 0)
(8.88641 0.00911423 0)
(8.89974 0.0015311 0)
(8.91298 -0.00594231 0)
(8.92618 -0.0133473 0)
(8.93941 -0.0207196 0)
(8.95273 -0.0280889 0)
(8.96624 -0.0354828 0)
(8.98002 -0.0429293 0)
(8.99421 -0.05046 0)
(9.00897 -0.0581196 0)
(9.02448 -0.0659758 0)
(9.04098 -0.0741412 0)
(9.0588 -0.0827955 0)
(9.07812 -0.092217 0)
(8.33687 0.0403018 0)
(8.37188 0.108544 0)
(8.42992 0.145114 0)
(8.48659 0.157107 0)
(8.53408 0.156128 0)
(8.57437 0.147692 0)
(8.60842 0.135409 0)
(8.63703 0.121914 0)
(8.66164 0.108459 0)
(8.68344 0.0955364 0)
(8.70313 0.0833547 0)
(8.72125 0.0719586 0)
(8.73818 0.0612999 0)
(8.75421 0.0512982 0)
(8.76954 0.0418649 0)
(8.7843 0.0329104 0)
(8.79862 0.0243497 0)
(8.81257 0.0161039 0)
(8.82623 0.00810174 0)
(8.83967 0.000278874 0)
(8.85293 -0.00742241 0)
(8.86609 -0.0150536 0)
(8.87919 -0.0226609 0)
(8.89229 -0.0302874 0)
(8.90547 -0.0379741 0)
(8.91881 -0.0457629 0)
(8.93241 -0.0537011 0)
(8.94637 -0.061846 0)
(8.96083 -0.070274 0)
(8.97596 -0.0790895 0)
(8.99192 -0.0884424 0)
(9.00896 -0.0985506 0)
(9.02719 -0.109693 0)
(8.33583 0.0321366 0)
(8.36268 0.0883225 0)
(8.40948 0.12132 0)
(8.45791 0.13422 0)
(8.50044 0.135438 0)
(8.53765 0.129597 0)
(8.56999 0.119712 0)
(8.59782 0.10811 0)
(8.62214 0.0960708 0)
(8.64388 0.0841841 0)
(8.66363 0.072745 0)
(8.68187 0.0618765 0)
(8.69893 0.0515925 0)
(8.71508 0.041855 0)
(8.73051 0.0326037 0)
(8.74534 0.0237686 0)
(8.7597 0.0152769 0)
(8.77366 0.00705767 0)
(8.7873 -0.000956357 0)
(8.80069 -0.00882775 0)
(8.81388 -0.0166145 0)
(8.82693 -0.0243705 0)
(8.8399 -0.0321472 0)
(8.85284 -0.0399946 0)
(8.86582 -0.0479635 0)
(8.87892 -0.0561086 0)
(8.89222 -0.0644927 0)
(8.90583 -0.0731918 0)
(8.91984 -0.0823028 0)
(8.93438 -0.0919519 0)
(8.94958 -0.102308 0)
(8.9656 -0.113601 0)
(8.98246 -0.12609 0)
(8.33514 0.0257425 0)
(8.35606 0.0717795 0)
(8.39404 0.100814 0)
(8.43542 0.113649 0)
(8.4734 0.116193 0)
(8.50765 0.112206 0)
(8.53819 0.104194 0)
(8.56511 0.0941722 0)
(8.58901 0.0833798 0)
(8.6106 0.0724569 0)
(8.63036 0.0617494 0)
(8.64867 0.0514295 0)
(8.66584 0.0415542 0)
(8.68209 0.0321175 0)
(8.6976 0.0230828 0)
(8.71249 0.014397 0)
(8.72687 0.00599941 0)
(8.74083 -0.00217267 0)
(8.75444 -0.0101813 0)
(8.76776 -0.0180863 0)
(8.78084 -0.0259455 0)
(8.79375 -0.0338146 0)
(8.80654 -0.0417486 0)
(8.81926 -0.0498031 0)
(8.83197 -0.0580366 0)
(8.84475 -0.066513 0)
(8.85766 -0.0753062 0)
(8.87078 -0.0845044 0)
(8.8842 -0.0942164 0)
(8.898 -0.104579 0)
(8.91225 -0.115763 0)
(8.92705 -0.127993 0)
(8.94238 -0.141491 0)
(8.33466 0.0206314 0)
(8.35122 0.0581131 0)
(8.3823 0.0830836 0)
(8.41772 0.0951404 0)
(8.45161 0.0983105 0)
(8.48306 0.0955748 0)
(8.51182 0.0889943 0)
(8.53773 0.0802778 0)
(8.56112 0.0705688 0)
(8.58246 0.0605126 0)
(8.60215 0.0504799 0)
(8.62048 0.0406759 0)
(8.63771 0.0311913 0)
(8.65403 0.0220483 0)
(8.66959 0.0132313 0)
(8.68452 0.00470285 0)
(8.69892 -0.00358678 0)
(8.71286 -0.011693 0)
(8.72641 -0.0196734 0)
(8.73964 -0.0275858 0)
(8.75259 -0.0354878 0)
(8.76533 -0.0434369 0)
(8.7779 -0.0514909 0)
(8.79035 -0.0597099 0)
(8.80274 -0.0681576 0)
(8.81512 -0.0769045 0)
(8.82755 -0.0860311 0)
(8.8401 -0.0956313 0)
(8.85281 -0.105818 0)
(8.86573 -0.116727 0)
(8.87892 -0.128521 0)
(8.89238 -0.141406 0)
(8.90609 -0.155563 0)
(8.33432 0.0164641 0)
(8.34765 0.0466951 0)
(8.37334 0.0676773 0)
(8.40378 0.0784573 0)
(8.43402 0.0816966 0)
(8.46289 0.079697 0)
(8.48991 0.0741342 0)
(8.51476 0.0664338 0)
(8.53756 0.0576188 0)
(8.5586 0.0483124 0)
(8.57816 0.0388914 0)
(8.59646 0.0295774 0)
(8.61371 0.0204826 0)
(8.63006 0.0116482 0)
(8.64567 0.00307341 0)
(8.66062 -0.00526779 0)
(8.675 -0.0134167 0)
(8.6889 -0.0214228 0)
(8.70238 -0.0293401 0)
(8.71548 -0.0372246 0)
(8.72827 -0.0451333 0)
(8.7408 -0.0531242 0)
(8.7531 -0.061257 0)
(8.76523 -0.069594 0)
(8.77723 -0.0782019 0)
(8.78915 -0.0871542 0)
(8.80103 -0.0965333 0)
(8.81291 -0.106434 0)
(8.82482 -0.116965 0)
(8.83679 -0.128256 0)
(8.84882 -0.140452 0)
(8.86089 -0.153734 0)
(8.87295 -0.16824 0)
(8.33408 0.0130008 0)
(8.34499 0.0370345 0)
(8.36645 0.0541997 0)
(8.39277 0.0633652 0)
(8.41983 0.0662347 0)
(8.44635 0.0645442 0)
(8.47173 0.0596395 0)
(8.49552 0.0526941 0)
(8.51768 0.0445987 0)
(8.53836 0.0359314 0)
(8.55774 0.0270562 0)
(8.57598 0.018197 0)
(8.59321 0.00947632 0)
(8.60958 0.000947478 0)
(8.62519 -0.00737939 0)
(8.64013 -0.0155213 0)
(8.65449 -0.0235126 0)
(8.66832 -0.0313975 0)
(8.68169 -0.0392268 0)
(8.69465 -0.0470543 0)
(8.70725 -0.0549361 0)
(8.71953 -0.0629302 0)
(8.73154 -0.0710967 0)
(8.7433 -0.0794988 0)
(8.75487 -0.0882037 0)
(8.76627 -0.0972847 0)
(8.77754 -0.106823 0)
(8.78869 -0.116908 0)
(8.79974 -0.127643 0)
(8.8107 -0.139143 0)
(8.82154 -0.151532 0)
(8.83222 -0.16496 0)
(8.84266 -0.179528 0)
(8.33389 0.0100689 0)
(8.34298 0.0287469 0)
(8.36115 0.0423073 0)
(8.38408 0.0496408 0)
(8.40839 0.0518004 0)
(8.43283 0.0500672 0)
(8.45667 0.0455063 0)
(8.47944 0.0390715 0)
(8.50096 0.0315207 0)
(8.52126 0.0233731 0)
(8.54043 0.0149685 0)
(8.55856 0.00652263 0)
(8.57575 -0.00184039 0)
(8.5921 -0.0100614 0)
(8.6077 -0.0181242 0)
(8.62261 -0.0260403 0)
(8.63692 -0.0338395 0)
(8.65066 -0.0415633 0)
(8.66391 -0.0492596 0)
(8.6767 -0.0569809 0)
(8.68907 -0.0647824 0)
(8.70108 -0.0727215 0)
(8.71274 -0.0808579 0)
(8.72411 -0.0892537 0)
(8.7352 -0.0979749 0)
(8.74604 -0.107092 0)
(8.75664 -0.116682 0)
(8.76703 -0.126827 0)
(8.77719 -0.137618 0)
(8.78711 -0.149153 0)
(8.79675 -0.161536 0)
(8.80607 -0.174886 0)
(8.81497 -0.189266 0)
(8.33376 0.00754078 0)
(8.34146 0.0215295 0)
(8.35706 0.0317039 0)
(8.37724 0.0370727 0)
(8.39922 0.0382612 0)
(8.42182 0.0361965 0)
(8.44429 0.0317095 0)
(8.46611 0.0255658 0)
(8.487 0.0183972 0)
(8.50692 0.0106563 0)
(8.52586 0.00264872 0)
(8.54387 -0.00542689 0)
(8.561 -0.013453 0)
(8.57732 -0.0213712 0)
(8.59288 -0.0291638 0)
(8.60775 -0.0368401 0)
(8.62199 -0.0444275 0)
(8.63563 -0.0519652 0)
(8.64873 -0.0594994 0)
(8.66132 -0.0670811 0)
(8.67345 -0.0747639 0)
(8.68515 -0.0826039 0)
(8.69646 -0.0906589 0)
(8.70739 -0.0989889 0)
(8.71797 -0.107657 0)
(8.72821 -0.116728 0)
(8.73814 -0.126271 0)
(8.74773 -0.136362 0)
(8.75699 -0.147075 0)
(8.76588 -0.158492 0)
(8.77437 -0.170694 0)
(8.78238 -0.183771 0)
(8.78984 -0.197757 0)
(8.33365 0.00531994 0)
(8.3403 0.0151413 0)
(8.35391 0.0221331 0)
(8.37187 0.0254609 0)
(8.39192 0.0254793 0)
(8.41294 0.022848 0)
(8.43421 0.0182061 0)
(8.45517 0.0121596 0)
(8.47549 0.00522468 0)
(8.49503 -0.00221538 0)
(8.51376 -0.00989499 0)
(8.53164 -0.017639 0)
(8.54869 -0.0253421 0)
(8.56496 -0.032952 0)
(8.58048 -0.0404535 0)
(8.5953 -0.0478567 0)
(8.60944 -0.0551892 0)
(8.62296 -0.0624895 0)
(8.63589 -0.0698034 0)
(8.64827 -0.0771808 0)
(8.66014 -0.0846745 0)
(8.67151 -0.0923389 0)
(8.68242 -0.10023 0)
(8.6929 -0.108403 0)
(8.70295 -0.116919 0)
(8.71258 -0.125835 0)
(8.72181 -0.135214 0)
(8.73061 -0.145117 0)
(8.73897 -0.155609 0)
(8.74687 -0.166751 0)
(8.75425 -0.178604 0)
(8.76104 -0.191232 0)
(8.76718 -0.204643 0)
(8.33358 0.00333137 0)
(8.33942 0.00938741 0)
(8.3515 0.0133725 0)
(8.36772 0.0146172 0)
(8.38618 0.0133126 0)
(8.40589 0.00992227 0)
(8.42614 0.00493039 0)
(8.44635 -0.0011909 0)
(8.46617 -0.0080298 0)
(8.4854 -0.015272 0)
(8.50392 -0.022696 0)
(8.52169 -0.0301552 0)
(8.53869 -0.0375623 0)
(8.55491 -0.0448754 0)
(8.57039 -0.0520857 0)
(8.58514 -0.059207 0)
(8.59919 -0.0662687 0)
(8.61258 -0.0733101 0)
(8.62534 -0.0803769 0)
(8.63749 -0.0875184 0)
(8.64907 -0.0947858 0)
(8.66011 -0.102232 0)
(8.67062 -0.109908 0)
(8.68062 -0.117868 0)
(8.69013 -0.126165 0)
(8.69915 -0.13485 0)
(8.70768 -0.143977 0)
(8.71571 -0.153596 0)
(8.72321 -0.163756 0)
(8.73015 -0.174504 0)
(8.73649 -0.18588 0)
(8.74216 -0.197926 0)
(8.7471 -0.210631 0)
(8.33352 0.00151442 0)
(8.33877 0.00410618 0)
(8.34969 0.00522573 0)
(8.36455 0.00436218 0)
(8.38176 0.00161564 0)
(8.40043 -0.00268994 0)
(8.41985 -0.00819256 0)
(8.43946 -0.0145312 0)
(8.45887 -0.0213859 0)
(8.47784 -0.0285083 0)
(8.4962 -0.035723 0)
(8.51389 -0.0429152 0)
(8.53083 -0.0500198 0)
(8.54701 -0.0570096 0)
(8.56244 -0.0638858 0)
(8.57712 -0.0706691 0)
(8.59108 -0.0773933 0)
(8.60432 -0.0841006 0)
(8.61689 -0.0908382 0)
(8.62881 -0.0976558 0)
(8.6401 -0.104604 0)
(8.65078 -0.111733 0)
(8.66088 -0.119093 0)
(8.67041 -0.126732 0)
(8.67938 -0.134697 0)
(8.68779 -0.143035 0)
(8.69563 -0.151787 0)
(8.70291 -0.160994 0)
(8.70958 -0.170693 0)
(8.71563 -0.180915 0)
(8.72101 -0.191683 0)
(8.72567 -0.203022 0)
(8.72956 -0.214905 0)
(8.33347 -0.000180722 0)
(8.33829 -0.000839485 0)
(8.34837 -0.00248418 0)
(8.36223 -0.00547851 0)
(8.37851 -0.0097663 0)
(8.39638 -0.015121 0)
(8.41519 -0.021277 0)
(8.43436 -0.0279665 0)
(8.45348 -0.0349515 0)
(8.47228 -0.0420472 0)
(8.49056 -0.0491249 0)
(8.50821 -0.0561045 0)
(8.52514 -0.0629454 0)
(8.54132 -0.0696382 0)
(8.55673 -0.0761963 0)
(8.57136 -0.082649 0)
(8.58522 -0.0890357 0)
(8.59834 -0.0954024 0)
(8.61073 -0.101798 0)
(8.62241 -0.108273 0)
(8.63341 -0.114876 0)
(8.64374 -0.121657 0)
(8.65343 -0.128662 0)
(8.66248 -0.135935 0)
(8.67092 -0.143518 0)
(8.67873 -0.151448 0)
(8.68592 -0.15976 0)
(8.69247 -0.168484 0)
(8.69838 -0.177644 0)
(8.7036 -0.187261 0)
(8.70811 -0.197343 0)
(8.71185 -0.207899 0)
(8.71481 -0.218893 0)
(8.33345 -0.0017979 0)
(8.33797 -0.00557139 0)
(8.34747 -0.00992104 0)
(8.36064 -0.015074 0)
(8.37628 -0.0209859 0)
(8.39362 -0.0274946 0)
(8.41203 -0.0344077 0)
(8.43092 -0.041534 0)
(8.44988 -0.0487073 0)
(8.46861 -0.0558025 0)
(8.48688 -0.0627383 0)
(8.50454 -0.0694718 0)
(8.5215 -0.0759917 0)
(8.53769 -0.0823105 0)
(8.55309 -0.0884583 0)
(8.56768 -0.0944766 0)
(8.58146 -0.100414 0)
(8.59445 -0.106322 0)
(8.60665 -0.112254 0)
(8.6181 -0.118263 0)
(8.6288 -0.124397 0)
(8.63879 -0.130704 0)
(8.64807 -0.137229 0)
(8.65666 -0.144011 0)
(8.66457 -0.151086 0)
(8.67181 -0.158485 0)
(8.67838 -0.166236 0)
(8.68426 -0.17436 0)
(8.68944 -0.18287 0)
(8.69391 -0.191776 0)
(8.69764 -0.201077 0)
(8.70059 -0.210769 0)
(8.70276 -0.22081 0)
(8.33343 -0.00337802 0)
(8.33778 -0.0102042 0)
(8.34694 -0.0172467 0)
(8.35972 -0.0246063 0)
(8.37501 -0.0322334 0)
(8.3921 -0.0400098 0)
(8.41034 -0.0478033 0)
(8.42918 -0.0554896 0)
(8.44816 -0.0629679 0)
(8.46696 -0.0701696 0)
(8.48534 -0.0770599 0)
(8.50312 -0.0836327 0)
(8.52019 -0.0899056 0)
(8.53647 -0.0959135 0)
(8.55192 -0.101703 0)
(8.56651 -0.10733 0)
(8.58024 -0.11285 0)
(8.59312 -0.118323 0)
(8.60516 -0.123805 0)
(8.61638 -0.129352 0)
(8.6268 -0.135013 0)
(8.63645 -0.140836 0)
(8.64534 -0.146862 0)
(8.65348 -0.153127 0)
(8.66089 -0.159663 0)
(8.66759 -0.166496 0)
(8.67356 -0.173645 0)
(8.67881 -0.181125 0)
(8.68333 -0.188941 0)
(8.68712 -0.197095 0)
(8.69015 -0.205576 0)
(8.6924 -0.214374 0)
(8.69386 -0.223441 0)
(8.33342 -0.00496006 0)
(8.33771 -0.014848 0)
(8.34676 -0.0246167 0)
(8.35943 -0.0342422 0)
(8.37465 -0.0436524 0)
(8.39174 -0.0527537 0)
(8.41006 -0.0614581 0)
(8.42902 -0.0696992 0)
(8.44818 -0.0774375 0)
(8.46718 -0.0846628 0)
(8.48576 -0.0913913 0)
(8.50373 -0.0976607 0)
(8.52097 -0.103525 0)
(8.53737 -0.109047 0)
(8.5529 -0.114297 0)
(8.56752 -0.119346 0)
(8.58122 -0.124265 0)
(8.59401 -0.129121 0)
(8.6059 -0.133978 0)
(8.61691 -0.138894 0)
(8.62707 -0.14392 0)
(8.63639 -0.149102 0)
(8.64491 -0.15448 0)
(8.65262 -0.160087 0)
(8.65957 -0.165951 0)
(8.66575 -0.172092 0)
(8.67117 -0.178523 0)
(8.67585 -0.185254 0)
(8.67978 -0.192283 0)
(8.68295 -0.199604 0)
(8.68537 -0.207203 0)
(8.68702 -0.215062 0)
(8.68792 -0.223132 0)
(8.33343 -0.00658529 0)
(8.33777 -0.0196244 0)
(8.34693 -0.0322204 0)
(8.3598 -0.044232 0)
(8.37528 -0.0555663 0)
(8.3927 -0.066153 0)
(8.41141 -0.0759461 0)
(8.4308 -0.0849317 0)
(8.45039 -0.0931252 0)
(8.46982 -0.100567 0)
(8.48879 -0.107319 0)
(8.50712 -0.113456 0)
(8.52465 -0.119064 0)
(8.54128 -0.124235 0)
(8.55697 -0.129059 0)
(8.57167 -0.133626 0)
(8.58539 -0.138019 0)
(8.59812 -0.142318 0)
(8.60988 -0.146592 0)
(8.62071 -0.150905 0)
(8.63061 -0.155311 0)
(8.63963 -0.159859 0)
(8.64777 -0.164587 0)
(8.65508 -0.169526 0)
(8.66158 -0.174702 0)
(8.66727 -0.180131 0)
(8.67218 -0.185824 0)
(8.67632 -0.191782 0)
(8.67969 -0.198003 0)
(8.68231 -0.204474 0)
(8.68418 -0.211177 0)
(8.68529 -0.218091 0)
(8.68567 -0.225166 0)
(8.33344 -0.00829842 0)
(8.33795 -0.0246538 0)
(8.34746 -0.0402109 0)
(8.36079 -0.0546912 0)
(8.37681 -0.0679638 0)
(8.39483 -0.0799694 0)
(8.41415 -0.0907026 0)
(8.43417 -0.100211 0)
(8.45436 -0.108582 0)
(8.47436 -0.115925 0)
(8.49385 -0.122362 0)
(8.51263 -0.128023 0)
(8.53055 -0.133038 0)
(8.54749 -0.137531 0)
(8.5634 -0.141621 0)
(8.57826 -0.145416 0)
(8.59204 -0.149017 0)
(8.60476 -0.15251 0)
(8.61645 -0.155973 0)
(8.62712 -0.159474 0)
(8.63681 -0.16307 0)
(8.64555 -0.166807 0)
(8.65337 -0.170724 0)
(8.66031 -0.17485 0)
(8.66639 -0.179206 0)
(8.67164 -0.183807 0)
(8.67608 -0.188658 0)
(8.67974 -0.193759 0)
(8.68262 -0.199102 0)
(8.68476 -0.204672 0)
(8.68616 -0.210448 0)
(8.68683 -0.216409 0)
(8.68681 -0.222504 0)
(8.33347 -0.0101563 0)
(8.3383 -0.0301207 0)
(8.34847 -0.0489292 0)
(8.36269 -0.0661852 0)
(8.37974 -0.0817453 0)
(8.39885 -0.0955692 0)
(8.41928 -0.10768 0)
(8.44035 -0.118165 0)
(8.46153 -0.127158 0)
(8.48241 -0.134816 0)
(8.50268 -0.14131 0)
(8.52211 -0.146814 0)
(8.54055 -0.1515 0)
(8.55791 -0.155529 0)
(8.57412 -0.159051 0)
(8.58916 -0.1622 0)
(8.60304 -0.165097 0)
(8.61577 -0.167846 0)
(8.62738 -0.170537 0)
(8.6379 -0.173246 0)
(8.64737 -0.176036 0)
(8.65584 -0.178957 0)
(8.66333 -0.182049 0)
(8.6699 -0.185342 0)
(8.67558 -0.188856 0)
(8.6804 -0.192604 0)
(8.68439 -0.196588 0)
(8.68758 -0.200806 0)
(8.69001 -0.205248 0)
(8.69168 -0.209898 0)
(8.69264 -0.214733 0)
(8.69288 -0.219728 0)
(8.69245 -0.224836 0)
(8.33352 -0.0122192 0)
(8.33878 -0.0361408 0)
(8.34984 -0.0583789 0)
(8.36521 -0.0783524 0)
(8.38352 -0.0958962 0)
(8.40393 -0.111023 0)
(8.42567 -0.123845 0)
(8.44801 -0.134564 0)
(8.47039 -0.14342 0)
(8.49236 -0.150664 0)
(8.51361 -0.15654 0)
(8.5339 -0.161281 0)
(8.55306 -0.165105 0)
(8.57101 -0.168204 0)
(8.58768 -0.170755 0)
(8.60306 -0.17291 0)
(8.61715 -0.174802 0)
(8.62999 -0.176544 0)
(8.64161 -0.178234 0)
(8.65206 -0.179949 0)
(8.66138 -0.181756 0)
(8.66963 -0.183705 0)
(8.67685 -0.185836 0)
(8.6831 -0.188177 0)
(8.68843 -0.190749 0)
(8.69286 -0.193559 0)
(8.69645 -0.196612 0)
(8.69924 -0.199901 0)
(8.70126 -0.203417 0)
(8.70254 -0.207141 0)
(8.70312 -0.21105 0)
(8.70303 -0.215122 0)
(8.70232 -0.219309 0)
(8.3336 -0.0146007 0)
(8.33964 -0.0431844 0)
(8.35226 -0.0696514 0)
(8.36965 -0.0932954 0)
(8.39013 -0.113939 0)
(8.41272 -0.131569 0)
(8.43653 -0.146281 0)
(8.46074 -0.158302 0)
(8.48475 -0.167929 0)
(8.50813 -0.175485 0)
(8.53057 -0.181293 0)
(8.55183 -0.185664 0)
(8.57177 -0.188884 0)
(8.59032 -0.191208 0)
(8.60744 -0.192861 0)
(8.62313 -0.194037 0)
(8.63741 -0.194898 0)
(8.65032 -0.195582 0)
(8.66192 -0.1962 0)
(8.67226 -0.196844 0)
(8.6814 -0.197585 0)
(8.68941 -0.198478 0)
(8.69634 -0.199563 0)
(8.70225 -0.200871 0)
(8.70721 -0.202419 0)
(8.71125 -0.204214 0)
(8.71444 -0.20626 0)
(8.71681 -0.208548 0)
(8.71842 -0.211066 0)
(8.7193 -0.213797 0)
(8.71949 -0.216717 0)
(8.71903 -0.219801 0)
(8.71796 -0.223005 0)
(8.33366 -0.0173632 0)
(8.34047 -0.0510272 0)
(8.35468 -0.0814187 0)
(8.37408 -0.10766 0)
(8.39676 -0.129788 0)
(8.42169 -0.148061 0)
(8.44787 -0.162818 0)
(8.47438 -0.174479 0)
(8.50055 -0.183475 0)
(8.52589 -0.190215 0)
(8.55004 -0.195079 0)
(8.57277 -0.198414 0)
(8.59394 -0.200533 0)
(8.61348 -0.201712 0)
(8.63138 -0.202191 0)
(8.64765 -0.202177 0)
(8.66233 -0.201843 0)
(8.6755 -0.201335 0)
(8.68722 -0.200774 0)
(8.69757 -0.200256 0)
(8.70664 -0.199856 0)
(8.71449 -0.199633 0)
(8.7212 -0.199629 0)
(8.72685 -0.199873 0)
(8.7315 -0.200384 0)
(8.73522 -0.201171 0)
(8.73807 -0.202233 0)
(8.74009 -0.203564 0)
(8.74135 -0.205152 0)
(8.7419 -0.206978 0)
(8.74179 -0.209021 0)
(8.74106 -0.211257 0)
(8.73979 -0.213641 0)
(8.3339 -0.0208895 0)
(8.34274 -0.0617435 0)
(8.36056 -0.0988889 0)
(8.38409 -0.131117 0)
(8.41076 -0.15822 0)
(8.43929 -0.180236 0)
(8.46862 -0.197478 0)
(8.49782 -0.21051 0)
(8.52625 -0.219964 0)
(8.55349 -0.22645 0)
(8.57922 -0.230536 0)
(8.60325 -0.23273 0)
(8.62548 -0.233473 0)
(8.64586 -0.233135 0)
(8.6644 -0.232027 0)
(8.68113 -0.230405 0)
(8.69612 -0.228475 0)
(8.70946 -0.226402 0)
(8.72122 -0.224318 0)
(8.73151 -0.222323 0)
(8.74042 -0.220494 0)
(8.74803 -0.218888 0)
(8.75444 -0.217544 0)
(8.75974 -0.216489 0)
(8.76399 -0.215736 0)
(8.76727 -0.215292 0)
(8.76966 -0.215154 0)
(8.77122 -0.215315 0)
(8.772 -0.215761 0)
(8.77207 -0.216475 0)
(8.77148 -0.217434 0)
(8.77028 -0.218615 0)
(8.76853 -0.219973 0)
(8.33387 -0.0249168 0)
(8.34353 -0.0718802 0)
(8.36376 -0.111953 0)
(8.3907 -0.144883 0)
(8.42145 -0.171743 0)
(8.45454 -0.193191 0)
(8.48847 -0.20978 0)
(8.52198 -0.222151 0)
(8.55428 -0.23092 0)
(8.58484 -0.236651 0)
(8.61335 -0.239877 0)
(8.63962 -0.241089 0)
(8.66358 -0.240729 0)
(8.68525 -0.239183 0)
(8.70469 -0.236784 0)
(8.722 -0.233815 0)
(8.73729 -0.230507 0)
(8.75069 -0.227051 0)
(8.76233 -0.223596 0)
(8.77235 -0.220259 0)
(8.78086 -0.217129 0)
(8.78799 -0.214268 0)
(8.79384 -0.21172 0)
(8.79852 -0.209514 0)
(8.80213 -0.207664 0)
(8.80474 -0.206175 0)
(8.80644 -0.205045 0)
(8.8073 -0.204264 0)
(8.8074 -0.203821 0)
(8.80681 -0.203698 0)
(8.80559 -0.203874 0)
(8.80381 -0.204328 0)
(8.80156 -0.20501 0)
(8.33497 -0.0317686 0)
(8.35125 -0.0940264 0)
(8.38016 -0.148318 0)
(8.41458 -0.192529 0)
(8.45104 -0.227017 0)
(8.48862 -0.25259 0)
(8.52614 -0.27056 0)
(8.5625 -0.282399 0)
(8.59707 -0.289382 0)
(8.62944 -0.292575 0)
(8.65931 -0.292879 0)
(8.68658 -0.29103 0)
(8.71121 -0.287618 0)
(8.73327 -0.283117 0)
(8.75286 -0.277904 0)
(8.77014 -0.272275 0)
(8.78526 -0.266464 0)
(8.79839 -0.260652 0)
(8.8097 -0.254978 0)
(8.81935 -0.249544 0)
(8.82748 -0.244426 0)
(8.83424 -0.239674 0)
(8.83975 -0.235322 0)
(8.84413 -0.231387 0)
(8.84748 -0.227878 0)
(8.84989 -0.224794 0)
(8.85145 -0.222129 0)
(8.85223 -0.219872 0)
(8.8523 -0.218013 0)
(8.85174 -0.216539 0)
(8.8506 -0.215433 0)
(8.84896 -0.214681 0)
(8.84688 -0.21423 0)
(8.33402 -0.0367253 0)
(8.3498 -0.100108 0)
(8.38357 -0.149683 0)
(8.42609 -0.190175 0)
(8.47186 -0.223557 0)
(8.51844 -0.249561 0)
(8.56371 -0.268629 0)
(8.60648 -0.281651 0)
(8.6464 -0.289473 0)
(8.68339 -0.292965 0)
(8.7175 -0.293009 0)
(8.74884 -0.290416 0)
(8.7776 -0.285893 0)
(8.80394 -0.280034 0)
(8.82802 -0.273328 0)
(8.84999 -0.266162 0)
(8.86998 -0.258838 0)
(8.88814 -0.251582 0)
(8.90457 -0.24456 0)
(8.9194 -0.23789 0)
(8.93273 -0.231651 0)
(8.94467 -0.225892 0)
(8.95532 -0.220639 0)
(8.96476 -0.215899 0)
(8.97308 -0.21167 0)
(8.98036 -0.207938 0)
(8.98667 -0.204689 0)
(8.99208 -0.201905 0)
(8.99665 -0.199574 0)
(9.00044 -0.197683 0)
(9.00353 -0.196233 0)
(9.00602 -0.195221 0)
(9.00802 -0.194612 0)
(8.33959 -0.0608085 0)
(8.37696 -0.170719 0)
(8.426 -0.24975 0)
(8.47554 -0.303512 0)
(8.52763 -0.339111 0)
(8.58377 -0.360931 0)
(8.64242 -0.373066 0)
(8.70223 -0.378603 0)
(8.76228 -0.37949 0)
(8.82146 -0.377045 0)
(8.87875 -0.372203 0)
(8.93337 -0.365626 0)
(8.98479 -0.357807 0)
(9.03264 -0.34913 0)
(9.07673 -0.339904 0)
(9.117 -0.330387 0)
(9.1535 -0.320791 0)
(9.18637 -0.311292 0)
(9.21579 -0.30203 0)
(9.24198 -0.293114 0)
(9.26516 -0.284626 0)
(9.28559 -0.27662 0)
(9.30348 -0.26913 0)
(9.31905 -0.262175 0)
(9.33251 -0.255756 0)
(9.34403 -0.249869 0)
(9.35378 -0.244505 0)
(9.36191 -0.239652 0)
(9.36854 -0.235314 0)
(9.37379 -0.231493 0)
(9.37778 -0.228247 0)
(9.38062 -0.225583 0)
(9.38251 -0.223691 0)
(8.33758 -0.0467641 0)
(8.39339 -0.121681 0)
(8.49351 -0.18622 0)
(8.60814 -0.248619 0)
(8.72981 -0.30237 0)
(8.85298 -0.344286 0)
(8.97071 -0.37507 0)
(9.07884 -0.395589 0)
(9.17514 -0.406975 0)
(9.25836 -0.410799 0)
(9.32823 -0.408672 0)
(9.38519 -0.402048 0)
(9.43011 -0.392188 0)
(9.4641 -0.380137 0)
(9.4884 -0.366737 0)
(9.50425 -0.352646 0)
(9.51286 -0.338367 0)
(9.51531 -0.324272 0)
(9.5126 -0.310627 0)
(9.50559 -0.297613 0)
(9.49503 -0.285344 0)
(9.48158 -0.273882 0)
(9.46576 -0.26325 0)
(9.44803 -0.25344 0)
(9.42877 -0.244424 0)
(9.40829 -0.236157 0)
(9.38682 -0.228587 0)
(9.36455 -0.221662 0)
(9.34162 -0.215343 0)
(9.31808 -0.209602 0)
(9.29406 -0.20454 0)
(9.26928 -0.200118 0)
(9.24449 -0.1974 0)
(8.40926 -0.221552 0)
(8.63499 -0.429103 0)
(8.83302 -0.523945 0)
(8.97639 -0.585146 0)
(9.06941 -0.618495 0)
(9.11107 -0.62958 0)
(9.10566 -0.625963 0)
(9.06262 -0.611702 0)
(8.99082 -0.589622 0)
(8.89774 -0.562283 0)
(8.78989 -0.531745 0)
(8.67265 -0.499594 0)
(8.55025 -0.467059 0)
(8.42592 -0.435063 0)
(8.30205 -0.404261 0)
(8.18037 -0.375091 0)
(8.06206 -0.347821 0)
(7.94789 -0.322583 0)
(7.83834 -0.299416 0)
(7.73363 -0.278286 0)
(7.63381 -0.259114 0)
(7.53885 -0.241787 0)
(7.44859 -0.226174 0)
(7.36284 -0.212133 0)
(7.28139 -0.199513 0)
(7.20398 -0.188164 0)
(7.13038 -0.177924 0)
(7.06029 -0.168642 0)
(6.99345 -0.160133 0)
(6.92942 -0.152227 0)
(6.86783 -0.144816 0)
(6.80755 -0.136995 0)
(6.74903 -0.132524 0)
(8.13702 -0.207318 0)
(7.84724 -0.388467 0)
(7.38418 -0.440035 0)
(6.85765 -0.440819 0)
(6.3567 -0.409607 0)
(5.88426 -0.360694 0)
(5.44299 -0.306368 0)
(5.0403 -0.25303 0)
(4.67732 -0.203909 0)
(4.35209 -0.16063 0)
(4.06229 -0.123645 0)
(3.8051 -0.0927355 0)
(3.57734 -0.067365 0)
(3.37587 -0.0468463 0)
(3.19769 -0.0304568 0)
(3.04002 -0.0175122 0)
(2.90031 -0.00740148 0)
(2.77628 0.00040226 0)
(2.66588 0.00634254 0)
(2.56734 0.0107865 0)
(2.47907 0.014035 0)
(2.39972 0.0163334 0)
(2.32808 0.0178819 0)
(2.26315 0.0188452 0)
(2.20403 0.0193643 0)
(2.14999 0.0195619 0)
(2.10038 0.0195736 0)
(2.05476 0.0195356 0)
(2.01258 0.019699 0)
(1.97404 0.020403 0)
(1.93813 0.0220208 0)
(1.9072 0.0274358 0)
(1.87886 0.0221489 0)