/*--------------------------------*- C++ -*----------------------------------*\
| =========                 |                                                 |
| \\      /  F ield         | OpenFOAM: The Open Source CFD Toolbox           |
|  \\    /   O peration     | Version:  2.1.1                                 |
|   \\  /    A nd           | Web:      www.OpenFOAM.org                      |
|    \\/     M anipulation  |                                                 |
\*---------------------------------------------------------------------------*/
FoamFile
{
    version     2.0;
    format      ascii;
    class       volScalarField;
    location    "0.17";
    object      nuSgs;
}
// * * * * * * * * * * * * * * * * * * * * * * * * * * * * * * * * * * * * * //

dimensions      [0 2 -1 0 0 0 0];

internalField   nonuniform List<scalar> 
6820
(
0.000556014
0.000457471
0.000368328
0.000306471
0.000269444
0.000244005
0.000225337
0.000211112
0.00019967
0.000190104
0.000181902
0.000174731
0.000168372
0.000162669
0.000157511
0.000152812
0.000148509
0.000144552
0.000140899
0.000137521
0.000134392
0.000131495
0.00012881
0.000126321
0.000124021
0.000121902
0.00011996
0.000118196
0.000116608
0.000115235
0.000114033
0.000113073
0.000110821
0.000103478
0.000170615
0.000223583
0.000239972
0.000235266
0.000224969
0.000213347
0.000202141
0.00019199
0.000182908
0.000174776
0.000167459
0.000160836
0.000154801
0.000149272
0.000144178
0.000139463
0.000135079
0.000130983
0.000127145
0.000123536
0.000120129
0.000116905
0.000113846
0.000110939
0.000108169
0.000105523
0.000102979
0.000100538
9.81035e-05
9.57874e-05
9.29502e-05
9.03704e-05
3.67795e-05
2.85032e-05
4.55232e-05
8.21093e-05
0.000107682
0.000123234
0.000131641
0.000135491
0.000136605
0.000136051
0.000134467
0.000132248
0.00012964
0.000126804
0.000123848
0.000120841
0.00011783
0.000114846
0.000111908
0.000109031
0.00010622
0.000103477
0.000100805
9.82059e-05
9.56727e-05
9.32014e-05
9.0789e-05
8.84245e-05
8.60979e-05
8.37632e-05
8.14055e-05
7.88238e-05
7.60671e-05
2.07377e-05
2.87099e-05
2.66142e-05
1.52027e-05
3.72283e-06
1.35651e-05
2.5274e-05
3.49872e-05
4.28041e-05
4.89989e-05
5.38465e-05
5.75901e-05
6.04309e-05
6.25269e-05
6.40092e-05
6.49865e-05
6.55483e-05
6.57677e-05
6.57049e-05
6.54086e-05
6.49193e-05
6.42714e-05
6.3492e-05
6.26009e-05
6.16104e-05
6.0533e-05
5.93772e-05
5.81482e-05
5.68483e-05
5.54651e-05
5.39929e-05
5.24542e-05
5.08872e-05
1.44147e-05
1.76175e-05
2.26321e-05
2.43202e-05
2.40031e-05
2.20597e-05
1.92296e-05
1.60495e-05
1.27496e-05
9.47721e-06
6.33908e-06
3.4174e-06
1.00554e-06
2.11033e-06
4.28211e-06
6.27156e-06
8.03759e-06
9.58324e-06
1.09195e-05
1.20597e-05
1.3018e-05
1.38083e-05
1.4444e-05
1.49359e-05
1.53019e-05
1.55524e-05
1.56928e-05
1.57283e-05
1.56627e-05
1.54997e-05
1.52464e-05
1.49691e-05
1.4703e-05
1.09104e-05
1.25351e-05
1.38693e-05
1.43641e-05
1.5125e-05
1.57393e-05
1.60957e-05
1.62899e-05
1.63271e-05
1.62132e-05
1.59725e-05
1.56288e-05
1.52059e-05
1.47207e-05
1.41904e-05
1.36321e-05
1.30606e-05
1.24884e-05
1.19258e-05
1.13811e-05
1.08605e-05
1.03688e-05
9.90914e-06
9.48314e-06
9.09063e-06
8.73252e-06
8.40791e-06
8.11714e-06
7.85868e-06
7.625e-06
7.40237e-06
7.13507e-06
6.80069e-06
8.22928e-06
9.46454e-06
1.03052e-05
1.01056e-05
9.90963e-06
9.72007e-06
9.5216e-06
9.41782e-06
9.39843e-06
9.41965e-06
9.45489e-06
9.4868e-06
9.50387e-06
9.50358e-06
9.48482e-06
9.44707e-06
9.39088e-06
9.31758e-06
9.22897e-06
9.12708e-06
9.01408e-06
8.89153e-06
8.7628e-06
8.62928e-06
8.496e-06
8.36574e-06
8.23958e-06
8.11755e-06
7.99695e-06
7.86962e-06
7.72355e-06
7.52497e-06
7.26356e-06
6.33958e-06
7.44336e-06
8.27759e-06
8.14842e-06
7.83894e-06
7.49841e-06
7.11992e-06
6.79562e-06
6.54435e-06
6.34507e-06
6.18475e-06
6.0544e-06
5.94523e-06
5.85065e-06
5.76643e-06
5.6897e-06
5.61827e-06
5.55055e-06
5.48542e-06
5.42221e-06
5.3607e-06
5.30083e-06
5.24307e-06
5.1887e-06
5.13788e-06
5.09018e-06
5.04527e-06
5.00181e-06
4.9564e-06
4.90152e-06
4.82809e-06
4.71724e-06
4.56914e-06
4.97304e-06
5.88964e-06
6.60569e-06
6.611e-06
6.4468e-06
6.24096e-06
5.9601e-06
5.67779e-06
5.43287e-06
5.22156e-06
5.03899e-06
4.8817e-06
4.74484e-06
4.62426e-06
4.51718e-06
4.42154e-06
4.33577e-06
4.2587e-06
4.18951e-06
4.12764e-06
4.07262e-06
4.02445e-06
3.98236e-06
3.94619e-06
3.91572e-06
3.89033e-06
3.86894e-06
3.84953e-06
3.82885e-06
3.80152e-06
3.76245e-06
3.7033e-06
3.6326e-06
3.96125e-06
4.73339e-06
5.37381e-06
5.46125e-06
5.366e-06
5.22169e-06
5.00885e-06
4.78415e-06
4.58605e-06
4.41385e-06
4.26306e-06
4.13154e-06
4.01623e-06
3.91425e-06
3.82362e-06
3.743e-06
3.67134e-06
3.60789e-06
3.55208e-06
3.5035e-06
3.46182e-06
3.42668e-06
3.3979e-06
3.37522e-06
3.35818e-06
3.34595e-06
3.33735e-06
3.33077e-06
3.32406e-06
3.31422e-06
3.29955e-06
3.27795e-06
3.26198e-06
3.19555e-06
3.85509e-06
4.43006e-06
4.56344e-06
4.5201e-06
4.42747e-06
4.27306e-06
4.09555e-06
3.93053e-06
3.78266e-06
3.65067e-06
3.53466e-06
3.43331e-06
3.34463e-06
3.26705e-06
3.19939e-06
3.14066e-06
3.09007e-06
3.04701e-06
3.01105e-06
2.98182e-06
2.95905e-06
2.94243e-06
2.93162e-06
2.92613e-06
2.92531e-06
2.92832e-06
2.93409e-06
2.94146e-06
2.94921e-06
2.95796e-06
2.96861e-06
2.99499e-06
2.60289e-06
3.17335e-06
3.69986e-06
3.87241e-06
3.87797e-06
3.82648e-06
3.71378e-06
3.57008e-06
3.42945e-06
3.30075e-06
3.1847e-06
3.08222e-06
2.99287e-06
2.91526e-06
2.84814e-06
2.79054e-06
2.74161e-06
2.70068e-06
2.6672e-06
2.64075e-06
2.62094e-06
2.60748e-06
2.60005e-06
2.59832e-06
2.60186e-06
2.61016e-06
2.62265e-06
2.63875e-06
2.65809e-06
2.68073e-06
2.7085e-06
2.74332e-06
2.79857e-06
2.13369e-06
2.63616e-06
3.12679e-06
3.32768e-06
3.37143e-06
3.35267e-06
3.27547e-06
3.16405e-06
3.04839e-06
2.93897e-06
2.83802e-06
2.74737e-06
2.66766e-06
2.59836e-06
2.53878e-06
2.48827e-06
2.4462e-06
2.41202e-06
2.38522e-06
2.36538e-06
2.35214e-06
2.34517e-06
2.34414e-06
2.34875e-06
2.35863e-06
2.37345e-06
2.3929e-06
2.41685e-06
2.44549e-06
2.47955e-06
2.52127e-06
2.57246e-06
2.64539e-06
1.75443e-06
2.20625e-06
2.66998e-06
2.89312e-06
2.96993e-06
2.98025e-06
2.93313e-06
2.84879e-06
2.75372e-06
2.65985e-06
2.57112e-06
2.49024e-06
2.41862e-06
2.35637e-06
2.30313e-06
2.25845e-06
2.22188e-06
2.19292e-06
2.17113e-06
2.15613e-06
2.14758e-06
2.14515e-06
2.14857e-06
2.15756e-06
2.17187e-06
2.19133e-06
2.21585e-06
2.24556e-06
2.28094e-06
2.32297e-06
2.37383e-06
2.43473e-06
2.51674e-06
1.44172e-06
1.85767e-06
2.30183e-06
2.54276e-06
2.647e-06
2.68152e-06
2.65896e-06
2.59756e-06
2.52087e-06
2.44137e-06
2.36403e-06
2.29211e-06
2.22756e-06
2.17101e-06
2.12249e-06
2.08185e-06
2.04882e-06
2.02305e-06
2.00422e-06
1.992e-06
1.98609e-06
1.98623e-06
1.99215e-06
2.00366e-06
2.0206e-06
2.04287e-06
2.07054e-06
2.10388e-06
2.14347e-06
2.19026e-06
2.24614e-06
2.31166e-06
2.39682e-06
1.17904e-06
1.572e-06
2.00238e-06
2.25765e-06
2.38489e-06
2.44043e-06
2.43901e-06
2.39749e-06
2.33683e-06
2.26955e-06
2.20153e-06
2.13663e-06
2.07732e-06
2.02476e-06
1.97936e-06
1.94122e-06
1.91026e-06
1.88627e-06
1.86898e-06
1.85815e-06
1.85352e-06
1.85485e-06
1.86194e-06
1.87464e-06
1.89285e-06
1.91654e-06
1.94586e-06
1.98109e-06
2.0228e-06
2.0718e-06
2.12957e-06
2.19608e-06
2.28042e-06
9.5463e-07
1.33622e-06
1.75767e-06
2.02461e-06
2.17102e-06
2.24455e-06
2.26086e-06
2.236e-06
2.18893e-06
2.13202e-06
2.07186e-06
2.01275e-06
1.95758e-06
1.90787e-06
1.86439e-06
1.82746e-06
1.79719e-06
1.7735e-06
1.75627e-06
1.74532e-06
1.74047e-06
1.74154e-06
1.74838e-06
1.76088e-06
1.77899e-06
1.80272e-06
1.83221e-06
1.86772e-06
1.90972e-06
1.9588e-06
2.0161e-06
2.08107e-06
2.16208e-06
7.60237e-07
1.14144e-06
1.55785e-06
1.83417e-06
1.99639e-06
2.08522e-06
2.11654e-06
2.10581e-06
2.07031e-06
2.02213e-06
1.96827e-06
1.91346e-06
1.86091e-06
1.81256e-06
1.76949e-06
1.73228e-06
1.70124e-06
1.67647e-06
1.65795e-06
1.6456e-06
1.63931e-06
1.63897e-06
1.64446e-06
1.65571e-06
1.67267e-06
1.69537e-06
1.72391e-06
1.7585e-06
1.79944e-06
1.84714e-06
1.90239e-06
1.9643e-06
2.04062e-06
5.90704e-07
9.82106e-07
1.39621e-06
1.67979e-06
1.85478e-06
1.95641e-06
2.00026e-06
2.00117e-06
1.97517e-06
1.93391e-06
1.88476e-06
1.83277e-06
1.78148e-06
1.73316e-06
1.68918e-06
1.65038e-06
1.61726e-06
1.59008e-06
1.56896e-06
1.55392e-06
1.54495e-06
1.54199e-06
1.54499e-06
1.5539e-06
1.56869e-06
1.58936e-06
1.61597e-06
1.64862e-06
1.68749e-06
1.73278e-06
1.78503e-06
1.84305e-06
1.91406e-06
4.44663e-07
8.55664e-07
1.26846e-06
1.55704e-06
1.74195e-06
1.854e-06
1.90808e-06
1.91845e-06
1.90001e-06
1.86407e-06
1.81815e-06
1.7676e-06
1.71622e-06
1.66658e-06
1.62032e-06
1.57855e-06
1.54196e-06
1.51099e-06
1.48592e-06
1.4669e-06
1.45401e-06
1.44729e-06
1.44674e-06
1.45232e-06
1.46402e-06
1.48182e-06
1.5057e-06
1.53568e-06
1.5718e-06
1.61408e-06
1.66284e-06
1.71671e-06
1.78243e-06
3.27901e-07
7.62258e-07
1.17216e-06
1.46314e-06
1.65518e-06
1.77534e-06
1.8375e-06
1.8552e-06
1.84243e-06
1.81007e-06
1.76575e-06
1.71504e-06
1.662e-06
1.60947e-06
1.55938e-06
1.51307e-06
1.47146e-06
1.43519e-06
1.4047e-06
1.3803e-06
1.3622e-06
1.35052e-06
1.34534e-06
1.34667e-06
1.35451e-06
1.36879e-06
1.38946e-06
1.41642e-06
1.44958e-06
1.48879e-06
1.53418e-06
1.58422e-06
1.64516e-06
2.61147e-07
7.04027e-07
1.10628e-06
1.39655e-06
1.59296e-06
1.71896e-06
1.78715e-06
1.81027e-06
1.80147e-06
1.77123e-06
1.72721e-06
1.67512e-06
1.61924e-06
1.56262e-06
1.50746e-06
1.4553e-06
1.40729e-06
1.36426e-06
1.32686e-06
1.29555e-06
1.27072e-06
1.25262e-06
1.24146e-06
1.23731e-06
1.24022e-06
1.25011e-06
1.26687e-06
1.29033e-06
1.32025e-06
1.35634e-06
1.39855e-06
1.4452e-06
1.50217e-06
2.73396e-07
6.83647e-07
1.07077e-06
1.3568e-06
1.55481e-06
1.68439e-06
1.7565e-06
1.78295e-06
1.77613e-06
1.74611e-06
1.70051e-06
1.64518e-06
1.58457e-06
1.52197e-06
1.45981e-06
1.39987e-06
1.34354e-06
1.29186e-06
1.2457e-06
1.20575e-06
1.17258e-06
1.14666e-06
1.12833e-06
1.11781e-06
1.11521e-06
1.12048e-06
1.13345e-06
1.15383e-06
1.18125e-06
1.2152e-06
1.25545e-06
1.30011e-06
1.3546e-06
3.55481e-07
7.02104e-07
1.06595e-06
1.344e-06
1.54094e-06
1.67214e-06
1.74663e-06
1.77515e-06
1.76929e-06
1.73874e-06
1.69097e-06
1.63188e-06
1.56602e-06
1.49681e-06
1.42685e-06
1.35811e-06
1.29215e-06
1.23021e-06
1.17337e-06
1.12257e-06
1.07864e-06
1.04234e-06
1.01431e-06
9.95024e-07
9.84794e-07
9.83705e-07
9.91602e-07
1.00813e-06
1.03272e-06
1.06468e-06
1.10349e-06
1.14704e-06
1.20034e-06
4.75821e-07
7.57697e-07
1.09231e-06
1.35895e-06
1.55212e-06
1.68255e-06
1.75701e-06
1.78504e-06
1.7775e-06
1.74369e-06
1.69103e-06
1.62551e-06
1.55181e-06
1.47355e-06
1.39349e-06
1.31376e-06
1.23606e-06
1.16183e-06
1.09231e-06
1.02867e-06
9.72054e-07
9.2356e-07
8.84246e-07
8.55041e-07
8.36636e-07
8.29387e-07
8.3322e-07
8.47653e-07
8.71832e-07
9.04619e-07
9.45086e-07
9.90674e-07
1.04575e-06
6.18655e-07
8.47127e-07
1.1503e-06
1.40317e-06
1.59098e-06
1.71991e-06
1.7944e-06
1.82264e-06
1.81465e-06
1.77918e-06
1.72335e-06
1.653e-06
1.57281e-06
1.48645e-06
1.39673e-06
1.30589e-06
1.21571e-06
1.12771e-06
1.04323e-06
9.63605e-07
8.90182e-07
8.24445e-07
7.68015e-07
7.22592e-07
6.89787e-07
6.70845e-07
6.66316e-07
6.75877e-07
6.98347e-07
7.31904e-07
7.74845e-07
8.23781e-07
8.82487e-07
7.80665e-07
9.68414e-07
1.24145e-06
1.47876e-06
1.65833e-06
1.78202e-06
1.85185e-06
1.87489e-06
1.86077e-06
1.81811e-06
1.75407e-06
1.67459e-06
1.58446e-06
1.48736e-06
1.38615e-06
1.28301e-06
1.17967e-06
1.07753e-06
9.77843e-07
8.81812e-07
7.90772e-07
7.06332e-07
6.30562e-07
5.66146e-07
5.16361e-07
4.84625e-07
4.73407e-07
4.82982e-07
5.11078e-07
5.53778e-07
6.07378e-07
6.66983e-07
7.35162e-07
9.63374e-07
1.12009e-06
1.36635e-06
1.58924e-06
1.7631e-06
1.88636e-06
1.95819e-06
1.98371e-06
1.97127e-06
1.92866e-06
1.86261e-06
1.77896e-06
1.68258e-06
1.57735e-06
1.4663e-06
1.3518e-06
1.23568e-06
1.11933e-06
1.00387e-06
8.90268e-07
7.79394e-07
6.7224e-07
5.70117e-07
4.7506e-07
3.90566e-07
3.22832e-07
2.81543e-07
2.76059e-07
3.0586e-07
3.60143e-07
4.28327e-07
5.01674e-07
5.8173e-07
1.17304e-06
1.30859e-06
1.533e-06
1.73902e-06
1.89876e-06
2.00874e-06
2.06731e-06
2.07991e-06
2.05551e-06
2.00218e-06
1.9266e-06
1.83439e-06
1.73013e-06
1.61741e-06
1.499e-06
1.37703e-06
1.25313e-06
1.12853e-06
1.00417e-06
8.8075e-07
7.58787e-07
6.38682e-07
5.20739e-07
4.05218e-07
2.92393e-07
1.82771e-07
7.87986e-08
4.61977e-08
1.39215e-07
2.36784e-07
3.32646e-07
4.24498e-07
5.1617e-07
1.4144e-06
1.53041e-06
1.7379e-06
1.93883e-06
2.10551e-06
2.22962e-06
2.30318e-06
2.32769e-06
2.31048e-06
2.25936e-06
2.18152e-06
2.08355e-06
1.97107e-06
1.84858e-06
1.71963e-06
1.58693e-06
1.45256e-06
1.31807e-06
1.18465e-06
1.05321e-06
9.24496e-07
7.99205e-07
6.78098e-07
5.62213e-07
4.53266e-07
3.54582e-07
2.73224e-07
2.23448e-07
2.2191e-07
2.6498e-07
3.32712e-07
4.09202e-07
4.90307e-07
1.70807e-06
1.82122e-06
2.01463e-06
2.18637e-06
2.31552e-06
2.40246e-06
2.44512e-06
2.44797e-06
2.4185e-06
2.36266e-06
2.28527e-06
2.1908e-06
2.08332e-06
1.96636e-06
1.84292e-06
1.71558e-06
1.58655e-06
1.4577e-06
1.33064e-06
1.20683e-06
1.08766e-06
9.7457e-07
8.69204e-07
7.73547e-07
6.90078e-07
6.21808e-07
5.72003e-07
5.43399e-07
5.36988e-07
5.51191e-07
5.82476e-07
6.26073e-07
6.77818e-07
2.04652e-06
2.13412e-06
2.3337e-06
2.55077e-06
2.74479e-06
2.89084e-06
2.97189e-06
2.99087e-06
2.96013e-06
2.89151e-06
2.79495e-06
2.67887e-06
2.54998e-06
2.41329e-06
2.27251e-06
2.13045e-06
1.98923e-06
1.85055e-06
1.71578e-06
1.58615e-06
1.46279e-06
1.34685e-06
1.23951e-06
1.14203e-06
1.05579e-06
9.82161e-07
9.22458e-07
8.7768e-07
8.48265e-07
8.3387e-07
8.33332e-07
8.44728e-07
8.65049e-07
2.52328e-06
2.64386e-06
2.79224e-06
2.88521e-06
2.95403e-06
3.01898e-06
3.06927e-06
3.09576e-06
3.0952e-06
3.06589e-06
3.00868e-06
2.92718e-06
2.82619e-06
2.71057e-06
2.58488e-06
2.45318e-06
2.31892e-06
2.18496e-06
2.05369e-06
1.92706e-06
1.80671e-06
1.69404e-06
1.59022e-06
1.49631e-06
1.41316e-06
1.34147e-06
1.28169e-06
1.23398e-06
1.19819e-06
1.17381e-06
1.16001e-06
1.15592e-06
1.1588e-06
2.99448e-06
3.05914e-06
3.3849e-06
3.74573e-06
4.01775e-06
4.17326e-06
4.21884e-06
4.1841e-06
4.09796e-06
3.97808e-06
3.83537e-06
3.67774e-06
3.51076e-06
3.33845e-06
3.16408e-06
2.99049e-06
2.82017e-06
2.65531e-06
2.4978e-06
2.34922e-06
2.21091e-06
2.0839e-06
1.96899e-06
1.86673e-06
1.77739e-06
1.70101e-06
1.63731e-06
1.58578e-06
1.54558e-06
1.51575e-06
1.49504e-06
1.48266e-06
1.47582e-06
4.02531e-06
4.09381e-06
3.95361e-06
3.82181e-06
3.87427e-06
4.04568e-06
4.21082e-06
4.31597e-06
4.35538e-06
4.33807e-06
4.2806e-06
4.20141e-06
4.11548e-06
4.03308e-06
3.96037e-06
3.90022e-06
3.85312e-06
3.81813e-06
3.7936e-06
3.77766e-06
3.76851e-06
3.76453e-06
3.7644e-06
3.767e-06
3.77142e-06
3.77689e-06
3.78275e-06
3.78841e-06
3.79337e-06
3.79728e-06
3.79984e-06
3.80242e-06
3.80227e-06
4.47224e-06
4.97012e-06
5.88081e-06
6.31748e-06
6.39143e-06
6.33041e-06
6.294e-06
6.3909e-06
6.65086e-06
7.03857e-06
7.49971e-06
7.98596e-06
8.46083e-06
8.9001e-06
9.28996e-06
9.62407e-06
9.90103e-06
1.01226e-05
1.02924e-05
1.0415e-05
1.04954e-05
1.05386e-05
1.05493e-05
1.0532e-05
1.04905e-05
1.04282e-05
1.03479e-05
1.02519e-05
1.0142e-05
1.00194e-05
9.88573e-06
9.7432e-06
9.59204e-06
7.65492e-06
5.86972e-06
4.55291e-06
6.08605e-06
8.81958e-06
1.15435e-05
1.38896e-05
1.57937e-05
1.72525e-05
1.8279e-05
1.89095e-05
1.91917e-05
1.91758e-05
1.89118e-05
1.84479e-05
1.78279e-05
1.70906e-05
1.62695e-05
1.53926e-05
1.44832e-05
1.356e-05
1.26379e-05
1.17283e-05
1.084e-05
9.97926e-06
9.15049e-06
8.35634e-06
7.59764e-06
6.87455e-06
6.18369e-06
5.5257e-06
4.88809e-06
4.27982e-06
8.59729e-06
1.46631e-05
1.87299e-05
2.11046e-05
2.21579e-05
2.16366e-05
1.9717e-05
1.68579e-05
1.35464e-05
1.04596e-05
8.73251e-06
9.46547e-06
1.21659e-05
1.56702e-05
1.93363e-05
2.28903e-05
2.62128e-05
2.92526e-05
3.19918e-05
3.4431e-05
3.65803e-05
3.84556e-05
4.00754e-05
4.14594e-05
4.26271e-05
4.35976e-05
4.43892e-05
4.502e-05
4.55076e-05
4.58741e-05
4.61359e-05
4.63528e-05
4.65151e-05
3.47195e-05
3.72733e-05
4.67493e-05
6.19535e-05
7.77544e-05
9.32549e-05
0.000107745
0.000120513
0.000131368
0.000140352
0.000147576
0.000153203
0.000157421
0.000160418
0.000162367
0.000163431
0.00016375
0.00016345
0.000162638
0.000161406
0.000159832
0.000157981
0.000155909
0.000153661
0.000151276
0.000148785
0.000146212
0.000143576
0.000140896
0.000138176
0.000135418
0.000132711
0.000130074
0.000608498
0.000582515
0.000556806
0.00053021
0.000504035
0.000478606
0.000453968
0.000430395
0.000408076
0.000387071
0.000367399
0.000349049
0.000331975
0.00031611
0.000301379
0.000287698
0.000274985
0.000263157
0.000252136
0.000241849
0.000232229
0.000223214
0.000214749
0.000206782
0.00019927
0.000192171
0.000185447
0.000179064
0.000172983
0.000167183
0.000161532
0.000156564
0.000152048
9.57554e-05
9.32036e-05
8.50516e-05
7.63705e-05
6.8436e-05
6.25489e-05
5.66897e-05
4.88551e-05
3.79832e-05
2.63344e-05
2.14209e-05
2.67509e-05
2.59162e-05
1.25167e-05
2.98345e-05
4.64769e-05
4.8823e-05
4.37321e-05
3.80901e-05
3.41498e-05
3.17756e-05
3.0293e-05
3.07467e-05
3.34654e-05
3.56497e-05
3.68388e-05
3.79758e-05
3.92609e-05
4.10436e-05
4.28849e-05
4.39176e-05
4.36097e-05
4.24383e-05
4.06276e-05
3.44815e-05
2.00153e-05
1.17242e-05
2.02945e-05
3.41745e-05
3.7119e-05
2.57184e-05
1.77107e-05
2.7779e-05
3.5775e-05
3.63426e-05
3.23005e-05
2.7175e-05
2.28628e-05
1.97016e-05
1.73956e-05
1.56261e-05
1.41984e-05
1.30082e-05
1.19925e-05
1.11054e-05
1.03109e-05
9.5809e-06
8.89466e-06
8.23723e-06
7.5989e-06
6.97473e-06
6.36439e-06
5.77197e-06
5.2059e-06
4.67834e-06
4.20493e-06
3.80529e-06
3.4988e-06
3.30252e-06
3.23465e-06
3.31343e-06
3.54047e-06
3.87232e-06
4.27084e-06
4.95373e-06
6.58687e-06
1.05469e-05
1.8146e-05
2.85448e-05
3.88021e-05
4.53116e-05
4.58374e-05
4.04763e-05
3.07793e-05
1.85308e-05
4.77254e-06
1.06507e-05
2.58563e-05
4.01853e-05
5.05251e-05
5.30154e-05
4.73158e-05
3.69537e-05
2.60146e-05
1.7067e-05
1.10544e-05
6.95493e-06
4.15169e-06
2.82424e-06
3.79245e-06
0.000113947
0.000115938
0.000116017
0.000110484
9.85936e-05
8.40497e-05
7.01091e-05
5.75888e-05
4.72792e-05
4.24987e-05
4.26364e-05
3.69609e-05
1.6532e-05
2.01268e-05
4.20014e-05
4.93784e-05
4.6506e-05
4.10925e-05
3.66595e-05
3.36589e-05
3.19247e-05
3.09542e-05
3.15177e-05
3.46537e-05
3.80114e-05
4.00505e-05
4.16365e-05
4.31955e-05
4.5024e-05
4.67748e-05
4.77036e-05
4.73589e-05
4.58317e-05
4.28619e-05
3.4162e-05
1.97846e-05
1.5027e-05
2.50303e-05
3.70542e-05
3.70343e-05
2.28529e-05
1.60904e-05
2.95033e-05
3.78262e-05
3.78172e-05
3.31936e-05
2.77558e-05
2.33318e-05
2.01347e-05
1.78085e-05
1.60188e-05
1.457e-05
1.33591e-05
1.23242e-05
1.14197e-05
1.06096e-05
9.86544e-06
9.1656e-06
8.49455e-06
7.84221e-06
7.20359e-06
6.57856e-06
5.97165e-06
5.39183e-06
4.85191e-06
4.36795e-06
3.95933e-06
3.64569e-06
3.44335e-06
3.36834e-06
3.4372e-06
3.65362e-06
3.97968e-06
4.36771e-06
5.00876e-06
6.55985e-06
1.03747e-05
1.79368e-05
2.85756e-05
3.9275e-05
4.63303e-05
4.73963e-05
4.24096e-05
3.28164e-05
2.05104e-05
7.93024e-06
1.22176e-05
2.70809e-05
4.17622e-05
5.22628e-05
5.44543e-05
4.82685e-05
3.76525e-05
2.67852e-05
1.79513e-05
1.19146e-05
7.73204e-06
4.81973e-06
3.32242e-06
4.00653e-06
9.87351e-05
0.000101553
0.000104642
0.00010752
0.000107346
0.000101411
9.08032e-05
7.89873e-05
6.86647e-05
5.87406e-05
4.38294e-05
1.91618e-05
1.41596e-05
3.78571e-05
4.8297e-05
4.76607e-05
4.29634e-05
3.85686e-05
3.53395e-05
3.31126e-05
3.18925e-05
3.13921e-05
3.21186e-05
3.54587e-05
3.97524e-05
4.27232e-05
4.48883e-05
4.68495e-05
4.87935e-05
5.04725e-05
5.12625e-05
5.07355e-05
4.87106e-05
4.44075e-05
3.3679e-05
2.07982e-05
1.97039e-05
3.00739e-05
3.98056e-05
3.67036e-05
1.96697e-05
1.56568e-05
3.19307e-05
4.01158e-05
3.931e-05
3.40516e-05
2.83262e-05
2.38234e-05
2.06086e-05
1.82658e-05
1.64516e-05
1.49753e-05
1.37386e-05
1.26809e-05
1.17567e-05
1.09292e-05
1.01692e-05
9.45426e-06
8.7682e-06
8.10057e-06
7.44629e-06
6.80536e-06
6.18262e-06
5.58742e-06
5.03299e-06
4.53565e-06
4.11478e-06
3.7891e-06
3.57387e-06
3.48508e-06
3.54156e-06
3.75283e-06
4.08721e-06
4.48336e-06
5.08835e-06
6.53816e-06
1.01603e-05
1.7606e-05
2.84446e-05
3.96256e-05
4.73213e-05
4.90618e-05
4.46326e-05
3.5392e-05
2.33861e-05
1.21724e-05
1.48376e-05
2.87528e-05
4.36073e-05
5.41276e-05
5.58543e-05
4.90662e-05
3.8181e-05
2.74679e-05
1.88564e-05
1.28089e-05
8.49948e-06
5.46473e-06
3.84076e-06
4.24238e-06
6.68784e-05
6.95475e-05
7.25459e-05
7.52588e-05
7.71952e-05
7.70057e-05
7.31007e-05
6.47861e-05
5.17896e-05
3.35062e-05
9.47767e-06
1.67477e-05
3.73306e-05
4.69195e-05
4.70683e-05
4.31945e-05
3.92897e-05
3.63398e-05
3.41156e-05
3.25048e-05
3.17085e-05
3.1633e-05
3.25577e-05
3.60014e-05
4.10683e-05
4.49622e-05
4.77082e-05
5.01226e-05
5.22475e-05
5.38833e-05
5.45199e-05
5.3699e-05
5.10608e-05
4.52253e-05
3.33544e-05
2.31663e-05
2.51806e-05
3.50568e-05
4.21806e-05
3.58845e-05
1.58943e-05
1.65947e-05
3.47927e-05
4.23879e-05
4.06211e-05
3.47411e-05
2.87946e-05
2.4262e-05
2.10524e-05
1.87018e-05
1.68674e-05
1.53679e-05
1.41099e-05
1.3034e-05
1.20941e-05
1.12528e-05
1.04798e-05
9.75205e-06
9.05269e-06
8.37094e-06
7.70168e-06
7.04509e-06
6.40629e-06
5.79506e-06
5.22496e-06
4.71254e-06
4.27736e-06
3.9376e-06
3.70751e-06
3.60208e-06
3.64145e-06
3.84272e-06
4.1865e-06
4.60423e-06
5.18954e-06
6.53593e-06
9.92892e-06
1.71753e-05
2.81703e-05
3.98825e-05
4.83244e-05
5.08684e-05
4.71494e-05
3.84458e-05
2.69588e-05
1.68885e-05
1.83969e-05
3.10054e-05
4.57585e-05
5.60566e-05
5.71002e-05
4.96221e-05
3.85262e-05
2.80994e-05
1.98434e-05
1.38315e-05
9.32986e-06
6.10937e-06
4.35739e-06
4.47931e-06
2.0019e-05
2.20759e-05
2.44772e-05
2.67156e-05
2.81673e-05
2.79572e-05
2.50934e-05
1.87992e-05
1.10214e-05
1.4684e-05
2.83306e-05
3.98856e-05
4.50992e-05
4.45567e-05
4.15043e-05
3.85563e-05
3.63023e-05
3.44536e-05
3.29083e-05
3.17863e-05
3.13635e-05
3.16807e-05
3.28204e-05
3.62259e-05
4.18269e-05
4.6658e-05
5.00076e-05
5.28612e-05
5.5219e-05
5.68414e-05
5.73031e-05
5.6099e-05
5.27291e-05
4.53942e-05
3.36109e-05
2.678e-05
3.09561e-05
3.96711e-05
4.40657e-05
3.45583e-05
1.15249e-05
1.9163e-05
3.8069e-05
4.46038e-05
4.17271e-05
3.52613e-05
2.91696e-05
2.46559e-05
2.14723e-05
1.91211e-05
1.72701e-05
1.57509e-05
1.44755e-05
1.33851e-05
1.24328e-05
1.15802e-05
1.07964e-05
1.00574e-05
9.34585e-06
8.65065e-06
7.96661e-06
7.29405e-06
6.63839e-06
6.00977e-06
5.4221e-06
4.89218e-06
4.4397e-06
4.08311e-06
3.83673e-06
3.71519e-06
3.7386e-06
3.92854e-06
4.27871e-06
4.72279e-06
5.30288e-06
6.55198e-06
9.69191e-06
1.66398e-05
2.77024e-05
3.99622e-05
4.92491e-05
5.27243e-05
4.98611e-05
4.18653e-05
3.10746e-05
2.1991e-05
2.25501e-05
3.3738e-05
4.81653e-05
5.79763e-05
5.81034e-05
4.98687e-05
3.86482e-05
2.86336e-05
2.08293e-05
1.49104e-05
1.0212e-05
6.76288e-06
4.86931e-06
4.70413e-06
8.19767e-06
7.10985e-06
6.61685e-06
8.01964e-06
1.12074e-05
1.52705e-05
1.96777e-05
2.44417e-05
2.97246e-05
3.50568e-05
3.90611e-05
4.05393e-05
3.97126e-05
3.79521e-05
3.63748e-05
3.51136e-05
3.38945e-05
3.26701e-05
3.16279e-05
3.09516e-05
3.08718e-05
3.15402e-05
3.29289e-05
3.62011e-05
4.20173e-05
4.77295e-05
5.17402e-05
5.49639e-05
5.75525e-05
5.91746e-05
5.9433e-05
5.78053e-05
5.36366e-05
4.52595e-05
3.48432e-05
3.13718e-05
3.66655e-05
4.37612e-05
4.53477e-05
3.25561e-05
6.38328e-06
2.31761e-05
4.16374e-05
4.66506e-05
4.25609e-05
3.55883e-05
2.94446e-05
2.50002e-05
2.18613e-05
1.9516e-05
1.76532e-05
1.61198e-05
1.48325e-05
1.37323e-05
1.27717e-05
1.19112e-05
1.11192e-05
1.0371e-05
9.64871e-06
8.94101e-06
8.24257e-06
7.55382e-06
6.88048e-06
6.23305e-06
5.62578e-06
5.07567e-06
4.60262e-06
4.22538e-06
3.95903e-06
3.81929e-06
3.82738e-06
4.00778e-06
4.36426e-06
4.83763e-06
5.42428e-06
6.58361e-06
9.46001e-06
1.60109e-05
2.70139e-05
3.97977e-05
5.00155e-05
5.45568e-05
5.27064e-05
4.55917e-05
3.56384e-05
2.7378e-05
2.71485e-05
3.69838e-05
5.08516e-05
5.98248e-05
5.87651e-05
4.97446e-05
3.85377e-05
2.90677e-05
2.17817e-05
1.59966e-05
1.11161e-05
7.42056e-06
5.37686e-06
4.91238e-06
9.13109e-06
8.69479e-06
8.80172e-06
1.02075e-05
1.3002e-05
1.67314e-05
2.08652e-05
2.49238e-05
2.84767e-05
3.11371e-05
3.26679e-05
3.32232e-05
3.32751e-05
3.31672e-05
3.29038e-05
3.23849e-05
3.16511e-05
3.08809e-05
3.02873e-05
3.0017e-05
3.02357e-05
3.11903e-05
3.28602e-05
3.59829e-05
4.16757e-05
4.80917e-05
5.28683e-05
5.64072e-05
5.91573e-05
6.0769e-05
6.08107e-05
5.87718e-05
5.38879e-05
4.53228e-05
3.72353e-05
3.65805e-05
4.20152e-05
4.71953e-05
4.58775e-05
2.97221e-05
7.88511e-07
2.83285e-05
4.53414e-05
4.841e-05
4.30725e-05
3.57157e-05
2.96227e-05
2.52937e-05
2.22144e-05
1.98814e-05
1.80132e-05
1.64724e-05
1.51794e-05
1.40749e-05
1.31103e-05
1.22455e-05
1.14482e-05
1.06931e-05
9.96185e-06
9.24274e-06
8.53031e-06
7.8251e-06
7.13311e-06
6.46523e-06
5.83606e-06
5.2629e-06
4.76592e-06
4.36438e-06
4.07436e-06
3.91309e-06
3.904e-06
4.07511e-06
4.43879e-06
4.94536e-06
5.5519e-06
6.63016e-06
9.24165e-06
1.53076e-05
2.60915e-05
3.93344e-05
5.0554e-05
5.63021e-05
5.56253e-05
4.95462e-05
4.05264e-05
3.29661e-05
3.20684e-05
4.06979e-05
5.37574e-05
6.14688e-05
5.89582e-05
4.92053e-05
3.82158e-05
2.94108e-05
2.26578e-05
1.70193e-05
1.1984e-05
8.05287e-06
5.86587e-06
5.10047e-06
5.81683e-06
5.75465e-06
6.24358e-06
7.71435e-06
1.01209e-05
1.31613e-05
1.64965e-05
1.97951e-05
2.27658e-05
2.5213e-05
2.70917e-05
2.84633e-05
2.93864e-05
2.98836e-05
2.9993e-05
2.9808e-05
2.94646e-05
2.91127e-05
2.89099e-05
2.8986e-05
2.94594e-05
3.06214e-05
3.25729e-05
3.56148e-05
4.09151e-05
4.76972e-05
5.33267e-05
5.7235e-05
6.00517e-05
6.16119e-05
6.14503e-05
5.90792e-05
5.38212e-05
4.60737e-05
4.07227e-05
4.20089e-05
4.67595e-05
4.98326e-05
4.5447e-05
2.59201e-05
6.97313e-06
3.43062e-05
4.89664e-05
4.97428e-05
4.32163e-05
3.56434e-05
2.97073e-05
2.55332e-05
2.25251e-05
2.02113e-05
1.83458e-05
1.68059e-05
1.55144e-05
1.44116e-05
1.3448e-05
1.2583e-05
1.17837e-05
1.10244e-05
1.02861e-05
9.55685e-06
8.83092e-06
8.10896e-06
7.39727e-06
6.70711e-06
6.0535e-06
5.45412e-06
4.92948e-06
4.49953e-06
4.1819e-06
3.99582e-06
3.9671e-06
4.12755e-06
4.49784e-06
5.04064e-06
5.68289e-06
6.69416e-06
9.04582e-06
1.45565e-05
2.4928e-05
3.85046e-05
5.0766e-05
5.78625e-05
5.85229e-05
5.36214e-05
4.56169e-05
3.86691e-05
3.7235e-05
4.48517e-05
5.67821e-05
6.27196e-05
5.85378e-05
4.82283e-05
3.77259e-05
2.96739e-05
2.34108e-05
1.7906e-05
1.27525e-05
8.6198e-06
6.31018e-06
5.25926e-06
4.75678e-06
4.94284e-06
5.58564e-06
6.92281e-06
8.9143e-06
1.13735e-05
1.40876e-05
1.68465e-05
1.94604e-05
2.17809e-05
2.37071e-05
2.51899e-05
2.62368e-05
2.69005e-05
2.72567e-05
2.73909e-05
2.73999e-05
2.73945e-05
2.75056e-05
2.78647e-05
2.85595e-05
2.98557e-05
3.20316e-05
3.51012e-05
3.98931e-05
4.65972e-05
5.30101e-05
5.74873e-05
6.03679e-05
6.18351e-05
6.15199e-05
5.89928e-05
5.39312e-05
4.78158e-05
4.50271e-05
4.72516e-05
5.06912e-05
5.15037e-05
4.37958e-05
2.12683e-05
1.52946e-05
4.07647e-05
5.22357e-05
5.05079e-05
4.29686e-05
3.53849e-05
2.97052e-05
2.57147e-05
2.27859e-05
2.04997e-05
1.86472e-05
1.71177e-05
1.58358e-05
1.47411e-05
1.37839e-05
1.29233e-05
1.21259e-05
1.13655e-05
1.06225e-05
9.88452e-06
9.14566e-06
8.40665e-06
7.67406e-06
6.95959e-06
6.27873e-06
5.64965e-06
5.09333e-06
4.6306e-06
4.28103e-06
4.06648e-06
4.01554e-06
4.16354e-06
4.53858e-06
5.1181e-06
5.81206e-06
6.77912e-06
8.8827e-06
1.37959e-05
2.3538e-05
3.72426e-05
5.05289e-05
5.91066e-05
6.1277e-05
5.76987e-05
5.07924e-05
4.44014e-05
4.26042e-05
4.93675e-05
5.97086e-05
6.33002e-05
5.73576e-05
4.68415e-05
3.71439e-05
2.98754e-05
2.40004e-05
1.85875e-05
1.33546e-05
9.07653e-06
6.67935e-06
5.37508e-06
4.37959e-06
4.6934e-06
5.35904e-06
6.52043e-06
8.16714e-06
1.01904e-05
1.24468e-05
1.47809e-05
1.70409e-05
1.90973e-05
2.08628e-05
2.23002e-05
2.34127e-05
2.42295e-05
2.47979e-05
2.51799e-05
2.54546e-05
2.57171e-05
2.60788e-05
2.66651e-05
2.75531e-05
2.89366e-05
3.12274e-05
3.44019e-05
3.87499e-05
4.49825e-05
5.1839e-05
5.71003e-05
6.02537e-05
6.16819e-05
6.13213e-05
5.89195e-05
5.46612e-05
5.05429e-05
4.96954e-05
5.18985e-05
5.36053e-05
5.19722e-05
4.06507e-05
1.68798e-05
2.47346e-05
4.72672e-05
5.48199e-05
5.05841e-05
4.2336e-05
3.4965e-05
2.96229e-05
2.58323e-05
2.29893e-05
2.07413e-05
1.89138e-05
1.74053e-05
1.61415e-05
1.50621e-05
1.41175e-05
1.32664e-05
1.24753e-05
1.17172e-05
1.09722e-05
1.02271e-05
9.47604e-06
8.71966e-06
7.96487e-06
7.22386e-06
6.51263e-06
5.85002e-06
5.25759e-06
4.75719e-06
4.37082e-06
4.12368e-06
4.04782e-06
4.18188e-06
4.55968e-06
5.17391e-06
5.93262e-06
6.88723e-06
8.76293e-06
1.30705e-05
2.19685e-05
3.55029e-05
4.97055e-05
5.98687e-05
6.37321e-05
6.1641e-05
5.59252e-05
5.00796e-05
4.81447e-05
5.40739e-05
6.21604e-05
6.2854e-05
5.53121e-05
4.51429e-05
3.65624e-05
3.0027e-05
2.4396e-05
1.90149e-05
1.37394e-05
9.38644e-06
6.94749e-06
5.43438e-06
4.10039e-06
4.48025e-06
5.13281e-06
6.14863e-06
7.53009e-06
9.21042e-06
1.10896e-05
1.3055e-05
1.49948e-05
1.68128e-05
1.84368e-05
1.98242e-05
2.09628e-05
2.18682e-05
2.25759e-05
2.31351e-05
2.36104e-05
2.40821e-05
2.46432e-05
2.54046e-05
2.64505e-05
2.79045e-05
3.01929e-05
3.34561e-05
3.75419e-05
4.31355e-05
4.99074e-05
5.59032e-05
5.97001e-05
6.13529e-05
6.11566e-05
5.92156e-05
5.61671e-05
5.39063e-05
5.41459e-05
5.55331e-05
5.52542e-05
5.08766e-05
3.59206e-05
1.65514e-05
3.49619e-05
5.32302e-05
5.63698e-05
4.99047e-05
4.13637e-05
3.44175e-05
2.94644e-05
2.58781e-05
2.31277e-05
2.09312e-05
1.91424e-05
1.76662e-05
1.64297e-05
1.53733e-05
1.44479e-05
1.36122e-05
1.28323e-05
1.20806e-05
1.13365e-05
1.05863e-05
9.82382e-06
9.04976e-06
8.27137e-06
7.50136e-06
6.75635e-06
6.05598e-06
5.42259e-06
4.87918e-06
4.45051e-06
4.16598e-06
4.062e-06
4.18086e-06
4.56012e-06
5.20564e-06
6.03697e-06
7.01724e-06
8.69781e-06
1.24249e-05
2.03037e-05
3.32794e-05
4.81541e-05
5.99389e-05
6.56779e-05
6.52704e-05
6.08578e-05
5.56137e-05
5.37731e-05
5.85883e-05
6.3542e-05
6.09838e-05
5.24053e-05
4.33153e-05
3.60713e-05
3.01354e-05
2.45938e-05
1.91788e-05
1.38862e-05
9.53002e-06
7.0981e-06
5.42703e-06
3.88293e-06
4.2872e-06
4.90376e-06
5.79021e-06
6.95444e-06
8.35831e-06
9.93592e-06
1.16069e-05
1.32864e-05
1.48962e-05
1.63746e-05
1.76837e-05
1.88103e-05
1.97615e-05
2.05602e-05
2.12442e-05
2.18663e-05
2.24945e-05
2.32079e-05
2.40992e-05
2.52599e-05
2.67813e-05
2.89951e-05
3.2227e-05
3.62144e-05
4.12653e-05
4.75605e-05
5.3836e-05
5.84592e-05
6.07777e-05