/*--------------------------------*- C++ -*----------------------------------*\
| =========                 |                                                 |
| \\      /  F ield         | OpenFOAM: The Open Source CFD Toolbox           |
|  \\    /   O peration     | Version:  2.1.1                                 |
|   \\  /    A nd           | Web:      www.OpenFOAM.org                      |
|    \\/     M anipulation  |                                                 |
\*---------------------------------------------------------------------------*/
FoamFile
{
    version     2.0;
    format      ascii;
    class       volScalarField;
    location    "0.17";
    object      p;
}
// * * * * * * * * * * * * * * * * * * * * * * * * * * * * * * * * * * * * * //

dimensions      [0 2 -2 0 0 0 0];

internalField   nonuniform List<scalar> 
6820
(
9.45716
-8.38207
-11.4003
-11.5994
-11.7868
-11.7311
-11.6951
-11.7316
-11.8063
-11.9039
-12.016
-12.1377
-12.2667
-12.402
-12.5435
-12.6911
-12.8449
-13.0053
-13.1727
-13.3476
-13.5303
-13.722
-13.9232
-14.135
-14.3587
-14.5958
-14.8483
-15.1183
-15.41
-15.7237
-16.0779
-16.4425
-16.9526
2.77758
-8.1992
-11.0873
-11.3997
-11.6672
-11.7079
-11.7087
-11.7565
-11.833
-11.9276
-12.0358
-12.1538
-12.2796
-12.4124
-12.552
-12.6981
-12.8508
-13.0104
-13.1768
-13.3508
-13.5331
-13.7242
-13.925
-14.1361
-14.359
-14.5951
-14.8463
-15.1146
-15.4033
-15.7136
-16.0563
-16.4127
-16.8376
0.0654858
-6.76594
-10.0634
-10.834
-11.3175
-11.5332
-11.6129
-11.6935
-11.7892
-11.896
-12.0127
-12.1371
-12.2677
-12.404
-12.5458
-12.6933
-12.8467
-13.0064
-13.1727
-13.3463
-13.5278
-13.7176
-13.9163
-14.1259
-14.3467
-14.58
-14.8275
-15.0905
-15.3713
-15.6692
-15.9861
-16.2988
-16.5811
-1.91734
-6.53584
-9.63809
-10.5095
-10.9965
-11.2911
-11.4409
-11.5654
-11.692
-11.8191
-11.9484
-12.0811
-12.2176
-12.3583
-12.5035
-12.6536
-12.8089
-12.9699
-13.137
-13.3106
-13.4916
-13.6802
-13.8775
-14.0843
-14.3012
-14.5295
-14.7706
-15.0249
-15.2928
-15.5719
-15.8571
-16.1285
-16.3449
-3.54982
-6.63308
-9.24269
-10.158
-10.6805
-11.0539
-11.2734
-11.437
-11.5875
-11.7306
-11.8708
-12.0115
-12.154
-12.2988
-12.4468
-12.5988
-12.7552
-12.9165
-13.0831
-13.2556
-13.4347
-13.6209
-13.8147
-14.0169
-14.2279
-14.4489
-14.6801
-14.9216
-15.1726
-15.4296
-15.6852
-15.925
-16.117
-4.7689
-6.81039
-8.9879
-9.9437
-10.485
-10.8852
-11.1392
-11.3251
-11.4911
-11.6463
-11.7952
-11.9422
-12.0892
-12.2375
-12.3878
-12.541
-12.6976
-12.8584
-13.0238
-13.1944
-13.3708
-13.5534
-13.7426
-13.9397
-14.145
-14.3584
-14.5797
-14.8086
-15.0438
-15.2819
-15.5163
-15.7376
-15.9285
-5.71546
-7.09259
-8.86602
-9.78418
-10.3127
-10.7207
-11.0044
-11.2153
-11.3987
-11.5666
-11.7245
-11.8776
-12.029
-12.1801
-12.3322
-12.4862
-12.643
-12.8032
-12.9674
-13.136
-13.3096
-13.4887
-13.6739
-13.8654
-14.0636
-14.2683
-14.4793
-14.696
-14.917
-15.1392
-15.3579
-15.5674
-15.7591
-6.45666
-7.3939
-8.80969
-9.66291
-10.1795
-10.5887
-10.8906
-11.1181
-11.3127
-11.4893
-11.6537
-11.8117
-11.9665
-12.1201
-12.2737
-12.4285
-12.5852
-12.7445
-12.9071
-13.0733
-13.2437
-13.4187
-13.5987
-13.784
-13.9747
-14.1709
-14.372
-14.5774
-14.7857
-14.9945
-15.2009
-15.4017
-15.5938
-7.04343
-7.692
-8.81406
-9.58666
-10.0804
-10.4773
-10.785
-11.0233
-11.2272
-11.4115
-11.5824
-11.7452
-11.9034
-12.0593
-12.2143
-12.3695
-12.5259
-12.6841
-12.8447
-13.0083
-13.1752
-13.3458
-13.5206
-13.6996
-13.883
-14.0705
-14.2618
-14.4561
-14.6524
-14.8491
-15.0444
-15.2371
-15.4271
-7.51356
-7.97121
-8.85556
-9.53909
-10.0034
-10.3839
-10.6917
-10.9372
-11.1476
-11.3375
-11.513
-11.6792
-11.8399
-11.9973
-12.153
-12.3082
-12.4637
-12.6204
-12.7788
-12.9393
-13.1023
-13.2682
-13.4373
-13.6096
-13.7852
-13.9638
-14.1452
-14.3287
-14.5136
-14.6988
-14.8837
-15.0678
-15.2526
-7.89394
-8.2238
-8.92036
-9.51637
-9.9477
-10.3083
-10.61
-10.8574
-11.0712
-11.2646
-11.4434
-11.6124
-11.7751
-11.9337
-12.0899
-12.2448
-12.3994
-12.5543
-12.7101
-12.8673
-13.0262
-13.1871
-13.3502
-13.5156
-13.6833
-13.8531
-14.0246
-14.1975
-14.3712
-14.5452
-14.7192
-14.8935
-15.0698
-8.20416
-8.44737
-8.99753
-9.51155
-9.9074
-10.2458
-10.5376
-10.7837
-10.9988
-11.1942
-11.3753
-11.5462
-11.7101
-11.8693
-12.0255
-12.1796
-12.3327
-12.4855
-12.6383
-12.7918
-12.9462
-13.1018
-13.2586
-13.4169
-13.5764
-13.7371
-13.8987
-14.0609
-14.2233
-14.3858
-14.5483
-14.7113
-14.8764
-8.45853
-8.64196
-9.07891
-9.51929
-9.87937
-10.195
-10.4743
-10.7162
-10.9303
-11.126
-11.3079
-11.4797
-11.6442
-11.8035
-11.9592
-12.1123
-12.2637
-12.414
-12.5637
-12.7132
-12.8629
-13.0128
-13.1632
-13.3141
-13.4653
-13.6168
-13.7684
-13.9199
-14.0709
-14.2215
-14.3718
-14.5222
-14.6739
-8.66757
-8.809
-9.15884
-9.53493
-9.86019
-10.1529
-10.4183
-10.6536
-10.8652
-11.0598
-11.2416
-11.4135
-11.578
-11.737
-11.8917
-12.0434
-12.1926
-12.3401
-12.4863
-12.6316
-12.7762
-12.9202
-13.0639
-13.2071
-13.3499
-13.4921
-13.6335
-13.774
-13.9134
-14.0517
-14.189
-14.3255
-14.4622
-8.8391
-8.95044
-9.23335
-9.55453
-9.84699
-10.1175
-10.3683
-10.5957
-10.8032
-10.9957
-11.1764
-11.3476
-11.5114
-11.6694
-11.8229
-11.9726
-12.1195
-12.2639
-12.4063
-12.5471
-12.6864
-12.8244
-12.9611
-13.0966
-13.2308
-13.3635
-13.4946
-13.624
-13.7516
-13.8772
-14.0009
-14.1229
-14.2435
-8.97896
-9.06835
-9.2998
-9.57483
-9.83723
-10.0867
-10.3227
-10.5414
-10.7438
-10.9332
-11.1119
-11.2818
-11.4444
-11.6011
-11.7529
-11.9005
-12.0446
-12.1857
-12.3241
-12.4601
-12.5939
-12.7255
-12.8552
-12.9827
-13.1081
-13.2313
-13.352
-13.4702
-13.5857
-13.6983
-13.8081
-13.915
-14.019
-9.09154
-9.16466
-9.35648
-9.59322
-9.82866
-10.0585
-10.2804
-10.4898
-10.6865
-10.8721
-11.0484
-11.2163
-11.3773
-11.5322
-11.6819
-11.8271
-11.9682
-12.1056
-12.2398
-12.3708
-12.4989
-12.6242
-12.7466
-12.8661
-12.9827
-13.0962
-13.2065
-13.3134
-13.4167
-13.5163
-13.612
-13.7036
-13.791
-9.18014
-9.24104
-9.40227
-9.60756
-9.81932
-10.0313
-10.2398
-10.4401
-10.6306
-10.8121
-10.9854
-11.151
-11.3099
-11.4627
-11.6101
-11.7525
-11.8904
-12.0241
-12.1538
-12.2797
-12.402
-12.5206
-12.6357
-12.7471
-12.8548
-12.9586
-13.0584
-13.154
-13.2452
-13.3318
-13.4135
-13.4901
-13.561
-9.24724
-9.29886
-9.43644
-9.61618
-9.80752
-10.0036
-10.1998
-10.3913
-10.5757
-10.7528
-10.9229
-11.0859
-11.2425
-11.393
-11.5378
-11.6773
-11.8118
-11.9415
-12.0666
-12.1873
-12.3037
-12.4157
-12.5233
-12.6266
-12.7255
-12.8197
-12.9091
-12.9935
-13.0728
-13.1465
-13.2145
-13.2764
-13.3316
-9.29466
-9.33919
-9.45852
-9.61769
-9.79177
-9.97395
-10.1592
-10.3425
-10.521
-10.6938
-10.8605
-11.0209
-11.175
-11.323
-11.4651
-11.6015
-11.7324
-11.858
-11.9785
-12.0938
-12.2041
-12.3094
-12.4097
-12.5049
-12.5949
-12.6796
-12.7588
-12.8322
-12.8998
-12.9611
-13.0158
-13.0636
-13.1039
-9.32366
-9.36281
-9.46811
-9.61097
-9.77077
-9.94114
-10.1169
-10.2928
-10.466
-10.6348
-10.7983
-10.956
-11.1076
-11.2531
-11.3924
-11.5258
-11.6531
-11.7746
-11.8903
-12.0004
-12.1047
-12.2034
-12.2963
-12.3835
-12.4649
-12.5402
-12.6094
-12.6722
-12.7285
-12.7778
-12.8199
-12.8545
-12.8808
-9.3351
-9.37018
-9.46485
-9.59502
-9.74336
-9.90402
-10.0718
-10.2416
-10.41
-10.5752
-10.7358
-10.891
-11.0402
-11.1831
-11.3197
-11.4499
-11.5736
-11.6909
-11.8019
-11.9066
-12.0049
-12.097
-12.1827
-12.262
-12.3348
-12.4011
-12.4606
-12.5131
-12.5585
-12.5964
-12.6266
-12.6488
-12.6623
-9.32939
-9.3615
-9.44831
-9.56895
-9.70849
-9.86159
-10.0231
-10.188
-10.3527
-10.515
-10.6733
-10.8264
-10.9735
-11.1142
-11.2482
-11.3754
-11.4957
-11.609
-11.7154
-11.8149
-11.9074
-11.993
-12.0717
-12.1434
-12.208
-12.2655
-12.3157
-12.3584
-12.3935
-12.4208
-12.4398
-12.4506
-12.4524
-9.30662
-9.33663
-9.41796
-9.53189
-9.66513
-9.81282
-9.96989
-10.1313
-10.2933
-10.4535
-10.6099
-10.7612
-10.9066
-11.0452
-11.1768
-11.3011
-11.4179
-11.5272
-11.6291
-11.7233
-11.8101
-11.8894
-11.9611
-12.0254
-12.0821
-12.1311
-12.1724
-12.2058
-12.2312
-12.2485
-12.2573
-12.2576
-12.2488
-9.26645
-9.29517
-9.37313
-9.48295
-9.61241
-9.75697
-9.91163
-10.0713
-10.2321
-10.3914
-10.5471
-10.6976
-10.8418
-10.979
-11.1087
-11.2305
-11.3443
-11.45
-11.5476
-11.637
-11.7183
-11.7915
-11.8567
-11.9139
-11.963
-12.004
-12.0369
-12.0616
-12.078
-12.0861
-12.0855
-12.0763
-12.0581
-9.20816
-9.23634
-9.31288
-9.42104
-9.54914
-9.69277
-9.84691
-10.0064
-10.1672
-10.3266
-10.4823
-10.6325
-10.776
-10.912
-11.04
-11.1595
-11.2704
-11.3725
-11.4659
-11.5506
-11.6266
-11.6939
-11.7528
-11.8031
-11.8449
-11.8783
-11.9033
-11.9198
-11.9279
-11.9274
-11.9183
-11.9006
-11.8741
-9.13062
-9.15899
-9.23613
-9.34528
-9.47482
-9.62033
-9.77668
-9.93851
-10.1017
-10.2632
-10.4205
-10.5718
-10.7159
-10.8518
-10.9789
-11.0968
-11.2053
-11.3044
-11.3941
-11.4744
-11.5455
-11.6073
-11.6602
-11.704
-11.7391
-11.7654
-11.7829
-11.7919
-11.7922
-11.784
-11.7671
-11.7418
-11.7077
-9.03209
-9.06141
-9.1411
-9.2537
-9.38706
-9.5366
-9.69701
-9.8627
-10.0294
-10.1939
-10.3537
-10.5068
-10.6519
-10.7881
-10.9146
-11.0312
-11.1377
-11.234
-11.3202
-11.3964
-11.4627
-11.5193
-11.5664
-11.6042
-11.6327
-11.6523
-11.6629
-11.6648
-11.658
-11.6427
-11.6189
-11.5869
-11.5464
-8.91029
-8.94156
-9.02654
-9.14631
-9.28766
-9.4456
-9.61437
-9.78794
-9.9617
-10.1323
-10.297
-10.4539
-10.6017
-10.7393
-10.8663
-10.9824
-11.0874
-11.1813
-11.2644
-11.3368
-11.3987
-11.4503
-11.492
-11.524
-11.5465
-11.5598
-11.5639
-11.5593
-11.546
-11.5241
-11.494
-11.4557
-11.4092
-8.76184
-8.79581
-8.88816
-9.01735
-9.16846
-9.3362
-9.51455
-9.69708
-9.87897
-10.0567
-10.2274
-10.3892
-10.5406
-10.6806
-10.8089
-10.9251
-11.0292
-11.1213
-11.2018
-11.2707
-11.3286
-11.3756
-11.4123
-11.4388
-11.4556
-11.4629
-11.4611
-11.4504
-11.431
-11.4034
-11.3676
-11.324
-11.2728
-8.58278
-8.62187
-8.72741
-8.87378
-9.04303
-9.22879
-9.42408
-9.6217
-9.81651
-10.005
-10.1843
-10.3528
-10.509
-10.6523
-10.7822
-10.8989
-11.0023
-11.0927
-11.1705
-11.2361
-11.29
-11.3325
-11.3642
-11.3855
-11.3967
-11.3984
-11.3907
-11.3742
-11.3491
-11.3158
-11.2745
-11.2257
-11.1694
-8.36593
-8.4096
-8.52869
-8.69164
-8.87775
-9.08098
-9.29391
-9.50834
-9.71852
-9.92057
-10.1116
-10.2895
-10.4531
-10.6019
-10.7355
-10.8541
-10.958
-11.0477
-11.1237
-11.1865
-11.2369
-11.2754
-11.3025
-11.3189
-11.3249
-11.3213
-11.3083
-11.2864
-11.2562
-11.2179
-11.172
-11.1191
-11.0591
-8.10629
-8.16436
-8.31563
-8.51581
-8.73671
-8.97118
-9.21116
-9.44807
-9.67661
-9.89348
-10.0962
-10.2831
-10.4533
-10.6067
-10.743
-10.8629
-10.9666
-11.055
-11.1286
-11.1884
-11.2348
-11.2689
-11.2911
-11.3022
-11.3029
-11.2936
-11.2749
-11.2475
-11.2117
-11.168
-11.1168
-11.0588
-10.994
-7.78209
-7.84254
-8.0135
-8.23979
-8.49054
-8.75906
-9.03376
-9.30291
-9.56009
-9.80151
-10.0244
-10.2274
-10.4099
-10.572
-10.7143
-10.8376
-10.9429
-11.0311
-11.1032
-11.1604
-11.2036
-11.2337
-11.2516
-11.2582
-11.254
-11.2398
-11.2163
-11.1841
-11.1436
-11.0956
-11.0404
-10.9789
-10.9113
-7.40362
-7.519
-7.7749
-8.07166
-8.37268
-8.68083
-8.98735
-9.28172
-9.55945
-9.81784
-10.0546
-10.2687
-10.4597
-10.628
-10.7743
-10.8996
-11.005
-11.0919
-11.1614
-11.2148
-11.2533
-11.2781
-11.2902
-11.2906
-11.2801
-11.2594
-11.2294
-11.1907
-11.1439
-11.0896
-11.0284
-10.961
-10.8877
-6.85925
-6.94845
-7.24161
-7.6055
-7.98658
-8.37737
-8.75734
-9.11273
-9.43991
-9.73696
-10.0028
-10.238
-10.4438
-10.622
-10.7743
-10.9028
-11.0092
-11.0954
-11.1631
-11.2138
-11.249
-11.27
-11.278
-11.2742
-11.2594
-11.2344
-11.2001
-11.1572
-11.1061
-11.0477
-10.9824
-10.9112
-10.8349
-6.3499
-6.67031
-7.13263
-7.54319
-7.9428
-8.35867
-8.76257
-9.14108
-9.4926
-9.81343
-10.1006
-10.3536
-10.5733
-10.7613
-10.9194
-11.05
-11.1556
-11.2384
-11.3006
-11.3444
-11.3717
-11.384
-11.383
-11.37
-11.346
-11.312
-11.2689
-11.2173
-11.1578
-11.0909
-11.0168
-10.9365
-10.8503
-5.03649
-5.35561
-6.12278
-6.8138
-7.43922
-8.03204
-8.56032
-9.024
-9.43349
-9.79269
-10.105
-10.3747
-10.6057
-10.8014
-10.9648
-11.0988
-11.2062
-11.2896
-11.3513
-11.3936
-11.4185
-11.428
-11.4236
-11.4069
-11.3791
-11.3412
-11.294
-11.2382
-11.174
-11.1015
-11.0201
-10.9312
-10.8299
-5.01556
-5.75781
-6.35476
-6.8112
-7.39856
-8.01721
-8.59057
-9.12128
-9.60308
-10.0254
-10.3874
-10.6926
-10.9451
-11.1499
-11.3123
-11.4375
-11.5305
-11.5955
-11.6367
-11.6573
-11.6604
-11.6485
-11.6237
-11.5879
-11.5426
-11.4891
-11.4282
-11.3605
-11.2859
-11.2038
-11.1112
-11.0051
-10.8718
1.24743
-3.35889
-5.13566
-5.97602
-6.96566
-7.82677
-8.51012
-9.09868
-9.60878
-10.0408
-10.4039
-10.7062
-10.9542
-11.1541
-11.3119
-11.433
-11.5224
-11.5843
-11.6227
-11.641
-11.642
-11.6282
-11.6018
-11.5646
-11.5182
-11.4639
-11.4029
-11.336
-11.2642
-11.1873
-11.1082
-11.0215
-10.9394
-17.2431
-16.3023
-15.7353
-15.9123
-17.2153
-20.019
-24.4068
-29.9472
-35.634
-40.2879
-43.0631
-43.4278
-41.1652
-36.4392
-29.9514
-22.9318
-16.5951
-11.5489
-7.80173
-5.10932
-3.22652
-1.96265
-1.20276
-0.916038
-1.13837
-1.96483
-3.40272
-5.44305
-8.10813
-11.5692
-16.1894
-22.4655
-30.8169
-41.1239
-52.392
-63.1676
-72.5475
-80.6097
-85.8278
-85.1525
-77.2016
-64.7079
-51.8375
-41.0014
-32.6409
-26.2575
-21.2564
-17.2197
-13.8955
-11.1324
-8.83081
-6.91811
-5.3372
-4.04121
-2.9903
-2.14958
-1.48789
-0.977076
-0.591771
-0.309249
-0.10943
0.0251342
0.109322
0.155574
0.17409
0.173061
0.158961
0.136639
0.109478
0.0793097
0.046052
0.00737579
-0.0418729
-0.110451
-0.210321
-0.357173
-0.578341
-0.939464
-1.617
-3.03877
-5.99619
-11.3813
-19.3961
-28.7916
-36.9354
-40.9053
-39.3309
-32.418
-22.7139
-13.422
-6.74288
-2.99413
-1.25415
-0.548538
-0.250809
-0.139733
-0.0380389
-0.085562
0.0763765
-0.221873
-17.0526
-16.3231
-15.8432
-15.9701
-17.2295
-19.9715
-24.0986
-29.1151
-34.1931
-38.3297
-40.6293
-40.5203
-37.8961
-33.1529
-27.1474
-20.9378
-15.3591
-10.8107
-7.31421
-4.71061
-2.82212
-1.49819
-0.636472
-0.208299
-0.25891
-0.902446
-2.17219
-4.1031
-6.74457
-10.2901
-15.1036
-21.6464
-30.2484
-40.6814
-51.9348
-62.6917
-72.2136
-80.4603
-85.5912
-84.7511
-76.5767
-63.9585
-51.1166
-40.4252
-32.2425
-26.0166
-21.1388
-17.1956
-13.9427
-11.234
-8.97308
-7.08938
-5.5276
-4.24249
-3.19566
-2.35351
-1.68603
-1.16615
-0.769375
-0.473758
-0.259859
-0.110746
-0.0119586
0.0486031
0.0808522
0.0927231
0.0904322
0.0785897
0.0603167
0.0371861
0.00892625
-0.0268895
-0.0754059
-0.145324
-0.248719
-0.401231
-0.628879
-0.99201
-1.65161
-3.00198
-5.77934
-10.8253
-18.3484
-27.1906
-34.882
-38.6644
-37.2598
-30.8063
-21.6789
-12.9084
-6.58293
-3.00331
-1.30953
-0.598042
-0.28674
-0.164385
-0.0586669
-0.095852
0.061854
-0.210638
-16.717
-16.2421
-15.9354
-16.2779
-17.6176
-20.1827
-23.9233
-28.4086
-32.8203
-36.187
-37.7425
-37.0755
-34.261
-29.82
-24.5291
-19.1495
-14.2494
-10.1348
-6.86376
-4.34702
-2.45889
-1.08261
-0.12822
0.432581
0.543977
0.0835755
-1.0166
-2.83175
-5.44511
-9.07085
-14.0654
-20.8408
-29.6323
-40.119
-51.3041
-62.0221
-71.6551
-79.9801
-84.9126
-83.8613
-75.5033
-62.8678
-50.176
-39.7224
-31.7715
-25.7302
-20.9894
-17.1479
-13.972
-11.3219
-9.10495
-7.25296
-5.71257
-4.44024
-3.39908
-2.55684
-1.8847
-1.35662
-0.949041
-0.640795
-0.413095
-0.249554
-0.136158
-0.0611766
-0.0150178
0.00996722
0.0197114
0.0185657
0.00939532
-0.0064718
-0.0294855
-0.0621716
-0.109662
-0.180559
-0.286967
-0.444477
-0.677976
-1.043
-1.6853
-2.96416
-5.55732
-10.2515
-17.2596
-25.5198
-32.7362
-36.3243
-35.0902
-29.1133
-20.5917
-12.3736
-6.42216
-3.01902
-1.37152
-0.652172
-0.32549
-0.190522
-0.0803475
-0.106558
0.0471045
-0.198921
-16.4801
-16.2768
-16.1793
-16.6131
-17.8959
-20.2177
-23.4894
-27.2453
-30.7754
-33.2979
-34.2088
-33.2671
-30.6394
-26.7773
-22.248
-17.5951
-13.2597
-9.51566
-6.45025
-4.02144
-2.1416
-0.722467
0.312708
0.992523
1.25042
0.965237
0.0286554
-1.67015
-4.24984
-7.94219
-13.0889
-20.0445
-28.9519
-39.4185
-50.4887
-61.145
-70.8293
-79.114
-83.7649
-82.4545
-73.9685
-61.4336
-49.0176
-38.8936
-31.2262
-25.3956
-20.8058
-17.0746
-13.9819
-11.3952
-9.22585
-7.40844
-5.8918
-4.63423
-3.60041
-2.75947
-2.08382
-1.54846
-1.13077
-0.810378
-0.569174
-0.391337
-0.263327
-0.173819
-0.113571
-0.0752462
-0.0532128
-0.043394
-0.0431898
-0.0515165
-0.068995
-0.0982357
-0.144337
-0.215769
-0.324625
-0.486451
-0.725003
-1.09111
-1.71545
-2.9217
-5.32686
-9.65928
-16.1349
-23.7937
-30.5224
-33.9154
-32.854
-27.3678
-19.4749
-11.8316
-6.26722
-3.04326
-1.44051
-0.711167
-0.367448
-0.218574
-0.103277
-0.117692
0.0322199
-0.186682
-16.274
-16.2745
-16.3693
-16.9003
-18.0849
-20.0387
-22.6528
-25.5807
-28.2605
-30.0966
-30.6441
-29.7336
-27.4749
-24.189
-20.2983
-16.2351
-12.3709
-8.95244
-6.07859
-3.73903
-1.87568
-0.424324
0.677868
1.45907
1.84494
1.71877
0.935032
-0.650264
-3.1898
-6.9282
-12.1875
-19.262
-28.2093
-38.5859
-49.4968
-60.0536
-69.7075
-77.8292
-82.13
-80.5095
-71.9571
-59.6513
-47.6441
-37.9425
-30.609
-25.0141
-20.5886
-16.9764
-13.973
-11.4542
-9.33596
-7.55595
-6.06539
-4.82454
-3.79973
-2.9615
-2.28348
-1.74177
-1.31466
-0.98261
-0.728192
-0.53618
-0.39354
-0.289378
-0.214837
-0.162923
-0.128332
-0.107276
-0.0974218
-0.0979204
-0.109555
-0.135014
-0.17935
-0.250861
-0.361558
-0.526919
-0.769614
-1.13589
-1.74154
-2.87437
-5.08989
-9.05632
-14.9911
-22.0386
-28.2725
-31.4685
-30.5797
-25.5933
-18.3459
-11.2938
-6.12392
-3.07892
-1.51839
-0.776696
-0.414004
-0.249527
-0.128011
-0.129544
0.0171281
-0.174062
-16.1158
-16.2554
-16.4872
-17.0476
-18.0919
-19.6874
-21.7474
-24.0001
-26.0241
-27.3715
-27.6914
-26.8291
-24.8549
-22.0076
-18.6177
-15.0364
-11.5739
-8.44518
-5.75094
-3.50228
-1.66435
-0.192636
0.961401
1.82317
2.318
2.32752
1.68016
0.201644
-2.29198
-6.05275
-11.3786
-18.5038
-27.4106
-37.626
-48.3289
-58.734
-68.2628
-76.1003
-79.9879
-78.0222
-69.4748
-57.5345
-46.0692
-36.8773
-29.9232
-24.5864
-20.338
-16.8531
-13.9451
-11.4988
-9.43527
-7.69549
-6.23335
-5.01119
-3.99707
-3.16298
-2.48377
-1.93663
-1.50082
-1.15759
-0.890252
-0.68418
-0.526876
-0.407915
-0.318858
-0.253083
-0.205634
-0.17303
-0.153212
-0.145564
-0.151023
-0.172341
-0.214514
-0.28563
-0.397535
-0.565612
-0.811514
-1.17719
-1.76412
-2.82465
-4.85261
-8.45481
-13.8481
-20.2818
-26.0185
-29.0175
-28.3009
-23.8188
-17.2265
-10.7732
-5.99825
-3.12804
-1.60601
-0.849486
-0.465885
-0.283961
-0.154897
-0.14229
0.00181674
-0.161159
-15.9653
-16.1808
-16.4857
-17.0422
-17.9618
-19.2786
-20.9119
-22.6467
-24.1616
-25.1114
-25.2257
-24.3819
-22.623
-20.1257
-17.1486
-13.9755
-10.8622
-7.99408
-5.46922
-3.31343
-1.51022
-0.0308572
1.15911
2.07885
2.66152
2.78154
2.25076
0.869911
-1.57163
-5.3278
-10.6684
-17.7704
-26.5537
-36.5375
-46.9811
-57.1692
-66.4693
-73.9074
-77.3252
-74.9999
-66.5413
-55.1087
-44.3142
-35.7099
-29.1737
-24.1146
-20.0547
-16.7053
-13.8986
-11.5294
-9.52397
-7.82722
-6.39582
-5.19433
-4.19259
-3.36404
-2.68483
-2.13321
-1.6894
-1.33548
-1.05549
-0.835453
-0.663429
-0.529497
-0.425668
-0.345724
-0.285088
-0.240599
-0.210482
-0.194347
-0.193272
-0.210064
-0.249647
-0.31987
-0.432325
-0.60225
-0.850362
-1.21461
-1.78311
-2.77388
-4.61976
-7.86528
-12.7243
-18.5499
-23.793
-26.5975
-26.0515
-22.073
-16.1379
-10.2825
-5.89553
-3.19239
-1.70426
-0.930495
-0.524089
-0.322715
-0.184425
-0.156171
-0.0137737
-0.148094
-15.8124
-16.0703
-16.4124
-16.9459
-17.7446
-18.8209
-20.1025
-21.4203
-22.5288
-23.1657
-23.1219
-22.2948
-20.709
-18.4984
-15.8664
-13.0408
-10.2318
-7.59848
-5.23391
-3.17321
-1.41413
0.0595855
1.26933
2.22436
2.87139
3.07728
2.64307
1.35082
-1.03014
-4.75094
-10.0503
-17.0533
-25.6328
-35.3189
-45.4484
-55.3431
-64.306
-71.2388
-74.1394
-71.465
-63.1948
-52.4155
-42.4086
-34.4557
-28.3673
-23.6012
-19.7402
-16.5337
-13.8342
-11.5463
-9.60233
-7.95133
-6.55298
-5.37413
-4.38645
-3.56489
-2.88685
-2.33169
-1.88058
-1.51645
-1.22408
-0.990146
-0.803315
-0.654202
-0.535306
-0.440848
-0.366656
-0.309904
-0.269114
-0.244118
-0.236129
-0.24799
-0.284538
-0.353353
-0.465687
-0.636557
-0.885835
-1.24781
-1.79836
-2.723
-4.39529
-7.29749
-11.6377
-16.8696
-21.6295
-24.2439
-23.866
-20.386
-15.1018
-9.83361
-5.82022
-3.27308
-1.81354
-1.02022
-0.589198
-0.366289
-0.216905
-0.171366
-0.0297098
-0.134984
-15.6496
-15.9242
-16.2731
-16.7653
-17.4475
-18.3196
-19.3175
-20.3064
-21.0972
-21.4883
-21.317
-20.5018
-19.058
-17.0866
-14.7461
-12.2185
-9.67654
-7.25647
-5.04461
-3.08141
-1.37558
0.0791135
1.2926
2.26216
2.94885
3.21705
2.86136
1.65079
-0.657865
-4.30914
-9.51006
-16.3404
-24.6419
-33.9691
-43.7244
-53.2401
-61.7573
-68.0887
-70.439
-67.4572
-59.4934
-49.5104
-40.3888
-33.1327
-27.5118
-23.05
-19.3963
-16.3398
-13.7526
-11.55
-9.67076
-8.06816
-6.7051
-5.55084
-4.5789
-3.76577
-3.09009
-2.53234
-2.07464
-1.70075
-1.39622
-1.14843
-0.946666
-0.782115
-0.647809
-0.538443
-0.450279
-0.380846
-0.328974
-0.294715
-0.279404
-0.285903
-0.318949
-0.385826
-0.497363
-0.668256
-0.917614
-1.27645
-1.80971
-2.67287
-4.18298
-6.76083
-10.6058
-15.2668
-19.5601
-21.991
-21.7785
-18.7866
-14.1388
-9.43691
-5.77556
-3.37062
-1.934
-1.11905
-0.661724
-0.415168
-0.252635
-0.188033
-0.046079
-0.121919
-15.4721
-15.7468
-16.0841
-16.5267
-17.1016
-17.7998
-18.5648
-19.289
-19.8265
-20.0231
-19.754
-18.9537
-17.6307
-15.8608
-13.7677
-11.4974
-9.19142
-6.96602
-4.90016
-3.03672
-1.39259
0.0301788
1.232
2.19896
2.90063
3.20837
2.91593
1.78374
-0.437421
-3.9826
-9.02866
-15.618
-23.5752
-32.4856
-41.8003
-50.846
-58.8129
-64.4598
-66.2483
-63.0375
-55.5177
-46.4619
-38.2957
-31.7605
-26.6158
-22.4652
-19.0257
-16.1249
-13.6548
-11.5413
-9.72976
-8.17811
-6.85255
-5.72481
-4.7703
-3.96701
-3.2949
-2.7355
-2.27187
-1.88867
-1.57219
-1.31053
-1.09364
-0.913339
-0.763217
-0.638489
-0.535886
-0.453299
-0.389892
-0.345931
-0.322863
-0.323554
-0.352612
-0.417011
-0.527077
-0.697064
-0.945383
-1.30019
-1.81688
-2.62397
-3.98575
-6.26336
-9.64422
-13.7655
-17.6148
-19.873
-19.8213
-17.3025
-13.2669
-9.10046
-5.76331
-3.48495
-2.06553
-1.22706
-0.741824
-0.46946
-0.291694
-0.206234
-0.0629716
-0.108946
-15.2803
-15.5431
-15.8557
-16.2432
-16.7182
-17.2673
-17.8414
-18.3544
-18.6933
-18.7397
-18.3969
-17.6132
-16.3931
-14.7943
-12.9134
-10.867
-8.77113
-6.72452
-4.79864
-3.03696
-1.46209
-0.0831189
1.09262
2.04301
2.73784
3.06332
2.82099
1.76778
-0.34741
-3.74865
-8.58611
-14.8732
-22.4272
-30.8642
-39.6669
-48.1504
-55.4717
-60.3784
-61.6156
-58.2935
-51.3694
-43.3472
-36.1721
-30.3592
-25.6888
-21.8519
-18.6314
-15.8912
-13.5422
-11.521
-9.77997
-8.2817
-6.99579
-5.89646
-4.96104
-4.16905
-3.50168
-2.94156
-2.47269
-2.08056
-1.75228
-1.47669
-1.24443
-1.04799
-0.881573
-0.740957
-0.623379
-0.527112
-0.45167
-0.39753
-0.366244
-0.360657
-0.38523
-0.446598
-0.55453
-0.7227
-0.968839
-1.31867
-1.81945
-2.57624
-3.80536
-5.81111
-8.76585
-12.386
-15.8203
-17.919
-18.024
-15.9578
-12.5009
-8.82916
-5.78371
-3.61557
-2.20795
-1.34422
-0.829452
-0.529061
-0.334038
-0.225946
-0.0804731
-0.0960462
-15.0732
-15.3164
-15.5968
-15.9276
-16.3123
-16.7348
-17.1526
-17.4966
-17.6789
-17.6087
-17.2115
-16.447
-15.3172
-13.8659
-12.1686
-10.3185
-8.41077
-6.52909
-4.73761
-3.07915
-1.58007
-0.255229
0.881436
1.80332
2.47477
2.79814
2.59333
1.62186
-0.366359
-3.5856
-8.1644
-14.0948
-21.1928
-29.1
-37.3162
-45.1498
-51.7453
-55.8991
-56.6252
-53.3437
-47.1674
-40.2468
-34.0591
-28.9477
-24.7405
-21.2158
-18.2169
-15.6408
-13.4162
-11.4902
-9.82216
-8.37955
-7.13537
-6.06632
-5.15166
-4.3724
-3.71097
-3.15104
-2.67757
-2.27688
-1.9369
-1.64723
-1.39927
-1.1862
-1.00292
-0.845805
-0.712637
-0.602097
-0.514065
-0.449232
-0.409237
-0.396887
-0.416465
-0.474249
-0.579399
-0.744877
-0.987692
-1.33153
-1.81692
-2.52915
-3.64224
-5.40768
-7.98004
-11.1447
-14.1985
-16.1541
-16.4112
-14.7714
-11.8497
-8.62435
-5.83568
-3.76189
-2.36109
-1.47032
-0.924258
-0.593567
-0.37939
-0.247024
-0.0986409
-0.0831347
-14.8535
-15.072
-15.3158
-15.5906
-15.8938
-16.2084
-16.4979
-16.7068
-16.7669
-16.608
-16.173
-15.4302
-14.3806
-13.0576
-11.5205
-9.84376
-8.10542
-6.37649
-4.71411
-3.15965
-1.74167
-0.479576
0.606913
1.48991
2.12707
2.4325
2.25204
1.36374
-0.476308
-3.47578
-7.74908
-13.274
-19.8669
-27.1874
-34.7444
-41.8516
-47.6643
-51.0956
-51.404
-48.339
-43.0398
-37.2362
-31.9926
-27.5435
-23.7806
-20.5629
-17.7862
-15.3764
-13.2784
-11.45
-9.85722
-8.47241
-7.27195
-6.23503
-5.34277
-4.57769
-3.92339
-3.36457
-2.8871
-2.47817
-2.12651
-1.82252
-1.55842
-1.32814
-1.12731
-0.952979
-0.803508
-0.678032
-0.576798
-0.50071
-0.451489
-0.431876
-0.445947
-0.499594
-0.601334
-0.763299
-1.00167
-1.33844
-1.8087
-2.48168
-3.49537
-5.05373
-7.29166
-10.0522
-12.7655
-14.5972
-15.0012
-13.7548
-11.3161
-8.4838
-5.9174
-3.92352
-2.52497
-1.60509
-1.02571
-0.662416
-0.427313
-0.269206
-0.117489
-0.0700579
-14.6223
-14.8132
-15.019
-15.2402
-15.471
-15.6943
-15.8791
-15.9807
-15.9457
-15.7203
-15.2603
-14.5415
-13.5642
-12.3541
-10.9579
-9.43534
-7.85041
-6.26332
-4.72484
-3.27432
-1.94143
-0.748867
0.278894
1.11419
1.71023
1.98787
1.819
1.01044
-0.665223
-3.40924
-7.33141
-12.404
-18.4447
-25.124
-31.9579
-38.2832
-43.2907
-46.0762
-46.1208
-43.4536
-39.1093
-34.3781
-30.0012
-26.1616
-22.8186
-19.8998
-17.3436
-15.1006
-13.1308
-11.4017
-9.88616
-8.56113
-7.40631
-6.40333
-5.53514
-4.78568
-4.1397
-3.5829
-3.10202
-2.68509
-2.32167
-2.00303
-1.72221
-1.47399
-1.2548
-1.06241
-0.895812
-0.754649
-0.639532
-0.551584
-0.49259
-0.465204
-0.473258
-0.522226
-0.619956
-0.777653
-1.01054
-1.3391
-1.79419
-2.43241
-3.36234
-4.7467
-6.70025
-9.1121
-11.5296
-13.2589
-13.802
-12.9099
-10.8955
-8.40261
-6.0271
-4.1007
-2.6999
-1.74824
-1.13312
-0.734845
-0.477197
-0.292116
-0.136963
-0.0566093
-14.3828
-14.5448
-14.7126
-14.8838
-15.0507
-15.197
-15.2964
-15.3129
-15.2048
-14.9305
-14.4563
-13.7635
-12.8522
-11.7425
-10.4712
-9.08653
-7.64108
-6.18598
-4.76617
-3.41868
-2.17343
-1.05545
-0.0923582
0.688421
1.23873
1.48453
1.31801
0.580556
-0.925826
-3.38811
-6.91631
-11.4886
-16.93
-22.9195
-28.986
-34.5065
-38.7379
-41.0044
-40.9818
-38.8644
-35.4758
-31.7151
-28.1043
-24.8142
-21.8638
-19.233
-16.8934
-14.8163
-12.9752
-11.3468
-9.91012
-8.64667
-7.53934
-6.5721
-5.72965
-4.99728
-4.36084
-3.80695
-3.32319
-2.89843
-2.52309
-2.18931
-1.89103
-1.62398
-1.38545
-1.17401
-0.989335
-0.831631
-0.701877
-0.601412
-0.532074
-0.496399
-0.497936
-0.541705
-0.634856
-0.787606
-1.01406
-1.33328
-1.77281
-2.37969
-3.23953
-4.48087
-6.19948
-8.32
-10.4894
-12.1383
-12.8096
-12.2272
-10.5773
-8.37494
-6.16408
-4.29458
-2.88655
-1.89951
-1.2457
-0.810013
-0.528341
-0.315286
-0.156937
-0.0425517
-14.137
-14.27
-14.4013
-14.5267
-14.6378
-14.7196
-14.7497
-14.6994
-14.5358
-14.2269
-13.747
-13.0816
-12.2311
-11.2114
-10.0518
-8.79112
-7.47298
-6.14079
-4.83428
-3.58802
-2.43148
-1.39119
-0.495995
0.225642
0.727039
0.940127
0.771936
0.0953074
-1.25013
-3.42449
-6.53151
-10.5615
-15.3583
-20.6195
-25.9005
-30.6366
-34.1921
-36.1122
-36.2163
-34.7195
-32.1999
-29.2675
-26.3131
-23.5116
-20.9247
-18.5686
-16.4398
-14.5264
-12.8138
-11.2867
-9.93032
-8.73011
-7.67205
-6.74234
-5.92733
-5.21356
-4.5879
-4.03781
-3.55167
-3.11917
-2.73158
-2.382
-2.06536
-1.77838
-1.51932
-1.28767
-1.08382
-0.9086
-0.763368
-0.64968
-0.569402
-0.524922
-0.519465
-0.557549
-0.6456
-0.7928
-1.012
-1.32082
-1.74413
-2.32188
-3.12257
-4.24789
-5.77722
-7.66204
-9.63119
-11.2198
-12.005
-11.6873
-10.3481
-8.39626
-6.32956
-4.50731
-3.08593
-2.05876
-1.36253
-0.887045
-0.579989
-0.338171
-0.177201
-0.027639
-13.8878
-13.9927
-14.0896
-14.1737
-14.2365
-14.2646
-14.239
-14.1365
-13.9316
-13.5994
-13.1203
-12.4835
-11.6896
-10.7512
-9.69198
-8.54346
-7.34179
-6.12402
-4.9253
-3.77761
-2.70955
-1.74828
-0.922674
-0.262162
0.189021
0.369739
0.199535
-0.424202
-1.6254
-3.52943
-6.22147
-9.69794
-13.8292
-18.3491
-22.8633
-26.8911
-29.9321
-31.682
-32.0206
-31.0981
-29.2945
-27.035
-24.6326
-22.2621
-20.0091
-17.9125
-15.9869
-14.2338
-12.6486
-11.2232
-9.94809
-8.81261
-7.80556
-6.9152
-6.12938
-5.4358
-4.82219
-4.27679
-3.78872
-3.34845
-2.94816
-2.58192
-2.24575
-1.93749
-1.6565
-1.40326
-1.17895
-0.985109
-0.823469
-0.695796
-0.603963
-0.550169
-0.537271
-0.569234
-0.651719
-0.79285
-1.00413
-1.30161
-1.70784
-2.25755
-3.00695
-4.03777
-5.41668
-7.11548
-8.927
-10.4722
-11.3575
-11.2658
-10.1954
-8.46544
-6.52701
-4.74205
-3.29951
-2.22618
-1.48293
-0.965078
-0.631358
-0.360165
-0.197474
-0.0116232
-13.6373
-13.7154
-13.7807
-13.8281
-13.8497
-13.8333
-13.7632
-13.6207
-13.3858
-13.0393
-12.5664
-11.959
-11.2179
-10.3535
-9.38496
-8.33814
-7.24322
-6.13188
-5.0352
-3.98261
-3.00143
-2.11882
-1.36292
-0.763396
-0.361699
-0.21212
-0.383484
-0.959367
-2.03439
-3.70079
-6.01946
-8.98311
-12.4856
-16.3084
-20.1292
-23.5671
-26.2386
-27.9092
-28.4642
-27.9874
-26.7313
-25.0053
-23.0644
-21.0724
-19.1236
-17.27
-15.5386
-13.9414
-12.4817
-11.1579
-9.96482
-8.89547
-7.94115
-7.09198
-6.3372
-5.66546
-5.06527
-4.52548
-4.03588
-3.58771
-3.17404
-2.79002
-2.43287
-2.10169
-1.79706
-1.5206
-1.27436
-1.06062
-0.88154
-0.739067
-0.63505
-0.571455
-0.550715
-0.576188
-0.652725
-0.787362
-0.990207
-1.27559
-1.6639
-2.18579
-2.88879
-3.84052
-5.09879
-6.65153
-8.33973
-9.85523
-10.8314
-10.9404
-10.1127
-8.58563
-6.76195
-5.00293
-3.52928
-2.4021
-1.60649
-1.04325
-0.681618
-0.380589
-0.217403
0.00575458
-13.3883
-13.4414
-13.4781
-13.4933
-13.4799
-13.4271
-13.3219
-13.1492
-12.8934
-12.5397
-12.0769
-11.4992
-10.8076
-10.0109
-9.12468
-8.17039
-7.17336
-6.16083
-5.1603
-4.19868
-3.30182
-2.49623
-1.80875
-1.26857
-0.914062
-0.793167
-0.964224
-1.49533
-2.45928
-3.92239
-5.92441
-8.45187
-11.416
-14.6428
-17.8815
-20.8363
-23.205
-24.7913
-25.4806
-25.3152
-24.467
-23.1635
-21.6084
-19.9471
-18.2733
-16.6455
-15.0984
-13.6518
-12.3153
-11.0924
-9.98197
-8.98003
-8.08017
-7.27417
-6.5524
-5.90432
-5.319
-4.78579
-4.29502
-3.83866
-3.41071
-3.00748
-2.62755
-2.27144
-1.94113
-1.63948
-1.3696
-1.13452
-0.936843
-0.778699
-0.661863
-0.588011
-0.559088
-0.577786
-0.648086
-0.775905
-0.969922
-1.24269
-1.61238
-2.1062
-2.7654
-3.64787
-4.80598
-6.24102
-7.83271
-9.33086
-10.398
-10.6983
-10.1006
-8.76361
-7.04171
-5.29528
-3.77821
-2.5871
-1.73285
-1.12065
-0.729833
-0.398655
-0.236575
0.0248045
-13.1423
-13.1725
-13.1836
-13.171
-13.1282
-13.0459
-12.9134
-12.7185
-12.4491
-12.0937
-11.6442
-11.0962
-10.4512
-9.71658
-8.90532
-8.03535
-7.12807