/*--------------------------------*- C++ -*----------------------------------*\
| =========                 |                                                 |
| \\      /  F ield         | OpenFOAM: The Open Source CFD Toolbox           |
|  \\    /   O peration     | Version:  2.1.1                                 |
|   \\  /    A nd           | Web:      www.OpenFOAM.org                      |
|    \\/     M anipulation  |                                                 |
\*---------------------------------------------------------------------------*/
FoamFile
{
    version     2.0;
    format      ascii;
    class       surfaceScalarField;
    location    "0.17";
    object      phi;
}
// * * * * * * * * * * * * * * * * * * * * * * * * * * * * * * * * * * * * * //

dimensions      [0 3 -1 0 0 0 0];

internalField   nonuniform List<scalar> 
13452
(
4.6003e-05
2.24842e-05
2.96769e-05
1.63262e-05
2.12126e-05
8.46432e-06
1.73251e-05
3.88744e-06
1.56986e-05
1.62651e-06
1.49084e-05
7.90243e-07
1.44174e-05
4.90914e-07
1.4049e-05
3.68476e-07
1.3743e-05
3.05941e-07
1.34844e-05
2.58632e-07
1.32688e-05
2.15629e-07
1.30925e-05
1.76226e-07
1.29518e-05
1.40783e-07
1.28424e-05
1.09317e-07
1.2761e-05
8.14339e-08
1.27045e-05
5.65049e-08
1.26706e-05
3.39027e-08
1.26578e-05
1.27601e-08
1.26648e-05
-6.98873e-09
1.26905e-05
-2.56782e-08
1.27347e-05
-4.41713e-08
1.27971e-05
-6.24206e-08
1.28779e-05
-8.07766e-08
1.29777e-05
-9.98467e-08
1.30975e-05
-1.19804e-07
1.32388e-05
-1.41267e-07
1.3404e-05
-1.65183e-07
1.35958e-05
-1.91861e-07
1.38227e-05
-2.26906e-07
1.40883e-05
-2.65551e-07
1.44375e-05
-3.49231e-07
1.48602e-05
-4.22691e-07
-8.73385e-07
1.57336e-05
7.49164e-05
1.80118e-05
7.04281e-05
2.08145e-05
6.33581e-05
1.55343e-05
5.67285e-05
1.05171e-05
5.16407e-05
6.71428e-06
4.80171e-05
4.41386e-06
4.54317e-05
3.07626e-06
4.35429e-05
2.25735e-06
4.21177e-05
1.73108e-06
4.10069e-05
1.36949e-06
4.01184e-05
1.10411e-06
3.93948e-05
8.99836e-07
3.87986e-05
7.3693e-07
3.83046e-05
6.03289e-07
3.78951e-05
4.90971e-07
3.75572e-05
3.94449e-07
3.72813e-05
3.09739e-07
3.70603e-05
2.33815e-07
3.68886e-05
1.64722e-07
3.67622e-05
1.00678e-07
3.66782e-05
3.98214e-08
3.66346e-05
-1.87804e-08
3.66292e-05
-7.53883e-08
3.66611e-05
-1.31787e-07
3.67299e-05
-1.88562e-07
3.68359e-05
-2.47255e-07
3.69801e-05
-3.09392e-07
3.71649e-05
-3.76705e-07
3.7394e-05
-4.56009e-07
3.76771e-05
-5.48592e-07
3.80201e-05
-6.92236e-07
3.84817e-05
-8.84339e-07
-1.27357e-06
3.88819e-05
7.8522e-05
1.19463e-05
8.23415e-05
1.6995e-05
8.30128e-05
1.4863e-05
8.15192e-05
1.20107e-05
7.90257e-05
9.20773e-06
7.63746e-05
7.06503e-06
7.38962e-05
5.55467e-06
7.16931e-05
4.46037e-06
6.97785e-05
3.64569e-06
6.81279e-05
3.02013e-06
6.67082e-05
2.52378e-06
6.54879e-05
2.12014e-06
6.44391e-05
1.78574e-06
6.3538e-05
1.50435e-06
6.27649e-05
1.26411e-06
6.21032e-05
1.05613e-06
6.15394e-05
8.73573e-07
6.10621e-05
7.1108e-07
6.06623e-05
5.64525e-07
6.03325e-05
4.30532e-07
6.00662e-05
3.06116e-07
5.98582e-05
1.89192e-07
5.97049e-05
7.7865e-08
5.96038e-05
-3.06418e-08
5.95534e-05
-1.38192e-07
5.95522e-05
-2.46046e-07
5.9599e-05
-3.56195e-07
5.9694e-05
-4.71687e-07
5.98367e-05
-5.98714e-07
6.00301e-05
-7.42007e-07
6.02608e-05
-9.229e-07
6.05248e-05
-1.14832e-06
-1.44376e-06
6.0695e-05
7.81478e-05
8.32519e-06
8.19266e-05
1.32162e-05
8.46267e-05
1.21628e-05
8.62571e-05
1.03803e-05
8.69487e-05
8.51621e-06
8.7055e-05
6.95873e-06
8.68186e-05
5.79099e-06
8.63818e-05
4.89718e-06
8.58358e-05
4.19171e-06
8.52361e-05
3.61979e-06
8.46173e-05
3.14261e-06
8.4002e-05
2.73547e-06
8.34057e-05
2.38204e-06
8.28392e-05
2.07079e-06
8.23096e-05
1.79378e-06
8.18208e-05
1.54492e-06
8.13751e-05
1.31924e-06
8.09736e-05
1.11259e-06
8.06165e-05
9.21622e-07
8.03036e-05
7.43453e-07
8.00342e-05
5.75487e-07
7.98078e-05
4.15594e-07
7.96238e-05
2.61925e-07
7.94807e-05
1.12433e-07
7.93772e-05
-3.47425e-08
7.93135e-05
-1.82266e-07
7.9289e-05
-3.31738e-07
7.93037e-05
-4.86409e-07
7.93558e-05
-6.50752e-07
7.94427e-05
-8.28939e-07
7.95492e-05
-1.02944e-06
7.96559e-05
-1.25503e-06
-1.48418e-06
7.96964e-05
7.8993e-05
5.98807e-06
8.15962e-05
1.0613e-05
8.35276e-05
1.02314e-05
8.49767e-05
8.93123e-06
8.6001e-05
7.49183e-06
8.67499e-05
6.2099e-06
8.73262e-05
5.21469e-06
8.77785e-05
4.44489e-06
8.81386e-05
3.83155e-06
8.84281e-05
3.33029e-06
8.86616e-05
2.90917e-06
8.88504e-05
2.54665e-06
8.90032e-05
2.2292e-06
8.91266e-05
1.94744e-06
8.92265e-05
1.69381e-06
8.93089e-05
1.46253e-06
8.93789e-05
1.24929e-06
8.94408e-05
1.05063e-06
8.94987e-05
8.63744e-07
8.95559e-05
6.86278e-07
8.96153e-05
5.16134e-07
8.96793e-05
3.51568e-07
8.97502e-05
1.90984e-07
8.98292e-05
3.34393e-08
8.99171e-05
-1.2265e-07
9.00142e-05
-2.7938e-07
9.01213e-05
-4.38798e-07
9.02383e-05
-6.03463e-07
9.03637e-05
-7.76148e-07
9.04938e-05
-9.59003e-07
9.06173e-05
-1.15288e-06
9.07173e-05
-1.35512e-06
-1.53783e-06
9.0771e-05
8.04646e-05
4.36936e-06
8.2511e-05
8.56657e-06
8.40034e-05
8.73906e-06
8.50707e-05
7.86394e-06
8.58025e-05
6.75997e-06
8.63272e-05
5.6852e-06
8.6746e-05
4.79585e-06
8.71063e-05
4.08466e-06
8.74311e-05
3.50668e-06
8.77323e-05
3.02912e-06
8.80149e-05
2.6266e-06
8.82814e-05
2.28012e-06
8.85341e-05
1.97648e-06
8.87751e-05
1.70644e-06
8.90058e-05
1.46311e-06
8.92273e-05
1.2411e-06
8.94404e-05
1.03614e-06
8.96463e-05
8.44791e-07
8.98458e-05
6.64231e-07
9.004e-05
4.92098e-07
9.02297e-05
3.2635e-07
9.04161e-05
1.65244e-07
9.05998e-05
7.21936e-09
9.07823e-05
-1.49038e-07
9.09652e-05
-3.05566e-07
9.11496e-05
-4.63748e-07
9.13357e-05
-6.2494e-07
9.15229e-05
-7.90673e-07
9.17091e-05
-9.62305e-07
9.18904e-05
-1.14031e-06
9.20599e-05
-1.32238e-06
9.22083e-05
-1.50354e-06
-1.66199e-06
9.23325e-05
8.22357e-05
3.23226e-06
8.39002e-05
6.90201e-06
8.51946e-05
7.44467e-06
8.61372e-05
6.92131e-06
8.67902e-05
6.10703e-06
8.72433e-05
5.23203e-06
8.75844e-05
4.45477e-06
8.78627e-05
3.80643e-06
8.81046e-05
3.26472e-06
8.83257e-05
2.80807e-06
8.8534e-05
2.41827e-06
8.8734e-05
2.08014e-06
8.89281e-05
1.78235e-06
8.9118e-05
1.51657e-06
8.93047e-05
1.2764e-06
8.9489e-05
1.05678e-06
8.96715e-05
8.53616e-07
8.98527e-05
6.63586e-07
9.00331e-05
4.83915e-07
9.02129e-05
3.12247e-07
9.03927e-05
1.46553e-07
9.05729e-05
-1.49945e-08
9.07543e-05
-1.74169e-07
9.09375e-05
-3.3225e-07
9.11228e-05
-4.90784e-07
9.13101e-05
-6.51066e-07
9.14993e-05
-8.14182e-07
9.16897e-05
-9.81059e-07
9.18795e-05
-1.15212e-06
9.2066e-05
-1.32678e-06
9.22454e-05
-1.50181e-06
9.24138e-05
-1.67194e-06
-1.8221e-06
9.25739e-05
8.42181e-05
2.42969e-06
8.55563e-05
5.56379e-06
8.66852e-05
6.31582e-06
8.75518e-05
6.05471e-06
8.81892e-05
5.46963e-06
8.86502e-05
4.77104e-06
8.9e-05
4.10494e-06
8.92823e-05
3.52413e-06
8.95227e-05
3.02433e-06
8.97372e-05
2.59355e-06
8.99355e-05
2.22002e-06
9.01231e-05
1.89253e-06
9.03036e-05
1.60183e-06
9.04794e-05
1.34079e-06
9.06521e-05
1.10372e-06
9.08228e-05
8.85994e-07
9.09926e-05
6.83817e-07
9.11622e-05
4.94027e-07
9.13321e-05
3.13964e-07
9.1503e-05
1.41353e-07
9.16754e-05
-2.58208e-08
9.18497e-05
-1.89261e-07
9.20261e-05
-3.5056e-07
9.22049e-05
-5.11109e-07
9.23864e-05
-6.72264e-07
9.25705e-05
-8.35157e-07
9.27569e-05
-1.00062e-06
9.29451e-05
-1.16918e-06
9.31337e-05
-1.3408e-06
9.33214e-05
-1.51448e-06
9.35069e-05
-1.68723e-06
9.36897e-05
-1.85474e-06
-2.00742e-06
9.3875e-05
8.63735e-05
1.8549e-06
8.7447e-05
4.49025e-06
8.84253e-05
5.33754e-06
8.9212e-05
5.268e-06
8.98202e-05
4.86146e-06
9.02804e-05
4.31085e-06
9.06397e-05
3.74566e-06
9.09345e-05
3.22931e-06
9.11874e-05
2.77144e-06
9.14129e-05
2.368e-06
9.16204e-05
2.01254e-06
9.18156e-05
1.69733e-06
9.20023e-05
1.41516e-06
9.2183e-05
1.16005e-06
9.23597e-05
9.27075e-07
9.25336e-05
7.12074e-07
9.27058e-05
5.11557e-07
9.28773e-05
3.22574e-07
9.30486e-05
1.42611e-07
9.32205e-05
-3.05072e-08
9.33934e-05
-1.98679e-07
9.35677e-05
-3.63552e-07
9.37437e-05
-5.26651e-07
9.39219e-05
-6.89303e-07
9.41024e-05
-8.52696e-07
9.4285e-05
-1.01781e-06
9.44697e-05
-1.18533e-06
9.46561e-05
-1.3556e-06
9.48438e-05
-1.52841e-06
9.50321e-05
-1.7028e-06
9.52213e-05
-1.8765e-06
9.54133e-05
-2.04667e-06
-2.2076e-06
9.56134e-05
8.8669e-05
1.4359e-06
8.95305e-05
3.62879e-06
9.03752e-05
4.49275e-06
9.10865e-05
4.55679e-06
9.16611e-05
4.28685e-06
9.21142e-05
3.85777e-06
9.24776e-05
3.38226e-06
9.27803e-05
2.92651e-06
9.3042e-05
2.50974e-06
9.32758e-05
2.1342e-06
9.34907e-05
1.7977e-06
9.36924e-05
1.49563e-06
9.38848e-05
1.22273e-06
9.40706e-05
9.74229e-07
9.42518e-05
7.45935e-07
9.44296e-05
5.34202e-07
9.46053e-05
3.35872e-07
9.47797e-05
1.48217e-07
9.49534e-05
-3.11281e-08
9.51271e-05
-2.04222e-07
9.53013e-05
-3.72872e-07
9.54764e-05
-5.38664e-07
9.56528e-05
-7.03029e-07
9.58307e-05
-8.67218e-07
9.60104e-05
-1.03231e-06
9.61917e-05
-1.19919e-06
9.63748e-05
-1.36844e-06
9.65596e-05
-1.54036e-06
9.6746e-05
-1.71478e-06
9.69342e-05
-1.89105e-06
9.71255e-05
-2.06773e-06
9.73222e-05
-2.24343e-06
-2.41506e-06
9.75297e-05
9.10827e-05
1.12447e-06
9.17762e-05
2.93538e-06
9.25048e-05
3.76415e-06
9.3147e-05
3.91455e-06
9.36869e-05
3.74689e-06
9.41288e-05
3.4159e-06
9.44926e-05
3.01849e-06
9.48006e-05
2.61846e-06
9.50695e-05
2.24092e-06
9.53107e-05
1.89294e-06
9.55326e-05
1.57578e-06
9.57408e-05
1.28746e-06
9.5939e-05
1.0245e-06
9.613e-05
7.83253e-07
9.63157e-05
5.60272e-07
9.64975e-05
3.52408e-07
9.66765e-05
1.5684e-07
9.68537e-05
-2.89316e-08
9.70296e-05
-2.07103e-07
9.7205e-05
-3.79607e-07
9.73803e-05
-5.48161e-07
9.75559e-05
-7.14278e-07
9.77322e-05
-8.79305e-07
9.79094e-05
-1.04442e-06
9.80877e-05
-1.21062e-06
9.82672e-05
-1.37871e-06
9.84481e-05
-1.54928e-06
9.86303e-05
-1.72262e-06
9.88143e-05
-1.89876e-06
9.90007e-05
-2.07742e-06
9.91909e-05
-2.25795e-06
9.93876e-05
-2.44012e-06
-2.62247e-06
9.9595e-05
9.36011e-05
8.88059e-07
9.41622e-05
2.37428e-06
9.47899e-05
3.13638e-06
9.53687e-05
3.33578e-06
9.58737e-05
3.24192e-06
9.63016e-05
2.98797e-06
9.66635e-05
2.65665e-06
9.69754e-05
2.30657e-06
9.72506e-05
1.96569e-06
9.7499e-05
1.6445e-06
9.7728e-05
1.34682e-06
9.79427e-05
1.07275e-06
9.81469e-05
8.20357e-07
9.83431e-05
5.87028e-07
9.85333e-05
3.70021e-07
9.87191e-05
1.66672e-07
9.89014e-05
-2.55008e-08
9.90812e-05
-2.08756e-07
9.92592e-05
-3.85113e-07
9.9436e-05
-5.56383e-07
9.9612e-05
-7.24182e-07
9.97877e-05
-8.89941e-07
9.99633e-05
-1.05493e-06
0.000100139
-1.22026e-06
0.000100315
-1.38687e-06
0.000100492
-1.55553e-06
0.00010067
-1.72684e-06
0.000100848
-1.90119e-06
0.000101028
-2.07878e-06
0.000101211
-2.25971e-06
0.000101397
-2.44396e-06
0.000101589
-2.6321e-06
-2.8236e-06
0.00010179
9.62154e-05
7.04716e-07
9.66728e-05
1.91693e-06
9.7214e-05
2.59513e-06
9.77351e-05
2.81464e-06
9.8206e-05
2.77108e-06
9.86181e-05
2.57589e-06
9.89756e-05
2.29913e-06
9.92893e-05
1.99288e-06
9.95694e-05
1.68559e-06
9.9824e-05
1.38988e-06
0.000100059
1.11134e-06
0.000100281
8.5171e-07
0.000100491
6.10328e-07
0.000100692
3.85486e-07
0.000100887
1.75087e-07
0.000101077
-2.30771e-08
0.000101262
-2.11162e-07
0.000101445
-3.91188e-07
0.000101625
-5.65008e-07
0.000101803
-7.34304e-07
0.000101979
-9.00588e-07
0.000102154
-1.06521e-06
0.000102329
-1.22936e-06
0.000102503
-1.3941e-06
0.000102676
-1.56032e-06
0.000102849
-1.72878e-06
0.000103023
-1.90008e-06
0.000103196
-2.07473e-06
0.00010337
-2.2531e-06
0.000103546
-2.43557e-06
0.000103725
-2.62255e-06
0.000103908
-2.8151e-06
-3.01309e-06
0.000104097
9.8921e-05
5.59492e-07
9.92971e-05
1.54076e-06
9.97648e-05
2.12745e-06
0.000100234
2.34545e-06
0.000100672
2.33301e-06
0.000101067
2.18091e-06
0.000101418
1.94789e-06
0.000101732
1.67911e-06
0.000102016
1.4019e-06
0.000102276
1.1299e-06
0.000102517
8.69875e-07
0.000102744
6.24662e-07
0.00010296
3.9462e-07
0.000103167
1.78795e-07
0.000103366
-2.43579e-08
0.00010356
-2.16635e-07
0.000103748
-3.99888e-07
0.000103933
-5.75917e-07
0.000104115
-7.46411e-07
0.000104293
-9.12921e-07
0.000104469
-1.07686e-06
0.000104644
-1.23948e-06
0.000104816
-1.40192e-06
0.000104987
-1.56516e-06
0.000105157
-1.73008e-06
0.000105326
-1.89741e-06
0.000105493
-2.06778e-06
0.00010566
-2.24176e-06
0.000105827
-2.41987e-06
0.000105994
-2.60267e-06
0.000106163
-2.79078e-06
0.000106333
-2.98552e-06
-3.18682e-06
0.000106507
0.000101715
4.42096e-07
0.000102028
1.22804e-06
0.000102434
1.72175e-06
0.000102856
1.92253e-06
0.000103264
1.92573e-06
0.000103641
1.8034e-06
0.000103985
1.60424e-06
0.000104297
1.36668e-06
0.000104583
1.11589e-06
0.000104848
8.65605e-07
0.000105094
6.23177e-07
0.000105327
3.92164e-07
0.000105548
1.73647e-07
0.000105759
-3.27289e-08
0.000105963
-2.28046e-07
0.00010616
-4.13746e-07
0.000106352
-5.91414e-07
0.000106538
-7.62647e-07
0.000106721
-9.28974e-07
0.0001069
-1.09182e-06
0.000107076
-1.2525e-06
0.000107248
-1.41219e-06
0.000107418
-1.57195e-06
0.000107586
-1.7327e-06
0.000107751
-1.89529e-06
0.000107914
-2.06043e-06
0.000108075
-2.22876e-06
0.000108234
-2.40088e-06
0.000108392
-2.57738e-06
0.000108548
-2.7589e-06
0.000108703
-2.94615e-06
0.000108858
-3.14046e-06
-3.34166e-06
0.000109013
0.000104597
3.4533e-07
0.00010486
9.64946e-07
0.000105214
1.36779e-06
0.000105596
1.54036e-06
0.000105975
1.54688e-06
0.000106335
1.44317e-06
0.000106671
1.26906e-06
0.000106981
1.05674e-06
0.000107268
8.28606e-07
0.000107536
5.97845e-07
0.000107787
3.719e-07
0.000108024
1.54694e-07
0.00010825
-5.22276e-08
0.000108466
-2.48782e-07
0.000108674
-4.35693e-07
0.000108874
-6.14117e-07
0.000109068
-7.85413e-07
0.000109257
-9.50998e-07
0.00010944
-1.11226e-06
0.000109619
-1.27051e-06
0.000109793
-1.42695e-06
0.000109964
-1.5827e-06
0.00011013
-1.73872e-06
0.000110294
-1.89591e-06
0.000110453
-2.05504e-06
0.00011061
-2.2168e-06
0.000110763
-2.38182e-06
0.000110913
-2.5507e-06
0.000111059
-2.72402e-06
0.000111203
-2.90243e-06
0.000111343
-3.0866e-06
0.00011148
-3.27775e-06
-3.47549e-06
0.000111614
0.000107567
2.64069e-07
0.000107792
7.4069e-07
0.000108103
1.05669e-06
0.000108449
1.19364e-06
0.000108802
1.19378e-06
0.000109146
1.09942e-06
0.000109473
9.42649e-07
0.000109779
7.49986e-07
0.000110067
5.40841e-07
0.000110338
3.27344e-07
0.000110593
1.16658e-07
0.000110835
-8.72419e-08
0.000111065
-2.82577e-07
0.000111285
-4.68989e-07
0.000111497
-6.46952e-07
0.0001117
-8.17407e-07
0.000111896
-9.81531e-07
0.000112086
-1.14059e-06
0.000112269
-1.29585e-06
0.000112447
-1.4485e-06
0.00011262
-1.59969e-06
0.000112788
-1.75041e-06
0.000112951
-1.90159e-06
0.000113109
-2.05404e-06
0.000113262
-2.20849e-06
0.000113411
-2.36558e-06
0.000113555
-2.52591e-06
0.000113694
-2.69003e-06
0.000113829
-2.85847e-06
0.000113958
-3.03182e-06
0.000114082
-3.21063e-06
0.0001142
-3.39591e-06
-3.58705e-06
0.000114312
0.000110626
1.94583e-07
0.00011082
5.46814e-07
0.000111096
7.80741e-07
0.000111413
8.77284e-07
0.000111743
8.6355e-07
0.000112071
7.70928e-07
0.000112389
6.24824e-07
0.000112692
4.46756e-07
0.00011298
2.5311e-07
0.000113253
5.46415e-08
0.000113511
-1.42065e-07
0.000113757
-3.3323e-07
0.000113992
-5.17047e-07
0.000114216
-6.93034e-07
0.000114431
-8.6152e-07
0.000114636
-1.0233e-06
0.000114834
-1.17943e-06
0.000115025
-1.33104e-06
0.000115208
-1.4793e-06
0.000115385
-1.62533e-06
0.000115556
-1.77015e-06
0.00011572
-1.91472e-06
0.000115878
-2.05987e-06
0.00011603
-2.20636e-06
0.000116177
-2.35485e-06
0.000116317
-2.50592e-06
0.000116451
-2.66009e-06
0.000116579
-2.81786e-06
0.0001167
-2.97967e-06
0.000116815
-3.14599e-06
0.000116921
-3.31722e-06
0.000117019
-3.49413e-06
-3.67589e-06
0.000117108
0.000113776
1.34091e-07
0.000113946
3.76645e-07
0.000114194
5.3332e-07
0.000114484
5.86528e-07
0.000114795
5.53174e-07
0.00011511
4.56071e-07
0.000115419
3.14951e-07
0.000115719
1.4696e-07
0.000116007
-3.44237e-08
0.000116281
-2.20001e-07
0.000116543
-4.03986e-07
0.000116793
-5.82997e-07
0.000117031
-7.5538e-07
0.000117259
-9.20667e-07
0.000117477
-1.07914e-06
0.000117685
-1.23153e-06
0.000117884
-1.37879e-06
0.000118075
-1.522e-06
0.000118258
-1.66224e-06
0.000118433
-1.80055e-06
0.000118601
-1.93788e-06
0.000118762
-2.0751e-06
0.000118915
-2.213e-06
0.000119061
-2.35225e-06
0.000119199
-2.49344e-06
0.00011933
-2.63708e-06
0.000119454
-2.78362e-06
0.000119569
-2.93344e-06
0.000119677
-3.08689e-06
0.000119775
-3.2443e-06
0.000119864
-3.40588e-06
0.000119942
-3.57217e-06
-3.74215e-06
0.000120008
0.000117018
8.04678e-08
0.00011717
2.24844e-07
0.000117394
3.08696e-07
0.000117664
3.16857e-07
0.000117958
2.59518e-07
0.000118261
1.52895e-07
0.000118564
1.19723e-08
0.000118861
-1.49884e-07
0.000119148
-3.21914e-07
0.000119425
-4.96562e-07
0.00011969
-6.68999e-07
0.000119943
-8.364e-07
0.000120185
-9.97409e-07
0.000120416
-1.1517e-06
0.000120637
-1.29959e-06
0.000120847
-1.44183e-06
0.000121048
-1.57934e-06
0.000121239
-1.71315e-06
0.000121421
-1.8443e-06
0.000121594
-1.97374e-06
0.000121758
-2.1024e-06
0.000121914
-2.23107e-06
0.000122062
-2.36045e-06
0.000122201
-2.49115e-06
0.000122331
-2.62369e-06
0.000122452
-2.7585e-06
0.000122565
-2.89592e-06
0.000122668
-3.03624e-06
0.00012276
-3.17969e-06
0.000122843
-3.32644e-06
0.000122913
-3.47655e-06
0.000122971
-3.63032e-06
-3.78658e-06
0.000123016
0.000120354
3.20362e-08
0.000120492
8.70606e-08
0.000120699
1.01865e-07
0.000120952
6.40044e-08
0.000121232
-2.06554e-08
0.000121526
-1.40873e-07
0.000121823
-2.85586e-07
0.000122118
-4.44696e-07
0.000122406
-6.09933e-07
0.000122685
-7.754e-07
0.000122953
-9.37327e-07
0.000123211
-1.09357e-06
0.000123456
-1.24321e-06
0.000123691
-1.38614e-06
0.000123914
-1.52285e-06
0.000124126
-1.65413e-06
0.000124328
-1.78094e-06
0.000124519
-1.9043e-06
0.0001247
-2.02522e-06
0.000124871
-2.14464e-06
0.000125032
-2.2634e-06
0.000125183
-2.38224e-06
0.000125325
-2.50182e-06
0.000125456
-2.62266e-06
0.000125578
-2.74521e-06
0.000125689
-2.86979e-06
0.00012579
-2.99667e-06
0.000125879
-3.12603e-06
0.000125958
-3.25795e-06
0.000126024
-3.39249e-06
0.000126077
-3.52954e-06
0.000126116
-3.6692e-06
-3.81021e-06
0.000126139
0.000123788
-1.25734e-08
0.000123915
-4.0344e-08
0.000124109
-9.16148e-08
0.000124349
-1.76114e-07
0.000124619
-2.9068e-07
0.000124906
-4.27782e-07
0.0001252
-5.79577e-07
0.000125494
-7.38777e-07
0.000125783
-8.99382e-07
0.000126065
-1.05713e-06
0.000126337
-1.20938e-06
0.000126598
-1.35478e-06
0.000126848
-1.49292e-06
0.000127086
-1.62406e-06
0.000127312
-1.74888e-06
0.000127526
-1.86833e-06
0.000127729
-1.98343e-06
0.00012792
-2.09525e-06
0.000128099
-2.20477e-06
0.000128267
-2.31294e-06
0.000128425
-2.42055e-06
0.000128571
-2.52831e-06
0.000128706
-2.6368e-06
0.000128829
-2.74648e-06
0.000128942
-2.8577e-06
0.000129043
-2.97074e-06
0.000129132
-3.08574e-06
0.000129209
-3.20278e-06
0.000129273
-3.32185e-06
0.000129323
-3.44285e-06
0.000129359
-3.56556e-06
0.00012938
-3.68992e-06
-3.81461e-06
0.000129384
0.00012732
-5.45337e-08
0.000127441
-1.60532e-07
0.000127625
-2.75815e-07
0.000127856
-4.07518e-07
0.00012812
-5.54101e-07
0.000128403
-7.10783e-07
0.000128695
-8.72357e-07
0.000128991
-1.03397e-06
0.000129283
-1.19171e-06
0.000129569
-1.3429e-06
0.000129845
-1.48609e-06
0.000130111
-1.62077e-06
0.000130366
-1.74714e-06
0.000130608
-1.8659e-06
0.000130837
-1.97804e-06
0.000131053
-2.08467e-06
0.000131257
-2.18696e-06
0.000131447
-2.28604e-06
0.000131626
-2.38294e-06
0.000131791
-2.47858e-06
0.000131944
-2.57375e-06
0.000132085
-2.66913e-06
0.000132214
-2.76522e-06
0.00013233
-2.86245e-06
0.000132433
-2.96108e-06
0.000132524
-3.06131e-06
0.000132601
-3.16319e-06
0.000132665
-3.26671e-06
0.000132715
-3.37175e-06
0.00013275
-3.47811e-06
0.00013277
-3.58546e-06
0.000132774
-3.6936e-06
-3.8012e-06
0.00013276
0.000130955
-9.48683e-08
0.000131071
-2.76354e-07
0.00013125
-4.54566e-07
0.000131476
-6.34187e-07
0.000131737
-8.14596e-07
0.000132019
-9.93067e-07
0.000132313
-1.16658e-06
0.000132612
-1.33243e-06
0.000132909
-1.48862e-06
0.0001332
-1.63404e-06
0.000133482
-1.76846e-06
0.000133754
-1.89229e-06
0.000134013
-2.00643e-06
0.000134259
-2.11208e-06
0.000134492
-2.21058e-06
0.000134711
-2.30331e-06
0.000134915
-2.3916e-06
0.000135106
-2.47669e-06
0.000135283
-2.55966e-06
0.000135445
-2.64148e-06
0.000135595
-2.72291e-06
0.00013573
-2.8046e-06
0.000135852
-2.88704e-06
0.00013596
-2.97057e-06
0.000136054
-3.0554e-06
0.000136135
-3.14165e-06
0.000136201
-3.22931e-06
0.000136252
-3.31826e-06
0.000136289
-3.40832e-06
0.00013631
-3.49919e-06
0.000136315
-3.59046e-06
0.000136303
-3.68186e-06
-3.77208e-06
0.000136274
0.000134695
-1.34565e-07
0.000134809
-3.90563e-07
0.000134986
-6.31714e-07
0.000135212
-8.60356e-07
0.000135474
-1.07634e-06
0.00013576
-1.27853e-06
0.000136059
-1.46575e-06
0.000136364
-1.63722e-06
0.000136668
-1.79277e-06
0.000136966
-1.93285e-06
0.000137256
-2.05845e-06
0.000137535
-2.17099e-06
0.000137801
-2.27214e-06
0.000138052
-2.36368e-06
0.000138289
-2.44737e-06
0.000138511
-2.52491e-06
0.000138717
-2.59785e-06
0.000138908
-2.66755e-06
0.000139084
-2.7352e-06
0.000139244
-2.8018e-06
0.000139389
-2.86813e-06
0.000139519
-2.93482e-06
0.000139635
-3.00231e-06
0.000139735
-3.07093e-06
0.00013982
-3.14081e-06
0.000139891
-3.21201e-06
0.000139946
-3.28444e-06
0.000139986
-3.35794e-06
0.000140009
-3.43223e-06
0.000140017
-3.50696e-06
0.000140008
-3.58165e-06
0.000139982
-3.65596e-06
-3.72861e-06
0.000139939
0.000138542
-1.74608e-07
0.000138658
-5.05916e-07
0.000138837
-8.11175e-07
0.000139067
-1.09041e-06
0.000139335
-1.3437e-06
0.000139627
-1.57119e-06
0.000139935
-1.77339e-06
0.000140249
-1.95136e-06
0.000140563
-2.10668e-06
0.000140871
-2.24136e-06
0.000141171
-2.35771e-06
0.000141458
-2.45821e-06
0.000141731
-2.54536e-06
0.000141989
-2.62157e-06
0.000142231
-2.68912e-06
0.000142456
-2.75004e-06
0.000142664
-2.80614e-06
0.000142856
-2.85898e-06
0.00014303
-2.90985e-06
0.000143188
-2.95979e-06
0.00014333
-3.00963e-06
0.000143455
-3.06e-06
0.000143564
-3.11132e-06
0.000143657
-3.16385e-06
0.000143734
-3.21771e-06
0.000143795
-3.27288e-06
0.000143839
-3.32924e-06
0.000143868
-3.38655e-06
0.00014388
-3.44449e-06
0.000143876
-3.50266e-06
0.000143855
-3.56056e-06
0.000143817
-3.6178e-06
-3.67319e-06
0.000143761
0.000142501
-2.1609e-07
0.00014262
-6.25508e-07
0.000142807
-9.97504e-07
0.000143046
-1.32974e-06
0.000143325
-1.6224e-06
0.00014363
-1.87679e-06
0.000143952
-2.09499e-06
0.00014428
-2.27987e-06
0.000144609
-2.43483e-06
0.000144931
-2.56349e-06
0.000145243
-2.66958e-06
0.000145541
-2.75671e-06
0.000145824
-2.82832e-06
0.00014609
-2.88755e-06
0.000146338
-2.9372e-06
0.000146568
-2.97975e-06
0.000146779
-3.01728e-06
0.000146971
-3.05155e-06
0.000147146
-3.08399e-06
0.000147302
-3.11574e-06
0.00014744
-3.14764e-06
0.00014756
-3.18032e-06
0.000147663
-3.21421e-06
0.000147748
-3.24953e-06
0.000147817
-3.28635e-06
0.000147869
-3.32463e-06
0.000147904
-3.36416e-06
0.000147922
-3.40469e-06
0.000147923
-3.44584e-06
0.000147908
-3.48717e-06
0.000147875
-3.52816e-06
0.000147826
-3.56838e-06
-3.60666e-06
0.000147759
0.000146573
-2.60175e-07
0.000146701
-7.52629e-07
0.000146898
-1.19537e-06
0.000147152
-1.58358e-06
0.000147447
-1.91766e-06
0.000147771
-2.20018e-06
0.000148111
-2.4349e-06
0.000148458
-2.62661e-06
0.000148803
-2.78058e-06
0.000149142
-2.9022e-06
0.000149469
-2.99664e-06
0.000149781
-3.06878e-06
0.000150076
-3.12304e-06
0.000150352
-3.16336e-06
0.000150608
-3.19316e-06
0.000150843
-3.21537e-06
0.000151058
-3.2324e-06
0.000151253
-3.24626e-06
0.000151428
-3.25852e-06
0.000151582
-3.27041e-06
0.000151717
-3.28284e-06
0.000151834
-3.29645e-06
0.000151931
-3.31165e-06
0.00015201
-3.32864e-06
0.000152071
-3.34747e-06
0.000152115
-3.36803e-06
0.000152141
-3.3901e-06
0.000152149
-3.41338e-06
0.000152141
-3.43746e-06
0.000152116
-3.46189e-06
0.000152074
-3.48613e-06
0.000152015
-3.50978e-06
-3.53173e-06
0.00015194
0.000150764
-3.08567e-07
0.000150904
-8.92073e-07
0.00015112
-1.41199e-06
0.000151397
-1.86071e-06
0.000151719
-2.23904e-06
0.000152069
-2.55099e-06
0.000152437
-2.80223e-06
0.00015281
-2.99973e-06
0.00015318
-3.15099e-06
0.000153541
-3.26332e-06
0.000153888
-3.34361e-06
0.000154218
-3.39809e-06
0.000154527
-3.43231e-06
0.000154815
-3.45108e-06
0.00015508
-3.45848e-06
0.000155323
-3.45792e-06
0.000155542
-3.45219e-06
0.00015574
-3.44353e-06
0.000155915
-3.43367e-06
0.000156068
-3.42394e-06
0.000156201
-3.41531e-06
0.000156313
-3.40843e-06
0.000156405
-3.40369e-06
0.000156477
-3.40129e-06
0.000156531
-3.40121e-06
0.000156567
-3.40334e-06
0.000156584
-3.4074e-06
0.000156583
-3.41306e-06
0.000156566
-3.41988e-06
0.000156531
-3.42738e-06
0.00015648
-3.43501e-06
0.000156413
-3.44231e-06
-3.44823e-06
0.000156329
0.000155076
-3.62678e-07
0.000155232
-1.04799e-06
0.000155472
-1.65282e-06
0.000155779
-2.16683e-06
0.000156132
-2.59208e-06
0.000156515
-2.93461e-06
0.000156915
-3.20228e-06
0.00015732
-3.40453e-06
0.00015772
-3.55129e-06
0.000158109
-3.65201e-06
0.000158481
-3.71539e-06
0.000158832
-3.74925e-06
0.00015916
-3.76035e-06
0.000159463
-3.75448e-06
0.000159741
-3.73647e-06
0.000159994
-3.71029e-06
0.000160221
-3.67911e-06
0.000160423
-3.64544e-06
0.0001606
-3.61121e-06
0.000160754
-3.57785e-06
0.000160885
-3.54636e-06
0.000160994
-3.51741e-06
0.000161082
-3.49139e-06
0.000161149
-3.46845e-06
0.000161196
-3.44856e-06
0.000161225
-3.43154e-06
0.000161234
-3.4171e-06
0.000161226
-3.40485e-06
0.000161201
-3.39435e-06
0.000161158
-3.3851e-06
0.0001611
-3.37655e-06
0.000161026
-3.36827e-06
-3.35927e-06
0.000160937
0.000159515
-4.26711e-07
0.000159698
-1.23127e-06
0.000159979
-1.93368e-06
0.000160332
-2.52026e-06
0.000160735
-2.99537e-06
0.000161169
-3.36807e-06
0.000161616
-3.64947e-06
0.000162064
-3.8525e-06
0.000162503
-3.99017e-06
0.000162926
-4.07452e-06
0.000163326
-4.11634e-06
0.000163702
-4.1251e-06
0.000164051
-4.10891e-06
0.000164371
-4.07454e-06
0.000164662
-4.0276e-06
0.000164924
-3.97257e-06
0.000165158
-3.91304e-06
0.000165365
-3.85177e-06
0.000165544
-3.79085e-06
0.000165698
-3.73181e-06
0.000165828
-3.67568e-06
0.000165933
-3.62313e-06
0.000166016
-3.57453e-06
0.000166078
-3.52999e-06
0.000166119
-3.48943e-06
0.00016614
-3.45263e-06
0.000166142
-3.41924e-06
0.000166126
-3.38885e-06
0.000166093
-3.36097e-06
0.000166043
-3.33506e-06
0.000165977
-3.31055e-06
0.000165895
-3.28695e-06
-3.26327e-06
0.000165799
0.00016408
-5.00491e-07
0.000164293
-1.44411e-06
0.000164616
-2.25685e-06
0.000165019
-2.92378e-06
0.000165478
-3.45368e-06
0.000165969
-3.85888e-06
0.000166473
-4.1538e-06
0.000166976
-4.35531e-06
0.000167466
-4.48009e-06
0.000167934
-4.54323e-06
0.000168376
-4.55809e-06
0.000168787
-4.5362e-06
0.000169166
-4.48724e-06
0.00016951
-4.41918e-06
0.000169821
-4.33847e-06
0.000170099
-4.25024e-06
0.000170344
-4.15846e-06
0.000170559
-4.06617e-06
0.000170743
-3.97559e-06
0.0001709
-3.8883e-06
0.000171029
-3.80535e-06
0.000171134
-3.72738e-06
0.000171214
-3.6547e-06
0.000171271
-3.58735e-06
0.000171307
-3.52519e-06
0.000171322
-3.46792e-06
0.000171318
-3.41515e-06
0.000171296
-3.36641e-06
0.000171256
-3.32119e-06
0.0001712
-3.27894e-06
0.000171128
-3.23907e-06
0.000171043
-3.20113e-06
-3.16414e-06
0.000170943
0.000168792
-6.01172e-07
0.00016907
-1.72205e-06
0.000169479
-2.66591e-06
0.000169974
-3.41874e-06
0.000170521
-4.00034e-06
0.000171093
-4.43047e-06
0.000171669
-4.72977e-06
0.000172234
-4.92078e-06
0.000172778
-5.02438e-06
0.000173294
-5.05879e-06
0.000173776
-5.03989e-06
0.000174221
-4.98117e-06
0.000174627
-4.89383e-06
0.000174995
-4.78696e-06
0.000175324
-4.66784e-06
0.000175616
-4.54217e-06
0.000175872
-4.41432e-06
0.000176094
-4.28758e-06
0.000176282
-4.16429e-06
0.00017644
-4.04609e-06
0.000176569
-3.93402e-06
0.00017667
-3.82865e-06
0.000176746
-3.73023e-06
0.000176797
-3.6387e-06
0.000176826
-3.55383e-06
0.000176833
-3.47525e-06
0.00017682
-3.40249e-06
0.000176789
-3.335e-06
0.00017674
-3.27223e-06
0.000176675
-3.21357e-06
0.000176594
-3.15839e-06
0.000176499
-3.10615e-06
-3.05582e-06
0.000176391
0.00017362
-7.10132e-07
0.000173944
-2.04552e-06
0.000174423
-3.14543e-06
0.000175009
-4.00454e-06
0.000175661
-4.65219e-06
0.000176343
-5.11234e-06
0.000177026
-5.41315e-06
0.000177691
-5.5857e-06
0.000178324
-5.65723e-06
0.000178916
-5.65069e-06
0.000179462
-5.58563e-06
0.000179959
-5.47826e-06
0.000180407
-5.34168e-06
0.000180806
-5.1863e-06
0.000181158
-5.02029e-06
0.000181466
-4.8499e-06
0.000181732
-4.67982e-06
0.000181957
-4.51345e-06
0.000182146
-4.35318e-06
0.000182301
-4.20056e-06
0.000182423
-4.05653e-06
0.000182516
-3.92152e-06
0.000182582
-3.79559e-06
0.000182621
-3.67856e-06
0.000182638
-3.57003e-06
0.000182632
-3.46949e-06
0.000182606
-3.37636e-06
0.000182561
-3.29005e-06
0.000182498
-3.20991e-06
0.00018242
-3.13536e-06
0.000182328
-3.06576e-06
0.000182222
-3.00062e-06
-2.93884e-06
0.000182105
0.000178679
-9.20647e-07
0.000179179
-2.54501e-06
0.000179838
-3.80455e-06
0.000180577
-4.74436e-06
0.000181357
-5.43144e-06
0.000182143
-5.89889e-06
0.000182913
-6.18325e-06
0.000183651
-6.32301e-06
0.000184344
-6.35016e-06
0.000184985
-6.29166e-06
0.000185569
-6.17051e-06
0.000186097
-6.00561e-06
0.000186567
-5.81197e-06
0.000186982
-5.60139e-06
0.000187345
-5.38292e-06
0.000187658
-5.16332e-06
0.000187926
-4.94753e-06
0.000188151
-4.73898e-06
0.000188338
-4.53998e-06
0.00018849
-4.35189e-06
0.000188609
-4.17542e-06
0.000188698
-4.01076e-06
0.00018876
-3.85771e-06
0.000188797
-3.71582e-06
0.000188812
-3.58449e-06
0.000188805
-3.46301e-06
0.000188779
-3.35063e-06
0.000188736
-3.24661e-06
0.000188676
-3.15027e-06
0.000188602
-3.06095e-06
0.000188514
-2.97808e-06
0.000188415
-2.90113e-06
-2.82903e-06
0.000188305
0.000183742
-1.09574e-06
0.000184325
-3.12716e-06
0.000185143
-4.62244e-06
0.000186093
-5.69515e-06
0.000187095
-6.43354e-06
0.000188086
-6.88941e-06
0.000189032
-7.1289e-06
0.000189918
-7.20939e-06
0.00019074
-7.1717e-06
0.000191496
-7.04791e-06
0.000192189
-6.86381e-06
0.000192823
-6.63938e-06
0.000193401
-6.38991e-06
0.000193927
-6.12709e-06
0.000194403
-5.85973e-06
0.000194834
-5.59432e-06
0.000195222
-5.33558e-06
0.00019557
-5.08677e-06
0.00019588
-4.85002e-06
0.000196155
-4.62659e-06
0.000196397
-4.41704e-06
0.000196607
-4.22143e-06
0.000196789
-4.03942e-06
0.000196943
-3.87042e-06
0.000197073
-3.71368e-06
0.000197178
-3.56837e-06
0.000197261
-3.43363e-06
0.000197323
-3.30866e-06
0.000197366
-3.1928e-06
0.00019739
-3.08546e-06
0.000197399
-2.98651e-06
0.000197393
-2.89553e-06
-2.81277e-06
0.000197377
0.000189414
-1.69772e-06
0.000190391
-4.10465e-06