/*--------------------------------*- C++ -*----------------------------------*\
| =========                 |                                                 |
| \\      /  F ield         | OpenFOAM: The Open Source CFD Toolbox           |
|  \\    /   O peration     | Version:  2.1.1                                 |
|   \\  /    A nd           | Web:      www.OpenFOAM.org                      |
|    \\/     M anipulation  |                                                 |
\*---------------------------------------------------------------------------*/
FoamFile
{
    version     2.0;
    format      ascii;
    class       volVectorField;
    location    "0.17";
    object      U;
}
// * * * * * * * * * * * * * * * * * * * * * * * * * * * * * * * * * * * * * //

dimensions      [0 1 -1 0 0 0 0];

internalField   nonuniform List<vector> 
6820
(
(6.37623 0.503653 0)
(4.42545 0.286727 0)
(2.97629 0.0200295 0)
(2.23895 -0.0621487 0)
(1.97543 -0.060288 0)
(1.85102 -0.0349017 0)
(1.77876 -0.0154887 0)
(1.72954 -0.00510762 0)
(1.68935 -0.000412207 0)
(1.65516 0.00107539 0)
(1.62642 0.00102278 0)
(1.60269 0.000366639 0)
(1.58351 -0.000460688 0)
(1.5684 -0.00127083 0)
(1.55688 -0.00198942 0)
(1.54855 -0.00259816 0)
(1.5431 -0.00310086 0)
(1.54028 -0.00351171 0)
(1.53996 -0.00384922 0)
(1.54196 -0.00428524 0)
(1.5462 -0.00466019 0)
(1.55268 -0.00503704 0)
(1.56138 -0.00534627 0)
(1.57233 -0.00568368 0)
(1.58565 -0.00608683 0)
(1.60149 -0.00657448 0)
(1.62 -0.00718669 0)
(1.64172 -0.00793062 0)
(1.66654 -0.00907129 0)
(1.69748 -0.0103055 0)
(1.72954 -0.0141199 0)
(1.78784 -0.0152869 0)
(1.81412 -0.0557841 0)
(8.72024 0.959307 0)
(8.76577 1.0112 0)
(7.97208 0.678001 0)
(7.06165 0.392705 0)
(6.36411 0.201075 0)
(5.86159 0.101758 0)
(5.50387 0.0560433 0)
(5.24711 0.0352904 0)
(5.05639 0.0258135 0)
(4.90956 0.0209738 0)
(4.79326 0.0179167 0)
(4.69915 0.0155842 0)
(4.6219 0.0135771 0)
(4.55798 0.0117264 0)
(4.50492 0.00994639 0)
(4.46099 0.00818739 0)
(4.42489 0.00642175 0)
(4.39565 0.0046253 0)
(4.37254 0.00277997 0)
(4.35498 0.000849715 0)
(4.34258 -0.00115257 0)
(4.33507 -0.00322694 0)
(4.3322 -0.00552507 0)
(4.33377 -0.00794731 0)
(4.3397 -0.010543 0)
(4.35001 -0.0133957 0)
(4.36474 -0.0166107 0)
(4.38411 -0.0202764 0)
(4.40837 -0.0249493 0)
(4.43851 -0.030455 0)
(4.47449 -0.0403489 0)
(4.52155 -0.0529488 0)
(4.57359 -0.0836176 0)
(8.58611 0.583032 0)
(9.33157 0.761038 0)
(9.6159 0.658069 0)
(9.50816 0.52388 0)
(9.24523 0.393919 0)
(8.93681 0.295711 0)
(8.63561 0.226553 0)
(8.36469 0.176791 0)
(8.12824 0.140423 0)
(7.92399 0.11326 0)
(7.74825 0.0923832 0)
(7.59718 0.0759246 0)
(7.46734 0.0626587 0)
(7.35575 0.0517475 0)
(7.25992 0.0425904 0)
(7.17777 0.0347355 0)
(7.1076 0.0278384 0)
(7.04797 0.0216333 0)
(6.99773 0.0159228 0)
(6.95592 0.0105694 0)
(6.92177 0.00541772 0)
(6.8946 0.000369507 0)
(6.87388 -0.00472723 0)
(6.85926 -0.00995576 0)
(6.85058 -0.0153733 0)
(6.84762 -0.0211344 0)
(6.85023 -0.0273671 0)
(6.85835 -0.0342639 0)
(6.87196 -0.0423341 0)
(6.89117 -0.0519743 0)
(6.91582 -0.065391 0)
(6.94407 -0.0835575 0)
(6.97392 -0.113063 0)
(8.44097 0.379232 0)
(8.94614 0.582664 0)
(9.359 0.552222 0)
(9.58748 0.483785 0)
(9.70294 0.402992 0)
(9.74105 0.333059 0)
(9.72839 0.279835 0)
(9.68725 0.238962 0)
(9.63046 0.206766 0)
(9.56528 0.180633 0)
(9.4964 0.158689 0)
(9.4269 0.139786 0)
(9.35878 0.123197 0)
(9.29352 0.108407 0)
(9.23207 0.0950603 0)
(9.17502 0.0828903 0)
(9.12271 0.071679 0)
(9.07531 0.0612352 0)
(9.03287 0.0514002 0)
(8.9954 0.0420207 0)
(8.96284 0.0329528 0)
(8.93512 0.0240673 0)
(8.91216 0.0152911 0)
(8.89391 0.00645494 0)
(8.88013 -0.00262013 0)
(8.87074 -0.0120197 0)
(8.86579 -0.0219595 0)
(8.86523 -0.0326779 0)
(8.86898 -0.0445968 0)
(8.87676 -0.0581449 0)
(8.88808 -0.074462 0)
(8.9001 -0.0942526 0)
(8.9118 -0.116898 0)
(8.40218 0.27953 0)
(8.71933 0.479133 0)
(8.99975 0.459367 0)
(9.17587 0.40089 0)
(9.3011 0.337909 0)
(9.39545 0.284526 0)
(9.46573 0.244567 0)
(9.52017 0.214022 0)
(9.56364 0.189555 0)
(9.59855 0.169246 0)
(9.62665 0.151815 0)
(9.64933 0.136454 0)
(9.66774 0.122656 0)
(9.6826 0.110066 0)
(9.69459 0.0984072 0)
(9.70436 0.0874597 0)
(9.71252 0.0770475 0)
(9.71958 0.0670239 0)
(9.726 0.0572643 0)
(9.73217 0.0476591 0)
(9.73843 0.0381035 0)
(9.74507 0.0285112 0)
(9.75234 0.018778 0)
(9.76048 0.00881683 0)
(9.76952 -0.00148764 0)
(9.77956 -0.0122197 0)
(9.79063 -0.0235901 0)
(9.8028 -0.0358355 0)
(9.81602 -0.04926 0)
(9.82997 -0.0641673 0)
(9.84415 -0.0809294 0)
(9.85646 -0.0995958 0)
(9.86635 -0.118199 0)
(8.37751 0.201565 0)
(8.60172 0.381794 0)
(8.81685 0.387782 0)
(8.9488 0.352369 0)
(9.03576 0.30703 0)
(9.09979 0.262555 0)
(9.14812 0.225703 0)
(9.18803 0.196133 0)
(9.22374 0.172031 0)
(9.25667 0.152043 0)
(9.28742 0.135057 0)
(9.31638 0.120226 0)
(9.34376 0.106983 0)
(9.36981 0.0949477 0)
(9.39472 0.0838161 0)
(9.41859 0.0733446 0)
(9.44153 0.0633428 0)
(9.46365 0.0536558 0)
(9.48505 0.0441545 0)
(9.50583 0.0347251 0)
(9.5261 0.0252613 0)
(9.54595 0.0156657 0)
(9.5655 0.00585302 0)
(9.58479 -0.0042689 0)
(9.60406 -0.0147668 0)
(9.62345 -0.0258082 0)
(9.64303 -0.037537 0)
(9.66277 -0.0501179 0)
(9.68256 -0.0637397 0)
(9.70206 -0.0785473 0)
(9.72082 -0.0944971 0)
(9.73773 -0.111293 0)
(9.75256 -0.126892 0)
(8.36131 0.148119 0)
(8.52308 0.309369 0)
(8.6985 0.333767 0)
(8.81426 0.313054 0)
(8.89014 0.278704 0)
(8.94475 0.241419 0)
(8.98429 0.208673 0)
(9.01491 0.18165 0)
(9.04103 0.159165 0)
(9.06457 0.140154 0)
(9.08647 0.123756 0)
(9.10736 0.109291 0)
(9.12756 0.0962715 0)
(9.14725 0.0843444 0)
(9.16658 0.073243 0)
(9.18562 0.0627591 0)
(9.20446 0.0527216 0)
(9.22313 0.0429839 0)
(9.2417 0.0334175 0)
(9.26019 0.0239061 0)
(9.27866 0.0143424 0)
(9.29714 0.0046231 0)
(9.31569 -0.00534052 0)
(9.33441 -0.0156669 0)
(9.35333 -0.0264795 0)
(9.37247 -0.037899 0)
(9.39182 -0.0500288 0)
(9.41134 -0.0629786 0)
(9.43092 -0.0768373 0)
(9.45031 -0.0916278 0)
(9.46922 -0.107158 0)
(9.48713 -0.123016 0)
(9.50406 -0.137751 0)
(8.35119 0.110604 0)
(8.46776 0.249321 0)
(8.60919 0.282799 0)
(8.71189 0.273295 0)
(8.78296 0.249698 0)
(8.83612 0.221019 0)
(8.87572 0.193668 0)
(8.90629 0.169728 0)
(8.93179 0.148912 0)
(8.95423 0.130722 0)
(8.97467 0.114682 0)
(8.99382 0.100331 0)
(9.01214 0.0872898 0)
(9.02989 0.0752646 0)
(9.04726 0.0640205 0)
(9.06439 0.0533587 0)
(9.08138 0.0431093 0)
(9.09832 0.0331251 0)
(9.11526 0.0232768 0)
(9.13227 0.0134477 0)
(9.1494 0.00352865 0)
(9.16671 -0.00658797 0)
(9.18421 -0.0170036 0)
(9.20195 -0.027819 0)
(9.21994 -0.0391378 0)
(9.2382 -0.0510532 0)
(9.25671 -0.0636498 0)
(9.27543 -0.0770057 0)
(9.29428 -0.0911643 0)
(9.31311 -0.106095 0)
(9.33178 -0.121582 0)
(9.35016 -0.137249 0)
(9.36844 -0.152126 0)
(8.3449 0.0838465 0)
(8.42972 0.201196 0)
(8.54317 0.239619 0)
(8.63285 0.238872 0)
(8.69804 0.223312 0)
(8.7486 0.200944 0)
(8.78776 0.177596 0)
(8.81874 0.156086 0)
(8.84479 0.136828 0)
(8.86776 0.119653 0)
(8.88862 0.104282 0)
(8.90806 0.0903736 0)
(8.92653 0.077615 0)
(8.94432 0.0657506 0)
(8.96163 0.0545679 0)
(8.97863 0.0438859 0)
(8.99542 0.0335487 0)
(9.01209 0.0234206 0)
(9.02872 0.0133798 0)
(9.04537 0.00331444 0)
(9.0621 -0.00688114 0)
(9.07895 -0.0173069 0)
(9.09595 -0.0280605 0)
(9.11315 -0.0392363 0)
(9.13056 -0.0509304 0)
(9.14819 -0.0632341 0)
(9.16603 -0.0762271 0)
(9.18406 -0.0899689 0)
(9.20223 -0.104477 0)
(9.22049 -0.119702 0)
(9.23882 -0.135466 0)
(9.25729 -0.151498 0)
(9.27617 -0.167206 0)
(8.34097 0.0645189 0)
(8.4034 0.162619 0)
(8.49423 0.202121 0)
(8.57183 0.207099 0)
(8.63111 0.197418 0)
(8.67865 0.180371 0)
(8.71678 0.160991 0)
(8.74765 0.142183 0)
(8.77383 0.124732 0)
(8.79698 0.108719 0)
(8.818 0.094059 0)
(8.83755 0.0805652 0)
(8.85608 0.0680243 0)
(8.87389 0.0562424 0)
(8.89117 0.0450471 0)
(8.9081 0.0342832 0)
(8.92477 0.0238104 0)
(8.94127 0.0135015 0)
(8.95769 0.00323939 0)
(8.97408 -0.0070856 0)
(8.9905 -0.0175756 0)
(9.00698 -0.0283279 0)
(9.02356 -0.0394398 0)
(9.04028 -0.0510048 0)
(9.05716 -0.0631135 0)
(9.0742 -0.075848 0)
(9.09141 -0.0892754 0)
(9.10877 -0.103442 0)
(9.12629 -0.118362 0)
(9.14397 -0.134002 0)
(9.16185 -0.150247 0)
(9.18011 -0.166953 0)
(9.19903 -0.183797 0)
(8.33848 0.0502799 0)
(8.38504 0.131562 0)
(8.45782 0.169748 0)
(8.52464 0.178538 0)
(8.57829 0.173395 0)
(8.62268 0.160698 0)
(8.65939 0.144678 0)
(8.68981 0.128157 0)
(8.7159 0.112226 0)
(8.73909 0.0972129 0)
(8.7602 0.0832009 0)
(8.77984 0.0701243 0)
(8.79842 0.057845 0)
(8.81623 0.0462131 0)
(8.83348 0.0350832 0)
(8.85032 0.0243171 0)
(8.86686 0.0137858 0)
(8.88319 0.00336938 0)
(8.89939 -0.00704355 0)
(8.9155 -0.0175575 0)
(8.93159 -0.0282722 0)
(8.94769 -0.0392832 0)
(8.96383 -0.0506836 0)
(8.98005 -0.0625623 0)
(8.99636 -0.0750035 0)
(9.01278 -0.0880842 0)
(9.02932 -0.10187 0)
(9.04598 -0.116408 0)
(9.06278 -0.131726 0)
(9.07976 -0.147817 0)
(9.09701 -0.164636 0)
(9.11471 -0.18215 0)
(9.13312 -0.200215 0)
(8.3369 0.0395755 0)
(8.37211 0.10649 0)
(8.4306 0.141864 0)
(8.4879 0.152764 0)
(8.53617 0.150769 0)
(8.57738 0.14137 0)
(8.61248 0.128148 0)
(8.64225 0.113713 0)
(8.66815 0.099292 0)
(8.69133 0.0853539 0)
(8.7125 0.0720835 0)
(8.73221 0.0595024 0)
(8.75083 0.0475394 0)
(8.76865 0.0360905 0)
(8.78586 0.0250427 0)
(8.80261 0.0142811 0)
(8.81901 0.00369275 0)
(8.83516 -0.00683061 0)
(8.85111 -0.0173926 0)
(8.86693 -0.0280923 0)
(8.88267 -0.0390254 0)
(8.89835 -0.0502842 0)
(8.91402 -0.061958 0)
(8.9297 -0.0741329 0)
(8.94541 -0.0868903 0)
(8.96116 -0.100306 0)
(8.97697 -0.114444 0)
(8.99286 -0.12936 0)
(9.00885 -0.145094 0)
(9.025 -0.161671 0)
(9.04139 -0.179104 0)
(9.05822 -0.197446 0)
(9.07565 -0.216663 0)
(8.33586 0.0313561 0)
(8.36291 0.086114 0)
(8.41013 0.117823 0)
(8.45916 0.129546 0)
(8.50243 0.12967 0)
(8.54052 0.122791 0)
(8.57385 0.111894 0)
(8.6028 0.0992825 0)
(8.62833 0.0862082 0)
(8.65137 0.0732362 0)
(8.67252 0.0606375 0)
(8.69224 0.0485113 0)
(8.71088 0.036848 0)
(8.72869 0.0255855 0)
(8.74586 0.0146395 0)
(8.76253 0.00391405 0)
(8.77879 -0.00669044 0)
(8.79475 -0.017273 0)
(8.81046 -0.027931 0)
(8.82597 -0.0387593 0)
(8.84133 -0.0498498 0)
(8.85658 -0.061292 0)
(8.87175 -0.0731722 0)
(8.88686 -0.0855738 0)
(8.90192 -0.0985762 0)
(8.91696 -0.112254 0)
(8.93198 -0.126675 0)
(8.94702 -0.141901 0)
(8.9621 -0.157988 0)
(8.97728 -0.174991 0)
(8.99263 -0.192967 0)
(9.00829 -0.212025 0)
(9.02437 -0.232193 0)
(8.33516 0.024909 0)
(8.35627 0.06942 0)
(8.39465 0.0970767 0)
(8.4366 0.108651 0)
(8.47528 0.110024 0)
(8.51036 0.104927 0)
(8.54184 0.0958351 0)
(8.5698 0.0847362 0)
(8.59484 0.0728431 0)
(8.61764 0.06077 0)
(8.63871 0.0488378 0)
(8.6584 0.0371945 0)
(8.67702 0.0258729 0)
(8.6948 0.014843 0)
(8.7119 0.00404369 0)
(8.72845 -0.0066032 0)
(8.74456 -0.017184 0)
(8.76029 -0.0277884 0)
(8.77573 -0.0385061 0)
(8.7909 -0.0494263 0)
(8.80587 -0.0606363 0)
(8.82065 -0.0722215 0)
(8.83527 -0.084265 0)
(8.84976 -0.0968474 0)
(8.86413 -0.110046 0)
(8.8784 -0.123936 0)
(8.89258 -0.138588 0)
(8.9067 -0.154071 0)
(8.92077 -0.170454 0)
(8.93484 -0.187811 0)
(8.94897 -0.206227 0)
(8.96324 -0.225846 0)
(8.97771 -0.246717 0)
(8.33468 0.0197466 0)
(8.35142 0.0556074 0)
(8.38288 0.0791131 0)
(8.41883 0.0898305 0)
(8.45337 0.0917562 0)
(8.48559 0.0878405 0)
(8.51523 0.0801148 0)
(8.5421 0.0702586 0)
(8.56654 0.0593881 0)
(8.58901 0.0481218 0)
(8.6099 0.0368052 0)
(8.6295 0.0256184 0)
(8.64805 0.0146281 0)
(8.66575 0.00383235 0)
(8.68275 -0.00680849 0)
(8.69916 -0.017356 0)
(8.71508 -0.0278842 0)
(8.73058 -0.0384739 0)
(8.74572 -0.0492081 0)
(8.76053 -0.0601706 0)
(8.77507 -0.0714444 0)
(8.78935 -0.0831115 0)
(8.8034 -0.0952519 0)
(8.81724 -0.107944 0)
(8.83088 -0.121263 0)
(8.84434 -0.135284 0)
(8.85763 -0.15008 0)
(8.87075 -0.165725 0)
(8.88373 -0.182295 0)
(8.89659 -0.199877 0)
(8.90936 -0.21857 0)
(8.92208 -0.238527 0)
(8.93478 -0.2598 0)
(8.33434 0.0155302 0)
(8.34784 0.0440496 0)
(8.37387 0.0634842 0)
(8.4048 0.072849 0)
(8.43564 0.0747738 0)
(8.46523 0.071529 0)
(8.49305 0.0647596 0)
(8.51879 0.0558612 0)
(8.54254 0.0458286 0)
(8.56461 0.035258 0)
(8.58525 0.0245002 0)
(8.6047 0.013752 0)
(8.62313 0.00310097 0)
(8.64073 -0.00743525 0)
(8.6576 -0.0178807 0)
(8.67385 -0.0282849 0)
(8.68956 -0.0387122 0)
(8.70479 -0.0492355 0)
(8.7196 -0.0599317 0)
(8.73402 -0.0708794 0)
(8.7481 -0.0821573 0)
(8.76185 -0.0938432 0)
(8.77529 -0.106014 0)
(8.78845 -0.118744 0)
(8.80132 -0.132108 0)
(8.81393 -0.146179 0)
(8.82626 -0.161029 0)
(8.83834 -0.176735 0)
(8.85016 -0.193375 0)
(8.86173 -0.211042 0)
(8.87305 -0.229832 0)
(8.88413 -0.249898 0)
(8.89495 -0.271277 0)
(8.33409 0.0120206 0)
(8.34516 0.034257 0)
(8.36694 0.0497965 0)
(8.3937 0.0574754 0)
(8.42131 0.0589649 0)
(8.44848 0.0559688 0)
(8.47458 0.049801 0)
(8.49917 0.0416046 0)
(8.5222 0.0322416 0)
(8.5438 0.0222624 0)
(8.56415 0.0120049 0)
(8.58339 0.00166796 0)
(8.60167 -0.00865015 0)
(8.61911 -0.0189192 0)
(8.63582 -0.0291516 0)
(8.65187 -0.0393867 0)
(8.66734 -0.0496804 0)
(8.68229 -0.0600984 0)
(8.69675 -0.0707117 0)
(8.71076 -0.0815938 0)
(8.72435 -0.0928188 0)
(8.73754 -0.10446 0)
(8.75035 -0.116592 0)
(8.7628 -0.129285 0)
(8.77488 -0.14261 0)
(8.78659 -0.156638 0)
(8.79795 -0.171439 0)
(8.80894 -0.187088 0)
(8.81956 -0.203663 0)
(8.82979 -0.22125 0)
(8.83962 -0.23994 0)
(8.84902 -0.259872 0)
(8.85796 -0.281063 0)
(8.33391 0.0090456 0)
(8.34313 0.0258467 0)
(8.36158 0.037709 0)
(8.38491 0.0434899 0)
(8.40972 0.0442092 0)
(8.43472 0.0411149 0)
(8.45922 0.0352398 0)
(8.4827 0.0275068 0)
(8.50498 0.0186444 0)
(8.52608 0.00914406 0)
(8.5461 -0.00068079 0)
(8.5651 -0.0106392 0)
(8.58319 -0.0206308 0)
(8.60045 -0.0306191 0)
(8.61697 -0.0406097 0)
(8.6328 -0.0506351 0)
(8.64801 -0.0607452 0)
(8.66264 -0.0710006 0)
(8.67673 -0.0814674 0)
(8.6903 -0.0922146 0)
(8.70339 -0.103312 0)
(8.716 -0.114831 0)
(8.72816 -0.126838 0)
(8.73987 -0.139403 0)
(8.75112 -0.152592 0)
(8.76193 -0.166471 0)
(8.77228 -0.181108 0)
(8.78216 -0.196572 0)
(8.79156 -0.212934 0)
(8.80044 -0.230271 0)
(8.80878 -0.248664 0)
(8.81651 -0.26823 0)
(8.8236 -0.288961 0)
(8.33377 0.00647825 0)
(8.34159 0.0185177 0)
(8.35744 0.026928 0)
(8.37796 0.0306844 0)
(8.40038 0.0303785 0)
(8.42347 0.0269034 0)
(8.44651 0.0210575 0)
(8.46894 0.0135749 0)
(8.49049 0.00505774 0)
(8.51109 -0.00406926 0)
(8.53075 -0.0135267 0)
(8.54949 -0.0231404 0)
(8.56737 -0.0328159 0)
(8.58443 -0.0425171 0)
(8.60074 -0.0522468 0)
(8.61633 -0.0620341 0)
(8.63126 -0.0719248 0)
(8.64556 -0.0819751 0)
(8.65925 -0.0922471 0)
(8.67237 -0.102806 0)
(8.68494 -0.113717 0)
(8.69696 -0.125046 0)
(8.70845 -0.136857 0)
(8.71941 -0.149214 0)
(8.72984 -0.162179 0)
(8.73972 -0.175812 0)
(8.74906 -0.190175 0)
(8.75783 -0.205329 0)
(8.76601 -0.221336 0)
(8.77355 -0.238263 0)
(8.78042 -0.256172 0)
(8.78654 -0.275156 0)
(8.79188 -0.295189 0)
(8.33366 0.00422262 0)
(8.34041 0.0120302 0)
(8.35423 0.0171996 0)
(8.37249 0.0188625 0)
(8.3929 0.0173389 0)
(8.41434 0.0132545 0)
(8.43609 0.00721543 0)
(8.45755 -0.000204064 0)
(8.47841 -0.00851737 0)
(8.49853 -0.017369 0)
(8.51783 -0.0265193 0)
(8.5363 -0.0358173 0)
(8.55395 -0.0451805 0)
(8.5708 -0.0545778 0)
(8.58688 -0.0640134 0)
(8.60222 -0.0735158 0)
(8.61685 -0.0831293 0)
(8.6308 -0.0929076 0)
(8.6441 -0.10291 0)
(8.65675 -0.113198 0)
(8.66878 -0.123835 0)
(8.6802 -0.134881 0)
(8.69101 -0.146396 0)
(8.70121 -0.15844 0)
(8.71081 -0.171068 0)
(8.71978 -0.184336 0)
(8.72811 -0.198296 0)
(8.73579 -0.213001 0)
(8.74277 -0.228503 0)
(8.74901 -0.244852 0)
(8.75448 -0.262096 0)
(8.75908 -0.280304 0)
(8.7628 -0.299429 0)
(8.33358 0.00220415 0)
(8.33952 0.00619132 0)
(8.35176 0.00830417 0)
(8.36822 0.00783896 0)
(8.38697 0.00495251 0)
(8.40703 7.3956e-05 0)
(8.42766 -0.0063457 0)
(8.44828 -0.013866 0)
(8.46852 -0.0221049 0)
(8.48819 -0.0307754 0)
(8.50716 -0.0396818 0)
(8.52538 -0.0487011 0)
(8.5428 -0.0577678 0)
(8.55944 -0.0668603 0)
(8.57529 -0.0759882 0)
(8.59037 -0.0851821 0)
(8.60471 -0.0944863 0)
(8.61831 -0.103954 0)
(8.63119 -0.113642 0)
(8.64338 -0.123609 0)
(8.65487 -0.133914 0)
(8.66569 -0.144614 0)
(8.67582 -0.155765 0)
(8.68528 -0.167419 0)
(8.69405 -0.179627 0)
(8.70212 -0.192436 0)
(8.70947 -0.20589 0)
(8.71608 -0.220033 0)
(8.72192 -0.234903 0)
(8.72693 -0.250539 0)
(8.73108 -0.266968 0)
(8.73427 -0.284239 0)
(8.73649 -0.302288 0)
(8.33352 0.00036281 0)
(8.33884 0.000840758 0)
(8.34989 4.77212e-05 0)
(8.36493 -0.00256159 0)
(8.38237 -0.0069214 0)
(8.40129 -0.0127424 0)
(8.421 -0.019696 0)
(8.44091 -0.0274523 0)
(8.46063 -0.0357207 0)
(8.4799 -0.0442801 0)
(8.49858 -0.0529802 0)
(8.51656 -0.0617292 0)
(8.53377 -0.0704831 0)
(8.5502 -0.0792339 0)
(8.56583 -0.088 0)
(8.58065 -0.0968174 0)
(8.59468 -0.105734 0)
(8.60793 -0.114802 0)
(8.62041 -0.12408 0)
(8.63212 -0.133624 0)
(8.64308 -0.143492 0)
(8.6533 -0.153735 0)
(8.66276 -0.164407 0)
(8.67148 -0.175553 0)
(8.67945 -0.187218 0)
(8.68664 -0.199442 0)
(8.69305 -0.212261 0)
(8.69864 -0.225707 0)
(8.7034 -0.239808 0)
(8.70726 -0.254587 0)
(8.71019 -0.270058 0)
(8.71211 -0.286249 0)
(8.71301 -0.303084 0)
(8.33348 -0.0013503 0)
(8.33834 -0.00415657 0)
(8.3485 -0.0077441 0)
(8.36249 -0.0125107 0)
(8.37892 -0.0184344 0)
(8.39696 -0.0253228 0)
(8.41596 -0.0329438 0)
(8.43532 -0.0410603 0)
(8.45463 -0.0494635 0)
(8.47361 -0.057995 0)
(8.49206 -0.0665507 0)
(8.50985 -0.0750725 0)
(8.5269 -0.0835402 0)
(8.54315 -0.0919624 0)
(8.55858 -0.100368 0)
(8.57317 -0.108802 0)
(8.58692 -0.117313 0)
(8.59983 -0.125959 0)
(8.61191 -0.134796 0)
(8.62316 -0.143881 0)
(8.6336 -0.153266 0)
(8.64323 -0.163004 0)
(8.65205 -0.173139 0)
(8.66006 -0.183714 0)
(8.66724 -0.194766 0)
(8.6736 -0.206328 0)
(8.67911 -0.218428 0)
(8.68375 -0.231087 0)
(8.68749 -0.244323 0)
(8.69029 -0.258147 0)
(8.69212 -0.272557 0)
(8.6929 -0.287565 0)
(8.69264 -0.303088 0)
(8.33345 -0.00297888 0)
(8.338 -0.00892129 0)
(8.34754 -0.0152328 0)
(8.36078 -0.0221741 0)
(8.37649 -0.0297349 0)
(8.39391 -0.0377867 0)
(8.4124 -0.0461701 0)
(8.43138 -0.0547245 0)
(8.45041 -0.063312 0)
(8.46919 -0.0718339 0)
(8.48749 -0.0802325 0)
(8.50515 -0.0884863 0)
(8.52207 -0.0966029 0)
(8.53817 -0.104612 0)
(8.55342 -0.112557 0)
(8.56778 -0.120494 0)
(8.58126 -0.128481 0)
(8.59385 -0.136578 0)
(8.60554 -0.144844 0)
(8.61635 -0.153337 0)
(8.62629 -0.162108 0)
(8.63535 -0.171206 0)
(8.64354 -0.180672 0)
(8.65087 -0.190545 0)
(8.65732 -0.200856 0)
(8.66288 -0.21163 0)
(8.66755 -0.222886 0)
(8.67131 -0.234639 0)
(8.67413 -0.246894 0)
(8.67597 -0.259652 0)
(8.67682 -0.272901 0)
(8.67661 -0.286639 0)
(8.67537 -0.300777 0)
(8.33343 -0.00456342 0)
(8.33778 -0.0135665 0)
(8.34694 -0.0225775 0)
(8.35973 -0.0317302 0)
(8.37502 -0.0410083 0)
(8.3921 -0.050327 0)
(8.41033 -0.0595862 0)
(8.42913 -0.0686914 0)
(8.44806 -0.0775695 0)
(8.46679 -0.0861774 0)
(8.48506 -0.0945028 0)
(8.50269 -0.10256 0)
(8.51957 -0.110386 0)
(8.53559 -0.118029 0)
(8.55072 -0.125551 0)
(8.56491 -0.133017 0)
(8.57816 -0.140494 0)
(8.59045 -0.148047 0)
(8.60179 -0.155738 0)
(8.61219 -0.163625 0)
(8.62164 -0.171761 0)
(8.63017 -0.180189 0)
(8.63777 -0.188951 0)
(8.64445 -0.198079 0)
(8.6502 -0.207598 0)
(8.65503 -0.217529 0)
(8.65892 -0.227884 0)
(8.66186 -0.238669 0)
(8.66384 -0.249882 0)
(8.66483 -0.261514 0)
(8.66481 -0.273544 0)
(8.66374 -0.285961 0)
(8.66164 -0.298672 0)
(8.33342 -0.00614204 0)
(8.33769 -0.0182008 0)
(8.34669 -0.0299317 0)
(8.35931 -0.0413434 0)
(8.37445 -0.0523964 0)
(8.39145 -0.0630295 0)
(8.40965 -0.0731865 0)
(8.42847 -0.0828299 0)
(8.44746 -0.0919474 0)
(8.46625 -0.100553 0)
(8.48459 -0.108685 0)
(8.50228 -0.116399 0)
(8.51917 -0.123768 0)
(8.53517 -0.130867 0)
(8.55021 -0.13778 0)
(8.56427 -0.144587 0)
(8.57732 -0.151367 0)
(8.58935 -0.158193 0)
(8.60036 -0.165131 0)
(8.61037 -0.172242 0)
(8.61938 -0.179576 0)
(8.62741 -0.187179 0)
(8.63446 -0.195088 0)
(8.64054 -0.20333 0)
(8.64565 -0.211928 0)
(8.6498 -0.220895 0)
(8.65298 -0.230237 0)
(8.6552 -0.239953 0)
(8.65644 -0.250036 0)
(8.65668 -0.260468 0)
(8.65593 -0.271223 0)
(8.65415 -0.282282 0)
(8.65138 -0.293552 0)
(8.33342 -0.0077557 0)
(8.33773 -0.0229443 0)
(8.3468 -0.0374825 0)
(8.35955 -0.0512603 0)
(8.37488 -0.0642164 0)
(8.39211 -0.0763121 0)
(8.41061 -0.0875318 0)
(8.42974 -0.0978897 0)
(8.44905 -0.107427 0)
(8.46814 -0.116208 0)
(8.48675 -0.124315 0)
(8.50464 -0.131841 0)
(8.52168 -0.138888 0)
(8.53776 -0.14556 0)
(8.55281 -0.15196 0)
(8.5668 -0.158185 0)
(8.5797 -0.164325 0)
(8.59151 -0.170463 0)
(8.60224 -0.176672 0)
(8.6119 -0.183016 0)
(8.6205 -0.189549 0)
(8.62805 -0.196315 0)
(8.63458 -0.20335 0)
(8.6401 -0.21068 0)
(8.64462 -0.218323 0)
(8.64814 -0.22629 0)
(8.65068 -0.234582 0)
(8.65224 -0.243193 0)
(8.65281 -0.252109 0)
(8.6524 -0.26131 0)
(8.65101 -0.270764 0)
(8.64862 -0.280446 0)
(8.64527 -0.290266 0)
(8.33344 -0.00944869 0)
(8.33788 -0.0279165 0)
(8.34726 -0.0453817 0)
(8.36041 -0.0615961 0)
(8.37621 -0.0764596 0)
(8.39396 -0.0899438 0)
(8.41297 -0.102072 0)
(8.43263 -0.11292 0)
(8.45242 -0.122599 0)
(8.47196 -0.13124 0)
(8.49096 -0.138986 0)
(8.50918 -0.145982 0)
(8.52647 -0.152373 0)
(8.54271 -0.158296 0)
(8.55785 -0.163877 0)
(8.57184 -0.169234 0)
(8.58467 -0.17447 0)
(8.59632 -0.179677 0)
(8.60682 -0.184934 0)
(8.61619 -0.190308 0)
(8.62443 -0.195853 0)
(8.63158 -0.201613 0)
(8.63765 -0.207622 0)
(8.64267 -0.213904 0)
(8.64666 -0.220473 0)
(8.64963 -0.227335 0)
(8.65161 -0.234488 0)
(8.65259 -0.241922 0)
(8.65261 -0.24962 0)
(8.65165 -0.257556 0)
(8.64974 -0.265698 0)
(8.64687 -0.274018 0)
(8.64311 -0.282428 0)
(8.33347 -0.0112775 0)
(8.33821 -0.0333003 0)
(8.34821 -0.0539669 0)
(8.36219 -0.0729092 0)
(8.37894 -0.090013 0)
(8.39769 -0.105267 0)
(8.41771 -0.118723 0)
(8.43832 -0.130494 0)
(8.45898 -0.140737 0)
(8.47929 -0.149631 0)
(8.49893 -0.157364 0)
(8.51768 -0.164128 0)
(8.53536 -0.170106 0)
(8.55189 -0.17547 0)
(8.5672 -0.180378 0)
(8.58125 -0.184972 0)
(8.59403 -0.189375 0)
(8.60557 -0.193693 0)
(8.61586 -0.198018 0)
(8.62495 -0.202423 0)
(8.63285 -0.206968 0)
(8.63961 -0.211701 0)
(8.64525 -0.216655 0)
(8.6498 -0.221854 0)
(8.65329 -0.227311 0)
(8.65575 -0.23303 0)
(8.65721 -0.239007 0)
(8.65767 -0.245229 0)
(8.65718 -0.251676 0)
(8.65574 -0.258321 0)
(8.65338 -0.26513 0)
(8.65009 -0.272072 0)
(8.64595 -0.279065 0)
(8.3335 -0.013302 0)
(8.33867 -0.0392117 0)
(8.34952 -0.0632444 0)
(8.36459 -0.0848466 0)
(8.38253 -0.103882 0)
(8.40251 -0.12039 0)
(8.42375 -0.134511 0)
(8.44553 -0.146469 0)
(8.46728 -0.156527 0)
(8.48858 -0.164954 0)
(8.50909 -0.172012 0)
(8.52857 -0.177948 0)
(8.54686 -0.182989 0)
(8.56385 -0.187341 0)
(8.57949 -0.191184 0)
(8.59376 -0.194676 0)
(8.60664 -0.197955 0)
(8.61817 -0.201133 0)
(8.62837 -0.204307 0)
(8.63727 -0.207554 0)
(8.64493 -0.210936 0)
(8.65137 -0.2145 0)
(8.65666 -0.218278 0)
(8.66081 -0.222294 0)
(8.66389 -0.226558 0)
(8.66592 -0.231072 0)
(8.66693 -0.23583 0)
(8.66697 -0.240818 0)
(8.66606 -0.246015 0)
(8.66423 -0.251392 0)
(8.66153 -0.256916 0)
(8.65795 -0.262556 0)
(8.6536 -0.268234 0)
(8.33358 -0.0156354 0)
(8.3395 -0.0461176 0)
(8.35187 -0.0742955 0)
(8.3689 -0.0994882 0)
(8.38895 -0.121545 0)
(8.41102 -0.140478 0)
(8.43423 -0.156411 0)
(8.45778 -0.169592 0)
(8.48107 -0.18034 0)
(8.50367 -0.188996 0)
(8.52526 -0.195898 0)
(8.5456 -0.20137 0)
(8.56456 -0.205709 0)
(8.58206 -0.209178 0)
(8.59804 -0.212007 0)
(8.6125 -0.214394 0)
(8.62547 -0.216503 0)
(8.63697 -0.218472 0)
(8.64705 -0.22041 0)
(8.65576 -0.222406 0)
(8.66316 -0.224527 0)
(8.66929 -0.226823 0)
(8.67422 -0.229329 0)
(8.678 -0.232068 0)
(8.68067 -0.235048 0)
(8.68228 -0.238271 0)
(8.68288 -0.241728 0)
(8.68251 -0.245405 0)
(8.68122 -0.249279 0)
(8.67903 -0.253322 0)
(8.676 -0.257499 0)
(8.67214 -0.261779 0)
(8.66753 -0.266089 0)
(8.33364 -0.0183406 0)
(8.34031 -0.053799 0)
(8.35424 -0.0858103 0)
(8.37324 -0.113521 0)
(8.39542 -0.136993 0)
(8.41976 -0.156508 0)
(8.44526 -0.172428 0)
(8.47103 -0.185191 0)
(8.49639 -0.19525 0)
(8.52084 -0.203028 0)
(8.54404 -0.208918 0)
(8.56576 -0.21328 0)
(8.58584 -0.216437 0)
(8.60423 -0.218669 0)
(8.62089 -0.220223 0)
(8.63584 -0.221308 0)
(8.64913 -0.222099 0)
(8.6608 -0.222741 0)
(8.67093 -0.223352 0)
(8.67959 -0.224024 0)
(8.68685 -0.224829 0)
(8.69278 -0.22582 0)
(8.69746 -0.227032 0)
(8.70094 -0.228487 0)
(8.7033 -0.230197 0)
(8.70459 -0.232161 0)
(8.70486 -0.234371 0)
(8.70418 -0.236813 0)
(8.70259 -0.239463 0)
(8.70015 -0.242295 0)
(8.6969 -0.245275 0)
(8.69288 -0.248375 0)
(8.68821 -0.251524 0)
(8.33389 -0.0217984 0)
(8.34256 -0.0643173 0)
(8.36005 -0.102959 0)
(8.38312 -0.136538 0)
(8.40922 -0.164869 0)
(8.43709 -0.188014 0)
(8.46567 -0.206311 0)
(8.49404 -0.220342 0)
(8.52157 -0.230757 0)
(8.54784 -0.23818 0)
(8.57253 -0.243193 0)
(8.59546 -0.246312 0)
(8.61652 -0.247984 0)
(8.63566 -0.248588 0)
(8.65288 -0.248436 0)
(8.66822 -0.247785 0)
(8.68175 -0.246842 0)
(8.69352 -0.24577 0)
(8.70364 -0.244696 0)
(8.71218 -0.243719 0)
(8.71924 -0.242909 0)
(8.72491 -0.242318 0)
(8.72926 -0.241978 0)
(8.73239 -0.241909 0)
(8.73435 -0.242117 0)
(8.73523 -0.2426 0)
(8.73508 -0.243347 0)
(8.73399 -0.244343 0)
(8.73199 -0.245565 0)
(8.72916 -0.246987 0)
(8.72554 -0.248576 0)
(8.72119 -0.250305 0)
(8.71619 -0.252105 0)
(8.33385 -0.0257504 0)
(8.34334 -0.0742457 0)
(8.36322 -0.115702 0)
(8.38966 -0.149889 0)
(8.4198 -0.177896 0)
(8.45216 -0.200404 0)
(8.48527 -0.21798 0)
(8.51788 -0.231284 0)
(8.54919 -0.240945 0)
(8.57869 -0.247542 0)
(8.60608 -0.251617 0)
(8.63115 -0.253671 0)
(8.65386 -0.254151 0)
(8.6742 -0.25345 0)
(8.69225 -0.251902 0)
(8.70808 -0.249791 0)
(8.72183 -0.247348 0)
(8.73361 -0.24476 0)
(8.74355 -0.242175 0)
(8.75177 -0.239703 0)
(8.7584 -0.237427 0)
(8.76355 -0.235405 0)
(8.76733 -0.233674 0)
(8.76984 -0.232254 0)
(8.77118 -0.231152 0)
(8.77141 -0.230367 0)
(8.77063 -0.229887 0)
(8.76891 -0.229697 0)
(8.76632 -0.229774 0)
(8.76294 -0.230095 0)
(8.75882 -0.230628 0)
(8.75404 -0.23135 0)
(8.74872 -0.232189 0)
(8.33495 -0.0325094 0)
(8.35103 -0.0961213 0)
(8.37954 -0.151627 0)
(8.41341 -0.196932 0)
(8.4492 -0.232414 0)
(8.48598 -0.258902 0)
(8.52261 -0.277726 0)
(8.558 -0.290373 0)
(8.59151 -0.298131 0)
(8.62273 -0.302078 0)
(8.65141 -0.303122 0)
(8.6774 -0.302006 0)
(8.70069 -0.299325 0)
(8.72135 -0.295553 0)
(8.73949 -0.29107 0)
(8.75524 -0.286173 0)
(8.76878 -0.281092 0)
(8.78027 -0.276006 0)
(8.78986 -0.27105 0)
(8.79773 -0.266322 0)
(8.80401 -0.26189 0)
(8.80885 -0.257801 0)
(8.81236 -0.254079 0)
(8.81466 -0.250737 0)
(8.81585 -0.247775 0)
(8.81602 -0.245184 0)
(8.81525 -0.242951 0)
(8.81363 -0.241059 0)
(8.81121 -0.239488 0)
(8.80806 -0.23822 0)
(8.80427 -0.23723 0)
(8.79988 -0.236499 0)
(8.795 -0.23596 0)
(8.334 -0.0373783 0)
(8.34958 -0.101958 0)
(8.38293 -0.152616 0)
(8.42485 -0.194096 0)
(8.46989 -0.228382 0)
(8.51561 -0.255217 0)
(8.55992 -0.275055 0)
(8.60164 -0.288797 0)
(8.64045 -0.297305 0)
(8.67627 -0.301458 0)
(8.70917 -0.30215 0)
(8.73926 -0.300199 0)
(8.76674 -0.296315 0)
(8.79177 -0.291097 0)
(8.8145 -0.285032 0)
(8.83508 -0.278506 0)
(8.85365 -0.271817 0)
(8.87033 -0.265186 0)
(8.88524 -0.258775 0)
(8.8985 -0.252696 0)
(8.9102 -0.24702 0)
(8.92045 -0.241791 0)
(8.92934 -0.237025 0)
(8.93696 -0.232726 0)
(8.94339 -0.22888 0)
(8.9487 -0.225469 0)
(8.95296 -0.222471 0)
(8.95624 -0.219861 0)
(8.95861 -0.217619 0)
(8.96011 -0.215728 0)
(8.96085 -0.21418 0)
(8.96088 -0.21297 0)
(8.96037 -0.212051 0)
(8.33956 -0.0613424 0)
(8.37671 -0.17223 0)
(8.42531 -0.252124 0)
(8.47422 -0.306654 0)
(8.52558 -0.342952 0)
(8.58094 -0.365427 0)
(8.63873 -0.378194 0)
(8.69767 -0.38435 0)
(8.75681 -0.385848 0)
(8.81504 -0.38401 0)
(8.87134 -0.379771 0)
(8.92494 -0.373794 0)
(8.97528 -0.36657 0)
(9.02199 -0.358481 0)
(9.06488 -0.349833 0)
(9.10389 -0.340882 0)
(9.13906 -0.331836 0)
(9.17054 -0.322866 0)
(9.19849 -0.314109 0)
(9.22315 -0.305667 0)
(9.24472 -0.297614 0)
(9.26346 -0.29 0)
(9.27959 -0.282852 0)
(9.29332 -0.276178 0)
(9.30486 -0.269977 0)
(9.31439 -0.264233 0)
(9.32207 -0.258932 0)
(9.32804 -0.254055 0)
(9.33245 -0.249598 0)
(9.3354 -0.245558 0)
(9.33702 -0.241987 0)
(9.3374 -0.23889 0)
(9.33681 -0.236454 0)
(8.33754 -0.0471662 0)
(8.39314 -0.122849 0)
(8.4929 -0.188142 0)
(8.60709 -0.251286 0)
(8.72822 -0.305758 0)
(8.85075 -0.348362 0)
(8.96772 -0.379791 0)
(9.07494 -0.400913 0)
(9.17018 -0.41286 0)
(9.25219 -0.41721 0)
(9.32069 -0.415581 0)
(9.37613 -0.409434 0)
(9.41939 -0.40003 0)
(9.4516 -0.38842 0)
(9.47401 -0.375445 0)
(9.48787 -0.361762 0)
(9.49438 -0.34787 0)
(9.49467 -0.334139 0)
(9.48972 -0.320827 0)
(9.4804 -0.308112 0)
(9.46748 -0.296101 0)
(9.45161 -0.284848 0)
(9.43333 -0.274371 0)
(9.4131 -0.264655 0)
(9.39132 -0.255665 0)
(9.36828 -0.247351 0)
(9.34426 -0.239654 0)
(9.31943 -0.232515 0)
(9.29395 -0.225888 0)
(9.26786 -0.219741 0)
(9.24134 -0.214167 0)
(9.21406 -0.209124 0)
(9.18684 -0.205683 0)
(8.40929 -0.221946 0)
(8.63496 -0.430155 0)
(8.8326 -0.525573 0)
(8.97524 -0.587282 0)
(9.06721 -0.621068 0)
(9.1075 -0.632521 0)
(9.10044 -0.629212 0)
(9.05548 -0.61521 0)
(8.98156 -0.593353 0)
(8.88618 -0.566217 0)
(8.77588 -0.535874 0)
(8.65609 -0.503916 0)
(8.53104 -0.47158 0)
(8.40399 -0.43979 0)
(8.27733 -0.409202 0)
(8.1528 -0.38025 0)
(8.03161 -0.353196 0)
(7.91454 -0.328168 0)
(7.80204 -0.305197 0)
(7.69438 -0.284244 0)
(7.59161 -0.265222 0)
(7.49369 -0.248014 0)
(7.40049 -0.232482 0)
(7.31183 -0.218478 0)
(7.22752 -0.205847 0)
(7.14731 -0.194433 0)
(7.07097 -0.184071 0)
(6.99826 -0.174605 0)
(6.92888 -0.165844 0)
(6.86246 -0.157615 0)
(6.79862 -0.149802 0)
(6.73625 -0.141492 0)
(6.67581 -0.136469 0)
(8.13692 -0.207532 0)
(7.84657 -0.388986 0)
(7.38247 -0.440747 0)
(6.85459 -0.441637 0)
(6.35209 -0.410467 0)
(5.87793 -0.361563 0)
(5.43482 -0.307236 0)
(5.03022 -0.253908 0)
(4.66525 -0.204818 0)
(4.33798 -0.161594 0)
(4.04606 -0.12469 0)
(3.78668 -0.093884 0)
(3.55666 -0.0686323 0)
(3.35285 -0.0482414 0)
(3.17225 -0.0319819 0)
(3.01209 -0.019164 0)
(2.86981 -0.00917178 0)
(2.74314 -0.00147442 0)
(2.63007 0.00437477 0)
(2.5288 0.00874537 0)
(2.4378 0.01194 0)
(2.3557 0.0142052 0)
(2.28134 0.0157419 0)
(2.21372 0.0167145 0)
(2.15196 0.0172639 0)
(2.09536 0.0175122 0)
(2.04329 0.0175944 0)
(1.99533 0.0176462 0)
(1.95093 0.0179222 0)
(1.91035 0.0187621 0)
(1.87255 0.0205659 0)
(1.83998 0.026192 0)
(1.81013 0.0212769 0)
(2.02326 -0.186312 0)
(2.03726 -0.216855 0)
(2.11067 -0.152781 0)
(2.43868 0.0977875 0)
(3.10855 0.472996 0)