/*--------------------------------*- C++ -*----------------------------------*\
| =========                 |                                                 |
| \\      /  F ield         | OpenFOAM: The Open Source CFD Toolbox           |
|  \\    /   O peration     | Version:  2.1.1                                 |
|   \\  /    A nd           | Web:      www.OpenFOAM.org                      |
|    \\/     M anipulation  |                                                 |
\*---------------------------------------------------------------------------*/
FoamFile
{
    version     2.0;
    format      ascii;
    class       volScalarField;
    location    "0.185";
    object      epsilon;
}
// * * * * * * * * * * * * * * * * * * * * * * * * * * * * * * * * * * * * * //

dimensions      [0 2 -3 0 0 0 0];

internalField   nonuniform List<scalar> 
6820
(
151.448
203.151
260.735
321.761
383.628
443.723
499.762
550.033
593.481
629.665
658.651
680.879
697.025
707.886
714.287
717.026
716.831
714.345
710.117
704.607
698.19
691.171
683.789
676.231
668.642
661.129
653.767
646.628
639.662
633.281
625.595
625.644
590.066
11.7448
21.4175
29.9444
38.6256
47.5823
56.5606
65.3238
73.6704
81.4384
88.5193
94.8581
100.448
105.319
109.528
113.145
116.25
118.919
121.224
123.232
125.001
126.578
128.006
129.32
130.547
131.711
132.834
133.936
135.04
136.171
137.402
138.747
140.694
142.855
5.83781
7.51676
9.20652
10.8091
12.3196
13.7471
15.088
16.3388
17.4977
18.5646
19.5413
20.4314
21.2401
21.974
22.6403
23.2467
23.8007
24.3099
24.781
25.2205
25.6341
26.0268
26.4031
26.7667
27.1209
27.4685
27.8119
28.1534
28.4946
28.8384
29.1875
29.5379
29.9418
5.2423
5.56004
6.00442
6.49343
6.98563
7.46179
7.91283
8.33444
8.72494
9.08418
9.41292
9.7125
9.98462
10.2312
10.4542
10.6557
10.8377
11.0022
11.1509
11.2857
11.4082
11.5198
11.622
11.7161
11.803
11.8839
11.9595
12.0306
12.0975
12.1607
12.2197
12.2748
12.3239
5.17349
5.18677
5.26821
5.39775
5.55636
5.72966
5.90777
6.08425
6.25507
6.41782
6.57108
6.71418
6.84686
6.9692
7.08146
7.18406
7.2775
7.36232
7.43911
7.50846
7.57095
7.62716
7.67763
7.72291
7.76347
7.7998
7.83231
7.8614
7.88743
7.9107
7.93145
7.94992
7.96618
5.16878
5.12131
5.09603
5.09482
5.11536
5.15307
5.20299
5.26075
5.32293
5.38693
5.4509
5.51351
5.57383
5.63126
5.68541
5.73605
5.78309
5.82651
5.86638
5.90279
5.9359
5.96585
5.99283
6.01703
6.03862
6.05781
6.07478
6.08972
6.1028
6.11419
6.12406
6.13253
6.13978
5.16887
5.11169
5.06115
5.01963
4.9884
4.96754
4.95615
4.95279
4.95587
4.96386
4.97543
4.98946
5.00504
5.02145
5.03813
5.05464
5.07067
5.08598
5.10039
5.11379
5.12612
5.13734
5.14743
5.15641
5.1643
5.17115
5.17699
5.18189
5.1859
5.18909
5.19153
5.19326
5.19437
5.16902
5.11063
5.05514
5.00339
4.95619
4.91413
4.87746
4.8461
4.81971
4.7978
4.77978
4.76509
4.75315
4.74347
4.7356
4.72915
4.72379
4.71926
4.71533
4.71181
4.70856
4.70545
4.70239
4.69932
4.69617
4.69291
4.6895
4.68594
4.68222
4.67832
4.67427
4.67005
4.66569
5.16904
5.11054
5.05431
5.00049
4.94927
4.9009
4.85558
4.81345
4.77454
4.73879
4.70608
4.6762
4.64893
4.62402
4.60122
4.5803
4.56103
4.54321
4.52666
4.5112
4.4967
4.48302
4.47006
4.45773
4.44593
4.4346
4.42369
4.41314
4.40291
4.39298
4.3833
4.37386
4.36463
5.16904
5.11054
5.0542
5.00002
4.94795
4.89803
4.85026
4.8047
4.76136
4.72026
4.68136
4.64462
4.60997
4.57731
4.54654
4.51754
4.49018
4.46436
4.43995
4.41683
4.39491
4.37409
4.35427
4.33537
4.31732
4.30004
4.28348
4.26758
4.25229
4.23756
4.22336
4.20965
4.19639
5.16904
5.11053
5.05418
4.99994
4.94772
4.89747
4.84912
4.80264
4.75798
4.71512
4.67403
4.63467
4.597
4.56097
4.52654
4.49364
4.46221
4.43217
4.40347
4.37603
4.34979
4.32467
4.30061
4.27756
4.25545
4.23422
4.21383
4.19423
4.17537
4.15721
4.13971
4.12284
4.10655
5.16904
5.11053
5.05417
4.99991
4.94767
4.89735
4.84887
4.80217
4.75718
4.71383
4.67207
4.63185
4.59313
4.55586
4.51999
4.48547
4.45227
4.42033
4.3896
4.36003
4.33159
4.30421
4.27786
4.2525
4.22806
4.20453
4.18184
4.15997
4.13888
4.11853
4.09888
4.07992
4.06159
5.16904
5.11052
5.05416
4.99989
4.94764
4.8973
4.8488
4.80205
4.75697
4.7135
4.67156
4.6311
4.59206
4.55438
4.51802
4.48293
4.44906
4.41636
4.3848
4.35433
4.32492
4.29651
4.26908
4.24259
4.21699
4.19227
4.16837
4.14528
4.12295
4.10137
4.08049
4.0603
4.04076
5.16904
5.11052
5.05415
4.99988
4.94762
4.89727
4.84876
4.80199
4.75689
4.71338
4.6714
4.63087
4.59174
4.55395
4.51744
4.48216
4.44807
4.41512
4.38325
4.35245
4.32265
4.29383
4.26595
4.23898
4.21288
4.18761
4.16316
4.13948
4.11656
4.09436
4.07286
4.05203
4.03184
5.16903
5.11051
5.05414
4.99987
4.9476
4.89725
4.84873
4.80195
4.75684
4.71332
4.67132
4.63077
4.59161
4.55378
4.51723
4.48189
4.44773
4.41469
4.38273
4.35181
4.32189
4.29292
4.26487
4.23771
4.21141
4.18593
4.16125
4.13732
4.11414
4.09167
4.06988
4.04876
4.02827
5.16903
5.11051
5.05414
4.99986
4.94758
4.89723
4.8487
4.80191
4.75679
4.71326
4.67125
4.63069
4.59152
4.55368
4.5171
4.48175
4.44757
4.4145
4.38251
4.35155
4.32157
4.29256
4.26445
4.23723
4.21085
4.18529
4.16052
4.1365
4.11322
4.09063
4.06873
4.04748
4.02686
5.16903
5.1105
5.05413
4.99985
4.94757
4.89721
4.84867
4.80188
4.75675
4.71321
4.67119
4.63063
4.59144
4.55359
4.51701
4.48164
4.44745
4.41437
4.38236
4.35138
4.32139
4.29235
4.26423
4.23698
4.21058
4.18499
4.16018
4.13612
4.1128
4.09017
4.06822
4.04692
4.02624
5.16903
5.1105
5.05412
4.99984
4.94756
4.89719
4.84865
4.80185
4.75672
4.71317
4.67114
4.63057
4.59138
4.55352
4.51692
4.48155
4.44734
4.41425
4.38224
4.35125
4.32125
4.2922
4.26406
4.2368
4.21038
4.18478
4.15995
4.13588
4.11253
4.08989
4.06791
4.04659
4.02589
5.16903
5.1105
5.05412
4.99983
4.94755
4.89718
4.84863
4.80183
4.75668
4.71313
4.6711
4.63051
4.59132
4.55345
4.51685
4.48147
4.44725
4.41415
4.38213
4.35113
4.32112
4.29206
4.26391
4.23664
4.21022
4.1846
4.15976
4.13568
4.11232
4.08966
4.06767
4.04634
4.02562
5.16903
5.1105
5.05412
4.99983
4.94754
4.89716
4.84861
4.8018
4.75666
4.7131
4.67106
4.63046
4.59126
4.55338
4.51678
4.48139
4.44716
4.41406
4.38203
4.35102
4.321
4.29194
4.26378
4.2365
4.21006
4.18444
4.15959
4.1355
4.11213
4.08946
4.06746
4.04611
4.02538
5.16903
5.1105
5.05411
4.99982
4.94753
4.89715
4.8486
4.80178
4.75663
4.71307
4.67102
4.63042
4.59121
4.55333
4.51671
4.48132
4.44709
4.41397
4.38193
4.35092
4.32089
4.29182
4.26365
4.23637
4.20992
4.18429
4.15943
4.13533
4.11195
4.08927
4.06726
4.0459
4.02516
5.16903
5.11049
5.05411
4.99981
4.94752
4.89714
4.84858
4.80176
4.75661
4.71304
4.67099
4.63038
4.59117
4.55328
4.51666
4.48125
4.44701
4.41389
4.38185
4.35083
4.32079
4.29171
4.26354
4.23624
4.20979
4.18415
4.15928
4.13517
4.11178
4.08909
4.06707
4.0457
4.02495
5.16903
5.11049
5.05411
4.99981
4.94752
4.89713
4.84857
4.80175
4.75659
4.71301
4.67096
4.63035
4.59113
4.55323
4.5166
4.48119
4.44695
4.41382
4.38177
4.35074
4.3207
4.29161
4.26343
4.23613
4.20966
4.18401
4.15914
4.13502
4.11163
4.08892
4.0669
4.04552
4.02476
5.16903
5.11049
5.05411
4.99981
4.94751
4.89712
4.84856
4.80174
4.75657
4.71299
4.67093
4.63032
4.59109
4.55319
4.51656
4.48114
4.44689
4.41376
4.3817
4.35066
4.32062
4.29152
4.26333
4.23602
4.20955
4.18389
4.15901
4.13488
4.11148
4.08877
4.06673
4.04534
4.02457
5.16903
5.11049
5.0541
4.9998
4.94751
4.89712
4.84855
4.80172
4.75656
4.71297
4.67091
4.63029
4.59106
4.55315
4.51652
4.48109
4.44684
4.4137
4.38163
4.35059
4.32054
4.29144
4.26324
4.23592
4.20945
4.18378
4.15889
4.13476
4.11134
4.08862
4.06658
4.04518
4.0244
5.16903
5.11049
5.0541
4.9998
4.9475
4.89711
4.84854
4.80171
4.75654
4.71296
4.67089
4.63027
4.59103
4.55312
4.51648
4.48106
4.44679
4.41365
4.38158
4.35053
4.32047
4.29136
4.26316
4.23584
4.20935
4.18368
4.15878
4.13464
4.11122
4.08849
4.06644
4.04503
4.02425
5.16903
5.11049
5.0541
4.9998
4.9475
4.89711
4.84854
4.8017
4.75653
4.71294
4.67087
4.63025
4.59101
4.55309
4.51645
4.48102
4.44675
4.4136
4.38152
4.35047
4.32041
4.29129
4.26309
4.23576
4.20927
4.18359
4.15868
4.13453
4.1111
4.08837
4.06631
4.0449
4.0241
5.16903
5.11049
5.0541
4.9998
4.9475
4.89711
4.84853
4.8017
4.75653
4.71294
4.67086
4.63024
4.59099
4.55308
4.51643
4.48099
4.44672
4.41357
4.38149
4.35043
4.32036
4.29124
4.26303
4.23569
4.2092
4.18351
4.1586
4.13444
4.11101
4.08827
4.0662
4.04478
4.02398
5.16903
5.11049
5.0541
4.9998
4.9475
4.8971
4.84853
4.80169
4.75651
4.71292
4.67084
4.63021
4.59097
4.55305
4.5164
4.48096
4.44669
4.41353
4.38144
4.35038
4.32031
4.29119
4.26297
4.23563
4.20913
4.18344
4.15852
4.13436
4.11092
4.08817
4.0661
4.04467
4.02386
5.16903
5.11049
5.0541
4.9998
4.9475
4.89711
4.84854
4.8017
4.75653
4.71294
4.67086
4.63023
4.59099
4.55306
4.51641
4.48097
4.44669
4.41353
4.38144
4.35038
4.3203
4.29117
4.26295
4.2356
4.2091
4.1834
4.15848
4.13431
4.11087
4.08812
4.06604
4.0446
4.02379
5.16903
5.11049
5.0541
4.9998
4.9475
4.8971
4.84853
4.80169
4.75651
4.71292
4.67084
4.63021
4.59096
4.55304
4.51638
4.48094
4.44667
4.41351
4.38142
4.35035
4.32028
4.29115
4.26293
4.23558
4.20907
4.18338
4.15846
4.13429
4.11085
4.08809
4.06601
4.04458
4.02377
5.16903
5.11049
5.0541
4.99981
4.94752
4.89714
4.84858
4.80176
4.7566
4.71301
4.67094
4.63032
4.59107
4.55315
4.5165
4.48106
4.44678
4.41362
4.38153
4.35047
4.32039
4.29127
4.26305
4.23571
4.20921
4.18352
4.15861
4.13445
4.11102
4.08828
4.06622
4.0448
4.024
5.16903
5.11051
5.05414
4.99985
4.94756
4.89718
4.84861
4.80178
4.75661
4.71303
4.67096
4.63034
4.59111
4.55321
4.51658
4.48117
4.44692
4.41379
4.38174
4.35072
4.3207
4.29162
4.26346
4.23618
4.20975
4.18413
4.1593
4.13522
4.11188
4.08923
4.06726
4.04594
4.02525
5.16903
5.1105
5.05415
4.99992
4.9477
4.89739
4.8489
4.80214
4.75704
4.71353
4.67153
4.63098
4.59184
4.55403
4.51751
4.48223
4.44813
4.41517
4.38331
4.3525
4.3227
4.29388
4.26599
4.239
4.21288
4.18759
4.16309
4.13937
4.11639
4.09413
4.07255
4.05164
4.03136
5.16905
5.11063
5.0544
5.00025
4.94809
4.89785
4.84947
4.80288
4.75802
4.71483
4.67324
4.6332
4.59464
4.55751
4.52176
4.48732
4.45415
4.4222
4.3914
4.36173
4.33312
4.30554
4.27894
4.25327
4.22851
4.20461
4.18153
4.15924
4.13771
4.11691
4.09679
4.07735
4.05853
5.16908
5.11079
5.05488
5.00137
4.95017
4.90121
4.85442
4.80974
4.76713
4.72652
4.68785
4.65104
4.616
4.58267
4.55093
4.52072
4.49195
4.46453
4.43839
4.41345
4.38963
4.36688
4.34512
4.32429
4.30435
4.28523
4.26688
4.24928
4.23235
4.21608
4.20043
4.18535
4.17081
5.16939
5.11358
5.06201
5.01464
4.97149
4.93251
4.89751
4.86621
4.83832
4.8135
4.79143
4.7718
4.75433
4.73876
4.72487
4.71243
4.70127
4.69122
4.68213
4.67388
4.66635
4.65945
4.6531
4.64721
4.64172
4.63658
4.63174
4.62715
4.62278
4.6186
4.61458
4.61068
4.60691
5.17809
5.16328
5.16953
5.19125
5.22447
5.26616
5.31394
5.36592
5.42068
5.47713
5.53442
5.59191
5.64909
5.70558
5.76107
5.81535
5.86827
5.9197
5.96956
6.01782
6.06445
6.10943
6.15279
6.19453
6.23469
6.2733
6.3104
6.34604
6.38026
6.41311
6.44464
6.47489
6.50394
5.63861
6.43043
7.14586
7.82553
8.49442
9.14654
9.77601
10.3805
10.9598
11.5148
12.0469
12.5576
13.0484
13.5209
13.9761
14.4152
14.8392
15.249
15.6454
16.0289
16.4002
16.7598
17.1083
17.4461
17.7736
18.0912
18.3994
18.6983
18.9884
19.2701
19.5435
19.809
20.067
44.7794
48.3124
51.8864
55.4656
59.0311
62.5709
66.0744
69.532
72.9347
76.275
79.5459
82.7415
85.8571
88.8886
91.8329
94.6876
97.4511
100.122
102.701
105.186
107.579
109.881
112.093
114.216
116.253
118.204
120.072
121.86
123.569
125.203
126.763
128.252
129.674
704.374
838.435
943.488
1021.95
1079.85
1118.76
1137.7
1136.4
1116.48
1081.63
1036.68
986.562
935.368
885.929
839.804
797.547
759.058
723.928
691.673
661.874
634.218
608.493
584.553
562.281
541.563
522.274
504.274
487.415
471.545
456.516
442.19
428.44
415.151
402.222
389.562
377.089
364.731
352.423
340.109
327.74
315.273
302.677
289.927
277.011
263.925
250.68
237.297
223.812
210.273
196.736
183.27
169.952
156.864
144.092
131.721
119.835
108.511
97.8183
87.814
78.5418
70.0302
62.2917
55.3232
49.1064
43.61
38.7921
34.6025
30.9861
27.8855
25.2435
23.0052
21.1195
19.5401
18.2259
17.1413
16.2556
15.5431
14.9825
14.5561
14.2492
14.0501
13.9488
13.9371
14.0078
14.1541
14.3695
14.6469
14.9786
15.3557
15.7675
16.2022
16.6458
17.0831
17.4973
17.8708
18.1849
18.4241
18.5613
18.623
18.411
148.083
155.556
166.162
181.149
201.277
227.042
258.547
295.173
335.486
377.361
418.276
455.683
487.38
511.828
528.323
536.994
538.654
534.545
526.085
514.637
501.365
487.159
472.636
458.176
443.983
430.142
416.671
403.552
390.755
378.245
365.985
353.938
342.064
330.326
318.682
307.096
295.532
283.958
272.349
260.684
248.948
237.133
225.238
213.27
201.246
189.193
177.147
165.154
153.27
141.557
130.084
118.924
108.15
97.8319
88.0372
78.8246
70.2426
62.3277
55.1023
48.5742
42.7366
37.569
33.0387
29.1034
25.7138
22.8165
20.3565
18.2803
16.5369
15.0798
13.8674
12.8638
12.0379
11.3638
10.8203
10.3899
10.0587
9.81567
9.65231
9.56217
9.54045
9.58364
9.68919
9.85514
10.0797
10.361
10.6964
11.0823
11.5136
11.9833
12.4821
12.9986
13.5187
14.0265
14.5043
14.9327
15.294
15.563
15.7477
15.7405
30.3239
30.7534
31.3937
32.4358
34.048
36.4173
39.624
43.8719
49.4808
56.7742
66.0269
77.4173
90.9776
106.555
123.797
142.162
160.97
179.465
196.9
212.615
226.105
237.057
245.357
251.069
254.394
255.614
255.049
253.011
249.779
245.586
240.616
235.004
228.852
222.234
215.206
207.811
200.09
192.077
183.807
175.314
166.631
157.794
148.837
139.8
130.727
121.664
112.665
103.785
95.086
86.6295
78.4777
70.6899
63.3207
56.4175
50.018
44.1493
38.8261
34.0508
29.8134
26.0928
22.8584
20.0726
17.6929
15.6745
13.9728
12.5451
11.3518
10.3575
9.53118
8.84636
8.28075
7.81591
7.43681
7.13134
6.8899
6.70507
6.5712
6.48422
6.44135
6.44098
6.4824
6.56575
6.69176
6.86161
7.0767
7.33832
7.64733
8.0037
8.40607
8.85117
9.33341
9.84446
10.373
10.905
11.4234
11.9093
12.3435
12.7021
12.9763
13.1383
12.375
12.4416
12.5246
12.6294
12.7695
12.966
13.2417
13.6285
14.1402
14.8092
15.6848
16.8265
18.3022
20.1864
22.557
25.49
29.0514
33.2854
38.2029
43.7706
49.905
56.4722
63.2952
70.1677
76.8709
83.1929
88.9446
93.9725
98.1649
101.454
103.81
105.24
105.775
105.467
104.381
102.588
100.166
97.1888
93.7321
89.8674
85.6628
81.1834
76.4914
71.647
66.7091
61.7359
56.7848
51.9117
47.1702
42.6104
38.2768
34.2073
30.4316
26.9706
23.8355
21.0285
18.543
16.3649
14.474
12.8463
11.4548
10.2721
9.27139
8.42728
7.71683
7.11971
6.61831
6.19762
5.84507
5.55024
5.30459
5.10118
4.9345
4.8002
4.69497
4.61637
4.56277
4.53322
4.52745
4.54576
4.58902
4.65865
4.75653
4.88501
5.04672
5.24452
5.48116
5.75906
6.07977
6.44352
6.84858
7.29067
7.7624
8.25311
8.74862
9.2318
9.68344
10.0821
10.4046
10.6874
7.98261
7.99986
8.01619
8.0318
8.0479
8.06699
8.09266
8.12981
8.18308
8.25517
8.35175
8.48025
8.64967
8.8704
9.15418
9.51393
9.96345
10.5171
11.1891
11.993
12.9403
14.0398
15.2953
16.7047
18.2576
19.9345
21.7058
23.5323
25.3666
27.1549
28.841
30.3692
31.688
32.7536
33.5326
34.0033
34.1565
33.9952
33.5325
32.7906
31.798
30.5878
29.1959
27.6599
26.0177
24.3068
22.5635
20.8219
19.1131
17.4642
15.8976
14.4307
13.0756
11.8392
10.7237
9.72739
8.84515
8.06973
7.39232
6.80341
6.29332
5.85268
5.47272
5.14546
4.86374
4.62132
4.41277
4.23345
4.07944
3.94746
3.83482
3.73931
3.65922
3.5932
3.54032
3.49998
3.47192
3.45622
3.45328
3.46383
3.48897
3.53016
3.58923
3.66843
3.77037
3.89801
4.05454
4.24321
4.46707
4.72854
5.02884
5.36745
5.74125
6.1441
6.56616
6.99414
7.41118
7.79941
8.12673
8.473
6.14657
6.15218
6.15564
6.15722
6.15715
6.15578
6.15359
6.15146
6.15031
6.15103
6.15473
6.16277
6.17678
6.1987
6.23069
6.27522
6.3349
6.4125
6.51078
6.63241
6.77986
6.95522
7.16009
7.39537
7.66108
7.95616
8.27823
8.62343
8.98627
9.35953
9.73435
10.1004
10.4463
10.7601
11.03
11.2452
11.3965
11.477
11.4827
11.4121
11.267
11.0513
10.7715
10.4355
10.053
9.63401
9.18927
8.72923
8.26383
7.80207
7.35169
6.91901
6.50888
6.12465
5.76838
5.44094
5.14227
4.87156
4.6275
4.40838
4.2123
4.03728
3.88133
3.74252
3.61906
3.50927
3.41166
3.32487
3.24775
3.17929
3.11865
3.06517
3.01832
2.97773
2.94319
2.91464
2.89218
2.87607
2.86676
2.8649
2.87136
2.88727
2.914
2.95327
3.00711
3.0779
3.16834
3.28142
3.42026
3.5879
3.78694
4.01907
4.28439
4.58078
4.90308
5.24286
5.58758
5.92428
6.21825
6.57049
5.19479
5.19411
5.19205
5.18858
5.1837
5.17744
5.16991
5.1613
5.15177
5.14158
5.13102
5.12042
5.11015
5.10064
5.0924
5.08602
5.08215
5.08152
5.08485
5.09291
5.10639
5.12593
5.15202
5.185
5.22499
5.27184
5.32515
5.38415
5.44776
5.51451
5.58258
5.64982
5.71378
5.77184
5.82126
5.8594
5.88382
5.89242
5.88362
5.85637
5.81025
5.74544
5.66274
5.56344
5.44932
5.32251
5.18541
5.04058
4.89061
4.73804
4.58524
4.4343
4.28705
4.14495
4.00914
3.88043
3.75932
3.64607
3.54071
3.44309
3.35292
3.26983
3.19337
3.12305
3.05838
2.99887
2.94406
2.8935
2.84681
2.80366
2.76376
2.72689
2.69288
2.66165
2.63318
2.60753
2.58483
2.56533
2.54935
2.53737
2.52997
2.52792
2.53216
2.54386
2.56441
2.59551
2.63913
2.69753
2.77323
2.8689
2.98722
3.13052
3.3004
3.49719
3.7192
3.9623
4.21865
4.48054
4.71639
5.02795
4.66035
4.65373
4.64636
4.63817
4.62914
4.61926
4.60854
4.59699
4.58465
4.57154
4.55772
4.54326
4.52823
4.51274
4.4969
4.48084
4.46474
4.44879
4.43319
4.41819
4.40402
4.39091
4.37907
4.36868
4.35984
4.35261
4.34696
4.34273
4.33971
4.33754
4.33576
4.33381
4.33101
4.32665
4.31996
4.31015
4.2965
4.27835
4.25516
4.22654
4.19225
4.15222
4.10657
4.05557
3.99963
3.93931
3.87526
3.80821
3.73895
3.66828
3.59699
3.52582
3.45544
3.38646
3.31935
3.25451
3.19222
3.13268
3.07597
3.02213
2.9711
2.92279
2.87707
2.83378
2.79272
2.75372
2.71659
2.68116
2.64727
2.61478
2.58358
2.55358
2.52474
2.49703
2.47047
2.44513
2.42112
2.3986
2.3778
2.35901
2.34261
2.32909
2.31905
2.31324
2.31256
2.31812
2.33126
2.35352
2.38671
2.43284
2.49404
2.57244
2.66989
2.78765
2.92586
3.08314
3.25537
3.43893
3.60891
3.85275
4.35408
4.34196
4.32954
4.31674
4.30355
4.28992
4.27582
4.26125
4.24618
4.23062
4.21456
4.198
4.18095
4.16341
4.1454
4.12692
4.108
4.08868
4.06901
4.04904
4.02884
4.00848
3.98804
3.9676
3.94721
3.92693
3.90679
3.88679
3.86691
3.84707
3.82719
3.80711
3.78666
3.76563
3.7438
3.72093
3.69679
3.67115
3.64383
3.6147
3.58366
3.55068
3.51578
3.47905
3.44061
3.40067
3.35943
3.31716
3.27414
3.23067
3.18703
3.14351
3.10038
3.05786
3.01616
2.97544
2.93581
2.89736
2.86013
2.82411
2.78928
2.75558
2.72296
2.69131
2.66056
2.63058
2.60131
2.57263
2.54447
2.51675
2.48943
2.46246
2.43582
2.4095
2.38354
2.35798
2.33288
2.30836
2.28456
2.26165
2.23988
2.21953
2.20097
2.18467
2.17118
2.1612
2.15557
2.15531
2.16161
2.17584
2.19955
2.23435
2.28182
2.34331
2.41961
2.51068
2.6147
2.7305
2.84061
3.01053
4.18144
4.16458
4.14766
4.13064
4.11349
4.09619
4.0787
4.061
4.04309
4.02493
4.00652
3.98784
3.96888
3.94961
3.93003
3.91011
3.88985
3.86924
3.84827
3.82694
3.80527
3.78326
3.76093
3.7383
3.71539
3.69223
3.66883
3.64521
3.62139
3.59736
3.57311
3.54864
3.52389
3.49883
3.47341
3.44757
3.42123
3.39435
3.36687
3.33876
3.30999
3.28058
3.25053
3.2199
3.18874
3.15714
3.12519
3.093
3.06068
3.02835
2.99612
2.96411
2.93241
2.90112
2.87031
2.84002
2.81031
2.78117
2.75261
2.7246
2.69712
2.67011
2.64352
2.61727
2.59132
2.56559
2.54001
2.51453
2.48909
2.46364
2.43816
2.41262
2.38701
2.36132
2.33558
2.30981
2.28406
2.2584
2.23291
2.2077
2.18293
2.15875
2.13539
2.11313
2.09229
2.07331
2.05668
2.04303
2.03313
2.02786
2.02824
2.0354
2.05053
2.07474
2.1089
2.15346
2.20783
2.27194
2.3349
2.43923
4.08824
4.06767
4.04716
4.02668
4.00622
3.98576
3.96528
3.94475
3.92417
3.90352
3.88278
3.86194
3.841
3.81992
3.7987
3.77732
3.75576
3.734
3.71203
3.68983
3.66739
3.64471
3.62178
3.59859
3.57516
3.55147
3.52754
3.50338
3.47899
3.45439
3.42959
3.40458
3.37938
3.35398
3.32839
3.3026
3.27661
3.25041
3.224
3.19739
3.17058
3.1436
3.11647
3.08922
3.0619
3.03454
3.0072
2.97992
2.95276
2.92576
2.89897
2.87242
2.84616
2.82021
2.79458
2.76928
2.74431
2.71964
2.69526
2.67113
2.64721
2.62345
2.59981
2.57621
2.55262
2.52898
2.50524
2.48134
2.45726
2.43296
2.40842
2.38361
2.35853
2.33317
2.30756
2.2817
2.25563
2.2294
2.20305
2.17666
2.15032
2.12412
2.0982
2.07273
2.04789
2.02393
2.00116
1.97995
1.96075
1.94411
1.93067
1.92118
1.91644
1.91726
1.9244
1.93838
1.9592
1.9871
2.01635
2.06949
4.04097
4.01781
3.99473
3.97173
3.94879
3.92591
3.90308
3.88028
3.85751
3.83475
3.81201
3.78927
3.76653
3.74377
3.72098
3.69815
3.67527
3.65232
3.62929
3.60617
3.58294
3.5596
3.53612
3.51252
3.48877
3.46488
3.44085
3.41667
3.39235
3.3679
3.34333
3.31864
3.29384
3.26895
3.24397
3.21891
3.19379
3.16862
3.14341
3.11817
3.09292
3.06769
3.04249
3.01736
2.99233
2.96741
2.94265
2.91806
2.89367
2.8695
2.84556
2.82186
2.79841
2.77519
2.75222
2.72946
2.7069
2.68451
2.66225
2.64008
2.61797
2.59586
2.57371
2.55147
2.52908
2.50651
2.48371
2.46065
2.43728
2.41359
2.38955
2.36514
2.34037
2.31523
2.28972
2.26387
2.23769
2.21121
2.18448
2.15753
2.13043
2.10324
2.07604
2.04893
2.02203
1.99548
1.96945
1.94417
1.9199
1.89697
1.87575
1.85671
1.84037
1.82728
1.81798
1.81294
1.81239
1.81649
1.82328
1.83978
4.01873
3.99396
3.96925
3.9446
3.92002
3.8955
3.87104
3.84662
3.82226
3.79795
3.77369
3.74947
3.7253
3.70116
3.67706
3.65298
3.62893
3.60489
3.58085
3.55681
3.53277
3.5087
3.48461
3.46049
3.43633
3.41214
3.3879
3.36361
3.33929
3.31493
3.29054
3.26612
3.24169
3.21725
3.19281
3.16839
3.14399
3.11963
3.09533
3.07109
3.04693
3.02288
2.99894
2.97515
2.95152
2.92807
2.90482
2.88178
2.85896
2.83636
2.81398
2.79183
2.76989
2.74814
2.72657
2.70515
2.68386
2.66265
2.6415
2.62035
2.59918
2.57792
2.55654
2.535
2.51324
2.49123
2.46893
2.44631
2.42333
2.39998
2.37623
2.35207
2.32749
2.3025
2.2771
2.2513
2.22512
2.19858
2.17171
2.14454
2.11712
2.08948
2.0617
2.03382
2.00592
1.97809
1.95045
1.9231
1.89621
1.86997
1.84461
1.82039
1.79764
1.7767
1.75794
1.7417
1.72829
1.71763
1.71033
1.70233
4.00906
3.98339
3.95776
3.93217
3.90662
3.8811
3.85563
3.83021
3.80482
3.77949
3.7542
3.72897
3.70379
3.67866
3.65359
3.62857
3.6036
3.57869
3.55383
3.52901
3.50424
3.4795
3.45481
3.43015
3.40553
3.38094
3.35638
3.33185
3.30736
3.28292
3.25851
3.23416
3.20987
3.18564
3.16148
3.13741
3.11343
3.08956
3.0658
3.04216
3.01866
2.99532
2.97214
2.94914
2.92633
2.90373
2.88134
2.85917
2.83722
2.81549
2.79397
2.77265
2.75151
2.73054
2.70971
2.68899
2.66835
2.64776
2.62717
2.60654
2.58584
2.56502
2.54403
2.52285
2.50141
2.4797
2.45766
2.43528
2.41252
2.38936
2.36579
2.34179
2.31735
2.29248
2.26718
2.24145
2.21532
2.18881
2.16193
2.13471
2.10719
2.0794
2.05138
2.02318
1.99485
1.96646
1.93806
1.90974
1.88159
1.85372
1.82628
1.79942
1.77332
1.74821
1.72432
1.70187
1.68115
1.66188
1.64627
1.6229
4.00512
3.97902
3.95292
3.92684
3.90077
3.87472
3.8487
3.8227
3.79673
3.77079
3.74489
3.71903
3.69322
3.66746
3.64175
3.6161
3.59051
3.56498
3.53951
3.51411
3.48878
3.46351
3.43831
3.41319
3.38813
3.36315
3.33825
3.31343
3.2887
3.26405
3.2395
3.21506
3.19072
3.1665
3.1424
3.11844
3.09461
3.07094
3.04742
3.02407
3.00089
2.9779
2.9551
2.9325
2.91012
2.88795
2.86601
2.84428
2.82278
2.80148
2.78039
2.75949
2.73875
2.71816
2.69769
2.6773
2.65697
2.63666
2.61634
2.59595
2.57547
2.55485
2.53405
2.51304
2.49176
2.47019
2.44829
2.42603
2.4034
2.38036
2.35689
2.333
2.30867
2.2839
2.25869
2.23305
2.20699
2.18054
2.15371
2.12653
2.09902
2.07121
2.04315
2.01486
1.98639
1.95778
1.92908
1.90035
1.87165
1.84305
1.81464
1.78652
1.7588
1.73162
1.70512
1.67944
1.65485
1.63085
1.61065
1.57827
4.00355
3.97725
3.95094
3.92462
3.89831
3.872
3.8457
3.81941
3.79313
3.76688
3.74064
3.71444
3.68827
3.66214
3.63605
3.61002
3.58403
3.55811
3.53225
3.50646
3.48073
3.45509
3.42952
3.40404
3.37864
3.35334
3.32814
3.30304
3.27805
3.25318
3.22843
3.20382
3.17934
3.15501
3.13084
3.10683
3.08299
3.05932
3.03585
3.01256
2.98948
2.96659
2.94393
2.92148
2.89925
2.87725
2.85548
2.83393
2.8126
2.79148
2.77056
2.74981
2.72923
2.70877
2.68843
2.66817
2.64795
2.62774
2.6075
2.5872
2.56679
2.54624
2.52551
2.50455
2.48334
2.46183
2.43999
2.4178
2.39523
2.37226
2.34888
2.32506
2.30081
2.27612
2.251
2.22545
2.19948
2.17311
2.14635
2.11924
2.0918
2.06404
2.03602
2.00775
1.97928
1.95063
1.92186
1.89301
1.86411
1.83524
1.80644
1.77779
1.74936
1.72123
1.69351
1.66627
1.63976
1.61335
1.59081
1.5535
4.00286
3.97647
3.95007
3.92365
3.89723
3.8708
3.84436
3.81793
3.79151
3.76509
3.73869
3.71231
3.68595
3.65962
3.63333
3.60708
3.58087
3.55471
3.52861
3.50257
3.4766
3.45071
3.42489
3.39916
3.37352
3.34797
3.32254
3.29721
3.272
3.24692
3.22198
3.19718
3.17254
3.14806
3.12375
3.09961
3.07567
3.05191
3.02836
3.00502
2.98189
2.95897
2.93629
2.91383
2.8916
2.8696
2.84784
2.8263
2.80498
2.78386
2.76295
2.74221
2.72162
2.70117
2.68082
2.66055
2.64032
2.6201
2.59985
2.57954
2.55912
2.53856
2.51782
2.49687
2.47566
2.45416
2.43235
2.41019
2.38766
2.36473
2.3414
2.31764
2.29346
2.26884
2.2438
2.21833
2.19245
2.16617
2.1395
2.11248
2.08513
2.05746
2.02951
2.00132
1.97291
1.94432
1.91558
1.88674
1.85783
1.8289
1.8
1.77118
1.74249
1.71399
1.68577
1.65786
1.6305
1.60297
1.57933
1.53954
4.00247
3.97605
3.9496
3.92313
3.89665
3.87017
3.84367
3.81717
3.79068
3.76418
3.7377
3.71122
3.68477
3.65833
3.63193
3.60555
3.57922
3.55293
3.52669
3.5005
3.47438
3.44832
3.42234
3.39644
3.37063
3.34492
3.3193
3.2938
3.26843
3.24318
3.21806
3.1931
3.16829
3.14365
3.11919
3.09491
3.07082
3.04693
3.02325
2.99979
2.97654
2.95352
2.93073
2.90817
2.88585
2.86377
2.84191
2.82029
2.79888
2.77768
2.75668
2.73586
2.71519
2.69465
2.67422
2.65387
2.63356
2.61327
2.59295
2.57257
2.5521
2.53149
2.5107
2.48971
2.46848
2.44697
2.42515
2.40299
2.38048
2.35758
2.33429
2.31058
2.28646
2.26191
2.23694
2.21155
2.18575
2.15956
2.13299
2.10607
2.07881
2.05125
2.0234
1.9953
1.96699
1.93849
1.90984
1.88108
1.85224
1.82336
1.79449
1.76567
1.73695
1.70837
1.68
1.65187
1.6242
1.59622
1.57212
1.53122
4.00219
3.97573
3.94926
3.92277
3.89626
3.86974
3.84321
3.81668
3.79014
3.7636
3.73707
3.71054
3.68403
3.65754
3.63107
3.60462
3.57821
3.55184
3.52551
3.49924
3.47301
3.44685
3.42076
3.39475
3.36882
3.34298
3.31724
3.29161
3.26609
3.2407
3.21545
3.19034
3.16539
3.1406
3.11599
3.09156
3.06733
3.04329
3.01947
2.99586
2.97247
2.94931
2.92638
2.90368
2.88123
2.859
2.83701
2.81525
2.79371
2.77238
2.75125
2.73029
2.70949
2.68883
2.66828
2.6478
2.62738
2.60698
2.58655
2.56608
2.54552
2.52483
2.50398
2.48294
2.46166
2.44012
2.41828
2.39612
2.37361
2.35073
2.32746
2.3038
2.27973
2.25524
2.23034
2.20503
2.17932
2.15322
2.12675
2.09992
2.07277
2.04531
2.01757
1.98959
1.96138
1.933
1.90446
1.87581
1.84707
1.8183
1.78952
1.76078
1.73213
1.7036
1.67526
1.64711
1.61938
1.59129
1.56706
1.52576
4.00193
3.97546
3.94897
3.92245
3.89593
3.86938
3.84283
3.81627
3.78971
3.76314
3.73657
3.71002
3.68347
3.65693
3.63042
3.60393
3.57747
3.55104
3.52465
3.49831
3.47201
3.44578
3.41961
3.39351
3.36749
3.34155
3.31571
3.28998
3.26435
3.23885
3.21348
3.18825
3.16317
3.13825
3.1135
3.08893
3.06456
3.04038
3.01641
2.99265
2.96911
2.9458
2.92271
2.89987
2.87725
2.85487
2.83273
2.81081
2.78911
2.76763
2.74634
2.72523
2.70428
2.68347
2.66277
2.64216
2.6216
2.60107
2.58053
2.55994
2.53928
2.5185
2.49758
2.47646
2.45513
2.43355
2.41168
2.38951
2.367
2.34413
2.32089
2.29726
2.27324
2.24881
2.22397
2.19874
2.17311
2.1471
2.12073
2.09401
2.06696
2.03961
2.01199
1.98412
1.95603
1.92777
1.89935
1.87082
1.84221
1.81356
1.78491
1.75629
1.72775
1.69933
1.67109
1.64302
1.61536
1.5873
1.5631
1.52172
4.0017
3.97521
3.9487
3.92217
3.89562
3.86906
3.84249
3.8159
3.78932
3.76273
3.73614
3.70955
3.68297
3.6564
3.62985
3.60333
3.57682
3.55035
3.52391
3.49752
3.47117
3.44487
3.41864
3.39247
3.36637
3.34036
3.31443
3.28861
3.26289
3.23729
3.21182
3.18648
3.16128
3.13625
3.11137
3.08668
3.06217
3.03785
3.01374
2.98984
2.96615
2.94269
2.91945
2.89645
2.87368
2.85114
2.82883
2.80675
2.78489
2.76324
2.74179
2.72051
2.69941
2.67844
2.65759
2.63683
2.61613
2.59547
2.5748
2.5541
2.53333
2.51246
2.49144
2.47026
2.44887
2.42724
2.40534
2.38315
2.36064
2.33778
2.31456
2.29096
2.26698
2.24261
2.21784
2.19268
2.16714
2.14122
2.11494
2.08832
2.06138
2.03415
2.00664
1.97889
1.95093
1.92279
1.8945
1.8661
1.83763
1.80911
1.78059
1.75211
1.7237
1.69541
1.6673
1.63935
1.6118
1.58384
1.55972
1.51844
4.00148
3.97498
3.94845
3.9219
3.89534
3.86876
3.84216
3.81556
3.78895
3.76234
3.73572
3.70911
3.68251
3.65591
3.62933
3.60277
3.57623
3.54971
3.52323
3.49679
3.47039
3.44404
3.41775
3.39152
3.36536
3.33928
3.31328
3.28738
3.26157
3.23588
3.21032
3.18488
3.15958
3.13443
3.10945
3.08463
3.06
3.03555
3.01131
2.98727
2.96344
2.93983
2.91644
2.89329
2.87036
2.84767
2.8252
2.80296
2.78094
2.75912
2.73751
2.71607
2.6948
2.67368
2.65268
2.63177
2.61093
2.59013
2.56933
2.54851
2.52764
2.50667
2.48557
2.46431
2.44286
2.42118
2.39925
2.37704
2.35452
2.33167
2.30847
2.28491
2.26097
2.23666
2.21196
2.18687
2.16141
2.13559
2.10941
2.0829
2.05607
2.02895
2.00156
1.97393
1.9461
1.91809
1.88993
1.86167
1.83332
1.80494
1.77656
1.74822
1.71995
1.6918
1.66382
1.63601
1.60858
1.58074
1.55673
1.51558
4.00127
3.97476
3.94821
3.92165
3.89507
3.86847
3.84186
3.81524
3.78861
3.76197
3.73534
3.7087
3.68207
3.65544
3.62883
3.60224
3.57566
3.54911
3.52259
3.49611
3.46966
3.44327
3.41692
3.39063
3.36441
3.33827
3.3122
3.28622
3.26034
3.23457
3.20892
3.18339
3.15799
3.13275
3.10765
3.08273
3.05798
3.03341
3.00904
2.98486
2.9609
2.93715
2.91363
2.89033
2.86725
2.8444
2.82178
2.79939
2.7772
2.75523
2.73346
2.71187
2.69044
2.66916
2.64801
2.62695
2.60597
2.58504
2.56412
2.54318
2.5222
2.50113
2.47995
2.45862
2.4371
2.41538
2.39342
2.37119
2.34866
2.32582
2.30265
2.27912
2.25523
2.23098
2.20635
2.18135
2.15598
2.13025
2.10417
2.07777
2.05105
2.02405
1.99679
1.96929
1.94158
1.9137
1.88568
1.85755
1.82934
1.8011
1.77285
1.74465
1.71652
1.6885
1.66066
1.63298
1.60568
1.57796
1.55405
1.51305
4.00108
3.97455
3.94799
3.92141
3.89482
3.8682
3.84157
3.81493
3.78828
3.76163
3.73497
3.70831
3.68165
3.655
3.62836
3.60174
3.57513
3.54854
3.52199
3.49546
3.46897
3.44253
3.41613
3.38979
3.36352
3.33731
3.31118
3.28513
3.25918
3.23334
3.2076
3.18198
3.1565
3.13116
3.10596
3.08093
3.05607
3.03139
3.0069
2.9826
2.95851
2.93463
2.91097
2.88753
2.86431
2.84132
2.81855
2.79601
2.77367
2.75155
2.72962
2.70788
2.6863
2.66487
2.64358
2.62238
2.60126
2.5802
2.55916
2.53811
2.51702
2.49586
2.4746
2.4532
2.43163
2.40987
2.38788
2.36563
2.34311
2.32029
2.29714
2.27366
2.24983
2.22564
2.20109
2.17617