/*--------------------------------*- C++ -*----------------------------------*\
| =========                 |                                                 |
| \\      /  F ield         | OpenFOAM: The Open Source CFD Toolbox           |
|  \\    /   O peration     | Version:  2.1.1                                 |
|   \\  /    A nd           | Web:      www.OpenFOAM.org                      |
|    \\/     M anipulation  |                                                 |
\*---------------------------------------------------------------------------*/
FoamFile
{
    version     2.0;
    format      ascii;
    class       volScalarField;
    location    "0.185";
    object      k;
}
// * * * * * * * * * * * * * * * * * * * * * * * * * * * * * * * * * * * * * //

dimensions      [0 2 -2 0 0 0 0];

internalField   nonuniform List<scalar> 
6820
(
0.288909
0.351398
0.415005
0.477466
0.536859
0.591555
0.640367
0.682621
0.718111
0.74701
0.769763
0.786986
0.799379
0.807661
0.812522
0.814598
0.814451
0.812567
0.809357
0.805165
0.800269
0.794896
0.789226
0.7834
0.777527
0.771692
0.765953
0.760366
0.754896
0.749867
0.743787
0.743826
0.715352
0.265532
0.269396
0.270523
0.271341
0.272559
0.274216
0.276228
0.278481
0.280864
0.283291
0.285707
0.288082
0.290405
0.292682
0.294927
0.297159
0.299398
0.301662
0.303967
0.306327
0.30875
0.311244
0.313811
0.316453
0.319171
0.321964
0.324835
0.327792
0.330846
0.33406
0.337444
0.341511
0.34568
0.262038
0.264253
0.263596
0.261557
0.259
0.256318
0.253627
0.250938
0.24824
0.245524
0.242794
0.240061
0.237345
0.234668
0.232052
0.229518
0.227085
0.224769
0.222582
0.220534
0.21863
0.216875
0.21527
0.213814
0.212508
0.211346
0.210327
0.209447
0.208702
0.208096
0.207615
0.20729
0.207062
0.259885
0.260272
0.259797
0.258535
0.256829
0.254891
0.252833
0.250709
0.248546
0.246358
0.244151
0.241934
0.239713
0.237494
0.235285
0.233095
0.23093
0.228798
0.226704
0.224656
0.222657
0.220712
0.218824
0.216997
0.215231
0.213528
0.211889
0.210314
0.208802
0.207352
0.205962
0.204634
0.203356
0.259299
0.258404
0.2576
0.256567
0.255295
0.25385
0.252292
0.250661
0.248984
0.247277
0.245551
0.243815
0.242074
0.240334
0.2386
0.236876
0.235165
0.233471
0.231797
0.230147
0.228522
0.226924
0.225357
0.223822
0.22232
0.220852
0.219419
0.218022
0.21666
0.215335
0.214045
0.212792
0.211576
0.259224
0.257848
0.256623
0.255437
0.254227
0.25297
0.251663
0.250312
0.248929
0.247522
0.2461
0.24467
0.243237
0.241804
0.240377
0.238957
0.237548
0.236152
0.23477
0.233405
0.232059
0.230732
0.229426
0.228142
0.22688
0.225643
0.224429
0.22324
0.222076
0.220938
0.219825
0.218739
0.21768
0.259217
0.257715
0.256309
0.25498
0.253698
0.252442
0.251196
0.249951
0.248704
0.247455
0.246204
0.244955
0.243709
0.242469
0.241236
0.240012
0.2388
0.2376
0.236413
0.235241
0.234085
0.232945
0.231823
0.230719
0.229633
0.228566
0.227518
0.22649
0.225482
0.224495
0.223527
0.222581
0.221657
0.259218
0.25769
0.256225
0.254822
0.253477
0.252181
0.250924
0.249696
0.248492
0.247306
0.246136
0.244981
0.243839
0.24271
0.241595
0.240493
0.239405
0.238331
0.237273
0.236229
0.235202
0.23419
0.233195
0.232216
0.231254
0.230309
0.229381
0.22847
0.227577
0.226702
0.225845
0.225005
0.224184
0.259218
0.257686
0.256207
0.25478
0.253405
0.25208
0.250799
0.24956
0.248357
0.247185
0.246042
0.244925
0.24383
0.242757
0.241704
0.240671
0.239656
0.238659
0.23768
0.236719
0.235774
0.234847
0.233936
0.233043
0.232166
0.231305
0.230462
0.229635
0.228824
0.22803
0.227252
0.226491
0.225747
0.259218
0.257686
0.256203
0.254769
0.253384
0.252045
0.250751
0.2495
0.248288
0.247114
0.245974
0.244866
0.243788
0.242737
0.241712
0.240712
0.239734
0.238779
0.237844
0.23693
0.236036
0.23516
0.234303
0.233464
0.232642
0.231838
0.231051
0.23028
0.229526
0.228788
0.228067
0.227361
0.226671
0.259218
0.257686
0.256202
0.254767
0.253378
0.252035
0.250735
0.249477
0.248259
0.24708
0.245937
0.244829
0.243753
0.242708
0.241693
0.240705
0.239743
0.238806
0.237893
0.237003
0.236135
0.235288
0.234461
0.233654
0.232865
0.232095
0.231343
0.230608
0.22989
0.229189
0.228505
0.227836
0.227183
0.259218
0.257685
0.256201
0.254766
0.253376
0.252031
0.250729
0.249469
0.248248
0.247066
0.24592
0.244809
0.243733
0.242688
0.241674
0.240689
0.239732
0.238802
0.237898
0.237018
0.236162
0.235328
0.234516
0.233725
0.232954
0.232203
0.231471
0.230756
0.23006
0.229381
0.228718
0.228072
0.227442
0.259218
0.257685
0.256201
0.254765
0.253375
0.25203
0.250727
0.249465
0.248243
0.247059
0.245912
0.2448
0.243722
0.242676
0.241661
0.240676
0.23972
0.238792
0.23789
0.237014
0.236162
0.235334
0.234528
0.233744
0.232981
0.232239
0.231516
0.230812
0.230127
0.229459
0.228809
0.228175
0.227558
0.259218
0.257685
0.256201
0.254764
0.253374
0.252028
0.250725
0.249463
0.248241
0.247056
0.245908
0.244795
0.243716
0.242669
0.241654
0.240668
0.239712
0.238783
0.237882
0.237006
0.236155
0.235328
0.234525
0.233743
0.232984
0.232245
0.231526
0.230827
0.230146
0.229484
0.228839
0.228211
0.2276
0.259218
0.257685
0.2562
0.254764
0.253374
0.252028
0.250724
0.249462
0.248239
0.247054
0.245905
0.244792
0.243712
0.242665
0.241649
0.240663
0.239706
0.238777
0.237875
0.236999
0.236148
0.235321
0.234518
0.233737
0.232978
0.232241
0.231523
0.230825
0.230146
0.229486
0.228844
0.228218
0.22761
0.259218
0.257685
0.2562
0.254764
0.253373
0.252027
0.250723
0.249461
0.248237
0.247052
0.245903
0.244789
0.243709
0.242661
0.241645
0.240658
0.239701
0.238772
0.237869
0.236993
0.236142
0.235315
0.234512
0.233731
0.232972
0.232234
0.231517
0.230819
0.230141
0.229481
0.228839
0.228214
0.227607
0.259218
0.257685
0.2562
0.254763
0.253373
0.252026
0.250722
0.249459
0.248236
0.24705
0.245901
0.244787
0.243706
0.242658
0.241642
0.240655
0.239697
0.238768
0.237865
0.236988
0.236137
0.23531
0.234506
0.233725
0.232965
0.232227
0.23151
0.230812
0.230133
0.229473
0.228831
0.228207
0.227599
0.259218
0.257685
0.2562
0.254763
0.253372
0.252026
0.250722
0.249459
0.248235
0.247049
0.245899
0.244785
0.243704
0.242656
0.241639
0.240652
0.239694
0.238764
0.237861
0.236984
0.236132
0.235305
0.2345
0.233719
0.232959
0.232221
0.231503
0.230805
0.230126
0.229466
0.228823
0.228199
0.22759
0.259218
0.257684
0.2562
0.254763
0.253372
0.252025
0.250721
0.249458
0.248234
0.247048
0.245898
0.244783
0.243702
0.242654
0.241636
0.240649
0.239691
0.238761
0.237857
0.23698
0.236128
0.2353
0.234496
0.233714
0.232954
0.232215
0.231497
0.230799
0.230119
0.229459
0.228816
0.228191
0.227582
0.259218
0.257684
0.2562
0.254763
0.253371
0.252025
0.25072
0.249457
0.248233
0.247047
0.245897
0.244782
0.2437
0.242652
0.241634
0.240647
0.239688
0.238757
0.237854
0.236976
0.236124
0.235296
0.234491
0.233709
0.232949
0.23221
0.231491
0.230792
0.230113
0.229452
0.228809
0.228183
0.227574
0.259218
0.257684
0.256199
0.254762
0.253371
0.252024
0.25072
0.249456
0.248232
0.247046
0.245895
0.24478
0.243699
0.24265
0.241632
0.240644
0.239685
0.238755
0.237851
0.236973
0.23612
0.235292
0.234487
0.233704
0.232944
0.232205
0.231486
0.230787
0.230107
0.229445
0.228802
0.228176
0.227566
0.259218
0.257684
0.256199
0.254762
0.253371
0.252024
0.250719
0.249456
0.248231
0.247045
0.245894
0.244779
0.243697
0.242648
0.24163
0.240642
0.239683
0.238752
0.237848
0.23697
0.236117
0.235288
0.234483
0.2337
0.23294
0.2322
0.231481
0.230781
0.230101
0.229439
0.228795
0.228169
0.227559
0.259218
0.257684
0.256199
0.254762
0.253371
0.252024
0.250719
0.249455
0.248231
0.247044
0.245893
0.244778
0.243696
0.242647
0.241628
0.24064
0.239681
0.23875
0.237845
0.236967
0.236114
0.235285
0.234479
0.233696
0.232935
0.232195
0.231476
0.230776
0.230096
0.229434
0.228789
0.228163
0.227553
0.259218
0.257684
0.256199
0.254762
0.253371
0.252023
0.250719
0.249455
0.24823
0.247043
0.245893
0.244777
0.243695
0.242645
0.241627
0.240638
0.239679
0.238748
0.237843
0.236965
0.236111
0.235282
0.234476
0.233693
0.232932
0.232191
0.231472
0.230772
0.230091
0.229428
0.228784
0.228157
0.227546
0.259218
0.257684
0.256199
0.254762
0.25337
0.252023
0.250718
0.249454
0.24823
0.247043
0.245892
0.244776
0.243694
0.242644
0.241625
0.240637
0.239677
0.238746
0.237841
0.236962
0.236109
0.235279
0.234473
0.23369
0.232928
0.232188
0.231468
0.230767
0.230086
0.229423
0.228779
0.228151
0.22754
0.259218
0.257684
0.256199
0.254762
0.25337
0.252023
0.250718
0.249454
0.248229
0.247042
0.245891
0.244775
0.243693
0.242643
0.241624
0.240636
0.239676
0.238744
0.237839
0.23696
0.236106
0.235277
0.23447
0.233687
0.232925
0.232184
0.231464
0.230763
0.230082
0.229419
0.228774
0.228146
0.227535
0.259218
0.257684
0.256199
0.254762
0.25337
0.252023
0.250718
0.249454
0.248229
0.247042
0.245891
0.244775
0.243692
0.242642
0.241623
0.240634
0.239675
0.238743
0.237837
0.236958
0.236104
0.235274
0.234468
0.233684
0.232922
0.232181
0.231461
0.23076
0.230078
0.229415
0.22877
0.228142
0.22753
0.259218
0.257684
0.256199
0.254762
0.25337
0.252023
0.250718
0.249454
0.248229
0.247041
0.24589
0.244774
0.243692
0.242642
0.241623
0.240634
0.239674
0.238742
0.237836
0.236957
0.236103
0.235273
0.234466
0.233682
0.23292
0.232179
0.231458
0.230757
0.230075
0.229411
0.228766
0.228138
0.227526
0.259218
0.257684
0.256199
0.254762
0.25337
0.252023
0.250718
0.249453
0.248228
0.247041
0.24589
0.244774
0.243691
0.242641
0.241622
0.240633
0.239673
0.23874
0.237835
0.236956
0.236101
0.235271
0.234464
0.23368
0.232918
0.232176
0.231455
0.230754
0.230072
0.229408
0.228763
0.228134
0.227522
0.259218
0.257684
0.256199
0.254762
0.25337
0.252023
0.250718
0.249454
0.248229
0.247042
0.24589
0.244774
0.243692
0.242641
0.241622
0.240633
0.239673
0.23874
0.237835
0.236955
0.236101
0.235271
0.234464
0.233679
0.232917
0.232175
0.231454
0.230753
0.23007
0.229406
0.22876
0.228132
0.22752
0.259218
0.257684
0.256199
0.254762
0.25337
0.252023
0.250718
0.249453
0.248228
0.247041
0.24589
0.244774
0.243691
0.242641
0.241622
0.240633
0.239672
0.23874
0.237835
0.236955
0.236101
0.23527
0.234463
0.233679
0.232916
0.232175
0.231453
0.230752
0.230069
0.229405
0.228759
0.22813
0.227518
0.259218
0.257684
0.256199
0.254762
0.253371
0.252024
0.25072
0.249456
0.248232
0.247044
0.245894
0.244778
0.243695
0.242645
0.241626
0.240636
0.239676
0.238744
0.237838
0.236958
0.236104
0.235273
0.234466
0.233682
0.232919
0.232177
0.231455
0.230754
0.230071
0.229406
0.22876
0.228131
0.227518
0.259218
0.257685
0.2562
0.254764
0.253373
0.252026
0.250721
0.249457
0.248233
0.247046
0.245895
0.244779
0.243697
0.242647
0.241628
0.240639
0.239679
0.238747
0.237841
0.236962
0.236107
0.235277
0.234469
0.233685
0.232921
0.232179
0.231457
0.230755
0.230071
0.229406
0.228759
0.228129
0.227515
0.259218
0.257685
0.256201
0.254766
0.253378
0.252033
0.250731
0.249469
0.248246
0.24706
0.245911
0.244795
0.243713
0.242663
0.241644
0.240654
0.239694
0.238761
0.237854
0.236973
0.236117
0.235285
0.234476
0.233689
0.232924
0.23218
0.231455
0.23075
0.230064
0.229396
0.228745
0.228111
0.227494
0.259219
0.257689
0.25621
0.254777
0.25339
0.252045
0.250743
0.249482
0.248259
0.247074
0.245924
0.244809
0.243726
0.242676
0.241655
0.240664
0.239701
0.238765
0.237855
0.23697
0.236109
0.235272
0.234457
0.233663
0.232891
0.232138
0.231406
0.230692
0.229997
0.229319
0.228658
0.228015
0.227387
0.25922
0.257694
0.256221
0.254799
0.253423
0.252089
0.250795
0.249539
0.248318
0.247132
0.245978
0.244857
0.243767
0.242706
0.241674
0.24067
0.239692
0.238739
0.237812
0.236908
0.236027
0.235169
0.234332
0.233516
0.232721
0.231945
0.231188
0.23045
0.22973
0.229027
0.228341
0.227672
0.227018
0.259229
0.257738
0.256292
0.254882
0.253508
0.252172
0.250871
0.249603
0.248368
0.247162
0.245986
0.244837
0.243716
0.242622
0.241553
0.24051
0.239491
0.238496
0.237525
0.236576
0.23565
0.234746
0.233862
0.233
0.232157
0.231334
0.23053
0.229745
0.228978
0.228228
0.227495
0.22678
0.22608
0.259265
0.257822
0.256453
0.255125
0.253805
0.252483
0.251164
0.249855
0.248562
0.247292
0.246047
0.244829
0.243641
0.242482
0.241352
0.24025
0.239176
0.238129
0.237108
0.236111
0.235139
0.234191
0.233265
0.232361
0.231478
0.230616
0.229774
0.228952
0.228148
0.227364
0.226597
0.225848
0.225116
0.259599
0.258632
0.257578
0.256541
0.255587
0.254713
0.253904
0.253149
0.252442
0.251779
0.25116
0.250584
0.25005
0.249557
0.249103
0.248689
0.248311
0.247969
0.24766
0.247383
0.247136
0.246917
0.246724
0.246556
0.246411
0.246288
0.246185
0.246101
0.246035
0.245985
0.245951
0.245932
0.245926
0.266719
0.280569
0.294241
0.307622
0.320668
0.333362
0.345693
0.357649
0.369225
0.380413
0.391213
0.401621
0.411641
0.421275
0.430527
0.439403
0.447911
0.456059
0.463856
0.47131
0.478432
0.485233
0.491723
0.497913
0.503813
0.509435
0.514789
0.519886
0.524737
0.529352
0.533741
0.537912
0.541881
0.843883
1.01371
1.18261
1.35145
1.51905
1.67774
1.81755
1.931
2.01519
2.07199
2.10657
2.12542
2.13457
2.13859
2.14031
2.14113
2.14151
2.14149
2.14102
2.14019
2.13921
2.13836
2.13791
2.1381
2.139
2.14063
2.14287
2.14553
2.14839
2.15116
2.15356
2.15526
2.15594
2.15528
2.15293
2.14858
2.14189
2.13254
2.12023
2.10464
2.08549
2.06251
2.03546
2.00413
1.96838
1.92811
1.88331
1.83403
1.78044
1.72278
1.66136
1.59662
1.52905
1.45925
1.38786
1.31559
1.24316
1.17133
1.10083
1.03238
0.966627
0.904141
0.845401
0.790774
0.740512
0.694747
0.653504
0.616707
0.584201
0.555771
0.531162
0.510098
0.492299
0.477495
0.465437
0.455901
0.44869
0.443639
0.440611
0.439494
0.440198
0.44265
0.446788
0.452557
0.459898
0.468741
0.479003
0.49057
0.503298
0.517003
0.531453
0.546368
0.561417
0.576221
0.590358
0.603358
0.614769
0.623984
0.630827
0.634257
0.354653
0.368453
0.388767
0.418558
0.460488
0.516899
0.589277
0.677576
0.779814
0.892133
1.00931
1.12553
1.23532
1.33432
1.41982
1.4909
1.54819
1.59339
1.62872
1.65648
1.67865
1.69679
1.712
1.72497
1.7361
1.74562
1.75365
1.76026
1.76546
1.76923
1.7715
1.77219
1.77112
1.76813
1.76301
1.75556
1.74555
1.73278
1.71704
1.69814
1.6759
1.65016
1.6208
1.5877
1.55084
1.51023
1.46595
1.41816
1.36713
1.31317
1.2567
1.19821
1.13824
1.07741
1.01636
0.95576
0.896272
0.838537
0.783144
0.730614
0.681377
0.635761
0.593978
0.55613
0.522214
0.492132
0.465711
0.442727
0.422919
0.406014
0.391742
0.379847
0.370097
0.362287
0.356246
0.351833
0.348937
0.347476
0.347393
0.348654
0.351243
0.355159
0.360412
0.367013
0.374973
0.384292
0.394953
0.40691
0.42008
0.434332
0.449483
0.46529
0.481446
0.497582
0.513276
0.528047
0.541408
0.552777
0.561688
0.568587
0.206726
0.206527
0.206957
0.208419
0.211321
0.216195
0.223586
0.234301
0.249424
0.270141
0.297606
0.332783
0.376255
0.428044
0.487498
0.553282
0.623484
0.695817
0.767883
0.83745
0.902679
0.962271
1.01551
1.06221
1.1026
1.13716
1.16649
1.1912
1.21181
1.22872
1.24223
1.2525
1.25962
1.26361
1.26448
1.26219
1.25672
1.24804
1.23612
1.22095
1.20251
1.18081
1.15588
1.12777
1.09656
1.06242
1.02554
0.986207
0.944748
0.90157
0.857133
0.811943
0.766536
0.721463
0.677271
0.63448
0.593565
0.554935
0.518917
0.485744
0.455556
0.428395
0.404217
0.382905
0.364291
0.348168
0.334311
0.322493
0.312495
0.304117
0.29718
0.29153
0.287039
0.283606
0.281151
0.279619
0.278975
0.279203
0.280307
0.282305
0.285229
0.289126
0.294051
0.300064
0.307228
0.3156
0.325222
0.336117
0.348269
0.361619
0.376048
0.391372
0.40733
0.423589
0.439739
0.455307
0.469777
0.482595
0.493011
0.502829
0.201936
0.200416
0.198995
0.197674
0.196487
0.1955
0.194796
0.19449
0.194688
0.195552
0.197303
0.200216
0.204619
0.210886
0.21943
0.230684
0.245061
0.262909
0.284452
0.309733
0.338572
0.370549
0.405024
0.441183
0.478112
0.514877
0.550599
0.58451
0.615987
0.644558
0.669895
0.691792
0.71014
0.7249
0.736085
0.743747
0.747962
0.748823
0.746438
0.740925
0.732409
0.721028
0.706936
0.690307
0.671347
0.650295
0.627429
0.603069
0.577569
0.551313
0.524699
0.498132
0.472002
0.446674
0.422467
0.39965
0.378426
0.35893
0.341232
0.325339
0.311204
0.29874
0.287831
0.278344
0.270141
0.263086
0.25705
0.251917
0.247586
0.243968
0.240991
0.238598
0.236744
0.235399
0.234544
0.234172
0.23429
0.234913
0.23607
0.2378
0.240153
0.24319
0.246984
0.251613
0.257166
0.263729
0.271389
0.280217
0.290263
0.30154
0.31401
0.327568
0.342032
0.357134
0.372516
0.387738
0.402284
0.415639
0.42681
0.438713
0.210207
0.208686
0.207187
0.205705
0.20424
0.202803
0.201411
0.200085
0.198849
0.197723
0.196743
0.195951
0.1954
0.195152
0.195282
0.195873
0.197022
0.198832
0.201418
0.204897
0.209384
0.214985
0.221786
0.229841
0.239158
0.249689
0.261323
0.273883
0.287128
0.300769
0.314475
0.327899
0.340695
0.352535
0.363131
0.372241
0.379685
0.385338
0.389134
0.391057
0.391135
0.389437
0.38606
0.381133
0.374809
0.367268
0.358708
0.349344
0.339403
0.32911
0.318686
0.308334
0.298234
0.288537
0.279361
0.270791
0.26288
0.25565
0.249101
0.243213
0.237954
0.23328
0.229145
0.2255
0.222299
0.219497
0.217054
0.214934
0.21311
0.211555
0.210253
0.209189
0.208357
0.207756
0.207389
0.207268
0.207409
0.207837
0.208581
0.209683
0.211188
0.213153
0.215646
0.218743
0.222529
0.227096
0.232544
0.238967
0.246455
0.255074
0.264858
0.275789
0.287777
0.300652
0.314145
0.327893
0.341427
0.354294
0.365345
0.378248
0.216478
0.215117
0.213753
0.212391
0.211032
0.209675
0.208325
0.206983
0.205658
0.204356
0.203087
0.201862
0.200694
0.199599
0.198596
0.197706
0.196952
0.19636
0.195955
0.195766
0.195821
0.196148
0.196775
0.197726
0.199022
0.200676
0.202697
0.205078
0.207804
0.210843
0.214147
0.217651
0.221279
0.224939
0.228532
0.231957
0.235115
0.237917
0.240286
0.242161
0.243499
0.244279
0.244494
0.244157
0.243299
0.241963
0.240205
0.23809
0.235689
0.233076
0.230322
0.227494
0.224652
0.221848
0.219123
0.216509
0.214029
0.211698
0.209523
0.207507
0.205647
0.203938
0.20237
0.200937
0.199627
0.198431
0.197342
0.196352
0.195455
0.194647
0.193928
0.193296
0.192756
0.192314
0.191979
0.191764
0.191684
0.191761
0.19202
0.192493
0.193218
0.19424
0.195611
0.197394
0.199659
0.202487
0.205966
0.21019
0.215256
0.221254
0.228255
0.236305
0.245395
0.255453
0.266318
0.277738
0.289338
0.300764
0.310831
0.323525
0.220605
0.219411
0.218207
0.216996
0.215777
0.214551
0.213319
0.212083
0.210845
0.20961
0.208381
0.207161
0.205956
0.204772
0.203615
0.202493
0.201413
0.200386
0.199421
0.198529
0.197719
0.197003
0.196389
0.195889
0.195508
0.195255
0.195134
0.195146
0.195292
0.195566
0.195961
0.196466
0.197064
0.197736
0.198459
0.199206
0.19995
0.200664
0.201322
0.201899
0.202375
0.202731
0.202957
0.203043
0.202988
0.202793
0.202465
0.202015
0.201456
0.200804
0.200076
0.199291
0.198464
0.197611
0.196746
0.195881
0.195025
0.194185
0.193366
0.192571
0.191801
0.191057
0.190337
0.189641
0.188966
0.188312
0.187675
0.187056
0.186453
0.185868
0.185303
0.184759
0.184242
0.183758
0.183314
0.182922
0.182593
0.182343
0.182192
0.182161
0.18228
0.18258
0.183101
0.183888
0.184996
0.186486
0.18843
0.190905
0.193996
0.19779
0.202367
0.207798
0.214121
0.221335
0.229372
0.238088
0.247224
0.256549
0.264969
0.276341
0.223248
0.222183
0.221106
0.220019
0.218921
0.217815
0.2167
0.215578
0.214451
0.213318
0.212182
0.211045
0.209909
0.208777
0.207651
0.206536
0.205435
0.204353
0.203293
0.20226
0.201261
0.2003
0.199382
0.198513
0.197696
0.196937
0.19624
0.195605
0.195037
0.194534
0.194098
0.193724
0.193411
0.193152
0.192943
0.192774
0.192639
0.192527
0.192431
0.19234
0.192246
0.192142
0.192021
0.191877
0.191707
0.191507
0.191276
0.191015
0.190724
0.190405
0.19006
0.189694
0.18931
0.18891
0.188497
0.188075
0.187645
0.187208
0.186765
0.186316
0.185861
0.185399
0.184928
0.184449
0.183959
0.183457
0.182943
0.182416
0.181876
0.181324
0.180762
0.180192
0.179617
0.179041
0.178472
0.177915
0.177379
0.176876
0.176419
0.176023
0.175707
0.175495
0.175413
0.175495
0.175779
0.176311
0.177142
0.178332
0.179948
0.182062
0.184747
0.18807
0.19209
0.196835
0.202297
0.208413
0.215028
0.222016
0.228475
0.237759
0.224898
0.22393
0.222953
0.221965
0.220967
0.219959
0.218941
0.217915
0.216881
0.21584
0.214793
0.213742
0.212687
0.21163
0.210573
0.209517
0.208465
0.207418
0.206379
0.20535
0.204335
0.203337
0.202357
0.201401
0.20047
0.199567
0.198696
0.19786
0.19706
0.196297
0.195575
0.194892
0.19425
0.193647
0.193082
0.192554
0.19206
0.191596
0.191159
0.190746
0.190354
0.189979
0.189618
0.189267
0.188925
0.188589
0.188257
0.187927
0.187599
0.18727
0.18694
0.186609
0.186275
0.185938
0.185596
0.18525
0.184897
0.184536
0.184166
0.183785
0.183392
0.182983
0.182558
0.182115
0.181651
0.181165
0.180657
0.180125
0.179569
0.178988
0.178385
0.17776
0.177115
0.176453
0.175777
0.175093
0.174406
0.173723
0.173054
0.172408
0.171798
0.17124
0.170752
0.170356
0.170079
0.169953
0.170015
0.170307
0.17088
0.171788
0.17309
0.174843
0.177103
0.179911
0.183282
0.187203
0.191589
0.196389
0.200925
0.20783
0.225884
0.224988
0.224084
0.223169
0.222246
0.221313
0.220371
0.219421
0.218463
0.217498
0.216526
0.215548
0.214565
0.213579
0.212589
0.211597
0.210604
0.209611
0.20862
0.207633
0.20665
0.205674
0.204708
0.203751
0.202808
0.20188
0.200968
0.200076
0.199205
0.198358
0.197535
0.196738
0.195969
0.195227
0.194515
0.19383
0.193174
0.192546
0.191944
0.191368
0.190815
0.190286
0.189778
0.189289
0.18882
0.188367
0.18793
0.187508
0.187097
0.186698
0.186308
0.185925
0.185547
0.185172
0.184799
0.184426
0.184048
0.183666
0.183275
0.182874
0.18246
0.18203
0.181583
0.181115
0.180626
0.180112
0.179572
0.179005
0.178411
0.177788
0.177137
0.176458
0.175753
0.175022
0.174268
0.173493
0.172703
0.1719
0.17109
0.170281
0.169481
0.168699
0.167948
0.167241
0.166598
0.166039
0.165589
0.165279
0.165143
0.165222
0.165558
0.166199
0.16719
0.16857
0.170365
0.172584
0.175187
0.178161
0.181046
0.185684
0.226439
0.225592
0.224739
0.223877
0.223007
0.222129
0.221244
0.220351
0.21945
0.218543
0.217629
0.21671
0.215785
0.214855
0.213922
0.212985
0.212045
0.211104
0.210162
0.20922
0.20828
0.207341
0.206407
0.205477
0.204554
0.203639
0.202734
0.20184
0.200958
0.200091
0.19924
0.198407
0.197592
0.196798
0.196024
0.195272
0.194543
0.193836
0.193151
0.192489
0.191849
0.191231
0.190635
0.190059
0.189504
0.188968
0.188451
0.187951
0.187467
0.186998
0.186541
0.186094
0.185657
0.185226
0.184798
0.184373
0.183947
0.183517
0.18308
0.182635
0.182179
0.181707
0.181219
0.180712
0.180183
0.17963
0.179052
0.178446
0.177812
0.177149
0.176457
0.175734
0.174982
0.174201
0.173392
0.172557
0.171698
0.170818
0.16992
0.169009
0.16809
0.167169
0.166254
0.165354
0.16448
0.163647
0.162871
0.162172
0.161574
0.161104
0.160794
0.160678
0.160791
0.161168
0.161835
0.162807
0.164075
0.165639
0.167222
0.169937
0.226725
0.22591
0.22509
0.224263
0.223429
0.222589
0.221742
0.220889
0.22003
0.219165
0.218294
0.217417
0.216536
0.21565
0.21476
0.213867
0.21297
0.212071
0.211171
0.210269
0.209366
0.208464
0.207563
0.206664
0.205769
0.204878
0.203992
0.203113
0.202243
0.201381
0.200531
0.199692
0.198867
0.198056
0.197261
0.196482
0.195721
0.194977
0.194252
0.193545
0.192857
0.192189
0.19154
0.19091
0.190299
0.189706
0.189132
0.188574
0.188033
0.187507
0.186994
0.186492
0.186
0.185516
0.185036
0.18456
0.184084
0.183606
0.183123
0.182633
0.182132
0.181618
0.18109
0.180543
0.179976
0.179386
0.178772
0.178132
0.177465
0.176769
0.176043
0.175288
0.174502
0.173685
0.17284
0.171965
0.171063
0.170135
0.169183
0.168211
0.16722
0.166216
0.165203
0.164186
0.163174
0.162175
0.161199
0.160259
0.159372
0.158555
0.157829
0.15722
0.156752
0.156452
0.156345
0.156446
0.156761
0.157292
0.157911
0.159111
0.226856
0.22606
0.22526
0.224454
0.223643
0.222826
0.222005
0.221178
0.220346
0.219508
0.218667
0.21782
0.216969
0.216114
0.215256
0.214394
0.213529
0.212662
0.211793
0.210922
0.210049
0.209177
0.208304
0.207432
0.206562
0.205695
0.20483
0.20397
0.203116
0.202267
0.201427
0.200594
0.199772
0.19896
0.19816
0.197373
0.196599
0.195839
0.195095
0.194365
0.193652
0.192955
0.192274
0.19161
0.190963
0.190333
0.189719
0.18912
0.188537
0.187968
0.187411
0.186866
0.18633
0.185802
0.185279
0.18476
0.184242
0.183723
0.183199
0.18267
0.182131
0.181581
0.181017
0.180436
0.179837
0.179217
0.178574
0.177906
0.177212
0.176491
0.175741
0.174961
0.174151
0.173311
0.172441
0.171542
0.170613
0.169656
0.168672
0.167663
0.166631
0.165579
0.164509
0.163426
0.162333
0.161237
0.160144
0.159063
0.158002
0.156975
0.155994
0.155077
0.154241
0.153506
0.152891
0.15241
0.152076
0.151886
0.151822
0.151894
0.226907
0.226121
0.22533
0.224536
0.223737
0.222935
0.222127
0.221316
0.2205
0.21968
0.218857
0.218029
0.217198
0.216364
0.215526
0.214685
0.213842
0.212997
0.212149
0.2113
0.21045
0.209598
0.208747
0.207896
0.207046
0.206197
0.20535
0.204507
0.203667
0.202831
0.202002
0.201178
0.200363
0.199555
0.198757
0.197968
0.197191
0.196425
0.195671
0.19493
0.194203
0.193489
0.192789
0.192104
0.191434
0.190778
0.190137
0.18951
0.188896
0.188296
0.187707
0.187128
0.186559
0.185997
0.18544
0.184887
0.184335
0.183783
0.183227
0.182666
0.182097
0.181518
0.180925
0.180318
0.179693
0.179049
0.178383
0.177694
0.17698
0.17624
0.175472
0.174675
0.173849
0.172993
0.172108
0.171192
0.170247
0.169273
0.168271
0.167242
0.166187
0.165108
0.164007
0.162887
0.16175
0.1606
0.159442
0.158279
0.15712
0.155971
0.154841
0.153741
0.152684
0.151681
0.150748
0.149897
0.149141
0.14847
0.147949
0.147222
0.22692
0.226138
0.225352
0.224563
0.223771
0.222975
0.222175
0.221372
0.220565
0.219755
0.218941
0.218124
0.217305
0.216482
0.215657
0.214829
0.213999
0.213167
0.212334
0.211499
0.210663
0.209826
0.208989
0.208151
0.207315
0.206479
0.205645
0.204813
0.203985
0.203159
0.202339
0.201523
0.200713
0.199911
0.199115
0.198328
0.19755
0.196782
0.196023
0.195276
0.19454
0.193816
0.193105
0.192406
0.19172
0.191046
0.190386
0.189739
0.189104
0.18848
0.187867
0.187264
0.186669
0.186082
0.185499
0.18492
0.184342
0.183764
0.183183
0.182598
0.182005
0.181403
0.180788
0.18016
0.179516
0.178853
0.17817
0.177465
0.176736
0.175982
0.175201
0.174393
0.173556
0.17269
0.171795
0.17087
0.169915
0.168932
0.167919
0.166879
0.165812
0.16472
0.163603
0.162463
0.161303
0.160125
0.158931
0.157726
0.156513
0.155297
0.154084
0.152881
0.151696
0.150538
0.149417
0.148341
0.147324
0.14635
0.145536
0.144272
0.226917
0.226137
0.225353
0.224566
0.223776
0.222982
0.222186
0.221386
0.220584
0.219778
0.218969
0.218158
0.217344
0.216528
0.215709
0.214888
0.214066
0.213241
0.212415
0.211588
0.21076
0.209932
0.209103
0.208274
0.207445
0.206618
0.205791
0.204967
0.204145
0.203326
0.202511
0.201701
0.200895
0.200095
0.199302
0.198516
0.197737
0.196967
0.196206
0.195454
0.194713
0.193982
0.193261
0.192553
0.191855
0.19117
0.190496
0.189833
0.189182
0.188542
0.187911
0.187289
0.186675
0.186068
0.185465
0.184866
0.184268
0.183671
0.18307
0.182466
0.181855
0.181235
0.180604
0.17996
0.179301
0.178624
0.177928
0.177211
0.176472
0.175708
0.174918
0.174101
0.173257
0.172385
0.171483
0.170553
0.169593
0.168604
0.167587
0.166541
0.165468
0.164369
0.163244
0.162096
0.160925
0.159733
0.158522
0.157295
0.156055
0.154804
0.153548
0.15229
0.151036
0.149791
0.148564
0.14736
0.146191
0.145035
0.144044
0.142439
0.22691
0.226129
0.225345
0.224559
0.223769
0.222977
0.222181
0.221383
0.220581
0.219777
0.218971
0.218161
0.21735
0.216536
0.21572
0.214902
0.214083
0.213262
0.212439
0.211616
0.210792
0.209967
0.209142
0.208317
0.207492
0.206669
0.205846
0.205025
0.204207
0.203391
0.202578
0.20177
0.200965
0.200166
0.199373
0.198586
0.197807
0.197034
0.19627
0.195515
0.194768
0.194031
0.193304
0.192587
0.191881
0.191186
0.190501
0.189827
0.189163
0.188509
0.187865
0.187228
0.186599
0.185976
0.185358
0.184744
0.18413
0.183517
0.182902
0.182282
0.181657
0.181023
0.18038
0.179723
0.179053
0.178365
0.17766
0.176934
0.176186
0.175415
0.174619
0.173797
0.172948
0.172071
0.171166
0.170233
0.16927
0.168279
0.167259
0.166211
0.165136
0.164034
0.162906
0.161754
0.160578
0.159381
0.158163
0.156926
0.155673
0.154406
0.153129
0.151843
0.150554
0.149265
0.147982
0.146708
0.145456
0.144197
0.143105
0.141294
0.226901
0.22612
0.225336
0.224549
0.223759
0.222966
0.22217
0.221372
0.220571
0.219767
0.21896
0.218152
0.217341
0.216527
0.215712
0.214895
0.214076
0.213256
0.212435
0.211612
0.210789
0.209965
0.209141
0.208317
0.207493
0.20667
0.205849
0.205028
0.20421
0.203395
0.202582
0.201773
0.200968
0.200168
0.199373
0.198585
0.197802
0.197027
0.196258
0.195498
0.194747
0.194004
0.193271
0.192547
0.191833
0.191129
0.190435
0.189751
0.189077
0.188412
0.187756
0.187107
0.186466
0.185831
0.1852
0.184572
0.183947
0.183321
0.182693
0.182062
0.181425
0.180781
0.180126
0.17946
0.17878
0.178085
0.177372
0.176639
0.175885
0.175109
0.174308
0.173482
0.17263
0.171751
0.170843
0.169908
0.168944
0.167952
0.166931
0.165883
0.164807
0.163704
0.162576
0.161422
0.160245
0.159046
0.157825
0.156585
0.155327
0.154054
0.152767
0.15147
0.150164
0.148854
0.147544
0.146235
0.144939
0.143625
0.142479
0.140552
0.226892
0.22611
0.225326
0.224538
0.223748
0.222954
0.222158
0.221359
0.220557
0.219753
0.218946
0.218137
0.217325
0.216512
0.215696
0.214878
0.214059
0.213238
0.212416
0.211593
0.210769
0.209945
0.20912
0.208295
0.207471
0.206647
0.205824
0.205003
0.204183
0.203366
0.202552
0.201741
0.200933
0.200131
0.199333
0.198541
0.197754
0.196975
0.196202
0.195437
0.19468
0.193931
0.193191
0.192461
0.191739
0.191027
0.190325
0.189632
0.188948
0.188274
0.187607
0.186949
0.186297
0.18565
0.185009
0.18437
0.183734
0.183097
0.182459
0.181818
0.181171
0.180518
0.179855
0.179181
0.178493
0.177791
0.177071
0.176333
0.175574
0.174794
0.173989
0.17316
0.172306
0.171424
0.170516
0.169579
0.168614
0.167621
0.166601
0.165552
0.164476
0.163374
0.162246
0.161093
0.159916
0.158716
0.157495
0.156255
0.154996
0.15372
0.152431
0.151129
0.149817
0.148498
0.147175
0.14585
0.144534
0.143193
0.142019
0.140029
0.226883
0.226101
0.225316
0.224528
0.223737
0.222943
0.222146
0.221346
0.220544
0.219739
0.218931
0.218121
0.217308
0.216494
0.215677
0.214859
0.214038
0.213216
0.212393
0.211569
0.210743
0.209917
0.209091
0.208264
0.207438
0.206612
0.205787
0.204964
0.204142
0.203322
0.202504
0.20169
0.20088
0.200073
0.199272
0.198475
0.197684
0.1969
0.196122
0.195351
0.194588
0.193833
0.193087
0.192349
0.19162
0.190901
0.19019
0.189489
0.188796
0.188113
0.187437
0.186769
0.186107
0.185451
0.1848
0.184151
0.183505
0.182859
0.182212
0.181562
0.180906
0.180244
0.179574
0.178892
0.178198
0.17749
0.176765
0.176022
0.175259
0.174474
0.173667
0.172835
0.171978
0.171095
0.170185