/*--------------------------------*- C++ -*----------------------------------*\
| =========                 |                                                 |
| \\      /  F ield         | OpenFOAM: The Open Source CFD Toolbox           |
|  \\    /   O peration     | Version:  2.1.1                                 |
|   \\  /    A nd           | Web:      www.OpenFOAM.org                      |
|    \\/     M anipulation  |                                                 |
\*---------------------------------------------------------------------------*/
FoamFile
{
    version     2.0;
    format      ascii;
    class       volScalarField;
    location    "0.185";
    object      nut;
}
// * * * * * * * * * * * * * * * * * * * * * * * * * * * * * * * * * * * * * //

dimensions      [0 2 -1 0 0 0 0];

internalField   nonuniform List<scalar> 
6820
(
4.96025e-05
5.47044e-05
5.94497e-05
6.37667e-05
6.76166e-05
7.09775e-05
7.38478e-05
7.62452e-05
7.82022e-05
7.97602e-05
8.09658e-05
8.18665e-05
8.25086e-05
8.29349e-05
8.31841e-05
8.32903e-05
8.32828e-05
8.31864e-05
8.30219e-05
8.28066e-05
8.25545e-05
8.22769e-05
8.19829e-05
8.16797e-05
8.1373e-05
8.10671e-05
8.07651e-05
8.047e-05
8.018e-05
7.99124e-05
7.95878e-05
7.95899e-05
7.80516e-05
0.000540296
0.00030497
0.000219956
0.000171553
0.000140514
0.000119651
0.000105125
9.47417e-05
8.71776e-05
8.15965e-05
7.74482e-05
7.43589e-05
7.20682e-05
7.03899e-05
6.91886e-05
6.8364e-05
6.78405e-05
6.75606e-05
6.74793e-05
6.75617e-05
6.77795e-05
6.81103e-05
6.85354e-05
6.90394e-05
6.96093e-05
7.02342e-05
7.09041e-05
7.16103e-05
7.23451e-05
7.30967e-05
7.38624e-05
7.46066e-05
7.52828e-05
0.00105857
0.000836089
0.000679241
0.000569617
0.000490057
0.000430121
0.000383707
0.000346861
0.00031696
0.000292244
0.000271497
0.000253857
0.000238697
0.000225549
0.000214057
0.000203946
0.000194998
0.00018704
0.000179931
0.000173556
0.00016782
0.000162644
0.000157962
0.000153717
0.00014986
0.000146351
0.000143153
0.000140236
0.000137573
0.000135144
0.000132912
0.000130924
0.000128874
0.00115953
0.00109653
0.00101167
0.00092642
0.000849815
0.000783625
0.000727073
0.000678746
0.000637228
0.000601297
0.00056995
0.000542383
0.000517956
0.00049616
0.000476587
0.000458909
0.000442859
0.000428221
0.000414812
0.000402484
0.00039111
0.000380582
0.00037081
0.000361715
0.00035323
0.000345297
0.000337867
0.000330896
0.000324351
0.000318201
0.000312433
0.00030703
0.000302002
0.00116966
0.00115863
0.00113363
0.00109757
0.00105569
0.0010122
0.000969675
0.000929418
0.000891977
0.000857477
0.000825827
0.000796836
0.000770277
0.000745919
0.000723539
0.000702934
0.000683921
0.000666337
0.000650037
0.000634893
0.000620792
0.000607634
0.000595332
0.000583805
0.000572986
0.000562811
0.000553225
0.00054418
0.000535632
0.000527541
0.000519878
0.000512615
0.000505737
0.00117006
0.00116839
0.00116306
0.00115261
0.00113713
0.00111767
0.00109554
0.00107191
0.00104771
0.0010236
0.000999997
0.000977184
0.000955315
0.000934469
0.000914673
0.00089592
0.000878184
0.000861422
0.000845587
0.000830628
0.000816492
0.000803129
0.000790488
0.000778521
0.000767183
0.000756431
0.000746226
0.00073653
0.000727308
0.000718528
0.000710162
0.000702189
0.000694584
0.00116996
0.00116938
0.00116821
0.00116569
0.00116123
0.00115458
0.00114584
0.00113528
0.00112328
0.00111023
0.00109649
0.00108234
0.00106802
0.00105372
0.00103958
0.0010257
0.00101215
0.000998986
0.000986238
0.000973925
0.000962056
0.000950632
0.000939649
0.000929097
0.000918966
0.000909241
0.000899908
0.000890952
0.000882355
0.000874103
0.000866181
0.000858579
0.000851282
0.00116994
0.0011694
0.00116883
0.00116803
0.00116674
0.00116472
0.0011618
0.00115791
0.00115304
0.00114728
0.00114074
0.00113354
0.00112581
0.00111769
0.00110928
0.00110069
0.00109199
0.00108325
0.00107455
0.00106591
0.00105739
0.00104901
0.00104078
0.00103274
0.00102489
0.00101724
0.00100979
0.00100255
0.000995519
0.000988697
0.000982083
0.000975677
0.000969476
0.00116994
0.00116939
0.00116886
0.00116832
0.0011677
0.00116692
0.00116588
0.00116449
0.00116269
0.00116043
0.00115772
0.00115455
0.00115097
0.00114701
0.00114272
0.00113814
0.00113333
0.00112833
0.00112318
0.00111793
0.0011126
0.00110724
0.00110185
0.00109648
0.00109113
0.00108582
0.00108058
0.0010754
0.0010703
0.00106529
0.00106037
0.00105555
0.00105084
0.00116994
0.00116938
0.00116885
0.00116833
0.00116782
0.00116729
0.00116671
0.00116605
0.00116526
0.00116432
0.00116319
0.00116185
0.0011603
0.00115852
0.00115654
0.00115435
0.00115197
0.00114941
0.0011467
0.00114386
0.0011409
0.00113784
0.0011347
0.0011315
0.00112825
0.00112496
0.00112166
0.00111834
0.00111502
0.00111172
0.00110843
0.00110517
0.00110194
0.00116994
0.00116938
0.00116884
0.00116832
0.00116782
0.00116732
0.00116683
0.00116634
0.00116582
0.00116527
0.00116466
0.00116399
0.00116324
0.0011624
0.00116146
0.00116042
0.00115927
0.00115802
0.00115668
0.00115524
0.00115371
0.0011521
0.00115041
0.00114866
0.00114685
0.00114499
0.00114308
0.00114114
0.00113917
0.00113718
0.00113517
0.00113316
0.00113114
0.00116994
0.00116938
0.00116884
0.00116832
0.00116781
0.00116732
0.00116684
0.00116637
0.00116591
0.00116545
0.00116499
0.00116451
0.00116402
0.0011635
0.00116296
0.00116238
0.00116175
0.00116109
0.00116038
0.00115962
0.00115882
0.00115797
0.00115707
0.00115614
0.00115516
0.00115415
0.0011531
0.00115202
0.00115091
0.00114978
0.00114862
0.00114745
0.00114627
0.00116994
0.00116938
0.00116884
0.00116832
0.00116781
0.00116732
0.00116684
0.00116637
0.00116592
0.00116547
0.00116504
0.00116461
0.00116419
0.00116377
0.00116334
0.00116291
0.00116248
0.00116203
0.00116157
0.0011611
0.00116061
0.0011601
0.00115957
0.00115903
0.00115846
0.00115788
0.00115728
0.00115666
0.00115603
0.00115538
0.00115472
0.00115404
0.00115335
0.00116994
0.00116938
0.00116884
0.00116832
0.00116781
0.00116731
0.00116683
0.00116636
0.00116591
0.00116547
0.00116504
0.00116462
0.00116421
0.00116381
0.00116342
0.00116303
0.00116265
0.00116227
0.0011619
0.00116152
0.00116115
0.00116077
0.00116039
0.00116001
0.00115962
0.00115923
0.00115883
0.00115843
0.00115802
0.00115761
0.00115719
0.00115676
0.00115634
0.00116994
0.00116938
0.00116884
0.00116832
0.00116781
0.00116731
0.00116683
0.00116636
0.00116591
0.00116546
0.00116503
0.00116462
0.00116421
0.00116381
0.00116343
0.00116305
0.00116268
0.00116232
0.00116197
0.00116162
0.00116128
0.00116095
0.00116062
0.00116029
0.00115997
0.00115965
0.00115933
0.00115902
0.0011587
0.00115839
0.00115808
0.00115777
0.00115746
0.00116994
0.00116938
0.00116884
0.00116831
0.0011678
0.00116731
0.00116683
0.00116636
0.0011659
0.00116546
0.00116503
0.00116461
0.0011642
0.00116381
0.00116342
0.00116305
0.00116268
0.00116232
0.00116198
0.00116164
0.00116131
0.00116098
0.00116067
0.00116036
0.00116006
0.00115976
0.00115947
0.00115918
0.0011589
0.00115863
0.00115836
0.00115809
0.00115783
0.00116994
0.00116938
0.00116884
0.00116831
0.0011678
0.00116731
0.00116683
0.00116636
0.0011659
0.00116546
0.00116503
0.00116461
0.0011642
0.0011638
0.00116342
0.00116304
0.00116267
0.00116232
0.00116197
0.00116163
0.0011613
0.00116098
0.00116067
0.00116037
0.00116007
0.00115978
0.00115949
0.00115922
0.00115895
0.00115869
0.00115843
0.00115818
0.00115793
0.00116994
0.00116938
0.00116884
0.00116831
0.0011678
0.00116731
0.00116682
0.00116635
0.0011659
0.00116545
0.00116502
0.0011646
0.0011642
0.0011638
0.00116341
0.00116303
0.00116267
0.00116231
0.00116196
0.00116163
0.0011613
0.00116098
0.00116066
0.00116036
0.00116006
0.00115977
0.00115949
0.00115922
0.00115895
0.00115869
0.00115844
0.00115819
0.00115795
0.00116994
0.00116938
0.00116884
0.00116831
0.0011678
0.0011673
0.00116682
0.00116635
0.0011659
0.00116545
0.00116502
0.0011646
0.00116419
0.00116379
0.00116341
0.00116303
0.00116266
0.00116231
0.00116196
0.00116162
0.00116129
0.00116097
0.00116065
0.00116035
0.00116005
0.00115976
0.00115948
0.00115921
0.00115894
0.00115868
0.00115843
0.00115818
0.00115794
0.00116994
0.00116938
0.00116884
0.00116831
0.0011678
0.0011673
0.00116682
0.00116635
0.00116589
0.00116545
0.00116502
0.0011646
0.00116419
0.00116379
0.0011634
0.00116303
0.00116266
0.0011623
0.00116195
0.00116161
0.00116128
0.00116096
0.00116065
0.00116034
0.00116004
0.00115975
0.00115947
0.0011592
0.00115893
0.00115867
0.00115841
0.00115817
0.00115793
0.00116994
0.00116938
0.00116884
0.00116831
0.0011678
0.0011673
0.00116682
0.00116635
0.00116589
0.00116545
0.00116502
0.00116459
0.00116419
0.00116379
0.0011634
0.00116302
0.00116265
0.0011623
0.00116195
0.00116161
0.00116128
0.00116095
0.00116064
0.00116033
0.00116004
0.00115975
0.00115946
0.00115919
0.00115892
0.00115866
0.0011584
0.00115815
0.00115791
0.00116994
0.00116938
0.00116884
0.00116831
0.0011678
0.0011673
0.00116682
0.00116635
0.00116589
0.00116545
0.00116501
0.00116459
0.00116418
0.00116378
0.0011634
0.00116302
0.00116265
0.00116229
0.00116194
0.0011616
0.00116127
0.00116095
0.00116063
0.00116033
0.00116003
0.00115974
0.00115945
0.00115918
0.00115891
0.00115865
0.00115839
0.00115814
0.0011579
0.00116994
0.00116938
0.00116884
0.00116831
0.0011678
0.0011673
0.00116682
0.00116635
0.00116589
0.00116545
0.00116501
0.00116459
0.00116418
0.00116378
0.00116339
0.00116301
0.00116265
0.00116229
0.00116194
0.0011616
0.00116127
0.00116094
0.00116063
0.00116032
0.00116002
0.00115973
0.00115945
0.00115917
0.0011589
0.00115864
0.00115838
0.00115813
0.00115789
0.00116994
0.00116938
0.00116884
0.00116831
0.0011678
0.0011673
0.00116682
0.00116635
0.00116589
0.00116544
0.00116501
0.00116459
0.00116418
0.00116378
0.00116339
0.00116301
0.00116264
0.00116228
0.00116193
0.00116159
0.00116126
0.00116094
0.00116062
0.00116031
0.00116002
0.00115972
0.00115944
0.00115916
0.00115889
0.00115863
0.00115837
0.00115812
0.00115788
0.00116994
0.00116938
0.00116884
0.00116831
0.0011678
0.0011673
0.00116682
0.00116635
0.00116589
0.00116544
0.00116501
0.00116459
0.00116418
0.00116378
0.00116339
0.00116301
0.00116264
0.00116228
0.00116193
0.00116159
0.00116126
0.00116093
0.00116062
0.00116031
0.00116001
0.00115972
0.00115943
0.00115915
0.00115888
0.00115862
0.00115836
0.00115811
0.00115787
0.00116994
0.00116938
0.00116884
0.00116831
0.0011678
0.0011673
0.00116682
0.00116635
0.00116589
0.00116544
0.00116501
0.00116459
0.00116418
0.00116378
0.00116339
0.00116301
0.00116264
0.00116228
0.00116193
0.00116159
0.00116125
0.00116093
0.00116061
0.0011603
0.00116
0.00115971
0.00115943
0.00115915
0.00115888
0.00115861
0.00115835
0.0011581
0.00115786
0.00116994
0.00116938
0.00116884
0.00116831
0.0011678
0.0011673
0.00116682
0.00116635
0.00116589
0.00116544
0.00116501
0.00116459
0.00116417
0.00116377
0.00116338
0.001163
0.00116264
0.00116228
0.00116192
0.00116158
0.00116125
0.00116092
0.00116061
0.0011603
0.00116
0.00115971
0.00115942
0.00115914
0.00115887
0.0011586
0.00115835
0.00115809
0.00115785
0.00116994
0.00116938
0.00116884
0.00116831
0.0011678
0.0011673
0.00116682
0.00116635
0.00116589
0.00116544
0.00116501
0.00116458
0.00116417
0.00116377
0.00116338
0.001163
0.00116263
0.00116227
0.00116192
0.00116158
0.00116125
0.00116092
0.00116061
0.0011603
0.00116
0.0011597
0.00115942
0.00115914
0.00115886
0.0011586
0.00115834
0.00115809
0.00115784
0.00116994
0.00116938
0.00116884
0.00116831
0.0011678
0.0011673
0.00116682
0.00116634
0.00116589
0.00116544
0.00116501
0.00116458
0.00116417
0.00116377
0.00116338
0.001163
0.00116263
0.00116227
0.00116192
0.00116158
0.00116125
0.00116092
0.0011606
0.00116029
0.00115999
0.0011597
0.00115941
0.00115913
0.00115886
0.00115859
0.00115834
0.00115808
0.00115784
0.00116994
0.00116938
0.00116884
0.00116831
0.0011678
0.0011673
0.00116682
0.00116635
0.00116589
0.00116544
0.00116501
0.00116459
0.00116417
0.00116377
0.00116338
0.001163
0.00116263
0.00116227
0.00116192
0.00116158
0.00116125
0.00116092
0.0011606
0.00116029
0.00115999
0.0011597
0.00115941
0.00115913
0.00115886
0.00115859
0.00115833
0.00115808
0.00115783
0.00116994
0.00116938
0.00116884
0.00116831
0.0011678
0.0011673
0.00116682
0.00116635
0.00116589
0.00116544
0.00116501
0.00116459
0.00116418
0.00116378
0.00116339
0.00116301
0.00116264
0.00116228
0.00116192
0.00116158
0.00116125
0.00116092
0.0011606
0.0011603
0.00115999
0.0011597
0.00115941
0.00115913
0.00115885
0.00115859
0.00115833
0.00115807
0.00115782
0.00116994
0.00116938
0.00116884
0.00116831
0.0011678
0.00116731
0.00116682
0.00116635
0.0011659
0.00116545
0.00116502
0.0011646
0.00116418
0.00116378
0.00116339
0.00116301
0.00116264
0.00116228
0.00116193
0.00116158
0.00116125
0.00116092
0.0011606
0.00116029
0.00115998
0.00115968
0.00115939
0.0011591
0.00115882
0.00115855
0.00115828
0.00115801
0.00115775
0.00116994
0.00116938
0.00116884
0.00116831
0.00116781
0.00116731
0.00116683
0.00116636
0.0011659
0.00116546
0.00116503
0.0011646
0.00116419
0.00116379
0.0011634
0.00116301
0.00116264
0.00116227
0.0011619
0.00116155
0.0011612
0.00116086
0.00116052
0.00116019
0.00115986
0.00115953
0.00115921
0.0011589
0.00115859
0.00115828
0.00115797
0.00115767
0.00115737
0.00116994
0.00116938
0.00116884
0.00116833
0.00116782
0.00116733
0.00116685
0.00116638
0.00116593
0.00116548
0.00116503
0.00116459
0.00116416
0.00116373
0.00116331
0.00116288
0.00116246
0.00116204
0.00116161
0.00116119
0.00116076
0.00116033
0.0011599
0.00115946
0.00115902
0.00115858
0.00115814
0.00115769
0.00115724
0.00115678
0.00115632
0.00115586
0.0011554
0.00116994
0.00116939
0.00116886
0.00116835
0.00116784
0.00116733
0.00116683
0.00116632
0.00116581
0.00116528
0.00116473
0.00116417
0.00116358
0.00116297
0.00116233
0.00116166
0.00116096
0.00116024
0.00115948
0.0011587
0.00115789
0.00115706
0.0011562
0.00115531
0.00115441
0.00115348
0.00115254
0.00115158
0.0011506
0.00114961
0.00114861
0.0011476
0.00114658
0.00116995
0.0011694
0.00116886
0.00116828
0.00116765
0.00116694
0.00116612
0.00116519
0.00116413
0.00116294
0.00116162
0.00116016
0.00115858
0.00115688
0.00115506
0.00115313
0.0011511
0.00114898
0.00114679
0.00114452
0.00114219
0.0011398
0.00113738
0.00113491
0.00113241
0.00112989
0.00112736
0.00112481
0.00112226
0.00111971
0.00111716
0.00111463
0.0011121
0.00116996
0.00116916
0.00116786
0.00116595
0.00116343
0.00116029
0.00115656
0.00115226
0.00114746
0.00114221
0.00113657
0.00113062
0.0011244
0.00111799
0.00111142
0.00110475
0.00109801
0.00109124
0.00108447
0.00107772
0.00107103
0.0010644
0.00105784
0.00105138
0.00104503
0.00103878
0.00103265
0.00102664
0.00102076
0.00101501
0.00100938
0.00100389
0.000998525
0.00116831
0.00115866
0.001145
0.00112844
0.00110969
0.00108947
0.00106842
0.00104707
0.00102579
0.00100487
0.000984475
0.000964737
0.000945724
0.000927474
0.000909998
0.000893293
0.000877341
0.00086212
0.0008476
0.000833753
0.000820545
0.000807945
0.000795921
0.000784442
0.000773479
0.000763003
0.000752988
0.000743409
0.000734242
0.000725464
0.000717053
0.000708991
0.000701256
0.00107567
0.000936197
0.000835613
0.000756907
0.000692127
0.000638393
0.0005935
0.00055562
0.000523315
0.000495481
0.000471271
0.000450032
0.000431258
0.00041455
0.000399592
0.000386131
0.000373959
0.000362907
0.000352833
0.000343621
0.00033517
0.000327396
0.000320226
0.000313598
0.000307458
0.000301758
0.000296457
0.000291518
0.00028691
0.000282603
0.000278572
0.000274795
0.000271249
0.000142979
0.000146644
0.000150174
0.000153551
0.000156773
0.000159846
0.000162776
0.000165567
0.000168225
0.000170754
0.000173161
0.00017545
0.000177625
0.000179691
0.000181654
0.000183517
0.000185285
0.000186963
0.000188554
0.000190063
0.000191494
0.00019285
0.000194135
0.000195353
0.000196507
0.000197601
0.000198636
0.000199617
0.000200547
0.000201426
0.00020226
0.000203049
0.000203796
9.09922e-05
0.000110307
0.000133411
0.000160848
0.000192317
0.000226441
0.00026133
0.00029531
0.000327359
0.000357225
0.000385258
0.000412106
0.000438412
0.000464621
0.000490929
0.000517337
0.000543762
0.000570135
0.000596463
0.000622836
0.000649398
0.000676312
0.000703719
0.000731717
0.000760356
0.000789638
0.000819534
0.000849991
0.000880939
0.000912292
0.000943946
0.00097578
0.00100765
0.0010394
0.00107084
0.00110179
0.00113204
0.00116138
0.00118957
0.00121638
0.00124157
0.0012649
0.00128611
0.00130496
0.00132123
0.00133471
0.00134521
0.00135261
0.0013568
0.00135774
0.00135543
0.00134995
0.00134142
0.00133004
0.00131608
0.00129987
0.0012818
0.00126235
0.001242
0.0012213
0.00120081
0.00118109
0.00116268
0.00114607
0.00113167
0.00111983
0.00111079
0.00110467
0.00110151
0.00110125
0.00110375
0.00110883
0.00111628
0.00112588
0.00113742
0.00115075
0.00116572
0.00118227
0.00120035
0.00121999
0.00124125
0.00126423
0.00128906
0.00131589
0.00134488
0.00137616
0.00140985
0.00144601
0.00148465
0.00152569
0.00156891
0.00161401
0.00166053
0.00170785
0.00175521
0.0018017
0.00184621
0.00188791
0.00192315
0.0019665
7.64441e-05
7.85448e-05
8.18635e-05
8.70396e-05
9.48169e-05
0.000105912
0.000120876
0.000139985
0.000163136
0.000189821
0.000219192
0.000250203
0.000281794
0.000313066
0.000343406
0.000372537
0.00040048
0.000427464
0.000453817
0.000479857
0.000505835
0.000531901
0.000558116
0.000584484
0.000610978
0.000637574
0.000664258
0.000691029
0.00071788
0.000744793
0.000771727
0.000798609
0.000825336
0.000851783
0.000877802
0.000903233
0.000927907
0.000951647
0.000974268
0.00099558
0.00101539
0.00103349
0.00104968
0.00106378
0.00107559
0.00108498
0.0010918
0.00109599
0.0010975
0.00109636
0.00109265
0.00108651
0.00107816
0.00106788
0.00105602
0.00104299
0.00102925
0.00101533
0.00100174
0.000989038
0.000977727
0.000968278
0.00096108
0.000956425
0.000954492
0.000955337
0.000958897
0.000965009
0.000973426
0.000983853
0.000995971
0.00100947
0.00102406
0.0010395
0.00105561
0.00107227
0.00108942
0.00110706
0.00112526
0.00114413
0.00116383
0.00118456
0.00120657
0.0012301
0.00125543
0.00128281
0.00131249
0.00134465
0.00137941
0.0014168
0.00145674
0.00149897
0.00154313
0.00158863
0.00163474
0.00168054
0.00172492
0.00176705
0.00180308
0.0018485
0.000126837
0.000124826
0.00012279
0.00012053
0.000118042
0.000115512
0.000113547
0.000112617
0.000113157
0.000115684
0.000120727
0.000128744
0.000140046
0.000154755
0.000172774
0.000193799
0.000217344
0.000242801
0.000269517
0.00029687
0.000324339
0.000351549
0.000378281
0.000404456
0.000430102
0.000455302
0.000480156
0.000504747
0.000529121
0.000553283
0.000577196
0.000600789
0.000623971
0.000646636
0.000668672
0.000689961
0.000710387
0.000729831
0.00074817
0.000765276
0.000781021
0.000795273
0.000807902
0.00081879
0.000827838
0.000834974
0.000840163
0.000843419
0.000844807
0.000844453
0.000842545
0.000839337
0.000835144
0.000830342
0.000825355
0.000820644
0.000816687
0.000813953
0.000812879
0.000813838
0.00081711
0.000822862
0.000831136
0.000841844
0.000854782
0.000869651
0.00088609
0.000903706
0.000922109
0.000940934
0.000959868
0.000978653
0.0009971
0.00101508
0.00103254
0.00104947
0.00106593
0.001082
0.00109783
0.0011136
0.00112952
0.00114587
0.00116291
0.00118099
0.00120042
0.00122157
0.00124478
0.00127038
0.00129861
0.00132967
0.00136361
0.00140033
0.00143956
0.00148084
0.00152348
0.00156662
0.00160912
0.00165018
0.00168579
0.00173198
0.000296568
0.000290557
0.000284553
0.000278457
0.000272105
0.000265296
0.000257905
0.0002498
0.000241249
0.0002324
0.000223373
0.000214411
0.000205887
0.000198279
0.000192112
0.000187892
0.000186048
0.000186895
0.000190618
0.000197258
0.000206728
0.000218827
0.000233256
0.000249656
0.000267633
0.000286789
0.000306756
0.00032721
0.00034788
0.000368552
0.00038906
0.000409275
0.00042909
0.000448417
0.000467174
0.000485283
0.000502669
0.00051926
0.000534985
0.000549779
0.000563582
0.000576341
0.000588017
0.00059859
0.000608067
0.000616488
0.000623936
0.000630538
0.000636476
0.000641982
0.000647333
0.000652849
0.00065888
0.000665784
0.000673913
0.000683586
0.000695062
0.000708517
0.000724025
0.000741547
0.000760932
0.00078193
0.000804214
0.000827405
0.000851107
0.000874933
0.000898526
0.000921582
0.000943852
0.000965152
0.000985356
0.0010044
0.00102225
0.00103894
0.00105453
0.00106909
0.00108273
0.00109559
0.00110782
0.00111959
0.00113109
0.00114255
0.00115422
0.00116639
0.0011794
0.00119359
0.00120936
0.0012271
0.00124721
0.00127002
0.00129577
0.00132458
0.00135638
0.00139088
0.00142756
0.00146566
0.00150411
0.00154215
0.00157575
0.00162081
0.000498189
0.000489943
0.000481948
0.000474153
0.00046649
0.000458862
0.000451147
0.000443193
0.000434881
0.000426219
0.000417124
0.000407502
0.000397275
0.000386408
0.000374927
0.000362938
0.000350639
0.000338315
0.00032632
0.000315054
0.000304917
0.000296277
0.000289436
0.000284616
0.000281948
0.000281473
0.000283154
0.000286884
0.000292505
0.000299819
0.000308606
0.000318632
0.00032967
0.000341498
0.000353917
0.000366751
0.000379854
0.000393106
0.000406419
0.000419732
0.000433009
0.00044624
0.000459441
0.000472655
0.000485954
0.000499437
0.000513236
0.000527507
0.000542427
0.000558183
0.000574958
0.00059292
0.0006122
0.00063288
0.00065498
0.000678446
0.000703155
0.000728911
0.000755461
0.000782512
0.000809745
0.000836841
0.000863495
0.000889433
0.000914422
0.00093828
0.000960872
0.000982111
0.00100196
0.0010204
0.00103748
0.00105324
0.00106775
0.0010811
0.00109338
0.00110469
0.00111514
0.00112483
0.00113387
0.00114238
0.00115049
0.00115833
0.00116607
0.0011739
0.00118203
0.00119075
0.00120036
0.00121122
0.00122376
0.00123837
0.00125546
0.00127534
0.00129822
0.00132408
0.00135267
0.00138348
0.00141563
0.00144847
0.0014782
0.0015197
0.000686179
0.00067696
0.000668028
0.000659372
0.000650965
0.000642769
0.000634738
0.000626808
0.000618922
0.00061104
0.000603111
0.000595078
0.000586877
0.00057844
0.000569702
0.000560601
0.000551093
0.000541153
0.000530789
0.00052005
0.000509027
0.000497853
0.000486704
0.000475785
0.000465321
0.000455545
0.000446682
0.000438937
0.000432487
0.000427472
0.000423992
0.000422111
0.000421852
0.000423209
0.000426148
0.000430616
0.000436549
0.000443879
0.000452539
0.000462469
0.000473621
0.000485959
0.000499463
0.000514124
0.000529944
0.000546933
0.000565101
0.000584452
0.00060498
0.000626654
0.000649421
0.000673191
0.000697844
0.000723224
0.000749143
0.000775391
0.000801739
0.000827956
0.000853809
0.000879084
0.000903585
0.000927146
0.000949634
0.000970948
0.000991023
0.00100982
0.00102735
0.00104361
0.00105865
0.00107253
0.00108531
0.00109707
0.00110789
0.00111784
0.00112702
0.0011355
0.00114337
0.0011507
0.00115756
0.00116403
0.00117017
0.00117607
0.00118179
0.00118742
0.00119308
0.00119889
0.00120504
0.00121173
0.00121926
0.00122795
0.00123821
0.00125043
0.00126498
0.00128211
0.00130189
0.00132417
0.00134843
0.00137423
0.00139837
0.0014337
0.000843152
0.000834155
0.000825358
0.000816767
0.000808377
0.000800182
0.000792171
0.000784324
0.000776632
0.000769078
0.000761646
0.000754315
0.000747067
0.000739878
0.000732723
0.000725576
0.000718408
0.000711189
0.000703893
0.000696503
0.000689009
0.000681418
0.000673753
0.000666058
0.000658398
0.000650857
0.000643541
0.000636569
0.000630075
0.000624198
0.000619083
0.000614871
0.000611696
0.000609679
0.000608928
0.000609527
0.000611542
0.00061502
0.000619986
0.000626447
0.000634397
0.000643815
0.000654671
0.000666923
0.000680519
0.000695396
0.000711476
0.000728666
0.000746858
0.000765926
0.000785726
0.000806103
0.000826887
0.000847902
0.000868971
0.000889918
0.000910575
0.000930786
0.000950414
0.000969339
0.000987463
0.00100471
0.00102104
0.0010364
0.0010508
0.00106424
0.00107674
0.00108833
0.00109906
0.00110899
0.00111816
0.00112664
0.0011345
0.00114178
0.00114856
0.0011549
0.00116085
0.00116648
0.00117184
0.00117698
0.00118196
0.00118682
0.0011916
0.00119634
0.0012011
0.00120591
0.00121083
0.00121594
0.00122136
0.00122725
0.00123383
0.00124139
0.00125025
0.00126074
0.00127313
0.00128756
0.00130392
0.00132206
0.00133974
0.00136692
0.000962499
0.00095469
0.00094696
0.000939324
0.000931791
0.00092437
0.000917063
0.000909871
0.000902799
0.000895848
0.000889019
0.000882316
0.00087574
0.000869293
0.000862977
0.000856793
0.00085074
0.000844814
0.000839014
0.000833335
0.000827776
0.000822335
0.000817019
0.000811836
0.000806805
0.000801953
0.000797316
0.000792941
0.000788887
0.00078522
0.000782018
0.000779364
0.000777345
0.000776051
0.000775568
0.000775976
0.000777348
0.000779742
0.000783203
0.000787762
0.000793432
0.000800213
0.000808088
0.000817026
0.000826982
0.000837897
0.000849697
0.000862295
0.000875592
0.000889477
0.00090383
0.000918526
0.000933435
0.000948429
0.000963383
0.000978179
0.000992707
0.00100687
0.00102059
0.00103378
0.00104641
0.00105842
0.00106979
0.00108051
0.00109058
0.0011
0.00110879
0.00111698
0.00112459
0.00113167
0.00113824
0.00114436
0.00115006
0.00115539
0.00116038
0.0011651
0.00116959
0.00117388
0.00117803
0.00118209
0.0011861
0.0011901
0.00119414
0.00119827
0.0012025
0.00120688
0.00121142
0.00121614
0.00122106
0.00122622
0.00123166
0.00123748
0.00124382
0.00125086
0.00125884
0.00126795
0.00127831
0.00128999
0.00130179
0.00132052
0.00104548
0.0010394
0.0010333
0.0010272
0.0010211
0.00101502
0.00100897
0.00100295
0.000996984
0.000991069
0.000985218
0.000979443
0.000973754
0.000968162
0.000962678
0.000957316
0.000952087
0.000947001
0.000942071
0.000937305
0.000932716
0.000928311
0.000924103
0.000920103
0.000916324
0.000912783
0.0009095
0.000906497
0.000903802
0.000901449
0.000899473
0.000897917
0.000896825
0.000896244
0.000896221
0.000896802
0.000898028
0.000899936
0.000902555
0.000905905
0.000909998
0.000914833
0.000920403
0.000926686
0.000933653
0.000941263
0.000949464
0.000958198
0.000967396
0.000976982
0.000986876
0.000996994
0.00100725
0.00101756
0.00102784
0.00103802
0.00104803
0.0010578
0.00106728
0.00107642
0.0010852
0.00109358
0.00110155
0.00110909
0.00111621
0.0011229
0.00112917
0.00113504
0.00114053
0.00114565
0.00115043
0.00115489
0.00115906
0.00116298
0.00116666
0.00117015
0.00117347
0.00117667
0.00117978
0.00118285
0.00118592
0.00118902
0.00119222
0.00119556
0.00119908
0.00120283
0.00120685
0.00121115
0.00121576
0.00122068
0.00122589
0.00123138
0.00123713
0.00124316
0.00124951
0.00125625
0.00126347
0.00127126
0.00127909
0.00129126
0.00109822
0.00109394
0.00108958
0.00108516
0.00108068
0.00107616
0.00107159
0.001067
0.00106239
0.00105777
0.00105316
0.00104856
0.00104399
0.00103945
0.00103497
0.00103055
0.00102622
0.00102199
0.00101786
0.00101387
0.00101002
0.00100632
0.0010028
0.000999469
0.000996341
0.000993434
0.000990765
0.000988351
0.000986212
0.000984367
0.000982839
0.000981651
0.000980828
0.000980393
0.000980371
0.000980785
0.000981657
0.000983004
0.000984841
0.000987177
0.000990016
0.000993356
0.000997191
0.00100151
0.00100628
0.00101149
0.00101709
0.00102306
0.00102934
0.0010359
0.00104266
0.0010496
0.00105663
0.00106373
0.00107082
0.00107786
0.00108481
0.00109162
0.00109826
0.0011047
0.00111091
0.00111687
0.00112256
0.00112799
0.00113313
0.00113799
0.00114257
0.00114688
0.00115092
0.0011547
0.00115824
0.00116155
0.00116464
0.00116754
0.00117026
0.00117282
0.00117526
0.00117759
0.00117984
0.00118205
0.00118426
0.00118649
0.00118881
0.00119125
0.00119388
0.00119674
0.00119989
0.00120338
0.00120725
0.00121154
0.00121626
0.00122138
0.00122686
0.00123264
0.00123865
0.00124481
0.00125107
0.0012574
0.00126344
0.00127216
0.00112877
0.00112602
0.00112318
0.00112025
0.00111723
0.00111415
0.00111099
0.00110777
0.0011045
0.00110118
0.00109783
0.00109444
0.00109104
0.00108763
0.00108422
0.00108083
0.00107746
0.00107414
0.00107088
0.00106769
0.00106458
0.00106158
0.00105869
0.00105594
0.00105333
0.00105089
0.00104863
0.00104657
0.00104472
0.0010431
0.00104173
0.00104062
0.00103979
0.00103925
0.00103903
0.00103912
0.00103956
0.00104033
0.00104146
0.00104294
0.00104478
0.00104697
0.0010495
0.00105238
0.00105558
0.00105908
0.00106287
0.00106691
0.00107119
0.00107566
0.0010803
0.00108508
0.00108994
0.00109487
0.00109982
0.00110476
0.00110967
0.0011145
0.00111925
0.00112387
0.00112836
0.0011327
0.00113687
0.00114086
0.00114468
0.0011483
0.00115173
0.00115497
0.00115801
0.00116088
0.00116355
0.00116606
0.00116839
0.00117057
0.00117259
0.00117449
0.00117627
0.00117794
0.00117953
0.00118106
0.00118257
0.00118407
0.0011856
0.00118721
0.00118895
0.00119087
0.00119302
0.00119548
0.00119829
0.00120153
0.00120524
0.00120945
0.00121416
0.00121932
0.00122487
0.0012307
0.00123666
0.00124264
0.00124815
0.0012559
0.00114486
0.00114321
0.00114148
0.00113967
0.00113778
0.00113582
0.00113379
0.00113169
0.00112953
0.00112732
0.00112505
0.00112273
0.00112037
0.00111798
0.00111556
0.00111313
0.00111069
0.00110825
0.00110583
0.00110343
0.00110107
0.00109876
0.00109652
0.00109435
0.00109227
0.0010903
0.00108844
0.00108672
0.00108514
0.00108373
0.00108249
0.00108145
0.0010806
0.00107997
0.00107956
0.00107939
0.00107946
0.00107979
0.00108037
0.0010812
0.0010823
0.00108365
0.00108525
0.00108711
0.00108919
0.00109151
0.00109404
0.00109677
0.00109967
0.00110273
0.00110593
0.00110924
0.00111265
0.00111612
0.00111963
0.00112316
0.00112669
0.00113019
0.00113365
0.00113706
0.00114038
0.00114362
0.00114675
0.00114977
0.00115267
0.00115545
0.00115809
0.00116059
0.00116295
0.00116517
0.00116725
0.00116919
0.001171
0.00117267
0.00117421
0.00117563
0.00117694
0.00117815
0.00117926
0.0011803
0.00118128
0.00118222
0.00118315
0.0011841
0.0011851
0.00118621
0.00118746
0.00118892
0.00119066
0.00119273
0.00119521
0.00119815
0.00120161
0.0012056
0.0012101
0.00121504
0.00122031
0.00122582
0.00123088
0.00123845
0.00115254
0.00115156
0.00115054
0.00114946
0.00114832
0.00114713
0.00114588
0.00114458
0.00114322
0.00114181
0.00114036
0.00113885
0.00113731
0.00113572
0.0011341
0.00113246
0.00113078
0.0011291
0.0011274
0.0011257
0.00112401
0.00112233
0.00112069
0.00111907
0.0011175
0.001116
0.00111455
0.00111319
0.00111192
0.00111076
0.00110971
0.00110879
0.001108
0.00110736
0.00110688
0.00110657
0.00110643
0.00110647
0.00110669
0.0011071
0.0011077
0.00110849
0.00110947
0.00111063
0.00111198
0.00111349
0.00111517
0.00111701
0.001119
0.00112111
0.00112334
0.00112568
0.0011281
0.00113059
0.00113313
0.00113571
0.00113831
0.00114091
0.00114351
0.00114608
0.00114862
0.0011511
0.00115353
0.00115588
0.00115816
0.00116035
0.00116244
0.00116443
0.00116632
0.0011681
0.00116977
0.00117132
0.00117275
0.00117408
0.00117528
0.00117638
0.00117737
0.00117825
0.00117904
0.00117973
0.00118035
0.0011809