/*--------------------------------*- C++ -*----------------------------------*\
| =========                 |                                                 |
| \\      /  F ield         | OpenFOAM: The Open Source CFD Toolbox           |
|  \\    /   O peration     | Version:  2.1.1                                 |
|   \\  /    A nd           | Web:      www.OpenFOAM.org                      |
|    \\/     M anipulation  |                                                 |
\*---------------------------------------------------------------------------*/
FoamFile
{
    version     2.0;
    format      ascii;
    class       volScalarField;
    location    "0.185";
    object      p;
}
// * * * * * * * * * * * * * * * * * * * * * * * * * * * * * * * * * * * * * //

dimensions      [0 2 -2 0 0 0 0];

internalField   nonuniform List<scalar> 
6820
(
-10.1845
-12.0308
-12.6058
-12.7335
-12.8406
-12.9197
-12.974
-13.0204
-13.0627
-13.1015
-13.1377
-13.1719
-13.2043
-13.2351
-13.2645
-13.2926
-13.3195
-13.3452
-13.37
-13.394
-13.417
-13.4394
-13.461
-13.4819
-13.502
-13.5213
-13.5395
-13.5561
-13.5701
-13.5804
-13.5826
-13.5709
-13.5319
-14.137
-13.6024
-13.1799
-12.9899
-12.9652
-12.9764
-12.9965
-13.0243
-13.0564
-13.0896
-13.1229
-13.1559
-13.188
-13.2191
-13.2491
-13.2779
-13.3056
-13.3322
-13.3579
-13.3825
-13.4064
-13.4294
-13.4517
-13.4733
-13.4942
-13.5143
-13.5336
-13.552
-13.569
-13.5864
-13.6022
-13.6384
-13.6872
-12.4945
-12.1907
-12.4773
-12.7224
-12.8273
-12.9026
-12.9615
-13.0108
-13.0547
-13.0946
-13.1315
-13.1661
-13.1987
-13.2295
-13.2589
-13.2868
-13.3136
-13.3393
-13.364
-13.3878
-13.4109
-13.4333
-13.455
-13.4761
-13.4967
-13.5167
-13.5361
-13.5551
-13.5736
-13.5928
-13.613
-13.6408
-13.6735
-13.0015
-13.0358
-13.033
-12.9738
-12.966
-12.9864
-13.0127
-13.0415
-13.0722
-13.1034
-13.1344
-13.1648
-13.1946
-13.2236
-13.2517
-13.2789
-13.3052
-13.3307
-13.3554
-13.3794
-13.4026
-13.4253
-13.4474
-13.469
-13.4901
-13.5108
-13.5312
-13.5515
-13.572
-13.5941
-13.6183
-13.6516
-13.6915
-12.8461
-12.7461
-12.7902
-12.8562
-12.9091
-12.9556
-12.9962
-13.0335
-13.0692
-13.1034
-13.1362
-13.1677
-13.198
-13.2272
-13.2553
-13.2823
-13.3084
-13.3335
-13.3579
-13.3815
-13.4045
-13.4269
-13.4487
-13.4702
-13.4912
-13.5121
-13.5328
-13.5537
-13.5753
-13.5985
-13.6243
-13.6559
-13.6927
-12.9012
-12.8845
-12.9096
-12.9327
-12.955
-12.9842
-13.0157
-13.0472
-13.0788
-13.1101
-13.1406
-13.1704
-13.1993
-13.2273
-13.2545
-13.2808
-13.3063
-13.331
-13.3551
-13.3785
-13.4013
-13.4236
-13.4455
-13.467
-13.4883
-13.5094
-13.5306
-13.5522
-13.5746
-13.5987
-13.6251
-13.6557
-13.6902
-12.8994
-12.8782
-12.8941
-12.9228
-12.9529
-12.9857
-13.0185
-13.0504
-13.0819
-13.1127
-13.1428
-13.172
-13.2005
-13.2281
-13.2549
-13.2808
-13.306
-13.3305
-13.3543
-13.3775
-13.4001
-13.4223
-13.4441
-13.4657
-13.487
-13.5083
-13.5298
-13.5517
-13.5745
-13.5987
-13.6248
-13.6539
-13.6854
-12.9135
-12.9058
-12.9211
-12.9456
-12.9708
-12.9988
-13.0283
-13.058
-13.0876
-13.117
-13.1459
-13.1742
-13.2018
-13.2286
-13.2548
-13.2802
-13.3049
-13.329
-13.3525
-13.3754
-13.3979
-13.4199
-13.4416
-13.4631
-13.4845
-13.5058
-13.5274
-13.5495
-13.5723
-13.5964
-13.6219
-13.6494
-13.6784
-12.9265
-12.9225
-12.9347
-12.9562
-12.9801
-13.0068
-13.0351
-13.0636
-13.0922
-13.1205
-13.1485
-13.176
-13.2028
-13.2291
-13.2546
-13.2796
-13.3039
-13.3276
-13.3508
-13.3735
-13.3957
-13.4176
-13.4391
-13.4605
-13.4818
-13.5032
-13.5247
-13.5467
-13.5694
-13.593
-13.6177
-13.6436
-13.6704
-12.94
-12.9394
-12.9507
-12.9701
-12.9922
-13.0168
-13.0432
-13.0701
-13.0973
-13.1244
-13.1514
-13.1779
-13.204
-13.2295
-13.2545
-13.2789
-13.3027
-13.3261
-13.3489
-13.3713
-13.3932
-13.4149
-13.4363
-13.4575
-13.4787
-13.4999
-13.5213
-13.543
-13.5653
-13.5883
-13.612
-13.6365
-13.6615
-12.9535
-12.9545
-12.9649
-12.9823
-13.0028
-13.0258
-13.0506
-13.0761
-13.1021
-13.1282
-13.1541
-13.1798
-13.2051
-13.23
-13.2543
-13.2782
-13.3016
-13.3245
-13.3469
-13.3689
-13.3906
-13.412
-13.4332
-13.4542
-13.4751
-13.4961
-13.5172
-13.5386
-13.5604
-13.5827
-13.6054
-13.6286
-13.6519
-12.9668
-12.9687
-12.9785
-12.9944
-13.0134
-13.0348
-13.0581
-13.0823
-13.107
-13.132
-13.157
-13.1818
-13.2063
-13.2304
-13.2542
-13.2775
-13.3003
-13.3228
-13.3448
-13.3665
-13.3878
-13.4089
-13.4298
-13.4505
-13.4712
-13.4918
-13.5126
-13.5336
-13.5548
-13.5762
-13.598
-13.6199
-13.6418
-12.9796
-12.982
-12.9912
-13.0057
-13.0234
-13.0434
-13.0653
-13.0882
-13.1118
-13.1357
-13.1597
-13.1837
-13.2074
-13.2308
-13.2539
-13.2767
-13.299
-13.321
-13.3426
-13.3639
-13.3849
-13.4056
-13.4262
-13.4465
-13.4668
-13.4871
-13.5074
-13.5279
-13.5484
-13.5691
-13.5899
-13.6107
-13.6313
-12.9919
-12.9945
-13.0032
-13.0166
-13.033
-13.0517
-13.0723
-13.094
-13.1165
-13.1394
-13.1624
-13.1855
-13.2085
-13.2312
-13.2537
-13.2758
-13.2976
-13.3191
-13.3403
-13.3612
-13.3818
-13.4021
-13.4223
-13.4422
-13.4621
-13.482
-13.5018
-13.5216
-13.5415
-13.5614
-13.5812
-13.6009
-13.6204
-13.0036
-13.0062
-13.0144
-13.0268
-13.0421
-13.0597
-13.079
-13.0996
-13.121
-13.1429
-13.165
-13.1873
-13.2095
-13.2315
-13.2533
-13.2749
-13.2962
-13.3172
-13.3378
-13.3583
-13.3784
-13.3984
-13.4181
-13.4376
-13.4571
-13.4764
-13.4957
-13.5149
-13.534
-13.5531
-13.5721
-13.5908
-13.6093
-13.0146
-13.0171
-13.0248
-13.0364
-13.0507
-13.0672
-13.0854
-13.1049
-13.1253
-13.1462
-13.1675
-13.1889
-13.2104
-13.2317
-13.2529
-13.2738
-13.2946
-13.315
-13.3352
-13.3552
-13.3749
-13.3944
-13.4136
-13.4327
-13.4517
-13.4705
-13.4891
-13.5077
-13.5261
-13.5444
-13.5625
-13.5803
-13.5978
-13.0248
-13.0273
-13.0346
-13.0454
-13.0587
-13.0742
-13.0915
-13.11
-13.1294
-13.1494
-13.1698
-13.1904
-13.2111
-13.2318
-13.2523
-13.2727
-13.2928
-13.3128
-13.3325
-13.3519
-13.3711
-13.3901
-13.4089
-13.4275
-13.4459
-13.4641
-13.4822
-13.5001
-13.5178
-13.5353
-13.5525
-13.5695
-13.5861
-13.0344
-13.0367
-13.0436
-13.0537
-13.0662
-13.0808
-13.0971
-13.1147
-13.1332
-13.1523
-13.1719
-13.1918
-13.2117
-13.2317
-13.2516
-13.2714
-13.291
-13.3104
-13.3295
-13.3485
-13.3672
-13.3857
-13.4039
-13.422
-13.4398
-13.4575
-13.4749
-13.4921
-13.5091
-13.5258
-13.5423
-13.5584
-13.5741
-13.0432
-13.0454
-13.0519
-13.0614
-13.0731
-13.0869
-13.1023
-13.119
-13.1367
-13.155
-13.1738
-13.1929
-13.2121
-13.2314
-13.2507
-13.2699
-13.2889
-13.3077
-13.3264
-13.3448
-13.363
-13.3809
-13.3987
-13.4162
-13.4334
-13.4505
-13.4673
-13.4838
-13.5001
-13.516
-13.5317
-13.547
-13.5619
-13.0512
-13.0533
-13.0594
-13.0684
-13.0794
-13.0925
-13.1071
-13.123
-13.1398
-13.1573
-13.1754
-13.1937
-13.2123
-13.231
-13.2496
-13.2682
-13.2867
-13.3049
-13.323
-13.3409
-13.3586
-13.376
-13.3932
-13.4101
-13.4268
-13.4432
-13.4593
-13.4752
-13.4907
-13.506
-13.5209
-13.5354
-13.5495
-13.0585
-13.0605
-13.0662
-13.0746
-13.0851
-13.0974
-13.1113
-13.1264
-13.1425
-13.1593
-13.1767
-13.1944
-13.2123
-13.2303
-13.2483
-13.2663
-13.2842
-13.3019
-13.3195
-13.3368
-13.3539
-13.3708
-13.3874
-13.4038
-13.4198
-13.4356
-13.4511
-13.4663
-13.4812
-13.4957
-13.5098
-13.5236
-13.5369
-13.0649
-13.0668
-13.0722
-13.0802
-13.0901
-13.1018
-13.115
-13.1294
-13.1448
-13.1609
-13.1776
-13.1946
-13.2119
-13.2293
-13.2468
-13.2642
-13.2815
-13.2987
-13.3157
-13.3325
-13.3491
-13.3654
-13.3814
-13.3972
-13.4126
-13.4278
-13.4426
-13.4572
-13.4713
-13.4851
-13.4985
-13.5116
-13.5242
-13.0705
-13.0723
-13.0774
-13.0849
-13.0944
-13.1055
-13.1181
-13.1319
-13.1466
-13.1621
-13.1782
-13.1946
-13.2113
-13.2281
-13.245
-13.2619
-13.2787
-13.2953
-13.3117
-13.328
-13.344
-13.3597
-13.3752
-13.3904
-13.4052
-13.4198
-13.434
-13.4478
-13.4613
-13.4744
-13.4871
-13.4994
-13.5113
-13.0752
-13.0769
-13.0818
-13.0889
-13.0979
-13.1085
-13.1205
-13.1338
-13.1479
-13.1628
-13.1783
-13.1941
-13.2103
-13.2265
-13.2429
-13.2592
-13.2755
-13.2916
-13.3075
-13.3232
-13.3386
-13.3538
-13.3687
-13.3833
-13.3976
-13.4115
-13.4251
-13.4383
-13.4511
-13.4636
-13.4756
-13.4872
-13.4983
-13.0791
-13.0807
-13.0853
-13.0921
-13.1007
-13.1108
-13.1224
-13.1351
-13.1488
-13.1632
-13.1781
-13.1934
-13.209
-13.2248
-13.2406
-13.2564
-13.2722
-13.2877
-13.3031
-13.3183
-13.3332
-13.3479
-13.3622
-13.3762
-13.3899
-13.4032
-13.4162
-13.4287
-13.4409
-13.4527
-13.464
-13.4749
-13.4854
-13.082
-13.0835
-13.0879
-13.0943
-13.1025
-13.1122
-13.1233
-13.1356
-13.1487
-13.1626
-13.177
-13.1919
-13.2071
-13.2224
-13.2377
-13.2531
-13.2683
-13.2834
-13.2983
-13.313
-13.3274
-13.3415
-13.3553
-13.3688
-13.3819
-13.3946
-13.407
-13.4189
-13.4305
-13.4416
-13.4523
-13.4625
-13.4723
-13.0839
-13.0854
-13.0897
-13.0959
-13.1038
-13.1133
-13.1241
-13.136
-13.1488
-13.1623
-13.1763
-13.1907
-13.2054
-13.2202
-13.2351
-13.25
-13.2647
-13.2793
-13.2937
-13.3079
-13.3218
-13.3354
-13.3486
-13.3615
-13.3741
-13.3862
-13.398
-13.4093
-13.4202
-13.4307
-13.4408
-13.4504
-13.4595
-13.0848
-13.0861
-13.0899
-13.0958
-13.1032
-13.1122
-13.1226
-13.1341
-13.1466
-13.1597
-13.1735
-13.1876
-13.202
-13.2165
-13.231
-13.2455
-13.2599
-13.2741
-13.2881
-13.3018
-13.3153
-13.3284
-13.3412
-13.3536
-13.3656
-13.3773
-13.3885
-13.3993
-13.4096
-13.4195
-13.429
-13.438
-13.4466
-13.085
-13.0866
-13.0906
-13.0965
-13.104
-13.113
-13.1233
-13.1346
-13.1467
-13.1596
-13.173
-13.1866
-13.2006
-13.2146
-13.2287
-13.2427
-13.2566
-13.2703
-13.2838
-13.297
-13.3099
-13.3225
-13.3348
-13.3466
-13.3581
-13.3691
-13.3798
-13.39
-13.3997
-13.409
-13.4179
-13.4263
-13.4342
-13.0833
-13.0839
-13.0867
-13.0916
-13.0984
-13.1069
-13.1169
-13.1282
-13.1403
-13.1532
-13.1666
-13.1803
-13.1943
-13.2083
-13.2223
-13.2362
-13.25
-13.2635
-13.2768
-13.2898
-13.3024
-13.3147
-13.3266
-13.3381
-13.3492
-13.3598
-13.37
-13.3797
-13.389
-13.3978
-13.4062
-13.4141
-13.4215
-13.0827
-13.0853
-13.0897
-13.0956
-13.1029
-13.1115
-13.1213
-13.1321
-13.1437
-13.156
-13.1688
-13.1818
-13.1951
-13.2085
-13.2218
-13.2351
-13.2482
-13.2611
-13.2737
-13.2861
-13.2981
-13.3098
-13.3211
-13.332
-13.3424
-13.3525
-13.3621
-13.3712
-13.3799
-13.3881
-13.3959
-13.4031
-13.41
-13.0748
-13.0728
-13.073
-13.0767
-13.0833
-13.0922
-13.1028
-13.1147
-13.1275
-13.141
-13.1548
-13.1688
-13.1829
-13.197
-13.211
-13.2247
-13.2382
-13.2514
-13.2642
-13.2767
-13.2888
-13.3004
-13.3116
-13.3224
-13.3327
-13.3425
-13.3519
-13.3608
-13.3692
-13.377
-13.3845
-13.3914
-13.3978
-13.0827
-13.0892
-13.0949
-13.0999
-13.1056
-13.1128
-13.1215
-13.1313
-13.1421
-13.1535
-13.1655
-13.1778
-13.1902
-13.2028
-13.2154
-13.2279
-13.2402
-13.2523
-13.2641
-13.2757
-13.2868
-13.2976
-13.308
-13.318
-13.3276
-13.3367
-13.3454
-13.3536
-13.3613
-13.3685
-13.3753
-13.3816
-13.3874
-13.0507
-13.0371
-13.0321
-13.0373
-13.0473
-13.0599
-13.0739
-13.0889
-13.1045
-13.1202
-13.1359
-13.1514
-13.1667
-13.1817
-13.1963
-13.2105
-13.2243
-13.2376
-13.2504
-13.2628
-13.2746
-13.286
-13.2968
-13.3071
-13.3169
-13.3261
-13.3349
-13.3431
-13.3508
-13.3579
-13.3646
-13.3707
-13.3764
-13.1047
-13.125
-13.1295
-13.1249
-13.1223
-13.1244
-13.1296
-13.1366
-13.145
-13.1546
-13.165
-13.176
-13.1873
-13.1988
-13.2103
-13.2219
-13.2333
-13.2445
-13.2555
-13.2661
-13.2765
-13.2864
-13.296
-13.3052
-13.3139
-13.3222
-13.33
-13.3373
-13.3442
-13.3506
-13.3566
-13.362
-13.367
-12.9818
-12.9323
-12.9204
-12.9463
-12.9745
-12.9988
-13.0226
-13.0458
-13.0678
-13.0887
-13.1086
-13.1275
-13.1454
-13.1624
-13.1787
-13.1941
-13.2089
-13.2229
-13.2362
-13.2489
-13.2609
-13.2723
-13.2831
-13.2933
-13.3028
-13.3118
-13.3202
-13.328
-13.3352
-13.3419
-13.348
-13.3536
-13.3586
-13.2302
-13.2651
-13.2342
-13.1917
-13.163
-13.1519
-13.149
-13.1498
-13.1536
-13.1597
-13.1674
-13.1761
-13.1856
-13.1955
-13.2057
-13.2161
-13.2264
-13.2366
-13.2467
-13.2565
-13.266
-13.2752
-13.2841
-13.2925
-13.3005
-13.3081
-13.3153
-13.322
-13.3282
-13.334
-13.3393
-13.3441
-13.3485
-12.738
-12.6182
-12.6806
-12.782
-12.856
-12.9079
-12.9517
-12.9899
-13.0232
-13.0525
-13.0788
-13.1026
-13.1243
-13.1443
-13.1628
-13.1801
-13.1961
-13.2112
-13.2253
-13.2385
-13.2509
-13.2625
-13.2734
-13.2836
-13.2931
-13.3019
-13.3101
-13.3177
-13.3246
-13.3309
-13.3366
-13.3418
-13.3463
-13.9525
-13.6136
-13.3499
-13.2329
-13.1827
-13.1574
-13.1424
-13.1362
-13.1364
-13.1404
-13.147
-13.1553
-13.1647
-13.1748
-13.1853
-13.196
-13.2067
-13.2173
-13.2278
-13.2379
-13.2478
-13.2572
-13.2663
-13.275
-13.2832
-13.2909
-13.2982
-13.3049
-13.3112
-13.317
-13.3223
-13.3272
-13.3315
-11.4489
-12.1555
-12.5601
-12.7125
-12.8172
-12.8996
-12.9591
-13.0041
-13.0407
-13.0711
-13.0969
-13.1195
-13.1396
-13.1579
-13.1747
-13.1903
-13.2048
-13.2183
-13.231
-13.243
-13.2542
-13.2648
-13.2747
-13.2839
-13.2925
-13.3006
-13.308
-13.3148
-13.3211
-13.3268
-13.3319
-13.3365
-13.3406
-13.4195
-13.6696
-13.7995
-13.8884
-13.9542
-14.0012
-14.036
-14.0682
-14.1
-14.134
-14.1717
-14.2131
-14.2583
-14.3068
-14.3579
-14.4106
-14.464
-14.5173
-14.5696
-14.6202
-14.6684
-14.7134
-14.7548
-14.7919
-14.8241
-14.8509
-14.8716
-14.8855
-14.8917
-14.8893
-14.8773
-14.8547
-14.8201
-14.7726
-14.711
-14.6342
-14.5412
-14.4311
-14.3032
-14.1568
-13.9913
-13.8062
-13.6013
-13.3763
-13.1311
-12.8656
-12.5802
-12.2751
-11.951
-11.6087
-11.2492
-10.8737
-10.4837
-10.0808
-9.66673
-9.24354
-8.81327
-8.37807
-7.94017
-7.50183
-7.06526
-6.63266
-6.20616
-5.78774
-5.37927
-4.98247
-4.59884
-4.22971
-3.87619
-3.53917
-3.21934
-2.91715
-2.63288
-2.36662
-2.11828
-1.88763
-1.6743
-1.47781
-1.2976
-1.13302
-0.983379
-0.847948
-0.725979
-0.616712
-0.519397
-0.433281
-0.357652
-0.291769
-0.235005
-0.186561
-0.14601
-0.11221
-0.0853805
-0.0630451
-0.0477205
-0.0322899
-0.0271553
-0.0105446
-0.0161345
0.0129711
-14.0058
-14.144
-14.0861
-14.0201
-13.9941
-13.9787
-13.9701
-13.9787
-13.9993
-14.0315
-14.0747
-14.1256
-14.182
-14.2416
-14.3024
-14.3628
-14.4216
-14.4778
-14.531
-14.581
-14.6275
-14.6704
-14.7095
-14.7443
-14.7745
-14.7994
-14.8184
-14.8307
-14.8354
-14.8315
-14.818
-14.7939
-14.758
-14.7093
-14.6466
-14.5688
-14.4751
-14.3645
-14.2363
-14.0899
-13.9246
-13.7402
-13.5362
-13.3124
-13.0688
-12.8053
-12.5221
-12.2198
-11.8987
-11.5598
-11.2041
-10.8326
-10.447
-10.0486
-9.63938
-9.22113
-8.79587
-8.36571
-7.9328
-7.49934
-7.0675
-6.63942
-6.21716
-5.8027
-5.39786
-5.00433
-4.62362
-4.25703
-3.90568
-3.57045
-3.25204
-2.95091
-2.66737
-2.4015
-2.15325
-1.9224
-1.70862
-1.51144
-1.33034
-1.16468
-1.01381
-0.87702
-0.753583
-0.642762
-0.543825
-0.456041
-0.378709
-0.311108
-0.252617
-0.20246
-0.160197
-0.124738
-0.0962258
-0.0723524
-0.0553174
-0.0386653
-0.031465
-0.0147365
-0.0163646
0.00808368
-13.7259
-13.7362
-13.7581
-13.8073
-13.8626
-13.9078
-13.948
-13.9784
-14.0119
-14.0452
-14.0812
-14.1201
-14.1627
-14.2087
-14.2576
-14.3086
-14.361
-14.4138
-14.4661
-14.5168
-14.5651
-14.6101
-14.6511
-14.6872
-14.7181
-14.7429
-14.7612
-14.7723
-14.7754
-14.7698
-14.7546
-14.7288
-14.6913
-14.6411
-14.5772
-14.4984
-14.4039
-14.2928
-14.1644
-14.0181
-13.8533
-13.6696
-13.4667
-13.2443
-13.0025
-12.7412
-12.4606
-12.1612
-11.8435
-11.5082
-11.1565
-10.7893
-10.4082
-10.0146
-9.61031
-9.19707
-8.77688
-8.35178
-7.92387
-7.4953
-7.06819
-6.64464
-6.22668
-5.81626
-5.41516
-5.02505
-4.64742
-4.28355
-3.93455
-3.6013
-3.28449
-2.98461
-2.70194
-2.43662
-2.18858
-1.95766
-1.74352
-1.54575
-1.36382
-1.19716
-1.04511
-0.907002
-0.782129
-0.669776
-0.569231
-0.479778
-0.400734
-0.331392
-0.271139
-0.21922
-0.175187
-0.137997
-0.107722
-0.082223
-0.0633818
-0.0454093
-0.0360572
-0.019074
-0.0168239
0.00355935
-13.7791
-13.8881
-13.9473
-13.9652
-13.9728
-13.9776
-13.9823
-13.9913
-14.0054
-14.0298
-14.0622
-14.1009
-14.1449
-14.1926
-14.2424
-14.293
-14.3431
-14.3919
-14.4387
-14.4831
-14.5248
-14.5635
-14.5987
-14.63
-14.6568
-14.6786
-14.6945
-14.7037
-14.7054
-14.6986
-14.6823
-14.6555
-14.617
-14.5659
-14.5012
-14.4217
-14.3267
-14.2154
-14.087
-13.9409
-13.7767
-13.5939
-13.3923
-13.1715
-12.9317
-12.6727
-12.3949
-12.0985
-11.7842
-11.4527
-11.105
-10.7423
-10.3657
-9.97693
-9.57754
-9.16936
-8.7543
-8.33436
-7.91158
-7.48807
-7.06591
-6.64714
-6.23376
-5.82765
-5.43059
-5.04419
-4.66992
-4.30905
-3.96265
-3.63161
-3.31661
-3.01814
-2.73652
-2.47187
-2.22418
-1.99327
-1.77887
-1.58057
-1.39788
-1.23026
-1.07708
-0.93769
-0.811414
-0.697557
-0.595425
-0.50432
-0.423571
-0.352487
-0.290461
-0.236757
-0.190917
-0.151945
-0.119845
-0.0926436
-0.0719142
-0.0525225
-0.0409486
-0.0235493
-0.0175686
-0.000519635
-13.7474
-13.7947
-13.8119
-13.8266
-13.8522
-13.8812
-13.9102
-13.9386
-13.9744
-14.0101
-14.0458
-14.0846
-14.1262
-14.1698
-14.2148
-14.2606
-14.3067
-14.3524
-14.397
-14.4399
-14.4805
-14.518
-14.5518
-14.5813
-14.6058
-14.6247
-14.6375
-14.6433
-14.6415
-14.6312
-14.6117
-14.5819
-14.5409
-14.4875
-14.421
-14.3402
-14.2442
-14.1323
-14.0037
-13.8578
-13.6941
-13.5123
-13.3119
-13.0928
-12.8549
-12.5984
-12.3233
-12.0301
-11.7193
-11.3917
-11.0482
-10.6899
-10.3181
-9.93436
-9.54017
-9.13733
-8.72771
-8.31324
-7.89594
-7.47785
-7.06098
-6.64735
-6.23888
-5.83743
-5.44472
-5.06233
-4.69169
-4.33404
-3.99045
-3.6618
-3.34876
-3.05184
-2.77136
-2.50747
-2.26018
-2.02935
-1.81472
-1.61592
-1.4325
-1.26394
-1.10964
-0.968986
-0.841318
-0.725967
-0.622258
-0.529509
-0.447063
-0.374242
-0.310443
-0.254947
-0.207284
-0.166503
-0.132537
-0.103578
-0.080897
-0.0599997
-0.0461494
-0.0281701
-0.0186445
-0.00411579
-13.7371
-13.7908
-13.8333
-13.867
-13.8956
-13.9191
-13.9401
-13.9617
-13.9785
-14.0049
-14.0356
-14.07
-14.108
-14.1486
-14.1911
-14.2345
-14.278
-14.3207
-14.3621
-14.4013
-14.4379
-14.4714
-14.5013
-14.527
-14.5481
-14.5638
-14.5737
-14.5768
-14.5725
-14.5599
-14.538
-14.506
-14.4628
-14.4075
-14.3392
-14.2568
-14.1596
-14.0467
-13.9176
-13.7715
-13.6081
-13.4269
-13.2276
-13.01
-12.774
-12.5198
-12.2475
-11.9575
-11.6503
-11.3266
-10.9875
-10.6338
-10.2671
-9.8885
-9.49976
-9.10254
-8.69865
-8.28997
-7.87846
-7.4661
-7.05485
-6.64665
-6.24338
-5.84683
-5.45868
-5.08048
-4.71361
-4.35931
-4.01863
-3.69243
-3.38141
-3.08607
-2.80676
-2.54365
-2.29678
-2.06603
-1.85117
-1.65188
-1.46772
-1.29821
-1.14279
-1.00086
-0.871795
-0.75494
-0.649645
-0.555245
-0.471096
-0.396532
-0.330956
-0.273662
-0.224167
-0.181563
-0.145709
-0.114958
-0.0902848
-0.0678142
-0.0516526
-0.032935
-0.0200757
-0.00721525
-13.7251
-13.769
-13.8024
-13.8275
-13.8508
-13.8741
-13.8972
-13.9215
-13.9521
-13.9825
-14.0149
-14.0497
-14.0867
-14.1254
-14.1652
-14.2055
-14.2457
-14.2851
-14.3232
-14.3594
-14.3931
-14.4238
-14.4509
-14.4738
-14.492
-14.5048
-14.5115
-14.5115
-14.5041
-14.4883
-14.4634
-14.4286
-14.3828
-14.3251
-14.2547
-14.1707
-14.0722
-13.9584
-13.8287
-13.6825
-13.5194
-13.3388
-13.1406
-12.9245
-12.6905
-12.4387
-12.1692
-11.8825
-11.579
-11.2595
-10.9248
-10.5761
-10.2145
-9.8414
-9.45836
-9.06701
-8.66909
-8.26644
-7.86094
-7.45449
-7.049
-6.64635
-6.24836
-5.85677
-5.47323
-5.09923
-4.73615
-4.3852
-4.04741
-3.72367
-3.41465
-3.12089
-2.84274
-2.58041
-2.33394
-2.10327
-1.88819
-1.68839
-1.5035
-1.33304
-1.17649
-1.03328
-0.902796
-0.784425
-0.677529
-0.581462
-0.495594
-0.419272
-0.351903
-0.292798
-0.241458
-0.197016
-0.159259
-0.126694
-0.100005
-0.0759122
-0.0574265
-0.0378272
-0.0218551
-0.00983614
-13.7136
-13.7531
-13.7872
-13.8165
-13.8439
-13.87
-13.8957
-13.919
-13.9442
-13.9712
-14.0007
-14.0326
-14.0667
-14.1025
-14.1394
-14.1768
-14.2141
-14.2505
-14.2856
-14.3187
-14.3493
-14.3768
-14.4006
-14.4203
-14.4352
-14.4448
-14.4484
-14.4454
-14.4349
-14.4163
-14.3887
-14.3512
-14.3029
-14.2431
-14.1707
-14.0849
-13.985
-13.8702
-13.7399
-13.5935
-13.4305
-13.2506
-13.0534
-12.8389
-12.6069
-12.3575
-12.091
-11.8076
-11.5079
-11.1926
-10.8626
-10.5188
-10.1625
-9.79499
-9.41772
-9.03229
-8.64038
-8.24377
-7.84425
-7.4437
-7.04394
-6.64679
-6.25404
-5.86737
-5.48838
-5.11854
-4.75921
-4.41157
-4.07666
-3.75534
-3.44832
-3.15612
-2.87913
-2.61757
-2.37152
-2.14093
-1.92563
-1.72534
-1.53972
-1.36831
-1.21063
-1.06613
-0.934237
-0.814345
-0.70584
-0.608095
-0.520492
-0.442395
-0.373214
-0.312279
-0.259075
-0.212776
-0.173098
-0.138699
-0.109978
-0.0842252
-0.0634188
-0.0428128
-0.0239358
-0.0120297
-13.7021
-13.7377
-13.7698
-13.798
-13.824
-13.8487
-13.8723
-13.8978
-13.9236
-13.9511
-13.9804
-14.0114
-14.044
-14.0777
-14.1122
-14.1469
-14.1813
-14.2148
-14.2468
-14.2769
-14.3044
-14.3289
-14.3497
-14.3664
-14.3783
-14.3849
-14.3855
-14.3795
-14.3661
-14.3447
-14.3143
-14.2742
-14.2235
-14.1614
-14.087
-13.9996
-13.8984
-13.7827
-13.6518
-13.5052
-13.3425
-13.1633
-12.9673
-12.7543
-12.5243
-12.2774
-12.0138
-11.7338
-11.438
-11.1269
-10.8015
-10.4627
-10.1116
-9.74964
-9.37808
-8.99851
-8.61254
-8.22189
-7.8283
-7.43356
-7.03945
-6.64775
-6.26017
-5.87835
-5.50387
-5.13816
-4.78254
-4.43819
-4.10613
-3.78724
-3.4822
-3.19158
-2.91576
-2.65498
-2.40936
-2.17886
-1.96335
-1.76259
-1.57624
-1.4039
-1.2451
-1.09932
-0.966021
-0.844608
-0.734493
-0.635064
-0.545719
-0.465836
-0.394829
-0.332045
-0.276958
-0.228782
-0.187163
-0.150905
-0.120138
-0.0926911
-0.0695745
-0.0478528
-0.0262412
-0.0138782
-13.6905
-13.7232
-13.7538
-13.7817
-13.8079
-13.8333
-13.8579
-13.8828
-13.9079
-13.9342
-13.9619
-13.991
-14.0214
-14.0527
-14.0846
-14.1166
-14.1481
-14.1787
-14.2078
-14.2349
-14.2594
-14.2808
-14.2986
-14.3123
-14.3212
-14.3248
-14.3224
-14.3135
-14.2972
-14.273
-14.2399
-14.1973
-14.1443
-14.0801
-14.0039
-13.915
-13.8125
-13.6959
-13.5645
-13.4178
-13.2554
-13.0769
-12.8821
-12.6707
-12.4428
-12.1984
-11.9377
-11.6611
-11.3691
-11.0622
-10.7414
-10.4075
-10.0616
-9.70509
-9.33918
-8.9654
-8.5853
-8.20053
-7.81279
-7.4238
-7.03528
-6.64896
-6.26649
-5.8895
-5.51948
-5.15787
-4.80594
-4.46487
-4.13567
-3.81919
-3.51616
-3.22711
-2.95248
-2.6925
-2.44733
-2.21694
-2.00125
-1.80002
-1.61297
-1.43971
-1.2798
-1.13276
-0.998058
-0.875131
-0.763407
-0.662294
-0.571204
-0.489527
-0.416685
-0.352041
-0.295055
-0.244984
-0.201406
-0.163268
-0.130439
-0.101266
-0.0758507
-0.0529187
-0.0286884
-0.0154872
-13.6788
-13.7092
-13.7381
-13.7652
-13.7908
-13.8156
-13.8399
-13.8641
-13.8888
-13.9144
-13.941
-13.9687
-13.9972
-14.0265
-14.056
-14.0854
-14.1143
-14.142
-14.1682
-14.1924
-14.2139
-14.2324
-14.2472
-14.2579
-14.2638
-14.2645
-14.2592
-14.2474
-14.2284
-14.2014
-14.1658
-14.1207
-14.0655
-13.9992
-13.9213
-13.8308
-13.7272
-13.6098
-13.4779
-13.3312
-13.1691
-12.9914
-12.7977
-12.588
-12.3621
-12.1202
-11.8625
-11.5893
-11.301
-10.9983
-10.682
-10.353
-10.0123
-9.66113
-9.3008
-8.93273
-8.55843
-8.17948
-7.79752
-7.41422
-7.03124
-6.65025
-6.27286
-5.90064
-5.53507
-5.17754
-4.8293
-4.4915
-4.16515
-3.8511
-3.55008
-3.26263
-2.9892
-2.73005
-2.48534
-2.25509
-2.03923
-1.83757
-1.64983
-1.47567
-1.31467
-1.16638
-1.03028
-0.905846
-0.792518
-0.689723
-0.596886
-0.513412
-0.438728
-0.372214
-0.313319
-0.261339
-0.215787
-0.175751
-0.14085
-0.109921
-0.0822178
-0.0579961
-0.0312076
-0.0169702
-13.6669
-13.6953
-13.7228
-13.749
-13.774
-13.7984
-13.8223
-13.8461
-13.8701
-13.8947
-13.92
-13.946
-13.9726
-13.9997
-14.0268
-14.0537
-14.0799
-14.1049
-14.1283
-14.1495
-14.1682
-14.1837
-14.1956
-14.2033
-14.2064
-14.2041
-14.196
-14.1814
-14.1596
-14.13
-14.0918
-14.0444
-13.987
-13.9188
-13.8391
-13.7472
-13.6425
-13.5243
-13.392
-13.2453
-13.0836
-12.9066
-12.7141
-12.506
-12.2823
-12.0429
-11.7881
-11.5182
-11.2336
-10.9351
-10.6233
-10.2991
-9.96346
-9.61762
-9.26281
-8.9004
-8.53183
-8.15864
-7.7824
-7.40473
-7.02723
-6.65153
-6.27918
-5.91171
-5.55056
-5.19709
-4.85252
-4.518
-4.19451
-3.8829
-3.5839
-3.29807
-3.02586
-2.76756
-2.52334
-2.29325
-2.07725
-1.87517
-1.68677
-1.51172
-1.34965
-1.20012
-1.06264
-0.936702
-0.821775
-0.7173
-0.622715
-0.537442
-0.460912
-0.392521
-0.331708
-0.277807
-0.230273
-0.188323
-0.151344
-0.118635
-0.0886541
-0.0630798
-0.0337471
-0.01843
-13.6549
-13.6816
-13.7077
-13.7328
-13.7571
-13.7808
-13.804
-13.8271
-13.8503
-13.8738
-13.8978
-13.9223
-13.9471
-13.9721
-13.997
-14.0214
-14.045
-14.0673
-14.088
-14.1064
-14.1222
-14.1348
-14.1438
-14.1487
-14.1488
-14.1437
-14.1328
-14.1154
-14.091
-14.0588
-14.0182
-13.9684
-13.9089
-13.8388
-13.7574
-13.6642
-13.5584
-13.4395
-13.3068
-13.1601
-12.9988
-12.8226
-12.6314
-12.4249
-12.2032
-11.9663
-11.7144
-11.4478
-11.167
-10.8725
-10.5651
-10.2457
-9.91509
-9.57452
-9.22516
-8.86834
-8.50544
-8.13794
-7.76736
-7.39527
-7.02321
-6.65274
-6.2854
-5.92265
-5.5659
-5.21647
-4.87557
-4.54432
-4.22369
-3.91453
-3.61757
-3.33337
-3.0624
-2.80497
-2.56126
-2.33137
-2.11525
-1.91277
-1.72373
-1.54782
-1.38469
-1.23393
-1.09508
-0.967654
-0.851134
-0.744982
-0.648651
-0.561576
-0.483196
-0.412922
-0.350185
-0.294357
-0.244831
-0.200958
-0.161897
-0.127389
-0.0951403
-0.0681683
-0.0362698
-0.0199473
-13.6427
-13.6678
-13.6926
-13.7167
-13.7401
-13.763
-13.7855
-13.8078
-13.8301
-13.8525
-13.8751
-13.898
-13.921
-13.944
-13.9666
-13.9887
-14.0097
-14.0294
-14.0473
-14.063
-14.076
-14.0858
-14.092
-14.094
-14.0913
-14.0834
-14.0697
-14.0497
-14.0226
-13.9879
-13.9449
-13.8929
-13.8313
-13.7593
-13.6764
-13.5818
-13.475
-13.3554
-13.2224
-13.0757
-12.9148
-12.7394
-12.5494
-12.3445
-12.1249
-11.8904
-11.6414
-11.3781
-11.101
-10.8106
-10.5076
-10.1928
-9.86719
-9.53181
-9.18784
-8.83653
-8.47923
-8.11736
-7.75239
-7.38581
-7.01913
-6.65386
-6.29148
-5.93342
-5.58104
-5.23563
-4.89839
-4.57041
-4.25264
-3.94594
-3.65103
-3.36849
-3.09878
-2.84224
-2.59907
-2.36939
-2.15317
-1.95033
-1.76066
-1.58391
-1.41974
-1.26777
-1.12757
-0.998659
-0.880554
-0.77273
-0.674654
-0.585778
-0.505545
-0.433385
-0.368719
-0.310956
-0.259435
-0.213629
-0.172486
-0.136165
-0.101658
-0.0732601
-0.0387491
-0.0215771
-13.6303
-13.6541
-13.6776
-13.7006
-13.723
-13.745
-13.7666
-13.788
-13.8093
-13.8305
-13.8518
-13.8731
-13.8943
-13.9153
-13.9357
-13.9555
-13.9741
-13.9912
-14.0065
-14.0194
-14.0297
-14.0367
-14.0401
-14.0393
-14.0339
-14.0232
-14.0069
-13.9841
-13.9545
-13.9173
-13.872
-13.8178
-13.7542
-13.6805
-13.596
-13.5001
-13.3923
-13.2721
-13.1388
-12.9921
-12.8316
-12.6571
-12.4683
-12.2651
-12.0474
-11.8154
-11.5692
-11.3092
-11.0357
-10.7493
-10.4506
-10.1404
-9.81975
-9.48951
-9.15085
-8.80498
-8.45321
-8.0969
-7.73746
-7.37634
-7.01499
-6.65486
-6.2974
-5.94399
-5.59595
-5.25455
-4.92096
-4.59623
-4.28133
-3.9771
-3.68425
-3.40337
-3.13494
-2.87931
-2.63671
-2.40726
-2.19098
-1.98778
-1.79752
-1.61995
-1.45476
-1.3016
-1.16005
-1.02967
-0.909993
-0.800504
-0.700688
-0.610011
-0.527925
-0.453877
-0.387278
-0.327577
-0.274057
-0.226314
-0.183089
-0.144948
-0.108187
-0.0783528
-0.0411668
-0.0233505
-13.6177
-13.6402
-13.6625
-13.6844
-13.7058
-13.7268
-13.7475
-13.7679
-13.788
-13.8081
-13.8279
-13.8476
-13.8671
-13.8861
-13.9044
-13.9219
-13.9381
-13.9527
-13.9654
-13.9757
-13.9833
-13.9876
-13.9883
-13.9848
-13.9766
-13.9633
-13.9442
-13.9189
-13.8868
-13.8472
-13.7996
-13.7433
-13.6778
-13.6023
-13.5163
-13.4193
-13.3105
-13.1896
-13.056
-12.9094
-12.7494
-12.5757
-12.3881
-12.1865
-11.9708
-11.7413
-11.4979
-11.2411
-10.9711
-10.6887
-10.3942
-10.0887
-9.7728
-9.44762
-9.11419
-8.7737
-8.42739
-8.07656
-7.72258
-7.36685
-7.01076
-6.65573
-6.30314
-5.95434
-5.61061
-5.2732
-4.94323
-4.62175
-4.30971
-4.00794
-3.71716
-3.43797
-3.17084
-2.91614
-2.67413
-2.44493
-2.2286
-2.02509
-1.83425
-1.65588
-1.48969
-1.33536
-1.19248
-1.06065
-0.939409
-0.828262
-0.726712
-0.634239
-0.550302
-0.474365
-0.405833
-0.34419
-0.288671
-0.238988
-0.193684
-0.153721
-0.11471
-0.0834427
-0.0435114
-0.0252797
-13.6049
-13.6262
-13.6473
-13.6681
-13.6885
-13.7085
-13.7281
-13.7474
-13.7664
-13.7852
-13.8036
-13.8217
-13.8394
-13.8565
-13.8727
-13.888
-13.9018
-13.914
-13.9242
-13.932
-13.9369
-13.9386
-13.9365
-13.9304
-13.9195
-13.9036
-13.882
-13.8542
-13.8196
-13.7777
-13.7278
-13.6695
-13.6021
-13.5249
-13.4375
-13.3392
-13.2296
-13.1081
-12.9743
-12.8277
-12.6682
-12.4953
-12.3089
-12.1089
-11.8952
-11.668
-11.4275
-11.1738
-10.9074
-10.6288
-10.3386
-10.0375
-9.72639
-9.40618
-9.07791
-8.74271
-8.40177
-8.05635
-7.70776
-7.35734
-7.00646
-6.65646
-6.30869
-5.96445
-5.625
-5.29153
-4.96517
-4.64693
-4.33774
-4.03844
-3.74974
-3.47223
-3.20642
-2.95267
-2.71126
-2.48235
-2.266
-2.06219
-1.8708
-1.69165
-1.52449
-1.369
-1.22482
-1.09155
-0.968753
-0.855961
-0.752685
-0.658421
-0.572638
-0.494814
-0.42435
-0.360768
-0.303251
-0.251629
-0.204249
-0.162465
-0.121209
-0.0885247
-0.0457762
-0.0273632
-13.592
-13.6121
-13.632
-13.6517
-13.671
-13.69
-13.7085
-13.7267
-13.7445
-13.7619
-13.7789
-13.7954
-13.8113
-13.8265
-13.8408
-13.8538
-13.8654
-13.8752
-13.883
-13.8882
-13.8905
-13.8896
-13.885
-13.8762
-13.8628
-13.8443
-13.8201
-13.7899
-13.7529
-13.7087
-13.6568
-13.5964
-13.5272
-13.4484
-13.3596
-13.2602
-13.1497
-13.0276
-12.8936
-12.7471
-12.588
-12.416
-12.2308
-12.0323
-11.8207
-11.5958
-11.358
-11.1074
-10.8445
-10.5697
-10.2836
-9.98698
-9.68054
-9.36523
-9.04203
-8.71203
-8.37638
-8.03628
-7.693
-7.34782
-7.00207
-6.65704
-6.31403
-5.9743
-5.63909
-5.30954
-4.98675
-4.67173
-4.36538
-4.06854
-3.78192
-3.50611
-3.24162
-2.98884
-2.74806
-2.51945
-2.3031
-2.09902
-1.9071
-1.7272
-1.55909
-1.40247
-1.257
-1.12231
-0.997977
-0.883552
-0.778561
-0.682516
-0.594892
-0.515188
-0.442797
-0.377277
-0.317766
-0.264209
-0.21476
-0.171163
-0.127663
-0.0935924
-0.0479573
-0.0295909
-13.5788
-13.5978
-13.6166
-13.6352
-13.6534
-13.6713
-13.6887
-13.7057
-13.7222
-13.7383
-13.7538
-13.7688
-13.783
-13.7963
-13.8085
-13.8195
-13.8289
-13.8364
-13.8417
-13.8445
-13.8444
-13.8409
-13.8337
-13.8224
-13.8065
-13.7854
-13.7588
-13.7262
-13.6869
-13.6405
-13.5865
-13.5242
-13.4532
-13.3729
-13.2827
-13.1822
-13.0709
-12.9483
-12.814
-12.6677
-12.5091
-12.3378
-12.1538
-11.957
-11.7472
-11.5247
-11.2896
-11.0421
-10.7826
-10.5115
-10.2295
-9.93716
-9.63532
-9.32481
-9.00659
-8.6817
-8.35124
-8.01638
-7.67832
-7.3383
-6.9976
-6.65746
-6.31915
-5.98389
-5.65285
-5.32718
-5.00794
-4.69611
-4.3926
-4.09821
-3.81366
-3.53956
-3.2764
-3.0246
-2.78446
-2.55617
-2.33985
-2.13552
-1.9431
-1.76248
-1.59343
-1.4357
-1.28897
-1.15288
-1.02703
-0.910985
-0.804293
-0.706478
-0.617024
-0.535447
-0.461135
-0.393686
-0.332187
-0.276703
-0.225192
-0.179796
-0.134053
-0.0986381
-0.050051
-0.0319494
-13.5655
-13.5834
-13.6011
-13.6186
-13.6357
-13.6524
-13.6687
-13.6845
-13.6998