/*--------------------------------*- C++ -*----------------------------------*\
| =========                 |                                                 |
| \\      /  F ield         | OpenFOAM: The Open Source CFD Toolbox           |
|  \\    /   O peration     | Version:  2.1.1                                 |
|   \\  /    A nd           | Web:      www.OpenFOAM.org                      |
|    \\/     M anipulation  |                                                 |
\*---------------------------------------------------------------------------*/
FoamFile
{
    version     2.0;
    format      ascii;
    class       surfaceScalarField;
    location    "0.185";
    object      phi;
}
// * * * * * * * * * * * * * * * * * * * * * * * * * * * * * * * * * * * * * //

dimensions      [0 3 -1 0 0 0 0];

internalField   nonuniform List<scalar> 
13452
(
6.89922e-05
-5.04969e-07
6.88133e-05
1.78956e-07
6.82015e-05
6.11774e-07
6.72536e-05
9.47951e-07
6.61763e-05
1.07725e-06
6.50839e-05
1.09237e-06
6.40182e-05
1.06574e-06
6.29964e-05
1.02179e-06
6.20269e-05
9.69488e-07
6.11132e-05
9.1373e-07
6.02562e-05
8.56934e-07
5.94557e-05
8.00552e-07
5.87102e-05
7.45532e-07
5.80176e-05
6.92538e-07
5.73756e-05
6.42019e-07
5.67813e-05
5.94257e-07
5.62319e-05
5.4941e-07
5.57244e-05
5.07536e-07
5.52558e-05
4.68622e-07
5.48232e-05
4.32606e-07
5.44238e-05
3.99395e-07
5.40549e-05
3.6889e-07
5.37139e-05
3.40996e-07
5.33982e-05
3.15652e-07
5.31054e-05
2.92864e-07
5.28326e-05
2.72759e-07
5.25769e-05
2.55696e-07
5.23344e-05
2.42563e-07
5.20993e-05
2.35022e-07
5.18612e-05
2.38137e-07
5.16012e-05
2.60036e-07
5.12697e-05
3.31501e-07
5.14129e-07
5.07555e-05
7.01649e-05
-2.25958e-07
7.00411e-05
3.02835e-07
7.01816e-05
4.71231e-07
7.05088e-05
6.20777e-07
7.08591e-05
7.26939e-07
7.11577e-05
7.93723e-07
7.13821e-05
8.41389e-07
7.15338e-05
8.70082e-07
7.16208e-05
8.82498e-07
7.16519e-05
8.82616e-07
7.16354e-05
8.73385e-07
7.15789e-05
8.57135e-07
7.14887e-05
8.35672e-07
7.13708e-05
8.10464e-07
7.12301e-05
7.82689e-07
7.10711e-05
7.53287e-07
7.08975e-05
7.23008e-07
7.07126e-05
6.92445e-07
7.05192e-05
6.62059e-07
7.03196e-05
6.32205e-07
7.01158e-05
6.03162e-07
6.99095e-05
5.7515e-07
6.97022e-05
5.48357e-07
6.94949e-05
5.22965e-07
6.92885e-05
4.99197e-07
6.90839e-05
4.77336e-07
6.88817e-05
4.57909e-07
6.86827e-05
4.41567e-07
6.84876e-05
4.30125e-07
6.83012e-05
4.24532e-07
6.81291e-05
4.32133e-07
6.8018e-05
4.4263e-07
4.82741e-07
6.80494e-05
7.22816e-05
-5.09973e-08
7.23966e-05
1.87789e-07
7.25013e-05
3.66559e-07
7.25876e-05
5.34485e-07
7.26706e-05
6.43916e-07
7.27523e-05
7.11994e-07
7.28381e-05
7.55587e-07
7.29245e-05
7.83755e-07
7.30073e-05
7.99675e-07
7.3084e-05
8.05896e-07
7.3153e-05
8.04376e-07
7.32135e-05
7.96687e-07
7.3265e-05
7.84112e-07
7.33077e-05
7.67768e-07
7.33418e-05
7.48601e-07
7.33677e-05
7.27401e-07
7.33859e-05
7.04826e-07
7.33969e-05
6.81412e-07
7.34014e-05
6.576e-07
7.33998e-05
6.33744e-07
7.33929e-05
6.10138e-07
7.3381e-05
5.8703e-07
7.33647e-05
5.64646e-07
7.33444e-05
5.43205e-07
7.33207e-05
5.22972e-07
7.32938e-05
5.04259e-07
7.32641e-05
4.87581e-07
7.32321e-05
4.73501e-07
7.31989e-05
4.6341e-07
7.31658e-05
4.57578e-07
7.31372e-05
4.60789e-07
7.31157e-05
4.64068e-07
4.91649e-07
7.31068e-05
7.45184e-05
-4.28135e-08
7.4488e-05
2.18274e-07
7.44763e-05
3.78212e-07
7.45156e-05
4.95188e-07
7.45755e-05
5.83989e-07
7.46414e-05
6.46074e-07
7.47068e-05
6.90212e-07
7.47701e-05
7.20464e-07
7.4831e-05
7.38786e-07
7.48893e-05
7.47549e-07
7.49449e-05
7.48779e-07
7.49976e-05
7.44037e-07
7.50471e-05
7.3457e-07
7.50935e-05
7.21439e-07
7.51365e-05
7.05525e-07
7.51764e-05
6.87559e-07
7.52131e-05
6.68147e-07
7.52467e-05
6.47786e-07
7.52774e-05
6.26889e-07
7.53054e-05
6.05793e-07
7.53307e-05
5.84779e-07
7.53536e-05
5.64093e-07
7.53743e-05
5.43956e-07
7.5393e-05
5.24589e-07
7.54097e-05
5.06245e-07
7.54247e-05
4.89207e-07
7.54384e-05
4.73898e-07
7.54512e-05
4.60725e-07
7.54641e-05
4.5054e-07
7.54784e-05
4.43284e-07
7.54985e-05
4.40683e-07
7.55254e-05
4.37091e-07
4.36349e-07
7.55807e-05
7.66035e-05
9.52375e-09
7.66281e-05
1.93739e-07
7.66642e-05
3.42027e-07
7.67021e-05
4.5735e-07
7.67401e-05
5.45988e-07
7.67792e-05
6.06983e-07
7.68206e-05
6.48795e-07
7.68639e-05
6.77137e-07
7.69081e-05
6.94614e-07
7.69523e-05
7.03375e-07
7.69958e-05
7.0519e-07
7.70385e-05
7.01432e-07
7.70798e-05
6.93226e-07
7.71197e-05
6.81534e-07
7.71581e-05
6.67165e-07
7.71948e-05
6.50796e-07
7.723e-05
6.3299e-07
7.72636e-05
6.14216e-07
7.72956e-05
5.9486e-07
7.73261e-05
5.75244e-07
7.73553e-05
5.55636e-07
7.73831e-05
5.36271e-07
7.74097e-05
5.1736e-07
7.74352e-05
4.9911e-07
7.74597e-05
4.81743e-07
7.74834e-05
4.65495e-07
7.75066e-05
4.50672e-07
7.75298e-05
4.37522e-07
7.75539e-05
4.2647e-07
7.758e-05
4.17209e-07
7.76105e-05
4.10101e-07
7.76464e-05
4.01272e-07
3.91335e-07
7.76914e-05
7.88311e-05
2.4325e-08
7.88386e-05
1.86236e-07
7.88565e-05
3.241e-07
7.88851e-05
4.28788e-07
7.89211e-05
5.10036e-07
7.89598e-05
5.68264e-07
7.89994e-05
6.09195e-07
7.90392e-05
6.37348e-07
7.90788e-05
6.55019e-07
7.91179e-05
6.64189e-07
7.91566e-05
6.66581e-07
7.91944e-05
6.63553e-07
7.92315e-05
6.56207e-07
7.92675e-05
6.45469e-07
7.93026e-05
6.32117e-07
7.93366e-05
6.16795e-07
7.93695e-05
6.00043e-07
7.94014e-05
5.82306e-07
7.94323e-05
5.63955e-07
7.94623e-05
5.45296e-07
7.94913e-05
5.26589e-07
7.95195e-05
5.08054e-07
7.9547e-05
4.89891e-07
7.95738e-05
4.72285e-07
7.96002e-05
4.55421e-07
7.96262e-05
4.39479e-07
7.96522e-05
4.24654e-07
7.96787e-05
4.11057e-07
7.97063e-05
3.98808e-07
7.9736e-05
3.87487e-07
7.97694e-05
3.76764e-07
7.98066e-05
3.6408e-07
3.48551e-07
7.98494e-05
8.10847e-05
3.81772e-08
8.10946e-05
1.76371e-07
8.11178e-05
3.00833e-07
8.11482e-05
3.98393e-07
8.11825e-05
4.75727e-07
8.12181e-05
5.32701e-07
8.12542e-05
5.73097e-07
8.12906e-05
6.00925e-07
8.13271e-05
6.18575e-07
8.13633e-05
6.27984e-07
8.1399e-05
6.3081e-07
8.14342e-05
6.28363e-07
8.14687e-05
6.21706e-07
8.15025e-05
6.11729e-07
8.15354e-05
5.99177e-07
8.15675e-05
5.84672e-07
8.15988e-05
5.68731e-07
8.16294e-05
5.51783e-07
8.16591e-05
5.34185e-07
8.16882e-05
5.16231e-07
8.17166e-05
4.98169e-07
8.17445e-05
4.8021e-07
8.17718e-05
4.62535e-07
8.17988e-05
4.45308e-07
8.18255e-05
4.28675e-07
8.18523e-05
4.12762e-07
8.18792e-05
3.97672e-07
8.19069e-05
3.83414e-07
8.19358e-05
3.69921e-07
8.19665e-05
3.56743e-07
8.2e-05
3.43322e-07
8.20361e-05
3.27957e-07
3.09635e-07
8.2075e-05
8.341e-05
4.36799e-08
8.34199e-05
1.66557e-07
8.34405e-05
2.80199e-07
8.34678e-05
3.71128e-07
8.34998e-05
4.43701e-07
8.35341e-05
4.9834e-07
8.35695e-05
5.37746e-07
8.36052e-05
5.65232e-07
8.36408e-05
5.82985e-07
8.3676e-05
5.92764e-07
8.37107e-05
5.96114e-07
8.37448e-05
5.94291e-07
8.37781e-05
5.88323e-07
8.38108e-05
5.79075e-07
8.38427e-05
5.67267e-07
8.38739e-05
5.53503e-07
8.39043e-05
5.38282e-07
8.39341e-05
5.22021e-07
8.39632e-05
5.05065e-07
8.39917e-05
4.87698e-07
8.40198e-05
4.70158e-07
8.40473e-05
4.52642e-07
8.40745e-05
4.35317e-07
8.41015e-05
4.18322e-07
8.41284e-05
4.01772e-07
8.41554e-05
3.85743e-07
8.41828e-05
3.70272e-07
8.4211e-05
3.553e-07
8.42402e-05
3.40665e-07
8.4271e-05
3.25941e-07
8.43038e-05
3.10558e-07
8.43384e-05
2.93387e-07
2.73627e-07
8.43744e-05
8.57963e-05
4.6118e-08
8.5806e-05
1.56828e-07
8.5826e-05
2.60168e-07
8.58525e-05
3.4464e-07
8.58835e-05
4.12722e-07
8.59169e-05
4.64995e-07
8.59513e-05
5.03317e-07
8.59862e-05
5.3035e-07
8.60211e-05
5.48081e-07
8.60557e-05
5.58134e-07
8.60899e-05
5.61945e-07
8.61235e-05
5.60704e-07
8.61564e-05
5.55397e-07
8.61886e-05
5.46849e-07
8.62201e-05
5.35756e-07
8.62509e-05
5.22698e-07
8.62811e-05
5.08159e-07
8.63105e-05
4.92541e-07
8.63394e-05
4.76177e-07
8.63678e-05
4.59341e-07
8.63957e-05
4.42262e-07
8.64232e-05
4.25123e-07
8.64504e-05
4.08077e-07
8.64775e-05
3.9124e-07
8.65046e-05
3.747e-07
8.65318e-05
3.58498e-07
8.65595e-05
3.42626e-07
8.65878e-05
3.26988e-07
8.66171e-05
3.11389e-07
8.66475e-05
2.95458e-07
8.66794e-05
2.78707e-07
8.67124e-05
2.60395e-07
2.39984e-07
8.6746e-05
8.825e-05
4.60866e-08
8.82599e-05
1.46916e-07
8.8279e-05
2.41097e-07
8.83041e-05
3.19506e-07
8.83337e-05
3.83206e-07
8.83658e-05
4.32824e-07
8.83994e-05
4.69727e-07
8.84337e-05
4.96058e-07
8.84682e-05
5.13588e-07
8.85026e-05
5.23791e-07
8.85365e-05
5.27978e-07
8.857e-05
5.27259e-07
8.86028e-05
5.22565e-07
8.8635e-05
5.14682e-07
8.86664e-05
5.04273e-07
8.86973e-05
4.91894e-07
8.87274e-05
4.7801e-07
8.87569e-05
4.63009e-07
8.87859e-05
4.47211e-07
8.88144e-05
4.30879e-07
8.88424e-05
4.1423e-07
8.88701e-05
3.97437e-07
8.88975e-05
3.80637e-07
8.89248e-05
3.6393e-07
8.89522e-05
3.4738e-07
8.89796e-05
3.31006e-07
8.90075e-05
3.14774e-07
8.90359e-05
2.98576e-07
8.90651e-05
2.82222e-07
8.90951e-05
2.65408e-07
8.91261e-05
2.47756e-07
8.91577e-05
2.28785e-07
2.08174e-07
8.91895e-05
9.07727e-05
4.46772e-08
9.07826e-05
1.37034e-07
9.08008e-05
2.22928e-07
9.08248e-05
2.95477e-07
9.08531e-05
3.54872e-07
9.08843e-05
4.01688e-07
9.0917e-05
4.36966e-07
9.09507e-05
4.62408e-07
9.09847e-05
4.79566e-07
9.10187e-05
4.89767e-07
9.10525e-05
4.94202e-07
9.10859e-05
4.93901e-07
9.11187e-05
4.89738e-07
9.11509e-05
4.82452e-07
9.11825e-05
4.72673e-07
9.12135e-05
4.6093e-07
9.12438e-05
4.47667e-07
9.12736e-05
4.33254e-07
9.13028e-05
4.17998e-07
9.13315e-05
4.02149e-07
9.13598e-05
3.85913e-07
9.13878e-05
3.6945e-07
9.14156e-05
3.52885e-07
9.14432e-05
3.36305e-07
9.14708e-05
3.19758e-07
9.14986e-05
3.0325e-07
9.15266e-05
2.86735e-07
9.15551e-05
2.70112e-07
9.15841e-05
2.53214e-07
9.16137e-05
2.35807e-07
9.16438e-05
2.17617e-07
9.16743e-05
1.9834e-07
1.77812e-07
9.17046e-05
9.33669e-05
4.24349e-08
9.33767e-05
1.27203e-07
9.33941e-05
2.05577e-07
9.3417e-05
2.72512e-07
9.34442e-05
3.27706e-07
9.34743e-05
3.71624e-07
9.35062e-05
4.05083e-07
9.35391e-05
4.29444e-07
9.35726e-05
4.4605e-07
9.36063e-05
4.56088e-07
9.36399e-05
4.60636e-07
9.36731e-05
4.60641e-07
9.3706e-05
4.56912e-07
9.37383e-05
4.50144e-07
9.377e-05
4.40929e-07
9.38012e-05
4.29769e-07
9.38318e-05
4.17082e-07
9.38618e-05
4.03222e-07
9.38913e-05
3.88478e-07
9.39204e-05
3.73091e-07
9.3949e-05
3.57251e-07
9.39774e-05
3.4111e-07
9.40055e-05
3.24782e-07
9.40334e-05
3.08342e-07
9.40614e-05
2.91829e-07
9.40894e-05
2.75243e-07
9.41176e-05
2.58541e-07
9.41461e-05
2.41634e-07
9.41749e-05
2.2439e-07
9.4204e-05
2.06638e-07
9.42335e-05
1.8819e-07
9.42629e-05
1.68865e-07
1.48598e-07
9.42922e-05
9.60348e-05
3.97411e-08
9.60445e-05
1.17511e-07
9.60611e-05
1.88992e-07
9.6083e-05
2.50536e-07
9.61091e-05
3.01615e-07
9.61382e-05
3.42571e-07
9.61692e-05
3.74062e-07
9.62015e-05
3.97181e-07
9.62344e-05
4.13077e-07
9.62677e-05
4.22807e-07
9.6301e-05
4.27336e-07
9.63341e-05
4.27528e-07
9.63669e-05
4.24134e-07
9.63993e-05
4.17798e-07
9.64311e-05
4.09075e-07
9.64624e-05
3.98434e-07
9.64932e-05
3.86274e-07
9.65235e-05
3.72925e-07
9.65534e-05
3.58663e-07
9.65827e-05
3.43713e-07
9.66117e-05
3.28256e-07
9.66404e-05
3.12433e-07
9.66688e-05
2.96348e-07
9.66971e-05
2.80069e-07
9.67253e-05
2.63632e-07
9.67535e-05
2.47036e-07
9.67818e-05
2.30246e-07
9.68103e-05
2.13193e-07
9.68389e-05
1.9578e-07
9.68676e-05
1.77888e-07
9.68964e-05
1.59399e-07
9.69251e-05
1.40213e-07
1.20329e-07
9.69533e-05
9.87786e-05
3.68233e-08
9.87881e-05
1.08008e-07
9.8804e-05
1.73104e-07
9.88251e-05
2.29475e-07
9.88502e-05
2.76526e-07
9.88783e-05
3.14488e-07
9.89084e-05
3.43896e-07
9.894e-05
3.65632e-07
9.89724e-05
3.80675e-07
9.90052e-05
3.89956e-07
9.90382e-05
3.9434e-07
9.90711e-05
3.94609e-07
9.91038e-05
3.9145e-07
9.91362e-05
3.8546e-07
9.91681e-05
3.77155e-07
9.91996e-05
3.66974e-07
9.92305e-05
3.55288e-07
9.92611e-05
3.4241e-07
9.92911e-05
3.28598e-07
9.93208e-05
3.14064e-07
9.935e-05
2.98978e-07
9.9379e-05
2.83471e-07
9.94077e-05
2.67641e-07
9.94362e-05
2.51552e-07
9.94646e-05
2.35239e-07
9.9493e-05
2.18704e-07
9.95213e-05
2.01924e-07
9.95496e-05
1.84852e-07
9.9578e-05
1.67421e-07
9.96063e-05
1.49557e-07
9.96345e-05
1.31194e-07
9.96624e-05
1.12286e-07
9.28675e-08
9.96899e-05
0.000101601
3.38213e-08
0.00010161
9.87356e-08
0.000101625
1.57858e-07
0.000101645
2.0926e-07
0.00010167
2.52367e-07
0.000101697
2.87321e-07
0.000101726
3.14555e-07
0.000101757
3.34789e-07
0.000101789
3.48852e-07
0.000101821
3.5756e-07
0.000101854
3.61681e-07
0.000101887
3.61919e-07
0.000101919
3.58901e-07
0.000101951
3.53175e-07
0.000101983
3.45217e-07
0.000102015
3.35435e-07
0.000102046
3.24175e-07
0.000102077
3.11729e-07
0.000102107
2.98338e-07
0.000102137
2.84202e-07
0.000102166
2.69479e-07
0.000102195
2.54293e-07
0.000102224
2.38736e-07
0.000102253
2.22871e-07
0.000102282
2.06731e-07
0.00010231
1.90329e-07
0.000102338
1.73653e-07
0.000102366
1.56675e-07
0.000102394
1.39357e-07
0.000102422
1.21658e-07
0.00010245
1.03551e-07
0.000102477
8.50222e-08
6.61301e-08
0.000102504
0.000104503
3.08165e-08
0.000104512
8.97193e-08
0.000104527
1.43202e-07
0.000104547
1.89823e-07
0.00010457
2.29069e-07
0.000104596
2.61012e-07
0.000104625
2.86005e-07
0.000104655
3.04636e-07
0.000104686
3.17608e-07
0.000104718
3.25628e-07
0.00010475
3.29378e-07
0.000104783
3.29487e-07
0.000104815
3.26521e-07
0.000104847
3.20981e-07
0.000104879
3.13304e-07
0.000104911
3.03865e-07
0.000104942
2.92985e-07
0.000104973
2.80936e-07
0.000105003
2.67942e-07
0.000105033
2.54189e-07
0.000105063
2.39827e-07
0.000105092
2.24971e-07
0.000105121
2.0971e-07
0.00010515
1.94104e-07
0.000105178
1.78193e-07
0.000105207
1.61994e-07
0.000105235
1.45508e-07
0.000105263
1.28726e-07
0.000105291
1.11631e-07
0.000105318
9.42094e-08
0.000105345
7.64585e-08
0.000105372
5.83893e-08
4.00696e-08
0.000105398
0.000107489
2.78547e-08
0.000107498
8.09707e-08
0.000107512
1.2909e-07
0.000107531
1.71102e-07
0.000107553
2.06565e-07
0.000107579
2.35505e-07
0.000107606
2.58206e-07
0.000107636
2.75151e-07
0.000107667
2.86932e-07
0.000107698
2.94164e-07
0.00010773
2.97443e-07
0.000107762
2.97331e-07
0.000107794
2.94335e-07
0.000107826
2.88909e-07
0.000107858
2.8145e-07
0.00010789
2.72303e-07
0.000107921
2.61763e-07
0.000107952
2.50081e-07
0.000107982
2.37464e-07
0.000108012
2.24086e-07
0.000108042
2.10086e-07
0.000108072
1.95574e-07
0.000108101
1.80635e-07
0.000108129
1.6533e-07
0.000108158
1.49701e-07
0.000108186
1.33772e-07
0.000108214
1.17557e-07
0.000108242
1.0106e-07
0.000108269
8.42829e-08
0.000108296
6.72312e-08
0.000108323
4.99191e-08
0.000108349
3.23723e-08
1.46625e-08
0.000108374
0.00011056
2.49597e-08
0.000110568
7.24912e-08
0.000110582
1.15477e-07
0.0001106
1.53035e-07
0.000110622
1.84791e-07
0.000110646
2.10741e-07
0.000110674
2.31112e-07
0.000110702
2.46301e-07
0.000110733
2.56807e-07
0.000110764
2.6316e-07
0.000110795
2.6588e-07
0.000110827
2.65463e-07
0.000110859
2.62361e-07
0.000110891
2.56982e-07
0.000110923
2.49686e-07
0.000110954
2.40785e-07
0.000110985
2.3055e-07
0.000111016
2.19208e-07
0.000111047
2.06954e-07
0.000111077
1.93946e-07
0.000111107
1.80316e-07
0.000111136
1.66167e-07
0.000111165
1.5158e-07
0.000111194
1.36617e-07
0.000111222
1.21323e-07
0.00011125
1.0573e-07
0.000111278
8.9859e-08
0.000111305
7.37274e-08
0.000111332
5.73501e-08
0.000111359
4.07458e-08
0.000111385
2.39407e-08
0.00011141
6.96836e-09
-1.00987e-08
0.000111435
0.000113718
2.21421e-08
0.000113727
6.42744e-08
0.00011374
1.02323e-07
0.000113757
1.35565e-07
0.000113778
1.63686e-07
0.000113802
1.86664e-07
0.000113829
2.04676e-07
0.000113857
2.18052e-07
0.000113887
2.27211e-07
0.000113917
2.32605e-07
0.000113948
2.34686e-07
0.00011398
2.33888e-07
0.000114012
2.30613e-07
0.000114043
2.25222e-07
0.000114075
2.18038e-07
0.000114107
2.09343e-07
0.000114138
1.99381e-07
0.000114169
1.88361e-07
0.000114199
1.7646e-07
0.000114229
1.63823e-07
0.000114259
1.50573e-07
0.000114288
1.36808e-07
0.000114317
1.22606e-07
0.000114346
1.08028e-07
0.000114374
9.31224e-08
0.000114402
7.79256e-08
0.000114429
6.24671e-08
0.000114456
4.67723e-08
0.000114483
3.08662e-08
0.000114509
1.47762e-08
0.000114534
-1.46397e-09
0.000114559
-1.78164e-08
-3.42104e-08
0.000114583
0.000116967
1.94044e-08
0.000116975
5.63084e-08
0.000116988
8.95882e-08
0.000117005
1.18638e-07
0.000117025
1.43191e-07
0.000117049
1.63214e-07
0.000117074
1.78848e-07
0.000117102
1.90364e-07
0.000117131
1.98113e-07
0.000117161
2.02479e-07
0.000117192
2.03851e-07
0.000117224
2.02606e-07
0.000117255
1.99096e-07
0.000117287
1.93641e-07
0.000117318
1.86525e-07
0.000117349
1.78002e-07
0.000117381
1.6829e-07
0.000117411
1.57577e-07
0.000117442
1.46022e-07
0.000117472
1.33762e-07
0.000117502
1.20908e-07
0.000117531
1.07552e-07
0.00011756
9.37686e-08
0.000117588
7.96194e-08
0.000117616
6.51535e-08
0.000117643
5.04113e-08
0.000117671
3.54277e-08
0.000117697
2.02343e-08
0.000117723
4.86261e-09
0.000117749
-1.06541e-08
0.000117773
-2.62781e-08
0.000117797
-4.19699e-08
-5.76615e-08
0.000117821
0.000120309
1.67448e-08
0.000120316
4.8577e-08
0.000120329
7.72352e-08
0.000120345
1.022e-07
0.000120365
1.23245e-07
0.000120388
1.40333e-07
0.000120413
1.53574e-07
0.00012044
1.63191e-07
0.000120469
1.69477e-07
0.000120499
1.72755e-07
0.000120529
1.73358e-07
0.00012056
1.71608e-07
0.000120592
1.67811e-07
0.000120623
1.62246e-07
0.000120654
1.55162e-07
0.000120686
1.46783e-07
0.000120717
1.37302e-07
0.000120747
1.26886e-07
0.000120778
1.1568e-07
0.000120808
1.03806e-07
0.000120837
9.13662e-08
0.000120866
7.84466e-08
0.000120895
6.51186e-08
0.000120923
5.14415e-08
0.000120951
3.74653e-08
0.000120978
2.32328e-08
0.000121005
8.78227e-09
0.000121031
-5.8506e-09
0.000121056
-2.06305e-08
0.000121081
-3.55208e-08
0.000121105
-5.04822e-08
0.000121129
-6.5475e-08
-8.04346e-08
0.000121151
0.000123746
1.41588e-08
0.000123753
4.10625e-08
0.000123765
6.52273e-08
0.000123781
8.62017e-08
0.000123801
1.03793e-07
0.000123823
1.17963e-07
0.000123848
1.28799e-07
0.000123875
1.36485e-07
0.000123903
1.41262e-07
0.000123932
1.43402e-07
0.000123962
1.43182e-07
0.000123993
1.40877e-07
0.000124024
1.36749e-07
0.000124055
1.31037e-07
0.000124087
1.23956e-07
0.000124118
1.157e-07
0.000124148
1.06438e-07
0.000124179
9.6317e-08
0.000124209
8.54645e-08
0.000124239
7.39903e-08
0.000124268
6.19873e-08
0.000124297
4.95346e-08
0.000124326
3.66991e-08
0.000124354
2.3538e-08
0.000124381
1.01006e-08
0.000124408
-3.56942e-09
0.000124434
-1.74321e-08
0.00012446
-3.14496e-08
0.000124485
-4.55848e-08
0.000124509
-5.97998e-08
0.000124532
-7.4055e-08
0.000124555
-8.8312e-08
-1.0251e-07
0.000124577
0.000127281
1.16405e-08
0.000127288
3.37446e-08
0.0001273
5.3527e-08
0.000127316
7.05909e-08
0.000127335
8.47728e-08
0.000127357
9.60393e-08
0.000127381
1.0446e-07
0.000127407
1.10187e-07
0.000127435
1.13418e-07
0.000127464
1.14379e-07
0.000127494
1.13292e-07
0.000127524
1.10392e-07
0.000127555
1.05898e-07
0.000127586
1.0001e-07
0.000127617
9.2908e-08
0.000127648
8.47626e-08
0.000127679
7.57146e-08
0.00012771
6.58902e-08
0.00012774
5.54018e-08
0.000127769
4.43458e-08
0.000127798
3.28053e-08
0.000127827
2.08522e-08
0.000127855
8.54812e-09
0.000127883
-4.05297e-09
0.00012791
-1.69034e-08
0.000127936
-2.996e-08
0.000127962
-4.31826e-08
0.000127987
-5.6533e-08
0.000128011
-6.99737e-08
0.000128035
-8.34669e-08
0.000128058
-9.69742e-08
0.00012808
-1.10459e-07
-1.23864e-07
0.000128102
0.000130917
9.18503e-09
0.000130924
2.66074e-08
0.000130936
4.21047e-08
0.000130951
5.53249e-08
0.00013097
6.61321e-08
0.000130991
7.45022e-08
0.000131015
8.0495e-08
0.000131041
8.42363e-08
0.000131069
8.58867e-08
0.000131098
8.56333e-08
0.000131127
8.36401e-08
0.000131157
8.01104e-08
0.000131188
7.52244e-08
0.000131219
6.91414e-08
0.00013125
6.20048e-08
0.000131281
5.3965e-08
0.000131311
4.51328e-08
0.000131342
3.56148e-08
0.000131371
2.55074e-08
0.000131401
1.48932e-08
0.00013143
3.84516e-09
0.000131458
-7.57248e-09
0.000131486
-1.93044e-08
0.000131513
-3.13005e-08
0.00013154
-4.35159e-08
0.000131566
-5.5909e-08
0.000131591
-6.84411e-08
0.000131616
-8.10746e-08
0.00013164
-9.37729e-08
0.000131663
-1.065e-07
0.000131685
-1.19218e-07
0.000131706
-1.31895e-07
-1.44476e-07
0.000131727
0.000134658
6.78067e-09
0.000134665
1.96223e-08
0.000134676
3.09135e-08
0.000134691
4.03401e-08
0.000134709
4.77961e-08
0.00013473
5.32725e-08
0.000134754
5.68246e-08
0.00013478
5.85582e-08
0.000134807
5.86015e-08
0.000134835
5.71148e-08
0.000134865
5.41873e-08
0.000134895
5.00053e-08
0.000134925
4.47073e-08
0.000134956
3.84131e-08
0.000134987
3.12353e-08
0.000135018
2.3311e-08
0.000135048
1.46988e-08
0.000135078
5.50104e-09
0.000135108
-4.20471e-09
0.000135137
-1.43508e-08
0.000135166
-2.48731e-08
0.000135194
-3.57175e-08
0.000135222
-4.68349e-08
0.000135248
-5.81804e-08
0.000135275
-6.97127e-08
0.0001353
-8.13931e-08
0.000135325
-9.31851e-08
0.000135349
-1.05053e-07
0.000135372
-1.16962e-07
0.000135394
-1.28878e-07
0.000135416
-1.40767e-07
0.000135437
-1.52597e-07
-1.6432e-07
0.000135456
0.000138505
4.44409e-09
0.000138511
1.28082e-08
0.000138522
1.99641e-08
0.000138537
2.56272e-08
0.000138555
2.97301e-08
0.000138576
3.22902e-08
0.0001386
3.33695e-08
0.000138625
3.30613e-08
0.000138652
3.14722e-08
0.000138681
2.87226e-08
0.00013871
2.48112e-08
0.00013874
1.9978e-08
0.00013877
1.42742e-08
0.000138801
7.77866e-09
0.000138832
5.27043e-10
0.000138862
-7.24181e-09
0.000138893
-1.56153e-08
0.000138923
-2.44661e-08
0.000138952
-3.3741e-08
0.000138981
-4.33833e-08
0.00013901
-5.33415e-08
0.000139037
-6.35703e-08
0.000139065
-7.40278e-08
0.000139091
-8.46748e-08
0.000139117
-9.54748e-08
0.000139142
-1.06393e-07
0.000139166
-1.17395e-07
0.00013919
-1.28449e-07
0.000139212
-1.39523e-07
0.000139234
-1.50585e-07
0.000139255
-1.61603e-07
0.000139275
-1.7255e-07
-1.83382e-07
0.000139294
0.000142462
2.09521e-09
0.000142468
6.06071e-09
0.000142479
9.13737e-09
0.000142494
1.10652e-08
0.000142512
1.18234e-08
0.000142532
1.14616e-08
0.000142556
1.00518e-08
0.000142581
7.66915e-09
0.000142608
4.42155e-09
0.000142636
5.29464e-10
0.000142666
-4.46902e-09
0.000142696
-9.9744e-09
0.000142726
-1.61122e-08
0.000142757
-2.28143e-08
0.000142787
-3.00384e-08
0.000142818
-3.77103e-08
0.000142848
-4.58169e-08
0.000142878
-5.42977e-08
0.000142907
-6.31083e-08
0.000142936
-7.22091e-08
0.000142964
-8.15618e-08
0.000142992
-9.11305e-08
0.000143019
-1.00881e-07
0.000143045
-1.10781e-07
0.00014307
-1.20798e-07
0.000143094
-1.30903e-07
0.000143118
-1.41066e-07
0.000143141
-1.51258e-07
0.000143163
-1.61449e-07
0.000143184
-1.71611e-07
0.000143204
-1.81716e-07
0.000143223
-1.91739e-07
-2.01639e-07
0.000143241
0.000146531
-2.45864e-11
0.000146538
-3.56146e-10
0.000146548
-1.34531e-09
0.000146563
-3.23536e-09
0.00014658
-5.94132e-09
0.000146601
-9.33877e-09
0.000146625
-1.33225e-08
0.00014665
-1.78107e-08
0.000146677
-2.27481e-08
0.000146706
-2.80926e-08
0.000146735
-3.39133e-08
0.000146765
-4.00675e-08
0.000146796
-4.65859e-08
0.000146827
-5.34572e-08
0.000146857
-6.06651e-08
0.000146888
-6.81748e-08
0.000146918
-7.59719e-08
0.000146947
-8.4033e-08
0.000146977
-9.23316e-08
0.000147005
-1.00842e-07
0.000147033
-1.09539e-07
0.000147061
-1.18395e-07
0.000147087
-1.27386e-07
0.000147113
-1.36485e-07
0.000147138
-1.45667e-07
0.000147162
-1.54907e-07
0.000147185
-1.6418e-07
0.000147207
-1.73459e-07
0.000147228
-1.8272e-07
0.000147249
-1.91939e-07
0.000147268
-2.0109e-07
0.000147286
-2.10151e-07
-2.19087e-07
0.000147304
0.000150718
-2.54353e-09
0.000150725
-7.0177e-09
0.000150735
-1.19435e-08
0.00015075
-1.75218e-08
0.000150767
-2.36073e-08
0.000150788
-3.00097e-08
0.000150811
-3.65793e-08
0.000150837
-4.32196e-08
0.000150864
-4.98924e-08
0.000150892
-5.65765e-08
0.000150922
-6.3342e-08
0.000150952
-7.01767e-08
0.000150982
-7.71015e-08
0.000151013
-8.41433e-08
0.000151044
-9.13192e-08
0.000151074
-9.86343e-08
0.000151104
-1.06096e-07
0.000151134
-1.13704e-07
0.000151163
-1.21451e-07
0.000151192
-1.29326e-07
0.000151219
-1.37318e-07
0.000151246
-1.45411e-07
0.000151273
-1.53589e-07
0.000151298
-1.61833e-07
0.000151322
-1.70126e-07
0.000151346
-1.78446e-07
0.000151369
-1.86774e-07
0.00015139
-1.95089e-07
0.000151411
-2.0337e-07
0.00015143
-2.11595e-07
0.000151449
-2.19744e-07
0.000151467
-2.27796e-07
-2.3572e-07
0.000151483
0.000155023
-3.79438e-09
0.000155028
-1.23465e-08
0.000155038
-2.16382e-08
0.000155052
-3.15834e-08
0.00015507
-4.16379e-08
0.000155091
-5.14304e-08
0.000155116
-6.07725e-08
0.000155142
-6.96068e-08
0.00015517
-7.79616e-08
0.000155199
-8.58999e-08
0.00015523
-9.35221e-08
0.00015526
-1.00896e-07
0.000155291
-1.08094e-07
0.000155322
-1.15185e-07
0.000155353
-1.22222e-07
0.000155384
-1.29245e-07
0.000155414
-1.36283e-07
0.000155444
-1.43355e-07
0.000155473
-1.50473e-07
0.000155501
-1.57642e-07
0.000155529
-1.64861e-07
0.000155555
-1.72126e-07
0.000155581
-1.79429e-07
0.000155606
-1.8676e-07
0.00015563
-1.94105e-07
0.000155653
-2.01452e-07
0.000155675
-2.08783e-07
0.000155696
-2.16084e-07
0.000155716
-2.23337e-07
0.000155735
-2.30525e-07
0.000155753
-2.37631e-07
0.00015577
-2.44639e-07
-2.51522e-07
0.000155785
0.000159455
-7.75981e-09
0.000159462
-1.95338e-08
0.000159472
-3.20508e-08
0.000159486
-4.527e-08
0.000159503
-5.87105e-08
0.000159523
-7.17624e-08
0.000159546
-8.4002e-08
0.000159572
-9.52598e-08
0.0001596
-1.05543e-07
0.000159629
-1.14945e-07
0.000159659
-1.23602e-07
0.00015969
-1.31649e-07
0.000159721
-1.39214e-07
0.000159752
-1.46411e-07
0.000159783
-1.53335e-07
0.000159814
-1.60063e-07
0.000159844
-1.66655e-07
0.000159874
-1.73155e-07
0.000159903
-1.79598e-07
0.000159932
-1.86006e-07
0.000159959
-1.92392e-07
0.000159986
-1.98765e-07
0.000160011
-2.05128e-07
0.000160036
-2.11478e-07
0.00016006
-2.1781e-07
0.000160082
-2.24116e-07
0.000160104
-2.30387e-07
0.000160125
-2.36611e-07
0.000160144
-2.42776e-07
0.000160162
-2.48867e-07
0.00016018
-2.54872e-07
0.000160196
-2.60777e-07
-2.6656e-07
0.000160211
0.000164003
-5.13851e-09
0.000164005
-2.14311e-08
0.000164014
-4.04428e-08
0.000164029
-6.01278e-08
0.000164049
-7.8842e-08
0.000164073
-9.58284e-08
0.0001641
-1.10909e-07
0.000164129
-1.24189e-07
0.000164159
-1.35874e-07
0.00016419
-1.46199e-07
0.000164222
-1.55398e-07
0.000164254
-1.63687e-07
0.000164286
-1.71253e-07
0.000164318
-1.78254e-07
0.000164349
-1.8482e-07
0.00016438
-1.91056e-07
0.000164411
-1.97042e-07
0.000164441
-2.02841e-07
0.000164469
-2.08501e-07
0.000164497
-2.14058e-07
0.000164525
-2.19535e-07
0.000164551
-2.2495e-07
0.000164576
-2.30313e-07
0.0001646
-2.35629e-07
0.000164623
-2.40898e-07
0.000164645
-2.46119e-07
0.000164666
-2.51286e-07
0.000164686
-2.56393e-07
0.000164705
-2.61431e-07
0.000164722
-2.66392e-07
0.000164738
-2.71264e-07
0.000164754
-2.7604e-07
-2.80699e-07
0.000164768
0.000168701
-1.46447e-08
0.000168709
-2.96069e-08
0.000168717
-4.83716e-08
0.000168727
-6.99969e-08
0.000168741
-9.2812e-08
0.00016876
-1.1445e-07
0.000168783
-1.33683e-07
0.000168809
-1.50294e-07
0.000168837
-1.64503e-07
0.000168868
-1.76638e-07
0.000168899
-1.87045e-07
0.000168932
-1.96045e-07
0.000168964
-2.03923e-07
0.000168997
-2.10916e-07
0.00016903
-2.17219e-07
0.000169061
-2.22987e-07
0.000169093
-2.28343e-07
0.000169123
-2.33383e-07
0.000169153
-2.3818e-07
0.000169182
-2.42791e-07
0.000169209
-2.47256e-07
0.000169236
-2.51606e-07
0.000169262
-2.55862e-07
0.000169286
-2.60038e-07
0.000169309
-2.64142e-07
0.000169331
-2.68179e-07
0.000169352
-2.72148e-07
0.000169372
-2.76049e-07
0.00016939
-2.79877e-07
0.000169408
-2.83626e-07
0.000169424
-2.87291e-07
0.000169438
-2.90864e-07
-2.94331e-07
0.000169452
0.000173491
5.54442e-09
0.000173485
-2.32832e-08
0.000173495
-5.84986e-08
0.000173517
-9.18776e-08
0.000173545
-1.21296e-07
0.000173577
-1.46066e-07
0.00017361
-1.66834e-07
0.000173644
-1.84181e-07
0.000173678
-1.9866e-07
0.000173712
-2.10767e-07
0.000173746
-2.20945e-07
0.00017378
-2.29577e-07
0.000173813
-2.36977e-07
0.000173845
-2.43399e-07
0.000173877
-2.49048e-07
0.000173908
-2.54088e-07
0.000173938
-2.58647e-07
0.000173968
-2.62828e-07
0.000173996
-2.6671e-07
0.000174024
-2.70355e-07
0.000174051
-2.73809e-07
0.000174076
-2.77107e-07
0.0001741
-2.80277e-07
0.000174124
-2.83338e-07
0.000174146
-2.86302e-07
0.000174167
-2.89179e-07
0.000174187
-2.91974e-07
0.000174205
-2.94689e-07
0.000174223
-2.97323e-07
0.000174239
-2.99875e-07
0.000174254
-3.02341e-07
0.000174268
-3.04718e-07
-3.06995e-07
0.000174281
0.000178498
-2.40439e-08
0.000178501
-2.61208e-08
0.00017849
-4.77298e-08
0.000178481
-8.31674e-08
0.000178484
-1.23965e-07
0.000178498
-1.59978e-07
0.00017852
-1.89228e-07
0.000178549
-2.12362e-07
0.000178581
-2.30715e-07
0.000178615
-2.45289e-07
0.000178651
-2.56884e-07
0.000178688
-2.66164e-07
0.000178724
-2.73656e-07
0.000178761
-2.79767e-07
0.000178797
-2.84816e-07
0.000178832
-2.89048e-07
0.000178866
-2.92648e-07
0.000178898
-2.9576e-07
0.00017893
-2.98493e-07
0.000178961
-3.00931e-07
0.00017899
-3.03135e-07
0.000179018
-3.05154e-07
0.000179045
-3.07022e-07
0.00017907
-3.08765e-07
0.000179094
-3.10403e-07
0.000179117
-3.11948e-07
0.000179139
-3.1341e-07
0.000179159
-3.14795e-07
0.000179178
-3.16107e-07
0.000179195
-3.17346e-07
0.000179211
-3.18513e-07
0.000179226
-3.19609e-07
-3.20626e-07
0.00017924
0.000183487
5.68054e-08
0.000183465
-4.13957e-09
0.000183501
-8.36702e-08
0.000183553
-1.3606e-07
0.000183605
-1.75803e-07
0.000183652
-2.06686e-07
0.000183694
-2.3116e-07
0.000183733
-2.51077e-07
0.000183769
-2.67162e-07
0.000183804
-2.801e-07
0.000183838
-2.90546e-07
0.00018387
-2.99009e-07
0.000183903
-3.05881e-07
0.000183934
-3.11476e-07
0.000183966
-3.16047e-07
0.000183996
-3.19791e-07
0.000184026
-3.22867e-07
0.000184056
-3.25399e-07
0.000184085
-3.27487e-07
0.000184113
-3.2921e-07
0.000184141
-3.30631e-07
0.000184168
-3.31799e-07
0.000184193
-3.32753e-07
0.000184218
-3.33526e-07
0.000184242
-3.34142e-07
0.000184264
-3.3462e-07
0.000184286
-3.34976e-07
0.000184306
-3.35221e-07
0.000184326
-3.35363e-07
0.000184344
-3.35408e-07
0.000184361
-3.3536e-07
0.000184376
-3.35219e-07
-3.34986e-07
0.000184391
0.000188861
7.78229e-09
0.000188796
6.05926e-08
0.000188711
1.40951e-09
0.000188648
-7.27206e-08
0.00018863
-1.57635e-07
0.000188644
-2.20728e-07
0.000188677
-2.64067e-07
0.00018872
-2.94712e-07
0.00018877
-3.16874e-07
0.000188823
-3.33148e-07
0.000188878
-3.45177e-07
0.000188933
-3.54086e-07
0.000188987
-3.60672e-07
0.000189042
-3.65504e-07
0.000189094
-3.68995e-07
0.000189146
-3.71447e-07
0.000189196
-3.73087e-07
0.000189245
-3.74082e-07
0.000189292
-3.74562e-07
0.000189338