/*--------------------------------*- C++ -*----------------------------------*\
| =========                 |                                                 |
| \\      /  F ield         | OpenFOAM: The Open Source CFD Toolbox           |
|  \\    /   O peration     | Version:  2.1.1                                 |
|   \\  /    A nd           | Web:      www.OpenFOAM.org                      |
|    \\/     M anipulation  |                                                 |
\*---------------------------------------------------------------------------*/
FoamFile
{
    version     2.0;
    format      ascii;
    class       volVectorField;
    location    "0.185";
    object      U;
}
// * * * * * * * * * * * * * * * * * * * * * * * * * * * * * * * * * * * * * //

dimensions      [0 1 -1 0 0 0 0];

internalField   nonuniform List<vector> 
6820
(
(8.34337 -0.360076 0)
(8.40109 -0.247151 0)
(8.35607 -0.11529 0)
(8.24776 -0.0365541 0)
(8.11929 0.00601277 0)
(7.98582 0.0278761 0)
(7.85368 0.0386476 0)
(7.72624 0.0433491 0)
(7.60491 0.044622 0)
(7.49025 0.0439234 0)
(7.38248 0.0420949 0)
(7.28164 0.039641 0)
(7.1876 0.0368728 0)
(7.10015 0.0339862 0)
(7.019 0.0311048 0)
(6.94385 0.0283063 0)
(6.87433 0.025638 0)
(6.8101 0.0231269 0)
(6.75077 0.0207867 0)
(6.69601 0.0186221 0)
(6.64546 0.0166321 0)
(6.59878 0.0148127 0)
(6.55565 0.013159 0)
(6.51576 0.0116666 0)
(6.4788 0.0103348 0)
(6.44446 0.00917006 0)
(6.4124 0.00819163 0)
(6.3822 0.00745254 0)
(6.35336 0.00705869 0)
(6.32492 0.00727966 0)
(6.29538 0.00892086 0)
(6.26149 0.0128802 0)
(6.21441 0.0292197 0)
(8.32138 0.166252 0)
(8.28709 0.190007 0)
(8.28543 0.132162 0)
(8.31739 0.095867 0)
(8.36168 0.0750326 0)
(8.40172 0.0623721 0)
(8.4328 0.0548909 0)
(8.45487 0.0503695 0)
(8.46878 0.0474668 0)
(8.47555 0.0454691 0)
(8.47622 0.0439816 0)
(8.47172 0.0427664 0)
(8.46288 0.0416846 0)
(8.45043 0.040659 0)
(8.43501 0.0396492 0)
(8.41718 0.0386364 0)
(8.39741 0.0376144 0)
(8.37612 0.0365844 0)
(8.35368 0.0355511 0)
(8.33037 0.0345211 0)
(8.30646 0.0335021 0)
(8.28217 0.0325025 0)
(8.25766 0.0315319 0)
(8.23311 0.0306024 0)
(8.20862 0.0297308 0)
(8.18429 0.028942 0)
(8.16022 0.0282797 0)
(8.13643 0.0278193 0)
(8.11317 0.0277033 0)
(8.0902 0.0282576 0)
(8.06956 0.0299348 0)
(8.04887 0.0346969 0)
(8.04793 0.0427389 0)
(8.3225 -0.0608834 0)
(8.31397 -0.0832749 0)
(8.33049 -0.0540858 0)
(8.3443 -0.0202843 0)
(8.35315 0.0024308 0)
(8.36215 0.0165621 0)
(8.37186 0.0258065 0)
(8.38186 0.0320291 0)
(8.39168 0.0362536 0)
(8.40091 0.0391252 0)
(8.40933 0.0410386 0)
(8.41679 0.042238 0)
(8.42324 0.042897 0)
(8.42866 0.0431471 0)
(8.43307 0.0430874 0)
(8.43652 0.0427943 0)
(8.43904 0.0423273 0)
(8.44071 0.0417329 0)
(8.44158 0.0410481 0)
(8.44174 0.0403023 0)
(8.44124 0.0395196 0)
(8.44014 0.0387204 0)
(8.43851 0.0379232 0)
(8.4364 0.037146 0)
(8.43386 0.0364102 0)
(8.43093 0.0357417 0)
(8.42767 0.0351848 0)
(8.42411 0.034786 0)
(8.42035 0.0346896 0)
(8.41644 0.0348819 0)
(8.41287 0.0360288 0)
(8.40967 0.0364807 0)
(8.40814 0.0399231 0)
(8.33365 0.0145674 0)
(8.32976 0.0477118 0)
(8.32736 0.0539924 0)
(8.32867 0.0465829 0)
(8.33454 0.0410911 0)
(8.34204 0.0385947 0)
(8.34951 0.0377914 0)
(8.3567 0.0377534 0)
(8.36365 0.0379796 0)
(8.37033 0.0382496 0)
(8.37671 0.0384648 0)
(8.38277 0.0385843 0)
(8.38849 0.0385982 0)
(8.39385 0.0385099 0)
(8.39885 0.0383279 0)
(8.40349 0.038063 0)
(8.40777 0.0377276 0)
(8.4117 0.0373343 0)
(8.41529 0.0368952 0)
(8.41857 0.0364219 0)
(8.42154 0.0359257 0)
(8.42424 0.0354182 0)
(8.42668 0.0349114 0)
(8.42887 0.0344196 0)
(8.43084 0.033961 0)
(8.43261 0.0335596 0)
(8.43421 0.0332526 0)
(8.43567 0.0330849 0)
(8.4371 0.033142 0)
(8.43853 0.0334723 0)
(8.44042 0.0342519 0)
(8.44284 0.035225 0)
(8.44707 0.0367405 0)
(8.3302 -0.00530579 0)
(8.32721 -0.0074944 0)
(8.33135 -0.00242612 0)
(8.33601 0.0080709 0)
(8.34006 0.0172537 0)
(8.34421 0.0234787 0)
(8.34858 0.0276708 0)
(8.3532 0.0306419 0)
(8.35798 0.0327932 0)
(8.3628 0.0343571 0)
(8.36759 0.0354785 0)
(8.37228 0.036252 0)
(8.37685 0.036744 0)
(8.38127 0.0370062 0)
(8.38553 0.0370808 0)
(8.38961 0.0370035 0)
(8.39352 0.0368046 0)
(8.39726 0.0365097 0)
(8.40082 0.0361405 0)
(8.40422 0.035716 0)
(8.40747 0.0352528 0)
(8.41056 0.0347659 0)
(8.41352 0.0342704 0)
(8.41635 0.0337817 0)
(8.41906 0.0333181 0)
(8.42167 0.0329006 0)
(8.42422 0.0325594 0)
(8.42673 0.0323231 0)
(8.42928 0.0322457 0)
(8.43195 0.0323167 0)
(8.43499 0.0326244 0)
(8.43852 0.0327707 0)
(8.44289 0.0329225 0)
(8.33238 0.00229355 0)
(8.33117 0.0133286 0)
(8.33277 0.0204275 0)
(8.33546 0.023832 0)
(8.33888 0.0259976 0)
(8.3429 0.0278168 0)
(8.34709 0.0295042 0)
(8.3513 0.0310088 0)
(8.3555 0.03225 0)
(8.35967 0.0332169 0)
(8.36379 0.0339318 0)
(8.36783 0.0344226 0)
(8.37179 0.0347179 0)
(8.37566 0.0348468 0)
(8.37942 0.0348361 0)
(8.38307 0.0347097 0)
(8.38661 0.0344887 0)
(8.39003 0.0341916 0)
(8.39335 0.0338345 0)
(8.39657 0.0334319 0)
(8.39968 0.0329968 0)
(8.40271 0.0325416 0)
(8.40565 0.0320784 0)
(8.40852 0.0316201 0)
(8.41132 0.0311814 0)
(8.41408 0.0307785 0)
(8.41682 0.0304318 0)
(8.41958 0.0301584 0)
(8.42242 0.0299813 0)
(8.42542 0.0298803 0)
(8.42873 0.0298496 0)
(8.43242 0.0296593 0)
(8.43663 0.0292489 0)
(8.33232 0.000883163 0)
(8.33151 0.00581465 0)
(8.33339 0.0108079 0)
(8.33641 0.0156233 0)
(8.33978 0.0200233 0)
(8.3434 0.023548 0)
(8.34711 0.0262441 0)
(8.35084 0.0283066 0)
(8.35459 0.0298725 0)
(8.35833 0.031044 0)
(8.36203 0.0318983 0)
(8.36568 0.0324914 0)
(8.36926 0.0328665 0)
(8.37277 0.0330599 0)
(8.3762 0.033102 0)
(8.37954 0.0330188 0)
(8.3828 0.0328329 0)
(8.38598 0.0325637 0)
(8.38907 0.0322281 0)
(8.3921 0.0318409 0)
(8.39505 0.0314155 0)
(8.39794 0.0309639 0)
(8.40077 0.0304978 0)
(8.40356 0.0300289 0)
(8.40632 0.0295692 0)
(8.40906 0.0291306 0)
(8.41181 0.0287258 0)
(8.4146 0.0283617 0)
(8.41749 0.0280421 0)
(8.42054 0.0277369 0)
(8.42382 0.027409 0)
(8.42738 0.0268948 0)
(8.43124 0.0260967 0)
(8.33272 0.00172066 0)
(8.33254 0.0073222 0)
(8.33415 0.012636 0)
(8.33671 0.0169202 0)
(8.33971 0.0203894 0)
(8.34306 0.0231317 0)
(8.34658 0.0253107 0)
(8.35014 0.02706 0)
(8.35371 0.0284396 0)
(8.35725 0.0294958 0)
(8.36075 0.030275 0)
(8.36418 0.0308174 0)
(8.36756 0.0311579 0)
(8.37085 0.0313275 0)
(8.37408 0.0313534 0)
(8.37723 0.0312596 0)
(8.38031 0.0310665 0)
(8.38332 0.0307923 0)
(8.38626 0.0304524 0)
(8.38913 0.0300606 0)
(8.39196 0.029629 0)
(8.39473 0.0291684 0)
(8.39747 0.0286891 0)
(8.40017 0.0282005 0)
(8.40286 0.0277116 0)
(8.40555 0.0272302 0)
(8.40826 0.0267621 0)
(8.41102 0.0263068 0)
(8.41388 0.0258567 0)
(8.41686 0.0253794 0)
(8.42003 0.0248287 0)
(8.4234 0.0240936 0)
(8.42693 0.0230899 0)
(8.33284 0.00180172 0)
(8.33292 0.0065004 0)
(8.33441 0.0110396 0)
(8.3368 0.0149542 0)
(8.33963 0.0183446 0)
(8.34279 0.0211628 0)
(8.34611 0.0234359 0)
(8.34949 0.0252472 0)
(8.35288 0.0266626 0)
(8.35627 0.0277404 0)
(8.35961 0.0285342 0)
(8.36291 0.0290883 0)
(8.36614 0.0294395 0)
(8.3693 0.0296193 0)
(8.3724 0.0296547 0)
(8.37542 0.0295691 0)
(8.37838 0.0293826 0)
(8.38128 0.0291127 0)
(8.38411 0.0287743 0)
(8.38689 0.0283805 0)
(8.38962 0.0279427 0)
(8.39231 0.027471 0)
(8.39496 0.0269741 0)
(8.3976 0.0264598 0)
(8.40023 0.0259346 0)
(8.40286 0.0254027 0)
(8.40552 0.0248653 0)
(8.40823 0.0243171 0)
(8.41102 0.0237447 0)
(8.41391 0.0231172 0)
(8.41694 0.022391 0)
(8.42009 0.0214901 0)
(8.42334 0.0203518 0)
(8.33294 0.00184531 0)
(8.33322 0.00618266 0)
(8.3346 0.0104215 0)
(8.33679 0.0141146 0)
(8.33941 0.0172786 0)
(8.34235 0.0199023 0)
(8.34548 0.0220267 0)
(8.3487 0.0237311 0)
(8.35196 0.0250759 0)
(8.35521 0.0261096 0)
(8.35844 0.0268762 0)
(8.36163 0.0274142 0)
(8.36476 0.0277563 0)
(8.36783 0.0279313 0)
(8.37084 0.0279646 0)
(8.37378 0.0278778 0)
(8.37666 0.02769 0)
(8.37947 0.0274176 0)
(8.38223 0.0270748 0)
(8.38494 0.0266738 0)
(8.38761 0.026225 0)
(8.39024 0.0257375 0)
(8.39284 0.0252187 0)
(8.39542 0.0246747 0)
(8.398 0.0241098 0)
(8.40058 0.0235254 0)
(8.40319 0.0229197 0)
(8.40584 0.0222846 0)
(8.40855 0.021605 0)
(8.41135 0.0208536 0)
(8.41423 0.0199939 0)
(8.41719 0.018974 0)
(8.42019 0.0177524 0)
(8.33299 0.00181044 0)
(8.33337 0.0057612 0)
(8.33467 0.00960276 0)
(8.33668 0.0130002 0)
(8.33912 0.015945 0)
(8.34187 0.0184295 0)
(8.34483 0.0204713 0)
(8.34789 0.022123 0)
(8.35101 0.0234328 0)
(8.35414 0.0244432 0)
(8.35725 0.0251947 0)
(8.36034 0.0257236 0)
(8.36338 0.0260609 0)
(8.36637 0.0262342 0)
(8.3693 0.0262671 0)
(8.37217 0.0261805 0)
(8.37498 0.0259924 0)
(8.37774 0.0257182 0)
(8.38045 0.0253713 0)
(8.38311 0.0249629 0)
(8.38572 0.0245028 0)
(8.38831 0.0239988 0)
(8.39086 0.0234573 0)
(8.3934 0.022883 0)
(8.39593 0.0222783 0)
(8.39847 0.0216429 0)
(8.40103 0.0209732 0)
(8.40362 0.0202601 0)
(8.40626 0.0194888 0)
(8.40895 0.0186367 0)
(8.41169 0.0176752 0)
(8.41448 0.0165693 0)
(8.41728 0.0152928 0)
(8.33301 0.00173437 0)
(8.33345 0.00536252 0)
(8.33467 0.00887819 0)
(8.33653 0.0120259 0)
(8.3388 0.0147704 0)
(8.34137 0.0171021 0)
(8.34416 0.0190316 0)
(8.34707 0.0205998 0)
(8.35004 0.0218486 0)
(8.35305 0.0228162 0)
(8.35605 0.0235382 0)
(8.35904 0.0240472 0)
(8.36199 0.0243715 0)
(8.3649 0.0245364 0)
(8.36776 0.0245638 0)
(8.37057 0.0244731 0)
(8.37332 0.0242809 0)
(8.37603 0.0240018 0)
(8.37869 0.023648 0)
(8.3813 0.02323 0)
(8.38387 0.0227566 0)
(8.38642 0.0222346 0)
(8.38893 0.0216694 0)
(8.39143 0.0210644 0)
(8.39392 0.0204208 0)
(8.39642 0.0197373 0)
(8.39892 0.0190093 0)
(8.40145 0.0182279 0)
(8.40401 0.0173801 0)
(8.40659 0.0164477 0)
(8.40921 0.0154094 0)
(8.41185 0.0142418 0)
(8.41447 0.0129298 0)
(8.33303 0.00163413 0)
(8.33349 0.00496419 0)
(8.33463 0.00817232 0)
(8.33635 0.0110689 0)
(8.33846 0.0136099 0)
(8.34087 0.0157853 0)
(8.3435 0.0176007 0)
(8.34626 0.0190851 0)
(8.3491 0.0202728 0)
(8.35198 0.0211959 0)
(8.35488 0.0218859 0)
(8.35776 0.022372 0)
(8.36062 0.02268 0)
(8.36345 0.0228332 0)
(8.36624 0.022852 0)
(8.36898 0.0227543 0)
(8.37168 0.0225557 0)
(8.37433 0.0222694 0)
(8.37694 0.021907 0)
(8.3795 0.021478 0)
(8.38203 0.0209901 0)
(8.38454 0.0204494 0)
(8.38701 0.0198604 0)
(8.38947 0.0192256 0)
(8.39192 0.0185453 0)
(8.39436 0.0178177 0)
(8.39681 0.017038 0)
(8.39927 0.0161984 0)
(8.40175 0.0152877 0)
(8.40424 0.0142922 0)
(8.40674 0.0131965 0)
(8.40923 0.0119852 0)
(8.41171 0.0106505 0)
(8.33304 0.00152133 0)
(8.3335 0.0045738 0)
(8.33457 0.00750005 0)
(8.33617 0.0101592 0)
(8.33814 0.0125049 0)
(8.3404 0.0145247 0)
(8.34287 0.0162206 0)
(8.34549 0.0176134 0)
(8.34819 0.018731 0)
(8.35095 0.0196013 0)
(8.35374 0.0202517 0)
(8.35652 0.020708 0)
(8.35929 0.0209939 0)
(8.36204 0.0211304 0)
(8.36475 0.0211362 0)
(8.36742 0.0210277 0)
(8.37006 0.0208192 0)
(8.37265 0.0205231 0)
(8.37521 0.0201497 0)
(8.37773 0.0197077 0)
(8.38021 0.019204 0)
(8.38267 0.018644 0)
(8.3851 0.0180313 0)
(8.38751 0.0173678 0)
(8.38991 0.0166534 0)
(8.3923 0.0158861 0)
(8.39469 0.0150614 0)
(8.39708 0.0141728 0)
(8.39947 0.0132114 0)
(8.40186 0.012167 0)
(8.40425 0.0110289 0)
(8.40662 0.0097872 0)
(8.40896 0.00843882 0)
(8.33304 0.00140298 0)
(8.33349 0.00419216 0)
(8.3345 0.00685474 0)
(8.33598 0.00928497 0)
(8.33782 0.0114386 0)
(8.33994 0.0133018 0)
(8.34228 0.0148742 0)
(8.34476 0.0161706 0)
(8.34734 0.0172132 0)
(8.34998 0.0180256 0)
(8.35265 0.0186315 0)
(8.35533 0.0190536 0)
(8.35801 0.019313 0)
(8.36067 0.0194287 0)
(8.36331 0.0194178 0)
(8.36591 0.0192953 0)
(8.36848 0.0190741 0)
(8.37102 0.0187657 0)
(8.37352 0.0183793 0)
(8.37598 0.0179228 0)
(8.37842 0.0174025 0)
(8.38082 0.0168229 0)
(8.3832 0.0161872 0)
(8.38556 0.0154968 0)
(8.38791 0.0147514 0)
(8.39024 0.013949 0)
(8.39256 0.013086 0)
(8.39488 0.0121571 0)
(8.39718 0.0111554 0)
(8.39948 0.0100737 0)
(8.40176 0.00890491 0)
(8.40401 0.00764294 0)
(8.40623 0.0062875 0)
(8.33304 0.00128324 0)
(8.33347 0.00382068 0)
(8.33442 0.00623513 0)
(8.33581 0.00844557 0)
(8.33753 0.0104119 0)
(8.33952 0.0121194 0)
(8.34172 0.0135659 0)
(8.34407 0.0147617 0)
(8.34653 0.0157243 0)
(8.34905 0.0164734 0)
(8.35162 0.0170294 0)
(8.35421 0.0174122 0)
(8.35679 0.0176405 0)
(8.35937 0.0177313 0)
(8.36193 0.0177 0)
(8.36446 0.0175601 0)
(8.36696 0.0173235 0)
(8.36943 0.0170004 0)
(8.37187 0.0165993 0)
(8.37428 0.0161272 0)
(8.37666 0.0155896 0)
(8.37901 0.0149906 0)
(8.38134 0.0143329 0)
(8.38364 0.0136176 0)
(8.38593 0.0128445 0)
(8.38819 0.0120119 0)
(8.39044 0.0111169 0)
(8.39268 0.0101553 0)
(8.3949 0.00912245 0)
(8.3971 0.00801315 0)
(8.39928 0.00682297 0)
(8.40142 0.0055485 0)
(8.40353 0.00419113 0)
(8.33304 0.0011645 0)
(8.33345 0.00346001 0)
(8.33434 0.00563894 0)
(8.33564 0.00763763 0)
(8.33725 0.00942077 0)
(8.33912 0.0109734 0)
(8.3412 0.012292 0)
(8.34343 0.0133837 0)
(8.34577 0.014262 0)
(8.34819 0.0149433 0)
(8.35065 0.0154449 0)
(8.35314 0.015784 0)
(8.35564 0.0159771 0)
(8.35813 0.0160393 0)
(8.36061 0.0159843 0)
(8.36307 0.0158242 0)
(8.36551 0.0155698 0)
(8.36791 0.0152301 0)
(8.37029 0.0148129 0)
(8.37264 0.0143243 0)
(8.37496 0.0137693 0)
(8.37725 0.0131515 0)
(8.37952 0.0124732 0)
(8.38176 0.0117355 0)
(8.38398 0.0109382 0)
(8.38618 0.0100801 0)
(8.38835 0.00915903 0)
(8.39051 0.00817198 0)
(8.39264 0.00711567 0)
(8.39475 0.00598685 0)
(8.39683 0.00478294 0)
(8.39887 0.00350228 0)
(8.40086 0.00214726 0)
(8.33304 0.00104808 0)
(8.33343 0.00311037 0)
(8.33427 0.00506438 0)
(8.33548 0.00685869 0)
(8.33699 0.00846266 0)
(8.33876 0.00986164 0)
(8.34072 0.0110513 0)
(8.34284 0.012036 0)
(8.34507 0.0128265 0)
(8.34738 0.0134359 0)
(8.34974 0.013879 0)
(8.35214 0.0141704 0)
(8.35455 0.0143245 0)
(8.35696 0.0143547 0)
(8.35936 0.0142729 0)
(8.36175 0.0140901 0)
(8.36411 0.0138157 0)
(8.36645 0.0134578 0)
(8.36877 0.0130234 0)
(8.37105 0.0125179 0)
(8.37331 0.0119457 0)
(8.37554 0.01131 0)
(8.37774 0.0106129 0)
(8.37992 0.00985545 0)
(8.38207 0.00903764 0)
(8.3842 0.00815868 0)
(8.3863 0.00721708 0)
(8.38838 0.0062109 0)
(8.39042 0.00513802 0)
(8.39244 0.00399658 0)
(8.39441 0.00278532 0)
(8.39635 0.00150376 0)
(8.39824 0.00015486 0)
(8.33303 0.000934586 0)
(8.3334 0.00277161 0)
(8.33419 0.00450968 0)
(8.33533 0.00610621 0)
(8.33676 0.00753479 0)
(8.33842 0.00878144 0)
(8.34028 0.00984125 0)
(8.34229 0.0107169 0)
(8.34442 0.0114163 0)
(8.34663 0.0119503 0)
(8.3489 0.0123311 0)
(8.3512 0.0125712 0)
(8.35353 0.012683 0)
(8.35586 0.012678 0)
(8.35818 0.0125668 0)
(8.3605 0.0123589 0)
(8.36279 0.0120628 0)
(8.36506 0.0116855 0)
(8.36731 0.0112331 0)
(8.36953 0.0107105 0)
(8.37173 0.0101217 0)
(8.37389 0.0094694 0)
(8.37603 0.00875557 0)
(8.37814 0.00798122 0)
(8.38022 0.00714659 0)
(8.38227 0.00625129 0)
(8.3843 0.00529445 0)
(8.38629 0.00427494 0)
(8.38825 0.0031916 0)
(8.39017 0.00204356 0)
(8.39205 0.000830516 0)
(8.39389 -0.000447258 0)
(8.39569 -0.00178652 0)
(8.33303 0.00082426 0)
(8.33338 0.00244333 0)
(8.33412 0.00397319 0)
(8.3352 0.00537787 0)
(8.33654 0.0066346 0)
(8.33811 0.00773039 0)
(8.33988 0.00866003 0)
(8.34179 0.00942485 0)
(8.34382 0.0100308 0)
(8.34594 0.0104864 0)
(8.34811 0.0108018 0)
(8.35033 0.0109875 0)
(8.35257 0.011054 0)
(8.35482 0.0110112 0)
(8.35707 0.0108683 0)
(8.35931 0.0106335 0)
(8.36154 0.0103142 0)
(8.36374 0.00991655 0)
(8.36592 0.00944589 0)
(8.36808 0.00890653 0)
(8.37021 0.00830189 0)
(8.37231 0.00763452 0)
(8.37438 0.00690617 0)
(8.37642 0.00611789 0)
(8.37843 0.00527012 0)
(8.3804 0.00436283 0)
(8.38235 0.00339566 0)
(8.38426 0.00236811 0)
(8.38613 0.00127977 0)
(8.38796 0.000130486 0)
(8.38975 -0.00107941 0)
(8.3915 -0.00234915 0)
(8.39319 -0.00367541 0)
(8.33303 0.000717094 0)
(8.33336 0.00212492 0)
(8.33406 0.00345328 0)
(8.33507 0.00467131 0)
(8.33634 0.00575936 0)
(8.33783 0.00670558 0)
(8.33951 0.00750471 0)
(8.34133 0.00815713 0)
(8.34327 0.00866716 0)
(8.3453 0.00904162 0)
(8.34739 0.00928862 0)
(8.34952 0.00941694 0)
(8.35168 0.0094354 0)
(8.35386 0.00935239 0)
(8.35603 0.00917571 0)
(8.3582 0.00891244 0)
(8.36036 0.00856882 0)
(8.36249 0.00815023 0)
(8.36461 0.00766126 0)
(8.3667 0.00710566 0)
(8.36876 0.00648642 0)
(8.37079 0.0058058 0)
(8.37279 0.00506543 0)
(8.37476 0.00426637 0)
(8.37669 0.00340921 0)
(8.3786 0.00249422 0)
(8.38046 0.00152146 0)
(8.38229 0.000490908 0)
(8.38407 -0.000597318 0)
(8.38582 -0.00174287 0)
(8.38752 -0.00294497 0)
(8.38917 -0.00420257 0)
(8.39078 -0.00551234 0)
(8.33303 0.000612953 0)
(8.33334 0.00181572 0)
(8.334 0.0029485 0)
(8.33496 0.00398461 0)
(8.33616 0.00490712 0)
(8.33757 0.00570541 0)
(8.33917 0.0063744 0)
(8.34091 0.00691379 0)
(8.34277 0.00732663 0)
(8.34471 0.00761822 0)
(8.34672 0.00779494 0)
(8.34877 0.00786395 0)
(8.35086 0.00783253 0)
(8.35296 0.00770764 0)
(8.35506 0.00749577 0)
(8.35716 0.00720294 0)
(8.35925 0.00683438 0)
(8.36132 0.00639463 0)
(8.36336 0.00588758 0)
(8.36539 0.00531648 0)
(8.36738 0.00468392 0)
(8.36934 0.0039919 0)
(8.37128 0.00324194 0)
(8.37317 0.00243508 0)
(8.37503 0.00157204 0)
(8.37686 0.000653316 0)
(8.37864 -0.000320746 0)
(8.38039 -0.00134979 0)
(8.38209 -0.00243333 0)
(8.38375 -0.00357068 0)
(8.38536 -0.0047608 0)
(8.38693 -0.00600248 0)
(8.38844 -0.00729246 0)
(8.33303 0.000511621 0)
(8.33332 0.00151484 0)
(8.33395 0.00245698 0)
(8.33486 0.00331474 0)
(8.336 0.00407357 0)
(8.33734 0.0047242 0)
(8.33886 0.00526197 0)
(8.34053 0.00568628 0)
(8.34231 0.00599928 0)
(8.34417 0.00620507 0)
(8.34611 0.00630848 0)
(8.34809 0.00631541 0)
(8.3501 0.00623179 0)
(8.35213 0.0060632 0)
(8.35416 0.00581479 0)
(8.35619 0.00549158 0)
(8.35821 0.00509783 0)
(8.36022 0.00463725 0)
(8.3622 0.00411308 0)
(8.36415 0.00352798 0)
(8.36608 0.00288416 0)
(8.36797 0.00218336 0)
(8.36983 0.00142693 0)
(8.37166 0.000615891 0)
(8.37345 -0.000248975 0)
(8.3752 -0.00116704 0)
(8.3769 -0.00213773 0)
(8.37857 -0.00316044 0)
(8.38019 -0.00423447 0)
(8.38176 -0.00535889 0)
(8.38329 -0.00653252 0)
(8.38476 -0.00775407 0)
(8.38619 -0.00902038 0)
(8.33303 0.000412889 0)
(8.3333 0.00122185 0)
(8.3339 0.0019785 0)
(8.33476 0.00266254 0)
(8.33585 0.00326162 0)
(8.33713 0.00376778 0)
(8.33859 0.00417682 0)
(8.34018 0.00448786 0)
(8.34189 0.00470223 0)
(8.34368 0.0048231 0)
(8.34555 0.00485352 0)
(8.34746 0.00479816 0)
(8.3494 0.00466168 0)
(8.35136 0.00444854 0)
(8.35333 0.00416288 0)
(8.3553 0.00380889 0)
(8.35725 0.0033895 0)
(8.35919 0.00290783 0)
(8.36111 0.00236664 0)
(8.363 0.0017681 0)
(8.36486 0.00111405 0)
(8.36668 0.000405964 0)
(8.36848 -0.000354956 0)
(8.37023 -0.00116775 0)
(8.37194 -0.0020316 0)
(8.37362 -0.00294582 0)
(8.37525 -0.0039097 0)
(8.37683 -0.00492249 0)
(8.37837 -0.00598333 0)
(8.37986 -0.0070912 0)
(8.38131 -0.00824483 0)
(8.3827 -0.00944293 0)
(8.38404 -0.0106825 0)
(8.33303 0.000316374 0)
(8.33329 0.00093465 0)
(8.33386 0.0015074 0)
(8.33468 0.00201677 0)
(8.33571 0.00245278 0)
(8.33694 0.00280936 0)
(8.33834 0.00308354 0)
(8.33987 0.00327489 0)
(8.34152 0.00338447 0)
(8.34325 0.00341461 0)
(8.34505 0.00336702 0)
(8.34689 0.00324663 0)
(8.34877 0.00305616 0)
(8.35067 0.00279821 0)
(8.35257 0.00247495 0)
(8.35448 0.00209146 0)
(8.35637 0.00164885 0)
(8.35824 0.00114907 0)
(8.3601 0.000594259 0)
(8.36192 -1.38414e-05 0)
(8.36372 -0.000673848 0)
(8.36548 -0.00138459 0)
(8.3672 -0.00214504 0)
(8.36888 -0.00295434 0)
(8.37053 -0.00381173 0)
(8.37213 -0.00471647 0)
(8.37368 -0.0056678 0)
(8.37519 -0.00666492 0)
(8.37665 -0.00770688 0)
(8.37806 -0.00879262 0)
(8.37942 -0.00992085 0)
(8.38073 -0.0110903 0)
(8.38198 -0.0122982 0)
(8.33302 0.000222443 0)
(8.33327 0.000657511 0)
(8.33381 0.00105637 0)
(8.33459 0.00140303 0)
(8.33558 0.00168897 0)
(8.33676 0.00190898 0)
(8.33811 0.00206026 0)
(8.33959 0.00214229 0)
(8.34117 0.00215561 0)
(8.34285 0.00210392 0)
(8.34459 0.00198123 0)
(8.34638 0.00179479 0)
(8.3482 0.0015482 0)
(8.35004 0.00124305 0)
(8.35189 0.000882128 0)
(8.35374 0.000464644 0)
(8.35557 -5.76588e-06 0)
(8.35738 -0.000527208 0)
(8.35918 -0.00109857 0)
(8.36094 -0.00171868 0)
(8.36267 -0.00238652 0)
(8.36437 -0.0031012 0)
(8.36602 -0.00386192 0)
(8.36764 -0.00466794 0)
(8.36921 -0.00551859 0)
(8.37074 -0.00641315 0)
(8.37222 -0.00735089 0)
(8.37365 -0.00833098 0)
(8.37503 -0.0093525 0)
(8.37637 -0.0104144 0)
(8.37765 -0.0115154 0)
(8.37887 -0.0126545 0)
(8.38005 -0.0138288 0)
(8.33302 0.000128197 0)
(8.33327 0.00037221 0)
(8.33378 0.000580413 0)
(8.33454 0.000740201 0)
(8.33549 0.000847886 0)
(8.33663 0.000902826 0)
(8.33792 0.000905374 0)
(8.33935 0.000855897 0)
(8.34089 0.000755454 0)
(8.34251 0.000602011 0)
(8.3442 0.000405693 0)
(8.34593 0.000159833 0)
(8.3477 -0.00013628 0)
(8.34949 -0.000481088 0)
(8.35128 -0.000872671 0)
(8.35307 -0.00131309 0)
(8.35484 -0.00179968 0)
(8.3566 -0.00233139 0)
(8.35833 -0.00290788 0)
(8.36004 -0.0035286 0)
(8.36171 -0.00419293 0)
(8.36334 -0.00490029 0)
(8.36493 -0.00565017 0)
(8.36648 -0.00644202 0)
(8.36799 -0.00727525 0)
(8.36944 -0.00814925 0)
(8.37085 -0.0090633 0)
(8.37221 -0.0100166 0)
(8.37352 -0.0110083 0)
(8.37478 -0.0120373 0)
(8.37598 -0.0131025 0)
(8.37713 -0.0142027 0)
(8.37823 -0.0153355 0)
(8.33302 4.52808e-05 0)
(8.33324 0.000137361 0)
(8.33372 0.000207257 0)
(8.33443 0.000239396 0)
(8.33535 0.000227734 0)
(8.33645 0.000169621 0)
(8.33771 6.46204e-05 0)
(8.33911 -8.66102e-05 0)
(8.34061 -0.000282329 0)
(8.3422 -0.000524018 0)
(8.34386 -0.000800868 0)
(8.34555 -0.00111917 0)
(8.34728 -0.00147977 0)
(8.34902 -0.00188106 0)
(8.35076 -0.00232318 0)
(8.3525 -0.00280362 0)
(8.35423 -0.00332332 0)
(8.35593 -0.00388226 0)
(8.35761 -0.00448005 0)
(8.35926 -0.00511636 0)
(8.36087 -0.00579093 0)
(8.36244 -0.00650349 0)
(8.36397 -0.00725375 0)
(8.36545 -0.00804136 0)
(8.36689 -0.00886593 0)
(8.36828 -0.00972698 0)
(8.36962 -0.010624 0)
(8.37091 -0.0115562 0)
(8.37215 -0.0125229 0)
(8.37333 -0.0135232 0)
(8.37446 -0.014556 0)
(8.37554 -0.0156205 0)
(8.37656 -0.0167143 0)
(8.33303 -5.7314e-05 0)
(8.33326 -0.00019571 0)
(8.33374 -0.000381024 0)
(8.33444 -0.000610141 0)
(8.33532 -0.000867856 0)
(8.33639 -0.00114271 0)
(8.33761 -0.00142921 0)
(8.33896 -0.00172591 0)
(8.34041 -0.00203451 0)
(8.34196 -0.00235573 0)
(8.34356 -0.00270071 0)
(8.34521 -0.00306802 0)
(8.34689 -0.00345946 0)
(8.34859 -0.00387807 0)
(8.35028 -0.00432624 0)
(8.35198 -0.00480549 0)
(8.35365 -0.00531756 0)
(8.35531 -0.00586333 0)
(8.35693 -0.00644333 0)
(8.35853 -0.007058 0)
(8.36008 -0.00770757 0)
(8.3616 -0.00839215 0)
(8.36307 -0.00911165 0)
(8.3645 -0.00986591 0)
(8.36588 -0.0106546 0)
(8.3672 -0.0114773 0)
(8.36848 -0.0123335 0)
(8.3697 -0.0132225 0)
(8.37087 -0.0141436 0)
(8.37199 -0.0150958 0)
(8.37305 -0.0160783 0)
(8.37405 -0.0170899 0)
(8.375 -0.0181288 0)
(8.333 -0.000102137 0)
(8.33315 -0.000269874 0)
(8.33355 -0.000443063 0)
(8.33419 -0.000658076 0)
(8.33506 -0.000926566 0)
(8.33613 -0.0012462 0)
(8.33736 -0.00160827 0)
(8.33873 -0.00200343 0)
(8.3402 -0.00242465 0)
(8.34174 -0.00286732 0)
(8.34335 -0.00332957 0)
(8.34499 -0.00380892 0)
(8.34665 -0.00430587 0)
(8.34832 -0.00482167 0)
(8.34999 -0.0053575 0)
(8.35164 -0.0059144 0)
(8.35328 -0.00649364 0)
(8.35489 -0.00709644 0)
(8.35647 -0.00772386 0)
(8.35801 -0.00837681 0)
(8.35951 -0.00905607 0)
(8.36097 -0.00976224 0)
(8.36238 -0.0104958 0)
(8.36375 -0.0112569 0)
(8.36506 -0.0120458 0)
(8.36633 -0.0128625 0)
(8.36754 -0.0137068 0)
(8.36869 -0.0145783 0)
(8.3698 -0.0154767 0)
(8.37084 -0.0164014 0)
(8.37183 -0.0173516 0)
(8.37277 -0.0183268 0)
(8.37364 -0.0193252 0)
(8.33306 -0.000303084 0)
(8.33335 -0.000980017 0)
(8.33381 -0.00173329 0)
(8.33444 -0.0024942 0)
(8.33524 -0.003207 0)
(8.33622 -0.00385177 0)
(8.33736 -0.00443006 0)
(8.33864 -0.00495249 0)
(8.34004 -0.00543265 0)
(8.34153 -0.00588385 0)
(8.34308 -0.00631891 0)
(8.34467 -0.00674818 0)
(8.34629 -0.00718007 0)
(8.34792 -0.00762138 0)
(8.34956 -0.00807746 0)
(8.35118 -0.00855237 0)
(8.35278 -0.00904926 0)
(8.35435 -0.00957047 0)
(8.35589 -0.0101177 0)
(8.3574 -0.010692 0)
(8.35886 -0.0112943 0)
(8.36027 -0.0119249 0)
(8.36164 -0.0125842 0)
(8.36296 -0.013272 0)
(8.36423 -0.0139883 0)
(8.36544 -0.0147327 0)
(8.3666 -0.0155049 0)
(8.3677 -0.0163041 0)
(8.36874 -0.0171298 0)
(8.36973 -0.0179813 0)
(8.37066 -0.0188576 0)
(8.37153 -0.019758 0)
(8.37235 -0.0206807 0)
(8.33294 -5.55501e-05 0)
(8.33286 -8.20218e-05 0)
(8.33309 -0.00017811 0)
(8.33368 -0.00046682 0)
(8.33459 -0.000952531 0)
(8.33573 -0.00157764 0)
(8.33703 -0.00228198 0)
(8.33846 -0.00302302 0)
(8.33997 -0.00377434 0)
(8.34154 -0.00452043 0)
(8.34315 -0.00525354 0)
(8.34477 -0.00597081 0)
(8.34641 -0.00667265 0)
(8.34803 -0.00736152 0)
(8.34964 -0.00804085 0)
(8.35123 -0.00871434 0)
(8.35279 -0.00938571 0)
(8.35432 -0.0100585 0)
(8.35581 -0.0107358 0)
(8.35726 -0.0114205 0)
(8.35866 -0.012115 0)
(8.36002 -0.0128213 0)
(8.36132 -0.0135412 0)
(8.36257 -0.014276 0)
(8.36378 -0.0150268 0)
(8.36492 -0.0157944 0)
(8.36601 -0.0165794 0)
(8.36705 -0.017382 0)
(8.36802 -0.0182026 0)
(8.36894 -0.0190409 0)
(8.3698 -0.0198969 0)
(8.37061 -0.0207703 0)
(8.37136 -0.0216599 0)
(8.33317 -0.00076199 0)
(8.33367 -0.002632 0)
(8.33407 -0.00456874 0)
(8.33447 -0.00621762 0)
(8.33504 -0.00750699 0)
(8.33584 -0.00849286 0)
(8.33687 -0.00924989 0)
(8.33809 -0.00984224 0)
(8.33945 -0.0103213 0)
(8.34092 -0.010727 0)
(8.34246 -0.0110893 0)
(8.34404 -0.0114303 0)
(8.34565 -0.0117659 0)
(8.34727 -0.0121071 0)
(8.34888 -0.0124618 0)
(8.35047 -0.0128351 0)
(8.35203 -0.0132306 0)
(8.35356 -0.0136505 0)
(8.35505 -0.0140962 0)
(8.3565 -0.0145684 0)
(8.35789 -0.0150674 0)
(8.35924 -0.0155931 0)
(8.36053 -0.0161453 0)
(8.36176 -0.0167235 0)
(8.36294 -0.0173273 0)
(8.36406 -0.0179559 0)
(8.36512 -0.0186087 0)
(8.36612 -0.019285 0)
(8.36706 -0.019984 0)
(8.36794 -0.0207048 0)
(8.36876 -0.0214466 0)
(8.36953 -0.0222086 0)
(8.37023 -0.0229894 0)
(8.33263 0.000582028 0)
(8.33174 0.00201506 0)
(8.33175 0.002914 0)
(8.3326 0.002853 0)
(8.33388 0.00203019 0)
(8.33535 0.000809838 0)
(8.33692 -0.000571059 0)
(8.33854 -0.00198798 0)
(8.34018 -0.00337392 0)
(8.34182 -0.00469288 0)
(8.34346 -0.00592949 0)
(8.34508 -0.00708137 0)
(8.34668 -0.00815316 0)
(8.34825 -0.00915295 0)
(8.3498 -0.0100903 0)
(8.35131 -0.0109748 0)
(8.35279 -0.0118159 0)
(8.35422 -0.0126219 0)
(8.35562 -0.0134004 0)
(8.35696 -0.014158 0)
(8.35826 -0.0149002 0)
(8.35951 -0.015632 0)
(8.36071 -0.0163573 0)
(8.36186 -0.0170795 0)
(8.36295 -0.0178015 0)
(8.36399 -0.0185255 0)
(8.36497 -0.0192534 0)
(8.36589 -0.0199866 0)
(8.36676 -0.0207263 0)
(8.36757 -0.0214733 0)
(8.36832 -0.0222281 0)
(8.36902 -0.0229911 0)
(8.36965 -0.0237618 0)
(8.33358 -0.0019453 0)
(8.33468 -0.0068603 0)
(8.33444 -0.0116211 0)
(8.33374 -0.0147898 0)
(8.33351 -0.0165491 0)
(8.33392 -0.0174917 0)
(8.33481 -0.0179465 0)
(8.33602 -0.018107 0)
(8.33744 -0.0181078 0)
(8.33901 -0.0180361 0)
(8.34067 -0.0179459 0)
(8.34237 -0.0178698 0)
(8.34408 -0.0178267 0)
(8.34579 -0.0178263 0)
(8.34748 -0.0178732 0)
(8.34913 -0.0179686 0)
(8.35074 -0.0181117 0)
(8.35231 -0.0183005 0)
(8.35382 -0.0185326 0)
(8.35528 -0.0188055 0)
(8.35668 -0.0191164 0)
(8.35802 -0.0194628 0)
(8.3593 -0.0198422 0)
(8.36051 -0.0202526 0)
(8.36167 -0.0206917 0)
(8.36277 -0.0211577 0)
(8.3638 -0.0216489 0)
(8.36477 -0.0221638 0)
(8.36568 -0.0227008 0)
(8.36652 -0.0232587 0)
(8.36731 -0.0238362 0)
(8.36803 -0.0244325 0)
(8.3687 -0.025046 0)
(8.33162 0.00370176 0)
(8.32827 0.0102678 0)
(8.32843 0.0134414 0)
(8.33099 0.0134036 0)
(8.33362 0.01137 0)
(8.33584 0.00854786 0)
(8.33782 0.00556799 0)
(8.33964 0.00267512 0)
(8.34134 -1.85912e-05 0)
(8.34295 -0.00246511 0)
(8.3445 -0.0046589 0)
(8.34601 -0.00661578 0)
(8.34748 -0.00835995 0)
(8.34893 -0.00991812 0)
(8.35036 -0.0113165 0)
(8.35177 -0.0125794 0)
(8.35315 -0.0137282 0)
(8.35451 -0.0147818 0)
(8.35584 -0.0157562 0)
(8.35715 -0.0166652 0)
(8.35841 -0.0175203 0)
(8.35964 -0.0183312 0)
(8.36083 -0.0191062 0)
(8.36198 -0.0198521 0)
(8.36308 -0.0205746 0)
(8.36413 -0.0212785 0)
(8.36514 -0.0219678 0)
(8.36609 -0.0226457 0)
(8.36699 -0.0233148 0)
(8.36784 -0.0239774 0)
(8.36863 -0.0246351 0)
(8.36937 -0.0252891 0)
(8.37005 -0.0259402 0)
(8.3343 -0.00642117 0)
(8.33463 -0.0206473 0)
(8.33075 -0.0298547 0)
(8.32676 -0.0338207 0)
(8.32484 -0.0346971 0)
(8.32494 -0.0341308 0)
(8.32614 -0.0329337 0)
(8.32789 -0.0315037 0)
(8.32998 -0.0300629 0)
(8.33227 -0.0287275 0)
(8.33467 -0.027549 0)
(8.3371 -0.0265435 0)
(8.33953 -0.0257095 0)
(8.34194 -0.0250362 0)
(8.3443 -0.024509 0)
(8.34661 -0.024112 0)
(8.34886 -0.0238297 0)
(8.35104 -0.0236479 0)
(8.35316 -0.0235537 0)
(8.3552 -0.0235359 0)
(8.35717 -0.0235846 0)
(8.35906 -0.0236913 0)
(8.36088 -0.0238488 0)
(8.36261 -0.0240508 0)
(8.36428 -0.0242919 0)
(8.36586 -0.0245678 0)
(8.36737 -0.0248744 0)
(8.3688 -0.0252084 0)
(8.37015 -0.025567 0)
(8.37143 -0.0259477 0)
(8.37263 -0.0263486 0)
(8.37376 -0.0267681 0)
(8.37482 -0.0272042 0)
(8.32884 0.0226026 0)
(8.32235 0.0427925 0)
(8.32669 0.0440342 0)
(8.33332 0.0380899 0)
(8.33786 0.0307531 0)
(8.34072 0.02362 0)
(8.34305 0.0170018 0)
(8.34526 0.0110731 0)
(8.34748 0.00588967 0)
(8.34978 0.00140368 0)
(8.35217 -0.00246502 0)
(8.35467 -0.00579822 0)
(8.35724 -0.00867353 0)
(8.35988 -0.0111613 0)
(8.36254 -0.0133229 0)
(8.36522 -0.0152104 0)
(8.3679 -0.0168681 0)
(8.37056 -0.018333 0)
(8.37317 -0.0196361 0)
(8.37574 -0.0208032 0)
(8.37825 -0.021856 0)
(8.38069 -0.0228125 0)
(8.38305 -0.0236878 0)
(8.38534 -0.0244945 0)
(8.38754 -0.0252432 0)
(8.38965 -0.0259429 0)
(8.39168 -0.0266009 0)
(8.39361 -0.0272237 0)
(8.39545 -0.0278166 0)
(8.3972 -0.0283842 0)
(8.39885 -0.0289305 0)
(8.40041 -0.0294583 0)
(8.40187 -0.029972 0)
(8.32436 -0.0380219 0)
(8.29386 -0.068296 0)
(8.27217 -0.0716527 0)
(8.26671 -0.0685354 0)
(8.27359 -0.0641664 0)
(8.2862 -0.0593258 0)
(8.30095 -0.0546347 0)
(8.31625 -0.0504512 0)
(8.33127 -0.0468357 0)
(8.34555 -0.0437625 0)
(8.35888 -0.0411863 0)
(8.37121 -0.039048 0)
(8.38254 -0.0372852 0)
(8.39292 -0.0358409 0)
(8.4024 -0.034665 0)
(8.41105 -0.0337141 0)
(8.41894 -0.0329518 0)
(8.42612 -0.0323472 0)
(8.43266 -0.031875 0)
(8.4386 -0.0315138 0)
(8.444 -0.0312462 0)
(8.4489 -0.0310576 0)
(8.45334 -0.0309359 0)
(8.45736 -0.0308712 0)
(8.46098 -0.030855 0)
(8.46424 -0.0308803 0)
(8.46716 -0.0309412 0)
(8.46977 -0.0310328 0)
(8.47209 -0.0311508 0)
(8.47414 -0.0312916 0)
(8.47594 -0.0314517 0)
(8.4775 -0.0316284 0)
(8.47886 -0.0318179 0)
(8.34002 0.156992 0)
(8.382 0.149003 0)
(8.40251 0.103392 0)
(8.39945 0.0645142 0)