/*--------------------------------*- C++ -*----------------------------------*\
| =========                 |                                                 |
| \\      /  F ield         | OpenFOAM: The Open Source CFD Toolbox           |
|  \\    /   O peration     | Version:  2.1.1                                 |
|   \\  /    A nd           | Web:      www.OpenFOAM.org                      |
|    \\/     M anipulation  |                                                 |
\*---------------------------------------------------------------------------*/
FoamFile
{
    version     2.0;
    format      ascii;
    class       volScalarField;
    location    "0.015";
    object      nuSgs;
}
// * * * * * * * * * * * * * * * * * * * * * * * * * * * * * * * * * * * * * //

dimensions      [0 2 -1 0 0 0 0];

internalField   nonuniform List<scalar> 
6820
(
0.000556013
0.000457494
0.000368414
0.000306661
0.000269778
0.000244526
0.000226092
0.000212151
0.000201049
0.000191883
0.000184144
0.000177505
0.000171748
0.000166723
0.000162316
0.000158451
0.00015507
0.000152119
0.000149564
0.000147384
0.000145556
0.000144065
0.000142895
0.000142034
0.000141468
0.000141189
0.000141192
0.000141481
0.000142066
0.000143002
0.000144315
0.000145955
0.000146831
0.000103469
0.000170588
0.000223535
0.000239921
0.000235239
0.000224991
0.000213448
0.00020235
0.000192336
0.000183424
0.000175496
0.000168419
0.000162072
0.000156354
0.000151177
0.000146479
0.000142204
0.000138302
0.000134744
0.000131489
0.0001285
0.000125743
0.000123188
0.000120806
0.000118569
0.000116453
0.000114435
0.000112485
0.000110595
0.000108656
0.000106798
0.000104292
0.000102509
3.67778e-05
2.85068e-05
4.54563e-05
8.19553e-05
0.000107427
0.000122869
0.000131163
0.0001349
0.000135903
0.000135242
0.000133555
0.000131238
0.000128538
0.000125612
0.000122567
0.000119471
0.000116358
0.000113258
0.000110175
0.000107112
0.000104074
0.00010106
9.80697e-05
9.5098e-05
9.21399e-05
8.91876e-05
8.62307e-05
8.32511e-05
8.02272e-05
7.70974e-05
7.38242e-05
7.01413e-05
6.60758e-05
2.07346e-05
2.8715e-05
2.66402e-05
1.5279e-05
3.73498e-06
1.32354e-05
2.47419e-05
3.42066e-05
4.17267e-05
4.75769e-05
5.20327e-05
5.53379e-05
5.7693e-05
5.92607e-05
6.01706e-05
6.05274e-05
6.04212e-05
5.99217e-05
5.90657e-05
5.78999e-05
5.64661e-05
5.48007e-05
5.29359e-05
5.08998e-05
4.8717e-05
4.64071e-05
4.39842e-05
4.14536e-05
3.8815e-05
3.60466e-05
3.31333e-05
3.00452e-05
2.68377e-05
1.441e-05
1.76229e-05
2.26413e-05
2.43339e-05
2.4033e-05
2.213e-05
1.93742e-05
1.63114e-05
1.31791e-05
1.013e-05
7.27324e-06
4.67995e-06
2.41361e-06
7.8361e-07
1.57658e-06
2.86672e-06
3.90889e-06
4.67175e-06
5.19617e-06
5.50138e-06
5.60511e-06
5.52656e-06
5.28475e-06
4.89871e-06
4.38721e-06
3.76807e-06
3.05901e-06
2.27948e-06
1.47086e-06
8.23461e-07
1.06432e-06
1.95646e-06
2.94228e-06
1.09047e-05
1.25385e-05
1.38827e-05
1.43818e-05
1.514e-05
1.57448e-05
1.60875e-05
1.62665e-05
1.6291e-05
1.61708e-05
1.59337e-05
1.56077e-05
1.52186e-05
1.47908e-05
1.43427e-05
1.38905e-05
1.34473e-05
1.30233e-05
1.26202e-05
1.22415e-05
1.18866e-05
1.15547e-05
1.12455e-05
1.09591e-05
1.0696e-05
1.04575e-05
1.02456e-05
1.0063e-05
9.90984e-06
9.78474e-06
9.67253e-06
9.54429e-06
9.34968e-06
8.22268e-06
9.46453e-06
1.03171e-05
1.013e-05
9.94489e-06
9.76246e-06
9.56551e-06
9.45626e-06
9.42334e-06
9.42205e-06
9.42506e-06
9.41424e-06
9.37783e-06
9.31021e-06
9.21113e-06
9.08109e-06
8.92205e-06
8.73576e-06
8.53782e-06
8.33055e-06
8.1176e-06
7.90193e-06
7.68595e-06
7.47271e-06
7.26614e-06
7.07085e-06
6.89148e-06
6.73205e-06
6.59358e-06
6.47325e-06
6.35912e-06
6.2277e-06
6.04785e-06
6.33241e-06
7.44009e-06
8.28497e-06
8.16875e-06
7.87355e-06
7.54811e-06
7.18481e-06
6.87516e-06
6.6374e-06
6.44981e-06
6.29863e-06
6.17419e-06
6.06734e-06
5.97114e-06
5.88087e-06
5.79381e-06
5.70791e-06
5.62285e-06
5.53736e-06
5.45144e-06
5.36626e-06
5.28279e-06
5.20229e-06
5.1268e-06
5.05889e-06
5.00137e-06
4.95659e-06
4.92571e-06
4.90705e-06
4.8951e-06
4.87874e-06
4.83969e-06
4.75989e-06
4.96569e-06
5.8832e-06
6.60832e-06
6.62631e-06
6.47651e-06
6.28632e-06
6.02203e-06
5.75702e-06
5.53017e-06
5.33767e-06
5.17449e-06
5.03696e-06
4.91998e-06
4.81907e-06
4.73115e-06
4.65377e-06
4.58554e-06
4.52429e-06
4.4684e-06
4.41658e-06
4.3685e-06
4.32446e-06
4.28523e-06
4.25206e-06
4.22649e-06
4.20994e-06
4.20313e-06
4.20549e-06
4.21428e-06
4.22385e-06
4.22538e-06
4.20591e-06
4.15538e-06
3.95411e-06
4.7241e-06
5.37145e-06
5.4709e-06
5.38987e-06
5.26123e-06
5.06495e-06
4.85735e-06
4.67686e-06
4.52281e-06
4.39064e-06
4.27807e-06
4.18195e-06
4.09921e-06
4.02765e-06
3.96568e-06
3.91205e-06
3.86553e-06
3.82468e-06
3.78855e-06
3.75711e-06
3.73084e-06
3.7103e-06
3.69623e-06
3.68939e-06
3.6903e-06
3.69881e-06
3.71362e-06
3.73187e-06
3.74866e-06
3.7576e-06
3.75028e-06
3.72237e-06
3.18901e-06
3.84334e-06
4.4225e-06
4.56661e-06
4.53706e-06
4.46023e-06
4.32288e-06
4.16308e-06
4.01623e-06
3.88697e-06
3.77399e-06
3.67723e-06
3.5953e-06
3.52603e-06
3.46765e-06
3.41878e-06
3.37824e-06
3.34505e-06
3.31829e-06
3.29729e-06
3.28186e-06
3.27206e-06
3.26806e-06
3.27019e-06
3.27873e-06
3.29369e-06
3.31445e-06
3.33952e-06
3.36631e-06
3.39107e-06
3.40946e-06
3.4164e-06
3.41084e-06
2.59735e-06
3.1596e-06
3.68718e-06
3.86863e-06
3.88697e-06
3.85078e-06
3.75501e-06
3.62913e-06
3.50691e-06
3.39712e-06
3.30046e-06
3.21771e-06
3.14832e-06
3.09077e-06
3.04367e-06
3.00587e-06
2.97639e-06
2.95435e-06
2.93894e-06
2.9295e-06
2.92575e-06
2.92766e-06
2.93532e-06
2.94881e-06
2.96811e-06
2.99287e-06
3.02227e-06
3.05485e-06
3.08852e-06
3.12052e-06
3.1481e-06
3.16836e-06
3.18228e-06
2.12955e-06
2.62089e-06
3.10922e-06
3.31665e-06
3.37162e-06
3.3671e-06
3.30625e-06
3.21236e-06
3.115e-06
3.02451e-06
2.94305e-06
2.87233e-06
2.81291e-06
2.76416e-06
2.72525e-06
2.69535e-06
2.67372e-06
2.65963e-06
2.65239e-06
2.65148e-06
2.65659e-06
2.66757e-06
2.68424e-06
2.70644e-06
2.73385e-06
2.76593e-06
2.8018e-06
2.84019e-06
2.87946e-06
2.91776e-06
2.95343e-06
2.98494e-06
3.01419e-06
1.75207e-06
2.18989e-06
2.64789e-06
2.8748e-06
2.9608e-06
2.98379e-06
2.95184e-06
2.88416e-06
2.80671e-06
2.73124e-06
2.66157e-06
2.60035e-06
2.54888e-06
2.50721e-06
2.47485e-06
2.45128e-06
2.43588e-06
2.42804e-06
2.42717e-06
2.43275e-06
2.44442e-06
2.46189e-06
2.48487e-06
2.51306e-06
2.54606e-06
2.58325e-06
2.62383e-06
2.66675e-06
2.71078e-06
2.7547e-06
2.79757e-06
2.83857e-06
2.88003e-06
1.4415e-06
1.84057e-06
2.27559e-06
2.5173e-06
2.62826e-06
2.67336e-06
2.66424e-06
2.61812e-06
2.55792e-06
2.4959e-06
2.43693e-06
2.38416e-06
2.33949e-06
2.30349e-06
2.27611e-06
2.25712e-06
2.24614e-06
2.2427e-06
2.24633e-06
2.25657e-06
2.27305e-06
2.2954e-06
2.32327e-06
2.35621e-06
2.39372e-06
2.43514e-06
2.47972e-06
2.52659e-06
2.57483e-06
2.62363e-06
2.67247e-06
2.72089e-06
2.77124e-06
1.18129e-06
1.55442e-06
1.97239e-06
2.22531e-06
2.35648e-06
2.4201e-06
2.42986e-06
2.40168e-06
2.35586e-06
2.30464e-06
2.2538e-06
2.20714e-06
2.1671e-06
2.13479e-06
2.11062e-06
2.09462e-06
2.0866e-06
2.08624e-06
2.09313e-06
2.10683e-06
2.12693e-06
2.15299e-06
2.18455e-06
2.22111e-06
2.2621e-06
2.3069e-06
2.3548e-06
2.40508e-06
2.45707e-06
2.51019e-06
2.56415e-06
2.61856e-06
2.67567e-06
9.59605e-07
1.31825e-06
1.72423e-06
1.98571e-06
2.13305e-06
2.21176e-06
2.23653e-06
2.22253e-06
2.18809e-06
2.14533e-06
2.10075e-06
2.05864e-06
2.02188e-06
1.99204e-06
1.96987e-06
1.95568e-06
1.94947e-06
1.95106e-06
1.96013e-06
1.97628e-06
1.99907e-06
2.02803e-06
2.06263e-06
2.1023e-06
2.14642e-06
2.19434e-06
2.24539e-06
2.29892e-06
2.35437e-06
2.41127e-06
2.46939e-06
2.52834e-06
2.59011e-06
7.68008e-07
1.1229e-06
1.52113e-06
1.78903e-06
1.94905e-06
2.03986e-06
2.07651e-06
2.07365e-06
2.04804e-06
2.01153e-06
1.97114e-06
1.93159e-06
1.89621e-06
1.86702e-06
1.84516e-06
1.83124e-06
1.82549e-06
1.82787e-06
1.83815e-06
1.85593e-06
1.88077e-06
1.91209e-06
1.94931e-06
1.99177e-06
2.03877e-06
2.08965e-06
2.14373e-06
2.2004e-06
2.25913e-06
2.3195e-06
2.38127e-06
2.44393e-06
2.50924e-06
6.00956e-07
9.62552e-07
1.3563e-06
1.62869e-06
1.79833e-06
1.89854e-06
1.94418e-06
1.94949e-06
1.93005e-06
1.89742e-06
1.85901e-06
1.82005e-06
1.78425e-06
1.75409e-06
1.73109e-06
1.71616e-06
1.70977e-06
1.71203e-06
1.72277e-06
1.74163e-06
1.7681e-06
1.80157e-06
1.84131e-06
1.88658e-06
1.9366e-06
1.99061e-06
2.04789e-06
2.10782e-06
2.16983e-06
2.23346e-06
2.2984e-06
2.36403e-06
2.4318e-06
4.55937e-07
8.33986e-07
1.22506e-06
1.50011e-06
1.67658e-06
1.78367e-06
1.83571e-06
1.84655e-06
1.8308e-06
1.79978e-06
1.76122e-06
1.72074e-06
1.68252e-06
1.64946e-06
1.62351e-06
1.60595e-06
1.59752e-06
1.59851e-06
1.60886e-06
1.62823e-06
1.65603e-06
1.69152e-06
1.73387e-06
1.78215e-06
1.83547e-06
1.89295e-06
1.95377e-06
2.01723e-06
2.0827e-06
2.14966e-06
2.2177e-06
2.28607e-06
2.35601e-06
3.36316e-07
7.37137e-07
1.12499e-06
1.40046e-06
1.5811e-06
1.69267e-06
1.74871e-06
1.76252e-06
1.74799e-06
1.71618e-06
1.67508e-06
1.63074e-06
1.58779e-06
1.54964e-06
1.51873e-06
1.49677e-06
1.48485e-06
1.48351e-06
1.49278e-06
1.51233e-06
1.54146e-06
1.57926e-06
1.62467e-06
1.67657e-06
1.73384e-06
1.79543e-06
1.86039e-06
1.92788e-06
1.99719e-06
2.06767e-06
2.13881e-06
2.20977e-06
2.28148e-06
2.56675e-07
6.73508e-07
1.05469e-06
1.328e-06
1.51025e-06
1.62404e-06
1.68184e-06
1.69632e-06
1.68074e-06
1.6459e-06
1.60001e-06
1.54948e-06
1.49941e-06
1.45375e-06
1.41552e-06
1.38696e-06
1.36965e-06
1.36445e-06
1.37161e-06
1.39078e-06
1.42113e-06
1.46151e-06
1.51055e-06
1.56681e-06
1.62887e-06
1.69544e-06
1.76535e-06
1.83762e-06
1.91138e-06
1.98589e-06
2.06054e-06
2.13437e-06
2.20819e-06
2.4636e-07
6.45432e-07
1.01362e-06
1.2818e-06
1.46322e-06
1.5771e-06
1.63451e-06
1.64738e-06
1.62835e-06
1.58796e-06
1.53455e-06
1.47494e-06
1.41473e-06
1.35847e-06
1.30992e-06
1.27206e-06
1.24714e-06
1.23657e-06
1.24087e-06
1.2597e-06
1.29199e-06
1.33614e-06
1.39028e-06
1.45248e-06
1.5209e-06
1.59387e-06
1.66998e-06
1.74803e-06
1.82703e-06
1.90611e-06
1.98458e-06
2.06142e-06
2.13724e-06
3.09676e-07
6.55098e-07
1.00281e-06
1.26251e-06
1.44063e-06
1.55269e-06
1.60804e-06
1.61771e-06
1.59364e-06
1.54608e-06
1.48339e-06
1.41256e-06
1.3396e-06
1.26965e-06
1.20721e-06
1.15624e-06
1.12e-06
1.10086e-06
1.09996e-06
1.11715e-06
1.15106e-06
1.19949e-06
1.25977e-06
1.32925e-06
1.40546e-06
1.48626e-06
1.56989e-06
1.65493e-06
1.74024e-06
1.82483e-06
1.90797e-06
1.98858e-06
2.0673e-06
4.17084e-07
7.00962e-07
1.0221e-06
1.27031e-06
1.44285e-06
1.55101e-06
1.60211e-06
1.60608e-06
1.57421e-06
1.51644e-06
1.44109e-06
1.3554e-06
1.26572e-06
1.17777e-06
1.09696e-06
1.02847e-06
9.77145e-07
9.46945e-07
9.40227e-07
9.57137e-07
9.95649e-07
1.05224e-06
1.12284e-06
1.20353e-06
1.29094e-06
1.38236e-06
1.47567e-06
1.56926e-06
1.66191e-06
1.7526e-06
1.84061e-06
1.92493e-06
2.00601e-06
5.48723e-07
7.80107e-07
1.07218e-06
1.30689e-06
1.47263e-06
1.57653e-06
1.62372e-06
1.62286e-06
1.58438e-06
1.51762e-06
1.43052e-06
1.33006e-06
1.22249e-06
1.11366e-06
1.00939e-06
9.15951e-07
8.40191e-07
7.89058e-07
7.68095e-07
7.79348e-07
8.20375e-07
8.85472e-07
9.67961e-07
1.06186e-06
1.16245e-06
1.26629e-06
1.37088e-06
1.47446e-06
1.57577e-06
1.6738e-06
1.76793e-06
1.85712e-06
1.94218e-06
6.99969e-07
8.91014e-07
1.15485e-06
1.37451e-06
1.53103e-06
1.62745e-06
1.66658e-06
1.65601e-06
1.60575e-06
1.52493e-06
1.42136e-06
1.3019e-06
1.17258e-06
1.039e-06
9.06858e-07
7.82864e-07
6.7584e-07
5.97526e-07
5.60814e-07
5.72917e-07
6.29158e-07
7.16811e-07
8.23253e-07
9.39417e-07
1.05948e-06
1.1798e-06
1.29803e-06
1.41266e-06
1.5227e-06
1.62742e-06
1.72637e-06
1.81888e-06
1.90548e-06
8.71704e-07
1.03205e-06
1.27083e-06
1.47702e-06
1.6276e-06
1.7223e-06
1.76121e-06
1.74998e-06
1.6973e-06
1.61135e-06
1.49927e-06
1.36745e-06
1.22143e-06
1.06608e-06
9.05944e-07
7.45841e-07
5.92236e-07
4.56357e-07
3.60836e-07
3.40174e-07
4.02725e-07
5.15338e-07
6.48644e-07
7.88505e-07
9.2849e-07
1.06539e-06
1.19745e-06
1.32361e-06
1.44326e-06
1.5559e-06
1.66137e-06
1.75896e-06
1.85004e-06
1.07018e-06
1.2099e-06
1.42857e-06
1.61912e-06
1.75578e-06
1.83646e-06
1.86047e-06
1.83387e-06
1.76603e-06
1.66538e-06
1.53892e-06
1.39264e-06
1.23149e-06
1.05949e-06
8.79891e-07
6.95423e-07
5.0846e-07
3.21423e-07
1.39395e-07
7.71302e-08
2.44728e-07
4.20191e-07
5.91472e-07
7.56642e-07
9.14652e-07
1.06476e-06
1.20643e-06
1.33931e-06
1.4632e-06
1.57801e-06
1.68376e-06
1.78042e-06
1.86854e-06
1.30014e-06
1.42115e-06
1.6254e-06
1.81357e-06
1.9596e-06
2.05649e-06
2.09731e-06
2.08417e-06
2.02485e-06
1.92755e-06
1.79989e-06
1.64888e-06
1.48068e-06
1.30047e-06
1.11268e-06
9.21326e-07
7.30585e-07
5.46192e-07
3.79935e-07
2.65765e-07
2.71221e-07
3.84191e-07
5.34525e-07
6.92652e-07
8.49069e-07
1.00002e-06
1.14369e-06
1.2791e-06
1.40573e-06
1.52321e-06
1.63151e-06
1.73007e-06
1.82073e-06
1.58273e-06
1.70228e-06
1.8948e-06
2.05582e-06
2.16584e-06
2.22693e-06
2.23832e-06
2.20539e-06
2.13628e-06
2.03758e-06
1.91472e-06
1.77294e-06
1.61729e-06
1.45274e-06
1.28446e-06
1.11835e-06
9.61917e-07
8.254e-07
7.22874e-07
6.70385e-07
6.77616e-07
7.39169e-07
8.38634e-07
9.59354e-07
1.08929e-06
1.22074e-06
1.34888e-06
1.47077e-06
1.58461e-06
1.68945e-06
1.78471e-06
1.87062e-06
1.94686e-06
1.91018e-06
2.0068e-06
2.21229e-06
2.42683e-06
2.60969e-06
2.73732e-06
2.79413e-06
2.78408e-06
2.72046e-06
2.61599e-06
2.48151e-06
2.32648e-06
2.15882e-06
1.98511e-06
1.81111e-06
1.6423e-06
1.48434e-06
1.34337e-06
1.22612e-06
1.13931e-06
1.0883e-06
1.07509e-06
1.09715e-06
1.14818e-06
1.22018e-06
1.3055e-06
1.39777e-06
1.4922e-06
1.58524e-06
1.6744e-06
1.75798e-06
1.83459e-06
1.90534e-06
2.37815e-06
2.51014e-06
2.66596e-06
2.75817e-06
2.82011e-06
2.87416e-06
2.91026e-06
2.91961e-06
2.89952e-06
2.84897e-06
2.7696e-06
2.66605e-06
2.54448e-06
2.41146e-06
2.27365e-06
2.13765e-06
2.00981e-06
1.89616e-06
1.80215e-06
1.73224e-06
1.68927e-06
1.67391e-06
1.68439e-06
1.71679e-06
1.76587e-06
1.82594e-06
1.89172e-06
1.9588e-06
2.02372e-06
2.08426e-06
2.13857e-06
2.18695e-06
2.22693e-06
2.84068e-06
2.92844e-06
3.28339e-06
3.66019e-06
3.93569e-06
4.08758e-06
4.12544e-06
4.08061e-06
3.98352e-06
3.85306e-06
3.70109e-06
3.53621e-06
3.36472e-06
3.19142e-06
3.0205e-06
2.85588e-06
2.70124e-06
2.56002e-06
2.43516e-06
2.32892e-06
2.24258e-06
2.17629e-06
2.12919e-06
2.09972e-06
2.08593e-06
2.08547e-06
2.0957e-06
2.1138e-06
2.13676e-06
2.16189e-06
2.18676e-06
2.21009e-06
2.23187e-06
3.86931e-06
3.95694e-06
3.84017e-06
3.73448e-06
3.81499e-06
4.01182e-06
4.19723e-06
4.31828e-06
4.37049e-06
4.36331e-06
4.31289e-06
4.23666e-06
4.14827e-06
4.05658e-06
3.96661e-06
3.88046e-06
3.79836e-06
3.71968e-06
3.64365e-06
3.56986e-06
3.49842e-06
3.42989e-06
3.36497e-06
3.30413e-06
3.24734e-06
3.19423e-06
3.14405e-06
3.0956e-06
3.04758e-06
3.00008e-06
2.95194e-06
2.90485e-06
2.85331e-06
4.31903e-06
4.88768e-06
5.85467e-06
6.32162e-06
6.42226e-06
6.39114e-06
6.38192e-06
6.49421e-06
6.74896e-06
7.10495e-06
7.50554e-06
7.90248e-06
8.26074e-06
8.55805e-06
8.78268e-06
8.93037e-06
9.0017e-06
9.00019e-06
8.93081e-06
8.799e-06
8.61024e-06
8.36956e-06
8.08262e-06
7.75847e-06
7.40889e-06
7.04498e-06
6.67702e-06
6.31394e-06
5.96166e-06
5.62486e-06
5.30507e-06
5.00882e-06
4.73058e-06
7.50275e-06
5.76311e-06
4.58998e-06
6.22396e-06
8.96248e-06
1.16575e-05
1.39601e-05
1.5816e-05
1.72315e-05
1.8229e-05
1.88537e-05
1.91611e-05
1.92077e-05
1.90478e-05
1.87317e-05
1.83031e-05
1.77985e-05
1.7247e-05
1.667e-05
1.60821e-05
1.54923e-05
1.4905e-05
1.43212e-05
1.3741e-05
1.31628e-05
1.25869e-05
1.20186e-05
1.145e-05
1.08794e-05
1.0317e-05
9.7671e-06
9.23154e-06
8.69885e-06
8.55601e-06
1.47135e-05
1.88115e-05
2.12166e-05
2.23278e-05
2.19046e-05
2.01219e-05
1.74146e-05
1.41896e-05
1.08958e-05
8.17114e-06
6.96723e-06
7.80408e-06
9.85402e-06
1.22032e-05
1.44313e-05
1.63758e-05
1.79802e-05
1.92375e-05
2.01674e-05
2.08083e-05
2.1212e-05
2.14443e-05
2.15422e-05
2.15111e-05
2.1379e-05
2.11721e-05
2.09025e-05
2.05828e-05
2.02471e-05
1.99153e-05
1.96472e-05
1.94109e-05
3.45548e-05
3.70972e-05
4.64276e-05
6.13675e-05
7.6811e-05
9.18588e-05
0.000105807
0.00011795
0.000128101
0.000136311
0.000142695
0.000147425
0.000150694
0.000152692
0.000153599
0.000153581
0.000152782
0.000151329
0.000149333
0.000146889
0.000144079
0.000140976
0.000137631
0.000134119
0.000130519
0.000126879
0.00012325
0.000119663
0.000116145
0.000112736
0.000109441
0.000106353
0.000103397
0.000608382
0.000582445
0.000556849
0.000530457
0.000504588
0.000479576
0.000455481
0.000432588
0.000411089
0.000391052
0.000372496
0.00035541
0.000339746
0.000325433
0.000312387
0.000300514
0.000289718
0.0002799
0.000270959
0.000262801
0.00025533
0.000248484
0.000242239
0.000236554
0.000231312
0.000226365
0.00022162
0.00021702
0.000212493
0.000207996
0.00020341
0.000199286
0.000195485
0.00012966
0.000131751
0.00013626
0.00013069
0.000122071
0.000110607
9.83492e-05
8.67524e-05
7.68156e-05
6.91909e-05
6.23499e-05
5.08512e-05
2.88353e-05
3.4759e-06
2.59164e-05
3.64783e-05
3.55137e-05
3.06676e-05
2.64694e-05
2.33417e-05
2.07328e-05
1.84302e-05
1.6408e-05
1.46481e-05
1.31202e-05
1.17932e-05
1.06389e-05
9.63153e-06
8.7487e-06
7.97038e-06
7.27797e-06
6.65418e-06
6.08465e-06
5.55958e-06
5.07405e-06
4.6264e-06
4.21585e-06
3.84095e-06
3.49924e-06
3.18771e-06
2.90341e-06
2.64374e-06
2.40648e-06
2.18966e-06
1.99153e-06
1.81048e-06
1.64504e-06
1.49391e-06
1.35591e-06
1.23e-06
1.11523e-06
1.01073e-06
9.15675e-07
8.29276e-07
7.50791e-07
6.79515e-07
6.14791e-07
5.5603e-07
5.02698e-07
4.54319e-07
4.10475e-07
3.70787e-07
3.34922e-07
3.02585e-07
2.73517e-07
2.47497e-07
2.24306e-07
2.03763e-07
1.85693e-07
1.69913e-07
1.56233e-07
1.44461e-07
1.34401e-07
1.25866e-07
1.18703e-07
1.12764e-07
1.07914e-07
1.04008e-07
1.00908e-07
9.84864e-08
9.66261e-08
9.52269e-08
9.4206e-08
9.34981e-08
9.30553e-08
9.28347e-08
9.27975e-08
9.28824e-08
9.30514e-08
9.32311e-08
9.34927e-08
9.37008e-08
9.42409e-08
9.44556e-08
9.58289e-08
9.54069e-08
9.91016e-08
9.47693e-08
1.06244e-07
9.31111e-08
0.000128006
0.000122457
0.000120796
0.000118462
0.000114947
0.000110135
0.000103465
9.44018e-05
8.26693e-05
6.77186e-05
4.80595e-05
2.26025e-05
5.49769e-06
2.71023e-05
3.65634e-05
3.59914e-05
3.1763e-05
2.79014e-05
2.49221e-05
2.23599e-05
2.00363e-05
1.79479e-05
1.60908e-05
1.44482e-05
1.30023e-05
1.17337e-05
1.06207e-05
9.64197e-06
8.7785e-06
8.01311e-06
7.32938e-06
6.71154e-06
6.14603e-06
5.62338e-06
5.13882e-06
4.69083e-06
4.27893e-06
3.90199e-06
3.5578e-06
3.24353e-06
2.95632e-06
2.69363e-06
2.45328e-06
2.23337e-06
2.03222e-06
1.84828e-06
1.68016e-06
1.52656e-06
1.3863e-06
1.25827e-06
1.14147e-06
1.03499e-06
9.37991e-07
8.49722e-07
7.69483e-07
6.96624e-07
6.3054e-07
5.70675e-07
5.16506e-07
4.67552e-07
4.23372e-07
3.83555e-07
3.47732e-07
3.15562e-07
2.86734e-07
2.60963e-07
2.37975e-07
2.17532e-07
1.99418e-07
1.8342e-07
1.69343e-07
1.57005e-07
1.46243e-07
1.36903e-07
1.28852e-07
1.21947e-07
1.16053e-07
1.11043e-07
1.06803e-07
1.03243e-07
1.00279e-07
9.78098e-08
9.57474e-08
9.40063e-08
9.25477e-08
9.13454e-08
9.04103e-08
8.97187e-08
8.92404e-08
8.88835e-08
8.86598e-08
8.83528e-08
8.82964e-08
8.77677e-08
8.83218e-08
8.67806e-08
8.96448e-08
8.34537e-08
9.44229e-08
7.83125e-08
8.22881e-05
7.91209e-05
7.6763e-05
7.33426e-05
6.89581e-05
6.35978e-05
5.6951e-05
4.83464e-05
3.69915e-05
2.25903e-05
8.36021e-06
1.682e-05
2.98151e-05
3.56211e-05
3.49871e-05
3.17232e-05
2.85481e-05
2.59468e-05
2.36074e-05
2.13993e-05
1.9347e-05
1.74707e-05
1.57699e-05
1.42411e-05
1.28785e-05
1.16701e-05
1.05999e-05
9.65097e-06
8.80803e-06
8.0566e-06
7.38234e-06
6.77098e-06
6.20983e-06
5.68985e-06
5.20638e-06
4.75813e-06
4.34489e-06
3.96585e-06
3.61908e-06
3.30192e-06
3.01164e-06
2.74578e-06
2.50224e-06
2.27914e-06
2.07481e-06
1.88775e-06
1.71658e-06
1.56003e-06
1.41696e-06
1.2863e-06
1.16706e-06
1.05833e-06
9.59266e-07
8.69088e-07
7.87079e-07
7.12582e-07
6.44993e-07
5.83752e-07
5.28345e-07
4.78296e-07
4.33162e-07
3.92534e-07
3.56038e-07
3.23326e-07
2.94076e-07
2.67986e-07
2.44765e-07
2.24146e-07
2.05886e-07
1.89748e-07
1.7553e-07
1.63058e-07
1.5218e-07
1.42753e-07
1.34623e-07
1.27636e-07
1.21642e-07
1.16522e-07
1.12161e-07
1.0846e-07
1.05331e-07
1.02687e-07
1.00462e-07
9.85975e-08
9.70541e-08
9.57865e-08
9.47611e-08
9.39246e-08
9.32487e-08
9.2668e-08
9.22368e-08
9.17772e-08
9.16261e-08
9.10362e-08
9.15113e-08
8.98122e-08
9.24046e-08
8.57606e-08
9.61011e-08
7.93719e-08
3.14629e-05
2.82737e-05
2.57755e-05
2.30347e-05
1.98507e-05
1.62257e-05
1.24466e-05
9.97429e-06
1.19689e-05
1.81864e-05
2.54794e-05
3.10816e-05
3.32986e-05
3.24775e-05
3.0312e-05
2.81371e-05
2.61965e-05
2.42888e-05
2.23514e-05
2.04543e-05
1.86568e-05
1.69795e-05
1.54302e-05
1.40158e-05
1.27382e-05
1.15921e-05
1.05669e-05
9.6502e-06
8.82993e-06
8.09423e-06
7.43085e-06
6.82707e-06
6.27119e-06
5.7546e-06
5.27285e-06
4.82483e-06
4.41064e-06
4.02981e-06
3.68069e-06
3.36082e-06
3.06759e-06
2.79864e-06
2.55194e-06
2.32568e-06
2.11824e-06
1.92812e-06
1.75398e-06
1.59454e-06
1.44869e-06
1.31535e-06
1.19357e-06
1.08243e-06
9.81114e-07
8.8884e-07
8.04891e-07
7.28605e-07
6.59373e-07
5.96628e-07
5.39848e-07
4.88548e-07
4.42278e-07
4.0062e-07
3.63192e-07
3.29636e-07
2.99626e-07
2.72862e-07
2.49057e-07
2.27949e-07
2.09295e-07
1.92863e-07
1.78441e-07
1.65834e-07
1.5486e-07
1.45346e-07
1.37129e-07
1.30059e-07
1.23999e-07
1.18828e-07
1.14434e-07
1.10714e-07
1.07571e-07
1.04924e-07
1.02704e-07
1.00852e-07
9.93167e-08
9.80488e-08
9.70071e-08
9.6146e-08
9.54525e-08
9.48658e-08
9.44457e-08
9.40053e-08
9.38788e-08
9.32844e-08
9.37452e-08
9.19616e-08
9.44999e-08
8.76441e-08
9.80102e-08
8.09327e-08
5.1814e-06
6.0612e-06
6.04765e-06
6.08652e-06
7.29417e-06
9.92565e-06
1.34777e-05
1.74073e-05
2.12599e-05
2.46108e-05
2.70068e-05
2.8135e-05
2.81266e-05
2.75062e-05
2.66681e-05
2.56323e-05
2.4318e-05
2.27788e-05
2.11506e-05
1.95344e-05
1.79727e-05
1.64824e-05
1.50784e-05
1.37756e-05
1.25826e-05
1.14999e-05
1.05215e-05
9.639e-06
8.84323e-06
8.12486e-06
7.47368e-06
6.87856e-06
6.32882e-06
5.81637e-06
5.33699e-06
4.88975e-06
4.47507e-06
4.09281e-06
3.74165e-06
3.41932e-06
3.12334e-06
2.85145e-06
2.6017e-06
2.37235e-06
2.16182e-06
1.96867e-06
1.79156e-06
1.62926e-06
1.48065e-06
1.34468e-06
1.2204e-06
1.1069e-06
1.00336e-06
9.08996e-07
8.231e-07
7.45007e-07
6.74103e-07
6.09819e-07
5.51628e-07
4.9904e-07
4.516e-07
4.08887e-07
3.7051e-07
3.36109e-07
3.05349e-07
2.77923e-07
2.53538e-07
2.31927e-07
2.12842e-07
1.96051e-07
1.81336e-07
1.68495e-07
1.57339e-07
1.47688e-07
1.39374e-07
1.32241e-07
1.26146e-07
1.20959e-07
1.16564e-07
1.12854e-07
1.09735e-07
1.07123e-07
1.04942e-07
1.03128e-07
1.01625e-07
1.00383e-07
9.93659e-08
9.85325e-08
9.78714e-08
9.73175e-08
9.69286e-08
9.65065e-08
9.63923e-08
9.57842e-08
9.62395e-08
9.43979e-08
9.69385e-08
8.99245e-08
1.00431e-07
8.29943e-08
1.1961e-05
1.1234e-05
1.00363e-05
9.10351e-06
9.18184e-06
1.04755e-05
1.26231e-05
1.51509e-05
1.76996e-05
2.00049e-05
2.18748e-05
2.32343e-05
2.41041e-05
2.44783e-05
2.43122e-05
2.36344e-05
2.2585e-05
2.13339e-05
2.00013e-05
1.86472e-05
1.73004e-05
1.59826e-05
1.47163e-05
1.3522e-05
1.24132e-05
1.13946e-05
1.04645e-05
9.61783e-06
8.84824e-06
8.14872e-06
7.51103e-06
6.92564e-06
6.38293e-06
5.87537e-06
5.399e-06
4.9531e-06
4.53838e-06
4.15507e-06
3.80216e-06
3.4776e-06
3.17906e-06
2.90438e-06
2.65168e-06
2.41931e-06
2.20576e-06
2.0096e-06
1.82953e-06
1.66435e-06
1.51295e-06
1.37433e-06
1.24751e-06
1.13162e-06
1.02582e-06
9.29344e-07
8.41478e-07
7.61557e-07
6.88963e-07
6.23124e-07
5.63506e-07
5.09612e-07
4.60984e-07
4.17194e-07
3.77849e-07
3.4258e-07
3.1105e-07
2.82943e-07
2.57962e-07
2.35834e-07
2.16306e-07
1.99138e-07
1.84111e-07
1.71017e-07
1.59663e-07
1.49862e-07
1.41441e-07
1.34235e-07
1.28098e-07
1.22895e-07
1.18506e-07
1.14815e-07
1.11722e-07
1.09137e-07
1.06985e-07
1.05204e-07
1.03739e-07
1.02537e-07
1.01558e-07
1.00756e-07
1.00118e-07
9.95798e-08
9.92033e-08
9.87863e-08
9.86797e-08
9.80597e-08
9.85147e-08
9.66164e-08
9.91604e-08
9.19705e-08
1.0261e-07
8.47853e-08
7.67141e-06
7.178e-06
6.47411e-06
6.10968e-06
6.62463e-06
8.05586e-06
1.00962e-05
1.24342e-05
1.48253e-05
1.70828e-05
1.90697e-05
2.0665e-05
2.17512e-05
2.226e-05
2.22188e-05
2.17398e-05
2.09612e-05
1.99977e-05
1.89274e-05
1.77985e-05
1.6642e-05
1.54831e-05
1.43472e-05
1.32578e-05
1.22318e-05
1.12776e-05
1.03967e-05
9.58724e-06
8.84526e-06
8.16595e-06
7.54295e-06
6.96827e-06
6.43342e-06
5.93146e-06
5.45873e-06
5.01471e-06
4.60041e-06
4.21643e-06
3.86207e-06
3.53553e-06
3.23464e-06
2.95731e-06
2.70178e-06
2.46647e-06
2.24993e-06
2.0508e-06
1.8678e-06
1.69976e-06
1.54559e-06
1.4043e-06
1.27494e-06
1.15663e-06
1.04855e-06
9.49936e-07
8.60069e-07
7.78287e-07
7.0397e-07
6.36542e-07
5.75464e-07
5.20235e-07
4.70392e-07
4.25504e-07
3.85169e-07
3.49017e-07
3.16701e-07
2.87902e-07
2.62318e-07
2.39669e-07
2.19698e-07
2.02161e-07
1.86832e-07
1.73498e-07
1.61959e-07
1.52023e-07
1.4351e-07
1.36252e-07
1.30094e-07
1.24894e-07
1.20523e-07
1.16864e-07
1.13812e-07
1.11277e-07
1.09178e-07
1.07448e-07
1.0603e-07
1.04871e-07
1.03933e-07
1.03171e-07
1.02573e-07
1.02068e-07
1.0172e-07
1.01317e-07
1.0122e-07
1.00587e-07
1.01039e-07
9.90846e-08
1.01637e-07
9.42759e-08
1.05064e-07
8.68389e-08
6.14642e-06
5.94292e-06
5.65407e-06
5.65732e-06
6.30086e-06
7.60167e-06
9.36016e-06
1.13613e-05
1.34295e-05
1.54196e-05
1.71978e-05
1.86395e-05
1.96527e-05
2.02019e-05
2.03104e-05
2.00471e-05
1.95041e-05
1.8771e-05
1.79165e-05
1.69836e-05
1.59993e-05
1.49873e-05
1.39741e-05
1.29853e-05
1.20402e-05
1.115e-05
1.0319e-05
9.54772e-06
8.83459e-06
8.17671e-06
7.5695e-06
7.00649e-06
6.48029e-06
5.98463e-06
5.51615e-06
5.07456e-06
4.66114e-06
4.27686e-06
3.92136e-06
3.5931e-06
3.29005e-06
3.01024e-06
2.752e-06
2.51383e-06
2.29437e-06
2.0923e-06
1.90639e-06
1.7355e-06
1.57856e-06
1.4346e-06
1.30268e-06
1.18193e-06
1.07154e-06
9.7076e-07
8.78864e-07
7.95193e-07
7.19126e-07
6.5008e-07
5.87515e-07
5.30925e-07
4.79841e-07
4.33829e-07
3.92483e-07
3.55425e-07
3.22304e-07
2.92795e-07
2.66591e-07
2.43409e-07
2.22984e-07
2.05068e-07
1.89431e-07
1.75853e-07
1.64129e-07
1.54061e-07
1.45459e-07
1.38152e-07
1.31976e-07
1.26787e-07
1.22446e-07
1.1883e-07
1.15828e-07
1.13344e-07
1.11299e-07
1.09623e-07
1.0826e-07
1.07157e-07
1.0627e-07
1.05551e-07
1.04987e-07
1.04508e-07
1.04182e-07
1.03792e-07
1.03708e-07
1.03067e-07
1.03523e-07
1.01513e-07
1.04073e-07
9.65266e-08
1.07464e-07
8.88123e-08
5.41929e-06
5.36467e-06
5.29958e-06
5.47392e-06
6.10981e-06
7.22631e-06
8.70462e-06
1.04e-05
1.21768e-05
1.39118e-05
1.54937e-05
1.68228e-05
1.78167e-05
1.84262e-05
1.86518e-05
1.85432e-05
1.81785e-05
1.76343e-05
1.69658e-05
1.62057e-05
1.53757e-05
1.44981e-05
1.35996e-05
1.27068e-05
1.18403e-05
1.10133e-05
1.02324e-05
9.50001e-06
8.81669e-06
8.1813e-06
7.59087e-06
7.04039e-06
6.5236e-06
6.03489e-06
5.57125e-06
5.1326e-06
4.72051e-06
4.33631e-06
3.97999e-06
3.65026e-06
3.34525e-06
3.06312e-06
2.80228e-06
2.56134e-06
2.33902e-06
2.13406e-06
1.94526e-06
1.77154e-06
1.61183e-06
1.46519e-06
1.3307e-06
1.20749e-06
1.09478e-06
9.918e-07
8.97847e-07
8.12257e-07
7.34407e-07
6.63712e-07
5.99628e-07
5.41648e-07
4.89298e-07
4.42139e-07
3.99759e-07
3.61776e-07
3.27833e-07
2.976e-07
2.70766e-07
2.47042e-07
2.26161e-07
2.07868e-07
1.91927e-07
1.78114e-07
1.66215e-07
1.56024e-07
1.47347e-07
1.40006e-07
1.33831e-07
1.28667e-07
1.2437e-07
1.20809e-07
1.17872e-07
1.15458e-07
1.13484e-07
1.11877e-07
1.10578e-07
1.09533e-07
1.087e-07
1.0803e-07
1.07513e-07
1.07075e-07
1.06781e-07
1.06411e-07
1.06342e-07
1.05691e-07
1.06146e-07
1.04079e-07
1.06652e-07
9.89202e-08
1.10023e-07
9.093e-08
4.90328e-06
4.95352e-06
5.03316e-06
5.30644e-06
5.91941e-06
6.89446e-06
8.15913e-06
9.61149e-06
1.11491e-05
1.2675e-05
1.40957e-05
1.53197e-05
1.62673e-05
1.68899e-05
1.71846e-05
1.71906e-05
1.69703e-05
1.65842e-05
1.60745e-05
1.5465e-05
1.47727e-05
1.40178e-05
1.32263e-05
1.24245e-05
1.1634e-05
1.0869e-05
1.01378e-05
9.44481e-06
8.79207e-06
8.18003e-06
7.60726e-06
7.07011e-06
6.5634e-06
6.08226e-06
5.62402e-06
5.18882e-06
4.77851e-06
4.39476e-06
4.03792e-06
3.70697e-06
3.40021e-06
3.11592e-06
2.85261e-06
2.60901e-06
2.38389e-06
2.17607e-06
1.98443e-06
1.80788e-06
1.64542e-06
1.49609e-06
1.359e-06
1.23332e-06
1.11826e-06
1.01306e-06
9.17018e-07
8.29478e-07
7.49813e-07
6.77438e-07
6.11805e-07
5.52406e-07
4.98763e-07
4.5043e-07
4.06992e-07
3.68061e-07
3.33275e-07
3.023e-07
2.74821e-07
2.50545e-07
2.29198e-07
2.10522e-07
1.94274e-07
1.80226e-07
1.68154e-07
1.57849e-07
1.49107e-07
1.41742e-07
1.35578e-07
1.30452e-07
1.26214e-07
1.22725e-07
1.19865e-07
1.1753e-07
1.15634e-07
1.14105e-07
1.12881e-07
1.11907e-07
1.11139e-07
1.10525e-07
1.10054e-07
1.09652e-07
1.0939e-07
1.0904e-07
1.08989e-07
1.08336e-07
1.08798e-07
1.06676e-07
1.09266e-07
1.01337e-07
1.12612e-07
9.30544e-08
4.53974e-06
4.66855e-06
4.84676e-06
5.1806e-06
5.76506e-06
6.62121e-06
7.70738e-06
8.9559e-06
1.02915e-05
1.16357e-05
1.29072e-05
1.40249e-05
1.49172e-05
1.55384e-05
1.58809e-05
1.59746e-05
1.58699e-05
1.56146e-05
1.524e-05
1.47618e-05
1.41922e-05
1.35489e-05
1.28565e-05
1.21407e-05
1.1423e-05
1.07184e-05
1.00365e-05
9.38299e-06
8.76132e-06
8.17335e-06
7.61897e-06
7.09583e-06
6.59984e-06
6.12683e-06
5.6745e-06
5.24324e-06
4.83513e-06
4.4522e-06
4.09514e-06
3.76321e-06
3.4549e-06
3.16862e-06
2.90298e-06
2.6568e-06
2.42895e-06
2.21834e-06
2.02388e-06
1.84452e-06
1.67929e-06
1.52727e-06
1.38758e-06
1.25941e-06
1.14196e-06
1.03452e-06
9.3636e-07
8.46838e-07
7.65324e-07
6.91236e-07
6.24024e-07
5.63176e-07
5.08212e-07
4.5868e-07
4.1416e-07
3.74259e-07
3.38612e-07
3.06879e-07
2.78743e-07
2.53905e-07
2.32087e-07
2.13027e-07
1.96476e-07
1.82198e-07
1.69964e-07
1.59554e-07
1.50761e-07
1.43388e-07
1.37252e-07
1.32182e-07
1.28018e-07
1.24616e-07
1.21849e-07
1.1961e-07
1.1781e-07
1.16372e-07
1.15233e-07
1.14334e-07
1.13635e-07
1.13084e-07
1.1267e-07
1.12316e-07
1.12094e-07
1.1177e-07
1.1174e-07
1.11082e-07
1.1155e-07
1.09371e-07
1.11983e-07
1.03855e-07
1.15319e-07
9.52824e-08
4.27603e-06
4.46007e-06
4.70033e-06
5.0651e-06
5.61737e-06
6.37683e-06
7.32099e-06
8.40459e-06
9.57151e-06
1.07586e-05
1.1897e-05
1.29147e-05
1.37472e-05
1.43522e-05
1.47216e-05
1.48796e-05
1.48669e-05
1.47202e-05
1.44604e-05
1.40962e-05
1.36354e-05
1.30933e-05
1.24924e-05
1.18574e-05
1.12092e-05
1.05632e-05
9.9297e-06
9.31546e-06
8.72513e-06
8.16172e-06
7.62634e-06
7.11781e-06
6.63308e-06