/*--------------------------------*- C++ -*----------------------------------*\
| =========                 |                                                 |
| \\      /  F ield         | OpenFOAM: The Open Source CFD Toolbox           |
|  \\    /   O peration     | Version:  2.1.1                                 |
|   \\  /    A nd           | Web:      www.OpenFOAM.org                      |
|    \\/     M anipulation  |                                                 |
\*---------------------------------------------------------------------------*/
FoamFile
{
    version     2.0;
    format      ascii;
    class       volScalarField;
    location    "0.015";
    object      p;
}
// * * * * * * * * * * * * * * * * * * * * * * * * * * * * * * * * * * * * * //

dimensions      [0 2 -2 0 0 0 0];

internalField   nonuniform List<scalar> 
6820
(
11.6428
-6.1971
-9.21718
-9.41755
-9.60581
-9.55057
-9.51449
-9.55055
-9.62434
-9.7205
-9.83055
-9.94925
-10.0742
-10.2045
-10.339
-10.4793
-10.624
-10.7736
-10.9277
-11.0867
-11.2509
-11.4211
-11.5985
-11.7847
-11.9822
-12.1941
-12.4241
-12.6765
-12.9576
-13.2698
-13.6348
-14.0179
-14.5792
4.96374
-6.01363
-8.90343
-9.2172
-9.48574
-9.52711
-9.52808
-9.57564
-9.6514
-9.74475
-9.85094
-9.96609
-10.0882
-10.2161
-10.3494
-10.4872
-10.6311
-10.7801
-10.9335
-11.0917
-11.2552
-11.4247
-11.6014
-11.7869
-11.9834
-12.194
-12.4224
-12.6726
-12.9501
-13.2582
-13.6112
-13.992
-14.4882
2.25252
-4.5792
-7.87785
-8.64957
-9.13394
-9.35028
-9.43017
-9.51045
-9.60538
-9.71085
-9.82539
-9.94681
-10.0735
-10.2047
-10.3402
-10.4798
-10.6241
-10.7732
-10.9267
-11.0849
-11.2479
-11.4164
-11.5916
-11.7751
-11.969
-12.1761
-12.3995
-12.6427
-12.9096
-13.2012
-13.5223
-13.8486
-14.1689
0.270429
-4.34813
-7.45073
-8.32233
-8.8092
-9.10347
-9.25255
-9.37602
-9.50113
-9.6262
-9.75278
-9.88192
-10.0138
-10.1485
-10.2865
-10.4277
-10.5728
-10.7208
-10.8725
-11.0285
-11.1895
-11.3558
-11.5282
-11.7081
-11.8972
-12.0977
-12.3118
-12.5416
-12.7888
-13.0517
-13.3278
-13.5956
-13.8322
-1.36129
-4.44442
-7.05387
-7.96874
-8.4902
-8.86225
-9.07984
-9.24093
-9.3883
-9.5275
-9.66296
-9.79802
-9.93386
-10.0709
-10.2097
-10.3508
-10.4947
-10.6413
-10.7916
-10.9452
-11.1027
-11.2647
-11.4321
-11.606
-11.7878
-11.979
-12.1809
-12.3943
-12.619
-12.8519
-13.0874
-13.3092
-13.4963
-2.57962
-4.62085
-6.79782
-7.75267
-8.29242
-8.69057
-8.94191
-9.12442
-9.28627
-9.43642
-9.57939
-9.71931
-9.8581
-9.99677
-10.1361
-10.2768
-10.4194
-10.565
-10.7137
-10.8645
-11.0183
-11.1762
-11.3388
-11.507
-11.6819
-11.8643
-12.0548
-12.2535
-12.459
-12.668
-12.8742
-13.0659
-13.2274
-3.52545
-4.90222
-6.67474
-7.59143
-8.11783
-8.52303
-8.80322
-9.00978
-9.18801
-9.3498
-9.50055
-9.64541
-9.78728
-9.92765
-10.0676
-10.2079
-10.3495
-10.4928
-10.638
-10.7852
-10.9351
-11.0883
-11.2456
-11.4074
-11.5745
-11.7474
-11.9261
-12.1101
-12.2977
-12.4854
-12.6679
-12.8368
-12.9819
-4.26598
-5.20275
-6.61731
-7.46861
-7.98259
-8.38831
-8.68598
-8.90838
-9.09698
-9.26641
-9.42271
-9.57127
-9.71543
-9.85695
-9.99706
-10.1368
-10.2767
-10.4177
-10.5601
-10.704
-10.85
-10.9986
-11.1502
-11.3054
-11.4646
-11.6279
-11.7951
-11.9654
-12.137
-12.307
-12.4709
-12.6234
-12.7579
-4.85216
-5.50017
-6.62071
-7.39098
-7.88155
-8.27444
-8.57713
-8.80955
-9.00642
-9.18269
-9.34436
-9.49662
-9.64306
-9.78573
-9.92601
-10.065
-10.2035
-10.3421
-10.4814
-10.6216
-10.7631
-10.9064
-11.0519
-11.2
-11.3508
-11.5044
-11.6603
-11.8175
-11.9745
-12.1288
-12.2771
-12.4161
-12.5422
-5.32183
-5.77882
-6.66139
-7.3422
-7.80282
-8.17871
-8.48091
-8.71973
-8.92238
-9.10333
-9.26865
-9.42337
-9.57117
-9.71428
-9.85417
-9.99198
-10.1286
-10.2646
-10.4005
-10.5367
-10.6736
-10.8116
-10.9509
-11.0918
-11.2343
-11.3782
-11.5232
-11.6682
-11.8119
-11.9525
-12.0877
-12.2154
-12.3339
-5.70189
-6.031
-6.72554
-7.31847
-7.7457
-8.10111
-8.39654
-8.63656
-8.84174
-9.02528
-9.19303
-9.34953
-9.49832
-9.64162
-9.78095
-9.91745
-10.052
-10.1852
-10.3177
-10.4497
-10.5817
-10.714
-10.8467
-10.9801
-11.1141
-11.2484
-11.3827
-11.5161
-11.6475
-11.7755
-11.8987
-12.016
-12.1266
-6.01198
-6.25436
-6.80227
-7.31286
-7.70419
-8.03693
-8.32181
-8.55982
-8.7656
-8.95036
-9.11946
-9.27693
-9.42604
-9.569
-9.7073
-9.84209
-9.97423
-10.1044
-10.2331
-10.3607
-10.4875
-10.6139
-10.74
-10.8658
-10.9913
-11.1163
-11.2403
-11.3626
-11.4825
-11.5989
-11.711
-11.8182
-11.9204
-6.26644
-6.44897
-6.88345
-7.32008
-7.67523
-7.98468
-8.25657
-8.48966
-8.69377
-8.878
-9.04711
-9.20458
-9.35336
-9.49548
-9.6324
-9.7652
-9.89471
-10.0216
-10.1463
-10.2693
-10.3908
-10.5111
-10.6303
-10.7484
-10.8654
-10.981
-11.0949
-11.2066
-11.3154
-11.4208
-11.5221
-11.6192
-11.7122
-6.47585
-6.6163
-6.96346
-7.33551
-7.65546
-7.94156
-8.1989
-8.42492
-8.62569
-8.80818
-8.97637
-9.13316
-9.28107
-9.42194
-9.55712
-9.68761
-9.81421
-9.93754
-10.0581
-10.1762
-10.2921
-10.4062
-10.5184
-10.6288
-10.7373
-10.8438
-10.9479
-11.0493
-11.1475
-11.2421
-11.3328
-11.4196
-11.5027
-6.64806
-6.75836
-7.03839
-7.35524
-7.64204
-7.90549
-8.14772
-8.36525
-8.56133
-8.74095
-8.90725
-9.06256
-9.20897
-9.34809
-9.48111
-9.60896
-9.73238
-9.85192
-9.96804
-10.0811
-10.1913
-10.299
-10.4041
-10.5067
-10.6068
-10.7041
-10.7986
-10.8898
-10.9776
-11.0616
-11.1418
-11.2181
-11.2908
-6.78898
-6.87726
-7.10566
-7.37608
-7.63248
-7.87443
-8.10152
-8.30968
-8.50006
-8.67593
-8.8396
-8.99285
-9.13729
-9.27429
-9.40486
-9.5298
-9.64979
-9.76533
-9.87686
-9.98468
-10.0891
-10.1902
-10.2881
-10.3829
-10.4746
-10.563
-10.6479
-10.7293
-10.8068
-10.8804
-10.95
-11.0157
-11.0775
-6.90304
-6.97499
-7.16358
-7.39547
-7.6246
-7.84657
-8.05902
-8.25746
-8.44152
-8.61303
-8.77349
-8.92414
-9.06618
-9.20067
-9.32844
-9.4502
-9.56651
-9.67784
-9.78457
-9.887
-9.98537
-10.0799
-10.1706
-10.2576
-10.3408
-10.4203
-10.4958
-10.5674
-10.6348
-10.6981
-10.7571
-10.8119
-10.8627
-6.9936
-7.05327
-7.21112
-7.41134
-7.61649
-7.82027
-8.01893
-8.20769
-8.38512
-8.55187
-8.70872
-8.85638
-8.99568
-9.12737
-9.25211
-9.37046
-9.4829
-9.58984
-9.69162
-9.78853
-9.88079
-9.96858
-10.052
-10.1312
-10.2061
-10.2767
-10.343
-10.4049
-10.4624
-10.5153
-10.5638
-10.6079
-10.6475
-7.06321
-7.11354
-7.24761
-7.42206
-7.60654
-7.79407
-7.98006
-8.15956
-8.33036
-8.49221
-8.64523
-8.78969
-8.926
-9.05468
-9.17619
-9.29096
-9.39937
-9.50178
-9.59849
-9.68977
-9.77583
-9.85686
-9.93298
-10.0043
-10.0709
-10.1327
-10.1898
-10.2422
-10.2898
-10.3326
-10.3707
-10.404
-10.4325
-7.11375
-7.15696
-7.27264
-7.42634
-7.59331
-7.76665
-7.94132
-8.11223
-8.27668
-8.43369
-8.58284
-8.72396
-8.85717
-8.98269
-9.10082
-9.21185
-9.3161
-9.41384
-9.50536
-9.5909
-9.67068
-9.74489
-9.81368
-9.87718
-9.93546
-9.98861
-10.0366
-10.0796
-10.1175
-10.1503
-10.1781
-10.2009
-10.2186
-7.14655
-7.18433
-7.28588
-7.42311
-7.5756
-7.73687
-7.90169
-8.06496
-8.2236
-8.37609
-8.52154
-8.65942
-8.78954
-8.91191
-9.02664
-9.13392
-9.23396
-9.327
-9.41329
-9.49307
-9.56655
-9.63393
-9.6954
-9.7511
-9.80116
-9.84569
-9.88476
-9.91843
-9.94676
-9.96979
-9.98753
-10.0001
-10.0072
-7.16257
-7.19623
-7.28706
-7.41147
-7.55232
-7.70367
-7.86026
-8.017
-8.17057
-8.31901
-8.46104
-8.59584
-8.72296
-8.84218
-8.95348
-9.05694
-9.15269
-9.24094
-9.3219
-9.39582
-9.46292
-9.52342
-9.57754
-9.62545
-9.66732
-9.70331
-9.73352
-9.75806
-9.77703
-9.79048
-9.79846
-9.80105
-9.79812
-7.16221
-7.19295
-7.27584
-7.3906
-7.52252
-7.66614
-7.81627
-7.96785
-8.11735
-8.26251
-8.40173
-8.53391
-8.65837
-8.77473
-8.88282
-8.98263
-9.07423
-9.15779
-9.23351
-9.30163
-9.36241
-9.41609
-9.46291
-9.50311
-9.53688
-9.56443
-9.58592
-9.6015
-9.61129
-9.61539
-9.61388
-9.60685
-9.5942
-7.14576
-7.17436
-7.25173
-7.35972
-7.48526
-7.62333
-7.76883
-7.91667
-8.06319
-8.20586
-8.34283
-8.47278
-8.59484
-8.70848
-8.81342
-8.90957
-8.99696
-9.07575
-9.14613
-9.20836
-9.26272
-9.30948
-9.34895
-9.38139
-9.40707
-9.42623
-9.43909
-9.44584
-9.44666
-9.4417
-9.43105
-9.41487
-9.39309
-7.11286
-7.14017
-7.21417
-7.31804
-7.43977
-7.57466
-7.71764
-7.86358
-8.00868
-8.15019
-8.28604
-8.41469
-8.53513
-8.6467
-8.74902
-8.84195
-8.9255
-8.99979
-9.06506
-9.12157
-9.16965
-9.20963
-9.24186
-9.26666
-9.28436
-9.29525
-9.29963
-9.29773
-9.28978
-9.27597
-9.25645
-9.23139
-9.20077
-7.06293
-7.08969
-7.16231
-7.26456
-7.38495
-7.51891
-7.66133
-7.807
-7.95197
-8.09329
-8.22873
-8.3566
-8.47576
-8.58545
-8.68526
-8.77497
-8.85461
-8.9243
-8.98431
-9.03494
-9.07656
-9.10958
-9.13439
-9.15141
-9.16102
-9.1636
-9.1595
-9.14902
-9.13246
-9.11007
-9.08205
-9.04864
-9.0099
-6.99485
-7.02185
-7.09514
-7.1985
-7.32044
-7.45638
-7.6011
-7.74916
-7.8964
-8.03968
-8.17657
-8.30525
-8.42447
-8.53341
-8.63159
-8.71883
-8.79514
-8.86071
-8.91582
-8.96087
-8.99628
-9.02254
-9.04012
-9.04951
-9.05118
-9.04558
-9.03314
-9.01424
-8.98922
-8.9584
-8.92204
-8.88037
-8.8335
-6.907
-6.93499
-7.01097
-7.11794
-7.2439
-7.38405
-7.53295
-7.68496
-7.83569
-7.98188
-8.12094
-8.25097
-8.37063
-8.47905
-8.57575
-8.66053
-8.73344
-8.79471
-8.84469
-8.88383
-8.91267
-8.93176
-8.9417
-8.94307
-8.93643
-8.92236
-8.90136
-8.87391
-8.84044
-8.80135
-8.75698
-8.70766
-8.6536
-6.79712
-6.82715
-6.90863
-7.02307
-7.15736
-7.30629
-7.46393
-7.62414
-7.78219
-7.93458
-8.07862
-8.2123
-8.33426
-8.44367
-8.54007
-8.62335
-8.69362
-8.7512
-8.79654
-8.83021
-8.85284
-8.86509
-8.86766
-8.86124
-8.84652
-8.82414
-8.79472
-8.75882
-8.71695
-8.66957
-8.61707
-8.55978
-8.49794
-6.66188
-6.69471
-6.78381
-6.90804
-7.05249
-7.21163
-7.37923
-7.54872
-7.71511
-7.8747
-8.02464
-8.16281
-8.2878
-8.39874
-8.49521
-8.57713
-8.64471
-8.69834
-8.73859
-8.76616
-8.78179
-8.78632
-8.78059
-8.76543
-8.7417
-8.71019
-8.67164
-8.62677
-8.57621
-8.52051
-8.4602
-8.39573
-8.32747
-6.49735
-6.53545
-6.63818
-6.78021
-6.94354
-7.12152
-7.30692
-7.49233
-7.67239
-7.84336
-8.00239
-8.14747
-8.2773
-8.39117
-8.48881
-8.57029
-8.63594
-8.68634
-8.72217
-8.74427
-8.75354
-8.75092
-8.73741
-8.71398
-8.6816
-8.64119
-8.59364
-8.53974
-8.48024
-8.41578
-8.34693
-8.27412
-8.19775
-6.29626
-6.33909
-6.45579
-6.61499
-6.79587
-6.99207
-7.19587
-7.39879
-7.59482
-7.7798
-7.9506
-8.10503
-8.24176
-8.36014
-8.45997
-8.54147
-8.60516
-8.65176
-8.68218
-8.69744
-8.69866
-8.68702
-8.66372
-8.63
-8.58705
-8.53602
-8.47801
-8.414
-8.34492
-8.27157
-8.19466
-8.11483
-8.03262
-6.05365
-6.11122
-6.26094
-6.45852
-6.67555
-6.90452
-7.13698
-7.36403
-7.57999
-7.78125
-7.96501
-8.12944
-8.27351
-8.39682
-8.4994
-8.58164
-8.64425
-8.6881
-8.71426
-8.7239
-8.71829
-8.69876
-8.66666
-8.62337
-8.57026
-8.50867
-8.43986
-8.365
-8.28516
-8.20127
-8.11416
-8.02439
-7.93262
-5.74738
-5.80747
-5.97749
-6.20213
-6.45018
-6.71451
-6.98308
-7.24372
-7.48956
-7.71639
-7.92109
-8.10184
-8.25789
-8.38916
-8.49608
-8.57942
-8.64023
-8.67975
-8.69933
-8.70048
-8.68474
-8.65376
-8.60925
-8.55294
-8.48657
-8.41179
-8.33017
-8.24315
-8.15201
-8.0579
-7.96186
-7.86473
-7.76737
-5.38798
-5.5037
-5.76006
-6.05708
-6.35768
-6.66424
-6.96747
-7.2563
-7.52565
-7.77234
-7.99363
-8.18791
-8.3546
-8.49372
-8.60578
-8.69168
-8.75261
-8.78994
-8.80521
-8.80003
-8.77612
-8.73524
-8.67924
-8.61002
-8.52958
-8.4399
-8.3429
-8.24034
-8.13383
-8.02477
-7.91441
-7.80355
-7.69329
-4.86238
-4.9522
-5.247
-5.61282
-5.9954
-6.38674
-6.76574
-7.11795
-7.43908
-7.72657
-7.97871
-8.19543
-8.37757
-8.52635
-8.64326
-8.72998
-8.78827
-8.81994
-8.82687
-8.81098
-8.77427
-8.71887
-8.64706
-8.56127
-8.46404
-8.35777
-8.24475
-8.12705
-8.00637
-7.88444
-7.76295
-7.64322
-7.52687
-4.37295
-4.69459
-5.16053
-5.57627
-5.98148
-6.40258
-6.81051
-7.19101
-7.54166
-7.85801
-8.13633
-8.37552
-8.57579
-8.73808
-8.8639
-8.95521
-9.01413
-9.04286
-9.04362
-9.01852
-8.96967
-8.8991
-8.80891
-8.70155
-8.58034
-8.44863
-8.30941
-8.16585
-8.01991
-7.87381
-7.72908
-7.58696
-7.44978
-3.07715
-3.39926
-4.17165
-4.86942
-5.50239
-6.1031
-6.63883
-7.10852
-7.52163
-7.88108
-8.18933
-8.44968
-8.66496
-8.83768
-8.97024
-9.0649
-9.12382
-9.14911
-9.14285
-9.10708
-9.04399
-8.95588
-8.84551
-8.71595
-8.57176
-8.41618
-8.25206
-8.08668
-7.91617
-7.74657
-7.58073
-7.42069
-7.26651
-3.07017
-3.81656
-4.42507
-4.89735
-5.50259
-6.14052
-6.73352
-7.28291
-7.7813
-8.21693
-8.5876
-8.89565
-9.14421
-9.33712
-9.47868
-9.57319
-9.62473
-9.63698
-9.6131
-9.55548
-9.4659
-9.34455
-9.19149
-9.00372
-8.80059
-8.585
-8.36251
-8.13448
-7.91047
-7.68982
-7.4695
-7.25175
-7.01995
3.1651
-1.44391
-3.2346
-4.09345
-5.10391
-5.98775
-6.69402
-7.30417
-7.83333
-8.28055
-8.65353
-8.95931
-9.20315
-9.39021
-9.52548
-9.61348
-9.6583
-9.66353
-9.63232
-9.56713
-9.47002
-9.34279
-9.18507
-9.00528
-8.80002
-8.57915
-8.34979
-8.11753
-7.888
-7.66448
-7.44898
-7.24292
-7.04647
-14.754
-14.6362
-13.3697
-12.6351
-12.6843
-13.7836
-15.9412
-19.0162
-22.7148
-26.5515
-29.879
-31.9638
-32.243
-30.614
-27.4759
-23.4963
-19.2775
-15.2226
-11.5703
-8.42772
-5.80123
-3.64328
-1.88917
-0.473401
0.663592
1.57271
2.29599
2.86768
3.31549
3.66183
3.92491
4.11962
4.25822
4.35094
4.40634
4.43154
4.43246
4.414
4.38016
4.33424
4.27892
4.21641
4.1485
4.07666
4.00206
3.92566
3.84821
3.77031
3.69242
3.6149
3.53801
3.46194
3.3868
3.31268
3.23959
3.16753
3.09649
3.02641
2.95723
2.88888
2.82128
2.75434
2.68797
2.62209
2.5566
2.49142
2.42646
2.36164
2.29688
2.23211
2.16726
2.10225
2.03703
1.97152
1.90569
1.83946
1.7728
1.70566
1.63799
1.56975
1.5009
1.43142
1.36127
1.29041
1.21882
1.14646
1.07332
0.999367
0.924576
0.848935
0.772402
0.695003
0.616616
0.537438
0.45698
0.37622
0.293012
0.211866
0.123253
0.0474199
-14.7405
-14.4613
-13.396
-12.8415
-13.0572
-14.1703
-16.1627
-18.8896
-22.0751
-25.2688
-27.9022
-29.3918
-29.3573
-27.8056
-25.0797
-21.6664
-18.0025
-14.4129
-11.1153
-8.22352
-5.76446
-3.71347
-2.02448
-0.645637
0.473003
1.37576
2.10029
2.67795
3.13455
3.49129
3.76556
3.97169
4.12161
4.2253
4.29114
4.3262
4.33634
4.32645
4.30054
4.26192
4.21331
4.15696
4.09469
4.028
3.9581
3.88599
3.81244
3.73808
3.66342
3.58882
3.51458
3.44091
3.36794
3.29577
3.22444
3.15398
3.08437
3.01559
2.94757
2.88026
2.8136
2.7475
2.68188
2.61667
2.55178
2.48714
2.42266
2.35827
2.2939
2.22947
2.16492
2.10018
2.03519
1.9699
1.90425
1.83819
1.77168
1.70466
1.6371
1.56896
1.50021
1.4308
1.36072
1.28992
1.21838
1.14608
1.07297
0.999056
0.924299
0.848687
0.772178
0.694802
0.616435
0.537279
0.456836
0.376102
0.292905
0.211799
0.123196
0.0474044
-14.3256
-14.1672
-13.5185
-13.1612
-13.4159
-14.3974
-16.1089
-18.419
-21.0602
-23.6299
-25.6625
-26.7351
-26.5984
-25.2587
-22.9534
-20.0333
-16.8402
-13.6532
-10.6724
-8.01289
-5.71457
-3.76982
-2.14774
-0.808416
0.289257
1.18336
1.90726
2.48941
2.95369
3.32
3.60484
3.82199
3.98295
4.09743
4.17365
4.21855
4.23793
4.23667
4.21876
4.18755
4.14577
4.09569
4.03918
3.97775
3.91267
3.84495
3.77541
3.7047
3.63335
3.56177
3.49026
3.41906
3.34833
3.27818
3.20869
3.13988
3.07176
3.00431
2.9375
2.87128
2.80559
2.74036
2.67553
2.61103
2.54677
2.48269
2.41871
2.35477
2.2908
2.22672
2.16249
2.09803
2.03329
1.96822
1.90276
1.83688
1.77052
1.70364
1.6362
1.56817
1.4995
1.43018
1.36017
1.28943
1.21795
1.14569
1.07263
0.998754
0.924029
0.848448
0.771965
0.694614
0.616269
0.537134
0.456707
0.376
0.292815
0.211746
0.123159
0.0473983
-13.9825
-13.9191
-13.5401
-13.3524
-13.6621
-14.549
-15.9957
-17.8832
-19.9903
-22.0058
-23.5821
-24.3959
-24.2344
-23.0825
-21.1078
-18.5783
-15.7742
-12.9356
-10.24
-7.7964
-5.65214
-3.81228
-2.25841
-0.960945
0.113246
0.996396
1.71774
2.30284
2.77359
3.14854
3.44328
3.67094
3.84259
3.96764
4.05409
4.10876
4.13738
4.14477
4.13493
4.1112
4.07633
4.03263
3.98197
3.92593
3.86577
3.80255
3.73711
3.67015
3.60221
3.53373
3.46504
3.39639
3.32797
3.25992
3.19232
3.12522
3.05864
2.99259
2.92703
2.86194
2.79726
2.73294
2.66892
2.60515
2.54154
2.47805
2.4146
2.35112
2.28756
2.22386
2.15995
2.09578
2.03131
1.96646
1.90121
1.83551
1.76931
1.70257
1.63525
1.56733
1.49876
1.42953
1.35959
1.28892
1.21749
1.14529
1.07227
0.998434
0.923744
0.848193
0.771739
0.694413
0.616089
0.536977
0.456567
0.375886
0.292715
0.211682
0.123113
0.047378
-13.6312
-13.6344
-13.4732
-13.4506
-13.7955
-14.5725
-15.7702
-17.3011
-18.992
-20.5943
-21.8234
-22.4174
-22.2114
-21.1881
-19.4694
-17.262
-14.792
-12.26
-9.82107
-7.57691
-5.5791
-3.84194
-2.3569
-1.10316
-0.0546823
0.815362
1.53225
2.11873
2.59471
2.97733
3.28122
3.51883
3.70077
3.83611
3.93263
3.99697
4.03478
4.05083
4.0491
4.03291
4.00504
3.9678
3.9231
3.87253
3.81739
3.75877
3.69755
3.63443
3.56999
3.5047
3.4389
3.37289
3.30686
3.24097
3.17532
3.10999
3.04501
2.9804
2.91614
2.85221
2.78859
2.72521
2.66205
2.59903
2.53611
2.47322
2.41031
2.34732
2.2842
2.22088
2.15731
2.09345
2.02925
1.96465
1.89961
1.83409
1.76806
1.70146
1.63428
1.56647
1.49801
1.42886
1.359
1.2884
1.21703
1.14488
1.07191
0.998112
0.923459
0.847941
0.771515
0.694216
0.615914
0.536826
0.456435
0.375778
0.292624
0.211623
0.123077
0.0473605
-13.3613
-13.4241
-13.401
-13.4764
-13.8232
-14.5023
-15.5034
-16.7515
-18.102
-19.3533
-20.2826
-20.689
-20.442
-19.52
-18.0107
-16.0734
-13.889
-11.625
-9.41606
-7.35568
-5.49663
-3.85946
-2.44335
-1.23481
-0.214044
0.640857
1.35145
1.93773
2.41762
2.80687
3.1191
3.36606
3.55783
3.70313
3.80949
3.88336
3.9303
3.95498
3.96136
3.95276
3.93195
3.90125
3.86259
3.81758
3.76757
3.71365
3.65672
3.59754
3.53669
3.47467
3.41186
3.34855
3.28498
3.22132
3.1577
3.0942
3.03087
2.96774
2.90483
2.84212
2.77958
2.71719
2.6549
2.59267
2.53045
2.4682
2.40586
2.34337
2.2807
2.21778
2.15457
2.09103
2.0271
1.96275
1.89794
1.83262
1.76676
1.70032
1.63327
1.56558
1.49722
1.42816
1.35838
1.28785
1.21655
1.14445
1.07153
0.997779
0.923163
0.847679
0.771283
0.694012
0.615733
0.536669
0.456297
0.375666
0.292529
0.211559
0.123039
0.0473353
-13.1154
-13.2137
-13.273
-13.4125
-13.7552
-14.3486
-15.1799
-16.1866
-17.2531
-18.2206
-18.9129
-19.1702
-18.888
-18.0458
-16.708
-14.9971
-13.0576
-11.0285
-9.02593
-7.13449
-5.40626
-3.86583
-2.5182
-1.35592
-0.364565
0.47332
1.17583
1.76034
2.24284
2.63764
2.95735
3.21298
3.41408
3.56897
3.68489
3.76813
3.82407
3.85734
3.87183
3.87083
3.85712
3.83302
3.80048
3.76112
3.71632
3.66718
3.61465
3.55948
3.50232
3.44365
3.3839
3.32337
3.26234
3.20097
3.13943
3.07782
3.0162
2.95462
2.89309
2.83163
2.77023
2.70885
2.64747
2.58606
2.52458
2.46299
2.40123
2.33927
2.27706
2.21457
2.15173
2.08852
2.02488
1.96079
1.89621
1.83109
1.76541
1.69913
1.63222
1.56466
1.49641
1.42745
1.35775
1.2873
1.21606
1.14402
1.07115
0.99744
0.922864
0.847416
0.771051
0.693808
0.615554
0.536515
0.456163
0.375557
0.29244
0.211498
0.123007
0.0473103
-12.8916
-13.0147
-13.1261
-13.3025
-13.6281
-14.1388
-14.8233
-15.6298
-16.4643
-17.1997
-17.6962
-17.8288
-17.5155
-16.7377
-15.5418
-14.0215
-12.2923
-10.4691
-8.6512
-6.91465
-5.3093
-3.86196
-2.5819
-1.46653
-0.506016
0.313158
1.0059
1.5871
2.07087
2.47012
2.79642
3.06
3.26986
3.43392
3.5591
3.65147
3.71629
3.75805
3.78061
3.78722
3.78064
3.76319
3.73682
3.70319
3.66366
3.61939
3.57134
3.52028
3.46687
3.41164
3.35502
3.29736
3.23893
3.17993
3.12054
3.06087
3.00101
2.94102
2.88093
2.82077
2.76053
2.7002
2.63977
2.57921
2.51849
2.45758
2.39643
2.33502
2.27329
2.21123
2.14878
2.08591
2.02258
1.95876
1.89442
1.82951
1.76402
1.6979
1.63114
1.5637
1.49557
1.42671
1.3571
1.28672
1.21555
1.14357
1.07076
0.997093
0.922558
0.847146
0.770813
0.6936
0.615372
0.536357
0.456027
0.375446
0.29235
0.211434
0.122975
0.0472813
-12.6745
-12.8107
-12.949
-13.1402
-13.441
-13.8768
-14.4363
-15.0753
-15.7179
-16.2632
-16.6013
-16.6343
-16.297
-15.5725
-14.4946
-13.1356
-11.5874
-9.94475
-8.29231
-6.69746
-5.20708
-3.84885
-2.63504
-1.56684
-0.638292
0.160674
0.842076
1.41849
1.90222
2.30479
2.63673
2.9075
3.12552
3.29828
3.43237
3.53363
3.60713
3.65728
3.68784
3.70204
3.70259
3.69181
3.67167
3.64382
3.60965
3.57032
3.52681
3.47994
3.43037
3.37866
3.32525
3.27052
3.21475
3.15818
3.101
3.04333
2.98529
2.92694
2.86834
2.80951
2.75048
2.69124
2.63179
2.57211
2.51218
2.45197
2.39145
2.3306
2.26939
2.20777
2.14572
2.08321
2.0202
1.95666
1.89256
1.82788
1.76258
1.69663
1.63002
1.56272
1.4947
1.42595
1.35643
1.28613
1.21503
1.14311
1.07035
0.99674
0.922247
0.846873
0.770574
0.693391
0.61519
0.536201
0.455893
0.375338
0.292263
0.211371
0.122946
0.0472519
-12.4626
-12.6036
-12.7532
-12.9451
-13.2161
-13.5827
-14.0336
-14.5318
-15.0162
-15.4064
-15.616
-15.5681
-15.2112
-14.531
-13.5521
-12.3301
-10.9381
-9.45399
-7.94952
-6.48402
-5.10084
-3.82751
-2.67823
-1.65712
-0.761369
0.0161031
0.684728
1.25494
1.73733
2.14209
2.47871
2.75589
2.98143
3.16237
3.30498
3.41483
3.49681
3.5552
3.59368
3.61541
3.62308
3.61899
3.60511
3.58308
3.55432
3.52
3.48111
3.4385
3.39284
3.34471
3.29459
3.24285
3.18982
3.13575
3.08083
3.02522
2.96904
2.91239
2.85532
2.79787
2.74009
2.68197
2.62353
2.56476
2.50564
2.44616
2.3863
2.32604
2.26534
2.20419
2.14256
2.08041
2.01773
1.95448
1.89064
1.82618
1.76109
1.69532
1.62887
1.56171
1.49381
1.42516
1.35574
1.28553
1.2145
1.14265
1.06994
0.996379
0.92193
0.846596
0.770331
0.69318
0.615006
0.536044
0.45576
0.375228
0.292177
0.211308
0.122917
0.0472206
-12.2495
-12.3885
-12.5378
-12.7196
-12.9573
-13.2603
-13.6177
-13.9983
-14.3523
-14.6162
-14.7221
-14.6097
-14.2387
-13.5967
-12.7018
-11.5967
-10.3399
-8.99504
-7.6229
-6.27528
-4.99173
-3.79894
-2.71218
-1.73773
-0.875322
-0.120411
0.534148
1.09684
1.57664
1.98246
2.3228
2.60556
2.83795
3.02653
3.17722
3.29533
3.38555
3.452
3.49828
3.52747
3.54222
3.54482
3.53721
3.52105
3.49774
3.46848
3.43428
3.39598
3.3543
3.30982
3.26305
3.21438
3.16415
3.11263
3.06004
3.00654
2.95228
2.89737
2.84187
2.78585
2.72935
2.67239
2.61499
2.55716
2.49888
2.44016
2.38097
2.32131
2.26116
2.20049
2.13928
2.07752
2.01518
1.95223
1.88866
1.82444
1.75955
1.69397
1.62769
1.56067
1.4929
1.42436
1.35504
1.28491
1.21396
1.14217
1.06953
0.996013
0.92161
0.846316
0.770087
0.692968
0.614823
0.535888
0.455628
0.375121
0.292094
0.211246
0.122891
0.0471892
-12.0353
-12.1671
-12.3084
-12.4735
-12.6764
-12.9215
-13.198
-13.4796
-13.7261
-13.8872
-13.9096
-13.7461
-13.3651
-12.7563
-11.9329
-10.9282
-9.78858
-8.56627
-7.31242
-6.07204
-4.88083
-3.76411
-2.73761
-1.80909
-0.980301
-0.248799
0.390561
0.944507
1.42053
1.82632
2.16941
2.4569
2.69544
2.89109
3.0494
3.1754
3.27358
3.34789
3.40182
3.43837
3.46016
3.46942
3.46808
3.45779
3.43997
3.41582
3.38635
3.35243
3.31479
3.27403
3.23067
3.18513
3.13776
3.08885
3.03863
2.98731
2.93502
2.88188
2.828
2.77345
2.71827
2.6625
2.60618
2.54931
2.4919
2.43396
2.37547
2.31644
2.25684
2.19667
2.13591
2.07454
2.01255
1.94991
1.88662
1.82264
1.75797
1.69258
1.62646
1.55959
1.49196
1.42353
1.35431
1.28427
1.2134
1.14168
1.0691
0.99564
0.921284
0.846032
0.769841
0.692755
0.61464
0.535732
0.455497
0.375015
0.292012
0.211185
0.122866
0.0471574
-11.8173
-11.9381
-12.0661
-12.2102
-12.3781
-12.5706
-12.7772
-12.9758
-13.1341
-13.2119
-13.1674
-12.9641
-12.577
-11.9977
-11.2361
-10.318
-9.28037
-8.16602
-7.01792
-5.87497
-4.76911
-3.72399
-2.75529
-1.87171
-1.07654
-0.369073
0.254125
0.79822
1.26934
1.67405
2.01891
2.31031
2.55427
2.75638
2.92183
3.05533
3.16115
3.24309
3.30449
3.34829
3.37703
3.3929
3.39781
3.39341
3.3811
3.36209
3.3374
3.3079
3.27435
3.23737
3.19747
3.15511
3.11066
3.06442
3.01664
2.96752
2.91725
2.86595
2.81373
2.76067
2.70685
2.65231
2.59709
2.54122
2.48471
2.42756
2.3698
2.31141
2.25238
2.19273
2.13242
2.07146
2.00984
1.94752
1.88451
1.82079
1.75634
1.69116
1.62521
1.55849
1.49099
1.42269
1.35357
1.28362
1.21283
1.14119
1.06867
0.995263
0.920956
0.845747
0.769594
0.692542
0.614458
0.535578
0.455369
0.374911
0.291934
0.211125
0.122843
0.0471262
-11.5966
-11.7037
-11.8151
-11.9357
-12.0694
-12.2143
-12.3606
-12.4898
-12.5753
-12.5857
-12.4881
-12.2541
-11.864
-11.3114
-10.6034
-9.76034
-8.81178
-7.79269
-6.73912
-5.6846
-4.65744
-3.67949
-2.76596
-1.9261
-1.16433
-0.481314
0.124929
0.658192
1.12338
1.52598
1.87169
2.16615
2.4148
2.62276
2.79482
2.9354
3.04853
3.13783
3.20651
3.25741
3.29299
3.31541
3.32655
3.32801
3.32122
3.30736
3.28748
3.26246
3.23304
3.19987
3.1635
3.12438
3.08289
3.03936
2.99406
2.94721
2.899
2.84957
2.79905
2.74754
2.69511
2.64183
2.58775
2.53289
2.4773
2.42098
2.36396
2.30623
2.2478
2.18867
2.12884
2.0683
2.00705
1.94507
1.88235
1.81889
1.75467
1.68969
1.62392
1.55736
1.49
1.42182
1.35281
1.28296
1.21226
1.14068
1.06823
0.99488
0.920623
0.84546
0.769346
0.692329
0.614277
0.535425
0.455243
0.374809
0.291858
0.211066
0.12282
0.0470954
-11.3723
-11.4641
-11.5567
-11.653
-11.754
-11.8563
-11.9507
-12.0216
-12.0476
-12.0037
-11.8643
-11.6071
-11.217
-10.6886
-10.0278
-9.25014
-8.37958
-7.44469
-6.4757
-5.50134
-4.54662
-3.63147
-2.77039
-1.97285
-1.24402
-0.58567
0.00299522
0.524578
0.982882
1.38243
1.72808
2.02478
2.27738
2.49055
2.66869
2.8159
2.93598
3.03236
3.10809
3.16592
3.20822
3.23711
3.25441
3.26172
3.26043
3.25174
3.23669
3.21616
3.19091
3.16161
3.12879
3.09295
3.05448
3.01371
2.97094
2.9264
2.88029
2.83278
2.78399
2.73406
2.68306
2.63107
2.57814
2.52434
2.46969
2.41422
2.35796
2.30091
2.24309
2.18451
2.12516
2.06505
2.00418
1.94254
1.88013
1.81694
1.75296
1.68819
1.62261
1.55621
1.48899
1.42094
1.35204
1.28229
1.21167
1.14017
1.06778
0.994494
0.92029
0.845172
0.769099
0.692119
0.614098
0.535276
0.455121
0.37471
0.291785
0.21101
0.1228
0.0470662
-11.1459
-11.2212
-11.2943
-11.3663
-11.4364
-11.5006
-11.5504
-11.5726
-11.55
-11.4625
-11.2904
-11.0162
-10.6282
-10.1224
-9.50308
-8.78286
-7.98084
-7.12054
-6.22722
-5.32551
-4.43734
-3.58074
-2.76935
-2.01255
-1.31603
-0.682351
-0.111716
0.397473
0.848053
1.24366
1.58839
1.88652
2.14236
2.3601
2.54376
2.69715
2.82379
2.92693
3.00947
3.07403
3.12292
3.15816
3.18155
3.19466
3.19885
3.19533
3.18511
3.16909
3.14804
3.12263
3.09342
3.06089
3.02547
2.98751
2.94731
2.90511
2.86114
2.81558
2.76857
2.72024
2.6707
2.62003
2.5683
2.51557
2.46188
2.40728
2.3518
2.29545
2.23826
2.18023
2.12138
2.06172
2.00124
1.93996
1.87786
1.81494
1.75121
1.68665
1.62126
1.55503
1.48796
1.42004
1.35126
1.2816
1.21107
1.13965
1.06733
0.994105
0.919953
0.844883
0.768852
0.691908
0.613921
0.535128
0.455001
0.374614
0.291715
0.210955
0.12278
0.0470376
-10.9177
-10.9761
-11.0294
-11.0777
-11.1194
-11.1498
-11.1614
-11.143
-11.0806
-10.9586
-10.7611
-10.475
-10.0911
-9.60626
-9.02402
-8.3544
-7.61287
-6.81876
-5.99323
-5.15732
-4.3302
-3.52806
-2.76355
-2.04581
-1.38078
-0.771621
-0.219304
0.276918
0.719038
1.1099
1.4529
1.75169
2.01005
2.23172
2.42035
2.57943
2.71224
2.82181
2.91089
2.98197
3.03727
3.07874
3.10814
3.12698
3.13662
3.13823
3.13284
3.12134
3.10451
3.08301
3.05743
3.02825
2.99592
2.9608
2.9232
2.88339
2.8416
2.79801
2.75281
2.70612
2.65807
2.60874
2.55823
2.50659
2.4539
2.40019
2.3455
2.28986
2.23331
2.17586
2.11752
2.05831
1.99824
1.93731
1.87553
1.8129
1.74942
1.68508
1.61989
1.55383
1.48691
1.41912
1.35046
1.28091
1.21047
1.13913
1.06688
0.993715
0.919619
0.844596
0.768608
0.691702
0.613749
0.534986
0.454887
0.374523
0.291651
0.210905
0.122763
0.0470122
-10.689
-10.7304
-10.7644
-10.7902
-10.8058
-10.8064
-10.7853
-10.7331
-10.6385
-10.489
-10.2725
-9.97848
-9.60008
-9.13495
-8.58596
-7.96119
-7.27321
-6.53799
-5.77324
-4.99692
-4.22573
-3.4741
-2.7537
-2.07325
-1.43875
-0.853788
-0.319923
0.162894
0.595932
0.981341
1.32186
1.62058
1.88077
2.10574
2.29878
2.46306
2.60162
2.71727
2.8126
2.88997
2.9515
2.99906
3.03434
3.05884
3.07387
3.08058
3.08001
3.07302
3.06041
3.04284
3.0209
2.9951
2.96588
2.93363
2.89866
2.86126
2.82167
2.78011
2.73674
2.69171
2.64517
2.59721
2.54794
2.49742
2.44573
2.39293
2.33906
2.28415
2.22826
2.17139
2.11357
2.05483
1.99517
1.93461
1.87316
1.81082
1.74759
1.68348
1.61849
1.55261
1.48584
1.41819
1.34965
1.28021
1.20986
1.1386
1.06642
0.993322
0.919281
0.844308
0.768364
0.691497
0.613579
0.534846
0.454776
0.374434
0.291589
0.210855
0.122745
0.0469861
-10.4607
-10.4855
-10.5008
-10.5056
-10.4975
-10.472
-10.423
-10.3428
-10.2223
-10.0514
-9.82062
-9.52204
-9.15033
-8.70379
-8.18482
-7.6
-6.95963
-6.27691
-5.56673
-4.84438
-4.12436
-3.41952
-2.74048
-2.09547
-1.49044
-0.929204
-0.413774
0.0553348
0.478782
0.858107
1.19547
1.49343
1.75479
1.98245
2.17935
2.34835
2.49222
2.61359
2.71487
2.79828
2.86583
2.91932
2.96036
2.99042
3.01076
3.02253
3.02673
3.02425
3.01584
3.0022
2.98392
2.96151
2.93543
2.90606
2.87375
2.83879
2.80143
2.7619
2.72039
2.67706
2.63205
2.58549
2.53747
2.48809
2.43743
2.38555
2.3325
2.27834
2.22311
2.16684
2.10956
2.05129
1.99206
1.93187
1.87075
1.80871
1.74574
1.68186
1.61707
1.55137
1.48477
1.41726
1.34884
1.2795
1.20925
1.13807
1.06597
0.992935
0.918952
0.844029
0.76813
0.691302
0.613419
0.534716
0.454675
0.374356
0.291538
0.210814
0.122736
0.0469661
-10.2338
-10.2426
-10.2402
-10.2256
-10.1962
-10.1479
-10.0754
-9.97214
-9.83073
-9.64329
-9.40239
-9.10187
-8.73772
-8.30876
-7.81705
-7.268
-6.6701
-6.03432
-5.37317
-4.6997
-4.02649
-3.36489
-2.72452
-2.11309
-1.53636
-0.998253
-0.501106
-0.0458771
0.367586
0.740295
1.07389
1.37047
1.63238
1.86214
2.06235
2.23558
2.38435
2.51107
2.61798
2.70716
2.7805
2.83974
2.88641
2.9219
2.94748
2.96424
2.97317
2.97514
2.97093
2.96121
2.94658
2.92757
2.90463
2.87816
2.84852
2.81601
2.78091
2.74343
2.7038
2.66218
2.61872
2.57356
2.52682
2.4786
2.42898
2.37803
2.32583
2.27243
2.21787
2.16221
2.10547
2.04768
1.98888
1.92908
1.8683
1.80655
1.74385
1.68021
1.61563
1.55012
1.48367
1.4163
1.34801
1.27878
1.20863
1.13754
1.06551
0.992541
0.918616
0.843745
0.767892
0.691103
0.613257
0.534585
0.454574
0.374276
0.291484
0.210769
0.122721
0.0469408
-10.0098
-10.0033
-9.98437
-9.95191
-9.90354
-9.83545
-9.743
-9.62081
-9.46283
-9.26283
-9.015
-8.71462
-8.35868
-7.94639
-7.47955
-6.96267
-6.4028
-5.80907
-5.19206
-4.56288
-3.93244
-3.31074
-2.70646
-2.12671
-1.57703
-1.06135
-0.582206
-0.140904
0.262295
0.627954
0.957268
1.25189
1.51377
1.74508
1.94808
2.12506
2.27829
2.40998
2.52219
2.61686
2.69578
2.76056
2.81269
2.8535
2.8842
2.90586
2.91947
2.92586
2.92581
2.91999
2.909
2.89338
2.87358
2.85002
2.82306
2.79302
2.76017
2.72477
2.68703
2.64713
2.60524
2.56151
2.51606
2.469
2.42043
2.37044
2.31909
2.26645
2.21259
2.15754
2.10134
2.04405
1.98568
1.92627
1.86583
1.80439
1.74196
1.67856
1.61419
1.54886
1.48259
1.41536
1.34719
1.27808
1.20802
1.13702
1.06507
0.992166
0.918301
0.843482
0.767674
0.690926
0.613117
0.534475
0.454495