/*--------------------------------*- C++ -*----------------------------------*\
| =========                 |                                                 |
| \\      /  F ield         | OpenFOAM: The Open Source CFD Toolbox           |
|  \\    /   O peration     | Version:  2.1.1                                 |
|   \\  /    A nd           | Web:      www.OpenFOAM.org                      |
|    \\/     M anipulation  |                                                 |
\*---------------------------------------------------------------------------*/
FoamFile
{
    version     2.0;
    format      ascii;
    class       surfaceScalarField;
    location    "0.015";
    object      phi;
}
// * * * * * * * * * * * * * * * * * * * * * * * * * * * * * * * * * * * * * //

dimensions      [0 3 -1 0 0 0 0];

internalField   nonuniform List<scalar> 
13452
(
4.60053e-05
2.2482e-05
2.9684e-05
1.63212e-05
2.12275e-05
8.45649e-06
1.73511e-05
3.87641e-06
1.57396e-05
1.61153e-06
1.49691e-05
7.70547e-07
1.4503e-05
4.66075e-07
1.4165e-05
3.37994e-07
1.38957e-05
2.69259e-07
1.36806e-05
2.15165e-07
1.35158e-05
1.64723e-07
1.33986e-05
1.17262e-07
1.33256e-05
7.29621e-08
1.3294e-05
3.16048e-08
1.33014e-05
-7.35674e-09
1.33436e-05
-4.2267e-08
1.342e-05
-7.63456e-08
1.35302e-05
-1.10209e-07
1.36756e-05
-1.45441e-07
1.38578e-05
-1.82122e-07
1.40784e-05
-2.20681e-07
1.434e-05
-2.6155e-07
1.4645e-05
-3.04975e-07
1.49961e-05
-3.51137e-07
1.53965e-05
-4.00367e-07
1.58497e-05
-4.53248e-07
1.63611e-05
-5.11405e-07
1.69374e-05
-5.76307e-07
1.75928e-05
-6.55419e-07
1.83381e-05
-7.45225e-07
1.9232e-05
-8.9393e-07
2.02434e-05
-1.01145e-06
-1.618e-06
2.18614e-05
7.49178e-05
1.80081e-05
7.04361e-05
2.0803e-05
6.33796e-05
1.5513e-05
5.67711e-05
1.04849e-05
5.17128e-05
6.66986e-06
4.8128e-05
4.35531e-06
4.55924e-05
3.00172e-06
4.37657e-05
2.16469e-06
4.2417e-05
1.61796e-06
4.13987e-05
1.23347e-06
4.06207e-05
9.42666e-07
4.00276e-05
7.1045e-07
3.95837e-05
5.16843e-07
3.92656e-05
3.49638e-07
3.90573e-05
2.01018e-07
3.89498e-05
6.52182e-08
3.89361e-05
-6.2646e-08
3.90109e-05
-1.85e-07
3.91709e-05
-3.05458e-07
3.94142e-05
-4.25425e-07
3.97398e-05
-5.46301e-07
4.01473e-05
-6.69023e-07
4.06365e-05
-7.94144e-07
4.12074e-05
-9.22092e-07
4.18606e-05
-1.05358e-06
4.25974e-05
-1.19001e-06
4.34204e-05
-1.33443e-06
4.43352e-05
-1.49108e-06
4.53504e-05
-1.67064e-06
4.64845e-05
-1.87931e-06
4.77542e-05
-2.16369e-06
4.92564e-05
-2.5136e-06
-3.15395e-06
5.07923e-05
7.85218e-05
1.19428e-05
8.23431e-05
1.69817e-05
8.30214e-05
1.48347e-05
8.15432e-05
1.19631e-05
7.90762e-05
9.13693e-06
7.6464e-05
6.96751e-06
7.40388e-05
5.42693e-06
7.19047e-05
4.29874e-06
7.00764e-05
3.44621e-06
6.85313e-05
2.77859e-06
6.72382e-05
2.23578e-06
6.61675e-05
1.78111e-06
6.52936e-05
1.39082e-06
6.45947e-05
1.04852e-06
6.40534e-05
7.42274e-07
6.36552e-05
4.63422e-07
6.33882e-05
2.0442e-07
6.32457e-05
-4.25585e-08
6.32235e-05
-2.8325e-07
6.33153e-05
-5.17204e-07
6.35151e-05
-7.46166e-07
6.38177e-05
-9.71527e-07
6.42178e-05
-1.19429e-06
6.47111e-05
-1.41538e-06
6.52937e-05
-1.63619e-06
6.59627e-05
-1.85905e-06
6.67165e-05
-2.08821e-06
6.75552e-05
-2.3298e-06
6.84796e-05
-2.59505e-06
6.94954e-05
-2.89507e-06
7.05929e-05
-3.26114e-06
7.17789e-05
-3.69963e-06
-4.28566e-06
7.29106e-05
7.81476e-05
8.32183e-06
8.19257e-05
1.32036e-05
8.46246e-05
1.21358e-05
8.62549e-05
1.03327e-05
8.695e-05
8.44186e-06
8.70664e-05
6.85115e-06
8.68494e-05
5.6439e-06
8.64439e-05
4.70426e-06
8.59436e-05
3.9465e-06
8.54065e-05
3.31569e-06
8.48693e-05
2.77294e-06
8.43569e-05
2.29351e-06
8.38863e-05
1.86144e-06
8.34695e-05
1.46531e-06
8.3115e-05
1.09678e-06
8.28285e-05
7.49957e-07
8.26131e-05
4.19816e-07
8.24673e-05
1.0328e-07
8.23871e-05
-2.03039e-07
8.2371e-05
-5.01152e-07
8.24184e-05
-7.93568e-07
8.2528e-05
-1.08113e-06
8.2698e-05
-1.36427e-06
8.29261e-05
-1.64353e-06
8.32101e-05
-1.92012e-06
8.35474e-05
-2.19634e-06
8.39355e-05
-2.47636e-06
8.43719e-05
-2.76622e-06
8.48525e-05
-3.0756e-06
8.53721e-05
-3.41469e-06
8.59129e-05
-3.80191e-06
8.64566e-05
-4.24332e-06
-4.75545e-06
8.69264e-05
7.89929e-05
5.98475e-06
8.15958e-05
1.06007e-05
8.35259e-05
1.02057e-05
8.49719e-05
8.88676e-06
8.5991e-05
7.42278e-06
8.67323e-05
6.10984e-06
8.72993e-05
5.07686e-06
8.77413e-05
4.26227e-06
8.8091e-05
3.59682e-06
8.83708e-05
3.03594e-06
8.85962e-05
2.54755e-06
8.87795e-05
2.11012e-06
8.89312e-05
1.70977e-06
8.90593e-05
1.33724e-06
8.91702e-05
9.85823e-07
8.927e-05
6.50223e-07
8.93634e-05
3.26401e-07
8.94533e-05
1.33391e-08
8.95413e-05
-2.91006e-07
8.96295e-05
-5.89373e-07
8.97192e-05
-8.83216e-07
8.98112e-05
-1.17321e-06
8.99068e-05
-1.45984e-06
9.00071e-05
-1.74376e-06
9.01131e-05
-2.0262e-06
9.02261e-05
-2.30937e-06
9.03468e-05
-2.59697e-06
9.04747e-05
-2.89415e-06
9.06073e-05
-3.20819e-06
9.07389e-05
-3.54633e-06
9.08553e-05
-3.91833e-06
9.09384e-05
-4.32634e-06
-4.76757e-06
9.09505e-05
8.04645e-05
4.3662e-06
8.25106e-05
8.55452e-06
8.40025e-05
8.71386e-06
8.50687e-05
7.82054e-06
8.57984e-05
6.69303e-06
8.63194e-05
5.58891e-06
8.67321e-05
4.66407e-06
8.70835e-05
3.91096e-06
8.73959e-05
3.28434e-06
8.76807e-05
2.75121e-06
8.79422e-05
2.28606e-06
8.81824e-05
1.86988e-06
8.84026e-05
1.48954e-06
8.8604e-05
1.13585e-06
8.87877e-05
8.02132e-07
8.89545e-05
4.83415e-07
8.9105e-05
1.75922e-07
8.92422e-05
-1.23882e-07
8.93699e-05
-4.18702e-07
8.94899e-05
-7.09301e-07
8.96032e-05
-9.96522e-07
8.97111e-05
-1.28112e-06
8.9815e-05
-1.56377e-06
8.99166e-05
-1.84537e-06
9.00178e-05
-2.12736e-06
9.01203e-05
-2.41194e-06
9.02257e-05
-2.70235e-06
9.03343e-05
-3.00276e-06
9.04445e-05
-3.31835e-06
9.0552e-05
-3.65389e-06
9.06474e-05
-4.01373e-06
9.07179e-05
-4.39681e-06
-4.79493e-06
9.07453e-05
8.22354e-05
3.22936e-06
8.38994e-05
6.89053e-06
8.51929e-05
7.42031e-06
8.61345e-05
6.87896e-06
8.67862e-05
6.04134e-06
8.72378e-05
5.13731e-06
8.75769e-05
4.32503e-06
8.78524e-05
3.63546e-06
8.80906e-05
3.04613e-06
8.83065e-05
2.53529e-06
8.85079e-05
2.08465e-06
8.86988e-05
1.67898e-06
8.88813e-05
1.307e-06
8.90567e-05
9.60469e-07
8.92257e-05
6.33146e-07
8.93889e-05
3.20251e-07
8.95469e-05
1.79205e-08
8.97003e-05
-2.77283e-07
8.98493e-05
-5.6773e-07
8.99946e-05
-8.54587e-07
9.01368e-05
-1.13876e-06
9.02769e-05
-1.42117e-06
9.04158e-05
-1.7027e-06
9.05548e-05
-1.98441e-06
9.06953e-05
-2.26779e-06
9.08382e-05
-2.55487e-06
9.09842e-05
-2.84832e-06
9.11327e-05
-3.15129e-06
9.12815e-05
-3.46719e-06
9.14263e-05
-3.79868e-06
9.15596e-05
-4.14696e-06
9.16721e-05
-4.50939e-06
-4.87709e-06
9.17543e-05
8.42177e-05
2.42715e-06
8.55551e-05
5.55318e-06
8.66826e-05
6.29276e-06
8.75476e-05
6.01403e-06
8.8183e-05
5.4059e-06
8.86418e-05
4.67852e-06
8.89892e-05
3.97763e-06
8.92688e-05
3.35585e-06
8.95062e-05
2.80875e-06
8.97173e-05
2.32419e-06
8.99116e-05
1.89038e-06
9.00944e-05
1.49608e-06
9.02693e-05
1.13213e-06
9.04383e-05
7.91484e-07
9.06028e-05
4.68638e-07
9.07639e-05
1.59208e-07
9.09221e-05
-1.40298e-07
9.10777e-05
-4.32864e-07
9.12307e-05
-7.20817e-07
9.13817e-05
-1.00553e-06
9.1531e-05
-1.28806e-06
9.16793e-05
-1.56945e-06
9.18273e-05
-1.85071e-06
9.19759e-05
-2.133e-06
9.21258e-05
-2.41773e-06
9.22776e-05
-2.70666e-06
9.24312e-05
-3.00187e-06
9.25855e-05
-3.30562e-06
9.27383e-05
-3.61997e-06
9.28857e-05
-3.94612e-06
9.30223e-05
-4.28358e-06
9.31421e-05
-4.62916e-06
-4.97511e-06
9.32401e-05
8.63731e-05
1.85282e-06
8.74454e-05
4.4808e-06
8.8422e-05
5.31622e-06
8.92064e-05
5.22961e-06
8.98118e-05
4.80046e-06
9.02689e-05
4.2215e-06
9.06246e-05
3.62193e-06
9.09154e-05
3.06504e-06
9.11638e-05
2.56033e-06
9.13843e-05
2.10367e-06
9.15861e-05
1.68856e-06
9.17749e-05
1.30731e-06
9.19543e-05
9.52782e-07
9.21266e-05
6.19145e-07
9.22936e-05
3.0165e-07
9.24564e-05
-3.59959e-09
9.26159e-05
-2.99763e-07
9.27725e-05
-5.89492e-07
9.29266e-05
-8.74937e-07
9.30787e-05
-1.15759e-06
9.32292e-05
-1.43861e-06
9.33789e-05
-1.71909e-06
9.35282e-05
-2.00007e-06
9.36779e-05
-2.28267e-06
9.38283e-05
-2.56818e-06
9.39797e-05
-2.85803e-06
9.41316e-05
-3.15381e-06
9.4283e-05
-3.45702e-06
9.44318e-05
-3.76876e-06
9.4575e-05
-4.0893e-06
9.47088e-05
-4.41741e-06
9.48297e-05
-4.75003e-06
-5.08108e-06
9.49357e-05
8.86685e-05
1.43437e-06
8.95285e-05
3.6208e-06
9.0371e-05
4.47365e-06
9.10794e-05
4.52128e-06
9.16505e-05
4.22935e-06
9.20995e-05
3.77245e-06
9.24583e-05
3.26311e-06
9.2756e-05
2.76737e-06
9.3012e-05
2.30436e-06
9.32394e-05
1.87625e-06
9.34471e-05
1.48087e-06
9.36408e-05
1.11363e-06
9.38242e-05
7.6937e-07
9.39998e-05
4.43468e-07
9.41695e-05
1.31942e-07
9.43345e-05
-1.68596e-07
9.44958e-05
-4.60979e-07
9.46539e-05
-7.47599e-07
9.48094e-05
-1.03043e-06
9.49627e-05
-1.31094e-06
9.51144e-05
-1.59033e-06
9.5265e-05
-1.86966e-06
9.54149e-05
-2.14998e-06
9.55646e-05
-2.43232e-06
9.57142e-05
-2.71782e-06
9.58638e-05
-3.00761e-06
9.60128e-05
-3.30283e-06
9.61602e-05
-3.6044e-06
9.63042e-05
-3.9128e-06
9.64427e-05
-4.22777e-06
9.65731e-05
-4.54786e-06
9.66936e-05
-4.87045e-06
-5.191e-06
9.68035e-05
9.10821e-05
1.12358e-06
9.17738e-05
2.92913e-06
9.24997e-05
3.74775e-06
9.31383e-05
3.88258e-06
9.3674e-05
3.69369e-06
9.41109e-05
3.33559e-06
9.44689e-05
2.90504e-06
9.47706e-05
2.46572e-06
9.50323e-05
2.04265e-06
9.52657e-05
1.64289e-06
9.54788e-05
1.2677e-06
9.56773e-05
9.15153e-07
9.58648e-05
5.81889e-07
9.60438e-05
2.64414e-07
9.62163e-05
-4.05065e-08
9.63834e-05
-3.35752e-07
9.65463e-05
-6.23818e-07
9.67055e-05
-9.0684e-07
9.68617e-05
-1.18661e-06
9.70153e-05
-1.46455e-06
9.71668e-05
-1.74183e-06
9.73167e-05
-2.01951e-06
9.74653e-05
-2.29857e-06
9.76129e-05
-2.57994e-06
9.77596e-05
-2.86457e-06
9.79053e-05
-3.15333e-06
9.80495e-05
-3.44698e-06
9.81911e-05
-3.74604e-06
9.83289e-05
-4.0506e-06
9.84613e-05
-4.36011e-06
9.85866e-05
-4.67322e-06
9.87041e-05
-4.98786e-06
-5.30074e-06
9.88138e-05
9.36003e-05
8.8792e-07
9.41594e-05
2.37009e-06
9.47839e-05
3.12318e-06
9.53585e-05
3.30804e-06
9.58583e-05
3.1939e-06
9.62801e-05
2.91373e-06
9.6635e-05
2.55013e-06
9.69392e-05
2.16161e-06
9.72057e-05
1.77608e-06
9.74446e-05
1.40403e-06
9.7663e-05
1.04931e-06
9.7866e-05
7.12076e-07
9.80574e-05
3.90537e-07
9.82396e-05
8.22332e-08
9.84144e-05
-2.15356e-07
9.85833e-05
-5.04618e-07
9.87472e-05
-7.87707e-07
9.89069e-05
-1.06652e-06
9.90629e-05
-1.34266e-06
9.92159e-05
-1.61749e-06
9.93661e-05
-1.89211e-06
9.95141e-05
-2.16751e-06
9.96601e-05
-2.44458e-06
9.98043e-05
-2.72415e-06
9.99468e-05
-3.00697e-06
0.000100087
-3.29369e-06
0.000100225
-3.5848e-06
0.000100359
-3.88051e-06
0.00010049
-4.18069e-06
0.000100614
-4.48473e-06
0.000100732
-4.79144e-06
0.000100844
-5.09927e-06
-5.40586e-06
0.000100949
9.62146e-05
7.05429e-07
9.66695e-05
1.91512e-06
9.72071e-05
2.58565e-06
9.77233e-05
2.79186e-06
9.8188e-05
2.72915e-06
9.85929e-05
2.50884e-06
9.89422e-05
2.20086e-06
9.92465e-05
1.85723e-06
9.95162e-05
1.50637e-06
9.97594e-05
1.16091e-06
9.99822e-05
8.26501e-07
0.000100189
5.0494e-07
0.000100384
1.95712e-07
0.000100569
-1.02722e-07
0.000100746
-3.92237e-07
0.000100916
-6.7476e-07
0.000101081
-9.52122e-07
0.00010124
-1.22598e-06
0.000101395
-1.49778e-06
0.000101546
-1.76875e-06
0.000101694
-2.03993e-06
0.000101839
-2.31224e-06
0.000101981
-2.58646e-06
0.00010212
-2.86329e-06
0.000102256
-3.14333e-06
0.00010239
-3.42703e-06
0.00010252
-3.71467e-06
0.000102645
-4.00627e-06
0.000102766
-4.30158e-06
0.000102881
-4.59999e-06
0.00010299
-4.90052e-06
0.000103093
-5.20204e-06
-5.50285e-06
0.00010319
9.892e-05
5.6116e-07
9.92935e-05
1.54163e-06
9.97569e-05
2.12223e-06
0.00010022
2.32837e-06
0.000100651
2.29816e-06
0.000101038
2.12224e-06
0.00010138
1.85928e-06
0.000101682
1.55441e-06
0.000101954
1.23493e-06
0.0001022
9.14509e-07
0.000102427
5.99973e-07
0.000102637
2.94258e-07
0.000102835
-2.14844e-09
0.000103023
-2.90023e-07
0.000103201
-5.70682e-07
0.000103372
-8.45645e-07
0.000103536
-1.11644e-06
0.000103695
-1.38451e-06
0.000103848
-1.65113e-06
0.000103997
-1.91742e-06
0.000104141
-2.18432e-06
0.000104282
-2.45264e-06
0.000104418
-2.72308e-06
0.000104551
-2.99621e-06
0.00010468
-3.27247e-06
0.000104805
-3.55216e-06
0.000104926
-3.83539e-06
0.000105042
-4.12207e-06
0.000105152
-4.41188e-06
0.000105256
-4.70426e-06
0.000105354
-4.99842e-06
0.000105446
-5.29352e-06
-5.58827e-06
0.000105531
0.000101714
4.44824e-07
0.000102024
1.23193e-06
0.000102425
1.72133e-06
0.000102841
1.91193e-06
0.00010324
1.89896e-06
0.000103608
1.75437e-06
0.000103941
1.5268e-06
0.00010424
1.25467e-06
0.000104512
9.6314e-07
0.000104761
6.66011e-07
0.00010499
3.70686e-07
0.000105203
8.08247e-08
0.000105404
-2.0236e-07
0.000105593
-4.79043e-07
0.000105772
-7.50081e-07
0.000105943
-1.01664e-06
0.000106107
-1.27999e-06
0.000106263
-1.54137e-06
0.000106414
-1.80189e-06
0.000106559
-2.06255e-06
0.000106699
-2.3242e-06
0.000106834
-2.58756e-06
0.000106964
-2.8532e-06
0.00010709
-3.12158e-06
0.00010721
-3.39302e-06
0.000107326
-3.66768e-06
0.000107436
-3.94557e-06
0.00010754
-4.2265e-06
0.000107639
-4.51013e-06
0.00010773
-4.79594e-06
0.000107815
-5.08326e-06
0.000107893
-5.37146e-06
-5.6595e-06
0.000107964
0.000104596
3.49224e-07
0.000104856
9.72175e-07
0.000105204
1.37273e-06
0.000105579
1.53705e-06
0.000105949
1.52924e-06
0.000106298
1.40507e-06
0.000106621
1.20435e-06
0.000106916
9.5925e-07
0.000107187
6.92198e-07
0.000107437
4.16431e-07
0.000107668
1.39463e-07
0.000107883
-1.34686e-07
0.000108085
-4.04337e-07
0.000108276
-6.69232e-07
0.000108455
-9.29876e-07
0.000108626
-1.18716e-06
0.000108788
-1.44212e-06
0.000108942
-1.69581e-06
0.00010909
-1.94924e-06
0.00010923
-2.20326e-06
0.000109365
-2.45863e-06
0.000109493
-2.71596e-06
0.000109616
-2.97575e-06
0.000109733
-3.23832e-06
0.000109843
-3.50388e-06
0.000109948
-3.7725e-06
0.000110047
-4.04407e-06
0.000110139
-4.31836e-06
0.000110223
-4.59499e-06
0.000110301
-4.87348e-06
0.000110371
-5.15324e-06
0.000110433
-5.43375e-06
-5.71408e-06
0.000110488
0.000107566
2.69236e-07
0.000107787
7.51591e-07
0.000108092
1.06756e-06
0.00010843
1.19842e-06
0.000108773
1.18634e-06
0.000109105
1.07361e-06
0.000109417
8.92303e-07
0.000109707
6.68949e-07
0.000109976
4.22998e-07
0.000110226
1.66633e-07
0.000110458
-9.2909e-08
0.000110675
-3.51559e-07
0.000110878
-6.07411e-07
0.000111069
-8.5994e-07
0.000111249
-1.10941e-06
0.000111418
-1.3565e-06
0.000111578
-1.60208e-06
0.000111729
-1.84706e-06
0.000111872
-2.09231e-06
0.000112008
-2.3386e-06
0.000112136
-2.58659e-06
0.000112256
-2.83679e-06
0.00011237
-3.0896e-06
0.000112477
-3.34525e-06
0.000112577
-3.60385e-06
0.00011267
-3.86536e-06
0.000112756
-4.12962e-06
0.000112834
-4.39633e-06
0.000112904
-4.66509e-06
0.000112966
-4.93542e-06
0.000113019
-5.20678e-06
0.000113064
-5.47867e-06
-5.7502e-06
0.0001131
0.000110625
2.01129e-07
0.000110815
5.61719e-07
0.000111084
7.98113e-07
0.000111392
8.90992e-07
0.000111711
8.67427e-07
0.000112025
7.58808e-07
0.000112327
5.90547e-07
0.000112612
3.84191e-07
0.000112879
1.56172e-07
0.000113128
-8.27015e-08
0.000113361
-3.25775e-07
0.000113579
-5.69181e-07
0.000113782
-8.10998e-07
0.000113973
-1.05059e-06
0.000114152
-1.28809e-06
0.000114319
-1.52404e-06
0.000114476
-1.75919e-06
0.000114623
-1.99435e-06
0.000114761
-2.2303e-06
0.000114891
-2.46771e-06
0.000115011
-2.70715e-06
0.000115123
-2.94906e-06
0.000115228
-3.19373e-06
0.000115324
-3.44132e-06
0.000115412
-3.69185e-06
0.000115491
-3.94519e-06
0.000115563
-4.20111e-06
0.000115626
-4.45926e-06
0.00011568
-4.71921e-06
0.000115725
-4.98046e-06
0.000115761
-5.24247e-06
0.000115787
-5.50472e-06
-5.76632e-06
0.000115803
0.000113774
1.42124e-07
0.00011394
3.95887e-07
0.000114181
5.57772e-07
0.000114462
6.10007e-07
0.00011476
5.69495e-07
0.000115059
4.59074e-07
0.000115351
2.98504e-07
0.000115631
1.04968e-07
0.000115895
-1.08008e-07
0.000116143
-3.31172e-07
0.000116376
-5.58679e-07
0.000116594
-7.87073e-07
0.000116798
-1.0146e-06
0.000116988
-1.24065e-06
0.000117165
-1.46533e-06
0.00011733
-1.68914e-06
0.000117484
-1.91276e-06
0.000117626
-2.13693e-06
0.000117758
-2.36236e-06
0.00011788
-2.58966e-06
0.000117992
-2.81933e-06
0.000118095
-3.05173e-06
0.000118188
-3.28707e-06
0.000118272
-3.52543e-06
0.000118347
-3.76675e-06
0.000118413
-4.01083e-06
0.000118469
-4.25737e-06
0.000118516
-4.50596e-06
0.000118553
-4.75613e-06
0.00011858
-5.00737e-06
0.000118596
-5.25909e-06
0.000118602
-5.5107e-06
-5.76132e-06
0.000118597
0.000117016
9.00914e-08
0.000117164
2.48751e-07
0.00011738
3.40804e-07
0.00011764
3.50957e-07
0.00011792
2.89431e-07
0.000118206
1.72491e-07
0.00011849
1.51677e-08
0.000118764
-1.69128e-07
0.000119025
-3.69592e-07
0.000119273
-5.78622e-07
0.000119505
-7.91344e-07
0.000119723
-1.00488e-06
0.000119926
-1.21779e-06
0.000120115
-1.42964e-06
0.000120291
-1.6406e-06
0.000120453
-1.85119e-06
0.000120602
-2.0621e-06
0.000120739
-2.27404e-06
0.000120864
-2.48768e-06
0.000120978
-2.70358e-06
0.000121081
-2.9222e-06
0.000121173
-3.14383e-06
0.000121255
-3.36861e-06
0.000121326
-3.59655e-06
0.000121387
-3.82752e-06
0.000121437
-4.06124e-06
0.000121477
-4.29735e-06
0.000121507
-4.5354e-06
0.000121525
-4.77485e-06
0.000121533
-5.01514e-06
0.00012153
-5.25563e-06
0.000121515
-5.49568e-06
-5.73436e-06
0.000121488
0.000120353
4.33614e-08
0.000120486
1.15941e-07
0.000120684
1.42194e-07
0.000120926
1.09569e-07
0.000121191
2.40014e-08
0.000121467
-1.03192e-07
0.000121743
-2.6089e-07
0.000122013
-4.38945e-07
0.000122272
-6.29048e-07
0.000122519
-8.2527e-07
0.000122751
-1.02382e-06
0.000122969
-1.22252e-06
0.000123171
-1.42039e-06
0.000123359
-1.61726e-06
0.000123532
-1.81349e-06
0.00012369
-2.00969e-06
0.000123835
-2.20661e-06
0.000123966
-2.40497e-06
0.000124084
-2.60545e-06
0.000124189
-2.8086e-06
0.000124281
-3.01481e-06
0.000124362
-3.22435e-06
0.00012443
-3.43729e-06
0.000124487
-3.65359e-06
0.000124533
-3.87304e-06
0.000124567
-4.09531e-06
0.00012459
-4.31996e-06
0.000124601
-4.54648e-06
0.0001246
-4.77429e-06
0.000124588
-5.00275e-06
0.000124563
-5.23118e-06
0.000124527
-5.45885e-06
-5.68479e-06
0.000124477
0.000123786
5.93125e-10
0.000123908
-6.17609e-09
0.000124093
-4.25228e-08
0.000124321
-1.18272e-07
0.000124575
-2.30146e-07
0.000124842
-3.70526e-07
0.000125113
-5.315e-07
0.000125379
-7.0573e-07
0.000125638
-8.87185e-07
0.000125884
-1.0716e-06
0.000126116
-1.25633e-06
0.000126334
-1.44003e-06
0.000126536
-1.62226e-06
0.000126722
-1.80325e-06
0.000126892
-1.98361e-06
0.000127046
-2.16413e-06
0.000127185
-2.34567e-06
0.00012731
-2.52902e-06
0.000127419
-2.71489e-06
0.000127514
-2.90383e-06
0.000127596
-3.09623e-06
0.000127664
-3.29232e-06
0.000127718
-3.49213e-06
0.00012776
-3.69556e-06
0.00012779
-3.90234e-06
0.000127806
-4.11207e-06
0.000127811
-4.32426e-06
0.000127803
-4.53833e-06
0.000127782
-4.75363e-06
0.000127749
-4.96948e-06
0.000127703
-5.18511e-06
0.000127643
-5.39973e-06
-5.61232e-06
0.000127571
0.000127319
-3.95696e-08
0.000127433
-1.20787e-07
0.000127608
-2.17407e-07
0.000127826
-3.36548e-07
0.000128073
-4.76524e-07
0.000128335
-6.3243e-07
0.000128602
-7.9898e-07
0.000128868
-9.71277e-07
0.000129126
-1.14538e-06
0.000129373
-1.31865e-06
0.000129606
-1.48965e-06
0.000129824
-1.65792e-06
0.000130026
-1.82371e-06
0.00013021
-1.98772e-06
0.000130377
-2.15088e-06
0.000130528
-2.31425e-06
0.000130661
-2.47884e-06
0.000130777
-2.64559e-06
0.000130878
-2.81525e-06
0.000130962
-2.98842e-06
0.000131031
-3.16549e-06
0.000131086
-3.34668e-06
0.000131126
-3.532e-06
0.000131151
-3.72129e-06
0.000131163
-3.91422e-06
0.000131162
-4.11034e-06
0.000131146
-4.3091e-06
0.000131118
-4.50984e-06
0.000131076
-4.71185e-06
0.000131021
-4.91438e-06
0.000130953
-5.1166e-06
0.00013087
-5.31765e-06
-5.51644e-06
0.000130775
0.000130953
-7.79854e-08
0.000131063
-2.30763e-07
0.000131232
-3.86366e-07
0.000131445
-5.49347e-07
0.000131687
-7.18903e-07
0.000131947
-8.92159e-07
0.000132214
-1.06601e-06
0.000132481
-1.23771e-06
0.00013274
-1.40526e-06
0.000132989
-1.56761e-06
0.000133224
-1.72459e-06
0.000133443
-1.87673e-06
0.000133644
-2.02499e-06
0.000133827
-2.17066e-06
0.000133992
-2.3151e-06
0.000134137
-2.45966e-06
0.000134264
-2.60561e-06
0.000134372
-2.75401e-06
0.000134463
-2.90576e-06
0.000134536
-3.0615e-06
0.000134592
-3.22168e-06
0.000134632
-3.38649e-06
0.000134656
-3.55593e-06
0.000134664
-3.7298e-06
0.000134658
-3.90774e-06
0.000134637
-4.08923e-06
0.000134601
-4.27364e-06
0.000134552
-4.46026e-06
0.000134488
-4.64831e-06
0.000134411
-4.83697e-06
0.000134319
-5.02534e-06
0.000134214
-5.21249e-06
-5.39733e-06
0.000134095
0.000134693
-1.15688e-07
0.000134801
-3.38916e-07
0.000134968
-5.53297e-07
0.00013518
-7.60955e-07
0.000135422
-9.61518e-07
0.000135684
-1.15366e-06
0.000135954
-1.33613e-06
0.000136224
-1.50812e-06
0.000136488
-1.66947e-06
0.000136741
-1.82072e-06
0.00013698
-1.96299e-06
0.000137201
-2.09787e-06
0.000137403
-2.22717e-06
0.000137585
-2.3528e-06
0.000137747
-2.47665e-06
0.000137888
-2.60046e-06
0.000138008
-2.72576e-06
0.000138108
-2.85384e-06
0.000138188
-2.98574e-06
0.000138248
-3.12221e-06
0.00013829
-3.26373e-06
0.000138314
-3.41053e-06
0.000138321
-3.56261e-06
0.000138311
-3.71973e-06
0.000138285
-3.88148e-06
0.000138243
-4.04729e-06
0.000138186
-4.21647e-06
0.000138114
-4.38823e-06
0.000138027
-4.56173e-06
0.000137926
-4.73606e-06
0.000137811
-4.91026e-06
0.000137682
-5.08332e-06
-5.25408e-06
0.000137539
0.00013854
-1.53691e-07
0.000138649
-4.48041e-07
0.000138818
-7.22184e-07
0.000139033
-9.7584e-07
0.00013928
-1.20881e-06
0.000139548
-1.42104e-06
0.000139825
-1.61293e-06
0.000140102
-1.78552e-06
0.000140373
-1.94046e-06
0.000140632
-2.07989e-06
0.000140875
-2.2063e-06
0.0001411
-2.3224e-06
0.000141304
-2.43093e-06
0.000141485
-2.53452e-06
0.000141644
-2.63564e-06
0.000141781
-2.73648e-06
0.000141894
-2.83892e-06
0.000141984
-2.94451e-06
0.000142053
-3.05446e-06
0.000142101
-3.16966e-06
0.000142127
-3.29069e-06
0.000142135
-3.4178e-06
0.000142123
-3.55099e-06
0.000142093
-3.69003e-06
0.000142046
-3.83446e-06
0.000141983
-3.98364e-06
0.000141903
-4.13682e-06
0.000141808
-4.29313e-06
0.000141698
-4.45166e-06
0.000141573
-4.61141e-06
0.000141434
-4.77135e-06
0.000141281
-4.93043e-06
-5.08745e-06
0.000141115
0.000142499
-1.93111e-07
0.000142612
-5.61307e-07
0.000142787
-8.97702e-07
0.000143011
-1.19955e-06
0.000143269
-1.46669e-06
0.000143548
-1.70021e-06
0.000143837
-1.90207e-06
0.000144127
-2.07513e-06
0.000144409
-2.22288e-06
0.000144679
-2.34914e-06
0.00014493
-2.45788e-06
0.000145161
-2.55302e-06
0.000145368
-2.63834e-06
0.000145551
-2.7173e-06
0.000145708
-2.79302e-06
0.00014584
-2.86819e-06
0.000145946
-2.94511e-06
0.000146027
-3.02563e-06
0.000146084
-3.11119e-06
0.000146117
-3.20285e-06
0.000146128
-3.30126e-06
0.000146117
-3.40677e-06
0.000146085
-3.51939e-06
0.000146034
-3.63887e-06
0.000145964
-3.76471e-06
0.000145877
-3.89622e-06
0.000145773
-4.03259e-06
0.000145652
-4.17286e-06
0.000145517
-4.31601e-06
0.000145366
-4.46098e-06
0.000145202
-4.60664e-06
0.000145023
-4.75181e-06
-4.89526e-06
0.000144831
0.000146571
-2.35142e-07
0.000146692
-6.82085e-07
0.000146879
-1.08464e-06
0.000147117
-1.43745e-06
0.000147391
-1.74052e-06
0.000147687
-1.99615e-06
0.000147993
-2.20798e-06
0.000148298
-2.3808e-06
0.000148595
-2.52002e-06
0.000148878
-2.63126e-06
0.00014914
-2.72003e-06
0.000149378
-2.79162e-06
0.000149591
-2.85088e-06
0.000149776
-2.9022e-06
0.000149932
-2.94942e-06
0.00015006
-2.99585e-06
0.000150159
-3.04424e-06
0.00015023
-3.09679e-06
0.000150274
-3.15523e-06
0.000150292
-3.2208e-06
0.000150285
-3.29432e-06
0.000150255
-3.3762e-06
0.000150202
-3.46649e-06
0.000150128
-3.56495e-06
0.000150034
-3.67105e-06
0.000149922
-3.78403e-06
0.000149792
-3.90299e-06
0.000149646
-4.02688e-06
0.000149485
-4.15458e-06
0.000149309
-4.28491e-06
0.000149119
-4.41665e-06
0.000148916
-4.54858e-06
-4.67939e-06
0.0001487
0.000150762
-2.81538e-07
0.000150895
-8.15314e-07
0.000151101
-1.29045e-06
0.000151362
-1.69866e-06
0.000151662
-2.04027e-06
0.000151985
-2.31899e-06
0.000152317
-2.54032e-06
0.000152648
-2.71125e-06
0.000152967
-2.83946e-06
0.000153268
-2.93259e-06
0.000153546
-2.9979e-06
0.000153797
-3.04218e-06
0.000154018
-3.07151e-06
0.000154207
-3.0913e-06
0.000154363
-3.10619e-06
0.000154488
-3.12014e-06
0.00015458
-3.1364e-06
0.000154641
-3.15759e-06
0.000154671
-3.18572e-06
0.000154673
-3.22228e-06
0.000154647
-3.26823e-06
0.000154594
-3.32409e-06
0.000154518
-3.38998e-06
0.000154419
-3.46565e-06
0.000154298
-3.55054e-06
0.000154158
-3.64384e-06
0.000153999
-3.74454e-06
0.000153824
-3.85151e-06
0.000153633
-3.9635e-06
0.000153427
-4.07919e-06
0.000153208
-4.19722e-06
0.000152976
-4.31621e-06
-4.43472e-06
0.000152731
0.000155074
-3.33746e-07
0.000155224
-9.65245e-07
0.000155454
-1.52073e-06
0.000155744
-1.98902e-06
0.000156076
-2.3716e-06
0.000156431
-2.67416e-06
0.000156795
-2.90437e-06
0.000157155
-3.07171e-06
0.000157502
-3.18629e-06
0.000157828
-3.25797e-06
0.000158126
-3.29596e-06
0.000158392
-3.30867e-06
0.000158624
-3.30359e-06
0.00015882
-3.28725e-06
0.000158979
-3.26521e-06
0.000159101
-3.24217e-06
0.000159187
-3.22196e-06
0.000159237
-3.20767e-06
0.000159253
-3.20169e-06
0.000159236
-3.20576e-06
0.000159189
-3.22108e-06
0.000159113
-3.2483e-06
0.000159011
-3.28761e-06
0.000158884
-3.33879e-06
0.000158735
-3.40125e-06
0.000158565
-3.47411e-06
0.000158377
-3.55625e-06
0.000158172
-3.64637e-06
0.000157951
-3.74306e-06
0.000157717
-3.84486e-06
0.00015747
-3.95024e-06
0.000157212
-4.05773e-06
-4.16576e-06
0.000156943
0.000159513
-3.96086e-07
0.000159691
-1.1431e-06
0.000159962
-1.79186e-06
0.000160301
-2.32764e-06
0.000160683
-2.75411e-06
0.000161089
-3.07989e-06
0.0001615
-3.31587e-06
0.000161904
-3.47501e-06
0.000162288
-3.57058e-06
0.000162645
-3.61505e-06
0.000162969
-3.61984e-06
0.000163255
-3.59516e-06
0.000163502
-3.54998e-06
0.000163706
-3.492e-06
0.000163869
-3.42773e-06
0.000163989
-3.36263e-06
0.000164069
-3.30115e-06
0.000164108
-3.24685e-06
0.000164109
-3.20251e-06
0.000164073
-3.17019e-06
0.000164003
-3.1513e-06
0.000163902
-3.14666e-06
0.000163771
-3.15656e-06
0.000163613
-3.18083e-06
0.00016343
-3.21887e-06
0.000163226
-3.26971e-06
0.000163002
-3.33214e-06
0.00016276
-3.40471e-06
0.000162503
-3.48581e-06
0.000162232
-3.57378e-06
0.000161948
-3.66686e-06
0.000161654
-3.7633e-06
-3.86128e-06
0.000161349
0.000164078
-4.68361e-07
0.000164286
-1.35108e-06
0.000164601
-2.10609e-06
0.00016499
-2.71721e-06
0.000165428
-3.19241e-06
0.000165892
-3.54346e-06
0.000166361
-3.78454e-06
0.000166818
-3.93251e-06
0.000167252
-4.00433e-06
0.000167653
-4.0156e-06
0.000168013
-3.98037e-06
0.000168329
-3.91106e-06
0.000168597
-3.81837e-06
0.000168817
-3.71138e-06
0.000168987
-3.59771e-06
0.000169108
-3.48367e-06
0.000169181
-3.3744e-06
0.000169208
-3.27403e-06
0.000169191
-3.18576e-06
0.000169133
-3.11204e-06
0.000169037
-3.05458e-06
0.000168904
-3.01442e-06
0.00016874
-2.99202e-06
0.000168546
-2.98728e-06
0.000168327
-2.99958e-06
0.000168085
-3.02788e-06
0.000167824
-3.07076e-06
0.000167546
-3.12655e-06
0.000167253
-3.1934e-06
0.000166949
-3.26934e-06
0.000166634
-3.35235e-06
0.000166311
-3.44048e-06
-3.53163e-06
0.000165982
0.000168792
-5.68095e-07
0.000169066
-1.62559e-06
0.000169468
-2.50839e-06
0.000169952
-3.20094e-06
0.000170482
-3.72206e-06
0.000171029
-4.09082e-06
0.000171572
-4.32756e-06
0.000172094
-4.45481e-06
0.000172584
-4.49374e-06
0.000173031
-4.46315e-06
0.000173431
-4.37972e-06
0.000173778
-4.25796e-06
0.000174069
-4.11026e-06
0.000174305
-3.94704e-06
0.000174484
-3.77699e-06
0.000174608
-3.60728e-06
0.000174677
-3.44375e-06
0.000174694
-3.29108e-06
0.000174662
-3.15298e-06
0.000174582
-3.03226e-06
0.000174458
-2.93096e-06
0.000174294
-2.85042e-06
0.000174094
-2.7913e-06
0.00017386
-2.75363e-06
0.000173597
-2.73686e-06
0.000173309
-2.73989e-06
0.000173
-2.76118e-06
0.000172672
-2.79884e-06
0.000172329
-2.85073e-06
0.000171974
-2.91454e-06
0.00017161
-2.98784e-06
0.000171238
-3.06824e-06
-3.15316e-06
0.000170859
0.00017362
-6.76321e-07
0.000173941
-1.94657e-06
0.000174415
-2.98268e-06
0.000174991
-3.77748e-06
0.000175628
-4.35909e-06
0.000176288
-4.75069e-06
0.000176941
-4.98002e-06
0.000177564
-5.07809e-06
0.000178143
-5.07244e-06
0.000178666
-4.98662e-06
0.000179128
-4.84109e-06
0.000179523
-4.65319e-06
0.00017985
-4.43738e-06
0.000180108
-4.20562e-06
0.000180299
-3.96773e-06
0.000180424
-3.73174e-06
0.000180484
-3.50415e-06
0.000180483
-3.29019e-06
0.000180424
-3.09405e-06
0.000180311
-2.91898e-06
0.000180147
-2.76748e-06
0.000179938
-2.64127e-06
0.000179688
-2.54138e-06
0.000179403
-2.46807e-06
0.000179087
-2.42083e-06
0.000178745
-2.39844e-06
0.000178383
-2.39908e-06
0.000178005
-2.42051e-06
0.000177614
-2.46019e-06
0.000177215
-2.51537e-06
0.00017681
-2.58314e-06
0.000176403
-2.66069e-06
-2.7448e-06
0.000175995
0.00017868
-8.87397e-07
0.00017918
-2.44654e-06
0.000179838
-3.64105e-06
0.000180574
-4.51372e-06
0.000181345
-5.13014e-06
0.000182117
-5.52252e-06
0.000182864
-5.72693e-06
0.000183568
-5.78174e-06
0.000184214
-5.71923e-06
0.000184795
-5.56693e-06
0.000185302
-5.34874e-06
0.000185734
-5.0847e-06
0.000186088
-4.79129e-06
0.000186364
-4.48197e-06
0.000186564
-4.16769e-06
0.00018669
-3.85726e-06
0.000186743
-3.55778e-06
0.000186728
-3.27494e-06
0.000186647
-3.01332e-06
0.000186505
-2.77656e-06
0.000186305
-2.56752e-06
0.000186052
-2.3884e-06
0.000185751
-2.24072e-06
0.000185409
-2.12527e-06
0.00018503
-2.04184e-06
0.000184621
-1.98932e-06
0.000184187
-1.96575e-06
0.000183735
-1.96858e-06
0.00018327
-1.99488e-06
0.000182796
-2.04129e-06
0.000182317
-2.1042e-06
0.000181836
-2.18017e-06
-2.26517e-06
0.000181357
0.000183744
-1.06352e-06
0.000184328
-3.03123e-06
0.000185149
-4.46169e-06
0.000186101
-5.46591e-06
0.000187101
-6.13047e-06
0.000188085
-6.50581e-06
0.000189015
-6.657e-06
0.000189874
-6.64082e-06
0.000190653
-6.49798e-06
0.000191347
-6.2609e-06
0.000191954
-5.95615e-06
0.000192474
-5.60493e-06
0.000192907
-5.22417e-06
0.000193253
-4.82765e-06
0.000193512
-4.42657e-06
0.000193684
-4.03007e-06
0.000193772
-3.64573e-06
0.000193777
-3.27987e-06
0.000193702
-2.93782e-06
0.000193549
-2.62422e-06
0.000193325
-2.34306e-06
0.000193034
-2.09784e-06
0.000192685
-1.89144e-06
0.000192286
-1.72569e-06
0.000191844
-1.60076e-06
0.000191371
-1.51561e-06
0.000190873
-1.46775e-06
0.000190358
-1.4539e-06
0.000189834
-1.47098e-06
0.000189308
-1.51517e-06
0.000188786
-1.58213e-06
0.000188273