/*--------------------------------*- C++ -*----------------------------------*\
| =========                 |                                                 |
| \\      /  F ield         | OpenFOAM: The Open Source CFD Toolbox           |
|  \\    /   O peration     | Version:  2.1.1                                 |
|   \\  /    A nd           | Web:      www.OpenFOAM.org                      |
|    \\/     M anipulation  |                                                 |
\*---------------------------------------------------------------------------*/
FoamFile
{
    version     2.0;
    format      ascii;
    class       volVectorField;
    location    "0.015";
    object      U;
}
// * * * * * * * * * * * * * * * * * * * * * * * * * * * * * * * * * * * * * //

dimensions      [0 1 -1 0 0 0 0];

internalField   nonuniform List<vector> 
6820
(
(6.37632 0.503616 0)
(4.42591 0.28667 0)
(2.97753 0.0199453 0)
(2.24134 -0.0622787 0)
(1.97935 -0.0604705 0)
(1.85704 -0.0351127 0)
(1.78748 -0.0156891 0)
(1.7416 -0.00527791 0)
(1.70548 -0.000547737 0)
(1.67613 0.000977479 0)
(1.65311 0.000968287 0)
(1.63604 0.000368983 0)
(1.62454 -0.000384503 0)
(1.61824 -0.00106908 0)
(1.61684 -0.00169975 0)
(1.61992 -0.00252999 0)
(1.62713 -0.00301681 0)
(1.63843 -0.00338538 0)
(1.65392 -0.0038231 0)
(1.67378 -0.00433592 0)
(1.6982 -0.00490746 0)
(1.72744 -0.00553412 0)
(1.76181 -0.00622865 0)
(1.80162 -0.007015 0)
(1.84722 -0.00792576 0)
(1.89902 -0.00899925 0)
(1.95746 -0.0103095 0)
(2.02347 -0.0119082 0)
(2.09749 -0.0141252 0)
(2.18346 -0.0166357 0)
(2.27698 -0.0224189 0)
(2.40687 -0.0227698 0)
(2.49947 -0.0760882 0)
(8.72023 0.959179 0)
(8.76613 1.01085 0)
(7.97359 0.677422 0)
(7.0652 0.391867 0)
(6.37061 0.199908 0)
(5.8721 0.100164 0)
(5.51956 0.0539393 0)
(5.26936 0.032592 0)
(5.08677 0.0224304 0)
(4.94987 0.0168111 0)
(4.84552 0.0128729 0)
(4.76559 0.00955427 0)
(4.70499 0.00644315 0)
(4.66041 0.00336696 0)
(4.62959 0.000286683 0)
(4.61103 -0.00299899 0)
(4.60398 -0.00650538 0)
(4.60768 -0.0102408 0)
(4.62159 -0.0142115 0)
(4.64543 -0.0184663 0)
(4.67905 -0.0231144 0)
(4.72237 -0.02824 0)
(4.77536 -0.0338835 0)
(4.83802 -0.0400701 0)
(4.91036 -0.0468423 0)
(4.99248 -0.0542808 0)
(5.08457 -0.0625832 0)
(5.18712 -0.0719916 0)
(5.30082 -0.0833215 0)
(5.42746 -0.0967097 0)
(5.5682 -0.116376 0)
(5.73025 -0.139416 0)
(5.91131 -0.186932 0)
(8.58609 0.582881 0)
(9.33155 0.76047 0)
(9.61627 0.656905 0)
(9.50974 0.521997 0)
(9.24915 0.391217 0)
(8.94444 0.292069 0)
(8.64849 0.221829 0)
(8.38453 0.170811 0)
(8.15695 0.132984 0)
(7.96367 0.104134 0)
(7.80121 0.0813215 0)
(7.66595 0.0626636 0)
(7.55469 0.0469009 0)
(7.4647 0.0331599 0)
(7.39374 0.02081 0)
(7.34003 0.00945696 0)
(7.30197 -0.00138955 0)
(7.27843 -0.0121075 0)
(7.26906 -0.0229647 0)
(7.27318 -0.034082 0)
(7.29005 -0.0455135 0)
(7.31903 -0.0573365 0)
(7.35952 -0.069634 0)
(7.41096 -0.0824891 0)
(7.47288 -0.0960105 0)
(7.54488 -0.110371 0)
(7.62667 -0.12588 0)
(7.71818 -0.142997 0)
(7.81941 -0.162616 0)
(7.93079 -0.185661 0)
(8.05231 -0.215183 0)
(8.18336 -0.252143 0)
(8.32137 -0.308402 0)
(8.44098 0.3791 0)
(8.94611 0.582147 0)
(9.35883 0.551055 0)
(9.58718 0.481675 0)
(9.70275 0.399647 0)
(9.74154 0.328179 0)
(9.73044 0.273123 0)
(9.69205 0.230112 0)
(9.63949 0.195447 0)
(9.58029 0.166489 0)
(9.5194 0.141338 0)
(9.46014 0.118811 0)
(9.40477 0.0981638 0)
(9.35484 0.0788704 0)
(9.31149 0.0605279 0)
(9.27549 0.0428196 0)
(9.24731 0.0254897 0)
(9.22725 0.00821532 0)
(9.21463 -0.00919069 0)
(9.20922 -0.0268785 0)
(9.21097 -0.0449529 0)
(9.21976 -0.0634687 0)
(9.23541 -0.0824622 0)
(9.25771 -0.101982 0)
(9.28637 -0.122122 0)
(9.32114 -0.143061 0)
(9.36173 -0.165128 0)
(9.40788 -0.188823 0)
(9.45921 -0.21501 0)
(9.51528 -0.244677 0)
(9.57499 -0.27986 0)
(9.63613 -0.321583 0)
(9.69548 -0.372911 0)
(8.40218 0.279396 0)
(8.71932 0.478631 0)
(8.99969 0.458287 0)
(9.17558 0.398957 0)
(9.30036 0.334809 0)
(9.394 0.279894 0)
(9.46336 0.238012 0)
(9.51671 0.205121 0)
(9.55904 0.177844 0)
(9.59282 0.154228 0)
(9.61992 0.132961 0)
(9.64185 0.113206 0)
(9.65982 0.0944268 0)
(9.67485 0.0762435 0)
(9.68769 0.0583639 0)
(9.69899 0.0405654 0)
(9.70938 0.0226428 0)
(9.71932 0.00453119 0)
(9.72892 -0.0137362 0)
(9.73846 -0.0323112 0)
(9.7481 -0.051349 0)
(9.75795 -0.0709227 0)
(9.76812 -0.0910703 0)
(9.77873 -0.111835 0)
(9.78991 -0.1333 0)
(9.80179 -0.155632 0)
(9.81446 -0.179126 0)
(9.82799 -0.204229 0)
(9.84221 -0.231628 0)
(9.85676 -0.262099 0)
(9.87062 -0.296822 0)
(9.88198 -0.336352 0)
(9.88839 -0.381143 0)
(8.3775 0.201436 0)
(8.60169 0.381296 0)
(8.81679 0.386725 0)
(8.94867 0.350518 0)
(9.03548 0.304124 0)
(9.09921 0.258289 0)
(9.14704 0.219734 0)
(9.18618 0.18808 0)
(9.22078 0.161476 0)
(9.2522 0.138532 0)
(9.28099 0.118102 0)
(9.30747 0.0993131 0)
(9.33178 0.0815586 0)
(9.35404 0.064419 0)
(9.37437 0.0475944 0)
(9.39288 0.030843 0)
(9.40966 0.0139721 0)
(9.42469 -0.00310043 0)
(9.43866 -0.0205397 0)
(9.45172 -0.0384859 0)
(9.46402 -0.0569999 0)
(9.47568 -0.0761155 0)
(9.48684 -0.0958764 0)
(9.49765 -0.116349 0)
(9.50832 -0.137643 0)
(9.51903 -0.159938 0)
(9.52998 -0.183517 0)
(9.54128 -0.208768 0)
(9.55289 -0.236223 0)
(9.56451 -0.26643 0)
(9.57551 -0.300025 0)
(9.58461 -0.337198 0)
(9.5904 -0.377592 0)
(8.36131 0.147998 0)
(8.52303 0.308889 0)
(8.69837 0.332736 0)
(8.81404 0.311231 0)
(8.8898 0.275821 0)
(8.94427 0.237178 0)
(8.98363 0.202743 0)
(9.01401 0.173671 0)
(9.03981 0.148745 0)
(9.0629 0.126869 0)
(9.0842 0.107151 0)
(9.10427 0.0888843 0)
(9.12342 0.0715598 0)
(9.14179 0.0548081 0)
(9.15946 0.0383414 0)
(9.17652 0.0219342 0)
(9.193 0.0054064 0)
(9.20899 -0.0114585 0)
(9.22453 -0.0288411 0)
(9.23963 -0.0467767 0)
(9.25439 -0.0653037 0)
(9.26887 -0.0844857 0)
(9.28317 -0.104392 0)
(9.29742 -0.125108 0)
(9.31174 -0.14676 0)
(9.32627 -0.169529 0)
(9.3411 -0.193665 0)
(9.35624 -0.219488 0)
(9.37158 -0.247381 0)
(9.38678 -0.277715 0)
(9.40128 -0.310796 0)
(9.41412 -0.346592 0)
(9.4245 -0.384496 0)
(8.35118 0.110496 0)
(8.46769 0.24887 0)
(8.60902 0.281811 0)
(8.71156 0.271528 0)
(8.78245 0.246886 0)
(8.8354 0.216866 0)
(8.87477 0.187847 0)
(8.90509 0.161885 0)
(8.9303 0.138661 0)
(8.95242 0.117648 0)
(8.9725 0.0983435 0)
(8.99122 0.0802603 0)
(9.00903 0.062995 0)
(9.02616 0.0462284 0)
(9.04279 0.0297035 0)
(9.05903 0.0132082 0)
(9.07497 -0.00344938 0)
(9.09064 -0.0204291 0)
(9.10605 -0.0378536 0)
(9.12123 -0.0558014 0)
(9.13622 -0.0743545 0)
(9.15106 -0.0935979 0)
(9.16584 -0.113617 0)
(9.18064 -0.134513 0)
(9.19553 -0.156414 0)
(9.21058 -0.179488 0)
(9.22584 -0.203947 0)
(9.24124 -0.230042 0)
(9.25664 -0.258039 0)
(9.27174 -0.288163 0)
(9.28608 -0.320518 0)
(9.29902 -0.354964 0)
(9.31011 -0.390912 0)
(8.34489 0.0837541 0)
(8.42964 0.200786 0)
(8.54294 0.238695 0)
(8.63242 0.237192 0)
(8.69737 0.220605 0)
(8.74764 0.19691 0)
(8.78647 0.171906 0)
(8.81708 0.148382 0)
(8.84273 0.126725 0)
(8.86524 0.106738 0)
(8.88559 0.0881176 0)
(8.90444 0.0704977 0)
(8.92224 0.0535437 0)
(8.93928 0.0369803 0)
(8.95572 0.0205799 0)
(8.97172 0.00414779 0)
(8.98735 -0.0124782 0)
(9.00269 -0.0294464 0)
(9.01777 -0.0468928 0)
(9.03263 -0.0649191 0)
(9.04732 -0.083608 0)
(9.06188 -0.103041 0)
(9.07638 -0.123304 0)
(9.09089 -0.144496 0)
(9.10545 -0.16674 0)
(9.1201 -0.190185 0)
(9.13484 -0.215007 0)
(9.1496 -0.241393 0)
(9.16423 -0.269523 0)
(9.17849 -0.299521 0)
(9.19204 -0.331395 0)
(9.20449 -0.364974 0)
(9.21561 -0.399772 0)
(8.34096 0.0644465 0)
(8.4033 0.162263 0)
(8.49395 0.201279 0)
(8.57131 0.205527 0)
(8.63029 0.194844 0)
(8.67748 0.176495 0)
(8.71519 0.155487 0)
(8.7456 0.134698 0)
(8.77128 0.114886 0)
(8.79385 0.0961061 0)
(8.81424 0.0782498 0)
(8.83308 0.0611071 0)
(8.85081 0.0444443 0)
(8.86771 0.0280486 0)
(8.88399 0.0117311 0)
(8.89976 -0.00467691 0)
(8.91515 -0.0213256 0)
(8.93021 -0.0383519 0)
(8.94501 -0.0558757 0)
(8.95958 -0.0739909 0)
(8.97397 -0.0927814 0)
(8.98823 -0.112335 0)
(9.00241 -0.132745 0)
(9.01654 -0.154114 0)
(9.03066 -0.176559 0)
(9.04479 -0.200212 0)
(9.0589 -0.225215 0)
(9.07292 -0.251708 0)
(9.08673 -0.279809 0)
(9.10012 -0.309581 0)
(9.11288 -0.340988 0)
(9.12477 -0.37387 0)
(9.13569 -0.407862 0)
(8.33847 0.0502313 0)
(8.38493 0.131271 0)
(8.4575 0.169008 0)
(8.52403 0.177102 0)
(8.57731 0.17099 0)
(8.62128 0.157023 0)
(8.6575 0.139407 0)
(8.68736 0.120935 0)
(8.71284 0.102676 0)
(8.73534 0.0849315 0)
(8.75569 0.0677627 0)
(8.77448 0.0510819 0)
(8.79212 0.0347318 0)
(8.8089 0.0185448 0)
(8.825 0.00236083 0)
(8.84057 -0.0139699 0)
(8.85569 -0.0305839 0)
(8.87047 -0.0476064 0)
(8.88493 -0.0651515 0)
(8.89914 -0.0833186 0)
(8.91314 -0.102199 0)
(8.92696 -0.121882 0)
(8.94065 -0.142459 0)
(8.95424 -0.164026 0)
(8.96775 -0.186687 0)
(8.98118 -0.210553 0)
(8.9945 -0.235734 0)
(9.00764 -0.262334 0)
(9.0205 -0.290429 0)
(9.03294 -0.320045 0)
(9.04481 -0.351135 0)
(9.05597 -0.383571 0)
(9.06642 -0.417096 0)
(8.33688 0.0395547 0)
(8.37198 0.106276 0)
(8.43023 0.141246 0)
(8.48719 0.151493 0)
(8.53505 0.148568 0)
(8.57576 0.137939 0)
(8.61027 0.12316 0)
(8.63939 0.106816 0)
(8.66456 0.0901136 0)
(8.68692 0.0734962 0)
(8.7072 0.0571275 0)
(8.72591 0.0410087 0)
(8.74345 0.0250502 0)
(8.76007 0.00913136 0)
(8.77597 -0.00687494 0)
(8.79129 -0.0230952 0)
(8.80612 -0.0396498 0)
(8.82054 -0.0566524 0)
(8.83462 -0.0742083 0)
(8.8484 -0.092412 0)
(8.86192 -0.111351 0)
(8.87523 -0.13111 0)
(8.88834 -0.151778 0)
(8.90129 -0.173445 0)
(8.91408 -0.196205 0)
(8.92671 -0.220153 0)
(8.93914 -0.245378 0)
(8.95131 -0.271958 0)
(8.96314 -0.299943 0)
(8.97453 -0.329344 0)
(8.9854 -0.36012 0)
(8.99565 -0.392181 0)
(9.00532 -0.425351 0)
(8.33584 0.0313671 0)
(8.36277 0.0859901 0)
(8.40972 0.117349 0)
(8.45837 0.128469 0)
(8.50116 0.127714 0)
(8.53867 0.119653 0)
(8.57134 0.10725 0)
(8.59952 0.0927818 0)
(8.6242 0.0774794 0)
(8.64629 0.0618855 0)
(8.6664 0.0462502 0)
(8.68497 0.0306531 0)
(8.70234 0.0150666 0)
(8.71878 -0.000587129 0)
(8.73445 -0.0164059 0)
(8.74948 -0.0324953 0)
(8.76398 -0.048962 0)
(8.77802 -0.0659097 0)
(8.79165 -0.0834366 0)
(8.80494 -0.101634 0)
(8.81791 -0.12059 0)
(8.83059 -0.140387 0)
(8.84303 -0.161111 0)
(8.85522 -0.182845 0)
(8.86717 -0.205671 0)
(8.87888 -0.229668 0)
(8.89031 -0.254908 0)
(8.90142 -0.281446 0)
(8.91214 -0.309317 0)
(8.92241 -0.338526 0)
(8.93216 -0.369042 0)
(8.94135 -0.400808 0)
(8.95002 -0.433708 0)
(8.33515 0.0249559 0)
(8.35611 0.0693988 0)
(8.3942 0.0967677 0)
(8.43572 0.1078 0)
(8.47386 0.108353 0)
(8.50829 0.102134 0)
(8.53901 0.091595 0)
(8.5661 0.0787023 0)
(8.59016 0.064647 0)
(8.61188 0.0500227 0)
(8.63174 0.0351304 0)
(8.65012 0.0200994 0)
(8.6673 0.00494535 0)
(8.6835 -0.0103769 0)
(8.6989 -0.0259412 0)
(8.71362 -0.0418355 0)
(8.72774 -0.0581534 0)
(8.74135 -0.0749884 0)
(8.75449 -0.0924313 0)
(8.76722 -0.110568 0)
(8.77958 -0.129481 0)
(8.79159 -0.14925 0)
(8.80327 -0.169951 0)
(8.81464 -0.191661 0)
(8.8257 -0.214452 0)
(8.83643 -0.238389 0)
(8.84681 -0.263532 0)
(8.8568 -0.289924 0)
(8.86635 -0.317592 0)
(8.87542 -0.34654 0)
(8.88396 -0.37675 0)
(8.89195 -0.408191 0)
(8.89942 -0.44079 0)
(8.33466 0.0198335 0)
(8.35126 0.055702 0)
(8.38239 0.078992 0)
(8.41787 0.089238 0)
(8.45181 0.0904131 0)
(8.48331 0.0854458 0)
(8.51209 0.0763456 0)
(8.53799 0.0647709 0)
(8.56132 0.0518171 0)
(8.58257 0.0380831 0)
(8.6021 0.0238949 0)
(8.6202 0.00941442 0)
(8.63711 -0.00530863 0)
(8.65304 -0.020291 0)
(8.66813 -0.0355845 0)
(8.68248 -0.0512605 0)
(8.69618 -0.0673999 0)
(8.70931 -0.0840868 0)
(8.72192 -0.101405 0)
(8.73404 -0.119435 0)
(8.74573 -0.138256 0)
(8.75699 -0.157942 0)
(8.76786 -0.178565 0)
(8.77834 -0.200193 0)
(8.78843 -0.222891 0)
(8.79812 -0.246713 0)
(8.80738 -0.271707 0)
(8.8162 -0.297908 0)
(8.82452 -0.325336 0)
(8.83232 -0.353996 0)
(8.83957 -0.383878 0)
(8.84624 -0.414969 0)
(8.85238 -0.447219 0)
(8.33432 0.0156613 0)
(8.34766 0.0442731 0)
(8.37334 0.0635739 0)
(8.40376 0.072548 0)
(8.43395 0.0738033 0)
(8.46274 0.0695894 0)
(8.48962 0.0615304 0)
(8.51427 0.0510018 0)
(8.53679 0.0389787 0)
(8.55749 0.0260382 0)
(8.57661 0.0125123 0)
(8.59438 -0.00141984 0)
(8.61099 -0.0156871 0)
(8.62659 -0.0302863 0)
(8.64133 -0.0452539 0)
(8.65528 -0.060649 0)
(8.66852 -0.0765426 0)
(8.68114 -0.0930112 0)
(8.69316 -0.110132 0)
(8.70464 -0.127981 0)
(8.71561 -0.146631 0)
(8.72608 -0.166152 0)
(8.73609 -0.18661 0)
(8.74563 -0.208064 0)
(8.75471 -0.23057 0)
(8.76332 -0.254176 0)
(8.77143 -0.27892 0)
(8.77903 -0.304829 0)
(8.78609 -0.331921 0)
(8.79257 -0.360203 0)
(8.79846 -0.389671 0)
(8.80374 -0.420321 0)
(8.80842 -0.452116 0)
(8.33407 0.0122002 0)
(8.34497 0.034623 0)
(8.36637 0.0501205 0)
(8.39258 0.0575004 0)
(8.41948 0.0584133 0)
(8.44578 0.0545432 0)
(8.47085 0.0471844 0)
(8.49425 0.0374608 0)
(8.51592 0.0262156 0)
(8.536 0.0139804 0)
(8.55466 0.00107494 0)
(8.57205 -0.0123197 0)
(8.5883 -0.0261216 0)
(8.60354 -0.0403153 0)
(8.61788 -0.0549258 0)
(8.63139 -0.070002 0)
(8.64414 -0.0856066 0)
(8.6562 -0.101809 0)
(8.6676 -0.118681 0)
(8.67839 -0.136292 0)
(8.68859 -0.154712 0)
(8.69823 -0.174003 0)
(8.70733 -0.194227 0)
(8.71589 -0.215437 0)
(8.72392 -0.237681 0)
(8.7314 -0.260999 0)
(8.73832 -0.285422 0)
(8.74467 -0.310973 0)
(8.75042 -0.337664 0)
(8.75554 -0.365502 0)
(8.76003 -0.394484 0)
(8.76385 -0.42461 0)
(8.76701 -0.455847 0)
(8.33389 0.00927789 0)
(8.34293 0.0263685 0)
(8.36098 0.0382908 0)
(8.38373 0.0438757 0)
(8.40777 0.0441236 0)
(8.43184 0.0402642 0)
(8.45521 0.0333116 0)
(8.47739 0.0241702 0)
(8.49818 0.0135504 0)
(8.51763 0.00192521 0)
(8.53578 -0.0104099 0)
(8.55275 -0.0232817 0)
(8.5686 -0.0366062 0)
(8.58345 -0.050362 0)
(8.59735 -0.0645674 0)
(8.61039 -0.0792652 0)
(8.62262 -0.0945124 0)
(8.63408 -0.110374 0)
(8.64483 -0.126916 0)
(8.65489 -0.144205 0)
(8.66429 -0.162305 0)
(8.67307 -0.181275 0)
(8.68122 -0.20117 0)
(8.68877 -0.222038 0)
(8.69571 -0.24392 0)
(8.70204 -0.266848 0)
(8.70775 -0.290849 0)
(8.71283 -0.315938 0)
(8.71725 -0.342127 0)
(8.72099 -0.369418 0)
(8.72405 -0.397809 0)
(8.72638 -0.427296 0)
(8.72799 -0.457846 0)
(8.33375 0.00676755 0)
(8.34138 0.0192093 0)
(8.35681 0.0277923 0)
(8.37671 0.0314672 0)
(8.39831 0.0308079 0)
(8.4204 0.0266906 0)
(8.44223 0.0198958 0)
(8.46325 0.0111401 0)
(8.4832 0.00100819 0)
(8.50199 -0.0100935 0)
(8.51963 -0.0219035 0)
(8.53614 -0.0342658 0)
(8.55157 -0.0471029 0)
(8.56599 -0.0603941 0)
(8.57944 -0.0741557 0)
(8.59197 -0.0884277 0)
(8.60364 -0.103264 0)
(8.61449 -0.118725 0)
(8.62455 -0.134874 0)
(8.63385 -0.151774 0)
(8.64243 -0.169485 0)
(8.6503 -0.18806 0)
(8.65748 -0.20755 0)
(8.66399 -0.227997 0)
(8.66982 -0.249436 0)
(8.67497 -0.271893 0)
(8.67944 -0.295389 0)
(8.68322 -0.319934 0)
(8.68629 -0.345535 0)
(8.68864 -0.372191 0)
(8.69025 -0.399895 0)
(8.69108 -0.428639 0)
(8.69115 -0.458384 0)
(8.33364 0.00457267 0)
(8.34019 0.0129033 0)
(8.35357 0.0183685 0)
(8.37118 0.0200768 0)
(8.39072 0.0183319 0)
(8.4111 0.0137436 0)
(8.43155 0.00690157 0)
(8.45151 -0.00163713 0)
(8.47064 -0.0114032 0)
(8.4888 -0.0220589 0)
(8.50591 -0.033383 0)
(8.52197 -0.0452429 0)
(8.53696 -0.0575739 0)
(8.55093 -0.070361 0)
(8.5639 -0.0836232 0)
(8.57591 -0.0974007 0)
(8.587 -0.111747 0)
(8.5972 -0.126721 0)
(8.60655 -0.142386 0)
(8.61507 -0.1588 0)
(8.62279 -0.17602 0)
(8.62973 -0.194099 0)
(8.63592 -0.213079 0)
(8.64136 -0.233 0)
(8.64606 -0.253891 0)
(8.65002 -0.275773 0)
(8.65325 -0.29866 0)
(8.65573 -0.322559 0)
(8.65745 -0.34747 0)
(8.6584 -0.373387 0)
(8.65857 -0.400299 0)
(8.65792 -0.428189 0)
(8.65645 -0.457015 0)
(8.33356 0.00262144 0)
(8.33929 0.00726338 0)
(8.35108 0.00980465 0)
(8.36685 0.00952292 0)
(8.3847 0.00656038 0)
(8.40362 0.00133134 0)
(8.42288 -0.00572867 0)
(8.44189 -0.0141959 0)
(8.46029 -0.0237049 0)
(8.47785 -0.033987 0)
(8.49447 -0.0448651 0)
(8.51007 -0.0562353 0)
(8.52463 -0.0680511 0)
(8.53815 -0.0803083 0)
(8.55064 -0.0930323 0)
(8.56211 -0.106267 0)
(8.57261 -0.120067 0)
(8.58214 -0.134494 0)
(8.59076 -0.149606 0)
(8.59847 -0.165464 0)
(8.60531 -0.18212 0)
(8.61131 -0.199624 0)
(8.61647 -0.218015 0)
(8.62083 -0.237328 0)
(8.62438 -0.257586 0)
(8.62714 -0.278806 0)
(8.62911 -0.300995 0)
(8.63028 -0.324157 0)
(8.63066 -0.348284 0)
(8.63021 -0.373367 0)
(8.62895 -0.399385 0)
(8.62683 -0.426316 0)
(8.62387 -0.454109 0)
(8.3335 0.000843823 0)
(8.3386 0.00211731 0)
(8.34918 0.00189889 0)
(8.36351 -0.000375089 0)
(8.38 -0.0046507 0)
(8.39773 -0.0106516 0)
(8.416 -0.0180639 0)
(8.4342 -0.0265732 0)
(8.45195 -0.0359059 0)
(8.46899 -0.0458595 0)
(8.48514 -0.0563029 0)
(8.50032 -0.0671646 0)
(8.51445 -0.0784205 0)
(8.52752 -0.0900819 0)
(8.53952 -0.102185 0)
(8.55045 -0.114781 0)
(8.56033 -0.12793 0)
(8.56919 -0.141695 0)
(8.57705 -0.156138 0)
(8.58394 -0.171319 0)
(8.58988 -0.18729 0)
(8.59491 -0.204099 0)
(8.59905 -0.221783 0)
(8.60231 -0.240371 0)
(8.60471 -0.259884 0)
(8.60626 -0.280333 0)
(8.60697 -0.301722 0)
(8.60685 -0.324047 0)
(8.60588 -0.347296 0)
(8.60407 -0.371452 0)
(8.60141 -0.396489 0)
(8.59787 -0.422376 0)
(8.59347 -0.449055 0)
(8.33346 -0.000797074 0)
(8.33811 -0.00265924 0)
(8.34779 -0.00551748 0)
(8.36103 -0.0097851 0)
(8.37648 -0.01545 0)
(8.39328 -0.0223313 0)
(8.41076 -0.0302103 0)
(8.42832 -0.0388652 0)
(8.44555 -0.0481041 0)
(8.46215 -0.0577876 0)
(8.47791 -0.0678318 0)
(8.49271 -0.0782001 0)
(8.50646 -0.088894 0)
(8.51911 -0.0999432 0)
(8.53063 -0.111397 0)
(8.54102 -0.123317 0)
(8.5503 -0.135768 0)
(8.55848 -0.148819 0)
(8.56558 -0.162535 0)
(8.57163 -0.176975 0)
(8.57666 -0.192194 0)
(8.58071 -0.208235 0)
(8.58379 -0.225135 0)
(8.58594 -0.242919 0)
(8.58717 -0.261605 0)
(8.5875 -0.281198 0)
(8.58695 -0.301698 0)
(8.58553 -0.323095 0)
(8.58323 -0.345372 0)
(8.58006 -0.368505 0)
(8.57603 -0.392463 0)
(8.5711 -0.417205 0)
(8.5653 -0.442669 0)
(8.33343 -0.00234509 0)
(8.33775 -0.00718778 0)
(8.3468 -0.0126074 0)
(8.35929 -0.0188745 0)
(8.37398 -0.0259872 0)
(8.39012 -0.0338271 0)
(8.40703 -0.0422472 0)
(8.42413 -0.0511014 0)
(8.44097 -0.0602688 0)
(8.45723 -0.0696696 0)
(8.47268 -0.0792678 0)
(8.48715 -0.0890652 0)
(8.50055 -0.0990933 0)
(8.51279 -0.109405 0)
(8.52385 -0.120069 0)
(8.53371 -0.131159 0)
(8.54238 -0.142753 0)
(8.54987 -0.154927 0)
(8.5562 -0.167751 0)
(8.5614 -0.181289 0)
(8.56551 -0.195596 0)
(8.56857 -0.210718 0)
(8.57059 -0.22669 0)
(8.57162 -0.243536 0)
(8.57169 -0.261269 0)
(8.57081 -0.279892 0)
(8.56901 -0.2994 0)
(8.5663 -0.319778 0)
(8.5627 -0.341003 0)
(8.55822 -0.363047 0)
(8.55286 -0.385869 0)
(8.54661 -0.409423 0)
(8.53949 -0.433642 0)
(8.33341 -0.00385353 0)
(8.33754 -0.0115942 0)
(8.3462 -0.0195385 0)
(8.35822 -0.0278284 0)
(8.37247 -0.0364539 0)
(8.38822 -0.0453383 0)
(8.40482 -0.0543925 0)
(8.42167 -0.0635362 0)
(8.4383 -0.0727133 0)
(8.45438 -0.0819008 0)
(8.46965 -0.0911094 0)
(8.48391 -0.100379 0)
(8.49703 -0.109771 0)
(8.50895 -0.119363 0)
(8.5196 -0.129241 0)
(8.52896 -0.139496 0)
(8.53704 -0.150217 0)
(8.54385 -0.161487 0)
(8.54941 -0.173385 0)
(8.55376 -0.185978 0)
(8.55693 -0.199325 0)
(8.55898 -0.213472 0)
(8.55992 -0.228455 0)
(8.55981 -0.244295 0)
(8.55869 -0.261004 0)
(8.55657 -0.27858 0)
(8.55351 -0.297015 0)
(8.54951 -0.316288 0)
(8.5446 -0.336372 0)
(8.5388 -0.357231 0)
(8.53212 -0.37882 0)
(8.52456 -0.401086 0)
(8.51615 -0.423958 0)
(8.3334 -0.00535151 0)
(8.33745 -0.0159772 0)
(8.34595 -0.0264591 0)
(8.35779 -0.0368088 0)
(8.37188 -0.0469897 0)
(8.38752 -0.0569462 0)
(8.40404 -0.0666316 0)
(8.42084 -0.0760215 0)
(8.43743 -0.0851203 0)
(8.45346 -0.093963 0)
(8.46864 -0.102612 0)
(8.48276 -0.111153 0)
(8.49567 -0.119684 0)
(8.50729 -0.128315 0)
(8.51756 -0.137158 0)
(8.52644 -0.146322 0)
(8.53394 -0.155914 0)
(8.54008 -0.166031 0)
(8.54487 -0.17676 0)
(8.54836 -0.188177 0)
(8.55059 -0.200345 0)
(8.55162 -0.213314 0)
(8.55148 -0.227119 0)
(8.55023 -0.241785 0)
(8.54792 -0.25732 0)
(8.54459 -0.273722 0)
(8.54027 -0.290978 0)
(8.53501 -0.309063 0)
(8.52884 -0.327947 0)
(8.52177 -0.347587 0)
(8.51385 -0.367935 0)
(8.50506 -0.388929 0)
(8.49547 -0.410495 0)
(8.3334 -0.0068836 0)
(8.33749 -0.0204657 0)
(8.34607 -0.0335661 0)
(8.35804 -0.046073 0)
(8.37232 -0.0579252 0)
(8.38818 -0.0690876 0)
(8.40496 -0.0795526 0)
(8.42202 -0.089347 0)
(8.43885 -0.0985293 0)
(8.45507 -0.107185 0)
(8.47037 -0.115423 0)
(8.48452 -0.123368 0)
(8.49737 -0.131153 0)
(8.50881 -0.138917 0)
(8.51877 -0.146797 0)
(8.52724 -0.154926 0)
(8.5342 -0.163427 0)
(8.53968 -0.172411 0)
(8.54371 -0.181978 0)
(8.54633 -0.192213 0)
(8.5476 -0.203187 0)
(8.54758 -0.214953 0)
(8.54633 -0.22755 0)
(8.5439 -0.241001 0)
(8.54035 -0.255316 0)
(8.53575 -0.270488 0)
(8.53014 -0.286501 0)
(8.52357 -0.303326 0)
(8.51608 -0.320925 0)
(8.50771 -0.339252 0)
(8.49849 -0.358251 0)
(8.48844 -0.377856 0)
(8.4776 -0.39799 0)
(8.33342 -0.00849464 0)
(8.33765 -0.0251796 0)
(8.34655 -0.0410116 0)
(8.35894 -0.055735 0)
(8.37368 -0.0692448 0)
(8.39005 -0.0815125 0)
(8.40732 -0.0925669 0)
(8.42485 -0.102494 0)
(8.44211 -0.111423 0)
(8.45867 -0.119506 0)
(8.47421 -0.126916 0)
(8.48851 -0.133832 0)
(8.50137 -0.140433 0)
(8.5127 -0.146898 0)
(8.52242 -0.153393 0)
(8.53051 -0.160076 0)
(8.53696 -0.167092 0)
(8.54181 -0.174567 0)
(8.54508 -0.182616 0)
(8.54683 -0.191333 0)
(8.54714 -0.200798 0)
(8.54606 -0.211071 0)
(8.54367 -0.222196 0)
(8.54006 -0.2342 0)
(8.53528 -0.247093 0)
(8.52941 -0.26087 0)
(8.52253 -0.275513 0)
(8.51468 -0.290993 0)
(8.50594 -0.307267 0)
(8.49633 -0.324286 0)
(8.48592 -0.341989 0)
(8.47473 -0.360308 0)
(8.46282 -0.379156 0)
(8.33345 -0.0102428 0)
(8.33799 -0.0303079 0)
(8.34753 -0.0491459 0)
(8.36078 -0.0663755 0)
(8.3765 -0.0818742 0)
(8.39389 -0.095628 0)
(8.41218 -0.107691 0)
(8.43065 -0.118187 0)
(8.44874 -0.12729 0)
(8.46599 -0.135201 0)
(8.48208 -0.14214 0)
(8.49674 -0.148333 0)
(8.50981 -0.154006 0)
(8.52117 -0.159375 0)
(8.53075 -0.164646 0)
(8.53852 -0.170007 0)
(8.54451 -0.175631 0)
(8.54874 -0.181669 0)
(8.55126 -0.188254 0)
(8.55213 -0.195496 0)
(8.55144 -0.203488 0)
(8.54926 -0.212298 0)
(8.54569 -0.221976 0)
(8.54082 -0.232551 0)
(8.53472 -0.244032 0)
(8.5275 -0.256411 0)
(8.51923 -0.269665 0)
(8.50999 -0.283758 0)
(8.49985 -0.298641 0)
(8.48887 -0.314256 0)
(8.47711 -0.330534 0)
(8.46461 -0.347401 0)
(8.45142 -0.364767 0)
(8.33349 -0.0121895 0)
(8.33846 -0.035969 0)
(8.34888 -0.0579734 0)
(8.36325 -0.0776262 0)
(8.3802 -0.0947754 0)
(8.39884 -0.109452 0)
(8.41836 -0.121797 0)
(8.438 -0.132039 0)
(8.45713 -0.140459 0)
(8.4753 -0.147349 0)
(8.49214 -0.153004 0)
(8.50737 -0.157712 0)
(8.52082 -0.161744 0)
(8.53235 -0.165357 0)
(8.54191 -0.168785 0)
(8.54947 -0.172244 0)
(8.55505 -0.175925 0)
(8.55869 -0.18 0)
(8.56046 -0.184617 0)
(8.56043 -0.189901 0)
(8.5587 -0.195958 0)
(8.55538 -0.202868 0)
(8.55057 -0.210693 0)
(8.54439 -0.219471 0)
(8.53695 -0.229219 0)
(8.52835 -0.239936 0)
(8.51871 -0.251603 0)
(8.50812 -0.264185 0)
(8.49667 -0.277633 0)
(8.48443 -0.291888 0)
(8.47148 -0.306876 0)
(8.45788 -0.322518 0)
(8.4437 -0.338716 0)
(8.33357 -0.0144512 0)
(8.33933 -0.042644 0)
(8.35131 -0.0686101 0)
(8.36771 -0.0916389 0)
(8.38684 -0.11156 0)
(8.40765 -0.128372 0)
(8.42922 -0.142194 0)
(8.45069 -0.153278 0)
(8.47141 -0.161959 0)
(8.49088 -0.168599 0)
(8.50876 -0.173573 0)
(8.52476 -0.177246 0)
(8.53873 -0.179965 0)
(8.55055 -0.182052 0)
(8.56016 -0.183801 0)
(8.56756 -0.185474 0)
(8.57278 -0.187306 0)
(8.57587 -0.189503 0)
(8.5769 -0.192239 0)
(8.57598 -0.195665 0)
(8.5732 -0.199902 0)
(8.5687 -0.205044 0)
(8.5626 -0.211159 0)
(8.55502 -0.218286 0)
(8.5461 -0.226443 0)
(8.53597 -0.23562 0)
(8.52475 -0.245788 0)
(8.51256 -0.256902 0)
(8.4995 -0.268898 0)
(8.48568 -0.281704 0)
(8.47117 -0.295234 0)
(8.45606 -0.309397 0)
(8.44039 -0.324088 0)
(8.33363 -0.017092 0)
(8.34016 -0.0501083 0)
(8.35375 -0.0797133 0)
(8.37217 -0.10501 0)
(8.39351 -0.126029 0)
(8.41667 -0.143032 0)
(8.44059 -0.156372 0)
(8.46432 -0.166487 0)
(8.48712 -0.173843 0)
(8.50843 -0.178886 0)
(8.52785 -0.182045 0)
(8.5451 -0.183725 0)
(8.55999 -0.184302 0)
(8.57241 -0.184122 0)
(8.58232 -0.183499 0)
(8.58971 -0.18272 0)
(8.59465 -0.182038 0)
(8.59719 -0.181682 0)
(8.59744 -0.18185 0)
(8.59551 -0.182713 0)
(8.59155 -0.184418 0)
(8.58571 -0.187082 0)
(8.57813 -0.190798 0)
(8.569 -0.195628 0)
(8.55848 -0.201611 0)
(8.54673 -0.208755 0)
(8.53392 -0.217047 0)
(8.52018 -0.22645 0)
(8.50566 -0.236905 0)
(8.49047 -0.248338 0)
(8.47473 -0.26066 0)
(8.45852 -0.273772 0)
(8.44192 -0.287549 0)
(8.33388 -0.0205014 0)
(8.34247 -0.0604678 0)
(8.35971 -0.0965701 0)
(8.38236 -0.127569 0)
(8.40778 -0.153243 0)
(8.43465 -0.173625 0)
(8.46183 -0.189033 0)
(8.48835 -0.200047 0)
(8.51348 -0.207322 0)
(8.53673 -0.211506 0)
(8.55773 -0.213212 0)
(8.57622 -0.213008 0)
(8.59204 -0.2114 0)
(8.60509 -0.208839 0)
(8.61536 -0.205721 0)
(8.62284 -0.202392 0)
(8.6276 -0.199156 0)
(8.62972 -0.196279 0)
(8.62932 -0.193989 0)
(8.62651 -0.192483 0)
(8.62146 -0.191925 0)
(8.61433 -0.192448 0)
(8.60528 -0.19415 0)
(8.59452 -0.197096 0)
(8.58222 -0.201315 0)
(8.56857 -0.206802 0)
(8.55378 -0.213524 0)
(8.538 -0.221421 0)
(8.52141 -0.230415 0)
(8.50415 -0.240406 0)
(8.48636 -0.251284 0)
(8.46815 -0.262928 0)
(8.44957 -0.2752 0)
(8.33384 -0.0244154 0)
(8.34328 -0.0702452 0)
(8.36298 -0.108986 0)
(8.38908 -0.140334 0)
(8.41867 -0.165327 0)
(8.45016 -0.184607 0)
(8.48203 -0.198716 0)
(8.51292 -0.208305 0)
(8.54195 -0.214008 0)
(8.56854 -0.216421 0)
(8.59228 -0.21612 0)
(8.61291 -0.213653 0)
(8.63029 -0.20953 0)
(8.64437 -0.204215 0)
(8.65517 -0.198132 0)
(8.66273 -0.191662 0)
(8.66716 -0.185145 0)
(8.66857 -0.178884 0)
(8.66711 -0.17315 0)
(8.66294 -0.168181 0)
(8.65626 -0.164186 0)
(8.64727 -0.161344 0)
(8.63619 -0.159805 0)
(8.62328 -0.159685 0)
(8.60878 -0.161062 0)
(8.59294 -0.163972 0)
(8.576 -0.168414 0)
(8.55817 -0.174348 0)
(8.53966 -0.181704 0)
(8.52066 -0.190383 0)
(8.50132 -0.200261 0)
(8.48179 -0.211204 0)
(8.46217 -0.223037 0)
(8.33496 -0.0311783 0)
(8.35107 -0.0921226 0)
(8.37959 -0.14489 0)
(8.41338 -0.187304 0)
(8.44891 -0.219682 0)
(8.48519 -0.242803 0)
(8.52096 -0.257957 0)
(8.55504 -0.266608 0)
(8.58672 -0.270039 0)
(8.61548 -0.269342 0)
(8.64096 -0.265456 0)
(8.66294 -0.259175 0)
(8.6813 -0.251161 0)
(8.69603 -0.241975 0)
(8.70716 -0.232096 0)
(8.71475 -0.221938 0)
(8.71892 -0.211861 0)
(8.7198 -0.202184 0)
(8.71753 -0.193194 0)
(8.71229 -0.185144 0)
(8.70427 -0.178263 0)
(8.69365 -0.172746 0)
(8.68068 -0.168751 0)
(8.6656 -0.166393 0)
(8.64869 -0.165734 0)
(8.63023 -0.166788 0)
(8.6105 -0.169523 0)
(8.58977 -0.173869 0)
(8.5683 -0.179727 0)
(8.54633 -0.186973 0)
(8.52403 -0.195446 0)
(8.50161 -0.204974 0)
(8.47912 -0.215337 0)
(8.33401 -0.0360536 0)
(8.34967 -0.0979466 0)
(8.38315 -0.145758 0)
(8.42519 -0.184105 0)
(8.47024 -0.214894 0)
(8.51579 -0.23782 0)
(8.55962 -0.253301 0)
(8.60041 -0.262217 0)
(8.63767 -0.265417 0)
(8.67116 -0.263782 0)
(8.70075 -0.25822 0)
(8.72637 -0.24958 0)
(8.74803 -0.23862 0)
(8.76572 -0.226008 0)
(8.77946 -0.212325 0)
(8.78927 -0.19807 0)
(8.79519 -0.183673 0)
(8.7973 -0.169513 0)
(8.79568 -0.155925 0)
(8.79048 -0.143216 0)
(8.78189 -0.131673 0)
(8.77014 -0.12157 0)
(8.75555 -0.113169 0)
(8.73846 -0.106705 0)
(8.71929 -0.102343 0)
(8.69844 -0.100173 0)
(8.6763 -0.100212 0)
(8.65323 -0.102419 0)
(8.62958 -0.106701 0)
(8.60567 -0.112911 0)
(8.58181 -0.120876 0)
(8.55828 -0.130423 0)
(8.53522 -0.141285 0)
(8.33958 -0.060101 0)
(8.37694 -0.168438 0)
(8.42594 -0.245664 0)
(8.47534 -0.297298 0)
(8.52701 -0.330355 0)
(8.58225 -0.349117 0)
(8.63925 -0.35758 0)
(8.69643 -0.358749 0)
(8.7526 -0.354518 0)
(8.8064 -0.346175 0)
(8.85661 -0.334655 0)
(8.90225 -0.320652 0)
(8.94261 -0.304729 0)
(8.97721 -0.287369 0)
(9.00573 -0.26901 0)
(9.02805 -0.250065 0)
(9.04416 -0.230929 0)
(9.05415 -0.211988 0)
(9.05821 -0.193623 0)
(9.05658 -0.17621 0)
(9.04954 -0.160122 0)
(9.03743 -0.145722 0)
(9.02068 -0.133351 0)
(8.99986 -0.123286 0)
(8.97567 -0.115701 0)
(8.94882 -0.110714 0)
(8.92002 -0.108302 0)
(8.88994 -0.108364 0)
(8.85922 -0.110909 0)
(8.82843 -0.115774 0)
(8.79797 -0.122715 0)
(8.7683 -0.131454 0)
(8.73959 -0.14173 0)
(8.33761 -0.0461464 0)
(8.39345 -0.119595 0)
(8.49336 -0.182151 0)
(8.60733 -0.241825 0)
(8.72772 -0.291969 0)
(8.84892 -0.329286 0)
(8.96397 -0.354396 0)
(9.06873 -0.368124 0)
(9.16105 -0.371586 0)
(9.23979 -0.366363 0)
(9.30482 -0.354102 0)
(9.35668 -0.33631 0)
(9.39635 -0.314329 0)
(9.42501 -0.289309 0)
(9.44389 -0.262217 0)
(9.45425 -0.233854 0)
(9.45718 -0.204891 0)
(9.45369 -0.175893 0)
(9.44459 -0.147355 0)
(9.43057 -0.119746 0)
(9.41217 -0.0935336 0)
(9.38988 -0.0692576 0)
(9.36414 -0.0476431 0)
(9.33549 -0.0295 0)
(9.30441 -0.0151511 0)
(9.2714 -0.00478364 0)
(9.23713 0.00149919 0)
(9.20187 0.00373267 0)
(9.16586 0.00222391 0)
(9.12957 -0.00271628 0)
(9.09346 -0.0109758 0)
(9.05779 -0.022257 0)
(9.02299 -0.0369941 0)
(8.40912 -0.220636 0)
(8.63449 -0.426309 0)
(8.83247 -0.518865 0)
(8.97644 -0.577192 0)
(9.07109 -0.60703 0)
(9.11581 -0.613943 0)
(9.11533 -0.6055 0)
(9.07946 -0.585782 0)
(9.01749 -0.55764 0)
(8.93722 -0.523661 0)
(8.84547 -0.485936 0)
(8.74786 -0.446076 0)
(8.6488 -0.405329 0)
(8.55166 -0.364634 0)
(8.45889 -0.324673 0)
(8.37223 -0.285921 0)
(8.29277 -0.248696 0)
(8.22115 -0.2132 0)
(8.15756 -0.179566 0)
(8.10182 -0.147916 0)
(8.05333 -0.118364 0)
(8.01124 -0.091127 0)
(7.97398 -0.0665341 0)
(7.94028 -0.0448602 0)
(7.90997 -0.0267146 0)
(7.88227 -0.0124465 0)
(7.85647 -0.00223965 0)
(7.83226 0.00394358 0)
(7.80929 0.00648385 0)
(7.78662 0.00573677 0)
(7.76362 0.00188887 0)
(7.73839 -0.00419093 0)
(7.71212 -0.0146277 0)
(8.13727 -0.206677 0)
(7.84905 -0.386666 0)
(7.38925 -0.43708 0)
(6.86776 -0.43668 0)
(6.37377 -0.404263 0)
(5.91048 -0.354107 0)
(5.48078 -0.298484 0)
(5.09227 -0.243781 0)
(4.74625 -0.19321 0)
(4.44094 -0.148374 0)
(4.17416 -0.109704 0)
(3.9432 -0.076959 0)
(3.74502 -0.0495901 0)
(3.57658 -0.0269055 0)
(3.43496 -0.00818038 0)
(3.31744 0.00727747 0)
(3.22152 0.0201069 0)
(3.14495 0.0309046 0)
(3.08573 0.0402487 0)
(3.04214 0.0487149 0)
(3.01265 0.056938 0)
(2.99607 0.0654753 0)
(2.99165 0.0742928 0)
(2.99769 0.0821789 0)
(3.01168 0.087498 0)
(3.03166 0.0900445 0)
(3.05545 0.0901962 0)
(3.081 0.0882442 0)
(3.10655 0.0846047 0)
(3.13079 0.0802458 0)
(3.15289 0.075569 0)
(3.17202 0.0741391 0)
(3.19072 0.0594136 0)
(2.87852 -0.179211 0)
(3.33765 -0.269321 0)
(3.66575 -0.248485 0)
(4.02381 -0.206572 0)
(4.43961 -0.127853 0)