/*--------------------------------*- C++ -*----------------------------------*\
| =========                 |                                                 |
| \\      /  F ield         | OpenFOAM: The Open Source CFD Toolbox           |
|  \\    /   O peration     | Version:  2.1.1                                 |
|   \\  /    A nd           | Web:      www.OpenFOAM.org                      |
|    \\/     M anipulation  |                                                 |
\*---------------------------------------------------------------------------*/
FoamFile
{
    version     2.0;
    format      ascii;
    class       volScalarField;
    location    "0.045";
    object      epsilon;
}
// * * * * * * * * * * * * * * * * * * * * * * * * * * * * * * * * * * * * * //

dimensions      [0 2 -3 0 0 0 0];

internalField   nonuniform List<scalar> 
6820
(
151.448
203.151
260.735
321.761
383.628
443.724
499.763
550.038
593.491
629.684
658.684
680.93
697.1
707.987
714.418
717.188
717.021
714.558
710.344
704.832
698.392
691.32
683.848
676.152
668.361
660.568
652.828
645.188
637.569
630.334
621.592
620.081
583.37
11.7448
21.4176
29.9444
38.6254
47.5815
56.5588
65.3202
73.6645
81.4295
88.507
94.8425
100.429
105.299
109.508
113.13
116.243
118.927
121.257
123.301
125.12
126.77
128.295
129.74
131.141
132.536
133.96
135.456
137.073
138.87
140.968
143.426
146.825
150.726
5.83781
7.51675
9.2065
10.8091
12.3195
13.747
15.0878
16.3384
17.497
18.5634
19.5395
20.4286
21.2362
21.9687
22.6333
23.2376
23.7894
24.2962
24.7649
25.2021
25.614
26.0058
26.3826
26.7491
27.1096
27.4683
27.8299
28.1995
28.5835
28.9902
29.4367
29.9174
30.5752
5.2423
5.56004
6.00442
6.49343
6.98563
7.4618
7.91284
8.33445
8.72494
9.08415
9.41281
9.71225
9.98414
10.2304
10.4529
10.6537
10.8347
10.9979
11.145
11.2777
11.3976
11.5059
11.6041
11.6932
11.7741
11.8476
11.9143
11.9745
12.0282
12.0751
12.1142
12.1438
12.1609
5.17349
5.18677
5.26821
5.39775
5.55637
5.72967
5.90778
6.08426
6.2551
6.41785
6.57112
6.71422
6.84689
6.96921
7.08144
7.18399
7.27735
7.36206
7.4387
7.50785
7.57009
7.62599
7.67608
7.72089
7.76089
7.79654
7.82825
7.85638
7.88123
7.90306
7.92194
7.93798
7.9504
5.16878
5.12131
5.09603
5.09482
5.11536
5.15307
5.20299
5.26076
5.32294
5.38695
5.45092
5.51354
5.57387
5.63132
5.68549
5.73617
5.78325
5.82674
5.8667
5.90324
5.93652
5.96671
5.994
6.01861
6.04076
6.06068
6.0786
6.09478
6.1095
6.12304
6.13573
6.1479
6.15989
5.16887
5.11169
5.06115
5.01963
4.9884
4.96754
4.95615
4.95279
4.95587
4.96387
4.97545
4.98948
5.00507
5.02149
5.03818
5.05472
5.07079
5.08615
5.10065
5.11417
5.12666
5.13809
5.14847
5.15784
5.16625
5.17376
5.18049
5.18655
5.19208
5.19726
5.2023
5.20744
5.21296
5.16902
5.11063
5.05514
5.00339
4.95619
4.91413
4.87746
4.8461
4.81972
4.7978
4.7798
4.7651
4.75317
4.7435
4.73563
4.7292
4.72387
4.71937
4.71548
4.71203
4.70888
4.7059
4.70303
4.70021
4.6974
4.69458
4.69178
4.68901
4.68634
4.68384
4.68162
4.67983
4.67864
5.16904
5.11054
5.05431
5.00049
4.94927
4.9009
4.85558
4.81345
4.77455
4.73881
4.7061
4.67622
4.64895
4.62405
4.60126
4.58034
4.56109
4.54328
4.52675
4.51133
4.49688
4.48328
4.47043
4.45823
4.44663
4.43558
4.42504
4.41499
4.40545
4.39644
4.388
4.38022
4.37319
5.16904
5.11054
5.0542
5.00002
4.94795
4.89803
4.85027
4.80471
4.76137
4.72027
4.68138
4.64465
4.61
4.57735
4.54658
4.51759
4.49024
4.46443
4.44003
4.41694
4.39505
4.37426
4.3545
4.33568
4.31774
4.30063
4.2843
4.26872
4.25387
4.23977
4.22642
4.21387
4.20217
5.16904
5.11053
5.05418
4.99994
4.94772
4.89747
4.84913
4.80264
4.75799
4.71513
4.67405
4.6347
4.59704
4.56102
4.5266
4.49371
4.46228
4.43226
4.40357
4.37615
4.34992
4.32483
4.30081
4.27781
4.25577
4.23466
4.21443
4.19505
4.17651
4.1588
4.14193
4.12593
4.11081
5.16904
5.11053
5.05417
4.99991
4.94767
4.89735
4.84888
4.80218
4.75719
4.71384
4.67209
4.63189
4.59317
4.55591
4.52005
4.48555
4.45236
4.42043
4.38972
4.36017
4.33175
4.3044
4.27809
4.25277
4.2284
4.20496
4.18241
4.16073
4.1399
4.11992
4.1008
4.08255
4.06519
5.16904
5.11052
5.05416
4.99989
4.94764
4.89731
4.84881
4.80206
4.75699
4.71352
4.67159
4.63114
4.59211
4.55444
4.5181
4.48302
4.44917
4.41649
4.38495
4.35451
4.32512
4.29675
4.26936
4.24293
4.21741
4.19278
4.16902
4.14611
4.12405
4.10281
4.08241
4.06287
4.04418
5.16904
5.11052
5.05415
4.99988
4.94762
4.89728
4.84877
4.802
4.75691
4.71341
4.67143
4.63091
4.59179
4.55402
4.51752
4.48227
4.44819
4.41526
4.38343
4.35266
4.3229
4.29413
4.2663
4.2394
4.21339
4.18824
4.16393
4.14046
4.1178
4.09596
4.07493
4.05471
4.03533
5.16903
5.11051
5.05414
4.99987
4.9476
4.89725
4.84873
4.80196
4.75685
4.71334
4.67135
4.63081
4.59167
4.55385
4.51732
4.48201
4.44787
4.41486
4.38294
4.35206
4.32218
4.29327
4.26529
4.23822
4.21202
4.18667
4.16216
4.13846
4.11556
4.09345
4.07214
4.05162
4.03191
5.16903
5.11051
5.05414
4.99986
4.94759
4.89723
4.8487
4.80192
4.75681
4.71329
4.67129
4.63074
4.59158
4.55376
4.51721
4.48188
4.44772
4.41469
4.38274
4.35182
4.32191
4.29295
4.26493
4.23781
4.21155
4.18614
4.16156
4.13778
4.11479
4.09259
4.07116
4.05052
4.03064
5.16903
5.1105
5.05413
4.99985
4.94757
4.89721
4.84868
4.80189
4.75677
4.71324
4.67123
4.63067
4.59151
4.55368
4.51712
4.48178
4.44761
4.41457
4.38261
4.35169
4.32176
4.2928
4.26476
4.23762
4.21135
4.18593
4.16132
4.13752
4.11451
4.09226
4.07079
4.05008
4.03013
5.16903
5.1105
5.05412
4.99984
4.94756
4.89719
4.84866
4.80186
4.75673
4.7132
4.67118
4.63062
4.59145
4.5536
4.51704
4.48169
4.44752
4.41447
4.38251
4.35158
4.32165
4.29268
4.26464
4.2375
4.21122
4.18579
4.16118
4.13737
4.11435
4.09209
4.07059
4.04984
4.02984
5.16903
5.1105
5.05412
4.99983
4.94755
4.89718
4.84864
4.80184
4.7567
4.71316
4.67114
4.63057
4.59139
4.55354
4.51697
4.48161
4.44744
4.41438
4.38241
4.35148
4.32154
4.29257
4.26453
4.23738
4.21111
4.18567
4.16106
4.13724
4.1142
4.09193
4.0704
4.04962
4.02957
5.16903
5.1105
5.05412
4.99983
4.94754
4.89717
4.84862
4.80181
4.75667
4.71312
4.67109
4.63052
4.59133
4.55348
4.5169
4.48154
4.44736
4.4143
4.38232
4.35138
4.32144
4.29246
4.26441
4.23727
4.21098
4.18554
4.16092
4.13709
4.11404
4.09175
4.0702
4.04938
4.02929
5.16903
5.1105
5.05411
4.99982
4.94753
4.89715
4.8486
4.80179
4.75665
4.71309
4.67106
4.63048
4.59128
4.55342
4.51683
4.48147
4.44728
4.41421
4.38223
4.35128
4.32134
4.29235
4.2643
4.23714
4.21085
4.1854
4.16077
4.13693
4.11386
4.09154
4.06997
4.04911
4.02897
5.16903
5.11049
5.05411
4.99982
4.94752
4.89714
4.84859
4.80178
4.75663
4.71307
4.67102
4.63044
4.59124
4.55337
4.51678
4.4814
4.44721
4.41413
4.38214
4.35119
4.32123
4.29224
4.26418
4.23701
4.21071
4.18525
4.1606
4.13675
4.11365
4.09131
4.0697
4.04881
4.02861
5.16903
5.11049
5.05411
4.99981
4.94752
4.89714
4.84858
4.80176
4.75661
4.71304
4.67099
4.6304
4.59119
4.55332
4.51672
4.48134
4.44714
4.41405
4.38205
4.35109
4.32113
4.29213
4.26406
4.23688
4.21057
4.18509
4.16042
4.13655
4.11343
4.09106
4.06941
4.04847
4.02823
5.16903
5.11049
5.05411
4.99981
4.94751
4.89713
4.84857
4.80175
4.75659
4.71302
4.67097
4.63037
4.59116
4.55328
4.51667
4.48128
4.44707
4.41398
4.38197
4.351
4.32103
4.29202
4.26393
4.23674
4.21041
4.18492
4.16023
4.13633
4.11319
4.09078
4.0691
4.04812
4.02782
5.16903
5.11049
5.0541
4.99981
4.94751
4.89712
4.84856
4.80173
4.75657
4.713
4.67094
4.63034
4.59112
4.55323
4.51662
4.48123
4.447
4.41391
4.38189
4.35091
4.32092
4.2919
4.2638
4.23659
4.21025
4.18474
4.16003
4.1361
4.11293
4.09049
4.06877
4.04774
4.02739
5.16903
5.11049
5.0541
4.9998
4.9475
4.89712
4.84855
4.80172
4.75656
4.71298
4.67092
4.63031
4.59109
4.5532
4.51658
4.48117
4.44694
4.41384
4.38181
4.35082
4.32082
4.29178
4.26367
4.23645
4.21008
4.18455
4.15982
4.13586
4.11266
4.09019
4.06842
4.04735
4.02694
5.16903
5.11049
5.0541
4.9998
4.9475
4.89711
4.84854
4.80171
4.75655
4.71296
4.6709
4.63028
4.59106
4.55316
4.51653
4.48112
4.44688
4.41377
4.38173
4.35072
4.32071
4.29166
4.26353
4.23629
4.20991
4.18435
4.1596
4.13561
4.11238
4.08987
4.06807
4.04695
4.02649
5.16903
5.11049
5.0541
4.9998
4.9475
4.89711
4.84854
4.80171
4.75654
4.71296
4.67089
4.63027
4.59104
4.55313
4.5165
4.48108
4.44683
4.41371
4.38166
4.35064
4.32062
4.29155
4.26341
4.23615
4.20975
4.18417
4.15938
4.13537
4.11211
4.08956
4.06772
4.04655
4.02605
5.16903
5.11049
5.0541
4.9998
4.9475
4.8971
4.84853
4.8017
4.75652
4.71294
4.67086
4.63024
4.591
4.55309
4.51645
4.48103
4.44677
4.41364
4.38158
4.35055
4.32051
4.29143
4.26327
4.23599
4.20957
4.18397
4.15916
4.13512
4.11182
4.08924
4.06736
4.04616
4.0256
5.16903
5.11049
5.0541
4.9998
4.9475
4.89711
4.84854
4.80171
4.75654
4.71295
4.67087
4.63025
4.59101
4.55309
4.51645
4.48102
4.44675
4.41361
4.38154
4.3505
4.32045
4.29135
4.26317
4.23588
4.20943
4.18381
4.15897
4.13491
4.11158
4.08897
4.06705
4.0458
4.0252
5.16903
5.11049
5.0541
4.9998
4.9475
4.89711
4.84853
4.80169
4.75652
4.71292
4.67085
4.63022
4.59097
4.55305
4.5164
4.48097
4.4467
4.41355
4.38147
4.35042
4.32036
4.29125
4.26306
4.23575
4.20929
4.18365
4.15879
4.1347
4.11135
4.08871
4.06676
4.04548
4.02484
5.16903
5.11049
5.0541
4.99981
4.94752
4.89714
4.84859
4.80176
4.7566
4.71302
4.67094
4.63032
4.59107
4.55315
4.5165
4.48106
4.44679
4.41363
4.38154
4.35049
4.32042
4.2913
4.2631
4.23579
4.20931
4.18366
4.1588
4.1347
4.11133
4.08868
4.06672
4.04542
4.02477
5.16903
5.11051
5.05414
4.99985
4.94757
4.89718
4.84861
4.80179
4.75662
4.71303
4.67096
4.63034
4.59111
4.5532
4.51656
4.48114
4.44689
4.41376
4.38171
4.35068
4.32065
4.29158
4.26342
4.23615
4.20973
4.18413
4.15932
4.13528
4.11197
4.08939
4.06749
4.04626
4.02567
5.16903
5.1105
5.05415
4.99992
4.9477
4.89739
4.8489
4.80215
4.75704
4.71352
4.67152
4.63097
4.59182
4.554
4.51748
4.48218
4.44807
4.4151
4.38322
4.3524
4.32259
4.29375
4.26585
4.23885
4.21271
4.18742
4.16293
4.13921
4.11625
4.09401
4.07248
4.05162
4.03141
5.16905
5.11063
5.05441
5.00026
4.9481
4.89786
4.84948
4.80289
4.75803
4.71482
4.67323
4.63317
4.5946
4.55745
4.52167
4.4872
4.454
4.42201
4.39117
4.36145
4.3328
4.30517
4.27851
4.2528
4.22798
4.20403
4.1809
4.15857
4.13699
4.11615
4.09601
4.07655
4.05774
5.16908
5.11079
5.05488
5.00136
4.95017
4.9012
4.8544
4.80971
4.76708
4.72645
4.68774
4.65089
4.61581
4.58241
4.5506
4.52031
4.49144
4.46391
4.43764
4.41256
4.38859
4.36567
4.34373
4.3227
4.30254
4.28319
4.2646
4.24672
4.22952
4.21295
4.19698
4.18157
4.16669
5.16939
5.11359
5.06202
5.01465
4.97148
4.93245
4.8974
4.86603
4.83804
4.81309
4.79087
4.77106
4.75337
4.73756
4.72337
4.7106
4.69905
4.68856
4.67898
4.67018
4.66203
4.65444
4.64731
4.64056
4.63413
4.62794
4.62195
4.6161
4.61035
4.60466
4.59901
4.59335
4.58767
5.17808
5.16329
5.16946
5.19107
5.22416
5.2657
5.31329
5.36505
5.41955
5.4757
5.53267
5.58981
5.6466
5.70266
5.75769
5.81148
5.86386
5.91472
5.96398
6.01159
6.05754
6.10181
6.14442
6.1854
6.22478
6.2626
6.29893
6.33381
6.36731
6.39951
6.43047
6.46027
6.489
5.63862
6.43048
7.146
7.82629
8.49617
9.14969
9.78106
10.388
10.9705
11.5295
12.0666
12.5835
13.0819
13.5633
14.0293
14.4812
14.9202
15.3473
15.7637
16.1702
16.5678
16.9572
17.3392
17.7145
18.0839
18.448
18.8074
19.1627
19.5146
19.8634
20.2099
20.5544
20.8972
44.7794
48.3124
51.8864
55.4657
59.0312
62.5709
66.0744
69.5317
72.9341
76.2738
79.5439
82.7385
85.8525
88.8819
91.8234
94.6745
97.4333
100.099
102.67
105.147
107.53
109.82
112.017
114.123
116.14
118.068
119.911
121.669
123.345
124.941
126.459
127.901
129.271
694.066
849.415
1013.44
1168.2
1269.93
1277.8
1194.05
1059.22
918.304
797.761
704.536
635.165
583.719
545.316
516.592
495.928
481.122
470.073
460.579
450.136
435.867
414.598
383.146
339.025
281.7
214.26
144.552
83.7735
41.2852
18.9563
10.7609
8.91251
9.02311
9.58303
10.182
10.7111
11.1324
11.4293
11.5996
11.6534
11.6084
11.4855
11.3052
11.0859
10.8423
10.5863
10.3268
10.0705
9.82278
9.58825
9.37098
9.17476
9.00286
8.85745
8.73891
8.64521
8.57177
8.51189
8.45759
8.40045
8.33214
8.24431
8.12816
7.97405
7.77187
7.51229
7.18884
6.80033
6.35263
5.85933
5.34078
4.82149
4.32644
3.87716
3.48842
3.16666
2.9104
2.71227
2.5619
2.44853
2.36283
2.29756
2.24752
2.20907
2.17963
2.15724
2.14037
2.12781
2.11856
2.11182
2.10698
2.10355
2.10116
2.09952
2.09842
2.09769
2.09723
2.09689
2.09688
2.09575
158.846
175.31
207.815
266.295
357.483
477.596
608.469
722.738
796.063
819.076
799.558
754.509
700.41
648.098
602.462
563.785
530.481
499.943
469.212
435.448
396.17
349.545
294.95
233.772
170.136
110.789
63.1671
31.8764
15.99
10.0501
8.51832
8.45169
8.80513
9.26407
9.72559
10.1402
10.4762
10.7152
10.8523
10.8932
10.8509
10.7417
10.5822
10.3873
10.1696
9.93918
9.70367
9.46912
9.24031
9.02132
8.81594
8.62785
8.46052
8.31674
8.19796
8.10351
8.03028
7.97291
7.92445
7.8772
7.82333
7.75487
7.6634
7.53955
7.37326
7.15479
6.87677
6.53646
6.13771
5.69181
5.21682
4.7353
4.27098
3.84495
3.47244
3.16104
2.91077
2.71573
2.56679
2.454
2.36849
2.30322
2.25305
2.21436
2.18457
2.16177
2.14446
2.13143
2.12172
2.11455
2.1093
2.10551
2.10279
2.10087
2.09951
2.09856
2.0979
2.09739
2.09724
2.09594
31.2737
31.9673
32.8901
35.5983
44.0988
64.4586
101.822
157.471
226.844
300.68
368.55
422.158
457.14
473.432
472.712
456.531
428.628
392.579
350.815
304.718
255.286
203.903
152.917
105.754
66.3174
37.6434
20.3451
12.0588
8.95002
8.049
7.94637
8.1459
8.47413
8.8517
9.22849
9.56784
9.84367
10.0406
10.1535
10.1862
10.1486
10.0533
9.91362
9.74191
9.54865
9.34238
9.12984
8.91633
8.70609
8.50279
8.30986
8.13076
7.96896
7.82762
7.70894
7.61341
7.53925
7.48239
7.43696
7.39612
7.35266
7.29922
7.22791
7.12989
6.99533
6.81431
6.57861
6.28399
5.93222
5.53218
5.09953
4.65478
4.22029
3.8167
3.45965
3.15789
2.91294
2.72044
2.57247
2.45992
2.37436
2.30893
2.25854
2.21955
2.18938
2.16614
2.14835
2.13482
2.12463
2.11699
2.11132
2.10713
2.10406
2.10181
2.10018
2.09898
2.0981
2.0974
2.0971
2.09559
12.1651
12.1026
11.8076
11.0063
9.54873
8.10759
8.41507
12.2255
21.0728
35.9797
56.5824
80.4076
103.791
122.872
135.834
142.803
142.847
135.7
122.113
103.7
82.6577
61.456
42.4768
27.5553
17.4937
11.8016
9.08454
7.93933
7.51162
7.43273
7.55136
7.78758
8.08829
8.41343
8.73082
9.0144
9.24457
9.40921
9.50407
9.53174
9.49965
9.41775
9.29669
9.14652
8.97599
8.79239
8.60155
8.40815
8.21597
8.02826
7.84813
7.67875
7.52346
7.38555
7.26775
7.17141
7.09591
7.03837
6.99401
6.95684
6.92039
6.87802
6.82256
6.74587
6.63862
6.49088
6.29377
6.04166
5.73427
5.37809
4.98627
4.57722
4.17184
3.79016
3.4482
3.15577
2.91585
2.72562
2.57838
2.46589
2.38015
2.31448
2.26382
2.22452
2.19399
2.17031
2.15205
2.13803
2.12735
2.11925
2.11313
2.10853
2.10509
2.10251
2.10057
2.09911
2.098
2.09709
2.09663
2.0949
7.96
7.96366
7.94605
7.85556
7.55733
6.84956
5.66303
4.25404
3.40141
3.73579
5.29664
7.99085
11.5827
15.5519
19.235
21.9336
23.3156
23.2488
21.8285
19.3929
16.458
13.5761
11.1651
9.40138
8.2374
7.51929
7.10829
6.91922
6.89641
6.99539
7.18021
7.42187
7.69541
7.97801
8.24857
8.48843
8.68286
8.82247
8.90374
8.92848
8.9023
8.83298
8.72901
8.59857
8.44894
8.28629
8.1157
7.94126
7.76635
7.59388
7.42662
7.26743
7.11945
6.98596
6.86995
6.77345
6.69676
6.63804
6.5935
6.55803
6.52592
6.49127
6.44777
6.38816
6.30378
6.18497
6.0224
5.8092
5.54321
5.22849
4.87576
4.50121
4.12419
3.76404
3.43698
3.15377
2.91882
2.73076
2.58415
2.47161
2.38561
2.31966
2.26873
2.22914
2.19826
2.17419
2.15549
2.14102
2.12987
2.12131
2.11476
2.10976
2.10595
2.10303
2.10079
2.09906
2.09771
2.09659
2.09595
2.09399
6.17403
6.1921
6.2146
6.24166
6.26346
6.23977
6.08831
5.70564
5.09753
4.47925
4.06261
3.98747
4.32581
5.11891
6.08186
6.92157
7.529
7.868
7.95092
7.82764
7.57032
7.25437
6.9426
6.67811
6.4851
6.37278
6.34006
6.38004
6.48333
6.63968
6.8381
7.06635
7.31078
7.55665
7.78898
7.99385
8.15997
8.28001
8.35109
8.37441
8.35421
8.29652
8.20808
8.09552
7.96489
7.82142
7.66948
7.5127
7.35408
7.19624
7.04165
6.89287
6.75278
6.62453
6.51126
6.41541
6.33802
6.27813
6.23284
6.19781
6.16805
6.13843
6.10353
6.05707
5.99129
5.89701
5.76472
5.58656
5.3586
5.08266
4.76701
4.42562
4.07621
3.73726
3.42504
3.15114
2.92125
2.73542
2.58945
2.47682
2.39053
2.32429
2.2731
2.23325
2.20209
2.17768
2.1586
2.14372
2.13215
2.12317
2.11622
2.11083
2.10666
2.10341
2.10088
2.09888
2.09729
2.09596
2.09515
2.09295
5.22038
5.23129
5.24693
5.26962
5.30127
5.3413
5.38063
5.39384
5.34318
5.21319
5.02979
4.85559
4.76253
4.81482
4.96861
5.16964
5.37102
5.54114
5.66464
5.73985
5.77491
5.78357
5.78149
5.78339
5.80139
5.84418
5.91692
6.02185
6.15869
6.3249
6.51568
6.724
6.94073
7.15518
7.35602
7.53255
7.67603
7.78068
7.84412
7.86707
7.85269
7.80562
7.73116
7.63468
7.52119
7.3951
7.26021
7.1197
6.97628
6.83229
6.68993
6.55152
6.41965
6.29729
6.18757
6.09323
6.01582
5.95513
5.90899
5.87374
5.84503
5.8184
5.78932
5.75256
5.70138
5.62734
5.521
5.3738
5.18028
4.94017
4.65937
4.34966
4.02702
3.70896
3.41163
3.14724
2.92265
2.73923
2.59399
2.48132
2.39475
2.32822
2.27679
2.23673
2.20534
2.18067
2.16128
2.14606
2.13412
2.12478
2.11747
2.11173
2.10723
2.10368
2.10087
2.09861
2.0968
2.09526
2.09429
2.09186
4.67836
4.6801
4.68534
4.69559
4.71227
4.73662
4.76918
4.80809
4.84651
4.87384
4.88193
4.87157
4.85429
4.84925
4.86645
4.90614
4.96193
5.02525
5.08875
5.14811
5.20235
5.25334
5.3049
5.36182
5.42903
5.51096
5.61106
5.73142
5.87249
6.03299
6.20973
6.39756
6.58948
6.77719
6.95188
7.10524
7.23043
7.32287
7.38052
7.40377
7.39487
7.35735
7.29538
7.21326
7.11511
7.00468
6.88525
6.75963
6.63024
6.49921
6.36852
6.24023
6.11668
6.00063
5.89512
5.80305
5.72636
5.66542
5.61867
5.58303
5.55463
5.5296
5.50418
5.47419
5.43402
5.37615
5.29152
5.17113
5.0083
4.80087
4.55251
4.27283
3.97603
3.67853
3.39616
3.14158
2.92262
2.74189
2.59757
2.48495
2.39812
2.33133
2.27969
2.23946
2.2079
2.18304
2.16343
2.14794
2.13572
2.12608
2.11846
2.11243
2.10764
2.10382
2.10076
2.09827
2.09626
2.09452
2.0934
2.09076
4.36618
4.35992
4.3563
4.35641
4.36125
4.37171
4.38848
4.41186
4.44139
4.47515
4.50997
4.54277
4.57213
4.60038
4.63028
4.66374
4.70156
4.74359
4.78919
4.83786
4.88968
4.94546
5.0068
5.07583
5.15493
5.24643
5.35215
5.47316
5.60946
5.75978
5.92138
6.08999
6.26001
6.42485
6.57761
6.7118
6.82205
6.90466
6.95786
6.98172
6.97782
6.94878
6.89784
6.82843
6.74394
6.64753
6.54203
6.42993
6.31342
6.1944
6.07469
5.95612
5.84081
5.73128
5.63046
5.54129
5.466
5.40543
5.35852
5.32262
5.29427
5.26999
5.24668
5.22111
5.18886
5.14345
5.07648
4.97882
4.84288
4.66485
4.44637
4.19493
3.92295
3.64561
3.37826
3.1338
2.92087
2.74319
2.60002
2.48759
2.40058
2.33355
2.28172
2.24137
2.2097
2.18472
2.16495
2.14928
2.13685
2.12698
2.11912
2.11285
2.10783
2.10379
2.10051
2.09783
2.09564
2.09374
2.09248
2.08965
4.18977
4.17713
4.16656
4.15884
4.15477
4.15509
4.1604
4.1711
4.1874
4.20911
4.2356
4.26577
4.29852
4.3333
4.36997
4.40863
4.44954
4.493
4.5394
4.58924
4.64323
4.70236
4.76788
4.8412
4.92381
5.01704
5.1219
5.23878
5.3673
5.50609
5.65268
5.80353
5.9541
6.09919
6.23336
6.35152
6.44938
6.52393
6.57357
6.59813
6.59863
6.57699
6.53567
6.47742
6.40499
6.32106
6.22805
6.12817
6.02339
5.91544
5.80596
5.69662
5.5893
5.48634
5.39049
5.30469
5.23139
5.17175
5.12519
5.08939
5.06113
5.03722
5.01503
4.99213
4.96522
4.92903
4.87598
4.79716
4.68435
4.53241
4.34113
4.11603
3.8677
3.61004
3.35772
3.1237
2.91723
2.74297
2.60126
2.48919
2.40208
2.33485
2.28286
2.24241
2.21068
2.18564
2.16579
2.15001
2.13745
2.12742
2.11939
2.11294
2.10774
2.10352
2.10008
2.09724
2.0949
2.09287
2.09149
2.08851
4.09443
4.07707
4.06135
4.04789
4.03732
4.03026
4.02728
4.02882
4.0352
4.04658
4.06291
4.08396
4.10931
4.13857
4.17141
4.20762
4.24712
4.28998
4.33644
4.38691
4.442
4.50246
4.5692
4.64319
4.72539
4.81657
4.91723
5.02736
5.14638
5.27292
5.40487
5.53926
5.67246
5.80034
5.91859
6.02318
6.11063
6.17841
6.22505
6.2502
6.25444
6.23912
6.20611
6.15756
6.09571
6.0228
5.94093
5.85204
5.75788
5.66006
5.56005
5.45937
5.35973
5.26323
5.17248
5.09036
5.01946
4.96126
4.91552
4.88024
4.85234
4.82876
4.80714
4.7857
4.76215
4.73243
4.68998
4.62637
4.53309
4.40396
4.23717
4.03639
3.81044
3.57185
3.33449
3.11118
2.91157
2.74117
2.60124
2.48974
2.40264
2.33525
2.28312
2.24259
2.21083
2.18577
2.1659
2.15008
2.13744
2.12732
2.11919
2.11263
2.1073
2.10296
2.0994
2.09644
2.09399
2.09185
2.09039
2.08729
4.04613
4.02556
4.00632
3.98887
3.97374
3.96146
3.95253
3.94741
3.94648
3.95
3.95815
3.97096
3.98837
4.01025
4.03646
4.06691
4.10152
4.14035
4.18353
4.23135
4.28418
4.34254
4.40699
4.47815
4.55657
4.64263
4.7365
4.83794
4.94628
5.06027
5.17808
5.29729
5.41495
5.52775
5.63227
5.72522
5.80376
5.8657
5.90967
5.93517
5.94246
5.93244
5.9065
5.86629
5.81365
5.75042
5.67843
5.59936
5.51479
5.42618
5.33489
5.24228
5.14989
5.05965
4.97398
4.89571
4.82751
4.77112
4.72661
4.69226
4.66508
4.64201
4.62079
4.60007
4.57843
4.55297
4.51826
4.4666
4.38948
4.27999
4.13498
3.95642
3.75148
3.53123
3.30867
3.09625
2.9039
2.73776
2.59995
2.48925
2.4023
2.3348
2.28255
2.24195
2.21017
2.18513
2.16527
2.14946
2.13681
2.12666
2.11848
2.11186
2.10646
2.10205
2.09841
2.09538
2.09285
2.09064
2.08912
2.08593
4.02352
4.00097
3.97948
3.95945
3.94129
3.92544
3.91237
3.9025
3.89621
3.89384
3.89564
3.90178
3.91235
3.92742
3.94699
3.97109
3.99972
4.03297
4.07095
4.11386
4.16196
4.21556
4.27503
4.3407
4.41285
4.49164
4.577
4.66861
4.76575
4.86732
4.97176
5.07707
5.18085
5.28042
5.37299
5.45585
5.5266
5.58335
5.62481
5.65035
5.66
5.65432
5.63429
5.6012
5.5565
5.50174
5.43845
5.36813
5.29218
5.21192
5.12859
5.04343
4.95785
4.87359
4.79291
4.71853
4.65319
4.59884
4.55588
4.52279
4.4967
4.47443
4.45368
4.43333
4.41263
4.38975
4.36043
4.31786
4.25383
4.16099
4.0351
3.87667
3.69125
3.48852
3.28044
3.07903
2.89426
2.73278
2.59744
2.4878
2.40113
2.33359
2.28124
2.24057
2.20879
2.18377
2.16395
2.14817
2.13555
2.12542
2.11724
2.1106
2.10519
2.10074
2.09706
2.09399
2.09143
2.08918
2.08762
2.08437
4.0138
3.99012
3.96732
3.94569
3.92559
3.90739
3.89149
3.87826
3.86809
3.86132
3.85822
3.85905
3.86398
3.87317
3.88673
3.90476
3.92734
3.95458
3.9866
4.02357
4.06565
4.11307
4.16604
4.22473
4.28927
4.35967
4.43576
4.51716
4.6032
4.69291
4.78497
4.87769
4.9691
5.057
5.13907
5.21305
5.27689
5.3289
5.36788
5.39313
5.4045
5.40227
5.38713
5.36003
5.32214
5.27472
5.21908
5.1565
5.08825
5.01552
4.93944
4.86114
4.78189
4.70327
4.62739
4.55686
4.49445
4.44228
4.40105
4.36949
4.34479
4.32365
4.3036
4.28355
4.26322
4.24172
4.21593
4.18004
4.12637
4.04741
3.93811
3.79771
3.63027
3.44411
3.25011
3.0597
2.88277
2.72629
2.59377
2.48544
2.39922
2.33173
2.2793
2.23857
2.20676
2.18177
2.162
2.14628
2.13372
2.12363
2.11548
2.10887
2.10347
2.09903
2.09535
2.09227
2.08969
2.08743
2.08586
2.08259
4.00993
3.98565
3.9621
3.93951
3.91818
3.89842
3.88057
3.86497
3.85196
3.84187
3.83499
3.83158
3.83188
3.83609
3.84438
3.85689
3.87376
3.89512
3.9211
3.95184
3.98748
4.02819
4.07407
4.12524
4.18173
4.24346
4.31024
4.38168
4.45716
4.53584
4.61658
4.69797
4.77837
4.85591
4.92868
4.99474
5.05232
5.09992
5.1364
5.16103
5.17352
5.17395
5.16277
5.14068
5.10857
5.06749
5.01852
4.96278
4.9014
4.83542
4.76591
4.69388
4.62048
4.54716
4.47585
4.40906
4.34954
4.29961
4.2602
4.23033
4.20725
4.18755
4.16847
4.14883
4.12863
4.1077
4.08403
4.05285
4.00719
3.93962
3.84454
3.72011
3.56909
3.39846
3.21803
3.0385
2.86957
2.71842
2.58902
2.48227
2.39667
2.32933
2.27686
2.23606
2.20423
2.17925
2.15953
2.14387
2.13137
2.12135
2.11326
2.1067
2.10134
2.09693
2.09327
2.09021
2.08765
2.08539
2.08383
2.08056
4.00845
3.98384
3.95984
3.93665
3.91451
3.89368
3.87444
3.8571
3.84196
3.82931
3.81945
3.81265
3.80913
3.80914
3.81286
3.82047
3.83213
3.848
3.86821
3.8929
3.92221
3.95623
3.99507
4.03878
4.08734
4.14067
4.19854
4.2606
4.32629
4.39487
4.46536
4.53659
4.60713
4.67545
4.73989
4.7988
4.85064
4.89406
4.92799
4.9517
4.96478
4.96719
4.95917
4.9412
4.91398
4.87833
4.83516
4.78544
4.73013
4.67022
4.60663
4.54031
4.47229
4.40389
4.33689
4.27368
4.21699
4.16926
4.1317
4.10357
4.08227
4.06423
4.04643
4.02742
4.00731
3.98649
3.96392
3.93591
3.89628
3.83789
3.75484
3.64444
3.50827
3.35207
3.18457
3.01573
2.85487
2.70927
2.58329
2.47837
2.39359
2.32649
2.27403
2.23318
2.20131
2.17634
2.15666
2.14106
2.12863
2.11868
2.11066
2.10416
2.09885
2.09449
2.09088
2.08785
2.08532
2.08309
2.08154
2.0783
4.00781
3.98301
3.95871
3.93511
3.91238
3.89076
3.87048
3.8518
3.83499
3.82033
3.80807
3.79848
3.79179
3.78823
3.78801
3.79132
3.79834
3.80923
3.82413
3.84319
3.86652
3.89423
3.92639
3.96303
4.00412
4.04957
4.09916
4.15257
4.20931
4.26873
4.32999
4.39207
4.45379
4.51382
4.57074
4.62314
4.66966
4.70909
4.74044
4.76296
4.7762
4.77999
4.77443
4.75982
4.73668
4.70566
4.66752
4.62306
4.57314
4.51863
4.46037
4.39922
4.33613
4.27228
4.20931
4.14949
4.09551
4.04991
4.01415
3.98778
3.96831
3.95211
3.93584
3.91772
3.8978
3.87688
3.85473
3.8287
3.79348
3.74239
3.6694
3.57119
3.44833
3.30543
3.15016
2.99167
2.83888
2.699
2.57669
2.47385
2.39006
2.32333
2.27094
2.23005
2.19815
2.17317
2.15351
2.13796
2.1256
2.11571
2.10777
2.10134
2.0961
2.0918
2.08823
2.08526
2.08276
2.08057
2.07905
2.07585
4.00743
3.98247
3.95796
3.93403
3.91085
3.88859
3.86748
3.84773
3.82958
3.81326
3.79903
3.78711
3.77774
3.77115
3.76753
3.76709
3.77001
3.77645
3.78657
3.8005
3.81837
3.84027
3.86627
3.89639
3.93061
3.96882
4.01084
4.05637
4.10499
4.15613
4.20907
4.26293
4.31671
4.36925
4.41936
4.46579
4.50735
4.54296
4.57169
4.59281
4.60584
4.61052
4.60682
4.59491
4.57516
4.54807
4.51425
4.47438
4.42921
4.37951
4.32603
4.26956
4.21096
4.15129
4.09208
4.03544
3.98403
3.94046
3.90642
3.88173
3.86411
3.84984
3.83529
3.81832
3.79879
3.77773
3.75559
3.73066
3.69856
3.65316
3.5885
3.50078
3.38976
3.25901
3.1152
2.96666
2.82183
2.68777
2.56932
2.46877
2.38616
2.31993
2.26768
2.22679
2.19486
2.16986
2.15022
2.13471
2.1224
2.11258
2.1047
2.09834
2.09317
2.08893
2.08543
2.0825
2.08006
2.0779
2.07642
2.07326
4.00709
3.982
3.9573
3.93309
3.90953
3.88676
3.86495
3.84431
3.82503
3.80734
3.79144
3.77756
3.76591
3.75671
3.75016
3.74645
3.74576
3.74827
3.75412
3.76346
3.7764
3.79304
3.81345
3.83765
3.86561
3.89726
3.93241
3.97081
4.0121
4.05577
4.10122
4.14767
4.19428
4.24004
4.28393
4.32487
4.3618
4.39375
4.41986
4.43943
4.45195
4.4571
4.45476
4.44499
4.42804
4.40426
4.37414
4.33827
4.29727
4.25183
4.20262
4.15037
4.09585
4.04002
3.98427
3.93061
3.88161
3.83996
3.80753
3.78443
3.76859
3.75629
3.74361
3.72802
3.70911
3.68798
3.66563
3.64121
3.61122
3.57018
3.51232
3.43356
3.33299
3.21325
3.08008
2.94102
2.80395
2.67574
2.56131
2.46323
2.38197
2.31636
2.26433
2.22348
2.19153
2.16652
2.14688
2.1314
2.11914
2.10937
2.10156
2.09526
2.09016
2.08598
2.08254
2.07967
2.07727
2.07517
2.07372
2.07061
4.00673
3.98152
3.95664
3.9322
3.9083
3.88507
3.86268
3.84128
3.82105
3.80218
3.78486
3.7693
3.7557
3.74426
3.73516
3.72861
3.72476
3.7238
3.72587
3.73112
3.73966
3.75158
3.76696
3.78582
3.80815
3.83386
3.86282
3.8948
3.92947
3.96642
4.0051
4.04488
4.08499
4.12461
4.16282
4.19869
4.23129
4.25975
4.28326
4.30117
4.31295
4.31823
4.31683
4.30873
4.29404
4.27304
4.24609
4.21367
4.17633
4.13466
4.08927
4.04081
3.98997
3.93765
3.8851
3.83421
3.78746
3.74759
3.71665
3.69503
3.68089
3.67053
3.65982
3.64581
3.62774
3.6067
3.58407
3.55974
3.5311
3.49333
3.44098
3.36982
3.27839
3.16856
3.04519
2.91507
2.7855
2.6631
2.55276
2.45731
2.37755
2.31269
2.26097
2.2202
2.18825
2.16323
2.1436
2.12813
2.11591
2.10619
2.09844
2.0922
2.08716
2.08305
2.07966
2.07685
2.0745
2.07244
2.07103
2.06797
4.00633
3.98101
3.95597
3.9313
3.9071
3.88349
3.86058
3.83852
3.81747
3.79759
3.77907
3.76207
3.74678
3.7334
3.7221
3.71306
3.70645
3.70244
3.70117
3.70279
3.70741
3.71512
3.726
3.74007
3.75733
3.77772
3.8011
3.8273
3.85602
3.8869
3.91949
3.95323
3.98747
4.02149
4.05451
4.08571
4.11427
4.1394
4.16037
4.17654
4.18739
4.19254
4.19175
4.1849
4.17204
4.15334
4.12909
4.09966
4.06551
4.02717
3.98517
3.94011
3.89261
3.84348
3.79387
3.74554
3.70089
3.66267
3.6331
3.61283
3.60026
3.5918
3.58311
3.57084
3.55385
3.53308
3.51019
3.48572
3.45785
3.42248
3.37454
3.30976
3.22628
3.1253
3.0109
2.88913
2.76674
2.65001
2.5438
2.45109
2.37296
2.30896
2.25762
2.217
2.18508
2.16006
2.14042
2.12498
2.11278
2.10311
2.09541
2.08923
2.08425
2.08019
2.07686
2.0741
2.0718
2.06979
2.06841
2.06541
4.0059
3.98047
3.95528
3.93041
3.90594
3.88197
3.85861
3.83598
3.81422
3.79348
3.7739
3.75566
3.73892
3.72385
3.71063
3.69943
3.69041
3.68372
3.67951
3.67792
3.67905
3.68302
3.68988
3.69967
3.7124
3.728
3.74638
3.76737
3.79073
3.81616
3.84325
3.87154
3.90045
3.92939
3.95765
3.98454
4.00933
4.0313
4.04979
4.0642
4.07401
4.07881
4.07833
4.07241
4.06101
4.04421
4.02224
3.99538
3.96402
3.9286
3.88961
3.84759
3.8031
3.75687
3.70996
3.66399
3.6213
3.5846
3.55627
3.53722
3.52612
3.51948
3.51282
3.50243
3.48672
3.46643
3.44338
3.41864
3.39113
3.35748
3.31302
3.25356
3.17695
3.08382
2.97756
2.86353
2.74794
2.6367
2.53458
2.44466
2.36826
2.30522
2.25434
2.21391
2.18204
2.15703
2.13741
2.12198
2.10981
2.10018
2.09253
2.0864
2.08147
2.07747
2.07419
2.07148
2.06923
2.06726
2.06592
2.06297
4.00544
3.9799
3.95456
3.92951
3.90479
3.88051
3.85675
3.83362
3.81125
3.78975
3.76926
3.74994
3.73195
3.71542
3.70054
3.68745
3.67631
3.66727
3.66047
3.65604
3.6541
3.65473
3.65801
3.66399
3.67265
3.68397
3.69786
3.71418
3.73273
3.75324
3.77538
3.79873
3.82282
3.84712
3.87104
3.89396
3.91523
3.93422
3.95032
3.96295
3.97163
3.97593
3.97554
3.97026
3.95999
3.94477
3.92471
3.90006
3.87111
3.83827
3.80196
3.76265
3.72087
3.67728
3.63283
3.58905
3.54816
3.51288
3.48568
3.46772
3.45796
3.45306
3.44843
3.44001
3.42579
3.40621
3.38314
3.35809
3.33068
3.29819
3.25645
3.2014
3.13068
3.04447
2.94554
2.83861
2.72937
2.62338
2.52525
2.43812
2.36351
2.3015
2.25115
2.21095
2.17918
2.1542
2.13458
2.11917
2.10703
2.09744
2.08983
2.08375
2.07887
2.07492
2.0717
2.06903
2.06683
2.0649
2.06359
2.06069
4.00496
3.97931
3.95384
3.92861
3.90367
3.87911
3.85499
3.83143
3.80851
3.78635
3.76508
3.74483
3.72574
3.70795
3.69161
3.67688
3.66389
3.65279
3.64371
3.63678
3.63211
3.62979
3.62989
3.63246
3.6375
3.64499
3.65486
3.66699
3.68122
3.69731
3.71497
3.73386
3.75358
3.77366
3.7936
3.81286
3.83086
3.84704
3.86084
3.87172
3.87921
3.88288
3.88241
3.87755
3.86816
3.85421
3.83577
3.813
3.78616
3.75557
3.72163
3.68475
3.64541
3.6042
3.56201
3.52025
3.48104
3.44706
3.42089
3.40392
3.39539
3.39214
3.38953
3.38319
3.37065
3.352
3.3291
3.30379
3.27629
3.24455
3.20489
3.15347
3.08777
3.00761
2.91521
2.81473