/*--------------------------------*- C++ -*----------------------------------*\
| =========                 |                                                 |
| \\      /  F ield         | OpenFOAM: The Open Source CFD Toolbox           |
|  \\    /   O peration     | Version:  2.1.1                                 |
|   \\  /    A nd           | Web:      www.OpenFOAM.org                      |
|    \\/     M anipulation  |                                                 |
\*---------------------------------------------------------------------------*/
FoamFile
{
    version     2.0;
    format      ascii;
    class       volScalarField;
    location    "0.045";
    object      k;
}
// * * * * * * * * * * * * * * * * * * * * * * * * * * * * * * * * * * * * * //

dimensions      [0 2 -2 0 0 0 0];

internalField   nonuniform List<scalar> 
6820
(
0.288909
0.351398
0.415005
0.477466
0.536859
0.591555
0.640368
0.682624
0.718119
0.747025
0.769788
0.787024
0.799434
0.807735
0.812618
0.814716
0.814589
0.812721
0.809521
0.805326
0.800412
0.794997
0.789257
0.783321
0.777291
0.771235
0.765196
0.759211
0.753219
0.747508
0.740577
0.739374
0.709891
0.265533
0.269396
0.270523
0.271341
0.272559
0.274215
0.276226
0.278476
0.280856
0.283279
0.28569
0.288058
0.290375
0.292647
0.294888
0.29712
0.299362
0.301637
0.303964
0.306359
0.308836
0.31141
0.314091
0.316893
0.319829
0.322919
0.326188
0.329674
0.333432
0.337573
0.342176
0.34784
0.353958
0.262038
0.264253
0.263596
0.261557
0.259
0.256318
0.253626
0.250937
0.248238
0.245522
0.24279
0.240055
0.237337
0.234658
0.232039
0.229502
0.227066
0.224746
0.222556
0.220505
0.2186
0.216845
0.215244
0.213798
0.212507
0.211374
0.210399
0.209587
0.208942
0.208483
0.208219
0.208209
0.20849
0.259885
0.260272
0.259797
0.258535
0.256829
0.254891
0.252833
0.250709
0.248546
0.246357
0.24415
0.241932
0.239709
0.237489
0.235279
0.233086
0.230918
0.228781
0.226683
0.224627
0.22262
0.220664
0.218763
0.216918
0.215132
0.213404
0.211734
0.210122
0.208566
0.207065
0.205614
0.204219
0.202861
0.259299
0.258404
0.2576
0.256567
0.255295
0.25385
0.252292
0.250661
0.248984
0.247277
0.245551
0.243814
0.242073
0.240333
0.238598
0.236872
0.23516
0.233463
0.231786
0.230131
0.228501
0.226897
0.22532
0.223774
0.222257
0.22077
0.219315
0.217889
0.216493
0.215125
0.213784
0.21247
0.211179
0.259224
0.257848
0.256623
0.255437
0.254227
0.25297
0.251663
0.250313
0.248929
0.247522
0.246101
0.24467
0.243237
0.241804
0.240376
0.238956
0.237546
0.236148
0.234764
0.233397
0.232047
0.230715
0.229403
0.228111
0.22684
0.22559
0.224361
0.223153
0.221967
0.220802
0.219659
0.218538
0.21744
0.259217
0.257715
0.256309
0.25498
0.253698
0.252442
0.251196
0.249951
0.248704
0.247455
0.246205
0.244956
0.24371
0.242469
0.241236
0.240012
0.238799
0.237598
0.23641
0.235237
0.234078
0.232936
0.231809
0.2307
0.229607
0.228532
0.227475
0.226435
0.225414
0.224411
0.223428
0.222467
0.221529
0.259218
0.25769
0.256225
0.254822
0.253477
0.252181
0.250924
0.249696
0.248492
0.247307
0.246137
0.244982
0.24384
0.242711
0.241596
0.240494
0.239405
0.238332
0.237272
0.236228
0.235199
0.234185
0.233187
0.232205
0.231239
0.230289
0.229356
0.228439
0.227539
0.226658
0.225795
0.224954
0.224137
0.259218
0.257686
0.256207
0.25478
0.253405
0.25208
0.250799
0.24956
0.248357
0.247186
0.246043
0.244925
0.243831
0.242758
0.241706
0.240672
0.239658
0.238661
0.237681
0.236719
0.235774
0.234846
0.233934
0.233038
0.232159
0.231297
0.230451
0.229621
0.228809
0.228015
0.227241
0.226488
0.22576
0.259218
0.257686
0.256203
0.254769
0.253384
0.252045
0.250751
0.2495
0.248289
0.247115
0.245975
0.244867
0.243789
0.242739
0.241714
0.240714
0.239736
0.238781
0.237847
0.236932
0.236038
0.235162
0.234304
0.233464
0.232642
0.231838
0.23105
0.230281
0.229529
0.228796
0.228084
0.227393
0.226726
0.259218
0.257686
0.256202
0.254767
0.253378
0.252035
0.250735
0.249477
0.24826
0.247081
0.245938
0.24483
0.243755
0.24271
0.241695
0.240707
0.239746
0.238809
0.237897
0.237007
0.236139
0.235292
0.234465
0.233658
0.232871
0.232102
0.231351
0.23062
0.229907
0.229215
0.228542
0.227892
0.227267
0.259218
0.257685
0.256201
0.254766
0.253376
0.252031
0.250729
0.249469
0.248248
0.247066
0.245921
0.244811
0.243734
0.24269
0.241676
0.240692
0.239735
0.238806
0.237902
0.237023
0.236167
0.235334
0.234523
0.233733
0.232964
0.232215
0.231486
0.230777
0.230088
0.229419
0.228771
0.228146
0.227546
0.259218
0.257685
0.256201
0.254765
0.253375
0.25203
0.250727
0.249466
0.248244
0.24706
0.245913
0.244801
0.243723
0.242678
0.241664
0.24068
0.239724
0.238796
0.237895
0.23702
0.236169
0.235342
0.234538
0.233756
0.232995
0.232256
0.231538
0.23084
0.230163
0.229508
0.228874
0.228263
0.227676
0.259218
0.257685
0.256201
0.254764
0.253374
0.252029
0.250726
0.249464
0.248241
0.247057
0.245909
0.244796
0.243718
0.242671
0.241656
0.240672
0.239716
0.238788
0.237888
0.237013
0.236164
0.235339
0.234537
0.233758
0.233002
0.232267
0.231553
0.230861
0.230191
0.229542
0.228914
0.22831
0.227729
0.259218
0.257685
0.2562
0.254764
0.253374
0.252028
0.250724
0.249462
0.248239
0.247055
0.245906
0.244793
0.243714
0.242667
0.241652
0.240667
0.239711
0.238783
0.237882
0.237007
0.236158
0.235334
0.234533
0.233755
0.233
0.232267
0.231556
0.230866
0.230198
0.229552
0.228927
0.228325
0.227746
0.259218
0.257685
0.2562
0.254764
0.253373
0.252027
0.250723
0.249461
0.248238
0.247053
0.245904
0.244791
0.243711
0.242664
0.241648
0.240663
0.239706
0.238778
0.237877
0.237003
0.236154
0.235329
0.234528
0.233751
0.232997
0.232264
0.231554
0.230865
0.230198
0.229553
0.228929
0.228328
0.227749
0.259218
0.257685
0.2562
0.254763
0.253373
0.252026
0.250723
0.24946
0.248237
0.247051
0.245902
0.244789
0.243709
0.242661
0.241645
0.24066
0.239703
0.238775
0.237874
0.236999
0.23615
0.235325
0.234524
0.233747
0.232993
0.232261
0.231551
0.230863
0.230196
0.22955
0.228927
0.228325
0.227745
0.259218
0.257685
0.2562
0.254763
0.253372
0.252026
0.250722
0.249459
0.248235
0.24705
0.245901
0.244787
0.243707
0.242659
0.241643
0.240657
0.2397
0.238771
0.23787
0.236995
0.236146
0.235321
0.234521
0.233744
0.232989
0.232257
0.231548
0.230859
0.230192
0.229547
0.228923
0.22832
0.227738
0.259218
0.257684
0.2562
0.254763
0.253372
0.252025
0.250721
0.249458
0.248234
0.247049
0.245899
0.244785
0.243705
0.242657
0.24164
0.240654
0.239697
0.238768
0.237867
0.236992
0.236142
0.235318
0.234517
0.23374
0.232986
0.232254
0.231544
0.230855
0.230188
0.229542
0.228917
0.228313
0.22773
0.259218
0.257684
0.2562
0.254763
0.253371
0.252025
0.250721
0.249457
0.248233
0.247047
0.245898
0.244783
0.243703
0.242655
0.241638
0.240652
0.239695
0.238766
0.237864
0.236989
0.236139
0.235314
0.234513
0.233736
0.232982
0.23225
0.231539
0.23085
0.230183
0.229536
0.22891
0.228305
0.22772
0.259218
0.257684
0.256199
0.254762
0.253371
0.252024
0.25072
0.249457
0.248233
0.247046
0.245897
0.244782
0.243701
0.242653
0.241636
0.240649
0.239692
0.238763
0.237861
0.236986
0.236136
0.235311
0.23451
0.233732
0.232977
0.232245
0.231534
0.230845
0.230177
0.229529
0.228902
0.228295
0.227709
0.259218
0.257684
0.256199
0.254762
0.253371
0.252024
0.25072
0.249456
0.248232
0.247046
0.245896
0.244781
0.2437
0.242651
0.241634
0.240647
0.23969
0.23876
0.237858
0.236982
0.236132
0.235307
0.234506
0.233728
0.232973
0.23224
0.231529
0.230839
0.23017
0.229521
0.228893
0.228285
0.227696
0.259218
0.257684
0.256199
0.254762
0.253371
0.252024
0.250719
0.249456
0.248231
0.247045
0.245895
0.24478
0.243698
0.24265
0.241632
0.240645
0.239687
0.238758
0.237855
0.236979
0.236129
0.235303
0.234502
0.233723
0.232968
0.232234
0.231523
0.230832
0.230162
0.229512
0.228883
0.228273
0.227683
0.259218
0.257684
0.256199
0.254762
0.253371
0.252023
0.250719
0.249455
0.248231
0.247044
0.245894
0.244779
0.243697
0.242648
0.241631
0.240643
0.239685
0.238755
0.237853
0.236976
0.236126
0.2353
0.234497
0.233719
0.232963
0.232229
0.231516
0.230824
0.230154
0.229503
0.228872
0.22826
0.227668
0.259218
0.257684
0.256199
0.254762
0.25337
0.252023
0.250719
0.249455
0.24823
0.247043
0.245893
0.244778
0.243696
0.242647
0.241629
0.240641
0.239683
0.238753
0.23785
0.236973
0.236122
0.235296
0.234493
0.233714
0.232957
0.232222
0.231509
0.230817
0.230145
0.229493
0.22886
0.228247
0.227653
0.259218
0.257684
0.256199
0.254762
0.25337
0.252023
0.250718
0.249454
0.24823
0.247043
0.245892
0.244777
0.243695
0.242646
0.241628
0.24064
0.239681
0.238751
0.237847
0.23697
0.236119
0.235292
0.234489
0.233709
0.232951
0.232216
0.231502
0.230808
0.230135
0.229482
0.228848
0.228233
0.227637
0.259218
0.257684
0.256199
0.254762
0.25337
0.252023
0.250718
0.249454
0.248229
0.247042
0.245892
0.244776
0.243694
0.242644
0.241626
0.240638
0.239679
0.238748
0.237845
0.236967
0.236115
0.235288
0.234484
0.233704
0.232946
0.232209
0.231494
0.2308
0.230126
0.229471
0.228836
0.228219
0.227621
0.259218
0.257684
0.256199
0.254762
0.25337
0.252023
0.250718
0.249454
0.248229
0.247042
0.245891
0.244775
0.243693
0.242644
0.241625
0.240637
0.239678
0.238746
0.237842
0.236965
0.236112
0.235284
0.23448
0.233699
0.23294
0.232203
0.231487
0.230792
0.230116
0.22946
0.228823
0.228205
0.227605
0.259218
0.257684
0.256199
0.254762
0.25337
0.252023
0.250718
0.249454
0.248229
0.247041
0.24589
0.244775
0.243692
0.242642
0.241624
0.240635
0.239676
0.238744
0.23784
0.236962
0.236109
0.23528
0.234475
0.233694
0.232934
0.232196
0.231479
0.230783
0.230106
0.229449
0.228811
0.228191
0.22759
0.259218
0.257684
0.256199
0.254762
0.25337
0.252023
0.250718
0.249454
0.248229
0.247042
0.245891
0.244775
0.243693
0.242642
0.241624
0.240635
0.239675
0.238743
0.237839
0.23696
0.236106
0.235278
0.234472
0.23369
0.23293
0.232191
0.231473
0.230776
0.230098
0.22944
0.2288
0.228179
0.227575
0.259218
0.257684
0.256199
0.254762
0.25337
0.252023
0.250718
0.249454
0.248229
0.247041
0.24589
0.244774
0.243692
0.242641
0.241623
0.240634
0.239674
0.238742
0.237837
0.236958
0.236104
0.235275
0.234469
0.233686
0.232925
0.232185
0.231467
0.230769
0.23009
0.22943
0.228789
0.228167
0.227562
0.259218
0.257684
0.256199
0.254762
0.253371
0.252024
0.25072
0.249456
0.248232
0.247045
0.245894
0.244778
0.243695
0.242645
0.241626
0.240637
0.239677
0.238744
0.237839
0.23696
0.236105
0.235275
0.234469
0.233685
0.232924
0.232184
0.231464
0.230765
0.230085
0.229424
0.228782
0.228158
0.227551
0.259218
0.257685
0.2562
0.254764
0.253373
0.252026
0.250721
0.249457
0.248233
0.247046
0.245895
0.244779
0.243697
0.242647
0.241628
0.240639
0.239679
0.238746
0.237841
0.236961
0.236107
0.235276
0.234469
0.233685
0.232923
0.232181
0.231461
0.23076
0.230079
0.229417
0.228773
0.228147
0.227538
0.259218
0.257685
0.256201
0.254766
0.253378
0.252034
0.250731
0.24947
0.248246
0.247061
0.24591
0.244795
0.243713
0.242663
0.241643
0.240654
0.239693
0.238759
0.237853
0.236972
0.236116
0.235283
0.234474
0.233688
0.232923
0.232179
0.231455
0.230751
0.230066
0.229399
0.228751
0.22812
0.227507
0.259219
0.257689
0.25621
0.254777
0.25339
0.252046
0.250744
0.249482
0.248259
0.247074
0.245924
0.244809
0.243726
0.242675
0.241654
0.240663
0.239699
0.238763
0.237852
0.236967
0.236105
0.235267
0.234451
0.233657
0.232884
0.232131
0.231398
0.230684
0.229989
0.229312
0.228652
0.228009
0.227382
0.25922
0.257694
0.256221
0.254799
0.253423
0.25209
0.250795
0.249539
0.248318
0.247132
0.245978
0.244857
0.243767
0.242705
0.241673
0.240668
0.239689
0.238735
0.237807
0.236902
0.236019
0.23516
0.234321
0.233503
0.232706
0.231928
0.231169
0.230428
0.229705
0.229
0.228312
0.22764
0.226984
0.259229
0.257739
0.256292
0.254882
0.253509
0.252173
0.250872
0.249604
0.248368
0.247162
0.245985
0.244835
0.243713
0.242618
0.241547
0.240502
0.239482
0.238485
0.237511
0.236559
0.23563
0.234722
0.233835
0.232968
0.232121
0.231293
0.230483
0.229692
0.228919
0.228162
0.227423
0.2267
0.225992
0.259265
0.257822
0.256453
0.255125
0.253804
0.252482
0.251162
0.249852
0.248558
0.247286
0.246039
0.244821
0.243631
0.242471
0.241339
0.240236
0.239161
0.238113
0.237092
0.236095
0.235123
0.234174
0.233249
0.232346
0.231464
0.230604
0.229764
0.228944
0.228144
0.227363
0.2266
0.225856
0.225131
0.259599
0.258632
0.257578
0.256542
0.255588
0.254715
0.253908
0.253156
0.252453
0.251797
0.251186
0.250621
0.250102
0.249628
0.249199
0.248815
0.248474
0.248176
0.247919
0.247704
0.247528
0.247392
0.247294
0.247235
0.247212
0.247226
0.247277
0.247364
0.247487
0.247645
0.247839
0.248068
0.24833
0.266719
0.28057
0.294241
0.307622
0.320668
0.333362
0.345692
0.357648
0.369223
0.38041
0.391206
0.401612
0.411626
0.421253
0.430497
0.439363
0.447858
0.455989
0.463765
0.471194
0.478287
0.485053
0.491502
0.497644
0.50349
0.509049
0.514331
0.519346
0.524105
0.528617
0.532891
0.536935
0.540763
0.834889
1.04201
1.31833
1.64745
1.97031
2.21253
2.34442
2.39206
2.40092
2.40254
2.40791
2.41657
2.42585
2.43438
2.4418
2.44847
2.45219
2.44924
2.43433
2.40041
2.33877
2.23932
2.09148
1.8863
1.62068
1.30435
0.96773
0.662887
0.445198
0.338305
0.31556
0.331519
0.359473
0.389631
0.418214
0.443393
0.464163
0.480088
0.49123
0.498031
0.501161
0.501362
0.49935
0.495753
0.491092
0.485788
0.480174
0.474523
0.469073
0.464037
0.45962
0.455999
0.4533
0.451565
0.450717
0.450558
0.45079
0.45105
0.450954
0.450121
0.448185
0.444784
0.439556
0.432147
0.422244
0.409622
0.394212
0.376156
0.355838
0.333885
0.311121
0.288478
0.266886
0.247145
0.229825
0.215207
0.203289
0.19384
0.186498
0.180855
0.176534
0.17322
0.170673
0.168715
0.167216
0.166076
0.165217
0.164577
0.164105
0.163761
0.163513
0.163338
0.163216
0.163133
0.163078
0.163042
0.163019
0.163004
0.163003
0.16296
0.366381
0.390443
0.43705
0.525524
0.677632
0.902949
1.18531
1.48418
1.75165
1.95484
2.08692
2.16105
2.19689
2.21071
2.21178
2.20244
2.1816
2.14543
2.08839
2.00401
1.88553
1.727
1.52543
1.28429
1.01783
0.754071
0.530924
0.381213
0.311864
0.29915
0.31276
0.33572
0.361439
0.387053
0.410907
0.431854
0.449137
0.462399
0.471675
0.477301
0.479807
0.479791
0.477839
0.474475
0.470138
0.465188
0.459913
0.454551
0.449309
0.444381
0.439958
0.436219
0.433311
0.431312
0.430199
0.429831
0.429963
0.430273
0.430407
0.430003
0.428707
0.426161
0.422006
0.415878
0.407443
0.396443
0.382761
0.36648
0.347918
0.327637
0.306396
0.28508
0.264587
0.245707
0.229022
0.214842
0.203205
0.193924
0.186674
0.181078
0.176777
0.17347
0.17092
0.168954
0.167442
0.166287
0.16541
0.164751
0.16426
0.163898
0.163634
0.163444
0.163308
0.163213
0.163146
0.163101
0.16307
0.163048
0.163041
0.162989
0.208923
0.210079
0.212845
0.2194
0.235264
0.270235
0.336879
0.446483
0.601119
0.789682
0.991569
1.18373
1.34723
1.47143
1.55117
1.5839
1.57419
1.52783
1.44885
1.33935
1.20111
1.038
0.858415
0.676908
0.513441
0.388595
0.314204
0.285453
0.285317
0.298449
0.317261
0.338595
0.360667
0.382166
0.40204
0.419452
0.433823
0.444869
0.452602
0.457278
0.459307
0.459169
0.457338
0.454246
0.450264
0.445696
0.44079
0.435752
0.430763
0.425996
0.421624
0.417823
0.414749
0.412509
0.411126
0.410514
0.41048
0.410749
0.411
0.410899
0.410109
0.408288
0.405084
0.400132
0.393082
0.383644
0.371652
0.357126
0.340312
0.321697
0.301973
0.281972
0.262556
0.244507
0.22842
0.21464
0.203247
0.194101
0.186916
0.181346
0.17705
0.173737
0.171177
0.169197
0.167668
0.166493
0.165595
0.164915
0.164403
0.164021
0.163739
0.163531
0.16338
0.163271
0.163192
0.163136
0.163095
0.163065
0.163051
0.16299
0.201349
0.199689
0.197934
0.195901
0.193704
0.192678
0.19555
0.204744
0.223248
0.255041
0.303132
0.366123
0.437765
0.508182
0.569826
0.618551
0.647303
0.651239
0.629264
0.584064
0.521633
0.450679
0.381639
0.324756
0.287078
0.269627
0.267683
0.274958
0.287314
0.302822
0.320329
0.338856
0.357515
0.375483
0.392014
0.406485
0.418444
0.427661
0.434132
0.438047
0.439721
0.439533
0.437865
0.435072
0.43146
0.427289
0.42277
0.418082
0.413382
0.408821
0.404557
0.400752
0.397567
0.395128
0.393494
0.392627
0.392387
0.392545
0.392818
0.392903
0.392487
0.391252
0.38886
0.384954
0.379175
0.371207
0.360834
0.348012
0.332912
0.315942
0.297722
0.279023
0.260672
0.243438
0.227931
0.214529
0.203359
0.194328
0.187192
0.181635
0.177335
0.174011
0.171436
0.169439
0.167891
0.166694
0.165775
0.165071
0.164537
0.164134
0.163832
0.163606
0.163438
0.163314
0.163222
0.163154
0.163103
0.163063
0.163042
0.162972
0.209699
0.208018
0.206332
0.204595
0.20268
0.200505
0.198408
0.197134
0.197741
0.200522
0.205318
0.212481
0.222301
0.234251
0.246884
0.258134
0.266597
0.271142
0.271281
0.26753
0.261457
0.255282
0.251137
0.250346
0.253152
0.259096
0.267673
0.278543
0.291352
0.305652
0.320943
0.3367
0.352364
0.367357
0.381123
0.39318
0.40317
0.410899
0.416355
0.419673
0.421095
0.420916
0.419441
0.416957
0.413721
0.40995
0.405825
0.401501
0.397113
0.392795
0.388683
0.38493
0.381691
0.379103
0.377253
0.376145
0.375683
0.375684
0.375907
0.376078
0.375916
0.375131
0.373409
0.370408
0.36577
0.359156
0.350309
0.339118
0.32568
0.310319
0.293578
0.276166
0.258868
0.24244
0.227502
0.214467
0.203509
0.194582
0.187484
0.181931
0.17762
0.17428
0.171688
0.169673
0.168105
0.166887
0.165945
0.165219
0.164663
0.164238
0.163916
0.163671
0.163486
0.163346
0.163241
0.16316
0.163099
0.163049
0.16302
0.162939
0.216189
0.214781
0.213401
0.21206
0.21075
0.209437
0.208093
0.206758
0.205754
0.205609
0.206439
0.208109
0.21055
0.213886
0.217608
0.221158
0.224391
0.227291
0.229938
0.232525
0.235331
0.238674
0.24285
0.248102
0.254603
0.262449
0.271647
0.282111
0.293681
0.30613
0.319175
0.332467
0.345601
0.358139
0.369651
0.379751
0.388151
0.394689
0.399343
0.402207
0.403463
0.403338
0.402074
0.399905
0.39704
0.393663
0.389929
0.385971
0.381908
0.377855
0.373934
0.370279
0.367039
0.364357
0.362336
0.361014
0.360336
0.36016
0.360282
0.360462
0.360451
0.35999
0.358798
0.356556
0.352915
0.347524
0.340087
0.330436
0.318588
0.304784
0.289489
0.273344
0.257088
0.24146
0.227089
0.214418
0.203667
0.194838
0.187773
0.182219
0.177894
0.174536
0.171926
0.169891
0.168304
0.167066
0.166103
0.165356
0.164778
0.164333
0.16399
0.163727
0.163526
0.16337
0.163251
0.163158
0.163085
0.163026
0.162989
0.162897
0.220467
0.219283
0.218146
0.217087
0.216129
0.215281
0.214539
0.2139
0.213411
0.213195
0.213394
0.2141
0.215337
0.21711
0.219246
0.221611
0.224149
0.226872
0.229837
0.23313
0.23686
0.241143
0.246098
0.25183
0.258422
0.265922
0.27433
0.2836
0.293638
0.304294
0.315363
0.326581
0.337634
0.348179
0.357869
0.366398
0.373528
0.379124
0.383155
0.385683
0.386843
0.386807
0.385766
0.383906
0.381402
0.378406
0.375052
0.371456
0.367721
0.363947
0.36024
0.356722
0.353529
0.350803
0.348661
0.347164
0.346291
0.345938
0.345933
0.346067
0.346124
0.345877
0.345082
0.343453
0.340658
0.336344
0.330187
0.321963
0.311617
0.299306
0.285413
0.270508
0.255283
0.240453
0.22665
0.214348
0.203806
0.195077
0.188045
0.182488
0.178147
0.174769
0.17214
0.170088
0.168483
0.167227
0.166245
0.165478
0.164881
0.164416
0.164055
0.163775
0.163557
0.163387
0.163254
0.163149
0.163066
0.162996
0.162952
0.16285
0.223218
0.222203
0.221237
0.220353
0.219581
0.218947
0.218467
0.218151
0.218014
0.218096
0.218454
0.219141
0.220185
0.221591
0.223331
0.225374
0.227699
0.230313
0.233241
0.236531
0.240242
0.244443
0.249199
0.254569
0.260598
0.267315
0.27472
0.282783
0.29143
0.300547
0.309972
0.319494
0.328863
0.337801
0.346031
0.353305
0.359429
0.364286
0.367839
0.370127
0.371243
0.37132
0.370503
0.368943
0.366783
0.36415
0.361161
0.357915
0.354503
0.351012
0.347536
0.344182
0.341076
0.338354
0.336138
0.334509
0.333474
0.332958
0.332819
0.332877
0.33294
0.332817
0.332301
0.331144
0.329044
0.325655
0.320634
0.313711
0.304762
0.293865
0.281319
0.267623
0.253415
0.23938
0.226153
0.214227
0.203904
0.195281
0.188284
0.182726
0.178369
0.174972
0.172325
0.170257
0.168636
0.167364
0.166365
0.165582
0.164967
0.164486
0.164108
0.163812
0.16358
0.163396
0.163251
0.163134
0.163041
0.162963
0.16291
0.162798
0.224944
0.224048
0.223202
0.222434
0.221776
0.221254
0.220892
0.220708
0.220717
0.220935
0.221385
0.222096
0.223095
0.224401
0.226014
0.227923
0.230119
0.232607
0.235402
0.238533
0.242034
0.24595
0.250324
0.255196
0.260598
0.26655
0.273049
0.28007
0.287552
0.295402
0.303488
0.311638
0.319648
0.327296
0.334358
0.340633
0.345961
0.35024
0.35343
0.355548
0.35666
0.356861
0.356264
0.354989
0.353153
0.350863
0.348217
0.345305
0.342206
0.338996
0.335759
0.332588
0.329598
0.326918
0.324673
0.322956
0.321796
0.321143
0.32088
0.320848
0.32088
0.320812
0.320475
0.319664
0.318111
0.315492
0.311455
0.305696
0.298028
0.288454
0.27719
0.264663
0.251453
0.238213
0.225569
0.214034
0.203942
0.195434
0.18848
0.182925
0.178553
0.175139
0.172475
0.170392
0.168758
0.167472
0.16646
0.165662
0.165034
0.164538
0.164147
0.163837
0.163592
0.163396
0.16324
0.163113
0.163011
0.162924
0.162865
0.162744
0.225983
0.225169
0.224401
0.223705
0.223108
0.222637
0.222317
0.222167
0.222205
0.222446
0.222903
0.22359
0.224523
0.225718
0.227187
0.228932
0.230958
0.233268
0.23587
0.23878
0.242022
0.245621
0.249607
0.254009
0.258848
0.264135
0.269868
0.27602
0.282543
0.289356
0.296351
0.303386
0.310298
0.316908
0.323034
0.328513
0.333211
0.337038
0.33995
0.34195
0.34308
0.343408
0.34302
0.342011
0.340475
0.338502
0.336179
0.333581
0.33078
0.327845
0.324847
0.32187
0.319017
0.31641
0.314173
0.312407
0.311159
0.310401
0.310035
0.309918
0.3099
0.30984
0.309604
0.309028
0.307888
0.305888
0.302683
0.297942
0.29143
0.283076
0.273022
0.261617
0.249382
0.236932
0.22488
0.213749
0.203905
0.195526
0.188624
0.183078
0.178696
0.175265
0.172585
0.170489
0.168843
0.167548
0.166525
0.165716
0.165076
0.164569
0.164167
0.163846
0.16359
0.163385
0.163219
0.163084
0.162974
0.16288
0.162815
0.162685
0.226571
0.22581
0.225091
0.224435
0.223866
0.223409
0.223086
0.22292
0.222928
0.223125
0.223524
0.224134
0.224967
0.226033
0.227343
0.228904
0.230725
0.232811
0.235173
0.237822
0.240772
0.244042
0.247651
0.251615
0.255949
0.260658
0.265735
0.271155
0.276875
0.282828
0.288923
0.295047
0.301066
0.306835
0.312208
0.317048
0.321242
0.32471
0.327406
0.329322
0.330481
0.330931
0.330736
0.329968
0.328707
0.327026
0.325
0.322695
0.320176
0.317503
0.314739
0.311961
0.309259
0.306748
0.304548
0.302768
0.301467
0.300635
0.300191
0.300005
0.299935
0.299859
0.299667
0.299238
0.298392
0.29687
0.294346
0.290477
0.284989
0.277747
0.268818
0.258481
0.247193
0.235525
0.224072
0.213362
0.203782
0.195549
0.188711
0.183181
0.178792
0.175347
0.172654
0.170546
0.168891
0.167587
0.166557
0.16574
0.165092
0.164577
0.164166
0.163837
0.163573
0.163359
0.163186
0.163044
0.162927
0.162828
0.162758
0.162622
0.226878
0.226148
0.225455
0.224817
0.224254
0.223787
0.223438
0.223227
0.223173
0.22329
0.223593
0.224092
0.224796
0.225714
0.226853
0.228222
0.229828
0.23168
0.233787
0.236158
0.238806
0.241743
0.244981
0.248532
0.252402
0.256592
0.261092
0.265879
0.270916
0.276144
0.28149
0.286861
0.292146
0.297228
0.301986
0.306307
0.310092
0.313269
0.315791
0.317642
0.318832
0.319392
0.319368
0.318818
0.317803
0.316388
0.314633
0.312599
0.310342
0.307917
0.305381
0.302799
0.300256
0.297855
0.295716
0.293948
0.292624
0.291748
0.291254
0.291019
0.290908
0.290806
0.290624
0.290274
0.289622
0.288454
0.286471
0.283331
0.278731
0.272487
0.264595
0.255264
0.244887
0.233989
0.22314
0.212864
0.203568
0.195498
0.188737
0.183233
0.178843
0.175387
0.172681
0.170563
0.1689
0.16759
0.166554
0.165732
0.165079
0.164558
0.164141
0.163806
0.163536
0.163317
0.163138
0.162991
0.162869
0.162765
0.162692
0.16255
0.227023
0.226308
0.225625
0.22499
0.224419
0.22393
0.223543
0.223275
0.223144
0.223167
0.223356
0.223724
0.22428
0.225034
0.225992
0.227163
0.228552
0.230169
0.23202
0.234115
0.236463
0.239073
0.241955
0.245114
0.248555
0.252274
0.256261
0.260494
0.26494
0.269552
0.274266
0.279005
0.28368
0.288192
0.292441
0.29633
0.299775
0.302707
0.305082
0.306878
0.308093
0.308747
0.308873
0.308513
0.307718
0.30654
0.305031
0.303244
0.30123
0.299037
0.296716
0.294327
0.291944
0.289664
0.287601
0.285866
0.284542
0.283647
0.283127
0.282866
0.282732
0.282609
0.28242
0.282103
0.281569
0.280647
0.279076
0.276529
0.272687
0.267322
0.260374
0.25198
0.242474
0.232328
0.222083
0.212254
0.203259
0.19537
0.188702
0.183234
0.17885
0.175386
0.172669
0.170541
0.168872
0.167557
0.166517
0.165692
0.165035
0.164511
0.164091
0.163752
0.163478
0.163256
0.163073
0.162923
0.162798
0.16269
0.162614
0.162469
0.227082
0.226372
0.22569
0.225049
0.224463
0.223946
0.223515
0.223187
0.222978
0.222903
0.222975
0.223208
0.223612
0.224196
0.224969
0.225939
0.227111
0.228493
0.230093
0.231918
0.233975
0.236272
0.238815
0.241608
0.244652
0.247944
0.251471
0.255215
0.259147
0.263227
0.2674
0.271604
0.275762
0.279793
0.28361
0.287132
0.290284
0.293004
0.295247
0.296988
0.29822
0.29895
0.299202
0.299006
0.298402
0.297434
0.296146
0.294583
0.292791
0.290813
0.288695
0.28649
0.284266
0.282111
0.280134
0.278448
0.277141
0.276247
0.275721
0.275457
0.275318
0.275187
0.274987
0.274678
0.274204
0.273443
0.272174
0.270095
0.266884
0.262284
0.256181
0.248653
0.23997
0.230553
0.220908
0.211535
0.202857
0.195166
0.188606
0.183185
0.178814
0.175346
0.172621
0.170485
0.168809
0.16749
0.166448
0.165621
0.164963
0.164437
0.164015
0.163675
0.163399
0.163174
0.16299
0.162838
0.162711
0.162602
0.162524
0.162377
0.227101
0.22639
0.225704
0.225053
0.224447
0.223901
0.223427
0.223041
0.222757
0.22259
0.222551
0.222655
0.222912
0.223332
0.223924
0.224697
0.225657
0.226811
0.228168
0.229732
0.231511
0.23351
0.235735
0.238187
0.240866
0.243768
0.246882
0.250192
0.253671
0.257286
0.26099
0.264731
0.268443
0.272057
0.275501
0.278703
0.281595
0.284123
0.286243
0.287927
0.289162
0.28995
0.290303
0.290246
0.289808
0.289023
0.287931
0.28657
0.284979
0.283199
0.28127
0.27924
0.27717
0.27514
0.273255
0.271626
0.27035
0.26947
0.268955
0.268705
0.268581
0.268458
0.268256
0.267943
0.267492
0.266825
0.265766
0.264045
0.261349
0.257401
0.252047
0.245308
0.237396
0.228679
0.219624
0.210712
0.202365
0.194888
0.188452
0.18309
0.17874
0.175273
0.172541
0.170397
0.168716
0.167393
0.166349
0.165521
0.164863
0.164337
0.163915
0.163575
0.163299
0.163074
0.162889
0.162736
0.162609
0.162499
0.16242
0.162272
0.227103
0.226388
0.225695
0.225032
0.224407
0.223832
0.223319
0.22288
0.222529
0.222277
0.222138
0.222124
0.222246
0.222514
0.222937
0.223524
0.224284
0.225223
0.226348
0.227666
0.229182
0.230901
0.232828
0.234964
0.237307
0.239854
0.242595
0.245516
0.248592
0.251795
0.255087
0.258419
0.26174
0.264987
0.268099
0.271014
0.273671
0.27602
0.278019
0.279641
0.280867
0.281694
0.282128
0.282185
0.281887
0.281262
0.280341
0.27916
0.277751
0.276151
0.274397
0.27253
0.270607
0.268701
0.26691
0.265345
0.264107
0.26325
0.262758
0.262535
0.262443
0.262344
0.262152
0.261835
0.261388
0.260768
0.259846
0.258389
0.256102
0.252702
0.248001
0.241974
0.234776
0.226725
0.218246
0.209795
0.201789
0.194542
0.188243
0.182953
0.178631
0.175171
0.172435
0.170285
0.168598
0.167272
0.166226
0.165398
0.16474
0.164215
0.163794
0.163455
0.16318
0.162956
0.162771
0.162619
0.162492
0.162382
0.162304
0.162156
0.227097
0.226378
0.225678
0.225002
0.224359
0.223759
0.22321
0.222725
0.222313
0.221988
0.22176
0.221642
0.221642
0.221773
0.222043
0.222462
0.223037
0.223777
0.224688
0.225776
0.227048
0.228508
0.230159
0.232003
0.234038
0.236262
0.238664
0.241233
0.243947
0.246782
0.249704
0.252673
0.255642
0.258561
0.261373
0.264026
0.266465
0.268644
0.270524
0.272077
0.273282
0.274131
0.274625
0.274774
0.274593
0.274105
0.273335
0.272312
0.271066
0.269629
0.268035
0.266321
0.264536
0.262749
0.261051
0.259552
0.258357
0.25753
0.257066
0.25688
0.256831
0.256774
0.256606
0.256293
0.25584
0.255237
0.254397
0.253127
0.251158
0.24821
0.244073
0.23868
0.232138
0.224713
0.21679
0.208797
0.201137
0.194131
0.187984
0.182778
0.178494
0.175045
0.172308
0.170153
0.168461
0.167132
0.166084
0.165256
0.164599
0.164075
0.163656
0.163319
0.163045
0.162823
0.16264
0.162488
0.162362
0.162254
0.162176
0.162029
0.227088
0.226364
0.225656
0.224969
0.22431
0.223687
0.223107
0.222581
0.222118
0.221729
0.221424
0.221214
0.221109
0.221118
0.221253
0.22152
0.22193
0.222489
0.223204
0.224083
0.225131
0.226353
0.227751
0.229327
0.231082
0.23301
0.235104
0.237353
0.23974
0.242242
0.244831
0.247471
0.250123
0.252742
0.255281
0.257691
0.259926
0.261942
0.263704
0.265181
0.266354
0.26721
0.267747
0.267967
0.267883
0.267511
0.266871
0.265987
0.264886
0.263597
0.262147
0.260573
0.258918
0.257244
0.255638
0.254205
0.253054
0.252259
0.251827
0.251683
0.251686
0.251682
0.251554
0.251257
0.2508
0.250197
0.249398
0.248255
0.246527
0.243945
0.240287
0.235454
0.229507
0.222667
0.215275
0.20773
0.20042
0.193665
0.18768
0.182569
0.178332
0.174901
0.172166
0.170008
0.168312
0.166979
0.16593
0.165102
0.164445
0.163923
0.163506
0.16317
0.162899
0.162679
0.162498
0.162348
0.162224
0.162117
0.16204
0.161894
0.227077
0.226348
0.225633
0.224936
0.224262
0.223619
0.223012
0.222451
0.221943
0.221499
0.221128
0.220838
0.220641
0.220545
0.22056
0.220694
0.220956
0.221353
0.221894
0.222583
0.223429
0.224433
0.225602
0.226935
0.228433
0.230092
0.231906
0.233865
0.235954
0.238154
0.240439
0.242781
0.245144
0.247489
0.249775
0.25196
0.254001
0.255861
0.257504
0.258902
0.260033
0.260883
0.261446
0.261721
0.261715
0.261439
0.260911
0.260149
0.259176
0.258018
0.2567
0.255253
0.253718
0.252151
0.250632
0.249265
0.248158
0.247395
0.246996
0.246895
0.246956
0.247015
0.246939
0.24667
0.246216
0.245606
0.244825
0.243762
0.242212
0.239922
0.236666
0.232321
0.226909
0.220609
0.213721
0.206611
0.199648
0.19315
0.187338
0.182331
0.178149
0.174742
0.172014
0.169855
0.168155
0.166819
0.165768
0.16494
0.164284
0.163763
0.163348
0.163015
0.162746
0.162528
0.16235
0.162202
0.16208
0.161974
0.161899
0.161755
0.227064
0.226331
0.225609
0.224903
0.224216
0.223554
0.222924
0.222333
0.221787
0.221295
0.220867
0.220509
0.220232
0.220045
0.219955
0.219972
0.220103
0.220358
0.220742
0.221262
0.221925
0.222734
0.223694
0.224807
0.226072
0.227487
0.229046
0.230742
0.23256
0.234485
0.236494
0.238563
0.240661
0.242754
0.244807
0.246781
0.24864
0.250348
0.251873
0.253188
0.25427
0.255104
0.255679
0.255994
0.256049
0.255854
0.255419
0.254762
0.253902
0.25286
0.251661
0.25033
0.248905
0.247437
0.246001
0.244696
0.243633
0.242902
0.242533
0.242475
0.242595
0.242723
0.242711
0.242484
0.242043
0.241427