/*--------------------------------*- C++ -*----------------------------------*\
| =========                 |                                                 |
| \\      /  F ield         | OpenFOAM: The Open Source CFD Toolbox           |
|  \\    /   O peration     | Version:  2.1.1                                 |
|   \\  /    A nd           | Web:      www.OpenFOAM.org                      |
|    \\/     M anipulation  |                                                 |
\*---------------------------------------------------------------------------*/
FoamFile
{
    version     2.0;
    format      ascii;
    class       volScalarField;
    location    "0.045";
    object      nut;
}
// * * * * * * * * * * * * * * * * * * * * * * * * * * * * * * * * * * * * * //

dimensions      [0 2 -1 0 0 0 0];

internalField   nonuniform List<scalar> 
6820
(
4.96025e-05
5.47044e-05
5.94497e-05
6.37667e-05
6.76166e-05
7.09775e-05
7.38478e-05
7.62454e-05
7.82025e-05
7.97608e-05
8.09669e-05
8.18682e-05
8.25111e-05
8.29383e-05
8.31885e-05
8.32956e-05
8.32889e-05
8.31932e-05
8.3029e-05
8.28134e-05
8.25601e-05
8.22801e-05
8.19822e-05
8.1673e-05
8.13576e-05
8.10397e-05
8.07214e-05
8.04047e-05
8.00864e-05
7.97817e-05
7.94105e-05
7.93456e-05
7.77465e-05
0.000540296
0.000304969
0.000219956
0.000171554
0.000140516
0.000119654
0.000105129
9.47459e-05
8.7182e-05
8.16005e-05
7.74513e-05
7.43605e-05
7.20673e-05
7.03857e-05
6.91801e-05
6.835e-05
6.78198e-05
6.75316e-05
6.74404e-05
6.7511e-05
6.77149e-05
6.80293e-05
6.84354e-05
6.89174e-05
6.94619e-05
7.00574e-05
7.06937e-05
7.13611e-05
7.20525e-05
7.27543e-05
7.34705e-05
7.41652e-05
7.48098e-05
0.00105857
0.00083609
0.000679242
0.000569619
0.000490059
0.000430124
0.000383711
0.000346866
0.000316969
0.000292256
0.000271513
0.000253878
0.000238725
0.000225584
0.0002141
0.000203997
0.000195057
0.000187107
0.000180006
0.000173637
0.000167905
0.000162731
0.000158046
0.000153794
0.000149923
0.000146391
0.000143159
0.000140194
0.00013746
0.000134938
0.000132554
0.000130412
0.000127952
0.00115953
0.00109653
0.00101167
0.00092642
0.000849815
0.000783625
0.000727072
0.000678744
0.000637226
0.000601295
0.00056995
0.000542386
0.000517966
0.000496179
0.00047662
0.00045896
0.000442933
0.000428324
0.000414951
0.000402666
0.000391343
0.000380875
0.000371174
0.000362162
0.000353773
0.000345952
0.000338654
0.00033184
0.000325483
0.000319568
0.000314089
0.000309086
0.000304561
0.00116966
0.00115863
0.00113363
0.00109757
0.00105569
0.0010122
0.000969673
0.000929415
0.000891973
0.000857472
0.00082582
0.000796828
0.000770268
0.000745907
0.000723526
0.000702919
0.000683903
0.000666316
0.000650011
0.00063486
0.000620749
0.000607578
0.000595256
0.000583704
0.00057285
0.000562629
0.000552985
0.000543865
0.000535224
0.000527023
0.000519234
0.000511834
0.000504842
0.00117006
0.00116839
0.00116306
0.00115261
0.00113713
0.00111767
0.00109554
0.00107191
0.00104771
0.0010236
0.000999995
0.00097718
0.000955307
0.000934457
0.000914654
0.000895892
0.000878141
0.00086136
0.000845499
0.000830505
0.000816322
0.000802897
0.000790176
0.000778106
0.000766637
0.000755719
0.000745304
0.000735345
0.000725795
0.000716608
0.00070774
0.000699149
0.000690796
0.00116996
0.00116938
0.00116821
0.00116569
0.00116123
0.00115458
0.00114584
0.00113528
0.00112328
0.00111023
0.00109649
0.00108234
0.00106802
0.00105372
0.00103957
0.00102568
0.00101212
0.000998941
0.000986167
0.000973819
0.000961902
0.000950415
0.000939347
0.000928687
0.000918416
0.000908513
0.000898956
0.000889717
0.000880768
0.00087208
0.000863621
0.000855358
0.000847263
0.00116994
0.0011694
0.00116883
0.00116803
0.00116674
0.00116472
0.0011618
0.00115791
0.00115304
0.00114728
0.00114074
0.00113354
0.00112582
0.00111769
0.00110928
0.00110068
0.00109198
0.00108323
0.00107451
0.00106585
0.00105729
0.00104886
0.00104058
0.00103245
0.00102449
0.0010167
0.00100908
0.00100162
0.000994309
0.000987146
0.000980113
0.000973198
0.000966388
0.00116994
0.00116939
0.00116886
0.00116832
0.0011677
0.00116692
0.00116588
0.00116449
0.00116269
0.00116043
0.00115772
0.00115456
0.00115097
0.00114701
0.00114272
0.00113814
0.00113333
0.00112832
0.00112317
0.0011179
0.00111256
0.00110716
0.00110174
0.00109631
0.0010909
0.0010855
0.00108014
0.00107482
0.00106955
0.00106431
0.00105913
0.00105399
0.00104891
0.00116994
0.00116938
0.00116885
0.00116833
0.00116782
0.00116729
0.00116671
0.00116605
0.00116526
0.00116432
0.00116319
0.00116185
0.0011603
0.00115853
0.00115654
0.00115435
0.00115197
0.00114941
0.0011467
0.00114385
0.00114088
0.00113781
0.00113465
0.00113143
0.00112814
0.00112481
0.00112144
0.00111805
0.00111464
0.00111122
0.00110779
0.00110437
0.00110096
0.00116994
0.00116938
0.00116884
0.00116832
0.00116782
0.00116732
0.00116683
0.00116634
0.00116582
0.00116527
0.00116466
0.00116399
0.00116324
0.0011624
0.00116146
0.00116042
0.00115928
0.00115803
0.00115668
0.00115524
0.00115371
0.00115209
0.0011504
0.00114864
0.00114681
0.00114493
0.00114301
0.00114103
0.00113903
0.00113699
0.00113494
0.00113287
0.0011308
0.00116994
0.00116938
0.00116884
0.00116832
0.00116781
0.00116732
0.00116684
0.00116637
0.00116591
0.00116545
0.00116499
0.00116451
0.00116402
0.00116351
0.00116296
0.00116238
0.00116176
0.0011611
0.00116039
0.00115963
0.00115883
0.00115798
0.00115708
0.00115615
0.00115517
0.00115415
0.0011531
0.00115201
0.0011509
0.00114977
0.00114862
0.00114746
0.0011463
0.00116994
0.00116938
0.00116884
0.00116832
0.00116781
0.00116732
0.00116684
0.00116637
0.00116592
0.00116547
0.00116504
0.00116461
0.00116419
0.00116377
0.00116335
0.00116292
0.00116248
0.00116204
0.00116158
0.00116111
0.00116062
0.00116011
0.00115959
0.00115905
0.00115849
0.00115791
0.00115732
0.00115671
0.00115609
0.00115546
0.00115483
0.0011542
0.00115357
0.00116994
0.00116938
0.00116884
0.00116832
0.00116781
0.00116731
0.00116683
0.00116637
0.00116591
0.00116547
0.00116504
0.00116462
0.00116422
0.00116382
0.00116343
0.00116304
0.00116266
0.00116228
0.00116191
0.00116154
0.00116116
0.00116079
0.00116041
0.00116004
0.00115966
0.00115927
0.00115889
0.0011585
0.00115812
0.00115774
0.00115736
0.00115699
0.00115664
0.00116994
0.00116938
0.00116884
0.00116832
0.00116781
0.00116731
0.00116683
0.00116636
0.00116591
0.00116547
0.00116504
0.00116462
0.00116421
0.00116382
0.00116343
0.00116306
0.00116269
0.00116233
0.00116198
0.00116164
0.0011613
0.00116097
0.00116065
0.00116033
0.00116002
0.00115971
0.00115941
0.00115911
0.00115882
0.00115855
0.00115828
0.00115803
0.0011578
0.00116994
0.00116938
0.00116884
0.00116831
0.0011678
0.00116731
0.00116683
0.00116636
0.0011659
0.00116546
0.00116503
0.00116461
0.00116421
0.00116381
0.00116343
0.00116306
0.00116269
0.00116234
0.00116199
0.00116166
0.00116133
0.00116101
0.0011607
0.0011604
0.00116011
0.00115983
0.00115955
0.00115929
0.00115904
0.0011588
0.00115858
0.00115837
0.00115819
0.00116994
0.00116938
0.00116884
0.00116831
0.0011678
0.00116731
0.00116683
0.00116636
0.0011659
0.00116546
0.00116503
0.00116461
0.0011642
0.00116381
0.00116342
0.00116305
0.00116269
0.00116233
0.00116199
0.00116166
0.00116133
0.00116102
0.00116071
0.00116042
0.00116013
0.00115985
0.00115959
0.00115934
0.0011591
0.00115887
0.00115866
0.00115847
0.0011583
0.00116994
0.00116938
0.00116884
0.00116831
0.0011678
0.00116731
0.00116682
0.00116636
0.0011659
0.00116546
0.00116503
0.00116461
0.0011642
0.0011638
0.00116342
0.00116304
0.00116268
0.00116233
0.00116198
0.00116165
0.00116133
0.00116101
0.00116071
0.00116041
0.00116013
0.00115986
0.00115959
0.00115934
0.00115911
0.00115888
0.00115868
0.00115849
0.00115832
0.00116994
0.00116938
0.00116884
0.00116831
0.0011678
0.00116731
0.00116682
0.00116635
0.0011659
0.00116545
0.00116502
0.0011646
0.0011642
0.0011638
0.00116341
0.00116304
0.00116268
0.00116232
0.00116198
0.00116164
0.00116132
0.00116101
0.0011607
0.00116041
0.00116012
0.00115985
0.00115959
0.00115934
0.0011591
0.00115888
0.00115867
0.00115848
0.00115831
0.00116994
0.00116938
0.00116884
0.00116831
0.0011678
0.0011673
0.00116682
0.00116635
0.0011659
0.00116545
0.00116502
0.0011646
0.00116419
0.0011638
0.00116341
0.00116304
0.00116267
0.00116232
0.00116197
0.00116164
0.00116132
0.001161
0.0011607
0.0011604
0.00116012
0.00115985
0.00115958
0.00115933
0.0011591
0.00115887
0.00115866
0.00115847
0.00115829
0.00116994
0.00116938
0.00116884
0.00116831
0.0011678
0.0011673
0.00116682
0.00116635
0.00116589
0.00116545
0.00116502
0.0011646
0.00116419
0.00116379
0.00116341
0.00116303
0.00116267
0.00116231
0.00116197
0.00116163
0.00116131
0.001161
0.00116069
0.0011604
0.00116011
0.00115984
0.00115958
0.00115932
0.00115909
0.00115886
0.00115865
0.00115845
0.00115827
0.00116994
0.00116938
0.00116884
0.00116831
0.0011678
0.0011673
0.00116682
0.00116635
0.00116589
0.00116545
0.00116502
0.0011646
0.00116419
0.00116379
0.0011634
0.00116303
0.00116266
0.00116231
0.00116196
0.00116163
0.0011613
0.00116099
0.00116068
0.00116039
0.0011601
0.00115983
0.00115957
0.00115931
0.00115907
0.00115884
0.00115863
0.00115843
0.00115824
0.00116994
0.00116938
0.00116884
0.00116831
0.0011678
0.0011673
0.00116682
0.00116635
0.00116589
0.00116545
0.00116501
0.00116459
0.00116418
0.00116379
0.0011634
0.00116302
0.00116266
0.0011623
0.00116196
0.00116162
0.0011613
0.00116098
0.00116068
0.00116038
0.0011601
0.00115982
0.00115956
0.0011593
0.00115906
0.00115883
0.00115861
0.0011584
0.00115821
0.00116994
0.00116938
0.00116884
0.00116831
0.0011678
0.0011673
0.00116682
0.00116635
0.00116589
0.00116545
0.00116501
0.00116459
0.00116418
0.00116378
0.0011634
0.00116302
0.00116266
0.0011623
0.00116195
0.00116162
0.00116129
0.00116098
0.00116067
0.00116037
0.00116009
0.00115981
0.00115954
0.00115929
0.00115904
0.00115881
0.00115859
0.00115838
0.00115818
0.00116994
0.00116938
0.00116884
0.00116831
0.0011678
0.0011673
0.00116682
0.00116635
0.00116589
0.00116544
0.00116501
0.00116459
0.00116418
0.00116378
0.00116339
0.00116302
0.00116265
0.0011623
0.00116195
0.00116161
0.00116129
0.00116097
0.00116066
0.00116036
0.00116008
0.0011598
0.00115953
0.00115927
0.00115903
0.00115879
0.00115856
0.00115835
0.00115815
0.00116994
0.00116938
0.00116884
0.00116831
0.0011678
0.0011673
0.00116682
0.00116635
0.00116589
0.00116544
0.00116501
0.00116459
0.00116418
0.00116378
0.00116339
0.00116302
0.00116265
0.00116229
0.00116194
0.00116161
0.00116128
0.00116096
0.00116065
0.00116036
0.00116007
0.00115979
0.00115952
0.00115926
0.00115901
0.00115877
0.00115854
0.00115832
0.00115812
0.00116994
0.00116938
0.00116884
0.00116831
0.0011678
0.0011673
0.00116682
0.00116635
0.00116589
0.00116544
0.00116501
0.00116459
0.00116418
0.00116378
0.00116339
0.00116301
0.00116265
0.00116229
0.00116194
0.0011616
0.00116127
0.00116096
0.00116065
0.00116035
0.00116006
0.00115977
0.0011595
0.00115924
0.00115899
0.00115875
0.00115851
0.00115829
0.00115808
0.00116994
0.00116938
0.00116884
0.00116831
0.0011678
0.0011673
0.00116682
0.00116635
0.00116589
0.00116544
0.00116501
0.00116459
0.00116418
0.00116378
0.00116339
0.00116301
0.00116264
0.00116228
0.00116194
0.0011616
0.00116127
0.00116095
0.00116064
0.00116034
0.00116005
0.00115976
0.00115949
0.00115922
0.00115897
0.00115872
0.00115849
0.00115827
0.00115805
0.00116994
0.00116938
0.00116884
0.00116831
0.0011678
0.0011673
0.00116682
0.00116635
0.00116589
0.00116544
0.00116501
0.00116459
0.00116418
0.00116378
0.00116339
0.00116301
0.00116264
0.00116228
0.00116193
0.00116159
0.00116126
0.00116094
0.00116063
0.00116033
0.00116004
0.00115975
0.00115948
0.00115921
0.00115895
0.0011587
0.00115847
0.00115824
0.00115802
0.00116994
0.00116938
0.00116884
0.00116831
0.0011678
0.0011673
0.00116682
0.00116635
0.00116589
0.00116544
0.00116501
0.00116459
0.00116418
0.00116378
0.00116339
0.00116301
0.00116264
0.00116228
0.00116193
0.00116159
0.00116126
0.00116094
0.00116063
0.00116032
0.00116003
0.00115974
0.00115946
0.0011592
0.00115894
0.00115869
0.00115844
0.00115821
0.00115799
0.00116994
0.00116938
0.00116884
0.00116831
0.0011678
0.0011673
0.00116682
0.00116635
0.00116589
0.00116544
0.00116501
0.00116459
0.00116418
0.00116378
0.00116339
0.00116301
0.00116264
0.00116228
0.00116193
0.00116159
0.00116126
0.00116094
0.00116062
0.00116032
0.00116002
0.00115973
0.00115945
0.00115918
0.00115892
0.00115867
0.00115842
0.00115818
0.00115796
0.00116994
0.00116938
0.00116884
0.00116831
0.0011678
0.00116731
0.00116682
0.00116635
0.0011659
0.00116545
0.00116502
0.0011646
0.00116419
0.00116379
0.0011634
0.00116302
0.00116265
0.00116229
0.00116193
0.00116159
0.00116126
0.00116093
0.00116061
0.0011603
0.00116
0.00115971
0.00115942
0.00115914
0.00115887
0.00115861
0.00115836
0.00115811
0.00115787
0.00116994
0.00116938
0.00116884
0.00116832
0.00116781
0.00116731
0.00116683
0.00116636
0.0011659
0.00116546
0.00116503
0.0011646
0.00116419
0.00116379
0.0011634
0.00116301
0.00116264
0.00116227
0.00116191
0.00116155
0.00116121
0.00116087
0.00116053
0.0011602
0.00115988
0.00115956
0.00115925
0.00115894
0.00115863
0.00115834
0.00115804
0.00115776
0.00115747
0.00116994
0.00116938
0.00116884
0.00116833
0.00116782
0.00116733
0.00116685
0.00116639
0.00116593
0.00116548
0.00116503
0.0011646
0.00116416
0.00116374
0.00116331
0.00116289
0.00116247
0.00116204
0.00116162
0.0011612
0.00116078
0.00116035
0.00115992
0.00115949
0.00115906
0.00115862
0.00115818
0.00115774
0.0011573
0.00115685
0.00115641
0.00115596
0.00115551
0.00116994
0.00116939
0.00116886
0.00116835
0.00116784
0.00116733
0.00116683
0.00116632
0.00116581
0.00116528
0.00116474
0.00116417
0.00116359
0.00116298
0.00116234
0.00116168
0.00116098
0.00116026
0.00115952
0.00115874
0.00115794
0.00115711
0.00115626
0.00115538
0.00115449
0.00115357
0.00115264
0.00115169
0.00115073
0.00114975
0.00114876
0.00114776
0.00114676
0.00116995
0.0011694
0.00116886
0.00116828
0.00116766
0.00116694
0.00116613
0.0011652
0.00116414
0.00116296
0.00116164
0.0011602
0.00115863
0.00115693
0.00115513
0.00115321
0.0011512
0.00114911
0.00114693
0.00114469
0.00114239
0.00114003
0.00113763
0.0011352
0.00113275
0.00113027
0.00112778
0.00112528
0.00112278
0.00112028
0.00111779
0.00111532
0.00111286
0.00116996
0.00116916
0.00116786
0.00116596
0.00116344
0.00116031
0.00115659
0.00115231
0.00114753
0.0011423
0.0011367
0.00113078
0.0011246
0.00111823
0.00111172
0.00110511
0.00109844
0.00109175
0.00108507
0.00107842
0.00107184
0.00106533
0.00105891
0.0010526
0.00104641
0.00104035
0.00103442
0.00102863
0.00102299
0.0010175
0.00101215
0.00100696
0.00100193
0.00116831
0.00115866
0.00114502
0.00112847
0.00110974
0.00108955
0.00106853
0.00104721
0.00102597
0.00100508
0.000984729
0.000965033
0.000946065
0.000927863
0.000910438
0.000893786
0.000877892
0.000862732
0.000848279
0.0008345
0.000821365
0.00080884
0.000796895
0.000785497
0.000774616
0.000764224
0.000754292
0.000744794
0.000735704
0.000726999
0.000718656
0.000710652
0.000702966
0.00107567
0.000936192
0.000835599
0.000756836
0.00069199
0.000638183
0.000593212
0.000555247
0.00052285
0.000494916
0.000470596
0.000449238
0.000430335
0.000413489
0.000398382
0.000384761
0.000372418
0.000361184
0.000350917
0.0003415
0.000332834
0.000324833
0.000317426
0.00031055
0.000304152
0.000298184
0.000292606
0.000287382
0.00028248
0.000277874
0.000273538
0.00026945
0.000265591
0.000142979
0.000146644
0.000150174
0.000153551
0.000156773
0.000159846
0.000162776
0.000165566
0.000168224
0.000170754
0.00017316
0.000175448
0.000177622
0.000179687
0.000181648
0.000183509
0.000185274
0.000186949
0.000188536
0.00019004
0.000191465
0.000192815
0.000194093
0.000195302
0.000196446
0.000197527
0.00019855
0.000199516
0.000200428
0.000201289
0.000202101
0.000202867
0.000203589
9.03856e-05
0.000115045
0.000154344
0.000209097
0.000275126
0.00034479
0.000414276
0.000486183
0.00056495
0.000651195
0.00074066
0.000827476
0.000907335
0.000978069
0.00103876
0.00108797
0.00112485
0.00114853
0.00115797
0.00115204
0.00112944
0.00108855
0.00102751
0.000944565
0.000839169
0.000714649
0.000583079
0.000472079
0.00043207
0.000543382
0.000832831
0.00110983
0.00128889
0.00142576
0.001546
0.00165191
0.00174179
0.00181496
0.00187227
0.00191559
0.00194726
0.00196969
0.00198506
0.00199528
0.00200192
0.00200627
0.00200944
0.00201237
0.00201599
0.0020212
0.00202888
0.00203974
0.00205416
0.00207192
0.00209215
0.00211334
0.00213364
0.00215113
0.00216402
0.0021707
0.0021697
0.00215966
0.00213933
0.00210779
0.00206463
0.00201019
0.00194555
0.00187261
0.00179388
0.00171234
0.00163116
0.00155341
0.00148171
0.00141785
0.00136273
0.0013163
0.00127796
0.0012468
0.00122188
0.00120226
0.00118704
0.00117536
0.00116645
0.00115969
0.00115456
0.0011507
0.0011478
0.00114564
0.00114405
0.00114289
0.00114206
0.00114147
0.00114107
0.00114079
0.00114062
0.00114051
0.00114045
0.00114042
0.00114041
0.00114041
7.60556e-05
7.82619e-05
8.27236e-05
9.33395e-05
0.000115605
0.000153641
0.000207809
0.000274305
0.000346889
0.000419895
0.000490233
0.000557068
0.000620167
0.000678682
0.000730797
0.000774347
0.000807462
0.000828613
0.000836558
0.00083005
0.000807658
0.000767934
0.000710035
0.000635
0.000548019
0.000461923
0.000401621
0.000410307
0.000547426
0.000801402
0.0010335
0.0012002
0.00133529
0.0014554
0.00156248
0.00165528
0.00173299
0.00179587
0.00184504
0.00188223
0.00190946
0.00192874
0.00194192
0.00195059
0.00195609
0.00195952
0.00196181
0.0019638
0.00196628
0.00197008
0.00197604
0.00198495
0.00199731
0.00201313
0.00203177
0.00205194
0.00207192
0.00208985
0.00210393
0.00211259
0.00211432
0.00210773
0.0020915
0.00206457
0.00202636
0.001977
0.0019174
0.00184927
0.00177497
0.00169737
0.00161958
0.00154465
0.00147521
0.00141315
0.00135945
0.00131417
0.00127675
0.00124629
0.00122186
0.00120254
0.00118748
0.00117586
0.00116697
0.0011602
0.00115507
0.00115119
0.00114828
0.00114611
0.00114451
0.00114334
0.00114249
0.00114189
0.00114146
0.00114118
0.00114099
0.00114087
0.00114079
0.00114076
0.00114074
0.00114073
0.000125614
0.000124251
0.000123967
0.000121699
0.00011296
0.000101963
0.000100311
0.000113933
0.000143363
0.000186656
0.0002401
0.000298726
0.000357334
0.00041159
0.000458103
0.00049457
0.000520328
0.00053514
0.000538535
0.000529827
0.000508606
0.000475566
0.000433692
0.000389946
0.000357763
0.000361035
0.000436724
0.000608144
0.000818604
0.000995958
0.00114
0.00126667
0.00138153
0.00148498
0.00157634
0.00165498
0.00172072
0.00177398
0.00181577
0.00184752
0.00187088
0.00188747
0.00189882
0.00190626
0.00191089
0.00191365
0.00191532
0.00191661
0.00191821
0.00192084
0.00192531
0.0019324
0.00194273
0.0019565
0.00197332
0.00199214
0.0020114
0.00202934
0.00204424
0.00205451
0.00205871
0.00205541
0.00204324
0.002021
0.00198793
0.00194392
0.00188965
0.00182662
0.00175703
0.0016836
0.00160935
0.00153729
0.00147009
0.00140974
0.00135731
0.001313
0.00127632
0.0012464
0.00122232
0.00120319
0.00118819
0.00117657
0.00116764
0.00116082
0.00115564
0.00115172
0.00114877
0.00114657
0.00114493
0.00114373
0.00114285
0.00114222
0.00114178
0.00114147
0.00114126
0.00114112
0.00114104
0.00114099
0.00114096
0.00114093
0.000299934
0.000296531
0.000298623
0.000313817
0.000353649
0.000412113
0.000408978
0.000308604
0.000212861
0.000162706
0.000146159
0.000150037
0.000166176
0.000189159
0.000215139
0.000241133
0.00026399
0.000281282
0.000291842
0.000296064
0.000296271
0.000297449
0.0003086
0.000344469
0.000423995
0.000554403
0.000709873
0.00085702
0.000989058
0.00111037
0.00122295
0.001327
0.00142224
0.00150816
0.00158413
0.00164966
0.00170463
0.0017494
0.00178475
0.0018118
0.00183185
0.0018462
0.00185607
0.00186255
0.00186656
0.00186887
0.00187014
0.00187096
0.00187192
0.00187365
0.00187687
0.00188236
0.0018908
0.00190254
0.00191743
0.00193464
0.00195283
0.00197037
0.00198564
0.00199711
0.00200337
0.00200305
0.00199472
0.00197707
0.00194915
0.0019106
0.00186186
0.00180416
0.0017395
0.00167043
0.00159988
0.00153081
0.0014659
0.00140722
0.00135599
0.00131253
0.00127645
0.00124695
0.00122313
0.00120411
0.00118913
0.00117745
0.00116844
0.00116154
0.00115628
0.00115229
0.00114928
0.00114702
0.00114534
0.00114409
0.00114318
0.00114251
0.00114203
0.0011417
0.00114146
0.0011413
0.0011412
0.00114113
0.00114109
0.00114105
0.00049719
0.000489026
0.000482197
0.000479574
0.000489209
0.000528241
0.000625622
0.000822174
0.00103461
0.000968688
0.000716299
0.000508498
0.000383987
0.000317556
0.000285191
0.000273417
0.000274351
0.000284602
0.000303428
0.000332158
0.000373823
0.000432026
0.000508397
0.000599975
0.000700191
0.000803504
0.000907162
0.00100918
0.00110779
0.00120194
0.0012911
0.00137473
0.00145209
0.00152238
0.00158488
0.00163908
0.00168483
0.00172236
0.00175225
0.00177536
0.00179267
0.0018052
0.00181392
0.0018197
0.00182329
0.00182534
0.00182639
0.00182694
0.00182749
0.00182856
0.00183081
0.00183495
0.0018417
0.00185153
0.00186446
0.00187993
0.00189679
0.00191359
0.0019288
0.00194099
0.00194887
0.00195109
0.00194626
0.00193298
0.00191011
0.00187703
0.0018339
0.00178168
0.00172212
0.00165761
0.00159092
0.00152495
0.00146239
0.00140539
0.0013553
0.00131261
0.00127703
0.00124785
0.0012242
0.00120525
0.00119023
0.00117846
0.00116934
0.00116233
0.00115697
0.00115289
0.0011498
0.00114747
0.00114573
0.00114442
0.00114346
0.00114275
0.00114224
0.00114187
0.00114161
0.00114142
0.0011413
0.00114121
0.00114115
0.00114109
0.000681301
0.000670494
0.00065951
0.000648425
0.00063821
0.000632672
0.000640118
0.000674313
0.000747441
0.00084942
0.000944103
0.000977517
0.00092233
0.000804323
0.00070074
0.000635982
0.00060189
0.000590936
0.000598477
0.000621657
0.000658395
0.000706729
0.000764535
0.000829561
0.000899607
0.000972757
0.00104751
0.00112269
0.00119728
0.0012703
0.0013408
0.00140781
0.00147038
0.00152763
0.00157886
0.00162362
0.00166171
0.00169325
0.00171866
0.00173855
0.00175365
0.00176475
0.00177261
0.00177792
0.00178128
0.00178322
0.00178421
0.00178466
0.00178498
0.00178562
0.00178713
0.0017902
0.0017955
0.0018036
0.00181468
0.00182838
0.00184376
0.00185954
0.00187431
0.00188679
0.00189578
0.00190006
0.00189828
0.00188902
0.00187095
0.00184323
0.0018057
0.00175903
0.0017047
0.00164489
0.0015822
0.00151945
0.00145932
0.00140404
0.00135509
0.0013131
0.00127795
0.00124901
0.00122547
0.00120653
0.00119144
0.00117957
0.00117032
0.00116318
0.00115771
0.00115352
0.00115034
0.00114792
0.0011461
0.00114474
0.00114372
0.00114296
0.0011424
0.001142
0.0011417
0.00114149
0.00114134
0.00114123
0.00114115
0.00114107
0.000837966
0.000827266
0.000816267
0.000804882
0.000793029
0.000780921
0.000769876
0.000763427
0.000767141
0.000784684
0.000814809
0.000849635
0.000876283
0.000881098
0.000870705
0.000854996
0.000841899
0.000836
0.000839285
0.000852195
0.000874339
0.000904891
0.000942798
0.000986904
0.00103603
0.001089
0.0011447
0.00120206
0.00126002
0.00131757
0.00137374
0.00142757
0.00147819
0.00152485
0.00156693
0.00160401
0.00163588
0.0016626
0.00168441
0.00170173
0.00171512
0.00172514
0.00173239
0.00173741
0.00174069
0.00174266
0.00174372
0.00174419
0.00174443
0.00174482
0.00174584
0.00174807
0.00175219
0.0017588
0.00176819
0.00178018
0.00179404
0.00180863
0.00182269
0.00183505
0.00184467
0.00185047
0.00185123
0.00184551
0.00183189
0.00180929
0.00177724
0.0017361
0.00168706
0.00163204
0.00157348
0.00151407
0.00145648
0.00140298
0.00135517
0.00131386
0.00127909
0.00125033
0.00122686
0.00120789
0.00119272
0.00118073
0.00117134
0.00116407
0.00115846
0.00115416
0.00115087
0.00114837
0.00114647
0.00114503
0.00114395
0.00114314
0.00114253
0.00114208
0.00114175
0.00114151
0.00114133
0.0011412
0.0011411
0.00114099
0.000958537
0.000949479
0.000940192
0.00093066
0.000920881
0.000910857
0.000900676
0.000890809
0.000882641
0.000878346
0.000879771
0.000887195
0.000898857
0.00091132
0.000922419
0.000931768
0.000940406
0.000949995
0.000962145
0.000978068
0.000998486
0.00102368
0.00105356
0.00108778
0.0011258
0.00116697
0.00121054
0.0012557
0.00130164
0.00134752
0.00139256
0.001436
0.00147714
0.00151536
0.00155014
0.00158111
0.00160807
0.00163097
0.00164995
0.00166529
0.00167737
0.00168662
0.00169347
0.00169836
0.00170168
0.00170379
0.001705
0.0017056
0.00170589
0.00170618
0.00170688
0.00170852
0.00171171
0.00171707
0.00172498
0.00173541
0.00174779
0.00176113
0.0017743
0.00178624
0.00179605
0.00180285
0.00180556
0.00180284
0.0017932
0.00177536
0.00174856
0.00171284
0.00166907
0.0016189
0.00156455
0.00150859
0.00145364
0.00140199
0.00135537
0.00131475
0.00128033
0.00125173
0.00122829
0.00120928
0.00119401
0.00118189
0.00117237
0.00116495
0.00115921
0.00115479
0.0011514
0.0011488
0.00114681
0.0011453
0.00114415
0.00114328
0.00114263
0.00114214
0.00114176
0.00114149
0.00114128
0.00114112
0.001141
0.00114087
0.00104301
0.00103621
0.00102925
0.00102216
0.00101499
0.0010078
0.00100067
0.000993707
0.000987177
0.000981667
0.000978062
0.000977244
0.000979724
0.000985142
0.000992901
0.0010025
0.00101369
0.00102656
0.00104136
0.00105848
0.00107824
0.00110086
0.00112639
0.00115474
0.00118566
0.00121881
0.00125371
0.00128984
0.00132664
0.00136353
0.00139992
0.00143524
0.00146896
0.00150058
0.00152967
0.00155588
0.001579
0.00159894
0.00161575
0.00162959
0.00164071
0.00164942
0.00165605
0.00166094
0.00166439
0.0016667
0.00166813
0.00166894
0.00166937
0.00166968
0.00167022
0.00167145
0.00167394
0.0016783
0.00168496
0.00169402
0.00170503
0.00171716
0.00172935
0.00174067
0.00175034
0.00175766
0.00176176
0.00176143
0.00175521
0.00174166
0.00171977
0.00168925
0.00165064
0.0016053
0.00155522
0.00150281
0.00145059
0.00140089
0.00135553
0.00131563
0.00128157
0.00125311
0.00122968
0.00121062
0.00119526
0.00118302
0.00117336
0.00116581
0.00115994
0.0011554
0.0011519
0.0011492
0.00114713
0.00114554
0.00114433
0.0011434
0.00114269
0.00114215
0.00114174
0.00114143
0.00114119
0.00114101
0.00114087
0.00114071
0.00109699
0.0010924
0.00108772
0.00108299
0.00107827
0.00107364
0.00106918
0.001065
0.00106122
0.00105804
0.00105574
0.00105475
0.00105547
0.00105817
0.00106299
0.00106993
0.00107893
0.00108997
0.00110303
0.00111815
0.00113535
0.00115467
0.00117607
0.00119946
0.0012247
0.00125155
0.00127972
0.00130886
0.00133862
0.00136857
0.0013983
0.00142739
0.00145541
0.00148196
0.00150667
0.00152922
0.0015494
0.00156708
0.00158224
0.00159495
0.00160539
0.00161375
0.00162029
0.00162525
0.0016289
0.00163146
0.00163317
0.00163423
0.00163486
0.00163528
0.00163578
0.00163676
0.00163875
0.00164233
0.00164797
0.00165586
0.00166568
0.00167668
0.00168793
0.00169852
0.0017078
0.00171525
0.00172021
0.00172168
0.00171827
0.00170847
0.00169105
0.00166541
0.00163178
0.00159119
0.00154537
0.00149656
0.00144717
0.00139952
0.0013555
0.00131638
0.0012827
0.00125439
0.00123098
0.00121187
0.00119641
0.00118406
0.00117427
0.00116659
0.0011606
0.00115595
0.00115235
0.00114956
0.00114741
0.00114575
0.00114446
0.00114348
0.00114272
0.00114214
0.00114169
0.00114134
0.00114107
0.00114087
0.0011407
0.00114052
0.00112839
0.00112559
0.00112276
0.00111994
0.00111719
0.00111458
0.00111218
0.0011101
0.00110842
0.00110726
0.00110676
0.00110708
0.00110844
0.00111106
0.00111512
0.00112076
0.00112807
0.00113709
0.00114785
0.00116035
0.00117457
0.00119048
0.00120804
0.00122716
0.00124771
0.00126954
0.00129246
0.00131625
0.00134063
0.00136532
0.00139002
0.0014144
0.00143812
0.00146083
0.00148221
0.00150199
0.00151993
0.00153588
0.00154979
0.00156168
0.00157162
0.00157977
0.0015863
0.0015914
0.00159527
0.00159812
0.00160013
0.00160148
0.00160235
0.00160294
0.00160349
0.00160435
0.001606
0.00160899
0.00161382
0.00162074
0.00162954
0.00163957
0.00164994
0.00165981
0.00166858
0.00167587
0.00168126
0.00168395
0.00168272
0.00167607
0.0016626
0.00164145
0.00161251
0.00157651
0.00153492
0.00148973
0.00144324
0.00139773
0.00135516
0.00131689
0.00128365
0.00125551
0.00123213
0.00121297
0.00119743
0.00118497
0.00117508
0.00116728
0.00116118
0.00115643
0.00115273
0.00114986
0.00114763
0.0011459
0.00114456
0.00114352
0.00114271
0.00114208
0.0011416
0.00114122
0.00114092
0.00114069
0.00114051
0.00114029
0.00114495
0.00114341
0.00114187
0.00114038
0.00113899
0.00113778
0.0011368
0.00113612
0.00113584
0.00113602
0.00113676
0.00113815
0.00114031
0.00114337
0.00114744
0.00115264
0.00115906
0.00116677
0.00117582
0.00118623
0.00119802
0.00121117
0.00122565
0.00124139
0.00125832
0.00127633
0.0012953
0.00131508
0.00133546
0.00135625
0.00137721
0.00139808
0.00141856
0.00143838
0.00145725
0.0014749
0.00149113
0.00150576
0.00151872
0.00152998
0.00153957
0.00154759
0.00155416
0.00155943
0.00156355
0.00156669
0.001569
0.00157065
0.00157179
0.00157259
0.00157326
0.0015741
0.00157553
0.0015781
0.0015823
0.00158843
0.00159639
0.00160561
0.00161523
0.00162444
0.00163266
0.00163962
0.00164509
0.00164852
0.00164889
0.00164476
0.00163467
0.00161754
0.00159294
0.00156131
0.00152382
0.00148224
0.0014387
0.00139543
0.00135439
0.00131708
0.00128434
0.00125641
0.00123309
0.00121389
0.00119829
0.00118574
0.00117574
0.00116785
0.00116165
0.00115681
0.00115303
0.00115008
0.00114778
0.00114599
0.00114459
0.0011435
0.00114265
0.00114199
0.00114147
0.00114106
0.00114073
0.00114048
0.00114027
0.00114004
0.00115286
0.00115206
0.00115131
0.00115063
0.00115007
0.00114969
0.00114954
0.00114969
0.0011502
0.00115113
0.00115255
0.00115453
0.00115714
0.00116046
0.00116457
0.00116952
0.0011754
0.00118225
0.00119014
0.00119909
0.00120912
0.00122025
0.00123246
0.00124572
0.00125999
0.00127521
0.00129129
0.00130813
0.00132559
0.0013435
0.00136168
0.00137992
0.00139797
0.0014156
0.00143253
0.00144855
0.00146344
0.00147704
0.00148925
0.00150002
0.00150935
0.00151729
0.00152392
0.00152936
0.00153372
0.00153715
0.00153977
0.00154172
0.00154314
0.00154417
0.001545
0.00154588
0.00154721
0.00154947
0.00155319
0.0015587
0.00156598
0.00157453
0.00158355
0.0015922
0.00159992
0.00160648
0.00161181
0.00161558
0.00161701
0.00161482
0.00160753
0.00159388
0.00157322
0.00154567
0.00151211
0.00147406
0.0014335
0.00139254
0.00135314
0.00131687
0.00128471
0.00125706
0.00123382
0.00121462
0.00119896
0.00118633
0.00117625
0.00116827
0.00116199
0.00115707
0.00115322
0.00115021
0.00114785
0.00114601
0.00114456
0.00114343
0.00114254
0.00114184
0.00114129
0.00114085
0.0011405
0.00114023
0.00114001
0.00113975
0.00115626
0.00115585
0.0011555
0.00115525
0.00115512
0.00115516
0.00115542
0.00115596
0.00115683
0.00115808
0.00115976
0.00116194
0.00116466