/*--------------------------------*- C++ -*----------------------------------*\
| =========                 |                                                 |
| \\      /  F ield         | OpenFOAM: The Open Source CFD Toolbox           |
|  \\    /   O peration     | Version:  2.1.1                                 |
|   \\  /    A nd           | Web:      www.OpenFOAM.org                      |
|    \\/     M anipulation  |                                                 |
\*---------------------------------------------------------------------------*/
FoamFile
{
    version     2.0;
    format      ascii;
    class       volScalarField;
    location    "0.045";
    object      p;
}
// * * * * * * * * * * * * * * * * * * * * * * * * * * * * * * * * * * * * * //

dimensions      [0 2 -2 0 0 0 0];

internalField   nonuniform List<scalar> 
6820
(
-10.9751
-12.8214
-13.3963
-13.5239
-13.6308
-13.7096
-13.7636
-13.8095
-13.8512
-13.8891
-13.9241
-13.9568
-13.9873
-14.0158
-14.0422
-14.0665
-14.0887
-14.1088
-14.1265
-14.1418
-14.1543
-14.1638
-14.1697
-14.1715
-14.1685
-14.1594
-14.1431
-14.1176
-14.0801
-14.0273
-13.953
-13.8457
-13.7018
-14.9277
-14.393
-13.9704
-13.7802
-13.7554
-13.7663
-13.7861
-13.8135
-13.8449
-13.8773
-13.9095
-13.941
-13.9713
-14
-14.0271
-14.0523
-14.0755
-14.0966
-14.1154
-14.1318
-14.1455
-14.1562
-14.1635
-14.1669
-14.1657
-14.159
-14.1457
-14.1246
-14.0935
-14.052
-13.9943
-13.9393
-13.8551
-13.2851
-12.9813
-13.2678
-13.5128
-13.6176
-13.6926
-13.7512
-13.7999
-13.8432
-13.8823
-13.9182
-13.9513
-13.9821
-14.0107
-14.0372
-14.0617
-14.0841
-14.1044
-14.1226
-14.1384
-14.1518
-14.1623
-14.1698
-14.1736
-14.1732
-14.168
-14.157
-14.1392
-14.1133
-14.0788
-14.0339
-13.9842
-13.9214
-13.7921
-13.8264
-13.8235
-13.7642
-13.7563
-13.7765
-13.8024
-13.8307
-13.8608
-13.8912
-13.9212
-13.9503
-13.9784
-14.0052
-14.0306
-14.0545
-14.0767
-14.0971
-14.1156
-14.132
-14.1462
-14.1578
-14.1665
-14.1721
-14.1739
-14.1716
-14.1644
-14.1519
-14.1332
-14.1088
-14.0774
-14.046
-14.0068
-13.6368
-13.5367
-13.5808
-13.6467
-13.6994
-13.7457
-13.786
-13.8229
-13.858
-13.8915
-13.9233
-13.9535
-13.9823
-14.0094
-14.0349
-14.0588
-14.081
-14.1015
-14.1201
-14.1367
-14.1512
-14.1634
-14.1731
-14.1799
-14.1836
-14.1839
-14.1802
-14.1725
-14.1605
-14.1448
-14.1255
-14.1069
-14.0873
-13.6918
-13.6752
-13.7002
-13.7232
-13.7454
-13.7744
-13.8056
-13.8367
-13.8678
-13.8984
-13.928
-13.9566
-13.984
-14.0102
-14.0351
-14.0585
-14.0805
-14.1009
-14.1197
-14.1368
-14.152
-14.1652
-14.1763
-14.185
-14.1911
-14.1946
-14.1952
-14.193
-14.1882
-14.1816
-14.1741
-14.1689
-14.1666
-13.6901
-13.6689
-13.6847
-13.7134
-13.7433
-13.776
-13.8086
-13.8401
-13.8711
-13.9013
-13.9306
-13.9588
-13.986
-14.0119
-14.0366
-14.06
-14.082
-14.1027
-14.1219
-14.1395
-14.1555
-14.1699
-14.1824
-14.1931
-14.2018
-14.2086
-14.2134
-14.2167
-14.2189
-14.221
-14.2241
-14.231
-14.2433
-13.7043
-13.6965
-13.7118
-13.7362
-13.7613
-13.7892
-13.8185
-13.8479
-13.8771
-13.906
-13.9342
-13.9616
-13.988
-14.0134
-14.0378
-14.061
-14.0831
-14.1039
-14.1234
-14.1417
-14.1586
-14.1742
-14.1884
-14.2011
-14.2126
-14.2228
-14.2321
-14.2408
-14.2498
-14.26
-14.2729
-14.2906
-14.3156
-13.7172
-13.7133
-13.7254
-13.7469
-13.7707
-13.7974
-13.8255
-13.8537
-13.882
-13.9099
-13.9374
-13.9641
-13.99
-14.0151
-14.0392
-14.0623
-14.0845
-14.1055
-14.1256
-14.1445
-14.1624
-14.1793
-14.1952
-14.2101
-14.2243
-14.238
-14.2516
-14.2656
-14.2808
-14.2984
-14.3199
-14.3471
-14.3825
-13.7308
-13.7302
-13.7415
-13.7609
-13.7829
-13.8075
-13.8337
-13.8605
-13.8874
-13.9143
-13.9408
-13.9668
-13.9922
-14.0168
-14.0407
-14.0637
-14.0859
-14.1073
-14.1278
-14.1475
-14.1664
-14.1846
-14.2022
-14.2193
-14.2363
-14.2533
-14.2709
-14.2898
-14.3108
-14.335
-14.3639
-14.3992
-14.443
-13.7444
-13.7454
-13.7558
-13.7732
-13.7936
-13.8166
-13.8413
-13.8668
-13.8927
-13.9186
-13.9443
-13.9696
-13.9944
-14.0187
-14.0423
-14.0653
-14.0876
-14.1092
-14.1302
-14.1507
-14.1706
-14.1901
-14.2094
-14.2287
-14.2483
-14.2685
-14.2899
-14.3132
-14.3393
-14.3692
-14.4043
-14.4461
-14.4966
-13.7577
-13.7597
-13.7694
-13.7853
-13.8043
-13.8258
-13.8491
-13.8733
-13.898
-13.9229
-13.9478
-13.9725
-13.9968
-14.0206
-14.044
-14.0669
-14.0894
-14.1113
-14.1328
-14.154
-14.1749
-14.1957
-14.2166
-14.2379
-14.2599
-14.2831
-14.3079
-14.3351
-14.3656
-14.4003
-14.4405
-14.4874
-14.5427
-13.7706
-13.773
-13.7822
-13.7968
-13.8145
-13.8346
-13.8565
-13.8796
-13.9032
-13.9272
-13.9513
-13.9753
-13.9991
-14.0226
-14.0458
-14.0686
-14.0912
-14.1134
-14.1354
-14.1572
-14.1791
-14.2011
-14.2236
-14.2467
-14.2709
-14.2967
-14.3245
-14.355
-14.3892
-14.4277
-14.4718
-14.5225
-14.5812
-13.7829
-13.7855
-13.7942
-13.8077
-13.8242
-13.8431
-13.8638
-13.8857
-13.9084
-13.9315
-13.9548
-13.9782
-14.0015
-14.0246
-14.0476
-14.0703
-14.0929
-14.1154
-14.1378
-14.1603
-14.1831
-14.2062
-14.23
-14.2549
-14.281
-14.309
-14.3393
-14.3726
-14.4096
-14.4511
-14.4981
-14.5513
-14.612
-13.7946
-13.7972
-13.8055
-13.818
-13.8334
-13.8512
-13.8708
-13.8916
-13.9133
-13.9356
-13.9582
-13.9809
-14.0037
-14.0265
-14.0492
-14.0719
-14.0946
-14.1173
-14.1401
-14.1631
-14.1866
-14.2108
-14.2358
-14.262
-14.2898
-14.3196
-14.352
-14.3874
-14.4265
-14.4701
-14.5189
-14.5736
-14.6351
-13.8056
-13.8082
-13.816
-13.8277
-13.8422
-13.8589
-13.8774
-13.8973
-13.9181
-13.9395
-13.9614
-13.9836
-14.0059
-14.0283
-14.0508
-14.0733
-14.096
-14.1189
-14.142
-14.1655
-14.1897
-14.2146
-14.2406
-14.268
-14.2971
-14.3283
-14.3621
-14.3991
-14.4397
-14.4845
-14.5343
-14.5894
-14.6507
-13.8159
-13.8184
-13.8258
-13.8368
-13.8503
-13.8661
-13.8837
-13.9027
-13.9226
-13.9433
-13.9645
-13.986
-14.0079
-14.0299
-14.0521
-14.0745
-14.0972
-14.1201
-14.1435
-14.1674
-14.192
-14.2176
-14.2443
-14.2725
-14.3026
-14.3348
-14.3696
-14.4074
-14.4488
-14.4942
-14.544
-14.5987
-14.6589
-13.8255
-13.8278
-13.8348
-13.8451
-13.8579
-13.8729
-13.8896
-13.9077
-13.9268
-13.9467
-13.9672
-13.9882
-14.0096
-14.0312
-14.0532
-14.0754
-14.0979
-14.1209
-14.1444
-14.1685
-14.1934
-14.2194
-14.2467
-14.2754
-14.306
-14.3388
-14.3741
-14.4123
-14.4538
-14.499
-14.5482
-14.6017
-14.66
-13.8343
-13.8365
-13.8431
-13.8528
-13.8649
-13.879
-13.8949
-13.9122
-13.9306
-13.9498
-13.9697
-13.9901
-14.011
-14.0322
-14.0538
-14.0758
-14.0982
-14.1211
-14.1446
-14.1688
-14.1939
-14.22
-14.2475
-14.2765
-14.3073
-14.3402
-14.3756
-14.4136
-14.4546
-14.4989
-14.5469
-14.5986
-14.6544
-13.8422
-13.8444
-13.8506
-13.8598
-13.8712
-13.8846
-13.8998
-13.9163
-13.934
-13.9525
-13.9718
-13.9916
-14.012
-14.0328
-14.054
-14.0757
-14.0979
-14.1206
-14.144
-14.1681
-14.1931
-14.2193
-14.2467
-14.2757
-14.3063
-14.339
-14.3738
-14.4112
-14.4512
-14.4942
-14.5403
-14.5896
-14.6424
-13.8494
-13.8515
-13.8574
-13.866
-13.8769
-13.8896
-13.9041
-13.9199
-13.9369
-13.9548
-13.9734
-13.9927
-14.0126
-14.0329
-14.0538
-14.0751
-14.0969
-14.1193
-14.1424
-14.1663
-14.1912
-14.2171
-14.2442
-14.2727
-14.3029
-14.3349
-14.3689
-14.4051
-14.4437
-14.4848
-14.5286
-14.5751
-14.6244
-13.8557
-13.8577
-13.8633
-13.8715
-13.8818
-13.8939
-13.9078
-13.923
-13.9393
-13.9565
-13.9746
-13.9933
-14.0126
-14.0325
-14.0529
-14.0738
-14.0952
-14.1172
-14.1399
-14.1634
-14.1878
-14.2132
-14.2398
-14.2677
-14.2971
-14.3281
-14.3608
-14.3955
-14.4323
-14.4711
-14.5122
-14.5555
-14.601
-13.8612
-13.863
-13.8683
-13.8762
-13.8859
-13.8976
-13.9108
-13.9254
-13.9411
-13.9577
-13.9752
-13.9934
-14.0122
-14.0315
-14.0514
-14.0717
-14.0927
-14.1142
-14.1364
-14.1593
-14.1831
-14.2078
-14.2336
-14.2606
-14.2888
-14.3185
-14.3497
-14.3825
-14.417
-14.4533
-14.4913
-14.5311
-14.5726
-13.8657
-13.8675
-13.8725
-13.88
-13.8893
-13.9004
-13.9131
-13.9271
-13.9422
-13.9583
-13.9752
-13.9928
-14.011
-14.0298
-14.0491
-14.0689
-14.0893
-14.1102
-14.1317
-14.1539
-14.1769
-14.2007
-14.2255
-14.2513
-14.2781
-14.3062
-14.3356
-14.3662
-14.3982
-14.4316
-14.4664
-14.5024
-14.5398
-13.8694
-13.871
-13.8758
-13.8829
-13.8918
-13.9025
-13.9147
-13.9281
-13.9427
-13.9583
-13.9746
-13.9917
-14.0093
-14.0275
-14.0462
-14.0654
-14.0851
-14.1053
-14.126
-14.1474
-14.1694
-14.1921
-14.2157
-14.24
-14.2653
-14.2915
-14.3187
-14.347
-14.3763
-14.4066
-14.4378
-14.47
-14.5031
-13.872
-13.8736
-13.8781
-13.8849
-13.8933
-13.9035
-13.9152
-13.9282
-13.9422
-13.9572
-13.9731
-13.9895
-14.0066
-14.0242
-14.0422
-14.0607
-14.0797
-14.0991
-14.119
-14.1393
-14.1603
-14.1818
-14.2039
-14.2267
-14.2501
-14.2743
-14.2992
-14.3249
-14.3513
-14.3783
-14.406
-14.4343
-14.463
-13.8737
-13.8752
-13.8796
-13.8861
-13.8943
-13.9042
-13.9155
-13.928
-13.9417
-13.9563
-13.9714
-13.9873
-14.0038
-14.0207
-14.0381
-14.0558
-14.0739
-14.0924
-14.1113
-14.1305
-14.1502
-14.1703
-14.1908
-14.2118
-14.2333
-14.2553
-14.2778
-14.3007
-14.324
-14.3477
-14.3717
-14.396
-14.4203
-13.8742
-13.8756
-13.8796
-13.8856
-13.8933
-13.9027
-13.9136
-13.9257
-13.9388
-13.9529
-13.9677
-13.9831
-13.999
-14.0153
-14.032
-14.049
-14.0663
-14.0838
-14.1017
-14.1198
-14.1381
-14.1568
-14.1757
-14.1948
-14.2143
-14.234
-14.2539
-14.274
-14.2943
-14.3146
-14.3349
-14.3552
-14.3754
-13.8739
-13.8754
-13.8796
-13.8857
-13.8934
-13.9027
-13.9134
-13.9252
-13.938
-13.9515
-13.9658
-13.9806
-13.9958
-14.0113
-14.0272
-14.0433
-14.0596
-14.076
-14.0926
-14.1094
-14.1262
-14.1432
-14.1603
-14.1774
-14.1947
-14.2119
-14.2292
-14.2464
-14.2634
-14.2804
-14.297
-14.3134
-14.3293
-13.8719
-13.8726
-13.8756
-13.8806
-13.8875
-13.8962
-13.9065
-13.9181
-13.9307
-13.9441
-13.9581
-13.9727
-13.9875
-14.0027
-14.018
-14.0335
-14.0491
-14.0646
-14.0802
-14.0958
-14.1113
-14.1268
-14.1422
-14.1574
-14.1725
-14.1874
-14.2021
-14.2165
-14.2305
-14.2442
-14.2573
-14.2699
-14.2818
-13.8706
-13.8731
-13.8776
-13.8835
-13.8909
-13.8996
-13.9097
-13.9207
-13.9327
-13.9453
-13.9585
-13.9721
-13.986
-14.0001
-14.0143
-14.0286
-14.0429
-14.0571
-14.0712
-14.0852
-14.099
-14.1126
-14.1259
-14.139
-14.1517
-14.1641
-14.176
-14.1875
-14.1984
-14.2087
-14.2183
-14.2271
-14.2351
-13.8627
-13.8607
-13.861
-13.8646
-13.8712
-13.8801
-13.8907
-13.9027
-13.9155
-13.929
-13.943
-13.9572
-13.9715
-13.9859
-14.0001
-14.0143
-14.0282
-14.0419
-14.0553
-14.0684
-14.081
-14.0933
-14.1052
-14.1165
-14.1273
-14.1375
-14.1471
-14.1559
-14.164
-14.1713
-14.1778
-14.1832
-14.1877
-13.8693
-13.8757
-13.8813
-13.8863
-13.892
-13.8993
-13.9079
-13.9177
-13.9284
-13.9397
-13.9516
-13.9637
-13.9761
-13.9885
-14.001
-14.0132
-14.0253
-14.0372
-14.0486
-14.0597
-14.0704
-14.0806
-14.0902
-14.0992
-14.1075
-14.1152
-14.122
-14.128
-14.1331
-14.1373
-14.1404
-14.1424
-14.1433
-13.8377
-13.8243
-13.8195
-13.8243
-13.834
-13.8462
-13.86
-13.8746
-13.8897
-13.905
-13.9203
-13.9353
-13.95
-13.9643
-13.9782
-13.9915
-14.0043
-14.0165
-14.0281
-14.0389
-14.0491
-14.0585
-14.0671
-14.0749
-14.0817
-14.0876
-14.0926
-14.0965
-14.0992
-14.1009
-14.1014
-14.1006
-14.0985
-13.8904
-13.9105
-13.9144
-13.9095
-13.9071
-13.9092
-13.914
-13.9207
-13.9287
-13.9377
-13.9475
-13.9576
-13.968
-13.9784
-13.9888
-13.9989
-14.0087
-14.0181
-14.027
-14.0352
-14.0429
-14.0498
-14.0559
-14.0611
-14.0654
-14.0687
-14.071
-14.0722
-14.0722
-14.071
-14.0685
-14.0647
-14.0595
-13.7676
-13.7182
-13.7064
-13.7327
-13.7598
-13.7835
-13.8067
-13.8291
-13.8503
-13.8703
-13.8891
-13.9068
-13.9233
-13.9388
-13.9533
-13.9667
-13.9791
-13.9904
-14.0008
-14.0101
-14.0183
-14.0254
-14.0314
-14.0362
-14.0398
-14.0421
-14.0432
-14.0429
-14.0413
-14.0382
-14.0337
-14.0278
-14.0203
-14.0152
-14.0499
-14.0186
-13.9754
-13.9464
-13.9353
-13.932
-13.9321
-13.9351
-13.9402
-13.9467
-13.9541
-13.962
-13.9701
-13.9782
-13.986
-13.9936
-14.0007
-14.0072
-14.0129
-14.0179
-14.0221
-14.0252
-14.0274
-14.0284
-14.0282
-14.0268
-14.0242
-14.0201
-14.0147
-14.0078
-13.9995
-13.9896
-13.5229
-13.4031
-13.4654
-13.5667
-13.6403
-13.691
-13.7338
-13.7711
-13.8032
-13.8312
-13.8559
-13.8779
-13.8976
-13.9152
-13.9311
-13.9452
-13.9579
-13.969
-13.9787
-13.9869
-13.9938
-13.9993
-14.0033
-14.0059
-14.007
-14.0066
-14.0047
-14.0012
-13.9962
-13.9896
-13.9814
-13.9716
-13.9601
-14.7371
-14.398
-14.1342
-14.0165
-13.9662
-13.9404
-13.9247
-13.9176
-13.9168
-13.9196
-13.9246
-13.9312
-13.9386
-13.9463
-13.9541
-13.9617
-13.9689
-13.9755
-13.9814
-13.9865
-13.9906
-13.9937
-13.9957
-13.9965
-13.996
-13.9941
-13.9909
-13.9862
-13.9799
-13.9721
-13.9627
-13.9517
-13.9389
-12.2332
-12.9397
-13.3439
-13.4959
-13.5998
-13.6814
-13.7399
-13.7837
-13.8189
-13.8476
-13.8715
-13.8918
-13.9095
-13.9248
-13.9382
-13.9499
-13.9601
-13.9688
-13.976
-13.9818
-13.9862
-13.9891
-13.9905
-13.9905
-13.9889
-13.9858
-13.981
-13.9746
-13.9666
-13.9569
-13.9454
-13.9323
-13.9174
-13.4034
-13.1357
-12.9991
-13.1567
-13.6268
-14.3349
-15.2386
-16.2625
-17.3501
-18.4634
-19.5669
-20.627
-21.6163
-22.5145
-23.3089
-23.9923
-24.5617
-25.0168
-25.3575
-25.5831
-25.6914
-25.6779
-25.5355
-25.2535
-24.8177
-24.2101
-23.4101
-22.4003
-21.174
-19.7394
-18.1141
-16.339
-14.4755
-12.582
-10.7118
-8.92429
-7.27299
-5.79416
-4.50463
-3.40442
-2.48225
-1.72084
-1.10063
-0.601997
-0.206573
0.102226
0.339008
0.51644
0.645388
0.735091
0.793357
0.826747
0.840756
0.839959
0.828146
0.808421
0.783287
0.754719
0.724237
0.692975
0.661746
0.631108
0.601412
0.572857
0.545529
0.519434
0.49453
0.470743
0.447989
0.426183
0.40525
0.385131
0.36578
0.347163
0.329253
0.312028
0.295464
0.279528
0.264182
0.24938
0.235077
0.221229
0.20779
0.194718
0.181969
0.1695
0.157272
0.145246
0.133385
0.121657
0.110024
0.098472
0.0869403
0.0754752
0.0639008
0.0525173
0.0406234
0.0296347
0.016517
0.00762408
-13.9917
-13.777
-13.5027
-13.5086
-13.8002
-14.348
-15.1302
-16.0909
-17.1634
-18.2802
-19.3813
-20.4244
-21.3859
-22.2538
-23.0209
-23.6807
-24.2296
-24.6664
-24.9895
-25.1964
-25.2836
-25.2459
-25.0757
-24.7618
-24.29
-23.644
-22.8092
-21.7795
-20.5591
-19.1562
-17.5933
-15.9099
-14.1465
-12.3483
-10.5705
-8.86905
-7.29121
-5.86996
-4.62184
-3.54871
-2.64197
-1.88715
-1.26711
-0.764212
-0.361588
-0.0437743
0.203023
0.390894
0.530297
0.630193
0.698201
0.740758
0.763282
0.770309
0.76562
0.752334
0.732994
0.709624
0.683806
0.656732
0.629274
0.60204
0.575425
0.549666
0.524878
0.50109
0.478278
0.456387
0.435345
0.415079
0.395525
0.376636
0.358376
0.34072
0.323656
0.307173
0.291257
0.275891
0.261042
0.246678
0.23276
0.219249
0.206103
0.193285
0.180757
0.168478
0.156412
0.144526
0.132785
0.12116
0.109614
0.0981362
0.0866698
0.0752582
0.0637378
0.0523848
0.040556
0.0295405
0.0165951
0.0074097
-13.8667
-13.6676
-13.5541
-13.6799
-14.0324
-14.5797
-15.2948
-16.1399
-17.0801
-18.0814
-19.1024
-20.1012
-21.0428
-21.9021
-22.6624
-23.312
-23.8454
-24.2613
-24.5599
-24.7399
-24.7983
-24.7294
-24.5249
-24.1739
-23.6649
-22.9897
-22.1456
-21.1301
-19.942
-18.5924
-17.105
-15.5062
-13.83
-12.1224
-10.4346
-8.81579
-7.30849
-5.94307
-4.73577
-3.68991
-2.79929
-2.05191
-1.43291
-0.926534
-0.517364
-0.191053
0.0653731
0.263409
0.41309
0.523082
0.600802
0.652551
0.683661
0.698618
0.701184
0.694484
0.68109
0.663072
0.642062
0.619312
0.595746
0.572025
0.548586
0.525704
0.503525
0.482105
0.46144
0.441493
0.422208
0.403525
0.385393
0.367774
0.350644
0.333988
0.317804
0.302095
0.286857
0.272084
0.257757
0.24385
0.230333
0.217172
0.204332
0.19178
0.179482
0.167402
0.155506
0.143767
0.132151
0.120633
0.10918
0.0977807
0.0863834
0.0750279
0.0635644
0.0522431
0.040484
0.0294389
0.0166771
0.00718188
-13.9925
-13.9441
-13.9248
-14.0494
-14.352
-14.8276
-15.4657
-16.2358
-17.0966
-18.0075
-18.9331
-19.8417
-20.7055
-21.4997
-22.2034
-22.8102
-23.3153
-23.7111
-23.9915
-24.1518
-24.1874
-24.0931
-23.8637
-23.494
-22.9792
-22.3127
-21.4871
-20.4983
-19.3512
-18.0598
-16.6411
-15.1186
-13.5264
-11.9065
-10.3044
-8.76437
-7.32466
-6.0133
-4.84615
-3.82771
-2.95381
-2.21473
-1.59766
-1.0886
-0.673575
-0.339325
-0.0737002
0.134187
0.293933
0.413893
0.501264
0.562205
0.601947
0.62492
0.634856
0.634879
0.627577
0.615058
0.599001
0.58071
0.56116
0.54106
0.520892
0.500969
0.48147
0.462478
0.444015
0.42606
0.408577
0.39152
0.37485
0.358542
0.34258
0.326961
0.311694
0.29679
0.282259
0.268106
0.254322
0.240891
0.227792
0.214996
0.202476
0.190201
0.178143
0.166269
0.154553
0.142966
0.131482
0.120077
0.108721
0.0974045
0.08608
0.0747833
0.0633799
0.0520919
0.0404065
0.0293299
0.0167609
0.00694306
-14.0794
-14.0578
-14.0723
-14.2157
-14.5187
-14.9749
-15.5725
-16.2834
-17.0715
-17.9004
-18.7407
-19.5674
-20.3569
-21.0878
-21.7415
-22.3073
-22.7744
-23.1354
-23.3853
-23.5204
-23.5366
-23.4297
-23.1947
-22.8254
-22.3151
-21.6569
-20.8474
-19.889
-18.7872
-17.5512
-16.197
-14.7485
-13.2371
-11.7006
-10.1799
-8.71472
-7.33964
-6.08053
-4.95277
-3.9618
-3.1052
-2.3752
-1.76091
-1.25
-0.829832
-0.488236
-0.213881
0.00350497
0.173065
0.302825
0.399757
0.469855
0.518248
0.549296
0.566693
0.573551
0.572471
0.565587
0.554618
0.540915
0.525501
0.509131
0.492331
0.475452
0.458706
0.442208
0.426002
0.410091
0.394456
0.379068
0.363902
0.348943
0.334187
0.319641
0.305324
0.291257
0.277462
0.263954
0.250735
0.237801
0.225136
0.21272
0.200532
0.188546
0.176737
0.165081
0.153551
0.142125
0.130778
0.119491
0.108237
0.0970073
0.0857594
0.0745245
0.0631843
0.0519312
0.0403232
0.029214
0.0168455
0.00669564
-14.176
-14.1981
-14.2642
-14.4309
-14.7229
-15.1397
-15.6759
-16.3146
-17.0267
-17.781
-18.5503
-19.3082
-20.0309
-20.7008
-21.2987
-21.8154
-22.2406
-22.5679
-22.7916
-22.9063
-22.9067
-22.7878
-22.544
-22.1701
-21.6618
-21.0163
-20.2312
-19.307
-18.248
-17.0648
-15.7735
-14.3962
-12.9618
-11.5044
-10.0607
-8.6666
-7.35329
-6.14462
-5.05547
-4.09196
-3.25314
-2.53297
-1.92231
-1.41035
-0.985784
-0.637463
-0.354878
-0.128382
0.0507056
0.19007
0.296438
0.375634
0.432669
0.471825
0.496753
0.510544
0.515799
0.514672
0.508918
0.499926
0.488765
0.476233
0.462898
0.449149
0.435232
0.421293
0.407402
0.393587
0.379847
0.366171
0.352549
0.338978
0.325465
0.312028
0.298693
0.285495
0.272463
0.259625
0.246995
0.234576
0.222362
0.210342
0.198499
0.186813
0.175265
0.163834
0.152499
0.14124
0.130038
0.118875
0.107728
0.0965884
0.0854208
0.0742508
0.062977
0.0517607
0.0402335
0.0290914
0.0169295
0.00644199
-14.2693
-14.3185
-14.4118
-14.5878
-14.8685
-15.2561
-15.7447
-16.3186
-16.9565
-17.6394
-18.3422
-19.0352
-19.695
-20.3048
-20.8552
-21.3292
-21.7181
-22.0143
-22.2113
-22.3037
-22.2866
-22.1555
-21.9058
-21.533
-21.0331
-20.4029
-19.6409
-18.7488
-17.732
-16.6007
-15.3701
-14.0609
-12.6996
-11.3171
-9.94644
-8.61978
-7.36546
-6.20548
-5.1541
-4.21798
-3.39735
-2.68772
-2.08149
-1.56931
-1.14109
-0.786684
-0.496401
-0.261213
-0.0729163
0.0758237
0.191475
0.279682
0.345325
0.392602
0.425109
0.445909
0.457596
0.462337
0.461913
0.457748
0.450952
0.442363
0.43259
0.422057
0.411046
0.399732
0.388217
0.376549
0.364752
0.352832
0.340794
0.328649
0.316415
0.30412
0.2918
0.2795
0.26726
0.255118
0.243098
0.231214
0.219469
0.20786
0.196374
0.185001
0.173724
0.162528
0.151395
0.140312
0.12926
0.118226
0.107191
0.0961469
0.0850634
0.0739616
0.0627574
0.0515799
0.0401367
0.0289622
0.0170113
0.00618466
-14.3563
-14.4266
-14.5408
-14.725
-14.9962
-15.3576
-15.8045
-16.3251
-16.9018
-17.516
-18.1463
-18.7707
-19.3698
-19.927
-20.4287
-20.8599
-21.2114
-21.4757
-21.6466
-21.7184
-21.6861
-21.5451
-21.2909
-20.9195
-20.4274
-19.8124
-19.0741
-18.2145
-17.2392
-16.1581
-14.9858
-13.7416
-12.4497
-11.1382
-9.83662
-8.57401
-7.37605
-6.26301
-5.24856
-4.33967
-3.53759
-2.83915
-2.23814
-1.72654
-1.2954
-0.935579
-0.638154
-0.394724
-0.197565
-0.0397084
0.0850472
0.18215
0.256343
0.311731
0.351844
0.37971
0.39791
0.408615
0.413626
0.414396
0.412071
0.407526
0.401408
0.394176
0.386148
0.377528
0.368448
0.358981
0.349174
0.339053
0.328639
0.317957
0.307037
0.295917
0.284645
0.273272
0.261852
0.25043
0.239043
0.227714
0.216456
0.205271
0.194158
0.183108
0.172113
0.161161
0.15024
0.139339
0.128444
0.117545
0.106626
0.0956818
0.0846864
0.0736562
0.0625248
0.0513885
0.0400322
0.0288266
0.0170893
0.00592631
-14.4356
-14.5211
-14.6486
-14.8358
-15.0957
-15.4318
-15.8408
-16.3132
-16.8345
-17.3884
-17.957
-18.5209
-19.0624
-19.5659
-20.0184
-20.4069
-20.7219
-20.9555
-21.1011
-21.1528
-21.1057
-20.9551
-20.697
-20.3277
-19.8444
-19.2454
-18.5309
-17.7033
-16.7684
-15.736
-14.6196
-13.4374
-12.2115
-10.967
-9.73088
-8.52908
-7.38494
-6.31716
-5.33875
-4.4569
-3.67366
-2.987
-2.39195
-1.88171
-1.44841
-1.08383
-0.779842
-0.528644
-0.323
-0.156312
-0.0226593
0.0832002
0.165863
0.229326
0.277052
0.312024
0.3368
0.35355
0.364087
0.369889
0.372133
0.371729
0.369357
0.365511
0.360541
0.354684
0.348098
0.340887
0.333118
0.324839
0.316088
0.306906
0.297334
0.287422
0.277228
0.266812
0.256237
0.245561
0.234828
0.224074
0.213319
0.202576
0.191848
0.181134
0.17043
0.159732
0.14903
0.138319
0.127588
0.11683
0.106033
0.0951925
0.0842893
0.073334
0.0622786
0.0511861
0.0399193
0.0286847
0.0171617
0.00566964
-14.5058
-14.6021
-14.7376
-14.9246
-15.1726
-15.4851
-15.8593
-16.2877
-16.7583
-17.2572
-17.7686
-18.2758
-18.763
-19.216
-19.6222
-19.97
-20.2496
-20.4532
-20.574
-20.6062
-20.5449
-20.3856
-20.1243
-19.7578
-19.2838
-18.7011
-18.0103
-17.2143
-16.3189
-15.3333
-14.2706
-13.1475
-11.984
-10.8031
-9.62887
-8.48481
-7.39207
-6.3679
-5.42463
-4.56957
-3.80539
-3.13103
-2.54265
-2.03451
-1.59979
-1.23114
-0.921174
-0.662702
-0.448973
-0.273766
-0.131449
-0.0169967
0.0740294
0.145514
0.200839
0.242937
0.274336
0.297197
0.313339
0.32426
0.331163
0.334988
0.336447
0.336069
0.334232
0.331205
0.327175
0.322272
0.316589
0.310195
0.303147
0.2955
0.28731
0.278638
0.269551
0.26012
0.250418
0.240511
0.230455
0.220295
0.210061
0.199773
0.189443
0.179077
0.168676
0.15824
0.147766
0.137252
0.126691
0.11608
0.10541
0.0946783
0.0838712
0.0729944
0.0620182
0.0509722
0.0397973
0.0285367
0.0172268
0.00541734
-14.5666
-14.67
-14.8095
-14.9934
-15.2288
-15.5185
-15.8605
-16.2485
-16.6726
-17.1209
-17.5797
-18.0345
-18.4711
-18.8766
-19.2391
-19.5477
-19.7932
-19.9678
-20.0648
-20.0784
-20.0037
-19.8363
-19.5725
-19.2095
-18.7452
-18.179
-17.5118
-16.7468
-15.8897
-14.9493
-13.9379
-12.8709
-11.7667
-10.6459
-9.5303
-8.44106
-7.39741
-6.41522
-5.50619
-4.6776
-3.93264
-3.27105
-2.68998
-2.18467
-1.74925
-1.37721
-1.06186
-0.796627
-0.575235
-0.391844
-0.24112
-0.118262
-0.0190001
0.060429
0.12332
0.172545
0.210596
0.239619
0.261431
0.277546
0.289188
0.297324
0.302697
0.305863
0.307232
0.307101
0.305686
0.303145
0.299596
0.295129
0.289822
0.283746
0.27697
0.269568
0.261617
0.253199
0.244395
0.235281
0.225923
0.216376
0.206679
0.196862
0.186944
0.176937
0.166849
0.156685
0.146448
0.136138
0.125754
0.115295
0.104757
0.0941386
0.0834317
0.072637
0.0617432
0.0507467
0.0396656
0.028383
0.0172831
0.00517195
-14.6178
-14.7254
-14.8656
-15.0443
-15.2665
-15.5345
-15.8465
-16.1973
-16.5788
-16.9805
-17.3908
-17.7968
-18.1862
-18.5469
-18.8681
-19.1396
-19.3525
-19.4994
-19.5736
-19.5694
-19.482
-19.3072
-19.0416
-18.6825
-18.2283
-17.6787
-17.0349
-16.3
-15.48
-14.5831
-13.6207
-12.6071
-11.559
-10.495
-9.43492
-8.39773
-7.40094
-6.45916
-5.58344
-4.78096
-4.0553
-3.4069
-2.83372
-2.33193
-1.89651
-1.52174
-1.20162
-0.930149
-0.701532
-0.510315
-0.351463
-0.22041
-0.113061
-0.0257853
0.0446179
0.100953
0.14567
0.18089
0.208426
0.229798
0.246249
0.25877
0.268129
0.274912
0.279555
0.282384
0.283644
0.283518
0.282149
0.279652
0.276123
0.271652
0.266322
0.26022
0.253434
0.246054
0.238172
0.229873
0.221234
0.212319
0.203177
0.193845
0.184351
0.174715
0.16495
0.155067
0.145074
0.134975
0.124775
0.114474
0.104074
0.0935731
0.0829705
0.0722615
0.0614532
0.0505094
0.0395237
0.0282237
0.017329
0.00493577
-14.6594
-14.7687
-14.9073
-15.0791
-15.2878
-15.5348
-15.8189
-16.1354
-16.4776
-16.8365
-17.202
-17.5629
-17.9082
-18.2269
-18.5092
-18.7454
-18.9274
-19.0478
-19.1002
-19.0791
-18.9798
-18.7983
-18.5314
-18.1766
-17.7328
-17.1997
-16.5788
-15.8734
-15.0891
-14.2338
-13.3182
-12.3552
-11.3603
-10.3501
-9.34255
-8.35478
-7.40272
-6.4998
-5.65643
-4.87966
-4.17333
-3.53843
-2.97369
-2.47606
-2.04131
-1.66447
-1.34018
-1.063
-0.827613
-0.628943
-0.462263
-0.323246
-0.207982
-0.112976
-0.0351331
0.0282784
0.0796569
0.121094
0.154391
0.181072
0.202392
0.219362
0.232775
0.243241
0.251223
0.257074
0.261064
0.263403
0.264261
0.263774
0.262062
0.259229
0.255376
0.250602
0.245006
0.23869
0.231753
0.224292
0.216392
0.208127
0.199555
0.190723
0.181666
0.172411
0.16298
0.153387
0.143646
0.133766
0.123755
0.113618
0.10336
0.0929816
0.0824872
0.0718677
0.0611478
0.05026
0.0393712
0.028059
0.0173634
0.0047108
-14.6916
-14.8007
-14.9357
-15.0994
-15.2942
-15.5212
-15.7791
-16.064
-16.3699
-16.6894
-17.0136
-17.3327
-17.6369
-17.9164
-18.162
-18.365
-18.5176
-18.6129
-18.6446
-18.6075
-18.497
-18.3094
-18.0417
-17.6916
-17.2582
-16.7415
-16.143
-15.4662
-14.7163
-13.9009
-13.0298
-12.1149
-11.1702
-10.2109
-9.25304
-8.3122
-7.4028
-6.53723
-5.72525
-4.97373
-4.28667
-3.66556
-3.10973
-2.61685
-2.18341
-1.80513
-1.47726
-1.19492
-0.953222
-0.74749
-0.5733
-0.42657
-0.303579
-0.200982
-0.115791
-0.0453557
0.0126642
0.0603243
0.099408
0.131436
0.157674
0.179148
0.196674
0.210883
0.222264
0.231193
0.237967
0.242821
0.24595
0.247514
0.247652
0.24649
0.244143
0.240724
0.236344
0.231115
0.225146
0.218543
0.211401
0.203802
0.195816
0.187498
0.17889
0.170028
0.160939
0.151645
0.142164
0.132509
0.122694
0.112727
0.102616
0.0923643
0.0819821
0.0714555
0.0608271
0.0499987
0.0392078
0.0278895
0.0173853
0.0044986
-14.7148
-14.8219
-14.9519
-15.1065
-15.2874
-15.4951
-15.7284
-15.9839
-16.2565
-16.5397
-16.8258
-17.1062
-17.3722
-17.6151
-17.8264
-17.9981
-18.123
-18.1944
-18.2066
-18.1544
-18.0336
-17.8405
-17.5723
-17.2272
-16.8042
-16.3036
-15.727
-15.0778
-14.361
-13.5836
-12.7548
-11.8855
-10.9883
-10.0771
-9.16632
-8.27
-7.40129
-6.57158
-5.79002
-5.06323
-4.39535
-3.78821
-3.2417
-2.75411
-2.32259
-1.94348
-1.61262
-1.32564
-1.07811
-0.865714
-0.684348
-0.530172
-0.399665
-0.289632
-0.197202
-0.119814
-0.0551898
-0.00131662
0.0435648
0.080967
0.11216
0.138185
0.159873
0.177879
0.192712
0.204772
0.21438
0.221795
0.227237
0.230889
0.232912
0.233451
0.232638
0.2306
0.227459
0.223339
0.218359
0.212633
0.206266
0.199351
0.191965
0.184173
0.176027
0.167568
0.158831
0.149844
0.140629
0.131207
0.121594
0.111801
0.101842
0.0917215
0.0814553
0.0710254
0.0604912
0.0497257
0.0390334
0.0277153
0.0173942
0.00430026
-14.7291
-14.833
-14.9569
-15.1018
-15.2687
-15.4579
-15.6681
-15.8963
-16.1381
-16.3878
-16.6387
-16.8834
-17.1141
-17.3228
-17.5021
-17.6445
-17.7432
-17.7923
-17.786
-17.7197
-17.5892
-17.3912
-17.1231
-16.7831
-16.3705
-15.8856
-15.3303
-14.7076
-14.0224
-13.2814
-12.4927
-11.6666
-10.8144
-9.94863
-9.08233
-8.22824
-7.39831
-6.603
-5.85085
-5.14825
-4.49937
-3.90635
-3.3695
-2.88769
-2.45865
-2.07929
-1.746
-1.45491
-1.20202
-0.983374
-0.795176
-0.633839
-0.496042
-0.378747
-0.279206
-0.194952
-0.123777
-0.0637156
-0.0130393
0.0297515
0.065927
0.0965374
0.12243
0.144277
0.162609
0.177847
0.190334
0.200353
0.208147
0.213923
0.217864
0.220133
0.220879
0.220245
0.218366
0.215375
0.211402
0.206571
0.200996
0.194779
0.188007
0.180754
0.17308
0.165034
0.156657
0.147985
0.139044
0.129861
0.120455
0.110842
0.10104
0.0910541
0.0809075
0.0705776
0.0601403
0.0494412
0.038848
0.0275368
0.01739
0.00411636
-14.7351
-14.8347
-14.9515
-15.0862
-15.2393
-15.4107
-15.5991
-15.8019
-16.0153
-16.2341
-16.4527
-16.6643
-16.8622
-17.0393
-17.1887
-17.3037
-17.3781
-17.4061
-17.3826
-17.3031
-17.1637
-16.9613
-16.6935
-16.3588
-15.9565
-15.4871
-14.9523
-14.3551
-13.7002
-12.9937
-12.2431
-11.4578
-10.6481
-9.82525
-9.00104
-8.18701
-7.39401
-6.63165
-5.90791
-5.2289
-4.5988
-4.01995
-3.49306
-3.01746
-2.5914
-2.21234
-1.87718
-1.58249
-1.32471
-1.10022
-0.905552
-0.737351
-0.592504
-0.468137
-0.361631
-0.270615
-0.192958
-0.126749
-0.0702947
-0.0221138
0.0190592
0.0542803
0.0844093
0.110135
0.132005
0.150462
0.165869
0.178531
0.188712
0.196645
0.202532
0.206557
0.208887
0.209678
0.20908
0.207237
0.204288
0.200368
0.1956
0.190095
0.183949
0.177246
0.170054
0.16243
0.154422
0.146071
0.137412
0.128473
0.119279
0.109851
0.10021
0.0903631
0.0803395
0.070113
0.0597751
0.0491459
0.038652
0.0273546
0.0173727
0.00394694
-14.7332
-14.8276
-14.9368
-15.061
-15.2003
-15.3547
-15.5226
-15.7018
-15.8888
-16.0792
-16.2679
-16.4491
-16.6167
-16.7645
-16.8861
-16.9756
-17.0272
-17.0356
-16.996
-16.9043
-16.7568
-16.5506
-16.2835
-15.9541
-15.5619
-15.1075
-14.5925
-14.0198
-13.3938
-12.72
-12.0056
-11.2589
-10.4892
-9.70691
-8.92248
-8.14639
-7.38853
-6.65771
-5.96136
-5.30532
-4.69371
-4.12904
-3.61231
-3.14329
-2.72069
-2.34244
-2.00592
-1.70814
-1.44592
-1.21602
-1.01524
-0.84048
-0.688839
-0.557606
-0.444294
-0.346637
-0.262583
-0.190282
-0.128081
-0.0745215
-0.0283477
0.0114986
0.0458865
0.0755187
0.10096
0.12267
0.14103
0.156368
0.16897
0.179088
0.186948
0.192752
0.196686
0.198922
0.199622
0.198942
0.197033
0.194037
0.190088
0.185307
0.179799
0.173656
0.166955
0.159761
0.15213
0.144107
0.135735
0.127045
0.118069
0.10883
0.099354
0.0896498
0.0797525
0.0696325
0.0593962
0.0488403
0.0384459
0.0271691
0.017343
0.00379158
-14.7238
-14.8123
-14.9134
-15.027
-15.153
-15.2909
-15.4396
-15.5967
-15.7593
-15.9234
-16.0846
-16.2378
-16.3775
-16.4981
-16.5941
-16.6599
-16.6904
-16.6806
-16.6261
-16.5231
-16.3681
-16.1586
-15.8925
-15.5685
-15.1863
-14.7464
-14.2505
-13.7012
-13.1027
-12.46
-11.7798
-11.0695
-10.3376
-9.59353
-8.84667
-8.10652
-7.38206
-6.68138
-6.0114
-5.37766
-4.7842
-4.23364
-3.72724
-3.2651
-2.84637
-2.46941
-2.13202
-1.83163
-1.56543
-1.33053
-1.12399
-0.942994
-0.784825
-0.646945
-0.527003
-0.422841
-0.332492
-0.254169
-0.186266
-0.127353
-0.0761871
-0.0317123
0.00694708
0.0405051
0.0695409
0.0945301
0.115872
0.133914
0.148962
0.16129
0.171145
0.178749
0.184306
0.188002
0.190014
0.190511
0.189653
0.187593
0.184475
0.180428
0.175567
0.169992
0.16379
0.157034
0.149785
0.142097
0.134017
0.125582
0.116828
0.107782
0.0984743
0.0889161
0.0791479
0.0691373
0.0590047
0.0485253
0.0382302
0.0269808
0.0173018
0.00364943
-14.7075
-14.7897
-14.8823
-14.9853
-15.0981
-15.2204
-15.3509
-15.4875
-15.6274
-15.7673
-15.9032
-16.0305
-16.1445
-16.2402
-16.3125
-16.3565
-16.3673
-16.3407
-16.2725
-16.1591