/*--------------------------------*- C++ -*----------------------------------*\
| =========                 |                                                 |
| \\      /  F ield         | OpenFOAM: The Open Source CFD Toolbox           |
|  \\    /   O peration     | Version:  2.1.1                                 |
|   \\  /    A nd           | Web:      www.OpenFOAM.org                      |
|    \\/     M anipulation  |                                                 |
\*---------------------------------------------------------------------------*/
FoamFile
{
    version     2.0;
    format      ascii;
    class       surfaceScalarField;
    location    "0.045";
    object      phi;
}
// * * * * * * * * * * * * * * * * * * * * * * * * * * * * * * * * * * * * * //

dimensions      [0 3 -1 0 0 0 0];

internalField   nonuniform List<scalar> 
13452
(
6.89922e-05
-5.04951e-07
6.88132e-05
1.78986e-07
6.82015e-05
6.11778e-07
6.72535e-05
9.47901e-07
6.61764e-05
1.07713e-06
6.50843e-05
1.09216e-06
6.40188e-05
1.06544e-06
6.29974e-05
1.02142e-06
6.20283e-05
9.6908e-07
6.1115e-05
9.1334e-07
6.02583e-05
8.56644e-07
5.94579e-05
8.00473e-07
5.87121e-05
7.45812e-07
5.80187e-05
6.93366e-07
5.73751e-05
6.43635e-07
5.67781e-05
5.96962e-07
5.62245e-05
5.53576e-07
5.57109e-05
5.13625e-07
5.52337e-05
4.77206e-07
5.47893e-05
4.44392e-07
5.4374e-05
4.15259e-07
5.39841e-05
3.89917e-07
5.36156e-05
3.68544e-07
5.32641e-05
3.51423e-07
5.29251e-05
3.39002e-07
5.25932e-05
3.31988e-07
5.22617e-05
3.31473e-07
5.19223e-05
3.3937e-07
5.15641e-05
3.58246e-07
5.11688e-05
3.95269e-07
5.0712e-05
4.56811e-07
5.01354e-05
5.76566e-07
8.15843e-07
4.93196e-05
7.01649e-05
-2.25926e-07
7.0041e-05
3.02911e-07
7.01815e-05
4.71322e-07
7.05085e-05
6.20864e-07
7.08586e-05
7.2701e-07
7.1157e-05
7.93771e-07
7.1381e-05
8.41421e-07
7.15323e-05
8.70121e-07
7.16188e-05
8.82591e-07
7.16493e-05
8.82835e-07
7.16321e-05
8.73837e-07
7.15746e-05
8.57965e-07
7.14834e-05
8.37074e-07
7.1364e-05
8.12691e-07
7.12216e-05
7.8606e-07
7.10604e-05
7.58204e-07
7.0884e-05
7.29974e-07
7.06955e-05
7.02082e-07
7.04976e-05
6.75137e-07
7.02923e-05
6.49677e-07
7.00814e-05
6.26203e-07
6.98661e-05
6.05217e-07
6.96473e-05
5.87261e-07
6.94258e-05
5.72967e-07
6.92017e-05
5.63135e-07
6.89749e-05
5.58799e-07
6.87449e-05
5.61461e-07
6.85111e-05
5.73087e-07
6.82722e-05
5.97166e-07
6.80303e-05
6.37206e-07
6.7783e-05
7.04061e-07
6.75666e-05
7.93012e-07
9.52635e-07
6.74298e-05
7.22816e-05
-5.09495e-08
7.23966e-05
1.87903e-07
7.25012e-05
3.667e-07
7.25874e-05
5.34646e-07
7.26703e-05
6.4408e-07
7.27519e-05
7.12169e-07
7.28376e-05
7.55797e-07
7.29236e-05
7.84046e-07
7.30061e-05
8.00119e-07
7.30823e-05
8.06598e-07
7.31507e-05
8.05482e-07
7.32103e-05
7.98392e-07
7.32607e-05
7.86669e-07
7.33019e-05
7.715e-07
7.3334e-05
7.53918e-07
7.33574e-05
7.34814e-07
7.33724e-05
7.14969e-07
7.33794e-05
6.95071e-07
7.33788e-05
6.75742e-07
7.33709e-05
6.57564e-07
7.3356e-05
6.41107e-07
7.33343e-05
6.26965e-07
7.33057e-05
6.15796e-07
7.32703e-05
6.0837e-07
7.32278e-05
6.05646e-07
7.31778e-05
6.08833e-07
7.31196e-05
6.19614e-07
7.30527e-05
6.40063e-07
7.29762e-05
6.73663e-07
7.28901e-05
7.2323e-07
7.2796e-05
7.9823e-07
7.26966e-05
8.92365e-07
1.04535e-06
7.26039e-05
7.45184e-05
-4.27492e-08
7.44879e-05
2.18425e-07
7.44762e-05
3.78393e-07
7.45155e-05
4.95398e-07
7.45753e-05
5.84213e-07
7.46412e-05
6.46329e-07
7.47064e-05
6.90534e-07
7.47696e-05
7.2092e-07
7.48302e-05
7.39476e-07
7.48882e-05
7.48612e-07
7.49433e-05
7.50404e-07
7.49952e-05
7.4647e-07
7.50437e-05
7.38129e-07
7.50887e-05
7.26524e-07
7.513e-05
7.12637e-07
7.51675e-05
6.97321e-07
7.52011e-05
6.81327e-07
7.52309e-05
6.6533e-07
7.52566e-05
6.49955e-07
7.52784e-05
6.35803e-07
7.5296e-05
6.23477e-07
7.53094e-05
6.13619e-07
7.53182e-05
6.06946e-07
7.53223e-05
6.04299e-07
7.53212e-05
6.06711e-07
7.53146e-05
6.15458e-07
7.5302e-05
6.32242e-07
7.52829e-05
6.59103e-07
7.52575e-05
6.99124e-07
7.52258e-05
7.54941e-07
7.51911e-05
8.32863e-07
7.51524e-05
9.31092e-07
1.06606e-06
7.51317e-05
7.66035e-05
9.59992e-09
7.6628e-05
1.93922e-07
7.66642e-05
3.42247e-07
7.6702e-05
4.57594e-07
7.67399e-05
5.46249e-07
7.6779e-05
6.07284e-07
7.68203e-05
6.49187e-07
7.68635e-05
6.77704e-07
7.69075e-05
6.95481e-07
7.69514e-05
7.04714e-07
7.69946e-05
7.0723e-07
7.70366e-05
7.04471e-07
7.70771e-05
6.97642e-07
7.71158e-05
6.87801e-07
7.71526e-05
6.75874e-07
7.71872e-05
6.62674e-07
7.72196e-05
6.48933e-07
7.72496e-05
6.35318e-07
7.72771e-05
6.22458e-07
7.7302e-05
6.10965e-07
7.7324e-05
6.01468e-07
7.73429e-05
5.94638e-07
7.73587e-05
5.91228e-07
7.73709e-05
5.9211e-07
7.73792e-05
5.98342e-07
7.73835e-05
6.11201e-07
7.73834e-05
6.32315e-07
7.73789e-05
6.63588e-07
7.73704e-05
7.07637e-07
7.73586e-05
7.66769e-07
7.73461e-05
8.45314e-07
7.73341e-05
9.43109e-07
1.0682e-06
7.7332e-05
7.88311e-05
2.44157e-08
7.88386e-05
1.86441e-07
7.88565e-05
3.24347e-07
7.8885e-05
4.29053e-07
7.8921e-05
5.10314e-07
7.89597e-05
5.68584e-07
7.89992e-05
6.09617e-07
7.9039e-05
6.37974e-07
7.90784e-05
6.55998e-07
7.91174e-05
6.65722e-07
7.91557e-05
6.68935e-07
7.91931e-05
6.67071e-07
7.92294e-05
6.61324e-07
7.92645e-05
6.52728e-07
7.92982e-05
6.42188e-07
7.93304e-05
6.30504e-07
7.93609e-05
6.18397e-07
7.93897e-05
6.06532e-07
7.94166e-05
5.95542e-07
7.94415e-05
5.86052e-07
7.94643e-05
5.78703e-07
7.94847e-05
5.7418e-07
7.95027e-05
5.7325e-07
7.9518e-05
5.7679e-07
7.95306e-05
5.85835e-07
7.95401e-05
6.01609e-07
7.95469e-05
6.25605e-07
7.95509e-05
6.5952e-07
7.95531e-05
7.05492e-07
7.95544e-05
7.65455e-07
7.95574e-05
8.42298e-07
7.95639e-05
9.36586e-07
1.05195e-06
7.95802e-05
8.10847e-05
3.8281e-08
8.10945e-05
1.76594e-07
8.11178e-05
3.01096e-07
8.11482e-05
3.98662e-07
8.11825e-05
4.75998e-07
8.12181e-05
5.33005e-07
8.12542e-05
5.73506e-07
8.12906e-05
6.01555e-07
8.1327e-05
6.19594e-07
8.13631e-05
6.2962e-07
8.13987e-05
6.33363e-07
8.14335e-05
6.32218e-07
8.14675e-05
6.27347e-07
8.15005e-05
6.19758e-07
8.15323e-05
6.10338e-07
8.1563e-05
5.99871e-07
8.15923e-05
5.89072e-07
8.16202e-05
5.78604e-07
8.16467e-05
5.691e-07
8.16715e-05
5.61189e-07
8.16947e-05
5.55516e-07
8.17161e-05
5.52766e-07
8.17357e-05
5.53698e-07
8.17533e-05
5.59161e-07
8.1769e-05
5.70139e-07
8.17829e-05
5.87757e-07
8.17951e-05
6.13331e-07
8.18063e-05
6.48312e-07
8.18174e-05
6.94383e-07
8.18298e-05
7.53067e-07
8.18459e-05
8.26241e-07
8.18679e-05
9.14527e-07
1.01931e-06
8.19006e-05
8.341e-05
4.37933e-08
8.34198e-05
1.66789e-07
8.34405e-05
2.80461e-07
8.34678e-05
3.71378e-07
8.34998e-05
4.43935e-07
8.35342e-05
4.9859e-07
8.35696e-05
5.3809e-07
8.36054e-05
5.658e-07
8.3641e-05
5.83959e-07
8.36763e-05
5.94396e-07
8.37109e-05
5.98732e-07
8.37448e-05
5.98314e-07
8.37779e-05
5.94278e-07
8.381e-05
5.87613e-07
8.38412e-05
5.7919e-07
8.38712e-05
5.69784e-07
8.39002e-05
5.60102e-07
8.3928e-05
5.50803e-07
8.39546e-05
5.42517e-07
8.39799e-05
5.35868e-07
8.40039e-05
5.31494e-07
8.40266e-05
5.30066e-07
8.4048e-05
5.32313e-07
8.40681e-05
5.39037e-07
8.40871e-05
5.51138e-07
8.41053e-05
5.69614e-07
8.4123e-05
5.95584e-07
8.41411e-05
6.30227e-07
8.41607e-05
6.74817e-07
8.41833e-05
7.30463e-07
8.42112e-05
7.98302e-07
8.4247e-05
8.78725e-07
9.71902e-07
8.42944e-05
8.57963e-05
4.62368e-08
8.5806e-05
1.57058e-07
8.58261e-05
2.60412e-07
8.58526e-05
3.44848e-07
8.58836e-05
4.12884e-07
8.59171e-05
4.65144e-07
8.59516e-05
5.03537e-07
8.59867e-05
5.30776e-07
8.60217e-05
5.48911e-07
8.60565e-05
5.59636e-07
8.60907e-05
5.64469e-07
8.61244e-05
5.64697e-07
8.61572e-05
5.61417e-07
8.61892e-05
5.55587e-07
8.62204e-05
5.48056e-07
8.62506e-05
5.39583e-07
8.62798e-05
5.30863e-07
8.63081e-05
5.22543e-07
8.63354e-05
5.15243e-07
8.63616e-05
5.09575e-07
8.6387e-05
5.06155e-07
8.64114e-05
5.05629e-07
8.64351e-05
5.08677e-07
8.64581e-05
5.16035e-07
8.64807e-05
5.28499e-07
8.65034e-05
5.46923e-07
8.65268e-05
5.72216e-07
8.65517e-05
6.05292e-07
8.65795e-05
6.47054e-07
8.66117e-05
6.98231e-07
8.66506e-05
7.59405e-07
8.66987e-05
8.3065e-07
9.11457e-07
8.67591e-05
8.825e-05
4.62065e-08
8.826e-05
1.47133e-07
8.82791e-05
2.41303e-07
8.83043e-05
3.1964e-07
8.83339e-05
3.83254e-07
8.83662e-05
4.32817e-07
8.84e-05
4.6975e-07
8.84345e-05
4.96252e-07
8.84693e-05
5.14158e-07
8.85039e-05
5.25017e-07
8.85382e-05
5.30224e-07
8.85719e-05
5.30991e-07
8.86049e-05
5.28363e-07
8.86372e-05
5.23261e-07
8.86688e-05
5.16503e-07
8.86995e-05
5.08828e-07
8.87295e-05
5.0091e-07
8.87587e-05
4.9338e-07
8.87871e-05
4.86838e-07
8.88148e-05
4.81872e-07
8.88419e-05
4.79071e-07
8.88685e-05
4.79035e-07
8.88947e-05
4.82387e-07
8.8921e-05
4.8978e-07
8.89476e-05
5.01893e-07
8.89751e-05
5.19429e-07
8.90042e-05
5.43089e-07
8.9036e-05
5.73537e-07
8.90717e-05
6.11354e-07
8.9113e-05
6.56934e-07
8.91619e-05
7.10443e-07
8.92209e-05
7.71656e-07
8.39682e-07
8.92927e-05
9.07727e-05
4.47931e-08
9.07826e-05
1.37224e-07
9.08009e-05
2.23071e-07
9.0825e-05
2.95503e-07
9.08535e-05
3.54759e-07
9.08849e-05
4.01463e-07
9.09179e-05
4.36712e-07
9.09519e-05
4.62267e-07
9.09863e-05
4.79745e-07
9.10208e-05
4.9055e-07
9.1055e-05
4.95961e-07
9.10889e-05
4.9711e-07
9.11223e-05
4.94986e-07
9.11551e-05
4.90465e-07
9.11872e-05
4.84331e-07
9.12188e-05
4.77291e-07
9.12497e-05
4.69995e-07
9.128e-05
4.63045e-07
9.13098e-05
4.57017e-07
9.13393e-05
4.52466e-07
9.13684e-05
4.49939e-07
9.13974e-05
4.49984e-07
9.14267e-05
4.53155e-07
9.14564e-05
4.60011e-07
9.14872e-05
4.71111e-07
9.15196e-05
4.87004e-07
9.15545e-05
5.08198e-07
9.15929e-05
5.35127e-07
9.16362e-05
5.68103e-07
9.16859e-05
6.07242e-07
9.17439e-05
6.52403e-07
9.18125e-05
7.03121e-07
7.58311e-07
9.18938e-05
9.33669e-05
4.2541e-08
9.33768e-05
1.27349e-07
9.33942e-05
2.0563e-07
9.34173e-05
2.72389e-07
9.34447e-05
3.27378e-07
9.34751e-05
3.7111e-07
9.35073e-05
4.0446e-07
9.35407e-05
4.2885e-07
9.35748e-05
4.45689e-07
9.36091e-05
4.56243e-07
9.36434e-05
4.61676e-07
9.36775e-05
4.63036e-07
9.37112e-05
4.6125e-07
9.37445e-05
4.57144e-07
9.37774e-05
4.5146e-07
9.38098e-05
4.44872e-07
9.38418e-05
4.37995e-07
9.38734e-05
4.314e-07
9.39048e-05
4.25627e-07
9.39361e-05
4.21191e-07
9.39675e-05
4.1859e-07
9.39991e-05
4.18311e-07
9.40315e-05
4.20832e-07
9.40649e-05
4.26615e-07
9.40999e-05
4.36099e-07
9.41372e-05
4.49684e-07
9.41777e-05
4.67705e-07
9.42224e-05
4.90397e-07
9.42727e-05
5.17853e-07
9.43299e-05
5.49968e-07
9.4396e-05
5.86385e-07
9.44726e-05
6.26474e-07
6.69075e-07
9.45618e-05
9.60348e-05
3.98311e-08
9.60445e-05
1.17595e-07
9.60613e-05
1.88923e-07
9.60834e-05
2.50221e-07
9.61098e-05
3.01011e-07
9.61392e-05
3.41689e-07
9.61707e-05
3.7297e-07
9.62035e-05
3.96006e-07
9.62372e-05
4.12015e-07
9.62713e-05
4.22129e-07
9.63056e-05
4.27402e-07
9.63398e-05
4.28795e-07
9.63739e-05
4.27169e-07
9.64078e-05
4.23299e-07
9.64414e-05
4.17881e-07
9.64747e-05
4.11546e-07
9.65078e-05
4.04874e-07
9.65408e-05
3.98397e-07
9.65738e-05
3.92612e-07
9.6607e-05
3.87988e-07
9.66406e-05
3.84969e-07
9.6675e-05
3.83977e-07
9.67104e-05
3.85408e-07
9.67474e-05
3.89628e-07
9.67865e-05
3.96962e-07
9.68285e-05
4.07676e-07
9.68743e-05
4.21952e-07
9.69248e-05
4.3986e-07
9.69814e-05
4.6132e-07
9.70453e-05
4.86066e-07
9.7118e-05
5.13601e-07
9.72013e-05
5.43194e-07
5.73697e-07
9.72967e-05
9.87787e-05
3.68904e-08
9.87883e-05
1.0801e-07
9.88043e-05
1.7288e-07
9.88256e-05
2.28919e-07
9.8851e-05
2.75582e-07
9.88796e-05
3.13154e-07
9.89103e-05
3.42225e-07
9.89426e-05
3.63738e-07
9.89759e-05
3.78738e-07
9.90098e-05
3.88229e-07
9.9044e-05
3.93161e-07
9.90784e-05
3.94408e-07
9.91128e-05
3.92765e-07
9.91471e-05
3.88949e-07
9.91814e-05
3.83607e-07
9.92156e-05
3.77325e-07
9.92499e-05
3.70641e-07
9.92842e-05
3.64042e-07
9.93188e-05
3.57981e-07
9.9354e-05
3.52875e-07
9.93898e-05
3.49111e-07
9.94268e-05
3.47041e-07
9.94652e-05
3.46983e-07
9.95056e-05
3.49212e-07
9.95486e-05
3.53946e-07
9.9595e-05
3.61334e-07
9.96455e-05
3.7143e-07
9.97012e-05
3.84172e-07
9.97631e-05
3.99355e-07
9.98326e-05
4.16602e-07
9.99109e-05
4.35334e-07
9.99993e-05
4.54782e-07
4.73863e-07
0.000100099
0.000101601
3.38579e-08
0.00010161
9.8634e-08
0.000101626
1.57444e-07
0.000101646
2.08412e-07
0.000101671
2.51014e-07
0.000101698
2.85444e-07
0.000101728
3.12191e-07
0.00010176
3.3203e-07
0.000101793
3.45856e-07
0.000101827
3.54554e-07
0.000101861
3.58971e-07
0.000101895
3.599e-07
0.00010193
3.58064e-07
0.000101965
3.54121e-07
0.000102
3.48667e-07
0.000102035
3.42241e-07
0.00010207
3.3533e-07
0.000102106
3.28379e-07
0.000102142
3.2179e-07
0.000102179
3.15927e-07
0.000102217
3.11116e-07
0.000102256
3.07644e-07
0.000102298
3.05752e-07
0.000102341
3.05631e-07
0.000102388
3.07406e-07
0.000102438
3.11127e-07
0.000102493
3.16745e-07
0.000102553
3.24102e-07
0.000102619
3.32904e-07
0.000102693
3.42708e-07
0.000102776
3.52903e-07
0.000102868
3.62727e-07
3.71195e-07
0.00010297
0.000104503
3.08147e-08
0.000104513
8.94912e-08
0.000104527
1.4256e-07
0.000104547
1.88629e-07
0.000104571
2.27234e-07
0.000104598
2.58499e-07
0.000104627
2.82827e-07
0.000104659
3.00862e-07
0.000104691
3.13364e-07
0.000104724
3.21108e-07
0.000104759
3.24847e-07
0.000104793
3.2529e-07
0.000104828
3.23092e-07
0.000104863
3.18849e-07
0.000104899
3.13102e-07
0.000104935
3.0634e-07
0.000104971
2.99002e-07
0.000105008
2.91482e-07
0.000105046
2.84133e-07
0.000105084
2.77264e-07
0.000105124
2.71142e-07
0.000105166
2.65991e-07
0.00010521
2.61983e-07
0.000105256
2.59232e-07
0.000105306
2.57786e-07
0.000105359
2.57614e-07
0.000105418
2.58592e-07
0.000105481
2.60491e-07
0.000105551
2.62965e-07
0.000105628
2.65544e-07
0.000105714
2.67619e-07
0.000105808
2.68469e-07
2.6723e-07
0.000105912
0.000107489
2.78065e-08
0.000107498
8.05927e-08
0.000107512
1.2818e-07
0.000107531
1.69507e-07
0.000107554
2.04176e-07
0.000107581
2.32261e-07
0.000107609
2.54094e-07
0.00010764
2.70208e-07
0.000107672
2.81251e-07
0.000107705
2.87895e-07
0.000107739
2.90801e-07
0.000107774
2.90601e-07
0.000107809
2.8788e-07
0.000107845
2.83172e-07
0.000107881
2.76962e-07
0.000107918
2.69687e-07
0.000107955
2.61736e-07
0.000107993
2.53453e-07
0.000108032
2.45138e-07
0.000108072
2.37049e-07
0.000108114
2.29398e-07
0.000108158
2.22347e-07
0.000108204
2.16007e-07
0.000108252
2.1043e-07
0.000108305
2.05598e-07
0.000108361
2.0142e-07
0.000108422
1.97719e-07
0.000108488
1.94224e-07
0.00010856
1.90564e-07
0.00010864
1.86269e-07
0.000108727
1.80761e-07
0.000108822
1.73382e-07
1.63397e-07
0.000108925
0.00011056
2.48568e-08
0.000110568
7.19401e-08
0.000110582
1.14262e-07
0.000110601
1.50985e-07
0.000110623
1.81775e-07
0.000110649
2.06673e-07
0.000110677
2.25948e-07
0.000110707
2.40043e-07
0.000110739
2.49505e-07
0.000110772
2.54915e-07
0.000110806
2.56848e-07
0.000110841
2.5586e-07
0.000110876
2.52466e-07
0.000110912
2.47141e-07
0.000110949
2.40313e-07
0.000110986
2.32366e-07
0.000111024
2.23637e-07
0.000111063
2.14422e-07
0.000111103
2.0497e-07
0.000111145
1.95489e-07
0.000111188
1.86137e-07
0.000111233
1.77025e-07
0.000111281
1.68212e-07
0.000111332
1.59695e-07
0.000111386
1.51409e-07
0.000111444
1.4322e-07
0.000111507
1.34917e-07
0.000111575
1.26209e-07
0.000111649
1.16726e-07
0.000111729
1.06017e-07
0.000111817
9.35565e-08
0.000111911
7.87593e-08
6.10214e-08
0.000112014
0.000113718
2.19766e-08
0.000113727
6.35276e-08
0.00011374
1.00766e-07
0.000113758
1.33008e-07
0.00011378
1.59975e-07
0.000113805
1.81683e-07
0.000113833
1.98349e-07
0.000113862
2.1034e-07
0.000113894
2.18115e-07
0.000113926
2.2217e-07
0.00011396
2.23004e-07
0.000113995
2.21096e-07
0.000114031
2.16897e-07
0.000114067
2.1082e-07
0.000114104
2.03238e-07
0.000114142
1.94481e-07
0.000114181
1.84837e-07
0.000114221
1.74552e-07
0.000114262
1.63829e-07
0.000114304
1.52827e-07
0.000114349
1.41658e-07
0.000114396
1.30389e-07
0.000114445
1.19031e-07
0.000114497
1.07545e-07
0.000114552
9.58295e-08
0.000114612
8.37223e-08
0.000114676
7.09972e-08
0.000114745
5.73626e-08
0.000114819
4.24634e-08
0.000114899
2.58875e-08
0.000114985
7.16933e-09
0.000115078
-1.41954e-08
-3.86846e-08
0.000115178
0.000116967
1.91689e-08
0.000116975
5.53448e-08
0.000116988
8.76557e-08
0.000117006
1.15526e-07
0.000117027
1.38721e-07
0.000117052
1.57241e-07
0.000117079
1.71257e-07
0.000117108
1.81072e-07
0.000117139
1.87069e-07
0.000117172
1.89667e-07
0.000117205
1.89289e-07
0.00011724
1.86348e-07
0.000117276
1.81229e-07
0.000117312
1.74285e-07
0.00011735
1.65834e-07
0.000117388
1.56156e-07
0.000117427
1.45489e-07
0.000117468
1.34033e-07
0.00011751
1.21946e-07
0.000117553
1.09345e-07
0.000117599
9.63e-08
0.000117646
8.28393e-08
0.000117696
6.89416e-08
0.000117749
5.45363e-08
0.000117805
3.94995e-08
0.000117866
2.36571e-08
0.00011793
6.78094e-09
0.000117999
-1.14089e-08
0.000118072
-3.12377e-08
0.000118151
-5.3071e-08
0.000118236
-7.73084e-08
0.000118326
-1.04368e-07
-1.34616e-07
0.000118422
0.000120309
1.64326e-08
0.000120317
4.73784e-08
0.000120329
7.48972e-08
0.000120347
9.84925e-08
0.000120367
1.17965e-07
0.000120391
1.33301e-07
0.000120418
1.44636e-07
0.000120447
1.52217e-07
0.000120477
1.56359e-07
0.00012051
1.57411e-07
0.000120543
1.55731e-07
0.000120578
1.51661e-07
0.000120614
1.45527e-07
0.00012065
1.37625e-07
0.000120688
1.28218e-07
0.000120727
1.17537e-07
0.000120766
1.05774e-07
0.000120807
9.30852e-08
0.00012085
7.9587e-08
0.000120894
6.53577e-08
0.000120939
5.04348e-08
0.000120987
3.48142e-08
0.000121038
1.84488e-08
0.000121091
1.25016e-09
0.000121148
-1.69206e-08
0.000121207
-3.62362e-08
0.000121271
-5.69168e-08
0.000121339
-7.92186e-08
0.000121411
-1.0343e-07
0.000121488
-1.29865e-07
0.00012157
-1.58854e-07
0.000121656
-1.90734e-07
-2.25768e-07
0.000121747
0.000123746
1.37645e-08
0.000123754
3.96139e-08
0.000123766
6.24605e-08
0.000123783
8.18671e-08
0.000123803
9.76616e-08
0.000123826
1.09822e-07
0.000123853
1.18452e-07
0.000123881
1.23752e-07
0.000123911
1.25978e-07
0.000123943
1.25415e-07
0.000123977
1.22358e-07
0.000124011
1.17087e-07
0.000124047
1.09868e-07
0.000124084
1.00941e-07
0.000124121
9.05201e-08
0.00012416
7.87868e-08
0.0001242
6.58926e-08
0.000124241
5.19501e-08
0.000124284
3.70401e-08
0.000124328
2.12078e-08
0.000124374
4.46206e-09
0.000124422
-1.3225e-08
0.000124472
-3.19182e-08
0.000124525
-5.17182e-08
0.000124581
-7.27628e-08
0.00012464
-9.52213e-08
0.000124702
-1.19295e-07
0.000124768
-1.45209e-07
0.000124838
-1.73212e-07
0.000124912
-2.03562e-07
0.00012499
-2.36524e-07
0.000125071
-2.7236e-07
-3.11239e-07
0.000125157
0.000127281
1.11603e-08
0.000127289
3.20363e-08
0.000127301
5.03165e-08
0.000127317
6.56097e-08
0.000127337
7.77673e-08
0.00012736
8.67606e-08
0.000127386
9.26702e-08
0.000127414
9.56556e-08
0.000127444
9.59201e-08
0.000127476
9.36892e-08
0.000127509
8.9205e-08
0.000127543
8.26835e-08
0.000127579
7.43348e-08
0.000127615
6.43471e-08
0.000127653
5.28861e-08
0.000127692
4.00871e-08
0.000127732
2.60659e-08
0.000127773
1.08926e-08
0.000127815
-5.38197e-09
0.000127859
-2.27409e-08
0.000127905
-4.11982e-08
0.000127952
-6.0799e-08
0.000128002
-8.1619e-08
0.000128054
-1.03763e-07
0.000128109
-1.27363e-07
0.000128166
-1.52575e-07
0.000128226
-1.79578e-07
0.00012829
-2.08563e-07
0.000128356
-2.39735e-07
0.000128426
-2.73299e-07
0.000128499
-3.09456e-07
0.000128575
-3.48401e-07
-3.90224e-07
0.000128654
0.000130917
8.6167e-09
0.000130925
2.46345e-08
0.000130937
3.84447e-08
0.000130953
4.96919e-08
0.000130972
5.82493e-08
0.000130995
6.40842e-08
0.00013102
6.72617e-08
0.000131048
6.79089e-08
0.000131078
6.61801e-08
0.000131109
6.22436e-08
0.000131142
5.63056e-08
0.000131176
4.85092e-08
0.000131212
3.90137e-08
0.000131248
2.79595e-08
0.000131285
1.54692e-08
0.000131324
1.62217e-09
0.000131363
-1.34746e-08
0.000131404
-2.98118e-08
0.000131446
-4.73555e-08
0.000131489
-6.61132e-08
0.000131534
-8.61165e-08
0.000131581
-1.07422e-07
0.000131629
-1.30112e-07
0.00013168
-1.54287e-07
0.000131733
-1.8007e-07
0.000131788
-2.07601e-07
0.000131845
-2.37029e-07
0.000131905
-2.68512e-07
0.000131968
-3.02212e-07
0.000132033
-3.38282e-07
0.0001321
-3.76869e-07
0.00013217
-4.18104e-07
-4.62015e-07
0.000132241
0.000134658
6.12665e-09
0.000134665
1.73905e-08
0.000134676
2.68123e-08
0.000134692
3.40674e-08
0.000134711
3.90583e-08
0.000134734
4.17475e-08
0.000134759
4.21894e-08
0.000134786
4.04874e-08
0.000134816
3.67542e-08
0.000134847
3.10908e-08
0.000134879
2.37091e-08
0.000134913
1.46352e-08
0.000134948
4.01044e-09
0.000134984
-8.08689e-09
0.000135021
-2.15678e-08
0.000135059
-3.63825e-08
0.000135098
-5.24867e-08
0.000135138
-6.98732e-08
0.00013518
-8.85438e-08
0.000135222
-1.08524e-07
0.000135266
-1.29858e-07
0.000135311
-1.5261e-07
0.000135358
-1.76861e-07
0.000135406
-2.02708e-07
0.000135456
-2.3026e-07
0.000135508
-2.59634e-07
0.000135562
-2.90954e-07
0.000135618
-3.24343e-07
0.000135676
-3.59921e-07
0.000135735
-3.97797e-07
0.000135796
-4.38064e-07
0.000135859
-4.80805e-07
-5.2599e-07
0.000135923
0.000138505
3.70202e-09
0.000138512
1.03241e-08
0.000138523
1.54418e-08
0.000138538
1.87538e-08
0.000138557
2.01845e-08
0.000138579
1.97166e-08
0.000138604
1.74144e-08
0.000138631
1.33607e-08
0.00013866
7.6319e-09
0.000138691
1.77914e-10
0.000138724
-8.56776e-09
0.000138757
-1.88993e-08
0.000138792
-3.06168e-08
0.000138827
-4.36872e-08
0.000138864
-5.80727e-08
0.000138901
-7.37567e-08
0.000138939
-9.07322e-08
0.000138979
-1.09011e-07
0.000139019
-1.2862e-07
0.00013906
-1.49598e-07
0.000139102
-1.71999e-07
0.000139145
-1.95891e-07
0.00013919
-2.21352e-07
0.000139235
-2.48471e-07
0.000139282
-2.77339e-07
0.000139331
-3.08055e-07
0.000139381
-3.40713e-07
0.000139432
-3.75405e-07
0.000139484
-4.12212e-07
0.000139537
-4.51203e-07
0.000139592
-4.9243e-07
0.000139647
-5.35929e-07
-5.8163e-07
0.000139703
0.000142462
1.29543e-09
0.000142469
3.35785e-09
0.00014248
4.22001e-09
0.000142495
3.62484e-09
0.000142514
1.57017e-09
0.000142535
-2.03319e-09
0.00014256
-7.09295e-09
0.000142587
-1.34986e-08
0.000142616
-2.12256e-08
0.000142646
-3.02612e-08
0.000142678
-4.04967e-08
0.000142711
-5.20007e-08
0.000142745
-6.47294e-08
0.00014278
-7.86798e-08
0.000142816
-9.38563e-08
0.000142852
-1.10273e-07
0.00014289
-1.27953e-07
0.000142928
-1.4693e-07
0.000142966
-1.67249e-07
0.000143006
-1.88961e-07
0.000143046
-2.12127e-07
0.000143087
-2.36816e-07
0.000143128
-2.63101e-07
0.000143171
-2.91058e-07
0.000143214
-3.20767e-07
0.000143259
-3.52301e-07
0.000143304
-3.85732e-07
0.000143349
-4.2112e-07
0.000143396
-4.58516e-07
0.000143442
-4.97952e-07
0.000143489
-5.39443e-07
0.000143536
-5.8299e-07
-6.28491e-07
0.000143583
0.000146532
-9.25005e-10
0.000146538
-3.25806e-09
0.000146549
-6.57582e-09
0.000146564
-1.11265e-08
0.000146582
-1.68503e-08
0.000146604
-2.36615e-08
0.000146628
-3.1472e-08
0.000146655
-4.02275e-08
0.000146684
-4.99214e-08
0.000146714
-6.0564e-08
0.000146746
-7.21505e-08
0.000146778
-8.47346e-08
0.000146812
-9.83507e-08
0.000146846
-1.13037e-07
0.000146881
-1.28835e-07
0.000146917
-1.45791e-07
0.000146953
-1.63957e-07
0.000146989
-1.83387e-07
0.000147026
-2.04138e-07
0.000147063
-2.26274e-07
0.000147101
-2.4986e-07
0.000147139
-2.74963e-07
0.000147178
-3.0165e-07
0.000147217
-3.29987e-07
0.000147256
-3.60036e-07
0.000147296
-3.91854e-07
0.000147335
-4.25487e-07
0.000147375
-4.60971e-07
0.000147415
-4.98327e-07
0.000147455
-5.37561e-07
0.000147494
-5.78658e-07
0.000147532
-6.21591e-07
-6.66234e-07
0.00014757
0.000150718
-3.43874e-09
0.000150725
-1.00742e-08
0.000150736
-1.74555e-08
0.000150751
-2.5819e-08
0.000150769
-3.50335e-08
0.00015079
-4.49657e-08
0.000150814
-5.55026e-08
0.00015084
-6.65805e-08
0.000150869
-7.82025e-08
0.000150899
-9.04114e-08
0.00015093
-1.03265e-07
0.000150962
-1.16847e-07
0.000150995
-1.31239e-07
0.000151028
-1.46521e-07
0.000151062
-1.62773e-07
0.000151096
-1.80071e-07
0.000151131
-1.98493e-07
0.000151166
-2.18112e-07
0.000151201
-2.39e-07
0.000151235
-2.61229e-07
0.00015127
-2.84866e-07
0.000151305
-3.09979e-07
0.00015134
-3.36627e-07
0.000151375
-3.64868e-07
0.00015141
-3.94749e-07
0.000151445
-4.26309e-07
0.000151479
-4.59575e-07
0.000151512
-4.94562e-07
0.000151545
-5.31268e-07
0.000151577
-5.69676e-07
0.000151608
-6.09747e-07
0.000151638
-6.51434e-07
-6.94597e-07
0.000151667
0.000155023
-4.81729e-09
0.000155029
-1.55726e-08
0.000155038
-2.73241e-08
0.000155053
-4.00804e-08
0.000155071
-5.33266e-08
0.000155093
-6.67255e-08
0.000155117
-8.01253e-08
0.000155144
-9.35074e-08
0.000155173
-1.06943e-07
0.000155203
-1.20545e-07
0.000155234
-1.34446e-07
0.000155266
-1.48783e-07
0.000155299
-1.63693e-07
0.000155331
-1.793e-07
0.000155364
-1.95721e-07
0.000155397
-2.13063e-07
0.00015543
-2.31425e-07
0.000155463
-2.50898e-07
0.000155496
-2.71564e-07
0.000155528
-2.93503e-07
0.00015556
-3.16783e-07
0.000155591
-3.41469e-07
0.000155622
-3.67615e-07
0.000155653
-3.95267e-07
0.000155682
-4.24462e-07
0.000155711
-4.55224e-07
0.000155739
-4.87564e-07
0.000155766
-5.21479e-07
0.000155792
-5.5695e-07
0.000155816
-5.93943e-07
0.000155839
-6.32405e-07
0.00015586
-6.72273e-07
-7.13399e-07
0.000155879
0.000159454
-8.67453e-09
0.000159462
-2.27728e-08
0.000159472
-3.78246e-08
0.000159486
-5.39181e-08
0.000159503
-7.05732e-08
0.000159524
-8.72235e-08
0.000159547
-1.03512e-07
0.000159573
-1.19319e-07
0.000159601
-1.34698e-07
0.00015963
-1.49791e-07
0.00015966
-1.6478e-07
0.000159691
-1.79859e-07
0.000159723
-1.95214e-07
0.000159755
-2.11021e-07
0.000159786
-2.27434e-07
0.000159818
-2.44597e-07
0.000159849
-2.62632e-07
0.00015988
-2.81651e-07
0.00015991
-3.01753e-07
0.00015994
-3.23021e-07
0.000159968
-3.45531e-07
0.000159996
-3.69345e-07
0.000160023
-3.94515e-07
0.000160049
-4.2108e-07
0.000160073
-4.49067e-07
0.000160097
-4.78489e-07
0.000160118
-5.09345e-07
0.000160139
-5.41621e-07
0.000160157
-5.75284e-07
0.000160173
-6.10289e-07
0.000160187
-6.46571e-07
0.000160199
-6.84057e-07
-7.226e-07
0.000160208
0.000164004
-6.12999e-09
0.000164006
-2.47124e-08
0.000164014
-4.61041e-08
0.000164028
-6.85875e-08
0.000164048
-9.04592e-08
0.000164072
-1.10994e-07
0.000164099
-1.30078e-07
0.000164127
-1.47854e-07
0.000164157
-1.64574e-07
0.000164188
-1.80521e-07
0.000164219
-1.95979e-07
0.00016425
-2.1122e-07
0.000164282
-2.2649e-07
0.000164313
-2.42005e-07
0.000164343
-2.57954e-07
0.000164373
-2.74501e-07
0.000164402
-2.91787e-07
0.000164431
-3.09934e-07
0.000164458
-3.29047e-07
0.000164484
-3.49215e-07
0.000164509
-3.70512e-07
0.000164533
-3.92997e-07
0.000164555
-4.16719e-07
0.000164575
-4.41708e-07
0.000164594
-4.67986e-07
0.000164611
-4.95556e-07
0.000164627
-5.2441e-07
0.000164639
-5.54523e-07
0.00016465
-5.85857e-07
0.000164658
-6.1836e-07
0.000164663
-6.51963e-07
0.000164666
-6.86592e-07
-7.221e-07
0.000164665
0.000168701
-1.55454e-08
0.000168709
-3.28157e-08
0.000168717
-5.3895e-08
0.000168727
-7.83499e-08
0.000168741
-1.04175e-07
0.000168759
-1.29156e-07
0.000168781
-1.52178e-07
0.000168806
-1.7307e-07
0.000168834
-1.92095e-07
0.000168863
-2.09626e-07
0.000168893
-2.26054e-07
0.000168923
-2.41754e-07
0.000168954
-2.57061e-07
0.000168984
-2.72267e-07
0.000169014
-2.8762e-07
0.000169043
-3.03331e-07
0.00016907
-3.19577e-07
0.000169097
-3.36504e-07
0.000169122
-3.54235e-07
0.000169146
-3.72871e-07
0.000169168
-3.92492e-07
0.000169188
-4.13161e-07
0.000169206
-4.34926e-07
0.000169222
-4.57816e-07
0.000169236
-4.81849e-07
0.000169248
-5.07024e-07
0.000169257
-5.33328e-07
0.000169263
-5.60733e-07
0.000169266
-5.89197e-07
0.000169266
-6.18664e-07
0.000169263
-6.49066e-07
0.000169257
-6.80324e-07
-7.12305e-07
0.000169247
0.000173491
4.36911e-09
0.000173485
-2.66182e-08
0.000173495
-6.33342e-08
0.000173516
-9.94212e-08
0.000173543
-1.3163e-07
0.000173574
-1.59609e-07
0.000173605
-1.83992e-07
0.000173638
-2.05391e-07
0.00017367
-2.24409e-07
0.000173702
-2.41589e-07
0.000173733
-2.57423e-07
0.000173764
-2.72341e-07
0.000173794
-2.8671e-07
0.000173822
-3.00834e-07
0.00017385
-3.14968e-07
0.000173876
-3.29324e-07
0.0001739
-3.4408e-07
0.000173923
-3.59383e-07
0.000173944
-3.75352e-07
0.000173963
-3.92087e-07
0.00017398
-4.09664e-07
0.000173995
-4.28145e-07
0.000174008
-4.47573e-07
0.000174018
-4.67976e-07
0.000174026
-4.89366e-07
0.00017403
-5.11743e-07
0.000174032
-5.35091e-07
0.000174031
-5.59382e-07
0.000174026
-5.84576e-07
0.000174018
-6.10621e-07
0.000174007
-6.37452e-07
0.000173991
-6.65e-07
-6.93138e-07
0.000173972
0.000178498
-2.47296e-08
0.0001785
-2.85031e-08
0.000178488
-5.18972e-08
0.000178479
-9.07577e-08
0.000178482
-1.33749e-07
0.000178494
-1.72518e-07
0.000178515
-2.04854e-07
0.000178541
-2.31548e-07
0.000178571
-2.53949e-07
0.000178602
-2.73075e-07
0.000178635
-2.89767e-07
0.000178667
-3.04728e-07
0.000178699
-3.18528e-07
0.00017873
-3.31619e-07
0.000178759
-3.44361e-07
0.000178787
-3.5704e-07
0.000178813
-3.69884e-07
0.000178836
-3.83073e-07
0.000178858
-3.96751e-07
0.000178877
-4.11029e-07
0.000178893
-4.25995e-07
0.000178907
-4.41712e-07
0.000178917
-4.58228e-07
0.000178925
-4.7557e-07
0.000178929
-4.93752e-07
0.00017893
-5.12773e-07
0.000178928
-5.3262e-07
0.000178922
-5.53267e-07
0.000178912
-5.74674e-07
0.000178898
-5.96794e-07
0.00017888
-6.19567e-07
0.000178858
-6.42929e-07
-6.66771e-07
0.000178832
0.000183487
5.59373e-08
0.000183465
-6.71464e-09
0.000183501
-8.80125e-08
0.000183552
-1.41492e-07
0.000183602
-1.83644e-07
0.000183646
-2.16967e-07
0.000183686
-2.44278e-07
0.000183721
-2.67386e-07
0.000183754
-2.87026e-07
0.000183785
-3.03937e-07
0.000183814
-3.1882e-07
0.000183842
-3.32222e-07
0.000183868
-3.44576e-07
0.000183893
-3.56237e-07
0.000183916
-3.67495e-07
0.000183937
-3.78584e-07
0.000183957
-3.89698e-07
0.000183975
-4.00993e-07
0.000183991
-4.12598e-07
0.000184004
-4.24613e-07
0.000184016
-4.37121e-07
0.000184024
-4.50185e-07
0.00018403
-4.63851e-07
0.000184032
-4.7815e-07
0.000184032
-4.931e-07
0.000184027
-5.08706e-07
0.00018402
-5.24962e-07
0.000184008
-5.41851e-07
0.000183993
-5.59346e-07
0.000183974
-5.77409e-07
0.00018395
-5.95997e-07
0.000183922
-6.15062e-07
-6.34509e-07
0.00018389
0.000188861
7.28974e-09
0.000188795
5.88715e-08
0.000188708
-1.49612e-09
0.000188644
-7.71361e-08
0.000188625
-1.64846e-07
0.000188638
-2.29434e-07
0.000188668
-2.74883e-07
0.000188709
-3.07968e-07
0.000188755
-3.32953e-07
0.000188803
-3.52445e-07
0.000188853
-3.681e-07
0.000188902
-3.81072e-07
0.000188949
-3.92188e-07
0.000188995
-4.02048e-07
0.000189039
-4.11097e-07
0.00018908
-4.19664e-07
0.000189118
-4.28004e-07
0.000189153
-4.3631e-07
0.000189185