/*--------------------------------*- C++ -*----------------------------------*\
| =========                 |                                                 |
| \\      /  F ield         | OpenFOAM: The Open Source CFD Toolbox           |
|  \\    /   O peration     | Version:  2.1.1                                 |
|   \\  /    A nd           | Web:      www.OpenFOAM.org                      |
|    \\/     M anipulation  |                                                 |
\*---------------------------------------------------------------------------*/
FoamFile
{
    version     2.0;
    format      ascii;
    class       volVectorField;
    location    "0.045";
    object      U;
}
// * * * * * * * * * * * * * * * * * * * * * * * * * * * * * * * * * * * * * //

dimensions      [0 1 -1 0 0 0 0];

internalField   nonuniform List<vector> 
6820
(
(8.34337 -0.360075 0)
(8.40109 -0.247151 0)
(8.35607 -0.115292 0)
(8.24775 -0.0365581 0)
(8.11929 0.00600482 0)
(7.98585 0.0278633 0)
(7.85373 0.0386292 0)
(7.72633 0.0433251 0)
(7.60506 0.0445933 0)
(7.49045 0.0438916 0)
(7.38272 0.0420629 0)
(7.28191 0.0396132 0)
(7.18786 0.0368554 0)
(7.10034 0.0339871 0)
(7.01906 0.0311346 0)
(6.94366 0.0283786 0)
(6.87373 0.0257704 0)
(6.80889 0.0233419 0)
(6.74869 0.0211128 0)
(6.69272 0.0190955 0)
(6.64051 0.017299 0)
(6.59163 0.0157321 0)
(6.54559 0.0144062 0)
(6.50191 0.0133385 0)
(6.46005 0.0125562 0)
(6.41939 0.0121031 0)
(6.37925 0.0120459 0)
(6.3387 0.0125057 0)
(6.29666 0.0136517 0)
(6.25148 0.0158943 0)
(6.2004 0.0200014 0)
(6.14059 0.0264756 0)
(6.05849 0.0482345 0)
(8.32138 0.166253 0)
(8.28708 0.190009 0)
(8.28542 0.132164 0)
(8.31737 0.0958683 0)
(8.36164 0.0750315 0)
(8.40165 0.062368 0)
(8.43269 0.0548842 0)
(8.45472 0.050361 0)
(8.46858 0.0474582 0)
(8.47529 0.0454636 0)
(8.47587 0.043984 0)
(8.47127 0.0427836 0)
(8.46232 0.0417262 0)
(8.44972 0.0407379 0)
(8.43412 0.0397824 0)
(8.41606 0.0388461 0)
(8.39599 0.0379293 0)
(8.37434 0.0370409 0)
(8.35142 0.0361959 0)
(8.32752 0.0354135 0)
(8.30286 0.0347174 0)
(8.27762 0.0341366 0)
(8.25193 0.0337074 0)
(8.22587 0.0334758 0)
(8.19951 0.0335038 0)
(8.17284 0.0338755 0)
(8.14585 0.0347121 0)
(8.11841 0.0361974 0)
(8.0906 0.0385952 0)
(8.06178 0.0424681 0)
(8.03388 0.0483096 0)
(8.00223 0.058774 0)
(7.98827 0.0737115 0)
(8.3225 -0.0608819 0)
(8.31397 -0.0832709 0)
(8.33048 -0.0540808 0)
(8.34428 -0.0202785 0)
(8.35313 0.00243729 0)
(8.36212 0.0165692 0)
(8.37181 0.0258148 0)
(8.38178 0.03204 0)
(8.39157 0.03627 0)
(8.40076 0.0391515 0)
(8.40911 0.0410811 0)
(8.41648 0.0423057 0)
(8.42282 0.0430025 0)
(8.42809 0.0433066 0)
(8.4323 0.0433226 0)
(8.43549 0.0431333 0)
(8.43769 0.042806 0)
(8.43895 0.0423973 0)
(8.43931 0.0419565 0)
(8.43882 0.0415289 0)
(8.43751 0.0411585 0)
(8.4354 0.0408907 0)
(8.43251 0.0407763 0)
(8.42884 0.0408753 0)
(8.42437 0.0412632 0)
(8.41907 0.0420369 0)
(8.41287 0.0433352 0)
(8.40569 0.0453298 0)
(8.3975 0.0483418 0)
(8.38807 0.0525766 0)
(8.37788 0.0591494 0)
(8.36613 0.0667304 0)
(8.35581 0.0811076 0)
(8.33365 0.0145697 0)
(8.32976 0.0477174 0)
(8.32735 0.0540001 0)
(8.32866 0.0465905 0)
(8.33452 0.0410992 0)
(8.34202 0.0386039 0)
(8.34947 0.0378032 0)
(8.35665 0.0377706 0)
(8.36358 0.0380064 0)
(8.37022 0.0382925 0)
(8.37656 0.0385329 0)
(8.38255 0.0386897 0)
(8.38817 0.0387575 0)
(8.39341 0.0387446 0)
(8.39823 0.0386658 0)
(8.40264 0.03854 0)
(8.40662 0.0383893 0)
(8.41017 0.0382386 0)
(8.41328 0.0381152 0)
(8.41594 0.0380502 0)
(8.41815 0.0380791 0)
(8.41989 0.038244 0)
(8.42113 0.0385961 0)
(8.42187 0.0391996 0)
(8.42205 0.0401376 0)
(8.42163 0.0415176 0)
(8.42058 0.0434872 0)
(8.41881 0.0462357 0)
(8.41635 0.050048 0)
(8.41309 0.0552242 0)
(8.40943 0.062362 0)
(8.40506 0.0715525 0)
(8.40161 0.0843281 0)
(8.3302 -0.00530311 0)
(8.32721 -0.00748851 0)
(8.33135 -0.00241719 0)
(8.336 0.00808108 0)
(8.34005 0.0172647 0)
(8.34419 0.0234915 0)
(8.34856 0.0276876 0)
(8.35317 0.0306663 0)
(8.35793 0.032831 0)
(8.36273 0.0344163 0)
(8.36748 0.0355704 0)
(8.37212 0.0363918 0)
(8.37661 0.0369517 0)
(8.38092 0.0373076 0)
(8.38503 0.0375095 0)
(8.38892 0.0376021 0)
(8.39257 0.0376272 0)
(8.39596 0.0376244 0)
(8.39909 0.0376332 0)
(8.40194 0.0376944 0)
(8.4045 0.037852 0)
(8.40673 0.0381558 0)
(8.40862 0.0386641 0)
(8.41015 0.0394478 0)
(8.41128 0.0405956 0)
(8.41197 0.0422193 0)
(8.41221 0.0444663 0)
(8.41196 0.047517 0)
(8.41126 0.0516309 0)
(8.41011 0.0570533 0)
(8.40877 0.0642711 0)
(8.40729 0.0732994 0)
(8.40645 0.0851865 0)
(8.33238 0.00229731 0)
(8.33117 0.0133359 0)
(8.33277 0.0204366 0)
(8.33545 0.0238426 0)
(8.33887 0.0260094 0)
(8.34289 0.0278308 0)
(8.34708 0.0295231 0)
(8.35128 0.0310369 0)
(8.35547 0.0322943 0)
(8.35963 0.0332872 0)
(8.36372 0.0340414 0)
(8.36772 0.0345894 0)
(8.37162 0.0349655 0)
(8.3754 0.0352055 0)
(8.37904 0.0353448 0)
(8.38252 0.0354177 0)
(8.38584 0.0354581 0)
(8.38898 0.0355005 0)
(8.39193 0.0355807 0)
(8.39467 0.0357375 0)
(8.39719 0.0360142 0)
(8.39948 0.0364608 0)
(8.40152 0.0371367 0)
(8.40329 0.038114 0)
(8.40476 0.039482 0)
(8.40593 0.0413514 0)
(8.4068 0.043863 0)
(8.40736 0.0471862 0)
(8.40767 0.0515439 0)
(8.40781 0.0571601 0)
(8.408 0.0643753 0)
(8.4084 0.0733215 0)
(8.4095 0.08451 0)
(8.33232 0.000887515 0)
(8.33151 0.00582393 0)
(8.33338 0.010819 0)
(8.3364 0.0156349 0)
(8.33978 0.0200355 0)
(8.3434 0.0235621 0)
(8.34711 0.0262633 0)
(8.35084 0.0283363 0)
(8.35459 0.0299206 0)
(8.35832 0.0311216 0)
(8.36201 0.0320208 0)
(8.36563 0.0326792 0)
(8.36917 0.0331461 0)
(8.37261 0.0334655 0)
(8.37595 0.0336771 0)
(8.37916 0.0338186 0)
(8.38224 0.0339264 0)
(8.38519 0.0340373 0)
(8.38798 0.0341895 0)
(8.39062 0.034424 0)
(8.39309 0.034786 0)
(8.39539 0.0353276 0)
(8.3975 0.0361095 0)
(8.39941 0.0372041 0)
(8.40112 0.0386994 0)
(8.40264 0.0407011 0)
(8.40398 0.0433396 0)
(8.40517 0.0467665 0)
(8.40629 0.0511693 0)
(8.40745 0.0567361 0)
(8.40886 0.0637136 0)
(8.41074 0.0722378 0)
(8.41343 0.0825773 0)
(8.33272 0.00172486 0)
(8.33254 0.00733131 0)
(8.33414 0.0126469 0)
(8.33671 0.0169314 0)
(8.33972 0.0204007 0)
(8.34307 0.0231444 0)
(8.34659 0.0253283 0)
(8.35016 0.0270885 0)
(8.35373 0.0284876 0)
(8.35728 0.029576 0)
(8.36077 0.0304042 0)
(8.3642 0.0310182 0)
(8.36755 0.0314594 0)
(8.37081 0.0317672 0)
(8.37397 0.031979 0)
(8.37703 0.0321309 0)
(8.37998 0.0322585 0)
(8.38282 0.0323982 0)
(8.38554 0.0325878 0)
(8.38813 0.0328683 0)
(8.3906 0.0332851 0)
(8.39293 0.0338896 0)
(8.39514 0.0347416 0)
(8.39721 0.0359113 0)
(8.39916 0.0374816 0)
(8.40101 0.0395506 0)
(8.40279 0.0422342 0)
(8.40456 0.0456639 0)
(8.40641 0.0499925 0)
(8.40847 0.0553719 0)
(8.41094 0.0619763 0)
(8.41405 0.0699202 0)
(8.41809 0.0793329 0)
(8.33284 0.00180637 0)
(8.33292 0.0065099 0)
(8.33441 0.0110503 0)
(8.3368 0.0149641 0)
(8.33964 0.0183535 0)
(8.3428 0.0211721 0)
(8.34614 0.0234493 0)
(8.34953 0.025271 0)
(8.35294 0.0267063 0)
(8.35634 0.0278175 0)
(8.35969 0.0286629 0)
(8.36299 0.0292929 0)
(8.36622 0.0297512 0)
(8.36938 0.0300782 0)
(8.37245 0.0303116 0)
(8.37542 0.0304876 0)
(8.37831 0.030642 0)
(8.38111 0.0308111 0)
(8.3838 0.0310329 0)
(8.3864 0.0313481 0)
(8.38891 0.0318014 0)
(8.39133 0.0324433 0)
(8.39366 0.0333311 0)
(8.39592 0.0345309 0)
(8.39813 0.0361193 0)
(8.40032 0.0381838 0)
(8.40254 0.0408244 0)
(8.40486 0.044151 0)
(8.40739 0.0482835 0)
(8.41026 0.0533382 0)
(8.41365 0.0594327 0)
(8.41782 0.0666463 0)
(8.42298 0.0750245 0)
(8.33294 0.00185008 0)
(8.33322 0.00619186 0)
(8.33461 0.010431 0)
(8.3368 0.0141222 0)
(8.33943 0.0172835 0)
(8.34238 0.0199061 0)
(8.34553 0.0220329 0)
(8.34877 0.0237464 0)
(8.35205 0.0251103 0)
(8.35533 0.0261771 0)
(8.35858 0.026996 0)
(8.3618 0.0276117 0)
(8.36495 0.0280643 0)
(8.36804 0.0283918 0)
(8.37106 0.0286303 0)
(8.374 0.028815 0)
(8.37687 0.0289806 0)
(8.37966 0.0291628 0)
(8.38237 0.0293986 0)
(8.38502 0.0297276 0)
(8.38761 0.030193 0)
(8.39014 0.0308427 0)
(8.39263 0.0317302 0)
(8.3951 0.0329162 0)
(8.39759 0.0344688 0)
(8.40013 0.0364636 0)
(8.40279 0.0389841 0)
(8.40563 0.0421179 0)
(8.40878 0.0459554 0)
(8.41238 0.0505794 0)
(8.41658 0.0560626 0)
(8.42163 0.0624482 0)
(8.4277 0.0697286 0)
(8.33299 0.00181515 0)
(8.33337 0.0057696 0)
(8.33467 0.00961022 0)
(8.33669 0.0130039 0)
(8.33914 0.015944 0)
(8.34191 0.018425 0)
(8.34489 0.020467 0)
(8.34798 0.0221253 0)
(8.35113 0.0234519 0)
(8.3543 0.0244935 0)
(8.35746 0.0252959 0)
(8.36059 0.0259016 0)
(8.36368 0.0263494 0)
(8.36672 0.026676 0)
(8.36971 0.0269162 0)
(8.37263 0.027104 0)
(8.3755 0.0272733 0)
(8.37831 0.0274583 0)
(8.38107 0.0276948 0)
(8.38378 0.0280205 0)
(8.38647 0.0284761 0)
(8.38913 0.0291062 0)
(8.3918 0.0299595 0)
(8.3945 0.0310897 0)
(8.39727 0.0325557 0)
(8.40015 0.0344207 0)
(8.40322 0.0367511 0)
(8.40656 0.0396136 0)
(8.41028 0.0430719 0)
(8.4145 0.0471792 0)
(8.4194 0.0519727 0)
(8.42516 0.0574636 0)
(8.43195 0.06361 0)
(8.33301 0.00173881 0)
(8.33346 0.00536949 0)
(8.33468 0.00888249 0)
(8.33654 0.0120242 0)
(8.33883 0.0147614 0)
(8.34143 0.0170864 0)
(8.34424 0.0190127 0)
(8.34719 0.0205839 0)
(8.35021 0.0218459 0)
(8.35327 0.0228408 0)
(8.35633 0.0236099 0)
(8.35939 0.0241918 0)
(8.36242 0.0246228 0)
(8.36541 0.024937 0)
(8.36836 0.0251675 0)
(8.37128 0.0253467 0)
(8.37415 0.0255065 0)
(8.37699 0.0256795 0)
(8.3798 0.0258995 0)
(8.3826 0.0262016 0)
(8.38539 0.0266233 0)
(8.38819 0.0272048 0)
(8.39104 0.0279893 0)
(8.39396 0.029023 0)
(8.397 0.0303546 0)
(8.40021 0.0320347 0)
(8.40366 0.0341137 0)
(8.40744 0.0366389 0)
(8.41165 0.0396507 0)
(8.41641 0.0431771 0)
(8.42187 0.0472275 0)
(8.4282 0.0517876 0)
(8.43552 0.0567944 0)
(8.33303 0.00163806 0)
(8.33349 0.00496902 0)
(8.33464 0.00817226 0)
(8.33637 0.01106 0)
(8.33851 0.0135902 0)
(8.34095 0.0157551 0)
(8.34361 0.0175629 0)
(8.34641 0.0190455 0)
(8.34931 0.0202408 0)
(8.35226 0.0211854 0)
(8.35523 0.021916 0)
(8.35821 0.0224678 0)
(8.36117 0.0228744 0)
(8.36412 0.0231679 0)
(8.36705 0.0233793 0)
(8.36995 0.0235389 0)
(8.37283 0.0236768 0)
(8.3757 0.0238235 0)
(8.37856 0.02401 0)
(8.38143 0.0242685 0)
(8.38432 0.0246326 0)
(8.38726 0.0251377 0)
(8.39028 0.0258206 0)
(8.39341 0.0267197 0)
(8.3967 0.0278737 0)
(8.4002 0.0293208 0)
(8.40399 0.0310966 0)
(8.40814 0.033231 0)
(8.41276 0.0357449 0)
(8.41795 0.0386457 0)
(8.42384 0.0419219 0)
(8.43058 0.0455399 0)
(8.43827 0.049425 0)
(8.33304 0.00152449 0)
(8.3335 0.00457572 0)
(8.33459 0.00749428 0)
(8.3362 0.0101412 0)
(8.33819 0.012472 0)
(8.34048 0.0144765 0)
(8.343 0.0161591 0)
(8.34567 0.0175438 0)
(8.34845 0.0186619 0)
(8.35129 0.0195455 0)
(8.35417 0.020227 0)
(8.35706 0.0207385 0)
(8.35997 0.0211106 0)
(8.36287 0.0213728 0)
(8.36576 0.0215539 0)
(8.36865 0.0216818 0)
(8.37154 0.0217843 0)
(8.37443 0.0218892 0)
(8.37734 0.0220246 0)
(8.38027 0.0222192 0)
(8.38326 0.0225023 0)
(8.38632 0.022904 0)
(8.38949 0.0234547 0)
(8.39281 0.0241846 0)
(8.39631 0.0251228 0)
(8.40006 0.0262962 0)
(8.40413 0.0277268 0)
(8.40859 0.0294297 0)
(8.41352 0.0314099 0)
(8.41904 0.0336586 0)
(8.42524 0.0361489 0)
(8.43224 0.0388345 0)
(8.44013 0.0416354 0)
(8.33304 0.00140508 0)
(8.33349 0.0041903 0)
(8.33452 0.00684181 0)
(8.33602 0.00925564 0)
(8.33789 0.0113894 0)
(8.34005 0.0132315 0)
(8.34243 0.0147839 0)
(8.34497 0.0160644 0)
(8.34763 0.0170984 0)
(8.35037 0.0179136 0)
(8.35315 0.0185384 0)
(8.35598 0.0190012 0)
(8.35882 0.0193299 0)
(8.36167 0.0195512 0)
(8.36453 0.0196913 0)
(8.3674 0.0197758 0)
(8.37028 0.0198298 0)
(8.37319 0.0198781 0)
(8.37614 0.0199456 0)
(8.37913 0.0200571 0)
(8.3822 0.0202374 0)
(8.38536 0.0205111 0)
(8.38866 0.0209021 0)
(8.39212 0.0214329 0)
(8.39581 0.0221235 0)
(8.39976 0.0229904 0)
(8.40404 0.0240442 0)
(8.40873 0.0252877 0)
(8.41389 0.026713 0)
(8.41962 0.0282995 0)
(8.42601 0.0300097 0)
(8.43314 0.0317896 0)
(8.44108 0.0335589 0)
(8.33304 0.00128397 0)
(8.33348 0.00381416 0)
(8.33444 0.00621351 0)
(8.33585 0.00840271 0)
(8.3376 0.0103435 0)
(8.33964 0.0120231 0)
(8.3419 0.0134416 0)
(8.34432 0.014612 0)
(8.34687 0.015555 0)
(8.3495 0.016294 0)
(8.3522 0.0168536 0)
(8.35494 0.017259 0)
(8.35772 0.017535 0)
(8.36052 0.0177056 0)
(8.36335 0.0177942 0)
(8.36619 0.0178237 0)
(8.36907 0.0178163 0)
(8.37199 0.0177937 0)
(8.37496 0.0177773 0)
(8.37799 0.017788 0)
(8.38112 0.0178457 0)
(8.38437 0.0179697 0)
(8.38776 0.0181776 0)
(8.39135 0.0184845 0)
(8.39516 0.0189025 0)
(8.39926 0.0194389 0)
(8.40369 0.0200945 0)
(8.40853 0.0208624 0)
(8.41384 0.0217253 0)
(8.41968 0.0226538 0)
(8.42613 0.0236044 0)
(8.43328 0.024519 0)
(8.44114 0.0253207 0)
(8.33304 0.00116355 0)
(8.33346 0.00344788 0)
(8.33437 0.00560705 0)
(8.33569 0.00757893 0)
(8.33733 0.00932986 0)
(8.33926 0.0108467 0)
(8.3414 0.0121281 0)
(8.34371 0.0131835 0)
(8.34615 0.0140292 0)
(8.34869 0.014685 0)
(8.3513 0.0151719 0)
(8.35397 0.0155119 0)
(8.35668 0.0157266 0)
(8.35943 0.0158373 0)
(8.36221 0.0158645 0)
(8.36503 0.0158281 0)
(8.3679 0.0157474 0)
(8.37081 0.015641 0)
(8.37379 0.0155264 0)
(8.37686 0.0154204 0)
(8.38003 0.0153385 0)
(8.38333 0.0152946 0)
(8.38679 0.0153005 0)
(8.39046 0.0153647 0)
(8.39436 0.015492 0)
(8.39855 0.0156822 0)
(8.40307 0.0159284 0)
(8.40798 0.016216 0)
(8.41334 0.016521 0)
(8.4192 0.0168086 0)
(8.42562 0.017032 0)
(8.43267 0.0171328 0)
(8.44035 0.0170391 0)
(8.33304 0.00104511 0)
(8.33343 0.00309167 0)
(8.33429 0.0050206 0)
(8.33553 0.00678181 0)
(8.33709 0.00834613 0)
(8.33891 0.00970049 0)
(8.34094 0.0108424 0)
(8.34315 0.0117783 0)
(8.34549 0.0125213 0)
(8.34793 0.0130874 0)
(8.35046 0.0134947 0)
(8.35305 0.0137617 0)
(8.3557 0.013907 0)
(8.35839 0.0139491 0)
(8.36113 0.0139056 0)
(8.36391 0.0137935 0)
(8.36675 0.0136288 0)
(8.36966 0.0134268 0)
(8.37264 0.0132015 0)
(8.37571 0.0129656 0)
(8.3789 0.0127302 0)
(8.38223 0.0125042 0)
(8.38573 0.012294 0)
(8.38944 0.0121026 0)
(8.39338 0.0119285 0)
(8.3976 0.0117652 0)
(8.40215 0.0116001 0)
(8.40707 0.0114129 0)
(8.4124 0.0111753 0)
(8.41819 0.0108497 0)
(8.42449 0.0103884 0)
(8.43134 0.00973467 0)
(8.43874 0.00882356 0)
(8.33304 0.000929288 0)
(8.33341 0.00274541 0)
(8.33422 0.00445245 0)
(8.33539 0.0060089 0)
(8.33686 0.00738955 0)
(8.33858 0.00858176 0)
(8.34052 0.00958211 0)
(8.34263 0.010395 0)
(8.34487 0.0110303 0)
(8.34723 0.011501 0)
(8.34967 0.0118222 0)
(8.35219 0.0120092 0)
(8.35476 0.0120779 0)
(8.3574 0.0120436 0)
(8.36009 0.0119211 0)
(8.36283 0.0117244 0)
(8.36564 0.0114664 0)
(8.36852 0.0111591 0)
(8.37148 0.0108128 0)
(8.37455 0.0104366 0)
(8.37773 0.0100372 0)
(8.38107 0.00961926 0)
(8.38457 0.00918427 0)
(8.38827 0.00873025 0)
(8.39221 0.00825092 0)
(8.39642 0.00773497 0)
(8.40093 0.00716524 0)
(8.40578 0.00651801 0)
(8.41101 0.00576235 0)
(8.41666 0.00485984 0)
(8.42275 0.00376403 0)
(8.42932 0.00242139 0)
(8.43636 0.000774401 0)
(8.33303 0.000816323 0)
(8.33339 0.00240873 0)
(8.33415 0.00390102 0)
(8.33526 0.00525798 0)
(8.33665 0.00645777 0)
(8.33828 0.00748841 0)
(8.34013 0.0083458 0)
(8.34214 0.00903254 0)
(8.3443 0.00955599 0)
(8.34657 0.00992646 0)
(8.34893 0.0101559 0)
(8.35137 0.010257 0)
(8.35388 0.0102426 0)
(8.35645 0.0101253 0)
(8.35909 0.00991677 0)
(8.36178 0.00962818 0)
(8.36455 0.00926941 0)
(8.36739 0.0088491 0)
(8.37032 0.00837433 0)
(8.37335 0.00785039 0)
(8.37651 0.0072804 0)
(8.37982 0.00666493 0)
(8.38329 0.00600149 0)
(8.38695 0.00528407 0)
(8.39084 0.00450244 0)
(8.39498 0.00364178 0)
(8.39939 0.002682 0)
(8.40412 0.00159734 0)
(8.40919 0.000355995 0)
(8.41462 -0.00107982 0)
(8.42044 -0.00275409 0)
(8.42666 -0.00471606 0)
(8.43327 -0.0070156 0)
(8.33303 0.000706236 0)
(8.33337 0.00208112 0)
(8.33409 0.00336485 0)
(8.33514 0.00452697 0)
(8.33646 0.00554845 0)
(8.33801 0.00641806 0)
(8.33977 0.00713126 0)
(8.3417 0.0076892 0)
(8.34377 0.00809711 0)
(8.34595 0.00836279 0)
(8.34823 0.00849561 0)
(8.3506 0.0085055 0)
(8.35304 0.00840253 0)
(8.35554 0.00819639 0)
(8.35812 0.00789616 0)
(8.36076 0.00750996 0)
(8.36347 0.00704479 0)
(8.36626 0.00650618 0)
(8.36914 0.00589805 0)
(8.37212 0.00522244 0)
(8.37523 0.00447909 0)
(8.37848 0.00366518 0)
(8.38188 0.00277488 0)
(8.38547 0.00179895 0)
(8.38926 0.000724384 0)
(8.39328 -0.000466127 0)
(8.39756 -0.00179439 0)
(8.4021 -0.00328691 0)
(8.40695 -0.00497511 0)
(8.4121 -0.00689502 0)
(8.41758 -0.00908723 0)
(8.4234 -0.0115962 0)
(8.42953 -0.0144643 0)
(8.33303 0.000598933 0)
(8.33335 0.00176203 0)
(8.33404 0.00284267 0)
(8.33503 0.00381419 0)
(8.33628 0.00465997 0)
(8.33776 0.00536955 0)
(8.33944 0.00593814 0)
(8.34128 0.00636573 0)
(8.34327 0.00665568 0)
(8.34537 0.00681357 0)
(8.34758 0.00684634 0)
(8.34987 0.0067613 0)
(8.35223 0.00656586 0)
(8.35467 0.00626703 0)
(8.35717 0.00587118 0)
(8.35975 0.00538368 0)
(8.36239 0.0048088 0)
(8.36512 0.00414918 0)
(8.36793 0.00340586 0)
(8.37085 0.00257798 0)
(8.37388 0.00166241 0)
(8.37704 0.000653494 0)
(8.38035 -0.000457236 0)
(8.38382 -0.00168141 0)
(8.38748 -0.003034 0)
(8.39134 -0.00453373 0)
(8.39542 -0.00620306 0)
(8.39974 -0.00806832 0)
(8.40431 -0.0101596 0)
(8.40913 -0.0125103 0)
(8.41423 -0.0151573 0)
(8.41959 -0.0181399 0)
(8.42521 -0.0214932 0)
(8.33303 0.000494254 0)
(8.33333 0.00145077 0)
(8.33398 0.00233303 0)
(8.33493 0.00311734 0)
(8.33611 0.00378909 0)
(8.33753 0.00433866 0)
(8.33913 0.00476127 0)
(8.3409 0.0050561 0)
(8.34281 0.00522495 0)
(8.34484 0.00527144 0)
(8.34696 0.00520053 0)
(8.34918 0.00501698 0)
(8.35147 0.0047257 0)
(8.35383 0.00433118 0)
(8.35626 0.00383727 0)
(8.35876 0.0032466 0)
(8.36132 0.00256112 0)
(8.36397 0.00178063 0)
(8.3667 0.000903625 0)
(8.36952 -7.32819e-05 0)
(8.37245 -0.00115563 0)
(8.3755 -0.00235134 0)
(8.37868 -0.00367087 0)
(8.38201 -0.00512749 0)
(8.3855 -0.00673746 0)
(8.38916 -0.00852001 0)
(8.393 -0.0104975 0)
(8.39705 -0.0126951 0)
(8.4013 -0.0151411 0)
(8.40576 -0.017866 0)
(8.41042 -0.0209022 0)
(8.4153 -0.0242841 0)
(8.42037 -0.0280402 0)
(8.33303 0.000392049 0)
(8.33332 0.00114701 0)
(8.33393 0.00183567 0)
(8.33483 0.00243697 0)
(8.33596 0.00293833 0)
(8.33731 0.0033308 0)
(8.33885 0.00360948 0)
(8.34054 0.00377283 0)
(8.34238 0.00382131 0)
(8.34433 0.0037566 0)
(8.34638 0.00358204 0)
(8.34852 0.0032995 0)
(8.35073 0.00291195 0)
(8.35301 0.00242126 0)
(8.35536 0.00182905 0)
(8.35778 0.00113598 0)
(8.36026 0.000340738 0)
(8.36281 -0.000558422 0)
(8.36544 -0.00156525 0)
(8.36815 -0.00268531 0)
(8.37096 -0.00392611 0)
(8.37387 -0.00529724 0)
(8.37689 -0.00681058 0)
(8.38004 -0.0084804 0)
(8.38332 -0.0103234 0)
(8.38675 -0.0123588 0)
(8.39033 -0.0146082 0)
(8.39406 -0.0170952 0)
(8.39796 -0.0198456 0)
(8.40201 -0.0228867 0)
(8.40623 -0.0262467 0)
(8.41059 -0.029955 0)
(8.41509 -0.0340344 0)
(8.33303 0.000292082 0)
(8.3333 0.000849427 0)
(8.33389 0.00134683 0)
(8.33474 0.00176508 0)
(8.33582 0.00209322 0)
(8.33711 0.00232397 0)
(8.33859 0.00245366 0)
(8.34022 0.00248043 0)
(8.34198 0.00240344 0)
(8.34386 0.00222227 0)
(8.34583 0.00194121 0)
(8.34789 0.00155799 0)
(8.35002 0.00107303 0)
(8.35222 0.00048701 0)
(8.35449 -0.000201171 0)
(8.35681 -0.000993305 0)
(8.35919 -0.0018928 0)
(8.36164 -0.00290343 0)
(8.36415 -0.00403089 0)
(8.36673 -0.00528251 0)
(8.3694 -0.00666731 0)
(8.37215 -0.00819614 0)
(8.37499 -0.00988177 0)
(8.37793 -0.011739 0)
(8.38098 -0.0137844 0)
(8.38414 -0.0160367 0)
(8.38742 -0.0185161 0)
(8.39081 -0.0212445 0)
(8.39433 -0.0242449 0)
(8.39795 -0.0275413 0)
(8.40169 -0.0311578 0)
(8.40553 -0.0351193 0)
(8.40945 -0.039443 0)
(8.33302 0.000194573 0)
(8.33328 0.000560613 0)
(8.33384 0.000875089 0)
(8.33465 0.00112101 0)
(8.33569 0.00128991 0)
(8.33692 0.00137194 0)
(8.33834 0.00136311 0)
(8.3399 0.00126253 0)
(8.3416 0.00106877 0)
(8.34341 0.000781435 0)
(8.34531 0.00039504 0)
(8.34729 -8.73296e-05 0)
(8.34935 -0.000667464 0)
(8.35146 -0.00134726 0)
(8.35363 -0.0021298 0)
(8.35585 -0.00301893 0)
(8.35813 -0.00401887 0)
(8.36045 -0.00513578 0)
(8.36284 -0.0063768 0)
(8.36528 -0.00775043 0)
(8.36778 -0.00926673 0)
(8.37035 -0.0109373 0)
(8.37299 -0.0127753 0)
(8.3757 -0.0147955 0)
(8.37849 -0.0170141 0)
(8.38136 -0.0194486 0)
(8.38432 -0.0221179 0)
(8.38735 -0.0250417 0)
(8.39046 -0.0282403 0)
(8.39364 -0.0317343 0)
(8.39688 -0.0355442 0)
(8.40018 -0.0396903 0)
(8.40352 -0.0441855 0)
(8.33302 9.81396e-05 0)
(8.33327 0.000270155 0)
(8.33381 0.000390058 0)
(8.33459 0.00044299 0)
(8.33558 0.0004224 0)
(8.33676 0.000330132 0)
(8.33812 0.000163629 0)
(8.33963 -8.06376e-05 0)
(8.34126 -0.000404017 0)
(8.343 -0.000807722 0)
(8.34483 -0.00129917 0)
(8.34673 -0.00187743 0)
(8.3487 -0.00254623 0)
(8.35072 -0.00331073 0)
(8.35279 -0.00417574 0)
(8.35491 -0.00514687 0)
(8.35707 -0.00623061 0)
(8.35926 -0.00743456 0)
(8.3615 -0.00876728 0)
(8.36378 -0.0102384 0)
(8.36611 -0.0118589 0)
(8.36848 -0.0136407 0)
(8.37089 -0.0155971 0)
(8.37336 -0.0177426 0)
(8.37588 -0.0200926 0)
(8.37844 -0.0226634 0)
(8.38105 -0.025472 0)
(8.38371 -0.028536 0)
(8.3864 -0.0318729 0)
(8.38912 -0.0355002 0)
(8.39187 -0.0394348 0)
(8.39462 -0.0436933 0)
(8.39737 -0.0482845 0)
(8.33302 8.1488e-06 0)
(8.33325 1.23724e-05 0)
(8.33374 -1.98492e-05 0)
(8.33448 -0.000105912 0)
(8.33542 -0.000255748 0)
(8.33657 -0.000470525 0)
(8.33788 -0.000754508 0)
(8.33934 -0.001112 0)
(8.34092 -0.00154497 0)
(8.3426 -0.00205635 0)
(8.34437 -0.00264571 0)
(8.3462 -0.00331949 0)
(8.34809 -0.00408182 0)
(8.35002 -0.00493746 0)
(8.352 -0.00589209 0)
(8.354 -0.0069523 0)
(8.35604 -0.00812555 0)
(8.3581 -0.00942016 0)
(8.36018 -0.0108454 0)
(8.36229 -0.0124115 0)
(8.36443 -0.0141296 0)
(8.36659 -0.0160119 0)
(8.36877 -0.0180714 0)
(8.37097 -0.0203218 0)
(8.37319 -0.0227776 0)
(8.37544 -0.0254538 0)
(8.37769 -0.0283656 0)
(8.37996 -0.0315284 0)
(8.38222 -0.0349573 0)
(8.38448 -0.0386667 0)
(8.38673 -0.0426706 0)
(8.38894 -0.0469821 0)
(8.39112 -0.051607 0)
(8.33303 -9.30729e-05 0)
(8.33326 -0.000314513 0)
(8.33376 -0.000596594 0)
(8.33447 -0.000941011 0)
(8.33538 -0.001335 0)
(8.33648 -0.00177293 0)
(8.33773 -0.00225142 0)
(8.33913 -0.0027704 0)
(8.34065 -0.00333459 0)
(8.34226 -0.00395087 0)
(8.34395 -0.00462626 0)
(8.3457 -0.00536962 0)
(8.3475 -0.00618915 0)
(8.34933 -0.00709328 0)
(8.3512 -0.00809069 0)
(8.35309 -0.00919034 0)
(8.35499 -0.0104015 0)
(8.35691 -0.011734 0)
(8.35883 -0.0131981 0)
(8.36076 -0.0148046 0)
(8.3627 -0.016565 0)
(8.36463 -0.0184912 0)
(8.36657 -0.0205957 0)
(8.3685 -0.0228915 0)
(8.37043 -0.0253918 0)
(8.37234 -0.0281101 0)
(8.37424 -0.0310596 0)
(8.37611 -0.0342534 0)
(8.37795 -0.0377043 0)
(8.37975 -0.0414241 0)
(8.3815 -0.0454236 0)
(8.38319 -0.0497131 0)
(8.3848 -0.0542954 0)
(8.33301 -0.000144406 0)
(8.33316 -0.00040957 0)
(8.33357 -0.000695033 0)
(8.33422 -0.00103949 0)
(8.3351 -0.00145657 0)
(8.33618 -0.00194677 0)
(8.33744 -0.00250479 0)
(8.33883 -0.00312543 0)
(8.34033 -0.00380605 0)
(8.34192 -0.00454651 0)
(8.34357 -0.00534882 0)
(8.34527 -0.00621738 0)
(8.34701 -0.00715803 0)
(8.34876 -0.00817774 0)
(8.35053 -0.00928439 0)
(8.3523 -0.0104866 0)
(8.35408 -0.0117939 0)
(8.35584 -0.013216 0)
(8.3576 -0.0147635 0)
(8.35934 -0.0164474 0)
(8.36107 -0.0182791 0)
(8.36278 -0.0202704 0)
(8.36446 -0.0224333 0)
(8.36611 -0.0247801 0)
(8.36772 -0.027323 0)
(8.3693 -0.0300742 0)
(8.37083 -0.0330455 0)
(8.37231 -0.0362483 0)
(8.37373 -0.0396933 0)
(8.37507 -0.0433901 0)
(8.37634 -0.0473475 0)
(8.37751 -0.0515733 0)
(8.37858 -0.0560687 0)
(8.33305 -0.000335108 0)
(8.33334 -0.0010913 0)
(8.33381 -0.00194138 0)
(8.33444 -0.00282224 0)
(8.33525 -0.00367996 0)
(8.33624 -0.00449664 0)
(8.33739 -0.00527649 0)
(8.33868 -0.00603286 0)
(8.34009 -0.0067826 0)
(8.34158 -0.00754322 0)
(8.34314 -0.00833148 0)
(8.34475 -0.00916307 0)
(8.34639 -0.0100524 0)
(8.34805 -0.0110125 0)
(8.34971 -0.0120556 0)
(8.35136 -0.0131934 0)
(8.353 -0.0144369 0)
(8.35462 -0.015797 0)
(8.35622 -0.0172845 0)
(8.35778 -0.0189102 0)
(8.3593 -0.0206849 0)
(8.36079 -0.0226195 0)
(8.36222 -0.0247248 0)
(8.3636 -0.0270116 0)
(8.36492 -0.0294904 0)
(8.36617 -0.0321714 0)
(8.36735 -0.0350646 0)
(8.36845 -0.038179 0)
(8.36945 -0.041523 0)
(8.37036 -0.0451041 0)
(8.37116 -0.0489287 0)
(8.37185 -0.0530021 0)
(8.3724 -0.0573237 0)
(8.33294 -0.000106902 0)
(8.33286 -0.000242342 0)
(8.33309 -0.000455824 0)
(8.33368 -0.000877908 0)
(8.33457 -0.00151256 0)
(8.3357 -0.00230635 0)
(8.33699 -0.00320507 0)
(8.3384 -0.00417102 0)
(8.33989 -0.00518233 0)
(8.34143 -0.00622828 0)
(8.34301 -0.00730595 0)
(8.3446 -0.00841799 0)
(8.3462 -0.00957072 0)
(8.34778 -0.0107728 0)
(8.34935 -0.0120341 0)
(8.35088 -0.0133657 0)
(8.35239 -0.0147789 0)
(8.35385 -0.0162854 0)
(8.35526 -0.0178967 0)
(8.35662 -0.0196246 0)
(8.35792 -0.0214807 0)
(8.35916 -0.0234765 0)
(8.36033 -0.025623 0)
(8.36142 -0.0279312 0)
(8.36243 -0.0304114 0)
(8.36334 -0.0330735 0)
(8.36416 -0.0359265 0)
(8.36487 -0.0389789 0)
(8.36547 -0.042238 0)
(8.36595 -0.0457103 0)
(8.36629 -0.049401 0)
(8.3665 -0.0533146 0)
(8.36655 -0.0574495 0)
(8.33317 -0.000799942 0)
(8.33366 -0.00275032 0)
(8.33406 -0.00476907 0)
(8.33446 -0.00652863 0)
(8.33501 -0.0079565 0)
(8.3358 -0.00910908 0)
(8.3368 -0.0100626 0)
(8.33798 -0.0108831 0)
(8.33929 -0.0116254 0)
(8.3407 -0.0123331 0)
(8.34217 -0.0130407 0)
(8.34367 -0.0137756 0)
(8.34518 -0.014559 0)
(8.34669 -0.0154082 0)
(8.34817 -0.0163373 0)
(8.34962 -0.0173586 0)
(8.35102 -0.0184829 0)
(8.35237 -0.0197201 0)
(8.35365 -0.0210796 0)
(8.35486 -0.0225703 0)
(8.35599 -0.0242009 0)
(8.35703 -0.0259797 0)
(8.35798 -0.027915 0)
(8.35883 -0.0300146 0)
(8.35957 -0.0322859 0)
(8.3602 -0.034736 0)
(8.36071 -0.0373713 0)
(8.36108 -0.0401976 0)
(8.36132 -0.0432198 0)
(8.36141 -0.0464419 0)
(8.36135 -0.0498669 0)
(8.36113 -0.0534973 0)
(8.36074 -0.05733 0)
(8.33264 0.000551057 0)
(8.33176 0.00190629 0)
(8.33176 0.0026914 0)
(8.33257 0.0024864 0)
(8.33381 0.00152108 0)
(8.33523 0.000145381 0)
(8.33673 -0.00141399 0)
(8.33828 -0.00303763 0)
(8.33984 -0.00466306 0)
(8.34139 -0.00625885 0)
(8.34291 -0.00781433 0)
(8.3444 -0.00933207 0)
(8.34585 -0.010822 0)
(8.34725 -0.0122977 0)
(8.3486 -0.0137748 0)
(8.34988 -0.0152692 0)
(8.35109 -0.0167968 0)
(8.35223 -0.018373 0)
(8.35329 -0.0200124 0)
(8.35426 -0.0217288 0)
(8.35514 -0.0235352 0)
(8.35591 -0.0254438 0)
(8.35658 -0.0274659 0)
(8.35713 -0.0296119 0)
(8.35756 -0.0318913 0)
(8.35785 -0.0343129 0)
(8.35801 -0.0368843 0)
(8.35802 -0.0396123 0)
(8.35788 -0.0425025 0)
(8.35758 -0.0455596 0)
(8.35711 -0.0487871 0)
(8.35647 -0.0521877 0)
(8.35564 -0.0557593 0)
(8.33357 -0.00198751 0)
(8.33464 -0.00699197 0)
(8.33435 -0.0118619 0)
(8.33364 -0.0151011 0)
(8.33341 -0.0169722 0)
(8.33378 -0.0180602 0)
(8.33461 -0.0186855 0)
(8.33574 -0.0190445 0)
(8.33706 -0.0192748 0)
(8.33849 -0.019467 0)
(8.34 -0.0196792 0)
(8.34151 -0.0199485 0)
(8.34302 -0.0202986 0)
(8.34449 -0.0207447 0)
(8.3459 -0.0212968 0)
(8.34723 -0.021962 0)
(8.34849 -0.0227454 0)
(8.34964 -0.0236516 0)
(8.3507 -0.0246845 0)
(8.35164 -0.025848 0)
(8.35247 -0.0271459 0)
(8.35317 -0.028582 0)
(8.35374 -0.0301603 0)
(8.35417 -0.0318844 0)
(8.35445 -0.0337579 0)
(8.35458 -0.0357843 0)
(8.35455 -0.0379665 0)
(8.35435 -0.0403071 0)
(8.35398 -0.0428079 0)
(8.35342 -0.0454704 0)
(8.35269 -0.0482951 0)
(8.35176 -0.0512823 0)
(8.35063 -0.0544279 0)
(8.33162 0.00367458 0)
(8.32828 0.0101812 0)
(8.32845 0.0132965 0)
(8.33099 0.0131813 0)
(8.33351 0.0110237 0)
(8.33562 0.00807187 0)
(8.3375 0.00494806 0)
(8.3392 0.00188714 0)
(8.34076 -0.00100203 0)
(8.34221 -0.00367456 0)
(8.34356 -0.0061287 0)
(8.34485 -0.00838426 0)
(8.34606 -0.0104696 0)
(8.34721 -0.012416 0)
(8.3483 -0.0142542 0)
(8.34931 -0.0160135 0)
(8.35025 -0.0177206 0)
(8.35111 -0.0193994 0)
(8.35188 -0.0210717 0)
(8.35255 -0.0227565 0)
(8.35312 -0.0244708 0)
(8.35356 -0.0262298 0)
(8.35389 -0.028047 0)
(8.35407 -0.0299341 0)
(8.35412 -0.0319016 0)
(8.35402 -0.0339586 0)
(8.35375 -0.036113 0)
(8.35332 -0.0383715 0)
(8.35272 -0.0407398 0)
(8.35193 -0.0432224 0)
(8.35096 -0.0458227 0)
(8.3498 -0.0485436 0)
(8.34844 -0.0513839 0)
(8.33429 -0.00645193 0)
(8.3346 -0.0207507 0)
(8.33067 -0.0300397 0)
(8.32661 -0.0341231 0)
(8.32467 -0.0350876 0)
(8.32472 -0.034629 0)
(8.32584 -0.0335623 0)
(8.32747 -0.0322811 0)
(8.32941 -0.0310108 0)
(8.33152 -0.0298722 0)
(8.3337 -0.02892 0)
(8.33587 -0.0281743 0)
(8.33801 -0.0276374 0)
(8.34008 -0.0273029 0)
(8.34205 -0.0271603 0)
(8.34393 -0.0271983 0)
(8.34568 -0.0274058 0)
(8.34731 -0.0277732 0)
(8.3488 -0.0282924 0)
(8.35015 -0.0289567 0)
(8.35134 -0.0297609 0)
(8.35238 -0.030701 0)
(8.35325 -0.0317739 0)
(8.35395 -0.0329774 0)
(8.35446 -0.0343101 0)
(8.3548 -0.0357707 0)
(8.35494 -0.0373582 0)
(8.35488 -0.0390719 0)
(8.35462 -0.0409108 0)
(8.35416 -0.0428739 0)
(8.35348 -0.0449599 0)
(8.35259 -0.0471676 0)
(8.35149 -0.0494923 0)
(8.32884 0.0225876 0)
(8.32235 0.0427447 0)
(8.32667 0.0439612 0)
(8.33327 0.0379839 0)
(8.33771 0.0306234 0)
(8.34046 0.0234317 0)
(8.34266 0.0167283 0)
(8.34473 0.010696 0)
(8.3468 0.00538908 0)
(8.34892 0.000757696 0)
(8.35111 -0.00328 0)
(8.35337 -0.00680804 0)
(8.35568 -0.00990665 0)
(8.35801 -0.0126491 0)
(8.36034 -0.0150998 0)
(8.36263 -0.0173144 0)
(8.36487 -0.0193404 0)
(8.36704 -0.0212186 0)
(8.36911 -0.0229836 0)
(8.37107 -0.0246651 0)
(8.37291 -0.0262883 0)
(8.37461 -0.0278752 0)
(8.37616 -0.0294443 0)
(8.37755 -0.031012 0)
(8.37878 -0.032592 0)
(8.37982 -0.0341965 0)
(8.38069 -0.0358358 0)
(8.38136 -0.0375189 0)
(8.38185 -0.0392535 0)
(8.38214 -0.041046 0)
(8.38224 -0.042902 0)
(8.38213 -0.0448263 0)
(8.38183 -0.046821 0)
(8.32436 -0.0380406 0)
(8.29385 -0.0683582 0)
(8.27211 -0.0717785 0)
(8.26665 -0.0687399 0)
(8.27359 -0.0644766 0)
(8.28625 -0.0597301 0)
(8.30105 -0.0551332 0)
(8.31641 -0.0510562 0)
(8.33151 -0.0475633 0)
(8.34586 -0.0446317 0)
(8.35928 -0.0422196 0)
(8.37171 -0.0402708 0)
(8.38315 -0.0387261 0)
(8.39364 -0.0375314 0)
(8.40325 -0.0366397 0)
(8.41204 -0.0360108 0)
(8.42006 -0.0356114 0)
(8.42739 -0.035414 0)
(8.43408 -0.0353963 0)
(8.44018 -0.0355402 0)
(8.44573 -0.0358315 0)
(8.45078 -0.0362584 0)
(8.45535 -0.036812 0)
(8.45949 -0.0374848 0)
(8.46322 -0.0382712 0)
(8.46656 -0.0391666 0)
(8.46954 -0.0401671 0)
(8.47217 -0.0412698 0)
(8.47448 -0.042472 0)
(8.47646 -0.0437713 0)
(8.47815 -0.045166 0)
(8.47953 -0.0466536 0)
(8.48064 -0.0482313 0)
(8.34002 0.156984 0)
(8.38197 0.148985 0)
(8.40245 0.103338 0)
(8.39928 0.0644421 0)
(8.38315 0.0357466 0)
(8.36023 0.0153042 0)
(8.33336 0.000781396 0)
(8.3045 -0.00967443 0)
(8.27482 -0.0173121 0)