/*--------------------------------*- C++ -*----------------------------------*\
| =========                 |                                                 |
| \\      /  F ield         | OpenFOAM: The Open Source CFD Toolbox           |
|  \\    /   O peration     | Version:  2.1.1                                 |
|   \\  /    A nd           | Web:      www.OpenFOAM.org                      |
|    \\/     M anipulation  |                                                 |
\*---------------------------------------------------------------------------*/
FoamFile
{
    version     2.0;
    format      ascii;
    class       volScalarField;
    location    "0.05";
    object      epsilon;
}
// * * * * * * * * * * * * * * * * * * * * * * * * * * * * * * * * * * * * * //

dimensions      [0 2 -3 0 0 0 0];

internalField   nonuniform List<scalar> 
6820
(
151.448
203.151
260.735
321.76
383.626
443.717
499.749
550.01
593.442
629.605
658.563
680.758
696.862
707.673
714.014
716.681
716.4
713.811
709.458
703.796
697.197
689.956
682.304
674.42
666.435
658.441
650.495
642.646
634.819
627.382
618.445
616.769
579.871
11.7448
21.418
29.9459
38.6289
47.5883
56.5704
65.3384
73.6913
81.4669
88.5572
94.9075
100.512
105.4
109.631
113.276
116.416
119.129
121.49
123.569
125.426
127.116
128.684
130.174
131.622
133.063
134.535
136.074
137.729
139.554
141.663
144.107
147.459
151.244
5.83781
7.51669
9.20633
10.8088
12.3191
13.7464
15.0872
16.3377
17.4964
18.563
19.5394
20.4291
21.2375
21.9711
22.6372
23.2435
23.7978
24.3075
24.7799
25.2216
25.6386
26.0365
26.4205
26.7951
27.1648
27.534
27.9072
28.2897
28.6876
29.1091
29.5705
30.0654
30.7312
5.2423
5.56004
6.0044
6.49337
6.9855
7.46156
7.91246
8.33388
8.72415
9.08308
9.41142
9.71051
9.98201
10.2278
10.4499
10.6503
10.8309
10.9937
11.1404
11.2728
11.3924
11.5006
11.5987
11.6879
11.7691
11.8432
11.9107
11.972
12.0274
12.0765
12.1186
12.1523
12.1753
5.17349
5.18677
5.2682
5.39774
5.55634
5.72963
5.90772
6.08418
6.25498
6.41769
6.57091
6.71395
6.84657
6.96882
7.08098
7.18345
7.27673
7.36137
7.43794
7.50702
7.56921
7.62505
7.67511
7.71989
7.75988
7.79553
7.82725
7.85541
7.88031
7.90219
7.92113
7.93723
7.94978
5.16878
5.12132
5.09603
5.09482
5.11536
5.15308
5.203
5.26077
5.32295
5.38697
5.45096
5.51359
5.57396
5.63143
5.68564
5.73636
5.7835
5.82704
5.86707
5.90369
5.93705
5.96733
5.99473
6.01945
6.04171
6.06173
6.07976
6.09603
6.1108
6.12434
6.13693
6.14885
6.1604
5.16887
5.11169
5.06115
5.01963
4.9884
4.96754
4.95615
4.95279
4.95588
4.96389
4.97548
4.98954
5.00515
5.02161
5.03834
5.05493
5.07106
5.08649
5.10106
5.11467
5.12726
5.1388
5.1493
5.15879
5.16732
5.17497
5.18183
5.188
5.19362
5.19885
5.20387
5.20888
5.2141
5.16902
5.11063
5.05515
5.00339
4.95619
4.91413
4.87745
4.84609
4.8197
4.79779
4.77979
4.7651
4.75319
4.74353
4.73569
4.72928
4.72399
4.71954
4.7157
4.71232
4.70923
4.70633
4.70355
4.70082
4.6981
4.69539
4.69269
4.69002
4.68742
4.68497
4.68276
4.68089
4.67949
5.16904
5.11054
5.05431
5.00049
4.94927
4.90089
4.85557
4.81343
4.77452
4.73878
4.70606
4.67618
4.64891
4.62401
4.60122
4.58031
4.56107
4.54329
4.52678
4.51139
4.49697
4.48341
4.4706
4.45846
4.44692
4.43592
4.42544
4.41545
4.40595
4.39696
4.3885
4.38064
4.37344
5.16904
5.11054
5.05421
5.00002
4.94795
4.89802
4.85026
4.80469
4.76135
4.72023
4.68133
4.64459
4.60993
4.57727
4.54649
4.51749
4.49014
4.46432
4.43992
4.41683
4.39494
4.37417
4.35441
4.33561
4.31769
4.30059
4.28428
4.26871
4.25386
4.23974
4.22634
4.21369
4.20181
5.16904
5.11053
5.05418
4.99994
4.94772
4.89747
4.84912
4.80263
4.75796
4.7151
4.674
4.63463
4.59696
4.56093
4.52648
4.49357
4.46213
4.43209
4.40338
4.37594
4.3497
4.32459
4.30056
4.27754
4.25549
4.23436
4.21411
4.1947
4.17613
4.15836
4.1414
4.12527
4.10996
5.16904
5.11053
5.05417
4.99991
4.94767
4.89735
4.84887
4.80216
4.75716
4.71381
4.67205
4.63182
4.5931
4.55582
4.51994
4.48541
4.45219
4.42024
4.3895
4.35993
4.33147
4.3041
4.27775
4.2524
4.22799
4.20451
4.18191
4.16017
4.13928
4.11921
4.09997
4.08156
4.06398
5.16904
5.11052
5.05416
4.9999
4.94764
4.8973
4.8488
4.80204
4.75696
4.71349
4.67154
4.63108
4.59203
4.55435
4.51798
4.48288
4.449
4.4163
4.38473
4.35425
4.32483
4.29642
4.26899
4.24251
4.21694
4.19226
4.16843
4.14545
4.12329
4.10195
4.08141
4.06169
4.04277
5.16904
5.11052
5.05415
4.99988
4.94762
4.89727
4.84876
4.80199
4.75689
4.71338
4.67139
4.63086
4.59172
4.55393
4.51741
4.48213
4.44804
4.41508
4.38321
4.3524
4.32261
4.29379
4.26592
4.23897
4.2129
4.18769
4.16331
4.13975
4.11699
4.09503
4.07385
4.05345
4.03383
5.16903
5.11051
5.05414
4.99987
4.9476
4.89725
4.84873
4.80195
4.75684
4.71331
4.67131
4.63076
4.5916
4.55377
4.51722
4.48188
4.44772
4.41468
4.38273
4.35181
4.32189
4.29294
4.26492
4.23779
4.21153
4.18612
4.16153
4.13774
4.11473
4.0925
4.07104
4.05034
4.03039
5.16903
5.11051
5.05414
4.99986
4.94759
4.89723
4.8487
4.80191
4.75679
4.71326
4.67125
4.63069
4.59152
4.55368
4.51711
4.48176
4.44758
4.41452
4.38254
4.35159
4.32164
4.29264
4.26457
4.2374
4.21108
4.1856
4.16094
4.13707
4.11398
4.09165
4.07007
4.04924
4.02915
5.16903
5.11051
5.05413
4.99985
4.94757
4.89721
4.84867
4.80188
4.75676
4.71322
4.6712
4.63063
4.59146
4.55361
4.51703
4.48167
4.44748
4.41442
4.38243
4.35147
4.32151
4.2925
4.26442
4.23723
4.2109
4.18541
4.16073
4.13684
4.11372
4.09135
4.06973
4.04885
4.02869
5.16903
5.1105
5.05413
4.99984
4.94756
4.89719
4.84865
4.80186
4.75672
4.71318
4.67115
4.63058
4.5914
4.55354
4.51696
4.4816
4.4474
4.41433
4.38234
4.35138
4.32141
4.2924
4.26432
4.23713
4.2108
4.1853
4.16062
4.13672
4.11359
4.09121
4.06957
4.04866
4.02846
5.16903
5.1105
5.05412
4.99983
4.94755
4.89718
4.84863
4.80183
4.75669
4.71314
4.67111
4.63053
4.59134
4.55348
4.51689
4.48153
4.44733
4.41425
4.38225
4.35129
4.32132
4.29232
4.26423
4.23704
4.21071
4.18521
4.16052
4.13662
4.11349
4.0911
4.06944
4.04851
4.02828
5.16903
5.1105
5.05412
4.99983
4.94754
4.89717
4.84862
4.80181
4.75667
4.71311
4.67107
4.63049
4.59129
4.55343
4.51683
4.48146
4.44726
4.41418
4.38218
4.35121
4.32124
4.29223
4.26414
4.23695
4.21062
4.18512
4.16043
4.13652
4.11338
4.09098
4.0693
4.04834
4.02808
5.16903
5.1105
5.05411
4.99982
4.94753
4.89715
4.8486
4.80179
4.75664
4.71308
4.67104
4.63045
4.59125
4.55338
4.51678
4.4814
4.44719
4.41411
4.3821
4.35113
4.32116
4.29214
4.26405
4.23686
4.21052
4.18501
4.16032
4.1364
4.11325
4.09083
4.06914
4.04815
4.02785
5.16903
5.11049
5.05411
4.99982
4.94752
4.89714
4.84859
4.80177
4.75662
4.71306
4.67101
4.63042
4.59121
4.55333
4.51673
4.48135
4.44713
4.41404
4.38203
4.35106
4.32108
4.29206
4.26396
4.23676
4.21042
4.1849
4.1602
4.13627
4.1131
4.09067
4.06895
4.04793
4.0276
5.16903
5.11049
5.05411
4.99981
4.94752
4.89714
4.84858
4.80176
4.7566
4.71303
4.67098
4.63038
4.59117
4.55329
4.51668
4.48129
4.44708
4.41398
4.38196
4.35098
4.321
4.29197
4.26387
4.23666
4.2103
4.18478
4.16006
4.13612
4.11294
4.09048
4.06874
4.04769
4.02731
5.16903
5.11049
5.05411
4.99981
4.94751
4.89713
4.84857
4.80175
4.75659
4.71301
4.67096
4.63035
4.59114
4.55325
4.51664
4.48124
4.44702
4.41392
4.3819
4.35091
4.32092
4.29188
4.26377
4.23655
4.21019
4.18465
4.15992
4.13596
4.11276
4.09028
4.06851
4.04743
4.02701
5.16903
5.11049
5.0541
4.99981
4.94751
4.89712
4.84856
4.80173
4.75657
4.71299
4.67094
4.63033
4.59111
4.55322
4.5166
4.4812
4.44697
4.41386
4.38183
4.35084
4.32084
4.29179
4.26367
4.23644
4.21007
4.18452
4.15977
4.13579
4.11256
4.09006
4.06826
4.04714
4.02668
5.16903
5.11049
5.0541
4.9998
4.94751
4.89712
4.84855
4.80172
4.75656
4.71298
4.67092
4.63031
4.59108
4.55319
4.51656
4.48116
4.44692
4.41381
4.38177
4.35077
4.32076
4.29171
4.26357
4.23633
4.20994
4.18438
4.15961
4.13561
4.11236
4.08983
4.068
4.04684
4.02635
5.16903
5.11049
5.0541
4.9998
4.9475
4.89711
4.84854
4.80171
4.75655
4.71296
4.6709
4.63028
4.59105
4.55315
4.51652
4.48111
4.44687
4.41375
4.3817
4.35069
4.32068
4.29161
4.26347
4.23621
4.20981
4.18423
4.15944
4.13542
4.11214
4.08959
4.06772
4.04653
4.026
5.16903
5.11049
5.0541
4.9998
4.9475
4.89711
4.84854
4.80171
4.75654
4.71296
4.67089
4.63027
4.59104
4.55313
4.5165
4.48108
4.44684
4.41371
4.38165
4.35063
4.32061
4.29153
4.26338
4.2361
4.20968
4.18408
4.15928
4.13524
4.11193
4.08935
4.06745
4.04623
4.02565
5.16903
5.11049
5.0541
4.9998
4.9475
4.8971
4.84853
4.8017
4.75653
4.71294
4.67087
4.63025
4.59101
4.5531
4.51646
4.48104
4.44678
4.41365
4.38159
4.35056
4.32052
4.29144
4.26327
4.23598
4.20955
4.18393
4.1591
4.13504
4.11171
4.0891
4.06717
4.04591
4.0253
5.16903
5.11049
5.0541
4.9998
4.9475
4.89711
4.84854
4.80171
4.75654
4.71296
4.67088
4.63026
4.59102
4.55311
4.51647
4.48104
4.44678
4.41364
4.38157
4.35053
4.32048
4.29138
4.2632
4.2359
4.20945
4.18381
4.15897
4.13488
4.11153
4.08888
4.06693
4.04564
4.02498
5.16903
5.11049
5.0541
4.9998
4.9475
4.89711
4.84853
4.8017
4.75652
4.71293
4.67086
4.63023
4.59099
4.55307
4.51643
4.481
4.44673
4.41359
4.38151
4.35047
4.32041
4.29131
4.26312
4.23581
4.20934
4.18369
4.15883
4.13473
4.11135
4.08869
4.06671
4.04539
4.02471
5.16903
5.11049
5.0541
4.99981
4.94752
4.89715
4.84859
4.80177
4.75661
4.71303
4.67096
4.63034
4.5911
4.55318
4.51654
4.4811
4.44684
4.41368
4.38161
4.35056
4.3205
4.29139
4.26319
4.23587
4.2094
4.18375
4.15888
4.13477
4.11139
4.08872
4.06673
4.0454
4.02471
5.16903
5.11051
5.05414
4.99985
4.94756
4.89718
4.84861
4.80179
4.75662
4.71304
4.67097
4.63036
4.59113
4.55323
4.5166
4.48119
4.44695
4.41383
4.38178
4.35077
4.32075
4.29168
4.26353
4.23627
4.20985
4.18425
4.15944
4.1354
4.11209
4.08948
4.06757
4.04631
4.02569
5.16903
5.1105
5.05415
4.99992
4.9477
4.89739
4.84891
4.80215
4.75705
4.71354
4.67154
4.631
4.59185
4.55405
4.51753
4.48224
4.44815
4.41519
4.38333
4.35251
4.32272
4.29389
4.266
4.23901
4.21289
4.1876
4.16311
4.1394
4.11644
4.0942
4.07265
4.05177
4.03154
5.16905
5.11063
5.0544
5.00025
4.94809
4.89785
4.84947
4.80288
4.75803
4.71483
4.67324
4.6332
4.59464
4.5575
4.52174
4.48729
4.45411
4.42214
4.39133
4.36164
4.33301
4.3054
4.27878
4.25309
4.22829
4.20436
4.18126
4.15894
4.13739
4.11656
4.09643
4.07697
4.05815
5.16908
5.11079
5.05488
5.00137
4.95018
4.90121
4.85442
4.80974
4.76713
4.72651
4.68783
4.65101
4.61595
4.58259
4.55083
4.52058
4.49176
4.46429
4.43808
4.41306
4.38916
4.36631
4.34444
4.3235
4.30342
4.28416
4.26566
4.24787
4.23077
4.21429
4.19842
4.18311
4.16834
5.16939
5.11358
5.06201
5.01464
4.97149
4.9325
4.89748
4.86617
4.83824
4.81338
4.79125
4.77154
4.75398
4.73829
4.72425
4.71165
4.70028
4.68999
4.68062
4.67204
4.66414
4.65682
4.64997
4.64353
4.63743
4.63159
4.62597
4.62051
4.61518
4.60994
4.60475
4.59958
4.59442
5.17809
5.16328
5.16953
5.19123
5.22442
5.26608
5.31381
5.36572
5.42038
5.47672
5.53388
5.5912
5.64819
5.70446
5.7597
5.8137
5.86629
5.91735
5.96681
6.01462
6.06075
6.10519
6.14795
6.18906
6.22853
6.26642
6.30276
6.3376
6.37101
6.40303
6.43374
6.46319
6.49147
5.63861
6.43044
7.14586
7.82566
8.4948
9.14735
9.77748
10.3829
10.9635
11.5203
12.0547
12.5685
13.0633
13.5405
14.0017
14.4481
14.8808
15.301
15.7097
16.1076
16.4956
16.8745
17.2451
17.6081
17.964
18.3136
18.6575
18.9962
19.3304
19.6605
19.987
20.3105
20.6313
44.7794
48.3124
51.8864
55.4656
59.0311
62.5709
66.0745
69.532
72.9347
76.2748
79.5455
82.7409
85.856
88.8868
91.8301
94.6835
97.4451
100.114
102.689
105.171
107.559
109.855
112.06
114.174
116.2
118.139
119.993
121.764
123.455
125.066
126.602
128.062
129.453
690.593
841.982
998.418
1150.46
1265.37
1301.48
1246.59
1128.02
988.66
860.539
756.639
676.801
616.145
569.893
534.652
508.106
488.967
475.474
465.879
458.399
451.126
441.963
428.574
408.415
378.93
338.05
285.125
222.265
155.556
94.663
49.1457
22.8872
11.9342
8.83832
8.49657
8.89281
9.42654
9.92965
10.3469
10.6553
10.8486
10.9331
10.923
10.8365
10.6922
10.507
10.2952
10.0682
9.83469
9.60148
9.37352
9.15448
8.94711
8.75359
8.57572
8.41509
8.27302
8.15033
8.04701
7.96179
7.89183
7.83273
7.77874
7.72331
7.65963
7.58104
7.48112
7.35348
7.19153
6.98854
6.7383
6.43649
6.08236
5.68043
5.24126
4.78118
4.32049
3.88058
3.48049
3.13386
2.84716
2.6197
2.44518
2.31426
2.21701
2.14467
2.09045
2.04949
2.01846
1.99504
1.9775
1.96453
1.95505
1.9482
1.94333
1.93991
1.93755
1.9359
1.93501
1.93327
159.252
174.463
203.131
254.183
335.006
446.492
576.796
702.022
795.019
838.647
833.583
794.461
739.625
683.198
632.725
590.646
556.298
527.557
502.029
477.399
451.5
422.25
387.687
346.202
297.026
240.942
181.026
122.907
73.6403
38.7933
19.2964
11.0576
8.49751
8.04051
8.24036
8.62925
9.05508
9.45364
9.78826
10.0379
10.1949
10.262
10.2497
10.172
10.0436
9.87854
9.68859
9.48354
9.27109
9.05715
8.84622
8.64167
8.44607
8.26147
8.08965
7.93229
7.79097
7.66704
7.56129
7.47351
7.40209
7.34377
7.29381
7.24628
7.19472
7.13253
7.05322
6.95032
6.81713
6.64679
6.43275
6.17005
5.8569
5.49636
5.09727
4.67417
4.24578
3.83235
3.45249
3.12011
2.84255
2.62034
2.44848
2.31869
2.2218
2.14949
2.09516
2.05401
2.02272
1.99898
1.98108
1.96771
1.95784
1.95062
1.94539
1.94165
1.939
1.9371
1.93601
1.93398
31.4319
32.1414
33.0642
35.3562
42.0402
58.3889
90.1433
140.745
208.748
286.968
364.826
431.853
480.727
508.756
517.669
510.883
491.1
462.807
429.484
392.892
353.442
310.917
265.19
216.821
167.494
120.158
78.6328
46.4856
25.439
14.2808
9.58405
7.99452
7.61235
7.68514
7.94591
8.2838
8.63759
8.96651
9.24267
9.44917
9.57917
9.63434
9.62229
9.55392
9.44108
9.29507
9.12585
8.9417
8.74933
8.55399
8.35972
8.16962
7.98609
7.81105
7.6462
7.49318
7.35369
7.22937
7.12159
7.03101
6.95707
6.89771
6.8492
6.80644
6.76347
6.71393
6.65143
6.56954
6.46163
6.32077
6.14021
5.91436
5.6404
5.31987
4.95982
4.57287
4.17606
3.78845
3.42816
3.10935
2.84028
2.62272
2.45299
2.32391
2.22707
2.15456
2.09997
2.05853
2.02692
2.00281
1.9845
1.97071
1.96041
1.95278
1.94717
1.94308
1.94012
1.93793
1.93661
1.93426
12.1878
12.1492
11.9353
11.3324
10.167
8.76153
8.46345
11.0806
18.4463
32.2807
53.4972
80.8941
111.199
140.405
164.775
182.257
192.648
194.898
188.783
175.073
155.251
131.206
105.064
79.0928
55.5579
36.3931
22.7094
14.3741
10.0871
8.17138
7.39608
7.14761
7.17118
7.34863
7.611
7.91088
8.2128
8.48949
8.72083
8.894
9.00345
9.05012
9.03972
8.98069
8.88249
8.75431
8.60444
8.43992
8.26654
8.08895
7.91082
7.73497
7.56363
7.3986
7.24147
7.0938
6.95726
6.83364
6.72464
6.63156
6.55476
6.49323
6.44431
6.4038
6.36636
6.32606
6.27675
6.21218
6.12589
6.01105
5.86079
5.66901
5.4319
5.14951
4.82705
4.47518
4.10917
3.74681
3.40566
3.10007
2.83917
2.62597
2.45809
2.32948
2.23249
2.15966
2.10471
2.06294
2.03098
2.00649
1.98777
1.97355
1.96281
1.95476
1.94876
1.9443
1.94101
1.93852
1.93695
1.93427
7.95967
7.96417
7.95131
7.88378
7.66474
7.12011
6.11952
4.75703
3.62069
3.5457
4.8011
7.45077
11.5146
16.7328
22.3976
27.6757
31.9637
34.7481
35.6454
34.5187
31.5575
27.2696
22.3807
17.6594
13.7102
10.8146
8.91745
7.76882
7.10921
6.76668
6.64325
6.6747
6.81319
7.02198
7.27158
7.53701
7.79655
8.03161
8.22754
8.37455
8.46816
8.50886
8.50092
8.45086
8.3662
8.25441
8.12235
7.97599
7.82034
7.65951
7.49677
7.33475
7.1755
7.0207
6.87183
6.73033
6.59778
6.47596
6.36675
6.27187
6.19238
6.1282
6.07767
6.03754
6.00319
5.9692
5.92981
5.87906
5.8108
5.71842
5.59506
5.43425
5.23129
4.98481
4.69816
4.38006
4.04394
3.70627
3.38391
3.09135
2.83848
2.62951
2.46336
2.33509
2.23784
2.16459
2.10925
2.06712
2.03481
2.00995
1.99083
1.97619
1.96504
1.95657
1.95018
1.94535
1.94172
1.93893
1.93711
1.93408
6.17362
6.18972
6.20867
6.23061
6.24935
6.23775
6.13093
5.82736
5.26291
4.58124
4.00761
3.7123
3.83264
4.4261
5.48736
6.79644
7.95556
8.82647
9.34925
9.51237
9.35239
8.9486
8.40501
7.82434
7.28608
6.83804
6.50151
6.28019
6.16672
6.14767
6.20753
6.33108
6.5038
6.71133
6.93906
7.17214
7.39603
7.59732
7.76495
7.89128
7.97268
8.0093
8.00427
7.96264
7.89035
7.79345
7.67762
7.5479
7.40861
7.26338
7.11517
6.96637
6.81889
6.6743
6.53398
6.39924
6.27153
6.15254
6.04419
5.94841
5.8668
5.80001
5.74729
5.70629
5.67317
5.64311
5.61078
5.57067
5.517
5.44353
5.34356
5.21041
5.03859
4.82544
4.57256
4.2867
3.97944
3.66583
3.36198
3.08237
2.83754
2.63284
2.46842
2.34046
2.24291
2.16919
2.11343
2.07093
2.03829
2.0131
1.99363
1.9786
1.96705
1.9582
1.95143
1.94625
1.9423
1.9392
1.93713
1.93376
5.22082
5.23022
5.24308
5.26124
5.2863
5.31852
5.35249
5.36961
5.33244
5.20927
5.00381
4.76132
4.56258
4.48482
4.58424
4.81669
5.10011
5.37551
5.60428
5.76577
5.85484
5.87897
5.8544
5.80158
5.741
5.69022
5.66255
5.66679
5.70753
5.78587
5.90025
6.04698
6.22051
6.41355
6.6172
6.82136
7.01537
7.18908
7.33391
7.44381
7.51575
7.54964
7.54774
7.51391
7.45282
7.36935
7.26818
7.15357
7.02926
6.89844
6.76377
6.62745
6.49126
6.35667
6.22496
6.09733
5.9751
5.8598
5.7533
5.65762
5.57467
5.50568
5.45069
5.40814
5.37499
5.34701
5.31941
5.28712
5.24487
5.18689
5.10678
4.99781
4.85392
4.67129
4.44987
4.19449
3.91492
3.62471
3.3391
3.07244
2.83579
2.63551
2.47294
2.34534
2.2475
2.17331
2.11711
2.07427
2.04134
2.01585
1.99607
1.98071
1.96882
1.95962
1.9525
1.947
1.94274
1.93936
1.93706
1.93335
4.67873
4.67942
4.68275
4.68994
4.70215
4.72052
4.74585
4.77744
4.81044
4.83441
4.83762
4.81413
4.77015
4.72374
4.7007
4.71184
4.75483
4.81919
4.89228
4.96334
5.02536
5.07562
5.11527
5.14836
5.18053
5.21794
5.26631
5.33041
5.4137
5.51815
5.64406
5.79003
5.95298
6.12813
6.30906
6.48814
6.65716
6.8082
6.93449
7.0312
7.09574
7.12785
7.12908
7.10235
7.0513
6.97985
6.89185
6.79089
6.68019
6.56257
6.44043
6.31578
6.19028
6.06533
5.94211
5.82173
5.70538
5.59443
5.49063
5.396
5.31259
5.24207
5.18506
5.14077
5.10684
5.07965
5.05493
5.02812
4.99447
4.94877
4.88508
4.7968
4.67751
4.52239
4.32991
4.1031
3.8499
3.58234
3.31469
3.06101
2.83275
2.63714
2.47663
2.34953
2.25145
2.17682
2.1202
2.07703
2.04383
2.01811
1.99807
1.98245
1.97027
1.96077
1.95336
1.94757
1.94304
1.9394
1.93689
1.93287
4.36605
4.35899
4.35397
4.35183
4.3534
4.35948
4.37073
4.38761
4.41008
4.43683
4.46489
4.49035
4.51024
4.5243
4.53613
4.55041
4.57018
4.59652
4.62878
4.66541
4.70476
4.74581
4.78856
4.83404
4.88415
4.94133
5.0082
5.08718
5.1802
5.28841
5.41192
5.54966
5.69922
5.85683
6.01742
6.17494
6.32295
6.45516
6.56622
6.65218
6.71084
6.74175
6.74595
6.72558
6.68344
6.62266
6.54641
6.45771
6.35932
6.25373
6.1431
6.02928
5.91382
5.79803
5.68304
5.56988
5.4596
5.35346
5.25304
5.16026
5.07726
5.00595
4.94745
4.90155
4.86653
4.83934
4.81617
4.79296
4.76549
4.7292
4.6787
4.6077
4.50962
4.3789
4.2127
4.01238
3.7841
3.53835
3.28833
3.04768
2.82807
2.63745
2.47927
2.35287
2.25466
2.17963
2.12261
2.07914
2.04571
2.01979
1.99957
1.98374
1.97133
1.9616
1.95395
1.94792
1.94316
1.9393
1.9366
1.93231
4.18906
4.17574
4.16404
4.15456
4.14793
4.14479
4.14567
4.15101
4.16107
4.17587
4.19496
4.21738
4.24178
4.26687
4.2924
4.31859
4.34596
4.3751
4.4065
4.4405
4.4774
4.5176
4.56172
4.61069
4.66572
4.72825
4.79976
4.88162
4.9749
5.0801
5.19702
5.32454
5.46054
5.60185
5.74437
5.88327
6.01341
6.12982
6.22817
6.30524
6.35908
6.38912
6.39598
6.38119
6.34687
6.29551
6.22968
6.15191
6.0646
5.96992
5.86981
5.76598
5.65987
5.55272
5.4456
5.33948
5.23532
5.13424
5.03766
4.9474
4.86556
4.79421
4.73483
4.68769
4.6516
4.62402
4.60155
4.58054
4.55732
4.52793
4.48767
4.43071
4.35055
4.24109
4.09843
3.92239
3.71746
3.49257
3.25979
3.03219
2.82149
2.63622
2.4807
2.35523
2.25704
2.18167
2.1243
2.08054
2.04692
2.02085
2.00049
1.98452
1.97195
1.96204
1.95421
1.94799
1.94305
1.93901
1.93616
1.93164
4.09323
4.07524
4.05855
4.04361
4.03093
4.02101
4.01434
4.01133
4.0123
4.01743
4.02676
4.04011
4.05711
4.0773
4.10023
4.1256
4.15326
4.1832
4.21556
4.25059
4.28868
4.33033
4.37623
4.42717
4.4841
4.54802
4.6199
4.7006
4.79068
4.89028
4.99897
5.11564
5.23843
5.36469
5.49108
5.61373
5.72853
5.83149
5.9191
5.98865
6.03841
6.06772
6.07685
6.06684
6.0393
5.99615
5.93949
5.87144
5.79404
5.70921
5.61868
5.52401
5.42655
5.32748
5.22782
5.12847
5.03033
4.93441
4.84198
4.75471
4.67466
4.60395
4.5443
4.4964
4.45949
4.43143
4.40918
4.38944
4.36897
4.34443
4.31182
4.26595
4.20056
4.1093
3.9874
3.83337
3.6501
3.44503
3.22901
3.01442
2.81287
2.6333
2.4808
2.35654
2.25854
2.18294
2.12524
2.08122
2.04742
2.02124
2.00079
1.98473
1.97206
1.96204
1.95408
1.94773
1.94266
1.93848
1.93551
1.93082
4.04458
4.02342
4.0033
3.98457
3.96763
3.95292
3.94085
3.93182
3.92615
3.92413
3.9259
3.93153
3.94102
3.95419
3.97091
3.99101
4.01435
4.0409
4.07068
4.10383
4.1406
4.18136
4.2266
4.27689
4.33289
4.39528
4.46467
4.54156
4.6262
4.71852
4.81798
4.92355
5.03361
5.14596
5.25787
5.36623
5.46772
5.55911
5.63749
5.70055
5.74674
5.7753
5.78625
5.78026
5.7585
5.72245
5.67381
5.61433
5.54576
5.46977
5.38792
5.30162
5.21214
5.12059
5.02792
4.93502
4.84272
4.75192
4.66378
4.57983
4.50201
4.43249
4.37315
4.32498
4.28759
4.2592
4.23701
4.21798
4.19921
4.17791
4.1508
4.11338
4.05985
3.98385
3.87999
3.74565
3.5823
3.39589
3.19605
2.99435
2.80216
2.62864
2.47952
2.35677
2.25916
2.18343
2.12545
2.08119
2.04723
2.02096
2.00046
1.98436
1.97164
1.96155
1.95352
1.94709
1.94193
1.93767
1.93462
1.9298
4.02177
3.99865
3.97636
3.95518
3.93545
3.91751
3.90173
3.88847
3.87805
3.87078
3.86688
3.86652
3.8698
3.87676
3.88741
3.90172
3.91969
3.94132
3.96667
3.99585
4.02905
4.06653
4.10862
4.15571
4.20824
4.26662
4.33122
4.40229
4.47989
4.56382
4.65351
4.74802
4.84596
4.94551
5.04442
5.14017
5.23003
5.31135
5.38168
5.43901
5.48193
5.50964
5.52195
5.51924
5.50234
5.47238
5.43069
5.37873
5.31799
5.24991
5.17589
5.09721
5.01504
4.93044
4.84431
4.75749
4.67076
4.58497
4.50114
4.42068
4.34542
4.27751
4.21894
4.17094
4.13346
4.10498
4.0829
4.06432
4.04659
4.02736
4.004
3.97279
3.92853
3.86506
3.77661
3.65967
3.51444
3.34546
3.16112
2.9721
2.78938
2.62224
2.47687
2.35593
2.25893
2.1832
2.12499
2.08051
2.0464
2.02005
1.99952
1.9834
1.97067
1.96056
1.9525
1.94604
1.94084
1.93652
1.93343
1.92853
4.01196
3.98775
3.9642
3.94155
3.92007
3.90004
3.88179
3.86563
3.85187
3.8408
3.83267
3.82771
3.82608
3.8279
3.83329
3.84231
3.85504
3.87154
3.8919
3.91625
3.94475
3.97759
4.015
4.05727
4.10467
4.15745
4.21582
4.27987
4.34955
4.42459
4.50445
4.58828
4.6749
4.76277
4.85004
4.93461
5.01424
5.08668
5.14987
5.20205
5.24189
5.26858
5.2818
5.2817
5.26882
5.244
5.2083
5.1629
5.10905
5.04803
4.98104
4.90927
4.83379
4.75558
4.67552
4.59439
4.51295
4.43197
4.35239
4.27548
4.20298
4.13696
4.07951
4.03207
3.99484
3.96654
3.94474
3.92659
3.90954
3.89158
3.87066
3.84382
3.80659
3.75316
3.67767
3.5759
3.44696
3.29411
3.12449
2.94786
2.77467
2.61415
2.47285
2.35404
2.25789
2.18229
2.12393
2.07924
2.04498
2.01856
1.998
1.98189
1.96917
1.95908
1.95103
1.94456
1.93935
1.93503
1.93192
1.92699
4.00809
3.98331
3.95907
3.93557
3.91302
3.89166
3.87178
3.85363
3.83751
3.82368
3.8124
3.8039
3.79838
3.79601
3.79696
3.80134
3.80929
3.82091
3.83633
3.85567
3.87909
3.90674
3.93881
3.9755
4.01698
4.06342
4.11493
4.17151
4.23305
4.29925
4.36962
4.44341
4.5196
4.5969
4.67374
4.74838
4.81892
4.88347
4.94024
4.98767
5.02455
5.05005
5.06375
5.06564
5.05602
5.03551
5.00492
4.96521
4.91743
4.86266
4.80198
4.73645
4.66705
4.59471
4.52025
4.44443
4.36796
4.29156
4.21608
4.1427
4.07303
4.0091
3.95302
3.90641
3.86971
3.84188
3.82057
3.80294
3.78646
3.7693
3.74988
3.72598
3.69388
3.64833
3.58352
3.49481
3.38037
3.2423
3.08655
2.92189
2.75818
2.60448
2.46756
2.35117
2.25609
2.18078
2.12235
2.07748
2.04308
2.01658
1.996
1.97989
1.9672
1.95715
1.94912
1.94268
1.93749
1.93318
1.93008
1.92516
4.00664
3.98157
3.95695
3.93294
3.90972
3.8875
3.86649
3.84695
3.82911
3.81323
3.79955
3.78829
3.77966
3.77387
3.77108
3.77146
3.77516
3.78233
3.79309
3.80759
3.82598
3.8484
3.875
3.90593
3.94133
3.9813
4.02589
4.07506
4.12868
4.18645
4.24793
4.31245
4.37914
4.44689
4.51439
4.58015
4.64257
4.70001
4.75093
4.79395
4.82794
4.85207
4.86588
4.8692
4.86219
4.84525
4.81899
4.78419
4.7417
4.69245
4.63741
4.5775
4.51362
4.44664
4.37734
4.30643
4.2346
4.16252
4.09098
4.02104
3.95421
3.89245
3.8379
3.79231
3.75636
3.72919
3.70858
3.69164
3.67577
3.65919
3.64068
3.61864
3.59015
3.5506
3.49446
3.41682
3.31515
3.19049
3.04768
2.8945
2.74014
2.59337
2.46107
2.34739
2.25362
2.17875
2.12033
2.07533
2.04079
2.0142
1.99359
1.9775
1.96484
1.95482
1.94685
1.94045
1.9353
1.93102
1.92794
1.92305
4.00608
3.98084
3.95599
3.93165
3.90797
3.88513
3.86331
3.84273
3.82359
3.80613
3.79055
3.77708
3.76593
3.75729
3.75135
3.74828
3.74826
3.75143
3.75794
3.76794
3.78159
3.799
3.82033
3.8457
3.8752
3.90891
3.94686
3.98898
4.03514
4.08507
4.13835
4.19442
4.2525
4.31165
4.37075
4.42853
4.48363
4.53462
4.58017
4.61904
4.65018
4.6728
4.68637
4.69066
4.68567
4.67164
4.64904
4.61844
4.58056
4.53619
4.48615
4.43128
4.3724
4.31031
4.24573
4.17937
4.11185
4.04382
3.976
3.90938
3.84534
3.78577
3.73282
3.68837
3.65329
3.62696
3.60723
3.59116
3.57602
3.55997
3.54202
3.5211
3.49504
3.45994
3.41069
3.34232
3.25176
3.13916
3.00831
2.86604
2.7208
2.581
2.45352
2.34278
2.25054
2.17629
2.11799
2.0729
2.03823
2.01154
1.99089
1.9748
1.96217
1.9522
1.94427
1.93793
1.93282
1.92859
1.92555
1.92071
4.00578
3.98043
3.95541
3.93082
3.9068
3.88349
3.86104
3.83963
3.81946
3.80072
3.7836
3.76832
3.75507
3.74403
3.73541
3.72936
3.72607
3.7257
3.7284
3.73432
3.7436
3.75639
3.7728
3.79295
3.81693
3.84479
3.87654
3.91212
3.9514
3.99412
4.03992
4.0883
4.13859
4.18998
4.24152
4.2921
4.34055
4.38566
4.42624
4.46118
4.48952
4.5105
4.52357
4.52842
4.52495
4.51328
4.49372
4.46671
4.43282
4.39273
4.34713
4.29678
4.24241
4.18475
4.1245
4.06231
3.99878
3.93453
3.87022
3.80674
3.74541
3.68801
3.63669
3.59343
3.5593
3.53388
3.51516
3.50013
3.48588
3.47043
3.45289
3.43261
3.4081
3.37621
3.33234
3.27162
3.19062
3.08876
2.96888
2.83687
2.70044
2.56757
2.44503
2.33744
2.24694
2.17347
2.11539
2.07026
2.03548
2.00871
1.98801
1.97191
1.9593
1.94937
1.94149
1.9352
1.93015
1.92597
1.92298
1.9182
4.00554
3.98009
3.95493
3.93014
3.90584
3.88213
3.85916
3.83707
3.81605
3.79624
3.77785
3.76104
3.74601
3.73294
3.722
3.71337
3.70723
3.70373
3.70303
3.70528
3.71062
3.7192
3.73112
3.74649
3.76539
3.78787
3.81393
3.84352
3.8765
3.91265
3.95165
3.99307
4.03632
4.0807
4.1254
4.16945
4.21187
4.25157
4.28753
4.31875
4.34435
4.3636
4.37595
4.38102
4.37865
4.36885
4.3518
4.32784
4.2974
4.26105
4.21938
4.17306
4.12275
4.06912
4.01281
3.95444
3.8946
3.83385
3.77281
3.71232
3.65358
3.59829
3.54858
3.50652
3.47335
3.4489
3.43125
3.41739
3.40419
3.38949
3.37234
3.35243
3.32886
3.29919
3.25943
3.20494
3.1321
3.03971
2.92979
2.80735
2.67936
2.55328
2.43574
2.33146
2.2429
2.17037
2.11262
2.06752
2.03266
2.00579
1.98504
1.96892
1.95633
1.94643
1.9386
1.93236
1.92736
1.92324
1.92029
1.91558
4.00529
3.97975
3.95446
3.9295
3.90494
3.88089
3.85747
3.83482
3.81306
3.79236
3.77288
3.75477
3.73822
3.72339
3.71045
3.69958
3.69094
3.68468
3.68097
3.67995
3.68176
3.68654
3.6944
3.70543
3.71972
3.73731
3.75819
3.78232
3.80958
3.83977
3.87262
3.90773
3.94461
3.98265
4.02114
4.05928
4.09617
4.13091
4.16257
4.19027
4.2132
4.23066
4.24211
4.24713
4.24551
4.23716
4.22218
4.20078
4.17331
4.14022
4.10203
4.05929
4.01262
3.96263
3.90991
3.85504
3.79858
3.74107
3.68309
3.6254
3.56911
3.51586
3.46773
3.42683
3.39463
3.37112
3.35459
3.34197
3.32998
3.31618
3.29952
3.27986
3.25681
3.22863
3.19194
3.14247
3.0765
2.99239
2.89145
2.77785
2.65784
2.53838
2.42584
2.32497
2.23848
2.16704
2.10974
2.06473
2.02983
2.00288
1.98207
1.96593
1.95334
1.94347
1.93568
1.92949
1.92454
1.92047
1.91757
1.91293
4.00501
3.97939
3.95398
3.92884
3.90406
3.87972
3.85591
3.83276
3.81038
3.7889
3.76848
3.74926
3.7314
3.71505
3.70038
3.68755
3.67672
3.66803
3.66166
3.65773
3.65639
3.65777
3.66197
3.6691
3.67922
3.69237
3.70857
3.72775
3.74983
3.77463
3.80191
3.83131
3.86243
3.89473
3.9276
3.96034
3.99219
4.02235
4.05001
4.07438
4.09471
4.11036
4.12078
4.12554
4.12437
4.11713
4.10382
4.08457
4.05965
4.0294
3.99425
3.95471
3.9113
3.86459
3.81513
3.76345
3.7101
3.65558
3.60043
3.54536
3.49141
3.4401
3.39347
3.35372
3.32243
3.29984
3.28441
3.2731
3.26243
3.2497
3.23366
3.21425
3.19148
3.16425
3.12981
3.08431
3.02408
2.94716
2.85423
2.74873
2.63621
2.52309
2.41547
2.31808
2.23378
2.16355
2.10679
2.06196
2.02705
2.00004
1.97917
1.963
1.95041
1.94056
1.93281
1.92666
1.92176
1.91774
1.91488
1.91031
4.0047
3.97899
3.95347
3.92818
3.9032
3.87859
3.85444
3.83085
3.80792
3.78578
3.76455
3.74436
3.72536
3.7077
3.69152
3.67698
3.66423
3.65341
3.64468
3.63818
3.63404
3.63237
3.6333
3.63692
3.64328
3.65244
3.66441
3.67913
3.69653
3.71645
3.73869
3.76294
3.78883
3.81593
3.84369
3.87151
3.89875
3.92469
3.94863
3.96985
3.98769
4.00152
4.01081
4.01514
4.01418
4.00776
3.99579
3.97834
3.95558
3.92779
3.89533
3.85862
3.81814
3.77438
3.72787
3.67911
3.6286
3.57684
3.52432
3.4717
3.41993
3.37046
3.32529
3.28662
3.2562
3.23449
3.22013
3.21014
3.20089
3.18938
3.17413
3.15505
3.13245
3.10579
3.07295
3.03055
2.97508
2.90433
2.81849
2.72035
2.61478
2.50769
2.40485
2.31092
2.22889
2.15995
2.10384
2.05924
2.02436
1.99731
1.9764
1.9602
1.94761
1.93777
1.93005
1.92394
1.91908
1.91511
1.91229
1.90779
4.00436
3.97857
3.95294
3.92751
3.90234
3.87749
3.85303
3.82906
3.80566
3.78293
3.76099
3.73997
3.71999
3.70118
3.68368
3.66765
3.65322
3.64053
3.62972
3.62093
3.6143
3.60993
3.60793
3.6084
3.6114
3.61697
3.62512
3.63582
3.64899
3.66451
3.68219
3.70178
3.72295
3.74533
3.76845
3.79179
3.8148
3.83686
3.85733
3.8756
3.89103
3.90306
3.91117
3.91493
3.914
3.90814
3.89724
3.88128
3.86037
3.83472
3.80461
3.77041
3.73253
3.69144
3.6476
3.6015
3.5536
3.50437
3.45429
3.40395
3.35424
3.30653
3.26274
3.2251
3.1955
3.1746
3.16126
3.15259
3.14484
3.13471
3.12043
3.1018
3.07935
3.05302
3.0213
2.98129
2.9297
2.86422
2.78461
2.69308
2.59389
2.49245
2.39419
2.30365
2.2239
2.15633
2.10092
2.05662
2.02181
1.99474
1.97379
1.95756
1.94496
1.93514
1.92744
1.92136
1.91655
1.91262
1.90984
1.90541
4.004
3.97813
3.9524
3.92683
3.90149
3.87642
3.85169
3.82738
3.80355
3.78032
3.75777
3.73601
3.71517
3.69536
3.67673
3.65939
3.64348
3.62914
3.6165
3.6057
3.59685
3.59008
3.58547
3.58313
3.58311
3.58545
3.59018
3.59726
3.60663
3.61818
3.63175
3.64711
3.66401
3.68211
3.701
3.72026
3.7394
3.75787
3.77513
3.79061
3.80375
3.81401
3.82091
3.82401
3.82296
3.81747
3.8074
3.79268
3.77334
3.74953
3.72148
3.6895
3.65396
3.61527
3.57386
3.53018
3.48467
3.43779
3.38997
3.34177
3.294
3.24796
3.2055
3.16885
3.14
3.11985
3.10749
3.10013
3.09392
3.08531
3.07219
3.05419
3.03195
3.00581
2.97483
2.93663
2.88818
2.82715
2.75295
2.66731