/*--------------------------------*- C++ -*----------------------------------*\
| =========                 |                                                 |
| \\      /  F ield         | OpenFOAM: The Open Source CFD Toolbox           |
|  \\    /   O peration     | Version:  2.1.1                                 |
|   \\  /    A nd           | Web:      www.OpenFOAM.org                      |
|    \\/     M anipulation  |                                                 |
\*---------------------------------------------------------------------------*/
FoamFile
{
    version     2.0;
    format      ascii;
    class       volScalarField;
    location    "0.05";
    object      k;
}
// * * * * * * * * * * * * * * * * * * * * * * * * * * * * * * * * * * * * * //

dimensions      [0 2 -2 0 0 0 0];

internalField   nonuniform List<scalar> 
6820
(
0.28891
0.351398
0.415005
0.477465
0.536857
0.59155
0.640356
0.682601
0.718079
0.746962
0.769694
0.786891
0.799253
0.807497
0.812313
0.814334
0.814121
0.812157
0.808851
0.804542
0.799503
0.793957
0.788075
0.781991
0.775805
0.769587
0.763383
0.757228
0.751067
0.745188
0.738094
0.736759
0.707072
0.265533
0.269397
0.270523
0.271342
0.272562
0.274222
0.276238
0.278496
0.280886
0.283322
0.28575
0.288138
0.290479
0.292779
0.295052
0.297321
0.299606
0.301929
0.304309
0.306764
0.309308
0.311955
0.314716
0.317604
0.320632
0.323818
0.327185
0.330769
0.334621
0.338844
0.343509
0.349206
0.355298
0.262037
0.264253
0.263595
0.261555
0.258999
0.256316
0.253625
0.250935
0.248237
0.245521
0.24279
0.240056
0.237338
0.23466
0.232042
0.229507
0.227073
0.224757
0.222571
0.220524
0.218626
0.216879
0.215287
0.213853
0.212576
0.211458
0.210501
0.209707
0.209083
0.208644
0.208398
0.208401
0.208681
0.259885
0.260273
0.259797
0.258536
0.256829
0.254891
0.252832
0.250708
0.248544
0.246355
0.244147
0.241928
0.239705
0.237484
0.235272
0.233078
0.230908
0.228769
0.226668
0.22461
0.2226
0.220641
0.218737
0.21689
0.215101
0.21337
0.211698
0.210085
0.208527
0.207026
0.205577
0.204183
0.202829
0.259299
0.258404
0.2576
0.256567
0.255295
0.25385
0.252291
0.250661
0.248983
0.247275
0.245548
0.243811
0.242069
0.240328
0.238591
0.236864
0.23515
0.233452
0.231772
0.230115
0.228482
0.226875
0.225295
0.223745
0.222225
0.220735
0.219275
0.217846
0.216446
0.215075
0.213731
0.212413
0.211118
0.259225
0.257848
0.256623
0.255437
0.254228
0.25297
0.251663
0.250312
0.248928
0.247521
0.246098
0.244667
0.243233
0.241799
0.24037
0.238948
0.237537
0.236137
0.234752
0.233382
0.232029
0.230695
0.22938
0.228085
0.226811
0.225557
0.224325
0.223114
0.221923
0.220754
0.219606
0.218479
0.217373
0.259217
0.257715
0.256309
0.25498
0.253698
0.252442
0.251195
0.24995
0.248703
0.247454
0.246203
0.244953
0.243706
0.242465
0.241231
0.240006
0.238791
0.237588
0.236399
0.235223
0.234063
0.232918
0.231789
0.230677
0.229581
0.228503
0.227442
0.226399
0.225374
0.224366
0.223378
0.222409
0.221461
0.259218
0.25769
0.256225
0.254822
0.253477
0.252181
0.250923
0.249696
0.248491
0.247305
0.246135
0.244979
0.243836
0.242707
0.24159
0.240487
0.239398
0.238323
0.237262
0.236216
0.235185
0.234169
0.233169
0.232184
0.231216
0.230263
0.229326
0.228406
0.227502
0.226616
0.225747
0.224898
0.22407
0.259218
0.257687
0.256207
0.25478
0.253405
0.252079
0.250799
0.249559
0.248356
0.247184
0.246041
0.244923
0.243828
0.242754
0.241701
0.240667
0.239651
0.238652
0.237672
0.236708
0.235761
0.234831
0.233917
0.233019
0.232138
0.231273
0.230423
0.229591
0.228775
0.227976
0.227195
0.226434
0.225694
0.259218
0.257686
0.256203
0.254769
0.253384
0.252045
0.250751
0.249499
0.248288
0.247113
0.245973
0.244865
0.243786
0.242735
0.24171
0.240708
0.23973
0.238773
0.237838
0.236922
0.236025
0.235148
0.234288
0.233446
0.232622
0.231815
0.231025
0.230252
0.229496
0.228758
0.228039
0.22734
0.226662
0.259218
0.257686
0.256202
0.254767
0.253378
0.252035
0.250735
0.249477
0.248259
0.247079
0.245936
0.244828
0.243752
0.242706
0.24169
0.240702
0.239739
0.238802
0.237888
0.236997
0.236127
0.235279
0.23445
0.233641
0.232851
0.23208
0.231327
0.230592
0.229875
0.229178
0.228499
0.227841
0.227204
0.259218
0.257685
0.256202
0.254766
0.253376
0.252031
0.250729
0.249468
0.248248
0.247065
0.245919
0.244808
0.243731
0.242686
0.241672
0.240687
0.239729
0.238799
0.237894
0.237013
0.236156
0.235322
0.234509
0.233717
0.232946
0.232194
0.231462
0.23075
0.230056
0.229383
0.228729
0.228096
0.227485
0.259218
0.257685
0.256201
0.254765
0.253375
0.252029
0.250727
0.249465
0.248243
0.247059
0.245912
0.244799
0.243721
0.242675
0.24166
0.240675
0.239718
0.23879
0.237887
0.237011
0.236158
0.235329
0.234524
0.23374
0.232977
0.232235
0.231514
0.230813
0.230133
0.229472
0.228832
0.228213
0.227616
0.259218
0.257685
0.256201
0.254764
0.253374
0.252028
0.250725
0.249463
0.248241
0.247056
0.245908
0.244795
0.243715
0.242668
0.241653
0.240667
0.239711
0.238782
0.23788
0.237004
0.236153
0.235327
0.234523
0.233742
0.232984
0.232246
0.23153
0.230835
0.23016
0.229506
0.228872
0.22826
0.22767
0.259218
0.257685
0.256201
0.254764
0.253374
0.252028
0.250724
0.249462
0.248239
0.247054
0.245905
0.244792
0.243712
0.242664
0.241648
0.240662
0.239705
0.238777
0.237875
0.236999
0.236148
0.235322
0.23452
0.23374
0.232983
0.232247
0.231533
0.23084
0.230168
0.229516
0.228886
0.228276
0.227689
0.259218
0.257685
0.2562
0.254764
0.253373
0.252027
0.250723
0.249461
0.248237
0.247052
0.245903
0.244789
0.243709
0.242661
0.241645
0.240659
0.239702
0.238773
0.237871
0.236995
0.236144
0.235318
0.234516
0.233737
0.23298
0.232245
0.231532
0.23084
0.230168
0.229518
0.228889
0.22828
0.227693
0.259218
0.257685
0.2562
0.254763
0.253373
0.252026
0.250722
0.24946
0.248236
0.247051
0.245901
0.244787
0.243707
0.242659
0.241642
0.240656
0.239699
0.238769
0.237867
0.236991
0.236141
0.235315
0.234512
0.233733
0.232977
0.232242
0.23153
0.230838
0.230167
0.229517
0.228888
0.228279
0.227691
0.259218
0.257685
0.2562
0.254763
0.253372
0.252026
0.250722
0.249459
0.248235
0.247049
0.2459
0.244786
0.243705
0.242657
0.24164
0.240653
0.239696
0.238767
0.237864
0.236988
0.236138
0.235312
0.234509
0.233731
0.232974
0.23224
0.231527
0.230835
0.230165
0.229515
0.228885
0.228276
0.227687
0.259218
0.257684
0.2562
0.254763
0.253372
0.252025
0.250721
0.249458
0.248234
0.247048
0.245898
0.244784
0.243703
0.242655
0.241638
0.240651
0.239693
0.238764
0.237862
0.236986
0.236135
0.235309
0.234507
0.233728
0.232971
0.232237
0.231524
0.230833
0.230162
0.229511
0.228881
0.228271
0.227681
0.259218
0.257684
0.2562
0.254763
0.253372
0.252025
0.25072
0.249457
0.248233
0.247047
0.245897
0.244783
0.243702
0.242653
0.241636
0.240649
0.239691
0.238762
0.237859
0.236983
0.236132
0.235306
0.234504
0.233725
0.232968
0.232234
0.231521
0.230829
0.230158
0.229507
0.228877
0.228266
0.227675
0.259218
0.257684
0.2562
0.254762
0.253371
0.252024
0.25072
0.249457
0.248232
0.247046
0.245896
0.244781
0.2437
0.242651
0.241634
0.240647
0.239689
0.238759
0.237857
0.23698
0.236129
0.235303
0.234501
0.233722
0.232965
0.232231
0.231518
0.230825
0.230154
0.229503
0.228871
0.228259
0.227667
0.259218
0.257684
0.256199
0.254762
0.253371
0.252024
0.25072
0.249456
0.248232
0.247045
0.245895
0.24478
0.243699
0.24265
0.241633
0.240645
0.239687
0.238757
0.237854
0.236978
0.236127
0.2353
0.234498
0.233719
0.232962
0.232227
0.231514
0.230821
0.230149
0.229497
0.228865
0.228252
0.227658
0.259218
0.257684
0.256199
0.254762
0.253371
0.252024
0.250719
0.249455
0.248231
0.247044
0.245894
0.244779
0.243698
0.242649
0.241631
0.240644
0.239685
0.238755
0.237852
0.236975
0.236124
0.235298
0.234495
0.233715
0.232958
0.232223
0.231509
0.230816
0.230143
0.22949
0.228857
0.228243
0.227648
0.259218
0.257684
0.256199
0.254762
0.253371
0.252024
0.250719
0.249455
0.248231
0.247044
0.245893
0.244778
0.243697
0.242647
0.24163
0.240642
0.239683
0.238753
0.23785
0.236973
0.236122
0.235295
0.234492
0.233712
0.232954
0.232219
0.231504
0.230811
0.230137
0.229483
0.228849
0.228234
0.227637
0.259218
0.257684
0.256199
0.254762
0.25337
0.252023
0.250719
0.249455
0.24823
0.247043
0.245893
0.244777
0.243695
0.242646
0.241628
0.24064
0.239682
0.238751
0.237848
0.236971
0.236119
0.235292
0.234488
0.233708
0.23295
0.232214
0.231499
0.230805
0.23013
0.229476
0.22884
0.228224
0.227625
0.259218
0.257684
0.256199
0.254762
0.25337
0.252023
0.250718
0.249454
0.24823
0.247043
0.245892
0.244777
0.243695
0.242645
0.241627
0.240639
0.23968
0.238749
0.237846
0.236968
0.236116
0.235289
0.234485
0.233704
0.232946
0.232209
0.231494
0.230799
0.230123
0.229468
0.228831
0.228213
0.227613
0.259218
0.257684
0.256199
0.254762
0.25337
0.252023
0.250718
0.249454
0.248229
0.247042
0.245892
0.244776
0.243694
0.242644
0.241626
0.240638
0.239679
0.238748
0.237844
0.236966
0.236114
0.235286
0.234482
0.2337
0.232941
0.232204
0.231488
0.230792
0.230116
0.229459
0.228821
0.228202
0.227601
0.259218
0.257684
0.256199
0.254762
0.25337
0.252023
0.250718
0.249454
0.248229
0.247042
0.245891
0.244775
0.243693
0.242644
0.241625
0.240637
0.239677
0.238746
0.237842
0.236964
0.236111
0.235283
0.234478
0.233697
0.232937
0.232199
0.231482
0.230786
0.230109
0.229451
0.228812
0.228191
0.227588
0.259218
0.257684
0.256199
0.254762
0.25337
0.252023
0.250718
0.249454
0.248229
0.247041
0.245891
0.244775
0.243692
0.242643
0.241624
0.240635
0.239676
0.238744
0.23784
0.236962
0.236109
0.23528
0.234475
0.233693
0.232933
0.232194
0.231476
0.230779
0.230101
0.229442
0.228802
0.22818
0.227576
0.259218
0.257684
0.256199
0.254762
0.25337
0.252023
0.250718
0.249454
0.248229
0.247042
0.245891
0.244775
0.243693
0.242643
0.241624
0.240635
0.239676
0.238744
0.237839
0.236961
0.236107
0.235278
0.234473
0.23369
0.232929
0.23219
0.231472
0.230773
0.230095
0.229435
0.228794
0.228171
0.227565
0.259218
0.257684
0.256199
0.254762
0.25337
0.252023
0.250718
0.249454
0.248229
0.247041
0.245891
0.244775
0.243692
0.242642
0.241623
0.240634
0.239675
0.238743
0.237838
0.236959
0.236105
0.235276
0.23447
0.233687
0.232926
0.232186
0.231467
0.230768
0.230088
0.229428
0.228786
0.228161
0.227554
0.259218
0.257684
0.256199
0.254762
0.253371
0.252024
0.25072
0.249456
0.248232
0.247045
0.245894
0.244778
0.243696
0.242646
0.241627
0.240638
0.239678
0.238746
0.237841
0.236962
0.236108
0.235278
0.234471
0.233688
0.232926
0.232185
0.231466
0.230766
0.230085
0.229424
0.22878
0.228155
0.227546
0.259218
0.257685
0.2562
0.254764
0.253373
0.252026
0.250721
0.249457
0.248233
0.247046
0.245895
0.24478
0.243697
0.242648
0.241629
0.24064
0.23968
0.238748
0.237843
0.236964
0.236109
0.235279
0.234472
0.233688
0.232926
0.232184
0.231463
0.230762
0.230081
0.229418
0.228773
0.228145
0.227535
0.259218
0.257685
0.256201
0.254766
0.253378
0.252034
0.250731
0.24947
0.248247
0.247061
0.245911
0.244796
0.243714
0.242664
0.241645
0.240655
0.239695
0.238762
0.237855
0.236975
0.236119
0.235287
0.234478
0.233691
0.232926
0.232182
0.231458
0.230754
0.230069
0.229402
0.228753
0.228121
0.227506
0.259219
0.257689
0.25621
0.254777
0.25339
0.252046
0.250743
0.249482
0.248259
0.247074
0.245924
0.244809
0.243727
0.242676
0.241656
0.240664
0.239701
0.238765
0.237855
0.23697
0.236109
0.235271
0.234456
0.233662
0.232889
0.232137
0.231404
0.23069
0.229994
0.229317
0.228657
0.228013
0.227386
0.25922
0.257694
0.256221
0.254799
0.253423
0.25209
0.250796
0.249539
0.248318
0.247132
0.245979
0.244858
0.243768
0.242707
0.241675
0.24067
0.239691
0.238739
0.23781
0.236906
0.236025
0.235165
0.234328
0.233511
0.232714
0.231937
0.231178
0.230438
0.229716
0.229011
0.228323
0.227652
0.226996
0.259229
0.257738
0.256292
0.254882
0.253508
0.252172
0.250871
0.249603
0.248368
0.247162
0.245985
0.244837
0.243715
0.24262
0.241551
0.240507
0.239487
0.238491
0.237518
0.236568
0.23564
0.234733
0.233847
0.232982
0.232136
0.231309
0.230501
0.229711
0.228939
0.228184
0.227446
0.226724
0.226018
0.259265
0.257822
0.256453
0.255125
0.253805
0.252483
0.251164
0.249854
0.248561
0.24729
0.246044
0.244827
0.243638
0.242478
0.241347
0.240245
0.23917
0.238122
0.2371
0.236104
0.235131
0.234182
0.233256
0.232352
0.231469
0.230607
0.229765
0.228942
0.228139
0.227355
0.226589
0.225841
0.225111
0.259599
0.258632
0.257578
0.256541
0.255587
0.254713
0.253905
0.253152
0.252446
0.251787
0.251172
0.250602
0.250075
0.249593
0.249154
0.248756
0.248401
0.248085
0.247808
0.24757
0.247369
0.247203
0.247073
0.246977
0.246915
0.246886
0.24689
0.246926
0.246993
0.247092
0.247222
0.247382
0.247573
0.266719
0.280569
0.294241
0.307622
0.320668
0.333362
0.345693
0.357649
0.369225
0.380413
0.391212
0.401619
0.411638
0.421269
0.430518
0.439391
0.447893
0.456034
0.463822
0.471265
0.478373
0.485157
0.491627
0.497792
0.503663
0.509251
0.514565
0.519617
0.524415
0.528969
0.53329
0.537385
0.541268
0.832333
1.03432
1.29817
1.61369
1.93661
2.19928
2.36056
2.43115
2.45124
2.45616
2.462
2.471
2.48134
2.49219
2.50403
2.51744
2.53273
2.5479
2.55957
2.56317
2.55294
2.5219
2.46185
2.3636
2.21762
2.01566
1.75398
1.43897
1.09466
0.766864
0.512293
0.366941
0.318174
0.321692
0.344047
0.371307
0.398248
0.422543
0.442993
0.459038
0.470624
0.478084
0.481988
0.483003
0.481792
0.478948
0.474972
0.470274
0.465177
0.459934
0.454748
0.449776
0.445152
0.44099
0.437394
0.434454
0.432241
0.430783
0.430044
0.429908
0.430167
0.43054
0.430694
0.430278
0.428949
0.426389
0.422302
0.416417
0.408484
0.398291
0.385696
0.370673
0.35336
0.334094
0.313422
0.292069
0.270874
0.250687
0.232254
0.216117
0.202551
0.191558
0.182922
0.17629
0.171265
0.167475
0.164615
0.16245
0.160812
0.159576
0.158651
0.157966
0.157465
0.157102
0.156844
0.156662
0.156537
0.15645
0.156401
0.156319
0.36769
0.390582
0.433286
0.512549
0.648436
0.85509
1.12616
1.42982
1.71888
1.95233
2.11315
2.20904
2.26
2.28552
2.2984
2.3047
2.30535
2.29844
2.28067
2.24779
2.1946
2.11492
2.00207
1.84978
1.65407
1.4162
1.14674
0.869255
0.619744
0.435493
0.334281
0.301175
0.304821
0.322958
0.345946
0.369836
0.3926
0.41295
0.430051
0.44348
0.453185
0.45942
0.462632
0.463358
0.462136
0.45946
0.455754
0.451365
0.446576
0.44161
0.436646
0.431826
0.427272
0.423092
0.419388
0.416258
0.413789
0.412038
0.411011
0.410638
0.410758
0.411129
0.411446
0.411375
0.410576
0.408728
0.40553
0.400699
0.393974
0.385127
0.373988
0.360499
0.344753
0.327036
0.30784
0.287839
0.267826
0.248624
0.230966
0.215403
0.202233
0.191495
0.183008
0.176456
0.171468
0.167693
0.164835
0.162666
0.161018
0.15977
0.158831
0.158131
0.157614
0.157236
0.156964
0.156769
0.156631
0.156533
0.156475
0.156381
0.209081
0.21011
0.212605
0.218388
0.231896
0.261571
0.319401
0.418463
0.566281
0.757751
0.97523
1.19427
1.3915
1.55093
1.66669
1.73893
1.76932
1.76535
1.73327
1.6758
1.59266
1.48218
1.34315
1.17692
0.989419
0.793039
0.606832
0.453217
0.349656
0.298324
0.284922
0.29135
0.306485
0.325466
0.345908
0.366268
0.385396
0.40241
0.416701
0.427941
0.436083
0.441315
0.443983
0.444512
0.443339
0.44087
0.437459
0.433404
0.428946
0.424283
0.419573
0.414944
0.410505
0.406357
0.402596
0.399321
0.396629
0.394599
0.39327
0.392616
0.392527
0.392804
0.393177
0.393334
0.392947
0.391698
0.389283
0.385415
0.379824
0.372265
0.362546
0.35057
0.336384
0.320218
0.302503
0.283855
0.265021
0.24679
0.229886
0.214867
0.202061
0.191543
0.183176
0.176679
0.171711
0.167936
0.16507
0.162888
0.161226
0.159962
0.159005
0.158287
0.157751
0.157356
0.157066
0.156856
0.156705
0.156595
0.156526
0.156419
0.201318
0.199661
0.197944
0.196008
0.193894
0.192477
0.194189
0.20182
0.218424
0.248536
0.29752
0.36765
0.455408
0.552481
0.647896
0.732474
0.80058
0.84455
0.859599
0.84462
0.801512
0.734435
0.649558
0.55517
0.461594
0.380036
0.319813
0.284696
0.27124
0.271961
0.2805
0.293453
0.309087
0.3262
0.343789
0.360974
0.376989
0.391202
0.40315
0.412576
0.41943
0.423847
0.426093
0.426502
0.425421
0.423184
0.420084
0.416374
0.412262
0.40792
0.403488
0.399082
0.394799
0.390729
0.386963
0.383596
0.380726
0.378446
0.376825
0.375873
0.375528
0.375638
0.375974
0.376251
0.376161
0.375394
0.373649
0.370639
0.366088
0.35974
0.35138
0.340875
0.328221
0.31359
0.297347
0.280047
0.262385
0.245114
0.228948
0.214454
0.201988
0.191669
0.183401
0.176942
0.171978
0.168193
0.165312
0.163113
0.161433
0.160149
0.159173
0.158434
0.157878
0.157464
0.157156
0.156929
0.156763
0.156639
0.15656
0.156437
0.209631
0.207936
0.206224
0.204457
0.202534
0.20034
0.198044
0.196238
0.19601
0.198237
0.2029
0.210411
0.221624
0.236895
0.255287
0.274934
0.293868
0.309823
0.320442
0.323956
0.319832
0.309107
0.294281
0.278746
0.265829
0.257764
0.255156
0.257309
0.263152
0.271897
0.282994
0.295903
0.31006
0.324891
0.339816
0.354253
0.367657
0.379551
0.389575
0.397516
0.403323
0.407091
0.409019
0.409365
0.408408
0.406415
0.403632
0.400269
0.396507
0.392495
0.388357
0.384196
0.3801
0.376151
0.372428
0.36902
0.366025
0.363541
0.361654
0.360409
0.359785
0.359678
0.359901
0.360205
0.360304
0.359903
0.35871
0.356443
0.352825
0.347593
0.34051
0.331411
0.320242
0.307111
0.292318
0.276352
0.259851
0.243533
0.228094
0.214114
0.201977
0.191842
0.18366
0.177226
0.172257
0.168456
0.165553
0.163334
0.161633
0.16033
0.159332
0.158572
0.157996
0.157561
0.157235
0.156991
0.156809
0.156671
0.15658
0.156441
0.216108
0.214673
0.213245
0.211827
0.210412
0.20897
0.207457
0.205863
0.204372
0.203558
0.203751
0.204886
0.206907
0.209849
0.213839
0.218531
0.223015
0.227009
0.230345
0.232936
0.234833
0.236269
0.23764
0.239407
0.24199
0.245701
0.250748
0.257247
0.265219
0.274585
0.285179
0.296765
0.309051
0.321688
0.334283
0.346413
0.357665
0.367667
0.376128
0.38287
0.387841
0.391101
0.392798
0.39313
0.392316
0.390574
0.388103
0.385083
0.381667
0.377985
0.374147
0.370246
0.36636
0.362562
0.358924
0.355526
0.352458
0.349821
0.34771
0.346196
0.345293
0.344941
0.344999
0.345252
0.345445
0.345301
0.344542
0.342897
0.340095
0.335867
0.329964
0.322186
0.312434
0.300754
0.287376
0.27272
0.257368
0.241994
0.227278
0.213807
0.201992
0.192036
0.183932
0.177517
0.172537
0.168713
0.165787
0.163545
0.161824
0.160499
0.159481
0.1587
0.158104
0.157649
0.157305
0.157043
0.156845
0.156693
0.15659
0.156434
0.220382
0.219166
0.217971
0.21682
0.21573
0.214709
0.21375
0.212842
0.211988
0.211284
0.210887
0.210941
0.211538
0.212689
0.214378
0.21644
0.218677
0.220996
0.223373
0.22583
0.228423
0.231244
0.234412
0.238061
0.242329
0.24734
0.253197
0.259963
0.267655
0.276237
0.285622
0.295666
0.306174
0.316895
0.327535
0.33777
0.347273
0.355745
0.362949
0.368734
0.373044
0.375915
0.377453
0.377808
0.377153
0.375659
0.373493
0.370803
0.367722
0.364364
0.360826
0.35719
0.353529
0.349906
0.346386
0.34304
0.33995
0.337212
0.334927
0.333181
0.332018
0.331416
0.331276
0.331422
0.33163
0.331646
0.331211
0.330068
0.327956
0.324611
0.319773
0.313217
0.304798
0.294502
0.282491
0.269114
0.25489
0.240452
0.226457
0.213495
0.202005
0.192226
0.184199
0.1778
0.172806
0.168958
0.166006
0.163741
0.161998
0.160654
0.159616
0.158816
0.1582
0.157727
0.157364
0.157086
0.156873
0.156706
0.156591
0.15642
0.223133
0.222082
0.221059
0.220086
0.219185
0.218375
0.217673
0.217088
0.216623
0.216297
0.216158
0.216268
0.21668
0.217427
0.218521
0.219929
0.221603
0.223509
0.225633
0.227988
0.23061
0.23355
0.236872
0.240647
0.244947
0.249836
0.255367
0.261573
0.268463
0.276012
0.284157
0.292791
0.301767
0.310892
0.319932
0.32863
0.336723
0.343967
0.350166
0.355189
0.358982
0.36156
0.362996
0.363402
0.362911
0.36166
0.359785
0.357411
0.354652
0.351606
0.34836
0.34499
0.34156
0.338128
0.334751
0.331491
0.328423
0.325635
0.323227
0.321294
0.319903
0.319064
0.318715
0.318719
0.318881
0.318975
0.318764
0.318007
0.316461
0.313871
0.309974
0.304526
0.29734
0.288348
0.277643
0.265503
0.252384
0.23887
0.225595
0.213147
0.201987
0.192392
0.184445
0.178063
0.173055
0.169181
0.166203
0.163915
0.162152
0.160789
0.159733
0.158915
0.158282
0.157792
0.157413
0.157119
0.156892
0.156712
0.156586
0.156399
0.224859
0.22393
0.223029
0.222179
0.221402
0.220719
0.220151
0.219713
0.219417
0.219275
0.219303
0.219523
0.219968
0.220666
0.221635
0.222872
0.224366
0.226105
0.228087
0.230322
0.232832
0.23565
0.238815
0.242373
0.24637
0.250847
0.255839
0.261369
0.26744
0.27403
0.28109
0.288535
0.296247
0.304069
0.311813
0.319271
0.326229
0.332488
0.337884
0.342305
0.345695
0.348054
0.34943
0.349904
0.349577
0.348558
0.346958
0.344882
0.342426
0.339678
0.336715
0.333605
0.330406
0.327173
0.323956
0.32081
0.317799
0.315006
0.312524
0.310453
0.308874
0.307824
0.307273
0.307118
0.307195
0.307304
0.30723
0.306756
0.305656
0.303692
0.300605
0.296139
0.290076
0.282294
0.272822
0.261868
0.249823
0.23722
0.224663
0.212736
0.201916
0.192515
0.184655
0.178295
0.173275
0.169376
0.166373
0.164062
0.16228
0.1609
0.159829
0.158995
0.158347
0.157842
0.157449
0.157141
0.156901
0.156709
0.156574
0.156373
0.2259
0.225055
0.224238
0.223468
0.222767
0.222154
0.221649
0.221272
0.221037
0.220956
0.22104
0.221301
0.221753
0.222414
0.223299
0.224419
0.225778
0.227377
0.229217
0.231305
0.233654
0.236285
0.239224
0.242502
0.24615
0.250198
0.254672
0.259586
0.26494
0.270716
0.276872
0.283338
0.290016
0.296778
0.303472
0.309927
0.315971
0.321439
0.326193
0.330135
0.333209
0.335404
0.336748
0.337297
0.337128
0.336328
0.334984
0.333185
0.331013
0.328546
0.325852
0.322993
0.320023
0.316991
0.313944
0.310929
0.308004
0.305241
0.30273
0.300568
0.298846
0.297619
0.296886
0.296572
0.296544
0.296624
0.29662
0.296337
0.295573
0.29411
0.291701
0.288087
0.283025
0.276349
0.268027
0.258199
0.24719
0.235481
0.22364
0.212241
0.201774
0.192579
0.184818
0.178488
0.17346
0.169539
0.166511
0.164179
0.162378
0.160984
0.159899
0.159052
0.158391
0.157874
0.157468
0.15715
0.156899
0.156696
0.156552
0.156339
0.226491
0.225701
0.224938
0.224218
0.223558
0.222978
0.222497
0.222133
0.2219
0.221814
0.221884
0.222121
0.222532
0.223127
0.223919
0.224917
0.22613
0.227566
0.22923
0.23113
0.233277
0.235685
0.238372
0.241358
0.244665
0.248315
0.252324
0.256701
0.261443
0.266534
0.271937
0.277593
0.28342
0.289314
0.295151
0.300792
0.306094
0.310921
0.315157
0.318714
0.321536
0.323605
0.324934
0.325559
0.325539
0.324938
0.323829
0.322285
0.320377
0.318173
0.315733
0.313113
0.310365
0.307533
0.304659
0.301787
0.298967
0.296265
0.29376
0.291549
0.289727
0.288362
0.287474
0.287016
0.286876
0.286902
0.286919
0.286754
0.28623
0.285151
0.283293
0.280398
0.276212
0.27053
0.263266
0.254496
0.244479
0.23364
0.222511
0.211648
0.201548
0.192574
0.184925
0.178634
0.173604
0.169665
0.166614
0.164261
0.162445
0.161036
0.15994
0.159083
0.158412
0.157885
0.15747
0.157142
0.156882
0.156671
0.15652
0.156296
0.226801
0.226044
0.225312
0.224618
0.223977
0.223406
0.222922
0.222542
0.22228
0.222151
0.222167
0.222338
0.222671
0.223174
0.223855
0.224723
0.225785
0.227049
0.228525
0.230219
0.232144
0.23431
0.236732
0.239423
0.2424
0.245676
0.249262
0.253163
0.257374
0.261877
0.266641
0.271616
0.276735
0.28191
0.28704
0.292011
0.296705
0.301008
0.304819
0.30806
0.310676
0.312645
0.313965
0.314662
0.314774
0.314353
0.313457
0.312146
0.31048
0.308518
0.306315
0.303923
0.301386
0.298749
0.296049
0.293326
0.290625
0.288003
0.285535
0.283311
0.281426
0.27996
0.27895
0.278368
0.278126
0.278087
0.278095
0.277993
0.277629
0.276833
0.275405
0.273102
0.269663
0.264859
0.258555
0.250767
0.24169
0.231694
0.221267
0.210946
0.201226
0.192492
0.18497
0.178729
0.173706
0.169751
0.16668
0.164309
0.162477
0.161057
0.159951
0.159086
0.158407
0.157873
0.15745
0.157115
0.156849
0.156632
0.156475
0.156243
0.226948
0.226208
0.225491
0.224808
0.22417
0.223593
0.22309
0.222678
0.22237
0.222181
0.222122
0.222204
0.222436
0.222825
0.223379
0.224106
0.225011
0.226102
0.227388
0.228876
0.230576
0.232499
0.234656
0.237057
0.239716
0.24264
0.245838
0.249309
0.253048
0.257038
0.261252
0.265647
0.270166
0.274738
0.279278
0.283692
0.287879
0.291745
0.295201
0.298175
0.300618
0.302499
0.303813
0.30457
0.304798
0.304536
0.30383
0.302727
0.301282
0.299543
0.29756
0.29538
0.293044
0.290594
0.288064
0.285492
0.282918
0.280392
0.277981
0.275772
0.273858
0.272325
0.271223
0.270543
0.270214
0.270113
0.270096
0.270022
0.269755
0.269157
0.268052
0.26622
0.263405
0.259361
0.253914
0.247026
0.238834
0.229646
0.219909
0.210132
0.200805
0.192326
0.184948
0.178771
0.173763
0.169799
0.16671
0.164321
0.162475
0.161045
0.159931
0.15906
0.158376
0.157836
0.157408
0.157068
0.156797
0.156575
0.156414
0.156177
0.227009
0.226277
0.225565
0.224881
0.224237
0.223645
0.223116
0.222666
0.222305
0.222049
0.221907
0.221893
0.222014
0.222279
0.222697
0.223274
0.224017
0.224932
0.226029
0.227313
0.228793
0.230478
0.232378
0.234502
0.236858
0.239453
0.242292
0.245373
0.24869
0.252228
0.255962
0.259856
0.263863
0.267921
0.271961
0.275901
0.27966
0.283153
0.286304
0.289048
0.291336
0.293138
0.29444
0.295245
0.295572
0.295447
0.294906
0.29399
0.292742
0.291206
0.289426
0.287443
0.285297
0.283025
0.28066
0.278237
0.275792
0.273371
0.271033
0.26886
0.266943
0.265372
0.264207
0.263454
0.263056
0.262903
0.262859
0.262792
0.262582
0.262112
0.26124
0.25977
0.257462
0.254063
0.249369
0.243296
0.235924
0.227506
0.218441
0.209207
0.200284
0.192075
0.184857
0.178759
0.173776
0.169809
0.166706
0.164301
0.162442
0.161002
0.159881
0.159005
0.158317
0.157774
0.157343
0.157
0.156726
0.156501
0.156338
0.156097
0.22703
0.226299
0.225586
0.224897
0.224242
0.22363
0.223073
0.222583
0.22217
0.221846
0.221624
0.221514
0.221525
0.221667
0.221947
0.222375
0.222955
0.223697
0.224606
0.22569
0.226956
0.228412
0.230066
0.231925
0.233997
0.236286
0.238794
0.24152
0.244458
0.247594
0.250905
0.254362
0.257923
0.261538
0.265145
0.268678
0.272064
0.275232
0.278114
0.280652
0.282799
0.284523
0.285806
0.286646
0.287052
0.287043
0.286646
0.285894
0.284823
0.28347
0.281874
0.280074
0.278104
0.276
0.273793
0.271515
0.269199
0.266887
0.264632
0.262511
0.260611
0.259024
0.25782
0.257017
0.256571
0.256381
0.256315
0.256246
0.256066
0.255676
0.254963
0.253762
0.251854
0.248988
0.244945
0.2396
0.232982
0.22529
0.216873
0.208177
0.199665
0.191741
0.184699
0.178693
0.173746
0.169784
0.16667
0.164251
0.162379
0.16093
0.159804
0.158923
0.158232
0.157687
0.157255
0.156911
0.156635
0.156409
0.156245
0.156001
0.227034
0.226302
0.225584
0.224887
0.22422
0.223588
0.223003
0.222475
0.222012
0.221627
0.22133
0.221131
0.221039
0.221064
0.221215
0.221499
0.221924
0.222497
0.223226
0.224117
0.225178
0.226415
0.227835
0.229445
0.23125
0.233254
0.235458
0.237861
0.240456
0.243231
0.246167
0.249236
0.252405
0.255629
0.258857
0.26203
0.265087
0.267966
0.270606
0.272954
0.274967
0.276612
0.277869
0.278729
0.279197
0.279284
0.279009
0.2784
0.277485
0.276296
0.274868
0.273234
0.271428
0.269481
0.267423
0.265284
0.263095
0.260893
0.258727
0.256667
0.254799
0.253215
0.251991
0.251156
0.250679
0.250467
0.250391
0.250322
0.250158
0.249815
0.249205
0.248195
0.246593
0.244161
0.24067
0.235966
0.230032
0.223016
0.215221
0.207053
0.198954
0.191327
0.184476
0.178576
0.173677
0.169725
0.166606
0.164175
0.162292
0.160834
0.159702
0.158818
0.158125
0.157579
0.157147
0.156802
0.156526
0.1563
0.156135
0.155892
0.227031
0.226296
0.225573
0.224868
0.224187
0.223538
0.222927
0.222364
0.221857
0.221417
0.221053
0.220773
0.220589
0.220508
0.22054
0.220692
0.220973
0.221389
0.221949
0.222659
0.223526
0.224556
0.225757
0.227133
0.22869
0.23043
0.232355
0.234462
0.236745
0.239194
0.241792
0.244515
0.247333
0.250208
0.253097
0.255949
0.25871
0.261326
0.263743
0.265914
0.267797
0.269361
0.270582
0.27145
0.271963
0.272127
0.271956
0.271469
0.270691
0.269648
0.268371
0.26689
0.265233
0.263432
0.261514
0.259508
0.257441
0.255347
0.253273
0.251281
0.249454
0.247885
0.246655
0.245804
0.245311
0.24509
0.245015
0.244955
0.244804
0.244489
0.243942
0.243062
0.241687
0.239598
0.236567
0.232419
0.227099
0.220708
0.213501
0.205846
0.198161
0.190839
0.184192
0.178412
0.173571
0.169639
0.166518
0.164078
0.162184
0.160718
0.15958
0.158693
0.157999
0.157453
0.15702
0.156676
0.156401
0.156176
0.156012
0.155769
0.227025
0.226287
0.225558
0.224846
0.224153
0.223486
0.222853
0.222259
0.221714
0.221225
0.220802
0.220453
0.220187
0.220012
0.219937
0.219971
0.22012
0.220394
0.220798
0.221341
0.222029
0.222869
0.223866
0.225026
0.226353
0.227849
0.229517
0.231352
0.233351
0.235504
0.237795
0.240205
0.242706
0.245267
0.24785
0.25041
0.252901
0.255275
0.257486
0.259488
0.261245
0.262724
0.263902
0.264766
0.265309
0.265533
0.265446
0.265064
0.264405
0.263492
0.26235
0.261006
0.259487
0.257821
0.256034
0.254151
0.2522
0.250212
0.248229
0.246308
0.244529
0.242984
0.241758
0.240901
0.240403
0.240186
0.240124
0.240081
0.239947
0.239652
0.239143
0.238348
0.237135
0.235312
0.232658
0.228986
0.22421
0.21839
0.211734
0.204574
0.197297
0.190286
0.183852
0.178204
0.173432
0.169528
0.166411
0.163964
0.162062
0.160587
0.159444
0.158554
0.157858
0.157312
0.15688
0.156537
0.156264
0.15604
0.155877
0.155636
0.227018
0.226276
0.225542
0.224822
0.224118
0.223437
0.222783
0.222163
0.221584
0.221054
0.22058
0.220169
0.219832
0.219575
0.219406
0.219335
0.219367
0.219513
0.219777
0.220168
0.220693
0.221358
0.222168
0.223129
0.224245
0.225518
0.22695
0.228537
0.230276
0.232158
0.23417
0.236295
0.238509
0.240783
0.243086
0.24538
0.247623
0.249773
0.25179
0.253631
0.255264
0.256656
0.257785
0.258634
0.259194
0.259463
0.259445
0.259151
0.258594
0.257795
0.256773
0.255553
0.254159
0.252616
0.250949
0.249183
0.247342
0.245455
0.24356
0.241712
0.239984
0.238469
0.237254
0.236399
0.235903
0.235698
0.235658
0.235643
0.235534
0.235259
0.234775
0.234033
0.232933
0.231311
0.228959
0.225688
0.22139
0.216085
0.209943
0.203253
0.196375
0.189675
0.183464
0.177957
0.173265
0.169396
0.166289
0.163839
0.161929
0.160447
0.159298
0.158405
0.157708
0.157162
0.156731
0.156389
0.156117
0.155895
0.155734
0.155495
0.227009
0.226263
0.225525
0.224798
0.224085
0.22339
0.222718
0.222075
0.221468
0.220901
0.220383
0.21992
0.21952
0.219191
0.218941
0.218777
0.218706
0.218737
0.218877
0.219132
0.219509
0.220016
0.220656
0.221436
0.222359
0.223428
0.224644
0.226004
0.227506
0.229141
0.230898
0.232762
0.234713
0.236727
0.238774
0.240822
0.242836
0.244778
0.246611
0.2483
0.24981
0.251114
0.252187
0.253013
0.253579
0.25388
0.253916
0.253695
0.253226
0.252525
0.25161
0.2505
0.249219
0.247789
0.246233
0.244574
0.242836
0.241045
0.239236
0.237459
0.235784
0.234302
0.233103
0.232253
0.231765
0.231577