/*--------------------------------*- C++ -*----------------------------------*\
| =========                 |                                                 |
| \\      /  F ield         | OpenFOAM: The Open Source CFD Toolbox           |
|  \\    /   O peration     | Version:  2.1.1                                 |
|   \\  /    A nd           | Web:      www.OpenFOAM.org                      |
|    \\/     M anipulation  |                                                 |
\*---------------------------------------------------------------------------*/
FoamFile
{
    version     2.0;
    format      ascii;
    class       volScalarField;
    location    "0.05";
    object      nut;
}
// * * * * * * * * * * * * * * * * * * * * * * * * * * * * * * * * * * * * * //

dimensions      [0 2 -1 0 0 0 0];

internalField   nonuniform List<scalar> 
6820
(
4.96025e-05
5.47044e-05
5.94497e-05
6.37667e-05
6.76164e-05
7.09771e-05
7.38471e-05
7.62441e-05
7.82004e-05
7.97576e-05
8.0962e-05
8.18615e-05
8.25019e-05
8.29262e-05
8.31731e-05
8.32764e-05
8.32654e-05
8.31648e-05
8.29953e-05
8.27737e-05
8.2514e-05
8.22271e-05
8.19218e-05
8.16048e-05
8.12812e-05
8.09547e-05
8.06275e-05
8.03016e-05
7.99741e-05
7.96603e-05
7.92801e-05
7.92083e-05
7.75959e-05
0.000540296
0.000304963
0.000219945
0.00017154
0.000140499
0.000119635
0.000105109
9.4725e-05
8.71607e-05
8.15794e-05
7.74308e-05
7.4341e-05
7.20495e-05
7.03701e-05
6.91673e-05
6.83407e-05
6.78148e-05
6.75318e-05
6.74468e-05
6.75247e-05
6.77371e-05
6.80615e-05
6.84791e-05
6.89743e-05
6.95341e-05
7.0147e-05
7.08033e-05
7.14937e-05
7.22114e-05
7.29434e-05
7.36944e-05
7.44278e-05
7.51188e-05
0.00105857
0.000836094
0.00067925
0.000569628
0.00049007
0.000430135
0.000383722
0.000346877
0.000316977
0.000292261
0.000271514
0.000253874
0.000238712
0.000225563
0.000214069
0.000203954
0.000195002
0.000187037
0.00017992
0.000173534
0.000167784
0.00016259
0.000157884
0.000153609
0.000149715
0.000146158
0.000142901
0.000139908
0.000137146
0.000134594
0.000132182
0.000130009
0.000127534
0.00115953
0.00109653
0.00101168
0.000926432
0.000849832
0.000783648
0.000727103
0.000678784
0.000637276
0.000601356
0.000570022
0.000542469
0.000518058
0.000496281
0.000476729
0.000459075
0.000443052
0.000428444
0.000415071
0.000402782
0.000391452
0.000380975
0.00037126
0.00036223
0.00035382
0.000345973
0.000338642
0.000331789
0.000325385
0.000319412
0.00031386
0.000308763
0.000304106
0.00116966
0.00115863
0.00113363
0.00109757
0.00105569
0.00101221
0.000969679
0.000929422
0.000891981
0.00085748
0.00082583
0.000796838
0.000770278
0.000745917
0.000723534
0.000702924
0.000683905
0.000666312
0.00065
0.00063484
0.000620719
0.000607535
0.000595199
0.000583631
0.000572759
0.00056252
0.000552856
0.000543716
0.000535055
0.000526835
0.000519025
0.000511606
0.000504587
0.00117006
0.00116839
0.00116306
0.00115261
0.00113713
0.00111767
0.00109554
0.00107191
0.0010477
0.00102358
0.00099997
0.000977146
0.000955264
0.000934401
0.000914584
0.000895806
0.000878038
0.000861237
0.000845354
0.000830335
0.000816127
0.000802673
0.000789922
0.000777821
0.00076632
0.000755369
0.000744922
0.000734932
0.000725355
0.000716146
0.000707261
0.000698663
0.000690313
0.00116996
0.00116938
0.00116821
0.00116569
0.00116123
0.00115458
0.00114583
0.00113527
0.00112327
0.00111022
0.00109646
0.0010823
0.00106797
0.00105365
0.00103949
0.00102558
0.001012
0.000998792
0.00098599
0.000973611
0.000961661
0.000950137
0.000939031
0.000928329
0.000918016
0.000908069
0.000898467
0.000889185
0.000880194
0.000871466
0.000862971
0.000854679
0.000846561
0.00116994
0.0011694
0.00116883
0.00116803
0.00116674
0.00116472
0.0011618
0.0011579
0.00115304
0.00114727
0.00114072
0.00113352
0.00112578
0.00111765
0.00110922
0.00110061
0.00109188
0.00108311
0.00107436
0.00106568
0.00105709
0.00104862
0.0010403
0.00103213
0.00102413
0.00101629
0.00100862
0.00100111
0.000993755
0.000986542
0.000979459
0.000972494
0.000965634
0.00116994
0.00116939
0.00116886
0.00116832
0.0011677
0.00116692
0.00116588
0.00116449
0.00116268
0.00116043
0.00115771
0.00115454
0.00115096
0.00114699
0.00114269
0.0011381
0.00113327
0.00112825
0.00112307
0.00111778
0.00111241
0.00110699
0.00110154
0.00109608
0.00109062
0.00108519
0.00107979
0.00107442
0.0010691
0.00106382
0.00105858
0.00105338
0.00104823
0.00116994
0.00116938
0.00116885
0.00116833
0.00116782
0.00116729
0.00116671
0.00116605
0.00116526
0.00116432
0.00116318
0.00116185
0.00116029
0.00115851
0.00115652
0.00115432
0.00115193
0.00114937
0.00114664
0.00114378
0.00114079
0.0011377
0.00113452
0.00113127
0.00112796
0.0011246
0.0011212
0.00111777
0.00111432
0.00111085
0.00110738
0.0011039
0.00110043
0.00116994
0.00116938
0.00116884
0.00116832
0.00116782
0.00116732
0.00116683
0.00116634
0.00116582
0.00116527
0.00116466
0.00116399
0.00116323
0.00116239
0.00116145
0.0011604
0.00115925
0.001158
0.00115665
0.0011552
0.00115366
0.00115203
0.00115032
0.00114854
0.0011467
0.0011448
0.00114285
0.00114085
0.00113882
0.00113675
0.00113466
0.00113254
0.00113042
0.00116994
0.00116938
0.00116884
0.00116832
0.00116781
0.00116732
0.00116684
0.00116637
0.00116591
0.00116545
0.00116499
0.00116451
0.00116402
0.0011635
0.00116295
0.00116237
0.00116174
0.00116108
0.00116036
0.0011596
0.00115879
0.00115794
0.00115703
0.00115608
0.00115509
0.00115406
0.001153
0.0011519
0.00115076
0.00114961
0.00114843
0.00114723
0.00114603
0.00116994
0.00116938
0.00116884
0.00116832
0.00116781
0.00116732
0.00116684
0.00116637
0.00116591
0.00116547
0.00116504
0.00116461
0.00116419
0.00116376
0.00116334
0.00116291
0.00116247
0.00116202
0.00116156
0.00116109
0.00116059
0.00116008
0.00115955
0.001159
0.00115844
0.00115785
0.00115725
0.00115662
0.00115599
0.00115534
0.00115469
0.00115403
0.00115337
0.00116994
0.00116938
0.00116884
0.00116832
0.00116781
0.00116731
0.00116683
0.00116636
0.00116591
0.00116547
0.00116504
0.00116462
0.00116421
0.00116381
0.00116342
0.00116303
0.00116265
0.00116227
0.00116189
0.00116152
0.00116114
0.00116076
0.00116038
0.00116
0.00115961
0.00115922
0.00115883
0.00115843
0.00115804
0.00115764
0.00115724
0.00115685
0.00115647
0.00116994
0.00116938
0.00116884
0.00116832
0.00116781
0.00116731
0.00116683
0.00116636
0.00116591
0.00116546
0.00116503
0.00116462
0.00116421
0.00116381
0.00116343
0.00116305
0.00116268
0.00116232
0.00116197
0.00116162
0.00116128
0.00116095
0.00116062
0.0011603
0.00115998
0.00115966
0.00115935
0.00115905
0.00115875
0.00115846
0.00115818
0.00115791
0.00115765
0.00116994
0.00116938
0.00116884
0.00116831
0.0011678
0.00116731
0.00116683
0.00116636
0.0011659
0.00116546
0.00116503
0.00116461
0.0011642
0.00116381
0.00116342
0.00116305
0.00116268
0.00116233
0.00116198
0.00116164
0.00116131
0.00116099
0.00116068
0.00116037
0.00116007
0.00115978
0.0011595
0.00115923
0.00115897
0.00115872
0.00115848
0.00115826
0.00115805
0.00116994
0.00116938
0.00116884
0.00116831
0.0011678
0.00116731
0.00116683
0.00116636
0.0011659
0.00116546
0.00116503
0.00116461
0.0011642
0.0011638
0.00116342
0.00116304
0.00116268
0.00116232
0.00116198
0.00116164
0.00116131
0.00116099
0.00116068
0.00116038
0.00116009
0.00115981
0.00115954
0.00115928
0.00115903
0.00115879
0.00115857
0.00115836
0.00115816
0.00116994
0.00116938
0.00116884
0.00116831
0.0011678
0.00116731
0.00116682
0.00116635
0.0011659
0.00116546
0.00116502
0.0011646
0.0011642
0.0011638
0.00116341
0.00116304
0.00116267
0.00116232
0.00116197
0.00116163
0.00116131
0.00116099
0.00116068
0.00116038
0.00116009
0.00115982
0.00115955
0.00115929
0.00115904
0.00115881
0.00115859
0.00115838
0.00115819
0.00116994
0.00116938
0.00116884
0.00116831
0.0011678
0.00116731
0.00116682
0.00116635
0.0011659
0.00116545
0.00116502
0.0011646
0.00116419
0.0011638
0.00116341
0.00116303
0.00116267
0.00116231
0.00116197
0.00116163
0.0011613
0.00116099
0.00116068
0.00116038
0.00116009
0.00115981
0.00115954
0.00115929
0.00115904
0.00115881
0.00115858
0.00115838
0.00115819
0.00116994
0.00116938
0.00116884
0.00116831
0.0011678
0.0011673
0.00116682
0.00116635
0.0011659
0.00116545
0.00116502
0.0011646
0.00116419
0.00116379
0.00116341
0.00116303
0.00116266
0.00116231
0.00116196
0.00116163
0.0011613
0.00116098
0.00116067
0.00116038
0.00116009
0.00115981
0.00115954
0.00115928
0.00115904
0.0011588
0.00115858
0.00115837
0.00115817
0.00116994
0.00116938
0.00116884
0.00116831
0.0011678
0.0011673
0.00116682
0.00116635
0.00116589
0.00116545
0.00116502
0.0011646
0.00116419
0.00116379
0.0011634
0.00116303
0.00116266
0.0011623
0.00116196
0.00116162
0.0011613
0.00116098
0.00116067
0.00116037
0.00116008
0.0011598
0.00115954
0.00115928
0.00115903
0.00115879
0.00115857
0.00115836
0.00115816
0.00116994
0.00116938
0.00116884
0.00116831
0.0011678
0.0011673
0.00116682
0.00116635
0.00116589
0.00116545
0.00116502
0.00116459
0.00116419
0.00116379
0.0011634
0.00116302
0.00116266
0.0011623
0.00116195
0.00116162
0.00116129
0.00116097
0.00116067
0.00116037
0.00116008
0.0011598
0.00115953
0.00115927
0.00115902
0.00115878
0.00115856
0.00115834
0.00115814
0.00116994
0.00116938
0.00116884
0.00116831
0.0011678
0.0011673
0.00116682
0.00116635
0.00116589
0.00116545
0.00116501
0.00116459
0.00116418
0.00116379
0.0011634
0.00116302
0.00116265
0.0011623
0.00116195
0.00116161
0.00116129
0.00116097
0.00116066
0.00116036
0.00116007
0.00115979
0.00115952
0.00115926
0.00115901
0.00115877
0.00115854
0.00115832
0.00115812
0.00116994
0.00116938
0.00116884
0.00116831
0.0011678
0.0011673
0.00116682
0.00116635
0.00116589
0.00116545
0.00116501
0.00116459
0.00116418
0.00116378
0.0011634
0.00116302
0.00116265
0.00116229
0.00116195
0.00116161
0.00116128
0.00116096
0.00116066
0.00116036
0.00116007
0.00115978
0.00115951
0.00115925
0.001159
0.00115876
0.00115853
0.0011583
0.0011581
0.00116994
0.00116938
0.00116884
0.00116831
0.0011678
0.0011673
0.00116682
0.00116635
0.00116589
0.00116544
0.00116501
0.00116459
0.00116418
0.00116378
0.00116339
0.00116302
0.00116265
0.00116229
0.00116194
0.00116161
0.00116128
0.00116096
0.00116065
0.00116035
0.00116006
0.00115978
0.0011595
0.00115924
0.00115899
0.00115874
0.00115851
0.00115828
0.00115807
0.00116994
0.00116938
0.00116884
0.00116831
0.0011678
0.0011673
0.00116682
0.00116635
0.00116589
0.00116544
0.00116501
0.00116459
0.00116418
0.00116378
0.00116339
0.00116301
0.00116265
0.00116229
0.00116194
0.0011616
0.00116127
0.00116095
0.00116064
0.00116034
0.00116005
0.00115977
0.00115949
0.00115923
0.00115897
0.00115873
0.00115849
0.00115826
0.00115805
0.00116994
0.00116938
0.00116884
0.00116831
0.0011678
0.0011673
0.00116682
0.00116635
0.00116589
0.00116544
0.00116501
0.00116459
0.00116418
0.00116378
0.00116339
0.00116301
0.00116264
0.00116229
0.00116194
0.0011616
0.00116127
0.00116095
0.00116064
0.00116034
0.00116004
0.00115976
0.00115948
0.00115922
0.00115896
0.00115871
0.00115847
0.00115824
0.00115802
0.00116994
0.00116938
0.00116884
0.00116831
0.0011678
0.0011673
0.00116682
0.00116635
0.00116589
0.00116544
0.00116501
0.00116459
0.00116418
0.00116378
0.00116339
0.00116301
0.00116264
0.00116228
0.00116193
0.00116159
0.00116126
0.00116094
0.00116063
0.00116033
0.00116003
0.00115975
0.00115947
0.0011592
0.00115894
0.00115869
0.00115845
0.00115822
0.001158
0.00116994
0.00116938
0.00116884
0.00116831
0.0011678
0.0011673
0.00116682
0.00116635
0.00116589
0.00116544
0.00116501
0.00116459
0.00116418
0.00116378
0.00116339
0.00116301
0.00116264
0.00116228
0.00116193
0.00116159
0.00116126
0.00116094
0.00116063
0.00116032
0.00116003
0.00115974
0.00115946
0.00115919
0.00115893
0.00115868
0.00115843
0.0011582
0.00115797
0.00116994
0.00116938
0.00116884
0.00116831
0.0011678
0.0011673
0.00116682
0.00116635
0.00116589
0.00116544
0.00116501
0.00116459
0.00116418
0.00116378
0.00116339
0.00116301
0.00116264
0.00116228
0.00116193
0.00116159
0.00116126
0.00116094
0.00116062
0.00116032
0.00116002
0.00115973
0.00115945
0.00115918
0.00115892
0.00115866
0.00115842
0.00115818
0.00115795
0.00116994
0.00116938
0.00116884
0.00116831
0.0011678
0.0011673
0.00116682
0.00116635
0.00116589
0.00116544
0.00116501
0.00116459
0.00116418
0.00116378
0.00116339
0.00116301
0.00116264
0.00116228
0.00116193
0.00116159
0.00116126
0.00116094
0.00116062
0.00116031
0.00116002
0.00115973
0.00115944
0.00115917
0.0011589
0.00115864
0.00115839
0.00115815
0.00115792
0.00116994
0.00116938
0.00116884
0.00116831
0.0011678
0.00116731
0.00116682
0.00116635
0.0011659
0.00116545
0.00116502
0.0011646
0.00116419
0.00116379
0.0011634
0.00116302
0.00116265
0.00116229
0.00116193
0.00116159
0.00116126
0.00116093
0.00116061
0.0011603
0.00116
0.0011597
0.00115942
0.00115913
0.00115886
0.00115859
0.00115833
0.00115808
0.00115784
0.00116994
0.00116938
0.00116884
0.00116831
0.00116781
0.00116731
0.00116683
0.00116636
0.0011659
0.00116546
0.00116503
0.0011646
0.00116419
0.00116379
0.0011634
0.00116301
0.00116264
0.00116227
0.00116191
0.00116156
0.00116121
0.00116087
0.00116053
0.0011602
0.00115987
0.00115955
0.00115924
0.00115893
0.00115862
0.00115832
0.00115802
0.00115773
0.00115744
0.00116994
0.00116938
0.00116884
0.00116833
0.00116782
0.00116733
0.00116685
0.00116639
0.00116593
0.00116548
0.00116503
0.0011646
0.00116416
0.00116374
0.00116331
0.00116289
0.00116247
0.00116204
0.00116162
0.0011612
0.00116077
0.00116034
0.00115991
0.00115948
0.00115904
0.00115861
0.00115816
0.00115772
0.00115727
0.00115683
0.00115637
0.00115592
0.00115547
0.00116994
0.00116939
0.00116886
0.00116835
0.00116784
0.00116733
0.00116683
0.00116632
0.00116581
0.00116528
0.00116473
0.00116417
0.00116358
0.00116297
0.00116233
0.00116167
0.00116097
0.00116025
0.0011595
0.00115872
0.00115792
0.00115708
0.00115623
0.00115535
0.00115445
0.00115353
0.00115259
0.00115164
0.00115067
0.00114969
0.00114869
0.00114769
0.00114668
0.00116995
0.0011694
0.00116886
0.00116828
0.00116765
0.00116694
0.00116612
0.00116519
0.00116413
0.00116295
0.00116163
0.00116018
0.0011586
0.0011569
0.00115508
0.00115316
0.00115115
0.00114904
0.00114686
0.0011446
0.00114229
0.00113992
0.00113751
0.00113506
0.00113259
0.0011301
0.00112759
0.00112507
0.00112255
0.00112003
0.00111752
0.00111502
0.00111254
0.00116996
0.00116916
0.00116786
0.00116595
0.00116343
0.0011603
0.00115657
0.00115228
0.00114748
0.00114224
0.00113661
0.00113067
0.00112448
0.00111808
0.00111154
0.0011049
0.0010982
0.00109148
0.00108476
0.00107807
0.00107144
0.00106488
0.00105842
0.00105205
0.0010458
0.00103968
0.00103368
0.00102782
0.0010221
0.00101652
0.00101109
0.00100581
0.00100068
0.00116831
0.00115866
0.001145
0.00112844
0.00110969
0.00108948
0.00106844
0.0010471
0.00102584
0.00100493
0.000984556
0.000964838
0.000945849
0.000927626
0.00091018
0.000893508
0.000877593
0.000862413
0.00084794
0.000834142
0.000820988
0.000808446
0.000796484
0.000785072
0.000774179
0.000763777
0.000753839
0.000744338
0.00073525
0.000726552
0.000718221
0.000710236
0.000702576
0.00107567
0.000936196
0.000835612
0.000756894
0.000692096
0.000638339
0.000593417
0.000555502
0.000523155
0.000495272
0.000471006
0.000449703
0.000430857
0.000414068
0.000399022
0.000385462
0.000373182
0.000362011
0.00035181
0.000342459
0.000333859
0.000325926
0.000318586
0.000311778
0.000305446
0.000299545
0.000294033
0.000288873
0.000284035
0.000279489
0.000275212
0.000271181
0.000267375
0.000142979
0.000146644
0.000150174
0.000153551
0.000156773
0.000159846
0.000162776
0.000165567
0.000168225
0.000170754
0.000173161
0.000175449
0.000177624
0.00017969
0.000181652
0.000183514
0.000185281
0.000186958
0.000188547
0.000190054
0.000191482
0.000192835
0.000194117
0.00019533
0.000196479
0.000197566
0.000198594
0.000199567
0.000200486
0.000201355
0.000202176
0.000202951
0.000203683
9.02847e-05
0.000114354
0.000151912
0.000203708
0.000266754
0.000334479
0.000402301
0.000471572
0.000546976
0.000630937
0.000720991
0.000811943
0.000899359
0.000980874
0.00105548
0.00112255
0.0011807
0.0012288
0.00126562
0.0012899
0.00130025
0.00129512
0.00127274
0.00123108
0.00116804
0.00108167
0.000971078
0.000838446
0.000693287
0.000559112
0.000480612
0.000529473
0.000763451
0.00105379
0.00125382
0.0013953
0.00151425
0.00161827
0.00170697
0.00177982
0.00183746
0.00188152
0.00191414
0.00193756
0.00195387
0.00196489
0.00197217
0.00197694
0.00198024
0.00198288
0.00198555
0.00198885
0.00199332
0.00199947
0.00200778
0.0020187
0.0020325
0.0020492
0.0020684
0.00208921
0.00211028
0.00212989
0.0021462
0.00215743
0.00216195
0.00215837
0.00214547
0.0021223
0.00208819
0.00204294
0.00198692
0.00192121
0.00184759
0.00176848
0.00168681
0.00160576
0.00152843
0.0014575
0.00139486
0.00134135
0.00129688
0.00126065
0.00123158
0.00120861
0.00119072
0.00117702
0.00116666
0.00115888
0.00115307
0.00114875
0.00114554
0.00114317
0.00114143
0.00114018
0.00113928
0.00113865
0.00113821
0.00113792
0.00113773
0.00113756
7.64048e-05
7.86979e-05
8.31794e-05
9.3018e-05
0.00011296
0.000147385
0.000197888
0.000262093
0.000334469
0.000409044
0.000482121
0.000552811
0.000621511
0.00068812
0.000751412
0.000809367
0.000859826
0.000901235
0.000932478
0.000952519
0.00096005
0.000953371
0.000930511
0.000889517
0.000829
0.000749172
0.000653773
0.0005533
0.000469409
0.000439995
0.000521182
0.000738275
0.000984106
0.00116748
0.00130711
0.00142656
0.00153197
0.00162345
0.0017005
0.00176338
0.00181306
0.00185109
0.00187932
0.00189963
0.00191378
0.00192329
0.00192949
0.00193343
0.00193599
0.00193789
0.00193974
0.00194206
0.00194535
0.00195009
0.00195679
0.00196593
0.00197792
0.00199292
0.00201073
0.00203065
0.00205144
0.00207147
0.00208888
0.00210185
0.00210871
0.00210799
0.00209846
0.00207909
0.00204916
0.00200834
0.00195687
0.00189567
0.00182638
0.0017513
0.00167323
0.00159528
0.00152052
0.00145165
0.00139062
0.00133837
0.00129491
0.0012595
0.00123108
0.00120857
0.00119098
0.00117744
0.00116715
0.0011594
0.0011536
0.00114928
0.00114607
0.00114371
0.00114197
0.00114071
0.00113981
0.00113917
0.00113873
0.00113843
0.00113823
0.00113805
0.000125171
0.000123615
0.000123035
0.000121404
0.000115124
0.000105461
0.000101855
0.000111976
0.000138256
0.000180078
0.000234623
0.000297244
0.000362501
0.000425519
0.000482946
0.000532701
0.000573701
0.000606045
0.000629545
0.000643298
0.000645909
0.000635912
0.000612261
0.000574955
0.000526022
0.000471063
0.000421479
0.000397682
0.000432537
0.000560872
0.000762335
0.000955607
0.00111056
0.00124052
0.00135525
0.00145751
0.00154762
0.00162539
0.00169081
0.00174428
0.00178671
0.00181935
0.00184373
0.00186135
0.00187367
0.00188197
0.00188732
0.00189063
0.00189266
0.00189402
0.00189524
0.00189679
0.00189909
0.0019026
0.00190781
0.00191523
0.00192533
0.00193844
0.00195455
0.00197316
0.00199322
0.00201321
0.00203132
0.00204571
0.00205467
0.00205669
0.00205049
0.002035
0.0020094
0.00197322
0.00192657
0.00187019
0.00180553
0.00173473
0.00166049
0.00158579
0.00151369
0.00144689
0.00138741
0.00133633
0.00129373
0.00125899
0.00123108
0.00120891
0.00119153
0.00117807
0.00116779
0.00116002
0.00115419
0.00114984
0.0011466
0.00114421
0.00114246
0.00114118
0.00114026
0.0011396
0.00113914
0.00113883
0.00113861
0.00113842
0.000299285
0.000295312
0.000295456
0.000305117
0.000332798
0.000380558
0.000400998
0.000330833
0.000232773
0.000172218
0.000148916
0.000150381
0.000167858
0.000195656
0.000229277
0.000264938
0.000299425
0.00032937
0.000352267
0.00036673
0.000372416
0.000369995
0.00036143
0.000350718
0.000345157
0.000357168
0.00040535
0.000507486
0.000656419
0.000814633
0.000957431
0.00108432
0.00119898
0.00130318
0.0013976
0.00148241
0.00155743
0.00162242
0.00167733
0.00172248
0.00175854
0.00178652
0.00180758
0.00182295
0.00183378
0.00184111
0.00184583
0.00184872
0.0018504
0.0018514
0.00185218
0.00185314
0.00185466
0.00185714
0.00186104
0.00186686
0.00187512
0.00188625
0.00190043
0.00191739
0.00193629
0.00195578
0.00197415
0.00198958
0.00200032
0.00200485
0.00200186
0.00199021
0.001969
0.00193763
0.00189601
0.0018447
0.00178494
0.0017187
0.00164849
0.00157722
0.00150788
0.00144317
0.0013852
0.00133517
0.00129331
0.00125909
0.00123154
0.00120961
0.00119234
0.0011789
0.00116857
0.00116073
0.00115483
0.00115042
0.00114713
0.00114469
0.0011429
0.00114159
0.00114063
0.00113995
0.00113946
0.00113913
0.00113889
0.00113868
0.00049689
0.000488611
0.000481372
0.000477211
0.000481661
0.000507332
0.000576831
0.000728574
0.000955006
0.000997496
0.000771728
0.000534785
0.000383908
0.000301847
0.000261878
0.00024581
0.000243159
0.000248622
0.000259262
0.000273628
0.000291732
0.000315342
0.000348252
0.00039599
0.000463878
0.000552937
0.000657073
0.000767006
0.000876667
0.00098328
0.00108497
0.00118062
0.00126994
0.00135288
0.00142923
0.00149855
0.00156036
0.00161429
0.00166018
0.0016982
0.00172886
0.00175289
0.00177118
0.00178469
0.00179433
0.00180093
0.00180523
0.00180785
0.00180933
0.00181013
0.00181063
0.00181119
0.00181212
0.00181378
0.00181658
0.00182099
0.00182753
0.00183673
0.00184889
0.00186396
0.00188136
0.00189993
0.0019181
0.00193412
0.00194626
0.00195298
0.00195294
0.00194497
0.00192808
0.00190155
0.00186509
0.00181902
0.00176437
0.00170288
0.00163691
0.00156923
0.00150275
0.0014402
0.00138374
0.0013347
0.00129348
0.00125967
0.00123238
0.00121058
0.00119335
0.00117988
0.00116947
0.00116153
0.00115553
0.00115102
0.00114766
0.00114516
0.00114331
0.00114195
0.00114095
0.00114023
0.00113971
0.00113935
0.00113909
0.00113885
0.00068084
0.000670081
0.000659174
0.000648149
0.000637603
0.000630058
0.000631788
0.000654524
0.000714262
0.000814019
0.0009323
0.00101771
0.0010053
0.000895439
0.000749985
0.000632391
0.000562654
0.000525461
0.000510769
0.000513367
0.000530686
0.000561438
0.000604704
0.000659277
0.000723342
0.00079456
0.000870372
0.000948356
0.00102659
0.00110379
0.00117913
0.00125196
0.00132171
0.00138773
0.00144934
0.00150585
0.00155667
0.00160137
0.00163974
0.00167185
0.00169803
0.0017188
0.00173484
0.00174686
0.00175557
0.00176165
0.00176568
0.00176818
0.0017696
0.00177032
0.00177069
0.00177099
0.00177152
0.00177256
0.00177448
0.00177769
0.00178272
0.0017901
0.00180028
0.00181336
0.00182901
0.00184631
0.00186386
0.00188002
0.00189311
0.0019016
0.00190416
0.00189961
0.00188686
0.00186507
0.00183377
0.00179302
0.00174361
0.00168705
0.00162549
0.00156155
0.00149806
0.00143773
0.00138281
0.00133475
0.00129411
0.00126062
0.00123349
0.00121177
0.00119453
0.00118098
0.00117046
0.00116239
0.00115627
0.00115166
0.0011482
0.00114562
0.00114369
0.00114227
0.00114123
0.00114046
0.0011399
0.0011395
0.00113922
0.00113895
0.00083725
0.000826547
0.000815556
0.000804183
0.000792342
0.0007801
0.000768245
0.000759299
0.00075847
0.000771254
0.00079991
0.00084108
0.000882694
0.000907799
0.000902268
0.000875324
0.000843858
0.000817698
0.000801283
0.000796063
0.000802061
0.000818621
0.000844732
0.000879168
0.000920586
0.000967615
0.00101893
0.00107331
0.00112965
0.00118697
0.00124439
0.00130109
0.00135629
0.00140921
0.00145909
0.00150527
0.00154716
0.00158434
0.00161659
0.00164389
0.00166644
0.00168459
0.00169883
0.0017097
0.00171773
0.00172346
0.00172735
0.00172984
0.0017313
0.00173206
0.0017324
0.00173259
0.00173286
0.00173347
0.00173471
0.00173697
0.00174072
0.00174649
0.0017548
0.00176591
0.0017797
0.00179547
0.00181205
0.00182792
0.0018415
0.00185131
0.00185604
0.00185451
0.0018456
0.00182836
0.0018021
0.00176666
0.00172255
0.00167103
0.001614
0.00155394
0.00149357
0.00143557
0.00138224
0.00133516
0.00129506
0.00126184
0.00123482
0.00121311
0.00119581
0.00118216
0.00117151
0.0011633
0.00115704
0.0011523
0.00114874
0.00114606
0.00114406
0.00114257
0.00114146
0.00114065
0.00114005
0.00113961
0.00113929
0.00113898
0.000957723
0.000948589
0.000939201
0.000929524
0.00091953
0.000909197
0.000898544
0.000887806
0.00087794
0.000870962
0.000869267
0.000874396
0.000885828
0.000900706
0.000914251
0.00092388
0.000929522
0.000932949
0.00093656
0.000942526
0.000952427
0.000967193
0.000987192
0.00101236
0.00104234
0.0010766
0.00111446
0.00115523
0.00119817
0.00124252
0.00128756
0.00133254
0.00137674
0.00141949
0.00146014
0.00149809
0.00153285
0.00156402
0.00159138
0.00161485
0.00163452
0.00165061
0.00166346
0.00167346
0.00168102
0.00168654
0.00169042
0.00169298
0.00169456
0.00169543
0.00169584
0.00169601
0.00169615
0.00169648
0.00169725
0.00169877
0.00170148
0.00170588
0.00171252
0.00172178
0.0017337
0.00174782
0.00176317
0.0017784
0.00179204
0.00180269
0.00180911
0.00181013
0.00180466
0.00179163
0.0017702
0.00173995
0.00170112
0.00165467
0.00160228
0.00154621
0.00148907
0.0014335
0.00138184
0.00133578
0.00129622
0.00126323
0.00123627
0.00121453
0.00119715
0.00118338
0.00117258
0.00116422
0.00115782
0.00115295
0.00114927
0.00114649
0.00114441
0.00114284
0.00114167
0.0011408
0.00114015
0.00113967
0.00113932
0.00113897
0.00104226
0.00103533
0.00102821
0.00102089
0.00101339
0.00100574
0.000997997
0.000990205
0.000982511
0.000975325
0.000969437
0.000965877
0.000965516
0.000968639
0.000974614
0.000982434
0.00099134
0.001001
0.00101152
0.00102335
0.00103703
0.00105309
0.00107192
0.00109371
0.00111848
0.00114608
0.00117624
0.00120858
0.00124265
0.00127795
0.00131396
0.00135013
0.00138591
0.00142077
0.00145419
0.00148569
0.00151484
0.0015413
0.00156482
0.00158528
0.0016027
0.0016172
0.001629
0.00163837
0.00164561
0.00165105
0.00165498
0.0016577
0.00165946
0.0016605
0.00166104
0.00166128
0.00166139
0.00166156
0.00166201
0.001663
0.0016649
0.00166818
0.00167339
0.00168098
0.00169113
0.00170358
0.00171755
0.00173189
0.00174523
0.00175628
0.00176388
0.00176695
0.00176442
0.00175518
0.00173824
0.00171297
0.00167929
0.00163788
0.00159016
0.00153817
0.00148437
0.00143134
0.00138143
0.00133646
0.00129746
0.00126469
0.00123777
0.00121597
0.00119849
0.00118459
0.00117365
0.00116514
0.00115858
0.00115358
0.00114978
0.0011469
0.00114472
0.00114308
0.00114184
0.00114091
0.00114021
0.00113969
0.00113931
0.00113891
0.00109637
0.00109165
0.00108679
0.00108181
0.00107674
0.00107164
0.00106655
0.00106155
0.00105674
0.00105222
0.00104823
0.00104512
0.00104336
0.00104341
0.00104548
0.00104959
0.00105565
0.00106352
0.00107311
0.00108438
0.0010974
0.00111226
0.00112908
0.0011479
0.00116875
0.00119155
0.00121615
0.00124234
0.00126985
0.00129837
0.00132753
0.00135697
0.00138628
0.00141506
0.0014429
0.00146941
0.00149422
0.00151702
0.00153756
0.00155569
0.00157138
0.00158466
0.00159567
0.0016046
0.00161166
0.0016171
0.00162116
0.00162406
0.00162604
0.0016273
0.00162802
0.00162838
0.00162854
0.00162867
0.00162892
0.00162954
0.00163084
0.00163325
0.00163728
0.00164343
0.00165198
0.00166283
0.00167539
0.00168867
0.00170144
0.00171252
0.00172084
0.00172543
0.00172529
0.00171934
0.00170647
0.00168583
0.0016571
0.00162062
0.00157755
0.00152968
0.00147931
0.00142892
0.00138086
0.00133704
0.00129866
0.00126614
0.00123925
0.00121738
0.00119978
0.00118574
0.00117466
0.001166
0.00115931
0.00115417
0.00115026
0.00114728
0.00114501
0.00114329
0.00114198
0.00114099
0.00114024
0.00113967
0.00113925
0.00113881
0.00112792
0.00112501
0.00112201
0.00111895
0.00111588
0.00111284
0.00110988
0.00110708
0.0011045
0.00110223
0.00110037
0.00109908
0.00109852
0.00109894
0.00110057
0.00110357
0.00110808
0.00111416
0.00112184
0.00113111
0.00114199
0.00115448
0.00116856
0.00118424
0.00120147
0.00122019
0.0012403
0.00126166
0.0012841
0.00130742
0.00133137
0.00135568
0.00138007
0.00140423
0.00142782
0.00145052
0.001472
0.00149198
0.00151023
0.00152656
0.00154091
0.00155327
0.0015637
0.00157232
0.00157929
0.00158478
0.001589
0.00159213
0.00159435
0.00159585
0.00159679
0.00159732
0.00159758
0.00159773
0.0015979
0.00159829
0.00159917
0.00160091
0.001604
0.00160895
0.00161611
0.0016255
0.00163671
0.00164888
0.00166092
0.00167173
0.00168037
0.00168598
0.00168769
0.00168446
0.00167515
0.00165874
0.00163463
0.0016029
0.00156438
0.00152063
0.00147374
0.00142608
0.00137999
0.00133742
0.00129972
0.00126748
0.00124064
0.0012187
0.00120098
0.00118681
0.00117559
0.0011668
0.00115997
0.00115471
0.00115068
0.0011476
0.00114525
0.00114345
0.00114208
0.00114103
0.00114023
0.00113962
0.00113916
0.00113867
0.00114461
0.00114296
0.00114128
0.0011396
0.00113794
0.00113636
0.00113491
0.00113363
0.0011326
0.00113187
0.00113152
0.00113164
0.0011323
0.00113363
0.00113576
0.00113882
0.00114292
0.00114817
0.00115463
0.00116235
0.00117137
0.0011817
0.00119334
0.00120627
0.00122048
0.0012359
0.00125247
0.0012701
0.00128868
0.00130807
0.0013281
0.00134858
0.00136927
0.00138994
0.00141032
0.00143012
0.00144906
0.00146688
0.00148334
0.00149829
0.0015116
0.00152325
0.00153323
0.00154164
0.00154857
0.00155416
0.00155856
0.00156192
0.0015644
0.00156615
0.00156732
0.00156805
0.00156846
0.00156868
0.00156884
0.00156911
0.00156971
0.00157097
0.00157334
0.00157732
0.0015833
0.00159143
0.0016014
0.00161249
0.00162372
0.00163409
0.00164274
0.00164895
0.00165197
0.00165089
0.00164457
0.0016319
0.00161204
0.00158478
0.00155066
0.00151097
0.00146757
0.00142272
0.00137868
0.00133747
0.00130053
0.00126863
0.00124187
0.00121988
0.00120206
0.00118776
0.00117641
0.00116748
0.00116053
0.00115516
0.00115103
0.00114786
0.00114542
0.00114356
0.00114212
0.00114102
0.00114017
0.00113952
0.00113903
0.00113849
0.0011526
0.00115172
0.00115085
0.00115
0.00114922
0.00114855
0.00114802
0.00114768
0.00114758
0.00114778
0.00114833
0.00114928
0.0011507
0.00115266
0.00115523
0.00115849
0.00116251
0.00116737
0.00117314
0.00117987
0.00118759
0.00119636
0.00120617
0.00121704
0.00122895
0.0012419
0.00125583
0.00127069
0.00128641
0.00130289
0.00132002
0.00133764
0.00135558
0.00137363
0.00139157
0.00140915
0.00142613
0.00144226
0.00145734
0.00147118
0.00148367
0.00149475
0.00150439
0.00151264
0.00151957
0.00152526
0.00152985
0.00153344
0.00153617
0.00153818
0.00153959
0.00154053
0.00154111
0.00154145
0.00154166
0.00154189
0.00154232
0.00154325
0.00154508
0.00154829
0.00155332
0.00156037
0.00156925
0.00157936
0.0015898
0.00159964
0.00160809
0.00161455
0.00161843
0.00161895
0.00161505
0.00160557
0.0015895
0.00156638
0.00153644
0.00150068
0.00146076
0.00141875
0.00137686
0.0013371
0.00130102
0.00126954
0.0012429
0.00122089
0.00120297
0.00118856
0.00117709
0.00116805
0.00116099
0.00115551
0.00115129
0.00114803
0.00114553
0.0011436
0.00114211
0.00114096
0.00114007
0.00113937
0.00113885
0.00113828
0.00115604
0.00115557
0.00115513
0.00115473
0.00115442
0.00115423
0.00115418
0.00115433
0.0011547
0.00115536