/*--------------------------------*- C++ -*----------------------------------*\
| =========                 |                                                 |
| \\      /  F ield         | OpenFOAM: The Open Source CFD Toolbox           |
|  \\    /   O peration     | Version:  2.1.1                                 |
|   \\  /    A nd           | Web:      www.OpenFOAM.org                      |
|    \\/     M anipulation  |                                                 |
\*---------------------------------------------------------------------------*/
FoamFile
{
    version     2.0;
    format      ascii;
    class       volScalarField;
    location    "0.05";
    object      p;
}
// * * * * * * * * * * * * * * * * * * * * * * * * * * * * * * * * * * * * * //

dimensions      [0 2 -2 0 0 0 0];

internalField   nonuniform List<scalar> 
6820
(
-11.0421
-12.8883
-13.4629
-13.5902
-13.6965
-13.7748
-13.8281
-13.8732
-13.9139
-13.9508
-13.9847
-14.0162
-14.0454
-14.0724
-14.0973
-14.12
-14.1406
-14.159
-14.175
-14.1886
-14.1994
-14.2073
-14.2118
-14.2123
-14.2083
-14.1989
-14.1827
-14.1583
-14.1231
-14.0742
-14.0059
-13.9074
-13.776
-14.9947
-14.4599
-14.037
-13.8465
-13.8212
-13.8316
-13.8507
-13.8772
-13.9077
-13.9391
-13.9701
-14.0004
-14.0294
-14.0568
-14.0823
-14.106
-14.1275
-14.1469
-14.164
-14.1787
-14.1907
-14.1997
-14.2055
-14.2076
-14.2053
-14.198
-14.1847
-14.1643
-14.1349
-14.0966
-14.044
-13.9969
-13.9267
-13.3522
-13.0483
-13.3346
-13.5792
-13.6834
-13.7579
-13.8157
-13.8637
-13.9061
-13.9442
-13.9789
-14.0109
-14.0403
-14.0675
-14.0925
-14.1154
-14.1362
-14.1548
-14.1713
-14.1854
-14.197
-14.2059
-14.2117
-14.2141
-14.2126
-14.2066
-14.1952
-14.1777
-14.153
-14.121
-14.0799
-14.036
-13.982
-13.8592
-13.8934
-13.8902
-13.8305
-13.8222
-13.8418
-13.867
-13.8945
-13.9237
-13.9531
-13.982
-14.0099
-14.0367
-14.0621
-14.086
-14.1083
-14.1289
-14.1476
-14.1643
-14.179
-14.1913
-14.2012
-14.2083
-14.2123
-14.2128
-14.2094
-14.2015
-14.1888
-14.1705
-14.1473
-14.1182
-14.09
-14.0556
-13.7039
-13.6038
-13.6477
-13.7131
-13.7654
-13.8111
-13.8507
-13.8867
-13.921
-13.9535
-13.9842
-14.0132
-14.0406
-14.0664
-14.0904
-14.1127
-14.1333
-14.152
-14.1688
-14.1836
-14.1963
-14.2067
-14.2146
-14.2198
-14.2219
-14.2208
-14.216
-14.2075
-14.1951
-14.1794
-14.1606
-14.1427
-14.124
-13.759
-13.7422
-13.7671
-13.7897
-13.8114
-13.8399
-13.8703
-13.9007
-13.9309
-13.9605
-13.989
-14.0164
-14.0426
-14.0673
-14.0907
-14.1126
-14.1329
-14.1516
-14.1686
-14.1838
-14.1971
-14.2084
-14.2175
-14.2244
-14.2287
-14.2304
-14.2295
-14.2258
-14.2197
-14.2119
-14.2031
-14.1962
-14.1914
-13.7574
-13.7362
-13.7517
-13.78
-13.8095
-13.8416
-13.8735
-13.9043
-13.9343
-13.9636
-13.9918
-14.0188
-14.0446
-14.0692
-14.0924
-14.1142
-14.1346
-14.1535
-14.1708
-14.1866
-14.2006
-14.213
-14.2235
-14.232
-14.2387
-14.2434
-14.2462
-14.2473
-14.2473
-14.2469
-14.2471
-14.2502
-14.2574
-13.7717
-13.7638
-13.7789
-13.803
-13.8276
-13.855
-13.8836
-13.9122
-13.9406
-13.9685
-13.9956
-14.0218
-14.0469
-14.071
-14.0939
-14.1155
-14.1359
-14.1549
-14.1726
-14.1889
-14.2038
-14.2173
-14.2292
-14.2397
-14.2488
-14.2566
-14.2633
-14.2692
-14.2751
-14.2817
-14.2903
-14.3026
-14.3204
-13.7848
-13.7808
-13.7927
-13.8138
-13.8372
-13.8633
-13.8907
-13.9183
-13.9457
-13.9727
-13.999
-14.0246
-14.0492
-14.0729
-14.0956
-14.1171
-14.1376
-14.1568
-14.175
-14.1919
-14.2077
-14.2224
-14.2359
-14.2484
-14.26
-14.2709
-14.2813
-14.2919
-14.3033
-14.3164
-14.3324
-14.3529
-14.3796
-13.7986
-13.7979
-13.8089
-13.828
-13.8496
-13.8737
-13.8993
-13.9253
-13.9514
-13.9773
-14.0028
-14.0276
-14.0517
-14.075
-14.0974
-14.1189
-14.1394
-14.159
-14.1776
-14.1952
-14.2119
-14.2278
-14.2429
-14.2574
-14.2715
-14.2854
-14.2995
-14.3145
-14.3309
-14.3499
-14.3724
-14.3999
-14.4341
-13.8124
-13.8133
-13.8234
-13.8405
-13.8606
-13.883
-13.9071
-13.9319
-13.9569
-13.9819
-14.0066
-14.0308
-14.0544
-14.0773
-14.0995
-14.1209
-14.1415
-14.1613
-14.1804
-14.1988
-14.2164
-14.2336
-14.2503
-14.2667
-14.2832
-14.3
-14.3176
-14.3365
-14.3576
-14.3816
-14.4097
-14.4431
-14.4834
-13.8259
-13.8278
-13.8373
-13.8529
-13.8715
-13.8925
-13.9152
-13.9387
-13.9626
-13.9866
-14.0105
-14.034
-14.0571
-14.0797
-14.1017
-14.123
-14.1438
-14.1639
-14.1834
-14.2025
-14.2211
-14.2395
-14.2577
-14.2761
-14.2948
-14.3143
-14.335
-14.3575
-14.3826
-14.411
-14.4438
-14.482
-14.527
-13.839
-13.8414
-13.8504
-13.8647
-13.882
-13.9016
-13.923
-13.9453
-13.9682
-13.9913
-14.0144
-14.0374
-14.06
-14.0822
-14.104
-14.1253
-14.1462
-14.1666
-14.1866
-14.2063
-14.2259
-14.2454
-14.2651
-14.2852
-14.306
-14.3279
-14.3514
-14.3771
-14.4056
-14.4376
-14.4742
-14.5161
-14.5646
-13.8516
-13.8542
-13.8627
-13.8759
-13.892
-13.9105
-13.9306
-13.9519
-13.9738
-13.996
-14.0184
-14.0408
-14.0629
-14.0848
-14.1064
-14.1277
-14.1486
-14.1693
-14.1898
-14.2102
-14.2306
-14.2512
-14.2722
-14.2939
-14.3166
-14.3407
-14.3666
-14.3949
-14.4261
-14.4611
-14.5005
-14.5451
-14.596
-13.8637
-13.8662
-13.8743
-13.8866
-13.9016
-13.9189
-13.938
-13.9582
-13.9792
-14.0007
-14.0224
-14.0441
-14.0658
-14.0874
-14.1088
-14.13
-14.1511
-14.172
-14.1929
-14.2139
-14.2351
-14.2567
-14.2789
-14.302
-14.3263
-14.3521
-14.38
-14.4104
-14.4439
-14.4811
-14.5226
-14.5689
-14.6211
-13.875
-13.8776
-13.8852
-13.8966
-13.9107
-13.9271
-13.9451
-13.9644
-13.9845
-14.0052
-14.0262
-14.0474
-14.0687
-14.0899
-14.1111
-14.1323
-14.1534
-14.1746
-14.1958
-14.2173
-14.2392
-14.2616
-14.2848
-14.3091
-14.3347
-14.3621
-14.3916
-14.4236
-14.4587
-14.4973
-14.5401
-14.5874
-14.6399
-13.8857
-13.8882
-13.8954
-13.9061
-13.9194
-13.9348
-13.9519
-13.9703
-13.9896
-14.0095
-14.0299
-14.0506
-14.0714
-14.0923
-14.1133
-14.1344
-14.1556
-14.1769
-14.1984
-14.2204
-14.2428
-14.2659
-14.29
-14.3152
-14.3418
-14.3703
-14.4009
-14.434
-14.4701
-14.5096
-14.5529
-14.6004
-14.6526
-13.8957
-13.898
-13.9049
-13.915
-13.9274
-13.942
-13.9583
-13.9759
-13.9944
-14.0137
-14.0334
-14.0536
-14.074
-14.0946
-14.1154
-14.1363
-14.1575
-14.1789
-14.2006
-14.2229
-14.2457
-14.2694
-14.294
-14.3199
-14.3473
-14.3765
-14.4078
-14.4416
-14.4782
-14.5179
-14.5611
-14.6081
-14.6593
-13.905
-13.9072
-13.9136
-13.9231
-13.9349
-13.9488
-13.9643
-13.9811
-13.9989
-14.0175
-14.0367
-14.0563
-14.0763
-14.0966
-14.1172
-14.1379
-14.159
-14.1805
-14.2023
-14.2248
-14.2479
-14.2719
-14.2969
-14.3232
-14.351
-14.3806
-14.4122
-14.4462
-14.4827
-14.5221
-14.5647
-14.6106
-14.6601
-13.9134
-13.9155
-13.9217
-13.9307
-13.9418
-13.955
-13.9698
-13.9859
-14.003
-14.021
-14.0397
-14.0588
-14.0784
-14.0983
-14.1186
-14.1392
-14.1601
-14.1815
-14.2034
-14.2259
-14.2491
-14.2733
-14.2985
-14.3249
-14.3528
-14.3824
-14.414
-14.4476
-14.4837
-14.5223
-14.5637
-14.608
-14.6554
-13.9211
-13.9231
-13.9289
-13.9375
-13.9481
-13.9606
-13.9747
-13.9902
-14.0068
-14.0242
-14.0423
-14.0609
-14.0801
-14.0997
-14.1196
-14.14
-14.1607
-14.182
-14.2037
-14.2262
-14.2494
-14.2734
-14.2986
-14.3249
-14.3526
-14.3819
-14.413
-14.446
-14.4811
-14.5185
-14.5583
-14.6005
-14.6454
-13.928
-13.9299
-13.9354
-13.9435
-13.9536
-13.9656
-13.9791
-13.994
-14.01
-14.0268
-14.0444
-14.0626
-14.0813
-14.1005
-14.1201
-14.1402
-14.1607
-14.1817
-14.2033
-14.2255
-14.2485
-14.2723
-14.2971
-14.3231
-14.3504
-14.3791
-14.4093
-14.4413
-14.4751
-14.5109
-14.5486
-14.5885
-14.6304
-13.9341
-13.9359
-13.9411
-13.9488
-13.9585
-13.9699
-13.983
-13.9973
-14.0127
-14.029
-14.0461
-14.0639
-14.0822
-14.1009
-14.1202
-14.1399
-14.16
-14.1807
-14.202
-14.2238
-14.2464
-14.2698
-14.2941
-14.3195
-14.346
-14.3738
-14.403
-14.4336
-14.4658
-14.4996
-14.5351
-14.5722
-14.611
-13.9392
-13.941
-13.946
-13.9533
-13.9625
-13.9735
-13.986
-13.9999
-14.0148
-14.0306
-14.0472
-14.0645
-14.0823
-14.1007
-14.1195
-14.1388
-14.1586
-14.1788
-14.1996
-14.221
-14.2431
-14.2659
-14.2895
-14.314
-14.3396
-14.3662
-14.394
-14.423
-14.4533
-14.4849
-14.5178
-14.552
-14.5874
-13.9435
-13.9452
-13.9499
-13.957
-13.9659
-13.9764
-13.9885
-14.0019
-14.0164
-14.0317
-14.0479
-14.0647
-14.0821
-14.1
-14.1184
-14.1372
-14.1565
-14.1762
-14.1965
-14.2173
-14.2386
-14.2606
-14.2834
-14.3069
-14.3312
-14.3564
-14.3826
-14.4098
-14.4379
-14.4671
-14.4972
-14.5283
-14.5602
-13.9468
-13.9484
-13.9529
-13.9597
-13.9681
-13.9783
-13.99
-14.0029
-14.0169
-14.0319
-14.0476
-14.064
-14.0809
-14.0983
-14.1162
-14.1346
-14.1533
-14.1725
-14.1921
-14.2121
-14.2327
-14.2538
-14.2755
-14.2978
-14.3208
-14.3444
-14.3688
-14.3939
-14.4197
-14.4463
-14.4735
-14.5014
-14.5298
-13.9492
-13.9507
-13.9551
-13.9617
-13.97
-13.9798
-13.9912
-14.0038
-14.0175
-14.032
-14.0473
-14.0632
-14.0797
-14.0967
-14.1141
-14.1318
-14.1499
-14.1684
-14.1872
-14.2064
-14.226
-14.246
-14.2665
-14.2874
-14.3088
-14.3308
-14.3532
-14.3761
-14.3994
-14.4233
-14.4475
-14.472
-14.4968
-13.9505
-13.9518
-13.9558
-13.9618
-13.9697
-13.9791
-13.9901
-14.0024
-14.0157
-14.0299
-14.0448
-14.0604
-14.0765
-14.093
-14.1099
-14.1271
-14.1446
-14.1624
-14.1805
-14.1988
-14.2174
-14.2363
-14.2555
-14.275
-14.2948
-14.3149
-14.3353
-14.3559
-14.3767
-14.3978
-14.4189
-14.4402
-14.4614
-13.9509
-13.9526
-13.9569
-13.9631
-13.9709
-13.9803
-13.9911
-14.0031
-14.016
-14.0299
-14.0444
-14.0595
-14.075
-14.0909
-14.1072
-14.1237
-14.1404
-14.1573
-14.1744
-14.1917
-14.2091
-14.2267
-14.2444
-14.2623
-14.2803
-14.2984
-14.3165
-14.3347
-14.353
-14.3711
-14.3892
-14.4071
-14.4247
-13.9495
-13.9502
-13.9532
-13.9583
-13.9654
-13.9744
-13.985
-13.9968
-14.0098
-14.0236
-14.038
-14.053
-14.0684
-14.0841
-14.1
-14.1161
-14.1323
-14.1486
-14.165
-14.1813
-14.1977
-14.2142
-14.2305
-14.2469
-14.2632
-14.2794
-14.2954
-14.3113
-14.327
-14.3424
-14.3575
-14.3722
-14.3865
-13.9493
-13.9519
-13.9565
-13.9626
-13.9701
-13.9791
-13.9894
-14.0008
-14.0131
-14.0262
-14.04
-14.0541
-14.0686
-14.0834
-14.0984
-14.1135
-14.1286
-14.1438
-14.1589
-14.174
-14.189
-14.2038
-14.2185
-14.2331
-14.2474
-14.2615
-14.2752
-14.2886
-14.3017
-14.3142
-14.3263
-14.3378
-14.3486
-13.9415
-13.9395
-13.9399
-13.9438
-13.9507
-13.9599
-13.971
-13.9835
-13.9969
-14.011
-14.0256
-14.0406
-14.0557
-14.0709
-14.0862
-14.1013
-14.1164
-14.1312
-14.1459
-14.1604
-14.1745
-14.1884
-14.202
-14.2151
-14.2279
-14.2402
-14.252
-14.2633
-14.2739
-14.284
-14.2933
-14.3019
-14.3096
-13.9497
-13.9562
-13.962
-13.9671
-13.9731
-13.9806
-13.9896
-13.9999
-14.0111
-14.0231
-14.0357
-14.0487
-14.062
-14.0755
-14.089
-14.1025
-14.1159
-14.1291
-14.1421
-14.1549
-14.1673
-14.1793
-14.191
-14.2021
-14.2128
-14.2229
-14.2323
-14.2411
-14.2492
-14.2565
-14.2629
-14.2685
-14.2731
-13.9177
-13.9041
-13.8993
-13.9046
-13.9149
-13.9277
-13.942
-13.9574
-13.9733
-13.9894
-14.0055
-14.0216
-14.0374
-14.0529
-14.0681
-14.0828
-14.0971
-14.111
-14.1243
-14.1371
-14.1493
-14.1608
-14.1718
-14.182
-14.1915
-14.2002
-14.2082
-14.2152
-14.2213
-14.2265
-14.2307
-14.2338
-14.2359
-13.9718
-13.9922
-13.9967
-13.9922
-13.9898
-13.9921
-13.9975
-14.0048
-14.0135
-14.0233
-14.034
-14.0453
-14.0568
-14.0686
-14.0804
-14.092
-14.1035
-14.1147
-14.1256
-14.136
-14.1459
-14.1552
-14.1639
-14.1719
-14.1791
-14.1856
-14.1911
-14.1958
-14.1994
-14.2021
-14.2036
-14.2041
-14.2033
-13.849
-13.7995
-13.7877
-13.8137
-13.8419
-13.8664
-13.8904
-13.9136
-13.9358
-13.9568
-13.9768
-13.9957
-14.0136
-14.0305
-14.0466
-14.0617
-14.076
-14.0894
-14.102
-14.1136
-14.1243
-14.1341
-14.1429
-14.1508
-14.1576
-14.1633
-14.168
-14.1715
-14.1738
-14.1749
-14.1748
-14.1734
-14.1707
-14.0974
-14.1323
-14.1015
-14.059
-14.0304
-14.0194
-14.0166
-14.0175
-14.0214
-14.0275
-14.0351
-14.0438
-14.0531
-14.0627
-14.0725
-14.0822
-14.0918
-14.101
-14.1098
-14.1181
-14.1258
-14.1327
-14.1389
-14.1443
-14.1487
-14.1522
-14.1546
-14.1559
-14.1561
-14.1551
-14.1528
-14.1492
-14.1443
-13.6052
-13.4855
-13.5478
-13.6494
-13.7234
-13.7752
-13.8189
-13.8571
-13.8903
-13.9194
-13.9454
-13.9689
-13.9901
-14.0095
-14.0271
-14.0433
-14.0581
-14.0715
-14.0837
-14.0947
-14.1044
-14.1129
-14.1202
-14.1262
-14.131
-14.1344
-14.1366
-14.1374
-14.1368
-14.1348
-14.1314
-14.1265
-14.1202
-14.8198
-14.4809
-14.2172
-14.1002
-14.0502
-14.0249
-14.0099
-14.0036
-14.0038
-14.0077
-14.014
-14.0219
-14.0309
-14.0403
-14.05
-14.0596
-14.069
-14.078
-14.0864
-14.0942
-14.1013
-14.1075
-14.1128
-14.1171
-14.1203
-14.1224
-14.1233
-14.123
-14.1213
-14.1183
-14.1139
-14.1081
-14.1007
-12.3161
-13.0227
-13.4273
-13.5796
-13.6842
-13.7665
-13.8259
-13.8707
-13.907
-13.9369
-13.9622
-13.9841
-14.0034
-14.0206
-14.0361
-14.05
-14.0625
-14.0737
-14.0837
-14.0925
-14.1
-14.1062
-14.1112
-14.115
-14.1173
-14.1184
-14.118
-14.1162
-14.113
-14.1083
-14.1021
-14.0943
-14.085
-13.4997
-13.3241
-13.2076
-13.2546
-13.5676
-14.0649
-14.7571
-15.5915
-16.5132
-17.4848
-18.4726
-19.4435
-20.3688
-21.2259
-22.0002
-22.6836
-23.2728
-23.7671
-24.1682
-24.477
-24.6941
-24.8188
-24.8483
-24.7777
-24.5996
-24.3031
-23.8743
-23.2956
-22.5468
-21.6086
-20.4698
-19.1327
-17.6104
-15.9347
-14.162
-12.3504
-10.55
-8.81574
-7.20047
-5.74301
-4.46431
-3.36868
-2.44812
-1.68745
-1.06828
-0.571542
-0.178982
0.12607
0.358413
0.530941
0.654733
0.739217
0.792338
0.820748
0.829972
0.824574
0.808297
0.784197
0.754754
0.721962
0.687405
0.652319
0.617632
0.584019
0.551929
0.521632
0.493248
0.466784
0.442159
0.419238
0.397846
0.377794
0.358893
0.340965
0.323853
0.307432
0.291603
0.276287
0.261433
0.247003
0.232974
0.219321
0.206021
0.193044
0.18036
0.167937
0.155744
0.143753
0.131932
0.120256
0.108686
0.0972175
0.0857722
0.0744329
0.0629454
0.0517735
0.0398685
0.0293772
0.0157337
0.0085165
-14.0871
-13.9258
-13.6464
-13.5689
-13.7247
-14.0892
-14.6743
-15.4457
-16.3495
-17.3266
-18.3188
-19.28
-20.1825
-21.012
-21.7606
-22.4235
-22.9973
-23.4792
-23.8691
-24.1666
-24.3711
-24.4809
-24.4929
-24.4019
-24.2001
-23.8766
-23.417
-22.8045
-22.0228
-21.0609
-19.9185
-18.6013
-17.1262
-15.5283
-13.8475
-12.1246
-10.4099
-8.75668
-7.21213
-5.81134
-4.57432
-3.50652
-2.60226
-1.84894
-1.23054
-0.729971
-0.330513
-0.0166532
0.225561
0.408418
0.542572
0.637158
0.699933
0.737428
0.755101
0.757483
0.748309
0.730646
0.706995
0.679386
0.649445
0.618456
0.587404
0.557019
0.527806
0.500084
0.474016
0.449644
0.426917
0.405719
0.385894
0.367266
0.349652
0.332887
0.316819
0.301331
0.286328
0.27174
0.257524
0.24365
0.230102
0.216866
0.203927
0.191265
0.178853
0.166668
0.154683
0.14287
0.131201
0.119656
0.108198
0.0968234
0.0854603
0.0741866
0.0627671
0.0516277
0.0398129
0.0292623
0.0158868
0.00817033
-13.9376
-13.7607
-13.6374
-13.6904
-13.9234
-14.3162
-14.8639
-15.5432
-16.3271
-17.1894
-18.097
-19.0108
-19.8947
-20.7201
-21.4681
-22.1282
-22.6921
-23.1593
-23.531
-23.8089
-23.9931
-24.0819
-24.0715
-23.9556
-23.7256
-23.3704
-22.8771
-22.2338
-21.4343
-20.4757
-19.3553
-18.0796
-16.6686
-15.1476
-13.5466
-11.9066
-10.2753
-8.70017
-7.22359
-5.87767
-4.68155
-3.64162
-2.7542
-2.009
-1.39219
-0.888535
-0.482815
-0.160653
0.0910523
0.28397
0.428313
0.53291
0.60531
0.651913
0.678098
0.688353
0.6864
0.675309
0.657598
0.635324
0.610149
0.583405
0.556125
0.529094
0.50287
0.47782
0.454152
0.431944
0.411175
0.391751
0.373536
0.356366
0.340073
0.324499
0.309502
0.294972
0.280823
0.266989
0.253435
0.240139
0.227094
0.214294
0.201732
0.189398
0.177272
0.165335
0.153565
0.141938
0.130429
0.119021
0.10768
0.0964045
0.0851284
0.0739229
0.0625757
0.051469
0.0397509
0.0291349
0.0160454
0.00780406
-14.0467
-14.0068
-13.9694
-14.0271
-14.2242
-14.565
-15.0537
-15.6764
-16.4007
-17.1897
-18.0107
-18.836
-19.6402
-20.4013
-21.0999
-21.721
-22.2599
-22.7134
-23.0762
-23.3445
-23.5158
-23.5874
-23.5554
-23.4144
-23.1575
-22.778
-22.2695
-21.6253
-20.8372
-19.899
-18.8113
-17.5847
-16.2352
-14.783
-13.2579
-11.6982
-10.1467
-8.64616
-7.23469
-5.94181
-4.78578
-3.77371
-2.90361
-2.16728
-1.55287
-1.04691
-0.635589
-0.305669
-0.044892
0.157781
0.312107
0.426592
0.508563
0.564273
0.599011
0.617216
0.622587
0.618192
0.606558
0.589765
0.569506
0.547152
0.523784
0.500235
0.477115
0.454839
0.433658
0.413686
0.394935
0.377336
0.360772
0.345095
0.330153
0.315799
0.301901
0.288355
0.275084
0.262029
0.249163
0.236468
0.223947
0.211602
0.199435
0.187443
0.175615
0.163936
0.15239
0.140957
0.129615
0.11835
0.107132
0.0959596
0.0847749
0.0736412
0.0623703
0.0512978
0.0396818
0.0289969
0.0162065
0.00742087
-14.1153
-14.0889
-14.0777
-14.1601
-14.3707
-14.7096
-15.1765
-15.7574
-16.4244
-17.1472
-17.898
-18.654
-19.3937
-20.0966
-20.7448
-21.3244
-21.8274
-22.2474
-22.5797
-22.8214
-22.9695
-23.021
-22.9721
-22.8184
-22.5544
-22.1736
-21.6684
-21.0309
-20.2552
-19.3402
-18.2903
-17.1126
-15.8204
-14.4344
-12.9826
-11.4997
-10.0242
-8.59454
-7.24535
-6.00364
-4.88681
-3.90251
-3.05018
-2.32341
-1.7122
-1.2047
-0.788476
-0.451372
-0.181977
0.0301094
0.194177
0.318393
0.409848
0.474636
0.517945
0.544153
0.556931
0.559335
0.553899
0.542719
0.527514
0.509689
0.490366
0.470425
0.450522
0.431121
0.412515
0.394857
0.378188
0.362466
0.347598
0.333454
0.319896
0.306791
0.294019
0.281484
0.269116
0.256865
0.244708
0.232638
0.220661
0.20879
0.197034
0.185398
0.17388
0.16247
0.151157
0.139926
0.128759
0.117642
0.106553
0.0954887
0.0843999
0.0733414
0.0621508
0.0511144
0.0396054
0.0288494
0.0163685
0.00702476
-14.1956
-14.2059
-14.2434
-14.3547
-14.5657
-14.8816
-15.3045
-15.8279
-16.4318
-17.0914
-17.7815
-18.4775
-19.1561
-19.7992
-20.3929
-20.9263
-21.3898
-21.7764
-22.0815
-22.301
-22.4308
-22.4672
-22.4059
-22.2422
-21.9705
-21.5847
-21.0788
-20.4486
-19.691
-18.8048
-17.7921
-16.6607
-15.4242
-14.1022
-12.7205
-11.3106
-9.90726
-8.54509
-7.2554
-6.06303
-4.98451
-4.02783
-3.19362
-2.47708
-1.86985
-1.36158
-0.94115
-0.59746
-0.319934
-0.0988077
0.0747272
0.208487
0.309313
0.383126
0.435
0.469244
0.48949
0.498781
0.49965
0.494203
0.48418
0.471013
0.455864
0.439653
0.423081
0.406657
0.390715
0.375446
0.360925
0.347138
0.334012
0.321441
0.309303
0.297478
0.285858
0.27436
0.26292
0.251496
0.240072
0.228647
0.217235
0.205856
0.194528
0.183263
0.172067
0.160937
0.149866
0.138845
0.127858
0.116897
0.105942
0.0949909
0.0840025
0.073023
0.0619165
0.0509184
0.0395207
0.0286926
0.0165291
0.00661965
-14.2746
-14.3074
-14.3699
-14.4943
-14.7033
-15.0036
-15.3954
-15.8713
-16.4153
-17.0121
-17.6431
-18.2819
-18.9048
-19.4958
-20.0431
-20.5357
-20.9635
-21.3189
-21.5966
-21.792
-21.9011
-21.9198
-21.8443
-21.67
-21.3921
-21.0056
-20.5058
-19.8882
-19.15
-18.291
-17.3146
-16.2288
-15.0464
-13.7859
-12.4711
-11.1305
-9.7956
-8.49754
-7.2647
-6.11987
-5.07873
-4.14946
-3.3337
-2.628
-2.02549
-1.51721
-1.09329
-0.743636
-0.45849
-0.228729
-0.0460313
0.0970563
0.207112
0.289871
0.350282
0.392575
0.420335
0.436584
0.443849
0.44424
0.439516
0.431131
0.420278
0.407915
0.394785
0.381437
0.368249
0.355448
0.343143
0.331347
0.320014
0.309057
0.298374
0.28786
0.277422
0.266986
0.256497
0.245924
0.235255
0.224496
0.213669
0.2028
0.191915
0.181036
0.170174
0.159335
0.148516
0.137712
0.126913
0.116114
0.105298
0.0944655
0.0835819
0.0726852
0.0616667
0.0507092
0.0394269
0.028527
0.0166859
0.00620973
-14.3499
-14.4008
-14.4838
-14.6205
-14.8284
-15.1137
-15.4767
-15.9119
-16.4068
-16.9466
-17.5143
-18.0901
-18.6565
-19.1979
-19.7008
-20.153
-20.5448
-20.8686
-21.1191
-21.2914
-21.3813
-21.3846
-21.2972
-21.1148
-20.833
-20.4472
-19.9533
-19.3479
-18.6293
-17.798
-16.8578
-15.8164
-14.6862
-13.4846
-12.2335
-10.9588
-9.68875
-8.45164
-7.27309
-6.17407
-5.16936
-4.26727
-3.4702
-2.7759
-2.17882
-1.67129
-1.24459
-0.889602
-0.59737
-0.359406
-0.167879
-0.015708
0.10341
0.195012
0.26391
0.314244
0.349547
0.372807
0.386544
0.392868
0.393547
0.390056
0.383614
0.375212
0.36563
0.355459
0.345114
0.33486
0.324838
0.315092
0.305602
0.296303
0.287111
0.277941
0.268713
0.259364
0.249851
0.24015
0.230257
0.220185
0.209961
0.19962
0.189195
0.178716
0.168201
0.157662
0.147104
0.136526
0.125923
0.115292
0.104621
0.0939115
0.0831374
0.0723274
0.0614007
0.0504865
0.0393231
0.0283529
0.0168361
0.00579941
-14.4198
-14.4845
-14.5812
-14.7249
-14.9286
-15.1985
-15.5349
-15.9333
-16.3838
-16.8734
-17.3877
-17.9101
-18.4243
-18.916
-19.373
-19.7841
-20.1399
-20.4326
-20.6564
-20.806
-20.8768
-20.8648
-20.7659
-20.5759
-20.2907
-19.9065
-19.4196
-18.8275
-18.1291
-17.3255
-16.4206
-15.4225
-14.3427
-13.1975
-12.007
-10.7948
-9.58633
-8.40714
-7.28046
-6.22554
-5.25633
-4.38111
-3.60293
-2.92054
-2.32956
-1.82352
-1.39474
-1.03506
-0.736298
-0.490586
-0.290589
-0.129606
-0.00161985
0.0986979
0.176011
0.234361
0.277214
0.307525
0.327794
0.34013
0.346306
0.347811
0.345886
0.341551
0.335621
0.328722
0.321307
0.313678
0.306008
0.298373
0.290777
0.283179
0.275517
0.267723
0.259733
0.251497
0.242984
0.234176
0.22508
0.215714
0.206113
0.196317
0.186368
0.176302
0.166146
0.155919
0.145631
0.135287
0.124887
0.11443
0.103909
0.0933285
0.0826684
0.071949
0.0611179
0.05025
0.0392083
0.0281709
0.0169773
0.00539315
-14.4831
-14.5582
-14.664
-14.8113
-15.0097
-15.2645
-15.576
-15.9406
-16.3502
-16.7938
-17.2589
-17.7311
-18.1962
-18.6413
-19.0551
-19.4269
-19.7477
-20.0098
-20.2071
-20.3343
-20.3868
-20.3601
-20.2504
-20.0536
-19.766
-19.3842
-18.905
-18.3267
-17.6487
-16.8725
-16.0025
-15.0463
-14.015
-12.9237
-11.7909
-10.638
-9.48799
-8.36385
-7.28672
-6.27425
-5.33958
-4.4909
-3.73173
-3.0617
-2.47747
-1.97361
-1.54346
-1.17973
-0.874999
-0.622013
-0.413929
-0.24443
-0.107794
0.001089
0.0867241
0.153042
0.203437
0.24082
0.267668
0.286081
0.297834
0.304426
0.307116
0.306947
0.304765
0.30123
0.29683
0.291903
0.286655
0.28119
0.275539
0.269688
0.263595
0.25721
0.250487
0.24339
0.235899
0.228007
0.219727
0.211086
0.202125
0.192891
0.183433
0.173794
0.16401
0.154105
0.144097
0.133995
0.123803
0.113527
0.103163
0.0927158
0.0821743
0.0715494
0.0608176
0.0499993
0.0390817
0.0279813
0.0171068
0.00499535
-14.5393
-14.6217
-14.7331
-14.8811
-15.0727
-15.3123
-15.6004
-15.9336
-16.3055
-16.7068
-17.1265
-17.5524
-17.9719
-18.3734
-18.7461
-19.0803
-19.3673
-19.5997
-19.7713
-19.8768
-19.9113
-19.8706
-19.7507
-19.5478
-19.2585
-18.8797
-18.409
-17.8449
-17.1875
-16.4385
-15.6026
-14.687
-13.7024
-12.6626
-11.5847
-10.488
-9.39341
-8.32161
-7.29179
-6.32017
-5.41908
-4.59655
-3.85648
-3.19921
-2.6223
-2.1213
-1.69046
-1.32333
-1.0132
-0.753431
-0.537662
-0.359966
-0.214922
-0.0976476
-0.00380603
0.0704132
0.128324
0.172786
0.206244
0.230785
0.248183
0.259941
0.267332
0.27142
0.273077
0.272993
0.271691
0.269541
0.266781
0.263546
0.259894
0.255834
0.251348
0.246406
0.24098
0.235047
0.228601
0.221645
0.214201
0.206304
0.198
0.189344
0.180391
0.171193
0.161792
0.15222
0.1425
0.132648
0.122674
0.112584
0.102382
0.0920731
0.0816547
0.0711284
0.0604993
0.0497342
0.0389425
0.0277848
0.0172223
0.00461022
-14.588
-14.6753
-14.7895
-14.9358
-15.1195
-15.3442
-15.6099
-15.9142
-16.2513
-16.6135
-16.9913
-17.3741
-17.751
-18.1112
-18.4451
-18.7435
-18.9981
-19.2019
-19.3487
-19.4331
-19.4504
-19.3963
-19.2668
-19.0586
-18.7683
-18.3933
-17.9315
-17.3819
-16.745
-16.023
-15.2202
-14.3439
-13.404
-12.4135
-11.3877
-10.3444
-9.30234
-8.28029
-7.29564
-6.36331
-5.49484
-4.69804
-3.97708
-3.33291
-2.76386
-2.26634
-1.83547
-1.46558
-1.15064
-0.884583
-0.66155
-0.475996
-0.322806
-0.197336
-0.0954239
-0.0133891
0.0519932
0.103522
0.143607
0.174315
0.197412
0.214404
0.226574
0.235
0.240579
0.244028
0.245901
0.2466
0.246394
0.245447
0.243846
0.241623
0.238784
0.235319
0.231218
0.226475
0.221096
0.215096
0.208507
0.20137
0.19374
0.185678
0.177245
0.168501
0.159494
0.150265
0.140843
0.131248
0.121497
0.111601
0.101567
0.0914002
0.0811093
0.0706857
0.0601627
0.0494546
0.03879
0.0275818
0.0173216
0.00424161
-14.6291
-14.7193
-14.8338
-14.9767
-15.1518
-15.3615
-15.6062
-15.8833
-16.1882
-16.5144
-16.8535
-17.1963
-17.5333
-17.855
-18.1521
-18.4165
-18.6402
-18.8165
-18.9393
-19.0035
-19.0042
-18.9373
-18.7991
-18.5861
-18.2954
-17.9247
-17.4722
-16.9374
-16.3209
-15.6253
-14.8548
-14.0164
-13.1194
-12.1757
-11.1995
-10.2068
-9.21456
-8.23979
-7.29828
-6.40371
-5.56688
-4.79536
-4.09348
-3.46267
-2.90196
-2.40853
-1.97827
-1.60623
-1.28704
-1.01521
-0.78535
-0.592295
-0.431243
-0.297792
-0.187966
-0.0982206
-0.0254298
0.0331384
0.0798517
0.116751
0.14559
0.167873
0.184886
0.197723
0.207299
0.214357
0.219478
0.223094
0.225505
0.226905
0.227404
0.227064
0.22591
0.223956
0.221209
0.217681
0.213391
0.208367
0.202651
0.196291
0.18935
0.181896
0.173997
0.165719
0.157118
0.148241
0.139125
0.129796
0.120275
0.110577
0.100716
0.0906974
0.0805382
0.0702214
0.0598076
0.0491605
0.0386237
0.0273729
0.017403
0.00389283
-14.6626
-14.7538
-14.8671
-15.0052
-15.1708
-15.3659
-15.5904
-15.8422
-16.1174
-16.4101
-16.7134
-17.0193
-17.3191
-17.6044
-17.867
-18.0991
-18.2933
-18.4433
-18.5433
-18.588
-18.573
-18.494
-18.3475
-18.1304
-17.8398
-17.4738
-17.0309
-16.511
-15.9148
-15.2449
-14.5057
-13.7037
-12.8478
-11.9487
-11.0196
-10.0748
-9.12991
-8.20008
-7.29974
-6.44144
-5.63528
-4.88853
-4.20563
-3.5884
-3.03646
-2.54766
-2.11861
-1.74502
-1.42216
-1.14507
-0.90882
-0.708634
-0.54002
-0.398823
-0.281259
-0.183928
-0.103809
-0.0382445
0.0150829
0.0581835
0.0927937
0.120411
0.142324
0.159635
0.173275
0.184009
0.192445
0.199043
0.204131
0.207931
0.210582
0.212167
0.212737
0.212327
0.210963
0.208674
0.205495
0.201467
0.196639
0.191073
0.184836
0.178003
0.17065
0.16285
0.154665
0.146151
0.137348
0.128292
0.119007
0.109514
0.0998309
0.0899651
0.0799418
0.0697356
0.0594341
0.0488521
0.0384433
0.0271587
0.0174651
0.00356657
-14.6886
-14.7794
-14.8899
-15.0221
-15.1778
-15.3584
-15.5638
-15.792
-16.0395
-16.3014
-16.5715
-16.843
-17.1082
-17.3596
-17.5896
-17.7912
-17.9575
-18.0825
-18.1605
-18.1867
-18.1566
-18.0663
-17.9122
-17.6914
-17.4015
-17.0405
-16.6075
-16.1023
-15.5261
-14.8813
-14.1724
-13.4055
-12.5887
-11.7321
-10.8476
-9.94838
-9.04826
-8.16113
-7.30007
-6.4766
-5.70011
-4.9776
-4.31352
-3.71003
-3.16722
-2.68356
-2.25628
-1.88173
-1.55575
-1.27391
-1.03172
-0.824782
-0.648922
-0.500231
-0.375123
-0.270347
-0.182998
-0.110498
-0.0505863
-0.00128871
0.0391088
0.0720927
0.0989496
0.120788
0.138551
0.153022
0.164834
0.174471
0.182293
0.188545
0.193394
0.196948
0.19928
0.200445
0.200492
0.199467
0.197419
0.194404
0.190482
0.185723
0.180203
0.174005
0.16721
0.159898
0.15214
0.143996
0.135515
0.126738
0.117696
0.108413
0.0989128
0.0892041
0.0793205
0.0692288
0.0590425
0.0485298
0.0382486
0.02694
0.0175071
0.0032647
-14.7072
-14.7964
-14.9031
-15.0285
-15.1739
-15.3404
-15.5275
-15.7335
-15.9553
-16.1886
-16.4281
-16.6676
-16.9007
-17.1203
-17.3198
-17.4927
-17.6326
-17.7338
-17.791
-17.7996
-17.7553
-17.6542
-17.4932
-17.2693
-16.9804
-16.6248
-16.2016
-15.7111
-15.1544
-14.5341
-13.8544
-13.121
-12.3416
-11.5254
-10.6833
-9.82716
-8.96952
-8.12296
-7.29936
-6.50928
-5.76148
-5.06263
-4.41718
-3.82751
-3.29415
-2.81607
-2.39108
-2.01613
-1.68757
-1.40148
-1.1538
-0.940506
-0.757728
-0.60181
-0.469367
-0.357307
-0.262842
-0.183484
-0.117033
-0.0615568
-0.0153692
0.0230013
0.0548352
0.0812432
0.103178
0.121439
0.136681
0.149412
0.160018
0.168771
0.175863
0.181425
0.185554
0.188327
0.189812
0.190073
0.189176
0.18719
0.184189
0.18025
0.175461
0.169908
0.163682
0.156868
0.149545
0.14178
0.133629
0.125138
0.116344
0.107276
0.0979628
0.0884154
0.0786753
0.0687018
0.0586331
0.0481941
0.0380399
0.0267173
0.0175289
0.00298827
-14.7188
-14.8053
-14.9071
-15.0252
-15.1602
-15.3128
-15.4824
-15.6676
-15.8654
-16.0722
-16.2833
-16.4933
-16.6964
-16.8865
-17.0575
-17.2033
-17.3183
-17.3971
-17.4347
-17.4266
-17.3689
-17.2578
-17.0903
-16.8638
-16.5763
-16.2263
-15.8131
-15.337
-14.7994
-14.2028
-13.5511
-12.8499
-12.1062
-11.3284
-10.5264
-9.71104
-8.89365
-8.08561
-7.2977
-6.53961
-5.81951
-5.14372
-4.51664
-3.94083
-3.41715
-2.94506
-2.52285
-2.14801
-1.81739
-1.52755
-1.27483
-1.05557
-0.866211
-0.703346
-0.563794
-0.444625
-0.343176
-0.257053
-0.184122
-0.122502
-0.0705352
-0.0267711
0.0100614
0.0410713
0.0672176
0.089314
0.108032
0.123905
0.137341
0.148639
0.158014
0.165623
0.171583
0.175992
0.178939
0.180508
0.180781
0.17984
0.177773
0.174667
0.170618
0.165721
0.160072
0.153766
0.146886
0.139507
0.131692
0.123492
0.114952
0.106104
0.0969828
0.0876006
0.0780073
0.0681556
0.0582069
0.0478459
0.0378175
0.0264913
0.0175308
0.00273745
-14.7235
-14.8065
-14.9029
-15.013
-15.1375
-15.2765
-15.4296
-15.5951
-15.7706
-15.9528
-16.1376
-16.3202
-16.4956
-16.6581
-16.8025
-16.9231
-17.0147
-17.0723
-17.0914
-17.0677
-16.9973
-16.8769
-16.7036
-16.475
-16.1891
-15.8448
-15.4416
-14.9798
-14.4607
-13.887
-13.2623
-12.5918
-11.8819
-11.1406
-10.3766
-9.59989
-8.82062
-8.04912
-7.2952
-6.56776
-5.87435
-5.22098
-4.61196
-4.04998
-3.53619
-3.07041
-2.65143
-2.27718
-1.945
-1.65188
-1.39456
-1.16974
-0.97414
-0.804619
-0.658197
-0.532111
-0.423825
-0.331045
-0.251711
-0.183994
-0.126273
-0.0771216
-0.0352813
0.000351713
0.0307396
0.0567066
0.0789403
0.0979951
0.114302
0.128184
0.13988
0.149569
0.15739
0.163463
0.167897
0.170793
0.172251
0.17237
0.171249
0.168986
0.165687
0.161453
0.156391
0.150599
0.144169
0.137182
0.129709
0.121807
0.113525
0.104901
0.0959749
0.0867615
0.0773182
0.0675916
0.0577648
0.0474859
0.0375822
0.0262627
0.0175138
0.00251159
-14.7218
-14.8006
-14.8909
-14.9929
-15.1068
-15.2327
-15.3699
-15.5169
-15.6715
-15.8309
-15.9913
-16.1486
-16.2982
-16.4352
-16.5547
-16.6517
-16.7215
-16.7593
-16.761
-16.7226
-16.6405
-16.5115
-16.3329
-16.1026
-15.8187
-15.4803
-15.0869
-14.639
-14.138
-13.5862
-12.9874
-12.3462
-11.6686
-10.9618
-10.2338
-9.4936
-8.75042
-8.01358
-7.29201
-6.59386
-5.92614
-5.29453
-4.70323
-4.155
-3.65121
-3.19205
-2.77667
-2.40346
-2.07019
-1.77425
-1.51276
-1.28277
-1.08128
-0.905405
-0.752363
-0.619562
-0.504602
-0.405289
-0.319644
-0.245893
-0.182457
-0.127937
-0.081092
-0.040826
-0.00617686
0.0236871
0.0494676
0.0717377
0.0909496
0.10745
0.121499
0.133298
0.143007
0.150768
0.156709
0.16095
0.163609
0.164799
0.164633
0.163223
0.16068
0.157118
0.152647
0.147375
0.141401
0.134812
0.127685
0.120084
0.112065
0.103669
0.0949418
0.0859004
0.0766097
0.0670113
0.0573082
0.0471154
0.0373348
0.0260323
0.0174794
0.0023093
-14.7139
-14.788
-14.8718
-14.9654
-15.0689
-15.182
-15.3041
-15.4337
-15.5689
-15.707
-15.8448
-15.9786
-16.1044
-16.2177
-16.3141
-16.3892
-16.4386
-16.458
-16.4435