/*--------------------------------*- C++ -*----------------------------------*\
| =========                 |                                                 |
| \\      /  F ield         | OpenFOAM: The Open Source CFD Toolbox           |
|  \\    /   O peration     | Version:  2.1.1                                 |
|   \\  /    A nd           | Web:      www.OpenFOAM.org                      |
|    \\/     M anipulation  |                                                 |
\*---------------------------------------------------------------------------*/
FoamFile
{
    version     2.0;
    format      ascii;
    class       surfaceScalarField;
    location    "0.05";
    object      phi;
}
// * * * * * * * * * * * * * * * * * * * * * * * * * * * * * * * * * * * * * //

dimensions      [0 3 -1 0 0 0 0];

internalField   nonuniform List<scalar> 
13452
(
6.89921e-05
-5.04852e-07
6.88128e-05
1.79347e-07
6.82003e-05
6.12422e-07
6.72515e-05
9.48819e-07
6.61732e-05
1.07837e-06
6.50794e-05
1.09374e-06
6.4012e-05
1.06738e-06
6.29883e-05
1.02374e-06
6.20165e-05
9.71802e-07
6.11e-05
9.16481e-07
6.02398e-05
8.60218e-07
5.94353e-05
8.04495e-07
5.8685e-05
7.50291e-07
5.79867e-05
6.98311e-07
5.73377e-05
6.49051e-07
5.67348e-05
6.02848e-07
5.61749e-05
5.59927e-07
5.56545e-05
5.20427e-07
5.517e-05
4.84435e-07
5.4718e-05
4.5201e-07
5.42948e-05
4.23211e-07
5.38967e-05
3.98123e-07
5.35198e-05
3.76892e-07
5.316e-05
3.59754e-07
5.28129e-05
3.47098e-07
5.24734e-05
3.39546e-07
5.21353e-05
3.3807e-07
5.17909e-05
3.44419e-07
5.14299e-05
3.60952e-07
5.10354e-05
3.94511e-07
5.05841e-05
4.51306e-07
5.00193e-05
5.6481e-07
7.96568e-07
4.92227e-05
7.01649e-05
-2.25809e-07
7.00409e-05
3.03333e-07
7.01813e-05
4.72046e-07
7.05082e-05
6.21928e-07
7.08581e-05
7.28481e-07
7.11561e-05
7.95675e-07
7.13797e-05
8.43801e-07
7.15304e-05
8.73012e-07
7.16162e-05
8.86028e-07
7.16458e-05
8.86855e-07
7.16276e-05
8.78472e-07
7.15688e-05
8.63245e-07
7.14761e-05
8.43024e-07
7.13551e-05
8.19331e-07
7.12107e-05
7.93405e-07
7.10473e-05
7.66262e-07
7.08685e-05
7.38745e-07
7.06774e-05
7.11552e-07
7.04765e-05
6.8528e-07
7.02681e-05
6.60446e-07
7.00538e-05
6.37528e-07
6.98349e-05
6.16994e-07
6.96125e-05
5.99343e-07
6.93871e-05
5.85149e-07
6.9159e-05
5.75132e-07
6.89284e-05
5.70218e-07
6.86947e-05
5.71759e-07
6.84576e-05
5.81512e-07
6.82159e-05
6.02666e-07
6.7972e-05
6.38319e-07
6.77248e-05
6.98585e-07
6.75116e-05
7.77961e-07
9.20931e-07
6.73873e-05
7.22815e-05
-5.07682e-08
7.23963e-05
1.88506e-07
7.25007e-05
3.67707e-07
7.25864e-05
5.36166e-07
7.26688e-05
6.46082e-07
7.27498e-05
7.14713e-07
7.28347e-05
7.58922e-07
7.29199e-05
7.87797e-07
7.30014e-05
8.04536e-07
7.30765e-05
8.11724e-07
7.31436e-05
8.11354e-07
7.32018e-05
8.05046e-07
7.32507e-05
7.94135e-07
7.32902e-05
7.79807e-07
7.33206e-05
7.63084e-07
7.3342e-05
7.44851e-07
7.33548e-05
7.25877e-07
7.33595e-05
7.06836e-07
7.33565e-05
6.88331e-07
7.3346e-05
6.70919e-07
7.33284e-05
6.55141e-07
7.33039e-05
6.41547e-07
7.32725e-05
6.30742e-07
7.32342e-05
6.23422e-07
7.31889e-05
6.20449e-07
7.31362e-05
6.229e-07
7.30757e-05
6.32274e-07
7.30068e-05
6.50401e-07
7.29291e-05
6.80399e-07
7.28427e-05
7.24622e-07
7.27497e-05
7.91641e-07
7.26532e-05
8.74435e-07
1.00963e-06
7.25645e-05
7.45183e-05
-4.24889e-08
7.44876e-05
2.19263e-07
7.44756e-05
3.7972e-07
7.45144e-05
4.9738e-07
7.45736e-05
5.86833e-07
7.46387e-05
6.49635e-07
7.4703e-05
6.94565e-07
7.47651e-05
7.25718e-07
7.48246e-05
7.45087e-07
7.48812e-05
7.55079e-07
7.49348e-05
7.5777e-07
7.49851e-05
7.54774e-07
7.50318e-05
7.47405e-07
7.50748e-05
7.36802e-07
7.5114e-05
7.23939e-07
7.51491e-05
7.09658e-07
7.51803e-05
6.94695e-07
7.52075e-05
6.79711e-07
7.52305e-05
6.65308e-07
7.52493e-05
6.52057e-07
7.5264e-05
6.40526e-07
7.52742e-05
6.31306e-07
7.52799e-05
6.25055e-07
7.52808e-05
6.22526e-07
7.52766e-05
6.24643e-07
7.52669e-05
6.32537e-07
7.52515e-05
6.4771e-07
7.523e-05
6.71935e-07
7.52025e-05
7.07912e-07
7.51693e-05
7.57802e-07
7.51339e-05
8.27064e-07
7.50952e-05
9.13126e-07
1.03014e-06
7.50747e-05
7.66035e-05
9.91077e-09
7.66277e-05
1.94987e-07
7.66635e-05
3.4398e-07
7.67008e-05
4.60091e-07
7.67381e-05
5.49528e-07
7.67763e-05
6.11394e-07
7.68167e-05
6.54175e-07
7.68588e-05
6.83617e-07
7.69015e-05
7.02367e-07
7.6944e-05
7.12621e-07
7.69855e-05
7.16204e-07
7.70258e-05
7.14555e-07
7.70643e-05
7.08874e-07
7.71009e-05
7.00213e-07
7.71353e-05
6.89488e-07
7.71675e-05
6.77502e-07
7.71972e-05
6.64971e-07
7.72244e-05
6.52542e-07
7.72489e-05
6.40819e-07
7.72705e-05
6.30384e-07
7.72892e-05
6.21823e-07
7.73048e-05
6.15753e-07
7.7317e-05
6.12858e-07
7.73256e-05
6.13922e-07
7.73304e-05
6.19884e-07
7.7331e-05
6.31869e-07
7.73274e-05
6.51302e-07
7.73195e-05
6.79823e-07
7.73078e-05
7.19682e-07
7.72928e-05
7.7274e-07
7.72773e-05
8.42622e-07
7.72619e-05
9.28491e-07
1.03703e-06
7.7255e-05
7.8831e-05
2.48124e-08
7.88383e-05
1.87717e-07
7.88558e-05
3.26461e-07
7.88838e-05
4.32079e-07
7.89191e-05
5.14281e-07
7.89569e-05
5.73536e-07
7.89955e-05
6.15606e-07
7.90341e-05
6.4505e-07
7.90722e-05
6.64214e-07
7.91097e-05
6.75131e-07
7.91463e-05
6.79587e-07
7.91819e-05
6.79015e-07
7.92161e-05
6.74602e-07
7.9249e-05
6.67374e-07
7.92802e-05
6.58229e-07
7.93098e-05
6.47951e-07
7.93375e-05
6.37247e-07
7.93633e-05
6.26759e-07
7.9387e-05
6.17094e-07
7.94086e-05
6.08841e-07
7.94278e-05
6.02598e-07
7.94445e-05
5.98995e-07
7.94587e-05
5.98724e-07
7.947e-05
6.02573e-07
7.94784e-05
6.11458e-07
7.94839e-05
6.26453e-07
7.94863e-05
6.48858e-07
7.9486e-05
6.80125e-07
7.94836e-05
7.22069e-07
7.94801e-05
7.76246e-07
7.94777e-05
8.4501e-07
7.94778e-05
9.28425e-07
1.0294e-06
7.94854e-05
8.10846e-05
3.87601e-08
8.10942e-05
1.78095e-07
8.11171e-05
3.03603e-07
8.11469e-05
4.0223e-07
8.11805e-05
4.80664e-07
8.12153e-05
5.38817e-07
8.12504e-05
5.80518e-07
8.12856e-05
6.09823e-07
8.13206e-05
6.29176e-07
8.13552e-05
6.40574e-07
8.1389e-05
6.45745e-07
8.1422e-05
6.46081e-07
8.14538e-05
6.42738e-07
8.14845e-05
6.36717e-07
8.15138e-05
6.28892e-07
8.15417e-05
6.20037e-07
8.15681e-05
6.10848e-07
8.15929e-05
6.01965e-07
8.1616e-05
5.93994e-07
8.16373e-05
5.87526e-07
8.16568e-05
5.83162e-07
8.16742e-05
5.81531e-07
8.16896e-05
5.83319e-07
8.17029e-05
5.89287e-07
8.17141e-05
6.00305e-07
8.17232e-05
6.17362e-07
8.17304e-05
6.41598e-07
8.17363e-05
6.74251e-07
8.17416e-05
7.16745e-07
8.17476e-05
7.70306e-07
8.17561e-05
8.36449e-07
8.17691e-05
9.15483e-07
1.00849e-06
8.179e-05
8.34099e-05
4.43572e-08
8.34195e-05
1.6852e-07
8.34398e-05
2.83361e-07
8.34665e-05
3.75494e-07
8.34979e-05
4.4931e-07
8.35314e-05
5.05276e-07
8.35658e-05
5.46145e-07
8.36003e-05
5.75283e-07
8.36345e-05
5.94935e-07
8.36682e-05
6.06928e-07
8.37011e-05
6.12882e-07
8.3733e-05
6.14141e-07
8.37639e-05
6.11835e-07
8.37937e-05
6.06945e-07
8.38222e-05
6.0033e-07
8.38495e-05
5.92753e-07
8.38755e-05
5.84903e-07
8.39e-05
5.77414e-07
8.39231e-05
5.70889e-07
8.39447e-05
5.65916e-07
8.39648e-05
5.63087e-07
8.39833e-05
5.63021e-07
8.40003e-05
5.66376e-07
8.40157e-05
5.73872e-07
8.40297e-05
5.86307e-07
8.40425e-05
6.04559e-07
8.40545e-05
6.29598e-07
8.40663e-05
6.62435e-07
8.40789e-05
7.04145e-07
8.40936e-05
7.55637e-07
8.41122e-05
8.17831e-07
8.41367e-05
8.90972e-07
9.75203e-07
8.417e-05
8.57962e-05
4.68807e-08
8.58057e-05
1.59023e-07
8.58254e-05
2.63707e-07
8.58513e-05
3.49516e-07
8.58817e-05
4.18975e-07
8.59142e-05
4.72712e-07
8.59477e-05
5.12644e-07
8.59815e-05
5.41489e-07
8.60152e-05
5.61299e-07
8.60483e-05
5.73769e-07
8.60808e-05
5.80415e-07
8.61124e-05
5.82522e-07
8.61431e-05
5.8118e-07
8.61727e-05
5.7734e-07
8.62012e-05
5.7184e-07
8.62285e-05
5.65425e-07
8.62546e-05
5.58771e-07
8.62795e-05
5.52504e-07
8.63032e-05
5.47216e-07
8.63256e-05
5.43482e-07
8.63468e-05
5.4188e-07
8.63669e-05
5.43001e-07
8.63858e-05
5.47465e-07
8.64037e-05
5.55933e-07
8.64209e-05
5.69116e-07
8.64377e-05
5.87765e-07
8.64546e-05
6.12676e-07
8.64724e-05
6.44637e-07
8.64921e-05
6.84421e-07
8.65151e-05
7.32636e-07
8.65432e-05
7.89771e-07
8.65783e-05
8.55884e-07
9.306e-07
8.66229e-05
8.825e-05
4.69303e-08
8.82596e-05
1.49333e-07
8.82784e-05
2.44993e-07
8.8303e-05
3.24863e-07
8.83319e-05
3.90062e-07
8.83634e-05
4.4127e-07
8.83961e-05
4.79916e-07
8.84294e-05
5.08202e-07
8.84627e-05
5.27968e-07
8.84957e-05
5.40764e-07
8.85281e-05
5.47983e-07
8.85598e-05
5.50836e-07
8.85907e-05
5.5036e-07
8.86205e-05
5.4747e-07
8.86494e-05
5.42975e-07
8.86772e-05
5.37597e-07
8.8704e-05
5.31995e-07
8.87297e-05
5.26777e-07
8.87544e-05
5.22519e-07
8.87781e-05
5.19775e-07
8.88009e-05
5.19095e-07
8.88229e-05
5.21035e-07
8.88442e-05
5.26164e-07
8.8865e-05
5.35073e-07
8.88858e-05
5.48372e-07
8.89069e-05
5.66684e-07
8.89289e-05
5.9063e-07
8.89528e-05
6.20792e-07
8.89795e-05
6.5768e-07
8.90105e-05
7.0164e-07
8.90474e-05
7.52836e-07
8.90922e-05
8.11115e-07
8.7581e-07
8.9147e-05
9.07726e-05
4.55958e-08
9.07823e-05
1.39657e-07
9.08002e-05
2.27154e-07
9.08237e-05
3.01279e-07
9.08515e-05
3.62284e-07
9.0882e-05
4.10802e-07
9.0914e-05
4.47936e-07
9.09467e-05
4.75455e-07
9.09797e-05
4.94979e-07
9.10126e-05
5.07915e-07
9.1045e-05
5.15541e-07
9.10768e-05
5.18986e-07
9.1108e-05
5.19233e-07
9.11383e-05
5.17153e-07
9.11677e-05
5.13519e-07
9.11963e-05
5.09027e-07
9.1224e-05
5.04308e-07
9.12508e-05
4.99947e-07
9.12769e-05
4.96495e-07
9.13022e-05
4.94477e-07
9.13268e-05
4.94409e-07
9.13511e-05
4.96799e-07
9.13751e-05
5.02157e-07
9.13992e-05
5.10994e-07
9.14237e-05
5.23818e-07
9.14493e-05
5.41121e-07
9.14765e-05
5.63364e-07
9.15064e-05
5.90938e-07
9.15399e-05
6.24132e-07
9.15785e-05
6.63071e-07
9.16237e-05
7.07676e-07
9.16772e-05
7.57614e-07
8.12052e-07
9.17409e-05
9.33668e-05
4.34219e-08
9.33765e-05
1.30016e-07
9.33935e-05
2.10104e-07
9.34161e-05
2.78716e-07
9.34427e-05
3.35615e-07
9.34722e-05
3.81328e-07
9.35034e-05
4.16737e-07
9.35356e-05
4.43271e-07
9.35682e-05
4.62343e-07
9.36009e-05
4.75223e-07
9.36334e-05
4.83074e-07
9.36654e-05
4.86942e-07
9.36969e-05
4.8775e-07
9.37278e-05
4.86318e-07
9.37579e-05
4.8338e-07
9.37873e-05
4.79597e-07
9.38161e-05
4.75571e-07
9.38442e-05
4.71855e-07
9.38717e-05
4.68968e-07
9.38988e-05
4.67401e-07
9.39255e-05
4.67624e-07
9.39523e-05
4.70095e-07
9.39792e-05
4.75255e-07
9.40066e-05
4.83534e-07
9.40351e-05
4.95336e-07
9.40652e-05
5.1103e-07
9.40976e-05
5.30929e-07
9.41333e-05
5.55258e-07
9.41733e-05
5.84126e-07
9.42189e-05
6.1748e-07
9.42715e-05
6.55064e-07
9.43327e-05
6.96407e-07
7.40606e-07
9.44042e-05
9.60347e-05
4.0789e-08
9.60442e-05
1.20493e-07
9.60606e-05
1.93784e-07
9.60822e-05
2.57091e-07
9.61078e-05
3.09954e-07
9.61364e-05
3.52779e-07
9.61668e-05
3.8629e-07
9.61985e-05
4.11649e-07
9.62307e-05
4.30078e-07
9.62632e-05
4.42712e-07
9.62957e-05
4.50606e-07
9.63279e-05
4.5472e-07
9.63598e-05
4.55914e-07
9.63911e-05
4.54954e-07
9.6422e-05
4.52531e-07
9.64523e-05
4.49267e-07
9.64822e-05
4.45727e-07
9.65116e-05
4.42431e-07
9.65407e-05
4.39857e-07
9.65696e-05
4.38457e-07
9.65986e-05
4.38651e-07
9.66279e-05
4.4084e-07
9.66577e-05
4.45396e-07
9.66886e-05
4.52665e-07
9.6721e-05
4.62953e-07
9.67555e-05
4.76515e-07
9.67929e-05
4.93533e-07
9.6834e-05
5.14096e-07
9.688e-05
5.38168e-07
9.69319e-05
5.65559e-07
9.69911e-05
5.95892e-07
9.70589e-05
6.2861e-07
6.62799e-07
9.71367e-05
9.87786e-05
3.79239e-08
9.87879e-05
1.11135e-07
9.88036e-05
1.78121e-07
9.88244e-05
2.36324e-07
9.88491e-05
2.85219e-07
9.88768e-05
3.25101e-07
9.89065e-05
3.56572e-07
9.89376e-05
3.80584e-07
9.89695e-05
3.98188e-07
9.90018e-05
4.10392e-07
9.90342e-05
4.18148e-07
9.90666e-05
4.2233e-07
9.90988e-05
4.23731e-07
9.91307e-05
4.23064e-07
9.91623e-05
4.20969e-07
9.91935e-05
4.18028e-07
9.92245e-05
4.14764e-07
9.92552e-05
4.11656e-07
9.9286e-05
4.09144e-07
9.93168e-05
4.0763e-07
9.9348e-05
4.07484e-07
9.93797e-05
4.09047e-07
9.94125e-05
4.12623e-07
9.94467e-05
4.18476e-07
9.94828e-05
4.26822e-07
9.95215e-05
4.37814e-07
9.95635e-05
4.51526e-07
9.96097e-05
4.67934e-07
9.9661e-05
4.86892e-07
9.97184e-05
5.08115e-07
9.97832e-05
5.31151e-07
9.98564e-05
5.55398e-07
5.79978e-07
9.99392e-05
0.000101601
3.49653e-08
0.00010161
1.01981e-07
0.000101625
1.63055e-07
0.000101645
2.16339e-07
0.000101669
2.61328e-07
0.000101696
2.98228e-07
0.000101725
3.27541e-07
0.000101755
3.50053e-07
0.000101787
3.66664e-07
0.000101819
3.78265e-07
0.000101851
3.85706e-07
0.000101884
3.89781e-07
0.000101916
3.91213e-07
0.000101949
3.90657e-07
0.000101981
3.88704e-07
0.000102013
3.85888e-07
0.000102045
3.8269e-07
0.000102077
3.79546e-07
0.00010211
3.76849e-07
0.000102142
3.74953e-07
0.000102176
3.74177e-07
0.00010221
3.748e-07
0.000102245
3.7706e-07
0.000102283
3.81147e-07
0.000102322
3.87196e-07
0.000102365
3.95274e-07
0.000102411
4.05366e-07
0.000102462
4.1736e-07
0.000102518
4.31033e-07
0.00010258
4.46039e-07
0.000102649
4.61889e-07
0.000102726
4.77973e-07
4.93479e-07
0.000102813
0.000104503
3.19936e-08
0.000104512
9.3053e-08
0.000104527
1.4853e-07
0.000104546
1.97063e-07
0.000104569
2.38204e-07
0.000104595
2.72095e-07
0.000104624
2.99151e-07
0.000104654
3.20026e-07
0.000104685
3.35489e-07
0.000104717
3.46323e-07
0.000104749
3.53282e-07
0.000104782
3.57079e-07
0.000104815
3.58368e-07
0.000104848
3.57747e-07
0.000104881
3.55752e-07
0.000104914
3.5287e-07
0.000104947
3.49536e-07
0.00010498
3.46139e-07
0.000105014
3.43026e-07
0.000105049
3.40502e-07
0.000105084
3.38833e-07
0.00010512
3.3824e-07
0.000105159
3.389e-07
0.000105199
3.40936e-07
0.000105242
3.44412e-07
0.000105288
3.49326e-07
0.000105337
3.55592e-07
0.000105392
3.63038e-07
0.000105451
3.71389e-07
0.000105517
3.80267e-07
0.00010559
3.89177e-07
0.00010567
3.9753e-07
4.04597e-07
0.000105759
0.000107489
2.90539e-08
0.000107498
8.43607e-08
0.000107512
1.34495e-07
0.00010753
1.78425e-07
0.000107553
2.15774e-07
0.000107578
2.46634e-07
0.000107606
2.7135e-07
0.000107636
2.90467e-07
0.000107666
3.04642e-07
0.000107698
3.14555e-07
0.000107731
3.20872e-07
0.000107763
3.24227e-07
0.000107797
3.25208e-07
0.00010783
3.2435e-07
0.000107864
3.22139e-07
0.000107897
3.19009e-07
0.000107932
3.15349e-07
0.000107966
3.11499e-07
0.000108002
3.07761e-07
0.000108038
3.0439e-07
0.000108075
3.016e-07
0.000108114
2.99561e-07
0.000108154
2.98392e-07
0.000108197
2.98159e-07
0.000108242
2.98869e-07
0.000108291
3.00462e-07
0.000108344
3.02805e-07
0.000108401
3.05683e-07
0.000108464
3.08796e-07
0.000108533
3.11756e-07
0.000108608
3.14084e-07
0.00010869
3.15232e-07
3.14567e-07
0.00010878
0.00011056
2.61693e-08
0.000110568
7.59032e-08
0.000110582
1.20903e-07
0.0001106
1.60361e-07
0.000110622
1.93969e-07
0.000110647
2.21783e-07
0.000110674
2.44088e-07
0.000110703
2.6134e-07
0.000110733
2.74097e-07
0.000110765
2.82947e-07
0.000110797
2.88472e-07
0.00011083
2.91232e-07
0.000110864
2.91747e-07
0.000110898
2.90494e-07
0.000110932
2.87902e-07
0.000110967
2.84356e-07
0.000111002
2.80195e-07
0.000111038
2.75714e-07
0.000111074
2.71167e-07
0.000111112
2.66763e-07
0.000111151
2.62668e-07
0.000111191
2.59001e-07
0.000111234
2.55835e-07
0.000111279
2.53187e-07
0.000111327
2.51018e-07
0.000111378
2.49227e-07
0.000111433
2.47648e-07
0.000111493
2.46044e-07
0.000111557
2.44105e-07
0.000111628
2.41457e-07
0.000111704
2.37652e-07
0.000111787
2.32194e-07
2.24551e-07
0.000111877
0.000113718
2.33496e-08
0.000113727
6.76726e-08
0.00011374
1.0771e-07
0.000113757
1.42811e-07
0.000113779
1.72723e-07
0.000113803
1.97479e-07
0.00011383
2.17313e-07
0.000113858
2.32606e-07
0.000113889
2.43828e-07
0.00011392
2.51484e-07
0.000113952
2.56081e-07
0.000113986
2.58103e-07
0.000114019
2.58008e-07
0.000114054
2.56212e-07
0.000114088
2.5309e-07
0.000114124
2.48977e-07
0.00011416
2.44164e-07
0.000114197
2.389e-07
0.000114234
2.33392e-07
0.000114273
2.27806e-07
0.000114314
2.22264e-07
0.000114356
2.16844e-07
0.0001144
2.11574e-07
0.000114447
2.06435e-07
0.000114497
2.01353e-07
0.00011455
1.96201e-07
0.000114607
1.90792e-07
0.000114668
1.84883e-07
0.000114734
1.78172e-07
0.000114805
1.70308e-07
0.000114882
1.60887e-07
0.000114964
1.49474e-07
1.35636e-07
0.000115053
0.000116967
2.05973e-08
0.000116975
5.9656e-08
0.000116988
9.48762e-08
0.000117005
1.25719e-07
0.000117026
1.51975e-07
0.00011705
1.73664e-07
0.000117076
1.90974e-07
0.000117104
2.04224e-07
0.000117134
2.13808e-07
0.000117166
2.20155e-07
0.000117198
2.23698e-07
0.000117231
2.24855e-07
0.000117265
2.24019e-07
0.0001173
2.21549e-07
0.000117335
2.17767e-07
0.000117371
2.12958e-07
0.000117408
2.07366e-07
0.000117446
2.01195e-07
0.000117485
1.9461e-07
0.000117525
1.87736e-07
0.000117566
1.80655e-07
0.00011761
1.73408e-07
0.000117655
1.65991e-07
0.000117703
1.58355e-07
0.000117754
1.50403e-07
0.000117809
1.41991e-07
0.000117866
1.32926e-07
0.000117928
1.2297e-07
0.000117995
1.1184e-07
0.000118066
9.92187e-08
0.000118142
8.47523e-08
0.000118223
6.80691e-08
4.88293e-08
0.00011831
0.000120309
1.79103e-08
0.000120317
5.18374e-08
0.000120329
8.23637e-08
0.000120346
1.09032e-07
0.000120366
1.31668e-07
0.000120389
1.5028e-07
0.000120415
1.65022e-07
0.000120443
1.76156e-07
0.000120473
1.84011e-07
0.000120504
1.88946e-07
0.000120537
1.91326e-07
0.00012057
1.91506e-07
0.000120604
1.89816e-07
0.000120639
1.86562e-07
0.000120675
1.82012e-07
0.000120712
1.76403e-07
0.000120749
1.69934e-07
0.000120788
1.62766e-07
0.000120827
1.55025e-07
0.000120868
1.46799e-07
0.000120911
1.38136e-07
0.000120955
1.29047e-07
0.000121001
1.19501e-07
0.00012105
1.09429e-07
0.000121102
9.87187e-08
0.000121157
8.72201e-08
0.000121215
7.47445e-08
0.000121277
6.10678e-08
0.000121343
4.59341e-08
0.000121413
2.90642e-08
0.000121488
1.01589e-08
0.000121567
-1.10912e-08
-3.49401e-08
0.00012165
0.000123746
1.52846e-08
0.000123753
4.41995e-08
0.000123766
7.0137e-08
0.000123782
9.27009e-08
0.000123802
1.11747e-07
0.000123825
1.27276e-07
0.000123851
1.39411e-07
0.000123878
1.48366e-07
0.000123908
1.54412e-07
0.000123939
1.57848e-07
0.000123971
1.58972e-07
0.000124005
1.58079e-07
0.000124039
1.55444e-07
0.000124074
1.51315e-07
0.000124111
1.45914e-07
0.000124147
1.39429e-07
0.000124185
1.32017e-07
0.000124224
1.23799e-07
0.000124265
1.14865e-07
0.000124306
1.05269e-07
0.000124349
9.50325e-08
0.000124394
8.41401e-08
0.000124441
7.25426e-08
0.00012449
6.01564e-08
0.000124542
4.68644e-08
0.000124597
3.25177e-08
0.000124655
1.69385e-08
0.000124716
-7.60072e-11
0.00012478
-1.87511e-08
0.000124849
-3.9323e-08
0.000124921
-6.20387e-08
0.000124997
-8.7146e-08
-1.14822e-07
0.000125077
0.000127281
1.27145e-08
0.000127289
3.6724e-08
0.000127301
5.81618e-08
0.000127317
7.66794e-08
0.000127336
9.21588e-08
0.000127359
1.04597e-07
0.000127384
1.1409e-07
0.000127412
1.20814e-07
0.000127441
1.24987e-07
0.000127472
1.2685e-07
0.000127504
1.26645e-07
0.000127538
1.24606e-07
0.000127572
1.20954e-07
0.000127608
1.15888e-07
0.000127644
1.09578e-07
0.000127681
1.02174e-07
0.00012772
9.37869e-08
0.000127759
8.45031e-08
0.000127799
7.43793e-08
0.000127841
6.34424e-08
0.000127885
5.16889e-08
0.00012793
3.90854e-08
0.000127977
2.55693e-08
0.000128026
1.105e-08
0.000128077
-4.58971e-09
0.000128131
-2.14909e-08
0.000128188
-3.9815e-08
0.000128248
-5.97402e-08
0.00012831
-8.14567e-08
0.000128376
-1.05159e-07
0.000128445
-1.31044e-07
0.000128517
-1.59301e-07
-1.90042e-07
0.000128593
0.000130917
1.01965e-08
0.000130925
2.93978e-08
0.000130936
4.64131e-08
0.000130952
6.09307e-08
0.000130972
7.28603e-08
0.000130994
8.21971e-08
0.000131019
8.90173e-08
0.000131046
9.34633e-08
0.000131076
9.57086e-08
0.000131107
9.59428e-08
0.000131139
9.43497e-08
0.000131172
9.11108e-08
0.000131207
8.63981e-08
0.000131242
8.03573e-08
0.000131279
7.31104e-08
0.000131316
6.47777e-08
0.000131355
5.54216e-08
0.000131394
4.50954e-08
0.000131435
3.38289e-08
0.000131476
2.16257e-08
0.00013152
8.46228e-09
0.000131564
-5.70863e-09
0.000131611
-2.09578e-08
0.000131659
-3.73778e-08
0.00013171
-5.50805e-08
0.000131763
-7.41948e-08
0.000131818
-9.48626e-08
0.000131875
-1.17235e-07
0.000131935
-1.41468e-07
0.000131998
-1.67715e-07
0.000132063
-1.96125e-07
0.00013213
-2.26837e-07
-2.59905e-07
0.0001322
0.000134658
7.72061e-09
0.000134665
2.21968e-08
0.000134676
3.48498e-08
0.000134692
4.53994e-08
0.000134711
5.37917e-08
0.000134733
6.00177e-08
0.000134758
6.41391e-08
0.000134785
6.62725e-08
0.000134814
6.65514e-08
0.000134845
6.51217e-08
0.000134877
6.21098e-08
0.000134911
5.76416e-08
0.000134945
5.18462e-08
0.000134981
4.48216e-08
0.000135017
3.66332e-08
0.000135055
2.74057e-08
0.000135093
1.71173e-08
0.000135132
5.81275e-09
0.000135173
-6.50774e-09
0.000135214
-1.98597e-08
0.000135257
-3.42813e-08
0.000135301
-4.98296e-08
0.000135347
-6.65794e-08
0.000135394
-8.46213e-08
0.000135443
-1.04059e-07
0.000135494
-1.25006e-07
0.000135546
-1.47583e-07
0.000135601
-1.71914e-07
0.000135658
-1.98121e-07
0.000135716
-2.2632e-07
0.000135777
-2.56615e-07
0.000135839
-2.89104e-07
-3.23789e-07
0.000135903
0.000138505
5.30466e-09
0.000138512
1.51484e-08
0.000138523
2.34953e-08
0.000138538
3.00841e-08
0.000138557
3.49276e-08
0.000138579
3.80147e-08
0.000138604
3.94024e-08
0.000138631
3.9187e-08
0.00013866
3.74686e-08
0.000138691
3.43435e-08
0.000138723
2.98901e-08
0.000138757
2.41878e-08
0.000138791
1.73305e-08
0.000138827
9.36261e-09
0.000138863
2.18178e-10
0.0001389
-9.79107e-09
0.000138938
-2.09406e-08
0.000138977
-3.31218e-08
0.000139017
-4.63637e-08
0.000139058
-6.07001e-08
0.0001391
-7.61817e-08
0.000139143
-9.28722e-08
0.000139187
-1.10847e-07
0.000139233
-1.30192e-07
0.00013928
-1.50999e-07
0.000139328
-1.73366e-07
0.000139378
-1.97392e-07
0.000139429
-2.23175e-07
0.000139482
-2.50805e-07
0.000139536
-2.80364e-07
0.000139591
-3.1192e-07
0.000139647
-3.45529e-07
-3.81159e-07
0.000139705
0.000142462
2.87674e-09
0.000142469
8.14535e-09
0.00014248
1.22236e-08
0.000142495
1.4882e-08
0.000142514
1.62045e-08
0.000142536
1.61377e-08
0.00014256
1.47704e-08
0.000142587
1.21835e-08
0.000142616
8.45601e-09
0.000142647
3.66692e-09
0.000142679
-2.20347e-09
0.000142713
-9.15945e-09
0.000142747
-1.70643e-08
0.000142782
-2.59542e-08
0.000142818
-3.58426e-08
0.000142855
-4.66824e-08
0.000142893
-5.85551e-08
0.000142931
-7.14685e-08
0.00014297
-8.54604e-08
0.00014301
-1.00581e-07
0.000143051
-1.16888e-07
0.000143092
-1.34448e-07
0.000143135
-1.53337e-07
0.000143178
-1.73631e-07
0.000143223
-1.95414e-07
0.000143268
-2.18765e-07
0.000143315
-2.43763e-07
0.000143362
-2.70481e-07
0.00014341
-2.98981e-07
0.000143459
-3.29315e-07
0.000143509
-3.61519e-07
0.000143559
-3.95617e-07
-4.31545e-07
0.000143609
0.000146532
6.8155e-10
0.000146538
1.52295e-09
0.000146549
1.31653e-09
0.000146564
-1.81351e-10
0.000146583
-2.44584e-09
0.000146605
-5.74176e-09
0.000146629
-9.92241e-09
0.000146656
-1.4912e-08
0.000146686
-2.0666e-08
0.000146716
-2.71724e-08
0.000146749
-3.44472e-08
0.000146782
-4.25099e-08
0.000146816
-5.13654e-08
0.000146851
-6.10606e-08
0.000146887
-7.16353e-08
0.000146924
-8.31148e-08
0.000146961
-9.55585e-08
0.000146998
-1.09018e-07
0.000147036
-1.23547e-07
0.000147075
-1.39207e-07
0.000147114
-1.56062e-07
0.000147154
-1.74183e-07
0.000147194
-1.93639e-07
0.000147235
-2.14502e-07
0.000147276
-2.36841e-07
0.000147318
-2.60721e-07
0.000147361
-2.86202e-07
0.000147404
-3.13333e-07
0.000147447
-3.42155e-07
0.00014749
-3.72693e-07
0.000147534
-4.04956e-07
0.000147577
-4.38945e-07
-4.74571e-07
0.00014762
0.000150718
-1.95827e-09
0.000150725
-5.48685e-09
0.000150736
-9.76124e-09
0.000150751
-1.4973e-08
0.00015077
-2.09034e-08
0.000150791
-2.74563e-08
0.000150816
-3.44797e-08
0.000150843
-4.18894e-08
0.000150872
-4.96714e-08
0.000150903
-5.78467e-08
0.000150935
-6.64796e-08
0.000150968
-7.56407e-08
0.000151002
-8.53903e-08
0.000151037
-9.58025e-08
0.000151072
-1.06953e-07
0.000151108
-1.18912e-07
0.000151144
-1.31755e-07
0.00015118
-1.45557e-07
0.000151217
-1.60389e-07
0.000151254
-1.76321e-07
0.000151292
-1.93426e-07
0.000151329
-2.11772e-07
0.000151367
-2.31428e-07
0.000151405
-2.52457e-07
0.000151443
-2.74917e-07
0.000151481
-2.9886e-07
0.000151519
-3.24329e-07
0.000151557
-3.51354e-07
0.000151595
-3.79955e-07
0.000151633
-4.10137e-07
0.00015167
-4.41888e-07
0.000151706
-4.75187e-07
-5.09932e-07
0.000151741
0.000155023
-3.30852e-09
0.000155029
-1.11003e-08
0.000155039
-1.9911e-08
0.000155053
-2.96612e-08
0.000155072
-3.97564e-08
0.000155095
-4.98783e-08
0.00015512
-5.98725e-08
0.000155148
-6.97025e-08
0.000155178
-7.94228e-08
0.000155209
-8.91323e-08
0.000155241
-9.8955e-08
0.000155275
-1.09017e-07
0.000155309
-1.1944e-07
0.000155343
-1.30345e-07
0.000155378
-1.41843e-07
0.000155413
-1.54036e-07
0.000155449
-1.67024e-07
0.000155484
-1.80896e-07
0.000155519
-1.95737e-07
0.000155555
-2.11626e-07
0.00015559
-2.28639e-07
0.000155625
-2.46845e-07
0.00015566
-2.66307e-07
0.000155694
-2.87082e-07
0.000155729
-3.09217e-07
0.000155763
-3.32752e-07
0.000155796
-3.57716e-07
0.000155829
-3.84124e-07
0.000155861
-4.1198e-07
0.000155892
-4.41272e-07
0.000155922
-4.71975e-07
0.000155951
-5.04053e-07
-5.37394e-07
0.000155978
0.000159455
-7.37137e-09
0.000159462
-1.85445e-08
0.000159473
-3.07281e-08
0.000159487
-4.38957e-08
0.000159505
-5.75527e-08
0.000159526
-7.11178e-08
0.000159551
-8.41951e-08
0.000159577
-9.66403e-08
0.000159607
-1.08493e-07
0.000159637
-1.19885e-07
0.000159669
-1.30989e-07
0.000159702
-1.41992e-07
0.000159736
-1.53071e-07
0.00015977
-1.64396e-07
0.000159804
-1.7612e-07
0.000159839
-1.8838e-07
0.000159873
-2.01301e-07
0.000159907
-2.14995e-07
0.000159941
-2.29562e-07
0.000159974
-2.45092e-07
0.000160007
-2.61665e-07
0.00016004
-2.7935e-07
0.000160072
-2.98211e-07
0.000160103
-3.18297e-07
0.000160133
-3.39649e-07
0.000160163
-3.62298e-07
0.000160191
-3.8626e-07
0.000160219
-4.1154e-07
0.000160245
-4.38129e-07
0.00016027
-4.66004e-07
0.000160293
-4.95128e-07
0.000160314
-5.25455e-07
-5.5687e-07
0.000160334
0.000164004
-4.83664e-09
0.000164006
-2.07249e-08
0.000164015
-3.95428e-08
0.00016403
-5.92894e-08
0.000164051
-7.83359e-08
0.000164076
-9.59546e-08
0.000164103
-1.11997e-07
0.000164133
-1.26597e-07
0.000164165
-1.39994e-07
0.000164197
-1.52458e-07
0.000164231
-1.64265e-07
0.000164264
-1.75677e-07
0.000164298
-1.86932e-07
0.000164332
-1.98241e-07
0.000164366
-2.09791e-07
0.000164399
-2.21742e-07
0.000164432
-2.34237e-07
0.000164464
-2.47399e-07
0.000164496
-2.61336e-07
0.000164527
-2.76142e-07
0.000164558
-2.91898e-07
0.000164587
-3.08673e-07
0.000164615
-3.26524e-07
0.000164642
-3.45498e-07
0.000164668
-3.65628e-07
0.000164693
-3.86935e-07
0.000164716
-4.0943e-07
0.000164738
-4.33109e-07
0.000164758
-4.57954e-07
0.000164775
-4.83937e-07
0.000164791
-5.11014e-07
0.000164805
-5.39136e-07
-5.68187e-07
0.000164816
0.000168701
-1.44109e-08
0.00016871
-2.90613e-08
0.000168718
-4.77745e-08
0.000168728
-6.95974e-08
0.000168743
-9.28704e-08
0.000168762
-1.15245e-07
0.000168786
-1.35523e-07
0.000168813
-1.53527e-07
0.000168842
-1.6951e-07
0.000168873
-1.83842e-07
0.000168906
-1.96907e-07
0.000168939
-2.09076e-07
0.000168973
-2.20679e-07
0.000169007
-2.32004e-07
0.00016904
-2.43299e-07
0.000169073
-2.54772e-07
0.000169106
-2.66602e-07
0.000169137
-2.78937e-07
0.000169168
-2.91905e-07
0.000169197
-3.05611e-07
0.000169226
-3.20144e-07
0.000169253
-3.35577e-07
0.000169278
-3.51968e-07
0.000169302
-3.6936e-07
0.000169324
-3.87784e-07
0.000169344
-4.07258e-07
0.000169363
-4.27786e-07
0.000169379
-4.4936e-07
0.000169393
-4.71958e-07
0.000169405
-4.95547e-07
0.000169414
-5.20081e-07
0.00016942
-5.45505e-07
-5.71714e-07
0.000169424
0.000173491
5.70951e-09
0.000173485
-2.29608e-08
0.000173496
-5.82568e-08
0.000173518
-9.18502e-08
0.000173547
-1.21749e-07
0.000173579
-1.47275e-07
0.000173612
-1.69107e-07
0.000173647
-1.87856e-07
0.000173681
-2.04105e-07
0.000173716
-2.18386e-07
0.00017375
-2.3118e-07
0.000173784
-2.42912e-07
0.000173817
-2.53942e-07
0.00017385
-2.64569e-07
0.000173881
-2.75047e-07
0.000173912
-2.85588e-07
0.000173942
-2.96368e-07
0.000173971
-3.07538e-07
0.000173998
-3.19222e-07
0.000174024
-3.31525e-07
0.000174048
-3.44532e-07
0.000174071
-3.58312e-07
0.000174092
-3.72921e-07
0.000174111
-3.884e-07
0.000174128
-4.04774e-07
0.000174143
-4.22059e-07
0.000174155
-4.40257e-07
0.000174165
-4.59358e-07
0.000174173
-4.7934e-07
0.000174177
-5.0017e-07
0.000174179
-5.21806e-07
0.000174178
-5.44199e-07
-5.67246e-07
0.000174173
0.000178498
-2.39367e-08
0.000178501
-2.59155e-08
0.00017849
-4.76098e-08
0.000178482
-8.33623e-08
0.000178485
-1.24715e-07
0.000178499
-1.61502e-07
0.000178522
-1.91787e-07
0.00017855
-2.16256e-07
0.000178582
-2.3628e-07
0.000178617
-2.52896e-07
0.000178653
-2.66941e-07
0.000178689
-2.79117e-07
0.000178725
-2.89991e-07
0.00017876
-3.00015e-07
0.000178795
-3.09547e-07
0.000178828
-3.18875e-07
0.00017886
-3.28228e-07
0.00017889
-3.37788e-07
0.000178919
-3.47704e-07
0.000178945
-3.58093e-07
0.00017897
-3.6905e-07
0.000178992
-3.80647e-07
0.000179012
-3.92943e-07
0.00017903
-4.05976e-07
0.000179045
-4.19774e-07
0.000179057
-4.3435e-07
0.000179067
-4.49706e-07
0.000179073
-4.65831e-07
0.000179076
-4.82705e-07
0.000179077
-5.00296e-07
0.000179073
-5.18564e-07
0.000179067
-5.37463e-07
-5.56904e-07
0.000179056
0.000183487
5.68568e-08
0.000183465
-4.09239e-09
0.000183501
-8.37749e-08
0.000183554
-1.36409e-07
0.000183606
-1.76632e-07
0.000183653
-2.08196e-07
0.000183694
-2.33604e-07
0.000183733
-2.54729e-07
0.000183769
-2.72319e-07
0.000183803
-2.87089e-07
0.000183836
-2.99726e-07
0.000183868
-3.10772e-07
0.000183898
-3.20654e-07
0.000183928
-3.29724e-07
0.000183957
-3.38269e-07
0.000183984
-3.46525e-07
0.000184011
-3.54684e-07
0.000184036
-3.62907e-07
0.00018406
-3.71323e-07
0.000184081
-3.80041e-07
0.000184102
-3.89148e-07
0.00018412
-3.98716e-07
0.000184135
-4.08799e-07
0.000184149
-4.19439e-07
0.00018416
-4.30666e-07
0.000184168
-4.42497e-07
0.000184173
-4.54938e-07
0.000184175
-4.67986e-07
0.000184174
-4.81629e-07
0.00018417
-4.95843e-07
0.000184162
-5.10601e-07
0.00018415
-5.25867e-07
-5.41567e-07
0.000184135
0.000188861
7.81194e-09
0.000188796
6.05982e-08
0.000188711
1.30354e-09
0.000188648
-7.30847e-08
0.00018863
-1.58546e-07
0.000188644
-2.22205e-07
0.000188677
-2.66335e-07
0.00018872
-2.97989e-07
0.000188769
-3.2141e-07
0.000188821
-3.39221e-07
0.000188874
-3.53089e-07
0.000188928
-3.64169e-07
0.00018898
-3.73289e-07
0.000189032
-3.81047e-07
0.000189081
-3.87887e-07
0.000189129
-3.94142e-07
0.000189174
-4.00066e-07
0.000189217
-4.05854e-07
0.000189258
-4.11663e-07
0.000189295
-4.17612e-07