/*--------------------------------*- C++ -*----------------------------------*\
| =========                 |                                                 |
| \\      /  F ield         | OpenFOAM: The Open Source CFD Toolbox           |
|  \\    /   O peration     | Version:  2.1.1                                 |
|   \\  /    A nd           | Web:      www.OpenFOAM.org                      |
|    \\/     M anipulation  |                                                 |
\*---------------------------------------------------------------------------*/
FoamFile
{
    version     2.0;
    format      ascii;
    class       volVectorField;
    location    "0.05";
    object      U;
}
// * * * * * * * * * * * * * * * * * * * * * * * * * * * * * * * * * * * * * //

dimensions      [0 1 -1 0 0 0 0];

internalField   nonuniform List<vector> 
6820
(
(8.34337 -0.360073 0)
(8.40106 -0.247139 0)
(8.35598 -0.115276 0)
(8.24757 -0.0365343 0)
(8.11898 0.00604049 0)
(7.98537 0.0279135 0)
(7.85304 0.0386955 0)
(7.72538 0.0434079 0)
(7.6038 0.0446931 0)
(7.48883 0.0440092 0)
(7.3807 0.042199 0)
(7.27942 0.0397685 0)
(7.18486 0.0370306 0)
(7.09677 0.0341831 0)
(7.01486 0.0313521 0)
(6.93877 0.0286183 0)
(6.8681 0.0260328 0)
(6.80245 0.0236272 0)
(6.74141 0.0214208 0)
(6.68452 0.0194254 0)
(6.63137 0.0176493 0)
(6.5815 0.0161 0)
(6.53445 0.014787 0)
(6.48975 0.0137253 0)
(6.44688 0.0129386 0)
(6.40527 0.0124655 0)
(6.36424 0.012366 0)
(6.32297 0.0127506 0)
(6.28043 0.0137756 0)
(6.23509 0.0158291 0)
(6.18435 0.0196696 0)
(6.12554 0.025794 0)
(6.04534 0.0470968 0)
(8.32138 0.166258 0)
(8.28708 0.190025 0)
(8.28541 0.13219 0)
(8.31734 0.0959178 0)
(8.36159 0.075098 0)
(8.40158 0.0624513 0)
(8.43257 0.0549869 0)
(8.45453 0.0504862 0)
(8.46832 0.0476088 0)
(8.47493 0.0456426 0)
(8.4754 0.0441941 0)
(8.47067 0.0430274 0)
(8.46155 0.0420061 0)
(8.44877 0.0410564 0)
(8.43296 0.0401416 0)
(8.41465 0.0392478 0)
(8.39432 0.038375 0)
(8.37236 0.0375316 0)
(8.34911 0.0367317 0)
(8.32485 0.0359935 0)
(8.29981 0.0353393 0)
(8.27415 0.0347959 0)
(8.24803 0.0343968 0)
(8.22152 0.034184 0)
(8.1947 0.0342138 0)
(8.16757 0.0345625 0)
(8.14013 0.0353399 0)
(8.11227 0.0367135 0)
(8.08408 0.0389246 0)
(8.05498 0.0425014 0)
(8.02691 0.0478968 0)
(7.99549 0.0577113 0)
(7.98202 0.0716205 0)
(8.3225 -0.0608765 0)
(8.31395 -0.0832517 0)
(8.33044 -0.0540487 0)
(8.3442 -0.0202304 0)
(8.35299 0.002506 0)
(8.36191 0.0166614 0)
(8.37152 0.0259332 0)
(8.3814 0.0321875 0)
(8.39108 0.0364495 0)
(8.40015 0.0393658 0)
(8.40837 0.0413335 0)
(8.4156 0.0425993 0)
(8.42176 0.0433404 0)
(8.42685 0.0436921 0)
(8.43087 0.0437587 0)
(8.43384 0.0436225 0)
(8.4358 0.0433505 0)
(8.43681 0.0429987 0)
(8.43689 0.0426154 0)
(8.43611 0.0422445 0)
(8.43449 0.0419282 0)
(8.43207 0.0417094 0)
(8.42885 0.0416354 0)
(8.42485 0.0417611 0)
(8.42005 0.0421554 0)
(8.41443 0.0429056 0)
(8.40795 0.0441369 0)
(8.40051 0.0460021 0)
(8.39213 0.0487938 0)
(8.38262 0.0526799 0)
(8.37244 0.0586999 0)
(8.36096 0.0654516 0)
(8.35093 0.0783962 0)
(8.33365 0.0145788 0)
(8.32974 0.0477488 0)
(8.3273 0.0540583 0)
(8.32857 0.0466642 0)
(8.33437 0.0411983 0)
(8.34179 0.0387331 0)
(8.34915 0.0379652 0)
(8.35622 0.0379684 0)
(8.36302 0.0382436 0)
(8.36953 0.0385725 0)
(8.3757 0.0388596 0)
(8.38151 0.039067 0)
(8.38694 0.039189 0)
(8.39197 0.0392341 0)
(8.39657 0.0392166 0)
(8.40073 0.0391552 0)
(8.40444 0.0390715 0)
(8.4077 0.0389893 0)
(8.41051 0.038935 0)
(8.41286 0.0389379 0)
(8.41473 0.0390312 0)
(8.41613 0.0392537 0)
(8.41703 0.0396525 0)
(8.4174 0.0402858 0)
(8.41723 0.0412282 0)
(8.41647 0.0425758 0)
(8.41509 0.0444605 0)
(8.41302 0.0470491 0)
(8.4103 0.050594 0)
(8.40684 0.0553522 0)
(8.40304 0.0618436 0)
(8.39865 0.0700845 0)
(8.39519 0.0813719 0)
(8.3302 -0.00529241 0)
(8.3272 -0.00745629 0)
(8.3313 -0.00235031 0)
(8.3359 0.00818041 0)
(8.33989 0.0173957 0)
(8.34395 0.0236573 0)
(8.34822 0.0278922 0)
(8.35272 0.0309139 0)
(8.35735 0.0331259 0)
(8.36201 0.0347627 0)
(8.36659 0.0359727 0)
(8.37104 0.0368543 0)
(8.37533 0.0374787 0)
(8.37942 0.0379034 0)
(8.38329 0.038178 0)
(8.38691 0.0383468 0)
(8.39028 0.0384509 0)
(8.39338 0.038529 0)
(8.39619 0.0386192 0)
(8.39871 0.0387604 0)
(8.40091 0.0389939 0)
(8.40278 0.039366 0)
(8.40429 0.0399301 0)
(8.40543 0.0407505 0)
(8.40617 0.041907 0)
(8.40647 0.0434989 0)
(8.40632 0.045657 0)
(8.40569 0.0485388 0)
(8.40462 0.0523709 0)
(8.40313 0.0573566 0)
(8.40145 0.0639131 0)
(8.39964 0.0719826 0)
(8.39838 0.0824548 0)
(8.33238 0.00231337 0)
(8.33115 0.0133787 0)
(8.33272 0.0205095 0)
(8.33535 0.0239545 0)
(8.33871 0.0261632 0)
(8.34265 0.0280296 0)
(8.34674 0.0297703 0)
(8.35083 0.0313365 0)
(8.35489 0.0326506 0)
(8.35889 0.0337049 0)
(8.36282 0.0345253 0)
(8.36664 0.0351445 0)
(8.37033 0.0355967 0)
(8.37388 0.0359177 0)
(8.37727 0.0361424 0)
(8.38049 0.0363048 0)
(8.38352 0.036438 0)
(8.38635 0.0365753 0)
(8.38897 0.0367512 0)
(8.39137 0.0370022 0)
(8.39353 0.0373688 0)
(8.39544 0.0378972 0)
(8.39707 0.0386415 0)
(8.39843 0.0396668 0)
(8.39948 0.0410532 0)
(8.40021 0.0428987 0)
(8.40063 0.0453275 0)
(8.40073 0.0484866 0)
(8.40058 0.0525684 0)
(8.40023 0.0577584 0)
(8.39988 0.0643404 0)
(8.39968 0.0723869 0)
(8.4 0.082313 0)
(8.33232 0.00090714 0)
(8.33149 0.0058845 0)
(8.33334 0.0109196 0)
(8.33631 0.0157782 0)
(8.33962 0.0202246 0)
(8.34316 0.0238016 0)
(8.34677 0.026558 0)
(8.35039 0.0286913 0)
(8.35401 0.0303411 0)
(8.35759 0.0316132 0)
(8.36111 0.032589 0)
(8.36454 0.0333296 0)
(8.36788 0.0338844 0)
(8.37109 0.0342972 0)
(8.37418 0.0346074 0)
(8.37712 0.0348521 0)
(8.37992 0.035067 0)
(8.38255 0.0352878 0)
(8.38501 0.0355509 0)
(8.3873 0.0358952 0)
(8.3894 0.0363631 0)
(8.3913 0.0370024 0)
(8.39299 0.0378688 0)
(8.39446 0.0390276 0)
(8.39572 0.0405575 0)
(8.39676 0.0425524 0)
(8.39759 0.0451268 0)
(8.39826 0.0484124 0)
(8.39881 0.05257 0)
(8.39935 0.0577559 0)
(8.40005 0.0641744 0)
(8.4011 0.0719189 0)
(8.40275 0.081206 0)
(8.33272 0.00174485 0)
(8.33253 0.00739534 0)
(8.3341 0.0127571 0)
(8.33662 0.0170927 0)
(8.33956 0.0206172 0)
(8.34283 0.0234205 0)
(8.34626 0.0256689 0)
(8.34972 0.0274987 0)
(8.35316 0.0289733 0)
(8.35656 0.030143 0)
(8.35988 0.0310588 0)
(8.36312 0.0317666 0)
(8.36627 0.0323082 0)
(8.3693 0.0327225 0)
(8.37222 0.0330468 0)
(8.37501 0.0333166 0)
(8.37767 0.0335667 0)
(8.38019 0.0338324 0)
(8.38257 0.0341498 0)
(8.38481 0.0345578 0)
(8.38689 0.0350986 0)
(8.38882 0.03582 0)
(8.39059 0.0367764 0)
(8.39221 0.0380314 0)
(8.39368 0.0396595 0)
(8.39501 0.0417476 0)
(8.39624 0.0443979 0)
(8.39741 0.0477249 0)
(8.39861 0.0518598 0)
(8.39993 0.0569305 0)
(8.40155 0.0630824 0)
(8.40365 0.0704033 0)
(8.40645 0.0790016 0)
(8.33284 0.00183045 0)
(8.33291 0.0065854 0)
(8.33436 0.0111795 0)
(8.33671 0.0151511 0)
(8.33949 0.0186025 0)
(8.34257 0.0214882 0)
(8.34581 0.0238379 0)
(8.34909 0.0257382 0)
(8.35238 0.0272586 0)
(8.35563 0.0284615 0)
(8.35882 0.0294057 0)
(8.36193 0.0301415 0)
(8.36496 0.0307129 0)
(8.36789 0.03116 0)
(8.37071 0.0315203 0)
(8.37343 0.0318295 0)
(8.37602 0.0321226 0)
(8.3785 0.0324349 0)
(8.38086 0.0328027 0)
(8.3831 0.0332646 0)
(8.38522 0.0338625 0)
(8.38722 0.0346431 0)
(8.38911 0.0356592 0)
(8.3909 0.0369707 0)
(8.3926 0.0386465 0)
(8.39424 0.0407648 0)
(8.39587 0.0434142 0)
(8.39753 0.0466911 0)
(8.39933 0.0506997 0)
(8.40137 0.0555395 0)
(8.4038 0.0613114 0)
(8.40682 0.0680821 0)
(8.4106 0.0758956 0)
(8.33293 0.00187726 0)
(8.33321 0.00627635 0)
(8.33456 0.0105758 0)
(8.33671 0.0143318 0)
(8.33928 0.0175629 0)
(8.34215 0.0202608 0)
(8.34521 0.022469 0)
(8.34834 0.0242705 0)
(8.3515 0.0257294 0)
(8.35464 0.0268987 0)
(8.35773 0.0278279 0)
(8.36076 0.0285616 0)
(8.36372 0.0291405 0)
(8.36658 0.0296021 0)
(8.36936 0.0299826 0)
(8.37204 0.0303165 0)
(8.37461 0.0306381 0)
(8.37709 0.0309818 0)
(8.37947 0.0313832 0)
(8.38176 0.03188 0)
(8.38395 0.0325128 0)
(8.38606 0.0333262 0)
(8.3881 0.0343697 0)
(8.39009 0.0356986 0)
(8.39204 0.0373746 0)
(8.39401 0.0394661 0)
(8.39603 0.0420474 0)
(8.39817 0.0451967 0)
(8.40053 0.048994 0)
(8.40322 0.0535124 0)
(8.40639 0.0588174 0)
(8.4102 0.0649504 0)
(8.41482 0.0719147 0)
(8.33298 0.0018455 0)
(8.33336 0.00586371 0)
(8.33463 0.0097716 0)
(8.3366 0.0132373 0)
(8.339 0.0162548 0)
(8.34169 0.0188191 0)
(8.34458 0.0209511 0)
(8.34757 0.0227068 0)
(8.3506 0.0241384 0)
(8.35363 0.0252933 0)
(8.35663 0.0262175 0)
(8.35959 0.0269538 0)
(8.36248 0.0275413 0)
(8.3653 0.0280164 0)
(8.36805 0.028414 0)
(8.37071 0.0287678 0)
(8.37329 0.0291109 0)
(8.3758 0.0294768 0)
(8.37822 0.0298998 0)
(8.38057 0.0304161 0)
(8.38287 0.0310642 0)
(8.38511 0.0318858 0)
(8.38732 0.0329263 0)
(8.38952 0.0342352 0)
(8.39174 0.0358664 0)
(8.39403 0.0378776 0)
(8.39644 0.0403292 0)
(8.39903 0.0432819 0)
(8.40192 0.0467938 0)
(8.40519 0.0509145 0)
(8.409 0.0556813 0)
(8.41349 0.0611112 0)
(8.4188 0.0671801 0)
(8.33301 0.00177227 0)
(8.33344 0.00547308 0)
(8.33464 0.0090601 0)
(8.33646 0.0122809 0)
(8.33869 0.015103 0)
(8.34122 0.0175196 0)
(8.34395 0.0195447 0)
(8.34679 0.0212225 0)
(8.34969 0.0225996 0)
(8.35261 0.0237187 0)
(8.35553 0.0246213 0)
(8.35841 0.0253465 0)
(8.36125 0.0259307 0)
(8.36403 0.0264083 0)
(8.36675 0.0268122 0)
(8.36941 0.0271744 0)
(8.37201 0.0275267 0)
(8.37454 0.0279009 0)
(8.37702 0.0283296 0)
(8.37946 0.0288467 0)
(8.38186 0.0294879 0)
(8.38424 0.0302913 0)
(8.38663 0.0312975 0)
(8.38904 0.0325495 0)
(8.39153 0.0340928 0)
(8.39413 0.0359744 0)
(8.3969 0.0382412 0)
(8.39992 0.0409377 0)
(8.40327 0.044103 0)
(8.40706 0.0477663 0)
(8.4114 0.0519422 0)
(8.41645 0.0566273 0)
(8.42231 0.0617792 0)
(8.33303 0.00167461 0)
(8.33348 0.00508205 0)
(8.33461 0.00836602 0)
(8.33629 0.0113399 0)
(8.33837 0.0139627 0)
(8.34074 0.0162272 0)
(8.34332 0.0181423 0)
(8.34603 0.019741 0)
(8.34881 0.0210615 0)
(8.35163 0.0221411 0)
(8.35445 0.0230169 0)
(8.35727 0.0237247 0)
(8.36005 0.0242984 0)
(8.36279 0.0247701 0)
(8.36549 0.0251711 0)
(8.36815 0.0255314 0)
(8.37076 0.0258811 0)
(8.37333 0.0262499 0)
(8.37586 0.0266683 0)
(8.37838 0.0271676 0)
(8.38089 0.02778 0)
(8.38341 0.0285394 0)
(8.38596 0.0294811 0)
(8.38859 0.0306413 0)
(8.39132 0.032057 0)
(8.39421 0.0337648 0)
(8.39731 0.035799 0)
(8.4007 0.0381896 0)
(8.40445 0.0409595 0)
(8.40867 0.0441206 0)
(8.41346 0.04767 0)
(8.41894 0.0515882 0)
(8.4252 0.0558215 0)
(8.33304 0.00156407 0)
(8.33349 0.00469806 0)
(8.33455 0.00770396 0)
(8.33612 0.010444 0)
(8.33806 0.0128748 0)
(8.34029 0.0149868 0)
(8.34273 0.0167854 0)
(8.34531 0.0182954 0)
(8.34797 0.0195487 0)
(8.35069 0.0205781 0)
(8.35342 0.0214166 0)
(8.35616 0.0220968 0)
(8.35889 0.0226498 0)
(8.36159 0.0231053 0)
(8.36427 0.0234923 0)
(8.36692 0.0238389 0)
(8.36954 0.0241727 0)
(8.37214 0.0245215 0)
(8.37474 0.0249129 0)
(8.37733 0.025375 0)
(8.37994 0.0259365 0)
(8.38259 0.0266266 0)
(8.3853 0.027475 0)
(8.38812 0.028511 0)
(8.39107 0.0297634 0)
(8.39421 0.0312588 0)
(8.3976 0.0330203 0)
(8.4013 0.0350652 0)
(8.40539 0.0374028 0)
(8.40995 0.0400313 0)
(8.41507 0.0429346 0)
(8.42087 0.0460812 0)
(8.4274 0.0494117 0)
(8.33304 0.00144762 0)
(8.33348 0.00432177 0)
(8.33448 0.00706709 0)
(8.33595 0.00958093 0)
(8.33777 0.011822 0)
(8.33986 0.0137794 0)
(8.34217 0.0154562 0)
(8.34462 0.016871 0)
(8.34718 0.0180501 0)
(8.3498 0.0190218 0)
(8.35245 0.0198152 0)
(8.35512 0.0204594 0)
(8.35779 0.0209827 0)
(8.36045 0.0214123 0)
(8.36311 0.0217749 0)
(8.36575 0.0220961 0)
(8.36838 0.0224013 0)
(8.37101 0.0227155 0)
(8.37365 0.0230635 0)
(8.37631 0.0234699 0)
(8.37901 0.0239596 0)
(8.38177 0.0245568 0)
(8.38462 0.0252855 0)
(8.3876 0.0261685 0)
(8.39075 0.0272267 0)
(8.3941 0.0284777 0)
(8.39772 0.0299346 0)
(8.40167 0.0316042 0)
(8.40602 0.0334847 0)
(8.41083 0.0355636 0)
(8.41619 0.0378153 0)
(8.42219 0.0402007 0)
(8.42887 0.0426581 0)
(8.33304 0.00132941 0)
(8.33347 0.0039545 0)
(8.33441 0.00645394 0)
(8.33578 0.00874982 0)
(8.33749 0.0108049 0)
(8.33946 0.0126075 0)
(8.34165 0.0141587 0)
(8.34399 0.0154724 0)
(8.34644 0.0165701 0)
(8.34896 0.017476 0)
(8.35153 0.0182157 0)
(8.35413 0.0188149 0)
(8.35675 0.0192991 0)
(8.35937 0.0196929 0)
(8.362 0.0200203 0)
(8.36463 0.0203045 0)
(8.36727 0.0205683 0)
(8.36992 0.0208338 0)
(8.37259 0.0211226 0)
(8.37531 0.0214558 0)
(8.37809 0.0218541 0)
(8.38095 0.022337 0)
(8.38392 0.0229229 0)
(8.38703 0.0236282 0)
(8.39033 0.0244667 0)
(8.39385 0.0254481 0)
(8.39766 0.026577 0)
(8.40179 0.0278515 0)
(8.40632 0.0292611 0)
(8.4113 0.0307857 0)
(8.4168 0.0323931 0)
(8.42289 0.0340399 0)
(8.42961 0.0356652 0)
(8.33304 0.00121177 0)
(8.33345 0.00359679 0)
(8.33433 0.0058621 0)
(8.33562 0.00794707 0)
(8.33723 0.00981919 0)
(8.3391 0.0114664 0)
(8.34117 0.0128884 0)
(8.34341 0.0140956 0)
(8.34575 0.0151054 0)
(8.34819 0.0159383 0)
(8.35068 0.0166164 0)
(8.35321 0.0171623 0)
(8.35577 0.0175986 0)
(8.35836 0.0179471 0)
(8.36095 0.0182291 0)
(8.36357 0.0184653 0)
(8.3662 0.0186756 0)
(8.36887 0.0188791 0)
(8.37157 0.0190941 0)
(8.37434 0.0193382 0)
(8.37717 0.0196278 0)
(8.38011 0.0199778 0)
(8.38317 0.0204013 0)
(8.38639 0.0209091 0)
(8.3898 0.0215082 0)
(8.39345 0.0222019 0)
(8.39738 0.0229876 0)
(8.40163 0.0238566 0)
(8.40627 0.0247921 0)
(8.41133 0.0257684 0)
(8.41688 0.0267499 0)
(8.42297 0.027691 0)
(8.42963 0.028534 0)
(8.33304 0.00109599 0)
(8.33342 0.00324874 0)
(8.33426 0.00528957 0)
(8.33547 0.00716999 0)
(8.33699 0.00886202 0)
(8.33876 0.0103538 0)
(8.34073 0.0116438 0)
(8.34287 0.0127399 0)
(8.34512 0.0136559 0)
(8.34747 0.014409 0)
(8.34989 0.015018 0)
(8.35235 0.0155026 0)
(8.35486 0.0158824 0)
(8.3574 0.0161765 0)
(8.35996 0.0164035 0)
(8.36256 0.0165812 0)
(8.36519 0.0167266 0)
(8.36786 0.0168559 0)
(8.37058 0.0169841 0)
(8.37338 0.017125 0)
(8.37625 0.0172911 0)
(8.37924 0.0174929 0)
(8.38237 0.0177387 0)
(8.38566 0.0180338 0)
(8.38915 0.0183801 0)
(8.39287 0.0187748 0)
(8.39687 0.0192103 0)
(8.40118 0.0196722 0)
(8.40585 0.0201395 0)
(8.41093 0.0205833 0)
(8.41645 0.0209662 0)
(8.42245 0.0212429 0)
(8.42895 0.0213598 0)
(8.33303 0.000982665 0)
(8.3334 0.00291015 0)
(8.33419 0.0047345 0)
(8.33534 0.00641589 0)
(8.33677 0.00793039 0)
(8.33845 0.00926661 0)
(8.34033 0.0104223 0)
(8.34237 0.011403 0)
(8.34454 0.0122198 0)
(8.34681 0.0128868 0)
(8.34915 0.0134199 0)
(8.35155 0.0138357 0)
(8.35401 0.0141509 0)
(8.3565 0.0143821 0)
(8.35903 0.014545 0)
(8.3616 0.0146547 0)
(8.36421 0.0147252 0)
(8.36688 0.0147697 0)
(8.36961 0.0147997 0)
(8.37242 0.0148258 0)
(8.37532 0.0148565 0)
(8.37834 0.0148983 0)
(8.3815 0.0149551 0)
(8.38482 0.0150278 0)
(8.38835 0.0151135 0)
(8.3921 0.0152051 0)
(8.39612 0.0152905 0)
(8.40043 0.0153519 0)
(8.40508 0.0153654 0)
(8.41009 0.0153006 0)
(8.4155 0.0151199 0)
(8.42134 0.0147797 0)
(8.42761 0.0142318 0)
(8.33303 0.000872006 0)
(8.33338 0.00258055 0)
(8.33413 0.00419514 0)
(8.33521 0.00568234 0)
(8.33657 0.00702165 0)
(8.33817 0.00820242 0)
(8.33996 0.0092218 0)
(8.34192 0.0100836 0)
(8.344 0.0107964 0)
(8.34619 0.0113717 0)
(8.34847 0.0118225 0)
(8.35081 0.0121628 0)
(8.3532 0.0124064 0)
(8.35565 0.0125672 0)
(8.35814 0.012658 0)
(8.36068 0.0126913 0)
(8.36328 0.0126783 0)
(8.36593 0.0126288 0)
(8.36865 0.0125517 0)
(8.37145 0.0124538 0)
(8.37436 0.0123404 0)
(8.37738 0.0122141 0)
(8.38054 0.0120751 0)
(8.38387 0.0119206 0)
(8.38739 0.0117439 0)
(8.39113 0.0115344 0)
(8.39512 0.011277 0)
(8.39937 0.0109516 0)
(8.40393 0.0105329 0)
(8.40882 0.00999001 0)
(8.41406 0.00928686 0)
(8.41967 0.00838233 0)
(8.42565 0.00723381 0)
(8.33303 0.000764004 0)
(8.33336 0.00225934 0)
(8.33407 0.00366985 0)
(8.3351 0.00496695 0)
(8.33639 0.00613306 0)
(8.33791 0.00715831 0)
(8.33962 0.00803949 0)
(8.3415 0.00877903 0)
(8.34351 0.00938343 0)
(8.34563 0.00986175 0)
(8.34783 0.0102245 0)
(8.35011 0.0104829 0)
(8.35245 0.0106484 0)
(8.35485 0.0107318 0)
(8.3573 0.0107437 0)
(8.3598 0.0106936 0)
(8.36236 0.0105898 0)
(8.36499 0.0104395 0)
(8.36769 0.0102484 0)
(8.37047 0.0100203 0)
(8.37336 0.00975726 0)
(8.37636 0.00945879 0)
(8.3795 0.00912186 0)
(8.3828 0.00874043 0)
(8.38628 0.00830507 0)
(8.38996 0.00780267 0)
(8.39386 0.0072161 0)
(8.39802 0.00652401 0)
(8.40244 0.00570069 0)
(8.40714 0.00471625 0)
(8.41215 0.00353653 0)
(8.41747 0.0021238 0)
(8.4231 0.00044111 0)
(8.33303 0.000658525 0)
(8.33334 0.00194583 0)
(8.33402 0.00315719 0)
(8.33499 0.00426786 0)
(8.33622 0.00526273 0)
(8.33767 0.00613285 0)
(8.33932 0.00687473 0)
(8.34112 0.00748969 0)
(8.34306 0.00798244 0)
(8.34511 0.00835988 0)
(8.34725 0.00863014 0)
(8.34946 0.00880193 0)
(8.35175 0.00888407 0)
(8.35409 0.00888501 0)
(8.35649 0.00881254 0)
(8.35895 0.00867361 0)
(8.36147 0.00847393 0)
(8.36406 0.00821794 0)
(8.36672 0.00790853 0)
(8.36947 0.00754685 0)
(8.37231 0.00713205 0)
(8.37527 0.00666101 0)
(8.37836 0.00612805 0)
(8.3816 0.00552471 0)
(8.385 0.00483948 0)
(8.38858 0.00405755 0)
(8.39236 0.00316073 0)
(8.39636 0.00212732 0)
(8.40059 0.000932162 0)
(8.40507 -0.000453129 0)
(8.4098 -0.00206004 0)
(8.41479 -0.00392265 0)
(8.42003 -0.00607236 0)
(8.33303 0.000555369 0)
(8.33333 0.00163922 0)
(8.33397 0.00265538 0)
(8.3349 0.00358217 0)
(8.33607 0.00440662 0)
(8.33746 0.00512072 0)
(8.33904 0.00572098 0)
(8.34077 0.00620792 0)
(8.34264 0.0065848 0)
(8.34463 0.00685666 0)
(8.3467 0.00702944 0)
(8.34886 0.00710962 0)
(8.35108 0.00710367 0)
(8.35337 0.00701755 0)
(8.35572 0.00685651 0)
(8.35813 0.0066251 0)
(8.3606 0.00632644 0)
(8.36314 0.0059624 0)
(8.36575 0.0055334 0)
(8.36844 0.00503815 0)
(8.37122 0.0044734 0)
(8.37411 0.00383374 0)
(8.37712 0.00311144 0)
(8.38026 0.00229624 0)
(8.38355 0.00137519 0)
(8.387 0.000332584 0)
(8.39062 -0.00085015 0)
(8.39443 -0.00219434 0)
(8.39843 -0.00372399 0)
(8.40264 -0.00546543 0)
(8.40705 -0.00744714 0)
(8.41167 -0.00969939 0)
(8.41649 -0.0122484 0)
(8.33303 0.000454357 0)
(8.33331 0.00133915 0)
(8.33392 0.00216434 0)
(8.33481 0.00291095 0)
(8.33593 0.00356806 0)
(8.33726 0.00412835 0)
(8.33878 0.00458828 0)
(8.34045 0.00494765 0)
(8.34226 0.00520839 0)
(8.34418 0.00537386 0)
(8.34619 0.00544784 0)
(8.34829 0.00543446 0)
(8.35046 0.00533802 0)
(8.35269 0.00516229 0)
(8.35498 0.0049102 0)
(8.35733 0.00458441 0)
(8.35974 0.00418526 0)
(8.36222 0.00371257 0)
(8.36476 0.00316453 0)
(8.36738 0.00253775 0)
(8.37008 0.00182707 0)
(8.37288 0.00102531 0)
(8.37578 0.000123188 0)
(8.3788 -0.000890781 0)
(8.38195 -0.00203035 0)
(8.38523 -0.00331158 0)
(8.38865 -0.00475278 0)
(8.39223 -0.00637439 0)
(8.39597 -0.00819881 0)
(8.39987 -0.01025 0)
(8.40393 -0.0125533 0)
(8.40816 -0.0151352 0)
(8.41252 -0.018017 0)
(8.33303 0.000355169 0)
(8.3333 0.00104376 0)
(8.33388 0.00167874 0)
(8.33473 0.00224312 0)
(8.33581 0.00272855 0)
(8.33709 0.00312926 0)
(8.33855 0.00344229 0)
(8.34017 0.00366727 0)
(8.34191 0.00380525 0)
(8.34377 0.00385811 0)
(8.34573 0.00382801 0)
(8.34776 0.00371743 0)
(8.34987 0.00352852 0)
(8.35204 0.00326227 0)
(8.35427 0.00291869 0)
(8.35655 0.00250019 0)
(8.35889 0.00200344 0)
(8.36129 0.00142613 0)
(8.36376 0.000764891 0)
(8.36629 1.44958e-05 0)
(8.36889 -0.00083195 0)
(8.37158 -0.001783 0)
(8.37435 -0.002849 0)
(8.37722 -0.00404219 0)
(8.3802 -0.00537665 0)
(8.38328 -0.00686829 0)
(8.38648 -0.00853473 0)
(8.3898 -0.0103951 0)
(8.39325 -0.01247 0)
(8.39682 -0.0147808 0)
(8.4005 -0.0173496 0)
(8.4043 -0.0201994 0)
(8.4082 -0.0233469 0)
(8.33302 0.000258183 0)
(8.33328 0.000757056 0)
(8.33384 0.00121132 0)
(8.33465 0.00160577 0)
(8.33568 0.00193285 0)
(8.33692 0.00218596 0)
(8.33833 0.0023624 0)
(8.33989 0.0024617 0)
(8.34159 0.00248382 0)
(8.34339 0.00242997 0)
(8.34529 0.00229908 0)
(8.34727 0.00209105 0)
(8.34932 0.00180809 0)
(8.35142 0.00145006 0)
(8.35358 0.00101627 0)
(8.3558 0.000501538 0)
(8.35806 -9.42631e-05 0)
(8.36038 -0.000775368 0)
(8.36275 -0.00154724 0)
(8.36517 -0.00241658 0)
(8.36766 -0.0033915 0)
(8.37021 -0.0044815 0)
(8.37284 -0.00569762 0)
(8.37554 -0.00705239 0)
(8.37832 -0.0085598 0)
(8.38119 -0.0102352 0)
(8.38414 -0.0120953 0)
(8.38718 -0.0141576 0)
(8.39031 -0.0164407 0)
(8.39352 -0.0189635 0)
(8.39681 -0.021745 0)
(8.40017 -0.0248046 0)
(8.4036 -0.0281554 0)
(8.33302 0.00016112 0)
(8.33328 0.000463085 0)
(8.33381 0.000717599 0)
(8.3346 0.000912346 0)
(8.33559 0.00105187 0)
(8.33678 0.00113132 0)
(8.33815 0.00114834 0)
(8.33966 0.00110274 0)
(8.34131 0.000994497 0)
(8.34306 0.000822057 0)
(8.3449 0.000586271 0)
(8.34681 0.000285924 0)
(8.3488 -8.35392e-05 0)
(8.35084 -0.000524616 0)
(8.35292 -0.00103963 0)
(8.35506 -0.00163577 0)
(8.35724 -0.00231495 0)
(8.35946 -0.00308294 0)
(8.36172 -0.00394692 0)
(8.36403 -0.00491476 0)
(8.36639 -0.00599542 0)
(8.36879 -0.00719908 0)
(8.37125 -0.00853713 0)
(8.37376 -0.0100221 0)
(8.37633 -0.0116676 0)
(8.37896 -0.0134882 0)
(8.38164 -0.0154993 0)
(8.38438 -0.0177167 0)
(8.38718 -0.020157 0)
(8.39002 -0.0228364 0)
(8.3929 -0.0257713 0)
(8.39582 -0.0289776 0)
(8.39876 -0.0324652 0)
(8.33302 7.32422e-05 0)
(8.33325 0.000214819 0)
(8.33374 0.000328902 0)
(8.33449 0.000398455 0)
(8.33545 0.000406757 0)
(8.33661 0.000356672 0)
(8.33794 0.000249536 0)
(8.33942 8.45218e-05 0)
(8.34102 -0.000138567 0)
(8.34273 -0.000421346 0)
(8.34453 -0.000763134 0)
(8.3464 -0.00116548 0)
(8.34832 -0.00163367 0)
(8.3503 -0.00217133 0)
(8.35231 -0.00278299 0)
(8.35437 -0.00347125 0)
(8.35646 -0.00424398 0)
(8.35858 -0.00510775 0)
(8.36073 -0.00606998 0)
(8.36291 -0.00713918 0)
(8.36512 -0.00832487 0)
(8.36736 -0.00963757 0)
(8.36964 -0.0110887 0)
(8.37195 -0.0126904 0)
(8.37429 -0.0144558 0)
(8.37666 -0.0163984 0)
(8.37906 -0.0185324 0)
(8.38148 -0.020872 0)
(8.38393 -0.0234315 0)
(8.38639 -0.0262251 0)
(8.38887 -0.0292663 0)
(8.39134 -0.0325685 0)
(8.39379 -0.0361387 0)
(8.33303 -3.46109e-05 0)
(8.33328 -0.000133389 0)
(8.33378 -0.000283456 0)
(8.3345 -0.000482956 0)
(8.33542 -0.000728093 0)
(8.33653 -0.00100349 0)
(8.33782 -0.0013028 0)
(8.33925 -0.0016269 0)
(8.3408 -0.00197966 0)
(8.34246 -0.00236572 0)
(8.34419 -0.00279316 0)
(8.346 -0.00326937 0)
(8.34786 -0.00379939 0)
(8.34976 -0.00439012 0)
(8.3517 -0.00504903 0)
(8.35366 -0.00578321 0)
(8.35566 -0.006601 0)
(8.35767 -0.00751059 0)
(8.3597 -0.00852066 0)
(8.36174 -0.00964056 0)
(8.3638 -0.0108803 0)
(8.36587 -0.0122503 0)
(8.36796 -0.0137619 0)
(8.37005 -0.0154267 0)
(8.37215 -0.0172568 0)
(8.37426 -0.0192647 0)
(8.37637 -0.0214629 0)
(8.37848 -0.0238639 0)
(8.38057 -0.02648 0)
(8.38266 -0.0293231 0)
(8.38471 -0.0324042 0)
(8.38674 -0.0357341 0)
(8.38872 -0.0393172 0)
(8.333 -7.94387e-05 0)
(8.33316 -0.000210538 0)
(8.33358 -0.00036074 0)
(8.33425 -0.000566952 0)
(8.33516 -0.000833006 0)
(8.33627 -0.00116131 0)
(8.33757 -0.00154668 0)
(8.339 -0.00198162 0)
(8.34056 -0.0024612 0)
(8.3422 -0.00298355 0)
(8.34392 -0.0035493 0)
(8.34569 -0.00416089 0)
(8.34751 -0.00482248 0)
(8.34935 -0.00553993 0)
(8.35122 -0.00631987 0)
(8.3531 -0.0071694 0)
(8.355 -0.00809661 0)
(8.35689 -0.00911012 0)
(8.35879 -0.0102191 0)
(8.36069 -0.0114332 0)
(8.36259 -0.0127626 0)
(8.36448 -0.014218 0)
(8.36636 -0.0158104 0)
(8.36823 -0.017551 0)
(8.37008 -0.0194513 0)
(8.37192 -0.0215228 0)
(8.37373 -0.023777 0)
(8.37551 -0.0262248 0)
(8.37725 -0.028877 0)
(8.37895 -0.0317437 0)
(8.3806 -0.0348341 0)
(8.38219 -0.0381568 0)
(8.3837 -0.0417147 0)
(8.33306 -0.000286603 0)
(8.33336 -0.000937096 0)
(8.33384 -0.00167155 0)
(8.33449 -0.00242295 0)
(8.33532 -0.00313766 0)
(8.33635 -0.00379887 0)
(8.33754 -0.00440979 0)
(8.33889 -0.00498279 0)
(8.34036 -0.0055339 0)
(8.34192 -0.0060794 0)
(8.34357 -0.00663507 0)
(8.34527 -0.00721541 0)
(8.34702 -0.00783325 0)
(8.34879 -0.00850031 0)
(8.35057 -0.00922742 0)
(8.35237 -0.0100248 0)
(8.35416 -0.0109023 0)
(8.35595 -0.0118695 0)
(8.35773 -0.0129361 0)
(8.35949 -0.0141116 0)
(8.36123 -0.0154059 0)
(8.36294 -0.0168288 0)
(8.36462 -0.0183902 0)
(8.36627 -0.0201003 0)
(8.36789 -0.0219691 0)
(8.36946 -0.0240063 0)
(8.37098 -0.0262217 0)
(8.37244 -0.0286245 0)
(8.37384 -0.0312233 0)
(8.37517 -0.0340261 0)
(8.37643 -0.03704 0)
(8.37759 -0.0402715 0)
(8.37867 -0.0437216 0)
(8.33294 -4.10466e-05 0)
(8.33287 -4.61757e-05 0)
(8.33311 -0.00013257 0)
(8.33374 -0.000423586 0)
(8.33467 -0.00092306 0)
(8.33585 -0.00157476 0)
(8.33719 -0.00232083 0)
(8.33867 -0.00312132 0)
(8.34024 -0.00395267 0)
(8.34187 -0.00480263 0)
(8.34355 -0.00566696 0)
(8.34525 -0.00654697 0)
(8.34697 -0.00744769 0)
(8.34869 -0.00837656 0)
(8.35041 -0.0093425 0)
(8.35212 -0.0103553 0)
(8.3538 -0.0114252 0)
(8.35546 -0.0125628 0)
(8.35709 -0.0137789 0)
(8.35869 -0.0150841 0)
(8.36025 -0.0164893 0)
(8.36176 -0.0180052 0)
(8.36323 -0.0196422 0)
(8.36464 -0.0214109 0)
(8.366 -0.0233212 0)
(8.36728 -0.0253828 0)
(8.3685 -0.027605 0)
(8.36964 -0.0299963 0)
(8.37069 -0.0325647 0)
(8.37165 -0.0353171 0)
(8.37252 -0.0382599 0)
(8.37327 -0.0413984 0)
(8.37391 -0.0447331 0)
(8.33317 -0.000751257 0)
(8.33368 -0.00260566 0)
(8.33409 -0.00453587 0)
(8.33451 -0.00618753 0)
(8.3351 -0.00749173 0)
(8.33593 -0.00850707 0)
(8.337 -0.00931035 0)
(8.33825 -0.00996795 0)
(8.33966 -0.0105339 0)
(8.34117 -0.0110509 0)
(8.34276 -0.0115527 0)
(8.34439 -0.0120652 0)
(8.34606 -0.0126086 0)
(8.34773 -0.013199 0)
(8.34939 -0.0138494 0)
(8.35104 -0.014571 0)
(8.35266 -0.0153733 0)
(8.35424 -0.0162655 0)
(8.35577 -0.0172559 0)
(8.35726 -0.0183526 0)
(8.35868 -0.0195636 0)
(8.36005 -0.0208967 0)
(8.36134 -0.0223595 0)
(8.36256 -0.0239596 0)
(8.3637 -0.0257043 0)
(8.36475 -0.0276007 0)
(8.36571 -0.0296553 0)
(8.36657 -0.0318744 0)
(8.36732 -0.0342634 0)
(8.36795 -0.0368272 0)
(8.36846 -0.0395697 0)
(8.36885 -0.0424946 0)
(8.3691 -0.0456006 0)
(8.33263 0.000587011 0)
(8.33174 0.00202572 0)
(8.33177 0.00292527 0)
(8.33264 0.0028544 0)
(8.33394 0.00201014 0)
(8.33543 0.000755822 0)
(8.33702 -0.000673909 0)
(8.33866 -0.00215727 0)
(8.34032 -0.00363013 0)
(8.34198 -0.00505968 0)
(8.34364 -0.00643407 0)
(8.34528 -0.00775481 0)
(8.34689 -0.00903082 0)
(8.34847 -0.0102748 0)
(8.35002 -0.0115014 0)
(8.35152 -0.0127257 0)
(8.35298 -0.0139627 0)
(8.35438 -0.0152271 0)
(8.35572 -0.0165327 0)
(8.357 -0.0178927 0)
(8.35821 -0.0193197 0)
(8.35935 -0.0208252 0)
(8.3604 -0.0224204 0)
(8.36136 -0.0241156 0)
(8.36223 -0.0259201 0)
(8.36299 -0.0278429 0)
(8.36365 -0.029892 0)
(8.36419 -0.0320744 0)
(8.36461 -0.0343965 0)
(8.3649 -0.0368637 0)
(8.36506 -0.0394805 0)
(8.36507 -0.0422506 0)
(8.36494 -0.0451736 0)
(8.33358 -0.00193894 0)
(8.33468 -0.0068469 0)
(8.33445 -0.0116095 0)
(8.33376 -0.0147894 0)
(8.33354 -0.0165714 0)
(8.33397 -0.0175502 0)
(8.33487 -0.0180563 0)
(8.33609 -0.0182855 0)
(8.33752 -0.0183746 0)
(8.33909 -0.0184138 0)
(8.34075 -0.0184603 0)
(8.34243 -0.0185503 0)
(8.34413 -0.0187066 0)
(8.3458 -0.0189434 0)
(8.34744 -0.0192699 0)
(8.34902 -0.0196921 0)
(8.35055 -0.0202147 0)
(8.352 -0.0208413 0)
(8.35337 -0.0215751 0)
(8.35466 -0.0224196 0)
(8.35585 -0.0233782 0)
(8.35695 -0.0244542 0)
(8.35794 -0.0256515 0)
(8.35882 -0.0269737 0)
(8.35958 -0.0284244 0)
(8.36022 -0.0300071 0)
(8.36073 -0.0317254 0)
(8.36111 -0.033582 0)
(8.36134 -0.0355798 0)
(8.36142 -0.0377208 0)
(8.36135 -0.0400065 0)
(8.36112 -0.0424384 0)
(8.36073 -0.0450138 0)
(8.33162 0.00370445 0)
(8.32827 0.0102717 0)
(8.32844 0.0134404 0)
(8.33102 0.0133912 0)
(8.33365 0.0113359 0)
(8.33587 0.00848271 0)
(8.33784 0.00545936 0)
(8.33966 0.00250773 0)
(8.34135 -0.000262414 0)
(8.34293 -0.00280567 0)
(8.34445 -0.0051194 0)
(8.34591 -0.00722261 0)
(8.34733 -0.00914294 0)
(8.3487 -0.0109108 0)
(8.35002 -0.0125565 0)
(8.3513 -0.0141086 0)
(8.35253 -0.0155929 0)
(8.35371 -0.0170332 0)
(8.35481 -0.0184503 0)
(8.35585 -0.0198629 0)
(8.35681 -0.0212878 0)
(8.35768 -0.0227398 0)
(8.35845 -0.024232 0)
(8.35912 -0.0257764 0)
(8.35967 -0.0273834 0)
(8.36011 -0.0290623 0)
(8.36041 -0.0308211 0)
(8.36058 -0.0326671 0)
(8.36061 -0.0346064 0)
(8.36049 -0.0366441 0)
(8.36021 -0.0387844 0)
(8.35977 -0.0410309 0)
(8.35916 -0.0433836 0)
(8.3343 -0.00641976 0)
(8.33463 -0.0206474 0)
(8.33075 -0.0298623 0)
(8.32676 -0.0338448 0)
(8.32485 -0.0347446 0)
(8.32495 -0.034213 0)
(8.32614 -0.0330628 0)
(8.32788 -0.0316926 0)
(8.32995 -0.0303266 0)
(8.33221 -0.0290836 0)
(8.33456 -0.0280176 0)
(8.33692 -0.0271478 0)
(8.33927 -0.0264757 0)
(8.34157 -0.0259941 0)
(8.3438 -0.025692 0)
(8.34595 -0.0255572 0)
(8.34801 -0.0255784 0)
(8.34996 -0.0257455 0)
(8.3518 -0.0260499 0)
(8.35352 -0.0264846 0)
(8.35512 -0.0270441 0)
(8.35658 -0.0277243 0)
(8.35791 -0.0285221 0)
(8.35909 -0.0294354 0)
(8.36012 -0.0304627 0)
(8.36099 -0.031603 0)
(8.3617 -0.0328557 0)
(8.36225 -0.0342205 0)
(8.36262 -0.0356969 0)
(8.36281 -0.0372846 0)
(8.36283 -0.038983 0)
(8.36265 -0.0407917 0)
(8.36229 -0.0427071 0)
(8.32884 0.0226036 0)
(8.32236 0.0427931 0)
(8.32669 0.0440335 0)
(8.33333 0.0380831 0)
(8.33786 0.0307393 0)
(8.34071 0.023591 0)
(8.34302 0.0169478 0)
(8.34521 0.0109836 0)
(8.3474 0.0057524 0)
(8.34965 0.00120465 0)
(8.352 -0.00274173 0)
(8.35443 -0.00617063 0)
(8.35692 -0.0091619 0)
(8.35945 -0.0117884 0)
(8.36199 -0.0141141 0)
(8.36452 -0.0161941 0)
(8.36702 -0.0180755 0)
(8.36946 -0.0197985 0)
(8.37183 -0.0213973 0)
(8.3741 -0.0229013 0)
(8.37628 -0.0243353 0)
(8.37834 -0.0257209 0)
(8.38027 -0.0270766 0)
(8.38206 -0.0284183 0)
(8.38371 -0.02976 0)
(8.3852 -0.0311135 0)
(8.38653 -0.0324895 0)
(8.3877 -0.0338968 0)
(8.3887 -0.0353433 0)
(8.38952 -0.0368358 0)
(8.39016 -0.0383801 0)
(8.39063 -0.0399814 0)
(8.39091 -0.0416422 0)
(8.32436 -0.0380228 0)
(8.29387 -0.0683007 0)
(8.27218 -0.0716677 0)
(8.26672 -0.0685666 0)
(8.27363 -0.0642247 0)
(8.28628 -0.0594176 0)
(8.30107 -0.0547673 0)
(8.31643 -0.0506345 0)
(8.33152 -0.0470813 0)
(8.34588 -0.0440838 0)
(8.3593 -0.0415989 0)
(8.37174 -0.0395696 0)
(8.38319 -0.0379361 0)
(8.3937 -0.0366437 0)
(8.40333 -0.035645 0)
(8.41214 -0.0348994 0)
(8.4202 -0.0343732 0)
(8.42757 -0.0340386 0)
(8.4343 -0.0338731 0)
(8.44045 -0.0338585 0)
(8.44606 -0.0339801 0)
(8.45118 -0.0342264 0)
(8.45584 -0.034588 0)
(8.46007 -0.0350577 0)
(8.46391 -0.0356299 0)
(8.46737 -0.0362998 0)
(8.47049 -0.0370641 0)
(8.47328 -0.0379197 0)
(8.47576 -0.0388644 0)
(8.47794 -0.039896 0)
(8.47984 -0.0410132 0)
(8.48147 -0.0422139 0)
(8.48284 -0.0434956 0)
(8.34002 0.15699 0)
(8.38199 0.149 0)
(8.4025 0.103379 0)
(8.39943 0.0644894 0)
(8.38345 0.0358222 0)
(8.36071 0.0154209 0)
(8.33407 0.000946943 0)
(8.30549 -0.00945176 0)
(8.27612 -0.0170249 0)
(8.2466 -0.0226062 0)
(8.21725 -0.0267668 0)