/*--------------------------------*- C++ -*----------------------------------*\
| =========                 |                                                 |
| \\      /  F ield         | OpenFOAM: The Open Source CFD Toolbox           |
|  \\    /   O peration     | Version:  2.1.1                                 |
|   \\  /    A nd           | Web:      www.OpenFOAM.org                      |
|    \\/     M anipulation  |                                                 |
\*---------------------------------------------------------------------------*/
FoamFile
{
    version     2.0;
    format      ascii;
    class       volScalarField;
    location    "0.17";
    object      k;
}
// * * * * * * * * * * * * * * * * * * * * * * * * * * * * * * * * * * * * * //

dimensions      [0 2 -2 0 0 0 0];

internalField   nonuniform List<scalar> 
6820
(
0.288909
0.351398
0.415005
0.477466
0.53686
0.591556
0.640369
0.682624
0.718116
0.747018
0.769774
0.787002
0.7994
0.807688
0.812557
0.814642
0.814503
0.812629
0.809431
0.805251
0.800368
0.79501
0.789355
0.783545
0.77769
0.771874
0.766155
0.76059
0.755144
0.75014
0.74409
0.744146
0.715774
0.265532
0.269396
0.270523
0.271341
0.272559
0.274215
0.276227
0.278479
0.28086
0.283286
0.285701
0.288073
0.290393
0.292668
0.294909
0.297137
0.299372
0.301631
0.303931
0.306284
0.308701
0.311186
0.313745
0.316377
0.319083
0.321864
0.32472
0.32766
0.330697
0.333889
0.33725
0.341284
0.345438
0.262038
0.264253
0.263596
0.261557
0.259
0.256318
0.253627
0.250938
0.24824
0.245524
0.242794
0.240061
0.237345
0.234668
0.232052
0.229518
0.227085
0.224769
0.222582
0.220532
0.218628
0.216872
0.215266
0.21381
0.212501
0.211338
0.210317
0.209435
0.208686
0.208076
0.207591
0.207259
0.207023
0.259885
0.260272
0.259797
0.258535
0.256829
0.254891
0.252833
0.250709
0.248547
0.246358
0.244152
0.241935
0.239713
0.237495
0.235286
0.233096
0.230932
0.2288
0.226707
0.224658
0.22266
0.220715
0.218828
0.217001
0.215236
0.213534
0.211896
0.210322
0.20881
0.207362
0.205973
0.204645
0.203369
0.259299
0.258404
0.2576
0.256567
0.255295
0.25385
0.252292
0.250662
0.248984
0.247277
0.245551
0.243815
0.242075
0.240335
0.238601
0.236877
0.235166
0.233473
0.231799
0.230149
0.228524
0.226928
0.225361
0.223826
0.222325
0.220858
0.219426
0.218029
0.216669
0.215344
0.214056
0.212804
0.211589
0.259224
0.257848
0.256623
0.255437
0.254227
0.25297
0.251663
0.250313
0.248929
0.247523
0.246101
0.24467
0.243237
0.241805
0.240378
0.238958
0.237549
0.236153
0.234772
0.233407
0.232061
0.230735
0.229429
0.228145
0.226885
0.225648
0.224435
0.223246
0.222083
0.220946
0.219834
0.218749
0.217691
0.259217
0.257715
0.256309
0.25498
0.253698
0.252442
0.251196
0.249951
0.248704
0.247455
0.246205
0.244956
0.24371
0.242469
0.241237
0.240013
0.238801
0.237601
0.236414
0.235243
0.234087
0.232948
0.231826
0.230722
0.229637
0.22857
0.227523
0.226496
0.225488
0.224501
0.223535
0.22259
0.221667
0.259218
0.25769
0.256225
0.254822
0.253477
0.252181
0.250924
0.249696
0.248492
0.247306
0.246137
0.244981
0.243839
0.242711
0.241595
0.240493
0.239406
0.238332
0.237274
0.236231
0.235203
0.234192
0.233197
0.232218
0.231257
0.230312
0.229385
0.228475
0.227583
0.226708
0.225851
0.225013
0.224193
0.259218
0.257686
0.256207
0.25478
0.253405
0.25208
0.250799
0.24956
0.248357
0.247185
0.246042
0.244925
0.24383
0.242758
0.241705
0.240672
0.239657
0.23866
0.237681
0.23672
0.235776
0.234848
0.233938
0.233045
0.232168
0.231309
0.230465
0.229639
0.228829
0.228035
0.227258
0.226498
0.225754
0.259218
0.257686
0.256203
0.254769
0.253384
0.252045
0.250751
0.2495
0.248288
0.247114
0.245974
0.244867
0.243788
0.242738
0.241713
0.240713
0.239735
0.23878
0.237846
0.236931
0.236037
0.235162
0.234305
0.233466
0.232645
0.231841
0.231054
0.230284
0.22953
0.228793
0.228072
0.227366
0.226677
0.259218
0.257686
0.256202
0.254767
0.253378
0.252035
0.250735
0.249477
0.24826
0.24708
0.245938
0.244829
0.243754
0.242709
0.241693
0.240705
0.239744
0.238807
0.237894
0.237005
0.236137
0.235289
0.234463
0.233656
0.232867
0.232098
0.231346
0.230611
0.229894
0.229193
0.228509
0.227841
0.227188
0.259218
0.257685
0.256201
0.254766
0.253376
0.252031
0.250729
0.249469
0.248248
0.247066
0.24592
0.24481
0.243733
0.242688
0.241674
0.24069
0.239733
0.238803
0.237899
0.237019
0.236163
0.23533
0.234518
0.233727
0.232956
0.232205
0.231473
0.230759
0.230063
0.229384
0.228722
0.228076
0.227447
0.259218
0.257685
0.256201
0.254765
0.253375
0.25203
0.250727
0.249465
0.248243
0.24706
0.245912
0.2448
0.243722
0.242676
0.241662
0.240677
0.239721
0.238793
0.237891
0.237015
0.236163
0.235335
0.234529
0.233746
0.232983
0.232241
0.231518
0.230815
0.23013
0.229463
0.228812
0.228179
0.227562
0.259218
0.257685
0.256201
0.254764
0.253374
0.252028
0.250725
0.249463
0.248241
0.247056
0.245908
0.244795
0.243716
0.242669
0.241654
0.240669
0.239712
0.238784
0.237883
0.237007
0.236156
0.23533
0.234526
0.233745
0.232986
0.232247
0.231528
0.230829
0.230149
0.229487
0.228843
0.228215
0.227605
0.259218
0.257685
0.2562
0.254764
0.253374
0.252028
0.250724
0.249462
0.248239
0.247054
0.245905
0.244792
0.243712
0.242665
0.241649
0.240663
0.239706
0.238778
0.237876
0.237
0.236149
0.235323
0.23452
0.233739
0.23298
0.232243
0.231525
0.230828
0.230149
0.229489
0.228847
0.228222
0.227614
0.259218
0.257685
0.2562
0.254764
0.253373
0.252027
0.250723
0.249461
0.248237
0.247052
0.245903
0.244789
0.243709
0.242662
0.241645
0.240659
0.239702
0.238772
0.23787
0.236994
0.236143
0.235316
0.234513
0.233732
0.232973
0.232236
0.231519
0.230821
0.230143
0.229484
0.228842
0.228218
0.22761
0.259218
0.257685
0.2562
0.254763
0.253373
0.252026
0.250722
0.24946
0.248236
0.24705
0.245901
0.244787
0.243707
0.242659
0.241642
0.240655
0.239698
0.238768
0.237866
0.236989
0.236138
0.235311
0.234507
0.233726
0.232967
0.232229
0.231512
0.230814
0.230136
0.229476
0.228834
0.22821
0.227602
0.259218
0.257685
0.2562
0.254763
0.253372
0.252026
0.250722
0.249459
0.248235
0.247049
0.2459
0.244785
0.243704
0.242656
0.241639
0.240652
0.239694
0.238764
0.237862
0.236985
0.236133
0.235305
0.234501
0.23372
0.232961
0.232222
0.231505
0.230807
0.230128
0.229468
0.228826
0.228201
0.227593
0.259218
0.257684
0.2562
0.254763
0.253372
0.252025
0.250721
0.249458
0.248234
0.247048
0.245898
0.244783
0.243702
0.242654
0.241637
0.240649
0.239691
0.238761
0.237858
0.236981
0.236129
0.235301
0.234496
0.233715
0.232955
0.232217
0.231498
0.2308
0.230121
0.229461
0.228818
0.228193
0.227585
0.259218
0.257684
0.2562
0.254763
0.253371
0.252025
0.25072
0.249457
0.248233
0.247047
0.245897
0.244782
0.243701
0.242652
0.241634
0.240647
0.239688
0.238758
0.237854
0.236977
0.236125
0.235296
0.234492
0.23371
0.23295
0.232211
0.231492
0.230794
0.230114
0.229454
0.228811
0.228185
0.227576
0.259218
0.257684
0.256199
0.254762
0.253371
0.252024
0.25072
0.249456
0.248232
0.247046
0.245895
0.24478
0.243699
0.24265
0.241632
0.240644
0.239686
0.238755
0.237851
0.236973
0.236121
0.235292
0.234488
0.233705
0.232945
0.232206
0.231487
0.230788
0.230108
0.229447
0.228804
0.228178
0.227569
0.259218
0.257684
0.256199
0.254762
0.253371
0.252024
0.250719
0.249456
0.248231
0.247045
0.245894
0.244779
0.243697
0.242648
0.24163
0.240642
0.239683
0.238752
0.237848
0.23697
0.236117
0.235289
0.234484
0.233701
0.23294
0.232201
0.231482
0.230782
0.230102
0.229441
0.228797
0.228171
0.227561
0.259218
0.257684
0.256199
0.254762
0.253371
0.252024
0.250719
0.249455
0.248231
0.247044
0.245893
0.244778
0.243696
0.242647
0.241628
0.24064
0.239681
0.23875
0.237846
0.236967
0.236114
0.235285
0.23448
0.233697
0.232936
0.232196
0.231477
0.230777
0.230097
0.229435
0.228791
0.228164
0.227554
0.259218
0.257684
0.256199
0.254762
0.253371
0.252023
0.250719
0.249455
0.24823
0.247043
0.245893
0.244777
0.243695
0.242645
0.241627
0.240639
0.239679
0.238748
0.237843
0.236965
0.236111
0.235282
0.234477
0.233693
0.232932
0.232192
0.231472
0.230772
0.230092
0.229429
0.228785
0.228158
0.227548
0.259218
0.257684
0.256199
0.254762
0.25337
0.252023
0.250718
0.249454
0.24823
0.247043
0.245892
0.244776
0.243694
0.242644
0.241626
0.240637
0.239677
0.238746
0.237841
0.236962
0.236109
0.235279
0.234473
0.23369
0.232928
0.232188
0.231468
0.230768
0.230087
0.229424
0.228779
0.228152
0.227541
0.259218
0.257684
0.256199
0.254762
0.25337
0.252023
0.250718
0.249454
0.248229
0.247042
0.245891
0.244775
0.243693
0.242643
0.241624
0.240636
0.239676
0.238744
0.237839
0.23696
0.236106
0.235277
0.234471
0.233687
0.232925
0.232185
0.231464
0.230764
0.230082
0.229419
0.228774
0.228147
0.227536
0.259218
0.257684
0.256199
0.254762
0.25337
0.252023
0.250718
0.249454
0.248229
0.247042
0.245891
0.244775
0.243692
0.242642
0.241623
0.240634
0.239675
0.238743
0.237837
0.236958
0.236104
0.235274
0.234468
0.233684
0.232922
0.232181
0.231461
0.23076
0.230078
0.229415
0.22877
0.228142
0.227531
0.259218
0.257684
0.256199
0.254762
0.25337
0.252023
0.250718
0.249454
0.248229
0.247041
0.24589
0.244774
0.243692
0.242642
0.241623
0.240634
0.239674
0.238741
0.237836
0.236957
0.236103
0.235273
0.234466
0.233682
0.23292
0.232179
0.231458
0.230757
0.230075
0.229411
0.228766
0.228138
0.227526
0.259218
0.257684
0.256199
0.254762
0.25337
0.252023
0.250718
0.249453
0.248228
0.247041
0.24589
0.244774
0.243691
0.242641
0.241622
0.240633
0.239672
0.23874
0.237835
0.236955
0.236101
0.235271
0.234464
0.23368
0.232917
0.232176
0.231455
0.230754
0.230072
0.229408
0.228762
0.228134
0.227522
0.259218
0.257684
0.256199
0.254762
0.25337
0.252023
0.250718
0.249454
0.248229
0.247042
0.24589
0.244774
0.243692
0.242641
0.241622
0.240633
0.239673
0.23874
0.237835
0.236955
0.236101
0.23527
0.234463
0.233679
0.232916
0.232175
0.231454
0.230752
0.23007
0.229406
0.22876
0.228131
0.227519
0.259218
0.257684
0.256199
0.254762
0.25337
0.252023
0.250718
0.249453
0.248228
0.247041
0.24589
0.244774
0.243691
0.242641
0.241622
0.240632
0.239672
0.23874
0.237834
0.236955
0.2361
0.23527
0.234463
0.233678
0.232916
0.232174
0.231453
0.230751
0.230069
0.229405
0.228758
0.22813
0.227517
0.259218
0.257684
0.256199
0.254762
0.253371
0.252024
0.25072
0.249456
0.248231
0.247044
0.245894
0.244778
0.243695
0.242645
0.241626
0.240636
0.239676
0.238743
0.237838
0.236958
0.236103
0.235273
0.234466
0.233681
0.232918
0.232176
0.231455
0.230753
0.23007
0.229406
0.228759
0.22813
0.227517
0.259218
0.257685
0.2562
0.254764
0.253373
0.252026
0.250721
0.249457
0.248232
0.247046
0.245895
0.244779
0.243697
0.242647
0.241628
0.240639
0.239679
0.238747
0.237841
0.236961
0.236107
0.235276
0.234469
0.233684
0.232921
0.232178
0.231456
0.230754
0.230071
0.229405
0.228758
0.228128
0.227514
0.259218
0.257685
0.256201
0.254766
0.253378
0.252033
0.250731
0.249469
0.248246
0.24706
0.24591
0.244795
0.243713
0.242663
0.241644
0.240654
0.239693
0.23876
0.237854
0.236973
0.236117
0.235285
0.234476
0.233689
0.232923
0.232179
0.231454
0.230749
0.230063
0.229394
0.228744
0.22811
0.227493
0.259219
0.257689
0.25621
0.254777
0.25339
0.252045
0.250743
0.249482
0.248259
0.247074
0.245924
0.244809
0.243726
0.242676
0.241655
0.240664
0.239701
0.238765
0.237855
0.23697
0.236109
0.235271
0.234456
0.233662
0.23289
0.232137
0.231405
0.230691
0.229995
0.229318
0.228657
0.228013
0.227385
0.25922
0.257694
0.256221
0.254799
0.253423
0.252089
0.250795
0.249539
0.248318
0.247132
0.245978
0.244857
0.243767
0.242706
0.241674
0.240669
0.239691
0.238739
0.237811
0.236907
0.236026
0.235168
0.234331
0.233515
0.232719
0.231943
0.231187
0.230448
0.229728
0.229025
0.228339
0.22767
0.227016
0.259229
0.257738
0.256292
0.254882
0.253508
0.252172
0.250871
0.249603
0.248368
0.247162
0.245985
0.244837
0.243716
0.242621
0.241553
0.240509
0.23949
0.238495
0.237524
0.236575
0.235649
0.234744
0.233861
0.232998
0.232155
0.231332
0.230528
0.229742
0.228975
0.228225
0.227492
0.226776
0.226077
0.259265
0.257822
0.256453
0.255125
0.253805
0.252483
0.251164
0.249855
0.248562
0.247291
0.246046
0.244829
0.24364
0.242481
0.241351
0.240249
0.239175
0.238128
0.237106
0.23611
0.235138
0.23419
0.233264
0.23236
0.231477
0.230615
0.229773
0.22895
0.228147
0.227362
0.226595
0.225846
0.225114
0.259599
0.258632
0.257578
0.256541
0.255587
0.254713
0.253905
0.25315
0.252443
0.25178
0.251162
0.250586
0.250052
0.24956
0.249108
0.248694
0.248318
0.247977
0.24767
0.247395
0.24715
0.246933
0.246743
0.246577
0.246436
0.246316
0.246217
0.246137
0.246075
0.24603
0.246001
0.245987
0.245986
0.266719
0.280569
0.294241
0.307622
0.320668
0.333362
0.345693
0.357649
0.369224
0.380413
0.391212
0.40162
0.41164
0.421273
0.430524
0.4394
0.447908
0.456054
0.46385
0.471303
0.478424
0.485223
0.491711
0.497898
0.503796
0.509416
0.514767
0.519861
0.524709
0.52932
0.533704
0.537872
0.541836
0.843966
1.01373
1.18362
1.35483
1.52565
1.68768
1.83036
1.94588
2.03122
2.0884
2.12278
2.14106
2.14947
2.15265
2.15351
2.15346
2.15299
2.15217
2.15099
2.14957
2.14816
2.14704
2.14649
2.14669
2.1477
2.14944
2.15175
2.15437
2.15699
2.15929
2.1609
2.16146
2.16058
2.15787
2.15294
2.14541
2.13487
2.12095
2.10328
2.08154
2.0554
2.02461
1.98895
1.94827
1.9025
1.85164
1.7958
1.73518
1.6701
1.60098
1.52837
1.45291
1.37536
1.29654
1.21737
1.13879
1.06173
0.987132
0.915851
0.848648
0.786152
0.728836
0.677003
0.630782
0.590144
0.554926
0.52486
0.499611
0.478814
0.462101
0.449129
0.439594
0.43324
0.429863
0.429309
0.431463
0.436238
0.443561
0.453354
0.465509
0.479867
0.496198
0.514178
0.533383
0.553287
0.573265
0.592617
0.610595
0.626428
0.639359
0.648675
0.653735
0.653998
0.649031
0.638566
0.62243
0.600837
0.573274
0.544564
0.489912
0.354303
0.367966
0.388259
0.418193
0.460543
0.517733
0.591355
0.681317
0.785505
0.899855
1.01888
1.13652
1.24712
1.34624
1.43121
1.50123
1.55709
1.60066
1.63429
1.66037
1.68093
1.69756
1.71133
1.72293
1.73273
1.74094
1.74764
1.75286
1.75656
1.75868
1.75913
1.75774
1.75433
1.74866
1.7405
1.72955
1.71556
1.69825
1.67736
1.65268
1.62402
1.59122
1.5542
1.51294
1.46749
1.41799
1.36468
1.30787
1.24801
1.18562
1.12134
1.05586
0.989971
0.924483
0.860234
0.798039
0.738661
0.682773
0.630928
0.58353
0.540825
0.502895
0.469673
0.440967
0.416489
0.395896
0.378821
0.3649
0.353802
0.345233
0.338955
0.334781
0.332578
0.332265
0.333804
0.337197
0.342476
0.349689
0.358886
0.370098
0.383317
0.398466
0.415375
0.433763
0.45322
0.473213
0.493095
0.512131
0.529536
0.54451
0.556285
0.564156
0.56752
0.565898
0.558977
0.546583
0.528897
0.505519
0.480852
0.433047
0.206673
0.206459
0.206876
0.208329
0.211231
0.216133
0.22356
0.234389
0.24975
0.270846
0.298839
0.33468
0.378903
0.431447
0.491541
0.557717
0.62793
0.699789
0.770843
0.838871
0.902101
0.959346
1.01001
1.05403
1.0917
1.12356
1.15021
1.17224
1.19015
1.20431
1.215
1.22235
1.22644
1.22726
1.22479
1.21896
1.20969
1.1969
1.18053
1.16054
1.13692
1.1097
1.07896
1.04484
1.00755
0.96738
0.92468
0.879893
0.833531
0.78617
0.738439
0.690995
0.644504
0.599607
0.556892
0.516869
0.479934
0.446364
0.416296
0.389744
0.366603
0.346678
0.329715
0.315421
0.303502
0.293672
0.285673
0.279284
0.274322
0.270642
0.268141
0.266751
0.266442
0.267214
0.269101
0.272166
0.276497
0.282202
0.2894
0.298209
0.308727
0.32101
0.335039
0.350698
0.36774
0.385781
0.404287
0.422603
0.439974
0.455594
0.468654
0.478392
0.484137
0.485347
0.481652
0.472849
0.45907
0.440009
0.419559
0.379103
0.201951
0.200435
0.199018
0.197702
0.196521
0.19554
0.194843
0.194544
0.194745
0.195623
0.197406
0.200372
0.204851
0.211216
0.219873
0.231236
0.24569
0.263537
0.284942
0.309875
0.338081
0.369074
0.402167
0.436526
0.471248
0.505435
0.538262
0.569027
0.597175
0.622301
0.644137
0.662526
0.677394
0.688722
0.696529
0.700857
0.70176
0.699308
0.693586
0.684701
0.672788
0.658014
0.640588
0.620762
0.598835
0.575153
0.550104
0.524112
0.497625
0.471102
0.444993
0.419721
0.395662
0.373126
0.352345
0.333469
0.316559
0.301603
0.288526
0.277203
0.267484
0.259204
0.252197
0.246308
0.241396
0.237338
0.234034
0.231401
0.229376
0.227918
0.227003
0.226625
0.226798
0.227553
0.228943
0.23104
0.233934
0.237738
0.242579
0.248595
0.255926
0.264697
0.274994
0.286839
0.300153
0.314734
0.330228
0.346132
0.361805
0.376506
0.389444
0.399835
0.40696
0.410218
0.409172
0.403571
0.393478
0.378656
0.362409
0.329481
0.210223
0.208705
0.207211
0.205733
0.204272
0.20284
0.201452
0.200131
0.198897
0.197775
0.196799
0.196014
0.195473
0.195239
0.195386
0.195995
0.19716
0.198977
0.201552
0.204987
0.20938
0.214812
0.221341
0.228988
0.237728
0.247479
0.258103
0.269404
0.281134
0.293009
0.304724
0.315969
0.326445
0.335882
0.344043
0.350738
0.355824
0.359207
0.360845
0.360739
0.358941
0.355539
0.350666
0.344484
0.337188
0.328992
0.320125
0.310824
0.301317
0.291822
0.282531
0.273608
0.265182
0.257343
0.25015
0.243627
0.237773
0.232565
0.227966
0.22393
0.220408
0.217349
0.214702
0.212424
0.210474
0.208819
0.207431
0.206291
0.205385
0.20471
0.204267
0.204071
0.204142
0.204514
0.205231
0.206352
0.20795
0.210112
0.212944
0.216563
0.2211
0.226685
0.233441
0.24146
0.250776
0.261337
0.272974
0.285378
0.298093
0.310529
0.321999
0.331774
0.33914
0.343472
0.34428
0.341261
0.334396
0.323482
0.311196
0.28555
0.216491
0.215132
0.213771
0.212412
0.211055
0.209702
0.208355
0.207017
0.205696
0.204398
0.203134
0.201914
0.200753
0.199666
0.198673
0.197795
0.197053
0.196473
0.196079
0.195897
0.195952
0.196269
0.196867
0.197766
0.198976
0.200505
0.202347
0.204488
0.2069
0.209545
0.212367
0.215304
0.218279
0.221211
0.224013
0.226602
0.228897
0.23083
0.232341
0.233389
0.233951
0.234019
0.233606
0.232741
0.231467
0.229837
0.227915
0.225767
0.22346
0.221059
0.218623
0.216204
0.213846
0.211582
0.209438
0.207429
0.205565
0.203849
0.202279
0.200847
0.199547
0.198369
0.197301
0.196333
0.195458
0.194666
0.193952
0.193314
0.192752
0.192269
0.191874
0.191579
0.191403
0.19137
0.191513
0.191874
0.192504
0.193465
0.194833
0.196695
0.199151
0.20231
0.206282
0.211169
0.217049
0.223951
0.231831
0.240544
0.249821
0.259265
0.268363
0.276518
0.283105
0.287533
0.289307
0.288089
0.283784
0.276197
0.267381
0.248301
0.220616
0.219423
0.218222
0.217013
0.215797
0.214573
0.213344
0.21211
0.210876
0.209645
0.20842
0.207206
0.206008
0.204831
0.203683
0.20257
0.201503
0.200488
0.199537
0.198659
0.197864
0.197161
0.196559
0.196065
0.195686
0.195426
0.195286
0.195267
0.195365
0.195572
0.195879
0.196271
0.196733
0.197245
0.197784
0.198328
0.198853
0.199336
0.199755
0.200092
0.20033
0.200459
0.200472
0.200368
0.200147
0.199818
0.199391
0.198878
0.198294
0.197655
0.196977
0.196273
0.195558
0.194842
0.194136
0.193445
0.192774
0.192127
0.191503
0.190903
0.190323
0.189761
0.189214
0.188678
0.188151
0.187631
0.187116
0.186605
0.186102
0.18561
0.185134
0.184685
0.184275
0.183921
0.183644
0.183471
0.183437
0.183584
0.183963
0.184635
0.18567
0.187147
0.189152
0.191772
0.195083
0.19914
0.203958
0.209488
0.215598
0.222058
0.228531
0.234593
0.239761
0.243543
0.245497
0.245289
0.242775
0.237757
0.231729
0.218117
0.223258
0.222194
0.221119
0.220033
0.218937
0.217833
0.21672
0.215601
0.214476
0.213347
0.212215
0.211083
0.209953
0.208828
0.20771
0.206605
0.205514
0.204443
0.203397
0.202379
0.201396
0.200451
0.199551
0.198699
0.1979
0.197157
0.196474
0.195851
0.19529
0.194791
0.194352
0.193969
0.19364
0.193358
0.193118
0.192913
0.192734
0.192574
0.192426
0.192281
0.192133
0.191976
0.191805
0.191616
0.191407
0.191177
0.190927
0.190656
0.190368
0.190065
0.18975
0.189424
0.189092
0.188754
0.188412
0.188067
0.187719
0.187367
0.187009
0.186644
0.186269
0.185881
0.185477
0.185055
0.184612
0.184147
0.183658
0.183145
0.182609
0.182051
0.181477
0.18089
0.1803
0.179716
0.179152
0.178626
0.178159
0.177778
0.177518
0.177417
0.177525
0.177895
0.17859
0.179674
0.18121
0.183253
0.185835
0.188954
0.192556
0.196518
0.200645
0.204662
0.208236
0.211004
0.212614
0.212778
0.21134
0.208104
0.204114
0.194698
0.224906
0.22394
0.222963
0.221977
0.22098
0.219974
0.218958
0.217934
0.216903
0.215865
0.214822
0.213775
0.212725
0.211674
0.210624
0.209576
0.208533
0.207497
0.20647
0.205455
0.204454
0.203472
0.202509
0.201571
0.200659
0.199777
0.198927
0.198112
0.197332
0.19659
0.195887
0.195222
0.194596
0.194007
0.193455
0.192937
0.192451
0.191995
0.191566
0.19116
0.190776
0.190409
0.190058
0.18972
0.189394
0.189076
0.188766
0.188464
0.188166
0.187874
0.187585
0.187299
0.187014
0.18673
0.186444
0.186154
0.185859
0.185555
0.185239
0.184909
0.18456
0.184191
0.183796
0.183374
0.182922
0.182437
0.181917
0.181362
0.180771
0.180144
0.179484
0.178793
0.178076
0.177338
0.176588
0.175837
0.175097
0.174387
0.173727
0.173143
0.172667
0.172335
0.172189
0.172276
0.172644
0.173336
0.174387
0.175814
0.177601
0.179691
0.181977
0.184296
0.186434
0.188146
0.18918
0.189313
0.188405
0.186279
0.183646
0.177215
0.225891
0.224997
0.224093
0.22318
0.222257
0.221326
0.220386
0.219437
0.218482
0.217519
0.21655
0.215576
0.214598
0.213617
0.212633
0.211648
0.210663
0.20968
0.208699
0.207723
0.206754
0.205792
0.204841
0.203901
0.202976
0.202067
0.201176
0.200306
0.199458
0.198633
0.197834
0.197062
0.196317
0.1956
0.194912
0.194253
0.193622
0.19302
0.192445
0.191896
0.191374
0.190875
0.1904
0.189947
0.189514
0.189101
0.188705
0.188325
0.18796
0.187608
0.187267
0.186935
0.18661
0.186289
0.185969
0.185648
0.185322
0.184988
0.184642
0.184281
0.1839
0.183498
0.183069
0.18261
0.182119
0.181593
0.181029
0.180425
0.179781
0.179096
0.178371
0.177605
0.176803
0.175966
0.175099
0.174209
0.173305
0.172396
0.171496
0.17062
0.16979
0.169028
0.168363
0.167827
0.167453
0.167275
0.167324
0.16762
0.168166
0.168942
0.169894
0.170932
0.171927
0.172725
0.173157
0.173065
0.17234
0.170832
0.169029
0.164593
0.226445
0.225599
0.224747
0.223886
0.223017
0.222141
0.221256
0.220365
0.219466
0.218561
0.217651
0.216734
0.215813
0.214888
0.21396
0.21303
0.212097
0.211164
0.210231
0.209299
0.208369
0.207444
0.206522
0.205608
0.204701
0.203803
0.202916
0.202042
0.201181
0.200337
0.199509
0.1987
0.197911
0.197142
0.196396
0.195673
0.194973
0.194297
0.193645
0.193017
0.192414
0.191834
0.191278
0.190745
0.190234
0.189745
0.189275
0.188825
0.188391
0.187974
0.187569
0.187177
0.186793
0.186415
0.186041
0.185666
0.185289
0.184904
0.184509
0.1841
0.183673
0.183225
0.182751
0.182249
0.181714
0.181145
0.180539
0.179893
0.179205
0.178475
0.177702
0.176885
0.176027
0.175127
0.17419
0.173218
0.172217
0.171192
0.170153
0.169109
0.168072
0.167059
0.166086
0.165176
0.164351
0.163636
0.163054
0.162626
0.162362
0.162259
0.162296
0.162425
0.162577
0.162659
0.162566
0.162193
0.161464
0.160257
0.158922
0.155747
0.22673
0.225917
0.225097
0.224271
0.223438
0.222599
0.221754
0.220902
0.220045
0.219181
0.218313
0.217439
0.216561
0.21568
0.214794
0.213906
0.213016
0.212124
0.21123
0.210337
0.209444
0.208553
0.207663
0.206778
0.205896
0.20502
0.204151
0.20329
0.202438
0.201597
0.200767
0.199951
0.19915
0.198364
0.197595
0.196844
0.196111
0.195399
0.194706
0.194035
0.193385
0.192756
0.192148
0.191562
0.190996
0.190451
0.189926
0.189419
0.188929
0.188455
0.187995
0.187547
0.187108
0.186676
0.186248
0.185822
0.185393
0.184959
0.184515
0.184059
0.183587
0.183095
0.182579
0.182036
0.181463
0.180857
0.180214
0.179533
0.178812
0.178049
0.177242
0.176391
0.175497
0.17456
0.17358
0.172561
0.171505
0.170416
0.1693
0.168162
0.167011
0.165857
0.164711
0.163587
0.162501
0.161469
0.16051
0.159639
0.158869
0.158206
0.157643
0.157162
0.156726
0.156286
0.15578
0.155142
0.154327
0.153239
0.152142
0.149724
0.226861
0.226066
0.225266
0.224461
0.223651
0.222836
0.222015
0.221189
0.220359
0.219523
0.218684
0.21784
0.216992
0.216141
0.215286
0.214429
0.213569
0.212708
0.211845
0.210982
0.210118
0.209254
0.208392
0.207531
0.206673
0.205819
0.204969
0.204124
0.203286
0.202456
0.201634
0.200822
0.200021
0.199232
0.198457
0.197695
0.196949
0.196218
0.195505
0.194809
0.194131
0.193472
0.192831
0.19221
0.191607
0.191023
0.190456
0.189907
0.189374
0.188856
0.188351
0.187857
0.187373
0.186896
0.186423
0.185952
0.18548
0.185003
0.184518
0.184021
0.18351
0.182981
0.182429
0.181853
0.181248
0.180611
0.17994
0.179233
0.178486
0.177699
0.176869
0.175996
0.175079
0.174119
0.173115
0.17207
0.170985
0.169862
0.168706
0.167519
0.166309
0.16508
0.163842
0.162603
0.161373
0.160165
0.158991
0.157865
0.156796
0.155793
0.154859
0.153988
0.153166
0.152367
0.151561
0.150709
0.149788
0.148722
0.147728
0.145738
0.226911
0.226126
0.225336
0.224543
0.223745
0.222943
0.222137
0.221327
0.220512
0.219694
0.218872
0.218047
0.217219
0.216387
0.215553
0.214716
0.213878
0.213038
0.212196
0.211353
0.21051
0.209667
0.208825
0.207983
0.207144
0.206306
0.205472
0.204642
0.203817
0.202998
0.202185
0.20138
0.200584
0.199797
0.199021
0.198256
0.197504
0.196765
0.19604
0.19533
0.194636
0.193958
0.193296
0.192651
0.192022
0.19141
0.190814
0.190234
0.189668
0.189116
0.188577
0.188048
0.187528
0.187015
0.186507
0.186
0.185492
0.18498
0.184462
0.183933
0.18339
0.182831
0.182251
0.181648
0.181017
0.180358
0.179665
0.178938
0.178173
0.177368
0.176523
0.175635
0.174705
0.173731
0.172715
0.171656
0.170556
0.169417
0.168242
0.167033
0.165794
0.16453
0.163247
0.16195
0.160647
0.159348
0.15806
0.156794
0.155559
0.154363
0.153212
0.152108
0.151046
0.150018
0.149009
0.148
0.146982
0.145897
0.144937
0.14317
0.226924
0.226143
0.225358
0.224569
0.223778
0.222982
0.222184
0.221382
0.220576
0.219767
0.218955
0.218141
0.217323
0.216504
0.215682
0.214857
0.214032
0.213204
0.212376
0.211547
0.210717
0.209887
0.209058
0.208229
0.207402
0.206577
0.205754
0.204935
0.204119
0.203308
0.202502
0.201703
0.200911
0.200127
0.199352
0.198586
0.197831
0.197088
0.196357
0.195638
0.194933
0.194242
0.193566
0.192904
0.192258
0.191626
0.191008
0.190405
0.189815
0.189238
0.188672
0.188116
0.187569
0.187028
0.186491
0.185956
0.185421
0.184882
0.184337
0.183782
0.183215
0.182631
0.182029
0.181405
0.180756
0.180078
0.179369
0.178627
0.177848
0.177032
0.176176
0.17528
0.174341
0.173361
0.172338
0.171273
0.170168
0.169023
0.16784
0.166623
0.165373
0.164095
0.162793
0.161472
0.160137
0.158794
0.157452
0.156116
0.154796
0.153498
0.152229
0.150994
0.149794
0.148627
0.147492
0.146377
0.145287
0.144171
0.14321
0.141548
0.226921
0.226141
0.225358
0.224572
0.223782
0.22299
0.222194
0.221395
0.220594
0.21979
0.218983
0.218173
0.217361
0.216547
0.215732
0.214914
0.214095
0.213275
0.212453
0.211632
0.210809
0.209987
0.209165
0.208344
0.207524
0.206706
0.205889
0.205076
0.204266
0.20346
0.202659
0.201863
0.201074
0.200291
0.199516
0.19875
0.197993
0.197246
0.19651
0.195785
0.195072
0.194372
0.193685
0.193011
0.19235
0.191703
0.19107
0.190449
0.189841
0.189244
0.188658
0.188081
0.187512
0.186949
0.18639
0.185833
0.185276
0.184716
0.184149
0.183574
0.182988
0.182386
0.181767
0.181126
0.180462
0.17977
0.179049
0.178296
0.177508
0.176684
0.175821
0.174919
0.173976
0.172992
0.171967
0.170901
0.169795
0.168649
0.167466
0.166248
0.164997
0.163717
0.162411
0.161082
0.159736
0.158378
0.157013
0.155648
0.154289
0.152943
0.151616
0.150313
0.149039
0.147797
0.146588
0.145409
0.144268
0.143123
0.142151
0.140526
0.226913
0.226133
0.22535
0.224564
0.223775
0.222983
0.222189
0.221391
0.220591
0.219788
0.218983
0.218175
0.217366
0.216554
0.215741
0.214926
0.21411
0.213292
0.212474
0.211655
0.210836
0.210017
0.209199
0.208381
0.207564
0.206748
0.205935
0.205124
0.204316
0.203512
0.202713
0.201918
0.201128
0.200345
0.199569
0.198801
0.198041
0.19729
0.196549
0.195819
0.195099
0.194391
0.193695
0.193011
0.19234
0.191681
0.191034
0.190399
0.189776
0.189164
0.188561
0.187968
0.187381
0.186801
0.186225
0.18565
0.185075
0.184498
0.183914
0.183323
0.182721
0.182105
0.181471
0.180818
0.180142
0.17944
0.17871
0.177948
0.177154
0.176324
0.175457
0.174551
0.173606
0.172621
0.171596
0.170531
0.169426
0.168284
0.167104
0.165889
0.164642
0.163365
0.162062
0.160735
0.15939
0.15803
0.156661
0.155287
0.153915
0.15255
0.151199
0.149866
0.148557
0.147277
0.146029
0.144813
0.143641
0.142474
0.141487
0.139868
0.226904
0.226124
0.22534
0.224554
0.223764
0.222972
0.222177
0.22138
0.22058
0.219777
0.218972
0.218164
0.217355
0.216544
0.215731
0.214916
0.214101
0.213284
0.212466
0.211648
0.210829
0.210011
0.209192
0.208375
0.207558
0.206743
0.20593
0.205119
0.204311
0.203506
0.202705
0.201909
0.201118
0.200333
0.199554
0.198783
0.198019
0.197264
0.196517
0.195781
0.195055
0.194339
0.193635
0.192942
0.192261
0.191591
0.190933
0.190286
0.189651
0.189025
0.188409
0.187801
0.187201
0.186606
0.186015
0.185425
0.184836
0.184244
0.183647
0.183042
0.182427
0.181799
0.181154
0.180491
0.179805
0.179095
0.178357
0.177589
0.176789
0.175956
0.175086
0.174178
0.173233
0.172248
0.171224
0.170161
0.16906
0.167921
0.166746
0.165537
0.164296
0.163025
0.161728
0.160408
0.159068
0.157714
0.156348
0.154977
0.153605
0.152237
0.150879
0.149537
0.148215
0.146918
0.145652
0.144416
0.143226
0.142042
0.141042
0.139411
0.226895
0.226114
0.22533
0.224543
0.223753
0.22296
0.222164
0.221366
0.220565
0.219762
0.218957
0.218149
0.217339
0.216527
0.215713
0.214898
0.214081
0.213264
0.212445
0.211626
0.210806
0.209987
0.209167
0.208348
0.20753
0.206713
0.205898
0.205085
0.204275
0.203468
0.202665
0.201866
0.201072
0.200283
0.1995
0.198724
0.197956
0.197195
0.196443
0.195701
0.194968
0.194245
0.193532
0.192831
0.19214
0.191461
0.190793
0.190135
0.189488
0.188851
0.188223
0.187603
0.186989
0.186382
0.185778
0.185176
0.184574
0.183969
0.18336
0.182744
0.182118
0.181479
0.180825
0.180152
0.179459
0.178741
0.177998
0.177225
0.176421
0.175584
0.174712
0.173804
0.172858
0.171874
0.170852
0.169792
0.168694
0.16756
0.16639
0.165187
0.163953
0.162689
0.1614
0.160088
0.158757
0.15741
0.156052
0.154688
0.153322
0.151958
0.150603
0.14926
0.147936
0.146634
0.14536
0.144115
0.142913
0.141717
0.140704
0.139054
0.226886
0.226104
0.22532
0.224532
0.223741
0.222948
0.222152
0.221353
0.220551
0.219747
0.21894
0.218131
0.21732
0.216507
0.215693
0.214876
0.214058
0.213239
0.212419
0.211598
0.210777
0.209955
0.209134
0.208312
0.207492
0.206673
0.205855
0.205039
0.204226
0.203416
0.202609
0.201806
0.201008
0.200215
0.199427
0.198646
0.197872
0.197106
0.196348
0.195598
0.194858
0.194128
0.193407
0.192697
0.191998
0.191309
0.190631
0.189963
0.189306
0.188658
0.188019
0.187387
0.186762
0.186143
0.185527
0.184914
0.1843
0.183685
0.183065
0.182438
0.181802
0.181154
0.180491
0.179811
0.17911
0.178386
0.177637
0.17686
0.176052
0.175213