/*--------------------------------*- C++ -*----------------------------------*\
| =========                 |                                                 |
| \\      /  F ield         | OpenFOAM: The Open Source CFD Toolbox           |
|  \\    /   O peration     | Version:  2.1.1                                 |
|   \\  /    A nd           | Web:      www.OpenFOAM.org                      |
|    \\/     M anipulation  |                                                 |
\*---------------------------------------------------------------------------*/
FoamFile
{
    version     2.0;
    format      ascii;
    class       volScalarField;
    location    "0.17";
    object      nut;
}
// * * * * * * * * * * * * * * * * * * * * * * * * * * * * * * * * * * * * * //

dimensions      [0 2 -1 0 0 0 0];

internalField   nonuniform List<scalar> 
6820
(
4.96025e-05
5.47044e-05
5.94497e-05
6.37667e-05
6.76166e-05
7.09775e-05
7.38479e-05
7.62454e-05
7.82024e-05
7.97606e-05
8.09664e-05
8.18673e-05
8.25097e-05
8.29363e-05
8.31859e-05
8.32925e-05
8.32855e-05
8.31896e-05
8.30257e-05
8.2811e-05
8.25596e-05
8.22827e-05
8.19896e-05
8.16873e-05
8.13815e-05
8.10766e-05
8.07757e-05
8.04818e-05
8.01931e-05
7.99269e-05
7.96039e-05
7.96069e-05
7.80745e-05
0.000540295
0.000304971
0.000219957
0.000171555
0.000140516
0.000119653
0.000105128
9.47442e-05
8.71802e-05
8.1599e-05
7.74506e-05
7.43613e-05
7.20703e-05
7.03918e-05
6.91902e-05
6.83653e-05
6.78415e-05
6.75611e-05
6.74794e-05
6.75611e-05
6.77783e-05
6.81083e-05
6.85326e-05
6.90357e-05
6.96047e-05
7.02284e-05
7.08971e-05
7.1602e-05
7.23354e-05
7.30854e-05
7.38494e-05
7.45922e-05
7.52637e-05
0.00105857
0.000836088
0.00067924
0.000569616
0.000490056
0.000430119
0.000383705
0.000346859
0.000316959
0.000292243
0.000271496
0.000253857
0.000238698
0.000225551
0.00021406
0.00020395
0.000195003
0.000187046
0.000179938
0.000173565
0.000167831
0.000162657
0.000157977
0.000153734
0.000149879
0.000146372
0.000143176
0.000140262
0.000137601
0.000135175
0.000132946
0.00013096
0.000128915
0.00115953
0.00109653
0.00101167
0.000926418
0.000849812
0.000783622
0.000727069
0.000678741
0.000637222
0.000601289
0.000569941
0.000542372
0.000517944
0.000496147
0.000476573
0.000458894
0.000442844
0.000428205
0.000414797
0.000402469
0.000391094
0.000380567
0.000370795
0.000361701
0.000353217
0.000345286
0.000337857
0.000330887
0.000324344
0.000318196
0.000312429
0.000307026
0.000302001
0.00116966
0.00115863
0.00113363
0.00109757
0.00105569
0.0010122
0.000969674
0.000929417
0.000891976
0.000857476
0.000825826
0.000796835
0.000770277
0.000745918
0.000723539
0.000702934
0.000683922
0.000666339
0.00065004
0.000634897
0.000620798
0.000607642
0.000595341
0.000583817
0.000573001
0.000562829
0.000553247
0.000544206
0.000535662
0.000527576
0.000519918
0.000512662
0.00050579
0.00117006
0.00116839
0.00116306
0.00115261
0.00113713
0.00111767
0.00109554
0.00107191
0.00104772
0.0010236
0.001
0.000977188
0.00095532
0.000934476
0.000914682
0.000895932
0.000878197
0.000861438
0.000845606
0.00083065
0.000816519
0.000803159
0.000790522
0.000778561
0.000767228
0.000756483
0.000746285
0.000736596
0.000727383
0.000718613
0.000710257
0.000702296
0.000694704
0.00116996
0.00116938
0.00116821
0.00116569
0.00116123
0.00115458
0.00114584
0.00113528
0.00112328
0.00111023
0.00109649
0.00108234
0.00106802
0.00105373
0.00103959
0.00102571
0.00101217
0.000999005
0.000986261
0.000973952
0.000962087
0.000950668
0.00093969
0.000929144
0.00091902
0.000909303
0.000899978
0.000891031
0.000882444
0.000874203
0.000866293
0.000858704
0.000851422
0.00116994
0.0011694
0.00116883
0.00116803
0.00116674
0.00116472
0.0011618
0.00115791
0.00115304
0.00114728
0.00114074
0.00113354
0.00112582
0.0011177
0.00110929
0.0011007
0.001092
0.00108327
0.00107457
0.00106594
0.00105742
0.00104904
0.00104082
0.00103278
0.00102494
0.00101729
0.00100985
0.00100262
0.000995599
0.000988787
0.000982185
0.000975791
0.000969604
0.00116994
0.00116939
0.00116886
0.00116832
0.0011677
0.00116692
0.00116588
0.00116449
0.00116269
0.00116043
0.00115772
0.00115455
0.00115097
0.00114701
0.00114272
0.00113815
0.00113334
0.00112834
0.0011232
0.00111795
0.00111262
0.00110726
0.00110188
0.00109651
0.00109116
0.00108586
0.00108062
0.00107545
0.00107036
0.00106536
0.00106045
0.00105564
0.00105094
0.00116994
0.00116938
0.00116885
0.00116833
0.00116782
0.00116729
0.00116671
0.00116605
0.00116526
0.00116432
0.00116319
0.00116185
0.0011603
0.00115853
0.00115654
0.00115435
0.00115197
0.00114942
0.00114671
0.00114387
0.00114091
0.00113785
0.00113472
0.00113152
0.00112827
0.00112499
0.00112169
0.00111837
0.00111506
0.00111176
0.00110848
0.00110523
0.00110201
0.00116994
0.00116938
0.00116884
0.00116832
0.00116782
0.00116732
0.00116683
0.00116634
0.00116582
0.00116527
0.00116466
0.00116399
0.00116324
0.0011624
0.00116146
0.00116042
0.00115927
0.00115803
0.00115668
0.00115524
0.00115371
0.0011521
0.00115042
0.00114867
0.00114686
0.001145
0.0011431
0.00114116
0.0011392
0.00113721
0.00113521
0.0011332
0.00113118
0.00116994
0.00116938
0.00116884
0.00116832
0.00116781
0.00116732
0.00116684
0.00116637
0.00116591
0.00116545
0.00116499
0.00116451
0.00116402
0.00116351
0.00116296
0.00116238
0.00116176
0.00116109
0.00116038
0.00115962
0.00115882
0.00115797
0.00115708
0.00115615
0.00115517
0.00115416
0.00115311
0.00115203
0.00115093
0.0011498
0.00114865
0.00114748
0.0011463
0.00116994
0.00116938
0.00116884
0.00116832
0.00116781
0.00116732
0.00116684
0.00116637
0.00116592
0.00116547
0.00116504
0.00116461
0.00116419
0.00116377
0.00116334
0.00116291
0.00116248
0.00116203
0.00116157
0.0011611
0.00116061
0.0011601
0.00115957
0.00115903
0.00115847
0.00115789
0.00115729
0.00115667
0.00115604
0.00115539
0.00115473
0.00115406
0.00115337
0.00116994
0.00116938
0.00116884
0.00116832
0.00116781
0.00116731
0.00116683
0.00116636
0.00116591
0.00116547
0.00116504
0.00116462
0.00116421
0.00116381
0.00116342
0.00116303
0.00116265
0.00116228
0.0011619
0.00116152
0.00116115
0.00116077
0.00116039
0.00116001
0.00115962
0.00115923
0.00115883
0.00115843
0.00115803
0.00115761
0.0011572
0.00115678
0.00115635
0.00116994
0.00116938
0.00116884
0.00116832
0.00116781
0.00116731
0.00116683
0.00116636
0.00116591
0.00116546
0.00116504
0.00116462
0.00116421
0.00116381
0.00116343
0.00116305
0.00116268
0.00116232
0.00116197
0.00116163
0.00116129
0.00116095
0.00116062
0.0011603
0.00115997
0.00115965
0.00115934
0.00115902
0.00115871
0.0011584
0.00115809
0.00115778
0.00115747
0.00116994
0.00116938
0.00116884
0.00116831
0.0011678
0.00116731
0.00116683
0.00116636
0.0011659
0.00116546
0.00116503
0.00116461
0.0011642
0.00116381
0.00116342
0.00116305
0.00116268
0.00116233
0.00116198
0.00116164
0.00116131
0.00116099
0.00116067
0.00116036
0.00116006
0.00115976
0.00115947
0.00115919
0.00115891
0.00115864
0.00115837
0.0011581
0.00115784
0.00116994
0.00116938
0.00116884
0.00116831
0.0011678
0.00116731
0.00116683
0.00116636
0.0011659
0.00116546
0.00116503
0.00116461
0.0011642
0.0011638
0.00116342
0.00116304
0.00116268
0.00116232
0.00116197
0.00116163
0.00116131
0.00116099
0.00116067
0.00116037
0.00116007
0.00115978
0.0011595
0.00115922
0.00115895
0.00115869
0.00115844
0.00115818
0.00115794
0.00116994
0.00116938
0.00116884
0.00116831
0.0011678
0.00116731
0.00116682
0.00116635
0.0011659
0.00116545
0.00116502
0.0011646
0.0011642
0.0011638
0.00116341
0.00116304
0.00116267
0.00116231
0.00116197
0.00116163
0.0011613
0.00116098
0.00116067
0.00116036
0.00116007
0.00115978
0.0011595
0.00115922
0.00115895
0.0011587
0.00115844
0.00115819
0.00115795
0.00116994
0.00116938
0.00116884
0.00116831
0.0011678
0.0011673
0.00116682
0.00116635
0.0011659
0.00116545
0.00116502
0.0011646
0.00116419
0.00116379
0.00116341
0.00116303
0.00116266
0.00116231
0.00116196
0.00116162
0.00116129
0.00116097
0.00116066
0.00116035
0.00116006
0.00115977
0.00115949
0.00115921
0.00115895
0.00115869
0.00115843
0.00115819
0.00115795
0.00116994
0.00116938
0.00116884
0.00116831
0.0011678
0.0011673
0.00116682
0.00116635
0.00116589
0.00116545
0.00116502
0.0011646
0.00116419
0.00116379
0.0011634
0.00116303
0.00116266
0.0011623
0.00116195
0.00116161
0.00116128
0.00116096
0.00116065
0.00116034
0.00116005
0.00115976
0.00115948
0.0011592
0.00115893
0.00115867
0.00115842
0.00115817
0.00115793
0.00116994
0.00116938
0.00116884
0.00116831
0.0011678
0.0011673
0.00116682
0.00116635
0.00116589
0.00116545
0.00116502
0.00116459
0.00116419
0.00116379
0.0011634
0.00116302
0.00116265
0.0011623
0.00116195
0.00116161
0.00116128
0.00116096
0.00116064
0.00116034
0.00116004
0.00115975
0.00115947
0.00115919
0.00115892
0.00115866
0.00115841
0.00115816
0.00115792
0.00116994
0.00116938
0.00116884
0.00116831
0.0011678
0.0011673
0.00116682
0.00116635
0.00116589
0.00116545
0.00116501
0.00116459
0.00116418
0.00116378
0.0011634
0.00116302
0.00116265
0.00116229
0.00116194
0.0011616
0.00116127
0.00116095
0.00116063
0.00116033
0.00116003
0.00115974
0.00115946
0.00115918
0.00115891
0.00115865
0.0011584
0.00115815
0.0011579
0.00116994
0.00116938
0.00116884
0.00116831
0.0011678
0.0011673
0.00116682
0.00116635
0.00116589
0.00116545
0.00116501
0.00116459
0.00116418
0.00116378
0.00116339
0.00116301
0.00116265
0.00116229
0.00116194
0.0011616
0.00116127
0.00116094
0.00116063
0.00116032
0.00116002
0.00115973
0.00115945
0.00115917
0.0011589
0.00115864
0.00115838
0.00115813
0.00115789
0.00116994
0.00116938
0.00116884
0.00116831
0.0011678
0.0011673
0.00116682
0.00116635
0.00116589
0.00116544
0.00116501
0.00116459
0.00116418
0.00116378
0.00116339
0.00116301
0.00116264
0.00116228
0.00116193
0.00116159
0.00116126
0.00116094
0.00116062
0.00116032
0.00116002
0.00115972
0.00115944
0.00115916
0.00115889
0.00115863
0.00115837
0.00115812
0.00115788
0.00116994
0.00116938
0.00116884
0.00116831
0.0011678
0.0011673
0.00116682
0.00116635
0.00116589
0.00116544
0.00116501
0.00116459
0.00116418
0.00116378
0.00116339
0.00116301
0.00116264
0.00116228
0.00116193
0.00116159
0.00116126
0.00116093
0.00116062
0.00116031
0.00116001
0.00115972
0.00115943
0.00115916
0.00115889
0.00115862
0.00115836
0.00115811
0.00115787
0.00116994
0.00116938
0.00116884
0.00116831
0.0011678
0.0011673
0.00116682
0.00116635
0.00116589
0.00116544
0.00116501
0.00116459
0.00116418
0.00116378
0.00116339
0.00116301
0.00116264
0.00116228
0.00116193
0.00116159
0.00116125
0.00116093
0.00116061
0.0011603
0.00116
0.00115971
0.00115943
0.00115915
0.00115888
0.00115861
0.00115836
0.0011581
0.00115786
0.00116994
0.00116938
0.00116884
0.00116831
0.0011678
0.0011673
0.00116682
0.00116635
0.00116589
0.00116544
0.00116501
0.00116459
0.00116417
0.00116377
0.00116338
0.001163
0.00116264
0.00116228
0.00116192
0.00116158
0.00116125
0.00116092
0.00116061
0.0011603
0.00116
0.00115971
0.00115942
0.00115914
0.00115887
0.00115861
0.00115835
0.0011581
0.00115785
0.00116994
0.00116938
0.00116884
0.00116831
0.0011678
0.0011673
0.00116682
0.00116635
0.00116589
0.00116544
0.00116501
0.00116458
0.00116417
0.00116377
0.00116338
0.001163
0.00116263
0.00116227
0.00116192
0.00116158
0.00116125
0.00116092
0.00116061
0.0011603
0.00116
0.0011597
0.00115942
0.00115914
0.00115886
0.0011586
0.00115834
0.00115809
0.00115784
0.00116994
0.00116938
0.00116884
0.00116831
0.0011678
0.0011673
0.00116682
0.00116634
0.00116589
0.00116544
0.00116501
0.00116458
0.00116417
0.00116377
0.00116338
0.001163
0.00116263
0.00116227
0.00116192
0.00116158
0.00116125
0.00116092
0.0011606
0.00116029
0.00115999
0.0011597
0.00115941
0.00115913
0.00115886
0.00115859
0.00115834
0.00115808
0.00115784
0.00116994
0.00116938
0.00116884
0.00116831
0.0011678
0.0011673
0.00116682
0.00116635
0.00116589
0.00116544
0.00116501
0.00116459
0.00116417
0.00116377
0.00116338
0.001163
0.00116263
0.00116227
0.00116192
0.00116158
0.00116125
0.00116092
0.0011606
0.00116029
0.00115999
0.0011597
0.00115941
0.00115913
0.00115886
0.00115859
0.00115833
0.00115808
0.00115783
0.00116994
0.00116938
0.00116884
0.00116831
0.0011678
0.0011673
0.00116682
0.00116635
0.00116589
0.00116544
0.00116501
0.00116459
0.00116418
0.00116378
0.00116339
0.00116301
0.00116264
0.00116228
0.00116192
0.00116158
0.00116125
0.00116092
0.0011606
0.00116029
0.00115999
0.0011597
0.00115941
0.00115913
0.00115885
0.00115859
0.00115832
0.00115807
0.00115782
0.00116994
0.00116938
0.00116884
0.00116831
0.0011678
0.00116731
0.00116682
0.00116635
0.0011659
0.00116545
0.00116502
0.0011646
0.00116418
0.00116378
0.00116339
0.00116301
0.00116264
0.00116228
0.00116193
0.00116158
0.00116125
0.00116092
0.0011606
0.00116029
0.00115998
0.00115968
0.00115939
0.0011591
0.00115882
0.00115854
0.00115828
0.00115801
0.00115775
0.00116994
0.00116938
0.00116884
0.00116831
0.00116781
0.00116731
0.00116683
0.00116636
0.0011659
0.00116546
0.00116503
0.0011646
0.00116419
0.00116379
0.0011634
0.00116301
0.00116264
0.00116227
0.0011619
0.00116155
0.0011612
0.00116086
0.00116052
0.00116019
0.00115986
0.00115953
0.00115921
0.0011589
0.00115858
0.00115827
0.00115797
0.00115767
0.00115737
0.00116994
0.00116938
0.00116884
0.00116833
0.00116782
0.00116733
0.00116685
0.00116638
0.00116593
0.00116548
0.00116503
0.00116459
0.00116416
0.00116373
0.00116331
0.00116288
0.00116246
0.00116204
0.00116161
0.00116119
0.00116076
0.00116033
0.0011599
0.00115946
0.00115902
0.00115858
0.00115814
0.00115769
0.00115724
0.00115678
0.00115632
0.00115586
0.0011554
0.00116994
0.00116939
0.00116886
0.00116835
0.00116784
0.00116733
0.00116683
0.00116632
0.00116581
0.00116528
0.00116473
0.00116417
0.00116358
0.00116297
0.00116233
0.00116166
0.00116096
0.00116024
0.00115948
0.0011587
0.00115789
0.00115706
0.0011562
0.00115531
0.00115441
0.00115348
0.00115254
0.00115158
0.0011506
0.00114961
0.00114861
0.0011476
0.00114658
0.00116995
0.0011694
0.00116886
0.00116828
0.00116765
0.00116694
0.00116612
0.00116519
0.00116413
0.00116294
0.00116162
0.00116017
0.00115858
0.00115688
0.00115506
0.00115313
0.00115111
0.00114899
0.00114679
0.00114453
0.0011422
0.00113981
0.00113739
0.00113492
0.00113243
0.00112991
0.00112737
0.00112483
0.00112228
0.00111973
0.00111718
0.00111464
0.00111212
0.00116996
0.00116916
0.00116786
0.00116595
0.00116343
0.00116029
0.00115656
0.00115227
0.00114747
0.00114221
0.00113658
0.00113063
0.00112442
0.001118
0.00111144
0.00110477
0.00109803
0.00109126
0.0010845
0.00107776
0.00107106
0.00106444
0.00105789
0.00105143
0.00104508
0.00103884
0.00103272
0.00102671
0.00102084
0.00101509
0.00100947
0.00100398
0.000998623
0.00116831
0.00115866
0.001145
0.00112844
0.00110969
0.00108947
0.00106843
0.00104708
0.00102581
0.00100488
0.000984494
0.000964759
0.000945748
0.0009275
0.000910027
0.000893323
0.000877373
0.000862154
0.000847637
0.000833792
0.000820586
0.000807988
0.000795966
0.000784489
0.000773528
0.000763054
0.000753041
0.000743464
0.000734298
0.000725522
0.000717113
0.000709053
0.000701319
0.00107567
0.000936196
0.000835611
0.0007569
0.000692114
0.000638375
0.000593477
0.000555592
0.000523282
0.000495443
0.000471228
0.000449984
0.000431205
0.000414492
0.000399529
0.000386063
0.000373885
0.000362828
0.000352749
0.000343531
0.000335075
0.000327295
0.00032012
0.000313487
0.000307341
0.000301635
0.000296328
0.000291384
0.00028677
0.000282457
0.00027842
0.000274637
0.000271085
0.000142979
0.000146644
0.000150174
0.000153551
0.000156773
0.000159846
0.000162776
0.000165567
0.000168225
0.000170754
0.000173161
0.000175449
0.000177624
0.000179691
0.000181653
0.000183516
0.000185284
0.000186962
0.000188553
0.000190062
0.000191492
0.000192848
0.000194133
0.000195351
0.000196504
0.000197597
0.000198632
0.000199613
0.000200541
0.00020142
0.000202253
0.000203041
0.000203788
9.09879e-05
0.000110352
0.000133703
0.000161611
0.000193705
0.000228502
0.000264028
0.000298558
0.000331049
0.000361266
0.000389582
0.00041667
0.000443188
0.000469585
0.000496054
0.000522595
0.00054913
0.000575601
0.000602033
0.000628532
0.000655262
0.000682393
0.000710072
0.000738392
0.000767388
0.000797048
0.000827321
0.000858129
0.000889375
0.000920947
0.000952712
0.000984518
0.00101619
0.00104753
0.00107831
0.00110829
0.00113721
0.00116481
0.0011908
0.0012149
0.00123684
0.00125632
0.0012731
0.00128693
0.00129758
0.00130487
0.00130865
0.00130883
0.00130538
0.00129834
0.00128781
0.001274
0.0012572
0.00123778
0.00121623
0.00119311
0.00116906
0.00114479
0.00112107
0.00109864
0.00107825
0.00106055
0.00104609
0.00103529
0.00102838
0.00102544
0.00102638
0.00103097
0.00103892
0.00104987
0.00106348
0.00107947
0.00109762
0.00111781
0.00114002
0.00116435
0.00119096
0.00122006
0.00125191
0.00128674
0.0013247
0.00136584
0.00141004
0.00145698
0.0015061
0.00155662
0.00160753
0.00165763
0.00170554
0.00174979
0.00178888
0.00182131
0.00184567
0.00186069
0.00186534
0.00185884
0.00184098
0.00181092
0.00177488
0.0016993
7.64241e-05
7.85366e-05
8.18719e-05
8.70926e-05
9.49661e-05
0.000106231
0.000121456
0.000140921
0.000164511
0.000191684
0.000221542
0.000252992
0.000284933
0.000316444
0.000346913
0.000376078
0.000403983
0.000430882
0.000457119
0.000483027
0.00050886
0.000534771
0.000560824
0.000587021
0.00061334
0.000639754
0.000666241
0.000692788
0.000719373
0.000745961
0.000772488
0.000798861
0.000824953
0.000850609
0.000875648
0.000899866
0.000923048
0.000944965
0.000965382
0.000984063
0.00100077
0.00101529
0.0010274
0.00103692
0.00104368
0.00104757
0.00104853
0.00104653
0.00104165
0.00103401
0.00102384
0.00101146
0.000997279
0.000981803
0.000965621
0.000949393
0.000933827
0.000919645
0.000907543
0.000898142
0.000891943
0.000889284
0.000890312
0.000894973
0.000903031
0.000914099
0.000927697
0.000943303
0.000960415
0.000978589
0.000997475
0.00101684
0.00103655
0.00105663
0.00107719
0.00109846
0.00112076
0.00114449
0.00117009
0.00119801
0.00122867
0.00126239
0.00129934
0.00133947
0.00138246
0.00142771
0.00147435
0.00152124
0.00156701
0.00161019
0.00164918
0.00168243
0.00170845
0.00172591
0.00173374
0.00173114
0.00171792
0.00169335
0.00166334
0.00159859
0.000126873
0.000124846
0.000122783
0.000120493
0.000117986
0.000115436
0.000113524
0.000112651
0.000113257
0.000115884
0.000121081
0.00012931
0.000140876
0.000155878
0.000174189
0.000195465
0.000219181
0.000244698
0.000271341
0.000298485
0.000325622
0.000352399
0.000378626
0.000404249
0.000429308
0.000453892
0.000478096
0.000501996
0.000525625
0.000548979
0.000572011
0.000594646
0.000616782
0.0006383
0.000659069
0.000678943
0.00069777
0.000715391
0.000731644
0.000746368
0.000759407
0.000770621
0.000779888
0.000787118
0.000792256
0.0007953
0.000796305
0.000795395
0.000792771
0.000788717
0.000783605
0.000777887
0.000772096
0.000766819
0.000762678
0.000760293
0.000760236
0.000762983
0.000768871
0.000778051
0.000790477
0.000805903
0.000823916
0.00084398
0.000865498
0.000887869
0.000910538
0.000933029
0.000954971
0.000976099
0.00099626
0.0010154
0.00103355
0.00105085
0.00106748
0.00108374
0.00109998
0.00111663
0.00113419
0.00115321
0.00117427
0.0011979
0.00122457
0.00125455
0.00128788
0.00132429
0.00136317
0.00140357
0.00144424
0.00148372
0.00152042
0.00155271
0.00157902
0.00159793
0.00160832
0.00160936
0.00160084
0.00158214
0.00155861
0.00150613
0.000296561
0.000290532
0.000284498
0.000278358
0.000271955
0.000265088
0.000257643
0.000249536
0.000241066
0.000232285
0.000223307
0.000214385
0.000205913
0.000198385
0.000192337
0.000188274
0.000186617
0.000187659
0.000191554
0.000198313
0.000207813
0.000219822
0.000234023
0.000250043
0.000267487
0.000285971
0.000305139
0.000324686
0.000344362
0.00036397
0.000383358
0.000402408
0.000421022
0.000439112
0.000456594
0.000473382
0.000489389
0.000504526
0.000518712
0.000531874
0.000543956
0.000554926
0.000564784
0.000573567
0.000581362
0.000588309
0.000594607
0.00060052
0.000606371
0.000612542
0.000619455
0.000627556
0.000637283
0.000649032
0.000663116
0.000679728
0.000698914
0.000720554
0.000744373
0.00076996
0.000796813
0.000824383
0.000852121
0.00087952
0.000906143
0.000931639
0.00095575
0.000978308
0.000999226
0.00101848
0.00103612
0.00105222
0.0010669
0.00108031
0.00109264
0.0011041
0.00111495
0.00112549
0.00113609
0.00114721
0.00115935
0.00117309
0.00118902
0.00120768
0.00122947
0.00125456
0.00128276
0.00131354
0.00134595
0.00137875
0.00141045
0.00143942
0.00146408
0.00148294
0.00149481
0.0014988
0.00149465
0.00148186
0.00146495
0.00142559
0.00049825
0.000490012
0.000482024
0.000474231
0.000466562
0.000458918
0.000451182
0.00044319
0.000434904
0.000426288
0.000417251
0.000407696
0.000397548
0.000386777
0.00037542
0.000363594
0.000351508
0.000339455
0.000327797
0.000316926
0.00030723
0.000299053
0.000292669
0.000288268
0.000285951
0.000285734
0.00028756
0.000291311
0.000296823
0.000303903
0.000312342
0.000321928
0.000332455
0.000343735
0.000355598
0.000367899
0.000380521
0.000393371
0.00040639
0.000419545
0.000432837
0.000446301
0.000460005
0.000474053
0.000488585
0.00050377
0.000519801
0.000536884
0.000555226
0.000575012
0.000596386
0.000619431
0.000644152
0.000670462
0.000698182
0.000727045
0.000756714
0.000786804
0.000816908
0.000846629
0.000875596
0.000903491
0.000930057
0.000955103
0.000978503
0.00100019
0.00102016
0.00103843
0.00105507
0.00107017
0.00108383
0.00109617
0.0011073
0.00111734
0.00112643
0.00113468
0.00114222
0.00114922
0.00115586
0.00116234
0.00116898
0.00117615
0.0011843
0.00119396
0.00120567
0.00121991
0.00123693
0.00125673
0.0012789
0.00130265
0.00132684
0.00135009
0.00137091
0.00138786
0.0013997
0.00140551
0.00140495
0.00139759
0.00138694
0.00136049
0.000686316
0.00067712
0.000668212
0.000659581
0.000651198
0.000643024
0.00063501
0.000627089
0.000619226
0.000611379
0.000603499
0.000595531
0.000587417
0.000579095
0.000570503
0.000561588
0.000552313
0.000542666
0.000532667
0.000522377
0.000511898
0.000501373
0.00049098
0.000480922
0.000471417
0.000462685
0.000454933
0.000448349
0.000443089
0.000439276
0.000436995
0.000436297
0.000437201
0.000439702
0.000443778
0.000449392
0.000456504
0.000465076
0.000475071
0.000486464
0.000499237
0.000513383
0.000528902
0.0005458
0.00056408
0.000583742
0.000604769
0.000627123
0.000650736
0.000675506
0.00070129
0.000727908
0.000755142
0.000782745
0.00081045
0.000837984
0.000865078
0.000891481
0.000916969
0.000941354
0.000964487
0.000986261
0.00100661
0.00102551
0.00104295
0.00105899
0.00107366
0.00108704
0.00109922
0.00111029
0.00112034
0.00112946
0.00113776
0.00114532
0.00115223
0.00115857
0.00116442
0.00116984
0.0011749
0.00117968
0.00118427
0.0011888
0.00119348
0.00119856
0.00120442
0.00121147
0.00122015
0.00123075
0.0012434
0.00125787
0.0012736
0.00128967
0.00130498
0.00131829
0.00132851
0.0013347
0.0013365
0.00133348
0.00132803
0.00131285
0.000843312
0.000834341
0.000825572
0.000817012
0.000808655
0.000800493
0.000792516
0.000784704
0.00077705
0.00076954
0.00076216
0.000754896
0.000747732
0.00074065
0.00073363
0.000726651
0.000719689
0.000712723
0.000705735
0.000698715
0.000691664
0.000684599
0.000677554
0.000670582
0.000663755
0.000657165
0.000650921
0.000645145
0.000639968
0.000635524
0.000631947
0.000629366
0.000627901
0.000627657
0.000628726
0.000631183
0.000635087
0.000640478
0.000647381
0.000655807
0.000665747
0.00067718
0.000690067
0.000704353
0.000719965
0.000736811
0.000754781
0.000773744
0.000793552
0.000814039
0.000835024
0.000856317
0.000877724
0.000899049
0.000920104
0.000940714
0.00096072
0.000979986
0.000998399
0.00101587
0.00103235
0.00104778
0.00106217
0.00107552
0.00108784
0.00109919
0.00110959
0.00111913
0.00112784
0.00113581
0.00114311
0.00114979
0.00115594
0.00116163
0.00116692
0.00117188
0.00117658
0.00118106
0.00118539
0.00118959
0.00119369
0.00119771
0.00120167
0.00120562
0.00120967
0.00121397
0.00121875
0.00122429
0.00123084
0.00123854
0.00124731
0.0012568
0.00126642
0.0012754
0.00128291
0.00128822
0.00129093
0.00129068
0.00128878
0.00128176
0.000962645
0.000954858
0.000947154
0.000939546
0.000932045
0.000924657
0.000917384
0.000910232
0.000903203
0.000896301
0.000889528
0.00088289
0.000876394
0.000870044
0.000863846
0.000857805
0.000851923
0.000846204
0.000840649
0.000835259
0.000830038
0.000824991
0.00082013
0.000815471
0.000811038
0.000806865
0.000802993
0.000799476
0.000796373
0.000793755
0.000791695
0.000790274
0.000789571
0.000789666
0.000790635
0.000792544
0.000795454
0.000799412
0.000804451
0.000810592
0.000817838
0.000826175
0.000835573
0.000845984
0.000857343
0.000869569
0.000882567
0.000896228
0.000910431
0.000925048
0.000939945
0.000954988
0.000970041
0.000984976
0.000999673
0.00101402
0.00102793
0.00104131
0.0010541
0.00106625
0.00107773
0.00108852
0.0010986
0.00110799
0.0011167
0.00112475
0.00113218
0.001139
0.00114528
0.00115104
0.00115634
0.00116121
0.00116573
0.00116993
0.00117388
0.00117763
0.00118125
0.00118479
0.00118832
0.00119188
0.00119552
0.00119925
0.00120309
0.001207
0.00121097
0.00121498
0.00121903
0.00122318
0.00122751
0.00123216
0.00123719
0.00124258
0.00124817
0.0012536
0.00125847
0.00126231
0.00126482
0.00126572
0.00126558
0.00126303
0.00104559
0.00103953
0.00103345
0.00102737
0.0010213
0.00101525
0.00100923
0.00100325
0.00099732
0.000991449
0.000985649
0.000979933
0.000974314
0.000968805
0.000963421
0.000958176
0.000953086
0.000948164
0.000943425
0.000938882
0.000934549
0.000930439
0.000926566
0.000922945
0.000919594
0.000916531
0.000913779
0.000911365
0.000909319
0.000907675
0.000906468
0.00090574
0.000905532
0.000905886
0.000906843
0.000908442
0.000910716
0.000913694
0.000917396
0.000921834
0.00092701
0.000932914
0.000939525
0.00094681
0.000954726
0.000963218
0.000972221
0.000981663
0.000991462
0.00100154
0.0010118
0.00102215
0.00103252
0.00104282
0.00105298
0.00106291
0.00107257
0.00108189
0.00109084
0.00109938
0.00110749
0.00111515
0.00112234
0.00112908
0.00113536
0.00114119
0.00114658
0.00115156
0.00115615
0.00116036
0.00116423
0.00116779
0.00117107
0.00117411
0.00117695
0.00117964
0.00118224
0.0011848
0.00118738
0.00119005
0.00119287
0.00119589
0.00119915
0.00120267
0.00120643
0.0012104
0.00121451
0.00121868
0.00122284
0.00122696
0.00123101
0.00123497
0.00123882
0.00124245
0.0012457
0.00124836
0.00125029
0.00125129
0.00125157
0.00125045
0.0010983
0.00109403
0.00108969
0.00108529
0.00108083
0.00107632
0.00107178
0.00106722
0.00106264
0.00105806
0.00105349
0.00104894
0.00104442
0.00103995
0.00103555
0.00103123
0.001027
0.0010229
0.00101892
0.00101509
0.00101143
0.00100796
0.00100468
0.00100163
0.000998808
0.000996243
0.000993951
0.000991949
0.000990259
0.000988901
0.000987897
0.000987269
0.000987038
0.000987228
0.00098786
0.000988952
0.000990522
0.000992583
0.000995145
0.000998212
0.00100178
0.00100584
0.00101039
0.00101539
0.00102082
0.00102664
0.00103281
0.00103929
0.00104602
0.00105295
0.00106003
0.00106719
0.00107438
0.00108155
0.00108865
0.00109562
0.00110244
0.00110906
0.00111545
0.00112159
0.00112744
0.00113301
0.00113827
0.00114323
0.00114786
0.00115219
0.0011562
0.00115991
0.00116333
0.00116646
0.00116932
0.00117192
0.0011743
0.00117646
0.00117845
0.00118029
0.00118202
0.0011837
0.00118537
0.00118709
0.00118894
0.00119097
0.00119326
0.00119587
0.00119881
0.00120212
0.00120575
0.00120965
0.0012137
0.00121781
0.00122183
0.00122567
0.00122923
0.00123241
0.00123514
0.0012373
0.00123883
0.0012396
0.00123975
0.00123855
0.00112883
0.00112608
0.00112325
0.00112033
0.00111733
0.00111426
0.00111112
0.00110792
0.00110468
0.00110139
0.00109806
0.00109471
0.00109135
0.00108799
0.00108464
0.00108132
0.00107804
0.00107481
0.00107166
0.00106859
0.00106562
0.00106278
0.00106007
0.00105752
0.00105514
0.00105294
0.00105095
0.00104918
0.00104765
0.00104638
0.00104537
0.00104465
0.00104423
0.00104412
0.00104434
0.00104491
0.00104582
0.00104708
0.00104871
0.00105069
0.00105304
0.00105573
0.00105877
0.00106213
0.0010658
0.00106976
0.00107397
0.00107841
0.00108304
0.00108783
0.00109275
0.00109775
0.00110281
0.00110787
0.00111292
0.00111791
0.00112282
0.00112763
0.00113229
0.00113681
0.00114114
0.00114529
0.00114924
0.00115297
0.00115649
0.00115978
0.00116284
0.00116566
0.00116826
0.00117063
0.00117278
0.00117472
0.00117645
0.00117798
0.00117935
0.00118056
0.00118164
0.00118263
0.00118356
0.00118449
0.00118546
0.00118655
0.00118781
0.00118932
0.00119115
0.00119334
0.00119592
0.00119888
0.00120217
0.0012057
0.00120934
0.00121295
0.00121637
0.00121946
0.00122209
0.00122414
0.00122554
0.00122619
0.00122621
0.00122478
0.0011449
0.00114325
0.00114152
0.00113972
0.00113784
0.00113589
0.00113388
0.00113179
0.00112965
0.00112745
0.0011252
0.00112291
0.00112059
0.00111823
0.00111586
0.00111347
0.00111109
0.00110872
0.00110638
0.00110407
0.00110181
0.00109961
0.0010975
0.00109547
0.00109355
0.00109175
0.00109009
0.00108858
0.00108723
0.00108606
0.00108508
0.00108431
0.00108375
0.00108343
0.00108334
0.0010835
0.00108391
0.00108458
0.00108552
0.00108672
0.00108818
0.0010899
0.00109188
0.00109409
0.00109654
0.00109921
0.00110207
0.00110512
0.00110833
0.00111167
0.00111512
0.00111866
0.00112227
0.00112592
0.00112957
0.00113323
0.00113684
0.00114041
0.0011439
0.00114731
0.00115061
0.00115378
0.00115682
0.00115971
0.00116245
0.00116502
0.00116741
0.00116962
0.00117165
0.0011735
0.00117515
0.00117662
0.0011779
0.001179
0.00117993
0.0011807
0.00118132
0.00118183
0.00118223
0.00118258
0.00118289
0.00118324
0.00118366
0.00118422
0.00118499
0.00118603
0.0011874
0.00118913
0.00119122
0.00119364
0.00119632
0.00119914
0.00120195
0.00120461
0.00120695
0.00120882
0.00121012
0.00121074
0.00121079
0.00120949
0.00115256
0.00115159
0.00115057
0.00114949
0.00114836
0.00114718
0.00114594
0.00114464
0.0011433
0.0011419
0.00114046
0.00113898
0.00113745
0.00113589
0.0011343
0.00113269
0.00113106
0.00112942
0.00112778
0.00112614
0.00112452
0.00112292
0.00112136
0.00111985
0.0011184
0.00111701
0.00111571
0.00111449
0.00111339
0.00111239
0.00111153
0.0011108
0.00111023
0.00110981
0.00110956
0.00110949
0.00110959
0.00110989
0.00111038
0.00111106
0.00111194
0.00111301
0.00111428
0.00111573
0.00111736
0.00111916
0.00112112
0.00112323
0.00112548
0.00112784
0.00113031
0.00113287
0.00113551
0.00113819
0.00114091
0.00114365
0.00114639
0.00114911
0.00115181
0.00115445
0.00115703
0.00115953
0.00116194
0.00116425
0.00116644
0.00116851
0.00117044
0.00117223
0.00117386
0.00117533
0.00117665
0.00117779
0.00117876
0.00117957
0.00118021
0.00118069
0.00118102
0.00118121
0.00118127
0.00118122