/*--------------------------------*- C++ -*----------------------------------*\
| =========                 |                                                 |
| \\      /  F ield         | OpenFOAM: The Open Source CFD Toolbox           |
|  \\    /   O peration     | Version:  2.1.1                                 |
|   \\  /    A nd           | Web:      www.OpenFOAM.org                      |
|    \\/     M anipulation  |                                                 |
\*---------------------------------------------------------------------------*/
FoamFile
{
    version     2.0;
    format      ascii;
    class       volScalarField;
    location    "0.17";
    object      p;
}
// * * * * * * * * * * * * * * * * * * * * * * * * * * * * * * * * * * * * * //

dimensions      [0 2 -2 0 0 0 0];

internalField   nonuniform List<scalar> 
6820
(
-10.2402
-12.0865
-12.6615
-12.7893
-12.8964
-12.9756
-13.0301
-13.0766
-13.1191
-13.1581
-13.1944
-13.2288
-13.2615
-13.2925
-13.3222
-13.3506
-13.3778
-13.404
-13.4292
-13.4535
-13.4771
-13.4999
-13.5221
-13.5436
-13.5644
-13.5844
-13.6033
-13.6208
-13.6357
-13.6471
-13.6505
-13.6401
-13.6026
-14.1927
-13.6581
-13.2356
-13.0456
-13.021
-13.0323
-13.0526
-13.0805
-13.1127
-13.1462
-13.1797
-13.2128
-13.2452
-13.2765
-13.3068
-13.3359
-13.364
-13.3909
-13.417
-13.4421
-13.4664
-13.4899
-13.5128
-13.535
-13.5565
-13.5773
-13.5974
-13.6166
-13.6346
-13.6529
-13.6699
-13.7077
-13.7582
-12.5502
-12.2464
-12.533
-12.7781
-12.8832
-12.9586
-13.0176
-13.0669
-13.111
-13.1511
-13.1882
-13.223
-13.2558
-13.2869
-13.3165
-13.3448
-13.3719
-13.3979
-13.423
-13.4473
-13.4709
-13.4937
-13.516
-13.5377
-13.5589
-13.5796
-13.5998
-13.6196
-13.639
-13.6591
-13.6805
-13.7094
-13.743
-13.0571
-13.0915
-13.0887
-13.0296
-13.0219
-13.0424
-13.0688
-13.0976
-13.1285
-13.1599
-13.1911
-13.2217
-13.2517
-13.281
-13.3093
-13.3368
-13.3635
-13.3894
-13.4145
-13.4388
-13.4626
-13.4857
-13.5083
-13.5305
-13.5522
-13.5736
-13.5947
-13.6159
-13.6372
-13.6602
-13.6854
-13.7198
-13.7607
-12.9017
-12.8017
-12.8459
-12.9119
-12.965
-13.0115
-13.0523
-13.0897
-13.1255
-13.1599
-13.1929
-13.2246
-13.2552
-13.2846
-13.3129
-13.3402
-13.3666
-13.3922
-13.4169
-13.4409
-13.4644
-13.4872
-13.5096
-13.5316
-13.5533
-13.5748
-13.5962
-13.6179
-13.6402
-13.6643
-13.691
-13.7236
-13.7612
-12.9568
-12.9402
-12.9653
-12.9884
-13.0108
-13.0401
-13.0717
-13.1034
-13.1351
-13.1666
-13.1973
-13.2272
-13.2564
-13.2846
-13.3121
-13.3387
-13.3645
-13.3896
-13.414
-13.4378
-13.4611
-13.4839
-13.5062
-13.5283
-13.5502
-13.572
-13.5938
-13.6162
-13.6393
-13.6642
-13.6914
-13.7229
-13.7581
-12.955
-12.9339
-12.9497
-12.9785
-13.0087
-13.0416
-13.0745
-13.1065
-13.1381
-13.1691
-13.1994
-13.2289
-13.2575
-13.2854
-13.3124
-13.3387
-13.3642
-13.389
-13.4131
-13.4367
-13.4598
-13.4825
-13.5048
-13.5268
-13.5487
-13.5706
-13.5927
-13.6154
-13.6388
-13.6638
-13.6907
-13.7205
-13.7527
-12.9691
-12.9614
-12.9767
-13.0013
-13.0265
-13.0547
-13.0843
-13.114
-13.1438
-13.1734
-13.2025
-13.2309
-13.2587
-13.2858
-13.3122
-13.3379
-13.363
-13.3874
-13.4112
-13.4346
-13.4574
-13.4799
-13.5021
-13.5241
-13.546
-13.568
-13.5902
-13.6129
-13.6364
-13.6611
-13.6873
-13.7155
-13.7452
-12.982
-12.9781
-12.9903
-13.0118
-13.0358
-13.0627
-13.091
-13.1197
-13.1484
-13.1769
-13.205
-13.2327
-13.2598
-13.2862
-13.3121
-13.3373
-13.3619
-13.3859
-13.4094
-13.4325
-13.4551
-13.4774
-13.4995
-13.5213
-13.5432
-13.5651
-13.5872
-13.6098
-13.6331
-13.6573
-13.6826
-13.7091
-13.7366
-12.9956
-12.9949
-13.0062
-13.0257
-13.0479
-13.0726
-13.0991
-13.1261
-13.1534
-13.1807
-13.2078
-13.2346
-13.2608
-13.2866
-13.3118
-13.3365
-13.3606
-13.3843
-13.4074
-13.4301
-13.4525
-13.4746
-13.4964
-13.5181
-13.5397
-13.5615
-13.5834
-13.6057
-13.6286
-13.6521
-13.6765
-13.7015
-13.727
-13.009
-13.0101
-13.0205
-13.0379
-13.0585
-13.0815
-13.1064
-13.1321
-13.1582
-13.1844
-13.2106
-13.2364
-13.2619
-13.287
-13.3116
-13.3357
-13.3593
-13.3825
-13.4053
-13.4277
-13.4497
-13.4715
-13.4931
-13.5145
-13.5359
-13.5574
-13.579
-13.6009
-13.6233
-13.6461
-13.6693
-13.693
-13.7168
-13.0223
-13.0242
-13.034
-13.0499
-13.069
-13.0905
-13.1139
-13.1382
-13.1631
-13.1882
-13.2133
-13.2383
-13.263
-13.2873
-13.3113
-13.3348
-13.358
-13.3807
-13.403
-13.425
-13.4467
-13.4682
-13.4894
-13.5106
-13.5317
-13.5528
-13.574
-13.5954
-13.6171
-13.6391
-13.6614
-13.6838
-13.7061
-13.035
-13.0375
-13.0467
-13.0613
-13.079
-13.0991
-13.121
-13.1441
-13.1678
-13.1918
-13.216
-13.2401
-13.264
-13.2876
-13.3109
-13.3339
-13.3565
-13.3787
-13.4007
-13.4222
-13.4436
-13.4646
-13.4855
-13.5063
-13.527
-13.5477
-13.5685
-13.5893
-13.6103
-13.6315
-13.6527
-13.6739
-13.695
-13.0473
-13.0499
-13.0586
-13.0721
-13.0885
-13.1073
-13.128
-13.1498
-13.1724
-13.1954
-13.2186
-13.2418
-13.2649
-13.2879
-13.3105
-13.3329
-13.355
-13.3767
-13.3981
-13.4193
-13.4402
-13.4609
-13.4813
-13.5017
-13.522
-13.5422
-13.5624
-13.5826
-13.6029
-13.6232
-13.6434
-13.6636
-13.6835
-13.0589
-13.0615
-13.0698
-13.0822
-13.0976
-13.1152
-13.1347
-13.1553
-13.1768
-13.1988
-13.2211
-13.2435
-13.2658
-13.288
-13.31
-13.3318
-13.3533
-13.3745
-13.3955
-13.4162
-13.4366
-13.4568
-13.4769
-13.4967
-13.5165
-13.5362
-13.5558
-13.5754
-13.5949
-13.6144
-13.6337
-13.6528
-13.6717
-13.0698
-13.0724
-13.0802
-13.0918
-13.1061
-13.1227
-13.141
-13.1606
-13.181
-13.2021
-13.2235
-13.245
-13.2666
-13.2881
-13.3094
-13.3306
-13.3515
-13.3722
-13.3926
-13.4128
-13.4328
-13.4525
-13.4721
-13.4915
-13.5107
-13.5298
-13.5488
-13.5677
-13.5865
-13.6051
-13.6235
-13.6417
-13.6595
-13.0801
-13.0825
-13.0899
-13.1007
-13.1141
-13.1296
-13.147
-13.1655
-13.185
-13.2051
-13.2257
-13.2464
-13.2672
-13.288
-13.3087
-13.3293
-13.3496
-13.3697
-13.3896
-13.4093
-13.4287
-13.448
-13.467
-13.4858
-13.5045
-13.523
-13.5414
-13.5596
-13.5776
-13.5953
-13.6129
-13.6301
-13.647
-13.0896
-13.0919
-13.0988
-13.1089
-13.1215
-13.1362
-13.1525
-13.1702
-13.1887
-13.208
-13.2276
-13.2476
-13.2677
-13.2878
-13.3078
-13.3277
-13.3475
-13.3671
-13.3864
-13.4055
-13.4245
-13.4432
-13.4616
-13.4799
-13.498
-13.5159
-13.5336
-13.551
-13.5683
-13.5852
-13.6019
-13.6183
-13.6343
-13.0983
-13.1005
-13.107
-13.1165
-13.1283
-13.1422
-13.1576
-13.1744
-13.1921
-13.2105
-13.2294
-13.2486
-13.2679
-13.2874
-13.3067
-13.3261
-13.3452
-13.3642
-13.383
-13.4016
-13.4199
-13.4381
-13.456
-13.4737
-13.4911
-13.5084
-13.5254
-13.5421
-13.5586
-13.5748
-13.5907
-13.6062
-13.6213
-13.1063
-13.1084
-13.1145
-13.1234
-13.1346
-13.1476
-13.1623
-13.1782
-13.1951
-13.2127
-13.2308
-13.2493
-13.268
-13.2867
-13.3055
-13.3242
-13.3427
-13.3611
-13.3794
-13.3974
-13.4152
-13.4327
-13.4501
-13.4672
-13.484
-13.5006
-13.5169
-13.5329
-13.5486
-13.564
-13.5791
-13.5938
-13.608
-13.1134
-13.1154
-13.1212
-13.1296
-13.1401
-13.1525
-13.1664
-13.1816
-13.1977
-13.2146
-13.232
-13.2497
-13.2677
-13.2858
-13.304
-13.322
-13.34
-13.3579
-13.3755
-13.393
-13.4102
-13.4272
-13.4439
-13.4604
-13.4766
-13.4925
-13.5081
-13.5234
-13.5384
-13.553
-13.5673
-13.5811
-13.5946
-13.1198
-13.1217
-13.1271
-13.1351
-13.145
-13.1567
-13.17
-13.1844
-13.1999
-13.216
-13.2327
-13.2498
-13.2672
-13.2847
-13.3022
-13.3197
-13.3371
-13.3543
-13.3714
-13.3883
-13.4049
-13.4213
-13.4374
-13.4533
-13.4688
-13.4841
-13.499
-13.5136
-13.5279
-13.5417
-13.5552
-13.5683
-13.581
-13.1253
-13.1271
-13.1322
-13.1398
-13.1492
-13.1603
-13.173
-13.1868
-13.2016
-13.2171
-13.2332
-13.2496
-13.2664
-13.2832
-13.3002
-13.3171
-13.3339
-13.3506
-13.3671
-13.3834
-13.3995
-13.4153
-13.4308
-13.446
-13.4609
-13.4755
-13.4897
-13.5036
-13.5172
-13.5303
-13.543
-13.5553
-13.5672
-13.1299
-13.1316
-13.1365
-13.1436
-13.1526
-13.1632
-13.1753
-13.1885
-13.2027
-13.2176
-13.2331
-13.249
-13.2651
-13.2814
-13.2978
-13.3142
-13.3304
-13.3465
-13.3625
-13.3782
-13.3937
-13.4089
-13.4238
-13.4384
-13.4527
-13.4667
-13.4802
-13.4934
-13.5062
-13.5187
-13.5306
-13.5422
-13.5533
-13.1336
-13.1353
-13.1399
-13.1467
-13.1553
-13.1654
-13.177
-13.1898
-13.2034
-13.2178
-13.2327
-13.2481
-13.2637
-13.2795
-13.2953
-13.3111
-13.3268
-13.3424
-13.3578
-13.373
-13.3879
-13.4025
-13.4168
-13.4308
-13.4445
-13.4577
-13.4706
-13.4832
-13.4953
-13.507
-13.5182
-13.5291
-13.5395
-13.1365
-13.138
-13.1424
-13.1488
-13.157
-13.1667
-13.1778
-13.19
-13.2032
-13.2171
-13.2315
-13.2464
-13.2615
-13.2768
-13.2921
-13.3074
-13.3226
-13.3377
-13.3526
-13.3672
-13.3816
-13.3957
-13.4094
-13.4228
-13.4359
-13.4485
-13.4608
-13.4726
-13.4841
-13.4951
-13.5057
-13.5158
-13.5255
-13.1383
-13.1398
-13.144
-13.1503
-13.1582
-13.1676
-13.1784
-13.1903
-13.2031
-13.2165
-13.2305
-13.245
-13.2596
-13.2744
-13.2893
-13.3041
-13.3188
-13.3333
-13.3477
-13.3618
-13.3756
-13.3891
-13.4022
-13.415
-13.4275
-13.4395
-13.4511
-13.4623
-13.4731
-13.4834
-13.4933
-13.5028
-13.5117
-13.1391
-13.1404
-13.1442
-13.15
-13.1575
-13.1665
-13.1768
-13.1883
-13.2007
-13.2139
-13.2276
-13.2416
-13.256
-13.2704
-13.2849
-13.2993
-13.3136
-13.3278
-13.3417
-13.3553
-13.3687
-13.3817
-13.3943
-13.4066
-13.4185
-13.4299
-13.441
-13.4516
-13.4618
-13.4715
-13.4807
-13.4895
-13.4978
-13.1391
-13.1407
-13.1447
-13.1507
-13.1581
-13.1671
-13.1773
-13.1886
-13.2007
-13.2135
-13.2268
-13.2405
-13.2543
-13.2683
-13.2823
-13.2962
-13.31
-13.3236
-13.337
-13.3501
-13.3629
-13.3753
-13.3874
-13.3991
-13.4103
-13.4212
-13.4316
-13.4416
-13.4511
-13.4602
-13.4688
-13.4769
-13.4845
-13.1374
-13.138
-13.1408
-13.1457
-13.1524
-13.1609
-13.1709
-13.1821
-13.1942
-13.207
-13.2203
-13.234
-13.2478
-13.2617
-13.2756
-13.2895
-13.3031
-13.3165
-13.3296
-13.3424
-13.3549
-13.367
-13.3787
-13.39
-13.4009
-13.4113
-13.4212
-13.4307
-13.4397
-13.4482
-13.4563
-13.4639
-13.4709
-13.1367
-13.1392
-13.1436
-13.1495
-13.1567
-13.1653
-13.175
-13.1858
-13.1974
-13.2096
-13.2223
-13.2353
-13.2484
-13.2617
-13.2749
-13.288
-13.301
-13.3137
-13.3262
-13.3384
-13.3502
-13.3617
-13.3727
-13.3834
-13.3936
-13.4033
-13.4127
-13.4215
-13.4299
-13.4378
-13.4452
-13.4521
-13.4585
-13.1288
-13.1267
-13.1269
-13.1306
-13.1371
-13.146
-13.1565
-13.1684
-13.1811
-13.1944
-13.2082
-13.2221
-13.2361
-13.25
-13.2638
-13.2774
-13.2907
-13.3037
-13.3164
-13.3286
-13.3405
-13.3519
-13.3628
-13.3733
-13.3833
-13.3929
-13.4019
-13.4104
-13.4184
-13.426
-13.433
-13.4395
-13.4455
-13.1364
-13.1429
-13.1486
-13.1535
-13.1592
-13.1664
-13.175
-13.1848
-13.1954
-13.2068
-13.2186
-13.2308
-13.2432
-13.2556
-13.268
-13.2803
-13.2924
-13.3043
-13.3159
-13.3272
-13.3381
-13.3487
-13.3588
-13.3685
-13.3777
-13.3865
-13.3948
-13.4026
-13.4099
-13.4168
-13.4231
-13.429
-13.4343
-13.1045
-13.0909
-13.086
-13.0911
-13.101
-13.1134
-13.1274
-13.1423
-13.1577
-13.1733
-13.1889
-13.2043
-13.2195
-13.2343
-13.2487
-13.2627
-13.2762
-13.2893
-13.3019
-13.314
-13.3255
-13.3366
-13.3471
-13.3571
-13.3665
-13.3754
-13.3837
-13.3915
-13.3988
-13.4055
-13.4117
-13.4174
-13.4225
-13.1582
-13.1786
-13.1829
-13.1783
-13.1757
-13.1778
-13.1829
-13.1898
-13.1982
-13.2076
-13.2179
-13.2287
-13.2398
-13.2511
-13.2625
-13.2738
-13.285
-13.296
-13.3067
-13.317
-13.3271
-13.3367
-13.346
-13.3548
-13.3631
-13.371
-13.3784
-13.3853
-13.3917
-13.3977
-13.4031
-13.408
-13.4125
-13.0354
-12.9859
-12.974
-12.9999
-13.0279
-13.0522
-13.0759
-13.0989
-13.1208
-13.1416
-13.1613
-13.18
-13.1978
-13.2146
-13.2306
-13.2459
-13.2603
-13.2741
-13.2871
-13.2995
-13.3112
-13.3223
-13.3327
-13.3425
-13.3516
-13.3602
-13.3681
-13.3754
-13.3822
-13.3884
-13.3939
-13.399
-13.4034
-13.2837
-13.3185
-13.2876
-13.245
-13.2162
-13.2051
-13.2022
-13.2028
-13.2065
-13.2125
-13.22
-13.2286
-13.2379
-13.2476
-13.2576
-13.2677
-13.2777
-13.2877
-13.2974
-13.3069
-13.3161
-13.3249
-13.3334
-13.3414
-13.349
-13.3562
-13.3629
-13.3691
-13.3748
-13.38
-13.3848
-13.3891
-13.3929
-12.7914
-12.6717
-12.734
-12.8355
-12.9094
-12.9612
-13.0047
-13.0429
-13.076
-13.1052
-13.1313
-13.1549
-13.1764
-13.1962
-13.2145
-13.2315
-13.2473
-13.262
-13.2758
-13.2887
-13.3007
-13.312
-13.3224
-13.3322
-13.3412
-13.3496
-13.3573
-13.3644
-13.3708
-13.3765
-13.3817
-13.3862
-13.3901
-14.0059
-13.667
-13.4032
-13.2861
-13.236
-13.2106
-13.1954
-13.1891
-13.1892
-13.1931
-13.1995
-13.2076
-13.2168
-13.2267
-13.237
-13.2474
-13.2578
-13.2681
-13.2782
-13.2881
-13.2975
-13.3066
-13.3153
-13.3235
-13.3313
-13.3385
-13.3453
-13.3516
-13.3573
-13.3625
-13.3673
-13.3715
-13.3752
-11.5023
-12.2089
-12.6134
-12.7658
-12.8704
-12.9527
-13.0121
-13.057
-13.0934
-13.1236
-13.1492
-13.1716
-13.1916
-13.2097
-13.2262
-13.2415
-13.2557
-13.2689
-13.2813
-13.2929
-13.3037
-13.3139
-13.3233
-13.3321
-13.3403
-13.3478
-13.3547
-13.361
-13.3667
-13.3718
-13.3764
-13.3804
-13.3838
-13.4913
-13.7382
-13.8711
-13.9609
-14.0251
-14.0712
-14.1066
-14.1411
-14.177
-14.2171
-14.2622
-14.3115
-14.3649
-14.4215
-14.48
-14.5394
-14.5983
-14.656
-14.7114
-14.7637
-14.8123
-14.8567
-14.8961
-14.9303
-14.9585
-14.9804
-14.9953
-15.0024
-15.0009
-14.9899
-14.9684
-14.9354
-14.8898
-14.8305
-14.7566
-14.6668
-14.5603
-14.4362
-14.2934
-14.1314
-13.9494
-13.747
-13.5236
-13.2789
-13.013
-12.7257
-12.4174
-12.0885
-11.7398
-11.3722
-10.9869
-10.5853
-10.1691
-9.74025
-9.30075
-8.85289
-8.39906
-7.94178
-7.4836
-7.02711
-6.57487
-6.12936
-5.69298
-5.26798
-4.8564
-4.4601
-4.08069
-3.71951
-3.37764
-3.0559
-2.75482
-2.4747
-2.21557
-1.97726
-1.7594
-1.56144
-1.38269
-1.22234
-1.07948
-0.953113
-0.842206
-0.745661
-0.66235
-0.591111
-0.530763
-0.480081
-0.437847
-0.402752
-0.373583
-0.348855
-0.327534
-0.307605
-0.288894
-0.267515
-0.246736
-0.215669
-0.190834
-0.134881
-0.115241
0.0052762
-14.082
-14.2192
-14.1598
-14.0916
-14.0646
-14.0476
-14.04
-14.051
-14.0755
-14.1137
-14.164
-14.2228
-14.2872
-14.3547
-14.4227
-14.4895
-14.5534
-14.6137
-14.6698
-14.7213
-14.7682
-14.8103
-14.8474
-14.8793
-14.9055
-14.9256
-14.9387
-14.9442
-14.9411
-14.9286
-14.9056
-14.8712
-14.8243
-14.7638
-14.6888
-14.5982
-14.491
-14.3664
-14.2235
-14.0616
-13.88
-13.6782
-13.4559
-13.2127
-12.9486
-12.6636
-12.3579
-12.0322
-11.6869
-11.3232
-10.9421
-10.5451
-10.1339
-9.71012
-9.27595
-8.83354
-8.38523
-7.93343
-7.48064
-7.02938
-6.58215
-6.1414
-5.70948
-5.28858
-4.88074
-4.48779
-4.1113
-3.75262
-3.41281
-3.09267
-2.79276
-2.51337
-2.25455
-2.01616
-1.79784
-1.59908
-1.41923
-1.25749
-1.11301
-0.984822
-0.871935
-0.773289
-0.687798
-0.614336
-0.55176
-0.49888
-0.454505
-0.417354
-0.386224
-0.359665
-0.336606
-0.315133
-0.294874
-0.272361
-0.249987
-0.21871
-0.191219
-0.138387
-0.110088
-0.00818528
-13.7963
-13.8047
-13.8266
-13.8767
-13.9324
-13.9788
-14.0192
-14.0521
-14.0892
-14.1279
-14.1699
-14.2156
-14.2654
-14.3185
-14.3742
-14.4313
-14.4888
-14.5457
-14.6009
-14.6533
-14.702
-14.7462
-14.7851
-14.8183
-14.8451
-14.865
-14.8774
-14.8817
-14.8771
-14.8629
-14.8383
-14.8022
-14.7538
-14.6919
-14.6157
-14.5242
-14.4163
-14.2913
-14.1482
-13.9865
-13.8055
-13.6046
-13.3835
-13.142
-12.88
-12.5974
-12.2947
-11.9722
-11.6307
-11.271
-10.8944
-10.5022
-10.0959
-9.67734
-9.24853
-8.81157
-8.36875
-7.92243
-7.47505
-7.0291
-6.58701
-6.1512
-5.72395
-5.30742
-4.90361
-4.5143
-4.14103
-3.78513
-3.44764
-3.12936
-2.83083
-2.55237
-2.29404
-2.05572
-1.83708
-1.63764
-1.45678
-1.29375
-1.14772
-1.01777
-0.902934
-0.802194
-0.7145
-0.638765
-0.573882
-0.518699
-0.472056
-0.432709
-0.399467
-0.370922
-0.34597
-0.322805
-0.300856
-0.277085
-0.253007
-0.221441
-0.191214
-0.14151
-0.10446
-0.021428
-13.8501
-13.9604
-14.0203
-14.038
-14.0452
-14.0499
-14.0552
-14.0656
-14.0817
-14.1117
-14.1499
-14.195
-14.2455
-14.2997
-14.3557
-14.4117
-14.4664
-14.5189
-14.5683
-14.6143
-14.6564
-14.6943
-14.7277
-14.7562
-14.7793
-14.7962
-14.8064
-14.8089
-14.8029
-14.7876
-14.7618
-14.7248
-14.6754
-14.6127
-14.5357
-14.4435
-14.3352
-14.2099
-14.0669
-13.9055
-13.7252
-13.5253
-13.3057
-13.0659
-12.806
-12.5261
-12.2263
-11.9072
-11.5694
-11.2139
-10.8417
-10.4542
-10.053
-9.63974
-9.2164
-8.78507
-8.34797
-7.90742
-7.4658
-7.02552
-6.58898
-6.15849
-5.73632
-5.32455
-4.92513
-4.53979
-4.17005
-3.81719
-3.48225
-3.16602
-2.86905
-2.59165
-2.33393
-2.09577
-1.8769
-1.67686
-1.49506
-1.33081
-1.18329
-1.05163
-0.934894
-0.832096
-0.742217
-0.664204
-0.596983
-0.539437
-0.490439
-0.448783
-0.413298
-0.382626
-0.355633
-0.33063
-0.30685
-0.281693
-0.255801
-0.223851
-0.190839
-0.144207
-0.0984863
-0.0342037
-13.8168
-13.864
-13.8807
-13.8953
-13.9212
-13.9509
-13.9808
-14.0127
-14.0542
-14.092
-14.1328
-14.1773
-14.2247
-14.2741
-14.3245
-14.3753
-14.4256
-14.4745
-14.5215
-14.5657
-14.6065
-14.6432
-14.6752
-14.7018
-14.7225
-14.7367
-14.7437
-14.743
-14.7337
-14.7151
-14.6863
-14.6465
-14.5947
-14.5299
-14.4512
-14.3577
-14.2484
-14.1226
-13.9794
-13.8182
-13.6384
-13.4395
-13.2212
-12.9833
-12.7256
-12.4483
-12.1515
-11.8359
-11.5021
-11.1508
-10.7834
-10.4009
-10.005
-9.59742
-9.17994
-8.75464
-8.32368
-7.88932
-7.45388
-7.0197
-6.5891
-6.16435
-5.74761
-5.34093
-4.94618
-4.56506
-4.19904
-3.84939
-3.51713
-3.20304
-2.9077
-2.63142
-2.37435
-2.1364
-1.91731
-1.71669
-1.53398
-1.36851
-1.21953
-1.08618
-0.967568
-0.862736
-0.770695
-0.690419
-0.620859
-0.560932
-0.509535
-0.465501
-0.42768
-0.394767
-0.365608
-0.338633
-0.312895
-0.286226
-0.25842
-0.225989
-0.19016
-0.146506
-0.0923247
-0.0463148
-13.8059
-13.8603
-13.9035
-13.9381
-13.9674
-13.9921
-14.0148
-14.0354
-14.0562
-14.0863
-14.1216
-14.1611
-14.2042
-14.25
-14.2974
-14.3453
-14.3925
-14.4382
-14.4815
-14.5218
-14.5585
-14.5911
-14.6191
-14.6419
-14.6592
-14.6702
-14.6744
-14.671
-14.6592
-14.6383
-14.6073
-14.5653
-14.5115
-14.4449
-14.3645
-14.2695
-14.1591
-14.0324
-13.8888
-13.7275
-13.548
-13.3499
-13.1329
-12.8966
-12.6411
-12.3664
-12.0728
-11.7607
-11.4309
-11.0842
-10.7216
-10.3445
-9.9542
-9.55251
-9.14122
-8.72229
-8.29784
-7.87003
-7.44112
-7.01336
-6.58899
-6.1702
-5.75909
-5.35764
-4.96767
-4.59084
-4.2286
-3.88218
-3.55261
-3.24068
-2.94696
-2.67182
-2.41539
-2.17763
-1.95834
-1.75713
-1.5735
-1.40681
-1.25635
-1.12131
-1.00082
-0.89395
-0.799745
-0.717206
-0.645308
-0.582992
-0.529179
-0.482733
-0.442522
-0.407292
-0.375874
-0.346822
-0.319016
-0.290725
-0.260915
-0.227905
-0.189251
-0.148445
-0.086142
-0.0575719
-13.7932
-13.8377
-13.8715
-13.8969
-13.9205
-13.9442
-13.9677
-13.998
-14.0294
-14.0633
-14.0999
-14.1391
-14.1807
-14.224
-14.2682
-14.3124
-14.3559
-14.3979
-14.4377
-14.4747
-14.5083
-14.538
-14.5631
-14.5831
-14.5975
-14.6055
-14.6067
-14.6002
-14.5854
-14.5614
-14.5275
-14.4829
-14.4266
-14.3577
-14.2754
-14.1789
-14.0672
-13.9397
-13.7956
-13.6343
-13.4552
-13.2579
-13.0421
-12.8076
-12.5543
-12.2824
-11.992
-11.6838
-11.3582
-11.0162
-10.6587
-10.2871
-9.90276
-9.50728
-9.10243
-8.69012
-8.27236
-7.85127
-7.429
-7.00772
-6.58962
-6.17681
-5.77131
-5.37507
-4.98985
-4.61727
-4.25876
-3.91555
-3.58865
-3.27885
-2.98675
-2.71272
-2.45693
-2.21937
-1.99986
-1.79807
-1.61352
-1.44562
-1.29368
-1.15693
-1.03455
-0.925633
-0.829253
-0.744439
-0.67019
-0.605472
-0.549226
-0.500345
-0.45771
-0.420118
-0.386381
-0.355178
-0.325225
-0.295223
-0.263341
-0.229665
-0.1882
-0.150083
-0.0801207
-0.0678308
-13.781
-13.8212
-13.856
-13.8859
-13.9142
-13.9417
-13.9691
-13.9932
-14.021
-14.0513
-14.0844
-14.1202
-14.1584
-14.1983
-14.239
-14.2799
-14.32
-14.3587
-14.3952
-14.4289
-14.4592
-14.4855
-14.5073
-14.524
-14.5351
-14.54
-14.538
-14.5285
-14.5108
-14.4841
-14.4476
-14.4004
-14.3418
-14.2708
-14.1867
-14.0886
-13.9757
-13.8473
-13.7027
-13.5412
-13.3625
-13.1661
-12.9516
-12.7189
-12.468
-12.1989
-11.9119
-11.6074
-11.2862
-10.949
-10.5968
-10.2308
-9.85241
-9.46316
-9.06475
-8.65903
-8.24793
-7.83349
-7.41779
-7.00293
-6.59101
-6.18409
-5.78414
-5.39303
-5.01249
-4.64412
-4.28931
-3.94927
-3.62501
-3.31734
-3.02685
-2.75393
-2.49879
-2.26144
-2.04173
-1.83936
-1.6539
-1.48479
-1.33138
-1.19294
-1.06866
-0.957692
-0.859129
-0.772027
-0.695412
-0.628275
-0.569578
-0.51824
-0.473157
-0.43317
-0.397075
-0.363673
-0.331522
-0.299749
-0.265754
-0.23134
-0.187112
-0.151496
-0.0744412
-0.0770089
-13.7689
-13.8052
-13.838
-13.8668
-13.8936
-13.9191
-13.9449
-13.9712
-13.9997
-14.0302
-14.0627
-14.0972
-14.1333
-14.1707
-14.2085
-14.2462
-14.2831
-14.3184
-14.3516
-14.382
-14.4091
-14.4323
-14.451
-14.4646
-14.4727
-14.4746
-14.4697
-14.4573
-14.4367
-14.4072
-14.368
-14.3184
-14.2575
-14.1844
-14.0985
-13.9989
-13.8848
-13.7556
-13.6105
-13.4491
-13.2709
-13.0753
-12.8622
-12.6314
-12.3828
-12.1166
-11.833
-11.5324
-11.2155
-10.8831
-10.5361
-10.1757
-9.80319
-9.42011
-9.02807
-8.62885
-8.22432
-7.81643
-7.40721
-6.99867
-6.59286
-6.19175
-5.79727
-5.41124
-5.03534
-4.67114
-4.31999
-3.98311
-3.6615
-3.35595
-3.06707
-2.79529
-2.5408
-2.30368
-2.08378
-1.88086
-1.69451
-1.5242
-1.36934
-1.22921
-1.10305
-0.990033
-0.889286
-0.799892
-0.720903
-0.651334
-0.590169
-0.536357
-0.488804
-0.4464
-0.407922
-0.372291
-0.337912
-0.304328
-0.268207
-0.232997
-0.186086
-0.15276
-0.0692575
-0.0850816
-13.7567
-13.7901
-13.8214
-13.85
-13.8772
-13.9037
-13.9295
-13.9559
-13.9833
-14.0122
-14.0427
-14.0748
-14.1083
-14.1428
-14.1776
-14.2121
-14.2458
-14.2779
-14.3079
-14.3351
-14.359
-14.379
-14.3945
-14.4051
-14.4101
-14.409
-14.4011
-14.3858
-14.3625
-14.3303
-14.2886
-14.2366
-14.1734
-14.0985
-14.0108
-13.9098
-13.7946
-13.6647
-13.5193
-13.3579
-13.1802
-12.9856
-12.7739
-12.545
-12.2988
-12.0354
-11.7552
-11.4585
-11.1459
-10.8182
-10.4764
-10.1215
-9.75485
-9.37785
-8.99209
-8.59929
-8.20123
-7.79982
-7.39698
-6.9947
-6.59491
-6.19956
-5.8105
-5.4295
-5.05821
-4.69814
-4.35066
-4.01693
-3.69796
-3.39454
-3.10729
-2.83665
-2.58285
-2.34597
-2.12592
-1.92246
-1.73524
-1.56376
-1.40746
-1.26566
-1.13763
-1.02257
-0.919646
-0.827962
-0.746595
-0.674589
-0.610948
-0.554649
-0.504614
-0.459777
-0.418901
-0.381022
-0.344404
-0.308986
-0.270746
-0.234694
-0.18521
-0.153937
-0.0646744
-0.0920661
-13.7444
-13.7754
-13.8051
-13.8329
-13.8594
-13.8852
-13.9107
-13.9365
-13.9632
-13.991
-14.0201
-14.0505
-14.0818
-14.1137
-14.1457
-14.1773
-14.2078
-14.2368
-14.2636
-14.2877
-14.3084
-14.3253
-14.3378
-14.3453
-14.3474
-14.3433
-14.3326
-14.3145
-14.2884
-14.2536
-14.2094
-14.155
-14.0898
-14.0129
-13.9237
-13.8213
-13.7051
-13.5745
-13.4288
-13.2676
-13.0903
-12.8967
-12.6865
-12.4595
-12.2157
-11.9552
-11.6784
-11.3855
-11.0772
-10.7542
-10.4175
-10.0681
-9.70715
-9.33616
-8.95662
-8.57014
-8.17849
-7.78347
-7.38696
-6.99085
-6.59703
-6.20738
-5.82369
-5.44769
-5.08098
-4.72504
-4.3812
-4.05062
-3.73429
-3.43302
-3.14742
-2.87794
-2.62485
-2.38824
-2.16805
-1.96409
-1.77602
-1.6034
-1.44567
-1.30222
-1.17233
-1.05524
-0.950146
-0.856175
-0.772433
-0.697989
-0.631868
-0.573078
-0.520553
-0.473275
-0.429995
-0.389859
-0.351001
-0.313738
-0.273402
-0.236466
-0.184538
-0.155061
-0.0607365
-0.0980042
-13.7319
-13.7609
-13.7891
-13.816
-13.8419
-13.8673
-13.8923
-13.9175
-13.9433
-13.9699
-13.9974
-14.0257
-14.0547
-14.084
-14.1133
-14.1419
-14.1695
-14.1954
-14.2191
-14.2401
-14.2577
-14.2716
-14.281
-14.2855
-14.2846
-14.2776
-14.264
-14.2432
-14.2144
-14.1771
-14.1304
-14.0738
-14.0065
-13.9278
-13.837
-13.7333
-13.6162
-13.4849
-13.339
-13.1779
-13.0013
-12.8087
-12.5999
-12.3749
-12.1335
-11.8759
-11.6024
-11.3133
-11.0093
-10.6909
-10.3593
-10.0152
-9.66
-9.29495
-8.92154
-8.54132
-8.15599
-7.7673
-7.37703
-6.98704
-6.59914
-6.21513
-5.83677
-5.46573
-5.10358
-4.75175
-4.41155
-4.08412
-3.77044
-3.47133
-3.18739
-2.9191
-2.66674
-2.43042
-2.21013
-2.00568
-1.81679
-1.64303
-1.48391
-1.33882
-1.20709
-1.08799
-0.980729
-0.88448
-0.798368
-0.721488
-0.652889
-0.591605
-0.536591
-0.48687
-0.441184
-0.39879
-0.357698
-0.318584
-0.276186
-0.238325
-0.184095
-0.156143
-0.0574347
-0.102952
-13.7192
-13.7465
-13.7732
-13.7991
-13.8242
-13.8488
-13.8731
-13.8975
-13.9222
-13.9475
-13.9734
-13.9998
-14.0267
-14.0536
-14.0802
-14.106
-14.1307
-14.1536
-14.1743
-14.1922
-14.2068
-14.2177
-14.2241
-14.2257
-14.2219
-14.212
-14.1956
-14.172
-14.1407
-14.1008
-14.0518
-13.993
-13.9237
-13.8433
-13.7509
-13.646
-13.5279
-13.3961
-13.25
-13.0891
-12.9131
-12.7215
-12.5142
-12.2911
-12.0521
-11.7974
-11.5272
-11.2419
-10.942
-10.6284
-10.3017
-9.96294
-9.61335
-9.25417
-8.88681
-8.51278
-8.1337
-7.75125
-7.36717
-6.98322
-6.60117
-6.22277
-5.8497
-5.48359
-5.12596
-4.77822
-4.44165
-4.11737
-3.80635
-3.5094
-3.22714
-2.96006
-2.70845
-2.47245
-2.25207
-2.04717
-1.85748
-1.68263
-1.52213
-1.37542
-1.24186
-1.12076
-1.01135
-0.91283
-0.824355
-0.745045
-0.673972
-0.6102
-0.552698
-0.500536
-0.45245
-0.407799
-0.364486
-0.32352
-0.279096
-0.240271
-0.183881
-0.157178
-0.0547272
-0.106977
-13.7063
-13.732
-13.7574
-13.7821
-13.8063
-13.8301
-13.8536
-13.877
-13.9006
-13.9246
-13.9488
-13.9734
-13.998
-14.0225
-14.0466
-14.0697
-14.0915
-14.1115
-14.1293
-14.1442
-14.1559
-14.1637
-14.1672
-14.1659
-14.1592
-14.1465
-14.1274
-14.1011
-14.0672
-14.0249
-13.9736
-13.9127
-13.8415
-13.7593
-13.6654
-13.5594
-13.4404
-13.3081
-13.1618
-13.0011
-12.8257
-12.6352
-12.4294
-12.2082
-11.9716
-11.7197
-11.4528
-11.1713
-10.8756
-10.5665
-10.2447
-9.91123
-9.5672
-9.21381
-8.85243
-8.48451
-8.11159
-7.73531
-7.35734
-6.97937
-6.60311
-6.23025
-5.86242
-5.5012
-5.14807
-4.8044
-4.47145
-4.15031
-3.84195
-3.54718
-3.26662
-3.00076
-2.74992
-2.51428
-2.29384
-2.08851
-1.89805
-1.72211
-1.56026
-1.41196
-1.27659
-1.1535
-1.04196
-0.941182
-0.850355
-0.768623
-0.695084
-0.628829
-0.568847
-0.51425
-0.463773
-0.416872
-0.371353
-0.328536
-0.282127
-0.242297
-0.183889
-0.158164
-0.0525595
-0.110162
-13.6932
-13.7175
-13.7415
-13.7651
-13.7883
-13.8111
-13.8336
-13.856
-13.8784
-13.9009
-13.9235
-13.9462
-13.9687
-13.9909
-14.0125
-14.033
-14.052
-14.0692
-14.0841
-14.0961
-14.1048
-14.1098
-14.1104
-14.1062
-14.0967
-14.0813
-14.0594
-14.0306
-13.9941
-13.9494
-13.8959
-13.8329
-13.7598
-13.6759
-13.5807
-13.4735
-13.3537
-13.2209
-13.0745
-12.914
-12.7392
-12.5498
-12.3455
-12.1262
-11.892
-11.643
-11.3793
-11.1015
-10.8099
-10.5053
-10.1884
-9.86011
-9.52155
-9.17388
-8.81839
-8.45649
-8.08966
-7.71947
-7.34753
-6.97547
-6.60494
-6.23756
-5.87492
-5.51855
-5.16988
-4.83026
-4.5009
-4.1829
-3.87721
-3.58461
-3.30576
-3.04115
-2.79111
-2.55583
-2.33537
-2.12963
-1.93843
-1.76144
-1.59826
-1.44838
-1.31123
-1.18618
-1.07251
-0.969492
-0.876325
-0.792184
-0.716188
-0.647462
-0.58501
-0.527989
-0.475133
-0.425993
-0.378287
-0.333623
-0.285271
-0.244399
-0.18411
-0.1591
-0.0508766
-0.112599
-13.6798
-13.7028
-13.7256
-13.748
-13.7701
-13.7918
-13.8133
-13.8345
-13.8556
-13.8767
-13.8977
-13.9185
-13.9389
-13.9589
-13.978
-13.9959
-14.0123
-14.0267
-14.0388
-14.048
-14.0538
-14.0559
-14.0537
-14.0467
-14.0344
-14.0163
-13.9918
-13.9604
-13.9215
-13.8744
-13.8187
-13.7537
-13.6788
-13.5933
-13.4967
-13.3884
-13.2679
-13.1346
-12.9881
-12.8279
-12.6538
-12.4654
-12.2626
-12.0453
-11.8134
-11.5671
-11.3067
-11.0325
-10.745
-10.4448
-10.1327
-9.80959
-9.47643
-9.13438
-8.7847
-8.42873
-8.06791
-7.70372
-7.33773
-6.9715
-6.60662
-6.24467
-5.88716
-5.53559
-5.19135
-4.85574
-4.52997
-4.2151
-3.91206
-3.62165
-3.34452
-3.08117
-2.83194
-2.59706
-2.37659
-2.17048
-1.97856
-1.80055
-1.63606
-1.48464
-1.34573
-1.21872
-1.10296
-0.997715
-0.902223
-0.815687
-0.73725
-0.666065
-0.601158
-0.541728
-0.486509
-0.435144
-0.385274
-0.338772
-0.288521
-0.246572
-0.184531
-0.159991
-0.049625
-0.114386
-13.6662
-13.6879
-13.7095
-13.7308
-13.7517
-13.7723
-13.7926
-13.8126
-13.8324
-13.852
-13.8713
-13.8902
-13.9087
-13.9264
-13.9431
-13.9586
-13.9724
-13.9841
-13.9934
-13.9998
-14.0029
-14.0022
-13.9972
-13.9875
-13.9725
-13.9517
-13.9246
-13.8907
-13.8494
-13.8001
-13.7422
-13.6752
-13.5985
-13.5115
-13.4136
-13.3043
-13.183
-13.0493
-12.9027
-12.7429
-12.5694
-12.3821
-12.1808
-11.9653
-11.7358
-11.4923
-11.2351
-10.9645
-10.681
-10.3852
-10.0778
-9.75972
-9.43187
-9.09536
-8.75139
-8.40126
-8.04634
-7.68807
-7.32794
-6.96746
-6.60816
-6.25156
-5.89913
-5.5523
-5.21244
-4.88082
-4.55861
-4.24684
-3.94645
-3.65823
-3.38283
-3.12075
-2.87236
-2.63789
-2.41745
-2.21099
-2.01838
-1.83937
-1.67361
-1.52066
-1.38002
-1.25109
-1.13325
-1.0258
-0.928004
-0.839091
-0.758231
-0.684605
-0.617261
-0.555438
-0.497877
-0.444305
-0.392299
-0.34397
-0.291864
-0.24881
-0.185138
-0.160847
-0.048752
-0.115624
-13.6524
-13.6729
-13.6933
-13.7133
-13.7331
-13.7526
-13.7716
-13.7904
-13.8088
-13.8268
-13.8445
-13.8616
-13.878
-13.8936
-13.908
-13.921
-13.9323
-13.9414
-13.9481
-13.9518
-13.9521
-13.9487
-13.941
-13.9286
-13.9109
-13.8875
-13.8579
-13.8216
-13.7779
-13.7264
-13.6665
-13.5976
-13.5192
-13.4307
-13.3315
-13.2212
-13.0992
-12.9651
-12.8185
-12.6589
-12.4862
-12.2999
-12.1001
-11.8866
-11.6594
-11.4186
-11.1646
-10.8975
-10.6179
-10.3264
-10.0237
-9.71054
-9.3879
-9.05684
-8.71849
-8.3741
-8.02499
-7.67253
-7.31817
-6.96335
-6.60954
-6.25821
-5.91079
-5.56866
-5.23314
-4.90546
-4.58677
-4.27809
-3.98035
-3.69431
-3.42064
-3.15984
-2.9123
-2.67827
-2.45787
-2.25109
-2.05782
-1.87784
-1.71084
-1.5564
-1.41404
-1.28322
-1.16333
-1.0537
-0.95362
-0.862352
-0.779089
-0.703043
-0.633283
-0.56909
-0.509212
-0.453454
-0.399341
-0.3492
-0.295287
-0.251104
-0.185911
-0.161676
-0.0482037
-0.116406
-13.6384
-13.6577
-13.6769
-13.6958
-13.7144
-13.7326
-13.7504
-13.7678
-13.7848
-13.8014
-13.8173
-13.8326
-13.8471
-13.8605
-13.8727
-13.8834
-13.8922
-13.8988
-13.9028
-13.9039
-13.9016
-13.8955
-13.8852
-13.8701
-13.8499
-13.824
-13.7919
-13.7531
-13.7072
-13.6535
-13.5916
-13.5209
-13.4408
-13.3508
-13.2505
-13.1392
-13.0166
-12.8822
-12.7355
-12.5763
-12.4042
-12.2191
-12.0207
-11.809
-11.5841
-11.3461
-11.0951
-10.8315
-10.5558
-10.2686
-9.97039
-9.66209
-9.34458
-9.01886
-8.68602
-8.34727
-8.00386
-7.65712
-7.30842
-6.95916
-6.61076
-6.26463
-5.92214
-5.58463
-5.25339
-4.92961
-4.61441
-4.3088
-4.01368
-3.72982
-3.45788
-3.19837
-2.9517
-2.71812
-2.49779
-2.29072
-2.09682
-1.9159
-1.74768
-1.59177
-1.44774
-1.31505
-1.19313
-1.08135
-0.979017
-0.88542
-0.79978
-0.721339
-0.649189
-0.582651
-0.520483
-0.462566
-0.406377
-0.354444
-0.298768
-0.253441
-0.186824
-0.162485
-0.0479241
-0.116824
-13.6242
-13.6424
-13.6603
-13.678
-13.6954
-13.7124
-13.729
-13.7451
-13.7606
-13.7756
-13.7899
-13.8034
-13.8159
-13.8273
-13.8373
-13.8457