/*--------------------------------*- C++ -*----------------------------------*\
| =========                 |                                                 |
| \\      /  F ield         | OpenFOAM: The Open Source CFD Toolbox           |
|  \\    /   O peration     | Version:  2.1.1                                 |
|   \\  /    A nd           | Web:      www.OpenFOAM.org                      |
|    \\/     M anipulation  |                                                 |
\*---------------------------------------------------------------------------*/
FoamFile
{
    version     2.0;
    format      ascii;
    class       surfaceScalarField;
    location    "0.17";
    object      phi;
}
// * * * * * * * * * * * * * * * * * * * * * * * * * * * * * * * * * * * * * //

dimensions      [0 3 -1 0 0 0 0];

internalField   nonuniform List<scalar> 
13452
(
6.89922e-05
-5.04983e-07
6.88133e-05
1.78904e-07
6.82017e-05
6.11684e-07
6.72538e-05
9.47826e-07
6.61767e-05
1.07709e-06
6.50846e-05
1.09217e-06
6.40191e-05
1.0655e-06
6.29976e-05
1.02151e-06
6.20284e-05
9.69159e-07
6.11151e-05
9.13355e-07
6.02585e-05
8.56512e-07
5.94585e-05
8.00081e-07
5.87135e-05
7.45009e-07
5.80215e-05
6.9196e-07
5.73801e-05
6.41383e-07
5.67866e-05
5.93561e-07
5.62379e-05
5.48649e-07
5.57312e-05
5.06705e-07
5.52635e-05
4.67716e-07
5.48319e-05
4.31619e-07
5.44335e-05
3.98321e-07
5.40658e-05
3.67719e-07
5.37261e-05
3.39719e-07
5.34119e-05
3.14256e-07
5.31205e-05
2.91333e-07
5.28494e-05
2.71075e-07
5.25956e-05
2.53831e-07
5.23551e-05
2.40486e-07
5.21224e-05
2.32683e-07
5.18869e-05
2.35511e-07
5.16299e-05
2.57047e-07
5.13018e-05
3.28113e-07
5.12084e-07
5.07897e-05
7.01649e-05
-2.25976e-07
7.00411e-05
3.02771e-07
7.01816e-05
4.71125e-07
7.05088e-05
6.20625e-07
7.08592e-05
7.26734e-07
7.11579e-05
7.93462e-07
7.13823e-05
8.4107e-07
7.15341e-05
8.69701e-07
7.16212e-05
8.82051e-07
7.16525e-05
8.821e-07
7.16362e-05
8.72796e-07
7.15798e-05
8.56468e-07
7.14899e-05
8.34923e-07
7.13722e-05
8.09628e-07
7.12319e-05
7.81761e-07
7.10732e-05
7.52261e-07
7.08999e-05
7.21878e-07
7.07154e-05
6.91204e-07
7.05224e-05
6.60699e-07
7.03233e-05
6.30719e-07
7.01201e-05
6.01538e-07
6.99145e-05
5.73377e-07
6.97078e-05
5.46421e-07
6.95012e-05
5.20849e-07
6.92956e-05
4.9688e-07
6.90919e-05
4.74792e-07
6.88906e-05
4.55104e-07
6.86927e-05
4.38456e-07
6.84987e-05
4.26648e-07
6.83136e-05
4.20597e-07
6.8143e-05
4.27618e-07
6.80341e-05
4.37109e-07
4.76082e-07
6.80701e-05
7.22816e-05
-5.10254e-08
7.23967e-05
1.87698e-07
7.25014e-05
3.66411e-07
7.25877e-05
5.34266e-07
7.26708e-05
6.43632e-07
7.27527e-05
7.1164e-07
7.28386e-05
7.55159e-07
7.2925e-05
7.83249e-07
7.3008e-05
7.99085e-07
7.30849e-05
8.05218e-07
7.31541e-05
8.03604e-07
7.32147e-05
7.95817e-07
7.32665e-05
7.83136e-07
7.33094e-05
7.6668e-07
7.33438e-05
7.47394e-07
7.337e-05
7.26068e-07
7.33885e-05
7.03357e-07
7.33999e-05
6.79799e-07
7.34048e-05
6.55831e-07
7.34037e-05
6.31809e-07
7.33972e-05
6.08023e-07
7.33859e-05
5.84721e-07
7.33702e-05
5.62122e-07
7.33506e-05
5.40448e-07
7.33275e-05
5.19953e-07
7.33014e-05
5.00947e-07
7.32725e-05
4.83935e-07
7.32415e-05
4.69467e-07
7.32092e-05
4.58919e-07
7.31773e-05
4.52525e-07
7.31499e-05
4.55067e-07
7.31296e-05
4.57376e-07
4.84167e-07
7.31215e-05
7.45185e-05
-4.28536e-08
7.4488e-05
2.18148e-07
7.44764e-05
3.78016e-07
7.45158e-05
4.94902e-07
7.45758e-05
5.83617e-07
7.46418e-05
6.45612e-07
7.47073e-05
6.89656e-07
7.47707e-05
7.1981e-07
7.48318e-05
7.3803e-07
7.48903e-05
7.46684e-07
7.49461e-05
7.47799e-07
7.4999e-05
7.42934e-07
7.50488e-05
7.33338e-07
7.50954e-05
7.20069e-07
7.51388e-05
7.04009e-07
7.5179e-05
6.85888e-07
7.5216e-05
6.66309e-07
7.52501e-05
6.45771e-07
7.52812e-05
6.24684e-07
7.53096e-05
6.03383e-07
7.53355e-05
5.8215e-07
7.5359e-05
5.61225e-07
7.53803e-05
5.40829e-07
7.53996e-05
5.21178e-07
7.5417e-05
5.02518e-07
7.54328e-05
4.8513e-07
7.54473e-05
4.69424e-07
7.5461e-05
4.55797e-07
7.54748e-05
4.45083e-07
7.54902e-05
4.37193e-07
7.55114e-05
4.33843e-07
7.55395e-05
4.29254e-07
4.27401e-07
7.55963e-05
7.66035e-05
9.47572e-09
7.66281e-05
1.93579e-07
7.66643e-05
3.41772e-07
7.67023e-05
4.56989e-07
7.67403e-05
5.45522e-07
7.67796e-05
6.06408e-07
7.68211e-05
6.48106e-07
7.68646e-05
6.76329e-07
7.69089e-05
6.93681e-07
7.69533e-05
7.02311e-07
7.69971e-05
7.03988e-07
7.704e-05
7.00084e-07
7.70816e-05
6.91723e-07
7.71218e-05
6.79867e-07
7.71605e-05
6.65323e-07
7.71976e-05
6.48768e-07
7.72331e-05
6.30765e-07
7.72671e-05
6.1178e-07
7.72996e-05
5.92198e-07
7.73306e-05
5.7234e-07
7.73603e-05
5.52472e-07
7.73887e-05
5.32826e-07
7.74159e-05
5.1361e-07
7.74421e-05
4.95028e-07
7.74673e-05
4.77295e-07
7.74918e-05
4.60642e-07
7.75159e-05
4.45366e-07
7.754e-05
4.31703e-07
7.7565e-05
4.20066e-07
7.7592e-05
4.10122e-07
7.76237e-05
4.02226e-07
7.76605e-05
3.92432e-07
3.81457e-07
7.77064e-05
7.88311e-05
2.42639e-08
7.88387e-05
1.86044e-07
7.88566e-05
3.23789e-07
7.88853e-05
4.28351e-07
7.89213e-05
5.09472e-07
7.89602e-05
5.67571e-07
7.89999e-05
6.08367e-07
7.90399e-05
6.3638e-07
7.90796e-05
6.53905e-07
7.9119e-05
6.62921e-07
7.91579e-05
6.65151e-07
7.9196e-05
6.61952e-07
7.92333e-05
6.54425e-07
7.92697e-05
6.43495e-07
7.9305e-05
6.29939e-07
7.93394e-05
6.14401e-07
7.93728e-05
5.97419e-07
7.94051e-05
5.79438e-07
7.94365e-05
5.60825e-07
7.94669e-05
5.41887e-07
7.94965e-05
5.22879e-07
7.95253e-05
5.04022e-07
7.95534e-05
4.8551e-07
7.95809e-05
4.67524e-07
7.9608e-05
4.50246e-07
7.96348e-05
4.33849e-07
7.96616e-05
4.18521e-07
7.9689e-05
4.04362e-07
7.97175e-05
3.91483e-07
7.97482e-05
3.79445e-07
7.97825e-05
3.67914e-07
7.98207e-05
3.54296e-07
3.37764e-07
7.98644e-05
8.10847e-05
3.81034e-08
8.10946e-05
1.76146e-07
8.11179e-05
3.00465e-07
8.11484e-05
3.97879e-07
8.11828e-05
4.75065e-07
8.12185e-05
5.31888e-07
8.12547e-05
5.72128e-07
8.12913e-05
5.99795e-07
8.13279e-05
6.17276e-07
8.13644e-05
6.26508e-07
8.14004e-05
6.29147e-07
8.14358e-05
6.26504e-07
8.14706e-05
6.19639e-07
8.15047e-05
6.09442e-07
8.15379e-05
5.96658e-07
8.15704e-05
5.81906e-07
8.16021e-05
5.65703e-07
8.16331e-05
5.48476e-07
8.16634e-05
5.3058e-07
8.16929e-05
5.12309e-07
8.17219e-05
4.93908e-07
8.17503e-05
4.75585e-07
8.17783e-05
4.57518e-07
8.1806e-05
4.39867e-07
8.18335e-05
4.22775e-07
8.18609e-05
4.06361e-07
8.18887e-05
3.90724e-07
8.19172e-05
3.75862e-07
8.1947e-05
3.61703e-07
8.19787e-05
3.47786e-07
8.2013e-05
3.3355e-07
8.20501e-05
3.17283e-07
2.98009e-07
8.20898e-05
8.341e-05
4.35933e-08
8.34199e-05
1.66298e-07
8.34406e-05
2.79774e-07
8.34679e-05
3.70535e-07
8.35001e-05
4.4294e-07
8.35345e-05
4.97406e-07
8.357e-05
5.36634e-07
8.36059e-05
5.63937e-07
8.36417e-05
5.81498e-07
8.36771e-05
5.91077e-07
8.3712e-05
5.94215e-07
8.37464e-05
5.9217e-07
8.378e-05
5.85968e-07
8.3813e-05
5.76472e-07
8.38453e-05
5.64402e-07
8.38768e-05
5.5036e-07
8.39077e-05
5.34844e-07
8.39379e-05
5.18271e-07
8.39675e-05
5.00982e-07
8.39965e-05
4.83261e-07
8.40251e-05
4.65343e-07
8.40532e-05
4.47423e-07
8.40811e-05
4.29666e-07
8.41088e-05
4.12206e-07
8.41364e-05
3.95154e-07
8.41642e-05
3.78583e-07
8.41924e-05
3.62526e-07
8.42213e-05
3.46915e-07
8.42514e-05
3.31586e-07
8.42831e-05
3.16106e-07
8.43167e-05
2.99908e-07
8.43522e-05
2.81861e-07
2.61191e-07
8.4389e-05
8.57963e-05
4.60193e-08
8.58061e-05
1.56534e-07
8.58262e-05
2.59685e-07
8.58527e-05
3.43969e-07
8.58838e-05
4.11861e-07
8.59173e-05
4.6394e-07
8.59518e-05
5.02062e-07
8.59869e-05
5.28889e-07
8.6022e-05
5.46405e-07
8.60568e-05
5.56234e-07
8.60912e-05
5.59809e-07
8.61251e-05
5.58321e-07
8.61583e-05
5.52752e-07
8.61908e-05
5.43928e-07
8.62227e-05
5.32544e-07
8.62539e-05
5.19178e-07
8.62844e-05
5.04312e-07
8.63143e-05
4.88347e-07
8.63437e-05
4.71616e-07
8.63726e-05
4.54391e-07
8.6401e-05
4.36896e-07
8.64291e-05
4.19315e-07
8.6457e-05
4.01797e-07
8.64847e-05
3.84456e-07
8.65125e-05
3.67376e-07
8.65405e-05
3.50595e-07
8.65689e-05
3.34101e-07
8.65981e-05
3.17795e-07
8.66282e-05
3.01479e-07
8.66595e-05
2.84781e-07
8.66922e-05
2.67217e-07
8.6726e-05
2.48049e-07
2.26761e-07
8.67604e-05
8.825e-05
4.59759e-08
8.826e-05
1.46588e-07
8.82791e-05
2.40558e-07
8.83043e-05
3.18756e-07
8.83339e-05
3.82245e-07
8.83662e-05
4.31647e-07
8.84e-05
4.68329e-07
8.84344e-05
4.94431e-07
8.84691e-05
5.11724e-07
8.85037e-05
5.21679e-07
8.85379e-05
5.25605e-07
8.85716e-05
5.24613e-07
8.86047e-05
5.19631e-07
8.86372e-05
5.11444e-07
8.8669e-05
5.00714e-07
8.87002e-05
4.87996e-07
8.87308e-05
4.73755e-07
8.87607e-05
4.58375e-07
8.87902e-05
4.42175e-07
8.88191e-05
4.25419e-07
8.88477e-05
4.08319e-07
8.8876e-05
3.91048e-07
8.8904e-05
3.73739e-07
8.8932e-05
3.56492e-07
8.896e-05
3.39366e-07
8.89882e-05
3.22379e-07
8.90168e-05
3.05495e-07
8.9046e-05
2.88604e-07
8.9076e-05
2.71515e-07
8.91068e-05
2.53925e-07
8.91386e-05
2.3546e-07
8.9171e-05
2.15647e-07
1.94182e-07
8.92036e-05
9.07727e-05
4.45547e-08
9.07826e-05
1.36672e-07
9.08009e-05
2.22333e-07
9.0825e-05
2.9465e-07
9.08534e-05
3.53812e-07
9.08847e-05
4.00391e-07
9.09176e-05
4.35426e-07
9.09514e-05
4.60617e-07
9.09856e-05
4.77515e-07
9.10198e-05
4.87443e-07
9.10538e-05
4.91593e-07
9.10875e-05
4.90994e-07
9.11206e-05
4.86516e-07
9.11531e-05
4.78899e-07
9.11851e-05
4.68771e-07
9.12164e-05
4.5666e-07
9.12471e-05
4.43009e-07
9.12773e-05
4.28185e-07
9.1307e-05
4.12495e-07
9.13362e-05
3.96188e-07
9.13651e-05
3.79467e-07
9.13937e-05
3.62491e-07
9.1422e-05
3.45384e-07
9.14503e-05
3.2823e-07
9.14786e-05
3.11075e-07
9.1507e-05
2.93923e-07
9.15358e-05
2.7673e-07
9.1565e-05
2.59391e-07
9.15948e-05
2.41742e-07
9.16251e-05
2.23551e-07
9.16561e-05
2.04548e-07
9.16873e-05
1.84438e-07
1.63068e-07
9.17184e-05
9.33669e-05
4.23008e-08
9.33768e-05
1.26807e-07
9.33942e-05
2.04927e-07
9.34172e-05
2.71608e-07
9.34445e-05
3.26548e-07
9.34747e-05
3.70208e-07
9.35067e-05
4.03402e-07
9.35398e-05
4.27491e-07
9.35735e-05
4.43813e-07
9.36074e-05
4.53557e-07
9.36412e-05
4.57796e-07
9.36747e-05
4.57477e-07
9.37078e-05
4.53408e-07
9.37404e-05
4.46282e-07
9.37725e-05
4.36691e-07
9.3804e-05
4.25133e-07
9.3835e-05
4.12028e-07
9.38655e-05
3.97727e-07
9.38955e-05
3.82519e-07
9.3925e-05
3.66641e-07
9.39542e-05
3.50284e-07
9.39831e-05
3.33599e-07
9.40118e-05
3.16696e-07
9.40404e-05
2.9965e-07
9.40689e-05
2.825e-07
9.40976e-05
2.65244e-07
9.41265e-05
2.4784e-07
9.41557e-05
2.30198e-07
9.41852e-05
2.1219e-07
9.42151e-05
1.93645e-07
9.42453e-05
1.74382e-07
9.42755e-05
1.54227e-07
1.33126e-07
9.43055e-05
9.60348e-05
3.95957e-08
9.60445e-05
1.17082e-07
9.60612e-05
1.88287e-07
9.60832e-05
2.49557e-07
9.61094e-05
3.00361e-07
9.61386e-05
3.41038e-07
9.61697e-05
3.72244e-07
9.62021e-05
3.95069e-07
9.62353e-05
4.1066e-07
9.62688e-05
4.20072e-07
9.63023e-05
4.24269e-07
9.63357e-05
4.24113e-07
9.63687e-05
4.20354e-07
9.64014e-05
4.13634e-07
9.64336e-05
4.04507e-07
9.64652e-05
3.93443e-07
9.64964e-05
3.80836e-07
9.65272e-05
3.67017e-07
9.65574e-05
3.52261e-07
9.65873e-05
3.36791e-07
9.66168e-05
3.20787e-07
9.6646e-05
3.04389e-07
9.6675e-05
2.877e-07
9.67038e-05
2.70788e-07
9.67326e-05
2.53688e-07
9.67615e-05
2.36398e-07
9.67904e-05
2.18885e-07
9.68196e-05
2.0108e-07
9.68489e-05
1.82889e-07
9.68783e-05
1.64196e-07
9.69078e-05
1.44889e-07
9.69372e-05
1.24873e-07
1.04156e-07
9.69661e-05
9.87787e-05
3.6667e-08
9.87882e-05
1.07547e-07
9.88041e-05
1.72346e-07
9.88253e-05
2.28423e-07
9.88504e-05
2.75179e-07
9.88786e-05
3.12842e-07
9.89089e-05
3.41944e-07
9.89406e-05
3.63365e-07
9.89732e-05
3.78082e-07
9.90063e-05
3.87024e-07
9.90395e-05
3.91053e-07
9.90727e-05
3.9095e-07
9.91056e-05
3.87402e-07
9.91382e-05
3.81004e-07
9.91705e-05
3.7227e-07
9.92023e-05
3.61638e-07
9.92336e-05
3.49479e-07
9.92645e-05
3.36103e-07
9.9295e-05
3.2177e-07
9.93251e-05
3.06688e-07
9.93549e-05
2.91027e-07
9.93844e-05
2.74919e-07
9.94136e-05
2.58459e-07
9.94427e-05
2.41712e-07
9.94717e-05
2.24711e-07
9.95006e-05
2.07462e-07
9.95295e-05
1.89941e-07
9.95585e-05
1.72101e-07
9.95875e-05
1.53881e-07
9.96165e-05
1.35208e-07
9.96454e-05
1.16022e-07
9.9674e-05
9.62804e-08
7.60269e-08
9.97021e-05
0.000101601
3.36544e-08
0.00010161
9.82434e-08
0.000101625
1.57049e-07
0.000101646
2.08137e-07
0.00010167
2.5093e-07
0.000101697
2.85565e-07
0.000101727
3.12474e-07
0.000101758
3.32373e-07
0.00010179
3.46089e-07
0.000101822
3.54437e-07
0.000101855
3.58182e-07
0.000101888
3.58027e-07
0.000101921
3.54597e-07
0.000101953
3.48439e-07
0.000101986
3.40028e-07
0.000102017
3.29771e-07
0.000102049
3.18012e-07
0.00010208
3.05043e-07
0.000102111
2.91105e-07
0.000102141
2.76396e-07
0.000102171
2.61073e-07
0.000102201
2.45261e-07
0.00010223
2.29051e-07
0.000102259
2.12505e-07
0.000102288
1.95658e-07
0.000102317
1.78523e-07
0.000102346
1.61089e-07
0.000102375
1.43331e-07
0.000102403
1.25213e-07
0.000102432
1.06698e-07
0.00010246
8.77607e-08
0.000102488
6.8395e-08
4.86636e-08
0.000102516
0.000104503
3.06395e-08
0.000104512
8.91973e-08
0.000104527
1.42345e-07
0.000104547
1.88633e-07
0.00010457
2.27546e-07
0.000104596
2.59152e-07
0.000104625
2.83801e-07
0.000104655
3.02078e-07
0.000104687
3.14683e-07
0.000104719
3.22324e-07
0.000104751
3.25677e-07
0.000104784
3.25371e-07
0.000104817
3.21972e-07
0.000104849
3.15979e-07
0.000104881
3.07826e-07
0.000104913
2.9789e-07
0.000104945
2.86489e-07
0.000104976
2.73894e-07
0.000105007
2.60329e-07
0.000105037
2.4598e-07
0.000105067
2.30995e-07
0.000105097
2.15492e-07
0.000105126
1.99556e-07
0.000105156
1.83251e-07
0.000105185
1.66615e-07
0.000105214
1.49667e-07
0.000105242
1.3241e-07
0.000105271
1.14836e-07
0.000105299
9.69316e-08
0.000105327
7.86866e-08
0.000105355
6.01009e-08
0.000105382
4.11898e-08
2.20257e-08
0.000105409
0.000107489
2.76682e-08
0.000107498
8.04206e-08
0.000107512
1.28186e-07
0.000107531
1.69848e-07
0.000107553
2.04961e-07
0.000107579
2.33546e-07
0.000107607
2.55885e-07
0.000107636
2.72458e-07
0.000107667
2.83855e-07
0.000107699
2.90688e-07
0.000107731
2.93552e-07
0.000107763
2.93006e-07
0.000107796
2.89557e-07
0.000107828
2.83658e-07
0.00010786
2.75703e-07
0.000107892
2.66038e-07
0.000107924
2.54956e-07
0.000107955
2.42707e-07
0.000107986
2.29499e-07
0.000108016
2.15504e-07
0.000108046
2.00862e-07
0.000108076
1.85684e-07
0.000108106
1.70053e-07
0.000108135
1.54031e-07
0.000108164
1.37662e-07
0.000108192
1.20972e-07
0.000108221
1.03974e-07
0.000108249
8.66761e-08
0.000108277
6.90825e-08
0.000108304
5.12011e-08
0.000108331
3.30495e-08
0.000108358
1.46564e-08
-3.90231e-09
0.000108384
0.00011056
2.47644e-08
0.000110568
7.19151e-08
0.000110582
1.1453e-07
0.0001106
1.51722e-07
0.000110622
1.83111e-07
0.000110647
2.08691e-07
0.000110674
2.28683e-07
0.000110703
2.43484e-07
0.000110733
2.5359e-07
0.000110764
2.59526e-07
0.000110796
2.61814e-07
0.000110828
2.60945e-07
0.00011086
2.57373e-07
0.000110893
2.51502e-07
0.000110925
2.43692e-07
0.000110956
2.34255e-07
0.000110988
2.23458e-07
0.000111019
2.11532e-07
0.00011105
1.98669e-07
0.00011108
1.85027e-07
0.00011111
1.70738e-07
0.00011114
1.55906e-07
0.00011117
1.40612e-07
0.000111199
1.2492e-07
0.000111228
1.08874e-07
0.000111256
9.25081e-08
0.000111284
7.58462e-08
0.000111312
5.89066e-08
0.000111339
4.17071e-08
0.000111366
2.42687e-08
0.000111393
6.62057e-09
0.000111418
-1.12011e-08
-2.91203e-08
0.000111444
0.000113718
2.19387e-08
0.000113727
6.36746e-08
0.00011374
1.01337e-07
0.000113757
1.34198e-07
0.000113778
1.61938e-07
0.000113803
1.8453e-07
0.000113829
2.02149e-07
0.000113858
2.15122e-07
0.000113887
2.23865e-07
0.000113918
2.28828e-07
0.000113949
2.30461e-07
0.000113981
2.29196e-07
0.000114013
2.25434e-07
0.000114045
2.19536e-07
0.000114077
2.11822e-07
0.000114108
2.02574e-07
0.00011414
1.92036e-07
0.000114171
1.80416e-07
0.000114202
1.6789e-07
0.000114232
1.54605e-07
0.000114262
1.40682e-07
0.000114292
1.26221e-07
0.000114321
1.11301e-07
0.00011435
9.59828e-08
0.000114379
8.03163e-08
0.000114407
6.43396e-08
0.000114435
4.80838e-08
0.000114462
3.15765e-08
0.000114489
1.48446e-08
0.000114515
-2.08164e-09
0.000114541
-1.91665e-08
0.000114566
-3.63695e-08
-5.36167e-08
0.000114591
0.000116967
1.91939e-08
0.000116975
5.56875e-08
0.000116988
8.85682e-08
0.000117005
1.17223e-07
0.000117025
1.41381e-07
0.000117049
1.61006e-07
0.000117075
1.76234e-07
0.000117103
1.87334e-07
0.000117132
1.94654e-07
0.000117162
1.98575e-07
0.000117193
1.99485e-07
0.000117224
1.9776e-07
0.000117256
1.93751e-07
0.000117288
1.87774e-07
0.00011732
1.80115e-07
0.000117351
1.71026e-07
0.000117382
1.60724e-07
0.000117414
1.49398e-07
0.000117444
1.37208e-07
0.000117475
1.24288e-07
0.000117504
1.1075e-07
0.000117534
9.66888e-08
0.000117563
8.21788e-08
0.000117592
6.72821e-08
0.00011762
5.20494e-08
0.000117648
3.65227e-08
0.000117675
2.07386e-08
0.000117702
4.73069e-09
0.000117728
-1.14675e-08
0.000117754
-2.78204e-08
0.000117779
-4.42883e-08
0.000117804
-6.08294e-08
-7.73726e-08
0.000117827
0.000120309
1.65282e-08
0.000120316
4.79383e-08
0.000120329
7.61857e-08
0.000120345
1.00744e-07
0.000120365
1.21384e-07
0.000120388
1.38062e-07
0.000120414
1.50887e-07
0.000120441
1.60076e-07
0.00012047
1.65922e-07
0.000120499
1.68743e-07
0.00012053
1.68872e-07
0.000120561
1.66632e-07
0.000120593
1.62324e-07
0.000120624
1.56227e-07
0.000120656
1.4859e-07
0.000120687
1.39634e-07
0.000120718
1.29554e-07
0.000120749
1.18516e-07
0.00012078
1.06664e-07
0.00012081
9.41221e-08
0.00012084
8.09922e-08
0.000120869
6.73611e-08
0.000120898
5.3301e-08
0.000120926
3.88725e-08
0.000120954
2.41269e-08
0.000120982
9.10856e-09
0.000121008
-6.14261e-09
0.000121035
-2.1589e-08
0.00012106
-3.71933e-08
0.000121086
-5.29169e-08
0.00012111
-6.87184e-08
0.000121134
-8.45562e-08
-1.00363e-07
0.000121157
0.000123746
1.39373e-08
0.000123753
4.04094e-08
0.000123765
6.41539e-08
0.000123781
8.47129e-08
0.000123801
1.01889e-07
0.000123823
1.15641e-07
0.000123848
1.26052e-07
0.000123875
1.33301e-07
0.000123903
1.37629e-07
0.000123933
1.39303e-07
0.000123963
1.386e-07
0.000123994
1.35797e-07
0.000124025
1.31151e-07
0.000124056
1.24898e-07
0.000124088
1.17257e-07
0.000124119
1.08417e-07
0.00012415
9.85483e-08
0.000124181
8.77984e-08
0.000124211
7.62952e-08
0.000124241
6.41483e-08
0.00012427
5.14516e-08
0.000124299
3.82848e-08
0.000124328
2.47157e-08
0.000124356
1.08027e-08
0.000124384
-3.40328e-09
0.000124411
-1.78571e-08
0.000124437
-3.25173e-08
0.000124463
-4.7344e-08
0.000124488
-6.22984e-08
0.000124512
-7.73405e-08
0.000124536
-9.2429e-08
0.000124559
-1.07523e-07
-1.22561e-07
0.000124581
0.000127281
1.14155e-08
0.000127288
3.30812e-08
0.0001273
5.24362e-08
0.000127316
6.90776e-08
0.000127335
8.28376e-08
0.000127357
9.36789e-08
0.000127381
1.01668e-07
0.000127407
1.06952e-07
0.000127435
1.0973e-07
0.000127464
1.10214e-07
0.000127494
1.0864e-07
0.000127525
1.05237e-07
0.000127556
1.00219e-07
0.000127587
9.37851e-08
0.000127618
8.61205e-08
0.000127649
7.73867e-08
0.00012768
6.77277e-08
0.000127711
5.72721e-08
0.000127741
4.61309e-08
0.00012777
3.44014e-08
0.0001278
2.21673e-08
0.000127829
9.50109e-09
0.000127857
-3.5344e-09
0.000127884
-1.68841e-08
0.000127912
-3.04987e-08
0.000127938
-4.43336e-08
0.000127964
-5.8347e-08
0.000127989
-7.24989e-08
0.000128013
-8.675e-08
0.000128037
-1.01061e-07
0.00012806
-1.15391e-07
0.000128082
-1.29702e-07
-1.43934e-07
0.000128104
0.000130917
8.95803e-09
0.000130924
2.5938e-08
0.000130936
4.10033e-08
0.000130951
5.37964e-08
0.00013097
6.41775e-08
0.000130991
7.21185e-08
0.000131015
7.76765e-08
0.000131041
8.09715e-08
0.000131069
8.21676e-08
0.000131098
8.14256e-08
0.000131127
7.89448e-08
0.000131158
7.49128e-08
0.000131188
6.95008e-08
0.000131219
6.28683e-08
0.00013125
5.51718e-08
0.000131281
4.65417e-08
0.000131312
3.70983e-08
0.000131342
2.695e-08
0.000131372
1.61911e-08
0.000131402
4.90609e-09
0.000131431
-6.83142e-09
0.000131459
-1.89574e-08
0.000131487
-3.14147e-08
0.000131514
-4.41523e-08
0.000131541
-5.71235e-08
0.000131567
-7.02856e-08
0.000131592
-8.3598e-08
0.000131617
-9.70215e-08
0.00013164
-1.10518e-07
0.000131663
-1.24049e-07
0.000131685
-1.37576e-07
0.000131707
-1.51064e-07
-1.64457e-07
0.000131727
0.000134658
6.55418e-09
0.000134665
1.8953e-08
0.000134676
2.98098e-08
0.000134691
3.88065e-08
0.000134709
4.58345e-08
0.00013473
5.08803e-08
0.000134754
5.39973e-08
0.00013478
5.52847e-08
0.000134807
5.48831e-08
0.000134835
5.28899e-08
0.000134865
4.94795e-08
0.000134895
4.47977e-08
0.000134926
3.89743e-08
0.000134956
3.21336e-08
0.000134987
2.44073e-08
0.000135018
1.58842e-08
0.000135048
6.66754e-09
0.000135078
-3.15413e-09
0.000135108
-1.3507e-08
0.000135137
-2.43158e-08
0.000135166
-3.55201e-08
0.000135194
-4.70638e-08
0.000135221
-5.88967e-08
0.000135248
-7.09724e-08
0.000135274
-8.32484e-08
0.0001353
-9.56845e-08
0.000135324
-1.08242e-07
0.000135348
-1.20885e-07
0.000135371
-1.33576e-07
0.000135394
-1.46279e-07
0.000135415
-1.58958e-07
0.000135436
-1.71581e-07
-1.84095e-07
0.000135455
0.000138505
4.21787e-09
0.000138511
1.21435e-08
0.000138522
1.88668e-08
0.000138537
2.41014e-08
0.000138555
2.77774e-08
0.000138576
2.9909e-08
0.000138599
3.05557e-08
0.000138625
2.98085e-08
0.000138652
2.77772e-08
0.00013868
2.44862e-08
0.00013871
2.01377e-08
0.00013874
1.48055e-08
0.00013877
8.57386e-09
0.000138801
1.51119e-09
0.000138831
-6.22205e-09
0.000138862
-1.46196e-08
0.000138892
-2.35857e-08
0.000138922
-3.30546e-08
0.000138952
-4.29649e-08
0.000138981
-5.32592e-08
0.000139009
-6.38871e-08
0.000139037
-7.4802e-08
0.000139064
-8.59606e-08
0.00013909
-9.73226e-08
0.000139116
-1.0885e-07
0.00013914
-1.20506e-07
0.000139164
-1.32256e-07
0.000139188
-1.44065e-07
0.00013921
-1.559e-07
0.000139231
-1.67727e-07
0.000139252
-1.79514e-07
0.000139272
-1.91231e-07
-2.0283e-07
0.00013929
0.000142462
1.88109e-09
0.000142468
5.41142e-09
0.000142479
8.05284e-09
0.000142494
9.55337e-09
0.000142512
9.88776e-09
0.000142532
9.10193e-09
0.000142556
7.25887e-09
0.000142581
4.46109e-09
0.000142608
8.89171e-10
0.000142636
-3.76874e-09
0.000142665
-9.08149e-09
0.000142695
-1.5087e-08
0.000142726
-2.17304e-08
0.000142756
-2.89634e-08
0.000142787
-3.67235e-08
0.000142817
-4.49767e-08
0.000142847
-5.36684e-08
0.000142877
-6.27516e-08
0.000142906
-7.21832e-08
0.000142935
-8.19218e-08
0.000142963
-9.19283e-08
0.00014299
-1.02166e-07
0.000143017
-1.12599e-07
0.000143042
-1.23194e-07
0.000143068
-1.33918e-07
0.000143092
-1.4474e-07
0.000143115
-1.55628e-07
0.000143138
-1.6655e-07
0.000143159
-1.77478e-07
0.00014318
-1.88381e-07
0.0001432
-1.99228e-07
0.000143218
-2.09993e-07
-2.20634e-07
0.000143236
0.000146531
-2.44134e-10
0.000146538
-9.79111e-10
0.000146548
-2.39873e-09
0.000146563
-4.71011e-09
0.00014658
-7.83318e-09
0.000146601
-1.16467e-08
0.000146624
-1.60489e-08
0.00014665
-2.09613e-08
0.000146677
-2.63286e-08
0.000146705
-3.21878e-08
0.000146735
-3.84295e-08
0.000146765
-4.50643e-08
0.000146795
-5.20846e-08
0.000146826
-5.94752e-08
0.000146856
-6.72102e-08
0.000146886
-7.52726e-08
0.000146916
-8.36401e-08
0.000146946
-9.22873e-08
0.000146975
-1.01189e-07
0.000147003
-1.10317e-07
0.000147031
-1.19647e-07
0.000147058
-1.2915e-07
0.000147084
-1.38801e-07
0.00014711
-1.48571e-07
0.000147134
-1.58435e-07
0.000147158
-1.68365e-07
0.00014718
-1.78335e-07
0.000147202
-1.88318e-07
0.000147223
-1.98287e-07
0.000147243
-2.08216e-07
0.000147262
-2.18079e-07
0.00014728
-2.27852e-07
-2.37497e-07
0.000147296
0.000150718
-2.74116e-09
0.000150725
-7.63451e-09
0.000150735
-1.29766e-08
0.00015075
-1.89617e-08
0.000150767
-2.54485e-08
0.000150788
-3.22519e-08
0.000150811
-3.92257e-08
0.000150836
-4.62799e-08
0.000150863
-5.33634e-08
0.000150892
-6.05158e-08
0.000150921
-6.77292e-08
0.000150951
-7.50236e-08
0.000150981
-8.24292e-08
0.000151012
-8.9969e-08
0.000151042
-9.76569e-08
0.000151073
-1.05504e-07
0.000151102
-1.13516e-07
0.000151132
-1.21688e-07
0.000151161
-1.30014e-07
0.000151189
-1.38483e-07
0.000151216
-1.47083e-07
0.000151243
-1.55796e-07
0.000151269
-1.64606e-07
0.000151294
-1.73494e-07
0.000151318
-1.82438e-07
0.000151341
-1.91419e-07
0.000151363
-2.00413e-07
0.000151384
-2.09399e-07
0.000151404
-2.18355e-07
0.000151423
-2.27257e-07
0.000151441
-2.36082e-07
0.000151458
-2.44811e-07
-2.53408e-07
0.000151474
0.000155023
-4.00211e-09
0.000155028
-1.29482e-08
0.000155038
-2.26249e-08
0.000155052
-3.2955e-08
0.00015507
-4.33946e-08
0.000155091
-5.3574e-08
0.000155115
-6.33069e-08
0.000155141
-7.25409e-08
0.000155169
-8.13019e-08
0.000155199
-8.96729e-08
0.000155229
-9.7726e-08
0.000155259
-1.05541e-07
0.00015529
-1.13199e-07
0.000155321
-1.20767e-07
0.000155351
-1.28296e-07
0.000155382
-1.35826e-07
0.000155411
-1.43386e-07
0.000155441
-1.50996e-07
0.000155469
-1.58666e-07
0.000155497
-1.664e-07
0.000155524
-1.74197e-07
0.000155551
-1.82051e-07
0.000155576
-1.89955e-07
0.0001556
-1.97895e-07
0.000155624
-2.05858e-07
0.000155646
-2.13829e-07
0.000155668
-2.21792e-07
0.000155688
-2.29727e-07
0.000155707
-2.37617e-07
0.000155725
-2.45444e-07
0.000155743
-2.53188e-07
0.000155759
-2.60833e-07
-2.68349e-07
0.000155774
0.000159455
-7.93647e-09
0.000159462
-2.01039e-08
0.000159472
-3.29953e-08
0.000159486
-4.6584e-08
0.000159503
-6.03882e-08
0.000159523
-7.3802e-08
0.000159546
-8.6408e-08
0.000159572
-9.80413e-08
0.000159599
-1.08708e-07
0.000159628
-1.18511e-07
0.000159658
-1.27577e-07
0.000159688
-1.36045e-07
0.000159719
-1.44045e-07
0.00015975
-1.51692e-07
0.000159781
-1.5908e-07
0.000159811
-1.66286e-07
0.000159841
-1.7337e-07
0.00015987
-1.80377e-07
0.000159899
-1.8734e-07
0.000159927
-1.94279e-07
0.000159954
-2.01208e-07
0.00015998
-2.08136e-07
0.000160005
-2.15062e-07
0.000160029
-2.21984e-07
0.000160052
-2.28895e-07
0.000160074
-2.35787e-07
0.000160095
-2.42648e-07
0.000160115
-2.49465e-07
0.000160134
-2.56225e-07
0.000160151
-2.62913e-07
0.000160167
-2.69514e-07
0.000160183
-2.76012e-07
-2.82385e-07
0.000160197
0.000164003
-5.3115e-09
0.000164005
-2.19685e-08
0.000164014
-4.13115e-08
0.000164028
-6.13391e-08
0.000164048
-8.03949e-08
0.000164072
-9.77228e-08
0.000164099
-1.1315e-07
0.000164128
-1.26783e-07
0.000164158
-1.38829e-07
0.000164189
-1.49526e-07
0.000164221
-1.59107e-07
0.000164252
-1.67789e-07
0.000164284
-1.7576e-07
0.000164315
-1.83179e-07
0.000164347
-1.90177e-07
0.000164377
-1.96858e-07
0.000164407
-2.03301e-07
0.000164436
-2.09571e-07
0.000164465
-2.15713e-07
0.000164492
-2.21763e-07
0.000164519
-2.27744e-07
0.000164544
-2.33672e-07
0.000164569
-2.39557e-07
0.000164592
-2.45402e-07
0.000164614
-2.51208e-07
0.000164636
-2.56969e-07
0.000164656
-2.62682e-07
0.000164674
-2.68337e-07
0.000164692
-2.73925e-07
0.000164709
-2.79435e-07
0.000164724
-2.84856e-07
0.000164738
-2.90179e-07
-2.9538e-07
0.000164751
0.000168701
-1.47983e-08
0.000168709
-3.01114e-08
0.000168717
-4.91796e-08
0.000168727
-7.11335e-08
0.000168741
-9.42542e-08
0.000168759
-1.16195e-07
0.000168782
-1.35737e-07
0.000168808
-1.52666e-07
0.000168836
-1.67203e-07
0.000168866
-1.79678e-07
0.000168898
-1.90433e-07
0.00016893
-1.99794e-07
0.000168962
-2.08043e-07
0.000168994
-2.1542e-07
0.000169026
-2.22118e-07
0.000169058
-2.28293e-07
0.000169088
-2.34068e-07
0.000169118
-2.39537e-07
0.000169147
-2.44775e-07
0.000169176
-2.49837e-07
0.000169203
-2.54762e-07
0.000169228
-2.59581e-07
0.000169253
-2.64313e-07
0.000169277
-2.68971e-07
0.000169299
-2.73564e-07
0.00016932
-2.78093e-07
0.00016934
-2.82559e-07
0.000169359
-2.86958e-07
0.000169376
-2.91286e-07
0.000169392
-2.95535e-07
0.000169407
-2.99697e-07
0.000169421
-3.03766e-07
-3.07725e-07
0.000169433
0.000173491
5.36189e-09
0.000173485
-2.37727e-08
0.000173495
-5.9163e-08
0.000173517
-9.28542e-08
0.000173545
-1.2255e-07
0.000173576
-1.47605e-07
0.000173609
-1.68662e-07
0.000173643
-1.86301e-07
0.000173677
-2.01078e-07
0.00017371
-2.1349e-07
0.000173744
-2.23982e-07
0.000173777
-2.32936e-07
0.00017381
-2.40669e-07
0.000173842
-2.47434e-07
0.000173873
-2.53436e-07
0.000173904
-2.5884e-07
0.000173933
-2.63773e-07
0.000173962
-2.68339e-07
0.00017399
-2.72614e-07
0.000174017
-2.76661e-07
0.000174043
-2.80526e-07
0.000174067
-2.84243e-07
0.000174091
-2.87838e-07
0.000174113
-2.91329e-07
0.000174134
-2.9473e-07
0.000174154
-2.98047e-07
0.000174173
-3.01284e-07
0.00017419
-3.04443e-07
0.000174207
-3.07523e-07
0.000174222
-3.1052e-07
0.000174235
-3.13431e-07
0.000174248
-3.1625e-07
-3.18964e-07
0.000174259
0.000178498
-2.41515e-08
0.000178501
-2.64654e-08
0.00017849
-4.82898e-08
0.000178481
-8.41252e-08
0.000178484
-1.25109e-07
0.000178497
-1.61348e-07
0.00017852
-1.90826e-07
0.000178548
-2.14201e-07
0.000178579
-2.32808e-07
0.000178613
-2.47645e-07
0.000178649
-2.59511e-07
0.000178685
-2.69071e-07
0.000178721
-2.76852e-07
0.000178757
-2.83263e-07
0.000178792
-2.8862e-07
0.000178827
-2.93169e-07
0.00017886
-2.97096e-07
0.000178892
-3.00543e-07
0.000178923
-3.0362e-07
0.000178953
-3.06409e-07
0.000178981
-3.08972e-07
0.000179008
-3.11355e-07
0.000179034
-3.13593e-07
0.000179059
-3.15712e-07
0.000179082
-3.1773e-07
0.000179103
-3.19658e-07
0.000179123
-3.21506e-07
0.000179142
-3.23279e-07
0.00017916
-3.24978e-07
0.000179176
-3.26605e-07
0.000179191
-3.28159e-07
0.000179204
-3.29639e-07
-3.31037e-07
0.000179216
0.000183487
5.66811e-08
0.000183465
-4.48715e-09
0.000183501
-8.42226e-08
0.000183553
-1.3671e-07
0.000183605
-1.76686e-07
0.000183651
-2.07772e-07
0.000183693
-2.32461e-07
0.000183731
-2.52595e-07
0.000183767
-2.68898e-07
0.000183802
-2.82059e-07
0.000183835
-2.92734e-07
0.000183867
-3.01433e-07
0.000183899
-3.08548e-07
0.00018393
-3.14394e-07
0.000183961
-3.19222e-07
0.000183991
-3.23233e-07
0.00018402
-3.26582e-07
0.000184049
-3.29396e-07
0.000184077
-3.31773e-07
0.000184105
-3.33791e-07
0.000184131
-3.35513e-07
0.000184157
-3.36988e-07
0.000184181
-3.38255e-07
0.000184205
-3.39344e-07
0.000184228
-3.40281e-07
0.000184249
-3.41082e-07
0.000184269
-3.41764e-07
0.000184288
-3.42336e-07
0.000184306
-3.42806e-07
0.000184323
-3.43179e-07
0.000184338
-3.43458e-07
0.000184352
-3.43643e-07
-3.43733e-07
0.000184365
0.000188861
7.71193e-09
0.000188796
6.03647e-08
0.000188711
1.046e-09
0.000188647
-7.32377e-08
0.000188629
-1.58429e-07
0.000188643
-2.2162e-07
0.000188676
-2.65104e-07
0.000188719
-2.95902e-07
0.000188768
-3.18228e-07
0.000188821
-3.34676e-07
0.000188875
-3.46885e-07
0.000188929
-3.55982e-07
0.000188984
-3.62762e-07
0.000189037
-3.67795e-07
0.000189089
-3.71494e-07
0.00018914
-3.74162e-07
0.00018919
-3.76023e-07
0.000189238
-3.77246e-07
0.000189284
-3.77959e-07