/*--------------------------------*- C++ -*----------------------------------*\
| =========                 |                                                 |
| \\      /  F ield         | OpenFOAM: The Open Source CFD Toolbox           |
|  \\    /   O peration     | Version:  2.1.1                                 |
|   \\  /    A nd           | Web:      www.OpenFOAM.org                      |
|    \\/     M anipulation  |                                                 |
\*---------------------------------------------------------------------------*/
FoamFile
{
    version     2.0;
    format      ascii;
    class       volVectorField;
    location    "0.17";
    object      U;
}
// * * * * * * * * * * * * * * * * * * * * * * * * * * * * * * * * * * * * * //

dimensions      [0 1 -1 0 0 0 0];

internalField   nonuniform List<vector> 
6820
(
(8.34337 -0.360076 0)
(8.4011 -0.247153 0)
(8.35609 -0.115293 0)
(8.24778 -0.0365571 0)
(8.11933 0.0060083 0)
(7.98589 0.02787 0)
(7.85377 0.0386397 0)
(7.72636 0.0433394 0)
(7.60507 0.0446106 0)
(7.49045 0.0439101 0)
(7.38274 0.0420797 0)
(7.28195 0.0396238 0)
(7.18797 0.0368536 0)
(7.10058 0.0339647 0)
(7.01951 0.0310809 0)
(6.94444 0.0282797 0)
(6.87501 0.0256085 0)
(6.81087 0.0230942 0)
(6.75165 0.0207505 0)
(6.697 0.0185819 0)
(6.64658 0.0165874 0)
(6.60003 0.0147631 0)
(6.55705 0.0131036 0)
(6.51733 0.0116047 0)
(6.48055 0.0102653 0)
(6.4464 0.00909161 0)
(6.41456 0.0081025 0)
(6.38459 0.00735065 0)
(6.35602 0.00694078 0)
(6.32788 0.00714316 0)
(6.29867 0.00876644 0)
(6.26519 0.0126743 0)
(6.21849 0.0292742 0)
(8.32138 0.166251 0)
(8.28709 0.190005 0)
(8.28543 0.132159 0)
(8.3174 0.09586 0)
(8.36169 0.0750235 0)
(8.40174 0.062361 0)
(8.43282 0.0548775 0)
(8.4549 0.0503536 0)
(8.46883 0.0474478 0)
(8.47561 0.0454469 0)
(8.4763 0.0439558 0)
(8.47182 0.0427367 0)
(8.463 0.0416506 0)
(8.45059 0.0406203 0)
(8.4352 0.0396054 0)
(8.4174 0.0385871 0)
(8.39767 0.0375591 0)
(8.37643 0.0365225 0)
(8.35404 0.0354819 0)
(8.33079 0.0344439 0)
(8.30694 0.0334161 0)
(8.28271 0.0324066 0)
(8.25829 0.0314251 0)
(8.23381 0.0304832 0)
(8.20941 0.0295975 0)
(8.18518 0.0287923 0)
(8.16121 0.0281109 0)
(8.13754 0.0276279 0)
(8.11441 0.0274839 0)
(8.09158 0.0280055 0)
(8.07112 0.0296367 0)
(8.0506 0.0343519 0)
(8.05005 0.0423132 0)
(8.3225 -0.0608843 0)
(8.31397 -0.0832778 0)
(8.3305 -0.0540905 0)
(8.34431 -0.0202912 0)
(8.35317 0.00242104 0)
(8.36218 0.0165493 0)
(8.3719 0.0257903 0)
(8.38192 0.0320092 0)
(8.39175 0.0362297 0)
(8.401 0.039097 0)
(8.40944 0.0410057 0)
(8.41692 0.0421998 0)
(8.4234 0.0428533 0)
(8.42885 0.0430971 0)
(8.43329 0.0430307 0)
(8.43676 0.0427302 0)
(8.43932 0.042255 0)
(8.44103 0.0416517 0)
(8.44195 0.040957 0)
(8.44216 0.0402004 0)
(8.44171 0.0394058 0)
(8.44067 0.0385933 0)
(8.43911 0.0377812 0)
(8.43707 0.0369873 0)
(8.4346 0.0362326 0)
(8.43176 0.0355424 0)
(8.42859 0.0349604 0)
(8.42513 0.0345319 0)
(8.42149 0.0344 0)
(8.4177 0.0345469 0)
(8.41426 0.0356403 0)
(8.41119 0.035996 0)
(8.4098 0.0393526 0)
(8.33365 0.014566 0)
(8.32976 0.0477071 0)
(8.32736 0.0539838 0)
(8.32869 0.0465722 0)
(8.33456 0.041077 0)
(8.34208 0.0385767 0)
(8.34956 0.0377692 0)
(8.35677 0.0377266 0)
(8.36373 0.0379477 0)
(8.37043 0.0382123 0)
(8.37683 0.0384216 0)
(8.38291 0.0385345 0)
(8.38866 0.0385413 0)
(8.39406 0.0384452 0)
(8.39909 0.0382545 0)
(8.40376 0.0379803 0)
(8.40808 0.0376347 0)
(8.41205 0.03723 0)
(8.41569 0.0367784 0)
(8.41902 0.0362914 0)
(8.42205 0.0357801 0)
(8.42481 0.0352557 0)
(8.42731 0.0347302 0)
(8.42957 0.0342173 0)
(8.43162 0.0337349 0)
(8.43347 0.0333064 0)
(8.43516 0.0329681 0)
(8.43672 0.0327638 0)
(8.43825 0.0327774 0)
(8.43979 0.0330548 0)
(8.4418 0.0337697 0)
(8.44435 0.034658 0)
(8.44872 0.0360814 0)
(8.3302 -0.00530745 0)
(8.32721 -0.00749925 0)
(8.33136 -0.00243598 0)
(8.33603 0.00805654 0)
(8.34009 0.0172351 0)
(8.34424 0.0234555 0)
(8.34863 0.0276425 0)
(8.35327 0.0306081 0)
(8.35806 0.0327534 0)
(8.36291 0.0343105 0)
(8.36771 0.0354247 0)
(8.37243 0.0361903 0)
(8.37703 0.0366737 0)
(8.38148 0.0369264 0)
(8.38577 0.0369906 0)
(8.38989 0.036902 0)
(8.39384 0.0366906 0)
(8.39762 0.0363821 0)
(8.40124 0.035998 0)
(8.40469 0.035557 0)
(8.40799 0.0350755 0)
(8.41114 0.0345685 0)
(8.41416 0.0340506 0)
(8.41706 0.0335369 0)
(8.41985 0.0330452 0)
(8.42255 0.0325959 0)
(8.42518 0.0322183 0)
(8.42778 0.0319399 0)
(8.43043 0.0318134 0)
(8.43321 0.0318257 0)
(8.43636 0.0320639 0)
(8.44 0.0321208 0)
(8.44448 0.0321716 0)
(8.33238 0.00229107 0)
(8.33118 0.0133222 0)
(8.33278 0.0204168 0)
(8.33547 0.0238159 0)
(8.33891 0.0259757 0)
(8.34294 0.0277889 0)
(8.34714 0.0294701 0)
(8.35136 0.0309679 0)
(8.35558 0.0322017 0)
(8.35977 0.0331607 0)
(8.36391 0.0338669 0)
(8.36798 0.0343482 0)
(8.37197 0.0346333 0)
(8.37587 0.0347509 0)
(8.37966 0.034728 0)
(8.38335 0.0345881 0)
(8.38693 0.0343524 0)
(8.3904 0.0340392 0)
(8.39376 0.0336645 0)
(8.39703 0.0332425 0)
(8.4002 0.0327861 0)
(8.40329 0.0323073 0)
(8.40629 0.031818 0)
(8.40923 0.0313307 0)
(8.41211 0.0308595 0)
(8.41495 0.0304201 0)
(8.41777 0.030032 0)
(8.42062 0.0297114 0)
(8.42356 0.02948 0)
(8.42666 0.0293156 0)
(8.43007 0.0292114 0)
(8.43386 0.0289333 0)
(8.43817 0.0284259 0)
(8.33232 0.000880138 0)
(8.33151 0.00580556 0)
(8.33339 0.0107932 0)
(8.33642 0.0156026 0)
(8.3398 0.0199965 0)
(8.34344 0.0235145 0)
(8.34716 0.0262033 0)
(8.3509 0.0282581 0)
(8.35467 0.0298155 0)
(8.35843 0.0309777 0)
(8.36215 0.031822 0)
(8.36583 0.0324041 0)
(8.36944 0.0327673 0)
(8.37298 0.0329477 0)
(8.37644 0.0329756 0)
(8.37982 0.0328769 0)
(8.38312 0.0326741 0)
(8.38634 0.0323863 0)
(8.38948 0.0320305 0)
(8.39255 0.0316211 0)
(8.39556 0.0311712 0)
(8.39851 0.0306927 0)
(8.40141 0.030197 0)
(8.40426 0.0296952 0)
(8.40709 0.0291989 0)
(8.40991 0.0287196 0)
(8.41274 0.028269 0)
(8.41562 0.0278532 0)
(8.4186 0.0274751 0)
(8.42174 0.0271031 0)
(8.42511 0.0266994 0)
(8.42877 0.0260983 0)
(8.43273 0.025205 0)
(8.33272 0.00171759 0)
(8.33255 0.0073126 0)
(8.33415 0.0126198 0)
(8.33673 0.016897 0)
(8.33974 0.0203587 0)
(8.3431 0.0230931 0)
(8.34663 0.0252637 0)
(8.3502 0.0270039 0)
(8.35379 0.0283737 0)
(8.35735 0.0294194 0)
(8.36087 0.0301871 0)
(8.36433 0.030717 0)
(8.36773 0.0310439 0)
(8.37106 0.0311987 0)
(8.37432 0.0312085 0)
(8.3775 0.031097 0)
(8.38062 0.0308848 0)
(8.38367 0.0305895 0)
(8.38666 0.0302268 0)
(8.38959 0.0298099 0)
(8.39246 0.0293507 0)
(8.39529 0.02886 0)
(8.39809 0.0283475 0)
(8.40086 0.0278223 0)
(8.40362 0.027293 0)
(8.40638 0.0267667 0)
(8.40917 0.0262488 0)
(8.41201 0.0257379 0)
(8.41495 0.0252256 0)
(8.41803 0.0246788 0)
(8.42128 0.0240506 0)
(8.42473 0.0232295 0)
(8.42835 0.022133 0)
(8.33284 0.00179803 0)
(8.33293 0.00648911 0)
(8.33441 0.0110207 0)
(8.33681 0.0149273 0)
(8.33965 0.0183093 0)
(8.34282 0.0211187 0)
(8.34615 0.0233823 0)
(8.34955 0.0251834 0)
(8.35296 0.0265878 0)
(8.35636 0.0276537 0)
(8.35973 0.0284346 0)
(8.36305 0.0289747 0)
(8.36631 0.0293107 0)
(8.3695 0.0294738 0)
(8.37263 0.0294911 0)
(8.37569 0.0293858 0)
(8.37869 0.0291779 0)
(8.38162 0.0288845 0)
(8.3845 0.0285205 0)
(8.38733 0.0280989 0)
(8.39011 0.0276306 0)
(8.39285 0.0271255 0)
(8.39557 0.0265921 0)
(8.39827 0.0260377 0)
(8.40096 0.0254684 0)
(8.40366 0.0248879 0)
(8.4064 0.024297 0)
(8.40919 0.0236897 0)
(8.41205 0.023052 0)
(8.41503 0.0223527 0)
(8.41814 0.0215478 0)
(8.42137 0.0205612 0)
(8.4247 0.0193317 0)
(8.33294 0.00184114 0)
(8.33322 0.00617005 0)
(8.33461 0.0104003 0)
(8.3368 0.0140845 0)
(8.33943 0.0172391 0)
(8.34238 0.0198529 0)
(8.34552 0.0219666 0)
(8.34876 0.0236597 0)
(8.35203 0.0249923 0)
(8.35531 0.0260126 0)
(8.35856 0.0267649 0)
(8.36177 0.0272873 0)
(8.36493 0.0276124 0)
(8.36802 0.0277691 0)
(8.37106 0.0277823 0)
(8.37404 0.0276737 0)
(8.37695 0.0274622 0)
(8.37981 0.027164 0)
(8.38261 0.0267931 0)
(8.38537 0.0263614 0)
(8.38808 0.0258793 0)
(8.39077 0.0253553 0)
(8.39342 0.0247968 0)
(8.39607 0.0242093 0)
(8.3987 0.0235968 0)
(8.40136 0.0229605 0)
(8.40403 0.0222979 0)
(8.40676 0.0216006 0)
(8.40955 0.020853 0)
(8.41241 0.0200277 0)
(8.41537 0.019088 0)
(8.41841 0.0179824 0)
(8.42148 0.0166705 0)
(8.33299 0.00180581 0)
(8.33337 0.00574718 0)
(8.33467 0.00957921 0)
(8.33669 0.0129667 0)
(8.33914 0.0159011 0)
(8.3419 0.0183747 0)
(8.34487 0.0204048 0)
(8.34795 0.0220439 0)
(8.35108 0.0233402 0)
(8.35423 0.024336 0)
(8.35737 0.0250717 0)
(8.36047 0.0255835 0)
(8.36354 0.0259022 0)
(8.36655 0.0260552 0)
(8.36952 0.0260663 0)
(8.37242 0.0259558 0)
(8.37527 0.0257418 0)
(8.37807 0.0254394 0)
(8.38081 0.0250619 0)
(8.38352 0.0246202 0)
(8.38618 0.0241239 0)
(8.38881 0.0235805 0)
(8.39142 0.0229962 0)
(8.39402 0.0223753 0)
(8.39661 0.0217199 0)
(8.39922 0.0210294 0)
(8.40184 0.0202997 0)
(8.4045 0.0195215 0)
(8.4072 0.0186799 0)
(8.40996 0.017752 0)
(8.41278 0.0167093 0)
(8.41563 0.0155172 0)
(8.4185 0.0141505 0)
(8.33301 0.00172927 0)
(8.33346 0.00534713 0)
(8.33468 0.00885232 0)
(8.33654 0.0119892 0)
(8.33881 0.0147223 0)
(8.3414 0.017042 0)
(8.3442 0.0189587 0)
(8.34712 0.0205131 0)
(8.35011 0.0217473 0)
(8.35314 0.0226989 0)
(8.35616 0.0234037 0)
(8.35917 0.023894 0)
(8.36215 0.0241981 0)
(8.36508 0.024341 0)
(8.36797 0.0243446 0)
(8.37081 0.024228 0)
(8.3736 0.0240078 0)
(8.37634 0.0236982 0)
(8.37903 0.0233114 0)
(8.38169 0.0228576 0)
(8.38431 0.0223453 0)
(8.3869 0.0217812 0)
(8.38947 0.0211702 0)
(8.39202 0.0205157 0)
(8.39457 0.0198185 0)
(8.39712 0.0190769 0)
(8.39969 0.0182861 0)
(8.40228 0.0174371 0)
(8.4049 0.0165167 0)
(8.40755 0.0155067 0)
(8.41024 0.0143859 0)
(8.41293 0.0131313 0)
(8.41563 0.0117286 0)
(8.33303 0.00162858 0)
(8.33349 0.00494744 0)
(8.33464 0.00814417 0)
(8.33636 0.0110289 0)
(8.33848 0.0135576 0)
(8.3409 0.01572 0)
(8.34354 0.0175215 0)
(8.34631 0.0189911 0)
(8.34917 0.0201627 0)
(8.35207 0.0210687 0)
(8.35498 0.0217401 0)
(8.35788 0.022206 0)
(8.36077 0.0224922 0)
(8.36362 0.0226217 0)
(8.36644 0.0226149 0)
(8.36921 0.0224894 0)
(8.37194 0.0222606 0)
(8.37462 0.0219418 0)
(8.37727 0.021544 0)
(8.37987 0.0210767 0)
(8.38245 0.0205474 0)
(8.38499 0.0199619 0)
(8.38752 0.0193245 0)
(8.39003 0.0186374 0)
(8.39253 0.0179008 0)
(8.39503 0.0171125 0)
(8.39753 0.0162675 0)
(8.40005 0.0153579 0)
(8.40258 0.0143727 0)
(8.40513 0.0132978 0)
(8.40769 0.0121182 0)
(8.41025 0.0108188 0)
(8.41279 0.00939246 0)
(8.33304 0.00151534 0)
(8.3335 0.00455572 0)
(8.33458 0.00746968 0)
(8.33618 0.0101161 0)
(8.33815 0.0124486 0)
(8.34042 0.0144543 0)
(8.34291 0.0161352 0)
(8.34554 0.0175121 0)
(8.34826 0.0186126 0)
(8.35103 0.0194644 0)
(8.35383 0.0200948 0)
(8.35664 0.0205296 0)
(8.35943 0.0207921 0)
(8.3622 0.0209033 0)
(8.36494 0.0208817 0)
(8.36764 0.0207435 0)
(8.3703 0.020503 0)
(8.37293 0.0201721 0)
(8.37552 0.0197611 0)
(8.37807 0.0192786 0)
(8.3806 0.0187311 0)
(8.3831 0.0181239 0)
(8.38557 0.0174603 0)
(8.38803 0.016742 0)
(8.39048 0.0159688 0)
(8.39292 0.0151383 0)
(8.39536 0.0142461 0)
(8.3978 0.0132855 0)
(8.40025 0.0122475 0)
(8.4027 0.0111221 0)
(8.40514 0.00989858 0)
(8.40757 0.00856756 0)
(8.40996 0.00712626 0)
(8.33304 0.00139655 0)
(8.33349 0.00417279 0)
(8.33451 0.00682221 0)
(8.33599 0.00923883 0)
(8.33784 0.0113782 0)
(8.33997 0.0132264 0)
(8.34231 0.0147828 0)
(8.3448 0.0160622 0)
(8.34739 0.0170866 0)
(8.35005 0.0178793 0)
(8.35274 0.0184639 0)
(8.35544 0.018863 0)
(8.35814 0.0190976 0)
(8.36082 0.0191865 0)
(8.36348 0.0191465 0)
(8.36611 0.0189926 0)
(8.36871 0.0187375 0)
(8.37128 0.0183923 0)
(8.37381 0.0179663 0)
(8.37631 0.0174672 0)
(8.37878 0.0169009 0)
(8.38122 0.0162718 0)
(8.38364 0.0155829 0)
(8.38605 0.0148354 0)
(8.38843 0.0140289 0)
(8.39081 0.0131613 0)
(8.39318 0.0122287 0)
(8.39554 0.0112258 0)
(8.3979 0.0101458 0)
(8.40025 0.00898151 0)
(8.40258 0.00772589 0)
(8.40488 0.0063732 0)
(8.40715 0.00492345 0)
(8.33304 0.0012764 0)
(8.33347 0.00380007 0)
(8.33443 0.00620052 0)
(8.33582 0.00839649 0)
(8.33754 0.0103477 0)
(8.33954 0.0120393 0)
(8.34175 0.0134689 0)
(8.34411 0.0146466 0)
(8.34658 0.0155899 0)
(8.34912 0.0163181 0)
(8.3517 0.0168516 0)
(8.35431 0.0172101 0)
(8.35691 0.0174122 0)
(8.35951 0.0174746 0)
(8.36209 0.0174127 0)
(8.36465 0.0172398 0)
(8.36717 0.0169675 0)
(8.36967 0.0166059 0)
(8.37214 0.0161633 0)
(8.37458 0.0156465 0)
(8.37699 0.015061 0)
(8.37938 0.0144105 0)
(8.38174 0.0136975 0)
(8.38408 0.0129231 0)
(8.38641 0.0120869 0)
(8.38872 0.0111871 0)
(8.39101 0.0102206 0)
(8.39329 0.00918341 0)
(8.39555 0.00807058 0)
(8.3978 0.00687717 0)
(8.40002 0.0055988 0)
(8.40221 0.00423225 0)
(8.40436 0.00277918 0)
(8.33304 0.00115728 0)
(8.33345 0.00343823 0)
(8.33435 0.00560237 0)
(8.33565 0.00758577 0)
(8.33726 0.00935296 0)
(8.33914 0.0108888 0)
(8.34123 0.0121896 0)
(8.34347 0.0132622 0)
(8.34582 0.0141201 0)
(8.34825 0.0147795 0)
(8.35073 0.0152574 0)
(8.35323 0.015571 0)
(8.35575 0.0157366 0)
(8.35826 0.0157691 0)
(8.36076 0.015682 0)
(8.36324 0.0154874 0)
(8.3657 0.0151957 0)
(8.36813 0.0148158 0)
(8.37053 0.0143553 0)
(8.37291 0.0138204 0)
(8.37526 0.0132156 0)
(8.37758 0.0125444 0)
(8.37988 0.0118091 0)
(8.38216 0.0110105 0)
(8.38441 0.0101484 0)
(8.38665 0.00922134 0)
(8.38886 0.00822719 0)
(8.39106 0.00716294 0)
(8.39323 0.00602527 0)
(8.39537 0.004811 0)
(8.39749 0.00351763 0)
(8.39957 0.00214361 0)
(8.4016 0.000691565 0)
(8.33304 0.00104049 0)
(8.33343 0.00308749 0)
(8.33427 0.00502596 0)
(8.33549 0.00680422 0)
(8.33701 0.00839145 0)
(8.33878 0.0097728 0)
(8.34075 0.0109437 0)
(8.34288 0.0119086 0)
(8.34512 0.0126776 0)
(8.34744 0.0132641 0)
(8.34981 0.0136824 0)
(8.35222 0.0139473 0)
(8.35465 0.0140727 0)
(8.35707 0.0140718 0)
(8.35949 0.0139567 0)
(8.3619 0.0137379 0)
(8.36429 0.0134248 0)
(8.36665 0.0130253 0)
(8.36899 0.0125461 0)
(8.3713 0.0119926 0)
(8.37358 0.011369 0)
(8.37584 0.0106784 0)
(8.37807 0.00992271 0)
(8.38028 0.0091028 0)
(8.38246 0.00821863 0)
(8.38462 0.00726931 0)
(8.38675 0.0062533 0)
(8.38886 0.00516861 0)
(8.39094 0.00401317 0)
(8.39298 0.00278513 0)
(8.395 0.00148331 0)
(8.39697 0.000107292 0)
(8.39889 -0.00133979 0)
(8.33303 0.00092666 0)
(8.3334 0.00274772 0)
(8.3342 0.00446956 0)
(8.33534 0.00604935 0)
(8.33677 0.00746045 0)
(8.33844 0.00868872 0)
(8.34031 0.00972904 0)
(8.34233 0.0105839 0)
(8.34446 0.0112611 0)
(8.34668 0.0117712 0)
(8.34896 0.0121263 0)
(8.35128 0.0123388 0)
(8.35361 0.0124208 0)
(8.35596 0.0123837 0)
(8.3583 0.0122379 0)
(8.36063 0.0119929 0)
(8.36294 0.0116567 0)
(8.36523 0.0112365 0)
(8.3675 0.010738 0)
(8.36975 0.0101661 0)
(8.37196 0.00952456 0)
(8.37415 0.00881599 0)
(8.37631 0.00804221 0)
(8.37845 0.00720412 0)
(8.38055 0.00630189 0)
(8.38263 0.00533506 0)
(8.38468 0.00430269 0)
(8.3867 0.00320365 0)
(8.38869 0.00203677 0)
(8.39064 0.000801224 0)
(8.39255 -0.000503259 0)
(8.39442 -0.00187636 0)
(8.39624 -0.00331471 0)
(8.33303 0.000816031 0)
(8.33338 0.00241852 0)
(8.33413 0.00393154 0)
(8.3352 0.00531884 0)
(8.33655 0.00655744 0)
(8.33813 0.00763417 0)
(8.3399 0.00854362 0)
(8.34182 0.00928691 0)
(8.34386 0.00986982 0)
(8.34598 0.0103008 0)
(8.34817 0.0105896 0)
(8.35039 0.0107468 0)
(8.35265 0.0107826 0)
(8.35491 0.0107067 0)
(8.35717 0.0105282 0)
(8.35943 0.0102552 0)
(8.36167 0.0098948 0)
(8.36389 0.00945309 0)
(8.36609 0.00893524 0)
(8.36826 0.00834543 0)
(8.37041 0.00768695 0)
(8.37253 0.0069622 0)
(8.37462 0.00617284 0)
(8.37668 0.00531982 0)
(8.37871 0.00440349 0)
(8.3807 0.00342377 0)
(8.38267 0.00238024 0)
(8.3846 0.00127241 0)
(8.3865 9.98505e-05 0)
(8.38835 -0.00113758 0)
(8.39016 -0.00243952 0)
(8.39193 -0.00380518 0)
(8.39365 -0.00523109 0)
(8.33303 0.000708603 0)
(8.33336 0.00209933 0)
(8.33406 0.0034103 0)
(8.33508 0.0046104 0)
(8.33635 0.00567976 0)
(8.33784 0.00660633 0)
(8.33952 0.00738466 0)
(8.34135 0.00801492 0)
(8.3433 0.00850127 0)
(8.34533 0.00885029 0)
(8.34743 0.00907001 0)
(8.34957 0.00916904 0)
(8.35174 0.009156 0)
(8.35393 0.00903912 0)
(8.35611 0.00882604 0)
(8.3583 0.00852367 0)
(8.36046 0.00813809 0)
(8.36261 0.00767456 0)
(8.36474 0.00713753 0)
(8.36684 0.0065306 0)
(8.36892 0.00585666 0)
(8.37097 0.00511784 0)
(8.37298 0.00431568 0)
(8.37497 0.00345114 0)
(8.37692 0.00252476 0)
(8.37884 0.00153674 0)
(8.38072 0.000487099 0)
(8.38256 -0.000624187 0)
(8.38436 -0.00179702 0)
(8.38613 -0.00303104 0)
(8.38784 -0.00432546 0)
(8.38951 -0.00567921 0)
(8.39113 -0.00708886 0)
(8.33303 0.000604244 0)
(8.33334 0.00178946 0)
(8.334 0.0029044 0)
(8.33496 0.0039221 0)
(8.33617 0.00482543 0)
(8.33758 0.00560356 0)
(8.33918 0.00625125 0)
(8.34093 0.00676794 0)
(8.34279 0.00715658 0)
(8.34474 0.00742213 0)
(8.34675 0.00757097 0)
(8.34881 0.00761009 0)
(8.35091 0.00754654 0)
(8.35301 0.00738712 0)
(8.35513 0.00713822 0)
(8.35723 0.00680562 0)
(8.35933 0.00639442 0)
(8.36141 0.00590907 0)
(8.36347 0.00535333 0)
(8.3655 0.00473031 0)
(8.3675 0.00404247 0)
(8.36948 0.00329174 0)
(8.37142 0.00247951 0)
(8.37333 0.00160677 0)
(8.3752 0.000674165 0)
(8.37704 -0.000317864 0)
(8.37883 -0.00136899 0)
(8.38059 -0.00247889 0)
(8.3823 -0.00364708 0)
(8.38397 -0.00487288 0)
(8.38559 -0.00615522 0)
(8.38717 -0.0074929 0)
(8.38869 -0.00888256 0)
(8.33303 0.000502746 0)
(8.33332 0.00148808 0)
(8.33395 0.00241205 0)
(8.33486 0.00325106 0)
(8.336 0.00399037 0)
(8.33735 0.00462048 0)
(8.33887 0.00513656 0)
(8.34054 0.00553776 0)
(8.34232 0.00582613 0)
(8.34419 0.00600531 0)
(8.34613 0.00608043 0)
(8.34812 0.00605712 0)
(8.35013 0.00594097 0)
(8.35217 0.00573737 0)
(8.35421 0.00545154 0)
(8.35624 0.00508815 0)
(8.35827 0.00465133 0)
(8.36028 0.00414474 0)
(8.36227 0.00357146 0)
(8.36423 0.00293407 0)
(8.36616 0.00223468 0)
(8.36806 0.00147492 0)
(8.36993 0.000656038 0)
(8.37176 -0.00022099 0)
(8.37356 -0.00115545 0)
(8.37531 -0.00214675 0)
(8.37703 -0.00319436 0)
(8.37869 -0.00429769 0)
(8.38032 -0.00545604 0)
(8.3819 -0.0066685 0)
(8.38343 -0.00793386 0)
(8.3849 -0.00925084 0)
(8.38633 -0.0106162 0)
(8.33303 0.000403901 0)
(8.33331 0.00119473 0)
(8.3339 0.00193288 0)
(8.33476 0.00259783 0)
(8.33585 0.00317706 0)
(8.33713 0.00366242 0)
(8.33859 0.00404954 0)
(8.34019 0.00433725 0)
(8.3419 0.00452693 0)
(8.3437 0.00462072 0)
(8.34556 0.00462246 0)
(8.34748 0.00453652 0)
(8.34942 0.00436725 0)
(8.35139 0.00411891 0)
(8.35336 0.00379572 0)
(8.35533 0.00340113 0)
(8.35728 0.00293848 0)
(8.35923 0.00241077 0)
(8.36114 0.00182044 0)
(8.36304 0.00116962 0)
(8.3649 0.000460053 0)
(8.36673 -0.000306878 0)
(8.36852 -0.00113005 0)
(8.37028 -0.00200856 0)
(8.372 -0.00294166 0)
(8.37367 -0.00392867 0)
(8.3753 -0.00496893 0)
(8.37688 -0.0060617 0)
(8.37842 -0.00720614 0)
(8.37991 -0.00840121 0)
(8.38135 -0.00964564 0)
(8.38274 -0.0109382 0)
(8.38407 -0.0122757 0)
(8.33303 0.000307361 0)
(8.33329 0.000907533 0)
(8.33386 0.00146184 0)
(8.33468 0.00195215 0)
(8.33571 0.00236825 0)
(8.33694 0.00270391 0)
(8.33834 0.00295597 0)
(8.33987 0.00312373 0)
(8.34152 0.00320827 0)
(8.34325 0.00321083 0)
(8.34505 0.00313538 0)
(8.3469 0.00298461 0)
(8.34878 0.00276108 0)
(8.35067 0.00246738 0)
(8.35258 0.00210748 0)
(8.35448 0.00168338 0)
(8.35637 0.00119727 0)
(8.35825 0.00065133 0)
(8.3601 4.75155e-05 0)
(8.36193 -0.000612675 0)
(8.36372 -0.00132794 0)
(8.36548 -0.00209715 0)
(8.3672 -0.00291937 0)
(8.36888 -0.00379381 0)
(8.37052 -0.00471974 0)
(8.37211 -0.00569647 0)
(8.37366 -0.00672328 0)
(8.37516 -0.00779935 0)
(8.37662 -0.00892376 0)
(8.37802 -0.0100954 0)
(8.37937 -0.0113131 0)
(8.38066 -0.0125755 0)
(8.38191 -0.0138796 0)
(8.33302 0.000213398 0)
(8.33327 0.000629973 0)
(8.33381 0.00100984 0)
(8.33459 0.00133708 0)
(8.33558 0.00160305 0)
(8.33676 0.00180229 0)
(8.3381 0.0019319 0)
(8.33958 0.00199089 0)
(8.34117 0.00198127 0)
(8.34284 0.00189834 0)
(8.34458 0.00174724 0)
(8.34637 0.00153136 0)
(8.34819 0.0012525 0)
(8.35003 0.000912925 0)
(8.35188 0.000513237 0)
(8.35372 5.61182e-05 0)
(8.35555 -0.000456537 0)
(8.35736 -0.00102337 0)
(8.35915 -0.00164306 0)
(8.3609 -0.00231456 0)
(8.36263 -0.00303689 0)
(8.36432 -0.00380921 0)
(8.36597 -0.00463078 0)
(8.36758 -0.00550093 0)
(8.36914 -0.006419 0)
(8.37066 -0.00738432 0)
(8.37213 -0.00839617 0)
(8.37355 -0.00945374 0)
(8.37492 -0.0105561 0)
(8.37623 -0.0117022 0)
(8.3775 -0.0128908 0)
(8.37871 -0.0141207 0)
(8.37986 -0.0153892 0)
(8.33302 0.000119713 0)
(8.33327 0.00034695 0)
(8.33378 0.000537279 0)
(8.33453 0.000678016 0)
(8.33549 0.000765595 0)
(8.33662 0.00079937 0)
(8.33792 0.000779292 0)
(8.33935 0.000706217 0)
(8.34088 0.000578876 0)
(8.3425 0.000404911 0)
(8.34418 0.000179679 0)
(8.34591 -9.80138e-05 0)
(8.34768 -0.0004271 0)
(8.34946 -0.000806394 0)
(8.35124 -0.00123667 0)
(8.35303 -0.00171641 0)
(8.3548 -0.00224475 0)
(8.35655 -0.00282123 0)
(8.35827 -0.00344539 0)
(8.35996 -0.00411663 0)
(8.36162 -0.00483444 0)
(8.36325 -0.00559834 0)
(8.36483 -0.00640785 0)
(8.36636 -0.00726246 0)
(8.36785 -0.00816163 0)
(8.3693 -0.00910477 0)
(8.37069 -0.0100912 0)
(8.37203 -0.0111201 0)
(8.37332 -0.0121906 0)
(8.37456 -0.0133016 0)
(8.37574 -0.014452 0)
(8.37686 -0.0156406 0)
(8.37793 -0.0168649 0)
(8.33302 3.52523e-05 0)
(8.33324 0.000107007 0)
(8.33372 0.000157721 0)
(8.33443 0.000171068 0)
(8.33534 0.00014017 0)
(8.33644 6.20197e-05 0)
(8.3377 -6.43818e-05 0)
(8.33909 -0.000238034 0)
(8.34059 -0.000459661 0)
(8.34218 -0.00072083 0)
(8.34383 -0.00102553 0)
(8.34552 -0.00137471 0)
(8.34724 -0.0017672 0)
(8.34897 -0.00220272 0)
(8.35071 -0.00267989 0)
(8.35244 -0.00319904 0)
(8.35415 -0.00376013 0)
(8.35585 -0.00436291 0)
(8.35751 -0.00500718 0)
(8.35915 -0.00569274 0)
(8.36074 -0.00641939 0)
(8.3623 -0.00718695 0)
(8.36381 -0.00799516 0)
(8.36528 -0.00884372 0)
(8.3667 -0.00973227 0)
(8.36807 -0.0106604 0)
(8.36939 -0.0116274 0)
(8.37065 -0.0126328 0)
(8.37186 -0.0136758 0)
(8.37302 -0.0147554 0)
(8.37412 -0.0158705 0)
(8.37516 -0.0170203 0)
(8.37615 -0.0182025 0)
(8.33303 -6.61724e-05 0)
(8.33326 -0.000222524 0)
(8.33374 -0.000424963 0)
(8.33443 -0.000671418 0)
(8.33532 -0.000947411 0)
(8.33638 -0.00124168 0)
(8.33759 -0.00154866 0)
(8.33894 -0.00186733 0)
(8.34039 -0.00219779 0)
(8.34193 -0.00254893 0)
(8.34352 -0.00292108 0)
(8.34517 -0.00331641 0)
(8.34684 -0.00373833 0)
(8.34852 -0.00418978 0)
(8.35021 -0.00467296 0)
(8.35189 -0.00518988 0)
(8.35355 -0.00574193 0)
(8.35519 -0.00633006 0)
(8.3568 -0.00695501 0)
(8.35838 -0.00761729 0)
(8.35992 -0.00831721 0)
(8.36141 -0.00905489 0)
(8.36287 -0.00983033 0)
(8.36427 -0.0106434 0)
(8.36562 -0.0114937 0)
(8.36692 -0.012381 0)
(8.36817 -0.0133046 0)
(8.36937 -0.014264 0)
(8.3705 -0.0152583 0)
(8.37158 -0.0162867 0)
(8.37261 -0.0173481 0)
(8.37358 -0.0184416 0)
(8.37449 -0.0195649 0)
(8.333 -0.00011078 0)
(8.33315 -0.000295677 0)
(8.33355 -0.000486652 0)
(8.33419 -0.000719995 0)
(8.33505 -0.00100723 0)
(8.33611 -0.00134618 0)
(8.33734 -0.00172842 0)
(8.3387 -0.00214492 0)
(8.34016 -0.00258876 0)
(8.3417 -0.00305599 0)
(8.3433 -0.00354315 0)
(8.34493 -0.00404961 0)
(8.34658 -0.00457606 0)
(8.34824 -0.00512342 0)
(8.34989 -0.00569278 0)
(8.35153 -0.00628548 0)
(8.35315 -0.00690289 0)
(8.35474 -0.00754624 0)
(8.3563 -0.00821668 0)
(8.35782 -0.00891519 0)
(8.3593 -0.00964257 0)
(8.36074 -0.0103995 0)
(8.36213 -0.0111864 0)
(8.36346 -0.0120036 0)
(8.36475 -0.0128514 0)
(8.36598 -0.0137295 0)
(8.36716 -0.0146381 0)
(8.36828 -0.0155766 0)
(8.36935 -0.0165446 0)
(8.37035 -0.0175417 0)
(8.3713 -0.018567 0)
(8.37219 -0.0196199 0)
(8.37303 -0.0206985 0)
(8.33306 -0.000309741 0)
(8.33334 -0.0010011 0)
(8.33381 -0.00176969 0)
(8.33443 -0.00254702 0)
(8.33523 -0.00327729 0)
(8.3362 -0.00394054 0)
(8.33734 -0.00453838 0)
(8.33862 -0.0050816 0)
(8.34 -0.00558369 0)
(8.34148 -0.00605875 0)
(8.34302 -0.00651905 0)
(8.3446 -0.00697501 0)
(8.34621 -0.00743529 0)
(8.34782 -0.00790685 0)
(8.34944 -0.0083951 0)
(8.35104 -0.00890428 0)
(8.35262 -0.00943761 0)
(8.35418 -0.00999747 0)
(8.35569 -0.0105856 0)
(8.35717 -0.0112032 0)
(8.35861 -0.0118511 0)
(8.36 -0.0125299 0)
(8.36134 -0.0132397 0)
(8.36262 -0.0139806 0)
(8.36385 -0.0147525 0)
(8.36503 -0.0155551 0)
(8.36615 -0.0163879 0)
(8.36721 -0.0172504 0)
(8.36821 -0.0181418 0)
(8.36916 -0.0190615 0)
(8.37004 -0.0200085 0)
(8.37086 -0.020982 0)
(8.37163 -0.0219802 0)
(8.33294 -6.46853e-05 0)
(8.33286 -0.000108388 0)
(8.33308 -0.000220775 0)
(8.33368 -0.000525908 0)
(8.33458 -0.001028 0)
(8.33571 -0.00166981 0)
(8.33701 -0.00239166 0)
(8.33842 -0.00315132 0)
(8.33993 -0.00392249 0)
(8.34148 -0.00468995 0)
(8.34308 -0.0054458 0)
(8.34469 -0.00618732 0)
(8.3463 -0.0069152 0)
(8.34791 -0.00763199 0)
(8.3495 -0.00834113 0)
(8.35107 -0.00904641 0)
(8.35261 -0.00975163 0)
(8.35411 -0.0104603 0)
(8.35558 -0.0111758 0)
(8.357 -0.0119008 0)
(8.35837 -0.0126378 0)
(8.3597 -0.013389 0)
(8.36097 -0.014156 0)
(8.36218 -0.0149403 0)
(8.36335 -0.0157429 0)
(8.36445 -0.0165646 0)
(8.3655 -0.017406 0)
(8.36649 -0.0182675 0)
(8.36742 -0.0191492 0)
(8.36829 -0.0200509 0)
(8.3691 -0.0209726 0)
(8.36985 -0.0219139 0)
(8.37054 -0.0228735 0)
(8.33317 -0.000768847 0)
(8.33367 -0.00265171 0)
(8.33407 -0.00459984 0)
(8.33447 -0.00626224 0)
(8.33503 -0.00756665 0)
(8.33582 -0.00856875 0)
(8.33684 -0.00934309 0)
(8.33805 -0.00995379 0)
(8.3394 -0.0104523 0)
(8.34085 -0.0108786 0)
(8.34238 -0.0112628 0)
(8.34395 -0.0116271 0)
(8.34554 -0.0119874 0)
(8.34714 -0.0123549 0)
(8.34873 -0.0127375 0)
(8.35029 -0.0131406 0)
(8.35183 -0.0135676 0)
(8.35333 -0.0140209 0)
(8.35479 -0.014502 0)
(8.35621 -0.0150115 0)
(8.35757 -0.0155498 0)
(8.35888 -0.016117 0)
(8.36013 -0.0167127 0)
(8.36132 -0.0173365 0)
(8.36246 -0.0179881 0)
(8.36353 -0.0186666 0)
(8.36454 -0.0193714 0)
(8.3655 -0.0201018 0)
(8.36639 -0.020857 0)
(8.36721 -0.0216361 0)
(8.36798 -0.0224382 0)
(8.36868 -0.0232626 0)
(8.36932 -0.0241077 0)
(8.33263 0.000577316 0)
(8.33174 0.00199947 0)
(8.33174 0.0028837 0)
(8.33259 0.00280579 0)
(8.33386 0.00196838 0)
(8.33533 0.000733868 0)
(8.33688 -0.000661785 0)
(8.33849 -0.00209433 0)
(8.34012 -0.00349692 0)
(8.34174 -0.00483371 0)
(8.34336 -0.00608942 0)
(8.34497 -0.00726172 0)
(8.34655 -0.00835537 0)
(8.3481 -0.00937852 0)
(8.34962 -0.0103408 0)
(8.35111 -0.0112519 0)
(8.35256 -0.0121212 0)
(8.35396 -0.0129573 0)
(8.35533 -0.0137676 0)
(8.35664 -0.0145587 0)
(8.3579 -0.0153363 0)
(8.35911 -0.0161054 0)
(8.36027 -0.0168698 0)
(8.36137 -0.0176331 0)
(8.36242 -0.018398 0)
(8.36341 -0.0191669 0)
(8.36434 -0.0199415 0)
(8.36521 -0.0207234 0)
(8.36602 -0.0215137 0)
(8.36677 -0.022313 0)
(8.36746 -0.023122 0)
(8.36809 -0.023941 0)
(8.36866 -0.0247695 0)
(8.33358 -0.00195197 0)
(8.33467 -0.00687989 0)
(8.33443 -0.0116547 0)
(8.33373 -0.0148304 0)
(8.33349 -0.0166002 0)
(8.3339 -0.0175556 0)
(8.33478 -0.0180239 0)
(8.33597 -0.0181989 0)
(8.33738 -0.018215 0)
(8.33893 -0.0181595 0)
(8.34057 -0.0180866 0)
(8.34225 -0.018029 0)
(8.34395 -0.0180055 0)
(8.34563 -0.0180261 0)
(8.34729 -0.0180953 0)
(8.34892 -0.0182143 0)
(8.3505 -0.0183825 0)
(8.35203 -0.018598 0)
(8.35351 -0.0188584 0)
(8.35493 -0.0191611 0)
(8.35629 -0.0195034 0)
(8.35758 -0.0198829 0)
(8.35882 -0.0202971 0)
(8.35999 -0.0207439 0)
(8.3611 -0.0212211 0)
(8.36214 -0.021727 0)
(8.36312 -0.0222597 0)
(8.36403 -0.0228177 0)
(8.36487 -0.0233995 0)
(8.36566 -0.0240038 0)
(8.36638 -0.0246294 0)
(8.36703 -0.0252754 0)
(8.36763 -0.0259399 0)
(8.33162 0.00369773 0)
(8.32827 0.0102559 0)
(8.32843 0.0134229 0)
(8.33099 0.0133772 0)
(8.3336 0.0113311 0)
(8.3358 0.00849733 0)
(8.33777 0.00550599 0)
(8.33958 0.00260092 0)
(8.34127 -0.000105779 0)
(8.34286 -0.00256613 0)
(8.34439 -0.00477465 0)
(8.34588 -0.00674726 0)
(8.34733 -0.00850819 0)
(8.34875 -0.0100842 0)
(8.35016 -0.0115016 0)
(8.35153 -0.0127847 0)
(8.35289 -0.0139549 0)
(8.35421 -0.0150312 0)
(8.35551 -0.0160297 0)
(8.35677 -0.016964 0)
(8.35799 -0.0178459 0)
(8.35918 -0.0186849 0)
(8.36032 -0.0194895 0)
(8.36142 -0.0202663 0)
(8.36247 -0.0210212 0)
(8.36346 -0.0217589 0)
(8.36441 -0.0224834 0)
(8.3653 -0.0231979 0)
(8.36614 -0.023905 0)
(8.36692 -0.024607 0)
(8.36765 -0.0253055 0)
(8.36831 -0.0260017 0)
(8.36892 -0.0266962 0)
(8.3343 -0.00642551 0)
(8.33462 -0.020661 0)
(8.33074 -0.0298779 0)
(8.32674 -0.0338567 0)
(8.32482 -0.0347405 0)
(8.32491 -0.0341825 0)
(8.3261 -0.0329946 0)
(8.32784 -0.0315743 0)
(8.32992 -0.0301436 0)
(8.33219 -0.028819 0)
(8.33456 -0.027652 0)
(8.33697 -0.026659 0)
(8.33938 -0.0258383 0)
(8.34176 -0.0251794 0)
(8.34409 -0.0246675 0)
(8.34637 -0.0242869 0)
(8.34859 -0.0240222 0)
(8.35074 -0.0238591 0)
(8.35281 -0.0237848 0)
(8.35481 -0.023788 0)
(8.35674 -0.0238589 0)
(8.35859 -0.0239891 0)
(8.36035 -0.0241712 0)
(8.36204 -0.0243991 0)
(8.36365 -0.0246674 0)
(8.36518 -0.0249716 0)
(8.36663 -0.0253078 0)
(8.36799 -0.0256726 0)
(8.36928 -0.0260631 0)
(8.37049 -0.0264771 0)
(8.37163 -0.0269122 0)
(8.37268 -0.0273671 0)
(8.37367 -0.0278397 0)
(8.32884 0.0226004 0)
(8.32235 0.0427861 0)
(8.32668 0.0440249 0)
(8.33332 0.0380773 0)
(8.33784 0.0307387 0)
(8.34069 0.0236005 0)
(8.34301 0.0169752 0)
(8.3452 0.0110389 0)
(8.34741 0.00584702 0)
(8.34969 0.00135197 0)
(8.35206 -0.00252639 0)
(8.35454 -0.00586989 0)
(8.35709 -0.00875611 0)
(8.3597 -0.0112555 0)
(8.36234 -0.0134293 0)
(8.365 -0.0153299 0)
(8.36764 -0.0170013 0)
(8.37027 -0.0184807 0)
(8.37285 -0.0197992 0)
(8.37538 -0.0209825 0)
(8.37785 -0.0220523 0)
(8.38025 -0.0230268 0)
(8.38258 -0.023921 0)
(8.38482 -0.0247475 0)
(8.38697 -0.0255169 0)
(8.38904 -0.0262382 0)
(8.39101 -0.0269189 0)
(8.39289 -0.0275652 0)
(8.39467 -0.0281826 0)
(8.39636 -0.0287756 0)
(8.39795 -0.0293483 0)
(8.39945 -0.0299034 0)
(8.40085 -0.0304452 0)
(8.32436 -0.0380243 0)
(8.29386 -0.0683035 0)
(8.27217 -0.0716668 0)
(8.2667 -0.0685572 0)
(8.27358 -0.0641976 0)
(8.2862 -0.0593637 0)
(8.30094 -0.0546781 0)
(8.31624 -0.0505001 0)
(8.33126 -0.0468904 0)
(8.34553 -0.0438234 0)
(8.35886 -0.041254 0)
(8.37118 -0.0391229 0)
(8.38251 -0.0373681 0)
(8.39288 -0.0359326 0)
(8.40235 -0.034766 0)
(8.41099 -0.0338254 0)
(8.41887 -0.0330739 0)
(8.42604 -0.0324811 0)
(8.43256 -0.0320214 0)
(8.43849 -0.0316736 0)
(8.44388 -0.0314201 0)
(8.44876 -0.0312464 0)
(8.45318 -0.0311406 0)
(8.45718 -0.0310925 0)
(8.46078 -0.0310937 0)
(8.46402 -0.0311373 0)
(8.46691 -0.0312174 0)
(8.4695 -0.0313289 0)
(8.47179 -0.0314676 0)
(8.47381 -0.0316299 0)
(8.47558 -0.0318124 0)
(8.47711 -0.0320122 0)
(8.47843 -0.0322256 0)
(8.34002 0.156991 0)
(8.38199 0.149002 0)
(8.4025 0.103388 0)
(8.39944 0.0645093 0)