/*--------------------------------*- C++ -*----------------------------------*\
| =========                 |                                                 |
| \\      /  F ield         | OpenFOAM: The Open Source CFD Toolbox           |
|  \\    /   O peration     | Version:  2.1.1                                 |
|   \\  /    A nd           | Web:      www.OpenFOAM.org                      |
|    \\/     M anipulation  |                                                 |
\*---------------------------------------------------------------------------*/
FoamFile
{
    version     2.0;
    format      ascii;
    class       volScalarField;
    location    "0.04";
    object      nuSgs;
}
// * * * * * * * * * * * * * * * * * * * * * * * * * * * * * * * * * * * * * //

dimensions      [0 2 -1 0 0 0 0];

internalField   nonuniform List<scalar> 
6820
(
0.000556015
0.000457396
0.00036809
0.000306018
0.000268754
0.000243056
0.000224114
0.0002096
0.000197853
0.000187965
0.000179423
0.000171894
0.000165157
0.000159055
0.000153476
0.000148333
0.000143562
0.000139112
0.000134941
0.000131018
0.000127316
0.000123814
0.000120494
0.000117343
0.000114349
0.000111504
0.000108802
0.000106239
0.000103808
0.000101536
9.93989e-05
9.73178e-05
9.54508e-05
0.000103502
0.000170676
0.000223672
0.000240042
0.000235278
0.000224901
0.000213184
0.000201874
0.000191613
0.000182417
0.000174168
0.000166734
0.000159991
0.000153835
0.000148184
0.000142966
0.000138125
0.000133613
0.000129389
0.00012542
0.000121677
0.000118136
0.000114777
0.000111581
0.000108533
0.000105621
0.000102834
0.000100156
9.75979e-05
9.51033e-05
9.28342e-05
9.03581e-05
8.93558e-05
3.67744e-05
2.84711e-05
4.56423e-05
8.23578e-05
0.000108034
0.000123665
0.000132129
0.000136014
0.000137148
0.0001366
0.000135013
0.000132783
0.000130161
0.00012731
0.000124338
0.000121316
0.000118291
0.000115296
0.00011235
0.000109467
0.000106655
0.000103918
0.000101258
9.86746e-05
9.6166e-05
9.37299e-05
9.13633e-05
8.9062e-05
8.68257e-05
8.46341e-05
8.25113e-05
8.03393e-05
7.83951e-05
2.07369e-05
2.86784e-05
2.65462e-05
1.50557e-05
3.64136e-06
1.39462e-05
2.58299e-05
3.57132e-05
4.36978e-05
5.00565e-05
5.50627e-05
5.89594e-05
6.19474e-05
6.41834e-05
6.58013e-05
6.6911e-05
6.7603e-05
6.79517e-05
6.80182e-05
6.78525e-05
6.74958e-05
6.69819e-05
6.63384e-05
6.55877e-05
6.47482e-05
6.38342e-05
6.28578e-05
6.18263e-05
6.0748e-05
5.9619e-05
5.84545e-05
5.72265e-05
5.60273e-05
1.44217e-05
1.75783e-05
2.25981e-05
2.42946e-05
2.39674e-05
2.1985e-05
1.90859e-05
1.58082e-05
1.23852e-05
8.96729e-06
5.66376e-06
2.56231e-06
7.74802e-07
3.22082e-06
5.66157e-06
7.88126e-06
9.87477e-06
1.16504e-05
1.32203e-05
1.45984e-05
1.57988e-05
1.68353e-05
1.7721e-05
1.84678e-05
1.90865e-05
1.95864e-05
1.99755e-05
2.02595e-05
2.04434e-05
2.05265e-05
2.05114e-05
2.03883e-05
2.01575e-05
1.09225e-05
1.24909e-05
1.38117e-05
1.43211e-05
1.51078e-05
1.57497e-05
1.61302e-05
1.63416e-05
1.63869e-05
1.62706e-05
1.60161e-05
1.56466e-05
1.5185e-05
1.4646e-05
1.40487e-05
1.34111e-05
1.27485e-05
1.20744e-05
1.13997e-05
1.07331e-05
1.00819e-05
9.45161e-06
8.84676e-06
8.27098e-06
7.72724e-06
7.21825e-06
6.7464e-06
6.31469e-06
5.92573e-06
5.58499e-06
5.29553e-06
5.06772e-06
4.90901e-06
8.24818e-06
9.42229e-06
1.02356e-05
1.00308e-05
9.84024e-06
9.66224e-06
9.47975e-06
9.39504e-06
9.39694e-06
9.4412e-06
9.50077e-06
9.55765e-06
9.60045e-06
9.62676e-06
9.63389e-06
9.62068e-06
9.58728e-06
9.5348e-06
9.46483e-06
9.37929e-06
9.28025e-06
9.16987e-06
9.05029e-06
8.92368e-06
8.79219e-06
8.65801e-06
8.52328e-06
8.39058e-06
8.26208e-06
8.14198e-06
8.03208e-06
7.94252e-06
7.8772e-06
6.36602e-06
7.40454e-06
8.20433e-06
8.06366e-06
7.75065e-06
7.40908e-06
7.02989e-06
6.70435e-06
6.45134e-06
6.25031e-06
6.08863e-06
5.95737e-06
5.84773e-06
5.75319e-06
5.66957e-06
5.59384e-06
5.52362e-06
5.45709e-06
5.39297e-06
5.33036e-06
5.26873e-06
5.2078e-06
5.14752e-06
5.08805e-06
5.02969e-06
4.97296e-06
4.91845e-06
4.86712e-06
4.8198e-06
4.77845e-06
4.74382e-06
4.72045e-06
4.70991e-06
5.00738e-06
5.85609e-06
6.53024e-06
6.51923e-06
6.34823e-06
6.13832e-06
5.85321e-06
5.56506e-06
5.31229e-06
5.09124e-06
4.89721e-06
4.72684e-06
4.5754e-06
4.4388e-06
4.31428e-06
4.19974e-06
4.09354e-06
3.9945e-06
3.90171e-06
3.81453e-06
3.73249e-06
3.65524e-06
3.58258e-06
3.51441e-06
3.45073e-06
3.39163e-06
3.33726e-06
3.28794e-06
3.24386e-06
3.20567e-06
3.17328e-06
3.14742e-06
3.12867e-06
4.00378e-06
4.70639e-06
5.29775e-06
5.36296e-06
5.25688e-06
5.10594e-06
4.88738e-06
4.65597e-06
4.44925e-06
4.26635e-06
4.10279e-06
3.95643e-06
3.82427e-06
3.70343e-06
3.59196e-06
3.48848e-06
3.39192e-06
3.30144e-06
3.21642e-06
3.13635e-06
3.06086e-06
2.98965e-06
2.92252e-06
2.85929e-06
2.79985e-06
2.74409e-06
2.69188e-06
2.64307e-06
2.59735e-06
2.55433e-06
2.51308e-06
2.47212e-06
2.4304e-06
3.24635e-06
3.83564e-06
4.35568e-06
4.46104e-06
4.40229e-06
4.29926e-06
4.13598e-06
3.94913e-06
3.77324e-06
3.61266e-06
3.46604e-06
3.3334e-06
3.21343e-06
3.10411e-06
3.00386e-06
2.9114e-06
2.82568e-06
2.74581e-06
2.67109e-06
2.60096e-06
2.53495e-06
2.47269e-06
2.41384e-06
2.3581e-06
2.30513e-06
2.25457e-06
2.20597e-06
2.15875e-06
2.11208e-06
2.06482e-06
2.01534e-06
1.96114e-06
1.89983e-06
2.66196e-06
3.16205e-06
3.62898e-06
3.76813e-06
3.75376e-06
3.68799e-06
3.56316e-06
3.40734e-06
3.2534e-06
3.10966e-06
2.97665e-06
2.85514e-06
2.74465e-06
2.64375e-06
2.55115e-06
2.46581e-06
2.38681e-06
2.31338e-06
2.24484e-06
2.18065e-06
2.12028e-06
2.06329e-06
2.00921e-06
1.95759e-06
1.90789e-06
1.85953e-06
1.81177e-06
1.76367e-06
1.71402e-06
1.66123e-06
1.60322e-06
1.53714e-06
1.45988e-06
2.20099e-06
2.63318e-06
3.06092e-06
3.22388e-06
3.2436e-06
3.20691e-06
3.11431e-06
2.9879e-06
2.85634e-06
2.72946e-06
2.6092e-06
2.49723e-06
2.39409e-06
2.2992e-06
2.2118e-06
2.13116e-06
2.05656e-06
1.98731e-06
1.92278e-06
1.86237e-06
1.80553e-06
1.7517e-06
1.70032e-06
1.6508e-06
1.60246e-06
1.55451e-06
1.506e-06
1.45578e-06
1.40238e-06
1.34398e-06
1.27831e-06
1.20274e-06
1.11342e-06
1.8298e-06
2.21139e-06
2.61015e-06
2.79182e-06
2.84107e-06
2.83016e-06
2.7646e-06
2.66258e-06
2.54924e-06
2.43579e-06
2.32578e-06
2.2217e-06
2.12484e-06
2.03518e-06
1.95229e-06
1.87564e-06
1.80462e-06
1.73863e-06
1.67704e-06
1.61927e-06
1.56473e-06
1.51283e-06
1.46294e-06
1.41436e-06
1.36632e-06
1.31792e-06
1.26808e-06
1.21553e-06
1.15875e-06
1.09586e-06
1.02464e-06
9.42797e-07
8.4605e-07
1.52492e-06
1.87032e-06
2.24854e-06
2.44566e-06
2.51965e-06
2.53026e-06
2.48669e-06
2.40525e-06
2.30821e-06
2.20726e-06
2.10695e-06
2.0103e-06
1.91907e-06
1.83377e-06
1.75435e-06
1.68051e-06
1.61186e-06
1.54788e-06
1.48804e-06
1.43178e-06
1.3785e-06
1.32758e-06
1.27835e-06
1.23007e-06
1.18192e-06
1.13296e-06
1.08209e-06
1.02805e-06
9.69402e-07
9.04466e-07
8.31294e-07
7.48107e-07
6.51027e-07
1.26967e-06
1.59111e-06
1.95561e-06
2.166e-06
2.26125e-06
2.29097e-06
2.26659e-06
2.20322e-06
2.12061e-06
2.03051e-06
1.93837e-06
1.84775e-06
1.76096e-06
1.67899e-06
1.60212e-06
1.53031e-06
1.4633e-06
1.40068e-06
1.34198e-06
1.28666e-06
1.23414e-06
1.18381e-06
1.13499e-06
1.08695e-06
1.03888e-06
9.89901e-07
9.39009e-07
8.85118e-07
8.2704e-07
7.63543e-07
6.93368e-07
6.15986e-07
5.29266e-07
1.05198e-06
1.36021e-06
1.71685e-06
1.93914e-06
2.05293e-06
2.09965e-06
2.09188e-06
2.04407e-06
1.97412e-06
1.89366e-06
1.80885e-06
1.72371e-06
1.64093e-06
1.56186e-06
1.4871e-06
1.41681e-06
1.3509e-06
1.28909e-06
1.23099e-06
1.17613e-06
1.12399e-06
1.074e-06
1.02554e-06
9.77948e-07
9.30511e-07
8.8248e-07
8.3308e-07
7.81537e-07
7.27155e-07
6.69436e-07
6.08242e-07
5.44762e-07
4.80059e-07
8.63063e-07
1.16802e-06
1.52188e-06
1.75513e-06
1.88525e-06
1.94729e-06
1.95433e-06
1.9204e-06
1.86189e-06
1.79022e-06
1.71199e-06
1.63165e-06
1.55222e-06
1.47545e-06
1.40221e-06
1.33292e-06
1.26765e-06
1.20627e-06
1.14849e-06
1.09393e-06
1.04214e-06
9.92641e-07
9.449e-07
8.98374e-07
8.52517e-07
8.06802e-07
7.60768e-07
7.14081e-07
6.66666e-07
6.18881e-07
5.7181e-07
5.28052e-07
4.90806e-07
6.96614e-07
1.00804e-06
1.36346e-06
1.60696e-06
1.75157e-06
1.8275e-06
1.84786e-06
1.82629e-06
1.77805e-06
1.71427e-06
1.64193e-06
1.56585e-06
1.48935e-06
1.4145e-06
1.34247e-06
1.27387e-06
1.20897e-06
1.14777e-06
1.0901e-06
1.0357e-06
9.84244e-07
9.35344e-07
8.88618e-07
8.43683e-07
8.00199e-07
7.57903e-07
7.1667e-07
6.76599e-07
6.38149e-07
6.02285e-07
5.70724e-07
5.46197e-07
5.31866e-07
5.4863e-07
8.76513e-07
1.23682e-06
1.48982e-06
1.64728e-06
1.73579e-06
1.7682e-06
1.7578e-06
1.71891e-06
1.66241e-06
1.59552e-06
1.52337e-06
1.44955e-06
1.37642e-06
1.30541e-06
1.23737e-06
1.17274e-06
1.11168e-06
1.05417e-06
1.00006e-06
9.49167e-07
9.01233e-07
8.56027e-07
8.13342e-07
7.73042e-07
7.35108e-07
6.99693e-07
6.67193e-07
6.38351e-07
6.14297e-07
5.96692e-07
5.87562e-07
5.89134e-07
4.1812e-07
7.72257e-07
1.13918e-06
1.40064e-06
1.56935e-06
1.66918e-06
1.7125e-06
1.71214e-06
1.68171e-06
1.63177e-06
1.56971e-06
1.50093e-06
1.42927e-06
1.35737e-06
1.2869e-06
1.21895e-06
1.15415e-06
1.09282e-06
1.03509e-06
9.80958e-07
9.3036e-07
8.83193e-07
8.39361e-07
7.98813e-07
7.61572e-07
7.27777e-07
6.97725e-07
6.71906e-07
6.51058e-07
6.36117e-07
6.28322e-07
6.28813e-07
6.39079e-07
3.1024e-07
6.96654e-07
1.06942e-06
1.33779e-06
1.51612e-06
1.62605e-06
1.67924e-06
1.68803e-06
1.66539e-06
1.62164e-06
1.56425e-06
1.49883e-06
1.42945e-06
1.35898e-06
1.28932e-06
1.22176e-06
1.15708e-06
1.09578e-06
1.03812e-06
9.84239e-07
9.34186e-07
8.87985e-07
8.4566e-07
8.07271e-07
7.7294e-07
7.42878e-07
7.17406e-07
6.96958e-07
6.8211e-07
6.73489e-07
6.71882e-07
6.77828e-07
6.92214e-07
2.44441e-07
6.5312e-07
1.02769e-06
1.30076e-06
1.48692e-06
1.60557e-06
1.66742e-06
1.68418e-06
1.66823e-06
1.62961e-06
1.57585e-06
1.51273e-06
1.44455e-06
1.37441e-06
1.30446e-06
1.23618e-06
1.17056e-06
1.10825e-06
1.04966e-06
9.95045e-07
9.44561e-07
8.98326e-07
8.56442e-07
8.19025e-07
7.86225e-07
7.58244e-07
7.35338e-07
7.17813e-07
7.06034e-07
7.00327e-07
7.01125e-07
7.08492e-07
7.23089e-07
2.53086e-07
6.45688e-07
1.01506e-06
1.2901e-06
1.4823e-06
1.60857e-06
1.67837e-06
1.70272e-06
1.69345e-06
1.66032e-06
1.61083e-06
1.55085e-06
1.48482e-06
1.41601e-06
1.34672e-06
1.2786e-06
1.21278e-06
1.15005e-06
1.09093e-06
1.03578e-06
9.8485e-07
9.38325e-07
8.96362e-07
8.59102e-07
8.26697e-07
7.99305e-07
7.77101e-07
7.60264e-07
7.48983e-07
7.43393e-07
7.43687e-07
7.49813e-07
7.62043e-07
3.3456e-07
6.76875e-07
1.03312e-06
1.30696e-06
1.50306e-06
1.63511e-06
1.71096e-06
1.74077e-06
1.73582e-06
1.70566e-06
1.65784e-06
1.59838e-06
1.53195e-06
1.46202e-06
1.39111e-06
1.32104e-06
1.2531e-06
1.18819e-06
1.12691e-06
1.0697e-06
1.01684e-06
9.68545e-07
9.24973e-07
8.86247e-07
8.52476e-07
8.23755e-07
8.00167e-07
7.81776e-07
7.68637e-07
7.6073e-07
7.58095e-07
7.6047e-07
7.68142e-07
4.59017e-07
7.46414e-07
1.0836e-06
1.3537e-06
1.55259e-06
1.69042e-06
1.77325e-06
1.81018e-06
1.81186e-06
1.78739e-06
1.74411e-06
1.68798e-06
1.62369e-06
1.55482e-06
1.48403e-06
1.4133e-06
1.34404e-06
1.27729e-06
1.21379e-06
1.15405e-06
1.09844e-06
1.04721e-06
1.00055e-06
9.58568e-07
9.21363e-07
8.88986e-07
8.61468e-07
8.3881e-07
8.21001e-07
8.07987e-07
7.99728e-07
7.96139e-07
7.97039e-07
6.11304e-07
8.5321e-07
1.16889e-06
1.4326e-06
1.63117e-06
1.77082e-06
1.85556e-06
1.89366e-06
1.89554e-06
1.87035e-06
1.8256e-06
1.76742e-06
1.7007e-06
1.62912e-06
1.55545e-06
1.48171e-06
1.40935e-06
1.33942e-06
1.27264e-06
1.20951e-06
1.15039e-06
1.09549e-06
1.04496e-06
9.98874e-07
9.57283e-07
9.20189e-07
8.87572e-07
8.59386e-07
8.35577e-07
8.16039e-07
8.00701e-07
7.89362e-07
7.82015e-07
7.88586e-07
9.9564e-07
1.29103e-06
1.54919e-06
1.75055e-06
1.89779e-06
1.99218e-06
2.04016e-06
2.05097e-06
2.03299e-06
1.99333e-06
1.93809e-06
1.87229e-06
1.79988e-06
1.7239e-06
1.64667e-06
1.56991e-06
1.49487e-06
1.42244e-06
1.35324e-06
1.28769e-06
1.22605e-06
1.16848e-06
1.11505e-06
1.06578e-06
1.02066e-06
9.79628e-07
9.42632e-07
9.09595e-07
8.80461e-07
8.5513e-07
8.33762e-07
8.15618e-07
9.95686e-07
1.17919e-06
1.45725e-06
1.70559e-06
1.89971e-06
2.04006e-06
2.12717e-06
2.16796e-06
2.1724e-06
2.14923e-06
2.10555e-06
2.04724e-06
1.97902e-06
1.90454e-06
1.82656e-06
1.74717e-06
1.66794e-06
1.59e-06
1.51419e-06
1.44108e-06
1.37108e-06
1.30442e-06
1.24127e-06
1.18167e-06
1.12565e-06
1.07315e-06
1.02414e-06
9.78518e-07
9.36224e-07
8.9717e-07
8.61261e-07
8.28515e-07
7.98492e-07
1.23673e-06
1.40038e-06
1.6674e-06
1.91941e-06
2.12923e-06
2.29158e-06
2.40051e-06
2.45902e-06
2.47559e-06
2.45881e-06
2.41636e-06
2.35514e-06
2.28092e-06
2.19829e-06
2.11077e-06
2.02099e-06
1.93091e-06
1.8419e-06
1.75493e-06
1.67063e-06
1.58941e-06
1.51151e-06
1.43701e-06
1.36596e-06
1.29829e-06
1.23395e-06
1.17283e-06
1.11484e-06
1.05989e-06
1.00793e-06
9.58813e-07
9.12991e-07
8.68888e-07
1.53252e-06
1.69345e-06
1.94885e-06
2.1757e-06
2.35275e-06
2.48319e-06
2.56652e-06
2.6083e-06
2.61693e-06
2.59898e-06
2.55963e-06
2.50356e-06
2.43493e-06
2.35719e-06
2.27326e-06
2.18548e-06
2.09577e-06
2.0056e-06
1.91608e-06
1.82804e-06
1.74202e-06
1.65841e-06
1.5774e-06
1.49909e-06
1.42349e-06
1.35054e-06
1.28018e-06
1.21229e-06
1.14679e-06
1.0836e-06
1.02256e-06
9.63877e-07
9.0635e-07
1.87493e-06
2.0143e-06
2.28649e-06
2.56947e-06
2.81884e-06
3.01265e-06
3.13644e-06
3.19504e-06
3.20217e-06
3.17044e-06
3.1102e-06
3.03005e-06
2.93668e-06
2.835e-06
2.7285e-06
2.61969e-06
2.51035e-06
2.4017e-06
2.29459e-06
2.18959e-06
2.08707e-06
1.98725e-06
1.89023e-06
1.79602e-06
1.70459e-06
1.61588e-06
1.52979e-06
1.44624e-06
1.36516e-06
1.28656e-06
1.21025e-06
1.13694e-06
1.06412e-06
2.3591e-06
2.53106e-06
2.74867e-06
2.90758e-06
3.03698e-06
3.15708e-06
3.25629e-06
3.32606e-06
3.36445e-06
3.37092e-06
3.34708e-06
3.29703e-06
3.22577e-06
3.13817e-06
3.03864e-06
2.93092e-06
2.81809e-06
2.70254e-06
2.58606e-06
2.46997e-06
2.3552e-06
2.24234e-06
2.13178e-06
2.02371e-06
1.91819e-06
1.81522e-06
1.71475e-06
1.6167e-06
1.52103e-06
1.42778e-06
1.33687e-06
1.24889e-06
1.16198e-06
2.83889e-06
2.9705e-06
3.38757e-06
3.8218e-06
4.15093e-06
4.3549e-06
4.44334e-06
4.44738e-06
4.39695e-06
4.3103e-06
4.19862e-06
4.0699e-06
3.92969e-06
3.78181e-06
3.62923e-06
3.47437e-06
3.31924e-06
3.16547e-06
3.01436e-06
2.86689e-06
2.72374e-06
2.58534e-06
2.45191e-06
2.32347e-06
2.19993e-06
2.0811e-06
1.96672e-06
1.85658e-06
1.75047e-06
1.64837e-06
1.55012e-06
1.45693e-06
1.36571e-06
3.88374e-06
4.0061e-06
3.9427e-06
3.89248e-06
4.01928e-06
4.25039e-06
4.46184e-06
4.60419e-06
4.67435e-06
4.68214e-06
4.64392e-06
4.57759e-06
4.49758e-06
4.41384e-06
4.33255e-06
4.25688e-06
4.18789e-06
4.12532e-06
4.06823e-06
4.01544e-06
3.96573e-06
3.91801e-06
3.87137e-06
3.82505e-06
3.77845e-06
3.73108e-06
3.68257e-06
3.63263e-06
3.58115e-06
3.52821e-06
3.47406e-06
3.42056e-06
3.36575e-06
4.34952e-06
4.95038e-06
5.95244e-06
6.45204e-06
6.58014e-06
6.56612e-06
6.56255e-06
6.67288e-06
6.9263e-06
7.29144e-06
7.71951e-06
8.16697e-06
8.60066e-06
8.99842e-06
9.34764e-06
9.64268e-06
9.88246e-06
1.00689e-05
1.02055e-05
1.02968e-05
1.03476e-05
1.03626e-05
1.03462e-05
1.03026e-05
1.02354e-05
1.01476e-05
1.00418e-05
9.92013e-06
9.78434e-06
9.6356e-06
9.47572e-06
9.30709e-06
9.13065e-06
7.54513e-06
5.82461e-06
4.65334e-06
6.25687e-06
8.98501e-06
1.16885e-05
1.40123e-05
1.58966e-05
1.73417e-05
1.83625e-05
1.89966e-05
1.92921e-05
1.92989e-05
1.90662e-05
1.86405e-05
1.80642e-05
1.73744e-05
1.66025e-05
1.57751e-05
1.49136e-05
1.40353e-05
1.31535e-05
1.22785e-05
1.14178e-05
1.05768e-05
9.75876e-06
8.96561e-06
8.19752e-06
7.45405e-06
6.73158e-06
6.03085e-06
5.3404e-06
4.67545e-06
8.58179e-06
1.47362e-05
1.88388e-05
2.12397e-05
2.23276e-05
2.1857e-05
2.0005e-05
1.72245e-05
1.39833e-05
1.08998e-05
8.97108e-06
9.27304e-06
1.15798e-05
1.48067e-05
1.82652e-05
2.16511e-05
2.48323e-05
2.77525e-05
3.03917e-05
3.27495e-05
3.48362e-05
3.66673e-05
3.82616e-05
3.96385e-05
4.08176e-05
4.18177e-05
4.26569e-05
4.3353e-05
4.39231e-05
4.43886e-05
4.47649e-05
4.51104e-05
4.54142e-05
3.46333e-05
3.72123e-05
4.66448e-05
6.17564e-05
7.74437e-05
9.28181e-05
0.00010718
0.000119825
0.000130566
0.000139449
0.000146588
0.000152146
0.000156311
0.000159269
0.000161195
0.000162248
0.00016257
0.000162283
0.000161493
0.000160293
0.000158758
0.000156954
0.000154936
0.000152747
0.000150427
0.000148005
0.000145507
0.000142951
0.000140354
0.000137721
0.000135054
0.000132443
0.000129898
0.00060844
0.000582496
0.000556871
0.000530407
0.000504406
0.000479188
0.000454793
0.000431492
0.000409464
0.000388765
0.000369409
0.00035138
0.000334629
0.000319085
0.00030467
0.000291297
0.000278883
0.000267341
0.000256594
0.000246566
0.000237188
0.000228397
0.000220136
0.000212354
0.000205005
0.000198047
0.000191442
0.000185154
0.000179144
0.000173392
0.000167766
0.000162805
0.000158283
8.52148e-05
8.0128e-05
7.85726e-05
8.35038e-05
9.3601e-05
0.000104766
0.000110946
0.000105409
8.17071e-05
6.83233e-05
6.48537e-05
5.90647e-05
5.1766e-05
4.49072e-05
3.91682e-05
3.45157e-05
3.03463e-05
2.58676e-05
2.0547e-05
1.47001e-05
8.53143e-06
1.04143e-05
2.02518e-05
1.80153e-05
9.48187e-06
1.86522e-05
1.68489e-05
1.86724e-05
2.81003e-05
3.08396e-05
2.81257e-05
2.45064e-05
2.17328e-05
1.96145e-05
1.77978e-05
1.61545e-05
1.46589e-05
1.32992e-05
1.20612e-05
1.09329e-05
9.90555e-06
8.97109e-06
8.12138e-06
7.34804e-06
6.64296e-06
5.9988e-06
5.40942e-06
4.87012e-06
4.37694e-06
3.92529e-06
3.50901e-06
3.12129e-06
2.75813e-06
2.42204e-06
2.12235e-06
1.8703e-06
1.67113e-06
1.51921e-06
1.40033e-06
1.29858e-06
1.20237e-06
1.10707e-06
1.0142e-06
9.28192e-07
8.52609e-07
7.877e-07
7.30383e-07
6.76133e-07
6.21369e-07
5.64907e-07
5.07971e-07
4.53088e-07
4.02697e-07
3.58248e-07
3.2001e-07
2.87432e-07
2.59646e-07
2.3584e-07
2.15427e-07
1.9791e-07
1.83083e-07
1.70586e-07
1.60135e-07
1.51431e-07
1.44195e-07
1.38179e-07
1.33198e-07
1.29096e-07
1.25795e-07
1.23182e-07
1.21301e-07
1.19869e-07
1.19291e-07
1.1846e-07
1.19464e-07
1.17723e-07
1.224e-07
1.14793e-07
1.31047e-07
1.12095e-07
0.000113594
0.000105439
9.85056e-05
9.5664e-05
9.79799e-05
0.000104244
0.00011226
0.000120029
0.000117918
9.00811e-05
6.70315e-05
6.02339e-05
5.47408e-05
4.73132e-05
4.02793e-05
3.45613e-05
2.97221e-05
2.49481e-05
1.99415e-05
1.51171e-05
1.37284e-05
2.05112e-05
2.10754e-05
7.31334e-06
1.55243e-05
1.81613e-05
1.47381e-05
2.52103e-05
3.17181e-05
3.06795e-05
2.69402e-05
2.36849e-05
2.12977e-05
1.93662e-05
1.76461e-05
1.60712e-05
1.46278e-05
1.33058e-05
1.20948e-05
1.09867e-05
9.97405e-06
9.04954e-06
8.20544e-06
7.43407e-06
6.72813e-06
6.08102e-06
5.48718e-06
4.94237e-06
4.44311e-06
3.98529e-06
3.56307e-06
3.16972e-06
2.80101e-06
2.45923e-06
2.15395e-06
1.89729e-06
1.69555e-06
1.54347e-06
1.42611e-06
1.32607e-06
1.23047e-06
1.13406e-06
1.03852e-06
9.48986e-07
8.69851e-07
8.02013e-07
7.42649e-07
6.87133e-07
6.31571e-07
5.74449e-07
5.16766e-07
4.60984e-07
4.096e-07
3.64161e-07
3.25026e-07
2.9168e-07
2.63253e-07
2.38921e-07
2.18056e-07
2.00245e-07
1.85095e-07
1.72293e-07
1.61568e-07
1.52623e-07
1.45194e-07
1.39049e-07
1.33973e-07
1.29795e-07
1.2639e-07
1.23596e-07
1.21439e-07
1.19623e-07
1.18572e-07
1.17215e-07
1.1766e-07
1.15344e-07
1.19515e-07
1.1109e-07
1.27172e-07
1.06614e-07
0.000101739
9.91156e-05
9.5047e-05
9.25358e-05
9.3318e-05
9.73152e-05
0.000103221
0.000109335
0.0001159
0.000114831
9.20531e-05
6.51166e-05
5.29802e-05
4.8683e-05
4.36656e-05
3.77767e-05
3.22135e-05
2.74055e-05
2.35003e-05
2.14694e-05
2.33558e-05
2.21905e-05
7.91957e-06
1.22801e-05
1.91459e-05
1.268e-05
2.1373e-05
3.15719e-05
3.29146e-05
2.94682e-05
2.57243e-05
2.29907e-05
2.09275e-05
1.91459e-05
1.7509e-05
1.59953e-05
1.46001e-05
1.33151e-05
1.21326e-05
1.10459e-05
1.00487e-05
9.13419e-06
8.2956e-06
7.52616e-06
6.81939e-06
6.16935e-06
5.57105e-06
5.02069e-06
4.51521e-06
4.05097e-06
3.62246e-06
3.22305e-06
2.84827e-06
2.50012e-06
2.1884e-06
1.92616e-06
1.72094e-06
1.56809e-06
1.45203e-06
1.35388e-06
1.25923e-06
1.16201e-06
1.06391e-06
9.70736e-07
8.87794e-07
8.16715e-07
7.55021e-07
6.98043e-07
6.41593e-07
5.83824e-07
5.25506e-07
4.69027e-07
4.16935e-07
3.7087e-07
3.31261e-07
2.97611e-07
2.69022e-07
2.44624e-07
2.23751e-07
2.05929e-07
1.90768e-07
1.7801e-07
1.6731e-07
1.58412e-07
1.51049e-07
1.44989e-07
1.40026e-07
1.35986e-07
1.32741e-07
1.30116e-07
1.28118e-07
1.26435e-07
1.25481e-07
1.24177e-07
1.24631e-07
1.22295e-07
1.26389e-07
1.17878e-07
1.33955e-07
1.13109e-07
7.28233e-05
7.13258e-05
6.8945e-05
6.76262e-05
6.8835e-05
7.29117e-05
7.93624e-05
8.69975e-05
9.46542e-05
0.000102872
0.000104503
8.99206e-05
6.5935e-05
4.7812e-05
4.03034e-05
3.7201e-05
3.42304e-05
3.10282e-05
2.79591e-05
2.50169e-05
1.90578e-05
6.12255e-06
1.46459e-05
2.11139e-05
1.22579e-05
1.76151e-05
3.08969e-05
3.46941e-05
3.18859e-05
2.77731e-05
2.46549e-05
2.24319e-05
2.05971e-05
1.89193e-05
1.73555e-05
1.5904e-05
1.45595e-05
1.33145e-05
1.2163e-05
1.10998e-05
1.01195e-05
9.21627e-06
8.38426e-06
7.61765e-06
6.91079e-06
6.25842e-06
5.65609e-06
5.10045e-06
4.58889e-06
4.11821e-06
3.68332e-06
3.27766e-06
2.89654e-06
2.54167e-06
2.22304e-06
1.95468e-06
1.74554e-06
1.59178e-06
1.47733e-06
1.38173e-06
1.28885e-06
1.19154e-06
1.09138e-06
9.94803e-07
9.08067e-07
8.33619e-07
7.69411e-07
7.1077e-07
6.53228e-07
5.94587e-07
5.35365e-07
4.77861e-07
4.24668e-07
3.77531e-07
3.3696e-07
3.02497e-07
2.73232e-07
2.48264e-07
2.26894e-07
2.0863e-07
1.93112e-07
1.80034e-07
1.69047e-07
1.59913e-07
1.52359e-07
1.46149e-07
1.4108e-07
1.36964e-07
1.33672e-07
1.31025e-07
1.29026e-07
1.27351e-07
1.2643e-07
1.25138e-07
1.25651e-07
1.23294e-07
1.27505e-07
1.18832e-07
1.35215e-07
1.13989e-07
2.62997e-05
2.55394e-05
2.45276e-05
2.4902e-05
2.76519e-05
3.24755e-05
3.86721e-05
4.61852e-05
5.51572e-05
6.56589e-05
7.73258e-05
8.4801e-05
8.12322e-05
6.73841e-05
5.06933e-05
3.73605e-05
2.86813e-05
2.2619e-05
1.73745e-05
1.37068e-05
1.6596e-05
2.45882e-05
2.4614e-05
1.17653e-05
1.51558e-05
3.05655e-05
3.61167e-05
3.40017e-05
2.97086e-05
2.62491e-05
2.38538e-05
2.19675e-05
2.02666e-05
1.86737e-05
1.71855e-05
1.5799e-05
1.45068e-05
1.33035e-05
1.21848e-05
1.11466e-05
1.01846e-05
9.29377e-06
8.46941e-06
7.70659e-06
7.00048e-06
6.34647e-06
5.74065e-06
5.18015e-06
4.66278e-06
4.18584e-06
3.74461e-06
3.33268e-06
2.94512e-06
2.58336e-06
2.2575e-06
1.98253e-06
1.76891e-06
1.61388e-06
1.50102e-06
1.40828e-06
1.31769e-06
1.22083e-06
1.11896e-06
1.01911e-06
9.28499e-07
8.5049e-07
7.83547e-07
7.23064e-07
6.64331e-07
6.04806e-07
5.44752e-07
4.86363e-07
4.32268e-07
3.84307e-07
3.43071e-07
3.08127e-07
2.78548e-07
2.53391e-07
2.31914e-07
2.13598e-07
1.9804e-07
1.84896e-07
1.73913e-07
1.64765e-07
1.57214e-07
1.51018e-07
1.45979e-07
1.41903e-07
1.38662e-07
1.36072e-07
1.34137e-07
1.32523e-07
1.31673e-07
1.30429e-07
1.31024e-07
1.28672e-07
1.33006e-07
1.24199e-07
1.40995e-07
1.19487e-07
6.57323e-06
7.27057e-06
8.1468e-06
8.79007e-06
8.94573e-06
8.70261e-06
8.97106e-06
1.18227e-05
1.79506e-05
2.60882e-05
3.57503e-05
4.70287e-05
5.74811e-05
6.26699e-05
6.08402e-05
5.42235e-05
4.63783e-05
3.98039e-05
3.63915e-05
3.5565e-05
3.34731e-05
2.44727e-05
7.43756e-06
1.62994e-05
3.18159e-05
3.75048e-05
3.56452e-05
3.13091e-05
2.76542e-05
2.5138e-05
2.3219e-05
2.15134e-05
1.99127e-05
1.84092e-05
1.7001e-05
1.56807e-05
1.44425e-05
1.32827e-05
1.21985e-05
1.11868e-05
1.02442e-05
9.36708e-06
8.55151e-06
7.79349e-06
7.08895e-06
6.43398e-06
5.8252e-06
5.26022e-06
4.7373e-06
4.2542e-06
3.80663e-06
3.38834e-06
2.99421e-06
2.62532e-06
2.29187e-06
2.0098e-06
1.7912e-06
1.63459e-06
1.52342e-06
1.43406e-06
1.34649e-06
1.25079e-06
1.14776e-06
1.0449e-06
9.50457e-07
8.68772e-07
7.98912e-07
7.36402e-07
6.76312e-07
6.1576e-07
5.54726e-07
4.95283e-07
4.4008e-07
3.91049e-07
3.48866e-07
3.13137e-07
2.82924e-07
2.5725e-07
2.35337e-07
2.16638e-07
2.0075e-07
1.87341e-07
1.76139e-07
1.66807e-07
1.59107e-07
1.52798e-07
1.47676e-07
1.43544e-07
1.40268e-07
1.37657e-07
1.35719e-07
1.34103e-07
1.3327e-07
1.3202e-07
1.32656e-07
1.30248e-07
1.34696e-07
1.25651e-07
1.42845e-07
1.20809e-07
1.05788e-05
1.11619e-05
1.16025e-05
1.14281e-05
1.03297e-05
8.23261e-06
5.20319e-06
2.86475e-06
6.46662e-06
1.23529e-05
1.78913e-05
2.19635e-05
2.5521e-05
3.03865e-05
3.55243e-05
3.85753e-05
3.87055e-05
3.65455e-05
3.23387e-05
2.44062e-05
1.14403e-05
6.02868e-06
2.34263e-05
3.52048e-05
3.88542e-05
3.65322e-05
3.22731e-05
2.86917e-05
2.62046e-05
2.43088e-05
2.26227e-05
2.10344e-05
1.95374e-05
1.813e-05
1.68035e-05
1.55504e-05
1.43674e-05
1.32525e-05
1.22041e-05
1.12202e-05
1.02984e-05
9.43622e-06
8.63057e-06
7.87834e-06
7.17621e-06
6.52094e-06
5.90974e-06
5.34067e-06
4.81246e-06
4.32332e-06
3.86942e-06
3.44469e-06
3.04386e-06
2.66765e-06
2.32628e-06
2.03661e-06
1.81244e-06
1.65383e-06
1.54426e-06
1.45861e-06
1.37466e-06
1.28076e-06
1.17704e-06
1.07142e-06
9.7314e-07
8.87613e-07
8.14604e-07
7.49841e-07
6.88223e-07
6.26536e-07
5.64482e-07
5.03997e-07
4.47744e-07
3.97744e-07
3.54757e-07
3.18424e-07
2.87794e-07
2.61848e-07
2.39764e-07
2.20964e-07
2.05024e-07
1.91596e-07
1.80354e-07
1.71034e-07
1.63359e-07
1.57086e-07
1.52015e-07
1.47944e-07
1.44738e-07
1.42202e-07
1.40343e-07
1.38799e-07
1.38048e-07
1.36851e-07
1.37574e-07
1.35167e-07
1.3975e-07
1.30541e-07
1.48193e-07
1.25787e-07
6.34282e-06
6.66717e-06
6.87762e-06
6.71015e-06
6.0377e-06
4.97868e-06
4.09968e-06
4.4979e-06
6.69378e-06
1.04934e-05
1.55513e-05
2.06895e-05
2.40479e-05
2.44964e-05
2.26342e-05
1.99479e-05
1.73653e-05
1.48785e-05
1.33299e-05
1.64944e-05
2.47978e-05
3.35938e-05
3.88444e-05
3.9222e-05
3.62012e-05
3.23236e-05
2.91887e-05
2.69514e-05
2.51711e-05
2.35437e-05
2.19944e-05
2.05292e-05
1.91479e-05
1.78392e-05
1.65941e-05
1.54087e-05
1.42819e-05
1.32132e-05
1.22018e-05
1.1247e-05
1.03474e-05
9.50137e-06
8.70679e-06
7.96132e-06
7.26243e-06
6.60755e-06
5.99445e-06
5.42169e-06
4.88843e-06
4.39338e-06
3.93313e-06
3.50186e-06
3.09417e-06
2.71042e-06
2.36079e-06
2.06301e-06
1.83269e-06
1.6716e-06
1.56357e-06
1.482e-06
1.40236e-06
1.311e-06
1.20721e-06
1.09916e-06
9.97129e-07
9.0766e-07
8.31312e-07
7.64095e-07
7.00773e-07
6.37814e-07
5.74622e-07
5.12983e-07
4.55555e-07
4.04438e-07
3.60477e-07
3.23354e-07
2.92105e-07
2.65675e-07
2.43199e-07
2.2407e-07
2.07849e-07
1.94188e-07
1.82771e-07
1.73318e-07
1.65541e-07
1.59202e-07
1.54092e-07
1.50004e-07
1.46802e-07
1.4428e-07
1.4245e-07
1.40933e-07
1.40224e-07
1.39044e-07
1.39828e-07
1.37382e-07
1.42101e-07
1.32659e-07
1.50751e-07
1.27796e-07
4.1778e-06
4.31954e-06
4.3715e-06
4.20449e-06
3.81979e-06
3.50622e-06
3.87701e-06
5.25574e-06
7.3537e-06
9.92764e-06
1.31109e-05
1.71885e-05
2.18867e-05
2.61622e-05
2.90343e-05
3.04044e-05
3.09804e-05
3.18781e-05
3.377e-05
3.63249e-05
3.84244e-05
3.88243e-05
3.71862e-05
3.43069e-05
3.13807e-05
2.90624e-05
2.72794e-05
2.57177e-05
2.42083e-05
2.27407e-05
2.13415e-05
2.0015e-05
1.87505e-05
1.7538e-05
1.63735e-05
1.52563e-05
1.41866e-05
1.3165e-05
1.2192e-05
1.12675e-05
1.03914e-05
9.56276e-06
8.78035e-06
8.04263e-06
7.3478e-06
6.69398e-06
6.07952e-06
5.50346e-06
4.96541e-06
4.46454e-06
3.99792e-06
3.56e-06
3.14528e-06
2.75378e-06
2.39555e-06
2.08917e-06
1.85208e-06
1.68798e-06
1.5813e-06
1.50409e-06
1.42936e-06
1.34127e-06
1.23798e-06
1.12785e-06
1.02213e-06
9.28596e-07
8.48679e-07
7.78758e-07
7.13517e-07
6.49128e-07
5.847e-07
5.21855e-07
4.63238e-07
4.11027e-07
3.6615e-07
3.28328e-07
2.96587e-07
2.69826e-07
2.47137e-07
2.27876e-07
2.11584e-07
1.979e-07
1.86495e-07
1.77067e-07
1.6934e-07
1.63081e-07
1.58047e-07
1.54052e-07
1.50949e-07
1.48528e-07
1.46801e-07
1.45378e-07
1.4477e-07
1.43659e-07
1.44546e-07
1.4211e-07
1.46988e-07
1.37371e-07
1.55964e-07
1.32573e-07
3.18523e-06
3.19433e-06
3.11282e-06
2.8842e-06
2.58005e-06
2.57201e-06
3.35318e-06
4.91656e-06
6.98584e-06
9.34076e-06
1.18484e-05
1.4549e-05
1.7645e-05
2.11884e-05
2.48362e-05
2.80945e-05
3.06668e-05
3.25871e-05
3.3889e-05
3.44396e-05
3.40705e-05
3.28836e-05
3.12881e-05
2.9724e-05
2.83645e-05
2.71183e-05
2.58521e-05
2.45351e-05
2.32117e-05
2.19255e-05
2.06894e-05
1.94982e-05
1.8345e-05
1.72264e-05
1.61424e-05
1.50937e-05
1.40818e-05
1.31084e-05
1.21749e-05
1.12822e-05
1.04307e-05
9.62068e-06
8.85153e-06
8.12253e-06
7.43259e-06
6.78051e-06
6.16522e-06
5.58625e-06
5.04365e-06
4.53706e-06
4.06402e-06
3.61931e-06
3.19737e-06
2.79787e-06
2.43072e-06
2.11523e-06
1.8707e-06
1.70301e-06
1.59745e-06
1.52484e-06
1.45564e-06
1.37159e-06
1.26948e-06
1.15767e-06
1.04841e-06
9.50721e-07
8.67032e-07
7.9417e-07
7.26799e-07
6.60811e-07
5.95017e-07
5.30862e-07
4.7096e-07
4.17553e-07
3.71649e-07
3.33007e-07
3.00643e-07
2.73411e-07
2.50358e-07
2.30807e-07
2.14281e-07
2.0041e-07
1.88866e-07
1.79348e-07
1.71577e-07
1.65298e-07
1.60269e-07
1.56299e-07
1.5324e-07
1.50871e-07
1.49205e-07
1.4784e-07
1.47301e-07
1.46231e-07
1.47202e-07
1.44747e-07
1.49786e-07
1.39936e-07
1.59018e-07
1.35051e-07
2.43236e-06
2.35064e-06
2.17776e-06
1.90121e-06
1.66896e-06
1.93944e-06
2.96238e-06
4.51913e-06
6.41702e-06
8.53945e-06
1.0786e-05
1.30678e-05
1.53603e-05
1.7719e-05
2.01738e-05
2.26074e-05
2.48045e-05
2.65212e-05
2.76701e-05
2.82483e-05
2.83597e-05
2.81533e-05
2.77423e-05
2.71657e-05
2.64148e-05
2.54939e-05
2.44489e-05
2.33445e-05
2.22295e-05
2.11269e-05
2.00428e-05
1.89777e-05
1.79317e-05
1.69058e-05
1.59018e-05
1.49218e-05
1.39684e-05
1.30441e-05
1.21512e-05
1.12913e-05
1.04658e-05
9.67551e-06
8.92071e-06
8.20137e-06
7.51715e-06
6.86748e-06
6.25188e-06
5.67037e-06
5.12345e-06
4.61122e-06
4.13171e-06
3.68005e-06
3.25067e-06
2.84291e-06
2.4665e-06
2.1414e-06
1.88877e-06
1.71683e-06
1.61204e-06
1.54419e-06
1.48112e-06
1.40185e-06
1.3016e-06
1.18855e-06
1.0759e-06
9.73968e-07
8.86281e-07
8.10208e-07
7.40455e-07
6.7267e-07
6.05373e-07
5.39821e-07
4.78589e-07
4.23974e-07
3.7706e-07
3.37647e-07
3.04736e-07
2.77137e-07
2.53846e-07
2.3415e-07
2.17552e-07
2.03668e-07
1.92158e-07
1.82707e-07
1.75029e-07
1.68848e-07
1.63965e-07
1.60135e-07
1.57217e-07
1.54986e-07
1.53457e-07
1.52215e-07
1.518e-07
1.50822e-07
1.51917e-07
1.49483e-07
1.54708e-07
1.44676e-07
1.64307e-07
1.39843e-07
1.8125e-06
1.66598e-06
1.4301e-06
1.12963e-06
1.04205e-06
1.6222e-06
2.74732e-06
4.20745e-06
5.90717e-06
7.78226e-06
9.77299e-06
1.18152e-05
1.38442e-05
1.58166e-05
1.77176e-05
1.95317e-05
2.12047e-05
2.26529e-05
2.38202e-05
2.46901e-05
2.52537e-05
2.55088e-05
2.54671e-05
2.51564e-05
2.46197e-05
2.39126e-05
2.30922e-05
2.22053e-05
2.12831e-05
2.03441e-05
1.9399e-05