/*--------------------------------*- C++ -*----------------------------------*\
| =========                 |                                                 |
| \\      /  F ield         | OpenFOAM: The Open Source CFD Toolbox           |
|  \\    /   O peration     | Version:  2.1.1                                 |
|   \\  /    A nd           | Web:      www.OpenFOAM.org                      |
|    \\/     M anipulation  |                                                 |
\*---------------------------------------------------------------------------*/
FoamFile
{
    version     2.0;
    format      ascii;
    class       volScalarField;
    location    "0.04";
    object      p;
}
// * * * * * * * * * * * * * * * * * * * * * * * * * * * * * * * * * * * * * //

dimensions      [0 2 -2 0 0 0 0];

internalField   nonuniform List<scalar> 
6820
(
9.62242
-8.21272
-11.2197
-11.4053
-11.576
-11.4998
-11.4394
-11.4471
-11.4885
-11.5484
-11.6183
-11.6928
-11.7697
-11.8477
-11.9263
-12.0052
-12.0841
-12.1631
-12.242
-12.3209
-12.3999
-12.4791
-12.5587
-12.6389
-12.7201
-12.8024
-12.8865
-12.9725
-13.0617
-13.1513
-13.2514
-13.3324
-13.4792
2.941
-8.03178
-10.9088
-11.2073
-11.4579
-11.4777
-11.4537
-11.4725
-11.5156
-11.5725
-11.6384
-11.7093
-11.7832
-11.8588
-11.9356
-12.0132
-12.0911
-12.1694
-12.2478
-12.3264
-12.4051
-12.4841
-12.5635
-12.6436
-12.7246
-12.8068
-12.8908
-12.9764
-13.0649
-13.1557
-13.2555
-13.3519
-13.5088
0.225924
-6.60195
-9.88892
-10.6454
-11.1116
-11.3061
-11.3609
-11.4125
-11.475
-11.5442
-11.6188
-11.6963
-11.7752
-11.8545
-11.9338
-12.013
-12.0921
-12.1709
-12.2496
-12.3281
-12.4066
-12.4852
-12.5641
-12.6435
-12.7236
-12.8048
-12.8875
-12.9718
-13.0589
-13.148
-13.2443
-13.3375
-13.4567
-1.7599
-6.37523
-9.46805
-10.3261
-10.7963
-11.0701
-11.1951
-11.2909
-11.3846
-11.4745
-11.5621
-11.6485
-11.734
-11.8186
-11.9023
-11.9852
-12.0673
-12.1487
-12.2295
-12.3098
-12.3896
-12.4692
-12.5487
-12.6282
-12.7081
-12.7885
-12.8697
-12.9521
-13.0362
-13.1219
-13.212
-13.3029
-13.4078
-3.39597
-6.47633
-9.07713
-9.97959
-10.4858
-10.839
-11.0344
-11.1701
-11.2886
-11.3955
-11.4951
-11.5908
-11.6833
-11.7733
-11.8613
-11.9477
-12.0327
-12.1164
-12.1989
-12.2805
-12.3611
-12.441
-12.5203
-12.5992
-12.6777
-12.756
-12.8344
-12.9127
-12.9914
-13.0702
-13.1505
-13.23
-13.3139
-4.61924
-6.65794
-8.82707
-9.77033
-10.2957
-10.6762
-10.9067
-11.0653
-11.2002
-11.3201
-11.4295
-11.5327
-11.6314
-11.7264
-11.8185
-11.9082
-11.9957
-12.0815
-12.1656
-12.2483
-12.3296
-12.4098
-12.4888
-12.5668
-12.6438
-12.7198
-12.7947
-12.8684
-12.9408
-13.0113
-13.0802
-13.1455
-13.2099
-5.57062
-6.94507
-8.71057
-9.61668
-10.1298
-10.5187
-10.7795
-10.9638
-11.1168
-11.2504
-11.3699
-11.4805
-11.5848
-11.6842
-11.7798
-11.8722
-11.9621
-12.0496
-12.1351
-12.2187
-12.3006
-12.3809
-12.4595
-12.5365
-12.6119
-12.6856
-12.7573
-12.8267
-12.8934
-12.9565
-13.0152
-13.0675
-13.1121
-6.31733
-7.25198
-8.66023
-9.50185
-10.0035
-10.3941
-10.6738
-10.8756
-11.0408
-11.1841
-11.3114
-11.4282
-11.5375
-11.6412
-11.7403
-11.8357
-11.9279
-12.0174
-12.1044
-12.189
-12.2715
-12.3519
-12.4302
-12.5064
-12.5804
-12.652
-12.7208
-12.7863
-12.8478
-12.9041
-12.9538
-12.9945
-13.0229
-6.91032
-7.55639
-8.67124
-9.43273
-9.91208
-10.2912
-10.5774
-10.7909
-10.9664
-11.1187
-11.2537
-11.3768
-11.4913
-11.5991
-11.7017
-11.7999
-11.8944
-11.9856
-12.0739
-12.1595
-12.2425
-12.323
-12.401
-12.4765
-12.5491
-12.6187
-12.6848
-12.7468
-12.8037
-12.8542
-12.8966
-12.9282
-12.9451
-7.38745
-7.84268
-8.72015
-9.39308
-9.84354
-10.2069
-10.4942
-10.7158
-10.8989
-11.0581
-11.1992
-11.3274
-11.4461
-11.5576
-11.6632
-11.764
-11.8606
-11.9536
-12.0432
-12.1297
-12.2133
-12.294
-12.3718
-12.4465
-12.518
-12.586
-12.6498
-12.7088
-12.762
-12.808
-12.845
-12.8705
-12.8805
-7.77563
-8.10315
-8.79316
-9.37907
-9.79722
-10.1414
-10.4235
-10.6481
-10.8359
-10.9999
-11.146
-11.2787
-11.4014
-11.5164
-11.6251
-11.7284
-11.8271
-11.9218
-12.0127
-12.1002
-12.1843
-12.2653
-12.3429
-12.4171
-12.4877
-12.5543
-12.6163
-12.673
-12.7235
-12.7664
-12.7999
-12.8221
-12.8294
-8.09448
-8.33546
-8.87939
-9.38384
-9.76719
-10.0901
-10.3632
-10.5876
-10.778
-10.9456
-11.0956
-11.2321
-11.3583
-11.4764
-11.5877
-11.6933
-11.7939
-11.8901
-11.9823
-12.0707
-12.1555
-12.2367
-12.3143
-12.3882
-12.4581
-12.5237
-12.5844
-12.6397
-12.6885
-12.7297
-12.7617
-12.7831
-12.7909
-8.35836
-8.53967
-8.97072
-9.40208
-9.75037
-10.0513
-10.3131
-10.5345
-10.7254
-10.8948
-11.0476
-11.187
-11.3162
-11.4369
-11.5507
-11.6585
-11.761
-11.8588
-11.9522
-12.0416
-12.1271
-12.2087
-12.2864
-12.3601
-12.4297
-12.4947
-12.5547
-12.6092
-12.6573
-12.6981
-12.7305
-12.7532
-12.7645
-8.57781
-8.71723
-9.06153
-9.42918
-9.7434
-10.0224
-10.2713
-10.4876
-10.6773
-10.8475
-11.0021
-11.1439
-11.2755
-11.3987
-11.5147
-11.6245
-11.7287
-11.828
-11.9226
-12.013
-12.0991
-12.1812
-12.2592
-12.333
-12.4025
-12.4674
-12.5272
-12.5816
-12.63
-12.6716
-12.7056
-12.7312
-12.7475
-8.76068
-8.87015
-9.14788
-9.46121
-9.74344
-10.0012
-10.2367
-10.4465
-10.6338
-10.8037
-10.9592
-11.1027
-11.2363
-11.3615
-11.4795
-11.5911
-11.697
-11.7977
-11.8936
-11.9849
-12.0719
-12.1545
-12.233
-12.3071
-12.3768
-12.4419
-12.5022
-12.5572
-12.6065
-12.6498
-12.6865
-12.7163
-12.7387
-8.91283
-9.00049
-9.22717
-9.49498
-9.74796
-9.98572
-10.2078
-10.4103
-10.5942
-10.7629
-10.9188
-11.0635
-11.1987
-11.3256
-11.4454
-11.5587
-11.6662
-11.7682
-11.8653
-11.9576
-12.0454
-12.1288
-12.2078
-12.2824
-12.3526
-12.4183
-12.4793
-12.5355
-12.5865
-12.6321
-12.6723
-12.7068
-12.7358
-9.03867
-9.11021
-9.29768
-9.52785
-9.75476
-9.97401
-10.1833
-10.3781
-10.5581
-10.7251
-10.8808
-11.0262
-11.1626
-11.2911
-11.4125
-11.5274
-11.6363
-11.7397
-11.838
-11.9314
-12.02
-12.1042
-12.1839
-12.2593
-12.3303
-12.3969
-12.459
-12.5167
-12.5698
-12.6183
-12.6623
-12.702
-12.7376
-9.1415
-9.20097
-9.3583
-9.55773
-9.76186
-9.96442
-10.1617
-10.3489
-10.5247
-10.6898
-10.8449
-10.9908
-11.1282
-11.258
-11.3808
-11.4972
-11.6075
-11.7122
-11.8117
-11.9061
-11.9957
-12.0807
-12.1613
-12.2375
-12.3094
-12.377
-12.4406
-12.5
-12.5554
-12.607
-12.6549
-12.6996
-12.7416
-9.2238
-9.27417
-9.40832
-9.58291
-9.76758
-9.95542
-10.1419
-10.322
-10.4936
-10.6566
-10.811
-10.9571
-11.0955
-11.2265
-11.3507
-11.4684
-11.5801
-11.6861
-11.7868
-11.8823
-11.973
-12.0589
-12.1404
-12.2176
-12.2905
-12.3595
-12.4245
-12.4859
-12.5438
-12.5984
-12.6502
-12.6997
-12.7474
-9.28737
-9.33084
-9.44723
-9.60201
-9.77041
-9.94559
-10.1226
-10.2963
-10.4641
-10.625
-10.7787
-10.9251
-11.0642
-11.1964
-11.3219
-11.441
-11.554
-11.6613
-11.7631
-11.8597
-11.9513
-12.0382
-12.1207
-12.1988
-12.2729
-12.3431
-12.4096
-12.4729
-12.5331
-12.5906
-12.6459
-12.6996
-12.7523
-9.33348
-9.37175
-9.47463
-9.61387
-9.76902
-9.93368
-10.1027
-10.2709
-10.4354
-10.5947
-10.748
-10.8947
-11.0347
-11.1681
-11.2949
-11.4154
-11.5299
-11.6385
-11.7415
-11.8392
-11.9319
-12.0199
-12.1033
-12.1825
-12.2577
-12.3292
-12.3973
-12.4623
-12.5247
-12.5848
-12.6432
-12.7004
-12.7572
-9.36293
-9.39732
-9.4901
-9.61746
-9.76221
-9.91848
-10.0811
-10.245
-10.407
-10.5651
-10.7182
-10.8655
-11.0065
-11.1411
-11.2693
-11.3912
-11.507
-11.6168
-11.721
-11.8198
-11.9135
-12.0024
-12.0867
-12.1668
-12.243
-12.3156
-12.385
-12.4515
-12.5156
-12.5778
-12.6386
-12.6986
-12.7585
-9.37609
-9.4077
-9.49318
-9.61185
-9.74887
-9.89893
-10.0569
-10.2179
-10.3783
-10.5361
-10.6896
-10.8379
-10.9803
-11.1165
-11.2463
-11.3698
-11.4871
-11.5984
-11.7039
-11.8038
-11.8986
-11.9884
-12.0736
-12.1546
-12.2318
-12.3054
-12.3759
-12.4437
-12.5093
-12.5731
-12.6357
-12.6976
-12.7596
-9.37297
-9.4027
-9.48327
-9.59606
-9.72789
-9.87391
-10.0291
-10.1885
-10.3484
-10.5065
-10.661
-10.8107
-10.9547
-11.0926
-11.2241
-11.3493
-11.468
-11.5806
-11.6873
-11.7882
-11.8838
-11.9744
-12.0603
-12.142
-12.2197
-12.294
-12.3652
-12.4338
-12.5002
-12.565
-12.6287
-12.6917
-12.7548
-9.35318
-9.38183
-9.4596
-9.56915
-9.69833
-9.84261
-9.99705
-10.1566
-10.3176
-10.4774
-10.634
-10.7859
-10.9323
-11.0726
-11.2063
-11.3335
-11.4541
-11.5682
-11.6762
-11.7783
-11.8749
-11.9663
-12.0529
-12.1351
-12.2133
-12.288
-12.3596
-12.4287
-12.4955
-12.5607
-12.6247
-12.688
-12.7512
-9.3159
-9.34422
-9.42114
-9.52991
-9.65884
-9.80358
-9.95917
-10.1205
-10.2837
-10.446
-10.6054
-10.7601
-10.9091
-11.0519
-11.1879
-11.317
-11.4393
-11.555
-11.6641
-11.7671
-11.8644
-11.9562
-12.0431
-12.1255
-12.2038
-12.2785
-12.35
-12.4189
-12.4855
-12.5504
-12.614
-12.6768
-12.7392
-9.25988
-9.2886
-9.36671
-9.47734
-9.60885
-9.75688
-9.91637
-10.082
-10.2498
-10.4167
-10.5805
-10.7395
-10.8924
-11.0386
-11.1777
-11.3095
-11.434
-11.5514
-11.6619
-11.766
-11.864
-11.9563
-12.0434
-12.1258
-12.2039
-12.2783
-12.3493
-12.4175
-12.4834
-12.5473
-12.6098
-12.6712
-12.7319
-9.18325
-9.21313
-9.29437
-9.40931
-9.54575
-9.69917
-9.86432
-10.0357
-10.2091
-10.3815
-10.5503
-10.714
-10.8711
-11.0211
-11.1633
-11.2977
-11.4244
-11.5434
-11.6552
-11.7601
-11.8585
-11.9509
-12.0379
-12.1198
-12.1973
-12.2708
-12.3407
-12.4077
-12.4721
-12.5345
-12.5951
-12.6546
-12.7131
-9.08358
-9.11563
-9.20274
-9.32574
-9.4713
-9.63452
-9.80972
-9.99089
-10.1735
-10.3544
-10.5309
-10.7012
-10.8641
-11.0189
-11.1652
-11.3029
-11.4321
-11.553
-11.6661
-11.7717
-11.8705
-11.9628
-12.0493
-12.1305
-12.2069
-12.2791
-12.3475
-12.4127
-12.4751
-12.5351
-12.5931
-12.6496
-12.7048
-8.95731
-8.99226
-9.08729
-9.22052
-9.37688
-9.55118
-9.73746
-9.92935
-10.1221
-10.3123
-10.4973
-10.6751
-10.8445
-11.0048
-11.1557
-11.297
-11.4289
-11.5519
-11.6662
-11.7725
-11.8714
-11.9634
-12.0491
-12.1291
-12.2039
-12.2743
-12.3406
-12.4033
-12.4631
-12.5202
-12.5752
-12.6284
-12.6802
-8.80031
-8.8406
-8.94942
-9.10073
-9.27637
-9.47007
-9.67492
-9.88374
-10.0915
-10.2946
-10.4907
-10.6778
-10.8548
-11.0213
-11.177
-11.3219
-11.4565
-11.5812
-11.6966
-11.8032
-11.9017
-11.9928
-12.0771
-12.1553
-12.228
-12.2958
-12.3593
-12.4189
-12.4751
-12.5285
-12.5793
-12.628
-12.6748
-8.60514
-8.65016
-8.77301
-8.9416
-9.13503
-9.34737
-9.57124
-9.79848
-10.0234
-10.2422
-10.4521
-10.651
-10.8381
-11.0127
-11.1748
-11.3246
-11.4627
-11.5897
-11.7062
-11.8132
-11.9112
-12.0012
-12.0839
-12.1599
-12.2301
-12.2949
-12.3551
-12.4111
-12.4636
-12.5129
-12.5595
-12.6038
-12.6463
-8.36663
-8.42634
-8.58203
-8.78878
-9.01812
-9.26303
-9.51546
-9.76685
-10.012
-10.2475
-10.4712
-10.6814
-10.8774
-11.059
-11.2263
-11.38
-11.5205
-11.6488
-11.7657
-11.872
-11.9686
-12.0565
-12.1365
-12.2093
-12.2758
-12.3365
-12.3921
-12.4432
-12.4904
-12.5342
-12.5749
-12.6129
-12.6487
-8.06258
-8.12472
-8.30045
-8.53393
-8.79401
-9.07406
-9.36252
-9.64766
-9.92307
-10.185
-10.4309
-10.6591
-10.8695
-11.0621
-11.2377
-11.397
-11.5413
-11.6716
-11.789
-11.8949
-11.9901
-12.0759
-12.1531
-12.2226
-12.2853
-12.3419
-12.393
-12.4394
-12.4816
-12.5201
-12.5554
-12.5881
-12.6186
-7.70338
-7.82086
-8.08224
-8.38708
-8.69846
-9.01933
-9.34095
-9.65276
-9.95025
-10.2308
-10.4922
-10.7334
-10.9541
-11.1547
-11.3361
-11.4993
-11.6455
-11.7762
-11.8926
-11.9961
-12.0881
-12.1696
-12.2418
-12.3057
-12.3622
-12.4122
-12.4564
-12.4954
-12.5299
-12.5603
-12.5873
-12.6113
-12.6329
-7.17621
-7.26752
-7.56662
-7.93935
-8.33171
-8.73633
-9.13267
-9.5069
-9.85539
-10.1762
-10.4683
-10.7323
-10.9695
-11.1816
-11.3706
-11.5385
-11.6871
-11.8184
-11.9341
-12.0359
-12.1252
-12.2034
-12.2718
-12.3315
-12.3833
-12.4283
-12.4671
-12.5003
-12.5286
-12.5526
-12.5728
-12.5899
-12.6048
-6.68327
-7.00596
-7.47474
-7.89505
-8.30707
-8.73795
-9.1594
-9.55793
-9.93192
-10.2777
-10.5923
-10.8753
-11.1277
-11.3508
-11.5468
-11.718
-11.8668
-11.9956
-12.1066
-12.202
-12.2836
-12.3532
-12.4122
-12.462
-12.5036
-12.5381
-12.5662
-12.5885
-12.6055
-12.6177
-12.6253
-12.6291
-12.6293
-5.38259
-5.70487
-6.47902
-7.18024
-7.81873
-8.42761
-8.97483
-9.46014
-9.89383
-10.2797
-10.6213
-10.9226
-11.1877
-11.4199
-11.6223
-11.7978
-11.9492
-12.079
-12.1897
-12.2835
-12.3625
-12.4283
-12.4828
-12.5272
-12.5629
-12.5907
-12.6115
-12.6258
-12.6338
-12.6357
-12.6308
-12.6203
-12.5998
-5.37166
-6.11731
-6.7237
-7.19338
-7.79653
-8.43356
-9.02776
-9.5816
-10.0888
-10.5389
-10.931
-11.2685
-11.5558
-11.7977
-11.9995
-12.1665
-12.3035
-12.4148
-12.5045
-12.5758
-12.6316
-12.6746
-12.7067
-12.7298
-12.7453
-12.7544
-12.7579
-12.7563
-12.7495
-12.7366
-12.7147
-12.681
-12.6214
0.87619
-3.73219
-5.51836
-6.37182
-7.37721
-8.2569
-8.96131
-9.57321
-10.1089
-10.5689
-10.9621
-11.2969
-11.5796
-11.8165
-12.0136
-12.1763
-12.3095
-12.4176
-12.5043
-12.573
-12.6265
-12.6674
-12.6977
-12.7192
-12.7333
-12.7414
-12.7446
-12.7436
-12.7394
-12.7317
-12.7232
-12.7089
-12.7002
-13.3526
-14.3136
-15.3781
-15.4482
-13.8712
-10.8553
-7.17839
-4.02376
-2.45005
-2.88707
-5.26302
-9.47068
-15.0753
-21.5247
-28.3213
-35.1006
-41.5841
-47.4621
-52.3245
-55.7032
-57.242
-56.7889
-54.598
-51.1701
-46.9044
-41.9952
-36.6158
-31.0813
-25.774
-20.95
-16.6876
-12.9764
-9.78703
-7.08653
-4.8356
-2.98809
-1.49442
-0.3052
0.626313
1.34274
1.88187
2.27645
2.5544
2.73914
2.85016
2.90351
2.91232
2.8873
2.83714
2.76881
2.68792
2.59897
2.50557
2.41059
2.31627
2.22429
2.13575
2.05128
1.97113
1.89528
1.82355
1.75568
1.69138
1.63035
1.57228
1.51685
1.46375
1.4127
1.36342
1.31569
1.26931
1.22409
1.17989
1.13654
1.09391
1.05186
1.01029
0.969071
0.928118
0.88733
0.846629
0.805943
0.765202
0.724346
0.683319
0.642072
0.60056
0.558746
0.516587
0.474065
0.431122
0.387792
0.343918
0.29976
0.254674
0.209974
0.162756
0.119166
0.0660929
0.0314809
-13.5707
-14.3181
-15.1652
-15.0432
-13.4162
-10.4872
-7.02938
-4.13164
-2.61185
-2.89452
-5.29053
-9.34086
-14.6001
-20.6554
-27.0718
-33.4825
-39.5893
-45.0831
-49.5938
-52.7106
-54.1606
-53.8631
-52.0437
-49.0332
-45.0685
-40.3355
-35.1189
-29.8346
-24.8524
-20.3482
-16.3503
-12.8413
-9.80058
-7.20567
-5.02589
-3.22249
-1.75237
-0.571582
0.362169
1.08804
1.64116
2.05235
2.34813
2.55098
2.67973
2.75005
2.77483
2.76467
2.7282
2.67241
2.60293
2.52432
2.44022
2.35359
2.26671
2.18134
2.09864
2.01932
1.94369
1.87179
1.80349
1.73859
1.67685
1.61803
1.56185
1.50804
1.45634
1.40648
1.35822
1.31136
1.26572
1.22113
1.17745
1.13454
1.09228
1.05054
1.00922
0.968213
0.927431
0.886789
0.846202
0.805608
0.764942
0.724144
0.683163
0.64195
0.600467
0.558671
0.516524
0.474011
0.431073
0.387746
0.343868
0.299712
0.254613
0.209925
0.162675
0.119132
0.0659982
0.0314914
-13.5673
-14.171
-14.7634
-14.4987
-12.9402
-10.265
-7.12542
-4.47171
-3.12741
-3.5353
-5.73705
-9.55846
-14.5084
-20.1214
-26.0562
-32.0064
-37.6776
-42.7622
-46.9169
-49.7935
-51.2
-51.0943
-49.5986
-46.8745
-43.0868
-38.4932
-33.5021
-28.5567
-23.9451
-19.7641
-16.0199
-12.703
-9.80574
-7.31481
-5.20662
-3.44878
-2.00406
-0.833639
0.100554
0.834299
1.40014
1.82695
2.13983
2.36027
2.50644
2.59356
2.63426
2.63899
2.6163
2.57317
2.51527
2.44717
2.37257
2.29446
2.21521
2.13662
2.05994
1.98593
1.91497
1.84716
1.78242
1.72061
1.66155
1.60502
1.55083
1.49873
1.44849
1.39989
1.35271
1.30678
1.26192
1.218
1.17488
1.13245
1.09059
1.04919
1.00814
0.967372
0.926781
0.886295
0.845838
0.805344
0.764762
0.724029
0.683099
0.641926
0.600472
0.558698
0.516567
0.474065
0.431132
0.387808
0.343927
0.299772
0.254661
0.209983
0.162706
0.119203
0.0660117
0.0315884
-13.5437
-13.9506
-14.2683
-13.8808
-12.4602
-10.1593
-7.51822
-5.29866
-4.16032
-4.55888
-6.62639
-10.1325
-14.7003
-19.9036
-25.3632
-30.8025
-35.9769
-40.6162
-44.4206
-47.1105
-48.5176
-48.559
-47.2256
-44.5976
-40.8955
-36.4945
-31.8445
-27.31
-23.0764
-19.2001
-15.6923
-12.5586
-9.80122
-7.4134
-5.37731
-3.66638
-2.24886
-1.09072
-0.157905
0.582113
1.15934
1.6007
1.92988
2.16734
2.33055
2.43424
2.49076
2.51036
2.50152
2.47117
2.42498
2.36755
2.30262
2.23322
2.16178
2.09015
2.01966
1.95114
1.88502
1.82145
1.76042
1.70183
1.64555
1.59143
1.53931
1.48899
1.44028
1.39299
1.34694
1.30196
1.25792
1.21469
1.17215
1.13021
1.08876
1.0477
1.00695
0.966411
0.926014
0.885688
0.845361
0.804973
0.764476
0.72381
0.682933
0.6418
0.600378
0.558628
0.516513
0.474022
0.431095
0.387775
0.343892
0.299739
0.254617
0.209949
0.162647
0.11918
0.0659415
0.0315977
-13.4165
-13.6343
-13.7314
-13.2986
-12.1104
-10.286
-8.21941
-6.47013
-5.58714
-5.96713
-7.79185
-10.951
-15.1094
-19.8765
-24.9026
-29.8957
-34.6142
-38.825
-42.3096
-44.8341
-46.1594
-46.1252
-44.7151
-42.0768
-38.5181
-34.443
-30.2275
-26.1206
-22.2446
-18.6512
-15.3666
-12.409
-9.78798
-7.50189
-5.53804
-3.87515
-2.48646
-1.34242
-0.412761
0.331932
0.919179
1.374
1.71863
1.97249
2.15231
2.27231
2.3445
2.37893
2.38396
2.36648
2.33212
2.28551
2.23041
2.16989
2.10643
2.04193
1.9778
1.91492
1.85378
1.7946
1.73741
1.68216
1.62878
1.57717
1.52721
1.47875
1.43164
1.38573
1.34085
1.29688
1.2537
1.2112
1.16928
1.12786
1.08685
1.04616
1.00571
0.965436
0.925252
0.8851
0.844916
0.804647
0.764239
0.723647
0.682829
0.641741
0.600354
0.55863
0.516534
0.474056
0.431136
0.387821
0.343937
0.299786
0.254654
0.209995
0.162671
0.119235
0.0659525
0.0316703
-13.2782
-13.3676
-13.3276
-12.8998
-11.9393
-10.5375
-8.99638
-7.73527
-7.1556
-7.56224
-9.12927
-11.8508
-15.5277
-19.8394
-24.4423
-29.037
-33.374
-37.2304
-40.3927
-42.6023
-43.6315
-43.3717
-41.8735
-39.3436
-36.097
-32.463
-28.7053
-24.9986
-21.4479
-18.1157
-15.0423
-12.2543
-9.76608
-7.58025
-5.68864
-4.07478
-2.71646
-1.58826
-0.663498
0.0842696
0.680153
1.14729
1.50647
1.77606
1.972
2.10799
2.19567
2.24486
2.26376
2.25919
2.23677
2.2011
2.15598
2.1045
2.04917
1.99198
1.93437
1.87729
1.8213
1.76665
1.71344
1.66166
1.61129
1.56229
1.51458
1.46806
1.42262
1.37814
1.33449
1.29156
1.24927
1.20753
1.16625
1.12538
1.08482
1.04451
1.00438
0.964361
0.924394
0.88442
0.844382
0.804231
0.763919
0.723405
0.682647
0.641607
0.600255
0.558559
0.516483
0.474019
0.431107
0.387798
0.343913
0.299765
0.254624
0.209973
0.162629
0.11922
0.065902
0.0316768
-13.1474
-13.1585
-13.0455
-12.6477
-11.876
-10.8066
-9.66947
-8.77873
-8.4455
-8.9142
-10.3212
-12.6716
-15.8437
-19.6187
-23.7227
-27.8727
-31.8041
-35.2725
-38.0198
-39.8463
-40.6139
-40.2613
-38.8711
-36.6412
-33.8163
-30.6336
-27.2905
-23.9372
-20.6803
-17.5919
-14.7199
-12.0952
-9.7361
-7.64876
-5.82917
-4.26512
-2.93855
-1.82785
-0.90967
-0.160411
0.442714
0.92099
1.29379
1.57838
1.78992
1.94153
2.04448
2.1083
2.14104
2.14942
2.13901
2.1144
2.07938
2.03709
1.99006
1.94033
1.88939
1.83826
1.78755
1.73758
1.68848
1.64029
1.59305
1.54676
1.50138
1.45688
1.41318
1.37018
1.32781
1.28598
1.24462
1.20367
1.16307
1.12276
1.08269
1.04278
1.00299
0.963253
0.923519
0.883738
0.843858
0.803836
0.763628
0.723196
0.682505
0.641516
0.600205
0.55854
0.516486
0.474038
0.431136
0.387834
0.343949
0.299803
0.254656
0.210011
0.162649
0.119264
0.065913
0.0317303
-13.035
-13.0039
-12.8609
-12.5078
-11.895
-11.0858
-10.2544
-9.64188
-9.49371
-10.0052
-11.2851
-13.3378
-16.0689
-19.3115
-22.8544
-26.4626
-29.8948
-32.9061
-35.2726
-36.8435
-37.5089
-37.2324
-36.0787
-34.1918
-31.7558
-28.9582
-25.9688
-22.9276
-19.9402
-17.0809
-14.4003
-11.9325
-9.69843
-7.70764
-5.95966
-4.44604
-3.15247
-2.06081
-1.15084
-0.401647
0.207323
0.695548
1.08098
1.37981
1.60638
1.77322
1.89115
1.96945
2.01597
2.0373
2.03895
2.02549
2.00069
1.96771
1.92912
1.88699
1.84288
1.79785
1.75258
1.70742
1.66255
1.61809
1.57408
1.5306
1.48765
1.44524
1.40334
1.36189
1.32085
1.28016
1.23977
1.19964
1.15974
1.12002
1.08044
1.04095
1.0015
0.962058
0.922564
0.88298
0.843262
0.803372
0.763271
0.722925
0.682302
0.641367
0.600098
0.558464
0.516434
0.474003
0.431112
0.387816
0.343933
0.29979
0.254636
0.209997
0.162621
0.119254
0.0658776
0.0317329
-12.9424
-12.8909
-12.7436
-12.4432
-11.9664
-11.3679
-10.7804
-10.3894
-10.3847
-10.9203
-12.0847
-13.8846
-16.2456
-19.0312
-22.0663
-25.1562
-28.0978
-30.6943
-32.7658
-34.1618
-34.7786
-34.5841
-33.6245
-32.0098
-29.8855
-27.4081
-24.726
-21.9662
-19.2279
-16.5834
-14.0843
-11.7667
-9.65358
-7.75724
-6.08026
-4.61751
-3.35801
-2.28682
-1.38661
-0.639005
-0.025581
0.471388
0.868457
1.18072
1.4217
1.60331
1.73594
1.82853
1.88872
1.92297
1.93671
1.93446
1.91999
1.89644
1.86642
1.83203
1.79488
1.75609
1.71639
1.67617
1.63567
1.59504
1.55438
1.5138
1.47337
1.43313
1.3931
1.35326
1.31359
1.27408
1.2347
1.19543
1.15625
1.11715
1.07809
1.03904
0.999958
0.960819
0.92158
0.882206
0.842662
0.802913
0.762928
0.722675
0.682126
0.641249
0.600026
0.558427
0.516423
0.474011
0.431132
0.387845
0.343965
0.299825
0.254665
0.210031
0.162642
0.119291
0.0658908
0.0317723
-12.8706
-12.8142
-12.6798
-12.4353
-12.0774
-11.6472
-11.2521
-11.033
-11.1369
-11.6851
-12.7486
-14.3348
-16.3859
-18.7914
-21.4059
-24.0651
-26.5988
-28.8433
-30.6411
-31.8546
-32.3995
-32.2492
-31.4336
-30.0344
-28.1683
-25.9666
-23.5573
-21.0529
-18.5441
-16.1004
-13.7729
-11.5985
-9.60215
-7.79796
-6.19117
-4.77952
-3.55502
-2.5056
-1.61663
-0.872078
-0.255569
0.248934
0.656614
0.981486
1.23623
1.43213
1.5791
1.68574
1.75948
1.8066
1.83243
1.84144
1.83737
1.82336
1.80202
1.7755
1.74544
1.71303
1.67902
1.64388
1.60787
1.57118
1.53398
1.4964
1.45856
1.42057
1.38247
1.34429
1.30605
1.26776
1.22942
1.19104
1.15262
1.11415
1.07563
1.03703
0.998326
0.959502
0.920524
0.881367
0.842001
0.802397
0.76253
0.722372
0.6819
0.641081
0.599907
0.558344
0.516367
0.473974
0.431108
0.38783
0.343953
0.299817
0.254653
0.210023
0.162622
0.119284
0.0658662
0.0317699
-12.8184
-12.7671
-12.6551
-12.4682
-12.2068
-11.9135
-11.6697
-11.5838
-11.7693
-12.3204
-13.2934
-14.6952
-16.4809
-18.5616
-20.8171
-23.1089
-25.2916
-27.2214
-28.7652
-29.8129
-30.2896
-30.1654
-29.4592
-28.2351
-26.5881
-24.6271
-22.4606
-20.1871
-17.8892
-15.6324
-13.4666
-11.4288
-9.54476
-7.83027
-6.29267
-4.93217
-3.74341
-2.71695
-1.84058
-1.10049
-0.48224
0.0285926
0.44585
0.782474
1.0503
1.25996
1.4209
1.54135
1.62846
1.68837
1.72627
1.74657
1.75296
1.74856
1.73601
1.71747
1.69463
1.6687
1.64052
1.61057
1.57917
1.54654
1.51289
1.4784
1.44325
1.40757
1.37146
1.335
1.29823
1.2612
1.22394
1.18648
1.14883
1.11103
1.07306
1.03493
0.99663
0.958137
0.919435
0.880506
0.841328
0.80188
0.76214
0.722084
0.681694
0.640948
0.599817
0.558293
0.516346
0.473975
0.431124
0.387856
0.343984
0.299851
0.254684
0.210057
0.162647
0.119318
0.0658842
0.0317997
-12.7835
-12.7437
-12.6588
-12.5237
-12.3466
-12.1632
-12.0374
-12.0528
-12.2965
-12.8415
-13.7318
-14.9727
-16.5288
-18.3281
-20.2712
-22.242
-24.116
-25.772
-27.097
-27.9958
-28.4023
-28.2893
-27.67
-26.5932
-25.1346
-23.3836
-21.4326
-19.3676
-17.2632
-15.1801
-13.1664
-11.2584
-9.48214
-7.85471
-6.38509
-5.0756
-3.92318
-2.9207
-2.0582
-1.32392
-0.705218
-0.189243
0.236555
0.584059
0.864263
1.08715
1.26163
1.39559
1.4959
1.56848
1.61841
1.64999
1.66688
1.67218
1.6685
1.65804
1.64251
1.62319
1.60094
1.5763
1.54961
1.52114
1.49114
1.45983
1.42744
1.39415
1.3601
1.3254
1.29015
1.25442
1.21826
1.18175
1.14491
1.10778
1.07039
1.03275
0.994852
0.956698
0.918279
0.879584
0.8406
0.80131
0.761699
0.721747
0.681441
0.640761
0.599682
0.558199
0.516282
0.473934
0.431098
0.387842
0.343974
0.299845
0.254677
0.210052
0.162634
0.11931
0.0658664
0.0317908
-12.7638
-12.7389
-12.6824
-12.5948
-12.4879
-12.3918
-12.3571
-12.4481
-12.7315
-13.2633
-14.0772
-15.177
-16.5337
-18.0889
-19.7606
-21.4513
-23.0551
-24.472
-25.6024
-26.3662
-26.707
-26.5992
-26.0497
-25.0958
-23.7978
-22.23
-20.4702
-18.5934
-16.666
-14.7441
-12.873
-11.088
-9.41503
-7.87187
-6.46886
-5.21006
-4.09438
-3.11677
-2.26928
-1.54206
-0.924161
-0.404204
0.0291048
0.386612
0.678472
0.914
1.1016
1.24875
1.36203
1.44715
1.50904
1.55189
1.5793
1.59433
1.5996
1.59731
1.58919
1.57657
1.56036
1.54112
1.51925
1.49504
1.46878
1.44074
1.41118
1.38033
1.34839
1.31551
1.28182
1.24742
1.21241
1.17686
1.14085
1.10443
1.06764
1.03049
0.993016
0.955216
0.917093
0.878644
0.839863
0.80074
0.761266
0.721426
0.681209
0.640599
0.599578
0.558139
0.516256
0.473932
0.431114
0.38787
0.344009
0.299884
0.254714
0.210091
0.162667
0.119346
0.0658921
0.0318153
-12.7556
-12.7475
-12.7189
-12.6736
-12.6246
-12.5974
-12.6319
-12.7777
-13.0858
-13.5985
-14.3413
-15.3161
-16.4993
-17.8427
-19.2787
-20.7261
-22.0976
-23.3014
-24.2602
-24.9038
-25.1829
-25.0736
-24.5792
-23.728
-22.5682
-21.1604
-19.5706
-17.8633
-16.0977
-14.325
-12.5873
-10.9185
-9.34422
-7.88242
-6.54446
-5.33582
-4.25712
-3.30512
-2.47368
-1.75468
-1.13877
-0.615948
-0.176142
0.19049
0.493275
0.740859
0.941117
1.10112
1.22713
1.32463
1.39837
1.45246
1.49039
1.51519
1.52946
1.53539
1.53477
1.52894
1.51885
1.50511
1.48815
1.46829
1.44585
1.42115
1.39449
1.36614
1.33637
1.30534
1.27325
1.24022
1.20637
1.17182
1.13666
1.10096
1.06478
1.02815
0.991102
0.953664
0.915841
0.877643
0.839069
0.800116
0.760781
0.721054
0.680928
0.640391
0.599427
0.558032
0.516182
0.473884
0.431084
0.387853
0.343998
0.299878
0.254708
0.210085
0.162657
0.119336
0.0658773
0.0317978
-12.7567
-12.7656
-12.7629
-12.7543
-12.7523
-12.7786
-12.8646
-13.0486
-13.3692
-13.8583
-14.5346
-15.3984
-16.4298
-17.5892
-18.8205
-20.0559
-21.2217
-22.2424
-23.0504
-23.5865
-23.8083
-23.6939
-23.2438
-22.4789
-21.4377
-20.1698
-18.7307
-17.1761
-15.5582
-13.9231
-12.31
-10.7509
-9.27054
-7.88706
-6.61244
-5.45328
-4.41162
-3.48579
-2.6713
-1.9616
-1.34877
-0.824168
-0.378851
-0.00395859
0.309017
0.568056
0.780498
0.952989
1.09146
1.20116
1.28665
1.3519
1.40034
1.43491
1.45822
1.47243
1.47937
1.4804
1.47651
1.46835
1.45638
1.44095
1.42241
1.40112
1.37742
1.35164
1.32406
1.29494
1.26447
1.23284
1.20019
1.16666
1.13237
1.09741
1.06185
1.02574
0.989146
0.952082
0.914573
0.876635
0.838277
0.799503
0.760315
0.720707
0.680678
0.640218
0.599316
0.557969
0.516156
0.473885
0.431105
0.387888
0.344041
0.299927
0.254758
0.210134
0.162702
0.119378
0.0659145
0.031821
-12.7639
-12.7892
-12.8098
-12.832
-12.8675
-12.9345
-13.0578
-13.2667
-13.5903
-14.0523
-14.6662
-15.4308
-16.3292
-17.3284
-18.3818
-19.4332
-20.4205
-21.281
-21.9566
-22.3974
-22.5667
-22.4448
-22.0298
-21.3376
-20.3984
-19.2531
-17.9479
-16.5307
-15.0472
-13.5389
-12.0419
-10.5859
-9.19486
-7.88655
-6.67341
-5.56287
-4.55814
-3.65891
-2.86214
-2.16267
-1.55396
-1.02859
-0.578713
-0.196407
0.126035
0.395926
0.620068
0.804672
0.955334
1.07703
1.17413
1.25047
1.30936
1.35371
1.38606
1.4086
1.42314
1.43108
1.43346
1.43095
1.42403
1.41311
1.39853
1.38071
1.36002
1.33684
1.31152
1.28432
1.25551
1.22529
1.19386
1.16137
1.12796
1.09375
1.05882
1.02326
0.987111
0.950426
0.913234
0.875561
0.837422
0.798829
0.759788
0.720301
0.680368
0.639986
0.599146
0.557847
0.51607
0.473827
0.431067
0.38786
0.344027
0.299918
0.25475
0.210126
0.162692
0.119361
0.0658992
0.031792
-12.7754
-12.8157
-12.8564
-12.904
-12.9688
-13.0659
-13.2149
-13.4381
-13.7573
-14.19
-14.7452
-15.4209
-16.2024
-17.0619
-17.9609
-18.8523
-19.6848
-20.4055
-20.9651
-21.3216
-21.4433
-21.3123
-20.9257
-20.2948
-19.4438
-18.4057
-17.2194
-15.9256
-14.5645
-13.1729
-11.7836
-10.4245
-9.11803
-7.88171
-6.72804
-5.66509
-4.69702
-3.82467
-3.04623
-2.35784
-1.75419
-1.229
-0.775455
-0.386549
-0.0553511
0.224798
0.460154
0.656489
0.819045
0.952522
1.06109
1.14841
1.2177
1.2718
1.3132
1.34407
1.36624
1.38114
1.38982
1.39302
1.39122
1.38485
1.3743
1.35999
1.34236
1.32183
1.29878
1.27354
1.24641
1.21763
1.18743
1.15599
1.12348
1.09004
1.05576
1.02075
0.985063
0.948769
0.911904
0.874504
0.836593
0.798187
0.759301
0.719941
0.680111
0.639811
0.599036
0.557789
0.516052
0.473839
0.431101
0.38791
0.344086
0.29998
0.254816
0.210191
0.162755
0.119414
0.0659518
0.0318171
-12.7884
-12.8418
-12.8993
-12.9671
-13.054
-13.1724
-13.3378
-13.5671
-13.8764
-14.2781
-14.7784
-15.3742
-16.0525
-16.7902
-17.5551
-18.3081
-19.0062
-19.6053
-20.0639
-20.3461
-20.425
-20.2845
-19.9207
-19.342
-18.5671
-17.6232
-16.5424
-15.3596
-14.1096
-12.8252
-11.5359
-10.2674
-9.04097
-7.87336
-6.77706
-5.76055
-4.8287
-3.98333
-3.2237
-2.54711
-1.94935
-1.42521
-0.968842
-0.574108
-0.234835
0.0549909
0.301083
0.508765
0.682917
0.827953
0.947817
1.04601
1.12563
1.18942
1.23984
1.27904
1.30885
1.33073
1.34576
1.35469
1.35805
1.35628
1.34979
1.33904
1.3245
1.30664
1.28589
1.26262
1.23718
1.20985
1.18089
1.15052
1.11891
1.08623
1.05261
1.01815
0.982932
0.947029
0.910493
0.873367
0.835683
0.797466
0.758735
0.7195
0.679772
0.639554
0.598845
0.557649
0.515953
0.473769
0.431054
0.387878
0.344065
0.299965
0.254805
0.210176
0.162742
0.11939
0.0659336
0.0317729
-12.8021
-12.8665
-12.9376
-13.0208
-13.1237
-13.2564
-13.4307
-13.6596
-13.9548
-14.325
-14.7737
-15.2975
-15.8848
-16.516
-17.1644
-17.7974
-18.3791
-18.8726
-19.243
-19.4602
-19.5009
-19.3508
-19.0058
-18.4715
-17.7627
-16.9014
-15.9145
-14.8314
-13.6822
-12.496
-11.2993
-10.1156
-8.96457
-7.86238
-6.82126
-5.84987
-4.95367
-4.13523
-3.39477
-2.73056
-2.13942
-1.61711
-1.15868
-0.75884
-0.412134
-0.113185
0.14318
0.361834
0.547285
0.703648
0.834636
0.943572
1.03342
1.10685
1.16625
1.21375
1.25119
1.28004
1.30143
1.31611
1.32467
1.32753
1.32514
1.31798
1.30655
1.29138
1.27293
1.25165
1.22791
1.20204
1.17433
1.14503
1.11433
1.08243
1.04947
1.01557
0.980834
0.945332
0.909133
0.872288
0.834839
0.796817
0.758246
0.719143
0.679522
0.63939
0.59875
0.557608
0.515953
0.473801
0.431109
0.38795
0.344148
0.300053
0.254897
0.210262
0.16283
0.119459
0.0660073
0.031802
-12.8135
-12.8869
-12.9685
-13.0629
-13.1765
-13.3174
-13.4949
-13.7185
-13.9965
-14.335
-14.7357
-15.1945
-15.7015
-16.2398
-16.787
-17.3161
-17.7971
-18.1993
-18.4935
-18.6539
-18.6609
-18.5018
-18.1723
-17.6762
-17.025
-16.2365
-15.333
-14.3395
-13.2819
-12.1856
-11.0745
-9.96972
-8.88974
-7.84969
-6.86146
-5.9338
-5.07251
-4.28082
-3.55972
-2.90835
-2.32444
-1.80463
-1.34484
-0.94054
-0.586993
-0.279438
-0.0132352
0.216031
0.412491
0.579953
0.721886
0.841426
0.941402
1.02438
1.0927
1.14845
1.19349
1.22929
1.25702
1.27747
1.29122
1.29872
1.30044
1.29687
1.28857
1.27608
1.25994
1.24063
1.21859
1.19417
1.1677
1.13946
1.10967
1.07855
1.04625
1.01291
0.978637
0.943532
0.907667
0.871102
0.833885
0.796055
0.757643
0.718671
0.679155
0.639109
0.598537
0.557449
0.515836
0.473716
0.431049
0.387907
0.344117
0.300028
0.254879
0.210238
0.162812
0.119418
0.0659845
0.0317368
-12.8236
-12.9038
-12.9929
-13.0948
-13.2148
-13.3592
-13.5352
-13.7497
-14.0086
-14.3159
-14.6716
-15.0719
-15.5076
-15.9645