/*--------------------------------*- C++ -*----------------------------------*\
| =========                 |                                                 |
| \\      /  F ield         | OpenFOAM: The Open Source CFD Toolbox           |
|  \\    /   O peration     | Version:  2.1.1                                 |
|   \\  /    A nd           | Web:      www.OpenFOAM.org                      |
|    \\/     M anipulation  |                                                 |
\*---------------------------------------------------------------------------*/
FoamFile
{
    version     2.0;
    format      ascii;
    class       surfaceScalarField;
    location    "0.04";
    object      phi;
}
// * * * * * * * * * * * * * * * * * * * * * * * * * * * * * * * * * * * * * //

dimensions      [0 3 -1 0 0 0 0];

internalField   nonuniform List<scalar> 
13452
(
4.59964e-05
2.24909e-05
2.96567e-05
1.63396e-05
2.11743e-05
8.48243e-06
1.72655e-05
3.90882e-06
1.56143e-05
1.65117e-06
1.4796e-05
8.18311e-07
1.4274e-05
5.22038e-07
1.38713e-05
4.02645e-07
1.3528e-05
3.4333e-07
1.32285e-05
2.99498e-07
1.29682e-05
2.6031e-07
1.27431e-05
2.25095e-07
1.25488e-05
1.94251e-07
1.2381e-05
1.67816e-07
1.22356e-05
1.4539e-07
1.21093e-05
1.26367e-07
1.19991e-05
1.10123e-07
1.1903e-05
9.60964e-08
1.18192e-05
8.38077e-08
1.17464e-05
7.28537e-08
1.16835e-05
6.28904e-08
1.16299e-05
5.36171e-08
1.15851e-05
4.47552e-08
1.15491e-05
3.60487e-08
1.15219e-05
2.7199e-08
1.15038e-05
1.80347e-08
1.14961e-05
7.70554e-09
1.14991e-05
-2.99962e-09
1.15155e-05
-1.63518e-08
1.15394e-05
-2.39324e-08
1.15892e-05
-4.9823e-08
1.15861e-05
3.12566e-09
-1.86584e-07
1.17727e-05
7.49111e-05
1.80238e-05
7.04051e-05
2.08456e-05
6.33061e-05
1.55814e-05
5.66394e-05
1.05755e-05
5.15091e-05
6.78148e-06
4.78383e-05
4.48912e-06
4.52011e-05
3.15925e-06
4.32554e-05
2.34833e-06
4.17681e-05
1.83063e-06
4.05893e-05
1.47826e-06
3.96268e-05
1.22281e-06
3.88227e-05
1.02924e-06
3.8139e-05
8.77889e-07
3.75501e-05
7.56739e-07
3.70376e-05
6.57874e-07
3.65882e-05
5.75826e-07
3.61916e-05
5.06674e-07
3.58402e-05
4.47533e-07
3.55278e-05
3.96235e-07
3.52495e-05
3.51104e-07
3.50016e-05
3.10804e-07
3.4781e-05
2.74229e-07
3.45853e-05
2.40426e-07
3.44128e-05
2.08533e-07
3.42623e-05
1.77703e-07
3.41332e-05
1.47162e-07
3.40251e-05
1.15781e-07
3.39386e-05
8.34814e-08
3.38749e-05
4.73572e-08
3.3839e-05
1.19877e-08
3.38302e-05
-4.10027e-08
3.39029e-05
-6.95717e-08
-1.91567e-07
3.39079e-05
7.85207e-05
1.19596e-05
8.23317e-05
1.70346e-05
8.29835e-05
1.49296e-05
8.14576e-05
1.21014e-05
7.89205e-05
9.31859e-06
7.62163e-05
7.19334e-06
7.36769e-05
5.69864e-06
7.1406e-05
4.61922e-06
6.94172e-05
3.81948e-06
6.76861e-05
3.20937e-06
6.61795e-05
2.72934e-06
6.48657e-05
2.34309e-06
6.37162e-05
2.02741e-06
6.27067e-05
1.76619e-06
6.1817e-05
1.54764e-06
6.10298e-05
1.36298e-06
6.0331e-05
1.20547e-06
5.97087e-05
1.06985e-06
5.9153e-05
9.51963e-07
5.86556e-05
8.48475e-07
5.82097e-05
7.56644e-07
5.78098e-05
6.74175e-07
5.74511e-05
5.99088e-07
5.71301e-05
5.29622e-07
5.68436e-05
4.64125e-07
5.65897e-05
4.01054e-07
5.63669e-05
3.38664e-07
5.61746e-05
2.75687e-07
5.60127e-05
2.09289e-07
5.58844e-05
1.40322e-07
5.57853e-05
5.81121e-08
5.57379e-05
-2.22443e-08
-1.43158e-07
5.56895e-05
7.81463e-05
8.33998e-06
8.19215e-05
1.32594e-05
8.46156e-05
1.22355e-05
8.62347e-05
1.04823e-05
8.69069e-05
8.64634e-06
8.69844e-05
7.11585e-06
8.67093e-05
5.9738e-06
8.62236e-05
5.10483e-06
8.56191e-05
4.42399e-06
8.49516e-05
3.87693e-06
8.42557e-05
3.42521e-06
8.35544e-05
3.04438e-06
8.28636e-05
2.71818e-06
8.21943e-05
2.43547e-06
8.15532e-05
2.18878e-06
8.09441e-05
1.97214e-06
8.03688e-05
1.78069e-06
7.98282e-05
1.61047e-06
7.9322e-05
1.45816e-06
7.88495e-05
1.32096e-06
7.84097e-05
1.19644e-06
7.80015e-05
1.08245e-06
7.76235e-05
9.77027e-07
7.72748e-05
8.78353e-07
7.69543e-05
7.84631e-07
7.66612e-05
6.9409e-07
7.63951e-05
6.04765e-07
7.6156e-05
5.14847e-07
7.59438e-05
4.21487e-07
7.57608e-05
3.23326e-07
7.56055e-05
2.13442e-07
7.54885e-05
9.47123e-08
-5.09175e-08
7.53963e-05
7.89909e-05
6.00494e-06
8.15889e-05
1.06614e-05
8.35138e-05
1.03106e-05
8.49556e-05
9.04051e-06
8.59716e-05
7.6304e-06
8.67099e-05
6.37747e-06
8.72726e-05
5.41116e-06
8.7707e-05
4.6704e-06
8.80444e-05
4.08662e-06
8.83056e-05
3.61575e-06
8.85047e-05
3.22611e-06
8.86526e-05
2.89647e-06
8.87571e-05
2.61371e-06
8.88241e-05
2.36843e-06
8.88598e-05
2.15305e-06
8.88699e-05
1.96208e-06
8.88592e-05
1.79142e-06
8.88319e-05
1.63778e-06
8.87916e-05
1.49846e-06
8.87413e-05
1.37119e-06
8.86838e-05
1.254e-06
8.86211e-05
1.14512e-06
8.85552e-05
1.04292e-06
8.84877e-05
9.45827e-07
8.84201e-05
8.52255e-07
8.83536e-05
7.60588e-07
8.82894e-05
6.69014e-07
8.82285e-05
5.75682e-07
8.8172e-05
4.78029e-07
8.81214e-05
3.73943e-07
8.80762e-05
2.5857e-07
8.80403e-05
1.3062e-07
-1.9815e-08
8.80092e-05
8.04625e-05
4.38832e-06
8.25028e-05
8.6211e-06
8.3986e-05
8.82739e-06
8.50418e-05
7.98474e-06
8.57603e-05
6.91191e-06
8.62701e-05
5.86762e-06
8.66727e-05
5.00858e-06
8.70152e-05
4.32791e-06
8.73207e-05
3.78114e-06
8.76006e-05
3.33582e-06
8.78599e-05
2.96686e-06
8.81008e-05
2.6555e-06
8.83257e-05
2.38884e-06
8.85362e-05
2.15788e-06
8.87334e-05
1.95591e-06
8.89178e-05
1.77769e-06
8.90901e-05
1.61912e-06
8.92509e-05
1.4769e-06
8.94011e-05
1.34834e-06
8.95411e-05
1.23117e-06
8.96716e-05
1.12343e-06
8.97934e-05
1.02341e-06
8.99068e-05
9.29508e-07
9.00124e-05
8.40236e-07
9.01105e-05
7.54105e-07
9.02015e-05
6.69609e-07
9.02854e-05
5.85107e-07
9.03622e-05
4.98893e-07
9.04315e-05
4.08771e-07
9.04927e-05
3.12684e-07
9.05444e-05
2.06899e-07
9.05858e-05
8.91544e-08
-4.85599e-08
9.06146e-05
8.22336e-05
3.25331e-06
8.3892e-05
6.96264e-06
8.51768e-05
7.54262e-06
8.61065e-05
7.055e-06
8.67434e-05
6.275e-06
8.71777e-05
5.43342e-06
8.7497e-05
4.68926e-06
8.77507e-05
4.07413e-06
8.79657e-05
3.56623e-06
8.81571e-05
3.1444e-06
8.83332e-05
2.79077e-06
8.84982e-05
2.49046e-06
8.86546e-05
2.23242e-06
8.88039e-05
2.00859e-06
8.8947e-05
1.81281e-06
8.90845e-05
1.6402e-06
8.92168e-05
1.48686e-06
8.9344e-05
1.34965e-06
8.94664e-05
1.22594e-06
8.95841e-05
1.11351e-06
8.96971e-05
1.01045e-06
8.98054e-05
9.1507e-07
8.99091e-05
8.25839e-07
9.0008e-05
7.41315e-07
9.0102e-05
6.60103e-07
9.01908e-05
5.80819e-07
9.02739e-05
5.02003e-07
9.03506e-05
4.22155e-07
9.04199e-05
3.3948e-07
9.04804e-05
2.52229e-07
9.05296e-05
1.577e-07
9.05649e-05
5.38667e-08
-6.39651e-08
9.05803e-05
8.4216e-05
2.45284e-06
8.55481e-05
5.63052e-06
8.66673e-05
6.42346e-06
8.75209e-05
6.20143e-06
8.81419e-05
5.65394e-06
8.85833e-05
4.99201e-06
8.89103e-05
4.36223e-06
8.91666e-05
3.81787e-06
8.93777e-05
3.35512e-06
8.95597e-05
2.96242e-06
8.97221e-05
2.6284e-06
8.98704e-05
2.34213e-06
9.00081e-05
2.09472e-06
9.01374e-05
1.87929e-06
9.02598e-05
1.69042e-06
9.03763e-05
1.52371e-06
9.04876e-05
1.37558e-06
9.05942e-05
1.24305e-06
9.06964e-05
1.12367e-06
9.07946e-05
1.01532e-06
9.08889e-05
9.16178e-07
9.09793e-05
8.24638e-07
9.10659e-05
7.39249e-07
9.11485e-05
6.58674e-07
9.1227e-05
5.81638e-07
9.13009e-05
5.06911e-07
9.13697e-05
4.33246e-07
9.14324e-05
3.59407e-07
9.14879e-05
2.84031e-07
9.15343e-05
2.05825e-07
9.15688e-05
1.23125e-07
9.1588e-05
3.47112e-08
-6.11572e-08
9.15852e-05
8.63714e-05
1.88017e-06
8.74388e-05
4.56313e-06
8.84073e-05
5.45497e-06
8.91808e-05
5.4279e-06
8.97725e-05
5.06223e-06
9.0213e-05
4.55149e-06
9.05495e-05
4.02579e-06
9.08183e-05
3.54909e-06
9.10419e-05
3.13152e-06
9.12348e-05
2.76947e-06
9.14063e-05
2.45689e-06
9.15621e-05
2.18639e-06
9.17057e-05
1.95111e-06
9.18396e-05
1.74537e-06
9.19655e-05
1.56452e-06
9.20846e-05
1.40464e-06
9.21977e-05
1.26248e-06
9.23054e-05
1.13532e-06
9.24082e-05
1.02086e-06
9.25064e-05
9.17118e-07
9.26002e-05
8.22382e-07
9.26897e-05
7.35149e-07
9.27749e-05
6.54074e-07
9.28556e-05
5.77938e-07
9.29316e-05
5.05613e-07
9.30025e-05
4.36045e-07
9.30675e-05
3.68233e-07
9.31257e-05
3.01238e-07
9.31755e-05
2.34152e-07
9.32151e-05
1.66214e-07
9.32416e-05
9.67111e-08
9.32509e-05
2.5399e-08
-4.73611e-08
9.32371e-05
8.86669e-05
1.46328e-06
8.95222e-05
3.70781e-06
9.03572e-05
4.62002e-06
9.10551e-05
4.72996e-06
9.16131e-05
4.50421e-06
9.20464e-05
4.11822e-06
9.23868e-05
3.68538e-06
9.26634e-05
3.27245e-06
9.28958e-05
2.89917e-06
9.3097e-05
2.56824e-06
9.3276e-05
2.27791e-06
9.34384e-05
2.02396e-06
9.35881e-05
1.80146e-06
9.37275e-05
1.60597e-06
9.38584e-05
1.4336e-06
9.39821e-05
1.28098e-06
9.40993e-05
1.1452e-06
9.42109e-05
1.02378e-06
9.43171e-05
9.14614e-07
9.44184e-05
8.15852e-07
9.45149e-05
7.25905e-07
9.46066e-05
6.43382e-07
9.46937e-05
5.67053e-07
9.47758e-05
4.95828e-07
9.48526e-05
4.28738e-07
9.49238e-05
3.64919e-07
9.49884e-05
3.03618e-07
9.50454e-05
2.44207e-07
9.50934e-05
1.86204e-07
9.51302e-05
1.29367e-07
9.51532e-05
7.37606e-08
9.51586e-05
1.99953e-08
-3.03617e-08
9.51416e-05
9.10806e-05
1.15396e-06
9.17679e-05
3.0205e-06
9.24867e-05
3.90123e-06
9.31157e-05
4.10098e-06
9.36391e-05
3.98082e-06
9.40612e-05
3.69614e-06
9.4402e-05
3.34457e-06
9.4684e-05
2.9905e-06
9.49235e-05
2.65958e-06
9.51324e-05
2.3594e-06
9.53186e-05
2.09166e-06
9.54878e-05
1.85478e-06
9.56436e-05
1.64565e-06
9.57886e-05
1.46096e-06
9.59246e-05
1.29759e-06
9.60529e-05
1.15269e-06
9.61744e-05
1.02372e-06
9.62897e-05
9.08439e-07
9.63994e-05
8.04929e-07
9.65038e-05
7.11501e-07
9.6603e-05
6.26693e-07
9.66971e-05
5.49232e-07
9.67862e-05
4.78013e-07
9.68699e-05
4.12085e-07
9.6948e-05
3.50633e-07
9.702e-05
2.92987e-07
9.7085e-05
2.38628e-07
9.71419e-05
1.87216e-07
9.71895e-05
1.38639e-07
9.72258e-05
9.30919e-08
9.72483e-05
5.12005e-08
9.72541e-05
1.41928e-08
-1.58697e-08
9.72397e-05
9.3599e-05
9.1963e-07
9.41541e-05
2.46542e-06
9.47721e-05
3.28314e-06
9.53378e-05
3.53533e-06
9.58264e-05
3.49226e-06
9.62347e-05
3.28781e-06
9.65738e-05
3.00543e-06
9.68599e-05
2.7044e-06
9.71063e-05
2.41323e-06
9.73227e-05
2.14294e-06
9.75166e-05
1.89783e-06
9.76929e-05
1.67841e-06
9.78554e-05
1.48315e-06
9.80066e-05
1.30979e-06
9.81483e-05
1.15593e-06
9.82817e-05
1.01922e-06
9.8408e-05
8.97473e-07
9.85277e-05
7.88735e-07
9.86413e-05
6.91265e-07
9.87493e-05
6.03535e-07
9.88518e-05
5.24217e-07
9.89489e-05
4.52162e-07
9.90405e-05
3.86392e-07
9.91265e-05
3.26088e-07
9.92065e-05
2.70589e-07
9.92801e-05
2.19401e-07
9.93465e-05
1.72213e-07
9.94048e-05
1.28929e-07
9.94537e-05
8.97245e-08
9.94917e-05
5.51121e-08
9.95168e-05
2.60662e-08
9.95269e-05
4.15961e-09
-8.50359e-09
9.95195e-05
9.62134e-05
7.38331e-07
9.66648e-05
2.01399e-06
9.71966e-05
2.75141e-06
9.77048e-05
3.02708e-06
9.81595e-05
3.03752e-06
9.85524e-05
2.89494e-06
9.88877e-05
2.67017e-06
9.91761e-05
2.41596e-06
9.9428e-05
2.16136e-06
9.96514e-05
1.91953e-06
9.98526e-05
1.69659e-06
0.000100036
1.49468e-06
0.000100206
1.31356e-06
0.000100364
1.15191e-06
0.000100512
1.00798e-06
0.000100651
8.79895e-07
0.000100783
7.65816e-07
0.000100907
6.64032e-07
0.000101026
5.72998e-07
0.000101138
4.91342e-07
0.000101244
4.17869e-07
0.000101345
3.51552e-07
0.00010144
2.91536e-07
0.000101529
2.37126e-07
0.000101611
1.87802e-07
0.000101688
1.43219e-07
0.000101757
1.03237e-07
0.000101818
6.79457e-08
0.00010187
3.77173e-08
0.000101911
1.3259e-08
0.000101942
-4.30427e-09
0.000101959
-1.33218e-08
-1.17328e-08
0.000101963
9.8919e-05
5.95096e-07
9.92894e-05
1.64355e-06
9.97478e-05
2.29298e-06
0.000100204
2.57042e-06
0.000100627
2.61511e-06
0.000101003
2.51863e-06
0.000101333
2.34052e-06
0.000101622
2.12665e-06
0.000101879
1.90498e-06
0.000102108
1.68971e-06
0.000102317
1.48812e-06
0.000102508
1.30351e-06
0.000102685
1.13667e-06
0.00010285
9.87022e-07
0.000103004
8.53399e-07
0.00010315
7.34347e-07
0.000103287
6.28344e-07
0.000103418
5.33916e-07
0.000103541
4.49701e-07
0.000103658
3.74478e-07
0.000103768
3.07179e-07
0.000103873
2.46895e-07
0.000103972
1.92882e-07
0.000104064
1.4456e-07
0.000104151
1.01522e-07
0.00010423
6.35488e-08
0.000104303
3.06229e-08
0.000104368
2.95552e-09
0.000104424
-1.89738e-08
0.000104472
-3.43749e-08
0.00010451
-4.21166e-08
0.000104537
-4.06147e-08
-2.81893e-08
0.000104554
0.000101713
4.79615e-07
0.00010202
1.33636e-06
0.000102417
1.89617e-06
0.000102828
2.15957e-06
0.00010322
2.22289e-06
0.00010358
2.15906e-06
0.000103903
2.0176e-06
0.000104192
1.83766e-06
0.000104452
1.64508e-06
0.000104687
1.45418e-06
0.000104902
1.27283e-06
0.000105101
1.10508e-06
0.000105285
9.52439e-07
0.000105457
8.14953e-07
0.000105619
6.91916e-07
0.000105771
5.8224e-07
0.000105914
4.84681e-07
0.00010605
3.9798e-07
0.000106179
3.20944e-07
0.000106301
2.52489e-07
0.000106417
1.91665e-07
0.000106526
1.3767e-07
0.000106629
8.98563e-08
0.000106726
4.77399e-08
0.000106816
1.10057e-08
0.0001069
-2.048e-08
0.000106978
-4.66548e-08
0.000107048
-6.72442e-08
0.000107111
-8.17351e-08
0.000107166
-8.93608e-08
0.000107212
-8.90836e-08
0.000107251
-7.95129e-08
-5.93634e-08
0.000107283
0.000104595
3.84674e-07
0.000104853
1.07853e-06
0.000105199
1.55069e-06
0.000105569
1.78888e-06
0.000105934
1.85835e-06
0.000106277
1.81585e-06
0.000106593
1.70205e-06
0.00010688
1.54988e-06
0.000107143
1.38243e-06
0.000107384
1.21349e-06
0.000107606
1.05103e-06
0.000107811
8.99477e-07
0.000108003
7.60814e-07
0.000108182
6.35533e-07
0.000108351
5.23289e-07
0.00010851
4.23286e-07
0.00010866
3.34511e-07
0.000108802
2.55889e-07
0.000108937
1.86373e-07
0.000109064
1.25001e-07
0.000109185
7.09263e-08
0.000109299
2.34374e-08
0.000109407
-1.80316e-08
0.000109509
-5.38912e-08
0.000109604
-8.43908e-08
0.000109693
-1.0961e-07
0.000109776
-1.2945e-07
0.000109852
-1.43626e-07
0.000109922
-1.51655e-07
0.000109986
-1.52855e-07
0.000110043
-1.46353e-07
0.000110095
-1.31023e-07
-1.05987e-07
0.000110141
0.000107566
3.05128e-07
0.000107785
8.59223e-07
0.000108088
1.24754e-06
0.000108424
1.45291e-06
0.000108764
1.51865e-06
0.000109091
1.48802e-06
0.0001094
1.39395e-06
0.000109686
1.26376e-06
0.000109951
1.11754e-06
0.000110196
9.68034e-07
0.000110424
8.22964e-07
0.000110637
6.86801e-07
0.000110836
5.61771e-07
0.000111023
4.48643e-07
0.000111199
3.47324e-07
0.000111365
2.57233e-07
0.000111522
1.77539e-07
0.00011167
1.07313e-07
0.000111811
4.56285e-08
0.000111944
-8.37431e-09
0.000112071
-5.54589e-08
0.000112191
-9.62619e-08
0.000112304
-1.31287e-07
0.000112411
-1.60892e-07
0.000112512
-1.85288e-07
0.000112607
-2.04532e-07
0.000112696
-2.18523e-07
0.000112779
-2.27007e-07
0.000112857
-2.29574e-07
0.00011293
-2.25668e-07
0.000112998
-2.14617e-07
0.000113063
-1.95576e-07
-1.6802e-07
0.000113125
0.000110625
2.37228e-07
0.000110814
6.69919e-07
0.000111083
9.78928e-07
0.000111389
1.14648e-06
0.000111707
1.20077e-06
0.000112021
1.17415e-06
0.000112322
1.09291e-06
0.000112606
9.7937e-07
0.000112873
8.50614e-07
0.000113123
7.18027e-07
0.000113357
5.88751e-07
0.000113577
4.67065e-07
0.000113784
3.55225e-07
0.000113978
2.5412e-07
0.000114162
1.63802e-07
0.000114335
8.38263e-08
0.000114499
1.34847e-08
0.000114655
-4.80451e-08
0.000114802
-1.01599e-07
0.000114941
-1.47961e-07
0.000115074
-1.87829e-07
0.000115199
-2.21788e-07
0.000115318
-2.50297e-07
0.000115431
-2.73684e-07
0.000115538
-2.92142e-07
0.000115639
-3.05731e-07
0.000115735
-3.14378e-07
0.000115826
-3.17887e-07
0.000115912
-3.15946e-07
0.000115995
-3.08149e-07
0.000116074
-2.94026e-07
0.000116152
-2.73008e-07
-2.44871e-07
0.000116228
0.000113775
1.78173e-07
0.000113941
5.03887e-07
0.000114181
7.38141e-07
0.000114463
8.64676e-07
0.000114762
9.01498e-07
0.000115064
8.72411e-07
0.000115359
7.98048e-07
0.000115642
6.96357e-07
0.000115911
5.81531e-07
0.000116166
4.63399e-07
0.000116406
3.48307e-07
0.000116633
2.40135e-07
0.000116847
1.40986e-07
0.00011705
5.17282e-08
0.000117241
-2.75514e-08
0.000117422
-9.72377e-08
0.000117594
-1.57975e-07
0.000117756
-2.10522e-07
0.00011791
-2.55659e-07
0.000118056
-2.94119e-07
0.000118195
-3.26559e-07
0.000118327
-3.53529e-07
0.000118452
-3.75463e-07
0.000118571
-3.92679e-07
0.000118684
-4.05373e-07
0.000118792
-4.13625e-07
0.000118895
-4.17409e-07
0.000118994
-4.16603e-07
0.000119089
-4.11005e-07
0.000119181
-4.00356e-07
0.000119271
-3.84376e-07
0.000119361
-3.62738e-07
-3.35436e-07
0.000119452
0.000117017
1.25815e-07
0.000117165
3.55729e-07
0.000117384
5.19346e-07
0.000117645
6.02853e-07
0.000117929
6.17549e-07
0.000118221
5.80657e-07
0.000118511
5.08077e-07
0.000118794
4.13975e-07
0.000119065
3.09833e-07
0.000119325
2.03839e-07
0.000119572
1.01379e-07
0.000119806
5.76732e-09
0.000120028
-8.11953e-08
0.000120239
-1.58793e-07
0.000120438
-2.27001e-07
0.000120627
-2.86225e-07
0.000120806
-3.37102e-07
0.000120976
-3.80376e-07
0.000121137
-4.16802e-07
0.00012129
-4.47093e-07
0.000121436
-4.71885e-07
0.000121574
-4.91713e-07
0.000121705
-5.07007e-07
0.000121831
-5.18086e-07
0.000121951
-5.25164e-07
0.000122065
-5.28358e-07
0.000122176
-5.27696e-07
0.000122282
-5.23136e-07
0.000122386
-5.14585e-07
0.000122487
-5.0192e-07
0.000122588
-4.85027e-07
0.000122689
-4.63784e-07
-4.38347e-07
0.000122792
0.000120353
7.84561e-08
0.000120488
2.21033e-07
0.00012069
3.17442e-07
0.000120936
3.56608e-07
0.000121208
3.45514e-07
0.000121493
2.96412e-07
0.000121779
2.21285e-07
0.000122062
1.31036e-07
0.000122337
3.46545e-08
0.000122603
-6.13373e-08
0.000122857
-1.5262e-07
0.000123099
-2.36569e-07
0.00012333
-3.11824e-07
0.000123549
-3.77927e-07
0.000123757
-4.35015e-07
0.000123954
-4.83585e-07
0.000124141
-5.24328e-07
0.000124319
-5.58013e-07
0.000124488
-5.85412e-07
0.000124648
-6.07241e-07
0.0001248
-6.24138e-07
0.000124945
-6.36644e-07
0.000125083
-6.45197e-07
0.000125215
-6.50132e-07
0.000125342
-6.5169e-07
0.000125463
-6.5003e-07
0.000125581
-6.45239e-07
0.000125695
-6.3735e-07
0.000125807
-6.26367e-07
0.000125917
-6.1228e-07
0.000126027
-5.95107e-07
0.000126138
-5.74871e-07
-5.51818e-07
0.000126252
0.000123787
3.47075e-08
0.000123912
9.60939e-08
0.000124101
1.27884e-07
0.000124336
1.2172e-07
0.0001246
8.18836e-08
0.000124879
1.69185e-08
0.000125165
-6.44097e-08
0.00012545
-1.54013e-07
0.00012573
-2.45184e-07
0.000126002
-3.33045e-07
0.000126264
-4.1442e-07
0.000126514
-4.87479e-07
0.000126754
-5.51405e-07
0.000126982
-6.06105e-07
0.000127199
-6.51959e-07
0.000127405
-6.89628e-07
0.000127601
-7.19912e-07
0.000127786
-7.43651e-07
0.000127963
-7.61662e-07
0.00012813
-7.74695e-07
0.000128289
-7.83412e-07
0.000128441
-7.88372e-07
0.000128586
-7.90034e-07
0.000128725
-7.88758e-07
0.000128858
-7.8482e-07
0.000128986
-7.78418e-07
0.000129111
-7.69695e-07
0.000129232
-7.58752e-07
0.000129351
-7.45669e-07
0.000129469
-7.3053e-07
0.000129588
-7.13447e-07
0.000129708
-6.94562e-07
-6.74169e-07
0.00012983
0.00012732
-6.61509e-09
0.000127438
-2.23045e-08
0.00012762
-5.34919e-08
0.000127847
-1.05954e-07
0.000128106
-1.77036e-07
0.000128384
-2.60951e-07
0.000128671
-3.51582e-07
0.000128961
-4.43283e-07
0.000129247
-5.31436e-07
0.000129527
-6.12771e-07
0.000129797
-6.85307e-07
0.000130058
-7.4809e-07
0.000130308
-8.00939e-07
0.000130546
-8.44216e-07
0.000130772
-8.78624e-07
0.000130988
-9.05053e-07
0.000131192
-9.24464e-07
0.000131386
-9.37813e-07
0.000131571
-9.45996e-07
0.000131746
-9.4982e-07
0.000131912
-9.4999e-07
0.000132071
-9.47097e-07
0.000132223
-9.41631e-07
0.000132368
-9.33983e-07
0.000132508
-9.24461e-07
0.000132643
-9.13302e-07
0.000132774
-9.00694e-07
0.000132902
-8.86789e-07
0.000133028
-8.71725e-07
0.000133153
-8.55646e-07
0.000133278
-8.38718e-07
0.000133405
-8.21142e-07
-8.03195e-07
0.000133534
0.000130955
-4.65805e-08
0.00013107
-1.37084e-07
0.000131247
-2.30623e-07
0.000131471
-3.30535e-07
0.000131729
-4.35099e-07
0.000132009
-5.40592e-07
0.000132301
-6.43099e-07
0.000132596
-7.39134e-07
0.000132891
-8.26018e-07
0.00013318
-9.02065e-07
0.000133462
-9.66528e-07
0.000133733
-1.0194e-06
0.000133993
-1.06123e-06
0.000134242
-1.09289e-06
0.000134479
-1.1155e-06
0.000134704
-1.13023e-06
0.000134918
-1.13826e-06
0.000135121
-1.14068e-06
0.000135313
-1.13851e-06
0.000135496
-1.13264e-06
0.00013567
-1.12382e-06
0.000135835
-1.11269e-06
0.000135993
-1.09977e-06
0.000136145
-1.08549e-06
0.000136291
-1.07019e-06
0.000136431
-1.05414e-06
0.000136568
-1.03755e-06
0.000136702
-1.02061e-06
0.000136834
-1.0035e-06
0.000136965
-9.86401e-07
0.000137095
-9.69505e-07
0.000137227
-9.53056e-07
-9.37301e-07
0.000137361
0.000134695
-8.61823e-08
0.000134809
-2.51046e-07
0.000134986
-4.07443e-07
0.000135211
-5.56384e-07
0.000135473
-6.96643e-07
0.000135758
-8.26089e-07
0.000136058
-9.42687e-07
0.000136364
-1.0449e-06
0.00013667
-1.13189e-06
0.000136971
-1.20354e-06
0.000137265
-1.26037e-06
0.000137549
-1.3034e-06
0.000137822
-1.33398e-06
0.000138082
-1.3536e-06
0.000138331
-1.36383e-06
0.000138567
-1.3662e-06
0.000138791
-1.36213e-06
0.000139003
-1.35292e-06
0.000139204
-1.33971e-06
0.000139395
-1.32348e-06
0.000139576
-1.30508e-06
0.000139749
-1.28519e-06
0.000139913
-1.26436e-06
0.000140071
-1.24305e-06
0.000140222
-1.22163e-06
0.000140368
-1.20038e-06
0.00014051
-1.17954e-06
0.000140649
-1.15931e-06
0.000140785
-1.13988e-06
0.000140921
-1.12143e-06
0.000141055
-1.10416e-06
0.00014119
-1.08828e-06
-1.07396e-06
0.000141327
0.000138542
-1.26424e-07
0.000138658
-3.67008e-07
0.000138839
-5.87956e-07
0.000139071
-7.87993e-07
0.00013934
-9.66144e-07
0.000139636
-1.1216e-06
0.000139947
-1.25402e-06
0.000140266
-1.36372e-06
0.000140585
-1.45167e-06
0.000140901
-1.51934e-06
0.00014121
-1.56858e-06
0.000141508
-1.60152e-06
0.000141794
-1.62035e-06
0.000142068
-1.62725e-06
0.000142328
-1.62432e-06
0.000142575
-1.61348e-06
0.00014281
-1.59645e-06
0.000143032
-1.57476e-06
0.000143242
-1.54969e-06
0.00014344
-1.52236e-06
0.000143629
-1.49366e-06
0.000143808
-1.46436e-06
0.000143979
-1.43504e-06
0.000144142
-1.40618e-06
0.000144299
-1.37816e-06
0.000144449
-1.35128e-06
0.000144596
-1.32577e-06
0.000144738
-1.30184e-06
0.000144878
-1.27968e-06
0.000145016
-1.25944e-06
0.000145153
-1.24129e-06
0.00014529
-1.22546e-06
-1.21204e-06
0.000145428
0.000142501
-1.68421e-07
0.000142622
-4.88121e-07
0.000142811
-7.7681e-07
0.000143054
-1.03088e-06
0.000143337
-1.24951e-06
0.000143649
-1.43305e-06
0.000143978
-1.5828e-06
0.000144315
-1.70091e-06
0.000144653
-1.79016e-06
0.000144988
-1.85371e-06
0.000145314
-1.89484e-06
0.000145629
-1.91684e-06
0.000145932
-1.92289e-06
0.000146221
-1.91593e-06
0.000146495
-1.89862e-06
0.000146755
-1.87335e-06
0.000147
-1.84217e-06
0.000147233
-1.80684e-06
0.000147452
-1.76885e-06
0.000147659
-1.72941e-06
0.000147855
-1.68952e-06
0.00014804
-1.64997e-06
0.000148217
-1.6114e-06
0.000148385
-1.5743e-06
0.000148546
-1.53904e-06
0.0001487
-1.50593e-06
0.00014885
-1.47517e-06
0.000148995
-1.44696e-06
0.000149137
-1.42145e-06
0.000149276
-1.39874e-06
0.000149413
-1.37897e-06
0.00014955
-1.36226e-06
-1.34861e-06
0.000149687
0.000146574
-2.13347e-07
0.000146704
-6.17712e-07
0.000146906
-9.78726e-07
0.000147165
-1.29034e-06
0.000147468
-1.55199e-06
0.0001478
-1.76534e-06
0.000148151
-1.93339e-06
0.00014851
-2.06026e-06
0.00014887
-2.15066e-06
0.000149226
-2.20951e-06
0.000149573
-2.24161e-06
0.000149908
-2.25152e-06
0.000150228
-2.24346e-06
0.000150534
-2.2212e-06
0.000150823
-2.18804e-06
0.000151096
-2.14687e-06
0.000151354
-2.10011e-06
0.000151597
-2.04979e-06
0.000151826
-1.99758e-06
0.000152041
-1.94484e-06
0.000152245
-1.89265e-06
0.000152437
-1.84186e-06
0.000152618
-1.79311e-06
0.000152791
-1.74691e-06
0.000152955
-1.70363e-06
0.000153113
-1.66353e-06
0.000153265
-1.62682e-06
0.000153411
-1.59363e-06
0.000153554
-1.56406e-06
0.000153693
-1.53819e-06
0.000153831
-1.51608e-06
0.000153966
-1.49784e-06
-1.48334e-06
0.000154101
0.000150765
-2.62934e-07
0.000150908
-7.60645e-07
0.000151131
-1.20104e-06
0.000151415
-1.57533e-06
0.000151747
-1.88339e-06
0.00015211
-2.12839e-06
0.000152492
-2.31524e-06
0.000152882
-2.45031e-06
0.000153272
-2.54058e-06
0.000153655
-2.59294e-06
0.000154027
-2.61392e-06
0.000154385
-2.60951e-06
0.000154727
-2.58507e-06
0.000155051
-2.54527e-06
0.000155357
-2.49413e-06
0.000155645
-2.43505e-06
0.000155916
-2.37083e-06
0.00015617
-2.30379e-06
0.000156408
-2.23579e-06
0.000156632
-2.16831e-06
0.000156842
-2.10251e-06
0.000157039
-2.03927e-06
0.000157225
-1.97926e-06
0.000157401
-1.92295e-06
0.000157568
-1.8707e-06
0.000157728
-1.82273e-06
0.00015788
-1.7792e-06
0.000158026
-1.74017e-06
0.000158168
-1.70569e-06
0.000158306
-1.67574e-06
0.00015844
-1.65031e-06
0.000158571
-1.62936e-06
-1.61265e-06
0.000158701
0.000155077
-3.18587e-07
0.000155238
-9.21054e-07
0.000155486
-1.44916e-06
0.000155802
-1.89144e-06
0.000156168
-2.24908e-06
0.000156567
-2.52732e-06
0.000156985
-2.73335e-06
0.00015741
-2.87605e-06
0.000157835
-2.96483e-06
0.000158251
-3.00881e-06
0.000158653
-3.01636e-06
0.000159039
-2.99508e-06
0.000159405
-2.95159e-06
0.000159751
-2.89158e-06
0.000160077
-2.81983e-06
0.000160382
-2.74032e-06
0.000160668
-2.65629e-06
0.000160934
-2.57036e-06
0.000161183
-2.48457e-06
0.000161415
-2.40054e-06
0.000161632
-2.31949e-06
0.000161835
-2.24233e-06
0.000162026
-2.1697e-06
0.000162205
-2.10207e-06
0.000162374
-2.03973e-06
0.000162534
-1.98285e-06
0.000162686
-1.93151e-06
0.000162832
-1.88573e-06
0.000162972
-1.84546e-06
0.000163107
-1.81061e-06
0.000163237
-1.78108e-06
0.000163365
-1.75679e-06
-1.7374e-06
0.00016349
0.000159517
-3.84566e-07
0.000159706
-1.10997e-06
0.000159995
-1.73915e-06
0.000160361
-2.25736e-06
0.00016078
-2.6681e-06
0.000161233
-2.97971e-06
0.000161702
-3.20267e-06
0.000162176
-3.3494e-06
0.000162643
-3.43251e-06
0.000163098
-3.46368e-06
0.000163535
-3.45347e-06
0.000163951
-3.41117e-06
0.000164344
-3.34475e-06
0.000164714
-3.26095e-06
0.000165059
-3.16532e-06
0.000165381
-3.06242e-06
0.000165681
-2.9559e-06
0.000165959
-2.84865e-06
0.000166218
-2.74289e-06
0.000166457
-2.64034e-06
0.00016668
-2.54226e-06
0.000166887
-2.44956e-06
0.000167081
-2.36286e-06
0.000167261
-2.28256e-06
0.00016743
-2.2089e-06
0.000167589
-2.14195e-06
0.00016774
-2.08172e-06
0.000167882
-2.02813e-06
0.000168017
-1.98102e-06
0.000168147
-1.94021e-06
0.000168271
-1.90547e-06
0.000168391
-1.87657e-06
-1.85302e-06
0.000168507
0.000164082
-4.60612e-07
0.000164302
-1.32942e-06
0.000164635
-2.07299e-06
0.000165053
-2.6754e-06
0.00016553
-3.14466e-06
0.000166043
-3.49245e-06
0.000166573
-3.73261e-06
0.000167105
-3.88154e-06
0.000167628
-3.95558e-06
0.000168134
-3.96953e-06
0.000168617
-3.93652e-06
0.000169074
-3.86795e-06
0.000169502
-3.77343e-06
0.000169902
-3.66088e-06
0.000170274
-3.53677e-06
0.000170618
-3.4063e-06
0.000170935
-3.27352e-06
0.000171228
-3.14159e-06
0.000171498
-3.01291e-06
0.000171747
-2.88925e-06
0.000171977
-2.77186e-06
0.000172189
-2.66161e-06
0.000172385
-2.55906e-06
0.000172567
-2.46452e-06
0.000172736
-2.3781e-06
0.000172894
-2.29981e-06
0.000173042
-2.22952e-06
0.000173181
-2.16705e-06
0.000173312
-2.11216e-06
0.000173436
-2.06455e-06
0.000173555
-2.02391e-06
0.000173668
-1.98996e-06
-1.96207e-06
0.000173777
0.000168795
-5.64097e-07
0.000169081
-1.61537e-06
0.000169503
-2.49488e-06
0.000170015
-3.1877e-06
0.000170584
-3.71292e-06
0.000171181
-4.08969e-06
0.000171786
-4.3382e-06
0.000172386
-4.48061e-06
0.000172967
-4.5375e-06
0.000173525
-4.52688e-06
0.000174053
-4.46446e-06
0.000174548
-4.36364e-06
0.000175011
-4.23556e-06
0.000175439
-4.08932e-06
0.000175834
-3.93222e-06
0.000176198
-3.77003e-06
0.000176532
-3.60725e-06
0.000176838
-3.44726e-06
0.000177117
-3.29259e-06
0.000177373
-3.14505e-06
0.000177607
-3.00587e-06
0.000177821
-2.87585e-06
0.000178018
-2.75545e-06
0.000178198
-2.64484e-06
0.000178364
-2.54403e-06
0.000178517
-2.45287e-06
0.000178659
-2.37112e-06
0.00017879
-2.29847e-06
0.000178912
-2.23453e-06
0.000179027
-2.17891e-06
0.000179134
-2.13113e-06
0.000179235
-2.09076e-06
-2.05699e-06
0.00017933
0.000173623
-6.76022e-07
0.000173955
-1.94758e-06
0.000174449
-2.98854e-06
0.000175054
-3.79269e-06
0.00017573
-4.38874e-06
0.00017644
-4.80013e-06
0.000177157
-5.05463e-06
0.000177859
-5.18301e-06
0.000178534
-5.21229e-06
0.000179172
-5.16528e-06
0.000179769
-5.0614e-06
0.000180323
-4.91683e-06
0.000180832
-4.74463e-06
0.000181298
-4.55524e-06
0.000181722
-4.35687e-06
0.000182108
-4.15586e-06
0.000182458
-3.95698e-06
0.000182774
-3.76378e-06
0.00018306
-3.57877e-06
0.000183319
-3.40369e-06
0.000183553
-3.23964e-06
0.000183764
-3.08724e-06
0.000183955
-2.94675e-06
0.000184129
-2.81816e-06
0.000184286
-2.70128e-06
0.000184429
-2.59579e-06
0.000184559
-2.50127e-06
0.000184678
-2.41727e-06
0.000184787
-2.3433e-06
0.000184887
-2.27887e-06
0.000184979
-2.22345e-06
0.000185065
-2.17656e-06
-2.13723e-06
0.000185145
0.000178683
-8.90353e-07
0.000179193
-2.45758e-06
0.000179869
-3.66429e-06
0.000180631
-4.55473e-06
0.000181437
-5.19538e-06
0.000182256
-5.61899e-06
0.000183063
-5.86183e-06
0.000183843
-5.96219e-06
0.000184582
-5.95191e-06
0.000185275
-5.8578e-06
0.000185916
-5.70281e-06
0.000186505
-5.50574e-06
0.000187042
-5.28162e-06
0.000187529
-5.04226e-06
0.000187969
-4.79676e-06
0.000188365
-4.55198e-06
0.000188721
-4.31296e-06
0.000189041
-4.08328e-06
0.000189327
-3.86536e-06
0.000189584
-3.66076e-06
0.000189815
-3.47035e-06
0.000190022
-3.29448e-06
0.000190209
-3.13314e-06
0.000190376
-2.98604e-06
0.000190528
-2.85274e-06
0.000190665
-2.73267e-06
0.000190789
-2.62522e-06
0.000190901
-2.52976e-06
0.000191004
-2.44569e-06
0.000191097
-2.37239e-06
0.000191183
-2.30931e-06
0.000191262
-2.25591e-06
-2.21111e-06
0.000191336
0.000183746
-1.06934e-06
0.00018434
-3.05112e-06
0.000185176
-4.50048e-06
0.000186152
-5.53026e-06
0.000187185
-6.22824e-06
0.000188211
-6.64578e-06
0.000189198
-6.84869e-06
0.00019013
-6.89414e-06
0.000191001
-6.82286e-06
0.00019181
-6.66688e-06
0.000192559
-6.45208e-06
0.000193252
-6.19849e-06
0.000193892
-5.92153e-06
0.000194483
-5.63305e-06
0.000195028
-5.342e-06
0.000195531
-5.05504e-06
0.000195995
-4.77703e-06
0.000196423
-4.51139e-06
0.000196818
-4.26042e-06
0.000197183
-4.02551e-06
0.00019752
-3.8074e-06
0.000197832
-3.60627e-06
0.000198121
-3.42196e-06
0.000198389
-3.25399e-06
0.000198638
-3.10174e-06
0.00019887
-2.96447e-06
0.000199086
-2.84143e-06
0.000199288
-2.73185e-06
0.000199477
-2.63511e-06
0.000199656
-2.55062e-06
0.000199824
-2.47817e-06
0.000199986
-2.41726e-06
-2.36795e-06
0.000200143
0.000189418
-1.67581e-06
0.000190409
-4.04171e-06
0.000191495
-5.58646e-06
0.000192659
-6.69457e-06
0.000193908
-7.4769e-06
0.000195219
-7.95713e-06
0.000196572
-8.20183e-06
0.000197944
-8.26534e-06