/*--------------------------------*- C++ -*----------------------------------*\
| =========                 |                                                 |
| \\      /  F ield         | OpenFOAM: The Open Source CFD Toolbox           |
|  \\    /   O peration     | Version:  2.1.1                                 |
|   \\  /    A nd           | Web:      www.OpenFOAM.org                      |
|    \\/     M anipulation  |                                                 |
\*---------------------------------------------------------------------------*/
FoamFile
{
    version     2.0;
    format      ascii;
    class       volVectorField;
    location    "0.04";
    object      U;
}
// * * * * * * * * * * * * * * * * * * * * * * * * * * * * * * * * * * * * * //

dimensions      [0 1 -1 0 0 0 0];

internalField   nonuniform List<vector> 
6820
(
(6.37596 0.503764 0)
(4.42406 0.286899 0)
(2.97287 0.0202498 0)
(2.23308 -0.0618527 0)
(1.9668 -0.059909 0)
(1.83916 -0.0344743 0)
(1.7633 -0.0150621 0)
(1.71012 -0.00469051 0)
(1.66558 9.21615e-06 0)
(1.62664 0.00151877 0)
(1.5927 0.00150598 0)
(1.5633 0.000906632 0)
(1.53791 0.000153663 0)
(1.516 -0.000563821 0)
(1.49705 -0.00117289 0)
(1.4806 -0.00165792 0)
(1.46628 -0.00202922 0)
(1.45378 -0.00230611 0)
(1.44288 -0.00250906 0)
(1.43337 -0.00265675 0)
(1.42514 -0.00276544 0)
(1.41806 -0.00284911 0)
(1.41208 -0.00292003 0)
(1.40716 -0.00298831 0)
(1.4033 -0.00306438 0)
(1.40054 -0.00314839 0)
(1.39888 -0.00326169 0)
(1.3987 -0.00333519 0)
(1.39944 -0.00371254 0)
(1.40311 -0.00357108 0)
(1.40389 -0.00461655 0)
(1.41919 0.00243219 0)
(1.38885 -0.0232957 0)
(8.72021 0.959697 0)
(8.76453 1.0121 0)
(7.96797 0.679279 0)
(7.05349 0.394239 0)
(6.35123 0.202864 0)
(5.8434 0.103855 0)
(5.47982 0.0584708 0)
(5.21665 0.0380682 0)
(5.01891 0.0289675 0)
(4.8644 0.0245317 0)
(4.73972 0.021911 0)
(4.63648 0.0200533 0)
(4.54932 0.0185643 0)
(4.47462 0.0172784 0)
(4.40988 0.0161143 0)
(4.35329 0.0150301 0)
(4.30347 0.0140036 0)
(4.25941 0.0130212 0)
(4.22028 0.0120722 0)
(4.18545 0.0111467 0)
(4.15441 0.010234 0)
(4.12676 0.00932159 0)
(4.10218 0.00839393 0)
(4.08044 0.00743265 0)
(4.06135 0.00641194 0)
(4.04481 0.00531083 0)
(4.03076 0.00406517 0)
(4.01924 0.00271874 0)
(4.01024 0.000945693 0)
(4.00434 -0.000559528 0)
(4.00117 -0.00373374 0)
(4.00439 -0.00299571 0)
(4.01169 -0.0104256 0)
(8.58612 0.583562 0)
(9.33123 0.762616 0)
(9.61404 0.660667 0)
(9.50331 0.527305 0)
(9.23596 0.397986 0)
(8.92194 0.30033 0)
(8.61414 0.231697 0)
(8.33579 0.18249 0)
(8.09117 0.146741 0)
(7.87803 0.120275 0)
(7.69267 0.100179 0)
(7.53125 0.084594 0)
(7.39026 0.0723073 0)
(7.26667 0.0624922 0)
(7.15792 0.0545495 0)
(7.06187 0.0480321 0)
(6.97674 0.0426046 0)
(6.90104 0.0380147 0)
(6.83351 0.0340699 0)
(6.77314 0.0306206 0)
(6.71905 0.0275467 0)
(6.67053 0.0247487 0)
(6.627 0.02214 0)
(6.58798 0.0196409 0)
(6.5531 0.0171722 0)
(6.52206 0.0146542 0)
(6.49466 0.0119875 0)
(6.47079 0.009097 0)
(6.45036 0.00581612 0)
(6.43364 0.00223723 0)
(6.42044 -0.00259796 0)
(6.41174 -0.00722327 0)
(6.40757 -0.0169611 0)
(8.44091 0.379779 0)
(8.94583 0.584327 0)
(9.3582 0.555144 0)
(9.58578 0.488 0)
(9.69962 0.408456 0)
(9.73507 0.339723 0)
(9.71863 0.287647 0)
(9.67259 0.247897 0)
(9.60981 0.216837 0)
(9.53756 0.191881 0)
(9.46057 0.171185 0)
(9.38195 0.153621 0)
(9.30374 0.138473 0)
(9.22745 0.125248 0)
(9.15404 0.113622 0)
(9.08404 0.103346 0)
(9.01777 0.0942193 0)
(8.95537 0.0860659 0)
(8.89684 0.0787351 0)
(8.84213 0.0720938 0)
(8.79114 0.0660226 0)
(8.74374 0.0604117 0)
(8.6998 0.0551567 0)
(8.65919 0.0501552 0)
(8.62178 0.0453007 0)
(8.58748 0.0404826 0)
(8.55622 0.0355669 0)
(8.52796 0.0304351 0)
(8.50268 0.024854 0)
(8.48053 0.0187577 0)
(8.46158 0.0114846 0)
(8.44613 0.00351776 0)
(8.43505 -0.00702901 0)
(8.40213 0.280158 0)
(8.71889 0.480981 0)
(8.99865 0.462486 0)
(9.174 0.405338 0)
(9.29839 0.34373 0)
(9.39175 0.291771 0)
(9.46075 0.25328 0)
(9.5135 0.224255 0)
(9.55479 0.201379 0)
(9.58694 0.182753 0)
(9.61164 0.167111 0)
(9.63026 0.153663 0)
(9.64385 0.141921 0)
(9.65302 0.131544 0)
(9.65846 0.12227 0)
(9.66082 0.113902 0)
(9.66068 0.106285 0)
(9.65851 0.0992921 0)
(9.65476 0.0928195 0)
(9.64976 0.0867755 0)
(9.64385 0.0810769 0)
(9.63726 0.0756444 0)
(9.63022 0.0703985 0)
(9.62293 0.0652557 0)
(9.61555 0.0601234 0)
(9.60823 0.0548975 0)
(9.60109 0.0494502 0)
(9.59427 0.0436413 0)
(9.58785 0.0372602 0)
(9.582 0.0301316 0)
(9.57677 0.0217914 0)
(9.57233 0.0121465 0)
(9.56884 5.43507e-06 0)
(8.37747 0.202278 0)
(8.60128 0.383888 0)
(8.81559 0.39125 0)
(8.94641 0.357214 0)
(9.03205 0.313255 0)
(9.09458 0.270195 0)
(9.14127 0.234821 0)
(9.17939 0.20681 0)
(9.21314 0.184371 0)
(9.24393 0.166167 0)
(9.27234 0.151104 0)
(9.29872 0.138355 0)
(9.32328 0.127383 0)
(9.34626 0.117824 0)
(9.3678 0.109382 0)
(9.38795 0.101834 0)
(9.40678 0.095011 0)
(9.42438 0.0887801 0)
(9.4408 0.0830319 0)
(9.45612 0.0776725 0)
(9.47041 0.0726172 0)
(9.48373 0.0677862 0)
(9.49615 0.0631002 0)
(9.50771 0.0584767 0)
(9.51847 0.0538249 0)
(9.52847 0.0490437 0)
(9.53771 0.0440106 0)
(9.54621 0.0385882 0)
(9.55394 0.0325838 0)
(9.56087 0.0258044 0)
(9.56686 0.0178863 0)
(9.57189 0.00859926 0)
(9.57549 -0.00282226 0)
(8.36127 0.148913 0)
(8.52266 0.311707 0)
(8.69726 0.337631 0)
(8.81185 0.318449 0)
(8.88624 0.285636 0)
(8.93906 0.249919 0)
(8.9765 0.218793 0)
(9.00474 0.193459 0)
(9.02822 0.172758 0)
(9.04884 0.155649 0)
(9.06757 0.141294 0)
(9.08501 0.129033 0)
(9.10148 0.118399 0)
(9.11716 0.109061 0)
(9.13216 0.100776 0)
(9.14657 0.0933595 0)
(9.16042 0.0866631 0)
(9.17375 0.0805627 0)
(9.18658 0.0749522 0)
(9.19891 0.0697385 0)
(9.21076 0.0648373 0)
(9.22214 0.0601696 0)
(9.23303 0.055658 0)
(9.24344 0.0512236 0)
(9.25336 0.046782 0)
(9.26277 0.042241 0)
(9.27161 0.0374925 0)
(9.27985 0.0324156 0)
(9.28738 0.0268506 0)
(9.2941 0.0206308 0)
(9.29979 0.0134771 0)
(9.30423 0.00516607 0)
(9.30695 -0.00487784 0)
(8.35115 0.111482 0)
(8.46734 0.251908 0)
(8.60799 0.287068 0)
(8.70954 0.279244 0)
(8.77914 0.257335 0)
(8.83051 0.230372 0)
(8.868 0.204791 0)
(8.89613 0.1827 0)
(8.91887 0.163839 0)
(8.93822 0.147732 0)
(8.95524 0.133928 0)
(8.97065 0.12199 0)
(8.98487 0.111562 0)
(8.99816 0.102377 0)
(9.01071 0.0942224 0)
(9.02262 0.086923 0)
(9.03398 0.0803334 0)
(9.04486 0.0743321 0)
(9.05528 0.0688162 0)
(9.06529 0.063696 0)
(9.0749 0.0588906 0)
(9.08413 0.0543248 0)
(9.09298 0.0499259 0)
(9.10143 0.0456206 0)
(9.10949 0.0413323 0)
(9.11711 0.0369789 0)
(9.12426 0.0324677 0)
(9.13085 0.0276964 0)
(9.13679 0.0225392 0)
(9.14193 0.0168626 0)
(9.14605 0.0104744 0)
(9.14883 0.00320323 0)
(9.14984 -0.0052474 0)
(8.34486 0.0848083 0)
(8.42932 0.204031 0)
(8.54199 0.244288 0)
(8.63054 0.245372 0)
(8.69429 0.231653 0)
(8.7431 0.211163 0)
(8.78019 0.189758 0)
(8.8088 0.170279 0)
(8.83217 0.153164 0)
(8.85214 0.13827 0)
(8.86967 0.125342 0)
(8.88545 0.114065 0)
(8.89992 0.10415 0)
(8.91335 0.0953681 0)
(8.92593 0.0875319 0)
(8.93781 0.080487 0)
(8.94907 0.0741058 0)
(8.95978 0.0682809 0)
(8.97 0.0629197 0)
(8.97975 0.0579405 0)
(8.98908 0.0532691 0)
(8.99798 0.0488364 0)
(9.00646 0.0445763 0)
(9.01452 0.0404232 0)
(9.02215 0.0363108 0)
(9.02929 0.03217 0)
(9.03591 0.027927 0)
(9.04192 0.0235036 0)
(9.04721 0.0188121 0)
(9.05161 0.0137651 0)
(9.0549 0.00825813 0)
(9.05672 0.00221195 0)
(9.05671 -0.00444049 0)
(8.34093 0.0655649 0)
(8.40301 0.165704 0)
(8.49308 0.2072 0)
(8.56958 0.214163 0)
(8.62745 0.206481 0)
(8.67327 0.19147 0)
(8.70938 0.174191 0)
(8.73793 0.157578 0)
(8.7615 0.142441 0)
(8.78172 0.128891 0)
(8.79951 0.116868 0)
(8.81552 0.106214 0)
(8.83018 0.0967424 0)
(8.84378 0.0882867 0)
(8.85651 0.0807031 0)
(8.86851 0.073865 0)
(8.87987 0.0676617 0)
(8.89066 0.0619968 0)
(8.90094 0.0567849 0)
(8.91073 0.0519501 0)
(8.92007 0.0474237 0)
(8.92896 0.0431422 0)
(8.9374 0.0390464 0)
(8.94539 0.0350792 0)
(8.95291 0.0311852 0)
(8.95991 0.0273098 0)
(8.96634 0.023399 0)
(8.97211 0.0194007 0)
(8.97711 0.0152651 0)
(8.98117 0.0109527 0)
(8.98407 0.00643659 0)
(8.98548 0.0017273 0)
(8.98512 -0.00309251 0)
(8.33845 0.0514098 0)
(8.38466 0.134896 0)
(8.45671 0.175234 0)
(8.52246 0.186164 0)
(8.57474 0.183175 0)
(8.61746 0.172671 0)
(8.65221 0.158917 0)
(8.68037 0.144761 0)
(8.70393 0.131325 0)
(8.72429 0.118964 0)
(8.74228 0.107789 0)
(8.75849 0.0977641 0)
(8.77334 0.0887784 0)
(8.7871 0.0807115 0)
(8.79997 0.073448 0)
(8.81208 0.0668801 0)
(8.82353 0.0609107 0)
(8.83439 0.0554534 0)
(8.84471 0.0504315 0)
(8.85453 0.0457766 0)
(8.86387 0.0414268 0)
(8.87275 0.0373262 0)
(8.88116 0.0334232 0)
(8.8891 0.0296704 0)
(8.89654 0.0260245 0)
(8.90344 0.0224459 0)
(8.90975 0.0189008 0)
(8.91538 0.0153629 0)
(8.92021 0.0118178 0)
(8.92411 0.00827033 0)
(8.92688 0.00475555 0)
(8.92823 0.00135752 0)
(8.92799 -0.00175551 0)
(8.33686 0.0407888 0)
(8.37175 0.11007 0)
(8.42953 0.147755 0)
(8.4858 0.160951 0)
(8.53275 0.161265 0)
(8.57236 0.154219 0)
(8.60557 0.143424 0)
(8.63318 0.131521 0)
(8.65664 0.119767 0)
(8.6771 0.108661 0)
(8.69529 0.098418 0)
(8.71171 0.0890891 0)
(8.72677 0.0806339 0)
(8.74072 0.0729793 0)
(8.75376 0.0660444 0)
(8.76601 0.0597466 0)
(8.77759 0.0540075 0)
(8.78855 0.0487541 0)
(8.79896 0.0439203 0)
(8.80885 0.0394458 0)
(8.81824 0.0352765 0)
(8.82714 0.0313635 0)
(8.83557 0.0276636 0)
(8.8435 0.0241391 0)
(8.85092 0.020758 0)
(8.85779 0.0174956 0)
(8.86406 0.0143366 0)
(8.86965 0.0112779 0)
(8.87446 0.00833477 0)
(8.87838 0.00554764 0)
(8.88125 0.00299544 0)
(8.88286 0.000811299 0)
(8.88309 -0.000796056 0)
(8.33583 0.0326514 0)
(8.36256 0.0899364 0)
(8.40911 0.124114 0)
(8.45716 0.138285 0)
(8.49917 0.140872 0)
(8.53573 0.136499 0)
(8.56726 0.128188 0)
(8.59415 0.118271 0)
(8.61736 0.108033 0)
(8.63782 0.0980715 0)
(8.65614 0.0886874 0)
(8.67276 0.0800118 0)
(8.68803 0.0720663 0)
(8.70219 0.0648215 0)
(8.71543 0.0582258 0)
(8.72788 0.0522178 0)
(8.73962 0.0467337 0)
(8.75073 0.0417115 0)
(8.76126 0.0370934 0)
(8.77126 0.0328267 0)
(8.78074 0.0288639 0)
(8.78972 0.0251635 0)
(8.7982 0.0216903 0)
(8.80618 0.0184153 0)
(8.81364 0.0153178 0)
(8.82055 0.0123861 0)
(8.82687 0.00962079 0)
(8.83253 0.007038 0)
(8.83745 0.0046752 0)
(8.84155 0.00259841 0)
(8.84473 0.000912969 0)
(8.84682 -0.000222258 0)
(8.8478 -0.000597474 0)
(8.33513 0.0262845 0)
(8.35594 0.0734791 0)
(8.39369 0.103757 0)
(8.43471 0.11793 0)
(8.4722 0.121915 0)
(8.50583 0.119476 0)
(8.53562 0.113123 0)
(8.56163 0.104877 0)
(8.58449 0.0959845 0)
(8.60487 0.0870911 0)
(8.62327 0.0785506 0)
(8.64006 0.0705436 0)
(8.65553 0.0631358 0)
(8.66991 0.0563309 0)
(8.68336 0.0501024 0)
(8.696 0.0444079 0)
(8.70792 0.0391983 0)
(8.7192 0.0344234 0)
(8.72988 0.0300348 0)
(8.74 0.0259878 0)
(8.7496 0.0222426 0)
(8.75868 0.0187649 0)
(8.76726 0.015527 0)
(8.77533 0.0125087 0)
(8.78288 0.00969873 0)
(8.78989 0.00709652 0)
(8.79633 0.00471525 0)
(8.80215 0.00258506 0)
(8.8073 0.000758632 0)
(8.81172 -0.000684097 0)
(8.81535 -0.00162628 0)
(8.8181 -0.00190361 0)
(8.81999 -0.00132327 0)
(8.33465 0.0211997 0)
(8.35112 0.0598956 0)
(8.38198 0.08617 0)
(8.41706 0.0996316 0)
(8.45048 0.104314 0)
(8.48136 0.103201 0)
(8.50941 0.0983616 0)
(8.53447 0.0915087 0)
(8.55687 0.083793 0)
(8.5771 0.0758668 0)
(8.59552 0.0681092 0)
(8.61243 0.060734 0)
(8.62808 0.0538417 0)
(8.64266 0.047465 0)
(8.65631 0.0415997 0)
(8.66915 0.0362209 0)
(8.68127 0.0312928 0)
(8.69272 0.0267752 0)
(8.70357 0.0226281 0)
(8.71385 0.0188137 0)
(8.72359 0.0152985 0)
(8.7328 0.0120545 0)
(8.74151 0.00906032 0)
(8.74971 0.00630286 0)
(8.75739 0.00377837 0)
(8.76456 0.00149462 0)
(8.77118 -0.000526513 0)
(8.77724 -0.0022462 0)
(8.7827 -0.00360418 0)
(8.78754 -0.00451555 0)
(8.79173 -0.00486442 0)
(8.79525 -0.00449547 0)
(8.79814 -0.00324117 0)
(8.33431 0.0170576 0)
(8.34756 0.0485573 0)
(8.37303 0.070902 0)
(8.40316 0.08315 0)
(8.43298 0.0879688 0)
(8.46131 0.0876655 0)
(8.48768 0.0839213 0)
(8.51174 0.0781682 0)
(8.53363 0.0714358 0)
(8.55364 0.0643549 0)
(8.57203 0.0573108 0)
(8.58903 0.0505346 0)
(8.60483 0.0441486 0)
(8.61959 0.0382057 0)
(8.63345 0.0327179 0)
(8.64649 0.0276733 0)
(8.65881 0.0230467 0)
(8.67045 0.0188066 0)
(8.68147 0.01492 0)
(8.69192 0.0113555 0)
(8.70181 0.00808534 0)
(8.71118 0.00508702 0)
(8.72003 0.00234478 0)
(8.72839 -0.000149063 0)
(8.73624 -0.00239257 0)
(8.7436 -0.00437241 0)
(8.75046 -0.00606177 0)
(8.75681 -0.007418 0)
(8.76265 -0.00837977 0)
(8.76797 -0.0088642 0)
(8.77278 -0.00876515 0)
(8.77711 -0.0079451 0)
(8.78102 -0.00627193 0)
(8.33407 0.0136185 0)
(8.3449 0.0389723 0)
(8.36618 0.0575556 0)
(8.3922 0.0682486 0)
(8.41887 0.0727616 0)
(8.44491 0.0728359 0)
(8.46968 0.0698229 0)
(8.49276 0.0649027 0)
(8.5141 0.058973 0)
(8.53385 0.0526195 0)
(8.55217 0.0462153 0)
(8.56922 0.0399942 0)
(8.58516 0.0340895 0)
(8.60009 0.0285669 0)
(8.61414 0.0234505 0)
(8.62739 0.0187387 0)
(8.6399 0.014415 0)
(8.65173 0.0104551 0)
(8.66294 0.00683218 0)
(8.67356 0.00351987 0)
(8.68362 0.000495174 0)
(8.69316 -0.00226016 0)
(8.70219 -0.00475787 0)
(8.71072 -0.00700186 0)
(8.71878 -0.0089868 0)
(8.72637 -0.0106967 0)
(8.73351 -0.0121032 0)
(8.74019 -0.0131643 0)
(8.74644 -0.0138221 0)
(8.75228 -0.0140024 0)
(8.75774 -0.0136137 0)
(8.76287 -0.0125418 0)
(8.76776 -0.0106878 0)
(8.33389 0.0107091 0)
(8.3429 0.0307557 0)
(8.3609 0.045786 0)
(8.38357 0.0547027 0)
(8.40753 0.058565 0)
(8.43152 0.0586598 0)
(8.45484 0.056058 0)
(8.47697 0.0517199 0)
(8.49775 0.0464106 0)
(8.51722 0.0406573 0)
(8.53545 0.0348089 0)
(8.55254 0.0290912 0)
(8.56859 0.0236401 0)
(8.58369 0.0185274 0)
(8.59792 0.0137842 0)
(8.61136 0.00941527 0)
(8.62407 0.0054099 0)
(8.6361 0.00174872 0)
(8.64749 -0.00159097 0)
(8.6583 -0.00463176 0)
(8.66854 -0.0073935 0)
(8.67826 -0.00989156 0)
(8.68747 -0.0121352 0)
(8.6962 -0.0141264 0)
(8.70448 -0.0158585 0)
(8.71231 -0.0173154 0)
(8.71974 -0.0184703 0)
(8.72677 -0.019285 0)
(8.73344 -0.0197091 0)
(8.7398 -0.0196801 0)
(8.74588 -0.0191243 0)
(8.75177 -0.0179531 0)
(8.75756 -0.0160983 0)
(8.33375 0.00820191 0)
(8.34138 0.0236037 0)
(8.35684 0.0352955 0)
(8.37678 0.0422981 0)
(8.39846 0.0452433 0)
(8.42067 0.0450637 0)
(8.44267 0.0425963 0)
(8.46393 0.0386131 0)
(8.48419 0.0337531 0)
(8.50339 0.028477 0)
(8.52152 0.0230995 0)
(8.53864 0.0178298 0)
(8.55479 0.012797 0)
(8.57005 0.00807291 0)
(8.58446 0.00369018 0)
(8.5981 -0.000343323 0)
(8.61101 -0.00403534 0)
(8.62324 -0.00740222 0)
(8.63483 -0.010464 0)
(8.64582 -0.0132408 0)
(8.65625 -0.0157506 0)
(8.66616 -0.018007 0)
(8.67557 -0.0200182 0)
(8.68451 -0.0217858 0)
(8.69301 -0.0233037 0)
(8.70111 -0.0245576 0)
(8.70883 -0.0255245 0)
(8.71621 -0.0261725 0)
(8.7233 -0.0264608 0)
(8.73015 -0.0263402 0)
(8.73682 -0.0257559 0)
(8.7434 -0.0246435 0)
(8.74997 -0.0229617 0)
(8.33365 0.00600005 0)
(8.34024 0.0172747 0)
(8.35372 0.0258265 0)
(8.37148 0.0308333 0)
(8.39126 0.032656 0)
(8.41195 0.0319599 0)
(8.43282 0.0293902 0)
(8.45331 0.0255592 0)
(8.47309 0.0209902 0)
(8.49204 0.0160747 0)
(8.51009 0.0110874 0)
(8.52724 0.00621395 0)
(8.5435 0.00157111 0)
(8.55891 -0.00277524 0)
(8.5735 -0.00679465 0)
(8.58733 -0.01048 0)
(8.60044 -0.0138388 0)
(8.61287 -0.016887 0)
(8.62465 -0.0196439 0)
(8.63583 -0.0221293 0)
(8.64645 -0.0243607 0)
(8.65655 -0.026352 0)
(8.66615 -0.0281119 0)
(8.67529 -0.0296431 0)
(8.68402 -0.0309419 0)
(8.69237 -0.0319977 0)
(8.70037 -0.0327932 0)
(8.70809 -0.033304 0)
(8.71556 -0.0335002 0)
(8.72285 -0.0333467 0)
(8.73003 -0.0328064 0)
(8.7372 -0.0318377 0)
(8.74443 -0.030421 0)
(8.33357 0.00402819 0)
(8.33937 0.0115726 0)
(8.35134 0.0171546 0)
(8.36739 0.0201171 0)
(8.38563 0.0206573 0)
(8.40507 0.0192443 0)
(8.425 0.0163682 0)
(8.44483 0.0125073 0)
(8.46422 0.00808023 0)
(8.48297 0.00340931 0)
(8.50097 -0.0012752 0)
(8.51817 -0.00581651 0)
(8.53455 -0.0101159 0)
(8.55013 -0.0141185 0)
(8.56492 -0.0178005 0)
(8.57895 -0.0211587 0)
(8.59227 -0.0242032 0)
(8.6049 -0.0269512 0)
(8.61688 -0.0294232 0)
(8.62826 -0.0316397 0)
(8.63907 -0.0336192 0)
(8.64936 -0.0353766 0)
(8.65916 -0.036922 0)
(8.66851 -0.0382607 0)
(8.67745 -0.0393923 0)
(8.68604 -0.0403107 0)
(8.69431 -0.0410049 0)
(8.70233 -0.041459 0)
(8.71014 -0.0416537 0)
(8.71782 -0.0415672 0)
(8.72543 -0.0411781 0)
(8.73307 -0.0404642 0)
(8.74082 -0.0394222 0)
(8.33351 0.00222578 0)
(8.33873 0.00633559 0)
(8.34956 0.00908258 0)
(8.36429 0.0099684 0)
(8.38133 0.00909925 0)
(8.39979 0.00680436 0)
(8.41896 0.00345128 0)
(8.43829 -0.000592834 0)
(8.45738 -0.00500141 0)
(8.47599 -0.00951867 0)
(8.49398 -0.0139604 0)
(8.51126 -0.0182023 0)
(8.52779 -0.0221679 0)
(8.54354 -0.0258176 0)
(8.55853 -0.0291385 0)
(8.57277 -0.0321349 0)
(8.58629 -0.0348225 0)
(8.59912 -0.0372227 0)
(8.6113 -0.0393595 0)
(8.62286 -0.0412561 0)
(8.63386 -0.0429338 0)
(8.64432 -0.0444101 0)
(8.6543 -0.0456983 0)
(8.66383 -0.0468073 0)
(8.67297 -0.0477409 0)
(8.68177 -0.0484988 0)
(8.69027 -0.0490768 0)
(8.69854 -0.0494673 0)
(8.70662 -0.0496613 0)
(8.71461 -0.0496489 0)
(8.72255 -0.0494225 0)
(8.73055 -0.0489759 0)
(8.73867 -0.0483179 0)
(8.33347 0.000541802 0)
(8.33826 0.00142455 0)
(8.34827 0.00143109 0)
(8.36204 0.000209986 0)
(8.37819 -0.00217665 0)
(8.39592 -0.00549724 0)
(8.41456 -0.00948112 0)
(8.43354 -0.0138549 0)
(8.45246 -0.0183745 0)
(8.47104 -0.0228481 0)
(8.4891 -0.0271392 0)
(8.50652 -0.0311586 0)
(8.52324 -0.0348556 0)
(8.53921 -0.0382091 0)
(8.55442 -0.0412195 0)
(8.5689 -0.0439012 0)
(8.58264 -0.0462771 0)
(8.59569 -0.0483743 0)
(8.60807 -0.0502212 0)
(8.61983 -0.051845 0)
(8.63101 -0.0532703 0)
(8.64165 -0.0545181 0)
(8.6518 -0.0556053 0)
(8.66151 -0.0565447 0)
(8.67082 -0.0573451 0)
(8.6798 -0.0580116 0)
(8.68849 -0.0585466 0)
(8.69695 -0.0589504 0)
(8.70526 -0.0592227 0)
(8.71346 -0.0593638 0)
(8.72164 -0.0593766 0)
(8.72987 -0.059267 0)
(8.73821 -0.0590512 0)
(8.33344 -0.00106713 0)
(8.33795 -0.00328253 0)
(8.3474 -0.00596479 0)
(8.36052 -0.00932908 0)
(8.37609 -0.0133256 0)
(8.39335 -0.0177871 0)
(8.41167 -0.0225166 0)
(8.43048 -0.0273177 0)
(8.44935 -0.0320183 0)
(8.46799 -0.0364871 0)
(8.48619 -0.0406355 0)
(8.5038 -0.0444125 0)
(8.52074 -0.0477973 0)
(8.53695 -0.0507921 0)
(8.55241 -0.0534153 0)
(8.56711 -0.0556953 0)
(8.58108 -0.057666 0)
(8.59434 -0.0593635 0)
(8.60692 -0.0608231 0)
(8.61886 -0.062078 0)
(8.6302 -0.0631578 0)
(8.64099 -0.0640884 0)
(8.65128 -0.0648912 0)
(8.66113 -0.0655837 0)
(8.67058 -0.0661798 0)
(8.67969 -0.0666901 0)
(8.68851 -0.0671232 0)
(8.69711 -0.0674863 0)
(8.70555 -0.0677867 0)
(8.71389 -0.0680327 0)
(8.7222 -0.0682356 0)
(8.73054 -0.0684109 0)
(8.73899 -0.0685784 0)
(8.33343 -0.00264185 0)
(8.33777 -0.00790081 0)
(8.34691 -0.0132684 0)
(8.35968 -0.0188337 0)
(8.37495 -0.0245416 0)
(8.39202 -0.0302702 0)
(8.41026 -0.0358827 0)
(8.42911 -0.0412509 0)
(8.44812 -0.046269 0)
(8.46698 -0.0508631 0)
(8.48544 -0.0549921 0)
(8.50336 -0.058643 0)
(8.52061 -0.0618255 0)
(8.53713 -0.0645655 0)
(8.55288 -0.0668999 0)
(8.56787 -0.0688719 0)
(8.5821 -0.0705271 0)
(8.59559 -0.0719111 0)
(8.60838 -0.0730669 0)
(8.6205 -0.0740341 0)
(8.632 -0.0748484 0)
(8.64294 -0.0755405 0)
(8.65336 -0.076137 0)
(8.66332 -0.0766602 0)
(8.67287 -0.077129 0)
(8.68206 -0.0775592 0)
(8.69097 -0.0779649 0)
(8.69964 -0.078359 0)
(8.70814 -0.0787548 0)
(8.71652 -0.0791663 0)
(8.72485 -0.0796103 0)
(8.73319 -0.0801075 0)
(8.74159 -0.0806788 0)
(8.33342 -0.00422259 0)
(8.33771 -0.0125424 0)
(8.34677 -0.0206373 0)
(8.35946 -0.0284721 0)
(8.37471 -0.0359697 0)
(8.39185 -0.0430326 0)
(8.41025 -0.0495693 0)
(8.42932 -0.0555091 0)
(8.44862 -0.0608088 0)
(8.46781 -0.0654533 0)
(8.48664 -0.0694537 0)
(8.50491 -0.072842 0)
(8.52252 -0.0756651 0)
(8.53938 -0.0779797 0)
(8.55546 -0.0798474 0)
(8.57074 -0.081331 0)
(8.58523 -0.0824917 0)
(8.59895 -0.0833872 0)
(8.61193 -0.0840705 0)
(8.62422 -0.0845891 0)
(8.63587 -0.0849851 0)
(8.64692 -0.0852948 0)
(8.65744 -0.0855498 0)
(8.66747 -0.0857769 0)
(8.67707 -0.0859995 0)
(8.68631 -0.0862377 0)
(8.69523 -0.08651 0)
(8.70391 -0.0868337 0)
(8.71239 -0.0872261 0)
(8.72073 -0.0877057 0)
(8.72899 -0.0882925 0)
(8.73723 -0.0890114 0)
(8.7455 -0.0898819 0)
(8.33343 -0.00585035 0)
(8.33778 -0.0173289 0)
(8.34698 -0.0282621 0)
(8.3599 -0.0384979 0)
(8.37547 -0.0479394 0)
(8.39301 -0.0565133 0)
(8.41188 -0.064171 0)
(8.43149 -0.0708959 0)
(8.45134 -0.0767005 0)
(8.47109 -0.0816219 0)
(8.49047 -0.0857172 0)
(8.50927 -0.0890582 0)
(8.52737 -0.0917256 0)
(8.54468 -0.0938048 0)
(8.56116 -0.0953809 0)
(8.57678 -0.0965368 0)
(8.59157 -0.0973499 0)
(8.60554 -0.0978917 0)
(8.61873 -0.0982263 0)
(8.63119 -0.0984107 0)
(8.64296 -0.0984947 0)
(8.65411 -0.0985214 0)
(8.66468 -0.098528 0)
(8.67475 -0.0985465 0)
(8.68436 -0.0986046 0)
(8.69357 -0.0987267 0)
(8.70245 -0.0989347 0)
(8.71106 -0.0992492 0)
(8.71943 -0.0996903 0)
(8.72764 -0.100278 0)
(8.73573 -0.101035 0)
(8.74375 -0.101984 0)
(8.75173 -0.103142 0)
(8.33344 -0.00757023 0)
(8.33798 -0.0223818 0)
(8.34754 -0.0362966 0)
(8.36097 -0.0490257 0)
(8.37713 -0.060434 0)
(8.39533 -0.0704596 0)
(8.4149 -0.0790947 0)
(8.43522 -0.0863851 0)
(8.45578 -0.0924155 0)
(8.47623 -0.0972932 0)
(8.49626 -0.101139 0)
(8.51568 -0.104079 0)
(8.53434 -0.10624 0)
(8.55216 -0.107744 0)
(8.56908 -0.108705 0)
(8.58509 -0.109228 0)
(8.6002 -0.109409 0)
(8.61444 -0.109333 0)
(8.62784 -0.109074 0)
(8.64046 -0.108697 0)
(8.65236 -0.10826 0)
(8.66358 -0.107809 0)
(8.67419 -0.107386 0)
(8.68425 -0.107027 0)
(8.69383 -0.106763 0)
(8.70298 -0.10662 0)
(8.71176 -0.106622 0)
(8.72023 -0.106793 0)
(8.72844 -0.107153 0)
(8.73645 -0.107723 0)
(8.7443 -0.108525 0)
(8.75205 -0.109584 0)
(8.75972 -0.110912 0)
(8.33348 -0.00943945 0)
(8.33834 -0.0278869 0)
(8.34859 -0.0450855 0)
(8.36295 -0.0606293 0)
(8.38019 -0.0743723 0)
(8.39956 -0.0862727 0)
(8.42031 -0.0963527 0)
(8.44179 -0.104699 0)
(8.46346 -0.111444 0)
(8.48492 -0.116744 0)
(8.50587 -0.120769 0)
(8.5261 -0.123691 0)
(8.54547 -0.12568 0)
(8.56389 -0.126896 0)
(8.58132 -0.127486 0)
(8.59775 -0.127584 0)
(8.6132 -0.127309 0)
(8.6277 -0.126764 0)
(8.6413 -0.126041 0)
(8.65405 -0.125216 0)
(8.66602 -0.124356 0)
(8.67727 -0.123516 0)
(8.68786 -0.122743 0)
(8.69786 -0.122077 0)
(8.70733 -0.121552 0)
(8.71634 -0.121197 0)
(8.72494 -0.121038 0)
(8.73319 -0.121099 0)
(8.74115 -0.121398 0)
(8.74886 -0.121958 0)
(8.75636 -0.122797 0)
(8.7637 -0.123936 0)
(8.77091 -0.125381 0)
(8.33352 -0.0115183 0)
(8.33883 -0.0339592 0)
(8.34999 -0.0546283 0)
(8.36554 -0.0729345 0)
(8.38409 -0.08871 0)
(8.40481 -0.101965 0)
(8.42695 -0.112815 0)
(8.44977 -0.121457 0)
(8.47273 -0.128135 0)
(8.4954 -0.1331 0)
(8.51746 -0.136597 0)
(8.53868 -0.13886 0)
(8.55893 -0.140105 0)
(8.5781 -0.140529 0)
(8.59617 -0.140305 0)
(8.61313 -0.139589 0)
(8.62901 -0.138514 0)
(8.64384 -0.137196 0)
(8.65768 -0.135735 0)
(8.6706 -0.134215 0)
(8.68266 -0.132708 0)
(8.69393 -0.131272 0)
(8.70449 -0.129959 0)
(8.71441 -0.12881 0)
(8.72376 -0.127861 0)
(8.73259 -0.127143 0)
(8.74098 -0.126681 0)
(8.74897 -0.126497 0)
(8.75663 -0.126614 0)
(8.764 -0.127048 0)
(8.77113 -0.127816 0)
(8.77806 -0.128939 0)
(8.78484 -0.130416 0)
(8.3336 -0.013921 0)
(8.3397 -0.041073 0)
(8.35246 -0.0660283 0)
(8.37006 -0.0880731 0)
(8.39084 -0.107029 0)
(8.41382 -0.122882 0)
(8.4381 -0.135729 0)
(8.46289 -0.145797 0)
(8.4876 -0.153386 0)
(8.51179 -0.158819 0)
(8.53516 -0.162421 0)
(8.5575 -0.164504 0)
(8.57867 -0.165355 0)
(8.59861 -0.165232 0)
(8.6173 -0.164363 0)
(8.63474 -0.162943 0)
(8.65098 -0.161139 0)
(8.66607 -0.159093 0)
(8.68008 -0.156922 0)
(8.69308 -0.154725 0)
(8.70515 -0.15258 0)
(8.71637 -0.150556 0)
(8.72682 -0.148704 0)
(8.73657 -0.14707 0)
(8.7457 -0.145689 0)
(8.75426 -0.144591 0)
(8.76233 -0.1438 0)
(8.76996 -0.143338 0)
(8.77722 -0.143222 0)
(8.78414 -0.143467 0)
(8.79077 -0.144083 0)
(8.79714 -0.145087 0)
(8.80329 -0.14647 0)
(8.33366 -0.0167095 0)
(8.34054 -0.048998 0)
(8.3549 -0.0779371 0)
(8.37455 -0.10264 0)
(8.39757 -0.123142 0)
(8.42292 -0.139703 0)
(8.44963 -0.152664 0)
(8.4768 -0.162447 0)
(8.50374 -0.169489 0)
(8.52997 -0.174202 0)
(8.55516 -0.176969 0)
(8.57908 -0.178142 0)
(8.6016 -0.178038 0)
(8.62267 -0.176935 0)
(8.64227 -0.175079 0)
(8.66043 -0.17268 0)
(8.67723 -0.169917 0)
(8.69272 -0.166944 0)
(8.70701 -0.163887 0)
(8.72018 -0.160851 0)
(8.73232 -0.157924 0)
(8.74352 -0.155174 0)
(8.75387 -0.15266 0)
(8.76346 -0.150428 0)
(8.77237 -0.148514 0)
(8.78066 -0.146949 0)
(8.78842 -0.145755 0)
(8.79569 -0.144953 0)
(8.80254 -0.144558 0)
(8.80902 -0.144582 0)
(8.81518 -0.145034 0)
(8.82105 -0.145923 0)
(8.82671 -0.147236 0)
(8.33391 -0.0202687 0)
(8.34283 -0.0598232 0)
(8.36084 -0.0956053 0)
(8.38466 -0.1264 0)
(8.41172 -0.151997 0)
(8.44076 -0.172438 0)
(8.4707 -0.188037 0)
(8.50063 -0.199361 0)
(8.52992 -0.207045 0)
(8.55815 -0.211704 0)
(8.58501 -0.213908 0)
(8.61033 -0.214172 0)
(8.63401 -0.21294 0)
(8.65601 -0.210589 0)
(8.67636 -0.207435 0)
(8.6951 -0.203739 0)
(8.71232 -0.199715 0)
(8.72809 -0.195537 0)
(8.74253 -0.191344 0)
(8.75574 -0.187247 0)
(8.76782 -0.183335 0)
(8.77887 -0.179676 0)
(8.78899 -0.176327 0)
(8.79828 -0.173327 0)
(8.80681 -0.170712 0)
(8.81468 -0.168506 0)
(8.82194 -0.166728 0)
(8.82867 -0.165393 0)
(8.83493 -0.164514 0)
(8.84077 -0.164097 0)
(8.84623 -0.164145 0)
(8.85136 -0.164663 0)
(8.85619 -0.165627 0)
(8.33387 -0.0243322 0)
(8.34362 -0.0700696 0)
(8.36405 -0.108851 0)
(8.3913 -0.140417 0)
(8.42248 -0.165838 0)
(8.4561 -0.185779 0)
(8.49069 -0.200795 0)
(8.52499 -0.211536 0)
(8.5582 -0.218626 0)
(8.58983 -0.222636 0)
(8.61956 -0.224105 0)
(8.64721 -0.223532 0)
(8.67273 -0.221363 0)
(8.69614 -0.217991 0)
(8.71751 -0.213757 0)
(8.73695 -0.208949 0)
(8.75459 -0.203807 0)
(8.77056 -0.19853 0)
(8.78501 -0.193276 0)
(8.79806 -0.188173 0)
(8.80986 -0.183322 0)
(8.82053 -0.178799 0)
(8.83018 -0.174662 0)
(8.83891 -0.170956 0)
(8.84683 -0.167714 0)
(8.85403 -0.164958 0)
(8.86057 -0.162706 0)
(8.86653 -0.16097 0)
(8.87198 -0.159757 0)
(8.87698 -0.159073 0)
(8.88159 -0.158916 0)
(8.88585 -0.159287 0)
(8.88984 -0.160152 0)
(8.33498 -0.0312329 0)
(8.35137 -0.0923757 0)
(8.38052 -0.145503 0)
(8.41531 -0.188496 0)
(8.45226 -0.22171 0)
(8.49044 -0.245958 0)
(8.52868 -0.262553 0)
(8.56591 -0.272973 0)
(8.60149 -0.278499 0)
(8.63501 -0.280206 0)
(8.6662 -0.279002 0)
(8.69495 -0.275631 0)
(8.72123 -0.270692 0)
(8.74512 -0.264666 0)
(8.76674 -0.257937 0)
(8.78623 -0.250811 0)
(8.80376 -0.243528 0)
(8.81949 -0.236279 0)
(8.83361 -0.229211 0)
(8.84627 -0.222436 0)
(8.85763 -0.216042 0)
(8.86783 -0.210091 0)
(8.87699 -0.204629 0)
(8.88524 -0.19969 0)
(8.89268 -0.195297 0)
(8.89939 -0.191463 0)
(8.90547 -0.1882 0)
(8.91098 -0.185515 0)
(8.91598 -0.183413 0)
(8.92054 -0.181896 0)
(8.92472 -0.180965 0)
(8.92856 -0.180621 0)
(8.93213 -0.180819 0)
(8.33403 -0.0362349 0)
(8.34993 -0.0985967 0)
(8.38395 -0.147094 0)
(8.42687 -0.186441 0)
(8.47316 -0.218612 0)
(8.52041 -0.243354 0)
(8.56648 -0.261121 0)
(8.61018 -0.272816 0)
(8.65115 -0.279296 0)
(8.6893 -0.281438 0)
(8.72466 -0.280131 0)
(8.75737 -0.276191 0)
(8.78759 -0.270329 0)
(8.81549 -0.263146 0)
(8.84125 -0.255135 0)
(8.86502 -0.246694 0)
(8.88694 -0.238128 0)
(8.90717 -0.229676 0)
(8.92583 -0.221515 0)
(8.94305 -0.213772 0)
(8.95896 -0.206541 0)
(8.97366 -0.199883 0)
(8.98728 -0.193839 0)
(8.99989 -0.188431 0)
(9.01161 -0.183672 0)
(9.02251 -0.179566 0)
(9.03266 -0.176112 0)
(9.04214 -0.173311 0)
(9.05102 -0.171162 0)
(9.05935 -0.169671 0)
(9.06721 -0.168847 0)
(9.07468 -0.168701 0)
(9.08187 -0.169204 0)
(8.3396 -0.0603841 0)
(8.3771 -0.169413 0)
(8.42645 -0.24754 0)
(8.47642 -0.300372 0)
(8.52903 -0.335002 0)
(8.58574 -0.355803 0)
(8.64496 -0.366862 0)
(8.70535 -0.371265 0)
(8.76595 -0.370967 0)
(8.82569 -0.3673 0)
(8.88356 -0.361212 0)
(8.93882 -0.353383 0)
(8.99096 -0.344323 0)
(9.03965 -0.334435 0)
(9.08472 -0.324044 0)
(9.12616 -0.31342 0)
(9.16405 -0.30279 0)
(9.19854 -0.292341 0)
(9.22983 -0.282225 0)
(9.25815 -0.272564 0)
(9.28375 -0.263449 0)
(9.30686 -0.254948 0)
(9.32772 -0.247109 0)
(9.34655 -0.239961 0)
(9.36354 -0.233521 0)
(9.37888 -0.227797 0)
(9.39271 -0.222793 0)
(9.40519 -0.21851 0)
(9.41642 -0.214962 0)
(9.42651 -0.21216 0)
(9.43556 -0.21017 0)
(9.44366 -0.209002 0)
(9.451 -0.208841 0)
(8.3376 -0.046436 0)
(8.39355 -0.120635 0)
(8.49385 -0.184337 0)
(8.60867 -0.245753 0)
(8.73052 -0.29839 0)
(8.85389 -0.339089 0)
(8.97191 -0.368588 0)
(9.08046 -0.38779 0)
(9.17738 -0.397865 0)
(9.2615 -0.400413 0)
(9.33257 -0.397071 0)
(9.39109 -0.389312 0)
(9.43793 -0.378408 0)
(9.47423 -0.365416 0)
(9.5012 -0.351185 0)
(9.52008 -0.336376 0)
(9.53205 -0.321496 0)
(9.53818 -0.30692 0)
(9.53942 -0.292919 0)
(9.53661 -0.279678 0)
(9.53045 -0.267316 0)
(9.52156 -0.255903 0)
(9.51045 -0.24547 0)
(9.49752 -0.236017 0)
(9.48312 -0.227526 0)
(9.46752 -0.219962 0)
(9.45092 -0.213283 0)
(9.43347 -0.207445 0)
(9.41528 -0.202417 0)
(9.39635 -0.198179 0)
(9.37681 -0.194839 0)
(9.35633 -0.192358 0)
(9.33565 -0.191783 0)
(8.40921 -0.221165 0)
(8.6349 -0.427979 0)
(8.83313 -0.522044 0)
(8.97704 -0.582415 0)
(9.07103 -0.614912 0)
(9.11414 -0.625154 0)
(9.11073 -0.620739 0)
(9.07023 -0.60575 0)
(9.00152 -0.583029 0)
(8.91203 -0.555147 0)
(8.80823 -0.524164 0)
(8.69546 -0.491661 0)
(8.57788 -0.458861 0)
(8.45864 -0.426675 0)
(8.34007 -0.395747 0)
(8.22385 -0.366509 0)
(8.11109 -0.33922 0)
(8.00251 -0.31401 0)
(7.89853 -0.290914 0)
(7.79931 -0.269901 0)
(7.70488 -0.250893 0)
(7.61512 -0.233781 0)
(7.52986 -0.21844 0)
(7.44887 -0.204732 0)
(7.37187 -0.192516 0)
(7.29859 -0.181647 0)
(7.22873 -0.171973 0)
(7.16199 -0.163349 0)
(7.09805 -0.155599 0)
(7.03644 -0.148559 0)
(6.97678 -0.142134 0)
(6.9179 -0.135425 0)
(6.86027 -0.132158 0)
(8.13712 -0.207075 0)
(7.84796 -0.387823 0)
(7.38611 -0.43906 0)
(6.86132 -0.439583 0)
(6.36255 -0.408186 0)
(5.89271 -0.359156 0)
(5.45439 -0.304768 0)
(5.05495 -0.251409 0)
(4.69545 -0.202293 0)
(4.37388 -0.159028 0)
(4.08785 -0.122052 0)
(3.83451 -0.0911371 0)
(3.61065 -0.0657398 0)
(3.4131 -0.0451704 0)
(3.23884 -0.0287059 0)
(3.08507 -0.0156636 0)
(2.94923 -0.00543473 0)
(2.82903 0.00250432 0)
(2.72241 0.00859318 0)
(2.62759 0.0131946 0)
(2.54297 0.0166048 0)
(2.46717 0.0190639 0)
(2.399 0.0207671 0)
(2.33741 0.0218736 0)
(2.28149 0.0225191 0)
(2.23049 0.0228214 0)
(2.18373 0.0229101 0)
(2.14076 0.0229169 0)
(2.10098 0.0230824 0)
(2.06457 0.0237414 0)
(2.03052 0.0252222 0)
(2.001 0.0304379 0)