/*--------------------------------*- C++ -*----------------------------------*\
| =========                 |                                                 |
| \\      /  F ield         | OpenFOAM: The Open Source CFD Toolbox           |
|  \\    /   O peration     | Version:  2.1.1                                 |
|   \\  /    A nd           | Web:      www.OpenFOAM.org                      |
|    \\/     M anipulation  |                                                 |
\*---------------------------------------------------------------------------*/
FoamFile
{
    version     2.0;
    format      ascii;
    class       volScalarField;
    location    "0.02";
    object      epsilon;
}
// * * * * * * * * * * * * * * * * * * * * * * * * * * * * * * * * * * * * * //

dimensions      [0 2 -3 0 0 0 0];

internalField   nonuniform List<scalar> 
6820
(
151.447
203.148
260.732
321.767
383.665
443.835
500.016
550.528
594.343
631.045
660.721
683.827
701.05
713.193
721.087
725.531
727.255
726.905
725.032
722.1
718.491
714.515
710.422
706.409
702.626
699.21
696.22
693.613
691.343
689.679
687.327
690.747
668.246
11.7449
21.4091
29.9159
38.5619
47.4612
56.356
65.0056
73.2065
80.7954
87.6629
93.7531
99.0573
103.604
107.445
110.649
113.288
115.434
117.154
118.506
119.54
120.298
120.814
121.115
121.223
121.159
120.944
120.638
120.326
120.046
119.813
119.593
119.355
119.205
5.83773
7.51803
9.20985
10.8146
12.3275
13.7575
15.1007
16.353
17.5122
18.5778
19.5512
20.4353
21.235
21.956
22.6051
23.1891
23.715
24.1896
24.6191
25.0091
25.3649
25.6908
25.9911
26.2689
26.5279
26.7699
26.9982
27.2346
27.4532
27.6162
27.7226
27.7596
27.7655
5.24222
5.56004
6.00476
6.49453
6.98802
7.4661
7.91972
8.34466
8.73929
9.10347
9.43798
9.7441
10.0235
10.278
10.5096
10.7201
10.9115
11.0857
11.2444
11.3893
11.5218
11.6434
11.7553
11.8587
11.9546
12.0458
12.1308
12.2017
12.2579
12.299
12.3254
12.3337
12.3317
5.17348
5.1868
5.26829
5.39798
5.55679
5.73036
5.90883
6.08579
6.25722
6.42069
6.57483
6.71894
6.85275
6.97633
7.08993
7.19394
7.28884
7.37514
7.45341
7.5242
7.58807
7.64557
7.69724
7.74388
7.78556
7.8218
7.85293
7.87891
7.89967
7.91501
7.92502
7.92876
7.92782
5.16877
5.12125
5.09593
5.09474
5.11532
5.15307
5.20299
5.26072
5.32281
5.38668
5.45046
5.51282
5.57282
5.62984
5.68349
5.73354
5.77987
5.82247
5.86138
5.89671
5.92858
5.95723
5.98278
6.00523
6.02476
6.04148
6.05552
6.067
6.07599
6.0825
6.08664
6.08811
6.08741
5.16887
5.11168
5.06116
5.01967
4.98848
4.96766
4.95628
4.9529
4.95591
4.96378
4.97516
4.98892
5.00414
5.02011
5.03624
5.05211
5.06739
5.08183
5.09527
5.10762
5.1188
5.12873
5.13739
5.14479
5.15096
5.15594
5.15978
5.16253
5.16426
5.16498
5.16477
5.16354
5.16147
5.16901
5.1106
5.05512
5.0034
4.95626
4.91428
4.87769
4.84642
4.8201
4.79824
4.78024
4.76551
4.7535
4.74368
4.73562
4.72891
4.72324
4.71834
4.71399
4.71
4.70621
4.70252
4.69883
4.69509
4.69126
4.68732
4.68327
4.67911
4.67488
4.67058
4.66624
4.66185
4.6575
5.16903
5.11053
5.0543
5.00051
4.94935
4.90107
4.85587
4.81388
4.77513
4.73956
4.70703
4.67733
4.65024
4.62549
4.60286
4.58208
4.56295
4.54528
4.52885
4.51353
4.49917
4.48566
4.4729
4.46082
4.44935
4.43847
4.42815
4.41837
4.40913
4.40044
4.39232
4.38478
4.37788
5.16903
5.11052
5.05419
5.00003
4.94802
4.89818
4.85054
4.80514
4.76201
4.72114
4.68251
4.64608
4.61176
4.57947
4.5491
4.52053
4.49366
4.46835
4.44449
4.422
4.40077
4.38071
4.36176
4.34386
4.32695
4.31101
4.296
4.28193
4.26877
4.25654
4.24527
4.23498
4.22572
5.16903
5.11052
5.05417
4.99995
4.94778
4.89761
4.84938
4.80306
4.75861
4.716
4.6752
4.6362
4.59893
4.56338
4.52947
4.49716
4.46639
4.4371
4.40923
4.38272
4.35751
4.33357
4.31084
4.28929
4.26888
4.24961
4.23145
4.2144
4.19848
4.18368
4.17005
4.15763
4.14647
5.16903
5.11051
5.05416
4.99992
4.94772
4.89748
4.84912
4.80257
4.75777
4.71466
4.6732
4.63335
4.59505
4.55827
4.52297
4.4891
4.45664
4.42554
4.39577
4.3673
4.34008
4.3141
4.28933
4.26575
4.24335
4.22212
4.20206
4.18319
4.1655
4.14903
4.13382
4.11992
4.10738
5.16903
5.11051
5.05415
4.9999
4.94769
4.89742
4.84903
4.80242
4.75752
4.71428
4.67263
4.63252
4.59389
4.5567
4.52091
4.48647
4.45336
4.42154
4.39097
4.36164
4.33352
4.30659
4.28084
4.25625
4.23283
4.21057
4.18948
4.16957
4.15087
4.1334
4.11721
4.10236
4.08889
5.16903
5.1105
5.05414
4.99989
4.94766
4.89738
4.84897
4.80233
4.7574
4.71412
4.6724
4.63221
4.59347
4.55614
4.52018
4.48554
4.45219
4.42009
4.38921
4.35953
4.33103
4.30369
4.27749
4.25244
4.22852
4.20575
4.18412
4.16366
4.14439
4.12634
4.10956
4.09409
4.07999
5.16903
5.1105
5.05413
4.99987
4.94764
4.89735
4.84892
4.80226
4.75731
4.714
4.67225
4.63201
4.59322
4.55584
4.5198
4.48508
4.45163
4.41941
4.3884
4.35857
4.3299
4.30236
4.27596
4.25067
4.2265
4.20345
4.18153
4.16075
4.14114
4.12273
4.10555
4.08965
4.07509
5.16903
5.1105
5.05413
4.99986
4.94762
4.89732
4.84887
4.8022
4.75723
4.71389
4.67212
4.63185
4.59302
4.5556
4.51952
4.48474
4.45122
4.41894
4.38785
4.35793
4.32915
4.30151
4.27497
4.24954
4.22522
4.20199
4.17987
4.15887
4.13902
4.12033
4.10284
4.08659
4.07163
5.16903
5.1105
5.05412
4.99985
4.94761
4.89729
4.84883
4.80215
4.75716
4.71379
4.67199
4.63169
4.59284
4.55537
4.51925
4.48443
4.45086
4.41852
4.38736
4.35737
4.32851
4.30077
4.27414
4.24859
4.22414
4.20076
4.17848
4.1573
4.13723
4.11829
4.10053
4.08396
4.06863
5.16903
5.11049
5.05412
4.99985
4.94759
4.89727
4.8488
4.8021
4.75709
4.7137
4.67188
4.63155
4.59266
4.55516
4.519
4.48413
4.45051
4.41811
4.38689
4.35683
4.32789
4.30007
4.27334
4.24768
4.2231
4.19959
4.17715
4.15579
4.13551
4.11634
4.09831
4.08143
4.06574
5.16903
5.11049
5.05412
4.99984
4.94758
4.89725
4.84877
4.80205
4.75702
4.71362
4.67177
4.63141
4.59249
4.55495
4.51875
4.48384
4.45017
4.41771
4.38643
4.3563
4.32729
4.29937
4.27254
4.24678
4.22208
4.19843
4.17583
4.15429
4.13381
4.11441
4.09611
4.07893
4.06288
5.16903
5.11049
5.05412
4.99984
4.94757
4.89724
4.84874
4.80201
4.75697
4.71354
4.67167
4.63128
4.59233
4.55476
4.51851
4.48355
4.44984
4.41732
4.38598
4.35578
4.32669
4.29869
4.27176
4.24589
4.22106
4.19727
4.17452
4.1528
4.13212
4.11249
4.09392
4.07644
4.06004
5.16903
5.11049
5.05412
4.99983
4.94756
4.89722
4.84872
4.80197
4.75691
4.71347
4.67157
4.63116
4.59218
4.55457
4.51829
4.48328
4.44951
4.41695
4.38554
4.35527
4.3261
4.29801
4.27099
4.24501
4.22006
4.19613
4.17322
4.15133
4.13045
4.11059
4.09177
4.07399
4.05725
5.16903
5.1105
5.05412
4.99983
4.94756
4.89721
4.84869
4.80194
4.75686
4.7134
4.67148
4.63105
4.59203
4.55439
4.51807
4.48302
4.4492
4.41658
4.38511
4.35477
4.32553
4.29735
4.27023
4.24415
4.21908
4.19501
4.17195
4.14988
4.12881
4.10873
4.08966
4.07159
4.05453
5.16903
5.1105
5.05412
4.99983
4.94755
4.8972
4.84868
4.80191
4.75682
4.71334
4.6714
4.63094
4.5919
4.55422
4.51786
4.48277
4.4489
4.41623
4.3847
4.35429
4.32497
4.29671
4.2695
4.2433
4.21812
4.19392
4.17071
4.14848
4.12722
4.10692
4.08761
4.06927
4.0519
5.16903
5.1105
5.05412
4.99983
4.94755
4.89719
4.84866
4.80188
4.75678
4.71328
4.67132
4.63084
4.59177
4.55406
4.51766
4.48253
4.44862
4.41589
4.3843
4.35383
4.32443
4.29609
4.26879
4.24249
4.21719
4.19287
4.16951
4.14712
4.12567
4.10518
4.08563
4.06703
4.04938
5.16903
5.1105
5.05412
4.99983
4.94755
4.89718
4.84864
4.80186
4.75674
4.71323
4.67125
4.63074
4.59164
4.55391
4.51747
4.4823
4.44834
4.41556
4.38392
4.35338
4.32392
4.2955
4.2681
4.24171
4.2163
4.19185
4.16836
4.14581
4.1242
4.10351
4.08375
4.0649
4.04697
5.16903
5.1105
5.05412
4.99983
4.94754
4.89717
4.84863
4.80183
4.75671
4.71318
4.67118
4.63065
4.59153
4.55376
4.5173
4.48208
4.44808
4.41525
4.38356
4.35296
4.32342
4.29493
4.26745
4.24096
4.21545
4.19089
4.16727
4.14457
4.12279
4.10193
4.08196
4.06289
4.04471
5.16903
5.1105
5.05412
4.99983
4.94754
4.89717
4.84862
4.80181
4.75667
4.71313
4.67111
4.63056
4.59142
4.55362
4.51712
4.48188
4.44784
4.41496
4.38321
4.35255
4.32296
4.29439
4.26683
4.24026
4.21464
4.18997
4.16623
4.1434
4.12147
4.10043
4.08028
4.061
4.04258
5.16903
5.1105
5.05412
4.99983
4.94754
4.89716
4.8486
4.80179
4.75664
4.71309
4.67106
4.63049
4.59132
4.5535
4.51697
4.48169
4.44761
4.41469
4.38289
4.35218
4.32252
4.29389
4.26625
4.23959
4.21389
4.18911
4.16526
4.1423
4.12023
4.09904
4.07871
4.05924
4.04061
5.16903
5.1105
5.05412
4.99983
4.94754
4.89716
4.84859
4.80177
4.75661
4.71305
4.671
4.63041
4.59122
4.55337
4.51682
4.4815
4.44739
4.41443
4.38258
4.35182
4.32211
4.29341
4.26571
4.23897
4.21318
4.18832
4.16435
4.14128
4.11909
4.09775
4.07726
4.05762
4.0388
5.16903
5.1105
5.05412
4.99983
4.94753
4.89715
4.84858
4.80176
4.75659
4.71301
4.67095
4.63035
4.59114
4.55327
4.51669
4.48135
4.4472
4.4142
4.38231
4.35151
4.32174
4.29299
4.26522
4.23842
4.21255
4.1876
4.16354
4.14037
4.11805
4.09659
4.07596
4.05616
4.03716
5.16903
5.11051
5.05413
4.99984
4.94755
4.89716
4.84859
4.80175
4.75658
4.71299
4.67092
4.6303
4.59107
4.55318
4.51657
4.4812
4.44703
4.41399
4.38207
4.35122
4.32141
4.29261
4.26479
4.23793
4.21199
4.18697
4.16283
4.13956
4.11715
4.09557
4.07482
4.05488
4.03573
5.16903
5.1105
5.05412
4.99983
4.94753
4.89715
4.84859
4.80176
4.75658
4.71299
4.67092
4.63029
4.59105
4.55315
4.51653
4.48114
4.44694
4.41388
4.38193
4.35105
4.32121
4.29237
4.2645
4.23759
4.21161
4.18652
4.16232
4.13898
4.11649
4.09483
4.07398
4.05393
4.03467
5.16904
5.11053
5.05417
4.99991
4.94763
4.89726
4.8487
4.80187
4.75669
4.71309
4.67101
4.63038
4.59113
4.55322
4.5166
4.48121
4.447
4.41395
4.382
4.35112
4.32128
4.29244
4.26458
4.23767
4.21169
4.1866
4.1624
4.13906
4.11656
4.09488
4.07402
4.05394
4.03464
5.16903
5.1105
5.05415
4.99991
4.94769
4.89737
4.84886
4.80209
4.75696
4.71342
4.67139
4.63082
4.59164
4.55381
4.51727
4.48198
4.4479
4.41497
4.38317
4.35245
4.32278
4.29414
4.26648
4.23978
4.21402
4.18917
4.16521
4.14212
4.11987
4.09844
4.07783
4.058
4.03895
5.16906
5.11067
5.05449
5.00039
4.94827
4.89805
4.84967
4.80306
4.75816
4.7149
4.67323
4.63309
4.59443
4.55718
4.5213
4.48674
4.45344
4.42137
4.39048
4.36072
4.33206
4.30446
4.27788
4.25229
4.22764
4.20393
4.1811
4.15914
4.13801
4.1177
4.09817
4.07941
4.06138
5.16907
5.11076
5.05485
5.00133
4.9501
4.90107
4.85417
4.80934
4.76652
4.72566
4.68669
4.64952
4.61409
4.5803
4.54807
4.51731
4.48796
4.45991
4.43311
4.40747
4.38292
4.35941
4.33686
4.31523
4.29446
4.27449
4.25528
4.23679
4.21898
4.2018
4.18523
4.16923
4.15377
5.16942
5.11372
5.06216
5.01465
4.9712
4.93176
4.89613
4.86403
4.83514
4.80915
4.78572
4.76455
4.74536
4.72789
4.71191
4.6972
4.68357
4.67085
4.65891
4.64759
4.6368
4.62642
4.61638
4.6066
4.59702
4.58759
4.57827
4.56903
4.55985
4.55071
4.54162
4.53258
4.5236
5.17808
5.1631
5.16808
5.18841
5.21999
5.25982
5.30549
5.35516
5.40748
5.46139
5.51611
5.57102
5.62567
5.6797
5.73288
5.78503
5.83605
5.88591
5.9346
5.98216
6.02866
6.0742
6.11891
6.16293
6.20643
6.24957
6.29255
6.33555
6.37877
6.4224
6.46664
6.51168
6.55762
5.63871
6.43149
7.14844
7.83621
8.51668
9.18381
9.83191
10.4591
11.0657
11.6532
12.2234
12.7787
13.3209
13.8523
14.3745
14.8894
15.3984
15.903
16.4044
16.9037
17.4019
17.8999
18.3983
18.8978
19.3989
19.9019
20.4069
20.914
21.4232
21.9342
22.4466
22.9599
23.4734
44.7794
48.3125
51.8871
55.4666
59.0318
62.5708
66.0725
69.5271
72.9252
76.2585
79.5197
82.7024
85.8009
88.8106
91.7274
94.5481
97.2703
99.8919
102.412
104.828
107.141
109.351
111.457
113.461
115.362
117.162
118.862
120.464
121.968
123.378
124.693
125.916
127.052
751.895
868.217
999.696
1137.86
1250.38
1297.5
1273.41
1195.06
1086.95
968.582
849.57
728.517
599.458
459.02
313.026
179.61
81.7841
30.9332
15.7313
15.0684
17.5457
20.0233
21.8967
23.0922
23.6738
23.7815
23.5893
23.2578
22.9
22.5675
22.2559
21.9215
21.5008
20.927
20.1431
19.1144
17.8377
16.3473
14.7129
13.0291
11.3968
9.90291
8.6046
7.52406
6.65332
5.96561
5.42714
5.0055
4.67353
4.41006
4.19913
4.02889
3.89061
3.77786
3.68583
3.6108
3.54982
3.50046
3.46072
3.42889
3.40358
3.38359
3.36793
3.35578
3.34644
3.33935
3.33404
3.33013
3.32731
3.32533
3.324
3.32314
3.32264
3.3224
3.32233
3.32238
3.32251
3.32268
3.32285
3.32303
3.32319
3.32332
3.32342
3.32349
3.32352
3.32352
3.32349
3.32343
3.32334
3.32322
3.32307
3.32291
3.32273
3.32253
3.32232
3.32209
3.32187
3.32155
3.32168
3.31949
117.73
120.044
131.084
160.158
210.512
275.954
341.275
395.216
426.555
425.93
391.653
329.302
249.229
164.922
91.6737
42.0263
18.7018
12.6391
12.9719
14.7091
16.5841
18.2856
19.6566
20.5941
21.0826
21.1944
21.0529
20.7878
20.4987
20.2367
20.0045
19.7676
19.4705
19.0509
18.4529
17.6378
16.5937
15.3422
13.9385
12.4626
11.0045
9.64572
8.44426
7.42816
6.59775
5.93442
5.41083
4.99875
4.6734
4.41479
4.20751
4.04
3.90366
3.79216
3.70077
3.62586
3.56457
3.51457
3.47395
3.4411
3.41467
3.39354
3.37675
3.36351
3.35313
3.34508
3.33888
3.33416
3.3306
3.32796
3.32603
3.32465
3.32367
3.32301
3.32257
3.3223
3.32213
3.32204
3.32199
3.32197
3.32195
3.32192
3.32189
3.32184
3.32177
3.32168
3.32156
3.32143
3.32128
3.3211
3.32091
3.32071
3.32049
3.32026
3.32002
3.31977
3.31953
3.31919
3.31931
3.3171
27.4683
27.1315
27.555
27.6026
28.2253
31.1503
37.4071
44.5654
50.3729
52.5996
49.5091
41.0281
29.439
18.7749
12.364
10.2878
10.5236
11.4103
12.5008
13.7659
15.1296
16.4476
17.5593
18.3499
18.785
18.9079
18.8121
18.6044
18.3735
18.1692
17.9998
17.8393
17.6405
17.3472
16.9059
16.2754
15.4368
14.4005
13.2075
11.9241
10.6291
9.39821
8.28935
7.33534
6.54393
5.90409
5.39458
4.99132
4.67193
4.41767
4.21371
4.04877
3.91438
3.80426
3.71373
3.6392
3.57788
3.52753
3.48628
3.45262
3.42526
3.40311
3.38529
3.371
3.35963
3.35061
3.34351
3.33796
3.33363
3.33029
3.32772
3.32576
3.32426
3.32313
3.32228
3.32163
3.32113
3.32074
3.32044
3.32018
3.31996
3.31975
3.31956
3.31937
3.31917
3.31897
3.31877
3.31855
3.31832
3.31808
3.31784
3.31758
3.31732
3.31705
3.31678
3.3165
3.31623
3.31587
3.31597
3.31374
12.2841
12.2103
12.1806
12.1964
12.1501
12.2968
12.5603
12.8257
12.9378
12.7362
12.1542
11.3086
10.4759
9.90509
9.64866
9.66825
9.97895
10.5905
11.4592
12.5109
13.649
14.7508
15.6904
16.375
16.7703
16.9034
16.8463
16.6883
16.5072
16.3509
16.2313
16.1294
16.0061
15.8121
15.4977
15.0214
14.3592
13.5119
12.508
11.4007
10.258
9.14884
8.13003
7.23774
6.48588
5.8702
5.37521
4.98093
4.66746
4.41742
4.2167
4.05432
3.92196
3.8134
3.72397
3.65013
3.58912
3.53874
3.49719
3.46301
3.43497
3.41204
3.39335
3.37818
3.36591
3.35602
3.34808
3.34172
3.33665
3.33261
3.3294
3.32685
3.32483
3.32321
3.32192
3.32088
3.32003
3.31933
3.31874
3.31824
3.31779
3.31739
3.31702
3.31668
3.31635
3.31603
3.31572
3.3154
3.3151
3.31479
3.31448
3.31417
3.31386
3.31355
3.31324
3.31293
3.31264
3.31225
3.31233
3.31008
7.91418
7.88891
7.87386
7.88343
7.91042
7.9512
7.9959
8.03271
8.04887
8.03556
7.99594
7.95079
7.93644
7.99554
8.16805
8.4853
8.96554
9.61216
10.4134
11.3341
12.3081
13.2455
14.0513
14.6515
15.0139
15.155
15.1306
15.0153
14.8776
14.7617
14.6818
14.6244
14.5577
14.4395
14.2249
13.874
13.3596
12.6751
11.8382
10.8903
9.88847
8.89477
7.96351
7.13285
6.42153
5.83118
5.35162
4.96683
4.65949
4.41372
4.21621
4.05637
3.92608
3.8192
3.73107
3.65818
3.59777
3.54768
3.50615
3.47177
3.44334
3.41988
3.40057
3.38472
3.37173
3.3611
3.35244
3.34538
3.33963
3.33496
3.33115
3.32805
3.32552
3.32344
3.32172
3.32029
3.3191
3.31808
3.31721
3.31646
3.31579
3.31519
3.31465
3.31414
3.31368
3.31323
3.31281
3.31241
3.31202
3.31163
3.31126
3.3109
3.31054
3.31019
3.30984
3.3095
3.30917
3.30877
3.30882
3.30654
6.0817
6.07045
6.06147
6.06224
6.0778
6.11018
6.15859
6.2201
6.29177
6.37296
6.46736
6.58449
6.73997
6.95412
7.24841
7.64073
8.14309
8.76019
9.48398
10.2878
11.124
11.9266
12.6233
13.1539
13.4884
13.6355
13.6388
13.5605
13.4604
13.3792
13.3314
13.3079
13.2828
13.2208
13.0826
12.8311
12.4379
11.8911
11.1994
10.3936
9.52093
8.63578
7.78916
7.01982
6.35005
5.78637
5.32336
4.94879
4.64796
4.4066
4.2123
4.05499
3.92677
3.8216
3.73488
3.6631
3.60352
3.55398
3.51276
3.47845
3.44993
3.42622
3.40655
3.39024
3.37673
3.36557
3.35634
3.34871
3.34241
3.3372
3.33288
3.3293
3.32632
3.32382
3.32172
3.31995
3.31843
3.31713
3.316
3.31501
3.31413
3.31334
3.31263
3.31198
3.31138
3.31082
3.3103
3.3098
3.30933
3.30888
3.30845
3.30803
3.30762
3.30723
3.30685
3.30647
3.30612
3.30569
3.30573
3.30343
5.15728
5.151
5.14758
5.15296
5.17157
5.20542
5.25544
5.32242
5.40768
5.51383
5.64548
5.80949
6.01505
6.27321
6.59563
6.99283
7.47207
8.03488
8.67394
9.3697
10.0874
10.7778
11.3843
11.8568
12.1672
12.3186
12.345
12.2985
12.2312
12.1797
12.1584
12.1609
12.1663
12.1452
12.064
11.8894
11.5935
11.1609
10.5936
9.91311
9.15729
8.37322
7.60771
6.8989
6.27143
5.73566
5.29037
4.92686
4.63303
4.39631
4.20529
4.05048
3.92429
3.82081
3.73553
3.66493
3.6063
3.55748
3.51678
3.48279
3.45441
3.43071
3.41091
3.39438
3.38058
3.36907
3.35946
3.35143
3.34472
3.3391
3.33439
3.33042
3.32708
3.32424
3.32182
3.31975
3.31797
3.31642
3.31507
3.31387
3.31281
3.31186
3.31101
3.31023
3.30951
3.30885
3.30823
3.30766
3.30711
3.3066
3.30611
3.30565
3.3052
3.30477
3.30436
3.30395
3.30358
3.30313
3.30315
3.30082
4.65228
4.64658
4.64379
4.64802
4.66325
4.69278
4.73936
4.80532
4.89291
5.00488
5.14499
5.31825
5.53095
5.79032
6.10364
6.47681
6.91322
7.41259
7.96907
8.56842
9.18517
9.78191
10.3135
10.7372
11.0263
11.1803
11.2253
11.2054
11.1661
11.14
11.1408
11.1636
11.1914
11.1997
11.1603
11.0439
10.8247
10.4855
10.023
9.45142
8.80021
8.10926
7.42066
6.77102
6.18613
5.67932
5.25286
4.90129
4.61504
4.38324
4.19562
4.0433
3.91908
3.81723
3.73334
3.66392
3.60628
3.55828
3.51821
3.48471
3.45666
3.43314
3.41343
3.39688
3.38298
3.37131
3.3615
3.35323
3.34626
3.34038
3.33539
3.33116
3.32755
3.32446
3.32181
3.31952
3.31753
3.31579
3.31426
3.31291
3.3117
3.31062
3.30965
3.30876
3.30795
3.30721
3.30652
3.30588
3.30528
3.30471
3.30418
3.30368
3.3032
3.30274
3.3023
3.30187
3.30148
3.30101
3.30102
3.29867
4.37067
4.3638
4.36021
4.36304
4.37569
4.40131
4.44274
4.50267
4.58386
4.68933
4.82261
4.98777
5.18929
5.43186
5.71973
6.05608
6.44235
6.87774
7.35795
7.87299
8.40432
8.92298
9.39193
9.77406
10.0441
10.1984
10.2579
10.2596
10.2434
10.2386
10.2576
10.2965
10.341
10.3704
10.3611
10.2883
10.1286
9.86438
9.48926
9.01116
8.45252
7.84638
7.22994
6.63746
6.09498
5.61784
5.21117
4.87241
4.59433
4.36782
4.18375
4.03397
3.91167
3.81138
3.72879
3.6605
3.60383
3.55665
3.51727
3.48433
3.45671
3.43352
3.41403
3.39762
3.38379
3.37211
3.36225
3.35389
3.34681
3.34078
3.33565
3.33125
3.32749
3.32424
3.32143
3.31899
3.31686
3.31499
3.31334
3.31188
3.31057
3.3094
3.30834
3.30738
3.3065
3.3057
3.30495
3.30427
3.30362
3.30302
3.30246
3.30192
3.30142
3.30094
3.30048
3.30004
3.29963
3.29914
3.29914
3.29678
4.21634
4.20765
4.20242
4.20306
4.21236
4.23319
4.26836
4.32065
4.39283
4.48776
4.60849
4.75823
4.94024
5.15763
5.41299
5.70802
6.04334
6.41833
6.83038
7.27293
7.73242
8.18592
8.60223
8.94846
9.20064
9.35337
9.42297
9.44136
9.44368
9.45615
9.48983
9.54148
9.59838
9.64301
9.65558
9.61506
9.50092
9.29642
8.9931
8.59444
8.1168
7.5871
7.0376
6.49973
5.99896
5.55184
5.16573
4.84055
4.57125
4.35044
4.17014
4.02297
3.90259
3.8038
3.72244
3.6552
3.59943
3.55303
3.51433
3.48196
3.45482
3.43203
3.41284
3.39667
3.383
3.37144
3.36164
3.35332
3.34622
3.34017
3.33499
3.33053
3.32669
3.32337
3.32049
3.31797
3.31576
3.31382
3.3121
3.31057
3.3092
3.30797
3.30686
3.30585
3.30493
3.30409
3.30331
3.30259
3.30193
3.3013
3.30071
3.30016
3.29964
3.29915
3.29867
3.29822
3.2978
3.29731
3.2973
3.29493
4.13519
4.12467
4.11764
4.11601
4.12207
4.13831
4.16725
4.21146
4.27351
4.356
4.46156
4.59277
4.75206
4.94152
5.16275
5.41675
5.70398
6.02447
6.37719
6.75818
7.15748
7.55642
7.92809
8.24287
8.47805
8.62709
8.70303
8.73356
8.74994
8.77576
8.82095
8.88243
8.94869
9.0044
9.03274
9.01607
8.9367
8.77929
8.53452
8.20266
7.79524
7.33374
6.84568
6.3594
5.89915
5.48202
5.117
4.80606
4.54614
4.33144
4.15518
4.01075
3.89232
3.79501
3.71481
3.64853
3.59359
3.54791
3.50983
3.47801
3.45135
3.42897
3.41013
3.39424
3.38081
3.36943
3.35977
3.35155
3.34454
3.33853
3.33338
3.32894
3.3251
3.32177
3.31887
3.31633
3.3141
3.31213
3.31038
3.30882
3.30743
3.30618
3.30504
3.30401
3.30307
3.30221
3.30142
3.30068
3.3
3.29936
3.29877
3.29821
3.29768
3.29717
3.2967
3.29624
3.29582
3.29532
3.29531
3.29293
4.09465
4.08255
4.07386
4.07007
4.07307
4.08496
4.10794
4.14428
4.19628
4.2662
4.35626
4.46853
4.60484
4.76668
4.95514
5.17098
5.41491
5.68771
5.98971
6.3189
6.66783
7.02088
7.3543
7.64113
7.8599
8.00343
8.08234
8.12097
8.1474
8.183
8.23672
8.3055
8.37867
8.44244
8.48227
8.48326
8.43039
8.30997
8.11264
7.83657
7.48949
7.08828
6.65608
6.218
5.79668
5.40914
5.06547
4.76928
4.51926
4.3111
4.13917
3.99766
3.88126
3.78543
3.70637
3.641
3.58681
3.54178
3.50428
3.47296
3.44674
3.42475
3.40625
3.39066
3.37749
3.36633
3.35685
3.34878
3.34189
3.33598
3.33091
3.32653
3.32274
3.31945
3.31658
3.31406
3.31184
3.30988
3.30814
3.30659
3.3052
3.30394
3.30281
3.30178
3.30084
3.29997
3.29918
3.29844
3.29775
3.29712
3.29652
3.29595
3.29542
3.29492
3.29444
3.29398
3.29355
3.29306
3.29304
3.29067
4.0751
4.06176
4.05161
4.04589
4.04614
4.05408
4.0716
4.10066
4.14322
4.20124
4.27656
4.37087
4.48559
4.62186
4.78053
4.96241
5.16858
5.40056
5.65974
5.94553
6.25225
6.56645
6.86681
7.12854
7.3314
7.46793
7.54701
7.59032
7.62332
7.66556
7.72513
7.79897
7.87702
7.94657
7.99478
8.00894
7.9763
7.88494
7.72593
7.49621
7.20066
6.85234
6.47046
6.07698
5.69263
5.33395
5.01163
4.73055
4.49087
4.28965
4.12234
3.98395
3.8697
3.7754
3.69747
3.63298
3.57951
3.53508
3.49809
3.46722
3.44141
3.41978
3.4016
3.3863
3.37338
3.36244
3.35316
3.34526
3.33852
3.33274
3.32778
3.32349
3.31978
3.31656
3.31374
3.31127
3.30909
3.30717
3.30546
3.30393
3.30256
3.30132
3.3002
3.29918
3.29825
3.29739
3.2966
3.29587
3.29519
3.29456
3.29396
3.2934
3.29287
3.29237
3.29189
3.29143
3.29101
3.29051
3.2905
3.28813
4.06542
4.05109
4.03969
4.03225
4.03002
4.03443
4.04705
4.06955
4.10359
4.15082
4.21279
4.29088
4.38624
4.49978
4.63232
4.78481
4.95872
5.15621
5.3795
5.62897
5.90019
6.1813
6.45286
6.69189
6.87937
7.00783
7.08487
7.13009
7.16679
7.21299
7.27608
7.35303
7.43421
7.50776
7.56205
7.58606
7.56897
7.50049
7.37243
7.18111
6.92935
6.62712
6.29024
5.93764
5.58808
5.25723
4.956
4.69019
4.46119
4.26725
4.10486
3.9698
3.85784
3.76515
3.68839
3.62478
3.572
3.52814
3.49162
3.46117
3.43572
3.41442
3.39654
3.3815
3.36882
3.3581
3.34901
3.34129
3.3347
3.32906
3.32421
3.32003
3.31642
3.31327
3.31053
3.30812
3.306
3.30412
3.30245
3.30096
3.29962
3.29841
3.29731
3.29631
3.2954
3.29456
3.29378
3.29306
3.29239
3.29177
3.29118
3.29062
3.2901
3.2896
3.28913
3.28867
3.28825
3.28776
3.28775
3.28538
4.0599
4.04472
4.03221
4.0232
4.01874
4.02
4.02828
4.04497
4.07149
4.10922
4.15944
4.22331
4.30177
4.39565
4.50575
4.63322
4.77991
4.94848
5.14175
5.3608
5.60204
5.85479
6.10111
6.31958
6.49231
6.61202
6.68539
6.73036
6.76846
6.81643
6.8811
6.95947
7.04231
7.11839
7.17698
7.20837
7.20329
7.15291
7.04989
6.89035
6.67571
6.41347
6.11654
5.80114
5.48398
5.17969
4.89908
4.64854
4.43043
4.24407
4.08686
3.95534
3.84582
3.75483
3.6793
3.6166
3.56451
3.5212
3.48514
3.45507
3.42996
3.40895
3.39134
3.37655
3.36409
3.35357
3.34467
3.33711
3.33067
3.32517
3.32045
3.31638
3.31286
3.30981
3.30714
3.3048
3.30274
3.30092
3.2993
3.29784
3.29654
3.29536
3.29429
3.29332
3.29243
3.29161
3.29085
3.29014
3.28948
3.28887
3.28829
3.28774
3.28722
3.28673
3.28626
3.28581
3.28539
3.2849
3.28489
3.28253
4.05591
4.03995
4.02639
4.01595
4.00946
4.0079
4.01235
4.02397
4.04393
4.07341
4.11347
4.16508
4.22906
4.30615
4.39722
4.5036
4.62744
4.77182
4.93999
5.13347
5.34928
5.57761
5.80172
6.00157
6.1603
6.27094
6.33952
6.38263
6.42037
6.46837
6.53305
6.61145
6.69469
6.77207
6.83357
6.87044
6.87467
6.83867
6.75598
6.62278
6.43952
6.21184
5.95023
5.66843
5.38122
5.10204
4.84137
4.60593
4.39882
4.22023
4.06844
3.94065
3.83371
3.74454
3.6703
3.60854
3.55717
3.51441
3.4788
3.4491
3.42431
3.40358
3.38622
3.37165
3.3594
3.34907
3.34034
3.33294
3.32665
3.32128
3.31667
3.31272
3.3093
3.30633
3.30374
3.30147
3.29948
3.29771
3.29614
3.29473
3.29346
3.29232
3.29128
3.29034
3.28947
3.28867
3.28792
3.28723
3.28659
3.28598
3.28541
3.28488
3.28436
3.28388
3.28341
3.28297
3.28255
3.28206
3.28206
3.27969
4.05239
4.03569
4.02115
4.00935
4.00101
3.99693
3.998
4.00518
4.01947
4.04184
4.07319
4.11434
4.166
4.22887
4.30389
4.39253
4.49723
4.62136
4.76847
4.94039
5.13455
5.34177
5.54632
5.72933
5.87492
5.97646
6.03955
6.07968
6.11573
6.16245
6.22588
6.30318
6.3858
6.46346
6.52672
6.56759
6.57902
6.5545
6.48837
6.37702
6.22032
6.02244
5.79189
5.54029
5.28055
5.02492
4.78335
4.56268
4.36654
4.19587
4.04966
3.92578
3.82157
3.73431
3.66145
3.60069
3.55005
3.50786
3.4727
3.44337
3.41889
3.39843
3.38131
3.36696
3.3549
3.34475
3.33618
3.32892
3.32277
3.31752
3.31303
3.30918
3.30585
3.30297
3.30046
3.29826
3.29633
3.29461
3.29309
3.29173
3.2905
3.2894
3.28839
3.28747
3.28662
3.28584
3.28512
3.28444
3.28381
3.28322
3.28266
3.28213
3.28162
3.28114
3.28068
3.28024
3.27983
3.27935
3.27934
3.27698
4.049
4.03158
4.01609
4.00303
3.99299
3.98664
3.98472
3.98804
3.99742
4.01368
4.03759
4.06983
4.11104
4.1619
4.22338
4.29713
4.38577
4.49292
4.62232
4.77599
4.95162
5.14055
5.32786
5.49569
5.62906
5.72172
5.77894
5.81534
5.84877
5.89323
5.95447
6.02978
6.11093
6.18804
6.25213
6.29579
6.31278
6.29743
6.24484
6.15168
6.01744
5.84523
5.64193
5.41731
5.18263
4.94891
4.72548
4.51913
4.33384
4.17112
4.03063
3.91079
3.80943
3.72419
3.65276
3.59305
3.54319
3.50159
3.46689
3.43793
3.41376
3.39356
3.37667
3.36252
3.35065
3.34066
3.33225
3.32514
3.31911
3.31398
3.3096
3.30584
3.30261
3.29981
3.29737
3.29524
3.29337
3.29171
3.29023
3.28891
3.28773
3.28665
3.28568
3.28478
3.28396
3.2832
3.28249
3.28183
3.28121
3.28063
3.28008
3.27956
3.27906
3.27859
3.27814
3.2777
3.27729
3.27681
3.27681
3.27444
4.04565
4.02753
4.01113
3.99689
3.9853
3.97691
3.97235
3.97229
3.97742
3.98844
4.00598
4.03064
4.06299
4.10368
4.15376
4.21496
4.2901
4.38295
4.4974
4.63556
4.79531
4.96835
5.14046
5.29466
5.41678
5.50094
5.55217
5.58439
5.61457
5.65607
5.71444
5.78707
5.8661
5.94198
6.00613
6.05162
6.07283
6.06483
6.02332
5.94532
5.83011
5.67999
5.50052
5.29993
5.08798
4.87451
4.66818
4.47558
4.30091
4.14613
4.01141
3.89571
3.79731
3.71417
3.64425
3.58563
3.53659
3.4956
3.46137
3.43279
3.40893
3.389
3.37233
3.35838
3.34668
3.33686
3.32859
3.32161
3.31571
3.31069
3.30641
3.30275
3.2996
3.29688
3.29452
3.29245
3.29063
3.28903
3.2876
3.28632
3.28517
3.28413
3.28318
3.28231
3.28151
3.28077
3.28008
3.27944
3.27883
3.27826
3.27772
3.27721
3.27672
3.27625
3.2758
3.27536
3.27496
3.27448
3.27448
3.27212
4.04233
4.02354
4.00629
3.99095
3.97794
3.96772
3.96082
3.9578
3.95925
3.96575
3.97784
3.99604
4.02085
4.05294
4.09336
4.14398
4.20773
4.28851
4.3903
4.51524
4.66132
4.82055
4.97926
5.12126
5.23309
5.30924
5.35457
5.38239
5.40892
5.44701
5.50201
5.57149
5.64787
5.72199
5.78558
5.83211
5.85647
5.85431
5.8219
5.75657
5.65749
5.52637
5.36772
5.18846
4.99703
4.80217
4.61184
4.43235
4.26798
4.12103
3.9921
3.88061
3.78523
3.70427
3.63592
3.57844
3.53024
3.48988
3.45614
3.42795
3.4044
3.38473
3.36828
3.35452
3.343
3.33333
3.32521
3.31836
3.31257
3.30766
3.30348
3.29991
3.29685
3.2942
3.2919
3.2899
3.28814
3.28658
3.2852
3.28396
3.28284
3.28183
3.28091
3.28007
3.27929
3.27857
3.2779
3.27727
3.27667
3.27611
3.27558
3.27507
3.27459
3.27413
3.27368
3.27325
3.27285
3.27237
3.27238
3.27002
4.03908
4.01965
4.0016
3.98524
3.97093
3.95907
3.9501
3.94449
3.94274
3.94534
3.95276
3.96543
3.98383
4.0086
4.04084
4.0825
4.13661
4.20717
4.29819
4.41183
4.54613
4.69332
4.84024
4.97136
5.07385
5.14254
5.18217
5.20554
5.22823
5.26262
5.31393
5.37992
5.4533
5.52524
5.58776
5.6347
5.66133
5.6638
5.63885
5.58411
5.49871
5.38394
5.24346
5.08308
4.91009
4.73225
4.55679
4.38971
4.23526
4.09596
3.97278
3.86553
3.77323
3.6945
3.62777
3.57147
3.52413
3.48443
3.45119
3.42339
3.40015
3.38074
3.36451
3.35095
3.33959
3.33008
3.32209
3.31536
3.30969
3.30488
3.3008
3.29731
3.29433
3.29175
3.28952
3.28757
3.28586
3.28435
3.28301
3.28181
3.28073
3.27975
3.27886
3.27804
3.27728
3.27658
3.27592
3.2753
3.27472
3.27417
3.27365
3.27315
3.27267
3.27221
3.27177
3.27135
3.27095
3.27047
3.27048
3.26812
4.03592
4.01589
3.99709
3.97979
3.96431
3.95097
3.94015
3.93227
3.92774
3.92697
3.93037
3.93831
3.95123
3.96976
3.99505
4.0291
4.07504
4.13691
4.21875
4.32269
4.4468
4.58351
4.72005
4.84148
4.93555
4.99739
5.03163
5.05062
5.0694
5.09995
5.14741
5.20968
5.27981
5.34926
5.41034
5.45715
5.48533
5.49143
5.47259
5.42671
5.35294
5.25223
5.12757
4.98387
4.82741
4.66505
4.50335
4.34792
4.20294
4.07108
3.95356
3.85053
3.76134
3.68487
3.61979
3.5647
3.51825
3.47922
3.44649
3.41908
3.39617
3.37701
3.36101
3.34763
3.33644
3.32707
3.31921
3.31261
3.30704
3.30233
3.29834
3.29494
3.29202
3.28952
3.28735
3.28546
3.2838
3.28233
3.28103
3.27987
3.27882
3.27787
3.277
3.2762
3.27546
3.27478
3.27413
3.27353
3.27296
3.27242
3.27191
3.27141
3.27094
3.27049
3.27005
3.26963
3.26924
3.26876
3.26877
3.26641
4.03287
4.01228
3.99278
3.97463
3.95808
3.94342
3.93097
3.92109
3.91413
3.91044
3.91037
3.91426
3.92248
3.9357
3.95506
3.98263
4.0216
4.07607
4.15005
4.24565
4.36094
4.4885
4.61591
4.72876
4.81528
4.87087
4.90007
4.91485
4.92976
4.95645
4.99999
5.05845
5.12517
5.19191
5.25124
5.29751
5.32666
5.33556
5.3217
5.28322
5.21932
5.13071
5.01983
4.89084
4.74915
4.60081
4.45176
4.30722
4.17123
4.04652
3.93453
3.83568
3.74959
3.6754
3.61199
3.55813
3.5126
3.47424
3.44203
3.41503
3.39243
3.37354
3.35775
3.34455
3.33352
3.3243
3.31656
3.31007
3.30461
3.3
3.29609
3.29276
3.28992
3.28748
3.28537
3.28353
3.28192
3.2805
3.27923
3.27811
3.27709
3.27616
3.27532
3.27454
3.27382
3.27315
3.27252
3.27193
3.27137
3.27084
3.27033
3.26985
3.26938
3.26894
3.2685
3.26808
3.26769
3.26722
3.26723
3.26487
4.02996
4.00884
3.98871
3.96977
3.95225
3.93641
3.92252
3.91088
3.90179
3.89558
3.89252
3.8929
3.89711
3.90577
3.92006
3.94211
3.97513
4.02327
4.09051
4.17892
4.28655
4.40611
4.52551
4.63076
4.71055
4.76049
4.78505
4.79585
4.80702
4.82991
4.86954
4.92417
4.98742
5.05131
5.10867
5.15408
5.1837
5.19471
5.18488
5.15259
5.09708
5.01886
4.91997
4.80392
4.67539
4.53971
4.40225
4.26782
4.14029
4.02242
3.91579
3.82103
3.73802
3.66612
3.60439
3.55177
3.50716
3.46949
3.4378
3.4112
3.38892
3.37028
3.35471
3.34169
3.33082
3.32173
3.31412
3.30773
3.30237
3.29785
3.29402
3.29077