/*--------------------------------*- C++ -*----------------------------------*\
| =========                 |                                                 |
| \\      /  F ield         | OpenFOAM: The Open Source CFD Toolbox           |
|  \\    /   O peration     | Version:  2.1.1                                 |
|   \\  /    A nd           | Web:      www.OpenFOAM.org                      |
|    \\/     M anipulation  |                                                 |
\*---------------------------------------------------------------------------*/
FoamFile
{
    version     2.0;
    format      ascii;
    class       volScalarField;
    location    "0.02";
    object      k;
}
// * * * * * * * * * * * * * * * * * * * * * * * * * * * * * * * * * * * * * //

dimensions      [0 2 -2 0 0 0 0];

internalField   nonuniform List<scalar> 
6820
(
0.288909
0.351395
0.415002
0.477472
0.536894
0.591653
0.640583
0.683029
0.718804
0.748097
0.771369
0.789248
0.802442
0.811678
0.817653
0.821004
0.822299
0.822028
0.820608
0.818386
0.815648
0.812626
0.809507
0.806443
0.803547
0.800924
0.798625
0.796615
0.794863
0.793573
0.791753
0.79437
0.776983
0.26553
0.269392
0.270515
0.27132
0.272504
0.274101
0.27602
0.278141
0.28035
0.282557
0.284702
0.286748
0.288681
0.290499
0.292207
0.293817
0.295339
0.296781
0.298147
0.299439
0.300655
0.301788
0.30283
0.303772
0.304605
0.305327
0.30597
0.306596
0.307216
0.307829
0.308366
0.308876
0.309136
0.262039
0.264262
0.263615
0.261582
0.25903
0.25635
0.253659
0.250969
0.248268
0.245549
0.242816
0.240079
0.237358
0.234674
0.232049
0.2295
0.227045
0.224697
0.222467
0.22036
0.21838
0.216529
0.214804
0.213205
0.211725
0.210359
0.209103
0.207964
0.206909
0.205914
0.204953
0.204051
0.203108
0.259883
0.260267
0.259788
0.258527
0.256826
0.254895
0.252846
0.250731
0.248579
0.246402
0.24421
0.24201
0.239809
0.237615
0.235438
0.233284
0.231162
0.22908
0.227044
0.225062
0.223138
0.221277
0.219483
0.217758
0.216106
0.214529
0.213026
0.211586
0.21021
0.208899
0.207653
0.206474
0.205359
0.259299
0.258404
0.257599
0.256567
0.255297
0.253856
0.252303
0.25068
0.249012
0.247317
0.245605
0.243886
0.242166
0.24045
0.238746
0.237056
0.235385
0.233738
0.232119
0.230532
0.228979
0.227465
0.225992
0.224563
0.22318
0.221845
0.220562
0.21933
0.218153
0.217031
0.215967
0.214958
0.21401
0.259224
0.257846
0.256619
0.255433
0.254226
0.252972
0.25167
0.250327
0.248953
0.247557
0.246149
0.244736
0.243323
0.241915
0.240516
0.23913
0.23776
0.236408
0.235079
0.233775
0.232497
0.231249
0.230032
0.22885
0.227704
0.226597
0.225532
0.224509
0.223533
0.222604
0.221726
0.220896
0.220119
0.259217
0.257714
0.256309
0.254981
0.253701
0.252447
0.251205
0.249966
0.248727
0.247488
0.246251
0.245017
0.243791
0.242573
0.241367
0.240175
0.239
0.237843
0.236706
0.235591
0.234501
0.233437
0.232401
0.231395
0.230421
0.229481
0.228578
0.227715
0.226892
0.226113
0.225381
0.224693
0.224055
0.259218
0.25769
0.256224
0.254822
0.253479
0.252186
0.250933
0.249711
0.248515
0.247339
0.246181
0.245041
0.243917
0.242809
0.241719
0.240647
0.239594
0.238562
0.237551
0.236562
0.235597
0.234658
0.233746
0.232862
0.232008
0.231187
0.230401
0.229651
0.22894
0.228271
0.227645
0.227064
0.226531
0.259218
0.257686
0.256206
0.25478
0.253408
0.252085
0.250809
0.249575
0.24838
0.247218
0.246086
0.244983
0.243905
0.242853
0.241824
0.240819
0.239837
0.238879
0.237945
0.237035
0.236151
0.235293
0.234462
0.23366
0.232888
0.232147
0.23144
0.230769
0.230136
0.229544
0.228994
0.228489
0.228032
0.259218
0.257685
0.256202
0.25477
0.253386
0.25205
0.25076
0.249515
0.248311
0.247146
0.246017
0.244923
0.243861
0.24283
0.241828
0.240854
0.239909
0.23899
0.238098
0.237234
0.236397
0.235587
0.234807
0.234055
0.233334
0.232646
0.23199
0.231371
0.230789
0.230247
0.229748
0.229294
0.228889
0.259218
0.257685
0.256201
0.254767
0.25338
0.252039
0.250744
0.249491
0.248281
0.24711
0.245979
0.244884
0.243824
0.242798
0.241804
0.240842
0.239911
0.23901
0.238138
0.237296
0.236483
0.235699
0.234946
0.234222
0.233531
0.232872
0.232247
0.231658
0.231106
0.230595
0.230126
0.229703
0.229329
0.259218
0.257685
0.256201
0.254766
0.253378
0.252035
0.250737
0.249482
0.248268
0.247094
0.245959
0.244862
0.2438
0.242773
0.241781
0.240821
0.239894
0.238998
0.238134
0.2373
0.236497
0.235725
0.234983
0.234273
0.233596
0.232951
0.232341
0.231767
0.231231
0.230734
0.230281
0.229872
0.229513
0.259218
0.257685
0.256201
0.254765
0.253377
0.252033
0.250734
0.249478
0.248262
0.247086
0.245949
0.244849
0.243786
0.242757
0.241763
0.240803
0.239876
0.23898
0.238117
0.237285
0.236484
0.235715
0.234977
0.234271
0.233598
0.232959
0.232354
0.231785
0.231253
0.230762
0.230312
0.229908
0.229552
0.259218
0.257684
0.2562
0.254765
0.253376
0.252032
0.250732
0.249475
0.248258
0.247081
0.245943
0.244841
0.243776
0.242746
0.24175
0.240788
0.239859
0.238963
0.238098
0.237265
0.236463
0.235693
0.234955
0.234249
0.233576
0.232936
0.23233
0.23176
0.231228
0.230734
0.230282
0.229874
0.229514
0.259218
0.257684
0.2562
0.254764
0.253375
0.252031
0.250731
0.249472
0.248255
0.247077
0.245938
0.244835
0.243768
0.242737
0.24174
0.240776
0.239845
0.238947
0.23808
0.237245
0.236441
0.235669
0.234929
0.23422
0.233544
0.2329
0.232291
0.231718
0.23118
0.230681
0.230223
0.229808
0.229438
0.259218
0.257684
0.2562
0.254764
0.253374
0.25203
0.250729
0.24947
0.248252
0.247074
0.245933
0.244829
0.243762
0.242729
0.24173
0.240765
0.239832
0.238932
0.238063
0.237225
0.236419
0.235644
0.234901
0.234189
0.233509
0.232861
0.232247
0.231668
0.231124
0.230618
0.230151
0.229726
0.229344
0.259218
0.257684
0.2562
0.254763
0.253374
0.252029
0.250728
0.249468
0.24825
0.24707
0.245929
0.244824
0.243755
0.242721
0.241721
0.240754
0.23982
0.238917
0.238046
0.237206
0.236398
0.23562
0.234873
0.234157
0.233473
0.23282
0.232201
0.231615
0.231065
0.23055
0.230074
0.229637
0.229242
0.259218
0.257684
0.2562
0.254763
0.253373
0.252028
0.250727
0.249467
0.248247
0.247067
0.245925
0.244819
0.243749
0.242714
0.241712
0.240744
0.239808
0.238903
0.23803
0.237188
0.236376
0.235595
0.234845
0.234125
0.233436
0.232779
0.232154
0.231562
0.231003
0.23048
0.229994
0.229545
0.229137
0.259218
0.257684
0.2562
0.254763
0.253373
0.252028
0.250726
0.249465
0.248245
0.247064
0.245921
0.244815
0.243744
0.242707
0.241704
0.240734
0.239796
0.238889
0.238014
0.237169
0.236355
0.235571
0.234817
0.234093
0.2334
0.232737
0.232106
0.231508
0.230942
0.23041
0.229913
0.229453
0.229031
0.259218
0.257684
0.2562
0.254763
0.253373
0.252027
0.250725
0.249464
0.248243
0.247062
0.245918
0.24481
0.243738
0.2427
0.241696
0.240724
0.239785
0.238876
0.237998
0.237151
0.236334
0.235547
0.234789
0.234061
0.233363
0.232696
0.232059
0.231454
0.23088
0.230339
0.229833
0.229361
0.228925
0.259218
0.257684
0.2562
0.254763
0.253372
0.252027
0.250724
0.249463
0.248242
0.247059
0.245915
0.244806
0.243733
0.242694
0.241688
0.240715
0.239774
0.238863
0.237983
0.237134
0.236313
0.235523
0.234762
0.23403
0.233328
0.232655
0.232013
0.2314
0.230819
0.23027
0.229753
0.22927
0.228822
0.259218
0.257684
0.2562
0.254763
0.253372
0.252026
0.250723
0.249462
0.24824
0.247057
0.245912
0.244803
0.243728
0.242688
0.241681
0.240706
0.239763
0.238851
0.237969
0.237116
0.236294
0.2355
0.234735
0.234
0.233293
0.232615
0.231967
0.231348
0.23076
0.230202
0.229676
0.229182
0.228721
0.259218
0.257684
0.2562
0.254763
0.253372
0.252026
0.250723
0.249461
0.248239
0.247055
0.245909
0.244799
0.243724
0.242682
0.241674
0.240698
0.239753
0.238839
0.237954
0.2371
0.236274
0.235478
0.23471
0.23397
0.233259
0.232576
0.231923
0.231298
0.230702
0.230136
0.229601
0.229096
0.228623
0.259218
0.257684
0.2562
0.254763
0.253372
0.252026
0.250722
0.24946
0.248237
0.247053
0.245907
0.244796
0.24372
0.242677
0.241668
0.24069
0.239743
0.238827
0.237941
0.237084
0.236256
0.235456
0.234685
0.233942
0.233226
0.232539
0.23188
0.231249
0.230647
0.230073
0.229529
0.229014
0.22853
0.259218
0.257684
0.2562
0.254763
0.253372
0.252025
0.250722
0.249459
0.248236
0.247052
0.245904
0.244793
0.243716
0.242672
0.241661
0.240682
0.239734
0.238816
0.237928
0.237069
0.236238
0.235436
0.234661
0.233914
0.233195
0.232503
0.231839
0.231202
0.230593
0.230013
0.22946
0.228936
0.228441
0.259218
0.257684
0.2562
0.254763
0.253372
0.252025
0.250721
0.249458
0.248235
0.24705
0.245902
0.24479
0.243712
0.242667
0.241655
0.240675
0.239725
0.238806
0.237916
0.237054
0.236221
0.235416
0.234639
0.233888
0.233165
0.232469
0.2318
0.231158
0.230543
0.229955
0.229395
0.228863
0.228358
0.259218
0.257684
0.2562
0.254763
0.253372
0.252025
0.250721
0.249458
0.248234
0.247049
0.2459
0.244787
0.243708
0.242663
0.24165
0.240668
0.239717
0.238796
0.237904
0.237041
0.236205
0.235398
0.234617
0.233864
0.233137
0.232437
0.231763
0.231116
0.230496
0.229902
0.229334
0.228794
0.22828
0.259218
0.257685
0.2562
0.254763
0.253372
0.252025
0.250721
0.249457
0.248233
0.247047
0.245898
0.244785
0.243705
0.242659
0.241645
0.240662
0.23971
0.238787
0.237893
0.237028
0.236191
0.235381
0.234597
0.233841
0.233111
0.232407
0.231729
0.231078
0.230452
0.229852
0.229278
0.22873
0.228208
0.259218
0.257685
0.2562
0.254763
0.253372
0.252025
0.25072
0.249457
0.248232
0.247046
0.245896
0.244782
0.243702
0.242655
0.24164
0.240656
0.239703
0.238779
0.237883
0.237016
0.236177
0.235365
0.234579
0.23382
0.233087
0.232379
0.231698
0.231042
0.230411
0.229806
0.229226
0.228672
0.228142
0.259218
0.257685
0.2562
0.254763
0.253372
0.252025
0.25072
0.249456
0.248232
0.247045
0.245895
0.24478
0.2437
0.242652
0.241636
0.240651
0.239697
0.238771
0.237875
0.237006
0.236165
0.235351
0.234563
0.233801
0.233065
0.232355
0.23167
0.23101
0.230375
0.229765
0.22918
0.228619
0.228083
0.259218
0.257685
0.2562
0.254763
0.253372
0.252025
0.25072
0.249456
0.248232
0.247045
0.245894
0.244779
0.243698
0.242649
0.241633
0.240647
0.239691
0.238765
0.237867
0.236997
0.236154
0.235338
0.234549
0.233785
0.233047
0.232333
0.231645
0.230982
0.230343
0.229729
0.229139
0.228573
0.228032
0.259218
0.257684
0.2562
0.254763
0.253372
0.252025
0.250721
0.249457
0.248232
0.247045
0.245895
0.244779
0.243698
0.242649
0.241632
0.240645
0.239689
0.238762
0.237863
0.236992
0.236148
0.23533
0.234539
0.233773
0.233033
0.232317
0.231626
0.23096
0.230318
0.229699
0.229105
0.228534
0.227987
0.259218
0.257685
0.256202
0.254766
0.253375
0.252029
0.250724
0.249461
0.248236
0.247049
0.245898
0.244783
0.243701
0.242652
0.241634
0.240647
0.23969
0.238762
0.237862
0.23699
0.236145
0.235326
0.234533
0.233766
0.233023
0.232305
0.231611
0.230942
0.230296
0.229674
0.229074
0.228498
0.227945
0.259218
0.257685
0.256201
0.254766
0.253378
0.252033
0.250731
0.249469
0.248246
0.24706
0.245909
0.244794
0.243712
0.242663
0.241645
0.240658
0.2397
0.238771
0.237869
0.236995
0.236148
0.235327
0.234531
0.23376
0.233013
0.232291
0.231592
0.230917
0.230264
0.229635
0.229027
0.228443
0.22788
0.259219
0.257691
0.256213
0.254782
0.253396
0.252053
0.250752
0.24949
0.248267
0.247082
0.245932
0.244816
0.243733
0.242682
0.241662
0.240672
0.23971
0.238777
0.23787
0.23699
0.236136
0.235306
0.234501
0.23372
0.232963
0.232228
0.231516
0.230826
0.230158
0.229512
0.228887
0.228282
0.227699
0.25922
0.257693
0.25622
0.254799
0.253424
0.252091
0.250797
0.24954
0.248319
0.247132
0.245979
0.244857
0.243765
0.242704
0.241671
0.240666
0.239687
0.238735
0.237807
0.236905
0.236026
0.235171
0.234338
0.233528
0.23274
0.231974
0.231229
0.230504
0.2298
0.229117
0.228454
0.22781
0.227186
0.25923
0.257743
0.2563
0.254892
0.253521
0.252186
0.250885
0.249616
0.248377
0.247168
0.245986
0.244832
0.243705
0.242603
0.241527
0.240476
0.23945
0.238448
0.237469
0.236514
0.235582
0.234673
0.233787
0.232922
0.232079
0.231258
0.230459
0.22968
0.228922
0.228185
0.227469
0.226774
0.226098
0.259264
0.25782
0.256448
0.255117
0.253793
0.252465
0.251138
0.249819
0.248516
0.247234
0.245978
0.244751
0.243555
0.242389
0.241256
0.240154
0.239083
0.238044
0.237034
0.236054
0.235104
0.234183
0.233291
0.232427
0.231592
0.230784
0.230005
0.229253
0.228528
0.227831
0.227161
0.226518
0.225901
0.259602
0.258639
0.257585
0.256551
0.255603
0.25474
0.253947
0.253216
0.252543
0.251927
0.25137
0.250874
0.250441
0.250073
0.249771
0.249535
0.249368
0.24927
0.249241
0.249282
0.249393
0.249573
0.249824
0.250145
0.250534
0.250992
0.251517
0.252109
0.252764
0.253482
0.25426
0.255095
0.255983
0.266719
0.28057
0.294244
0.307625
0.32067
0.333361
0.345686
0.357633
0.369192
0.380359
0.391127
0.401495
0.411462
0.421029
0.430198
0.438973
0.447359
0.455362
0.462988
0.470244
0.477137
0.483676
0.489868
0.495721
0.501245
0.506447
0.511336
0.515921
0.520209
0.524209
0.527931
0.53138
0.534573
0.875065
1.04548
1.30329
1.65114
2.0426
2.39146
2.64258
2.78089
2.81949
2.77856
2.66645
2.47607
2.19427
1.81583
1.36314
0.906242
0.555205
0.396535
0.403629
0.47658
0.560831
0.63846
0.701498
0.747192
0.776621
0.793182
0.800989
0.803651
0.803596
0.801878
0.798327
0.791915
0.781189
0.764698
0.741342
0.710638
0.672888
0.629231
0.581552
0.53223
0.483768
0.438383
0.397678
0.3625
0.332989
0.30876
0.289139
0.27335
0.260654
0.250409
0.242095
0.235314
0.229761
0.225207
0.221475
0.218425
0.21594
0.213925
0.2123
0.210998
0.209961
0.209141
0.208498
0.207999
0.207615
0.207323
0.207105
0.206944
0.206828
0.206747
0.206693
0.206659
0.206639
0.20663
0.206629
0.206633
0.20664
0.206649
0.206659
0.206668
0.206677
0.206685
0.206692
0.206698
0.206702
0.206705
0.206707
0.206707
0.206706
0.206704
0.206701
0.206698
0.206693
0.206688
0.206682
0.206676
0.206669
0.20666
0.206664
0.206595
0.30887
0.315301
0.336671
0.387205
0.482776
0.628389
0.806512
0.992638
1.15111
1.24355
1.24545
1.15145
0.974885
0.748478
0.526765
0.373481
0.323468
0.351578
0.410368
0.478267
0.546731
0.609121
0.660432
0.69818
0.722716
0.736487
0.7428
0.744767
0.744625
0.743453
0.741208
0.736991
0.729413
0.716991
0.698497
0.67324
0.641255
0.603381
0.561202
0.516835
0.472591
0.430598
0.392474
0.359161
0.33094
0.307576
0.288526
0.273117
0.260678
0.250615
0.242436
0.235752
0.230267
0.225756
0.222044
0.218995
0.216496
0.214456
0.212798
0.211457
0.210379
0.209517
0.208833
0.208293
0.207871
0.207544
0.207292
0.207102
0.206959
0.206853
0.206777
0.206723
0.206685
0.206661
0.206646
0.206638
0.206634
0.206633
0.206634
0.206636
0.206638
0.206641
0.206642
0.206643
0.206644
0.206643
0.206642
0.206639
0.206636
0.206632
0.206627
0.206622
0.206616
0.20661
0.206603
0.206595
0.206588
0.206578
0.206582
0.206512
0.201731
0.200636
0.201083
0.202146
0.20507
0.212961
0.229244
0.251249
0.275176
0.294862
0.302873
0.295059
0.275496
0.257853
0.258259
0.281253
0.318825
0.36421
0.415984
0.471765
0.527399
0.578315
0.620552
0.651908
0.672416
0.683885
0.688993
0.69042
0.690213
0.689454
0.688224
0.685778
0.68084
0.671954
0.657813
0.637553
0.610957
0.578568
0.541661
0.502077
0.461921
0.423218
0.387589
0.356065
0.329066
0.306508
0.287979
0.27291
0.260699
0.250797
0.242736
0.236141
0.230722
0.226255
0.222568
0.219526
0.217021
0.214963
0.213278
0.211903
0.210788
0.209886
0.209162
0.208583
0.208122
0.207759
0.207474
0.207252
0.20708
0.206948
0.206848
0.206772
0.206715
0.206673
0.206643
0.20662
0.206604
0.206592
0.206583
0.206577
0.206571
0.206567
0.206562
0.206558
0.206554
0.206549
0.206544
0.206538
0.206532
0.206526
0.206519
0.206512
0.206504
0.206497
0.206489
0.20648
0.206472
0.206461
0.206464
0.206393
0.204102
0.202829
0.201789
0.200948
0.200288
0.20046
0.201605
0.20379
0.206987
0.21115
0.216478
0.223798
0.234629
0.250401
0.271587
0.298424
0.33137
0.370231
0.413749
0.459837
0.505594
0.547535
0.582509
0.608667
0.625883
0.635498
0.639686
0.64075
0.640538
0.640111
0.639651
0.638567
0.635734
0.629773
0.619362
0.603514
0.581797
0.554478
0.522529
0.487509
0.451307
0.41582
0.382652
0.352905
0.327125
0.30537
0.287358
0.272622
0.260633
0.250887
0.242941
0.236435
0.231084
0.226667
0.223013
0.219988
0.217486
0.21542
0.213717
0.212318
0.211173
0.210238
0.209479
0.208864
0.208369
0.207971
0.207654
0.207401
0.2072
0.207042
0.206917
0.206819
0.206742
0.206682
0.206635
0.206598
0.206568
0.206545
0.206525
0.206509
0.206496
0.206484
0.206473
0.206463
0.206453
0.206444
0.206435
0.206426
0.206417
0.206408
0.206399
0.206389
0.20638
0.206371
0.206361
0.206352
0.206342
0.206331
0.206333
0.206261
0.212945
0.211789
0.210869
0.210374
0.210343
0.210849
0.212002
0.214009
0.217144
0.221759
0.228293
0.237255
0.249203
0.2647
0.284265
0.308293
0.336905
0.369799
0.406164
0.444472
0.482406
0.517214
0.546397
0.568406
0.583013
0.591209
0.594765
0.595651
0.595527
0.595403
0.595532
0.595471
0.594253
0.590626
0.583308
0.571244
0.553837
0.531107
0.503744
0.473026
0.440614
0.408262
0.377528
0.349563
0.325019
0.304086
0.286606
0.272211
0.260448
0.250858
0.243028
0.236611
0.231331
0.226968
0.223354
0.220356
0.217868
0.215805
0.214095
0.212682
0.211516
0.210557
0.20977
0.209126
0.208601
0.208174
0.207827
0.207546
0.207319
0.207136
0.206988
0.206868
0.206772
0.206694
0.20663
0.206578
0.206536
0.2065
0.20647
0.206444
0.206422
0.206403
0.206385
0.206369
0.206354
0.20634
0.206327
0.206315
0.206302
0.206291
0.206279
0.206268
0.206256
0.206245
0.206234
0.206224
0.206213
0.206201
0.206202
0.206129
0.21925
0.2183
0.217508
0.217046
0.217103
0.217859
0.219476
0.222108
0.225927
0.231158
0.238091
0.247081
0.258535
0.272881
0.290501
0.311624
0.336279
0.364242
0.394864
0.426913
0.458581
0.487722
0.512331
0.531087
0.543689
0.550861
0.554044
0.554929
0.554992
0.55518
0.555782
0.556478
0.556463
0.554635
0.549796
0.540885
0.527191
0.508531
0.485336
0.458618
0.429801
0.400481
0.372149
0.345975
0.322694
0.302614
0.285691
0.271656
0.260129
0.2507
0.242987
0.236661
0.231453
0.227148
0.22358
0.220616
0.218151
0.2161
0.214394
0.212976
0.2118
0.210826
0.21002
0.209355
0.208806
0.208355
0.207984
0.20768
0.20743
0.207225
0.207056
0.206918
0.206804
0.206709
0.20663
0.206565
0.20651
0.206463
0.206422
0.206388
0.206357
0.206331
0.206307
0.206285
0.206265
0.206247
0.206229
0.206213
0.206198
0.206183
0.206169
0.206156
0.206143
0.20613
0.206118
0.206106
0.206095
0.206081
0.206082
0.206008
0.223357
0.222624
0.222069
0.221875
0.22221
0.223207
0.225001
0.227742
0.231604
0.236794
0.243551
0.252143
0.262851
0.275949
0.291672
0.310167
0.331441
0.355283
0.381164
0.408134
0.434795
0.459456
0.480481
0.496716
0.507811
0.51428
0.5173
0.518323
0.518661
0.519182
0.520189
0.521453
0.522316
0.52183
0.51892
0.512563
0.50199
0.486863
0.467391
0.444335
0.418889
0.392476
0.366497
0.342115
0.320126
0.300934
0.2846
0.27095
0.259673
0.250413
0.242821
0.236586
0.231451
0.227206
0.223686
0.22076
0.218324
0.216294
0.2146
0.213188
0.212011
0.21103
0.210214
0.209535
0.208971
0.208503
0.208115
0.207792
0.207524
0.207301
0.207116
0.206962
0.206832
0.206724
0.206632
0.206555
0.206488
0.206432
0.206382
0.20634
0.206302
0.206269
0.206239
0.206212
0.206187
0.206165
0.206144
0.206125
0.206107
0.20609
0.206073
0.206058
0.206043
0.206029
0.206016
0.206003
0.20599
0.205976
0.205976
0.205901
0.225965
0.225398
0.225
0.224917
0.225309
0.226326
0.228117
0.230824
0.234593
0.239582
0.245967
0.253943
0.263711
0.275466
0.289366
0.305494
0.323822
0.344175
0.366146
0.389009
0.411679
0.432805
0.451026
0.465317
0.475287
0.481289
0.48429
0.485542
0.486209
0.48708
0.488452
0.490157
0.491655
0.49215
0.490698
0.486357
0.478346
0.466225
0.450019
0.430266
0.40794
0.384284
0.360589
0.337989
0.317314
0.299044
0.283333
0.270093
0.259086
0.250006
0.242539
0.236397
0.231334
0.227149
0.223678
0.220793
0.21839
0.216384
0.214709
0.213309
0.212139
0.21116
0.210341
0.209657
0.209085
0.208606
0.208206
0.207871
0.207591
0.207356
0.207158
0.206991
0.20685
0.20673
0.206629
0.206541
0.206466
0.206401
0.206345
0.206295
0.206252
0.206213
0.206178
0.206147
0.206119
0.206093
0.206069
0.206047
0.206026
0.206007
0.205989
0.205972
0.205956
0.205941
0.205926
0.205912
0.205899
0.205884
0.205883
0.205808
0.227563
0.227118
0.226837
0.226843
0.227275
0.228268
0.229957
0.232471
0.235943
0.240513
0.246327
0.253534
0.262277
0.272688
0.284862
0.298843
0.314603
0.332005
0.350749
0.370286
0.389769
0.408099
0.424118
0.436895
0.446014
0.451705
0.454764
0.456282
0.457294
0.458513
0.460219
0.462278
0.464244
0.465444
0.465073
0.462287
0.456337
0.446723
0.433335
0.416518
0.397041
0.375967
0.354468
0.333621
0.314271
0.296953
0.281898
0.269097
0.258379
0.249491
0.242156
0.236108
0.231118
0.226991
0.223569
0.220724
0.218354
0.216377
0.214724
0.213341
0.212182
0.211211
0.210396
0.209713
0.209139
0.208657
0.208251
0.207909
0.207621
0.207378
0.207172
0.206997
0.206848
0.206721
0.206612
0.206517
0.206436
0.206365
0.206303
0.206248
0.2062
0.206157
0.206119
0.206084
0.206053
0.206024
0.205998
0.205974
0.205952
0.205931
0.205911
0.205893
0.205876
0.20586
0.205844
0.205829
0.205816
0.2058
0.205799
0.205722
0.228484
0.228119
0.22791
0.227955
0.228371
0.229279
0.2308
0.233055
0.236165
0.240248
0.245423
0.251804
0.259496
0.268591
0.279151
0.291203
0.304727
0.319634
0.33571
0.352545
0.369469
0.385569
0.399835
0.411411
0.419862
0.425325
0.428466
0.43024
0.431576
0.43312
0.435124
0.437476
0.43979
0.4415
0.441919
0.440314
0.435991
0.428435
0.417439
0.403194
0.386284
0.367602
0.348187
0.32905
0.311023
0.294677
0.280306
0.267971
0.257564
0.248883
0.241687
0.235738
0.230821
0.226751
0.223375
0.220569
0.218233
0.216283
0.214654
0.21329
0.212146
0.211187
0.21038
0.209702
0.209131
0.20865
0.208244
0.2079
0.207609
0.207362
0.207152
0.206973
0.206819
0.206687
0.206574
0.206475
0.20639
0.206315
0.206249
0.206191
0.20614
0.206094
0.206053
0.206016
0.205983
0.205952
0.205924
0.205899
0.205875
0.205853
0.205833
0.205814
0.205796
0.205779
0.205763
0.205747
0.205733
0.205717
0.205715
0.205639
0.228962
0.228641
0.228469
0.228522
0.228898
0.229698
0.231031
0.233002
0.235718
0.239282
0.243793
0.249344
0.256015
0.263871
0.272958
0.283299
0.294892
0.307691
0.321558
0.336187
0.351037
0.365332
0.378173
0.388763
0.396658
0.401927
0.405132
0.40712
0.408731
0.410554
0.412814
0.415406
0.417986
0.420066
0.421062
0.420343
0.41729
0.411399
0.402409
0.390386
0.375762
0.359268
0.341812
0.324321
0.3076
0.292237
0.278574
0.26673
0.256655
0.248196
0.24115
0.235304
0.230461
0.226447
0.223116
0.220348
0.218043
0.21612
0.214513
0.213169
0.212042
0.211096
0.2103
0.209631
0.209066
0.20859
0.208186
0.207845
0.207554
0.207307
0.207096
0.206915
0.20676
0.206626
0.206511
0.20641
0.206322
0.206246
0.206178
0.206118
0.206065
0.206018
0.205975
0.205937
0.205902
0.205871
0.205842
0.205815
0.205791
0.205768
0.205747
0.205728
0.205709
0.205692
0.205675
0.20566
0.205645
0.205629
0.205627
0.20555
0.229164
0.228861
0.228697
0.228734
0.229049
0.229729
0.230866
0.232552
0.23488
0.23794
0.241815
0.24658
0.252299
0.259023
0.266791
0.275634
0.285571
0.296594
0.308624
0.321436
0.334583
0.347389
0.359041
0.368791
0.376193
0.381267
0.384494
0.386635
0.388457
0.390498
0.392963
0.395745
0.398529
0.400881
0.4023
0.402246
0.400175
0.39562
0.388291
0.37817
0.365557
0.351043
0.335406
0.319484
0.304039
0.289659
0.276719
0.265387
0.255664
0.247442
0.240557
0.234821
0.230055
0.226098
0.222811
0.220078
0.217802
0.215905
0.21432
0.212994
0.211883
0.210951
0.210168
0.209509
0.208952
0.208482
0.208084
0.207747
0.20746
0.207215
0.207005
0.206826
0.206671
0.206537
0.206422
0.206321
0.206233
0.206156
0.206087
0.206027
0.205973
0.205926
0.205882
0.205844
0.205809
0.205777
0.205747
0.20572
0.205696
0.205673
0.205651
0.205631
0.205613
0.205595
0.205579
0.205563
0.205548
0.205532
0.20553
0.205453
0.229205
0.228901
0.228725
0.228727
0.228971
0.229528
0.230475
0.231891
0.233857
0.236447
0.239734
0.24378
0.248639
0.254355
0.260967
0.268515
0.27704
0.286567
0.297064
0.308364
0.320091
0.331644
0.342278
0.351286
0.358227
0.363088
0.366285
0.36851
0.370471
0.372667
0.375279
0.378203
0.381139
0.383691
0.385422
0.385868
0.384557
0.381068
0.375106
0.366596
0.355738
0.342997
0.329032
0.314589
0.300376
0.286968
0.27476
0.263955
0.254602
0.246633
0.23992
0.234301
0.229617
0.225719
0.222476
0.219777
0.217529
0.215655
0.21409
0.212782
0.211687
0.210769
0.209997
0.209348
0.208801
0.208339
0.207948
0.207615
0.207333
0.207092
0.206886
0.206709
0.206556
0.206425
0.20631
0.20621
0.206123
0.206047
0.205979
0.205919
0.205866
0.205818
0.205775
0.205736
0.205701
0.205669
0.20564
0.205613
0.205589
0.205566
0.205544
0.205524
0.205506
0.205488
0.205471
0.205456
0.205441
0.205424
0.205423
0.205345
0.229159
0.228841
0.22864
0.228598
0.228765
0.2292
0.229969
0.231137
0.232773
0.234941
0.237702
0.241109
0.24521
0.250045
0.255657
0.262096
0.269422
0.277688
0.286898
0.296927
0.307453
0.317933
0.327675
0.33601
0.342508
0.347129
0.350245
0.352489
0.35452
0.356805
0.359509
0.362526
0.365567
0.368265
0.370227
0.37105
0.37033
0.367689
0.362848
0.355696
0.346356
0.335189
0.322748
0.309685
0.296649
0.284192
0.272714
0.262448
0.253479
0.245778
0.239247
0.233755
0.229158
0.225321
0.222123
0.219459
0.217238
0.215386
0.21384
0.212549
0.211468
0.210562
0.209802
0.209163
0.208625
0.208171
0.207787
0.207461
0.207184
0.206948
0.206746
0.206572
0.206423
0.206294
0.206182
0.206084
0.205999
0.205923
0.205857
0.205798
0.205746
0.205699
0.205657
0.205618
0.205584
0.205552
0.205523
0.205497
0.205472
0.20545
0.205428
0.205409
0.20539
0.205373
0.205356
0.20534
0.205326
0.205309
0.205307
0.20523
0.229069
0.22873
0.228496
0.228404
0.228493
0.228813
0.229418
0.230363
0.231705
0.2335
0.2358
0.23865
0.242092
0.246168
0.250923
0.256417
0.262728
0.26993
0.278052
0.287004
0.296502
0.30605
0.314999
0.322716
0.328781
0.33314
0.336127
0.338332
0.340373
0.342687
0.345431
0.348495
0.351599
0.354397
0.356528
0.357639
0.357378
0.355416
0.351492
0.34548
0.337447
0.327669
0.316603
0.304816
0.292894
0.281356
0.270601
0.260879
0.252305
0.244883
0.238547
0.233189
0.228685
0.224914
0.221763
0.219134
0.21694
0.21511
0.213582
0.212305
0.211238
0.210344
0.209595
0.208966
0.208436
0.20799
0.207613
0.207294
0.207023
0.206792
0.206594
0.206425
0.206279
0.206153
0.206044
0.205949
0.205865
0.205792
0.205727
0.20567
0.205619
0.205573
0.205532
0.205494
0.20546
0.20543
0.205401
0.205375
0.205351
0.205329
0.205308
0.205288
0.20527
0.205252
0.205236
0.20522
0.205206
0.205189
0.205188
0.20511
0.228958
0.228593
0.228324
0.228179
0.228193
0.228406
0.228862
0.229609
0.230694
0.232164
0.234063
0.236433
0.23931
0.242735
0.24676
0.251453
0.256903
0.263204
0.270404
0.278436
0.287048
0.295778
0.304017
0.311161
0.316803
0.320883
0.323707
0.325825
0.327823
0.330117
0.332852
0.335921
0.339052
0.34191
0.344162
0.345491
0.34559
0.344171
0.341
0.335944
0.329031
0.320471
0.310639
0.300022
0.289144
0.278488
0.26844
0.259261
0.251089
0.243956
0.237824
0.232608
0.228203
0.224502
0.221402
0.218809
0.216643
0.214834
0.213324
0.212062
0.211008
0.210125
0.209386
0.208766
0.208245
0.207806
0.207436
0.207123
0.206857
0.206631
0.206439
0.206274
0.206132
0.206009
0.205903
0.20581
0.20573
0.205658
0.205596
0.20554
0.20549
0.205446
0.205406
0.205369
0.205336
0.205306
0.205278
0.205253
0.205229
0.205207
0.205187
0.205167
0.205149
0.205132
0.205116
0.2051
0.205086
0.205069
0.205068
0.204991
0.228838
0.228446
0.228139
0.227943
0.227886
0.228
0.228324
0.228895
0.229756
0.230945
0.2325
0.234457
0.236851
0.239722
0.243126
0.247139
0.25186
0.257396
0.26381
0.271054
0.278896
0.286906
0.294505
0.301118
0.306354
0.310146
0.312779
0.314774
0.316688
0.318919
0.321607
0.324645
0.327767
0.330652
0.332986
0.334478
0.334859
0.333879
0.331326
0.327072
0.321118
0.313622
0.30489
0.295339
0.285432
0.275613
0.26625
0.257607
0.249839
0.243002
0.237082
0.232016
0.227717
0.22409
0.221043
0.218489
0.216352
0.214565
0.213073
0.211825
0.210783
0.209911
0.209181
0.20857
0.208057
0.207625
0.207262
0.206955
0.206695
0.206474
0.206286
0.206125
0.205987
0.205868
0.205765
0.205675
0.205597
0.205528
0.205467
0.205413
0.205365
0.205322
0.205283
0.205247
0.205215
0.205186
0.205159
0.205134
0.205111
0.205089
0.205069
0.20505
0.205032
0.205016
0.204999
0.204984
0.20497
0.204953
0.204952
0.204875
0.228714
0.228294
0.227951
0.227706
0.227582
0.227607
0.227812
0.22823
0.228895
0.229841
0.231101
0.232705
0.234687
0.237087
0.239963
0.243399
0.247502
0.252387
0.25813
0.264693
0.271866
0.279239
0.286263
0.292386
0.297233
0.300735
0.303161
0.305007
0.306806
0.308942
0.31155
0.314526
0.317611
0.320494
0.322875
0.324487
0.32509
0.324463
0.32242
0.318839
0.313705
0.307136
0.299382
0.290796
0.281785
0.272753
0.264048
0.25593
0.248565
0.242028
0.236326
0.231415
0.227227
0.22368
0.220689
0.218176
0.216069
0.214305
0.212831
0.211598
0.210568
0.209707
0.208986
0.208383
0.207877
0.207452
0.207095
0.206794
0.206539
0.206323
0.20614
0.205983
0.205849
0.205733
0.205633
0.205546
0.20547
0.205403
0.205345
0.205292
0.205246
0.205204
0.205166
0.205132
0.205101
0.205073
0.205046
0.205022
0.204999
0.204978
0.204959
0.20494
0.204922
0.204906
0.20489
0.204875
0.20486
0.204844
0.204843
0.204766
0.228589
0.228142
0.227764
0.227472
0.227286
0.227231
0.227331
0.227615
0.22811
0.228847
0.229852
0.231154
0.232785
0.234784
0.237212
0.240157
0.243733
0.248064
0.253231
0.259208
0.265796
0.272607
0.279113
0.284787
0.289266
0.292483
0.294695
0.296375
0.298037
0.300053
0.302555
0.305444
0.308468
0.311324
0.313725
0.315421
0.316195
0.315854
0.314232
0.311217
0.306785
0.301022
0.294132
0.286415
0.278227
0.269931
0.261851
0.254242
0.247274
0.241038
0.235558
0.230809
0.226736
0.223272
0.22034
0.21787
0.215795
0.214056
0.2126
0.211382
0.210364
0.209513
0.208802
0.208207
0.207708
0.20729
0.206939
0.206643
0.206394
0.206182
0.206003
0.20585
0.205719
0.205607
0.20551
0.205426
0.205352
0.205288
0.205231
0.20518
0.205135
0.205095
0.205059
0.205026
0.204995
0.204968
0.204942
0.204918
0.204896
0.204876
0.204856
0.204838
0.204821
0.204804
0.204789
0.204773
0.204759
0.204743
0.204742
0.204665
0.228465
0.227992
0.22758
0.227245
0.227003
0.226875
0.226882
0.227047
0.227395
0.227951
0.228738
0.229782
0.231112
0.232769
0.234815
0.237342
0.24047
0.244327
0.249
0.254469
0.260547
0.26686
0.272902
0.278165
0.282301
0.285244
0.287239
0.288744
0.290255
0.292134
0.294512
0.297294
0.300236
0.303044
0.305441
0.307192
0.308098
0.307987
0.306713
0.304175
0.300342
0.29528
0.289152
0.282215
0.274777
0.267164
0.259676
0.252556
0.245977
0.24004
0.234783
0.230199
0.226246
0.222867
0.219998
0.217573
0.215532
0.213817
0.212381
0.211178
0.210173
0.209332
0.208629
0.208042
0.20755
0.207139
0.206793