/*--------------------------------*- C++ -*----------------------------------*\
| =========                 |                                                 |
| \\      /  F ield         | OpenFOAM: The Open Source CFD Toolbox           |
|  \\    /   O peration     | Version:  2.1.1                                 |
|   \\  /    A nd           | Web:      www.OpenFOAM.org                      |
|    \\/     M anipulation  |                                                 |
\*---------------------------------------------------------------------------*/
FoamFile
{
    version     2.0;
    format      ascii;
    class       volScalarField;
    location    "0.02";
    object      nut;
}
// * * * * * * * * * * * * * * * * * * * * * * * * * * * * * * * * * * * * * //

dimensions      [0 2 -1 0 0 0 0];

internalField   nonuniform List<scalar> 
6820
(
4.96025e-05
5.47042e-05
5.94495e-05
6.37671e-05
6.76187e-05
7.09833e-05
7.38601e-05
7.62678e-05
7.82395e-05
7.98176e-05
8.10493e-05
8.19829e-05
8.26649e-05
8.31387e-05
8.34435e-05
8.36136e-05
8.36787e-05
8.3664e-05
8.35906e-05
8.34761e-05
8.33349e-05
8.31787e-05
8.30172e-05
8.28579e-05
8.27068e-05
8.25691e-05
8.24482e-05
8.23422e-05
8.22495e-05
8.21806e-05
8.2084e-05
8.22185e-05
8.13071e-05
0.000540282
0.00030508
0.000220152
0.000171809
0.000140816
0.000119984
0.000105481
9.51094e-05
8.75502e-05
8.19672e-05
7.78105e-05
7.47065e-05
7.23944e-05
7.06878e-05
6.94509e-05
6.85825e-05
6.80063e-05
6.76639e-05
6.75094e-05
6.75069e-05
6.76273e-05
6.78471e-05
6.81467e-05
6.85099e-05
6.89226e-05
6.93727e-05
6.98422e-05
7.03096e-05
7.07593e-05
7.11801e-05
7.15604e-05
7.194e-05
7.21518e-05
0.0010586
0.000836002
0.000679093
0.000569439
0.000489853
0.000429902
0.000383483
0.000346646
0.00031677
0.000292096
0.000271408
0.000253846
0.000238781
0.000225747
0.000214385
0.00020442
0.000195633
0.000187849
0.000180926
0.000174746
0.000169214
0.000164246
0.000159773
0.000155737
0.000152084
0.000148771
0.000145757
0.000142921
0.000140349
0.000138182
0.000136369
0.000134992
0.000133719
0.00115954
0.00109649
0.00101155
0.000926206
0.000849503
0.000783199
0.000726513
0.000678033
0.000636347
0.000600238
0.000568709
0.000540961
0.000516361
0.000494405
0.00047469
0.000456891
0.000440747
0.000426042
0.000412598
0.000400268
0.000388928
0.000378474
0.000368815
0.000359878
0.000351593
0.000343859
0.00033668
0.000330216
0.000324438
0.000319336
0.00031486
0.000311084
0.000307785
0.00116967
0.00115862
0.0011336
0.00109752
0.00105562
0.00101212
0.000969586
0.000929321
0.000891873
0.000857369
0.000825719
0.000796736
0.000770198
0.000745876
0.000723554
0.000703034
0.000684136
0.000666703
0.000650595
0.000635688
0.000621876
0.000609064
0.000597164
0.000586084
0.000575788
0.000566286
0.000557533
0.000549508
0.000542196
0.000535595
0.000529684
0.0005245
0.000519946
0.00117006
0.00116839
0.00116304
0.00115259
0.00113713
0.00111769
0.0010956
0.00107204
0.00104794
0.00102393
0.00100048
0.000977834
0.000956168
0.00093556
0.000916041
0.000897608
0.000880238
0.000863895
0.000848537
0.000834118
0.000820591
0.000807899
0.000796008
0.000784901
0.000774543
0.000764908
0.000755971
0.000747717
0.000740131
0.000733207
0.000726938
0.000721332
0.000716348
0.00116996
0.00116938
0.00116821
0.00116569
0.00116123
0.0011546
0.00114589
0.00113539
0.00112348
0.00111055
0.00109696
0.001083
0.00106892
0.00105491
0.0010411
0.00102761
0.0010145
0.00100185
0.000989675
0.000978009
0.00096686
0.00095625
0.000946183
0.00093666
0.00092768
0.000919241
0.000911343
0.000903985
0.000897168
0.000890894
0.000885165
0.000879985
0.000875341
0.00116994
0.0011694
0.00116883
0.00116802
0.00116674
0.00116473
0.00116183
0.00115797
0.00115316
0.00114748
0.00114105
0.00113399
0.00112645
0.00111855
0.00111042
0.00110216
0.00109384
0.00108556
0.00107737
0.00106933
0.00106148
0.00105386
0.0010465
0.00103943
0.00103267
0.00102623
0.00102014
0.00101441
0.00100906
0.00100409
0.000999519
0.000995361
0.000991617
0.00116994
0.00116939
0.00116886
0.00116832
0.00116771
0.00116693
0.0011659
0.00116453
0.00116276
0.00116055
0.0011579
0.00115482
0.00115136
0.00114755
0.00114344
0.0011391
0.00113456
0.0011299
0.00112514
0.00112035
0.00111555
0.0011108
0.00110611
0.00110153
0.00109708
0.00109279
0.00108868
0.00108477
0.00108109
0.00107765
0.00107447
0.00107158
0.00106899
0.00116994
0.00116938
0.00116885
0.00116833
0.00116782
0.0011673
0.00116673
0.00116608
0.00116532
0.0011644
0.00116331
0.00116202
0.00116054
0.00115886
0.00115699
0.00115495
0.00115275
0.00115042
0.00114798
0.00114545
0.00114287
0.00114026
0.00113763
0.00113502
0.00113245
0.00112993
0.0011275
0.00112518
0.00112297
0.00112092
0.00111902
0.00111732
0.00111581
0.00116994
0.00116938
0.00116884
0.00116832
0.00116782
0.00116733
0.00116685
0.00116637
0.00116587
0.00116534
0.00116476
0.00116413
0.00116342
0.00116264
0.00116178
0.00116083
0.00115981
0.00115871
0.00115755
0.00115632
0.00115506
0.00115375
0.00115243
0.0011511
0.00114979
0.00114849
0.00114724
0.00114604
0.00114492
0.00114389
0.00114296
0.00114216
0.00114151
0.00116994
0.00116938
0.00116884
0.00116832
0.00116782
0.00116733
0.00116686
0.0011664
0.00116595
0.00116551
0.00116508
0.00116463
0.00116418
0.00116371
0.00116322
0.00116271
0.00116218
0.00116162
0.00116105
0.00116045
0.00115983
0.00115921
0.00115858
0.00115796
0.00115734
0.00115675
0.0011562
0.00115568
0.00115522
0.00115484
0.00115453
0.00115432
0.00115423
0.00116994
0.00116938
0.00116884
0.00116832
0.00116781
0.00116732
0.00116685
0.0011664
0.00116596
0.00116553
0.00116512
0.00116472
0.00116434
0.00116396
0.00116358
0.00116322
0.00116286
0.0011625
0.00116215
0.0011618
0.00116146
0.00116113
0.00116082
0.00116052
0.00116025
0.00116
0.0011598
0.00115963
0.00115952
0.00115948
0.00115951
0.00115962
0.00115984
0.00116994
0.00116938
0.00116884
0.00116832
0.00116781
0.00116732
0.00116685
0.00116639
0.00116595
0.00116553
0.00116512
0.00116473
0.00116435
0.00116399
0.00116365
0.00116332
0.00116301
0.00116271
0.00116243
0.00116217
0.00116193
0.00116171
0.00116151
0.00116134
0.0011612
0.0011611
0.00116104
0.00116103
0.00116108
0.00116118
0.00116136
0.00116163
0.00116199
0.00116994
0.00116938
0.00116884
0.00116831
0.00116781
0.00116732
0.00116684
0.00116638
0.00116594
0.00116552
0.00116511
0.00116472
0.00116434
0.00116398
0.00116364
0.00116332
0.00116302
0.00116273
0.00116247
0.00116223
0.00116202
0.00116183
0.00116167
0.00116154
0.00116144
0.00116139
0.00116138
0.00116142
0.00116151
0.00116167
0.0011619
0.00116221
0.00116261
0.00116994
0.00116938
0.00116884
0.00116831
0.00116781
0.00116731
0.00116684
0.00116638
0.00116594
0.00116551
0.0011651
0.0011647
0.00116433
0.00116397
0.00116362
0.0011633
0.001163
0.00116271
0.00116245
0.00116221
0.001162
0.00116181
0.00116166
0.00116153
0.00116145
0.0011614
0.0011614
0.00116144
0.00116155
0.00116171
0.00116194
0.00116225
0.00116265
0.00116994
0.00116938
0.00116884
0.00116831
0.00116781
0.00116731
0.00116684
0.00116638
0.00116593
0.0011655
0.00116509
0.00116469
0.00116431
0.00116395
0.0011636
0.00116328
0.00116297
0.00116268
0.00116242
0.00116217
0.00116196
0.00116177
0.00116161
0.00116148
0.00116139
0.00116133
0.00116132
0.00116136
0.00116145
0.0011616
0.00116181
0.0011621
0.00116247
0.00116994
0.00116938
0.00116884
0.00116831
0.0011678
0.00116731
0.00116683
0.00116637
0.00116593
0.0011655
0.00116508
0.00116468
0.0011643
0.00116393
0.00116359
0.00116326
0.00116294
0.00116265
0.00116238
0.00116213
0.00116191
0.00116171
0.00116155
0.00116141
0.00116131
0.00116124
0.00116122
0.00116124
0.00116131
0.00116144
0.00116163
0.00116189
0.00116223
0.00116994
0.00116938
0.00116884
0.00116831
0.0011678
0.00116731
0.00116683
0.00116637
0.00116592
0.00116549
0.00116507
0.00116467
0.00116429
0.00116392
0.00116357
0.00116323
0.00116292
0.00116262
0.00116235
0.0011621
0.00116187
0.00116166
0.00116149
0.00116134
0.00116123
0.00116115
0.00116111
0.00116112
0.00116117
0.00116128
0.00116144
0.00116167
0.00116197
0.00116994
0.00116938
0.00116884
0.00116831
0.0011678
0.00116731
0.00116683
0.00116637
0.00116592
0.00116549
0.00116507
0.00116466
0.00116428
0.00116391
0.00116355
0.00116322
0.0011629
0.0011626
0.00116232
0.00116206
0.00116182
0.00116161
0.00116142
0.00116127
0.00116114
0.00116106
0.001161
0.00116099
0.00116103
0.00116111
0.00116125
0.00116145
0.00116171
0.00116994
0.00116938
0.00116884
0.00116831
0.0011678
0.00116731
0.00116683
0.00116636
0.00116592
0.00116548
0.00116506
0.00116466
0.00116427
0.00116389
0.00116354
0.0011632
0.00116287
0.00116257
0.00116228
0.00116202
0.00116178
0.00116156
0.00116137
0.0011612
0.00116107
0.00116096
0.0011609
0.00116087
0.00116089
0.00116095
0.00116106
0.00116123
0.00116146
0.00116994
0.00116938
0.00116884
0.00116831
0.0011678
0.00116731
0.00116683
0.00116636
0.00116591
0.00116548
0.00116506
0.00116465
0.00116426
0.00116388
0.00116352
0.00116318
0.00116285
0.00116254
0.00116225
0.00116198
0.00116174
0.00116151
0.00116131
0.00116113
0.00116099
0.00116087
0.00116079
0.00116075
0.00116075
0.00116079
0.00116088
0.00116102
0.00116121
0.00116994
0.00116938
0.00116884
0.00116831
0.0011678
0.00116731
0.00116683
0.00116636
0.00116591
0.00116547
0.00116505
0.00116464
0.00116425
0.00116387
0.00116351
0.00116316
0.00116283
0.00116252
0.00116223
0.00116195
0.0011617
0.00116146
0.00116125
0.00116107
0.00116092
0.00116079
0.0011607
0.00116064
0.00116062
0.00116064
0.0011607
0.00116081
0.00116098
0.00116994
0.00116938
0.00116884
0.00116831
0.0011678
0.00116731
0.00116683
0.00116636
0.00116591
0.00116547
0.00116505
0.00116464
0.00116424
0.00116386
0.0011635
0.00116315
0.00116281
0.0011625
0.0011622
0.00116192
0.00116166
0.00116142
0.0011612
0.00116101
0.00116085
0.00116071
0.0011606
0.00116053
0.00116049
0.00116049
0.00116053
0.00116062
0.00116075
0.00116994
0.00116938
0.00116884
0.00116831
0.0011678
0.00116731
0.00116683
0.00116636
0.00116591
0.00116547
0.00116504
0.00116463
0.00116424
0.00116385
0.00116349
0.00116313
0.0011628
0.00116248
0.00116217
0.00116189
0.00116162
0.00116138
0.00116115
0.00116095
0.00116078
0.00116063
0.00116051
0.00116042
0.00116037
0.00116035
0.00116037
0.00116044
0.00116054
0.00116994
0.00116938
0.00116884
0.00116831
0.0011678
0.00116731
0.00116683
0.00116636
0.0011659
0.00116546
0.00116504
0.00116463
0.00116423
0.00116384
0.00116348
0.00116312
0.00116278
0.00116246
0.00116215
0.00116186
0.00116159
0.00116134
0.00116111
0.0011609
0.00116072
0.00116056
0.00116043
0.00116033
0.00116026
0.00116022
0.00116023
0.00116027
0.00116035
0.00116994
0.00116938
0.00116884
0.00116831
0.0011678
0.00116731
0.00116682
0.00116636
0.0011659
0.00116546
0.00116504
0.00116462
0.00116422
0.00116384
0.00116347
0.00116311
0.00116277
0.00116244
0.00116213
0.00116184
0.00116156
0.0011613
0.00116107
0.00116085
0.00116066
0.00116049
0.00116035
0.00116024
0.00116016
0.0011601
0.00116009
0.00116011
0.00116017
0.00116994
0.00116938
0.00116884
0.00116831
0.0011678
0.00116731
0.00116682
0.00116636
0.0011659
0.00116546
0.00116503
0.00116462
0.00116422
0.00116383
0.00116346
0.0011631
0.00116275
0.00116242
0.00116211
0.00116181
0.00116153
0.00116127
0.00116103
0.00116081
0.00116061
0.00116043
0.00116028
0.00116016
0.00116006
0.00116
0.00115996
0.00115996
0.00116
0.00116994
0.00116938
0.00116884
0.00116831
0.0011678
0.00116731
0.00116682
0.00116636
0.0011659
0.00116546
0.00116503
0.00116462
0.00116421
0.00116382
0.00116345
0.00116309
0.00116274
0.00116241
0.00116209
0.00116179
0.00116151
0.00116124
0.00116099
0.00116077
0.00116056
0.00116038
0.00116022
0.00116008
0.00115998
0.0011599
0.00115985
0.00115983
0.00115985
0.00116994
0.00116938
0.00116884
0.00116831
0.0011678
0.00116731
0.00116682
0.00116636
0.0011659
0.00116546
0.00116503
0.00116461
0.00116421
0.00116382
0.00116344
0.00116308
0.00116273
0.0011624
0.00116208
0.00116177
0.00116149
0.00116122
0.00116096
0.00116073
0.00116052
0.00116033
0.00116016
0.00116002
0.0011599
0.00115981
0.00115975
0.00115972
0.00115972
0.00116994
0.00116938
0.00116884
0.00116831
0.0011678
0.00116731
0.00116683
0.00116636
0.0011659
0.00116546
0.00116503
0.00116461
0.00116421
0.00116382
0.00116344
0.00116308
0.00116273
0.00116239
0.00116207
0.00116176
0.00116147
0.0011612
0.00116094
0.0011607
0.00116049
0.00116029
0.00116012
0.00115996
0.00115984
0.00115974
0.00115966
0.00115962
0.0011596
0.00116994
0.00116938
0.00116884
0.00116831
0.00116781
0.00116731
0.00116683
0.00116636
0.00116591
0.00116546
0.00116504
0.00116462
0.00116421
0.00116382
0.00116344
0.00116308
0.00116273
0.00116239
0.00116206
0.00116175
0.00116146
0.00116118
0.00116092
0.00116068
0.00116045
0.00116025
0.00116007
0.0011599
0.00115976
0.00115965
0.00115956
0.0011595
0.00115946
0.00116994
0.00116938
0.00116884
0.00116832
0.00116781
0.00116732
0.00116684
0.00116637
0.00116592
0.00116548
0.00116505
0.00116463
0.00116422
0.00116383
0.00116345
0.00116308
0.00116272
0.00116238
0.00116204
0.00116172
0.00116142
0.00116112
0.00116085
0.00116058
0.00116034
0.00116011
0.0011599
0.0011597
0.00115953
0.00115937
0.00115924
0.00115913
0.00115904
0.00116994
0.00116938
0.00116884
0.00116833
0.00116783
0.00116734
0.00116686
0.0011664
0.00116594
0.00116549
0.00116506
0.00116463
0.00116421
0.00116379
0.00116338
0.00116298
0.00116258
0.00116219
0.0011618
0.00116142
0.00116104
0.00116067
0.0011603
0.00115995
0.00115959
0.00115925
0.00115892
0.00115859
0.00115828
0.00115797
0.00115768
0.0011574
0.00115714
0.00116994
0.0011694
0.00116887
0.00116836
0.00116785
0.00116736
0.00116686
0.00116636
0.00116585
0.00116534
0.00116481
0.00116426
0.0011637
0.00116311
0.00116251
0.00116188
0.00116124
0.00116057
0.00115988
0.00115917
0.00115844
0.00115769
0.00115692
0.00115615
0.00115536
0.00115456
0.00115376
0.00115295
0.00115214
0.00115132
0.00115052
0.00114971
0.00114892
0.00116995
0.0011694
0.00116886
0.00116829
0.00116768
0.00116698
0.0011662
0.0011653
0.00116429
0.00116316
0.00116191
0.00116053
0.00115905
0.00115745
0.00115575
0.00115396
0.00115208
0.00115013
0.00114811
0.00114604
0.00114393
0.00114178
0.0011396
0.00113741
0.00113521
0.00113302
0.00113083
0.00112866
0.00112652
0.0011244
0.00112233
0.0011203
0.00111832
0.00116996
0.00116917
0.00116789
0.00116605
0.00116362
0.0011606
0.00115701
0.0011529
0.0011483
0.0011433
0.00113794
0.00113229
0.00112642
0.00112039
0.00111424
0.00110802
0.00110178
0.00109555
0.00108936
0.00108325
0.00107724
0.00107133
0.00106557
0.00105995
0.00105448
0.00104919
0.00104406
0.00103912
0.00103435
0.00102977
0.00102536
0.00102113
0.00101707
0.00116831
0.00115869
0.00114528
0.00112898
0.00111053
0.00109062
0.0010699
0.00104887
0.00102791
0.00100729
0.000987193
0.000967735
0.000948989
0.000930989
0.000913748
0.000897258
0.0008815
0.000866447
0.000852065
0.000838318
0.000825169
0.000812577
0.000800505
0.000788912
0.000777762
0.000767016
0.000756639
0.000746598
0.000736861
0.000727396
0.000718177
0.000709176
0.000700377
0.00107567
0.000936095
0.000835359
0.000755935
0.000690406
0.000635936
0.000590325
0.000551734
0.000518719
0.000490171
0.000465239
0.000443272
0.00042376
0.000406308
0.0003906
0.000376383
0.000363453
0.000351644
0.000340817
0.000330859
0.000321672
0.000313177
0.000305305
0.000297997
0.000291205
0.000284884
0.000278998
0.000273514
0.000268404
0.000263643
0.000259208
0.000255081
0.00025124
0.000142979
0.000146644
0.000150175
0.000153552
0.000156774
0.000159846
0.000162774
0.000165563
0.000168217
0.000170742
0.000173142
0.000175422
0.000177586
0.000179639
0.000181585
0.000183428
0.000185172
0.000186821
0.000188379
0.00018985
0.000191237
0.000192543
0.000193772
0.000194927
0.000196011
0.000197026
0.000197975
0.000198862
0.000199687
0.000200455
0.000201166
0.000201823
0.00020243
9.16571e-05
0.000113304
0.000152918
0.000215636
0.000300308
0.000396701
0.000493549
0.000582399
0.000658224
0.000717372
0.0007532
0.000757406
0.000722878
0.000646488
0.000534245
0.000411528
0.00033922
0.000457489
0.00093206
0.00135658
0.00161338
0.0018322
0.00202263
0.00217591
0.00229294
0.00238094
0.00244782
0.00249924
0.00253794
0.00256434
0.00257727
0.00257472
0.00255446
0.00251488
0.00245558
0.00237782
0.00228448
0.0021798
0.00206881
0.00195671
0.00184813
0.00174657
0.00165415
0.00157183
0.0014999
0.00143824
0.00138638
0.00134349
0.00130836
0.00127966
0.00125619
0.00123695
0.00122117
0.00120826
0.00119773
0.00118916
0.00118223
0.00117663
0.00117214
0.00116854
0.00116569
0.00116344
0.00116167
0.0011603
0.00115925
0.00115845
0.00115785
0.00115741
0.00115709
0.00115688
0.00115673
0.00115665
0.0011566
0.00115659
0.0011566
0.00115663
0.00115666
0.0011567
0.00115675
0.0011568
0.00115684
0.00115689
0.00115693
0.00115697
0.001157
0.00115703
0.00115706
0.00115709
0.00115711
0.00115713
0.00115715
0.00115716
0.00115718
0.00115719
0.0011572
0.0011572
0.00115721
0.00115722
0.00115722
0.0011572
7.29301e-05
7.45338e-05
7.78224e-05
8.42515e-05
9.96455e-05
0.000128784
0.000171538
0.000224383
0.000279576
0.000326761
0.000356447
0.000362361
0.000343203
0.000305718
0.000272415
0.000298717
0.000503524
0.000880178
0.00116838
0.00139957
0.00162218
0.00182617
0.00199706
0.00213027
0.00222974
0.00230331
0.0023587
0.00240145
0.0024344
0.00245815
0.00247169
0.00247293
0.00245931
0.00242859
0.00237962
0.00231281
0.00223029
0.00213569
0.0020336
0.00192902
0.0018266
0.00173002
0.00164173
0.00156293
0.00149398
0.00143473
0.00138467
0.001343
0.00130864
0.00128041
0.00125722
0.00123814
0.00122246
0.00120958
0.00119903
0.00119042
0.00118341
0.00117774
0.00117316
0.00116948
0.00116654
0.0011642
0.00116236
0.00116091
0.00115979
0.00115892
0.00115827
0.00115777
0.00115741
0.00115715
0.00115696
0.00115684
0.00115676
0.00115672
0.0011567
0.00115671
0.00115672
0.00115674
0.00115677
0.0011568
0.00115684
0.00115687
0.0011569
0.00115693
0.00115696
0.00115698
0.001157
0.00115702
0.00115704
0.00115706
0.00115707
0.00115708
0.00115709
0.0011571
0.00115711
0.00115711
0.00115712
0.00115712
0.00115712
0.00115711
0.000133338
0.000133532
0.000132067
0.000133237
0.000134093
0.000131033
0.00012644
0.000127484
0.00013529
0.000148764
0.000166755
0.000190977
0.000232033
0.00031872
0.000485505
0.000692012
0.000869333
0.00104628
0.00124583
0.00145509
0.0016546
0.00183008
0.00197375
0.0020844
0.00216625
0.0022262
0.00227109
0.00230597
0.00233356
0.0023546
0.00236829
0.00237264
0.00236496
0.00234257
0.00230362
0.00224773
0.00217623
0.00209206
0.0019993
0.00190264
0.00180668
0.00171525
0.00163104
0.00155554
0.00148926
0.0014321
0.00138359
0.00134296
0.00130926
0.00128143
0.00125848
0.00123955
0.00122393
0.00121107
0.00120049
0.00119182
0.00118473
0.00117896
0.00117428
0.00117049
0.00116745
0.00116502
0.00116308
0.00116155
0.00116035
0.00115941
0.00115869
0.00115813
0.00115771
0.0011574
0.00115717
0.001157
0.00115689
0.00115681
0.00115677
0.00115674
0.00115673
0.00115674
0.00115675
0.00115676
0.00115678
0.0011568
0.00115682
0.00115684
0.00115685
0.00115687
0.00115689
0.0011569
0.00115691
0.00115692
0.00115693
0.00115694
0.00115695
0.00115695
0.00115696
0.00115696
0.00115696
0.00115697
0.00115697
0.00115695
0.000305205
0.000303234
0.000300862
0.000297974
0.000297149
0.000294107
0.000291237
0.000291424
0.000298035
0.000315051
0.000347012
0.000398607
0.000472951
0.000569715
0.000688006
0.000829012
0.00099034
0.00116485
0.0013445
0.00152111
0.00168556
0.00182916
0.00194631
0.0020362
0.00210227
0.00215029
0.0021861
0.00221416
0.00223696
0.00225533
0.00226869
0.0022753
0.00227253
0.00225746
0.00222774
0.00218226
0.00212156
0.00204784
0.00196461
0.00187619
0.001787
0.00170094
0.00162091
0.00154866
0.00148491
0.00142969
0.00138259
0.00134293
0.00130985
0.00128241
0.00125971
0.00124093
0.0012254
0.00121257
0.00120197
0.00119325
0.00118609
0.00118023
0.00117544
0.00117156
0.00116841
0.00116587
0.00116384
0.00116222
0.00116093
0.00115991
0.00115911
0.00115849
0.00115801
0.00115764
0.00115736
0.00115715
0.001157
0.00115689
0.00115681
0.00115675
0.00115672
0.0011567
0.00115669
0.00115668
0.00115668
0.00115669
0.0011567
0.0011567
0.00115671
0.00115672
0.00115673
0.00115674
0.00115674
0.00115675
0.00115675
0.00115676
0.00115676
0.00115676
0.00115676
0.00115677
0.00115677
0.00115677
0.00115676
0.00115674
0.000515671
0.000511719
0.000508254
0.000505255
0.000503384
0.000503215
0.000505887
0.000513148
0.000527233
0.000550794
0.00058662
0.000637181
0.000704246
0.000788684
0.000890369
0.0010081
0.00113941
0.00128042
0.00142577
0.00156872
0.00170167
0.00181767
0.00191223
0.00198462
0.00203753
0.00207573
0.00210414
0.00212663
0.00214542
0.00216136
0.00217408
0.00218215
0.0021832
0.00217429
0.00215273
0.00211682
0.00206638
0.00200288
0.00192919
0.00184916
0.00176697
0.0016865
0.00161078
0.00154181
0.00148055
0.00142718
0.00138142
0.00134269
0.00131023
0.0012832
0.00126076
0.00124215
0.00122673
0.00121395
0.00120337
0.00119462
0.0011874
0.00118146
0.00117659
0.00117261
0.00116936
0.00116673
0.0011646
0.00116289
0.00116151
0.00116041
0.00115954
0.00115884
0.0011583
0.00115787
0.00115754
0.00115729
0.00115709
0.00115694
0.00115683
0.00115674
0.00115668
0.00115663
0.0011566
0.00115658
0.00115656
0.00115655
0.00115654
0.00115654
0.00115654
0.00115654
0.00115654
0.00115654
0.00115654
0.00115654
0.00115654
0.00115653
0.00115653
0.00115653
0.00115653
0.00115653
0.00115653
0.00115653
0.00115652
0.0011565
0.00071137
0.000706526
0.000702451
0.000699381
0.000697957
0.0006991
0.000703942
0.000713795
0.000730141
0.000754607
0.000788865
0.00083445
0.000892531
0.000963713
0.00104784
0.00114385
0.00124984
0.00136304
0.00147961
0.0015944
0.00170142
0.00179502
0.00187142
0.00192983
0.00197235
0.00200289
0.00202561
0.00204382
0.00205948
0.00207338
0.00208534
0.00209426
0.00209809
0.0020941
0.00207946
0.00205206
0.00201108
0.00195729
0.00189292
0.00182128
0.00174622
0.0016715
0.00160024
0.00153464
0.00147587
0.00142434
0.0013799
0.0013421
0.00131026
0.00128365
0.00126151
0.0012431
0.00122781
0.00121511
0.00120457
0.00119582
0.00118858
0.00118259
0.00117766
0.0011736
0.00117027
0.00116755
0.00116533
0.00116353
0.00116207
0.00116089
0.00115995
0.00115919
0.00115858
0.00115809
0.00115771
0.0011574
0.00115716
0.00115697
0.00115683
0.00115671
0.00115662
0.00115655
0.00115649
0.00115645
0.00115641
0.00115639
0.00115637
0.00115635
0.00115634
0.00115633
0.00115632
0.00115631
0.0011563
0.0011563
0.00115629
0.00115629
0.00115628
0.00115628
0.00115627
0.00115627
0.00115626
0.00115626
0.00115626
0.00115623
0.000870603
0.000865951
0.000862217
0.000859811
0.000859302
0.000861397
0.000866969
0.000877041
0.00089274
0.000915229
0.000945633
0.000984917
0.00103376
0.00109247
0.00116085
0.00123817
0.00132316
0.00141388
0.00150747
0.0016
0.00168668
0.00176279
0.00182511
0.0018728
0.00190747
0.00193232
0.00195091
0.00196605
0.00197944
0.00199179
0.00200303
0.00201237
0.00201813
0.00201788
0.00200886
0.00198874
0.00195622
0.00191141
0.00185591
0.00179247
0.00172454
0.00165568
0.00158902
0.00152689
0.00147068
0.00142102
0.00137793
0.00134106
0.00130988
0.00128372
0.00126188
0.0012437
0.00122857
0.00121598
0.0012055
0.00119679
0.00118956
0.00118355
0.00117858
0.00117446
0.00117107
0.00116828
0.00116599
0.00116412
0.00116259
0.00116134
0.00116032
0.0011595
0.00115883
0.00115829
0.00115786
0.0011575
0.00115722
0.00115699
0.00115681
0.00115666
0.00115654
0.00115644
0.00115637
0.0011563
0.00115625
0.00115621
0.00115617
0.00115614
0.00115612
0.0011561
0.00115608
0.00115607
0.00115605
0.00115604
0.00115603
0.00115602
0.00115601
0.001156
0.001156
0.00115599
0.00115598
0.00115598
0.00115597
0.00115594
0.000987779
0.000984033
0.000981145
0.000979535
0.00097974
0.000982388
0.000988184
0.000997889
0.00101229
0.00103219
0.00105831
0.00109131
0.00113162
0.00117944
0.00123467
0.00129684
0.00136513
0.00143824
0.00151406
0.0015895
0.00166063
0.00172347
0.00177518
0.00181489
0.00184384
0.00186468
0.00188042
0.00189351
0.00190541
0.00191671
0.00192739
0.0019369
0.00194392
0.00194638
0.00194176
0.00192765
0.00190244
0.00186572
0.00181847
0.00176287
0.00170193
0.00163895
0.00157698
0.00151842
0.00146488
0.00141715
0.00137544
0.00133955
0.00130905
0.00128336
0.00126186
0.00124391
0.00122896
0.0012165
0.00120613
0.00119748
0.00119027
0.00118428
0.00117929
0.00117516
0.00117173
0.00116889
0.00116654
0.00116461
0.00116302
0.00116171
0.00116064
0.00115976
0.00115904
0.00115845
0.00115797
0.00115758
0.00115725
0.00115699
0.00115677
0.0011566
0.00115645
0.00115633
0.00115623
0.00115615
0.00115608
0.00115602
0.00115597
0.00115593
0.00115589
0.00115586
0.00115584
0.00115581
0.00115579
0.00115578
0.00115576
0.00115575
0.00115573
0.00115572
0.00115571
0.0011557
0.00115569
0.00115569
0.00115568
0.00115565
0.00106635
0.00106385
0.00106209
0.00106146
0.00106242
0.0010655
0.00107123
0.00108021
0.00109302
0.00111022
0.00113236
0.00115986
0.00119304
0.00123204
0.00127684
0.00132721
0.00138268
0.0014424
0.0015048
0.00156739
0.00162688
0.00167983
0.0017237
0.00175761
0.0017825
0.0018006
0.00181451
0.00182634
0.00183734
0.00184801
0.00185835
0.00186792
0.00187575
0.00188011
0.00187879
0.00186948
0.0018504
0.00182075
0.00178098
0.00173272
0.00167852
0.00162134
0.00156409
0.0015092
0.00145841
0.00141269
0.00137243
0.00133757
0.00130778
0.00128259
0.00126144
0.00124375
0.00122899
0.00121668
0.00120641
0.00119785
0.0011907
0.00118474
0.00117977
0.00117563
0.00117219
0.00116932
0.00116695
0.00116498
0.00116335
0.001162
0.00116088
0.00115996
0.00115919
0.00115856
0.00115804
0.00115761
0.00115726
0.00115696
0.00115671
0.00115651
0.00115634
0.0011562
0.00115608
0.00115598
0.00115589
0.00115582
0.00115576
0.00115571
0.00115566
0.00115562
0.00115559
0.00115556
0.00115553
0.00115551
0.00115549
0.00115547
0.00115546
0.00115544
0.00115543
0.00115542
0.00115541
0.0011554
0.00115539
0.00115536
0.00111434
0.00111307
0.00111242
0.00111269
0.00111429
0.00111764
0.00112319
0.00113139
0.0011427
0.00115753
0.00117629
0.00119928
0.00122675
0.00125885
0.00129564
0.00133705
0.00138289
0.0014326
0.001485
0.00153802
0.00158885
0.00163448
0.0016726
0.00170234
0.0017244
0.00174067
0.00175343
0.00176453
0.00177507
0.00178544
0.0017956
0.00180524
0.00181358
0.00181924
0.00182033
0.00181474
0.00180066
0.00177703
0.00174389
0.00170237
0.00165452
0.00160296
0.0015504
0.00149924
0.00145128
0.00140766
0.00136891
0.00133513
0.00130611
0.00128145
0.00126067
0.00124324
0.00122868
0.00121653
0.00120638
0.0011979
0.00119083
0.00118492
0.00117999
0.00117587
0.00117243
0.00116957
0.00116718
0.00116519
0.00116353
0.00116215
0.00116101
0.00116005
0.00115926
0.0011586
0.00115805
0.00115759
0.00115721
0.00115689
0.00115662
0.00115639
0.0011562
0.00115604
0.00115591
0.00115579
0.00115569
0.00115561
0.00115554
0.00115548
0.00115542
0.00115538
0.00115534
0.0011553
0.00115527
0.00115524
0.00115522
0.0011552
0.00115518
0.00115516
0.00115514
0.00115513
0.00115512
0.00115511
0.00115509
0.00115506
0.00114097
0.00114068
0.0011409
0.00114189
0.00114396
0.00114745
0.00115274
0.00116019
0.00117015
0.00118297
0.00119894
0.00121834
0.00124135
0.00126814
0.00129883
0.0013335
0.00137212
0.00141434
0.00145926
0.00150513
0.00154949
0.00158965
0.00162351
0.00165019
0.00167024
0.00168529
0.00169733
0.00170803
0.00171836
0.00172861
0.00173874
0.00174846
0.00175714
0.00176369
0.00176651
0.00176374
0.00175364
0.00173504
0.00170765
0.00167216
0.00163019
0.001584
0.00153603
0.0014886
0.00144353
0.00140208
0.00136492
0.00133228
0.00130407
0.00127997
0.00125958
0.00124244
0.00122808
0.00121608
0.00120606
0.00119768
0.00119068
0.00118484
0.00117995
0.00117587
0.00117245
0.0011696
0.00116722
0.00116523
0.00116356
0.00116217
0.00116101
0.00116004
0.00115923
0.00115855
0.00115798
0.0011575
0.0011571
0.00115676
0.00115648
0.00115624
0.00115603
0.00115586
0.00115571
0.00115558
0.00115548
0.00115538
0.0011553
0.00115523
0.00115517
0.00115512
0.00115507
0.00115503
0.001155
0.00115497
0.00115494
0.00115492
0.00115489
0.00115487
0.00115486
0.00115484
0.00115483
0.00115482
0.0011548
0.00115477
0.0011543
0.00115466
0.00115547
0.00115691
0.00115925
0.00116275
0.00116771
0.00117445
0.00118324
0.00119437
0.00120808
0.0012246
0.0012441
0.00126678
0.00129279
0.00132232
0.00135543
0.00139197
0.00143119
0.0014716
0.001511
0.00154697
0.00157757
0.00160193
0.00162049
0.00163465
0.00164621
0.00165667
0.0016669
0.00167713
0.00168729
0.0016971
0.00170603
0.00171319
0.00171724
0.00171657
0.0017096
0.00169512
0.00167261
0.00164244
0.00160584
0.00156467
0.00152113
0.00147738
0.00143523
0.00139601
0.00136051
0.00132907
0.00130171
0.00127821
0.00125824
0.00124139
0.00122725
0.0012154
0.0012055
0.00119722
0.00119031
0.00118453
0.00117969
0.00117565
0.00117227
0.00116944
0.00116708
0.0011651
0.00116344
0.00116205
0.00116089
0.00115991
0.00115909
0.0011584
0.00115782
0.00115734
0.00115692
0.00115658
0.00115628
0.00115603
0.00115582
0.00115563
0.00115548
0.00115534
0.00115523
0.00115513
0.00115504
0.00115497
0.0011549
0.00115485
0.0011548
0.00115475
0.00115471
0.00115468
0.00115465
0.00115462
0.0011546
0.00115458
0.00115456
0.00115454
0.00115453
0.00115452
0.0011545
0.00115447
0.00116025
0.00116098
0.0011621
0.00116376
0.00116618
0.00116956
0.00117415
0.00118021
0.00118797
0.00119766
0.00120951
0.00122369
0.0012404
0.00125981
0.00128215
0.00130764
0.00133646
0.00136854
0.00140329
0.00143939
0.00147487
0.0015075
0.00153548
0.00155799
0.00157534
0.00158878
0.00159995
0.00161021
0.00162034
0.00163057
0.00164076
0.00165065
0.00165977
0.00166735
0.00167228
0.00167319
0.00166864
0.00165748
0.00163908
0.00161353
0.00158172
0.0015452
0.00150586
0.00146569
0.00142646
0.00138951
0.00135572
0.00132553
0.00129907
0.00127622
0.0012567
0.00124016
0.00122623
0.00121455
0.00120477
0.00119659
0.00118975
0.00118403
0.00117925
0.00117525
0.00117191
0.00116911
0.00116677
0.00116481
0.00116317
0.00116179
0.00116063
0.00115966
0.00115885
0.00115816
0.00115758
0.00115709
0.00115667
0.00115632
0.00115602
0.00115576
0.00115555
0.00115536
0.0011552
0.00115506
0.00115494
0.00115484
0.00115475
0.00115467
0.00115461
0.00115455
0.0011545
0.00115445
0.00115441
0.00115438
0.00115434
0.00115432
0.00115429
0.00115427
0.00115425
0.00115423
0.00115422
0.0011542
0.00115419
0.00115415
0.00116255
0.00116343
0.00116466
0.00116638
0.00116873
0.0011719
0.00117609
0.0011815
0.00118835
0.00119681
0.00120708
0.00121934
0.00123375
0.00125051
0.00126987
0.0012921
0.00131746
0.00134594
0.00137707
0.00140965
0.00144189