/*--------------------------------*- C++ -*----------------------------------*\
| =========                 |                                                 |
| \\      /  F ield         | OpenFOAM: The Open Source CFD Toolbox           |
|  \\    /   O peration     | Version:  2.1.1                                 |
|   \\  /    A nd           | Web:      www.OpenFOAM.org                      |
|    \\/     M anipulation  |                                                 |
\*---------------------------------------------------------------------------*/
FoamFile
{
    version     2.0;
    format      ascii;
    class       volScalarField;
    location    "0.02";
    object      p;
}
// * * * * * * * * * * * * * * * * * * * * * * * * * * * * * * * * * * * * * //

dimensions      [0 2 -2 0 0 0 0];

internalField   nonuniform List<scalar> 
6820
(
-9.70691
-11.555
-12.1348
-12.2704
-12.3869
-12.478
-12.5467
-12.6096
-12.6709
-12.7312
-12.7913
-12.8521
-12.9139
-12.9771
-13.0418
-13.1085
-13.1773
-13.2486
-13.3226
-13.3997
-13.48
-13.5641
-13.6519
-13.744
-13.8403
-13.9411
-14.0466
-14.159
-14.2806
-14.412
-14.5505
-14.7017
-14.8386
-13.6588
-13.1258
-12.7089
-12.5259
-12.5104
-12.5333
-12.5676
-12.6119
-12.6628
-12.7173
-12.7744
-12.8337
-12.895
-12.9582
-13.0232
-13.0903
-13.1596
-13.2313
-13.3057
-13.3831
-13.4637
-13.5479
-13.6359
-13.7281
-13.8249
-13.927
-14.0355
-14.1513
-14.2734
-14.4056
-14.5437
-14.7153
-14.8854
-12.0159
-11.7138
-12.0052
-12.2564
-12.3722
-12.4595
-12.5325
-12.598
-12.6606
-12.7216
-12.7821
-12.8429
-12.9045
-12.9671
-13.0313
-13.0973
-13.1653
-13.2358
-13.309
-13.3853
-13.4648
-13.5479
-13.635
-13.7264
-13.8224
-13.9236
-14.0302
-14.143
-14.2627
-14.3916
-14.5261
-14.6765
-14.8076
-12.5221
-12.5584
-12.5621
-12.5096
-12.5104
-12.5423
-12.5824
-12.6274
-12.6766
-12.7288
-12.7832
-12.8397
-12.8982
-12.9587
-13.0213
-13.0862
-13.1534
-13.2233
-13.296
-13.3717
-13.4508
-13.5335
-13.6202
-13.711
-13.8065
-13.9073
-14.0136
-14.1267
-14.2458
-14.3727
-14.5039
-14.6469
-14.775
-12.3653
-12.2657
-12.3143
-12.389
-12.4515
-12.5098
-12.5644
-12.6178
-12.6719
-12.7269
-12.7829
-12.8403
-12.899
-12.9595
-13.0217
-13.0861
-13.1526
-13.2217
-13.2936
-13.3685
-13.4466
-13.5285
-13.6142
-13.7042
-13.7988
-13.8982
-14.0033
-14.1143
-14.231
-14.3546
-14.4825
-14.6181
-14.7459
-12.4196
-12.4052
-12.4347
-12.4648
-12.496
-12.5366
-12.5817
-12.6291
-12.6789
-12.7307
-12.7842
-12.8394
-12.8964
-12.9553
-13.0162
-13.0792
-13.1447
-13.2127
-13.2835
-13.3574
-13.4345
-13.5153
-13.5999
-13.6888
-13.7822
-13.8804
-13.984
-14.0933
-14.2082
-14.3293
-14.455
-14.5869
-14.7168
-12.4145
-12.3953
-12.4156
-12.4518
-12.4911
-12.5352
-12.5816
-12.6291
-12.6785
-12.7295
-12.7822
-12.8365
-12.8926
-12.9505
-13.0105
-13.0725
-13.137
-13.2039
-13.2737
-13.3464
-13.4224
-13.5019
-13.5852
-13.6726
-13.7644
-13.861
-13.9627
-14.0697
-14.1823
-14.3006
-14.4239
-14.5531
-14.6846
-12.4268
-12.4208
-12.4406
-12.4721
-12.5062
-12.5452
-12.5879
-12.6328
-12.68
-12.7292
-12.7802
-12.833
-12.8876
-12.9442
-13.0027
-13.0635
-13.1266
-13.1922
-13.2605
-13.3318
-13.4063
-13.4842
-13.5658
-13.6515
-13.7414
-13.8358
-13.9352
-14.0398
-14.1497
-14.2652
-14.3861
-14.513
-14.645
-12.4368
-12.4344
-12.4509
-12.4792
-12.5118
-12.5494
-12.5905
-12.6339
-12.6796
-12.7272
-12.7767
-12.8281
-12.8813
-12.9364
-12.9936
-13.0529
-13.1145
-13.1786
-13.2454
-13.315
-13.3878
-13.4638
-13.5435
-13.627
-13.7146
-13.8066
-13.9033
-14.005
-14.1118
-14.2241
-14.3419
-14.4661
-14.5967
-12.4469
-12.4478
-12.4634
-12.4894
-12.5199
-12.555
-12.5938
-12.6352
-12.6789
-12.7248
-12.7726
-12.8223
-12.8739
-12.9274
-12.983
-13.0407
-13.1006
-13.163
-13.2279
-13.2956
-13.3663
-13.4403
-13.5176
-13.5986
-13.6835
-13.7727
-13.8662
-13.9645
-14.0678
-14.1763
-14.2905
-14.411
-14.5386
-12.4565
-12.459
-12.4735
-12.4972
-12.5258
-12.5589
-12.5957
-12.6352
-12.6772
-12.7213
-12.7674
-12.8154
-12.8653
-12.9171
-12.9709
-13.0268
-13.0849
-13.1453
-13.2082
-13.2738
-13.3422
-13.4137
-13.4884
-13.5666
-13.6485
-13.7343
-13.8243
-13.9187
-14.0179
-14.1221
-14.2318
-14.3475
-14.4703
-12.4653
-12.4686
-12.4824
-12.5043
-12.5311
-12.5622
-12.597
-12.6346
-12.6747
-12.717
-12.7612
-12.8074
-12.8555
-12.9055
-12.9574
-13.0113
-13.0674
-13.1257
-13.1863
-13.2495
-13.3154
-13.3841
-13.4559
-13.5309
-13.6093
-13.6915
-13.7774
-13.8675
-13.962
-14.0612
-14.1655
-14.2754
-14.3918
-12.4731
-12.4768
-12.4898
-12.5101
-12.5352
-12.5644
-12.5973
-12.633
-12.6712
-12.7116
-12.754
-12.7983
-12.8445
-12.8925
-12.9424
-12.9942
-13.048
-13.104
-13.1621
-13.2227
-13.2857
-13.3515
-13.42
-13.4915
-13.5661
-13.6441
-13.7257
-13.811
-13.9002
-13.9937
-14.0918
-14.1949
-14.3036
-12.4797
-12.4836
-12.4959
-12.5147
-12.5382
-12.5657
-12.5967
-12.6305
-12.6668
-12.7052
-12.7457
-12.788
-12.8321
-12.878
-12.9257
-12.9753
-13.0267
-13.0801
-13.1356
-13.1933
-13.2533
-13.3157
-13.3807
-13.4484
-13.5189
-13.5924
-13.669
-13.749
-13.8325
-13.9197
-14.0108
-14.1062
-14.2062
-12.4852
-12.489
-12.5006
-12.5181
-12.54
-12.5658
-12.5949
-12.6269
-12.6612
-12.6977
-12.7362
-12.7764
-12.8184
-12.8621
-12.9075
-12.9546
-13.0035
-13.0542
-13.1068
-13.1614
-13.2181
-13.2769
-13.338
-13.4016
-13.4676
-13.5362
-13.6076
-13.6818
-13.759
-13.8393
-13.9228
-14.0098
-14.1004
-12.4894
-12.493
-12.5039
-12.5202
-12.5406
-12.5648
-12.5921
-12.6222
-12.6546
-12.689
-12.7254
-12.7635
-12.8032
-12.8446
-12.8876
-12.9321
-12.9782
-13.026
-13.0756
-13.1268
-13.1799
-13.235
-13.292
-13.3511
-13.4123
-13.4757
-13.5414
-13.6094
-13.6799
-13.7528
-13.8283
-13.9063
-13.987
-12.4922
-12.4957
-12.5059
-12.521
-12.54
-12.5625
-12.5881
-12.6163
-12.6467
-12.6791
-12.7133
-12.7492
-12.7866
-12.8255
-12.8659
-12.9077
-12.951
-12.9957
-13.0419
-13.0897
-13.139
-13.19
-13.2426
-13.2969
-13.353
-13.4109
-13.4706
-13.5321
-13.5955
-13.6607
-13.7277
-13.7965
-13.8668
-12.4937
-12.4969
-12.5064
-12.5205
-12.5381
-12.5591
-12.5829
-12.6092
-12.6376
-12.6679
-12.7
-12.7335
-12.7685
-12.8049
-12.8426
-12.8815
-12.9217
-12.9632
-13.0059
-13.05
-13.0953
-13.142
-13.19
-13.2394
-13.2901
-13.3421
-13.3956
-13.4503
-13.5063
-13.5635
-13.6218
-13.681
-13.741
-12.4938
-12.4968
-12.5056
-12.5186
-12.5349
-12.5543
-12.5764
-12.6008
-12.6273
-12.6555
-12.6852
-12.7164
-12.7489
-12.7826
-12.8175
-12.8534
-12.8905
-12.9285
-12.9676
-13.0078
-13.0489
-13.0911
-13.1343
-13.1784
-13.2236
-13.2696
-13.3165
-13.3642
-13.4127
-13.4617
-13.5111
-13.5608
-13.6104
-12.4925
-12.4953
-12.5034
-12.5154
-12.5304
-12.5483
-12.5687
-12.5912
-12.6156
-12.6417
-12.6692
-12.6979
-12.7278
-12.7588
-12.7907
-12.8235
-12.8572
-12.8918
-12.9271
-12.9632
-13
-13.0375
-13.0756
-13.1144
-13.1538
-13.1936
-13.2339
-13.2744
-13.3152
-13.3559
-13.3965
-13.4366
-13.476
-12.4898
-12.4924
-12.4998
-12.5108
-12.5245
-12.5409
-12.5596
-12.5803
-12.6027
-12.6266
-12.6517
-12.678
-12.7052
-12.7334
-12.7623
-12.7919
-12.8221
-12.853
-12.8844
-12.9163
-12.9486
-12.9813
-13.0143
-13.0476
-13.0811
-13.1146
-13.1481
-13.1814
-13.2144
-13.2469
-13.2787
-13.3095
-13.339
-12.4858
-12.4881
-12.4949
-12.5048
-12.5174
-12.5323
-12.5493
-12.5681
-12.5884
-12.6101
-12.6329
-12.6566
-12.6812
-12.7064
-12.7322
-12.7585
-12.7853
-12.8123
-12.8397
-12.8673
-12.895
-12.9228
-12.9506
-12.9782
-13.0057
-13.0329
-13.0596
-13.0857
-13.111
-13.1354
-13.1585
-13.1803
-13.2002
-12.4803
-12.4824
-12.4885
-12.4975
-12.5088
-12.5223
-12.5376
-12.5546
-12.5729
-12.5924
-12.6128
-12.634
-12.6557
-12.678
-12.7007
-12.7236
-12.7468
-12.77
-12.7932
-12.8164
-12.8395
-12.8623
-12.8847
-12.9067
-12.9282
-12.949
-12.9689
-12.9879
-13.0057
-13.0221
-13.0369
-13.0498
-13.0606
-12.4734
-12.4753
-12.4808
-12.4889
-12.499
-12.511
-12.5247
-12.5398
-12.5561
-12.5734
-12.5914
-12.6099
-12.629
-12.6482
-12.6677
-12.6872
-12.7067
-12.726
-12.7451
-12.7639
-12.7822
-12.8
-12.8171
-12.8335
-12.849
-12.8634
-12.8767
-12.8886
-12.899
-12.9077
-12.9145
-12.919
-12.9212
-12.4652
-12.4669
-12.4717
-12.4789
-12.4878
-12.4985
-12.5106
-12.5239
-12.5382
-12.5533
-12.5689
-12.5848
-12.6011
-12.6173
-12.6336
-12.6497
-12.6654
-12.6808
-12.6957
-12.71
-12.7236
-12.7364
-12.7482
-12.759
-12.7685
-12.7768
-12.7835
-12.7886
-12.7919
-12.7932
-12.7922
-12.7889
-12.7828
-12.4557
-12.4571
-12.4614
-12.4676
-12.4754
-12.4846
-12.4951
-12.5067
-12.5189
-12.5318
-12.545
-12.5584
-12.5718
-12.5851
-12.5981
-12.6108
-12.6229
-12.6343
-12.6451
-12.6549
-12.6638
-12.6716
-12.6782
-12.6835
-12.6873
-12.6895
-12.6899
-12.6884
-12.6849
-12.6791
-12.6708
-12.66
-12.6463
-12.4449
-12.4461
-12.4498
-12.4551
-12.4618
-12.4698
-12.4789
-12.4887
-12.4991
-12.5098
-12.5207
-12.5315
-12.5422
-12.5525
-12.5623
-12.5715
-12.5799
-12.5875
-12.5941
-12.5995
-12.6038
-12.6067
-12.6081
-12.608
-12.6062
-12.6025
-12.5968
-12.589
-12.5789
-12.5664
-12.5513
-12.5335
-12.5127
-12.4329
-12.4339
-12.4368
-12.4412
-12.4467
-12.4533
-12.4607
-12.4688
-12.4772
-12.4859
-12.4945
-12.5028
-12.5108
-12.5182
-12.5249
-12.5308
-12.5356
-12.5394
-12.5419
-12.5432
-12.5429
-12.5411
-12.5376
-12.5323
-12.5251
-12.5158
-12.5043
-12.4905
-12.4743
-12.4555
-12.434
-12.4098
-12.3825
-12.4198
-12.4207
-12.4232
-12.4269
-12.4316
-12.4372
-12.4434
-12.45
-12.4567
-12.4633
-12.4697
-12.4756
-12.4808
-12.4853
-12.4889
-12.4913
-12.4926
-12.4926
-12.4911
-12.4881
-12.4834
-12.477
-12.4686
-12.4583
-12.4458
-12.4311
-12.4141
-12.3946
-12.3726
-12.3479
-12.3205
-12.2902
-12.257
-12.4055
-12.4058
-12.4071
-12.4093
-12.4125
-12.4166
-12.4212
-12.4261
-12.4311
-12.4359
-12.4403
-12.444
-12.4469
-12.4489
-12.4496
-12.4491
-12.4471
-12.4437
-12.4385
-12.4316
-12.4228
-12.4121
-12.3992
-12.3842
-12.3669
-12.3473
-12.3252
-12.3005
-12.2732
-12.2431
-12.2103
-12.1746
-12.136
-12.3909
-12.392
-12.3938
-12.3964
-12.3995
-12.403
-12.4066
-12.4101
-12.4134
-12.4162
-12.4182
-12.4194
-12.4196
-12.4185
-12.4161
-12.4122
-12.4068
-12.3996
-12.3906
-12.3796
-12.3666
-12.3515
-12.3342
-12.3146
-12.2926
-12.2681
-12.241
-12.2114
-12.179
-12.144
-12.1061
-12.0654
-12.0218
-12.3735
-12.3713
-12.3692
-12.3687
-12.3697
-12.3719
-12.3745
-12.3773
-12.3798
-12.3817
-12.3827
-12.3827
-12.3813
-12.3785
-12.3741
-12.3679
-12.3599
-12.35
-12.3379
-12.3238
-12.3074
-12.2887
-12.2676
-12.244
-12.2179
-12.1893
-12.158
-12.124
-12.0873
-12.0478
-12.0056
-11.9606
-11.9127
-12.3628
-12.3673
-12.3696
-12.3709
-12.372
-12.3729
-12.3736
-12.3739
-12.3736
-12.3725
-12.3704
-12.367
-12.3622
-12.3559
-12.348
-12.3382
-12.3264
-12.3127
-12.2968
-12.2787
-12.2583
-12.2355
-12.2102
-12.1824
-12.1521
-12.1192
-12.0836
-12.0453
-12.0043
-11.9606
-11.9141
-11.865
-11.8131
-12.3289
-12.3177
-12.3088
-12.3069
-12.3088
-12.312
-12.3156
-12.3187
-12.3209
-12.3219
-12.3214
-12.3191
-12.3149
-12.3087
-12.3003
-12.2897
-12.2768
-12.2615
-12.2438
-12.2236
-12.2008
-12.1754
-12.1473
-12.1166
-12.0833
-12.0471
-12.0083
-11.9667
-11.9224
-11.8754
-11.8257
-11.7734
-11.7184
-12.3621
-12.3763
-12.3751
-12.3686
-12.3623
-12.3572
-12.3528
-12.3483
-12.3435
-12.3378
-12.3311
-12.323
-12.3134
-12.3021
-12.2889
-12.2737
-12.2563
-12.2367
-12.2148
-12.1904
-12.1636
-12.1342
-12.1022
-12.0676
-12.0303
-11.9904
-11.9478
-11.9025
-11.8546
-11.804
-11.7508
-11.695
-11.6367
-12.2397
-12.1923
-12.1826
-12.1982
-12.2135
-12.2265
-12.2376
-12.2464
-12.2527
-12.2562
-12.2569
-12.2548
-12.2498
-12.242
-12.2314
-12.2179
-12.2017
-12.1825
-12.1606
-12.1357
-12.108
-12.0775
-12.0441
-12.0078
-11.9688
-11.9269
-11.8823
-11.835
-11.7849
-11.7323
-11.6771
-11.6194
-11.5592
-12.4722
-12.5032
-12.4637
-12.4139
-12.3821
-12.365
-12.3513
-12.3388
-12.3273
-12.316
-12.3041
-12.2911
-12.2768
-12.2608
-12.2429
-12.2229
-12.2008
-12.1763
-12.1494
-12.12
-12.0881
-12.0535
-12.0162
-11.9763
-11.9337
-11.8884
-11.8405
-11.7899
-11.7367
-11.681
-11.6228
-11.5622
-11.4992
-11.979
-11.8591
-11.919
-12.0182
-12.0778
-12.1142
-12.144
-12.1668
-12.1827
-12.1927
-12.1977
-12.1983
-12.1946
-12.1871
-12.1758
-12.1611
-12.1429
-12.1214
-12.0967
-12.0688
-12.0377
-12.0037
-11.9666
-11.9265
-11.8836
-11.8378
-11.7893
-11.7382
-11.6845
-11.6282
-11.5696
-11.5087
-11.4455
-13.1867
-12.8455
-12.5783
-12.4511
-12.397
-12.3622
-12.3346
-12.3139
-12.2973
-12.2824
-12.2678
-12.2527
-12.2365
-12.2188
-12.1991
-12.1774
-12.1533
-12.1267
-12.0976
-12.0658
-12.0313
-11.994
-11.9539
-11.911
-11.8654
-11.817
-11.7658
-11.7121
-11.6557
-11.5968
-11.5354
-11.4717
-11.4056
-10.6802
-11.385
-11.7828
-11.9291
-12.0221
-12.0928
-12.1386
-12.1675
-12.1857
-12.1956
-12.1987
-12.1962
-12.1891
-12.1778
-12.1625
-12.1437
-12.1213
-12.0957
-12.0667
-12.0346
-11.9994
-11.9611
-11.9199
-11.8758
-11.8289
-11.7793
-11.7271
-11.6724
-11.6153
-11.5559
-11.4944
-11.4309
-11.3655
-14.9692
-14.0494
-13.9077
-14.6533
-16.0161
-17.6115
-19.3352
-21.0649
-22.7121
-24.2277
-25.5683
-26.6644
-27.4413
-27.8152
-27.7013
-27.0262
-25.7576
-23.9493
-21.6806
-19.1051
-16.4504
-13.8963
-11.5509
-9.48151
-7.69865
-6.17718
-4.88506
-3.79194
-2.87036
-2.09654
-1.45003
-0.913102
-0.470339
-0.108357
0.184435
0.418068
0.601255
0.741609
0.845829
0.919835
0.96888
0.997625
1.01018
1.01009
1.00034
0.983283
0.960809
0.934393
0.905227
0.874284
0.84235
0.810047
0.777855
0.746137
0.715159
0.685113
0.656128
0.628285
0.601626
0.576163
0.551885
0.528761
0.506749
0.485795
0.465841
0.446823
0.428675
0.41133
0.394724
0.37879
0.363468
0.348697
0.33442
0.320584
0.307137
0.294034
0.281229
0.268682
0.256355
0.244214
0.232226
0.220363
0.208597
0.196903
0.18526
0.173647
0.162046
0.150439
0.138811
0.127148
0.115436
0.103666
0.0918208
0.0799011
0.0678745
0.0557775
0.0435034
0.031242
0.0185635
0.0063331
-15.3701
-14.9847
-14.8101
-15.1835
-16.1697
-17.4547
-18.9269
-20.4719
-22.002
-23.4315
-24.6839
-25.6768
-26.333
-26.5774
-26.3489
-25.6237
-24.4076
-22.7179
-20.6383
-18.3186
-15.9139
-13.5589
-11.3724
-9.42133
-7.71981
-6.25234
-4.99512
-3.92347
-3.01396
-2.24563
-1.59998
-1.06068
-0.61329
-0.245132
0.0548908
0.296435
0.48792
0.636724
0.74935
0.831565
0.888497
0.924713
0.944249
0.950609
0.946741
0.935041
0.917422
0.895408
0.870237
0.842916
0.814262
0.784921
0.755401
0.726086
0.69727
0.669164
0.641917
0.615632
0.590368
0.566153
0.542991
0.520864
0.499743
0.479584
0.46034
0.441954
0.42437
0.407528
0.391369
0.375833
0.360865
0.346407
0.332409
0.31882
0.305591
0.292681
0.280046
0.26765
0.255457
0.243432
0.231547
0.219774
0.208087
0.196463
0.184881
0.173321
0.161765
0.150199
0.138606
0.126973
0.115289
0.103542
0.0917176
0.0798153
0.0678061
0.0557216
0.043464
0.0312069
0.0185539
0.00630251
-14.9833
-14.7097
-14.6317
-15.1864
-16.1576
-17.3373
-18.673
-20.0487
-21.3928
-22.6302
-23.698
-24.5286
-25.0547
-25.2172
-24.9708
-24.2839
-23.1465
-21.5875
-19.7023
-17.5962
-15.3922
-13.2219
-11.1892
-9.35349
-7.73294
-6.32063
-5.09988
-4.05125
-3.15517
-2.39342
-1.74949
-1.20847
-0.756954
-0.383008
-0.0760689
0.173133
0.37272
0.52983
0.650773
0.741157
0.805983
0.849713
0.876303
0.889201
0.891331
0.885102
0.872458
0.854968
0.833907
0.810318
0.785046
0.758766
0.732009
0.705185
0.67861
0.652519
0.627081
0.602418
0.578607
0.555694
0.533696
0.51261
0.492419
0.473091
0.454588
0.436864
0.41987
0.403552
0.387861
0.372741
0.358143
0.344013
0.330306
0.316975
0.303975
0.291267
0.278811
0.266572
0.254517
0.242615
0.230837
0.219158
0.207554
0.196002
0.184484
0.172979
0.161472
0.149948
0.138392
0.126791
0.115135
0.103413
0.0916099
0.0797263
0.0677345
0.0556636
0.0434229
0.0311715
0.0185456
0.00627136
-14.9644
-14.9991
-15.1435
-15.6147
-16.3489
-17.3332
-18.4418
-19.6168
-20.7727
-21.8429
-22.7662
-23.4774
-23.9144
-24.0221
-23.7508
-23.0686
-21.989
-20.5587
-18.8352
-16.9079
-14.8902
-12.8931
-11.0045
-9.27897
-7.73816
-6.38161
-5.19864
-4.17451
-3.29324
-2.53926
-1.89799
-1.356
-0.900947
-0.521672
-0.208178
0.0483933
0.255855
0.421102
0.550247
0.648737
0.721438
0.772703
0.806397
0.825908
0.834133
0.833482
0.825927
0.813073
0.796233
0.776482
0.754694
0.73157
0.707666
0.683419
0.659165
0.635163
0.611603
0.588626
0.566328
0.544769
0.523985
0.503985
0.484765
0.466304
0.448576
0.431543
0.415165
0.399396
0.384194
0.369509
0.355297
0.341511
0.328108
0.315046
0.302285
0.289788
0.277519
0.265445
0.253535
0.241761
0.230095
0.218515
0.206997
0.195521
0.184069
0.172622
0.161165
0.149685
0.138168
0.126601
0.114974
0.103277
0.0914975
0.0796335
0.0676599
0.0556033
0.0433804
0.031135
0.0185386
0.00623995
-14.9081
-14.9991
-15.1499
-15.5649
-16.2525
-17.1383
-18.1307
-19.1716
-20.1898
-21.1235
-21.915
-22.5068
-22.8446
-22.8817
-22.5838
-21.9313
-20.9276
-19.6055
-18.023
-16.2611
-14.4139
-12.5746
-10.8195
-9.19869
-7.73573
-6.43501
-5.2908
-4.29248
-3.42735
-2.68235
-2.04479
-1.50267
-1.04474
-0.660666
-0.341036
-0.0774289
0.137641
0.31082
0.448017
0.554512
0.635033
0.693816
0.734635
0.76081
0.775202
0.780219
0.777852
0.769738
0.757223
0.741411
0.723203
0.703327
0.682365
0.660776
0.638923
0.617083
0.59547
0.574244
0.553517
0.533368
0.513847
0.494978
0.47677
0.459214
0.442294
0.425982
0.410247
0.395053
0.380361
0.36613
0.352322
0.338894
0.32581
0.31303
0.300519
0.288243
0.276169
0.264266
0.252508
0.240867
0.229319
0.217842
0.206415
0.195018
0.183635
0.172248
0.160845
0.149411
0.137934
0.126403
0.114806
0.103136
0.0913801
0.0795366
0.0675821
0.0555405
0.0433364
0.0310973
0.0185328
0.00620851
-14.8783
-15.0391
-15.2665
-15.6862
-16.2986
-17.0558
-17.9019
-18.7871
-19.6528
-20.4427
-21.1046
-21.5871
-21.8418
-21.8277
-21.5135
-20.8825
-19.9407
-18.7193
-17.2685
-15.6562
-13.9624
-12.2666
-10.635
-9.11332
-7.7259
-6.48067
-5.37591
-4.40455
-3.55684
-2.82203
-2.18927
-1.64793
-1.18787
-0.799582
-0.474289
-0.204026
0.0183488
0.199218
0.344284
0.458652
0.546907
0.613165
0.661103
0.693969
0.714585
0.725346
0.728256
0.724977
0.716881
0.705102
0.690567
0.674029
0.656094
0.637246
0.61787
0.598267
0.578669
0.559256
0.54016
0.521476
0.503268
0.485577
0.468422
0.45181
0.435732
0.420173
0.405109
0.390513
0.376354
0.362598
0.349212
0.336159
0.323407
0.310922
0.298672
0.286627
0.274757
0.263034
0.251435
0.239934
0.228508
0.217139
0.205806
0.194492
0.183181
0.171858
0.16051
0.149124
0.137689
0.126195
0.114631
0.102989
0.0912575
0.0794355
0.0675011
0.0554751
0.0432908
0.0310584
0.018528
0.00617732
-14.8472
-15.0375
-15.2851
-15.6707
-16.2075
-16.8658
-17.6007
-18.3658
-19.11
-19.7829
-20.3366
-20.7256
-20.9075
-20.847
-20.519
-19.9111
-19.0296
-17.9006
-16.5677
-15.0896
-13.5342
-11.969
-10.4515
-9.02342
-7.70893
-6.51854
-5.45365
-4.51022
-3.68111
-2.9577
-2.33083
-1.79123
-1.32985
-0.938012
-0.607586
-0.331095
-0.101758
0.0865289
0.239247
0.361326
0.457202
0.530866
0.585894
0.62546
0.652337
0.668903
0.677166
0.678806
0.67522
0.667563
0.656789
0.643674
0.628849
0.612821
0.595998
0.578702
0.561188
0.543652
0.526246
0.50908
0.492237
0.475769
0.459711
0.44408
0.42888
0.414105
0.399742
0.385771
0.372168
0.358907
0.345961
0.3333
0.320896
0.308719
0.296741
0.284937
0.27328
0.261746
0.250312
0.238957
0.22766
0.216403
0.205169
0.193942
0.182706
0.17145
0.16016
0.148825
0.137434
0.125978
0.114447
0.102835
0.0911295
0.0793299
0.0674165
0.055407
0.0432434
0.0310183
0.018524
0.00614664
-14.8087
-15.0141
-15.2733
-15.6369
-16.1162
-16.6892
-17.3205
-17.9715
-18.5997
-19.1612
-19.6138
-19.9172
-20.0346
-19.9356
-19.5985
-19.0137
-18.1872
-17.1418
-15.9156
-14.5584
-13.1278
-11.6815
-10.2695
-8.92947
-7.68516
-6.54867
-5.52384
-4.60913
-3.79968
-3.08881
-2.46893
-1.93207
-1.47022
-1.07555
-0.740569
-0.458321
-0.222405
-0.0270105
0.133116
0.262716
0.366072
0.447048
0.509115
0.555368
0.588526
0.610942
0.624622
0.631255
0.632258
0.628806
0.621875
0.612264
0.600628
0.587498
0.573301
0.558383
0.543017
0.527421
0.511763
0.496172
0.480742
0.465545
0.450626
0.436015
0.421729
0.407771
0.394137
0.380817
0.367795
0.355051
0.342565
0.330312
0.31827
0.306415
0.294723
0.283171
0.271736
0.260399
0.249138
0.237936
0.226773
0.215634
0.204503
0.193366
0.18221
0.171023
0.159793
0.148511
0.137166
0.125751
0.114255
0.102674
0.0909956
0.0792195
0.0673282
0.055336
0.0431941
0.030977
0.0185202
0.00611672
-14.7593
-14.9682
-15.2252
-15.5608
-15.9837
-16.4787
-17.0184
-17.5704
-18.0981
-18.5631
-18.9282
-19.1578
-19.2199
-19.0884
-18.7453
-18.183
-17.4074
-16.4383
-15.3081
-14.0596
-12.7418
-11.4038
-10.0892
-8.83197
-7.65496
-6.57122
-5.58641
-4.70103
-3.91219
-3.21493
-2.60311
-2.06998
-1.60854
-1.21178
-0.872877
-0.585388
-0.343314
-0.141152
0.0261057
0.163009
0.27368
0.361851
0.430884
0.48379
0.523231
0.551526
0.570672
0.582361
0.588022
0.588849
0.585838
0.579809
0.571438
0.561278
0.549779
0.537306
0.524155
0.51056
0.496707
0.482743
0.468778
0.454897
0.44116
0.427609
0.414272
0.401164
0.388289
0.375647
0.363229
0.351024
0.339017
0.327191
0.315528
0.304008
0.292613
0.281324
0.270123
0.25899
0.247911
0.236868
0.225845
0.214829
0.203806
0.192764
0.181691
0.170576
0.15941
0.148183
0.136887
0.125513
0.114055
0.102505
0.0908556
0.0791042
0.0672359
0.0552619
0.0431426
0.0309343
0.0185161
0.00608778
-14.6973
-14.9024
-15.1495
-15.4566
-15.8293
-16.2561
-16.7151
-17.179
-17.6166
-17.9951
-18.2818
-18.446
-18.4598
-18.301
-17.9543
-17.4139
-16.6851
-15.785
-14.7414
-13.5908
-12.3749
-11.1356
-9.91095
-8.73147
-7.61882
-6.58649
-5.64144
-4.78582
-4.01838
-3.33569
-2.73295
-2.20453
-1.74439
-1.34632
-1.00415
-0.711973
-0.464196
-0.255642
-0.0815565
0.0624061
0.180202
0.275427
0.35133
0.410836
0.456542
0.490729
0.515374
0.532169
0.542549
0.547722
0.5487
0.546324
0.541289
0.534169
0.525435
0.515474
0.504599
0.493065
0.481074
0.46879
0.456339
0.44382
0.431307
0.418856
0.406504
0.394278
0.382192
0.370255
0.358467
0.346822
0.335315
0.323933
0.312664
0.301494
0.29041
0.279395
0.268437
0.257519
0.246628
0.235752
0.224875
0.213988
0.203078
0.192135
0.181149
0.17011
0.159009
0.14784
0.136594
0.125265
0.113845
0.102329
0.0907093
0.0789836
0.0671396
0.0551847
0.0430889
0.0308903
0.0185111
0.00606002
-14.6226
-14.8187
-15.0505
-15.328
-15.6539
-16.0193
-16.4063
-16.7922
-17.1504
-17.4527
-17.6708
-17.778
-17.7504
-17.5689
-17.2208
-16.7013
-16.0153
-15.1777
-14.2122
-13.1498
-12.026
-10.8767
-9.73513
-8.62854
-7.57726
-6.59484
-5.68911
-4.86348
-4.11809
-3.45084
-2.85811
-2.33534
-1.87738
-1.47878
-1.13404
-0.837753
-0.58476
-0.370217
-0.189636
-0.0388836
0.085824
0.187939
0.270597
0.336628
0.388563
0.428637
0.458801
0.480738
0.495886
0.505462
0.510491
0.511832
0.510198
0.506184
0.500281
0.492894
0.484356
0.474939
0.464865
0.454313
0.443424
0.432313
0.421066
0.409752
0.398421
0.38711
0.375844
0.364638
0.353504
0.342443
0.331454
0.320535
0.309677
0.298872
0.28811
0.277382
0.266677
0.255982
0.245289
0.234586
0.223863
0.21311
0.202318
0.191478
0.180582
0.169622
0.158591
0.147482
0.136289
0.125005
0.113626
0.102145
0.0905564
0.0788578
0.0670389
0.0551042
0.0430327
0.0308448
0.0185046
0.00603355
-14.5356
-14.7193
-14.9324
-15.1801
-15.4628
-15.7732
-16.0964
-16.4133
-16.7014
-16.9365
-17.0943
-17.1518
-17.0885
-16.8882
-16.54
-16.0405
-15.3937
-14.6126
-13.7175
-12.7346
-11.6942
-10.6271
-9.56216
-8.52381
-7.5309
-6.59674
-5.72969
-4.9341
-4.21125
-3.56018
-2.97832
-2.46209
-2.00716
-1.60882
-1.2622
-0.962407
-0.70471
-0.484609
-0.29789
-0.140641
-0.00925817
0.099563
0.188838
0.261302
0.31941
0.365347
0.401033
0.428135
0.448088
0.462114
0.471248
0.476363
0.478192
0.477345
0.474332
0.469578
0.463435
0.456191
0.448087
0.439315
0.430036
0.420376
0.410437
0.400298
0.390023
0.379659
0.369241
0.358795
0.348339
0.337883
0.327435
0.316995
0.306564
0.296139
0.285714
0.275284
0.264842
0.25438
0.243892
0.23337
0.222806
0.212193
0.201524
0.190792
0.17999
0.169113
0.158154
0.147108
0.13597
0.124735
0.113397
0.101953
0.0903969
0.0787264
0.0669339
0.0550204
0.0429739
0.0307979
0.0184961
0.00600844
-14.4372
-14.6061
-14.7985
-15.0166
-15.2594
-15.5201
-15.7866
-16.0425
-16.2688
-16.445
-16.5501
-16.5645
-16.4707
-16.2548
-15.908
-15.4273
-14.8165
-14.0865
-13.2547
-12.3436
-11.3787
-10.3867
-9.39247
-8.41791
-7.48038
-6.59272
-5.76354
-4.99787
-4.29789
-3.6636
-3.09338
-2.58449
-2.13341
-1.73611
-1.3883
-1.08562
-0.82375
-0.598543
-0.406066
-0.242636
-0.104837
0.0104853
0.106221
0.185003
0.24921
0.30097
0.342165
0.374441
0.399223
0.417734
0.431018
0.439958
0.445302
0.447677
0.447611
0.445546
0.441851
0.436833
0.430748
0.423806
0.416181
0.408015
0.399423
0.390497
0.381312
0.371927
0.362386
0.352726
0.342972
0.333144
0.323255
0.313314
0.303327
0.293295
0.283219
0.273099
0.262931
0.252712
0.242438
0.232104
0.221706
0.211238
0.200697
0.190077
0.179373
0.168582
0.157698
0.146718
0.135637
0.124452
0.113158
0.101753
0.0902306
0.0785896
0.0668245
0.0549332
0.0429124
0.0307496
0.0184852
0.00598471
-14.3283
-14.4809
-14.6517
-14.841
-15.0467
-15.2627
-15.4787
-15.6807
-15.8528
-15.9773
-16.0365
-16.0137
-15.8939
-15.6655
-15.3209
-14.858
-14.28
-13.5964
-12.8218
-11.9754
-11.0791
-10.1555
-9.22651
-8.3115
-7.42637
-6.58334
-5.79106
-5.05502
-4.37809
-3.76106
-3.20314
-2.70234
-2.25587
-1.86034
-1.51203
-1.20708
-0.941584
-0.711741
-0.513906
-0.344633
-0.200694
-0.0790966
0.0229221
0.10789
0.178104
0.235628
0.282302
0.319745
0.349367
0.372389
0.389857
0.402664
0.411569
0.417215
0.420146
0.420821
0.419624
0.416881
0.412863
0.407796
0.401869
0.395238
0.388031
0.380354
0.372292
0.363917
0.355282
0.346434
0.337406
0.328227
0.318917
0.309492
0.299964
0.290341
0.280628
0.270829
0.260945
0.250977
0.240925
0.230787
0.220561
0.210245
0.199836
0.189333
0.178732
0.16803
0.157224
0.146312
0.135291
0.124158
0.11291
0.101544
0.0900575
0.0784472
0.0667105
0.0548426
0.0428482
0.0306998
0.0184716
0.00596228
-14.2102
-14.3456
-14.4945
-14.6559
-14.8273
-15.003
-15.174
-15.3285
-15.4529
-15.5324
-15.5519
-15.497
-15.3552
-15.1168
-14.7754
-14.3292
-13.7813
-13.1396
-12.4167
-11.6288
-10.7946
-9.93357
-9.06471
-8.20519
-7.36952
-6.56919
-5.81271
-5.10585
-4.452
-3.85257
-3.30748
-2.81544
-2.37428
-1.98123
-1.6331
-1.32649
-1.05792
-0.823925
-0.621148
-0.446385
-0.296604
-0.168975
-0.060868
0.030135
0.106243
0.169456
0.221563
0.26415
0.298611
0.326156
0.347832
0.364538
0.377043
0.386002
0.391975
0.395434
0.396783
0.39636
0.394453
0.391303
0.387115
0.382057
0.376272
0.369877
0.362971
0.355635
0.347934
0.339922
0.331644
0.323135
0.314423
0.305532
0.296479
0.287278
0.27794
0.268474
0.258885
0.249177
0.239355
0.22942
0.219372
0.209213
0.198943
0.18856
0.178065
0.167456
0.156732
0.145891
0.134932
0.123853
0.112652
0.101328
0.0898777
0.0782994
0.0665922
0.0547487
0.0427813
0.0306486
0.0184552
0.00594106
-14.0838
-14.2017
-14.3289
-14.4638
-14.6035
-14.7427
-14.8737
-14.9864
-15.0692
-15.1094
-15.0945
-15.0122
-14.8521
-14.6058
-14.2682
-13.8379
-13.3175
-12.7138
-12.0376
-11.3027
-10.5249
-9.72095
-8.90747
-8.09959
-7.31047
-6.55085
-5.82896
-5.1507
-4.51979
-3.93819
-3.40638
-2.92366
-2.48846
-2.09855
-1.75124
-1.44357
-1.17247
-0.934814
-0.727525
-0.54764
-0.392331
-0.258931
-0.14495
-0.0480807
0.0337936
0.102601
0.160077
0.207771
0.247053
0.279122
0.305019
0.325646
0.34178
0.354088
0.36314
0.369424
0.373358
0.375296
0.375541
0.374348
0.371936
0.368488
0.364159
0.35908
0.35336
0.34709
0.340349
0.333198
0.325691
0.317873
0.309778
0.301437
0.292874
0.28411
0.275159
0.266036
0.256752
0.247314
0.237729
0.228004
0.218141
0.208145
0.198017
0.18776
0.177374
0.166861
0.156221
0.145454
0.134559
0.123536
0.112385
0.101103
0.0896913
0.0781462
0.0664696
0.0546515
0.0427116
0.0305959
0.018436
0.0059209
-13.9506
-14.0509
-14.1569
-14.2667
-14.3773
-14.4836
-14.579
-14.6548
-14.7012
-14.7075
-14.663
-14.5575
-14.3821
-14.1299
-13.7966
-13.3813
-12.8861
-12.317
-11.683
-10.996
-10.2694
-9.51765
-8.75512
-7.99523
-7.24984
-6.5289
-5.84031
-5.18991
-4.58171
-4.01803
-3.49982
-3.0269
-2.59823
-2.21206
-1.86618
-1.55805
-1.28496
-1.04413
-0.832768
-0.648143
-0.487632
-0.348738
-0.229112
-0.126564
-0.03907
0.0352204
0.0979864
0.150735
0.194808
0.231386
0.261504
0.286065
0.305849
0.321531
0.333693
0.342837
0.349391
0.353726
0.356158
0.356958
0.356357
0.354552
0.351711
0.347977
0.34347
0.338295
0.332537
0.32627
0.319556
0.312447
0.304987
0.297212
0.289154
0.280839
0.272288
0.263519
0.254548
0.245388
0.236049
0.22654
0.216868
0.20704
0.19706
0.186932
0.17666
0.166246
0.155693
0.145002
0.134173
0.123209
0.112108
0.100871
0.0894986
0.0779879
0.0663428
0.0545512
0.0426394
0.0305419
0.0184142
0.00590164
-13.8115
-13.8946
-13.9803
-14.0665
-14.1503
-14.227
-14.2908
-14.3343
-14.3489
-14.3259
-14.256
-14.1308
-13.9429
-13.6865
-13.3581
-12.9568
-12.4848
-11.9471
-11.3515
-10.7078
-10.0277
-9.32363
-8.60798
-7.89261
-7.1882
-6.50391
-5.84722
-5.22389
-4.63801
-4.09221
-3.58783
-3.12511
-2.70346
-2.32159
-1.9777
-1.66967
-1.39513
-1.15161
-0.936609
-0.747633
-0.582259
-0.438162
-0.313135
-0.205109
-0.112159
-0.0325131
0.0354465
0.0931806
0.141997
0.183058
0.217387
0.245882
0.269326
0.2884
0.303695
0.315723
0.324928
0.33169
0.336341
0.339164
0.340405
0.340272
0.338948
0.336586
0.33332
0.329263
0.324512
0.31915
0.313248
0.306867
0.300057
0.292864
0.285324
0.277471
0.26933
0.260926
0.252278
0.243404
0.234318
0.225032
0.215556
0.205901
0.196073
0.186079
0.175923
0.165612
0.155149
0.144535
0.133776
0.122871
0.111823
0.100632
0.0892998
0.0778247
0.0662121
0.0544479
0.0425646
0.0304867
0.01839
0.00588313
-13.6679
-13.7343
-13.8006
-13.8648
-13.9241
-13.9742
-14.01
-14.025
-14.0121
-13.9637
-13.8723
-13.7307
-13.5326
-13.2734
-12.9501
-12.5623
-12.1116
-11.6025
-11.0416
-10.4373
-9.79946
-9.13886
-8.46629
-7.79218
-7.12609
-6.47643
-5.85021
-5.25301
-4.68898
-4.16093
-3.67048
-3.21827
-2.80406
-2.42698
-2.08561
-1.77819
-1.50271
-1.25698
-1.03878
-0.845848
-0.675958
-0.526959
-0.39679
-0.283503
-0.185275
-0.100417
-0.0273756
0.035259
0.0887593
0.134262
0.172777
0.205195
0.232298
0.254772
0.273214
0.288146
0.300022
0.309236
0.316131
0.321004
0.324112
0.325679
0.325897
0.324932
0.32293
0.320013
0.316289
0.311851
0.306779
0.301142
0.294999
0.2884
0.281392
0.274011
0.266292
0.258261
0.249945
0.241364
0.232538
0.223481
0.214207
0.20473
0.195058
0.1852
0.175166
0.16496
0.154588
0.144056
0.133366
0.122523
0.111529
0.100385
0.0890954
0.0776569
0.0660777
0.054342
0.0424876
0.0304303
0.0183637
0.00586524
-13.5209
-13.5712
-13.6192
-13.6631
-13.7
-13.7263
-13.7372
-13.7273
-13.6905
-13.6205
-13.5108
-13.3554
-13.1493
-12.8885
-12.5708
-12.1956
-11.7646
-11.2816
-10.7521
-10.1835
-9.58414
-8.96327
-8.33027
-7.69432
-7.064