/*--------------------------------*- C++ -*----------------------------------*\
| =========                 |                                                 |
| \\      /  F ield         | OpenFOAM: The Open Source CFD Toolbox           |
|  \\    /   O peration     | Version:  2.1.1                                 |
|   \\  /    A nd           | Web:      www.OpenFOAM.org                      |
|    \\/     M anipulation  |                                                 |
\*---------------------------------------------------------------------------*/
FoamFile
{
    version     2.0;
    format      ascii;
    class       surfaceScalarField;
    location    "0.02";
    object      phi;
}
// * * * * * * * * * * * * * * * * * * * * * * * * * * * * * * * * * * * * * //

dimensions      [0 3 -1 0 0 0 0];

internalField   nonuniform List<scalar> 
13452
(
6.89941e-05
-5.06857e-07
6.8822e-05
1.72156e-07
6.82221e-05
5.99897e-07
6.72908e-05
9.31291e-07
6.62357e-05
1.05503e-06
6.51713e-05
1.06447e-06
6.41395e-05
1.03174e-06
6.31582e-05
9.81363e-07
6.22359e-05
9.22273e-07
6.13766e-05
8.59346e-07
6.05816e-05
7.94966e-07
5.9851e-05
7.30555e-07
5.9184e-05
6.67016e-07
5.8579e-05
6.0497e-07
5.80342e-05
5.44817e-07
5.75474e-05
4.86791e-07
5.71164e-05
4.30999e-07
5.6739e-05
3.77448e-07
5.64129e-05
3.26079e-07
5.61361e-05
2.76784e-07
5.59067e-05
2.29441e-07
5.57227e-05
1.83945e-07
5.55825e-05
1.40231e-07
5.5484e-05
9.84701e-08
5.54251e-05
5.89826e-08
5.54015e-05
2.36042e-08
5.54063e-05
-4.82144e-09
5.54349e-05
-2.86045e-08
5.5486e-05
-5.10934e-08
5.5561e-05
-7.50201e-08
5.56562e-05
-9.51723e-08
5.57901e-05
-1.33971e-07
-1.59468e-08
5.58061e-05
7.01653e-05
-2.28245e-07
7.00428e-05
2.94712e-07
7.01852e-05
4.57521e-07
7.05155e-05
6.00901e-07
7.08708e-05
6.99756e-07
7.11764e-05
7.58862e-07
7.141e-05
7.98186e-07
7.15734e-05
8.17944e-07
7.16749e-05
8.20776e-07
7.17236e-05
8.10614e-07
7.17282e-05
7.90383e-07
7.16964e-05
7.62393e-07
7.1635e-05
7.28418e-07
7.15501e-05
6.89891e-07
7.14469e-05
6.4795e-07
7.13302e-05
6.03493e-07
7.1204e-05
5.57229e-07
7.10717e-05
5.09704e-07
7.09365e-05
4.61335e-07
7.08008e-05
4.1244e-07
7.0667e-05
3.63259e-07
7.0537e-05
3.13993e-07
7.04124e-05
2.64819e-07
7.02949e-05
2.15911e-07
7.01864e-05
1.67509e-07
7.00902e-05
1.19816e-07
7.00127e-05
7.26994e-08
6.99586e-05
2.54968e-08
6.99289e-05
-2.1452e-08
6.99267e-05
-7.28013e-08
6.99563e-05
-1.24784e-07
7.00344e-05
-2.12027e-07
-2.7365e-07
7.02921e-05
7.22828e-05
-5.45257e-08
7.24014e-05
1.76173e-07
7.25114e-05
3.47446e-07
7.26064e-05
5.05882e-07
7.26996e-05
6.06618e-07
7.27935e-05
6.64962e-07
7.28935e-05
6.98176e-07
7.29963e-05
7.15169e-07
7.30979e-05
7.19106e-07
7.31961e-05
7.12499e-07
7.32892e-05
6.97253e-07
7.33767e-05
6.74898e-07
7.34584e-05
6.46656e-07
7.35347e-05
6.1359e-07
7.36061e-05
5.76587e-07
7.36732e-05
5.36379e-07
7.37369e-05
4.9356e-07
7.3798e-05
4.48605e-07
7.38574e-05
4.01888e-07
7.39162e-05
3.53701e-07
7.39752e-05
3.0427e-07
7.40354e-05
2.53793e-07
7.40978e-05
2.02417e-07
7.41634e-05
1.50251e-07
7.42334e-05
9.75066e-08
7.43089e-05
4.43738e-08
7.4391e-05
-9.46405e-09
7.44821e-05
-6.55893e-08
7.45844e-05
-1.23733e-07
7.46996e-05
-1.88034e-07
7.48296e-05
-2.54735e-07
7.49667e-05
-3.49103e-07
-4.15039e-07
7.51081e-05
7.452e-05
-4.78678e-08
7.4494e-05
2.02123e-07
7.44884e-05
3.53025e-07
7.45364e-05
4.57882e-07
7.4608e-05
5.35099e-07
7.46881e-05
5.84787e-07
7.47704e-05
6.15892e-07
7.48533e-05
6.32308e-07
7.49365e-05
6.3589e-07
7.50201e-05
6.28935e-07
7.51039e-05
6.13399e-07
7.5188e-05
5.90776e-07
7.52724e-05
5.62242e-07
7.53572e-05
5.28786e-07
7.54426e-05
4.91216e-07
7.55288e-05
4.50187e-07
7.56161e-05
4.06229e-07
7.5705e-05
3.59759e-07
7.57958e-05
3.11107e-07
7.58889e-05
2.60525e-07
7.5985e-05
2.08201e-07
7.60845e-05
1.5432e-07
7.61879e-05
9.89615e-08
7.62961e-05
4.21236e-08
7.64097e-05
-1.60772e-08
7.65295e-05
-7.55121e-08
7.6657e-05
-1.3691e-07
7.67925e-05
-2.01119e-07
7.69371e-05
-2.6832e-07
7.70906e-05
-3.41488e-07
7.72542e-05
-4.18424e-07
7.74183e-05
-5.13111e-07
-5.97044e-07
7.76003e-05
7.66045e-05
3.52849e-09
7.66333e-05
1.73245e-07
7.66772e-05
3.09124e-07
7.67247e-05
4.10394e-07
7.6775e-05
4.84819e-07
7.6829e-05
5.30792e-07
7.68881e-05
5.56763e-07
7.69521e-05
5.68363e-07
7.70199e-05
5.68092e-07
7.70908e-05
5.58006e-07
7.71644e-05
5.39785e-07
7.72405e-05
5.14714e-07
7.73189e-05
4.83829e-07
7.73997e-05
4.48007e-07
7.74829e-05
4.07967e-07
7.75688e-05
3.64295e-07
7.76576e-05
3.17463e-07
7.77495e-05
2.67844e-07
7.78449e-05
2.15728e-07
7.79441e-05
1.61327e-07
7.80475e-05
1.04786e-07
7.81555e-05
4.62864e-08
7.82686e-05
-1.41573e-08
7.83874e-05
-7.66132e-08
7.85123e-05
-1.40971e-07
7.86441e-05
-2.07387e-07
7.87836e-05
-2.76328e-07
7.8931e-05
-3.4854e-07
7.9087e-05
-4.24311e-07
7.9251e-05
-5.05522e-07
7.94232e-05
-5.9062e-07
7.95966e-05
-6.86522e-07
-7.76032e-07
7.97756e-05
7.88328e-05
1.66873e-08
7.88443e-05
1.61731e-07
7.88694e-05
2.84025e-07
7.89078e-05
3.71947e-07
7.89565e-05
4.3609e-07
7.90108e-05
4.76503e-07
7.90689e-05
4.98734e-07
7.913e-05
5.07188e-07
7.91941e-05
5.04034e-07
7.9261e-05
4.91137e-07
7.93306e-05
4.70118e-07
7.94031e-05
4.42233e-07
7.94785e-05
4.08482e-07
7.95568e-05
3.69691e-07
7.96382e-05
3.26533e-07
7.9723e-05
2.79552e-07
7.98112e-05
2.29181e-07
7.99033e-05
1.75756e-07
7.99995e-05
1.19537e-07
8.01001e-05
6.07106e-08
8.02056e-05
-6.54963e-10
8.03162e-05
-6.43116e-08
8.04324e-05
-1.304e-07
8.05547e-05
-1.98911e-07
8.06836e-05
-2.69883e-07
8.08197e-05
-3.43501e-07
8.09635e-05
-4.20137e-07
8.11154e-05
-5.00366e-07
8.12755e-05
-5.84435e-07
8.14434e-05
-6.73405e-07
8.16189e-05
-7.66182e-07
8.1798e-05
-8.65583e-07
-9.61784e-07
8.19838e-05
8.10863e-05
2.88995e-08
8.11005e-05
1.47594e-07
8.11312e-05
2.53348e-07
8.11716e-05
3.31455e-07
8.12189e-05
3.88854e-07
8.12702e-05
4.25143e-07
8.13251e-05
4.43886e-07
8.13833e-05
4.4896e-07
8.14447e-05
4.42615e-07
8.15092e-05
4.26655e-07
8.15767e-05
4.02616e-07
8.16473e-05
3.71691e-07
8.17209e-05
3.34826e-07
8.17978e-05
2.92797e-07
8.18781e-05
2.46234e-07
8.1962e-05
1.95643e-07
8.20498e-05
1.41421e-07
8.21417e-05
8.38785e-08
8.22379e-05
2.32441e-08
8.2339e-05
-4.03264e-08
8.24451e-05
-1.06742e-07
8.25567e-05
-1.75895e-07
8.26741e-05
-2.47846e-07
8.27978e-05
-3.22646e-07
8.29283e-05
-4.00383e-07
8.30661e-05
-4.81251e-07
8.32115e-05
-5.65557e-07
8.33649e-05
-6.53724e-07
8.35264e-05
-7.45948e-07
8.36957e-05
-8.42771e-07
8.3873e-05
-9.43396e-07
8.40561e-05
-1.04868e-06
-1.15304e-06
8.42473e-05
8.34117e-05
3.27474e-08
8.34258e-05
1.33436e-07
8.34538e-05
2.25375e-07
8.34912e-05
2.94043e-07
8.35363e-05
3.43775e-07
8.35867e-05
3.74783e-07
8.3641e-05
3.89531e-07
8.36988e-05
3.91165e-07
8.37597e-05
3.81709e-07
8.38236e-05
3.62772e-07
8.38905e-05
3.35758e-07
8.39604e-05
3.01791e-07
8.40334e-05
2.61769e-07
8.41098e-05
2.16429e-07
8.41897e-05
1.66365e-07
8.42733e-05
1.12053e-07
8.43608e-05
5.38627e-08
8.44526e-05
-7.92291e-09
8.4549e-05
-7.30984e-08
8.46502e-05
-1.41526e-07
8.47565e-05
-2.13127e-07
8.48685e-05
-2.87853e-07
8.49864e-05
-3.65747e-07
8.51106e-05
-4.46891e-07
8.52417e-05
-5.31397e-07
8.53799e-05
-6.19459e-07
8.55256e-05
-7.11331e-07
8.56792e-05
-8.07329e-07
8.58409e-05
-9.07606e-07
8.60106e-05
-1.01242e-06
8.61884e-05
-1.12125e-06
8.63739e-05
-1.23417e-06
-1.34817e-06
8.6569e-05
8.57978e-05
3.36491e-08
8.58119e-05
1.19313e-07
8.58394e-05
1.97972e-07
8.58761e-05
2.57334e-07
8.59202e-05
2.99684e-07
8.59696e-05
3.25379e-07
8.60231e-05
3.36022e-07
8.60802e-05
3.34078e-07
8.61405e-05
3.21358e-07
8.6204e-05
2.9932e-07
8.62705e-05
2.69242e-07
8.63401e-05
2.32169e-07
8.64129e-05
1.88942e-07
8.64891e-05
1.4025e-07
8.65688e-05
8.66486e-08
8.66523e-05
2.85797e-08
8.67398e-05
-3.36129e-08
8.68315e-05
-9.96703e-08
8.69278e-05
-1.69407e-07
8.7029e-05
-2.42704e-07
8.71354e-05
-3.195e-07
8.72473e-05
-3.99774e-07
8.73651e-05
-4.83575e-07
8.74892e-05
-5.70995e-07
8.762e-05
-6.62161e-07
8.77578e-05
-7.57259e-07
8.7903e-05
-8.56507e-07
8.80558e-05
-9.60155e-07
8.82165e-05
-1.06834e-06
8.83853e-05
-1.18121e-06
8.85625e-05
-1.29847e-06
8.87484e-05
-1.42007e-06
-1.5445e-06
8.89448e-05
8.82516e-05
3.20908e-08
8.82659e-05
1.05008e-07
8.82923e-05
1.71582e-07
8.83276e-05
2.2202e-07
8.83702e-05
2.57098e-07
8.84183e-05
2.77185e-07
8.8471e-05
2.83384e-07
8.85275e-05
2.77615e-07
8.85874e-05
2.61455e-07
8.86505e-05
2.36194e-07
8.87167e-05
2.02973e-07
8.87862e-05
1.62742e-07
8.88588e-05
1.16277e-07
8.89349e-05
6.42148e-08
8.90145e-05
7.06964e-09
8.90978e-05
-5.47495e-08
8.91851e-05
-1.20926e-07
8.92767e-05
-1.91224e-07
8.93727e-05
-2.65477e-07
8.94736e-05
-3.43583e-07
8.95796e-05
-4.25494e-07
8.9691e-05
-5.11211e-07
8.98082e-05
-6.00786e-07
8.99316e-05
-6.94318e-07
9.00613e-05
-7.91941e-07
9.01979e-05
-8.9383e-07
9.03416e-05
-1.00018e-06
9.04927e-05
-1.11122e-06
9.06514e-05
-1.22707e-06
9.08181e-05
-1.34789e-06
9.09932e-05
-1.47357e-06
9.11773e-05
-1.60417e-06
-1.73906e-06
9.13718e-05
9.07742e-05
2.91862e-08
9.07885e-05
9.0761e-08
9.08139e-05
1.4616e-07
9.0848e-05
1.8789e-07
9.08893e-05
2.15791e-07
9.09364e-05
2.30151e-07
9.0988e-05
2.31723e-07
9.10437e-05
2.21969e-07
9.11029e-05
2.02225e-07
9.11655e-05
1.73621e-07
9.12313e-05
1.37163e-07
9.13003e-05
9.37109e-08
9.13726e-05
4.39709e-08
9.14483e-05
-1.14749e-08
9.15275e-05
-7.21543e-08
9.16105e-05
-1.37693e-07
9.16973e-05
-2.07802e-07
9.17884e-05
-2.82267e-07
9.18839e-05
-3.60942e-07
9.1984e-05
-4.43738e-07
9.20891e-05
-5.30622e-07
9.21995e-05
-6.21603e-07
9.23155e-05
-7.16743e-07
9.24373e-05
-8.16141e-07
9.25653e-05
-9.19932e-07
9.26998e-05
-1.02828e-06
9.28409e-05
-1.14138e-06
9.29892e-05
-1.25942e-06
9.31447e-05
-1.38258e-06
9.33078e-05
-1.51101e-06
9.3479e-05
-1.64479e-06
9.36589e-05
-1.78411e-06
-1.92888e-06
9.38488e-05
9.33684e-05
2.54768e-08
9.33825e-05
7.66173e-08
9.3407e-05
1.2166e-07
9.34399e-05
1.54961e-07
9.34799e-05
1.75829e-07
9.35256e-05
1.84405e-07
9.35762e-05
1.81201e-07
9.36308e-05
1.67316e-07
9.36892e-05
1.43861e-07
9.3751e-05
1.11811e-07
9.38161e-05
7.20468e-08
9.38845e-05
2.53309e-08
9.39562e-05
-2.76996e-08
9.40312e-05
-8.65182e-08
9.41097e-05
-1.50696e-07
9.41919e-05
-2.19893e-07
9.4278e-05
-2.93848e-07
9.43681e-05
-3.72368e-07
9.44625e-05
-4.55323e-07
9.45614e-05
-5.42639e-07
9.4665e-05
-6.34291e-07
9.47737e-05
-7.30297e-07
9.48877e-05
-8.30721e-07
9.50072e-05
-9.35662e-07
9.51326e-05
-1.04525e-06
9.52639e-05
-1.15964e-06
9.54016e-05
-1.27903e-06
9.55457e-05
-1.40359e-06
9.56967e-05
-1.53352e-06
9.58547e-05
-1.66901e-06
9.60201e-05
-1.81027e-06
9.61936e-05
-1.95759e-06
-2.11113e-06
9.63759e-05
9.60362e-05
2.135e-08
9.60501e-05
6.26921e-08
9.60737e-05
9.80672e-08
9.61055e-05
1.23218e-07
9.61441e-05
1.37194e-07
9.61885e-05
1.39982e-07
9.62378e-05
1.31918e-07
9.62913e-05
1.13811e-07
9.63486e-05
8.65635e-08
9.64094e-05
5.10045e-08
9.64736e-05
7.89332e-09
9.6541e-05
-4.21003e-08
9.66117e-05
-9.84091e-08
9.66858e-05
-1.60561e-07
9.67632e-05
-2.2817e-07
9.68443e-05
-3.00931e-07
9.6929e-05
-3.78606e-07
9.70177e-05
-4.61025e-07
9.71104e-05
-5.48072e-07
9.72075e-05
-6.39684e-07
9.7309e-05
-7.35843e-07
9.74153e-05
-8.36571e-07
9.75265e-05
-9.41931e-07
9.76429e-05
-1.05202e-06
9.77646e-05
-1.16695e-06
9.78918e-05
-1.28689e-06
9.80248e-05
-1.41199e-06
9.81637e-05
-1.54246e-06
9.83086e-05
-1.67848e-06
9.84599e-05
-1.82029e-06
9.86178e-05
-1.96814e-06
9.87825e-05
-2.12238e-06
-2.28327e-06
9.89547e-05
9.878e-05
1.70401e-08
9.87937e-05
4.90656e-08
9.88164e-05
7.53589e-08
9.88469e-05
9.26507e-08
9.88842e-05
9.98982e-08
9.89273e-05
9.69487e-08
9.89752e-05
8.39933e-08
9.90274e-05
6.16158e-08
9.90834e-05
3.05323e-08
9.9143e-05
-8.56543e-09
9.92059e-05
-5.50308e-08
9.92721e-05
-1.08283e-07
9.93415e-05
-1.67824e-07
9.94142e-05
-2.33235e-07
9.94902e-05
-3.04171e-07
9.95696e-05
-3.80359e-07
9.96526e-05
-4.61588e-07
9.97393e-05
-5.47704e-07
9.98298e-05
-6.38606e-07
9.99244e-05
-7.34237e-07
0.000100023
-8.34583e-07
0.000100126
-9.39668e-07
0.000100234
-1.04955e-06
0.000100346
-1.16431e-06
0.000100463
-1.28406e-06
0.000100585
-1.40895e-06
0.000100712
-1.53912e-06
0.000100845
-1.67476e-06
0.000100982
-1.81606e-06
0.000101125
-1.96325e-06
0.000101274
-2.11659e-06
0.000101428
-2.27645e-06
-2.44306e-06
0.000101588
0.000101602
1.26956e-08
0.000101615
3.58113e-08
0.000101637
5.35303e-08
0.000101667
6.32627e-08
0.000101703
6.39629e-08
0.000101744
5.53629e-08
0.000101791
3.75352e-08
0.000101841
1.08837e-08
0.000101896
-2.40379e-08
0.000101954
-6.66642e-08
0.000102015
-1.16453e-07
0.00010208
-1.72909e-07
0.000102148
-2.35599e-07
0.000102219
-3.04156e-07
0.000102293
-3.78275e-07
0.00010237
-4.57715e-07
0.000102451
-5.42286e-07
0.000102535
-6.31852e-07
0.000102623
-7.2632e-07
0.000102714
-8.2564e-07
0.000102809
-9.29797e-07
0.000102908
-1.03881e-06
0.000103012
-1.15273e-06
0.000103119
-1.27162e-06
0.000103231
-1.39559e-06
0.000103346
-1.52476e-06
0.000103466
-1.65925e-06
0.000103591
-1.79923e-06
0.00010372
-1.94487e-06
0.000103853
-2.09638e-06
0.00010399
-2.25399e-06
0.000104132
-2.41803e-06
-2.58863e-06
0.000104277
0.000104505
8.4084e-09
0.000104518
2.29875e-08
0.000104538
3.25841e-08
0.000104567
3.50637e-08
0.000104601
2.9419e-08
0.000104641
1.52929e-08
0.000104686
-7.34221e-09
0.000104735
-3.82265e-08
0.000104788
-7.69466e-08
0.000104845
-1.23052e-07
0.000104904
-1.76096e-07
0.000104967
-2.35662e-07
0.000105033
-3.0138e-07
0.000105102
-3.7293e-07
0.000105173
-4.50049e-07
0.000105248
-5.32521e-07
0.000105326
-6.20178e-07
0.000105407
-7.12897e-07
0.000105491
-8.10593e-07
0.000105579
-9.13218e-07
0.00010567
-1.02075e-06
0.000105764
-1.13321e-06
0.000105862
-1.25062e-06
0.000105964
-1.37305e-06
0.000106069
-1.50057e-06
0.000106177
-1.63327e-06
0.000106289
-1.77126e-06
0.000106404
-1.91466e-06
0.000106523
-2.06361e-06
0.000106645
-2.21828e-06
0.00010677
-2.37885e-06
0.000106897
-2.54555e-06
-2.71843e-06
0.000107027
0.00010749
4.23607e-09
0.000107503
1.06427e-08
0.000107523
1.25332e-08
0.00010755
8.07387e-09
0.000107583
-3.69123e-09
0.000107621
-2.31852e-08
0.000107664
-5.05202e-08
0.000107712
-8.55528e-08
0.000107763
-1.2799e-07
0.000107817
-1.77482e-07
0.000107875
-2.33672e-07
0.000107935
-2.96215e-07
0.000107999
-3.64799e-07
0.000108065
-4.39152e-07
0.000108134
-5.19043e-07
0.000108206
-6.04284e-07
0.00010828
-6.94725e-07
0.000108358
-7.90254e-07
0.000108438
-8.90791e-07
0.000108521
-9.96286e-07
0.000108607
-1.10671e-06
0.000108696
-1.22207e-06
0.000108787
-1.34239e-06
0.000108882
-1.46768e-06
0.000108979
-1.59801e-06
0.00010908
-1.73344e-06
0.000109182
-1.87403e-06
0.000109288
-2.01988e-06
0.000109395
-2.17106e-06
0.000109504
-2.32768e-06
0.000109615
-2.48986e-06
0.000109728
-2.65773e-06
-2.83121e-06
0.00010984
0.000110561
2.15386e-10
0.000110573
-1.18307e-09
0.000110592
-6.60201e-09
0.000110618
-1.76777e-08
0.000110649
-3.53159e-08
0.000110686
-5.99867e-08
0.000110727
-9.1873e-08
0.000110773
-1.30927e-07
0.000110822
-1.76956e-07
0.000110874
-2.29703e-07
0.000110929
-2.88889e-07
0.000110987
-3.54234e-07
0.000111048
-4.25481e-07
0.000111111
-5.02401e-07
0.000111177
-5.84794e-07
0.000111245
-6.72497e-07
0.000111316
-7.65376e-07
0.000111389
-8.63325e-07
0.000111464
-9.66267e-07
0.000111542
-1.07415e-06
0.000111622
-1.18693e-06
0.000111705
-1.30461e-06
0.00011179
-1.42716e-06
0.000111877
-1.55461e-06
0.000111966
-1.68698e-06
0.000112056
-1.82428e-06
0.000112149
-1.96654e-06
0.000112243
-2.1138e-06
0.000112338
-2.2661e-06
0.000112434
-2.42345e-06
0.00011253
-2.5859e-06
0.000112625
-2.75347e-06
-2.92599e-06
0.00011272
0.000113719
-3.63269e-09
0.000113731
-1.24529e-08
0.000113749
-2.47933e-08
0.000113773
-4.21523e-08
0.000113803
-6.53931e-08
0.000113838
-9.50181e-08
0.000113878
-1.31269e-07
0.000113921
-1.74175e-07
0.000113968
-2.2363e-07
0.000114017
-2.79457e-07
0.00011407
-3.41444e-07
0.000114125
-4.09376e-07
0.000114183
-4.83041e-07
0.000114243
-5.6225e-07
0.000114305
-6.46833e-07
0.000114369
-7.36647e-07
0.000114435
-8.3157e-07
0.000114503
-9.31504e-07
0.000114573
-1.03637e-06
0.000114645
-1.14611e-06
0.000114719
-1.26067e-06
0.000114794
-1.38002e-06
0.000114871
-1.50413e-06
0.00011495
-1.63298e-06
0.000115029
-1.76656e-06
0.00011511
-1.90484e-06
0.000115191
-2.04781e-06
0.000115273
-2.19545e-06
0.000115354
-2.34773e-06
0.000115436
-2.50461e-06
0.000115516
-2.66603e-06
0.000115594
-2.83194e-06
-3.00204e-06
0.00011567
0.000116968
-7.28768e-09
0.000116979
-2.31369e-08
0.000116996
-4.20083e-08
0.000117019
-6.53044e-08
0.000117048
-9.38534e-08
0.000117081
-1.28179e-07
0.000117118
-1.68569e-07
0.000117159
-2.15118e-07
0.000117203
-2.67791e-07
0.00011725
-3.26479e-07
0.0001173
-3.91034e-07
0.000117352
-4.61291e-07
0.000117406
-5.37087e-07
0.000117462
-6.18264e-07
0.00011752
-7.04681e-07
0.000117579
-7.96211e-07
0.00011764
-8.92744e-07
0.000117703
-9.94184e-07
0.000117767
-1.10045e-06
0.000117832
-1.21147e-06
0.000117899
-1.32719e-06
0.000117966
-1.44754e-06
0.000118035
-1.57247e-06
0.000118104
-1.70194e-06
0.000118173
-1.83588e-06
0.000118242
-1.97424e-06
0.000118312
-2.11695e-06
0.00011838
-2.26393e-06
0.000118447
-2.4151e-06
0.000118513
-2.57033e-06
0.000118577
-2.7295e-06
0.000118637
-2.89247e-06
-3.05885e-06
0.000118694
0.000120309
-1.07364e-08
0.00012032
-3.32051e-08
0.000120336
-5.82092e-08
0.000120358
-8.70813e-08
0.000120384
-1.2062e-07
0.000120415
-1.59362e-07
0.000120451
-2.03631e-07
0.000120489
-2.53574e-07
0.00012053
-3.09215e-07
0.000120574
-3.70504e-07
0.000120621
-4.37349e-07
0.000120669
-5.09631e-07
0.000120719
-5.87225e-07
0.000120771
-6.70008e-07
0.000120824
-7.57859e-07
0.000120879
-8.50669e-07
0.000120934
-9.48336e-07
0.000120991
-1.05076e-06
0.000121048
-1.15787e-06
0.000121106
-1.26957e-06
0.000121165
-1.38578e-06
0.000121224
-1.50643e-06
0.000121283
-1.63143e-06
0.000121341
-1.7607e-06
0.0001214
-1.89415e-06
0.000121457
-2.03167e-06
0.000121513
-2.17316e-06
0.000121568
-2.31847e-06
0.00012162
-2.46746e-06
0.00012167
-2.61994e-06
0.000121716
-2.77573e-06
0.000121758
-2.93459e-06
-3.09609e-06
0.000121795
0.000123746
-1.39674e-08
0.000123756
-4.26276e-08
0.000123771
-7.33542e-08
0.000123791
-1.07425e-07
0.000123816
-1.45612e-07
0.000123845
-1.88456e-07
0.000123878
-2.3631e-07
0.000123914
-2.89359e-07
0.000123952
-3.47679e-07
0.000123993
-4.11268e-07
0.000124036
-4.80082e-07
0.00012408
-5.54044e-07
0.000124126
-6.33065e-07
0.000124173
-7.17049e-07
0.000124221
-8.05896e-07
0.00012427
-8.9951e-07
0.000124319
-9.97795e-07
0.000124369
-1.10066e-06
0.000124419
-1.208e-06
0.00012447
-1.31974e-06
0.00012452
-1.43576e-06
0.000124569
-1.55598e-06
0.000124618
-1.68028e-06
0.000124666
-1.80854e-06
0.000124712
-1.94063e-06
0.000124757
-2.07642e-06
0.0001248
-2.21574e-06
0.00012484
-2.3584e-06
0.000124876
-2.5042e-06
0.000124909
-2.65292e-06
0.000124938
-2.80428e-06
0.000124961
-2.95802e-06
-3.11363e-06
0.000124979
0.000127282
-1.69699e-08
0.00012729
-5.13749e-08
0.000127304
-8.73993e-08
0.000127323
-1.26274e-07
0.000127346
-1.68745e-07
0.000127373
-2.15351e-07
0.000127403
-2.66461e-07
0.000127436
-3.22294e-07
0.000127472
-3.82963e-07
0.000127509
-4.48511e-07
0.000127548
-5.18932e-07
0.000127588
-5.94189e-07
0.000127629
-6.74224e-07
0.000127671
-7.58964e-07
0.000127713
-8.4833e-07
0.000127756
-9.42235e-07
0.000127799
-1.04059e-06
0.000127841
-1.1433e-06
0.000127884
-1.25026e-06
0.000127925
-1.36136e-06
0.000127966
-1.4765e-06
0.000128006
-1.59554e-06
0.000128044
-1.71835e-06
0.00012808
-1.84479e-06
0.000128114
-1.97469e-06
0.000128145
-2.10785e-06
0.000128174
-2.2441e-06
0.000128199
-2.38319e-06
0.000128219
-2.52488e-06
0.000128235
-2.66888e-06
0.000128246
-2.8149e-06
0.00012825
-2.9626e-06
-3.11147e-06
0.000128248
0.000130918
-1.9733e-08
0.000130926
-5.94153e-08
0.000130939
-1.00296e-07
0.000130956
-1.43561e-07
0.000130977
-1.89931e-07
0.000131002
-2.39931e-07
0.000131029
-2.9394e-07
0.000131059
-3.522e-07
0.000131091
-4.14854e-07
0.000131124
-4.81981e-07
0.000131159
-5.53611e-07
0.000131195
-6.2974e-07
0.000131231
-7.10336e-07
0.000131267
-7.95351e-07
0.000131303
-8.84721e-07
0.00013134
-9.7837e-07
0.000131375
-1.07621e-06
0.00013141
-1.17815e-06
0.000131444
-1.28407e-06
0.000131476
-1.39387e-06
0.000131507
-1.5074e-06
0.000131536
-1.62452e-06
0.000131563
-1.74507e-06
0.000131587
-1.86888e-06
0.000131608
-1.99575e-06
0.000131626
-2.12545e-06
0.000131639
-2.25777e-06
0.000131649
-2.39242e-06
0.000131653
-2.52914e-06
0.000131652
-2.6676e-06
0.000131644
-2.80745e-06
0.00013163
-2.94835e-06
-3.08977e-06
0.000131608
0.000134658
-2.22463e-08
0.000134665
-6.67188e-08
0.000134677
-1.11998e-07
0.000134692
-1.59229e-07
0.000134711
-2.09093e-07
0.000134734
-2.62099e-07
0.000134758
-3.18621e-07
0.000134785
-3.78916e-07
0.000134813
-4.43153e-07
0.000134843
-5.11442e-07
0.000134873
-5.83842e-07
0.000134904
-6.60379e-07
0.000134934
-7.41048e-07
0.000134965
-8.2582e-07
0.000134995
-9.14647e-07
0.000135024
-1.00746e-06
0.000135052
-1.10419e-06
0.000135078
-1.20472e-06
0.000135103
-1.30894e-06
0.000135126
-1.41673e-06
0.000135147
-1.52793e-06
0.000135165
-1.64239e-06
0.000135179
-1.75992e-06
0.000135191
-1.88031e-06
0.000135198
-2.00336e-06
0.000135202
-2.1288e-06
0.0001352
-2.25639e-06
0.000135194
-2.38582e-06
0.000135181
-2.51679e-06
0.000135163
-2.64895e-06
0.000135137
-2.78194e-06
0.000135104
-2.91539e-06
-3.04878e-06
0.000135063
0.000138504
-2.44932e-08
0.000138511
-7.32396e-08
0.000138521
-1.22437e-07
0.000138535
-1.7319e-07
0.000138552
-2.26132e-07
0.000138572
-2.81737e-07
0.000138594
-3.4037e-07
0.000138617
-4.02292e-07
0.000138642
-4.67688e-07
0.000138667
-5.36691e-07
0.000138693
-6.09392e-07
0.000138718
-6.85841e-07
0.000138743
-7.6606e-07
0.000138767
-8.50039e-07
0.00013879
-9.37747e-07
0.000138812
-1.02913e-06
0.000138832
-1.1241e-06
0.00013885
-1.22257e-06
0.000138865
-1.32441e-06
0.000138878
-1.42949e-06
0.000138888
-1.53765e-06
0.000138894
-1.64871e-06
0.000138897
-1.76246e-06
0.000138895
-1.87869e-06
0.000138889
-1.99716e-06
0.000138878
-2.11759e-06
0.000138861
-2.23971e-06
0.000138838
-2.3632e-06
0.000138809
-2.48773e-06
0.000138773
-2.61295e-06
0.00013873
-2.7385e-06
0.000138678
-2.86397e-06
-2.98887e-06
0.000138618
0.000142461
-2.6474e-08
0.000142467
-7.89657e-08
0.000142476
-1.31602e-07
0.000142488
-1.85434e-07
0.000142503
-2.41025e-07
0.00014252
-2.988e-07
0.000142539
-3.59104e-07
0.000142559
-4.22197e-07
0.00014258
-4.88281e-07
0.0001426
-5.57511e-07
0.000142621
-6.30003e-07
0.000142641
-7.05836e-07
0.00014266
-7.85051e-07
0.000142678
-8.67663e-07
0.000142693
-9.53652e-07
0.000142707
-1.04297e-06
0.000142719
-1.13555e-06
0.000142728
-1.2313e-06
0.000142733
-1.33008e-06
0.000142735
-1.43176e-06
0.000142734
-1.53616e-06
0.000142728
-1.6431e-06
0.000142718
-1.75237e-06
0.000142703
-1.86371e-06
0.000142683
-1.97689e-06
0.000142657
-2.09162e-06
0.000142625
-2.2076e-06
0.000142586
-2.32451e-06
0.000142541
-2.44201e-06
0.000142487
-2.55975e-06
0.000142426
-2.67734e-06
0.000142357
-2.79442e-06
-2.9105e-06
0.000142278
0.000146531
-2.81144e-08
0.000146536
-8.37438e-08
0.000146543
-1.39294e-07
0.000146554
-1.95765e-07
0.000146566
-2.53609e-07
0.000146581
-3.13172e-07
0.000146596
-3.74751e-07
0.000146613
-4.3859e-07
0.000146629
-5.049e-07
0.000146646
-5.73858e-07
0.000146661
-6.45609e-07
0.000146676
-7.2026e-07
0.000146689
-7.97882e-07
0.000146699
-8.78512e-07
0.000146708
-9.62148e-07
0.000146714
-1.04876e-06
0.000146716
-1.13828e-06
0.000146716
-1.23062e-06
0.000146711
-1.32565e-06
0.000146703
-1.42323e-06
0.00014669
-1.52318e-06
0.000146672
-1.6253e-06
0.000146649
-1.72938e-06
0.00014662
-1.83517e-06
0.000146586
-1.9424e-06
0.000146545
-2.05079e-06
0.000146498
-2.16002e-06
0.000146443
-2.26979e-06
0.000146381
-2.37975e-06
0.00014631
-2.48954e-06
0.000146232
-2.5988e-06
0.000146145
-2.70717e-06
-2.81419e-06
0.000146048
0.000150717
-2.95717e-08
0.000150721
-8.77907e-08
0.000150728
-1.45772e-07
0.000150736
-2.0441e-07
0.000150747
-2.64013e-07
0.000150758
-3.24847e-07
0.000150771
-3.87178e-07
0.000150783
-4.51239e-07
0.000150796
-5.17244e-07
0.000150807
-5.8539e-07
0.000150818
-6.55848e-07
0.000150826
-7.2875e-07
0.000150832
-8.04194e-07
0.000150836
-8.82237e-07
0.000150837
-9.62898e-07
0.000150834
-1.04616e-06
0.000150828
-1.13197e-06
0.000150818
-1.22024e-06
0.000150803
-1.31085e-06
0.000150783
-1.40366e-06
0.000150759
-1.49849e-06
0.000150728
-1.59514e-06
0.000150692
-1.69338e-06
0.00015065
-1.79298e-06
0.000150601
-1.89366e-06
0.000150546
-1.99513e-06
0.000150483
-2.09709e-06
0.000150412
-2.19923e-06
0.000150334
-2.30121e-06
0.000150247
-2.40268e-06
0.000150151
-2.5033e-06
0.000150047
-2.60273e-06
-2.70053e-06
0.000149933
0.000155022
-3.01862e-08
0.000155025
-9.01416e-08
0.000155029
-1.50098e-07
0.000155035
-2.10752e-07
0.000155043
-2.72036e-07
0.000155052
-3.34001e-07
0.000155062
-3.96817e-07
0.000155072
-4.60698e-07
0.00015508
-5.25891e-07
0.000155087
-5.92641e-07
0.000155093
-6.61166e-07
0.000155096
-7.31647e-07
0.000155096
-8.04219e-07
0.000155092
-8.78971e-07
0.000155085
-9.55949e-07
0.000155074
-1.03515e-06
0.000155059
-1.11654e-06
0.000155039
-1.20005e-06
0.000155014
-1.28555e-06
0.000154983
-1.3729e-06
0.000154946
-1.46195e-06
0.000154904
-1.55248e-06
0.000154854
-1.64427e-06
0.000154799
-1.73708e-06
0.000154736
-1.83065e-06
0.000154665
-1.9247e-06
0.000154587
-2.01892e-06
0.000154501
-2.11301e-06
0.000154406
-2.20666e-06
0.000154303
-2.29953e-06
0.000154191
-2.39129e-06
0.00015407
-2.48163e-06
-2.57016e-06
0.00015394
0.000159452
-3.18025e-08
0.000159455
-9.27803e-08
0.000159459
-1.53846e-07
0.000159463
-2.15492e-07
0.000159469
-2.77494e-07
0.000159475
-3.39808e-07
0.00015948
-4.02492e-07
0.000159485
-4.65682e-07
0.000159489
-5.29598e-07
0.000159491
-5.94493e-07
0.00015949
-6.60614e-07
0.000159487
-7.28174e-07
0.00015948
-7.97345e-07
0.000159469
-8.68249e-07
0.000159454
-9.40958e-07
0.000159435
-1.0155e-06
0.00015941
-1.09185e-06
0.00015938
-1.16996e-06
0.000159344
-1.24972e-06
0.000159302
-1.331e-06
0.000159254
-1.41364e-06
0.000159199
-1.49746e-06
0.000159137
-1.58223e-06
0.000159067
-1.66772e-06
0.00015899
-1.75368e-06
0.000158905
-1.83984e-06
0.000158812
-1.92591e-06
0.000158711
-2.0116e-06
0.000158601
-2.09661e-06
0.000158482
-2.18064e-06
0.000158354
-2.26338e-06
0.000158217
-2.34453e-06
-2.42375e-06
0.000158071
0.000164003
-2.86396e-08
0.000164
-9.00661e-08
0.000164
-1.53575e-07
0.000164003
-2.18127e-07
0.000164007
-2.82133e-07
0.000164013
-3.45243e-07
0.000164018
-4.07566e-07
0.000164021
-4.69414e-07
0.000164023
-5.31183e-07
0.000164022
-5.93258e-07
0.000164017
-6.55983e-07
0.000164009
-7.19647e-07
0.000163996
-7.84477e-07
0.000163978
-8.50636e-07
0.000163955
-9.18227e-07
0.000163927
-9.87298e-07
0.000163893
-1.05785e-06
0.000163853
-1.12983e-06
0.000163807
-1.20316e-06
0.000163753
-1.27772e-06
0.000163693
-1.35334e-06
0.000163625
-1.42987e-06
0.00016355
-1.50708e-06
0.000163467
-1.58477e-06
0.000163376
-1.66268e-06
0.000163277
-1.74056e-06
0.000163169
-1.81815e-06
0.000163053
-1.89517e-06
0.000162928
-1.97134e-06
0.000162793
-2.04639e-06
0.00016265
-2.12004e-06
0.000162497
-2.19201e-06
-2.26201e-06
0.000162336
0.000168698
-3.50219e-08
0.0001687
-9.21713e-08
0.0001687
-1.53299e-07
0.000168698
-2.16437e-07
0.000168696
-2.80176e-07
0.000168694
-3.43384e-07
0.000168692
-4.05384e-07
0.000168689
-4.66165e-07
0.000168684
-5.26054e-07
0.000168676
-5.85463e-07
0.000168665
-6.44804e-07
0.00016865
-7.0444e-07
0.00016863
-7.64669e-07
0.000168605
-8.25718e-07
0.000168575
-8.87741e-07
0.000168538
-9.50833e-07
0.000168495
-1.01503e-06
0.000168446
-1.08031e-06
0.000168389
-1.14663e-06
0.000168325
-1.21388e-06
0.000168254
-1.28192e-06
0.000168175
-1.35061e-06
0.000168087
-1.41976e-06
0.000167992
-1.48917e-06
0.000167888
-1.5586e-06
0.000167775
-1.62783e-06
0.000167653
-1.69662e-06
0.000167523
-1.76471e-06
0.000167383
-1.83184e-06
0.000167235
-1.89778e-06
0.000167077
-1.96226e-06
0.00016691
-2.02504e-06
-2.08586e-06
0.000166734
0.000173493
-1.70897e-08
0.000173479
-7.79297e-08
0.000173475
-1.49077e-07
0.000173478
-2.19794e-07
0.000173485
-2.86694e-07
0.000173491
-3.49669e-07
0.000173495
-4.09369e-07
0.000173496
-4.66653e-07
0.000173492
-5.22248e-07
0.000173483
-5.76777e-07
0.000173469
-6.30785e-07
0.000173449
-6.84719e-07
0.000173424
-7.3892e-07
0.000173391
-7.93639e-07
0.000173353
-8.49049e-07
0.000173307
-9.05255e-07
0.000173254
-9.62305e-07
0.000173194
-1.0202e-06
0.000173127
-1.07888e-06
0.000173051
-1.13827e-06
0.000172967
-1.19825e-06
0.000172875
-1.25869e-06
0.000172775
-1.3194e-06
0.000172666
-1.38021e-06
0.000172548
-1.44091e-06
0.000172422
-1.5013e-06
0.000172286
-1.56115e-06
0.000172142
-1.62023e-06
0.000171988
-1.67832e-06
0.000171826
-1.73519e-06
0.000171654
-1.79062e-06
0.000171474
-1.8444e-06
-1.8963e-06
0.000171284
0.000178488
-3.68368e-08
0.000178481
-7.11043e-08
0.000178464
-1.32047e-07
0.000178445
-2.00074e-07
0.000178429
-2.70844e-07
0.000178417
-3.37934e-07
0.000178407
-3.99641e-07
0.000178398
-4.56837e-07
0.000178386
-5.10622e-07
0.000178371
-5.61954e-07
0.000178352
-6.11655e-07
0.000178328
-6.60393e-07
0.000178297
-7.08685e-07
0.000178261
-7.56919e-07
0.000178217
-8.0537e-07
0.000178166
-8.54222e-07
0.000178107
-9.03583e-07
0.000178041
-9.53498e-07
0.000177966
-1.00396e-06
0.000177882
-1.05491e-06
0.00017779
-1.10628e-06
0.00017769
-1.15794e-06
0.00017758
-1.20975e-06
0.000177461
-1.26156e-06
0.000177334
-1.31318e-06
0.000177197
-1.36443e-06
0.000177051
-1.41512e-06
0.000176896
-1.46504e-06
0.000176731
-1.514e-06
0.000176558
-1.56179e-06
0.000176375
-1.60822e-06
0.000176184
-1.6531e-06
-1.69625e-06
0.000175984
0.00018349
4.03869e-08
0.000183468
-4.88124e-08
0.000183482
-1.46545e-07
0.000183507
-2.24393e-07
0.000183528
-2.92469e-07
0.000183542
-3.51236e-07
0.000183547
-4.04563e-07
0.000183544
-4.5385e-07
0.000183533
-4.99988e-07
0.000183515
-5.43899e-07
0.00018349
-5.86344e-07
0.000183457
-6.27896e-07
0.000183417
-6.68985e-07
0.00018337
-7.09931e-07
0.000183316
-7.50963e-07
0.000183254
-7.92237e-07
0.000183184
-8.33846e-07
0.000183107
-8.75831e-07
0.000183021
-9.18191e-07
0.000182927
-9.60888e-07
0.000182824
-1.00385e-06
0.000182713
-1.04699e-06
0.000182594
-1.09018e-06
0.000182466
-1.1333e-06
0.000182329
-1.17618e-06
0.000182183
-1.21868e-06
0.000182028
-1.26063e-06
0.000181865
-1.30185e-06
0.000181693
-1.34217e-06
0.000181513
-1.38142e-06
0.000181324
-1.41942e-06
0.000181127
-1.45603e-06