/*--------------------------------*- C++ -*----------------------------------*\
| =========                 |                                                 |
| \\      /  F ield         | OpenFOAM: The Open Source CFD Toolbox           |
|  \\    /   O peration     | Version:  2.1.1                                 |
|   \\  /    A nd           | Web:      www.OpenFOAM.org                      |
|    \\/     M anipulation  |                                                 |
\*---------------------------------------------------------------------------*/
FoamFile
{
    version     2.0;
    format      ascii;
    class       volVectorField;
    location    "0.02";
    object      U;
}
// * * * * * * * * * * * * * * * * * * * * * * * * * * * * * * * * * * * * * //

dimensions      [0 1 -1 0 0 0 0];

internalField   nonuniform List<vector> 
6820
(
(8.34336 -0.360119 0)
(8.40158 -0.247375 0)
(8.35769 -0.115566 0)
(8.25111 -0.0369694 0)
(8.12498 0.00539786 0)
(7.99456 0.027016 0)
(7.86616 0.0375202 0)
(7.74323 0.0419469 0)
(7.62723 0.0429366 0)
(7.51873 0.0419405 0)
(7.41802 0.0397967 0)
(7.32519 0.0370054 0)
(7.24016 0.0338727 0)
(7.16279 0.0305893 0)
(7.09286 0.0272733 0)
(7.03013 0.0239968 0)
(6.97433 0.0208011 0)
(6.92518 0.0177071 0)
(6.88241 0.0147218 0)
(6.84577 0.0118434 0)
(6.815 0.0090643 0)
(6.78987 0.00637492 0)
(6.77018 0.00376578 0)
(6.75569 0.00124014 0)
(6.74616 -0.00119512 0)
(6.7413 -0.00343892 0)
(6.74041 -0.00518034 0)
(6.74243 -0.00635448 0)
(6.74732 -0.00730068 0)
(6.75476 -0.00836494 0)
(6.76573 -0.0086078 0)
(6.77716 -0.0126683 0)
(6.79853 0.0066853 0)
(8.32142 0.166162 0)
(8.28718 0.189703 0)
(8.28571 0.131684 0)
(8.31796 0.0949444 0)
(8.36272 0.0738111 0)
(8.40346 0.0608637 0)
(8.43548 0.0530502 0)
(8.45878 0.048145 0)
(8.47423 0.0448041 0)
(8.48289 0.0423139 0)
(8.48583 0.0402794 0)
(8.48403 0.0384604 0)
(8.47834 0.0367145 0)
(8.46954 0.0349603 0)
(8.45828 0.0331526 0)
(8.44516 0.0312672 0)
(8.43069 0.029292 0)
(8.4153 0.0272219 0)
(8.3994 0.0250549 0)
(8.38331 0.0227907 0)
(8.36731 0.0204305 0)
(8.35165 0.0179772 0)
(8.33654 0.015436 0)
(8.32216 0.0128232 0)
(8.30875 0.010161 0)
(8.29648 0.00752838 0)
(8.28596 0.00504687 0)
(8.27808 0.00265362 0)
(8.27323 0.000112068 0)
(8.27088 -0.00273153 0)
(8.27333 -0.00592224 0)
(8.27655 -0.0100912 0)
(8.29776 -0.0122229 0)
(8.32253 -0.0609884 0)
(8.31425 -0.083645 0)
(8.33128 -0.0546915 0)
(8.34588 -0.0211819 0)
(8.35584 0.00115554 0)
(8.36613 0.0148613 0)
(8.37734 0.0236354 0)
(8.3891 0.0293391 0)
(8.40094 0.0329923 0)
(8.41248 0.0352364 0)
(8.42351 0.0364598 0)
(8.43391 0.0368989 0)
(8.44364 0.0367211 0)
(8.45272 0.0360508 0)
(8.4612 0.0349806 0)
(8.46914 0.0335795 0)
(8.47664 0.0318991 0)
(8.48379 0.0299776 0)
(8.4907 0.0278432 0)
(8.49747 0.0255162 0)
(8.50421 0.0230111 0)
(8.51103 0.0203383 0)
(8.51805 0.0175068 0)
(8.52539 0.0145174 0)
(8.53315 0.011383 0)
(8.54148 0.0080989 0)
(8.55051 0.00458246 0)
(8.56037 0.00075363 0)
(8.57148 -0.00335324 0)
(8.58377 -0.00807709 0)
(8.59823 -0.0129529 0)
(8.61273 -0.0211613 0)
(8.63124 -0.0266808 0)
(8.33367 0.0143896 0)
(8.3301 0.0471035 0)
(8.32831 0.052877 0)
(8.33045 0.0451925 0)
(8.33743 0.0392417 0)
(8.34638 0.0362022 0)
(8.35559 0.0348084 0)
(8.36482 0.0341243 0)
(8.37411 0.0336398 0)
(8.38344 0.0331261 0)
(8.3928 0.0324765 0)
(8.40219 0.0316426 0)
(8.41161 0.0306073 0)
(8.42107 0.0293659 0)
(8.43058 0.0279177 0)
(8.44016 0.0262641 0)
(8.44985 0.024407 0)
(8.45969 0.0223477 0)
(8.46972 0.0200865 0)
(8.47999 0.0176225 0)
(8.49055 0.0149532 0)
(8.50147 0.0120777 0)
(8.5128 0.00899071 0)
(8.5246 0.00568853 0)
(8.53697 0.00216502 0)
(8.54999 -0.00160612 0)
(8.56379 -0.00561578 0)
(8.57845 -0.00990906 0)
(8.59413 -0.0145837 0)
(8.61068 -0.0199182 0)
(8.62865 -0.0258163 0)
(8.6466 -0.0335494 0)
(8.6668 -0.0406997 0)
(8.3302 -0.00550968 0)
(8.32745 -0.00810348 0)
(8.33226 -0.00369239 0)
(8.33789 0.00620147 0)
(8.34312 0.0148083 0)
(8.34873 0.0204038 0)
(8.35488 0.0238953 0)
(8.36157 0.0260877 0)
(8.36875 0.0273778 0)
(8.37631 0.0279922 0)
(8.38417 0.0280692 0)
(8.39231 0.0276953 0)
(8.40071 0.0269279 0)
(8.40936 0.0258083 0)
(8.41827 0.0243681 0)
(8.42745 0.0226316 0)
(8.43694 0.0206167 0)
(8.44675 0.0183361 0)
(8.45692 0.0157978 0)
(8.46748 0.0130054 0)
(8.47848 0.00995858 0)
(8.48996 0.00665794 0)
(8.50197 0.00309621 0)
(8.51455 -0.000728077 0)
(8.52777 -0.00483464 0)
(8.5417 -0.00925612 0)
(8.55643 -0.0140249 0)
(8.572 -0.0192374 0)
(8.58849 -0.024929 0)
(8.60584 -0.0312932 0)
(8.62425 -0.0382109 0)
(8.64292 -0.0465024 0)
(8.66258 -0.0544675 0)
(8.33242 0.00197331 0)
(8.33148 0.0125063 0)
(8.33367 0.0190501 0)
(8.33726 0.0217347 0)
(8.34188 0.0231318 0)
(8.34739 0.0241332 0)
(8.35338 0.0249425 0)
(8.35968 0.0254961 0)
(8.3663 0.0257006 0)
(8.37322 0.0255338 0)
(8.38043 0.0250068 0)
(8.38794 0.0241366 0)
(8.39575 0.0229406 0)
(8.40387 0.0214361 0)
(8.4123 0.0196374 0)
(8.42108 0.0175551 0)
(8.43021 0.0151963 0)
(8.43974 0.0125641 0)
(8.44967 0.0096587 0)
(8.46006 0.00647654 0)
(8.47094 0.00301282 0)
(8.48234 -0.000747008 0)
(8.49431 -0.00480992 0)
(8.5069 -0.00919002 0)
(8.52016 -0.0139093 0)
(8.53415 -0.0189906 0)
(8.54892 -0.0244809 0)
(8.56453 -0.0304448 0)
(8.58101 -0.0369241 0)
(8.59833 -0.0440512 0)
(8.61655 -0.0517705 0)
(8.63526 -0.06044 0)
(8.65472 -0.069117 0)
(8.33236 0.000494208 0)
(8.33182 0.00464405 0)
(8.33429 0.0088944 0)
(8.33822 0.0129286 0)
(8.34277 0.016498 0)
(8.34787 0.0191128 0)
(8.35335 0.0208096 0)
(8.35915 0.0217774 0)
(8.3653 0.0221446 0)
(8.37177 0.0220034 0)
(8.37855 0.0214204 0)
(8.38564 0.0204401 0)
(8.39304 0.0190933 0)
(8.40077 0.017403 0)
(8.40884 0.0153857 0)
(8.41727 0.0130523 0)
(8.42608 0.0104093 0)
(8.4353 0.00745899 0)
(8.44496 0.00419977 0)
(8.45509 0.00062699 0)
(8.46572 -0.00326663 0)
(8.47689 -0.00749749 0)
(8.48864 -0.0120767 0)
(8.50102 -0.0170263 0)
(8.51406 -0.0223685 0)
(8.52783 -0.0281355 0)
(8.54236 -0.0343719 0)
(8.5577 -0.0411357 0)
(8.57387 -0.0484699 0)
(8.59086 -0.0564581 0)
(8.6087 -0.0650608 0)
(8.6272 -0.0744237 0)
(8.64648 -0.0840044 0)
(8.33275 0.0013384 0)
(8.33285 0.00610228 0)
(8.33503 0.0105543 0)
(8.33848 0.0138996 0)
(8.34263 0.0163627 0)
(8.34743 0.0180255 0)
(8.35269 0.0190389 0)
(8.3583 0.0195239 0)
(8.36423 0.0195268 0)
(8.37047 0.019081 0)
(8.377 0.0182193 0)
(8.38382 0.0169685 0)
(8.39096 0.0153493 0)
(8.39842 0.0133778 0)
(8.40621 0.0110654 0)
(8.41437 0.00841916 0)
(8.42291 0.00544182 0)
(8.43186 0.00213227 0)
(8.44125 -0.00151461 0)
(8.4511 -0.0055071 0)
(8.46146 -0.00985819 0)
(8.47235 -0.0145805 0)
(8.48382 -0.0196958 0)
(8.4959 -0.025228 0)
(8.50864 -0.0312042 0)
(8.52207 -0.0376593 0)
(8.53625 -0.0446355 0)
(8.55119 -0.0521838 0)
(8.56693 -0.060344 0)
(8.58347 -0.0691728 0)
(8.60083 -0.0786522 0)
(8.61897 -0.0888367 0)
(8.63796 -0.0994349 0)
(8.33286 0.00133437 0)
(8.33321 0.00505543 0)
(8.33526 0.00859607 0)
(8.33851 0.0114531 0)
(8.34248 0.0137178 0)
(8.34705 0.0153265 0)
(8.35207 0.01629 0)
(8.35745 0.0166784 0)
(8.36315 0.0165445 0)
(8.36917 0.0159327 0)
(8.37548 0.0148824 0)
(8.38209 0.0134234 0)
(8.389 0.0115768 0)
(8.39623 0.00935753 0)
(8.40379 0.00677549 0)
(8.41171 0.00383555 0)
(8.42 0.000538248 0)
(8.4287 -0.00312 0)
(8.43782 -0.00714652 0)
(8.4474 -0.0115527 0)
(8.45747 -0.0163533 0)
(8.46806 -0.021566 0)
(8.47921 -0.0272139 0)
(8.49094 -0.0333241 0)
(8.50331 -0.0399271 0)
(8.51633 -0.0470599 0)
(8.53007 -0.0547645 0)
(8.54453 -0.0630883 0)
(8.55974 -0.0720714 0)
(8.57574 -0.0817591 0)
(8.59253 -0.0921534 0)
(8.61015 -0.103283 0)
(8.62866 -0.115013 0)
(8.33296 0.00131928 0)
(8.3335 0.00457139 0)
(8.33543 0.00769131 0)
(8.33845 0.0101994 0)
(8.34216 0.0120986 0)
(8.34647 0.0133648 0)
(8.35126 0.0140232 0)
(8.35642 0.0141387 0)
(8.36192 0.0137568 0)
(8.36773 0.0129103 0)
(8.37384 0.0116278 0)
(8.38024 0.00993109 0)
(8.38695 0.00783602 0)
(8.39396 0.00535343 0)
(8.4013 0.00248963 0)
(8.40899 -0.000753496 0)
(8.41704 -0.00437824 0)
(8.42547 -0.00839083 0)
(8.43432 -0.0128013 0)
(8.44361 -0.0176235 0)
(8.45337 -0.0228747 0)
(8.46362 -0.028576 0)
(8.47441 -0.0347529 0)
(8.48575 -0.0414349 0)
(8.49769 -0.0486554 0)
(8.51025 -0.056453 0)
(8.52348 -0.0648699 0)
(8.53738 -0.0739523 0)
(8.552 -0.0837423 0)
(8.56735 -0.0942833 0)
(8.58347 -0.105597 0)
(8.60041 -0.117717 0)
(8.61824 -0.130605 0)
(8.33301 0.00122428 0)
(8.33364 0.00396951 0)
(8.33546 0.00656483 0)
(8.33827 0.00864803 0)
(8.34177 0.0101942 0)
(8.34585 0.0111799 0)
(8.3504 0.0116052 0)
(8.35533 0.0115062 0)
(8.36061 0.0109149 0)
(8.36621 0.00985707 0)
(8.3721 0.00835625 0)
(8.37829 0.00643092 0)
(8.38477 0.00409393 0)
(8.39156 0.00135333 0)
(8.39867 -0.00178729 0)
(8.4061 -0.00532863 0)
(8.41389 -0.00927546 0)
(8.42205 -0.0136364 0)
(8.4306 -0.0184239 0)
(8.43957 -0.0236541 0)
(8.44899 -0.0293469 0)
(8.45887 -0.0355257 0)
(8.46925 -0.0422182 0)
(8.48016 -0.0494561 0)
(8.49161 -0.057275 0)
(8.50365 -0.0657148 0)
(8.51629 -0.0748189 0)
(8.52957 -0.0846339 0)
(8.5435 -0.0952053 0)
(8.55811 -0.10658 0)
(8.57344 -0.118797 0)
(8.58955 -0.131904 0)
(8.60647 -0.145922 0)
(8.33304 0.00108941 0)
(8.33371 0.00339502 0)
(8.33544 0.00554261 0)
(8.33806 0.00725008 0)
(8.34134 0.00846314 0)
(8.34518 0.00915461 0)
(8.3495 0.00931686 0)
(8.3542 0.00897294 0)
(8.35925 0.00814749 0)
(8.36462 0.00686047 0)
(8.37028 0.00512934 0)
(8.37624 0.00296759 0)
(8.38249 0.000383977 0)
(8.38903 -0.00261697 0)
(8.39588 -0.00603477 0)
(8.40305 -0.00987288 0)
(8.41055 -0.0141386 0)
(8.4184 -0.018843 0)
(8.42663 -0.0240006 0)
(8.43525 -0.02963 0)
(8.44428 -0.035753 0)
(8.45375 -0.0423952 0)
(8.46368 -0.0495863 0)
(8.47409 -0.0573596 0)
(8.48501 -0.0657525 0)
(8.49645 -0.0748062 0)
(8.50845 -0.0845653 0)
(8.52102 -0.0950778 0)
(8.53418 -0.106393 0)
(8.54796 -0.118562 0)
(8.56238 -0.131639 0)
(8.5775 -0.145684 0)
(8.59333 -0.160752 0)
(8.33305 0.000931543 0)
(8.33373 0.0028229 0)
(8.33536 0.00454238 0)
(8.33781 0.00587361 0)
(8.34089 0.00675216 0)
(8.34451 0.0071487 0)
(8.34859 0.0070493 0)
(8.35306 0.00646402 0)
(8.35787 0.00540802 0)
(8.363 0.0038945 0)
(8.36843 0.00193524 0)
(8.37413 -0.00046081 0)
(8.38013 -0.00328847 0)
(8.3864 -0.00654634 0)
(8.39297 -0.0102367 0)
(8.39984 -0.0143656 0)
(8.40703 -0.0189426 0)
(8.41455 -0.0239808 0)
(8.42242 -0.0294971 0)
(8.43064 -0.0355117 0)
(8.43925 -0.0420483 0)
(8.44826 -0.0491342 0)
(8.45769 -0.0568006 0)
(8.46756 -0.0650822 0)
(8.47788 -0.0740175 0)
(8.48868 -0.0836488 0)
(8.49996 -0.0940218 0)
(8.51175 -0.105186 0)
(8.52405 -0.117193 0)
(8.5369 -0.1301 0)
(8.5503 -0.143968 0)
(8.5643 -0.158868 0)
(8.57889 -0.174869 0)
(8.33306 0.0007626 0)
(8.33373 0.0022627 0)
(8.33526 0.00358301 0)
(8.33755 0.00455508 0)
(8.34043 0.0051106 0)
(8.34384 0.00521635 0)
(8.34769 0.00485353 0)
(8.35192 0.00402286 0)
(8.35649 0.00273203 0)
(8.36137 0.000988622 0)
(8.36654 -0.0012006 0)
(8.37199 -0.00383096 0)
(8.3777 -0.00690086 0)
(8.3837 -0.010412 0)
(8.38996 -0.0143695 0)
(8.39652 -0.0187816 0)
(8.40336 -0.0236602 0)
(8.41051 -0.0290205 0)
(8.41798 -0.034881 0)
(8.42579 -0.0412634 0)
(8.43393 -0.048193 0)
(8.44244 -0.0556985 0)
(8.45133 -0.063812 0)
(8.4606 -0.0725691 0)
(8.47027 -0.0820089 0)
(8.48035 -0.0921744 0)
(8.49086 -0.103112 0)
(8.5018 -0.114871 0)
(8.51318 -0.127507 0)
(8.52501 -0.141077 0)
(8.53729 -0.155647 0)
(8.55005 -0.171294 0)
(8.56328 -0.188089 0)
(8.33306 0.000589889 0)
(8.3337 0.00171628 0)
(8.33515 0.00265924 0)
(8.33728 0.00328421 0)
(8.33998 0.00352384 0)
(8.34317 0.00334212 0)
(8.34679 0.00271678 0)
(8.35079 0.00164135 0)
(8.35511 0.000116793 0)
(8.35974 -0.00185469 0)
(8.36464 -0.00427111 0)
(8.36981 -0.00713184 0)
(8.37524 -0.0104387 0)
(8.38093 -0.0141962 0)
(8.38687 -0.0184121 0)
(8.39308 -0.0230968 0)
(8.39956 -0.0282641 0)
(8.40631 -0.0339309 0)
(8.41336 -0.0401171 0)
(8.4207 -0.0468458 0)
(8.42835 -0.0541434 0)
(8.43632 -0.0620392 0)
(8.44461 -0.070566 0)
(8.45324 -0.0797598 0)
(8.46221 -0.0896599 0)
(8.47153 -0.100309 0)
(8.4812 -0.111753 0)
(8.49123 -0.124042 0)
(8.50162 -0.13723 0)
(8.51236 -0.151376 0)
(8.52345 -0.166545 0)
(8.5349 -0.182812 0)
(8.54667 -0.200245 0)
(8.33306 0.000417964 0)
(8.33367 0.00118645 0)
(8.33502 0.00177216 0)
(8.33701 0.00206399 0)
(8.33953 0.00199764 0)
(8.34251 0.00153493 0)
(8.34591 0.000650705 0)
(8.34967 -0.000667059 0)
(8.35374 -0.00242306 0)
(8.3581 -0.00461985 0)
(8.36273 -0.00725964 0)
(8.36761 -0.0103455 0)
(8.37274 -0.0138823 0)
(8.3781 -0.0178774 0)
(8.3837 -0.0223407 0)
(8.38955 -0.0272847 0)
(8.39563 -0.0327248 0)
(8.40197 -0.0386794 0)
(8.40856 -0.0451694 0)
(8.4154 -0.0522191 0)
(8.42252 -0.0598552 0)
(8.42991 -0.0681075 0)
(8.43757 -0.0770089 0)
(8.44552 -0.0865951 0)
(8.45375 -0.0969049 0)
(8.46226 -0.10798 0)
(8.47105 -0.119866 0)
(8.48012 -0.13261 0)
(8.48945 -0.146265 0)
(8.49905 -0.160888 0)
(8.50889 -0.17654 0)
(8.51896 -0.193292 0)
(8.52922 -0.211203 0)
(8.33305 0.000249689 0)
(8.33363 0.000675268 0)
(8.3349 0.00092185 0)
(8.33674 0.00089435 0)
(8.33909 0.000532207 0)
(8.34187 -0.000204054 0)
(8.34505 -0.00134185 0)
(8.34856 -0.00289746 0)
(8.35238 -0.00488029 0)
(8.35647 -0.00729707 0)
(8.36082 -0.0101538 0)
(8.3654 -0.0134569 0)
(8.37021 -0.0172141 0)
(8.37523 -0.0214352 0)
(8.38047 -0.026132 0)
(8.38593 -0.031319 0)
(8.3916 -0.0370128 0)
(8.39748 -0.043233 0)
(8.40359 -0.0500013 0)
(8.40992 -0.0573424 0)
(8.41647 -0.0652833 0)
(8.42324 -0.0738538 0)
(8.43024 -0.0830861 0)
(8.43747 -0.0930152 0)
(8.44491 -0.103679 0)
(8.45257 -0.115116 0)
(8.46044 -0.127371 0)
(8.46851 -0.140489 0)
(8.47676 -0.154519 0)
(8.48517 -0.169513 0)
(8.49372 -0.185528 0)
(8.50238 -0.202625 0)
(8.5111 -0.220852 0)
(8.33305 8.65609e-05 0)
(8.33359 0.000184366 0)
(8.33477 0.000109053 0)
(8.33648 -0.00022347 0)
(8.33865 -0.000869994 0)
(8.34124 -0.00187061 0)
(8.34419 -0.00325451 0)
(8.34747 -0.00504125 0)
(8.35103 -0.00724411 0)
(8.35485 -0.00987344 0)
(8.3589 -0.0129385 0)
(8.36317 -0.0164487 0)
(8.36765 -0.0204144 0)
(8.37232 -0.0248473 0)
(8.37718 -0.0297612 0)
(8.38223 -0.0351719 0)
(8.38746 -0.0410973 0)
(8.39288 -0.0475575 0)
(8.39847 -0.0545749 0)
(8.40425 -0.0621742 0)
(8.41021 -0.0703823 0)
(8.41634 -0.0792281 0)
(8.42265 -0.0887431 0)
(8.42912 -0.0989608 0)
(8.43575 -0.109917 0)
(8.44253 -0.121648 0)
(8.44944 -0.134196 0)
(8.45647 -0.147601 0)
(8.4636 -0.161908 0)
(8.4708 -0.177163 0)
(8.47804 -0.193415 0)
(8.48528 -0.210717 0)
(8.49247 -0.229104 0)
(8.33305 -6.98176e-05 0)
(8.33355 -0.000284573 0)
(8.33464 -0.000665195 0)
(8.33622 -0.00128806 0)
(8.33823 -0.0022066 0)
(8.34062 -0.00346099 0)
(8.34336 -0.00508174 0)
(8.34639 -0.00709091 0)
(8.34969 -0.00950487 0)
(8.35323 -0.012337 0)
(8.35698 -0.0155996 0)
(8.36093 -0.0193043 0)
(8.36506 -0.0234638 0)
(8.36937 -0.0280918 0)
(8.37383 -0.0332035 0)
(8.37846 -0.0388157 0)
(8.38323 -0.0449472 0)
(8.38816 -0.0516186 0)
(8.39322 -0.0588524 0)
(8.39843 -0.066673 0)
(8.40377 -0.0751065 0)
(8.40923 -0.084181 0)
(8.41482 -0.0939264 0)
(8.42051 -0.104374 0)
(8.4263 -0.115557 0)
(8.43217 -0.12751 0)
(8.43811 -0.140268 0)
(8.44408 -0.15387 0)
(8.45007 -0.168354 0)
(8.45605 -0.183759 0)
(8.46197 -0.200125 0)
(8.46779 -0.217495 0)
(8.47347 -0.235893 0)
(8.33304 -0.000218648 0)
(8.33351 -0.000730223 0)
(8.33451 -0.00139963 0)
(8.33596 -0.00229762 0)
(8.33781 -0.00347473 0)
(8.34001 -0.00497081 0)
(8.34253 -0.00681727 0)
(8.34533 -0.00903804 0)
(8.34836 -0.0116519 0)
(8.35162 -0.0146749 0)
(8.35506 -0.0181215 0)
(8.35868 -0.0220057 0)
(8.36246 -0.0263419 0)
(8.36638 -0.0311454 0)
(8.37044 -0.0364326 0)
(8.37462 -0.0422212 0)
(8.37892 -0.0485303 0)
(8.38334 -0.0553808 0)
(8.38785 -0.0627949 0)
(8.39247 -0.0707962 0)
(8.39717 -0.0794101 0)
(8.40194 -0.088663 0)
(8.40679 -0.0985827 0)
(8.41168 -0.109198 0)
(8.41661 -0.120539 0)
(8.42156 -0.132637 0)
(8.4265 -0.145523 0)
(8.43141 -0.15923 0)
(8.43626 -0.173789 0)
(8.44101 -0.189232 0)
(8.44562 -0.205592 0)
(8.45005 -0.222899 0)
(8.45425 -0.241169 0)
(8.33304 -0.000359797 0)
(8.33347 -0.00115156 0)
(8.33438 -0.00209283 0)
(8.33571 -0.00325006 0)
(8.3374 -0.00467122 0)
(8.33942 -0.00639555 0)
(8.34172 -0.00845491 0)
(8.34427 -0.0108746 0)
(8.34704 -0.0136753 0)
(8.35001 -0.0168749 0)
(8.35314 -0.02049 0)
(8.35642 -0.0245362 0)
(8.35984 -0.0290295 0)
(8.36337 -0.0339864 0)
(8.367 -0.0394242 0)
(8.37073 -0.045361 0)
(8.37455 -0.0518163 0)
(8.37843 -0.0588107 0)
(8.38238 -0.0663658 0)
(8.38639 -0.0745044 0)
(8.39043 -0.0832502 0)
(8.3945 -0.0926279 0)
(8.39859 -0.102663 0)
(8.40267 -0.113381 0)
(8.40673 -0.12481 0)
(8.41074 -0.136975 0)
(8.41468 -0.149903 0)
(8.41853 -0.163621 0)
(8.42224 -0.178155 0)
(8.42578 -0.193529 0)
(8.42911 -0.209766 0)
(8.43219 -0.226888 0)
(8.43496 -0.244899 0)
(8.33304 -0.000492485 0)
(8.33342 -0.00154724 0)
(8.33426 -0.00274309 0)
(8.33547 -0.00414295 0)
(8.337 -0.00579251 0)
(8.33883 -0.00773007 0)
(8.34092 -0.00998761 0)
(8.34323 -0.0125913 0)
(8.34573 -0.0155631 0)
(8.34841 -0.0189226 0)
(8.35122 -0.0226877 0)
(8.35416 -0.0268757 0)
(8.3572 -0.0315036 0)
(8.36033 -0.0365889 0)
(8.36354 -0.0421493 0)
(8.3668 -0.0482034 0)
(8.37012 -0.0547705 0)
(8.37346 -0.0618707 0)
(8.37683 -0.0695247 0)
(8.38022 -0.077754 0)
(8.38359 -0.0865807 0)
(8.38695 -0.0960272 0)
(8.39027 -0.106116 0)
(8.39353 -0.116871 0)
(8.39671 -0.128314 0)
(8.39979 -0.140467 0)
(8.40274 -0.153352 0)
(8.40552 -0.166991 0)
(8.40812 -0.181402 0)
(8.41047 -0.196602 0)
(8.41256 -0.212607 0)
(8.41432 -0.22943 0)
(8.41572 -0.247066 0)
(8.33303 -0.000616307 0)
(8.33338 -0.00191613 0)
(8.33413 -0.0033487 0)
(8.33523 -0.00497397 0)
(8.33661 -0.00683545 0)
(8.33825 -0.00897034 0)
(8.34012 -0.0114103 0)
(8.3422 -0.014182 0)
(8.34444 -0.0173082 0)
(8.34681 -0.0208095 0)
(8.34931 -0.0247049 0)
(8.3519 -0.0290127 0)
(8.35457 -0.0337509 0)
(8.35729 -0.0389373 0)
(8.36005 -0.0445903 0)
(8.36285 -0.0507282 0)
(8.36565 -0.0573701 0)
(8.36845 -0.0645353 0)
(8.37123 -0.0722434 0)
(8.37398 -0.0805143 0)
(8.37668 -0.0893682 0)
(8.37932 -0.0988252 0)
(8.38186 -0.108905 0)
(8.3843 -0.119627 0)
(8.38661 -0.131011 0)
(8.38876 -0.143073 0)
(8.39073 -0.155832 0)
(8.39248 -0.169301 0)
(8.39398 -0.183495 0)
(8.39519 -0.198423 0)
(8.39607 -0.214094 0)
(8.39658 -0.230512 0)
(8.39668 -0.247667 0)
(8.33303 -0.000730833 0)
(8.33334 -0.00225692 0)
(8.33401 -0.0039075 0)
(8.33499 -0.00573968 0)
(8.33622 -0.00779478 0)
(8.33768 -0.0101085 0)
(8.33934 -0.012712 0)
(8.34118 -0.0156318 0)
(8.34315 -0.0188915 0)
(8.34524 -0.0225122 0)
(8.34741 -0.0265139 0)
(8.34965 -0.0309157 0)
(8.35193 -0.0357361 0)
(8.35425 -0.0409933 0)
(8.35657 -0.0467056 0)
(8.35888 -0.0528913 0)
(8.36117 -0.0595685 0)
(8.36341 -0.0667558 0)
(8.3656 -0.0744714 0)
(8.36772 -0.0827335 0)
(8.36974 -0.0915599 0)
(8.37166 -0.100968 0)
(8.37343 -0.110975 0)
(8.37506 -0.121597 0)
(8.3765 -0.132849 0)
(8.37774 -0.144744 0)
(8.37875 -0.157294 0)
(8.37948 -0.170509 0)
(8.37992 -0.184396 0)
(8.38003 -0.198961 0)
(8.37976 -0.214203 0)
(8.37908 -0.230123 0)
(8.37796 -0.246702 0)
(8.33303 -0.000835653 0)
(8.3333 -0.00256859 0)
(8.3339 -0.00441837 0)
(8.33475 -0.00643971 0)
(8.33584 -0.00867166 0)
(8.33712 -0.0111482 0)
(8.33858 -0.0138992 0)
(8.34018 -0.0169507 0)
(8.34188 -0.0203258 0)
(8.34368 -0.0240462 0)
(8.34553 -0.028132 0)
(8.34742 -0.0326027 0)
(8.34932 -0.037477 0)
(8.35122 -0.0427735 0)
(8.35309 -0.0485102 0)
(8.35492 -0.0547049 0)
(8.35669 -0.0613754 0)
(8.35839 -0.0685387 0)
(8.35998 -0.0762119 0)
(8.36147 -0.0844113 0)
(8.36281 -0.0931526 0)
(8.36401 -0.102451 0)
(8.36503 -0.112319 0)
(8.36585 -0.122771 0)
(8.36645 -0.133818 0)
(8.36679 -0.145468 0)
(8.36686 -0.157729 0)
(8.36662 -0.170607 0)
(8.36605 -0.184103 0)
(8.3651 -0.198218 0)
(8.36374 -0.212945 0)
(8.36194 -0.22828 0)
(8.35968 -0.2442 0)
(8.33302 -0.000930203 0)
(8.33326 -0.00284886 0)
(8.33378 -0.0048761 0)
(8.33452 -0.00706368 0)
(8.33546 -0.00944789 0)
(8.33657 -0.0120607 0)
(8.33782 -0.0149313 0)
(8.33918 -0.0180852 0)
(8.34063 -0.0215459 0)
(8.34214 -0.0253352 0)
(8.34367 -0.0294738 0)
(8.34521 -0.0339811 0)
(8.34673 -0.038876 0)
(8.34822 -0.0441768 0)
(8.34965 -0.0499011 0)
(8.351 -0.0560659 0)
(8.35226 -0.0626879 0)
(8.3534 -0.0697829 0)
(8.35441 -0.0773662 0)
(8.35526 -0.085452 0)
(8.35594 -0.0940538 0)
(8.35643 -0.103184 0)
(8.35671 -0.112853 0)
(8.35674 -0.12307 0)
(8.35651 -0.133844 0)
(8.356 -0.145179 0)
(8.35517 -0.157079 0)
(8.35399 -0.169545 0)
(8.35245 -0.182574 0)
(8.3505 -0.196161 0)
(8.34812 -0.210299 0)
(8.34528 -0.224975 0)
(8.34195 -0.240165 0)
(8.33302 -0.0010143 0)
(8.33323 -0.00309925 0)
(8.33366 -0.00528858 0)
(8.3343 -0.00763212 0)
(8.3351 -0.0101626 0)
(8.33604 -0.012908 0)
(8.33709 -0.0158939 0)
(8.33823 -0.0191435 0)
(8.33942 -0.0226788 0)
(8.34064 -0.026521 0)
(8.34186 -0.0306905 0)
(8.34305 -0.0352073 0)
(8.3442 -0.0400903 0)
(8.34527 -0.0453579 0)
(8.34626 -0.0510276 0)
(8.34713 -0.0571162 0)
(8.34788 -0.0636393 0)
(8.34848 -0.070612 0)
(8.3489 -0.0780478 0)
(8.34914 -0.0859595 0)
(8.34917 -0.0943581 0)
(8.34897 -0.103254 0)
(8.34852 -0.112654 0)
(8.34779 -0.122566 0)
(8.34677 -0.132993 0)
(8.34542 -0.143939 0)
(8.34373 -0.155402 0)
(8.34167 -0.167379 0)
(8.33921 -0.179865 0)
(8.33633 -0.192852 0)
(8.33299 -0.206326 0)
(8.32917 -0.220274 0)
(8.32486 -0.23467 0)
(8.33302 -0.00108598 0)
(8.33318 -0.00330726 0)
(8.33354 -0.00562075 0)
(8.33406 -0.00807295 0)
(8.33471 -0.0106945 0)
(8.33549 -0.0135134 0)
(8.33635 -0.0165563 0)
(8.33727 -0.0198469 0)
(8.33821 -0.0234073 0)
(8.33916 -0.0272582 0)
(8.34007 -0.0314197 0)
(8.34093 -0.0359105 0)
(8.34171 -0.0407488 0)
(8.34239 -0.0459518 0)
(8.34295 -0.0515357 0)
(8.34336 -0.0575159 0)
(8.34361 -0.0639067 0)
(8.34367 -0.0707212 0)
(8.34353 -0.0779712 0)
(8.34317 -0.0856673 0)
(8.34256 -0.0938186 0)
(8.34169 -0.102432 0)
(8.34054 -0.111514 0)
(8.33908 -0.121067 0)
(8.3373 -0.131094 0)
(8.33516 -0.141593 0)
(8.33266 -0.15256 0)
(8.32976 -0.163991 0)
(8.32644 -0.175876 0)
(8.32268 -0.188204 0)
(8.31846 -0.20096 0)
(8.31375 -0.214128 0)
(8.30855 -0.227681 0)
(8.33302 -0.00114897 0)
(8.33315 -0.00350584 0)
(8.33345 -0.0059704 0)
(8.33387 -0.00858269 0)
(8.3344 -0.0113585 0)
(8.33502 -0.0143118 0)
(8.33569 -0.0174594 0)
(8.33639 -0.0208202 0)
(8.33709 -0.0244147 0)
(8.33776 -0.0282644 0)
(8.33837 -0.0323909 0)
(8.33889 -0.036815 0)
(8.33931 -0.0415567 0)
(8.33959 -0.0466343 0)
(8.33972 -0.0520652 0)
(8.33968 -0.0578649 0)
(8.33944 -0.0640476 0)
(8.33898 -0.0706257 0)
(8.33829 -0.07761 0)
(8.33735 -0.0850096 0)
(8.33613 -0.0928317 0)
(8.33462 -0.101082 0)
(8.3328 -0.109763 0)
(8.33064 -0.118877 0)
(8.32814 -0.128422 0)
(8.32526 -0.138395 0)
(8.32199 -0.14879 0)
(8.3183 -0.159599 0)
(8.31419 -0.170811 0)
(8.30962 -0.182412 0)
(8.30459 -0.194385 0)
(8.29906 -0.206713 0)
(8.29305 -0.219369 0)
(8.333 -0.00118479 0)
(8.33307 -0.00357418 0)
(8.33325 -0.00603151 0)
(8.33353 -0.00860957 0)
(8.33393 -0.0113395 0)
(8.33439 -0.0142477 0)
(8.33491 -0.0173555 0)
(8.33543 -0.0206802 0)
(8.33593 -0.024238 0)
(8.33636 -0.0280451 0)
(8.33671 -0.0321179 0)
(8.33693 -0.0364726 0)
(8.33702 -0.0411251 0)
(8.33694 -0.0460906 0)
(8.33667 -0.0513835 0)
(8.33619 -0.057017 0)
(8.33549 -0.063003 0)
(8.33454 -0.0693522 0)
(8.33332 -0.0760735 0)
(8.33182 -0.083174 0)
(8.33002 -0.0906593 0)
(8.3279 -0.0985328 0)
(8.32544 -0.106796 0)
(8.32262 -0.115448 0)
(8.31943 -0.124487 0)
(8.31585 -0.133906 0)
(8.31186 -0.143699 0)
(8.30745 -0.153855 0)
(8.3026 -0.164363 0)
(8.29729 -0.175207 0)
(8.29151 -0.186369 0)
(8.28525 -0.197832 0)
(8.27851 -0.20957 0)
(8.33303 -0.00125465 0)
(8.33314 -0.00387971 0)
(8.33331 -0.00666634 0)
(8.33353 -0.00959451 0)
(8.3338 -0.0126259 0)
(8.3341 -0.0157508 0)
(8.3344 -0.0189815 0)
(8.33469 -0.0223405 0)
(8.33493 -0.0258554 0)
(8.33508 -0.0295545 0)
(8.33512 -0.0334655 0)
(8.33502 -0.0376135 0)
(8.33476 -0.0420215 0)
(8.33431 -0.0467096 0)
(8.33364 -0.0516955 0)
(8.33274 -0.0569941 0)
(8.33159 -0.0626183 0)
(8.33016 -0.0685783 0)
(8.32845 -0.0748825 0)
(8.32642 -0.0815368 0)
(8.32407 -0.0885452 0)
(8.32138 -0.0959093 0)
(8.31832 -0.103629 0)
(8.3149 -0.111701 0)
(8.31108 -0.120121 0)
(8.30686 -0.128881 0)
(8.30221 -0.137973 0)
(8.29714 -0.147385 0)
(8.29162 -0.157103 0)
(8.28564 -0.167111 0)
(8.2792 -0.177392 0)
(8.27228 -0.187926 0)
(8.26488 -0.198687 0)
(8.33294 -0.0011208 0)
(8.33276 -0.00327211 0)
(8.33266 -0.00550479 0)
(8.33272 -0.00793942 0)
(8.33292 -0.0106082 0)
(8.33319 -0.0135091 0)
(8.33347 -0.016626 0)
(8.3337 -0.0199454 0)
(8.33385 -0.023463 0)
(8.33387 -0.0271816 0)
(8.33373 -0.0311088 0)
(8.3334 -0.0352555 0)
(8.33286 -0.0396342 0)
(8.33209 -0.0442581 0)
(8.33108 -0.0491401 0)
(8.32979 -0.054292 0)
(8.32821 -0.0597247 0)
(8.32634 -0.0654472 0)
(8.32414 -0.071467 0)
(8.32161 -0.0777895 0)
(8.31873 -0.0844182 0)
(8.31548 -0.0913545 0)
(8.31186 -0.0985976 0)
(8.30785 -0.106145 0)
(8.30344 -0.11399 0)
(8.29861 -0.122128 0)
(8.29335 -0.130548 0)
(8.28766 -0.139238 0)
(8.28153 -0.148186 0)
(8.27494 -0.157375 0)
(8.26789 -0.166789 0)
(8.26038 -0.17641 0)
(8.2524 -0.186213 0)
(8.33313 -0.0015608 0)
(8.33341 -0.00494902 0)
(8.33345 -0.00853115 0)
(8.33337 -0.0120396 0)
(8.33327 -0.0153706 0)
(8.33318 -0.0185565 0)
(8.33309 -0.0216647 0)
(8.33296 -0.0247634 0)
(8.33277 -0.0279133 0)
(8.33246 -0.0311662 0)
(8.332 -0.034565 0)
(8.33135 -0.0381445 0)
(8.3305 -0.0419328 0)
(8.3294 -0.0459523 0)
(8.32804 -0.0502206 0)
(8.32639 -0.0547514 0)
(8.32444 -0.0595554 0)
(8.32216 -0.0646401 0)
(8.31955 -0.0700108 0)
(8.31658 -0.0756701 0)
(8.31325 -0.0816187 0)
(8.30953 -0.087855 0)
(8.30542 -0.0943756 0)
(8.30091 -0.101175 0)
(8.29598 -0.108245 0)
(8.29063 -0.115578 0)
(8.28485 -0.12316 0)
(8.27863 -0.130981 0)
(8.27197 -0.139024 0)
(8.26485 -0.147275 0)
(8.25729 -0.155714 0)
(8.24927 -0.164324 0)
(8.2408 -0.173083 0)
(8.3327 -0.000216923 0)
(8.33176 -0.000608251 0)
(8.33122 -0.00167392 0)
(8.33124 -0.00360265 0)
(8.33155 -0.00623312 0)
(8.33189 -0.00931894 0)
(8.33215 -0.0126803 0)
(8.33227 -0.0162209 0)
(8.3322 -0.0198927 0)
(8.33191 -0.0236743 0)
(8.33137 -0.027562 0)
(8.33057 -0.0315633 0)
(8.32948 -0.035691 0)
(8.3281 -0.0399607 0)
(8.32641 -0.0443882 0)
(8.32439 -0.0489883 0)
(8.32203 -0.0537744 0)
(8.31933 -0.0587579 0)
(8.31626 -0.0639481 0)
(8.31282 -0.0693516 0)
(8.309 -0.0749731 0)
(8.30479 -0.0808146 0)
(8.30018 -0.0868759 0)
(8.29515 -0.0931546 0)
(8.28972 -0.0996461 0)
(8.28386 -0.106344 0)
(8.27757 -0.113239 0)
(8.27085 -0.120321 0)
(8.26369 -0.127577 0)
(8.25611 -0.134994 0)
(8.24808 -0.142557 0)
(8.23962 -0.15025 0)
(8.23074 -0.158052 0)
(8.33344 -0.00266841 0)
(8.33399 -0.00910647 0)
(8.33336 -0.0150562 0)
(8.33234 -0.0195363 0)
(8.33146 -0.0229021 0)
(8.33083 -0.0256052 0)
(8.33036 -0.0279444 0)
(8.32993 -0.0301175 0)
(8.32945 -0.0322615 0)
(8.32884 -0.0344716 0)
(8.32806 -0.036813 0)
(8.32706 -0.0393287 0)
(8.3258 -0.0420472 0)
(8.32424 -0.0449873 0)
(8.32237 -0.0481608 0)
(8.32016 -0.0515752 0)
(8.31761 -0.0552343 0)
(8.31469 -0.0591396 0)
(8.31138 -0.0632902 0)
(8.30769 -0.0676838 0)
(8.3036 -0.0723161 0)
(8.29911 -0.0771818 0)
(8.2942 -0.0822736 0)
(8.28887 -0.0875832 0)
(8.28313 -0.0931008 0)
(8.27695 -0.0988152 0)
(8.27035 -0.104714 0)
(8.26332 -0.110784 0)
(8.25586 -0.11701 0)
(8.24798 -0.123377 0)
(8.23967 -0.129869 0)
(8.23095 -0.136468 0)
(8.22182 -0.143156 0)
(8.33166 0.0031593 0)
(8.32852 0.00873826 0)
(8.3283 0.0107904 0)
(8.32962 0.00928156 0)
(8.33083 0.00573752 0)
(8.33162 0.00146293 0)
(8.33203 -0.00303319 0)
(8.33207 -0.00755309 0)
(8.33176 -0.0119945 0)
(8.33111 -0.0163192 0)
(8.33013 -0.0205305 0)
(8.32882 -0.0246518 0)
(8.32718 -0.0287134 0)
(8.32522 -0.0327475 0)
(8.32292 -0.036785 0)
(8.32028 -0.0408543 0)
(8.31729 -0.0449797 0)
(8.31395 -0.0491823 0)
(8.31025 -0.0534791 0)
(8.30617 -0.0578837 0)
(8.30171 -0.0624063 0)
(8.29687 -0.067054 0)
(8.29165 -0.0718309 0)
(8.28602 -0.0767387 0)
(8.28001 -0.0817765 0)
(8.27359 -0.086941 0)
(8.26678 -0.0922271 0)
(8.25957 -0.0976276 0)
(8.25197 -0.103134 0)
(8.24397 -0.108735 0)
(8.23559 -0.114421 0)
(8.22683 -0.120177 0)
(8.21771 -0.12599 0)
(8.33422 -0.00698187 0)
(8.33402 -0.0223889 0)
(8.32935 -0.0330452 0)
(8.32474 -0.0380339 0)
(8.32228 -0.0398901 0)
(8.32138 -0.0405042 0)
(8.32109 -0.0405834 0)
(8.32101 -0.0404983 0)
(8.32098 -0.0404943 0)
(8.32086 -0.0407018 0)
(8.32055 -0.0411808 0)
(8.32 -0.0419562 0)
(8.31916 -0.0430344 0)
(8.318 -0.0444106 0)
(8.31651 -0.0460751 0)
(8.31466 -0.0480157 0)
(8.31244 -0.0502192 0)
(8.30985 -0.0526726 0)
(8.30687 -0.0553633 0)
(8.3035 -0.0582786 0)
(8.29973 -0.0614065 0)
(8.29557 -0.0647347 0)
(8.291 -0.068251 0)
(8.28604 -0.0719431 0)
(8.28069 -0.0757981 0)
(8.27494 -0.0798031 0)
(8.2688 -0.0839443 0)
(8.26228 -0.0882078 0)
(8.25538 -0.0925791 0)
(8.24811 -0.0970437 0)
(8.24049 -0.101587 0)
(8.23251 -0.106193 0)
(8.2242 -0.110848 0)
(8.32886 0.0223372 0)
(8.32223 0.0420037 0)
(8.3263 0.0429341 0)
(8.3321 0.0365289 0)
(8.33504 0.0286148 0)
(8.33625 0.0206678 0)
(8.33697 0.0130907 0)
(8.33743 0.00610939 0)
(8.33771 -0.000215842 0)
(8.33786 -0.00593242 0)
(8.3379 -0.0111208 0)
(8.33781 -0.0158659 0)
(8.33757 -0.0202497 0)
(8.33716 -0.0243472 0)
(8.33654 -0.0282245 0)
(8.33569 -0.0319385 0)
(8.3346 -0.0355373 0)
(8.33325 -0.0390616 0)
(8.33162 -0.042545 0)
(8.32971 -0.0460154 0)
(8.3275 -0.0494955 0)
(8.32499 -0.0530033 0)
(8.32219 -0.0565528 0)
(8.31908 -0.0601544 0)
(8.31568 -0.0638154 0)
(8.31198 -0.06754 0)
(8.30799 -0.0713299 0)
(8.30371 -0.0751843 0)
(8.29915 -0.0791005 0)
(8.29431 -0.0830736 0)
(8.28921 -0.0870978 0)
(8.28383 -0.0911645 0)
(8.27819 -0.0952672 0)
(8.32431 -0.0383241 0)
(8.29362 -0.0692652 0)
(8.27112 -0.0734835 0)
(8.26563 -0.0714586 0)
(8.27284 -0.0680974 0)
(8.28557 -0.0640521 0)
(8.30027 -0.0601099 0)
(8.31544 -0.0567151 0)
(8.33024 -0.0539514 0)
(8.34422 -0.0518094 0)
(8.35717 -0.050257 0)
(8.36903 -0.0492436 0)
(8.37982 -0.0487129 0)
(8.38957 -0.0486122 0)
(8.39833 -0.0488949 0)
(8.40617 -0.0495201 0)
(8.41314 -0.050453 0)
(8.41929 -0.0516637 0)
(8.42467 -0.0531265 0)
(8.42933 -0.0548193 0)
(8.43329 -0.0567221 0)
(8.43659 -0.0588171 0)
(8.43925 -0.0610876 0)
(8.44128 -0.0635174 0)
(8.4427 -0.0660909 0)
(8.44351 -0.0687921 0)
(8.44373 -0.071605 0)
(8.44334 -0.0745128 0)
(8.44235 -0.0774984 0)
(8.44074 -0.0805436 0)
(8.43852 -0.0836304 0)
(8.43566 -0.086738 0)
(8.43218 -0.0898505 0)
(8.34002 0.156894 0)
(8.38161 0.148777 0)
(8.40167 0.102797 0)