/*--------------------------------*- C++ -*----------------------------------*\
| =========                 |                                                 |
| \\      /  F ield         | OpenFOAM: The Open Source CFD Toolbox           |
|  \\    /   O peration     | Version:  2.1.1                                 |
|   \\  /    A nd           | Web:      www.OpenFOAM.org                      |
|    \\/     M anipulation  |                                                 |
\*---------------------------------------------------------------------------*/
FoamFile
{
    version     2.0;
    format      ascii;
    class       volScalarField;
    location    "0.07";
    object      nuSgs;
}
// * * * * * * * * * * * * * * * * * * * * * * * * * * * * * * * * * * * * * //

dimensions      [0 2 -1 0 0 0 0];

internalField   nonuniform List<scalar> 
6820
(
0.000556015
0.000457351
0.000367946
0.000305743
0.000268334
0.000242475
0.000223359
0.000208656
0.000196702
0.000186588
0.000177794
0.000169985
0.000162934
0.000156482
0.000150509
0.000144924
0.000139654
0.00013464
0.000129835
0.000125197
0.000120688
0.000116277
0.000111934
0.000107633
0.000103348
9.90551e-05
9.47334e-05
9.03664e-05
8.59286e-05
8.14389e-05
7.68049e-05
7.21954e-05
6.64608e-05
0.000103516
0.000170712
0.000223726
0.000240086
0.000235287
0.000224864
0.000213092
0.000201721
0.000191396
0.000182133
0.000173814
0.000166306
0.000159485
0.000153247
0.000147506
0.000142191
0.000137245
0.000132617
0.000128265
0.000124156
0.000120257
0.000116543
0.000112991
0.00010958
0.000106292
0.000103109
0.000100016
9.69898e-05
9.40238e-05
9.10515e-05
8.81029e-05
8.48871e-05
8.15763e-05
3.67712e-05
2.84516e-05
4.57146e-05
8.25083e-05
0.000108248
0.000123928
0.000132428
0.000136339
0.000137491
0.000136957
0.00013538
0.000133161
0.00013055
0.000127715
0.000124764
0.000121768
0.000118777
0.000115824
0.00011293
0.00011011
0.000107374
0.000104726
0.000102171
9.97096e-05
9.73423e-05
9.50678e-05
9.2884e-05
9.07839e-05
8.8764e-05
8.67883e-05
8.48561e-05
8.28349e-05
8.08091e-05
2.07364e-05
2.8659e-05
2.65042e-05
1.49649e-05
3.59956e-06
1.41817e-05
2.61741e-05
3.6166e-05
4.42618e-05
5.07345e-05
5.58584e-05
5.98786e-05
6.29956e-05
6.53697e-05
6.71375e-05
6.8412e-05
6.9287e-05
6.98401e-05
7.01358e-05
7.0228e-05
7.0162e-05
6.99759e-05
6.9702e-05
6.93677e-05
6.89966e-05
6.86086e-05
6.82205e-05
6.78447e-05
6.74923e-05
6.71635e-05
6.68663e-05
6.6626e-05
6.65088e-05
1.4426e-05
1.75546e-05
2.25768e-05
2.42769e-05
2.39415e-05
2.19326e-05
1.89875e-05
1.56447e-05
1.2138e-05
8.61824e-06
5.19427e-06
1.95561e-06
1.30208e-06
4.11276e-06
6.76511e-06
9.21188e-06
1.14589e-05
1.35203e-05
1.54136e-05
1.71583e-05
1.87749e-05
2.02841e-05
2.17067e-05
2.3063e-05
2.43733e-05
2.56569e-05
2.69328e-05
2.82191e-05
2.95336e-05
3.08964e-05
3.23278e-05
3.39093e-05
3.56762e-05
1.093e-05
1.24645e-05
1.37764e-05
1.42933e-05
1.50936e-05
1.57493e-05
1.61408e-05
1.63579e-05
1.6402e-05
1.62764e-05
1.6003e-05
1.56044e-05
1.50996e-05
1.45027e-05
1.38312e-05
1.31011e-05
1.23254e-05
1.15144e-05
1.06756e-05
9.81352e-06
8.93032e-06
8.02587e-06
7.09795e-06
6.14239e-06
5.15318e-06
4.12251e-06
3.04077e-06
1.89631e-06
6.80726e-07
6.78725e-07
2.12447e-06
3.7905e-06
5.6967e-06
8.2599e-06
9.39754e-06
1.01936e-05
9.98432e-06
9.79491e-06
9.62122e-06
9.44502e-06
9.36767e-06
9.37743e-06
9.42971e-06
9.49723e-06
9.56141e-06
9.61171e-06
9.64446e-06
9.6562e-06
9.64506e-06
9.61051e-06
9.55277e-06
9.47243e-06
9.37017e-06
9.24654e-06
9.10184e-06
8.93592e-06
8.74811e-06
8.53701e-06
8.30024e-06
8.03424e-06
7.73303e-06
7.38864e-06
6.9845e-06
6.50414e-06
5.90483e-06
5.17345e-06
6.38232e-06
7.38236e-06
8.16087e-06
8.0118e-06
7.69447e-06
7.34935e-06
6.96605e-06
6.6352e-06
6.37554e-06
6.16668e-06
5.99607e-06
5.85465e-06
5.73351e-06
5.62615e-06
5.52822e-06
5.43645e-06
5.34818e-06
5.26132e-06
5.1743e-06
5.08593e-06
4.99534e-06
4.90192e-06
4.80525e-06
4.70507e-06
4.60124e-06
4.49355e-06
4.38174e-06
4.26489e-06
4.14171e-06
4.00861e-06
3.8638e-06
3.70513e-06
3.54041e-06
5.02841e-06
5.83767e-06
6.4864e-06
6.46417e-06
6.28686e-06
6.0715e-06
5.78001e-06
5.4836e-06
5.22023e-06
4.9861e-06
4.77638e-06
4.5875e-06
4.41448e-06
4.253e-06
4.09991e-06
3.95271e-06
3.80931e-06
3.66801e-06
3.52738e-06
3.38617e-06
3.24327e-06
3.0977e-06
2.94863e-06
2.79534e-06
2.63735e-06
2.47438e-06
2.30661e-06
2.13473e-06
1.96116e-06
1.79106e-06
1.63902e-06
1.53739e-06
1.54378e-06
4.02964e-06
4.69254e-06
5.25468e-06
5.30537e-06
5.19068e-06
5.03282e-06
4.80704e-06
4.56689e-06
4.34924e-06
4.15288e-06
3.9731e-06
3.80754e-06
3.6529e-06
3.50603e-06
3.36462e-06
3.22689e-06
3.0913e-06
2.95652e-06
2.82136e-06
2.68479e-06
2.54587e-06
2.4038e-06
2.25796e-06
2.10802e-06
1.95406e-06
1.79693e-06
1.63889e-06
1.48478e-06
1.34486e-06
1.2384e-06
1.19982e-06
1.26997e-06
1.48416e-06
3.27702e-06
3.82698e-06
4.31495e-06
4.40269e-06
4.33285e-06
4.22083e-06
4.04866e-06
3.85174e-06
3.66392e-06
3.48915e-06
3.32584e-06
3.17376e-06
3.03136e-06
2.89635e-06
2.76686e-06
2.64132e-06
2.5183e-06
2.3966e-06
2.27521e-06
2.15332e-06
2.03033e-06
1.90593e-06
1.78019e-06
1.65378e-06
1.52836e-06
1.40718e-06
1.29621e-06
1.20562e-06
1.15172e-06
1.15579e-06
1.24093e-06
1.41781e-06
1.69575e-06
2.69736e-06
3.15895e-06
3.59183e-06
3.71067e-06
3.68293e-06
3.60627e-06
3.47096e-06
3.30386e-06
3.13705e-06
2.9784e-06
2.82817e-06
2.6869e-06
2.5539e-06
2.42755e-06
2.30639e-06
2.18919e-06
2.07487e-06
1.96257e-06
1.85163e-06
1.74166e-06
1.6326e-06
1.52485e-06
1.41954e-06
1.3188e-06
1.22638e-06
1.14831e-06
1.09364e-06
1.07433e-06
1.1038e-06
1.19247e-06
1.34736e-06
1.56571e-06
1.85302e-06
2.24098e-06
2.63572e-06
3.02835e-06
3.16899e-06
3.1735e-06
3.1243e-06
3.01989e-06
2.88116e-06
2.736e-06
2.5938e-06
2.45621e-06
2.32471e-06
2.19972e-06
2.08056e-06
1.9664e-06
1.85651e-06
1.75023e-06
1.64707e-06
1.54681e-06
1.44957e-06
1.35596e-06
1.26731e-06
1.1859e-06
1.11538e-06
1.06107e-06
1.03005e-06
1.03056e-06
1.07038e-06
1.15529e-06
1.28725e-06
1.46754e-06
1.6914e-06
1.96444e-06
1.87421e-06
2.21944e-06
2.58286e-06
2.74092e-06
2.77362e-06
2.74902e-06
2.67069e-06
2.55571e-06
2.42852e-06
2.29987e-06
2.17307e-06
2.0505e-06
1.93337e-06
1.82171e-06
1.71516e-06
1.61341e-06
1.5162e-06
1.42348e-06
1.33553e-06
1.25306e-06
1.17743e-06
1.11078e-06
1.05624e-06
1.01804e-06
1.00128e-06
1.0113e-06
1.05279e-06
1.12873e-06
1.2405e-06
1.38741e-06
1.56976e-06
1.78308e-06
2.0328e-06
1.57353e-06
1.88354e-06
2.22687e-06
2.39991e-06
2.45664e-06
2.45295e-06
2.39618e-06
2.30165e-06
2.191e-06
2.07554e-06
1.95966e-06
1.84632e-06
1.73737e-06
1.63349e-06
1.53489e-06
1.44174e-06
1.35428e-06
1.27295e-06
1.19851e-06
1.1322e-06
1.07587e-06
1.03198e-06
1.00363e-06
9.94316e-07
1.00746e-06
1.04585e-06
1.11128e-06
1.20433e-06
1.32495e-06
1.47199e-06
1.6456e-06
1.84176e-06
2.06539e-06
1.32219e-06
1.60896e-06
1.93957e-06
2.12619e-06
2.20416e-06
2.21961e-06
2.18218e-06
2.10617e-06
2.01084e-06
1.90762e-06
1.8019e-06
1.69732e-06
1.59636e-06
1.50036e-06
1.41008e-06
1.32613e-06
1.24917e-06
1.18001e-06
1.11975e-06
1.06987e-06
1.03221e-06
1.00896e-06
1.00243e-06
1.01479e-06
1.04773e-06
1.10229e-06
1.17884e-06
1.2771e-06
1.39665e-06
1.53635e-06
1.69626e-06
1.87274e-06
2.07017e-06
1.10803e-06
1.3819e-06
1.70613e-06
1.9057e-06
2.0029e-06
2.03601e-06
2.01601e-06
1.95668e-06
1.87554e-06
1.78406e-06
1.68841e-06
1.59282e-06
1.50029e-06
1.41266e-06
1.33116e-06
1.25678e-06
1.19048e-06
1.1333e-06
1.08643e-06
1.05126e-06
1.02928e-06
1.02202e-06
1.03082e-06
1.05672e-06
1.10033e-06
1.16178e-06
1.24089e-06
1.33713e-06
1.44997e-06
1.57834e-06
1.72219e-06
1.87823e-06
2.05032e-06
9.22087e-07
1.19247e-06
1.51586e-06
1.72815e-06
1.84303e-06
1.89277e-06
1.88904e-06
1.84532e-06
1.7778e-06
1.69783e-06
1.61217e-06
1.52557e-06
1.44147e-06
1.3622e-06
1.28935e-06
1.22423e-06
1.16798e-06
1.12166e-06
1.08636e-06
1.06314e-06
1.05298e-06
1.05673e-06
1.07497e-06
1.10802e-06
1.15589e-06
1.21833e-06
1.29492e-06
1.38506e-06
1.4882e-06
1.60334e-06
1.73033e-06
1.86626e-06
2.0145e-06
7.57768e-07
1.03384e-06
1.36125e-06
1.58618e-06
1.71755e-06
1.78307e-06
1.79468e-06
1.76562e-06
1.71108e-06
1.64225e-06
1.56634e-06
1.48855e-06
1.41271e-06
1.34147e-06
1.27673e-06
1.21993e-06
1.17225e-06
1.13466e-06
1.10802e-06
1.09302e-06
1.0902e-06
1.09991e-06
1.12226e-06
1.15716e-06
1.20437e-06
1.26345e-06
1.33394e-06
1.4152e-06
1.5067e-06
1.6075e-06
1.71736e-06
1.83373e-06
1.95958e-06
6.10461e-07
9.01742e-07
1.23729e-06
1.47475e-06
1.6215e-06
1.702e-06
1.72816e-06
1.71302e-06
1.67094e-06
1.61297e-06
1.54663e-06
1.47744e-06
1.40953e-06
1.34582e-06
1.28838e-06
1.23872e-06
1.19799e-06
1.16703e-06
1.14642e-06
1.13657e-06
1.13767e-06
1.14973e-06
1.1726e-06
1.20599e-06
1.24952e-06
1.30271e-06
1.36505e-06
1.43595e-06
1.51488e-06
1.60099e-06
1.69403e-06
1.7918e-06
1.89695e-06
4.77746e-07
7.94411e-07
1.14102e-06
1.39061e-06
1.55162e-06
1.64625e-06
1.68616e-06
1.68409e-06
1.65378e-06
1.60603e-06
1.54855e-06
1.48714e-06
1.42612e-06
1.36858e-06
1.31672e-06
1.27206e-06
1.2357e-06
1.20835e-06
1.19041e-06
1.18209e-06
1.18339e-06
1.19414e-06
1.21407e-06
1.2428e-06
1.27991e-06
1.32492e-06
1.37735e-06
1.43664e-06
1.5023e-06
1.57357e-06
1.65019e-06
1.73026e-06
1.81612e-06
3.60962e-07
7.12616e-07
1.0712e-06
1.33201e-06
1.50607e-06
1.61389e-06
1.66676e-06
1.67704e-06
1.65791e-06
1.61996e-06
1.57101e-06
1.51699e-06
1.46236e-06
1.41033e-06
1.36314e-06
1.32232e-06
1.28888e-06
1.26343e-06
1.24625e-06
1.2374e-06
1.23677e-06
1.24411e-06
1.25911e-06
1.28137e-06
1.31048e-06
1.34599e-06
1.38747e-06
1.43443e-06
1.48643e-06
1.54286e-06
1.60345e-06
1.66672e-06
1.73472e-06
2.70521e-07
6.59577e-07
1.02806e-06
1.29846e-06
1.48406e-06
1.60391e-06
1.6686e-06
1.69002e-06
1.68079e-06
1.65123e-06
1.60916e-06
1.56064e-06
1.51024e-06
1.46127e-06
1.41603e-06
1.37609e-06
1.34246e-06
1.3157e-06
1.29605e-06
1.28354e-06
1.27802e-06
1.27923e-06
1.28684e-06
1.3005e-06
1.31983e-06
1.34445e-06
1.37399e-06
1.40803e-06
1.44622e-06
1.48805e-06
1.53331e-06
1.58072e-06
1.63215e-06
2.35556e-07
6.40124e-07
1.01295e-06
1.29062e-06
1.48622e-06
1.61709e-06
1.69293e-06
1.72503e-06
1.72552e-06
1.70441e-06
1.66943e-06
1.62665e-06
1.58064e-06
1.53472e-06
1.49122e-06
1.45169e-06
1.41713e-06
1.38807e-06
1.36479e-06
1.34729e-06
1.33546e-06
1.32907e-06
1.32787e-06
1.33156e-06
1.33984e-06
1.35241e-06
1.369e-06
1.38931e-06
1.41308e-06
1.43996e-06
1.46982e-06
1.50178e-06
1.53735e-06
2.82597e-07
6.58719e-07
1.02791e-06
1.30981e-06
1.51329e-06
1.65328e-06
1.73815e-06
1.77841e-06
1.7857e-06
1.76976e-06
1.73834e-06
1.69757e-06
1.65213e-06
1.60544e-06
1.55993e-06
1.51722e-06
1.47833e-06
1.44385e-06
1.41406e-06
1.38899e-06
1.36856e-06
1.3526e-06
1.34089e-06
1.33321e-06
1.32935e-06
1.32909e-06
1.33228e-06
1.33872e-06
1.34827e-06
1.36071e-06
1.37598e-06
1.39336e-06
1.41427e-06
3.91784e-07
7.17339e-07
1.07536e-06
1.35881e-06
1.56905e-06
1.71814e-06
1.81287e-06
1.86282e-06
1.87893e-06
1.8705e-06
1.84497e-06
1.80828e-06
1.76509e-06
1.71881e-06
1.67191e-06
1.62608e-06
1.58246e-06
1.54173e-06
1.50427e-06
1.47022e-06
1.43962e-06
1.41239e-06
1.38842e-06
1.3676e-06
1.34982e-06
1.335e-06
1.32308e-06
1.31402e-06
1.30781e-06
1.30443e-06
1.30392e-06
1.30601e-06
1.31171e-06
5.38153e-07
8.16095e-07
1.15817e-06
1.43989e-06
1.65341e-06
1.8072e-06
1.90616e-06
1.95909e-06
1.97677e-06
1.96849e-06
1.9418e-06
1.90281e-06
1.85623e-06
1.80556e-06
1.75329e-06
1.70112e-06
1.65018e-06
1.60114e-06
1.55441e-06
1.51015e-06
1.46842e-06
1.4292e-06
1.39246e-06
1.35816e-06
1.32629e-06
1.29688e-06
1.27001e-06
1.24578e-06
1.22431e-06
1.20574e-06
1.19023e-06
1.17762e-06
1.16899e-06
7.13505e-07
9.53624e-07
1.27916e-06
1.55956e-06
1.77939e-06
1.94359e-06
2.0544e-06
2.11881e-06
2.14635e-06
2.14557e-06
2.12357e-06
2.08635e-06
2.03878e-06
1.98456e-06
1.92649e-06
1.86656e-06
1.80619e-06
1.7463e-06
1.68748e-06
1.63009e-06
1.57431e-06
1.52025e-06
1.46795e-06
1.41746e-06
1.36885e-06
1.32222e-06
1.27773e-06
1.23559e-06
1.19605e-06
1.15944e-06
1.12606e-06
1.09634e-06
1.0707e-06
9.20798e-07
1.13483e-06
1.44511e-06
1.71873e-06
1.93388e-06
2.09316e-06
2.19804e-06
2.25601e-06
2.27736e-06
2.27093e-06
2.24378e-06
2.20166e-06
2.1491e-06
2.0895e-06
2.02534e-06
1.95844e-06
1.89007e-06
1.82111e-06
1.75215e-06
1.68356e-06
1.61561e-06
1.54846e-06
1.48224e-06
1.41708e-06
1.35312e-06
1.29056e-06
1.22964e-06
1.17065e-06
1.11397e-06
1.06001e-06
1.00919e-06
9.61977e-07
9.19113e-07
1.1634e-06
1.35619e-06
1.65757e-06
1.93811e-06
2.17168e-06
2.35475e-06
2.48234e-06
2.55807e-06
2.59081e-06
2.58931e-06
2.56127e-06
2.51349e-06
2.45159e-06
2.37994e-06
2.30182e-06
2.21966e-06
2.13514e-06
2.04945e-06
1.96335e-06
1.87736e-06
1.79179e-06
1.70682e-06
1.6226e-06
1.53923e-06
1.45683e-06
1.37555e-06
1.2956e-06
1.21724e-06
1.14079e-06
1.06673e-06
9.95422e-07
9.27854e-07
8.63564e-07
1.46196e-06
1.65073e-06
1.94062e-06
2.19709e-06
2.39914e-06
2.55139e-06
2.65396e-06
2.71283e-06
2.73668e-06
2.73224e-06
2.70471e-06
2.65876e-06
2.59842e-06
2.52705e-06
2.44738e-06
2.36162e-06
2.27153e-06
2.17846e-06
2.08341e-06
1.98715e-06
1.89022e-06
1.79301e-06
1.69583e-06
1.59888e-06
1.50238e-06
1.40649e-06
1.31143e-06
1.21742e-06
1.12471e-06
1.0336e-06
9.44324e-07
8.57427e-07
7.72501e-07
1.80797e-06
1.97592e-06
2.28586e-06
2.6012e-06
2.87649e-06
3.09156e-06
3.23314e-06
3.30684e-06
3.32681e-06
3.30589e-06
3.25443e-06
3.18102e-06
3.09229e-06
2.99303e-06
2.88667e-06
2.77562e-06
2.66158e-06
2.54575e-06
2.42894e-06
2.31174e-06
2.19455e-06
2.07768e-06
1.96134e-06
1.8457e-06
1.73093e-06
1.61717e-06
1.5046e-06
1.39341e-06
1.28384e-06
1.17623e-06
1.07066e-06
9.68162e-07
8.66529e-07
2.29703e-06
2.49587e-06
2.74848e-06
2.93916e-06
3.09581e-06
3.23853e-06
3.3556e-06
3.43901e-06
3.48754e-06
3.50121e-06
3.48199e-06
3.43415e-06
3.36281e-06
3.27287e-06
3.16871e-06
3.05409e-06
2.93207e-06
2.80505e-06
2.67489e-06
2.54297e-06
2.41032e-06
2.27771e-06
2.14566e-06
2.0146e-06
1.88482e-06
1.75658e-06
1.63011e-06
1.50566e-06
1.3835e-06
1.26396e-06
1.14727e-06
1.03425e-06
9.2349e-07
2.78211e-06
2.94609e-06
3.40442e-06
3.87005e-06
4.22238e-06
4.44454e-06
4.54728e-06
4.56223e-06
4.51969e-06
4.43811e-06
4.32887e-06
4.20008e-06
4.0574e-06
3.90472e-06
3.74508e-06
3.58097e-06
3.41445e-06
3.24726e-06
3.08079e-06
2.91617e-06
2.75425e-06
2.59566e-06
2.44086e-06
2.29014e-06
2.14369e-06
2.00164e-06
1.86412e-06
1.73125e-06
1.60323e-06
1.48047e-06
1.36321e-06
1.253e-06
1.14727e-06
3.83393e-06
3.9816e-06
3.95305e-06
3.93703e-06
4.09149e-06
4.34169e-06
4.56524e-06
4.71478e-06
4.78837e-06
4.79623e-06
4.75488e-06
4.6823e-06
4.59306e-06
4.49742e-06
4.40192e-06
4.31023e-06
4.22392e-06
4.14324e-06
4.06773e-06
3.99666e-06
3.92921e-06
3.86466e-06
3.80241e-06
3.74202e-06
3.68316e-06
3.6256e-06
3.56921e-06
3.51395e-06
3.45988e-06
3.40728e-06
3.35654e-06
3.30951e-06
3.26457e-06
4.3084e-06
4.95131e-06
5.98934e-06
6.51295e-06
6.65989e-06
6.6595e-06
6.66212e-06
6.77031e-06
7.0143e-06
7.36516e-06
7.77664e-06
8.20705e-06
8.62434e-06
9.00694e-06
9.34248e-06
9.62536e-06
9.85451e-06
1.00317e-05
1.01606e-05
1.02454e-05
1.02909e-05
1.03018e-05
1.02826e-05
1.02372e-05
1.01693e-05
1.00821e-05
9.97802e-06
9.85925e-06
9.72758e-06
9.58417e-06
9.4309e-06
9.26991e-06
9.10268e-06
7.50967e-06
5.81548e-06
4.69623e-06
6.31903e-06
9.04162e-06
1.17356e-05
1.40496e-05
1.59252e-05
1.73627e-05
1.83773e-05
1.90063e-05
1.92974e-05
1.92997e-05
1.90618e-05
1.86295e-05
1.80446e-05
1.73436e-05
1.65576e-05
1.57129e-05
1.48308e-05
1.39285e-05
1.30195e-05
1.21142e-05
1.12204e-05
1.03438e-05
9.48807e-06
8.65561e-06
7.847e-06
7.06229e-06
6.29831e-06
5.5564e-06
4.8253e-06
4.12309e-06
8.57898e-06
1.47646e-05
1.88794e-05
2.12877e-05
2.23837e-05
2.19241e-05
2.00864e-05
1.73231e-05
1.41007e-05
1.10334e-05
9.10371e-06
9.37238e-06
1.16442e-05
1.48584e-05
1.83244e-05
2.1733e-05
2.49491e-05
2.79141e-05
3.0607e-05
3.30261e-05
3.51804e-05
3.70848e-05
3.87565e-05
4.02141e-05
4.14761e-05
4.25602e-05
4.34835e-05
4.42626e-05
4.49136e-05
4.5457e-05
4.59071e-05
4.63219e-05
4.66888e-05
3.46096e-05
3.7201e-05
4.6627e-05
6.17204e-05
7.73877e-05
9.27439e-05
0.000107093
0.000119731
0.000130474
0.000139367
0.000146522
0.000152104
0.000156299
0.000159292
0.000161257
0.000162352
0.000162717
0.000162475
0.000161732
0.000160578
0.000159088
0.000157329
0.000155353
0.000153206
0.000150925
0.000148538
0.000146073
0.000143546
0.000140974
0.000138362
0.000135712
0.000133114
0.000130578
0.000608424
0.000582494
0.000556896
0.000530472
0.000504521
0.000479358
0.000455022
0.000431779
0.000409808
0.000389159
0.000369848
0.000351854
0.000335129
0.000319601
0.000305191
0.000291812
0.00027938
0.00026781
0.000257023
0.000246944
0.000237504
0.000228642
0.000220301
0.00021243
0.000204984
0.000197922
0.000191207
0.000184805
0.000178677
0.000172805
0.000167058
0.000161973
0.000157324
6.55399e-05
5.91739e-05
5.18576e-05
5.05716e-05
5.18467e-05
5.33746e-05
5.35721e-05
5.13391e-05
4.69985e-05
4.20466e-05
3.78588e-05
3.45195e-05
3.05971e-05
2.23087e-05
1.37902e-05
1.44847e-05
2.13444e-05
2.52819e-05
2.62473e-05
3.65761e-05
4.53833e-05
4.63755e-05
4.34694e-05
4.08999e-05
3.9904e-05
4.02538e-05
4.27187e-05
4.68961e-05
5.08869e-05
5.05193e-05
4.44644e-05
3.62528e-05
2.9458e-05
2.50197e-05
2.19058e-05
1.89319e-05
1.56128e-05
1.2098e-05
9.24668e-06
7.83448e-06
8.58567e-06
1.59623e-05
2.70208e-05
3.5145e-05
3.78355e-05
3.63113e-05
3.26827e-05
2.84968e-05
2.46181e-05
2.13593e-05
1.86742e-05
1.6409e-05
1.44489e-05
1.27331e-05
1.1224e-05
9.88968e-06
8.70037e-06
7.6309e-06
6.6621e-06
5.78067e-06
4.97805e-06
4.24924e-06
3.59171e-06
3.0045e-06
2.48733e-06
2.03971e-06
1.66027e-06
1.34614e-06
1.09278e-06
8.93947e-07
7.42283e-07
6.29839e-07
5.48909e-07
4.92627e-07
4.55297e-07
4.32389e-07
4.20497e-07
4.17379e-07
4.21943e-07
4.34057e-07
4.53811e-07
4.80549e-07
5.12225e-07
5.45916e-07
5.79389e-07
6.12256e-07
6.44858e-07
6.75184e-07
6.9776e-07
7.06783e-07
7.01982e-07
6.8878e-07
6.76603e-07
6.66635e-07
6.62716e-07
6.47132e-07
6.42953e-07
5.87969e-07
6.22262e-07
4.69902e-07
0.000103352
0.000103217
9.08148e-05
7.35385e-05
6.26351e-05
5.84436e-05
5.5018e-05
5.04328e-05
4.47867e-05
3.88204e-05
3.32834e-05
2.82437e-05
2.06238e-05
1.02467e-05
8.33015e-06
1.6648e-05
2.47424e-05
2.29992e-05
2.79434e-05
4.05977e-05
4.59773e-05
4.4482e-05
4.13466e-05
3.93149e-05
3.86909e-05
3.91314e-05
4.09125e-05
4.43694e-05
4.86126e-05
5.03302e-05
4.63479e-05
3.84625e-05
3.05831e-05
2.48613e-05
2.10044e-05
1.78006e-05
1.44743e-05
1.09452e-05
7.59018e-06
4.85164e-06
9.18019e-06
2.04963e-05
3.13685e-05
3.74615e-05
3.8402e-05
3.60041e-05
3.21131e-05
2.7979e-05
2.42784e-05
2.11946e-05
1.86289e-05
1.64378e-05
1.45284e-05
1.28491e-05
1.13633e-05
1.00389e-05
8.84836e-06
7.76986e-06
6.78778e-06
5.89153e-06
5.07434e-06
4.33222e-06
3.66315e-06
3.06628e-06
2.54122e-06
2.08724e-06
1.70264e-06
1.38427e-06
1.12736e-06
9.25589e-07
7.71513e-07
6.5716e-07
5.74776e-07
5.1741e-07
4.79223e-07
4.55559e-07
4.42942e-07
4.39094e-07
4.42926e-07
4.54231e-07
4.7298e-07
4.98419e-07
5.28491e-07
5.60378e-07
5.92134e-07
6.2391e-07
6.56807e-07
6.89402e-07
7.16074e-07
7.29957e-07
7.29341e-07
7.18311e-07
7.05605e-07
6.92711e-07
6.84738e-07
6.64921e-07
6.57574e-07
5.99559e-07
6.33853e-07
4.78331e-07
0.000105771
0.000109585
0.000112918
0.000107129
8.97234e-05
7.16459e-05
6.03067e-05
5.26407e-05
4.4924e-05
3.66879e-05
2.87344e-05
2.04407e-05
1.14285e-05
7.2254e-06
1.52006e-05
2.50807e-05
2.35144e-05
2.07518e-05
3.4239e-05
4.41314e-05
4.5079e-05
4.19906e-05
3.91538e-05
3.76411e-05
3.71884e-05
3.76248e-05
3.89988e-05
4.17289e-05
4.57225e-05
4.90478e-05
4.78597e-05
4.15659e-05
3.3235e-05
2.58962e-05
2.05238e-05
1.64289e-05
1.26199e-05
8.5733e-06
3.67079e-06
3.91433e-06
1.48023e-05
2.67607e-05
3.55279e-05
3.91376e-05
3.85052e-05
3.54324e-05
3.1394e-05
2.7385e-05
2.39026e-05
2.10093e-05
1.85733e-05
1.64671e-05
1.46164e-05
1.29766e-05
1.15135e-05
1.01974e-05
9.00433e-06
7.91642e-06
6.92127e-06
6.01059e-06
5.17905e-06
4.42354e-06
3.74252e-06
3.13536e-06
2.60166e-06
2.14053e-06
1.75001e-06
1.42666e-06
1.16539e-06
9.59656e-07
8.01837e-07
6.83972e-07
5.98391e-07
5.38267e-07
4.97904e-07
4.72795e-07
4.59535e-07
4.5575e-07
4.60078e-07
4.71879e-07
4.90698e-07
5.15457e-07
5.44009e-07
5.73711e-07
6.03044e-07
6.3288e-07
6.6524e-07
6.99438e-07
7.29896e-07
7.49028e-07
7.53691e-07
7.46417e-07
7.34953e-07
7.20713e-07
7.09711e-07
6.86097e-07
6.75512e-07
6.1427e-07
6.4832e-07
4.89446e-07
8.97546e-05
9.53051e-05
0.000101922
0.000108191
0.000108161
9.69888e-05
7.9147e-05
6.25105e-05
4.97197e-05
3.94052e-05
3.02652e-05
2.23885e-05
1.95264e-05
2.43546e-05
3.01587e-05
2.5831e-05
1.60208e-05
2.80812e-05
4.13891e-05
4.48857e-05
4.23807e-05
3.90444e-05
3.68912e-05
3.58094e-05
3.5438e-05
3.58287e-05
3.69945e-05
3.9112e-05
4.24768e-05
4.65095e-05
4.8112e-05
4.47593e-05
3.75996e-05
2.94774e-05
2.23617e-05
1.66252e-05
1.17391e-05
7.30521e-06
5.69949e-06
1.27227e-05
2.35204e-05
3.32176e-05
3.87834e-05
3.99523e-05
3.80655e-05
3.45423e-05
3.05009e-05
2.67138e-05
2.34954e-05
2.08064e-05
1.85062e-05
1.64917e-05
1.4705e-05
1.31078e-05
1.16684e-05
1.0361e-05
9.16578e-06
8.06905e-06
7.06139e-06
6.13658e-06
5.2907e-06
4.52156e-06
3.82818e-06
3.21023e-06
2.66739e-06
2.19864e-06
1.80179e-06
1.47313e-06
1.20734e-06
9.97734e-07
8.36673e-07
7.16179e-07
6.28556e-07
5.66929e-07
5.25514e-07
4.99665e-07
4.85839e-07
4.81544e-07
4.85271e-07
4.96243e-07
5.13848e-07
5.36905e-07
5.63247e-07
5.90309e-07
6.16802e-07
6.44133e-07
6.75257e-07
7.10396e-07
7.44081e-07
7.67869e-07
7.77416e-07
7.7395e-07
7.64244e-07
7.49386e-07
7.35934e-07
7.08756e-07
6.94791e-07
6.29919e-07
6.63449e-07
5.00006e-07
5.1388e-05
5.87797e-05
6.7447e-05
7.68922e-05
8.60086e-05
9.12942e-05
8.88913e-05
7.9356e-05
6.70024e-05
5.56134e-05
4.69394e-05
4.23744e-05
4.09948e-05
3.78974e-05
2.67967e-05
1.18734e-05
2.43833e-05
3.92689e-05
4.41885e-05
4.2263e-05
3.87232e-05
3.61421e-05
3.46196e-05
3.37633e-05
3.34131e-05
3.37026e-05
3.47467e-05
3.64982e-05
3.91724e-05
4.2981e-05
4.64052e-05
4.64683e-05
4.2265e-05
3.54406e-05
2.81587e-05
2.17787e-05
1.69466e-05
1.4669e-05
1.6969e-05
2.39443e-05
3.2203e-05
3.81991e-05
4.05571e-05
3.98407e-05
3.71215e-05
3.33779e-05
2.9481e-05
2.59984e-05
2.30684e-05
2.0586e-05
1.84248e-05
1.65077e-05
1.47895e-05
1.32368e-05
1.18222e-05
1.05243e-05
9.3282e-06
8.22386e-06
7.20462e-06
6.26624e-06
5.40618e-06
4.62327e-06
3.91722e-06
3.28811e-06
2.73572e-06
2.259e-06
1.85555e-06
1.52139e-06
1.25095e-06
1.03734e-06
8.72729e-07
7.49086e-07
6.58721e-07
5.94794e-07
5.5156e-07
5.24415e-07
5.09819e-07
5.05199e-07
5.08845e-07
5.19674e-07
5.36738e-07
5.58581e-07
5.82894e-07
6.07125e-07
6.30213e-07
6.54162e-07
6.82986e-07
7.18034e-07
7.54351e-07
7.82972e-07
7.98169e-07
7.99615e-07
7.92925e-07
7.78646e-07
7.63634e-07
7.3337e-07
7.16103e-07
6.4749e-07
6.80382e-07
5.12312e-07
1.12969e-05
1.70868e-05
2.4325e-05
3.26484e-05
4.17267e-05
5.08626e-05
5.81671e-05
6.14373e-05
6.01963e-05
5.58014e-05
5.01877e-05
4.34799e-05
3.3216e-05
1.7434e-05
7.2789e-06
2.59536e-05
3.92421e-05
4.343e-05
4.14697e-05
3.78884e-05
3.51624e-05
3.34532e-05
3.23141e-05
3.15793e-05
3.12708e-05
3.14995e-05
3.23975e-05
3.39068e-05
3.60347e-05
3.91181e-05
4.29633e-05
4.558e-05
4.49913e-05
4.12724e-05
3.59735e-05
3.08305e-05
2.72355e-05
2.64149e-05
2.90269e-05
3.39276e-05
3.85125e-05
4.09062e-05
4.08701e-05
3.8941e-05
3.57394e-05
3.19885e-05
2.83818e-05
2.52654e-05
2.26312e-05
2.03527e-05
1.83328e-05
1.65172e-05
1.48704e-05
1.3364e-05
1.19755e-05
1.06889e-05
9.49351e-06
8.38285e-06
7.35281e-06
6.40107e-06
5.52666e-06
4.72957e-06
4.01033e-06
3.3695e-06
2.80706e-06
2.32192e-06
1.91149e-06
1.57155e-06
1.29629e-06
1.0786e-06
9.10619e-07
7.84276e-07
6.91861e-07
6.26485e-07
5.82309e-07
5.5459e-07
5.39627e-07
5.34675e-07
5.37839e-07
5.47849e-07
5.63597e-07
5.83527e-07
6.05289e-07
6.26346e-07
6.4578e-07
6.66098e-07
6.92347e-07
7.26988e-07
7.65423e-07
7.98168e-07
8.18462e-07
8.24729e-07
8.21464e-07
8.0846e-07
7.92525e-07
7.59513e-07
7.38892e-07
6.66179e-07
6.98175e-07
5.24302e-07
5.60545e-06
4.53651e-06
5.5415e-06
9.03896e-06
1.34361e-05
1.77172e-05
2.131e-05
2.3737e-05
2.43302e-05
2.25407e-05
1.78526e-05
9.89913e-06
7.52463e-06
2.03627e-05
3.31517e-05
4.08088e-05
4.22588e-05
3.96986e-05
3.62863e-05
3.37576e-05
3.21321e-05
3.09464e-05
3.00164e-05
2.93933e-05
2.91536e-05
2.93717e-05
3.01232e-05
3.1406e-05
3.31463e-05
3.54963e-05
3.87667e-05
4.23058e-05
4.44174e-05
4.41111e-05
4.18691e-05
3.89986e-05
3.69076e-05
3.65733e-05
3.80284e-05
4.01357e-05
4.14749e-05
4.14108e-05
3.9978e-05
3.73727e-05
3.3992e-05
3.04599e-05
2.72668e-05
2.45409e-05
2.21911e-05
2.01093e-05
1.82313e-05
1.65199e-05
1.49468e-05
1.34888e-05
1.21287e-05
1.08554e-05
9.66263e-06
8.54684e-06
7.50651e-06
6.54142e-06
5.65233e-06
4.84054e-06
4.10751e-06
3.45436e-06
2.88132e-06
2.38729e-06
1.96954e-06
1.6236e-06
1.3434e-06
1.12166e-06
9.50322e-07
8.21204e-07
7.26528e-07
6.59352e-07
6.13792e-07
5.85062e-07
5.69405e-07
5.63977e-07
5.66715e-07
5.7612e-07
5.9084e-07
6.09114e-07
6.28458e-07
6.46269e-07
6.61687e-07
6.77621e-07
7.00113e-07
7.33e-07
7.72684e-07
8.09485e-07
8.3543e-07
8.47469e-07
8.48822e-07
8.38341e-07
8.2253e-07
7.8744e-07
7.6369e-07
6.86796e-07
7.1777e-07
5.37824e-07
4.61747e-06
5.1597e-06
6.84401e-06
9.85436e-06
1.37636e-05
1.7854e-05
2.12821e-05
2.34334e-05
2.43809e-05
2.49249e-05
2.64846e-05
2.98252e-05
3.44737e-05
3.86039e-05
4.03445e-05
3.9273e-05
3.6559e-05
3.38251e-05
3.18771e-05
3.05622e-05
2.94995e-05
2.85493e-05
2.77761e-05
2.72802e-05
2.71144e-05
2.73337e-05
2.79789e-05
2.90545e-05
3.05058e-05
3.23283e-05
3.47743e-05
3.79373e-05
4.10436e-05
4.29939e-05
4.34172e-05
4.28056e-05
4.20734e-05
4.18281e-05
4.20136e-05
4.20793e-05
4.15647e-05
4.02926e-05
3.81703e-05
3.52735e-05
3.20168e-05
2.89068e-05
2.61884e-05
2.38362e-05
2.17484e-05
1.98554e-05
1.81199e-05
1.65153e-05
1.50185e-05
1.36115e-05
1.22826e-05
1.10253e-05
9.83683e-06
8.71686e-06
7.66653e-06
6.6879e-06
5.78363e-06
4.95648e-06
4.20896e-06
3.54279e-06
2.95851e-06
2.45505e-06
2.02954e-06
1.67729e-06
1.39199e-06
1.16613e-06
9.91512e-07
8.59865e-07
7.63341e-07
6.94912e-07
6.48574e-07
6.19392e-07
6.03442e-07
5.97701e-07
5.99915e-07
6.08395e-07
6.21634e-07
6.37774e-07
6.54276e-07
6.68494e-07
6.79597e-07
6.90851e-07
7.09273e-07
7.40024e-07
7.80352e-07
8.20494e-07
8.51578e-07
8.69336e-07
8.75755e-07
8.6858e-07
8.53684e-07
8.17042e-07
7.90269e-07
7.08915e-07
7.38639e-07
5.51425e-07
2.41658e-06
3.48296e-06
5.31003e-06
7.91893e-06
1.12958e-05
1.53259e-05
1.96852e-05
2.38775e-05
2.74673e-05
3.03291e-05
3.2649e-05
3.44478e-05
3.53996e-05
3.52171e-05
3.39998e-05
3.2315e-05
3.07856e-05
2.96437e-05
2.87428e-05
2.78864e-05
2.70293e-05
2.62445e-05
2.56274e-05
2.5248e-05
2.51386e-05
2.53462e-05
2.5912e-05
2.68287e-05
2.80621e-05
2.95565e-05
3.13823e-05
3.37534e-05
3.65645e-05
3.91927e-05
4.10223e-05
4.19071e-05
4.21605e-05
4.20784e-05
4.17043e-05
4.09725e-05
3.98007e-05
3.80585e-05
3.56717e-05
3.28496e-05
3.0006e-05
2.74325e-05
2.51717e-05
2.31492e-05
2.13e-05
1.95906e-05
1.79989e-05
1.65036e-05
1.50861e-05
1.37336e-05
1.2439e-05
1.12e-05
1.00174e-05
8.89396e-06
7.83367e-06
6.84114e-06
5.92106e-06
5.0778e-06
4.31495e-06
3.63497e-06
3.03871e-06
2.52522e-06
2.0915e-06
1.73266e-06
1.44215e-06
1.21221e-06
1.03447e-06
9.00482e-07
8.02241e-07
7.32581e-07
6.8537e-07
6.55561e-07
6.39122e-07
6.32912e-07
6.34528e-07
6.42098e-07
6.53934e-07
6.68023e-07
6.81705e-07
6.92212e-07
6.98619e-07
7.04378e-07
7.17383e-07
7.44463e-07
7.8442e-07
8.27644e-07
8.64215e-07
8.88481e-07
9.01082e-07
8.98493e-07
8.85694e-07
8.4835e-07
8.18932e-07
7.33091e-07
7.61467e-07
5.66524e-07
2.57291e-06
3.67333e-06
5.21448e-06
7.17212e-06
9.52608e-06
1.22627e-05
1.533e-05
1.85644e-05
2.16737e-05
2.43517e-05
2.63511e-05
2.7627e-05
2.81931e-05
2.82299e-05
2.79763e-05
2.76121e-05
2.71908e-05
2.66817e-05
2.60636e-05
2.53709e-05
2.46758e-05
2.40539e-05
2.3569e-05
2.32738e-05
2.32005e-05
2.33898e-05
2.38873e-05
2.46876e-05
2.57577e-05
2.70468e-05
2.85185e-05
3.02658e-05
3.23845e-05
3.46936e-05
3.67661e-05
3.82495e-05
3.90683e-05
3.92957e-05
3.89888e-05
3.82019e-05
3.69122e-05
3.50778e-05
3.28125e-05
3.04107e-05
2.81386e-05
2.60827e-05
2.42079e-05
2.24687e-05
2.08423e-05
1.93148e-05
1.78687e-05
1.64856e-05
1.51511e-05
1.38567e-05
1.25997e-05
1.13812e-05
1.02057e-05
9.07922e-06
8.00889e-06
7.00193e-06
6.06526e-06
5.20494e-06
4.42578e-06
3.73101e-06
3.12192e-06
2.59766e-06
2.15518e-06
1.78939e-06
1.49348e-06
1.25947e-06
1.07873e-06
9.4264e-07
8.43023e-07
7.72549e-07
7.24916e-07
6.94904e-07
6.78313e-07
6.71831e-07
6.72878e-07
6.79411e-07
6.89599e-07
7.01334e-07
7.11883e-07
7.18371e-07
7.19765e-07
7.19659e-07
7.26772e-07
7.4953e-07
7.883e-07
8.33836e-07
8.75433e-07
9.0623e-07
9.25553e-07
9.28461e-07
9.18729e-07
8.8141e-07
8.4962e-07
7.59096e-07
7.85923e-07
5.82014e-07
2.86405e-06
3.87904e-06
5.22163e-06
6.86339e-06
8.75997e-06
1.08527e-05
1.30776e-05
1.53564e-05
1.75816e-05
1.95994e-05
2.12792e-05
2.2578e-05
2.35205e-05
2.41475e-05
2.44823e-05
2.45474e-05
2.43787e-05
2.40257e-05
2.35487e-05
2.30101e-05
2.24684e-05
2.19777e-05
2.15902e-05
2.13551e-05
2.13073e-05
2.14808e-05
2.19174e-05
2.26211e-05
2.3563e-05
2.4704e-05
2.59845e-05
2.73859e-05
2.89611e-05
3.07081e-05
3.24467e-05
3.39109e-05
3.4907e-05
3.53679e-05
3.52716e-05
3.46261e-05
3.34555e-05
3.18594e-05
3.00437e-05
2.82165e-05
2.64781e-05
2.48343e-05
2.32709e-05
2.17851e-05
2.0375e-05
1.90293e-05
1.77308e-05
1.64633e-05
1.52157e-05
1.39832e-05
1.27665e-05
1.15706e-05
1.04032e-05
9.27401e-06
8.19332e-06
7.17122e-06
6.21695e-06
5.33841e-06
4.54175e-06
3.83107e-06
3.20812e-06
2.67226e-06
2.22041e-06
1.8473e-06
1.54588e-06
1.3079e-06
1.12445e-06
9.86646e-07
8.86054e-07
8.15103e-07
7.67275e-07
7.37172e-07
7.20447e-07
7.13658e-07
7.14088e-07
7.19547e-07
7.28064e-07
7.37412e-07
7.44742e-07
7.47006e-07
7.4293e-07
7.36036e-07
7.35739e-07
7.52471e-07
7.8881e-07
8.36151e-07
8.82919e-07
9.20905e-07
9.48027e-07
9.57778e-07
9.52449e-07
9.16195e-07
8.82573e-07
7.87406e-07
8.12638e-07
5.99106e-07
3.03623e-06
3.95037e-06
5.11854e-06
6.52134e-06
8.12888e-06
9.88919e-06
1.17342e-05
1.35903e-05
1.53836e-05
1.7046e-05
1.8518e-05
1.97465e-05
2.06961e-05
2.13578e-05
2.17449e-05
2.18836e-05
2.18118e-05
2.15775e-05
2.12325e-05
2.08255e-05
2.04024e-05
2.00101e-05
1.96961e-05
1.95067e-05
1.94766e-05
1.96358e-05
2.00205e-05
2.064e-05
2.14742e-05
2.2492e-05
2.36447e-05
2.48755e-05