/*--------------------------------*- C++ -*----------------------------------*\
| =========                 |                                                 |
| \\      /  F ield         | OpenFOAM: The Open Source CFD Toolbox           |
|  \\    /   O peration     | Version:  2.1.1                                 |
|   \\  /    A nd           | Web:      www.OpenFOAM.org                      |
|    \\/     M anipulation  |                                                 |
\*---------------------------------------------------------------------------*/
FoamFile
{
    version     2.0;
    format      ascii;
    class       volScalarField;
    location    "0.07";
    object      p;
}
// * * * * * * * * * * * * * * * * * * * * * * * * * * * * * * * * * * * * * //

dimensions      [0 2 -2 0 0 0 0];

internalField   nonuniform List<scalar> 
6820
(
10.1797
-7.65296
-10.6531
-10.8303
-10.9905
-10.9012
-10.8249
-10.8136
-10.8327
-10.8668
-10.907
-10.948
-10.987
-11.0224
-11.0533
-11.0789
-11.0987
-11.112
-11.1183
-11.1173
-11.1084
-11.0914
-11.0661
-11.0324
-10.9905
-10.9408
-10.8839
-10.8208
-10.7539
-10.6829
-10.618
-10.5439
-10.5168
3.49715
-7.4732
-10.3434
-10.6334
-10.8732
-10.8797
-10.8397
-10.8395
-10.8602
-10.8913
-10.9276
-10.9651
-11.0011
-11.0343
-11.0636
-11.0882
-11.1072
-11.1201
-11.1262
-11.1251
-11.1163
-11.0995
-11.0744
-11.0409
-10.9991
-10.9494
-10.8925
-10.8291
-10.7612
-10.6893
-10.6201
-10.5424
-10.4815
0.780248
-6.04546
-9.32603
-10.0739
-10.5293
-10.7104
-10.7491
-10.7817
-10.8221
-10.8658
-10.9111
-10.9555
-10.997
-11.0343
-11.0667
-11.0936
-11.1145
-11.1289
-11.1364
-11.1366
-11.1291
-11.1136
-11.0899
-11.0579
-11.0178
-10.9698
-10.9145
-10.8525
-10.785
-10.7118
-10.6342
-10.5409
-10.4138
-1.2074
-5.82081
-8.90793
-9.75788
-10.2178
-10.4785
-10.5879
-10.6652
-10.7373
-10.8023
-10.8616
-10.9159
-10.9653
-11.0094
-11.0479
-11.0806
-11.1069
-11.1268
-11.1397
-11.1454
-11.1437
-11.1343
-11.1172
-11.0922
-11.0595
-11.0194
-10.9723
-10.9186
-10.8585
-10.7914
-10.714
-10.6175
-10.4704
-2.84566
-5.92429
-8.51982
-9.41454
-9.91083
-10.2517
-10.4321
-10.5502
-10.6482
-10.7315
-10.8044
-10.8698
-10.9282
-10.9802
-11.0259
-11.0655
-11.0988
-11.1256
-11.1457
-11.1592
-11.1658
-11.1655
-11.1583
-11.1444
-11.1239
-11.0972
-11.0647
-11.0266
-10.9829
-10.9327
-10.8717
-10.7948
-10.6757
-4.07147
-6.10853
-8.27272
-9.20854
-9.72439
-10.093
-10.3092
-10.451
-10.5663
-10.6639
-10.7481
-10.8229
-10.8899
-10.9496
-11.0027
-11.0494
-11.0899
-11.1243
-11.1527
-11.1751
-11.1916
-11.2024
-11.2077
-11.2079
-11.2034
-11.1946
-11.1823
-11.1668
-11.1484
-11.1266
-11.0991
-11.0649
-11.014
-5.02577
-6.39866
-8.15955
-9.05864
-9.56271
-9.94028
-10.1875
-10.3558
-10.4903
-10.6028
-10.6985
-10.7824
-10.8571
-10.9237
-10.9832
-11.0362
-11.0832
-11.1243
-11.1599
-11.1902
-11.2154
-11.2359
-11.2521
-11.2646
-11.274
-11.2812
-11.287
-11.2924
-11.2982
-11.3053
-11.3139
-11.3258
-11.3427
-5.77579
-6.70897
-8.11292
-8.9479
-9.441
-9.82088
-10.0877
-10.2743
-10.4222
-10.5457
-10.6508
-10.7428
-10.8247
-10.8983
-10.9645
-11.0242
-11.0779
-11.1261
-11.1692
-11.2075
-11.2415
-11.2718
-11.2988
-11.3235
-11.3465
-11.3689
-11.392
-11.4169
-11.4452
-11.4786
-11.5193
-11.5708
-11.6398
-6.37252
-7.01719
-8.12802
-8.88329
-9.35457
-9.72361
-9.99778
-10.1971
-10.3563
-10.4902
-10.6048
-10.705
-10.7944
-10.8749
-10.9477
-11.014
-11.0744
-11.1295
-11.1799
-11.2261
-11.2688
-11.3085
-11.346
-11.3823
-11.4184
-11.4555
-11.495
-11.5386
-11.5883
-11.6466
-11.7169
-11.8037
-11.9153
-6.85382
-7.30773
-8.18146
-8.8486
-9.29153
-9.64554
-9.92155
-10.13
-10.2981
-10.4404
-10.5627
-10.6701
-10.7661
-10.8531
-10.9323
-11.005
-11.0721
-11.1341
-11.1919
-11.2461
-11.2974
-11.3466
-11.3945
-11.4424
-11.4912
-11.5425
-11.598
-11.6595
-11.7294
-11.8108
-11.9076
-12.0246
-12.1706
-7.2466
-7.5729
-8.25944
-8.84001
-9.25119
-9.58676
-9.85847
-10.071
-10.245
-10.3936
-10.5227
-10.6368
-10.7394
-10.8327
-10.9183
-10.9975
-11.0711
-11.1401
-11.2052
-11.2671
-11.3269
-11.3852
-11.4433
-11.5021
-11.5631
-11.6278
-11.6981
-11.7761
-11.8644
-11.9662
-12.0858
-12.2278
-12.4004
-7.57052
-7.81037
-8.35111
-8.85068
-9.22765
-9.54264
-9.80633
-10.0198
-10.1978
-10.3516
-10.4864
-10.6065
-10.715
-10.8144
-10.9061
-10.9914
-11.0715
-11.1472
-11.2194
-11.2891
-11.357
-11.4243
-11.492
-11.5614
-11.6339
-11.7111
-11.7951
-11.888
-11.9926
-12.112
-12.2503
-12.412
-12.6041
-7.83993
-8.02021
-8.44837
-8.8753
-9.21782
-9.51167
-9.76497
-9.9766
-10.1565
-10.3137
-10.4532
-10.5784
-10.6925
-10.7975
-10.8951
-10.9865
-11.0729
-11.1553
-11.2345
-11.3116
-11.3875
-11.4632
-11.5401
-11.6193
-11.7025
-11.7912
-11.8874
-11.9934
-12.1119
-12.2458
-12.399
-12.5751
-12.7804
-8.06539
-8.20388
-8.54557
-8.90927
-9.21836
-9.49107
-9.7325
-9.94019
-10.1203
-10.28
-10.4233
-10.5531
-10.6722
-10.7826
-10.8858
-10.9831
-11.0756
-11.1643
-11.2503
-11.3345
-11.4179
-11.5017
-11.5871
-11.6755
-11.7683
-11.8672
-11.9742
-12.0914
-12.2213
-12.3666
-12.5308
-12.7169
-12.9298
-8.25472
-8.36337
-8.63881
-8.94868
-9.22642
-9.47872
-9.70777
-9.91019
-10.0894
-10.2504
-10.3966
-10.5304
-10.654
-10.7694
-10.8779
-10.9808
-11.0791
-11.174
-11.2664
-11.3574
-11.448
-11.5393
-11.6326
-11.7292
-11.8306
-11.9385
-12.0545
-12.1809
-12.3198
-12.4736
-12.6452
-12.837
-13.053
-8.4138
-8.50075
-8.72546
-8.9903
-9.23947
-9.47256
-9.68925
-9.88558
-10.0628
-10.2245
-10.3729
-10.5101
-10.6379
-10.7579
-10.8714
-10.9797
-11.0836
-11.1844
-11.2829
-11.3802
-11.4774
-11.5756
-11.676
-11.7799
-11.8888
-12.0041
-12.1276
-12.2612
-12.4067
-12.5661
-12.7419
-12.936
-13.1512
-8.54702
-8.61797
-8.80379
-9.0315
-9.25526
-9.47071
-9.67558
-9.86551
-10.0403
-10.2019
-10.3521
-10.4922
-10.6238
-10.7482
-10.8664
-10.9797
-11.0889
-11.1952
-11.2994
-11.4026
-11.5059
-11.6103
-11.717
-11.8272
-11.9424
-12.0639
-12.1932
-12.332
-12.4819
-12.6445
-12.8218
-13.015
-13.2263
-8.65768
-8.71667
-8.87268
-9.07015
-9.27181
-9.47142
-9.66536
-9.84897
-10.021
-10.1823
-10.3338
-10.4766
-10.6116
-10.7399
-10.8626
-10.9806
-11.0948
-11.2062
-11.3157
-11.4243
-11.533
-11.6429
-11.755
-11.8706
-11.9908
-12.117
-12.2506
-12.3927
-12.5449
-12.7084
-12.8846
-13.0745
-13.2796
-8.74821
-8.79821
-8.93139
-9.10453
-9.2874
-9.47314
-9.65728
-9.835
-10.0043
-10.1651
-10.3179
-10.4629
-10.6011
-10.7333
-10.8601
-10.9825
-11.1014
-11.2176
-11.3319
-11.4454
-11.5589
-11.6735
-11.7903
-11.9102
-12.0344
-12.164
-12.3002
-12.4441
-12.5968
-12.7593
-12.9326
-13.1172
-13.3142
-8.8204
-8.86363
-8.97937
-9.13321
-9.30049
-9.47441
-9.65008
-9.8226
-9.98945
-10.1499
-10.3037
-10.451
-10.5922
-10.7278
-10.8586
-10.9851
-11.1083
-11.2287
-11.3474
-11.4652
-11.5829
-11.7014
-11.8218
-11.945
-12.072
-12.2037
-12.3412
-12.4853
-12.6368
-12.7966
-12.9653
-13.1431
-13.3306
-8.87548
-8.91363
-9.01619
-9.155
-9.30968
-9.4739
-9.64259
-9.81082
-9.97573
-10.136
-10.2911
-10.4406
-10.5847
-10.7238
-10.8583
-10.9888
-11.1159
-11.2404
-11.363
-11.4846
-11.6058
-11.7276
-11.8509
-11.9765
-12.1052
-12.238
-12.3755
-12.5185
-12.6676
-12.8234
-12.9862
-13.1561
-13.3333
-8.91421
-8.9486
-9.04139
-9.16881
-9.31373
-9.47037
-9.63365
-9.79867
-9.96231
-10.1229
-10.2794
-10.4312
-10.5782
-10.7206
-10.8586
-10.9927
-11.1234
-11.2514
-11.3774
-11.502
-11.6261
-11.7504
-11.8756
-12.0026
-12.132
-12.2646
-12.401
-12.5417
-12.6872
-12.8378
-12.9937
-13.1549
-13.3214
-8.93692
-8.96864
-9.05445
-9.17366
-9.31147
-9.46267
-9.62227
-9.78537
-9.94869
-10.1102
-10.2686
-10.4231
-10.5732
-10.719
-10.8606
-10.9982
-11.1324
-11.2637
-11.3927
-11.5201
-11.6465
-11.7726
-11.8991
-12.0267
-12.156
-12.2876
-12.4219
-12.5595
-12.7005
-12.8452
-12.9936
-13.1456
-13.3011
-8.94356
-8.97352
-9.05471
-9.1685
-9.30172
-9.4496
-9.60725
-9.76978
-9.93375
-10.0969
-10.2577
-10.415
-10.5683
-10.7173
-10.8622
-11.0031
-11.1403
-11.2744
-11.4059
-11.5353
-11.6633
-11.7905
-11.9175
-12.0448
-12.1731
-12.3027
-12.4341
-12.5676
-12.7033
-12.8414
-12.9819
-13.1244
-13.2689
-8.93368
-8.96266
-9.04135
-9.15233
-9.28346
-9.43029
-9.58801
-9.75169
-9.91774
-10.0837
-10.2478
-10.4087
-10.5658
-10.7186
-10.867
-11.0113
-11.1516
-11.2884
-11.4221
-11.5533
-11.6825
-11.8103
-11.9372
-12.0637
-12.1903
-12.3174
-12.4452
-12.5741
-12.7041
-12.8352
-12.9674
-13.1004
-13.2339
-8.90639
-8.93514
-9.01326
-9.12386
-9.25526
-9.40319
-9.56281
-9.72909
-9.89832
-10.0679
-10.2358
-10.4006
-10.5615
-10.7179
-10.8698
-11.0171
-11.16
-11.299
-11.4344
-11.5668
-11.6965
-11.8242
-11.9503
-12.0753
-12.1995
-12.3233
-12.4469
-12.5706
-12.6943
-12.8182
-12.942
-13.0656
-13.1886
-8.86037
-8.88962
-8.96918
-9.08203
-9.21649
-9.3683
-9.5325
-9.70388
-9.87852
-10.0536
-10.2269
-10.397
-10.5627
-10.7236
-10.8795
-11.0302
-11.176
-11.3172
-11.4542
-11.5874
-11.7174
-11.8446
-11.9695
-12.0924
-12.2138
-12.3339
-12.4529
-12.571
-12.6883
-12.8047
-12.9201
-13.0342
-13.1469
-8.79369
-8.82417
-8.9071
-9.0246
-9.16441
-9.32213
-9.4926
-9.67038
-9.8514
-10.0327
-10.2119
-10.3874
-10.5582
-10.7235
-10.8832
-11.0371
-11.1854
-11.3285
-11.4666
-11.6003
-11.73
-11.8562
-11.9792
-12.0995
-12.2175
-12.3334
-12.4473
-12.5596
-12.6702
-12.7791
-12.8862
-12.9914
-13.0945
-8.70381
-8.73655
-8.82556
-8.95142
-9.10075
-9.26876
-9.44982
-9.63801
-9.82891
-10.0193
-10.2069
-10.3898
-10.5669
-10.7377
-10.9019
-11.0593
-11.2103
-11.3552
-11.4943
-11.6281
-11.7572
-11.8819
-12.0027
-12.12
-12.2341
-12.3454
-12.454
-12.5601
-12.6638
-12.765
-12.8638
-12.9599
-13.0533
-8.58711
-8.6228
-8.71991
-8.85626
-9.01671
-9.19617
-9.38876
-9.58816
-9.78969
-9.98999
-10.1865
-10.3774
-10.5616
-10.7383
-10.9072
-11.0685
-11.2222
-11.3688
-11.5087
-11.6424
-11.7705
-11.8934
-12.0115
-12.1254
-12.2354
-12.3417
-12.4447
-12.5445
-12.6413
-12.7351
-12.8259
-12.9137
-12.9984
-8.43935
-8.48045
-8.59152
-8.74619
-8.92624
-9.12547
-9.33703
-9.55378
-9.77071
-9.98444
-10.1924
-10.393
-10.585
-10.7681
-10.9419
-11.1068
-11.2629
-11.4109
-11.551
-11.6841
-11.8106
-11.931
-12.0459
-12.1558
-12.2611
-12.362
-12.4589
-12.5521
-12.6416
-12.7275
-12.81
-12.889
-12.9644
-8.253
-8.29888
-8.42407
-8.5962
-8.79424
-9.01235
-9.24322
-9.47871
-9.71316
-9.94283
-10.1649
-10.3776
-10.5798
-10.7711
-10.9513
-11.1209
-11.2802
-11.4298
-11.5705
-11.7029
-11.8277
-11.9456
-12.0571
-12.1628
-12.2631
-12.3586
-12.4494
-12.5359
-12.6184
-12.697
-12.7718
-12.843
-12.9106
-8.02285
-8.08347
-8.24165
-8.45212
-8.6863
-8.93722
-9.19689
-9.45677
-9.71163
-9.95826
-10.1943
-10.4183
-10.6294
-10.8276
-11.0129
-11.1859
-11.3471
-11.4974
-11.6375
-11.7682
-11.8903
-12.0046
-12.1116
-12.2121
-12.3066
-12.3956
-12.4794
-12.5584
-12.6329
-12.7032
-12.7693
-12.8315
-12.8898
-7.72651
-7.78954
-7.96779
-8.20507
-8.4701
-8.75632
-9.05219
-9.34599
-9.63133
-9.90447
-10.1628
-10.4049
-10.6303
-10.8393
-11.0325
-11.2108
-11.3752
-11.5268
-11.6667
-11.7958
-11.9153
-12.026
-12.1288
-12.2243
-12.3131
-12.396
-12.4732
-12.5453
-12.6126
-12.6754
-12.734
-12.7888
-12.8399
-7.37443
-7.4929
-7.7569
-8.06566
-8.38209
-8.70923
-9.03833
-9.35884
-9.66627
-9.95798
-10.2318
-10.4866
-10.7221
-10.9388
-11.1374
-11.319
-11.4847
-11.6358
-11.7737
-11.8994
-12.0143
-12.1194
-12.2157
-12.304
-12.3851
-12.4596
-12.5281
-12.5911
-12.649
-12.7021
-12.7508
-12.7954
-12.8364
-6.85338
-6.94565
-7.24741
-7.62413
-8.02164
-8.4326
-8.83652
-9.21952
-9.57796
-9.90992
-10.2143
-10.4917
-10.7435
-10.9713
-11.1771
-11.3627
-11.5301
-11.681
-11.8172
-11.9402
-12.0513
-12.1519
-12.2431
-12.3258
-12.4008
-12.4689
-12.5306
-12.5864
-12.6368
-12.6822
-12.7231
-12.7599
-12.7934
-6.36608
-6.68972
-7.16116
-7.58549
-8.00268
-8.43989
-8.86884
-9.276
-9.65975
-10.0164
-10.343
-10.6392
-10.9056
-11.144
-11.3561
-11.5444
-11.7112
-11.8588
-11.9893
-12.1049
-12.2072
-12.2979
-12.3785
-12.45
-12.5135
-12.5698
-12.6197
-12.6634
-12.7015
-12.7342
-12.7617
-12.7847
-12.8032
-5.06955
-5.39298
-6.16985
-6.87508
-7.51875
-8.13402
-8.68882
-9.1828
-9.62623
-10.0229
-10.3761
-10.6902
-10.9689
-11.2156
-11.4333
-11.6249
-11.7932
-11.9406
-12.0695
-12.1821
-12.2802
-12.3658
-12.4402
-12.5049
-12.561
-12.6094
-12.6507
-12.6855
-12.7137
-12.7355
-12.7501
-12.7586
-12.7564
-5.06185
-5.80866
-6.41824
-6.89243
-7.50102
-8.14443
-8.74594
-9.30799
-9.82436
-10.2845
-10.6875
-11.0369
-11.3368
-11.5922
-11.8083
-11.9903
-12.143
-12.2707
-12.3773
-12.4661
-12.54
-12.6015
-12.6525
-12.6949
-12.73
-12.7589
-12.7824
-12.801
-12.8144
-12.8217
-12.8201
-12.8065
-12.7671
1.1817
-3.42735
-5.21649
-6.07416
-7.08468
-7.97053
-8.68204
-9.30195
-9.84661
-10.3164
-10.7204
-11.0668
-11.362
-11.6123
-11.8235
-12.0011
-12.1498
-12.2741
-12.3776
-12.4637
-12.5352
-12.5944
-12.6435
-12.6841
-12.7178
-12.7456
-12.7687
-12.7877
-12.8037
-12.8161
-12.8276
-12.8332
-12.8443
-10.3891
-9.63376
-9.20176
-9.28361
-10.5488
-13.3449
-17.8356
-23.8197
-30.6862
-37.547
-43.5525
-48.174
-51.1403
-52.217
-51.1794
-48.1392
-43.4291
-37.2414
-29.7474
-21.6097
-13.9472
-7.61604
-2.8464
0.494592
2.58596
3.50412
3.23257
1.59405
-1.71587
-6.90237
-13.7444
-21.592
-29.665
-37.3409
-44.1957
-49.8876
-54.0794
-56.4281
-56.688
-54.6893
-50.5301
-44.5528
-37.3921
-29.9272
-22.9902
-17.0716
-12.2906
-8.54745
-5.66891
-3.48242
-1.84085
-0.625078
0.260129
0.890601
1.32632
1.61434
1.79131
1.88564
1.91933
1.90937
1.8689
1.80808
1.73467
1.65458
1.57214
1.49044
1.41151
1.33653
1.26602
1.19999
1.13812
1.07989
1.02471
0.972044
0.921436
0.872592
0.825363
0.77972
0.735716
0.693425
0.652897
0.614117
0.576982
0.541305
0.506831
0.473286
0.440418
0.408057
0.376082
0.344466
0.313052
0.281901
0.250435
0.219299
0.186344
0.155547
0.117645
0.0923622
0.0369749
0.0444917
-10.3015
-9.56386
-8.99079
-9.1538
-10.512
-13.2549
-17.5266
-23.1605
-29.6064
-36.0578
-41.7296
-46.0842
-48.8207
-49.7628
-48.7783
-45.9113
-41.3311
-35.2322
-28.0002
-20.4333
-13.4792
-7.73383
-3.33941
-0.209936
1.76761
2.63509
2.37585
0.848255
-2.16944
-6.85953
-13.0943
-20.3616
-27.966
-35.283
-41.847
-47.2884
-51.2714
-53.4789
-53.6862
-51.7445
-47.7692
-42.1322
-35.4736
-28.597
-22.21
-16.7188
-12.2282
-8.66338
-5.88431
-3.74624
-2.12158
-0.903803
-0.00560026
0.643857
1.10138
1.41205
1.61137
1.72708
1.78084
1.78946
1.76604
1.72066
1.66112
1.59332
1.52164
1.44923
1.37819
1.30985
1.24482
1.18329
1.12507
1.06978
1.01698
0.966232
0.917195
0.869639
0.82346
0.778678
0.73535
0.693581
0.653425
0.614882
0.577872
0.542225
0.507716
0.474095
0.441134
0.408682
0.376629
0.34494
0.313459
0.282249
0.250728
0.219542
0.18654
0.155693
0.11778
0.092382
0.0371976
0.0440965
-10.1856
-9.6073
-9.20934
-9.39253
-10.6956
-13.4132
-17.5054
-22.7335
-28.6418
-34.5576
-39.7894
-43.8119
-46.3307
-47.1998
-46.2832
-43.5068
-38.9768
-33.0157
-26.2059
-19.3345
-13.1063
-7.91837
-3.88103
-0.961922
0.898319
1.71453
1.46818
0.047457
-2.70824
-6.93931
-12.5706
-19.2095
-26.2659
-33.1477
-39.3677
-44.5306
-48.295
-50.3594
-50.5164
-48.6492
-44.9009
-39.6657
-33.5591
-27.288
-21.4438
-16.368
-12.1601
-8.77118
-6.09246
-4.00514
-2.39993
-1.18234
-0.272794
0.3945
0.873105
1.20606
1.4276
1.56476
1.63877
1.66626
1.66016
1.63055
1.58518
1.52996
1.46931
1.40643
1.34352
1.282
1.22262
1.16571
1.11124
1.05898
1.00864
0.959886
0.912484
0.86628
0.821219
0.777351
0.734757
0.693552
0.653804
0.615526
0.578657
0.543051
0.508512
0.474821
0.441775
0.409241
0.377115
0.345365
0.313834
0.282578
0.251014
0.219787
0.186752
0.155855
0.117946
0.0924167
0.0374665
0.0436915
-10.2581
-9.84585
-9.57652
-9.91784
-11.2792
-13.8604
-17.6953
-22.5447
-27.928
-33.2607
-37.9708
-41.6298
-43.9748
-44.7406
-43.7207
-40.8533
-36.3509
-30.687
-24.4881
-18.3778
-12.839
-8.16056
-4.45896
-1.74871
-0.00971216
0.755109
0.524017
-0.792647
-3.30965
-7.1194
-12.1691
-18.1605
-24.6105
-30.9859
-36.8031
-41.651
-45.1797
-47.0979
-47.2176
-45.4622
-42.0003
-37.2262
-31.7007
-26.028
-20.704
-16.0236
-12.0873
-8.87034
-6.29238
-4.2581
-2.67501
-1.45994
-0.540853
0.143006
0.641873
0.996646
1.24023
1.39885
1.49328
1.53985
1.55138
1.53782
1.50692
1.46458
1.41524
1.36215
1.3076
1.25311
1.19959
1.14749
1.09694
1.04787
1.00009
0.953425
0.90772
0.862901
0.81897
0.776017
0.734148
0.693498
0.654151
0.616138
0.579415
0.543863
0.509307
0.475555
0.442429
0.409813
0.377614
0.345798
0.314209
0.282903
0.251295
0.220027
0.186961
0.156011
0.118112
0.092428
0.0377361
0.0432214
-10.5248
-10.3024
-10.2358
-10.7064
-12.0699
-14.524
-18.0673
-22.4835
-27.3603
-32.1689
-36.4057
-39.6848
-41.668
-42.0904
-40.7929
-37.8407
-33.5529
-28.4187
-22.9469
-17.5772
-12.6615
-8.44645
-5.06367
-2.56043
-0.944339
-0.231345
-0.445604
-1.65907
-3.95449
-7.38285
-11.8926
-17.2505
-23.066
-28.8786
-34.2337
-38.7224
-41.9922
-43.7641
-43.8721
-42.276
-39.1544
-34.8755
-29.9304
-24.8302
-19.9957
-15.6881
-12.0109
-8.96143
-6.48427
-4.50505
-2.94657
-1.73627
-0.809437
-0.110329
0.407922
0.784004
1.04941
1.22948
1.34446
1.41034
1.43975
1.44255
1.42641
1.39722
1.35944
1.31638
1.27041
1.22316
1.17566
1.12851
1.08199
1.03618
0.991054
0.946536
0.902581
0.859196
0.816442
0.774443
0.733339
0.693277
0.654361
0.616635
0.580077
0.544588
0.510023
0.476215
0.443012
0.410316
0.378044
0.34617
0.314536
0.283194
0.251558
0.220261
0.187179
0.156179
0.118305
0.0924513
0.0380467
0.0427375
-10.9612
-10.9221
-11.0538
-11.6377
-12.9516
-15.1767
-18.337
-22.2582
-26.5794
-30.8299
-34.5327
-37.2723
-38.7728
-38.8497
-37.4339
-34.6642
-30.8535
-26.3862
-21.6316
-16.9235
-12.5579
-8.76458
-5.68411
-3.38333
-1.88922
-1.22769
-1.42484
-2.53785
-4.62637
-7.7116
-11.734
-16.4997
-21.6893
-26.9126
-31.7627
-35.8538
-38.8457
-40.4777
-40.6027
-39.2032
-36.4491
-32.6659
-28.2733
-23.705
-19.3233
-15.3633
-11.9317
-9.04454
-6.6679
-4.7456
-3.21413
-2.01085
-1.07811
-0.365133
0.171564
0.568391
0.855349
1.05683
1.19245
1.27784
1.32539
1.34482
1.34372
1.32796
1.30202
1.26923
1.23206
1.19223
1.15093
1.10889
1.06655
1.02414
0.981768
0.939479
0.897335
0.855422
0.813864
0.772829
0.732489
0.693013
0.654525
0.617089
0.5807
0.545285
0.510721
0.476868
0.443596
0.410826
0.378483
0.346547
0.314863
0.283482
0.251817
0.220492
0.187398
0.156345
0.118505
0.0924576
0.0383633
0.0421952
-11.3836
-11.4933
-11.7889
-12.4665
-13.7246
-15.6974
-18.4091
-21.7344
-25.3883
-28.9754
-32.0537
-34.277
-35.433
-35.391
-34.124
-31.7483
-28.497
-24.6579
-20.5258
-16.3878
-12.5093
-9.10314
-6.30896
-4.20435
-2.82981
-2.21888
-2.39921
-3.4154
-5.31005
-8.08469
-11.6722
-15.9023
-20.506
-25.1531
-29.4888
-33.1663
-35.8735
-37.3733
-37.5312
-36.3386
-33.9443
-30.6259
-26.7398
-22.6558
-18.688
-15.0498
-11.8502
-9.12005
-6.84344
-4.97965
-3.47742
-2.28335
-1.34655
-0.621107
-0.0669399
0.350032
0.658244
0.881052
1.0374
1.14249
1.20842
1.24475
1.25897
1.25691
1.24304
1.22075
1.19258
1.16036
1.12542
1.08862
1.05057
1.01165
0.972089
0.932084
0.891793
0.851389
0.811059
0.771017
0.731468
0.692602
0.654564
0.617436
0.581233
0.545903
0.511347
0.477452
0.444111
0.411264
0.37885
0.346858
0.315136
0.283728
0.252051
0.220711
0.187621
0.15652
0.118728
0.0924729
0.0387172
0.0416351
-11.7522
-11.9657
-12.3682
-13.0967
-14.2903
-16.0397
-18.3511
-21.1207
-24.1279
-27.0631
-29.5953
-31.4515
-32.4166
-32.378
-31.3092
-29.294
-26.5108
-23.1907
-19.5842
-15.9433
-12.5022
-9.45247
-6.92788
-5.01161
-3.7533
-3.19155
-3.35547
-4.27918
-5.99227
-8.4837
-11.6828
-15.436
-19.5111
-23.625
-27.471
-30.7461
-33.1754
-34.5469
-34.7353
-33.7334
-31.6653
-28.7642
-25.3314
-21.6821
-18.0896
-14.7479
-11.7667
-9.18839
-7.01106
-5.20714
-3.73624
-2.55347
-1.61444
-0.877952
-0.307318
0.129168
0.458306
0.702343
0.879482
1.00443
1.08898
1.14248
1.17229
1.18418
1.18262
1.17105
1.15208
1.12765
1.09921
1.0678
1.03416
0.998819
0.962166
0.924512
0.886125
0.847264
0.808183
0.769144
0.730389
0.692135
0.654548
0.61773
0.581718
0.546481
0.511944
0.478017
0.444617
0.411701
0.379217
0.347167
0.315402
0.283967
0.252279
0.220926
0.187847
0.156696
0.118962
0.0924763
0.0390826
0.0410198
-12.0839
-12.3706
-12.8378
-13.5831
-14.7037
-16.2602
-18.2467
-20.5738
-23.0672
-25.4909
-27.594
-29.1327
-29.9191
-29.8602
-28.9353
-27.2041
-24.8032
-21.9215
-18.7722
-15.5726
-12.5262
-9.80401
-7.53209
-5.79553
-4.64949
-4.13544
-4.28332
-5.119
-6.66224
-8.8941
-11.7441
-15.0732
-18.6785
-22.3142
-25.7146
-28.6174
-30.7835
-32.0281
-32.2346
-31.395
-29.6107
-27.0754
-24.0426
-20.7802
-17.5262
-14.4573
-11.682
-9.25021
-7.17116
-5.42818
-3.99048
-2.82103
-1.88155
-1.13542
-0.549333
-0.0939798
0.255739
0.520894
0.718879
0.863858
0.967247
1.03816
1.08381
1.1099
1.12089
1.12025
1.11065
1.09418
1.07238
1.04647
1.01732
0.98564
0.951949
0.916689
0.880239
0.842946
0.805134
0.767116
0.729171
0.691544
0.654423
0.61793
0.58212
0.546986
0.512474
0.478518
0.445056
0.412066
0.379512
0.347409
0.31561
0.28416
0.252477
0.221126
0.188073
0.156879
0.119219
0.0924875
0.0394848
0.0403821
-12.3819
-12.7184
-13.2221
-13.9619
-15.0048
-16.3902
-18.106
-20.076
-22.1596
-24.1691
-25.897
-27.1521
-27.7838
-27.7073
-26.8984
-25.4
-23.3214
-20.8186
-18.0709
-15.2637
-12.573
-10.1508
-8.11458
-6.54832
-5.50982
-5.04172
-5.17406
-5.92644
-7.31121
-9.30468
-11.8388
-14.7888
-17.9763
-21.1871
-24.1898
-26.7566
-28.6788
-29.7995
-30.0124
-29.3069
-27.7652
-25.5469
-22.864
-19.9444
-16.9955
-14.178
-11.5967
-9.30632
-7.32427
-5.643
-4.24017
-3.08593
-2.14771
-1.39332
-0.792776
-0.319202
0.0507496
0.336905
0.555786
0.720951
0.843401
0.931975
0.993726
1.03426
1.05801
1.06849
1.06844
1.06006
1.04503
1.02472
1.00016
0.972209
0.941539
0.908719
0.874239
0.838537
0.802009
0.765019
0.727886
0.690887
0.654233
0.618067
0.582466
0.547442
0.512965
0.478989
0.445476
0.412419
0.379798
0.347638
0.315804
0.284337
0.252663
0.22132
0.188304
0.157066
0.119492
0.0924908
0.0399045
0.0396888
-12.6429
-13.0112
-13.5306
-14.2491
-15.2114
-16.4417
-17.9241
-19.5933
-21.3353
-22.999
-24.4194
-25.4435
-25.9452
-25.8488
-25.1326
-23.8308
-22.0304
-19.8584
-17.4643
-15.0058
-12.6352
-10.487
-8.66948
-7.26349
-6.32715
-5.90298
-6.02041
-6.69452
-7.93201
-9.70675
-11.9542
-14.5631
-17.3771
-20.2092
-22.8576
-25.1238
-26.8259
-27.8289
-28.039
-27.4434
-26.1073
-24.1619
-21.7844
-19.1688
-16.4957
-13.9102
-11.5119
-9.35768
-7.47105
-5.85198
-4.48548
-3.34817
-2.41283
-1.65151
-1.03748
-0.546318
-0.156471
0.150577
0.39041
0.575926
0.717661
0.824145
0.90224
0.957444
0.994165
1.01593
1.02559
1.02542
1.01727
1.00263
0.982731
0.95856
0.930948
0.900594
0.868103
0.834005
0.798768
0.762813
0.726502
0.690138
0.653959
0.618129
0.582743
0.547836
0.513397
0.479402
0.445834
0.412704
0.380013
0.3478
0.315937
0.284466
0.252816
0.221495
0.188534
0.15726
0.11979
0.0925028
0.0403641
0.038967
-12.8674
-13.253
-13.7724
-14.4584
-15.3397
-16.4294
-17.7095
-19.1241
-20.5806
-21.9576
-23.1236
-23.9534
-24.3441
-24.2321
-23.5977
-22.4661
-20.9064
-19.0222
-16.9386
-14.7895
-12.7064
-10.8078
-9.19218
-7.93593
-7.09583
-6.7133
-6.81647
-7.4176
-8.51881
-10.0933
-12.0807
-14.3819
-16.8606
-19.3536
-21.6851
-23.6823
-25.1872
-26.0802
-26.2808
-25.7746
-24.6128
-22.903
-20.7932
-18.4484
-16.0257
-13.6547
-11.4288
-9.40536
-7.61231
-6.05564
-4.7267
-3.60787
-2.67692
-1.90993
-1.28334
-0.775178
-0.365744
-0.0378876
0.222975
0.429017
0.590269
0.714913
0.809592
0.879687
0.929566
0.962791
0.982276
0.990425
0.989228
0.980338
0.965138
0.944784
0.920256
0.892387
0.861896
0.829407
0.795462
0.760541
0.725045
0.689314
0.653609
0.618117
0.582953
0.54817
0.51378
0.479777
0.446162
0.412966
0.380207
0.347938
0.316045
0.28457
0.252951
0.221661
0.188768
0.157461
0.120107
0.0925102
0.0408483
0.0381845
-13.056
-13.4475
-13.9556
-14.602
-15.4039
-16.3667
-17.4716
-18.6708
-19.8884
-21.0273
-21.9819
-22.6509
-22.9506
-22.8274
-22.2632
-21.2773
-19.9253
-18.292
-16.4814
-14.607
-12.7816
-11.1094
-9.6791
-8.56181
-7.81168
-7.46828
-7.55802
-8.09146
-9.06714
-10.4588
-12.2106
-14.2345
-16.4116
-18.6001
-20.6473
-22.4025
-23.7288
-24.5202
-24.7072
-24.2743
-23.2612
-21.7561
-19.8824
-17.78
-15.5847
-13.4121
-11.3485
-9.45052
-7.74898
-6.25466
-4.96426
-3.86532
-2.94013
-2.16861
-1.53031
-1.00568
-0.576916
-0.228292
0.0537096
0.280482
0.461498
0.604557
0.716059
0.801254
0.864466
0.909283
0.938703
0.95525
0.961062
0.957957
0.947484
0.930964
0.909528
0.884146
0.855653
0.824769
0.792113
0.75822
0.723539
0.68844
0.65321
0.618058
0.583118
0.54846
0.514117
0.480102
0.446435
0.413167
0.380335
0.34801
0.316092
0.284622
0.253049
0.221806
0.189003
0.157672
0.120454
0.0925292
0.04138
0.0373659
-13.2106
-13.5993
-14.088
-14.6904
-15.4158
-16.2644
-17.2173
-18.2337
-19.2514
-20.1923
-20.9717
-21.5077
-21.7324
-21.6013
-21.0987
-20.2395
-19.068
-17.6536
-16.0828
-14.4515
-12.8565
-11.3889
-10.1278
-9.13853
-8.47184
-8.16494
-8.24224
-8.71317
-9.57368
-10.7988
-12.3375
-14.1119
-16.0182
-17.9335
-19.7254
-21.2625
-22.4269
-23.1246
-23.2953
-22.9227
-22.0373
-20.7109
-19.0461
-17.161
-15.1726
-13.1832
-11.2722
-9.49441
-7.88214
-6.44989
-5.1988
-4.12092
-3.20272
-2.4277
-1.77842
-1.23778
-0.789862
-0.420447
-0.117143
0.130602
0.331654
0.493397
0.621962
0.722456
0.799157
0.855681
0.895113
0.920106
0.932953
0.935641
0.929892
0.917193
0.898833
0.875919
0.849404
0.820105
0.788719
0.755839
0.721959
0.687482
0.652723
0.617912
0.5832
0.548678
0.514394
0.480379
0.44667
0.413334
0.380431
0.348047
0.316102
0.284639
0.253122
0.221937
0.18924
0.157892
0.120827
0.0925467
0.0419449
0.036476
-13.3333
-13.7125
-14.1763
-14.7328
-15.3858
-16.1317
-16.9528
-17.8139
-18.664
-19.4405
-20.0749
-20.5016
-20.6655
-20.5302
-20.0821
-19.3327
-18.3178
-17.0941
-15.7338
-14.3174
-12.9278
-11.6441
-10.5367
-9.66459
-9.07472
-8.80155
-8.86743
-9.28089
-10.0362
-11.1102
-12.4567
-14.0069
-15.6705
-17.341
-18.9039
-20.2453
-21.2631
-21.8749
-22.0274
-21.7046
-20.929
-19.7589
-18.279
-16.5888
-14.7887
-12.9688
-11.2014
-9.53841
-8.01303
-6.64235
-5.43111
-4.3753
-3.46512
-2.68748
-2.02783
-1.47149
-1.0045
-0.614176
-0.289335
-0.0203188
0.20108
0.381793
0.527664
0.643646
0.733971
0.802288
0.851777
0.885231
0.905105
0.913566
0.912514
0.903606
0.88829
0.867815
0.843251
0.815514
0.785376
0.753492
0.720399
0.686534
0.652238
0.61776
0.583272
0.548878
0.514646
0.480622
0.446859
0.413447
0.380466
0.348019
0.316048
0.284601
0.253154
0.222047
0.189481
0.158127
0.121238
0.0925814
0.04257
0.0355401
-13.4265
-13.7912
-14.2268
-14.737
-15.3219
-15.9761
-16.6827
-17.4118
-18.1216
-18.7614
-19.2762
-19.6133
-19.7284
-19.5918
-19.1922
-18.5386
-17.66
-16.6027
-15.4267
-14.1998
-12.9927
-11.8738
-10.905
-10.1395
-9.61975
-9.37747
-9.43289
-9.79363
-10.4534
-11.3907
-12.5642
-13.9134
-15.3599
-16.8117
-18.1698
-19.3359
-20.2213
-20.7543
-20.8879
-20.6061
-19.9252
-18.892
-17.5763
-16.0613
-14.4328
-12.7697
-11.1372
-9.58398
-8.14306
-6.83326
-5.66222
-4.62925
-3.72795
-2.94838
-2.2788
-1.70692
-1.22079
-0.809322
-0.462605
-0.171945
0.0701621
0.27016
0.433589
0.56524
0.669301
0.749465
0.809019
0.850903
0.877752
0.891918
0.895488
0.890294
0.877949
0.859844
0.837171
0.810943
0.78201
0.751086
0.718754
0.685483
0.651642
0.617498
0.583241
0.548989
0.514826
0.480806
0.447003
0.41352
0.380459
0.347946
0.315947
0.284517
0.253152
0.222138
0.189726
0.158375
0.121682
0.0926182
0.0432402
0.0345162
-13.4931
-13.84
-14.2454
-14.7101
-15.232
-15.8044
-16.4117
-17.0286
-17.6207
-18.147
-18.5634
-18.8275
-18.9039
-18.7687
-18.4125
-17.8425
-17.0823
-16.1699
-15.1551
-14.0949
-13.0493
-12.0772
-11.2329
-10.5635
-10.1073
-9.89305
-9.93888
-10.2515
-10.8248
-11.6389
-12.6572
-13.8267
-15.0794
-16.3361
-17.5114
-18.5207
-19.2871
-19.7484
-19.863
-19.6151
-19.0162
-18.1034
-16.9336
-15.5763
-14.1046
-12.5867
-11.081
-9.63271
-8.27379
-7.02406
-5.89337
-4.88382
-3.99203
-3.21101
-2.53173
-1.94428
-1.43875
-1.00575
-0.636686
-0.32391
-0.0606682
0.158965
0.34021
0.487697
0.605578
0.697604
0.767186
0.817432
0.851167
0.870941
0.879038
0.877467
0.868012
0.852209
0.831366
0.806597
0.778828
0.748829
0.71723
0.68453
0.651121
0.617295
0.583251
0.549128
0.515009
0.480978
0.447117
0.413548
0.380395
0.347807
0.315778
0.284372
0.253105
0.222207
0.189979
0.158647
0.122178
0.0926811
0.0439892
0.0334339
-13.5353
-13.8622
-14.2366
-14.6576
-15.1215
-15.6211
-16.1425
-16.6641
-17.1576
-17.5898
-17.9253
-18.1304
-18.1767
-18.0449
-17.7277
-17.2308
-16.5736
-15.7873
-14.9133
-13.9992
-13.0959
-12.2541
-11.5208
-10.9376
-10.5386
-10.3494
-10.3864
-10.6554
-11.1507
-11.854
-12.7334
-13.7426
-14.8229
-15.906
-16.9186
-17.788
-18.448
-18.8443
-18.9404
-18.7208
-18.1931
-17.3864
-16.3468
-15.1321
-13.8036
-12.4205
-11.0343
-9.68632
-8.40699
-7.21644
-6.12608
-5.14033
-4.25845
-3.47621
-2.78719
-2.18389
-1.65848
-1.20334
-0.8113
-0.475807
-0.190914
0.0487574
0.248097
0.41158
0.543336
0.647194
0.726711
0.785181
0.825638
0.850849
0.863303
0.865188
0.858475
0.844841
0.825717
0.802312
0.775631
0.746501
0.715593
0.683438
0.650452
0.616945
0.583129
0.549149
0.515104
0.481082
0.447178
0.41353
0.380284
0.347615
0.315551
0.284169
0.253014
0.222252
0.190238
0.158939
0.122719
0.0927518
0.0447994
0.0322401
-13.557
-13.8626
-14.2062
-14.5857
-14.9966
-15.4319
-15.8789
-16.3195
-16.7303
-17.0846
-17.3538
-17.5112
-17.5342
-17.4075
-17.1253
-16.6924
-16.1247
-15.4479
-14.6964
-13.91
-13.1317
-12.4048
-11.7699
-11.2634
-10.9154
-10.7485
-10.7773
-11.0068
-11.4318
-12.0362
-12.7917
-13.6583
-14.5854
-15.5144
-16.3827
-17.1279
-17.6928
-18.0307
-18.1092
-17.9135
-17.448
-16.7352
-15.8123
-14.7267
-13.5297
-12.272
-10.9986
-9.74667
-8.54464
-7.41236
-6.3622
-5.40041
-4.5286
-3.74507
-3.04597
-2.42622
-1.88016
-1.40202
-0.986161
-0.627195
-0.320035
-0.0598723
0.15785
0.337468
0.483114
0.598726
0.688034
0.754548
0.801532
0.831983
0.848616
0.853793
0.849677
0.838092
0.820586
0.798464
0.772804
0.744485
0.714219
0.682568
0.64997
0.616741
0.583117
0.549249
0.515246
0.481205
0.447232
0.413482
0.380123
0.347357
0.315251
0.283897
0.252872
0.222275
0.190513
0.159268
0.123331
0.0928618
0.0457147
0.0309725
-13.5594
-13.8432
-14.1568
-14.4974
-14.8604
-15.2389
-15.6217
-15.9936
-16.3352
-16.625
-16.8402
-16.9595
-16.9649
-16.8445
-16.5938
-16.2169
-15.7269
-15.1452
-14.5
-13.8248
-13.1559
-12.5298
-11.9817
-11.5429
-11.2399
-11.0925
-11.1136
-11.3075
-11.6696
-12.1856
-12.8309
-13.571
-14.3625
-15.1553
-15.8959
-16.531
-17.0116
-17.2973
-17.3594
-17.1842
-16.7735
-16.1444
-15.3265
-14.3584
-13.2827
-12.142
-10.9754
-9.81577
-8.68898
-7.6141
-6.60391
-5.66607
-4.8042
-4.01899
-3.3091
-2.67192
-2.10407
-1.60175
-1.16095
-0.77755
-0.447357
-0.166161