/*--------------------------------*- C++ -*----------------------------------*\
| =========                 |                                                 |
| \\      /  F ield         | OpenFOAM: The Open Source CFD Toolbox           |
|  \\    /   O peration     | Version:  2.1.1                                 |
|   \\  /    A nd           | Web:      www.OpenFOAM.org                      |
|    \\/     M anipulation  |                                                 |
\*---------------------------------------------------------------------------*/
FoamFile
{
    version     2.0;
    format      ascii;
    class       surfaceScalarField;
    location    "0.07";
    object      phi;
}
// * * * * * * * * * * * * * * * * * * * * * * * * * * * * * * * * * * * * * //

dimensions      [0 3 -1 0 0 0 0];

internalField   nonuniform List<scalar> 
13452
(
4.59923e-05
2.24949e-05
2.96445e-05
1.63478e-05
2.11511e-05
8.49346e-06
1.72291e-05
3.92199e-06
1.55625e-05
1.66661e-06
1.47262e-05
8.36266e-07
1.41837e-05
5.42514e-07
1.37578e-05
4.25901e-07
1.3388e-05
3.69799e-07
1.30583e-05
3.29721e-07
1.27633e-05
2.94951e-07
1.24984e-05
2.64934e-07
1.22582e-05
2.40186e-07
1.20373e-05
2.20872e-07
1.18306e-05
2.06731e-07
1.16333e-05
1.97326e-07
1.1441e-05
1.92228e-07
1.12499e-05
1.91091e-07
1.10563e-05
1.93677e-07
1.08564e-05
1.99847e-07
1.06469e-05
2.09544e-07
1.04241e-05
2.22774e-07
1.01845e-05
2.3958e-07
9.9245e-06
2.6002e-07
9.6404e-06
2.84097e-07
9.32857e-06
3.11838e-07
8.98577e-06
3.42791e-07
8.60868e-06
3.77092e-07
8.19703e-06
4.11656e-07
7.74855e-06
4.48476e-07
7.27978e-06
4.68772e-07
6.80481e-06
4.74971e-07
3.55198e-07
6.44961e-06
7.49078e-05
1.8031e-05
7.03912e-05
2.08645e-05
6.32746e-05
1.561e-05
5.65854e-05
1.06112e-05
5.14291e-05
6.82293e-06
4.7729e-05
4.53636e-06
4.50589e-05
3.21258e-06
4.30763e-05
2.40858e-06
4.15471e-05
1.89896e-06
4.03208e-05
1.55606e-06
3.9304e-05
1.31169e-06
3.84379e-05
1.13109e-06
3.76832e-05
9.94903e-07
3.70126e-05
8.91435e-07
3.64062e-05
8.13137e-07
3.58486e-05
7.54959e-07
3.53273e-05
7.1346e-07
3.48321e-05
6.86298e-07
3.43539e-05
6.71907e-07
3.38844e-05
6.69286e-07
3.34161e-05
6.77843e-07
3.29416e-05
6.97289e-07
3.24537e-05
7.27552e-07
3.1945e-05
7.68708e-07
3.14082e-05
8.20867e-07
3.08359e-05
8.84185e-07
3.02203e-05
9.58327e-07
2.95541e-05
1.04331e-06
2.88302e-05
1.13555e-06
2.80434e-05
1.23526e-06
2.71912e-05
1.32096e-06
2.6285e-05
1.38121e-06
1.37664e-06
2.52635e-05
7.85199e-05
1.19677e-05
8.23257e-05
1.70586e-05
8.29657e-05
1.497e-05
8.14202e-05
1.21567e-05
7.88564e-05
9.38672e-06
7.61195e-05
7.27328e-06
7.35419e-05
5.79011e-06
7.12277e-05
4.72279e-06
6.91902e-05
3.93651e-06
6.74044e-05
3.34181e-06
6.58365e-05
2.87966e-06
6.44533e-05
2.51429e-06
6.32251e-05
2.22304e-06
6.21262e-05
1.99036e-06
6.11343e-05
1.80506e-06
6.02302e-05
1.65904e-06
5.93973e-05
1.54634e-06
5.8621e-05
1.46256e-06
5.78884e-05
1.40454e-06
5.71877e-05
1.37002e-06
5.65081e-05
1.35747e-06
5.58394e-05
1.36596e-06
5.5172e-05
1.39498e-06
5.44963e-05
1.44439e-06
5.38029e-05
1.51423e-06
5.30824e-05
1.60473e-06
5.23249e-05
1.71582e-06
5.15206e-05
1.84756e-06
5.06585e-05
1.99766e-06
4.97285e-05
2.16534e-06
4.87108e-05
2.33858e-06
4.7584e-05
2.50803e-06
2.68461e-06
4.6276e-05
7.81453e-05
8.34896e-06
8.19184e-05
1.32856e-05
8.46087e-05
1.22797e-05
8.62208e-05
1.05446e-05
8.68811e-05
8.72648e-06
8.69405e-05
7.21382e-06
8.66408e-05
6.08979e-06
8.6124e-05
5.23965e-06
8.54813e-05
4.57918e-06
8.47684e-05
4.05473e-06
8.40195e-05
3.62858e-06
8.3257e-05
3.2768e-06
8.24961e-05
2.98387e-06
8.17468e-05
2.73969e-06
8.10142e-05
2.53762e-06
8.03007e-05
2.37262e-06
7.96061e-05
2.24089e-06
7.8929e-05
2.13965e-06
7.82666e-05
2.0669e-06
7.76154e-05
2.02131e-06
7.69707e-05
2.00209e-06
7.63278e-05
2.00892e-06
7.56809e-05
2.04186e-06
7.5024e-05
2.10132e-06
7.43503e-05
2.18791e-06
7.36526e-05
2.30244e-06
7.29227e-05
2.44567e-06
7.21519e-05
2.6184e-06
7.1329e-05
2.82052e-06
7.04419e-05
3.05242e-06
6.94681e-05
3.31236e-06
6.83783e-05
3.59785e-06
3.94247e-06
6.71205e-05
7.89897e-05
6.01516e-06
8.15845e-05
1.06907e-05
8.35056e-05
1.03586e-05
8.4943e-05
9.10723e-06
8.59537e-05
7.71578e-06
8.66854e-05
6.48208e-06
8.72393e-05
5.53594e-06
8.76621e-05
4.81679e-06
8.79846e-05
4.2567e-06
8.82271e-05
3.81227e-06
8.84032e-05
3.45245e-06
8.85231e-05
3.15694e-06
8.85935e-05
2.91341e-06
8.86201e-05
2.7131e-06
8.86083e-05
2.54943e-06
8.85628e-05
2.41808e-06
8.84876e-05
2.31614e-06
8.83855e-05
2.2417e-06
8.82588e-05
2.1936e-06
8.81089e-05
2.17126e-06
8.79364e-05
2.17461e-06
8.77413e-05
2.20404e-06
8.75228e-05
2.26028e-06
8.72798e-05
2.34441e-06
8.70099e-05
2.45778e-06
8.67103e-05
2.602e-06
8.63772e-05
2.77884e-06
8.60053e-05
2.99027e-06
8.55874e-05
3.2384e-06
8.51141e-05
3.52567e-06
8.45688e-05
3.85767e-06
8.39278e-05
4.23891e-06
4.70546e-06
8.31648e-05
8.04613e-05
4.39978e-06
8.2498e-05
8.65402e-06
8.39758e-05
8.88087e-06
8.50247e-05
8.05831e-06
8.57352e-05
7.0053e-06
8.62361e-05
5.98119e-06
8.66288e-05
5.14325e-06
8.69604e-05
4.48518e-06
8.72539e-05
3.96314e-06
8.75208e-05
3.54537e-06
8.77658e-05
3.20744e-06
8.79915e-05
2.93128e-06
8.82e-05
2.70486e-06
8.83931e-05
2.52007e-06
8.85714e-05
2.37112e-06
8.87356e-05
2.25382e-06
8.88865e-05
2.16527e-06
8.90247e-05
2.1035e-06
8.9151e-05
2.06731e-06
8.92662e-05
2.05611e-06
8.9371e-05
2.06981e-06
8.94662e-05
2.1088e-06
8.95526e-05
2.17384e-06
8.9631e-05
2.26608e-06
8.97018e-05
2.38698e-06
8.97654e-05
2.53837e-06
8.98218e-05
2.72243e-06
8.98703e-05
2.94174e-06
8.9909e-05
3.19977e-06
8.99339e-05
3.50072e-06
8.9939e-05
3.85262e-06
8.99142e-05
4.26368e-06
4.75887e-06
8.98608e-05
8.22324e-05
3.26597e-06
8.38873e-05
6.9991e-06
8.51664e-05
7.6017e-06
8.60887e-05
7.13611e-06
8.67161e-05
6.37781e-06
8.71391e-05
5.55819e-06
8.74455e-05
4.83686e-06
8.76847e-05
4.246e-06
8.78834e-05
3.76445e-06
8.80571e-05
3.37172e-06
8.82139e-05
3.05064e-06
8.83581e-05
2.78702e-06
8.84923e-05
2.57063e-06
8.86182e-05
2.39426e-06
8.87366e-05
2.25265e-06
8.88485e-05
2.14192e-06
8.89545e-05
2.05931e-06
8.90551e-05
2.00289e-06
8.9151e-05
1.97141e-06
8.92429e-05
1.96418e-06
8.93318e-05
1.98097e-06
8.94186e-05
2.02198e-06
8.95047e-05
2.08773e-06
8.95916e-05
2.17912e-06
8.96813e-05
2.29733e-06
8.97758e-05
2.44389e-06
8.98775e-05
2.62069e-06
8.99892e-05
2.83008e-06
9.01137e-05
3.07524e-06
9.02542e-05
3.36019e-06
9.04151e-05
3.69176e-06
9.06005e-05
4.07823e-06
4.53226e-06
9.08272e-05
8.42148e-05
2.4667e-06
8.55434e-05
5.67046e-06
8.66571e-05
6.48806e-06
8.75032e-05
6.28999e-06
8.81149e-05
5.76613e-06
8.8545e-05
5.12807e-06
8.88589e-05
4.52301e-06
8.91e-05
4.00482e-06
8.92941e-05
3.57034e-06
8.94572e-05
3.20865e-06
8.95988e-05
2.90907e-06
8.97244e-05
2.6614e-06
8.98375e-05
2.4575e-06
8.99404e-05
2.29135e-06
9.00347e-05
2.1584e-06
9.01214e-05
2.0552e-06
9.02015e-05
1.97923e-06
9.02757e-05
1.92868e-06
9.03448e-05
1.90235e-06
9.04094e-05
1.89951e-06
9.04705e-05
1.91986e-06
9.05291e-05
1.96345e-06
9.05862e-05
2.03064e-06
9.06432e-05
2.1221e-06
9.07018e-05
2.23872e-06
9.0764e-05
2.38171e-06
9.08321e-05
2.55255e-06
9.09091e-05
2.75312e-06
9.09984e-05
2.9859e-06
9.11046e-05
3.25402e-06
9.12343e-05
3.562e-06
9.13967e-05
3.91582e-06
4.31974e-06
9.16093e-05
8.63702e-05
1.89521e-06
8.74342e-05
4.60649e-06
8.83972e-05
5.52502e-06
8.91634e-05
5.5238e-06
8.97459e-05
5.18359e-06
9.01755e-05
4.69852e-06
9.04992e-05
4.19933e-06
9.07534e-05
3.75058e-06
9.09607e-05
3.36303e-06
9.11356e-05
3.03375e-06
9.12874e-05
2.75734e-06
9.14216e-05
2.52715e-06
9.15421e-05
2.33704e-06
9.16513e-05
2.18215e-06
9.1751e-05
2.05867e-06
9.18426e-05
1.96359e-06
9.19272e-05
1.89466e-06
9.20056e-05
1.85023e-06
9.20789e-05
1.82913e-06
9.21477e-05
1.83065e-06
9.22132e-05
1.85442e-06
9.22762e-05
1.90038e-06
9.23381e-05
1.96874e-06
9.24003e-05
2.05994e-06
9.24644e-05
2.17465e-06
9.25323e-05
2.31375e-06
9.26065e-05
2.47834e-06
9.26898e-05
2.66979e-06
9.27859e-05
2.88983e-06
9.28994e-05
3.14055e-06
9.30369e-05
3.42449e-06
9.32077e-05
3.74496e-06
4.10174e-06
9.34257e-05
8.86657e-05
1.47947e-06
8.95177e-05
3.75451e-06
9.03473e-05
4.69541e-06
9.10381e-05
4.83305e-06
9.15871e-05
4.63454e-06
9.20097e-05
4.27593e-06
9.23378e-05
3.87127e-06
9.26005e-05
3.48791e-06
9.28173e-05
3.14623e-06
9.30014e-05
2.84958e-06
9.31619e-05
2.5969e-06
9.33044e-05
2.38463e-06
9.34329e-05
2.20858e-06
9.355e-05
2.06506e-06
9.36576e-05
1.95099e-06
9.37574e-05
1.86384e-06
9.38504e-05
1.80163e-06
9.39378e-05
1.76283e-06
9.40206e-05
1.74636e-06
9.40998e-05
1.75145e-06
9.41765e-05
1.77768e-06
9.4252e-05
1.82486e-06
9.43278e-05
1.89301e-06
9.44054e-05
1.98236e-06
9.44867e-05
2.09329e-06
9.45741e-05
2.22633e-06
9.46703e-05
2.38214e-06
9.47786e-05
2.56151e-06
9.49031e-05
2.76536e-06
9.5049e-05
2.99468e-06
9.52232e-05
3.25029e-06
9.54349e-05
3.53322e-06
3.84063e-06
9.5696e-05
9.10795e-05
1.17126e-06
9.17636e-05
3.07041e-06
9.24773e-05
3.98177e-06
9.30993e-05
4.21101e-06
9.3614e-05
4.1198e-06
9.40258e-05
3.86412e-06
9.43549e-05
3.54225e-06
9.46236e-05
3.21922e-06
9.48485e-05
2.92131e-06
9.50413e-05
2.65672e-06
9.52104e-05
2.42783e-06
9.53613e-05
2.2337e-06
9.5498e-05
2.07191e-06
9.56232e-05
1.93989e-06
9.57389e-05
1.83524e-06
9.58469e-05
1.7559e-06
9.59484e-05
1.70012e-06
9.60447e-05
1.66653e-06
9.61369e-05
1.65409e-06
9.62264e-05
1.66202e-06
9.63143e-05
1.68978e-06
9.64021e-05
1.73706e-06
9.64914e-05
1.80369e-06
9.65841e-05
1.88965e-06
9.66824e-05
1.995e-06
9.67888e-05
2.11991e-06
9.69064e-05
2.26453e-06
9.70389e-05
2.42904e-06
9.71907e-05
2.61354e-06
9.73674e-05
2.81796e-06
9.7576e-05
3.0417e-06
9.78253e-05
3.28393e-06
3.54028e-06
9.81256e-05
9.35979e-05
9.37995e-07
9.41499e-05
2.5184e-06
9.47631e-05
3.3686e-06
9.53221e-05
3.65198e-06
9.58025e-05
3.63944e-06
9.62011e-05
3.46548e-06
9.65292e-05
3.21421e-06
9.68029e-05
2.94552e-06
9.70356e-05
2.68854e-06
9.72374e-05
2.45492e-06
9.74157e-05
2.24956e-06
9.75757e-05
2.07364e-06
9.77214e-05
1.92624e-06
9.78555e-05
1.80579e-06
9.79802e-05
1.71054e-06
9.80973e-05
1.63884e-06
9.82082e-05
1.58923e-06
9.83142e-05
1.56045e-06
9.84168e-05
1.5515e-06
9.85173e-05
1.56157e-06
9.8617e-05
1.59003e-06
9.87177e-05
1.63642e-06
9.8821e-05
1.70037e-06
9.89291e-05
1.7816e-06
9.90442e-05
1.87987e-06
9.91692e-05
1.99494e-06
9.93072e-05
2.1265e-06
9.94621e-05
2.27413e-06
9.96385e-05
2.43717e-06
9.98418e-05
2.61466e-06
0.000100079
2.80488e-06
0.000100357
3.00568e-06
3.21196e-06
0.000100685
9.62124e-05
7.57699e-07
9.66609e-05
2.06985e-06
9.7188e-05
2.84149e-06
9.76901e-05
3.14994e-06
9.81372e-05
3.19237e-06
9.8521e-05
3.08164e-06
9.8846e-05
2.88919e-06
9.91231e-05
2.66843e-06
9.93627e-05
2.44898e-06
9.9573e-05
2.24462e-06
9.97605e-05
2.06205e-06
9.99301e-05
1.90401e-06
0.000100085
1.77087e-06
0.000100229
1.66189e-06
0.000100364
1.57593e-06
0.000100491
1.51171e-06
0.000100612
1.46799e-06
0.000100729
1.44365e-06
0.000100843
1.43769e-06
0.000100955
1.44927e-06
0.000101068
1.47768e-06
0.000101182
1.52229e-06
0.0001013
1.58254e-06
0.000101423
1.6579e-06
0.000101555
1.74783e-06
0.000101699
1.85171e-06
0.000101856
1.96881e-06
0.000102032
2.09817e-06
0.000102231
2.23852e-06
0.000102457
2.38818e-06
0.000102718
2.54469e-06
0.000103018
2.70505e-06
2.86396e-06
0.000103366
9.8918e-05
6.15395e-07
9.92858e-05
1.70209e-06
9.97399e-05
2.38733e-06
0.000100191
2.699e-06
0.000100606
2.77699e-06
0.000100974
2.71353e-06
0.000101295
2.56879e-06
0.000101574
2.38926e-06
0.000101819
2.20346e-06
0.000102038
2.02618e-06
0.000102235
1.86525e-06
0.000102414
1.72453e-06
0.00010258
1.60535e-06
0.000102734
1.50767e-06
0.000102879
1.43083e-06
0.000103017
1.37389e-06
0.000103149
1.3358e-06
0.000103277
1.31552e-06
0.000103403
1.3121e-06
0.000103527
1.32464e-06
0.000103653
1.35233e-06
0.000103781
1.3944e-06
0.000103913
1.4501e-06
0.000104052
1.51868e-06
0.000104201
1.5993e-06
0.000104361
1.69104e-06
0.000104538
1.79276e-06
0.000104733
1.90311e-06
0.000104951
2.02035e-06
0.000105197
2.14229e-06
0.000105475
2.26603e-06
0.000105792
2.38812e-06
2.5035e-06
0.000106153
0.000101712
5.00763e-07
0.000102017
1.39733e-06
0.00010241
1.9944e-06
0.000102816
2.29331e-06
0.000103202
2.39108e-06
0.000103554
2.36126e-06
0.000103869
2.254e-06
0.000104149
2.10906e-06
0.0001044
1.95281e-06
0.000104626
1.80012e-06
0.000104831
1.6594e-06
0.000105021
1.53519e-06
0.000105197
1.42947e-06
0.000105362
1.34278e-06
0.000105518
1.27482e-06
0.000105667
1.22491e-06
0.00010581
1.19216e-06
0.00010595
1.17563e-06
0.000106088
1.17435e-06
0.000106225
1.18738e-06
0.000106364
1.21382e-06
0.000106505
1.25276e-06
0.000106652
1.30329e-06
0.000106806
1.36443e-06
0.000106971
1.43512e-06
0.000107147
1.51417e-06
0.00010734
1.60014e-06
0.000107552
1.69138e-06
0.000107786
1.78582e-06
0.000108048
1.881e-06
0.00010834
1.97384e-06
0.000108667
2.06075e-06
2.13714e-06
0.000109034
0.000104595
4.06578e-07
0.00010485
1.14166e-06
0.000105192
1.65234e-06
0.000105558
1.92715e-06
0.000105918
2.03202e-06
0.000106254
2.02433e-06
0.000106563
1.94535e-06
0.000106844
1.82859e-06
0.000107099
1.69766e-06
0.000107332
1.56686e-06
0.000107547
1.44466e-06
0.000107746
1.33591e-06
0.000107932
1.24304e-06
0.000108108
1.16691e-06
0.000108276
1.10754e-06
0.000108436
1.06442e-06
0.000108591
1.03678e-06
0.000108743
1.02372e-06
0.000108893
1.02427e-06
0.000109043
1.03745e-06
0.000109195
1.06226e-06
0.00010935
1.09767e-06
0.000109511
1.14262e-06
0.000109679
1.19597e-06
0.000109858
1.25647e-06
0.000110049
1.3227e-06
0.000110256
1.39306e-06
0.000110482
1.46566e-06
0.00011073
1.5383e-06
0.000111002
1.6084e-06
0.000111303
1.67289e-06
0.000111636
1.72829e-06
1.77062e-06
0.000112002
0.000107565
3.27683e-07
0.000107782
9.24205e-07
0.000108083
1.3521e-06
0.000108415
1.59501e-06
0.00010875
1.69691e-06
0.000109072
1.70166e-06
0.000109375
1.6428e-06
0.000109655
1.54817e-06
0.000109915
1.43839e-06
0.000110155
1.32666e-06
0.000110378
1.22114e-06
0.000110588
1.1267e-06
0.000110785
1.04592e-06
0.000110972
9.79892e-07
0.000111151
9.28778e-07
0.000111323
8.922e-07
0.00011149
8.69456e-07
0.000111654
8.59663e-07
0.000111817
8.61839e-07
0.000111979
8.74946e-07
0.000112143
8.97906e-07
0.000112312
9.29594e-07
0.000112485
9.68826e-07
0.000112667
1.01433e-06
0.000112859
1.06472e-06
0.000113063
1.11845e-06
0.000113282
1.17378e-06
0.000113519
1.22876e-06
0.000113776
1.28113e-06
0.000114056
1.32836e-06
0.000114362
1.36756e-06
0.000114695
1.39549e-06
1.40886e-06
0.000115056
0.000110624
2.60319e-07
0.000110812
7.3642e-07
0.000111078
1.08586e-06
0.000111382
1.29166e-06
0.000111696
1.38263e-06
0.000112006
1.39175e-06
0.000112303
1.34586e-06
0.000112583
1.26779e-06
0.000112846
1.17511e-06
0.000113093
1.07963e-06
0.000113326
9.88883e-07
0.000113545
9.07489e-07
0.000113753
8.37999e-07
0.000113951
7.81545e-07
0.000114142
7.38359e-07
0.000114326
7.08105e-07
0.000114505
6.90105e-07
0.000114681
6.83466e-07
0.000114856
6.87179e-07
0.000115031
7.00153e-07
0.000115207
7.21241e-07
0.000115388
7.49237e-07
0.000115574
7.82867e-07
0.000115767
8.20773e-07
0.00011597
8.61484e-07
0.000116186
9.0339e-07
0.000116415
9.44719e-07
0.00011666
9.8351e-07
0.000116923
1.01759e-06
0.000117207
1.04456e-06
0.000117513
1.0618e-06
0.000117842
1.06646e-06
1.05587e-06
0.000118195
0.000113774
2.01677e-07
0.000113939
5.71548e-07
0.000114178
8.46858e-07
0.000114458
1.01211e-06
0.000114754
1.08593e-06
0.000115053
1.09269e-06
0.000115346
1.05357e-06
0.000115626
9.87005e-07
0.000115894
9.07624e-07
0.000116148
8.25644e-07
0.000116389
7.47753e-07
0.000116618
6.78121e-07
0.000116837
6.19084e-07
0.000117047
5.71685e-07
0.000117249
5.36116e-07
0.000117445
5.12018e-07
0.000117637
4.98685e-07
0.000117825
4.95193e-07
0.000118012
5.00489e-07
0.000118199
5.13431e-07
0.000118387
5.32814e-07
0.000118579
5.57373e-07
0.000118776
5.85779e-07
0.00011898
6.16625e-07
0.000119193
6.4841e-07
0.000119417
6.7952e-07
0.000119654
7.08213e-07
0.000119904
7.32609e-07
0.000120171
7.50678e-07
0.000120456
7.60255e-07
0.000120758
7.59054e-07
0.00012108
7.44625e-07
7.14948e-07
0.000121421
0.000117016
1.496e-07
0.000117164
4.24166e-07
0.000117381
6.2922e-07
0.000117642
7.51681e-07
0.000117924
8.03442e-07
0.000118215
8.02275e-07
0.000118504
7.6459e-07
0.000118786
7.05011e-07
0.000119058
6.35418e-07
0.000119319
5.64345e-07
0.00011957
4.97476e-07
0.000119809
4.38365e-07
0.000120039
3.88984e-07
0.000120261
3.50165e-07
0.000120475
3.21966e-07
0.000120683
3.03938e-07
0.000120887
2.95303e-07
0.000121087
2.95079e-07
0.000121285
3.02157e-07
0.000121483
3.15346e-07
0.000121682
3.33394e-07
0.000121885
3.55e-07
0.000122092
3.78808e-07
0.000122305
4.03402e-07
0.000122526
4.27296e-07
0.000122757
4.48924e-07
0.000122998
4.66632e-07
0.000123252
4.78679e-07
0.00012352
4.83236e-07
0.000123802
4.7841e-07
0.000124098
4.62273e-07
0.00012441
4.32797e-07
3.88518e-07
0.000124737
0.000120353
1.02383e-07
0.000120488
2.89841e-07
0.000120689
4.27814e-07
0.000120935
5.05926e-07
0.000121206
5.31722e-07
0.000121491
5.17978e-07
0.000121778
4.77154e-07
0.000122063
4.20577e-07
0.00012234
3.57596e-07
0.00012261
2.95043e-07
0.00012287
2.37488e-07
0.00012312
1.87743e-07
0.000123362
1.47294e-07
0.000123596
1.16655e-07
0.000123822
9.56669e-08
0.000124042
8.37276e-08
0.000124257
7.99478e-08
0.000124469
8.32598e-08
0.000124679
9.24878e-08
0.000124888
1.06389e-07
0.000125098
1.23679e-07
0.00012531
1.43037e-07
0.000125525
1.6311e-07
0.000125746
1.82507e-07
0.000125974
1.99795e-07
0.000126209
2.13498e-07
0.000126454
2.22094e-07
0.000126708
2.2402e-07
0.000126974
2.17684e-07
0.000127251
2.01486e-07
0.000127539
1.73863e-07
0.000127839
1.33213e-07
7.85761e-08
0.000128149
0.000123787
5.86299e-08
0.000123912
1.64853e-07
0.000124102
2.38071e-07
0.000124337
2.7059e-07
0.000124601
2.67226e-07
0.000124882
2.37013e-07
0.00012517
1.89157e-07
0.000125459
1.32139e-07
0.000125744
7.29878e-08
0.000126022
1.68489e-08
0.000126292
-3.28856e-08
0.000126554
-7.42456e-08
0.000126808
-1.06334e-07
0.000127053
-1.2905e-07
0.000127292
-1.42843e-07
0.000127524
-1.48526e-07
0.000127751
-1.4714e-07
0.000127974
-1.39861e-07
0.000128195
-1.27942e-07
0.000128414
-1.12676e-07
0.000128633
-9.5371e-08
0.000128853
-7.73494e-08
0.000129076
-5.99398e-08
0.000129303
-4.44793e-08
0.000129535
-3.23154e-08
0.000129774
-2.48045e-08
0.000130019
-2.33082e-08
0.000130272
-2.91844e-08
0.000130534
-4.37747e-08
0.000130804
-6.83825e-08
0.000131082
-1.04225e-07
0.000131368
-1.52533e-07
-2.13857e-07
0.00013166
0.00012732
1.71521e-08
0.000127439
4.59694e-08
0.000127621
5.5808e-08
0.00012785
4.1514e-08
0.000128111
6.23842e-09
0.000128392
-4.37713e-08
0.000128683
-1.01989e-07
0.000128978
-1.62417e-07
0.000129271
-2.20144e-07
0.000129559
-2.7167e-07
0.000129841
-3.14841e-07
0.000130116
-3.486e-07
0.000130382
-3.72722e-07
0.000130641
-3.87599e-07
0.000130892
-3.9404e-07
0.000131136
-3.9312e-07
0.000131375
-3.86069e-07
0.00013161
-3.74196e-07
0.000131841
-3.58842e-07
0.000132069
-3.41349e-07
0.000132297
-3.23045e-07
0.000132525
-3.05238e-07
0.000132754
-2.89213e-07
0.000132986
-2.76231e-07
0.000133221
-2.67533e-07
0.000133461
-2.64334e-07
0.000133705
-2.67816e-07
0.000133955
-2.79124e-07
0.000134211
-2.99343e-07
0.000134472
-3.2949e-07
0.000134738
-3.70456e-07
0.000135009
-4.23117e-07
-4.87667e-07
0.000135282
0.000130955
-2.3115e-08
0.000131071
-6.97354e-08
0.00013125
-1.22922e-07
0.000131477
-1.85438e-07
0.000131738
-2.55099e-07
0.000132022
-3.27759e-07
0.000132319
-3.99128e-07
0.000132622
-4.65403e-07
0.000132925
-5.23642e-07
0.000133226
-5.71968e-07
0.00013352
-6.09491e-07
0.000133808
-6.36134e-07
0.000134088
-6.52423e-07
0.000134359
-6.59313e-07
0.000134623
-6.58032e-07
0.00013488
-6.49962e-07
0.000135131
-6.36553e-07
0.000135376
-6.19269e-07
0.000135616
-5.9955e-07
0.000135854
-5.78788e-07
0.000136089
-5.58325e-07
0.000136323
-5.39445e-07
0.000136558
-5.23373e-07
0.000136793
-5.11283e-07
0.000137029
-5.04291e-07
0.000137268
-5.03457e-07
0.00013751
-5.0978e-07
0.000137756
-5.24188e-07
0.000138004
-5.47523e-07
0.000138255
-5.80535e-07
0.000138508
-6.23835e-07
0.000138763
-6.78007e-07
-7.42978e-07
0.000139018
0.000134695
-6.31758e-08
0.000134811
-1.85071e-07
0.00013499
-3.02058e-07
0.000135219
-4.14625e-07
0.000135485
-5.21121e-07
0.000135776
-6.19028e-07
0.000136083
-7.05965e-07
0.000136398
-7.80117e-07
0.000136714
-8.40408e-07
0.000137029
-8.86556e-07
0.000137339
-9.18981e-07
0.000137641
-9.38651e-07
0.000137936
-9.46915e-07
0.000138222
-9.45357e-07
0.000138499
-9.35681e-07
0.000138769
-9.19623e-07
0.000139031
-8.98889e-07
0.000139287
-8.75115e-07
0.000139537
-8.4985e-07
0.000139783
-8.24542e-07
0.000140025
-8.00542e-07
0.000140265
-7.791e-07
0.000140503
-7.61376e-07
0.00014074
-7.48442e-07
0.000140977
-7.41282e-07
0.000141214
-7.40798e-07
0.000141453
-7.47802e-07
0.000141691
-7.6301e-07
0.000141931
-7.87039e-07
0.000142171
-8.2039e-07
0.00014241
-8.63418e-07
0.000142649
-9.16433e-07
-9.79132e-07
0.000142885
0.000138543
-1.04031e-07
0.000138661
-3.02846e-07
0.000138844
-4.85593e-07
0.00013908
-6.50523e-07
0.000139355
-7.96273e-07
0.000139658
-9.2168e-07
0.000139978
-1.0261e-06
0.000140308
-1.10959e-06
0.00014064
-1.17292e-06
0.000140971
-1.21741e-06
0.000141297
-1.24485e-06
0.000141616
-1.25731e-06
0.000141926
-1.25703e-06
0.000142227
-1.24627e-06
0.000142518
-1.22727e-06
0.000142801
-1.20215e-06
0.000143075
-1.17291e-06
0.000143341
-1.14137e-06
0.0001436
-1.1092e-06
0.000143854
-1.0779e-06
0.000144102
-1.04883e-06
0.000144346
-1.02322e-06
0.000144587
-1.00213e-06
0.000144825
-9.86551e-07
0.000145061
-9.7732e-07
0.000145295
-9.75181e-07
0.000145528
-9.80768e-07
0.00014576
-9.94603e-07
0.00014599
-1.01709e-06
0.000146218
-1.04853e-06
0.000146444
-1.08905e-06
0.000146666
-1.13877e-06
-1.19724e-06
0.000146884
0.000142502
-1.46793e-07
0.000142625
-4.26211e-07
0.000142818
-6.78169e-07
0.000143066
-8.98638e-07
0.000143356
-1.08644e-06
0.000143676
-1.24162e-06
0.000144015
-1.36519e-06
0.000144365
-1.45907e-06
0.000144718
-1.52589e-06
0.000145069
-1.56866e-06
0.000145415
-1.59061e-06
0.000145752
-1.59501e-06
0.00014608
-1.58507e-06
0.000146398
-1.56381e-06
0.000146705
-1.53406e-06
0.000147001
-1.49837e-06
0.000147287
-1.45904e-06
0.000147564
-1.4181e-06
0.000147832
-1.37735e-06
0.000148092
-1.33836e-06
0.000148346
-1.30248e-06
0.000148594
-1.27089e-06
0.000148836
-1.2446e-06
0.000149074
-1.22447e-06
0.000149308
-1.21121e-06
0.000149538
-1.2054e-06
0.000149765
-1.20751e-06
0.000149988
-1.21788e-06
0.000150208
-1.23672e-06
0.000150424
-1.26413e-06
0.000150635
-1.30006e-06
0.00015084
-1.34442e-06
-1.3966e-06
0.00015104
0.000146575
-1.92632e-07
0.000146707
-5.58472e-07
0.000146914
-8.8447e-07
0.000147179
-1.1642e-06
0.00014749
-1.39679e-06
0.000147832
-1.58362e-06
0.000148194
-1.72745e-06
0.000148567
-1.83218e-06
0.000148944
-1.9024e-06
0.000149318
-1.94291e-06
0.000149686
-1.95844e-06
0.000150044
-1.95357e-06
0.000150392
-1.93253e-06
0.000150727
-1.89918e-06
0.00015105
-1.85696e-06
0.00015136
-1.80891e-06
0.000151659
-1.75765e-06
0.000151946
-1.70545e-06
0.000152223
-1.65424e-06
0.000152491
-1.60565e-06
0.000152749
-1.56105e-06
0.000153
-1.52158e-06
0.000153243
-1.48815e-06
0.00015348
-1.46151e-06
0.000153711
-1.44226e-06
0.000153937
-1.43082e-06
0.000154157
-1.4275e-06
0.000154372
-1.43247e-06
0.000154581
-1.44578e-06
0.000154784
-1.46737e-06
0.000154981
-1.49703e-06
0.000155171
-1.53456e-06
-1.57928e-06
0.000155354
0.000150766
-2.43275e-07
0.000150912
-7.04487e-07
0.00015114
-1.11182e-06
0.000151432
-1.45617e-06
0.000151772
-1.73711e-06
0.000152146
-1.95759e-06
0.000152541
-2.12229e-06
0.000152946
-2.23741e-06
0.000153353
-2.30978e-06
0.000153757
-2.34621e-06
0.000154151
-2.3532e-06
0.000154535
-2.33671e-06
0.000154904
-2.30215e-06
0.000155259
-2.25425e-06
0.000155599
-2.19713e-06
0.000155925
-2.13433e-06
0.000156236
-2.06883e-06
0.000156534
-2.00311e-06
0.000156819
-1.93926e-06
0.000157092
-1.87894e-06
0.000157354
-1.82353e-06
0.000157607
-1.77411e-06
0.00015785
-1.73153e-06
0.000158085
-1.69641e-06
0.000158312
-1.66921e-06
0.000158532
-1.65022e-06
0.000158744
-1.63959e-06
0.000158949
-1.63733e-06
0.000159146
-1.64334e-06
0.000159336
-1.65741e-06
0.000159518
-1.67918e-06
0.000159692
-1.7083e-06
-1.74398e-06
0.000159857
0.000155078
-3.00115e-07
0.000155242
-8.68347e-07
0.000155496
-1.36555e-06
0.00015582
-1.78e-06
0.000156195
-2.11262e-06
0.000156606
-2.36846e-06
0.000157038
-2.5545e-06
0.000157481
-2.67946e-06
0.000157923
-2.75267e-06
0.00015836
-2.78313e-06
0.000158786
-2.77919e-06
0.000159198
-2.74843e-06
0.000159593
-2.6975e-06
0.000159971
-2.63213e-06
0.000160331
-2.5572e-06
0.000160674
-2.47679e-06
0.000160999
-2.39426e-06
0.000161308
-2.31235e-06
0.000161602
-2.23327e-06
0.000161882
-2.15877e-06
0.000162149
-2.09021e-06
0.000162403
-2.0286e-06
0.000162647
-1.97471e-06
0.000162879
-1.92905e-06
0.000163102
-1.89193e-06
0.000163315
-1.86351e-06
0.00016352
-1.8438e-06
0.000163715
-1.83266e-06
0.000163901
-1.82985e-06
0.000164079
-1.83504e-06
0.000164248
-1.84779e-06
0.000164407
-1.86765e-06
-1.8938e-06
0.000164557
0.000159518
-3.67415e-07
0.000159711
-1.0611e-06
0.000160007
-1.66176e-06
0.000160381
-2.15442e-06
0.000160811
-2.54238e-06
0.000161276
-2.8338e-06
0.000161761
-3.03899e-06
0.000162252
-3.17023e-06
0.000162739
-3.24003e-06
0.000163216
-3.26002e-06
0.000163677
-3.2407e-06
0.00016412
-3.19135e-06
0.000164543
-3.11996e-06
0.000164944
-3.03328e-06
0.000165324
-2.93695e-06
0.000165682
-2.83558e-06
0.000166021
-2.7329e-06
0.000166341
-2.63188e-06
0.000166642
-2.53486e-06
0.000166927
-2.44361e-06
0.000167196
-2.35948e-06
0.000167451
-2.28341e-06
0.000167693
-2.21607e-06
0.000167921
-2.15783e-06
0.000168138
-2.10888e-06
0.000168344
-2.06924e-06
0.000168539
-2.03876e-06
0.000168723
-2.01717e-06
0.000168898
-2.00411e-06
0.000169062
-1.9991e-06
0.000169216
-2.00159e-06
0.000169359
-2.011e-06
-2.02639e-06
0.000169491
0.000164084
-4.44876e-07
0.000164307
-1.28465e-06
0.000164648
-2.00223e-06
0.000165075
-2.58152e-06
0.000165563
-3.03035e-06
0.000166089
-3.36024e-06
0.000166635
-3.58489e-06
0.000167185
-3.7206e-06
0.000167729
-3.78361e-06
0.000168258
-3.78864e-06
0.000168766
-3.7488e-06
0.00016925
-3.67546e-06
0.000169708
-3.57822e-06
0.00017014
-3.46504e-06
0.000170545
-3.34239e-06
0.000170925
-3.21552e-06
0.000171281
-3.08852e-06
0.000171614
-2.9646e-06
0.000171925
-2.84619e-06
0.000172216
-2.73508e-06
0.000172489
-2.63255e-06
0.000172745
-2.53946e-06
0.000172986
-2.45632e-06
0.000173211
-2.38339e-06
0.000173423
-2.32068e-06
0.000173622
-2.26806e-06
0.000173808
-2.22524e-06
0.000173983
-2.19183e-06
0.000174146
-2.16734e-06
0.000174298
-2.1512e-06
0.00017444
-2.14277e-06
0.00017457
-2.14145e-06
-2.14625e-06
0.00017469
0.000168797
-5.49929e-07
0.000169087
-1.57508e-06
0.000169516
-2.43132e-06
0.000170038
-3.10356e-06
0.000170619
-3.61075e-06
0.00017123
-3.97194e-06
0.000171853
-4.20719e-06
0.000172471
-4.33856e-06
0.000173074
-4.38658e-06
0.000173654
-4.36919e-06
0.000174208
-4.30206e-06
0.000174731
-4.19856e-06
0.000175222
-4.06981e-06
0.000175682
-3.9249e-06
0.000176111
-3.77114e-06
0.00017651
-3.6143e-06
0.00017688
-3.45888e-06
0.000177224
-3.30827e-06
0.000177542
-3.16499e-06
0.000177838
-3.03082e-06
0.000178113
-2.90698e-06
0.000178367
-2.79418e-06
0.000178604
-2.69282e-06
0.000178823
-2.60296e-06
0.000179027
-2.52448e-06
0.000179216
-2.45706e-06
0.000179391
-2.40026e-06
0.000179553
-2.35356e-06
0.000179702
-2.31633e-06
0.000179839
-2.28789e-06
0.000179963
-2.2675e-06
0.000180076
-2.25441e-06
-2.24751e-06
0.000180178
0.000173625
-6.63431e-07
0.000173962
-1.9119e-06
0.000174463
-2.9324e-06
0.000175078
-3.71863e-06
0.000175766
-4.29915e-06
0.000176492
-4.69732e-06
0.000177225
-4.94084e-06
0.000177947
-5.06039e-06
0.000178643
-5.08293e-06
0.000179305
-5.03121e-06
0.000179928
-4.92463e-06
0.000180509
-4.7793e-06
0.000181047
-4.60826e-06
0.000181544
-4.42193e-06
0.000182002
-4.2285e-06
0.000182422
-4.03425e-06
0.000182807
-3.84397e-06
0.000183159
-3.66114e-06
0.000183483
-3.48824e-06
0.000183779
-3.32694e-06
0.00018405
-3.17828e-06
0.000184299
-3.04277e-06
0.000184526
-2.92057e-06
0.000184735
-2.81152e-06
0.000184926
-2.71528e-06
0.0001851
-2.63134e-06
0.000185259
-2.55909e-06
0.000185403
-2.49784e-06
0.000185534
-2.4469e-06
0.000185651
-2.4055e-06
0.000185757
-2.37285e-06
0.000185851
-2.34823e-06
-2.33042e-06
0.000185933
0.000178685
-8.7956e-07
0.0001792
-2.4269e-06
0.000179883
-3.61607e-06
0.000180656
-4.49125e-06
0.000181476
-5.11885e-06
0.00018231
-5.53158e-06
0.000183135
-5.76566e-06
0.000183934
-5.85932e-06
0.000184695
-5.84434e-06
0.000185411
-5.74748e-06
0.000186078
-5.59162e-06
0.000186695
-5.39551e-06
0.00018726
-5.17415e-06
0.000187778
-4.93928e-06
0.000188249
-4.69999e-06
0.000188678
-4.46307e-06
0.000189068
-4.23353e-06
0.000189421
-4.01487e-06
0.000189743
-3.80948e-06
0.000190034
-3.61881e-06
0.0001903
-3.44363e-06
0.000190541
-3.28418e-06
0.000190761
-3.14031e-06
0.000190961
-3.01158e-06
0.000191143
-2.89737e-06
0.000191309
-2.79691e-06
0.000191459
-2.70941e-06
0.000191595
-2.634e-06
0.000191718
-2.56986e-06
0.000191829
-2.51616e-06
0.000191928
-2.47211e-06
0.000192017
-2.43695e-06
-2.40942e-06
0.000192096
0.000183748
-1.06029e-06
0.000184347
-3.02553e-06
0.000185191
-4.46041e-06
0.000186178
-5.47776e-06
0.000187224
-6.16528e-06
0.000188267
-6.5743e-06
0.000189272
-6.77055e-06
0.000190223
-6.81117e-06
0.000191116
-6.73686e-06
0.000191948
-6.57965e-06
0.000192722
-6.3654e-06
0.000193441
-6.11412e-06
0.000194108
-5.84122e-06
0.000194727
-5.55851e-06
0.000195302
-5.27492e-06
0.000195836
-4.99704e-06
0.000196332
-4.72968e-06
0.000196793
-4.47615e-06
0.000197222
-4.23867e-06
0.000197622
-4.01851e-06
0.000197995
-3.81626e-06
0.000198343
-3.63197e-06
0.000198667
-3.46529e-06
0.000198971
-3.31557e-06
0.000199256
-3.18198e-06
0.000199523
-3.06357e-06
0.000199773
-2.95937e-06
0.000200007
-2.86839e-06
0.000200227
-2.78977e-06
0.000200434
-2.72271e-06
0.000200628
-2.66677e-06
0.000200813
-2.62125e-06
-2.58612e-06
0.000200989
0.00018942
-1.66861e-06
0.000190416
-4.02143e-06
0.00019151
-5.55471e-06
0.000192685
-6.65277e-06
0.000193947
-7.42647e-06
0.000195272
-7.89962e-06
0.00019664
-8.13895e-06
0.000198028
-8.19896e-06
0.000199409
-8.11814e-06
0.000200761
-7.93113e-06
0.000202064
-7.66819e-06
0.000203304
-7.35412e-06
0.000204471
-7.00896e-06
0.000205562
-6.64857e-06
0.000206572
-6.28522e-06
0.000207503
-5.92816e-06
0.000208357
-5.58411e-06