/*--------------------------------*- C++ -*----------------------------------*\
| =========                 |                                                 |
| \\      /  F ield         | OpenFOAM: The Open Source CFD Toolbox           |
|  \\    /   O peration     | Version:  2.1.1                                 |
|   \\  /    A nd           | Web:      www.OpenFOAM.org                      |
|    \\/     M anipulation  |                                                 |
\*---------------------------------------------------------------------------*/
FoamFile
{
    version     2.0;
    format      ascii;
    class       volVectorField;
    location    "0.07";
    object      U;
}
// * * * * * * * * * * * * * * * * * * * * * * * * * * * * * * * * * * * * * //

dimensions      [0 1 -1 0 0 0 0];

internalField   nonuniform List<vector> 
6820
(
(6.37579 0.503832 0)
(4.42322 0.287003 0)
(2.9708 0.0203862 0)
(2.2295 -0.0616659 0)
(1.96153 -0.0596651 0)
(1.83184 -0.0341917 0)
(1.75365 -0.0147677 0)
(1.69782 -0.00438542 0)
(1.65027 0.00033839 0)
(1.6079 0.00188918 0)
(1.57005 0.00193633 0)
(1.53614 0.00141714 0)
(1.50557 0.00076733 0)
(1.47767 0.000178697 0)
(1.4518 -0.000273594 0)
(1.42735 -0.000571036 0)
(1.40377 -0.000719826 0)
(1.38057 -0.00073394 0)
(1.35727 -0.000627359 0)
(1.33344 -0.000411308 0)
(1.30865 -9.3753e-05 0)
(1.28247 0.000320241 0)
(1.25446 0.00082767 0)
(1.2242 0.00142685 0)
(1.19122 0.00211379 0)
(1.15511 0.00288512 0)
(1.11538 0.00371633 0)
(1.07179 0.00460892 0)
(1.02358 0.00541636 0)
(0.972031 0.00623533 0)
(0.913611 0.00605182 0)
(0.860582 0.00533448 0)
(0.791121 -0.00881937 0)
(8.72019 0.959933 0)
(8.76377 1.01265 0)
(7.96548 0.680055 0)
(7.04855 0.395179 0)
(6.34341 0.203979 0)
(5.83232 0.105191 0)
(5.46508 0.0600595 0)
(5.1978 0.0399459 0)
(4.99542 0.03118 0)
(4.83566 0.0271332 0)
(4.70498 0.0249679 0)
(4.59491 0.0236461 0)
(4.49992 0.0227885 0)
(4.41624 0.0222469 0)
(4.34118 0.0219619 0)
(4.2727 0.0219179 0)
(4.2092 0.0221224 0)
(4.14935 0.022595 0)
(4.09202 0.0233632 0)
(4.03619 0.0244604 0)
(3.98095 0.0259247 0)
(3.9254 0.0277986 0)
(3.8687 0.0301271 0)
(3.80998 0.0329574 0)
(3.74839 0.0363334 0)
(3.68304 0.0403004 0)
(3.61303 0.0448625 0)
(3.53751 0.0500647 0)
(3.45545 0.0556522 0)
(3.36651 0.0617581 0)
(3.26887 0.0666145 0)
(3.16604 0.0695466 0)
(3.05041 0.0667682 0)
(8.58612 0.583884 0)
(9.33101 0.763572 0)
(9.61291 0.662241 0)
(9.50035 0.529389 0)
(9.23032 0.400483 0)
(8.91286 0.303208 0)
(8.60098 0.234974 0)
(8.31795 0.186229 0)
(8.06805 0.151038 0)
(7.84899 0.125248 0)
(7.65699 0.10597 0)
(7.48809 0.0913706 0)
(7.33864 0.0802694 0)
(7.20543 0.0718721 0)
(7.08573 0.0656144 0)
(6.97716 0.0610927 0)
(6.87768 0.0580246 0)
(6.7855 0.0562196 0)
(6.69906 0.0555568 0)
(6.61694 0.0559691 0)
(6.53785 0.0574312 0)
(6.4606 0.0599514 0)
(6.38404 0.0635651 0)
(6.30709 0.0683291 0)
(6.22865 0.0743147 0)
(6.14764 0.0816045 0)
(6.06296 0.0902606 0)
(5.97347 0.10036 0)
(5.878 0.111766 0)
(5.77529 0.124499 0)
(5.66386 0.137325 0)
(5.54114 0.149278 0)
(5.40438 0.159269 0)
(8.44088 0.380112 0)
(8.94565 0.585335 0)
(9.35772 0.556919 0)
(9.58474 0.490571 0)
(9.69756 0.411815 0)
(9.73135 0.343869 0)
(9.71255 0.292593 0)
(9.6634 0.25369 0)
(9.59674 0.223563 0)
(9.51984 0.19967 0)
(9.43737 0.180211 0)
(9.35238 0.164097 0)
(9.26686 0.150654 0)
(9.18222 0.139456 0)
(9.09927 0.13024 0)
(9.01838 0.122828 0)
(8.93967 0.117095 0)
(8.86304 0.112957 0)
(8.78824 0.110366 0)
(8.7149 0.109309 0)
(8.64258 0.109804 0)
(8.57075 0.111899 0)
(8.4988 0.115668 0)
(8.4261 0.121213 0)
(8.35192 0.128653 0)
(8.27548 0.138128 0)
(8.19592 0.149773 0)
(8.1123 0.163735 0)
(8.02357 0.180054 0)
(7.92831 0.198825 0)
(7.82516 0.219721 0)
(7.71016 0.242313 0)
(7.58261 0.268954 0)
(8.40211 0.280539 0)
(8.71862 0.4821 0)
(8.99798 0.464381 0)
(9.17287 0.408056 0)
(9.29676 0.34732 0)
(9.38949 0.296297 0)
(9.45767 0.258815 0)
(9.50934 0.2309 0)
(9.54921 0.20927 0)
(9.57954 0.192063 0)
(9.60199 0.17806 0)
(9.61787 0.166518 0)
(9.62811 0.157006 0)
(9.63325 0.149244 0)
(9.63393 0.143043 0)
(9.63072 0.138292 0)
(9.62408 0.134933 0)
(9.61439 0.132956 0)
(9.60192 0.132385 0)
(9.58687 0.133279 0)
(9.56935 0.135728 0)
(9.54939 0.139851 0)
(9.52696 0.145795 0)
(9.50194 0.153736 0)
(9.47414 0.163875 0)
(9.4433 0.176438 0)
(9.40905 0.191668 0)
(9.3709 0.209828 0)
(9.32823 0.231175 0)
(9.28004 0.255993 0)
(9.22539 0.284677 0)
(9.16114 0.317567 0)
(9.0873 0.357729 0)
(8.37745 0.202709 0)
(8.60103 0.385155 0)
(8.81484 0.393354 0)
(8.945 0.360171 0)
(9.02985 0.317088 0)
(9.09149 0.274963 0)
(9.13718 0.24061 0)
(9.1742 0.213738 0)
(9.20675 0.192592 0)
(9.23622 0.175875 0)
(9.26319 0.162534 0)
(9.288 0.151798 0)
(9.31089 0.143195 0)
(9.3321 0.136417 0)
(9.35171 0.131244 0)
(9.3698 0.127542 0)
(9.38644 0.125247 0)
(9.40171 0.124345 0)
(9.41567 0.124865 0)
(9.42842 0.12687 0)
(9.44003 0.130461 0)
(9.45058 0.135768 0)
(9.46017 0.142956 0)
(9.46886 0.152222 0)
(9.47674 0.163798 0)
(9.48384 0.177951 0)
(9.49019 0.194984 0)
(9.49576 0.215246 0)
(9.50045 0.239151 0)
(9.50391 0.267182 0)
(9.50577 0.300162 0)
(9.50483 0.33895 0)
(9.50121 0.386339 0)
(8.36125 0.149393 0)
(8.52241 0.313115 0)
(8.69655 0.339967 0)
(8.81045 0.32173 0)
(8.88397 0.28989 0)
(8.93573 0.255201 0)
(8.97193 0.225183 0)
(8.99875 0.201069 0)
(9.02064 0.181735 0)
(9.03953 0.166181 0)
(9.05635 0.153614 0)
(9.07173 0.143421 0)
(9.08599 0.135192 0)
(9.09932 0.128661 0)
(9.11185 0.123661 0)
(9.12367 0.120092 0)
(9.13485 0.117901 0)
(9.14545 0.117076 0)
(9.15553 0.117638 0)
(9.16516 0.119641 0)
(9.17443 0.12317 0)
(9.18343 0.128342 0)
(9.19228 0.135302 0)
(9.20112 0.144228 0)
(9.21015 0.155334 0)
(9.21955 0.168868 0)
(9.22956 0.185126 0)
(9.24045 0.204452 0)
(9.25249 0.227289 0)
(9.26601 0.254176 0)
(9.28139 0.28596 0)
(9.29905 0.323644 0)
(9.3197 0.369056 0)
(8.35113 0.112009 0)
(8.46711 0.25346 0)
(8.60731 0.289637 0)
(8.7082 0.282846 0)
(8.77696 0.261998 0)
(8.8273 0.236151 0)
(8.86356 0.21177 0)
(8.89028 0.190997 0)
(8.91142 0.173606 0)
(8.92898 0.159165 0)
(8.94402 0.147265 0)
(8.95725 0.137519 0)
(8.96911 0.129629 0)
(8.97986 0.123391 0)
(8.98968 0.118665 0)
(8.9987 0.115356 0)
(9.00701 0.113411 0)
(9.0147 0.112816 0)
(9.02184 0.113588 0)
(9.02851 0.115775 0)
(9.03477 0.119452 0)
(9.04072 0.124721 0)
(9.04647 0.131711 0)
(9.05213 0.140576 0)
(9.05787 0.1515 0)
(9.06385 0.164696 0)
(9.07029 0.180415 0)
(9.07746 0.198954 0)
(9.08566 0.220682 0)
(9.09531 0.24605 0)
(9.10689 0.275693 0)
(9.12127 0.310431 0)
(9.13937 0.351165 0)
(8.34484 0.0853827 0)
(8.42909 0.205723 0)
(8.54133 0.247083 0)
(8.62925 0.249283 0)
(8.6922 0.236715 0)
(8.74003 0.217434 0)
(8.77598 0.197328 0)
(8.80326 0.17927 0)
(8.82514 0.163734 0)
(8.84343 0.150616 0)
(8.85913 0.139705 0)
(8.87291 0.130736 0)
(8.8852 0.123476 0)
(8.89631 0.117756 0)
(8.90642 0.113462 0)
(8.91569 0.110517 0)
(8.92422 0.108883 0)
(8.93212 0.108553 0)
(8.93947 0.109551 0)
(8.94635 0.11192 0)
(8.95285 0.115733 0)
(8.95907 0.121081 0)
(8.96511 0.12808 0)
(8.9711 0.13687 0)
(8.97718 0.147611 0)
(8.98355 0.160491 0)
(8.99039 0.175731 0)
(8.99796 0.193583 0)
(9.00657 0.214354 0)
(9.01663 0.238409 0)
(9.02862 0.266201 0)
(9.0434 0.298302 0)
(9.06177 0.335077 0)
(8.34091 0.0661855 0)
(8.4028 0.167534 0)
(8.49245 0.21022 0)
(8.56836 0.218385 0)
(8.62546 0.211939 0)
(8.67036 0.198223 0)
(8.70538 0.182329 0)
(8.73268 0.167225 0)
(8.75486 0.153757 0)
(8.77354 0.142074 0)
(8.78966 0.132164 0)
(8.80385 0.123914 0)
(8.81657 0.117195 0)
(8.82811 0.111899 0)
(8.83868 0.107952 0)
(8.84845 0.105302 0)
(8.85753 0.103922 0)
(8.86603 0.103811 0)
(8.87404 0.10499 0)
(8.88166 0.107498 0)
(8.889 0.1114 0)
(8.89616 0.116775 0)
(8.90327 0.123724 0)
(8.91047 0.132365 0)
(8.91792 0.142836 0)
(8.92583 0.155294 0)
(8.93443 0.169919 0)
(8.944 0.186913 0)
(8.95488 0.206509 0)
(8.96752 0.228971 0)
(8.98243 0.254585 0)
(9.00047 0.283688 0)
(9.02233 0.316332 0)
(8.33843 0.0520754 0)
(8.38446 0.136858 0)
(8.45613 0.178472 0)
(8.52132 0.190686 0)
(8.57287 0.189014 0)
(8.61473 0.179887 0)
(8.64847 0.167602 0)
(8.67548 0.15504 0)
(8.69775 0.143358 0)
(8.7167 0.132951 0)
(8.73317 0.123974 0)
(8.74775 0.116436 0)
(8.76088 0.110281 0)
(8.77285 0.105445 0)
(8.78387 0.101877 0)
(8.79411 0.0995408 0)
(8.80369 0.0984171 0)
(8.81275 0.0985068 0)
(8.82138 0.0998285 0)
(8.82969 0.102419 0)
(8.8378 0.10633 0)
(8.84584 0.111631 0)
(8.85393 0.118404 0)
(8.86224 0.126747 0)
(8.87095 0.136769 0)
(8.88029 0.148592 0)
(8.89049 0.162353 0)
(8.90188 0.178196 0)
(8.91481 0.196277 0)
(8.92976 0.216755 0)
(8.94725 0.239765 0)
(8.9681 0.265448 0)
(8.99291 0.293645 0)
(8.33684 0.0414977 0)
(8.37156 0.112161 0)
(8.42899 0.151202 0)
(8.48474 0.165761 0)
(8.53103 0.167471 0)
(8.56983 0.161879 0)
(8.60211 0.15263 0)
(8.62867 0.142396 0)
(8.65097 0.13247 0)
(8.67017 0.123389 0)
(8.687 0.11541 0)
(8.702 0.108631 0)
(8.71558 0.103061 0)
(8.72801 0.0986815 0)
(8.73952 0.095472 0)
(8.75028 0.0934156 0)
(8.76042 0.0925053 0)
(8.77008 0.0927461 0)
(8.77936 0.094156 0)
(8.78839 0.0967656 0)
(8.7973 0.100618 0)
(8.8062 0.105766 0)
(8.81526 0.112274 0)
(8.82465 0.120215 0)
(8.83455 0.12967 0)
(8.8452 0.140723 0)
(8.85686 0.153462 0)
(8.86984 0.167973 0)
(8.88451 0.184334 0)
(8.90132 0.202603 0)
(8.92078 0.222791 0)
(8.94363 0.244875 0)
(8.97033 0.268562 0)
(8.33581 0.0334014 0)
(8.36239 0.0921478 0)
(8.40862 0.127759 0)
(8.45618 0.143367 0)
(8.4976 0.147422 0)
(8.53343 0.144574 0)
(8.56413 0.137877 0)
(8.59007 0.129695 0)
(8.61225 0.121349 0)
(8.63161 0.113471 0)
(8.64876 0.106405 0)
(8.66417 0.100324 0)
(8.6782 0.0952975 0)
(8.69113 0.0913465 0)
(8.70318 0.0884746 0)
(8.7145 0.0866797 0)
(8.72525 0.0859614 0)
(8.73555 0.0863259 0)
(8.74552 0.0877874 0)
(8.7553 0.0903687 0)
(8.76502 0.0941008 0)
(8.7748 0.099022 0)
(8.78482 0.105176 0)
(8.79525 0.112612 0)
(8.80629 0.121379 0)
(8.81817 0.131525 0)
(8.83114 0.143091 0)
(8.84553 0.156108 0)
(8.86167 0.170582 0)
(8.88 0.18649 0)
(8.90095 0.203742 0)
(8.92517 0.222196 0)
(8.95301 0.241487 0)
(8.33512 0.0270729 0)
(8.35579 0.0758036 0)
(8.39324 0.107587 0)
(8.43383 0.123266 0)
(8.47078 0.128784 0)
(8.50377 0.127934 0)
(8.53282 0.123255 0)
(8.55801 0.1168 0)
(8.57998 0.109849 0)
(8.59942 0.103084 0)
(8.61684 0.0968964 0)
(8.63264 0.0915076 0)
(8.64713 0.087027 0)
(8.66057 0.0835049 0)
(8.67316 0.0809643 0)
(8.68506 0.0794154 0)
(8.69642 0.0788641 0)
(8.70737 0.0793178 0)
(8.71804 0.0807872 0)
(8.72856 0.0832877 0)
(8.73907 0.0868387 0)
(8.74971 0.091463 0)
(8.76065 0.097185 0)
(8.77206 0.104028 0)
(8.78414 0.112013 0)
(8.79712 0.121152 0)
(8.81125 0.131443 0)
(8.82681 0.142867 0)
(8.84415 0.155371 0)
(8.86362 0.168864 0)
(8.88561 0.183186 0)
(8.91065 0.198113 0)
(8.93897 0.213252 0)
(8.33464 0.0220235 0)
(8.35098 0.062324 0)
(8.38158 0.0901693 0)
(8.41629 0.105199 0)
(8.44924 0.111473 0)
(8.47955 0.112003 0)
(8.50697 0.108887 0)
(8.53133 0.10387 0)
(8.55299 0.0981331 0)
(8.57245 0.0923638 0)
(8.59008 0.0869763 0)
(8.60623 0.0822223 0)
(8.62115 0.078242 0)
(8.63509 0.0751098 0)
(8.64821 0.0728651 0)
(8.66068 0.0715278 0)
(8.67265 0.0711082 0)
(8.68425 0.0716128 0)
(8.69561 0.0730476 0)
(8.70685 0.0754188 0)
(8.71812 0.0787338 0)
(8.72957 0.0829992 0)
(8.74136 0.08822 0)
(8.75366 0.0943962 0)
(8.76666 0.10152 0)
(8.78058 0.109572 0)
(8.79567 0.118514 0)
(8.81217 0.128282 0)
(8.83039 0.13878 0)
(8.85064 0.149865 0)
(8.87322 0.161331 0)
(8.89857 0.172909 0)
(8.92682 0.184205 0)
(8.3343 0.0179133 0)
(8.34744 0.051079 0)
(8.37269 0.0750529 0)
(8.4025 0.0889231 0)
(8.43191 0.0953837 0)
(8.45978 0.0967685 0)
(8.48561 0.0947875 0)
(8.50911 0.0909022 0)
(8.5304 0.0861727 0)
(8.54981 0.0812612 0)
(8.56761 0.076586 0)
(8.58407 0.0724125 0)
(8.59941 0.0688985 0)
(8.61381 0.0661332 0)
(8.62746 0.0641659 0)
(8.6405 0.063022 0)
(8.65306 0.0627133 0)
(8.66528 0.0632439 0)
(8.67729 0.0646138 0)
(8.68922 0.0668206 0)
(8.7012 0.0698593 0)
(8.71339 0.0737215 0)
(8.72594 0.0783938 0)
(8.73901 0.0838551 0)
(8.7528 0.0900729 0)
(8.7675 0.0969996 0)
(8.78333 0.104567 0)
(8.80052 0.112678 0)
(8.81931 0.121203 0)
(8.83998 0.129966 0)
(8.86276 0.138735 0)
(8.88798 0.147222 0)
(8.91569 0.155052 0)
(8.33406 0.0145021 0)
(8.3448 0.0415757 0)
(8.36589 0.0618382 0)
(8.39165 0.0741994 0)
(8.41799 0.0803951 0)
(8.44365 0.0821927 0)
(8.468 0.0809711 0)
(8.49064 0.0779382 0)
(8.51154 0.0740203 0)
(8.53086 0.0698322 0)
(8.54879 0.0657769 0)
(8.56553 0.0621188 0)
(8.58124 0.059022 0)
(8.5961 0.0565835 0)
(8.61025 0.0548578 0)
(8.62382 0.0538731 0)
(8.63696 0.0536407 0)
(8.64977 0.054161 0)
(8.6624 0.0554277 0)
(8.67496 0.0574292 0)
(8.6876 0.0601487 0)
(8.70044 0.0635636 0)
(8.71366 0.0676438 0)
(8.72739 0.0723493 0)
(8.74182 0.0776267 0)
(8.75712 0.0834058 0)
(8.77348 0.0895944 0)
(8.79111 0.0960732 0)
(8.8102 0.102689 0)
(8.83097 0.109249 0)
(8.85359 0.115514 0)
(8.87831 0.121191 0)
(8.90511 0.125945 0)
(8.33388 0.0116164 0)
(8.34282 0.0334276 0)
(8.36067 0.0501786 0)
(8.38313 0.0608002 0)
(8.40684 0.0663764 0)
(8.43054 0.0682189 0)
(8.45355 0.0674248 0)
(8.47537 0.0649805 0)
(8.49586 0.0616774 0)
(8.51508 0.0580692 0)
(8.53311 0.0545313 0)
(8.5501 0.0513164 0)
(8.56617 0.0485864 0)
(8.58145 0.0464389 0)
(8.59608 0.0449289 0)
(8.61016 0.0440835 0)
(8.62383 0.0439107 0)
(8.63721 0.0444059 0)
(8.6504 0.0455555 0)
(8.66354 0.0473383 0)
(8.67675 0.0497263 0)
(8.69017 0.0526839 0)
(8.70394 0.0561663 0)
(8.7182 0.0601175 0)
(8.73311 0.0644676 0)
(8.74883 0.069129 0)
(8.76552 0.0739928 0)
(8.78335 0.0789248 0)
(8.80248 0.0837606 0)
(8.82307 0.0883024 0)
(8.84524 0.0923137 0)
(8.86915 0.0955158 0)
(8.89477 0.0976144 0)
(8.33375 0.0091281 0)
(8.34133 0.0263302 0)
(8.35667 0.0397744 0)
(8.37646 0.0485089 0)
(8.39796 0.0531886 0)
(8.41997 0.0547701 0)
(8.44178 0.0541146 0)
(8.46286 0.0520182 0)
(8.48297 0.0491439 0)
(8.50208 0.045976 0)
(8.52021 0.0428526 0)
(8.53743 0.0400055 0)
(8.55384 0.0375855 0)
(8.56953 0.0356843 0)
(8.5846 0.0343525 0)
(8.59917 0.0336126 0)
(8.61335 0.0334677 0)
(8.62723 0.0339067 0)
(8.64094 0.0349082 0)
(8.6546 0.0364422 0)
(8.66831 0.0384704 0)
(8.68221 0.040946 0)
(8.69643 0.0438122 0)
(8.71109 0.0470004 0)
(8.72634 0.050428 0)
(8.74232 0.0539959 0)
(8.75915 0.0575852 0)
(8.77697 0.0610547 0)
(8.79591 0.0642375 0)
(8.81607 0.0669399 0)
(8.83755 0.0689389 0)
(8.86044 0.0699781 0)
(8.88466 0.0698077 0)
(8.33364 0.00694005 0)
(8.3402 0.0200405 0)
(8.35361 0.0303665 0)
(8.37128 0.0371216 0)
(8.39095 0.0406887 0)
(8.41154 0.0417554 0)
(8.43233 0.0409892 0)
(8.45276 0.0390247 0)
(8.47254 0.0364065 0)
(8.49156 0.033547 0)
(8.50979 0.0307406 0)
(8.52723 0.0281916 0)
(8.54396 0.026034 0)
(8.56003 0.0243483 0)
(8.57553 0.023177 0)
(8.59055 0.0225351 0)
(8.60519 0.0224183 0)
(8.61954 0.0228079 0)
(8.6337 0.023674 0)
(8.6478 0.0249777 0)
(8.66193 0.0266712 0)
(8.67621 0.0286977 0)
(8.69076 0.0309905 0)
(8.7057 0.0334715 0)
(8.72114 0.0360496 0)
(8.7372 0.0386186 0)
(8.75399 0.0410552 0)
(8.77162 0.0432174 0)
(8.79016 0.0449428 0)
(8.80971 0.0460484 0)
(8.8303 0.046331 0)
(8.85199 0.0455614 0)
(8.87469 0.0435339 0)
(8.33357 0.00497661 0)
(8.33935 0.0143618 0)
(8.35129 0.0217292 0)
(8.3673 0.0264455 0)
(8.38551 0.0287287 0)
(8.40494 0.0290684 0)
(8.42489 0.027975 0)
(8.44479 0.0259468 0)
(8.46432 0.0234215 0)
(8.48329 0.0207386 0)
(8.50164 0.0181454 0)
(8.51932 0.0158134 0)
(8.53637 0.0138539 0)
(8.55281 0.0123315 0)
(8.56872 0.0112764 0)
(8.58417 0.0106936 0)
(8.59923 0.0105698 0)
(8.61401 0.0108778 0)
(8.62858 0.0115797 0)
(8.64305 0.0126281 0)
(8.65753 0.0139673 0)
(8.67211 0.0155328 0)
(8.68689 0.0172508 0)
(8.70198 0.019037 0)
(8.71749 0.0207956 0)
(8.7335 0.0224182 0)
(8.75009 0.023782 0)
(8.76736 0.0247499 0)
(8.78536 0.025169 0)
(8.80414 0.0248721 0)
(8.82371 0.0236791 0)
(8.84409 0.0213915 0)
(8.86518 0.0178439 0)
(8.33351 0.00317694 0)
(8.33873 0.00913127 0)
(8.34957 0.0136635 0)
(8.36432 0.0162977 0)
(8.3814 0.0171586 0)
(8.39993 0.0165944 0)
(8.41923 0.0149911 0)
(8.43874 0.0127336 0)
(8.4581 0.0101644 0)
(8.47709 0.00755455 0)
(8.49558 0.00510106 0)
(8.51351 0.00293955 0)
(8.53087 0.00115511 0)
(8.54768 -0.00020739 0)
(8.56397 -0.0011334 0)
(8.57981 -0.0016307 0)
(8.59526 -0.00172378 0)
(8.6104 -0.0014497 0)
(8.62532 -0.000855512 0)
(8.64009 3.28135e-06 0)
(8.65482 0.0010634 0)
(8.6696 0.0022538 0)
(8.6845 0.00349531 0)
(8.69963 0.00469998 0)
(8.71507 0.0057703 0)
(8.73089 0.00659859 0)
(8.74716 0.00706642 0)
(8.76394 0.00704463 0)
(8.78125 0.00639356 0)
(8.79914 0.00496406 0)
(8.81759 0.00260065 0)
(8.83659 -0.000865284 0)
(8.85605 -0.00556168 0)
(8.33347 0.00149009 0)
(8.33828 0.00420957 0)
(8.34833 0.00598986 0)
(8.36218 0.00649996 0)
(8.37844 0.00581905 0)
(8.39633 0.00419531 0)
(8.41519 0.001916 0)
(8.43447 -0.000730294 0)
(8.45378 -0.00348591 0)
(8.47287 -0.00614682 0)
(8.49157 -0.00856676 0)
(8.5098 -0.0106487 0)
(8.52751 -0.012337 0)
(8.54469 -0.0136093 0)
(8.56137 -0.0144686 0)
(8.57759 -0.014937 0)
(8.5934 -0.0150506 0)
(8.60888 -0.0148564 0)
(8.62409 -0.0144097 0)
(8.63912 -0.0137731 0)
(8.65404 -0.0130158 0)
(8.66893 -0.0122131 0)
(8.68388 -0.0114472 0)
(8.69895 -0.0108068 0)
(8.71422 -0.0103881 0)
(8.72975 -0.0102946 0)
(8.74558 -0.0106376 0)
(8.76176 -0.0115349 0)
(8.7783 -0.013111 0)
(8.79522 -0.015495 0)
(8.81248 -0.0188176 0)
(8.83007 -0.0232178 0)
(8.84789 -0.0287897 0)
(8.33345 -0.000128034 0)
(8.33799 -0.000526261 0)
(8.34752 -0.00145775 0)
(8.36077 -0.00311927 0)
(8.37651 -0.00544575 0)
(8.39401 -0.00825535 0)
(8.41264 -0.0113366 0)
(8.43185 -0.0144801 0)
(8.45123 -0.0175024 0)
(8.4705 -0.0202631 0)
(8.48947 -0.0226658 0)
(8.50802 -0.024655 0)
(8.52608 -0.0262085 0)
(8.54363 -0.0273306 0)
(8.56068 -0.0280457 0)
(8.57725 -0.0283933 0)
(8.59339 -0.028424 0)
(8.60914 -0.0281963 0)
(8.62459 -0.0277751 0)
(8.63979 -0.0272306 0)
(8.65482 -0.0266372 0)
(8.66974 -0.0260742 0)
(8.68463 -0.0256252 0)
(8.69955 -0.0253784 0)
(8.71456 -0.025427 0)
(8.72969 -0.0258685 0)
(8.74499 -0.026805 0)
(8.76049 -0.0283424 0)
(8.77619 -0.0305891 0)
(8.79208 -0.0336548 0)
(8.80814 -0.037647 0)
(8.82433 -0.0426783 0)
(8.84058 -0.0488151 0)
(8.33343 -0.0017182 0)
(8.33783 -0.00519146 0)
(8.34708 -0.00884285 0)
(8.36002 -0.0127453 0)
(8.37553 -0.0168306 0)
(8.39292 -0.0209638 0)
(8.41156 -0.0249961 0)
(8.4309 -0.0287884 0)
(8.45052 -0.0322261 0)
(8.47012 -0.0352284 0)
(8.48947 -0.0377494 0)
(8.50843 -0.0397745 0)
(8.52692 -0.0413141 0)
(8.54489 -0.0423989 0)
(8.56233 -0.0430747 0)
(8.57926 -0.0433979 0)
(8.59572 -0.0434327 0)
(8.61174 -0.0432487 0)
(8.62739 -0.0429194 0)
(8.64272 -0.0425211 0)
(8.65781 -0.0421328 0)
(8.6727 -0.0418356 0)
(8.68747 -0.0417131 0)
(8.70216 -0.0418512 0)
(8.71682 -0.0423381 0)
(8.73149 -0.0432639 0)
(8.7462 -0.0447204 0)
(8.76095 -0.0468001 0)
(8.77575 -0.049595 0)
(8.79059 -0.0531957 0)
(8.80544 -0.0576875 0)
(8.82024 -0.063158 0)
(8.83494 -0.0696497 0)
(8.33343 -0.00332018 0)
(8.33779 -0.00989775 0)
(8.34698 -0.0163226 0)
(8.3599 -0.0225455 0)
(8.37545 -0.0284781 0)
(8.39297 -0.0340117 0)
(8.41184 -0.0390445 0)
(8.4315 -0.0434973 0)
(8.4515 -0.0473197 0)
(8.47152 -0.0504923 0)
(8.49132 -0.0530235 0)
(8.51074 -0.0549458 0)
(8.52968 -0.0563094 0)
(8.54807 -0.0571779 0)
(8.5659 -0.0576237 0)
(8.58316 -0.0577246 0)
(8.5999 -0.0575614 0)
(8.61614 -0.0572166 0)
(8.63195 -0.056773 0)
(8.64736 -0.0563135 0)
(8.66244 -0.0559207 0)
(8.67724 -0.0556772 0)
(8.69181 -0.0556656 0)
(8.70621 -0.0559683 0)
(8.72047 -0.0566675 0)
(8.73461 -0.0578453 0)
(8.74867 -0.0595826 0)
(8.76264 -0.0619589 0)
(8.77653 -0.0650509 0)
(8.79033 -0.0689316 0)
(8.80399 -0.0736673 0)
(8.81748 -0.0793251 0)
(8.83074 -0.0859279 0)
(8.33344 -0.00497538 0)
(8.33787 -0.014767 0)
(8.34724 -0.0240878 0)
(8.36043 -0.032774 0)
(8.37635 -0.0407194 0)
(8.39433 -0.0478416 0)
(8.41375 -0.054084 0)
(8.43401 -0.059423 0)
(8.45464 -0.0638664 0)
(8.47531 -0.0674485 0)
(8.49575 -0.0702257 0)
(8.51577 -0.0722717 0)
(8.53526 -0.0736724 0)
(8.55416 -0.0745209 0)
(8.57242 -0.0749144 0)
(8.59006 -0.0749511 0)
(8.60709 -0.0747283 0)
(8.62354 -0.0743412 0)
(8.63947 -0.0738822 0)
(8.65492 -0.0734409 0)
(8.66994 -0.0731039 0)
(8.6846 -0.0729549 0)
(8.69892 -0.0730752 0)
(8.71296 -0.0735434 0)
(8.72676 -0.0744357 0)
(8.74033 -0.0758255 0)
(8.75369 -0.0777831 0)
(8.76685 -0.0803753 0)
(8.77981 -0.083664 0)
(8.79255 -0.087706 0)
(8.80504 -0.0925501 0)
(8.81724 -0.0982438 0)
(8.82909 -0.104794 0)
(8.33345 -0.00672864 0)
(8.33808 -0.01992 0)
(8.34784 -0.0322906 0)
(8.36157 -0.0435417 0)
(8.37813 -0.0535306 0)
(8.39683 -0.0621877 0)
(8.417 -0.0694989 0)
(8.43804 -0.0755049 0)
(8.45945 -0.0802873 0)
(8.48087 -0.0839525 0)
(8.50203 -0.0866223 0)
(8.52272 -0.0884266 0)
(8.54282 -0.0894982 0)
(8.56225 -0.0899681 0)
(8.58098 -0.0899629 0)
(8.59899 -0.0896038 0)
(8.61631 -0.0890051 0)
(8.63296 -0.0882743 0)
(8.649 -0.0875121 0)
(8.66446 -0.0868128 0)
(8.67941 -0.086265 0)
(8.69388 -0.0859519 0)
(8.70792 -0.0859518 0)
(8.72158 -0.0863384 0)
(8.73489 -0.0871807 0)
(8.74786 -0.0885437 0)
(8.76053 -0.0904872 0)
(8.77289 -0.0930659 0)
(8.78494 -0.0963289 0)
(8.79667 -0.100319 0)
(8.80806 -0.105071 0)
(8.81907 -0.110617 0)
(8.82969 -0.116951 0)
(8.33349 -0.00863701 0)
(8.33845 -0.0255422 0)
(8.34893 -0.041276 0)
(8.36362 -0.0554251 0)
(8.3813 -0.0678377 0)
(8.40121 -0.0784667 0)
(8.42263 -0.0873293 0)
(8.44488 -0.0945087 0)
(8.46745 -0.100135 0)
(8.48994 -0.104366 0)
(8.51206 -0.107371 0)
(8.53361 -0.109329 0)
(8.55444 -0.110415 0)
(8.57449 -0.110798 0)
(8.59372 -0.110638 0)
(8.61212 -0.110084 0)
(8.62972 -0.109271 0)
(8.64654 -0.108325 0)
(8.66264 -0.107358 0)
(8.67807 -0.106473 0)
(8.69287 -0.105763 0)
(8.7071 -0.105313 0)
(8.7208 -0.1052 0)
(8.73401 -0.105493 0)
(8.74678 -0.106254 0)
(8.75911 -0.107542 0)
(8.77104 -0.109404 0)
(8.78257 -0.111887 0)
(8.7937 -0.115025 0)
(8.80442 -0.11885 0)
(8.81471 -0.123382 0)
(8.82456 -0.128639 0)
(8.83393 -0.134607 0)
(8.33353 -0.0107604 0)
(8.33895 -0.0317471 0)
(8.35036 -0.0510389 0)
(8.36627 -0.0680389 0)
(8.38529 -0.0825747 0)
(8.4066 -0.094653 0)
(8.42943 -0.104384 0)
(8.45307 -0.111967 0)
(8.47697 -0.117642 0)
(8.5007 -0.121663 0)
(8.52395 -0.124278 0)
(8.54651 -0.125726 0)
(8.56823 -0.126231 0)
(8.58903 -0.125998 0)
(8.60887 -0.125213 0)
(8.62776 -0.124044 0)
(8.6457 -0.122642 0)
(8.66275 -0.121139 0)
(8.67896 -0.119655 0)
(8.69437 -0.118296 0)
(8.70905 -0.117155 0)
(8.72305 -0.116314 0)
(8.73642 -0.115848 0)
(8.7492 -0.11582 0)
(8.76143 -0.116286 0)
(8.77315 -0.117296 0)
(8.78437 -0.11889 0)
(8.79511 -0.121102 0)
(8.80537 -0.12396 0)
(8.81516 -0.127483 0)
(8.82447 -0.131682 0)
(8.83329 -0.136565 0)
(8.84161 -0.142109 0)
(8.33361 -0.0132131 0)
(8.33984 -0.0390097 0)
(8.35286 -0.0626876 0)
(8.37084 -0.0835295 0)
(8.39213 -0.101354 0)
(8.41572 -0.116145 0)
(8.44074 -0.127996 0)
(8.46638 -0.137134 0)
(8.49206 -0.143858 0)
(8.51734 -0.148493 0)
(8.54192 -0.151368 0)
(8.56559 -0.152798 0)
(8.58823 -0.153079 0)
(8.60977 -0.152478 0)
(8.63018 -0.15123 0)
(8.64947 -0.149545 0)
(8.66769 -0.147603 0)
(8.68488 -0.14556 0)
(8.7011 -0.143551 0)
(8.71642 -0.141689 0)
(8.73088 -0.140073 0)
(8.74457 -0.138786 0)
(8.75752 -0.137898 0)
(8.7698 -0.137467 0)
(8.78144 -0.137545 0)
(8.79248 -0.13817 0)
(8.80295 -0.139376 0)
(8.81287 -0.141186 0)
(8.82224 -0.143618 0)
(8.83108 -0.146681 0)
(8.83939 -0.150376 0)
(8.84716 -0.154702 0)
(8.85438 -0.159626 0)
(8.33368 -0.0160559 0)
(8.34068 -0.0470946 0)
(8.35532 -0.0748578 0)
(8.37536 -0.0984566 0)
(8.3989 -0.117925 0)
(8.42489 -0.133521 0)
(8.45236 -0.145587 0)
(8.48039 -0.154544 0)
(8.50831 -0.160833 0)
(8.53565 -0.164867 0)
(8.56205 -0.167035 0)
(8.5873 -0.167693 0)
(8.61127 -0.167163 0)
(8.63389 -0.165734 0)
(8.65517 -0.163659 0)
(8.67511 -0.161158 0)
(8.69379 -0.158422 0)
(8.71127 -0.155617 0)
(8.72761 -0.152882 0)
(8.74291 -0.150334 0)
(8.75724 -0.148073 0)
(8.77067 -0.146182 0)
(8.78327 -0.144729 0)
(8.7951 -0.143768 0)
(8.8062 -0.143345 0)
(8.81662 -0.143493 0)
(8.82641 -0.144238 0)
(8.83558 -0.145597 0)
(8.84416 -0.14758 0)
(8.85217 -0.150189 0)
(8.85963 -0.153417 0)
(8.86652 -0.157258 0)
(8.87289 -0.161671 0)
(8.33392 -0.0196747 0)
(8.34298 -0.0580981 0)
(8.36128 -0.0928245 0)
(8.38553 -0.122639 0)
(8.41313 -0.147329 0)
(8.44282 -0.166936 0)
(8.47353 -0.181773 0)
(8.50434 -0.192409 0)
(8.53462 -0.199479 0)
(8.56394 -0.2036 0)
(8.592 -0.205348 0)
(8.61862 -0.205241 0)
(8.6437 -0.203728 0)
(8.66721 -0.201196 0)
(8.68916 -0.197967 0)
(8.70959 -0.19431 0)
(8.72858 -0.19045 0)
(8.7462 -0.186567 0)
(8.76254 -0.182811 0)
(8.77771 -0.179303 0)
(8.79177 -0.176138 0)
(8.80483 -0.173395 0)
(8.81695 -0.171132 0)
(8.8282 -0.169396 0)
(8.83865 -0.168224 0)
(8.84834 -0.167638 0)
(8.85733 -0.167657 0)
(8.86564 -0.168289 0)
(8.87331 -0.169535 0)
(8.88037 -0.17139 0)
(8.88682 -0.173842 0)
(8.89269 -0.176875 0)
(8.89799 -0.180444 0)
(8.33389 -0.0237995 0)
(8.34377 -0.0685218 0)
(8.36449 -0.106355 0)
(8.39216 -0.137041 0)
(8.42388 -0.161651 0)
(8.45817 -0.180852 0)
(8.49353 -0.195203 0)
(8.52871 -0.205356 0)
(8.56291 -0.211938 0)
(8.59563 -0.215523 0)
(8.62654 -0.216654 0)
(8.65546 -0.215834 0)
(8.68235 -0.213514 0)
(8.70721 -0.210094 0)
(8.73011 -0.205919 0)
(8.75116 -0.201283 0)
(8.77047 -0.196434 0)
(8.78817 -0.191575 0)
(8.80438 -0.186874 0)
(8.81923 -0.182462 0)
(8.83284 -0.178444 0)
(8.8453 -0.1749 0)
(8.85673 -0.171892 0)
(8.86719 -0.169462 0)
(8.87677 -0.167641 0)
(8.88552 -0.166449 0)
(8.89351 -0.165895 0)
(8.90079 -0.165982 0)
(8.90738 -0.166705 0)
(8.91333 -0.168055 0)
(8.91868 -0.170014 0)
(8.92346 -0.172562 0)
(8.92771 -0.175644 0)
(8.335 -0.0307699 0)
(8.35153 -0.0910369 0)
(8.38099 -0.143356 0)
(8.41621 -0.185609 0)
(8.45371 -0.218155 0)
(8.49256 -0.241803 0)
(8.53158 -0.257872 0)
(8.56968 -0.267838 0)
(8.60622 -0.272986 0)
(8.64081 -0.274395 0)
(8.67315 -0.272977 0)
(8.70313 -0.26948 0)
(8.73073 -0.264507 0)
(8.75601 -0.258544 0)
(8.77907 -0.251979 0)
(8.80006 -0.245122 0)
(8.81914 -0.238219 0)
(8.83646 -0.231462 0)
(8.85219 -0.225004 0)
(8.86648 -0.218958 0)
(8.87946 -0.213412 0)
(8.89127 -0.208431 0)
(8.90201 -0.204058 0)
(8.9118 -0.200323 0)
(8.92071 -0.197244 0)
(8.92881 -0.194828 0)
(8.93617 -0.193078 0)
(8.94285 -0.191989 0)
(8.9489 -0.191553 0)
(8.95434 -0.191758 0)
(8.95923 -0.192588 0)
(8.96362 -0.194024 0)
(8.96752 -0.196007 0)
(8.33404 -0.0358355 0)
(8.35008 -0.0974418 0)
(8.38441 -0.14524 0)
(8.42776 -0.183944 0)
(8.47462 -0.215537 0)
(8.52254 -0.239771 0)
(8.56938 -0.257106 0)
(8.61394 -0.268449 0)
(8.65585 -0.274659 0)
(8.69502 -0.276615 0)
(8.73146 -0.275208 0)
(8.76531 -0.271255 0)
(8.79674 -0.26547 0)
(8.8259 -0.258457 0)
(8.85298 -0.250715 0)
(8.87812 -0.242642 0)
(8.90148 -0.234551 0)
(8.92319 -0.226679 0)
(8.94337 -0.219207 0)
(8.96217 -0.212265 0)
(8.97968 -0.205943 0)
(8.99601 -0.200302 0)
(9.01126 -0.195379 0)
(9.02552 -0.19119 0)
(9.03887 -0.187742 0)
(9.05137 -0.185028 0)
(9.06309 -0.183038 0)
(9.07407 -0.181758 0)
(9.08437 -0.181175 0)
(9.09404 -0.181275 0)
(9.10314 -0.182054 0)
(9.11172 -0.183504 0)
(9.11988 -0.18558 0)
(8.33961 -0.0600632 0)
(8.37726 -0.168488 0)
(8.42691 -0.246074 0)
(8.47732 -0.298427 0)
(8.53044 -0.332638 0)
(8.58774 -0.353074 0)
(8.6476 -0.363821 0)
(8.70869 -0.36797 0)
(8.77006 -0.367485 0)
(8.83063 -0.363702 0)
(8.88941 -0.357582 0)
(8.94567 -0.349811 0)
(8.99891 -0.340907 0)
(9.04879 -0.331277 0)
(9.09517 -0.321252 0)
(9.13801 -0.311104 0)
(9.1774 -0.301062 0)
(9.21347 -0.291312 0)
(9.24642 -0.282007 0)
(9.27647 -0.273263 0)
(9.30384 -0.26517 0)
(9.32876 -0.25779 0)
(9.35144 -0.251161 0)
(9.37209 -0.245305 0)
(9.39088 -0.240227 0)
(9.40798 -0.235924 0)
(9.42351 -0.232383 0)
(9.43759 -0.229593 0)
(9.45033 -0.227547 0)
(9.4618 -0.22624 0)
(9.47209 -0.225719 0)
(9.48126 -0.225977 0)
(9.4895 -0.227187 0)
(8.33762 -0.0461995 0)
(8.3937 -0.119935 0)
(8.49423 -0.183178 0)
(8.60936 -0.244147 0)
(8.73157 -0.296371 0)
(8.85539 -0.336715 0)
(8.97396 -0.365936 0)
(9.08319 -0.384954 0)
(9.18091 -0.394948 0)
(9.26595 -0.397526 0)
(9.33806 -0.394327 0)
(9.39771 -0.386822 0)
(9.44576 -0.376283 0)
(9.4833 -0.363765 0)
(9.51153 -0.350113 0)
(9.53167 -0.335985 0)
(9.54484 -0.321884 0)
(9.55211 -0.308181 0)
(9.55438 -0.29514 0)
(9.55248 -0.282941 0)
(9.54709 -0.271697 0)
(9.5388 -0.261468 0)
(9.5281 -0.252274 0)
(9.51539 -0.244107 0)
(9.50099 -0.236933 0)
(9.48516 -0.230703 0)
(9.4681 -0.225361 0)
(9.44995 -0.220844 0)
(9.43081 -0.217104 0)
(9.41068 -0.214102 0)
(9.3897 -0.211923 0)
(9.36753 -0.210504 0)
(9.34491 -0.210897 0)
(8.40919 -0.220932 0)
(8.63492 -0.427349 0)
(8.83338 -0.521068 0)
(8.97773 -0.581144 0)
(9.07235 -0.613414 0)
(9.1163 -0.623508 0)
(9.11388 -0.619027 0)
(9.07448 -0.604057 0)
(9.00693 -0.581434 0)
(8.91862 -0.55372 0)
(8.81595 -0.522967 0)
(8.70423 -0.490751 0)
(8.58755 -0.458286 0)
(8.46904 -0.426477 0)
(8.35099 -0.395967 0)
(8.23504 -0.367184 0)
(8.12229 -0.340384 0)
(8.01344 -0.315698 0)
(7.90888 -0.29316 0)
(7.80877 -0.272735 0)
(7.71312 -0.254342 0)
(7.62182 -0.237871 0)
(7.53469 -0.22319 0)
(7.45149 -0.210158 0)
(7.37198 -0.198624 0)
(7.29587 -0.188436 0)
(7.22289 -0.179433 0)
(7.15276 -0.171459 0)
(7.08516 -0.164329 0)
(7.01967 -0.157864 0)
(6.95593 -0.151955 0)
(6.89281 -0.14568 0)
(6.83079 -0.142805 0)
(8.13718 -0.206947 0)
(7.84836 -0.38751 0)
(7.38713 -0.438631 0)
(6.86315 -0.439101 0)
(6.3653 -0.407704 0)
(5.89643 -0.358713 0)
(5.45908 -0.304386 0)
(5.06058 -0.2511 0)
(4.70193 -0.202057 0)
(4.38111 -0.15886 0)
(4.09571 -0.121946 0)
(3.84285 -0.0910856 0)
(3.61932 -0.0657374 0)
(3.42194 -0.0452158 0)
(3.24768 -0.0288014 0)
(3.09372 -0.0158153 0)
(2.95751 -0.00565188 0)
(2.83674 0.00221033 0)
(2.72935 0.00820933 0)
(2.63355 0.0127071 0)
(2.54773 0.016 0)
(2.47052 0.0183287 0)
(2.40071 0.0198898 0)
(2.33726 0.0208443 0)
(2.27926 0.0213303 0)
(2.22598 0.0214677 0)
(2.17674 0.0213889 0)
(2.13109 0.0212275 0)
(2.08847 0.0212277 0)
(2.04907 0.0217233 0)
(2.01187 0.0230594 0)
(1.97916 0.0281225 0)
(1.94867 0.0223275 0)
(0.762585 -0.0994977 0)
(0.59247 -0.101821 0)
(0.909513 0.194682 0)
(1.56426 0.757017 0)
(2.35028 1.39831 0)
(3.15308 1.98736 0)
(3.95289 2.41883 0)
(4.7365 2.6015 0)
(5.47122 2.48549 0)
(6.12134 2.08661 0)
(6.67657 1.47329 0)
(7.15244 0.717748 0)
(7.5863 -0.150361 0)
(7.95046 -1.09556 0)
(8.08683 -1.99278 0)
(8.02133 -2.78264 0)
(8.04641 -3.57035 0)
(8.22871 -4.37517 0)
(8.23692 -4.96144 0)
(7.80491 -5.07068 0)