/*--------------------------------*- C++ -*----------------------------------*\
| =========                 |                                                 |
| \\      /  F ield         | OpenFOAM: The Open Source CFD Toolbox           |
|  \\    /   O peration     | Version:  2.1.1                                 |
|   \\  /    A nd           | Web:      www.OpenFOAM.org                      |
|    \\/     M anipulation  |                                                 |
\*---------------------------------------------------------------------------*/
FoamFile
{
    version     2.0;
    format      ascii;
    class       volScalarField;
    location    "0.05";
    object      nuSgs;
}
// * * * * * * * * * * * * * * * * * * * * * * * * * * * * * * * * * * * * * //

dimensions      [0 2 -1 0 0 0 0];

internalField   nonuniform List<scalar> 
6820
(
0.000556015
0.000457409
0.000368132
0.0003061
0.000268883
0.000243237
0.000224352
0.000209899
0.000198217
0.000188398
0.000179928
0.000172475
0.000165816
0.000159796
0.000154301
0.000149244
0.00014456
0.000140197
0.000136113
0.000132274
0.000128652
0.000125221
0.000121959
0.000118848
0.000115868
0.000113
0.000110224
0.000107516
0.000104848
0.000102185
9.95086e-05
9.64446e-05
9.42303e-05
0.000103497
0.000170664
0.000223655
0.000240028
0.000235275
0.000224914
0.000213219
0.000201933
0.000191697
0.00018253
0.00017431
0.000166906
0.000160193
0.000154068
0.000148447
0.00014326
0.00013845
0.00013397
0.000129778
0.000125842
0.000122132
0.000118626
0.000115302
0.000112145
0.000109139
0.000106272
0.000103537
0.000100924
9.84486e-05
9.60765e-05
9.40135e-05
9.18953e-05
9.2118e-05
3.67748e-05
2.84758e-05
4.56189e-05
8.23079e-05
0.00010796
0.000123572
0.00013202
0.000135895
0.000137021
0.00013647
0.000134883
0.000132656
0.000130038
0.000127193
0.000124227
0.000121213
0.000118196
0.00011521
0.000112273
0.000109401
0.000106602
0.00010388
0.000101239
9.86803e-05
9.62058e-05
9.38172e-05
9.1518e-05
8.93145e-05
8.72216e-05
8.526e-05
8.35005e-05
8.19704e-05
8.11703e-05
2.07366e-05
2.86832e-05
2.65581e-05
1.50835e-05
3.65175e-06
1.38631e-05
2.57062e-05
3.55479e-05
4.34904e-05
4.98071e-05
5.47727e-05
5.86306e-05
6.15823e-05
6.37851e-05
6.53724e-05
6.64544e-05
6.71216e-05
6.74484e-05
6.74964e-05
6.73163e-05
6.69501e-05
6.64331e-05
6.5795e-05
6.50614e-05
6.42552e-05
6.33972e-05
6.25086e-05
6.1611e-05
6.07334e-05
5.99053e-05
5.9186e-05
5.86052e-05
5.83342e-05
1.44202e-05
1.75842e-05
2.26036e-05
2.42989e-05
2.39742e-05
2.20004e-05
1.91168e-05
1.58617e-05
1.24677e-05
9.08475e-06
5.82112e-06
2.76207e-06
6.92371e-07
2.94135e-06
5.32596e-06
7.4943e-06
9.43818e-06
1.1166e-05
1.26907e-05
1.40273e-05
1.51912e-05
1.61984e-05
1.70645e-05
1.78054e-05
1.84371e-05
1.8976e-05
1.94401e-05
1.9849e-05
2.02262e-05
2.05958e-05
2.09885e-05
2.14091e-05
2.18722e-05
1.09202e-05
1.24974e-05
1.38211e-05
1.43284e-05
1.51105e-05
1.57467e-05
1.61217e-05
1.63285e-05
1.6371e-05
1.62541e-05
1.60017e-05
1.56371e-05
1.51836e-05
1.46562e-05
1.40735e-05
1.34528e-05
1.28092e-05
1.21554e-05
1.15015e-05
1.08555e-05
1.0223e-05
9.60833e-06
9.01379e-06
8.44036e-06
7.88754e-06
7.3535e-06
6.83502e-06
6.32843e-06
5.82985e-06
5.34229e-06
4.87927e-06
4.50343e-06
4.3264e-06
8.24492e-06
9.42835e-06
1.02467e-05
1.00436e-05
9.8527e-06
9.67279e-06
9.48701e-06
9.39778e-06
9.39413e-06
9.43195e-06
9.48432e-06
9.53346e-06
9.56783e-06
9.58522e-06
9.58323e-06
9.56072e-06
9.51782e-06
9.45548e-06
9.37504e-06
9.27803e-06
9.16597e-06
9.0403e-06
8.90228e-06
8.75293e-06
8.59306e-06
8.42342e-06
8.24484e-06
8.05952e-06
7.87139e-06
7.69285e-06
7.54294e-06
7.47603e-06
7.55089e-06
6.36166e-06
7.40991e-06
8.21577e-06
8.07784e-06
7.76622e-06
7.42543e-06
7.04668e-06
6.72137e-06
6.46835e-06
6.26696e-06
6.10446e-06
5.9719e-06
5.8604e-06
5.76337e-06
5.67651e-06
5.5967e-06
5.52145e-06
5.44877e-06
5.37711e-06
5.30528e-06
5.23233e-06
5.15754e-06
5.08031e-06
5.00026e-06
4.91726e-06
4.83176e-06
4.74505e-06
4.66069e-06
4.58512e-06
4.53266e-06
4.52404e-06
4.59951e-06
4.79851e-06
5.00188e-06
5.86052e-06
6.54181e-06
6.53432e-06
6.3653e-06
6.15677e-06
5.87288e-06
5.58602e-06
5.3347e-06
5.11524e-06
4.9229e-06
4.75428e-06
4.60457e-06
4.46961e-06
4.34652e-06
4.2331e-06
4.12756e-06
4.02852e-06
3.93487e-06
3.84572e-06
3.7603e-06
3.67803e-06
3.59848e-06
3.5215e-06
3.44736e-06
3.37709e-06
3.31293e-06
3.2594e-06
3.22395e-06
3.21952e-06
3.26308e-06
3.37875e-06
3.58974e-06
3.99712e-06
4.70971e-06
5.30922e-06
5.37892e-06
5.27554e-06
5.12649e-06
4.90948e-06
4.67959e-06
4.47454e-06
4.29349e-06
4.13197e-06
3.98782e-06
3.85801e-06
3.73961e-06
3.63059e-06
3.52948e-06
3.43512e-06
3.34657e-06
3.26308e-06
3.18405e-06
3.10902e-06
3.03771e-06
2.97008e-06
2.90641e-06
2.84751e-06
2.79501e-06
2.75173e-06
2.72229e-06
2.71356e-06
2.73548e-06
2.79936e-06
2.91714e-06
3.10237e-06
3.23853e-06
3.83773e-06
4.36671e-06
4.47748e-06
4.42224e-06
4.32184e-06
4.1608e-06
3.97609e-06
3.80243e-06
3.64422e-06
3.50016e-06
3.37026e-06
3.25319e-06
3.14691e-06
3.04979e-06
2.96055e-06
2.87808e-06
2.80147e-06
2.73003e-06
2.66324e-06
2.60077e-06
2.54251e-06
2.48864e-06
2.43969e-06
2.39674e-06
2.36161e-06
2.33711e-06
2.3273e-06
2.33748e-06
2.37441e-06
2.44467e-06
2.55269e-06
2.70627e-06
2.65299e-06
3.16283e-06
3.63931e-06
3.78471e-06
3.77464e-06
3.71226e-06
3.59035e-06
3.43732e-06
3.28623e-06
3.14551e-06
3.01572e-06
2.89769e-06
2.79091e-06
2.69397e-06
2.60558e-06
2.52471e-06
2.45047e-06
2.38212e-06
2.31912e-06
2.26108e-06
2.20781e-06
2.15933e-06
2.11593e-06
2.07826e-06
2.04744e-06
2.02516e-06
2.01376e-06
2.01638e-06
2.03657e-06
2.07818e-06
2.1443e-06
2.23527e-06
2.35582e-06
2.19087e-06
2.63264e-06
3.07032e-06
3.24022e-06
3.26495e-06
3.23234e-06
3.14336e-06
3.02041e-06
2.89235e-06
2.76916e-06
2.65283e-06
2.54508e-06
2.44648e-06
2.35648e-06
2.27435e-06
2.19943e-06
2.13107e-06
2.06873e-06
2.01195e-06
1.96045e-06
1.91411e-06
1.87299e-06
1.83743e-06
1.80804e-06
1.7858e-06
1.77205e-06
1.76852e-06
1.77725e-06
1.80025e-06
1.83932e-06
1.89538e-06
1.96676e-06
2.05655e-06
1.81856e-06
2.20957e-06
2.61848e-06
2.80761e-06
2.86247e-06
2.85625e-06
2.79495e-06
2.697e-06
2.58778e-06
2.47863e-06
2.37318e-06
2.27401e-06
2.18244e-06
2.09853e-06
2.0219e-06
1.95213e-06
1.88876e-06
1.83134e-06
1.77955e-06
1.73316e-06
1.69211e-06
1.65648e-06
1.62656e-06
1.60284e-06
1.58605e-06
1.57711e-06
1.57709e-06
1.58707e-06
1.60791e-06
1.64005e-06
1.68314e-06
1.73475e-06
1.79699e-06
1.51259e-06
1.8673e-06
2.25572e-06
2.46063e-06
2.54066e-06
2.55646e-06
2.51767e-06
2.44085e-06
2.34846e-06
2.25235e-06
2.15718e-06
2.06604e-06
1.98077e-06
1.90196e-06
1.82964e-06
1.76368e-06
1.70382e-06
1.6498e-06
1.60139e-06
1.55842e-06
1.52085e-06
1.48873e-06
1.46224e-06
1.4417e-06
1.42753e-06
1.42024e-06
1.4203e-06
1.42807e-06
1.44363e-06
1.46657e-06
1.49593e-06
1.52915e-06
1.56777e-06
1.25628e-06
1.58704e-06
1.96166e-06
2.17995e-06
2.2815e-06
2.31675e-06
2.29753e-06
2.23918e-06
2.16164e-06
2.0768e-06
1.99022e-06
1.90556e-06
1.8252e-06
1.75024e-06
1.68109e-06
1.61783e-06
1.56042e-06
1.5087e-06
1.46249e-06
1.42167e-06
1.38615e-06
1.35593e-06
1.33107e-06
1.31167e-06
1.29789e-06
1.28985e-06
1.28757e-06
1.29091e-06
1.29943e-06
1.31231e-06
1.32833e-06
1.34513e-06
1.3638e-06
1.03762e-06
1.3553e-06
1.72186e-06
1.95195e-06
2.0721e-06
2.12448e-06
2.12207e-06
2.07951e-06
2.01486e-06
1.9399e-06
1.86088e-06
1.78193e-06
1.70582e-06
1.63401e-06
1.56723e-06
1.5058e-06
1.44981e-06
1.39923e-06
1.35396e-06
1.31388e-06
1.2789e-06
1.24893e-06
1.22391e-06
1.20378e-06
1.18844e-06
1.17774e-06
1.17138e-06
1.1689e-06
1.16959e-06
1.17245e-06
1.17621e-06
1.17884e-06
1.18109e-06
8.47854e-07
1.16258e-06
1.52602e-06
1.76677e-06
1.9031e-06
1.97073e-06
1.98312e-06
1.95445e-06
1.90127e-06
1.83509e-06
1.76263e-06
1.68843e-06
1.61559e-06
1.54595e-06
1.48054e-06
1.41989e-06
1.36427e-06
1.31374e-06
1.26826e-06
1.22774e-06
1.19203e-06
1.16099e-06
1.13445e-06
1.11218e-06
1.09392e-06
1.07931e-06
1.06785e-06
1.05892e-06
1.05165e-06
1.04506e-06
1.03791e-06
1.02854e-06
1.01742e-06
6.80796e-07
1.00251e-06
1.36699e-06
1.61747e-06
1.76793e-06
1.84917e-06
1.87463e-06
1.85811e-06
1.81496e-06
1.75641e-06
1.68953e-06
1.6192e-06
1.54885e-06
1.48061e-06
1.41575e-06
1.35504e-06
1.29886e-06
1.24737e-06
1.2006e-06
1.15845e-06
1.12079e-06
1.08741e-06
1.05806e-06
1.03244e-06
1.01015e-06
9.90737e-07
9.73597e-07
9.58029e-07
9.43176e-07
9.28083e-07
9.11651e-07
8.92558e-07
8.70966e-07
5.3268e-07
8.71508e-07
1.24008e-06
1.49932e-06
1.66204e-06
1.75536e-06
1.79242e-06
1.78659e-06
1.7523e-06
1.70047e-06
1.63841e-06
1.57128e-06
1.50274e-06
1.43522e-06
1.37022e-06
1.30869e-06
1.25115e-06
1.19787e-06
1.14891e-06
1.10422e-06
1.06366e-06
1.027e-06
9.93942e-07
9.64126e-07
9.3711e-07
9.12373e-07
8.89299e-07
8.67186e-07
8.45222e-07
8.22562e-07
7.98237e-07
7.71254e-07
7.41541e-07
4.03109e-07
7.68602e-07
1.14258e-06
1.40929e-06
1.58247e-06
1.68642e-06
1.73369e-06
1.7372e-06
1.7106e-06
1.6645e-06
1.60633e-06
1.54149e-06
1.4739e-06
1.4062e-06
1.34013e-06
1.27681e-06
1.21692e-06
1.1608e-06
1.10862e-06
1.06035e-06
1.01588e-06
9.74975e-07
9.37353e-07
9.0264e-07
8.70396e-07
8.40108e-07
8.11193e-07
7.83008e-07
7.54828e-07
7.25934e-07
6.95486e-07
6.62746e-07
6.27419e-07
2.98799e-07
6.95351e-07
1.0734e-06
1.3458e-06
1.52761e-06
1.64074e-06
1.69698e-06
1.70871e-06
1.6889e-06
1.64786e-06
1.5931e-06
1.53021e-06
1.46328e-06
1.39517e-06
1.3278e-06
1.26245e-06
1.1999e-06
1.14062e-06
1.08481e-06
1.03252e-06
9.83665e-07
9.3805e-07
8.9541e-07
8.55406e-07
8.17639e-07
7.81652e-07
7.46933e-07
7.12936e-07
6.79057e-07
6.44727e-07
6.09257e-07
5.72194e-07
5.33084e-07
2.42229e-07
6.55187e-07
1.03267e-06
1.30831e-06
1.49679e-06
1.61758e-06
1.68141e-06
1.69998e-06
1.68565e-06
1.64843e-06
1.59585e-06
1.53364e-06
1.4661e-06
1.39629e-06
1.32633e-06
1.25768e-06
1.19127e-06
1.12766e-06
1.06717e-06
1.00991e-06
9.55846e-07
9.0485e-07
8.56708e-07
8.11143e-07
7.67825e-07
7.26382e-07
6.86404e-07
6.47462e-07
6.09086e-07
5.70853e-07
5.32212e-07
4.92906e-07
4.52396e-07
2.63585e-07
6.51805e-07
1.02136e-06
1.29733e-06
1.49055e-06
1.61772e-06
1.68825e-06
1.7131e-06
1.70404e-06
1.67076e-06
1.62074e-06
1.55978e-06
1.4923e-06
1.42149e-06
1.34963e-06
1.27827e-06
1.20849e-06
1.14094e-06
1.07603e-06
1.01396e-06
9.54767e-07
8.98403e-07
8.44734e-07
7.93574e-07
7.44693e-07
6.97834e-07
6.5272e-07
6.09072e-07
5.66588e-07
5.25047e-07
4.841e-07
4.43852e-07
4.03711e-07
3.52931e-07
6.87047e-07
1.04087e-06
1.31396e-06
1.50967e-06
1.6413e-06
1.71657e-06
1.7455e-06
1.73931e-06
1.70746e-06
1.65744e-06
1.5952e-06
1.52534e-06
1.45128e-06
1.37547e-06
1.29963e-06
1.22497e-06
1.15226e-06
1.08198e-06
1.01441e-06
9.49675e-07
8.87778e-07
8.28667e-07
7.72241e-07
7.18368e-07
6.66904e-07
6.17701e-07
5.70621e-07
5.25522e-07
4.82343e-07
4.40907e-07
4.0148e-07
3.63622e-07
4.80961e-07
7.6004e-07
1.09273e-06
1.3604e-06
1.5574e-06
1.69338e-06
1.77415e-06
1.80868e-06
1.80749e-06
1.77961e-06
1.7323e-06
1.67145e-06
1.6017e-06
1.52656e-06
1.44861e-06
1.36975e-06
1.29133e-06
1.21427e-06
1.1392e-06
1.06653e-06
9.96491e-07
9.29221e-07
8.64778e-07
8.03174e-07
7.44399e-07
6.8844e-07
6.35287e-07
5.84962e-07
5.3749e-07
4.93018e-07
4.51557e-07
4.13757e-07
3.78919e-07
6.35011e-07
8.69431e-07
1.17917e-06
1.4389e-06
1.63416e-06
1.77059e-06
1.85191e-06
1.88622e-06
1.88383e-06
1.85378e-06
1.80348e-06
1.73904e-06
1.66524e-06
1.58575e-06
1.50324e-06
1.4197e-06
1.33651e-06
1.25467e-06
1.17483e-06
1.09745e-06
1.02282e-06
9.51137e-07
8.82518e-07
8.17057e-07
7.5483e-07
6.95915e-07
6.40404e-07
5.88413e-07
5.40067e-07
4.95566e-07
4.54991e-07
4.18868e-07
3.86648e-07
8.13236e-07
1.01356e-06
1.30196e-06
1.55465e-06
1.75118e-06
1.89365e-06
1.98309e-06
2.02575e-06
2.03076e-06
2.00642e-06
1.95977e-06
1.89686e-06
1.82266e-06
1.74111e-06
1.6552e-06
1.56723e-06
1.47889e-06
1.39142e-06
1.3057e-06
1.22236e-06
1.14185e-06
1.06446e-06
9.90433e-07
9.19935e-07
8.53115e-07
7.90113e-07
7.31068e-07
6.76138e-07
6.25463e-07
5.79268e-07
5.37567e-07
5.01028e-07
4.6829e-07
1.02079e-06
1.19809e-06
1.46847e-06
1.71017e-06
1.89824e-06
2.03265e-06
2.11363e-06
2.14795e-06
2.14547e-06
2.11485e-06
2.06314e-06
1.99621e-06
1.91877e-06
1.83446e-06
1.74606e-06
1.6557e-06
1.56495e-06
1.47499e-06
1.38673e-06
1.3008e-06
1.21771e-06
1.13782e-06
1.06141e-06
9.88734e-07
9.1997e-07
8.55293e-07
7.94852e-07
7.38787e-07
6.87198e-07
6.40196e-07
5.97713e-07
5.60064e-07
5.26144e-07
1.26195e-06
1.41954e-06
1.67797e-06
1.92189e-06
2.12413e-06
2.27908e-06
2.38059e-06
2.43151e-06
2.44021e-06
2.41521e-06
2.36417e-06
2.29396e-06
2.21038e-06
2.11803e-06
2.02046e-06
1.92038e-06
1.81978e-06
1.72013e-06
1.62249e-06
1.52762e-06
1.43604e-06
1.34814e-06
1.2642e-06
1.18441e-06
1.10895e-06
1.03791e-06
9.71394e-07
9.09466e-07
8.52145e-07
7.99489e-07
7.51296e-07
7.08061e-07
6.6772e-07
1.55748e-06
1.71241e-06
1.9589e-06
2.17703e-06
2.34571e-06
2.46783e-06
2.54278e-06
2.57608e-06
2.5761e-06
2.5494e-06
2.50115e-06
2.43609e-06
2.35839e-06
2.27159e-06
2.17864e-06
2.08199e-06
1.98363e-06
1.88515e-06
1.78779e-06
1.69251e-06
1.60002e-06
1.51085e-06
1.42539e-06
1.34391e-06
1.26659e-06
1.19355e-06
1.12483e-06
1.06044e-06
1.00035e-06
9.44504e-07
8.92683e-07
8.45099e-07
8.00178e-07
1.8994e-06
2.03218e-06
2.2938e-06
2.56629e-06
2.80601e-06
2.99072e-06
3.10576e-06
3.15577e-06
3.15437e-06
3.11417e-06
3.04549e-06
2.95701e-06
2.85548e-06
2.74587e-06
2.63177e-06
2.51578e-06
2.39975e-06
2.28503e-06
2.1726e-06
2.06313e-06
1.95715e-06
1.85501e-06
1.75696e-06
1.66316e-06
1.57372e-06
1.48868e-06
1.40803e-06
1.33175e-06
1.25978e-06
1.1921e-06
1.12843e-06
1.06932e-06
1.01226e-06
2.38258e-06
2.54802e-06
2.75568e-06
2.90415e-06
3.02308e-06
3.1329e-06
3.22236e-06
3.28303e-06
3.3129e-06
3.31137e-06
3.28e-06
3.22286e-06
3.14499e-06
3.0513e-06
2.94624e-06
2.83367e-06
2.71675e-06
2.59795e-06
2.47921e-06
2.36195e-06
2.24722e-06
2.13573e-06
2.02798e-06
1.92426e-06
1.82471e-06
1.7294e-06
1.63828e-06
1.5513e-06
1.46837e-06
1.38944e-06
1.31435e-06
1.24355e-06
1.17514e-06
2.86124e-06
2.98397e-06
3.38762e-06
3.81015e-06
4.12932e-06
4.32411e-06
4.40388e-06
4.39966e-06
4.34137e-06
4.24729e-06
4.12865e-06
3.99351e-06
3.84746e-06
3.69443e-06
3.53743e-06
3.37902e-06
3.22128e-06
3.06597e-06
2.91448e-06
2.76791e-06
2.62703e-06
2.49237e-06
2.36421e-06
2.24264e-06
2.12759e-06
2.01887e-06
1.9162e-06
1.81928e-06
1.72778e-06
1.64152e-06
1.56015e-06
1.48456e-06
1.41184e-06
3.9042e-06
4.01962e-06
3.9451e-06
3.882e-06
3.99618e-06
4.21638e-06
4.41875e-06
4.55337e-06
4.61686e-06
4.61903e-06
4.5764e-06
4.50703e-06
4.42552e-06
4.34193e-06
4.26245e-06
4.1902e-06
4.12612e-06
4.06981e-06
4.02017e-06
3.97585e-06
3.93551e-06
3.89794e-06
3.86212e-06
3.82718e-06
3.79244e-06
3.75731e-06
3.72133e-06
3.6841e-06
3.64536e-06
3.60507e-06
3.5633e-06
3.52172e-06
3.47843e-06
4.36741e-06
4.95395e-06
5.94247e-06
6.43193e-06
6.55057e-06
6.52775e-06
6.5175e-06
6.62452e-06
6.87841e-06
7.2473e-06
7.6815e-06
8.13654e-06
8.57855e-06
8.98489e-06
9.34264e-06
9.64596e-06
9.89369e-06
1.00877e-05
1.02315e-05
1.03296e-05
1.03869e-05
1.04082e-05
1.03979e-05
1.03603e-05
1.0299e-05
1.02172e-05
1.01174e-05
1.00018e-05
9.87208e-06
9.72942e-06
9.57555e-06
9.41277e-06
9.24208e-06
7.5614e-06
5.83208e-06
4.63895e-06
6.23096e-06
8.95943e-06
1.16662e-05
1.3994e-05
1.58823e-05
1.73305e-05
1.83532e-05
1.89876e-05
1.92818e-05
1.92857e-05
1.90488e-05
1.86179e-05
1.80359e-05
1.73401e-05
1.65627e-05
1.57304e-05
1.48651e-05
1.39845e-05
1.3102e-05
1.22284e-05
1.13711e-05
1.05358e-05
9.72589e-06
8.94324e-06
8.18803e-06
7.45976e-06
6.75467e-06
6.07323e-06
5.40359e-06
4.75953e-06
8.58447e-06
1.47264e-05
1.88236e-05
2.12205e-05
2.23027e-05
2.18235e-05
1.99599e-05
1.71656e-05
1.39114e-05
1.08248e-05
8.92468e-06
9.29466e-06
1.16666e-05
1.49384e-05
1.84283e-05
2.18369e-05
2.50344e-05
2.7965e-05
3.06094e-05
3.29673e-05
3.50489e-05
3.68702e-05
3.84499e-05
3.98077e-05
4.09634e-05
4.19361e-05
4.27444e-05
4.34061e-05
4.39389e-05
4.43648e-05
4.46994e-05
4.50018e-05
4.52613e-05
3.46473e-05
3.7224e-05
4.66647e-05
6.17926e-05
7.75e-05
9.28971e-05
0.000107282
0.000119949
0.00013071
0.000139609
0.00014676
0.000152326
0.000156495
0.000159453
0.000161375
0.00016242
0.00016273
0.00016243
0.000161625
0.000160407
0.000158853
0.000157029
0.00015499
0.00015278
0.000150438
0.000147994
0.000145474
0.000142896
0.000140278
0.000137624
0.000134937
0.000132307
0.000129743
0.000608449
0.0005825
0.000556862
0.000530378
0.000504349
0.000479095
0.000454658
0.000431309
0.000409231
0.000388479
0.000369069
0.000350986
0.000334181
0.000318586
0.000304123
0.000290705
0.000278249
0.000266671
0.00025589
0.000245834
0.000236432
0.000227623
0.000219349
0.000211559
0.000204207
0.000197251
0.000190653
0.000184378
0.000178387
0.000172658
0.00016706
0.000162131
0.000157644
8.30351e-05
6.92438e-05
5.15209e-05
3.77073e-05
3.93636e-05
5.15515e-05
6.41065e-05
7.43312e-05
8.29206e-05
9.14639e-05
0.000100559
0.000108796
0.000114914
0.000100482
7.46473e-05
6.34033e-05
5.55314e-05
4.65212e-05
3.86628e-05
3.28909e-05
2.90312e-05
2.62753e-05
2.36377e-05
2.04417e-05
1.64661e-05
1.20037e-05
7.80467e-06
4.17275e-06
5.85624e-06
1.15937e-05
1.29542e-05
1.37025e-05
1.69456e-05
2.23489e-05
2.93708e-05
3.22709e-05
3.01875e-05
2.62645e-05
2.27397e-05
1.99418e-05
1.76169e-05
1.56131e-05
1.38759e-05
1.23681e-05
1.10507e-05
9.88873e-06
8.85604e-06
7.93386e-06
7.10792e-06
6.36631e-06
5.69879e-06
5.09674e-06
4.55315e-06
4.06245e-06
3.62019e-06
3.22262e-06
2.86634e-06
2.54811e-06
2.26491e-06
2.014e-06
1.79255e-06
1.59715e-06
1.42364e-06
1.26839e-06
1.13059e-06
1.01363e-06
9.22837e-07
8.59416e-07
8.16732e-07
7.83992e-07
7.53032e-07
7.20748e-07
6.87071e-07
6.52845e-07
6.19402e-07
5.88383e-07
5.60687e-07
5.35383e-07
5.09816e-07
4.80982e-07
4.47306e-07
4.0948e-07
3.70043e-07
3.32077e-07
2.97957e-07
2.68712e-07
2.44242e-07
2.23838e-07
2.06689e-07
1.92227e-07
1.80152e-07
1.69967e-07
1.61893e-07
1.54683e-07
1.50242e-07
1.43715e-07
1.44736e-07
1.32618e-07
1.4836e-07
1.22831e-07
0.000118794
0.00010092
8.18193e-05
7.10946e-05
7.08635e-05
7.67004e-05
8.25033e-05
8.53565e-05
8.64421e-05
8.85014e-05
9.25117e-05
9.69804e-05
0.000102016
0.000107666
9.28594e-05
6.71479e-05
5.48617e-05
4.75184e-05
3.9323e-05
3.25214e-05
2.80858e-05
2.51617e-05
2.25567e-05
1.9498e-05
1.57672e-05
1.16172e-05
6.73692e-06
1.14191e-06
8.55265e-06
1.18645e-05
1.10178e-05
1.3682e-05
1.79164e-05
2.56954e-05
3.21265e-05
3.27166e-05
2.94053e-05
2.54977e-05
2.22904e-05
1.9703e-05
1.75025e-05
1.55873e-05
1.39144e-05
1.2448e-05
1.11533e-05
1.00022e-05
8.97367e-06
8.05189e-06
7.22375e-06
6.47791e-06
5.80459e-06
5.19569e-06
4.64462e-06
4.14616e-06
3.69608e-06
3.29073e-06
2.92675e-06
2.60093e-06
2.31033e-06
2.05231e-06
1.82425e-06
1.62294e-06
1.44445e-06
1.28514e-06
1.14419e-06
1.02515e-06
9.33866e-07
8.72128e-07
8.33175e-07
8.05128e-07
7.78295e-07
7.48326e-07
7.14537e-07
6.77934e-07
6.40629e-07
6.053e-07
5.73766e-07
5.45627e-07
5.18287e-07
4.88493e-07
4.54258e-07
4.15935e-07
3.75883e-07
3.37176e-07
3.02266e-07
2.7231e-07
2.47265e-07
2.26431e-07
2.09002e-07
1.94327e-07
1.81989e-07
1.71615e-07
1.63365e-07
1.56003e-07
1.51499e-07
1.44898e-07
1.45898e-07
1.33649e-07
1.49224e-07
1.23158e-07
0.000108379
0.000106175
9.7607e-05
9.04505e-05
8.70307e-05
8.53778e-05
8.25875e-05
7.78404e-05
7.31637e-05
7.13402e-05
7.29539e-05
7.66984e-05
8.09235e-05
8.74698e-05
9.25454e-05
7.99619e-05
5.82402e-05
4.62362e-05
4.01445e-05
3.36049e-05
2.75894e-05
2.32905e-05
2.01489e-05
1.70619e-05
1.34414e-05
8.79983e-06
3.21928e-06
6.96417e-06
1.09572e-05
9.00915e-06
1.01613e-05
1.39842e-05
2.10257e-05
3.01473e-05
3.40982e-05
3.23057e-05
2.83441e-05
2.4721e-05
2.18558e-05
1.94772e-05
1.7404e-05
1.5575e-05
1.39605e-05
1.25306e-05
1.12572e-05
1.01176e-05
9.09478e-06
8.17454e-06
7.34476e-06
6.59483e-06
5.91566e-06
5.29974e-06
4.74099e-06
4.23452e-06
3.77632e-06
3.36289e-06
2.99093e-06
2.65729e-06
2.35909e-06
2.09377e-06
1.85887e-06
1.65136e-06
1.46736e-06
1.30317e-06
1.15777e-06
1.03481e-06
9.40892e-07
8.78892e-07
8.42437e-07
8.18761e-07
7.96615e-07
7.70176e-07
7.37843e-07
7.00408e-07
6.60461e-07
6.21625e-07
5.86707e-07
5.55988e-07
5.27096e-07
4.96608e-07
4.62162e-07
4.2376e-07
3.83557e-07
3.44593e-07
3.09393e-07
2.79197e-07
2.54002e-07
2.33102e-07
2.15661e-07
2.00942e-07
1.88596e-07
1.78208e-07
1.69959e-07
1.62596e-07
1.58152e-07
1.51592e-07
1.52745e-07
1.40559e-07
1.56474e-07
1.305e-07
7.74909e-05
7.6821e-05
7.3034e-05
6.85067e-05
6.43807e-05
5.99397e-05
5.42479e-05
4.79547e-05
4.35144e-05
4.2754e-05
4.46592e-05
4.77154e-05
5.19702e-05
5.80817e-05
6.78743e-05
7.45109e-05
6.69824e-05
5.05286e-05
3.88106e-05
3.33995e-05
2.89829e-05
2.42432e-05
1.97947e-05
1.58409e-05
1.20569e-05
9.08592e-06
9.52456e-06
1.05685e-05
6.98647e-06
6.39451e-06
1.0465e-05
1.62825e-05
2.69733e-05
3.41797e-05
3.45781e-05
3.1074e-05
2.71431e-05
2.3992e-05
2.14551e-05
1.92595e-05
1.73024e-05
1.55557e-05
1.39984e-05
1.26059e-05
1.13558e-05
1.02305e-05
9.21555e-06
8.29845e-06
7.46803e-06
6.71459e-06
6.02989e-06
5.40711e-06
4.84072e-06
4.3262e-06
3.8598e-06
3.43815e-06
3.05805e-06
2.71643e-06
2.41046e-06
2.13769e-06
1.89576e-06
1.68185e-06
1.49217e-06
1.32299e-06
1.17311e-06
1.0463e-06
9.49836e-07
8.8766e-07
8.53818e-07
8.34733e-07
8.17632e-07
7.95216e-07
7.64854e-07
7.26952e-07
6.84438e-07
6.41833e-07
6.03007e-07
5.69055e-07
5.37935e-07
5.06095e-07
4.70812e-07
4.3171e-07
3.90725e-07
3.50866e-07
3.14742e-07
2.83693e-07
2.57784e-07
2.36312e-07
2.18412e-07
2.03342e-07
1.90769e-07
1.80069e-07
1.71617e-07
1.64059e-07
1.59506e-07
1.52802e-07
1.54004e-07
1.41594e-07
1.57902e-07
1.31493e-07
2.96445e-05
2.91669e-05
2.62698e-05
2.23084e-05
1.86164e-05
1.56494e-05
1.39391e-05
1.48296e-05
1.79582e-05
2.09322e-05
2.23836e-05
2.30511e-05
2.49405e-05
2.96543e-05
3.7219e-05
4.75456e-05
5.57921e-05
5.43856e-05
4.44187e-05
3.38066e-05
2.72292e-05
2.34638e-05
2.03637e-05
1.73135e-05
1.45063e-05
1.20151e-05
8.92673e-06
3.1854e-06
4.04655e-06
7.73623e-06
1.20143e-05
2.36617e-05
3.34057e-05
3.60697e-05
3.34512e-05
2.94255e-05
2.60198e-05
2.33499e-05
2.10793e-05
1.90387e-05
1.71906e-05
1.55246e-05
1.40243e-05
1.26703e-05
1.14462e-05
1.03378e-05
9.33302e-06
8.42058e-06
7.59056e-06
6.83435e-06
6.14464e-06
5.51539e-06
4.94159e-06
4.41913e-06
3.94451e-06
3.51454e-06
3.12616e-06
2.77641e-06
2.46252e-06
2.18213e-06
1.93305e-06
1.71257e-06
1.517e-06
1.34248e-06
1.18758e-06
1.05606e-06
9.55923e-07
8.92423e-07
8.60382e-07
8.45611e-07
8.33824e-07
8.16152e-07
7.8876e-07
7.51429e-07
7.07201e-07
6.61377e-07
6.18912e-07
5.81824e-07
5.48528e-07
5.15442e-07
4.7952e-07
4.40017e-07
3.9863e-07
3.58302e-07
3.21699e-07
2.90244e-07
2.64052e-07
2.42415e-07
2.24436e-07
2.0931e-07
1.96659e-07
1.85889e-07
1.77392e-07
1.6977e-07
1.65205e-07
1.5843e-07
1.59705e-07
1.47121e-07
1.63892e-07
1.37151e-07
6.40169e-06
8.41507e-06
1.06815e-05
1.26562e-05
1.44453e-05
1.62099e-05
1.78708e-05
1.9081e-05
1.93173e-05
1.8227e-05
1.60321e-05
1.37211e-05
1.30585e-05
1.60483e-05
2.1539e-05
2.67659e-05
3.21447e-05
3.84808e-05
4.12601e-05
3.81068e-05
3.14898e-05
2.46607e-05
1.9043e-05
1.44718e-05
1.07785e-05
8.05666e-06
7.33724e-06
8.37874e-06
6.78846e-06
8.7982e-06
2.16334e-05
3.27691e-05
3.69908e-05
3.52854e-05
3.13756e-05
2.78139e-05
2.50628e-05
2.27774e-05
2.07128e-05
1.88094e-05
1.70668e-05
1.54805e-05
1.40378e-05
1.2725e-05
1.15297e-05
1.04409e-05
9.44811e-06
8.54165e-06
7.71301e-06
6.95476e-06
6.26059e-06
5.62521e-06
5.04421e-06
4.51388e-06
4.031e-06
3.59263e-06
3.19586e-06
2.83785e-06
2.51592e-06
2.22782e-06
1.97145e-06
1.74426e-06
1.54265e-06
1.36266e-06
1.20262e-06
1.06627e-06
9.62274e-07
8.97243e-07
8.6689e-07
8.56521e-07
8.5039e-07
8.38041e-07
8.14327e-07
7.78219e-07
7.32689e-07
6.8372e-07
6.37383e-07
5.96727e-07
5.60749e-07
5.2592e-07
4.88898e-07
4.48559e-07
4.06335e-07
3.6509e-07
3.27543e-07
2.95217e-07
2.68292e-07
2.4607e-07
2.2763e-07
2.12138e-07
1.99193e-07
1.88243e-07
1.79537e-07
1.71735e-07
1.67072e-07
1.60143e-07
1.61458e-07
1.48602e-07
1.65796e-07
1.38469e-07
1.07435e-05
1.26491e-05
1.4857e-05
1.65995e-05
1.75511e-05
1.78016e-05
1.7518e-05
1.68053e-05
1.57263e-05
1.44339e-05
1.32727e-05
1.26939e-05
1.30725e-05
1.46094e-05
1.81049e-05
2.30249e-05
2.58876e-05
2.54402e-05
2.53908e-05
2.71539e-05
2.79674e-05
2.6573e-05
2.36786e-05
2.04876e-05
1.77432e-05
1.5063e-05
1.11186e-05
4.09866e-06
9.0607e-06
2.27079e-05
3.33934e-05
3.77371e-05
3.64665e-05
3.27714e-05
2.92183e-05
2.64851e-05
2.42608e-05
2.22419e-05
2.03417e-05
1.85675e-05
1.6929e-05
1.54227e-05
1.40396e-05
1.27707e-05
1.16071e-05
1.05399e-05
9.56073e-06
8.66152e-06
7.83526e-06
7.07577e-06
6.37773e-06
5.73663e-06
5.14864e-06
4.6105e-06
4.11934e-06
3.67245e-06
3.26714e-06
2.90069e-06
2.57057e-06
2.27458e-06
2.01075e-06
1.77666e-06
1.56877e-06
1.38301e-06
1.21743e-06
1.07561e-06
9.66891e-07
8.99363e-07
8.69951e-07
8.63674e-07
8.63366e-07
8.56934e-07
8.37779e-07
8.03847e-07
7.57811e-07
7.06196e-07
6.56173e-07
6.11921e-07
5.7315e-07
5.36493e-07
4.98372e-07
4.57296e-07
4.14424e-07
3.72515e-07
3.34325e-07
3.01453e-07
2.74132e-07
2.51665e-07
2.33095e-07
2.17535e-07
2.04547e-07
1.93539e-07
1.848e-07
1.76978e-07
1.72325e-07
1.65354e-07
1.66781e-07
1.53758e-07
1.71468e-07
1.43773e-07
7.05544e-06
8.47059e-06
1.00901e-05
1.1398e-05
1.21475e-05
1.23982e-05
1.23286e-05
1.21096e-05
1.18673e-05
1.17212e-05
1.18201e-05
1.23165e-05
1.33154e-05
1.47341e-05
1.66658e-05
1.99546e-05
2.45942e-05
2.76729e-05
2.68024e-05
2.29714e-05
1.89406e-05
1.62708e-05
1.44554e-05
1.23917e-05
9.12534e-06
4.88462e-06
7.58382e-06
1.74572e-05
2.80194e-05
3.56803e-05
3.84258e-05
3.68718e-05
3.33963e-05
3.00642e-05
2.7503e-05
2.54348e-05
2.35375e-05
2.17072e-05
1.99575e-05
1.83121e-05
1.67778e-05
1.53523e-05
1.4031e-05
1.28085e-05
1.16787e-05
1.06351e-05
9.67099e-06
8.78033e-06
7.95752e-06
7.19762e-06
6.4963e-06
5.84985e-06
5.25507e-06
4.70918e-06
4.20969e-06
3.75418e-06
3.34018e-06
2.96516e-06
2.62669e-06
2.32267e-06
2.05123e-06
1.81006e-06
1.5957e-06
1.40396e-06
1.23259e-06
1.085e-06
9.71108e-07
9.00594e-07
8.71769e-07
8.69523e-07
8.75314e-07
8.75392e-07
8.61607e-07
8.30686e-07
7.8479e-07
7.30846e-07
6.77112e-07
6.28989e-07
5.87031e-07
5.48135e-07
5.08537e-07
4.66384e-07
4.22537e-07
3.79634e-07
3.40452e-07
3.06676e-07
2.78602e-07
2.5554e-07
2.36511e-07
2.2059e-07
2.07321e-07
1.96083e-07
1.87211e-07
1.79246e-07
1.74523e-07
1.67425e-07
1.68931e-07
1.55657e-07
1.73837e-07
1.45566e-07
5.32567e-06
6.35482e-06
7.51497e-06
8.50184e-06
9.15757e-06
9.50664e-06
9.64879e-06
9.6822e-06
9.69337e-06
9.78624e-06
1.01018e-05
1.07831e-05
1.19291e-05
1.35268e-05
1.54105e-05
1.75621e-05
2.06147e-05
2.48007e-05
2.85146e-05
2.99335e-05
2.88239e-05
2.62813e-05
2.3719e-05
2.22654e-05
2.267e-05
2.54138e-05
3.00229e-05
3.48684e-05
3.79996e-05
3.83064e-05
3.61804e-05
3.30572e-05
3.02141e-05
2.80205e-05
2.62177e-05
2.45171e-05
2.28242e-05
2.11609e-05
1.95624e-05
1.80454e-05
1.66146e-05
1.52707e-05
1.40129e-05
1.28389e-05
1.17449e-05
1.07265e-05
9.77911e-06
8.89833e-06
8.08005e-06
7.32056e-06
6.61654e-06
5.96511e-06
5.36372e-06
4.81014e-06
4.30227e-06
3.83802e-06
3.41518e-06
3.0314e-06
2.68441e-06
2.37219e-06
2.09295e-06
1.84451e-06
1.62343e-06
1.42543e-06
1.24789e-06
1.09398e-06
9.74159e-07
8.9975e-07
8.70766e-07
8.72207e-07
8.84213e-07
8.9134e-07
8.83775e-07
8.56822e-07
8.11895e-07
7.56153e-07
6.989e-07
6.46836e-07
6.0149e-07
5.60151e-07
5.18941e-07
4.75675e-07
4.30911e-07
3.87145e-07
3.47159e-07
3.12706e-07
2.84132e-07
2.60746e-07
2.41535e-07
2.25522e-07
2.12213e-07
2.00955e-07
1.9208e-07
1.84089e-07
1.79448e-07
1.72355e-07
1.7402e-07
1.60594e-07
1.79353e-07
1.507e-07
4.55345e-06
5.31035e-06
6.1565e-06
6.90264e-06
7.42691e-06
7.72277e-06
7.85199e-06
7.89782e-06
7.95285e-06
8.12637e-06
8.54367e-06
9.31072e-06
1.04781e-05
1.20229e-05
1.38615e-05
1.58379e-05
1.79239e-05
2.05178e-05
2.38951e-05
2.746e-05
3.02798e-05
3.19976e-05
3.29149e-05
3.37484e-05
3.48284e-05
3.61102e-05
3.71335e-05
3.72666e-05
3.61643e-05
3.40826e-05
3.17145e-05
2.96477e-05
2.79981e-05
2.6554e-05
2.51123e-05
2.3617e-05
2.21017e-05
2.06085e-05
1.91608e-05
1.77695e-05
1.64408e-05
1.51792e-05
1.39865e-05
1.28627e-05
1.18061e-05
1.08146e-05
9.88544e-06
9.01585e-06
8.20317e-06
7.4449e-06
6.73875e-06
6.08268e-06
5.47486e-06
4.91362e-06
4.39731e-06
3.92419e-06
3.49234e-06
3.09964e-06
2.74394e-06
2.42335e-06
2.13615e-06
1.88022e-06
1.6522e-06
1.44766e-06
1.26364e-06
1.103e-06
9.76632e-07
8.97605e-07
8.67885e-07
8.72797e-07
8.91213e-07
9.05967e-07
9.05484e-07
8.8345e-07
8.40297e-07
7.83244e-07
7.2259e-07
6.66404e-07
6.17326e-07
5.73155e-07
5.29977e-07
4.8529e-07
4.39337e-07
3.94448e-07
3.53392e-07
3.17984e-07
2.88624e-07
2.6463e-07
2.44959e-07
2.28594e-07
2.15016e-07
2.03548e-07
1.94535e-07
1.86443e-07
1.8178e-07
1.74588e-07
1.7638e-07
1.62728e-07
1.82009e-07
1.52795e-07
3.92645e-06
4.48771e-06
5.10102e-06
5.64515e-06
6.03517e-06
6.26235e-06
6.37113e-06
6.42915e-06
6.52042e-06
6.74855e-06
7.22574e-06
8.03284e-06
9.19176e-06
1.0662e-05
1.23708e-05
1.42315e-05
1.6122e-05
1.80075e-05
2.00798e-05
2.25227e-05
2.51925e-05
2.77104e-05
2.97881e-05
3.13354e-05
3.24015e-05
3.29111e-05
3.27893e-05
3.20618e-05
3.09218e-05
2.96661e-05
2.85101e-05
2.74669e-05
2.64198e-05
2.52748e-05
2.4025e-05
2.27134e-05
2.13825e-05
2.00582e-05
1.87554e-05
1.74857e-05
1.6258e-05
1.5079e-05
1.39524e-05
1.28802e-05
1.18629e-05
1.08999e-05
9.99046e-06
9.13336e-06
8.32732e-06
7.57104e-06
6.86328e-06
6.20291e-06
5.58882e-06
5.01994e-06
4.4951e-06
4.01297e-06
3.57193e-06
3.1701e-06
2.80552e-06
2.47638e-06
2.18102e-06
1.91741e-06
1.6822e-06
1.47083e-06
1.27995e-06
1.11203e-06
9.78335e-07
8.93714e-07
8.62415e-07
8.70387e-07
8.95292e-07
9.182e-07
9.25672e-07
9.09576e-07
8.69112e-07
8.11364e-07
7.47554e-07
6.8718e-07
6.34124e-07
5.86837e-07
5.41461e-07
4.95221e-07
4.48046e-07
4.02084e-07
3.60072e-07
3.23868e-07
2.93915e-07
2.69529e-07
2.4963e-07
2.33148e-07
2.19527e-07
2.08055e-07
1.99084e-07
1.91044e-07
1.86471e-07
1.79314e-07
1.81343e-07
1.67575e-07
1.87502e-07
1.57903e-07
3.37655e-06
3.78806e-06
4.22619e-06
4.61495e-06
4.89683e-06
5.06163e-06
5.14054e-06
5.19277e-06
5.3019e-06
5.56999e-06
6.09331e-06
6.9248e-06
8.05993e-06
9.44936e-06
1.10279e-05
1.27335e-05
1.45004e-05
1.62443e-05
1.79219e-05
1.95875e-05
2.13106e-05
2.30535e-05
2.4675e-05
2.60039e-05
2.69758e-05
2.75538e-05
2.77661e-05
2.76875e-05
2.74137e-05
2.70119e-05
2.64886e-05
2.58155e-05