/*--------------------------------*- C++ -*----------------------------------*\
| =========                 |                                                 |
| \\      /  F ield         | OpenFOAM: The Open Source CFD Toolbox           |
|  \\    /   O peration     | Version:  2.1.1                                 |
|   \\  /    A nd           | Web:      www.OpenFOAM.org                      |
|    \\/     M anipulation  |                                                 |
\*---------------------------------------------------------------------------*/
FoamFile
{
    version     2.0;
    format      ascii;
    class       volScalarField;
    location    "0.05";
    object      p;
}
// * * * * * * * * * * * * * * * * * * * * * * * * * * * * * * * * * * * * * //

dimensions      [0 2 -2 0 0 0 0];

internalField   nonuniform List<scalar> 
6820
(
8.31553
-9.52022
-12.5289
-12.7164
-12.8892
-12.8156
-12.7582
-12.7693
-12.8146
-12.8788
-12.9533
-13.0329
-13.1152
-13.1989
-13.2833
-13.3681
-13.453
-13.5377
-13.6219
-13.7055
-13.7882
-13.8696
-13.9495
-14.0275
-14.1032
-14.1758
-14.2446
-14.3086
-14.3669
-14.4158
-14.46
-14.472
-14.5272
1.63441
-9.33896
-12.2176
-12.5181
-12.7708
-12.7933
-12.7724
-12.7947
-12.8417
-12.9029
-12.9735
-13.0495
-13.1287
-13.21
-13.2927
-13.3762
-13.4602
-13.5442
-13.6281
-13.7114
-13.7939
-13.8754
-13.9554
-14.0336
-14.1095
-14.1826
-14.2521
-14.3171
-14.3769
-14.4294
-14.4774
-14.5122
-14.5951
-1.08017
-7.90854
-11.197
-11.9555
-12.424
-12.6212
-12.6791
-12.7342
-12.8006
-12.8741
-12.9534
-13.036
-13.1203
-13.2053
-13.2906
-13.3759
-13.4611
-13.5459
-13.6302
-13.7139
-13.7967
-13.8784
-13.9587
-14.0374
-14.1141
-14.1885
-14.2601
-14.3283
-14.3936
-14.4553
-14.5204
-14.5887
-14.72
-3.06552
-7.68127
-10.7754
-11.6352
-12.1076
-12.384
-12.5121
-12.6114
-12.709
-12.8032
-12.8956
-12.9871
-13.0779
-13.1682
-13.2579
-13.347
-13.4353
-13.523
-13.6099
-13.6958
-13.7808
-13.8647
-13.9474
-14.0287
-14.1086
-14.187
-14.264
-14.34
-14.4169
-14.497
-14.5905
-14.7096
-14.9087
-4.70103
-7.78177
-10.3837
-11.2879
-11.7961
-12.1519
-12.3503
-12.4893
-12.6116
-12.7227
-12.8269
-12.9276
-13.0255
-13.1211
-13.2152
-13.3079
-13.3993
-13.4896
-13.5788
-13.6669
-13.754
-13.84
-13.9251
-14.0094
-14.093
-14.1765
-14.2606
-14.3469
-14.4386
-14.5406
-14.6653
-14.8291
-15.0787
-5.92366
-7.96271
-10.1329
-11.0778
-11.6052
-11.9881
-12.2215
-12.3835
-12.522
-12.646
-12.7599
-12.868
-12.9719
-13.0727
-13.1708
-13.2668
-13.361
-13.4537
-13.545
-13.6351
-13.7242
-13.8124
-13.9
-13.9873
-14.0749
-14.1636
-14.2549
-14.3511
-14.4564
-14.5768
-14.7245
-14.9147
-15.1828
-6.87432
-8.2491
-10.0156
-10.9233
-11.4383
-11.8295
-12.0932
-12.2807
-12.4373
-12.5749
-12.6989
-12.8142
-12.9238
-13.0289
-13.1305
-13.2294
-13.3262
-13.421
-13.5143
-13.6063
-13.6971
-13.7872
-13.8769
-13.9667
-14.0575
-14.1503
-14.2469
-14.35
-14.4639
-14.5946
-14.7524
-14.9492
-15.208
-7.62021
-8.55518
-9.96439
-10.8075
-11.311
-11.7039
-11.9863
-12.1912
-12.3599
-12.5072
-12.6388
-12.7603
-12.8749
-12.9842
-13.0894
-13.1913
-13.2906
-13.3877
-13.483
-13.5768
-13.6694
-13.7613
-13.8529
-13.945
-14.0384
-14.1345
-14.235
-14.3428
-14.4618
-14.5973
-14.7572
-14.9499
-15.1889
-8.2123
-8.85868
-9.97443
-10.7373
-11.2184
-11.5997
-11.8886
-12.1051
-12.284
-12.4401
-12.5794
-12.7071
-12.8268
-12.9403
-13.0489
-13.1538
-13.2555
-13.3547
-13.4518
-13.5473
-13.6415
-13.735
-13.8283
-13.9221
-14.0174
-14.1157
-14.2186
-14.3287
-14.4493
-14.5845
-14.74
-14.9207
-15.1333
-8.68843
-9.14395
-10.0223
-10.6965
-11.1487
-11.5142
-11.804
-12.0285
-12.215
-12.3778
-12.5231
-12.6559
-12.7797
-12.8967
-13.0084
-13.1159
-13.2199
-13.3211
-13.4199
-13.5169
-13.6125
-13.7073
-13.8019
-13.897
-13.9936
-14.0931
-14.1969
-14.3072
-14.4266
-14.5581
-14.705
-14.8701
-15.0554
-9.07549
-9.40331
-10.0941
-10.6813
-11.1011
-11.4473
-11.7318
-11.9592
-12.1502
-12.3178
-12.4679
-12.6051
-12.7328
-12.8533
-12.968
-13.078
-13.1842
-13.2873
-13.3877
-13.4861
-13.583
-13.6788
-13.7743
-13.8702
-13.9673
-14.0669
-14.1703
-14.279
-14.395
-14.5202
-14.6562
-14.8039
-14.9629
-9.39314
-9.63439
-10.1791
-10.6847
-11.0696
-11.3945
-11.6699
-11.897
-12.0905
-12.2615
-12.4154
-12.5563
-12.6873
-12.8108
-12.928
-13.0403
-13.1484
-13.2531
-13.355
-13.4545
-13.5524
-13.6489
-13.7449
-13.841
-13.9381
-14.0369
-14.1386
-14.2445
-14.3555
-14.4728
-14.5969
-14.7274
-14.8624
-9.65568
-9.83726
-10.269
-10.7015
-11.0513
-11.3541
-11.6181
-11.842
-12.0358
-12.2086
-12.3651
-12.5087
-12.6426
-12.7685
-12.8882
-13.0025
-13.1124
-13.2186
-13.3218
-13.4223
-13.5209
-13.6179
-13.7141
-13.81
-13.9062
-14.0036
-14.1028
-14.2047
-14.3098
-14.4186
-14.5306
-14.6449
-14.759
-9.8737
-10.0134
-10.3584
-10.7271
-11.0427
-11.3234
-11.5744
-11.7931
-11.9856
-12.1589
-12.3171
-12.4629
-12.599
-12.7272
-12.8489
-12.965
-13.0765
-13.1841
-13.2882
-13.3896
-13.4886
-13.5858
-13.6817
-13.7769
-13.8718
-13.9671
-14.0632
-14.1605
-14.2593
-14.3593
-14.4599
-14.5596
-14.6559
-10.055
-10.1647
-10.4431
-10.7574
-11.0409
-11.3003
-11.5378
-11.7498
-11.9398
-12.1126
-12.2715
-12.4188
-12.5567
-12.6867
-12.8101
-12.9278
-13.0406
-13.1493
-13.2543
-13.3562
-13.4555
-13.5526
-13.648
-13.7421
-13.8353
-13.9281
-14.0206
-14.1131
-14.2055
-14.2972
-14.3873
-14.4744
-14.556
-10.2055
-10.2934
-10.5206
-10.7893
-11.0435
-11.2828
-11.5067
-11.7112
-11.8976
-12.0691
-12.2281
-12.3764
-12.5156
-12.6471
-12.7719
-12.891
-13.005
-13.1146
-13.2203
-13.3225
-13.4218
-13.5185
-13.6131
-13.7058
-13.7971
-13.887
-13.9758
-14.0634
-14.1495
-14.2335
-14.3144
-14.3909
-14.4606
-10.3295
-10.4012
-10.5893
-10.8203
-11.0483
-11.2689
-11.4798
-11.6765
-11.8588
-12.0284
-12.1869
-12.3357
-12.4758
-12.6084
-12.7345
-12.8547
-12.9697
-13.08
-13.1862
-13.2886
-13.3878
-13.4839
-13.5775
-13.6687
-13.7577
-13.8448
-13.9298
-14.0127
-14.093
-14.1701
-14.2431
-14.3107
-14.3712
-10.4304
-10.4901
-10.6479
-10.8481
-11.0532
-11.257
-11.4557
-11.6447
-11.8225
-11.9899
-12.1476
-12.2965
-12.4373
-12.5709
-12.6979
-12.8191
-12.9349
-13.0458
-13.1523
-13.2547
-13.3535
-13.4489
-13.5412
-13.6307
-13.7175
-13.8016
-13.8829
-13.9613
-14.0364
-14.1075
-14.1738
-14.2343
-14.2877
-10.5106
-10.5612
-10.6958
-10.871
-11.0566
-11.2455
-11.4332
-11.6149
-11.7884
-11.9534
-12.1101
-12.2588
-12.4001
-12.5345
-12.6624
-12.7843
-12.9008
-13.0122
-13.1189
-13.2212
-13.3195
-13.4141
-13.5052
-13.5929
-13.6773
-13.7586
-13.8365
-13.9108
-13.9813
-14.0473
-14.1081
-14.1631
-14.211
-10.572
-10.6156
-10.7324
-10.8878
-11.0569
-11.233
-11.4111
-11.5862
-11.7555
-11.9182
-12.0739
-12.2225
-12.3642
-12.4992
-12.6278
-12.7504
-12.8674
-12.9792
-13.0859
-13.188
-13.2857
-13.3793
-13.469
-13.5549
-13.6371
-13.7155
-13.7902
-13.8609
-13.9273
-13.9889
-14.0453
-14.096
-14.14
-10.6158
-10.6542
-10.7574
-10.8971
-11.0529
-11.2183
-11.3883
-11.5576
-11.7234
-11.8842
-12.039
-12.1876
-12.3296
-12.4653
-12.5947
-12.718
-12.8355
-12.9476
-13.0544
-13.1562
-13.2533
-13.346
-13.4343
-13.5184
-13.5984
-13.6744
-13.7461
-13.8136
-13.8765
-13.9346
-13.9875
-14.0348
-14.0761
-10.6428
-10.6773
-10.7703
-10.8981
-11.0433
-11.2002
-11.3636
-11.5283
-11.6913
-11.8506
-12.0049
-12.1536
-12.2961
-12.4324
-12.5625
-12.6865
-12.8045
-12.9167
-13.0234
-13.1249
-13.2213
-13.3128
-13.3998
-13.4821
-13.5601
-13.6336
-13.7027
-13.7672
-13.8271
-13.8822
-13.9322
-13.977
-14.0163
-10.6534
-10.6851
-10.7708
-10.8897
-11.0271
-11.1776
-11.3361
-11.4977
-11.6588
-11.8173
-11.9717
-12.1209
-12.2643
-12.4016
-12.5327
-12.6574
-12.776
-12.8886
-12.9953
-13.0965
-13.1923
-13.2829
-13.3685
-13.4493
-13.5253
-13.5967
-13.6634
-13.7255
-13.7828
-13.8354
-13.8832
-13.926
-13.9638
-10.6477
-10.6774
-10.7581
-10.8711
-11.0031
-11.1494
-11.3049
-11.4646
-11.6249
-11.7835
-11.9384
-12.0886
-12.2331
-12.3714
-12.5034
-12.629
-12.7481
-12.8609
-12.9676
-13.0684
-13.1634
-13.253
-13.3372
-13.4163
-13.4905
-13.5597
-13.6242
-13.684
-13.7391
-13.7895
-13.8353
-13.8765
-13.9132
-10.6251
-10.6538
-10.7316
-10.8412
-10.9704
-11.1148
-11.2693
-11.429
-11.59
-11.7498
-11.9065
-12.0584
-12.2047
-12.3448
-12.4783
-12.6051
-12.7251
-12.8384
-12.9453
-13.0458
-13.1403
-13.229
-13.312
-13.3896
-13.4621
-13.5295
-13.592
-13.6497
-13.7028
-13.7513
-13.7954
-13.8353
-13.8709
-10.585
-10.6133
-10.6902
-10.7989
-10.9277
-11.0724
-11.2278
-11.3889
-11.5519
-11.714
-11.8729
-12.0271
-12.1755
-12.3175
-12.4526
-12.5805
-12.7014
-12.8151
-12.922
-13.0223
-13.1161
-13.2037
-13.2854
-13.3615
-13.4322
-13.4977
-13.5582
-13.6139
-13.665
-13.7117
-13.7541
-13.7927
-13.8274
-10.5261
-10.5547
-10.6327
-10.7432
-10.8745
-11.0222
-11.1813
-11.3465
-11.5137
-11.6799
-11.8429
-12.0009
-12.1527
-12.2975
-12.4349
-12.5647
-12.6869
-12.8015
-12.9088
-13.0089
-13.1022
-13.189
-13.2695
-13.3442
-13.4132
-13.4768
-13.5354
-13.5892
-13.6384
-13.6833
-13.7242
-13.7612
-13.7947
-10.4465
-10.4763
-10.5573
-10.672
-10.808
-10.9609
-11.1255
-11.2962
-11.4687
-11.64
-11.8077
-11.9699
-12.1254
-12.2733
-12.4133
-12.5451
-12.6686
-12.784
-12.8916
-12.9915
-13.0842
-13.17
-13.2492
-13.3223
-13.3895
-13.4512
-13.5077
-13.5594
-13.6066
-13.6495
-13.6886
-13.7241
-13.7563
-10.3438
-10.3757
-10.4626
-10.5852
-10.7302
-10.8927
-11.0671
-11.2473
-11.4287
-11.6082
-11.783
-11.9515
-12.1122
-12.2645
-12.4079
-12.5423
-12.6676
-12.7842
-12.8922
-12.9921
-13.0842
-13.169
-13.2469
-13.3183
-13.3836
-13.4433
-13.4977
-13.5472
-13.5922
-13.6329
-13.6699
-13.7033
-13.7335
-10.2145
-10.2493
-10.344
-10.4767
-10.6324
-10.8058
-10.9911
-11.1817
-11.373
-11.5615
-11.7445
-11.9201
-12.0869
-12.2442
-12.3916
-12.529
-12.6565
-12.7744
-12.883
-12.9828
-13.0744
-13.1581
-13.2345
-13.3041
-13.3674
-13.4248
-13.4768
-13.5238
-13.5663
-13.6047
-13.6393
-13.6706
-13.699
-10.0545
-10.0946
-10.203
-10.3537
-10.5285
-10.7211
-10.9247
-11.1321
-11.338
-11.5392
-11.7329
-11.9173
-12.0913
-12.2543
-12.4061
-12.5467
-12.6763
-12.7954
-12.9044
-13.004
-13.0946
-13.177
-13.2516
-13.319
-13.3799
-13.4346
-13.4838
-13.528
-13.5675
-13.6028
-13.6343
-13.6625
-13.6876
-9.85634
-9.90119
-10.0236
-10.1914
-10.3839
-10.5951
-10.8175
-11.043
-11.2659
-11.4824
-11.6896
-11.8856
-12.0693
-12.24
-12.3978
-12.5428
-12.6755
-12.7964
-12.9063
-13.0057
-13.0956
-13.1765
-13.2492
-13.3143
-13.3725
-13.4244
-13.4706
-13.5116
-13.5479
-13.58
-13.6085
-13.6338
-13.6563
-9.61494
-9.67443
-9.82954
-10.0354
-10.2637
-10.5072
-10.758
-11.0075
-11.2503
-11.4833
-11.7041
-11.911
-12.1032
-12.2807
-12.4434
-12.5919
-12.7267
-12.8486
-12.9584
-13.057
-13.1453
-13.2239
-13.2939
-13.3558
-13.4105
-13.4586
-13.5007
-13.5374
-13.5693
-13.597
-13.6208
-13.6413
-13.6589
-9.30811
-9.37003
-9.54515
-9.77771
-10.0366
-10.3151
-10.6018
-10.8848
-11.1578
-11.4169
-11.6596
-11.8843
-12.0907
-12.2789
-12.4495
-12.6034
-12.7417
-12.8654
-12.9757
-13.0736
-13.1604
-13.2369
-13.3041
-13.3629
-13.4142
-13.4585
-13.4968
-13.5295
-13.5573
-13.5808
-13.6006
-13.6172
-13.6312
-8.94624
-9.06344
-9.3241
-9.6279
-9.93793
-10.2571
-10.5768
-10.8863
-11.1812
-11.4587
-11.7168
-11.9542
-12.1707
-12.3668
-12.543
-12.7006
-12.8408
-12.9647
-13.0739
-13.1696
-13.253
-13.3255
-13.3879
-13.4415
-13.487
-13.5254
-13.5574
-13.5836
-13.6047
-13.6213
-13.6341
-13.6435
-13.6501
-8.41666
-8.50771
-8.80603
-9.17762
-9.56853
-9.97135
-10.3656
-10.7373
-11.083
-11.4007
-11.6893
-11.9493
-12.1821
-12.3895
-12.5733
-12.7355
-12.8779
-13.0025
-13.111
-13.205
-13.286
-13.3554
-13.4145
-13.4642
-13.5056
-13.5396
-13.5669
-13.5882
-13.6042
-13.6155
-13.6226
-13.6265
-13.6279
-7.92141
-8.2438
-8.71174
-9.13077
-9.54117
-9.97012
-10.3893
-10.7853
-11.1564
-11.4989
-11.8099
-12.0889
-12.3369
-12.5552
-12.746
-12.9114
-13.0541
-13.1763
-13.2802
-13.368
-13.4416
-13.5027
-13.5527
-13.5931
-13.625
-13.6492
-13.6667
-13.6781
-13.6839
-13.6846
-13.6805
-13.6725
-13.6608
-6.61889
-6.94074
-7.71398
-8.41388
-9.05069
-9.65752
-10.2023
-10.6848
-11.1154
-11.4979
-11.8356
-12.1329
-12.3935
-12.6208
-12.818
-12.9879
-13.1333
-13.2567
-13.3606
-13.4472
-13.5186
-13.5766
-13.6227
-13.6586
-13.6854
-13.704
-13.7154
-13.72
-13.7182
-13.71
-13.6949
-13.6742
-13.6434
-6.60655
-7.35173
-7.95679
-8.42464
-9.02567
-9.66028
-10.2518
-10.8027
-11.3068
-11.7535
-12.1419
-12.4754
-12.7583
-12.9955
-13.1922
-13.3538
-13.485
-13.5903
-13.6735
-13.738
-13.7869
-13.8225
-13.847
-13.8623
-13.8698
-13.8706
-13.8657
-13.8555
-13.8399
-13.8181
-13.7873
-13.7446
-13.6759
-0.356295
-4.9644
-6.74923
-7.60088
-8.60416
-9.48144
-10.1832
-10.7922
-11.3248
-11.7814
-12.1709
-12.5017
-12.7801
-13.0124
-13.2046
-13.3619
-13.4895
-13.5915
-13.6719
-13.7339
-13.7805
-13.8141
-13.8369
-13.8506
-13.8568
-13.8568
-13.8516
-13.842
-13.8292
-13.8128
-13.7954
-13.7722
-13.7545
-14.2376
-16.1023
-19.7598
-22.5666
-23.5982
-23.076
-21.666
-19.5915
-16.415
-11.789
-6.29728
-1.33838
1.77878
2.51082
0.712945
-3.31017
-8.91264
-15.5154
-22.5079
-29.3757
-35.8184
-41.7123
-46.989
-51.5201
-55.0693
-57.3289
-58.0202
-56.9788
-54.2831
-50.239
-45.2465
-39.6195
-33.5889
-27.4471
-21.6026
-16.4283
-12.0937
-8.57751
-5.77466
-3.56837
-1.85313
-0.537073
0.458361
1.19874
1.73766
2.11838
2.37559
2.53697
2.62451
2.65566
2.64423
2.60121
2.53532
2.45356
2.36148
2.26349
2.16303
2.06274
1.96455
1.86983
1.77951
1.69415
1.61404
1.53924
1.46969
1.4052
1.34548
1.29017
1.23883
1.19095
1.146
1.10342
1.06272
1.02344
0.985196
0.947688
0.910679
0.873986
0.837469
0.801019
0.764557
0.728023
0.691374
0.654573
0.617588
0.580383
0.542919
0.505183
0.467117
0.42872
0.389924
0.350775
0.311105
0.271208
0.230365
0.190063
0.147017
0.108216
0.0587139
0.030471
-14.6077
-16.2029
-19.4756
-22.0972
-23.0987
-22.6254
-21.2351
-19.1214
-15.9567
-11.5326
-6.41801
-1.82487
1.07587
1.67503
0.0081322
-3.72154
-8.97897
-15.1505
-21.7276
-28.2657
-34.4519
-40.1182
-45.16
-49.4406
-52.7472
-54.8179
-55.4096
-54.3979
-51.8773
-48.1206
-43.4406
-38.0891
-32.3145
-26.4671
-20.9658
-16.1206
-12.0404
-8.69226
-5.98954
-3.83721
-2.14568
-0.833755
0.169816
0.925553
1.48368
1.88529
2.16371
2.34579
2.45304
2.50267
2.50839
2.48115
2.42973
2.36113
2.28098
2.19373
2.10288
2.01113
1.92047
1.83237
1.74782
1.66747
1.59167
1.52057
1.45417
1.39234
1.33487
1.28144
1.23167
1.18511
1.14125
1.09959
1.05965
1.02101
0.983291
0.946222
0.909577
0.873181
0.836905
0.800646
0.764333
0.727911
0.691343
0.654596
0.617649
0.580461
0.543009
0.505271
0.467199
0.428789
0.389984
0.350821
0.311134
0.271225
0.230356
0.190058
0.146974
0.108207
0.0586524
0.0304649
-14.9833
-16.5214
-19.2657
-21.4837
-22.3149
-21.8657
-20.5265
-18.4284
-15.3761
-11.3174
-6.79262
-2.7989
-0.25418
0.357574
-1.15502
-4.54684
-9.36281
-15.0608
-21.1467
-27.2496
-33.0887
-38.4683
-43.2453
-47.2679
-50.3348
-52.2192
-52.7218
-51.7643
-49.4424
-45.9662
-41.5643
-36.4645
-30.9627
-25.4556
-20.3304
-15.8189
-11.9852
-8.79912
-6.1951
-4.09811
-2.43267
-1.1273
-0.117706
0.651706
1.2278
1.64945
1.94854
2.15102
2.27787
2.34599
2.36896
2.35767
2.32091
2.2657
2.1977
2.12142
2.0404
1.95741
1.8745
1.79322
1.71463
1.63945
1.56812
1.50086
1.43773
1.37867
1.32353
1.27206
1.22394
1.17876
1.13607
1.09539
1.05627
1.01832
0.98118
0.944594
0.908351
0.872286
0.83628
0.800239
0.764098
0.727809
0.691341
0.654667
0.617769
0.580613
0.54318
0.505448
0.467376
0.428959
0.390143
0.350967
0.311262
0.271343
0.23045
0.190152
0.147032
0.108293
0.0586913
0.030537
-15.3119
-16.6213
-18.7565
-20.5305
-21.2153
-20.801
-19.5382
-17.5472
-14.7643
-11.2443
-7.44421
-4.12049
-1.97257
-1.41871
-2.68014
-5.66951
-9.99765
-15.1846
-20.7706
-26.3927
-31.8024
-36.8177
-41.2797
-45.0226
-47.8452
-49.5551
-50.0058
-49.1424
-47.023
-43.7825
-39.6063
-34.7506
-29.5674
-24.4521
-19.7184
-15.5286
-11.9269
-8.89579
-6.38968
-4.34998
-2.71323
-1.41692
-0.403489
0.377838
0.97057
1.41131
1.73044
1.95295
2.09921
2.18579
2.22607
2.23087
2.20894
2.16732
2.11169
2.0466
1.97565
1.90163
1.82669
1.75242
1.67998
1.61016
1.54346
1.48018
1.42046
1.3643
1.31161
1.26221
1.21583
1.17211
1.13065
1.09101
1.05276
1.01553
0.979
0.942915
0.907083
0.871355
0.835622
0.799797
0.763824
0.727663
0.691289
0.65468
0.617825
0.580695
0.543275
0.505545
0.467469
0.429044
0.390211
0.351027
0.311304
0.271373
0.230458
0.190158
0.147006
0.108289
0.0586508
0.0305253
-15.527
-16.5751
-18.1369
-19.439
-19.9223
-19.52
-18.3859
-16.6171
-14.2194
-11.2933
-8.20773
-5.53303
-3.80983
-3.37229
-4.41735
-6.95291
-10.7564
-15.4236
-20.5195
-25.6843
-30.6617
-35.2749
-39.3756
-42.8057
-45.3875
-46.9626
-47.3898
-46.6051
-44.62
-41.535
-37.5533
-32.9787
-28.1767
-23.4848
-19.1355
-15.2479
-11.8642
-8.98237
-6.57354
-4.59268
-2.98689
-1.70205
-0.686961
0.104473
0.712444
1.17125
1.50973
1.75183
1.91727
2.02222
2.07984
2.10082
2.09387
2.06603
2.02297
1.96928
1.9086
1.84377
1.777
1.70994
1.64384
1.57954
1.51763
1.45848
1.40229
1.34913
1.29899
1.25175
1.20718
1.165
1.12484
1.08629
1.04897
1.01252
0.976634
0.941088
0.905702
0.870338
0.834902
0.799314
0.763529
0.727513
0.691248
0.654719
0.617919
0.580827
0.543429
0.505709
0.467635
0.429206
0.390363
0.351168
0.311428
0.271486
0.230549
0.190245
0.147065
0.108364
0.058692
0.0305771
-15.6113
-16.4112
-17.5034
-18.4282
-18.7528
-18.3882
-17.4099
-15.8867
-13.8582
-11.4422
-8.93862
-6.78806
-5.42866
-5.14307
-6.07442
-8.24144
-11.5247
-15.6526
-20.262
-24.9998
-29.5922
-33.8457
-37.6099
-40.7458
-43.1092
-44.544
-44.8956
-44.0924
-42.1462
-39.1803
-35.4325
-31.2142
-26.8421
-22.574
-18.5845
-14.9754
-11.7962
-9.05844
-6.7463
-4.82568
-3.25308
-1.98207
-0.967508
-0.167807
0.453947
0.929738
1.28679
1.54797
1.73229
1.85547
1.93041
1.96765
1.97581
1.96189
1.9316
1.88951
1.8393
1.78387
1.72547
1.66582
1.60623
1.54763
1.49066
1.43578
1.38326
1.33323
1.28575
1.24076
1.19811
1.15754
1.11875
1.08136
1.04501
1.00937
0.974173
0.939191
0.904268
0.869281
0.834148
0.798801
0.763204
0.72733
0.691172
0.654718
0.617968
0.580907
0.543526
0.505812
0.467736
0.4293
0.390446
0.351239
0.311482
0.271528
0.23057
0.190262
0.147055
0.108365
0.0586687
0.0305592
-15.5917
-16.2156
-17.0036
-17.6538
-17.8565
-17.5135
-16.6578
-15.3434
-13.6266
-11.6272
-9.59111
-7.8639
-6.79509
-6.62337
-7.48045
-9.37999
-12.226
-15.826
-19.9166
-24.2054
-28.4225
-32.3527
-35.8276
-38.7043
-40.8356
-42.0729
-42.2854
-41.4232
-39.5309
-36.758
-33.3378
-29.5358
-25.5983
-21.7244
-18.0613
-14.7083
-11.7222
-9.12427
-6.90807
-5.04881
-3.51138
-2.25646
-1.24457
-0.438461
0.195574
0.687194
1.06198
1.34167
1.54452
1.68575
1.77795
1.83147
1.85483
1.855
1.83763
1.80733
1.76779
1.72195
1.67211
1.62006
1.56716
1.51442
1.46256
1.41208
1.36335
1.31656
1.27184
1.22919
1.18852
1.14964
1.11228
1.07611
1.04079
1.00602
0.971543
0.937161
0.902731
0.868146
0.833336
0.798248
0.762854
0.727137
0.691097
0.65473
0.618042
0.581022
0.543667
0.505966
0.467894
0.429456
0.390593
0.351376
0.311603
0.271638
0.23066
0.190346
0.147115
0.108432
0.0587139
0.0305942
-15.5228
-16.0111
-16.5756
-17.0178
-17.121
-16.7957
-16.0518
-14.9308
-13.4918
-11.8477
-10.2012
-8.82501
-7.99613
-7.91572
-8.70184
-10.3713
-12.8466
-15.9728
-19.5445
-23.3336
-27.113
-30.6742
-33.8362
-36.4305
-38.3067
-39.3498
-39.4678
-38.6325
-36.9039
-34.4223
-31.3819
-27.993
-24.4524
-20.9297
-17.5612
-14.4453
-11.6427
-9.18021
-7.05892
-5.26186
-3.76142
-2.52474
-1.51761
-0.706949
-0.0621684
0.444076
0.835701
1.13327
1.35424
1.51328
1.62263
1.69244
1.73108
1.74543
1.74115
1.72281
1.69413
1.65807
1.61698
1.57271
1.52667
1.47995
1.43333
1.38741
1.34259
1.29916
1.2573
1.21708
1.17848
1.14137
1.10551
1.07061
1.03638
1.00252
0.968804
0.935051
0.901135
0.866967
0.832491
0.797667
0.762479
0.726919
0.690996
0.654713
0.618082
0.5811
0.543765
0.506073
0.468002
0.429558
0.390685
0.351456
0.311668
0.271689
0.230692
0.19037
0.147118
0.108436
0.0587044
0.0305695
-15.4158
-15.7949
-16.1987
-16.4934
-16.5273
-16.2238
-15.5806
-14.6304
-13.4312
-12.0862
-10.7628
-9.67773
-9.05118
-9.05041
-9.77594
-11.2469
-13.4034
-16.1194
-19.224
-22.5269
-25.8384
-28.9767
-31.7725
-34.0628
-35.7161
-36.6292
-36.728
-35.994
-34.4801
-32.3012
-29.6129
-26.587
-23.392
-20.181
-17.0809
-14.1864
-11.5582
-9.22681
-7.19907
-5.46479
-4.00292
-2.78647
-1.78615
-0.972767
-0.318797
0.200827
0.608342
0.923108
1.16173
1.3383
1.46467
1.55072
1.60468
1.63332
1.64225
1.63603
1.61837
1.59227
1.56011
1.52379
1.48478
1.44424
1.40301
1.36177
1.32098
1.28101
1.2421
1.20441
1.16796
1.13267
1.09838
1.06482
1.03172
0.998826
0.965912
0.932823
0.899449
0.86572
0.831597
0.797051
0.762082
0.72669
0.690894
0.654704
0.61814
0.581202
0.543896
0.50622
0.468154
0.42971
0.39083
0.351591
0.311789
0.2718
0.230784
0.190454
0.147182
0.108498
0.0587551
0.030591
-15.2906
-15.5842
-15.8715
-16.0599
-16.0434
-15.7616
-15.2079
-14.4095
-13.4199
-12.3299
-11.277
-10.434
-9.9761
-10.0412
-10.7144
-12.0158
-13.8999
-16.2644
-18.9669
-21.845
-24.7333
-27.4732
-29.916
-31.9281
-33.3904
-34.1974
-34.2879
-33.6496
-32.3238
-30.4016
-28.0099
-25.2942
-22.4026
-19.4724
-16.6195
-13.9322
-11.4696
-9.26463
-7.32882
-5.65761
-4.23568
-3.04132
-2.04973
-1.23544
-0.573842
-0.0421134
0.380303
0.711534
0.967303
1.16108
1.30428
1.40651
1.47579
1.5188
1.54106
1.5471
1.54062
1.52464
1.50158
1.47337
1.44156
1.40733
1.37164
1.3352
1.29856
1.26216
1.2263
1.19121
1.15699
1.12361
1.09094
1.05878
1.02687
0.994979
0.962906
0.930511
0.897704
0.864431
0.830671
0.796411
0.761664
0.726441
0.690772
0.654673
0.618171
0.581276
0.543994
0.506329
0.468266
0.429817
0.390929
0.351678
0.311861
0.271858
0.230825
0.190484
0.147195
0.108504
0.0587564
0.0305585
-15.1562
-15.3821
-15.5843
-15.698
-15.6497
-15.3933
-14.9218
-14.2576
-13.4485
-12.573
-11.7442
-11.1004
-10.7812
-10.8997
-11.5271
-12.6827
-14.332
-16.3929
-18.7477
-21.2588
-23.7825
-26.1787
-28.3171
-30.0792
-31.3556
-32.0561
-32.1301
-31.5647
-30.3903
-28.6802
-26.5408
-24.0965
-21.4766
-18.8021
-16.1771
-13.6832
-11.3775
-9.2943
-7.44855
-5.84044
-4.4596
-3.289
-2.30798
-1.49454
-0.826863
-0.284319
0.151977
0.498903
0.771268
0.981881
1.1417
1.26
1.3446
1.40203
1.43771
1.45613
1.46098
1.45528
1.44147
1.42153
1.39705
1.36929
1.33925
1.30773
1.27535
1.24261
1.20989
1.17749
1.14556
1.11415
1.08318
1.05247
1.0218
0.990957
0.959766
0.928098
0.895884
0.863088
0.829707
0.795746
0.761231
0.726186
0.69065
0.65465
0.618219
0.581371
0.54412
0.506473
0.468417
0.429969
0.391075
0.351815
0.311985
0.271971
0.230922
0.19057
0.147266
0.108564
0.0588146
0.03057
-15.0202
-15.1935
-15.3345
-15.3974
-15.3309
-15.1015
-14.7034
-14.156
-13.5014
-12.8065
-12.1637
-11.6839
-11.4784
-11.6392
-12.2251
-13.2538
-14.6991
-16.4952
-18.5452
-20.733
-22.935
-25.0279
-26.8952
-28.4294
-29.537
-30.141
-30.1949
-29.685
-28.6355
-27.1069
-25.1884
-22.9859
-20.6106
-18.1687
-15.7536
-13.4402
-11.2829
-9.31652
-7.55876
-6.01352
-4.67468
-3.52933
-2.5606
-1.74969
-1.07745
-0.525385
-0.0762486
0.285573
0.573949
0.801
0.977183
1.11143
1.21131
1.28317
1.33235
1.36327
1.37958
1.38429
1.37988
1.36835
1.35134
1.33017
1.30592
1.27943
1.25141
1.22242
1.19292
1.16328
1.13371
1.10434
1.07511
1.04591
1.01653
0.986789
0.956517
0.925608
0.89401
0.861708
0.828716
0.79506
0.76078
0.725914
0.690511
0.654608
0.618244
0.581441
0.544217
0.506583
0.468532
0.43008
0.391178
0.351907
0.312063
0.272035
0.230969
0.190607
0.147286
0.108569
0.0588237
0.0305284
-14.8874
-15.0202
-15.1175
-15.1468
-15.0727
-14.8715
-14.5397
-14.0943
-13.5716
-13.0278
-12.5386
-12.1927
-12.0788
-12.2713
-12.8187
-13.7363
-15.004
-16.5687
-18.3505
-20.2519
-22.1666
-23.9873
-25.6106
-26.9417
-27.8984
-28.4133
-28.4444
-27.9794
-27.0372
-25.6673
-23.9439
-21.9566
-19.8013
-17.571
-15.349
-13.2036
-11.1864
-9.33209
-7.66003
-6.17719
-4.88101
-3.76223
-2.80735
-2.00057
-1.32525
-0.764931
-0.304003
0.0718951
0.375673
0.618733
0.811006
0.961041
1.07613
1.16244
1.22518
1.26868
1.29656
1.31181
1.31692
1.31393
1.30452
1.29007
1.2717
1.25035
1.22677
1.20162
1.17542
1.1486
1.12146
1.09417
1.06675
1.03911
1.01107
0.982471
0.953158
0.92304
0.892084
0.860293
0.827706
0.794364
0.760327
0.725646
0.690382
0.65458
0.618288
0.581535
0.544344
0.506729
0.468686
0.430236
0.391329
0.35205
0.312194
0.272154
0.231075
0.190699
0.147365
0.108631
0.0588912
0.0305327
-14.7607
-14.8629
-14.9298
-14.9384
-14.8645
-14.6919
-14.4193
-14.0618
-13.6504
-13.2323
-12.8691
-12.6318
-12.5909
-12.8062
-13.3173
-14.137
-15.2496
-16.6121
-18.1584
-19.8066
-21.4661
-23.0436
-24.4484
-25.5976
-26.418
-26.851
-26.8597
-26.4318
-25.582
-24.3504
-22.7987
-21.0031
-19.0456
-17.0076
-14.963
-12.9741
-11.0891
-9.34187
-7.75303
-6.33187
-5.07878
-3.98767
-3.04807
-2.24692
-1.56994
-1.00261
-0.530933
-0.141786
0.176766
0.435387
0.643451
0.809094
0.939311
1.04006
1.11639
1.17255
1.21209
1.238
1.25275
1.25842
1.25672
1.24908
1.23669
1.22056
1.20152
1.18027
1.15743
1.1335
1.10884
1.08369
1.05813
1.03209
1.00544
0.978025
0.949707
0.92041
0.890116
0.858853
0.826677
0.793654
0.759861
0.725364
0.690236
0.654533
0.61831
0.581603
0.544439
0.506839
0.468801
0.430349
0.391434
0.352144
0.312275
0.272221
0.231126
0.190734
0.14739
0.108635
0.0589063
0.0304804
-14.6421
-14.7217
-14.7682
-14.7653
-14.6969
-14.5524
-14.3324
-14.0504
-13.7328
-13.4188
-13.1583
-13.0081
-13.0242
-13.2544
-13.7306
-14.4633
-15.44
-16.6255
-17.9652
-19.3904
-20.8237
-22.1849
-23.3948
-24.3808
-25.0786
-25.4373
-25.4237
-25.0262
-24.2557
-23.1448
-21.7449
-20.12
-18.3406
-16.4774
-14.5959
-12.7524
-10.9918
-9.34679
-7.83855
-6.47811
-5.26832
-4.20578
-3.28272
-2.48857
-1.81126
-1.23813
-0.756718
-0.355143
-0.022447
0.251274
0.474813
0.655871
0.801115
0.91627
1.00622
1.07509
1.12638
1.16303
1.18753
1.20195
1.20805
1.20732
1.201
1.19016
1.17571
1.15844
1.13901
1.11801
1.09589
1.07293
1.04926
1.02487
0.999657
0.973466
0.94618
0.917734
0.888127
0.857406
0.825654
0.792957
0.759412
0.725103
0.690114
0.654513
0.618363
0.581706
0.544575
0.506994
0.468964
0.430514
0.391595
0.352297
0.312418
0.272351
0.231244
0.190836
0.147483
0.108702
0.0589854
0.0304798
-14.5323
-14.5956
-14.6291
-14.6214
-14.562
-14.4445
-14.2708
-14.0531
-13.8138
-13.5851
-13.4075
-13.3262
-13.3859
-13.6243
-14.0667
-14.7217
-15.5788
-16.6092
-17.7677
-18.9965
-20.2301
-21.3994
-22.436
-23.2765
-23.8646
-24.1558
-24.1208
-23.7484
-23.0464
-22.0412
-20.7754
-19.3027
-17.6836
-15.9793
-14.2476
-12.5392
-10.8955
-9.34785
-7.91743
-6.61656
-5.45003
-4.41675
-3.51132
-2.72543
-2.04902
-1.47124
-0.981068
-0.567868
-0.221653
0.066706
0.3054
0.501666
0.661826
0.791343
0.894911
0.976541
1.03964
1.08712
1.12144
1.1447
1.15868
1.16493
1.16474
1.15926
1.14946
1.13619
1.12022
1.1022
1.08264
1.06191
1.04018
1.01748
0.993737
0.968811
0.94259
0.91502
0.886117
0.855948
0.824623
0.792251
0.758952
0.724826
0.689972
0.654468
0.618385
0.581773
0.544669
0.507103
0.469078
0.430625
0.391699
0.35239
0.312499
0.272417
0.231297
0.190871
0.14751
0.108699
0.0590028
0.030415
-14.432
-14.4842
-14.51
-14.5021
-14.4537
-14.3613
-14.2281
-14.0648
-13.8903
-13.7311
-13.6198
-13.5925
-13.6843
-13.925
-14.3346
-14.9196
-15.6713
-16.5656
-17.5652
-18.6215
-19.6791
-20.6787
-21.5617
-22.2726
-22.7627
-22.9932
-22.938
-22.5863
-21.9436
-21.0311
-19.8839
-18.5472
-17.0724
-15.5124
-13.9182
-12.3351
-10.8013
-9.34608
-7.9906
-6.74795
-5.62444
-4.62091
-3.73402
-2.95748
-2.28312
-1.70173
-1.20374
-0.77968
-0.42055
-0.118006
0.135524
0.346793
0.521748
0.665575
0.782764
0.87718
0.952144
1.0105
1.05471
1.08687
1.10879
1.12207
1.12806
1.12797
1.12285
1.11363
1.10115
1.08613
1.06916
1.05068
1.03092
1.00995
0.987717
0.964094
0.938974
0.912309
0.884129
0.854527
0.823635
0.791593
0.75854
0.724598
0.68988
0.654475
0.618461
0.581897
0.544823
0.507275
0.469258
0.430806
0.391876
0.352559
0.312658
0.272562
0.231431
0.190986
0.147619
0.108775
0.0590981
0.0304115
-14.3406
-14.3853
-14.4075
-14.4022
-14.3657
-14.2965
-14.1982
-14.0805
-13.9591
-13.8558
-13.7967
-13.8106
-13.925
-14.1632
-14.5409
-15.0626
-15.7208
-16.4958
-17.356
-18.261
-19.1639
-20.0141
-20.7613
-21.3576
-21.7608
-21.937
-21.863
-21.5288
-20.9377
-20.1068
-19.0647
-17.8495
-16.5046
-15.0759
-13.6079
-12.141
-10.71
-9.34257
-8.05908
-6.87313
-5.7922
-4.8187
-3.95107
-3.18484
-2.51353
-1.9295
-1.42454
-0.990334
-0.618858
-0.302556
-0.0344937
0.191576
0.381209
0.53929
0.670086
0.777306
0.864165
0.93345
0.987585
1.02868
1.05858
1.07892
1.09112
1.09644
1.09602
1.09086
1.08187
1.06986
1.0555
1.03928
1.02152
1.00231
0.981615
0.959326
0.935334
0.909593
0.882147
0.853112
0.82265
0.79093
0.758115
0.724348
0.689756
0.654441
0.61849
0.581967
0.544918
0.507382
0.469369
0.430914
0.391977
0.352649
0.312736
0.272625
0.231483
0.191017
0.147646
0.108764
0.0591168
0.0303296
-14.2584
-14.2986
-14.3198
-14.3191
-14.2945
-14.246
-14.1776
-14.0975
-14.0193
-13.9604
-13.9418
-13.9863
-14.1154
-14.3473
-14.6937
-15.158
-15.7334
-16.4033
-17.1415
-17.914
-18.681
-19.3999
-20.0276
-20.5228
-20.8491
-20.9769
-20.8858
-20.5663
-20.0204
-19.2613
-18.3127
-17.2061
-15.9784
-14.6691
-13.3168
-11.9576
-10.6229
-9.33849
-8.12397
-6.99306
-5.95407
-5.01068
-4.16285
-3.4077
-2.74031
-2.15449
-1.64332
-1.19962
-0.816318
-0.486647
-0.20433
0.036358
0.240559
0.41284
0.557227
0.677258
0.776032
0.856267
0.920356
0.970411
1.00831
1.03571
1.05411
1.06485
1.06911
1.068
1.0625
1.05349
1.04173
1.02779
1.01203
0.994606
0.975489
0.954572
0.931741
0.90695
0.880255
0.851796
0.821766
0.790365
0.757786
0.72419
0.689722
0.654496
0.618607
0.582125
0.545103
0.507581
0.469574
0.431118
0.392176
0.352839
0.312916
0.272791
0.231638
0.19115
0.147777
0.108851
0.0592318
0.0303233
-14.1836
-14.2213
-14.2433
-14.248
-14.2348
-14.2045
-14.1611
-14.1119
-14.0681
-14.0439
-14.0561
-14.1223
-14.2597
-14.482
-14.7981
-15.2099
-15.7117
-16.2892
-16.9205
-17.5771
-18.2254
-18.8295
-19.3524
-19.7589
-20.0176
-20.1028
-19.9966
-19.69
-19.1837
-18.4883
-17.6229
-16.6137
-15.4918
-14.291
-13.0449
-11.7855
-10.5409
-9.335
-8.18643
-7.10879
-6.11093
-5.19755
-4.36986
-3.6264
-2.96365
-2.37676
-1.86003
-1.4074
-1.0127
-0.669998
-0.373661
-0.118508
0.100172
0.286606
0.444569
0.57741
0.688103
0.779291
0.853332
0.912336
0.958205
0.992653
1.01723
1.03334
1.04227
1.04517
1.04313
1.03711
1.02793
1.01626
1.00251
0.986869
0.969347
0.949823
0.928173
0.904342
0.878397
0.850504
0.820891
0.789793
0.757431
0.723991
0.689634
0.654486
0.618648
0.5822
0.545197
0.507684
0.469679
0.431219
0.39227
0.352922
0.312989
0.272848
0.231686
0.191175
0.147803
0.108828
0.0592524
0.0302205
-14.1171