/*--------------------------------*- C++ -*----------------------------------*\
| =========                 |                                                 |
| \\      /  F ield         | OpenFOAM: The Open Source CFD Toolbox           |
|  \\    /   O peration     | Version:  2.1.1                                 |
|   \\  /    A nd           | Web:      www.OpenFOAM.org                      |
|    \\/     M anipulation  |                                                 |
\*---------------------------------------------------------------------------*/
FoamFile
{
    version     2.0;
    format      ascii;
    class       surfaceScalarField;
    location    "0.05";
    object      phi;
}
// * * * * * * * * * * * * * * * * * * * * * * * * * * * * * * * * * * * * * //

dimensions      [0 3 -1 0 0 0 0];

internalField   nonuniform List<scalar> 
13452
(
4.59975e-05
2.24897e-05
2.96602e-05
1.63373e-05
2.11811e-05
8.47915e-06
1.72763e-05
3.90482e-06
1.56298e-05
1.64643e-06
1.4817e-05
8.12796e-07
1.43012e-05
5.1583e-07
1.39054e-05
3.9577e-07
1.35696e-05
3.35786e-07
1.32784e-05
2.91271e-07
1.3027e-05
2.51374e-07
1.28116e-05
2.15424e-07
1.26278e-05
1.83823e-07
1.24711e-05
1.56626e-07
1.23377e-05
1.3346e-07
1.22239e-05
1.13752e-07
1.2127e-05
9.69228e-08
1.20445e-05
8.24743e-08
1.19745e-05
7.00147e-08
1.19152e-05
5.92602e-08
1.18652e-05
5.00298e-08
1.1823e-05
4.22428e-08
1.17871e-05
3.59211e-08
1.17558e-05
3.12147e-08
1.17274e-05
2.84094e-08
1.16993e-05
2.80993e-08
1.16684e-05
3.09666e-08
1.16291e-05
3.92623e-08
1.15759e-05
5.32116e-08
1.14886e-05
8.73271e-08
1.13656e-05
1.2298e-07
1.10543e-05
3.11286e-07
2.39841e-07
1.08145e-05
7.49119e-05
1.80218e-05
7.04091e-05
2.08401e-05
6.33155e-05
1.55727e-05
5.6656e-05
1.05643e-05
5.15343e-05
6.7681e-06
4.78734e-05
4.47372e-06
4.52473e-05
3.14193e-06
4.3314e-05
2.32912e-06
4.18403e-05
1.8095e-06
4.06764e-05
1.45519e-06
3.973e-05
1.19777e-06
3.89432e-05
1.0022e-06
3.82782e-05
8.48841e-07
3.77091e-05
7.25679e-07
3.72177e-05
6.24848e-07
3.67905e-05
5.40939e-07
3.64173e-05
4.70118e-07
3.60902e-05
4.0963e-07
3.58027e-05
3.57484e-07
3.55497e-05
3.12254e-07
3.53268e-05
2.72949e-07
3.51301e-05
2.38936e-07
3.49561e-05
2.09905e-07
3.48015e-05
1.85876e-07
3.46626e-05
1.67245e-07
3.45358e-05
1.54946e-07
3.44162e-05
1.50527e-07
3.42983e-05
1.5723e-07
3.41728e-05
1.78698e-07
3.40311e-05
2.28973e-07
3.38448e-05
3.09252e-07
3.36498e-05
5.06351e-07
7.43938e-07
3.31457e-05
7.85209e-05
1.19574e-05
8.23332e-05
1.70278e-05
8.29884e-05
1.49175e-05
8.14686e-05
1.20842e-05
7.89401e-05
9.2966e-06
7.62468e-05
7.16704e-06
7.37203e-05
5.66838e-06
7.14641e-05
4.58527e-06
6.94917e-05
3.78198e-06
6.77784e-05
3.16843e-06
6.62912e-05
2.685e-06
6.4998e-05
2.29537e-06
6.38705e-05
1.97633e-06
6.28845e-05
1.71176e-06
6.20194e-05
1.48995e-06
6.12581e-05
1.30218e-06
6.05864e-05
1.14183e-06
5.99922e-05
1.00383e-06
5.94654e-05
8.843e-07
5.89974e-05
7.80257e-07
5.85809e-05
6.89474e-07
5.82095e-05
6.1035e-07
5.78775e-05
5.41855e-07
5.75799e-05
4.83522e-07
5.73116e-05
4.35495e-07
5.70679e-05
3.98696e-07
5.68434e-05
3.74989e-07
5.66326e-05
3.68049e-07
5.64282e-05
3.83044e-07
5.62249e-05
4.32299e-07
5.60088e-05
5.25308e-07
5.58032e-05
7.12005e-07
9.77823e-07
5.55693e-05
7.81464e-05
8.33763e-06
8.19221e-05
1.32522e-05
8.46169e-05
1.22227e-05
8.62376e-05
1.04635e-05
8.69129e-05
8.62125e-06
8.69955e-05
7.08445e-06
8.67277e-05
5.9362e-06
8.62518e-05
5.0612e-06
8.56593e-05
4.37447e-06
8.5006e-05
3.82167e-06
8.43267e-05
3.36433e-06
8.3644e-05
2.97805e-06
8.29737e-05
2.6466e-06
8.23267e-05
2.35881e-06
8.17094e-05
2.10721e-06
8.11257e-05
1.88594e-06
8.05772e-05
1.69029e-06
8.00645e-05
1.5165e-06
7.95873e-05
1.36156e-06
7.91444e-05
1.22313e-06
7.87345e-05
1.09937e-06
7.83559e-05
9.88981e-07
7.80066e-05
8.91153e-07
7.76845e-05
8.05605e-07
7.73873e-05
7.3266e-07
7.71126e-05
6.73422e-07
7.68576e-05
6.29946e-07
7.66198e-05
6.05862e-07
7.63966e-05
6.06275e-07
7.61883e-05
6.40639e-07
7.5996e-05
7.17523e-07
7.58467e-05
8.61399e-07
1.06344e-06
7.5761e-05
7.89912e-05
6.00231e-06
8.15899e-05
1.06535e-05
8.35156e-05
1.0297e-05
8.49581e-05
9.0209e-06
8.59749e-05
7.60453e-06
8.67142e-05
6.3451e-06
8.72783e-05
5.37211e-06
8.77149e-05
4.62455e-06
8.80555e-05
4.0339e-06
8.83211e-05
3.5561e-06
8.85259e-05
3.15951e-06
8.86811e-05
2.82288e-06
8.87946e-05
2.53313e-06
8.88724e-05
2.28098e-06
8.89207e-05
2.05892e-06
8.8945e-05
1.86159e-06
8.89503e-05
1.68503e-06
8.89406e-05
1.52619e-06
8.89195e-05
1.38271e-06
8.88898e-05
1.25279e-06
8.88541e-05
1.13509e-06
8.88143e-05
1.02872e-06
8.87723e-05
9.33223e-07
8.87293e-05
8.48577e-07
8.86867e-05
7.75291e-07
8.86456e-05
7.14516e-07
8.86074e-05
6.68137e-07
8.85741e-05
6.39126e-07
8.85491e-05
6.31267e-07
8.85395e-05
6.50302e-07
8.85569e-05
7.00059e-07
8.86299e-05
7.88382e-07
8.97222e-07
8.87962e-05
8.04628e-05
4.38542e-06
8.2504e-05
8.61233e-06
8.39884e-05
8.81252e-06
8.50458e-05
7.96353e-06
8.57661e-05
6.88422e-06
8.62779e-05
5.83326e-06
8.66826e-05
4.96741e-06
8.70274e-05
4.2798e-06
8.73353e-05
3.72594e-06
8.7618e-05
3.27343e-06
8.78803e-05
2.89718e-06
8.81248e-05
2.57846e-06
8.83535e-05
2.30439e-06
8.85684e-05
2.06603e-06
8.87706e-05
1.85676e-06
8.89607e-05
1.67145e-06
8.91396e-05
1.50619e-06
8.93079e-05
1.3579e-06
8.94664e-05
1.22421e-06
8.96158e-05
1.10331e-06
8.97571e-05
9.93832e-07
8.9891e-05
8.94835e-07
9.00184e-05
8.05768e-07
9.01406e-05
7.2647e-07
9.02587e-05
6.57188e-07
9.03745e-05
5.98625e-07
9.04908e-05
5.51908e-07
9.06112e-05
5.18704e-07
9.07418e-05
5.00675e-07
9.08922e-05
4.99842e-07
9.10774e-05
5.14923e-07
9.13218e-05
5.43992e-07
5.64544e-07
9.16545e-05
8.22338e-05
3.25014e-06
8.38931e-05
6.95304e-06
8.51792e-05
7.52641e-06
8.61108e-05
7.03194e-06
8.67501e-05
6.24493e-06
8.71872e-05
5.39618e-06
8.75099e-05
4.64472e-06
8.77675e-05
4.02215e-06
8.79868e-05
3.50668e-06
8.81831e-05
3.07716e-06
8.83645e-05
2.71573e-06
8.85354e-05
2.40752e-06
8.86983e-05
2.14153e-06
8.88546e-05
1.90974e-06
8.90053e-05
1.70605e-06
8.91511e-05
1.52571e-06
8.92923e-05
1.36498e-06
8.94292e-05
1.22092e-06
8.95623e-05
1.0912e-06
8.96916e-05
9.73992e-07
8.98175e-05
8.67903e-07
8.99404e-05
7.71901e-07
9.00609e-05
6.85291e-07
9.01797e-05
6.07691e-07
9.02979e-05
5.39e-07
9.04171e-05
4.79383e-07
9.05399e-05
4.29142e-07
9.06699e-05
3.88657e-07
9.08129e-05
3.57732e-07
9.09772e-05
3.35512e-07
9.11746e-05
3.17495e-07
9.1422e-05
2.96619e-07
2.5205e-07
9.17345e-05
8.42163e-05
2.4494e-06
8.55492e-05
5.6201e-06
8.66697e-05
6.4059e-06
8.75252e-05
6.1765e-06
8.81486e-05
5.62145e-06
8.8593e-05
4.95178e-06
8.89237e-05
4.31408e-06
8.91842e-05
3.76164e-06
8.94002e-05
3.29066e-06
8.95878e-05
2.88958e-06
8.97565e-05
2.54703e-06
8.99119e-05
2.25212e-06
9.00575e-05
1.99596e-06
9.01955e-05
1.77174e-06
9.03274e-05
1.57411e-06
9.04544e-05
1.39875e-06
9.05771e-05
1.24222e-06
9.06963e-05
1.10175e-06
9.08124e-05
9.75122e-07
9.09258e-05
8.60541e-07
9.10371e-05
7.56604e-07
9.11468e-05
6.62221e-07
9.12555e-05
5.7657e-07
9.13641e-05
4.99057e-07
9.14739e-05
4.29253e-07
9.15865e-05
3.6682e-07
9.17043e-05
3.11337e-07
9.18308e-05
2.62126e-07
9.19709e-05
2.1762e-07
9.21314e-05
1.75065e-07
9.23204e-05
1.28423e-07
9.25484e-05
6.85948e-08
-2.13496e-08
9.28218e-05
8.63717e-05
1.87646e-06
8.74399e-05
4.55189e-06
8.84097e-05
5.43605e-06
8.91851e-05
5.40108e-06
8.97793e-05
5.02729e-06
9.02228e-05
4.50824e-06
9.05629e-05
3.97402e-06
9.08359e-05
3.4886e-06
9.10645e-05
3.06211e-06
9.12631e-05
2.69096e-06
9.1441e-05
2.36909e-06
9.1604e-05
2.08915e-06
9.17557e-05
1.84428e-06
9.18986e-05
1.62886e-06
9.20344e-05
1.43827e-06
9.21645e-05
1.2687e-06
9.22897e-05
1.11701e-06
9.24108e-05
9.80621e-07
9.25285e-05
8.57426e-07
9.26433e-05
7.45696e-07
9.27559e-05
6.44022e-07
9.28669e-05
5.51252e-07
9.2977e-05
4.66446e-07
9.30873e-05
3.88806e-07
9.31989e-05
3.17603e-07
9.33137e-05
2.52069e-07
9.34338e-05
1.912e-07
9.35624e-05
1.33548e-07
9.37033e-05
7.66846e-08
9.38615e-05
1.69066e-08
9.40421e-05
-5.21621e-08
9.42502e-05
-1.39545e-07
-2.5787e-07
9.44867e-05
8.86672e-05
1.45931e-06
8.95233e-05
3.69576e-06
9.03596e-05
4.59974e-06
9.10594e-05
4.70123e-06
9.16199e-05
4.4668e-06
9.20563e-05
4.0719e-06
9.24004e-05
3.62993e-06
9.26813e-05
3.20764e-06
9.29187e-05
2.82476e-06
9.31256e-05
2.48401e-06
9.33111e-05
2.18364e-06
9.34808e-05
1.91943e-06
9.36386e-05
1.68649e-06
9.37871e-05
1.48039e-06
9.3928e-05
1.2973e-06
9.40629e-05
1.13389e-06
9.41925e-05
9.8735e-07
9.43178e-05
8.55312e-07
9.44395e-05
7.35781e-07
9.45581e-05
6.27081e-07
9.46743e-05
5.278e-07
9.47888e-05
4.36733e-07
9.49024e-05
3.52825e-07
9.50162e-05
2.75104e-07
9.51312e-05
2.02591e-07
9.5249e-05
1.34184e-07
9.53718e-05
6.84707e-08
9.55018e-05
3.5471e-09
9.56419e-05
-6.34525e-08
9.57953e-05
-1.36475e-07
9.59645e-05
-2.21383e-07
9.6151e-05
-3.26055e-07
-4.59265e-07
9.63524e-05
9.10809e-05
1.14972e-06
9.1769e-05
3.00764e-06
9.24892e-05
3.87959e-06
9.31201e-05
4.07034e-06
9.36459e-05
3.94093e-06
9.40711e-05
3.64675e-06
9.44156e-05
3.28542e-06
9.47019e-05
2.92134e-06
9.49465e-05
2.58014e-06
9.51611e-05
2.26941e-06
9.53539e-05
1.99086e-06
9.55304e-05
1.74291e-06
9.56944e-05
1.52246e-06
9.58486e-05
1.32622e-06
9.59948e-05
1.1511e-06
9.61344e-05
9.94278e-07
9.62685e-05
8.53259e-07
9.63979e-05
7.25879e-07
9.65234e-05
6.1027e-07
9.66457e-05
5.04816e-07
9.67654e-05
4.08112e-07
9.68832e-05
3.18911e-07
9.7e-05
2.36073e-07
9.71166e-05
1.58491e-07
9.72342e-05
8.50043e-08
9.7354e-05
1.42916e-08
9.74778e-05
-5.52896e-08
9.76072e-05
-1.25854e-07
9.7744e-05
-2.00276e-07
9.78899e-05
-2.82305e-07
9.80454e-05
-3.76892e-07
9.82096e-05
-4.90328e-07
-6.28242e-07
9.83786e-05
9.35992e-05
9.15134e-07
9.41551e-05
2.45176e-06
9.47745e-05
3.26017e-06
9.53421e-05
3.5028e-06
9.58331e-05
3.44991e-06
9.62445e-05
3.23537e-06
9.65873e-05
2.94262e-06
9.68777e-05
2.63092e-06
9.71291e-05
2.32878e-06
9.73513e-05
2.04722e-06
9.75516e-05
1.79053e-06
9.77353e-05
1.55922e-06
9.7906e-05
1.35177e-06
9.80663e-05
1.16591e-06
9.82182e-05
9.99246e-07
9.8363e-05
8.49449e-07
9.85019e-05
7.14344e-07
9.86358e-05
5.91979e-07
9.87655e-05
4.80613e-07
9.88916e-05
3.78701e-07
9.90148e-05
2.84857e-07
9.91359e-05
1.97816e-07
9.92556e-05
1.1638e-07
9.93748e-05
3.93555e-08
9.94943e-05
-3.45216e-08
9.96152e-05
-1.0668e-07
9.97388e-05
-1.78829e-07
9.9866e-05
-2.53073e-07
9.99978e-05
-3.32066e-07
0.000100135
-4.19066e-07
0.000100276
-5.17968e-07
0.000100419
-6.33429e-07
-7.68677e-07
0.000100559
9.62136e-05
7.33578e-07
9.66659e-05
1.99954e-06
9.71989e-05
2.72712e-06
9.7709e-05
2.9927e-06
9.81662e-05
2.99275e-06
9.8562e-05
2.8395e-06
9.89009e-05
2.60374e-06
9.91936e-05
2.33823e-06
9.94504e-05
2.07199e-06
9.96795e-05
1.81818e-06
9.98871e-05
1.58289e-06
0.000100078
1.36829e-06
0.000100256
1.17411e-06
0.000100423
9.99016e-07
0.000100581
8.41248e-07
0.000100731
6.98915e-07
0.000100875
5.70155e-07
0.000101014
4.53216e-07
0.000101148
3.46492e-07
0.000101278
2.48511e-07
0.000101405
1.57923e-07
0.00010153
7.34645e-08
0.000101652
-6.08324e-09
0.000101773
-8.19475e-08
0.000101894
-1.55423e-07
0.000102016
-2.27945e-07
0.000102138
-3.01167e-07
0.000102262
-3.77028e-07
0.000102388
-4.57815e-07
0.000102515
-5.46158e-07
0.000102642
-6.44923e-07
0.000102766
-7.57307e-07
-8.84796e-07
0.000102882
9.89192e-05
5.90092e-07
9.92904e-05
1.62834e-06
9.97501e-05
2.2674e-06
0.000100209
2.53422e-06
0.000100633
2.56799e-06
0.000101013
2.46027e-06
0.000101346
2.27058e-06
0.000101639
2.04478e-06
0.0001019
1.81082e-06
0.000102136
1.58288e-06
0.00010235
1.36822e-06
0.000102549
1.17013e-06
0.000102733
9.8938e-07
0.000102907
8.25376e-07
0.000103071
6.76907e-07
0.000103228
5.4248e-07
0.000103377
4.20514e-07
0.000103521
3.09453e-07
0.00010366
2.07819e-07
0.000103794
1.14225e-07
0.000103925
2.73708e-08
0.000104052
-5.39817e-08
0.000104177
-1.31036e-07
0.0001043
-2.05006e-07
0.000104422
-2.77153e-07
0.000104543
-3.48844e-07
0.000104663
-4.21585e-07
0.000104783
-4.97054e-07
0.000104902
-5.77105e-07
0.00010502
-6.63726e-07
0.000105134
-7.58865e-07
0.000105241
-8.64526e-07
-9.81003e-07
0.000105337
0.000101713
4.74368e-07
0.000102021
1.32042e-06
0.000102419
1.86937e-06
0.000102832
2.12163e-06
0.000103227
2.1735e-06
0.000103589
2.09789e-06
0.000103915
1.94428e-06
0.000104208
1.75183e-06
0.000104473
1.54633e-06
0.000104713
1.3421e-06
0.000104935
1.14699e-06
0.00010514
9.65018e-07
0.000105331
7.9767e-07
0.000105512
6.44956e-07
0.000105683
5.06118e-07
0.000105845
3.80001e-07
0.000106
2.65274e-07
0.000106149
1.6056e-07
0.000106293
6.45062e-08
0.000106431
-2.41865e-08
0.000106565
-1.06757e-07
0.000106696
-1.84394e-07
0.000106823
-2.58258e-07
0.000106947
-3.29508e-07
0.000107069
-3.99329e-07
0.00010719
-4.68955e-07
0.000107308
-5.39695e-07
0.000107424
-6.12923e-07
0.000107537
-6.90053e-07
0.000107645
-7.72482e-07
0.000107748
-8.61402e-07
0.000107841
-9.57897e-07
-1.0615e-06
0.000107922
0.000104596
3.79195e-07
0.000104854
1.06189e-06
0.000105201
1.52271e-06
0.000105573
1.74928e-06
0.00010594
1.80681e-06
0.000106286
1.75201e-06
0.000106604
1.62553e-06
0.000106896
1.46029e-06
0.000107163
1.27934e-06
0.000107409
1.09646e-06
0.000107636
9.19594e-07
0.000107848
7.53134e-07
0.000108047
5.99029e-07
0.000108234
4.57722e-07
0.000108411
3.28803e-07
0.00010858
2.1139e-07
0.000108741
1.0436e-07
0.000108895
6.49312e-09
0.000109043
-8.34478e-08
0.000109185
-1.66672e-07
0.000109323
-2.44346e-07
0.000109456
-3.17595e-07
0.000109585
-3.87511e-07
0.000109711
-4.55171e-07
0.000109833
-5.21643e-07
0.000109952
-5.88004e-07
0.000110068
-6.55336e-07
0.00011018
-7.24706e-07
0.000110287
-7.97124e-07
0.000110388
-8.73482e-07
0.000110481
-9.54388e-07
0.000110563
-1.04026e-06
-1.13019e-06
0.000110632
0.000107566
2.9943e-07
0.000107786
8.4192e-07
0.00010809
1.21845e-06
0.000108428
1.41176e-06
0.000108769
1.4651e-06
0.0001091
1.42169e-06
0.000109411
1.31446e-06
0.0001097
1.17068e-06
0.000109969
1.01043e-06
0.000110219
8.46431e-07
0.000110452
6.86372e-07
0.000110671
5.34687e-07
0.000110876
3.93559e-07
0.00011107
2.63698e-07
0.000111254
1.44937e-07
0.000111429
3.65963e-08
0.000111596
-6.2283e-08
0.000111755
-1.52791e-07
0.000111908
-2.3606e-07
0.000112054
-3.13212e-07
0.000112195
-3.85339e-07
0.000112331
-4.53489e-07
0.000112462
-5.18672e-07
0.000112589
-5.81858e-07
0.000112711
-6.43986e-07
0.000112829
-7.0596e-07
0.000112942
-7.68635e-07
0.00011305
-8.32794e-07
0.000113152
-8.991e-07
0.000113247
-9.68043e-07
0.000113332
-1.0398e-06
0.000113407
-1.11435e-06
-1.19056e-06
0.000113467
0.000110625
2.31325e-07
0.000110815
6.52003e-07
0.000111085
9.48822e-07
0.000111392
1.1039e-06
0.000111712
1.14536e-06
0.000112028
1.10554e-06
0.000112332
1.0107e-06
0.00011262
8.83119e-07
0.00011289
7.3987e-07
0.000113144
5.92303e-07
0.000113383
4.47531e-07
0.000113608
3.09794e-07
0.00011382
1.81297e-07
0.000114021
6.28674e-08
0.000114212
-4.55276e-08
0.000114393
-1.44436e-07
0.000114565
-2.34702e-07
0.00011473
-3.17315e-07
0.000114887
-3.93321e-07
0.000115037
-4.63764e-07
0.000115182
-5.29659e-07
0.00011532
-5.91975e-07
0.000115453
-6.51626e-07
0.000115581
-7.09473e-07
0.000115703
-7.66318e-07
0.00011582
-8.22893e-07
0.000115931
-8.79847e-07
0.000116036
-9.37715e-07
0.000116134
-9.9688e-07
0.000116223
-1.05753e-06
0.000116303
-1.11956e-06
0.000116371
-1.18265e-06
-1.24563e-06
0.000116427
0.000113775
1.72083e-07
0.000113941
4.85416e-07
0.000114183
7.07114e-07
0.000114466
8.20804e-07
0.000114767
8.44436e-07
0.000115071
8.01776e-07
0.000115368
7.13427e-07
0.000115654
5.97312e-07
0.000115926
4.67597e-07
0.000116184
3.34081e-07
0.000116429
2.03078e-07
0.00011666
7.84275e-08
0.000116879
-3.78215e-08
0.000117087
-1.44864e-07
0.000117284
-2.42697e-07
0.000117472
-3.31814e-07
0.00011765
-4.12993e-07
0.00011782
-4.87158e-07
0.000117982
-5.55289e-07
0.000118136
-6.18365e-07
0.000118284
-6.77327e-07
0.000118425
-7.33064e-07
0.00011856
-7.86399e-07
0.000118688
-8.38082e-07
0.000118811
-8.88781e-07
0.000118927
-9.39074e-07
0.000119037
-9.89428e-07
0.000119139
-1.04018e-06
0.000119234
-1.09149e-06
0.00011932
-1.14335e-06
0.000119395
-1.19546e-06
0.00011946
-1.24735e-06
-1.2979e-06
0.000119512
0.000117017
1.1956e-07
0.000117166
3.36769e-07
0.000117385
4.87513e-07
0.000117648
5.57862e-07
0.000117933
5.59056e-07
0.000118227
5.0828e-07
0.000118519
4.21403e-07
0.000118804
3.12565e-07
0.000119078
1.93222e-07
0.000119341
7.15301e-08
0.000119591
-4.71547e-08
0.000119829
-1.59556e-07
0.000120055
-2.6393e-07
0.00012027
-3.59619e-07
0.000120474
-4.46684e-07
0.000120668
-5.25632e-07
0.000120852
-5.97227e-07
0.000121027
-6.62364e-07
0.000121194
-7.21982e-07
0.000121352
-7.77008e-07
0.000121503
-8.28323e-07
0.000121647
-8.76741e-07
0.000121784
-9.22998e-07
0.000121913
-9.67741e-07
0.000122036
-1.01152e-06
0.000122152
-1.05478e-06
0.00012226
-1.09784e-06
0.000122361
-1.14087e-06
0.000122453
-1.1839e-06
0.000122537
-1.22677e-06
0.00012261
-1.26908e-06
0.000122673
-1.31032e-06
-1.34947e-06
0.000122725
0.000120354
7.20594e-08
0.000120489
2.01657e-07
0.000120691
2.84931e-07
0.000120938
3.10685e-07
0.000121212
2.85842e-07
0.000121497
2.22615e-07
0.000121786
1.32956e-07
0.000122071
2.77433e-08
0.000122348
-8.40596e-08
0.000122615
-1.95958e-07
0.000122872
-3.03662e-07
0.000123117
-4.04586e-07
0.00012335
-4.97416e-07
0.000123572
-5.81753e-07
0.000123784
-6.57809e-07
0.000123984
-7.26174e-07
0.000124175
-7.87652e-07
0.000124355
-8.43147e-07
0.000124527
-8.93582e-07
0.00012469
-9.39853e-07
0.000124844
-9.82792e-07
0.000124991
-1.02315e-06
0.000125129
-1.0616e-06
0.00012526
-1.09868e-06
0.000125384
-1.13485e-06
0.000125499
-1.17044e-06
0.000125607
-1.20566e-06
0.000125707
-1.24056e-06
0.000125798
-1.27508e-06
0.00012588
-1.30896e-06
0.000125953
-1.34179e-06
0.000126015
-1.37304e-06
-1.4018e-06
0.000126068
0.000123787
2.81958e-08
0.000123912
7.63881e-08
0.000124102
9.4841e-08
0.000124338
7.50751e-08
0.000124603
2.13125e-08
0.000124883
-5.79405e-08
0.00012517
-1.53952e-07
0.000125456
-2.58655e-07
0.000125738
-3.65365e-07
0.000126011
-4.69231e-07
0.000126274
-5.67102e-07
0.000126527
-6.57181e-07
0.000126768
-7.38691e-07
0.000126998
-8.11591e-07
0.000127217
-8.76326e-07
0.000127424
-9.33634e-07
0.000127621
-9.8441e-07
0.000127807
-1.0296e-06
0.000127984
-1.07015e-06
0.000128151
-1.10694e-06
0.000128309
-1.14077e-06
0.000128458
-1.17235e-06
0.000128599
-1.20227e-06
0.000128731
-1.23103e-06
0.000128855
-1.25898e-06
0.000128971
-1.28638e-06
0.000129079
-1.31334e-06
0.000129178
-1.33986e-06
0.000129269
-1.36579e-06
0.000129351
-1.39086e-06
0.000129424
-1.41465e-06
0.000129487
-1.43668e-06
-1.45618e-06
0.000129542
0.00012732
-1.32146e-08
0.000127439
-4.22488e-08
0.00012762
-8.69078e-08
0.000127848
-1.53088e-07
0.000128108
-2.38195e-07
0.000128387
-3.36479e-07
0.000128674
-4.41851e-07
0.000128964
-5.48687e-07
0.000129251
-6.52388e-07
0.000129532
-7.49705e-07
0.000129804
-8.38678e-07
0.000130065
-9.18378e-07
0.000130315
-9.88657e-07
0.000130553
-1.04992e-06
0.00013078
-1.10291e-06
0.000130995
-1.14859e-06
0.000131198
-1.188e-06
0.000131391
-1.22215e-06
0.000131573
-1.25204e-06
0.000131744
-1.27857e-06
0.000131906
-1.30253e-06
0.000132058
-1.32458e-06
0.000132201
-1.34529e-06
0.000132335
-1.36509e-06
0.000132461
-1.38427e-06
0.000132577
-1.40302e-06
0.000132685
-1.42141e-06
0.000132785
-1.43937e-06
0.000132876
-1.45674e-06
0.000132958
-1.47322e-06
0.000133032
-1.48844e-06
0.000133097
-1.50194e-06
-1.51308e-06
0.000133154
0.000130955
-5.3229e-08
0.00013107
-1.57162e-07
0.000131247
-2.64234e-07
0.000131472
-3.77904e-07
0.00013173
-4.96509e-07
0.00013201
-6.16361e-07
0.000132302
-7.33571e-07
0.000132598
-8.44673e-07
0.000132892
-9.47e-07
0.000133182
-1.03888e-06
0.000133463
-1.11959e-06
0.000133733
-1.18913e-06
0.000133993
-1.24806e-06
0.00013424
-1.29731e-06
0.000134475
-1.33802e-06
0.000134698
-1.37139e-06
0.000134909
-1.39866e-06
0.000135107
-1.42097e-06
0.000135295
-1.43939e-06
0.000135471
-1.45485e-06
0.000135637
-1.46815e-06
0.000135792
-1.47995e-06
0.000135938
-1.49076e-06
0.000136073
-1.501e-06
0.0001362
-1.5109e-06
0.000136318
-1.52062e-06
0.000136426
-1.53018e-06
0.000136527
-1.53949e-06
0.000136618
-1.54837e-06
0.000136702
-1.55656e-06
0.000136777
-1.56369e-06
0.000136844
-1.56942e-06
-1.57319e-06
0.000136904
0.000134695
-9.28453e-08
0.000134809
-2.71149e-07
0.000134986
-4.41061e-07
0.000135211
-6.03715e-07
0.000135473
-7.57941e-07
0.000135758
-9.0164e-07
0.000136057
-1.0328e-06
0.000136363
-1.1499e-06
0.000136668
-1.25211e-06
0.000136968
-1.33931e-06
0.000137261
-1.41205e-06
0.000137543
-1.47134e-06
0.000137813
-1.51855e-06
0.000138071
-1.55517e-06
0.000138316
-1.58281e-06
0.000138547
-1.603e-06
0.000138766
-1.61719e-06
0.000138972
-1.62671e-06
0.000139165
-1.63272e-06
0.000139346
-1.6362e-06
0.000139516
-1.63798e-06
0.000139675
-1.63872e-06
0.000139823
-1.63894e-06
0.000139961
-1.639e-06
0.000140089
-1.63913e-06
0.000140208
-1.63945e-06
0.000140318
-1.63994e-06
0.000140419
-1.64051e-06
0.000140512
-1.64099e-06
0.000140596
-1.64111e-06
0.000140673
-1.64056e-06
0.000140743
-1.63902e-06
-1.636e-06
0.000140806
0.000138542
-1.33063e-07
0.000138658
-3.87014e-07
0.000138839
-6.21377e-07
0.00013907
-8.34996e-07
0.000139339
-1.02695e-06
0.000139634
-1.19645e-06
0.000139944
-1.34319e-06
0.000140262
-1.46749e-06
0.00014058
-1.57031e-06
0.000140894
-1.65313e-06
0.000141199
-1.71781e-06
0.000141495
-1.76645e-06
0.000141777
-1.80126e-06
0.000142047
-1.82443e-06
0.000142302
-1.83803e-06
0.000142543
-1.844e-06
0.00014277
-1.84407e-06
0.000142983
-1.83973e-06
0.000143182
-1.83229e-06
0.000143369
-1.82281e-06
0.000143543
-1.81217e-06
0.000143705
-1.80105e-06
0.000143856
-1.78994e-06
0.000143997
-1.77921e-06
0.000144127
-1.76907e-06
0.000144247
-1.7596e-06
0.000144358
-1.7508e-06
0.00014446
-1.74256e-06
0.000144553
-1.7347e-06
0.000144639
-1.72699e-06
0.000144718
-1.71916e-06
0.00014479
-1.71094e-06
-1.70191e-06
0.000144856
0.000142501
-1.74994e-07
0.000142622
-5.07904e-07
0.000142811
-8.09818e-07
0.000143053
-1.07725e-06
0.000143335
-1.30941e-06
0.000143645
-1.5067e-06
0.000143973
-1.67041e-06
0.000144308
-1.8027e-06
0.000144644
-1.90636e-06
0.000144975
-1.98453e-06
0.000145298
-2.04048e-06
0.000145609
-2.0775e-06
0.000145907
-2.09873e-06
0.000146189
-2.10712e-06
0.000146457
-2.10532e-06
0.000146708
-2.09568e-06
0.000146944
-2.08025e-06
0.000147165
-2.06075e-06
0.000147372
-2.03863e-06
0.000147564
-2.01506e-06
0.000147743
-1.99097e-06
0.000147909
-1.96705e-06
0.000148063
-1.94383e-06
0.000148205
-1.92164e-06
0.000148337
-1.90068e-06
0.000148458
-1.88103e-06
0.00014857
-1.86267e-06
0.000148673
-1.84548e-06
0.000148767
-1.82928e-06
0.000148854
-1.81385e-06
0.000148934
-1.79892e-06
0.000149007
-1.78423e-06
-1.76939e-06
0.000149075
0.000146574
-2.19811e-07
0.000146703
-6.37137e-07
0.000146905
-1.0111e-06
0.000147163
-1.33575e-06
0.000147464
-1.61058e-06
0.000147795
-1.83727e-06
0.000148143
-2.01883e-06
0.0001485
-2.15936e-06
0.000148857
-2.26359e-06
0.000149209
-2.3364e-06
0.000149551
-2.38259e-06
0.00014988
-2.40668e-06
0.000150195
-2.41288e-06
0.000150492
-2.40491e-06
0.000150773
-2.38609e-06
0.000151037
-2.35923e-06
0.000151283
-2.32673e-06
0.000151513
-2.29058e-06
0.000151727
-2.25239e-06
0.000151925
-2.21345e-06
0.000152109
-2.17474e-06
0.000152279
-2.13701e-06
0.000152436
-2.10077e-06
0.000152581
-2.06637e-06
0.000152714
-2.034e-06
0.000152837
-2.00371e-06
0.000152949
-1.97547e-06
0.000153053
-1.94914e-06
0.000153148
-1.92456e-06
0.000153236
-1.9015e-06
0.000153317
-1.87972e-06
0.000153391
-1.85899e-06
-1.83895e-06
0.000153461
0.000150765
-2.69241e-07
0.000150908
-7.79571e-07
0.000151129
-1.23253e-06
0.000151413
-1.61945e-06
0.000151742
-1.94022e-06
0.000152103
-2.19805e-06
0.000152482
-2.39784e-06
0.000152869
-2.54596e-06
0.000153254
-2.64935e-06
0.000153633
-2.7149e-06
0.000153999
-2.74911e-06
0.000154351
-2.75793e-06
0.000154685
-2.74669e-06
0.000155
-2.72004e-06
0.000155295
-2.68194e-06
0.000155572
-2.63574e-06
0.000155829
-2.58421e-06
0.000156069
-2.5296e-06
0.00015629
-2.4737e-06
0.000156494
-2.41792e-06
0.000156683
-2.3633e-06
0.000156856
-2.31062e-06
0.000157016
-2.2604e-06
0.000157163
-2.21298e-06
0.000157297
-2.16851e-06
0.000157421
-2.12706e-06
0.000157534
-2.08853e-06
0.000157637
-2.0528e-06
0.000157732
-2.01966e-06
0.00015782
-1.98888e-06
0.0001579
-1.96016e-06
0.000157974
-1.93328e-06
-1.9078e-06
0.000158043
0.000155077
-3.24691e-07
0.000155237
-9.39343e-07
0.000155484
-1.47955e-06
0.000155798
-1.93395e-06
0.000156162
-2.30375e-06
0.000156558
-2.59422e-06
0.000156973
-2.81253e-06
0.000157394
-2.96754e-06
0.000157814
-3.06865e-06
0.000158224
-3.12494e-06
0.000158619
-3.14476e-06
0.000158997
-3.13565e-06
0.000159355
-3.1042e-06
0.000159691
-3.05605e-06
0.000160005
-2.99596e-06
0.000160297
-2.92783e-06
0.000160567
-2.85485e-06
0.000160817
-2.77956e-06
0.000161048
-2.70395e-06
0.000161259
-2.62952e-06
0.000161453
-2.55741e-06
0.000161631
-2.48841e-06
0.000161794
-2.42303e-06
0.000161942
-2.36159e-06
0.000162078
-2.30423e-06
0.000162202
-2.25096e-06
0.000162315
-2.20167e-06
0.000162418
-2.15619e-06
0.000162513
-2.11429e-06
0.0001626
-2.07571e-06
0.00016268
-2.04017e-06
0.000162754
-2.00742e-06
-1.97703e-06
0.000162823
0.000159516
-3.90412e-07
0.000159704
-1.12746e-06
0.000159993
-1.76817e-06
0.000160357
-2.29788e-06
0.000160773
-2.72014e-06
0.000161222
-3.04327e-06
0.000161688
-3.27775e-06
0.000162156
-3.43598e-06
0.000162618
-3.53052e-06
0.000163066
-3.57304e-06
0.000163495
-3.57404e-06
0.000163902
-3.54277e-06
0.000164285
-3.48716e-06
0.000164643
-3.41389e-06
0.000164976
-3.32847e-06
0.000165283
-3.2354e-06
0.000165567
-3.13826e-06
0.000165827
-3.03987e-06
0.000166066
-2.94239e-06
0.000166283
-2.84743e-06
0.000166482
-2.75617e-06
0.000166663
-2.66939e-06
0.000166828
-2.58761e-06
0.000166977
-2.5111e-06
0.000167113
-2.43996e-06
0.000167236
-2.37414e-06
0.000167348
-2.31349e-06
0.00016745
-2.25778e-06
0.000167542
-2.20673e-06
0.000167626
-2.16003e-06
0.000167704
-2.11732e-06
0.000167774
-2.07828e-06
-2.04237e-06
0.00016784
0.000164082
-4.66161e-07
0.0001643
-1.34598e-06
0.000164633
-2.10043e-06
0.000165048
-2.71366e-06
0.000165522
-3.1937e-06
0.000166031
-3.55223e-06
0.000166556
-3.80306e-06
0.000167083
-3.96258e-06
0.000167599
-4.04707e-06
0.000168098
-4.0713e-06
0.000168572
-4.04837e-06
0.000169019
-3.98962e-06
0.000169436
-3.9046e-06
0.000169824
-3.80119e-06
0.000170181
-3.68581e-06
0.000170509
-3.56359e-06
0.000170809
-3.43852e-06
0.000171083
-3.31371e-06
0.000171332
-3.19146e-06
0.000171558
-3.07346e-06
0.000171763
-2.9609e-06
0.000171948
-2.85453e-06
0.000172115
-2.75481e-06
0.000172266
-2.66194e-06
0.000172402
-2.57595e-06
0.000172525
-2.49671e-06
0.000172635
-2.42401e-06
0.000172735
-2.35754e-06
0.000172825
-2.29698e-06
0.000172907
-2.24195e-06
0.000172982
-2.19207e-06
0.000173051
-2.14701e-06
-2.10614e-06
0.000173114
0.000168795
-5.69272e-07
0.00016908
-1.63081e-06
0.0001695
-2.52043e-06
0.000170009
-3.22328e-06
0.000170574
-3.75845e-06
0.000171167
-4.14511e-06
0.000171767
-4.40339e-06
0.00017236
-4.55542e-06
0.000172935
-4.62174e-06
0.000173484
-4.62032e-06
0.000174002
-4.56679e-06
0.000174487
-4.47454e-06
0.000174937
-4.35463e-06
0.000175352
-4.21611e-06
0.000175733
-4.06624e-06
0.00017608
-3.91074e-06
0.000176395
-3.75403e-06
0.000176681
-3.59944e-06
0.000176939
-3.44945e-06
0.000177171
-3.30577e-06
0.00017738
-3.16958e-06
0.000177567
-3.04159e-06
0.000177734
-2.92217e-06
0.000177884
-2.81143e-06
0.000178017
-2.70928e-06
0.000178136
-2.6155e-06
0.000178242
-2.52978e-06
0.000178336
-2.45173e-06
0.00017842
-2.38093e-06
0.000178495
-2.31693e-06
0.000178562
-2.25922e-06
0.000178622
-2.20737e-06
-2.1606e-06
0.000178677
0.000173623
-6.80812e-07
0.000173954
-1.96182e-06
0.000174445
-3.01204e-06
0.000175048
-3.82536e-06
0.00017572
-4.43047e-06
0.000176425
-4.85081e-06
0.000177136
-5.1141e-06
0.000177832
-5.25106e-06
0.000178499
-5.28866e-06
0.000179128
-5.24966e-06
0.000179715
-5.15344e-06
0.000180256
-5.0161e-06
0.000180752
-4.85068e-06
0.000181204
-4.66756e-06
0.000181612
-4.4749e-06
0.000181981
-4.27899e-06
0.000182311
-4.08457e-06
0.000182607
-3.89513e-06
0.00018287
-3.71312e-06
0.000183105
-3.54023e-06
0.000183313
-3.3775e-06
0.000183497
-3.22549e-06
0.000183659
-3.08441e-06
0.000183802
-2.95418e-06
0.000183927
-2.83456e-06
0.000184037
-2.72517e-06
0.000184132
-2.62556e-06
0.000184216
-2.53524e-06
0.000184289
-2.45371e-06
0.000184352
-2.38047e-06
0.000184408
-2.31497e-06
0.000184457
-2.25678e-06
-2.20497e-06
0.000184502
0.000178682
-8.94633e-07
0.000179191
-2.47036e-06
0.000179864
-3.68539e-06
0.000180623
-4.58405e-06
0.000181425
-5.23281e-06
0.000182239
-5.66439e-06
0.00018304
-5.91499e-06
0.000183812
-6.02284e-06
0.000184543
-6.01972e-06
0.000185225
-5.9324e-06
0.000185856
-5.78377e-06
0.000186432
-5.5926e-06
0.000186955
-5.37386e-06
0.000187427
-5.13934e-06
0.00018785
-4.89811e-06
0.000188228
-4.65697e-06
0.000188565
-4.42094e-06
0.000188863
-4.19354e-06
0.000189127
-3.97717e-06
0.00018936
-3.77333e-06
0.000189566
-3.58285e-06
0.000189746
-3.40603e-06
0.000189905
-3.24282e-06
0.000190043
-3.0929e-06
0.000190164
-2.95579e-06
0.00019027
-2.83089e-06
0.000190362
-2.71758e-06
0.000190442
-2.61521e-06
0.000190512
-2.52318e-06
0.000190572
-2.4409e-06
0.000190625
-2.36784e-06
0.000190672
-2.3035e-06
-2.24687e-06
0.000190714
0.000183746
-1.07311e-06
0.000184338
-3.06233e-06
0.000185171
-4.51897e-06
0.000186143
-5.55591e-06
0.000187171
-6.26093e-06
0.000188192
-6.68536e-06
0.000189172
-6.89498e-06
0.000190096
-6.94691e-06
0.000190959
-6.88181e-06
0.000191758
-6.73167e-06
0.000192496
-6.52229e-06
0.000193177
-6.27363e-06
0.000193805
-6.00108e-06
0.000194382
-5.71641e-06
0.000194912
-5.42854e-06
0.000195399
-5.14407e-06
0.000195846
-4.86784e-06
0.000196256
-4.60322e-06
0.000196631
-4.35247e-06
0.000196975
-4.11698e-06
0.000197289
-3.89742e-06
0.000197577
-3.69397e-06
0.000197841
-3.50643e-06
0.000198082
-3.33433e-06
0.000198303
-3.17701e-06
0.000198506
-3.03374e-06
0.000198692
-2.90377e-06
0.000198864
-2.78635e-06
0.000199021
-2.6809e-06
0.000199167
-2.58685e-06
0.000199304
-2.50405e-06
0.000199432
-2.43207e-06
-2.37105e-06
0.000199556
0.000189418
-1.67898e-06
0.000190407
-4.05111e-06
0.00019149
-5.60201e-06
0.00019265
-6.71642e-06
0.000193894
-7.50518e-06
0.000195201
-7.99192e-06
0.000196549
-8.24309e-06
0.000197915
-8.31285e-06
0.000199273
-8.23947e-06