/*--------------------------------*- C++ -*----------------------------------*\
| =========                 |                                                 |
| \\      /  F ield         | OpenFOAM: The Open Source CFD Toolbox           |
|  \\    /   O peration     | Version:  2.1.1                                 |
|   \\  /    A nd           | Web:      www.OpenFOAM.org                      |
|    \\/     M anipulation  |                                                 |
\*---------------------------------------------------------------------------*/
FoamFile
{
    version     2.0;
    format      ascii;
    class       volVectorField;
    location    "0.05";
    object      U;
}
// * * * * * * * * * * * * * * * * * * * * * * * * * * * * * * * * * * * * * //

dimensions      [0 1 -1 0 0 0 0];

internalField   nonuniform List<vector> 
6820
(
(6.376 0.503745 0)
(4.4243 0.286869 0)
(2.97347 0.0202117 0)
(2.23413 -0.061905 0)
(1.96838 -0.059977 0)
(1.84136 -0.0345511 0)
(1.76621 -0.0151378 0)
(1.71383 -0.00476261 0)
(1.67017 -6.1265e-05 0)
(1.63218 0.00144713 0)
(1.59929 0.00143036 0)
(1.57102 0.000824411 0)
(1.54685 6.23059e-05 0)
(1.52626 -0.0006665 0)
(1.50871 -0.001288 0)
(1.49375 -0.00178501 0)
(1.481 -0.00216597 0)
(1.47015 -0.00244791 0)
(1.46092 -0.0026484 0)
(1.45309 -0.00278223 0)
(1.44648 -0.00286054 0)
(1.4409 -0.00289037 0)
(1.43619 -0.00287475 0)
(1.43215 -0.00281168 0)
(1.42858 -0.00269464 0)
(1.42523 -0.00250396 0)
(1.42173 -0.00222029 0)
(1.41772 -0.00174017 0)
(1.41208 -0.00109602 0)
(1.40508 0.000572798 0)
(1.38976 0.00164975 0)
(1.37881 0.0147604 0)
(1.29921 -0.0121139 0)
(8.72021 0.95963 0)
(8.76473 1.01194 0)
(7.96869 0.679044 0)
(7.05498 0.393947 0)
(6.35366 0.202513 0)
(5.84693 0.103434 0)
(5.4846 0.0579755 0)
(5.22281 0.0374958 0)
(5.0266 0.0283146 0)
(4.87377 0.0237952 0)
(4.75092 0.0210878 0)
(4.64966 0.01914 0)
(4.56462 0.0175583 0)
(4.4922 0.0161782 0)
(4.42989 0.0149202 0)
(4.37586 0.0137444 0)
(4.32875 0.0126321 0)
(4.2875 0.0115754 0)
(4.25129 0.0105724 0)
(4.21944 0.00962608 0)
(4.19139 0.00874374 0)
(4.16667 0.00793852 0)
(4.14483 0.00723099 0)
(4.12547 0.00665307 0)
(4.10821 0.00625207 0)
(4.09261 0.00610704 0)
(4.07818 0.00632408 0)
(4.06432 0.00715153 0)
(4.05023 0.00876346 0)
(4.03478 0.0124277 0)
(4.01641 0.0174927 0)
(3.99281 0.033384 0)
(3.96504 0.0500451 0)
(8.58611 0.583474 0)
(9.33127 0.76234 0)
(9.61433 0.660189 0)
(9.50414 0.526645 0)
(9.23764 0.397171 0)
(8.92474 0.299375 0)
(8.61833 0.23061 0)
(8.34157 0.18127 0)
(8.09874 0.145382 0)
(7.88757 0.118767 0)
(7.70435 0.0985146 0)
(7.54523 0.0827626 0)
(7.4067 0.0702978 0)
(7.28571 0.0602944 0)
(7.17972 0.0521569 0)
(7.08659 0.0454435 0)
(7.00451 0.0398258 0)
(6.93198 0.0350613 0)
(6.86774 0.0309724 0)
(6.81073 0.0274307 0)
(6.76003 0.0243466 0)
(6.71486 0.0216637 0)
(6.67454 0.0193555 0)
(6.63846 0.0174276 0)
(6.60604 0.0159225 0)
(6.57673 0.0149335 0)
(6.54994 0.0146227 0)
(6.52509 0.0152843 0)
(6.50142 0.017349 0)
(6.47826 0.021844 0)
(6.45451 0.029636 0)
(6.43003 0.0455881 0)
(6.40658 0.0683221 0)
(8.44092 0.379692 0)
(8.94587 0.584045 0)
(9.35829 0.554621 0)
(9.58598 0.487207 0)
(9.70006 0.407383 0)
(9.73596 0.338367 0)
(9.72021 0.286012 0)
(9.67512 0.24599 0)
(9.61355 0.21466 0)
(9.54277 0.189435 0)
(9.46751 0.168469 0)
(9.39086 0.150633 0)
(9.31484 0.13521 0)
(9.24095 0.121708 0)
(9.17011 0.109799 0)
(9.10287 0.099242 0)
(9.03952 0.0898403 0)
(8.98018 0.0814323 0)
(8.92483 0.0738857 0)
(8.87341 0.0670952 0)
(8.82576 0.0609816 0)
(8.78171 0.0554917 0)
(8.74105 0.0506011 0)
(8.70356 0.0463187 0)
(8.66899 0.0426957 0)
(8.63708 0.0398424 0)
(8.60754 0.0379459 0)
(8.58007 0.0373355 0)
(8.55436 0.0384793 0)
(8.53029 0.0423187 0)
(8.50782 0.0497793 0)
(8.48819 0.0638204 0)
(8.47469 0.084579 0)
(8.40214 0.280059 0)
(8.71894 0.480675 0)
(8.99879 0.461945 0)
(9.17423 0.404529 0)
(9.29871 0.342627 0)
(9.39215 0.290348 0)
(9.46127 0.251518 0)
(9.51422 0.222137 0)
(9.55579 0.198891 0)
(9.58835 0.17988 0)
(9.6136 0.163842 0)
(9.63291 0.149986 0)
(9.64738 0.137827 0)
(9.65763 0.127026 0)
(9.66434 0.117327 0)
(9.66816 0.108536 0)
(9.66966 0.100507 0)
(9.66932 0.0931305 0)
(9.66756 0.0863215 0)
(9.66474 0.0800199 0)
(9.66112 0.0741873 0)
(9.65698 0.0688076 0)
(9.65249 0.0638894 0)
(9.64783 0.0594721 0)
(9.64315 0.0556337 0)
(9.63857 0.0525058 0)
(9.63423 0.0502903 0)
(9.6303 0.0492996 0)
(9.62703 0.0499622 0)
(9.625 0.0529608 0)
(9.62501 0.0589614 0)
(9.62939 0.0693299 0)
(9.64092 0.0831941 0)
(8.37747 0.202168 0)
(8.60134 0.383548 0)
(8.81576 0.390661 0)
(8.94674 0.356356 0)
(9.03256 0.312109 0)
(9.0953 0.268742 0)
(9.1422 0.233038 0)
(9.18055 0.204676 0)
(9.21456 0.181864 0)
(9.24562 0.163265 0)
(9.27433 0.147785 0)
(9.30105 0.134598 0)
(9.326 0.123166 0)
(9.34942 0.113128 0)
(9.37144 0.104196 0)
(9.39216 0.0961508 0)
(9.41165 0.0888353 0)
(9.42998 0.0821311 0)
(9.44723 0.0759508 0)
(9.46349 0.0702317 0)
(9.47883 0.0649333 0)
(9.49336 0.060037 0)
(9.50715 0.0555474 0)
(9.52031 0.0514965 0)
(9.53297 0.0479487 0)
(9.54529 0.045011 0)
(9.55748 0.0428391 0)
(9.56989 0.0416591 0)
(9.58298 0.0417434 0)
(9.59761 0.0434631 0)
(9.61483 0.0470144 0)
(9.63712 0.0526576 0)
(9.66617 0.0588451 0)
(8.36128 0.148793 0)
(8.52271 0.311334 0)
(8.69743 0.336986 0)
(8.81218 0.317511 0)
(8.88679 0.284384 0)
(8.93988 0.248334 0)
(8.97764 0.216853 0)
(9.00625 0.191146 0)
(9.03015 0.170051 0)
(9.05125 0.152528 0)
(9.0705 0.137736 0)
(9.08852 0.125018 0)
(9.10562 0.113908 0)
(9.12199 0.104074 0)
(9.13774 0.0952793 0)
(9.15296 0.0873439 0)
(9.1677 0.0801285 0)
(9.18198 0.0735231 0)
(9.19585 0.0674414 0)
(9.20932 0.0618183 0)
(9.22243 0.0566083 0)
(9.23521 0.0517847 0)
(9.2477 0.0473406 0)
(9.25998 0.0432904 0)
(9.27212 0.0396714 0)
(9.28428 0.0365471 0)
(9.29664 0.0340042 0)
(9.30954 0.0321554 0)
(9.3234 0.0310959 0)
(9.33899 0.0309072 0)
(9.35719 0.0313939 0)
(9.37976 0.032186 0)
(9.40769 0.0315028 0)
(8.35116 0.111351 0)
(8.46739 0.251501 0)
(8.60815 0.286366 0)
(8.70986 0.278226 0)
(8.77968 0.255978 0)
(8.83132 0.228657 0)
(8.86913 0.202695 0)
(8.89765 0.180201 0)
(8.92085 0.160912 0)
(8.94072 0.144354 0)
(8.95835 0.130075 0)
(8.97442 0.117637 0)
(8.98938 0.106684 0)
(9.0035 0.0969506 0)
(9.01696 0.0882283 0)
(9.02987 0.0803471 0)
(9.04233 0.0731698 0)
(9.0544 0.0665873 0)
(9.06614 0.0605138 0)
(9.07759 0.0548834 0)
(9.08881 0.049648 0)
(9.09983 0.0447753 0)
(9.11073 0.0402485 0)
(9.12156 0.0360659 0)
(9.13244 0.0322389 0)
(9.1435 0.0287907 0)
(9.15494 0.0257463 0)
(9.16706 0.0231234 0)
(9.18025 0.0208828 0)
(9.1951 0.0189056 0)
(9.2123 0.0167885 0)
(9.23296 0.0138498 0)
(9.25757 0.00851423 0)
(8.34487 0.0846665 0)
(8.42937 0.203591 0)
(8.54214 0.243532 0)
(8.63085 0.244275 0)
(8.69482 0.230193 0)
(8.74389 0.209315 0)
(8.78131 0.187497 0)
(8.81029 0.167579 0)
(8.83411 0.149999 0)
(8.85459 0.134613 0)
(8.87271 0.121165 0)
(8.88915 0.109339 0)
(8.90436 0.0988488 0)
(8.91862 0.0894644 0)
(8.93212 0.0810022 0)
(8.94501 0.0733118 0)
(8.95738 0.066272 0)
(8.96933 0.0597852 0)
(8.98092 0.0537727 0)
(8.9922 0.0481715 0)
(9.00323 0.0429321 0)
(9.01407 0.0380173 0)
(9.02479 0.0334003 0)
(9.03547 0.0290625 0)
(9.04621 0.0249903 0)
(9.05716 0.0211685 0)
(9.06851 0.017568 0)
(9.08051 0.0141284 0)
(9.0935 0.0107125 0)
(9.10791 0.00707054 0)
(9.1242 0.00270719 0)
(9.143 -0.00316006 0)
(9.16442 -0.0118073 0)
(8.34093 0.0654125 0)
(8.40306 0.165231 0)
(8.49323 0.206386 0)
(8.56988 0.212985 0)
(8.62796 0.204913 0)
(8.67405 0.189486 0)
(8.71047 0.171764 0)
(8.73939 0.154681 0)
(8.7634 0.139044 0)
(8.78413 0.124963 0)
(8.8025 0.112378 0)
(8.81916 0.101129 0)
(8.83454 0.0910303 0)
(8.84896 0.0819152 0)
(8.86259 0.0736415 0)
(8.87558 0.0660855 0)
(8.88805 0.0591414 0)
(8.90007 0.0527195 0)
(8.91172 0.0467442 0)
(8.92305 0.0411524 0)
(8.93412 0.0358914 0)
(8.945 0.0309175 0)
(8.95575 0.0261932 0)
(8.96646 0.021684 0)
(8.97723 0.0173529 0)
(8.98819 0.013153 0)
(8.9995 0.00901232 0)
(9.01138 0.00481585 0)
(9.02406 0.00036944 0)
(9.03784 -0.00463679 0)
(9.053 -0.010704 0)
(9.06978 -0.0185684 0)
(9.08807 -0.0291821 0)
(8.33845 0.0512468 0)
(8.38471 0.134389 0)
(8.45686 0.174364 0)
(8.52276 0.184905 0)
(8.57523 0.1815 0)
(8.61822 0.170552 0)
(8.65327 0.156324 0)
(8.6818 0.141663 0)
(8.70579 0.127689 0)
(8.72664 0.114756 0)
(8.7452 0.102975 0)
(8.76204 0.092306 0)
(8.7776 0.0826397 0)
(8.79216 0.0738549 0)
(8.80591 0.0658364 0)
(8.81901 0.058478 0)
(8.83155 0.0516846 0)
(8.84363 0.0453737 0)
(8.85532 0.0394734 0)
(8.86668 0.0339216 0)
(8.87777 0.0286636 0)
(8.88866 0.0236502 0)
(8.89941 0.0188349 0)
(8.9101 0.0141696 0)
(8.92083 0.00959882 0)
(8.93169 0.00505121 0)
(8.94284 0.000426018 0)
(8.95442 -0.00442352 0)
(8.9666 -0.00971696 0)
(8.97953 -0.0157713 0)
(8.99334 -0.0230465 0)
(9.00805 -0.0321707 0)
(9.02341 -0.043817 0)
(8.33687 0.0406153 0)
(8.3718 0.109531 0)
(8.42967 0.146829 0)
(8.48609 0.159611 0)
(8.53323 0.159483 0)
(8.57308 0.151963 0)
(8.60659 0.140664 0)
(8.63456 0.128222 0)
(8.65843 0.115894 0)
(8.67937 0.104176 0)
(8.6981 0.0932822 0)
(8.71515 0.0832621 0)
(8.73089 0.0740734 0)
(8.74562 0.065642 0)
(8.75951 0.0578857 0)
(8.77273 0.0507217 0)
(8.78537 0.0440709 0)
(8.79753 0.0378609 0)
(8.80928 0.0320254 0)
(8.82068 0.0265039 0)
(8.83179 0.0212405 0)
(8.84268 0.0161814 0)
(8.85341 0.0112729 0)
(8.86405 0.00645622 0)
(8.87468 0.00166263 0)
(8.88539 -0.00319498 0)
(8.89628 -0.00823287 0)
(8.90744 -0.0136093 0)
(8.91898 -0.0195443 0)
(8.93096 -0.0263316 0)
(8.94337 -0.0343567 0)
(8.9561 -0.0441155 0)
(8.96886 -0.0560519 0)
(8.33583 0.0324677 0)
(8.36261 0.0893655 0)
(8.40925 0.123133 0)
(8.45743 0.136865 0)
(8.49963 0.138983 0)
(8.53642 0.13411 0)
(8.56824 0.125263 0)
(8.59546 0.114774 0)
(8.61908 0.103925 0)
(8.64 0.0933113 0)
(8.65883 0.0832325 0)
(8.67604 0.0738171 0)
(8.69197 0.0650846 0)
(8.70688 0.0570032 0)
(8.72094 0.049519 0)
(8.7343 0.0425684 0)
(8.74707 0.0360845 0)
(8.75933 0.0300021 0)
(8.77115 0.0242588 0)
(8.78261 0.0187951 0)
(8.79375 0.013554 0)
(8.80464 0.00847839 0)
(8.81534 0.00350909 0)
(8.8259 -0.00141934 0)
(8.83639 -0.00638363 0)
(8.84688 -0.0114781 0)
(8.85744 -0.0168233 0)
(8.86811 -0.0225745 0)
(8.87894 -0.0289328 0)
(8.88992 -0.0361505 0)
(8.90098 -0.0445314 0)
(8.91192 -0.0544436 0)
(8.92245 -0.0661533 0)
(8.33513 0.0260906 0)
(8.35599 0.0728769 0)
(8.39382 0.102722 0)
(8.43496 0.116433 0)
(8.47263 0.119923 0)
(8.50648 0.116955 0)
(8.53654 0.110036 0)
(8.56288 0.101185 0)
(8.58611 0.0916457 0)
(8.60692 0.0820616 0)
(8.62582 0.0727838 0)
(8.64316 0.0639903 0)
(8.65926 0.0557436 0)
(8.67433 0.0480443 0)
(8.68856 0.0408619 0)
(8.70207 0.0341499 0)
(8.71496 0.0278538 0)
(8.72732 0.0219165 0)
(8.73922 0.0162807 0)
(8.75072 0.0108898 0)
(8.76188 0.00568689 0)
(8.77275 0.00061381 0)
(8.78339 -0.0043912 0)
(8.79384 -0.00939654 0)
(8.80415 -0.0144813 0)
(8.81438 -0.0197402 0)
(8.82455 -0.0252887 0)
(8.83469 -0.0312686 0)
(8.8448 -0.0378518 0)
(8.85481 -0.0452414 0)
(8.86462 -0.0536621 0)
(8.87401 -0.0633686 0)
(8.88271 -0.074496 0)
(8.33466 0.020996 0)
(8.35116 0.059263 0)
(8.3821 0.0850827 0)
(8.4173 0.0980589 0)
(8.45089 0.102222 0)
(8.48197 0.100553 0)
(8.51027 0.0951185 0)
(8.53563 0.087629 0)
(8.55839 0.0792323 0)
(8.57902 0.070578 0)
(8.5979 0.0620421 0)
(8.61532 0.0538351 0)
(8.63155 0.0460537 0)
(8.64678 0.0387265 0)
(8.66115 0.0318442 0)
(8.6748 0.0253758 0)
(8.68781 0.0192777 0)
(8.70027 0.0135004 0)
(8.71224 0.00799099 0)
(8.72378 0.00269518 0)
(8.73495 -0.00244295 0)
(8.74579 -0.00748159 0)
(8.75635 -0.0124829 0)
(8.76666 -0.0175151 0)
(8.77677 -0.0226556 0)
(8.7867 -0.027994 0)
(8.79647 -0.0336348 0)
(8.80607 -0.0396997 0)
(8.81547 -0.0463275 0)
(8.82459 -0.0536717 0)
(8.83331 -0.0618868 0)
(8.8414 -0.071135 0)
(8.84863 -0.0814592 0)
(8.33432 0.0168445 0)
(8.34759 0.0478954 0)
(8.37314 0.0697647 0)
(8.40338 0.081505 0)
(8.43335 0.0857808 0)
(8.46188 0.0848959 0)
(8.48848 0.0805291 0)
(8.51282 0.0741093 0)
(8.53503 0.0666634 0)
(8.55541 0.0588191 0)
(8.57422 0.050958 0)
(8.59169 0.0433076 0)
(8.60802 0.0359857 0)
(8.62337 0.0290401 0)
(8.63788 0.0224765 0)
(8.65166 0.0162754 0)
(8.66478 0.010402 0)
(8.67733 0.00481277 0)
(8.68936 -0.00054075 0)
(8.70093 -0.00571006 0)
(8.71208 -0.0107491 0)
(8.72287 -0.0157143 0)
(8.73333 -0.0206661 0)
(8.74349 -0.0256698 0)
(8.75337 -0.0307975 0)
(8.763 -0.0361298 0)
(8.77236 -0.0417563 0)
(8.78144 -0.0477759 0)
(8.79018 -0.0542943 0)
(8.79851 -0.0614195 0)
(8.80629 -0.069248 0)
(8.81333 -0.0778705 0)
(8.81944 -0.0872684 0)
(8.33407 0.0133963 0)
(8.34493 0.0382828 0)
(8.36628 0.0563709 0)
(8.39241 0.0665355 0)
(8.41922 0.070483 0)
(8.44543 0.0699519 0)
(8.47041 0.0662905 0)
(8.49374 0.060676 0)
(8.51537 0.0540028 0)
(8.53545 0.0468533 0)
(8.55415 0.0395967 0)
(8.57162 0.0324626 0)
(8.58803 0.0255793 0)
(8.60349 0.0190065 0)
(8.61812 0.0127613 0)
(8.63201 0.00683308 0)
(8.64523 0.00119442 0)
(8.65785 -0.00419273 0)
(8.66993 -0.00937271 0)
(8.68152 -0.0143938 0)
(8.69266 -0.0193073 0)
(8.70338 -0.0241669 0)
(8.71373 -0.0290298 0)
(8.72372 -0.0339562 0)
(8.73338 -0.0390108 0)
(8.7427 -0.0442631 0)
(8.75167 -0.0497862 0)
(8.76026 -0.0556565 0)
(8.76843 -0.061949 0)
(8.77607 -0.068733 0)
(8.78309 -0.07606 0)
(8.78931 -0.0839676 0)
(8.7946 -0.0923999 0)
(8.33389 0.0104786 0)
(8.34293 0.0300403 0)
(8.36099 0.0445572 0)
(8.38375 0.052926 0)
(8.40784 0.0562025 0)
(8.43199 0.05567 0)
(8.45549 0.0523964 0)
(8.47784 0.0473388 0)
(8.49888 0.041259 0)
(8.51864 0.0346805 0)
(8.5372 0.027948 0)
(8.55466 0.0212829 0)
(8.57112 0.0148155 0)
(8.58667 0.00861136 0)
(8.6014 0.00269343 0)
(8.61539 -0.00294299 0)
(8.6287 -0.00832066 0)
(8.64138 -0.0134737 0)
(8.6535 -0.0184432 0)
(8.6651 -0.0232746 0)
(8.6762 -0.0280164 0)
(8.68686 -0.032719 0)
(8.69708 -0.037435 0)
(8.7069 -0.0422187 0)
(8.71632 -0.0471261 0)
(8.72534 -0.0522147 0)
(8.73395 -0.0575418 0)
(8.74211 -0.0631626 0)
(8.74977 -0.069126 0)
(8.75685 -0.0754707 0)
(8.76326 -0.0822143 0)
(8.76887 -0.0893582 0)
(8.77358 -0.0968264 0)
(8.33375 0.00796358 0)
(8.34141 0.0228646 0)
(8.35692 0.0340263 0)
(8.37695 0.0404637 0)
(8.39873 0.0428047 0)
(8.42107 0.0419783 0)
(8.44324 0.0388185 0)
(8.46469 0.0340938 0)
(8.48517 0.0284398 0)
(8.50461 0.0223133 0)
(8.52303 0.0160249 0)
(8.54045 0.0097789 0)
(8.55695 0.0036988 0)
(8.57257 -0.00215055 0)
(8.5874 -0.00774458 0)
(8.60148 -0.0130855 0)
(8.61487 -0.0181934 0)
(8.62762 -0.0230996 0)
(8.63977 -0.0278427 0)
(8.65136 -0.0324652 0)
(8.66243 -0.0370123 0)
(8.67301 -0.0415307 0)
(8.68311 -0.0460677 0)
(8.69276 -0.050671 0)
(8.70196 -0.0553875 0)
(8.71071 -0.0602631 0)
(8.71899 -0.0653401 0)
(8.72678 -0.0706558 0)
(8.73401 -0.0762379 0)
(8.74064 -0.0821017 0)
(8.7466 -0.0882413 0)
(8.75177 -0.0946348 0)
(8.7561 -0.101198 0)
(8.33365 0.00575471 0)
(8.34026 0.0165142 0)
(8.35379 0.0245213 0)
(8.37162 0.0289477 0)
(8.39149 0.0301502 0)
(8.4123 0.0287908 0)
(8.4333 0.025511 0)
(8.45394 0.02092 0)
(8.47391 0.0155376 0)
(8.49306 0.00975123 0)
(8.51133 0.00383136 0)
(8.52872 -0.00204136 0)
(8.54525 -0.00775579 0)
(8.56095 -0.013253 0)
(8.57586 -0.0185108 0)
(8.59003 -0.0235321 0)
(8.60349 -0.0283367 0)
(8.61628 -0.0329549 0)
(8.62846 -0.0374239 0)
(8.64004 -0.0417843 0)
(8.65107 -0.0460787 0)
(8.66156 -0.0503501 0)
(8.67155 -0.0546409 0)
(8.68103 -0.0589925 0)
(8.69002 -0.0634435 0)
(8.69852 -0.0680292 0)
(8.70651 -0.0727797 0)
(8.71397 -0.0777174 0)
(8.72087 -0.0828543 0)
(8.72714 -0.088189 0)
(8.73276 -0.0937009 0)
(8.73764 -0.0993548 0)
(8.74175 -0.105067 0)
(8.33357 0.00377675 0)
(8.33939 0.0107938 0)
(8.3514 0.0158186 0)
(8.3675 0.0181879 0)
(8.38582 0.0180949 0)
(8.40535 0.0160049 0)
(8.42538 0.0124049 0)
(8.44534 0.00776965 0)
(8.46486 0.0025144 0)
(8.48376 -0.00304246 0)
(8.50193 -0.00867486 0)
(8.51931 -0.0142309 0)
(8.53589 -0.0196173 0)
(8.55167 -0.024786 0)
(8.56667 -0.0297211 0)
(8.58092 -0.0344291 0)
(8.59446 -0.0389313 0)
(8.60731 -0.0432588 0)
(8.61951 -0.047448 0)
(8.63109 -0.051538 0)
(8.64208 -0.0555689 0)
(8.65249 -0.0595802 0)
(8.66236 -0.0636096 0)
(8.6717 -0.0676922 0)
(8.68051 -0.0718594 0)
(8.68879 -0.0761374 0)
(8.69653 -0.080546 0)
(8.70373 -0.0850963 0)
(8.71035 -0.0897889 0)
(8.71636 -0.0946117 0)
(8.72174 -0.0995357 0)
(8.72644 -0.104519 0)
(8.73045 -0.109484 0)
(8.33351 0.00196914 0)
(8.33874 0.00554144 0)
(8.3496 0.00772129 0)
(8.36438 0.00800397 0)
(8.38147 0.00649154 0)
(8.4 0.00350967 0)
(8.41925 -0.000577354 0)
(8.43866 -0.00540571 0)
(8.45784 -0.0106523 0)
(8.47656 -0.0160651 0)
(8.49466 -0.0214639 0)
(8.51205 -0.026729 0)
(8.52869 -0.0317893 0)
(8.54456 -0.0366115 0)
(8.55966 -0.0411899 0)
(8.574 -0.0455378 0)
(8.58761 -0.0496812 0)
(8.60051 -0.0536534 0)
(8.61273 -0.0574923 0)
(8.6243 -0.0612369 0)
(8.63524 -0.0649261 0)
(8.64558 -0.0685969 0)
(8.65534 -0.0722834 0)
(8.66453 -0.076016 0)
(8.67317 -0.07982 0)
(8.68125 -0.0837149 0)
(8.68879 -0.0877126 0)
(8.69576 -0.0918168 0)
(8.70216 -0.0960204 0)
(8.70798 -0.100305 0)
(8.7132 -0.10464 0)
(8.7178 -0.108981 0)
(8.72179 -0.113258 0)
(8.33347 0.000281389 0)
(8.33827 0.000618965 0)
(8.3483 5.10157e-05 0)
(8.3621 -0.00178018 0)
(8.37829 -0.00481666 0)
(8.39606 -0.00883037 0)
(8.41475 -0.0135538 0)
(8.43378 -0.0187166 0)
(8.45274 -0.0240781 0)
(8.47137 -0.0294499 0)
(8.48948 -0.0346991 0)
(8.50694 -0.0397407 0)
(8.52369 -0.0445288 0)
(8.53969 -0.049048 0)
(8.55491 -0.0533052 0)
(8.56937 -0.0573224 0)
(8.58307 -0.0611312 0)
(8.59603 -0.0647691 0)
(8.60829 -0.0682754 0)
(8.61986 -0.0716901 0)
(8.63077 -0.0750509 0)
(8.64105 -0.0783932 0)
(8.65071 -0.081748 0)
(8.65978 -0.0851419 0)
(8.66827 -0.0885956 0)
(8.67619 -0.0921232 0)
(8.68355 -0.0957315 0)
(8.69035 -0.099419 0)
(8.69658 -0.103175 0)
(8.70226 -0.106978 0)
(8.70738 -0.110796 0)
(8.71192 -0.114589 0)
(8.71594 -0.118296 0)
(8.33344 -0.00133022 0)
(8.33796 -0.0040957 0)
(8.34742 -0.00735676 0)
(8.36056 -0.0113348 0)
(8.37613 -0.015984 0)
(8.39341 -0.0211407 0)
(8.41175 -0.0266108 0)
(8.43056 -0.032201 0)
(8.44944 -0.0377422 0)
(8.46808 -0.0431062 0)
(8.48627 -0.0482078 0)
(8.50385 -0.0529995 0)
(8.52075 -0.0574649 0)
(8.53689 -0.0616109 0)
(8.55225 -0.0654613 0)
(8.56683 -0.0690508 0)
(8.58063 -0.0724204 0)
(8.59366 -0.075614 0)
(8.60595 -0.0786755 0)
(8.61752 -0.081647 0)
(8.62839 -0.0845673 0)
(8.63861 -0.0874712 0)
(8.64818 -0.0903883 0)
(8.65713 -0.0933427 0)
(8.66549 -0.096352 0)
(8.67326 -0.0994273 0)
(8.68046 -0.102572 0)
(8.68711 -0.105782 0)
(8.69321 -0.109044 0)
(8.69878 -0.112338 0)
(8.70383 -0.115634 0)
(8.70837 -0.118896 0)
(8.71244 -0.122073 0)
(8.33343 -0.00290647 0)
(8.33777 -0.00871742 0)
(8.34692 -0.0146647 0)
(8.35968 -0.0208436 0)
(8.37495 -0.0272031 0)
(8.39201 -0.0336241 0)
(8.41023 -0.039973 0)
(8.42905 -0.0461239 0)
(8.44802 -0.0519737 0)
(8.46682 -0.0574512 0)
(8.48522 -0.062518 0)
(8.50303 -0.0671643 0)
(8.52016 -0.0714028 0)
(8.53652 -0.0752634 0)
(8.55209 -0.0787873 0)
(8.56683 -0.0820225 0)
(8.58076 -0.0850197 0)
(8.59389 -0.08783 0)
(8.60624 -0.0905022 0)
(8.61783 -0.0930817 0)
(8.62869 -0.0956091 0)
(8.63885 -0.0981195 0)
(8.64835 -0.100642 0)
(8.6572 -0.1032 0)
(8.66543 -0.105809 0)
(8.67308 -0.108479 0)
(8.68015 -0.111212 0)
(8.68667 -0.114002 0)
(8.69266 -0.116838 0)
(8.69814 -0.1197 0)
(8.70313 -0.122561 0)
(8.70765 -0.125393 0)
(8.71175 -0.128149 0)
(8.33342 -0.00448698 0)
(8.33771 -0.0133575 0)
(8.34676 -0.0220297 0)
(8.35943 -0.0304744 0)
(8.37466 -0.0386184 0)
(8.39177 -0.046367 0)
(8.41012 -0.0536315 0)
(8.42913 -0.0603435 0)
(8.44834 -0.0664619 0)
(8.46742 -0.0719739 0)
(8.48612 -0.0768929 0)
(8.50423 -0.0812531 0)
(8.52164 -0.085104 0)
(8.53826 -0.0885048 0)
(8.55405 -0.09152 0)
(8.56898 -0.0942157 0)
(8.58306 -0.0966563 0)
(8.59629 -0.0989028 0)
(8.6087 -0.101011 0)
(8.62032 -0.103031 0)
(8.63117 -0.105007 0)
(8.64129 -0.106974 0)
(8.65071 -0.108963 0)
(8.65946 -0.110995 0)
(8.66759 -0.113088 0)
(8.67511 -0.115249 0)
(8.68205 -0.11748 0)
(8.68845 -0.119776 0)
(8.69434 -0.122126 0)
(8.69973 -0.124514 0)
(8.70468 -0.126917 0)
(8.70919 -0.129311 0)
(8.71334 -0.13166 0)
(8.33343 -0.00611298 0)
(8.33778 -0.0181376 0)
(8.34696 -0.0296419 0)
(8.35985 -0.0404796 0)
(8.37537 -0.0505574 0)
(8.39285 -0.0598044 0)
(8.41164 -0.0681743 0)
(8.43114 -0.0756522 0)
(8.45087 -0.0822524 0)
(8.47046 -0.0880137 0)
(8.48965 -0.0929946 0)
(8.50823 -0.0972683 0)
(8.52605 -0.100917 0)
(8.54304 -0.104029 0)
(8.55914 -0.106689 0)
(8.57432 -0.108983 0)
(8.58859 -0.110989 0)
(8.60196 -0.112781 0)
(8.61446 -0.114422 0)
(8.62611 -0.11597 0)
(8.63696 -0.117473 0)
(8.64704 -0.11897 0)
(8.65639 -0.120494 0)
(8.66505 -0.122068 0)
(8.67306 -0.123709 0)
(8.68045 -0.125427 0)
(8.68727 -0.127224 0)
(8.69355 -0.129098 0)
(8.69932 -0.131038 0)
(8.70461 -0.133032 0)
(8.70948 -0.13506 0)
(8.71395 -0.137105 0)
(8.71807 -0.139133 0)
(8.33344 -0.00782938 0)
(8.33796 -0.0231787 0)
(8.3475 -0.0376548 0)
(8.36088 -0.0509741 0)
(8.37698 -0.0630052 0)
(8.3951 -0.0736883 0)
(8.41456 -0.0830176 0)
(8.43474 -0.0910404 0)
(8.45514 -0.0978426 0)
(8.47538 -0.103533 0)
(8.49517 -0.108232 0)
(8.5143 -0.112068 0)
(8.53263 -0.115166 0)
(8.55005 -0.117651 0)
(8.56651 -0.119636 0)
(8.58199 -0.121226 0)
(8.5965 -0.122518 0)
(8.61004 -0.123594 0)
(8.62265 -0.124529 0)
(8.63436 -0.125383 0)
(8.64522 -0.126211 0)
(8.65528 -0.127053 0)
(8.66456 -0.127943 0)
(8.67313 -0.128907 0)
(8.68103 -0.129961 0)
(8.68831 -0.131117 0)
(8.69499 -0.132377 0)
(8.70114 -0.133739 0)
(8.70679 -0.135198 0)
(8.71198 -0.136742 0)
(8.71677 -0.138356 0)
(8.72118 -0.140029 0)
(8.72528 -0.14173 0)
(8.33348 -0.00969331 0)
(8.33832 -0.0286664 0)
(8.34854 -0.046412 0)
(8.36284 -0.0625292 0)
(8.38 -0.0768748 0)
(8.39925 -0.0894089 0)
(8.41986 -0.100155 0)
(8.44117 -0.109201 0)
(8.46263 -0.116679 0)
(8.48384 -0.122747 0)
(8.50449 -0.127574 0)
(8.52438 -0.131334 0)
(8.54335 -0.134194 0)
(8.56131 -0.136316 0)
(8.57821 -0.137845 0)
(8.59404 -0.138914 0)
(8.6088 -0.139641 0)
(8.62253 -0.140126 0)
(8.63525 -0.140458 0)
(8.64701 -0.140708 0)
(8.65787 -0.140938 0)
(8.66787 -0.141194 0)
(8.67707 -0.141515 0)
(8.68553 -0.141929 0)
(8.69329 -0.142455 0)
(8.70041 -0.143106 0)
(8.70694 -0.143886 0)
(8.71292 -0.144796 0)
(8.71841 -0.145831 0)
(8.72344 -0.146983 0)
(8.72807 -0.14824 0)
(8.73234 -0.14959 0)
(8.7363 -0.151008 0)
(8.33352 -0.011765 0)
(8.33881 -0.0347157 0)
(8.34993 -0.0559143 0)
(8.3654 -0.0747747 0)
(8.38385 -0.0911317 0)
(8.40444 -0.104998 0)
(8.42641 -0.116487 0)
(8.44903 -0.125801 0)
(8.47175 -0.13318 0)
(8.49413 -0.138876 0)
(8.51585 -0.143133 0)
(8.53668 -0.146185 0)
(8.55647 -0.148247 0)
(8.57513 -0.149512 0)
(8.59261 -0.150154 0)
(8.60891 -0.150325 0)
(8.62403 -0.150156 0)
(8.63802 -0.14976 0)
(8.65092 -0.14923 0)
(8.66278 -0.148646 0)
(8.67368 -0.148072 0)
(8.68366 -0.147559 0)
(8.6928 -0.147146 0)
(8.70116 -0.146864 0)
(8.70879 -0.146732 0)
(8.71575 -0.146766 0)
(8.72211 -0.146971 0)
(8.72792 -0.147349 0)
(8.73323 -0.147898 0)
(8.7381 -0.148612 0)
(8.74257 -0.149481 0)
(8.7467 -0.150498 0)
(8.75056 -0.151638 0)
(8.3336 -0.0141586 0)
(8.33968 -0.0418 0)
(8.35238 -0.0672616 0)
(8.36989 -0.0898335 0)
(8.39055 -0.109339 0)
(8.41337 -0.125766 0)
(8.43746 -0.139211 0)
(8.46202 -0.149903 0)
(8.48644 -0.158138 0)
(8.51031 -0.164242 0)
(8.5333 -0.168537 0)
(8.5552 -0.171334 0)
(8.57587 -0.172918 0)
(8.59525 -0.173547 0)
(8.61329 -0.173443 0)
(8.63002 -0.1728 0)
(8.64546 -0.171781 0)
(8.65966 -0.170523 0)
(8.67268 -0.169138 0)
(8.68459 -0.167718 0)
(8.69547 -0.166335 0)
(8.70538 -0.165046 0)
(8.7144 -0.163895 0)
(8.72259 -0.162912 0)
(8.73003 -0.162121 0)
(8.73678 -0.161535 0)
(8.74291 -0.161163 0)
(8.74848 -0.161006 0)
(8.75354 -0.161064 0)
(8.75815 -0.161329 0)
(8.76236 -0.161794 0)
(8.76621 -0.162451 0)
(8.76977 -0.163275 0)
(8.33366 -0.0169361 0)
(8.34051 -0.0496909 0)
(8.35481 -0.079112 0)
(8.37436 -0.104317 0)
(8.39724 -0.125343 0)
(8.42243 -0.14245 0)
(8.44893 -0.155979 0)
(8.47583 -0.166351 0)
(8.50247 -0.174002 0)
(8.52835 -0.179342 0)
(8.55312 -0.182753 0)
(8.57657 -0.184584 0)
(8.59856 -0.18515 0)
(8.61901 -0.184726 0)
(8.63793 -0.183554 0)
(8.65535 -0.181841 0)
(8.6713 -0.179763 0)
(8.68587 -0.177466 0)
(8.69914 -0.175072 0)
(8.7112 -0.17268 0)
(8.72213 -0.170367 0)
(8.73201 -0.168195 0)
(8.74095 -0.166211 0)
(8.74901 -0.16445 0)
(8.75629 -0.162936 0)
(8.76284 -0.161684 0)
(8.76875 -0.160705 0)
(8.77408 -0.160001 0)
(8.77889 -0.159572 0)
(8.78325 -0.159414 0)
(8.78722 -0.159519 0)
(8.79085 -0.159881 0)
(8.79422 -0.160472 0)
(8.33391 -0.0204819 0)
(8.3428 -0.0604728 0)
(8.36073 -0.0967029 0)
(8.38444 -0.127961 0)
(8.41135 -0.154037 0)
(8.44019 -0.174973 0)
(8.4699 -0.191084 0)
(8.49954 -0.202935 0)
(8.5285 -0.211161 0)
(8.55634 -0.216373 0)
(8.58277 -0.219142 0)
(8.60759 -0.219978 0)
(8.6307 -0.219322 0)
(8.65208 -0.21755 0)
(8.67172 -0.214973 0)
(8.68968 -0.211848 0)
(8.70604 -0.208385 0)
(8.72087 -0.204752 0)
(8.73428 -0.201081 0)
(8.74637 -0.197479 0)
(8.75725 -0.194025 0)
(8.767 -0.19078 0)
(8.77574 -0.18779 0)
(8.78355 -0.185087 0)
(8.79052 -0.182693 0)
(8.79673 -0.180621 0)
(8.80226 -0.17888 0)
(8.80718 -0.177471 0)
(8.81157 -0.176394 0)
(8.81548 -0.175644 0)
(8.81898 -0.175211 0)
(8.82212 -0.17509 0)
(8.82495 -0.175248 0)
(8.33387 -0.0245307 0)
(8.34359 -0.0706754 0)
(8.36394 -0.109876 0)
(8.39106 -0.141877 0)
(8.42208 -0.167749 0)
(8.4555 -0.188156 0)
(8.48984 -0.203652 0)
(8.52384 -0.214885 0)
(8.55671 -0.222476 0)
(8.58793 -0.226993 0)
(8.61719 -0.228972 0)
(8.64432 -0.228909 0)
(8.66925 -0.227248 0)
(8.69199 -0.224378 0)
(8.71264 -0.220635 0)
(8.73127 -0.216304 0)
(8.74803 -0.211621 0)
(8.76304 -0.206779 0)
(8.77645 -0.201931 0)
(8.78838 -0.197199 0)
(8.79898 -0.192675 0)
(8.80837 -0.188429 0)
(8.81666 -0.184511 0)
(8.82396 -0.180957 0)
(8.83038 -0.177789 0)
(8.836 -0.175022 0)
(8.84092 -0.172663 0)
(8.84521 -0.170715 0)
(8.84895 -0.169175 0)
(8.85221 -0.168041 0)
(8.85506 -0.167302 0)
(8.85756 -0.166953 0)
(8.85981 -0.166954 0)
(8.33498 -0.0314127 0)
(8.35133 -0.0929214 0)
(8.38039 -0.146422 0)
(8.41504 -0.189797 0)
(8.45181 -0.223405 0)
(8.48976 -0.248055 0)
(8.52774 -0.265062 0)
(8.56465 -0.275901 0)
(8.59986 -0.28185 0)
(8.63295 -0.283981 0)
(8.66366 -0.2832 0)
(8.69185 -0.280247 0)
(8.71753 -0.275717 0)
(8.74074 -0.270089 0)
(8.76161 -0.263741 0)
(8.78029 -0.256976 0)
(8.79694 -0.250031 0)
(8.81172 -0.24309 0)
(8.82482 -0.236297 0)
(8.8364 -0.229759 0)
(8.8466 -0.223557 0)
(8.85559 -0.217746 0)
(8.86348 -0.212368 0)
(8.87039 -0.207448 0)
(8.87644 -0.203002 0)
(8.88172 -0.199037 0)
(8.88632 -0.195558 0)
(8.89032 -0.192565 0)
(8.89379 -0.190056 0)
(8.89681 -0.188029 0)
(8.89944 -0.186479 0)
(8.90175 -0.185403 0)
(8.90381 -0.184757 0)
(8.33403 -0.0363972 0)
(8.34988 -0.0990896 0)
(8.38381 -0.147927 0)
(8.42658 -0.187627 0)
(8.47269 -0.220165 0)
(8.5197 -0.245281 0)
(8.56548 -0.263427 0)
(8.60885 -0.2755 0)
(8.64943 -0.282355 0)
(8.68716 -0.284866 0)
(8.72205 -0.283918 0)
(8.75425 -0.280327 0)
(8.78392 -0.274799 0)
(8.81123 -0.267935 0)
(8.83634 -0.260224 0)
(8.85941 -0.252058 0)
(8.88058 -0.243743 0)
(8.9 -0.235509 0)
(8.91779 -0.22753 0)
(8.93409 -0.219928 0)
(8.94901 -0.212791 0)
(8.96266 -0.206175 0)
(8.97516 -0.200113 0)
(8.9866 -0.194623 0)
(8.99709 -0.189712 0)
(9.0067 -0.185376 0)
(9.01551 -0.181612 0)
(9.02361 -0.178413 0)
(9.03106 -0.175776 0)
(9.03793 -0.173702 0)
(9.04432 -0.172198 0)
(9.0503 -0.171275 0)
(9.05601 -0.170902 0)
(8.33959 -0.0605221 0)
(8.37705 -0.169831 0)
(8.42629 -0.24824 0)
(8.47611 -0.301353 0)
(8.52853 -0.336271 0)
(8.58504 -0.357367 0)
(8.64404 -0.36873 0)
(8.7042 -0.373446 0)
(8.76457 -0.373468 0)
(8.82406 -0.37012 0)
(8.88165 -0.364345 0)
(8.9366 -0.35682 0)
(8.98838 -0.348047 0)
(9.03665 -0.338422 0)
(9.08125 -0.328265 0)
(9.12214 -0.317842 0)
(9.15939 -0.307374 0)
(9.19316 -0.297044 0)
(9.22365 -0.287001 0)
(9.25109 -0.277361 0)
(9.27571 -0.268212 0)
(9.29777 -0.259617 0)
(9.31749 -0.251619 0)
(9.3351 -0.244245 0)
(9.35082 -0.237507 0)
(9.36481 -0.231409 0)
(9.37725 -0.225953 0)
(9.38829 -0.221137 0)
(9.39805 -0.216974 0)
(9.40665 -0.213476 0)
(9.4142 -0.210707 0)
(9.4208 -0.20868 0)
(9.42667 -0.207585 0)
(8.33759 -0.0465416 0)
(8.39349 -0.120966 0)
(8.49372 -0.184923 0)
(8.60847 -0.24663 0)
(8.73023 -0.299588 0)
(8.85351 -0.340628 0)
(8.97139 -0.370475 0)
(9.07976 -0.390022 0)
(9.17642 -0.400426 0)
(9.2602 -0.403279 0)
(9.33083 -0.400209 0)
(9.3888 -0.392684 0)
(9.43498 -0.381974 0)
(9.47051 -0.369132 0)
(9.49662 -0.355005 0)
(9.51455 -0.340253 0)
(9.52548 -0.325383 0)
(9.5305 -0.310769 0)
(9.53058 -0.296679 0)
(9.52656 -0.283298 0)
(9.51918 -0.270744 0)
(9.50905 -0.259084 0)
(9.4967 -0.248346 0)
(9.48256 -0.23853 0)
(9.46697 -0.229615 0)
(9.45023 -0.221566 0)
(9.43255 -0.214339 0)
(9.4141 -0.20789 0)
(9.395 -0.202191 0)
(9.37525 -0.197221 0)
(9.35502 -0.193091 0)
(9.33396 -0.189767 0)
(9.31284 -0.188302 0)
(8.40923 -0.221285 0)
(8.63492 -0.428323 0)
(8.83308 -0.522617 0)
(8.97681 -0.583225 0)
(9.07049 -0.615957 0)
(9.11316 -0.626423 0)
(9.10915 -0.62221 0)
(9.0679 -0.607394 0)
(8.99829 -0.584812 0)
(8.90779 -0.557032 0)
(8.80286 -0.526116 0)
(8.68888 -0.493647 0)
(8.57001 -0.46085 0)
(8.44946 -0.42864 0)
(8.32956 -0.397666 0)
(8.212 -0.36836 0)
(8.09793 -0.340985 0)
(7.98808 -0.315671 0)
(7.88289 -0.292454 0)
(7.78255 -0.271302 0)
(7.68708 -0.252137 0)
(7.59639 -0.234848 0)
(7.51032 -0.219308 0)
(7.42865 -0.20538 0)
(7.35112 -0.192918 0)
(7.27746 -0.181778 0)
(7.20739 -0.171807 0)
(7.14061 -0.162857 0)
(7.0768 -0.154755 0)
(7.01552 -0.147336 0)
(6.95636 -0.140504 0)
(6.89817 -0.133365 0)
(6.84141 -0.129645 0)
(8.13709 -0.207148 0)
(7.84774 -0.388016 0)
(7.38553 -0.439347 0)
(6.86022 -0.43994 0)
(6.36082 -0.408589 0)
(5.89023 -0.359583 0)
(5.45108 -0.3052 0)
(5.05074 -0.251834 0)
(4.69029 -0.202703 0)
(4.36776 -0.15942 0)
(4.08076 -0.122428 0)
(3.82645 -0.0915012 0)
(3.60164 -0.0660988 0)
(3.40316 -0.0455317 0)
(3.22801 -0.0290768 0)
(3.07338 -0.0160507 0)
(2.93672 -0.00584353 0)
(2.81574 0.00207003 0)
(2.7084 0.00813138 0)
(2.61289 0.0127053 0)
(2.52765 0.01609 0)
(2.45129 0.0185279 0)
(2.38262 0.020216 0)
(2.32059 0.0213157 0)
(2.26432 0.0219644 0)
(2.21306 0.0222816 0)
(2.16613 0.0223986 0)
(2.12309 0.0224486 0)
(2.08335 0.0226745 0)
(2.04709 0.0234129 0)
(2.01331 0.0249994 0)
(1.98422 0.0303465 0)
(1.95763 0.0247686 0)
(1.40978 0.180466 0)
(2.25691 0.559495 0)
(3.199 0.576404 0)
(3.7691 0.28638 0)