/*--------------------------------*- C++ -*----------------------------------*\
| =========                 |                                                 |
| \\      /  F ield         | OpenFOAM: The Open Source CFD Toolbox           |
|  \\    /   O peration     | Version:  2.1.1                                 |
|   \\  /    A nd           | Web:      www.OpenFOAM.org                      |
|    \\/     M anipulation  |                                                 |
\*---------------------------------------------------------------------------*/
FoamFile
{
    version     2.0;
    format      ascii;
    class       volScalarField;
    location    "0.2";
    object      epsilon;
}
// * * * * * * * * * * * * * * * * * * * * * * * * * * * * * * * * * * * * * //

dimensions      [0 2 -3 0 0 0 0];

internalField   nonuniform List<scalar> 
6820
(
151.448
203.151
260.735
321.761
383.628
443.723
499.761
550.031
593.477
629.659
658.642
680.866
697.008
707.863
714.259
716.991
716.789
714.294
710.058
704.537
698.11
691.08
683.686
676.116
668.513
660.986
653.61
646.454
639.472
633.073
625.366
625.405
589.755
11.7448
21.4176
29.9445
38.6259
47.5828
56.5615
65.3252
73.6724
81.4412
88.5229
94.8627
100.454
105.326
109.536
113.155
116.262
118.932
121.24
123.25
125.021
126.601
128.033
129.349
130.58
131.749
132.877
133.984
135.094
136.231
137.469
138.821
140.779
142.937
5.83781
7.51676
9.20651
10.8091
12.3195
13.747
15.088
16.3387
17.4976
18.5645
19.5412
20.4313
21.2401
21.9741
22.6405
23.247
23.8012
24.3105
24.7818
25.2216
25.6354
26.0285
26.4052
26.7692
27.124
27.4722
27.8163
28.1586
28.5008
28.8456
29.1959
29.5477
29.9538
5.2423
5.56004
6.00442
6.49343
6.98562
7.46177
7.9128
8.33439
8.72488
9.0841
9.41281
9.71236
9.98445
10.231
10.454
10.6555
10.8374
11.0018
11.1506
11.2853
11.4077
11.5193
11.6215
11.7155
11.8025
11.8833
11.9589
12.03
12.0969
12.16
12.219
12.2741
12.3232
5.17349
5.18677
5.26821
5.39775
5.55636
5.72966
5.90776
6.08424
6.25507
6.4178
6.57107
6.71416
6.84684
6.96917
7.08143
7.18403
7.27746
7.36227
7.43906
7.5084
7.57089
7.62709
7.67756
7.72283
7.7634
7.79972
7.83223
7.86132
7.88734
7.91061
7.93137
7.94983
7.96609
5.16878
5.12131
5.09603
5.09482
5.11536
5.15307
5.20299
5.26075
5.32293
5.38694
5.45091
5.51351
5.57384
5.63127
5.68542
5.73607
5.78311
5.82654
5.86641
5.90283
5.93594
5.9659
5.99289
6.0171
6.03871
6.05791
6.07489
6.08984
6.10294
6.11435
6.12424
6.13273
6.14001
5.16887
5.11169
5.06115
5.01963
4.9884
4.96754
4.95615
4.95279
4.95587
4.96386
4.97544
4.98947
5.00505
5.02146
5.03814
5.05466
5.07069
5.086
5.10042
5.11383
5.12617
5.13739
5.1475
5.15648
5.16439
5.17125
5.1771
5.18202
5.18605
5.18926
5.19171
5.19347
5.19459
5.16902
5.11063
5.05514
5.00339
4.95619
4.91413
4.87746
4.8461
4.81971
4.79779
4.77978
4.76509
4.75315
4.74347
4.7356
4.72915
4.7238
4.71927
4.71535
4.71183
4.70858
4.70548
4.70243
4.69936
4.69622
4.69297
4.68958
4.68602
4.68231
4.67843
4.67439
4.67019
4.66584
5.16904
5.11054
5.05431
5.00049
4.94927
4.9009
4.85558
4.81344
4.77454
4.73879
4.70608
4.6762
4.64893
4.62401
4.60122
4.5803
4.56103
4.54321
4.52666
4.5112
4.4967
4.48303
4.47008
4.45774
4.44595
4.43463
4.42372
4.41318
4.40296
4.39303
4.38336
4.37393
4.36471
5.16904
5.11054
5.0542
5.00002
4.94795
4.89803
4.85026
4.8047
4.76136
4.72025
4.68136
4.64462
4.60996
4.57731
4.54653
4.51753
4.49017
4.46435
4.43994
4.41682
4.39491
4.37408
4.35427
4.33537
4.31732
4.30004
4.28348
4.26758
4.25229
4.23757
4.22337
4.20966
4.19641
5.16904
5.11053
5.05418
4.99994
4.94772
4.89747
4.84912
4.80263
4.75798
4.71512
4.67402
4.63466
4.59699
4.56097
4.52653
4.49363
4.4622
4.43216
4.40346
4.37602
4.34977
4.32465
4.3006
4.27754
4.25543
4.2342
4.21381
4.19421
4.17535
4.15719
4.13969
4.12282
4.10653
5.16904
5.11053
5.05417
4.99991
4.94767
4.89735
4.84887
4.80217
4.75717
4.71382
4.67206
4.63185
4.59313
4.55585
4.51998
4.48546
4.45226
4.42031
4.38958
4.36001
4.33157
4.30419
4.27784
4.25247
4.22804
4.20449
4.18181
4.15993
4.13884
4.11849
4.09884
4.07987
4.06154
5.16904
5.11052
5.05416
4.99989
4.94764
4.8973
4.8488
4.80205
4.75697
4.71349
4.67156
4.6311
4.59205
4.55438
4.51802
4.48292
4.44905
4.41635
4.38479
4.35432
4.3249
4.29649
4.26906
4.24256
4.21696
4.19223
4.16833
4.14524
4.12291
4.10132
4.08044
4.06024
4.0407
5.16904
5.11052
5.05415
4.99988
4.94762
4.89727
4.84876
4.80199
4.75689
4.71338
4.6714
4.63087
4.59174
4.55394
4.51743
4.48215
4.44806
4.4151
4.38324
4.35243
4.32263
4.29381
4.26593
4.23895
4.21284
4.18758
4.16312
4.13944
4.11651
4.09431
4.0728
4.05197
4.03178
5.16903
5.11051
5.05414
4.99987
4.9476
4.89725
4.84873
4.80195
4.75684
4.71331
4.67131
4.63076
4.5916
4.55377
4.51722
4.48188
4.44772
4.41468
4.38272
4.3518
4.32187
4.2929
4.26485
4.23769
4.21138
4.1859
4.16121
4.13728
4.1141
4.09162
4.06983
4.0487
4.02821
5.16903
5.11051
5.05414
4.99986
4.94758
4.89723
4.8487
4.80191
4.75679
4.71326
4.67125
4.63069
4.59152
4.55367
4.5171
4.48174
4.44756
4.41449
4.38249
4.35153
4.32156
4.29254
4.26443
4.2372
4.21082
4.18526
4.16048
4.13646
4.11317
4.09059
4.06868
4.04743
4.0268
5.16903
5.1105
5.05413
4.99985
4.94757
4.89721
4.84867
4.80188
4.75675
4.71321
4.67119
4.63062
4.59144
4.55359
4.517
4.48164
4.44744
4.41436
4.38235
4.35137
4.32138
4.29234
4.26421
4.23696
4.21055
4.18496
4.16015
4.13609
4.11276
4.09013
4.06817
4.04686
4.02618
5.16903
5.1105
5.05412
4.99984
4.94756
4.89719
4.84865
4.80185
4.75672
4.71317
4.67114
4.63056
4.59137
4.55351
4.51692
4.48154
4.44734
4.41425
4.38223
4.35124
4.32124
4.29218
4.26404
4.23678
4.21036
4.18475
4.15992
4.13585
4.1125
4.08985
4.06787
4.04654
4.02583
5.16903
5.1105
5.05412
4.99983
4.94755
4.89718
4.84863
4.80182
4.75668
4.71313
4.6711
4.63051
4.59131
4.55344
4.51684
4.48146
4.44724
4.41414
4.38212
4.35112
4.32111
4.29205
4.2639
4.23663
4.2102
4.18458
4.15974
4.13565
4.11229
4.08963
4.06763
4.04629
4.02557
5.16903
5.1105
5.05412
4.99983
4.94754
4.89716
4.84861
4.8018
4.75666
4.7131
4.67105
4.63046
4.59126
4.55338
4.51677
4.48138
4.44716
4.41405
4.38202
4.35101
4.32099
4.29192
4.26377
4.23648
4.21004
4.18442
4.15957
4.13547
4.1121
4.08943
4.06742
4.04607
4.02534
5.16903
5.1105
5.05411
4.99982
4.94753
4.89715
4.8486
4.80178
4.75663
4.71307
4.67102
4.63042
4.59121
4.55332
4.51671
4.48131
4.44708
4.41397
4.38192
4.35091
4.32089
4.29181
4.26364
4.23635
4.2099
4.18427
4.15941
4.13531
4.11193
4.08924
4.06723
4.04586
4.02512
5.16903
5.11049
5.05411
4.99981
4.94752
4.89714
4.84858
4.80176
4.75661
4.71304
4.67099
4.63038
4.59116
4.55327
4.51665
4.48125
4.44701
4.41389
4.38184
4.35082
4.32079
4.2917
4.26353
4.23623
4.20977
4.18413
4.15927
4.13515
4.11176
4.08907
4.06705
4.04567
4.02492
5.16903
5.11049
5.05411
4.99981
4.94752
4.89713
4.84857
4.80175
4.75659
4.71301
4.67096
4.63035
4.59112
4.55323
4.5166
4.48119
4.44695
4.41382
4.38176
4.35074
4.3207
4.2916
4.26342
4.23612
4.20965
4.184
4.15913
4.13501
4.11161
4.08891
4.06687
4.04549
4.02473
5.16903
5.11049
5.05411
4.99981
4.94751
4.89712
4.84856
4.80174
4.75657
4.71299
4.67093
4.63032
4.59109
4.55319
4.51656
4.48114
4.44689
4.41376
4.38169
4.35066
4.32061
4.29151
4.26333
4.23601
4.20954
4.18388
4.159
4.13487
4.11147
4.08875
4.06671
4.04532
4.02455
5.16903
5.11049
5.0541
4.9998
4.94751
4.89712
4.84855
4.80172
4.75656
4.71297
4.67091
4.63029
4.59106
4.55315
4.51652
4.48109
4.44684
4.4137
4.38163
4.35059
4.32054
4.29143
4.26324
4.23592
4.20944
4.18377
4.15889
4.13475
4.11133
4.08861
4.06657
4.04517
4.02439
5.16903
5.11049
5.0541
4.9998
4.9475
4.89711
4.84854
4.80171
4.75654
4.71296
4.67089
4.63027
4.59103
4.55312
4.51648
4.48106
4.44679
4.41365
4.38158
4.35053
4.32047
4.29136
4.26316
4.23583
4.20935
4.18368
4.15878
4.13464
4.11121
4.08849
4.06643
4.04502
4.02424
5.16903
5.11049
5.0541
4.9998
4.9475
4.89711
4.84854
4.8017
4.75653
4.71294
4.67087
4.63025
4.59101
4.55309
4.51645
4.48102
4.44675
4.4136
4.38152
4.35047
4.32041
4.29129
4.26309
4.23575
4.20926
4.18358
4.15868
4.13453
4.1111
4.08837
4.06631
4.04489
4.0241
5.16903
5.11049
5.0541
4.9998
4.9475
4.89711
4.84853
4.8017
4.75653
4.71294
4.67086
4.63024
4.591
4.55308
4.51643
4.48099
4.44673
4.41357
4.38149
4.35043
4.32036
4.29124
4.26303
4.23569
4.2092
4.18351
4.1586
4.13445
4.11101
4.08827
4.0662
4.04478
4.02398
5.16903
5.11049
5.0541
4.9998
4.9475
4.8971
4.84853
4.80169
4.75651
4.71292
4.67085
4.63022
4.59097
4.55305
4.5164
4.48096
4.44669
4.41353
4.38145
4.35039
4.32032
4.29119
4.26297
4.23563
4.20913
4.18344
4.15853
4.13437
4.11093
4.08818
4.06611
4.04468
4.02387
5.16903
5.11049
5.0541
4.9998
4.9475
4.89711
4.84854
4.8017
4.75653
4.71294
4.67086
4.63023
4.59099
4.55307
4.51641
4.48097
4.4467
4.41354
4.38145
4.35038
4.32031
4.29118
4.26296
4.23561
4.2091
4.18341
4.15849
4.13432
4.11088
4.08813
4.06605
4.04461
4.0238
5.16903
5.11049
5.0541
4.9998
4.9475
4.8971
4.84853
4.80169
4.75651
4.71292
4.67084
4.63021
4.59096
4.55304
4.51639
4.48095
4.44667
4.41351
4.38142
4.35036
4.32028
4.29115
4.26293
4.23559
4.20908
4.18339
4.15847
4.1343
4.11086
4.08811
4.06603
4.0446
4.02378
5.16903
5.11049
5.0541
4.99981
4.94752
4.89714
4.84859
4.80176
4.7566
4.71302
4.67094
4.63032
4.59107
4.55315
4.5165
4.48106
4.44679
4.41363
4.38154
4.35048
4.3204
4.29127
4.26306
4.23572
4.20922
4.18353
4.15862
4.13447
4.11103
4.0883
4.06623
4.04482
4.02402
5.16903
5.11051
5.05414
4.99985
4.94756
4.89718
4.84861
4.80178
4.75661
4.71303
4.67096
4.63035
4.59112
4.55321
4.51658
4.48117
4.44692
4.4138
4.38175
4.35073
4.32071
4.29163
4.26347
4.2362
4.20976
4.18415
4.15932
4.13524
4.1119
4.08925
4.06728
4.04596
4.02527
5.16903
5.1105
5.05415
4.99992
4.9477
4.89739
4.8489
4.80215
4.75704
4.71353
4.67153
4.63099
4.59184
4.55403
4.51752
4.48223
4.44814
4.41518
4.38332
4.35251
4.32272
4.29389
4.26601
4.23902
4.21289
4.1876
4.16311
4.1394
4.11642
4.09416
4.07258
4.05167
4.03139
5.16905
5.11063
5.0544
5.00025
4.94809
4.89785
4.84947
4.80288
4.75802
4.71483
4.67324
4.6332
4.59464
4.55752
4.52176
4.48733
4.45416
4.42221
4.39142
4.36174
4.33314
4.30556
4.27896
4.2533
4.22854
4.20464
4.18156
4.15928
4.13775
4.11694
4.09683
4.07739
4.05858
5.16908
5.11079
5.05488
5.00137
4.95017
4.90121
4.85442
4.80974
4.76713
4.72653
4.68786
4.65105
4.61602
4.58268
4.55095
4.52074
4.49197
4.46456
4.43842
4.41348
4.38967
4.36692
4.34516
4.32434
4.3044
4.28529
4.26695
4.24935
4.23244
4.21617
4.20052
4.18545
4.17092
5.16939
5.11358
5.06201
5.01464
4.9715
4.93251
4.89751
4.86622
4.83834
4.81352
4.79145
4.77183
4.75437
4.73881
4.72493
4.7125
4.70135
4.69131
4.68223
4.67399
4.66648
4.6596
4.65326
4.64739
4.64192
4.6368
4.63198
4.62742
4.62307
4.61891
4.61491
4.61105
4.6073
5.17809
5.16328
5.16954
5.19126
5.22449
5.26619
5.31398
5.36597
5.42074
5.4772
5.53451
5.59201
5.64921
5.7057
5.76121
5.81551
5.86844
5.91988
5.96977
6.01804
6.06468
6.10968
6.15305
6.19481
6.23499
6.27362
6.31074
6.3464
6.38063
6.4135
6.44504
6.47531
6.50437
5.63861
6.43043
7.14585
7.82548
8.49431
9.14637
9.77576
10.3801
10.9593
11.5142
12.0461
12.5566
13.0473
13.5194
13.9744
14.4132
14.8369
15.2463
15.6422
16.0252
16.396
16.7551
17.1029
17.44
17.7668
18.0837
18.391
18.689
18.9782
19.2588
19.5312
19.7956
20.0524
44.7794
48.3124
51.8864
55.4656
59.0311
62.5709
66.0744
69.532
72.9348
76.2751
79.546
82.7417
85.8574
88.889
91.8334
94.6882
97.4518
100.123
102.702
105.188
107.581
109.884
112.096
114.22
116.256
118.208
120.077
121.866
123.576
125.21
126.772
128.262
129.685
704.29
838.742
943.808
1021.63
1078.43
1116.16
1134.19
1132.4
1112.44
1077.91
1033.53
984.076
933.545
884.707
839.1
797.273
759.135
724.284
692.242
662.59
635.02
609.324
585.362
563.028
542.222
522.83
504.728
487.778
471.842
456.784
442.476
428.803
415.659
402.948
390.584
378.489
366.589
354.82
343.121
331.44
319.733
307.962
296.098
284.121
272.019
259.792
247.447
235.004
222.491
209.948
197.423
184.972
172.658
160.552
148.724
137.249
126.195
115.63
105.61
96.1831
87.3844
79.236
71.7467
64.9133
58.7211
53.1466
48.159
43.7216
39.7946
36.3355
33.3013
30.6493
28.3383
26.3295
24.5869
23.0776
21.7722
20.6449
19.6728
18.8359
18.1173
17.502
16.9774
16.5328
16.1589
15.8478
15.5928
15.3883
15.2292
15.1113
15.0308
14.984
14.9677
14.9782
15.012
15.0647
15.1325
15.2099
15.2855
15.4064
148.2
155.746
166.369
181.301
201.265
226.723
257.761
293.793
333.44
374.66
415.034
452.104
483.734
508.403
525.374
534.709
537.128
533.792
526.053
515.237
502.492
488.716
474.536
460.349
446.374
432.708
419.381
406.386
393.705
381.317
369.198
357.324
345.67
334.204
322.894
311.702
300.594
289.535
278.494
267.448
256.374
245.261
234.101
222.893
211.646
200.373
189.097
177.848
166.663
155.587
144.671
133.97
123.543
113.45
103.751
94.5027
85.7553
77.5518
69.9248
62.8952
56.4715
50.6498
45.4148
40.7419
36.5988
32.948
29.7489
26.9596
24.5384
22.445
20.6409
19.0908
17.7621
16.6257
15.6558
14.83
14.1287
13.5351
13.0352
12.6168
12.2698
11.9855
11.757
11.578
11.4435
11.3495
11.2922
11.2689
11.2769
11.3142
11.3787
11.4686
11.5818
11.7164
11.8696
12.0387
12.2195
12.4109
12.5863
12.8708
30.3375
30.7675
31.4066
32.4457
34.0524
36.4089
39.5972
43.8036
49.3358
56.512
65.6073
76.8077
90.1635
105.55
122.65
140.96
159.83
178.525
196.3
212.482
226.54
238.121
247.072
253.422
257.34
259.092
258.992
257.354
254.469
250.586
245.904
240.576
234.719
228.416
221.73
214.707
207.385
199.798
191.974
183.943
175.733
167.374
158.895
150.329
141.712
133.08
124.474
115.937
107.518
99.2627
91.2232
83.4493
75.99
68.8913
62.1942
55.9333
50.1349
44.816
39.9833
35.6329
31.7514
28.3165
25.2995
22.6667
20.3822
18.4093
16.7123
15.2575
14.0137
12.9531
12.0505
11.2841
10.6348
10.0862
9.62428
9.23719
8.91497
8.64932
8.43334
8.26131
8.12854
8.03117
7.96608
7.93071
7.92304
7.94146
7.98472
8.05184
8.14207
8.25479
8.38946
8.54548
8.7221
8.91832
9.13264
9.36325
9.6063
9.86414
10.099
10.4915
12.3742
12.4402
12.5222
12.6258
12.7645
12.9595
13.2338
13.6185
14.1276
14.7911
15.6571
16.7848
18.2421
20.1046
22.4527
25.3668
28.9192
33.1633
38.1208
43.7707
50.0414
56.8088
63.9017
71.1132
78.2183
84.9922
91.2292
96.7576
101.449
105.224
108.045
109.915
110.87
110.962
110.261
108.839
106.773
104.138
101.005
97.4429
93.5166
89.2882
84.817
80.16
75.3722
70.5068
65.6157
60.7488
55.9543
51.2779
46.7621
42.4453
38.3609
34.5366
30.9931
27.7442
24.7961
22.1478
19.7913
17.7127
15.8935
14.3118
12.9441
11.7664
10.7554
9.88948
9.14891
8.51632
7.97657
7.5166
7.12527
6.79311
6.5121
6.27551
6.0777
5.91396
5.78043
5.67395
5.59196
5.53241
5.4937
5.47461
5.47423
5.49196
5.52743
5.58048
5.65116
5.73967
5.84632
5.97153
6.11571
6.27927
6.46244
6.66523
6.88715
7.12753
7.38318
7.65901
7.91144
8.35019
7.9825
7.9997
8.01593
8.03141
8.04732
8.06615
8.09154
8.12829
8.18137
8.25316
8.34921
8.47693
8.6453
8.86489
9.14772
9.50721
9.95797
10.5155
11.1955
12.0137
12.9843
14.119
15.4256
16.9056
18.5524
20.3497
22.2697
24.2737
26.3129
28.3313
30.2687
32.0651
33.664
35.0166
36.0837
36.8379
37.264
37.3586
37.1295
36.5939
35.7765
34.708
33.4229
31.9582
30.3516
28.6408
26.8625
25.0513
23.2395
21.4563
19.7272
18.0736
16.513
15.0579
13.7167
12.4938
11.3896
10.4012
9.52348
8.74905
8.06944
7.47552
6.95803
6.50804
6.11721
5.77799
5.48368
5.22845
5.0073
4.81593
4.65071
4.50855
4.38685
4.2834
4.1964
4.12435
4.06603
4.02051
3.98707
3.9652
3.9546
3.95512
3.96678
3.98975
4.02434
4.071
4.13032
4.20301
4.2899
4.39191
4.51002
4.64526
4.79856
4.97075
5.16228
5.37359
5.60253
5.85572
6.08961
6.51563
6.14683
6.15248
6.156
6.15762
6.15759
6.15622
6.15402
6.15184
6.15066
6.15136
6.15504
6.1631
6.17719
6.19927
6.23159
6.27669
6.33733
6.41647
6.51713
6.64233
6.79496
6.97767
7.1927
7.4417
7.72549
8.04387
8.39527
8.7766
9.183
9.60775
10.0423
10.4763
10.8981
11.295
11.6543
11.9632
12.2106
12.3868
12.4849
12.5008
12.4333
12.2846
12.0593
11.7645
11.4093
11.0038
10.559
10.0861
9.59601
9.09887
8.60393
8.11919
7.65128
7.2054
6.78536
6.39369
6.03174
5.69988
5.39767
5.12402
4.8774
4.65593
4.4576
4.28031
4.12204
3.98084
3.85495
3.74277
3.64289
3.55409
3.47529
3.40561
3.34425
3.29059
3.24411
3.20437
3.1711
3.14409
3.12323
3.10853
3.10008
3.09805
3.10272
3.11446
3.13375
3.16115
3.19735
3.24314
3.29945
3.36729
3.44782
3.54225
3.65185
3.7779
3.92148
4.08381
4.26391
4.46906
4.66065
5.02885
5.19505
5.1944
5.19239
5.18897
5.18414
5.17793
5.17044
5.16185
5.15235
5.1422
5.13169
5.12116
5.111
5.10166
5.09368
5.08768
5.08433
5.08442
5.08873
5.09809
5.1133
5.13511
5.16415
5.20092
5.24571
5.29858
5.35928
5.42724
5.50155
5.58088
5.66354
5.74746
5.83025
5.90924
5.98158
6.04436
6.09475
6.13013
6.14825
6.14738
6.12637
6.08472
6.02265
5.941
5.8412
5.72518
5.59524
5.45396
5.30403
5.14816
4.98899
4.82895
4.67024
4.51478
4.36414
4.21958
4.08203
3.95211
3.8302
3.71643
3.61072
3.51285
3.42248
3.33919
3.2625
3.19193
3.12699
3.06725
3.01227
2.96169
2.91517
2.87245
2.83328
2.79749
2.76493
2.73553
2.70924
2.68607
2.6661
2.64943
2.63623
2.62673
2.62122
2.62004
2.62361
2.63243
2.6471
2.66829
2.69678
2.73348
2.7794
2.83569
2.90357
2.98437
3.07936
3.1901
3.31642
3.46526
3.6058
3.89235
4.66052
4.65394
4.6466
4.63845
4.62946
4.61962
4.60894
4.59743
4.58513
4.57206
4.55828
4.54387
4.52893
4.51354
4.49785
4.48201
4.46619
4.4506
4.43548
4.42108
4.40766
4.39548
4.3848
4.37582
4.36871
4.36356
4.3604
4.35913
4.35958
4.36143
4.36426
4.36754
4.37062
4.37279
4.37325
4.37119
4.36579
4.35626
4.3419
4.32214
4.29653
4.26479
4.22685
4.18281
4.13294
4.07768
4.0176
3.95339
3.88581
3.81568
3.74381
3.671
3.59803
3.52558
3.45427
3.38463
3.31707
3.25192
3.18941
3.12967
3.07277
3.01871
2.96743
2.91883
2.87277
2.82912
2.78772
2.7484
2.71103
2.67548
2.64161
2.60934
2.57859
2.5493
2.52146
2.49506
2.47013
2.44672
2.42493
2.40486
2.38667
2.37055
2.35672
2.34545
2.33706
2.33194
2.33052
2.33331
2.34092
2.35404
2.37346
2.40008
2.43493
2.47914
2.53387
2.60058
2.67955
2.77656
2.86924
3.07121
4.35417
4.34207
4.32966
4.31689
4.30372
4.29012
4.27605
4.26151
4.24647
4.23093
4.2149
4.19838
4.18138
4.1639
4.14597
4.1276
4.10884
4.08971
4.07028
4.05061
4.03077
4.01085
3.99094
3.97113
3.95148
3.93207
3.91295
3.89412
3.87559
3.85728
3.83913
3.82099
3.8027
3.78405
3.76483
3.74477
3.72363
3.70115
3.67709
3.65126
3.62349
3.59368
3.56177
3.52777
3.49176
3.45387
3.41428
3.37322
3.33095
3.28776
3.24394
3.19979
3.15559
3.11163
3.06813
3.0253
2.98332
2.94231
2.90236
2.86353
2.82585
2.78931
2.75389
2.71955
2.68623
2.65387
2.62241
2.59178
2.5619
2.53273
2.5042
2.47628
2.44894
2.42216
2.39595
2.37033
2.34532
2.32098
2.29739
2.27464
2.25283
2.23211
2.21264
2.1946
2.17823
2.16379
2.15159
2.14198
2.1354
2.13234
2.13336
2.13913
2.15042
2.16808
2.19305
2.22651
2.26887
2.32448
2.37851
2.50683
4.18147
4.16461
4.1477
4.13069
4.11356
4.09626
4.07879
4.06111
4.04321
4.02507
4.00668
3.98801
3.96907
3.94983
3.93028
3.91041
3.89022
3.8697
3.84884
3.82766
3.80616
3.78437
3.76229
3.73995
3.71738
3.69461
3.67166
3.64855
3.62529
3.60189
3.57835
3.55464
3.53073
3.50659
3.48215
3.45736
3.43214
3.40643
3.38016
3.35327
3.32571
3.29745
3.26849
3.23882
3.20848
3.17753
3.14605
3.11411
3.08183
3.04932
3.0167
2.98408
2.95157
2.91928
2.8873
2.8557
2.82454
2.79385
2.76365
2.73395
2.70474
2.676
2.64769
2.6198
2.59228
2.56509
2.5382
2.51156
2.48514
2.45891
2.43283
2.40689
2.38107
2.35536
2.32978
2.30435
2.27908
2.25403
2.22925
2.2048
2.18076
2.15723
2.13432
2.11215
2.09089
2.07069
2.05178
2.03438
2.01879
2.00534
1.99442
1.98648
1.98206
1.98178
1.98631
1.99653
2.01286
2.03824
2.06393
2.1349
4.08822
4.06764
4.04713
4.02666
4.00621
3.98575
3.96527
3.94475
3.92417
3.90351
3.88278
3.86194
3.84099
3.81992
3.79871
3.77733
3.75579
3.73406
3.71212
3.68998
3.66761
3.64501
3.62218
3.59912
3.57583
3.55231
3.52857
3.50461
3.48045
3.4561
3.43156
3.40684
3.38193
3.35685
3.33159
3.30614
3.2805
3.25467
3.22862
3.20237
3.17589
3.14921
3.12233
3.09526
3.06803
3.04067
3.01322
2.98572
2.95822
2.93077
2.90341
2.87619
2.84915
2.82233
2.79575
2.76943
2.74336
2.71755
2.69198
2.66664
2.64148
2.6165
2.59164
2.56688
2.54219
2.51754
2.4929
2.46824
2.44354
2.41877
2.39392
2.36897
2.34391
2.31874
2.29347
2.26812
2.2427
2.21726
2.19182
2.16644
2.14118
2.11609
2.09125
2.06675
2.04268
2.01917
1.99633
1.97434
1.95336
1.93363
1.91538
1.89892
1.8846
1.87284
1.86411
1.85901
1.85792
1.86259
1.86886
1.89847
4.04092
4.01775
3.99467
3.97166
3.94872
3.92584
3.903
3.8802
3.85742
3.83466
3.8119
3.78915
3.76639
3.74362
3.72081
3.69796
3.67507
3.65211
3.62907
3.60594
3.58272
3.55938
3.53593
3.51235
3.48864
3.46479
3.4408
3.41668
3.39242
3.36803
3.34352
3.31888
3.29414
3.26929
3.24435
3.21932
3.19422
3.16905
3.14383
3.11856
3.09326
3.06795
3.04263
3.01732
2.99205
2.96684
2.9417
2.91667
2.89177
2.86702
2.84243
2.81802
2.7938
2.76978
2.74595
2.72231
2.69883
2.67549
2.65227
2.62913
2.60604
2.58297
2.55987
2.53672
2.5135
2.49016
2.46669
2.44307
2.41928
2.39529
2.3711
2.34669
2.32206
2.29721
2.27215
2.24689
2.22144
2.19584
2.1701
2.14428
2.11841
2.09253
2.06669
2.04097
2.01541
1.99009
1.96511
1.94056
1.91654
1.89321
1.87071
1.84923
1.829
1.81029
1.7934
1.77871
1.76657
1.75781
1.75147
1.75299
4.01867
3.99388
3.96917
3.94451
3.91993
3.8954
3.87092
3.8465
3.82212
3.7978
3.77352
3.74928
3.72508
3.70091
3.67678
3.65267
3.62858
3.6045
3.58043
3.55636
3.53227
3.50817
3.48405
3.45989
3.43571
3.41148
3.38721
3.36289
3.33853
3.31413
3.28969
3.26521
3.24071
3.21618
3.19164
3.1671
3.14257
3.11805
3.09357
3.06913
3.04475
3.02043
2.99621
2.97208
2.94808
2.9242
2.90046
2.87689
2.85348
2.83026
2.80721
2.78435
2.76167
2.73916
2.7168
2.69458
2.67247
2.65043
2.62845
2.60647
2.58446
2.56239
2.54023
2.51794
2.49549
2.47286
2.45003
2.42698
2.40369
2.38015
2.35634
2.33226
2.3079
2.28327
2.25836
2.2332
2.2078
2.18217
2.15635
2.13035
2.10422
2.07799
2.05169
2.02537
1.99908
1.97286
1.94677
1.92087
1.89524
1.86996
1.84513
1.82086
1.79729
1.77458
1.75293
1.73256
1.71376
1.69673
1.68264
1.66607
4.00899
3.98331
3.95767
3.93207
3.90651
3.88098
3.8555
3.83006
3.80466
3.7793
3.75399
3.72873
3.70352
3.67836
3.65325
3.62819
3.60318
3.57821
3.5533
3.52842
3.50359
3.4788
3.45404
3.42932
3.40462
3.37996
3.35533
3.33072
3.30614
3.2816
3.25708
3.23261
3.20818
3.18379
3.15947
3.1352
3.11101
3.0869
3.06288
3.03897
3.01516
2.99148
2.96794
2.94454
2.92129
2.89821
2.8753
2.85257
2.83002
2.80765
2.78547
2.76347
2.74162
2.71993
2.69836
2.6769
2.65551
2.63417
2.61283
2.59146
2.57003
2.54849
2.52682
2.50499
2.48297
2.46073
2.43825
2.41552
2.39253
2.36925
2.34567
2.3218
2.29763
2.27316
2.24839
2.22333
2.19801
2.17243
2.14661
2.12059
2.09439
2.06803
2.04156
2.01499
1.98837
1.96174
1.93512
1.90857
1.88214
1.85587
1.82983
1.80409
1.77873
1.75385
1.72957
1.70601
1.68342
1.66157
1.64297
1.61536
4.00505
3.97894
3.95283
3.92674
3.90066
3.8746
3.84856
3.82255
3.79656
3.7706
3.74467
3.71879
3.69294
3.66714
3.64139
3.61569
3.59005
3.56447
3.53894
3.51347
3.48807
3.46273
3.43745
3.41224
3.3871
3.36203
3.33702
3.31209
3.28724
3.26247
3.23778
3.21317
3.18866
3.16425
3.13995
3.11575
3.09168
3.06773
3.04392
3.02025
2.99674
2.97338
2.95018
2.92716
2.90432
2.88166
2.85919
2.8369
2.81481
2.7929
2.77116
2.7496
2.72819
2.70691
2.68574
2.66466
2.64364
2.62263
2.60162
2.58056
2.55941
2.53815
2.51673
2.49514
2.47334
2.45132
2.42904
2.4065
2.38368
2.36056
2.33714
2.31341
2.28938
2.26503
2.24037
2.21542
2.19018
2.16468
2.13893
2.11295
2.08677
2.0604
2.03389
2.00726
1.98053
1.95373
1.9269
1.90007
1.87327
1.84654
1.81992
1.79346
1.7672
1.7412
1.71555
1.69029
1.66566
1.64115
1.62008
1.5861
4.00348
3.97717
3.95085
3.92453
3.8982
3.87188
3.84557
3.81926
3.79296
3.76668
3.74042
3.71419
3.68799
3.66182
3.6357
3.60961
3.58358
3.5576
3.53168
3.50581
3.48002
3.45429
3.42864
3.40307
3.37758
3.35217
3.32685
3.30163
3.27651
3.2515
3.22659
3.20181
3.17714
3.15261
3.12821
3.10395
3.07985
3.0559
3.03211
3.0085
2.98506
2.9618
2.93873
2.91585
2.89317
2.87068
2.84839
2.82629
2.80438
2.78267
2.76112
2.73974
2.71851
2.69741
2.67641
2.65549
2.63461
2.61375
2.59288
2.57194
2.55092
2.52978
2.50848
2.487
2.46532
2.4434
2.42124
2.3988
2.37608
2.35307
2.32976
2.30614
2.2822
2.25795
2.2334
2.20854
2.1834
2.15798
2.13231
2.1064
2.08028
2.05397
2.02749
2.00088
1.97414
1.94732
1.92043
1.89351
1.86657
1.83966
1.81279
1.786
1.75933
1.7328
1.70648
1.68038
1.65471
1.62881
1.60646
1.56902
4.0028
3.9764
3.94999
3.92356
3.89712
3.87068
3.84424
3.81779
3.79135
3.76491
3.73848
3.71207
3.68569
3.65932
3.63299
3.60669
3.58043
3.55422
3.52806
3.50196
3.47592
3.44994
3.42404
3.39821
3.37247
3.34682
3.32127
3.29582
3.27048
3.24525
3.22014
3.19517
3.17033
3.14564
3.1211
3.09672
3.0725
3.04846
3.0246
3.00092
2.97744
2.95415
2.93106
2.90818
2.8855
2.86302
2.84075
2.81868
2.7968
2.77512
2.75361
2.73226
2.71106
2.68998
2.66901
2.64811
2.62726
2.60642
2.58557
2.56466
2.54367
2.52256
2.5013
2.47986
2.45822
2.43636
2.41425
2.39187
2.36922
2.34628
2.32304
2.2995
2.27564
2.25148
2.22701
2.20225
2.17719
2.15187
2.12628
2.10046
2.07442
2.04818
2.02177
1.99521
1.96853
1.94174
1.91487
1.88795
1.861
1.83404
1.80709
1.78018
1.75335
1.7266
1.69998
1.6735
1.64735
1.62077
1.5978
1.55859
4.00241
3.97598
3.94952
3.92305
3.89656
3.87006
3.84355
3.81704
3.79053
3.76401
3.7375
3.711
3.68452
3.65805
3.63161
3.6052
3.57881
3.55247
3.52617
3.49993
3.47373
3.4476
3.42154
3.39555
3.36965
3.34383
3.3181
3.29248
3.26696
3.24157
3.21629
3.19115
3.16616
3.14131
3.11662
3.09209
3.06774
3.04357
3.01958
2.99579
2.9722
2.94881
2.92563
2.90266
2.8799
2.85734
2.835
2.81286
2.79092
2.76917
2.7476
2.72619
2.70493
2.6838
2.66277
2.64182
2.62092
2.60004
2.57914
2.5582
2.53718
2.51604
2.49477
2.47333
2.4517
2.42985
2.40777
2.38543
2.36282
2.33992
2.31674
2.29326
2.26947
2.24538
2.22099
2.19631
2.17134
2.1461
2.12061
2.09488
2.06892
2.04277
2.01645
1.98996
1.96335
1.93663
1.90982
1.88294
1.85602
1.82908
1.80214
1.77523
1.74835
1.72154
1.69482
1.66818
1.64184
1.61497
1.59173
1.55168
4.00213
3.97567
3.94919
3.92269
3.89617
3.86964
3.8431
3.81655
3.79
3.76344
3.73689
3.71034
3.68381
3.65728
3.63078
3.6043
3.57784
3.55142
3.52504
3.49871
3.47242
3.44619
3.42002
3.39393
3.3679
3.34196
3.31612
3.29036
3.26472
3.23919
3.21378
3.18851
3.16337
3.13838
3.11355
3.08888
3.06439
3.04008
3.01596
2.99204
2.96831
2.94479
2.92148
2.89838
2.8755
2.85282
2.83036
2.80811
2.78605
2.76419
2.7425
2.72099
2.69962
2.67839
2.65726
2.63621
2.61522
2.59425
2.57328
2.55226
2.53118
2.51
2.48869
2.46723
2.44558
2.42372
2.40164
2.37932
2.35673
2.33387
2.31073
2.2873
2.26357
2.23955
2.21524
2.19063
2.16575
2.14059
2.11519
2.08954
2.06368
2.03762
2.01138
1.98498
1.95845
1.9318
1.90507
1.87826
1.85141
1.82452
1.79763
1.77075
1.7439
1.71709
1.69037
1.6637
1.6373
1.61033
1.587
1.54661
4.00189
3.97541
3.94891
3.92239
3.89585
3.8693
3.84273
3.81616
3.78958
3.763
3.73641
3.70984
3.68326
3.6567
3.63016
3.60363
3.57713
3.55066
3.52422
3.49783
3.47148
3.44518
3.41893
3.39276
3.36665
3.34062
3.31468
3.28883
3.26308
3.23744
3.21193
3.18653
3.16128
3.13617
3.11121
3.08642
3.06179
3.03735
3.01309
2.98903
2.96517
2.94151
2.91806
2.89482
2.87179
2.84898
2.82638
2.80399
2.7818
2.7598
2.73798
2.71633
2.69483
2.67347
2.65222
2.63105
2.60995
2.58888
2.56781
2.54671
2.52555
2.50431
2.48294
2.46143
2.43975
2.41788
2.39579
2.37347
2.3509
2.32807
2.30496
2.28158
2.2579
2.23394
2.20969
2.18516
2.16035
2.13528
2.10996
2.08441
2.05863
2.03266
2.00651
1.98021
1.95376
1.9272
1.90055
1.87382
1.84704
1.82023
1.7934
1.76658
1.73979
1.71303
1.68634
1.6597
1.63331
1.60633
1.583
1.5425
4.00166
3.97517
3.94865
3.92211
3.89555
3.86898
3.8424
3.81581
3.78921
3.7626
3.73599
3.70939
3.68279
3.6562
3.62962
3.60306
3.57652
3.55001
3.52353
3.49709
3.47068
3.44433
3.41803
3.39179
3.36561
3.33951
3.31349
3.28756
3.26173
3.236
3.21038
3.18489
3.15953
3.13431
3.10924
3.08433
3.05958
3.03501
3.01063
2.98643
2.96244
2.93864
2.91505
2.89167
2.8685
2.84555
2.8228
2.80027
2.77793
2.75579
2.73383
2.71204
2.6904
2.6689
2.64752
2.62623
2.605
2.58382
2.56264
2.54145
2.5202
2.49888
2.47746
2.4559
2.43418
2.41228
2.39018
2.36786
2.3453
2.32249
2.29941
2.27606
2.25244
2.22853
2.20435
2.17989
2.15516
2.13017
2.10493
2.07947
2.05378
2.0279
2.00185
1.97563
1.94928
1.9228
1.89624
1.8696
1.8429
1.81616
1.78941
1.76266
1.73593
1.70924
1.68261
1.65602
1.62968
1.60273
1.57943
1.53893
4.00144
3.97494
3.9484
3.92185
3.89528
3.86869
3.84209
3.81548
3.78886
3.76223
3.7356
3.70897
3.68235
3.65573
3.62912
3.60253
3.57596
3.54941
3.52289
3.49641
3.46996
3.44356
3.41721
3.39091
3.36468
3.33851
3.31243
3.28642
3.26051
3.2347
3.209
3.18342
3.15796
3.13264
3.10747
3.08245
3.05759
3.03291
3.0084
2.98408
2.95995
2.93602
2.9123
2.88878
2.86548
2.84238
2.81949
2.79681
2.77433
2.75204
2.72994
2.70801
2.68623
2.6646
2.64308
2.62166
2.60031
2.57901
2.55773
2.53643
2.5151
2.49371
2.47221
2.4506
2.42884
2.40691
2.38479
2.36247
2.33991
2.31712
2.29407
2.27076
2.24718
2.22333
2.19921
2.17482
2.15017
2.12526
2.10011
2.07473
2.04914
2.02336
1.99739
1.97127
1.94501
1.91863
1.89215
1.86559
1.83898
1.81233
1.78565
1.75898
1.73232
1.7057
1.67913
1.65261
1.62632
1.59943
1.57618
1.53573
4.00124
3.97472
3.94818
3.92161
3.89502
3.86841
3.8418
3.81517
3.78853
3.76188
3.73523
3.70858
3.68193
3.65529
3.62865
3.60203
3.57543
3.54885
3.5223
3.49577
3.46928
3.44284
3.41644
3.39009
3.3638
3.33758
3.31143
3.28536
3.25938
3.2335
3.20772
3.18205
3.15651
3.1311
3.10583
3.08071
3.05574
3.03095
3.00633
2.98189
2.95764
2.93359
2.90973
2.88609
2.86265
2.83941
2.81639
2.79357
2.77095
2.74852
2.72627
2.7042
2.68229
2.66052
2.63887
2.61732
2.59585
2.57444
2.55305
2.53166
2.51024
2.48876
2.4672
2.44554
2.42373
2.40178
2.37964
2.3573
2.33476
2.31198
2.28896
2.26569
2.24216
2.21837
2.19431
2.17
2.14542
2.1206
2.09554
2.07026
2.04476
2.01907
1.9932
1.96717
1.941
1.91472
1.88833
1.86186
1.83533
1.80876
1.78217
1.75557
1.72898
1.70243
1.67593
1.64947
1.62324
1.59641
1.57321
1.53283
4.00105
3.97452
3.94796
3.92138
3.89478
3.86816
3.84152
3.81487
3.78821
3.76155
3.73488
3.70821
3.68153
3.65487
3.62821
3.60156
3.57493
3.54832
3.52173
3.49517
3.46864
3.44215
3.41571
3.38931
3.36297
3.3367
3.31049
3.28436
3.25832
3.23236
3.20651
3.18077
3.15514
3.12964
3.10428
3.07907
3.054
3.0291
3.00438
2.97983
2.95546
2.93129
2.90732
2.88355
2.85998
2.83661
2.81346
2.7905
2.76775
2.74519
2.72281
2.7006
2.67856
2.65666
2.63488
2.61321
2.59162
2.5701
2.5486
2.52712
2.50561
2.48406
2.46244
2.44072
2.41888
2.39689
2.37474
2.3524
2.32987
2.30711
2.28412
2.2609
2.23742
2.2137
2.18971
2.16548
2.14099
2.11626
2.0913
2.06611
2.04071
2.01512