/*--------------------------------*- C++ -*----------------------------------*\
| =========                 |                                                 |
| \\      /  F ield         | OpenFOAM: The Open Source CFD Toolbox           |
|  \\    /   O peration     | Version:  2.1.1                                 |
|   \\  /    A nd           | Web:      www.OpenFOAM.org                      |
|    \\/     M anipulation  |                                                 |
\*---------------------------------------------------------------------------*/
FoamFile
{
    version     2.0;
    format      ascii;
    class       volScalarField;
    location    "0.2";
    object      k;
}
// * * * * * * * * * * * * * * * * * * * * * * * * * * * * * * * * * * * * * //

dimensions      [0 2 -2 0 0 0 0];

internalField   nonuniform List<scalar> 
6820
(
0.288909
0.351398
0.415005
0.477466
0.536859
0.591555
0.640366
0.682619
0.718108
0.747005
0.769756
0.786976
0.799366
0.807644
0.812501
0.814572
0.814418
0.812528
0.809312
0.805112
0.800208
0.794826
0.789147
0.783311
0.777428
0.771581
0.76583
0.76023
0.754747
0.749703
0.743606
0.743637
0.715101
0.265532
0.269396
0.270523
0.271341
0.272559
0.274217
0.276229
0.278483
0.280866
0.283294
0.285712
0.288087
0.290412
0.292691
0.294938
0.297172
0.299413
0.30168
0.303989
0.306353
0.308781
0.311279
0.313852
0.3165
0.319224
0.322025
0.324904
0.327869
0.330934
0.334158
0.337555
0.341637
0.345809
0.262038
0.264253
0.263596
0.261556
0.259
0.256318
0.253626
0.250938
0.24824
0.245524
0.242794
0.240061
0.237345
0.234668
0.232052
0.229518
0.227086
0.22477
0.222583
0.220535
0.218631
0.216876
0.215272
0.213817
0.212511
0.211351
0.210333
0.209455
0.208712
0.208107
0.207629
0.207307
0.207083
0.259885
0.260272
0.259797
0.258535
0.256829
0.254891
0.252833
0.250709
0.248546
0.246358
0.244151
0.241934
0.239712
0.237493
0.235285
0.233094
0.230929
0.228797
0.226703
0.224654
0.222655
0.22071
0.218822
0.216994
0.215228
0.213525
0.211885
0.21031
0.208797
0.207347
0.205956
0.204627
0.203349
0.259299
0.258404
0.2576
0.256567
0.255295
0.25385
0.252292
0.250661
0.248984
0.247277
0.245551
0.243814
0.242074
0.240334
0.2386
0.236875
0.235164
0.23347
0.231796
0.230145
0.22852
0.226923
0.225355
0.22382
0.222317
0.220849
0.219416
0.218018
0.216656
0.21533
0.214039
0.212786
0.211568
0.259224
0.257848
0.256623
0.255437
0.254227
0.25297
0.251663
0.250312
0.248929
0.247522
0.2461
0.24467
0.243236
0.241804
0.240376
0.238957
0.237547
0.236151
0.234769
0.233404
0.232057
0.23073
0.229424
0.22814
0.226878
0.22564
0.224426
0.223237
0.222072
0.220933
0.21982
0.218733
0.217673
0.259217
0.257715
0.256309
0.25498
0.253698
0.252442
0.251196
0.249951
0.248704
0.247455
0.246204
0.244955
0.243709
0.242469
0.241236
0.240012
0.238799
0.237599
0.236412
0.23524
0.234084
0.232944
0.231822
0.230717
0.229631
0.228564
0.227516
0.226487
0.225479
0.224491
0.223523
0.222576
0.221652
0.259218
0.25769
0.256225
0.254822
0.253477
0.252181
0.250924
0.249696
0.248492
0.247306
0.246136
0.244981
0.243839
0.24271
0.241594
0.240492
0.239404
0.238331
0.237272
0.236228
0.235201
0.234189
0.233193
0.232214
0.231252
0.230307
0.229379
0.228468
0.227574
0.226699
0.225841
0.225001
0.224179
0.259218
0.257686
0.256207
0.25478
0.253405
0.25208
0.250799
0.24956
0.248357
0.247185
0.246042
0.244924
0.24383
0.242757
0.241704
0.240671
0.239656
0.238659
0.237679
0.236718
0.235773
0.234846
0.233935
0.233041
0.232164
0.231304
0.23046
0.229632
0.228821
0.228027
0.227249
0.226487
0.225742
0.259218
0.257686
0.256203
0.254769
0.253384
0.252045
0.250751
0.2495
0.248288
0.247114
0.245974
0.244866
0.243788
0.242737
0.241712
0.240712
0.239734
0.238778
0.237844
0.236929
0.236035
0.235159
0.234302
0.233462
0.232641
0.231836
0.231049
0.230278
0.229524
0.228785
0.228064
0.227357
0.226667
0.259218
0.257686
0.256202
0.254767
0.253378
0.252035
0.250735
0.249477
0.248259
0.24708
0.245937
0.244829
0.243753
0.242708
0.241692
0.240704
0.239743
0.238806
0.237893
0.237003
0.236134
0.235287
0.23446
0.233652
0.232864
0.232094
0.231341
0.230606
0.229888
0.229187
0.228502
0.227833
0.227179
0.259218
0.257685
0.256201
0.254766
0.253376
0.252031
0.250729
0.249469
0.248248
0.247066
0.24592
0.244809
0.243732
0.242688
0.241673
0.240689
0.239732
0.238802
0.237897
0.237017
0.236161
0.235327
0.234515
0.233724
0.232953
0.232202
0.231469
0.230754
0.230058
0.229378
0.228716
0.228069
0.227439
0.259218
0.257685
0.256201
0.254765
0.253375
0.252029
0.250727
0.249465
0.248243
0.247059
0.245912
0.2448
0.243721
0.242676
0.241661
0.240676
0.23972
0.238792
0.23789
0.237013
0.236161
0.235333
0.234527
0.233743
0.23298
0.232237
0.231514
0.23081
0.230125
0.229457
0.228806
0.228173
0.227555
0.259218
0.257685
0.256201
0.254764
0.253374
0.252028
0.250725
0.249463
0.248241
0.247056
0.245908
0.244795
0.243716
0.242669
0.241653
0.240668
0.239711
0.238783
0.237881
0.237005
0.236154
0.235328
0.234524
0.233742
0.232983
0.232243
0.231525
0.230825
0.230144
0.229482
0.228837
0.228209
0.227598
0.259218
0.257685
0.2562
0.254764
0.253374
0.252028
0.250724
0.249462
0.248239
0.247054
0.245905
0.244792
0.243712
0.242664
0.241648
0.240662
0.239705
0.238776
0.237874
0.236998
0.236147
0.235321
0.234517
0.233736
0.232977
0.232239
0.231522
0.230824
0.230145
0.229484
0.228842
0.228216
0.227607
0.259218
0.257685
0.2562
0.254764
0.253373
0.252027
0.250723
0.249461
0.248237
0.247052
0.245903
0.244789
0.243709
0.242661
0.241645
0.240658
0.239701
0.238771
0.237869
0.236993
0.236141
0.235314
0.234511
0.23373
0.232971
0.232233
0.231515
0.230818
0.230139
0.229479
0.228837
0.228212
0.227604
0.259218
0.257685
0.2562
0.254763
0.253373
0.252026
0.250722
0.249459
0.248236
0.24705
0.245901
0.244787
0.243706
0.242658
0.241641
0.240655
0.239697
0.238767
0.237865
0.236988
0.236136
0.235309
0.234505
0.233724
0.232964
0.232226
0.231508
0.230811
0.230132
0.229472
0.22883
0.228205
0.227597
0.259218
0.257685
0.2562
0.254763
0.253372
0.252026
0.250722
0.249459
0.248235
0.247049
0.245899
0.244785
0.243704
0.242656
0.241639
0.240652
0.239694
0.238764
0.237861
0.236984
0.236132
0.235304
0.2345
0.233718
0.232959
0.23222
0.231502
0.230804
0.230125
0.229464
0.228822
0.228197
0.227588
0.259218
0.257684
0.2562
0.254763
0.253372
0.252025
0.250721
0.249458
0.248234
0.247048
0.245898
0.244783
0.243702
0.242654
0.241636
0.240649
0.239691
0.23876
0.237857
0.23698
0.236127
0.235299
0.234495
0.233713
0.232953
0.232214
0.231496
0.230797
0.230118
0.229457
0.228814
0.228189
0.22758
0.259218
0.257684
0.2562
0.254763
0.253371
0.252025
0.25072
0.249457
0.248233
0.247047
0.245897
0.244782
0.2437
0.242652
0.241634
0.240646
0.239688
0.238757
0.237854
0.236976
0.236124
0.235295
0.234491
0.233708
0.232948
0.232209
0.23149
0.230791
0.230112
0.229451
0.228807
0.228181
0.227572
0.259218
0.257684
0.256199
0.254762
0.253371
0.252024
0.25072
0.249456
0.248232
0.247046
0.245895
0.24478
0.243699
0.24265
0.241632
0.240644
0.239685
0.238754
0.237851
0.236973
0.23612
0.235291
0.234486
0.233704
0.232943
0.232204
0.231485
0.230786
0.230106
0.229444
0.228801
0.228174
0.227565
0.259218
0.257684
0.256199
0.254762
0.253371
0.252024
0.250719
0.249456
0.248231
0.247045
0.245894
0.244779
0.243697
0.242648
0.24163
0.240642
0.239683
0.238752
0.237848
0.23697
0.236117
0.235288
0.234483
0.2337
0.232939
0.232199
0.23148
0.230781
0.2301
0.229438
0.228794
0.228168
0.227558
0.259218
0.257684
0.256199
0.254762
0.253371
0.252024
0.250719
0.249455
0.248231
0.247044
0.245893
0.244778
0.243696
0.242647
0.241628
0.24064
0.239681
0.23875
0.237845
0.236967
0.236114
0.235285
0.234479
0.233696
0.232935
0.232195
0.231475
0.230776
0.230095
0.229433
0.228789
0.228162
0.227552
0.259218
0.257684
0.256199
0.254762
0.253371
0.252023
0.250719
0.249455
0.24823
0.247043
0.245893
0.244777
0.243695
0.242645
0.241627
0.240638
0.239679
0.238748
0.237843
0.236964
0.236111
0.235282
0.234476
0.233693
0.232931
0.232191
0.231471
0.230771
0.23009
0.229428
0.228783
0.228156
0.227546
0.259218
0.257684
0.256199
0.254762
0.25337
0.252023
0.250718
0.249454
0.24823
0.247043
0.245892
0.244776
0.243694
0.242644
0.241625
0.240637
0.239677
0.238746
0.237841
0.236962
0.236108
0.235279
0.234473
0.23369
0.232928
0.232187
0.231467
0.230767
0.230086
0.229423
0.228778
0.228151
0.22754
0.259218
0.257684
0.256199
0.254762
0.25337
0.252023
0.250718
0.249454
0.248229
0.247042
0.245891
0.244775
0.243693
0.242643
0.241624
0.240636
0.239676
0.238744
0.237839
0.23696
0.236106
0.235277
0.23447
0.233687
0.232925
0.232184
0.231464
0.230763
0.230082
0.229419
0.228774
0.228146
0.227535
0.259218
0.257684
0.256199
0.254762
0.25337
0.252023
0.250718
0.249454
0.248229
0.247042
0.245891
0.244775
0.243692
0.242642
0.241623
0.240634
0.239675
0.238743
0.237837
0.236958
0.236104
0.235274
0.234468
0.233684
0.232922
0.232181
0.231461
0.23076
0.230078
0.229415
0.228769
0.228141
0.22753
0.259218
0.257684
0.256199
0.254762
0.25337
0.252023
0.250718
0.249454
0.248229
0.247041
0.24589
0.244774
0.243692
0.242642
0.241623
0.240634
0.239674
0.238742
0.237836
0.236957
0.236103
0.235273
0.234466
0.233682
0.23292
0.232179
0.231458
0.230757
0.230075
0.229411
0.228766
0.228138
0.227526
0.259218
0.257684
0.256199
0.254762
0.25337
0.252023
0.250718
0.249453
0.248228
0.247041
0.24589
0.244774
0.243691
0.242641
0.241622
0.240633
0.239673
0.23874
0.237835
0.236956
0.236101
0.235271
0.234464
0.23368
0.232918
0.232177
0.231456
0.230754
0.230072
0.229409
0.228763
0.228134
0.227522
0.259218
0.257684
0.256199
0.254762
0.25337
0.252023
0.250718
0.249454
0.248229
0.247042
0.245891
0.244774
0.243692
0.242641
0.241622
0.240633
0.239673
0.238741
0.237835
0.236956
0.236101
0.235271
0.234464
0.23368
0.232917
0.232176
0.231454
0.230753
0.230071
0.229407
0.228761
0.228132
0.22752
0.259218
0.257684
0.256199
0.254762
0.25337
0.252023
0.250718
0.249453
0.248228
0.247041
0.24589
0.244774
0.243691
0.242641
0.241622
0.240633
0.239673
0.23874
0.237835
0.236955
0.236101
0.23527
0.234464
0.233679
0.232916
0.232175
0.231454
0.230752
0.23007
0.229406
0.22876
0.228131
0.227519
0.259218
0.257684
0.256199
0.254762
0.253371
0.252024
0.25072
0.249456
0.248232
0.247045
0.245894
0.244778
0.243695
0.242645
0.241626
0.240637
0.239676
0.238744
0.237838
0.236959
0.236104
0.235274
0.234466
0.233682
0.232919
0.232177
0.231456
0.230754
0.230071
0.229407
0.228761
0.228131
0.227519
0.259218
0.257685
0.2562
0.254764
0.253373
0.252026
0.250721
0.249457
0.248233
0.247046
0.245895
0.244779
0.243697
0.242647
0.241628
0.240639
0.239679
0.238747
0.237842
0.236962
0.236108
0.235277
0.23447
0.233685
0.232922
0.23218
0.231458
0.230755
0.230072
0.229407
0.22876
0.22813
0.227516
0.259218
0.257685
0.256201
0.254766
0.253378
0.252034
0.250731
0.249469
0.248246
0.24706
0.245911
0.244795
0.243713
0.242663
0.241644
0.240655
0.239694
0.238761
0.237854
0.236974
0.236118
0.235286
0.234477
0.23369
0.232925
0.23218
0.231456
0.230751
0.230064
0.229396
0.228746
0.228112
0.227495
0.259219
0.257689
0.25621
0.254777
0.25339
0.252045
0.250743
0.249482
0.248259
0.247074
0.245924
0.244809
0.243726
0.242676
0.241656
0.240664
0.239701
0.238765
0.237855
0.236971
0.23611
0.235272
0.234457
0.233664
0.232891
0.232139
0.231406
0.230693
0.229997
0.22932
0.228659
0.228016
0.227388
0.25922
0.257694
0.256221
0.254799
0.253423
0.252089
0.250795
0.249539
0.248318
0.247132
0.245979
0.244857
0.243767
0.242707
0.241674
0.24067
0.239692
0.238739
0.237812
0.236908
0.236027
0.235169
0.234332
0.233517
0.232721
0.231946
0.231189
0.230451
0.229731
0.229028
0.228342
0.227673
0.22702
0.259229
0.257738
0.256292
0.254882
0.253508
0.252172
0.250871
0.249603
0.248368
0.247162
0.245986
0.244837
0.243716
0.242622
0.241553
0.24051
0.239491
0.238497
0.237525
0.236577
0.235651
0.234747
0.233863
0.233001
0.232158
0.231335
0.230532
0.229746
0.228979
0.22823
0.227498
0.226782
0.226083
0.259265
0.257822
0.256453
0.255125
0.253805
0.252483
0.251164
0.249855
0.248563
0.247292
0.246047
0.24483
0.243642
0.242483
0.241352
0.240251
0.239177
0.23813
0.237108
0.236112
0.23514
0.234192
0.233266
0.232362
0.231479
0.230617
0.229775
0.228953
0.228149
0.227364
0.226598
0.225848
0.225116
0.259599
0.258632
0.257578
0.256541
0.255587
0.254713
0.253904
0.253149
0.252441
0.251779
0.251159
0.250583
0.250048
0.249554
0.249101
0.248685
0.248307
0.247964
0.247654
0.247375
0.247127
0.246906
0.246711
0.246541
0.246394
0.246269
0.246164
0.246077
0.246008
0.245956
0.245918
0.245896
0.245886
0.266719
0.280569
0.294241
0.307622
0.320668
0.333362
0.345693
0.357649
0.369225
0.380414
0.391213
0.401622
0.411642
0.421276
0.430528
0.439405
0.447914
0.456062
0.463859
0.471315
0.478438
0.48524
0.491731
0.497922
0.503824
0.509447
0.514803
0.519903
0.524756
0.529372
0.533764
0.537938
0.54191
0.843856
1.01376
1.18183
1.34877
1.51381
1.6699
1.80754
1.91951
2.00296
2.05967
2.09463
2.11415
2.12412
2.12901
2.13161
2.13329
2.13447
2.13517
2.13532
2.13496
2.13427
2.13354
2.13305
2.13302
2.13359
2.13479
2.13653
2.1387
2.14112
2.14357
2.14584
2.14769
2.14887
2.1491
2.14812
2.14562
2.14131
2.1349
2.12608
2.11458
2.10011
2.08243
2.06131
2.03653
2.00793
1.97539
1.93883
1.89825
1.8537
1.8053
1.75327
1.6979
1.63953
1.57863
1.51571
1.45133
1.38611
1.32069
1.25571
1.19179
1.12949
1.06933
1.01174
0.957096
0.905663
0.857641
0.813152
0.772248
0.734915
0.701081
0.670626
0.64339
0.619184
0.597802
0.579026
0.562644
0.548446
0.536236
0.525834
0.517072
0.509803
0.503894
0.499228
0.495706
0.493239
0.491754
0.491189
0.491491
0.492616
0.494526
0.497189
0.500572
0.50464
0.509354
0.514666
0.520511
0.526807
0.533543
0.53987
0.550488
0.354827
0.368695
0.388991
0.418622
0.460165
0.51588
0.587202
0.674116
0.774732
0.885353
1.00097
1.116
1.22513
1.32408
1.41013
1.48223
1.54086
1.58754
1.62438
1.65355
1.67703
1.69634
1.71259
1.72647
1.73841
1.74863
1.75726
1.76441
1.77013
1.77446
1.7774
1.77892
1.77896
1.77739
1.77406
1.76881
1.76144
1.75176
1.73958
1.7247
1.70697
1.68622
1.66233
1.63519
1.60473
1.57093
1.53381
1.49344
1.44996
1.40358
1.35456
1.30326
1.25006
1.19546
1.13996
1.08413
1.02853
0.973747
0.920329
0.868775
0.819521
0.772922
0.729246
0.688673
0.651302
0.617159
0.586206
0.558357
0.533482
0.511422
0.491993
0.475001
0.460247
0.447533
0.436671
0.427484
0.419811
0.41351
0.408453
0.40453
0.401643
0.399713
0.398669
0.398455
0.399023
0.400336
0.402365
0.405085
0.408481
0.412539
0.417246
0.422591
0.428559
0.435126
0.44226
0.449914
0.458001
0.466585
0.47455
0.487917
0.206754
0.206564
0.207
0.208463
0.211355
0.216196
0.223519
0.234099
0.248989
0.269351
0.296327
0.330888
0.373657
0.424731
0.483563
0.548937
0.619049
0.691692
0.764504
0.835231
0.901972
0.963333
1.01849
1.06715
1.10947
1.14586
1.17691
1.20322
1.22535
1.24373
1.25873
1.27056
1.27939
1.2853
1.28832
1.28847
1.28573
1.28007
1.27148
1.25993
1.24541
1.22793
1.20748
1.18411
1.15788
1.12889
1.09726
1.06317
1.02686
0.988594
0.948706
0.90757
0.865604
0.823259
0.781006
0.739321
0.698666
0.659472
0.622117
0.586911
0.554086
0.523791
0.496094
0.47099
0.448419
0.428274
0.410418
0.394697
0.380947
0.369002
0.358701
0.349888
0.34242
0.336163
0.331001
0.326829
0.323558
0.321112
0.319426
0.318448
0.318137
0.318458
0.319386
0.320904
0.322998
0.325663
0.328898
0.332706
0.337092
0.342067
0.347638
0.353812
0.360593
0.367975
0.375943
0.38447
0.393471
0.403074
0.411961
0.427103
0.201928
0.200406
0.198982
0.197659
0.19647
0.195481
0.194773
0.19446
0.194645
0.195484
0.197195
0.200048
0.204368
0.21053
0.218953
0.230079
0.244345
0.262133
0.283712
0.309177
0.338405
0.371027
0.406436
0.443833
0.48229
0.520834
0.558528
0.594541
0.628191
0.658964
0.686513
0.710633
0.731232
0.748298
0.761868
0.772011
0.77881
0.782357
0.782749
0.78009
0.774492
0.766076
0.754978
0.741351
0.725363
0.70721
0.687108
0.665304
0.64207
0.617706
0.592532
0.566887
0.541117
0.515565
0.490563
0.466416
0.443392
0.421712
0.401539
0.382979
0.366077
0.350826
0.337175
0.325041
0.31432
0.304898
0.296661
0.289498
0.283306
0.27799
0.273467
0.26966
0.266505
0.263943
0.261929
0.26042
0.259386
0.258802
0.25865
0.258917
0.259597
0.260687
0.262191
0.264115
0.266471
0.269272
0.272538
0.276289
0.280548
0.285343
0.290698
0.296639
0.303187
0.310357
0.318151
0.326567
0.33553
0.345222
0.354221
0.369952
0.210199
0.208675
0.207174
0.20569
0.204223
0.202785
0.20139
0.200062
0.198823
0.197695
0.19671
0.19591
0.195348
0.195085
0.195197
0.195768
0.196897
0.198692
0.201274
0.20477
0.209307
0.21501
0.221986
0.23031
0.240016
0.251079
0.263405
0.276828
0.291113
0.305963
0.321039
0.33598
0.350422
0.36402
0.376465
0.387494
0.396896
0.404519
0.410266
0.414093
0.416001
0.416036
0.414278
0.410836
0.405847
0.399468
0.391873
0.383253
0.373809
0.363746
0.353274
0.342595
0.331902
0.321372
0.31116
0.301396
0.292182
0.28359
0.275664
0.268424
0.261864
0.255963
0.250683
0.245982
0.241814
0.238133
0.234893
0.232057
0.229589
0.227459
0.225642
0.224116
0.222864
0.221871
0.221128
0.220626
0.220363
0.220338
0.220554
0.221016
0.221734
0.222719
0.223987
0.225555
0.227443
0.229675
0.232279
0.235284
0.238724
0.242634
0.247053
0.252017
0.257565
0.263729
0.270533
0.277998
0.286074
0.294978
0.303305
0.318372
0.216471
0.215108
0.213743
0.21238
0.211019
0.209661
0.208309
0.206966
0.205638
0.204334
0.203062
0.201833
0.20066
0.199559
0.198548
0.197649
0.196885
0.196282
0.195867
0.195671
0.195723
0.196055
0.196699
0.197683
0.199035
0.200775
0.202918
0.205466
0.20841
0.211725
0.21537
0.219285
0.223395
0.227611
0.23183
0.235945
0.239846
0.24343
0.246601
0.249281
0.251407
0.252939
0.253857
0.25416
0.253868
0.253015
0.251651
0.249834
0.247634
0.245121
0.24237
0.239453
0.236438
0.233389
0.230361
0.227399
0.224543
0.22182
0.219251
0.216849
0.214618
0.212559
0.210668
0.208936
0.207356
0.205917
0.20461
0.203429
0.202366
0.201417
0.200577
0.199845
0.199219
0.198701
0.198292
0.197997
0.197819
0.197767
0.19785
0.198078
0.198464
0.199022
0.19977
0.200726
0.201914
0.203357
0.205083
0.207123
0.209512
0.212289
0.215493
0.219169
0.223362
0.228117
0.233473
0.239473
0.246094
0.253571
0.260628
0.273941
0.220599
0.219403
0.218199
0.216986
0.215766
0.214539
0.213306
0.212068
0.210829
0.209591
0.208359
0.207136
0.205927
0.204738
0.203575
0.202445
0.201358
0.200321
0.199346
0.198443
0.197623
0.196897
0.196275
0.195769
0.195388
0.19514
0.195031
0.195065
0.195245
0.195567
0.196026
0.196612
0.197312
0.198107
0.198974
0.199889
0.200822
0.201743
0.202624
0.203434
0.204148
0.204743
0.205202
0.205511
0.205663
0.205658
0.205497
0.205189
0.204745
0.20418
0.20351
0.202754
0.201931
0.201057
0.200149
0.199223
0.198292
0.197366
0.196455
0.195565
0.194701
0.193866
0.19306
0.192285
0.19154
0.190824
0.190137
0.189478
0.188848
0.188247
0.187676
0.187138
0.186635
0.186171
0.185751
0.185379
0.185064
0.184811
0.184632
0.184535
0.184532
0.184638
0.184866
0.185234
0.185762
0.186469
0.187382
0.188526
0.189934
0.191639
0.193679
0.196096
0.198936
0.202245
0.20607
0.210464
0.215425
0.221183
0.226674
0.237532
0.223243
0.222177
0.221099
0.220011
0.218913
0.217805
0.216689
0.215566
0.214436
0.213301
0.212163
0.211023
0.209883
0.208746
0.207616
0.206494
0.205386
0.204295
0.203226
0.202184
0.201174
0.200201
0.199271
0.19839
0.197562
0.196793
0.196085
0.195444
0.194871
0.194367
0.193933
0.193566
0.193265
0.193025
0.19284
0.192703
0.192606
0.192539
0.192493
0.192458
0.192424
0.192382
0.192323
0.192241
0.19213
0.191985
0.191804
0.191586
0.19133
0.191038
0.190712
0.190356
0.189972
0.189565
0.189138
0.188694
0.188236
0.187768
0.187289
0.186803
0.18631
0.18581
0.185304
0.184792
0.184273
0.183749
0.183219
0.182684
0.182145
0.181602
0.181058
0.180514
0.179973
0.179439
0.178915
0.178406
0.177918
0.177457
0.177031
0.176648
0.176317
0.176049
0.175857
0.175753
0.175754
0.175875
0.176137
0.176561
0.177173
0.178001
0.179077
0.180436
0.182118
0.184166
0.186623
0.189543
0.192937
0.197008
0.200933
0.209113
0.224893
0.223925
0.222947
0.221958
0.220959
0.21995
0.218932
0.217904
0.216869
0.215826
0.214777
0.213722
0.212664
0.211603
0.210541
0.20948
0.208421
0.207367
0.20632
0.205283
0.204258
0.203248
0.202258
0.201289
0.200345
0.19943
0.198545
0.197695
0.196881
0.196106
0.19537
0.194676
0.194022
0.193409
0.192835
0.1923
0.1918
0.191332
0.190894
0.190482
0.190091
0.189718
0.18936
0.189011
0.188671
0.188334
0.187999
0.187665
0.187328
0.186989
0.186645
0.186297
0.185943
0.185583
0.185217
0.184843
0.184461
0.18407
0.183669
0.183255
0.182829
0.182389
0.181933
0.181461
0.180973
0.180468
0.179945
0.179406
0.17885
0.178277
0.177689
0.177088
0.176474
0.17585
0.175219
0.174585
0.173952
0.173324
0.172708
0.172108
0.171534
0.170991
0.170491
0.170041
0.169655
0.169345
0.169127
0.169015
0.169031
0.169196
0.169535
0.170076
0.170852
0.171897
0.173249
0.174954
0.17703
0.179639
0.182192
0.187866
0.22588
0.224984
0.224078
0.223163
0.222239
0.221305
0.220362
0.219411
0.218452
0.217485
0.216511
0.215531
0.214545
0.213555
0.21256
0.211564
0.210565
0.209566
0.208569
0.207573
0.206582
0.205597
0.20462
0.203653
0.202698
0.201757
0.200832
0.199926
0.199041
0.198177
0.197338
0.196524
0.195737
0.194978
0.194246
0.193543
0.192868
0.192221
0.1916
0.191005
0.190434
0.189885
0.189357
0.188849
0.188358
0.187882
0.187421
0.186972
0.186535
0.186106
0.185685
0.18527
0.18486
0.184452
0.184045
0.183636
0.183224
0.182806
0.18238
0.181944
0.181494
0.18103
0.180549
0.180051
0.179533
0.178996
0.178438
0.177859
0.177258
0.176637
0.175995
0.175332
0.17465
0.173951
0.173235
0.172506
0.171766
0.171019
0.170269
0.16952
0.168777
0.168046
0.167333
0.166647
0.165994
0.165385
0.16483
0.164342
0.163934
0.163624
0.16343
0.163373
0.163477
0.163771
0.164284
0.165054
0.166099
0.167539
0.168988
0.172542
0.226435
0.225588
0.224734
0.223871
0.223001
0.222122
0.221236
0.220342
0.21944
0.218531
0.217616
0.216694
0.215766
0.214834
0.213897
0.212956
0.212011
0.211065
0.210117
0.209168
0.20822
0.207274
0.206331
0.205392
0.204458
0.203532
0.202615
0.201707
0.200812
0.19993
0.199063
0.198213
0.19738
0.196566
0.195772
0.194998
0.194246
0.193516
0.192807
0.19212
0.191455
0.190811
0.190187
0.189583
0.188998
0.188431
0.187881
0.187347
0.186827
0.186321
0.185826
0.185342
0.184865
0.184395
0.183929
0.183465
0.183
0.182532
0.182057
0.181574
0.181079
0.180571
0.180047
0.179506
0.178946
0.178366
0.177765
0.177143
0.176498
0.175831
0.175141
0.174429
0.173694
0.172938
0.172162
0.171366
0.170554
0.169727
0.168888
0.168041
0.167189
0.166335
0.165484
0.164642
0.163815
0.163008
0.16223
0.161488
0.160794
0.160159
0.159596
0.15912
0.158751
0.158507
0.158413
0.158496
0.158774
0.159329
0.15994
0.161817
0.226721
0.225906
0.225085
0.224258
0.223424
0.222583
0.221735
0.220881
0.220021
0.219154
0.218281
0.217403
0.21652
0.215631
0.214738
0.213841
0.21294
0.212037
0.211131
0.210223
0.209314
0.208405
0.207497
0.20659
0.205685
0.204784
0.203888
0.202998
0.202115
0.20124
0.200375
0.19952
0.198678
0.197849
0.197034
0.196234
0.19545
0.194683
0.193933
0.1932
0.192486
0.19179
0.191112
0.190451
0.189808
0.189182
0.188572
0.187978
0.187399
0.186834
0.186281
0.185739
0.185207
0.184681
0.184162
0.183645
0.183129
0.182611
0.182088
0.181558
0.181019
0.180467
0.179901
0.179319
0.178719
0.178101
0.177462
0.176802
0.176121
0.175417
0.17469
0.173941
0.173168
0.172372
0.171554
0.170714
0.169855
0.168977
0.168083
0.167174
0.166253
0.165323
0.164387
0.163448
0.16251
0.161579
0.160658
0.159755
0.158875
0.158027
0.157221
0.156466
0.155775
0.155163
0.154648
0.154248
0.153981
0.153895
0.153898
0.154511
0.226853
0.226057
0.225256
0.224449
0.223638
0.222821
0.221998
0.22117
0.220337
0.219499
0.218655
0.217807
0.216954
0.216097
0.215236
0.214371
0.213503
0.212631
0.211757
0.210881
0.210004
0.209125
0.208246
0.207367
0.206489
0.205613
0.204739
0.203869
0.203004
0.202143
0.201289
0.200443
0.199605
0.198776
0.197958
0.197151
0.196357
0.195575
0.194807
0.194053
0.193314
0.192589
0.19188
0.191186
0.190507
0.189844
0.189195
0.188561
0.18794
0.187332
0.186736
0.18615
0.185574
0.185005
0.184442
0.183883
0.183324
0.182765
0.182201
0.181632
0.181054
0.180466
0.179864
0.179248
0.178616
0.177966
0.177297
0.176608
0.175899
0.175167
0.174413
0.173637
0.172837
0.172015
0.17117
0.170302
0.169413
0.168504
0.167575
0.166629
0.165667
0.164692
0.163704
0.162707
0.161704
0.160697
0.15969
0.158687
0.157692
0.156712
0.155751
0.154817
0.153918
0.153066
0.152271
0.151547
0.150908
0.150376
0.149957
0.14966
0.226904
0.226117
0.225327
0.224532
0.223733
0.222929
0.222121
0.221309
0.220492
0.219672
0.218846
0.218017
0.217184
0.216348
0.215508
0.214664
0.213818
0.212969
0.212118
0.211264
0.210409
0.209553
0.208696
0.207838
0.206981
0.206125
0.20527
0.204417
0.203568
0.202722
0.20188
0.201044
0.200215
0.199392
0.198577
0.197771
0.196974
0.196188
0.195413
0.194649
0.193897
0.193158
0.192431
0.191717
0.191017
0.190329
0.189655
0.188993
0.188344
0.187706
0.187079
0.186461
0.185852
0.185251
0.184654
0.184062
0.18347
0.182878
0.182283
0.181683
0.181075
0.180458
0.179828
0.179186
0.178528
0.177854
0.177163
0.176452
0.175721
0.17497
0.174197
0.173402
0.172585
0.171745
0.170882
0.169997
0.16909
0.168162
0.167213
0.166246
0.16526
0.164258
0.163241
0.162211
0.16117
0.160119
0.159062
0.158
0.156937
0.155876
0.154822
0.153778
0.152752
0.151748
0.150775
0.149842
0.148961
0.148134
0.147435
0.146509
0.226917
0.226135
0.225349
0.224559
0.223766
0.22297
0.222169
0.221365
0.220558
0.219746
0.218932
0.218113
0.217292
0.216468
0.21564
0.21481
0.213978
0.213143
0.212306
0.211467
0.210626
0.209785
0.208942
0.2081
0.207257
0.206415
0.205573
0.204734
0.203896
0.203062
0.20223
0.201403
0.200581
0.199764
0.198954
0.198151
0.197355
0.196568
0.19579
0.195022
0.194263
0.193515
0.192778
0.192053
0.191338
0.190635
0.189944
0.189263
0.188594
0.187935
0.187285
0.186645
0.186012
0.185386
0.184765
0.184147
0.183531
0.182914
0.182295
0.181671
0.181041
0.180401
0.179751
0.179089
0.178413
0.177721
0.177012
0.176286
0.17554
0.174775
0.173989
0.173182
0.172353
0.171501
0.170628
0.169732
0.168814
0.167875
0.166916
0.165936
0.164937
0.163921
0.162888
0.16184
0.160777
0.159702
0.158616
0.157522
0.15642
0.155313
0.154204
0.153096
0.151993
0.150898
0.149818
0.148756
0.147724
0.146709
0.145833
0.144493
0.226915
0.226134
0.22535
0.224562
0.223772
0.222978
0.222181
0.22138
0.220577
0.21977
0.21896
0.218148
0.217332
0.216514
0.215694
0.214871
0.214046
0.213219
0.21239
0.211559
0.210727
0.209895
0.209061
0.208227
0.207393
0.20656
0.205727
0.204895
0.204065
0.203238
0.202413
0.201592
0.200775
0.199963
0.199156
0.198355
0.19756
0.196773
0.195994
0.195222
0.19446
0.193706
0.192963
0.192229
0.191505
0.190791
0.190087
0.189394
0.18871
0.188036
0.18737
0.186713
0.186063
0.185419
0.184779
0.184143
0.183508
0.182872
0.182235
0.181593
0.180946
0.18029
0.179624
0.178947
0.178257
0.177552
0.176831
0.176094
0.175338
0.174563
0.173768
0.172953
0.172116
0.171258
0.170378
0.169476
0.168552
0.167607
0.166642
0.165656
0.164651
0.163627
0.162585
0.161527
0.160454
0.159366
0.158265
0.157152
0.156029
0.154897
0.153758
0.152613
0.151466
0.150319
0.149175
0.148037
0.146914
0.145786
0.144801
0.143201
0.226907
0.226126
0.225342
0.224555
0.223765
0.222972
0.222176
0.221377
0.220575
0.21977
0.218962
0.218152
0.217339
0.216524
0.215706
0.214886
0.214065
0.213241
0.212416
0.21159
0.210762
0.209933
0.209104
0.208275
0.207445
0.206616
0.205787
0.20496
0.204134
0.20331
0.202489
0.201671
0.200856
0.200046
0.19924
0.198439
0.197645
0.196857
0.196075
0.195301
0.194535
0.193777
0.193028
0.192288
0.191557
0.190834
0.190122
0.189418
0.188724
0.188038
0.18736
0.18669
0.186026
0.185368
0.184714
0.184064
0.183414
0.182765
0.182114
0.181459
0.180798
0.18013
0.179452
0.178764
0.178064
0.177349
0.17662
0.175874
0.175111
0.17433
0.173529
0.172708
0.171867
0.171005
0.170121
0.169216
0.168289
0.167341
0.166373
0.165384
0.164376
0.163348
0.162303
0.16124
0.160161
0.159067
0.157958
0.156836
0.155701
0.154555
0.1534
0.152235
0.151064
0.149887
0.148707
0.147526
0.146351
0.145156
0.144109
0.142351
0.226898
0.226117
0.225333
0.224546
0.223755
0.222962
0.222166
0.221367
0.220565
0.21976
0.218953
0.218143
0.217331
0.216516
0.215699
0.21488
0.21406
0.213237
0.212413
0.211588
0.210762
0.209934
0.209106
0.208278
0.20745
0.206622
0.205795
0.204969
0.204144
0.203321
0.2025
0.201682
0.200868
0.200057
0.199251
0.198449
0.197653
0.196862
0.196078
0.195301
0.194531
0.193769
0.193014
0.192268
0.19153
0.190801
0.190081
0.189369
0.188665
0.18797
0.187282
0.186601
0.185927
0.185258
0.184593
0.183931
0.18327
0.182609
0.181947
0.181281
0.18061
0.179933
0.179246
0.17855
0.177841
0.17712
0.176384
0.175633
0.174865
0.174079
0.173274
0.17245
0.171606
0.170741
0.169855
0.168948
0.16802
0.167071
0.166101
0.165111
0.164101
0.163073
0.162026
0.160961
0.159879
0.158782
0.157669
0.156542
0.155401
0.154248
0.153083
0.151908
0.150723
0.14953
0.148331
0.147125
0.145922
0.144688
0.143606
0.141756
0.22689
0.226108
0.225323
0.224535
0.223745
0.222951
0.222154
0.221355
0.220552
0.219747
0.218939
0.218129
0.217316
0.216501
0.215684
0.214865
0.214044
0.213221
0.212397
0.211571
0.210745
0.209917
0.209089
0.20826
0.207431
0.206603
0.205775
0.204948
0.204122
0.203298
0.202476
0.201657
0.200841
0.200028
0.199219
0.198415
0.197616
0.196822
0.196034
0.195253
0.194478
0.193711
0.192951
0.192199
0.191455
0.190719
0.189992
0.189272
0.188561
0.187857
0.18716
0.186471
0.185787
0.185108
0.184434
0.183762
0.183092
0.182422
0.181751
0.181076
0.180397
0.179711
0.179018
0.178314
0.1776
0.176873
0.176132
0.175376
0.174604
0.173815
0.173007
0.172181
0.171334
0.170468
0.169581
0.168673
0.167744
0.166795
0.165824
0.164834
0.163824
0.162794
0.161746
0.16068
0.159597
0.158498
0.157383
0.156253
0.155109
0.153951
0.152781
0.1516
0.150408
0.149205
0.147995
0.146776
0.145556
0.144302
0.1432
0.141298
0.226882
0.226099
0.225314
0.224525
0.223734
0.22294
0.222142
0.221342
0.220539
0.219733
0.218925
0.218114
0.2173
0.216485
0.215667
0.214847
0.214025
0.213201
0.212376
0.211549
0.210721
0.209892
0.209062
0.208232
0.207402
0.206572
0.205742
0.204913
0.204085
0.203259
0.202435
0.201613
0.200794
0.199978
0.199166
0.198358
0.197555
0.196757
0.195965
0.195179
0.1944
0.193627
0.192861
0.192103
0.191353
0.190611
0.189876
0.189149
0.18843
0.187718
0.187014
0.186316
0.185624
0.184937
0.184254
0.183573
0.182895
0.182217
0.181537
0.180855
0.180168
0.179476
0.178776
0.178067
0.177347
0.176615
0.17587
0.175111
0.174335
0.173543
0.172733
0.171905