/*--------------------------------*- C++ -*----------------------------------*\
| =========                 |                                                 |
| \\      /  F ield         | OpenFOAM: The Open Source CFD Toolbox           |
|  \\    /   O peration     | Version:  2.1.1                                 |
|   \\  /    A nd           | Web:      www.OpenFOAM.org                      |
|    \\/     M anipulation  |                                                 |
\*---------------------------------------------------------------------------*/
FoamFile
{
    version     2.0;
    format      ascii;
    class       volScalarField;
    location    "0.2";
    object      nut;
}
// * * * * * * * * * * * * * * * * * * * * * * * * * * * * * * * * * * * * * //

dimensions      [0 2 -1 0 0 0 0];

internalField   nonuniform List<scalar> 
6820
(
4.96025e-05
5.47044e-05
5.94497e-05
6.37667e-05
6.76166e-05
7.09774e-05
7.38477e-05
7.62451e-05
7.8202e-05
7.97599e-05
8.09654e-05
8.1866e-05
8.25079e-05
8.2934e-05
8.3183e-05
8.3289e-05
8.32811e-05
8.31844e-05
8.30196e-05
8.28039e-05
8.25514e-05
8.22733e-05
8.19788e-05
8.16751e-05
8.13678e-05
8.10613e-05
8.07586e-05
8.04628e-05
8.01721e-05
7.99038e-05
7.95782e-05
7.95798e-05
7.8038e-05
0.000540296
0.000304969
0.000219955
0.000171552
0.000140512
0.000119649
0.000105124
9.47401e-05
8.7176e-05
8.15949e-05
7.74467e-05
7.43575e-05
7.20669e-05
7.03887e-05
6.91876e-05
6.83632e-05
6.784e-05
6.75603e-05
6.74794e-05
6.75621e-05
6.77804e-05
6.81116e-05
6.85372e-05
6.90418e-05
6.96124e-05
7.02379e-05
7.09087e-05
7.16158e-05
7.23515e-05
7.31041e-05
7.38712e-05
7.46165e-05
7.52956e-05
0.00105857
0.000836089
0.000679242
0.000569618
0.000490058
0.000430122
0.000383708
0.000346862
0.000316961
0.000292245
0.000271497
0.000253857
0.000238696
0.000225548
0.000214056
0.000203944
0.000194995
0.000187036
0.000179926
0.00017355
0.000167813
0.000162636
0.000157953
0.000153707
0.000149849
0.000146338
0.000143139
0.000140221
0.000137556
0.000135125
0.000132891
0.000130901
0.000128849
0.00115953
0.00109653
0.00101167
0.000926421
0.000849816
0.000783627
0.000727076
0.000678749
0.000637232
0.000601302
0.000569955
0.000542389
0.000517963
0.000496167
0.000476595
0.000458917
0.000442868
0.00042823
0.000414822
0.000402493
0.000391119
0.000380591
0.000370818
0.000361722
0.000353237
0.000345303
0.000337872
0.0003309
0.000324353
0.000318203
0.000312433
0.000307029
0.000301999
0.00116966
0.00115863
0.00113363
0.00109757
0.00105569
0.0010122
0.000969675
0.000929418
0.000891977
0.000857477
0.000825827
0.000796836
0.000770278
0.000745919
0.000723539
0.000702934
0.000683921
0.000666336
0.000650036
0.000634891
0.000620789
0.00060763
0.000595326
0.000583798
0.000572977
0.0005628
0.000553213
0.000544165
0.000535614
0.000527521
0.000519854
0.000512589
0.000505706
0.00117006
0.00116839
0.00116306
0.00115261
0.00113713
0.00111767
0.00109554
0.00107191
0.00104771
0.0010236
0.000999995
0.000977181
0.000955311
0.000934464
0.000914667
0.000895914
0.000878175
0.000861412
0.000845575
0.000830614
0.000816477
0.000803111
0.000790467
0.000778497
0.000767156
0.000756401
0.000746192
0.000736491
0.000727264
0.000718479
0.000710108
0.000702128
0.000694517
0.00116996
0.00116938
0.00116821
0.00116569
0.00116123
0.00115458
0.00114584
0.00113528
0.00112328
0.00111023
0.00109648
0.00108233
0.00106801
0.00105371
0.00103957
0.00102569
0.00101214
0.000998975
0.000986225
0.00097391
0.000962038
0.000950611
0.000939624
0.000929069
0.000918933
0.000909205
0.000899867
0.000890905
0.000882303
0.000874045
0.000866117
0.000858507
0.000851202
0.00116994
0.0011694
0.00116883
0.00116803
0.00116674
0.00116472
0.0011618
0.00115791
0.00115304
0.00114728
0.00114074
0.00113354
0.00112581
0.00111769
0.00110928
0.00110068
0.00109198
0.00108325
0.00107454
0.0010659
0.00105737
0.00104899
0.00104076
0.00103272
0.00102486
0.0010172
0.00100975
0.00100251
0.000995472
0.000988644
0.000982024
0.000975611
0.000969403
0.00116994
0.00116939
0.00116886
0.00116832
0.0011677
0.00116692
0.00116588
0.00116449
0.00116269
0.00116043
0.00115772
0.00115455
0.00115097
0.00114701
0.00114272
0.00113814
0.00113333
0.00112832
0.00112318
0.00111792
0.00111259
0.00110722
0.00110184
0.00109646
0.00109111
0.0010858
0.00108055
0.00107537
0.00107026
0.00106525
0.00106032
0.0010555
0.00105078
0.00116994
0.00116938
0.00116885
0.00116833
0.00116782
0.00116729
0.00116671
0.00116605
0.00116526
0.00116432
0.00116319
0.00116185
0.0011603
0.00115852
0.00115654
0.00115434
0.00115196
0.00114941
0.0011467
0.00114385
0.00114089
0.00113783
0.00113469
0.00113149
0.00112823
0.00112495
0.00112164
0.00111832
0.001115
0.00111169
0.0011084
0.00110513
0.0011019
0.00116994
0.00116938
0.00116884
0.00116832
0.00116782
0.00116732
0.00116683
0.00116634
0.00116582
0.00116527
0.00116466
0.00116399
0.00116324
0.0011624
0.00116146
0.00116041
0.00115927
0.00115802
0.00115667
0.00115523
0.0011537
0.00115209
0.00115041
0.00114865
0.00114684
0.00114498
0.00114307
0.00114113
0.00113916
0.00113716
0.00113515
0.00113313
0.00113111
0.00116994
0.00116938
0.00116884
0.00116832
0.00116781
0.00116732
0.00116684
0.00116637
0.00116591
0.00116545
0.00116499
0.00116451
0.00116402
0.0011635
0.00116296
0.00116237
0.00116175
0.00116109
0.00116038
0.00115962
0.00115882
0.00115797
0.00115707
0.00115613
0.00115516
0.00115414
0.00115309
0.00115201
0.0011509
0.00114977
0.00114861
0.00114744
0.00114625
0.00116994
0.00116938
0.00116884
0.00116832
0.00116781
0.00116732
0.00116684
0.00116637
0.00116592
0.00116547
0.00116504
0.00116461
0.00116419
0.00116377
0.00116334
0.00116291
0.00116248
0.00116203
0.00116157
0.00116109
0.0011606
0.00116009
0.00115957
0.00115902
0.00115846
0.00115788
0.00115727
0.00115666
0.00115602
0.00115537
0.00115471
0.00115403
0.00115334
0.00116994
0.00116938
0.00116884
0.00116832
0.00116781
0.00116731
0.00116683
0.00116636
0.00116591
0.00116547
0.00116504
0.00116462
0.00116421
0.00116381
0.00116342
0.00116303
0.00116265
0.00116227
0.0011619
0.00116152
0.00116115
0.00116077
0.00116039
0.00116
0.00115961
0.00115922
0.00115882
0.00115842
0.00115801
0.0011576
0.00115718
0.00115676
0.00115633
0.00116994
0.00116938
0.00116884
0.00116832
0.00116781
0.00116731
0.00116683
0.00116636
0.00116591
0.00116546
0.00116503
0.00116462
0.00116421
0.00116381
0.00116343
0.00116305
0.00116268
0.00116232
0.00116197
0.00116162
0.00116128
0.00116095
0.00116062
0.00116029
0.00115997
0.00115965
0.00115933
0.00115901
0.0011587
0.00115839
0.00115807
0.00115776
0.00115745
0.00116994
0.00116938
0.00116884
0.00116831
0.0011678
0.00116731
0.00116683
0.00116636
0.0011659
0.00116546
0.00116503
0.00116461
0.0011642
0.00116381
0.00116342
0.00116305
0.00116268
0.00116232
0.00116198
0.00116164
0.00116131
0.00116098
0.00116067
0.00116036
0.00116005
0.00115976
0.00115947
0.00115918
0.0011589
0.00115862
0.00115835
0.00115809
0.00115783
0.00116994
0.00116938
0.00116884
0.00116831
0.0011678
0.00116731
0.00116683
0.00116636
0.0011659
0.00116546
0.00116503
0.00116461
0.0011642
0.0011638
0.00116342
0.00116304
0.00116267
0.00116232
0.00116197
0.00116163
0.0011613
0.00116098
0.00116067
0.00116036
0.00116007
0.00115978
0.00115949
0.00115922
0.00115895
0.00115868
0.00115842
0.00115817
0.00115793
0.00116994
0.00116938
0.00116884
0.00116831
0.0011678
0.00116731
0.00116682
0.00116635
0.0011659
0.00116545
0.00116502
0.0011646
0.0011642
0.0011638
0.00116341
0.00116303
0.00116267
0.00116231
0.00116196
0.00116163
0.0011613
0.00116097
0.00116066
0.00116036
0.00116006
0.00115977
0.00115949
0.00115921
0.00115895
0.00115869
0.00115843
0.00115818
0.00115794
0.00116994
0.00116938
0.00116884
0.00116831
0.0011678
0.0011673
0.00116682
0.00116635
0.0011659
0.00116545
0.00116502
0.0011646
0.00116419
0.00116379
0.00116341
0.00116303
0.00116266
0.00116231
0.00116196
0.00116162
0.00116129
0.00116097
0.00116065
0.00116035
0.00116005
0.00115976
0.00115948
0.00115921
0.00115894
0.00115868
0.00115842
0.00115818
0.00115793
0.00116994
0.00116938
0.00116884
0.00116831
0.0011678
0.0011673
0.00116682
0.00116635
0.00116589
0.00116545
0.00116502
0.0011646
0.00116419
0.00116379
0.0011634
0.00116302
0.00116266
0.0011623
0.00116195
0.00116161
0.00116128
0.00116096
0.00116065
0.00116034
0.00116004
0.00115975
0.00115947
0.0011592
0.00115893
0.00115867
0.00115841
0.00115816
0.00115792
0.00116994
0.00116938
0.00116884
0.00116831
0.0011678
0.0011673
0.00116682
0.00116635
0.00116589
0.00116545
0.00116502
0.00116459
0.00116419
0.00116379
0.0011634
0.00116302
0.00116265
0.00116229
0.00116195
0.00116161
0.00116128
0.00116095
0.00116064
0.00116033
0.00116003
0.00115974
0.00115946
0.00115919
0.00115892
0.00115866
0.0011584
0.00115815
0.00115791
0.00116994
0.00116938
0.00116884
0.00116831
0.0011678
0.0011673
0.00116682
0.00116635
0.00116589
0.00116545
0.00116501
0.00116459
0.00116418
0.00116378
0.0011634
0.00116302
0.00116265
0.00116229
0.00116194
0.0011616
0.00116127
0.00116095
0.00116063
0.00116033
0.00116003
0.00115974
0.00115945
0.00115918
0.00115891
0.00115864
0.00115839
0.00115814
0.0011579
0.00116994
0.00116938
0.00116884
0.00116831
0.0011678
0.0011673
0.00116682
0.00116635
0.00116589
0.00116545
0.00116501
0.00116459
0.00116418
0.00116378
0.00116339
0.00116301
0.00116265
0.00116229
0.00116194
0.0011616
0.00116126
0.00116094
0.00116063
0.00116032
0.00116002
0.00115973
0.00115945
0.00115917
0.0011589
0.00115864
0.00115838
0.00115813
0.00115789
0.00116994
0.00116938
0.00116884
0.00116831
0.0011678
0.0011673
0.00116682
0.00116635
0.00116589
0.00116544
0.00116501
0.00116459
0.00116418
0.00116378
0.00116339
0.00116301
0.00116264
0.00116228
0.00116193
0.00116159
0.00116126
0.00116094
0.00116062
0.00116031
0.00116001
0.00115972
0.00115944
0.00115916
0.00115889
0.00115863
0.00115837
0.00115812
0.00115787
0.00116994
0.00116938
0.00116884
0.00116831
0.0011678
0.0011673
0.00116682
0.00116635
0.00116589
0.00116544
0.00116501
0.00116459
0.00116418
0.00116378
0.00116339
0.00116301
0.00116264
0.00116228
0.00116193
0.00116159
0.00116126
0.00116093
0.00116062
0.00116031
0.00116001
0.00115972
0.00115943
0.00115915
0.00115888
0.00115862
0.00115836
0.00115811
0.00115786
0.00116994
0.00116938
0.00116884
0.00116831
0.0011678
0.0011673
0.00116682
0.00116635
0.00116589
0.00116544
0.00116501
0.00116459
0.00116418
0.00116378
0.00116339
0.00116301
0.00116264
0.00116228
0.00116193
0.00116159
0.00116125
0.00116093
0.00116061
0.0011603
0.00116
0.00115971
0.00115943
0.00115915
0.00115888
0.00115861
0.00115835
0.0011581
0.00115786
0.00116994
0.00116938
0.00116884
0.00116831
0.0011678
0.0011673
0.00116682
0.00116635
0.00116589
0.00116544
0.00116501
0.00116459
0.00116417
0.00116377
0.00116338
0.001163
0.00116264
0.00116228
0.00116192
0.00116158
0.00116125
0.00116092
0.00116061
0.0011603
0.00116
0.00115971
0.00115942
0.00115914
0.00115887
0.0011586
0.00115835
0.00115809
0.00115785
0.00116994
0.00116938
0.00116884
0.00116831
0.0011678
0.0011673
0.00116682
0.00116635
0.00116589
0.00116544
0.00116501
0.00116458
0.00116417
0.00116377
0.00116338
0.001163
0.00116263
0.00116227
0.00116192
0.00116158
0.00116125
0.00116092
0.00116061
0.0011603
0.00116
0.0011597
0.00115942
0.00115914
0.00115886
0.0011586
0.00115834
0.00115809
0.00115784
0.00116994
0.00116938
0.00116884
0.00116831
0.0011678
0.0011673
0.00116682
0.00116634
0.00116589
0.00116544
0.00116501
0.00116458
0.00116417
0.00116377
0.00116338
0.001163
0.00116263
0.00116227
0.00116192
0.00116158
0.00116125
0.00116092
0.0011606
0.00116029
0.00115999
0.0011597
0.00115941
0.00115913
0.00115886
0.00115859
0.00115834
0.00115808
0.00115784
0.00116994
0.00116938
0.00116884
0.00116831
0.0011678
0.0011673
0.00116682
0.00116635
0.00116589
0.00116544
0.00116501
0.00116459
0.00116417
0.00116377
0.00116338
0.001163
0.00116263
0.00116227
0.00116192
0.00116158
0.00116125
0.00116092
0.0011606
0.00116029
0.00115999
0.0011597
0.00115941
0.00115913
0.00115886
0.00115859
0.00115833
0.00115808
0.00115783
0.00116994
0.00116938
0.00116884
0.00116831
0.0011678
0.0011673
0.00116682
0.00116635
0.00116589
0.00116544
0.00116501
0.00116459
0.00116418
0.00116378
0.00116339
0.00116301
0.00116264
0.00116228
0.00116192
0.00116158
0.00116125
0.00116092
0.00116061
0.0011603
0.00115999
0.0011597
0.00115941
0.00115913
0.00115886
0.00115859
0.00115833
0.00115807
0.00115782
0.00116994
0.00116938
0.00116884
0.00116831
0.0011678
0.00116731
0.00116682
0.00116635
0.0011659
0.00116545
0.00116502
0.0011646
0.00116418
0.00116378
0.00116339
0.00116301
0.00116264
0.00116228
0.00116193
0.00116159
0.00116125
0.00116092
0.0011606
0.00116029
0.00115998
0.00115968
0.00115939
0.0011591
0.00115882
0.00115855
0.00115828
0.00115801
0.00115775
0.00116994
0.00116938
0.00116884
0.00116831
0.00116781
0.00116731
0.00116683
0.00116636
0.0011659
0.00116546
0.00116503
0.0011646
0.00116419
0.00116379
0.0011634
0.00116301
0.00116264
0.00116227
0.00116191
0.00116155
0.0011612
0.00116086
0.00116052
0.00116019
0.00115986
0.00115953
0.00115921
0.0011589
0.00115859
0.00115828
0.00115797
0.00115767
0.00115737
0.00116994
0.00116938
0.00116884
0.00116833
0.00116782
0.00116733
0.00116685
0.00116638
0.00116593
0.00116548
0.00116503
0.00116459
0.00116416
0.00116373
0.00116331
0.00116288
0.00116246
0.00116204
0.00116161
0.00116119
0.00116076
0.00116033
0.0011599
0.00115946
0.00115902
0.00115858
0.00115814
0.00115769
0.00115724
0.00115678
0.00115632
0.00115586
0.0011554
0.00116994
0.00116939
0.00116886
0.00116835
0.00116784
0.00116733
0.00116683
0.00116632
0.00116581
0.00116528
0.00116473
0.00116417
0.00116358
0.00116297
0.00116233
0.00116166
0.00116096
0.00116024
0.00115948
0.0011587
0.00115789
0.00115706
0.0011562
0.00115531
0.00115441
0.00115348
0.00115254
0.00115158
0.0011506
0.00114961
0.00114861
0.0011476
0.00114658
0.00116995
0.0011694
0.00116886
0.00116828
0.00116765
0.00116694
0.00116612
0.00116519
0.00116413
0.00116294
0.00116162
0.00116016
0.00115858
0.00115687
0.00115505
0.00115312
0.0011511
0.00114898
0.00114678
0.00114451
0.00114218
0.0011398
0.00113737
0.0011349
0.00113241
0.00112989
0.00112735
0.0011248
0.00112225
0.0011197
0.00111715
0.00111461
0.00111209
0.00116996
0.00116916
0.00116786
0.00116595
0.00116343
0.00116029
0.00115656
0.00115226
0.00114746
0.0011422
0.00113657
0.00113061
0.00112439
0.00111798
0.00111141
0.00110473
0.00109799
0.00109122
0.00108445
0.0010777
0.001071
0.00106437
0.00105781
0.00105135
0.00104499
0.00103874
0.00103261
0.0010266
0.00102071
0.00101496
0.00100933
0.00100383
0.000998461
0.00116831
0.00115866
0.001145
0.00112843
0.00110968
0.00108946
0.00106841
0.00104706
0.00102578
0.00100486
0.000984462
0.000964723
0.000945709
0.000927458
0.000909981
0.000893274
0.00087732
0.000862098
0.000847577
0.000833728
0.000820519
0.000807917
0.000795892
0.000784412
0.000773447
0.00076297
0.000752954
0.000743374
0.000734205
0.000725425
0.000717014
0.000708951
0.000701215
0.00107567
0.000936197
0.000835614
0.000756912
0.000692134
0.000638404
0.000593514
0.000555638
0.000523336
0.000495505
0.000471298
0.000450062
0.000431291
0.000414587
0.000399632
0.000386174
0.000374006
0.000362957
0.000352887
0.000343679
0.000335232
0.000327461
0.000320295
0.000313671
0.000307535
0.000301839
0.000296542
0.000291607
0.000287003
0.0002827
0.000278673
0.0002749
0.000271358
0.000142979
0.000146644
0.000150174
0.000153551
0.000156773
0.000159846
0.000162776
0.000165567
0.000168225
0.000170755
0.000173161
0.00017545
0.000177625
0.000179691
0.000181654
0.000183517
0.000185285
0.000186963
0.000188555
0.000190064
0.000191495
0.000192851
0.000194137
0.000195355
0.00019651
0.000197603
0.000198639
0.000199621
0.00020055
0.00020143
0.000202264
0.000203053
0.000203802
9.09971e-05
0.000110277
0.000133188
0.00016026
0.000191246
0.000224851
0.000259257
0.000292834
0.00032457
0.000354204
0.000382063
0.000408776
0.000434976
0.000461103
0.000487354
0.00051373
0.000540139
0.0005665
0.000592804
0.000619123
0.000645588
0.000672351
0.00069955
0.000727281
0.000755594
0.000784495
0.000813963
0.000843959
0.000874434
0.000905333
0.000936589
0.000968121
0.000999829
0.00103159
0.00106327
0.0010947
0.0011257
0.00115608
0.00118565
0.00121418
0.00124148
0.00126732
0.00129149
0.00131377
0.00133395
0.00135183
0.00136722
0.00137998
0.00138997
0.00139711
0.00140134
0.00140268
0.00140119
0.00139698
0.00139025
0.00138123
0.00137024
0.00135762
0.00134375
0.00132905
0.00131393
0.0012988
0.00128405
0.00127005
0.00125713
0.0012456
0.00123569
0.00122761
0.0012215
0.00121744
0.00121547
0.00121555
0.00121761
0.00122156
0.00122726
0.00123458
0.00124339
0.00125355
0.00126495
0.00127749
0.00129108
0.00130567
0.0013212
0.00133765
0.00135502
0.00137332
0.00139256
0.00141281
0.00143411
0.00145653
0.00148015
0.00150503
0.00153127
0.00155892
0.00158802
0.00161861
0.00165057
0.00168444
0.00171609
0.00177026
7.64587e-05
7.85521e-05
8.18561e-05
8.69933e-05
9.46896e-05
0.000105644
0.000120393
0.00013921
0.000162005
0.000188295
0.000217272
0.000247933
0.000279254
0.000310358
0.000340635
0.000369791
0.000397823
0.000424933
0.000451426
0.000477609
0.000503726
0.000529925
0.000556264
0.00058274
0.000609322
0.000635977
0.000662687
0.000689452
0.000716278
0.000743169
0.000770111
0.000797067
0.000823972
0.000850736
0.000877246
0.000903372
0.000928967
0.000953879
0.000977944
0.001001
0.00102287
0.00104338
0.00106236
0.00107964
0.00109506
0.00110845
0.0011197
0.00112868
0.00113531
0.00113957
0.00114145
0.00114102
0.00113838
0.00113372
0.00112727
0.00111933
0.00111024
0.00110038
0.00109018
0.00108004
0.00107037
0.00106154
0.00105388
0.00104768
0.00104314
0.00104042
0.00103962
0.00104077
0.00104385
0.00104877
0.00105543
0.00106368
0.00107333
0.00108421
0.00109616
0.00110902
0.00112267
0.00113698
0.00115189
0.00116733
0.00118328
0.00119972
0.00121667
0.00123415
0.00125221
0.00127092
0.00129033
0.00131055
0.00133166
0.00135378
0.001377
0.00140144
0.0014272
0.00145439
0.00148307
0.00151329
0.00154498
0.0015787
0.00161031
0.00166468
0.000126815
0.000124813
0.00012279
0.000120544
0.000118065
0.000115539
0.000113555
0.000112599
0.000113094
0.000115542
0.000120457
0.000128292
0.000139367
0.00015382
0.000171586
0.000192394
0.000215791
0.000241196
0.000267967
0.000295483
0.00032321
0.00035075
0.00037786
0.000404439
0.000430492
0.000456092
0.000481332
0.000506295
0.000531037
0.000555572
0.000579883
0.000603923
0.000627627
0.000650916
0.000673704
0.000695898
0.0007174
0.000738106
0.000757909
0.000776698
0.000794358
0.000810774
0.000825833
0.000839429
0.000851462
0.000861848
0.000870525
0.000877457
0.000882643
0.00088612
0.000887975
0.000888342
0.000887411
0.000885424
0.000882676
0.000879504
0.000876276
0.000873376
0.00087118
0.000870033
0.000870232
0.000872006
0.000875505
0.000880801
0.00088789
0.000896701
0.000907108
0.000918942
0.000932004
0.000946081
0.000960954
0.000976414
0.00099227
0.00100836
0.00102455
0.00104075
0.00105688
0.00107293
0.00108889
0.00110477
0.00112062
0.0011365
0.00115247
0.00116864
0.00118509
0.00120193
0.00121928
0.00123728
0.00125605
0.00127573
0.00129647
0.00131841
0.0013417
0.00136646
0.00139281
0.00142083
0.00145048
0.00148236
0.00151244
0.00156484
0.000296565
0.000290561
0.000284572
0.000278495
0.000272165
0.000265376
0.000257996
0.000249904
0.000241357
0.000232524
0.000223524
0.000214584
0.000206061
0.000198416
0.000192165
0.000187816
0.000185808
0.000186479
0.000190036
0.00019655
0.000205962
0.000218091
0.000232657
0.000249305
0.00026764
0.000287251
0.000307751
0.000328792
0.000350088
0.00037141
0.000392589
0.0004135
0.00043405
0.000454167
0.000473785
0.000492838
0.00051126
0.000528984
0.000545939
0.000562059
0.000577281
0.000591551
0.000604824
0.000617067
0.000628265
0.000638422
0.000647568
0.000655761
0.000663093
0.000669693
0.000675729
0.000681406
0.000686966
0.000692675
0.000698822
0.000705694
0.000713566
0.000722675
0.000733203
0.00074526
0.000758872
0.000773982
0.000790461
0.000808116
0.000826718
0.000846016
0.000865754
0.000885691
0.000905604
0.000925297
0.000944606
0.000963402
0.000981592
0.000999114
0.00101594
0.00103208
0.00104755
0.00106241
0.00107672
0.00109056
0.00110402
0.00111719
0.0011302
0.00114315
0.00115616
0.00116938
0.00118293
0.00119696
0.00121164
0.00122713
0.0012436
0.00126122
0.00128017
0.00130062
0.00132273
0.00134663
0.00137234
0.00140045
0.00142737
0.00147515
0.000498154
0.000489902
0.000481903
0.000474107
0.000466446
0.000458824
0.000451117
0.000443174
0.000434862
0.000426201
0.000417109
0.000407491
0.000397263
0.000386383
0.000374866
0.000362806
0.000350388
0.00033789
0.000325667
0.00031412
0.000303664
0.000294684
0.000287508
0.000282382
0.000279461
0.000278807
0.000280398
0.000284137
0.000289866
0.000297381
0.000306453
0.000316837
0.00032829
0.00034058
0.000353493
0.00036684
0.000380458
0.000394212
0.000407995
0.000421725
0.000435345
0.000448823
0.000462148
0.000475333
0.000488411
0.000501441
0.000514502
0.000527696
0.000541146
0.00055499
0.000569378
0.000584465
0.000600396
0.000617299
0.000635272
0.000654368
0.000674591
0.000695886
0.000718139
0.000741183
0.000764808
0.000788777
0.000812842
0.000836759
0.000860307
0.00088329
0.000905547
0.000926953
0.000947414
0.00096687
0.000985286
0.00100266
0.00101899
0.00103432
0.0010487
0.00106219
0.00107485
0.00108678
0.00109804
0.00110873
0.00111893
0.00112875
0.00113828
0.00114763
0.00115689
0.00116619
0.00117565
0.0011854
0.0011956
0.0012064
0.00121799
0.00123053
0.00124425
0.00125932
0.00127597
0.00129438
0.00131466
0.00133734
0.0013596
0.00140009
0.000686102
0.000676872
0.000667928
0.000659259
0.00065084
0.000642635
0.000634597
0.000626663
0.000618769
0.000610876
0.000602932
0.000594876
0.00058664
0.000578154
0.000569345
0.000560147
0.000550506
0.00054039
0.000529798
0.00051877
0.000507387
0.000495781
0.000484122
0.000472618
0.000461504
0.000451023
0.000441417
0.000432909
0.000425692
0.000419919
0.0004157
0.000413098
0.000412137
0.0004128
0.000415046
0.000418807
0.000424006
0.000430557
0.000438377
0.000447387
0.000457521
0.000468722
0.00048095
0.000494179
0.000508394
0.000523592
0.000539777
0.000556957
0.000575137
0.000594313
0.000614472
0.000635579
0.000657574
0.000680373
0.000703861
0.000727897
0.000752313
0.000776923
0.000801531
0.000825934
0.000849939
0.000873367
0.000896063
0.000917899
0.000938777
0.000958629
0.000977415
0.00099512
0.00101175
0.00102732
0.00104187
0.00105544
0.00106809
0.00107987
0.00109084
0.00110107
0.00111063
0.00111959
0.001128
0.00113595
0.00114349
0.00115068
0.0011576
0.00116431
0.00117088
0.00117737
0.00118389
0.00119051
0.00119735
0.00120452
0.00121217
0.00122045
0.00122956
0.00123967
0.00125103
0.00126383
0.00127831
0.00129486
0.00131171
0.00134304
0.000843062
0.000834052
0.00082524
0.000816633
0.000808227
0.000800016
0.000791989
0.000784128
0.000776419
0.000768845
0.000761387
0.000754024
0.00074673
0.000739481
0.000732248
0.000725
0.000717702
0.000710322
0.000702828
0.000695196
0.00068741
0.000679469
0.000671391
0.000663211
0.000654989
0.000646808
0.000638768
0.000630992
0.000623614
0.000616779
0.000610634
0.000605324
0.000600983
0.000597736
0.00059569
0.000594933
0.000595535
0.000597545
0.000600994
0.000605897
0.00061225
0.00062004
0.00062924
0.000639812
0.000651711
0.000664881
0.000679257
0.000694763
0.000711314
0.000728811
0.000747141
0.000766181
0.000785792
0.000805829
0.000826134
0.000846549
0.000866914
0.000887071
0.000906875
0.000926191
0.000944901
0.00096291
0.00098014
0.000996539
0.00101207
0.00102673
0.00104052
0.00105345
0.00106555
0.00107686
0.00108742
0.00109727
0.00110647
0.00111507
0.0011231
0.00113064
0.00113773
0.00114441
0.00115074
0.00115677
0.00116253
0.00116807
0.00117342
0.00117863
0.00118374
0.00118878
0.00119379
0.00119882
0.00120393
0.00120919
0.00121466
0.00122046
0.0012267
0.00123352
0.00124112
0.00124966
0.0012594
0.00127061
0.00128246
0.00130459
0.000962416
0.000954594
0.000946851
0.0009392
0.000931652
0.000924213
0.000916888
0.000909678
0.000902584
0.000895609
0.000888752
0.000882012
0.00087539
0.000868886
0.000862497
0.000856222
0.000850056
0.000843995
0.000838032
0.00083216
0.000826374
0.000820669
0.000815046
0.00080951
0.000804075
0.000798764
0.00079361
0.000788655
0.000783956
0.000779578
0.000775594
0.000772087
0.000769143
0.000766852
0.000765301
0.000764573
0.000764746
0.000765888
0.000768053
0.000771285
0.000775609
0.000781039
0.000787571
0.000795186
0.00080385
0.000813517
0.000824126
0.000835603
0.000847865
0.000860816
0.000874352
0.000888363
0.000902731
0.000917336
0.000932057
0.000946776
0.00096138
0.000975762
0.000989825
0.00100349
0.00101668
0.00102934
0.00104143
0.00105293
0.00106381
0.00107409
0.00108377
0.00109286
0.00110139
0.00110939
0.00111689
0.00112392
0.00113052
0.00113672
0.00114257
0.0011481
0.00115335
0.00115836
0.00116316
0.0011678
0.0011723
0.00117669
0.00118101
0.00118529
0.00118954
0.0011938
0.00119809
0.00120243
0.00120684
0.00121136
0.00121602
0.00122085
0.00122592
0.00123129
0.00123706
0.00124333
0.0012503
0.00125807
0.00126642
0.00128143
0.00104541
0.00103932
0.00103321
0.0010271
0.00102099
0.00101489
0.00100883
0.00100279
0.000996801
0.000990862
0.000984983
0.000979174
0.000973443
0.0009678
0.000962254
0.000956816
0.000951495
0.0009463
0.000941241
0.000936326
0.000931562
0.000926958
0.000922522
0.000918265
0.000914197
0.000910332
0.000906687
0.000903284
0.000900148
0.00089731
0.000894803
0.000892668
0.000890948
0.000889688
0.000888936
0.00088874
0.000889144
0.00089019
0.000891914
0.000894347
0.000897508
0.000901408
0.000906049
0.00091142
0.0009175
0.00092426
0.000931657
0.000939643
0.000948157
0.000957133
0.000966501
0.000976182
0.000986098
0.000996166
0.00100631
0.00101644
0.00102649
0.00103639
0.00104607
0.00105549
0.00106459
0.00107335
0.00108173
0.00108972
0.0010973
0.00110449
0.00111128
0.00111768
0.00112372
0.00112939
0.00113474
0.00113977
0.00114452
0.00114901
0.00115326
0.00115731
0.00116118
0.0011649
0.0011685
0.00117202
0.00117547
0.00117889
0.00118231
0.00118576
0.00118925
0.00119282
0.00119648
0.00120027
0.0012042
0.00120828
0.00121255
0.00121701
0.00122169
0.0012266
0.00123179
0.00123728
0.00124316
0.00124945
0.00125602
0.00126711
0.00109817
0.00109388
0.00108952
0.00108509
0.0010806
0.00107606
0.00107148
0.00106688
0.00106225
0.00105761
0.00105297
0.00104835
0.00104374
0.00103916
0.00103463
0.00103015
0.00102575
0.00102143
0.00101721
0.0010131
0.00100912
0.00100527
0.00100158
0.000998064
0.000994727
0.000991587
0.000988662
0.000985967
0.00098352
0.00098134
0.000979448
0.000977867
0.000976618
0.000975726
0.000975216
0.000975112
0.000975436
0.000976211
0.000977453
0.000979179
0.000981398
0.000984114
0.000987325
0.000991025
0.0009952
0.000999827
0.00100488
0.00101033
0.00101614
0.00102226
0.00102864
0.00103525
0.00104201
0.0010489
0.00105584
0.00106279
0.0010697
0.00107652
0.00108322
0.00108975
0.00109608
0.00110219
0.00110807
0.00111369
0.00111905
0.00112415
0.00112899
0.00113357
0.0011379
0.00114199
0.00114585
0.0011495
0.00115295
0.00115621
0.00115931
0.00116226
0.00116509
0.00116781
0.00117046
0.00117304
0.0011756
0.00117815
0.00118072
0.00118334
0.00118603
0.00118883
0.00119175
0.00119483
0.00119809
0.00120157
0.00120528
0.00120925
0.0012135
0.00121804
0.00122289
0.00122806
0.00123356
0.00123942
0.00124525
0.00125503
0.00112874
0.00112598
0.00112313
0.0011202
0.00111718
0.00111408
0.00111092
0.00110769
0.0011044
0.00110107
0.00109769
0.00109428
0.00109085
0.00108741
0.00108396
0.00108053
0.00107711
0.00107373
0.00107039
0.00106711
0.00106391
0.0010608
0.00105779
0.0010549
0.00105214
0.00104954
0.00104709
0.00104483
0.00104276
0.00104091
0.00103928
0.0010379
0.00103677
0.00103592
0.00103536
0.0010351
0.00103516
0.00103554
0.00103627
0.00103733
0.00103875
0.00104051
0.00104262
0.00104507
0.00104785
0.00105094
0.00105433
0.001058
0.00106192
0.00106606
0.0010704
0.00107491
0.00107954
0.00108426
0.00108905
0.00109386
0.00109866
0.00110342
0.00110811
0.00111271
0.0011172
0.00112155
0.00112574
0.00112978
0.00113365
0.00113734
0.00114086
0.0011442
0.00114737
0.00115038
0.00115322
0.0011559
0.00115844
0.00116084
0.00116311
0.00116527
0.00116733
0.00116931
0.00117122
0.00117308
0.00117491
0.00117673
0.00117856
0.00118043
0.00118236
0.00118437
0.00118651
0.00118879
0.00119124
0.00119391
0.00119683
0.00120002
0.00120352
0.00120737
0.00121158
0.00121618
0.00122117
0.00122664
0.00123192
0.00124132
0.00114485
0.00114319
0.00114145
0.00113963
0.00113774
0.00113578
0.00113374
0.00113164
0.00112947
0.00112724
0.00112495
0.00112262
0.00112024
0.00111783
0.00111538
0.00111292
0.00111044
0.00110795
0.00110548
0.00110302
0.0011006
0.00109821
0.00109588
0.00109361
0.00109142
0.00108933
0.00108735
0.00108548
0.00108375
0.00108217
0.00108075
0.00107951
0.00107845
0.0010776
0.00107695
0.00107653
0.00107634
0.00107638
0.00107668
0.00107722
0.00107801
0.00107906
0.00108036
0.0010819
0.00108368
0.00108569
0.00108793
0.00109036
0.00109299
0.00109578
0.00109873
0.00110181
0.00110499
0.00110826
0.0011116
0.00111497
0.00111836
0.00112174
0.00112509
0.0011284
0.00113164
0.0011348
0.00113786
0.00114083
0.00114369
0.00114643
0.00114905
0.00115155
0.00115393
0.00115619
0.00115833
0.00116035
0.00116226
0.00116405
0.00116575
0.00116735
0.00116887
0.0011703
0.00117168
0.001173
0.00117428
0.00117554
0.00117679
0.00117805
0.00117935
0.00118069
0.00118212
0.00118365
0.00118532
0.00118716
0.0011892
0.00119148
0.00119405
0.00119694
0.0012002
0.00120386
0.00120795
0.0012126
0.00121705
0.0012257
0.00115252
0.00115155
0.00115052
0.00114944
0.0011483
0.0011471
0.00114585
0.00114454
0.00114318
0.00114176
0.00114029
0.00113878
0.00113722
0.00113562
0.00113398
0.00113231
0.00113061
0.00112889
0.00112716
0.00112542
0.00112368
0.00112195
0.00112024
0.00111856
0.00111692
0.00111532
0.00111379
0.00111233
0.00111095
0.00110966
0.00110848
0.00110742
0.00110648
0.00110568
0.00110503
0.00110454
0.0011042
0.00110404
0.00110406
0.00110425
0.00110463
0.00110519
0.00110594
0.00110686
0.00110797
0.00110925
0.00111069
0.0011123
0.00111405
0.00111594
0.00111795
0.00112007
0.00112229
0.00112459
0.00112695
0.00112936
0.0011318
0.00113425
0.0011367
0.00113914
0.00114154
0.0011439
0.0011462
0.00114844
0.00115061
0.0011527
0.00115472
0.00115664
0.00115848
0.00116023
0.00116189
0.00116346
0.00116493
0.00116632
0.00116762
0.00116884
0.00116997
0.00117104
0.00117204
0.00117299
0.00117388
0.00117474