/*--------------------------------*- C++ -*----------------------------------*\
| =========                 |                                                 |
| \\      /  F ield         | OpenFOAM: The Open Source CFD Toolbox           |
|  \\    /   O peration     | Version:  2.1.1                                 |
|   \\  /    A nd           | Web:      www.OpenFOAM.org                      |
|    \\/     M anipulation  |                                                 |
\*---------------------------------------------------------------------------*/
FoamFile
{
    version     2.0;
    format      ascii;
    class       volScalarField;
    location    "0.2";
    object      p;
}
// * * * * * * * * * * * * * * * * * * * * * * * * * * * * * * * * * * * * * //

dimensions      [0 2 -2 0 0 0 0];

internalField   nonuniform List<scalar> 
6820
(
-10.2359
-12.0822
-12.6572
-12.7849
-12.8919
-12.9709
-13.0252
-13.0715
-13.1137
-13.1524
-13.1885
-13.2225
-13.2548
-13.2855
-13.3147
-13.3426
-13.3693
-13.3949
-13.4194
-13.4431
-13.4659
-13.4879
-13.5092
-13.5298
-13.5496
-13.5685
-13.5862
-13.6024
-13.6159
-13.6257
-13.6273
-13.6151
-13.5754
-14.1885
-13.6538
-13.2312
-13.0412
-13.0165
-13.0276
-13.0477
-13.0754
-13.1074
-13.1406
-13.1737
-13.2066
-13.2385
-13.2695
-13.2993
-13.3279
-13.3554
-13.3819
-13.4072
-13.4317
-13.4552
-13.478
-13.5
-13.5212
-13.5418
-13.5615
-13.5804
-13.5983
-13.6149
-13.6317
-13.647
-13.6824
-13.7303
-12.5459
-12.2422
-12.5287
-12.7737
-12.8786
-12.9539
-13.0127
-13.0619
-13.1057
-13.1455
-13.1823
-13.2168
-13.2492
-13.2799
-13.3091
-13.3369
-13.3634
-13.3889
-13.4134
-13.437
-13.4598
-13.4819
-13.5033
-13.5241
-13.5443
-13.5639
-13.5829
-13.6015
-13.6195
-13.6382
-13.6579
-13.6851
-13.7172
-13.0529
-13.0872
-13.0844
-13.0251
-13.0173
-13.0377
-13.0639
-13.0926
-13.1232
-13.1543
-13.1852
-13.2155
-13.2452
-13.274
-13.3019
-13.3289
-13.3551
-13.3804
-13.4048
-13.4285
-13.4516
-13.4739
-13.4957
-13.517
-13.5377
-13.5581
-13.5781
-13.598
-13.618
-13.6397
-13.6633
-13.696
-13.7353
-12.8975
-12.7975
-12.8417
-12.9076
-12.9604
-13.0069
-13.0474
-13.0846
-13.1202
-13.1544
-13.187
-13.2184
-13.2486
-13.2776
-13.3055
-13.3324
-13.3582
-13.3832
-13.4073
-13.4307
-13.4534
-13.4755
-13.4971
-13.5182
-13.5389
-13.5594
-13.5797
-13.6003
-13.6214
-13.6441
-13.6694
-13.7005
-13.7368
-12.9526
-12.9359
-12.961
-12.9841
-13.0063
-13.0355
-13.0669
-13.0983
-13.1299
-13.161
-13.1915
-13.2211
-13.2499
-13.2777
-13.3047
-13.3309
-13.3562
-13.3807
-13.4046
-13.4277
-13.4503
-13.4723
-13.4939
-13.5151
-13.536
-13.5568
-13.5777
-13.5989
-13.6208
-13.6444
-13.6704
-13.7006
-13.7345
-12.9508
-12.9297
-12.9455
-12.9742
-13.0042
-13.037
-13.0697
-13.1016
-13.1329
-13.1637
-13.1936
-13.2228
-13.2511
-13.2786
-13.3052
-13.331
-13.356
-13.3802
-13.4038
-13.4268
-13.4492
-13.4711
-13.4926
-13.5138
-13.5348
-13.5558
-13.5769
-13.5984
-13.6208
-13.6446
-13.6703
-13.6989
-13.73
-12.965
-12.9572
-12.9725
-12.997
-13.0221
-13.0501
-13.0796
-13.1091
-13.1387
-13.168
-13.1968
-13.2249
-13.2524
-13.2791
-13.3051
-13.3303
-13.3549
-13.3788
-13.402
-13.4248
-13.447
-13.4687
-13.4902
-13.5114
-13.5324
-13.5534
-13.5747
-13.5964
-13.6188
-13.6425
-13.6676
-13.6946
-13.7233
-12.9779
-12.974
-12.9861
-13.0076
-13.0314
-13.0582
-13.0864
-13.1148
-13.1433
-13.1716
-13.1994
-13.2268
-13.2535
-13.2796
-13.305
-13.3298
-13.3539
-13.3775
-13.4004
-13.4229
-13.4449
-13.4665
-13.4878
-13.5089
-13.5299
-13.5509
-13.5721
-13.5938
-13.6161
-13.6393
-13.6636
-13.6891
-13.7155
-12.9915
-12.9909
-13.0021
-13.0215
-13.0436
-13.0682
-13.0944
-13.1213
-13.1484
-13.1755
-13.2023
-13.2288
-13.2547
-13.2801
-13.3049
-13.3292
-13.3528
-13.376
-13.3986
-13.4207
-13.4425
-13.4639
-13.485
-13.506
-13.5268
-13.5477
-13.5688
-13.5903
-13.6122
-13.6348
-13.6582
-13.6823
-13.7068
-13.005
-13.006
-13.0164
-13.0338
-13.0542
-13.0771
-13.1019
-13.1274
-13.1533
-13.1793
-13.2051
-13.2307
-13.2559
-13.2806
-13.3048
-13.3285
-13.3517
-13.3744
-13.3967
-13.4185
-13.44
-13.4611
-13.4821
-13.5028
-13.5235
-13.5441
-13.565
-13.5861
-13.6075
-13.6294
-13.6518
-13.6746
-13.6975
-13.0183
-13.0203
-13.03
-13.0458
-13.0648
-13.0862
-13.1094
-13.1336
-13.1582
-13.1831
-13.208
-13.2327
-13.2571
-13.2811
-13.3047
-13.3279
-13.3506
-13.3728
-13.3947
-13.4162
-13.4373
-13.4582
-13.4788
-13.4993
-13.5197
-13.5401
-13.5605
-13.5812
-13.6021
-13.6232
-13.6446
-13.6662
-13.6877
-13.0312
-13.0336
-13.0427
-13.0573
-13.0748
-13.0948
-13.1167
-13.1395
-13.163
-13.1869
-13.2108
-13.2346
-13.2582
-13.2816
-13.3045
-13.3271
-13.3493
-13.3712
-13.3926
-13.4137
-13.4345
-13.455
-13.4753
-13.4955
-13.5155
-13.5355
-13.5556
-13.5757
-13.596
-13.6163
-13.6368
-13.6573
-13.6775
-13.0435
-13.0461
-13.0547
-13.0681
-13.0845
-13.1032
-13.1237
-13.1454
-13.1678
-13.1906
-13.2136
-13.2365
-13.2594
-13.282
-13.3044
-13.3264
-13.3481
-13.3694
-13.3904
-13.4111
-13.4315
-13.4516
-13.4716
-13.4914
-13.511
-13.5306
-13.5502
-13.5697
-13.5893
-13.6089
-13.6284
-13.6479
-13.667
-13.0552
-13.0578
-13.066
-13.0784
-13.0936
-13.1112
-13.1305
-13.151
-13.1723
-13.1941
-13.2162
-13.2384
-13.2605
-13.2824
-13.3041
-13.3255
-13.3467
-13.3675
-13.3881
-13.4083
-13.4283
-13.448
-13.4676
-13.4869
-13.5062
-13.5253
-13.5443
-13.5632
-13.5821
-13.6009
-13.6196
-13.6381
-13.6562
-13.0662
-13.0688
-13.0765
-13.088
-13.1022
-13.1187
-13.1369
-13.1564
-13.1767
-13.1976
-13.2188
-13.2401
-13.2614
-13.2827
-13.3037
-13.3246
-13.3452
-13.3655
-13.3856
-13.4054
-13.4249
-13.4442
-13.4633
-13.4822
-13.501
-13.5195
-13.538
-13.5563
-13.5745
-13.5926
-13.6104
-13.628
-13.6452
-13.0765
-13.079
-13.0863
-13.097
-13.1103
-13.1258
-13.143
-13.1615
-13.1808
-13.2008
-13.2211
-13.2417
-13.2623
-13.2828
-13.3033
-13.3235
-13.3436
-13.3634
-13.383
-13.4023
-13.4214
-13.4402
-13.4588
-13.4772
-13.4954
-13.5135
-13.5314
-13.549
-13.5665
-13.5838
-13.6008
-13.6175
-13.6339
-13.0861
-13.0885
-13.0953
-13.1054
-13.1179
-13.1325
-13.1487
-13.1663
-13.1847
-13.2038
-13.2233
-13.2431
-13.263
-13.2829
-13.3027
-13.3223
-13.3418
-13.3611
-13.3802
-13.399
-13.4176
-13.4359
-13.454
-13.4719
-13.4896
-13.5071
-13.5244
-13.5414
-13.5582
-13.5747
-13.591
-13.6069
-13.6224
-13.095
-13.0972
-13.1036
-13.1131
-13.1249
-13.1386
-13.154
-13.1706
-13.1882
-13.2065
-13.2252
-13.2443
-13.2635
-13.2827
-13.3019
-13.321
-13.3399
-13.3587
-13.3772
-13.3955
-13.4136
-13.4314
-13.449
-13.4664
-13.4835
-13.5004
-13.517
-13.5334
-13.5495
-13.5653
-13.5808
-13.5959
-13.6106
-13.1031
-13.1052
-13.1112
-13.1201
-13.1312
-13.1442
-13.1588
-13.1746
-13.1914
-13.2089
-13.2269
-13.2453
-13.2638
-13.2824
-13.3009
-13.3195
-13.3378
-13.356
-13.374
-13.3918
-13.4094
-13.4267
-13.4438
-13.4606
-13.4771
-13.4934
-13.5094
-13.5252
-13.5406
-13.5557
-13.5704
-13.5848
-13.5987
-13.1103
-13.1123
-13.1181
-13.1265
-13.1369
-13.1492
-13.1631
-13.1782
-13.1942
-13.211
-13.2283
-13.246
-13.2638
-13.2818
-13.2998
-13.3177
-13.3355
-13.3532
-13.3707
-13.3879
-13.405
-13.4217
-13.4383
-13.4545
-13.4705
-13.4862
-13.5016
-13.5166
-13.5314
-13.5458
-13.5598
-13.5734
-13.5867
-13.1168
-13.1187
-13.1241
-13.1321
-13.142
-13.1536
-13.1668
-13.1812
-13.1966
-13.2127
-13.2293
-13.2463
-13.2636
-13.281
-13.2984
-13.3157
-13.333
-13.3501
-13.3671
-13.3838
-13.4003
-13.4166
-13.4325
-13.4482
-13.4636
-13.4787
-13.4935
-13.5079
-13.522
-13.5357
-13.549
-13.562
-13.5745
-13.1225
-13.1242
-13.1294
-13.1369
-13.1463
-13.1574
-13.17
-13.1838
-13.1985
-13.214
-13.23
-13.2464
-13.2631
-13.2799
-13.2968
-13.3136
-13.3303
-13.3469
-13.3633
-13.3795
-13.3955
-13.4112
-13.4266
-13.4417
-13.4565
-13.471
-13.4852
-13.499
-13.5124
-13.5255
-13.5381
-13.5504
-13.5622
-13.1272
-13.1289
-13.1338
-13.1409
-13.1499
-13.1605
-13.1725
-13.1857
-13.1999
-13.2148
-13.2302
-13.2461
-13.2622
-13.2784
-13.2948
-13.3111
-13.3273
-13.3434
-13.3593
-13.375
-13.3904
-13.4056
-13.4204
-13.435
-13.4492
-13.4632
-13.4767
-13.4899
-13.5027
-13.5151
-13.5271
-13.5387
-13.5498
-13.1311
-13.1327
-13.1374
-13.1442
-13.1527
-13.1629
-13.1745
-13.1872
-13.2008
-13.2152
-13.2302
-13.2455
-13.2611
-13.2768
-13.2927
-13.3085
-13.3242
-13.3398
-13.3551
-13.3703
-13.3852
-13.3999
-13.4142
-13.4282
-13.4419
-13.4552
-13.4682
-13.4807
-13.4929
-13.5047
-13.516
-13.527
-13.5374
-13.1341
-13.1356
-13.14
-13.1465
-13.1546
-13.1643
-13.1755
-13.1877
-13.2009
-13.2148
-13.2292
-13.2441
-13.2592
-13.2745
-13.2899
-13.3052
-13.3205
-13.3356
-13.3505
-13.3652
-13.3796
-13.3938
-13.4076
-13.4211
-13.4342
-13.447
-13.4594
-13.4714
-13.4829
-13.4941
-13.5048
-13.5152
-13.525
-13.1361
-13.1376
-13.1419
-13.1482
-13.1561
-13.1655
-13.1763
-13.1882
-13.201
-13.2146
-13.2286
-13.243
-13.2577
-13.2726
-13.2875
-13.3024
-13.3171
-13.3318
-13.3462
-13.3604
-13.3743
-13.3879
-13.4012
-13.4142
-13.4268
-13.439
-13.4508
-13.4622
-13.4732
-13.4837
-13.4939
-13.5036
-13.5128
-13.1371
-13.1383
-13.1422
-13.148
-13.1555
-13.1645
-13.1749
-13.1865
-13.1989
-13.2121
-13.2258
-13.24
-13.2544
-13.2689
-13.2835
-13.2981
-13.3125
-13.3267
-13.3408
-13.3546
-13.3681
-13.3813
-13.3941
-13.4066
-13.4187
-13.4304
-13.4417
-13.4526
-13.4631
-13.4731
-13.4827
-13.4918
-13.5005
-13.1373
-13.1389
-13.143
-13.1489
-13.1564
-13.1654
-13.1757
-13.187
-13.1992
-13.2121
-13.2255
-13.2392
-13.2532
-13.2672
-13.2814
-13.2954
-13.3094
-13.3232
-13.3367
-13.35
-13.363
-13.3757
-13.388
-13.4
-13.4115
-13.4227
-13.4334
-13.4437
-13.4536
-13.4631
-13.4721
-13.4806
-13.4887
-13.1357
-13.1363
-13.1391
-13.144
-13.1508
-13.1594
-13.1694
-13.1807
-13.1929
-13.2058
-13.2192
-13.233
-13.247
-13.2611
-13.2751
-13.2891
-13.303
-13.3166
-13.3299
-13.343
-13.3558
-13.3681
-13.3801
-13.3918
-13.403
-13.4137
-13.4241
-13.434
-13.4434
-13.4524
-13.4609
-13.469
-13.4766
-13.1352
-13.1378
-13.1422
-13.1482
-13.1554
-13.164
-13.1738
-13.1847
-13.1964
-13.2087
-13.2215
-13.2347
-13.248
-13.2614
-13.2748
-13.2882
-13.3014
-13.3144
-13.3271
-13.3396
-13.3517
-13.3635
-13.3749
-13.386
-13.3966
-13.4068
-13.4165
-13.4259
-13.4347
-13.4432
-13.4511
-13.4586
-13.4657
-13.1273
-13.1253
-13.1255
-13.1292
-13.1358
-13.1448
-13.1555
-13.1674
-13.1803
-13.1938
-13.2076
-13.2218
-13.2359
-13.2501
-13.2641
-13.278
-13.2916
-13.3049
-13.3178
-13.3304
-13.3426
-13.3544
-13.3658
-13.3767
-13.3872
-13.3972
-13.4068
-13.4159
-13.4245
-13.4326
-13.4402
-13.4474
-13.4541
-13.1354
-13.1419
-13.1475
-13.1525
-13.1583
-13.1655
-13.1743
-13.1841
-13.1949
-13.2064
-13.2184
-13.2308
-13.2434
-13.2561
-13.2687
-13.2813
-13.2938
-13.306
-13.318
-13.3296
-13.341
-13.3519
-13.3625
-13.3727
-13.3824
-13.3918
-13.4006
-13.4091
-13.417
-13.4245
-13.4316
-13.4381
-13.4442
-13.1033
-13.0897
-13.0847
-13.09
-13.1
-13.1126
-13.1267
-13.1418
-13.1574
-13.1732
-13.189
-13.2046
-13.22
-13.2351
-13.2498
-13.2641
-13.278
-13.2915
-13.3044
-13.3169
-13.329
-13.3405
-13.3515
-13.362
-13.372
-13.3815
-13.3905
-13.399
-13.4069
-13.4144
-13.4213
-13.4278
-13.4337
-13.1574
-13.1778
-13.1823
-13.1777
-13.1751
-13.1773
-13.1825
-13.1895
-13.1981
-13.2077
-13.2182
-13.2292
-13.2406
-13.2522
-13.2639
-13.2756
-13.2872
-13.2985
-13.3097
-13.3205
-13.331
-13.3412
-13.351
-13.3604
-13.3693
-13.3779
-13.3859
-13.3936
-13.4007
-13.4074
-13.4137
-13.4195
-13.4248
-13.0346
-12.985
-12.9731
-12.999
-13.0272
-13.0516
-13.0755
-13.0988
-13.1209
-13.1419
-13.1618
-13.1808
-13.1989
-13.216
-13.2324
-13.248
-13.2629
-13.2771
-13.2906
-13.3035
-13.3157
-13.3273
-13.3383
-13.3487
-13.3585
-13.3678
-13.3764
-13.3845
-13.3921
-13.3991
-13.4055
-13.4115
-13.4168
-13.283
-13.3179
-13.2871
-13.2446
-13.216
-13.2049
-13.202
-13.2029
-13.2067
-13.2129
-13.2207
-13.2295
-13.2391
-13.2492
-13.2596
-13.27
-13.2805
-13.2909
-13.3012
-13.3112
-13.3209
-13.3304
-13.3394
-13.3481
-13.3564
-13.3643
-13.3717
-13.3787
-13.3853
-13.3914
-13.3971
-13.4023
-13.4071
-12.7908
-12.671
-12.7334
-12.8349
-12.9089
-12.9609
-13.0047
-13.043
-13.0764
-13.1058
-13.1322
-13.1561
-13.178
-13.1981
-13.2168
-13.2342
-13.2504
-13.2656
-13.2799
-13.2934
-13.306
-13.3179
-13.329
-13.3394
-13.3492
-13.3583
-13.3668
-13.3747
-13.382
-13.3887
-13.3948
-13.4003
-13.4052
-14.0054
-13.6664
-13.4027
-13.2858
-13.2357
-13.2104
-13.1954
-13.1893
-13.1896
-13.1937
-13.2004
-13.2088
-13.2184
-13.2286
-13.2393
-13.2501
-13.261
-13.2718
-13.2824
-13.2928
-13.3029
-13.3126
-13.3219
-13.3308
-13.3393
-13.3474
-13.3549
-13.362
-13.3687
-13.3748
-13.3805
-13.3858
-13.3905
-11.5018
-12.2084
-12.613
-12.7654
-12.8702
-12.9526
-13.0122
-13.0573
-13.0939
-13.1244
-13.1504
-13.1731
-13.1934
-13.2118
-13.2288
-13.2445
-13.2592
-13.2729
-13.2859
-13.298
-13.3095
-13.3203
-13.3305
-13.34
-13.3489
-13.3573
-13.365
-13.3722
-13.3788
-13.3849
-13.3905
-13.3955
-13.4
-13.463
-13.7138
-13.8426
-13.9308
-13.9972
-14.0445
-14.0785
-14.1085
-14.1367
-14.1657
-14.1974
-14.2323
-14.2709
-14.313
-14.3582
-14.4059
-14.4553
-14.5055
-14.5558
-14.6054
-14.6536
-14.6996
-14.7428
-14.7824
-14.8179
-14.8484
-14.8733
-14.8917
-14.9028
-14.9055
-14.8988
-14.8818
-14.8533
-14.8123
-14.7577
-14.6885
-14.6037
-14.5025
-14.3841
-14.2477
-14.0929
-13.9193
-13.7264
-13.5141
-13.2824
-13.0312
-12.7608
-12.4715
-12.1639
-11.8386
-11.4965
-11.1388
-10.7668
-10.3818
-9.98559
-9.57994
-9.16681
-8.74825
-8.32638
-7.90332
-7.4812
-7.06206
-6.64789
-6.24052
-5.84166
-5.45288
-5.07556
-4.71094
-4.36004
-4.02373
-3.70267
-3.39734
-3.10804
-2.8349
-2.57791
-2.3369
-2.11159
-1.90159
-1.70644
-1.52559
-1.35844
-1.20438
-1.06275
-0.932898
-0.814165
-0.705906
-0.60751
-0.518365
-0.437941
-0.365654
-0.301119
-0.243684
-0.193271
-0.148883
-0.111071
-0.0781022
-0.0509351
-0.0294579
-0.00497853
-0.012897
-14.0456
-14.1839
-14.1276
-14.0631
-14.0377
-14.0226
-14.0134
-14.0197
-14.0367
-14.0641
-14.1014
-14.1458
-14.1956
-14.2489
-14.304
-14.3596
-14.4144
-14.4679
-14.5193
-14.5685
-14.6151
-14.659
-14.6999
-14.7372
-14.7706
-14.7993
-14.8224
-14.8392
-14.8487
-14.8499
-14.8418
-14.8234
-14.7936
-14.7513
-14.6956
-14.6255
-14.54
-14.4382
-14.3195
-14.1831
-14.0285
-13.8554
-13.6633
-13.4522
-13.2219
-12.9725
-12.7042
-12.4174
-12.1125
-11.7904
-11.4518
-11.0978
-10.7298
-10.3491
-9.95732
-9.55627
-9.14785
-8.73402
-8.31687
-7.89845
-7.48083
-7.06603
-6.65594
-6.2524
-5.85707
-5.47148
-5.09702
-4.7349
-4.38615
-4.05163
-3.73201
-3.42778
-3.13926
-2.86661
-2.60981
-2.36873
-2.14312
-1.93262
-1.73676
-1.55505
-1.38692
-1.23174
-1.08891
-0.957779
-0.837711
-0.728074
-0.628269
-0.537695
-0.455827
-0.382092
-0.316092
-0.25721
-0.205294
-0.159492
-0.120044
-0.0858443
-0.0565457
-0.0347169
-0.00610784
-0.0176589
-13.7692
-13.7804
-13.8023
-13.8509
-13.9058
-13.9504
-13.9894
-14.018
-14.0481
-14.0771
-14.1082
-14.1416
-14.1783
-14.2186
-14.2622
-14.3085
-14.357
-14.4069
-14.4572
-14.507
-14.5554
-14.6013
-14.644
-14.6828
-14.7168
-14.7454
-14.7679
-14.7835
-14.7914
-14.791
-14.7811
-14.761
-14.7295
-14.6858
-14.6289
-14.5577
-14.4714
-14.3692
-14.2502
-14.1139
-13.9597
-13.7872
-13.5961
-13.3863
-13.1577
-12.9103
-12.6444
-12.3603
-12.0585
-11.7398
-11.4049
-11.055
-10.6912
-10.315
-9.92788
-9.53162
-9.12803
-8.71907
-8.30671
-7.893
-7.47994
-7.06948
-6.66352
-6.26382
-5.87205
-5.48971
-5.11817
-4.75863
-4.41211
-4.07947
-3.76138
-3.45836
-3.17072
-2.89863
-2.64211
-2.40105
-2.1752
-1.96424
-1.76774
-1.58521
-1.41611
-1.25985
-1.11583
-0.983426
-0.862023
-0.751002
-0.649777
-0.557758
-0.474424
-0.399216
-0.331721
-0.271358
-0.217901
-0.17064
-0.129514
-0.0940151
-0.0625731
-0.0402094
-0.0077585
-0.0219082
-13.8218
-13.9299
-13.9889
-14.007
-14.0148
-14.0194
-14.0232
-14.0302
-14.042
-14.0622
-14.0899
-14.1235
-14.162
-14.2045
-14.2495
-14.2959
-14.3425
-14.3886
-14.4337
-14.4773
-14.519
-14.5584
-14.5952
-14.6288
-14.6586
-14.6839
-14.7039
-14.7176
-14.7241
-14.7225
-14.7116
-14.6905
-14.6582
-14.6136
-14.5559
-14.4841
-14.3973
-14.2948
-14.1758
-14.0397
-13.886
-13.7144
-13.5245
-13.3162
-13.0894
-12.8443
-12.5809
-12.2997
-12.0012
-11.686
-11.355
-11.0092
-10.6498
-10.2781
-9.89575
-9.50432
-9.10564
-8.70158
-8.2941
-7.88518
-7.47677
-7.0708
-6.6691
-6.27342
-5.88539
-5.50649
-5.13806
-4.78128
-4.43718
-4.10661
-3.79024
-3.48858
-3.20197
-2.93058
-2.67446
-2.43352
-2.20753
-1.9962
-1.79911
-1.61582
-1.4458
-1.28849
-1.14331
-1.00966
-0.886931
-0.774536
-0.671893
-0.578427
-0.49362
-0.416927
-0.34792
-0.286054
-0.23103
-0.182276
-0.139443
-0.102583
-0.068998
-0.0459193
-0.00993705
-0.025606
-13.7909
-13.8381
-13.8556
-13.8702
-13.8952
-13.9235
-13.9512
-13.9779
-14.0092
-14.0424
-14.0739
-14.1081
-14.145
-14.1839
-14.2246
-14.2666
-14.3095
-14.3527
-14.3957
-14.4379
-14.4785
-14.5168
-14.5522
-14.584
-14.6114
-14.6339
-14.6505
-14.6607
-14.6636
-14.6584
-14.6442
-14.6201
-14.5852
-14.5384
-14.479
-14.4058
-14.318
-14.2149
-14.0957
-13.9598
-13.8067
-13.636
-13.4474
-13.2407
-13.0159
-12.773
-12.5123
-12.2341
-11.9389
-11.6273
-11.3003
-10.9587
-10.6038
-10.2368
-9.85933
-9.47292
-9.07934
-8.68043
-8.27807
-7.87419
-7.47071
-7.0695
-6.67235
-6.28096
-5.89694
-5.52174
-5.15667
-4.8029
-4.46145
-4.13314
-3.81866
-3.51853
-3.23308
-2.96252
-2.7069
-2.46616
-2.24011
-2.02846
-1.83084
-1.64683
-1.47592
-1.31758
-1.17126
-1.03637
-0.912334
-0.798568
-0.694509
-0.599595
-0.51331
-0.435123
-0.364595
-0.30121
-0.244603
-0.19433
-0.149771
-0.111499
-0.0757816
-0.0518134
-0.012625
-0.028733
-13.7809
-13.834
-13.8761
-13.9093
-13.9372
-13.96
-13.9796
-13.9994
-14.015
-14.0376
-14.0644
-14.0948
-14.1284
-14.1649
-14.2034
-14.2434
-14.2841
-14.3247
-14.3645
-14.4031
-14.4399
-14.4742
-14.5056
-14.5336
-14.5575
-14.5766
-14.5903
-14.5978
-14.5982
-14.5906
-14.5741
-14.5479
-14.5109
-14.4622
-14.4009
-14.3262
-14.2372
-14.1331
-14.0133
-13.8772
-13.7243
-13.5541
-13.3665
-13.1612
-12.9382
-12.6975
-12.4394
-12.1642
-11.8723
-11.5645
-11.2415
-10.9043
-10.554
-10.1919
-9.81946
-9.43829
-9.05005
-8.65652
-8.25955
-7.861
-7.46273
-7.06655
-6.67421
-6.28738
-5.90761
-5.53633
-5.17482
-4.82423
-4.48557
-4.15966
-3.84718
-3.54866
-3.26445
-2.99477
-2.73971
-2.49921
-2.27311
-2.06117
-1.86304
-1.67831
-1.50652
-1.34716
-1.19969
-1.06356
-0.938209
-0.823064
-0.717579
-0.621204
-0.533429
-0.453735
-0.38167
-0.316751
-0.258545
-0.20673
-0.160431
-0.120701
-0.0828712
-0.0578485
-0.015771
-0.0313089
-13.7692
-13.8126
-13.8457
-13.8705
-13.8932
-13.9157
-13.9377
-13.9596
-13.988
-14.0154
-14.0444
-14.0756
-14.1088
-14.1438
-14.1801
-14.2174
-14.255
-14.2925
-14.3293
-14.365
-14.3989
-14.4304
-14.4591
-14.4842
-14.5052
-14.5213
-14.5319
-14.5361
-14.5333
-14.5226
-14.5031
-14.474
-14.4343
-14.3833
-14.32
-14.2436
-14.1533
-14.0483
-13.9279
-13.7916
-13.6389
-13.4694
-13.2828
-13.0789
-12.8577
-12.6193
-12.3638
-12.0916
-11.8032
-11.4992
-11.1803
-10.8476
-10.5021
-10.1451
-9.77795
-9.40223
-9.01955
-8.63165
-8.24028
-7.84726
-7.45439
-7.06342
-6.67606
-6.29391
-5.9185
-5.55122
-5.19334
-4.84598
-4.51015
-4.18666
-3.87621
-3.57931
-3.29635
-3.02757
-2.77306
-2.5328
-2.30667
-2.09443
-1.89578
-1.71033
-1.53765
-1.37725
-1.22863
-1.09125
-0.96456
-0.84802
-0.741089
-0.643234
-0.553948
-0.472726
-0.399103
-0.332625
-0.272799
-0.219416
-0.171361
-0.130127
-0.0902075
-0.0639753
-0.0192884
-0.0333922
-13.7579
-13.797
-13.8306
-13.8593
-13.886
-13.911
-13.9348
-13.9578
-13.9803
-14.0046
-14.0311
-14.0598
-14.0905
-14.123
-14.1568
-14.1915
-14.2265
-14.2613
-14.2953
-14.328
-14.3589
-14.3873
-14.4127
-14.4345
-14.4522
-14.4651
-14.4725
-14.4736
-14.4678
-14.4541
-14.4319
-14.4001
-14.3581
-14.3048
-14.2395
-14.1614
-14.0697
-13.9636
-13.8425
-13.7059
-13.5533
-13.3843
-13.1986
-12.9961
-12.7768
-12.5406
-12.2878
-12.0187
-11.7338
-11.4337
-11.1191
-10.791
-10.4504
-10.0985
-9.73678
-9.3666
-8.98956
-8.60733
-8.22162
-7.83417
-7.44671
-7.06095
-6.67855
-6.30107
-5.93
-5.5667
-5.21243
-4.86829
-4.53526
-4.21419
-3.90574
-3.61046
-3.32875
-3.06085
-2.80689
-2.56688
-2.3407
-2.12817
-1.929
-1.74283
-1.56925
-1.40782
-1.25803
-1.11938
-0.991352
-0.873402
-0.765011
-0.665657
-0.574839
-0.492066
-0.416861
-0.3488
-0.287329
-0.232347
-0.182517
-0.139731
-0.0977381
-0.0701512
-0.0230705
-0.0350783
-13.7468
-13.7819
-13.8135
-13.841
-13.8663
-13.8902
-13.913
-13.9361
-13.9599
-13.9852
-14.0118
-14.0399
-14.0695
-14.1003
-14.1321
-14.1644
-14.1969
-14.2289
-14.2601
-14.2898
-14.3177
-14.3431
-14.3655
-14.3844
-14.3991
-14.4089
-14.4132
-14.4114
-14.4026
-14.386
-14.361
-14.3266
-14.2821
-14.2267
-14.1594
-14.0796
-13.9865
-13.8794
-13.7577
-13.6209
-13.4684
-13.3
-13.1153
-12.9142
-12.6967
-12.4628
-12.2128
-11.9468
-11.6654
-11.3692
-11.0589
-10.7354
-10.3997
-10.053
-9.69659
-9.33191
-8.96046
-8.58385
-8.20373
-7.82178
-7.43968
-7.05907
-6.68158
-6.30872
-5.94194
-5.58259
-5.23189
-4.89094
-4.56071
-4.24202
-3.93558
-3.64192
-3.36145
-3.09444
-2.84104
-2.60127
-2.37507
-2.16225
-1.96256
-1.77568
-1.60122
-1.43874
-1.2878
-1.14788
-1.0185
-0.899138
-0.789277
-0.688414
-0.596051
-0.51171
-0.434904
-0.365236
-0.302098
-0.245487
-0.193864
-0.149476
-0.105422
-0.0763484
-0.0270125
-0.0364881
-13.7354
-13.7677
-13.7977
-13.8249
-13.8504
-13.8747
-13.8983
-13.9214
-13.9448
-13.9691
-13.9944
-14.0209
-14.0486
-14.0774
-14.1069
-14.1368
-14.1667
-14.1961
-14.2245
-14.2514
-14.2764
-14.2988
-14.3182
-14.334
-14.3456
-14.3524
-14.3538
-14.3489
-14.3372
-14.3179
-14.2902
-14.2533
-14.2065
-14.1489
-14.0798
-13.9984
-13.904
-13.796
-13.6737
-13.5367
-13.3844
-13.2166
-13.033
-12.8333
-12.6177
-12.3861
-12.1388
-11.8759
-11.5981
-11.3057
-10.9997
-10.6807
-10.3499
-10.0083
-9.65717
-9.29792
-8.932
-8.56095
-8.18635
-7.80983
-7.43302
-7.05751
-6.68487
-6.31659
-5.95407
-5.59864
-5.25149
-4.91371
-4.58627
-4.26998
-3.96554
-3.6735
-3.39428
-3.12817
-2.87535
-2.63585
-2.40963
-2.19653
-1.99635
-1.80876
-1.63342
-1.46992
-1.31783
-1.17665
-1.04593
-0.925145
-0.813813
-0.711434
-0.617518
-0.531597
-0.453177
-0.381886
-0.317064
-0.258798
-0.205366
-0.15933
-0.113223
-0.0825498
-0.031026
-0.037748
-13.724
-13.7539
-13.7823
-13.8087
-13.8336
-13.8575
-13.8806
-13.9034
-13.9264
-13.9501
-13.9746
-14
-14.0263
-14.0533
-14.0807
-14.1084
-14.1358
-14.1626
-14.1883
-14.2124
-14.2345
-14.254
-14.2705
-14.2834
-14.292
-14.2958
-14.2942
-14.2865
-14.272
-14.2499
-14.2196
-14.1803
-14.1312
-14.0715
-14.0006
-13.9177
-13.8221
-13.7132
-13.5904
-13.4532
-13.3012
-13.134
-12.9514
-12.7533
-12.5395
-12.3103
-12.0656
-11.8059
-11.5315
-11.243
-10.9412
-10.6268
-10.3007
-9.96417
-9.61829
-9.26442
-8.90395
-8.53838
-8.16925
-7.7981
-7.42653
-7.05607
-6.68825
-6.3245
-5.96622
-5.61469
-5.27108
-4.93647
-4.6118
-4.29791
-3.99548
-3.70508
-3.42713
-3.16195
-2.90971
-2.6705
-2.44428
-2.23094
-2.03027
-1.842
-1.6658
-1.50128
-1.34804
-1.20562
-1.07355
-0.951355
-0.83855
-0.734652
-0.639178
-0.55167
-0.471626
-0.398698
-0.332178
-0.272236
-0.216983
-0.169262
-0.121106
-0.0887427
-0.0350414
-0.0389686
-13.7125
-13.7403
-13.7673
-13.7928
-13.8171
-13.8406
-13.8634
-13.8859
-13.9084
-13.9313
-13.9547
-13.9788
-14.0034
-14.0286
-14.054
-14.0794
-14.1044
-14.1286
-14.1516
-14.173
-14.1923
-14.209
-14.2226
-14.2325
-14.2382
-14.2391
-14.2346
-14.2241
-14.2068
-14.1821
-14.1492
-14.1075
-14.0562
-13.9945
-13.9219
-13.8375
-13.7407
-13.631
-13.5077
-13.3704
-13.2187
-13.0522
-12.8706
-12.674
-12.4621
-12.2351
-11.9932
-11.7365
-11.4656
-11.181
-10.8833
-10.5734
-10.2521
-9.92051
-9.57981
-9.23124
-8.87617
-8.51603
-8.15229
-7.78647
-7.42009
-7.05463
-6.69159
-6.33236
-5.97828
-5.63063
-5.29055
-4.9591
-4.63723
-4.32574
-4.02534
-3.73659
-3.45993
-3.19568
-2.94406
-2.70515
-2.47896
-2.26539
-2.06426
-1.87532
-1.69827
-1.53276
-1.37839
-1.23472
-1.10132
-0.977713
-0.863437
-0.75802
-0.660982
-0.571881
-0.490205
-0.415627
-0.347398
-0.285763
-0.228678
-0.179238
-0.129035
-0.0949151
-0.0390043
-0.0402341
-13.7008
-13.727
-13.7525
-13.777
-13.8006
-13.8234
-13.8457
-13.8676
-13.8894
-13.9115
-13.9338
-13.9566
-13.9797
-14.0031
-14.0265
-14.0497
-14.0724
-14.0941
-14.1145
-14.1333
-14.1498
-14.1637
-14.1744
-14.1815
-14.1843
-14.1824
-14.175
-14.1617
-14.1417
-14.1144
-14.0791
-14.035
-13.9816
-13.918
-13.8437
-13.7579
-13.66
-13.5495
-13.4257
-13.2883
-13.1369
-12.971
-12.7906
-12.5954
-12.3854
-12.1607
-11.9215
-11.6679
-11.4004
-11.1196
-10.826
-10.5205
-10.2039
-9.87725
-9.54166
-9.19834
-8.8486
-8.49382
-8.13543
-7.77487
-7.41362
-7.05313
-6.69483
-6.34008
-5.9902
-5.64641
-5.30985
-4.98157
-4.66249
-4.35341
-4.05505
-3.76796
-3.49261
-3.22933
-2.97834
-2.73977
-2.51362
-2.29984
-2.09827
-1.90868
-1.73081
-1.56431
-1.40882
-1.26392
-1.12919
-1.00418
-0.888435
-0.781497
-0.682894
-0.592193
-0.508876
-0.432639
-0.362691
-0.299345
-0.240419
-0.189232
-0.136979
-0.101057
-0.0428747
-0.0416019
-13.6889
-13.7136
-13.7379
-13.7614
-13.7841
-13.8062
-13.8278
-13.849
-13.8701
-13.8912
-13.9125
-13.9339
-13.9555
-13.9771
-13.9985
-14.0195
-14.0399
-14.0592
-14.0771
-14.0932
-14.107
-14.1182
-14.1261
-14.1304
-14.1304
-14.1256
-14.1156
-14.0995
-14.0769
-14.047
-14.0093
-13.963
-13.9074
-13.842
-13.766
-13.6789
-13.5799
-13.4686
-13.3444
-13.207
-13.0558
-12.8907
-12.7113
-12.5176
-12.3095
-12.0871
-11.8504
-11.5999
-11.3358
-11.0588
-10.7693
-10.4681
-10.1562
-9.83437
-9.50381
-9.16567
-8.8212
-8.47173
-8.11861
-7.76327
-7.40711
-7.05154
-6.69794
-6.34764
-6.00192
-5.66199
-5.32895
-5.00382
-4.68753
-4.38088
-4.08456
-3.79916
-3.52514
-3.26284
-3.01251
-2.77429
-2.54822
-2.33425
-2.13226
-1.94205
-1.76336
-1.5959
-1.4393
-1.29318
-1.15713
-1.03072
-0.91351
-0.805051
-0.70488
-0.612575
-0.527611
-0.449705
-0.378027
-0.312956
-0.25218
-0.199223
-0.144912
-0.107162
-0.0466256
-0.0431063
-13.6769
-13.7003
-13.7233
-13.7457
-13.7676
-13.7888
-13.8096
-13.8301
-13.8503
-13.8704
-13.8905
-13.9105
-13.9306
-13.9504
-13.9699
-13.9889
-14.007
-14.0239
-14.0393
-14.0529
-14.0641
-14.0725
-14.0777
-14.0792
-14.0765
-14.069
-14.0562
-14.0375
-14.0123
-13.98
-13.9399
-13.8914
-13.8338
-13.7666
-13.689
-13.6005
-13.5005
-13.3885
-13.2639
-13.1264
-12.9756
-12.8112
-12.6329
-12.4406
-12.2344
-12.0142
-11.7802
-11.5326
-11.2719
-10.9985
-10.7131
-10.4162
-10.1089
-9.79185
-9.46628
-9.13325
-8.79398
-8.44973
-8.10184
-7.75164
-7.40052
-7.04982
-6.70088
-6.35501
-6.01343
-5.67733
-5.34779
-5.02582
-4.71232
-4.4081
-4.11384
-3.83014
-3.55746
-3.29616
-3.04651
-2.80867
-2.58269
-2.36856
-2.16618
-1.97536
-1.79589
-1.62747
-1.46978
-1.32246
-1.1851
-1.0573
-0.938627
-0.828651
-0.726911
-0.632999
-0.546383
-0.4668
-0.393384
-0.326574
-0.263939
-0.209192
-0.152813
-0.113227
-0.0502416
-0.0447644
-13.6648
-13.6869
-13.7087
-13.7301
-13.7509
-13.7713
-13.7913
-13.8108
-13.8301
-13.8491
-13.868
-13.8867
-13.9052
-13.9233
-13.9409
-13.9578
-13.9737
-13.9883
-14.0013
-14.0123
-14.0209
-14.0268
-14.0293
-14.0281
-14.0227
-14.0126
-13.9971
-13.9758
-13.9481
-13.9134
-13.871
-13.8203
-13.7608
-13.6918
-13.6127
-13.5229
-13.4219
-13.3092
-13.1843
-13.0468
-12.8963
-12.7325
-12.5553
-12.3645
-12.1601
-11.9421
-11.7107
-11.4661
-11.2087
-10.939
-10.6575
-10.3649
-10.062
-9.74974
-9.42907
-9.10108
-8.76693
-8.42785
-8.0851
-7.74
-7.39385
-7.04797
-6.70366
-6.36216
-6.0247
-5.6924
-5.36635
-5.04752
-4.73682
-4.43503
-4.14284
-3.86085
-3.58953
-3.32926
-3.08031
-2.84287
-2.61701
-2.40274
-2.19998
-2.00859
-1.82835
-1.659
-1.50023
-1.35171
-1.21306
-1.08388
-0.963753
-0.852263
-0.748957
-0.653436
-0.565165
-0.483898
-0.408738
-0.340178
-0.275676
-0.219125
-0.160664
-0.119248
-0.0537164
-0.0465794
-13.6524
-13.6734
-13.694
-13.7144
-13.7343
-13.7537
-13.7727
-13.7913
-13.8096
-13.8275
-13.8451
-13.8624
-13.8793
-13.8957
-13.9115
-13.9264
-13.9401
-13.9525
-13.9631
-13.9717
-13.9778
-13.981
-13.981
-13.9772
-13.9691
-13.9564
-13.9383
-13.9145
-13.8843
-13.8472
-13.8026
-13.7499
-13.6885
-13.6178
-13.5372
-13.4462
-13.3442
-13.2309
-13.1056
-12.968
-12.8179
-12.6548
-12.4787
-12.2893
-12.0867
-11.8709
-11.642
-11.4004
-11.1463
-10.8801
-10.6025
-10.3141
-10.0157
-9.70805
-9.3922
-9.06918
-8.74008
-8.40608
-8.06842
-7.72833
-7.3871
-7.04598
-6.70624
-6.36909
-6.0357
-5.70719
-5.3846
-5.06891
-4.76099
-4.46163
-4.17152
-3.89125
-3.6213
-3.36207
-3.11385
-2.87683
-2.65112
-2.43673
-2.23362
-2.04167
-1.86068
-1.69042
-1.5306
-1.38091
-1.24097
-1.11042
-0.98885
-0.875852
-0.770983
-0.673855
-0.583927
-0.500973
-0.424065
-0.353748
-0.287371
-0.229008
-0.16845
-0.125224
-0.0570494
-0.0485452
-13.64
-13.6598
-13.6793
-13.6986
-13.7175
-13.736
-13.754
-13.7716
-13.7887
-13.8055
-13.8219
-13.8378
-13.8531
-13.8678
-13.8817
-13.8946
-13.9063
-13.9165
-13.9248
-13.931
-13.9346
-13.9353
-13.9327
-13.9264
-13.9158
-13.9005
-13.8799
-13.8537
-13.8211
-13.7817
-13.7349
-13.6802
-13.6169
-13.5446
-13.4625
-13.3704
-13.2675
-13.1535
-13.0279
-12.8903
-12.7405
-12.5782
-12.4031
-12.2151
-12.0143
-11.8007
-11.5743
-11.3355
-11.0846
-10.822
-10.5482
-10.2639
-9.96987
-9.66682
-9.35572
-9.03757
-8.71344
-8.38445
-8.05179
-7.71665
-7.38026
-7.04385
-6.70863
-6.37577
-6.04642
-5.72166
-5.40252
-5.08994
-4.7848
-4.48787
-4.19983
-3.92129
-3.65274
-3.39457
-3.14708
-2.91051
-2.68496
-2.47048
-2.26705
-2.07456
-1.89285
-1.7217
-1.56085
-1.40999
-1.26879
-1.13688
-1.01388
-0.89938
-0.792954
-0.694222
-0.60264
-0.517998
-0.439339
-0.36726
-0.299004
-0.238826
-0.176156
-0.13115
-0.0602433
-0.0506492
-13.6273
-13.646
-13.6646
-13.6828
-13.7006
-13.7181
-13.7351
-13.7516
-13.7677
-13.7833
-13.7983
-13.8128
-13.8266
-13.8397
-13.8518
-13.8627
-13.8723
-13.8803
-13.8864
-13.8903
-13.8915
-13.8898
-13.8847
-13.8759
-13.8628
-13.845
-13.822
-13.7934
-13.7585
-13.7169
-13.668
-13.6113
-13.5462
-13.4723
-13.3889
-13.2956
-13.1918
-13.0772
-12.9513
-12.8138
-12.6643
-12.5026
-12.3286
-12.142
-11.943
-11.7315
-11.5076
-11.2716
-11.0239
-10.7647
-10.4947
-10.2145
-9.92466
-9.6261
-9.31966
-9.0063
-8.68705
-8.36298
-8.03524
-7.70497
-7.37336
-7.04158
-6.71081
-6.3822
-6.05684
-5.7358
-5.42007
-5.11059
-4.80821
-4.5137
-4.22775
-3.95094
-3.68378
-3.42668
-3.17996
-2.94384
-2.71848
-2.50394
-2.3002
-2.1072
-1.92479
-1.75277
-1.59091
-1.43891
-1.29646
-1.16321
-1.03879
-0.922806
-0.814832
-0.714502
-0.62127
-0.534942
-0.454532
-0.380692
-0.310553
-0.248563
-0.183766
-0.137022
-0.0633013
-0.0528759
-13.6145
-13.6322
-13.6497
-13.6669
-13.6837
-13.7001
-13.7161
-13.7315
-13.7464
-13.7608
-13.7745
-13.7876
-13.7999
-13.8113
-13.8216
-13.8307
-13.8383
-13.8442
-13.8481
-13.8496
-13.8486
-13.8445