/*--------------------------------*- C++ -*----------------------------------*\
| =========                 |                                                 |
| \\      /  F ield         | OpenFOAM: The Open Source CFD Toolbox           |
|  \\    /   O peration     | Version:  2.1.1                                 |
|   \\  /    A nd           | Web:      www.OpenFOAM.org                      |
|    \\/     M anipulation  |                                                 |
\*---------------------------------------------------------------------------*/
FoamFile
{
    version     2.0;
    format      ascii;
    class       surfaceScalarField;
    location    "0.2";
    object      phi;
}
// * * * * * * * * * * * * * * * * * * * * * * * * * * * * * * * * * * * * * //

dimensions      [0 3 -1 0 0 0 0];

internalField   nonuniform List<scalar> 
13452
(
6.89922e-05
-5.0496e-07
6.88132e-05
1.78988e-07
6.82014e-05
6.11829e-07
6.72534e-05
9.48026e-07
6.6176e-05
1.07735e-06
6.50835e-05
1.0925e-06
6.40176e-05
1.06589e-06
6.29957e-05
1.02197e-06
6.2026e-05
9.69689e-07
6.1112e-05
9.13959e-07
6.02548e-05
8.57192e-07
5.9454e-05
8.0084e-07
5.87081e-05
7.45851e-07
5.80153e-05
6.9289e-07
5.73729e-05
6.42405e-07
5.67782e-05
5.94679e-07
5.62283e-05
5.4987e-07
5.57203e-05
5.08036e-07
5.52511e-05
4.69164e-07
5.48179e-05
4.33192e-07
5.44179e-05
4.0003e-07
5.40483e-05
3.69576e-07
5.37066e-05
3.41737e-07
5.33901e-05
3.16453e-07
5.30964e-05
2.9373e-07
5.28227e-05
2.73698e-07
5.2566e-05
2.56715e-07
5.23223e-05
2.43669e-07
5.20861e-05
2.36229e-07
5.18467e-05
2.39425e-07
5.15852e-05
2.61409e-07
5.12524e-05
3.32852e-07
5.14162e-07
5.07382e-05
7.01649e-05
-2.25947e-07
7.00411e-05
3.02873e-07
7.01816e-05
4.71296e-07
7.05087e-05
6.20869e-07
7.0859e-05
7.27064e-07
7.11576e-05
7.93881e-07
7.13819e-05
8.41583e-07
7.15336e-05
8.70314e-07
7.16205e-05
8.8277e-07
7.16515e-05
8.8293e-07
7.1635e-05
8.73744e-07
7.15783e-05
8.57541e-07
7.1488e-05
8.36127e-07
7.13699e-05
8.10971e-07
7.12291e-05
7.8325e-07
7.10699e-05
7.53906e-07
7.0896e-05
7.23688e-07
7.07109e-05
6.93189e-07
7.05172e-05
6.6287e-07
7.03173e-05
6.33088e-07
7.01132e-05
6.04121e-07
6.99066e-05
5.76189e-07
6.96988e-05
5.49482e-07
6.94911e-05
5.24183e-07
6.92843e-05
5.00515e-07
6.90793e-05
4.78764e-07
6.88765e-05
4.59457e-07
6.86769e-05
4.43249e-07
6.84812e-05
4.31958e-07
6.82941e-05
4.26541e-07
6.81212e-05
4.34345e-07
6.80088e-05
4.45221e-07
4.85693e-07
6.80373e-05
7.22816e-05
-5.09803e-08
7.23966e-05
1.87844e-07
7.25012e-05
3.66649e-07
7.25875e-05
5.34618e-07
7.26705e-05
6.44088e-07
7.27521e-05
7.12208e-07
7.28379e-05
7.55846e-07
7.29241e-05
7.84063e-07
7.30069e-05
8.00033e-07
7.30835e-05
8.06308e-07
7.31524e-05
8.04844e-07
7.32127e-05
7.97215e-07
7.32641e-05
7.84703e-07
7.33067e-05
7.68426e-07
7.33406e-05
7.49329e-07
7.33663e-05
7.28203e-07
7.33843e-05
7.05706e-07
7.33951e-05
6.82376e-07
7.33993e-05
6.58652e-07
7.33975e-05
6.34889e-07
7.33903e-05
6.11383e-07
7.33781e-05
5.88381e-07
7.33614e-05
5.66109e-07
7.33408e-05
5.44791e-07
7.33167e-05
5.24688e-07
7.32893e-05
5.06118e-07
7.32592e-05
4.89596e-07
7.32267e-05
4.75691e-07
7.31929e-05
4.65794e-07
7.31592e-05
4.60192e-07
7.31299e-05
4.63655e-07
7.31078e-05
4.67316e-07
4.95114e-07
7.30984e-05
7.45184e-05
-4.27892e-08
7.44879e-05
2.1835e-07
7.44762e-05
3.78331e-07
7.45155e-05
4.95362e-07
7.45754e-05
5.84215e-07
7.46412e-05
6.46354e-07
7.47065e-05
6.90549e-07
7.47697e-05
7.2086e-07
7.48305e-05
7.39245e-07
7.48888e-05
7.48074e-07
7.49442e-05
7.49374e-07
7.49967e-05
7.44705e-07
7.50461e-05
7.35315e-07
7.50923e-05
7.22266e-07
7.51352e-05
7.06438e-07
7.51748e-05
6.88564e-07
7.52113e-05
6.69247e-07
7.52447e-05
6.48989e-07
7.52751e-05
6.282e-07
7.53028e-05
6.07218e-07
7.53278e-05
5.86326e-07
7.53504e-05
5.65768e-07
7.53708e-05
5.4577e-07
7.5389e-05
5.26551e-07
7.54053e-05
5.08365e-07
7.542e-05
4.915e-07
7.54332e-05
4.76379e-07
7.54455e-05
4.63415e-07
7.54578e-05
4.53461e-07
7.54715e-05
4.46473e-07
7.5491e-05
4.44179e-07
7.55173e-05
4.40997e-07
4.40704e-07
7.55717e-05
7.66035e-05
9.55278e-09
7.6628e-05
1.93836e-07
7.66642e-05
3.42181e-07
7.6702e-05
4.57569e-07
7.67399e-05
5.4627e-07
7.67789e-05
6.07331e-07
7.68203e-05
6.49213e-07
7.68635e-05
6.77627e-07
7.69076e-05
6.95179e-07
7.69516e-05
7.04019e-07
7.69951e-05
7.05918e-07
7.70375e-05
7.02248e-07
7.70787e-05
6.94135e-07
7.71184e-05
6.8254e-07
7.71566e-05
6.68274e-07
7.71932e-05
6.52014e-07
7.72281e-05
6.34323e-07
7.72614e-05
6.1567e-07
7.72932e-05
5.96442e-07
7.73234e-05
5.76962e-07
7.73522e-05
5.57498e-07
7.73797e-05
5.38285e-07
7.7406e-05
5.19537e-07
7.74311e-05
5.01461e-07
7.74551e-05
4.8428e-07
7.74784e-05
4.68233e-07
7.75012e-05
4.53628e-07
7.75239e-05
4.40717e-07
7.75474e-05
4.29929e-07
7.75729e-05
4.20967e-07
7.76029e-05
4.14195e-07
7.76381e-05
4.05778e-07
3.96279e-07
7.76825e-05
7.88311e-05
2.43619e-08
7.88386e-05
1.86352e-07
7.88565e-05
3.24288e-07
7.8885e-05
4.29053e-07
7.89209e-05
5.10377e-07
7.89595e-05
5.68684e-07
7.89991e-05
6.09697e-07
7.90388e-05
6.37934e-07
7.90782e-05
6.55695e-07
7.91173e-05
6.64957e-07
7.91558e-05
6.67447e-07
7.91935e-05
6.64522e-07
7.92303e-05
6.57284e-07
7.92662e-05
6.46661e-07
7.93011e-05
6.33428e-07
7.93349e-05
6.18233e-07
7.93676e-05
6.01614e-07
7.93992e-05
5.84019e-07
7.94298e-05
5.65816e-07
7.94595e-05
5.47315e-07
7.94882e-05
5.28774e-07
7.95161e-05
5.10415e-07
7.95432e-05
4.9244e-07
7.95696e-05
4.75033e-07
7.95955e-05
4.58381e-07
7.96211e-05
4.42667e-07
7.96466e-05
4.28088e-07
7.96726e-05
4.14759e-07
7.96997e-05
4.02802e-07
7.97289e-05
3.91804e-07
7.97616e-05
3.81438e-07
7.97982e-05
3.69165e-07
3.54075e-07
7.98404e-05
8.10847e-05
3.82217e-08
8.10945e-05
1.76508e-07
8.11178e-05
3.01056e-07
8.11481e-05
3.98705e-07
8.11824e-05
4.76128e-07
8.12179e-05
5.33193e-07
8.12539e-05
5.73684e-07
8.12902e-05
6.0161e-07
8.13265e-05
6.19363e-07
8.13626e-05
6.28879e-07
8.13982e-05
6.31817e-07
8.14333e-05
6.29489e-07
8.14676e-05
6.22956e-07
8.15011e-05
6.13109e-07
8.15339e-05
6.00695e-07
8.15658e-05
5.86335e-07
8.15968e-05
5.70547e-07
8.16271e-05
5.5376e-07
8.16566e-05
5.3633e-07
8.16853e-05
5.18555e-07
8.17134e-05
5.00683e-07
8.17409e-05
4.82923e-07
8.17679e-05
4.6546e-07
8.17945e-05
4.48456e-07
8.18208e-05
4.32062e-07
8.18471e-05
4.16403e-07
8.18736e-05
4.01586e-07
8.19007e-05
3.8762e-07
8.19291e-05
3.74444e-07
8.19593e-05
3.61609e-07
8.19921e-05
3.48559e-07
8.20277e-05
3.33602e-07
3.15709e-07
8.20661e-05
8.341e-05
4.37322e-08
8.34198e-05
1.66714e-07
8.34404e-05
2.80456e-07
8.34676e-05
3.71486e-07
8.34996e-05
4.44163e-07
8.35339e-05
4.98906e-07
8.35692e-05
5.3842e-07
8.36048e-05
5.66018e-07
8.36402e-05
5.83887e-07
8.36753e-05
5.93788e-07
8.37099e-05
5.97265e-07
8.37438e-05
5.95576e-07
8.3777e-05
5.89748e-07
8.38095e-05
5.80647e-07
8.38412e-05
5.68995e-07
8.38721e-05
5.55393e-07
8.39023e-05
5.40344e-07
8.39318e-05
5.24264e-07
8.39606e-05
5.07498e-07
8.39889e-05
4.90331e-07
8.40165e-05
4.73002e-07
8.40437e-05
4.55709e-07
8.40706e-05
4.3862e-07
8.40972e-05
4.21874e-07
8.41236e-05
4.05586e-07
8.41502e-05
3.89837e-07
8.41771e-05
3.74663e-07
8.42047e-05
3.60006e-07
8.42335e-05
3.45709e-07
8.42637e-05
3.31345e-07
8.4296e-05
3.16345e-07
8.433e-05
2.99582e-07
2.80243e-07
8.43654e-05
8.57963e-05
4.61777e-08
8.5806e-05
1.57005e-07
8.5826e-05
2.6046e-07
8.58524e-05
3.45046e-07
8.58833e-05
4.13245e-07
8.59166e-05
4.65635e-07
8.5951e-05
5.04078e-07
8.59857e-05
5.31237e-07
8.60205e-05
5.49098e-07
8.6055e-05
5.59287e-07
8.60891e-05
5.6324e-07
8.61225e-05
5.62149e-07
8.61552e-05
5.56998e-07
8.61873e-05
5.48615e-07
8.62186e-05
5.37695e-07
8.62491e-05
5.24818e-07
8.6279e-05
5.1047e-07
8.63082e-05
4.95052e-07
8.63368e-05
4.78898e-07
8.63649e-05
4.62285e-07
8.63924e-05
4.45438e-07
8.64196e-05
4.28545e-07
8.64465e-05
4.11757e-07
8.64731e-05
3.95193e-07
8.64998e-05
3.7894e-07
8.65266e-05
3.63041e-07
8.65538e-05
3.47489e-07
8.65816e-05
3.32188e-07
8.66103e-05
3.16946e-07
8.66403e-05
3.01391e-07
8.66716e-05
2.85034e-07
8.67041e-05
2.67131e-07
2.47138e-07
8.67372e-05
8.825e-05
4.61536e-08
8.82599e-05
1.47115e-07
8.8279e-05
2.41424e-07
8.8304e-05
3.1996e-07
8.83335e-05
3.83789e-07
8.83656e-05
4.33537e-07
8.83991e-05
4.70575e-07
8.84333e-05
4.97045e-07
8.84677e-05
5.1472e-07
8.85019e-05
5.25074e-07
8.85357e-05
5.29418e-07
8.8569e-05
5.28864e-07
8.86016e-05
5.24343e-07
8.86336e-05
5.16641e-07
8.86649e-05
5.06422e-07
8.86955e-05
4.94243e-07
8.87254e-05
4.80569e-07
8.87546e-05
4.65788e-07
8.87833e-05
4.50221e-07
8.88115e-05
4.34132e-07
8.88392e-05
4.17738e-07
8.88665e-05
4.01213e-07
8.88936e-05
3.84693e-07
8.89205e-05
3.68282e-07
8.89474e-05
3.52042e-07
8.89744e-05
3.35993e-07
8.90018e-05
3.20102e-07
8.90297e-05
3.04262e-07
8.90584e-05
2.88283e-07
8.90879e-05
2.71859e-07
8.91183e-05
2.54612e-07
8.91494e-05
2.36056e-07
2.15865e-07
8.91807e-05
9.07727e-05
4.47514e-08
9.07826e-05
1.37253e-07
9.08007e-05
2.23289e-07
9.08247e-05
2.95978e-07
9.0853e-05
3.55515e-07
9.0884e-05
4.02475e-07
9.09167e-05
4.37901e-07
9.09502e-05
4.63496e-07
9.09842e-05
4.80812e-07
9.10181e-05
4.91178e-07
9.10517e-05
4.95785e-07
9.10849e-05
4.95665e-07
9.11175e-05
4.91691e-07
9.11496e-05
4.84603e-07
9.1181e-05
4.75032e-07
9.12117e-05
4.63507e-07
9.12418e-05
4.50472e-07
9.12713e-05
4.36299e-07
9.13002e-05
4.21294e-07
9.13286e-05
4.05708e-07
9.13566e-05
3.89748e-07
9.13843e-05
3.73574e-07
9.14116e-05
3.57312e-07
9.14389e-05
3.41049e-07
9.14661e-05
3.24834e-07
9.14934e-05
3.08672e-07
9.1521e-05
2.92519e-07
9.1549e-05
2.76273e-07
9.15775e-05
2.59767e-07
9.16066e-05
2.42765e-07
9.16362e-05
2.24991e-07
9.16661e-05
2.06139e-07
1.86037e-07
9.1696e-05
9.33669e-05
4.25161e-08
9.33767e-05
1.27443e-07
9.3394e-05
2.05972e-07
9.34169e-05
2.7306e-07
9.3444e-05
3.28409e-07
9.3474e-05
3.72483e-07
9.35058e-05
4.06103e-07
9.35387e-05
4.30631e-07
9.35721e-05
4.47409e-07
9.36056e-05
4.57627e-07
9.36391e-05
4.62362e-07
9.36722e-05
4.62562e-07
9.37048e-05
4.59038e-07
9.37369e-05
4.52485e-07
9.37685e-05
4.43495e-07
9.37994e-05
4.32569e-07
9.38298e-05
4.2013e-07
9.38595e-05
4.06528e-07
9.38888e-05
3.92055e-07
9.39175e-05
3.76951e-07
9.39459e-05
3.61407e-07
9.39739e-05
3.45577e-07
9.40016e-05
3.29572e-07
9.40292e-05
3.13469e-07
9.40567e-05
2.97309e-07
9.40843e-05
2.81089e-07
9.4112e-05
2.64768e-07
9.41401e-05
2.48257e-07
9.41684e-05
2.31421e-07
9.41971e-05
2.14089e-07
9.4226e-05
1.9607e-07
9.4255e-05
1.77181e-07
1.57351e-07
9.42836e-05
9.60348e-05
3.98292e-08
9.60444e-05
1.17771e-07
9.6061e-05
1.89419e-07
9.60829e-05
2.5113e-07
9.6109e-05
3.02376e-07
9.61379e-05
3.43502e-07
9.61689e-05
3.75167e-07
9.6201e-05
3.98465e-07
9.62339e-05
4.14547e-07
9.62671e-05
4.2447e-07
9.63002e-05
4.29201e-07
9.63332e-05
4.29604e-07
9.63658e-05
4.2643e-07
9.63979e-05
4.20324e-07
9.64296e-05
4.11843e-07
9.64607e-05
4.01455e-07
9.64913e-05
3.89559e-07
9.65213e-05
3.76487e-07
9.65509e-05
3.62514e-07
9.658e-05
3.47867e-07
9.66086e-05
3.32726e-07
9.6637e-05
3.17232e-07
9.66651e-05
3.0149e-07
9.6693e-05
2.85569e-07
9.67208e-05
2.69504e-07
9.67486e-05
2.53293e-07
9.67764e-05
2.36903e-07
9.68044e-05
2.20263e-07
9.68326e-05
2.03274e-07
9.68608e-05
1.85816e-07
9.68891e-05
1.6777e-07
9.69173e-05
1.49033e-07
1.296e-07
9.6945e-05
9.87786e-05
3.69181e-08
9.87881e-05
1.08287e-07
9.8804e-05
1.73564e-07
9.8825e-05
2.30113e-07
9.885e-05
2.77344e-07
9.8878e-05
3.15489e-07
9.89081e-05
3.45083e-07
9.89396e-05
3.67011e-07
9.89719e-05
3.82253e-07
9.90046e-05
3.91742e-07
9.90375e-05
3.96341e-07
9.90702e-05
3.96835e-07
9.91027e-05
3.93911e-07
9.91349e-05
3.88167e-07
9.91666e-05
3.8012e-07
9.91979e-05
3.70207e-07
9.92286e-05
3.58803e-07
9.92589e-05
3.46219e-07
9.92887e-05
3.32715e-07
9.93181e-05
3.18501e-07
9.9347e-05
3.0375e-07
9.93757e-05
2.88591e-07
9.9404e-05
2.73124e-07
9.94322e-05
2.57411e-07
9.94602e-05
2.41487e-07
9.94882e-05
2.25356e-07
9.95161e-05
2.08993e-07
9.9544e-05
1.92349e-07
9.95719e-05
1.75358e-07
9.95998e-05
1.57944e-07
9.96275e-05
1.40039e-07
9.96549e-05
1.21593e-07
1.0264e-07
9.96819e-05
0.000101601
3.39226e-08
0.00010161
9.90342e-08
0.000101625
1.58349e-07
0.000101645
2.09942e-07
0.000101669
2.5324e-07
0.000101697
2.88388e-07
0.000101726
3.15821e-07
0.000101757
3.3626e-07
0.000101788
3.50535e-07
0.000101821
3.59462e-07
0.000101853
3.63813e-07
0.000101886
3.6429e-07
0.000101918
3.61522e-07
0.00010195
3.56057e-07
0.000101982
3.48372e-07
0.000102013
3.38874e-07
0.000102044
3.27912e-07
0.000102075
3.15776e-07
0.000102105
3.0271e-07
0.000102134
2.88912e-07
0.000102163
2.7454e-07
0.000102192
2.5972e-07
0.000102221
2.44543e-07
0.000102249
2.29071e-07
0.000102277
2.13339e-07
0.000102305
1.97357e-07
0.000102333
1.81113e-07
0.000102361
1.64579e-07
0.000102389
1.47716e-07
0.000102416
1.30482e-07
0.000102443
1.12845e-07
0.00010247
9.47942e-08
7.63825e-08
0.000102496
0.000104503
3.0924e-08
0.000104512
9.00361e-08
0.000104527
1.43723e-07
0.000104546
1.90547e-07
0.00010457
2.29995e-07
0.000104596
2.62144e-07
0.000104624
2.87347e-07
0.000104654
3.06195e-07
0.000104686
3.1939e-07
0.000104717
3.27643e-07
0.00010475
3.31635e-07
0.000104782
3.31996e-07
0.000104814
3.29294e-07
0.000104846
3.24029e-07
0.000104878
3.16638e-07
0.000104909
3.07499e-07
0.00010494
2.96933e-07
0.000104971
2.8521e-07
0.000105001
2.72556e-07
0.000105031
2.59157e-07
0.00010506
2.45162e-07
0.000105089
2.30688e-07
0.000105118
2.15823e-07
0.000105146
2.00627e-07
0.000105174
1.85138e-07
0.000105202
1.69374e-07
0.00010523
1.53336e-07
0.000105258
1.37012e-07
0.000105285
1.20386e-07
0.000105312
1.03443e-07
0.000105339
8.61771e-08
0.000105365
6.85992e-08
5.07748e-08
0.000105391
0.000107489
2.79681e-08
0.000107498
8.13047e-08
0.000107512
1.29639e-07
0.00010753
1.71864e-07
0.000107553
2.07541e-07
0.000107578
2.36698e-07
0.000107606
2.5962e-07
0.000107635
2.76792e-07
0.000107666
2.88809e-07
0.000107697
2.96285e-07
0.000107729
2.99818e-07
0.000107761
2.99971e-07
0.000107793
2.97251e-07
0.000107825
2.92113e-07
0.000107857
2.84955e-07
0.000107888
2.76121e-07
0.000107919
2.65908e-07
0.00010795
2.54566e-07
0.00010798
2.42304e-07
0.00010801
2.29294e-07
0.00010804
2.15677e-07
0.000108069
2.01562e-07
0.000108097
1.87033e-07
0.000108126
1.72152e-07
0.000108154
1.56959e-07
0.000108182
1.4148e-07
0.00010821
1.25726e-07
0.000108237
1.09701e-07
0.000108264
9.34054e-08
0.000108291
7.68442e-08
0.000108317
6.00302e-08
0.000108342
4.29878e-08
2.5787e-08
0.000108367
0.00011056
2.50786e-08
0.000110568
7.28413e-08
0.000110582
1.16053e-07
0.0001106
1.53834e-07
0.000110622
1.85814e-07
0.000110646
2.11991e-07
0.000110673
2.32592e-07
0.000110702
2.4802e-07
0.000110732
2.58772e-07
0.000110763
2.6538e-07
0.000110794
2.68365e-07
0.000110826
2.68224e-07
0.000110858
2.6541e-07
0.00011089
2.60332e-07
0.000110921
2.53348e-07
0.000110953
2.44774e-07
0.000110984
2.34878e-07
0.000111015
2.2389e-07
0.000111045
2.12003e-07
0.000111075
1.99377e-07
0.000111104
1.86142e-07
0.000111133
1.72402e-07
0.000111162
1.58239e-07
0.000111191
1.43712e-07
0.000111219
1.28868e-07
0.000111246
1.13736e-07
0.000111274
9.83381e-08
0.000111301
8.269e-08
0.000111327
6.6806e-08
0.000111354
5.07035e-08
0.000111379
3.44078e-08
0.000111404
1.79515e-08
1.40552e-09
0.000111429
0.000113718
2.22659e-08
0.000113727
6.46393e-08
0.00011374
1.02922e-07
0.000113757
1.36397e-07
0.000113778
1.64752e-07
0.000113802
1.87965e-07
0.000113829
2.06218e-07
0.000113857
2.19841e-07
0.000113886
2.29256e-07
0.000113917
2.34915e-07
0.000113948
2.37271e-07
0.000113979
2.3676e-07
0.000114011
2.33783e-07
0.000114043
2.28703e-07
0.000114074
2.21843e-07
0.000114105
2.13485e-07
0.000114136
2.03875e-07
0.000114167
1.93219e-07
0.000114197
1.81697e-07
0.000114227
1.69453e-07
0.000114257
1.5661e-07
0.000114286
1.43266e-07
0.000114315
1.29498e-07
0.000114343
1.15368e-07
0.000114371
1.00922e-07
0.000114398
8.61975e-08
0.000114426
7.1222e-08
0.000114452
5.60207e-08
0.000114478
4.06173e-08
0.000114504
2.50388e-08
0.000114529
9.3175e-09
0.000114554
-6.50927e-09
-2.23723e-08
0.000114577
0.000116967
1.95327e-08
0.000116975
5.66863e-08
0.000116988
9.02094e-08
0.000117005
1.195e-07
0.000117025
1.44294e-07
0.000117049
1.64561e-07
0.000117074
1.80444e-07
0.000117102
1.92216e-07
0.000117131
2.00229e-07
0.000117161
2.04868e-07
0.000117192
2.06525e-07
0.000117223
2.05576e-07
0.000117254
2.02374e-07
0.000117286
1.97239e-07
0.000117317
1.90457e-07
0.000117348
1.8228e-07
0.000117379
1.72929e-07
0.00011741
1.6259e-07
0.00011744
1.51425e-07
0.00011747
1.39567e-07
0.0001175
1.2713e-07
0.000117529
1.14204e-07
0.000117557
1.00864e-07
0.000117585
8.71715e-08
0.000117613
7.31742e-08
0.000117641
5.89123e-08
0.000117667
4.44198e-08
0.000117694
2.97277e-08
0.000117719
1.48664e-08
0.000117745
-1.31442e-10
0.000117769
-1.52293e-08
0.000117793
-3.03881e-08
-4.55414e-08
0.000117816
0.000120309
1.68769e-08
0.000120316
4.89663e-08
0.000120329
7.78749e-08
0.000120345
1.03088e-07
0.000120365
1.24381e-07
0.000120388
1.41721e-07
0.000120413
1.55218e-07
0.00012044
1.65098e-07
0.000120469
1.71654e-07
0.000120498
1.75214e-07
0.000120529
1.76109e-07
0.00012056
1.74663e-07
0.000120591
1.71181e-07
0.000120622
1.65944e-07
0.000120654
1.59202e-07
0.000120685
1.51177e-07
0.000120716
1.42064e-07
0.000120746
1.32031e-07
0.000120776
1.21222e-07
0.000120806
1.09758e-07
0.000120835
9.77426e-08
0.000120864
8.52605e-08
0.000120893
7.23832e-08
0.000120921
5.91694e-08
0.000120948
4.56684e-08
0.000120975
3.19224e-08
0.000121002
1.79689e-08
0.000121028
3.84276e-09
0.000121053
-1.04214e-08
0.000121078
-2.4788e-08
0.000121102
-3.92183e-08
0.000121125
-5.36735e-08
-6.80905e-08
0.000121147
0.000123746
1.42941e-08
0.000123753
4.1461e-08
0.000123765
6.5882e-08
0.000123781
8.71104e-08
0.000123801
1.04956e-07
0.000123823
1.19383e-07
0.000123848
1.30481e-07
0.000123874
1.38436e-07
0.000123903
1.4349e-07
0.000123932
1.45916e-07
0.000123962
1.45995e-07
0.000123993
1.44001e-07
0.000124024
1.40194e-07
0.000124055
1.34816e-07
0.000124086
1.28083e-07
0.000124117
1.20187e-07
0.000124148
1.11299e-07
0.000124178
1.01567e-07
0.000124208
9.11169e-08
0.000124238
8.00587e-08
0.000124267
6.84852e-08
0.000124296
5.64751e-08
0.000124324
4.40952e-08
0.000124352
3.14019e-08
0.000124379
1.84438e-08
0.000124406
5.26405e-09
0.000124432
-8.0982e-09
0.000124457
-2.16059e-08
0.000124482
-3.52227e-08
0.000124506
-4.89116e-08
0.00012453
-6.26338e-08
0.000124552
-7.63516e-08
-9.00058e-08
0.000124574
0.000127281
1.17781e-08
0.000127288
3.415e-08
0.0001273
5.41927e-08
0.000127316
7.15153e-08
0.000127335
8.59565e-08
0.000127357
9.74845e-08
0.000127381
1.06172e-07
0.000127407
1.12171e-07
0.000127435
1.15683e-07
0.000127464
1.16933e-07
0.000127494
1.16152e-07
0.000127524
1.13567e-07
0.000127555
1.09398e-07
0.000127586
1.03848e-07
0.000127617
9.71001e-08
0.000127648
8.93176e-08
0.000127678
8.0647e-08
0.000127709
7.12151e-08
0.000127739
6.11331e-08
0.000127768
5.04964e-08
0.000127797
3.93886e-08
0.000127826
2.78805e-08
0.000127854
1.60347e-08
0.000127882
3.90332e-09
0.000127909
-8.4663e-09
0.000127935
-2.10315e-08
0.00012796
-3.37529e-08
0.000127985
-4.65932e-08
0.00012801
-5.95156e-08
0.000128033
-7.24833e-08
0.000128056
-8.54585e-08
0.000128078
-9.84053e-08
-1.11269e-07
0.000128099
0.000130917
9.32421e-09
0.000130924
2.70172e-08
0.000130936
4.27771e-08
0.000130951
5.62591e-08
0.00013097
6.73288e-08
0.000130991
7.59634e-08
0.000131015
8.22252e-08
0.000131041
8.6241e-08
0.000131069
8.8175e-08
0.000131097
8.82096e-08
0.000131127
8.65311e-08
0.000131157
8.33191e-08
0.000131188
7.87588e-08
0.000131219
7.30157e-08
0.00013125
6.62376e-08
0.00013128
5.85604e-08
0.000131311
5.01071e-08
0.000131341
4.09832e-08
0.000131371
3.12834e-08
0.0001314
2.10889e-08
0.000131429
1.04744e-08
0.000131458
-4.99692e-10
0.000131485
-1.17721e-08
0.000131513
-2.32994e-08
0.000131539
-3.5035e-08
0.000131565
-4.69385e-08
0.00013159
-5.89715e-08
0.000131615
-7.10974e-08
0.000131639
-8.32806e-08
0.000131662
-9.54854e-08
0.000131684
-1.07676e-07
0.000131705
-1.19819e-07
-1.31864e-07
0.000131726
0.000134658
6.92019e-09
0.000134665
2.00332e-08
0.000134676
3.15867e-08
0.000134691
4.12777e-08
0.000134709
4.89986e-08
0.00013473
5.4741e-08
0.000134754
5.85634e-08
0.00013478
6.05721e-08
0.000134807
6.08997e-08
0.000134835
5.96913e-08
0.000134865
5.70904e-08
0.000134895
5.32255e-08
0.000134925
4.8253e-08
0.000134956
4.23008e-08
0.000134987
3.54837e-08
0.000135018
2.79109e-08
0.000135048
1.96813e-08
0.000135078
1.08763e-08
0.000135108
1.58017e-09
0.000135137
-8.15007e-09
0.000135166
-1.82413e-08
0.000135194
-2.86432e-08
0.000135221
-3.93056e-08
0.000135248
-5.01857e-08
0.000135274
-6.12423e-08
0.0001353
-7.24376e-08
0.000135325
-8.37356e-08
0.000135349
-9.51016e-08
0.000135372
-1.06502e-07
0.000135394
-1.17903e-07
0.000135416
-1.29271e-07
0.000135437
-1.40576e-07
-1.51771e-07
0.000135457
0.000138505
4.5844e-09
0.000138511
1.32192e-08
0.000138522
2.06327e-08
0.000138537
2.65601e-08
0.000138555
3.09279e-08
0.000138576
3.37538e-08
0.0001386
3.51027e-08
0.000138625
3.50682e-08
0.000138652
3.37568e-08
0.000138681
3.12784e-08
0.00013871
2.77263e-08
0.00013874
2.3183e-08
0.00013877
1.7798e-08
0.000138801
1.164e-08
0.000138832
4.78749e-09
0.000138862
-2.67451e-09
0.000138893
-1.06578e-08
0.000138923
-1.91208e-08
0.000138952
-2.79927e-08
0.000138981
-3.7221e-08
0.00013901
-4.67531e-08
0.000139038
-5.65444e-08
0.000139065
-6.65533e-08
0.000139092
-7.67414e-08
0.000139117
-8.70728e-08
0.000139143
-9.75131e-08
0.000139167
-1.0803e-07
0.00013919
-1.18591e-07
0.000139213
-1.29165e-07
0.000139235
-1.39722e-07
0.000139256
-1.5023e-07
0.000139276
-1.60664e-07
-1.70979e-07
0.000139295
0.000142462
2.23156e-09
0.000142468
6.46309e-09
0.000142479
9.79295e-09
0.000142494
1.19915e-08
0.000142512
1.30126e-08
0.000142533
1.29146e-08
0.000142556
1.17729e-08
0.000142581
9.671e-09
0.000142608
6.6943e-09
0.000142637
2.94968e-09
0.000142666
-1.52661e-09
0.000142696
-6.80472e-09
0.000142726
-1.26167e-08
0.000142757
-1.89884e-08
0.000142788
-2.58625e-08
0.000142818
-3.31903e-08
0.000142848
-4.09231e-08
0.000142878
-4.90203e-08
0.000142908
-5.74359e-08
0.000142937
-6.61302e-08
0.000142965
-7.50651e-08
0.000142993
-8.42049e-08
0.00014302
-9.3516e-08
0.000143046
-1.02967e-07
0.000143071
-1.12526e-07
0.000143096
-1.22164e-07
0.00014312
-1.31853e-07
0.000143143
-1.41563e-07
0.000143165
-1.51268e-07
0.000143186
-1.60938e-07
0.000143206
-1.70548e-07
0.000143226
-1.80071e-07
-1.89471e-07
0.000143244
0.000146531
1.2317e-10
0.000146538
5.05884e-11
0.000146548
-7.27641e-10
0.000146563
-2.33598e-09
0.00014658
-4.78094e-09
0.000146601
-7.91741e-09
0.000146625
-1.16393e-08
0.00014665
-1.58627e-08
0.000146677
-2.05315e-08
0.000146706
-2.56099e-08
0.000146736
-3.10867e-08
0.000146766
-3.69606e-08
0.000146796
-4.31678e-08
0.000146827
-4.97126e-08
0.000146858
-5.65783e-08
0.000146888
-6.37421e-08
0.000146919
-7.11792e-08
0.000146948
-7.88673e-08
0.000146978
-8.67814e-08
0.000147007
-9.48962e-08
0.000147035
-1.03186e-07
0.000147062
-1.11625e-07
0.000147089
-1.20189e-07
0.000147115
-1.28852e-07
0.00014714
-1.37589e-07
0.000147164
-1.46377e-07
0.000147187
-1.5519e-07
0.00014721
-1.64004e-07
0.000147231
-1.72794e-07
0.000147252
-1.81538e-07
0.000147271
-1.9021e-07
0.00014729
-1.98791e-07
-2.07246e-07
0.000147308
0.000150718
-2.41807e-09
0.000150725
-6.63574e-09
0.000150735
-1.13165e-08
0.00015075
-1.6637e-08
0.000150767
-2.2473e-08
0.000150788
-2.86269e-08
0.000150811
-3.49441e-08
0.000150837
-4.13275e-08
0.000150864
-4.77348e-08
0.000150893
-5.41601e-08
0.000150922
-6.06223e-08
0.000150952
-6.71605e-08
0.000150983
-7.37826e-08
0.000151014
-8.05085e-08
0.000151045
-8.73565e-08
0.000151075
-9.43357e-08
0.000151105
-1.01449e-07
0.000151135
-1.08697e-07
0.000151165
-1.16072e-07
0.000151193
-1.23565e-07
0.000151221
-1.31164e-07
0.000151248
-1.38855e-07
0.000151275
-1.46621e-07
0.000151301
-1.54445e-07
0.000151325
-1.6231e-07
0.000151349
-1.70196e-07
0.000151372
-1.78083e-07
0.000151394
-1.85951e-07
0.000151415
-1.9378e-07
0.000151435
-2.01551e-07
0.000151454
-2.09242e-07
0.000151472
-2.16834e-07
-2.24299e-07
0.000151489
0.000155023
-3.66509e-09
0.000155028
-1.19726e-08
0.000155038
-2.10347e-08
0.000155052
-3.07423e-08
0.00015507
-4.05567e-08
0.000155092
-5.01084e-08
0.000155116
-5.92063e-08
0.000155142
-6.77921e-08
0.00015517
-7.58911e-08
0.0001552
-8.35693e-08
0.00015523
-9.09098e-08
0.000155261
-9.79996e-08
0.000155292
-1.04907e-07
0.000155323
-1.11696e-07
0.000155354
-1.1842e-07
0.000155385
-1.2512e-07
0.000155416
-1.31823e-07
0.000155445
-1.38551e-07
0.000155475
-1.45314e-07
0.000155503
-1.52117e-07
0.000155531
-1.58962e-07
0.000155558
-1.65843e-07
0.000155584
-1.72753e-07
0.000155609
-1.79684e-07
0.000155634
-1.86622e-07
0.000155657
-1.93554e-07
0.000155679
-2.00467e-07
0.000155701
-2.07343e-07
0.000155721
-2.14168e-07
0.000155741
-2.20924e-07
0.000155759
-2.27596e-07
0.000155776
-2.3417e-07
-2.40618e-07
0.000155793
0.000159455
-7.65083e-09
0.000159462
-1.91823e-08
0.000159472
-3.14715e-08
0.000159486
-4.44617e-08
0.000159503
-5.76758e-08
0.000159523
-7.05026e-08
0.000159547
-8.25136e-08
0.000159573
-9.35373e-08
0.0001596
-1.03579e-07
0.000159629
-1.12733e-07
0.00015966
-1.21129e-07
0.000159691
-1.28908e-07
0.000159722
-1.36196e-07
0.000159753
-1.43106e-07
0.000159785
-1.49734e-07
0.000159816
-1.56155e-07
0.000159846
-1.62431e-07
0.000159876
-1.68605e-07
0.000159906
-1.74712e-07
0.000159934
-1.80774e-07
0.000159962
-1.86807e-07
0.000159989
-1.92818e-07
0.000160015
-1.98811e-07
0.00016004
-2.04783e-07
0.000160064
-2.10732e-07
0.000160087
-2.16649e-07
0.00016011
-2.22525e-07
0.000160131
-2.2835e-07
0.00016015
-2.34112e-07
0.000160169
-2.39799e-07
0.000160187
-2.45398e-07
0.000160204
-2.50896e-07
-2.56272e-07
0.00016022
0.000164003
-5.03208e-09
0.000164005
-2.10998e-08
0.000164014
-3.99085e-08
0.000164029
-5.93818e-08
0.000164049
-7.78839e-08
0.000164073
-9.46577e-08
0.0001641
-1.09522e-07
0.000164129
-1.22581e-07
0.00016416
-1.34039e-07
0.000164191
-1.4413e-07
0.000164223
-1.53087e-07
0.000164255
-1.61124e-07
0.000164287
-1.68432e-07
0.00016432
-1.75166e-07
0.000164351
-1.81456e-07
0.000164382
-1.87405e-07
0.000164413
-1.93097e-07
0.000164443
-1.98592e-07
0.000164472
-2.0394e-07
0.000164501
-2.09175e-07
0.000164528
-2.14323e-07
0.000164555
-2.19401e-07
0.00016458
-2.2442e-07
0.000164605
-2.29385e-07
0.000164629
-2.34298e-07
0.000164651
-2.39158e-07
0.000164673
-2.43959e-07
0.000164693
-2.48696e-07
0.000164712
-2.53361e-07
0.00016473
-2.57947e-07
0.000164747
-2.62444e-07
0.000164763
-2.66843e-07
-2.71127e-07
0.000164778
0.000168701
-1.45504e-08
0.000168709
-2.92961e-08
0.000168717
-4.7874e-08
0.000168727
-6.92958e-08
0.000168741
-9.1921e-08
0.00016876
-1.13371e-07
0.000168783
-1.3241e-07
0.000168809
-1.48821e-07
0.000168838
-1.62823e-07
0.000168869
-1.74745e-07
0.0001689
-1.8493e-07
0.000168933
-1.93701e-07
0.000168966
-2.01342e-07
0.000168999
-2.08089e-07
0.000169032
-2.14138e-07
0.000169064
-2.19643e-07
0.000169095
-2.24728e-07
0.000169126
-2.29489e-07
0.000169156
-2.34e-07
0.000169186
-2.38316e-07
0.000169214
-2.4248e-07
0.000169241
-2.46521e-07
0.000169267
-2.50462e-07
0.000169292
-2.54317e-07
0.000169316
-2.58095e-07
0.000169338
-2.61802e-07
0.00016936
-2.65437e-07
0.00016938
-2.69e-07
0.000169399
-2.72488e-07
0.000169417
-2.75896e-07
0.000169434
-2.79218e-07
0.000169449
-2.82449e-07
-2.85575e-07
0.000169464
0.000173491
5.65725e-09
0.000173485
-2.29811e-08
0.000173495
-5.80892e-08
0.000173517
-9.12748e-08
0.000173546
-1.20522e-07
0.000173577
-1.45113e-07
0.000173611
-1.657e-07
0.000173645
-1.82864e-07
0.000173679
-1.97156e-07
0.000173713
-2.0907e-07
0.000173747
-2.19048e-07
0.000173781
-2.27474e-07
0.000173815
-2.34661e-07
0.000173847
-2.40863e-07
0.000173879
-2.46284e-07
0.000173911
-2.51089e-07
0.000173942
-2.55406e-07
0.000173971
-2.59337e-07
0.000174
-2.62962e-07
0.000174028
-2.66342e-07
0.000174055
-2.69526e-07
0.000174081
-2.72548e-07
0.000174106
-2.75436e-07
0.00017413
-2.78209e-07
0.000174153
-2.80882e-07
0.000174175
-2.83463e-07
0.000174195
-2.85958e-07
0.000174215
-2.88371e-07
0.000174233
-2.90701e-07
0.00017425
-2.92948e-07
0.000174266
-2.95108e-07
0.000174281
-2.97179e-07
-2.99151e-07
0.000174294
0.000178498
-2.39779e-08
0.000178501
-2.59086e-08
0.00017849
-4.73846e-08
0.000178482
-8.25748e-08
0.000178484
-1.23257e-07
0.000178498
-1.59129e-07
0.000178521
-1.88236e-07
0.000178549
-2.11218e-07
0.000178582
-2.29411e-07
0.000178616
-2.43819e-07
0.000178653
-2.55241e-07
0.000178689
-2.64342e-07
0.000178726
-2.71647e-07
0.000178763
-2.77567e-07
0.000178799
-2.82417e-07
0.000178835
-2.86443e-07
0.000178869
-2.89831e-07
0.000178902
-2.92724e-07
0.000178935
-2.95233e-07
0.000178966
-2.9744e-07
0.000178996
-2.99408e-07
0.000179024
-3.01184e-07
0.000179052
-3.02805e-07
0.000179078
-3.04297e-07
0.000179103
-3.0568e-07
0.000179126
-3.06967e-07
0.000179148
-3.08167e-07
0.000179169
-3.09289e-07
0.000179189
-3.10335e-07
0.000179207
-3.11307e-07
0.000179224
-3.12208e-07
0.00017924
-3.13038e-07
-3.13789e-07
0.000179255
0.000183487
5.68823e-08
0.000183465
-3.92485e-09
0.000183501
-8.33287e-08
0.000183554
-1.35658e-07
0.000183606
-1.75257e-07
0.000183652
-2.06013e-07
0.000183695
-2.30353e-07
0.000183733
-2.50132e-07
0.00018377
-2.66079e-07
0.000183805
-2.78876e-07
0.000183839
-2.89176e-07
0.000183872
-2.97488e-07
0.000183905
-3.04204e-07
0.000183937
-3.09638e-07
0.000183969
-3.14041e-07
0.000184
-3.17613e-07
0.00018403
-3.2051e-07
0.000184061
-3.22858e-07
0.00018409
-3.24757e-07
0.000184119
-3.26286e-07
0.000184147
-3.27507e-07
0.000184174
-3.28471e-07
0.000184201
-3.29217e-07
0.000184226
-3.29778e-07
0.000184251
-3.30178e-07
0.000184274
-3.30437e-07
0.000184297
-3.30572e-07
0.000184318
-3.30593e-07
0.000184338
-3.30511e-07
0.000184357
-3.3033e-07
0.000184375
-3.30055e-07
0.000184392
-3.29688e-07
-3.29229e-07
0.000184407
0.000188861
7.82557e-09
0.000188796
6.07332e-08
0.000188711
1.634e-09
0.000188648
-7.24005e-08
0.00018863
-1.57143e-07
0.000188644
-2.20174e-07
0.000188677
-2.63422e-07
0.000188721
-2.9397e-07
0.000188771
-3.16028e-07
0.000188824
-3.32192e-07
0.000188879
-3.44106e-07
0.000188935
-3.52895e-07
0.00018899
-3.59355e-07
0.000189044
-3.64057e-07
0.000189098
-3.67414e-07
0.00018915
-3.69727e-07
0.0001892
-3.71222e-07
0.00018925
-3.72068e-07
0.000189297
-3.72394e-07
0.000189343
-3.723e-07
0.000189388
-3.71863e-07
0.00018943