/*--------------------------------*- C++ -*----------------------------------*\
| =========                 |                                                 |
| \\      /  F ield         | OpenFOAM: The Open Source CFD Toolbox           |
|  \\    /   O peration     | Version:  2.1.1                                 |
|   \\  /    A nd           | Web:      www.OpenFOAM.org                      |
|    \\/     M anipulation  |                                                 |
\*---------------------------------------------------------------------------*/
FoamFile
{
    version     2.0;
    format      ascii;
    class       volVectorField;
    location    "0.2";
    object      U;
}
// * * * * * * * * * * * * * * * * * * * * * * * * * * * * * * * * * * * * * //

dimensions      [0 1 -1 0 0 0 0];

internalField   nonuniform List<vector> 
6820
(
(8.34337 -0.360076 0)
(8.40109 -0.24715 0)
(8.35607 -0.115289 0)
(8.24774 -0.0365522 0)
(8.11926 0.00601551 0)
(7.98578 0.0278799 0)
(7.85362 0.0386525 0)
(7.72616 0.0433551 0)
(7.60481 0.0446291 0)
(7.49013 0.0439316 0)
(7.38233 0.0421042 0)
(7.28145 0.0396515 0)
(7.18737 0.0368846 0)
(7.09988 0.0339993 0)
(7.01869 0.0311194 0)
(6.94349 0.0283225 0)
(6.87392 0.0256558 0)
(6.80963 0.0231467 0)
(6.75024 0.0208085 0)
(6.69541 0.0186461 0)
(6.64478 0.0166585 0)
(6.59802 0.0148419 0)
(6.55481 0.0131911 0)
(6.51482 0.0117021 0)
(6.47777 0.0103741 0)
(6.44331 0.00921361 0)
(6.41114 0.00824008 0)
(6.3808 0.00750642 0)
(6.35183 0.00711897 0)
(6.32323 0.00734583 0)
(6.29353 0.00898914 0)
(6.25946 0.0129667 0)
(6.21226 0.0290961 0)
(8.32138 0.166252 0)
(8.28709 0.190008 0)
(8.28543 0.132165 0)
(8.31739 0.0958712 0)
(8.36168 0.0750381 0)
(8.40172 0.0623788 0)
(8.43278 0.0548991 0)
(8.45485 0.0503793 0)
(8.46875 0.0474783 0)
(8.47552 0.0454827 0)
(8.47617 0.0439974 0)
(8.47166 0.0427845 0)
(8.4628 0.0417052 0)
(8.45034 0.0406825 0)
(8.4349 0.0396757 0)
(8.41704 0.0386662 0)
(8.39725 0.0376478 0)
(8.37594 0.0366216 0)
(8.35346 0.0355925 0)
(8.33012 0.034567 0)
(8.30617 0.0335529 0)
(8.28184 0.0325587 0)
(8.2573 0.0315941 0)
(8.23269 0.0306711 0)
(8.20815 0.0298066 0)
(8.18376 0.0290258 0)
(8.15963 0.0283725 0)
(8.13578 0.0279223 0)
(8.11245 0.027818 0)
(8.0894 0.028384 0)
(8.06867 0.0300776 0)
(8.04788 0.0348443 0)
(8.04669 0.0429091 0)
(8.3225 -0.0608829 0)
(8.31397 -0.0832731 0)
(8.33049 -0.0540829 0)
(8.34429 -0.0202801 0)
(8.35314 0.00243672 0)
(8.36213 0.0165699 0)
(8.37184 0.0258163 0)
(8.38183 0.0320412 0)
(8.39164 0.0362681 0)
(8.40086 0.0391423 0)
(8.40926 0.0410586 0)
(8.41672 0.0422611 0)
(8.42315 0.0429236 0)
(8.42855 0.0431773 0)
(8.43295 0.0431216 0)
(8.43637 0.042833 0)
(8.43887 0.0423707 0)
(8.44051 0.0417815 0)
(8.44136 0.0411023 0)
(8.44149 0.0403626 0)
(8.44096 0.0395867 0)
(8.43983 0.0387949 0)
(8.43816 0.0380056 0)
(8.43601 0.0372372 0)
(8.43342 0.0365112 0)
(8.43045 0.0358536 0)
(8.42714 0.0353088 0)
(8.42352 0.0349238 0)
(8.4197 0.034843 0)
(8.41572 0.0350544 0)
(8.41208 0.0362214 0)
(8.4088 0.0367152 0)
(8.40719 0.0401828 0)
(8.33365 0.0145682 0)
(8.32976 0.0477147 0)
(8.32735 0.0539976 0)
(8.32867 0.0465893 0)
(8.33453 0.0410996 0)
(8.34202 0.0386056 0)
(8.34948 0.0378049 0)
(8.35667 0.0377697 0)
(8.3636 0.0379989 0)
(8.37027 0.0382722 0)
(8.37664 0.0384911 0)
(8.38268 0.0386144 0)
(8.38838 0.0386326 0)
(8.39373 0.038549 0)
(8.39871 0.038372 0)
(8.40332 0.0381127 0)
(8.40758 0.0377834 0)
(8.41148 0.0373966 0)
(8.41505 0.0369646 0)
(8.4183 0.0364991 0)
(8.42124 0.0360114 0)
(8.4239 0.0355131 0)
(8.4263 0.0350165 0)
(8.42845 0.0345358 0)
(8.43038 0.0340896 0)
(8.43211 0.0337018 0)
(8.43366 0.0334101 0)
(8.43506 0.0332595 0)
(8.43643 0.0333362 0)
(8.4378 0.0336893 0)
(8.43962 0.0344957 0)
(8.44197 0.0355033 0)
(8.44611 0.0370545 0)
(8.3302 -0.00530479 0)
(8.32721 -0.00749147 0)
(8.33135 -0.00242016 0)
(8.336 0.0080796 0)
(8.34005 0.017265 0)
(8.34418 0.0234928 0)
(8.34856 0.0276879 0)
(8.35316 0.0306624 0)
(8.35793 0.0328174 0)
(8.36274 0.0343853 0)
(8.36751 0.0355111 0)
(8.37219 0.0362893 0)
(8.37674 0.0367866 0)
(8.38115 0.0370544 0)
(8.38538 0.0371351 0)
(8.38944 0.0370645 0)
(8.39333 0.0368729 0)
(8.39704 0.0365858 0)
(8.40058 0.0362253 0)
(8.40395 0.0358101 0)
(8.40716 0.035357 0)
(8.41022 0.0348813 0)
(8.41313 0.0343979 0)
(8.41592 0.0339225 0)
(8.41859 0.0334735 0)
(8.42116 0.0330722 0)
(8.42365 0.0327489 0)
(8.42611 0.0325327 0)
(8.4286 0.032478 0)
(8.43122 0.0325754 0)
(8.43419 0.0329133 0)
(8.43766 0.0330985 0)
(8.44196 0.0332936 0)
(8.33238 0.00229505 0)
(8.33117 0.0133325 0)
(8.33277 0.020434 0)
(8.33545 0.0238418 0)
(8.33887 0.0260108 0)
(8.34288 0.0278336 0)
(8.34707 0.029525 0)
(8.35126 0.0310337 0)
(8.35545 0.0322793 0)
(8.35961 0.0332511 0)
(8.36371 0.0339712 0)
(8.36774 0.0344676 0)
(8.37168 0.0347691 0)
(8.37553 0.0349047 0)
(8.37927 0.0349013 0)
(8.3829 0.0347828 0)
(8.38641 0.0345703 0)
(8.38981 0.0342825 0)
(8.3931 0.0339356 0)
(8.39629 0.033544 0)
(8.39937 0.0331209 0)
(8.40236 0.0326787 0)
(8.40526 0.0322297 0)
(8.40809 0.0317869 0)
(8.41085 0.0313652 0)
(8.41357 0.030981 0)
(8.41626 0.030655 0)
(8.41897 0.0304045 0)
(8.42175 0.0302532 0)
(8.42469 0.0301815 0)
(8.42794 0.0301839 0)
(8.43157 0.0300329 0)
(8.43572 0.0296657 0)
(8.33232 0.000884989 0)
(8.33151 0.00582014 0)
(8.33338 0.0108169 0)
(8.3364 0.0156358 0)
(8.33977 0.0200396 0)
(8.34338 0.0235683 0)
(8.34708 0.0262687 0)
(8.3508 0.0283361 0)
(8.35454 0.0299071 0)
(8.35827 0.0310841 0)
(8.36196 0.0319445 0)
(8.36559 0.0325442 0)
(8.36916 0.0329265 0)
(8.37265 0.0331276 0)
(8.37605 0.0331781 0)
(8.37937 0.0331041 0)
(8.38261 0.0329281 0)
(8.38576 0.0326696 0)
(8.38883 0.0323456 0)
(8.39182 0.0319711 0)
(8.39474 0.0315594 0)
(8.39759 0.0311228 0)
(8.40039 0.030673 0)
(8.40314 0.0302217 0)
(8.40585 0.0297813 0)
(8.40855 0.0293639 0)
(8.41125 0.0289823 0)
(8.414 0.0286438 0)
(8.41683 0.0283526 0)
(8.41982 0.0280791 0)
(8.42304 0.0277865 0)
(8.42655 0.0273124 0)
(8.43035 0.026558 0)
(8.33272 0.00172252 0)
(8.33254 0.007328 0)
(8.33414 0.0126457 0)
(8.3367 0.0169343 0)
(8.3397 0.020408 0)
(8.34304 0.0231551 0)
(8.34655 0.0253392 0)
(8.3501 0.027094 0)
(8.35366 0.0284795 0)
(8.35719 0.0295422 0)
(8.36067 0.0303283 0)
(8.36409 0.0308782 0)
(8.36745 0.0312268 0)
(8.37073 0.0314052 0)
(8.37394 0.0314408 0)
(8.37707 0.0313573 0)
(8.38012 0.0311755 0)
(8.3831 0.0309134 0)
(8.38601 0.0305868 0)
(8.38886 0.0302093 0)
(8.39165 0.0297932 0)
(8.39439 0.0293495 0)
(8.39709 0.0288885 0)
(8.39976 0.0284197 0)
(8.4024 0.0279524 0)
(8.40505 0.0274944 0)
(8.40771 0.027052 0)
(8.41043 0.0266249 0)
(8.41323 0.0262056 0)
(8.41616 0.0257622 0)
(8.41928 0.0252486 0)
(8.42259 0.0245544 0)
(8.42607 0.0235944 0)
(8.33284 0.00180396 0)
(8.33292 0.00650723 0)
(8.3344 0.0110511 0)
(8.33679 0.0149705 0)
(8.33962 0.018366 0)
(8.34277 0.0211896 0)
(8.34608 0.0234684 0)
(8.34945 0.0252859 0)
(8.35284 0.026708 0)
(8.35621 0.027793 0)
(8.35954 0.0285946 0)
(8.36282 0.0291572 0)
(8.36603 0.0295175 0)
(8.36918 0.0297072 0)
(8.37226 0.0297534 0)
(8.37526 0.0296794 0)
(8.3782 0.0295055 0)
(8.38107 0.0292492 0)
(8.38387 0.0289256 0)
(8.38662 0.0285478 0)
(8.38932 0.0281273 0)
(8.39198 0.0276742 0)
(8.3946 0.0271976 0)
(8.39719 0.0267053 0)
(8.39978 0.0262039 0)
(8.40237 0.0256978 0)
(8.40499 0.0251884 0)
(8.40765 0.0246706 0)
(8.41039 0.0241312 0)
(8.41323 0.0235396 0)
(8.41621 0.0228523 0)
(8.41931 0.0219932 0)
(8.4225 0.0208992 0)
(8.33294 0.00184783 0)
(8.33322 0.00619029 0)
(8.3346 0.0104343 0)
(8.33678 0.0141329 0)
(8.3394 0.0173025 0)
(8.34233 0.0199323 0)
(8.34545 0.0220631 0)
(8.34866 0.0237744 0)
(8.35191 0.0251267 0)
(8.35516 0.0261684 0)
(8.35837 0.0269437 0)
(8.36154 0.0274911 0)
(8.36466 0.0278434 0)
(8.36771 0.0280295 0)
(8.3707 0.0280746 0)
(8.37362 0.0280007 0)
(8.37647 0.0278269 0)
(8.37927 0.0275696 0)
(8.382 0.0272431 0)
(8.38468 0.0268597 0)
(8.38732 0.0264299 0)
(8.38992 0.025963 0)
(8.39248 0.0254664 0)
(8.39503 0.0249464 0)
(8.39756 0.0244074 0)
(8.40011 0.023851 0)
(8.40267 0.0232755 0)
(8.40528 0.0226731 0)
(8.40795 0.0220286 0)
(8.41069 0.021315 0)
(8.41352 0.0204958 0)
(8.41643 0.019519 0)
(8.41938 0.0183424 0)
(8.33299 0.00181325 0)
(8.33337 0.00576969 0)
(8.33466 0.00961703 0)
(8.33667 0.0130205 0)
(8.3391 0.0159716 0)
(8.34185 0.0184628 0)
(8.3448 0.0205117 0)
(8.34786 0.022171 0)
(8.35096 0.023489 0)
(8.35408 0.0245082 0)
(8.35719 0.0252694 0)
(8.36026 0.0258086 0)
(8.36328 0.0261571 0)
(8.36625 0.0263424 0)
(8.36917 0.0263885 0)
(8.37202 0.026316 0)
(8.37481 0.0261432 0)
(8.37754 0.0258855 0)
(8.38022 0.0255564 0)
(8.38286 0.0251673 0)
(8.38544 0.0247279 0)
(8.388 0.0242463 0)
(8.39052 0.023729 0)
(8.39302 0.0231806 0)
(8.39552 0.0226038 0)
(8.39802 0.0219986 0)
(8.40054 0.0213612 0)
(8.40308 0.0206828 0)
(8.40567 0.0199487 0)
(8.40832 0.0191364 0)
(8.41101 0.018217 0)
(8.41375 0.0171555 0)
(8.4165 0.0159255 0)
(8.33301 0.00173746 0)
(8.33345 0.00537184 0)
(8.33467 0.00889386 0)
(8.33652 0.0120482 0)
(8.33878 0.0147996 0)
(8.34135 0.0171386 0)
(8.34413 0.0190759 0)
(8.34703 0.0206524 0)
(8.35 0.0219102 0)
(8.35299 0.0228874 0)
(8.35599 0.0236199 0)
(8.35896 0.0241402 0)
(8.3619 0.0244767 0)
(8.36479 0.0246547 0)
(8.36763 0.0246964 0)
(8.37042 0.024621 0)
(8.37316 0.0244454 0)
(8.37584 0.0241842 0)
(8.37847 0.0238498 0)
(8.38106 0.0234526 0)
(8.38361 0.0230016 0)
(8.38612 0.0225038 0)
(8.3886 0.0219645 0)
(8.39107 0.0213874 0)
(8.39353 0.0207738 0)
(8.39598 0.0201224 0)
(8.39845 0.0194287 0)
(8.40094 0.0186841 0)
(8.40345 0.0178754 0)
(8.406 0.0169845 0)
(8.40857 0.0159902 0)
(8.41116 0.0148687 0)
(8.41374 0.0136047 0)
(8.33303 0.0016375 0)
(8.33349 0.00497434 0)
(8.33463 0.00818938 0)
(8.33634 0.0110931 0)
(8.33845 0.0136416 0)
(8.34086 0.015825 0)
(8.34348 0.0176488 0)
(8.34623 0.0191423 0)
(8.34906 0.0203397 0)
(8.35193 0.0212733 0)
(8.35481 0.0219746 0)
(8.35769 0.0224728 0)
(8.36053 0.022794 0)
(8.36335 0.0229614 0)
(8.36612 0.0229956 0)
(8.36884 0.0229145 0)
(8.37152 0.0227337 0)
(8.37415 0.0224668 0)
(8.37673 0.0221251 0)
(8.37927 0.0217184 0)
(8.38178 0.0212546 0)
(8.38425 0.0207398 0)
(8.3867 0.0201785 0)
(8.38913 0.0195734 0)
(8.39154 0.0189249 0)
(8.39395 0.0182314 0)
(8.39636 0.0174879 0)
(8.39879 0.0166869 0)
(8.40122 0.0158174 0)
(8.40367 0.0148653 0)
(8.40613 0.0138153 0)
(8.40858 0.0126519 0)
(8.41101 0.0113671 0)
(8.33304 0.00152497 0)
(8.3335 0.00458476 0)
(8.33457 0.00751848 0)
(8.33616 0.0101854 0)
(8.33813 0.0125392 0)
(8.34038 0.0145675 0)
(8.34285 0.0162725 0)
(8.34546 0.0176751 0)
(8.34816 0.0188031 0)
(8.35091 0.0196846 0)
(8.35368 0.0203471 0)
(8.35645 0.0208166 0)
(8.35921 0.0211166 0)
(8.36194 0.0212683 0)
(8.36463 0.0212905 0)
(8.36729 0.0211998 0)
(8.36991 0.0210105 0)
(8.37248 0.0207349 0)
(8.37501 0.0203836 0)
(8.37751 0.0199654 0)
(8.37997 0.0194874 0)
(8.3824 0.0189548 0)
(8.3848 0.0183715 0)
(8.38719 0.0177395 0)
(8.38955 0.0170587 0)
(8.39191 0.0163273 0)
(8.39427 0.0155408 0)
(8.39662 0.0146926 0)
(8.39898 0.0137741 0)
(8.40133 0.012775 0)
(8.40368 0.0116844 0)
(8.40601 0.0104925 0)
(8.40831 0.00919591 0)
(8.33304 0.00140688 0)
(8.33349 0.0042039 0)
(8.3345 0.00687448 0)
(8.33598 0.00931298 0)
(8.33781 0.0114753 0)
(8.33993 0.0133476 0)
(8.34225 0.0149297 0)
(8.34473 0.0162365 0)
(8.3473 0.0172903 0)
(8.34993 0.0181147 0)
(8.35259 0.0187335 0)
(8.35527 0.0191696 0)
(8.35793 0.019444 0)
(8.36058 0.019576 0)
(8.3632 0.0195826 0)
(8.36579 0.0194789 0)
(8.36834 0.0192781 0)
(8.37086 0.0189914 0)
(8.37334 0.0186285 0)
(8.37578 0.0181973 0)
(8.37819 0.017704 0)
(8.38057 0.0171534 0)
(8.38293 0.0165487 0)
(8.38526 0.0158914 0)
(8.38758 0.0151813 0)
(8.38988 0.0144165 0)
(8.39217 0.0135934 0)
(8.39445 0.0127067 0)
(8.39672 0.0117497 0)
(8.39898 0.010715 0)
(8.40123 0.0095956 0)
(8.40345 0.0083853 0)
(8.40562 0.00708368 0)
(8.33304 0.00128739 0)
(8.33347 0.00383318 0)
(8.33442 0.00625614 0)
(8.3358 0.00847538 0)
(8.33752 0.0104509 0)
(8.3395 0.0121682 0)
(8.3417 0.013625 0)
(8.34404 0.0148318 0)
(8.34649 0.0158063 0)
(8.34901 0.0165681 0)
(8.35157 0.0171378 0)
(8.35414 0.0175354 0)
(8.35672 0.0177795 0)
(8.35928 0.0178875 0)
(8.36183 0.0178747 0)
(8.36434 0.0177548 0)
(8.36683 0.0175396 0)
(8.36929 0.0172395 0)
(8.37171 0.0168631 0)
(8.3741 0.0164176 0)
(8.37645 0.0159084 0)
(8.37878 0.0153399 0)
(8.38108 0.0147146 0)
(8.38336 0.0140339 0)
(8.38562 0.0132977 0)
(8.38786 0.0125043 0)
(8.39008 0.0116508 0)
(8.39229 0.0107331 0)
(8.39448 0.00974658 0)
(8.39665 0.00868603 0)
(8.39879 0.00754699 0)
(8.4009 0.00632604 0)
(8.40297 0.00502448 0)
(8.33304 0.00116889 0)
(8.33345 0.00347324 0)
(8.33434 0.00566117 0)
(8.33563 0.00766915 0)
(8.33724 0.00946202 0)
(8.33911 0.0110249 0)
(8.34118 0.0123544 0)
(8.34341 0.0134577 0)
(8.34574 0.0143485 0)
(8.34815 0.0150433 0)
(8.3506 0.0155593 0)
(8.35308 0.015914 0)
(8.35557 0.0161238 0)
(8.35805 0.016204 0)
(8.36052 0.0161685 0)
(8.36296 0.0160293 0)
(8.36538 0.0157974 0)
(8.36778 0.0154818 0)
(8.37014 0.0150905 0)
(8.37247 0.0146297 0)
(8.37477 0.0141044 0)
(8.37704 0.0135183 0)
(8.37928 0.0128739 0)
(8.3815 0.0121722 0)
(8.3837 0.0114132 0)
(8.38587 0.0105958 0)
(8.38802 0.00971769 0)
(8.39015 0.00877608 0)
(8.39226 0.00776766 0)
(8.39434 0.00668919 0)
(8.39638 0.00553809 0)
(8.39839 0.0043127 0)
(8.40035 0.00301536 0)
(8.33304 0.00105269 0)
(8.33343 0.00312428 0)
(8.33426 0.00508774 0)
(8.33547 0.00689182 0)
(8.33698 0.00850601 0)
(8.33875 0.00991575 0)
(8.34071 0.0111168 0)
(8.34282 0.0121138 0)
(8.34504 0.0129173 0)
(8.34735 0.0135408 0)
(8.3497 0.013999 0)
(8.35209 0.0143067 0)
(8.35449 0.0144784 0)
(8.35689 0.0145274 0)
(8.35928 0.0144659 0)
(8.36165 0.0143049 0)
(8.364 0.014054 0)
(8.36633 0.0137213 0)
(8.36863 0.0133138 0)
(8.3709 0.0128371 0)
(8.37314 0.0122958 0)
(8.37535 0.0116931 0)
(8.37754 0.0110311 0)
(8.37969 0.0103109 0)
(8.38182 0.00953273 0)
(8.38393 0.00869573 0)
(8.38601 0.00779851 0)
(8.38806 0.00683914 0)
(8.39008 0.00581558 0)
(8.39207 0.00472594 0)
(8.39402 0.00356902 0)
(8.39593 0.00234433 0)
(8.39779 0.0010548 0)
(8.33303 0.000939409 0)
(8.3334 0.00278614 0)
(8.33419 0.00453409 0)
(8.33533 0.00614083 0)
(8.33675 0.00758007 0)
(8.33841 0.00883796 0)
(8.34027 0.0099097 0)
(8.34228 0.0107981 0)
(8.3444 0.0115111 0)
(8.3466 0.0120598 0)
(8.34886 0.0124563 0)
(8.35116 0.0127134 0)
(8.35347 0.0128434 0)
(8.35579 0.012858 0)
(8.35811 0.0127679 0)
(8.36041 0.0125827 0)
(8.36269 0.0123108 0)
(8.36495 0.0119596 0)
(8.36719 0.0115352 0)
(8.3694 0.0110425 0)
(8.37158 0.0104855 0)
(8.37373 0.00986725 0)
(8.37585 0.0091896 0)
(8.37794 0.00845368 0)
(8.38 0.00765981 0)
(8.38203 0.00680764 0)
(8.38404 0.00589637 0)
(8.38601 0.0049249 0)
(8.38795 0.00389211 0)
(8.38985 0.00279717 0)
(8.39171 0.00163979 0)
(8.39352 0.000420278 0)
(8.39529 -0.000858147 0)
(8.33303 0.000829271 0)
(8.33338 0.00245842 0)
(8.33412 0.00399854 0)
(8.33519 0.00541383 0)
(8.33653 0.00668164 0)
(8.3381 0.00778909 0)
(8.33986 0.00873112 0)
(8.34178 0.00950913 0)
(8.3438 0.0101292 0)
(8.34591 0.0106 0)
(8.34808 0.0109317 0)
(8.35029 0.011135 0)
(8.35252 0.0112203 0)
(8.35477 0.0111978 0)
(8.35701 0.0110767 0)
(8.35924 0.0108653 0)
(8.36145 0.010571 0)
(8.36365 0.0102003 0)
(8.36582 0.00975837 0)
(8.36796 0.00924974 0)
(8.37008 0.00867789 0)
(8.37216 0.00804543 0)
(8.37422 0.0073542 0)
(8.37624 0.00660532 0)
(8.37824 0.00579928 0)
(8.3802 0.00493612 0)
(8.38213 0.00401552 0)
(8.38402 0.00303705 0)
(8.38587 0.00200031 0)
(8.38769 0.000905195 0)
(8.38946 -0.000247926 0)
(8.39119 -0.00145826 0)
(8.39286 -0.00272248 0)
(8.33303 0.000722271 0)
(8.33336 0.00214052 0)
(8.33406 0.00347947 0)
(8.33507 0.00470845 0)
(8.33634 0.00580793 0)
(8.33782 0.00676619 0)
(8.3395 0.00757809 0)
(8.34132 0.00824411 0)
(8.34325 0.00876871 0)
(8.34528 0.00915879 0)
(8.34736 0.00942262 0)
(8.34949 0.00956902 0)
(8.35164 0.00960688 0)
(8.35381 0.00954471 0)
(8.35598 0.00939043 0)
(8.35814 0.00915116 0)
(8.36029 0.00883327 0)
(8.36242 0.00844225 0)
(8.36452 0.00798274 0)
(8.3666 0.00745858 0)
(8.36865 0.00687285 0)
(8.37067 0.0062279 0)
(8.37266 0.00552541 0)
(8.37462 0.00476652 0)
(8.37654 0.00395188 0)
(8.37843 0.00308182 0)
(8.38028 0.00215643 0)
(8.38209 0.00117576 0)
(8.38387 0.000139959 0)
(8.3856 -0.000950586 0)
(8.38728 -0.00209507 0)
(8.38892 -0.00329239 0)
(8.39051 -0.00453924 0)
(8.33303 0.000618269 0)
(8.33334 0.00183173 0)
(8.334 0.00297539 0)
(8.33496 0.00402275 0)
(8.33616 0.00495701 0)
(8.33757 0.00576767 0)
(8.33916 0.00644976 0)
(8.3409 0.00700309 0)
(8.34275 0.00743086 0)
(8.34469 0.00773842 0)
(8.3467 0.00793237 0)
(8.34875 0.00801988 0)
(8.35083 0.0080083 0)
(8.35292 0.00790471 0)
(8.35502 0.00771573 0)
(8.35711 0.00744739 0)
(8.35919 0.00710505 0)
(8.36126 0.00669339 0)
(8.3633 0.00621637 0)
(8.36531 0.00567729 0)
(8.3673 0.00507883 0)
(8.36925 0.00442306 0)
(8.37117 0.00371158 0)
(8.37306 0.00294548 0)
(8.37491 0.00212554 0)
(8.37673 0.00125232 0)
(8.3785 0.000326208 0)
(8.38024 -0.000652381 0)
(8.38193 -0.00168294 0)
(8.38358 -0.00276472 0)
(8.38518 -0.00389666 0)
(8.38673 -0.00507751 0)
(8.38824 -0.00630401 0)
(8.33303 0.000517046 0)
(8.33332 0.00153117 0)
(8.33395 0.0024844 0)
(8.33485 0.00335362 0)
(8.33599 0.00412443 0)
(8.33734 0.00478765 0)
(8.33886 0.00533878 0)
(8.34052 0.00577729 0)
(8.3423 0.00610552 0)
(8.34416 0.00632758 0)
(8.34609 0.00644867 0)
(8.34807 0.00647447 0)
(8.35008 0.006411 0)
(8.3521 0.00626404 0)
(8.35413 0.00603894 0)
(8.35616 0.0057406 0)
(8.35817 0.00537345 0)
(8.36017 0.00494133 0)
(8.36215 0.00444754 0)
(8.3641 0.00389481 0)
(8.36602 0.00328546 0)
(8.36791 0.00262126 0)
(8.36976 0.00190368 0)
(8.37158 0.00113377 0)
(8.37336 0.000312367 0)
(8.37511 -0.000559848 0)
(8.37681 -0.00148226 0)
(8.37847 -0.00245421 0)
(8.38008 -0.00347496 0)
(8.38165 -0.00454355 0)
(8.38317 -0.00565875 0)
(8.38464 -0.00681924 0)
(8.38606 -0.00802189 0)
(8.33303 0.000418391 0)
(8.3333 0.00123843 0)
(8.3339 0.00200635 0)
(8.33476 0.00270209 0)
(8.33584 0.0033134 0)
(8.33713 0.00383237 0)
(8.33858 0.00425494 0)
(8.34017 0.00458032 0)
(8.34188 0.00481003 0)
(8.34368 0.0049471 0)
(8.34554 0.00499542 0)
(8.34745 0.00495917 0)
(8.34939 0.00484312 0)
(8.35135 0.00465186 0)
(8.35331 0.00438969 0)
(8.35528 0.00406056 0)
(8.35723 0.00366804 0)
(8.35916 0.00321516 0)
(8.36108 0.00270469 0)
(8.36296 0.00213877 0)
(8.36482 0.00151939 0)
(8.36665 0.000848162 0)
(8.36843 0.000126233 0)
(8.37019 -0.00064531 0)
(8.3719 -0.0014656 0)
(8.37357 -0.00233388 0)
(8.3752 -0.00324943 0)
(8.37678 -0.00421143 0)
(8.37832 -0.00521901 0)
(8.37981 -0.00627109 0)
(8.38125 -0.00736638 0)
(8.38263 -0.00850357 0)
(8.38397 -0.00967969 0)
(8.33303 0.000321912 0)
(8.33329 0.000951293 0)
(8.33386 0.00153522 0)
(8.33468 0.00205624 0)
(8.33571 0.00250447 0)
(8.33694 0.00287395 0)
(8.33834 0.00316182 0)
(8.33987 0.00336771 0)
(8.34151 0.0034929 0)
(8.34324 0.00353963 0)
(8.34504 0.00351066 0)
(8.34689 0.00340907 0)
(8.34877 0.00323883 0)
(8.35066 0.00300288 0)
(8.35257 0.00270401 0)
(8.35447 0.00234514 0)
(8.35636 0.00192914 0)
(8.35824 0.00145805 0)
(8.36009 0.000933777 0)
(8.36191 0.000358298 0)
(8.36371 -0.000267029 0)
(8.36547 -0.000940955 0)
(8.36719 -0.00166249 0)
(8.36888 -0.00243065 0)
(8.37052 -0.00324461 0)
(8.37212 -0.0041036 0)
(8.37368 -0.00500683 0)
(8.37519 -0.00595344 0)
(8.37665 -0.00694246 0)
(8.37806 -0.00797278 0)
(8.37942 -0.00904313 0)
(8.38073 -0.0101522 0)
(8.38199 -0.0112971 0)
(8.33302 0.000228015 0)
(8.33327 0.000674364 0)
(8.33381 0.00108475 0)
(8.33459 0.00144354 0)
(8.33559 0.00174189 0)
(8.33677 0.00197473 0)
(8.33811 0.0021395 0)
(8.33959 0.00223564 0)
(8.34118 0.00226399 0)
(8.34285 0.00222635 0)
(8.34459 0.00212419 0)
(8.34639 0.00195741 0)
(8.34821 0.00173089 0)
(8.35005 0.00144741 0)
(8.3519 0.00110893 0)
(8.35374 0.000717292 0)
(8.35558 0.000274032 0)
(8.3574 -0.000218805 0)
(8.35919 -0.000759766 0)
(8.36095 -0.00134743 0)
(8.36269 -0.00198083 0)
(8.36439 -0.00265905 0)
(8.36604 -0.00338115 0)
(8.36766 -0.00414638 0)
(8.36924 -0.00495401 0)
(8.37077 -0.0058033 0)
(8.37226 -0.00669347 0)
(8.3737 -0.00762365 0)
(8.37509 -0.00859289 0)
(8.37642 -0.00960011 0)
(8.37771 -0.0106441 0)
(8.37895 -0.0117236 0)
(8.38013 -0.012836 0)
(8.33302 0.00013363 0)
(8.33327 0.000388197 0)
(8.33378 0.000606349 0)
(8.33454 0.00077769 0)
(8.33549 0.000897912 0)
(8.33663 0.000966091 0)
(8.33793 0.000982636 0)
(8.33936 0.000948325 0)
(8.3409 0.000863858 0)
(8.34252 0.000729683 0)
(8.34421 0.000547153 0)
(8.34595 0.000319522 0)
(8.34772 4.40047e-05 0)
(8.3495 -0.000279066 0)
(8.3513 -0.000648378 0)
(8.35309 -0.00106312 0)
(8.35487 -0.00152278 0)
(8.35663 -0.00202617 0)
(8.35837 -0.00257246 0)
(8.36008 -0.00316115 0)
(8.36175 -0.00379151 0)
(8.36339 -0.00446291 0)
(8.36499 -0.00517474 0)
(8.36654 -0.00592643 0)
(8.36806 -0.00671735 0)
(8.36952 -0.00754685 0)
(8.37094 -0.00841417 0)
(8.37231 -0.0093185 0)
(8.37363 -0.0102589 0)
(8.3749 -0.0112343 0)
(8.37611 -0.0122436 0)
(8.37727 -0.0132856 0)
(8.37838 -0.0143579 0)
(8.33302 5.11616e-05 0)
(8.33324 0.000155479 0)
(8.33372 0.000238548 0)
(8.33443 0.000282324 0)
(8.33535 0.000282199 0)
(8.33645 0.000236321 0)
(8.33772 0.000144351 0)
(8.33912 7.36709e-06 0)
(8.34062 -0.000173197 0)
(8.34221 -0.00039622 0)
(8.34387 -0.000659868 0)
(8.34557 -0.000960503 0)
(8.3473 -0.00130088 0)
(8.34905 -0.00168084 0)
(8.3508 -0.00209945 0)
(8.35254 -0.00255611 0)
(8.35427 -0.00305017 0)
(8.35598 -0.00358154 0)
(8.35767 -0.00414992 0)
(8.35932 -0.004755 0)
(8.36094 -0.00539641 0)
(8.36252 -0.00607385 0)
(8.36406 -0.00678697 0)
(8.36555 -0.00753539 0)
(8.367 -0.00831869 0)
(8.3684 -0.00913635 0)
(8.36976 -0.00998778 0)
(8.37106 -0.0108723 0)
(8.37231 -0.0117891 0)
(8.37351 -0.0127373 0)
(8.37465 -0.0137158 0)
(8.37574 -0.0147237 0)
(8.37678 -0.0157589 0)
(8.33303 -5.21845e-05 0)
(8.33326 -0.000179919 0)
(8.33374 -0.000353461 0)
(8.33444 -0.000571828 0)
(8.33533 -0.000818499 0)
(8.33639 -0.00108146 0)
(8.33761 -0.0013552 0)
(8.33897 -0.00163847 0)
(8.34043 -0.00193266 0)
(8.34197 -0.00224042 0)
(8.34358 -0.00256569 0)
(8.34524 -0.00291409 0)
(8.34692 -0.00328619 0)
(8.34862 -0.00368407 0)
(8.35033 -0.00411002 0)
(8.35203 -0.00456575 0)
(8.35371 -0.00505249 0)
(8.35538 -0.00557121 0)
(8.35701 -0.00612249 0)
(8.35861 -0.00670668 0)
(8.36018 -0.00732397 0)
(8.36171 -0.0079744 0)
(8.36319 -0.00865785 0)
(8.36463 -0.0093741 0)
(8.36602 -0.0101228 0)
(8.36737 -0.0109035 0)
(8.36866 -0.0117157 0)
(8.3699 -0.0125586 0)
(8.37109 -0.0134314 0)
(8.37222 -0.0143334 0)
(8.3733 -0.0152635 0)
(8.37432 -0.0162207 0)
(8.3753 -0.0172031 0)
(8.333 -9.65769e-05 0)
(8.33315 -0.000253455 0)
(8.33355 -0.000416682 0)
(8.33419 -0.000620526 0)
(8.33506 -0.000877256 0)
(8.33613 -0.00118479 0)
(8.33737 -0.00153422 0)
(8.33874 -0.00191605 0)
(8.34022 -0.00232303 0)
(8.34177 -0.00275052 0)
(8.34338 -0.00319597 0)
(8.34502 -0.00365833 0)
(8.34669 -0.00413703 0)
(8.34837 -0.004633 0)
(8.35005 -0.0051475 0)
(8.35171 -0.00568169 0)
(8.35336 -0.00623672 0)
(8.35498 -0.0068137 0)
(8.35657 -0.00741367 0)
(8.35812 -0.00803747 0)
(8.35964 -0.00868583 0)
(8.36111 -0.00935929 0)
(8.36254 -0.0100583 0)
(8.36392 -0.010783 0)
(8.36525 -0.0115337 0)
(8.36653 -0.0123101 0)
(8.36776 -0.0131122 0)
(8.36894 -0.0139397 0)
(8.37006 -0.014792 0)
(8.37113 -0.0156687 0)
(8.37215 -0.016569 0)
(8.37311 -0.0174923 0)
(8.37401 -0.0184368 0)
(8.33306 -0.000298993 0)
(8.33335 -0.000967119 0)
(8.33381 -0.001711 0)
(8.33444 -0.00246158 0)
(8.33525 -0.0031635 0)
(8.33623 -0.00379682 0)
(8.33737 -0.00436295 0)
(8.33866 -0.00487249 0)
(8.34006 -0.00533891 0)
(8.34155 -0.00577562 0)
(8.34311 -0.00619482 0)
(8.34471 -0.00660713 0)
(8.34634 -0.00702097 0)
(8.34798 -0.00744305 0)
(8.34963 -0.00787862 0)
(8.35126 -0.00833172 0)
(8.35287 -0.00880538 0)
(8.35446 -0.00930186 0)
(8.35601 -0.00982277 0)
(8.35753 -0.0103693 0)
(8.35901 -0.010942 0)
(8.36044 -0.0115415 0)
(8.36183 -0.0121679 0)
(8.36316 -0.0128211 0)
(8.36445 -0.013501 0)
(8.36569 -0.0142072 0)
(8.36687 -0.0149394 0)
(8.36799 -0.0156968 0)
(8.36906 -0.0164789 0)
(8.37008 -0.0172849 0)
(8.37104 -0.018114 0)
(8.37194 -0.0189653 0)
(8.37278 -0.0198372 0)
(8.33294 -4.9899e-05 0)
(8.33286 -6.57155e-05 0)
(8.33309 -0.000151868 0)
(8.33369 -0.000430505 0)
(8.3346 -0.00090608 0)
(8.33574 -0.00152081 0)
(8.33705 -0.00221422 0)
(8.33848 -0.00294362 0)
(8.34 -0.00368245 0)
(8.34158 -0.00441514 0)
(8.34319 -0.00513374 0)
(8.34483 -0.0058355 0)
(8.34647 -0.00652081 0)
(8.3481 -0.00719196 0)
(8.34973 -0.0078523 0)
(8.35133 -0.00850549 0)
(8.3529 -0.0091552 0)
(8.35444 -0.00980489 0)
(8.35595 -0.0104577 0)
(8.35741 -0.0111164 0)
(8.35884 -0.0117833 0)
(8.36021 -0.0124605 0)
(8.36154 -0.0131497 0)
(8.36281 -0.0138521 0)
(8.36404 -0.0145689 0)
(8.36521 -0.0153008 0)
(8.36633 -0.0160485 0)
(8.36739 -0.0168121 0)
(8.36839 -0.0175919 0)
(8.36934 -0.0183879 0)
(8.37024 -0.0191999 0)
(8.37108 -0.0200275 0)
(8.37186 -0.0208698 0)
(8.33317 -0.000757746 0)
(8.33367 -0.00261983 0)
(8.33408 -0.00454959 0)
(8.33448 -0.00619008 0)
(8.33504 -0.00747009 0)
(8.33585 -0.00844585 0)
(8.33689 -0.00919209 0)
(8.33811 -0.00977297 0)
(8.33948 -0.0102399 0)
(8.34095 -0.0106326 0)
(8.3425 -0.010981 0)
(8.3441 -0.0113073 0)
(8.34572 -0.0116272 0)
(8.34735 -0.0119517 0)
(8.34897 -0.0122885 0)
(8.35058 -0.0126428 0)
(8.35216 -0.013018 0)
(8.3537 -0.0134164 0)
(8.35521 -0.0138393 0)
(8.35668 -0.0142873 0)
(8.35809 -0.0147607 0)
(8.35946 -0.0152594 0)
(8.36077 -0.0157831 0)
(8.36203 -0.0163313 0)
(8.36324 -0.0169036 0)
(8.36438 -0.0174993 0)
(8.36547 -0.0181176 0)
(8.36651 -0.0187578 0)
(8.36748 -0.0194192 0)
(8.3684 -0.0201009 0)
(8.36925 -0.0208021 0)
(8.37005 -0.021522 0)
(8.3708 -0.0222593 0)
(8.33263 0.000584906 0)
(8.33174 0.0020246 0)
(8.33175 0.0029326 0)
(8.33261 0.00288207 0)
(8.33389 0.00206832 0)
(8.33537 0.000856775 0)
(8.33695 -0.0005149 0)
(8.33857 -0.00192202 0)
(8.34022 -0.00329747 0)
(8.34187 -0.00460517 0)
(8.34351 -0.00582966 0)
(8.34515 -0.00696852 0)
(8.34676 -0.00802637 0)
(8.34835 -0.00901122 0)
(8.34991 -0.00993255 0)
(8.35144 -0.0108 0)
(8.35293 -0.0116229 0)
(8.35438 -0.0124096 0)
(8.3558 -0.0131675 0)
(8.35716 -0.0139033 0)
(8.35849 -0.0146225 0)
(8.35976 -0.0153298 0)
(8.36099 -0.0160294 0)
(8.36216 -0.0167246 0)
(8.36328 -0.0174182 0)
(8.36435 -0.0181124 0)
(8.36537 -0.0188092 0)
(8.36632 -0.0195099 0)
(8.36723 -0.0202157 0)
(8.36807 -0.0209275 0)
(8.36886 -0.0216457 0)
(8.3696 -0.0223708 0)
(8.37028 -0.0231023 0)
(8.33358 -0.00194118 0)
(8.33468 -0.00684817 0)
(8.33445 -0.0116004 0)
(8.33375 -0.0147647 0)
(8.33352 -0.0165174 0)
(8.33394 -0.017452 0)
(8.33483 -0.0178984 0)
(8.33605 -0.0180499 0)
(8.33748 -0.018041 0)
(8.33906 -0.0179589 0)
(8.34072 -0.0178578 0)
(8.34244 -0.01777 0)
(8.34417 -0.0177143 0)
(8.34589 -0.0177006 0)
(8.34759 -0.0177332 0)
(8.34927 -0.0178134 0)
(8.3509 -0.0179402 0)
(8.35248 -0.0181117 0)
(8.35402 -0.0183256 0)
(8.3555 -0.018579 0)
(8.35692 -0.0188693 0)
(8.35829 -0.019194 0)
(8.35959 -0.0195506 0)
(8.36084 -0.0199368 0)
(8.36203 -0.0203506 0)
(8.36316 -0.0207902 0)
(8.36423 -0.0212537 0)
(8.36523 -0.0217396 0)
(8.36618 -0.0222465 0)
(8.36707 -0.022773 0)
(8.3679 -0.0233181 0)
(8.36867 -0.0238807 0)
(8.36938 -0.0244594 0)
(8.33162 0.00370423 0)
(8.32827 0.0102751 0)
(8.32842 0.0134528 0)
(8.33099 0.0134198 0)
(8.33363 0.0113939 0)
(8.33586 0.00857909 0)
(8.33784 0.0056064 0)
(8.33968 0.00272118 0)
(8.34138 3.56649e-05 0)
(8.34301 -0.0024021 0)
(8.34457 -0.00458652 0)
(8.34609 -0.00653338 0)
(8.34758 -0.00826684 0)
(8.34904 -0.00981356 0)
(8.35049 -0.0111997 0)
(8.35192 -0.0124496 0)
(8.35332 -0.0135845 0)
(8.3547 -0.0146234 0)
(8.35606 -0.0155822 0)
(8.35738 -0.0164746 0)
(8.35868 -0.0173122 0)
(8.35993 -0.0181047 0)
(8.36115 -0.0188602 0)
(8.36233 -0.0195856 0)
(8.36347 -0.0202866 0)
(8.36456 -0.020968 0)
(8.3656 -0.0216337 0)
(8.36659 -0.022287 0)
(8.36753 -0.0229306 0)
(8.36842 -0.0235665 0)
(8.36926 -0.0241966 0)
(8.37004 -0.0248219 0)
(8.37077 -0.0254433 0)
(8.3343 -0.00641848 0)
(8.33463 -0.0206388 0)
(8.33076 -0.0298403 0)
(8.32677 -0.0337984 0)
(8.32486 -0.03467 0)
(8.32496 -0.0340986 0)
(8.32616 -0.0328957 0)
(8.32792 -0.0314596 0)
(8.33003 -0.0300124 0)
(8.33233 -0.0286702 0)
(8.33473 -0.0274843 0)
(8.33718 -0.0264709 0)
(8.33963 -0.0256283 0)
(8.34205 -0.0249458 0)
(8.34443 -0.0244087 0)
(8.34676 -0.0240011 0)
(8.34903 -0.0237074 0)
(8.35124 -0.0235134 0)
(8.35338 -0.0234063 0)
(8.35544 -0.0233747 0)
(8.35744 -0.0234088 0)
(8.35936 -0.0235 0)
(8.3612 -0.0236412 0)
(8.36298 -0.0238259 0)
(8.36467 -0.024049 0)
(8.36629 -0.0243058 0)
(8.36783 -0.0245925 0)
(8.3693 -0.0249058 0)
(8.3707 -0.0252428 0)
(8.37202 -0.025601 0)
(8.37327 -0.0259786 0)
(8.37444 -0.0263739 0)
(8.37555 -0.026785 0)
(8.32884 0.0226039 0)
(8.32235 0.0427964 0)
(8.32669 0.04404 0)
(8.33333 0.0380976 0)
(8.33787 0.0307619 0)
(8.34075 0.023632 0)
(8.34308 0.0170181 0)
(8.3453 0.0110943 0)
(8.34753 0.00591618 0)
(8.34983 0.00143591 0)
(8.35224 -0.00242664 0)
(8.35475 -0.0057533 0)
(8.35734 -0.00862163 0)
(8.35998 -0.011102 0)
(8.36267 -0.0132557 0)
(8.36537 -0.0151348 0)
(8.36806 -0.0167837 0)
(8.37074 -0.0182391 0)
(8.37337 -0.0195321 0)
(8.37596 -0.0206887 0)
(8.3785 -0.0217302 0)
(8.38096 -0.0226749 0)
(8.38335 -0.0235377 0)
(8.38567 -0.0243313 0)
(8.3879 -0.0250662 0)
(8.39004 -0.0257514 0)
(8.3921 -0.0263943 0)
(8.39407 -0.0270012 0)
(8.39594 -0.0275776 0)
(8.39773 -0.0281279 0)
(8.39942 -0.0286563 0)
(8.40102 -0.0291655 0)
(8.40252 -0.0296599 0)
(8.32436 -0.0380204 0)
(8.29387 -0.0682914 0)
(8.27218 -0.0716439 0)
(8.26671 -0.0685218 0)
(8.27359 -0.064147 0)
(8.28621 -0.0593021 0)
(8.30095 -0.0546076 0)
(8.31625 -0.0504206 0)
(8.33128 -0.0468013 0)
(8.34556 -0.0437241 0)
(8.3589 -0.0411436 0)
(8.37123 -0.0390005 0)
(8.38256 -0.0372326 0)
(8.39294 -0.0357827 0)
(8.40243 -0.0346006 0)
(8.41109 -0.0336431 0)
(8.41898 -0.0328735 0)
(8.42617 -0.0322613 0)
(8.43271 -0.0317807 0)
(8.43867 -0.0314107 0)
(8.44408 -0.0311337 0)
(8.44899 -0.030935 0)
(8.45344 -0.0308028 0)
(8.45747 -0.0307269 0)
(8.4611 -0.0306989 0)
(8.46437 -0.0307118 0)
(8.46731 -0.0307598 0)
(8.46993 -0.0308378 0)
(8.47227 -0.0309416 0)
(8.47434 -0.0310676 0)
(8.47616 -0.0312124 0)
(8.47774 -0.0313731 0)
(8.47912 -0.0315461 0)
(8.34002 0.156992 0)
(8.382 0.149004 0)
(8.40251 0.103395 0)
(8.39947 0.0645172 0)