/*--------------------------------*- C++ -*----------------------------------*\
| =========                 |                                                 |
| \\      /  F ield         | OpenFOAM: The Open Source CFD Toolbox           |
|  \\    /   O peration     | Version:  2.1.1                                 |
|   \\  /    A nd           | Web:      www.OpenFOAM.org                      |
|    \\/     M anipulation  |                                                 |
\*---------------------------------------------------------------------------*/
FoamFile
{
    version     2.0;
    format      ascii;
    class       volScalarField;
    location    "0.135";
    object      epsilon;
}
// * * * * * * * * * * * * * * * * * * * * * * * * * * * * * * * * * * * * * //

dimensions      [0 2 -3 0 0 0 0];

internalField   nonuniform List<scalar> 
6820
(
151.448
203.151
260.735
321.761
383.629
443.728
499.771
550.052
593.513
629.714
658.724
680.981
697.163
708.065
714.514
717.306
717.17
714.749
710.591
705.156
698.821
691.888
684.599
677.14
669.657
662.257
655.017
648.008
641.184
634.953
627.447
627.609
592.593
11.7448
21.4172
29.9433
38.6232
47.5777
56.5531
65.3123
73.654
81.4161
88.4901
94.8211
100.402
105.263
109.461
113.067
116.158
118.812
121.101
123.091
124.839
126.393
127.796
129.081
130.276
131.404
132.486
133.541
134.591
135.66
136.816
138.079
139.897
142.029
5.83781
7.51681
9.20665
10.8093
12.3199
13.7475
15.0885
16.3393
17.4982
18.5651
19.5417
20.4316
21.24
21.9734
22.6391
23.2447
23.7978
24.3057
24.7753
25.213
25.6244
26.0145
26.3877
26.7478
27.0979
27.4408
27.7787
28.1137
28.4474
28.7824
29.1203
29.4586
29.8424
5.2423
5.56004
6.00443
6.49348
6.98572
7.46195
7.91309
8.33481
8.72546
9.08488
9.41382
9.71362
9.98598
10.2328
10.4561
10.6579
10.8402
11.005
11.1541
11.2892
11.412
11.524
11.6265
11.7209
11.8082
11.8894
11.9654
12.0368
12.1042
12.1679
12.2274
12.2836
12.3332
5.17349
5.18677
5.26821
5.39776
5.55638
5.72969
5.9078
6.0843
6.25515
6.41791
6.57121
6.71433
6.84705
6.96943
7.08173
7.18437
7.27785
7.36272
7.43955
7.50894
7.57147
7.62771
7.67822
7.72353
7.76413
7.80048
7.83301
7.86213
7.88818
7.91148
7.93228
7.95082
7.9672
5.16878
5.12131
5.09602
5.09481
5.11536
5.15307
5.20299
5.26075
5.32292
5.38692
5.45087
5.51347
5.57378
5.63119
5.68531
5.73592
5.78293
5.82631
5.86613
5.90249
5.93553
5.96542
5.99232
6.01643
6.03793
6.057
6.07385
6.08864
6.10156
6.11277
6.12244
6.13068
6.13769
5.16887
5.11169
5.06116
5.01963
4.9884
4.96754
4.95615
4.95279
4.95586
4.96385
4.97541
4.98943
5.00499
5.02138
5.03803
5.05451
5.0705
5.08576
5.10013
5.11348
5.12575
5.13689
5.14691
5.1558
5.16359
5.17033
5.17605
5.18081
5.18467
5.1877
5.18995
5.19147
5.19234
5.16902
5.11063
5.05514
5.00339
4.95619
4.91413
4.87747
4.84611
4.81972
4.7978
4.77979
4.76509
4.75314
4.74345
4.73556
4.7291
4.72372
4.71916
4.7152
4.71164
4.70835
4.70519
4.70208
4.69895
4.69573
4.69239
4.6889
4.68525
4.68142
4.67741
4.67322
4.66887
4.66434
5.16904
5.11054
5.05431
5.00049
4.94927
4.9009
4.85559
4.81346
4.77455
4.73881
4.7061
4.67623
4.64895
4.62404
4.60124
4.58031
4.56104
4.54321
4.52664
4.51117
4.49665
4.48295
4.46996
4.45759
4.44576
4.43439
4.42344
4.41283
4.40255
4.39255
4.3828
4.37328
4.36396
5.16904
5.11054
5.0542
5.00002
4.94795
4.89803
4.85027
4.80471
4.76138
4.72028
4.68139
4.64466
4.61001
4.57736
4.54659
4.5176
4.49025
4.46442
4.44001
4.4169
4.39498
4.37415
4.35433
4.33542
4.31736
4.30007
4.28349
4.26757
4.25226
4.2375
4.22328
4.20953
4.19624
5.16904
5.11053
5.05418
4.99994
4.94772
4.89747
4.84913
4.80265
4.75799
4.71514
4.67406
4.63471
4.59705
4.56103
4.52661
4.49372
4.4623
4.43227
4.40358
4.37615
4.34992
4.32481
4.30076
4.27772
4.25561
4.2344
4.21401
4.19442
4.17556
4.15741
4.13991
4.12304
4.10675
5.16904
5.11052
5.05417
4.99991
4.94767
4.89735
4.84888
4.80218
4.75719
4.71385
4.6721
4.63189
4.59318
4.55592
4.52006
4.48556
4.45237
4.42044
4.38972
4.36017
4.33174
4.30439
4.27806
4.25271
4.2283
4.20478
4.18211
4.16026
4.13919
4.11886
4.09924
4.0803
4.062
5.16904
5.11052
5.05416
4.99989
4.94764
4.89731
4.84881
4.80206
4.75699
4.71352
4.67159
4.63114
4.5921
4.55444
4.51809
4.48301
4.44915
4.41648
4.38493
4.35448
4.32508
4.2967
4.26929
4.24282
4.21725
4.19255
4.16868
4.14562
4.12332
4.10177
4.08092
4.06077
4.04126
5.16903
5.11051
5.05415
4.99988
4.94762
4.89728
4.84876
4.802
4.7569
4.7134
4.67142
4.63091
4.59178
4.554
4.5175
4.48224
4.44816
4.41522
4.38338
4.35259
4.32281
4.29401
4.26616
4.23921
4.21313
4.1879
4.16347
4.13983
4.11694
4.09477
4.07331
4.05252
4.03237
5.16903
5.11051
5.05414
4.99987
4.9476
4.89725
4.84873
4.80196
4.75685
4.71333
4.67134
4.6308
4.59165
4.55383
4.51728
4.48196
4.44781
4.41479
4.38285
4.35194
4.32204
4.29309
4.26507
4.23793
4.21165
4.1862
4.16155
4.13766
4.11451
4.09207
4.07032
4.04924
4.02879
5.16903
5.11051
5.05413
4.99986
4.94758
4.89723
4.8487
4.80192
4.7568
4.71328
4.67127
4.63072
4.59155
4.55372
4.51716
4.48182
4.44764
4.41459
4.38261
4.35167
4.32171
4.29271
4.26463
4.23743
4.21108
4.18554
4.1608
4.13681
4.11356
4.09101
4.06914
4.04793
4.02735
5.16903
5.1105
5.05413
4.99985
4.94757
4.89721
4.84867
4.80189
4.75676
4.71323
4.67121
4.63065
4.59147
4.55363
4.51706
4.4817
4.44752
4.41445
4.38245
4.35149
4.32152
4.2925
4.26439
4.23716
4.21078
4.18522
4.16043
4.13641
4.11311
4.09051
4.06859
4.04733
4.02669
5.16903
5.1105
5.05412
4.99984
4.94756
4.89719
4.84865
4.80186
4.75672
4.71318
4.67116
4.63059
4.5914
4.55355
4.51697
4.4816
4.4474
4.41433
4.38232
4.35135
4.32136
4.29233
4.26421
4.23697
4.21057
4.18498
4.16018
4.13614
4.11282
4.0902
4.06825
4.04696
4.0263
5.16903
5.1105
5.05412
4.99983
4.94755
4.89718
4.84863
4.80183
4.75669
4.71314
4.67111
4.63053
4.59134
4.55348
4.51688
4.48151
4.4473
4.41422
4.3822
4.35122
4.32122
4.29218
4.26405
4.23679
4.21038
4.18479
4.15997
4.13591
4.11258
4.08994
4.06798
4.04667
4.02598
5.16903
5.1105
5.05411
4.99982
4.94754
4.89716
4.84861
4.80181
4.75666
4.71311
4.67107
4.63048
4.59128
4.55341
4.51681
4.48143
4.44721
4.41411
4.38209
4.3511
4.32109
4.29204
4.26389
4.23663
4.21021
4.1846
4.15977
4.1357
4.11235
4.0897
4.06773
4.0464
4.0257
5.16903
5.1105
5.05411
4.99982
4.94753
4.89715
4.8486
4.80178
4.75663
4.71307
4.67103
4.63043
4.59123
4.55335
4.51674
4.48135
4.44713
4.41402
4.38199
4.35098
4.32097
4.2919
4.26375
4.23648
4.21005
4.18443
4.15959
4.1355
4.11214
4.08948
4.06749
4.04615
4.02544
5.16903
5.11049
5.05411
4.99981
4.94752
4.89714
4.84858
4.80177
4.75661
4.71304
4.67099
4.63039
4.59118
4.55329
4.51668
4.48128
4.44705
4.41393
4.38189
4.35088
4.32086
4.29178
4.26362
4.23633
4.20989
4.18426
4.15941
4.13532
4.11194
4.08927
4.06727
4.04592
4.02519
5.16903
5.11049
5.05411
4.99981
4.94752
4.89713
4.84857
4.80175
4.75659
4.71302
4.67096
4.63036
4.59114
4.55324
4.51662
4.48121
4.44697
4.41385
4.3818
4.35078
4.32075
4.29167
4.26349
4.2362
4.20975
4.18411
4.15925
4.13514
4.11176
4.08907
4.06706
4.04569
4.02495
5.16903
5.11049
5.0541
4.99981
4.94751
4.89712
4.84856
4.80174
4.75657
4.713
4.67093
4.63032
4.5911
4.5532
4.51657
4.48116
4.44691
4.41378
4.38172
4.35069
4.32065
4.29156
4.26338
4.23607
4.20961
4.18396
4.15909
4.13497
4.11158
4.08888
4.06686
4.04548
4.02472
5.16903
5.11049
5.0541
4.9998
4.94751
4.89712
4.84855
4.80172
4.75656
4.71298
4.67091
4.63029
4.59106
4.55316
4.51652
4.4811
4.44685
4.41371
4.38165
4.35061
4.32056
4.29146
4.26327
4.23596
4.20949
4.18383
4.15895
4.13482
4.11141
4.0887
4.06667
4.04528
4.02451
5.16903
5.11049
5.0541
4.9998
4.9475
4.89711
4.84854
4.80171
4.75654
4.71296
4.67089
4.63027
4.59103
4.55312
4.51648
4.48106
4.4468
4.41365
4.38158
4.35054
4.32048
4.29137
4.26318
4.23585
4.20937
4.1837
4.15881
4.13468
4.11126
4.08854
4.06649
4.04509
4.02432
5.16903
5.11049
5.0541
4.9998
4.9475
4.89711
4.84854
4.8017
4.75653
4.71294
4.67087
4.63024
4.591
4.55309
4.51644
4.48101
4.44675
4.4136
4.38152
4.35047
4.32041
4.29129
4.26309
4.23576
4.20927
4.18359
4.15869
4.13454
4.11112
4.08839
4.06633
4.04492
4.02413
5.16903
5.11049
5.0541
4.9998
4.9475
4.89711
4.84853
4.8017
4.75653
4.71294
4.67086
4.63023
4.59099
4.55307
4.51642
4.48099
4.44671
4.41356
4.38148
4.35042
4.32035
4.29122
4.26301
4.23567
4.20918
4.18349
4.15858
4.13443
4.11099
4.08825
4.06619
4.04477
4.02397
5.16903
5.11049
5.0541
4.9998
4.9475
4.8971
4.84853
4.80169
4.75651
4.71292
4.67084
4.63021
4.59096
4.55304
4.51639
4.48095
4.44667
4.41351
4.38142
4.35036
4.32029
4.29116
4.26294
4.23559
4.20909
4.1834
4.15848
4.13432
4.11088
4.08813
4.06606
4.04463
4.02382
5.16903
5.11049
5.0541
4.9998
4.9475
4.89711
4.84853
4.8017
4.75653
4.71293
4.67085
4.63022
4.59097
4.55305
4.51639
4.48095
4.44667
4.41351
4.38141
4.35035
4.32026
4.29113
4.2629
4.23555
4.20904
4.18334
4.15842
4.13425
4.1108
4.08805
4.06596
4.04453
4.02371
5.16903
5.11049
5.0541
4.9998
4.9475
4.8971
4.84853
4.80169
4.75651
4.71291
4.67083
4.6302
4.59095
4.55302
4.51636
4.48092
4.44664
4.41348
4.38138
4.35031
4.32023
4.29109
4.26287
4.23552
4.209
4.1833
4.15838
4.1342
4.11075
4.088
4.06591
4.04447
4.02366
5.16903
5.11049
5.0541
4.99981
4.94752
4.89714
4.84858
4.80176
4.75659
4.71301
4.67093
4.6303
4.59105
4.55313
4.51647
4.48103
4.44675
4.41358
4.38149
4.35042
4.32034
4.2912
4.26298
4.23563
4.20912
4.18343
4.15851
4.13434
4.1109
4.08816
4.06609
4.04466
4.02386
5.16903
5.11051
5.05414
4.99985
4.94756
4.89718
4.84861
4.80178
4.75661
4.71302
4.67095
4.63033
4.5911
4.55319
4.51655
4.48113
4.44688
4.41375
4.38169
4.35067
4.32063
4.29155
4.26338
4.23609
4.20965
4.18402
4.15918
4.13509
4.11174
4.08908
4.0671
4.04577
4.02507
5.16903
5.1105
5.05415
4.99992
4.9477
4.89739
4.8489
4.80214
4.75704
4.71352
4.67151
4.63097
4.59181
4.554
4.51748
4.48219
4.44808
4.41512
4.38325
4.35243
4.32262
4.29379
4.26589
4.23889
4.21275
4.18745
4.16295
4.13921
4.11622
4.09395
4.07236
4.05143
4.03114
5.16905
5.11063
5.05441
5.00026
4.9481
4.89786
4.84947
4.80288
4.75802
4.71482
4.67323
4.63318
4.59462
4.55748
4.52172
4.48727
4.45409
4.42212
4.39131
4.36162
4.333
4.3054
4.27879
4.25311
4.22833
4.20441
4.18132
4.15901
4.13746
4.11664
4.09651
4.07705
4.05822
5.16908
5.11079
5.05488
5.00136
4.95017
4.9012
4.8544
4.80972
4.7671
4.72648
4.6878
4.65097
4.61593
4.58257
4.55082
4.52058
4.49179
4.46434
4.43817
4.4132
4.38935
4.36657
4.34477
4.32391
4.30393
4.28477
4.26639
4.24874
4.23178
4.21547
4.19976
4.18464
4.17006
5.16939
5.11358
5.06201
5.01464
4.97149
4.93248
4.89746
4.86613
4.8382
4.81334
4.79122
4.77154
4.75401
4.73838
4.72442
4.71191
4.70066
4.69052
4.68134
4.67299
4.66536
4.65835
4.65188
4.64586
4.64024
4.63497
4.62998
4.62523
4.6207
4.61635
4.61215
4.60807
4.6041
5.17808
5.16329
5.16949
5.19115
5.2243
5.26593
5.31363
5.36553
5.4202
5.47655
5.53375
5.59113
5.64821
5.70459
5.75997
5.81414
5.86694
5.91826
5.96801
6.01614
6.06265
6.10751
6.15074
6.19236
6.23239
6.27088
6.30786
6.34338
6.37748
6.41021
6.44163
6.47178
6.50073
5.63861
6.43046
7.14595
7.82592
8.49523
9.14789
9.77801
10.3833
10.9635
11.5195
12.0528
12.5649
13.0574
13.5316
13.9889
14.4302
14.8568
15.2693
15.6687
16.0555
16.4304
16.794
17.1467
17.489
17.8213
18.1441
18.4577
18.7625
19.0588
19.347
19.6272
19.9
20.1654
44.7794
48.3124
51.8864
55.4656
59.0311
62.5709
66.0743
69.5318
72.9344
76.2744
79.5449
82.7401
85.8551
88.8859
91.8292
94.6828
97.4449
100.114
102.691
105.174
107.565
109.864
112.073
114.193
116.225
118.172
120.036
121.818
123.522
125.15
126.703
128.185
129.6
705.27
836.522
940.943
1022.77
1086.74
1132.28
1156.96
1159.36
1140.89
1105.58
1058.86
1006.26
952.376
900.325
851.802
807.384
766.957
730.092
696.308
665.194
636.449
609.852
585.229
562.411
541.216
521.446
502.885
485.314
468.522
452.308
436.493
420.918
405.446
389.964
374.378
358.617
342.631
326.392
309.894
293.156
276.22
259.15
242.035
224.981
208.116
191.576
175.506
160.053
145.355
131.537
118.703
106.933
96.2756
86.7474
78.336
71.0007
64.6776
59.2849
54.7285
50.9066
47.7141
45.0453
42.7959
40.864
39.1519
37.567
36.0235
34.4455
32.769
30.9457
28.9448
26.7565
24.3926
21.8877
19.2976
16.6964
14.1705
11.8095
9.69399
7.88311
6.40464
5.25245
4.39251
3.77475
3.34536
3.05549
2.8652
2.744
2.66969
2.62662
2.60409
2.59496
2.59465
2.6003
2.6103
2.62366
2.64007
2.65944
2.67932
2.71626
146.766
153.615
163.89
178.845
199.471
226.601
260.359
299.979
343.756
389.178
433.234
472.885
505.561
529.57
544.294
550.158
548.372
540.579
528.515
513.74
497.5
480.679
463.837
447.282
431.145
415.448
400.158
385.214
370.544
356.077
341.743
327.477
313.219
298.919
284.536
270.045
255.435
240.712
225.902
211.05
196.22
181.495
166.971
152.759
138.976
125.741
113.17
101.369
90.4263
80.411
71.3655
63.3054
56.2197
50.073
44.8094
40.358
36.6385
33.566
31.0558
29.0253
27.3964
26.0953
25.0519
24.1994
23.473
22.8105
22.1524
21.4442
20.6387
19.6992
18.6024
17.3415
15.9278
14.3908
12.7771
11.1462
9.56416
8.09498
6.79151
5.6875
4.79399
4.10115
3.5845
3.2126
2.95352
2.77881
2.66509
2.59419
2.55259
2.53054
2.52128
2.52023
2.52448
2.53221
2.54251
2.55487
2.56926
2.58582
2.60273
2.63421
30.2083
30.6367
31.2939
32.3639
34.0162
36.2724
39.3934
43.7041
49.5643
57.3265
67.2785
79.5735
94.1635
110.755
128.804
147.561
166.151
183.685
199.37
212.602
223.012
230.48
235.095
237.103
236.839
234.667
230.936
225.954
219.972
213.184
205.739
197.743
189.279
180.412
171.196
161.687
151.942
142.026
132.009
121.972
112.003
102.196
92.648
83.4567
74.7145
66.5051
58.899
51.949
45.6884
40.1288
35.2612
31.0578
27.4755
24.4605
21.9529
19.8908
18.2142
16.8673
15.7995
14.966
14.327
13.8469
13.4922
13.2309
13.0307
12.8587
12.6811
12.4649
12.1792
11.7982
11.3045
10.6911
9.96404
9.14248
8.25751
7.34878
6.45934
5.62955
4.89126
4.26393
3.75373
3.35544
3.05623
2.83959
2.68847
2.58728
2.52275
2.48429
2.46375
2.45511
2.45411
2.45786
2.46449
2.4729
2.4826
2.49336
2.50538
2.51888
2.53264
2.55831
12.3872
12.4608
12.5546
12.6747
12.8381
13.0553
13.3302
13.6897
14.1723
14.826
15.7069
16.8783
18.4079
20.3648
22.8141
25.8079
29.3748
33.5077
38.154
43.2117
48.5322
53.9313
59.2062
64.1545
68.5923
72.3689
75.3746
77.5438
78.8522
79.3106
78.9571
77.8493
76.0574
73.6592
70.7362
67.372
63.6507
59.6567
55.4742
51.1864
46.8743
42.6155
38.4817
34.5368
30.8346
27.4169
24.3122
21.5354
19.0884
16.9617
15.1367
13.5882
12.2877
11.2056
10.313
9.58327
8.99283
8.52117
8.15084
7.86699
7.65683
7.50885
7.41211
7.35538
7.32639
7.31134
7.29469
7.25954
7.18867
7.06618
6.87964
6.62223
6.29445
5.90492
5.4698
5.01083
4.5522
4.11693
3.72366
3.38458
3.10492
2.88389
2.71633
2.59459
2.51017
2.45479
2.42108
2.40292
2.39544
2.39493
2.39873
2.40497
2.41251
2.42066
2.42918
2.43803
2.44752
2.45788
2.46848
2.48825
7.98391
8.00187
8.01931
8.03649
8.05488
8.07771
8.10606
8.14222
8.19033
8.25595
8.34595
8.46843
8.63248
8.84794
9.12499
9.47363
9.903
10.4206
11.0315
11.7371
12.5346
13.416
14.3673
15.3685
16.3932
17.4103
18.3846
19.2797
20.0601
20.6937
21.154
21.4219
21.4864
21.3451
21.0041
20.4769
19.7837
18.9496
18.0036
16.9765
15.8996
14.8032
13.7149
12.6589
11.6547
10.717
9.8556
9.07576
8.37877
7.76278
7.22373
6.75606
6.35349
6.00951
5.71781
5.47251
5.26832
5.10061
4.96537
4.85912
4.77879
4.72153
4.68441
4.66414
4.65675
4.65724
4.65943
4.65592
4.63848
4.59875
4.52932
4.42499
4.284
4.10874
3.9058
3.68526
3.45914
3.23957
3.03706
2.85922
2.71029
2.59129
2.50068
2.43522
2.39077
2.36302
2.3479
2.34186
2.34198
2.34599
2.35218
2.35936
2.36679
2.37404
2.38105
2.38783
2.39477
2.40206
2.40962
2.42358
6.14412
6.14922
6.15215
6.15322
6.15273
6.15114
6.14876
6.14612
6.14392
6.14308
6.14472
6.15015
6.16093
6.17879
6.20562
6.24334
6.29381
6.35865
6.43911
6.53587
6.64898
6.77766
6.92029
7.07427
7.23608
7.40125
7.56446
7.71978
7.86085
7.98123
8.0748
8.13608
8.16065
8.1454
8.08879
7.99093
7.85358
7.68003
7.47486
7.24364
6.99258
6.72815
6.45671
6.18423
5.91598
5.65641
5.40907
5.17652
4.96049
4.7619
4.581
4.41755
4.27092
4.14022
4.02444
3.92252
3.8334
3.75612
3.68981
3.63367
3.58702
3.54919
3.51946
3.49693
3.4804
3.46824
3.45817
3.44732
3.43218
3.40894
3.37386
3.3239
3.25736
3.1744
3.07724
2.97005
2.85829
2.74793
2.64454
2.55255
2.47481
2.41251
2.36542
2.33217
2.31078
2.29895
2.29442
2.29509
2.2992
2.30529
2.31226
2.31932
2.32598
2.33195
2.33725
2.34193
2.34639
2.35075
2.35544
2.36386
5.19245
5.19134
5.18879
5.18479
5.17932
5.17241
5.16416
5.15476
5.14444
5.1334
5.12186
5.11004
5.09824
5.08676
5.07599
5.06636
5.0583
5.05225
5.04863
5.04774
5.04977
5.05473
5.06243
5.07245
5.08412
5.09654
5.1086
5.11902
5.12635
5.12913
5.12587
5.11519
5.09588
5.067
5.0279
4.97833
4.91838
4.84856
4.76972
4.68301
4.58983
4.49175
4.39038
4.28736
4.18424
4.08242
3.98311
3.8873
3.79577
3.70905
3.62746
3.55113
3.48006
3.4141
3.35303
3.2966
3.24453
3.19653
3.15238
3.11187
3.07482
3.0411
3.01056
2.98302
2.95818
2.93557
2.91449
2.89394
2.8726
2.84893
2.82132
2.78832
2.74892
2.70289
2.6509
2.59457
2.53627
2.4788
2.42492
2.37697
2.3366
2.30464
2.28113
2.26548
2.25666
2.2534
2.25436
2.25829
2.26403
2.27064
2.27735
2.28361
2.28907
2.29353
2.29704
2.29964
2.30175
2.30338
2.30541
2.30865
4.6588
4.65189
4.64416
4.63554
4.62603
4.61565
4.60439
4.59227
4.57933
4.56561
4.55114
4.53596
4.52009
4.50358
4.48645
4.46879
4.45065
4.43215
4.41338
4.39446
4.37547
4.35649
4.33755
4.31861
4.29959
4.28033
4.2606
4.24012
4.21854
4.19549
4.17058
4.14343
4.11368
4.08106
4.04535
4.00644
3.96433
3.91914
3.8711
3.82054
3.76789
3.71364
3.6583
3.60242
3.54653
3.49112
3.43662
3.38339
3.33172
3.28179
3.23372
3.18754
3.14323
3.1007
3.05984
3.02052
2.98259
2.94593
2.91045
2.87606
2.84272
2.81044
2.77921
2.74906
2.72
2.69198
2.66487
2.63845
2.61233
2.58604
2.55902
2.53072
2.50074
2.46895
2.4356
2.40135
2.36722
2.33446
2.30437
2.27809
2.25646
2.23991
2.22845
2.22175
2.21919
2.22
2.22334
2.22837
2.23429
2.24044
2.24625
2.25129
2.25531
2.25815
2.25985
2.26046
2.26036
2.25945
2.25907
2.25754
4.35329
4.341
4.32837
4.31534
4.30187
4.28792
4.27346
4.25849
4.24302
4.22705
4.21057
4.19358
4.17605
4.15796
4.13929
4.12001
4.1001
4.07956
4.05839
4.03659
4.01418
3.9912
3.96765
3.94356
3.91894
3.89378
3.86806
3.84175
3.81478
3.7871
3.75861
3.72924
3.69893
3.6676
3.63522
3.60178
3.5673
3.53185
3.49552
3.45845
3.42079
3.38274
3.34449
3.30624
3.26819
3.23051
3.19335
3.15681
3.12098
3.0859
3.05154
3.01789
2.98485
2.95235
2.92028
2.88853
2.857
2.8256
2.79427
2.76298
2.73171
2.70051
2.66942
2.63854
2.60796
2.57779
2.54812
2.519
2.49046
2.46246
2.43493
2.40779
2.381
2.35459
2.32873
2.30374
2.2801
2.25837
2.23915
2.22293
2.21007
2.20074
2.19486
2.19216
2.19221
2.19447
2.19833
2.20317
2.20842
2.21353
2.21807
2.22168
2.22414
2.22532
2.22526
2.22396
2.22181
2.21859
2.21602
2.21015
4.18124
4.1643
4.14728
4.13014
4.11284
4.09535
4.07766
4.05975
4.04161
4.02324
4.0046
3.9857
3.9665
3.94699
3.92711
3.90686
3.88618
3.86505
3.84345
3.82135
3.79873
3.7756
3.75194
3.72777
3.70309
3.67792
3.65227
3.62614
3.59956
3.57252
3.54505
3.51715
3.48883
3.46011
3.43101
3.40155
3.37179
3.34178
3.31156
3.28122
3.25083
3.22048
3.19024
3.1602
3.13041
3.10094
3.0718
3.04303
3.01459
2.98647
2.95859
2.9309
2.90329
2.87568
2.84795
2.82002
2.7918
2.76322
2.73424
2.70482
2.675
2.64481
2.61432
2.58364
2.5529
2.52225
2.49186
2.46189
2.4325
2.40384
2.37605
2.34927
2.3236
2.29921
2.27627
2.25501
2.23567
2.21854
2.20388
2.19188
2.18268
2.17625
2.17247
2.17107
2.17171
2.17394
2.17728
2.18124
2.18533
2.18911
2.19219
2.19427
2.19515
2.19469
2.19292
2.18983
2.18579
2.18046
2.17593
2.16616
4.08843
4.06785
4.04731
4.0268
4.00629
3.98576
3.96519
3.94457
3.9239
3.90316
3.88235
3.86145
3.84046
3.81934
3.79807
3.77664
3.75501
3.73315
3.71105
3.68866
3.66597
3.64297
3.61964
3.59598
3.57198
3.54765
3.52301
3.49806
3.47282
3.44732
3.42157
3.39561
3.36946
3.34316
3.31674
3.29024
3.2637
3.23717
3.21068
3.18428
3.15801
3.13192
3.10603
3.08037
3.05496
3.02978
3.00483
2.98009
2.95549
2.93098
2.90648
2.8819
2.85716
2.83215
2.80678
2.78097
2.75464
2.72773
2.70021
2.67207
2.64333
2.61404
2.58429
2.55417
2.52383
2.49344
2.46317
2.43323
2.40382
2.37516
2.34746
2.32093
2.29578
2.27219
2.25037
2.2305
2.21276
2.1973
2.18426
2.1737
2.16562
2.15994
2.15648
2.15499
2.15515
2.15658
2.15887
2.16158
2.16428
2.16659
2.16815
2.16869
2.168
2.16596
2.16258
2.15783
2.15204
2.14481
2.13851
2.12527
4.0414
4.01826
3.99521
3.97222
3.94929
3.92642
3.90358
3.88078
3.85801
3.83528
3.81257
3.78989
3.76722
3.74455
3.72188
3.69919
3.67646
3.65367
3.63081
3.60785
3.58477
3.56157
3.53823
3.51474
3.49109
3.46729
3.44334
3.41925
3.39503
3.3707
3.34628
3.32179
3.29725
3.2727
3.24817
3.22369
3.19928
3.17499
3.15083
3.12685
3.10305
3.07946
3.05609
3.03293
3.00998
2.98721
2.96458
2.94205
2.91956
2.89703
2.87438
2.85153
2.82838
2.80484
2.78082
2.75626
2.73107
2.70522
2.67868
2.65145
2.62355
2.59504
2.56599
2.53652
2.50676
2.47688
2.44706
2.4175
2.38844
2.36008
2.33268
2.30645
2.28162
2.25841
2.23701
2.21759
2.20031
2.18528
2.17255
2.16215
2.15402
2.14806
2.14407
2.14181
2.14098
2.14125
2.14222
2.14352
2.14476
2.14557
2.14563
2.14466
2.14247
2.13894
2.13405
2.12775
2.12038
2.11142
2.10354
2.0872
4.01927
3.99455
3.96989
3.94529
3.92076
3.89629
3.87187
3.84752
3.82322
3.799
3.77484
3.75075
3.72673
3.70278
3.6789
3.65507
3.6313
3.60758
3.58389
3.56022
3.53656
3.51291
3.48925
3.46558
3.4419
3.4182
3.39449
3.37078
3.34706
3.32335
3.29967
3.27604
3.25246
3.22897
3.20558
3.18232
3.1592
3.13625
3.1135
3.09094
3.06859
3.04645
3.02452
3.00278
2.98122
2.95979
2.93845
2.91715
2.89581
2.87438
2.85276
2.83087
2.80862
2.78592
2.76271
2.7389
2.71444
2.6893
2.66344
2.63687
2.60963
2.58176
2.55334
2.52448
2.49532
2.46601
2.43673
2.40768
2.37907
2.35114
2.3241
2.29819
2.27363
2.25063
2.22939
2.21006
2.19279
2.17764
2.16468
2.1539
2.14521
2.13852
2.13362
2.1303
2.12827
2.12722
2.1268
2.12666
2.12643
2.12577
2.12437
2.12197
2.11837
2.11343
2.10714
2.09943
2.09061
2.0801
2.07081
2.05175
4.00964
3.98403
3.95846
3.93293
3.90745
3.88201
3.85662
3.83128
3.806
3.78079
3.75565
3.73058
3.70561
3.68072
3.65592
3.63122
3.60661
3.58209
3.55767
3.53333
3.50907
3.4849
3.46081
3.43679
3.41284
3.38898
3.3652
3.3415
3.31789
3.29438
3.27099
3.24771
3.22458
3.20159
3.17878
3.15614
3.1337
3.11146
3.08944
3.06764
3.04606
3.02469
3.00352
2.98253
2.9617
2.94097
2.9203
2.89963
2.87891
2.85804
2.83696
2.81559
2.79384
2.77162
2.74888
2.72554
2.70155
2.67689
2.65152
2.62546
2.59873
2.5714
2.54353
2.51523
2.48662
2.45786
2.42912
2.40058
2.37245
2.34495
2.31829
2.29269
2.26836
2.24552
2.22433
2.20494
2.18749
2.17204
2.15863
2.14724
2.1378
2.1302
2.12427
2.11978
2.11648
2.11409
2.11227
2.11071
2.10905
2.10699
2.10421
2.10046
2.09554
2.08931
2.08174
2.07274
2.06261
2.05071
2.04016
2.0187
4.00569
3.97965
3.95361
3.9276
3.90161
3.87565
3.84972
3.82383
3.79798
3.77218
3.74644
3.72078
3.69519
3.66968
3.64427
3.61896
3.59375
3.56865
3.54366
3.51879
3.49403
3.46939
3.44487
3.42047
3.3962
3.37205
3.34805
3.32418
3.30046
3.2769
3.2535
3.23028
3.20725
3.18441
3.16178
3.13937
3.11719
3.09523
3.07351
3.05203
3.03077
3.00974
2.9889
2.96823
2.9477
2.92727
2.90689
2.8865
2.86604
2.84543
2.8246
2.80347
2.78196
2.76001
2.73754
2.71449
2.69081
2.66648
2.64148
2.61581
2.58951
2.56262
2.53523
2.50742
2.47932
2.45107
2.42282
2.39477
2.3671
2.34001
2.3137
2.2884
2.26428
2.24155
2.22036
2.20086
2.18316
2.16733
2.15339
2.14133
2.13108
2.12253
2.11553
2.10986
2.10531
2.10159
2.09842
2.09549
2.09249
2.08909
2.08501
2.08001
2.07388
2.06646
2.05772
2.04755
2.03625
2.0231
2.01145
1.98787
4.00409
3.97784
3.9516
3.92536
3.89912
3.8729
3.8467
3.82051
3.79436
3.76825
3.74218
3.71617
3.69023
3.66436
3.63857
3.61287
3.58727
3.56178
3.5364
3.51114
3.486
3.461
3.43612
3.41139
3.38681
3.36238
3.33811
3.31401
3.29009
3.26636
3.24282
3.21948
3.19636
3.17346
3.1508
3.12838
3.1062
3.08427
3.06259
3.04115
3.01994
2.99896
2.97818
2.95757
2.9371
2.91673
2.8964
2.87606
2.85565
2.8351
2.81434
2.79329
2.77189
2.75005
2.72772
2.70485
2.68138
2.65729
2.63257
2.60723
2.58128
2.55478
2.5278
2.50043
2.47278
2.445
2.41721
2.38961
2.36236
2.33565
2.30967
2.28463
2.26069
2.23805
2.21684
2.1972
2.17923
2.163
2.14852
2.13578
2.12471
2.11522
2.10716
2.10035
2.09458
2.0896
2.08513
2.08091
2.07662
2.07197
2.06669
2.06052
2.05327
2.04477
2.03497
2.02375
2.01142
1.99717
1.98454
1.95912
4.00336
3.97702
3.95068
3.92433
3.89798
3.87164
3.8453
3.81898
3.79268
3.7664
3.74016
3.71396
3.68782
3.66174
3.63573
3.6098
3.58396
3.55822
3.53258
3.50706
3.48166
3.45638
3.43124
3.40625
3.38141
3.35673
3.33222
3.30788
3.28374
3.2598
3.23606
3.21254
3.18925
3.1662
3.14338
3.12082
3.09852
3.07647
3.05467
3.03313
3.01182
2.99074
2.96986
2.94915
2.92859
2.90813
2.88772
2.8673
2.84683
2.82623
2.80543
2.78436
2.76297
2.74117
2.71891
2.69614
2.67282
2.64891
2.62442
2.59934
2.57369
2.54753
2.52092
2.49395
2.46671
2.43935
2.41199
2.38479
2.35793
2.33157
2.3059
2.28109
2.25731
2.23473
2.21348
2.1937
2.17545
2.15881
2.1438
2.13039
2.11853
2.10813
2.09905
2.09114
2.0842
2.07801
2.07233
2.06687
2.06138
2.05557
2.04916
2.04192
2.03365
2.02417
2.01342
2.00127
1.98801
1.9728
1.95932
1.93231
4.00292
3.97655
3.95015
3.92375
3.89735
3.87094
3.84454
3.81814
3.79176
3.7654
3.73906
3.71276
3.68651
3.66031
3.63417
3.6081
3.5821
3.5562
3.53039
3.50469
3.4791
3.45363
3.42829
3.40309
3.37805
3.35316
3.32844
3.3039
3.27955
3.2554
3.23146
3.20774
3.18425
3.161
3.13799
3.11524
3.09275
3.07051
3.04853
3.0268
3.00532
2.98405
2.963
2.94212
2.92138
2.90076
2.88019
2.85963
2.83902
2.8183
2.79741
2.77628
2.75484
2.73303
2.7108
2.68809
2.66487
2.64111
2.6168
2.59194
2.56656
2.54071
2.51443
2.48781
2.46096
2.43398
2.40701
2.38019
2.35368
2.32764
2.30224
2.27764
2.254
2.23147
2.21018
2.19023
2.17172
2.15468
2.13914
2.12508
2.11246
2.10118
2.09114
2.08218
2.07413
2.06679
2.05995
2.05334
2.04672
2.03981
2.03237
2.02414
2.01494
2.00457
1.99298
1.98001
1.96595
1.9499
1.93568
1.90731
4.00259
3.97618
3.94976
3.92333
3.89688
3.87044
3.84399
3.81755
3.79112
3.76471
3.73832
3.71195
3.68563
3.65935
3.63312
3.60695
3.58086
3.55484
3.52891
3.50308
3.47735
3.45173
3.42624
3.40089
3.37567
3.35061
3.32572
3.30099
3.27646
3.25212
3.22798
3.20407
3.18038
3.15693
3.13372
3.11076
3.08806
3.06561
3.04342
3.02148
2.99977
2.9783
2.95703
2.93594
2.915
2.89417
2.87341
2.85267
2.8319
2.81104
2.79002
2.76879
2.74728
2.72544
2.7032
2.68053
2.65739
2.63375
2.6096
2.58494
2.5598
2.53421
2.50824
2.48195
2.45544
2.42881
2.4022
2.37573
2.34955
2.3238
2.29865
2.27424
2.25072
2.22823
2.20688
2.18677
2.16799
2.15056
2.13451
2.11983
2.10647
2.09436
2.08339
2.07343
2.06433
2.05591
2.04796
2.04026
2.03258
2.02466
2.01625
2.00712
1.99707
1.98592
1.97359
1.9599
1.94515
1.92839
1.91355
1.88402
4.00229
3.97586
3.94941
3.92295
3.89648
3.87001
3.84353
3.81706
3.79059
3.76414
3.7377
3.71129
3.68491
3.65857
3.63228
3.60604
3.57986
3.55376
3.52773
3.50179
3.47595
3.45022
3.4246
3.39911
3.37376
3.34855
3.3235
3.29862
3.27391
3.2494
3.22509
3.20099
3.17711
3.15346
3.13005
3.10689
3.08398
3.06132
3.03891
3.01675
2.99482
2.97312
2.95163
2.93032
2.90916
2.88812
2.86716
2.84623
2.82529
2.80427
2.78311
2.76177
2.74018
2.71829
2.69604
2.67339
2.65031
2.62676
2.60275
2.57827
2.55334
2.528
2.5023
2.47631
2.45012
2.42383
2.39754
2.37139
2.34551
2.32003
2.29511
2.27087
2.24745
2.22499
2.20357
2.18331
2.16425
2.14645
2.12991
2.11463
2.10057
2.08765
2.07579
2.06488
2.05478
2.04532
2.03633
2.02761
2.01893
2.01005
2.00075
1.99079
1.97998
1.96813
1.95515
1.94086
1.92553
1.90817
1.89282
1.86235
4.00201
3.97556
3.94909
3.92261
3.89611
3.86961
3.84311
3.8166
3.7901
3.76361
3.73714
3.71068
3.68426
3.65787
3.63152
3.60522
3.57897
3.55279
3.52668
3.50066
3.47472
3.44888
3.42316
3.39755
3.37207
3.34673
3.32154
3.29651
3.27166
3.24699
3.22251
3.19824
3.17418
3.15035
3.12675
3.10339
3.08027
3.0574
3.03478
3.0124
2.99026
2.96834
2.94662
2.92509
2.90372
2.88247
2.86131
2.84019
2.81907
2.79789
2.7766
2.75514
2.73347
2.71152
2.68924
2.66661
2.64357
2.62011
2.59622
2.5719
2.54717
2.52205
2.49661
2.4709
2.445
2.419
2.39302
2.36716
2.34156
2.31633
2.29161
2.26752
2.2442
2.22175
2.20026
2.17983
2.16051
2.14235
2.12534
2.10948
2.09474
2.08106
2.06835
2.05653
2.04546
2.03502
2.02503
2.01532
2.00569
1.99592
1.98579
1.97507
1.96358
1.95111
1.93759
1.92279
1.907
1.88917
1.87343
1.84221
4.00174
3.97527
3.94878
3.92228
3.89576
3.86923
3.8427
3.81617
3.78964
3.76311
3.7366
3.71011
3.68364
3.6572
3.6308
3.60444
3.57814
3.55189
3.5257
3.4996
3.47357
3.44765
3.42182
3.3961
3.37051
3.34505
3.31973
3.29457
3.26958
3.24476
3.22012
3.19569
3.17147
3.14746
3.12368
3.10013
3.07682
3.05376
3.03093
3.00834
2.98599
2.96386
2.94193
2.92019
2.89861
2.87716
2.8558
2.83449
2.8132
2.79186
2.77044
2.74887
2.72711
2.7051
2.6828
2.66017
2.63717
2.61379
2.59001
2.56583
2.54127
2.51636
2.49115
2.46569
2.44006
2.41434
2.38864
2.36305
2.3377
2.3127
2.28816
2.26422
2.24097
2.21853
2.19697
2.17638
2.15681
2.13828
2.12082
2.10441
2.08901
2.07459
2.06107
2.04835
2.03636
2.02495
2.014
2.00334
1.99279
1.98217
1.97126
1.95984
1.94774
1.93476
1.92078
1.9056
1.88947
1.87131
1.8553
1.82355
4.00149
3.975
3.94849
3.92196
3.89542
3.86887
3.84231
3.81575
3.78919
3.76264
3.73609
3.70956
3.68305
3.65657
3.63012
3.60371
3.57734
3.55103
3.52478
3.49859
3.47249
3.44648
3.42055
3.39474
3.36904
3.34347
3.31804
3.29275
3.26762
3.24266
3.21789
3.1933
3.16892
3.14475
3.1208
3.09707
3.07358
3.05033
3.02731
3.00453
2.98197
2.95964
2.93751
2.91556
2.89378
2.87214
2.85059
2.82911
2.80765
2.78617
2.76461
2.74293
2.72109
2.69902
2.67669
2.65406
2.63109
2.60777
2.58409
2.56005
2.53565
2.51093
2.48593
2.46071
2.43532
2.40986
2.38442
2.35908
2.33396
2.30917
2.28481
2.26099
2.23782
2.21537
2.19375
2.173
2.15317
2.1343
2.1164
2.09944
2.08341
2.06826
2.05392
2.04034
2.02741
2.01504
2.00312
1.99152
1.98008
1.96863
1.95698
1.94493
1.93231
1.9189
1.9046
1.88917
1.87284
1.8545
1.83837
1.80633
4.00125
3.97474
3.94821
3.92166
3.8951
3.86853
3.84195
3.81536
3.78877
3.76218
3.7356
3.70904
3.68249
3.65596
3.62947
3.603
3.57658
3.55021
3.52389
3.49764
3.47146
3.44537
3.41936
3.39345
3.36766
3.34198
3.31643
3.29103
3.26578
3.24069
3.21578
3.19105
3.16652
3.14219
3.11808
3.09419
3.07053
3.0471
3.0239
3.00093
2.97819
2.95566
2.93334
2.9112
2.88923
2.86741
2.84568
2.82404
2.80242
2.78079
2.75911
2.73733
2.7154
2.69327
2.67091
2.64828
2.62535
2.60209
2.57849
2.55457
2.53032
2.50578
2.48098
2.45597
2.43082
2.4056
2.3804
2.3553
2.3304
2.3058
2.28161
2.25791
2.2348
2.21236
2.19065
2.16975
2.14968
2.13047
2.11212