/*--------------------------------*- C++ -*----------------------------------*\
| =========                 |                                                 |
| \\      /  F ield         | OpenFOAM: The Open Source CFD Toolbox           |
|  \\    /   O peration     | Version:  2.1.1                                 |
|   \\  /    A nd           | Web:      www.OpenFOAM.org                      |
|    \\/     M anipulation  |                                                 |
\*---------------------------------------------------------------------------*/
FoamFile
{
    version     2.0;
    format      ascii;
    class       volScalarField;
    location    "0.135";
    object      k;
}
// * * * * * * * * * * * * * * * * * * * * * * * * * * * * * * * * * * * * * //

dimensions      [0 2 -2 0 0 0 0];

internalField   nonuniform List<scalar> 
6820
(
0.288909
0.351398
0.415005
0.477466
0.536861
0.591559
0.640375
0.682636
0.718136
0.747049
0.76982
0.787065
0.799484
0.807797
0.812694
0.81481
0.814707
0.812872
0.809717
0.805583
0.80075
0.795445
0.789849
0.784101
0.778314
0.772569
0.766928
0.761447
0.756092
0.751185
0.745253
0.745381
0.717392
0.265532
0.269396
0.270523
0.27134
0.272557
0.274212
0.276221
0.278469
0.280846
0.283267
0.285674
0.288038
0.290349
0.292613
0.294842
0.297056
0.299274
0.301515
0.303794
0.306124
0.308514
0.31097
0.313495
0.31609
0.318754
0.321486
0.324288
0.327166
0.330131
0.333239
0.336508
0.340409
0.344494
0.262038
0.264254
0.263596
0.261557
0.259001
0.256319
0.253628
0.250939
0.248241
0.245525
0.242795
0.240062
0.237346
0.234669
0.232052
0.229518
0.227085
0.224768
0.222579
0.220529
0.218622
0.216863
0.215254
0.213793
0.212479
0.21131
0.21028
0.209388
0.208628
0.208003
0.207499
0.207144
0.206873
0.259885
0.260272
0.259796
0.258535
0.256829
0.254891
0.252833
0.25071
0.248548
0.246359
0.244153
0.241937
0.239716
0.237498
0.235291
0.233101
0.230938
0.228807
0.226715
0.224669
0.222672
0.22073
0.218845
0.21702
0.215258
0.213559
0.211924
0.210353
0.208845
0.207401
0.206017
0.204695
0.203424
0.259299
0.258404
0.2576
0.256567
0.255295
0.25385
0.252292
0.250662
0.248985
0.247278
0.245553
0.243817
0.242077
0.240338
0.238605
0.236881
0.235172
0.233479
0.231807
0.230158
0.228535
0.22694
0.225375
0.223843
0.222344
0.22088
0.219451
0.218058
0.216702
0.215382
0.214099
0.212853
0.211646
0.259224
0.257848
0.256623
0.255437
0.254227
0.25297
0.251663
0.250313
0.24893
0.247523
0.246102
0.244672
0.243239
0.241807
0.240381
0.238962
0.237554
0.236159
0.234778
0.233415
0.23207
0.230745
0.229441
0.22816
0.226901
0.225666
0.224456
0.223271
0.222111
0.220978
0.21987
0.21879
0.217738
0.259217
0.257715
0.256309
0.25498
0.253698
0.252442
0.251196
0.249951
0.248705
0.247456
0.246206
0.244957
0.243711
0.242472
0.241239
0.240017
0.238805
0.237606
0.23642
0.23525
0.234095
0.232957
0.231837
0.230734
0.229651
0.228586
0.227542
0.226517
0.225512
0.224529
0.223566
0.222625
0.221706
0.259218
0.25769
0.256225
0.254822
0.253477
0.252181
0.250924
0.249696
0.248492
0.247307
0.246138
0.244983
0.243841
0.242713
0.241598
0.240497
0.239409
0.238337
0.237279
0.236237
0.23521
0.2342
0.233206
0.232229
0.231269
0.230327
0.229401
0.228493
0.227603
0.226731
0.225878
0.225043
0.224226
0.259218
0.257686
0.256207
0.25478
0.253405
0.25208
0.2508
0.24956
0.248357
0.247186
0.246043
0.244926
0.243832
0.24276
0.241707
0.240675
0.23966
0.238664
0.237686
0.236725
0.235782
0.234856
0.233947
0.233055
0.232179
0.231321
0.23048
0.229655
0.228847
0.228055
0.227281
0.226523
0.225783
0.259218
0.257686
0.256203
0.254769
0.253384
0.252045
0.250751
0.2495
0.248289
0.247115
0.245975
0.244868
0.24379
0.24274
0.241715
0.240715
0.239738
0.238784
0.23785
0.236936
0.236043
0.235168
0.234312
0.233474
0.232654
0.231852
0.231066
0.230298
0.229546
0.228811
0.228092
0.227389
0.226702
0.259218
0.257686
0.256202
0.254767
0.253378
0.252035
0.250735
0.249477
0.24826
0.247081
0.245938
0.24483
0.243755
0.242711
0.241695
0.240708
0.239747
0.238811
0.237899
0.237009
0.236142
0.235296
0.23447
0.233664
0.232877
0.232108
0.231357
0.230624
0.229909
0.22921
0.228527
0.227861
0.22721
0.259218
0.257685
0.256201
0.254766
0.253376
0.252031
0.250729
0.249469
0.248249
0.247066
0.245921
0.244811
0.243734
0.24269
0.241676
0.240692
0.239736
0.238806
0.237903
0.237024
0.236168
0.235335
0.234525
0.233735
0.232965
0.232215
0.231484
0.230771
0.230076
0.229399
0.228739
0.228095
0.227467
0.259218
0.257685
0.256201
0.254765
0.253375
0.25203
0.250727
0.249466
0.248244
0.24706
0.245913
0.244801
0.243723
0.242678
0.241663
0.240679
0.239724
0.238796
0.237895
0.237019
0.236168
0.23534
0.234536
0.233753
0.232991
0.23225
0.231528
0.230826
0.230142
0.229476
0.228828
0.228196
0.227581
0.259218
0.257685
0.256201
0.254764
0.253374
0.252028
0.250725
0.249464
0.248241
0.247057
0.245909
0.244796
0.243717
0.242671
0.241656
0.240671
0.239715
0.238787
0.237886
0.237011
0.236161
0.235335
0.234532
0.233752
0.232993
0.232255
0.231538
0.23084
0.23016
0.2295
0.228857
0.228231
0.227622
0.259218
0.257685
0.2562
0.254764
0.253374
0.252028
0.250724
0.249462
0.248239
0.247054
0.245906
0.244793
0.243713
0.242666
0.241651
0.240665
0.239709
0.23878
0.237879
0.237004
0.236153
0.235327
0.234525
0.233745
0.232987
0.23225
0.231534
0.230837
0.23016
0.229501
0.22886
0.228236
0.22763
0.259218
0.257685
0.2562
0.254764
0.253373
0.252027
0.250723
0.249461
0.248238
0.247052
0.245904
0.24479
0.24371
0.242663
0.241647
0.240661
0.239704
0.238775
0.237873
0.236997
0.236147
0.235321
0.234518
0.233738
0.23298
0.232243
0.231527
0.23083
0.230153
0.229494
0.228854
0.228231
0.227625
0.259218
0.257685
0.2562
0.254763
0.253373
0.252026
0.250722
0.24946
0.248236
0.247051
0.245902
0.244788
0.243708
0.24266
0.241643
0.240657
0.2397
0.23877
0.237868
0.236992
0.236141
0.235315
0.234511
0.233731
0.232973
0.232235
0.231519
0.230822
0.230145
0.229486
0.228845
0.228222
0.227615
0.259218
0.257684
0.2562
0.254763
0.253372
0.252026
0.250722
0.249459
0.248235
0.247049
0.2459
0.244786
0.243705
0.242657
0.24164
0.240654
0.239696
0.238766
0.237864
0.236987
0.236136
0.235309
0.234506
0.233725
0.232966
0.232228
0.231511
0.230814
0.230136
0.229477
0.228836
0.228212
0.227605
0.259218
0.257684
0.2562
0.254763
0.253372
0.252025
0.250721
0.249458
0.248234
0.247048
0.245898
0.244784
0.243703
0.242655
0.241638
0.240651
0.239693
0.238763
0.23786
0.236983
0.236131
0.235304
0.2345
0.233719
0.23296
0.232222
0.231504
0.230807
0.230128
0.229469
0.228827
0.228203
0.227596
0.259218
0.257684
0.2562
0.254762
0.253371
0.252025
0.25072
0.249457
0.248233
0.247047
0.245897
0.244782
0.243701
0.242652
0.241635
0.240648
0.23969
0.238759
0.237856
0.236979
0.236127
0.235299
0.234495
0.233714
0.232954
0.232216
0.231498
0.2308
0.230121
0.229461
0.228819
0.228194
0.227586
0.259218
0.257684
0.256199
0.254762
0.253371
0.252024
0.25072
0.249456
0.248232
0.247046
0.245896
0.244781
0.243699
0.24265
0.241633
0.240645
0.239687
0.238756
0.237853
0.236975
0.236123
0.235295
0.23449
0.233708
0.232948
0.23221
0.231491
0.230793
0.230114
0.229453
0.22881
0.228185
0.227577
0.259218
0.257684
0.256199
0.254762
0.253371
0.252024
0.250719
0.249456
0.248231
0.247045
0.245895
0.244779
0.243698
0.242649
0.241631
0.240643
0.239684
0.238753
0.23785
0.236972
0.236119
0.235291
0.234486
0.233704
0.232943
0.232204
0.231485
0.230787
0.230107
0.229446
0.228803
0.228177
0.227568
0.259218
0.257684
0.256199
0.254762
0.253371
0.252024
0.250719
0.249455
0.248231
0.247044
0.245894
0.244778
0.243696
0.242647
0.241629
0.240641
0.239682
0.238751
0.237847
0.236969
0.236116
0.235287
0.234482
0.233699
0.232938
0.232199
0.23148
0.230781
0.230101
0.229439
0.228795
0.228169
0.22756
0.259218
0.257684
0.256199
0.254762
0.253371
0.252023
0.250719
0.249455
0.24823
0.247043
0.245893
0.244777
0.243695
0.242646
0.241627
0.240639
0.23968
0.238748
0.237844
0.236966
0.236112
0.235283
0.234478
0.233695
0.232934
0.232194
0.231475
0.230775
0.230095
0.229433
0.228789
0.228162
0.227552
0.259218
0.257684
0.256199
0.254762
0.25337
0.252023
0.250718
0.249454
0.24823
0.247043
0.245892
0.244776
0.243694
0.242644
0.241626
0.240637
0.239678
0.238746
0.237842
0.236963
0.236109
0.23528
0.234474
0.233691
0.23293
0.23219
0.23147
0.23077
0.230089
0.229427
0.228782
0.228155
0.227545
0.259218
0.257684
0.256199
0.254762
0.25337
0.252023
0.250718
0.249454
0.248229
0.247042
0.245891
0.244775
0.243693
0.242643
0.241624
0.240636
0.239676
0.238744
0.237839
0.236961
0.236107
0.235277
0.234471
0.233688
0.232926
0.232185
0.231465
0.230765
0.230084
0.229421
0.228776
0.228149
0.227538
0.259218
0.257684
0.256199
0.254762
0.25337
0.252023
0.250718
0.249454
0.248229
0.247042
0.245891
0.244775
0.243692
0.242642
0.241623
0.240634
0.239674
0.238742
0.237837
0.236958
0.236104
0.235275
0.234468
0.233684
0.232922
0.232182
0.231461
0.23076
0.230079
0.229416
0.228771
0.228143
0.227532
0.259218
0.257684
0.256199
0.254762
0.25337
0.252023
0.250718
0.249454
0.248229
0.247041
0.24589
0.244774
0.243692
0.242641
0.241622
0.240633
0.239673
0.238741
0.237836
0.236957
0.236102
0.235272
0.234466
0.233682
0.232919
0.232178
0.231458
0.230757
0.230075
0.229411
0.228766
0.228138
0.227526
0.259218
0.257684
0.256199
0.254762
0.25337
0.252023
0.250718
0.249453
0.248228
0.247041
0.24589
0.244773
0.243691
0.242641
0.241621
0.240632
0.239672
0.23874
0.237834
0.236955
0.2361
0.23527
0.234463
0.233679
0.232917
0.232175
0.231454
0.230753
0.230071
0.229407
0.228761
0.228133
0.227521
0.259218
0.257684
0.256199
0.254762
0.25337
0.252023
0.250718
0.249454
0.248229
0.247041
0.24589
0.244774
0.243691
0.242641
0.241622
0.240632
0.239672
0.23874
0.237834
0.236954
0.2361
0.235269
0.234462
0.233678
0.232915
0.232174
0.231452
0.230751
0.230068
0.229404
0.228758
0.22813
0.227518
0.259218
0.257684
0.256199
0.254762
0.25337
0.252023
0.250718
0.249453
0.248228
0.247041
0.24589
0.244773
0.243691
0.24264
0.241621
0.240632
0.239672
0.238739
0.237833
0.236954
0.236099
0.235269
0.234461
0.233677
0.232914
0.232172
0.231451
0.230749
0.230067
0.229402
0.228756
0.228127
0.227515
0.259218
0.257684
0.256199
0.254762
0.253371
0.252024
0.25072
0.249456
0.248231
0.247044
0.245893
0.244777
0.243695
0.242644
0.241625
0.240636
0.239675
0.238742
0.237837
0.236957
0.236102
0.235271
0.234464
0.233679
0.232916
0.232174
0.231452
0.23075
0.230067
0.229403
0.228756
0.228127
0.227514
0.259218
0.257685
0.2562
0.254764
0.253373
0.252026
0.250721
0.249457
0.248232
0.247045
0.245895
0.244779
0.243696
0.242646
0.241627
0.240638
0.239678
0.238746
0.23784
0.23696
0.236105
0.235274
0.234467
0.233682
0.232918
0.232176
0.231454
0.230751
0.230067
0.229402
0.228754
0.228124
0.22751
0.259218
0.257685
0.256201
0.254766
0.253378
0.252033
0.250731
0.249469
0.248246
0.24706
0.24591
0.244795
0.243712
0.242662
0.241643
0.240653
0.239692
0.238759
0.237852
0.236971
0.236115
0.235283
0.234473
0.233686
0.232921
0.232176
0.231451
0.230746
0.230059
0.22939
0.228739
0.228106
0.227488
0.259219
0.257689
0.25621
0.254777
0.25339
0.252046
0.250744
0.249482
0.248259
0.247074
0.245924
0.244808
0.243726
0.242675
0.241655
0.240663
0.2397
0.238764
0.237853
0.236968
0.236107
0.235269
0.234453
0.23366
0.232887
0.232134
0.231401
0.230687
0.229991
0.229313
0.228652
0.228007
0.227379
0.25922
0.257694
0.256221
0.254799
0.253423
0.252089
0.250795
0.249539
0.248318
0.247131
0.245978
0.244857
0.243766
0.242706
0.241673
0.240668
0.23969
0.238737
0.237809
0.236905
0.236024
0.235165
0.234328
0.233511
0.232715
0.231939
0.231181
0.230443
0.229722
0.229018
0.228332
0.227662
0.227007
0.259229
0.257738
0.256292
0.254882
0.253509
0.252172
0.250871
0.249604
0.248368
0.247162
0.245985
0.244836
0.243715
0.24262
0.241551
0.240507
0.239488
0.238493
0.237521
0.236572
0.235645
0.23474
0.233855
0.232992
0.232148
0.231325
0.23052
0.229733
0.228965
0.228214
0.227481
0.226764
0.226063
0.259265
0.257822
0.256453
0.255125
0.253804
0.252482
0.251163
0.249854
0.24856
0.247289
0.246044
0.244826
0.243637
0.242478
0.241347
0.240245
0.239171
0.238123
0.237102
0.236105
0.235133
0.234184
0.233258
0.232354
0.231471
0.230609
0.229767
0.228944
0.228141
0.227356
0.226589
0.22584
0.225108
0.259599
0.258632
0.257578
0.256541
0.255587
0.254714
0.253906
0.253152
0.252445
0.251784
0.251167
0.250593
0.250062
0.249572
0.249124
0.248714
0.248343
0.248007
0.247706
0.247438
0.2472
0.246991
0.24681
0.246655
0.246524
0.246416
0.246329
0.246263
0.246215
0.246186
0.246173
0.246176
0.246193
0.266719
0.280569
0.294241
0.307622
0.320668
0.333362
0.345692
0.357649
0.369223
0.380411
0.391209
0.401617
0.411635
0.421266
0.430515
0.439388
0.447893
0.456036
0.463827
0.471275
0.478391
0.485183
0.491664
0.497844
0.503734
0.509344
0.514685
0.519768
0.524603
0.529201
0.533572
0.537724
0.541673
0.844346
1.01343
1.18704
1.36699
1.54953
1.72369
1.87731
2.00132
2.09247
2.15309
2.18915
2.20793
2.21607
2.21851
2.21825
2.21677
2.21463
2.212
2.20903
2.206
2.20324
2.20112
2.19987
2.19958
2.20017
2.20136
2.20278
2.20393
2.20427
2.20321
2.20016
2.19451
2.1857
2.17315
2.15636
2.13487
2.10828
2.07629
2.03867
1.99534
1.94632
1.89178
1.83205
1.7676
1.69909
1.62729
1.55313
1.47766
1.40198
1.32725
1.25461
1.18512
1.11975
1.05929
1.00437
0.955393
0.912538
0.875788
0.844925
0.819558
0.799136
0.782971
0.770252
0.760058
0.751375
0.743125
0.734199
0.723501
0.710005
0.692819
0.671246
0.64485
0.613519
0.57751
0.537487
0.494534
0.450119
0.405997
0.364034
0.325952
0.29305
0.266005
0.244827
0.228994
0.21768
0.209977
0.205039
0.202151
0.200749
0.200405
0.200809
0.201745
0.203067
0.204685
0.206546
0.208615
0.210874
0.213333
0.215716
0.219743
0.352895
0.366057
0.38617
0.416431
0.460013
0.519841
0.597669
0.693362
0.804522
0.926536
1.05313
1.17737
1.29281
1.39454
1.47979
1.54806
1.60065
1.63998
1.6689
1.69012
1.70583
1.71766
1.72667
1.73348
1.73842
1.7416
1.74302
1.74259
1.74015
1.73546
1.72824
1.71817
1.7049
1.68809
1.66738
1.64248
1.61316
1.57924
1.54066
1.49746
1.44983
1.39805
1.34259
1.28401
1.22305
1.16053
1.09737
1.03454
0.973023
0.913771
0.857654
0.805423
0.757671
0.714817
0.677096
0.64457
0.617144
0.594594
0.576593
0.562731
0.552531
0.545453
0.540896
0.538185
0.536577
0.535262
0.533381
0.53006
0.524462
0.515841
0.503614
0.487424
0.467203
0.443219
0.416092
0.386784
0.356536
0.326737
0.298755
0.273731
0.252418
0.235115
0.221705
0.211785
0.204808
0.200195
0.197411
0.195998
0.195587
0.195892
0.196704
0.197875
0.199308
0.200943
0.202752
0.204717
0.206835
0.209126
0.211342
0.215116
0.206466
0.206192
0.206556
0.207963
0.210851
0.215619
0.223079
0.234271
0.250415
0.272822
0.302751
0.341172
0.388515
0.444443
0.507757
0.576457
0.647971
0.719491
0.788342
0.852306
0.90982
0.960038
1.00275
1.03825
1.0671
1.08998
1.10759
1.12049
1.12912
1.13377
1.1346
1.13167
1.12499
1.11452
1.10019
1.08198
1.05989
1.03399
1.00443
0.971416
0.935293
0.896489
0.855533
0.813044
0.769713
0.726277
0.683486
0.642068
0.602691
0.565927
0.532227
0.501904
0.475131
0.451945
0.432277
0.415967
0.402802
0.392533
0.384896
0.379622
0.376434
0.375043
0.375129
0.376332
0.37823
0.380335
0.382095
0.382912
0.382181
0.379335
0.373913
0.365618
0.354377
0.340379
0.324087
0.306212
0.287641
0.269333
0.25218
0.236893
0.223916
0.213419
0.205333
0.199428
0.195388
0.192871
0.19155
0.191136
0.191388
0.192118
0.193183
0.194483
0.195953
0.197555
0.199276
0.201109
0.203063
0.205165
0.207193
0.210675
0.202016
0.200517
0.19912
0.197826
0.196674
0.195718
0.195018
0.194689
0.194885
0.195807
0.197705
0.200877
0.205666
0.21245
0.22162
0.233541
0.248506
0.266669
0.287998
0.312231
0.338873
0.367227
0.396458
0.425673
0.454003
0.480666
0.50502
0.526574
0.544989
0.560058
0.571678
0.579822
0.584521
0.585844
0.58389
0.578792
0.570715
0.559866
0.546498
0.530914
0.513469
0.494566
0.474644
0.454166
0.433599
0.413392
0.393954
0.375631
0.358698
0.343344
0.329675
0.317725
0.307464
0.29882
0.291693
0.285972
0.281541
0.278295
0.276135
0.274971
0.274716
0.275279
0.276554
0.278406
0.280657
0.283076
0.285375
0.287214
0.288218
0.288011
0.286261
0.28273
0.27732
0.270109
0.261359
0.2515
0.241077
0.230679
0.220856
0.21205
0.204555
0.198505
0.193896
0.190623
0.188518
0.187387
0.187031
0.18727
0.187947
0.188936
0.19014
0.19149
0.192943
0.194476
0.196085
0.197771
0.199547
0.201449
0.203277
0.206439
0.21029
0.208788
0.207312
0.205852
0.204409
0.202996
0.201626
0.200316
0.199088
0.197974
0.197014
0.196255
0.195756
0.195581
0.195802
0.196498
0.197749
0.199635
0.20223
0.205594
0.20977
0.214771
0.220572
0.22711
0.234273
0.241906
0.249817
0.257785
0.265574
0.272949
0.279688
0.285592
0.2905
0.294288
0.296875
0.298227
0.298351
0.297298
0.295155
0.292045
0.288115
0.283535
0.278484
0.273143
0.267685
0.262267
0.257023
0.252061
0.24746
0.243275
0.239535
0.23625
0.233416
0.231022
0.229048
0.227476
0.226287
0.225465
0.224998
0.224877
0.225092
0.225633
0.22648
0.227596
0.228926
0.230378
0.231829
0.233112
0.234033
0.234377
0.233938
0.23255
0.230118
0.226644
0.222241
0.217128
0.211602
0.205998
0.200641
0.195809
0.191697
0.188418
0.185996
0.184394
0.183524
0.183277
0.183531
0.184173
0.185099
0.186225
0.187483
0.188826
0.190224
0.191664
0.193145
0.194674
0.196269
0.197964
0.199589
0.202413
0.216546
0.215196
0.213845
0.212499
0.211156
0.209817
0.208485
0.207162
0.205855
0.204572
0.203324
0.202125
0.200989
0.199934
0.198979
0.198146
0.197456
0.19693
0.19659
0.196453
0.196534
0.196845
0.19739
0.19817
0.199175
0.200388
0.201783
0.203326
0.204973
0.206677
0.208382
0.210034
0.211578
0.212965
0.214152
0.215105
0.215799
0.216223
0.216376
0.216271
0.215927
0.215373
0.214646
0.213782
0.212821
0.211801
0.210756
0.209717
0.208709
0.20775
0.206856
0.206034
0.205291
0.204628
0.204048
0.203552
0.203139
0.202814
0.202581
0.202445
0.202414
0.202494
0.20269
0.202998
0.203407
0.203888
0.204397
0.204863
0.205198
0.205296
0.205048
0.204356
0.20315
0.201413
0.199181
0.196555
0.193684
0.190749
0.187936
0.18541
0.183299
0.181682
0.18059
0.180009
0.179894
0.180182
0.180796
0.181663
0.182713
0.183887
0.185139
0.186433
0.18775
0.18908
0.190426
0.191795
0.193208
0.194697
0.196121
0.1986
0.220662
0.219477
0.218284
0.217086
0.21588
0.214666
0.213446
0.212224
0.211003
0.209786
0.208579
0.207385
0.20621
0.205062
0.203947
0.202874
0.201852
0.200889
0.199994
0.199175
0.198441
0.197797
0.19725
0.1968
0.196451
0.1962
0.196043
0.195973
0.195982
0.196058
0.196188
0.196358
0.196552
0.196756
0.196954
0.197134
0.197283
0.197394
0.19746
0.197477
0.197444
0.197364
0.19724
0.197076
0.196879
0.196655
0.196411
0.196151
0.19588
0.1956
0.195313
0.19502
0.19472
0.194412
0.194095
0.193769
0.193435
0.193095
0.192751
0.192411
0.19208
0.191768
0.191482
0.19123
0.191014
0.190832
0.190672
0.190511
0.190316
0.190042
0.189639
0.18906
0.188266
0.187242
0.185998
0.184581
0.183063
0.181538
0.180107
0.178866
0.177891
0.177232
0.176911
0.176923
0.177241
0.177826
0.178627
0.179596
0.180682
0.181845
0.183047
0.184265
0.185483
0.186693
0.1879
0.189111
0.190346
0.191635
0.192863
0.194998
0.223296
0.222238
0.221169
0.22009
0.219001
0.217905
0.216802
0.215693
0.214579
0.213462
0.212346
0.211232
0.210125
0.209026
0.207939
0.206869
0.205819
0.204795
0.203801
0.20284
0.201919
0.201042
0.200211
0.199431
0.198704
0.198032
0.197415
0.196854
0.196347
0.195892
0.195486
0.195125
0.194805
0.19452
0.194265
0.194036
0.193827
0.193634
0.193453
0.19328
0.193113
0.19295
0.192788
0.192625
0.192461
0.192294
0.192121
0.191941
0.19175
0.191545
0.191323
0.191078
0.190807
0.190506
0.190171
0.189799
0.189388
0.188939
0.188452
0.18793
0.187379
0.186806
0.186218
0.185624
0.185031
0.184447
0.183873
0.183309
0.182747
0.182175
0.181575
0.180932
0.180229
0.17946
0.178633
0.177768
0.176904
0.176088
0.175375
0.174815
0.174451
0.174312
0.174408
0.174735
0.175275
0.175999
0.176873
0.17786
0.178925
0.180034
0.18116
0.182283
0.18339
0.184476
0.185544
0.186601
0.187666
0.188764
0.189805
0.191605
0.224939
0.223977
0.223006
0.222025
0.221035
0.220035
0.219027
0.21801
0.216988
0.215961
0.214932
0.213901
0.212871
0.211843
0.21082
0.209804
0.208798
0.207803
0.206823
0.205859
0.204916
0.203995
0.2031
0.202234
0.201398
0.200595
0.199827
0.199095
0.198401
0.197744
0.197126
0.196545
0.196001
0.195493
0.195019
0.194577
0.194166
0.193783
0.193427
0.193094
0.192783
0.192491
0.192215
0.191953
0.191701
0.191456
0.191213
0.190968
0.190716
0.190451
0.190168
0.189862
0.189525
0.189154
0.188742
0.188286
0.187783
0.18723
0.186629
0.185979
0.185285
0.184552
0.183786
0.182995
0.182188
0.181375
0.180563
0.179761
0.178973
0.178202
0.177448
0.176712
0.175993
0.175292
0.174619
0.173987
0.173416
0.172932
0.172564
0.172338
0.172276
0.172391
0.172686
0.173155
0.173782
0.174545
0.175417
0.17637
0.177375
0.178405
0.179437
0.180455
0.181447
0.182407
0.18334
0.184248
0.185151
0.186068
0.186935
0.188414
0.22592
0.225029
0.224129
0.223221
0.222303
0.221377
0.220443
0.219501
0.218554
0.217601
0.216644
0.215684
0.214723
0.213762
0.212802
0.211845
0.210892
0.209945
0.209006
0.208075
0.207156
0.20625
0.205359
0.204485
0.203629
0.202795
0.201984
0.201196
0.200435
0.199702
0.198997
0.198321
0.197675
0.19706
0.196475
0.19592
0.195394
0.194898
0.194429
0.193986
0.193568
0.193172
0.192797
0.192438
0.192094
0.191759
0.191429
0.1911
0.190765
0.19042
0.190059
0.189674
0.18926
0.188812
0.188324
0.187791
0.18721
0.186579
0.185896
0.185162
0.184379
0.183552
0.182685
0.181786
0.180864
0.179928
0.178988
0.178054
0.177138
0.176249
0.175395
0.174584
0.173824
0.173123
0.172492
0.17194
0.171483
0.171136
0.170913
0.170827
0.17089
0.171104
0.171469
0.171975
0.172607
0.173348
0.174173
0.17506
0.175982
0.176918
0.177848
0.178756
0.179631
0.180468
0.181269
0.182037
0.182788
0.183536
0.18424
0.185417
0.22647
0.225628
0.224779
0.223922
0.223057
0.222185
0.221306
0.220421
0.219529
0.218632
0.217732
0.216828
0.215922
0.215014
0.214107
0.2132
0.212296
0.211394
0.210497
0.209605
0.20872
0.207842
0.206974
0.206117
0.205272
0.204442
0.203626
0.202828
0.202049
0.20129
0.200552
0.199836
0.199145
0.198478
0.197836
0.19722
0.196629
0.196065
0.195525
0.19501
0.194518
0.194047
0.193596
0.193161
0.192741
0.19233
0.191925
0.191521
0.191114
0.190696
0.190264
0.18981
0.189329
0.188816
0.188265
0.187672
0.187032
0.186345
0.185607
0.18482
0.183984
0.183103
0.182182
0.181227
0.180246
0.179249
0.178245
0.177245
0.176263
0.17531
0.174397
0.173538
0.172742
0.172022
0.171389
0.170852
0.170425
0.170116
0.169935
0.169888
0.169979
0.170208
0.170568
0.171052
0.171643
0.172326
0.173079
0.17388
0.174709
0.175544
0.176368
0.177165
0.177925
0.178643
0.179318
0.179953
0.180563
0.181154
0.181709
0.182605
0.226753
0.225942
0.225125
0.224303
0.223474
0.222639
0.221798
0.220951
0.2201
0.219244
0.218384
0.217522
0.216657
0.21579
0.214923
0.214056
0.21319
0.212325
0.211463
0.210604
0.20975
0.208901
0.208058
0.207223
0.206396
0.205579
0.204774
0.203981
0.203202
0.202438
0.20169
0.20096
0.200249
0.199558
0.198887
0.198237
0.197609
0.197003
0.196419
0.195856
0.195313
0.19479
0.194284
0.193793
0.193315
0.192845
0.192381
0.191919
0.191452
0.190977
0.190487
0.189979
0.189445
0.188881
0.188282
0.187644
0.186963
0.186237
0.185464
0.184644
0.183778
0.182869
0.181921
0.18094
0.179933
0.178909
0.177877
0.176849
0.175838
0.174855
0.173913
0.173026
0.172206
0.171466
0.170817
0.17027
0.169835
0.16952
0.169332
0.169273
0.169344
0.169542
0.169861
0.17029
0.170815
0.171421
0.172088
0.172796
0.173526
0.174259
0.174976
0.175665
0.176314
0.176917
0.177475
0.177986
0.178464
0.178911
0.17933
0.179968
0.226882
0.226089
0.225292
0.22449
0.223683
0.222871
0.222055
0.221234
0.220409
0.21958
0.218748
0.217914
0.217077
0.216239
0.2154
0.214562
0.213723
0.212886
0.21205
0.211217
0.210387
0.20956
0.208739
0.207923
0.207113
0.206311
0.205518
0.204734
0.20396
0.203199
0.202451
0.201717
0.200997
0.200295
0.199609
0.19894
0.19829
0.197659
0.197046
0.196451
0.195874
0.195313
0.194768
0.194236
0.193715
0.193202
0.192693
0.192185
0.191673
0.191154
0.190621
0.19007
0.189497
0.188895
0.188262
0.187592
0.186882
0.18613
0.185335
0.184497
0.183615
0.182693
0.181735
0.180745
0.17973
0.178699
0.177661
0.176626
0.175605
0.174612
0.173659
0.172759
0.171925
0.17117
0.170504
0.169939
0.169484
0.169145
0.168927
0.168832
0.168861
0.169008
0.169266
0.169625
0.170073
0.170593
0.171169
0.171782
0.172413
0.173043
0.173658
0.174242
0.174785
0.175281
0.175727
0.176123
0.176481
0.176796
0.177091
0.177495
0.22693
0.226147
0.22536
0.224569
0.223774
0.222976
0.222173
0.221367
0.220558
0.219746
0.218931
0.218114
0.217296
0.216476
0.215656
0.214835
0.214015
0.213196
0.212378
0.211562
0.210749
0.209939
0.209132
0.20833
0.207534
0.206743
0.205959
0.205183
0.204416
0.203659
0.202912
0.202177
0.201454
0.200745
0.200051
0.199371
0.198707
0.198059
0.197426
0.19681
0.196208
0.195621
0.195048
0.194485
0.193933
0.193387
0.192845
0.192303
0.191757
0.191205
0.190639
0.190058
0.189455
0.188826
0.188168
0.187476
0.186748
0.185981
0.185173
0.184325
0.183438
0.182512
0.181553
0.180565
0.179553
0.178525
0.177491
0.17646
0.175443
0.174451
0.173497
0.172594
0.171753
0.170987
0.170307
0.169723
0.169243
0.168874
0.168619
0.168481
0.168457
0.168544
0.168735
0.169019
0.169385
0.169817
0.170301
0.170818
0.171352
0.171884
0.172399
0.172884
0.173327
0.173722
0.174066
0.174355
0.174603
0.174799
0.174982
0.175174
0.226941
0.226162
0.225379
0.224594
0.223805
0.223013
0.222217
0.221419
0.220618
0.219815
0.21901
0.218203
0.217394
0.216585
0.215775
0.214965
0.214156
0.213347
0.21254
0.211735
0.210931
0.210131
0.209333
0.20854
0.207751
0.206968
0.20619
0.205419
0.204656
0.203901
0.203155
0.202419
0.201694
0.200981
0.20028
0.199592
0.198918
0.198257
0.197611
0.196978
0.196359
0.195752
0.195157
0.194572
0.193996
0.193425
0.192858
0.192291
0.19172
0.191142
0.190553
0.189949
0.189324
0.188677
0.188001
0.187295
0.186555
0.185779
0.184966
0.184115
0.183227
0.182305
0.18135
0.180369
0.179366
0.178348
0.177324
0.176303
0.175295
0.174311
0.173362
0.17246
0.171618
0.170846
0.170154
0.169552
0.169048
0.168648
0.168355
0.16817
0.168092
0.168117
0.168238
0.168446
0.168729
0.169075
0.169468
0.169893
0.170332
0.17077
0.171191
0.171581
0.171931
0.172232
0.172481
0.172673
0.172821
0.172909
0.172993
0.172995
0.226937
0.226159
0.225378
0.224594
0.223807
0.223017
0.222225
0.22143
0.220633
0.219834
0.219033
0.21823
0.217427
0.216622
0.215817
0.215013
0.214208
0.213405
0.212602
0.211802
0.211003
0.210207
0.209414
0.208624
0.207839
0.207058
0.206283
0.205514
0.204751
0.203996
0.20325
0.202512
0.201784
0.201066
0.200359
0.199664
0.198981
0.198311
0.197653
0.197007
0.196374
0.195752
0.19514
0.194537
0.193942
0.193353
0.192766
0.192179
0.191589
0.190992
0.190384
0.189763
0.189123
0.188462
0.187775
0.187059
0.186312
0.185532
0.184717
0.183868
0.182984
0.182068
0.181122
0.180151
0.17916
0.178155
0.177144
0.176136
0.175141
0.174167
0.173227
0.17233
0.171488
0.170712
0.170011
0.169393
0.168867
0.168436
0.168105
0.167874
0.167743
0.167706
0.167758
0.167891
0.168093
0.168354
0.168659
0.168994
0.169343
0.16969
0.170022
0.170324
0.170587
0.170801
0.170964
0.171068
0.171126
0.171117
0.171113
0.170948
0.226928
0.22615
0.225369
0.224585
0.223798
0.223009
0.222217
0.221423
0.220627
0.219829
0.219029
0.218228
0.217426
0.216623
0.21582
0.215016
0.214213
0.213411
0.21261
0.21181
0.211013
0.210217
0.209425
0.208635
0.20785
0.207069
0.206293
0.205523
0.204758
0.204001
0.203251
0.20251
0.201777
0.201054
0.200341
0.199639
0.198948
0.198268
0.1976
0.196943
0.196297
0.195662
0.195036
0.194419
0.193808
0.193203
0.1926
0.191997
0.191392
0.19078
0.190158
0.189524
0.188873
0.188201
0.187506
0.186785
0.186034
0.185253
0.184439
0.183593
0.182715
0.181807
0.180872
0.179913
0.178935
0.177945
0.176949
0.175956
0.174974
0.174012
0.173081
0.172191
0.171352
0.170573
0.169863
0.169231
0.168683
0.168224
0.167856
0.16758
0.167396
0.167299
0.167284
0.167343
0.167467
0.167646
0.167866
0.168114
0.168376
0.168638
0.168885
0.169106
0.169288
0.169423
0.169507
0.169533
0.169511
0.169417
0.169335
0.169023
0.226917
0.226138
0.225357
0.224572
0.223785
0.222996
0.222204
0.221409
0.220613
0.219815
0.219014
0.218213
0.21741
0.216607
0.215803
0.214999
0.214195
0.213392
0.21259
0.211789
0.21099
0.210193
0.209398
0.208607
0.207819
0.207036
0.206257
0.205483
0.204715
0.203954
0.203199
0.202452
0.201714
0.200985
0.200265
0.199555
0.198855
0.198166
0.197488
0.196821
0.196163
0.195516
0.194878
0.194248
0.193624
0.193005
0.192389
0.191772
0.191154
0.190529
0.189897
0.189252
0.188591
0.187912
0.187211
0.186486
0.185734
0.184953
0.184142
0.183301
0.18243
0.181532
0.180607
0.179661
0.178698
0.177722
0.176741
0.175763
0.174795
0.173845
0.172924
0.172041
0.171204
0.170423
0.169706
0.16906
0.168491
0.168004
0.1676
0.167281
0.167045
0.166889
0.166808
0.166796
0.166844
0.166942
0.16708
0.167245
0.167424
0.167604
0.167773
0.167916
0.168025
0.168089
0.168103
0.168059
0.167967
0.167799
0.16765
0.167211
0.226907
0.226127
0.225345
0.22456
0.223772
0.222981
0.222188
0.221393
0.220596
0.219797
0.218996
0.218193
0.217389
0.216585
0.215779
0.214973
0.214168
0.213363
0.212558
0.211755
0.210953
0.210153
0.209355
0.20856
0.207769
0.206981
0.206198
0.205419
0.204646
0.203879
0.203119
0.202366
0.201621
0.200885
0.200157
0.199439
0.198731
0.198033
0.197345
0.196667
0.195999
0.19534
0.19469
0.194048
0.193412
0.192781
0.192152
0.191524
0.190894
0.190259
0.189616
0.188962
0.188294
0.187609
0.186904
0.186176
0.185423
0.184643
0.183836
0.183
0.182137
0.181248
0.180335
0.179402
0.178452
0.177491
0.176525
0.175561
0.174606
0.173668
0.172757
0.17188
0.171045
0.170262
0.169537
0.168877
0.168288
0.167772
0.167333
0.16697
0.166683
0.16647
0.166324
0.166242
0.166215
0.166235
0.166292
0.166377
0.166477
0.166581
0.166675
0.166749
0.166791
0.166791
0.166745
0.166641
0.16649
0.166258
0.166052
0.165504
0.226897
0.226116
0.225333
0.224547
0.223758
0.222967
0.222173
0.221377
0.220578
0.219778
0.218976
0.218172
0.217366
0.21656
0.215753
0.214945
0.214137
0.213329
0.212522
0.211715
0.21091
0.210106
0.209305
0.208506
0.20771
0.206917
0.206129
0.205345
0.204567
0.203794
0.203027
0.202268
0.201516
0.200771
0.200036
0.199309
0.198592
0.197885
0.197187
0.196499
0.19582
0.195151
0.19449
0.193836
0.193189
0.192546
0.191906
0.191267
0.190627
0.189982
0.18933
0.188668
0.187993
0.187303
0.186594
0.185864
0.18511
0.184332
0.183529
0.182699
0.181843
0.180963
0.180061
0.17914
0.178203
0.177255
0.176303
0.175352
0.17441
0.173483