/*--------------------------------*- C++ -*----------------------------------*\
| =========                 |                                                 |
| \\      /  F ield         | OpenFOAM: The Open Source CFD Toolbox           |
|  \\    /   O peration     | Version:  2.1.1                                 |
|   \\  /    A nd           | Web:      www.OpenFOAM.org                      |
|    \\/     M anipulation  |                                                 |
\*---------------------------------------------------------------------------*/
FoamFile
{
    version     2.0;
    format      ascii;
    class       volScalarField;
    location    "0.135";
    object      nut;
}
// * * * * * * * * * * * * * * * * * * * * * * * * * * * * * * * * * * * * * //

dimensions      [0 2 -1 0 0 0 0];

internalField   nonuniform List<scalar> 
6820
(
4.96025e-05
5.47044e-05
5.94497e-05
6.37667e-05
6.76167e-05
7.09777e-05
7.38482e-05
7.62461e-05
7.82035e-05
7.97623e-05
8.09687e-05
8.18706e-05
8.2514e-05
8.29419e-05
8.31929e-05
8.33011e-05
8.32959e-05
8.3202e-05
8.30403e-05
8.28281e-05
8.25793e-05
8.23053e-05
8.20152e-05
8.17162e-05
8.14141e-05
8.11131e-05
8.08164e-05
8.0527e-05
8.02433e-05
7.99825e-05
7.9666e-05
7.96729e-05
7.81626e-05
0.000540295
0.000304974
0.000219963
0.000171563
0.000140525
0.000119663
0.000105138
9.47546e-05
8.71905e-05
8.16091e-05
7.74603e-05
7.43704e-05
7.20788e-05
7.03994e-05
6.91968e-05
6.83707e-05
6.78456e-05
6.75636e-05
6.74801e-05
6.75599e-05
6.77749e-05
6.81024e-05
6.85239e-05
6.9024e-05
6.95896e-05
7.02097e-05
7.08746e-05
7.15753e-05
7.23043e-05
7.30497e-05
7.38081e-05
7.45478e-05
7.52019e-05
0.00105857
0.000836085
0.000679235
0.00056961
0.000490049
0.000430112
0.000383698
0.000346852
0.000316953
0.000292238
0.000271494
0.000253857
0.0002387
0.000225556
0.000214069
0.000203963
0.000195021
0.000187069
0.000179967
0.000173599
0.000167871
0.000162704
0.000158031
0.000153794
0.000149947
0.000146448
0.000143261
0.000140355
0.000137703
0.000135287
0.000133069
0.000131092
0.000129067
0.00115953
0.00109653
0.00101167
0.000926411
0.000849803
0.000783609
0.000727052
0.000678719
0.000637196
0.000601259
0.000569905
0.000542332
0.000517899
0.000496098
0.00047652
0.000458838
0.000442786
0.000428145
0.000414735
0.000402407
0.000391033
0.000380507
0.000370737
0.000361645
0.000353165
0.000345237
0.000337812
0.000330847
0.000324308
0.000318163
0.000312401
0.000306995
0.000301974
0.00116966
0.00115863
0.00113363
0.00109757
0.00105569
0.0010122
0.000969672
0.000929414
0.000891973
0.000857473
0.000825823
0.000796832
0.000770274
0.000745916
0.000723538
0.000702936
0.000683926
0.000666346
0.000650052
0.000634914
0.000620821
0.000607673
0.00059538
0.000583866
0.000573061
0.000562902
0.000553335
0.00054431
0.000535784
0.000527719
0.000520083
0.000512851
0.000506006
0.00117006
0.00116839
0.00116306
0.00115261
0.00113713
0.00111768
0.00109554
0.00107192
0.00104772
0.00102361
0.00100001
0.000977206
0.000955344
0.000934506
0.000914719
0.000895976
0.000878251
0.000861502
0.000845682
0.00083074
0.000816623
0.00080328
0.000790661
0.00077872
0.00076741
0.00075669
0.00074652
0.000736863
0.000727685
0.000718954
0.000710642
0.000702731
0.000695195
0.00116996
0.00116938
0.00116821
0.00116569
0.00116123
0.00115458
0.00114584
0.00113528
0.00112329
0.00111024
0.0010965
0.00108236
0.00106805
0.00105376
0.00103963
0.00102576
0.00101223
0.000999079
0.000986349
0.000974056
0.000962209
0.00095081
0.000939853
0.000929332
0.000919235
0.000909547
0.000900256
0.000891345
0.000882799
0.000874604
0.000866744
0.000859212
0.000851993
0.00116994
0.0011694
0.00116883
0.00116803
0.00116674
0.00116472
0.0011618
0.00115791
0.00115305
0.00114729
0.00114075
0.00113355
0.00112584
0.00111772
0.00110932
0.00110073
0.00109205
0.00108333
0.00107464
0.00106602
0.00105752
0.00104915
0.00104096
0.00103294
0.00102512
0.0010175
0.0010101
0.0010029
0.000995916
0.000989147
0.000982591
0.000976249
0.000970119
0.00116994
0.00116939
0.00116886
0.00116832
0.0011677
0.00116692
0.00116588
0.00116449
0.00116269
0.00116043
0.00115772
0.00115456
0.00115098
0.00114703
0.00114274
0.00113817
0.00113337
0.00112838
0.00112324
0.001118
0.00111269
0.00110734
0.00110198
0.00109662
0.0010913
0.00108602
0.00108081
0.00107566
0.0010706
0.00106563
0.00106076
0.001056
0.00105134
0.00116994
0.00116938
0.00116885
0.00116833
0.00116782
0.00116729
0.00116671
0.00116605
0.00116526
0.00116432
0.00116319
0.00116186
0.0011603
0.00115853
0.00115655
0.00115436
0.00115199
0.00114944
0.00114674
0.0011439
0.00114095
0.0011379
0.00113478
0.00113159
0.00112836
0.00112509
0.00112181
0.00111852
0.00111523
0.00111195
0.0011087
0.00110547
0.00110228
0.00116994
0.00116938
0.00116884
0.00116832
0.00116782
0.00116732
0.00116683
0.00116634
0.00116582
0.00116527
0.00116467
0.00116399
0.00116324
0.0011624
0.00116146
0.00116043
0.00115928
0.00115804
0.0011567
0.00115526
0.00115374
0.00115214
0.00115046
0.00114872
0.00114692
0.00114507
0.00114318
0.00114125
0.0011393
0.00113733
0.00113534
0.00113335
0.00113136
0.00116994
0.00116938
0.00116884
0.00116832
0.00116781
0.00116732
0.00116684
0.00116637
0.00116591
0.00116545
0.00116499
0.00116452
0.00116402
0.00116351
0.00116296
0.00116238
0.00116176
0.0011611
0.00116039
0.00115964
0.00115884
0.00115799
0.0011571
0.00115617
0.0011552
0.0011542
0.00115316
0.00115209
0.00115099
0.00114987
0.00114873
0.00114757
0.00114641
0.00116994
0.00116938
0.00116884
0.00116832
0.00116781
0.00116732
0.00116684
0.00116637
0.00116592
0.00116547
0.00116504
0.00116461
0.00116419
0.00116377
0.00116335
0.00116292
0.00116248
0.00116204
0.00116158
0.00116111
0.00116062
0.00116011
0.00115959
0.00115905
0.00115849
0.00115791
0.00115732
0.00115671
0.00115608
0.00115544
0.00115478
0.00115412
0.00115344
0.00116994
0.00116938
0.00116884
0.00116832
0.00116781
0.00116731
0.00116683
0.00116637
0.00116591
0.00116547
0.00116504
0.00116462
0.00116422
0.00116382
0.00116342
0.00116304
0.00116266
0.00116228
0.00116191
0.00116153
0.00116116
0.00116078
0.00116041
0.00116003
0.00115964
0.00115925
0.00115886
0.00115846
0.00115806
0.00115765
0.00115724
0.00115682
0.0011564
0.00116994
0.00116938
0.00116884
0.00116832
0.00116781
0.00116731
0.00116683
0.00116636
0.00116591
0.00116547
0.00116504
0.00116462
0.00116421
0.00116382
0.00116343
0.00116306
0.00116269
0.00116233
0.00116198
0.00116163
0.00116129
0.00116096
0.00116063
0.00116031
0.00115999
0.00115967
0.00115936
0.00115904
0.00115873
0.00115843
0.00115812
0.00115781
0.00115751
0.00116994
0.00116938
0.00116884
0.00116831
0.0011678
0.00116731
0.00116683
0.00116636
0.0011659
0.00116546
0.00116503
0.00116461
0.00116421
0.00116381
0.00116343
0.00116305
0.00116269
0.00116233
0.00116198
0.00116165
0.00116132
0.001161
0.00116068
0.00116037
0.00116007
0.00115978
0.00115949
0.00115921
0.00115893
0.00115866
0.00115839
0.00115813
0.00115788
0.00116994
0.00116938
0.00116884
0.00116831
0.0011678
0.00116731
0.00116683
0.00116636
0.0011659
0.00116546
0.00116503
0.00116461
0.0011642
0.00116381
0.00116342
0.00116304
0.00116268
0.00116232
0.00116198
0.00116164
0.00116131
0.00116099
0.00116068
0.00116038
0.00116008
0.0011598
0.00115952
0.00115924
0.00115898
0.00115871
0.00115846
0.00115821
0.00115797
0.00116994
0.00116938
0.00116884
0.00116831
0.0011678
0.00116731
0.00116682
0.00116635
0.0011659
0.00116546
0.00116502
0.0011646
0.0011642
0.0011638
0.00116341
0.00116304
0.00116267
0.00116232
0.00116197
0.00116163
0.00116131
0.00116099
0.00116067
0.00116037
0.00116008
0.00115979
0.00115951
0.00115924
0.00115897
0.00115872
0.00115847
0.00115822
0.00115798
0.00116994
0.00116938
0.00116884
0.00116831
0.0011678
0.0011673
0.00116682
0.00116635
0.0011659
0.00116545
0.00116502
0.0011646
0.00116419
0.0011638
0.00116341
0.00116303
0.00116267
0.00116231
0.00116196
0.00116163
0.0011613
0.00116098
0.00116067
0.00116036
0.00116007
0.00115978
0.0011595
0.00115923
0.00115896
0.0011587
0.00115845
0.00115821
0.00115797
0.00116994
0.00116938
0.00116884
0.00116831
0.0011678
0.0011673
0.00116682
0.00116635
0.00116589
0.00116545
0.00116502
0.0011646
0.00116419
0.00116379
0.0011634
0.00116303
0.00116266
0.0011623
0.00116196
0.00116162
0.00116129
0.00116097
0.00116066
0.00116035
0.00116006
0.00115977
0.00115949
0.00115921
0.00115895
0.00115869
0.00115844
0.00115819
0.00115796
0.00116994
0.00116938
0.00116884
0.00116831
0.0011678
0.0011673
0.00116682
0.00116635
0.00116589
0.00116545
0.00116502
0.0011646
0.00116419
0.00116379
0.0011634
0.00116302
0.00116266
0.0011623
0.00116195
0.00116161
0.00116128
0.00116096
0.00116065
0.00116034
0.00116005
0.00115976
0.00115948
0.0011592
0.00115894
0.00115868
0.00115842
0.00115818
0.00115794
0.00116994
0.00116938
0.00116884
0.00116831
0.0011678
0.0011673
0.00116682
0.00116635
0.00116589
0.00116545
0.00116501
0.00116459
0.00116418
0.00116378
0.0011634
0.00116302
0.00116265
0.00116229
0.00116195
0.00116161
0.00116128
0.00116095
0.00116064
0.00116033
0.00116004
0.00115975
0.00115947
0.00115919
0.00115892
0.00115866
0.00115841
0.00115816
0.00115792
0.00116994
0.00116938
0.00116884
0.00116831
0.0011678
0.0011673
0.00116682
0.00116635
0.00116589
0.00116545
0.00116501
0.00116459
0.00116418
0.00116378
0.00116339
0.00116302
0.00116265
0.00116229
0.00116194
0.0011616
0.00116127
0.00116095
0.00116063
0.00116033
0.00116003
0.00115974
0.00115946
0.00115918
0.00115891
0.00115865
0.0011584
0.00115815
0.00115791
0.00116994
0.00116938
0.00116884
0.00116831
0.0011678
0.0011673
0.00116682
0.00116635
0.00116589
0.00116544
0.00116501
0.00116459
0.00116418
0.00116378
0.00116339
0.00116301
0.00116264
0.00116229
0.00116194
0.0011616
0.00116126
0.00116094
0.00116063
0.00116032
0.00116002
0.00115973
0.00115945
0.00115917
0.0011589
0.00115864
0.00115838
0.00115814
0.00115789
0.00116994
0.00116938
0.00116884
0.00116831
0.0011678
0.0011673
0.00116682
0.00116635
0.00116589
0.00116544
0.00116501
0.00116459
0.00116418
0.00116378
0.00116339
0.00116301
0.00116264
0.00116228
0.00116193
0.00116159
0.00116126
0.00116094
0.00116062
0.00116031
0.00116001
0.00115972
0.00115944
0.00115916
0.00115889
0.00115863
0.00115837
0.00115812
0.00115788
0.00116994
0.00116938
0.00116884
0.00116831
0.0011678
0.0011673
0.00116682
0.00116635
0.00116589
0.00116544
0.00116501
0.00116459
0.00116418
0.00116378
0.00116339
0.00116301
0.00116264
0.00116228
0.00116193
0.00116159
0.00116125
0.00116093
0.00116061
0.00116031
0.00116001
0.00115972
0.00115943
0.00115915
0.00115888
0.00115862
0.00115836
0.00115811
0.00115787
0.00116994
0.00116938
0.00116884
0.00116831
0.0011678
0.0011673
0.00116682
0.00116635
0.00116589
0.00116544
0.00116501
0.00116459
0.00116417
0.00116377
0.00116338
0.001163
0.00116264
0.00116228
0.00116192
0.00116158
0.00116125
0.00116093
0.00116061
0.0011603
0.00116
0.00115971
0.00115942
0.00115915
0.00115887
0.00115861
0.00115835
0.0011581
0.00115786
0.00116994
0.00116938
0.00116884
0.00116831
0.0011678
0.0011673
0.00116682
0.00116635
0.00116589
0.00116544
0.00116501
0.00116458
0.00116417
0.00116377
0.00116338
0.001163
0.00116263
0.00116227
0.00116192
0.00116158
0.00116125
0.00116092
0.00116061
0.0011603
0.00116
0.0011597
0.00115942
0.00115914
0.00115887
0.0011586
0.00115834
0.00115809
0.00115785
0.00116994
0.00116938
0.00116884
0.00116831
0.0011678
0.0011673
0.00116682
0.00116634
0.00116589
0.00116544
0.00116501
0.00116458
0.00116417
0.00116377
0.00116338
0.001163
0.00116263
0.00116227
0.00116192
0.00116158
0.00116124
0.00116092
0.0011606
0.00116029
0.00115999
0.0011597
0.00115941
0.00115913
0.00115886
0.0011586
0.00115834
0.00115808
0.00115784
0.00116994
0.00116938
0.00116884
0.00116831
0.0011678
0.0011673
0.00116682
0.00116635
0.00116589
0.00116544
0.00116501
0.00116459
0.00116417
0.00116377
0.00116338
0.001163
0.00116263
0.00116227
0.00116192
0.00116158
0.00116124
0.00116092
0.0011606
0.00116029
0.00115999
0.0011597
0.00115941
0.00115913
0.00115886
0.00115859
0.00115833
0.00115808
0.00115783
0.00116994
0.00116938
0.00116884
0.00116831
0.0011678
0.0011673
0.00116682
0.00116635
0.00116589
0.00116544
0.00116501
0.00116459
0.00116418
0.00116378
0.00116339
0.00116301
0.00116264
0.00116227
0.00116192
0.00116158
0.00116125
0.00116092
0.0011606
0.00116029
0.00115999
0.0011597
0.00115941
0.00115913
0.00115885
0.00115858
0.00115832
0.00115807
0.00115782
0.00116994
0.00116938
0.00116884
0.00116831
0.0011678
0.00116731
0.00116682
0.00116635
0.0011659
0.00116545
0.00116502
0.0011646
0.00116418
0.00116378
0.00116339
0.00116301
0.00116264
0.00116228
0.00116193
0.00116158
0.00116125
0.00116092
0.0011606
0.00116028
0.00115998
0.00115968
0.00115938
0.0011591
0.00115882
0.00115854
0.00115827
0.00115801
0.00115775
0.00116994
0.00116938
0.00116884
0.00116832
0.00116781
0.00116731
0.00116683
0.00116636
0.0011659
0.00116546
0.00116502
0.0011646
0.00116419
0.00116379
0.0011634
0.00116301
0.00116263
0.00116227
0.0011619
0.00116155
0.0011612
0.00116086
0.00116052
0.00116018
0.00115986
0.00115953
0.00115921
0.00115889
0.00115858
0.00115827
0.00115797
0.00115766
0.00115736
0.00116994
0.00116938
0.00116884
0.00116833
0.00116782
0.00116733
0.00116685
0.00116639
0.00116593
0.00116548
0.00116503
0.00116459
0.00116416
0.00116373
0.00116331
0.00116288
0.00116246
0.00116204
0.00116161
0.00116119
0.00116076
0.00116033
0.0011599
0.00115946
0.00115902
0.00115858
0.00115814
0.00115769
0.00115724
0.00115678
0.00115632
0.00115586
0.0011554
0.00116994
0.00116939
0.00116886
0.00116835
0.00116784
0.00116733
0.00116683
0.00116632
0.00116581
0.00116528
0.00116473
0.00116417
0.00116358
0.00116297
0.00116233
0.00116166
0.00116097
0.00116024
0.00115949
0.00115871
0.0011579
0.00115706
0.00115621
0.00115532
0.00115442
0.00115349
0.00115255
0.00115159
0.00115061
0.00114962
0.00114862
0.00114761
0.00114659
0.00116995
0.0011694
0.00116886
0.00116828
0.00116765
0.00116694
0.00116613
0.00116519
0.00116413
0.00116295
0.00116163
0.00116017
0.00115859
0.00115689
0.00115507
0.00115315
0.00115113
0.00114901
0.00114682
0.00114456
0.00114223
0.00113985
0.00113742
0.00113496
0.00113247
0.00112996
0.00112743
0.00112488
0.00112234
0.00111979
0.00111725
0.00111471
0.00111219
0.00116996
0.00116916
0.00116786
0.00116595
0.00116343
0.0011603
0.00115657
0.00115228
0.00114749
0.00114224
0.00113662
0.00113067
0.00112447
0.00111806
0.00111151
0.00110485
0.00109812
0.00109137
0.00108461
0.00107788
0.0010712
0.00106459
0.00105806
0.00105162
0.00104528
0.00103906
0.00103295
0.00102697
0.00102111
0.00101538
0.00100978
0.00100432
0.000998982
0.00116831
0.00115866
0.00114501
0.00112845
0.00110972
0.00108951
0.00106847
0.00104713
0.00102587
0.00100495
0.000984572
0.000964845
0.000945843
0.000927603
0.000910137
0.000893441
0.000877499
0.000862288
0.000847778
0.000833941
0.000820743
0.000808152
0.000796137
0.000784668
0.000773714
0.000763248
0.000753242
0.000743671
0.000734512
0.000725741
0.000717338
0.000709282
0.000701553
0.00107567
0.000936195
0.000835604
0.000756872
0.000692064
0.000638304
0.000593386
0.000555482
0.000523154
0.000495297
0.000471063
0.000449801
0.000431004
0.000414273
0.000399292
0.000385807
0.000373612
0.000362536
0.000352438
0.000343202
0.000334727
0.000326928
0.000319734
0.000313082
0.000306917
0.000301192
0.000295866
0.000290903
0.00028627
0.000281939
0.000277884
0.000274082
0.000270512
0.000142979
0.000146644
0.000150174
0.000153551
0.000156773
0.000159846
0.000162775
0.000165567
0.000168224
0.000170754
0.000173161
0.000175449
0.000177623
0.000179689
0.000181651
0.000183514
0.000185281
0.000186958
0.000188548
0.000190056
0.000191485
0.00019284
0.000194124
0.00019534
0.000196492
0.000197583
0.000198616
0.000199595
0.000200521
0.000201398
0.000202228
0.000203013
0.000203757
9.09762e-05
0.000110498
0.000134774
0.000164436
0.000198845
0.00023616
0.000274156
0.000310927
0.000345395
0.000377379
0.000407339
0.000436014
0.000464089
0.000491999
0.000519905
0.000547777
0.000575537
0.000603163
0.000630734
0.000658422
0.000686442
0.000714998
0.000744236
0.00077423
0.000804976
0.000836404
0.000868392
0.000900772
0.000933343
0.000965873
0.000998097
0.00102973
0.00106045
0.00108993
0.00111783
0.00114381
0.00116754
0.00118871
0.00120705
0.0012223
0.00123429
0.00124289
0.00124807
0.00124987
0.00124844
0.00124402
0.00123699
0.00122779
0.00121702
0.00120532
0.00119343
0.0011821
0.0011721
0.00116418
0.00115897
0.00115703
0.00115875
0.00116438
0.00117399
0.00118748
0.00120458
0.00122485
0.00124769
0.00127231
0.00129778
0.001323
0.00134674
0.00136769
0.00138453
0.00139599
0.00140099
0.00139872
0.0013888
0.00137139
0.00134734
0.0013183
0.0012868
0.0012562
0.00123034
0.00121297
0.00120679
0.00121244
0.00122814
0.00125026
0.00127478
0.00129869
0.00132057
0.00134033
0.0013586
0.00137615
0.00139365
0.00141161
0.00143035
0.00145007
0.00147091
0.00149288
0.00151591
0.00154016
0.00156309
0.00159992
7.63671e-05
7.85065e-05
8.1893e-05
8.72677e-05
9.54779e-05
0.00010733
0.000123478
0.000144235
0.00016946
0.000198527
0.000230402
0.000263824
0.000297535
0.000330505
0.000362085
0.000392041
0.000420493
0.000447775
0.000474295
0.000500418
0.000526408
0.000552413
0.000578491
0.000604644
0.000630852
0.000657085
0.000683307
0.000709467
0.000735486
0.000761247
0.000786593
0.000811324
0.000835208
0.000857983
0.000879373
0.000899099
0.000916886
0.000932481
0.000945661
0.000956248
0.00096412
0.000969226
0.000971594
0.000971347
0.000968709
0.000964008
0.000957676
0.000950241
0.000942311
0.000934548
0.000927639
0.000922252
0.000918999
0.000918393
0.00092082
0.000926517
0.000935575
0.000947947
0.000963472
0.000981899
0.00100291
0.00102611
0.00105106
0.00107721
0.00110392
0.00113042
0.00115584
0.00117919
0.00119947
0.0012157
0.00122707
0.00123302
0.00123339
0.00122855
0.00121951
0.00120796
0.0011962
0.00118693
0.00118279
0.00118568
0.00119615
0.0012131
0.00123414
0.00125655
0.00127819
0.00129804
0.00131605
0.00133274
0.00134878
0.00136478
0.00138117
0.00139824
0.00141618
0.00143512
0.00145516
0.00147633
0.00149859
0.00152216
0.00154448
0.00158102
0.000127003
0.000124895
0.000122703
0.000120269
0.000117627
0.000115356
0.000113693
0.000113021
0.000113866
0.000116855
0.000122613
0.00013165
0.00014427
0.000160514
0.000180146
0.000202677
0.000227432
0.000253641
0.000280551
0.000307515
0.00033406
0.000359903
0.000384935
0.000409174
0.000432709
0.000455651
0.000478091
0.000500081
0.000521623
0.000542671
0.000563133
0.000582887
0.000601783
0.000619656
0.000636331
0.000651635
0.000665406
0.000677504
0.00068782
0.000696294
0.000702925
0.000707782
0.000711017
0.000712869
0.000713668
0.000713826
0.00071383
0.000714213
0.000715527
0.000718301
0.000723001
0.000729985
0.000739474
0.000751535
0.000766082
0.000782905
0.000801706
0.000822147
0.000843892
0.000866643
0.000890152
0.000914224
0.000938689
0.000963376
0.000988066
0.00101246
0.00103616
0.00105865
0.00107935
0.00109767
0.0011131
0.00112532
0.00113433
0.00114052
0.00114477
0.00114834
0.00115281
0.0011597
0.00117015
0.0011845
0.00120213
0.00122169
0.00124158
0.00126055
0.00127801
0.001294
0.00130897
0.0013235
0.00133807
0.00135303
0.00136863
0.00138499
0.00140222
0.0014204
0.0014396
0.00145989
0.00148125
0.00150398
0.00152552
0.00156141
0.00029651
0.0002904
0.00028423
0.000277889
0.000271167
0.000264069
0.000256777
0.00024919
0.00024119
0.000232743
0.000223968
0.000215166
0.000206806
0.000199469
0.000193757
0.000190203
0.000189208
0.000191005
0.000195651
0.000203045
0.000212954
0.000225045
0.000238929
0.000254196
0.000270448
0.000287328
0.000304533
0.000321821
0.000339004
0.000355941
0.000372524
0.000388667
0.000404298
0.000419353
0.000433773
0.000447515
0.000460551
0.000472881
0.000484538
0.000495606
0.000506217
0.000516563
0.000526896
0.000537514
0.000548759
0.000560982
0.000574525
0.000589676
0.000606639
0.000625505
0.000646226
0.000668624
0.000692402
0.000717178
0.000742526
0.000768024
0.000793288
0.000818003
0.000841945
0.000864981
0.000887075
0.00090827
0.000928669
0.000948406
0.000967616
0.000986395
0.00100477
0.00102269
0.00104001
0.00105652
0.00107202
0.00108638
0.00109963
0.00111201
0.00112395
0.00113608
0.00114903
0.00116328
0.00117893
0.00119568
0.00121287
0.00122972
0.00124565
0.00126044
0.00127422
0.00128738
0.00130035
0.00131353
0.00132718
0.00134146
0.00135646
0.00137222
0.00138877
0.00140618
0.00142453
0.00144387
0.00146423
0.00148597
0.00150656
0.00154146
0.000498499
0.000490299
0.00048234
0.000474554
0.000466857
0.000459123
0.000451362
0.000443536
0.000435544
0.000427261
0.000418563
0.000409339
0.000399518
0.000389092
0.000378134
0.000366812
0.000355391
0.00034421
0.000333656
0.000324119
0.000315951
0.000309435
0.000304768
0.000302054
0.000301316
0.000302504
0.000305515
0.00031021
0.000316432
0.000324016
0.000332809
0.000342671
0.000353486
0.000365164
0.000377647
0.000390905
0.00040494
0.000419784
0.000435496
0.000452162
0.000469881
0.000488766
0.00050892
0.000530429
0.000553338
0.000577639
0.000603257
0.000630042
0.00065777
0.000686152
0.000714855
0.000743517
0.000771778
0.0007993
0.000825785
0.000850996
0.000874759
0.000896969
0.000917589
0.000936643
0.000954214
0.000970434
0.000985475
0.000999542
0.00101286
0.00102564
0.00103811
0.00105043
0.00106272
0.00107506
0.00108746
0.00109993
0.00111248
0.00112518
0.0011381
0.00115135
0.00116497
0.00117891
0.00119297
0.00120686
0.00122028
0.00123302
0.00124507
0.0012566
0.00126792
0.00127935
0.00129117
0.00130357
0.00131665
0.00133043
0.00134492
0.0013601
0.00137599
0.00139262
0.00141007
0.00142842
0.00144771
0.00146835
0.00148787
0.00152146
0.000686882
0.000677783
0.000668983
0.000660468
0.000652199
0.000644124
0.000636215
0.000628437
0.000620753
0.000613124
0.000605507
0.000597855
0.00059012
0.000582252
0.000574212
0.000565973
0.000557531
0.000548912
0.000540182
0.000531442
0.000522834
0.00051453
0.000506723
0.000499615
0.000493409
0.000488292
0.000484433
0.000481973
0.000481026
0.000481676
0.000483983
0.000487983
0.000493696
0.000501128
0.000510275
0.000521128
0.000533669
0.000547875
0.000563714
0.00058114
0.000600092
0.000620485
0.000642208
0.000665117
0.000689039
0.000713766
0.00073906
0.000764666
0.000790313
0.000815729
0.000840653
0.000864845
0.000888095
0.000910229
0.000931115
0.000950664
0.000968827
0.000985598
0.001001
0.00101511
0.00102799
0.00103977
0.00105058
0.00106057
0.0010699
0.00107875
0.00108729
0.00109569
0.00110412
0.00111272
0.00112157
0.00113075
0.00114028
0.00115015
0.00116031
0.0011707
0.0011812
0.00119169
0.00120202
0.00121208
0.00122185
0.00123139
0.00124085
0.00125046
0.00126043
0.00127096
0.00128218
0.00129412
0.00130679
0.00132014
0.00133414
0.00134874
0.00136395
0.00137979
0.00139633
0.00141366
0.00143183
0.00145129
0.00146966
0.00150168
0.000843966
0.000835104
0.000826461
0.000818038
0.000809831
0.000801819
0.000794001
0.000786364
0.0007789
0.0007716
0.00076446
0.00075748
0.000750659
0.000743997
0.000737491
0.00073114
0.000724943
0.000718899
0.000713019
0.000707319
0.000701831
0.000696602
0.000691696
0.00068719
0.000683181
0.000679774
0.000677082
0.000675225
0.00067432
0.000674478
0.000675804
0.000678388
0.000682306
0.000687617
0.00069436
0.000702555
0.000712198
0.000723266
0.00073571
0.000749462
0.000764425
0.000780483
0.000797496
0.000815303
0.000833729
0.000852584
0.00087167
0.000890789
0.000909746
0.000928359
0.000946459
0.0009639
0.000980562
0.000996348
0.00101119
0.00102505
0.00103792
0.00104979
0.00106071
0.00107073
0.00107991
0.00108834
0.00109611
0.00110331
0.00111007
0.00111648
0.00112267
0.00112874
0.00113479
0.00114093
0.00114722
0.00115372
0.00116045
0.0011674
0.00117454
0.00118182
0.00118918
0.00119656
0.00120395
0.00121137
0.00121889
0.00122666
0.00123481
0.00124351
0.00125287
0.00126297
0.00127384
0.00128545
0.00129775
0.00131067
0.00132416
0.00133816
0.00135267
0.0013677
0.00138333
0.00139964
0.00141668
0.00143492
0.00145208
0.00148233
0.000963234
0.000955543
0.000947949
0.000940463
0.000933097
0.000925858
0.000918748
0.00091177
0.000904927
0.000898228
0.000891684
0.000885309
0.000879121
0.00087314
0.000867384
0.000861873
0.000856627
0.000851663
0.000846997
0.000842648
0.000838636
0.000834982
0.000831713
0.000828863
0.000826471
0.000824583
0.000823251
0.000822533
0.000822488
0.000823179
0.000824666
0.000827007
0.000830252
0.000834442
0.000839605
0.000845759
0.000852903
0.000861021
0.000870076
0.000880018
0.000890774
0.000902259
0.000914369
0.00092699
0.000939996
0.000953255
0.000966634
0.000979998
0.000993219
0.00100618
0.00101876
0.00103088
0.00104245
0.00105342
0.00106373
0.00107337
0.00108232
0.00109059
0.0010982
0.00110519
0.00111161
0.00111751
0.00112296
0.00112804
0.00113283
0.0011374
0.00114183
0.0011462
0.00115057
0.001155
0.00115953
0.0011642
0.00116902
0.00117399
0.00117912
0.00118439
0.00118981
0.00119541
0.00120122
0.00120734
0.00121384
0.00122086
0.00122849
0.00123682
0.00124591
0.00125577
0.00126637
0.00127766
0.00128957
0.00130202
0.00131495
0.00132832
0.00134211
0.00135634
0.00137106
0.00138636
0.00140228
0.0014193
0.00143525
0.00146359
0.00104605
0.00104007
0.00103407
0.00102809
0.00102213
0.0010162
0.00101031
0.00100448
0.000998711
0.000993019
0.000987421
0.000981935
0.000976581
0.000971384
0.000966367
0.000961555
0.000956974
0.00095265
0.000948606
0.000944865
0.00094145
0.000938384
0.000935688
0.000933386
0.000931501
0.000930059
0.000929087
0.000928613
0.000928666
0.000929276
0.000930472
0.000932281
0.000934727
0.000937828
0.000941597
0.000946039
0.000951149
0.000956913
0.000963303
0.000970284
0.000977807
0.000985813
0.000994235
0.00100299
0.00101201
0.00102119
0.00103046
0.00103971
0.00104887
0.00105786
0.00106659
0.00107501
0.00108306
0.0010907
0.00109788
0.00110459
0.00111082
0.00111656
0.00112184
0.00112666
0.00113107
0.0011351
0.0011388
0.00114224
0.00114546
0.00114854
0.00115155
0.00115453
0.00115754
0.00116064
0.00116386
0.00116723
0.00117077
0.0011745
0.00117844
0.00118261
0.00118704
0.00119179
0.00119691
0.00120249
0.00120861
0.00121535
0.00122278
0.00123094
0.00123985
0.00124947
0.00125978
0.0012707
0.00128217
0.0012941
0.00130645
0.00131917
0.00133223
0.00134565
0.00135949
0.0013738
0.00138864
0.00140446
0.00141921
0.00144559
0.00109861
0.0010944
0.00109013
0.00108579
0.00108142
0.001077
0.00107256
0.00106811
0.00106366
0.00105923
0.00105481
0.00105045
0.00104615
0.00104193
0.00103782
0.00103383
0.00103001
0.00102636
0.00102291
0.00101969
0.00101672
0.00101402
0.00101161
0.00100952
0.00100776
0.00100636
0.00100534
0.0010047
0.00100448
0.00100469
0.00100534
0.00100644
0.00100801
0.00101006
0.00101259
0.0010156
0.00101907
0.00102301
0.00102738
0.00103216
0.00103733
0.00104283
0.00104862
0.00105466
0.00106088
0.00106723
0.00107365
0.00108008
0.00108646
0.00109273
0.00109883
0.00110473
0.00111038
0.00111574
0.00112078
0.00112548
0.00112984
0.00113384
0.00113749
0.00114079
0.00114378
0.00114648
0.00114892
0.00115115
0.00115322
0.00115518
0.00115708
0.00115899
0.00116095
0.00116303
0.00116525
0.00116766
0.00117031
0.00117321
0.0011764
0.00117991
0.0011838
0.00118811
0.0011929
0.00119823
0.00120416
0.00121075
0.00121803
0.00122602
0.00123469
0.00124403
0.00125398
0.00126448
0.00127545
0.00128683
0.00129857
0.00131061
0.00132295
0.00133558
0.00134855
0.00136192
0.00137572
0.00139039
0.001404
0.0014284
0.00112903
0.00112632
0.00112353
0.00112066
0.00111772
0.00111471
0.00111164
0.00110853
0.00110537
0.00110219
0.00109898
0.00109578
0.00109258
0.00108941
0.00108628
0.00108321
0.00108022
0.00107734
0.00107458
0.00107196
0.0010695
0.00106722
0.00106515
0.00106329
0.00106168
0.00106033
0.00105925
0.00105846
0.00105797
0.0010578
0.00105796
0.00105846
0.0010593
0.0010605
0.00106204
0.00106394
0.00106617
0.00106875
0.00107164
0.00107484
0.00107832
0.00108205
0.001086
0.00109013
0.00109442
0.00109882
0.00110328
0.00110777
0.00111224
0.00111664
0.00112095
0.00112513
0.00112913
0.00113293
0.00113651
0.00113984
0.00114291
0.00114571
0.00114824
0.00115051
0.00115253
0.00115431
0.00115588
0.00115728
0.00115855
0.00115973
0.00116086
0.00116201
0.00116323
0.00116456
0.00116607
0.0011678
0.0011698
0.00117211
0.00117477
0.00117783
0.00118134
0.00118534
0.00118987
0.001195
0.00120074
0.00120714
0.00121421
0.00122195
0.00123032
0.0012393
0.00124883
0.00125885
0.00126929
0.00128009
0.0012912
0.00130257
0.00131419
0.00132605
0.0013382
0.00135066
0.00136348
0.00137705
0.00138958
0.00141207
0.00114503
0.0011434
0.0011417
0.00113993
0.00113809
0.00113618
0.00113421
0.00113218
0.0011301
0.00112798
0.00112582
0.00112362
0.00112141
0.00111919
0.00111698
0.00111478
0.00111261
0.00111049
0.00110843
0.00110644
0.00110455
0.00110276
0.0011011
0.00109957
0.00109821
0.00109701
0.001096
0.00109519
0.0010946
0.00109422
0.00109408
0.00109419
0.00109454
0.00109515
0.00109601
0.00109713
0.00109851
0.00110014
0.00110201
0.0011041
0.00110641
0.00110892
0.00111161
0.00111444
0.0011174
0.00112046
0.00112358
0.00112675
0.00112991
0.00113305
0.00113614
0.00113913
0.00114201
0.00114475
0.00114733
0.00114972
0.00115192
0.0011539
0.00115568
0.00115725
0.00115861
0.00115979
0.00116079
0.00116164
0.00116239
0.00116306
0.00116369
0.00116435
0.00116507
0.00116592
0.00116695
0.00116821
0.00116975
0.00117164
0.00117391
0.00117662
0.00117982
0.00118353
0.00118782
0.0011927
0.0011982
0.00120435
0.00121113
0.00121854
0.00122654
0.0012351
0.00124416
0.00125367
0.00126355
0.00127376
0.00128424
0.00129495
0.00130588
0.001317
0.00132835
0.00133996
0.00135186
0.00136441
0.00137594
0.00139659
0.00115264
0.00115169
0.00115068
0.00114963
0.00114852
0.00114736
0.00114615
0.00114489
0.00114359
0.00114224
0.00114086
0.00113944
0.001138
0.00113654
0.00113506
0.00113357
0.00113209
0.00113063
0.00112918
0.00112778
0.00112641
0.00112511
0.00112387
0.00112272
0.00112166
0.0011207
0.00111986
0.00111916
0.00111859
0.00111817
0.00111792
0.00111783
0.00111792
0.00111819
0.00111865
0.0011193
0.00112013
0.00112115
0.00112235
0.00112373
0.00112527
0.00112697
0.00112881
0.00113078
0.00113286
0.00113502
0.00113725
0.00113952
0.00114181
0.0011441
0.00114636
0.00114856
0.00115068
0.0011527
0.0011546
0.00115636
0.00115797
0.00115942
0.00116069
0.0011618
0.00116274
0.00116352
0.00116415
0.00116467
0.00116509
0.00116545
0.00116578
0.00116614
0.00116657
0.00116711
0.00116784
0.0011688
0.00117004
0.00117163
0.00117361
0.00117605
0.00117897
0.00118242
0.00118644
0.00119105
0.00119627
0.0012021
0.00120855
0.00121558
0.00122317