/*--------------------------------*- C++ -*----------------------------------*\
| =========                 |                                                 |
| \\      /  F ield         | OpenFOAM: The Open Source CFD Toolbox           |
|  \\    /   O peration     | Version:  2.1.1                                 |
|   \\  /    A nd           | Web:      www.OpenFOAM.org                      |
|    \\/     M anipulation  |                                                 |
\*---------------------------------------------------------------------------*/
FoamFile
{
    version     2.0;
    format      ascii;
    class       volScalarField;
    location    "0.135";
    object      p;
}
// * * * * * * * * * * * * * * * * * * * * * * * * * * * * * * * * * * * * * //

dimensions      [0 2 -2 0 0 0 0];

internalField   nonuniform List<scalar> 
6820
(
-11.0793
-12.9256
-13.5008
-13.6289
-13.7363
-13.8159
-13.8708
-13.9179
-13.961
-14.0007
-14.0378
-14.0731
-14.1068
-14.1389
-14.1698
-14.1995
-14.2282
-14.2559
-14.2828
-14.309
-14.3346
-14.3597
-14.3842
-14.4084
-14.4321
-14.4552
-14.4776
-14.4989
-14.5182
-14.5343
-14.5433
-14.5386
-14.5089
-15.0318
-14.4972
-14.0749
-13.8852
-13.8609
-13.8725
-13.8933
-13.9218
-13.9546
-13.9887
-14.023
-14.0571
-14.0904
-14.1228
-14.1543
-14.1847
-14.2142
-14.2427
-14.2705
-14.2974
-14.3237
-14.3495
-14.3747
-14.3995
-14.4239
-14.4478
-14.4712
-14.4942
-14.5163
-14.5394
-14.5617
-14.6064
-14.6647
-13.3892
-13.0855
-13.3723
-13.6176
-13.723
-13.7988
-13.8583
-13.9082
-13.9529
-13.9937
-14.0316
-14.0672
-14.101
-14.1332
-14.164
-14.1936
-14.2221
-14.2496
-14.2764
-14.3025
-14.3281
-14.3531
-14.3777
-14.402
-14.426
-14.4497
-14.4732
-14.4967
-14.52
-14.5446
-14.5708
-14.605
-14.6432
-13.8962
-13.9306
-13.928
-13.8691
-13.8617
-13.8826
-13.9094
-13.9388
-13.9703
-14.0024
-14.0343
-14.0659
-14.0969
-14.1271
-14.1567
-14.1855
-14.2136
-14.2409
-14.2677
-14.2939
-14.3196
-14.3448
-14.3698
-14.3944
-14.4189
-14.4432
-14.4675
-14.4922
-14.5173
-14.5445
-14.574
-14.6133
-14.6591
-13.7407
-13.6407
-13.6851
-13.7514
-13.8047
-13.8516
-13.8928
-13.9308
-13.9673
-14.0023
-14.0361
-14.0687
-14.1002
-14.1307
-14.1602
-14.1888
-14.2165
-14.2436
-14.2699
-14.2958
-14.3211
-14.3461
-14.3707
-14.3951
-14.4195
-14.4438
-14.4683
-14.4933
-14.5192
-14.5472
-14.5778
-14.6146
-14.6561
-13.7957
-13.7792
-13.8045
-13.8278
-13.8505
-13.8802
-13.9122
-13.9444
-13.9768
-14.0089
-14.0404
-14.0712
-14.1013
-14.1306
-14.1591
-14.187
-14.2142
-14.2408
-14.2668
-14.2923
-14.3175
-14.3423
-14.3669
-14.3913
-14.4157
-14.4402
-14.4651
-14.4905
-14.517
-14.5454
-14.5762
-14.6114
-14.6501
-13.7938
-13.7728
-13.7888
-13.8178
-13.8483
-13.8816
-13.9149
-13.9475
-13.9797
-14.0113
-14.0424
-14.0727
-14.1023
-14.1311
-14.1593
-14.1868
-14.2136
-14.2398
-14.2656
-14.2909
-14.3158
-14.3404
-14.3649
-14.3892
-14.4135
-14.4381
-14.4629
-14.4885
-14.5151
-14.5432
-14.5734
-14.6065
-14.6418
-13.8079
-13.8002
-13.8157
-13.8405
-13.866
-13.8946
-13.9246
-13.9549
-13.9852
-14.0155
-14.0453
-14.0745
-14.1033
-14.1314
-14.1588
-14.1857
-14.2121
-14.2379
-14.2633
-14.2882
-14.3129
-14.3373
-14.3615
-14.3857
-14.4099
-14.4343
-14.4592
-14.4846
-14.511
-14.5386
-14.5679
-14.5989
-14.6314
-13.8207
-13.8169
-13.8292
-13.8509
-13.8752
-13.9024
-13.9312
-13.9603
-13.9896
-14.0188
-14.0476
-14.0761
-14.104
-14.1315
-14.1584
-14.1847
-14.2106
-14.236
-14.261
-14.2856
-14.3099
-14.3341
-14.3581
-14.382
-14.406
-14.4303
-14.4549
-14.48
-14.5059
-14.5328
-14.5609
-14.59
-14.62
-13.8341
-13.8335
-13.845
-13.8647
-13.8872
-13.9122
-13.9391
-13.9666
-13.9944
-14.0224
-14.0502
-14.0777
-14.1048
-14.1315
-14.1578
-14.1835
-14.2089
-14.2338
-14.2584
-14.2826
-14.3066
-14.3304
-14.3541
-14.3777
-14.4015
-14.4254
-14.4496
-14.4743
-14.4996
-14.5256
-14.5524
-14.5798
-14.6076
-13.8475
-13.8486
-13.8591
-13.8768
-13.8976
-13.921
-13.9462
-13.9724
-13.999
-14.0258
-14.0526
-14.0792
-14.1055
-14.1315
-14.1571
-14.1823
-14.2071
-14.2315
-14.2556
-14.2794
-14.303
-14.3265
-14.3498
-14.3731
-14.3964
-14.4199
-14.4436
-14.4677
-14.4923
-14.5173
-14.5428
-14.5686
-14.5946
-13.8605
-13.8626
-13.8725
-13.8886
-13.9079
-13.9298
-13.9535
-13.9783
-14.0036
-14.0293
-14.0551
-14.0808
-14.1062
-14.1314
-14.1563
-14.1809
-14.2051
-14.229
-14.2527
-14.276
-14.2992
-14.3222
-14.3451
-14.3679
-14.3908
-14.4138
-14.4369
-14.4604
-14.4841
-14.5081
-14.5323
-14.5567
-14.581
-13.8732
-13.8756
-13.885
-13.8998
-13.9177
-13.9381
-13.9604
-13.9839
-14.0081
-14.0327
-14.0574
-14.0822
-14.1068
-14.1313
-14.1555
-14.1794
-14.2031
-14.2264
-14.2495
-14.2724
-14.295
-14.3176
-14.34
-14.3623
-14.3847
-14.4071
-14.4296
-14.4523
-14.4751
-14.498
-14.5211
-14.5441
-14.5669
-13.8852
-13.8879
-13.8967
-13.9103
-13.927
-13.9461
-13.9671
-13.9894
-14.0124
-14.0359
-14.0597
-14.0835
-14.1074
-14.131
-14.1545
-14.1778
-14.2008
-14.2236
-14.2461
-14.2685
-14.2906
-14.3126
-14.3345
-14.3563
-14.3781
-14.3998
-14.4216
-14.4435
-14.4654
-14.4873
-14.5092
-14.5309
-14.5524
-13.8966
-13.8993
-13.9076
-13.9203
-13.9358
-13.9537
-13.9735
-13.9946
-14.0165
-14.039
-14.0618
-14.0847
-14.1077
-14.1307
-14.1534
-14.176
-14.1984
-14.2206
-14.2426
-14.2643
-14.2859
-14.3073
-14.3286
-14.3498
-14.371
-14.392
-14.4131
-14.4341
-14.4551
-14.476
-14.4967
-14.5173
-14.5375
-13.9073
-13.91
-13.9178
-13.9296
-13.9441
-13.9609
-13.9795
-13.9995
-14.0203
-14.0418
-14.0637
-14.0858
-14.108
-14.1301
-14.1522
-14.1741
-14.1958
-14.2174
-14.2387
-14.2599
-14.2809
-14.3017
-14.3224
-14.343
-14.3634
-14.3837
-14.404
-14.4241
-14.4442
-14.464
-14.4837
-14.5031
-14.5221
-13.9173
-13.9198
-13.9272
-13.9382
-13.9518
-13.9676
-13.9852
-14.0041
-14.0239
-14.0444
-14.0654
-14.0866
-14.108
-14.1294
-14.1507
-14.172
-14.193
-14.2139
-14.2347
-14.2552
-14.2756
-14.2958
-14.3158
-14.3357
-14.3554
-14.375
-14.3944
-14.4137
-14.4328
-14.4516
-14.4702
-14.4885
-14.5064
-13.9266
-13.9289
-13.9359
-13.9462
-13.9589
-13.9738
-13.9904
-14.0083
-14.0272
-14.0468
-14.0669
-14.0873
-14.1078
-14.1285
-14.1491
-14.1696
-14.19
-14.2103
-14.2303
-14.2502
-14.27
-14.2895
-14.3088
-14.328
-14.3469
-14.3657
-14.3843
-14.4027
-14.4209
-14.4387
-14.4563
-14.4735
-14.4904
-13.935
-13.9373
-13.9438
-13.9535
-13.9654
-13.9794
-13.9951
-14.0121
-14.0301
-14.0488
-14.0681
-14.0876
-14.1074
-14.1273
-14.1472
-14.167
-14.1867
-14.2063
-14.2257
-14.245
-14.264
-14.2828
-14.3015
-14.3199
-14.3381
-14.3561
-14.3738
-14.3913
-14.4085
-14.4254
-14.442
-14.4582
-14.4739
-13.9427
-13.9448
-13.951
-13.96
-13.9713
-13.9845
-13.9993
-14.0155
-14.0326
-14.0505
-14.0689
-14.0877
-14.1067
-14.1259
-14.145
-14.1642
-14.1832
-14.2021
-14.2209
-14.2394
-14.2578
-14.2759
-14.2938
-14.3115
-14.3289
-14.346
-14.3629
-14.3795
-14.3958
-14.4117
-14.4273
-14.4425
-14.4572
-13.9495
-13.9515
-13.9573
-13.9658
-13.9764
-13.9889
-14.003
-14.0184
-14.0347
-14.0518
-14.0694
-14.0875
-14.1057
-14.1242
-14.1426
-14.1611
-14.1794
-14.1976
-14.2157
-14.2336
-14.2512
-14.2686
-14.2858
-14.3027
-14.3193
-14.3357
-14.3517
-14.3674
-14.3827
-14.3977
-14.4123
-14.4265
-14.4402
-13.9555
-13.9574
-13.9629
-13.9709
-13.9809
-13.9927
-14.0061
-14.0207
-14.0363
-14.0526
-14.0695
-14.0869
-14.1044
-14.1221
-14.1399
-14.1577
-14.1753
-14.1929
-14.2102
-14.2274
-14.2443
-14.261
-14.2775
-14.2936
-14.3094
-14.3249
-14.3401
-14.3549
-14.3693
-14.3834
-14.397
-14.4102
-14.4229
-13.9606
-13.9624
-13.9676
-13.9752
-13.9847
-13.9959
-14.0086
-14.0225
-14.0374
-14.0531
-14.0693
-14.0859
-14.1028
-14.1198
-14.1369
-14.154
-14.171
-14.1879
-14.2045
-14.221
-14.2372
-14.2532
-14.2689
-14.2842
-14.2992
-14.3139
-14.3282
-14.3422
-14.3557
-14.3688
-14.3815
-14.3937
-14.4055
-13.9649
-13.9666
-13.9715
-13.9787
-13.9876
-13.9983
-14.0104
-14.0237
-14.038
-14.0529
-14.0685
-14.0845
-14.1007
-14.1171
-14.1335
-14.15
-14.1663
-14.1825
-14.1985
-14.2143
-14.2298
-14.245
-14.2599
-14.2745
-14.2888
-14.3026
-14.3161
-14.3292
-14.3418
-14.354
-14.3658
-14.377
-14.3878
-13.9682
-13.9698
-13.9745
-13.9813
-13.9899
-14.0001
-14.0116
-14.0244
-14.0381
-14.0525
-14.0674
-14.0828
-14.0984
-14.1141
-14.13
-14.1458
-14.1614
-14.177
-14.1923
-14.2074
-14.2222
-14.2367
-14.2509
-14.2647
-14.2782
-14.2912
-14.3039
-14.3161
-14.3278
-14.3391
-14.35
-14.3603
-14.3702
-13.9706
-13.9721
-13.9765
-13.983
-13.9911
-14.0008
-14.0119
-14.0241
-14.0372
-14.0511
-14.0654
-14.0803
-14.0953
-14.1105
-14.1257
-14.1409
-14.156
-14.1709
-14.1856
-14.2001
-14.2142
-14.228
-14.2415
-14.2546
-14.2673
-14.2795
-14.2914
-14.3027
-14.3136
-14.3241
-14.334
-14.3435
-14.3525
-13.9721
-13.9735
-13.9777
-13.984
-13.9919
-14.0013
-14.0119
-14.0237
-14.0364
-14.0498
-14.0637
-14.078
-14.0925
-14.1071
-14.1218
-14.1364
-14.1509
-14.1651
-14.1792
-14.193
-14.2064
-14.2195
-14.2323
-14.2446
-14.2565
-14.268
-14.279
-14.2896
-14.2997
-14.3092
-14.3183
-14.3269
-14.3349
-13.9725
-13.9737
-13.9776
-13.9833
-13.9906
-13.9995
-14.0099
-14.0212
-14.0335
-14.0465
-14.06
-14.0738
-14.0879
-14.1021
-14.1163
-14.1304
-14.1444
-14.1582
-14.1717
-14.1849
-14.1977
-14.2102
-14.2223
-14.234
-14.2452
-14.256
-14.2662
-14.276
-14.2853
-14.2941
-14.3024
-14.3101
-14.3173
-13.972
-13.9735
-13.9775
-13.9833
-13.9907
-13.9996
-14.0097
-14.0208
-14.0328
-14.0453
-14.0584
-14.0718
-14.0853
-14.099
-14.1126
-14.1261
-14.1395
-14.1526
-14.1655
-14.178
-14.1902
-14.202
-14.2134
-14.2243
-14.2348
-14.2447
-14.2542
-14.2632
-14.2717
-14.2797
-14.2871
-14.294
-14.3004
-13.9699
-13.9705
-13.9733
-13.9781
-13.9847
-13.993
-14.0028
-14.0138
-14.0256
-14.0382
-14.0512
-14.0645
-14.078
-14.0915
-14.1049
-14.1182
-14.1313
-14.1441
-14.1566
-14.1688
-14.1805
-14.1918
-14.2027
-14.2131
-14.223
-14.2324
-14.2413
-14.2496
-14.2574
-14.2647
-14.2714
-14.2776
-14.2832
-13.9686
-13.9711
-13.9754
-13.9812
-13.9883
-13.9967
-14.0063
-14.0168
-14.0281
-14.04
-14.0523
-14.0649
-14.0776
-14.0904
-14.1031
-14.1156
-14.128
-14.14
-14.1518
-14.1631
-14.1741
-14.1847
-14.1948
-14.2044
-14.2135
-14.2221
-14.2302
-14.2378
-14.2448
-14.2513
-14.2572
-14.2626
-14.2674
-13.9606
-13.9586
-13.9587
-13.9622
-13.9685
-13.9771
-13.9874
-13.9989
-14.0113
-14.0242
-14.0375
-14.051
-14.0644
-14.0778
-14.091
-14.1039
-14.1165
-14.1287
-14.1405
-14.1519
-14.1628
-14.1731
-14.183
-14.1924
-14.2012
-14.2094
-14.2171
-14.2242
-14.2307
-14.2366
-14.242
-14.2468
-14.251
-13.9673
-13.9737
-13.9793
-13.9841
-13.9897
-13.9967
-14.0051
-14.0146
-14.0249
-14.0358
-14.0472
-14.0588
-14.0706
-14.0824
-14.0942
-14.1057
-14.1171
-14.1281
-14.1388
-14.149
-14.1589
-14.1683
-14.1772
-14.1856
-14.1935
-14.2009
-14.2077
-14.214
-14.2197
-14.2248
-14.2293
-14.2333
-14.2368
-13.9356
-13.9221
-13.9172
-13.922
-13.9316
-13.9437
-13.9573
-13.9718
-13.9868
-14.0019
-14.0169
-14.0317
-14.0462
-14.0603
-14.074
-14.0871
-14.0998
-14.1119
-14.1235
-14.1344
-14.1448
-14.1546
-14.1638
-14.1724
-14.1804
-14.1878
-14.1945
-14.2006
-14.2061
-14.211
-14.2153
-14.2189
-14.222
-13.9886
-14.0088
-14.0128
-14.0079
-14.0053
-14.0072
-14.012
-14.0186
-14.0265
-14.0355
-14.0452
-14.0554
-14.0658
-14.0764
-14.0869
-14.0973
-14.1076
-14.1175
-14.1271
-14.1363
-14.1451
-14.1534
-14.1612
-14.1686
-14.1754
-14.1816
-14.1873
-14.1924
-14.197
-14.2009
-14.2043
-14.2072
-14.2094
-13.8658
-13.8163
-13.8044
-13.8305
-13.8578
-13.8816
-13.9049
-13.9275
-13.9488
-13.969
-13.9881
-14.0061
-14.0231
-14.0391
-14.0543
-14.0685
-14.082
-14.0946
-14.1065
-14.1176
-14.128
-14.1376
-14.1465
-14.1547
-14.1622
-14.169
-14.1751
-14.1806
-14.1854
-14.1895
-14.1929
-14.1957
-14.1978
-14.1135
-14.1483
-14.1171
-14.0741
-14.0451
-14.0339
-14.0306
-14.0309
-14.0341
-14.0395
-14.0464
-14.0542
-14.0627
-14.0716
-14.0807
-14.0897
-14.0987
-14.1075
-14.116
-14.1242
-14.132
-14.1394
-14.1463
-14.1527
-14.1585
-14.1639
-14.1687
-14.1729
-14.1766
-14.1797
-14.1822
-14.1842
-14.1856
-13.6213
-13.5015
-13.5637
-13.6651
-13.7388
-13.7899
-13.833
-13.8707
-13.9032
-13.9318
-13.9572
-13.98
-14.0007
-14.0196
-14.0369
-14.0528
-14.0674
-14.081
-14.0935
-14.105
-14.1156
-14.1253
-14.1341
-14.1422
-14.1494
-14.1559
-14.1616
-14.1666
-14.1709
-14.1744
-14.1773
-14.1794
-14.1809
-14.8355
-14.4965
-14.2326
-14.1152
-14.0649
-14.0392
-14.0236
-14.0168
-14.0164
-14.0196
-14.0254
-14.0327
-14.0411
-14.05
-14.0593
-14.0687
-14.078
-14.087
-14.0958
-14.1042
-14.1122
-14.1197
-14.1268
-14.1332
-14.1392
-14.1445
-14.1493
-14.1535
-14.157
-14.16
-14.1624
-14.1642
-14.1654
-12.3318
-13.0383
-13.4427
-13.5948
-13.6991
-13.781
-13.84
-13.8843
-13.9201
-13.9497
-13.9746
-13.9962
-14.0153
-14.0324
-14.0479
-14.062
-14.075
-14.087
-14.098
-14.1081
-14.1174
-14.126
-14.1337
-14.1407
-14.147
-14.1525
-14.1573
-14.1615
-14.1649
-14.1677
-14.1698
-14.1713
-14.1721
-14.4036
-14.6416
-14.7885
-14.877
-14.9353
-14.977
-15.0123
-15.0502
-15.0977
-15.1561
-15.2247
-15.302
-15.3856
-15.4726
-15.5602
-15.6456
-15.7266
-15.8016
-15.869
-15.9278
-15.9774
-16.0172
-16.0469
-16.0663
-16.075
-16.0728
-16.059
-16.0331
-15.9944
-15.9418
-15.8746
-15.7915
-15.6915
-15.5735
-15.4363
-15.279
-15.1005
-14.8998
-14.6763
-14.4293
-14.1584
-13.8637
-13.5451
-13.2034
-12.8395
-12.4546
-12.0505
-11.6294
-11.1938
-10.7464
-10.2905
-9.8293
-9.36633
-8.90506
-8.44891
-8.00115
-7.5648
-7.14255
-6.73668
-6.34903
-5.98096
-5.63327
-5.30629
-4.99983
-4.71323
-4.44537
-4.19479
-3.95969
-3.73806
-3.52771
-3.32637
-3.13181
-2.94187
-2.7546
-2.56829
-2.38163
-2.19373
-2.00422
-1.81331
-1.62185
-1.4313
-1.24371
-1.06163
-0.887844
-0.725171
-0.576121
-0.442671
-0.326133
-0.227066
-0.145374
-0.0802477
-0.0305994
0.00540463
0.0289066
0.042899
0.0464967
0.0468292
0.0333996
0.0335745
-0.00895145
-15.0104
-15.145
-15.0771
-15.0101
-14.973
-14.9472
-14.9428
-14.9562
-14.9918
-15.0485
-15.1221
-15.2081
-15.302
-15.3989
-15.4949
-15.5865
-15.6713
-15.7476
-15.8145
-15.8717
-15.9189
-15.9561
-15.9833
-16.0004
-16.0072
-16.0031
-15.9877
-15.9603
-15.9201
-15.8662
-15.7977
-15.7135
-15.6126
-15.4939
-15.3564
-15.1989
-15.0206
-14.8206
-14.5981
-14.3526
-14.0839
-13.7917
-13.4763
-13.1384
-12.7788
-12.3988
-12.0001
-11.5849
-11.1555
-10.7147
-10.2655
-9.81105
-9.35477
-8.9
-8.45005
-8.00806
-7.57699
-7.15942
-6.75761
-6.37334
-6.00794
-5.66224
-5.33659
-5.03084
-4.74438
-4.47619
-4.22487
-3.98872
-3.7658
-3.554
-3.35114
-3.15503
-2.96359
-2.7749
-2.58733
-2.39958
-2.21083
-2.02073
-1.82956
-1.63818
-1.44808
-1.2613
-1.08029
-0.907715
-0.746184
-0.598023
-0.46507
-0.348562
-0.249039
-0.16644
-0.100005
-0.0487435
-0.0108401
0.0146485
0.0309227
0.0364849
0.0396098
0.0273427
0.0319351
-0.0126912
-14.6997
-14.7013
-14.7238
-14.778
-14.8381
-14.8895
-14.9264
-14.9652
-15.0113
-15.0648
-15.1264
-15.1957
-15.2713
-15.3509
-15.4322
-15.5127
-15.5903
-15.6631
-15.7292
-15.7873
-15.8364
-15.8757
-15.9047
-15.9229
-15.93
-15.9257
-15.9096
-15.8811
-15.8396
-15.7844
-15.7147
-15.6294
-15.5275
-15.4081
-15.2702
-15.1127
-14.9348
-14.7356
-14.5144
-14.2708
-14.0043
-13.7151
-13.4033
-13.0694
-12.7145
-12.3397
-11.9468
-11.5377
-11.1147
-10.6807
-10.2383
-9.79086
-9.34148
-8.89343
-8.44991
-8.01397
-7.58845
-7.17587
-6.77839
-6.39775
-6.03526
-5.69174
-5.36754
-5.06257
-4.77626
-4.50769
-4.25552
-4.01817
-3.79377
-3.58031
-3.3757
-3.17783
-2.98469
-2.79443
-2.60547
-2.4166
-2.22701
-2.03645
-1.84521
-1.65417
-1.46482
-1.27912
-1.0994
-0.928143
-0.76778
-0.620484
-0.487984
-0.371464
-0.271456
-0.187933
-0.120173
-0.067286
-0.0274664
3.05066e-05
0.0186157
0.02618
0.0321282
0.0210992
0.0300928
-0.0164586
-14.7568
-14.8745
-14.9386
-14.9588
-14.964
-14.9585
-14.9539
-14.9709
-15.0035
-15.0475
-15.1037
-15.1703
-15.2443
-15.3224
-15.4013
-15.4782
-15.5507
-15.617
-15.6761
-15.727
-15.7693
-15.8026
-15.8265
-15.8407
-15.8448
-15.8383
-15.8205
-15.7908
-15.7483
-15.6923
-15.6218
-15.5359
-15.4337
-15.314
-15.1761
-15.0188
-14.8415
-14.6433
-14.4236
-14.182
-13.9181
-13.6319
-13.3237
-12.9941
-12.644
-12.2746
-11.8876
-11.4848
-11.0686
-10.6416
-10.2065
-9.76634
-9.32425
-8.88334
-8.44667
-8.0172
-7.59763
-7.19041
-6.79762
-6.42094
-6.06165
-5.72056
-5.39803
-5.09401
-4.80799
-4.53909
-4.28611
-4.04751
-3.82157
-3.60636
-3.39988
-3.20015
-3.00521
-2.81333
-2.62298
-2.43303
-2.24274
-2.05188
-1.86079
-1.67033
-1.48193
-1.29746
-1.1191
-0.94916
-0.789928
-0.643446
-0.511354
-0.394792
-0.29428
-0.209823
-0.140733
-0.0862126
-0.044466
-0.0149418
0.00597795
0.0155819
0.0243819
0.0146595
0.0280533
-0.0202718
-14.7159
-14.7626
-14.7759
-14.7886
-14.8127
-14.8497
-14.8933
-14.9335
-14.9766
-15.0268
-15.0843
-15.1479
-15.2159
-15.2863
-15.357
-15.4263
-15.4924
-15.5538
-15.6092
-15.6575
-15.6977
-15.7292
-15.7513
-15.7635
-15.7653
-15.7563
-15.7358
-15.7034
-15.6584
-15.6
-15.5273
-15.4396
-15.3358
-15.2151
-15.0764
-14.919
-14.7419
-14.5445
-14.3261
-14.0864
-13.825
-13.542
-13.2376
-12.9125
-12.5674
-12.2037
-11.8228
-11.4268
-11.0177
-10.598
-10.1705
-9.73807
-9.30363
-8.87019
-8.44073
-8.01804
-7.60473
-7.20315
-6.81531
-6.44283
-6.08694
-5.74847
-5.42778
-5.12484
-4.83922
-4.5701
-4.31636
-4.07658
-3.84911
-3.63215
-3.42381
-3.2222
-3.02548
-2.832
-2.64033
-2.4494
-2.25853
-2.06754
-1.87674
-1.687
-1.49964
-1.31643
-1.1394
-0.970732
-0.812571
-0.66685
-0.535127
-0.4185
-0.317473
-0.232076
-0.161654
-0.105495
-0.0618124
-0.0302435
-0.00696802
0.00471245
0.0163902
0.00804313
0.0258379
-0.0241178
-14.7019
-14.7599
-14.8074
-14.8476
-14.883
-14.9032
-14.9168
-14.9431
-14.9776
-15.0197
-15.0695
-15.1259
-15.1874
-15.2519
-15.3173
-15.3815
-15.4426
-15.4989
-15.5493
-15.5925
-15.628
-15.6549
-15.6728
-15.6813
-15.6798
-15.6679
-15.6449
-15.6103
-15.5632
-15.5029
-15.4286
-15.3395
-15.2345
-15.1128
-14.9735
-14.8159
-14.6391
-14.4424
-14.2253
-13.9874
-13.7286
-13.4487
-13.1482
-12.8276
-12.4877
-12.1297
-11.7552
-11.366
-10.9642
-10.5522
-10.1326
-9.70812
-9.28159
-8.85589
-8.43383
-8.0181
-7.6112
-7.21538
-6.83257
-6.46435
-6.11193
-5.77612
-5.4573
-5.1555
-4.87031
-4.60102
-4.34657
-4.10563
-3.87667
-3.658
-3.44783
-3.24438
-3.04593
-2.85091
-2.658
-2.46617
-2.27482
-2.08377
-1.89334
-1.70433
-1.518
-1.336
-1.16025
-0.992791
-0.835646
-0.690643
-0.559262
-0.442554
-0.341006
-0.25467
-0.182916
-0.125116
-0.0794911
-0.0458616
-0.0202111
-0.00641789
0.00816126
0.00125871
0.0234568
-0.0279929
-14.6856
-14.7327
-14.7676
-14.7927
-14.8133
-14.8438
-14.8765
-14.9112
-14.9503
-14.9944
-15.0439
-15.0981
-15.1559
-15.2155
-15.2754
-15.3339
-15.3893
-15.4404
-15.4859
-15.5249
-15.5565
-15.58
-15.5948
-15.6003
-15.5959
-15.5812
-15.5555
-15.5182
-15.4686
-15.406
-15.3295
-15.2385
-15.132
-15.0092
-14.8692
-14.7112
-14.5346
-14.3387
-14.123
-13.8871
-13.6308
-13.3543
-13.0578
-12.7418
-12.4073
-12.0554
-11.6874
-11.3053
-10.911
-10.5068
-10.0952
-9.67871
-9.26011
-8.84213
-8.42744
-8.01862
-7.61807
-7.22794
-6.8501
-6.48609
-6.1371
-5.80392
-5.48697
-5.1863
-4.90156
-4.63211
-4.37697
-4.13492
-3.90451
-3.68417
-3.47222
-3.26698
-3.06685
-2.87035
-2.67624
-2.48357
-2.29177
-2.10068
-1.9106
-1.7223
-1.53696
-1.35612
-1.18158
-1.01528
-0.859101
-0.714785
-0.583727
-0.46693
-0.36486
-0.277585
-0.204503
-0.145062
-0.0974886
-0.0617837
-0.0337408
-0.0177992
-0.000296512
-0.00568576
0.0209202
-0.0318953
-14.6703
-14.7133
-14.7505
-14.7835
-14.8167
-14.8439
-14.8726
-14.9034
-14.9386
-14.9786
-15.0235
-15.0727
-15.125
-15.1792
-15.2336
-15.2867
-15.3371
-15.3833
-15.4243
-15.4589
-15.4865
-15.5061
-15.5173
-15.5193
-15.5118
-15.4941
-15.4656
-15.4257
-15.3738
-15.309
-15.2307
-15.138
-15.0301
-14.9063
-14.7656
-14.6075
-14.4312
-14.2362
-14.0219
-13.788
-13.5345
-13.2613
-12.9689
-12.6577
-12.3285
-11.9826
-11.6212
-11.2461
-10.8592
-10.4627
-10.0589
-9.65031
-9.23949
-8.82907
-8.4216
-8.01956
-7.62523
-7.24068
-6.86774
-6.50788
-6.16227
-5.83171
-5.51663
-5.2171
-4.93286
-4.66329
-4.40752
-4.16441
-3.93261
-3.71066
-3.49699
-3.29004
-3.08828
-2.89035
-2.69508
-2.50159
-2.30935
-2.11821
-1.92847
-1.74084
-1.55644
-1.37671
-1.20334
-1.03814
-0.882902
-0.739247
-0.608498
-0.491606
-0.389014
-0.300806
-0.226398
-0.165316
-0.115791
-0.0779974
-0.047546
-0.0294212
-0.00897418
-0.012782
0.0182385
-0.0358227
-14.6551
-14.6941
-14.7291
-14.76
-14.7888
-14.817
-14.847
-14.8793
-14.9147
-14.9539
-14.9967
-15.0428
-15.0912
-15.1409
-15.1905
-15.2386
-15.284
-15.3255
-15.3619
-15.3923
-15.4159
-15.4318
-15.4396
-15.4385
-15.428
-15.4074
-15.3763
-15.3339
-15.2796
-15.2128
-15.1325
-15.0382
-14.9291
-14.8043
-14.6631
-14.5049
-14.329
-14.1349
-13.9221
-13.6904
-13.4397
-13.1699
-12.8815
-12.5751
-12.2513
-11.9112
-11.5563
-11.1882
-10.8085
-10.4195
-10.0234
-9.62252
-9.21933
-8.81631
-8.41593
-8.02052
-7.6323
-7.25326
-6.88514
-6.52939
-6.18715
-5.85921
-5.54601
-5.24767
-4.96396
-4.69434
-4.438
-4.19391
-3.96081
-3.73733
-3.52202
-3.31341
-3.1101
-2.91079
-2.7144
-2.52012
-2.32745
-2.13627
-1.94686
-1.75988
-1.57638
-1.39771
-1.22548
-1.06135
-0.907023
-0.764011
-0.633558
-0.516566
-0.413454
-0.324315
-0.248587
-0.185865
-0.134385
-0.09449
-0.0616155
-0.0412733
-0.0178623
-0.0200217
0.015422
-0.0397728
-14.6398
-14.6758
-14.7095
-14.7406
-14.7703
-14.7996
-14.8295
-14.8608
-14.8945
-14.9312
-14.9708
-15.0131
-15.0572
-15.1022
-15.147
-15.1903
-15.2309
-15.2678
-15.2998
-15.326
-15.3457
-15.358
-15.3622
-15.3579
-15.3443
-15.321
-15.2872
-15.2424
-15.1858
-15.1169
-15.0349
-14.9391
-14.8288
-14.7032
-14.5616
-14.4034
-14.228
-14.0349
-13.8237
-13.5941
-13.3461
-13.0798
-12.7955
-12.4937
-12.1752
-11.841
-11.4925
-11.1311
-10.7586
-10.377
-9.98835
-9.59502
-9.19929
-8.80355
-8.41011
-8.02124
-7.63903
-7.26542
-6.90207
-6.5504
-6.21152
-5.88621
-5.57492
-5.27781
-4.99469
-4.72509
-4.46827
-4.22328
-3.98896
-3.76405
-3.54718
-3.337
-3.13219
-2.93157
-2.73412
-2.53908
-2.34601
-2.1548
-1.9657
-1.77935
-1.59673
-1.41911
-1.24797
-1.0849
-0.93145
-0.789061
-0.658893
-0.541796
-0.438164
-0.348099
-0.271055
-0.206694
-0.153258
-0.111249
-0.0759379
-0.053345
-0.0269512
-0.0273964
0.012481
-0.0437433
-14.6244
-14.6579
-14.69
-14.7201
-14.7492
-14.7779
-14.8072
-14.8377
-14.8702
-14.905
-14.9421
-14.9811
-15.0214
-15.0623
-15.1026
-15.1413
-15.1774
-15.2098
-15.2375
-15.2597
-15.2755
-15.2842
-15.2851
-15.2775
-15.261
-15.2348
-15.1985
-15.1512
-15.0925
-15.0216
-14.9379
-14.8407
-14.7292
-14.6028
-14.4609
-14.3028
-14.1279
-13.9359
-13.7263
-13.4989
-13.2537
-12.9908
-12.7105
-12.4134
-12.1001
-11.7717
-11.4294
-11.0746
-10.7091
-10.3348
-9.95354
-9.56761
-9.17922
-8.7906
-8.40399
-8.02155
-7.64527
-7.27702
-6.9184
-6.57079
-6.23526
-5.91259
-5.60326
-5.30743
-5.02496
-4.75546
-4.49824
-4.25244
-4.01699
-3.79073
-3.57239
-3.36072
-3.1545
-2.95263
-2.75417
-2.55843
-2.36498
-2.17375
-1.98497
-1.79924
-1.61748
-1.44088
-1.27081
-1.10876
-0.956169
-0.814384
-0.684489
-0.567282
-0.46313
-0.372143
-0.293787
-0.227789
-0.172395
-0.128262
-0.0905019
-0.0656255
-0.0362311
-0.0348978
0.00942537
-0.0477317
-14.6088
-14.6402
-14.6707
-14.6999
-14.7284
-14.7566
-14.7852
-14.8148
-14.8457
-14.8783
-14.9126
-14.9484
-14.9849
-15.0217
-15.0577
-15.0921
-15.1238
-15.1518
-15.1754
-15.1936
-15.2056
-15.2107
-15.2082
-15.1975
-15.178
-15.1491
-15.1101
-15.0606
-14.9997
-14.9269
-14.8415
-14.7429
-14.6304
-14.5033
-14.3611
-14.2031
-14.0288
-13.8379
-13.6299
-13.4048
-13.1624
-12.9029
-12.6266
-12.334
-12.0259
-11.7031
-11.367
-11.0188
-10.6601
-10.2929
-9.91887
-9.54021
-9.159
-8.77739
-8.39749
-8.02137
-7.65094
-7.28799
-6.93406
-6.59047
-6.25829
-5.93829
-5.63095
-5.33645
-5.05471
-4.78537
-4.52784
-4.28132
-4.04485
-3.81733
-3.59762
-3.38455
-3.177
-2.97394
-2.77453
-2.57812
-2.38434
-2.1931
-2.00465
-1.81954
-1.63862
-1.46301
-1.29399
-1.13292
-0.981169
-0.839969
-0.710334
-0.593011
-0.488339
-0.396432
-0.31677
-0.249137
-0.191785
-0.145516
-0.105296
-0.0781043
-0.0456918
-0.0425173
0.00626466
-0.0517355
-14.593
-14.6225
-14.6514
-14.6795
-14.707
-14.7344
-14.7619
-14.7902
-14.8195
-14.85
-14.8817
-14.9143
-14.9474
-14.9803
-15.0123
-15.0424
-15.0699
-15.0938
-15.1133
-15.1276
-15.1359
-15.1375
-15.1317
-15.1179
-15.0955
-15.0638
-15.0223
-14.9704
-14.9075
-14.8328
-14.7458
-14.6459
-14.5324
-14.4047
-14.2622
-14.1044
-13.9308
-13.741
-13.5347
-13.3118
-13.0722
-12.8161
-12.5437
-12.2556
-11.9525
-11.6354
-11.3052
-10.9634
-10.6115
-10.2512
-9.8843
-9.51276
-9.1386
-8.76386
-8.39056
-8.02065
-7.65599
-7.29826
-6.94898
-6.60941
-6.28058
-5.96326
-5.65794
-5.36483
-5.08389
-4.8148
-4.55705
-4.30991
-4.0725
-3.84382
-3.62283
-3.40845
-3.19965
-2.99549
-2.79519
-2.59816
-2.40407
-2.21285
-2.02472
-1.84022
-1.66014
-1.48549
-1.31749
-1.15738
-1.00644
-0.865802
-0.736414
-0.618968
-0.513777
-0.420954
-0.33999
-0.270723
-0.211413
-0.162999
-0.120309
-0.0907708
-0.0553235
-0.0502467
0.003008
-0.0557519
-14.5769
-14.6046
-14.632
-14.6589
-14.6853
-14.7116
-14.738
-14.7649
-14.7924
-14.8208
-14.8498
-14.8794
-14.9091
-14.9383
-14.9664
-14.9925
-15.016
-15.0359
-15.0514
-15.0619
-15.0666
-15.0647
-15.0556
-15.0387
-15.0134
-14.9791
-14.9351
-14.8809
-14.8159
-14.7394
-14.6509
-14.5497
-14.4353
-14.307
-14.1643
-14.0067
-13.8338
-13.6452
-13.4406
-13.2199
-12.983
-12.7303
-12.4618
-12.1782
-11.8801
-11.5683
-11.2441
-10.9086
-10.5633
-10.2098
-9.84981
-9.48524
-9.11799
-8.74998
-8.38315
-8.01936
-7.66038
-7.30782
-6.96313
-6.62755
-6.30207
-5.98746
-5.6842
-5.39254
-5.11246
-4.8437
-4.58582
-4.33815
-4.0999
-3.87018
-3.648
-3.4324
-3.22243
-3.01724
-2.81611
-2.61852
-2.42415
-2.23297
-2.04518
-1.86128
-1.68201
-1.50831
-1.34129
-1.18212
-1.03196
-0.891869
-0.762715
-0.645141
-0.539429
-0.445693
-0.363433
-0.292536
-0.231268
-0.1807
-0.13553
-0.103614
-0.0651165
-0.0580775
-0.000336057
-0.059778
-14.5605
-14.5866
-14.6125
-14.638
-14.6632
-14.6882
-14.7133
-14.7386
-14.7643
-14.7905
-14.817
-14.8436
-14.8701
-14.8958
-14.9201
-14.9424
-14.9619
-14.978
-14.9897
-14.9965
-14.9976
-14.9924
-14.9801
-14.9602
-14.932
-14.895
-14.8486
-14.7922
-14.7251
-14.6469
-14.5569
-14.4545
-14.3392
-14.2103
-14.0675
-13.9101
-13.7379
-13.5505
-13.3476
-13.1291
-12.895
-12.6455
-12.3809
-12.1017
-11.8085
-11.5021
-11.1836
-10.8543
-10.5154
-10.1686
-9.81538
-9.45764
-9.09714
-8.73574
-8.37525
-8.01747
-7.66408
-7.31662
-6.97648
-6.64486
-6.32274
-6.01085
-5.70969
-5.41953
-5.14038
-4.87204
-4.61411
-4.36602
-4.12704
-3.89636
-3.6731
-3.45637
-3.24532
-3.03917
-2.83728
-2.63917
-2.44457
-2.25344
-2.06599
-1.88269
-1.70422
-1.53144
-1.36538
-1.20712
-1.05772
-0.918155
-0.789222
-0.671514
-0.565282
-0.470637
-0.387086
-0.314562
-0.251338
-0.198606
-0.150947
-0.116625
-0.0750612
-0.0660017
-0.00375965
-0.0638102
-14.5438
-14.5684
-14.5927
-14.6169
-14.6407
-14.6644
-14.688
-14.7116
-14.7354
-14.7594
-14.7834
-14.8072
-14.8304
-14.8527
-14.8735
-14.8921
-14.9079
-14.9202
-14.9283
-14.9315
-14.9291
-14.9206
-14.9051
-14.8822
-14.8513
-14.8117
-14.7628
-14.7042
-14.6352
-14.5553
-14.4638
-14.3603
-14.2441
-14.1148
-13.9718
-13.8148
-13.6433
-13.457
-13.2558
-13.0396
-12.8082
-12.562
-12.3012
-12.0262
-11.7378
-11.4366
-11.1238
-10.8005
-10.4679
-10.1276
-9.78103
-9.42995
-9.07606
-8.72112
-8.36686
-8.01497
-7.66707
-7.32464
-6.98901
-6.66133
-6.34255
-6.03339
-5.73438
-5.44577
-5.16762
-4.89978
-4.6419
-4.39347
-4.15386
-3.92233
-3.69809
-3.48033
-3.26829
-3.06126
-2.85867
-2.66009
-2.46528
-2.27423
-2.08714
-1.90443
-1.72674
-1.55487
-1.38974
-1.23236
-1.0837
-0.944642
-0.81592
-0.698073
-0.591322
-0.495773
-0.410937
-0.33679
-0.271611
-0.216708
-0.166553
-0.129794
-0.0851492
-0.0740109
-0.00725569
-0.0678447
-14.5268
-14.5498
-14.5727
-14.5954
-14.6178
-14.64
-14.6621
-14.684
-14.7058
-14.7276
-14.749
-14.7701
-14.7903
-14.8094
-14.8267
-14.8418
-14.854
-14.8627
-14.8672
-14.8669
-14.8612
-14.8494
-14.8308
-14.805
-14.7713
-14.7292
-14.678
-14.6172
-14.5463
-14.4647
-14.3718
-14.2671
-14.1502
-14.0204
-13.8774
-13.7207
-13.5499
-13.3649
-13.1654
-12.9513
-12.7226
-12.4796
-12.2225
-11.9518
-11.668
-11.372
-11.0647
-10.7473
-10.4208
-10.0868
-9.74675
-9.40218
-9.05475
-8.70612
-8.35795
-8.01185
-7.66935
-7.33186
-7.00068
-6.67691
-6.36146
-6.05507
-5.75822
-5.47122
-5.19414
-4.92688
-4.66914
-4.42048
-4.18034
-3.94806
-3.72293
-3.50424
-3.29128
-3.08345
-2.88022
-2.68123
-2.48626
-2.29532
-2.10859
-1.92647
-1.74954
-1.57855
-1.41435
-1.25782
-1.10988
-0.971314
-0.842792
-0.724803
-0.617537
-0.521088
-0.434975
-0.359208
-0.292078
-0.234996
-0.182337
-0.143111
-0.0953724
-0.0820972
-0.010818
-0.0718768
-14.5095
-14.531
-14.5524
-14.5736
-14.5946
-14.6152
-14.6356
-14.6558
-14.6756
-14.6951
-14.7142
-14.7325
-14.7498
-14.7657
-14.7798
-14.7915
-14.8002
-14.8054
-14.8065
-14.8029
-14.7938
-14.7789
-14.7573
-14.7286
-14.6922
-14.6476
-14.5941
-14.5312
-14.4585
-14.3752
-14.281
-14.1753
-14.0575
-13.9274
-13.7843
-13.6279
-13.458
-13.2741
-13.0763
-12.8644
-12.6384
-12.3985
-12.1451
-11.8784
-11.5993
-11.3083
-11.0064
-10.6946
-10.3742
-10.0463
-9.71258
-9.37435
-9.03321
-8.69075
-8.34853
-8.00809
-7.67089
-7.33828
-7.01149
-6.69159
-6.37947
-6.07584
-5.78119
-5.49585
-5.21991
-4.9533
-4.6958
-4.447
-4.20643
-3.9735
-3.74759
-3.52805
-3.31428
-3.10572
-2.90192
-2.70256
-2.50747
-2.31665
-2.13029
-1.94876
-1.7726
-1.60248
-1.43916
-1.28348
-1.13623
-0.99815
-0.869823
-0.751691
-0.643913
-0.546572
-0.45919
-0.381809
-0.31273
-0.253461
-0.198292
-0.15657
-0.105724
-0.0902528
-0.0144413
-0.075901
-14.4918
-14.5119
-14.5319
-14.5516
-14.571
-14.5901
-14.6088
-14.6271
-14.6449
-14.6622
-14.6788
-14.6945
-14.709
-14.7219
-14.7328
-14.7412
-14.7466
-14.7485
-14.7463
-14.7394
-14.7272
-14.7091
-14.6846
-14.6532
-14.6142
-14.5671
-14.5113
-14.4464
-14.3718
-14.287
-14.1915
-14.0847
-13.9663
-13.8357
-13.6926
-13.5367
-13.3675
-13.1849
-12.9887
-12.7789
-12.5556
-12.3188
-12.0689
-11.8063
-11.5316
-11.2455
-10.9488
-10.6426
-10.328
-10.0062
-9.67852
-9.34646
-9.01146
-8.67501
-8.3386
-8.0037
-7.67169
-7.34387
-7.02141
-6.70535
-6.39654
-6.09568
-5.80327
-5.51963
-5.24489
-4.97903
-4.72184
-4.47301
-4.2321
-3.99862
-3.77202
-3.55173
-3.33722
-3.12801
-2.9237
-2.72403
-2.52885
-2.33819
-2.15221
-1.97128
-1.79587
-1.6266
-1.46416
-1.3093
-1.16274
-1.02513
-0.896995
-0.778723
-0.670439
-0.572215
-0.483573
-0.404584
-0.33356
-0.272096
-0.214411
-0.170163
-0.116199
-0.0984696
-0.0181215
-0.0799107
-14.4739
-14.4926
-14.5111
-14.5293
-14.5471
-14.5646
-14.5815
-14.598
-14.6138
-14.629
-14.6432
-14.6563
-14.668
-14.678
-14.6859
-14.6912