/*--------------------------------*- C++ -*----------------------------------*\
| =========                 |                                                 |
| \\      /  F ield         | OpenFOAM: The Open Source CFD Toolbox           |
|  \\    /   O peration     | Version:  2.1.1                                 |
|   \\  /    A nd           | Web:      www.OpenFOAM.org                      |
|    \\/     M anipulation  |                                                 |
\*---------------------------------------------------------------------------*/
FoamFile
{
    version     2.0;
    format      ascii;
    class       surfaceScalarField;
    location    "0.135";
    object      phi;
}
// * * * * * * * * * * * * * * * * * * * * * * * * * * * * * * * * * * * * * //

dimensions      [0 3 -1 0 0 0 0];

internalField   nonuniform List<scalar> 
13452
(
6.89923e-05
-5.05045e-07
6.88136e-05
1.78689e-07
6.82023e-05
6.11316e-07
6.7255e-05
9.47321e-07
6.61786e-05
1.07643e-06
6.50872e-05
1.09136e-06
6.40227e-05
1.06452e-06
6.30023e-05
1.02037e-06
6.20344e-05
9.67857e-07
6.11226e-05
9.1188e-07
6.02677e-05
8.54857e-07
5.94695e-05
7.98237e-07
5.87265e-05
7.42968e-07
5.80368e-05
6.8971e-07
5.73979e-05
6.38912e-07
5.6807e-05
5.90853e-07
5.62613e-05
5.45687e-07
5.57579e-05
5.03469e-07
5.52937e-05
4.64184e-07
5.48659e-05
4.27762e-07
5.44718e-05
3.94108e-07
5.41087e-05
3.6311e-07
5.3774e-05
3.34667e-07
5.34653e-05
3.08701e-07
5.31801e-05
2.85201e-07
5.29159e-05
2.64268e-07
5.26696e-05
2.46223e-07
5.24377e-05
2.31919e-07
5.22148e-05
2.22911e-07
5.19905e-05
2.24361e-07
5.17463e-05
2.44115e-07
5.14333e-05
3.13073e-07
5.01227e-07
5.0932e-05
7.0165e-05
-2.26052e-07
7.00411e-05
3.02509e-07
7.01818e-05
4.70689e-07
7.05091e-05
6.20002e-07
7.08596e-05
7.25894e-07
7.11586e-05
7.92403e-07
7.13833e-05
8.39777e-07
7.15355e-05
8.68164e-07
7.16231e-05
8.80256e-07
7.1655e-05
8.80034e-07
7.16394e-05
8.70443e-07
7.15838e-05
8.53813e-07
7.14948e-05
8.31948e-07
7.13782e-05
8.06314e-07
7.12391e-05
7.78086e-07
7.10817e-05
7.48203e-07
7.091e-05
7.1741e-07
7.07272e-05
6.86296e-07
7.0536e-05
6.55317e-07
7.0339e-05
6.24823e-07
7.0138e-05
5.95083e-07
6.99348e-05
5.66307e-07
6.97308e-05
5.38672e-07
6.95271e-05
5.1234e-07
6.93248e-05
4.87512e-07
6.91247e-05
4.64438e-07
6.89273e-05
4.436e-07
6.87336e-05
4.25586e-07
6.85444e-05
4.12113e-07
6.83648e-05
4.03951e-07
6.82007e-05
4.08245e-07
6.81006e-05
4.13123e-07
4.46428e-07
6.81554e-05
7.22816e-05
-5.11424e-08
7.23968e-05
1.87322e-07
7.25017e-05
3.65799e-07
7.25883e-05
5.33364e-07
7.26718e-05
6.42472e-07
7.2754e-05
7.10196e-07
7.28403e-05
7.53419e-07
7.29273e-05
7.81196e-07
7.30108e-05
7.96703e-07
7.30884e-05
8.02488e-07
7.31583e-05
8.00505e-07
7.32198e-05
7.92327e-07
7.32725e-05
7.79231e-07
7.33165e-05
7.62334e-07
7.3352e-05
7.42577e-07
7.33795e-05
7.20747e-07
7.33994e-05
6.97496e-07
7.34123e-05
6.73358e-07
7.34189e-05
6.48764e-07
7.34196e-05
6.24064e-07
7.34152e-05
5.99539e-07
7.34061e-05
5.75426e-07
7.33928e-05
5.51933e-07
7.33759e-05
5.29262e-07
7.33558e-05
5.07647e-07
7.33328e-05
4.87365e-07
7.33075e-05
4.68878e-07
7.32805e-05
4.52675e-07
7.32525e-05
4.40052e-07
7.32254e-05
4.3108e-07
7.32031e-05
4.305e-07
7.31879e-05
4.28391e-07
4.5129e-07
7.3183e-05
7.45185e-05
-4.30206e-08
7.44882e-05
2.17625e-07
7.44768e-05
3.77209e-07
7.45164e-05
4.93723e-07
7.45768e-05
5.82092e-07
7.46433e-05
6.43725e-07
7.47093e-05
6.87395e-07
7.47733e-05
7.17159e-07
7.48351e-05
7.34968e-07
7.48944e-05
7.4319e-07
7.4951e-05
7.43849e-07
7.50049e-05
7.38501e-07
7.50557e-05
7.28391e-07
7.51035e-05
7.14576e-07
7.51481e-05
6.97933e-07
7.51897e-05
6.79189e-07
7.52282e-05
6.58944e-07
7.52639e-05
6.37689e-07
7.52968e-05
6.1583e-07
7.53272e-05
5.93693e-07
7.53552e-05
5.71551e-07
7.5381e-05
5.49633e-07
7.54048e-05
5.28144e-07
7.54267e-05
5.07281e-07
7.54471e-05
4.87267e-07
7.54661e-05
4.68346e-07
7.54841e-05
4.50888e-07
7.55016e-05
4.35224e-07
7.55195e-05
4.22116e-07
7.55393e-05
4.11326e-07
7.55653e-05
4.04491e-07
7.55984e-05
3.95313e-07
3.88131e-07
7.56615e-05
7.66036e-05
9.276e-09
7.66283e-05
1.92916e-07
7.66648e-05
3.40719e-07
7.6703e-05
4.55506e-07
7.67415e-05
5.43614e-07
7.67811e-05
6.04059e-07
7.68232e-05
6.45301e-07
7.68673e-05
6.7305e-07
7.69124e-05
6.89906e-07
7.69576e-05
6.98014e-07
7.70023e-05
6.99141e-07
7.70461e-05
6.94655e-07
7.70888e-05
6.85678e-07
7.71302e-05
6.73167e-07
7.71702e-05
6.57926e-07
7.72088e-05
6.40626e-07
7.72459e-05
6.21826e-07
7.72816e-05
6.01986e-07
7.7316e-05
5.81485e-07
7.7349e-05
5.60633e-07
7.73809e-05
5.39688e-07
7.74117e-05
5.18868e-07
7.74414e-05
4.98366e-07
7.74704e-05
4.78365e-07
7.74986e-05
4.59056e-07
7.75263e-05
4.40636e-07
7.75538e-05
4.2336e-07
7.75816e-05
4.07406e-07
7.76106e-05
3.9312e-07
7.76419e-05
3.80056e-07
7.76779e-05
3.68513e-07
7.77189e-05
3.54259e-07
3.3838e-07
7.77687e-05
7.88312e-05
2.401e-08
7.88388e-05
1.85251e-07
7.88571e-05
3.22507e-07
7.8886e-05
4.26556e-07
7.89225e-05
5.07165e-07
7.89618e-05
5.64741e-07
7.90021e-05
6.04999e-07
7.90427e-05
6.32451e-07
7.90832e-05
6.49392e-07
7.91234e-05
6.57795e-07
7.91632e-05
6.59379e-07
7.92023e-05
6.55499e-07
7.92408e-05
6.4725e-07
7.92784e-05
6.35555e-07
7.93151e-05
6.21184e-07
7.9351e-05
6.04778e-07
7.93859e-05
5.86868e-07
7.942e-05
5.67892e-07
7.94533e-05
5.48212e-07
7.94858e-05
5.28124e-07
7.95176e-05
5.07873e-07
7.95488e-05
4.87666e-07
7.95795e-05
4.67681e-07
7.96098e-05
4.4808e-07
7.96398e-05
4.2902e-07
7.96698e-05
4.10642e-07
7.97001e-05
3.93096e-07
7.9731e-05
3.76433e-07
7.97635e-05
3.6071e-07
7.97981e-05
3.45408e-07
7.98365e-05
3.30153e-07
7.98785e-05
3.12207e-07
2.90937e-07
7.9926e-05
8.10848e-05
3.7797e-08
8.10948e-05
1.75214e-07
8.11184e-05
2.98947e-07
8.11492e-05
3.95765e-07
8.1184e-05
4.72355e-07
8.12201e-05
5.28571e-07
8.12569e-05
5.68186e-07
8.12942e-05
5.95205e-07
8.13316e-05
6.12011e-07
8.13688e-05
6.20537e-07
8.14058e-05
6.22433e-07
8.14423e-05
6.19007e-07
8.14782e-05
6.11314e-07
8.15135e-05
6.00239e-07
8.15482e-05
5.86522e-07
8.15822e-05
5.70777e-07
8.16155e-05
5.53515e-07
8.16483e-05
5.35156e-07
8.16804e-05
5.16047e-07
8.17121e-05
4.96472e-07
8.17433e-05
4.76665e-07
8.17741e-05
4.56821e-07
8.18047e-05
4.37104e-07
8.18351e-05
4.17653e-07
8.18656e-05
3.98588e-07
8.18962e-05
3.80002e-07
8.19274e-05
3.61959e-07
8.19594e-05
3.44419e-07
8.19928e-05
3.27271e-07
8.20282e-05
3.10001e-07
8.20663e-05
2.9203e-07
8.2107e-05
2.71586e-07
2.47833e-07
8.21501e-05
8.34101e-05
4.32333e-08
8.34201e-05
1.65226e-07
8.3441e-05
2.78021e-07
8.34687e-05
3.68101e-07
8.35012e-05
4.39822e-07
8.35362e-05
4.93595e-07
8.35723e-05
5.32111e-07
8.36088e-05
5.58677e-07
8.36453e-05
5.75472e-07
8.36816e-05
5.8425e-07
8.37175e-05
5.86548e-07
8.37529e-05
5.83617e-07
8.37877e-05
5.7648e-07
8.3822e-05
5.65993e-07
8.38556e-05
5.52873e-07
8.38887e-05
5.37713e-07
8.39212e-05
5.21009e-07
8.39532e-05
5.03166e-07
8.39847e-05
4.8452e-07
8.40158e-05
4.65345e-07
8.40466e-05
4.45864e-07
8.40772e-05
4.26261e-07
8.41076e-05
4.06685e-07
8.4138e-05
3.87253e-07
8.41685e-05
3.68055e-07
8.41994e-05
3.49143e-07
8.42308e-05
3.30519e-07
8.42632e-05
3.12091e-07
8.42968e-05
2.93667e-07
8.4332e-05
2.74784e-07
8.43692e-05
2.54873e-07
8.44079e-05
2.32792e-07
2.07872e-07
8.44479e-05
8.57964e-05
4.5609e-08
8.58063e-05
1.5532e-07
8.58266e-05
2.57697e-07
8.58535e-05
3.41212e-07
8.5885e-05
4.08334e-07
8.59189e-05
4.59632e-07
8.59541e-05
4.96955e-07
8.59898e-05
5.22956e-07
8.60257e-05
5.39615e-07
8.60614e-05
5.48547e-07
8.60967e-05
5.51183e-07
8.61316e-05
5.48707e-07
8.6166e-05
5.42095e-07
8.61998e-05
5.3217e-07
8.62331e-05
5.19617e-07
8.62658e-05
5.05012e-07
8.6298e-05
4.88828e-07
8.63297e-05
4.7146e-07
8.6361e-05
4.53232e-07
8.63919e-05
4.34407e-07
8.64226e-05
4.15199e-07
8.64531e-05
3.95781e-07
8.64835e-05
3.76286e-07
8.65139e-05
3.56816e-07
8.65445e-05
3.37434e-07
8.65755e-05
3.18163e-07
8.6607e-05
2.9897e-07
8.66394e-05
2.79735e-07
8.66728e-05
2.60248e-07
8.67075e-05
2.40123e-07
8.67435e-05
2.18885e-07
8.67804e-05
1.95811e-07
1.70471e-07
8.68178e-05
8.82501e-05
4.55158e-08
8.82602e-05
1.45231e-07
8.82795e-05
2.38337e-07
8.83051e-05
3.15679e-07
8.83351e-05
3.78311e-07
8.83679e-05
4.26845e-07
8.84022e-05
4.6264e-07
8.84373e-05
4.87827e-07
8.84728e-05
5.0417e-07
8.85082e-05
5.13134e-07
8.85434e-05
5.16023e-07
8.85781e-05
5.1394e-07
8.86124e-05
5.0781e-07
8.86462e-05
4.9841e-07
8.86794e-05
4.86397e-07
8.87121e-05
4.72319e-07
8.87443e-05
4.56634e-07
8.8776e-05
4.39721e-07
8.88074e-05
4.2189e-07
8.88384e-05
4.03395e-07
8.88691e-05
3.84439e-07
8.88997e-05
3.65185e-07
8.89303e-05
3.45755e-07
8.89608e-05
3.26234e-07
8.89916e-05
3.06669e-07
8.90227e-05
2.87064e-07
8.90543e-05
2.67368e-07
8.90866e-05
2.47462e-07
8.91197e-05
2.27147e-07
8.91537e-05
2.06122e-07
8.91885e-05
1.84029e-07
8.92239e-05
1.60421e-07
1.35064e-07
8.92593e-05
9.07728e-05
4.40457e-08
9.07828e-05
1.35174e-07
9.08013e-05
2.1988e-07
9.08257e-05
2.91254e-07
9.08546e-05
3.49473e-07
9.08863e-05
3.95098e-07
9.09198e-05
4.29158e-07
9.09543e-05
4.53346e-07
9.09892e-05
4.69203e-07
9.10243e-05
4.78048e-07
9.10593e-05
4.81064e-07
9.10939e-05
4.79274e-07
9.11282e-05
4.73542e-07
9.1162e-05
4.64604e-07
9.11953e-05
4.5308e-07
9.12282e-05
4.39492e-07
9.12605e-05
4.24276e-07
9.12924e-05
4.07794e-07
9.1324e-05
3.90343e-07
9.13552e-05
3.72165e-07
9.13862e-05
3.53455e-07
9.1417e-05
3.34362e-07
9.14478e-05
3.15e-07
9.14786e-05
2.95443e-07
9.15095e-05
2.75728e-07
9.15407e-05
2.55848e-07
9.15723e-05
2.35751e-07
9.16045e-05
2.15329e-07
9.16372e-05
1.94419e-07
9.16705e-05
1.72794e-07
9.17044e-05
1.50208e-07
9.17384e-05
1.26394e-07
1.01261e-07
9.17722e-05
9.3367e-05
4.17438e-08
9.3377e-05
1.2517e-07
9.33946e-05
2.02245e-07
9.34179e-05
2.67898e-07
9.34456e-05
3.2181e-07
9.34763e-05
3.64431e-07
9.35089e-05
3.96565e-07
9.35427e-05
4.19563e-07
9.35771e-05
4.34756e-07
9.36118e-05
4.43323e-07
9.36466e-05
4.46334e-07
9.36811e-05
4.44725e-07
9.37153e-05
4.39301e-07
9.37492e-05
4.30749e-07
9.37826e-05
4.19652e-07
9.38156e-05
4.06505e-07
9.38482e-05
3.9172e-07
9.38803e-05
3.7564e-07
9.39121e-05
3.58549e-07
9.39436e-05
3.40677e-07
9.39749e-05
3.22208e-07
9.40059e-05
3.03282e-07
9.40369e-05
2.84004e-07
9.40679e-05
2.64442e-07
9.4099e-05
2.44626e-07
9.41303e-05
2.2455e-07
9.41619e-05
2.04167e-07
9.41939e-05
1.8339e-07
9.42262e-05
1.62095e-07
9.42588e-05
1.40124e-07
9.42917e-05
1.1732e-07
9.43246e-05
9.35367e-08
6.87709e-08
9.43571e-05
9.60348e-05
3.89918e-08
9.60447e-05
1.15308e-07
9.60616e-05
1.85382e-07
9.60839e-05
2.45539e-07
9.61105e-05
2.95232e-07
9.61401e-05
3.34787e-07
9.61719e-05
3.64849e-07
9.62049e-05
3.86498e-07
9.62388e-05
4.00873e-07
9.62731e-05
4.09019e-07
9.63076e-05
4.11895e-07
9.63419e-05
4.10356e-07
9.63761e-05
4.05143e-07
9.64099e-05
3.96895e-07
9.64434e-05
3.86159e-07
9.64765e-05
3.73397e-07
9.65093e-05
3.59e-07
9.65416e-05
3.43291e-07
9.65736e-05
3.26538e-07
9.66053e-05
3.0896e-07
9.66368e-05
2.9073e-07
9.66681e-05
2.7198e-07
9.66993e-05
2.5281e-07
9.67305e-05
2.33281e-07
9.67617e-05
2.13425e-07
9.6793e-05
1.93238e-07
9.68245e-05
1.72686e-07
9.68561e-05
1.51707e-07
9.6888e-05
1.30214e-07
9.692e-05
1.08106e-07
9.69521e-05
8.52945e-08
9.69839e-05
6.17113e-08
3.74063e-08
9.70153e-05
9.87787e-05
3.60176e-08
9.87884e-05
1.0564e-07
9.88045e-05
1.69224e-07
9.8826e-05
2.24105e-07
9.88515e-05
2.69669e-07
9.88802e-05
3.0613e-07
9.8911e-05
3.34007e-07
9.89434e-05
3.54169e-07
9.89766e-05
3.67586e-07
9.90105e-05
3.75176e-07
9.90446e-05
3.77796e-07
9.90787e-05
3.76218e-07
9.91127e-05
3.71124e-07
9.91465e-05
3.63101e-07
9.918e-05
3.52659e-07
9.92132e-05
3.40229e-07
9.9246e-05
3.26176e-07
9.92785e-05
3.10807e-07
9.93107e-05
2.94372e-07
9.93426e-05
2.77078e-07
9.93742e-05
2.59089e-07
9.94056e-05
2.4053e-07
9.9437e-05
2.21495e-07
9.94682e-05
2.02046e-07
9.94994e-05
1.82214e-07
9.95306e-05
1.62004e-07
9.95619e-05
1.41398e-07
9.95933e-05
1.20356e-07
9.96247e-05
9.88249e-08
9.9656e-05
7.67509e-08
9.96872e-05
5.40927e-08
9.97181e-05
3.08336e-08
7.05248e-09
9.97485e-05
0.000101601
3.29612e-08
0.00010161
9.62086e-08
0.000101626
1.53718e-07
0.000101646
2.03531e-07
0.000101671
2.45054e-07
0.000101699
2.78409e-07
0.000101729
3.04015e-07
0.00010176
3.22576e-07
0.000101793
3.34911e-07
0.000101826
3.41825e-07
0.00010186
3.44076e-07
0.000101894
3.4236e-07
0.000101928
3.37296e-07
0.000101961
3.29423e-07
0.000101995
3.19212e-07
0.000102028
3.07063e-07
0.000102061
2.93316e-07
0.000102093
2.78258e-07
0.000102126
2.62125e-07
0.000102158
2.45109e-07
0.000102189
2.27368e-07
0.000102221
2.09019e-07
0.000102252
1.90154e-07
0.000102283
1.70833e-07
0.000102314
1.51094e-07
0.000102346
1.30949e-07
0.000102377
1.10395e-07
0.000102407
8.94148e-08
0.000102438
6.79843e-08
0.000102469
4.60826e-08
0.000102499
2.37038e-08
0.000102529
8.62636e-10
-2.2348e-08
0.000102559
0.000104503
2.99045e-08
0.000104513
8.70401e-08
0.000104528
1.38813e-07
0.000104547
1.83752e-07
0.000104571
2.2132e-07
0.000104598
2.51572e-07
0.000104627
2.74844e-07
0.000104658
2.91708e-07
0.00010469
3.02856e-07
0.000104723
3.08985e-07
0.000104756
3.10766e-07
0.00010479
3.08819e-07
0.000104823
3.03704e-07
0.000104857
2.95912e-07
0.00010489
2.85874e-07
0.000104923
2.7396e-07
0.000104956
2.60485e-07
0.000104989
2.45715e-07
0.000105021
2.29871e-07
0.000105053
2.13134e-07
0.000105085
1.95652e-07
0.000105116
1.77539e-07
0.000105147
1.58882e-07
0.000105178
1.39743e-07
0.000105209
1.20165e-07
0.00010524
1.0017e-07
0.000105271
7.97691e-08
0.000105301
5.89627e-08
0.000105331
3.77502e-08
0.000105361
1.61356e-08
0.000105391
-5.86318e-09
0.00010542
-2.82125e-08
-5.08144e-08
0.000105448
0.000107489
2.68938e-08
0.000107498
7.8148e-08
0.000107512
1.24466e-07
0.000107531
1.64707e-07
0.000107554
1.98405e-07
0.00010758
2.25567e-07
0.000107609
2.46459e-07
0.000107639
2.6155e-07
0.00010767
2.71418e-07
0.000107703
2.76669e-07
0.000107735
2.77887e-07
0.000107769
2.75626e-07
0.000107802
2.70385e-07
0.000107835
2.62611e-07
0.000107868
2.52695e-07
0.000107901
2.40975e-07
0.000107934
2.27743e-07
0.000107967
2.13243e-07
0.000107999
1.97683e-07
0.000108031
1.81231e-07
0.000108062
1.64025e-07
0.000108094
1.46177e-07
0.000108125
1.2777e-07
0.000108156
1.0887e-07
0.000108186
8.9523e-08
0.000108217
6.97604e-08
0.000108247
4.96047e-08
0.000108277
2.90725e-08
0.000108306
8.18016e-09
0.000108335
-1.30504e-08
0.000108364
-3.45858e-08
0.000108392
-5.63816e-08
-7.83398e-08
0.00010842
0.00011056
2.39534e-08
0.000110568
6.95353e-08
0.000110582
1.10636e-07
0.000110601
1.4634e-07
0.000110623
1.76251e-07
0.000110648
2.00343e-07
0.000110676
2.18823e-07
0.000110705
2.32077e-07
0.000110736
2.40589e-07
0.000110768
2.44878e-07
0.0001108
2.45454e-07
0.000110833
2.42803e-07
0.000110866
2.37372e-07
0.000110899
2.29559e-07
0.000110932
2.19719e-07
0.000110965
2.08161e-07
0.000110997
1.95148e-07
0.00011103
1.80908e-07
0.000111062
1.6563e-07
0.000111094
1.49473e-07
0.000111125
1.32567e-07
0.000111156
1.15017e-07
0.000111187
9.69076e-08
0.000111218
7.83035e-08
0.000111248
5.92559e-08
0.000111278
3.98041e-08
0.000111307
1.99802e-08
0.000111337
-1.87293e-10
0.000111366
-2.06695e-08
0.000111394
-4.14321e-08
0.000111422
-6.24324e-08
0.000111449
-8.36202e-08
-1.049e-07
0.000111476
0.000113718
2.10945e-08
0.000113727
6.11974e-08
0.00011374
9.72835e-08
0.000113758
1.28597e-07
0.000113779
1.54799e-07
0.000113804
1.75846e-07
0.000113831
1.91896e-07
0.000113859
2.03263e-07
0.00011389
2.10355e-07
0.000113921
2.13611e-07
0.000113953
2.13474e-07
0.000113985
2.10369e-07
0.000114018
2.04689e-07
0.000114051
1.9679e-07
0.000114084
1.86989e-07
0.000114116
1.75563e-07
0.000114149
1.62754e-07
0.000114181
1.48767e-07
0.000114213
1.33777e-07
0.000114244
1.17931e-07
0.000114275
1.01352e-07
0.000114306
8.41389e-08
0.000114337
6.63746e-08
0.000114367
4.81253e-08
0.000114397
2.94453e-08
0.000114426
1.03796e-08
0.000114455
-9.03185e-09
0.000114484
-2.87521e-08
0.000114512
-4.87433e-08
0.000114539
-6.89634e-08
0.000114566
-8.93642e-08
0.000114593
-1.09893e-07
-1.3046e-07
0.000114618
0.000116967
1.83202e-08
0.000116975
5.31238e-08
0.000116988
8.43734e-08
0.000117005
1.11428e-07
0.000117026
1.33997e-07
0.00011705
1.52025e-07
0.000117076
1.65633e-07
0.000117104
1.75076e-07
0.000117134
1.80694e-07
0.000117165
1.82858e-07
0.000117196
1.81949e-07
0.000117228
1.78334e-07
0.000117261
1.72357e-07
0.000117293
1.64332e-07
0.000117326
1.54538e-07
0.000117358
1.43225e-07
0.00011739
1.30609e-07
0.000117422
1.16876e-07
0.000117454
1.02185e-07
0.000117485
8.66718e-08
0.000117516
7.04504e-08
0.000117546
5.36158e-08
0.000117576
3.62475e-08
0.000117606
1.84122e-08
0.000117635
1.66878e-10
0.000117664
-1.84406e-08
0.000117692
-3.73638e-08
0.00011772
-5.65603e-08
0.000117748
-7.59865e-08
0.000117774
-9.55959e-08
0.0001178
-1.15338e-07
0.000117825
-1.35159e-07
-1.54975e-07
0.00011785
0.000120309
1.56293e-08
0.000120317
4.53007e-08
0.000120329
7.18704e-08
0.000120346
9.47843e-08
0.000120366
1.1379e-07
0.000120389
1.28829e-07
0.000120415
1.39989e-07
0.000120442
1.4748e-07
0.000120471
1.5158e-07
0.000120502
1.52604e-07
0.000120533
1.50873e-07
0.000120564
1.46703e-07
0.000120596
1.4039e-07
0.000120628
1.32206e-07
0.000120661
1.22399e-07
0.000120693
1.11185e-07
0.000120725
9.87587e-08
0.000120756
8.52858e-08
0.000120787
7.09106e-08
0.000120818
5.57564e-08
0.000120849
3.99286e-08
0.000120879
2.35167e-08
0.000120909
6.59711e-09
0.000120938
-1.07643e-08
0.000120966
-2.851e-08
0.000120995
-4.65886e-08
0.000121022
-6.49516e-08
0.000121049
-8.35527e-08
0.000121076
-1.02345e-07
0.000121101
-1.21279e-07
0.000121126
-1.40305e-07
0.00012115
-1.59371e-07
-1.78395e-07
0.000121174
0.000123746
1.30181e-08
0.000123753
3.7712e-08
0.000123766
5.97411e-08
0.000123782
7.86192e-08
0.000123801
9.4127e-08
0.000123824
1.06206e-07
0.000123849
1.14917e-07
0.000123876
1.20432e-07
0.000123905
1.22982e-07
0.000123934
1.22827e-07
0.000123965
1.20234e-07
0.000123996
1.15472e-07
0.000124028
1.08793e-07
0.00012406
1.00429e-07
0.000124092
9.05924e-08
0.000124123
7.94735e-08
0.000124155
6.72407e-08
0.000124186
5.40415e-08
0.000124217
4.00043e-08
0.000124247
2.52403e-08
0.000124277
9.84573e-09
0.000124307
-6.09599e-09
0.000124336
-2.25123e-08
0.000124365
-3.93395e-08
0.000124393
-5.65202e-08
0.00012442
-7.40021e-08
0.000124447
-9.17356e-08
0.000124473
-1.09672e-07
0.000124499
-1.27765e-07
0.000124523
-1.45963e-07
0.000124547
-1.64217e-07
0.00012457
-1.82478e-07
-2.0067e-07
0.000124593
0.000127281
1.04812e-08
0.000127288
3.03397e-08
0.0001273
4.79514e-08
0.000127316
6.28856e-08
0.000127335
7.49519e-08
0.000127357
8.40973e-08
0.000127382
9.03607e-08
0.000127408
9.38854e-08
0.000127436
9.48602e-08
0.000127466
9.34954e-08
0.000127496
9.00114e-08
0.000127527
8.46332e-08
0.000127558
7.75674e-08
0.00012759
6.9009e-08
0.000127621
5.91382e-08
0.000127652
4.81163e-08
0.000127683
3.60884e-08
0.000127714
2.31827e-08
0.000127745
9.51163e-09
0.000127775
-4.82613e-09
0.000127804
-1.97439e-08
0.000127834
-3.51651e-08
0.000127862
-5.1022e-08
0.00012789
-6.72537e-08
0.000127917
-8.38047e-08
0.000127944
-1.00623e-07
0.00012797
-1.1766e-07
0.000127995
-1.34866e-07
0.000128019
-1.52194e-07
0.000128043
-1.69596e-07
0.000128066
-1.87024e-07
0.000128088
-2.0443e-07
-2.21743e-07
0.000128109
0.000130917
8.01452e-09
0.000130925
2.31692e-08
0.000130936
3.64744e-08
0.000130951
4.7545e-08
0.00013097
5.62188e-08
0.000130992
6.24539e-08
0.000131016
6.62657e-08
0.000131042
6.77852e-08
0.00013107
6.71646e-08
0.000131099
6.45687e-08
0.000131128
6.01711e-08
0.000131159
5.41597e-08
0.00013119
4.66966e-08
0.000131221
3.79402e-08
0.000131252
2.8039e-08
0.000131283
1.71252e-08
0.000131314
5.32184e-09
0.000131344
-7.26287e-09
0.000131374
-2.05331e-08
0.000131404
-3.4403e-08
0.000131433
-4.87957e-08
0.000131461
-6.36424e-08
0.000131489
-7.88811e-08
0.000131516
-9.44549e-08
0.000131543
-1.10311e-07
0.000131569
-1.26399e-07
0.000131594
-1.42672e-07
0.000131618
-1.59083e-07
0.000131641
-1.75584e-07
0.000131664
-1.92131e-07
0.000131685
-2.08676e-07
0.000131706
-2.25177e-07
-2.41566e-07
0.000131726
0.000134658
5.60886e-09
0.000134665
1.61768e-08
0.000134676
2.52674e-08
0.000134691
3.25364e-08
0.000134709
3.78544e-08
0.00013473
4.12041e-08
0.000134754
4.25641e-08
0.00013478
4.20719e-08
0.000134807
3.98429e-08
0.000134836
3.60008e-08
0.000134865
3.06791e-08
0.000134895
2.40343e-08
0.000134926
1.61705e-08
0.000134957
7.2207e-09
0.000134987
-2.697e-09
0.000135018
-1.3486e-08
0.000135048
-2.5038e-08
0.000135078
-3.72688e-08
0.000135108
-5.00983e-08
0.000135137
-6.3454e-08
0.000135165
-7.72698e-08
0.000135193
-9.14855e-08
0.00013522
-1.06045e-07
0.000135247
-1.20898e-07
0.000135272
-1.35993e-07
0.000135297
-1.51285e-07
0.000135321
-1.66728e-07
0.000135345
-1.82278e-07
0.000135367
-1.9789e-07
0.000135388
-2.13521e-07
0.000135409
-2.29128e-07
0.000135428
-2.4467e-07
-2.60086e-07
0.000135447
0.000138505
3.27529e-09
0.000138511
9.37788e-09
0.000138522
1.43441e-08
0.000138537
1.78614e-08
0.000138555
1.98445e-08
0.000138576
2.02973e-08
0.000138599
1.91626e-08
0.000138625
1.66519e-08
0.000138652
1.28067e-08
0.00013868
7.7133e-09
0.000138709
1.43821e-09
0.000138739
-5.82172e-09
0.000138769
-1.40723e-08
0.0001388
-2.31956e-08
0.00013883
-3.31097e-08
0.00013886
-4.37367e-08
0.00013889
-5.50001e-08
0.00013892
-6.68332e-08
0.000138949
-7.91729e-08
0.000138978
-9.19606e-08
0.000139005
-1.05142e-07
0.000139033
-1.18664e-07
0.000139059
-1.32481e-07
0.000139085
-1.46545e-07
0.00013911
-1.60813e-07
0.000139133
-1.75241e-07
0.000139157
-1.89787e-07
0.000139179
-2.04411e-07
0.0001392
-2.1907e-07
0.00013922
-2.33726e-07
0.000139239
-2.48338e-07
0.000139257
-2.62869e-07
-2.77262e-07
0.000139275
0.000142462
9.60352e-10
0.000142468
2.68266e-09
0.000142479
3.57728e-09
0.000142494
3.36315e-09
0.000142511
2.03591e-09
0.000142532
-2.75551e-10
0.000142555
-3.97752e-09
0.00014258
-8.51469e-09
0.000142607
-1.39944e-08
0.000142635
-2.03397e-08
0.000142664
-2.75022e-08
0.000142694
-3.54102e-08
0.000142724
-4.40334e-08
0.000142754
-5.3311e-08
0.000142784
-6.31899e-08
0.000142814
-7.36209e-08
0.000142843
-8.45546e-08
0.000142872
-9.59434e-08
0.000142901
-1.07742e-07
0.000142929
-1.19905e-07
0.000142956
-1.32391e-07
0.000142983
-1.45157e-07
0.000143008
-1.58165e-07
0.000143033
-1.71373e-07
0.000143057
-1.84744e-07
0.00014308
-1.9824e-07
0.000143102
-2.11822e-07
0.000143123
-2.25454e-07
0.000143143
-2.39097e-07
0.000143162
-2.52715e-07
0.00014318
-2.66273e-07
0.000143197
-2.79735e-07
-2.9305e-07
0.000143213
0.000146531
-1.15968e-09
0.000146538
-3.65046e-09
0.000146548
-6.76327e-09
0.000146562
-1.07359e-08
0.00014658
-1.54997e-08
0.0001466
-2.09428e-08
0.000146623
-2.70623e-08
0.000146649
-3.36736e-08
0.000146675
-4.07838e-08
0.000146703
-4.83741e-08
0.000146732
-5.64324e-08
0.000146762
-6.49375e-08
0.000146792
-7.38843e-08
0.000146822
-8.32597e-08
0.000146852
-9.3045e-08
0.000146881
-1.03219e-07
0.00014691
-1.13758e-07
0.000146939
-1.24636e-07
0.000146967
-1.35824e-07
0.000146995
-1.47292e-07
0.000147021
-1.59011e-07
0.000147047
-1.70949e-07
0.000147072
-1.83074e-07
0.000147096
-1.95354e-07
0.000147119
-2.07757e-07
0.000147141
-2.20249e-07
0.000147162
-2.32798e-07
0.000147182
-2.45369e-07
0.000147201
-2.57932e-07
0.000147218
-2.70452e-07
0.000147235
-2.82897e-07
0.00014725
-2.95237e-07
-3.07426e-07
0.000147265
0.000150718
-3.59335e-09
0.000150725
-1.0215e-08
0.000150735
-1.72218e-08
0.000150749
-2.48303e-08
0.000150767
-3.2914e-08
0.000150787
-4.12905e-08
0.00015081
-4.9889e-08
0.000150835
-5.8588e-08
0.000150861
-6.73572e-08
0.000150889
-7.62086e-08
0.000150918
-8.51674e-08
0.000150947
-9.42605e-08
0.000150977
-1.03521e-07
0.000151007
-1.12973e-07
0.000151036
-1.22633e-07
0.000151065
-1.3251e-07
0.000151094
-1.42607e-07
0.000151123
-1.52918e-07
0.00015115
-1.63435e-07
0.000151177
-1.74144e-07
0.000151203
-1.85028e-07
0.000151228
-1.96066e-07
0.000151252
-2.07236e-07
0.000151275
-2.18514e-07
0.000151298
-2.29875e-07
0.000151319
-2.41291e-07
0.000151339
-2.52734e-07
0.000151357
-2.64176e-07
0.000151375
-2.75589e-07
0.000151392
-2.86944e-07
0.000151407
-2.98212e-07
0.000151421
-3.09367e-07
-3.20366e-07
0.000151434
0.000155023
-4.86336e-09
0.000155028
-1.54449e-08
0.000155038
-2.66847e-08
0.000155051
-3.85538e-08
0.000155069
-5.05249e-08
0.00015509
-6.22322e-08
0.000155113
-7.35224e-08
0.000155139
-8.43335e-08
0.000155167
-9.46987e-08
0.000155195
-1.04699e-07
0.000155224
-1.14424e-07
0.000155254
-1.23962e-07
0.000155284
-1.33393e-07
0.000155314
-1.42785e-07
0.000155343
-1.52192e-07
0.000155372
-1.61652e-07
0.000155401
-1.71194e-07
0.000155429
-1.80835e-07
0.000155456
-1.90582e-07
0.000155482
-2.00438e-07
0.000155508
-2.10397e-07
0.000155532
-2.2045e-07
0.000155555
-2.30583e-07
0.000155578
-2.4078e-07
0.000155599
-2.51022e-07
0.000155619
-2.61287e-07
0.000155638
-2.71553e-07
0.000155655
-2.81798e-07
0.000155672
-2.91997e-07
0.000155687
-3.02126e-07
0.000155701
-3.1216e-07
0.000155714
-3.22078e-07
-3.31841e-07
0.000155725
0.000159454
-8.6813e-09
0.000159461
-2.24593e-08
0.000159472
-3.68626e-08
0.000159485
-5.19308e-08
0.000159502
-6.7185e-08
0.000159521
-8.20328e-08
0.000159544
-9.60914e-08
0.000159569
-1.09202e-07
0.000159596
-1.21377e-07
0.000159624
-1.32719e-07
0.000159653
-1.43365e-07
0.000159682
-1.53456e-07
0.000159712
-1.63127e-07
0.000159741
-1.72492e-07
0.000159771
-1.81647e-07
0.0001598
-1.90669e-07
0.000159828
-1.99616e-07
0.000159856
-2.0853e-07
0.000159883
-2.17442e-07
0.000159909
-2.2637e-07
0.000159934
-2.35325e-07
0.000159958
-2.44309e-07
0.00015998
-2.53319e-07
0.000160002
-2.62349e-07
0.000160022
-2.71386e-07
0.000160041
-2.80416e-07
0.000160059
-2.89423e-07
0.000160076
-2.9839e-07
0.000160091
-3.07297e-07
0.000160105
-3.16123e-07
0.000160118
-3.24849e-07
0.000160129
-3.33456e-07
-3.4191e-07
0.000160139
0.000164003
-6.0313e-09
0.000164005
-2.41799e-08
0.000164013
-4.48681e-08
0.000164028
-6.62715e-08
0.000164047
-8.66892e-08
0.00016407
-1.05369e-07
0.000164096
-1.22164e-07
0.000164124
-1.37182e-07
0.000164154
-1.50638e-07
0.000164184
-1.62772e-07
0.000164214
-1.73825e-07
0.000164245
-1.84017e-07
0.000164275
-1.9354e-07
0.000164305
-2.02556e-07
0.000164335
-2.11193e-07
0.000164364
-2.19556e-07
0.000164392
-2.27724e-07
0.000164419
-2.35759e-07
0.000164445
-2.43704e-07
0.00016447
-2.51592e-07
0.000164495
-2.59443e-07
0.000164518
-2.6727e-07
0.000164539
-2.75077e-07
0.00016456
-2.82864e-07
0.000164579
-2.90627e-07
0.000164597
-2.98357e-07
0.000164614
-3.06044e-07
0.000164629
-3.13674e-07
0.000164643
-3.21232e-07
0.000164655
-3.28705e-07
0.000164667
-3.36076e-07
0.000164677
-3.4333e-07
-3.50438e-07
0.000164685
0.000168701
-1.5441e-08
0.000168709
-3.21804e-08
0.000168717
-5.2477e-08
0.000168726
-7.57472e-08
0.00016874
-1.00087e-07
0.000168758
-1.23225e-07
0.000168779
-1.43989e-07
0.000168804
-1.62167e-07
0.000168832
-1.77983e-07
0.000168861
-1.91767e-07
0.000168891
-2.03868e-07
0.000168921
-2.1461e-07
0.000168952
-2.24279e-07
0.000168983
-2.33114e-07
0.000169013
-2.4131e-07
0.000169042
-2.49021e-07
0.000169071
-2.5637e-07
0.000169099
-2.63449e-07
0.000169125
-2.7033e-07
0.000169151
-2.77065e-07
0.000169175
-2.83691e-07
0.000169198
-2.90236e-07
0.000169219
-2.96714e-07
0.00016924
-3.03136e-07
0.000169259
-3.09504e-07
0.000169276
-3.15818e-07
0.000169292
-3.22072e-07
0.000169307
-3.2826e-07
0.00016932
-3.34371e-07
0.000169332
-3.40394e-07
0.000169342
-3.46317e-07
0.000169351
-3.52129e-07
-3.57807e-07
0.000169358
0.000173491
4.61862e-09
0.000173485
-2.57684e-08
0.000173494
-6.18799e-08
0.000173515
-9.68247e-08
0.000173543
-1.27625e-07
0.000173573
-1.53811e-07
0.000173605
-1.76004e-07
0.000173638
-1.94784e-07
0.000173671
-2.10719e-07
0.000173703
-2.24311e-07
0.000173735
-2.36008e-07
0.000173767
-2.46198e-07
0.000173798
-2.55198e-07
0.000173828
-2.63264e-07
0.000173857
-2.70602e-07
0.000173886
-2.77375e-07
0.000173913
-2.8371e-07
0.000173939
-2.89709e-07
0.000173965
-2.95447e-07
0.000173988
-3.00984e-07
0.000174011
-3.06363e-07
0.000174032
-3.11615e-07
0.000174053
-3.16764e-07
0.000174071
-3.21823e-07
0.000174089
-3.26802e-07
0.000174104
-3.31704e-07
0.000174119
-3.3653e-07
0.000174132
-3.41277e-07
0.000174143
-3.4594e-07
0.000174154
-3.50512e-07
0.000174162
-3.54985e-07
0.000174169
-3.5935e-07
-3.63589e-07
0.000174175
0.000178498
-2.45997e-08
0.0001785
-2.78837e-08
0.000178489
-5.05823e-08
0.00017848
-8.79954e-08
0.000178482
-1.29728e-07
0.000178495
-1.66862e-07
0.000178516
-1.97233e-07
0.000178543
-2.21555e-07
0.000178573
-2.41146e-07
0.000178606
-2.56995e-07
0.00017864
-2.69904e-07
0.000178674
-2.80536e-07
0.000178708
-2.89418e-07
0.000178742
-2.96961e-07
0.000178775
-3.03481e-07
0.000178807
-3.09221e-07
0.000178838
-3.14368e-07
0.000178867
-3.19062e-07
0.000178895
-3.23411e-07
0.000178921
-3.27495e-07
0.000178946
-3.31374e-07
0.00017897
-3.35091e-07
0.000178992
-3.38679e-07
0.000179012
-3.42159e-07
0.000179031
-3.45546e-07
0.000179048
-3.48851e-07
0.000179064
-3.52077e-07
0.000179077
-3.55226e-07
0.00017909
-3.58298e-07
0.000179101
-3.61289e-07
0.00017911
-3.64195e-07
0.000179118
-3.67013e-07
-3.69729e-07
0.000179124
0.000183487
5.61744e-08
0.000183465
-5.90333e-09
0.000183501
-8.6468e-08
0.000183552
-1.39349e-07
0.000183602
-1.80254e-07
0.000183648
-2.12146e-07
0.000183688
-2.37678e-07
0.000183725
-2.5866e-07
0.00018376
-2.75811e-07
0.000183793
-2.89832e-07
0.000183824
-3.01385e-07
0.000183855
-3.10982e-07
0.000183884
-3.19019e-07
0.000183913
-3.25811e-07
0.000183941
-3.3161e-07
0.000183969
-3.36616e-07
0.000183995
-3.40985e-07
0.000184021
-3.44842e-07
0.000184046
-3.48283e-07
0.00018407
-3.51386e-07
0.000184093
-3.5421e-07
0.000184114
-3.56804e-07
0.000184135
-3.59202e-07
0.000184154
-3.61433e-07
0.000184172
-3.6352e-07
0.000184189
-3.65476e-07
0.000184204
-3.67315e-07
0.000184218
-3.69045e-07
0.00018423
-3.70669e-07
0.000184241
-3.72189e-07
0.00018425
-3.73607e-07
0.000184258
-3.7492e-07
-3.76123e-07
0.000184265
0.000188861
7.42046e-09
0.000188795
5.94308e-08
0.000188709
-4.37237e-10
0.000188645
-7.53347e-08
0.000188627
-1.61626e-07
0.00018864
-2.25206e-07
0.000188671
-2.69255e-07
0.000188713
-3.00649e-07
0.000188761
-3.23612e-07
0.000188812
-3.40726e-07
0.000188864
-3.53626e-07
0.000188917
-3.63436e-07
0.000188969
-3.70951e-07
0.00018902
-3.76742e-07
0.000189069
-3.81221e-07
0.000189117
-3.84689e-07
0.000189164
-3.8737e-07
0.000189208
-3.89433e-07