/*--------------------------------*- C++ -*----------------------------------*\
| =========                 |                                                 |
| \\      /  F ield         | OpenFOAM: The Open Source CFD Toolbox           |
|  \\    /   O peration     | Version:  2.1.1                                 |
|   \\  /    A nd           | Web:      www.OpenFOAM.org                      |
|    \\/     M anipulation  |                                                 |
\*---------------------------------------------------------------------------*/
FoamFile
{
    version     2.0;
    format      ascii;
    class       volVectorField;
    location    "0.135";
    object      U;
}
// * * * * * * * * * * * * * * * * * * * * * * * * * * * * * * * * * * * * * //

dimensions      [0 1 -1 0 0 0 0];

internalField   nonuniform List<vector> 
6820
(
(8.34337 -0.360078 0)
(8.40111 -0.24716 0)
(8.35614 -0.115301 0)
(8.24789 -0.0365695 0)
(8.1195 0.00599044 0)
(7.98615 0.0278456 0)
(7.85414 0.0386084 0)
(7.72686 0.0433014 0)
(7.60572 0.0445658 0)
(7.49127 0.0438586 0)
(7.38374 0.0420211 0)
(7.28317 0.0395579 0)
(7.18942 0.0367798 0)
(7.1023 0.0338824 0)
(7.02151 0.0309894 0)
(6.94676 0.0281781 0)
(6.87767 0.0254957 0)
(6.81391 0.022969 0)
(6.7551 0.0206113 0)
(6.7009 0.0184269 0)
(6.65096 0.0164146 0)
(6.60495 0.0145699 0)
(6.56256 0.0128869 0)
(6.52348 0.0113607 0)
(6.48741 0.00998905 0)
(6.45404 0.00877694 0)
(6.42307 0.00774106 0)
(6.39409 0.00693225 0)
(6.36662 0.00644969 0)
(6.33976 0.00656462 0)
(6.31197 0.00809547 0)
(6.28026 0.011775 0)
(6.23529 0.0292993 0)
(8.32139 0.166248 0)
(8.28709 0.189995 0)
(8.28544 0.132144 0)
(8.31742 0.0958317 0)
(8.36173 0.0749867 0)
(8.4018 0.0623162 0)
(8.43292 0.0548237 0)
(8.45504 0.0502895 0)
(8.46902 0.0473724 0)
(8.47587 0.0453587 0)
(8.47663 0.0438537 0)
(8.47224 0.0426194 0)
(8.46353 0.0415167 0)
(8.45123 0.0404684 0)
(8.43597 0.0394337 0)
(8.41833 0.0383938 0)
(8.39877 0.0373421 0)
(8.37772 0.0362794 0)
(8.35553 0.0352101 0)
(8.33251 0.0341402 0)
(8.30891 0.0330767 0)
(8.28496 0.0320273 0)
(8.26084 0.0310005 0)
(8.2367 0.0300069 0)
(8.21266 0.0290614 0)
(8.18883 0.0281864 0)
(8.1653 0.0274217 0)
(8.14212 0.0268385 0)
(8.11953 0.0265691 0)
(8.09728 0.0269392 0)
(8.07755 0.0283566 0)
(8.05778 0.0328325 0)
(8.05882 0.0403874 0)
(8.3225 -0.0608878 0)
(8.31398 -0.0832899 0)
(8.33052 -0.0541101 0)
(8.34436 -0.0203199 0)
(8.35326 0.00238107 0)
(8.36231 0.0164968 0)
(8.37208 0.0257243 0)
(8.38215 0.0319286 0)
(8.39204 0.0361333 0)
(8.40137 0.0389835 0)
(8.40988 0.0408735 0)
(8.41746 0.0420473 0)
(8.42404 0.0426785 0)
(8.4296 0.042898 0)
(8.43416 0.0428048 0)
(8.43777 0.042475 0)
(8.44049 0.0419675 0)
(8.44236 0.0413285 0)
(8.44347 0.0405944 0)
(8.44388 0.039794 0)
(8.44365 0.0389506 0)
(8.44286 0.0380835 0)
(8.44156 0.0372098 0)
(8.43981 0.0363459 0)
(8.43767 0.035511 0)
(8.43519 0.0347278 0)
(8.43241 0.0340364 0)
(8.42937 0.0334768 0)
(8.4262 0.0331862 0)
(8.42293 0.0331283 0)
(8.42008 0.0339729 0)
(8.41759 0.0338989 0)
(8.41677 0.0368311 0)
(8.33365 0.0145601 0)
(8.32977 0.0476876 0)
(8.32739 0.0539485 0)
(8.32875 0.0465285 0)
(8.33466 0.0410196 0)
(8.34221 0.0385032 0)
(8.34975 0.0376787 0)
(8.35702 0.0376178 0)
(8.36406 0.0378191 0)
(8.37084 0.038062 0)
(8.37733 0.0382477 0)
(8.38351 0.0383347 0)
(8.38937 0.0383131 0)
(8.39488 0.038186 0)
(8.40005 0.0379612 0)
(8.40487 0.0376495 0)
(8.40935 0.0372626 0)
(8.4135 0.0368125 0)
(8.41733 0.0363105 0)
(8.42087 0.0357677 0)
(8.42413 0.0351942 0)
(8.42713 0.0346002 0)
(8.4299 0.0339963 0)
(8.43245 0.0333946 0)
(8.43481 0.0328109 0)
(8.43701 0.0322654 0)
(8.43907 0.0317905 0)
(8.44103 0.0314244 0)
(8.443 0.0312435 0)
(8.44502 0.0312811 0)
(8.44755 0.0316991 0)
(8.45063 0.0321999 0)
(8.45563 0.0331891 0)
(8.3302 -0.00531432 0)
(8.32722 -0.00751935 0)
(8.33139 -0.00247662 0)
(8.33609 0.00799751 0)
(8.34018 0.0171588 0)
(8.34438 0.0233608 0)
(8.34883 0.0275275 0)
(8.35353 0.0304709 0)
(8.3584 0.0325919 0)
(8.36332 0.0341226 0)
(8.36822 0.0352079 0)
(8.37304 0.0359419 0)
(8.37775 0.0363908 0)
(8.38233 0.0366057 0)
(8.38676 0.0366286 0)
(8.39103 0.0364945 0)
(8.39514 0.0362332 0)
(8.3991 0.0358695 0)
(8.40291 0.0354246 0)
(8.40657 0.0349162 0)
(8.4101 0.0343599 0)
(8.4135 0.0337693 0)
(8.41679 0.0331578 0)
(8.41997 0.0325385 0)
(8.42308 0.0319268 0)
(8.42611 0.0313402 0)
(8.4291 0.0308038 0)
(8.4321 0.0303396 0)
(8.43517 0.0299937 0)
(8.43839 0.0297406 0)
(8.44201 0.0296607 0)
(8.44612 0.0293094 0)
(8.45106 0.0288855 0)
(8.33239 0.00228075 0)
(8.33119 0.0132955 0)
(8.33281 0.0203725 0)
(8.33553 0.0237495 0)
(8.339 0.0258862 0)
(8.34308 0.0276753 0)
(8.34734 0.029331 0)
(8.35162 0.0308015 0)
(8.35591 0.0320061 0)
(8.36019 0.0329333 0)
(8.36442 0.033605 0)
(8.36859 0.0340487 0)
(8.3727 0.0342927 0)
(8.37672 0.0343654 0)
(8.38065 0.0342933 0)
(8.38449 0.0340995 0)
(8.38823 0.0338046 0)
(8.39188 0.0334262 0)
(8.39543 0.0329797 0)
(8.39891 0.0324783 0)
(8.40231 0.0319339 0)
(8.40564 0.0313573 0)
(8.4089 0.0307587 0)
(8.41212 0.0301487 0)
(8.41531 0.0295391 0)
(8.41847 0.0289423 0)
(8.42165 0.0283741 0)
(8.42487 0.0278453 0)
(8.4282 0.0273718 0)
(8.43172 0.0269223 0)
(8.43555 0.0264835 0)
(8.43977 0.0258037 0)
(8.44449 0.0248448 0)
(8.33233 0.00086756 0)
(8.33152 0.00576794 0)
(8.33342 0.0107322 0)
(8.33648 0.0155177 0)
(8.3399 0.0198866 0)
(8.34358 0.0233778 0)
(8.34735 0.0260376 0)
(8.35116 0.0280609 0)
(8.355 0.0295843 0)
(8.35884 0.0307097 0)
(8.36266 0.0315139 0)
(8.36644 0.0320524 0)
(8.37016 0.032368 0)
(8.37382 0.0324963 0)
(8.37742 0.0324673 0)
(8.38095 0.0323063 0)
(8.38441 0.0320351 0)
(8.3878 0.0316723 0)
(8.39113 0.0312338 0)
(8.39441 0.0307333 0)
(8.39764 0.0301827 0)
(8.40083 0.0295926 0)
(8.40398 0.0289728 0)
(8.40711 0.0283323 0)
(8.41023 0.0276804 0)
(8.41336 0.0270256 0)
(8.41653 0.0263761 0)
(8.41976 0.0257335 0)
(8.42311 0.0250957 0)
(8.42663 0.0244245 0)
(8.4304 0.0236775 0)
(8.43444 0.0226794 0)
(8.43875 0.0213445 0)
(8.33272 0.00170482 0)
(8.33256 0.0072729 0)
(8.33418 0.012553 0)
(8.33678 0.0168015 0)
(8.33983 0.020233 0)
(8.34324 0.0229355 0)
(8.34682 0.0250722 0)
(8.35046 0.0267763 0)
(8.35411 0.028107 0)
(8.35776 0.0291104 0)
(8.36136 0.0298322 0)
(8.36493 0.0303123 0)
(8.36844 0.0305848 0)
(8.37189 0.0306803 0)
(8.37528 0.0306254 0)
(8.37861 0.0304431 0)
(8.38189 0.0301533 0)
(8.38511 0.029773 0)
(8.38828 0.0293168 0)
(8.39141 0.0287972 0)
(8.3945 0.0282249 0)
(8.39756 0.027609 0)
(8.4006 0.0269579 0)
(8.40364 0.0262787 0)
(8.40668 0.0255776 0)
(8.40974 0.0248592 0)
(8.41284 0.0241256 0)
(8.41602 0.0233717 0)
(8.4193 0.0225853 0)
(8.42273 0.0217285 0)
(8.42634 0.0207518 0)
(8.43014 0.0195393 0)
(8.43409 0.0180159 0)
(8.33284 0.00178267 0)
(8.33294 0.0064424 0)
(8.33444 0.0109426 0)
(8.33686 0.0148168 0)
(8.33975 0.018165 0)
(8.34296 0.0209387 0)
(8.34634 0.0231642 0)
(8.3498 0.0249244 0)
(8.35328 0.0262848 0)
(8.35676 0.0273031 0)
(8.36022 0.0280324 0)
(8.36363 0.0285164 0)
(8.367 0.0287914 0)
(8.37031 0.028888 0)
(8.37357 0.0288328 0)
(8.37677 0.0286483 0)
(8.37992 0.0283537 0)
(8.38302 0.0279655 0)
(8.38608 0.0274976 0)
(8.3891 0.0269618 0)
(8.39209 0.0263682 0)
(8.39506 0.025725 0)
(8.39801 0.0250393 0)
(8.40096 0.0243165 0)
(8.40392 0.0235606 0)
(8.40691 0.022773 0)
(8.40994 0.0219517 0)
(8.41304 0.0210877 0)
(8.41623 0.0201643 0)
(8.41953 0.019147 0)
(8.42296 0.0179907 0)
(8.42651 0.0166178 0)
(8.43014 0.0149728 0)
(8.33294 0.00182384 0)
(8.33323 0.00611787 0)
(8.33464 0.010313 0)
(8.33685 0.0139609 0)
(8.33952 0.0170775 0)
(8.34251 0.0196512 0)
(8.34571 0.0217223 0)
(8.349 0.0233697 0)
(8.35234 0.0246532 0)
(8.35569 0.0256205 0)
(8.35903 0.0263154 0)
(8.36233 0.0267755 0)
(8.3656 0.027033 0)
(8.36881 0.0271159 0)
(8.37197 0.0270488 0)
(8.37508 0.0268527 0)
(8.37815 0.0265455 0)
(8.38116 0.0261429 0)
(8.38414 0.0256577 0)
(8.38708 0.0251009 0)
(8.39 0.0244817 0)
(8.39289 0.0238073 0)
(8.39578 0.0230836 0)
(8.39866 0.0223144 0)
(8.40155 0.0215017 0)
(8.40447 0.0206447 0)
(8.40743 0.0197388 0)
(8.41044 0.0187731 0)
(8.41352 0.0177302 0)
(8.41669 0.0165808 0)
(8.41994 0.0152878 0)
(8.42326 0.0137999 0)
(8.42662 0.0120815 0)
(8.33299 0.00178654 0)
(8.33338 0.00568919 0)
(8.3347 0.00948213 0)
(8.33674 0.0128294 0)
(8.33922 0.0157217 0)
(8.34203 0.018151 0)
(8.34504 0.0201341 0)
(8.34818 0.0217229 0)
(8.35138 0.0229651 0)
(8.3546 0.0239026 0)
(8.35782 0.0245752 0)
(8.36102 0.0250185 0)
(8.36418 0.025263 0)
(8.36731 0.0253352 0)
(8.37039 0.0252583 0)
(8.37343 0.0250521 0)
(8.37642 0.0247337 0)
(8.37937 0.0243175 0)
(8.38228 0.0238157 0)
(8.38516 0.0232384 0)
(8.38802 0.0225939 0)
(8.39085 0.0218885 0)
(8.39368 0.0211269 0)
(8.3965 0.0203119 0)
(8.39933 0.0194439 0)
(8.40218 0.0185208 0)
(8.40506 0.0175364 0)
(8.40798 0.01648 0)
(8.41096 0.0153352 0)
(8.41399 0.0140782 0)
(8.41708 0.0126808 0)
(8.4202 0.0111092 0)
(8.42332 0.0093425 0)
(8.33302 0.00170808 0)
(8.33347 0.00528345 0)
(8.3347 0.00874574 0)
(8.33659 0.0118384 0)
(8.3389 0.0145256 0)
(8.34152 0.0167968 0)
(8.34436 0.0186621 0)
(8.34734 0.0201615 0)
(8.3504 0.0213366 0)
(8.35349 0.0222246 0)
(8.3566 0.0228607 0)
(8.35969 0.0232766 0)
(8.36276 0.0234999 0)
(8.3658 0.0235551 0)
(8.36881 0.0234633 0)
(8.37177 0.0232431 0)
(8.3747 0.02291 0)
(8.37758 0.0224776 0)
(8.38044 0.021957 0)
(8.38326 0.0213576 0)
(8.38606 0.0206865 0)
(8.38884 0.0199495 0)
(8.39161 0.0191501 0)
(8.39437 0.0182902 0)
(8.39714 0.0173693 0)
(8.39992 0.0163844 0)
(8.40273 0.0153292 0)
(8.40556 0.0141936 0)
(8.40843 0.0129633 0)
(8.41133 0.0116201 0)
(8.41426 0.0101432 0)
(8.4172 0.00851099 0)
(8.42012 0.00671253 0)
(8.33303 0.0016055 0)
(8.3335 0.00487815 0)
(8.33466 0.0080282 0)
(8.33641 0.0108649 0)
(8.33856 0.0133437 0)
(8.34102 0.0154535 0)
(8.3437 0.0171992 0)
(8.34652 0.0186094 0)
(8.34944 0.0197172 0)
(8.3524 0.0205544 0)
(8.35539 0.0211516 0)
(8.35838 0.0215371 0)
(8.36136 0.0217363 0)
(8.36431 0.0217714 0)
(8.36723 0.021662 0)
(8.37012 0.0214252 0)
(8.37298 0.0210755 0)
(8.3758 0.0206253 0)
(8.37859 0.0200847 0)
(8.38136 0.0194623 0)
(8.3841 0.0187645 0)
(8.38682 0.0179961 0)
(8.38953 0.01716 0)
(8.39223 0.0162574 0)
(8.39494 0.0152873 0)
(8.39765 0.0142463 0)
(8.40037 0.0131284 0)
(8.40311 0.0119249 0)
(8.40587 0.0106243 0)
(8.40864 0.00921268 0)
(8.41143 0.00767564 0)
(8.4142 0.00599951 0)
(8.41695 0.00417991 0)
(8.33304 0.00149043 0)
(8.33351 0.00448096 0)
(8.3346 0.00734456 0)
(8.33622 0.00993929 0)
(8.33823 0.0122179 0)
(8.34053 0.0141671 0)
(8.34306 0.0157881 0)
(8.34574 0.017101 0)
(8.34851 0.018133 0)
(8.35135 0.018911 0)
(8.35422 0.0194619 0)
(8.35711 0.0198107 0)
(8.35998 0.0199801 0)
(8.36285 0.0199905 0)
(8.36569 0.0198595 0)
(8.3685 0.0196028 0)
(8.37128 0.0192336 0)
(8.37404 0.0187633 0)
(8.37676 0.0182011 0)
(8.37947 0.0175547 0)
(8.38214 0.0168297 0)
(8.3848 0.0160303 0)
(8.38745 0.0151589 0)
(8.39009 0.0142161 0)
(8.39272 0.0132007 0)
(8.39535 0.0121094 0)
(8.39799 0.0109371 0)
(8.40063 0.00967637 0)
(8.40328 0.0083184 0)
(8.40593 0.00685312 0)
(8.40857 0.00527082 0)
(8.41119 0.00356324 0)
(8.41378 0.00173001 0)
(8.33304 0.00136987 0)
(8.3335 0.00409271 0)
(8.33453 0.00668822 0)
(8.33603 0.00904949 0)
(8.33791 0.0111314 0)
(8.34007 0.0129191 0)
(8.34245 0.0144116 0)
(8.34499 0.0156228 0)
(8.34763 0.0165741 0)
(8.35035 0.0172883 0)
(8.3531 0.0177882 0)
(8.35588 0.018096 0)
(8.35866 0.0182317 0)
(8.36143 0.0182136 0)
(8.36418 0.0180579 0)
(8.36692 0.0177785 0)
(8.36963 0.0173877 0)
(8.37231 0.0168955 0)
(8.37496 0.0163106 0)
(8.3776 0.0156396 0)
(8.38021 0.0148876 0)
(8.3828 0.0140581 0)
(8.38538 0.0131532 0)
(8.38794 0.0121733 0)
(8.3905 0.011117 0)
(8.39305 0.00998158 0)
(8.39559 0.00876271 0)
(8.39813 0.00745466 0)
(8.40067 0.00605075 0)
(8.40319 0.00454402 0)
(8.4057 0.00292828 0)
(8.40818 0.00119882 0)
(8.41062 -0.000642369 0)
(8.33304 0.00124801 0)
(8.33348 0.0037149 0)
(8.33445 0.00605802 0)
(8.33585 0.00819518 0)
(8.3376 0.0100853 0)
(8.33963 0.0117128 0)
(8.34188 0.0130745 0)
(8.34429 0.01418 0)
(8.3468 0.0150458 0)
(8.3494 0.015691 0)
(8.35204 0.0161351 0)
(8.35471 0.0163971 0)
(8.35739 0.0164949 0)
(8.36007 0.0164447 0)
(8.36274 0.016261 0)
(8.36539 0.0159563 0)
(8.36802 0.0155417 0)
(8.37062 0.0150262 0)
(8.37321 0.0144176 0)
(8.37577 0.0137217 0)
(8.37831 0.0129432 0)
(8.38083 0.012085 0)
(8.38333 0.0111489 0)
(8.38581 0.0101352 0)
(8.38829 0.00904277 0)
(8.39075 0.00786936 0)
(8.39319 0.00661154 0)
(8.39563 0.00526504 0)
(8.39805 0.00382512 0)
(8.40045 0.00228719 0)
(8.40283 0.000647564 0)
(8.40517 -0.00109609 0)
(8.40746 -0.00294049 0)
(8.33304 0.00112728 0)
(8.33346 0.00334823 0)
(8.33436 0.0054518 0)
(8.33568 0.00737309 0)
(8.33732 0.0090758 0)
(8.33923 0.010544 0)
(8.34135 0.0117733 0)
(8.34363 0.0127698 0)
(8.34603 0.0135463 0)
(8.3485 0.0141183 0)
(8.35104 0.0145023 0)
(8.3536 0.0147147 0)
(8.35618 0.014771 0)
(8.35877 0.0146856 0)
(8.36135 0.0144711 0)
(8.36391 0.014139 0)
(8.36646 0.013699 0)
(8.36899 0.0131591 0)
(8.3715 0.0125263 0)
(8.37398 0.0118059 0)
(8.37644 0.0110017 0)
(8.37889 0.0101166 0)
(8.38131 0.00915208 0)
(8.38371 0.00810835 0)
(8.38609 0.00698467 0)
(8.38846 0.00577932 0)
(8.39081 0.00448977 0)
(8.39314 0.003113 0)
(8.39544 0.00164586 0)
(8.39772 8.55222e-05 0)
(8.39997 -0.0015699 0)
(8.40218 -0.00332123 0)
(8.40434 -0.00516449 0)
(8.33304 0.00100898 0)
(8.33343 0.00299296 0)
(8.33429 0.00486784 0)
(8.33552 0.00658091 0)
(8.33706 0.00810051 0)
(8.33885 0.00941096 0)
(8.34086 0.010507 0)
(8.34302 0.0113921 0)
(8.3453 0.0120761 0)
(8.34767 0.0125713 0)
(8.35009 0.0128915 0)
(8.35256 0.0130508 0)
(8.35504 0.0130624 0)
(8.35753 0.0129388 0)
(8.36002 0.0126914 0)
(8.3625 0.01233 0)
(8.36497 0.0118632 0)
(8.36742 0.0112983 0)
(8.36984 0.0106412 0)
(8.37225 0.00989675 0)
(8.37463 0.0090684 0)
(8.37699 0.00815856 0)
(8.37933 0.0071686 0)
(8.38164 0.00609889 0)
(8.38394 0.00494897 0)
(8.38621 0.00371765 0)
(8.38845 0.00240322 0)
(8.39067 0.00100371 0)
(8.39286 -0.00048278 0)
(8.39502 -0.00205777 0)
(8.39714 -0.00372192 0)
(8.39922 -0.00547507 0)
(8.40125 -0.00731295 0)
(8.33304 0.00089376 0)
(8.33341 0.00264902 0)
(8.33421 0.0043045 0)
(8.33537 0.00581627 0)
(8.33681 0.00715685 0)
(8.33851 0.00831124 0)
(8.3404 0.00927352 0)
(8.34245 0.0100454 0)
(8.34462 0.0106341 0)
(8.34688 0.0110494 0)
(8.34921 0.0113027 0)
(8.35157 0.0114057 0)
(8.35396 0.0113699 0)
(8.35636 0.0112059 0)
(8.35876 0.0109234 0)
(8.36116 0.0105312 0)
(8.36354 0.0100368 0)
(8.36591 0.00944655 0)
(8.36825 0.00876563 0)
(8.37057 0.00799821 0)
(8.37287 0.0071474 0)
(8.37515 0.00621536 0)
(8.3774 0.00520337 0)
(8.37962 0.00411192 0)
(8.38182 0.00294083 0)
(8.38399 0.00168942 0)
(8.38613 0.000356669 0)
(8.38825 -0.00105854 0)
(8.39032 -0.00255717 0)
(8.39236 -0.00413977 0)
(8.39436 -0.00580618 0)
(8.39631 -0.00755562 0)
(8.39821 -0.00938374 0)
(8.33303 0.000781883 0)
(8.33339 0.00231608 0)
(8.33414 0.00376023 0)
(8.33523 0.00507699 0)
(8.33659 0.00624247 0)
(8.33819 0.00724265 0)
(8.33998 0.00807127 0)
(8.34193 0.00872873 0)
(8.344 0.00922009 0)
(8.34615 0.0095531 0)
(8.34838 0.0097369 0)
(8.35065 0.00978122 0)
(8.35294 0.00969565 0)
(8.35525 0.00948926 0)
(8.35757 0.00917041 0)
(8.35988 0.00874651 0)
(8.36217 0.00822405 0)
(8.36446 0.00760854 0)
(8.36672 0.0069045 0)
(8.36896 0.00611554 0)
(8.37117 0.0052444 0)
(8.37336 0.00429301 0)
(8.37552 0.0032626 0)
(8.37765 0.00215376 0)
(8.37976 0.000966586 0)
(8.38183 -0.000299166 0)
(8.38386 -0.00164396 0)
(8.38586 -0.00306826 0)
(8.38783 -0.00457232 0)
(8.38975 -0.00615602 0)
(8.39162 -0.00781863 0)
(8.39345 -0.00955899 0)
(8.39522 -0.0113728 0)
(8.33303 0.000673366 0)
(8.33336 0.00199362 0)
(8.33407 0.00323356 0)
(8.3351 0.00436091 0)
(8.33638 0.00535491 0)
(8.33789 0.00620263 0)
(8.33959 0.00689772 0)
(8.34144 0.00743964 0)
(8.34341 0.00783186 0)
(8.34548 0.00808032 0)
(8.34761 0.00819229 0)
(8.34978 0.00817568 0)
(8.35199 0.00803842 0)
(8.35421 0.00778807 0)
(8.35644 0.00743162 0)
(8.35866 0.00697537 0)
(8.36088 0.00642479 0)
(8.36307 0.00578456 0)
(8.36525 0.00505856 0)
(8.36741 0.00424989 0)
(8.36954 0.00336092 0)
(8.37164 0.00239339 0)
(8.37371 0.00134846 0)
(8.37574 0.000226806 0)
(8.37775 -0.000971253 0)
(8.37972 -0.00224561 0)
(8.38165 -0.0035963 0)
(8.38354 -0.00502329 0)
(8.38539 -0.00652631 0)
(8.38719 -0.00810478 0)
(8.38895 -0.00975761 0)
(8.39065 -0.0114834 0)
(8.3923 -0.0132781 0)
(8.33303 0.0005681 0)
(8.33334 0.00168103 0)
(8.33401 0.00272311 0)
(8.33498 0.00366623 0)
(8.33619 0.00449232 0)
(8.33762 0.00518972 0)
(8.33924 0.00575216 0)
(8.341 0.00617845 0)
(8.34288 0.00647084 0)
(8.34485 0.00663366 0)
(8.34689 0.00667255 0)
(8.34898 0.00659384 0)
(8.35109 0.00640387 0)
(8.35323 0.00610877 0)
(8.35537 0.0057143 0)
(8.35752 0.00522565 0)
(8.35965 0.00464737 0)
(8.36176 0.00398338 0)
(8.36385 0.00323692 0)
(8.36592 0.00241061 0)
(8.36796 0.0015065 0)
(8.36998 0.000526132 0)
(8.37195 -0.000529405 0)
(8.3739 -0.00165937 0)
(8.3758 -0.00286326 0)
(8.37767 -0.00414076 0)
(8.37949 -0.00549153 0)
(8.38128 -0.00691518 0)
(8.38301 -0.0084111 0)
(8.3847 -0.00997838 0)
(8.38634 -0.0116157 0)
(8.38792 -0.0133217 0)
(8.38945 -0.0150923 0)
(8.33303 0.000465896 0)
(8.33332 0.00137754 0)
(8.33396 0.00222726 0)
(8.33487 0.00299032 0)
(8.33602 0.003651 0)
(8.33738 0.00419896 0)
(8.33891 0.00462819 0)
(8.34059 0.00493739 0)
(8.34239 0.00512799 0)
(8.34427 0.00520307 0)
(8.34623 0.0051668 0)
(8.34823 0.00502415 0)
(8.35026 0.00478006 0)
(8.35232 0.00443934 0)
(8.35438 0.00400655 0)
(8.35644 0.00348578 0)
(8.35848 0.00288072 0)
(8.36052 0.0021945 0)
(8.36253 0.00142975 0)
(8.36451 0.000588609 0)
(8.36646 -0.000327213 0)
(8.36838 -0.0013164 0)
(8.37027 -0.00237794 0)
(8.37212 -0.00351109 0)
(8.37393 -0.00471526 0)
(8.37569 -0.00598992 0)
(8.37741 -0.00733453 0)
(8.37909 -0.00874844 0)
(8.38071 -0.0102308 0)
(8.38229 -0.0117806 0)
(8.38381 -0.0133963 0)
(8.38527 -0.0150764 0)
(8.38668 -0.0168172 0)
(8.33303 0.000366567 0)
(8.33331 0.0010827 0)
(8.3339 0.00174555 0)
(8.33477 0.00233351 0)
(8.33586 0.00283313 0)
(8.33715 0.0032356 0)
(8.33861 0.00353484 0)
(8.34022 0.0037294 0)
(8.34193 0.00381991 0)
(8.34374 0.00380838 0)
(8.34562 0.00369781 0)
(8.34754 0.00349195 0)
(8.3495 0.00319413 0)
(8.35147 0.00280806 0)
(8.35345 0.00233735 0)
(8.35543 0.00178504 0)
(8.3574 0.00115406 0)
(8.35935 0.000446848 0)
(8.36127 -0.000334532 0)
(8.36317 -0.00118836 0)
(8.36504 -0.00211326 0)
(8.36687 -0.0031081 0)
(8.36866 -0.004172 0)
(8.37042 -0.00530423 0)
(8.37213 -0.00650413 0)
(8.37379 -0.00777107 0)
(8.37541 -0.00910436 0)
(8.37698 -0.0105032 0)
(8.37849 -0.0119666 0)
(8.37995 -0.0134934 0)
(8.38136 -0.0150822 0)
(8.38271 -0.0167313 0)
(8.384 -0.0184373 0)
(8.33303 0.000269812 0)
(8.33329 0.000794934 0)
(8.33386 0.0012737 0)
(8.33468 0.00168678 0)
(8.33572 0.00202291 0)
(8.33695 0.00227501 0)
(8.33835 0.00243816 0)
(8.33988 0.00251281 0)
(8.34153 0.00249871 0)
(8.34326 0.00239668 0)
(8.34506 0.0022082 0)
(8.34691 0.00193719 0)
(8.34879 0.0015852 0)
(8.35069 0.00115435 0)
(8.35259 0.000647044 0)
(8.35449 6.56397e-05 0)
(8.35638 -0.000588079 0)
(8.35825 -0.00131246 0)
(8.3601 -0.00210601 0)
(8.36191 -0.00296751 0)
(8.36369 -0.00389593 0)
(8.36544 -0.00489042 0)
(8.36714 -0.00595025 0)
(8.3688 -0.00707476 0)
(8.37041 -0.00826331 0)
(8.37198 -0.00951523 0)
(8.37349 -0.0108298 0)
(8.37495 -0.0122061 0)
(8.37636 -0.013643 0)
(8.37772 -0.0151395 0)
(8.37901 -0.016694 0)
(8.38025 -0.018305 0)
(8.38143 -0.019969 0)
(8.33302 0.000175813 0)
(8.33327 0.000516858 0)
(8.33381 0.000820552 0)
(8.33459 0.00107034 0)
(8.33558 0.00125699 0)
(8.33675 0.00137575 0)
(8.33809 0.00141523 0)
(8.33957 0.0013788 0)
(8.34115 0.00126715 0)
(8.34282 0.00108026 0)
(8.34455 0.000819601 0)
(8.34634 0.000484545 0)
(8.34815 7.78569e-05 0)
(8.34998 -0.00039859 0)
(8.35181 -0.000943524 0)
(8.35363 -0.00155546 0)
(8.35545 -0.00223332 0)
(8.35724 -0.00297599 0)
(8.35901 -0.00378252 0)
(8.36074 -0.00465206 0)
(8.36244 -0.00558391 0)
(8.36409 -0.00657742 0)
(8.36571 -0.00763202 0)
(8.36728 -0.00874713 0)
(8.36879 -0.00992217 0)
(8.37026 -0.0111565 0)
(8.37168 -0.0124493 0)
(8.37304 -0.0137997 0)
(8.37434 -0.0152067 0)
(8.37559 -0.0166691 0)
(8.37677 -0.0181854 0)
(8.3779 -0.0197543 0)
(8.37896 -0.0213726 0)
(8.33302 8.2965e-05 0)
(8.33326 0.000236933 0)
(8.33378 0.000353179 0)
(8.33452 0.000417072 0)
(8.33548 0.000424285 0)
(8.3366 0.000371813 0)
(8.33788 0.000268617 0)
(8.3393 0.000107126 0)
(8.34083 -0.000113657 0)
(8.34244 -0.000393013 0)
(8.34411 -0.00073037 0)
(8.34583 -0.0011279 0)
(8.34757 -0.00158437 0)
(8.34933 -0.00209944 0)
(8.35109 -0.0026732 0)
(8.35285 -0.00330574 0)
(8.35459 -0.00399676 0)
(8.35631 -0.00474604 0)
(8.358 -0.00555337 0)
(8.35965 -0.00641849 0)
(8.36127 -0.00734115 0)
(8.36284 -0.00832102 0)
(8.36437 -0.00935778 0)
(8.36584 -0.010451 0)
(8.36727 -0.0116002 0)
(8.36864 -0.0128047 0)
(8.36996 -0.014064 0)
(8.37122 -0.0153769 0)
(8.37242 -0.0167427 0)
(8.37357 -0.01816 0)
(8.37465 -0.0196275 0)
(8.37566 -0.0211439 0)
(8.37662 -0.0227061 0)
(8.33302 -3.13989e-06 0)
(8.33324 -8.60123e-06 0)
(8.33371 -3.51562e-05 0)
(8.33441 -9.98456e-05 0)
(8.33532 -0.000210451 0)
(8.33641 -0.000373014 0)
(8.33766 -0.000580046 0)
(8.33904 -0.000839135 0)
(8.34052 -0.00115095 0)
(8.34208 -0.00151411 0)
(8.34371 -0.0019287 0)
(8.34537 -0.00239308 0)
(8.34706 -0.00290804 0)
(8.34877 -0.00347394 0)
(8.35047 -0.00409085 0)
(8.35216 -0.00475887 0)
(8.35384 -0.00547811 0)
(8.35549 -0.00624872 0)
(8.3571 -0.0070708 0)
(8.35868 -0.00794441 0)
(8.36022 -0.00886959 0)
(8.36171 -0.00984626 0)
(8.36315 -0.0108743 0)
(8.36454 -0.0119535 0)
(8.36588 -0.0130835 0)
(8.36716 -0.0142638 0)
(8.36838 -0.0154938 0)
(8.36955 -0.0167729 0)
(8.37065 -0.0181 0)
(8.37169 -0.0194741 0)
(8.37267 -0.0208941 0)
(8.37358 -0.0223587 0)
(8.37443 -0.0238651 0)
(8.33303 -0.000101016 0)
(8.33326 -0.000326728 0)
(8.33373 -0.000598656 0)
(8.33441 -0.000916267 0)
(8.33529 -0.00126614 0)
(8.33634 -0.00163614 0)
(8.33753 -0.00202881 0)
(8.33886 -0.00243855 0)
(8.34029 -0.00286653 0)
(8.3418 -0.00331674 0)
(8.34337 -0.00379344 0)
(8.34497 -0.00430051 0)
(8.34661 -0.00484197 0)
(8.34825 -0.00542094 0)
(8.34989 -0.00603998 0)
(8.35152 -0.00670124 0)
(8.35313 -0.00740643 0)
(8.35471 -0.00815689 0)
(8.35626 -0.00895361 0)
(8.35777 -0.00979732 0)
(8.35923 -0.0106885 0)
(8.36065 -0.0116274 0)
(8.36201 -0.0126142 0)
(8.36332 -0.0136487 0)
(8.36457 -0.0147306 0)
(8.36576 -0.0158596 0)
(8.3669 -0.0170351 0)
(8.36797 -0.0182562 0)
(8.36898 -0.0195222 0)
(8.36992 -0.0208319 0)
(8.3708 -0.0221842 0)
(8.37162 -0.0235779 0)
(8.37237 -0.0250104 0)
(8.333 -0.000147636 0)
(8.33315 -0.000406347 0)
(8.33354 -0.000670141 0)
(8.33417 -0.000976336 0)
(8.33501 -0.00133752 0)
(8.33606 -0.00175253 0)
(8.33726 -0.00221462 0)
(8.3386 -0.00271421 0)
(8.34003 -0.00324566 0)
(8.34154 -0.00380569 0)
(8.34309 -0.00439255 0)
(8.34468 -0.00500577 0)
(8.34629 -0.00564605 0)
(8.34789 -0.00631467 0)
(8.34949 -0.0070132 0)
(8.35107 -0.0077433 0)
(8.35262 -0.00850658 0)
(8.35414 -0.00930457 0)
(8.35563 -0.0101386 0)
(8.35706 -0.0110098 0)
(8.35845 -0.0119192 0)
(8.35979 -0.0128675 0)
(8.36108 -0.0138553 0)
(8.3623 -0.014883 0)
(8.36347 -0.0159506 0)
(8.36458 -0.0170581 0)
(8.36562 -0.0182054 0)
(8.3666 -0.019392 0)
(8.36752 -0.0206173 0)
(8.36837 -0.0218806 0)
(8.36915 -0.023181 0)
(8.36987 -0.0245177 0)
(8.37052 -0.0258883 0)
(8.33305 -0.000337377 0)
(8.33334 -0.00108739 0)
(8.33379 -0.0019173 0)
(8.3344 -0.00276034 0)
(8.33518 -0.00356051 0)
(8.33614 -0.00429733 0)
(8.33725 -0.00497335 0)
(8.3385 -0.00559932 0)
(8.33985 -0.00618901 0)
(8.34128 -0.00675641 0)
(8.34278 -0.00731428 0)
(8.34431 -0.00787362 0)
(8.34586 -0.00844361 0)
(8.34742 -0.00903167 0)
(8.34897 -0.00964362 0)
(8.3505 -0.010284 0)
(8.352 -0.0109563 0)
(8.35347 -0.0116631 0)
(8.35489 -0.0124065 0)
(8.35628 -0.0131877 0)
(8.35761 -0.0140078 0)
(8.35888 -0.0148674 0)
(8.3601 -0.0157669 0)
(8.36126 -0.0167062 0)
(8.36235 -0.0176852 0)
(8.36339 -0.0187037 0)
(8.36435 -0.019761 0)
(8.36526 -0.0208565 0)
(8.36609 -0.0219895 0)
(8.36686 -0.023159 0)
(8.36755 -0.024364 0)
(8.36818 -0.0256034 0)
(8.36874 -0.026875 0)
(8.33294 -0.00010239 0)
(8.33285 -0.000217182 0)
(8.33307 -0.000396199 0)
(8.33364 -0.000767517 0)
(8.33452 -0.00133501 0)
(8.33562 -0.00204297 0)
(8.33689 -0.00283396 0)
(8.33827 -0.00366662 0)
(8.33973 -0.00451523 0)
(8.34124 -0.00536508 0)
(8.34279 -0.00620892 0)
(8.34434 -0.00704453 0)
(8.34589 -0.00787292 0)
(8.34743 -0.0086969 0)
(8.34895 -0.00952018 0)
(8.35043 -0.0103468 0)
(8.35188 -0.0111807 0)
(8.35329 -0.0120257 0)
(8.35465 -0.0128852 0)
(8.35596 -0.0137622 0)
(8.35721 -0.0146591 0)
(8.35841 -0.0155782 0)
(8.35955 -0.0165212 0)
(8.36062 -0.0174896 0)
(8.36163 -0.0184843 0)
(8.36258 -0.0195062 0)
(8.36346 -0.0205558 0)
(8.36427 -0.0216332 0)
(8.36501 -0.0227385 0)
(8.36569 -0.0238716 0)
(8.36629 -0.0250319 0)
(8.36683 -0.026219 0)
(8.3673 -0.0274314 0)
(8.33317 -0.000796723 0)
(8.33366 -0.00273184 0)
(8.33405 -0.00472611 0)
(8.33444 -0.00644277 0)
(8.33498 -0.00780723 0)
(8.33575 -0.00887383 0)
(8.33674 -0.00971677 0)
(8.3379 -0.0103999 0)
(8.3392 -0.0109746 0)
(8.3406 -0.0114814 0)
(8.34207 -0.0119506 0)
(8.34357 -0.0124048 0)
(8.34509 -0.0128603 0)
(8.34661 -0.0133287 0)
(8.34811 -0.0138182 0)
(8.34958 -0.0143344 0)
(8.35102 -0.014881 0)
(8.35241 -0.0154607 0)
(8.35376 -0.016075 0)
(8.35504 -0.0167248 0)
(8.35627 -0.0174106 0)
(8.35744 -0.0181324 0)
(8.35854 -0.0188901 0)
(8.35958 -0.0196831 0)
(8.36055 -0.0205112 0)
(8.36144 -0.0213734 0)
(8.36227 -0.0222691 0)
(8.36303 -0.0231975 0)
(8.36371 -0.0241575 0)
(8.36433 -0.0251483 0)
(8.36487 -0.0261688 0)
(8.36534 -0.027218 0)
(8.36574 -0.028294 0)
(8.33263 0.000557275 0)
(8.33175 0.00193402 0)
(8.33174 0.00275836 0)
(8.33255 0.00261266 0)
(8.33379 0.00171694 0)
(8.33521 0.00042628 0)
(8.33673 -0.0010275 0)
(8.33829 -0.00252122 0)
(8.33986 -0.00398868 0)
(8.34144 -0.00539453 0)
(8.34299 -0.0067239 0)
(8.34452 -0.00797483 0)
(8.34603 -0.00915234 0)
(8.34749 -0.0102648 0)
(8.34892 -0.0113221 0)
(8.35031 -0.0123341 0)
(8.35165 -0.0133104 0)
(8.35293 -0.0142595 0)
(8.35417 -0.0151892 0)
(8.35535 -0.0161061 0)
(8.35647 -0.017016 0)
(8.35753 -0.0179237 0)
(8.35852 -0.0188334 0)
(8.35945 -0.0197485 0)
(8.36032 -0.0206716 0)
(8.36112 -0.0216052 0)
(8.36184 -0.0225509 0)
(8.3625 -0.0235101 0)
(8.3631 -0.0244839 0)
(8.36362 -0.0254728 0)
(8.36407 -0.0264773 0)
(8.36445 -0.0274974 0)
(8.36476 -0.0285325 0)
(8.33358 -0.00197907 0)
(8.33465 -0.00695911 0)
(8.33437 -0.0117896 0)
(8.33366 -0.0149937 0)
(8.33342 -0.0168056 0)
(8.3338 -0.0178115 0)
(8.33464 -0.0183332 0)
(8.33579 -0.0185647 0)
(8.33714 -0.0186407 0)
(8.33863 -0.0186485 0)
(8.34019 -0.0186427 0)
(8.34179 -0.0186561 0)
(8.3434 -0.0187079 0)
(8.34499 -0.0188084 0)
(8.34655 -0.0189623 0)
(8.34806 -0.0191711 0)
(8.34952 -0.0194342 0)
(8.35092 -0.0197499 0)
(8.35226 -0.0201161 0)
(8.35353 -0.0205301 0)
(8.35474 -0.0209894 0)
(8.35587 -0.0214916 0)
(8.35693 -0.0220342 0)
(8.35792 -0.0226151 0)
(8.35883 -0.0232322 0)
(8.35967 -0.0238835 0)
(8.36043 -0.0245673 0)
(8.36112 -0.0252819 0)
(8.36174 -0.0260258 0)
(8.36228 -0.0267973 0)
(8.36274 -0.0275953 0)
(8.36314 -0.0284186 0)
(8.36346 -0.0292652 0)
(8.33162 0.00368099 0)
(8.32827 0.0102064 0)
(8.32843 0.0133461 0)
(8.33097 0.0132678 0)
(8.33353 0.0111718 0)
(8.33567 0.00829193 0)
(8.33759 0.00525537 0)
(8.33934 0.00230254 0)
(8.34097 -0.000454779 0)
(8.34249 -0.00296872 0)
(8.34395 -0.0052341 0)
(8.34535 -0.00726709 0)
(8.34671 -0.00909216 0)
(8.34804 -0.0107362 0)
(8.34933 -0.0122258 0)
(8.35059 -0.0135852 0)
(8.35182 -0.0148362 0)
(8.35301 -0.0159978 0)
(8.35416 -0.0170861 0)
(8.35527 -0.018115 0)
(8.35633 -0.019096 0)
(8.35734 -0.0200392 0)
(8.3583 -0.0209525 0)
(8.35921 -0.021843 0)
(8.36005 -0.0227164 0)
(8.36084 -0.0235773 0)
(8.36156 -0.0244296 0)
(8.36222 -0.0252767 0)
(8.36282 -0.026121 0)
(8.36335 -0.0269646 0)
(8.36381 -0.0278091 0)
(8.3642 -0.0286555 0)
(8.36453 -0.0295043 0)
(8.33429 -0.00644318 0)
(8.33461 -0.0207163 0)
(8.33069 -0.0299712 0)
(8.32666 -0.0340003 0)
(8.32472 -0.034914 0)
(8.32479 -0.0343884 0)
(8.32594 -0.0332369 0)
(8.32763 -0.031854 0)
(8.32964 -0.0304624 0)
(8.33184 -0.0291795 0)
(8.33413 -0.0280569 0)
(8.33645 -0.0271114 0)
(8.33876 -0.0263415 0)
(8.34104 -0.0257369 0)
(8.34326 -0.025283 0)
(8.34542 -0.0249641 0)
(8.34751 -0.0247651 0)
(8.34951 -0.0246716 0)
(8.35144 -0.024671 0)
(8.35329 -0.024752 0)
(8.35504 -0.0249048 0)
(8.35672 -0.0251211 0)
(8.3583 -0.0253934 0)
(8.35979 -0.0257157 0)
(8.36119 -0.0260825 0)
(8.36251 -0.0264892 0)
(8.36373 -0.026932 0)
(8.36486 -0.0274073 0)
(8.36591 -0.0279122 0)
(8.36686 -0.0284442 0)
(8.36773 -0.0290011 0)
(8.36852 -0.0295812 0)
(8.36922 -0.0301822 0)
(8.32884 0.0225913 0)
(8.32235 0.0427594 0)
(8.32667 0.0439857 0)
(8.33328 0.0380249 0)
(8.33776 0.0306785 0)
(8.34056 0.0235198 0)
(8.34282 0.0168667 0)
(8.34496 0.0108998 0)
(8.3471 0.00567506 0)
(8.34932 0.00114472 0)
(8.35162 -0.00277109 0)
(8.35402 -0.00615416 0)
(8.35649 -0.00908215 0)
(8.359 -0.0116256 0)
(8.36154 -0.0138459 0)
(8.36409 -0.0157954 0)
(8.36662 -0.0175184 0)
(8.36912 -0.0190522 0)
(8.37157 -0.0204277 0)
(8.37396 -0.021671 0)
(8.37628 -0.0228038 0)
(8.37853 -0.0238441 0)
(8.38068 -0.0248072 0)
(8.38275 -0.0257058 0)
(8.38472 -0.0265504 0)
(8.38659 -0.0273499 0)
(8.38837 -0.0281119 0)
(8.39004 -0.0288426 0)
(8.3916 -0.0295474 0)
(8.39306 -0.0302308 0)
(8.39442 -0.0308967 0)
(8.39568 -0.031548 0)
(8.39682 -0.0321886 0)
(8.32436 -0.0380338 0)
(8.29385 -0.0683338 0)
(8.27213 -0.0717235 0)
(8.26666 -0.0686441 0)
(8.27355 -0.0643211 0)
(8.28616 -0.0595132 0)
(8.3009 -0.0548486 0)
(8.31619 -0.0506916 0)
(8.33119 -0.0471036 0)
(8.34545 -0.0440598 0)
(8.35875 -0.0415153 0)
(8.37105 -0.0394113 0)
(8.38234 -0.0376859 0)
(8.39267 -0.0362821 0)
(8.4021 -0.0351499 0)
(8.41069 -0.0342461 0)
(8.41852 -0.0335342 0)
(8.42563 -0.0329836 0)
(8.43209 -0.0325687 0)
(8.43795 -0.0322685 0)
(8.44327 -0.0320653 0)
(8.44807 -0.0319447 0)
(8.45241 -0.0318945 0)
(8.45631 -0.0319048 0)
(8.45981 -0.031967 0)
(8.46294 -0.0320743 0)
(8.46573 -0.0322206 0)
(8.46819 -0.0324009 0)
(8.47036 -0.032611 0)
(8.47224 -0.032847 0)
(8.47387 -0.0331058 0)
(8.47525 -0.0333843 0)
(8.47642 -0.0336788 0)
(8.34002 0.156988 0)
(8.38198 0.148995 0)