/*--------------------------------*- C++ -*----------------------------------*\
| =========                 |                                                 |
| \\      /  F ield         | OpenFOAM: The Open Source CFD Toolbox           |
|  \\    /   O peration     | Version:  2.1.1                                 |
|   \\  /    A nd           | Web:      www.OpenFOAM.org                      |
|    \\/     M anipulation  |                                                 |
\*---------------------------------------------------------------------------*/
FoamFile
{
    version     2.0;
    format      ascii;
    class       volScalarField;
    location    "0.095";
    object      nuSgs;
}
// * * * * * * * * * * * * * * * * * * * * * * * * * * * * * * * * * * * * * //

dimensions      [0 2 -1 0 0 0 0];

internalField   nonuniform List<scalar> 
6820
(
0.000556015
0.000457398
0.000368089
0.000306005
0.000268718
0.000242986
0.000223999
0.00020943
0.000197619
0.000187659
0.000179036
0.000171419
0.000164587
0.000158384
0.000152699
0.000147445
0.000142558
0.000137987
0.000133692
0.000129641
0.000125809
0.000122175
0.000118722
0.000115438
0.000112313
0.00010934
0.000106516
0.00010384
0.000101309
9.89553e-05
9.67513e-05
9.46902e-05
9.24443e-05
0.000103502
0.000170678
0.000223679
0.000240053
0.000235285
0.000224896
0.00021316
0.000201822
0.000191524
0.000182285
0.000173987
0.000166498
0.000159694
0.000153474
0.000147752
0.000142461
0.000137543
0.000132949
0.00012864
0.00012458
0.000120742
0.0001171
0.000113633
0.000110324
0.000107156
0.000104115
0.000101191
9.83654e-05
9.56483e-05
9.29778e-05
9.0508e-05
8.78054e-05
8.63388e-05
3.67761e-05
2.84746e-05
4.56531e-05
8.23858e-05
0.000108087
0.000123747
0.00013224
0.000136154
0.000137311
0.000136783
0.000135211
0.00013299
0.000130371
0.00012752
0.000124545
0.000121516
0.000118483
0.000115477
0.00011252
0.000109624
0.000106799
0.000104049
0.000101375
9.87775e-05
9.62546e-05
9.38036e-05
9.14208e-05
8.91011e-05
8.68428e-05
8.46219e-05
8.24544e-05
8.02107e-05
7.80615e-05
2.07384e-05
2.86813e-05
2.6546e-05
1.50465e-05
3.65392e-06
1.4021e-05
2.59537e-05
3.58984e-05
4.39544e-05
5.03919e-05
5.54821e-05
5.94664e-05
6.25425e-05
6.48666e-05
6.65718e-05
6.77677e-05
6.85449e-05
6.89777e-05
6.91275e-05
6.90448e-05
6.87711e-05
6.83408e-05
6.77816e-05
6.71165e-05
6.6364e-05
6.55384e-05
6.46514e-05
6.37102e-05
6.27222e-05
6.1681e-05
6.05997e-05
5.94573e-05
5.8337e-05
1.44226e-05
1.75819e-05
2.26001e-05
2.42948e-05
2.3964e-05
2.19731e-05
1.90571e-05
1.57519e-05
1.22891e-05
8.81876e-06
5.45117e-06
2.2848e-06
1.07121e-06
3.70928e-06
6.26359e-06
8.60298e-06
1.07233e-05
1.26322e-05
1.43416e-05
1.5865e-05
1.72161e-05
1.84087e-05
1.94558e-05
2.03692e-05
2.11597e-05
2.18363e-05
2.24067e-05
2.2876e-05
2.32484e-05
2.35232e-05
2.37008e-05
2.37844e-05
2.37604e-05
1.0923e-05
1.24956e-05
1.38147e-05
1.43216e-05
1.51081e-05
1.57527e-05
1.61384e-05
1.6356e-05
1.64072e-05
1.62949e-05
1.60409e-05
1.56677e-05
1.51956e-05
1.4639e-05
1.40167e-05
1.33462e-05
1.2643e-05
1.19206e-05
1.11899e-05
1.046e-05
9.73832e-06
9.0307e-06
8.34198e-06
7.67619e-06
7.03677e-06
6.42698e-06
5.84988e-06
5.30905e-06
4.80773e-06
4.35062e-06
3.94029e-06
3.57521e-06
3.26379e-06
8.248e-06
9.42785e-06
1.02402e-05
1.00321e-05
9.83834e-06
9.65879e-06
9.47721e-06
9.39624e-06
9.40487e-06
9.45876e-06
9.53072e-06
9.60235e-06
9.6626e-06
9.7083e-06
9.73619e-06
9.74467e-06
9.73356e-06
9.70366e-06
9.65638e-06
9.59353e-06
9.51715e-06
9.42945e-06
9.33272e-06
9.22935e-06
9.12176e-06
9.01249e-06
8.90402e-06
8.79918e-06
8.70033e-06
8.61057e-06
8.53145e-06
8.46493e-06
8.42082e-06
6.36496e-06
7.41053e-06
8.21057e-06
8.06697e-06
7.75037e-06
7.40548e-06
7.02372e-06
6.69664e-06
6.44322e-06
6.24303e-06
6.08354e-06
5.95588e-06
5.8513e-06
5.76346e-06
5.68826e-06
5.62273e-06
5.56453e-06
5.51192e-06
5.46372e-06
5.41915e-06
5.37786e-06
5.33978e-06
5.30513e-06
5.27434e-06
5.24806e-06
5.22713e-06
5.21243e-06
5.20506e-06
5.20586e-06
5.21589e-06
5.23556e-06
5.26458e-06
5.31034e-06
5.00528e-06
5.86218e-06
6.53781e-06
6.52434e-06
6.34992e-06
6.13666e-06
5.84866e-06
5.55821e-06
5.30368e-06
5.08132e-06
4.88642e-06
4.71559e-06
4.56412e-06
4.428e-06
4.30451e-06
4.19166e-06
4.08791e-06
3.99223e-06
3.90389e-06
3.82246e-06
3.7477e-06
3.67955e-06
3.61812e-06
3.56364e-06
3.51647e-06
3.47706e-06
3.44588e-06
3.42345e-06
3.41012e-06
3.40623e-06
3.41179e-06
3.42567e-06
3.45449e-06
4.0005e-06
4.71228e-06
5.30636e-06
5.36975e-06
5.26049e-06
5.10625e-06
4.88478e-06
4.65105e-06
4.44261e-06
4.2585e-06
4.09417e-06
3.94745e-06
3.81529e-06
3.69483e-06
3.58418e-06
3.48202e-06
3.38738e-06
3.29955e-06
3.21806e-06
3.14261e-06
3.07305e-06
3.00934e-06
2.95157e-06
2.89989e-06
2.85453e-06
2.81573e-06
2.78368e-06
2.75854e-06
2.74027e-06
2.72867e-06
2.72342e-06
2.72232e-06
2.73146e-06
3.24182e-06
3.84104e-06
4.36503e-06
4.46927e-06
4.40765e-06
4.30133e-06
4.135e-06
3.94561e-06
3.76776e-06
3.60575e-06
3.45823e-06
3.32519e-06
3.20529e-06
3.09659e-06
2.99751e-06
2.9069e-06
2.82376e-06
2.74734e-06
2.67711e-06
2.61268e-06
2.55381e-06
2.50038e-06
2.45231e-06
2.40961e-06
2.37227e-06
2.34027e-06
2.3135e-06
2.29175e-06
2.27461e-06
2.26142e-06
2.25148e-06
2.24213e-06
2.2385e-06
2.65611e-06
3.16674e-06
3.63871e-06
3.7775e-06
3.76065e-06
3.69175e-06
3.56382e-06
3.40532e-06
3.2492e-06
3.1038e-06
2.96963e-06
2.84748e-06
2.73686e-06
2.63639e-06
2.54484e-06
2.46126e-06
2.38483e-06
2.31491e-06
2.251e-06
2.19272e-06
2.13978e-06
2.09195e-06
2.04903e-06
2.01085e-06
1.9772e-06
1.94781e-06
1.92233e-06
1.90026e-06
1.88092e-06
1.86337e-06
1.84668e-06
1.82811e-06
1.81215e-06
2.19376e-06
2.63699e-06
3.07068e-06
3.23404e-06
3.25173e-06
3.21213e-06
3.11649e-06
2.98729e-06
2.85338e-06
2.72464e-06
2.60301e-06
2.49017e-06
2.3867e-06
2.29206e-06
2.20557e-06
2.12659e-06
2.0545e-06
1.98874e-06
1.92883e-06
1.87436e-06
1.82495e-06
1.78027e-06
1.74001e-06
1.70382e-06
1.67132e-06
1.64206e-06
1.61548e-06
1.59087e-06
1.56739e-06
1.54395e-06
1.51953e-06
1.49145e-06
1.46365e-06
1.82119e-06
2.21421e-06
2.61966e-06
2.80242e-06
2.8501e-06
2.83654e-06
2.76805e-06
2.66324e-06
2.54747e-06
2.43202e-06
2.32048e-06
2.21537e-06
2.11802e-06
2.02846e-06
1.94632e-06
1.87117e-06
1.8025e-06
1.73981e-06
1.68264e-06
1.63055e-06
1.58313e-06
1.53997e-06
1.50066e-06
1.46472e-06
1.43165e-06
1.40087e-06
1.37166e-06
1.34321e-06
1.31458e-06
1.28464e-06
1.25237e-06
1.21535e-06
1.17711e-06
1.51492e-06
1.8721e-06
2.25753e-06
2.45632e-06
2.52918e-06
2.53745e-06
2.49112e-06
2.40694e-06
2.30743e-06
2.20437e-06
2.10239e-06
2.00453e-06
1.91262e-06
1.82721e-06
1.74831e-06
1.67572e-06
1.60913e-06
1.54813e-06
1.49231e-06
1.44122e-06
1.39443e-06
1.35146e-06
1.31181e-06
1.27493e-06
1.24021e-06
1.20696e-06
1.17441e-06
1.14167e-06
1.10777e-06
1.07161e-06
1.03219e-06
9.87407e-07
9.40278e-07
1.25831e-06
1.59187e-06
1.9639e-06
2.17639e-06
2.27089e-06
2.29859e-06
2.27163e-06
2.20561e-06
2.12053e-06
2.02826e-06
1.93433e-06
1.84236e-06
1.75468e-06
1.67235e-06
1.59571e-06
1.52478e-06
1.45938e-06
1.39919e-06
1.34381e-06
1.29281e-06
1.2457e-06
1.20198e-06
1.16109e-06
1.12242e-06
1.0853e-06
1.04899e-06
1.0127e-06
9.75521e-07
9.36501e-07
8.94601e-07
8.48882e-07
7.97565e-07
7.4316e-07
1.03935e-06
1.36003e-06
1.7243e-06
1.94895e-06
2.0623e-06
2.10726e-06
2.09713e-06
2.04679e-06
1.97441e-06
1.89175e-06
1.80505e-06
1.71839e-06
1.63449e-06
1.55476e-06
1.47984e-06
1.40994e-06
1.34502e-06
1.28485e-06
1.22911e-06
1.17736e-06
1.12915e-06
1.08394e-06
1.04117e-06
1.0002e-06
9.60349e-07
9.20881e-07
8.80996e-07
8.39844e-07
7.96517e-07
7.50078e-07
6.99643e-07
6.43758e-07
5.8433e-07
8.49291e-07
1.16706e-06
1.52841e-06
1.7641e-06
1.89399e-06
1.9545e-06
1.95938e-06
1.92306e-06
1.86218e-06
1.7883e-06
1.7081e-06
1.62608e-06
1.5453e-06
1.46753e-06
1.39368e-06
1.32419e-06
1.25915e-06
1.19845e-06
1.14181e-06
1.08884e-06
1.03911e-06
9.92081e-07
9.472e-07
9.03848e-07
8.61363e-07
8.19042e-07
7.7614e-07
7.31891e-07
6.85491e-07
6.36163e-07
5.83141e-07
5.25417e-07
4.64355e-07
6.81965e-07
1.00657e-06
1.36906e-06
1.61488e-06
1.75936e-06
1.83392e-06
1.85229e-06
1.82848e-06
1.77796e-06
1.71199e-06
1.63763e-06
1.55973e-06
1.48165e-06
1.40545e-06
1.33232e-06
1.26287e-06
1.19734e-06
1.13572e-06
1.0778e-06
1.02329e-06
9.71778e-07
9.22789e-07
8.75803e-07
8.30263e-07
7.85576e-07
7.41129e-07
6.96291e-07
6.50446e-07
6.02979e-07
5.53378e-07
5.01143e-07
4.45981e-07
3.89028e-07
5.33606e-07
8.74898e-07
1.24151e-06
1.4965e-06
1.65381e-06
1.74107e-06
1.77165e-06
1.75915e-06
1.71809e-06
1.65946e-06
1.59053e-06
1.51646e-06
1.44085e-06
1.36605e-06
1.29347e-06
1.22392e-06
1.15781e-06
1.09522e-06
1.03606e-06
9.80101e-07
9.27003e-07
8.76369e-07
8.27761e-07
7.80708e-07
7.34731e-07
6.89358e-07
6.44141e-07
5.98697e-07
5.52712e-07
5.06109e-07
4.58892e-07
4.11882e-07
3.66387e-07
4.03806e-07
7.71021e-07
1.14303e-06
1.40595e-06
1.57436e-06
1.67298e-06
1.7146e-06
1.7123e-06
1.67983e-06
1.62786e-06
1.5638e-06
1.49306e-06
1.41947e-06
1.34564e-06
1.27321e-06
1.20318e-06
1.13612e-06
1.07226e-06
1.01162e-06
9.54065e-07
8.99371e-07
8.47241e-07
7.97347e-07
7.49349e-07
7.02919e-07
6.57768e-07
6.13667e-07
5.70507e-07
5.28308e-07
4.87426e-07
4.48325e-07
4.12598e-07
3.81323e-07
2.99221e-07
6.96414e-07
1.0725e-06
1.3416e-06
1.51939e-06
1.6281e-06
1.67971e-06
1.68672e-06
1.66222e-06
1.61658e-06
1.55732e-06
1.49e-06
1.41868e-06
1.34617e-06
1.27432e-06
1.2043e-06
1.13684e-06
1.07229e-06
1.0108e-06
9.5235e-07
8.96825e-07
8.44054e-07
7.93841e-07
7.45996e-07
7.0036e-07
6.56838e-07
6.15425e-07
5.76266e-07
5.39648e-07
5.06213e-07
4.76587e-07
4.52584e-07
4.3425e-07
2.42199e-07
6.545e-07
1.03007e-06
1.30298e-06
1.48825e-06
1.60565e-06
1.66601e-06
1.68118e-06
1.66358e-06
1.62329e-06
1.56785e-06
1.50299e-06
1.43297e-06
1.36082e-06
1.2886e-06
1.21769e-06
1.149e-06
1.08304e-06
1.02009e-06
9.60273e-07
9.03594e-07
8.50006e-07
7.99439e-07
7.51838e-07
7.07182e-07
6.6552e-07
6.26982e-07
5.91835e-07
5.60438e-07
5.33416e-07
5.11221e-07
4.95319e-07
4.8494e-07
2.62972e-07
6.49122e-07
1.01685e-06
1.29066e-06
1.48156e-06
1.60645e-06
1.67484e-06
1.69782e-06
1.68722e-06
1.65277e-06
1.60197e-06
1.54062e-06
1.47311e-06
1.40259e-06
1.33131e-06
1.26081e-06
1.19211e-06
1.12588e-06
1.06254e-06
1.00233e-06
9.45384e-07
8.91774e-07
8.41554e-07
7.94781e-07
7.51538e-07
7.1196e-07
6.76236e-07
6.44639e-07
6.17468e-07
5.9521e-07
5.78027e-07
5.67153e-07
5.60931e-07
3.51823e-07
6.82327e-07
1.03425e-06
1.30574e-06
1.50007e-06
1.63063e-06
1.70521e-06
1.73391e-06
1.72797e-06
1.69691e-06
1.6482e-06
1.58781e-06
1.52032e-06
1.44912e-06
1.37664e-06
1.30462e-06
1.23423e-06
1.16629e-06
1.10133e-06
1.03969e-06
9.81585e-07
9.27178e-07
8.76583e-07
8.2991e-07
7.87276e-07
7.48822e-07
7.14709e-07
6.85133e-07
6.60265e-07
6.40384e-07
6.25406e-07
6.16199e-07
6.10913e-07
4.79378e-07
7.53461e-07
1.084e-06
1.35058e-06
1.54722e-06
1.68349e-06
1.76523e-06
1.80144e-06
1.80265e-06
1.7779e-06
1.73443e-06
1.67813e-06
1.6136e-06
1.54431e-06
1.47285e-06
1.4011e-06
1.33041e-06
1.26176e-06
1.1958e-06
1.13303e-06
1.07378e-06
1.01829e-06
9.66754e-07
9.19322e-07
8.76129e-07
8.37302e-07
8.02951e-07
7.73195e-07
7.48086e-07
7.27788e-07
7.12042e-07
7.01741e-07
6.94429e-07
6.3287e-07
8.61251e-07
1.16844e-06
1.42751e-06
1.62334e-06
1.76135e-06
1.84519e-06
1.88295e-06
1.88487e-06
1.86002e-06
1.81575e-06
1.75814e-06
1.69196e-06
1.62081e-06
1.54738e-06
1.47362e-06
1.40094e-06
1.33035e-06
1.26255e-06
1.19804e-06
1.13717e-06
1.08021e-06
1.02734e-06
9.78694e-07
9.34383e-07
8.94485e-07
8.59046e-07
8.28095e-07
8.0159e-07
7.79555e-07
7.61634e-07
7.48462e-07
7.3777e-07
8.10407e-07
1.00399e-06
1.28946e-06
1.54198e-06
1.74019e-06
1.88584e-06
1.97973e-06
2.028e-06
2.03968e-06
2.02299e-06
1.98489e-06
1.93135e-06
1.86729e-06
1.79658e-06
1.72218e-06
1.64637e-06
1.57082e-06
1.49678e-06
1.42515e-06
1.35658e-06
1.29151e-06
1.23029e-06
1.17312e-06
1.12015e-06
1.07148e-06
1.02715e-06
9.87158e-07
9.51493e-07
9.20054e-07
8.92852e-07
8.69461e-07
8.50734e-07
8.33738e-07
1.01714e-06
1.18728e-06
1.45441e-06
1.69625e-06
1.88683e-06
2.02559e-06
2.11249e-06
2.15408e-06
2.16007e-06
2.139e-06
2.09777e-06
2.04215e-06
1.97673e-06
1.90508e-06
1.82991e-06
1.75327e-06
1.67673e-06
1.60143e-06
1.52824e-06
1.45781e-06
1.39059e-06
1.32691e-06
1.26701e-06
1.21104e-06
1.15908e-06
1.11115e-06
1.06725e-06
1.02731e-06
9.91224e-07
9.58927e-07
9.3e-07
9.05045e-07
8.81586e-07
1.25731e-06
1.40757e-06
1.66277e-06
1.90764e-06
2.11386e-06
2.27502e-06
2.38449e-06
2.44477e-06
2.46399e-06
2.45048e-06
2.41173e-06
2.35446e-06
2.28435e-06
2.20589e-06
2.12254e-06
2.03694e-06
1.95104e-06
1.86624e-06
1.78358e-06
1.70375e-06
1.62725e-06
1.55441e-06
1.48542e-06
1.4204e-06
1.35938e-06
1.30238e-06
1.24932e-06
1.20016e-06
1.15475e-06
1.11308e-06
1.0747e-06
1.04055e-06
1.0073e-06
1.55175e-06
1.69943e-06
1.94263e-06
2.16187e-06
2.33505e-06
2.46437e-06
2.54864e-06
2.59289e-06
2.60507e-06
2.5914e-06
2.55681e-06
2.50579e-06
2.44237e-06
2.36994e-06
2.29135e-06
2.20896e-06
2.1247e-06
2.0401e-06
1.95635e-06
1.87435e-06
1.79477e-06
1.71808e-06
1.64459e-06
1.5745e-06
1.5079e-06
1.44483e-06
1.38526e-06
1.32913e-06
1.27633e-06
1.22684e-06
1.18027e-06
1.13727e-06
1.09523e-06
1.89237e-06
2.01817e-06
2.27751e-06
2.55294e-06
2.79918e-06
2.9929e-06
3.11874e-06
3.1809e-06
3.19263e-06
3.16624e-06
3.1118e-06
3.03772e-06
2.95057e-06
2.85516e-06
2.75495e-06
2.65246e-06
2.54949e-06
2.44735e-06
2.34696e-06
2.24899e-06
2.15393e-06
2.06208e-06
1.97366e-06
1.8888e-06
1.80753e-06
1.72986e-06
1.65577e-06
1.58521e-06
1.51811e-06
1.45453e-06
1.39411e-06
1.33792e-06
1.28239e-06
2.37429e-06
2.53327e-06
2.73845e-06
2.88951e-06
3.01545e-06
3.13574e-06
3.23786e-06
3.31232e-06
3.35647e-06
3.36934e-06
3.35224e-06
3.3091e-06
3.24482e-06
3.16425e-06
3.07177e-06
2.97119e-06
2.86563e-06
2.75754e-06
2.64882e-06
2.54085e-06
2.43466e-06
2.33095e-06
2.23018e-06
2.13261e-06
2.03838e-06
1.94753e-06
1.86005e-06
1.77591e-06
1.69505e-06
1.61756e-06
1.54321e-06
1.47291e-06
1.40399e-06
2.85144e-06
2.96891e-06
3.37339e-06
3.80156e-06
4.12918e-06
4.33464e-06
4.4268e-06
4.43619e-06
4.39226e-06
4.31288e-06
4.20898e-06
4.08832e-06
3.95629e-06
3.81666e-06
3.67232e-06
3.52568e-06
3.37875e-06
3.23319e-06
3.09032e-06
2.95116e-06
2.81646e-06
2.6867e-06
2.56215e-06
2.44291e-06
2.32893e-06
2.22007e-06
2.11613e-06
2.01692e-06
1.92225e-06
1.83217e-06
1.74642e-06
1.6665e-06
1.58869e-06
3.89326e-06
4.00372e-06
3.92863e-06
3.87146e-06
3.99704e-06
4.23134e-06
4.44851e-06
4.5979e-06
4.6758e-06
4.69155e-06
4.66108e-06
4.60184e-06
4.52789e-06
4.44887e-06
4.37081e-06
4.29685e-06
4.22813e-06
4.16457e-06
4.10546e-06
4.04986e-06
3.99683e-06
3.94552e-06
3.89522e-06
3.84538e-06
3.79555e-06
3.74536e-06
3.69455e-06
3.6429e-06
3.59035e-06
3.53706e-06
3.48326e-06
3.43093e-06
3.37791e-06
4.35541e-06
4.94196e-06
5.9353e-06
6.43181e-06
6.56072e-06
6.55094e-06
6.55373e-06
6.67039e-06
6.92796e-06
7.2937e-06
7.71853e-06
8.15929e-06
8.58356e-06
8.97003e-06
9.30685e-06
9.58905e-06
9.81616e-06
9.99052e-06
1.01161e-05
1.01977e-05
1.02402e-05
1.02485e-05
1.02273e-05
1.01806e-05
1.0112e-05
1.00247e-05
9.92115e-06
9.80334e-06
9.67301e-06
9.53128e-06
9.37986e-06
9.22122e-06
9.05612e-06
7.54814e-06
5.81779e-06
4.63834e-06
6.24578e-06
8.97732e-06
1.16807e-05
1.40016e-05
1.58816e-05
1.73222e-05
1.83398e-05
1.89729e-05
1.92709e-05
1.92843e-05
1.90624e-05
1.86523e-05
1.80959e-05
1.74301e-05
1.6686e-05
1.58897e-05
1.50621e-05
1.42199e-05
1.3376e-05
1.25401e-05
1.17193e-05
1.09186e-05
1.01409e-05
9.38782e-06
8.65929e-06
7.95467e-06
7.27027e-06
6.60675e-06
5.9532e-06
5.32493e-06
8.57853e-06
1.47255e-05
1.88253e-05
2.12261e-05
2.23166e-05
2.18519e-05
2.00093e-05
1.72403e-05
1.40067e-05
1.09097e-05
8.91282e-06
9.09214e-06
1.12852e-05
1.44202e-05
1.77959e-05
2.11021e-05
2.42053e-05
2.70491e-05
2.96142e-05
3.19009e-05
3.39197e-05
3.5687e-05
3.72216e-05
3.85434e-05
3.96721e-05
4.06267e-05
4.14254e-05
4.20859e-05
4.26252e-05
4.30652e-05
4.34208e-05
4.375e-05
4.40417e-05
3.46266e-05
3.71949e-05
4.66133e-05
6.17047e-05
7.73635e-05
9.27008e-05
0.000107018
0.000119613
0.000130301
0.000139131
0.000146217
0.000151727
0.000155849
0.000158769
0.000160663
0.00016169
0.000161991
0.000161688
0.000160888
0.000159681
0.000158143
0.000156339
0.000154322
0.000152138
0.000149823
0.000147408
0.000144917
0.000142369
0.000139781
0.000137158
0.000134501
0.000131901
0.000129364
0.000608434
0.000582487
0.000556859
0.000530399
0.000504411
0.000479216
0.000454858
0.000431605
0.000409639
0.000389012
0.000369738
0.000351798
0.000335141
0.000319697
0.000305384
0.000292115
0.000279804
0.000268367
0.000257724
0.000247798
0.00023852
0.000229828
0.000221665
0.000213978
0.000206721
0.000199853
0.000193336
0.000187134
0.000181207
0.000175535
0.000169989
0.000165107
0.000160669
7.92081e-05
6.94963e-05
6.39703e-05
6.37805e-05
6.65669e-05
7.06096e-05
7.48207e-05
7.87077e-05
8.18673e-05
8.33991e-05
8.11088e-05
7.20688e-05
5.58253e-05
4.35149e-05
3.95934e-05
3.90047e-05
3.94366e-05
3.97567e-05
3.94428e-05
3.83163e-05
3.63027e-05
3.33271e-05
2.9445e-05
2.3987e-05
1.72984e-05
1.64161e-05
2.81156e-05
4.59575e-05
3.68815e-05
9.27554e-06
2.39988e-05
3.46902e-05
3.37552e-05
2.9414e-05
2.58571e-05
2.34762e-05
2.17633e-05
2.04385e-05
1.94403e-05
1.87705e-05
1.83783e-05
1.81844e-05
1.84093e-05
1.93164e-05
2.28992e-05
3.28574e-05
4.31251e-05
5.39195e-05
6.35012e-05
6.07799e-05
4.93996e-05
3.65528e-05
2.54375e-05
1.62606e-05
8.4003e-06
1.57668e-06
1.28171e-05
3.01745e-05
4.55789e-05
5.08212e-05
4.57363e-05
3.69329e-05
2.97335e-05
2.48587e-05
2.12411e-05
1.82451e-05
1.56759e-05
1.34506e-05
1.14976e-05
9.75826e-06
8.19615e-06
6.79338e-06
5.54268e-06
4.44076e-06
3.48455e-06
2.66998e-06
1.99165e-06
1.44254e-06
1.01391e-06
6.9632e-07
4.80163e-07
3.55166e-07
3.04758e-07
3.02916e-07
3.26004e-07
3.59934e-07
3.95265e-07
4.2343e-07
4.37093e-07
4.31443e-07
4.05891e-07
3.62753e-07
3.09042e-07
2.48592e-07
1.92988e-07
1.36984e-07
1.09503e-07
9.00507e-08
1.36956e-07
1.80838e-07
0.000109503
0.000102585
9.67513e-05
9.32523e-05
9.12993e-05
9.08338e-05
9.15403e-05
9.30482e-05
9.48556e-05
9.63303e-05
9.6661e-05
9.44521e-05
8.55046e-05
6.6907e-05
5.04243e-05
4.30098e-05
4.04946e-05
3.94608e-05
3.85751e-05
3.7187e-05
3.49816e-05
3.1836e-05
2.76511e-05
2.19018e-05
1.8205e-05
2.53468e-05
4.69502e-05
5.0512e-05
2.42893e-05
1.19433e-05
3.19571e-05
3.62731e-05
3.2761e-05
2.84322e-05
2.53611e-05
2.32645e-05
2.16853e-05
2.04404e-05
1.95006e-05
1.88868e-05
1.86157e-05
1.8646e-05
1.90891e-05
1.99727e-05
2.21206e-05
2.93799e-05
4.00201e-05
5.02604e-05
6.15316e-05
6.30784e-05
5.39681e-05
4.11107e-05
2.90124e-05
1.89116e-05
1.12151e-05
9.98737e-06
2.1665e-05
3.85858e-05
5.06624e-05
5.16249e-05
4.41618e-05
3.53093e-05
2.88503e-05
2.44674e-05
2.10909e-05
1.82486e-05
1.57924e-05
1.36389e-05
1.17184e-05
9.98215e-06
8.40506e-06
6.97827e-06
5.70016e-06
4.5705e-06
3.58782e-06
2.74882e-06
2.04858e-06
1.48076e-06
1.03732e-06
7.08982e-07
4.86358e-07
3.59421e-07
3.10902e-07
3.12425e-07
3.38405e-07
3.74043e-07
4.09868e-07
4.37577e-07
4.50144e-07
4.42963e-07
4.15458e-07
3.69841e-07
3.13139e-07
2.49495e-07
1.91633e-07
1.36185e-07
1.15941e-07
1.09586e-07
1.60595e-07
2.1045e-07
0.000101202
9.9918e-05
9.76196e-05
9.54949e-05
9.38484e-05
9.30481e-05
9.34008e-05
9.50533e-05
9.78197e-05
0.000101054
0.000103726
0.000104824
0.000103306
9.49294e-05
7.68964e-05
5.82858e-05
4.70455e-05
4.1831e-05
3.8946e-05
3.65268e-05
3.38102e-05
3.05223e-05
2.64766e-05
2.28223e-05
2.7345e-05
4.69672e-05
5.96089e-05
4.23058e-05
6.29341e-06
2.48985e-05
3.69191e-05
3.60547e-05
3.14059e-05
2.75358e-05
2.49438e-05
2.30819e-05
2.16127e-05
2.04405e-05
1.95568e-05
1.89851e-05
1.8773e-05
1.89306e-05
1.9538e-05
2.06103e-05
2.22169e-05
2.70123e-05
3.64029e-05
4.63007e-05
5.79843e-05
6.39123e-05
5.87093e-05
4.7291e-05
3.51567e-05
2.50736e-05
1.89562e-05
2.07658e-05
3.25749e-05
4.70555e-05
5.43691e-05
5.1011e-05
4.19206e-05
3.35638e-05
2.79533e-05
2.4064e-05
2.09507e-05
1.82799e-05
1.59396e-05
1.38531e-05
1.19594e-05
1.02225e-05
8.62867e-06
7.17692e-06
5.87051e-06
4.71209e-06
3.70189e-06
2.83761e-06
2.1149e-06
1.52756e-06
1.06751e-06
7.25658e-07
4.92939e-07
3.60239e-07
3.11184e-07
3.1564e-07
3.45122e-07
3.83379e-07
4.2064e-07
4.4877e-07
4.61063e-07
4.53162e-07
4.24634e-07
3.77715e-07
3.19517e-07
2.54534e-07
1.966e-07
1.44424e-07
1.32094e-07
1.35603e-07
1.87948e-07
2.41377e-07
7.63202e-05
7.61579e-05
7.53325e-05
7.44611e-05
7.38018e-05
7.37941e-05
7.49602e-05
7.77238e-05
8.23021e-05
8.86028e-05
9.59104e-05
0.000102739
0.00010726
0.000108043
0.000101731
8.66927e-05
6.87707e-05
5.48003e-05
4.6163e-05
4.08095e-05
3.69383e-05
3.39917e-05
3.25629e-05
3.64979e-05
5.13042e-05
6.60063e-05
5.69608e-05
2.26218e-05
1.44324e-05
3.49716e-05
3.85443e-05
3.44897e-05
2.99202e-05
2.6739e-05
2.45435e-05
2.28461e-05
2.14681e-05
2.03712e-05
1.95509e-05
1.90247e-05
1.88478e-05
1.90732e-05
1.97749e-05
2.10357e-05
2.26133e-05
2.58569e-05
3.31149e-05
4.22859e-05
5.32674e-05
6.25561e-05
6.24647e-05
5.4376e-05
4.37231e-05
3.46827e-05
3.0303e-05
3.37041e-05
4.43256e-05
5.4393e-05
5.59427e-05
4.87833e-05
3.91238e-05
3.18083e-05
2.7094e-05
2.36663e-05
2.08139e-05
1.83224e-05
1.61026e-05
1.40839e-05
1.22171e-05
1.048e-05
8.86981e-06
7.39291e-06
6.05721e-06
4.86846e-06
3.8288e-06
2.93707e-06
2.1896e-06
1.58068e-06
1.10267e-06
7.46682e-07
5.04064e-07
3.66636e-07
3.18337e-07
3.26439e-07
3.5947e-07
4.00039e-07
4.38274e-07
4.66329e-07
4.77884e-07
4.68892e-07
4.39102e-07
3.90829e-07
3.31332e-07
2.65597e-07
2.08652e-07
1.61363e-07
1.56433e-07
1.6747e-07
2.19844e-07
2.77001e-07
3.16551e-05
3.21295e-05
3.22533e-05
3.24637e-05
3.30907e-05
3.45357e-05
3.71924e-05
4.1362e-05
4.73064e-05
5.52278e-05
6.52499e-05
7.70559e-05
8.9406e-05
9.99442e-05
0.000106022
0.000104783
9.55321e-05
8.20113e-05
6.92856e-05
5.99621e-05
5.43735e-05
5.24295e-05
5.4575e-05
6.27014e-05
7.2759e-05
6.70144e-05
3.67082e-05
3.53524e-06
3.08235e-05
3.97183e-05
3.73202e-05
3.24119e-05
2.86332e-05
2.60625e-05
2.41269e-05
2.25498e-05
2.12607e-05
2.02411e-05
1.94855e-05
1.90069e-05
1.88539e-05
1.90989e-05
1.98207e-05
2.11645e-05
2.29156e-05
2.54326e-05
3.07057e-05
3.85335e-05
4.81047e-05
5.87356e-05
6.3631e-05
6.04643e-05
5.30654e-05
4.61366e-05
4.33624e-05
4.69392e-05
5.4499e-05
5.86985e-05
5.46718e-05
4.51645e-05
3.61514e-05
3.0179e-05
2.62824e-05
2.32672e-05
2.0674e-05
1.83681e-05
1.62714e-05
1.43213e-05
1.24828e-05
1.07475e-05
9.12251e-06
7.62086e-06
6.25528e-06
5.03489e-06
3.9642e-06
3.04351e-06
2.27006e-06
1.63852e-06
1.14139e-06
7.69877e-07
5.15646e-07
3.71745e-07
3.23308e-07
3.35258e-07
3.72547e-07
4.16257e-07
4.56261e-07
4.84909e-07
4.96222e-07
4.86504e-07
4.55806e-07
4.06701e-07
3.46788e-07
2.81744e-07
2.27646e-07
1.86797e-07
1.88366e-07
2.05017e-07
2.56893e-07
3.1702e-07
4.03399e-06
4.05253e-06
4.20312e-06
4.44417e-06
4.88482e-06
5.60747e-06
6.7254e-06
8.60723e-06
1.1948e-05
1.74604e-05
2.57822e-05
3.72527e-05
5.16914e-05
6.78879e-05
8.34395e-05
9.52966e-05
0.000100754
9.92551e-05
9.31843e-05
8.6129e-05
8.0785e-05
7.82238e-05
7.84954e-05
7.99058e-05
7.17594e-05
4.42103e-05
6.37037e-06
2.66206e-05
3.97774e-05
3.94938e-05
3.4717e-05
3.04891e-05
2.75701e-05
2.54114e-05
2.36515e-05
2.21862e-05
2.09888e-05
2.0045e-05
1.93519e-05
1.89221e-05
1.87937e-05
1.90375e-05
1.97312e-05
2.10315e-05
2.29155e-05
2.52234e-05
2.91574e-05
3.53746e-05
4.32448e-05
5.31761e-05
6.13248e-05
6.33611e-05
6.04408e-05
5.64784e-05
5.50744e-05
5.75266e-05
6.06459e-05
5.88172e-05
5.07286e-05
4.08032e-05
3.33526e-05
2.87285e-05
2.55159e-05
2.28683e-05
2.05323e-05
1.84159e-05
1.64446e-05
1.45661e-05
1.27599e-05
1.10297e-05
9.3915e-06
7.86511e-06
6.46838e-06
5.21435e-06
4.11029e-06
3.15826e-06
2.35644e-06
1.69999e-06
1.18176e-06
7.93189e-07
5.26587e-07
3.76765e-07
3.30122e-07
3.47843e-07
3.90531e-07
4.37933e-07
4.79944e-07
5.09282e-07
5.20424e-07
5.10102e-07
4.78738e-07
4.29237e-07
3.69566e-07
3.06088e-07
2.55532e-07
2.20738e-07
2.26877e-07
2.47212e-07
2.97914e-07
3.6081e-07
1.13017e-05
1.18666e-05
1.24183e-05
1.27421e-05
1.27016e-05
1.21935e-05
1.11148e-05
9.37221e-06
6.84609e-06
3.55699e-06
3.45597e-06
9.36316e-06
1.78821e-05
2.94219e-05
4.39824e-05
5.99298e-05
7.43589e-05
8.45436e-05
8.94364e-05
8.99722e-05
8.78997e-05
8.42791e-05
7.8815e-05
6.65454e-05
4.08499e-05
8.39441e-06
2.54905e-05
3.96486e-05
4.07554e-05
3.64316e-05
3.20742e-05
2.89535e-05
2.66346e-05
2.47271e-05
2.31123e-05
2.17624e-05
2.06583e-05
1.97882e-05
1.91534e-05
1.87681e-05
1.86635e-05
1.88988e-05
1.95457e-05
2.07311e-05
2.25828e-05
2.48845e-05
2.80698e-05
3.29203e-05
3.91387e-05
4.71922e-05
5.60255e-05
6.17886e-05
6.32361e-05
6.24351e-05
6.20766e-05
6.26102e-05
6.10952e-05
5.46819e-05
4.50429e-05
3.64991e-05
3.09697e-05
2.74624e-05
2.47797e-05
2.24624e-05
2.03844e-05
1.84619e-05
1.66207e-05
1.48197e-05
1.30513e-05
1.13297e-05
9.67972e-06
8.12801e-06
6.69832e-06
5.40822e-06
4.26819e-06
3.28233e-06
2.44999e-06
1.76682e-06
1.22582e-06
8.18541e-07
5.37851e-07
3.80712e-07
3.35711e-07
3.59966e-07
4.08887e-07
4.60695e-07
5.05325e-07
5.35897e-07
5.47372e-07
5.36959e-07
5.05504e-07
4.56307e-07
3.9775e-07
3.36813e-07
2.90398e-07
2.61136e-07
2.70661e-07
2.93551e-07
3.43019e-07
4.08118e-07
7.228e-06
7.68377e-06
8.12632e-06
8.411e-06
8.43708e-06
8.14173e-06
7.47862e-06
6.41205e-06
4.87935e-06
2.80951e-06
1.17011e-06
4.49573e-06
8.92226e-06
1.33121e-05
1.79802e-05
2.47469e-05
3.4372e-05
4.49559e-05
5.37299e-05
5.87556e-05
5.91765e-05
5.45943e-05
4.35451e-05
2.39568e-05
1.13554e-05
2.94098e-05
4.02297e-05
4.10158e-05
3.71567e-05
3.30796e-05
3.00301e-05
2.76832e-05
2.56978e-05
2.398e-05
2.25146e-05
2.12845e-05
2.02733e-05
1.94747e-05
1.88936e-05
1.85462e-05
1.84604e-05
1.86843e-05
1.92792e-05
2.03353e-05
2.20164e-05
2.42682e-05
2.70716e-05
3.09542e-05
3.58411e-05
4.18672e-05
4.93397e-05
5.62792e-05
6.05111e-05
6.21212e-05
6.23314e-05
6.08802e-05
5.59999e-05
4.77273e-05
3.91203e-05
3.29102e-05
2.90501e-05
2.63192e-05
2.40425e-05
2.20404e-05
2.02267e-05
1.85047e-05
1.68014e-05
1.50858e-05
1.33613e-05
1.16517e-05
9.99049e-06
8.41224e-06
6.94728e-06
5.61824e-06
4.4392e-06
3.41655e-06
2.55091e-06
1.8384e-06
1.27226e-06
8.44197e-07
5.47862e-07
3.83192e-07
3.41729e-07
3.74769e-07
4.31343e-07
4.88333e-07
5.35991e-07
5.68024e-07
5.80009e-07
5.69723e-07
5.38505e-07
4.90073e-07
4.33158e-07
3.75146e-07
3.32665e-07
3.07771e-07
3.19441e-07
3.43884e-07
3.91696e-07
4.58785e-07
4.69829e-06
4.97479e-06
5.23507e-06
5.38855e-06
5.37389e-06
5.16769e-06
4.77904e-06
4.27201e-06
3.80252e-06
3.58313e-06
3.8363e-06
5.03151e-06
7.79764e-06
1.19529e-05
1.62967e-05
1.94437e-05
2.0928e-05
2.15585e-05
2.22727e-05
2.26752e-05
2.15293e-05
1.84749e-05
1.76588e-05
2.56723e-05
3.57305e-05
4.06607e-05
3.99286e-05
3.65646e-05
3.32092e-05
3.05796e-05
2.84035e-05
2.6456e-05
2.47109e-05
2.31842e-05
2.1871e-05
2.0758e-05
1.98367e-05
1.91065e-05
1.85752e-05
1.82595e-05
1.81857e-05
1.83944e-05
1.89358e-05
1.98746e-05
2.13396e-05
2.34043e-05
2.59664e-05
2.91915e-05
3.31156e-05
3.75785e-05
4.29798e-05
4.88904e-05
5.36431e-05
5.61883e-05
5.63705e-05
5.36123e-05
4.76775e-05
4.03682e-05
3.4274e-05
3.02361e-05
2.74599e-05
2.52126e-05
2.32808e-05
2.15986e-05
2.00583e-05
1.8546e-05
1.69907e-05
1.53695e-05
1.36947e-05
1.19997e-05
1.03272e-05
8.72061e-06
7.21759e-06
5.84633e-06
4.62488e-06
3.5622e-06
2.66028e-06
1.91586e-06
1.32227e-06
8.71306e-07
5.57326e-07
3.83905e-07
3.46878e-07
3.90338e-07
4.55723e-07
5.18681e-07
5.69953e-07
6.0394e-07
6.16896e-07
6.0721e-07
5.76743e-07
5.29638e-07
4.74927e-07
4.20221e-07
3.81582e-07
3.60365e-07
3.73568e-07
3.99008e-07
4.4513e-07
5.13735e-07
3.68371e-06
3.84646e-06
3.98521e-06
4.0448e-06
3.98858e-06
3.81292e-06
3.55644e-06
3.33071e-06
3.34397e-06
3.82377e-06
4.80883e-06
6.16059e-06
7.85739e-06
1.02412e-05
1.37133e-05
1.79875e-05
2.20944e-05
2.51545e-05
2.69644e-05
2.80313e-05
2.92155e-05
3.14584e-05
3.49375e-05
3.78699e-05
3.85435e-05
3.70072e-05
3.45812e-05
3.23324e-05
3.0419e-05
2.86238e-05
2.68662e-05
2.52036e-05
2.36937e-05
2.23551e-05
2.11869e-05
2.01858e-05
1.93509e-05
1.86861e-05
1.82008e-05
1.79117e-05
1.78435e-05
1.80316e-05
1.85173e-05
1.93502e-05
2.06181e-05
2.24157e-05
2.47183e-05
2.74825e-05
3.07027e-05
3.41472e-05
3.78447e-05
4.18795e-05
4.54862e-05
4.75604e-05
4.73214e-05
4.43952e-05
3.95522e-05
3.46622e-05
3.09418e-05
2.82246e-05
2.59896e-05
2.40764e-05
2.24868e-05
2.1138e-05
1.98813e-05
1.85901e-05
1.71943e-05
1.56764e-05
1.40565e-05
1.23778e-05
1.06934e-05
9.05621e-06
7.51186e-06
6.09467e-06
4.82696e-06
3.72055e-06
2.77883e-06
1.99929e-06
1.37531e-06
8.9871e-07
5.64681e-07
3.8159e-07
3.51414e-07
4.08144e-07
4.84023e-07
5.53897e-07
6.09338e-07
6.4562e-07
6.5979e-07
6.50925e-07
6.21445e-07
5.75916e-07
5.23578e-07
4.72073e-07
4.36736e-07
4.18279e-07
4.32341e-07
4.58279e-07
5.02367e-07
5.72468e-07
2.99441e-06
3.08622e-06
3.14761e-06
3.1425e-06
3.0486e-06
2.87527e-06
2.68186e-06
2.60844e-06
2.86172e-06
3.57086e-06
4.70524e-06
6.16654e-06
7.85231e-06
9.71742e-06
1.1886e-05
1.46222e-05
1.8006e-05
2.17059e-05
2.52106e-05
2.81804e-05
3.0553e-05
3.23574e-05
3.33445e-05
3.33526e-05
3.25882e-05
3.15696e-05
3.05565e-05
2.94713e-05
2.8206e-05
2.67942e-05
2.53465e-05
2.39541e-05
2.26651e-05
2.14998e-05
2.04673e-05
1.95725e-05
1.88201e-05
1.82169e-05
1.77739e-05
1.75073e-05
1.74395e-05
1.76018e-05
1.80289e-05
1.87599e-05
1.98595e-05
2.13936e-05
2.33927e-05
2.57861e-05
2.84796e-05
3.12686e-05
3.39435e-05
3.64743e-05
3.86014e-05
3.96835e-05
3.91276e-05
3.69327e-05
3.39279e-05
3.10821e-05
2.86443e-05
2.6448e-05
2.44902e-05
2.28951e-05
2.1667e-05
2.06623e-05
1.97e-05
1.86428e-05
1.74184e-05
1.60122e-05
1.44519e-05
1.27908e-05
1.10934e-05
9.42285e-06
7.83334e-06
6.36588e-06
5.04754e-06
3.89323e-06
2.90783e-06
2.08965e-06
1.43211e-06
9.26947e-07
5.70061e-07
3.75771e-07
3.54857e-07
4.27649e-07
5.15591e-07
5.93327e-07
6.53584e-07
6.92661e-07
7.0848e-07
7.00848e-07
6.72763e-07
6.29193e-07
5.79515e-07
5.3127e-07
4.99e-07
4.82844e-07
4.97465e-07
5.23563e-07
5.65594e-07
6.36637e-07
2.39932e-06
2.43529e-06
2.43819e-06
2.38714e-06
2.27448e-06
2.12525e-06
2.01944e-06
2.10664e-06
2.53459e-06
3.3339e-06
4.45133e-06
5.83021e-06
7.42128e-06
9.1684e-06
1.10254e-05
1.3009e-05
1.52041e-05
1.76561e-05
2.02535e-05
2.27449e-05
2.48681e-05
2.64073e-05
2.73452e-05
2.78714e-05
2.81266e-05
2.81197e-05
2.77823e-05
2.71027e-05
2.61529e-05