/*--------------------------------*- C++ -*----------------------------------*\
| =========                 |                                                 |
| \\      /  F ield         | OpenFOAM: The Open Source CFD Toolbox           |
|  \\    /   O peration     | Version:  2.1.1                                 |
|   \\  /    A nd           | Web:      www.OpenFOAM.org                      |
|    \\/     M anipulation  |                                                 |
\*---------------------------------------------------------------------------*/
FoamFile
{
    version     2.0;
    format      ascii;
    class       volScalarField;
    location    "0.095";
    object      p;
}
// * * * * * * * * * * * * * * * * * * * * * * * * * * * * * * * * * * * * * //

dimensions      [0 2 -2 0 0 0 0];

internalField   nonuniform List<scalar> 
6820
(
8.14475
-9.69082
-12.6989
-12.8864
-13.0598
-12.9874
-12.9319
-12.9457
-12.9943
-13.0627
-13.1425
-13.2286
-13.3187
-13.4118
-13.5075
-13.6058
-13.7068
-13.8107
-13.9177
-14.0284
-14.1433
-14.2629
-14.3881
-14.5196
-14.6586
-14.8059
-14.963
-15.1303
-15.3127
-15.5058
-15.7222
-15.934
-16.2262
1.46337
-9.50983
-12.3879
-12.6884
-12.9416
-12.9652
-12.946
-12.9709
-13.0211
-13.0865
-13.1623
-13.2446
-13.3316
-13.4222
-13.5161
-13.613
-13.7129
-13.816
-13.9224
-14.0325
-14.1469
-14.266
-14.3907
-14.5218
-14.6602
-14.8069
-14.9635
-15.1311
-15.3106
-15.5035
-15.7182
-15.9427
-16.2445
-1.25161
-8.07995
-11.3682
-12.1266
-12.5955
-12.7937
-12.8533
-12.9108
-12.9804
-13.0581
-13.1425
-13.2314
-13.3232
-13.4174
-13.5136
-13.612
-13.7127
-13.816
-13.9223
-14.032
-14.1457
-14.2639
-14.3874
-14.5169
-14.6535
-14.7982
-14.9521
-15.1164
-15.2925
-15.4811
-15.6878
-15.9012
-16.1435
-3.23726
-7.85309
-10.9473
-11.8075
-12.2806
-12.5582
-12.6881
-12.7898
-12.8906
-12.9888
-13.0861
-13.1838
-13.2821
-13.3814
-13.4818
-13.5836
-13.6872
-13.7927
-13.9007
-14.0117
-14.1261
-14.2444
-14.3675
-14.4961
-14.631
-14.773
-14.9233
-15.0828
-15.2527
-15.4335
-15.6279
-15.8312
-16.0489
-4.87308
-7.95396
-10.5562
-11.4609
-11.9701
-12.3273
-12.5277
-12.6694
-12.7951
-12.9104
-13.0198
-13.1267
-13.232
-13.3365
-13.4411
-13.5462
-13.6522
-13.7596
-13.8689
-13.9804
-14.0947
-14.2124
-14.334
-14.4603
-14.5918
-14.7293
-14.8735
-15.0252
-15.185
-15.353
-15.53
-15.713
-15.9016
-6.09601
-8.13523
-10.3058
-11.2514
-11.7798
-12.1643
-12.3998
-12.5645
-12.7064
-12.8347
-12.9538
-13.0681
-13.1795
-13.289
-13.3974
-13.5054
-13.6137
-13.7227
-13.833
-13.9449
-14.0591
-14.1758
-14.2957
-14.4192
-14.5469
-14.6792
-14.8165
-14.959
-15.1071
-15.2604
-15.4186
-15.5799
-15.7444
-7.04693
-8.42191
-10.1889
-11.0973
-11.6136
-12.0065
-12.2723
-12.4625
-12.6226
-12.7645
-12.8935
-13.015
-13.1317
-13.2452
-13.3567
-13.467
-13.577
-13.687
-13.7978
-13.9096
-14.0229
-14.1381
-14.2556
-14.3758
-14.499
-14.6255
-14.7553
-14.8886
-15.0249
-15.1638
-15.3043
-15.4446
-15.5831
-7.79306
-8.72825
-10.138
-10.9819
-11.4867
-11.8813
-12.1659
-12.3736
-12.5457
-12.6971
-12.8338
-12.9611
-13.0826
-13.2
-13.3145
-13.4273
-13.5389
-13.6501
-13.7613
-13.8729
-13.9854
-14.099
-14.2141
-14.3309
-14.4497
-14.5704
-14.6929
-14.8171
-14.9423
-15.0675
-15.1916
-15.3123
-15.4272
-8.38534
-9.03195
-10.1483
-10.9121
-11.3945
-11.7775
-12.0686
-12.2879
-12.4701
-12.6303
-12.7744
-12.9077
-13.0339
-13.155
-13.2724
-13.3873
-13.5003
-13.6123
-13.7236
-13.8347
-13.9459
-14.0576
-14.1699
-14.283
-14.3968
-14.5114
-14.6265
-14.7414
-14.8555
-14.9675
-15.0758
-15.1781
-15.2714
-8.86162
-9.31738
-10.1963
-10.8715
-11.325
-11.6922
-11.9842
-12.2114
-12.4011
-12.5678
-12.7177
-12.8558
-12.9857
-13.1099
-13.2297
-13.3463
-13.4605
-13.573
-13.6843
-13.7947
-13.9046
-14.0142
-14.1236
-14.2329
-14.3419
-14.4505
-14.5581
-14.6643
-14.7678
-14.8675
-14.9616
-15.0476
-15.1224
-9.24878
-9.57683
-10.2683
-10.8564
-11.2775
-11.6254
-11.912
-12.142
-12.3361
-12.5074
-12.6618
-12.804
-12.9374
-13.0644
-13.1864
-13.3046
-13.4199
-13.5328
-13.6439
-13.7534
-13.8618
-13.9691
-14.0754
-14.1807
-14.2848
-14.3873
-14.4878
-14.5853
-14.679
-14.7673
-14.8484
-14.9202
-14.9795
-9.56646
-9.80794
-10.3533
-10.8598
-11.246
-11.5724
-11.8499
-12.0795
-12.2759
-12.4504
-12.6083
-12.7538
-12.89
-13.0193
-13.1431
-13.2626
-13.3786
-13.4916
-13.6023
-13.7108
-13.8175
-13.9225
-14.0257
-14.127
-14.2262
-14.3229
-14.4165
-14.5061
-14.5907
-14.6689
-14.7388
-14.7986
-14.8454
-9.82898
-10.0108
-10.4432
-10.8765
-11.2275
-11.5319
-11.7977
-12.024
-12.2206
-12.3965
-12.5566
-12.7045
-12.843
-12.9741
-13.0995
-13.22
-13.3365
-13.4496
-13.5597
-13.6671
-13.7721
-13.8746
-13.9746
-14.072
-14.1665
-14.2577
-14.3448
-14.4271
-14.5035
-14.5727
-14.633
-14.6829
-14.7197
-10.0469
-10.1868
-10.5323
-10.9019
-11.2186
-11.5008
-11.7536
-11.9744
-12.1694
-12.3456
-12.507
-12.6566
-12.7968
-12.9295
-13.056
-13.1773
-13.2941
-13.407
-13.5164
-13.6226
-13.7257
-13.8258
-13.9227
-14.0163
-14.1063
-14.1922
-14.2734
-14.3491
-14.4183
-14.4798
-14.5322
-14.5741
-14.6034
-10.228
-10.338
-10.6169
-10.932
-11.2165
-11.4773
-11.7163
-11.9303
-12.1224
-12.2978
-12.4596
-12.6101
-12.7515
-12.8852
-13.0126
-13.1344
-13.2514
-13.364
-13.4726
-13.5775
-13.6788
-13.7764
-13.8703
-13.9603
-14.0461
-14.1272
-14.203
-14.2729
-14.3358
-14.3908
-14.4368
-14.4725
-14.4964
-10.3783
-10.4663
-10.6941
-10.9635
-11.2187
-11.4591
-11.6844
-11.8907
-12.079
-12.2527
-12.4141
-12.565
-12.7071
-12.8416
-12.9695
-13.0917
-13.2087
-13.3209
-13.4286
-13.5322
-13.6315
-13.7268
-13.8178
-13.9044
-13.9863
-14.063
-14.134
-14.1988
-14.2564
-14.3061
-14.347
-14.3781
-14.3983
-10.502
-10.5739
-10.7624
-10.994
-11.2228
-11.4445
-11.6566
-11.8548
-12.0386
-12.2101
-12.3706
-12.5215
-12.6638
-12.7988
-12.9271
-13.0494
-13.1662
-13.2779
-13.3847
-13.4869
-13.5845
-13.6775
-13.7658
-13.8493
-13.9276
-14.0004
-14.0673
-14.1277
-14.1809
-14.2264
-14.2634
-14.2913
-14.3092
-10.6026
-10.6623
-10.8205
-11.0212
-11.227
-11.4317
-11.6315
-11.8216
-12.0008
-12.1696
-12.3288
-12.4792
-12.6217
-12.7568
-12.8853
-13.0076
-13.1241
-13.2352
-13.3411
-13.4419
-13.5378
-13.6286
-13.7144
-13.795
-13.8701
-13.9395
-14.0027
-14.0594
-14.1091
-14.1513
-14.1854
-14.2112
-14.2278
-10.6824
-10.733
-10.8679
-11.0436
-11.2297
-11.4193
-11.6078
-11.7904
-11.9648
-12.1308
-12.2886
-12.4384
-12.5807
-12.7159
-12.8444
-12.9666
-13.0829
-13.1934
-13.2984
-13.398
-13.4922
-13.5811
-13.6646
-13.7426
-13.8149
-13.8813
-13.9415
-13.9952
-14.0421
-14.0818
-14.114
-14.1385
-14.1549
-10.7433
-10.787
-10.904
-11.0596
-11.2292
-11.4058
-11.5844
-11.7601
-11.93
-12.0934
-12.2497
-12.3988
-12.5409
-12.676
-12.8045
-12.9266
-13.0425
-13.1524
-13.2565
-13.3548
-13.4475
-13.5345
-13.6159
-13.6915
-13.7613
-13.8251
-13.8827
-13.934
-13.9786
-14.0165
-14.0474
-14.0714
-14.0881
-10.7865
-10.825
-10.9283
-11.0682
-11.2242
-11.39
-11.5602
-11.7299
-11.896
-12.057
-12.212
-12.3605
-12.5024
-12.6376
-12.7661
-12.8882
-13.0038
-13.1132
-13.2165
-13.3138
-13.4051
-13.4905
-13.5701
-13.6437
-13.7114
-13.7731
-13.8286
-13.8779
-13.9209
-13.9576
-13.9878
-14.0117
-14.0292
-10.813
-10.8475
-10.9406
-11.0684
-11.2137
-11.3707
-11.5341
-11.6989
-11.8618
-12.0209
-12.175
-12.3232
-12.465
-12.6002
-12.7288
-12.8508
-12.9662
-13.0751
-13.1776
-13.2738
-13.3638
-13.4477
-13.5256
-13.5974
-13.6631
-13.7229
-13.7766
-13.8243
-13.866
-13.9017
-13.9316
-13.9557
-13.9742
-10.823
-10.8547
-10.9403
-11.0592
-11.1965
-11.3469
-11.5053
-11.6665
-11.8273
-11.9853
-12.139
-12.2872
-12.4294
-12.5651
-12.6941
-12.8162
-12.9316
-13.0403
-13.1423
-13.2377
-13.3267
-13.4094
-13.4858
-13.5561
-13.6204
-13.6786
-13.7309
-13.7774
-13.8182
-13.8534
-13.8831
-13.9077
-13.9272
-10.8166
-10.8464
-10.9269
-11.0397
-11.1715
-11.3175
-11.4726
-11.6317
-11.7914
-11.949
-12.1029
-12.2516
-12.3944
-12.5306
-12.6601
-12.7825
-12.8979
-13.0062
-13.1077
-13.2024
-13.2903
-13.3718
-13.4469
-13.5157
-13.5785
-13.6353
-13.6863
-13.7316
-13.7716
-13.8062
-13.8359
-13.861
-13.8815
-10.7935
-10.8221
-10.8997
-11.009
-11.1379
-11.2817
-11.4356
-11.5944
-11.7545
-11.9131
-12.0682
-12.2184
-12.3626
-12.5001
-12.6306
-12.7538
-12.8697
-12.9782
-13.0795
-13.1737
-13.261
-13.3416
-13.4156
-13.4833
-13.5448
-13.6005
-13.6504
-13.6949
-13.7342
-13.7686
-13.7983
-13.8237
-13.845
-10.7528
-10.781
-10.8576
-10.9659
-11.0942
-11.2382
-11.3927
-11.5528
-11.7145
-11.8749
-12.032
-12.1841
-12.33
-12.469
-12.6006
-12.7247
-12.841
-12.9496
-13.0507
-13.1444
-13.2309
-13.3105
-13.3834
-13.4498
-13.5101
-13.5646
-13.6134
-13.6569
-13.6954
-13.7293
-13.7588
-13.7844
-13.8063
-10.6933
-10.7218
-10.7995
-10.9095
-11.0401
-11.1869
-11.345
-11.5088
-11.6745
-11.8389
-11.9998
-12.1553
-12.3042
-12.4458
-12.5795
-12.7051
-12.8225
-12.9318
-13.0331
-13.1266
-13.2127
-13.2915
-13.3635
-13.429
-13.4882
-13.5415
-13.5893
-13.6319
-13.6697
-13.703
-13.7321
-13.7576
-13.7796
-10.6132
-10.6429
-10.7235
-10.8376
-10.9728
-11.1247
-11.288
-11.4571
-11.6279
-11.7971
-11.9623
-12.1217
-12.274
-12.4184
-12.5543
-12.6816
-12.8001
-12.91
-13.0115
-13.1049
-13.1904
-13.2684
-13.3393
-13.4036
-13.4615
-13.5136
-13.5601
-13.6015
-13.6382
-13.6706
-13.6991
-13.7242
-13.7462
-10.5101
-10.5419
-10.6283
-10.7502
-10.8943
-11.0557
-11.2286
-11.4071
-11.5866
-11.7637
-11.9359
-12.1014
-12.2588
-12.4073
-12.5465
-12.6761
-12.7964
-12.9073
-13.0093
-13.1026
-13.1877
-13.265
-13.335
-13.398
-13.4547
-13.5054
-13.5505
-13.5906
-13.626
-13.6572
-13.6846
-13.7086
-13.7296
-10.3806
-10.4152
-10.5094
-10.6413
-10.796
-10.9681
-11.1518
-11.3405
-11.5296
-11.7155
-11.8956
-12.0679
-12.2311
-12.3844
-12.5274
-12.66
-12.7823
-12.8945
-12.9971
-13.0904
-13.175
-13.2515
-13.3203
-13.3819
-13.437
-13.486
-13.5294
-13.5678
-13.6016
-13.6313
-13.6573
-13.6802
-13.7003
-10.2204
-10.2604
-10.3682
-10.5181
-10.6918
-10.8831
-11.085
-11.2903
-11.494
-11.6924
-11.8831
-12.0641
-12.2344
-12.3933
-12.5406
-12.6763
-12.8006
-12.9141
-13.0171
-13.1103
-13.1943
-13.2696
-13.3369
-13.3969
-13.45
-13.4969
-13.5382
-13.5743
-13.6059
-13.6333
-13.657
-13.6776
-13.6952
-10.0223
-10.0669
-10.1887
-10.3557
-10.547
-10.7567
-10.9773
-11.2007
-11.4211
-11.6347
-11.8388
-12.0312
-12.2109
-12.3774
-12.5306
-12.6707
-12.7981
-12.9134
-13.0173
-13.1105
-13.1938
-13.268
-13.3337
-13.3917
-13.4426
-13.4872
-13.526
-13.5596
-13.5887
-13.6136
-13.6351
-13.6535
-13.6694
-9.78113
-9.84041
-9.99496
-10.2
-10.4271
-10.6691
-10.9181
-11.1654
-11.4057
-11.6358
-11.8533
-12.0566
-12.2449
-12.418
-12.5761
-12.7196
-12.8491
-12.9655
-13.0694
-13.162
-13.2439
-13.316
-13.3793
-13.4345
-13.4823
-13.5235
-13.5587
-13.5886
-13.6138
-13.6349
-13.6523
-13.6666
-13.6781
-9.4747
-9.53639
-9.71092
-9.94258
-10.2002
-10.4773
-10.762
-11.0428
-11.3131
-11.5693
-11.8086
-12.0297
-12.232
-12.4158
-12.5818
-12.7308
-12.8638
-12.982
-13.0865
-13.1786
-13.2592
-13.3294
-13.3902
-13.4426
-13.4873
-13.5252
-13.5569
-13.5833
-13.6049
-13.6224
-13.6363
-13.6474
-13.656
-9.11347
-9.2305
-9.49066
-9.79367
-10.1026
-10.4204
-10.7382
-11.0455
-11.3378
-11.6124
-11.8671
-12.1007
-12.3132
-12.5048
-12.6765
-12.8291
-12.964
-13.0825
-13.1861
-13.2759
-13.3534
-13.4197
-13.476
-13.5234
-13.5627
-13.5948
-13.6207
-13.6409
-13.6561
-13.6671
-13.6744
-13.6786
-13.6803
-8.5847
-8.67557
-8.97343
-9.34428
-9.73413
-10.1355
-10.528
-10.8976
-11.2407
-11.5554
-11.8407
-12.097
-12.3258
-12.5289
-12.708
-12.8653
-13.0026
-13.1218
-13.2247
-13.313
-13.3881
-13.4516
-13.5045
-13.5482
-13.5836
-13.6116
-13.633
-13.6486
-13.659
-13.6649
-13.6671
-13.6662
-13.6632
-8.09052
-8.41279
-8.88043
-9.299
-9.70865
-10.1365
-10.5541
-10.948
-11.3166
-11.6562
-11.9638
-12.2391
-12.4829
-12.6968
-12.8828
-13.0434
-13.1809
-13.2978
-13.3962
-13.4784
-13.5463
-13.6015
-13.6457
-13.6802
-13.7062
-13.7246
-13.7364
-13.7422
-13.7425
-13.738
-13.729
-13.7164
-13.7004
-6.78926
-7.11113
-7.88417
-8.58361
-9.21968
-9.82544
-10.3688
-10.8496
-11.2779
-11.6578
-11.9925
-12.2863
-12.543
-12.7662
-12.9588
-13.1239
-13.2642
-13.3824
-13.4809
-13.562
-13.6276
-13.6797
-13.72
-13.75
-13.7708
-13.7836
-13.7891
-13.7881
-13.7807
-13.7674
-13.7474
-13.7223
-13.6877
-6.77777
-7.52313
-8.12876
-8.59726
-9.19869
-9.83332
-10.4243
-10.9741
-11.4764
-11.9206
-12.3059
-12.6359
-12.915
-13.1479
-13.3401
-13.4969
-13.6232
-13.7232
-13.8011
-13.8601
-13.9032
-13.933
-13.9516
-13.9607
-13.962
-13.9567
-13.9455
-13.9291
-13.9074
-13.8795
-13.8427
-13.7943
-13.7199
-0.530729
-5.13889
-6.92463
-7.77718
-8.78104
-9.65847
-10.3597
-10.9676
-11.4983
-11.9523
-12.3387
-12.6658
-12.9401
-13.1679
-13.3552
-13.5076
-13.6299
-13.7265
-13.8013
-13.8576
-13.8983
-13.926
-13.9428
-13.9504
-13.9505
-13.9443
-13.933
-13.9174
-13.8987
-13.8766
-13.8538
-13.8255
-13.803
-16.3065
-17.0303
-17.8507
-18.3045
-18.3641
-17.8972
-16.8568
-15.2824
-13.3315
-11.2656
-9.37683
-7.93521
-7.1338
-7.03809
-7.66139
-9.02083
-11.1535
-14.1024
-17.8945
-22.5002
-27.7918
-33.5223
-39.3329
-44.7875
-49.4574
-53.0149
-55.1009
-55.1682
-52.6424
-47.7267
-41.5662
-35.2973
-29.4699
-24.2181
-19.548
-15.4432
-11.8792
-8.81915
-6.21536
-4.0132
-2.15647
-0.592338
0.716319
1.78341
2.55244
2.83476
2.37212
0.634225
-3.34643
-10.0412
-18.8132
-28.1998
-36.6169
-42.804
-45.9265
-45.6834
-42.049
-35.7206
-28.0156
-20.5395
-14.3824
-9.75508
-6.39171
-3.97533
-2.26275
-1.07104
-0.259107
0.280184
0.626475
0.838276
0.958253
1.01716
1.03677
1.03211
1.01312
0.986035
0.954481
0.920313
0.884288
0.846644
0.807393
0.766525
0.724139
0.680454
0.635775
0.590449
0.544814
0.499182
0.453804
0.408951
0.364786
0.321681
0.279554
0.239192
0.199332
0.162635
0.123193
0.0923267
0.0460892
0.0317597
-16.4974
-17.0645
-17.7819
-18.1772
-18.1548
-17.6164
-16.5153
-14.8937
-12.9111
-10.829
-8.9462
-7.51076
-6.69939
-6.62323
-7.34063
-8.80866
-11.0183
-13.9963
-17.753
-22.2458
-27.3456
-32.8203
-38.342
-43.5242
-48.002
-51.4198
-53.3064
-53.0286
-50.1692
-45.2698
-39.5009
-33.7684
-28.4264
-23.5572
-19.177
-15.289
-11.8846
-8.93916
-6.41541
-4.26858
-2.45207
-0.922839
0.346972
1.36135
2.07131
2.31299
1.83544
0.220549
-3.32513
-9.29237
-17.2212
-25.8561
-33.71
-39.5404
-42.5017
-42.3104
-38.9687
-33.2039
-26.2756
-19.5808
-14.0039
-9.716
-6.52268
-4.18197
-2.4951
-1.30218
-0.474879
0.086466
0.457249
0.693649
0.837055
0.91753
0.956481
0.96873
0.964198
0.949179
0.927467
0.901132
0.871195
0.838148
0.80228
0.763818
0.723087
0.680491
0.636485
0.591548
0.546115
0.500573
0.455228
0.410386
0.366223
0.323116
0.280948
0.240531
0.20052
0.163712
0.123949
0.0930371
0.046214
0.0322771
-16.3841
-16.9283
-17.5466
-17.8667
-17.7813
-17.2021
-16.0832
-14.474
-12.5304
-10.4945
-8.65118
-7.25838
-6.49374
-6.45217
-7.18469
-8.71934
-11.0017
-13.9995
-17.704
-22.0675
-26.9643
-32.1786
-37.4162
-42.3421
-46.6169
-49.793
-51.3241
-50.5742
-47.451
-42.7353
-37.4716
-32.2914
-27.4136
-22.9058
-18.8033
-15.1278
-11.883
-9.05457
-6.61479
-4.52801
-2.75641
-1.2659
-0.0366079
0.926509
1.5757
1.77255
1.28469
-0.232191
-3.40322
-8.68594
-15.7559
-23.5715
-30.7879
-36.2097
-38.9926
-38.8725
-35.8788
-30.7402
-24.6141
-18.6782
-13.6461
-9.67682
-6.64816
-4.38462
-2.72632
-1.53449
-0.693328
-0.110718
0.284306
0.545416
0.712588
0.815084
0.873854
0.903489
0.913837
0.911247
0.899661
0.881371
0.857678
0.829347
0.796942
0.760947
0.721908
0.680424
0.637108
0.592568
0.547342
0.501894
0.456583
0.411755
0.367593
0.324487
0.282288
0.241829
0.201682
0.164772
0.124707
0.0937454
0.0463435
0.0327676
-16.3131
-16.763
-17.2291
-17.4421
-17.2831
-16.6779
-15.5937
-14.08
-12.2739
-10.3848
-8.66686
-7.339
-6.58402
-6.55036
-7.30538
-8.83691
-11.1194
-14.1084
-17.7494
-21.9743
-26.6626
-31.6183
-36.5787
-41.2391
-45.2208
-48.0091
-49.0098
-47.7876
-44.5901
-40.2405
-35.5352
-30.8805
-26.4308
-22.2619
-18.4269
-14.9602
-11.8749
-9.16555
-6.81325
-4.79086
-3.06871
-1.62074
-0.433966
0.479884
1.07125
1.22338
0.725882
-0.709842
-3.56002
-8.21273
-14.4435
-21.4076
-27.9321
-32.9033
-35.5008
-35.4738
-32.88
-28.4074
-23.0725
-17.844
-13.3088
-9.63518
-6.76645
-4.58231
-2.95575
-1.76752
-0.914117
-0.311134
0.107802
0.393692
0.584949
0.709911
0.78899
0.836493
0.862162
0.872386
0.871254
0.861281
0.844037
0.820567
0.791715
0.758235
0.720904
0.680524
0.637878
0.593708
0.548661
0.503282
0.457987
0.413156
0.368985
0.325869
0.283631
0.243123
0.202835
0.165815
0.125453
0.0944365
0.0464717
0.0332581
-16.1277
-16.4659
-16.7858
-16.9013
-16.703
-16.1308
-15.1595
-13.8267
-12.2393
-10.5562
-8.99871
-7.76437
-7.05517
-7.01647
-7.73624
-9.22647
-11.4505
-14.3623
-17.8994
-21.9708
-26.4458
-31.1365
-35.7943
-40.1192
-43.667
-45.892
-46.2991
-44.7659
-41.7208
-37.8578
-33.706
-29.5347
-25.4794
-21.6297
-18.0519
-14.7892
-11.8622
-9.27337
-7.01151
-5.05736
-3.38872
-1.98681
-0.844635
0.0215189
0.559767
0.669884
0.166441
-1.19558
-3.77412
-7.86868
-13.3179
-19.4421
-25.2488
-29.7392
-32.1462
-32.2321
-30.0666
-26.26
-21.6675
-17.078
-12.9906
-9.59153
-6.87857
-4.77558
-3.18352
-2.00123
-1.13722
-0.514795
-0.0722801
0.238474
0.454159
0.602062
0.701967
0.767836
0.80927
0.832683
0.842298
0.840856
0.83021
0.811697
0.786456
0.755518
0.719903
0.680622
0.638635
0.594823
0.549943
0.504625
0.459338
0.414499
0.370316
0.327192
0.284919
0.244367
0.203953
0.166833
0.12619
0.095118
0.0466027
0.0337342
-15.9383
-16.1824
-16.3856
-16.421
-16.1998
-15.6743
-14.8283
-13.6942
-12.3556
-10.9474
-9.61062
-8.53235
-7.88054
-7.81752
-8.46197
-9.85649
-11.977
-14.7667
-18.151
-22.0289
-26.2578
-30.6397
-34.9237
-38.7793
-41.741
-43.3225
-43.2669
-41.6822
-38.9816
-35.6383
-31.9929
-28.2547
-24.5605
-21.0112
-17.6802
-14.6164
-11.8461
-9.37859
-7.20964
-5.32706
-3.71554
-2.36279
-1.26708
-0.447636
0.0429329
0.115803
-0.388944
-1.67917
-4.02566
-7.64107
-12.3937
-17.7327
-22.8343
-26.8366
-29.0535
-29.2606
-27.5183
-24.3342
-20.4053
-16.3767
-12.6891
-9.54543
-6.98459
-4.96439
-3.40949
-2.2355
-1.36257
-0.721647
-0.255894
0.0798192
0.320295
0.491637
0.612906
0.697655
0.755312
0.792296
0.812965
0.82029
0.816408
0.80296
0.78139
0.753014
0.719109
0.680903
0.639541
0.596052
0.551305
0.506018
0.460717
0.415856
0.37165
0.32851
0.286199
0.2456
0.205059
0.167836
0.126915
0.0957813
0.0467273
0.0341999
-15.7382
-15.9081
-16.0258
-16.0041
-15.7735
-15.2967
-14.5644
-13.6053
-12.4921
-11.3335
-10.2435
-9.36155
-8.82782
-8.78458
-9.35611
-10.6163
-12.5749
-15.1868
-18.3672
-21.998
-25.9193
-29.9184
-33.7287
-36.9833
-39.2976
-40.3713
-40.1396
-38.7436
-36.4623
-33.5945
-30.3902
-27.0376
-23.6758
-20.4094
-17.3146
-14.4437
-11.8278
-9.48185
-7.40774
-5.59957
-4.04825
-2.74723
-1.69942
-0.92601
-0.478346
-0.436528
-0.937585
-2.15565
-4.29768
-7.5058
-11.6573
-16.298
-20.7481
-24.2845
-26.3174
-26.6357
-25.275
-22.6357
-19.2759
-15.732
-12.4016
-9.49737
-7.08541
-5.14924
-3.63387
-2.47043
-1.59024
-0.931749
-0.443074
-0.0822718
0.1834
0.378722
0.521927
0.626097
0.700446
0.751381
0.783391
0.799682
0.802688
0.794371
0.776493
0.750672
0.718449
0.681282
0.640506
0.597305
0.552663
0.507384
0.462054
0.417159
0.372926
0.329769
0.287424
0.246784
0.206127
0.16881
0.12763
0.096435
0.046858
0.0346612
-15.5494
-15.6668
-15.7264
-15.6668
-15.435
-15.0024
-14.3645
-13.5475
-12.6126
-11.6499
-10.7615
-10.0644
-9.67291
-9.69667
-10.2364
-11.3675
-13.1226
-15.4822
-18.3731
-21.6706
-25.2003
-28.7368
-31.99
-34.6555
-36.5038
-37.3727
-37.2094
-36.0887
-34.1854
-31.7161
-28.8907
-25.8832
-22.8277
-19.8268
-16.957
-14.2725
-11.8083
-9.58354
-7.60564
-5.8742
-4.38561
-3.13839
-2.13937
-1.41112
-1.00238
-0.985397
-1.47752
-2.62246
-4.57888
-7.43776
-11.0786
-15.1199
-18.9986
-22.1148
-23.9733
-24.3769
-23.3325
-21.145
-18.2612
-15.135
-12.1267
-9.44822
-7.18186
-5.33057
-3.85691
-2.70621
-1.82036
-1.1452
-0.633871
-0.247797
0.0435315
0.263427
0.429186
0.553346
0.644871
0.71014
0.753776
0.779229
0.789241
0.786115
0.771942
0.748654
0.718071
0.681891
0.641646
0.598678
0.554095
0.508789
0.463401
0.418456
0.374185
0.331006
0.288625
0.247944
0.207175
0.169761
0.128328
0.0970651
0.0469757
0.0351014
-15.3651
-15.4419
-15.4593
-15.3744
-15.1485
-14.7601
-14.2083
-13.5166
-12.736
-11.9408
-11.2186
-10.6681
-10.3882
-10.4712
-10.9968
-12.023
-13.578
-15.6521
-18.1879
-21.0738
-24.1438
-27.1834
-29.9547
-32.2479
-33.8769
-34.6923
-34.629
-33.7311
-32.1252
-29.9849
-27.4888
-24.7917
-22.018
-19.2654
-16.6092
-14.1043
-11.7883
-9.68395
-7.80309
-6.15013
-4.72626
-3.53437
-2.58452
-1.90016
-1.52693
-1.5292
-2.00725
-3.07825
-4.86292
-7.41681
-10.6229
-14.1565
-17.5479
-20.2987
-21.9939
-22.4501
-21.6514
-19.8276
-17.3409
-14.5788
-11.8641
-9.39931
-7.27508
-5.50913
-4.07911
-2.94319
-2.05319
-1.36219
-0.828411
-0.416803
-0.0992746
0.14586
0.334847
0.479607
0.58881
0.668797
0.724326
0.759108
0.776208
0.77829
0.767796
0.746985
0.717972
0.682703
0.642919
0.600124
0.555551
0.51018
0.464711
0.4197
0.375385
0.332183
0.289772
0.249056
0.208189
0.170688
0.129018
0.0976911
0.0471069
0.0355473
-15.1928
-15.2398
-15.2294
-15.1313
-14.9175
-14.5725
-14.0976
-13.5142
-12.8651
-12.2122
-11.6302
-11.2023
-11.0123
-11.1382
-11.6459
-12.5811
-13.9627
-15.7781
-17.977
-20.4658
-23.1068
-25.7306
-28.1535
-30.1768
-31.6183
-32.3622
-32.3554
-31.6203
-30.2517
-28.3891
-26.1815
-23.7634
-21.2478
-18.7267
-16.2726
-13.9402
-11.7685
-9.7832
-7.99965
-6.42636
-5.06866
-3.93311
-3.03234
-2.39021
-2.0491
-2.06582
-2.52522
-3.52199
-5.14626
-7.42881
-10.2591
-13.3595
-16.3362
-18.7709
-20.3124
-20.791
-20.1779
-18.6481
-16.4986
-14.0594
-11.6146
-9.35218
-7.36623
-5.68576
-4.3011
-3.18187
-2.28914
-1.58302
-1.02688
-0.589369
-0.24499
0.0261448
0.239108
0.405123
0.532532
0.627623
0.695302
0.739558
0.763804
0.771088
0.764221
0.74581
0.718274
0.683822
0.644409
0.601709
0.557081
0.511598
0.466014
0.420916
0.376546
0.333316
0.290876
0.250127
0.209167
0.17158
0.129682
0.0982823
0.0472144
0.0359587
-15.0311
-15.0562
-15.0275
-14.9238
-14.7254
-14.4219
-14.0165
-13.5284
-12.9939
-12.4649
-12.0039
-11.6806
-11.5654
-11.7242
-12.2118
-13.0655
-14.2991
-15.8986
-17.8185
-19.9788
-22.2662
-24.5394
-26.6335
-28.3862
-29.6471
-30.3141
-30.3349
-29.7216
-28.5467
-26.9204
-24.9653
-22.7973
-20.5178
-18.2118
-15.9484
-13.7811
-11.7495
-9.88129
-8.19476
-6.70179
-5.41114
-4.33242
-3.48024
-2.87841
-2.56594
-2.59276
-3.02967
-3.95234
-5.42638
-7.46448
-9.96435
-12.6887
-15.3059
-17.4622
-18.8577
-19.3371
-18.8669
-17.5817
-15.7252
-13.5756
-11.3794
-9.30833
-7.45663
-5.86152
-4.52374
-3.42295
-2.52877
-1.80813
-1.22958
-0.765634
-0.393612
-0.0955922
0.142188
0.330174
0.476342
0.586925
0.66699
0.720832
0.75224
0.764674
0.761339
0.745207
0.719021
0.685264
0.646112
0.603415
0.558661
0.513014
0.467281
0.422077
0.377645
0.334389
0.291927
0.251156
0.210118
0.172456
0.130348
0.0988816
0.0473489
0.036389
-14.8824
-14.8922
-14.8532
-14.7504
-14.5704
-14.3068
-13.9639
-13.559
-13.1229
-12.6992
-12.3406
-12.1053
-12.0524
-12.2367
-12.7036
-13.4835
-14.5864
-15.9988
-17.6798
-19.5599
-21.5414
-23.5024
-25.3056
-26.8182
-27.9122
-28.4973
-28.528
-28.0095
-26.9949
-25.5704
-23.8364
-21.8923
-19.828
-17.7216
-15.6376
-13.6277
-11.7316
-9.97811
-8.38777
-6.97518
-5.75194
-4.73006
-3.92559
-3.36194
-3.07461
-3.10745
-3.51864
-4.36777
-5.70096
-7.51749
-9.72349
-12.116
-14.4155
-16.3218
-17.5793
-18.0474
-17.6916
-16.6152
-15.0162
-13.127
-11.1597
-9.26921
-7.54769
-6.03766
-4.74811
-3.66735
-2.77285
-2.0381
-1.4369
-0.945803
-0.545159
-0.219215
0.044339
0.255084
0.4206
0.547064
0.639734
0.703236
0.741783
0.759272
0.759332
0.745323
0.720328
0.687114
0.64809
0.605284
0.560317
0.514441
0.468517
0.423182
0.378676
0.33539
0.29291
0.252122
0.211015
0.17328
0.13097
0.0994284
0.0474438
0.0367667
-14.7459
-14.7456
-14.7018
-14.6041
-14.444
-14.2177
-13.9306
-13.5982
-13.2471
-12.9135
-12.6417
-12.4801
-12.478
-12.6809
-13.126
-13.8376
-14.8231
-16.0691
-17.5392
-19.173
-20.8864
-22.5755
-24.1261
-25.426
-26.3692
-26.8776
-26.9099
-26.4655
-25.5832
-24.3308
-22.7904
-21.0465
-19.1784
-17.2564
-15.3408
-13.4807
-11.715
-10.0734
-8.57793
-7.24526
-6.08926
-5.12377
-4.36581
-3.83806
-3.57253
-3.60758
-3.9903
-4.76681
-5.9679
-7.58307
-9.52635
-11.6241
-13.6404
-15.3211
-16.4501
-16.9006
-16.6382
-15.741
-14.3683
-12.713
-10.9562
-9.23625
-7.64095
-6.21566
-4.97555
-3.91625
-3.02237
-2.27372
-1.64939
-1.13017
-0.699686
-0.344581
-0.0541544
0.180228
0.365718
0.508456
0.613916
0.68711
0.732718
0.755112
0.758377
0.746286
0.72228
0.689425
0.650369
0.607325
0.562046
0.515873
0.469714
0.424225
0.37964
0.336329
0.293844
0.253054
0.211897
0.174104
0.131614
0.100003
0.0475862
0.0371814
-14.622
-14.6157
-14.5714
-14.482
-14.3424
-14.1512
-13.9139
-13.6447
-13.3661
-13.1088
-12.9095
-12.8087
-12.8471
-13.0622
-13.4843
-14.1326
-15.012
-16.1096
-17.3932
-18.8102
-20.289
-21.7413
-23.0723
-24.1865
-24.9952
-25.4313
-25.4579
-25.071
-24.2986
-23.1936
-21.823
-20.2581
-18.5682
-16.8166
-15.0585
-13.3403
-11.6999
-10.1669
-8.76445
-7.51074
-6.4213
-5.51135
-4.79837
-4.30415
-4.05728
-4.09111
-4.4431
-5.14828
-6.22549
-7.65742
-9.36554
-11.201
-12.9652
-14.4433
-15.4536
-15.8822
-15.6955
-14.9515
-13.7776
-12.3324
-10.7695
-9.21091
-7.73814
-6.39724
-5.2077
-4.17116
-3.27865
-2.51604
-1.86776
-1.31912
-0.857287
-0.471542
-0.152965
0.10604
0.312178
0.471581
0.589984
0.672854
0.725384
0.75247
0.758688
0.748256
0.72499
0.692269
0.65299
0.609553
0.563845
0.517291
0.470845
0.425174
0.380497
0.337162
0.29468
0.253895
0.212699
0.17485
0.132189
0.100501
0.047667
0.0375198
-14.5099
-14.5008
-14.459
-14.38
-14.2607
-14.1017
-13.9086
-13.6941
-13.4774
-13.2844
-13.1455
-13.0944
-13.1644
-13.3862
-13.7843
-14.3739
-15.1574
-16.1229
-17.2418
-18.4687
-19.7423
-20.9883
-22.1271
-23.078
-23.7667
-24.1362
-24.1531
-23.8111
-23.1302
-22.1516
-20.9297
-19.5247
-17.9967
-16.4019
-14.7908
-13.2069
-11.6862
-10.2582
-8.94649
-7.7703
-6.74632
-5.89066
-5.22093
-4.7578
-4.52665
-4.55618
-4.87574
-5.51127
-6.47242
-7.73744
-9.23492
-10.8373
-12.3774
-13.6741
-14.5745
-14.978
-14.8521
-14.2392
-13.24
-11.9841
-10.6004
-9.19469
-7.84112
-6.58441
-5.44658
-4.43397
-3.54334
-2.76636
-2.09296
-1.51318
-1.01811
-0.599939
-0.251719
0.0330205
0.260538
0.436984
0.568449
0.660915
0.720156
0.751646
0.760499
0.751405
0.728581
0.69573
0.656008
0.612003
0.565737
0.518715
0.471929
0.426051
0.38128
0.337931
0.295471
0.254713
0.213505
0.17562
0.132813
0.101056
0.0478234
0.0379187
-14.4089
-14.3995
-14.3624
-14.2947
-14.1953
-14.0656
-13.9114
-13.744
-13.5798
-13.4404
-13.3512
-13.3398
-13.4336
-13.6574
-14.0309
-14.5656
-15.2626
-16.1103
-17.0838
-18.1438
-19.2378
-20.3042
-21.2754
-22.0833
-22.6658
-22.974
-22.9785
-22.6717
-22.0673
-21.1975
-20.1062
-18.844
-17.4627
-16.0121
-14.538
-13.0804
-11.6738
-10.3469
-9.12324
-8.02269
-7.06265
-6.25971
-5.63128
-5.19679
-4.97865
-5.00114
-5.28718
-5.85509
-6.70765
-7.82052
-9.1291
-10.5241
-11.8648
-12.999
-13.7983
-14.1748
-14.0975
-13.5968
-12.7517
-11.6668
-10.4492
-9.18911
-7.95199
-6.77954
-5.6946
-4.70702
-3.81851
-3.02639
-2.32616
-1.71304
-1.18237
-0.729608
-0.349987
-0.0382406
0.211444
0.405311
0.549904
0.651809
0.71746
0.752978
0.764063
0.755911
0.733164
0.699866
0.659435
0.614655
0.567677
0.520082
0.472893
0.426778
0.381906
0.338548
0.296123
0.255406
0.2142
0.176283
0.13334
0.101502
0.0478908
0.0382122
-14.3185
-14.3107
-14.2796
-14.2237
-14.1431
-14.0399
-13.9197
-13.7925
-13.6724
-13.5775
-13.5286
-13.5484
-13.6593
-13.8812
-14.2297
-14.7133
-15.3318
-16.0747
-16.9198
-17.8334
-18.7712
-19.6804
-20.5051
-21.1879
-21.6763
-21.9291
-21.92
-21.6407
-21.1007
-20.3245
-19.348
-18.2133
-16.9649
-15.6467
-14.2997
-12.9609
-11.6626
-10.4325
-9.29389
-8.26673
-7.36875
-6.61667
-6.02746
-5.61919
-5.41155
-5.42475
-5.67669
-6.17928
-6.93039
-7.90449
-9.04344
-10.2538
-11.4168
-12.4057
-13.1122
-13.4605
-13.4219
-13.0176
-12.3087
-11.3793
-10.3165
-9.19576
-8.07303
-6.98534
-5.95473
-4.99322
-4.1068
-3.29825
-2.56891
-1.91957
-1.35036
-0.860372
-0.447269
-0.107064
0.165635
0.377298
0.535025
0.646121
0.717782
0.756854
0.769679
0.762
0.738906
0.704797
0.66336
0.617576
0.569721
0.521445
0.473792
0.427416
0.382445
0.339097
0.296738
0.256093
0.214923
0.177
0.133951
0.102042
0.0480694
0.0385943
-14.2372
-14.2322
-14.2078
-14.1637
-14.1005
-14.0209
-13.9302
-13.8371
-13.7537
-13.6951
-13.6784
-13.7221
-13.8443
-14.061
-14.3842
-14.8201
-15.3677
-16.0171
-16.7489
-17.5341
-18.3352
-19.1082
-19.8055
-20.379
-20.7848
-20.9876
-20.9646
-20.7072
-20.2214
-19.5264
-18.6509
-17.63
-16.5019
-15.3049
-14.0757
-12.8482
-11.6524
-10.5146
-9.4577
-8.50134
-7.66324
-6.95994
-6.40776
-6.02336
-5.82396
-5.82617
-6.04372
-6.48353
-7.14004
-7.98758
-8.97406
-10.0196
-11.0243
-11.8831
-12.5045
-12.8243
-12.8164
-12.4951
-11.9075
-11.12
-10.2026
-9.21624
-8.2068
-7.20506
-6.23054
-5.29617
-4.41152
-3.58467
-2.82315
-2.13391
-1.52247
-0.992051
-0.542984
-0.172667
0.123988
0.353805
0.524588
0.644512
0.721656
0.763681
0.777636
0.769856
0.745901
0.710543
0.667746
0.620685
0.571759
0.522676
0.474491
0.427826
0.382757
0.339436
0.297166
0.256614
0.2155
0.177576
0.134432
0.102438
0.0481286
0.0388382
-14.1653
-14.1638
-14.1466
-14.1137
-14.0664
-14.0076
-13.9421
-13.8777
-13.8246
-13.7951
-13.8036
-13.865
-13.9937
-14.2025
-14.5004
-14.892
-15.3753
-15.9414
-16.5731
-17.2458
-17.9277
-18.5819
-19.1683
-19.6465
-19.9797
-20.138
-20.1014
-19.8614
-19.4217
-18.797
-18.0105
-17.0913
-16.072
-14.9859
-13.8657
-12.742
-11.6428
-10.5929
-9.61402
-8.72559
-7.94493
-7.28815
-6.77074
-6.40797
-6.21477
-6.20473
-6.38795
-6.76777
-7.33624
-8.06831
-8.91762
-9.81596
-10.6796
-11.4215
-11.9651
-12.2566
-12.2728
-12.0232
-11.5441
-10.8874
-10.1076
-9.2522
-8.35618
-7.44249
-6.52643
-5.6204
-4.73684
-3.88909
-3.09134
-2.35749
-1.69922
-1.12443
-0.636469
-0.234118
0.0875313
0.335827
0.519489
0.647745
0.729705
0.773952
0.788318
0.77977
0.754372
0.717276
0.672729
0.624098
0.573893
0.523874
0.475088
0.428113
0.38296
0.339699
0.297564
0.257148
0.216137
0.178245
0.135041
0.102973
0.048339
0.0392004
-14.1
-14.1026
-14.0924
-14.0699
-14.0368
-13.996
-13.9519
-13.9112
-13.8826
-13.8763
-13.904
-13.9776
-14.1088
-14.3075
-14.5805
-14.9307
-15.356
-15.8478
-16.3915
-16.9659
-17.5442
-18.0953
-18.5854
-18.9808
-19.2507
-19.3696
-19.3202
-19.0944
-18.6942
-18.1308
-17.4228
-16.5945
-15.6735
-14.6887
-13.6691
-12.6422
-11.6337
-10.6668
-9.76229
-8.9387
-8.21284
-7.60017
-7.11527
-6.77199
-6.58322
-6.55995
-6.70935