/*--------------------------------*- C++ -*----------------------------------*\
| =========                 |                                                 |
| \\      /  F ield         | OpenFOAM: The Open Source CFD Toolbox           |
|  \\    /   O peration     | Version:  2.1.1                                 |
|   \\  /    A nd           | Web:      www.OpenFOAM.org                      |
|    \\/     M anipulation  |                                                 |
\*---------------------------------------------------------------------------*/
FoamFile
{
    version     2.0;
    format      ascii;
    class       surfaceScalarField;
    location    "0.095";
    object      phi;
}
// * * * * * * * * * * * * * * * * * * * * * * * * * * * * * * * * * * * * * //

dimensions      [0 3 -1 0 0 0 0];

internalField   nonuniform List<scalar> 
13452
(
4.59964e-05
2.24908e-05
2.96567e-05
1.63397e-05
2.11737e-05
8.48298e-06
1.72637e-05
3.91005e-06
1.56105e-05
1.65323e-06
1.47892e-05
8.21305e-07
1.42632e-05
5.25969e-07
1.38557e-05
4.07483e-07
1.35067e-05
3.4904e-07
1.32006e-05
3.06044e-07
1.2933e-05
2.67666e-07
1.26997e-05
2.33248e-07
1.24965e-05
2.03191e-07
1.2319e-05
1.77528e-07
1.21631e-05
1.55847e-07
1.20256e-05
1.3753e-07
1.19037e-05
1.21939e-07
1.17952e-05
1.08493e-07
1.16985e-05
9.66866e-08
1.16124e-05
8.60823e-08
1.15361e-05
7.62922e-08
1.14692e-05
6.69595e-08
1.14114e-05
5.77356e-08
1.13631e-05
4.82781e-08
1.1325e-05
3.81844e-08
1.12978e-05
2.71528e-08
1.12834e-05
1.44226e-08
1.12838e-05
-3.96584e-10
1.13024e-05
-1.86306e-08
1.13357e-05
-3.32472e-08
1.14045e-05
-6.87976e-08
1.14386e-05
-3.41413e-08
-2.25411e-07
1.1664e-05
7.49113e-05
1.80235e-05
7.04051e-05
2.08459e-05
6.33047e-05
1.55834e-05
5.66347e-05
1.05801e-05
5.14989e-05
6.78905e-06
4.78202e-05
4.49997e-06
4.51727e-05
3.17345e-06
4.32143e-05
2.3659e-06
4.17118e-05
1.85155e-06
4.05154e-05
1.5025e-06
3.95327e-05
1.25034e-06
3.87059e-05
1.06003e-06
3.79971e-05
9.11951e-07
3.73806e-05
7.94074e-07
3.6838e-05
6.98492e-07
3.63557e-05
6.19741e-07
3.59238e-05
5.53898e-07
3.55342e-05
4.98075e-07
3.51808e-05
4.50079e-07
3.48587e-05
4.08197e-07
3.45639e-05
3.71038e-07
3.42935e-05
3.37416e-07
3.4045e-05
3.06267e-07
3.38166e-05
2.76594e-07
3.36075e-05
2.4737e-07
3.3417e-05
2.17607e-07
3.32455e-05
1.85891e-07
3.30937e-05
1.514e-07
3.2964e-05
1.1111e-07
3.28625e-05
6.82409e-08
3.27918e-05
1.87187e-09
3.28126e-05
-5.48856e-08
-2.16557e-07
3.28037e-05
7.8521e-05
1.1959e-05
8.23326e-05
1.70343e-05
8.29843e-05
1.49316e-05
8.14567e-05
1.21077e-05
7.89153e-05
9.33051e-06
7.62035e-05
7.21173e-06
7.36531e-05
5.72387e-06
7.13676e-05
4.65137e-06
6.93606e-05
3.85851e-06
6.7608e-05
3.25517e-06
6.60765e-05
2.78177e-06
6.47345e-05
2.40205e-06
6.35536e-05
2.09285e-06
6.25096e-05
1.83809e-06
6.15821e-05
1.62602e-06
6.07539e-05
1.4479e-06
6.00108e-05
1.29701e-06
5.93408e-05
1.16812e-06
5.87338e-05
1.05706e-06
5.81815e-05
9.6046e-07
5.7677e-05
8.75528e-07
5.72146e-05
7.9987e-07
5.67895e-05
7.31373e-07
5.6398e-05
6.68095e-07
5.60372e-05
6.08146e-07
5.57051e-05
5.49676e-07
5.54005e-05
4.90527e-07
5.51231e-05
4.28847e-07
5.48731e-05
3.61064e-07
5.46544e-05
2.86933e-07
5.44623e-05
1.93945e-07
5.4315e-05
9.24026e-08
-5.41422e-08
5.41526e-05
7.81466e-05
8.3391e-06
8.19227e-05
1.32582e-05
8.46182e-05
1.22361e-05
8.6239e-05
1.04869e-05
8.69125e-05
8.65701e-06
8.69899e-05
7.1343e-06
8.67125e-05
6.00127e-06
8.62218e-05
5.14214e-06
8.56087e-05
4.47163e-06
8.49287e-05
3.93515e-06
8.42163e-05
3.49412e-06
8.34945e-05
3.12387e-06
8.27793e-05
2.80808e-06
8.20816e-05
2.53572e-06
8.14083e-05
2.29932e-06
8.07633e-05
2.09293e-06
8.01486e-05
1.91174e-06
7.95649e-05
1.75181e-06
7.90121e-05
1.60983e-06
7.84896e-05
1.48299e-06
7.79963e-05
1.3688e-06
7.75312e-05
1.26502e-06
7.7093e-05
1.16955e-06
7.66807e-05
1.08035e-06
7.62935e-05
9.95355e-07
7.59308e-05
9.12428e-07
7.55922e-05
8.29135e-07
7.5278e-05
7.43046e-07
7.49885e-05
6.50566e-07
7.4726e-05
5.49344e-07
7.44885e-05
4.31483e-07
7.42841e-05
2.96821e-07
1.36027e-07
7.40939e-05
7.89912e-05
6.00372e-06
8.15901e-05
1.06593e-05
8.35165e-05
1.03096e-05
8.49606e-05
9.0428e-06
8.59798e-05
7.63783e-06
8.67223e-05
6.39177e-06
8.72898e-05
5.43376e-06
8.77295e-05
4.70245e-06
8.80721e-05
4.12904e-06
8.8338e-05
3.66924e-06
8.8541e-05
3.29115e-06
8.86914e-05
2.97349e-06
8.87964e-05
2.70305e-06
8.88619e-05
2.47023e-06
8.88938e-05
2.26738e-06
8.88977e-05
2.08903e-06
8.88784e-05
1.93102e-06
8.88402e-05
1.79007e-06
8.87866e-05
1.66344e-06
8.87208e-05
1.54879e-06
8.86455e-05
1.44408e-06
8.85631e-05
1.3474e-06
8.84757e-05
1.25694e-06
8.83852e-05
1.17088e-06
8.82932e-05
1.08731e-06
8.82014e-05
1.00423e-06
8.81113e-05
9.19303e-07
8.80242e-05
8.3007e-07
8.79415e-05
7.33294e-07
8.78648e-05
6.26048e-07
8.7793e-05
5.03287e-07
8.77273e-05
3.62487e-07
2.01084e-07
8.76623e-05
8.04629e-05
4.38674e-06
8.25041e-05
8.61809e-06
8.39887e-05
8.82507e-06
8.50463e-05
7.98517e-06
8.57673e-05
6.91693e-06
8.62802e-05
5.87881e-06
8.66867e-05
5.02726e-06
8.7034e-05
4.35517e-06
8.73452e-05
3.81782e-06
8.76319e-05
3.3826e-06
8.78988e-05
3.02425e-06
8.81484e-05
2.72387e-06
8.8383e-05
2.46847e-06
8.86042e-05
2.249e-06
8.88129e-05
2.05865e-06
8.90098e-05
1.89213e-06
8.91956e-05
1.74526e-06
8.9371e-05
1.61468e-06
8.95368e-05
1.49762e-06
8.96939e-05
1.3917e-06
8.98431e-05
1.29485e-06
8.99854e-05
1.20514e-06
9.01215e-05
1.12078e-06
9.02525e-05
1.03996e-06
9.03789e-05
9.60848e-07
9.05017e-05
8.81491e-07
9.06212e-05
7.99732e-07
9.0738e-05
7.13259e-07
9.08521e-05
6.19277e-07
9.09631e-05
5.15048e-07
9.10695e-05
3.96861e-07
9.11702e-05
2.61805e-07
1.07057e-07
9.12642e-05
8.2234e-05
3.25133e-06
8.38934e-05
6.95863e-06
8.51797e-05
7.53882e-06
8.61113e-05
7.05356e-06
8.67504e-05
6.27783e-06
8.7187e-05
5.44215e-06
8.75091e-05
4.70523e-06
8.77658e-05
4.09842e-06
8.7984e-05
3.59967e-06
8.8179e-05
3.18761e-06
8.8359e-05
2.84421e-06
8.85284e-05
2.55443e-06
8.86898e-05
2.30712e-06
8.88446e-05
2.09413e-06
8.89941e-05
1.90918e-06
8.91389e-05
1.74732e-06
8.92796e-05
1.60457e-06
8.94166e-05
1.47767e-06
8.95503e-05
1.36389e-06
8.96812e-05
1.26087e-06
8.98095e-05
1.16653e-06
8.99357e-05
1.07896e-06
9.00601e-05
9.96362e-07
9.01831e-05
9.1697e-07
9.03049e-05
8.39007e-07
9.04258e-05
7.60632e-07
9.05456e-05
6.79869e-07
9.06643e-05
5.94641e-07
9.07809e-05
5.02596e-07
9.08946e-05
4.01391e-07
9.10032e-05
2.88282e-07
9.11043e-05
1.60681e-07
1.70065e-08
9.11943e-05
8.42164e-05
2.45045e-06
8.55496e-05
5.62545e-06
8.66703e-05
6.41809e-06
8.75259e-05
6.19803e-06
8.81492e-05
5.65451e-06
8.85931e-05
4.99827e-06
8.89227e-05
4.3756e-06
8.91816e-05
3.83949e-06
8.93954e-05
3.38587e-06
8.95801e-05
3.00296e-06
8.97451e-05
2.67918e-06
8.98961e-05
2.40346e-06
9.00364e-05
2.16673e-06
9.01686e-05
1.96202e-06
9.0294e-05
1.78378e-06
9.04138e-05
1.62749e-06
9.05289e-05
1.48944e-06
9.064e-05
1.36655e-06
9.07477e-05
1.25619e-06
9.08525e-05
1.1561e-06
9.09548e-05
1.06424e-06
9.1055e-05
9.78759e-07
9.11535e-05
8.97919e-07
9.12504e-05
8.20031e-07
9.1346e-05
7.4342e-07
9.14402e-05
6.66386e-07
9.15329e-05
5.87165e-07
9.16236e-05
5.03947e-07
9.17114e-05
4.14806e-07
9.1795e-05
3.17848e-07
9.18721e-05
2.11106e-07
9.19403e-05
9.25719e-08
-3.80737e-08
9.19953e-05
8.63718e-05
1.87735e-06
8.74403e-05
4.55695e-06
8.84104e-05
5.44797e-06
8.9186e-05
5.42248e-06
8.978e-05
5.06048e-06
9.02231e-05
4.55522e-06
9.05622e-05
4.03651e-06
9.08337e-05
3.568e-06
9.106e-05
3.15955e-06
9.12556e-05
2.80734e-06
9.14297e-05
2.50507e-06
9.1588e-05
2.24518e-06
9.17341e-05
2.02063e-06
9.18705e-05
1.8256e-06
9.1999e-05
1.65528e-06
9.21209e-05
1.50563e-06
9.22371e-05
1.37323e-06
9.23484e-05
1.25522e-06
9.24555e-05
1.14912e-06
9.25589e-05
1.05275e-06
9.26589e-05
9.64172e-07
9.27561e-05
8.81619e-07
9.28506e-05
8.03431e-07
9.29426e-05
7.28026e-07
9.30321e-05
6.53859e-07
9.31191e-05
5.79405e-07
9.32031e-05
5.03135e-07
9.32835e-05
4.23536e-07
9.33592e-05
3.39099e-07
9.34287e-05
2.48409e-07
9.34896e-05
1.50195e-07
9.3539e-05
4.31472e-08
-7.19465e-08
9.35729e-05
8.86673e-05
1.46003e-06
8.95238e-05
3.70049e-06
9.03604e-05
4.61135e-06
9.10604e-05
4.72247e-06
9.16208e-05
4.50011e-06
9.20566e-05
4.11941e-06
9.23996e-05
3.69346e-06
9.26789e-05
3.28869e-06
9.29139e-05
2.92456e-06
9.31178e-05
2.60352e-06
9.32992e-05
2.32359e-06
9.34641e-05
2.08031e-06
9.36161e-05
1.8686e-06
9.37579e-05
1.68382e-06
9.38913e-05
1.52191e-06
9.40176e-05
1.37933e-06
9.41378e-05
1.25302e-06
9.42527e-05
1.14032e-06
9.43629e-05
1.03891e-06
9.44689e-05
9.46731e-07
9.45711e-05
8.61953e-07
9.46699e-05
7.82896e-07
9.47653e-05
7.08009e-07
9.48575e-05
6.35831e-07
9.49464e-05
5.64971e-07
9.50317e-05
4.94096e-07
9.51129e-05
4.21926e-07
9.51892e-05
3.47256e-07
9.52593e-05
2.68977e-07
9.53216e-05
1.86141e-07
9.53737e-05
9.80913e-08
9.54126e-05
4.18513e-09
-9.3969e-08
9.54346e-05
9.10811e-05
1.15026e-06
9.17695e-05
3.01203e-06
9.249e-05
3.89087e-06
9.31211e-05
4.0914e-06
9.36468e-05
3.97436e-06
9.40715e-05
3.69481e-06
9.44149e-05
3.35004e-06
9.46994e-05
3.00412e-06
9.49416e-05
2.68241e-06
9.51529e-05
2.39222e-06
9.53415e-05
2.13498e-06
9.55129e-05
1.90889e-06
9.56709e-05
1.71063e-06
9.5818e-05
1.53669e-06
9.59562e-05
1.38376e-06
9.60867e-05
1.24879e-06
9.62107e-05
1.12906e-06
9.63288e-05
1.02214e-06
9.64419e-05
9.2589e-07
9.65502e-05
8.38391e-07
9.66542e-05
7.57922e-07
9.67542e-05
6.8292e-07
9.68503e-05
6.11954e-07
9.69424e-05
5.43702e-07
9.70304e-05
4.76936e-07
9.7114e-05
4.10525e-07
9.71925e-05
3.43437e-07
9.7265e-05
2.74765e-07
9.73302e-05
2.03768e-07
9.73864e-05
1.29917e-07
9.74314e-05
5.3063e-08
9.74625e-05
-2.69066e-08
-1.07853e-07
9.74764e-05
9.35994e-05
9.15487e-07
9.41557e-05
2.45579e-06
9.47754e-05
3.27109e-06
9.53432e-05
3.52366e-06
9.58341e-05
3.48344e-06
9.62449e-05
3.28397e-06
9.65866e-05
3.00834e-06
9.68753e-05
2.71548e-06
9.71241e-05
2.4336e-06
9.73429e-05
2.17342e-06
9.75389e-05
1.93895e-06
9.77173e-05
1.73046e-06
9.78818e-05
1.5462e-06
9.80348e-05
1.38367e-06
9.81783e-05
1.24027e-06
9.83136e-05
1.11344e-06
9.84419e-05
1.00079e-06
9.85639e-05
9.00155e-07
9.86802e-05
8.09568e-07
9.87913e-05
7.27263e-07
9.88976e-05
6.51646e-07
9.89993e-05
5.8128e-07
9.90964e-05
5.14863e-07
9.91888e-05
4.51218e-07
9.92765e-05
3.89287e-07
9.93589e-05
3.28137e-07
9.94353e-05
2.66971e-07
9.95049e-05
2.05157e-07
9.95664e-05
1.42271e-07
9.96182e-05
7.81361e-08
9.96583e-05
1.29844e-08
9.96842e-05
-5.28491e-08
-1.1706e-07
9.96935e-05
9.62138e-05
7.33746e-07
9.66664e-05
2.0032e-06
9.71998e-05
2.73767e-06
9.77101e-05
3.01335e-06
9.81672e-05
3.02639e-06
9.85625e-05
2.88866e-06
9.89003e-05
2.67058e-06
9.91912e-05
2.42459e-06
9.94454e-05
2.17937e-06
9.9671e-05
1.94779e-06
9.98743e-05
1.73565e-06
0.00010006
1.54485e-06
0.000100231
1.37489e-06
0.000100391
1.22419e-06
0.00010054
1.0908e-06
0.000100681
9.72606e-07
0.000100814
8.67562e-07
0.000100941
7.73733e-07
0.000101061
6.89342e-07
0.000101175
6.12775e-07
0.000101284
5.42573e-07
0.000101388
4.77429e-07
0.000101487
4.16177e-07
0.00010158
3.57785e-07
0.000101668
3.01363e-07
0.00010175
2.46164e-07
0.000101826
1.91603e-07
0.000101894
1.37287e-07
0.000101953
8.30523e-08
0.000102002
2.89941e-08
0.000102039
-2.43873e-08
0.000102063
-7.64783e-08
-1.24961e-07
0.000102071
9.89194e-05
5.9008e-07
9.9291e-05
1.63164e-06
9.9751e-05
2.27759e-06
0.00010021
2.55467e-06
0.000100634
2.60173e-06
0.000101013
2.50996e-06
0.000101345
2.33853e-06
0.000101637
2.13293e-06
0.000101895
1.92076e-06
0.000102127
1.71589e-06
0.000102338
1.5253e-06
0.00010253
1.35199e-06
0.000102709
1.19649e-06
0.000102875
1.05797e-06
0.000103031
9.35011e-07
0.000103178
8.25936e-07
0.000103316
7.28993e-07
0.000103447
6.42482e-07
0.000103572
5.64808e-07
0.00010369
4.9451e-07
0.000103802
4.30268e-07
0.000103909
3.70904e-07
0.00010401
3.15387e-07
0.000104105
2.62829e-07
0.000104194
2.12491e-07
0.000104276
1.63796e-07
0.000104351
1.16345e-07
0.000104419
6.99371e-08
0.000104477
2.46092e-08
0.000104525
-1.93499e-08
0.000104562
-6.12766e-08
0.000104586
-1.00411e-07
-1.34542e-07
0.000104596
0.000101714
4.74183e-07
0.000102022
1.32337e-06
0.00010242
1.8792e-06
0.000102833
2.14188e-06
0.000103227
2.20735e-06
0.000103589
2.14813e-06
0.000103915
2.01333e-06
0.000104206
1.84173e-06
0.000104468
1.65877e-06
0.000104705
1.47845e-06
0.000104922
1.30831e-06
0.000105122
1.15208e-06
0.000105308
1.011e-06
0.000105481
8.84847e-07
0.000105643
7.7266e-07
0.000105796
6.73113e-07
0.00010594
5.84729e-07
0.000106077
5.06023e-07
0.000106206
4.35571e-07
0.000106328
3.7206e-07
0.000106444
3.14302e-07
0.000106554
2.61245e-07
0.000106657
2.11986e-07
0.000106754
1.65768e-07
0.000106845
1.21993e-07
0.000106928
8.02267e-08
0.000107005
4.02213e-08
0.000107073
1.92619e-09
0.000107132
-3.44821e-08
0.000107181
-6.85943e-08
0.000107219
-9.96725e-08
0.000107246
-1.26911e-07
-1.4829e-07
0.00010726
0.000104596
3.78848e-07
0.000104855
1.06451e-06
0.000105202
1.53222e-06
0.000105574
1.76936e-06
0.000105941
1.84077e-06
0.000106286
1.80279e-06
0.000106604
1.69565e-06
0.000106894
1.5519e-06
0.000107158
1.39422e-06
0.0001074
1.23605e-06
0.000107624
1.08502e-06
0.000107831
9.45234e-07
0.000108023
8.18383e-07
0.000108203
7.04681e-07
0.000108373
6.03525e-07
0.000108532
5.13874e-07
0.000108682
4.34482e-07
0.000108824
3.64049e-07
0.000108958
3.01308e-07
0.000109085
2.45079e-07
0.000109205
1.94299e-07
0.000109318
1.48035e-07
0.000109425
1.05499e-07
0.000109525
6.60502e-08
0.000109617
2.92103e-08
0.000109703
-5.33349e-09
0.000109781
-3.77155e-08
0.000109851
-6.78793e-08
0.000109912
-9.55621e-08
0.000109964
-1.20297e-07
0.000110005
-1.41341e-07
0.000110036
-1.57919e-07
-1.68249e-07
0.000110056
0.000107566
2.98936e-07
0.000107786
8.44244e-07
0.000108091
1.22767e-06
0.000108428
1.43169e-06
0.00010877
1.4992e-06
0.0001091
1.473e-06
0.00010941
1.38562e-06
0.000109698
1.26393e-06
0.000109964
1.12763e-06
0.000110211
9.891e-07
0.000110441
8.557e-07
0.000110654
7.3157e-07
0.000110854
6.18631e-07
0.000111041
5.17369e-07
0.000111217
4.27428e-07
0.000111383
3.47982e-07
0.00011154
2.77967e-07
0.000111688
2.16239e-07
0.000111827
1.61665e-07
0.000111959
1.13182e-07
0.000112084
6.98366e-08
0.000112201
3.08012e-08
0.000112311
-4.61128e-09
0.000112414
-3.69397e-08
0.00011251
-6.65667e-08
0.000112598
-9.37122e-08
0.000112679
-1.18428e-07
0.000112752
-1.40592e-07
0.000112816
-1.59899e-07
0.000112871
-1.75873e-07
0.000112918
-1.87817e-07
0.000112955
-1.95031e-07
-1.95985e-07
0.000112983
0.000110625
2.30703e-07
0.000110815
6.54073e-07
0.000111085
9.578e-07
0.000111393
1.12373e-06
0.000111713
1.17962e-06
0.000112028
1.15738e-06
0.000112331
1.08286e-06
0.000112617
9.7792e-07
0.000112885
8.59256e-07
0.000113137
7.37856e-07
0.000113372
6.20501e-07
0.000113592
5.11131e-07
0.000113799
4.11686e-07
0.000113994
3.2277e-07
0.000114177
2.44169e-07
0.00011435
1.75197e-07
0.000114513
1.14918e-07
0.000114667
6.23054e-08
0.000114812
1.63318e-08
0.000114949
-2.3967e-08
0.000115079
-5.94526e-08
0.0001152
-9.08647e-08
0.000115315
-1.18807e-07
0.000115421
-1.43735e-07
0.000115521
-1.65958e-07
0.000115613
-1.85629e-07
0.000115697
-2.02746e-07
0.000115774
-2.17156e-07
0.000115842
-2.28547e-07
0.000115903
-2.36471e-07
0.000115955
-2.40309e-07
0.000116
-2.39472e-07
-2.32679e-07
0.000116036
0.000113775
1.71355e-07
0.000113942
4.87279e-07
0.000114184
7.15906e-07
0.000114467
8.4059e-07
0.000114767
8.7889e-07
0.000115071
8.54147e-07
0.000115367
7.86536e-07
0.000115651
6.93562e-07
0.000115922
5.88998e-07
0.000116177
4.82274e-07
0.000116418
3.79365e-07
0.000116646
2.83803e-07
0.00011686
1.97373e-07
0.000117062
1.20657e-07
0.000117253
5.34763e-08
0.000117433
-4.79038e-09
0.000117603
-5.50049e-08
0.000117763
-9.81182e-08
0.000117914
-1.35083e-07
0.000118057
-1.66789e-07
0.000118192
-1.94028e-07
0.000118318
-2.17468e-07
0.000118437
-2.37647e-07
0.000118549
-2.54959e-07
0.000118652
-2.69658e-07
0.000118748
-2.81855e-07
0.000118837
-2.91523e-07
0.000118919
-2.98499e-07
0.000118993
-3.02492e-07
0.000119059
-3.03108e-07
0.000119119
-2.99818e-07
0.000119171
-2.92147e-07
-2.79042e-07
0.000119218
0.000117017
1.18751e-07
0.000117166
3.38481e-07
0.000117385
4.96186e-07
0.000117648
5.77656e-07
0.000117934
5.93735e-07
0.000118227
5.61171e-07
0.000118518
4.95402e-07
0.000118801
4.10139e-07
0.000119074
3.16436e-07
0.000119334
2.22073e-07
0.000119581
1.3206e-07
0.000119816
4.93644e-08
0.000120038
-2.45407e-08
0.000120247
-8.92184e-08
0.000120446
-1.4491e-07
0.000120633
-1.92249e-07
0.00012081
-2.32078e-07
0.000120978
-2.65318e-07
0.000121135
-2.92877e-07
0.000121284
-3.15597e-07
0.000121424
-3.34221e-07
0.000121556
-3.49369e-07
0.00012168
-3.61529e-07
0.000121796
-3.71053e-07
0.000121905
-3.7816e-07
0.000122006
-3.82939e-07
0.0001221
-3.85355e-07
0.000122186
-3.85258e-07
0.000122266
-3.82397e-07
0.00012234
-3.7644e-07
0.000122407
-3.66959e-07
0.000122468
-3.53605e-07
-3.3553e-07
0.000122525
0.000120354
7.11982e-08
0.000120489
2.03283e-07
0.000120691
2.93561e-07
0.000120939
3.30555e-07
0.000121211
3.20784e-07
0.000121497
2.76017e-07
0.000121784
2.07776e-07
0.000122068
1.26493e-07
0.000122344
4.07271e-08
0.000122609
-4.34099e-08
0.000122863
-1.2198e-07
0.000123105
-1.92711e-07
0.000123335
-2.54561e-07
0.000123553
-3.07356e-07
0.00012376
-3.51488e-07
0.000123955
-3.87673e-07
0.00012414
-4.16796e-07
0.000124315
-4.39786e-07
0.000124479
-4.57544e-07
0.000124635
-4.70895e-07
0.000124781
-4.80553e-07
0.000124919
-4.87108e-07
0.000125048
-4.91017e-07
0.00012517
-4.9261e-07
0.000125284
-4.92087e-07
0.00012539
-4.89529e-07
0.00012549
-4.84909e-07
0.000125583
-4.78102e-07
0.000125669
-4.68903e-07
0.00012575
-4.57046e-07
0.000125825
-4.42199e-07
0.000125895
-4.2411e-07
-4.02093e-07
0.000125962
0.000123787
2.73134e-08
0.000123912
7.79958e-08
0.000124102
1.0351e-07
0.000124338
9.50926e-08
0.000124602
5.65615e-08
0.000124882
-4.04555e-09
0.000125168
-7.83916e-08
0.000125454
-1.58899e-07
0.000125734
-2.39278e-07
0.000126005
-3.15065e-07
0.000126267
-3.83468e-07
0.000126517
-4.43009e-07
0.000126756
-4.93185e-07
0.000126983
-5.34183e-07
0.000127198
-5.6663e-07
0.000127401
-5.91396e-07
0.000127594
-6.09458e-07
0.000127776
-6.21799e-07
0.000127948
-6.29348e-07
0.00012811
-6.32936e-07
0.000128263
-6.33272e-07
0.000128407
-6.30936e-07
0.000128542
-6.26374e-07
0.000128669
-6.19904e-07
0.000128789
-6.11721e-07
0.000128901
-6.01912e-07
0.000129007
-5.90466e-07
0.000129106
-5.77291e-07
0.000129199
-5.62228e-07
0.000129287
-5.4508e-07
0.000129371
-5.256e-07
0.00012945
-5.03639e-07
-4.78654e-07
0.000129527
0.00012732
-1.40839e-08
0.000127439
-4.05817e-08
0.00012762
-7.81078e-08
0.000127848
-1.32844e-07
0.000128107
-2.02606e-07
0.000128385
-2.82096e-07
0.000128673
-3.6566e-07
0.000128962
-4.48129e-07
0.000129248
-5.25318e-07
0.000129527
-5.94374e-07
0.000129797
-6.53696e-07
0.000130057
-7.02678e-07
0.000130305
-7.4145e-07
0.000130542
-7.70646e-07
0.000130766
-7.91206e-07
0.000130979
-8.04217e-07
0.00013118
-8.10803e-07
0.000131371
-8.12043e-07
0.00013155
-8.08928e-07
0.00013172
-8.02321e-07
0.000131879
-7.9295e-07
0.00013203
-7.81403e-07
0.000132172
-7.68127e-07
0.000132305
-7.53441e-07
0.000132431
-7.37548e-07
0.00013255
-7.20543e-07
0.000132662
-7.02439e-07
0.000132767
-6.83173e-07
0.000132868
-6.62633e-07
0.000132963
-6.40673e-07
0.000133055
-6.17113e-07
0.000133143
-5.91864e-07
-5.64474e-07
0.000133229
0.000130955
-5.40504e-08
0.00013107
-1.5536e-07
0.000131247
-2.55219e-07
0.000131471
-3.57366e-07
0.000131729
-4.60545e-07
0.000132009
-5.61519e-07
0.0001323
-6.56851e-07
0.000132595
-7.43519e-07
0.000132889
-8.19279e-07
0.000133178
-8.82859e-07
0.000133458
-9.33887e-07
0.000133728
-9.72703e-07
0.000133987
-1.00015e-06
0.000134233
-1.01738e-06
0.000134468
-1.02573e-06
0.00013469
-1.02654e-06
0.0001349
-1.02116e-06
0.000135099
-1.01078e-06
0.000135287
-9.96495e-07
0.000135464
-9.79222e-07
0.00013563
-9.59728e-07
0.000135788
-9.38621e-07
0.000135936
-9.16365e-07
0.000136076
-8.93287e-07
0.000136208
-8.69602e-07
0.000136333
-8.45422e-07
0.000136451
-8.20778e-07
0.000136564
-7.95639e-07
0.000136671
-7.69928e-07
0.000136774
-7.43548e-07
0.000136873
-7.16375e-07
0.000136969
-6.88386e-07
-6.5921e-07
0.000137064
0.000134695
-9.3581e-08
0.000134808
-2.69128e-07
0.000134985
-4.31733e-07
0.00013521
-5.82801e-07
0.000135471
-7.21568e-07
0.000135756
-8.46385e-07
0.000136055
-9.55691e-07
0.00013636
-1.04841e-06
0.000136665
-1.12414e-06
0.000136965
-1.18316e-06
0.000137258
-1.22638e-06
0.00013754
-1.25514e-06
0.000137811
-1.27108e-06
0.00013807
-1.27596e-06
0.000138315
-1.27156e-06
0.000138548
-1.25957e-06
0.000138769
-1.24155e-06
0.000138977
-1.2189e-06
0.000139173
-1.19281e-06
0.000139358
-1.1643e-06
0.000139533
-1.13417e-06
0.000139697
-1.10307e-06
0.000139852
-1.07149e-06
0.000139999
-1.03976e-06
0.000140137
-1.00813e-06
0.000140269
-9.76711e-07
0.000140393
-9.45553e-07
0.000140512
-9.14646e-07
0.000140626
-8.83936e-07
0.000140736
-8.53352e-07
0.000140843
-8.22795e-07
0.000140947
-7.92255e-07
-7.61386e-07
0.000141049
0.000138542
-1.33675e-07
0.000138658
-3.84692e-07
0.000138838
-6.11639e-07
0.000139069
-8.13627e-07
0.000139337
-9.90134e-07
0.000139632
-1.14082e-06
0.000139942
-1.26582e-06
0.000140259
-1.36592e-06
0.000140578
-1.44248e-06
0.000140892
-1.4974e-06
0.000141198
-1.53288e-06
0.000141495
-1.55138e-06
0.000141779
-1.55537e-06
0.00014205
-1.54729e-06
0.000142308
-1.52942e-06
0.000142552
-1.50385e-06
0.000142783
-1.47242e-06
0.000143001
-1.43673e-06
0.000143206
-1.39811e-06
0.0001434
-1.35769e-06
0.000143582
-1.31634e-06
0.000143754
-1.27475e-06
0.000143916
-1.23344e-06
0.000144069
-1.19276e-06
0.000144213
-1.15295e-06
0.000144351
-1.11416e-06
0.000144482
-1.07644e-06
0.000144607
-1.03978e-06
0.000144727
-1.00416e-06
0.000144843
-9.69521e-07
0.000144956
-9.35778e-07
0.000145067
-9.02955e-07
-8.70739e-07
0.000145176
0.000142501
-1.75445e-07
0.000142622
-5.05199e-07
0.000142809
-7.99581e-07
0.000143051
-1.05536e-06
0.000143333
-1.27214e-06
0.000143643
-1.45077e-06
0.00014397
-1.59298e-06
0.000144306
-1.70138e-06
0.000144642
-1.77917e-06
0.000144975
-1.82989e-06
0.000145299
-1.85718e-06
0.000145613
-1.86465e-06
0.000145913
-1.85574e-06
0.000146199
-1.83362e-06
0.000146471
-1.80117e-06
0.000146728
-1.76089e-06
0.000146971
-1.71495e-06
0.000147199
-1.66519e-06
0.000147414
-1.61311e-06
0.000147616
-1.55993e-06
0.000147807
-1.50662e-06
0.000147986
-1.4539e-06
0.000148155
-1.40231e-06
0.000148314
-1.35224e-06
0.000148465
-1.30393e-06
0.000148608
-1.25751e-06
0.000148745
-1.21304e-06
0.000148876
-1.17053e-06
0.000149001
-1.12991e-06
0.000149123
-1.09114e-06
0.000149241
-1.05412e-06
0.000149357
-1.01883e-06
-9.84927e-07
0.000149471
0.000146574
-2.20063e-07
0.000146703
-6.33968e-07
0.000146903
-1.00027e-06
0.000147161
-1.31328e-06
0.000147462
-1.57284e-06
0.000147792
-1.7811e-06
0.000148141
-1.94149e-06
0.000148498
-2.05855e-06
0.000148856
-2.13744e-06
0.00014921
-2.18343e-06
0.000149554
-2.20166e-06
0.000149887
-2.19702e-06
0.000150205
-2.17396e-06
0.000150508
-2.13648e-06
0.000150795
-2.08807e-06
0.000151066
-2.03174e-06
0.000151321
-1.97001e-06
0.00015156
-1.90496e-06
0.000151786
-1.83829e-06
0.000151997
-1.77135e-06
0.000152195
-1.70518e-06
0.000152382
-1.64055e-06
0.000152558
-1.57804e-06
0.000152724
-1.51803e-06
0.00015288
-1.46076e-06
0.000153029
-1.40636e-06
0.000153171
-1.35488e-06
0.000153307
-1.3063e-06
0.000153438
-1.26055e-06
0.000153564
-1.21757e-06
0.000153687
-1.17724e-06
0.000153808
-1.13955e-06
-1.10415e-06
0.000153927
0.000150765
-2.69261e-07
0.000150907
-7.7587e-07
0.000151128
-1.22105e-06
0.000151411
-1.59635e-06
0.00015174
-1.90205e-06
0.000152101
-2.14177e-06
0.00015248
-2.32085e-06
0.000152867
-2.44609e-06
0.000153255
-2.52484e-06
0.000153636
-2.56437e-06
0.000154006
-2.57155e-06
0.000154361
-2.55265e-06
0.000154701
-2.51328e-06
0.000155022
-2.45832e-06
0.000155326
-2.39196e-06
0.000155612
-2.31769e-06
0.000155881
-2.23844e-06
0.000156132
-2.15655e-06
0.000156368
-2.0739e-06
0.000156589
-1.99197e-06
0.000156795
-1.91186e-06
0.000156989
-1.83439e-06
0.000157171
-1.76014e-06
0.000157343
-1.68951e-06
0.000157505
-1.6227e-06
0.000157658
-1.55984e-06
0.000157804
-1.50093e-06
0.000157944
-1.44592e-06
0.000158078
-1.39471e-06
0.000158207
-1.34718e-06
0.000158333
-1.30317e-06
0.000158456
-1.26256e-06
-1.22495e-06
0.000158577
0.000155077
-3.24444e-07
0.000155236
-9.35035e-07
0.000155482
-1.46732e-06
0.000155796
-1.91016e-06
0.000156159
-2.26512e-06
0.000156555
-2.53787e-06
0.00015697
-2.73602e-06
0.000157393
-2.86884e-06
0.000157814
-2.94616e-06
0.000158227
-2.97741e-06
0.000158627
-2.9713e-06
0.00015901
-2.9357e-06
0.000159374
-2.87747e-06
0.000159719
-2.80248e-06
0.000160042
-2.71568e-06
0.000160346
-2.62114e-06
0.00016063
-2.5222e-06
0.000160895
-2.42149e-06
0.000161142
-2.3211e-06
0.000161372
-2.2226e-06
0.000161588
-2.12718e-06
0.000161789
-2.03568e-06
0.000161978
-1.94868e-06
0.000162155
-1.86655e-06
0.000162321
-1.78948e-06
0.000162479
-1.71753e-06
0.000162629
-1.65068e-06
0.000162772
-1.58882e-06
0.000162909
-1.53181e-06
0.000163041
-1.47947e-06
0.00016317
-1.4316e-06
0.000163295
-1.38807e-06
-1.34842e-06
0.000163418
0.000159516
-3.89878e-07
0.000159704
-1.12252e-06
0.000159991
-1.7552e-06
0.000160355
-2.27346e-06
0.000160771
-2.68119e-06
0.00016122
-2.98711e-06
0.000161686
-3.20211e-06
0.000162156
-3.33899e-06
0.000162621
-3.41073e-06
0.000163073
-3.42935e-06
0.000163507
-3.40571e-06
0.000163921
-3.34936e-06
0.000164312
-3.26851e-06
0.000164679
-3.17004e-06
0.000165023
-3.05969e-06
0.000165344
-2.94208e-06
0.000165643
-2.82095e-06
0.000165921
-2.6992e-06
0.000166179
-2.5791e-06
0.000166419
-2.46231e-06
0.000166641
-2.35007e-06
0.000166849
-2.24323e-06
0.000167043
-2.14233e-06
0.000167224
-2.04772e-06
0.000167394
-1.95951e-06
0.000167554
-1.87773e-06
0.000167706
-1.80227e-06
0.00016785
-1.73296e-06
0.000167988
-1.66958e-06
0.00016812
-1.61187e-06
0.000168248
-1.55953e-06
0.000168372
-1.51231e-06
-1.46962e-06
0.000168493
0.000164082
-4.65304e-07
0.000164299
-1.34033e-06
0.000164631
-2.08663e-06
0.000165046
-2.68852e-06
0.000165519
-3.15438e-06
0.000166028
-3.49625e-06
0.000166554
-3.72835e-06
0.000167083
-3.86749e-06
0.000167603
-3.93031e-06
0.000168105
-3.93196e-06
0.000168585
-3.88587e-06
0.00016904
-3.80365e-06
0.000169466
-3.69513e-06
0.000169865
-3.56841e-06
0.000170235
-3.43007e-06
0.000170578
-3.2854e-06
0.000170896
-3.13852e-06
0.000171189
-2.99262e-06
0.00017146
-2.85009e-06
0.000171711
-2.71268e-06
0.000171942
-2.58163e-06
0.000172157
-2.45774e-06
0.000172356
-2.34151e-06
0.000172541
-2.23319e-06
0.000172715
-2.13282e-06
0.000172877
-2.04032e-06
0.00017303
-1.95552e-06
0.000173176
-1.87814e-06
0.000173314
-1.8079e-06
0.000173447
-1.74446e-06
0.000173574
-1.68745e-06
0.000173699
-1.63657e-06
-1.59117e-06
0.00017382
0.000168795
-5.68112e-07
0.000169079
-1.62451e-06
0.000169498
-2.50593e-06
0.000170007
-3.19765e-06
0.000170572
-3.71908e-06
0.000171165
-4.08973e-06
0.000171767
-4.33014e-06
0.000172363
-4.46282e-06
0.000172941
-4.5087e-06
0.000173495
-4.48609e-06
0.00017402
-4.41097e-06
0.000174513
-4.297e-06
0.000174974
-4.15548e-06
0.000175401
-3.99567e-06
0.000175796
-3.82499e-06
0.00017616
-3.64931e-06
0.000176495
-3.47314e-06
0.000176802
-3.29991e-06
0.000177084
-3.13215e-06
0.000177343
-2.97164e-06
0.000177581
-2.81959e-06
0.0001778
-2.67674e-06
0.000178002
-2.54351e-06
0.000178189
-2.42002e-06
0.000178362
-2.30621e-06
0.000178524
-2.20188e-06
0.000178675
-2.10673e-06
0.000178817
-2.0204e-06
0.000178952
-1.94246e-06
0.00017908
-1.87249e-06
0.000179202
-1.80998e-06
0.00017932
-1.75449e-06
-1.70521e-06
0.000179434
0.000173623
-6.79303e-07
0.000173953
-1.9548e-06
0.000174444
-2.99676e-06
0.000175045
-3.79916e-06
0.000175717
-4.39098e-06
0.000176423
-4.79601e-06
0.000177136
-5.04236e-06
0.000177834
-5.16114e-06
0.000178505
-5.17969e-06
0.00017914
-5.12111e-06
0.000179734
-5.0051e-06
0.000180285
-4.84802e-06
0.000180793
-4.66314e-06
0.000181258
-4.46104e-06
0.000181683
-4.25001e-06
0.00018207
-4.03646e-06
0.000182422
-3.82521e-06
0.000182742
-3.61982e-06
0.000183033
-3.4228e-06
0.000183297
-3.23586e-06
0.000183538
-3.06007e-06
0.000183757
-2.89602e-06
0.000183957
-2.74392e-06
0.000184141
-2.60372e-06
0.00018431
-2.47518e-06
0.000184466
-2.35792e-06
0.000184611
-2.2515e-06
0.000184746
-2.15543e-06
0.000184872
-2.0692e-06
0.000184992
-1.99228e-06
0.000185106
-1.92413e-06
0.000185216
-1.86427e-06
-1.81173e-06
0.000185323
0.000178682
-8.9287e-07
0.00017919
-2.46285e-06
0.000179863
-3.66968e-06
0.000180622
-4.55775e-06
0.000181424
-5.19378e-06
0.000182239
-5.61082e-06
0.000183042
-5.8455e-06
0.000183818
-5.93642e-06
0.000184554
-5.91576e-06
0.000185243
-5.81061e-06
0.000185882
-5.64416e-06
0.00018647
-5.4354e-06
0.000187006
-5.19952e-06
0.000187493
-4.94842e-06
0.000187935
-4.69131e-06
0.000188333
-4.43508e-06
0.000188693
-4.18479e-06
0.000189017
-3.94403e-06
0.00018931
-3.71523e-06
0.000189574
-3.49991e-06
0.000189813
-3.29892e-06
0.000190029
-3.11258e-06
0.000190226
-2.94084e-06
0.000190406
-2.7834e-06
0.00019057
-2.63976e-06
0.000190722
-2.50934e-06
0.000190862
-2.3915e-06
0.000190992
-2.28557e-06
0.000191114
-2.19094e-06
0.000191228
-2.10699e-06
0.000191337
-2.03315e-06
0.000191442
-1.96888e-06
-1.91311e-06
0.000191543
0.000183746
-1.07108e-06
0.000184337
-3.05437e-06
0.00018517
-4.50292e-06
0.000186142
-5.5297e-06
0.000187171
-6.22268e-06
0.000188194
-6.63353e-06
0.000189177
-6.82831e-06
0.000190105
-6.86448e-06
0.000190972
-6.78301e-06
0.000191778
-6.61621e-06
0.000192524
-6.39014e-06
0.000193213
-6.12503e-06
0.00019385
-5.83648e-06
0.000194438
-5.53644e-06
0.000194981
-5.23397e-06
0.000195482
-4.93581e-06
0.000195944
-4.64685e-06
0.00019637
-4.37055e-06
0.000196764
-4.10919e-06
0.000197128
-3.86418e-06
0.000197466
-3.63622e-06
0.000197779
-3.42549e-06
0.00019807
-3.23178e-06
0.000198341
-3.05461e-06
0.000198594
-2.89333e-06
0.000198832
-2.74716e-06
0.000199056
-2.61534e-06
0.000199268
-2.4971e-06
0.000199468
-2.3918e-06
0.00019966
-2.29882e-06
0.000199845
-2.21794e-06
0.000200025
-2.14867e-06
-2.091e-06
0.000200203
0.000189418
-1.67679e-06
0.000190406
-4.04311e-06
0.00019149
-5.58626e-06
0.000192651
-6.69068e-06
0.000193895
-7.46725e-06
0.000195202
-7.9398e-06
0.000196548
-8.17513e-06
0.000197912
-8.22793e-06
0.000199266
-8.13698e-06
0.000200587
-7.93724e-06
0.000201856
-7.65932e-06