/*--------------------------------*- C++ -*----------------------------------*\
| =========                 |                                                 |
| \\      /  F ield         | OpenFOAM: The Open Source CFD Toolbox           |
|  \\    /   O peration     | Version:  2.1.1                                 |
|   \\  /    A nd           | Web:      www.OpenFOAM.org                      |
|    \\/     M anipulation  |                                                 |
\*---------------------------------------------------------------------------*/
FoamFile
{
    version     2.0;
    format      ascii;
    class       volVectorField;
    location    "0.095";
    object      U;
}
// * * * * * * * * * * * * * * * * * * * * * * * * * * * * * * * * * * * * * //

dimensions      [0 1 -1 0 0 0 0];

internalField   nonuniform List<vector> 
6820
(
(6.37596 0.503763 0)
(4.42408 0.286896 0)
(2.97286 0.0202495 0)
(2.23296 -0.0618488 0)
(1.96649 -0.0598999 0)
(1.83854 -0.0344641 0)
(1.76226 -0.0150582 0)
(1.70855 -0.00469753 0)
(1.66337 -1.10727e-05 0)
(1.62368 0.00148376 0)
(1.5889 0.00145517 0)
(1.55855 0.000839371 0)
(1.53212 7.01689e-05 0)
(1.50908 -0.00066293 0)
(1.4889 -0.00128775 0)
(1.47113 -0.00179012 0)
(1.45541 -0.00218211 0)
(1.44145 -0.00248491 0)
(1.429 -0.0027211 0)
(1.41791 -0.00291181 0)
(1.40804 -0.00307625 0)
(1.39934 -0.0032319 0)
(1.39174 -0.0033953 0)
(1.38528 -0.00358194 0)
(1.37999 -0.00380906 0)
(1.37599 -0.00408712 0)
(1.37335 -0.00444307 0)
(1.37256 -0.00481721 0)
(1.37321 -0.0055005 0)
(1.37758 -0.0058262 0)
(1.37992 -0.00740685 0)
(1.39822 -0.00170083 0)
(1.37448 -0.0253174 0)
(8.72022 0.959692 0)
(8.76457 1.01211 0)
(7.96794 0.67933 0)
(7.0532 0.394349 0)
(6.35042 0.203047 0)
(5.8418 0.104125 0)
(5.47716 0.0588358 0)
(5.21263 0.0385356 0)
(5.01324 0.0295424 0)
(4.85679 0.0252183 0)
(4.72987 0.022713 0)
(4.6241 0.0209741 0)
(4.53411 0.0196062 0)
(4.45629 0.0184423 0)
(4.38814 0.0174005 0)
(4.32783 0.0164392 0)
(4.27399 0.0155364 0)
(4.22558 0.0146778 0)
(4.18178 0.0138514 0)
(4.14193 0.013045 0)
(4.10554 0.0122444 0)
(4.07217 0.011432 0)
(4.04153 0.0105854 0)
(4.01335 0.00967702 0)
(3.98749 0.00866893 0)
(3.96385 0.00752409 0)
(3.94241 0.00616485 0)
(3.92326 0.00460587 0)
(3.90647 0.00244514 0)
(3.89275 0.000327356 0)
(3.88186 -0.00387029 0)
(3.87824 -0.00538086 0)
(3.88003 -0.0155076 0)
(8.58612 0.583545 0)
(9.33129 0.762622 0)
(9.61417 0.660773 0)
(9.50337 0.527577 0)
(9.23569 0.398463 0)
(8.921 0.301033 0)
(8.61215 0.232636 0)
(8.33233 0.183671 0)
(8.08582 0.148169 0)
(7.8704 0.121955 0)
(7.68237 0.102119 0)
(7.5179 0.0868046 0)
(7.37349 0.0748043 0)
(7.2461 0.0652942 0)
(7.1332 0.0576751 0)
(7.03263 0.0515005 0)
(6.9426 0.0464356 0)
(6.86161 0.0422284 0)
(6.7884 0.0386859 0)
(6.72192 0.0356565 0)
(6.66131 0.0330168 0)
(6.60583 0.0306618 0)
(6.55489 0.0284968 0)
(6.50801 0.0264308 0)
(6.4648 0.0243694 0)
(6.425 0.0222136 0)
(6.38839 0.0198338 0)
(6.35491 0.0171107 0)
(6.32451 0.0138048 0)
(6.29751 0.00992337 0)
(6.27376 0.00433486 0)
(6.2541 -0.00217847 0)
(6.23773 -0.0143788 0)
(8.44092 0.37975 0)
(8.9459 0.584295 0)
(9.3584 0.555201 0)
(9.58617 0.488249 0)
(9.7002 0.408993 0)
(9.73574 0.340623 0)
(9.7192 0.288965 0)
(9.67276 0.24967 0)
(9.60923 0.219087 0)
(9.53581 0.194624 0)
(9.45722 0.174432 0)
(9.37652 0.157379 0)
(9.2958 0.142745 0)
(9.21656 0.130046 0)
(9.13976 0.118961 0)
(9.06597 0.109248 0)
(8.99548 0.100709 0)
(8.92846 0.0931717 0)
(8.86492 0.0864875 0)
(8.80481 0.0805238 0)
(8.74804 0.0751593 0)
(8.69447 0.0702795 0)
(8.64399 0.0657717 0)
(8.59645 0.0615205 0)
(8.55177 0.057401 0)
(8.50984 0.0532772 0)
(8.47062 0.0489801 0)
(8.4341 0.044338 0)
(8.40031 0.0390622 0)
(8.36938 0.0329947 0)
(8.34144 0.0253363 0)
(8.31645 0.0163085 0)
(8.29542 0.00463861 0)
(8.40214 0.280116 0)
(8.71895 0.480914 0)
(8.99884 0.462476 0)
(9.17439 0.405478 0)
(9.29908 0.344118 0)
(9.39284 0.292501 0)
(9.46234 0.254436 0)
(9.51566 0.225911 0)
(9.55752 0.203599 0)
(9.59023 0.185591 0)
(9.6154 0.170613 0)
(9.63439 0.157868 0)
(9.64815 0.146866 0)
(9.65727 0.137258 0)
(9.66243 0.128785 0)
(9.66425 0.121246 0)
(9.66331 0.11449 0)
(9.66009 0.108391 0)
(9.65501 0.102847 0)
(9.64845 0.0977657 0)
(9.64072 0.0930611 0)
(9.63209 0.088649 0)
(9.62282 0.0844406 0)
(9.6131 0.0803382 0)
(9.60314 0.076229 0)
(9.59311 0.0719807 0)
(9.58318 0.0674272 0)
(9.57351 0.0623788 0)
(9.56424 0.0565629 0)
(9.55553 0.04972 0)
(9.54747 0.041334 0)
(9.53997 0.0311184 0)
(9.53317 0.018517 0)
(8.37748 0.202222 0)
(8.60136 0.383786 0)
(8.81579 0.391184 0)
(8.94678 0.35727 0)
(9.03264 0.313515 0)
(9.09546 0.270739 0)
(9.14252 0.23572 0)
(9.1811 0.208131 0)
(9.21541 0.186176 0)
(9.24685 0.168512 0)
(9.27602 0.15404 0)
(9.30325 0.141932 0)
(9.32879 0.131651 0)
(9.35285 0.122828 0)
(9.37556 0.115165 0)
(9.39699 0.108436 0)
(9.4172 0.102472 0)
(9.43627 0.0971387 0)
(9.45428 0.092324 0)
(9.47133 0.0879299 0)
(9.4875 0.0838654 0)
(9.50288 0.0800411 0)
(9.51757 0.076364 0)
(9.53167 0.0727326 0)
(9.54525 0.0690308 0)
(9.5584 0.0651243 0)
(9.5712 0.0608484 0)
(9.58368 0.0560125 0)
(9.59588 0.0503657 0)
(9.60779 0.043644 0)
(9.6193 0.0354608 0)
(9.63033 0.0255112 0)
(9.64056 0.0134979 0)
(8.36128 0.148843 0)
(8.52273 0.311565 0)
(8.69747 0.337505 0)
(8.81223 0.318429 0)
(8.88683 0.285807 0)
(8.93989 0.250361 0)
(8.97759 0.219577 0)
(9.00613 0.194649 0)
(9.02992 0.174409 0)
(9.0509 0.157811 0)
(9.07002 0.144011 0)
(9.08788 0.132342 0)
(9.10482 0.122335 0)
(9.12104 0.113653 0)
(9.13665 0.106055 0)
(9.15176 0.0993512 0)
(9.16641 0.0933906 0)
(9.18067 0.0880449 0)
(9.19457 0.0832025 0)
(9.20816 0.0787629 0)
(9.22146 0.0746316 0)
(9.23453 0.0707156 0)
(9.2474 0.0669196 0)
(9.2601 0.0631409 0)
(9.27267 0.0592652 0)
(9.28514 0.0551627 0)
(9.29751 0.05068 0)
(9.30977 0.045642 0)
(9.32187 0.0398324 0)
(9.33374 0.0330189 0)
(9.34521 0.0249026 0)
(9.35607 0.0151967 0)
(9.36595 0.00362194 0)
(8.35116 0.111396 0)
(8.46742 0.251724 0)
(8.6082 0.286878 0)
(8.70993 0.279142 0)
(8.77975 0.257409 0)
(8.83136 0.230704 0)
(8.8691 0.205453 0)
(8.89749 0.183758 0)
(8.9205 0.165349 0)
(8.94012 0.149745 0)
(8.95741 0.136489 0)
(8.97308 0.125135 0)
(8.98756 0.115326 0)
(9.00113 0.106789 0)
(9.01396 0.0993077 0)
(9.02619 0.0927016 0)
(9.03791 0.0868192 0)
(9.0492 0.0815329 0)
(9.06011 0.0767314 0)
(9.07072 0.0723146 0)
(9.08105 0.0681883 0)
(9.09116 0.0642604 0)
(9.10107 0.0604364 0)
(9.11083 0.056616 0)
(9.12044 0.0526895 0)
(9.12992 0.0485346 0)
(9.13927 0.0440113 0)
(9.14844 0.0389628 0)
(9.15738 0.0332057 0)
(9.16598 0.0265427 0)
(9.17406 0.0187459 0)
(9.18139 0.00956943 0)
(9.18764 -0.00113852 0)
(8.34487 0.084705 0)
(8.4294 0.203803 0)
(8.5422 0.244032 0)
(8.63093 0.245184 0)
(8.6949 0.231627 0)
(8.74395 0.211384 0)
(8.7813 0.190302 0)
(8.81016 0.171216 0)
(8.8338 0.154554 0)
(8.85403 0.140165 0)
(8.87182 0.127788 0)
(8.88785 0.117098 0)
(8.90256 0.107803 0)
(8.91623 0.0996649 0)
(8.92906 0.0924913 0)
(8.9412 0.0861204 0)
(8.95274 0.0804173 0)
(8.96377 0.0752658 0)
(8.97437 0.0705628 0)
(8.98458 0.0662135 0)
(8.99445 0.0621278 0)
(9.00402 0.0582166 0)
(9.01332 0.0543893 0)
(9.02237 0.0505508 0)
(9.03119 0.0465987 0)
(9.03977 0.0424214 0)
(9.04808 0.0378953 0)
(9.05609 0.0328854 0)
(9.0637 0.027242 0)
(9.07079 0.0208083 0)
(9.07718 0.013419 0)
(9.08261 0.00489249 0)
(9.08677 -0.00481495 0)
(8.34094 0.0654443 0)
(8.40309 0.16543 0)
(8.49329 0.206875 0)
(8.56997 0.213889 0)
(8.62806 0.206354 0)
(8.67411 0.191578 0)
(8.71046 0.174615 0)
(8.73926 0.158388 0)
(8.76309 0.143701 0)
(8.78356 0.130652 0)
(8.80159 0.119178 0)
(8.81783 0.10911 0)
(8.83272 0.100255 0)
(8.84655 0.0924387 0)
(8.8595 0.0855105 0)
(8.87174 0.0793349 0)
(8.88336 0.073792 0)
(8.89444 0.0687746 0)
(8.90506 0.0641848 0)
(8.91526 0.0599316 0)
(8.92508 0.055928 0)
(8.93456 0.0520887 0)
(8.94373 0.0483278 0)
(8.95259 0.0445566 0)
(8.96114 0.040682 0)
(8.96937 0.0366053 0)
(8.97725 0.0322211 0)
(8.98471 0.0274188 0)
(8.99165 0.0220824 0)
(8.99794 0.0160969 0)
(9.00341 0.0093561 0)
(9.00777 0.00174451 0)
(9.01078 -0.00668424 0)
(8.33846 0.0512717 0)
(8.38474 0.134575 0)
(8.45692 0.174839 0)
(8.52285 0.185802 0)
(8.57533 0.182945 0)
(8.61829 0.172667 0)
(8.65327 0.159222 0)
(8.68168 0.14545 0)
(8.70547 0.132462 0)
(8.72606 0.120606 0)
(8.74428 0.109983 0)
(8.7607 0.100548 0)
(8.77575 0.092181 0)
(8.7897 0.0847535 0)
(8.80277 0.0781403 0)
(8.81507 0.0722238 0)
(8.82674 0.0668957 0)
(8.83784 0.0620573 0)
(8.84844 0.0576177 0)
(8.85859 0.0534915 0)
(8.86833 0.0495972 0)
(8.87769 0.0458551 0)
(8.88669 0.0421859 0)
(8.89533 0.0385092 0)
(8.90361 0.034743 0)
(8.9115 0.0308029 0)
(8.91895 0.0266029 0)
(8.9259 0.0220572 0)
(8.93226 0.0170829 0)
(8.93787 0.0116049 0)
(8.94258 0.00556894 0)
(8.94613 -0.00107884 0)
(8.94831 -0.00822077 0)
(8.33687 0.040633 0)
(8.37183 0.109702 0)
(8.42974 0.14729 0)
(8.48618 0.1605 0)
(8.53333 0.160934 0)
(8.57316 0.154103 0)
(8.60659 0.143613 0)
(8.63444 0.132091 0)
(8.65812 0.120786 0)
(8.6788 0.110187 0)
(8.69719 0.100498 0)
(8.7138 0.091762 0)
(8.72904 0.0839276 0)
(8.74316 0.0769123 0)
(8.75636 0.0706245 0)
(8.76878 0.0649707 0)
(8.78052 0.0598601 0)
(8.79168 0.0552063 0)
(8.8023 0.0509273 0)
(8.81244 0.046945 0)
(8.82214 0.0431842 0)
(8.83142 0.0395718 0)
(8.84029 0.0360359 0)
(8.84875 0.0325055 0)
(8.8568 0.0289102 0)
(8.8644 0.0251808 0)
(8.8715 0.0212504 0)
(8.87804 0.0170574 0)
(8.88393 0.0125488 0)
(8.88902 0.00768525 0)
(8.89317 0.00245538 0)
(8.89616 -0.00314491 0)
(8.89784 -0.00895652 0)
(8.33583 0.032478 0)
(8.36263 0.0895215 0)
(8.40931 0.123578 0)
(8.45752 0.137745 0)
(8.49973 0.140439 0)
(8.5365 0.136274 0)
(8.56825 0.128262 0)
(8.59535 0.118725 0)
(8.61877 0.108938 0)
(8.63943 0.0994871 0)
(8.65794 0.0906632 0)
(8.67473 0.0825864 0)
(8.69015 0.0752677 0)
(8.70446 0.0686664 0)
(8.71783 0.0627194 0)
(8.73041 0.057353 0)
(8.74228 0.0524899 0)
(8.75353 0.0480533 0)
(8.76422 0.0439689 0)
(8.7744 0.0401652 0)
(8.7841 0.0365731 0)
(8.79333 0.0331266 0)
(8.80212 0.0297617 0)
(8.81046 0.026417 0)
(8.81834 0.0230341 0)
(8.82572 0.0195584 0)
(8.83256 0.0159414 0)
(8.8388 0.0121431 0)
(8.84434 0.00813676 0)
(8.84908 0.00391281 0)
(8.85288 -0.000507288 0)
(8.85556 -0.00509076 0)
(8.85701 -0.00965541 0)
(8.33514 0.0260937 0)
(8.35601 0.073018 0)
(8.39388 0.103152 0)
(8.43505 0.117304 0)
(8.47273 0.121383 0)
(8.50656 0.119144 0)
(8.53655 0.113086 0)
(8.56276 0.10522 0)
(8.58581 0.0967808 0)
(8.60638 0.0884031 0)
(8.62495 0.0804291 0)
(8.64189 0.0730279 0)
(8.65749 0.0662534 0)
(8.67199 0.0600974 0)
(8.68555 0.0545208 0)
(8.69828 0.0494683 0)
(8.7103 0.0448766 0)
(8.72167 0.0406801 0)
(8.73245 0.0368133 0)
(8.74268 0.0332126 0)
(8.75241 0.0298166 0)
(8.76164 0.0265667 0)
(8.77038 0.0234077 0)
(8.77864 0.0202881 0)
(8.78641 0.0171611 0)
(8.79364 0.0139862 0)
(8.80031 0.0107312 0)
(8.80634 0.00737524 0)
(8.81167 0.00391295 0)
(8.8162 0.000357972 0)
(8.81984 -0.00324467 0)
(8.82242 -0.00683746 0)
(8.82391 -0.0102328 0)
(8.33466 0.020992 0)
(8.35118 0.0593896 0)
(8.38215 0.0854979 0)
(8.41738 0.0989215 0)
(8.45098 0.103686 0)
(8.48204 0.102766 0)
(8.51028 0.098218 0)
(8.53552 0.0917456 0)
(8.55811 0.0844868 0)
(8.5785 0.0770823 0)
(8.59707 0.0698988 0)
(8.61411 0.0631381 0)
(8.62987 0.0568882 0)
(8.64454 0.0511689 0)
(8.65827 0.0459631 0)
(8.67118 0.0412319 0)
(8.68335 0.0369249 0)
(8.69485 0.032986 0)
(8.70573 0.0293581 0)
(8.71605 0.0259845 0)
(8.72583 0.0228106 0)
(8.73508 0.0197852 0)
(8.74382 0.0168609 0)
(8.75204 0.0139955 0)
(8.75974 0.0111528 0)
(8.76689 0.00830467 0)
(8.77345 0.00543278 0)
(8.77938 0.00253173 0)
(8.78461 -0.00038745 0)
(8.78908 -0.00329444 0)
(8.7927 -0.00612949 0)
(8.79537 -0.00882107 0)
(8.79708 -0.0111866 0)
(8.33432 0.0168338 0)
(8.34762 0.0480082 0)
(8.3732 0.0701657 0)
(8.40346 0.0823597 0)
(8.43344 0.0872497 0)
(8.46194 0.0871323 0)
(8.48847 0.0836778 0)
(8.51271 0.0783062 0)
(8.53475 0.0720351 0)
(8.55491 0.0654828 0)
(8.57343 0.0590217 0)
(8.59053 0.05287 0)
(8.60642 0.047137 0)
(8.62126 0.0418622 0)
(8.63516 0.037044 0)
(8.64824 0.0326564 0)
(8.66057 0.0286591 0)
(8.67221 0.025005 0)
(8.68321 0.0216443 0)
(8.69362 0.0185271 0)
(8.70347 0.015606 0)
(8.71277 0.0128367 0)
(8.72153 0.0101796 0)
(8.72975 0.00760104 0)
(8.73743 0.00507442 0)
(8.74455 0.00258205 0)
(8.75108 0.000117121 0)
(8.75699 -0.00231402 0)
(8.76222 -0.00468864 0)
(8.76673 -0.0069659 0)
(8.77047 -0.00907867 0)
(8.77338 -0.0109503 0)
(8.77545 -0.0124105 0)
(8.33407 0.0133795 0)
(8.34495 0.0383828 0)
(8.36632 0.056759 0)
(8.39247 0.0673833 0)
(8.41929 0.0719573 0)
(8.44547 0.072212 0)
(8.4704 0.069487 0)
(8.49362 0.0649503 0)
(8.5151 0.059487 0)
(8.53497 0.0536696 0)
(8.5534 0.0478582 0)
(8.57054 0.0422729 0)
(8.58654 0.0370336 0)
(8.60152 0.0321923 0)
(8.61559 0.0277591 0)
(8.62884 0.0237181 0)
(8.64132 0.0200379 0)
(8.65311 0.0166787 0)
(8.66425 0.0135974 0)
(8.67477 0.0107506 0)
(8.6847 0.00809665 0)
(8.69407 0.00559775 0)
(8.70288 0.00322104 0)
(8.71115 0.000940114 0)
(8.71886 -0.00126366 0)
(8.726 -0.00339963 0)
(8.73256 -0.00546608 0)
(8.73852 -0.0074484 0)
(8.74384 -0.00931667 0)
(8.7485 -0.0110248 0)
(8.75247 -0.012504 0)
(8.75571 -0.0136788 0)
(8.75825 -0.0143956 0)
(8.33389 0.0104563 0)
(8.34295 0.030129 0)
(8.36103 0.0449342 0)
(8.38381 0.0537687 0)
(8.4079 0.0576833 0)
(8.43202 0.0579537 0)
(8.45546 0.0556392 0)
(8.47772 0.0516873 0)
(8.49862 0.0468501 0)
(8.51819 0.0416415 0)
(8.53651 0.0363965 0)
(8.55366 0.0313274 0)
(8.56975 0.0265559 0)
(8.58487 0.0221401 0)
(8.5991 0.018097 0)
(8.6125 0.0144171 0)
(8.62515 0.0110752 0)
(8.63709 0.00803718 0)
(8.64836 0.00526492 0)
(8.659 0.00271997 0)
(8.66904 0.000366009 0)
(8.6785 -0.0018295 0)
(8.68738 -0.00389369 0)
(8.69571 -0.00584701 0)
(8.70349 -0.00770191 0)
(8.7107 -0.00946159 0)
(8.71735 -0.0111185 0)
(8.72342 -0.012653 0)
(8.72889 -0.014032 0)
(8.73377 -0.0152081 0)
(8.73804 -0.0161156 0)
(8.74168 -0.016685 0)
(8.74477 -0.0167816 0)
(8.33376 0.00793663 0)
(8.34143 0.0229439 0)
(8.35695 0.0343943 0)
(8.37699 0.041303 0)
(8.39877 0.0442929 0)
(8.42109 0.0442854 0)
(8.4432 0.0421053 0)
(8.46456 0.0385117 0)
(8.48492 0.0341302 0)
(8.50419 0.0294079 0)
(8.52239 0.0246453 0)
(8.53955 0.0200377 0)
(8.55572 0.0157001 0)
(8.57096 0.0116902 0)
(8.58535 0.00802678 0)
(8.59892 0.00470371 0)
(8.61173 0.00169938 0)
(8.62383 -0.00101661 0)
(8.63525 -0.0034783 0)
(8.64603 -0.00572013 0)
(8.65619 -0.00777434 0)
(8.66576 -0.00966919 0)
(8.67475 -0.0114273 0)
(8.68318 -0.0130645 0)
(8.69105 -0.0145887 0)
(8.69838 -0.015999 0)
(8.70516 -0.0172843 0)
(8.7114 -0.0184228 0)
(8.71709 -0.019381 0)
(8.72224 -0.0201137 0)
(8.72686 -0.020561 0)
(8.73096 -0.0206619 0)
(8.73461 -0.0203009 0)
(8.33365 0.00572404 0)
(8.34027 0.0165863 0)
(8.35381 0.0248829 0)
(8.37165 0.0297862 0)
(8.39151 0.0316476 0)
(8.41229 0.0311212 0)
(8.43325 0.0288398 0)
(8.45381 0.0254026 0)
(8.47367 0.0213191 0)
(8.49267 0.0169671 0)
(8.51076 0.0126071 0)
(8.52792 0.00841042 0)
(8.54417 0.00448004 0)
(8.55955 0.000867794 0)
(8.57409 -0.00240949 0)
(8.58783 -0.00535812 0)
(8.6008 -0.00799875 0)
(8.61306 -0.0103601 0)
(8.62464 -0.0124744 0)
(8.63555 -0.0143735 0)
(8.64584 -0.0160871 0)
(8.65553 -0.0176406 0)
(8.66464 -0.0190536 0)
(8.67319 -0.0203392 0)
(8.68119 -0.0215026 0)
(8.68866 -0.0225406 0)
(8.6956 -0.0234413 0)
(8.70203 -0.0241828 0)
(8.70797 -0.0247338 0)
(8.71342 -0.0250537 0)
(8.71842 -0.0250906 0)
(8.72299 -0.0247938 0)
(8.7272 -0.0240666 0)
(8.33357 0.00374343 0)
(8.3394 0.010861 0)
(8.35141 0.0161769 0)
(8.36751 0.0190281 0)
(8.38582 0.0196026 0)
(8.40533 0.018358 0)
(8.42531 0.0157721 0)
(8.4452 0.0123097 0)
(8.46463 0.00837569 0)
(8.48341 0.00427824 0)
(8.50142 0.000233415 0)
(8.51862 -0.00361624 0)
(8.53497 -0.00718589 0)
(8.55049 -0.0104344 0)
(8.5652 -0.013351 0)
(8.57912 -0.0159456 0)
(8.59228 -0.0182403 0)
(8.60471 -0.0202641 0)
(8.61645 -0.0220487 0)
(8.62753 -0.0236249 0)
(8.63797 -0.0250208 0)
(8.64781 -0.0262598 0)
(8.65706 -0.0273599 0)
(8.66575 -0.0283322 0)
(8.67391 -0.0291807 0)
(8.68154 -0.0299018 0)
(8.68868 -0.0304837 0)
(8.69534 -0.0309065 0)
(8.70154 -0.0311425 0)
(8.70732 -0.0311569 0)
(8.71272 -0.0309064 0)
(8.71775 -0.0303506 0)
(8.7225 -0.0294098 0)
(8.33352 0.00193435 0)
(8.33874 0.00560648 0)
(8.34961 0.00807937 0)
(8.36438 0.00884882 0)
(8.38146 0.00801176 0)
(8.39995 0.00588605 0)
(8.41916 0.00282582 0)
(8.43852 -0.000814439 0)
(8.45762 -0.00472201 0)
(8.47624 -0.00865524 0)
(8.49422 -0.0124441 0)
(8.51147 -0.0159781 0)
(8.52795 -0.0191947 0)
(8.54362 -0.0220674 0)
(8.5585 -0.0245958 0)
(8.57261 -0.0267964 0)
(8.58595 -0.0286959 0)
(8.59856 -0.0303262 0)
(8.61047 -0.0317207 0)
(8.62171 -0.0329108 0)
(8.6323 -0.0339252 0)
(8.64228 -0.0347871 0)
(8.65168 -0.0355144 0)
(8.66052 -0.0361182 0)
(8.66883 -0.0366028 0)
(8.67664 -0.0369655 0)
(8.68397 -0.0371965 0)
(8.69086 -0.0372793 0)
(8.69733 -0.0371909 0)
(8.70343 -0.0369033 0)
(8.7092 -0.0363821 0)
(8.71467 -0.0355977 0)
(8.71993 -0.0344859 0)
(8.33347 0.000246422 0)
(8.33827 0.000684846 0)
(8.34829 0.000412665 0)
(8.36208 -0.000927363 0)
(8.37825 -0.00328251 0)
(8.396 -0.00643252 0)
(8.41465 -0.01012 0)
(8.43363 -0.0140842 0)
(8.45254 -0.0180949 0)
(8.4711 -0.0219745 0)
(8.48912 -0.0256007 0)
(8.50649 -0.028898 0)
(8.52313 -0.0318291 0)
(8.53901 -0.0343858 0)
(8.55411 -0.0365804 0)
(8.56843 -0.0384383 0)
(8.58198 -0.0399925 0)
(8.5948 -0.0412794 0)
(8.6069 -0.0423348 0)
(8.61832 -0.0431925 0)
(8.62909 -0.0438819 0)
(8.63924 -0.0444274 0)
(8.6488 -0.0448473 0)
(8.6578 -0.0451536 0)
(8.66629 -0.0453518 0)
(8.67429 -0.0454411 0)
(8.68183 -0.0454143 0)
(8.68895 -0.045259 0)
(8.6957 -0.0449572 0)
(8.7021 -0.0444877 0)
(8.70822 -0.0438242 0)
(8.71409 -0.0429462 0)
(8.71979 -0.0418022 0)
(8.33344 -0.00136398 0)
(8.33795 -0.00402589 0)
(8.3474 -0.00698793 0)
(8.36052 -0.0104709 0)
(8.37608 -0.0144342 0)
(8.39333 -0.0187223 0)
(8.41163 -0.0231501 0)
(8.43042 -0.0275348 0)
(8.44925 -0.031718 0)
(8.46785 -0.0355819 0)
(8.48599 -0.0390519 0)
(8.50353 -0.0420904 0)
(8.52038 -0.0446895 0)
(8.53648 -0.0468633 0)
(8.5518 -0.0486416 0)
(8.56634 -0.0500627 0)
(8.58011 -0.0511697 0)
(8.59313 -0.0520061 0)
(8.60542 -0.0526135 0)
(8.61701 -0.0530296 0)
(8.62795 -0.0532871 0)
(8.63825 -0.0534127 0)
(8.64797 -0.0534269 0)
(8.65713 -0.0533438 0)
(8.66578 -0.0531711 0)
(8.67395 -0.0529109 0)
(8.68168 -0.0525595 0)
(8.68902 -0.0521087 0)
(8.696 -0.0515462 0)
(8.70268 -0.050857 0)
(8.7091 -0.050023 0)
(8.71531 -0.0490324 0)
(8.72141 -0.0478444 0)
(8.33343 -0.00293757 0)
(8.33776 -0.00864044 0)
(8.34689 -0.014285 0)
(8.35963 -0.0199656 0)
(8.37487 -0.0256365 0)
(8.39191 -0.0311867 0)
(8.41011 -0.0364923 0)
(8.4289 -0.041438 0)
(8.44786 -0.0459317 0)
(8.46665 -0.0499132 0)
(8.48504 -0.0533548 0)
(8.50286 -0.0562567 0)
(8.52 -0.0586409 0)
(8.5364 -0.0605448 0)
(8.55202 -0.0620158 0)
(8.56684 -0.0631061 0)
(8.58087 -0.0638694 0)
(8.59413 -0.0643572 0)
(8.60664 -0.0646175 0)
(8.61843 -0.0646927 0)
(8.62955 -0.0646195 0)
(8.64003 -0.0644277 0)
(8.64991 -0.0641407 0)
(8.65924 -0.0637754 0)
(8.66805 -0.0633426 0)
(8.67639 -0.0628472 0)
(8.6843 -0.0622895 0)
(8.69184 -0.0616656 0)
(8.69904 -0.0609681 0)
(8.70595 -0.0601878 0)
(8.71263 -0.0593127 0)
(8.71912 -0.0583374 0)
(8.7255 -0.0572293 0)
(8.33342 -0.00451392 0)
(8.3377 -0.0132699 0)
(8.34672 -0.0216348 0)
(8.35937 -0.0295786 0)
(8.37457 -0.0370329 0)
(8.39165 -0.0439112 0)
(8.40998 -0.0501341 0)
(8.42898 -0.055644 0)
(8.44819 -0.0604104 0)
(8.46729 -0.0644317 0)
(8.48602 -0.0677319 0)
(8.50419 -0.0703556 0)
(8.52168 -0.0723615 0)
(8.53841 -0.0738169 0)
(8.55434 -0.0747929 0)
(8.56945 -0.0753607 0)
(8.58374 -0.0755881 0)
(8.59724 -0.0755381 0)
(8.60996 -0.0752671 0)
(8.62195 -0.074824 0)
(8.63324 -0.0742507 0)
(8.64388 -0.073581 0)
(8.65391 -0.0728418 0)
(8.66337 -0.0720531 0)
(8.67232 -0.0712287 0)
(8.68081 -0.0703772 0)
(8.68887 -0.0695022 0)
(8.69656 -0.0686039 0)
(8.70393 -0.0676795 0)
(8.71103 -0.0667248 0)
(8.71791 -0.0657336 0)
(8.72462 -0.0647064 0)
(8.73125 -0.0636172 0)
(8.33343 -0.00613425 0)
(8.33776 -0.0180361 0)
(8.34691 -0.0292282 0)
(8.35977 -0.0395634 0)
(8.37527 -0.0489532 0)
(8.39272 -0.0573354 0)
(8.4115 -0.0646735 0)
(8.431 -0.0709634 0)
(8.45076 -0.0762308 0)
(8.4704 -0.0805259 0)
(8.48967 -0.0839183 0)
(8.50835 -0.0864919 0)
(8.52633 -0.0883386 0)
(8.54351 -0.0895537 0)
(8.55984 -0.0902312 0)
(8.57531 -0.090461 0)
(8.58992 -0.0903265 0)
(8.60369 -0.089903 0)
(8.61666 -0.0892568 0)
(8.62885 -0.0884453 0)
(8.64033 -0.0875165 0)
(8.65112 -0.08651 0)
(8.66129 -0.0854572 0)
(8.67089 -0.0843822 0)
(8.67996 -0.0833026 0)
(8.68855 -0.0822304 0)
(8.69673 -0.081173 0)
(8.70454 -0.080134 0)
(8.71203 -0.0791145 0)
(8.71925 -0.078114 0)
(8.72626 -0.0771299 0)
(8.7331 -0.0761657 0)
(8.73983 -0.0751995 0)
(8.33344 -0.00784349 0)
(8.33794 -0.02306 0)
(8.34745 -0.0372182 0)
(8.36079 -0.0500336 0)
(8.37686 -0.0613792 0)
(8.39496 -0.0712035 0)
(8.41441 -0.0795101 0)
(8.4346 -0.0863569 0)
(8.45504 -0.0918411 0)
(8.47536 -0.0960824 0)
(8.49527 -0.0992137 0)
(8.51456 -0.101373 0)
(8.53308 -0.102696 0)
(8.55076 -0.103316 0)
(8.56754 -0.103354 0)
(8.58341 -0.102922 0)
(8.59836 -0.10212 0)
(8.61243 -0.101037 0)
(8.62564 -0.0997483 0)
(8.63805 -0.0983187 0)
(8.6497 -0.0968021 0)
(8.66064 -0.0952423 0)
(8.67094 -0.0936745 0)
(8.68064 -0.0921258 0)
(8.6898 -0.0906168 0)
(8.69848 -0.0891624 0)
(8.70673 -0.0877728 0)
(8.71462 -0.0864546 0)
(8.72218 -0.0852118 0)
(8.72948 -0.0840471 0)
(8.73657 -0.0829611 0)
(8.74348 -0.0819609 0)
(8.75031 -0.0810273 0)
(8.33347 -0.00969885 0)
(8.3383 -0.0285274 0)
(8.34848 -0.0459498 0)
(8.36274 -0.0615642 0)
(8.37987 -0.0752323 0)
(8.3991 -0.0869228 0)
(8.41972 -0.0966694 0)
(8.44106 -0.104571 0)
(8.46259 -0.110772 0)
(8.48391 -0.115441 0)
(8.50473 -0.118759 0)
(8.52483 -0.12091 0)
(8.54407 -0.122072 0)
(8.56237 -0.122416 0)
(8.57967 -0.122094 0)
(8.59598 -0.121247 0)
(8.61131 -0.119997 0)
(8.62568 -0.11845 0)
(8.63914 -0.116698 0)
(8.65174 -0.114816 0)
(8.66354 -0.112867 0)
(8.6746 -0.110903 0)
(8.68499 -0.108963 0)
(8.69475 -0.10708 0)
(8.70395 -0.105277 0)
(8.71266 -0.103572 0)
(8.72093 -0.101978 0)
(8.72882 -0.100503 0)
(8.73637 -0.0991537 0)
(8.74365 -0.0979333 0)
(8.75071 -0.0968435 0)
(8.75758 -0.0958909 0)
(8.76433 -0.0950571 0)
(8.33351 -0.0117606 0)
(8.33878 -0.0345534 0)
(8.34986 -0.0554221 0)
(8.36529 -0.0737791 0)
(8.38371 -0.0894636 0)
(8.40428 -0.102496 0)
(8.42626 -0.113 0)
(8.44893 -0.121187 0)
(8.47173 -0.127311 0)
(8.49424 -0.131635 0)
(8.51615 -0.134414 0)
(8.53723 -0.135894 0)
(8.55734 -0.1363 0)
(8.5764 -0.135836 0)
(8.59436 -0.134684 0)
(8.61122 -0.133001 0)
(8.627 -0.130928 0)
(8.64174 -0.128581 0)
(8.65549 -0.126059 0)
(8.66833 -0.123445 0)
(8.6803 -0.120808 0)
(8.69148 -0.118203 0)
(8.70195 -0.115673 0)
(8.71176 -0.113252 0)
(8.72099 -0.110967 0)
(8.7297 -0.108839 0)
(8.73795 -0.10688 0)
(8.7458 -0.105103 0)
(8.75331 -0.103513 0)
(8.76054 -0.102117 0)
(8.76754 -0.100916 0)
(8.77435 -0.0999184 0)
(8.78105 -0.0991055 0)
(8.3336 -0.0141432 0)
(8.33965 -0.0416126 0)
(8.35231 -0.0667401 0)
(8.36978 -0.0888144 0)
(8.39042 -0.107664 0)
(8.41323 -0.123286 0)
(8.43734 -0.135787 0)
(8.46197 -0.145405 0)
(8.48651 -0.152452 0)
(8.51054 -0.157261 0)
(8.53376 -0.160169 0)
(8.55597 -0.161496 0)
(8.57702 -0.161538 0)
(8.59686 -0.160562 0)
(8.61546 -0.158798 0)
(8.63283 -0.156448 0)
(8.64902 -0.153682 0)
(8.66407 -0.150642 0)
(8.67806 -0.147446 0)
(8.69105 -0.144189 0)
(8.70312 -0.140948 0)
(8.71436 -0.137785 0)
(8.72482 -0.134747 0)
(8.7346 -0.131871 0)
(8.74377 -0.129186 0)
(8.75238 -0.12671 0)
(8.76052 -0.12446 0)
(8.76823 -0.122445 0)
(8.77559 -0.120671 0)
(8.78263 -0.119142 0)
(8.78943 -0.11786 0)
(8.796 -0.116829 0)
(8.80243 -0.116027 0)
(8.33366 -0.0169085 0)
(8.34048 -0.0494752 0)
(8.35474 -0.0785543 0)
(8.37424 -0.103261 0)
(8.3971 -0.123636 0)
(8.42227 -0.139947 0)
(8.4488 -0.152546 0)
(8.47577 -0.161864 0)
(8.50253 -0.168351 0)
(8.52859 -0.172429 0)
(8.55363 -0.174491 0)
(8.57741 -0.174899 0)
(8.59982 -0.173977 0)
(8.62079 -0.172013 0)
(8.64032 -0.169255 0)
(8.65844 -0.165918 0)
(8.67522 -0.162186 0)
(8.69073 -0.158211 0)
(8.70505 -0.154119 0)
(8.71828 -0.150014 0)
(8.73051 -0.14598 0)
(8.74182 -0.142083 0)
(8.75231 -0.138373 0)
(8.76207 -0.134892 0)
(8.77117 -0.131669 0)
(8.77969 -0.128725 0)
(8.7877 -0.126077 0)
(8.79526 -0.123736 0)
(8.80245 -0.121707 0)
(8.80932 -0.119995 0)
(8.81593 -0.118599 0)
(8.82232 -0.117524 0)
(8.82858 -0.116744 0)
(8.3339 -0.0204418 0)
(8.34277 -0.060231 0)
(8.36066 -0.0961187 0)
(8.38434 -0.126892 0)
(8.41124 -0.152347 0)
(8.44009 -0.172533 0)
(8.46984 -0.187776 0)
(8.49959 -0.198652 0)
(8.52869 -0.205806 0)
(8.55675 -0.209864 0)
(8.58346 -0.211404 0)
(8.60866 -0.21095 0)
(8.63223 -0.208953 0)
(8.65416 -0.205797 0)
(8.67446 -0.201802 0)
(8.6932 -0.197233 0)
(8.71044 -0.192306 0)
(8.72627 -0.187195 0)
(8.74081 -0.182038 0)
(8.75415 -0.176947 0)
(8.76641 -0.172005 0)
(8.77767 -0.167279 0)
(8.78805 -0.162818 0)
(8.79764 -0.158659 0)
(8.80652 -0.154828 0)
(8.81478 -0.151345 0)
(8.82249 -0.148223 0)
(8.82972 -0.145469 0)
(8.83654 -0.143087 0)
(8.84302 -0.141079 0)
(8.8492 -0.139441 0)
(8.85512 -0.138173 0)
(8.86086 -0.137245 0)
(8.33386 -0.0244774 0)
(8.34356 -0.0704028 0)
(8.36386 -0.109252 0)
(8.39096 -0.140764 0)
(8.42195 -0.166016 0)
(8.45538 -0.185676 0)
(8.48977 -0.200313 0)
(8.52387 -0.210584 0)
(8.55689 -0.217125 0)
(8.58835 -0.220517 0)
(8.61792 -0.22131 0)
(8.64545 -0.220011 0)
(8.67088 -0.217075 0)
(8.69424 -0.2129 0)
(8.71561 -0.20783 0)
(8.73509 -0.202158 0)
(8.75282 -0.196126 0)
(8.76893 -0.189932 0)
(8.78356 -0.183735 0)
(8.79686 -0.17766 0)
(8.80895 -0.171806 0)
(8.81997 -0.166246 0)
(8.83002 -0.161034 0)
(8.83923 -0.156211 0)
(8.84768 -0.151804 0)
(8.85546 -0.147832 0)
(8.86267 -0.144307 0)
(8.86937 -0.141235 0)
(8.87565 -0.138619 0)
(8.88155 -0.13646 0)
(8.88716 -0.134752 0)
(8.89251 -0.133494 0)
(8.89772 -0.132646 0)
(8.33497 -0.0313477 0)
(8.3513 -0.0926277 0)
(8.38034 -0.145784 0)
(8.41497 -0.188697 0)
(8.45175 -0.221731 0)
(8.48974 -0.245702 0)
(8.5278 -0.261936 0)
(8.56484 -0.271917 0)
(8.60024 -0.276936 0)
(8.6336 -0.278079 0)
(8.66467 -0.27626 0)
(8.69332 -0.272234 0)
(8.71956 -0.266606 0)
(8.74344 -0.259861 0)
(8.7651 -0.252389 0)
(8.78468 -0.244498 0)
(8.80235 -0.23643 0)
(8.81828 -0.228376 0)
(8.83264 -0.220482 0)
(8.8456 -0.212859 0)
(8.85732 -0.205592 0)
(8.86792 -0.19874 0)
(8.87755 -0.192347 0)
(8.88632 -0.186441 0)
(8.89434 -0.181042 0)
(8.9017 -0.176161 0)
(8.90848 -0.171803 0)
(8.91477 -0.167973 0)
(8.92064 -0.16467 0)
(8.92615 -0.161896 0)
(8.93136 -0.159645 0)
(8.93633 -0.157918 0)
(8.94113 -0.156667 0)
(8.33402 -0.0363207 0)
(8.34986 -0.0987722 0)
(8.38376 -0.147259 0)
(8.42653 -0.186489 0)
(8.47265 -0.218443 0)
(8.51971 -0.242871 0)
(8.5656 -0.260241 0)
(8.60912 -0.271467 0)
(8.64991 -0.27742 0)
(8.6879 -0.278986 0)
(8.72311 -0.277063 0)
(8.75567 -0.272475 0)
(8.78575 -0.265937 0)
(8.81353 -0.258055 0)
(8.83916 -0.249324 0)
(8.86282 -0.240141 0)
(8.88464 -0.230815 0)
(8.90479 -0.221582 0)
(8.92338 -0.212619 0)
(8.94057 -0.204053 0)
(8.95647 -0.195976 0)
(8.9712 -0.188448 0)
(8.98489 -0.181506 0)
(8.99763 -0.175173 0)
(9.00952 -0.169458 0)
(9.02066 -0.164363 0)
(9.03112 -0.159886 0)
(9.04099 -0.156025 0)
(9.05033 -0.152779 0)
(9.05923 -0.150149 0)
(9.06776 -0.148145 0)
(9.076 -0.146777 0)
(9.0841 -0.146012 0)
(8.33959 -0.0604357 0)
(8.37704 -0.169498 0)
(8.42629 -0.247577 0)
(8.47613 -0.300278 0)
(8.52857 -0.3347 0)
(8.58508 -0.355218 0)
(8.64405 -0.36592 0)
(8.70413 -0.369896 0)
(8.76436 -0.369104 0)
(8.82366 -0.364882 0)
(8.88103 -0.358186 0)
(8.93574 -0.349705 0)
(8.98729 -0.339959 0)
(9.03538 -0.329357 0)
(9.07985 -0.318233 0)
(9.12072 -0.306862 0)
(9.15807 -0.295474 0)
(9.19207 -0.28426 0)
(9.22295 -0.273374 0)
(9.25094 -0.262936 0)
(9.27629 -0.253038 0)
(9.29926 -0.243748 0)
(9.32009 -0.23511 0)
(9.33901 -0.227154 0)
(9.35621 -0.219894 0)
(9.37189 -0.213336 0)
(9.3862 -0.207484 0)
(9.3993 -0.202336 0)
(9.4113 -0.197906 0)
(9.42231 -0.194203 0)
(9.43245 -0.19129 0)
(9.4418 -0.189176 0)
(9.45059 -0.188036 0)
(8.3376 -0.0464669 0)
(8.39349 -0.120669 0)
(8.49367 -0.184285 0)
(8.60831 -0.245506 0)
(8.72989 -0.297828 0)
(8.85293 -0.338097 0)
(8.97054 -0.367058 0)
(9.07866 -0.385636 0)
(9.17516 -0.395022 0)
(9.25889 -0.39684 0)
(9.32968 -0.392745 0)
(9.38803 -0.384227 0)
(9.43487 -0.372571 0)
(9.47134 -0.358844 0)
(9.49869 -0.343899 0)
(9.51816 -0.328399 0)
(9.53091 -0.312852 0)
(9.53803 -0.297632 0)
(9.54047 -0.283005 0)
(9.53904 -0.269157 0)
(9.53446 -0.256203 0)
(9.52731 -0.24421 0)
(9.51811 -0.233207 0)
(9.50725 -0.223192 0)
(9.49507 -0.214146 0)
(9.48181 -0.206031 0)
(9.4677 -0.198807 0)
(9.45286 -0.19243 0)
(9.43741 -0.18687 0)
(9.42134 -0.182109 0)
(9.40479 -0.178257 0)
(9.38742 -0.175281 0)
(9.36999 -0.174209 0)
(8.4092 -0.221149 0)
(8.63481 -0.427879 0)
(8.83292 -0.521774 0)
(8.97673 -0.581885 0)
(9.07068 -0.614041 0)
(9.11389 -0.623882 0)
(9.11077 -0.619028 0)
(9.0708 -0.603589 0)
(9.00289 -0.58043 0)
(8.9145 -0.552137 0)
(8.81211 -0.520782 0)
(8.70104 -0.487953 0)
(8.58543 -0.45487 0)
(8.46844 -0.42244 0)
(8.35237 -0.391303 0)
(8.23884 -0.361879 0)
(8.12897 -0.334421 0)
(8.02344 -0.309051 0)
(7.92264 -0.285797 0)
(7.82672 -0.264621 0)
(7.73567 -0.245441 0)
(7.64938 -0.228145 0)
(7.56764 -0.212604 0)
(7.49021 -0.19868 0)
(7.41682 -0.18623 0)
(7.34716 -0.175111 0)
(7.28095 -0.165171 0)
(7.21786 -0.156267 0)
(7.15757 -0.148228 0)
(7.09961 -0.140892 0)
(7.04359 -0.134173 0)
(6.98831 -0.127188 0)
(6.93432 -0.123611 0)
(8.13713 -0.207044 0)
(7.84802 -0.387709 0)
(7.38635 -0.438836 0)
(6.8619 -0.439233 0)
(6.36367 -0.407713 0)
(5.89458 -0.358576 0)
(5.45724 -0.304106 0)
(5.05898 -0.250697 0)
(4.70084 -0.201558 0)
(4.38079 -0.158294 0)
(4.09642 -0.121334 0)
(3.84483 -0.090439 0)
(3.62279 -0.0650577 0)
(3.42712 -0.0444926 0)
(3.25479 -0.0280149 0)
(3.10298 -0.014938 0)
(2.96914 -0.00465061 0)
(2.85098 0.00337201 0)
(2.74645 0.00956947 0)
(2.65375 0.0143037 0)
(2.57132 0.0178693 0)
(2.49777 0.0205048 0)
(2.43192 0.0224032 0)
(2.37272 0.0237213 0)
(2.31929 0.0245925 0)
(2.27086 0.0251325 0)
(2.22676 0.0254681 0)
(2.18654 0.0257294 0)
(2.14962 0.0261512 0)
(2.11614 0.0270694 0)
(2.08514 0.0287812 0)
(2.05868 0.0342367 0)
(2.03484 0.0285352 0)
(1.50561 -0.0028248 0)