/*--------------------------------*- C++ -*----------------------------------*\
| =========                 |                                                 |
| \\      /  F ield         | OpenFOAM: The Open Source CFD Toolbox           |
|  \\    /   O peration     | Version:  2.1.1                                 |
|   \\  /    A nd           | Web:      www.OpenFOAM.org                      |
|    \\/     M anipulation  |                                                 |
\*---------------------------------------------------------------------------*/
FoamFile
{
    version     2.0;
    format      ascii;
    class       volScalarField;
    location    "0.055";
    object      epsilon;
}
// * * * * * * * * * * * * * * * * * * * * * * * * * * * * * * * * * * * * * //

dimensions      [0 2 -3 0 0 0 0];

internalField   nonuniform List<scalar> 
6820
(
151.448
203.151
260.735
321.76
383.625
443.715
499.742
549.996
593.419
629.566
658.504
680.671
696.743
707.513
713.808
716.422
716.082
713.427
709.004
703.268
696.591
689.269
681.535
673.569
665.504
657.434
649.419
641.511
633.642
626.182
617.253
615.622
578.866
11.7448
21.4182
29.9466
38.6305
47.5914
56.5759
65.3472
73.7043
81.4854
88.5821
94.94
100.553
105.451
109.692
113.349
116.502
119.228
121.603
123.696
125.568
127.271
128.852
130.353
131.808
133.253
134.72
136.244
137.87
139.645
141.674
144.001
147.173
150.752
5.83781
7.51666
9.20625
10.8087
12.3189
13.7462
15.0869
16.3374
17.4962
18.5629
19.5395
20.4297
21.2386
21.9729
22.6399
23.2474
23.8031
24.3147
24.7892
25.2333
25.6532
26.0543
26.4418
26.8203
27.1941
27.5675
27.9448
28.3308
28.7311
29.1528
29.6105
30.0967
30.7361
5.24231
5.56004
6.0044
6.49335
6.98544
7.46146
7.91229
8.33362
8.72378
9.08259
9.41079
9.70971
9.98105
10.2267
10.4486
10.6488
10.8294
10.9921
11.1388
11.2712
11.3909
11.4994
11.5979
11.6876
11.7696
11.8446
11.9135
11.9765
12.034
12.086
12.1317
12.1702
12.1993
5.17349
5.18677
5.2682
5.39773
5.55633
5.72961
5.90769
6.08414
6.25492
6.41761
6.57081
6.71383
6.84641
6.96863
7.08075
7.1832
7.27645
7.36106
7.43761
7.50668
7.56885
7.6247
7.67477
7.71958
7.75962
7.79534
7.82716
7.85544
7.88049
7.90257
7.92178
7.93825
7.95141
5.16878
5.12132
5.09603
5.09482
5.11536
5.15308
5.203
5.26077
5.32296
5.38698
5.45098
5.51362
5.57399
5.63148
5.6857
5.73644
5.7836
5.82717
5.86722
5.90386
5.93725
5.96755
5.99497
6.0197
6.04196
6.06196
6.07994
6.09612
6.11075
6.12406
6.1363
6.14772
6.15855
5.16887
5.11169
5.06115
5.01963
4.9884
4.96754
4.95615
4.95279
4.95588
4.9639
4.97549
4.98956
5.00519
5.02166
5.03841
5.05503
5.07118
5.08664
5.10124
5.11488
5.1275
5.13907
5.1496
5.15911
5.16766
5.1753
5.18213
5.18824
5.19375
5.19879
5.20351
5.20808
5.21267
5.16902
5.11063
5.05515
5.00339
4.95619
4.91412
4.87745
4.84609
4.8197
4.79779
4.77978
4.7651
4.75319
4.74354
4.73572
4.72932
4.72405
4.71961
4.7158
4.71244
4.70937
4.7065
4.70374
4.70103
4.69833
4.69563
4.69291
4.6902
4.68754
4.68496
4.68254
4.68036
4.6785
5.16904
5.11055
5.05431
5.00049
4.94927
4.90089
4.85556
4.81343
4.77451
4.73876
4.70604
4.67616
4.64889
4.62399
4.6012
4.5803
4.56106
4.54329
4.52679
4.51141
4.497
4.48345
4.47066
4.45853
4.447
4.436
4.42551
4.41549
4.40594
4.39685
4.38825
4.38016
4.37262
5.16904
5.11054
5.05421
5.00002
4.94795
4.89802
4.85025
4.80468
4.76133
4.72022
4.68131
4.64456
4.6099
4.57723
4.54645
4.51744
4.49009
4.46427
4.43986
4.41677
4.39488
4.37411
4.35436
4.33555
4.31763
4.30053
4.28419
4.26859
4.2537
4.23949
4.22596
4.21313
4.20099
5.16904
5.11053
5.05418
4.99994
4.94772
4.89746
4.84911
4.80262
4.75795
4.71508
4.67398
4.6346
4.59692
4.56088
4.52643
4.49351
4.46206
4.43201
4.40329
4.37584
4.34959
4.32447
4.30043
4.2774
4.25533
4.23418
4.2139
4.19446
4.17582
4.15798
4.1409
4.1246
4.10906
5.16904
5.11053
5.05417
4.99991
4.94767
4.89734
4.84887
4.80216
4.75715
4.71379
4.67202
4.63179
4.59306
4.55577
4.51988
4.48534
4.45211
4.42014
4.38939
4.3598
4.33133
4.30394
4.27757
4.2522
4.22777
4.20426
4.18162
4.15984
4.13888
4.11872
4.09937
4.08079
4.063
5.16904
5.11052
5.05416
4.9999
4.94764
4.8973
4.84879
4.80204
4.75695
4.71347
4.67152
4.63105
4.59199
4.5543
4.51793
4.48281
4.44892
4.4162
4.38461
4.35412
4.32468
4.29625
4.26879
4.24228
4.21668
4.19196
4.1681
4.14506
4.12283
4.10139
4.08074
4.06085
4.04174
5.16904
5.11052
5.05415
4.99988
4.94762
4.89727
4.84876
4.80198
4.75688
4.71336
4.67137
4.63083
4.59169
4.55388
4.51736
4.48206
4.44795
4.41498
4.3831
4.35227
4.32245
4.29362
4.26572
4.23873
4.21263
4.18737
4.16295
4.13933
4.11649
4.09443
4.07313
4.05258
4.03277
5.16903
5.11051
5.05414
4.99987
4.9476
4.89725
4.84872
4.80194
4.75683
4.7133
4.67129
4.63074
4.59157
4.55373
4.51716
4.48182
4.44764
4.41459
4.38262
4.35168
4.32174
4.29276
4.26471
4.23755
4.21126
4.1858
4.16116
4.1373
4.11422
4.09189
4.0703
4.04945
4.02932
5.16903
5.11051
5.05414
4.99986
4.94759
4.89723
4.8487
4.80191
4.75678
4.71325
4.67123
4.63067
4.59149
4.55364
4.51706
4.4817
4.4475
4.41443
4.38243
4.35146
4.32149
4.29247
4.26437
4.23716
4.21081
4.18528
4.16057
4.13663
4.11346
4.09103
4.06934
4.04836
4.02809
5.16903
5.11051
5.05413
4.99985
4.94757
4.89721
4.84867
4.80188
4.75675
4.71321
4.67118
4.63061
4.59143
4.55357
4.51698
4.48161
4.44741
4.41433
4.38232
4.35135
4.32136
4.29233
4.26422
4.237
4.21063
4.18509
4.16036
4.1364
4.1132
4.09074
4.06901
4.04799
4.02766
5.16903
5.1105
5.05413
4.99984
4.94756
4.89719
4.84865
4.80185
4.75672
4.71317
4.67114
4.63056
4.59137
4.55351
4.51691
4.48154
4.44733
4.41425
4.38224
4.35126
4.32127
4.29224
4.26413
4.2369
4.21053
4.18499
4.16025
4.13629
4.11309
4.09062
4.06887
4.04783
4.02747
5.16903
5.1105
5.05412
4.99983
4.94755
4.89718
4.84863
4.80183
4.75669
4.71313
4.6711
4.63051
4.59132
4.55345
4.51685
4.48148
4.44726
4.41418
4.38216
4.35118
4.32119
4.29216
4.26405
4.23682
4.21045
4.18491
4.16017
4.13621
4.113
4.09053
4.06877
4.04771
4.02734
5.16903
5.1105
5.05412
4.99983
4.94754
4.89717
4.84861
4.80181
4.75666
4.7131
4.67106
4.63047
4.59127
4.5534
4.5168
4.48141
4.4472
4.41411
4.38209
4.35111
4.32112
4.29208
4.26397
4.23674
4.21038
4.18483
4.16009
4.13613
4.11292
4.09043
4.06867
4.04759
4.02719
5.16903
5.1105
5.05411
4.99982
4.94753
4.89715
4.8486
4.80179
4.75664
4.71307
4.67103
4.63044
4.59123
4.55335
4.51675
4.48136
4.44714
4.41404
4.38202
4.35104
4.32104
4.29201
4.26389
4.23667
4.21029
4.18475
4.16001
4.13604
4.11282
4.09033
4.06854
4.04745
4.02703
5.16903
5.1105
5.05411
4.99982
4.94752
4.89714
4.84859
4.80177
4.75662
4.71305
4.671
4.6304
4.59119
4.55331
4.5167
4.48131
4.44709
4.41399
4.38196
4.35097
4.32097
4.29194
4.26382
4.23659
4.21021
4.18466
4.15991
4.13593
4.1127
4.0902
4.0684
4.04729
4.02684
5.16903
5.11049
5.05411
4.99981
4.94752
4.89714
4.84858
4.80176
4.7566
4.71303
4.67097
4.63037
4.59116
4.55327
4.51666
4.48126
4.44703
4.41393
4.3819
4.35091
4.32091
4.29186
4.26374
4.2365
4.21012
4.18456
4.15981
4.13582
4.11258
4.09006
4.06824
4.04711
4.02663
5.16903
5.11049
5.05411
4.99981
4.94751
4.89713
4.84857
4.80174
4.75658
4.71301
4.67095
4.63035
4.59113
4.55324
4.51662
4.48122
4.44699
4.41388
4.38184
4.35084
4.32084
4.29179
4.26366
4.23642
4.21003
4.18446
4.15969
4.13569
4.11244
4.0899
4.06807
4.04691
4.0264
5.16903
5.11049
5.0541
4.99981
4.94751
4.89712
4.84856
4.80173
4.75657
4.71299
4.67093
4.63032
4.5911
4.5532
4.51658
4.48118
4.44694
4.41383
4.38179
4.35078
4.32077
4.29172
4.26358
4.23633
4.20993
4.18435
4.15957
4.13556
4.11229
4.08973
4.06787
4.04669
4.02616
5.16903
5.11049
5.0541
4.9998
4.94751
4.89712
4.84855
4.80172
4.75656
4.71298
4.67092
4.6303
4.59108
4.55318
4.51655
4.48114
4.4469
4.41378
4.38174
4.35073
4.32071
4.29165
4.2635
4.23624
4.20983
4.18424
4.15945
4.13542
4.11213
4.08956
4.06767
4.04646
4.0259
5.16903
5.11049
5.0541
4.9998
4.9475
4.89711
4.84854
4.80171
4.75654
4.71296
4.6709
4.63028
4.59105
4.55315
4.51652
4.4811
4.44686
4.41373
4.38168
4.35067
4.32064
4.29157
4.26342
4.23615
4.20973
4.18413
4.15932
4.13527
4.11196
4.08937
4.06746
4.04622
4.02562
5.16903
5.11049
5.0541
4.9998
4.9475
4.89711
4.84854
4.80171
4.75654
4.71296
4.67089
4.63027
4.59104
4.55313
4.5165
4.48108
4.44683
4.4137
4.38164
4.35062
4.32059
4.29151
4.26334
4.23606
4.20963
4.18402
4.15919
4.13513
4.1118
4.08918
4.06725
4.04598
4.02535
5.16903
5.11049
5.0541
4.9998
4.9475
4.8971
4.84853
4.8017
4.75653
4.71294
4.67087
4.63025
4.59101
4.5531
4.51646
4.48104
4.44679
4.41365
4.38159
4.35056
4.32052
4.29143
4.26326
4.23597
4.20952
4.1839
4.15905
4.13497
4.11163
4.08899
4.06703
4.04574
4.02508
5.16903
5.11049
5.0541
4.9998
4.9475
4.89711
4.84854
4.80171
4.75654
4.71296
4.67089
4.63027
4.59103
4.55312
4.51648
4.48105
4.44679
4.41365
4.38158
4.35054
4.32049
4.2914
4.26321
4.23591
4.20945
4.18381
4.15895
4.13485
4.11149
4.08882
4.06684
4.04552
4.02484
5.16903
5.11049
5.0541
4.9998
4.9475
4.89711
4.84853
4.8017
4.75652
4.71293
4.67086
4.63024
4.591
4.55308
4.51644
4.48101
4.44675
4.41361
4.38154
4.3505
4.32044
4.29134
4.26315
4.23584
4.20937
4.18372
4.15885
4.13474
4.11136
4.08868
4.06668
4.04534
4.02463
5.16903
5.11049
5.0541
4.99981
4.94752
4.89715
4.84859
4.80177
4.75661
4.71303
4.67097
4.63035
4.59111
4.5532
4.51656
4.48113
4.44686
4.41372
4.38164
4.3506
4.32054
4.29144
4.26324
4.23593
4.20946
4.18381
4.15894
4.13482
4.11144
4.08876
4.06675
4.04541
4.02469
5.16903
5.11051
5.05413
4.99985
4.94756
4.89718
4.84861
4.80178
4.75662
4.71304
4.67098
4.63037
4.59114
4.55325
4.51662
4.48122
4.44698
4.41387
4.38183
4.35082
4.32081
4.29175
4.26361
4.23635
4.20993
4.18434
4.15954
4.13549
4.11218
4.08957
4.06764
4.04638
4.02574
5.16903
5.1105
5.05415
4.99992
4.9477
4.8974
4.84891
4.80216
4.75706
4.71355
4.67155
4.63101
4.59187
4.55407
4.51756
4.48228
4.44819
4.41524
4.38339
4.35259
4.3228
4.29398
4.2661
4.23912
4.21301
4.18773
4.16325
4.13955
4.11659
4.09435
4.07279
4.05191
4.03167
5.16905
5.11063
5.0544
5.00025
4.94809
4.89785
4.84947
4.80288
4.75803
4.71484
4.67325
4.63321
4.59466
4.55754
4.52179
4.48735
4.45418
4.42223
4.39144
4.36176
4.33315
4.30556
4.27896
4.25329
4.22852
4.20461
4.18152
4.15922
4.13768
4.11687
4.09675
4.0773
4.05849
5.16908
5.11079
5.05488
5.00137
4.95018
4.90122
4.85443
4.80976
4.76715
4.72655
4.68788
4.65107
4.61604
4.5827
4.55096
4.52075
4.49196
4.46453
4.43836
4.41339
4.38954
4.36674
4.34492
4.32404
4.30402
4.28482
4.26639
4.24868
4.23164
4.21525
4.19945
4.18422
4.16953
5.16939
5.11358
5.062
5.01464
4.9715
4.93252
4.89753
4.86625
4.83836
4.81354
4.79147
4.77183
4.75434
4.73875
4.7248
4.7123
4.70106
4.69089
4.68167
4.67325
4.66553
4.65839
4.65175
4.64553
4.63966
4.63408
4.62873
4.62357
4.61856
4.61365
4.60882
4.60404
4.59928
5.17809
5.16327
5.16956
5.19131
5.22457
5.2663
5.3141
5.36611
5.42087
5.47731
5.53459
5.59204
5.64916
5.70556
5.76094
5.81508
5.86782
5.91903
5.96864
6.0166
6.06288
6.10747
6.15038
6.19162
6.23122
6.26921
6.30564
6.34055
6.37399
6.40602
6.43668
6.46604
6.49418
5.6386
6.43041
7.14579
7.82531
8.49402
9.14599
9.77537
10.3799
10.9593
11.5147
12.0474
12.5591
13.0515
13.5259
13.9838
14.4264
14.8549
15.2702
15.6733
16.065
16.4462
16.8175
17.1797
17.5334
17.8792
18.2178
18.5498
18.8757
19.1961
19.5114
19.8222
20.129
20.4321
44.7794
48.3124
51.8864
55.4656
59.0311
62.5709
66.0745
69.5321
72.935
76.2754
79.5464
82.7423
85.858
88.8897
91.8341
94.6888
97.4522
100.123
102.701
105.186
107.578
109.878
112.087
114.207
116.239
118.185
120.047
121.827
123.528
125.15
126.698
128.172
129.577
689.35
835.851
984.672
1130.68
1252.82
1314.62
1293.94
1202.47
1074.91
945.338
833.015
742.811
672.189
617.015
573.957
540.688
515.474
497.171
484.125
474.798
467.706
461.364
454.215
444.565
430.549
410.164
381.42
342.689
293.334
234.683
171.097
110.275
61.2392
29.7244
14.5331
9.29375
8.15004
8.2736
8.71174
9.18145
9.59363
9.91433
10.1316
10.247
10.2713
10.22
10.1102
9.95757
9.77602
9.57671
9.36844
9.1579
8.95014
8.74889
8.55692
8.37627
8.20843
8.05447
7.91509
7.79066
7.68119
7.58623
7.50474
7.43493
7.37411
7.31872
7.26439
7.20628
7.13935
7.05869
6.95967
6.83794
6.6892
6.50905
6.29308
6.03738
5.73958
5.40024
5.02413
4.62096
4.20517
3.79434
3.40679
3.05849
2.76047
2.5173
2.32721
2.18371
2.07786
2.00052
1.94387
1.90201
1.87083
1.84754
1.83024
1.81754
1.80835
1.80172
1.7974
1.79242
158.269
171.852
196.427
239.473
308.594
407.164
529.591
658.403
768.413
837.34
856.738
834.324
786.827
730.661
676.704
629.871
591.213
559.57
533.064
509.835
488.204
466.584
443.358
416.849
385.421
347.689
302.875
251.338
195.192
138.742
88.0996
49.243
24.9864
13.2448
8.93618
7.79487
7.7408
8.02711
8.40692
8.78683
9.12048
9.38209
9.56011
9.65417
9.67171
9.62463
9.52636
9.3899
9.22672
9.04638
8.85651
8.66307
8.47058
8.28249
8.10136
7.92915
7.76734
7.61703
7.47907
7.35407
7.2424
7.14415
7.05901
6.98602
6.92345
6.86863
6.81799
6.76719
6.71145
6.64583
6.56551
6.46582
6.34218
6.18996
6.00451
5.78159
5.51834
5.21448
4.87369
4.50434
4.11944
3.73535
3.36951
3.03759
2.75092
2.51487
2.32873
2.18709
2.08191
2.00469
1.94793
1.90589
1.87447
1.85092
1.83332
1.82029
1.81077
1.80382
1.79921
1.79382
31.3962
32.0692
32.9187
34.7544
39.6949
51.7821
76.3402
117.898
177.885
252.631
333.695
410.399
473.071
515.76
537.289
540.633
529.839
508.657
481.67
451.943
420.716
387.935
352.926
314.938
273.541
228.957
182.361
136.08
93.4826
58.2578
33.0704
18.1426
11.0229
8.27024
7.40891
7.27893
7.4425
7.7288
8.05558
8.3738
8.65166
8.86955
9.01814
9.09658
9.11031
9.06849
8.9818
8.86083
8.71512
8.55282
8.38055
8.20357
8.02597
7.8509
7.68076
7.51741
7.36228
7.21649
7.08093
6.95635
6.84337
6.74243
6.65378
6.57717
6.51173
6.4557
6.40635
6.36002
6.31231
6.25846
6.19357
6.1128
6.01138
5.88448
5.72729
5.53528
5.30506
5.03555
4.72922
4.39303
4.0385
3.68064
3.336
3.01991
2.74402
2.51449
2.33176
2.19151
2.08664
2.00925
1.9522
1.90984
1.87811
1.85423
1.83628
1.82289
1.81299
1.80568
1.80076
1.79492
12.2216
12.2104
12.0765
11.6686
10.8225
9.61709
8.86429
10.1078
15.1233
25.8217
43.8872
69.7111
101.465
135.669
168.434
196.273
217.367
230.877
235.733
231.87
220.16
201.984
178.875
152.387
124.13
95.87
69.5388
47.0485
29.8566
18.4271
11.9611
8.82567
7.46861
6.94671
6.82833
6.92432
7.13743
7.40765
7.69343
7.96451
8.19908
8.3828
8.50846
8.57515
8.58688
8.5507
8.4751
8.36866
8.23931
8.09395
7.93831
7.77703
7.6138
7.4515
7.29237
7.13816
6.99026
6.84977
6.71757
6.59448
6.48122
6.37849
6.28688
6.20674
6.1379
6.07947
6.02956
5.98529
5.94282
5.89767
5.84505
5.78005
5.6978
5.59338
5.46185
5.29845
5.09931
4.86254
4.58942
4.28545
3.96058
3.62844
3.30459
3.004
2.73855
2.51525
2.33563
2.19651
2.09173
2.014
1.95652
1.91376
1.88167
1.85743
1.83912
1.82534
1.81506
1.80737
1.80213
1.79582
7.96248
7.96961
7.9642
7.92244
7.78216
7.41894
6.68874
5.56704
4.32734
3.71361
4.32152
6.34941
9.98354
15.3008
22.0225
29.3678
36.3926
42.6271
47.4165
50.133
50.3623
48.0309
43.4454
37.246
30.292
23.4995
17.6475
13.1932
10.1813
8.33463
7.27376
6.69899
6.43219
6.37097
6.4483
6.61614
6.8383
7.08608
7.33589
7.56829
7.76804
7.92452
8.03212
8.08993
8.10086
8.07035
8.00508
7.91203
7.79775
7.66807
7.52795
7.38147
7.23194
7.08199
6.93371
6.78877
6.64847
6.51387
6.38587
6.26525
6.15279
6.0493
5.95559
5.8724
5.80015
5.73868
5.68696
5.64288
5.60328
5.56412
5.52083
5.46858
5.40248
5.31761
5.20896
5.07162
4.9013
4.69534
4.45386
4.1809
3.8848
3.57778
3.27433
2.98897
2.7338
2.51658
2.33991
2.20178
2.09693
2.01876
1.96077
1.91756
1.88508
1.86048
1.8418
1.82764
1.81698
1.80891
1.80334
1.79655
6.17054
6.18446
6.19998
6.2174
6.23342
6.233
6.17451
5.98317
5.57014
4.95607
4.32401
3.85797
3.72372
4.05222
4.88287
6.18925
7.78896
9.25854
10.4431
11.2525
11.6321
11.5741
11.1273
10.3945
9.50991
8.60728
7.78916
7.11312
6.59778
6.23893
6.02158
5.92558
5.92916
6.01153
6.15384
6.33878
6.55
6.77183
6.9895
7.18964
7.36108
7.49572
7.58906
7.64017
7.65113
7.6261
7.57034
7.48948
7.38894
7.27363
7.14782
7.01512
6.87849
6.74033
6.60259
6.46683
6.33431
6.20604
6.08288
5.96559
5.85493
5.75172
5.6569
5.57144
5.49617
5.43155
5.37729
5.33208
5.29348
5.25801
5.22144
5.17912
5.12626
5.05799
4.96934
4.85532
4.71131
4.53394
4.32225
4.07883
3.81045
3.52783
3.24437
2.97405
2.72908
2.51792
2.3442
2.207
2.10204
2.02335
1.96481
1.92112
1.88824
1.86329
1.84426
1.82974
1.81872
1.81028
1.80441
1.79714
5.21827
5.22567
5.23532
5.2486
5.26682
5.29059
5.31753
5.33728
5.32428
5.24278
5.07517
4.83815
4.58868
4.41106
4.37446
4.5239
4.81926
5.16723
5.50491
5.78951
5.99465
6.10893
6.13478
6.08621
5.98513
5.85672
5.72515
5.61041
5.52698
5.48384
5.48517
5.53125
5.6194
5.74476
5.90079
6.07957
6.27204
6.46825
6.65791
6.83117
6.9795
7.09651
7.17853
7.22459
7.23614
7.2163
7.16919
7.09934
7.01122
6.90897
6.79627
6.67629
6.55168
6.42465
6.297
6.1702
6.04546
5.92375
5.80588
5.69259
5.58457
5.48264
5.38772
5.30091
5.2233
5.15581
5.09878
5.05165
5.01271
4.97909
4.94699
4.91207
4.86971
4.81519
4.74364
4.65008
4.52968
4.37845
4.19445
3.97888
3.73697
3.47794
3.21401
2.95856
2.72382
2.51881
2.34812
2.21192
2.10686
2.02764
1.96852
1.92434
1.89108
1.86579
1.84644
1.8316
1.82025
1.81148
1.80531
1.7976
4.67694
4.67619
4.67724
4.68101
4.68842
4.7004
4.71773
4.74044
4.76623
4.78796
4.79446
4.77558
4.72886
4.66492
4.60493
4.57638
4.58889
4.63784
4.71053
4.79218
4.86992
4.93474
4.98214
5.01197
5.02764
5.03504
5.04134
5.05382
5.07898
5.12195
5.18628
5.27379
5.38457
5.51702
5.66792
5.83261
6.00499
6.17789
6.34359
6.49446
6.6238
6.72649
6.79943
6.84166
6.8541
6.83906
6.79975
6.73978
6.66283
6.57238
6.47161
6.36328
6.2498
6.13317
6.01508
5.89691
5.77981
5.66471
5.55241
5.44357
5.33887
5.23905
5.14499
5.05778
4.97867
4.90888
4.84925
4.79987
4.75972
4.72658
4.69716
4.66746
4.63313
4.58966
4.53237
4.45639
4.35676
4.22906
4.07044
3.88084
3.66398
3.42759
3.1827
2.94197
2.71752
2.51883
2.35136
2.2163
2.11121
2.03149
1.97179
1.92713
1.89349
1.8679
1.84828
1.83316
1.82153
1.81246
1.80604
1.79792
4.36463
4.35653
4.34987
4.34527
4.3434
4.34491
4.35037
4.36025
4.37473
4.39325
4.41384
4.43305
4.44704
4.45355
4.45341
4.45134
4.45279
4.46132
4.47803
4.5019
4.53064
4.56177
4.59338
4.62468
4.65609
4.68918
4.72634
4.77043
4.82439
4.89082
4.97175
5.06836
5.1808
5.30807
5.44795
5.59697
5.75049
5.90294
6.04824
6.18038
6.29398
6.38487
6.45042
6.48967
6.50311
6.49242
6.46005
6.40889
6.34192
6.26209
6.17211
6.07442
5.97118
5.86421
5.75509
5.64513
5.53542
5.42687
5.32022
5.21614
5.11524
5.01818
4.92578
4.83908
4.75935
4.688
4.62622
4.57463
4.53285
4.49929
4.47117
4.44491
4.41646
4.38159
4.33587
4.27463
4.19292
4.08602
3.95033
3.78465
3.59128
3.37649
3.15006
2.92387
2.70979
2.51765
2.35366
2.21993
2.11494
2.03478
1.97454
1.92941
1.89542
1.86956
1.8497
1.83436
1.82249
1.81318
1.80654
1.79807
4.18777
4.17365
4.1607
4.14937
4.14014
4.13353
4.12998
4.1299
4.13356
4.14109
4.15231
4.16656
4.18269
4.19931
4.21526
4.23048
4.24555
4.26135
4.27874
4.29835
4.3205
4.34534
4.37299
4.40372
4.43814
4.4772
4.52217
4.57457
4.63596
4.70775
4.79106
4.88647
4.99387
5.11232
5.23993
5.37386
5.51037
5.64498
5.77286
5.88916
5.98956
6.0706
6.13003
6.16684
6.18124
6.17439
6.14813
6.10474
6.04665
5.97631
5.89606
5.80804
5.71417
5.61613
5.51539
5.41317
5.31053
5.20834
5.10734
5.00815
4.91134
4.81753
4.72743
4.642
4.56249
4.49036
4.42705
4.37357
4.3301
4.2956
4.26784
4.24365
4.21931
4.19088
4.15427
4.10507
4.03849
3.94963
3.83433
3.6904
3.51882
3.32447
3.11585
2.90397
2.70035
2.51501
2.35479
2.22265
2.11794
2.03745
1.9767
1.93113
1.8968
1.87071
1.85066
1.83513
1.82309
1.81358
1.80677
1.79802
4.09194
4.07329
4.0556
4.0392
4.02447
4.01181
4.0016
3.99421
3.98992
3.98894
3.99136
3.99711
4.00593
4.01738
4.03098
4.04631
4.06312
4.08138
4.10117
4.12273
4.14637
4.17247
4.20148
4.23398
4.27064
4.31232
4.35998
4.41462
4.47727
4.5488
4.62983
4.72058
4.82074
4.92937
5.04482
5.1647
5.28595
5.40494
5.51778
5.62056
5.70973
5.78242
5.83662
5.87135
5.88656
5.88301
5.86205
5.82546
5.77519
5.71331
5.64178
5.56251
5.47719
5.38737
5.2944
5.19944
5.1035
5.00744
4.91195
4.81767
4.72512
4.63485
4.54752
4.46399
4.38541
4.31325
4.24908
4.1942
4.14922
4.11363
4.08566
4.06255
4.04092
4.01714
3.98746
3.94783
3.8937
3.82017
3.72271
3.59829
3.44672
3.27153
3.07999
2.88213
2.68903
2.51074
2.35461
2.22436
2.12014
2.03943
1.97824
1.93225
1.89761
1.8713
1.8511
1.83544
1.82327
1.81362
1.80668
1.79772
4.04325
4.02152
4.00056
3.98062
3.96201
3.94505
3.93008
3.91742
3.90736
3.90013
3.89592
3.8948
3.89678
3.90178
3.90964
3.92019
3.93327
3.94878
3.9667
3.98708
4.0101
4.03599
4.06513
4.09798
4.13509
4.17712
4.22477
4.27877
4.3398
4.4084
4.4849
4.56931
4.66123
4.75976
4.86346
4.97033
5.07785
5.18308
5.28284
5.37394
5.45343
5.51889
5.56853
5.60137
5.61717
5.61636
5.59993
5.56922
5.52582
5.47141
5.40768
5.33629
5.25874
5.17645
5.09066
5.00247
4.91285
4.82261
4.73246
4.643
4.55474
4.46819
4.38394
4.30275
4.22569
4.15415
4.08977
4.03404
3.9879
3.95128
3.92284
3.90019
3.88025
3.85969
3.83511
3.80285
3.7587
3.69793
3.61579
3.50861
3.3752
3.21783
3.04252
2.85833
2.67575
2.50475
2.35304
2.22498
2.12148
2.04071
1.97914
1.93276
1.89783
1.87132
1.851
1.83525
1.82299
1.81325
1.80623
1.79711
4.02041
3.99678
3.97376
3.95155
3.9304
3.91058
3.89237
3.87606
3.86193
3.85021
3.84112
3.83482
3.83141
3.83095
3.83344
3.83886
3.8472
3.85843
3.87258
3.88971
3.90993
3.93346
3.96054
3.99152
4.0268
4.06687
4.1122
4.1633
4.2206
4.28443
4.35493
4.43198
4.51515
4.6036
4.6961
4.79097
4.88613
4.97916
5.06744
5.14834
5.21939
5.27848
5.32403
5.35505
5.37118
5.37259
5.35996
5.3343
5.29686
5.24902
5.19223
5.1279
5.0574
4.98198
4.9028
4.8209
4.73719
4.65247
4.56742
4.48263
4.3986
4.31583
4.23483
4.15629
4.08116
4.01078
3.94675
3.89071
3.84384
3.80641
3.77747
3.75495
3.73602
3.71762
3.69666
3.66989
3.63352
3.58312
3.51388
3.42173
3.30459
3.16361
3.00362
2.83265
2.66053
2.49701
2.35002
2.22447
2.12196
2.04128
1.97944
1.9327
1.89749
1.8708
1.85036
1.83455
1.82224
1.81246
1.80538
1.79618
4.01059
3.98591
3.96172
3.93817
3.91548
3.89385
3.87354
3.85479
3.83786
3.82298
3.81037
3.80022
3.79268
3.78788
3.78591
3.78683
3.79072
3.79762
3.8076
3.82077
3.83724
3.85719
3.88083
3.90842
3.94027
3.9767
4.01807
4.0647
4.11686
4.17475
4.23836
4.30754
4.38184
4.46051
4.54249
4.62636
4.71039
4.79256
4.87071
4.94263
5.0062
5.05961
5.1014
5.13062
5.14679
5.14991
5.14042
5.11903
5.08673
5.04465
4.99399
4.93599
4.87183
4.80267
4.72956
4.65347
4.57527
4.49573
4.41552
4.33521
4.25531
4.17628
4.09859
4.02287
3.94998
3.88115
3.81794
3.76206
3.71487
3.67693
3.64761
3.62509
3.60679
3.58981
3.57135
3.54853
3.51805
3.47585
3.41728
3.338
3.23526
3.10921
2.96355
2.80528
2.64346
2.48756
2.34557
2.22284
2.12157
2.04117
1.97915
1.93211
1.89662
1.86975
1.84922
1.83336
1.82103
1.81123
1.80414
1.7949
4.00673
3.98153
3.95671
3.93242
3.90882
3.88609
3.86445
3.84409
3.82526
3.80816
3.79301
3.78001
3.76932
3.76112
3.75552
3.75265
3.75263
3.75555
3.76152
3.77067
3.78313
3.79906
3.81864
3.84209
3.86965
3.90155
3.93806
3.97938
4.0257
4.07709
4.13351
4.19476
4.26043
4.32984
4.40207
4.47594
4.54996
4.62247
4.69162
4.75553
4.81242
4.86065
4.89893
4.92631
4.94226
4.94664
4.93967
4.92186
4.89397
4.85689
4.81164
4.75926
4.70081
4.63732
4.56976
4.49902
4.42594
4.35126
4.27561
4.19956
4.12363
4.04824
3.97385
3.90103
3.83054
3.76352
3.70149
3.64615
3.59902
3.56088
3.53136
3.50889
3.49103
3.47502
3.45826
3.43821
3.41204
3.37617
3.32623
3.25779
3.16763
3.05503
2.92265
2.77645
2.62473
2.47649
2.33974
2.22012
2.12035
2.04043
1.97834
1.93104
1.8953
1.86825
1.84762
1.83172
1.81938
1.80958
1.8025
1.79327
4.00533
3.97987
3.95473
3.93002
3.90589
3.88248
3.85996
3.83852
3.81836
3.79968
3.78266
3.76751
3.75439
3.74348
3.73494
3.7289
3.72551
3.72489
3.72718
3.73252
3.74105
3.75292
3.76831
3.78739
3.81036
3.83742
3.86874
3.90449
3.94477
3.98962
4.03895
4.09256
4.15006
4.21087
4.27419
4.33899
4.40403
4.46788
4.52898
4.58572
4.63654
4.68002
4.71496
4.74046
4.75594
4.76116
4.75618
4.74134
4.71719
4.68444
4.64392
4.59654
4.5432
4.48484
4.42234
4.35652
4.28818
4.218
4.14663
4.07462
4.00246
3.93058
3.85942
3.78949
3.72148
3.65645
3.59583
3.54133
3.49456
3.45649
3.427
3.40468
3.38722
3.37195
3.35637
3.33822
3.31512
3.28399
3.24087
3.18143
3.10211
3.00149
2.88128
2.74647
2.60454
2.46397
2.33263
2.21637
2.11836
2.0391
1.97707
1.92957
1.8936
1.86637
1.84564
1.8297
1.81736
1.80758
1.80052
1.79132
4.00481
3.97922
3.9539
3.92895
3.90447
3.8806
3.85748
3.83527
3.81414
3.79426
3.77582
3.75899
3.74395
3.73085
3.71988
3.71117
3.70488
3.70115
3.70014
3.70197
3.70681
3.71481
3.72612
3.74091
3.75935
3.7816
3.80779
3.83805
3.87245
3.911
3.95359
4.00003
4.04996
4.10288
4.15809
4.21469
4.27164
4.32771
4.38157
4.43182
4.47712
4.51618
4.54793
4.5715
4.58629
4.59199
4.58853
4.57611
4.55511
4.52608
4.4897
4.44674
4.39798
4.34424
4.28633
4.22502
4.16104
4.09506
4.02768
3.95946
3.89086
3.82234
3.75429
3.68719
3.62168
3.55871
3.49966
3.4462
3.40001
3.36224
3.33295
3.31093
3.29394
3.27932
3.26462
3.24779
3.22682
3.19915
3.16131
3.10918
3.03907
2.949
2.83986
2.7157
2.58316
2.45017
2.32436
2.21168
2.11566
2.03726
1.97541
1.92779
1.89161
1.8642
1.84337
1.82738
1.81503
1.80527
1.79823
1.78909
4.00457
3.9789
3.95346
3.92833
3.90361
3.8794
3.85582
3.83302
3.81113
3.79032
3.77074
3.75255
3.73593
3.72103
3.708
3.69702
3.68823
3.68177
3.67781
3.67649
3.67795
3.68236
3.68985
3.7006
3.71473
3.73239
3.75371
3.77877
3.80762
3.84025
3.87657
3.91639
3.95938
4.0051
4.05295
4.10215
4.1518
4.20085
4.24815
4.2925
4.33272
4.36766
4.39634
4.41795
4.43187
4.43774
4.4354
4.42492
4.40655
4.38071
4.34793
4.30886
4.26417
4.21459
4.16085
4.10365
4.04368
3.98158
3.91792
3.85324
3.78801
3.72265
3.65757
3.59321
3.53015
3.46927
3.41186
3.35958
3.31414
3.27682
3.2479
3.22631
3.20988
3.19593
3.18199
3.1661
3.14659
3.12139
3.08753
3.04125
2.97886
2.89798
2.7988
2.6845
2.5609
2.43532
2.31508
2.20615
2.11232
2.03497
1.97344
1.92576
1.88941
1.86183
1.84088
1.82484
1.81248
1.80274
1.79573
1.78664
4.0044
3.97866
3.95312
3.92785
3.90293
3.87844
3.8545
3.8312
3.8087
3.78711
3.76659
3.74728
3.72933
3.71289
3.69813
3.68518
3.67421
3.66536
3.65878
3.65463
3.65304
3.65417
3.65817
3.66517
3.67531
3.68872
3.7055
3.72573
3.74944
3.77661
3.80716
3.84091
3.87757
3.91675
3.95793
4.00043
4.04348
4.08617
4.12752
4.16647
4.20199
4.23308
4.25882
4.27844
4.29135
4.29713
4.29556
4.28661
4.27042
4.24729
4.21764
4.18199
4.14092
4.09507
4.0451
3.99165
3.93536
3.87682
3.81661
3.75523
3.69315
3.63079
3.56852
3.50678
3.4461
3.38729
3.33155
3.2805
3.2359
3.19916
3.1707
3.14965
3.13388
3.12067
3.10747
3.09236
3.07386
3.05037
3.01946
2.97779
2.92177
2.84882
2.7585
2.65324
2.53806
2.41964
2.30495
2.19989
2.10843
2.03229
1.97121
1.92357
1.88708
1.85935
1.83828
1.82218
1.8098
1.80007
1.79308
1.78406
4.00422
3.97842
3.9528
3.9274
3.9023
3.87758
3.85331
3.82961
3.80658
3.78433
3.76301
3.74274
3.72365
3.7059
3.68963
3.67499
3.66211
3.65115
3.64226
3.63558
3.63125
3.62942
3.63024
3.63383
3.64032
3.64983
3.66244
3.67824
3.69723
3.71941
3.74469
3.7729
3.80381
3.83705
3.87218
3.90861
3.94568
3.9826
4.01851
4.05252
4.0837
4.11116
4.13407
4.15172
4.1635
4.16898
4.1679
4.16013
4.14573
4.1249
4.09794
4.06528
4.02743
3.98492
3.93835
3.8883
3.83537
3.78013
3.72311
3.6648
3.60566
3.5461
3.48649
3.42724
3.36884
3.31203
3.25796
3.20818
3.16448
3.12836
3.10044
3.07999
3.06497
3.0526
3.0402
3.02579
3.00806
2.98576
2.95698
2.91886
2.86805
2.80184
2.71934
2.62229
2.51497
2.40341
2.29418
2.19304
2.10408
2.0293
1.9688
1.92129
1.8847
1.85683
1.83564
1.81947
1.80706
1.79734
1.79038
1.78141
4.00402
3.97816
3.95245
3.92694
3.90168
3.87675
3.8522
3.82814
3.80465
3.78184
3.75983
3.73873
3.71867
3.69978
3.6822
3.66607
3.65152
3.6387
3.62776
3.61882
3.61204
3.60756
3.6055
3.606
3.60918
3.61514
3.62396
3.63571
3.65041
3.66804
3.68852
3.7117
3.73738
3.76523
3.79487
3.8258
3.85744
3.8891
3.92006
3.94952
3.97668
4.00074
4.02095
4.03663
4.0472
4.05223
4.05138
4.0445
4.03156
4.01265
3.98802
3.95798
3.92297
3.88345
3.83994
3.79298
3.74313
3.69091
3.63683
3.58137
3.52496
3.46803
3.41092
3.35402
3.2978
3.24293
3.19049
3.14198
3.09919
3.06372
3.03637
3.01656
3.00234
2.9909
2.97939
2.96572
2.94863
2.92717
2.89992
2.8645
2.81788
2.75735
2.68169
2.59203
2.49196
2.3869
2.28297
2.18575
2.09937
2.02608
1.96627
1.91895
1.88233
1.85434
1.83304
1.81679
1.80435
1.79463
1.78768
1.77876
4.00379
3.97788
3.95209
3.92647
3.90106
3.87593
3.85114
3.82676
3.80287
3.77957
3.75695
3.73513
3.71422
3.69434
3.67562
3.65819
3.64217
3.62772
3.61495
3.60402
3.59505
3.58819
3.58355
3.58126
3.58144
3.58419
3.58957
3.59765
3.60845
3.62194
3.63806
3.65668
3.67761
3.70058
3.72524
3.75117
3.77787
3.80475
3.83117
3.85645
3.87988
3.90075
3.91837
3.93212
3.94144
3.94588
3.94508
3.93884
3.92706
3.90978
3.88714
3.85939
3.82688
3.79003
3.74928
3.70513
3.65808
3.60863
3.55726
3.50444
3.45059
3.3961
3.34134
3.28666
3.2325
3.17949
3.12863
3.08137
3.03949
3.00468
2.97789
2.95874
2.94537
2.93492
2.9244
2.91156
2.8951
2.87429
2.84812
2.81472
2.77144
2.71565
2.6459
2.56282
2.46938
2.3704
2.27154
2.17817
2.09442
2.02269
1.96366
1.91662
1.88001
1.85193
1.83053
1.8142
1.80172
1.79199
1.78505
1.77619
4.00354
3.97757
3.9517
3.92597
3.90043
3.87513
3.85011
3.82545
3.80121
3.77747
3.75433
3.73189
3.71023
3.68949
3.66977
3.65119
3.63389
3.61799
3.60361
3.5909
3.57999
3.57099
3.56404
3.55925
3.55673
3.55657
3.55884
3.56359
3.57085
3.5806
3.59277
3.60725
3.62387
3.64241
3.66256
3.68395
3.70615
3.72867
3.75094
3.77237
3.79234
3.81022
3.82539
3.83725
3.84529
3.84904
3.84814
3.84234
3.83148
3.81555
3.79461
3.76886
3.73857
3.70409
3.66583
3.62422
3.57972
3.53282
3.48396
3.43358
3.38211
3.32991
3.27735
3.22477
3.17257
3.12134
3.07201
3.02596
2.98498
2.95082
2.92458
2.90606
2.89355
2.88416
2.87475
2.86285
2.84708
2.82682
2.80144
2.76954
2.72888
2.67699
2.6123
2.53503
2.44758
2.35422
2.26016
2.17051
2.08935
2.01924
1.96105
1.91435
1.8778
1.84965
1.82815
1.81175
1.79923
1.78949
1.78255
1.77373
4.00327
3.97724
3.95129
3.92547
3.8998
3.87433
3.84911
3.8242
3.79964
3.77553
3.75193
3.72893
3.70663
3.68513
3.66453
3.64495
3.62652
3.60934
3.59354
3.57926
3.5666
3.55571
3.54669
3.53965
3.5347
3.53193
3.53139
3.53315
3.53721
3.54356
3.55215
3.56289
3.57561
3.59013
3.60618
3.62344
3.64155
3.66008
3.67854
3.69643
3.71319
3.72827
3.7411
3.75115
3.75789
3.7609
3.75978
3.75425
3.74412
3.72931
3.70984
3.68583
3.6575
3.62514
3.58911
3.5498
3.50765
3.46308
3.41654
3.36844
3.31918
3.26914
3.21866
3.16807
3.11774
3.06822
3.02036
2.97551
2.9354
2.90186
2.87614
2.85824
2.84658