/*--------------------------------*- C++ -*----------------------------------*\
| =========                 |                                                 |
| \\      /  F ield         | OpenFOAM: The Open Source CFD Toolbox           |
|  \\    /   O peration     | Version:  2.1.1                                 |
|   \\  /    A nd           | Web:      www.OpenFOAM.org                      |
|    \\/     M anipulation  |                                                 |
\*---------------------------------------------------------------------------*/
FoamFile
{
    version     2.0;
    format      ascii;
    class       volScalarField;
    location    "0.055";
    object      k;
}
// * * * * * * * * * * * * * * * * * * * * * * * * * * * * * * * * * * * * * //

dimensions      [0 2 -2 0 0 0 0];

internalField   nonuniform List<scalar> 
6820
(
0.28891
0.351398
0.415005
0.477465
0.536856
0.591547
0.640351
0.68259
0.71806
0.746932
0.769648
0.786825
0.799162
0.807377
0.812158
0.814139
0.813881
0.811869
0.808509
0.804142
0.799044
0.793434
0.787488
0.781339
0.775089
0.76881
0.762549
0.756346
0.750148
0.74425
0.737158
0.735859
0.706272
0.265533
0.269397
0.270524
0.271343
0.272563
0.274225
0.276244
0.278506
0.280901
0.283344
0.28578
0.288179
0.290532
0.292846
0.295137
0.297424
0.29973
0.302076
0.304482
0.306965
0.309539
0.312216
0.315008
0.317926
0.320981
0.324189
0.327569
0.331154
0.334986
0.339161
0.343738
0.349282
0.355187
0.262037
0.264253
0.263594
0.261555
0.258998
0.256316
0.253624
0.250935
0.248237
0.245521
0.24279
0.240057
0.23734
0.234662
0.232045
0.229511
0.227079
0.224765
0.222581
0.220538
0.218642
0.2169
0.215313
0.213884
0.212612
0.2115
0.210547
0.209756
0.209132
0.208688
0.208427
0.2084
0.208621
0.259885
0.260273
0.259798
0.258536
0.256829
0.254891
0.252832
0.250708
0.248544
0.246354
0.244146
0.241927
0.239703
0.237482
0.23527
0.233075
0.230904
0.228765
0.226664
0.224605
0.222594
0.220635
0.218731
0.216884
0.215095
0.213366
0.211696
0.210085
0.208532
0.207036
0.205592
0.204205
0.202859
0.259299
0.258404
0.2576
0.256567
0.255295
0.25385
0.252291
0.25066
0.248982
0.247274
0.245547
0.243809
0.242067
0.240325
0.238589
0.236861
0.235146
0.233447
0.231767
0.230109
0.228475
0.226867
0.225287
0.223736
0.222215
0.220725
0.219266
0.217837
0.216439
0.215069
0.213728
0.212413
0.211122
0.259225
0.257848
0.256623
0.255437
0.254228
0.25297
0.251663
0.250312
0.248928
0.24752
0.246097
0.244666
0.243231
0.241797
0.240367
0.238945
0.237533
0.236132
0.234746
0.233376
0.232022
0.230687
0.229371
0.228075
0.2268
0.225546
0.224313
0.223102
0.221911
0.220742
0.219593
0.218466
0.217358
0.259217
0.257715
0.256309
0.25498
0.253698
0.252442
0.251195
0.24995
0.248703
0.247453
0.246202
0.244952
0.243705
0.242463
0.241228
0.240003
0.238787
0.237584
0.236394
0.235217
0.234056
0.23291
0.23178
0.230667
0.229571
0.228492
0.22743
0.226386
0.225359
0.224351
0.22336
0.222387
0.221434
0.259218
0.25769
0.256225
0.254822
0.253477
0.252181
0.250923
0.249695
0.248491
0.247305
0.246134
0.244978
0.243835
0.242705
0.241588
0.240484
0.239394
0.238318
0.237257
0.23621
0.235178
0.234162
0.233161
0.232175
0.231205
0.230252
0.229314
0.228392
0.227486
0.226598
0.225726
0.224872
0.224036
0.259218
0.257687
0.256207
0.25478
0.253405
0.252079
0.250799
0.249559
0.248355
0.247184
0.24604
0.244922
0.243827
0.242753
0.241699
0.240664
0.239647
0.238649
0.237667
0.236703
0.235755
0.234824
0.233909
0.23301
0.232128
0.231261
0.230411
0.229576
0.228758
0.227956
0.227171
0.226404
0.225655
0.259218
0.257686
0.256203
0.254769
0.253384
0.252045
0.250751
0.249499
0.248287
0.247113
0.245972
0.244864
0.243785
0.242733
0.241707
0.240706
0.239727
0.23877
0.237833
0.236917
0.23602
0.235141
0.234281
0.233438
0.232612
0.231804
0.231012
0.230237
0.229479
0.228738
0.228014
0.227308
0.226621
0.259218
0.257686
0.256202
0.254767
0.253378
0.252034
0.250734
0.249476
0.248259
0.247079
0.245936
0.244827
0.24375
0.242705
0.241688
0.240699
0.239736
0.238798
0.237884
0.236992
0.236122
0.235272
0.234443
0.233633
0.232842
0.232069
0.231314
0.230577
0.229858
0.229156
0.228473
0.227808
0.227162
0.259218
0.257685
0.256202
0.254766
0.253376
0.252031
0.250729
0.249468
0.248247
0.247065
0.245918
0.244807
0.24373
0.242685
0.24167
0.240684
0.239726
0.238795
0.23789
0.237008
0.236151
0.235315
0.234502
0.233709
0.232936
0.232183
0.231449
0.230734
0.230038
0.229361
0.228702
0.228062
0.227442
0.259218
0.257685
0.256201
0.254765
0.253375
0.252029
0.250727
0.249465
0.248243
0.247058
0.245911
0.244798
0.243719
0.242673
0.241658
0.240672
0.239715
0.238786
0.237883
0.237006
0.236153
0.235323
0.234516
0.233731
0.232967
0.232224
0.231501
0.230798
0.230114
0.22945
0.228805
0.228179
0.227574
0.259218
0.257685
0.256201
0.254764
0.253374
0.252028
0.250725
0.249463
0.24824
0.247055
0.245907
0.244794
0.243714
0.242667
0.241651
0.240665
0.239708
0.238779
0.237876
0.237
0.236148
0.23532
0.234516
0.233734
0.232974
0.232235
0.231517
0.230819
0.230141
0.229483
0.228845
0.228227
0.227628
0.259218
0.257685
0.256201
0.254764
0.253374
0.252028
0.250724
0.249462
0.248239
0.247053
0.245904
0.244791
0.243711
0.242663
0.241646
0.24066
0.239703
0.238773
0.237871
0.236994
0.236143
0.235316
0.234512
0.233731
0.232973
0.232236
0.231519
0.230824
0.230149
0.229493
0.228858
0.228243
0.227648
0.259218
0.257685
0.2562
0.254764
0.253373
0.252027
0.250723
0.24946
0.248237
0.247052
0.245903
0.244788
0.243708
0.24266
0.241643
0.240657
0.239699
0.238769
0.237867
0.23699
0.236139
0.235312
0.234509
0.233728
0.23297
0.232233
0.231518
0.230824
0.230149
0.229495
0.228861
0.228247
0.227653
0.259218
0.257685
0.2562
0.254763
0.253373
0.252026
0.250722
0.249459
0.248236
0.24705
0.245901
0.244787
0.243706
0.242658
0.241641
0.240654
0.239696
0.238766
0.237864
0.236987
0.236136
0.235309
0.234505
0.233725
0.232967
0.232231
0.231516
0.230822
0.230148
0.229494
0.228861
0.228247
0.227652
0.259218
0.257685
0.2562
0.254763
0.253372
0.252026
0.250722
0.249459
0.248235
0.247049
0.245899
0.244785
0.243704
0.242656
0.241639
0.240652
0.239694
0.238764
0.237861
0.236984
0.236133
0.235306
0.234503
0.233722
0.232965
0.232229
0.231514
0.23082
0.230146
0.229493
0.228859
0.228245
0.22765
0.259218
0.257684
0.2562
0.254763
0.253372
0.252025
0.250721
0.249458
0.248234
0.247048
0.245898
0.244783
0.243702
0.242654
0.241637
0.240649
0.239691
0.238761
0.237858
0.236982
0.23613
0.235303
0.2345
0.23372
0.232962
0.232226
0.231512
0.230818
0.230144
0.22949
0.228856
0.228241
0.227646
0.259218
0.257684
0.2562
0.254763
0.253372
0.252025
0.25072
0.249457
0.248233
0.247047
0.245897
0.244782
0.243701
0.242652
0.241635
0.240647
0.239689
0.238759
0.237856
0.236979
0.236128
0.235301
0.234498
0.233717
0.23296
0.232224
0.231509
0.230815
0.230141
0.229487
0.228853
0.228238
0.227641
0.259218
0.257684
0.2562
0.254762
0.253371
0.252024
0.25072
0.249456
0.248232
0.247046
0.245896
0.244781
0.243699
0.242651
0.241633
0.240646
0.239687
0.238757
0.237854
0.236977
0.236125
0.235298
0.234495
0.233715
0.232957
0.232221
0.231506
0.230812
0.230138
0.229484
0.228849
0.228233
0.227636
0.259218
0.257684
0.256199
0.254762
0.253371
0.252024
0.25072
0.249456
0.248232
0.247045
0.245895
0.24478
0.243698
0.242649
0.241632
0.240644
0.239686
0.238755
0.237852
0.236975
0.236123
0.235296
0.234493
0.233712
0.232954
0.232218
0.231503
0.230809
0.230134
0.229479
0.228844
0.228227
0.227629
0.259218
0.257684
0.256199
0.254762
0.253371
0.252024
0.250719
0.249455
0.248231
0.247044
0.245894
0.244779
0.243697
0.242648
0.24163
0.240642
0.239684
0.238753
0.23785
0.236973
0.236121
0.235294
0.23449
0.23371
0.232951
0.232215
0.2315
0.230805
0.23013
0.229475
0.228838
0.228221
0.227622
0.259218
0.257684
0.256199
0.254762
0.253371
0.252024
0.250719
0.249455
0.24823
0.247044
0.245893
0.244778
0.243696
0.242647
0.241629
0.240641
0.239682
0.238752
0.237848
0.236971
0.236119
0.235291
0.234488
0.233707
0.232948
0.232212
0.231496
0.230801
0.230125
0.229469
0.228832
0.228214
0.227614
0.259218
0.257684
0.256199
0.254762
0.253371
0.252023
0.250719
0.249455
0.24823
0.247043
0.245893
0.244777
0.243695
0.242646
0.241628
0.24064
0.239681
0.23875
0.237846
0.236969
0.236117
0.235289
0.234485
0.233704
0.232945
0.232208
0.231492
0.230796
0.23012
0.229463
0.228826
0.228206
0.227605
0.259218
0.257684
0.256199
0.254762
0.25337
0.252023
0.250718
0.249454
0.24823
0.247043
0.245892
0.244776
0.243694
0.242645
0.241627
0.240639
0.239679
0.238749
0.237845
0.236967
0.236114
0.235287
0.234482
0.233701
0.232942
0.232204
0.231488
0.230791
0.230115
0.229457
0.228819
0.228198
0.227596
0.259218
0.257684
0.256199
0.254762
0.25337
0.252023
0.250718
0.249454
0.248229
0.247042
0.245891
0.244776
0.243694
0.242644
0.241626
0.240637
0.239678
0.238747
0.237843
0.236965
0.236112
0.235284
0.234479
0.233698
0.232938
0.2322
0.231483
0.230786
0.230109
0.229451
0.228811
0.22819
0.227586
0.259218
0.257684
0.256199
0.254762
0.25337
0.252023
0.250718
0.249454
0.248229
0.247042
0.245891
0.244775
0.243693
0.242644
0.241625
0.240637
0.239677
0.238746
0.237842
0.236963
0.23611
0.235282
0.234477
0.233695
0.232935
0.232196
0.231479
0.230781
0.230103
0.229444
0.228804
0.228181
0.227576
0.259218
0.257684
0.256199
0.254762
0.25337
0.252023
0.250718
0.249454
0.248229
0.247042
0.245891
0.244775
0.243692
0.242643
0.241624
0.240635
0.239676
0.238744
0.23784
0.236962
0.236108
0.23528
0.234474
0.233692
0.232931
0.232192
0.231474
0.230776
0.230097
0.229438
0.228796
0.228173
0.227567
0.259218
0.257684
0.256199
0.254762
0.25337
0.252023
0.250718
0.249454
0.248229
0.247042
0.245891
0.244775
0.243693
0.242643
0.241624
0.240636
0.239676
0.238744
0.23784
0.236961
0.236108
0.235278
0.234473
0.23369
0.232929
0.23219
0.231471
0.230772
0.230092
0.229432
0.22879
0.228165
0.227558
0.259218
0.257684
0.256199
0.254762
0.25337
0.252023
0.250718
0.249454
0.248229
0.247042
0.245891
0.244775
0.243692
0.242642
0.241624
0.240635
0.239675
0.238743
0.237839
0.23696
0.236106
0.235277
0.234471
0.233688
0.232927
0.232187
0.231467
0.230768
0.230088
0.229426
0.228783
0.228158
0.22755
0.259218
0.257684
0.256199
0.254762
0.253371
0.252024
0.25072
0.249456
0.248232
0.247045
0.245894
0.244779
0.243696
0.242646
0.241628
0.240639
0.239679
0.238747
0.237842
0.236963
0.236109
0.235279
0.234473
0.233689
0.232927
0.232187
0.231467
0.230767
0.230086
0.229424
0.22878
0.228153
0.227544
0.259218
0.257685
0.2562
0.254763
0.253372
0.252026
0.250721
0.249457
0.248233
0.247046
0.245895
0.24478
0.243698
0.242648
0.24163
0.240641
0.239681
0.238749
0.237844
0.236965
0.236111
0.235281
0.234474
0.23369
0.232928
0.232187
0.231466
0.230765
0.230083
0.229419
0.228774
0.228146
0.227535
0.259218
0.257685
0.256201
0.254766
0.253378
0.252034
0.250732
0.24947
0.248247
0.247061
0.245911
0.244796
0.243714
0.242664
0.241645
0.240656
0.239696
0.238763
0.237857
0.236976
0.236121
0.235289
0.23448
0.233694
0.232929
0.232185
0.231462
0.230757
0.230072
0.229405
0.228755
0.228123
0.227508
0.259219
0.257689
0.25621
0.254777
0.253389
0.252045
0.250743
0.249482
0.248259
0.247074
0.245924
0.244809
0.243727
0.242677
0.241656
0.240665
0.239703
0.238767
0.237857
0.236972
0.236111
0.235274
0.234459
0.233665
0.232893
0.232141
0.231408
0.230695
0.229999
0.229322
0.228662
0.228018
0.227391
0.25922
0.257694
0.256221
0.254799
0.253423
0.25209
0.250796
0.249539
0.248318
0.247132
0.245979
0.244858
0.243768
0.242708
0.241676
0.240671
0.239693
0.238741
0.237813
0.236909
0.236028
0.235169
0.234332
0.233516
0.23272
0.231943
0.231186
0.230446
0.229725
0.229021
0.228334
0.227663
0.227007
0.259229
0.257738
0.256292
0.254882
0.253508
0.252172
0.250871
0.249603
0.248368
0.247162
0.245986
0.244837
0.243716
0.242622
0.241553
0.240509
0.23949
0.238495
0.237523
0.236574
0.235647
0.234741
0.233856
0.232991
0.232147
0.231321
0.230514
0.229726
0.228955
0.228201
0.227464
0.226744
0.226039
0.259265
0.257822
0.256453
0.255125
0.253805
0.252484
0.251165
0.249856
0.248563
0.247293
0.246047
0.24483
0.243642
0.242483
0.241352
0.24025
0.239176
0.238128
0.237106
0.236109
0.235137
0.234187
0.233261
0.232356
0.231472
0.230609
0.229766
0.228943
0.228138
0.227352
0.226584
0.225834
0.225101
0.259599
0.258632
0.257578
0.256541
0.255586
0.254713
0.253904
0.253149
0.252442
0.251781
0.251163
0.250589
0.250058
0.24957
0.249123
0.248717
0.248351
0.248023
0.247732
0.247477
0.247257
0.24707
0.246916
0.246794
0.246702
0.24664
0.246607
0.246603
0.246628
0.24668
0.24676
0.246867
0.247
0.266719
0.280569
0.294241
0.307622
0.320668
0.333362
0.345693
0.35765
0.369226
0.380415
0.391214
0.401624
0.411644
0.421278
0.43053
0.439407
0.447915
0.456062
0.463857
0.471309
0.478427
0.485223
0.491706
0.497886
0.503775
0.509382
0.514719
0.519795
0.52462
0.529205
0.533558
0.537689
0.541611
0.831448
1.02741
1.27899
1.57985
1.89687
2.1746
2.36625
2.46621
2.504
2.51552
2.52263
2.5319
2.54303
2.55543
2.56989
2.58768
2.60942
2.63501
2.66226
2.68801
2.70832
2.71834
2.71235
2.68369
2.62484
2.52763
2.38377
2.18598
1.9302
1.61979
1.27165
0.922217
0.624742
0.426625
0.336006
0.317311
0.330007
0.352891
0.377696
0.401013
0.421225
0.437557
0.449789
0.458108
0.462969
0.464956
0.464678
0.462698
0.459503
0.455496
0.451
0.446271
0.441507
0.436867
0.432474
0.428424
0.424795
0.421645
0.419019
0.416947
0.415443
0.414492
0.41405
0.414023
0.41426
0.414555
0.414651
0.41426
0.413087
0.410846
0.407276
0.402146
0.395252
0.386422
0.375522
0.362481
0.347327
0.330226
0.311515
0.291711
0.271489
0.251621
0.232882
0.215942
0.201273
0.18909
0.179353
0.171817
0.166123
0.161881
0.158734
0.156397
0.154656
0.153358
0.152395
0.151687
0.151174
0.150803
0.150557
0.150287
0.367072
0.388307
0.426569
0.495951
0.614384
0.797088
1.04597
1.34061
1.64098
1.90307
2.09895
2.22583
2.29937
2.34033
2.36497
2.38247
2.39655
2.40723
2.41294
2.4113
2.39912
2.37223
2.32533
2.2523
2.1466
2.00209
1.8144
1.58308
1.31488
1.02763
0.752232
0.527219
0.381706
0.315507
0.301416
0.311325
0.330234
0.351882
0.3734
0.39318
0.410226
0.423993
0.434317
0.441342
0.445424
0.447032
0.44666
0.444776
0.441789
0.438045
0.433823
0.429348
0.424799
0.420318
0.416017
0.411989
0.408309
0.405038
0.402228
0.39992
0.398145
0.396915
0.396212
0.395978
0.396097
0.396393
0.396634
0.396545
0.395836
0.394216
0.391416
0.387194
0.381333
0.373648
0.363991
0.352272
0.33849
0.322779
0.305433
0.286925
0.267886
0.249049
0.231164
0.214893
0.200715
0.188866
0.179338
0.171922
0.166289
0.162073
0.158934
0.156595
0.154847
0.15354
0.152566
0.151846
0.151319
0.150936
0.150679
0.150391
0.208907
0.209709
0.211788
0.216597
0.227539
0.251256
0.297964
0.380191
0.50885
0.685932
0.900535
1.13129
1.35307
1.54486
1.69493
1.80187
1.86905
1.90171
1.9082
1.89404
1.8608
1.80707
1.72989
1.62601
1.49302
1.33066
1.14252
0.937912
0.733153
0.55033
0.411437
0.327804
0.29252
0.287222
0.296364
0.311942
0.330273
0.349307
0.367669
0.384369
0.398719
0.410321
0.419045
0.424998
0.428453
0.42978
0.429377
0.427628
0.424877
0.421415
0.417486
0.413287
0.408976
0.404681
0.400506
0.396538
0.392846
0.389493
0.386533
0.384014
0.38198
0.380463
0.379471
0.378978
0.378906
0.379114
0.379399
0.379509
0.379162
0.378069
0.375956
0.372571
0.367688
0.361109
0.35267
0.342261
0.329854
0.315541
0.299573
0.282373
0.264522
0.246713
0.229669
0.214044
0.200325
0.188778
0.179427
0.172102
0.166506
0.162297
0.159152
0.156802
0.15504
0.153719
0.152729
0.151993
0.151451
0.151052
0.150781
0.150474
0.201357
0.199717
0.198048
0.196221
0.194228
0.192548
0.192917
0.198135
0.211147
0.235947
0.27823
0.34325
0.431756
0.538677
0.65475
0.768785
0.871787
0.956483
1.01547
1.04481
1.04394
1.01438
0.958681
0.880128
0.783163
0.674144
0.561924
0.457564
0.372353
0.314008
0.282956
0.272694
0.274963
0.284107
0.297192
0.312525
0.328873
0.345237
0.360786
0.374846
0.386923
0.396711
0.404103
0.409172
0.412124
0.413246
0.412858
0.41127
0.408768
0.405601
0.401975
0.398065
0.39401
0.389926
0.385907
0.382032
0.378369
0.374976
0.371907
0.369215
0.366951
0.365158
0.36387
0.363089
0.362772
0.362817
0.363055
0.363263
0.363173
0.362505
0.360983
0.358348
0.354367
0.348831
0.341563
0.33243
0.321374
0.30845
0.293857
0.277965
0.261303
0.24452
0.228311
0.213318
0.200043
0.188776
0.179583
0.17233
0.166755
0.162542
0.159382
0.157013
0.155234
0.153894
0.152886
0.152132
0.151572
0.151155
0.150869
0.150541
0.209643
0.207954
0.206245
0.204488
0.202611
0.200503
0.198178
0.196014
0.194797
0.195744
0.199448
0.206179
0.216859
0.232607
0.253842
0.279491
0.307415
0.336024
0.362416
0.383155
0.395168
0.396552
0.387051
0.368206
0.343151
0.31611
0.291525
0.272905
0.261843
0.257904
0.259541
0.265264
0.274066
0.285202
0.297988
0.311773
0.325927
0.339844
0.352966
0.364809
0.374997
0.383287
0.389585
0.393936
0.396491
0.397472
0.39713
0.395719
0.393472
0.3906
0.387281
0.383665
0.379876
0.376019
0.372179
0.368429
0.36483
0.361439
0.358306
0.355485
0.353028
0.350989
0.349417
0.348338
0.347744
0.347569
0.347685
0.347898
0.347965
0.347619
0.346586
0.344606
0.34144
0.33687
0.330707
0.322798
0.313055
0.301491
0.288257
0.273664
0.258186
0.242425
0.227045
0.212677
0.199834
0.188836
0.179785
0.17259
0.167025
0.162798
0.159616
0.157224
0.155423
0.154063
0.153036
0.152262
0.151683
0.151247
0.150946
0.150594
0.216089
0.214642
0.213188
0.211728
0.210255
0.208749
0.207167
0.205476
0.203719
0.202266
0.201655
0.202041
0.203416
0.205842
0.209418
0.214259
0.220098
0.225899
0.231297
0.23597
0.239585
0.2419
0.242894
0.242833
0.242253
0.241823
0.242177
0.243773
0.246878
0.251619
0.258025
0.266024
0.275446
0.286041
0.297503
0.309475
0.321563
0.333353
0.344437
0.354448
0.363087
0.370156
0.375567
0.379343
0.381593
0.382484
0.382214
0.380986
0.378994
0.376413
0.373395
0.370071
0.366553
0.362932
0.359288
0.355685
0.352182
0.348829
0.345676
0.34277
0.340166
0.337921
0.336092
0.334726
0.333843
0.333414
0.333348
0.333488
0.333621
0.333496
0.332849
0.331423
0.328975
0.325282
0.320144
0.31339
0.304905
0.29466
0.282752
0.269437
0.255131
0.240385
0.225829
0.212082
0.199666
0.188929
0.180013
0.172869
0.167305
0.163057
0.159848
0.15743
0.155605
0.154224
0.153176
0.152382
0.151784
0.15133
0.151012
0.150637
0.220345
0.219107
0.217873
0.216658
0.215473
0.214327
0.213215
0.212125
0.211041
0.209992
0.209102
0.208531
0.208428
0.208888
0.209918
0.211503
0.213501
0.215674
0.217901
0.220121
0.222308
0.224469
0.226645
0.228925
0.231434
0.234325
0.237762
0.241901
0.246871
0.252765
0.259623
0.267429
0.276105
0.285518
0.295476
0.30574
0.316028
0.32603
0.335434
0.343948
0.351331
0.357413
0.362113
0.365435
0.367455
0.368299
0.368119
0.367077
0.365333
0.363032
0.360305
0.357268
0.354017
0.350636
0.347197
0.343759
0.340375
0.337093
0.333956
0.331011
0.328307
0.325901
0.323855
0.322229
0.321065
0.320366
0.320079
0.320086
0.320205
0.32021
0.31985
0.318874
0.317041
0.314126
0.30992
0.304238
0.296938
0.287953
0.277328
0.26526
0.252104
0.238362
0.224625
0.211498
0.199509
0.189032
0.180248
0.17315
0.167584
0.163312
0.160072
0.157626
0.155776
0.154372
0.153304
0.152491
0.151874
0.151402
0.151068
0.150671
0.223085
0.222009
0.220942
0.219901
0.218899
0.217953
0.217076
0.216277
0.215557
0.21492
0.214387
0.214006
0.213838
0.213942
0.214357
0.215109
0.216165
0.217473
0.218984
0.22067
0.222528
0.224572
0.226838
0.229377
0.232253
0.235539
0.239315
0.243657
0.24863
0.254278
0.260622
0.267646
0.275297
0.283479
0.292052
0.300836
0.309616
0.318149
0.326184
0.333485
0.339852
0.34514
0.349273
0.352242
0.354094
0.354922
0.354842
0.353985
0.352478
0.350445
0.347998
0.345236
0.342245
0.339103
0.335872
0.332609
0.329362
0.326175
0.323088
0.320142
0.317383
0.314864
0.312647
0.310799
0.309378
0.308413
0.307888
0.307719
0.307762
0.307816
0.30765
0.307023
0.3057
0.303456
0.30008
0.295375
0.289174
0.281376
0.271976
0.261112
0.249079
0.236325
0.223401
0.210894
0.199334
0.189121
0.180472
0.173421
0.167852
0.163553
0.160282
0.157806
0.15593
0.154505
0.153417
0.152586
0.151951
0.151462
0.151114
0.150695
0.224805
0.223849
0.222905
0.221989
0.221116
0.220303
0.219565
0.218916
0.218367
0.217926
0.217601
0.217406
0.217364
0.217506
0.217861
0.218446
0.219265
0.220311
0.221573
0.223047
0.224736
0.226653
0.228824
0.231281
0.234068
0.23723
0.240816
0.244874
0.249441
0.254546
0.260199
0.266383
0.273056
0.280143
0.287535
0.295088
0.30263
0.309965
0.31689
0.32321
0.328758
0.333409
0.337091
0.339783
0.341514
0.342349
0.342375
0.341696
0.340414
0.338634
0.33645
0.33395
0.331211
0.3283
0.325278
0.322195
0.319096
0.316023
0.313011
0.310098
0.307323
0.304736
0.302396
0.300371
0.298729
0.29752
0.296755
0.296388
0.296309
0.296348
0.296294
0.295923
0.295006
0.293326
0.29067
0.286835
0.281637
0.274939
0.266694
0.25698
0.246034
0.234246
0.222128
0.210241
0.199117
0.189176
0.180669
0.17367
0.168099
0.163774
0.160471
0.157965
0.156064
0.154618
0.153512
0.152664
0.152014
0.151509
0.151147
0.150708
0.225844
0.224972
0.224115
0.223284
0.222496
0.221764
0.221106
0.220536
0.220066
0.219708
0.219471
0.219363
0.219393
0.219575
0.219925
0.22046
0.221191
0.222124
0.223262
0.224608
0.226168
0.227953
0.229982
0.232279
0.234872
0.237796
0.241085
0.24477
0.24888
0.253432
0.25843
0.263863
0.269692
0.275858
0.28227
0.288812
0.295343
0.301704
0.307727
0.313253
0.318138
0.322275
0.325595
0.32807
0.329714
0.330569
0.330701
0.330189
0.329119
0.327574
0.325637
0.323384
0.320884
0.318197
0.315379
0.312477
0.309534
0.306586
0.303669
0.300814
0.298058
0.295444
0.293025
0.29087
0.289049
0.287627
0.286639
0.28607
0.285842
0.285817
0.285809
0.285609
0.285002
0.283779
0.281732
0.278654
0.274351
0.268659
0.261486
0.252859
0.242955
0.232108
0.220783
0.209518
0.198838
0.189179
0.180824
0.173884
0.168317
0.163969
0.160634
0.158099
0.156174
0.154707
0.153585
0.152722
0.152058
0.15154
0.151167
0.150711
0.226434
0.225619
0.224819
0.224045
0.223309
0.222625
0.222009
0.221474
0.221034
0.220699
0.220482
0.220388
0.220425
0.220601
0.220925
0.221408
0.222061
0.222893
0.223913
0.225128
0.226546
0.228179
0.230041
0.232149
0.234524
0.237191
0.240175
0.243499
0.247182
0.251237
0.255667
0.260456
0.265576
0.270973
0.276575
0.282285
0.287987
0.293551
0.298838
0.303714
0.308059
0.311778
0.314803
0.317105
0.318684
0.319565
0.319798
0.319442
0.318565
0.317238
0.31553
0.313508
0.311233
0.30876
0.30614
0.303417
0.300631
0.297817
0.295007
0.29223
0.289519
0.286911
0.284455
0.282213
0.280258
0.278662
0.277478
0.276717
0.276331
0.276211
0.276197
0.276099
0.275716
0.274849
0.273301
0.270867
0.267347
0.262555
0.256365
0.248752
0.239837
0.229898
0.219352
0.208707
0.19848
0.189116
0.180926
0.174056
0.1685
0.164133
0.160769
0.158205
0.156256
0.154771
0.153634
0.152758
0.152082
0.151553
0.15117
0.150699
0.226745
0.225965
0.2252
0.224458
0.223751
0.223091
0.222491
0.221963
0.221521
0.221175
0.220938
0.220817
0.220819
0.220951
0.22122
0.221633
0.222198
0.222925
0.223821
0.224896
0.22616
0.227624
0.229301
0.231204
0.233351
0.23576
0.238448
0.241434
0.24473
0.248345
0.252279
0.256518
0.261035
0.265786
0.270711
0.275729
0.280745
0.285649
0.290329
0.29467
0.298568
0.301939
0.304722
0.30688
0.308407
0.309315
0.309639
0.309423
0.308722
0.307593
0.306096
0.304288
0.302224
0.299953
0.297523
0.294975
0.292345
0.289668
0.286974
0.284289
0.281643
0.279069
0.276609
0.274321
0.272274
0.270544
0.269197
0.268265
0.267725
0.267496
0.267442
0.267391
0.267158
0.266558
0.265405
0.263503
0.260651
0.256651
0.251346
0.244668
0.236682
0.227612
0.217827
0.207799
0.198031
0.188976
0.180965
0.174179
0.168642
0.164262
0.160872
0.158281
0.15631
0.154807
0.153656
0.152769
0.152084
0.151545
0.151155
0.150673
0.226893
0.226133
0.225386
0.224661
0.223967
0.223313
0.222711
0.222173
0.221711
0.221335
0.221057
0.220884
0.220826
0.220889
0.221079
0.221403
0.221867
0.22248
0.223248
0.224181
0.225288
0.226579
0.228066
0.229762
0.23168
0.233835
0.23624
0.238909
0.241851
0.245071
0.248567
0.252326
0.256325
0.260526
0.264877
0.269313
0.273753
0.278107
0.282277
0.286169
0.289691
0.292769
0.295344
0.297379
0.29886
0.299792
0.300195
0.300103
0.299558
0.298609
0.297303
0.295692
0.293824
0.291743
0.289493
0.287113
0.284637
0.282097
0.279523
0.276939
0.274372
0.271851
0.269415
0.267113
0.265011
0.263188
0.261714
0.260637
0.259959
0.259619
0.259505
0.259463
0.259323
0.258913
0.258061
0.256586
0.25429
0.250971
0.24645
0.240621
0.233499
0.225253
0.216204
0.206787
0.197486
0.188752
0.180936
0.174247
0.168741
0.164354
0.160942
0.158326
0.156333
0.154814
0.153651
0.152755
0.152061
0.151516
0.15112
0.150629
0.226956
0.226205
0.225466
0.224747
0.224054
0.223396
0.222783
0.222225
0.221734
0.221318
0.220988
0.220753
0.220622
0.220601
0.220699
0.220921
0.221274
0.221765
0.222401
0.223189
0.224138
0.225257
0.226558
0.22805
0.229745
0.231656
0.233793
0.236167
0.238784
0.241646
0.244751
0.248088
0.251635
0.25536
0.25922
0.263159
0.267109
0.270993
0.274731
0.278239
0.281439
0.284262
0.286654
0.288578
0.290015
0.290963
0.291432
0.291447
0.29104
0.29025
0.289117
0.287686
0.285998
0.284094
0.282014
0.279794
0.277467
0.275063
0.27261
0.270132
0.267653
0.265201
0.262807
0.260517
0.258393
0.25651
0.254943
0.253752
0.252955
0.252514
0.252334
0.252277
0.252187
0.251906
0.251276
0.250132
0.248287
0.245541
0.241701
0.236631
0.230302
0.222831
0.214489
0.205672
0.19684
0.18844
0.180835
0.174257
0.168794
0.164409
0.160979
0.15834
0.156328
0.154793
0.153619
0.152714
0.152014
0.151464
0.151063
0.150566
0.226978
0.22623
0.225494
0.224773
0.224076
0.223408
0.222779
0.222198
0.221673
0.221214
0.22083
0.22053
0.220323
0.220216
0.220217
0.220332
0.220569
0.220934
0.221434
0.222076
0.222868
0.223818
0.224937
0.226232
0.227714
0.229393
0.231278
0.233376
0.235694
0.238232
0.240986
0.243947
0.247096
0.250406
0.253839
0.257347
0.260873
0.264353
0.267715
0.270888
0.273804
0.276401
0.278628
0.280448
0.281839
0.282793
0.283315
0.283419
0.283132
0.282482
0.281504
0.280235
0.278712
0.276973
0.275052
0.272984
0.270799
0.268527
0.266194
0.263824
0.261439
0.259063
0.256727
0.254469
0.252348
0.250433
0.248805
0.247528
0.246636
0.246107
0.245863
0.245781
0.245715
0.245517
0.245043
0.244147
0.242657
0.240382
0.237123
0.232722
0.227111
0.22036
0.212692
0.204459
0.196097
0.18804
0.18066
0.17421
0.168802
0.164427
0.160985
0.158327
0.156295
0.154745
0.15356
0.152648
0.151944
0.151389
0.150986
0.150485
0.226984
0.226236
0.225498
0.224773
0.224069
0.223389
0.222743
0.222136
0.221579
0.221078
0.220642
0.22028
0.22
0.219809
0.219716
0.219727
0.219849
0.22009
0.220456
0.220954
0.221592
0.222378
0.22332
0.224425
0.225704
0.227164
0.228812
0.230655
0.232698
0.23494
0.237378
0.240002
0.242797
0.245739
0.248795
0.251925
0.255079
0.258202
0.261233
0.264109
0.266771
0.269161
0.271235
0.272954
0.274296
0.275247
0.275807
0.275985
0.275799
0.275271
0.27443
0.273308
0.271935
0.270347
0.268574
0.266648
0.264599
0.262454
0.260239
0.257975
0.255686
0.253393
0.251123
0.248912
0.246812
0.24489
0.243224
0.241887
0.240923
0.240323
0.240025
0.239916
0.239857
0.239711
0.239345
0.238628
0.237411
0.235513
0.232739
0.228917
0.223948
0.217859
0.210825
0.203159
0.195261
0.187556
0.180414
0.174105
0.168765
0.16441
0.160961
0.158287
0.156237
0.154674
0.153478
0.15256
0.151851
0.151294
0.150889
0.150385
0.226983
0.226234
0.225492
0.224763
0.22405
0.223359
0.222695
0.222066
0.221477
0.220938
0.220454
0.220035
0.219688
0.21942
0.21924
0.219153
0.219168
0.219291
0.219529
0.219891
0.220382
0.22101
0.221783
0.222709
0.223795
0.225048
0.226475
0.228082
0.229871
0.231842
0.233992
0.236313
0.238789
0.241402
0.244122
0.246914
0.249736
0.25254
0.255274
0.257882
0.260311
0.262512
0.264439
0.26606
0.267347
0.268286
0.268872
0.269109
0.269007
0.268584
0.267864
0.266872
0.265635
0.264184
0.262548
0.260756
0.258835
0.256811
0.254708
0.25255
0.250356
0.248148
0.245951
0.243795
0.24173
0.239817
0.238135
0.23676
0.235743
0.23509
0.234749
0.234616
0.234561
0.234447
0.234154
0.233565
0.232548
0.230945
0.228569
0.22524
0.220837
0.215349
0.208908
0.201783
0.194343
0.186992
0.1801
0.173945
0.168686
0.164361
0.160912
0.158224
0.156159
0.154582
0.153377
0.152452
0.151739
0.151179
0.150773
0.15027
0.22698
0.226228
0.225483
0.224749
0.224028
0.223325
0.222646
0.221995
0.22138
0.220806
0.22028
0.21981
0.219403
0.219066
0.218807
0.218631
0.218548
0.218563
0.218683
0.218917
0.21927
0.219751
0.220366
0.221123
0.222029
0.22309
0.224311
0.225698
0.227253
0.228976
0.230863
0.232907
0.235095
0.23741
0.239827
0.242314
0.244837
0.247353
0.249817
0.252179
0.254394
0.256416
0.258205
0.259726
0.260955
0.261873
0.262473
0.262754
0.262722
0.262389
0.261773
0.260896
0.259782
0.258457
0.256946
0.255277
0.253475
0.251566
0.249572
0.247515
0.245415
0.243293
0.24117
0.239076
0.237054
0.235164
0.233481
0.232083
0.231031
0.230339
0.229967
0.229819
0.229767
0.229679
0.229436
0.228935
0.228065
0.226687
0.224629
0.221713
0.217802
0.212854
0.20696
0.200349
0.193354
0.186358
0.179723
0.173734
0.168567
0.164281
0.16084
0.158143
0.156064
0.154474
0.153259
0.152328
0.151611
0.15105
0.150644
0.15014
0.226975
0.226221
0.225473
0.224733
0.224005
0.223292
0.222598
0.221929
0.22129
0.220686
0.220123
0.219609
0.219149
0.218751
0.218421
0.218167
0.217995
0.217912
0.217926
0.218043
0.21827
0.218615
0.219085
0.219685
0.220424
0.221306
0.222337
0.223522
0.224861
0.226355
0.228002
0.229793
0.231718
0.233762
0.235903
0.238114
0.240364
0.242617
0.244833
0.246969
0.248984
0.250838
0.252492
0.253915
0.255081
0.255972
0.256575
0.256888
0.256911
0.256653
0.256128
0.255353
0.254348
0.253135
0.251739
0.250184
0.248494
0.246692
0.2448
0.24284
0.240831
0.238793
0.236745
0.234716
0.232744
0.230885
0.229212
0.227805
0.22673
0.226012
0.22562
0.225465
0.225421
0.225355
0.225151
0.224714
0.223949
0.222738
0.220931
0.218355
0.214866
0.210397
0.205003
0.198874
0.192309
0.185663
0.17929
0.173477
0.168413
0.164176
0.160748
0.158047
0.155956
0.154354
0.15313
0.152192
0.151472
0.15091
0.150502
0.15
0.226968
0.226212
0.225461
0.224716
0.223981
0.223259
0.222553
0.221868
0.221207
0.220577
0.219983
0.219429
0.218924
0.218472
0.218081
0.217757
0.217506
0.217337
0.217254
0.217266
0.217379
0.2176
0.217937
0.218394
0.218979
0.219697
0.220553
0.221551
0.222692
0.223977
0.225402
0.226962
0.228647
0.230443
0.232332
0.23429
0.236291
0.238302
0.24029
0.242217
0.244045
0.245739
0.247264
0.248589
0.24969
0.250546
0.251144
0.251477
0.251543
0.251348
0.2509
0.250213
0.249304
0.248193
0.246901
0.24545
0.243863
0.242161
0.240366
0.238498
0.236576
0.234619
0.232646