/*--------------------------------*- C++ -*----------------------------------*\
| =========                 |                                                 |
| \\      /  F ield         | OpenFOAM: The Open Source CFD Toolbox           |
|  \\    /   O peration     | Version:  2.1.1                                 |
|   \\  /    A nd           | Web:      www.OpenFOAM.org                      |
|    \\/     M anipulation  |                                                 |
\*---------------------------------------------------------------------------*/
FoamFile
{
    version     2.0;
    format      ascii;
    class       volScalarField;
    location    "0.055";
    object      nut;
}
// * * * * * * * * * * * * * * * * * * * * * * * * * * * * * * * * * * * * * //

dimensions      [0 2 -1 0 0 0 0];

internalField   nonuniform List<scalar> 
6820
(
4.96025e-05
5.47044e-05
5.94497e-05
6.37667e-05
6.76164e-05
7.0977e-05
7.38468e-05
7.62435e-05
7.81994e-05
7.9756e-05
8.09597e-05
8.18581e-05
8.24973e-05
8.29202e-05
8.31654e-05
8.32667e-05
8.32535e-05
8.31504e-05
8.29782e-05
8.27537e-05
8.24909e-05
8.22008e-05
8.18921e-05
8.15717e-05
8.12448e-05
8.0915e-05
8.05848e-05
8.02564e-05
7.99269e-05
7.96121e-05
7.9232e-05
7.91623e-05
7.75548e-05
0.000540297
0.000304961
0.00021994
0.000171533
0.000140491
0.000119626
0.000105099
9.47149e-05
8.71504e-05
8.15691e-05
7.74208e-05
7.43318e-05
7.20413e-05
7.03632e-05
6.91623e-05
6.8338e-05
6.7815e-05
6.75354e-05
6.74545e-05
6.75372e-05
6.77555e-05
6.80866e-05
6.85119e-05
6.90162e-05
6.95863e-05
7.02111e-05
7.0881e-05
7.15869e-05
7.23223e-05
7.30743e-05
7.38471e-05
7.46048e-05
7.53173e-05
0.00105857
0.000836096
0.000679253
0.000569632
0.000490074
0.00043014
0.000383727
0.000346881
0.00031698
0.000292262
0.000271512
0.000253869
0.000238703
0.000225549
0.000214049
0.000203928
0.000194968
0.000186995
0.000179869
0.000173474
0.000167714
0.00016251
0.000157794
0.000153509
0.000149604
0.000146038
0.000142771
0.00013977
0.000137003
0.000134448
0.00013204
0.000129874
0.000127442
0.00115953
0.00109653
0.00101168
0.000926437
0.000849839
0.000783659
0.000727118
0.000678803
0.0006373
0.000601385
0.000570055
0.000542507
0.000518101
0.000496327
0.000476778
0.000459125
0.000443103
0.000428493
0.000415116
0.000402821
0.000391483
0.000380995
0.000371266
0.000362219
0.000353788
0.000345916
0.000338556
0.000331667
0.000325218
0.000319189
0.000313568
0.000308374
0.000303597
0.00116966
0.00115863
0.00113363
0.00109757
0.00105569
0.00101221
0.000969681
0.000929425
0.000891985
0.000857485
0.000825835
0.000796844
0.000770284
0.000745923
0.00072354
0.000702929
0.000683909
0.000666313
0.000649999
0.000634835
0.00062071
0.000607521
0.00059518
0.000583606
0.000572729
0.000562484
0.000552815
0.000543671
0.000535006
0.000526782
0.000518969
0.000511542
0.000504506
0.00117006
0.00116839
0.00116306
0.00115261
0.00113713
0.00111767
0.00109553
0.0010719
0.0010477
0.00102357
0.000999959
0.000977131
0.000955244
0.000934376
0.000914554
0.000895769
0.000877993
0.000861185
0.000845293
0.000830267
0.00081605
0.000802588
0.00078983
0.000777723
0.000766218
0.000755267
0.000744823
0.000734843
0.000725282
0.000716099
0.000707252
0.000698706
0.000690424
0.00116996
0.00116938
0.00116821
0.00116569
0.00116123
0.00115458
0.00114583
0.00113527
0.00112327
0.00111021
0.00109645
0.00108228
0.00106795
0.00105362
0.00103945
0.00102554
0.00101194
0.000998726
0.000985913
0.000973522
0.000961559
0.000950023
0.000938906
0.000928195
0.000917873
0.000907921
0.000898318
0.00088904
0.000880061
0.000871354
0.000862891
0.000854645
0.000846587
0.00116994
0.0011694
0.00116883
0.00116803
0.00116674
0.00116472
0.0011618
0.0011579
0.00115304
0.00114727
0.00114072
0.00113351
0.00112577
0.00111763
0.00110919
0.00110057
0.00109183
0.00108306
0.0010743
0.0010656
0.001057
0.00104852
0.00104018
0.001032
0.00102399
0.00101614
0.00100846
0.00100095
0.000993594
0.000986387
0.000979317
0.000972372
0.000965542
0.00116994
0.00116939
0.00116886
0.00116832
0.0011677
0.00116692
0.00116588
0.00116449
0.00116268
0.00116042
0.00115771
0.00115454
0.00115095
0.00114697
0.00114267
0.00113807
0.00113324
0.00112821
0.00112303
0.00111773
0.00111235
0.00110691
0.00110145
0.00109598
0.00109051
0.00108507
0.00107966
0.00107428
0.00106895
0.00106366
0.00105842
0.00105322
0.00104807
0.00116994
0.00116938
0.00116885
0.00116833
0.00116782
0.00116729
0.00116671
0.00116605
0.00116526
0.00116432
0.00116318
0.00116184
0.00116028
0.00115851
0.00115651
0.00115431
0.00115192
0.00114935
0.00114662
0.00114375
0.00114075
0.00113765
0.00113447
0.0011312
0.00112788
0.00112451
0.0011211
0.00111766
0.0011142
0.00111072
0.00110723
0.00110374
0.00110025
0.00116994
0.00116938
0.00116884
0.00116832
0.00116782
0.00116732
0.00116683
0.00116634
0.00116582
0.00116526
0.00116466
0.00116399
0.00116323
0.00116239
0.00116144
0.0011604
0.00115924
0.00115799
0.00115663
0.00115518
0.00115363
0.001152
0.00115028
0.0011485
0.00114665
0.00114474
0.00114278
0.00114077
0.00113872
0.00113664
0.00113453
0.0011324
0.00113024
0.00116994
0.00116938
0.00116884
0.00116832
0.00116781
0.00116732
0.00116684
0.00116637
0.00116591
0.00116545
0.00116498
0.00116451
0.00116401
0.0011635
0.00116295
0.00116236
0.00116174
0.00116107
0.00116035
0.00115959
0.00115877
0.00115791
0.00115701
0.00115605
0.00115506
0.00115402
0.00115295
0.00115184
0.00115069
0.00114952
0.00114833
0.00114711
0.00114588
0.00116994
0.00116938
0.00116884
0.00116832
0.00116781
0.00116732
0.00116684
0.00116637
0.00116591
0.00116547
0.00116504
0.00116461
0.00116418
0.00116376
0.00116334
0.0011629
0.00116247
0.00116202
0.00116155
0.00116107
0.00116058
0.00116007
0.00115953
0.00115898
0.00115841
0.00115782
0.00115721
0.00115658
0.00115593
0.00115528
0.0011546
0.00115392
0.00115324
0.00116994
0.00116938
0.00116884
0.00116832
0.00116781
0.00116731
0.00116683
0.00116636
0.00116591
0.00116547
0.00116504
0.00116462
0.00116421
0.00116381
0.00116341
0.00116303
0.00116264
0.00116226
0.00116189
0.00116151
0.00116113
0.00116075
0.00116037
0.00115998
0.00115959
0.00115919
0.00115879
0.00115839
0.00115799
0.00115758
0.00115717
0.00115676
0.00115636
0.00116994
0.00116938
0.00116884
0.00116832
0.00116781
0.00116731
0.00116683
0.00116636
0.00116591
0.00116546
0.00116503
0.00116461
0.00116421
0.00116381
0.00116342
0.00116304
0.00116268
0.00116231
0.00116196
0.00116161
0.00116127
0.00116093
0.0011606
0.00116028
0.00115995
0.00115963
0.00115932
0.00115901
0.0011587
0.0011584
0.00115811
0.00115782
0.00115754
0.00116994
0.00116938
0.00116884
0.00116831
0.0011678
0.00116731
0.00116683
0.00116636
0.0011659
0.00116546
0.00116503
0.00116461
0.0011642
0.00116381
0.00116342
0.00116304
0.00116268
0.00116232
0.00116197
0.00116163
0.0011613
0.00116098
0.00116066
0.00116035
0.00116005
0.00115976
0.00115947
0.00115919
0.00115892
0.00115866
0.00115841
0.00115817
0.00115795
0.00116994
0.00116938
0.00116884
0.00116831
0.0011678
0.00116731
0.00116683
0.00116636
0.0011659
0.00116546
0.00116503
0.00116461
0.0011642
0.0011638
0.00116341
0.00116304
0.00116267
0.00116232
0.00116197
0.00116163
0.0011613
0.00116098
0.00116067
0.00116037
0.00116007
0.00115979
0.00115951
0.00115924
0.00115898
0.00115874
0.0011585
0.00115828
0.00115807
0.00116994
0.00116938
0.00116884
0.00116831
0.0011678
0.00116731
0.00116682
0.00116635
0.0011659
0.00116545
0.00116502
0.0011646
0.00116419
0.0011638
0.00116341
0.00116303
0.00116267
0.00116231
0.00116196
0.00116163
0.0011613
0.00116098
0.00116067
0.00116037
0.00116007
0.00115979
0.00115952
0.00115925
0.001159
0.00115875
0.00115852
0.0011583
0.00115809
0.00116994
0.00116938
0.00116884
0.00116831
0.0011678
0.00116731
0.00116682
0.00116635
0.0011659
0.00116545
0.00116502
0.0011646
0.00116419
0.00116379
0.00116341
0.00116303
0.00116266
0.00116231
0.00116196
0.00116162
0.00116129
0.00116097
0.00116066
0.00116036
0.00116007
0.00115979
0.00115951
0.00115925
0.001159
0.00115875
0.00115852
0.0011583
0.0011581
0.00116994
0.00116938
0.00116884
0.00116831
0.0011678
0.0011673
0.00116682
0.00116635
0.00116589
0.00116545
0.00116502
0.0011646
0.00116419
0.00116379
0.0011634
0.00116303
0.00116266
0.0011623
0.00116196
0.00116162
0.00116129
0.00116097
0.00116066
0.00116036
0.00116007
0.00115979
0.00115951
0.00115925
0.00115899
0.00115875
0.00115852
0.0011583
0.00115809
0.00116994
0.00116938
0.00116884
0.00116831
0.0011678
0.0011673
0.00116682
0.00116635
0.00116589
0.00116545
0.00116502
0.0011646
0.00116419
0.00116379
0.0011634
0.00116302
0.00116266
0.0011623
0.00116195
0.00116161
0.00116129
0.00116097
0.00116066
0.00116036
0.00116006
0.00115978
0.00115951
0.00115924
0.00115899
0.00115875
0.00115851
0.00115829
0.00115808
0.00116994
0.00116938
0.00116884
0.00116831
0.0011678
0.0011673
0.00116682
0.00116635
0.00116589
0.00116545
0.00116501
0.00116459
0.00116418
0.00116379
0.0011634
0.00116302
0.00116265
0.0011623
0.00116195
0.00116161
0.00116128
0.00116096
0.00116065
0.00116035
0.00116006
0.00115978
0.0011595
0.00115924
0.00115898
0.00115874
0.0011585
0.00115828
0.00115807
0.00116994
0.00116938
0.00116884
0.00116831
0.0011678
0.0011673
0.00116682
0.00116635
0.00116589
0.00116545
0.00116501
0.00116459
0.00116418
0.00116378
0.0011634
0.00116302
0.00116265
0.00116229
0.00116195
0.00116161
0.00116128
0.00116096
0.00116065
0.00116035
0.00116006
0.00115977
0.0011595
0.00115923
0.00115898
0.00115873
0.00115849
0.00115827
0.00115805
0.00116994
0.00116938
0.00116884
0.00116831
0.0011678
0.0011673
0.00116682
0.00116635
0.00116589
0.00116544
0.00116501
0.00116459
0.00116418
0.00116378
0.00116339
0.00116302
0.00116265
0.00116229
0.00116194
0.0011616
0.00116128
0.00116096
0.00116065
0.00116034
0.00116005
0.00115977
0.00115949
0.00115923
0.00115897
0.00115872
0.00115848
0.00115825
0.00115803
0.00116994
0.00116938
0.00116884
0.00116831
0.0011678
0.0011673
0.00116682
0.00116635
0.00116589
0.00116544
0.00116501
0.00116459
0.00116418
0.00116378
0.00116339
0.00116301
0.00116265
0.00116229
0.00116194
0.0011616
0.00116127
0.00116095
0.00116064
0.00116034
0.00116004
0.00115976
0.00115948
0.00115922
0.00115896
0.00115871
0.00115847
0.00115824
0.00115802
0.00116994
0.00116938
0.00116884
0.00116831
0.0011678
0.0011673
0.00116682
0.00116635
0.00116589
0.00116544
0.00116501
0.00116459
0.00116418
0.00116378
0.00116339
0.00116301
0.00116264
0.00116229
0.00116194
0.0011616
0.00116127
0.00116095
0.00116064
0.00116033
0.00116004
0.00115975
0.00115948
0.00115921
0.00115895
0.0011587
0.00115845
0.00115822
0.001158
0.00116994
0.00116938
0.00116884
0.00116831
0.0011678
0.0011673
0.00116682
0.00116635
0.00116589
0.00116544
0.00116501
0.00116459
0.00116418
0.00116378
0.00116339
0.00116301
0.00116264
0.00116228
0.00116193
0.0011616
0.00116127
0.00116094
0.00116063
0.00116033
0.00116003
0.00115975
0.00115947
0.0011592
0.00115894
0.00115868
0.00115844
0.0011582
0.00115798
0.00116994
0.00116938
0.00116884
0.00116831
0.0011678
0.0011673
0.00116682
0.00116635
0.00116589
0.00116544
0.00116501
0.00116459
0.00116418
0.00116378
0.00116339
0.00116301
0.00116264
0.00116228
0.00116193
0.00116159
0.00116126
0.00116094
0.00116063
0.00116032
0.00116003
0.00115974
0.00115946
0.00115919
0.00115893
0.00115867
0.00115843
0.00115819
0.00115796
0.00116994
0.00116938
0.00116884
0.00116831
0.0011678
0.0011673
0.00116682
0.00116635
0.00116589
0.00116544
0.00116501
0.00116459
0.00116418
0.00116378
0.00116339
0.00116301
0.00116264
0.00116228
0.00116193
0.00116159
0.00116126
0.00116094
0.00116062
0.00116032
0.00116002
0.00115973
0.00115945
0.00115918
0.00115892
0.00115866
0.00115841
0.00115817
0.00115794
0.00116994
0.00116938
0.00116884
0.00116831
0.0011678
0.0011673
0.00116682
0.00116635
0.00116589
0.00116544
0.00116501
0.00116459
0.00116418
0.00116378
0.00116339
0.00116301
0.00116264
0.00116228
0.00116193
0.00116159
0.00116126
0.00116094
0.00116062
0.00116032
0.00116002
0.00115973
0.00115945
0.00115917
0.00115891
0.00115865
0.0011584
0.00115815
0.00115792
0.00116994
0.00116938
0.00116884
0.00116831
0.0011678
0.0011673
0.00116682
0.00116635
0.00116589
0.00116544
0.00116501
0.00116459
0.00116418
0.00116378
0.00116339
0.00116301
0.00116264
0.00116228
0.00116193
0.00116159
0.00116126
0.00116094
0.00116062
0.00116031
0.00116001
0.00115972
0.00115944
0.00115916
0.0011589
0.00115863
0.00115838
0.00115813
0.0011579
0.00116994
0.00116938
0.00116884
0.00116831
0.0011678
0.00116731
0.00116682
0.00116635
0.0011659
0.00116545
0.00116502
0.0011646
0.00116419
0.00116379
0.0011634
0.00116302
0.00116265
0.00116229
0.00116194
0.00116159
0.00116126
0.00116093
0.00116061
0.0011603
0.00116
0.0011597
0.00115941
0.00115913
0.00115885
0.00115858
0.00115832
0.00115807
0.00115782
0.00116994
0.00116938
0.00116884
0.00116831
0.0011678
0.00116731
0.00116683
0.00116636
0.0011659
0.00116546
0.00116503
0.0011646
0.00116419
0.00116379
0.0011634
0.00116302
0.00116264
0.00116227
0.00116191
0.00116156
0.00116121
0.00116087
0.00116053
0.0011602
0.00115987
0.00115955
0.00115923
0.00115892
0.00115861
0.00115831
0.00115801
0.00115771
0.00115742
0.00116994
0.00116938
0.00116884
0.00116833
0.00116782
0.00116733
0.00116685
0.00116639
0.00116593
0.00116548
0.00116503
0.0011646
0.00116416
0.00116374
0.00116331
0.00116289
0.00116246
0.00116204
0.00116162
0.0011612
0.00116077
0.00116034
0.00115991
0.00115948
0.00115904
0.0011586
0.00115816
0.00115771
0.00115726
0.00115681
0.00115636
0.0011559
0.00115544
0.00116994
0.00116939
0.00116886
0.00116835
0.00116784
0.00116733
0.00116683
0.00116632
0.00116581
0.00116528
0.00116473
0.00116417
0.00116358
0.00116297
0.00116233
0.00116166
0.00116097
0.00116024
0.00115949
0.00115871
0.0011579
0.00115707
0.00115621
0.00115533
0.00115443
0.00115351
0.00115257
0.00115161
0.00115064
0.00114965
0.00114866
0.00114765
0.00114664
0.00116995
0.0011694
0.00116886
0.00116828
0.00116765
0.00116694
0.00116612
0.00116519
0.00116413
0.00116294
0.00116162
0.00116016
0.00115858
0.00115688
0.00115506
0.00115313
0.00115111
0.001149
0.00114681
0.00114455
0.00114222
0.00113985
0.00113743
0.00113497
0.00113249
0.00112999
0.00112747
0.00112494
0.00112241
0.00111987
0.00111735
0.00111484
0.00111234
0.00116996
0.00116916
0.00116786
0.00116595
0.00116343
0.00116029
0.00115655
0.00115225
0.00114745
0.0011422
0.00113656
0.00113061
0.0011244
0.00111799
0.00111143
0.00110477
0.00109805
0.0010913
0.00108456
0.00107784
0.00107118
0.00106459
0.00105809
0.00105169
0.0010454
0.00103923
0.00103318
0.00102727
0.00102149
0.00101586
0.00101037
0.00100502
0.000999815
0.00116831
0.00115867
0.001145
0.00112842
0.00110967
0.00108944
0.00106839
0.00104704
0.00102576
0.00100484
0.000984453
0.000964722
0.00094572
0.000927482
0.000910022
0.000893335
0.000877405
0.00086221
0.00084772
0.000833907
0.000820737
0.00080818
0.000796203
0.000784775
0.000773868
0.000763453
0.000753503
0.000743993
0.000734897
0.000726193
0.00071786
0.000709876
0.000702221
0.00107567
0.000936198
0.000835618
0.000756926
0.000692157
0.000638429
0.000593537
0.000555653
0.000523339
0.00049549
0.000471259
0.000449994
0.000431186
0.000414439
0.000399434
0.000385919
0.000373684
0.000362562
0.000352409
0.000343109
0.000334561
0.00032668
0.000319394
0.00031264
0.000306364
0.000300519
0.000295063
0.000289959
0.000285177
0.000280687
0.000276464
0.000272487
0.000268733
0.000142979
0.000146644
0.000150174
0.000153551
0.000156773
0.000159846
0.000162776
0.000165567
0.000168225
0.000170755
0.000173162
0.00017545
0.000177625
0.000179692
0.000181655
0.000183518
0.000185286
0.000186963
0.000188554
0.000190063
0.000191493
0.000192848
0.000194132
0.000195349
0.0001965
0.000197591
0.000198624
0.000199601
0.000200525
0.000201399
0.000202226
0.000203008
0.000203747
9.02553e-05
0.000113658
0.000149515
0.000198672
0.000258483
0.000323745
0.000389449
0.000455227
0.000524973
0.000602436
0.000687539
0.000776709
0.000865874
0.00095252
0.0010356
0.0011146
0.00118884
0.0012569
0.0013176
0.00136961
0.00141146
0.00144147
0.00145771
0.00145804
0.0014402
0.00140188
0.00134081
0.00125497
0.00114311
0.00100619
0.000850614
0.000694116
0.000573606
0.000551089
0.000699164
0.000975037
0.00120262
0.00135466
0.00147375
0.00157633
0.00166451
0.001738
0.00179715
0.00184324
0.00187811
0.00190377
0.00192216
0.00193501
0.00194382
0.00194982
0.00195402
0.00195723
0.00196015
0.00196331
0.00196718
0.00197215
0.00197852
0.00198655
0.00199643
0.00200831
0.00202226
0.00203821
0.00205595
0.00207498
0.00209449
0.00211335
0.00213014
0.00214328
0.00215113
0.00215217
0.00214502
0.00212855
0.00210193
0.00206466
0.00201674
0.00195868
0.00189164
0.0018174
0.00173836
0.00165735
0.00157748
0.00150176
0.00143274
0.00137218
0.00132078
0.00127834
0.001244
0.00121669
0.00119533
0.00117894
0.00116659
0.00115741
0.00115064
0.00114567
0.00114202
0.00113935
0.0011374
0.00113599
0.00113502
0.00113409
7.6621e-05
7.89656e-05
8.33719e-05
9.24408e-05
0.000110086
0.000140439
0.000185928
0.000245673
0.000315394
0.00038927
0.000462806
0.000534431
0.000604758
0.000674651
0.000743866
0.000811047
0.000874323
0.000932019
0.000983008
0.00102639
0.00106107
0.00108549
0.00109764
0.00109526
0.00107599
0.00103758
0.00097824
0.000897405
0.000797173
0.000685028
0.000578058
0.00050802
0.000524803
0.000676421
0.000915001
0.00111908
0.00126794
0.00138828
0.00149264
0.00158341
0.00166062
0.00172449
0.00177579
0.00181584
0.00184624
0.00186869
0.00188482
0.00189611
0.00190382
0.001909
0.00191251
0.00191509
0.00191733
0.00191972
0.00192268
0.00192658
0.00193174
0.00193842
0.00194688
0.00195732
0.0019699
0.00198466
0.0020015
0.00202002
0.0020395
0.00205885
0.00207666
0.00209132
0.00210115
0.00210456
0.00210016
0.00208677
0.00206354
0.00202993
0.00198586
0.00193175
0.00186864
0.00179821
0.00172273
0.00164493
0.00156784
0.00149445
0.00142731
0.00136823
0.00131802
0.00127655
0.001243
0.0012163
0.00119539
0.00117928
0.00116708
0.00115798
0.00115125
0.0011463
0.00114266
0.00114
0.00113807
0.00113667
0.0011357
0.00113477
0.000125105
0.000123421
0.000122631
0.000121489
0.000117387
0.000109723
0.000104669
0.000110342
0.000131004
0.000167617
0.000218723
0.000280662
0.000348305
0.000416459
0.000481214
0.000540488
0.000593393
0.000639893
0.000680363
0.000714392
0.000740715
0.000757586
0.000763125
0.000755551
0.000733416
0.000696023
0.000644227
0.000581797
0.000517489
0.000467881
0.000460692
0.000533055
0.000698643
0.000897757
0.00106694
0.00120316
0.00131907
0.00142084
0.00151029
0.00158788
0.00165378
0.00170839
0.00175246
0.00178705
0.00181349
0.00183316
0.00184738
0.00185738
0.00186421
0.00186876
0.00187178
0.00187388
0.0018756
0.00187737
0.00187957
0.00188254
0.00188658
0.00189198
0.001899
0.0019079
0.00191891
0.00193219
0.00194774
0.00196531
0.00198431
0.00200372
0.0020222
0.00203811
0.00204976
0.0020555
0.00205388
0.00204371
0.00202408
0.00199439
0.00195448
0.00190466
0.00184584
0.00177954
0.00170789
0.00163352
0.00155936
0.00148834
0.00142306
0.00136538
0.00131622
0.00127554
0.00124261
0.00121638
0.00119579
0.00117986
0.00116773
0.00115864
0.00115189
0.00114692
0.00114327
0.0011406
0.00113865
0.00113724
0.00113626
0.00113532
0.000298572
0.000293997
0.000292309
0.000296972
0.000313716
0.000346957
0.000377868
0.00034955
0.000265316
0.000194038
0.00015875
0.000152112
0.000165349
0.000192494
0.000229067
0.000271013
0.000314681
0.00035663
0.000393689
0.000423711
0.000445506
0.000458488
0.000462424
0.000457494
0.000444702
0.000426644
0.000408669
0.000400497
0.000417938
0.00048158
0.000602434
0.000758307
0.000911068
0.00104575
0.00116413
0.0012695
0.00136382
0.0014481
0.00152272
0.00158778
0.00164334
0.00168967
0.00172734
0.00175717
0.00178018
0.00179746
0.00181008
0.00181903
0.00182518
0.00182928
0.00183195
0.00183373
0.00183508
0.00183638
0.00183797
0.00184016
0.00184323
0.00184745
0.0018531
0.00186047
0.00186983
0.00188142
0.00189539
0.00191163
0.0019297
0.00194873
0.00196744
0.00198426
0.00199745
0.00200535
0.00200644
0.0019995
0.00198354
0.00195794
0.0019224
0.00187713
0.00182286
0.00176095
0.00169339
0.00162265
0.00155157
0.00148304
0.00141964
0.00136333
0.00131513
0.00127514
0.0012427
0.00121683
0.00119645
0.00118063
0.00116852
0.00115938
0.00115258
0.00114755
0.00114385
0.00114114
0.00113917
0.00113773
0.00113673
0.00113576
0.000496767
0.00048836
0.000480691
0.000475028
0.000474755
0.000487688
0.000528458
0.000621146
0.0007892
0.000928589
0.000828449
0.000602554
0.00042395
0.000318252
0.000263332
0.00023939
0.000233712
0.000238395
0.000249304
0.000263552
0.000279063
0.00029466
0.000310339
0.0003276
0.000349852
0.000382703
0.000433422
0.000508059
0.000606067
0.000718242
0.000833478
0.000945343
0.00105098
0.00114906
0.00123936
0.00132226
0.00139809
0.00146688
0.00152846
0.00158262
0.00162925
0.00166847
0.00170066
0.00172643
0.00174654
0.00176183
0.00177314
0.00178126
0.00178691
0.00179069
0.00179315
0.00179475
0.00179586
0.00179683
0.00179796
0.00179953
0.00180178
0.00180498
0.00180939
0.00181529
0.00182301
0.00183284
0.00184504
0.00185964
0.00187638
0.00189458
0.00191309
0.00193039
0.00194479
0.00195457
0.00195821
0.0019544
0.00194212
0.00192066
0.00188963
0.00184908
0.00179958
0.00174231
0.00167906
0.00161216
0.00154432
0.00147837
0.00141691
0.00136196
0.00131467
0.00127526
0.00124322
0.00121759
0.00119735
0.00118156
0.00116941
0.0011602
0.00115331
0.00114819
0.00114442
0.00114166
0.00113963
0.00113816
0.00113712
0.00113611
0.000681057
0.000670456
0.000659748
0.000648919
0.000638279
0.000629207
0.000625577
0.00063509
0.000670561
0.000742937
0.000846399
0.000952273
0.00100008
0.000941062
0.000808339
0.000667547
0.000559752
0.000496056
0.000461056
0.000445357
0.000444122
0.00045502
0.000477182
0.000510572
0.000555398
0.000611467
0.000677667
0.000751888
0.000831398
0.000913315
0.000995078
0.00107486
0.00115165
0.00122494
0.00129443
0.00135984
0.00142081
0.00147688
0.00152762
0.00157268
0.00161184
0.00164512
0.00167275
0.00169513
0.00171284
0.0017265
0.00173676
0.00174425
0.00174955
0.00175315
0.00175552
0.00175702
0.00175802
0.00175879
0.0017596
0.00176069
0.00176229
0.00176463
0.00176795
0.00177254
0.0017787
0.0017868
0.00179713
0.0018099
0.00182502
0.00184199
0.00185984
0.00187718
0.00189238
0.00190372
0.00190962
0.00190876
0.00190006
0.00188272
0.00185624
0.00182052
0.00177595
0.00172349
0.00166473
0.00160185
0.00153742
0.00147417
0.00141472
0.00136114
0.00131473
0.00127584
0.0012441
0.00121863
0.00119845
0.00118264
0.00117041
0.00116109
0.00115407
0.00114885
0.00114499
0.00114215
0.00114006
0.00113853
0.00113745
0.00113639
0.000837376
0.000826825
0.000816033
0.000804912
0.000793381
0.00078143
0.000769427
0.000758763
0.000752859
0.000756986
0.000775372
0.000808921
0.000852052
0.000890276
0.000906601
0.000889947
0.000851262
0.000810178
0.000776266
0.000753224
0.000741977
0.000742316
0.000753594
0.000774966
0.000805421
0.000843772
0.000888673
0.000938693
0.000992421
0.00104855
0.00110596
0.00116368
0.00122096
0.00127714
0.00133161
0.0013838
0.00143312
0.00147901
0.00152097
0.0015586
0.00159166
0.00162008
0.00164397
0.0016636
0.00167936
0.00169172
0.00170117
0.0017082
0.00171327
0.00171679
0.00171915
0.00172066
0.00172163
0.00172229
0.0017229
0.00172365
0.00172476
0.00172641
0.00172884
0.00173228
0.00173705
0.00174351
0.00175202
0.00176288
0.00177616
0.00179159
0.00180839
0.00182534
0.00184089
0.00185337
0.0018612
0.00186301
0.00185767
0.00184432
0.00182234
0.00179147
0.0017519
0.00170437
0.00165027
0.00159157
0.00153068
0.00147026
0.0014129
0.00136074
0.00131519
0.00127678
0.00124527
0.00121988
0.0011997
0.00118382
0.00117148
0.00116202
0.00115487
0.00114952
0.00114555
0.00114262
0.00114045
0.00113886
0.00113772
0.0011366
0.000957679
0.000948617
0.000939315
0.000929729
0.000919822
0.000909564
0.000898946
0.000888062
0.000877387
0.000868248
0.000862779
0.000863115
0.000870272
0.000883057
0.000898037
0.000909989
0.000916447
0.000917781
0.000916217
0.000914529
0.000915142
0.000919793
0.000929522
0.000944789
0.000965607
0.000991667
0.00102244
0.00105726
0.0010954
0.00113612
0.00117871
0.00122248
0.00126676
0.00131093
0.00135437
0.0013965
0.00143674
0.00147456
0.0015095
0.00154117
0.00156933
0.00159384
0.00161473
0.00163216
0.00164638
0.00165772
0.00166656
0.00167327
0.00167822
0.00168174
0.00168416
0.00168575
0.00168675
0.00168741
0.0016879
0.00168844
0.00168918
0.00169031
0.00169201
0.00169451
0.00169809
0.00170308
0.00170988
0.00171887
0.00173024
0.00174392
0.00175935
0.00177551
0.00179098
0.00180417
0.00181351
0.00181762
0.00181534
0.00180574
0.0017881
0.001762
0.00172742
0.00168489
0.00163554
0.00158114
0.00152393
0.00146646
0.00141129
0.0013606
0.00131593
0.00127798
0.00124664
0.00122129
0.00120106
0.00118508
0.0011726
0.00116299
0.00115568
0.00115019
0.0011461
0.00114306
0.00114081
0.00113915
0.00113795
0.00113676
0.0010421
0.00103517
0.00102804
0.00102068
0.0010131
0.00100531
0.000997336
0.000989204
0.00098099
0.00097291
0.000965488
0.000959584
0.000956199
0.00095605
0.000959195
0.000964806
0.00097174
0.000979155
0.000986711
0.000994581
0.00100329
0.00101352
0.00102592
0.00104098
0.00105902
0.00108015
0.00110431
0.00113128
0.00116075
0.00119233
0.00122558
0.00126005
0.00129524
0.00133066
0.00136581
0.00140021
0.00143338
0.00146487
0.00149427
0.00152124
0.00154551
0.00156692
0.00158543
0.00160112
0.00161413
0.0016247
0.00163309
0.0016396
0.00164451
0.0016481
0.00165063
0.00165235
0.00165345
0.00165415
0.00165462
0.00165503
0.00165553
0.00165627
0.00165742
0.00165917
0.00166176
0.0016655
0.00167078
0.00167802
0.00168752
0.00169936
0.00171321
0.00172826
0.00174326
0.00175672
0.00176713
0.00177311
0.0017735
0.00176731
0.00175375
0.00173224
0.00170256
0.001665
0.00162045
0.00157042
0.00151699
0.00146259
0.0014097
0.00136056
0.00131682
0.00127932
0.00124814
0.00122279
0.00120247
0.00118636
0.00117373
0.00116396
0.00115649
0.00115086
0.00114663
0.00114349
0.00114115
0.0011394
0.00113814
0.00113687
0.00109617
0.0010914
0.00108647
0.00108138
0.00107614
0.00107079
0.00106536
0.00105989
0.00105445
0.00104911
0.00104402
0.00103942
0.00103569
0.00103331
0.00103268
0.00103398
0.00103715
0.00104204
0.00104847
0.00105631
0.00106554
0.00107624
0.00108856
0.00110266
0.00111868
0.0011367
0.00115674
0.00117871
0.00120249
0.00122787
0.00125458
0.00128234
0.00131082
0.00133966
0.0013685
0.00139697
0.00142468
0.00145125
0.00147633
0.00149961
0.00152083
0.0015398
0.00155645
0.00157077
0.00158285
0.00159284
0.00160092
0.00160732
0.00161225
0.00161595
0.00161864
0.00162051
0.00162175
0.00162255
0.00162305
0.00162341
0.00162376
0.00162424
0.00162498
0.00162615
0.00162796
0.00163068
0.00163466
0.00164034
0.0016481
0.00165814
0.00167032
0.00168403
0.00169823
0.00171157
0.0017226
0.00173
0.0017326
0.00172941
0.00171957
0.00170237
0.0016774
0.00164471
0.00160491
0.00155929
0.00150972
0.00145848
0.00140798
0.00136048
0.00131771
0.0012807
0.00124969
0.00122431
0.00120388
0.00118763
0.00117484
0.0011649
0.00115727
0.00115149
0.00114714
0.00114388
0.00114144
0.00113962
0.00113829
0.00113694
0.00112771
0.00112473
0.00112164
0.00111845
0.00111518
0.00111187
0.00110854
0.00110524
0.00110203
0.00109897
0.00109614
0.00109363
0.0010916
0.00109022
0.00108974
0.00109036
0.00109226
0.00109554
0.00110025
0.00110641
0.00111401
0.00112306
0.00113358
0.00114559
0.00115911
0.00117417
0.00119073
0.00120876
0.00122818
0.00124886
0.00127065
0.00129335
0.00131676
0.00134062
0.00136466
0.00138859
0.0014121
0.00143489
0.00145663
0.00147704
0.00149588
0.00151294
0.00152813
0.00154139
0.00155274
0.00156229
0.00157016
0.0015765
0.00158151
0.00158535
0.00158821
0.00159026
0.00159168
0.0015926
0.00159318
0.00159355
0.00159383
0.00159414
0.0015946
0.00159535
0.00159656
0.00159846
0.00160139
0.00160574
0.00161194
0.0016203
0.00163082
0.0016431
0.00165629
0.00166917
0.00168043
0.00168878
0.00169311
0.00169245
0.00168588
0.00167262
0.00165208
0.00162405
0.00158891
0.00154768
0.001502
0.00145399
0.00140597
0.0013602
0.0013185
0.00128202
0.00125119
0.00122579
0.00120525
0.00118884
0.00117589
0.00116579
0.001158
0.00115207
0.00114759
0.00114422
0.00114169
0.00113979
0.0011384
0.00113696
0.00114442
0.00114271
0.00114093
0.0011391
0.00113726
0.00113542
0.00113361
0.00113189
0.00113028
0.00112885
0.00112765
0.00112674
0.00112619
0.00112609
0.00112656
0.00112773
0.00112972
0.00113265
0.00113662
0.0011417
0.00114794
0.00115539
0.00116407
0.00117399
0.00118516
0.00119758
0.00121123
0.00122608
0.00124208
0.00125914
0.00127718
0.00129606
0.00131564
0.00133574
0.00135615
0.00137664
0.00139696
0.00141684
0.001436
0.00145419
0.00147116
0.00148672
0.00150075
0.00151317
0.00152396
0.00153317
0.00154089
0.00154723
0.00155232
0.00155632
0.00155936
0.00156162
0.00156321
0.00156429
0.00156498
0.00156541
0.00156567
0.00156589
0.00156617
0.00156662
0.00156739
0.00156868
0.00157076
0.00157403
0.00157891
0.00158576
0.00159473
0.00160557
0.00161762
0.00162982
0.00164097
0.00164987
0.00165546
0.00165681
0.00165303
0.00164326
0.00162676
0.00160313
0.00157247
0.00153554
0.00149374
0.00144901
0.00140356
0.00135962
0.00131906
0.00128319
0.00125257
0.00122718
0.00120652
0.00118997
0.00117686
0.00116659
0.00115866
0.00115259
0.00114799
0.00114451
0.00114189
0.00113991
0.00113845
0.00113694
0.00115243
0.00115149
0.00115053
0.00114956
0.00114861
0.0011477
0.00114686
0.00114613
0.00114555
0.00114514
0.00114496
0.00114506
0.00114547
0.00114626
0.00114749
0.00114923
0.00115155
0.00115455
0.00115829
0.00116285
0.00116829
0.00117465
0.00118198
0.00119031
0.00119966
0.00121004
0.00122145
0.00123387
0.00124728
0.00126164
0.00127688
0.00129291
0.00130964
0.00132692
0.0013446
0.00136249
0.00138037
0.00139801
0.00141516
0.00143159
0.00144709
0.00146145
0.00147454
0.00148628
0.00149661
0.00150556
0.00151317
0.00151952
0.00152471
0.00152886
0.0015321
0.00153456
0.00153634
0.00153759
0.00153842
0.00153893
0.00153923
0.00153942
0.00153959
0.00153985
0.00154031
0.00154114
0.00154258
0.00154499
0.00154877
0.00155433
0.00156191
0.0015714
0.00158229
0.00159368
0.00160447
0.00161357
0.00162
0.00162287
0.00162136
0.00161457
0.00160168
0.00158209
0.00155565
0.00152287
0.0014849
0.00144345
0.00140064
0.00135861
0.0013193
0.00128411
0.00125378
0.00122842
0.00120767
0.00119097
0.00117771
0.0011673
0.00115922
0.00115302
0.0011483
0.00114473
0.00114202
0.00113996
0.00113845
0.00113686
0.00115589
0.00115536
0.00115484
0.00115434
0.00115388
0.00115349
0.00115318
0.001153