/*--------------------------------*- C++ -*----------------------------------*\
| =========                 |                                                 |
| \\      /  F ield         | OpenFOAM: The Open Source CFD Toolbox           |
|  \\    /   O peration     | Version:  2.1.1                                 |
|   \\  /    A nd           | Web:      www.OpenFOAM.org                      |
|    \\/     M anipulation  |                                                 |
\*---------------------------------------------------------------------------*/
FoamFile
{
    version     2.0;
    format      ascii;
    class       volScalarField;
    location    "0.055";
    object      p;
}
// * * * * * * * * * * * * * * * * * * * * * * * * * * * * * * * * * * * * * //

dimensions      [0 2 -2 0 0 0 0];

internalField   nonuniform List<scalar> 
6820
(
-11.0906
-12.9367
-13.5112
-13.6383
-13.7445
-13.8225
-13.8755
-13.9203
-13.9607
-13.9973
-14.0308
-14.0619
-14.0907
-14.1174
-14.1419
-14.1644
-14.1848
-14.203
-14.219
-14.2327
-14.2439
-14.2524
-14.2578
-14.2598
-14.2578
-14.2511
-14.2386
-14.2191
-14.1903
-14.1498
-14.0924
-14.008
-13.8941
-15.0431
-14.5083
-14.0853
-13.8947
-13.8692
-13.8793
-13.8982
-13.9244
-13.9546
-13.9856
-14.0163
-14.0462
-14.0748
-14.1018
-14.127
-14.1504
-14.1717
-14.1909
-14.208
-14.2227
-14.235
-14.2446
-14.2513
-14.2546
-14.2542
-14.2494
-14.2395
-14.2235
-14.1999
-14.1691
-14.1267
-14.093
-14.0431
-13.4006
-13.0967
-13.3829
-13.6274
-13.7314
-13.8056
-13.8632
-13.9109
-13.9529
-13.9907
-14.0251
-14.0566
-14.0857
-14.1126
-14.1372
-14.1598
-14.1803
-14.1988
-14.2151
-14.2293
-14.2411
-14.2505
-14.2571
-14.2607
-14.2608
-14.257
-14.2487
-14.2352
-14.2156
-14.1901
-14.1576
-14.1242
-14.0838
-13.9077
-13.9419
-13.9385
-13.8787
-13.8702
-13.8895
-13.9145
-13.9417
-13.9706
-13.9997
-14.0281
-14.0557
-14.0821
-14.1071
-14.1307
-14.1526
-14.1729
-14.1914
-14.208
-14.2227
-14.2352
-14.2455
-14.2532
-14.2582
-14.2601
-14.2586
-14.2532
-14.2438
-14.2297
-14.2118
-14.1892
-14.1689
-14.1441
-13.7524
-13.6523
-13.6961
-13.7613
-13.8134
-13.8589
-13.8982
-13.934
-13.9679
-14
-14.0303
-14.059
-14.086
-14.1114
-14.135
-14.157
-14.1772
-14.1957
-14.2123
-14.2271
-14.2398
-14.2505
-14.2588
-14.2648
-14.268
-14.2684
-14.2656
-14.2596
-14.2504
-14.2386
-14.2244
-14.2117
-14.1983
-13.8076
-13.7907
-13.8155
-13.8379
-13.8595
-13.8877
-13.9179
-13.948
-13.9779
-14.0071
-14.0352
-14.0622
-14.088
-14.1123
-14.1353
-14.1568
-14.1767
-14.1951
-14.2119
-14.2269
-14.2402
-14.2516
-14.261
-14.2683
-14.2734
-14.2762
-14.2766
-14.2747
-14.2706
-14.2652
-14.2591
-14.2547
-14.2518
-13.806
-13.7847
-13.8002
-13.8283
-13.8576
-13.8895
-13.9211
-13.9516
-13.9813
-14.0102
-14.038
-14.0647
-14.0901
-14.1142
-14.137
-14.1584
-14.1784
-14.1969
-14.2139
-14.2294
-14.2433
-14.2555
-14.2661
-14.2749
-14.2819
-14.2871
-14.2906
-14.2926
-14.2936
-14.2941
-14.2951
-14.2984
-14.3045
-13.8203
-13.8124
-13.8274
-13.8513
-13.8758
-13.9029
-13.9313
-13.9595
-13.9876
-14.0151
-14.0419
-14.0677
-14.0924
-14.116
-14.1384
-14.1596
-14.1795
-14.1981
-14.2154
-14.2314
-14.2459
-14.2591
-14.2709
-14.2813
-14.2903
-14.2981
-14.3049
-14.3109
-14.3166
-14.3228
-14.3305
-14.3409
-14.3551
-13.8335
-13.8295
-13.8413
-13.8622
-13.8854
-13.9113
-13.9385
-13.9657
-13.9928
-14.0194
-14.0454
-14.0705
-14.0947
-14.1179
-14.1401
-14.1612
-14.1811
-14.1999
-14.2175
-14.234
-14.2493
-14.2635
-14.2766
-14.2887
-14.2998
-14.3102
-14.3201
-14.3299
-14.3401
-14.3516
-14.3652
-14.3821
-14.4035
-13.8474
-13.8466
-13.8576
-13.8765
-13.8979
-13.9218
-13.9471
-13.9728
-13.9986
-14.0241
-14.0492
-14.0736
-14.0973
-14.1201
-14.142
-14.1629
-14.1829
-14.2018
-14.2198
-14.2369
-14.253
-14.2682
-14.2826
-14.2963
-14.3096
-14.3225
-14.3354
-14.3488
-14.3633
-14.3795
-14.3984
-14.421
-14.4485
-13.8612
-13.8621
-13.8721
-13.8891
-13.909
-13.9312
-13.955
-13.9795
-14.0042
-14.0288
-14.0531
-14.0768
-14.1
-14.1224
-14.144
-14.1648
-14.1849
-14.204
-14.2224
-14.24
-14.257
-14.2732
-14.289
-14.3044
-14.3196
-14.3349
-14.3507
-14.3675
-14.3857
-14.4062
-14.4298
-14.4572
-14.4899
-13.8748
-13.8767
-13.8861
-13.9016
-13.92
-13.9408
-13.9632
-13.9864
-14.01
-14.0336
-14.0571
-14.0802
-14.1028
-14.1248
-14.1462
-14.167
-14.187
-14.2064
-14.2252
-14.2434
-14.2611
-14.2784
-14.2955
-14.3125
-14.3296
-14.3472
-14.3657
-14.3854
-14.4071
-14.4312
-14.4587
-14.4903
-14.527
-13.8881
-13.8904
-13.8993
-13.9135
-13.9306
-13.95
-13.9711
-13.9932
-14.0157
-14.0385
-14.0612
-14.0836
-14.1057
-14.1274
-14.1486
-14.1693
-14.1894
-14.209
-14.2282
-14.247
-14.2654
-14.2837
-14.302
-14.3205
-14.3394
-14.3591
-14.3799
-14.4023
-14.4269
-14.4542
-14.4849
-14.5198
-14.5597
-13.9008
-13.9033
-13.9118
-13.9248
-13.9408
-13.959
-13.9789
-13.9998
-14.0214
-14.0433
-14.0653
-14.0871
-14.1088
-14.1301
-14.1511
-14.1716
-14.1918
-14.2117
-14.2312
-14.2505
-14.2697
-14.289
-14.3084
-14.3282
-14.3488
-14.3703
-14.3932
-14.4179
-14.4449
-14.4747
-14.508
-14.5454
-14.5876
-13.9129
-13.9155
-13.9235
-13.9356
-13.9505
-13.9676
-13.9864
-14.0064
-14.027
-14.0481
-14.0694
-14.0906
-14.1118
-14.1328
-14.1536
-14.1741
-14.1943
-14.2143
-14.2342
-14.254
-14.2739
-14.294
-14.3144
-14.3355
-14.3575
-14.3806
-14.4052
-14.4318
-14.4608
-14.4926
-14.5278
-14.5669
-14.6106
-13.9245
-13.927
-13.9345
-13.9458
-13.9598
-13.9759
-13.9937
-14.0127
-14.0325
-14.0528
-14.0734
-14.0941
-14.1149
-14.1355
-14.1561
-14.1765
-14.1967
-14.2169
-14.2371
-14.2574
-14.2778
-14.2987
-14.32
-14.3421
-14.3653
-14.3897
-14.4157
-14.4438
-14.4742
-14.5075
-14.544
-14.5842
-14.6286
-13.9353
-13.9377
-13.9449
-13.9555
-13.9686
-13.9838
-14.0007
-14.0188
-14.0378
-14.0574
-14.0773
-14.0975
-14.1178
-14.1382
-14.1585
-14.1788
-14.1991
-14.2194
-14.2398
-14.2605
-14.2814
-14.3028
-14.3249
-14.3479
-14.372
-14.3974
-14.4245
-14.4537
-14.4851
-14.5193
-14.5566
-14.5972
-14.6417
-13.9455
-13.9478
-13.9546
-13.9645
-13.9768
-13.9912
-14.0073
-14.0246
-14.0428
-14.0617
-14.0811
-14.1008
-14.1207
-14.1407
-14.1608
-14.1809
-14.2012
-14.2216
-14.2422
-14.2631
-14.2845
-14.3064
-14.3291
-14.3527
-14.3774
-14.4036
-14.4315
-14.4613
-14.4933
-14.5279
-14.5653
-14.6058
-14.6498
-13.9549
-13.9571
-13.9635
-13.9729
-13.9846
-13.9982
-14.0135
-14.0301
-14.0476
-14.0658
-14.0847
-14.1038
-14.1233
-14.143
-14.1629
-14.1829
-14.2031
-14.2235
-14.2442
-14.2653
-14.287
-14.3092
-14.3322
-14.3563
-14.3815
-14.4081
-14.4363
-14.4664
-14.4986
-14.5332
-14.5703
-14.6102
-14.6531
-13.9636
-13.9657
-13.9718
-13.9806
-13.9917
-14.0047
-14.0193
-14.0351
-14.052
-14.0697
-14.0879
-14.1067
-14.1257
-14.1451
-14.1647
-14.1845
-14.2046
-14.225
-14.2458
-14.2669
-14.2887
-14.3111
-14.3344
-14.3586
-14.384
-14.4107
-14.439
-14.4691
-14.5011
-14.5351
-14.5715
-14.6103
-14.6518
-13.9716
-13.9735
-13.9793
-13.9877
-13.9982
-14.0106
-14.0245
-14.0398
-14.0561
-14.0732
-14.0909
-14.1092
-14.1278
-14.1469
-14.1662
-14.1858
-14.2057
-14.226
-14.2467
-14.2679
-14.2896
-14.3121
-14.3353
-14.3595
-14.3849
-14.4115
-14.4395
-14.4692
-14.5006
-14.5338
-14.5691
-14.6064
-14.646
-13.9787
-13.9806
-13.986
-13.994
-14.004
-14.0159
-14.0292
-14.0439
-14.0596
-14.0762
-14.0935
-14.1113
-14.1296
-14.1482
-14.1673
-14.1866
-14.2063
-14.2264
-14.247
-14.268
-14.2896
-14.3119
-14.335
-14.359
-14.3841
-14.4103
-14.4378
-14.4667
-14.4972
-14.5292
-14.563
-14.5986
-14.636
-13.985
-13.9868
-13.992
-13.9996
-14.0092
-14.0205
-14.0334
-14.0475
-14.0628
-14.0788
-14.0956
-14.113
-14.1309
-14.1492
-14.1679
-14.187
-14.2064
-14.2263
-14.2466
-14.2673
-14.2887
-14.3107
-14.3334
-14.357
-14.3815
-14.4071
-14.4338
-14.4617
-14.491
-14.5216
-14.5537
-14.5871
-14.6221
-13.9905
-13.9922
-13.9971
-14.0044
-14.0136
-14.0244
-14.0368
-14.0505
-14.0653
-14.0809
-14.0972
-14.1142
-14.1317
-14.1496
-14.168
-14.1867
-14.2058
-14.2254
-14.2453
-14.2657
-14.2867
-14.3082
-14.3305
-14.3534
-14.3772
-14.4019
-14.4276
-14.4543
-14.4821
-14.511
-14.541
-14.5722
-14.6046
-13.995
-13.9967
-14.0014
-14.0084
-14.0172
-14.0277
-14.0397
-14.053
-14.0673
-14.0825
-14.0985
-14.115
-14.1321
-14.1497
-14.1677
-14.186
-14.2048
-14.2239
-14.2434
-14.2633
-14.2838
-14.3047
-14.3262
-14.3484
-14.3713
-14.3949
-14.4193
-14.4446
-14.4707
-14.4977
-14.5256
-14.5543
-14.5839
-13.9987
-14.0002
-14.0047
-14.0114
-14.0199
-14.03
-14.0415
-14.0544
-14.0683
-14.0831
-14.0987
-14.1149
-14.1316
-14.1488
-14.1664
-14.1843
-14.2026
-14.2213
-14.2403
-14.2597
-14.2795
-14.2998
-14.3205
-14.3418
-14.3636
-14.386
-14.409
-14.4326
-14.4569
-14.4818
-14.5074
-14.5335
-14.5602
-14.0014
-14.0029
-14.0073
-14.0138
-14.022
-14.0319
-14.0433
-14.0559
-14.0694
-14.0839
-14.0991
-14.1149
-14.1312
-14.148
-14.1651
-14.1826
-14.2004
-14.2185
-14.2369
-14.2556
-14.2747
-14.2941
-14.3139
-14.334
-14.3546
-14.3756
-14.397
-14.4189
-14.4412
-14.4639
-14.487
-14.5104
-14.5342
-14.003
-14.0043
-14.0083
-14.0143
-14.0221
-14.0315
-14.0424
-14.0548
-14.0681
-14.0823
-14.0972
-14.1128
-14.1288
-14.1452
-14.162
-14.1791
-14.1964
-14.214
-14.2318
-14.2498
-14.2681
-14.2866
-14.3054
-14.3244
-14.3437
-14.3633
-14.383
-14.4031
-14.4233
-14.4438
-14.4644
-14.4851
-14.5059
-14.0038
-14.0055
-14.0098
-14.016
-14.0239
-14.0334
-14.0443
-14.0562
-14.0692
-14.083
-14.0976
-14.1127
-14.1282
-14.1442
-14.1604
-14.1768
-14.1935
-14.2104
-14.2274
-14.2446
-14.2619
-14.2794
-14.2969
-14.3146
-14.3325
-14.3504
-14.3684
-14.3864
-14.4045
-14.4226
-14.4407
-14.4586
-14.4764
-14.0026
-14.0032
-14.0062
-14.0114
-14.0186
-14.0277
-14.0383
-14.0503
-14.0633
-14.0773
-14.0919
-14.107
-14.1225
-14.1383
-14.1543
-14.1705
-14.1869
-14.2033
-14.2198
-14.2363
-14.2528
-14.2693
-14.2858
-14.3023
-14.3188
-14.3352
-14.3514
-14.3676
-14.3836
-14.3994
-14.415
-14.4303
-14.4452
-14.003
-14.0057
-14.0103
-14.0165
-14.0241
-14.0331
-14.0435
-14.055
-14.0675
-14.0807
-14.0946
-14.109
-14.1237
-14.1387
-14.1539
-14.1692
-14.1847
-14.2001
-14.2155
-14.2309
-14.2463
-14.2615
-14.2766
-14.2916
-14.3064
-14.321
-14.3354
-14.3495
-14.3633
-14.3767
-14.3897
-14.4022
-14.4142
-13.9952
-13.993
-13.9935
-13.9975
-14.0046
-14.0141
-14.0253
-14.038
-14.0516
-14.066
-14.0809
-14.0962
-14.1116
-14.1272
-14.1428
-14.1584
-14.1739
-14.1892
-14.2044
-14.2194
-14.2341
-14.2486
-14.2629
-14.2768
-14.2903
-14.3035
-14.3163
-14.3287
-14.3405
-14.3518
-14.3625
-14.3726
-14.382
-14.0042
-14.0109
-14.0167
-14.0219
-14.0279
-14.0355
-14.0448
-14.0552
-14.0667
-14.079
-14.0919
-14.1053
-14.1189
-14.1328
-14.1468
-14.1609
-14.1748
-14.1887
-14.2024
-14.2159
-14.2291
-14.242
-14.2546
-14.2668
-14.2786
-14.2898
-14.3006
-14.3108
-14.3205
-14.3294
-14.3377
-14.3452
-14.3519
-13.9719
-13.9583
-13.9534
-13.959
-13.9695
-13.9826
-13.9973
-14.0129
-14.0292
-14.0457
-14.0623
-14.0788
-14.0952
-14.1113
-14.1271
-14.1425
-14.1575
-14.1722
-14.1864
-14.2001
-14.2133
-14.226
-14.2382
-14.2497
-14.2606
-14.2709
-14.2804
-14.2892
-14.2973
-14.3045
-14.3108
-14.3163
-14.3208
-14.0268
-14.0474
-14.0523
-14.048
-14.0454
-14.0479
-14.0535
-14.0611
-14.0701
-14.0804
-14.0915
-14.1033
-14.1155
-14.1279
-14.1404
-14.1528
-14.1652
-14.1774
-14.1892
-14.2008
-14.2119
-14.2225
-14.2326
-14.2422
-14.2511
-14.2593
-14.2668
-14.2735
-14.2794
-14.2844
-14.2884
-14.2916
-14.2936
-13.904
-13.8544
-13.8426
-13.8684
-13.8973
-13.9221
-13.9465
-13.9702
-13.9928
-14.0144
-14.0349
-14.0545
-14.0731
-14.0908
-14.1077
-14.1238
-14.1391
-14.1536
-14.1674
-14.1803
-14.1925
-14.2038
-14.2143
-14.2239
-14.2326
-14.2404
-14.2473
-14.2531
-14.258
-14.2617
-14.2644
-14.266
-14.2665
-14.1529
-14.1879
-14.1573
-14.1152
-14.0868
-14.0758
-14.0733
-14.0746
-14.0788
-14.0855
-14.0937
-14.103
-14.113
-14.1235
-14.1342
-14.145
-14.1556
-14.1661
-14.1762
-14.1859
-14.1951
-14.2038
-14.2118
-14.219
-14.2256
-14.2313
-14.2361
-14.24
-14.2429
-14.2447
-14.2455
-14.2452
-14.2437
-13.6607
-13.541
-13.6034
-13.705
-13.7792
-13.8317
-13.8758
-13.9145
-13.9483
-13.978
-14.0047
-14.0289
-14.051
-14.0713
-14.09
-14.1073
-14.1234
-14.1382
-14.1518
-14.1644
-14.1758
-14.1862
-14.1955
-14.2037
-14.2107
-14.2166
-14.2214
-14.225
-14.2274
-14.2285
-14.2284
-14.227
-14.2243
-14.8755
-14.5366
-14.273
-14.1564
-14.1064
-14.0815
-14.0668
-14.061
-14.0616
-14.0661
-14.0731
-14.0818
-14.0916
-14.102
-14.1127
-14.1235
-14.1341
-14.1444
-14.1544
-14.1638
-14.1726
-14.1807
-14.1881
-14.1946
-14.2002
-14.2048
-14.2085
-14.211
-14.2124
-14.2127
-14.2117
-14.2095
-14.206
-12.3719
-13.0786
-13.4834
-13.6359
-13.7408
-13.8235
-13.8834
-13.9287
-13.9655
-13.9962
-14.0223
-14.045
-14.0653
-14.0835
-14.1002
-14.1154
-14.1293
-14.1421
-14.1537
-14.1643
-14.1738
-14.1821
-14.1894
-14.1956
-14.2006
-14.2044
-14.207
-14.2083
-14.2084
-14.2072
-14.2046
-14.2008
-14.1955
-13.645
-13.5479
-13.4698
-13.4711
-13.6249
-13.9687
-14.4666
-15.1106
-15.8567
-16.6688
-17.5169
-18.3708
-19.2028
-19.9896
-20.7141
-21.3666
-21.9426
-22.441
-22.8628
-23.2099
-23.484
-23.6861
-23.816
-23.8722
-23.8513
-23.7475
-23.5527
-23.256
-22.8436
-22.2989
-21.6027
-20.7359
-19.6843
-18.445
-17.0268
-15.4536
-13.7743
-12.0478
-10.3236
-8.65174
-7.08277
-5.65703
-4.39874
-3.31604
-2.40416
-1.6501
-1.03673
-0.545592
-0.158675
0.140684
0.367372
0.534396
0.652948
0.73254
0.78118
0.805547
0.811173
0.802598
0.783523
0.756937
0.725242
0.690347
0.653761
0.616664
0.579967
0.544359
0.510344
0.478266
0.448336
0.420648
0.395196
0.371895
0.350594
0.331098
0.313179
0.296598
0.281118
0.266515
0.252591
0.239189
0.226183
0.21348
0.201018
0.188756
0.176671
0.164747
0.15297
0.141326
0.129793
0.118362
0.106998
0.0957189
0.084432
0.0732792
0.0619023
0.0509988
0.0390436
0.0291857
0.0148096
0.00972515
-14.2372
-14.1254
-13.857
-13.7248
-13.7674
-13.9934
-14.4002
-14.9842
-15.7087
-16.5253
-17.383
-18.2361
-19.0529
-19.816
-20.5164
-21.1489
-21.7103
-22.1989
-22.613
-22.9531
-23.2197
-23.4131
-23.5325
-23.5762
-23.5405
-23.4194
-23.2046
-22.8851
-22.447
-21.8741
-21.1491
-20.2583
-19.1963
-17.9667
-16.5816
-15.0709
-13.4746
-11.8315
-10.1867
-8.59032
-7.08869
-5.71808
-4.5012
-3.44673
-2.55177
-1.80569
-1.19361
-0.699057
-0.305562
0.00235144
0.238699
0.415865
0.544601
0.634124
0.692243
0.725519
0.739418
0.73845
0.726317
0.706025
0.680003
0.650195
0.61815
0.585087
0.551958
0.519498
0.488252
0.458612
0.430832
0.405049
0.381295
0.359519
0.339596
0.321352
0.304576
0.289035
0.274503
0.260759
0.247612
0.234907
0.222519
0.210361
0.198375
0.186522
0.174789
0.163166
0.151645
0.14022
0.128877
0.117611
0.106388
0.0952292
0.0840505
0.0729818
0.061695
0.0508259
0.0390018
0.0290307
0.0150773
0.00916748
-14.0549
-13.9018
-13.782
-13.7912
-13.9272
-14.1959
-14.5948
-15.1153
-15.7395
-16.4478
-17.2163
-18.0138
-18.8067
-19.5657
-20.2688
-20.9028
-21.4612
-21.9397
-22.3403
-22.6653
-22.9167
-23.0952
-23.1996
-23.2273
-23.1738
-23.0326
-22.7947
-22.4489
-21.9819
-21.3801
-20.6331
-19.7361
-18.6866
-17.4875
-16.1546
-14.7129
-13.1903
-11.6229
-10.055
-8.5318
-7.09503
-5.77776
-4.6014
-3.57505
-2.69743
-1.95998
-1.34995
-0.852688
-0.453224
-0.137245
0.108394
0.295442
0.434199
0.533564
0.601139
0.64335
0.665583
0.672315
0.667236
0.653364
0.633152
0.608573
0.58121
0.55232
0.522895
0.493709
0.465352
0.438258
0.412724
0.388929
0.366945
0.346753
0.328258
0.311307
0.295703
0.28123
0.267667
0.254802
0.242447
0.230453
0.2187
0.207102
0.195607
0.184181
0.172814
0.161505
0.150253
0.139058
0.127913
0.116817
0.105743
0.0947101
0.083644
0.072662
0.0614717
0.0506369
0.0389524
0.0288589
0.015352
0.00857987
-14.1472
-14.122
-14.0784
-14.0905
-14.2001
-14.4282
-14.7818
-15.2587
-15.8405
-16.4967
-17.1965
-17.9146
-18.6296
-19.3216
-19.9736
-20.5715
-21.1051
-21.5715
-21.9675
-22.2897
-22.5361
-22.7059
-22.7977
-22.8091
-22.7359
-22.5718
-22.3087
-21.9375
-21.4498
-20.8382
-20.0948
-19.2121
-18.1879
-17.0291
-15.7507
-14.3714
-12.9174
-11.4234
-9.92936
-8.47624
-7.10165
-5.8359
-4.69913
-3.70075
-2.84082
-2.11267
-1.50543
-1.00618
-0.601389
-0.277867
-0.0233403
0.173296
0.321876
0.430968
0.507948
0.559097
0.58971
0.604217
0.606292
0.598956
0.58468
0.565464
0.542922
0.518344
0.492759
0.466978
0.441631
0.417194
0.394007
0.372289
0.35215
0.333605
0.316588
0.300969
0.28657
0.273188
0.260613
0.248643
0.237096
0.225828
0.214724
0.203702
0.192713
0.181729
0.170744
0.159763
0.148791
0.137837
0.126899
0.11598
0.105061
0.0941599
0.0832113
0.0723197
0.0612307
0.0504315
0.0388935
0.0286725
0.0156287
0.00796923
-14.1946
-14.1697
-14.1429
-14.1809
-14.3153
-14.5546
-14.9018
-15.3537
-15.8929
-16.4961
-17.1392
-17.8011
-18.4626
-19.1052
-19.7123
-20.2703
-20.7691
-21.2035
-21.5706
-21.8678
-22.0931
-22.2446
-22.3196
-22.3148
-22.2257
-22.0471
-21.7729
-21.396
-20.9084
-20.3012
-19.567
-18.7018
-17.7079
-16.5918
-15.3647
-14.0447
-12.657
-11.2333
-9.80988
-8.42356
-7.10847
-5.89237
-4.79423
-3.82359
-2.98167
-2.26342
-1.6597
-1.1592
-0.749723
-0.419209
-0.156231
0.0496659
0.207837
0.326509
0.412817
0.472881
0.511895
0.534233
0.543543
0.542844
0.534617
0.520886
0.503292
0.483156
0.461539
0.439289
0.417072
0.395403
0.374662
0.355109
0.336891
0.320057
0.304571
0.290327
0.277168
0.264906
0.253342
0.242286
0.231564
0.221037
0.210596
0.200165
0.189697
0.179169
0.168581
0.15794
0.147261
0.136558
0.125835
0.115102
0.104344
0.0935789
0.0827526
0.0719552
0.060972
0.0502102
0.0388248
0.0284729
0.0159048
0.00734205
-14.2561
-14.2615
-14.2798
-14.3489
-14.492
-14.7198
-15.0381
-15.447
-15.9357
-16.486
-17.0775
-17.6886
-18.2978
-18.8873
-19.4437
-19.9567
-20.4189
-20.8235
-21.1652
-21.4408
-21.6471
-21.7815
-21.8409
-21.8222
-21.7212
-21.5328
-21.251
-20.8687
-20.3786
-19.7746
-19.0526
-18.2104
-17.2488
-16.1734
-14.9957
-13.7331
-12.4091
-11.0526
-9.69623
-8.37352
-7.11532
-5.94705
-4.88654
-3.94338
-3.11973
-2.41195
-1.81246
-1.31141
-0.897928
-0.560993
-0.290029
-0.0752304
0.092272
0.220348
0.315879
0.384812
0.432229
0.462435
0.479044
0.485067
0.482991
0.474856
0.462328
0.446757
0.429232
0.410634
0.391663
0.372872
0.354677
0.337377
0.321157
0.306101
0.292201
0.279378
0.267495
0.256382
0.245854
0.235731
0.225852
0.216082
0.20632
0.196493
0.18656
0.176503
0.166324
0.156037
0.145662
0.135219
0.124721
0.11418
0.103589
0.0929664
0.0822674
0.071568
0.060695
0.0499728
0.0387452
0.0282608
0.0161767
0.00670478
-14.3179
-14.3405
-14.3802
-14.4635
-14.6111
-14.8334
-15.1343
-15.5119
-15.9567
-16.4555
-16.9953
-17.5566
-18.1175
-18.6612
-19.176
-19.6523
-20.0816
-20.4564
-20.7712
-21.0227
-21.2077
-21.3232
-21.3663
-21.3333
-21.2199
-21.0214
-20.7322
-20.3467
-19.8592
-19.2643
-18.5582
-17.739
-16.8085
-15.7729
-14.6434
-13.4362
-12.1731
-10.8805
-9.58804
-8.32587
-7.12203
-5.9998
-4.97593
-4.05996
-3.25479
-2.55799
-1.96341
-1.46253
-1.04571
-0.702944
-0.424484
-0.201169
-0.0246252
0.112651
0.217276
0.295009
0.350808
0.388901
0.412859
0.425675
0.429838
0.4274
0.420047
0.409154
0.395839
0.381009
0.365398
0.349591
0.334042
0.319085
0.304942
0.29173
0.279473
0.268118
0.257549
0.247616
0.23815
0.228982
0.219963
0.210966
0.201897
0.192688
0.183305
0.17373
0.163973
0.154052
0.143993
0.133821
0.123556
0.113215
0.102798
0.0923216
0.0817548
0.0711576
0.060399
0.0497188
0.0386535
0.0280371
0.0164407
0.00606419
-14.378
-14.4154
-14.4739
-14.5716
-14.7241
-14.94
-15.2229
-15.5714
-15.9783
-16.4326
-16.9212
-17.4283
-17.9379
-18.4361
-18.9105
-19.35
-19.7458
-20.0907
-20.3795
-20.6082
-20.7732
-20.8712
-20.8988
-20.8526
-20.7284
-20.5219
-20.228
-19.8418
-19.358
-18.7723
-18.0818
-17.2858
-16.3865
-15.3901
-14.3072
-13.1533
-11.9484
-10.7167
-9.48489
-8.28034
-7.12843
-6.05053
-5.06231
-4.17318
-3.38663
-2.70131
-2.11227
-1.61227
-1.19278
-0.844787
-0.559339
-0.32792
-0.142651
0.00359501
0.117158
0.203599
0.26774
0.313721
0.345061
0.364727
0.375204
0.378552
0.376473
0.370364
0.361366
0.350416
0.338274
0.325556
0.312751
0.300226
0.288239
0.276939
0.266383
0.256543
0.247329
0.238609
0.230231
0.222041
0.213899
0.205692
0.19733
0.188754
0.179931
0.170853
0.161531
0.151987
0.142254
0.132363
0.122339
0.112206
0.101968
0.0916442
0.0812144
0.0707233
0.0600833
0.049448
0.0385487
0.0278027
0.0166929
0.00542731
-14.4349
-14.4839
-14.5554
-14.6619
-14.8155
-15.0236
-15.2894
-15.6117
-15.9848
-16.3993
-16.8439
-17.3054
-17.7697
-18.2239
-18.6568
-19.0585
-19.4207
-19.736
-19.9987
-20.2043
-20.3491
-20.4296
-20.4421
-20.3833
-20.2491
-20.0354
-19.7377
-19.3515
-18.8725
-18.2972
-17.6233
-16.8508
-15.9823
-15.0241
-13.9864
-12.8836
-11.7343
-10.5605
-9.3864
-8.23668
-7.1344
-6.09914
-5.14558
-4.28291
-3.5151
-2.84168
-2.2588
-1.76035
-1.33886
-0.986247
-0.694338
-0.455247
-0.261594
-0.106634
0.0156867
0.11072
0.183142
0.236992
0.27573
0.30229
0.319144
0.328356
0.331639
0.330409
0.325831
0.318863
0.310294
0.300767
0.2908
0.280795
0.271042
0.261724
0.252927
0.244652
0.236834
0.229361
0.222098
0.214909
0.207665
0.200263
0.192623
0.184691
0.176443
0.167873
0.158996
0.149842
0.140446
0.130845
0.121071
0.111151
0.101099
0.0909337
0.0806458
0.0702649
0.0597474
0.0491604
0.0384295
0.0275586
0.0169295
0.00480121
-14.4872
-14.5454
-14.6262
-14.7385
-14.8915
-15.0914
-15.3408
-15.6386
-15.9803
-16.358
-16.762
-17.1809
-17.6026
-18.0155
-18.4095
-18.7753
-19.1046
-19.3905
-19.6272
-19.8101
-19.9351
-19.9984
-19.9964
-19.9256
-19.7822
-19.5622
-19.2617
-18.8766
-18.4033
-17.839
-17.1821
-16.4331
-15.5951
-14.6741
-13.6801
-12.6265
-11.5303
-10.4115
-9.29221
-8.19467
-7.13981
-6.14557
-5.22567
-4.38907
-3.64006
-2.97891
-2.40276
-1.90651
-1.48368
-1.12706
-0.829224
-0.582913
-0.381238
-0.217843
-0.0869677
0.0165206
0.0971404
0.158823
0.204959
0.23844
0.261721
0.276862
0.285586
0.289322
0.289256
0.286367
0.281468
0.275227
0.268191
0.260792
0.253349
0.246081
0.239103
0.232444
0.226063
0.219872
0.213754
0.207589
0.201263
0.194682
0.187778
0.180505
0.172843
0.164792
0.156372
0.147618
0.138568
0.129266
0.11975
0.110052
0.100193
0.09019
0.0800486
0.0697822
0.0593907
0.0488557
0.0382951
0.0273059
0.0171467
0.00419279
-14.5345
-14.5995
-14.6865
-14.8018
-14.9525
-15.1434
-15.3767
-15.6516
-15.9641
-16.3079
-16.6745
-17.0541
-17.4362
-17.8106
-18.1677
-18.499
-18.7967
-19.0541
-19.2655
-19.426
-19.5314
-19.578
-19.5619
-19.4797
-19.3277
-19.1023
-18.7998
-18.4166
-17.9499
-17.3972
-16.7577
-16.0323
-15.2242
-14.3396
-13.3877
-12.3812
-11.3356
-10.2692
-9.20202
-8.15414
-7.14458
-6.18979
-5.30257
-4.49159
-3.76138
-3.11284
-2.54394
-2.05051
-1.62698
-1.26695
-0.963742
-0.710676
-0.501362
-0.329831
-0.190628
-0.078844
0.00987083
0.0793311
0.132847
0.173263
0.203007
0.224132
0.238363
0.247143
0.251672
0.252951
0.251812
0.248948
0.24493
0.240218
0.235163
0.230011
0.224911
0.219918
0.215018
0.210144
0.205201
0.200085
0.194696
0.188955
0.182801
0.176198
0.169133
0.161613
0.153661
0.145315
0.136622
0.127629
0.118379
0.108909
0.0992473
0.089413
0.0794228
0.0692749
0.059013
0.0485341
0.0381443
0.0270455
0.0173414
0.00360855
-14.5763
-14.6462
-14.7369
-14.8531
-15
-15.1815
-15.3992
-15.6525
-15.938
-16.2503
-16.5823
-16.9254
-17.2705
-17.6084
-17.9306
-18.229
-18.4964
-18.7262
-18.9129
-19.0516
-19.1381
-19.1683
-19.1388
-19.0458
-18.886
-18.6558
-18.3521
-17.9717
-17.5121
-16.9716
-16.3498
-15.6478
-14.8692
-14.0199
-13.1086
-12.1471
-11.1498
-10.1333
-9.11555
-8.11493
-7.14865
-6.23177
-5.37625
-4.59042
-3.87897
-3.24331
-2.68214
-2.19213
-1.76851
-1.40568
-1.09764
-0.838295
-0.62174
-0.442394
-0.295107
-0.175209
-0.0785218
-0.00135873
0.0595026
0.106851
0.143082
0.170232
0.190028
0.203918
0.213117
0.218643
0.221348
0.221944
0.221027
0.219082
0.216487
0.213518
0.210353
0.207077
0.2037
0.200181
0.196443
0.1924
0.18797
0.183084
0.177695
0.171775
0.165319
0.158339
0.150864
0.142938
0.13461
0.125933
0.116956
0.107722
0.098264
0.0886031
0.0787684
0.0687433
0.0586141
0.0481957
0.0379766
0.0267786
0.0175105
0.00305438
-14.6124
-14.6855
-14.7779
-14.8932
-15.0351
-15.2068
-15.4094
-15.6423
-15.9027
-16.1858
-16.4856
-16.7948
-17.1053
-17.4091
-17.6982
-17.9653
-18.2036
-18.4069
-18.5697
-18.6873
-18.7553
-18.7699
-18.7273
-18.6242
-18.4571
-18.223
-17.9188
-17.5418
-17.09
-16.5621
-15.958
-15.2793
-14.5295
-13.7143
-12.8421
-11.9238
-10.9724
-10.0033
-9.03259
-8.07693
-7.15198
-6.27154
-5.44674
-4.68556
-3.99277
-3.37021
-2.81721
-2.33115
-1.90804
-1.543
-1.23067
-0.965531
-0.742144
-0.555319
-0.400215
-0.272401
-0.167884
-0.0831108
-0.0149552
0.0393081
0.0820336
0.11524
0.140644
0.159702
0.173637
0.183482
0.190105
0.194239
0.1965
0.197395
0.197329
0.196608
0.195435
0.193925
0.192116
0.189987
0.187484
0.184541
0.18109
0.177077
0.172467
0.167242
0.161405
0.154975
0.147987
0.140488
0.132533
0.124181
0.115485
0.106492
0.0972434
0.0877608
0.0780859
0.0681877
0.058194
0.0478408
0.0377913
0.0265061
0.0176519
0.00253524
-14.6425
-14.7174
-14.81
-14.9229
-15.059
-15.2206
-15.4085
-15.6222
-15.859
-16.1151
-16.3851
-16.6627
-16.941
-17.2126
-17.4705
-17.7079
-17.9184
-18.0962
-18.236
-18.3332
-18.3834
-18.3828
-18.3278
-18.2151
-18.0415
-17.804
-17.4999
-17.1269
-16.6833
-16.1683
-15.582
-14.9262
-14.2045
-13.4224
-12.5878
-11.7106
-10.8031
-9.87894
-8.95294
-8.04007
-7.15459
-6.30914
-5.51407
-4.777
-4.10275
-3.49345
-2.94899
-2.46739
-2.04536
-1.67868
-1.3626
-1.09214
-0.862344
-0.66839
-0.50575
-0.370239
-0.258053
-0.165781
-0.0903992
-0.0292552
0.01996
0.0592382
0.0902863
0.114558
0.133285
0.147511
0.15812
0.165862
0.17137
0.175175
0.177705
0.179291
0.180166
0.180471
0.18027
0.179568
0.178332
0.176513
0.174062
0.17094
0.167123
0.162605
0.157398
0.151526
0.145033
0.137969
0.130396
0.122375
0.113966
0.10522
0.0961867
0.0868871
0.077376
0.0676086
0.0577531
0.0474698
0.0375883
0.0262294
0.0177638
0.00205504
-14.6668
-14.7421
-14.8336
-14.943
-15.0725
-15.2239
-15.3976
-15.5929
-15.8078
-16.0387
-16.2811
-16.5293
-16.7774
-17.0189
-17.2474
-17.4566
-17.6407
-17.7941
-17.9118
-17.9893
-18.0224
-18.0073
-17.9406
-17.8189
-17.6393
-17.399
-17.0956
-16.7271
-16.2921
-15.79
-15.2214
-14.5882
-13.8938
-13.1436
-12.345
-11.5073
-10.6414
-9.76003
-8.87646
-8.00429
-7.15648
-6.34461
-5.5783
-4.8648
-4.20888
-3.61297
-3.07736
-2.60069
-2.18026
-1.81248
-1.49318
-1.2179
-0.982111
-0.781389
-0.611508
-0.468534
-0.348857
-0.249214
-0.166692
-0.0987172
-0.0430324
0.00232143
0.0390346
0.0685558
0.0921211
0.110783
0.125437
0.136848
0.145668
0.152446
0.157633
0.161584
0.164558
0.166725
0.168174
0.168934
0.168995
0.168326
0.166896
0.164681
0.161672
0.157872
0.153303
0.147999
0.142008
0.135387
0.128201
0.120518
0.112402
0.10391
0.0950954
0.0859832
0.0766396
0.067007
0.0572918
0.0470837
0.0373675
0.0259493
0.0178457
0.00161641
-14.6852
-14.7599
-14.8492
-14.9543
-15.0766
-15.2176
-15.3775
-15.5555
-15.7498
-15.9572
-16.1738
-16.3948
-16.6148
-16.8281
-17.0289
-17.2115
-17.3705
-17.5006
-17.5972
-17.6558
-17.6725
-17.6436
-17.5656
-17.4356
-17.2505
-17.008
-16.7058
-16.3421
-15.916
-15.427
-14.876
-14.2648
-13.597
-12.8776
-12.1135
-11.3133
-10.4871
-9.64632
-8.80304
-7.96958
-7.15771
-6.37805
-5.63952
-4.94899
-4.31119
-3.7287
-3.20223
-2.73089
-2.31256
-1.94421
-1.62219
-1.34256
-1.10121
-0.894091
-0.717279
-0.56709
-0.440116
-0.333247
-0.243688
-0.168947
-0.106827
-0.055408
-0.0130205
0.0217749
0.0502141
0.0733555
0.0921052
0.107241
0.119429
0.129237
0.137136
0.143505
0.148629
0.152702
0.155841
0.158097
0.159484
0.15999
0.159601
0.158311
0.156121
0.15305
0.149129
0.1444
0.138918
0.132746
0.125954
0.118614
0.110797
0.102562
0.0939715
0.0850508
0.0758781
0.0663838
0.056811
0.0466831
0.0371294
0.025667
0.0178975
0.00122061
-14.6978
-14.7711
-14.8572
-14.9572
-15.072
-15.2026
-15.3491
-15.5107
-15.6856
-15.8711
-16.0638
-16.2594
-16.4532
-16.6401
-16.8149
-16.9724
-17.1076
-17.2157
-17.2921
-17.3328
-17.3339
-17.2918
-17.2032
-17.0654
-16.8755
-16.6312
-16.3305
-15.9721
-15.555
-15.0791
-14.5453
-13.9557
-13.3136
-12.6238
-11.8928
-11.1284
-10.3399
-9.53764
-8.73261
-7.93594
-7.15835
-6.40955
-5.69782
-5.02966
-4.40969
-3.84063
-3.32351
-2.85788
-2.44209
-2.07365
-1.74942
-1.4659
-1.21942
-1.00627
-0.822845
-0.665704
-0.531641
-0.417708
-0.321228
-0.239802
-0.171298
-0.113837
-0.0657792
-0.0256969
0.00764126
0.0352968
0.0581836
0.0770898
0.0926954
0.105584
0.116246
0.125082
0.132401
0.138422
0.143287
0.147073
0.149813
0.151518
0.15219
0.151839
0.150483
0.148151
0.144886
0.140738
0.135771
0.130052
0.123659
0.116667
0.109153
0.10118
0.0928175
0.0840919
0.0750931
0.0657407
0.0563118
0.0462692
0.0368745
0.0253834
0.0179201
0.000867493
-14.7048
-14.7758
-14.8582
-14.9525
-15.0595
-15.1798
-15.3133
-15.4592
-15.6159
-15.781
-15.9514
-16.1233
-16.2927
-16.455
-16.6054
-16.7393
-16.8521
-16.9393
-16.9966
-17.0203
-17.0065
-16.9519
-16.8534
-16.7083
-16.5141
-16.2685
-15.9698
-15.6169
-15.2089
-14.746
-14.2292
-13.6606
-13.0433
-12.3819
-11.6825
-10.9522
-10.1995
-9.43384
-8.6651
-7.9034
-7.15847
-6.43922
-5.75331
-5.10689
-4.50443
-3.94876
-3.44115
-2.98153
-2.5687
-2.20063
-1.87465
-1.58771
-1.33651
-1.11771
-0.927987
-0.764165
-0.623236
-0.502412
-0.399145
-0.311131
-0.236307
-0.172844
-0.119132
-0.0737622
-0.0355112
-0.00331728
0.0237384
0.0464529
0.0655174
0.0815299
0.094999
0.106345
0.1159
0.123908
0.130534
0.13588
0.14
0.142926
0.144678
0.145282
0.14477
0.143187
0.140584
0.137023
0.132575
0.127314
0.121323
0.114683
0.107475
0.0997677
0.0916363
0.083109
0.0742866
0.0650794
0.0557957
0.0458433
0.0366039
0.0250996
0.0179155
0.000555554
-14.7065
-14.7745
-14.8525
-14.9408
-15.0398
-15.1498
-15.2708
-15.4018
-15.5413
-15.6873
-15.8369
-15.9869
-16.1335
-16.2728
-16.4004
-16.5122
-16.6039
-16.6714
-16.7107
-16.7182
-16.6903
-16.624
-16.5163
-16.3645
-16.1664
-15.92
-15.6236
-15.2763
-14.8776
-14.4276
-13.9274
-13.3791
-12.7857
-12.1516
-11.4824
-10.7845
-10.0658
-9.33481
-8.60048
-7.87199
-7.15818
-6.46719
-5.80613
-5.18078
-4.59548
-4.05309
-3.5551
-3.10176
-2.69225
-2.32497
-1.99769
-1.70775
-1.45224
-1.22816
-1.03248
-0.862257
-0.714695
-0.587169
-0.477262
-0.38277
-0.301705
-0.232293
-0.172957
-0.122313
-0.0791471
-0.0424015
-0.0111549
0.0153962
0.0379528
0.0571256
0.0734391
0.0873329
0.09916
0.109188
0.117607
0.124541
0.130067
0.134234
0.137083
0.138654
0.138998
0.13817
0.136235
0.133266
0.12934
0.12454
0.118954
0.112668
0.105769
0.0983294
0.0904315
0.082105
0.0734613
0.0644018
0.0552643
0.045407
0.0363191
0.0248164
0.0178861
0.000282096
-14.7029
-14.7675
-14.8407
-14.9226
-15.0135
-15.1135
-15.2223
-15.3391
-15.4625
-15.5906
-15.7208
-15.8503
-15.9758
-16.0937