/*--------------------------------*- C++ -*----------------------------------*\
| =========                 |                                                 |
| \\      /  F ield         | OpenFOAM: The Open Source CFD Toolbox           |
|  \\    /   O peration     | Version:  2.1.1                                 |
|   \\  /    A nd           | Web:      www.OpenFOAM.org                      |
|    \\/     M anipulation  |                                                 |
\*---------------------------------------------------------------------------*/
FoamFile
{
    version     2.0;
    format      ascii;
    class       surfaceScalarField;
    location    "0.055";
    object      phi;
}
// * * * * * * * * * * * * * * * * * * * * * * * * * * * * * * * * * * * * * //

dimensions      [0 3 -1 0 0 0 0];

internalField   nonuniform List<scalar> 
13452
(
6.89921e-05
-5.04811e-07
6.88126e-05
1.79503e-07
6.81999e-05
6.12708e-07
6.72506e-05
9.49236e-07
6.61717e-05
1.07895e-06
6.50772e-05
1.09448e-06
6.40089e-05
1.06831e-06
6.2984e-05
1.02486e-06
6.20109e-05
9.73123e-07
6.10929e-05
9.18006e-07
6.0231e-05
8.6195e-07
5.94245e-05
8.06429e-07
5.86721e-05
7.52422e-07
5.79715e-05
7.00626e-07
5.73199e-05
6.5153e-07
5.67145e-05
6.05464e-07
5.61518e-05
5.62643e-07
5.56286e-05
5.23194e-07
5.51415e-05
4.87187e-07
5.46868e-05
4.54661e-07
5.42611e-05
4.25649e-07
5.38609e-05
4.00203e-07
5.34825e-05
3.78424e-07
5.3122e-05
3.6049e-07
5.27753e-05
3.46712e-07
5.24377e-05
3.37606e-07
5.21037e-05
3.34005e-07
5.17662e-05
3.37463e-07
5.14161e-05
3.50111e-07
5.10377e-05
3.78456e-07
5.06091e-05
4.28593e-07
5.00753e-05
5.33834e-07
7.57494e-07
4.93178e-05
7.01649e-05
-2.25762e-07
7.00409e-05
3.03508e-07
7.01812e-05
4.72355e-07
7.05081e-05
6.22389e-07
7.08579e-05
7.2913e-07
7.11559e-05
7.96529e-07
7.13793e-05
8.44879e-07
7.15298e-05
8.74333e-07
7.16153e-05
8.87606e-07
7.16446e-05
8.88702e-07
7.1626e-05
8.80597e-07
7.15668e-05
8.65649e-07
7.14735e-05
8.45703e-07
7.13518e-05
8.22274e-07
7.12068e-05
7.9659e-07
7.10426e-05
7.69657e-07
7.08629e-05
7.42303e-07
7.06709e-05
7.1521e-07
7.04692e-05
6.88951e-07
7.02598e-05
6.64018e-07
7.00446e-05
6.40852e-07
6.98249e-05
6.19878e-07
6.96018e-05
6.01535e-07
6.9376e-05
5.86322e-07
6.91478e-05
5.74857e-07
6.89175e-05
5.67931e-07
6.86848e-05
5.66712e-07
6.84495e-05
5.7271e-07
6.82109e-05
5.88764e-07
6.79719e-05
6.17479e-07
6.77323e-05
6.6817e-07
6.7532e-05
7.341e-07
8.55901e-07
6.74336e-05
7.22815e-05
-5.06953e-08
7.23962e-05
1.88755e-07
7.25004e-05
3.68132e-07
7.2586e-05
5.3682e-07
7.26682e-05
6.46955e-07
7.27489e-05
7.15836e-07
7.28334e-05
7.60313e-07
7.29183e-05
7.89475e-07
7.29994e-05
8.06517e-07
7.30741e-05
8.14019e-07
7.31407e-05
8.1397e-07
7.31984e-05
8.07983e-07
7.32467e-05
7.97388e-07
7.32856e-05
7.83359e-07
7.33153e-05
7.66909e-07
7.3336e-05
7.48907e-07
7.33482e-05
7.30105e-07
7.33523e-05
7.11157e-07
7.33486e-05
6.92637e-07
7.33375e-05
6.75069e-07
7.33195e-05
6.58949e-07
7.32946e-05
6.44773e-07
7.3263e-05
6.33075e-07
7.32249e-05
6.24456e-07
7.31801e-05
6.19658e-07
7.31284e-05
6.19596e-07
7.30696e-05
6.25553e-07
7.30032e-05
6.39072e-07
7.29291e-05
6.62855e-07
7.28479e-05
6.98727e-07
7.27617e-05
7.54332e-07
7.26741e-05
8.21669e-07
9.34956e-07
7.25951e-05
7.45183e-05
-4.23837e-08
7.44875e-05
2.19611e-07
7.44753e-05
3.80282e-07
7.45139e-05
4.98233e-07
7.45729e-05
5.87974e-07
7.46376e-05
6.5109e-07
7.47016e-05
6.9635e-07
7.47632e-05
7.27851e-07
7.48221e-05
7.47582e-07
7.48782e-05
7.57947e-07
7.49312e-05
7.61015e-07
7.49808e-05
7.58395e-07
7.50268e-05
7.5139e-07
7.5069e-05
7.4113e-07
7.51073e-05
7.28574e-07
7.51417e-05
7.14548e-07
7.5172e-05
6.9977e-07
7.51983e-05
6.84871e-07
7.52205e-05
6.70424e-07
7.52386e-05
6.56959e-07
7.52526e-05
6.44994e-07
7.52623e-05
6.35057e-07
7.52677e-05
6.27722e-07
7.52685e-05
6.23641e-07
7.52645e-05
6.236e-07
7.52556e-05
6.28553e-07
7.52414e-05
6.39768e-07
7.52217e-05
6.58712e-07
7.51969e-05
6.87658e-07
7.51674e-05
7.28221e-07
7.51368e-05
7.84993e-07
7.5104e-05
8.54446e-07
9.4878e-07
7.50902e-05
7.66034e-05
1.00364e-08
7.66276e-05
1.95429e-07
7.66632e-05
3.44715e-07
7.67002e-05
4.61166e-07
7.67373e-05
5.50958e-07
7.67752e-05
6.13202e-07
7.68151e-05
6.56382e-07
7.68567e-05
6.86241e-07
7.68989e-05
7.05421e-07
7.69407e-05
7.16116e-07
7.69816e-05
7.20143e-07
7.70211e-05
7.18932e-07
7.70588e-05
7.13675e-07
7.70945e-05
7.0541e-07
7.7128e-05
6.95038e-07
7.71592e-05
6.83344e-07
7.7188e-05
6.7102e-07
7.72142e-05
6.58684e-07
7.72377e-05
6.46904e-07
7.72584e-05
6.36217e-07
7.72763e-05
6.27155e-07
7.72911e-05
6.20263e-07
7.73026e-05
6.16138e-07
7.73108e-05
6.15451e-07
7.73154e-05
6.18999e-07
7.73163e-05
6.27722e-07
7.73132e-05
6.4281e-07
7.73063e-05
6.65596e-07
7.72961e-05
6.97928e-07
7.72831e-05
7.41158e-07
7.72699e-05
7.98189e-07
7.7257e-05
8.67392e-07
9.54311e-07
7.72515e-05
7.8831e-05
2.49736e-08
7.88382e-05
1.88249e-07
7.88555e-05
3.27359e-07
7.88833e-05
4.33384e-07
7.89182e-05
5.16013e-07
7.89557e-05
5.75718e-07
7.89939e-05
6.18258e-07
7.90319e-05
6.48192e-07
7.90695e-05
6.6786e-07
7.91063e-05
6.79291e-07
7.91422e-05
6.84263e-07
7.91769e-05
6.842e-07
7.92103e-05
6.80277e-07
7.92422e-05
6.73508e-07
7.92725e-05
6.64772e-07
7.9301e-05
6.54834e-07
7.93276e-05
6.44373e-07
7.93523e-05
6.34002e-07
7.93749e-05
6.24288e-07
7.93954e-05
6.15772e-07
7.94135e-05
6.08992e-07
7.94293e-05
6.04504e-07
7.94425e-05
6.02911e-07
7.94531e-05
6.04883e-07
7.94609e-05
6.11195e-07
7.94659e-05
6.22741e-07
7.94681e-05
6.40591e-07
7.94678e-05
6.65918e-07
7.94655e-05
7.00175e-07
7.94622e-05
7.44488e-07
7.94597e-05
8.00655e-07
7.9459e-05
8.6816e-07
9.49278e-07
7.9464e-05
8.10846e-05
3.89552e-08
8.10941e-05
1.78724e-07
8.11168e-05
3.04672e-07
8.11464e-05
4.03773e-07
8.11797e-05
4.82706e-07
8.1214e-05
5.41383e-07
8.12487e-05
5.8363e-07
8.12834e-05
6.13502e-07
8.13178e-05
6.33437e-07
8.13516e-05
6.45427e-07
8.13847e-05
6.51192e-07
8.14168e-05
6.52113e-07
8.14477e-05
6.49335e-07
8.14774e-05
6.43844e-07
8.15057e-05
6.36496e-07
8.15325e-05
6.28041e-07
8.15577e-05
6.19148e-07
8.15813e-05
6.10424e-07
8.16031e-05
6.02434e-07
8.16232e-05
5.9572e-07
8.16413e-05
5.90821e-07
8.16576e-05
5.88292e-07
8.16717e-05
5.88726e-07
8.16839e-05
5.92775e-07
8.16939e-05
6.01169e-07
8.17019e-05
6.14727e-07
8.17081e-05
6.34386e-07
8.17129e-05
6.61137e-07
8.17169e-05
6.96105e-07
8.17213e-05
7.4018e-07
8.17274e-05
7.94484e-07
8.17366e-05
8.58955e-07
9.34407e-07
8.17515e-05
8.34099e-05
4.45878e-08
8.34194e-05
1.69247e-07
8.34395e-05
2.846e-07
8.34659e-05
3.77279e-07
8.3497e-05
4.5167e-07
8.35301e-05
5.08236e-07
8.3564e-05
5.4973e-07
8.3598e-05
5.79517e-07
8.36316e-05
5.99833e-07
8.36645e-05
6.12501e-07
8.36966e-05
6.19131e-07
8.37277e-05
6.21059e-07
8.37576e-05
6.194e-07
8.37863e-05
6.15119e-07
8.38138e-05
6.09058e-07
8.38398e-05
6.01955e-07
8.38645e-05
5.9447e-07
8.38877e-05
5.87203e-07
8.39095e-05
5.80716e-07
8.39296e-05
5.75546e-07
8.39482e-05
5.72226e-07
8.39652e-05
5.713e-07
8.39806e-05
5.7334e-07
8.39944e-05
5.78959e-07
8.40068e-05
5.88829e-07
8.40178e-05
6.03679e-07
8.40279e-05
6.243e-07
8.40375e-05
6.51504e-07
8.40475e-05
6.86136e-07
8.40588e-05
7.28861e-07
8.4073e-05
7.80357e-07
8.40912e-05
8.40673e-07
9.09926e-07
8.41157e-05
8.57962e-05
4.71451e-08
8.58056e-05
1.59851e-07
8.5825e-05
2.6512e-07
8.58508e-05
3.51549e-07
8.58808e-05
4.21657e-07
8.5913e-05
4.76074e-07
8.5946e-05
5.16713e-07
8.59792e-05
5.4629e-07
8.60122e-05
5.66849e-07
8.60446e-05
5.80082e-07
8.60762e-05
5.87493e-07
8.61069e-05
5.90358e-07
8.61366e-05
5.89753e-07
8.61651e-05
5.86613e-07
8.61924e-05
5.81756e-07
8.62184e-05
5.75902e-07
8.62432e-05
5.69701e-07
8.62667e-05
5.63742e-07
8.62888e-05
5.58576e-07
8.63096e-05
5.54731e-07
8.63291e-05
5.52725e-07
8.63473e-05
5.5308e-07
8.63644e-05
5.56337e-07
8.63803e-05
5.6306e-07
8.63952e-05
5.73849e-07
8.64096e-05
5.89329e-07
8.64237e-05
6.10153e-07
8.64383e-05
6.36957e-07
8.64541e-05
6.70349e-07
8.64721e-05
7.10787e-07
8.64939e-05
7.58637e-07
8.65206e-05
8.13898e-07
8.76319e-07
8.65542e-05
8.82499e-05
4.72287e-08
8.82595e-05
1.50263e-07
8.8278e-05
2.46582e-07
8.83024e-05
3.27146e-07
8.8331e-05
3.93073e-07
8.83621e-05
4.45041e-07
8.83943e-05
4.84478e-07
8.8427e-05
5.13581e-07
8.84597e-05
5.34187e-07
8.84919e-05
5.47836e-07
8.85235e-05
5.55915e-07
8.85542e-05
5.59621e-07
8.8584e-05
5.59981e-07
8.86127e-05
5.57891e-07
8.86403e-05
5.5414e-07
8.86668e-05
5.49428e-07
8.86921e-05
5.44384e-07
8.87163e-05
5.39584e-07
8.87393e-05
5.35562e-07
8.87612e-05
5.32829e-07
8.8782e-05
5.31879e-07
8.88019e-05
5.33206e-07
8.8821e-05
5.37307e-07
8.88393e-05
5.44689e-07
8.88573e-05
5.55872e-07
8.88753e-05
5.71377e-07
8.88937e-05
5.91721e-07
8.89133e-05
6.17375e-07
8.89349e-05
6.48751e-07
8.89595e-05
6.86121e-07
8.89886e-05
7.29618e-07
8.90233e-05
7.79132e-07
8.34199e-07
8.90654e-05
9.07726e-05
4.59284e-08
9.07822e-05
1.40691e-07
9.07998e-05
2.2892e-07
9.08232e-05
3.03815e-07
9.08506e-05
3.65627e-07
9.08807e-05
4.14987e-07
9.09122e-05
4.52997e-07
9.09443e-05
4.81423e-07
9.09766e-05
5.01879e-07
9.10087e-05
5.15764e-07
9.10403e-05
5.24349e-07
9.10711e-05
5.2875e-07
9.11012e-05
5.2994e-07
9.11303e-05
5.2877e-07
9.11584e-05
5.25995e-07
9.11856e-05
5.22288e-07
9.12117e-05
5.18253e-07
9.12369e-05
5.14444e-07
9.1261e-05
5.11374e-07
9.12843e-05
5.09527e-07
9.13069e-05
5.09369e-07
9.13287e-05
5.11354e-07
9.13501e-05
5.15931e-07
9.13712e-05
5.23544e-07
9.13925e-05
5.34628e-07
9.14142e-05
5.49602e-07
9.14371e-05
5.68854e-07
9.14618e-05
5.9271e-07
9.14891e-05
6.21416e-07
9.15202e-05
6.55081e-07
9.15561e-05
6.93665e-07
9.15983e-05
7.36941e-07
7.84322e-07
9.16482e-05
9.33668e-05
4.37887e-08
9.33763e-05
1.31155e-07
9.33932e-05
2.12049e-07
9.34155e-05
2.81507e-07
9.34418e-05
3.39293e-07
9.34709e-05
3.85932e-07
9.35016e-05
4.22305e-07
9.35332e-05
4.49836e-07
9.35651e-05
4.69935e-07
9.3597e-05
4.83864e-07
9.36286e-05
4.92778e-07
9.36596e-05
4.97712e-07
9.369e-05
4.99577e-07
9.37196e-05
4.99175e-07
9.37484e-05
4.97224e-07
9.37763e-05
4.94362e-07
9.38034e-05
4.91166e-07
9.38297e-05
4.88161e-07
9.38552e-05
4.85831e-07
9.38801e-05
4.84631e-07
9.39045e-05
4.8499e-07
9.39285e-05
4.87319e-07
9.39524e-05
4.92011e-07
9.39765e-05
4.99442e-07
9.40012e-05
5.09967e-07
9.40269e-05
5.23905e-07
9.40542e-05
5.41527e-07
9.40839e-05
5.63034e-07
9.41168e-05
5.88531e-07
9.41539e-05
6.17997e-07
9.41963e-05
6.5126e-07
9.42452e-05
6.87994e-07
7.27547e-07
9.4302e-05
9.60347e-05
4.11902e-08
9.60441e-05
1.21737e-07
9.60602e-05
1.95908e-07
9.60816e-05
2.6014e-07
9.61069e-05
3.13969e-07
9.61351e-05
3.57804e-07
9.6165e-05
3.92368e-07
9.6196e-05
4.18817e-07
9.62276e-05
4.38371e-07
9.62593e-05
4.52157e-07
9.62908e-05
4.61223e-07
9.6322e-05
4.66519e-07
9.63527e-05
4.68892e-07
9.63828e-05
4.69094e-07
9.64122e-05
4.67798e-07
9.6441e-05
4.65606e-07
9.64691e-05
4.63063e-07
9.64966e-05
4.60659e-07
9.65236e-05
4.58848e-07
9.65502e-05
4.58047e-07
9.65765e-05
4.58644e-07
9.66028e-05
4.61002e-07
9.66294e-05
4.65458e-07
9.66565e-05
4.72321e-07
9.66846e-05
4.81865e-07
9.67142e-05
4.94319e-07
9.67459e-05
5.09851e-07
9.67803e-05
5.28555e-07
9.68184e-05
5.50422e-07
9.68611e-05
5.75329e-07
9.69094e-05
6.0301e-07
9.69643e-05
6.33067e-07
6.64828e-07
9.7027e-05
9.87786e-05
3.83596e-08
9.87878e-05
1.12485e-07
9.88033e-05
1.80425e-07
9.88238e-05
2.3963e-07
9.88482e-05
2.89572e-07
9.88755e-05
3.3055e-07
9.89047e-05
3.63163e-07
9.89351e-05
3.8836e-07
9.89663e-05
4.07189e-07
9.89978e-05
4.20652e-07
9.90293e-05
4.29693e-07
9.90607e-05
4.35178e-07
9.90917e-05
4.37888e-07
9.91222e-05
4.38523e-07
9.91523e-05
4.37707e-07
9.91819e-05
4.36005e-07
9.92111e-05
4.33921e-07
9.92398e-05
4.31912e-07
9.92683e-05
4.30392e-07
9.92966e-05
4.29741e-07
9.93249e-05
4.30302e-07
9.93535e-05
4.32388e-07
9.93827e-05
4.3628e-07
9.94128e-05
4.42221e-07
9.94443e-05
4.5041e-07
9.94776e-05
4.60996e-07
9.95134e-05
4.74059e-07
9.95523e-05
4.89603e-07
9.95952e-05
5.07535e-07
9.96429e-05
5.27654e-07
9.96963e-05
5.4963e-07
9.97563e-05
5.73025e-07
5.97178e-07
9.9824e-05
0.000101601
3.54353e-08
0.00010161
1.03436e-07
0.000101625
1.65539e-07
0.000101644
2.19901e-07
0.000101668
2.66019e-07
0.000101694
3.04099e-07
0.000101723
3.34644e-07
0.000101753
3.58437e-07
0.000101784
3.76375e-07
0.000101815
3.89345e-07
0.000101846
3.98189e-07
0.000101878
4.03693e-07
0.000101909
4.06571e-07
0.00010194
4.07465e-07
0.000101971
4.06955e-07
0.000102001
4.05558e-07
0.000102032
4.0374e-07
0.000102062
4.01919e-07
0.000102092
4.00469e-07
0.000102122
3.99727e-07
0.000102152
3.99992e-07
0.000102183
4.01527e-07
0.000102214
4.04556e-07
0.000102247
4.09262e-07
0.000102282
4.15778e-07
0.000102319
4.24181e-07
0.000102358
4.34481e-07
0.000102401
4.4661e-07
0.000102449
4.60412e-07
0.000102501
4.75633e-07
0.000102558
4.91909e-07
0.000102623
5.08785e-07
5.25639e-07
0.000102694
0.000104503
3.24978e-08
0.000104512
9.46134e-08
0.000104527
1.51192e-07
0.000104546
2.00879e-07
0.000104568
2.43229e-07
0.000104594
2.78385e-07
0.000104622
3.06763e-07
0.000104651
3.29016e-07
0.000104682
3.4591e-07
0.000104713
3.58224e-07
0.000104744
3.66706e-07
0.000104776
3.72063e-07
0.000104808
3.74941e-07
0.000104839
3.75926e-07
0.000104871
3.75546e-07
0.000104902
3.74275e-07
0.000104933
3.72535e-07
0.000104964
3.70702e-07
0.000104996
3.6911e-07
0.000105027
3.68052e-07
0.00010506
3.67782e-07
0.000105093
3.68514e-07
0.000105127
3.70421e-07
0.000105162
3.73629e-07
0.0001052
3.78214e-07
0.00010524
3.84194e-07
0.000105283
3.91522e-07
0.000105329
4.00077e-07
0.00010538
4.0966e-07
0.000105436
4.19986e-07
0.000105497
4.30679e-07
0.000105565
4.41289e-07
4.5125e-07
0.000105639
0.000107489
2.95919e-08
0.000107497
8.60244e-08
0.000107511
1.37332e-07
0.00010753
1.82491e-07
0.000107552
2.21129e-07
0.000107577
2.53338e-07
0.000107604
2.79465e-07
0.000107633
3.00057e-07
0.000107663
3.15766e-07
0.000107694
3.27271e-07
0.000107726
3.35234e-07
0.000107757
3.40282e-07
0.000107789
3.42998e-07
0.000107821
3.4391e-07
0.000107854
3.43493e-07
0.000107886
3.42174e-07
0.000107918
3.40332e-07
0.00010795
3.383e-07
0.000107983
3.3637e-07
0.000108016
3.34791e-07
0.00010805
3.33775e-07
0.000108085
3.33489e-07
0.000108122
3.34057e-07
0.00010816
3.35558e-07
0.0001082
3.38019e-07
0.000108243
3.4141e-07
0.000108289
3.45642e-07
0.000108338
3.50557e-07
0.000108392
3.55929e-07
0.00010845
3.61463e-07
0.000108514
3.66788e-07
0.000108584
3.71475e-07
3.75024e-07
0.00010866
0.00011056
2.67404e-08
0.000110568
7.76679e-08
0.000110582
1.23911e-07
0.000110599
1.64671e-07
0.000110621
1.99644e-07
0.000110645
2.2889e-07
0.000110672
2.52694e-07
0.000110701
2.71516e-07
0.00011073
2.85911e-07
0.000110761
2.96465e-07
0.000110793
3.03759e-07
0.000110825
3.08348e-07
0.000110857
3.10748e-07
0.000110889
3.11428e-07
0.000110922
3.10815e-07
0.000110955
3.09286e-07
0.000110988
3.07175e-07
0.000111022
3.04773e-07
0.000111056
3.02329e-07
0.00011109
3.00053e-07
0.000111126
2.98111e-07
0.000111163
2.9663e-07
0.000111201
2.95692e-07
0.000111242
2.95334e-07
0.000111284
2.95542e-07
0.000111329
2.96252e-07
0.000111377
2.97344e-07
0.000111429
2.98638e-07
0.000111485
2.99898e-07
0.000111546
3.0083e-07
0.000111612
3.01082e-07
0.000111683
3.00261e-07
2.97934e-07
0.00011176
0.000113718
2.39528e-08
0.000113726
6.95349e-08
0.000113739
1.10883e-07
0.000113757
1.47357e-07
0.000113778
1.78708e-07
0.000113802
2.04974e-07
0.000113828
2.26393e-07
0.000113856
2.43348e-07
0.000113886
2.5631e-07
0.000113916
2.65782e-07
0.000113948
2.7227e-07
0.00011398
2.76256e-07
0.000114012
2.78195e-07
0.000114045
2.78499e-07
0.000114079
2.77542e-07
0.000114112
2.75654e-07
0.000114146
2.73124e-07
0.000114181
2.70202e-07
0.000114216
2.67095e-07
0.000114252
2.63972e-07
0.000114289
2.60962e-07
0.000114328
2.58153e-07
0.000114368
2.55591e-07
0.00011441
2.53278e-07
0.000114454
2.5117e-07
0.000114501
2.49178e-07
0.000114552
2.47161e-07
0.000114605
2.44933e-07
0.000114663
2.42255e-07
0.000114725
2.3885e-07
0.000114792
2.34393e-07
0.000114863
2.28531e-07
2.20907e-07
0.00011494
0.000116967
2.12312e-08
0.000116975
6.16113e-08
0.000116988
9.82061e-08
0.000117005
1.30488e-07
0.000117025
1.58254e-07
0.000117048
1.81528e-07
0.000117074
2.00505e-07
0.000117102
2.15506e-07
0.000117132
2.26928e-07
0.000117162
2.35199e-07
0.000117194
2.40753e-07
0.000117226
2.44006e-07
0.000117259
2.45351e-07
0.000117292
2.45147e-07
0.000117326
2.43713e-07
0.00011736
2.41335e-07
0.000117395
2.38258e-07
0.000117431
2.34688e-07
0.000117467
2.30795e-07
0.000117504
2.26711e-07
0.000117543
2.2253e-07
0.000117582
2.18305e-07
0.000117624
2.14052e-07
0.000117668
2.09746e-07
0.000117713
2.05322e-07
0.000117762
2.00673e-07
0.000117813
1.9565e-07
0.000117868
1.90066e-07
0.000117927
1.83694e-07
0.000117989
1.76277e-07
0.000118056
1.67527e-07
0.000118128
1.57135e-07
1.44815e-07
0.000118204
0.000120309
1.85731e-08
0.000120316
5.38798e-08
0.000120329
8.58404e-08
0.000120345
1.1401e-07
0.000120365
1.3822e-07
0.000120388
1.58489e-07
0.000120414
1.74973e-07
0.000120441
1.87943e-07
0.000120471
1.97729e-07
0.000120501
2.04691e-07
0.000120533
2.09197e-07
0.000120565
2.116e-07
0.000120598
2.12235e-07
0.000120632
2.11405e-07
0.000120666
2.09381e-07
0.000120701
2.06402e-07
0.000120737
2.02671e-07
0.000120773
1.98354e-07
0.00012081
1.93586e-07
0.000120849
1.88462e-07
0.000120888
1.83046e-07
0.000120929
1.77363e-07
0.000120972
1.71404e-07
0.000121016
1.65124e-07
0.000121063
1.58443e-07
0.000121113
1.51244e-07
0.000121165
1.43378e-07
0.00012122
1.34667e-07
0.000121279
1.249e-07
0.000121341
1.13848e-07
0.000121408
1.0126e-07
0.000121478
8.68775e-08
7.0477e-08
0.000121552
0.000123746
1.59738e-08
0.000123753
4.63217e-08
0.000123765
7.37479e-08
0.000123782
9.787e-08
0.000123801
1.18549e-07
0.000123824
1.35797e-07
0.000123849
1.49742e-07
0.000123876
1.6061e-07
0.000123906
1.68675e-07
0.000123936
1.74234e-07
0.000123968
1.77591e-07
0.000124
1.79043e-07
0.000124034
1.78866e-07
0.000124068
1.77313e-07
0.000124102
1.74606e-07
0.000124138
1.70938e-07
0.000124174
1.66474e-07
0.000124211
1.61341e-07
0.000124249
1.5564e-07
0.000124288
1.49437e-07
0.000124328
1.42766e-07
0.00012437
1.3563e-07
0.000124413
1.28e-07
0.000124459
1.19816e-07
0.000124506
1.10991e-07
0.000124556
1.01406e-07
0.000124609
9.09177e-08
0.000124664
7.93592e-08
0.000124722
6.65441e-08
0.000124784
5.22726e-08
0.000124849
3.63343e-08
0.000124917
1.8515e-08
-1.34613e-09
0.000124989
0.000127281
1.34274e-08
0.000127288
3.89169e-08
0.0001273
6.18915e-08
0.000127316
8.20174e-08
0.000127336
9.91799e-08
0.000127358
1.1339e-07
0.000127383
1.24754e-07
0.00012741
1.3346e-07
0.000127439
1.3973e-07
0.000127469
1.43804e-07
0.000127501
1.45928e-07
0.000127534
1.46344e-07
0.000127567
1.45274e-07
0.000127602
1.4292e-07
0.000127637
1.3946e-07
0.000127673
1.35043e-07
0.00012771
1.29794e-07
0.000127747
1.23809e-07
0.000127786
1.17153e-07
0.000127825
1.09869e-07
0.000127866
1.01965e-07
0.000127908
9.34256e-08
0.000127952
8.42074e-08
0.000127998
7.42423e-08
0.000128045
6.34381e-08
0.000128095
5.16805e-08
0.000128147
3.8836e-08
0.000128201
2.4755e-08
0.000128259
9.27604e-09
0.000128319
-7.76935e-09
0.000128382
-2.65526e-08
0.000128447
-4.7244e-08
-6.9951e-08
0.000128516
0.000130917
1.09295e-08
0.000130925
3.16508e-08
0.000130936
5.02438e-08
0.000130952
6.64129e-08
0.000130971
8.00655e-08
0.000130993
9.12164e-08
0.000131018
9.99535e-08
0.000131045
1.06439e-07
0.000131074
1.1085e-07
0.000131104
1.1337e-07
0.000131136
1.14193e-07
0.000131169
1.13506e-07
0.000131203
1.11483e-07
0.000131237
1.08276e-07
0.000131273
1.04017e-07
0.000131309
9.88173e-08
0.000131346
9.27654e-08
0.000131384
8.59236e-08
0.000131423
7.83278e-08
0.000131463
7.00025e-08
0.000131504
6.09312e-08
0.000131546
5.10824e-08
0.00013159
4.04049e-08
0.000131635
2.88254e-08
0.000131682
1.62532e-08
0.000131731
2.58092e-09
0.000131783
-1.23119e-08
0.000131836
-2.85552e-08
0.000131892
-4.62849e-08
0.000131949
-6.5638e-08
0.00013201
-8.67489e-08
0.000132072
-1.09748e-07
-1.34695e-07
0.000132137
0.000134658
8.46959e-09
0.000134665
2.4497e-08
0.000134676
3.87602e-08
0.000134692
5.09955e-08
0.000134711
6.1135e-08
0.000134733
6.92033e-08
0.000134757
7.52745e-08
0.000134784
7.94998e-08
0.000134813
8.20051e-08
0.000134844
8.29179e-08
0.000134875
8.23862e-08
0.000134908
8.05501e-08
0.000134942
7.75328e-08
0.000134977
7.34458e-08
0.000135013
6.8372e-08
0.000135049
6.23844e-08
0.000135086
5.55401e-08
0.000135124
4.78709e-08
0.000135163
3.9382e-08
0.000135203
3.00985e-08
0.000135244
1.9961e-08
0.000135286
8.93864e-09
0.00013533
-3.02666e-09
0.000135375
-1.60118e-08
0.000135421
-3.0101e-08
0.000135469
-4.5393e-08
0.000135519
-6.19929e-08
0.00013557
-8.00103e-08
0.000135623
-9.95557e-08
0.000135678
-1.20736e-07
0.000135735
-1.43652e-07
0.000135794
-1.68398e-07
-1.94993e-07
0.000135854
0.000138505
6.06472e-09
0.000138512
1.748e-08
0.000138523
2.74627e-08
0.000138538
3.57721e-08
0.000138557
4.23737e-08
0.000138579
4.73119e-08
0.000138603
5.06465e-08
0.00013863
5.25501e-08
0.000138659
5.31029e-08
0.00013869
5.23722e-08
0.000138722
5.04587e-08
0.000138755
4.74534e-08
0.000138789
4.34335e-08
0.000138824
3.84637e-08
0.00013886
3.25829e-08
0.000138896
2.58377e-08
0.000138934
1.82553e-08
0.000138972
9.83556e-09
0.00013901
5.07848e-10
0.00013905
-9.58523e-09
0.000139091
-2.06488e-08
0.000139132
-3.26691e-08
0.000139175
-4.57141e-08
0.000139219
-5.98564e-08
0.000139264
-7.51763e-08
0.00013931
-9.17606e-08
0.000139358
-1.09699e-07
0.000139407
-1.29081e-07
0.000139458
-1.49993e-07
0.000139509
-1.72514e-07
0.000139562
-1.96715e-07
0.000139617
-2.22658e-07
-2.50331e-07
0.000139672
0.000142462
3.64103e-09
0.000142469
1.04926e-08
0.00014248
1.62205e-08
0.000142495
2.06089e-08
0.000142514
2.36633e-08
0.000142536
2.54489e-08
0.00014256
2.60369e-08
0.000142587
2.56293e-08
0.000142616
2.41995e-08
0.000142647
2.17788e-08
0.000142679
1.84521e-08
0.000142712
1.42607e-08
0.000142746
9.24113e-09
0.000142781
3.43461e-09
0.000142817
-3.21533e-09
0.000142853
-1.06801e-08
0.000142891
-1.89376e-08
0.000142928
-2.8026e-08
0.000142967
-3.79822e-08
0.000143006
-4.88191e-08
0.000143046
-6.0618e-08
0.000143087
-7.34247e-08
0.000143128
-8.73027e-08
0.000143171
-1.02322e-07
0.000143214
-1.18557e-07
0.000143259
-1.36081e-07
0.000143304
-1.54969e-07
0.00014335
-1.7529e-07
0.000143397
-1.97109e-07
0.000143445
-2.20481e-07
0.000143494
-2.45451e-07
0.000143543
-2.72053e-07
-3.00248e-07
0.000143593
0.000146532
1.44647e-09
0.000146538
3.84324e-09
0.000146549
5.3139e-09
0.000146564
5.67712e-09
0.000146583
5.05453e-09
0.000146605
3.5407e-09
0.000146629
1.08274e-09
0.000146657
-1.67724e-09
0.000146686
-5.0254e-09
0.000146717
-9.09269e-09
0.000146749
-1.3793e-08
0.000146783
-1.91249e-08
0.000146817
-2.50945e-08
0.000146852
-3.17239e-08
0.000146888
-3.90515e-08
0.000146924
-4.71002e-08
0.000146961
-5.59033e-08
0.000146999
-6.55102e-08
0.000147037
-7.59716e-08
0.000147075
-8.73314e-08
0.000147114
-9.96542e-08
0.000147154
-1.13002e-07
0.000147194
-1.27438e-07
0.000147235
-1.43028e-07
0.000147276
-1.59836e-07
0.000147318
-1.77927e-07
0.00014736
-1.97359e-07
0.000147403
-2.18185e-07
0.000147446
-2.40451e-07
0.00014749
-2.6419e-07
0.000147534
-2.89426e-07
0.000147578
-3.16171e-07
-3.44365e-07
0.000147622
0.000150718
-1.22617e-09
0.000150725
-3.18314e-09
0.000150737
-5.83324e-09
0.000150752
-9.35485e-09
0.00015077
-1.35859e-08
0.000150792
-1.83253e-08
0.000150817
-2.34235e-08
0.000150844
-2.87008e-08
0.000150873
-3.42183e-08
0.000150904
-4.00222e-08
0.000150936
-4.61251e-08
0.000150969
-5.25824e-08
0.000151004
-5.94602e-08
0.000151039
-6.68214e-08
0.000151075
-7.47398e-08
0.000151111
-8.32808e-08
0.000151147
-9.25052e-08
0.000151184
-1.02478e-07
0.000151222
-1.13265e-07
0.000151259
-1.24929e-07
0.000151297
-1.37538e-07
0.000151335
-1.51157e-07
0.000151374
-1.65851e-07
0.000151412
-1.81681e-07
0.000151451
-1.98703e-07
0.00015149
-2.16972e-07
0.000151529
-2.36533e-07
0.000151569
-2.57424e-07
0.000151608
-2.79674e-07
0.000151647
-3.03299e-07
0.000151686
-3.28304e-07
0.000151724
-3.54684e-07
-3.82365e-07
0.000151762
0.000155023
-2.54841e-09
0.000155029
-8.84855e-09
0.000155039
-1.61197e-08
0.000155054
-2.42294e-08
0.000155073
-3.26403e-08
0.000155095
-4.09869e-08
0.000155121
-4.91076e-08
0.000155149
-5.6889e-08
0.00015518
-6.43982e-08
0.000155211
-7.17628e-08
0.000155244
-7.90934e-08
0.000155278
-8.65055e-08
0.000155313
-9.41157e-08
0.000155348
-1.02034e-07
0.000155384
-1.10365e-07
0.00015542
-1.19204e-07
0.000155456
-1.28639e-07
0.000155492
-1.38755e-07
0.000155528
-1.49631e-07
0.000155565
-1.61343e-07
0.000155601
-1.73961e-07
0.000155638
-1.87552e-07
0.000155674
-2.0218e-07
0.00015571
-2.17901e-07
0.000155746
-2.34764e-07
0.000155782
-2.52815e-07
0.000155818
-2.72088e-07
0.000155853
-2.92608e-07
0.000155888
-3.14391e-07
0.000155922
-3.37439e-07
0.000155955
-3.61743e-07
0.000155988
-3.87288e-07
-4.13988e-07
0.000156019
0.000159455
-6.70225e-09
0.000159462
-1.63998e-08
0.000159473
-2.70641e-08
0.000159488
-3.8653e-08
0.000159506
-5.06883e-08
0.000159527
-6.25477e-08
0.000159552
-7.38046e-08
0.000159579
-8.42819e-08
0.000159609
-9.40243e-08
0.00015964
-1.03171e-07
0.000159673
-1.11884e-07
0.000159707
-1.20335e-07
0.000159742
-1.287e-07
0.000159777
-1.37138e-07
0.000159812
-1.45797e-07
0.000159848
-1.54811e-07
0.000159883
-1.64296e-07
0.000159919
-1.74359e-07
0.000159954
-1.85097e-07
0.00015999
-1.96596e-07
0.000160025
-2.08934e-07
0.000160059
-2.22182e-07
0.000160094
-2.36401e-07
0.000160127
-2.51646e-07
0.000160161
-2.67962e-07
0.000160193
-2.85385e-07
0.000160225
-3.03941e-07
0.000160256
-3.23646e-07
0.000160286
-3.44505e-07
0.000160315
-3.66511e-07
0.000160343
-3.89643e-07
0.00016037
-4.13876e-07
-4.39122e-07
0.000160395
0.000164003
-4.01474e-09
0.000164006
-1.87139e-08
0.000164015
-3.61632e-08
0.000164031
-5.44326e-08
0.000164052
-7.19203e-08
0.000164077
-8.78971e-08
0.000164106
-1.02192e-07
0.000164136
-1.1492e-07
0.000164169
-1.26312e-07
0.000164202
-1.36639e-07
0.000164236
-1.46167e-07
0.000164271
-1.55152e-07
0.000164306
-1.63824e-07
0.000164341
-1.72388e-07
0.000164377
-1.81024e-07
0.000164412
-1.89888e-07
0.000164447
-1.99117e-07
0.000164481
-2.0883e-07
0.000164515
-2.19132e-07
0.000164549
-2.30115e-07
0.000164582
-2.4186e-07
0.000164614
-2.54438e-07
0.000164645
-2.67907e-07
0.000164676
-2.8232e-07
0.000164706
-2.97715e-07
0.000164734
-3.14122e-07
0.000164762
-3.31561e-07
0.000164788
-3.50041e-07
0.000164814
-3.69559e-07
0.000164837
-3.90102e-07
0.000164859
-4.11644e-07
0.000164879
-4.34155e-07
-4.57546e-07
0.000164898
0.000168702
-1.38276e-08
0.00016871
-2.71277e-08
0.000168718
-4.45737e-08
0.000168729
-6.49529e-08
0.000168744
-8.68128e-08
0.000168764
-1.07711e-07
0.000168788
-1.26396e-07
0.000168816
-1.42681e-07
0.000168846
-1.56817e-07
0.000168879
-1.6917e-07
0.000168913
-1.8012e-07
0.000168947
-1.9003e-07
0.000168983
-1.99227e-07
0.000169018
-2.07991e-07
0.000169054
-2.16567e-07
0.000169089
-2.25158e-07
0.000169124
-2.33939e-07
0.000169158
-2.43057e-07
0.000169192
-2.52637e-07
0.000169225
-2.62783e-07
0.000169256
-2.73586e-07
0.000169287
-2.8512e-07
0.000169316
-2.97448e-07
0.000169345
-3.10619e-07
0.000169372
-3.2467e-07
0.000169397
-3.39628e-07
0.000169421
-3.55508e-07
0.000169443
-3.72314e-07
0.000169464
-3.9004e-07
0.000169482
-4.08668e-07
0.000169499
-4.28168e-07
0.000169513
-4.48507e-07
-4.69599e-07
0.000169525
0.000173491
6.43092e-09
0.000173485
-2.10356e-08
0.000173496
-5.56052e-08
0.000173519
-8.78325e-08
0.000173549
-1.16439e-07
0.000173581
-1.4056e-07
0.000173616
-1.60897e-07
0.000173651
-1.78057e-07
0.000173687
-1.92611e-07
0.000173723
-2.05082e-07
0.000173759
-2.15946e-07
0.000173794
-2.2562e-07
0.00017383
-2.34457e-07
0.000173864
-2.42753e-07
0.000173899
-2.50754e-07
0.000173932
-2.5867e-07
0.000173965
-2.66676e-07
0.000173997
-2.74917e-07
0.000174028
-2.83519e-07
0.000174057
-2.92585e-07
0.000174086
-3.02203e-07
0.000174113
-3.12446e-07
0.000174139
-3.23372e-07
0.000174164
-3.35028e-07
0.000174186
-3.4745e-07
0.000174207
-3.6066e-07
0.000174227
-3.74671e-07
0.000174244
-3.89486e-07
0.000174259
-4.05097e-07
0.000174272
-4.21485e-07
0.000174282
-4.38623e-07
0.00017429
-4.5648e-07
-4.74974e-07
0.000174295
0.000178499
-2.35389e-08
0.000178502
-2.45891e-08
0.000178492
-4.53758e-08
0.000178483
-7.93702e-08
0.000178487
-1.19807e-07
0.000178502
-1.55449e-07
0.000178525
-1.84518e-07
0.000178555
-2.0764e-07
0.000178588
-2.26198e-07
0.000178625
-2.41235e-07
0.000178662
-2.53586e-07
0.000178701
-2.63949e-07
0.000178739
-2.72887e-07
0.000178777
-2.80849e-07
0.000178815
-2.88189e-07
0.000178851
-2.95192e-07
0.000178886
-3.02085e-07
0.000178921
-3.0905e-07
0.000178953
-3.16235e-07
0.000178984
-3.23758e-07
0.000179014
-3.31715e-07
0.000179042
-3.40184e-07
0.000179068
-3.49225e-07
0.000179091
-3.58886e-07
0.000179113
-3.69199e-07
0.000179133
-3.80188e-07
0.00017915
-3.91863e-07
0.000179165
-4.04227e-07
0.000179177
-4.1727e-07
0.000179186
-4.30975e-07
0.000179193
-4.45316e-07
0.000179197
-4.60263e-07
-4.75746e-07
0.000179198
0.000183487
5.73423e-08
0.000183465
-2.7046e-09
0.000183501
-8.15134e-08
0.000183555
-1.33683e-07
0.000183608
-1.7282e-07
0.000183656
-2.03364e-07
0.000183699
-2.27644e-07
0.000183739
-2.47566e-07
0.000183777
-2.63884e-07
0.000183813
-2.773e-07
0.000183848
-2.88489e-07
0.000183882
-2.97989e-07
0.000183915
-3.06223e-07
0.000183948
-3.13537e-07
0.00018398
-3.20214e-07
0.000184011
-3.26487e-07
0.000184042
-3.32548e-07
0.000184071
-3.38555e-07
0.000184099
-3.44638e-07
0.000184127
-3.50907e-07
0.000184152
-3.57451e-07
0.000184177
-3.64345e-07
0.000184199
-3.71647e-07
0.000184219
-3.79404e-07
0.000184238
-3.87654e-07
0.000184254
-3.9642e-07
0.000184268
-4.05719e-07
0.000184279
-4.15556e-07
0.000184288
-4.25929e-07
0.000184294
-4.36828e-07
0.000184297
-4.48234e-07
0.000184297
-4.60126e-07
-4.72445e-07
0.000184293
0.000188861
8.07686e-09
0.000188797
6.14998e-08
0.000188713
2.78413e-09
0.00018865
-7.09005e-08
0.000188632
-1.55079e-07
0.000188647
-2.18187e-07
0.000188681
-2.61522e-07
0.000188726
-2.92297e-07
0.000188776
-3.14739e-07
0.000188831
-3.31478e-07
0.000188886
-3.44187e-07
0.000188942
-3.5402e-07
0.000188998
-3.61799e-07
0.000189053
-3.68124e-07
0.000189106
-3.73435e-07
0.000189157
-3.78062e-07
0.000189207
-3.8226e-07
0.000189255
-3.86223e-07
0.0001893
-3.90108e-07
0.000189343
-3.94036e-07
0.000189384
-3.98107e-07
0.000189422