/*--------------------------------*- C++ -*----------------------------------*\
| =========                 |                                                 |
| \\      /  F ield         | OpenFOAM: The Open Source CFD Toolbox           |
|  \\    /   O peration     | Version:  2.1.1                                 |
|   \\  /    A nd           | Web:      www.OpenFOAM.org                      |
|    \\/     M anipulation  |                                                 |
\*---------------------------------------------------------------------------*/
FoamFile
{
    version     2.0;
    format      ascii;
    class       volVectorField;
    location    "0.055";
    object      U;
}
// * * * * * * * * * * * * * * * * * * * * * * * * * * * * * * * * * * * * * //

dimensions      [0 1 -1 0 0 0 0];

internalField   nonuniform List<vector> 
6820
(
(8.34337 -0.360072 0)
(8.40105 -0.247133 0)
(8.35594 -0.115269 0)
(8.24749 -0.036523 0)
(8.11884 0.00605775 0)
(7.98515 0.0279382 0)
(7.85272 0.0387284 0)
(7.72494 0.0434495 0)
(7.60321 0.0447435 0)
(7.48807 0.0440687 0)
(7.37974 0.0422678 0)
(7.27824 0.0398466 0)
(7.18342 0.0371178 0)
(7.09507 0.0342791 0)
(7.01286 0.0314563 0)
(6.93646 0.0287299 0)
(6.86547 0.0261504 0)
(6.79949 0.0237489 0)
(6.7381 0.0215438 0)
(6.68089 0.0195461 0)
(6.62742 0.0177623 0)
(6.57727 0.0161982 0)
(6.53 0.0148609 0)
(6.48515 0.0137618 0)
(6.44225 0.0129198 0)
(6.40076 0.0123675 0)
(6.36008 0.0121558 0)
(6.31945 0.0123833 0)
(6.27796 0.0131906 0)
(6.23421 0.0149427 0)
(6.18577 0.0183937 0)
(6.13017 0.0240321 0)
(6.05434 0.0448961 0)
(8.32138 0.16626 0)
(8.28708 0.190032 0)
(8.2854 0.132201 0)
(8.31733 0.0959397 0)
(8.36158 0.0751281 0)
(8.40155 0.0624896 0)
(8.43253 0.0550347 0)
(8.45447 0.0505449 0)
(8.46823 0.0476798 0)
(8.47481 0.0457272 0)
(8.47524 0.0442931 0)
(8.47046 0.0431415 0)
(8.46128 0.0421357 0)
(8.44843 0.0412016 0)
(8.43253 0.0403019 0)
(8.41414 0.0394222 0)
(8.39371 0.0385616 0)
(8.37165 0.0377275 0)
(8.3483 0.0369326 0)
(8.32393 0.0361934 0)
(8.29877 0.0355297 0)
(8.27302 0.0349654 0)
(8.2468 0.0345298 0)
(8.22023 0.0342593 0)
(8.19337 0.0342027 0)
(8.16625 0.0344259 0)
(8.13888 0.0350247 0)
(8.11118 0.0361467 0)
(8.08327 0.0380063 0)
(8.05463 0.0410933 0)
(8.02724 0.0458152 0)
(7.99701 0.0547105 0)
(7.98535 0.0673094 0)
(8.3225 -0.0608744 0)
(8.31395 -0.0832438 0)
(8.33043 -0.0540352 0)
(8.34416 -0.0202098 0)
(8.35293 0.00253589 0)
(8.36182 0.0167021 0)
(8.3714 0.0259859 0)
(8.38125 0.0322536 0)
(8.39088 0.0365301 0)
(8.3999 0.0394622 0)
(8.40806 0.0414466 0)
(8.41523 0.0427299 0)
(8.42134 0.0434891 0)
(8.42636 0.0438588 0)
(8.4303 0.0439429 0)
(8.43319 0.0438231 0)
(8.43508 0.0435651 0)
(8.43601 0.0432238 0)
(8.43602 0.0428459 0)
(8.43517 0.0424729 0)
(8.43349 0.0421442 0)
(8.43101 0.041899 0)
(8.42777 0.0417795 0)
(8.42376 0.0418338 0)
(8.419 0.0421218 0)
(8.41346 0.0427186 0)
(8.40713 0.0437322 0)
(8.39993 0.0452925 0)
(8.39189 0.0476583 0)
(8.38287 0.0509519 0)
(8.37336 0.0561317 0)
(8.36281 0.0616805 0)
(8.35381 0.0727798 0)
(8.33365 0.0145824 0)
(8.32973 0.0477618 0)
(8.32728 0.0540829 0)
(8.32853 0.0466958 0)
(8.3343 0.0412415 0)
(8.34169 0.03879 0)
(8.34901 0.0380372 0)
(8.35603 0.0380567 0)
(8.36278 0.0383494 0)
(8.36922 0.0386972 0)
(8.37533 0.0390042 0)
(8.38107 0.0392323 0)
(8.38642 0.0393754 0)
(8.39136 0.0394414 0)
(8.39587 0.039444 0)
(8.39994 0.0394008 0)
(8.40356 0.0393323 0)
(8.40673 0.0392607 0)
(8.40944 0.0392104 0)
(8.4117 0.0392078 0)
(8.4135 0.0392828 0)
(8.41482 0.0394695 0)
(8.41567 0.0398088 0)
(8.41603 0.0403509 0)
(8.41586 0.0411597 0)
(8.41515 0.042317 0)
(8.41387 0.0439348 0)
(8.41197 0.0461538 0)
(8.4095 0.0491884 0)
(8.4064 0.0532462 0)
(8.40306 0.058764 0)
(8.39928 0.06567 0)
(8.39651 0.075053 0)
(8.3302 -0.00528809 0)
(8.32719 -0.00744292 0)
(8.33128 -0.00232199 0)
(8.33586 0.00822313 0)
(8.33982 0.0174527 0)
(8.34384 0.0237302 0)
(8.34808 0.0279827 0)
(8.35252 0.0310238 0)
(8.3571 0.0332567 0)
(8.36169 0.0349159 0)
(8.3662 0.0361494 0)
(8.37057 0.0370552 0)
(8.37478 0.0377042 0)
(8.37878 0.0381532 0)
(8.38255 0.0384508 0)
(8.38607 0.0386405 0)
(8.38933 0.0387617 0)
(8.39232 0.0388515 0)
(8.39503 0.0389456 0)
(8.39744 0.0390797 0)
(8.39954 0.0392912 0)
(8.40132 0.0396211 0)
(8.40276 0.0401162 0)
(8.40384 0.0408318 0)
(8.40455 0.0418361 0)
(8.40485 0.0432132 0)
(8.40473 0.0450731 0)
(8.40419 0.0475463 0)
(8.40326 0.0508218 0)
(8.40195 0.0550537 0)
(8.40051 0.0605866 0)
(8.39898 0.0672741 0)
(8.39794 0.0758679 0)
(8.33238 0.00231987 0)
(8.33115 0.0133966 0)
(8.3327 0.0205404 0)
(8.33531 0.0240026 0)
(8.33864 0.0262302 0)
(8.34255 0.0281171 0)
(8.3466 0.0298797 0)
(8.35063 0.0314695 0)
(8.35463 0.0328087 0)
(8.35857 0.0338894 0)
(8.36242 0.0347376 0)
(8.36616 0.0353853 0)
(8.36976 0.0358663 0)
(8.37322 0.0362156 0)
(8.37651 0.0364673 0)
(8.37962 0.0366541 0)
(8.38254 0.0368074 0)
(8.38525 0.0369587 0)
(8.38776 0.0371395 0)
(8.39003 0.0373832 0)
(8.39208 0.0377259 0)
(8.39388 0.038208 0)
(8.39541 0.0388765 0)
(8.39667 0.0397871 0)
(8.39765 0.0410078 0)
(8.39833 0.0426209 0)
(8.39871 0.0447299 0)
(8.3988 0.0474555 0)
(8.39865 0.0509546 0)
(8.39832 0.0553682 0)
(8.39799 0.0609194 0)
(8.39775 0.0676116 0)
(8.39793 0.075772 0)
(8.33232 0.000915119 0)
(8.33149 0.0059098 0)
(8.33332 0.0109624 0)
(8.33627 0.0158401 0)
(8.33955 0.0203072 0)
(8.34306 0.0239071 0)
(8.34662 0.0266887 0)
(8.35019 0.0288491 0)
(8.35375 0.0305279 0)
(8.35726 0.0318307 0)
(8.36071 0.0328386 0)
(8.36406 0.0336121 0)
(8.3673 0.0342003 0)
(8.37042 0.0346458 0)
(8.3734 0.0349874 0)
(8.37623 0.0352605 0)
(8.37891 0.0354994 0)
(8.38142 0.0357373 0)
(8.38376 0.036008 0)
(8.38591 0.0363466 0)
(8.38788 0.036791 0)
(8.38965 0.0373832 0)
(8.39121 0.0381713 0)
(8.39256 0.0392114 0)
(8.3937 0.0405701 0)
(8.39463 0.0423259 0)
(8.39535 0.0445739 0)
(8.39591 0.0474214 0)
(8.39635 0.0509983 0)
(8.39675 0.0554233 0)
(8.39725 0.0608537 0)
(8.39799 0.0673325 0)
(8.39917 0.0750262 0)
(8.33272 0.00175301 0)
(8.33252 0.00742217 0)
(8.33408 0.0128042 0)
(8.33658 0.0171626 0)
(8.33949 0.0207121 0)
(8.34273 0.0235426 0)
(8.34611 0.0258202 0)
(8.34952 0.0276815 0)
(8.3529 0.0291895 0)
(8.35623 0.0303946 0)
(8.35948 0.0313472 0)
(8.36264 0.0320929 0)
(8.36569 0.0326727 0)
(8.36862 0.033125 0)
(8.37143 0.0334857 0)
(8.3741 0.0337889 0)
(8.37664 0.0340678 0)
(8.37904 0.0343551 0)
(8.38128 0.0346843 0)
(8.38338 0.0350902 0)
(8.38532 0.0356107 0)
(8.38709 0.0362874 0)
(8.38871 0.0371678 0)
(8.39017 0.0383059 0)
(8.39147 0.0397649 0)
(8.39264 0.0416176 0)
(8.39369 0.0439486 0)
(8.39466 0.0468509 0)
(8.39562 0.0504304 0)
(8.39665 0.0547851 0)
(8.39789 0.0600271 0)
(8.39947 0.066211 0)
(8.40154 0.0734219 0)
(8.33284 0.00184032 0)
(8.3329 0.00661714 0)
(8.33434 0.0112348 0)
(8.33667 0.0152324 0)
(8.33942 0.018712 0)
(8.34247 0.0216283 0)
(8.34567 0.0240112 0)
(8.3489 0.0259471 0)
(8.35212 0.0275054 0)
(8.3553 0.0287484 0)
(8.35842 0.0297344 0)
(8.36145 0.0305133 0)
(8.36438 0.0311284 0)
(8.36721 0.031619 0)
(8.36992 0.0320214 0)
(8.37252 0.0323699 0)
(8.37498 0.0326976 0)
(8.37733 0.0330374 0)
(8.37954 0.0334227 0)
(8.38163 0.0338885 0)
(8.38359 0.034472 0)
(8.38542 0.0352144 0)
(8.38713 0.0361612 0)
(8.38872 0.037364 0)
(8.39022 0.0388811 0)
(8.39164 0.0407782 0)
(8.39301 0.0431288 0)
(8.39439 0.0460118 0)
(8.39584 0.0495113 0)
(8.39746 0.0537056 0)
(8.39935 0.0586736 0)
(8.40167 0.0644634 0)
(8.40454 0.071114 0)
(8.33293 0.00188845 0)
(8.3332 0.00631201 0)
(8.33454 0.010638 0)
(8.33667 0.0144232 0)
(8.33921 0.0176862 0)
(8.34205 0.0204186 0)
(8.34507 0.0226643 0)
(8.34815 0.0245058 0)
(8.35124 0.0260075 0)
(8.35432 0.0272218 0)
(8.35733 0.0281981 0)
(8.36028 0.0289806 0)
(8.36314 0.029609 0)
(8.3659 0.0301203 0)
(8.36857 0.0305494 0)
(8.37112 0.0309293 0)
(8.37357 0.0312924 0)
(8.3759 0.0316709 0)
(8.37813 0.0320976 0)
(8.38025 0.0326066 0)
(8.38227 0.033234 0)
(8.38419 0.0340193 0)
(8.38602 0.0350054 0)
(8.38778 0.0362401 0)
(8.38949 0.0377758 0)
(8.39118 0.0396703 0)
(8.39289 0.0419857 0)
(8.39466 0.0447867 0)
(8.39659 0.0481388 0)
(8.39874 0.0521012 0)
(8.40124 0.0567273 0)
(8.40422 0.0620514 0)
(8.4078 0.0680831 0)
(8.33298 0.00185804 0)
(8.33335 0.0059036 0)
(8.33461 0.00984126 0)
(8.33656 0.0133395 0)
(8.33893 0.0163925 0)
(8.34159 0.0189954 0)
(8.34444 0.0211689 0)
(8.34738 0.0229692 0)
(8.35035 0.0244484 0)
(8.35331 0.0256535 0)
(8.35624 0.0266305 0)
(8.35911 0.0274214 0)
(8.36191 0.0280648 0)
(8.36463 0.0285963 0)
(8.36726 0.0290497 0)
(8.36979 0.0294571 0)
(8.37224 0.02985 0)
(8.37459 0.0302595 0)
(8.37686 0.0307175 0)
(8.37904 0.0312567 0)
(8.38114 0.0319116 0)
(8.38317 0.0327191 0)
(8.38515 0.033719 0)
(8.3871 0.0349543 0)
(8.38903 0.0364712 0)
(8.391 0.0383188 0)
(8.39303 0.0405484 0)
(8.3952 0.0432109 0)
(8.39756 0.0463553 0)
(8.40022 0.0500234 0)
(8.40326 0.0542483 0)
(8.40682 0.0590481 0)
(8.41099 0.0644123 0)
(8.33301 0.00178617 0)
(8.33344 0.0055172 0)
(8.33462 0.00913712 0)
(8.33642 0.0123939 0)
(8.33863 0.0152551 0)
(8.34112 0.0177142 0)
(8.34381 0.0197852 0)
(8.3466 0.0215123 0)
(8.34945 0.022942 0)
(8.3523 0.0241168 0)
(8.35514 0.025078 0)
(8.35794 0.0258642 0)
(8.36068 0.0265111 0)
(8.36336 0.0270524 0)
(8.36597 0.0275199 0)
(8.3685 0.0279444 0)
(8.37095 0.0283559 0)
(8.37333 0.0287842 0)
(8.37565 0.0292595 0)
(8.37789 0.0298126 0)
(8.38009 0.0304759 0)
(8.38225 0.0312831 0)
(8.38438 0.0322702 0)
(8.38652 0.0334749 0)
(8.38869 0.0349366 0)
(8.39092 0.036696 0)
(8.39327 0.0387937 0)
(8.3958 0.0412681 0)
(8.39857 0.0441535 0)
(8.40167 0.0474765 0)
(8.40519 0.0512534 0)
(8.40924 0.0554874 0)
(8.41391 0.0601537 0)
(8.33303 0.00168987 0)
(8.33347 0.00513044 0)
(8.33459 0.00845048 0)
(8.33626 0.0114638 0)
(8.33831 0.0141294 0)
(8.34065 0.0164404 0)
(8.34319 0.0184058 0)
(8.34585 0.0200585 0)
(8.34857 0.0214368 0)
(8.35132 0.0225778 0)
(8.35407 0.0235183 0)
(8.3568 0.0242937 0)
(8.35949 0.0249373 0)
(8.36213 0.0254807 0)
(8.36471 0.025954 0)
(8.36723 0.0263861 0)
(8.3697 0.0268056 0)
(8.37211 0.0272405 0)
(8.37448 0.027719 0)
(8.3768 0.0282698 0)
(8.37909 0.0289224 0)
(8.38137 0.0297072 0)
(8.38366 0.0306555 0)
(8.38598 0.0317998 0)
(8.38837 0.0331726 0)
(8.39086 0.0348062 0)
(8.3935 0.0367313 0)
(8.39635 0.0389749 0)
(8.39948 0.0415588 0)
(8.40297 0.0444964 0)
(8.40688 0.0477904 0)
(8.41134 0.0514316 0)
(8.4164 0.0553854 0)
(8.33303 0.0015807 0)
(8.33348 0.00475074 0)
(8.33453 0.00779588 0)
(8.33608 0.0105788 0)
(8.338 0.0130561 0)
(8.3402 0.0152188 0)
(8.3426 0.0170721 0)
(8.34513 0.018641 0)
(8.34774 0.0199573 0)
(8.35039 0.0210539 0)
(8.35305 0.0219635 0)
(8.35571 0.0227182 0)
(8.35834 0.0233488 0)
(8.36094 0.0238844 0)
(8.3635 0.0243531 0)
(8.36602 0.024782 0)
(8.36849 0.0251975 0)
(8.37094 0.0256256 0)
(8.37335 0.0260924 0)
(8.37574 0.0266238 0)
(8.37812 0.0272463 0)
(8.38052 0.0279864 0)
(8.38295 0.028871 0)
(8.38544 0.0299266 0)
(8.38803 0.0311795 0)
(8.39075 0.0326537 0)
(8.39365 0.0343711 0)
(8.39679 0.0363486 0)
(8.40022 0.0385973 0)
(8.40402 0.0411197 0)
(8.40826 0.0439078 0)
(8.41303 0.0469428 0)
(8.41837 0.0501838 0)
(8.33304 0.00146562 0)
(8.33348 0.00437874 0)
(8.33446 0.00716647 0)
(8.33591 0.00972657 0)
(8.33771 0.012018 0)
(8.33977 0.0140301 0)
(8.34204 0.0157661 0)
(8.34445 0.0172448 0)
(8.34695 0.0184924 0)
(8.34951 0.0195372 0)
(8.35209 0.0204081 0)
(8.35467 0.0211342 0)
(8.35725 0.0217431 0)
(8.35981 0.0222618 0)
(8.36235 0.0227161 0)
(8.36486 0.023131 0)
(8.36734 0.0235306 0)
(8.36981 0.0239389 0)
(8.37226 0.0243792 0)
(8.37472 0.0248746 0)
(8.37719 0.0254483 0)
(8.37969 0.0261227 0)
(8.38225 0.0269202 0)
(8.38489 0.0278618 0)
(8.38766 0.0289672 0)
(8.39057 0.0302535 0)
(8.39369 0.0317342 0)
(8.39707 0.0334178 0)
(8.40074 0.0353064 0)
(8.40479 0.037394 0)
(8.40927 0.0396645 0)
(8.41426 0.0420919 0)
(8.41979 0.0446324 0)
(8.33304 0.00134876 0)
(8.33346 0.00401575 0)
(8.33439 0.00656075 0)
(8.33575 0.0089063 0)
(8.33743 0.0110155 0)
(8.33938 0.0128769 0)
(8.34153 0.0144917 0)
(8.34382 0.0158742 0)
(8.34622 0.0170459 0)
(8.34868 0.018031 0)
(8.35118 0.018855 0)
(8.3537 0.0195436 0)
(8.35623 0.0201218 0)
(8.35875 0.0206141 0)
(8.36126 0.0210439 0)
(8.36376 0.0214338 0)
(8.36625 0.0218058 0)
(8.36873 0.0221811 0)
(8.37123 0.0225805 0)
(8.37374 0.023024 0)
(8.37628 0.0235312 0)
(8.37887 0.0241207 0)
(8.38154 0.0248101 0)
(8.38432 0.0256153 0)
(8.38723 0.02655 0)
(8.39031 0.0276248 0)
(8.3936 0.0288463 0)
(8.39716 0.0302158 0)
(8.40102 0.0317283 0)
(8.40525 0.033371 0)
(8.40989 0.0351222 0)
(8.41501 0.0369514 0)
(8.42064 0.038814 0)
(8.33304 0.00123248 0)
(8.33344 0.00366227 0)
(8.33432 0.00597624 0)
(8.33559 0.00811426 0)
(8.33717 0.0100442 0)
(8.33901 0.0117542 0)
(8.34105 0.0132444 0)
(8.34324 0.0145253 0)
(8.34554 0.0156146 0)
(8.34792 0.0165329 0)
(8.35034 0.0173022 0)
(8.3528 0.0179452 0)
(8.35527 0.0184842 0)
(8.35775 0.0189409 0)
(8.36024 0.0193364 0)
(8.36272 0.0196909 0)
(8.36521 0.0200238 0)
(8.36772 0.0203538 0)
(8.37024 0.0206988 0)
(8.37279 0.0210756 0)
(8.37539 0.0215004 0)
(8.37806 0.0219878 0)
(8.38082 0.022551 0)
(8.3837 0.023201 0)
(8.38673 0.0239462 0)
(8.38993 0.0247916 0)
(8.39336 0.0257379 0)
(8.39705 0.0267806 0)
(8.40103 0.0279092 0)
(8.40537 0.029106 0)
(8.4101 0.0303456 0)
(8.41528 0.0315949 0)
(8.42091 0.0328105 0)
(8.33304 0.00111803 0)
(8.33342 0.00331838 0)
(8.33425 0.0054109 0)
(8.33544 0.00734767 0)
(8.33694 0.0091011 0)
(8.33868 0.0106597 0)
(8.34062 0.0120223 0)
(8.34271 0.0131971 0)
(8.34492 0.0141981 0)
(8.34721 0.0150427 0)
(8.34957 0.0157499 0)
(8.35196 0.0163394 0)
(8.35438 0.0168307 0)
(8.35682 0.017243 0)
(8.35928 0.0175949 0)
(8.36175 0.0179039 0)
(8.36423 0.018187 0)
(8.36674 0.0184602 0)
(8.36929 0.0187383 0)
(8.37188 0.0190352 0)
(8.37452 0.0193635 0)
(8.37725 0.0197342 0)
(8.38008 0.0201562 0)
(8.38303 0.0206362 0)
(8.38614 0.0211779 0)
(8.38944 0.0217816 0)
(8.39295 0.0224431 0)
(8.39672 0.0231533 0)
(8.40077 0.0238978 0)
(8.40516 0.0246557 0)
(8.40991 0.0253994 0)
(8.41506 0.0260949 0)
(8.42063 0.0267013 0)
(8.33303 0.001006 0)
(8.3334 0.00298382 0)
(8.33418 0.00486281 0)
(8.33531 0.00660376 0)
(8.33672 0.00818317 0)
(8.33837 0.00959009 0)
(8.34022 0.0108227 0)
(8.34223 0.011887 0)
(8.34435 0.0127942 0)
(8.34657 0.0135588 0)
(8.34885 0.0141969 0)
(8.35118 0.0147254 0)
(8.35355 0.0151611 0)
(8.35595 0.0155207 0)
(8.35838 0.0158201 0)
(8.36083 0.0160743 0)
(8.36331 0.0162978 0)
(8.36582 0.0165036 0)
(8.36837 0.0167039 0)
(8.37098 0.0169095 0)
(8.37366 0.0171296 0)
(8.37643 0.0173716 0)
(8.3793 0.0176409 0)
(8.3823 0.0179402 0)
(8.38546 0.0182693 0)
(8.3888 0.0186244 0)
(8.39236 0.0189975 0)
(8.39616 0.0193765 0)
(8.40023 0.0197438 0)
(8.4046 0.0200768 0)
(8.40931 0.0203471 0)
(8.41437 0.0205213 0)
(8.41981 0.0205614 0)
(8.33303 0.000896592 0)
(8.33338 0.00265811 0)
(8.33412 0.00433015 0)
(8.33519 0.00587996 0)
(8.33652 0.00728754 0)
(8.3381 0.00854273 0)
(8.33986 0.0096432 0)
(8.34178 0.0105932 0)
(8.34383 0.0114018 0)
(8.34597 0.0120807 0)
(8.34819 0.0126434 0)
(8.35046 0.013104 0)
(8.35278 0.013477 0)
(8.35514 0.0137761 0)
(8.35753 0.014015 0)
(8.35996 0.0142061 0)
(8.36242 0.0143611 0)
(8.36493 0.0144906 0)
(8.36748 0.0146039 0)
(8.3701 0.0147087 0)
(8.37279 0.0148114 0)
(8.37558 0.014916 0)
(8.37847 0.0150246 0)
(8.38149 0.0151367 0)
(8.38467 0.0152486 0)
(8.38803 0.0153535 0)
(8.39158 0.0154406 0)
(8.39536 0.0154954 0)
(8.3994 0.0154986 0)
(8.4037 0.015427 0)
(8.40831 0.0152523 0)
(8.41323 0.0149423 0)
(8.41847 0.0144631 0)
(8.33303 0.000789774 0)
(8.33336 0.00234056 0)
(8.33406 0.00381117 0)
(8.33507 0.00517378 0)
(8.33635 0.00641129 0)
(8.33785 0.00751445 0)
(8.33954 0.00848062 0)
(8.34138 0.0093128 0)
(8.34335 0.010018 0)
(8.34543 0.0106057 0)
(8.34758 0.0110869 0)
(8.3498 0.0114732 0)
(8.35207 0.0117765 0)
(8.35438 0.0120083 0)
(8.35674 0.0121794 0)
(8.35914 0.0123 0)
(8.36158 0.0123792 0)
(8.36407 0.0124248 0)
(8.36661 0.0124437 0)
(8.36922 0.0124407 0)
(8.37191 0.0124194 0)
(8.37469 0.012381 0)
(8.37758 0.0123248 0)
(8.3806 0.0122473 0)
(8.38376 0.0121423 0)
(8.38709 0.0120005 0)
(8.39061 0.0118094 0)
(8.39433 0.0115527 0)
(8.39828 0.0112106 0)
(8.40247 0.0107598 0)
(8.40693 0.0101732 0)
(8.41165 0.00942064 0)
(8.41665 0.00847205 0)
(8.33303 0.000685397 0)
(8.33334 0.00203045 0)
(8.33401 0.00330436 0)
(8.33497 0.00448319 0)
(8.33618 0.00555236 0)
(8.33762 0.00650361 0)
(8.33924 0.00733414 0)
(8.34101 0.00804597 0)
(8.34292 0.00864435 0)
(8.34493 0.00913664 0)
(8.34702 0.00953152 0)
(8.34918 0.00983835 0)
(8.3514 0.0100665 0)
(8.35368 0.0102251 0)
(8.356 0.0103226 0)
(8.35836 0.0103667 0)
(8.36077 0.0103641 0)
(8.36324 0.0103203 0)
(8.36576 0.0102393 0)
(8.36835 0.0101238 0)
(8.37101 0.00997472 0)
(8.37377 0.00979082 0)
(8.37663 0.0095689 0)
(8.37961 0.0093033 0)
(8.38273 0.00898582 0)
(8.386 0.00860547 0)
(8.38944 0.00814836 0)
(8.39307 0.00759764 0)
(8.39689 0.00693349 0)
(8.40092 0.00613326 0)
(8.40518 0.00517154 0)
(8.40967 0.00402056 0)
(8.41438 0.00265426 0)
(8.33303 0.000583239 0)
(8.33333 0.00172691 0)
(8.33396 0.00280783 0)
(8.33488 0.00380515 0)
(8.33604 0.00470641 0)
(8.33741 0.00550438 0)
(8.33897 0.00619635 0)
(8.34068 0.00678372 0)
(8.34252 0.00727046 0)
(8.34447 0.00766209 0)
(8.34651 0.0079653 0)
(8.34862 0.00818721 0)
(8.35079 0.00833492 0)
(8.35302 0.00841519 0)
(8.35529 0.00843414 0)
(8.35762 0.00839716 0)
(8.35999 0.00830862 0)
(8.36242 0.0081717 0)
(8.36491 0.00798817 0)
(8.36746 0.00775847 0)
(8.37009 0.00748114 0)
(8.3728 0.00715295 0)
(8.37561 0.00676869 0)
(8.37853 0.00632097 0)
(8.38158 0.00580012 0)
(8.38476 0.00519405 0)
(8.38809 0.00448823 0)
(8.39158 0.00366573 0)
(8.39524 0.00270726 0)
(8.39907 0.0015914 0)
(8.4031 0.000294754 0)
(8.40731 -0.00120781 0)
(8.4117 -0.00293843 0)
(8.33303 0.000483099 0)
(8.33331 0.00142951 0)
(8.33392 0.00232136 0)
(8.3348 0.00314059 0)
(8.33591 0.00387668 0)
(8.33722 0.00452344 0)
(8.33873 0.00507817 0)
(8.34038 0.00554171 0)
(8.34216 0.00591645 0)
(8.34406 0.00620602 0)
(8.34604 0.00641521 0)
(8.3481 0.00654926 0)
(8.35022 0.00661319 0)
(8.3524 0.0066117 0)
(8.35463 0.00654869 0)
(8.35691 0.00642731 0)
(8.35924 0.00624984 0)
(8.36162 0.0060174 0)
(8.36406 0.00572975 0)
(8.36656 0.00538553 0)
(8.36914 0.00498119 0)
(8.37179 0.00451184 0)
(8.37453 0.00397078 0)
(8.37736 0.00334931 0)
(8.38031 0.00263681 0)
(8.38337 0.00182062 0)
(8.38656 0.000886076 0)
(8.38988 -0.000183371 0)
(8.39334 -0.00140607 0)
(8.39695 -0.00280187 0)
(8.40071 -0.00439196 0)
(8.40461 -0.00619874 0)
(8.40866 -0.00824065 0)
(8.33303 0.000384634 0)
(8.3333 0.0011363 0)
(8.33388 0.00183954 0)
(8.33472 0.00247831 0)
(8.33579 0.00304405 0)
(8.33706 0.00353224 0)
(8.33851 0.00394092 0)
(8.34011 0.00427175 0)
(8.34184 0.00452671 0)
(8.34368 0.00470789 0)
(8.34561 0.00481812 0)
(8.34762 0.00486042 0)
(8.34969 0.0048376 0)
(8.35182 0.00475216 0)
(8.354 0.00460587 0)
(8.35623 0.00440007 0)
(8.35851 0.00413498 0)
(8.36084 0.00380948 0)
(8.36322 0.00342096 0)
(8.36566 0.00296771 0)
(8.36816 0.0024436 0)
(8.37073 0.0018423 0)
(8.37337 0.00115607 0)
(8.3761 0.000375431 0)
(8.37892 -0.000510849 0)
(8.38184 -0.00151559 0)
(8.38486 -0.00265317 0)
(8.38799 -0.00393941 0)
(8.39122 -0.0053914 0)
(8.39458 -0.00702724 0)
(8.39804 -0.00886581 0)
(8.40162 -0.0109268 0)
(8.4053 -0.0132251 0)
(8.33302 0.000288184 0)
(8.33328 0.000851282 0)
(8.33384 0.00137494 0)
(8.33464 0.00184496 0)
(8.33567 0.00225396 0)
(8.3369 0.00259772 0)
(8.3383 0.00287393 0)
(8.33986 0.00308325 0)
(8.34154 0.00322479 0)
(8.34334 0.0032996 0)
(8.34522 0.00331036 0)
(8.34718 0.00325907 0)
(8.3492 0.0031469 0)
(8.35128 0.00297506 0)
(8.35341 0.0027424 0)
(8.35559 0.00244839 0)
(8.35781 0.0020924 0)
(8.36007 0.00167199 0)
(8.36239 0.00118395 0)
(8.36475 0.000621437 0)
(8.36716 -1.99441e-05 0)
(8.36963 -0.000747514 0)
(8.37217 -0.0015702 0)
(8.37477 -0.00249805 0)
(8.37744 -0.00354251 0)
(8.38019 -0.00471623 0)
(8.38302 -0.00603304 0)
(8.38593 -0.00750776 0)
(8.38892 -0.00915609 0)
(8.392 -0.0109943 0)
(8.39515 -0.0130389 0)
(8.39838 -0.015307 0)
(8.40168 -0.0178106 0)
(8.33302 0.000191446 0)
(8.33328 0.000557967 0)
(8.33381 0.000883239 0)
(8.33459 0.0011561 0)
(8.33559 0.00137424 0)
(8.33678 0.00153811 0)
(8.33814 0.00164647 0)
(8.33965 0.00171005 0)
(8.34129 0.00172696 0)
(8.34304 0.00169156 0)
(8.34487 0.00160295 0)
(8.34678 0.00146081 0)
(8.34875 0.0012644 0)
(8.35078 0.0010119 0)
(8.35285 0.000702779 0)
(8.35497 0.000334171 0)
(8.35712 -9.82834e-05 0)
(8.35932 -0.000598628 0)
(8.36155 -0.00117124 0)
(8.36382 -0.00182418 0)
(8.36614 -0.00256281 0)
(8.3685 -0.00339519 0)
(8.37091 -0.00433076 0)
(8.37336 -0.00537985 0)
(8.37587 -0.00655371 0)
(8.37844 -0.00786455 0)
(8.38106 -0.00932539 0)
(8.38373 -0.0109499 0)
(8.38646 -0.0127522 0)
(8.38924 -0.0147467 0)
(8.39207 -0.0169477 0)
(8.39494 -0.0193698 0)
(8.39785 -0.0220222 0)
(8.33302 0.00010396 0)
(8.33325 0.000311507 0)
(8.33375 0.000495345 0)
(8.33449 0.000639453 0)
(8.33545 0.000737622 0)
(8.3366 0.000786907 0)
(8.33794 0.000789363 0)
(8.33943 0.000733845 0)
(8.34105 0.000625581 0)
(8.34276 0.000472027 0)
(8.34455 0.000272749 0)
(8.34642 2.57736e-05 0)
(8.34835 -0.000270696 0)
(8.35033 -0.000619691 0)
(8.35235 -0.00102288 0)
(8.35441 -0.0014843 0)
(8.35649 -0.00200949 0)
(8.35861 -0.00260367 0)
(8.36076 -0.00327316 0)
(8.36293 -0.00402324 0)
(8.36513 -0.00486288 0)
(8.36737 -0.0058007 0)
(8.36964 -0.006846 0)
(8.37193 -0.00800901 0)
(8.37427 -0.00930071 0)
(8.37663 -0.0107327 0)
(8.37902 -0.0123172 0)
(8.38145 -0.0140666 0)
(8.3839 -0.0159935 0)
(8.38638 -0.0181106 0)
(8.38887 -0.0204303 0)
(8.39138 -0.0229648 0)
(8.39389 -0.025721 0)
(8.33303 -8.97639e-06 0)
(8.33328 -5.27486e-05 0)
(8.33378 -0.000142734 0)
(8.33451 -0.000274128 0)
(8.33545 -0.00043282 0)
(8.33657 -0.000609659 0)
(8.33786 -0.00079827 0)
(8.33928 -0.00101093 0)
(8.34084 -0.00124693 0)
(8.34251 -0.00150386 0)
(8.34426 -0.00178701 0)
(8.34608 -0.00210267 0)
(8.34796 -0.00245682 0)
(8.34988 -0.00285499 0)
(8.35184 -0.00330444 0)
(8.35383 -0.00381128 0)
(8.35584 -0.0043811 0)
(8.35788 -0.00502058 0)
(8.35993 -0.00573704 0)
(8.362 -0.00653802 0)
(8.36409 -0.00743208 0)
(8.36619 -0.00842809 0)
(8.36831 -0.00953542 0)
(8.37044 -0.010764 0)
(8.37258 -0.0121244 0)
(8.37474 -0.0136272 0)
(8.3769 -0.0152835 0)
(8.37907 -0.0171044 0)
(8.38124 -0.0191009 0)
(8.3834 -0.0212839 0)
(8.38556 -0.0236637 0)
(8.3877 -0.0262504 0)
(8.38982 -0.0290489 0)
(8.333 -4.64673e-05 0)
(8.33316 -0.00010815 0)
(8.33358 -0.000183702 0)
(8.33426 -0.000310105 0)
(8.33518 -0.000498402 0)
(8.33631 -0.000745151 0)
(8.33762 -0.00104332 0)
(8.33907 -0.00137413 0)
(8.34064 -0.00173378 0)
(8.34231 -0.00212473 0)
(8.34406 -0.00254709 0)
(8.34586 -0.00300202 0)
(8.3477 -0.00349246 0)
(8.34958 -0.00402266 0)
(8.35149 -0.00459781 0)
(8.35341 -0.00522362 0)
(8.35535 -0.00590663 0)
(8.3573 -0.0066542 0)
(8.35925 -0.0074741 0)
(8.36121 -0.00837449 0)
(8.36317 -0.00936407 0)
(8.36512 -0.010452 0)
(8.36708 -0.0116478 0)
(8.36903 -0.0129613 0)
(8.37097 -0.0144026 0)
(8.37291 -0.0159817 0)
(8.37483 -0.017709 0)
(8.37673 -0.0195945 0)
(8.37861 -0.021648 0)
(8.38046 -0.023879 0)
(8.38228 -0.0262962 0)
(8.38406 -0.0289083 0)
(8.38578 -0.0317185 0)
(8.33306 -0.00026006 0)
(8.33336 -0.00085902 0)
(8.33385 -0.00153537 0)
(8.33451 -0.00221919 0)
(8.33536 -0.00285729 0)
(8.33639 -0.00343177 0)
(8.33761 -0.00394582 0)
(8.33897 -0.0044115 0)
(8.34047 -0.00484564 0)
(8.34207 -0.00526393 0)
(8.34375 -0.00568003 0)
(8.3455 -0.00610688 0)
(8.34729 -0.0065564 0)
(8.34911 -0.00703918 0)
(8.35096 -0.00756502 0)
(8.35281 -0.00814297 0)
(8.35468 -0.00878154 0)
(8.35654 -0.00948899 0)
(8.3584 -0.0102735 0)
(8.36025 -0.0111434 0)
(8.36208 -0.0121071 0)
(8.3639 -0.013173 0)
(8.3657 -0.01435 0)
(8.36748 -0.0156469 0)
(8.36923 -0.0170725 0)
(8.37095 -0.0186356 0)
(8.37263 -0.020345 0)
(8.37428 -0.0222092 0)
(8.37588 -0.0242364 0)
(8.37743 -0.0264341 0)
(8.37892 -0.0288094 0)
(8.38034 -0.0313689 0)
(8.3817 -0.0341145 0)
(8.33293 -1.07471e-05 0)
(8.33286 5.33337e-05 0)
(8.33312 3.5385e-05 0)
(8.33376 -0.000184126 0)
(8.33472 -0.000609503 0)
(8.33591 -0.0011826 0)
(8.33729 -0.00184292 0)
(8.3388 -0.0025478 0)
(8.3404 -0.00327228 0)
(8.34208 -0.00400355 0)
(8.3438 -0.00473663 0)
(8.34556 -0.00547199 0)
(8.34734 -0.00621372 0)
(8.34913 -0.00696819 0)
(8.35092 -0.0077432 0)
(8.35271 -0.00854734 0)
(8.35449 -0.00938967 0)
(8.35625 -0.0102796 0)
(8.35799 -0.0112266 0)
(8.35971 -0.0122404 0)
(8.3614 -0.0133305 0)
(8.36306 -0.0145065 0)
(8.36468 -0.015778 0)
(8.36626 -0.0171542 0)
(8.36779 -0.0186444 0)
(8.36928 -0.0202575 0)
(8.37071 -0.022002 0)
(8.37209 -0.0238861 0)
(8.3734 -0.0259174 0)
(8.37464 -0.0281028 0)
(8.3758 -0.0304488 0)
(8.37687 -0.032961 0)
(8.37786 -0.0356408 0)
(8.33317 -0.000729083 0)
(8.33369 -0.00253195 0)
(8.33411 -0.00441517 0)
(8.33454 -0.00600901 0)
(8.33514 -0.00724521 0)
(8.33599 -0.00818315 0)
(8.33709 -0.00889981 0)
(8.33838 -0.00946142 0)
(8.33983 -0.00992167 0)
(8.3414 -0.0103229 0)
(8.34305 -0.0106978 0)
(8.34475 -0.0110712 0)
(8.34649 -0.0114623 0)
(8.34825 -0.0118861 0)
(8.35001 -0.0123545 0)
(8.35176 -0.0128776 0)
(8.35349 -0.013464 0)
(8.3552 -0.0141215 0)
(8.35688 -0.0148575 0)
(8.35851 -0.015679 0)
(8.3601 -0.016593 0)
(8.36165 -0.0176062 0)
(8.36313 -0.0187254 0)
(8.36456 -0.0199575 0)
(8.36593 -0.021309 0)
(8.36723 -0.0227863 0)
(8.36845 -0.0243958 0)
(8.3696 -0.0261432 0)
(8.37065 -0.028034 0)
(8.37162 -0.0300731 0)
(8.37249 -0.0322648 0)
(8.37325 -0.0346132 0)
(8.37391 -0.0371179 0)
(8.33263 0.000607031 0)
(8.33173 0.00208634 0)
(8.33177 0.00304578 0)
(8.33268 0.00304871 0)
(8.33401 0.00227174 0)
(8.33554 0.00108618 0)
(8.33717 -0.000268466 0)
(8.33885 -0.00166878 0)
(8.34057 -0.00304947 0)
(8.34229 -0.00437675 0)
(8.34402 -0.0056379 0)
(8.34573 -0.00683357 0)
(8.34743 -0.00797182 0)
(8.34912 -0.00906454 0)
(8.35077 -0.0101254 0)
(8.3524 -0.0111685 0)
(8.35399 -0.0122081 0)
(8.35555 -0.0132578 0)
(8.35705 -0.0143305 0)
(8.35851 -0.0154387 0)
(8.35992 -0.0165938 0)
(8.36126 -0.0178069 0)
(8.36254 -0.0190882 0)
(8.36375 -0.0204474 0)
(8.36489 -0.0218936 0)
(8.36594 -0.023435 0)
(8.36691 -0.0250794 0)
(8.36778 -0.0268338 0)
(8.36856 -0.0287046 0)
(8.36923 -0.0306974 0)
(8.36979 -0.0328168 0)
(8.37023 -0.0350672 0)
(8.37056 -0.037449 0)
(8.33358 -0.00191375 0)
(8.33471 -0.00677052 0)
(8.3345 -0.0114739 0)
(8.33383 -0.0146211 0)
(8.33361 -0.0163527 0)
(8.33406 -0.0172685 0)
(8.335 -0.0177047 0)
(8.33627 -0.0178562 0)
(8.33777 -0.0178593 0)
(8.33941 -0.0178038 0)
(8.34114 -0.0177462 0)
(8.34292 -0.0177218 0)
(8.34472 -0.0177526 0)
(8.34651 -0.0178517 0)
(8.34828 -0.0180277 0)
(8.35001 -0.0182857 0)
(8.35169 -0.0186293 0)
(8.35332 -0.0190614 0)
(8.35488 -0.0195846 0)
(8.35637 -0.0202013 0)
(8.35779 -0.0209142 0)
(8.35913 -0.0217262 0)
(8.36038 -0.0226404 0)
(8.36154 -0.0236599 0)
(8.36261 -0.0247881 0)
(8.36358 -0.0260282 0)
(8.36443 -0.0273834 0)
(8.36518 -0.0288567 0)
(8.36581 -0.0304509 0)
(8.36632 -0.0321684 0)
(8.3667 -0.0340112 0)
(8.36695 -0.0359811 0)
(8.36706 -0.0380765 0)
(8.33162 0.00371972 0)
(8.32827 0.010318 0)
(8.32843 0.0135139 0)
(8.33103 0.0134994 0)
(8.33372 0.0115013 0)
(8.33599 0.00870454 0)
(8.33803 0.00574 0)
(8.33991 0.00285378 0)
(8.34166 0.000156298 0)
(8.34333 -0.00230657 0)
(8.34494 -0.00453148 0)
(8.3465 -0.00653674 0)
(8.34803 -0.00834933 0)
(8.34952 -0.00999901 0)
(8.35099 -0.0115153 0)
(8.35243 -0.0129261 0)
(8.35384 -0.0142567 0)
(8.3552 -0.0155298 0)
(8.35651 -0.0167658 0)
(8.35778 -0.0179828 0)
(8.35898 -0.0191969 0)
(8.36011 -0.0204222 0)
(8.36117 -0.0216717 0)
(8.36215 -0.0229567 0)
(8.36304 -0.0242873 0)
(8.36383 -0.0256726 0)
(8.36451 -0.0271206 0)
(8.36509 -0.0286384 0)
(8.36554 -0.0302322 0)
(8.36587 -0.0319074 0)
(8.36608 -0.0336685 0)
(8.36614 -0.0355192 0)
(8.36607 -0.0374606 0)
(8.3343 -0.00640285 0)
(8.33465 -0.0205921 0)
(8.3308 -0.0297657 0)
(8.32684 -0.0336905 0)
(8.32495 -0.0345526 0)
(8.32506 -0.0339778 0)
(8.3263 -0.0327773 0)
(8.3281 -0.0313525 0)
(8.33025 -0.0299268 0)
(8.33259 -0.0286177 0)
(8.33503 -0.0274785 0)
(8.33751 -0.0265277 0)
(8.33998 -0.025766 0)
(8.34241 -0.0251856 0)
(8.3448 -0.0247747 0)
(8.34711 -0.0245207 0)
(8.34935 -0.0244116 0)
(8.3515 -0.0244366 0)
(8.35356 -0.0245865 0)
(8.35552 -0.0248541 0)
(8.35737 -0.0252332 0)
(8.3591 -0.0257193 0)
(8.36073 -0.0263091 0)
(8.36222 -0.027 0)
(8.36359 -0.0277905 0)
(8.36483 -0.0286794 0)
(8.36593 -0.0296662 0)
(8.36688 -0.0307505 0)
(8.36769 -0.031932 0)
(8.36835 -0.0332108 0)
(8.36884 -0.0345865 0)
(8.36918 -0.0360593 0)
(8.36935 -0.0376265 0)
(8.32884 0.0226117 0)
(8.32236 0.0428178 0)
(8.3267 0.0440699 0)
(8.33336 0.0381332 0)
(8.33793 0.0307979 0)
(8.34085 0.0236739 0)
(8.34322 0.0170654 0)
(8.34547 0.0111415 0)
(8.34773 0.00595615 0)
(8.35006 0.00146004 0)
(8.35249 -0.00242885 0)
(8.35502 -0.00579418 0)
(8.35761 -0.00871543 0)
(8.36026 -0.011265 0)
(8.36293 -0.0135065 0)
(8.3656 -0.0154944 0)
(8.36826 -0.0172755 0)
(8.37087 -0.0188893 0)
(8.37342 -0.0203698 0)
(8.37589 -0.0217455 0)
(8.37828 -0.0230411 0)
(8.38057 -0.0242777 0)
(8.38275 -0.0254734 0)
(8.3848 -0.0266438 0)
(8.38673 -0.0278024 0)
(8.38852 -0.0289612 0)
(8.39017 -0.0301302 0)
(8.39167 -0.0313185 0)
(8.39302 -0.0325339 0)
(8.39422 -0.033783 0)
(8.39525 -0.0350719 0)
(8.39613 -0.0364057 0)
(8.39684 -0.0377876 0)
(8.32437 -0.0380131 0)
(8.29387 -0.0682692 0)
(8.27221 -0.0716059 0)
(8.26676 -0.0684687 0)
(8.27365 -0.0640804 0)
(8.28629 -0.0592362 0)
(8.30106 -0.0545521 0)
(8.31641 -0.0503832 0)
(8.33149 -0.0467902 0)
(8.34584 -0.0437487 0)
(8.35925 -0.0412147 0)
(8.37168 -0.0391303 0)
(8.38312 -0.0374353 0)
(8.39362 -0.0360746 0)
(8.40324 -0.0350001 0)
(8.41204 -0.0341709 0)
(8.42009 -0.0335529 0)
(8.42746 -0.033118 0)
(8.43419 -0.0328431 0)
(8.44034 -0.0327097 0)
(8.44596 -0.032703 0)
(8.45108 -0.032811 0)
(8.45576 -0.0330242 0)
(8.46001 -0.0333353 0)
(8.46388 -0.0337382 0)
(8.46738 -0.0342285 0)
(8.47055 -0.0348025 0)
(8.47339 -0.0354572 0)
(8.47594 -0.0361905 0)
(8.47821 -0.0370003 0)
(8.48021 -0.0378852 0)
(8.48195 -0.0388437 0)
(8.48346 -0.0398731 0)
(8.34002 0.156994 0)
(8.38201 0.149007 0)
(8.40253 0.103401 0)
(8.39951 0.0645156 0)
(8.38362 0.0358657 0)
(8.36099 0.0154898 0)
(8.33448 0.00104689 0)
(8.30606 -0.00931489 0)
(8.27689 -0.0168455 0)
(8.24759 -0.0223789 0)
(8.21852 -0.0264862 0)