/*--------------------------------*- C++ -*----------------------------------*\
| =========                 |                                                 |
| \\      /  F ield         | OpenFOAM: The Open Source CFD Toolbox           |
|  \\    /   O peration     | Version:  2.1.1                                 |
|   \\  /    A nd           | Web:      www.OpenFOAM.org                      |
|    \\/     M anipulation  |                                                 |
\*---------------------------------------------------------------------------*/
FoamFile
{
    version     2.0;
    format      ascii;
    class       volScalarField;
    location    "0.055";
    object      nuSgs;
}
// * * * * * * * * * * * * * * * * * * * * * * * * * * * * * * * * * * * * * //

dimensions      [0 2 -1 0 0 0 0];

internalField   nonuniform List<scalar> 
6820
(
0.000556015
0.00045741
0.000368137
0.000306109
0.000268897
0.000243256
0.000224376
0.000209928
0.00019825
0.000188435
0.000179966
0.000172512
0.00016585
0.000159823
0.000154316
0.000149242
0.000144535
0.000140139
0.000136012
0.000132117
0.000128422
0.000124901
0.000121526
0.000118276
0.000115124
0.000112045
0.000109012
0.000105993
0.000102949
9.98252e-05
9.65938e-05
9.28687e-05
8.97e-05
0.000103497
0.000170663
0.000223653
0.000240026
0.000235275
0.000224916
0.000213224
0.000201941
0.000191709
0.000182545
0.00017433
0.00016693
0.000160221
0.000154101
0.000148484
0.000143302
0.000138496
0.000134019
0.00012983
0.000125895
0.000122186
0.000118679
0.000115353
0.00011219
0.000109177
0.000106301
0.000103552
0.000100924
9.84251e-05
9.60322e-05
9.39039e-05
9.18048e-05
9.15606e-05
3.67749e-05
2.84763e-05
4.56162e-05
8.23021e-05
0.000107952
0.000123562
0.000132009
0.000135883
0.000137009
0.000136459
0.000134873
0.000132648
0.000130033
0.000127192
0.000124231
0.000121223
0.000118214
0.000115237
0.000112313
0.000109455
0.000106674
0.000103973
0.000101359
9.88322e-05
9.6397e-05
9.40565e-05
9.18161e-05
8.96856e-05
8.76826e-05
8.58359e-05
8.42157e-05
8.29083e-05
8.23378e-05
2.07366e-05
2.86837e-05
2.65594e-05
1.50865e-05
3.6529e-06
1.38542e-05
2.56934e-05
3.55312e-05
4.347e-05
4.97834e-05
5.47464e-05
5.86026e-05
6.15538e-05
6.37576e-05
6.53478e-05
6.64353e-05
6.7111e-05
6.74504e-05
6.75155e-05
6.73583e-05
6.7022e-05
6.65434e-05
6.59538e-05
6.52813e-05
6.45509e-05
6.37871e-05
6.30148e-05
6.22613e-05
6.15615e-05
6.09571e-05
6.05152e-05
6.03126e-05
6.05121e-05
1.442e-05
1.75849e-05
2.26041e-05
2.42991e-05
2.39743e-05
2.20012e-05
1.91187e-05
1.58654e-05
1.24737e-05
9.0931e-06
5.83178e-06
2.77429e-06
6.86026e-07
2.92629e-06
5.31216e-06
7.48419e-06
9.4349e-06
1.11737e-05
1.27146e-05
1.4074e-05
1.52691e-05
1.63177e-05
1.7238e-05
1.80484e-05
1.87684e-05
1.94188e-05
2.00227e-05
2.06066e-05
2.12019e-05
2.18466e-05
2.25814e-05
2.34519e-05
2.44648e-05
1.092e-05
1.24983e-05
1.38221e-05
1.43289e-05
1.51102e-05
1.57452e-05
1.61191e-05
1.63248e-05
1.63662e-05
1.62481e-05
1.59945e-05
1.56286e-05
1.51735e-05
1.4644e-05
1.40585e-05
1.3434e-05
1.27851e-05
1.21238e-05
1.14597e-05
1.07998e-05
1.01489e-05
9.50986e-06
8.8835e-06
8.26891e-06
7.66332e-06
7.06211e-06
6.45879e-06
5.84562e-06
5.21553e-06
4.56798e-06
3.93017e-06
3.39626e-06
3.23754e-06
8.24456e-06
9.42921e-06
1.02481e-05
1.00449e-05
9.85352e-06
9.67287e-06
9.48609e-06
9.39561e-06
9.39047e-06
9.4265e-06
9.47677e-06
9.52345e-06
9.55493e-06
9.56897e-06
9.56308e-06
9.53607e-06
9.48796e-06
9.41956e-06
9.33204e-06
9.2267e-06
9.1048e-06
8.96741e-06
8.81535e-06
8.64907e-06
8.46872e-06
8.27422e-06
8.06558e-06
7.84399e-06
7.61347e-06
7.38647e-06
7.18979e-06
7.08567e-06
7.1712e-06
6.36117e-06
7.41076e-06
8.21731e-06
8.07941e-06
7.7675e-06
7.4262e-06
7.04679e-06
6.72064e-06
6.46655e-06
6.26382e-06
6.09964e-06
5.96497e-06
5.85088e-06
5.75065e-06
5.65991e-06
5.57543e-06
5.49459e-06
5.41524e-06
5.33571e-06
5.25459e-06
5.17074e-06
5.08317e-06
4.99105e-06
4.89371e-06
4.79081e-06
4.68267e-06
4.57088e-06
4.45984e-06
4.35876e-06
4.28674e-06
4.27611e-06
4.38075e-06
4.66546e-06
5.00124e-06
5.86134e-06
6.54352e-06
6.53618e-06
6.36691e-06
6.1579e-06
5.87336e-06
5.5857e-06
5.3334e-06
5.11272e-06
4.91886e-06
4.74833e-06
4.59624e-06
4.45833e-06
4.3316e-06
4.21374e-06
4.10282e-06
3.99728e-06
3.89585e-06
3.79743e-06
3.70108e-06
3.606e-06
3.51159e-06
3.41762e-06
3.32444e-06
3.23354e-06
3.14828e-06
3.07541e-06
3.0267e-06
3.02183e-06
3.08834e-06
3.25939e-06
3.56914e-06
3.99631e-06
4.71047e-06
5.3111e-06
5.38111e-06
5.27757e-06
5.12808e-06
4.91043e-06
4.67971e-06
4.47365e-06
4.29137e-06
4.12833e-06
3.98233e-06
3.85023e-06
3.72904e-06
3.61662e-06
3.51142e-06
3.41214e-06
3.31773e-06
3.22733e-06
3.14021e-06
3.05584e-06
2.97387e-06
2.89432e-06
2.81768e-06
2.74525e-06
2.67967e-06
2.62551e-06
2.5903e-06
2.58538e-06
2.62642e-06
2.73181e-06
2.91772e-06
3.20197e-06
3.23754e-06
3.83841e-06
4.36874e-06
4.48001e-06
4.42476e-06
4.32401e-06
4.16239e-06
3.9769e-06
3.80229e-06
3.64292e-06
3.49744e-06
3.36581e-06
3.24664e-06
3.13783e-06
3.03768e-06
2.94483e-06
2.85812e-06
2.77657e-06
2.69945e-06
2.62622e-06
2.5566e-06
2.4906e-06
2.42866e-06
2.37183e-06
2.32204e-06
2.28245e-06
2.25791e-06
2.25537e-06
2.28382e-06
2.35393e-06
2.47641e-06
2.65716e-06
2.90595e-06
2.6518e-06
3.16341e-06
3.64146e-06
3.78758e-06
3.77767e-06
3.71508e-06
3.5927e-06
3.43901e-06
3.28707e-06
3.14532e-06
3.01428e-06
2.89474e-06
2.78617e-06
2.68711e-06
2.59622e-06
2.51245e-06
2.43487e-06
2.36277e-06
2.29563e-06
2.23314e-06
2.17528e-06
2.12234e-06
2.07507e-06
2.03482e-06
2.00372e-06
1.98492e-06
1.98269e-06
2.00256e-06
2.05067e-06
2.13331e-06
2.25573e-06
2.41831e-06
2.62733e-06
2.18946e-06
2.6331e-06
3.07257e-06
3.24341e-06
3.2685e-06
3.23585e-06
3.14657e-06
3.0231e-06
2.89438e-06
2.77036e-06
2.65305e-06
2.54412e-06
2.44415e-06
2.35257e-06
2.26863e-06
2.19169e-06
2.12113e-06
2.05645e-06
1.99732e-06
1.94362e-06
1.89548e-06
1.85338e-06
1.81819e-06
1.79131e-06
1.77476e-06
1.7712e-06
1.78395e-06
1.81676e-06
1.87342e-06
1.95709e-06
2.06962e-06
2.20891e-06
2.37956e-06
1.81691e-06
2.20989e-06
2.6208e-06
2.8111e-06
2.86653e-06
2.86049e-06
2.79908e-06
2.70084e-06
2.59118e-06
2.48148e-06
2.37537e-06
2.27544e-06
2.18302e-06
2.09817e-06
2.02056e-06
1.94979e-06
1.88547e-06
1.8273e-06
1.77508e-06
1.72885e-06
1.68884e-06
1.6556e-06
1.63001e-06
1.6133e-06
1.60712e-06
1.6135e-06
1.63466e-06
1.67288e-06
1.73006e-06
1.80733e-06
1.90482e-06
2.01947e-06
2.15508e-06
1.51068e-06
1.86749e-06
2.25809e-06
2.46439e-06
2.54521e-06
2.56141e-06
2.52276e-06
2.4459e-06
2.35337e-06
2.25704e-06
2.16162e-06
2.07021e-06
1.98469e-06
1.90569e-06
1.83329e-06
1.76744e-06
1.70801e-06
1.65486e-06
1.60797e-06
1.56745e-06
1.53359e-06
1.50691e-06
1.48813e-06
1.47822e-06
1.47837e-06
1.4899e-06
1.51411e-06
1.55211e-06
1.6046e-06
1.67154e-06
1.7522e-06
1.84333e-06
1.94828e-06
1.2541e-06
1.5871e-06
1.96407e-06
2.18394e-06
2.28649e-06
2.32238e-06
2.30356e-06
2.24546e-06
2.1681e-06
2.08343e-06
1.99705e-06
1.91267e-06
1.83272e-06
1.75836e-06
1.69008e-06
1.62808e-06
1.57244e-06
1.52316e-06
1.48031e-06
1.44402e-06
1.41456e-06
1.39233e-06
1.37784e-06
1.37177e-06
1.37482e-06
1.3877e-06
1.41101e-06
1.44507e-06
1.4898e-06
1.54458e-06
1.60827e-06
1.67784e-06
1.75633e-06
1.03516e-06
1.35527e-06
1.7243e-06
1.95614e-06
2.07749e-06
2.13074e-06
2.12899e-06
2.087e-06
2.02287e-06
1.94849e-06
1.87014e-06
1.79204e-06
1.717e-06
1.64659e-06
1.58162e-06
1.52252e-06
1.46956e-06
1.42286e-06
1.38254e-06
1.34876e-06
1.3217e-06
1.30165e-06
1.28891e-06
1.28384e-06
1.28675e-06
1.29791e-06
1.31739e-06
1.34502e-06
1.3803e-06
1.42233e-06
1.4699e-06
1.52032e-06
1.57634e-06
8.4511e-07
1.16249e-06
1.52851e-06
1.77113e-06
1.90882e-06
1.97754e-06
1.99085e-06
1.96304e-06
1.91072e-06
1.84552e-06
1.77421e-06
1.7014e-06
1.63028e-06
1.56278e-06
1.50002e-06
1.44268e-06
1.39117e-06
1.34572e-06
1.30648e-06
1.27359e-06
1.24717e-06
1.22735e-06
1.21424e-06
1.20794e-06
1.20847e-06
1.21574e-06
1.22952e-06
1.24935e-06
1.27451e-06
1.30405e-06
1.33678e-06
1.37046e-06
1.40754e-06
6.77809e-07
1.00246e-06
1.36956e-06
1.62197e-06
1.77392e-06
1.85642e-06
1.88303e-06
1.86763e-06
1.82567e-06
1.76847e-06
1.70316e-06
1.63472e-06
1.56664e-06
1.50116e-06
1.43967e-06
1.38304e-06
1.33179e-06
1.28625e-06
1.24661e-06
1.21297e-06
1.18538e-06
1.16386e-06
1.14839e-06
1.13886e-06
1.13509e-06
1.13682e-06
1.1436e-06
1.15486e-06
1.16982e-06
1.18756e-06
1.20701e-06
1.22635e-06
1.24767e-06
5.29551e-07
8.71631e-07
1.24279e-06
1.50395e-06
1.66823e-06
1.76294e-06
1.80133e-06
1.79684e-06
1.76402e-06
1.71385e-06
1.65371e-06
1.58884e-06
1.52301e-06
1.45873e-06
1.3976e-06
1.34067e-06
1.2886e-06
1.24177e-06
1.2004e-06
1.16459e-06
1.13433e-06
1.10957e-06
1.09016e-06
1.0759e-06
1.06649e-06
1.06153e-06
1.06053e-06
1.06287e-06
1.06779e-06
1.07448e-06
1.08202e-06
1.08897e-06
1.09714e-06
4.00115e-07
7.691e-07
1.1455e-06
1.41406e-06
1.58881e-06
1.69421e-06
1.74292e-06
1.74794e-06
1.723e-06
1.67877e-06
1.62276e-06
1.56045e-06
1.49583e-06
1.43163e-06
1.36968e-06
1.31119e-06
1.25692e-06
1.20735e-06
1.16274e-06
1.12317e-06
1.08864e-06
1.05906e-06
1.03422e-06
1.01388e-06
9.97689e-07
9.85239e-07
9.76025e-07
9.69476e-07
9.64918e-07
9.61658e-07
9.58919e-07
9.55582e-07
9.53115e-07
2.96674e-07
6.96484e-07
1.07662e-06
1.3507e-06
1.53401e-06
1.64861e-06
1.70634e-06
1.71966e-06
1.70159e-06
1.66253e-06
1.61004e-06
1.54977e-06
1.48588e-06
1.42129e-06
1.358e-06
1.29735e-06
1.24021e-06
1.18711e-06
1.13834e-06
1.09403e-06
1.05415e-06
1.01862e-06
9.87231e-07
9.59737e-07
9.35814e-07
9.15081e-07
8.97094e-07
8.81374e-07
8.67361e-07
8.54521e-07
8.42226e-07
8.29689e-07
8.18082e-07
2.42521e-07
6.57228e-07
1.03627e-06
1.31336e-06
1.50321e-06
1.62539e-06
1.69067e-06
1.71082e-06
1.69824e-06
1.66298e-06
1.61262e-06
1.55294e-06
1.4883e-06
1.42179e-06
1.35559e-06
1.29118e-06
1.22956e-06
1.17135e-06
1.11689e-06
1.06634e-06
1.01974e-06
9.77012e-07
9.37992e-07
9.02472e-07
8.70189e-07
8.40842e-07
8.14088e-07
7.89568e-07
7.66859e-07
7.45578e-07
7.25223e-07
7.05245e-07
6.86509e-07
2.67098e-07
6.54946e-07
1.02543e-06
1.30252e-06
1.49691e-06
1.62532e-06
1.69719e-06
1.7235e-06
1.71605e-06
1.68457e-06
1.63655e-06
1.57784e-06
1.51287e-06
1.44485e-06
1.37608e-06
1.30814e-06
1.24211e-06
1.17866e-06
1.11823e-06
1.06101e-06
1.00708e-06
9.56419e-07
9.08926e-07
8.64458e-07
8.22841e-07
7.8388e-07
7.47361e-07
7.13072e-07
6.80754e-07
6.50221e-07
6.2113e-07
5.93276e-07
5.67212e-07
3.58499e-07
6.91325e-07
1.04544e-06
1.31927e-06
1.51589e-06
1.64855e-06
1.72495e-06
1.75515e-06
1.75034e-06
1.72001e-06
1.67165e-06
1.61122e-06
1.54331e-06
1.47134e-06
1.39775e-06
1.32425e-06
1.25202e-06
1.18184e-06
1.11415e-06
1.04924e-06
9.87193e-07
9.28042e-07
8.71736e-07
8.18196e-07
7.67329e-07
7.19043e-07
6.73247e-07
6.29874e-07
5.88825e-07
5.50082e-07
5.13441e-07
4.7893e-07
4.46868e-07
4.87668e-07
7.65344e-07
1.09778e-06
1.36578e-06
1.56337e-06
1.70008e-06
1.78169e-06
1.81715e-06
1.81698e-06
1.79018e-06
1.74399e-06
1.68431e-06
1.61572e-06
1.54171e-06
1.46483e-06
1.38693e-06
1.30931e-06
1.23285e-06
1.15814e-06
1.08551e-06
1.01516e-06
9.47194e-07
8.81619e-07
8.18427e-07
7.5759e-07
6.9909e-07
6.42915e-07
5.89093e-07
5.37633e-07
4.88675e-07
4.42129e-07
3.98468e-07
3.57454e-07
6.42484e-07
8.75588e-07
1.18464e-06
1.44429e-06
1.63978e-06
1.7766e-06
1.85842e-06
1.89331e-06
1.89151e-06
1.86206e-06
1.81232e-06
1.74833e-06
1.67487e-06
1.5955e-06
1.51287e-06
1.42887e-06
1.34484e-06
1.26169e-06
1.17999e-06
1.10014e-06
1.02234e-06
9.46713e-07
8.73314e-07
8.02171e-07
7.33301e-07
6.66732e-07
6.02503e-07
5.40687e-07
4.81337e-07
4.2462e-07
3.70446e-07
3.1935e-07
2.70676e-07
8.21307e-07
1.02038e-06
1.30773e-06
1.5599e-06
1.75621e-06
1.89863e-06
1.98811e-06
2.03083e-06
2.03588e-06
2.0115e-06
1.96468e-06
1.90141e-06
1.8266e-06
1.74409e-06
1.65682e-06
1.56701e-06
1.47627e-06
1.38574e-06
1.29623e-06
1.20828e-06
1.12224e-06
1.03834e-06
9.56739e-07
8.77539e-07
8.00826e-07
7.26691e-07
6.55231e-07
5.86581e-07
5.20857e-07
4.58329e-07
3.98962e-07
3.43737e-07
2.90973e-07
1.02935e-06
1.2054e-06
1.47442e-06
1.7152e-06
1.90265e-06
2.03661e-06
2.11721e-06
2.15113e-06
2.14817e-06
2.11692e-06
2.06437e-06
1.99629e-06
1.91733e-06
1.83106e-06
1.74018e-06
1.64673e-06
1.55221e-06
1.45774e-06
1.36413e-06
1.27197e-06
1.18169e-06
1.09362e-06
1.00801e-06
9.2508e-07
8.45032e-07
7.68077e-07
6.94442e-07
6.24389e-07
5.58185e-07
4.96218e-07
4.38671e-07
3.86542e-07
3.38626e-07
1.2709e-06
1.42715e-06
1.68383e-06
1.92628e-06
2.12734e-06
2.28126e-06
2.38181e-06
2.43176e-06
2.4394e-06
2.41317e-06
2.36064e-06
2.28861e-06
2.2028e-06
2.10775e-06
2.00693e-06
1.90298e-06
1.79785e-06
1.69294e-06
1.58928e-06
1.48758e-06
1.38838e-06
1.29206e-06
1.19894e-06
1.10926e-06
1.02327e-06
9.41223e-07
8.63367e-07
7.8999e-07
7.21359e-07
6.5786e-07
5.99565e-07
5.47503e-07
4.99445e-07
1.56671e-06
1.72017e-06
1.96464e-06
2.18098e-06
2.3481e-06
2.46877e-06
2.54228e-06
2.57409e-06
2.57248e-06
2.54393e-06
2.49355e-06
2.42601e-06
2.34542e-06
2.25526e-06
2.15844e-06
2.05737e-06
1.95402e-06
1.84995e-06
1.74642e-06
1.6444e-06
1.54465e-06
1.44778e-06
1.35427e-06
1.26452e-06
1.17887e-06
1.09762e-06
1.02106e-06
9.49442e-07
8.82984e-07
8.21924e-07
7.66261e-07
7.16571e-07
6.71072e-07
1.90881e-06
2.03981e-06
2.29868e-06
2.56859e-06
2.80608e-06
2.98881e-06
3.10198e-06
3.15013e-06
3.14677e-06
3.10441e-06
3.03333e-06
2.94211e-06
2.83748e-06
2.72435e-06
2.60629e-06
2.48589e-06
2.36502e-06
2.24502e-06
2.12691e-06
2.01143e-06
1.89916e-06
1.79055e-06
1.68597e-06
1.58571e-06
1.49004e-06
1.39917e-06
1.31328e-06
1.23255e-06
1.15707e-06
1.08701e-06
1.02222e-06
9.63359e-07
9.07825e-07
2.39196e-06
2.55549e-06
2.76039e-06
2.90613e-06
3.02239e-06
3.12959e-06
3.21652e-06
3.27471e-06
3.30209e-06
3.29796e-06
3.26383e-06
3.20371e-06
3.12259e-06
3.02535e-06
2.91645e-06
2.79974e-06
2.6784e-06
2.55497e-06
2.43142e-06
2.30927e-06
2.18964e-06
2.07338e-06
1.96111e-06
1.85324e-06
1.75009e-06
1.65185e-06
1.55864e-06
1.47055e-06
1.38759e-06
1.30983e-06
1.23714e-06
1.17008e-06
1.10658e-06
2.87052e-06
2.99032e-06
3.38969e-06
3.80865e-06
4.12495e-06
4.31718e-06
4.3945e-06
4.38784e-06
4.32704e-06
4.2303e-06
4.10882e-06
3.97063e-06
3.82132e-06
3.6648e-06
3.50413e-06
3.34188e-06
3.18021e-06
3.02092e-06
2.86551e-06
2.71513e-06
2.5707e-06
2.43283e-06
2.30195e-06
2.17827e-06
2.06185e-06
1.95263e-06
1.85045e-06
1.75509e-06
1.66629e-06
1.5839e-06
1.50752e-06
1.43798e-06
1.37234e-06
3.91298e-06
4.02602e-06
3.94785e-06
3.88055e-06
3.99054e-06
4.20703e-06
4.40618e-06
4.53792e-06
4.59869e-06
4.59826e-06
4.55314e-06
4.48145e-06
4.39785e-06
4.31247e-06
4.23156e-06
4.15832e-06
4.09373e-06
4.03743e-06
3.98836e-06
3.94521e-06
3.90666e-06
3.87152e-06
3.83879e-06
3.80764e-06
3.77738e-06
3.74746e-06
3.71739e-06
3.68675e-06
3.65527e-06
3.62284e-06
3.58945e-06
3.55669e-06
3.52254e-06
4.37537e-06
4.95635e-06
5.93981e-06
6.4257e-06
6.54105e-06
6.51503e-06
6.5021e-06
6.60737e-06
6.86065e-06
7.23003e-06
7.6656e-06
8.12267e-06
8.56719e-06
8.97637e-06
9.33721e-06
9.64377e-06
9.89487e-06
1.00923e-05
1.02396e-05
1.03413e-05
1.04023e-05
1.04273e-05
1.04209e-05
1.03872e-05
1.033e-05
1.02524e-05
1.01571e-05
1.00462e-05
9.92133e-06
9.78372e-06
9.63505e-06
9.47754e-06
9.31222e-06
7.5688e-06
5.83596e-06
4.63378e-06
6.22056e-06
8.94874e-06
1.16565e-05
1.39855e-05
1.58749e-05
1.73237e-05
1.83463e-05
1.89798e-05
1.92721e-05
1.9273e-05
1.90318e-05
1.85957e-05
1.80074e-05
1.73043e-05
1.65188e-05
1.56777e-05
1.48032e-05
1.3913e-05
1.30209e-05
1.21376e-05
1.1271e-05
1.04268e-05
9.60863e-06
8.81853e-06
8.05682e-06
7.32316e-06
6.61388e-06
5.92952e-06
5.25808e-06
4.61303e-06
8.58587e-06
1.47222e-05
1.88172e-05
2.1212e-05
2.22914e-05
2.1808e-05
1.99386e-05
1.71379e-05
1.38787e-05
1.0795e-05
8.91941e-06
9.33673e-06
1.17523e-05
1.50574e-05
1.85754e-05
2.201e-05
2.52323e-05
2.8187e-05
3.08547e-05
3.3235e-05
3.53379e-05
3.71791e-05
3.87771e-05
4.01514e-05
4.13215e-05
4.23065e-05
4.31245e-05
4.37934e-05
4.43306e-05
4.4758e-05
4.50913e-05
4.53894e-05
4.56419e-05
3.46539e-05
3.72296e-05
4.66746e-05
6.18108e-05
7.75289e-05
9.29385e-05
0.000107337
0.000120019
0.000130794
0.000139709
0.000146875
0.000152455
0.000156638
0.000159608
0.000161542
0.000162598
0.000162918
0.000162626
0.000161827
0.000160615
0.000159065
0.000157243
0.000155203
0.000152993
0.000150648
0.0001482
0.000145674
0.000143088
0.000140461
0.000137797
0.000135099
0.000132455
0.000129878
0.000608454
0.000582502
0.000556859
0.000530365
0.000504323
0.000479052
0.000454596
0.000431223
0.000409118
0.000388337
0.000368895
0.000350778
0.000333937
0.000318304
0.000303801
0.000290343
0.000277845
0.000266225
0.000255403
0.000245304
0.000235862
0.000227013
0.0002187
0.000210873
0.000203485
0.000196497
0.000189868
0.000183566
0.000177549
0.000171797
0.000166181
0.000161235
0.000156733
8.13236e-05
7.14431e-05
5.76934e-05
4.01341e-05
2.48329e-05
2.23022e-05
3.37376e-05
4.7709e-05
6.06189e-05
6.99805e-05
7.50442e-05
7.83822e-05
8.28921e-05
8.8469e-05
9.35655e-05
0.000102448
9.54194e-05
7.12872e-05
6.09019e-05
5.44681e-05
4.63052e-05
3.87101e-05
3.26189e-05
2.78482e-05
2.37691e-05
1.97535e-05
1.55474e-05
1.1481e-05
8.74142e-06
8.01551e-06
8.50931e-06
1.11656e-05
1.3449e-05
1.4822e-05
1.71997e-05
2.0731e-05
2.6442e-05
3.03096e-05
2.97875e-05
2.66772e-05
2.3375e-05
2.06696e-05
1.83995e-05
1.63794e-05
1.4563e-05
1.29476e-05
1.15215e-05
1.02617e-05
9.14349e-06
8.14647e-06
7.25463e-06
6.4551e-06
5.73701e-06
5.09111e-06
4.50967e-06
3.9865e-06
3.51686e-06
3.09716e-06
2.72452e-06
2.3963e-06
2.1097e-06
1.86154e-06
1.64833e-06
1.46656e-06
1.31298e-06
1.1845e-06
1.07788e-06
9.89242e-07
9.14724e-07
8.52028e-07
8.01934e-07
7.66913e-07
7.46697e-07
7.35067e-07
7.22983e-07
7.04631e-07
6.80134e-07
6.53025e-07
6.2634e-07
6.01201e-07
5.77694e-07
5.55615e-07
5.3412e-07
5.11345e-07
4.84932e-07
4.53347e-07
4.16949e-07
3.78003e-07
3.3969e-07
3.04717e-07
2.7466e-07
2.49485e-07
2.29045e-07
2.11399e-07
1.98239e-07
1.84146e-07
1.79229e-07
1.61004e-07
1.74424e-07
1.41036e-07
0.000119412
0.000100877
7.75574e-05
5.93803e-05
4.78499e-05
4.75273e-05
5.68377e-05
6.84194e-05
7.59549e-05
7.68246e-05
7.28904e-05
6.922e-05
6.93923e-05
7.26345e-05
7.63724e-05
8.19798e-05
9.11192e-05
8.11964e-05
6.11284e-05
5.28857e-05
4.67276e-05
3.91105e-05
3.24018e-05
2.72299e-05
2.29826e-05
1.89778e-05
1.49107e-05
1.10502e-05
7.66192e-06
4.80378e-06
7.24982e-06
1.11809e-05
1.23114e-05
1.4412e-05
1.75525e-05
2.32819e-05
2.95003e-05
3.14797e-05
2.93655e-05
2.59259e-05
2.28708e-05
2.03833e-05
1.82308e-05
1.6295e-05
1.45531e-05
1.29975e-05
1.16114e-05
1.03735e-05
9.26461e-06
8.26933e-06
7.37504e-06
6.57067e-06
5.84632e-06
5.19329e-06
4.60428e-06
4.07343e-06
3.59621e-06
3.16917e-06
2.78944e-06
2.45441e-06
2.16126e-06
1.90682e-06
1.68766e-06
1.50026e-06
1.3414e-06
1.20803e-06
1.09701e-06
1.00462e-06
9.27159e-07
8.62453e-07
8.115e-07
7.7721e-07
7.59668e-07
7.5244e-07
7.45375e-07
7.31449e-07
7.09631e-07
6.82737e-07
6.53797e-07
6.24657e-07
5.96491e-07
5.70099e-07
5.45267e-07
5.20291e-07
4.92624e-07
4.60354e-07
4.23458e-07
3.83956e-07
3.44963e-07
3.09253e-07
2.78512e-07
2.52779e-07
2.31936e-07
2.1403e-07
2.00684e-07
1.86327e-07
1.81264e-07
1.6279e-07
1.7631e-07
1.42654e-07
0.000111154
0.000111354
0.000101031
8.86358e-05
8.03087e-05
7.76064e-05
7.81059e-05
7.76716e-05
7.30867e-05
6.42488e-05
5.46314e-05
4.92572e-05
4.92534e-05
5.14976e-05
5.46071e-05
5.87454e-05
6.82544e-05
7.6162e-05
6.64155e-05
5.15532e-05
4.5149e-05
3.9875e-05
3.31567e-05
2.69116e-05
2.18412e-05
1.74408e-05
1.31777e-05
8.67926e-06
3.02178e-06
3.98088e-06
9.30367e-06
1.02117e-05
1.1241e-05
1.43717e-05
1.96892e-05
2.74759e-05
3.21583e-05
3.17024e-05
2.8492e-05
2.51122e-05
2.23735e-05
2.00988e-05
1.80742e-05
1.6232e-05
1.45636e-05
1.30609e-05
1.17083e-05
1.04891e-05
9.38895e-06
8.39627e-06
7.50056e-06
6.69205e-06
5.96165e-06
5.30135e-06
4.70441e-06
4.1654e-06
3.68009e-06
3.24519e-06
2.85793e-06
2.51569e-06
2.21563e-06
1.9546e-06
1.72912e-06
1.53569e-06
1.3711e-06
1.2324e-06
1.11653e-06
1.01991e-06
9.38755e-07
8.70876e-07
8.17354e-07
7.81672e-07
7.64727e-07
7.60486e-07
7.58282e-07
7.49647e-07
7.3211e-07
7.07474e-07
6.78394e-07
6.47033e-07
6.15426e-07
5.85412e-07
5.57586e-07
5.30613e-07
5.01893e-07
4.69188e-07
4.32105e-07
3.92404e-07
3.53114e-07
3.17045e-07
2.85977e-07
2.59996e-07
2.39001e-07
2.20981e-07
2.07526e-07
1.93076e-07
1.88e-07
1.69362e-07
1.83249e-07
1.49418e-07
8.16493e-05
8.34527e-05
8.11626e-05
7.64782e-05
7.12742e-05
6.61266e-05
6.05616e-05
5.32406e-05
4.37159e-05
3.39915e-05
2.85708e-05
2.92805e-05
3.17555e-05
3.30008e-05
3.40582e-05
3.68463e-05
4.32386e-05
5.44344e-05
6.10978e-05
5.40763e-05
4.32788e-05
3.78535e-05
3.38005e-05
2.85017e-05
2.28046e-05
1.75084e-05
1.2645e-05
8.3302e-06
7.20963e-06
9.26377e-06
8.55918e-06
7.716e-06
1.08551e-05
1.601e-05
2.48023e-05
3.19045e-05
3.34481e-05
3.08914e-05
2.7326e-05
2.4318e-05
2.19155e-05
1.98297e-05
1.79233e-05
1.6172e-05
1.45745e-05
1.31222e-05
1.18022e-05
1.06024e-05
9.51287e-06
8.52473e-06
7.62911e-06
6.81738e-06
6.08139e-06
5.41396e-06
4.80902e-06
4.26168e-06
3.76807e-06
3.32508e-06
2.93004e-06
2.58035e-06
2.27318e-06
2.00538e-06
1.7735e-06
1.57405e-06
1.40381e-06
1.25986e-06
1.13921e-06
1.03835e-06
9.53504e-07
8.82467e-07
8.26515e-07
7.89695e-07
7.73677e-07
7.72569e-07
7.75066e-07
7.71512e-07
7.5819e-07
7.35915e-07
7.06844e-07
6.73265e-07
6.37948e-07
6.03771e-07
5.72242e-07
5.42522e-07
5.12025e-07
4.78215e-07
4.40318e-07
3.9981e-07
3.59624e-07
3.22612e-07
2.90658e-07
2.63918e-07
2.42329e-07
2.23835e-07
2.10068e-07
1.9532e-07
1.90064e-07
1.71034e-07
1.85238e-07
1.50675e-07
3.43368e-05
3.58636e-05
3.46768e-05
3.13876e-05
2.66756e-05
2.14565e-05
1.64696e-05
1.27571e-05
1.27903e-05
1.70065e-05
2.18819e-05
2.47191e-05
2.48552e-05
2.33019e-05
2.20831e-05
2.3274e-05
2.75594e-05
3.40965e-05
4.24402e-05
4.7584e-05
4.38425e-05
3.61358e-05
3.07949e-05
2.73462e-05
2.37021e-05
1.9667e-05
1.58081e-05
1.27652e-05
1.03664e-05
6.63331e-06
3.54467e-06
6.97357e-06
1.2448e-05
2.22231e-05
3.11972e-05
3.4609e-05
3.29626e-05
2.9408e-05
2.61572e-05
2.36201e-05
2.14969e-05
1.95666e-05
1.77709e-05
1.61089e-05
1.45799e-05
1.31761e-05
1.18887e-05
1.07101e-05
9.63351e-06
8.65192e-06
7.75783e-06
6.94379e-06
6.20274e-06
5.52845e-06
4.91563e-06
4.35997e-06
3.85797e-06
3.40674e-06
3.00372e-06
2.64634e-06
2.33181e-06
2.05699e-06
1.81845e-06
1.61271e-06
1.43656e-06
1.28711e-06
1.16141e-06
1.056e-06
9.67098e-07
8.92336e-07
8.33013e-07
7.93742e-07
7.77245e-07
7.78414e-07
7.85441e-07
7.87387e-07
7.7917e-07
7.6049e-07
7.32788e-07
6.98218e-07
6.60086e-07
6.22256e-07
5.87252e-07
5.54879e-07
5.22698e-07
4.87952e-07
4.49502e-07
4.08528e-07
3.67831e-07
3.3028e-07
2.97841e-07
2.70725e-07
2.48892e-07
2.30234e-07
2.16364e-07
2.01403e-07
1.96116e-07
1.7681e-07
1.91442e-07
1.5634e-07
5.33688e-06
7.80224e-06
9.98206e-06
1.15009e-05
1.30807e-05
1.52944e-05
1.79593e-05
2.05344e-05
2.2577e-05
2.3733e-05
2.37352e-05
2.26431e-05
2.10024e-05
1.96125e-05
1.90937e-05
1.99051e-05
2.26309e-05
2.72829e-05
3.08813e-05
3.35674e-05
3.59654e-05
3.46067e-05
2.98181e-05
2.45984e-05
2.02576e-05
1.63538e-05
1.25751e-05
8.84114e-06
4.76638e-06
1.6458e-06
3.22515e-06
9.70533e-06
2.08177e-05
3.0881e-05
3.54771e-05
3.46178e-05
3.12092e-05
2.77975e-05
2.51472e-05
2.30133e-05
2.11008e-05
1.93039e-05
1.7615e-05
1.604e-05
1.45774e-05
1.32219e-05
1.19688e-05
1.0814e-05
9.75262e-06
8.77925e-06
7.88779e-06
7.0721e-06
6.32638e-06
5.64546e-06
5.02485e-06
4.46085e-06
3.95035e-06
3.49071e-06
3.07949e-06
2.71421e-06
2.39211e-06
2.1101e-06
1.86477e-06
1.65268e-06
1.4706e-06
1.31566e-06
1.18497e-06
1.07508e-06
9.82181e-07
9.03781e-07
8.41211e-07
7.99632e-07
7.82757e-07
7.86088e-07
7.97433e-07
8.0476e-07
8.01751e-07
7.87007e-07
7.61124e-07
7.25921e-07
6.85062e-07
6.43352e-07
6.04398e-07
5.68779e-07
5.34316e-07
4.98078e-07
4.58568e-07
4.16647e-07
3.74971e-07
3.36413e-07
3.03033e-07
2.75109e-07
2.52639e-07
2.33471e-07
2.1924e-07
2.03963e-07
1.9856e-07
1.78835e-07
1.93819e-07
1.57923e-07
1.03768e-05
1.2715e-05
1.57066e-05
1.84037e-05
2.03575e-05
2.14983e-05
2.1861e-05
2.15707e-05
2.08423e-05
1.99137e-05
1.90109e-05
1.83565e-05
1.81305e-05
1.83824e-05
1.90628e-05
2.01527e-05
2.16941e-05
2.46534e-05
2.90186e-05
3.07206e-05
2.90347e-05
2.7196e-05
2.56108e-05
2.30251e-05
1.94944e-05
1.559e-05
1.20088e-05
8.81763e-06
5.14239e-06
1.07738e-06
1.05092e-05
2.21751e-05
3.18897e-05
3.64315e-05
3.58191e-05
3.25556e-05
2.91109e-05
2.6422e-05
2.43191e-05
2.24653e-05
2.07107e-05
1.90359e-05
1.74517e-05
1.59621e-05
1.45655e-05
1.32598e-05
1.20437e-05
1.0915e-05
9.87069e-06
8.90685e-06
8.01892e-06
7.20223e-06
6.4523e-06
5.76502e-06
5.13676e-06
4.56441e-06
4.0453e-06
3.57706e-06
3.15742e-06
2.78396e-06
2.45403e-06
2.16457e-06
1.91223e-06
1.69357e-06
1.50538e-06
1.34477e-06
1.20888e-06
1.09427e-06
9.97042e-07
9.14507e-07
8.47924e-07
8.02986e-07
7.84639e-07
7.89349e-07
8.04714e-07
8.17594e-07
8.204e-07
8.10556e-07
7.87651e-07
7.52913e-07
7.10148e-07
6.65005e-07
6.22231e-07
5.83322e-07
5.465e-07
5.08757e-07
4.68274e-07
4.25591e-07
3.8319e-07
3.43928e-07
3.09929e-07
2.81526e-07
2.58741e-07
2.3937e-07
2.25035e-07
2.0963e-07
2.04182e-07
1.84204e-07
1.99683e-07
1.63265e-07
7.12031e-06
8.99916e-06
1.13021e-05
1.34052e-05
1.49482e-05
1.5812e-05
1.60701e-05
1.59286e-05
1.56538e-05
1.54634e-05
1.54637e-05
1.5672e-05
1.60846e-05
1.67215e-05
1.76329e-05
1.88832e-05
2.04555e-05
2.23832e-05
2.56911e-05
3.00254e-05
3.18261e-05
2.95871e-05
2.52118e-05
2.08531e-05
1.71314e-05
1.38594e-05
1.07462e-05
8.51649e-06
1.07906e-05
1.83176e-05
2.74384e-05
3.45905e-05
3.75553e-05
3.64665e-05
3.32649e-05
2.99495e-05
2.73567e-05
2.53532e-05
2.36016e-05
2.19306e-05
2.0312e-05
1.87588e-05
1.72792e-05
1.58746e-05
1.4545e-05
1.32913e-05
1.21144e-05
1.10138e-05
9.98815e-06
9.03497e-06
8.15144e-06
7.33442e-06
6.58075e-06
5.88739e-06
5.25158e-06
4.67085e-06
4.14299e-06
3.66594e-06
3.2376e-06
2.85572e-06
2.5177e-06
2.22058e-06
1.96106e-06
1.73571e-06
1.54133e-06
1.37502e-06
1.2339e-06
1.11454e-06
1.01295e-06
9.26241e-07
8.55576e-07
8.07128e-07
7.87035e-07
7.92802e-07
8.1194e-07
8.30316e-07
8.39154e-07
8.34715e-07
8.15462e-07
7.81824e-07
7.37539e-07
6.89001e-07
6.42136e-07
5.99479e-07
5.59785e-07
5.20049e-07
4.78152e-07
4.34304e-07
3.90791e-07
3.50437e-07
3.15431e-07
2.86171e-07
2.62714e-07
2.42813e-07
2.28105e-07
2.12355e-07
2.06792e-07
1.86485e-07
2.0232e-07
1.65142e-07
5.52178e-06
6.91646e-06
8.57351e-06
1.01349e-05
1.13556e-05
1.21733e-05
1.264e-05
1.28633e-05
1.29725e-05
1.30767e-05
1.32445e-05
1.352e-05
1.39497e-05
1.45948e-05
1.55223e-05
1.67947e-05
1.84326e-05
2.03159e-05
2.25142e-05
2.58509e-05
3.00076e-05
3.27313e-05
3.26789e-05
3.04899e-05
2.76515e-05
2.54536e-05
2.48787e-05
2.64617e-05
3.01267e-05
3.44889e-05
3.75801e-05
3.81091e-05
3.62127e-05
3.31382e-05
3.01783e-05
2.78663e-05
2.60584e-05
2.44579e-05
2.29087e-05
2.13855e-05
1.99035e-05
1.84734e-05
1.70978e-05
1.57782e-05
1.45171e-05
1.33177e-05
1.21819e-05
1.11111e-05
1.01053e-05
9.16386e-06
8.28564e-06
7.46898e-06
6.71203e-06
6.01286e-06
5.36958e-06
4.78042e-06
4.24364e-06
3.75752e-06
3.32022e-06
2.92962e-06
2.58325e-06
2.27823e-06
2.01131e-06
1.77912e-06
1.57841e-06
1.40626e-06
1.25978e-06
1.13549e-06
1.02927e-06
9.37979e-07
8.62593e-07
8.09738e-07
7.86905e-07
7.92945e-07
8.15463e-07
8.39362e-07
8.5467e-07
8.56451e-07
8.41906e-07
8.10427e-07
7.65444e-07
7.13963e-07
6.63108e-07
6.1658e-07
5.73819e-07
5.31937e-07
4.88576e-07
4.43619e-07
3.9914e-07
3.57902e-07
3.22139e-07
2.92294e-07
2.68446e-07
2.48296e-07
2.33471e-07
2.17603e-07
2.12085e-07
1.91532e-07
2.07911e-07
1.7026e-07
4.88885e-06
5.95715e-06
7.20352e-06
8.40989e-06
9.4106e-06
1.01379e-05
1.06007e-05
1.08599e-05
1.10087e-05
1.11409e-05
1.13288e-05
1.16254e-05
1.20811e-05
1.27496e-05
1.36831e-05
1.49181e-05
1.64524e-05
1.82513e-05
2.01833e-05
2.23526e-05
2.52886e-05
2.88809e-05
3.20527e-05
3.39941e-05
3.48168e-05
3.52124e-05
3.58738e-05
3.68614e-05
3.77644e-05
3.78928e-05
3.67945e-05
3.4634e-05
3.20711e-05
2.97527e-05
2.7907e-05
2.63905e-05
2.49886e-05
2.35957e-05
2.22032e-05
2.08305e-05
1.94889e-05
1.81809e-05
1.69082e-05
1.56743e-05
1.44834e-05
1.33398e-05
1.22468e-05
1.12071e-05
1.02225e-05
9.29395e-06
8.42195e-06
7.60632e-06
6.84653e-06
6.14177e-06
5.49107e-06
4.89334e-06
4.34742e-06
3.85197e-06
3.40541e-06
3.00579e-06
2.6508e-06
2.33764e-06
2.06314e-06
1.82396e-06
1.61684e-06
1.4388e-06
1.2869e-06
1.15759e-06
1.04664e-06
9.506e-07
8.70231e-07
8.12545e-07
7.86416e-07
7.92206e-07
8.17782e-07
8.47152e-07
8.692e-07
8.77804e-07
8.68797e-07
8.40312e-07
7.95237e-07
7.41054e-07
6.86083e-07
6.35312e-07
5.89008e-07
5.44512e-07
4.99268e-07
4.52838e-07
4.07058e-07
3.64611e-07
3.27765e-07
2.97009e-07
2.72453e-07
2.51757e-07
2.3655e-07
2.20346e-07
2.14704e-07
1.93795e-07
2.1064e-07
1.72269e-07
4.37535e-06
5.21012e-06
6.16705e-06
7.10297e-06
7.89606e-06
8.49141e-06
8.89528e-06
9.15185e-06
9.32473e-06
9.48095e-06
9.68155e-06
9.98391e-06
1.04452e-05
1.1117e-05
1.20372e-05
1.32257e-05
1.46677e-05
1.63285e-05
1.8146e-05
2.00027e-05
2.19584e-05
2.42773e-05
2.69586e-05
2.95911e-05
3.17408e-05
3.32742e-05
3.42251e-05
3.45983e-05
3.42899e-05
3.33099e-05
3.18562e-05
3.02548e-05
2.87766e-05
2.74954e-05
2.63237e-05
2.51549e-05
2.3949e-05
2.27202e-05
2.14917e-05
2.02747e-05
1.90712e-05
1.78825e-05
1.6712e-05
1.55643e-05
1.44448e-05
1.33584e-05
1.23097e-05
1.13025e-05
1.03404e-05
9.42584e-06
8.56093e-06
7.74697e-06
6.98471e-06
6.27451e-06
5.61635e-06
5.00991e-06
4.4546e-06
3.94951e-06
3.49335e-06
3.08441e-06
2.72051e-06
2.39897e-06
2.1167e-06
1.8704e-06
1.65676e-06
1.47276e-06
1.31535e-06
1.18091e-06
1.065e-06
9.63858e-07
8.77918e-07
8.14526e-07
7.84058e-07
7.88713e-07
8.1686e-07
8.51645e-07
8.80794e-07
8.96983e-07
8.94559e-07
8.70163e-07
8.25883e-07
7.69507e-07
7.1054e-07
6.55363e-07
6.05237e-07
5.57865e-07
5.10576e-07
4.62627e-07
4.15606e-07
3.72089e-07
3.34349e-07
3.02905e-07
2.77884e-07
2.56891e-07
2.41548e-07
2.25235e-07
2.19671e-07
1.98582e-07
2.16035e-07
1.77212e-07
3.90147e-06
4.55318e-06
5.28607e-06
6.00699e-06
6.63364e-06
7.12367e-06
7.47398e-06
7.70969e-06
7.87582e-06
8.02875e-06
8.22779e-06
8.53119e-06
8.99317e-06
9.6574e-06
1.05523e-05
1.16857e-05
1.30392e-05
1.45743e-05
1.62496e-05
1.79958e-05
1.97186e-05
2.14135e-05
2.3161e-05
2.49528e-05
2.66279e-05
2.79684e-05
2.88459e-05
2.92329e-05
2.91665e-05
2.87601e-05
2.81497e-05