/*--------------------------------*- C++ -*----------------------------------*\
| =========                 |                                                 |
| \\      /  F ield         | OpenFOAM: The Open Source CFD Toolbox           |
|  \\    /   O peration     | Version:  2.1.1                                 |
|   \\  /    A nd           | Web:      www.OpenFOAM.org                      |
|    \\/     M anipulation  |                                                 |
\*---------------------------------------------------------------------------*/
FoamFile
{
    version     2.0;
    format      ascii;
    class       volScalarField;
    location    "0.055";
    object      p;
}
// * * * * * * * * * * * * * * * * * * * * * * * * * * * * * * * * * * * * * //

dimensions      [0 2 -2 0 0 0 0];

internalField   nonuniform List<scalar> 
6820
(
7.8276
-10.0082
-13.017
-13.2047
-13.3776
-13.3042
-13.2469
-13.2581
-13.3033
-13.3673
-13.4415
-13.5205
-13.6018
-13.6841
-13.7667
-13.8492
-13.931
-14.0117
-14.0911
-14.1686
-14.2438
-14.3163
-14.3853
-14.4503
-14.5104
-14.5646
-14.6118
-14.6504
-14.6789
-14.6938
-14.6974
-14.669
-14.6624
1.14652
-9.82691
-12.7057
-13.0063
-13.2593
-13.2819
-13.2611
-13.2835
-13.3304
-13.3915
-13.4617
-13.5371
-13.6154
-13.6954
-13.7763
-13.8575
-13.9384
-14.0186
-14.0975
-14.1749
-14.2501
-14.3227
-14.392
-14.4574
-14.518
-14.573
-14.6212
-14.6613
-14.6917
-14.7103
-14.7179
-14.7076
-14.7222
-1.56801
-8.39643
-11.6851
-12.4437
-12.9124
-13.1098
-13.1678
-13.223
-13.2894
-13.3628
-13.4417
-13.5238
-13.6072
-13.691
-13.7746
-13.8577
-13.94
-14.0211
-14.1009
-14.1789
-14.2547
-14.328
-14.3983
-14.4649
-14.5273
-14.5847
-14.6364
-14.6815
-14.7197
-14.7505
-14.7784
-14.8064
-14.8787
-3.5533
-8.1691
-11.2634
-12.1234
-12.596
-12.8726
-13.0009
-13.1003
-13.1979
-13.2921
-13.3842
-13.4753
-13.5654
-13.6547
-13.743
-13.8301
-13.916
-14.0005
-14.0834
-14.1644
-14.2435
-14.3202
-14.3942
-14.4654
-14.5333
-14.5977
-14.6586
-14.7163
-14.7722
-14.8293
-14.8963
-14.9894
-15.1552
-5.18875
-8.26953
-10.8716
-11.776
-12.2844
-12.6404
-12.839
-12.9782
-13.1006
-13.2117
-13.3159
-13.4163
-13.5138
-13.6087
-13.7017
-13.7929
-13.8825
-13.9704
-14.0566
-14.1411
-14.2237
-14.3045
-14.3834
-14.4605
-14.536
-14.6103
-14.6844
-14.7601
-14.8408
-14.9327
-15.0487
-15.2104
-15.4644
-6.41132
-8.45041
-10.6208
-11.5659
-12.0934
-12.4766
-12.7103
-12.8725
-13.0112
-13.1353
-13.2493
-13.3573
-13.461
-13.5614
-13.6588
-13.7539
-13.8469
-13.9381
-14.0275
-14.1153
-14.2017
-14.2868
-14.371
-14.4547
-14.5385
-14.6237
-14.7121
-14.8067
-14.9126
-15.0379
-15.1971
-15.4108
-15.7205
-7.3619
-8.73672
-10.5034
-11.4112
-11.9265
-12.318
-12.582
-12.7698
-12.9267
-13.0645
-13.1887
-13.3042
-13.4138
-13.5187
-13.6201
-13.7186
-13.8148
-13.9089
-14.0013
-14.0922
-14.1819
-14.2709
-14.3596
-14.4488
-14.5397
-14.6337
-14.7334
-14.8425
-14.9667
-15.1144
-15.299
-15.538
-15.8621
-8.1077
-9.04272
-10.4521
-11.2954
-11.7992
-12.1924
-12.4751
-12.6804
-12.8495
-12.9971
-13.1291
-13.2509
-13.3657
-13.4752
-13.5805
-13.6826
-13.782
-13.8791
-13.9745
-14.0685
-14.1616
-14.2542
-14.3473
-14.4417
-14.5389
-14.6407
-14.7499
-14.8704
-15.0081
-15.1705
-15.3693
-15.6176
-15.9363
-8.69969
-9.34611
-10.462
-11.2251
-11.7066
-12.0882
-12.3775
-12.5944
-12.7737
-12.9303
-13.0701
-13.1983
-13.3185
-13.4325
-13.5417
-13.6472
-13.7496
-13.8497
-13.9479
-14.0448
-14.1409
-14.237
-14.3339
-14.4328
-14.5352
-14.6432
-14.7596
-14.8882
-15.0341
-15.2041
-15.407
-15.652
-15.9522
-9.1757
-9.63127
-10.5098
-11.1843
-11.6367
-12.0026
-12.2929
-12.5179
-12.7049
-12.8683
-13.0143
-13.1477
-13.2723
-13.3902
-13.5029
-13.6114
-13.7168
-13.8196
-13.9204
-14.02
-14.119
-14.2181
-14.3184
-14.4211
-14.5277
-14.6403
-14.7617
-14.8951
-15.0451
-15.2169
-15.4168
-15.6507
-15.926
-9.56263
-9.8905
-10.5815
-11.1689
-11.589
-11.9357
-12.2207
-12.4487
-12.6402
-12.8086
-12.9595
-13.0976
-13.2263
-13.348
-13.464
-13.5756
-13.6838
-13.7892
-13.8925
-13.9946
-14.0961
-14.1978
-14.3008
-14.4064
-14.5161
-14.6317
-14.7558
-14.8912
-15.0413
-15.2101
-15.4018
-15.6196
-15.8668
-9.88011
-10.1214
-10.6663
-11.1722
-11.5575
-11.8828
-12.1588
-12.3865
-12.5807
-12.7526
-12.9075
-13.0494
-13.1817
-13.3066
-13.4256
-13.5399
-13.6505
-13.7583
-13.8639
-13.9681
-14.0717
-14.1755
-14.2806
-14.3882
-14.4997
-14.6168
-14.7416
-14.8763
-15.0236
-15.1861
-15.3662
-15.5653
-15.7841
-10.1425
-10.3241
-10.7561
-11.1889
-11.539
-11.8423
-12.1069
-12.3316
-12.5262
-12.6999
-12.8575
-13.0024
-13.1377
-13.2655
-13.3872
-13.504
-13.6169
-13.7268
-13.8344
-13.9404
-14.0457
-14.1512
-14.2577
-14.3664
-14.4786
-14.5958
-14.7195
-14.8515
-14.9936
-15.1474
-15.3139
-15.4933
-15.6847
-10.3603
-10.5
-10.8452
-11.2142
-11.5303
-11.8115
-12.0632
-12.2826
-12.476
-12.6504
-12.8098
-12.9571
-13.0949
-13.2251
-13.3492
-13.4682
-13.5832
-13.6949
-13.8041
-13.9116
-14.0182
-14.1247
-14.2319
-14.3409
-14.4528
-14.5687
-14.6899
-14.8176
-14.9528
-15.0964
-15.2485
-15.4085
-15.5745
-10.5414
-10.6511
-10.9297
-11.2444
-11.5283
-11.7883
-12.0264
-12.2393
-12.4302
-12.6042
-12.7645
-12.9134
-13.0532
-13.1854
-13.3115
-13.4324
-13.5491
-13.6623
-13.7729
-13.8816
-13.989
-14.096
-14.2033
-14.3118
-14.4225
-14.5361
-14.6536
-14.7758
-14.9031
-15.0358
-15.1735
-15.315
-15.458
-10.6916
-10.7795
-11.007
-11.2761
-11.5307
-11.7706
-11.9952
-12.2006
-12.3881
-12.5608
-12.7213
-12.8713
-13.0125
-13.1464
-13.2742
-13.3967
-13.5149
-13.6294
-13.741
-13.8504
-13.9583
-14.0652
-14.172
-14.2794
-14.388
-14.4985
-14.6114
-14.7273
-14.8462
-14.9679
-15.0916
-15.2159
-15.3387
-10.8153
-10.8871
-11.0754
-11.3067
-11.5352
-11.7564
-11.9681
-12.1658
-12.3491
-12.52
-12.6801
-12.8307
-12.973
-13.1083
-13.2374
-13.3613
-13.4806
-13.5961
-13.7085
-13.8182
-13.9261
-14.0326
-14.1384
-14.244
-14.3499
-14.4567
-14.5646
-14.6737
-14.784
-14.8949
-15.0056
-15.1146
-15.2198
-10.9158
-10.9756
-11.1337
-11.3342
-11.5398
-11.7442
-11.9438
-12.1337
-12.3127
-12.4814
-12.6408
-12.7915
-12.9346
-13.0709
-13.2011
-13.3261
-13.4463
-13.5626
-13.6753
-13.7851
-13.8926
-13.9982
-14.1025
-14.2058
-14.3086
-14.4112
-14.5137
-14.616
-14.7178
-14.8185
-14.9172
-15.0126
-15.1026
-10.9957
-11.0463
-11.1811
-11.3568
-11.5428
-11.7324
-11.921
-12.1036
-12.2782
-12.4446
-12.603
-12.7537
-12.8973
-13.0344
-13.1656
-13.2914
-13.4124
-13.529
-13.6419
-13.7515
-13.8583
-13.9627
-14.0652
-14.1659
-14.2653
-14.3635
-14.4604
-14.5559
-14.6497
-14.741
-14.829
-14.9124
-14.9897
-11.0566
-11.1003
-11.2174
-11.3731
-11.5427
-11.7195
-11.8984
-12.0744
-12.245
-12.4091
-12.5665
-12.7171
-12.861
-12.9988
-13.1307
-13.2571
-13.3786
-13.4955
-13.6082
-13.7173
-13.8231
-13.926
-14.0263
-14.1242
-14.2199
-14.3135
-14.4049
-14.4939
-14.58
-14.6627
-14.7412
-14.8144
-14.881
-11.0999
-11.1384
-11.2419
-11.382
-11.5382
-11.7043
-11.875
-12.0454
-12.2123
-12.3745
-12.531
-12.6815
-12.8259
-12.9643
-13.0968
-13.2238
-13.3457
-13.4627
-13.5752
-13.6836
-13.7883
-13.8894
-13.9874
-14.0823
-14.1743
-14.2634
-14.3495
-14.4323
-14.5115
-14.5865
-14.6567
-14.7211
-14.7788
-11.1264
-11.161
-11.2542
-11.3824
-11.5281
-11.6856
-11.8497
-12.0155
-12.1796
-12.3402
-12.4962
-12.6467
-12.7915
-12.9304
-13.0636
-13.191
-13.3131
-13.43
-13.542
-13.6495
-13.7528
-13.852
-13.9475
-14.0393
-14.1275
-14.2122
-14.2931
-14.3702
-14.443
-14.5111
-14.574
-14.631
-14.6814
-11.1364
-11.1682
-11.2541
-11.3734
-11.5112
-11.6623
-11.8216
-11.984
-12.1463
-12.3061
-12.462
-12.6131
-12.7586
-12.8984
-13.0322
-13.1603
-13.2826
-13.3994
-13.511
-13.6176
-13.7194
-13.8168
-13.9097
-13.9985
-14.0831
-14.1635
-14.2397
-14.3115
-14.3785
-14.4406
-14.4972
-14.548
-14.5923
-11.13
-11.1598
-11.2407
-11.354
-11.4865
-11.6333
-11.7895
-11.9501
-12.1115
-12.2712
-12.4276
-12.5795
-12.7259
-12.8666
-13.0012
-13.1297
-13.2522
-13.3688
-13.4797
-13.5852
-13.6855
-13.7807
-13.8711
-13.9567
-14.0377
-14.114
-14.1857
-14.2525
-14.3144
-14.371
-14.4222
-14.4676
-14.5069
-11.1067
-11.1354
-11.2134
-11.3233
-11.453
-11.5979
-11.753
-11.9135
-12.0755
-12.2364
-12.3943
-12.5478
-12.6959
-12.838
-12.9739
-13.1032
-13.2262
-13.3428
-13.4533
-13.5578
-13.6566
-13.7498
-13.8377
-13.9204
-13.998
-14.0705
-14.138
-14.2004
-14.2576
-14.3095
-14.3559
-14.3968
-14.4318
-11.0658
-11.0941
-11.1712
-11.2802
-11.4094
-11.5545
-11.7105
-11.8723
-12.0361
-12.1992
-12.3592
-12.5148
-12.6648
-12.8085
-12.9456
-13.0758
-13.1991
-13.3156
-13.4255
-13.5289
-13.6261
-13.7172
-13.8026
-13.8823
-13.9565
-14.0254
-14.0889
-14.1471
-14.1999
-14.2475
-14.2897
-14.3266
-14.358
-11.006
-11.0347
-11.1129
-11.2235
-11.3551
-11.5032
-11.6628
-11.8286
-11.9965
-12.1636
-12.3276
-12.4867
-12.6398
-12.7861
-12.9251
-13.0567
-13.1809
-13.2976
-13.4071
-13.5097
-13.6054
-13.6947
-13.7777
-13.8546
-13.9257
-13.991
-14.0508
-14.1052
-14.1541
-14.1978
-14.2362
-14.2695
-14.2975
-10.9255
-10.9553
-11.0365
-11.1513
-11.2876
-11.4409
-11.6058
-11.7769
-11.9501
-12.1221
-12.2905
-12.4536
-12.6101
-12.7592
-12.9005
-13.0336
-13.1586
-13.2756
-13.3847
-13.4863
-13.5805
-13.6678
-13.7483
-13.8224
-13.8904
-13.9523
-14.0085
-14.0591
-14.1044
-14.1443
-14.1792
-14.2092
-14.2344
-10.8218
-10.8538
-10.9407
-11.0634
-11.2086
-11.3714
-11.546
-11.7266
-11.9084
-12.0884
-12.2638
-12.4329
-12.5944
-12.7475
-12.8918
-13.027
-13.1533
-13.2708
-13.3797
-13.4805
-13.5733
-13.6586
-13.7368
-13.8082
-13.873
-13.9316
-13.9843
-14.0314
-14.073
-14.1094
-14.1407
-14.1674
-14.1894
-10.6915
-10.7263
-10.8211
-10.9539
-11.1096
-11.2832
-11.4686
-11.6595
-11.8511
-12.0399
-12.2232
-12.3991
-12.5664
-12.7242
-12.872
-13.0099
-13.1379
-13.2561
-13.365
-13.465
-13.5565
-13.6399
-13.7157
-13.7842
-13.8459
-13.9012
-13.9504
-13.9939
-14.0319
-14.0648
-14.0928
-14.1164
-14.1358
-10.5304
-10.5706
-10.679
-10.8296
-11.0045
-11.1971
-11.4008
-11.6081
-11.8142
-12.0154
-12.2092
-12.3938
-12.5679
-12.7311
-12.8829
-13.0235
-13.1531
-13.272
-13.3807
-13.4798
-13.5696
-13.6509
-13.724
-13.7896
-13.848
-13.8997
-13.9452
-13.9848
-14.019
-14.048
-14.0723
-14.0922
-14.1078
-10.3312
-10.376
-10.4984
-10.6662
-10.8586
-11.0696
-11.292
-11.5174
-11.7403
-11.9567
-12.1637
-12.3596
-12.5431
-12.7136
-12.8711
-13.0157
-13.1479
-13.2681
-13.3771
-13.4755
-13.5639
-13.6431
-13.7137
-13.7762
-13.8312
-13.8794
-13.9211
-13.957
-13.9873
-14.0127
-14.0334
-14.05
-14.0628
-10.0887
-10.1481
-10.3031
-10.5089
-10.737
-10.9803
-11.2309
-11.4801
-11.7226
-11.9553
-12.1757
-12.3822
-12.574
-12.7509
-12.9129
-13.0606
-13.1945
-13.3153
-13.4238
-13.5208
-13.6071
-13.6835
-13.7507
-13.8094
-13.8604
-13.9042
-13.9413
-13.9725
-13.998
-14.0186
-14.0345
-14.0462
-14.0541
-9.78072
-9.8426
-10.0176
-10.2499
-10.5085
-10.7868
-11.0731
-11.3557
-11.6282
-11.8868
-12.1289
-12.3529
-12.5585
-12.7459
-12.9155
-13.0683
-13.2053
-13.3275
-13.436
-13.5319
-13.6163
-13.69
-13.7541
-13.8093
-13.8564
-13.8961
-13.9291
-13.9559
-13.9771
-13.9934
-14.0052
-14.0131
-14.0177
-9.41773
-9.53486
-9.79531
-10.0988
-10.4085
-10.7272
-11.0464
-11.3553
-11.6495
-11.9263
-12.1836
-12.42
-12.6356
-12.8304
-13.0054
-13.1616
-13.3001
-13.4222
-13.5292
-13.6225
-13.7033
-13.7726
-13.8316
-13.8812
-13.9224
-13.9559
-13.9824
-14.0026
-14.0171
-14.0266
-14.0315
-14.0325
-14.0301
-8.88712
-8.97808
-9.27615
-9.64735
-10.0378
-10.44
-10.8336
-11.2046
-11.5494
-11.8662
-12.1537
-12.4126
-12.6441
-12.8501
-13.0324
-13.1928
-13.3334
-13.4558
-13.5619
-13.6533
-13.7313
-13.7974
-13.8527
-13.8983
-13.9352
-13.9642
-13.9861
-14.0015
-14.011
-14.0153
-14.0149
-14.0108
-14.0036
-8.39084
-8.71312
-9.18074
-9.59928
-10.0091
-10.4373
-10.8557
-11.2507
-11.6207
-11.9621
-12.2719
-12.5496
-12.796
-13.0127
-13.2017
-13.3653
-13.5058
-13.6256
-13.7269
-13.8119
-13.8823
-13.9399
-13.9861
-14.0224
-14.0497
-14.069
-14.0811
-14.0868
-14.0863
-14.0804
-14.0692
-14.0537
-14.0341
-7.08748
-7.40915
-8.18201
-8.88137
-9.51748
-10.1235
-10.6673
-11.1487
-11.578
-11.9591
-12.2953
-12.591
-12.8498
-13.0753
-13.2704
-13.4381
-13.5811
-13.702
-13.8031
-13.8867
-13.9548
-14.0092
-14.0515
-14.0833
-14.1056
-14.1196
-14.1259
-14.1252
-14.1176
-14.1034
-14.0819
-14.0545
-14.0165
-7.07448
-7.81944
-8.42391
-8.89092
-9.49096
-10.1244
-10.7147
-11.2642
-11.7668
-12.2118
-12.5984
-12.9301
-13.211
-13.4461
-13.6407
-13.7999
-13.9286
-14.0312
-14.1116
-14.1731
-14.2186
-14.2508
-14.2717
-14.283
-14.2863
-14.2827
-14.2731
-14.2581
-14.2374
-14.2103
-14.1739
-14.1254
-14.0507
-0.823097
-5.43107
-7.21526
-8.06604
-9.06828
-9.94434
-10.6447
-11.2523
-11.7833
-12.2382
-12.6259
-12.9549
-13.2313
-13.4615
-13.6514
-13.8064
-13.9314
-14.0308
-14.1083
-14.1673
-14.2107
-14.2409
-14.26
-14.2698
-14.2719
-14.2675
-14.2577
-14.2433
-14.2254
-14.2036
-14.1808
-14.1517
-14.1281
-14.3812
-15.6747
-19.7954
-24.1997
-27.5206
-28.9855
-28.6124
-27.0651
-25.0281
-22.566
-19.137
-14.1717
-7.94374
-1.72219
2.98932
5.26448
4.93523
2.16383
-2.74157
-9.22585
-16.7618
-24.7457
-32.6082
-39.9382
-46.4548
-51.9105
-56.0381
-58.5674
-59.329
-58.2587
-55.5308
-51.487
-46.5277
-40.9826
-35.0947
-29.1202
-23.3799
-18.1793
-13.695
-9.95895
-6.91789
-4.48786
-2.57946
-1.10647
0.0104856
0.841406
1.44573
1.87252
2.1615
2.3444
2.44633
2.487
2.48188
2.44307
2.38011
2.30049
2.21016
2.11377
2.01497
1.91647
1.82027
1.72773
1.6397
1.55665
1.47877
1.40607
1.33839
1.27551
1.21712
1.16287
1.11237
1.06524
1.02108
0.979515
0.940138
0.902547
0.866344
0.83115
0.79662
0.762464
0.728455
0.69442
0.660231
0.625798
0.591055
0.55596
0.520485
0.484618
0.448342
0.411665
0.374567
0.337089
0.299071
0.260771
0.221485
0.182849
0.141207
0.104366
0.0556367
0.0307599
-14.6751
-15.8068
-19.5475
-23.6241
-26.6944
-28.1625
-27.9461
-26.5338
-24.5034
-21.9392
-18.4413
-13.6535
-7.93086
-2.3699
1.83868
3.99747
3.71959
1.18515
-3.2906
-9.28836
-16.2871
-23.7666
-31.2111
-38.1975
-44.4157
-49.6066
-53.5172
-55.9084
-56.6306
-55.636
-53.0989
-49.3347
-44.6834
-39.4234
-33.801
-28.1099
-22.6852
-17.7961
-13.5707
-10.0207
-7.0999
-4.74062
-2.86814
-1.40726
-0.28673
0.557472
1.18056
1.62875
1.93994
2.14474
2.26762
2.32798
2.34112
2.31913
2.27155
2.20593
2.12827
2.04328
1.95463
1.86513
1.77684
1.6912
1.60914
1.53123
1.45775
1.38879
1.32426
1.26402
1.20782
1.15537
1.10636
1.06044
1.01728
0.976516
0.937796
0.900742
0.864976
0.830145
0.795913
0.762
0.728188
0.694307
0.660236
0.625889
0.591205
0.556145
0.520686
0.484819
0.448533
0.411839
0.374715
0.337211
0.299156
0.260844
0.221523
0.182879
0.141196
0.104371
0.0556123
0.0307213
-15.0939
-16.425
-19.6529
-23.2283
-25.9464
-27.2239
-26.996
-25.6539
-23.6428
-21.0424
-17.6069
-13.1798
-8.13628
-3.34578
0.280065
2.16959
2.07208
-0.14159
-4.16561
-9.62189
-16.0387
-22.9332
-29.8635
-36.4306
-42.3043
-47.2079
-50.8928
-53.1394
-53.8198
-52.9151
-50.5918
-47.1164
-42.7607
-37.7749
-32.4323
-27.0616
-21.9849
-17.4178
-13.447
-10.077
-7.2738
-4.98557
-3.15079
-1.70423
-0.582252
0.273434
0.91389
1.38248
1.71523
1.94157
2.08525
2.16529
2.1968
2.19179
2.1598
2.10841
2.04365
1.97029
1.89204
1.81176
1.73159
1.65304
1.57714
1.50454
1.43562
1.37052
1.30927
1.25178
1.19786
1.1473
1.09983
1.05518
1.01305
0.97313
0.935109
0.898639
0.863364
0.828943
0.795054
0.761425
0.727843
0.694146
0.660219
0.625979
0.591371
0.556362
0.520932
0.485078
0.448791
0.412089
0.374944
0.337419
0.299332
0.261005
0.22165
0.182997
0.141278
0.104463
0.0556792
0.0307526
-15.5537
-16.8512
-19.5076
-22.4934
-24.7576
-25.8216
-25.6104
-24.3775
-22.4487
-19.9306
-16.724
-12.8059
-8.51107
-4.49828
-1.45283
0.169651
0.149845
-1.7001
-5.24583
-10.1476
-15.974
-22.27
-28.6289
-34.6989
-40.1651
-44.7451
-48.1863
-50.2857
-50.9431
-50.1594
-48.0642
-44.8566
-40.7635
-36.0461
-31.0172
-26.0114
-21.3031
-17.053
-13.3244
-10.126
-7.43776
-5.22143
-3.42647
-1.99658
-0.875357
-0.0100719
0.646264
1.13417
1.48774
1.73517
1.89943
1.99909
2.04903
2.06114
2.04494
2.008
1.95637
1.89486
1.82724
1.75642
1.68459
1.61335
1.5438
1.47669
1.41248
1.3514
1.29356
1.23892
1.1874
1.13881
1.09298
1.04966
1.00863
0.96962
0.932342
0.896487
0.861723
0.827726
0.794189
0.760849
0.727499
0.693985
0.660196
0.626057
0.591518
0.556552
0.521143
0.485293
0.448998
0.41228
0.37511
0.337558
0.299436
0.261089
0.221703
0.183037
0.141286
0.104473
0.055675
0.0307067
-15.9619
-17.133
-19.2044
-21.5209
-23.2865
-24.1068
-23.8947
-22.804
-21.0645
-18.7822
-15.9382
-12.5723
-8.9654
-5.6223
-3.08203
-1.73782
-1.77429
-3.33507
-6.40162
-10.7522
-16.0067
-21.7345
-27.5398
-33.0909
-38.1034
-42.3173
-45.4975
-47.4647
-48.1222
-47.4555
-45.5445
-42.5459
-38.6879
-34.2633
-29.5978
-24.9886
-20.6491
-16.7011
-13.2012
-10.1673
-7.59207
-5.44824
-3.69485
-2.28382
-1.16552
-0.292547
0.37813
0.884194
1.25779
1.5258
1.71037
1.82955
1.89794
1.92728
1.92702
1.90472
1.86644
1.81701
1.76024
1.69908
1.6358
1.57206
1.50906
1.44761
1.38826
1.33134
1.27702
1.22535
1.1763
1.12978
1.08563
1.04371
1.00383
0.965761
0.929269
0.894074
0.859865
0.826336
0.793189
0.760172
0.727084
0.693777
0.660147
0.626127
0.591672
0.556761
0.521384
0.48555
0.449255
0.412529
0.375339
0.337765
0.299615
0.261249
0.221834
0.183153
0.141372
0.104557
0.0557483
0.0307195
-16.242
-17.2396
-18.7972
-20.5182
-21.8526
-22.4738
-22.2869
-21.3675
-19.8582
-17.8472
-15.3607
-12.4753
-9.43329
-6.63486
-4.51364
-3.40873
-3.49272
-4.86637
-7.52813
-11.3445
-16.0355
-21.2223
-26.5207
-31.5992
-36.1837
-40.0371
-42.9623
-44.7978
-45.4212
-44.7959
-42.9874
-40.1582
-36.5572
-32.4818
-28.2227
-24.0164
-20.0281
-16.3615
-13.0764
-10.2005
-7.73632
-5.66551
-3.9554
-2.56537
-1.45217
-0.573447
0.109988
0.633005
1.02576
1.31378
1.51832
1.65687
1.74368
1.79033
1.80614
1.79866
1.77393
1.73679
1.69108
1.63981
1.58529
1.52925
1.47297
1.41735
1.36302
1.3104
1.25973
1.21114
1.16467
1.12029
1.07793
1.03747
0.998794
0.961727
0.926066
0.891564
0.857939
0.824898
0.79216
0.759478
0.726661
0.693566
0.660096
0.626192
0.591817
0.556956
0.521605
0.485778
0.449477
0.412735
0.375521
0.33792
0.299736
0.261348
0.221901
0.183204
0.141394
0.104571
0.055761
0.030665
-16.3633
-17.2077
-18.4068
-19.7098
-20.7251
-21.1877
-21.004
-20.2043
-18.8796
-17.1071
-14.9382
-12.466
-9.89897
-7.55777
-5.79123
-4.88312
-4.99938
-6.22846
-8.56096
-11.8935
-16.0225
-20.6555
-25.4538
-30.0928
-34.2943
-37.8272
-40.5018
-42.1596
-42.6831
-42.0476
-40.3352
-37.7218
-34.4479
-30.7723
-26.9284
-23.1035
-19.438
-16.0315
-12.949
-10.2256
-7.87068
-5.8732
-4.20784
-2.84085
-1.73484
-0.852281
-0.157692
0.38102
0.79201
1.09941
1.32352
1.48123
1.58642
1.65041
1.68241
1.68991
1.67891
1.65426
1.61981
1.57862
1.53305
1.4849
1.43552
1.3859
1.33675
1.28855
1.24165
1.19624
1.15244
1.11028
1.06976
1.03082
0.993402
0.957377
0.922588
0.888821
0.85582
0.823307
0.791011
0.758697
0.726175
0.693313
0.660022
0.626248
0.591965
0.557164
0.521848
0.486037
0.449737
0.412986
0.375753
0.33813
0.299919
0.261509
0.222036
0.183321
0.141485
0.104649
0.0558415
0.0306612
-16.4006
-17.1166
-18.0535
-19.0359
-19.789
-20.1111
-19.9179
-19.2147
-18.0581
-16.5112
-14.6347
-12.5261
-10.3662
-8.41512
-6.95445
-6.21946
-6.35978
-7.45621
-9.50089
-12.4061
-16.0067
-20.0729
-24.332
-28.4979
-32.3006
-35.5068
-37.9105
-39.3702
-39.8088
-39.2187
-37.6833
-35.363
-32.4605
-29.1853
-25.7271
-22.2466
-18.8744
-15.7093
-12.8192
-10.243
-7.9953
-6.07122
-4.45192
-3.10984
-2.01307
-1.12857
-0.424446
0.128667
0.556919
0.883009
1.12626
1.30289
1.42634
1.50768
1.55596
1.57856
1.58146
1.56948
1.5465
1.51559
1.47916
1.43909
1.39678
1.35332
1.30948
1.26584
1.22282
1.1807
1.13966
1.09981
1.0612
1.02386
0.987751
0.952819
0.918945
0.88595
0.853603
0.821645
0.789816
0.757886
0.725675
0.693056
0.659946
0.626305
0.592111
0.557366
0.52208
0.486279
0.449973
0.413207
0.375949
0.338299
0.300056
0.261621
0.222117
0.183381
0.141522
0.104658
0.0558694
0.030597
-16.3691
-16.9686
-17.6998
-18.4389
-18.9943
-19.2112
-19.0134
-18.3919
-17.3822
-16.0377
-14.4219
-12.6312
-10.821
-9.2028
-8.00477
-7.4221
-7.58546
-8.56601
-10.36
-12.8929
-16.0251
-19.5637
-23.2825
-26.9418
-30.3039
-33.1492
-35.2871
-36.6016
-37.0184
-36.5337
-35.2175
-33.2005
-30.647
-27.7291
-24.6106
-21.4378
-18.3339
-15.3946
-12.6874
-10.2532
-8.11051
-6.25965
-4.6875
-3.37208
-2.28647
-1.40187
-0.689835
-0.12364
0.32086
0.664911
0.926809
1.12206
1.26364
1.36231
1.42692
1.46475
1.48169
1.48256
1.47122
1.45077
1.42367
1.39184
1.35678
1.31961
1.28123
1.24228
1.20325
1.16452
1.12632
1.08885
1.05222
1.01652
0.981771
0.947974
0.915053
0.882868
0.851213
0.819845
0.788515
0.756999
0.725123
0.692765
0.659854
0.626356
0.592261
0.55758
0.522331
0.486546
0.45024
0.413464
0.376188
0.338515
0.300245
0.261787
0.222257
0.1835
0.141621
0.104732
0.0559583
0.0305782
-16.293
-16.7918
-17.3647
-17.9206
-18.3226
-18.4536
-18.2494
-17.6963
-16.8175
-15.6575
-14.2772
-12.7659
-11.2567
-9.92239
-8.94873
-8.49727
-8.68074
-9.56107
-11.138
-13.3493
-16.0766
-19.1555
-22.3923
-25.5815
-28.52
-31.0207
-32.9239
-34.1155
-34.5202
-34.1336
-33.0103
-31.2532
-28.996
-26.3853
-23.5661
-20.6715
-17.8154
-15.0879
-12.5544
-10.2569
-8.2167
-6.43864
-4.91452
-3.62732
-2.5547
-1.67181
-0.953451
-0.375506
0.0842009
0.445445
0.725463
0.93901
1.09855
1.21449
1.29548
1.34861
1.37973
1.3936
1.39407
1.38426
1.36666
1.34325
1.31557
1.28486
1.25206
1.21791
1.18299
1.14773
1.11247
1.07745
1.04287
1.00886
0.975524
0.942906
0.91098
0.87964
0.848709
0.817961
0.787155
0.756076
0.724552
0.692469
0.659763
0.626411
0.592414
0.557795
0.522577
0.486803
0.450492
0.4137
0.376399
0.338697
0.300396
0.261909
0.22235
0.183569
0.14167
0.10475
0.0559994
0.0305029
-16.1852
-16.597
-17.0447
-17.4597
-17.7443
-17.8108
-17.6066
-17.1164
-16.3553
-15.3606
-14.1884
-12.9195
-11.6675
-10.5744
-9.79148
-9.45206
-9.65229
-10.4454
-11.833
-13.7646
-16.1406
-18.8219
-21.6428
-24.4259
-26.9957
-29.192
-30.875
-31.9386
-32.3164
-32.0003
-31.0296
-29.4855
-27.4794
-25.1371
-22.5862
-19.9457
-17.3189
-14.7899
-12.421
-10.2546
-8.31434
-6.60845
-5.13303
-3.87545
-2.8175
-1.93803
-1.21493
-0.626558
-0.152701
0.224943
0.522521
0.754003
0.931298
1.06444
1.1618
1.23032
1.27573
1.30274
1.31518
1.31616
1.30822
1.29337
1.27324
1.24911
1.22202
1.19279
1.16206
1.13036
1.0981
1.0656
1.03312
1.00086
0.968978
0.937578
0.906681
0.876221
0.846048
0.815953
0.785705
0.75509
0.723942
0.692152
0.659665
0.626469
0.592578
0.558025
0.522844
0.487084
0.450773
0.413969
0.376648
0.338923
0.300594
0.262083
0.222498
0.183693
0.141777
0.104823
0.0560987
0.0304714
-16.0572
-16.3953
-16.7445
-17.0526
-17.2489
-17.2678
-17.0672
-16.6328
-15.9758
-15.1277
-14.1388
-13.0804
-12.0488
-11.1607
-10.5395
-10.2949
-10.5079
-11.2242
-12.4461
-14.1325
-16.2006
-18.5332
-20.9894
-23.4166
-25.6624
-27.5856
-29.0636
-30.0036
-30.347
-30.0803
-29.232
-27.8677
-26.0801
-23.9766
-21.668
-19.2595
-16.8447
-14.501
-12.288
-10.2472
-8.40404
-6.76946
-5.34318
-4.11642
-3.07471
-2.20028
-1.47394
-0.876453
-0.389506
0.00372832
0.318285
0.567317
0.762142
0.912374
1.0261
1.11006
1.16986
1.21014
1.23468
1.24661
1.24847
1.24233
1.22987
1.21245
1.19118
1.16695
1.14052
1.11246
1.08327
1.05335
1.02302
0.992557
0.962175
0.932031
0.902199
0.872652
0.843268
0.813856
0.784192
0.754067
0.723315
0.691832
0.659571
0.626535
0.592749
0.558259
0.523109
0.487359
0.451041
0.414219
0.376872
0.339117
0.300757
0.262215
0.222602
0.183768
0.141836
0.10484
0.0561498
0.0303849
-15.9169
-16.193
-16.4643
-16.6908
-16.821
-16.806
-16.6132
-16.2306
-15.6669
-14.9488
-14.1203
-13.2435
-12.3996
-11.6847
-11.1994
-11.0338
-11.2557
-11.9036
-12.9801
-14.4515
-16.249
-18.274
-20.407
-22.5172
-24.473
-26.1499
-27.4423
-28.2677
-28.5726
-28.3414
-27.5948
-26.3855
-24.7899
-22.899
-20.8087
-18.6119
-16.3926
-14.222
-12.1561
-10.2355
-8.48647
-6.92214
-5.54522
-4.35028
-3.32621
-2.45835
-1.73022
-1.12489
-0.625898
-0.217886
0.113056
0.379235
0.591345
0.758547
0.888605
0.988045
1.06232
1.11596
1.15274
1.17574
1.18754
1.19023
1.18556
1.17496
1.15961
1.14049
1.11842
1.09407
1.06802
1.04073
1.01259
0.983962
0.955111
0.926255
0.897516
0.868912
0.840349
0.811652
0.782604
0.752997
0.722664
0.691506
0.659485
0.626617
0.592941
0.558517
0.523403
0.487665
0.451342
0.414506
0.377137
0.339356
0.300968
0.262399
0.222761
0.183898
0.141954
0.104914
0.0562618
0.0303421
-15.7706
-15.9951
-16.205
-16.3698
-16.4516
-16.4142
-16.2327
-15.8977
-15.4165
-14.8122
-14.1229
-13.4019
-12.7174
-12.1482
-11.7766
-11.6762
-11.9032
-12.4897
-13.4384
-14.7215
-16.2814
-18.0356
-19.8828
-21.7113
-23.4076
-24.8641
-25.9884
-26.7067
-26.9715
-26.766
-26.1044
-25.0285
-23.6011
-21.8993
-20.0057
-18.0017
-15.9626
-13.9533
-12.0262
-10.2204
-8.56242
-7.06708
-5.73953
-4.57722
-3.57203
-2.71212
-1.98357
-1.37161
-0.861592
-0.439604
-0.0928699
0.190046
0.419184
0.603221
0.74957
0.86451
0.953322
1.02044
1.06955
1.10374
1.12559
1.13723
1.14046
1.13677
1.12742
1.11348
1.09583
1.07525
1.05238
1.02777
1.00187
0.975109
0.947821
0.92028
0.892664
0.86503
0.837315
0.809362
0.780958
0.751894
0.722001
0.691183
0.659409
0.62671
0.593142
0.558781
0.523695
0.487962
0.451629
0.414771
0.377374
0.339562
0.301141
0.262539
0.222873
0.183977
0.14202
0.104929
0.0563219
0.0302387
-15.6229
-15.8048
-15.9667
-16.085
-16.132
-16.0809
-15.9131
-15.622
-15.2141
-14.7093
-14.1403
-13.5525
-13.0025
-12.5554
-12.2779
-12.2304
-12.4588
-12.9898
-13.8257
-14.9433
-16.2949
-17.8111
-19.4063
-20.9853
-22.4509
-23.7099
-24.6816
-25.301
-25.5255
-25.3378
-24.747
-23.7859
-22.5063
-20.9728
-19.2562
-17.4279
-15.5548
-13.6957
-11.8993
-10.2029
-8.63277
-7.20497
-5.92658
-4.79752
-3.81227
-2.96157
-2.23385
-1.61641
-1.09634
-0.661152
-0.299206
4.16272e-05
0.245949
0.446679
0.609267
0.739717
0.843121
0.923782
0.985328
1.03081
1.06281
1.08349
1.0947
1.098
1.09472
1.08601
1.07285
1.05609
1.03643
1.01452
0.990895
0.966023
0.940319
0.914116
0.887643
0.861003
0.834164
0.806984
0.779256
0.750765
0.721337
0.690876
0.659362
0.626839
0.593382
0.559084
0.524028
0.488302
0.45196
0.415083
0.37766
0.339819
0.301369
0.262737
0.223046
0.184118
0.142151
0.105008
0.0564488
0.030186
-15.4769
-15.6242
-15.7486
-15.8324
-15.8551
-15.7972
-15.645
-15.3942
-15.051
-14.6324
-14.1666
-13.6915
-13.2546
-12.9088
-12.7086
-12.703
-12.9295
-13.41
-14.146
-15.1185
-16.2874
-17.5946
-18.968
-20.3267
-21.5872
-22.6699
-23.5042
-24.0331
-24.218
-24.0422
-23.5105
-22.6486
-21.4988
-20.115
-18.5579
-16.8896
-15.1693
-13.4499
-11.7764
-10.184
-8.69849
-7.33661
-6.10698
-5.01157
-4.04715
-3.20677
-2.48103
-1.85917
-1.32995
-0.882288
-0.505682
-0.19049
0.0719371
0.289222
0.467994
0.613957
0.731996
0.826272
0.90033
0.957185
0.999411
1.02921
1.04846
1.05881
1.06165
1.05822
1.04957
1.03664
1.02023
1.00105
0.979707
0.956745
0.932642
0.907791
0.882479
0.856852
0.830912
0.804533
0.777508
0.749615
0.720672
0.690582
0.659332
0.626984
0.593633
0.559391
0.524355
0.488627
0.452267
0.415364
0.37791
0.340033
0.301549
0.262882
0.223163
0.184198
0.142221
0.105017
0.0565159
0.0300653
-15.3355
-15.4546
-15.5502
-15.6087
-15.6152
-15.5554
-15.4198
-15.2057
-14.9193
-14.5752
-14.1973
-13.8175
-13.4748
-13.2127
-13.0753
-13.1022
-13.3238
-13.7578
-14.4053
-15.25
-16.2588
-17.3828
-18.5612
-19.7257
-20.805
-21.7307
-22.4416
-22.8877
-23.0348
-22.8663
-22.3841
-21.6081
-20.5723
-19.322
-17.9086
-16.3859
-14.806
-13.2165
-11.6584
-10.1648
-8.76063
-7.46293
-6.28147
-5.21991
-4.27702
-3.4479
-2.72514
-2.09981
-1.56227
-1.10281
-0.712045
-0.381265
-0.102546
0.131168
0.326071
0.487551
0.620261
0.728208
0.81484
0.88313
0.935643
0.974605
1.00195
1.01938
1.02837
1.03023
1.02612
1.01704
1.00388
0.987427
0.96837
0.94732
0.924821
0.901329
0.877187
0.85259
0.827572
0.802021
0.775731
0.748468
0.720037
0.690336
0.659362
0.627194
0.593949
0.559761
0.524745
0.489013
0.452637
0.415708
0.378224
0.340315
0.301799
0.263099
0.223355
0.184353
0.14237
0.105103
0.056661
0.0300035
-15.1997
-15.2964
-15.3699
-15.4103
-15.4066
-15.3487
-15.2298
-15.0491
-14.8122
-14.532
-14.2284
-13.9283
-13.6637
-13.4699
-13.3826
-13.4339
-13.6481
-14.039
-14.6076
-15.3401
-16.2085
-17.172
-18.1796
-19.1733
-20.0927
-20.8793
-21.48
-21.8515
-21.9629
-21.7985
-21.358
-20.6564
-19.7213
-18.5899
-17.3061
-15.9159
-14.4652
-12.9963
-11.5464
-10.1465
-8.82035
-7.58495
-6.45089
-5.42321
-4.50236
-3.68527
-2.96635
-2.33837
-1.79323
-1.32254
-0.918068
-0.572006
-0.277187
-0.0271483
0.18385
0.360853
0.508265
0.629926
0.729181
0.808947
0.871781
0.919932
0.955384
0.979896
0.995033
1.00218
1.00259
0.997349
0.987435
0.973708
0.956933
0.937792
0.916895
0.894762
0.871794
0.848235
0.824153
0.799453
0.773925
0.747317
0.719417
0.690115
0.659417
0.627423
0.594274
0.560127
0.525118
0.489372
0.452968
0.416004
0.378483
0.340535
0.301983
0.263244
0.223473
0.184431
0.142442
0.105103
0.0567335
0.0298616
-15.0714
-15.1503
-15.2073
-15.235
-15.2256
-15.1718
-15.0695
-14.9187
-14.7247
-14.4988
-14.2578
-14.0238
-13.8232
-13.6847
-13.6369
-13.7055
-13.91
-14.2612
-14.7594
-15.393
-16.1385
-16.9616
-17.8196
-18.6635
-19.4423
-20.1059
-20.6087
-20.9128
-20.9911
-20.8286
-20.4235
-19.7867
-18.9404
-17.9153
-16.7482
-15.4788
-14.1468
-12.7898
-11.4416
-10.1304
-8.87889
-7.70382
-6.61626
-5.62229
-4.7238
-3.91932
-3.20493
-2.57497
-2.02283
-1.5414
-1.12356
-0.762448
-0.45167
-0.185372
0.041708
0.234251
0.396399
0.531812
0.643721
0.734987
0.808156
0.865499
0.909048
0.940631
0.96189
0.974302
0.979197
0.977761
0.971054
0.960018
0.945492
0.928232
0.908914
0.888125
0.866325
0.84381
0.820683
0.796862
0.77213
0.746213
0.718873
0.68999
0.659577
0.627757
0.594701
0.560592
0.525586
0.489822
0.453389
0.41639
0.378833
0.340846
0.30226
0.263484
0.223687
0.184603
0.142612
0.105198
0.0569007
0.0297905
-14.9501
-15.015
-15.0598
-15.0789
-15.067
-15.019
-14.9324
-14.8081
-14.6511
-14.4711
-14.2822
-14.1026
-13.954
-13.8594
-13.8419
-13.9218
-14.1148
-14.429
-14.8644
-15.4108
-16.0486
-16.7491
-17.4764
-18.1895
-18.8451
-19.4005
-19.8167
-20.0609
-20.1091
-19.9471
-19.5722
-18.9923
-18.2246
-17.2947
-16.2331
-15.0737
-13.8509
-12.5979
-11.3449
-10.1177
-8.9376
-7.82085
-6.77872
-5.81813
-4.94212
-4.15066
-3.44129
-2.80986
-2.25115
-1.75931
-1.32835
-0.952342
-0.625673
-0.343128
-0.0999467
0.108173
0.285096
0.434288
0.558864
0.661626
0.745106
0.8116
0.863193
0.901784
0.929097
0.946704
0.956023
0.958335
0.954786
0.9464
0.934092
0.918685
0.900924
0.881459
0.860812
0.839333
0.817164
0.794239
0.770328
0.745126
0.718364
0.689905
0.659771
0.628111
0.595129
0.561038