/*--------------------------------*- C++ -*----------------------------------*\
| =========                 |                                                 |
| \\      /  F ield         | OpenFOAM: The Open Source CFD Toolbox           |
|  \\    /   O peration     | Version:  2.1.1                                 |
|   \\  /    A nd           | Web:      www.OpenFOAM.org                      |
|    \\/     M anipulation  |                                                 |
\*---------------------------------------------------------------------------*/
FoamFile
{
    version     2.0;
    format      ascii;
    class       surfaceScalarField;
    location    "0.055";
    object      phi;
}
// * * * * * * * * * * * * * * * * * * * * * * * * * * * * * * * * * * * * * //

dimensions      [0 3 -1 0 0 0 0];

internalField   nonuniform List<scalar> 
13452
(
4.59976e-05
2.24896e-05
2.96606e-05
1.6337e-05
2.11819e-05
8.47878e-06
1.72775e-05
3.9044e-06
1.56315e-05
1.64597e-06
1.48192e-05
8.12328e-07
1.43038e-05
5.15394e-07
1.39084e-05
3.95413e-07
1.35728e-05
3.3556e-07
1.32816e-05
2.91237e-07
1.303e-05
2.51609e-07
1.28139e-05
2.16025e-07
1.2629e-05
1.84909e-07
1.24707e-05
1.58346e-07
1.23347e-05
1.35998e-07
1.22173e-05
1.17333e-07
1.21155e-05
1.01824e-07
1.20265e-05
8.90354e-08
1.19478e-05
7.86491e-08
1.18774e-05
7.04723e-08
1.18129e-05
6.44348e-08
1.17523e-05
6.05906e-08
1.16932e-05
5.91283e-08
1.16328e-05
6.03978e-08
1.15679e-05
6.49387e-08
1.14943e-05
7.36198e-08
1.14067e-05
8.75383e-08
1.12975e-05
1.09192e-07
1.11578e-05
1.39753e-07
1.09656e-05
1.9218e-07
1.07122e-05
2.53438e-07
1.0267e-05
4.45139e-07
4.52103e-07
9.81491e-06
7.4912e-05
1.80215e-05
7.04095e-05
2.08395e-05
6.33166e-05
1.55717e-05
5.66579e-05
1.05631e-05
5.15372e-05
6.76671e-06
4.78773e-05
4.47225e-06
4.52522e-05
3.14047e-06
4.33198e-05
2.32776e-06
4.18471e-05
1.80834e-06
4.0684e-05
1.45435e-06
3.97381e-05
1.19743e-06
3.89516e-05
1.00257e-06
3.82863e-05
8.50204e-07
3.77163e-05
7.28379e-07
3.72229e-05
6.29317e-07
3.67926e-05
5.47713e-07
3.64145e-05
4.79855e-07
3.60804e-05
4.23134e-07
3.57833e-05
3.75736e-07
3.55174e-05
3.36449e-07
3.52773e-05
3.04537e-07
3.50582e-05
2.79682e-07
3.48554e-05
2.61956e-07
3.46639e-05
2.51846e-07
3.44785e-05
2.5033e-07
3.42931e-05
2.59037e-07
3.41002e-05
2.80442e-07
3.38906e-05
3.18766e-07
3.3651e-05
3.79377e-07
3.33664e-05
4.7674e-07
3.30015e-05
6.18337e-07
3.25692e-05
8.77438e-07
1.24717e-06
3.17742e-05
7.85209e-05
1.19572e-05
8.23334e-05
1.7027e-05
8.2989e-05
1.49161e-05
8.14698e-05
1.20822e-05
7.89423e-05
9.29427e-06
7.62501e-05
7.16443e-06
7.37249e-05
5.66566e-06
7.14701e-05
4.58258e-06
6.94989e-05
3.7795e-06
6.77869e-05
3.16635e-06
6.63008e-05
2.6836e-06
6.50084e-05
2.29498e-06
6.38812e-05
1.97737e-06
6.28948e-05
1.71478e-06
6.20285e-05
1.49562e-06
6.12648e-05
1.31134e-06
6.05892e-05
1.15551e-06
5.9989e-05
1.0233e-06
5.94537e-05
9.11093e-07
5.89739e-05
8.16249e-07
5.85415e-05
7.36936e-07
5.81491e-05
6.72041e-07
5.779e-05
6.21121e-07
5.74574e-05
5.8443e-07
5.71447e-05
5.63003e-07
5.68449e-05
5.5885e-07
5.65501e-05
5.75245e-07
5.62513e-05
6.17518e-07
5.59374e-05
6.93331e-07
5.55969e-05
8.17258e-07
5.52097e-05
1.00551e-06
5.47807e-05
1.30644e-06
1.74958e-06
5.42783e-05
7.81465e-05
8.33737e-06
8.19221e-05
1.32513e-05
8.4617e-05
1.22212e-05
8.62379e-05
1.04613e-05
8.69136e-05
8.61857e-06
8.69967e-05
7.08132e-06
8.67296e-05
5.93278e-06
8.62545e-05
5.05767e-06
8.56629e-05
4.37105e-06
8.50107e-05
3.81862e-06
8.43322e-05
3.36201e-06
8.36503e-05
2.97689e-06
8.29806e-05
2.64715e-06
8.23336e-05
2.36177e-06
8.17158e-05
2.11345e-06
8.11306e-05
1.89654e-06
8.05795e-05
1.70658e-06
8.00627e-05
1.54011e-06
7.95793e-05
1.39449e-06
7.91278e-05
1.26777e-06
7.8706e-05
1.15865e-06
7.83116e-05
1.06644e-06
7.79417e-05
9.91059e-07
7.7593e-05
9.33143e-07
7.72619e-05
8.94131e-07
7.69442e-05
8.76493e-07
7.66354e-05
8.84034e-07
7.63304e-05
9.22506e-07
7.60237e-05
1.00005e-06
7.57116e-05
1.12939e-06
7.53909e-05
1.32616e-06
7.50794e-05
1.61803e-06
2.02476e-06
7.48042e-05
7.89912e-05
6.00201e-06
8.159e-05
1.06525e-05
8.35158e-05
1.02954e-05
8.49585e-05
9.01869e-06
8.59753e-05
7.60177e-06
8.67147e-05
6.34189e-06
8.72789e-05
5.3686e-06
8.77156e-05
4.62093e-06
8.80563e-05
4.03038e-06
8.83219e-05
3.55298e-06
8.85268e-05
3.15716e-06
8.86819e-05
2.82177e-06
8.87952e-05
2.53385e-06
8.88727e-05
2.2843e-06
8.89203e-05
2.06579e-06
8.89437e-05
1.87319e-06
8.89475e-05
1.70281e-06
8.89356e-05
1.55193e-06
8.89115e-05
1.41858e-06
8.88779e-05
1.30143e-06
8.88369e-05
1.19968e-06
8.87902e-05
1.11313e-06
8.87391e-05
1.04208e-06
8.86848e-05
9.87514e-07
8.86278e-05
9.51112e-07
8.85688e-05
9.3547e-07
8.85085e-05
9.44302e-07
8.84483e-05
9.82788e-07
8.83905e-05
1.05778e-06
8.83415e-05
1.17837e-06
8.8313e-05
1.35469e-06
8.83329e-05
1.59817e-06
1.90842e-06
8.84492e-05
8.04628e-05
4.38509e-06
8.25041e-05
8.61127e-06
8.39887e-05
8.81075e-06
8.50463e-05
7.96109e-06
8.57669e-05
6.88121e-06
8.6279e-05
5.82983e-06
8.66839e-05
4.9637e-06
8.70288e-05
4.27601e-06
8.73368e-05
3.72233e-06
8.76195e-05
3.27029e-06
8.78818e-05
2.89491e-06
8.8126e-05
2.57754e-06
8.83544e-05
2.30542e-06
8.85689e-05
2.06978e-06
8.87706e-05
1.86416e-06
8.89601e-05
1.68368e-06
8.91382e-05
1.52465e-06
8.93058e-05
1.38434e-06
8.94637e-05
1.26073e-06
8.96127e-05
1.15244e-06
8.97537e-05
1.05864e-06
8.98878e-05
9.78989e-07
9.00162e-05
9.1368e-07
9.01403e-05
8.63432e-07
9.02619e-05
8.29558e-07
9.03833e-05
8.14037e-07
9.0508e-05
8.1958e-07
9.06411e-05
8.49727e-07
9.07902e-05
9.08629e-07
9.09677e-05
1.00092e-06
9.11928e-05
1.12962e-06
9.14957e-05
1.29526e-06
1.48283e-06
9.19213e-05
8.22339e-05
3.24976e-06
8.38933e-05
6.95186e-06
8.51796e-05
7.52443e-06
8.61115e-05
7.02923e-06
8.67511e-05
6.2416e-06
8.71885e-05
5.39238e-06
8.75116e-05
4.64062e-06
8.77696e-05
4.01798e-06
8.79893e-05
3.50271e-06
8.81858e-05
3.07371e-06
8.83675e-05
2.71321e-06
8.85386e-05
2.40644e-06
8.87016e-05
2.14249e-06
8.88578e-05
1.91351e-06
8.90084e-05
1.71357e-06
8.9154e-05
1.53811e-06
8.9295e-05
1.38365e-06
8.94318e-05
1.24753e-06
8.95648e-05
1.12776e-06
8.96943e-05
1.02292e-06
8.98209e-05
9.32063e-07
8.99451e-05
8.54715e-07
9.0068e-05
7.90821e-07
9.01907e-05
7.40754e-07
9.03149e-05
7.05302e-07
9.04433e-05
6.85662e-07
9.05795e-05
6.8337e-07
9.0729e-05
7.00192e-07
9.09e-05
7.37625e-07
9.11045e-05
7.96432e-07
9.13599e-05
8.74302e-07
9.16902e-05
9.64921e-07
1.04867e-06
9.21244e-05
8.42163e-05
2.44898e-06
8.55494e-05
5.61879e-06
8.66701e-05
6.4037e-06
8.75259e-05
6.17349e-06
8.81497e-05
5.61774e-06
8.85946e-05
4.94754e-06
8.89257e-05
4.30951e-06
8.91867e-05
3.75697e-06
8.94032e-05
3.28618e-06
8.95913e-05
2.88563e-06
8.97605e-05
2.54402e-06
8.99163e-05
2.25057e-06
9.00623e-05
1.9965e-06
9.02007e-05
1.77512e-06
9.03331e-05
1.58125e-06
9.04604e-05
1.41076e-06
9.05836e-05
1.26045e-06
9.07033e-05
1.12781e-06
9.08202e-05
1.0109e-06
9.09348e-05
9.08321e-07
9.10478e-05
8.19059e-07
9.116e-05
7.42502e-07
9.12725e-05
6.78372e-07
9.13865e-05
6.26694e-07
9.15041e-05
5.8774e-07
9.16278e-05
5.61958e-07
9.17614e-05
5.49794e-07
9.19101e-05
5.51471e-07
9.20813e-05
5.66372e-07
9.22853e-05
5.92447e-07
9.25354e-05
6.24216e-07
9.28484e-05
6.51885e-07
6.56547e-07
9.32406e-05
8.63717e-05
1.876e-06
8.74401e-05
4.55043e-06
8.84102e-05
5.4336e-06
8.91859e-05
5.39773e-06
8.97805e-05
5.02317e-06
9.02245e-05
4.50351e-06
9.05651e-05
3.9689e-06
9.08388e-05
3.48334e-06
9.10679e-05
3.057e-06
9.12672e-05
2.68636e-06
9.14458e-05
2.36542e-06
9.16095e-05
2.08691e-06
9.17619e-05
1.84409e-06
9.19056e-05
1.63146e-06
9.20422e-05
1.44456e-06
9.21733e-05
1.27973e-06
9.22997e-05
1.13406e-06
9.24223e-05
1.00519e-06
9.25419e-05
8.91296e-07
9.26593e-05
7.90947e-07
9.27752e-05
7.03083e-07
9.28908e-05
6.26944e-07
9.30072e-05
5.62017e-07
9.31259e-05
5.07978e-07
9.3249e-05
4.64601e-07
9.33793e-05
4.31635e-07
9.35205e-05
4.0859e-07
9.36776e-05
3.94441e-07
9.38569e-05
3.87057e-07
9.40667e-05
3.82613e-07
9.43168e-05
3.74166e-07
9.46178e-05
3.50899e-07
2.96782e-07
9.49775e-05
8.86672e-05
1.45879e-06
8.95235e-05
3.69413e-06
9.03601e-05
4.59702e-06
9.10603e-05
4.69751e-06
9.16213e-05
4.46221e-06
9.20582e-05
4.06663e-06
9.24029e-05
3.62419e-06
9.26845e-05
3.20168e-06
9.29226e-05
2.81889e-06
9.31304e-05
2.47859e-06
9.33167e-05
2.17908e-06
9.34874e-05
1.91624e-06
9.36463e-05
1.68525e-06
9.37959e-05
1.48182e-06
9.39382e-05
1.30223e-06
9.40746e-05
1.14332e-06
9.42062e-05
1.00245e-06
9.4334e-05
8.77459e-07
9.44587e-05
7.66575e-07
9.45813e-05
6.68376e-07
9.47026e-05
5.81723e-07
9.48239e-05
5.05708e-07
9.49463e-05
4.39587e-07
9.50716e-05
3.82704e-07
9.52018e-05
3.34382e-07
9.53396e-05
2.93777e-07
9.54886e-05
2.59653e-07
9.56529e-05
2.30098e-07
9.5838e-05
2.0203e-07
9.60498e-05
1.70749e-07
9.62949e-05
1.29056e-07
9.65792e-05
6.66774e-08
-2.89167e-08
9.69048e-05
9.1081e-05
1.14915e-06
9.17693e-05
3.00582e-06
9.24897e-05
3.87657e-06
9.3121e-05
4.0662e-06
9.36474e-05
3.93582e-06
9.40732e-05
3.64086e-06
9.44184e-05
3.27897e-06
9.47055e-05
2.91458e-06
9.4951e-05
2.57338e-06
9.51666e-05
2.26301e-06
9.53604e-05
1.98521e-06
9.55382e-05
1.73849e-06
9.57036e-05
1.51984e-06
9.58594e-05
1.32606e-06
9.60074e-05
1.15417e-06
9.61493e-05
1.00148e-06
9.62861e-05
8.6564e-07
9.64189e-05
7.44661e-07
9.65486e-05
6.36847e-07
9.66762e-05
5.40774e-07
9.68027e-05
4.55235e-07
9.69292e-05
3.79186e-07
9.70571e-05
3.11673e-07
9.71881e-05
2.51754e-07
9.73241e-05
1.98378e-07
9.74676e-05
1.5025e-07
9.76217e-05
1.05603e-07
9.77898e-05
6.19932e-08
9.79759e-05
1.59087e-08
9.81842e-05
-3.75827e-08
9.84184e-05
-1.05155e-07
9.86809e-05
-1.95763e-07
-3.18586e-07
9.89705e-05
9.35993e-05
9.1449e-07
9.41554e-05
2.44975e-06
9.47751e-05
3.25682e-06
9.53431e-05
3.49821e-06
9.58347e-05
3.44423e-06
9.62468e-05
3.22878e-06
9.65904e-05
2.93536e-06
9.68817e-05
2.62324e-06
9.71341e-05
2.32098e-06
9.73575e-05
2.03965e-06
9.75591e-05
1.78356e-06
9.77443e-05
1.55331e-06
9.79167e-05
1.34743e-06
9.80791e-05
1.16373e-06
9.82333e-05
9.9993e-07
9.8381e-05
8.53785e-07
9.85234e-05
7.23243e-07
9.86616e-05
6.06474e-07
9.87966e-05
5.01868e-07
9.89293e-05
4.08006e-07
9.90609e-05
3.23627e-07
9.91926e-05
2.4757e-07
9.93255e-05
1.78711e-07
9.94614e-05
1.15879e-07
9.9602e-05
5.77496e-08
9.97495e-05
2.72204e-09
9.99064e-05
-5.12765e-08
0.000100075
-1.06928e-07
0.000100259
-1.67809e-07
0.00010046
-2.38535e-07
0.00010068
-3.24908e-07
0.000100918
-4.34219e-07
-5.72758e-07
0.000101172
9.62137e-05
7.32863e-07
9.66661e-05
1.99732e-06
9.71996e-05
2.72341e-06
9.77102e-05
2.98761e-06
9.81679e-05
2.98644e-06
9.85646e-05
2.83216e-06
9.89043e-05
2.59559e-06
9.91981e-05
2.32952e-06
9.9456e-05
2.06301e-06
9.96864e-05
1.80925e-06
9.98956e-05
1.57439e-06
0.000100088
1.3606e-06
0.000100268
1.1677e-06
0.000100437
9.94416e-07
0.000100598
8.39046e-07
0.000100752
6.99781e-07
0.000100901
5.74841e-07
0.000101045
4.62556e-07
0.000101185
3.61397e-07
0.000101323
2.69962e-07
0.00010146
1.86949e-07
0.000101596
1.11111e-07
0.000101734
4.11979e-08
0.000101874
-2.41177e-08
0.000102018
-8.63318e-08
0.000102168
-1.47212e-07
0.000102325
-2.08933e-07
0.000102493
-2.74181e-07
0.000102671
-3.463e-07
0.000102862
-4.29355e-07
0.000103065
-5.28083e-07
0.000103279
-6.48108e-07
-7.93389e-07
0.0001035
9.89193e-05
5.893e-07
9.92907e-05
1.62589e-06
9.97508e-05
2.26332e-06
0.00010021
2.52861e-06
0.000100635
2.56099e-06
0.000101015
2.45209e-06
0.000101349
2.26144e-06
0.000101644
2.03493e-06
0.000101907
1.80052e-06
0.000102143
1.57243e-06
0.00010236
1.35795e-06
0.00010256
1.1604e-06
0.000102747
9.80583e-07
0.000102924
8.1795e-07
0.000103091
6.71338e-07
0.000103252
5.39303e-07
0.000103406
4.20309e-07
0.000103556
3.12843e-07
0.000103702
2.15455e-07
0.000103845
1.26772e-07
0.000103987
4.54706e-08
0.000104128
-2.97462e-08
0.000104269
-1.00204e-07
0.000104412
-1.67315e-07
0.000104558
-2.32652e-07
0.000104709
-2.98021e-07
0.000104866
-3.65551e-07
0.000105029
-4.37753e-07
0.000105201
-5.17574e-07
0.00010538
-6.08393e-07
0.000105566
-7.1387e-07
0.000105756
-8.38127e-07
-9.83331e-07
0.000105945
0.000101714
4.73493e-07
0.000102022
1.31771e-06
0.00010242
1.86487e-06
0.000102833
2.11543e-06
0.000103229
2.16577e-06
0.000103592
2.08881e-06
0.000103919
1.93406e-06
0.000104213
1.74071e-06
0.000104479
1.53456e-06
0.000104722
1.32995e-06
0.000104945
1.13475e-06
0.000105152
9.52987e-07
0.000105347
7.86169e-07
0.000105531
6.34333e-07
0.000105705
4.96742e-07
0.000105872
3.72263e-07
0.000106033
2.59577e-07
0.000106188
1.57312e-07
0.00010634
6.40976e-08
0.000106488
-2.1405e-08
0.000106634
-1.00512e-07
0.000106779
-1.74541e-07
0.000106923
-2.44842e-07
0.000107069
-3.12848e-07
0.000107216
-3.80125e-07
0.000107367
-4.48417e-07
0.000107521
-5.19697e-07
0.000107679
-5.96184e-07
0.000107842
-6.80348e-07
0.000108009
-7.74855e-07
0.000108177
-8.82374e-07
0.000108345
-1.00576e-06
-1.14587e-06
0.000108507
0.000104596
3.78231e-07
0.000104854
1.05892e-06
0.000105202
1.51777e-06
0.000105575
1.74247e-06
0.000105942
1.79829e-06
0.000106289
1.74196e-06
0.000106609
1.61416e-06
0.000106902
1.44782e-06
0.00010717
1.26599e-06
0.000107418
1.08246e-06
0.000107647
9.0519e-07
0.000107862
7.38566e-07
0.000108063
5.84544e-07
0.000108254
4.43569e-07
0.000108436
3.15232e-07
0.000108609
1.98644e-07
0.000108776
9.2667e-08
0.000108937
-3.95449e-09
0.000109094
-9.25108e-08
0.000109247
-1.74296e-07
0.000109397
-2.50602e-07
0.000109545
-3.22733e-07
0.000109692
-3.92022e-07
0.000109839
-4.59867e-07
0.000109987
-5.27758e-07
0.000110136
-5.97304e-07
0.000110286
-6.7025e-07
0.000110439
-7.4847e-07
0.000110592
-8.33931e-07
0.000110746
-9.28628e-07
0.000110898
-1.03438e-06
0.000111045
-1.15303e-06
-1.28452e-06
0.000111184
0.000107566
2.98371e-07
0.000107786
8.38667e-07
0.000108091
1.21304e-06
0.000108429
1.4043e-06
0.000108772
1.45574e-06
0.000109103
1.41062e-06
0.000109415
1.30186e-06
0.000109706
1.15675e-06
0.000109977
9.95368e-07
0.000110229
8.30435e-07
0.000110464
6.69629e-07
0.000110686
5.17376e-07
0.000110894
3.75847e-07
0.000111092
2.45736e-07
0.000111281
1.26853e-07
0.000111461
1.84886e-08
0.000111634
-8.0361e-08
0.000111801
-1.70849e-07
0.000111962
-2.54194e-07
0.00011212
-3.31639e-07
0.000112274
-4.04438e-07
0.000112425
-4.7385e-07
0.000112574
-5.41158e-07
0.000112722
-6.0768e-07
0.000112869
-6.74783e-07
0.000113015
-7.43894e-07
0.000113161
-8.16495e-07
0.000113307
-8.94095e-07
0.000113451
-9.78185e-07
0.000113593
-1.07017e-06
0.00011373
-1.17118e-06
0.000113859
-1.28226e-06
-1.40277e-06
0.000113977
0.000110625
2.30166e-07
0.000110815
6.48456e-07
0.000111085
9.42929e-07
0.000111394
1.09576e-06
0.000111715
1.13513e-06
0.000112032
1.09339e-06
0.000112337
9.96801e-07
0.000112626
8.67651e-07
0.000112898
7.23001e-07
0.000113155
5.74188e-07
0.000113396
4.28307e-07
0.000113624
2.89574e-07
0.000113839
1.60166e-07
0.000114044
4.08786e-08
0.000114239
-6.83631e-08
0.000114426
-1.6816e-07
0.000114605
-2.59422e-07
0.000114778
-3.43228e-07
0.000114944
-4.20736e-07
0.000115106
-4.93137e-07
0.000115263
-5.6163e-07
0.000115416
-6.27413e-07
0.000115567
-6.9169e-07
0.000115715
-7.55668e-07
0.000115861
-8.20565e-07
0.000116004
-8.876e-07
0.000116146
-9.57981e-07
0.000116285
-1.03287e-06
0.00011642
-1.11334e-06
0.00011655
-1.20029e-06
0.000116673
-1.29432e-06
0.000116787
-1.39589e-06
-1.50401e-06
0.000116888
0.000113775
1.7082e-07
0.000113942
4.81562e-07
0.000114184
7.00717e-07
0.000114468
8.11971e-07
0.00011477
8.33307e-07
0.000115074
7.88509e-07
0.000115373
6.98183e-07
0.00011566
5.80244e-07
0.000115935
4.48844e-07
0.000116195
3.13756e-07
0.000116442
1.81266e-07
0.000116676
5.51758e-08
0.000116899
-6.25058e-08
0.000117111
-1.71022e-07
0.000117313
-2.7043e-07
0.000117506
-3.6129e-07
0.000117691
-4.44469e-07
0.000117869
-5.20995e-07
0.00011804
-5.91981e-07
0.000118206
-6.58564e-07
0.000118366
-7.21884e-07
0.000118522
-7.83067e-07
0.000118673
-8.43217e-07
0.000118821
-9.03417e-07
0.000118965
-9.64718e-07
0.000119106
-1.02813e-06
0.000119242
-1.0946e-06
0.000119374
-1.16498e-06
0.000119501
-1.23996e-06
0.000119621
-1.32008e-06
0.000119732
-1.40551e-06
0.000119832
-1.49633e-06
-1.59134e-06
0.00011992
0.000117017
1.1819e-07
0.000117166
3.32601e-07
0.000117386
4.806e-07
0.00011765
5.4831e-07
0.000117936
5.47e-07
0.000118231
4.93868e-07
0.000118524
4.04777e-07
0.00011881
2.93855e-07
0.000119087
1.72535e-07
0.000119352
4.89376e-08
0.000119604
-7.16199e-08
0.000119846
-1.85908e-07
0.000120075
-2.92237e-07
0.000120294
-3.9001e-07
0.000120503
-4.7936e-07
0.000120703
-5.60876e-07
0.000120894
-6.35423e-07
0.000121077
-7.04014e-07
0.000121253
-7.67729e-07
0.000121422
-8.27661e-07
0.000121585
-8.84889e-07
0.000121742
-9.40458e-07
0.000121894
-9.95371e-07
0.000122041
-1.05058e-06
0.000122184
-1.10696e-06
0.000122321
-1.16533e-06
0.000122453
-1.22641e-06
0.000122578
-1.29076e-06
0.000122697
-1.3588e-06
0.000122808
-1.43075e-06
0.000122909
-1.50652e-06
0.000122998
-1.5859e-06
-1.66766e-06
0.000123075
0.000120354
7.05801e-08
0.000120489
1.97171e-07
0.000120692
2.77497e-07
0.00012094
3.00408e-07
0.000121214
2.72851e-07
0.000121501
2.07048e-07
0.000121791
1.14937e-07
0.000122077
7.37625e-09
0.000122357
-1.06698e-07
0.000122626
-2.20836e-07
0.000122886
-3.30797e-07
0.000123134
-4.34049e-07
0.000123371
-5.29342e-07
0.000123597
-6.1635e-07
0.000123813
-6.95365e-07
0.000124019
-7.67071e-07
0.000124216
-8.32379e-07
0.000124405
-8.92315e-07
0.000124585
-9.47949e-07
0.000124757
-1.00034e-06
0.000124923
-1.05051e-06
0.000125082
-1.09943e-06
0.000125235
-1.14799e-06
0.000125381
-1.19702e-06
0.000125521
-1.24725e-06
0.000125655
-1.29931e-06
0.000125783
-1.3537e-06
0.000125903
-1.41079e-06
0.000126015
-1.47075e-06
0.000126118
-1.53358e-06
0.00012621
-1.59902e-06
0.000126291
-1.66668e-06
-1.73536e-06
0.000126358
0.000123787
2.66073e-08
0.000123913
7.15843e-08
0.000124103
8.68883e-08
0.00012434
6.4078e-08
0.000124605
7.39413e-09
0.000124887
-7.46541e-08
0.000125175
-1.73354e-07
0.000125463
-2.80664e-07
0.000125746
-3.89938e-07
0.000126022
-4.96371e-07
0.000126288
-5.96871e-07
0.000126544
-6.89702e-07
0.000126788
-7.74159e-07
0.000127022
-8.5028e-07
0.000127246
-9.18596e-07
0.000127459
-9.79944e-07
0.000127661
-1.03533e-06
0.000127855
-1.08583e-06
0.00012804
-1.13251e-06
0.000128216
-1.17642e-06
0.000128384
-1.21854e-06
0.000128544
-1.25977e-06
0.000128697
-1.3009e-06
0.000128843
-1.34264e-06
0.000128981
-1.38558e-06
0.000129112
-1.4302e-06
0.000129235
-1.47683e-06
0.00012935
-1.52566e-06
0.000129456
-1.57671e-06
0.000129552
-1.62982e-06
0.000129638
-1.68462e-06
0.000129711
-1.74063e-06
-1.79673e-06
0.000129773
0.00012732
-1.49111e-08
0.000127439
-4.73637e-08
0.000127621
-9.53673e-08
0.00012785
-1.64787e-07
0.000128111
-2.53016e-07
0.00012839
-3.54308e-07
0.000128679
-4.62599e-07
0.000128971
-5.72294e-07
0.00012926
-6.78837e-07
0.000129543
-7.79036e-07
0.000129817
-8.70988e-07
0.000130081
-9.53836e-07
0.000130334
-1.02751e-06
0.000130576
-1.09249e-06
0.000130807
-1.14962e-06
0.000131027
-1.19995e-06
0.000131237
-1.24462e-06
0.000131436
-1.2848e-06
0.000131625
-1.32158e-06
0.000131804
-1.35602e-06
0.000131975
-1.38906e-06
0.000132137
-1.42152e-06
0.00013229
-1.45415e-06
0.000132435
-1.48753e-06
0.000132571
-1.52214e-06
0.000132699
-1.55833e-06
0.000132819
-1.59629e-06
0.000132929
-1.63609e-06
0.00013303
-1.67761e-06
0.000133121
-1.72062e-06
0.000133201
-1.76466e-06
0.00013327
-1.80923e-06
-1.85329e-06
0.000133326
0.000130955
-5.5029e-08
0.00013107
-1.62575e-07
0.000131248
-2.73178e-07
0.000131474
-3.90274e-07
0.000131733
-5.12191e-07
0.000132014
-6.35253e-07
0.000132307
-7.55599e-07
0.000132604
-8.69798e-07
0.000132901
-9.7523e-07
0.000133192
-1.07028e-06
0.000133475
-1.15429e-06
0.000133749
-1.22734e-06
0.000134011
-1.29006e-06
0.000134262
-1.34347e-06
0.000134501
-1.38878e-06
0.000134729
-1.42731e-06
0.000134944
-1.46039e-06
0.000135149
-1.48928e-06
0.000135342
-1.51516e-06
0.000135526
-1.53908e-06
0.000135698
-1.56198e-06
0.000135862
-1.58464e-06
0.000136015
-1.60773e-06
0.000136159
-1.63175e-06
0.000136294
-1.65708e-06
0.00013642
-1.68398e-06
0.000136536
-1.71252e-06
0.000136643
-1.74269e-06
0.000136739
-1.77429e-06
0.000136826
-1.80702e-06
0.000136902
-1.84041e-06
0.000136966
-1.87399e-06
-1.9068e-06
0.00013702
0.000134695
-9.47424e-08
0.000134809
-2.76839e-07
0.000134986
-4.50455e-07
0.000135213
-6.16705e-07
0.000135475
-7.74419e-07
0.000135761
-9.21516e-07
0.000136062
-1.05601e-06
0.000136368
-1.17643e-06
0.000136675
-1.28197e-06
0.000136977
-1.37261e-06
0.000137272
-1.44894e-06
0.000137557
-1.51205e-06
0.00013783
-1.56338e-06
0.000138091
-1.60452e-06
0.00013834
-1.63714e-06
0.000138575
-1.66288e-06
0.000138798
-1.68329e-06
0.000139008
-1.69978e-06
0.000139207
-1.71362e-06
0.000139394
-1.72589e-06
0.000139569
-1.73753e-06
0.000139734
-1.7493e-06
0.000139888
-1.7618e-06
0.000140032
-1.77549e-06
0.000140165
-1.79067e-06
0.000140289
-1.80749e-06
0.000140402
-1.82599e-06
0.000140506
-1.84604e-06
0.000140599
-1.86743e-06
0.000140682
-1.88981e-06
0.000140754
-1.9127e-06
0.000140816
-1.93565e-06
-1.95778e-06
0.000140867
0.000138543
-1.35049e-07
0.000138659
-3.92955e-07
0.000138839
-6.31174e-07
0.000139071
-8.48542e-07
0.000139341
-1.04414e-06
0.000139637
-1.21721e-06
0.000139948
-1.36745e-06
0.000140267
-1.49526e-06
0.000140587
-1.60164e-06
0.000140902
-1.68811e-06
0.00014121
-1.75663e-06
0.000141507
-1.80935e-06
0.000141792
-1.84855e-06
0.000142064
-1.87651e-06
0.000142322
-1.89539e-06
0.000142567
-1.90719e-06
0.000142797
-1.91372e-06
0.000143014
-1.91659e-06
0.000143218
-1.91716e-06
0.000143408
-1.91659e-06
0.000143587
-1.91582e-06
0.000143753
-1.91561e-06
0.000143908
-1.91652e-06
0.000144051
-1.91895e-06
0.000144183
-1.92315e-06
0.000144305
-1.92921e-06
0.000144416
-1.93711e-06
0.000144517
-1.94669e-06
0.000144607
-1.95768e-06
0.000144687
-1.96975e-06
0.000144757
-1.98243e-06
0.000144817
-1.99531e-06
-2.00762e-06
0.000144866
0.000142501
-1.77056e-07
0.000142622
-5.14059e-07
0.000142811
-8.19959e-07
0.000143054
-1.09126e-06
0.000143337
-1.3272e-06
0.000143648
-1.52819e-06
0.000143976
-1.69557e-06
0.000144312
-1.83152e-06
0.00014465
-1.93891e-06
0.000144982
-2.02092e-06
0.000145307
-2.08089e-06
0.000145619
-2.12219e-06
0.000145919
-2.14802e-06
0.000146204
-2.1614e-06
0.000146474
-2.16505e-06
0.000146728
-2.1614e-06
0.000146967
-2.15256e-06
0.00014719
-2.14034e-06
0.000147399
-2.12623e-06
0.000147594
-2.11148e-06
0.000147775
-2.09705e-06
0.000147944
-2.08369e-06
0.000148099
-2.07195e-06
0.000148242
-2.0622e-06
0.000148374
-2.05462e-06
0.000148494
-2.04927e-06
0.000148603
-2.04608e-06
0.000148701
-2.04485e-06
0.000148789
-2.0453e-06
0.000148866
-2.04708e-06
0.000148933
-2.04974e-06
0.000148991
-2.05285e-06
-2.05571e-06
0.000149039
0.000146574
-2.21934e-07
0.000146704
-6.43463e-07
0.000146905
-1.02151e-06
0.000147164
-1.35014e-06
0.000147466
-1.62885e-06
0.000147797
-1.85935e-06
0.000148146
-2.04469e-06
0.000148503
-2.18902e-06
0.000148862
-2.29711e-06
0.000149215
-2.3739e-06
0.000149558
-2.42425e-06
0.000149889
-2.45276e-06
0.000150204
-2.46368e-06
0.000150504
-2.46082e-06
0.000150786
-2.44753e-06
0.000151051
-2.4267e-06
0.0001513
-2.40079e-06
0.000151531
-2.37183e-06
0.000151746
-2.34149e-06
0.000151946
-2.31109e-06
0.000152131
-2.28165e-06
0.000152301
-2.25392e-06
0.000152457
-2.22845e-06
0.000152601
-2.20555e-06
0.000152731
-2.1854e-06
0.00015285
-2.168e-06
0.000152957
-2.15324e-06
0.000153053
-2.14091e-06
0.000153139
-2.13072e-06
0.000153214
-2.1223e-06
0.00015328
-2.11524e-06
0.000153336
-2.10916e-06
-2.10342e-06
0.000153384
0.000150765
-2.71408e-07
0.000150908
-7.86013e-07
0.000151129
-1.24313e-06
0.000151413
-1.63409e-06
0.000151743
-1.95881e-06
0.000152104
-2.22052e-06
0.000152484
-2.42417e-06
0.000152871
-2.57617e-06
0.000153257
-2.68351e-06
0.000153637
-2.75313e-06
0.000154004
-2.79159e-06
0.000154356
-2.80491e-06
0.000154691
-2.79845e-06
0.000155007
-2.77692e-06
0.000155304
-2.74434e-06
0.000155581
-2.70411e-06
0.00015584
-2.65904e-06
0.000156079
-2.61142e-06
0.000156301
-2.56306e-06
0.000156505
-2.51539e-06
0.000156693
-2.46947e-06
0.000156865
-2.42608e-06
0.000157022
-2.38573e-06
0.000157165
-2.34872e-06
0.000157295
-2.31518e-06
0.000157412
-2.28509e-06
0.000157517
-2.25829e-06
0.000157611
-2.23455e-06
0.000157694
-2.21355e-06
0.000157766
-2.19491e-06
0.000157829
-2.1782e-06
0.000157883
-2.16303e-06
-2.14874e-06
0.000157929
0.000155077
-3.26881e-07
0.000155237
-9.45841e-07
0.000155484
-1.49023e-06
0.000155799
-1.9487e-06
0.000156162
-2.32248e-06
0.000156559
-2.61688e-06
0.000156974
-2.83909e-06
0.000157395
-2.99803e-06
0.000157815
-3.10314e-06
0.000158226
-3.16354e-06
0.000158622
-3.18765e-06
0.000159
-3.18304e-06
0.000159358
-3.15636e-06
0.000159694
-3.11329e-06
0.000160008
-3.05861e-06
0.0001603
-2.99629e-06
0.000160571
-2.92953e-06
0.00016082
-2.8609e-06
0.00016105
-2.79239e-06
0.00016126
-2.72553e-06
0.000161452
-2.66143e-06
0.000161627
-2.60087e-06
0.000161785
-2.54436e-06
0.000161929
-2.49215e-06
0.000162058
-2.44433e-06
0.000162174
-2.40084e-06
0.000162277
-2.36149e-06
0.000162368
-2.32601e-06
0.000162449
-2.29406e-06
0.000162519
-2.26526e-06
0.00016258
-2.23917e-06
0.000162632
-2.21544e-06
-2.19343e-06
0.000162677
0.000159516
-3.92599e-07
0.000159704
-1.13394e-06
0.000159993
-1.77881e-06
0.000160357
-2.31257e-06
0.000160773
-2.73879e-06
0.000161222
-3.06585e-06
0.000161687
-3.30424e-06
0.000162156
-3.4664e-06
0.000162617
-3.56495e-06
0.000163066
-3.61158e-06
0.000163495
-3.61685e-06
0.000163902
-3.59004e-06
0.000164284
-3.53912e-06
0.000164642
-3.4708e-06
0.000164974
-3.39063e-06
0.000165281
-3.30312e-06
0.000165563
-3.21187e-06
0.000165822
-3.11971e-06
0.000166058
-3.02881e-06
0.000166274
-2.94076e-06
0.000166469
-2.85673e-06
0.000166646
-2.77747e-06
0.000166805
-2.70347e-06
0.000166947
-2.63495e-06
0.000167075
-2.57194e-06
0.000167189
-2.51431e-06
0.000167289
-2.46185e-06
0.000167377
-2.41423e-06
0.000167454
-2.37106e-06
0.000167521
-2.33192e-06
0.000167578
-2.29634e-06
0.000167626
-2.26388e-06
-2.23387e-06
0.000167667
0.000164082
-4.68321e-07
0.0001643
-1.35237e-06
0.000164632
-2.11091e-06
0.000165048
-2.72813e-06
0.000165521
-3.21209e-06
0.00016603
-3.57449e-06
0.000166555
-3.82919e-06
0.000167081
-3.99261e-06
0.000167597
-4.08107e-06
0.000168095
-4.10937e-06
0.000168569
-4.09064e-06
0.000169015
-4.03625e-06
0.000169432
-3.95578e-06
0.000169818
-3.85715e-06
0.000170174
-3.74677e-06
0.000170501
-3.62979e-06
0.000170799
-3.51022e-06
0.000171071
-3.39115e-06
0.000171317
-3.27488e-06
0.000171539
-3.16308e-06
0.000171739
-3.05691e-06
0.000171919
-2.95709e-06
0.000172079
-2.86403e-06
0.000172222
-2.77789e-06
0.000172349
-2.69862e-06
0.000172461
-2.62603e-06
0.000172559
-2.55983e-06
0.000172644
-2.49963e-06
0.000172718
-2.44501e-06
0.000172782
-2.39552e-06
0.000172836
-2.35065e-06
0.000172882
-2.31e-06
-2.27284e-06
0.000172921
0.000168795
-5.71365e-07
0.000169079
-1.63699e-06
0.000169499
-2.53058e-06
0.000170008
-3.2373e-06
0.000170572
-3.7763e-06
0.000171165
-4.16675e-06
0.000171764
-4.42882e-06
0.000172356
-4.58468e-06
0.00017293
-4.65489e-06
0.000173478
-4.65744e-06
0.000173996
-4.60802e-06
0.000174479
-4.51999e-06
0.000174928
-4.40446e-06
0.000175341
-4.27049e-06
0.00017572
-4.12533e-06
0.000176065
-3.97471e-06
0.000176378
-3.82305e-06
0.00017666
-3.67366e-06
0.000176914
-3.529e-06
0.000177142
-3.39077e-06
0.000177345
-3.26009e-06
0.000177526
-3.13765e-06
0.000177686
-3.02378e-06
0.000177826
-2.91851e-06
0.000177949
-2.82172e-06
0.000178056
-2.73311e-06
0.000178149
-2.65229e-06
0.000178228
-2.57881e-06
0.000178295
-2.51218e-06
0.000178352
-2.45185e-06
0.000178398
-2.39728e-06
0.000178436
-2.34792e-06
-2.30295e-06
0.000178466
0.000173623
-6.82819e-07
0.000173954
-1.96773e-06
0.000174445
-3.02174e-06
0.000175046
-3.83877e-06
0.000175717
-4.44755e-06
0.000176422
-4.87154e-06
0.000177132
-5.1385e-06
0.000177826
-5.27917e-06
0.000178492
-5.32055e-06
0.00017912
-5.2854e-06
0.000179705
-5.19312e-06
0.000180245
-5.05983e-06
0.000180739
-4.89856e-06
0.000181188
-4.71971e-06
0.000181594
-4.53142e-06
0.00018196
-4.33998e-06
0.000182287
-4.15012e-06
0.000182578
-3.96528e-06
0.000182837
-3.78793e-06
0.000183066
-3.61969e-06
0.000183268
-3.46159e-06
0.000183444
-3.31413e-06
0.000183598
-3.17748e-06
0.000183731
-3.05152e-06
0.000183845
-2.93593e-06
0.000183942
-2.8303e-06
0.000184024
-2.73411e-06
0.000184092
-2.64681e-06
0.000184148
-2.56783e-06
0.000184192
-2.49661e-06
0.000184228
-2.43257e-06
0.000184255
-2.37521e-06
-2.32356e-06
0.000184276
0.000178682
-8.96486e-07
0.00017919
-2.47584e-06
0.000179863
-3.69441e-06
0.000180621
-4.59656e-06
0.000181422
-5.24879e-06
0.000182234
-5.68384e-06
0.000183034
-5.93794e-06
0.000183804
-6.04934e-06
0.000184533
-6.04983e-06
0.000185214
-5.96619e-06
0.000185842
-5.82131e-06
0.000186416
-5.63397e-06
0.000186937
-5.41915e-06
0.000187406
-5.1886e-06
0.000187826
-4.9514e-06
0.0001882
-4.71434e-06
0.000188532
-4.48239e-06
0.000188826
-4.25906e-06
0.000189085
-4.04673e-06
0.000189312
-3.84684e-06
0.000189511
-3.6602e-06
0.000189684
-3.48706e-06
0.000189834
-3.32733e-06
0.000189963
-3.18063e-06
0.000190073
-3.04644e-06
0.000190167
-2.92411e-06
0.000190246
-2.81296e-06
0.000190311
-2.7123e-06
0.000190365
-2.62148e-06
0.000190408
-2.53987e-06
0.000190443
-2.4669e-06
0.000190469
-2.40204e-06
-2.34426e-06
0.00019049
0.000183746
-1.07479e-06
0.000184337
-3.0673e-06
0.00018517
-4.52714e-06
0.000186141
-5.56727e-06
0.000187167
-6.27547e-06
0.000188187
-6.70313e-06
0.000189165
-6.91606e-06
0.000190087
-6.97139e-06
0.000190947
-6.9098e-06
0.000191744
-6.76328e-06
0.00019248
-6.55762e-06
0.000193159
-6.31278e-06
0.000193784
-6.04412e-06
0.000194359
-5.76339e-06
0.000194887
-5.47948e-06
0.000195371
-5.19896e-06
0.000195816
-4.92663e-06
0.000196222
-4.66583e-06
0.000196594
-4.41878e-06
0.000196934
-4.18682e-06
0.000197245
-3.97059e-06
0.000197528
-3.77022e-06
0.000197786
-3.58546e-06
0.000198021
-3.41579e-06
0.000198235
-3.26051e-06
0.00019843
-3.11885e-06
0.000198607
-2.99e-06
0.000198768
-2.87318e-06
0.000198914
-2.76776e-06
0.000199048
-2.67315e-06
0.00019917
-2.58917e-06
0.000199283
-2.51537e-06
-2.45191e-06
0.000199391
0.000189418
-1.68043e-06
0.000190406
-4.05538e-06
0.000191488
-5.60909e-06
0.000192647
-6.72641e-06
0.00019389
-7.51825e-06
0.000195195
-8.00825e-06
0.000196541
-8.26286e-06
0.000197906
-8.33624e-06