/*--------------------------------*- C++ -*----------------------------------*\
| =========                 |                                                 |
| \\      /  F ield         | OpenFOAM: The Open Source CFD Toolbox           |
|  \\    /   O peration     | Version:  2.1.1                                 |
|   \\  /    A nd           | Web:      www.OpenFOAM.org                      |
|    \\/     M anipulation  |                                                 |
\*---------------------------------------------------------------------------*/
FoamFile
{
    version     2.0;
    format      ascii;
    class       volVectorField;
    location    "0.055";
    object      U;
}
// * * * * * * * * * * * * * * * * * * * * * * * * * * * * * * * * * * * * * //

dimensions      [0 1 -1 0 0 0 0];

internalField   nonuniform List<vector> 
6820
(
(6.37601 0.503743 0)
(4.42433 0.286866 0)
(2.97354 0.0202077 0)
(2.23425 -0.0619099 0)
(1.96855 -0.0599826 0)
(1.84159 -0.0345562 0)
(1.7665 -0.0151405 0)
(1.71417 -0.00476179 0)
(1.67054 -5.59975e-05 0)
(1.63257 0.00145801 0)
(1.59967 0.00144835 0)
(1.57135 0.000851435 0)
(1.54709 0.000100808 0)
(1.52633 -0.000613493 0)
(1.50853 -0.0012167 0)
(1.49321 -0.00169067 0)
(1.47995 -0.0020426 0)
(1.46841 -0.00228804 0)
(1.45827 -0.00244268 0)
(1.44926 -0.00251902 0)
(1.44111 -0.00252526 0)
(1.43357 -0.00246475 0)
(1.42635 -0.00233554 0)
(1.41917 -0.00212913 0)
(1.41165 -0.00182973 0)
(1.40337 -0.00140714 0)
(1.39374 -0.000826025 0)
(1.38209 2.19283e-05 0)
(1.36712 0.00113725 0)
(1.34832 0.00326926 0)
(1.31964 0.0050478 0)
(1.28935 0.0170173 0)
(1.20036 -0.00473423 0)
(8.72021 0.959623 0)
(8.76476 1.01192 0)
(7.96878 0.679017 0)
(7.05516 0.393915 0)
(6.35394 0.202478 0)
(5.84732 0.103397 0)
(5.48511 0.0579385 0)
(5.22344 0.0374618 0)
(5.02735 0.0282877 0)
(4.87463 0.0237808 0)
(4.75186 0.021093 0)
(4.65066 0.0191739 0)
(4.56562 0.0176329 0)
(4.49313 0.0163089 0)
(4.43065 0.0151263 0)
(4.37633 0.0140506 0)
(4.32876 0.0130695 0)
(4.28683 0.012183 0)
(4.24966 0.011399 0)
(4.2165 0.0107324 0)
(4.1867 0.010206 0)
(4.15966 0.00985166 0)
(4.13484 0.00971368 0)
(4.11165 0.00985363 0)
(4.08952 0.010357 0)
(4.06778 0.011348 0)
(4.04565 0.0129959 0)
(4.02215 0.015607 0)
(3.99607 0.0194841 0)
(3.96559 0.0258451 0)
(3.9286 0.034621 0)
(3.88082 0.0533386 0)
(3.82285 0.0788546 0)
(8.58611 0.583464 0)
(9.33127 0.762308 0)
(9.61437 0.660133 0)
(9.50423 0.526571 0)
(9.23783 0.397084 0)
(8.92506 0.299282 0)
(8.61878 0.230514 0)
(8.34218 0.181178 0)
(8.0995 0.145298 0)
(7.88848 0.118701 0)
(7.7054 0.0984775 0)
(7.54639 0.0827695 0)
(7.40792 0.0703688 0)
(7.28694 0.0604557 0)
(7.18087 0.0524426 0)
(7.08754 0.0458972 0)
(7.00511 0.0405026 0)
(6.93203 0.0360311 0)
(6.86697 0.0323226 0)
(6.80881 0.0292708 0)
(6.75655 0.0268133 0)
(6.7093 0.0249271 0)
(6.66625 0.0236282 0)
(6.62664 0.0229743 0)
(6.58972 0.0230742 0)
(6.5547 0.0241033 0)
(6.52074 0.0263313 0)
(6.4869 0.030182 0)
(6.45203 0.0362777 0)
(6.41483 0.0458224 0)
(6.37372 0.0602062 0)
(6.32687 0.0840248 0)
(6.27573 0.120123 0)
(8.44092 0.379682 0)
(8.94588 0.584012 0)
(9.3583 0.554561 0)
(9.58601 0.487118 0)
(9.70011 0.407268 0)
(9.73606 0.338231 0)
(9.72038 0.285862 0)
(9.67537 0.245833 0)
(9.6139 0.214507 0)
(9.54324 0.189298 0)
(9.46808 0.168364 0)
(9.39153 0.150581 0)
(9.31558 0.135241 0)
(9.24173 0.121858 0)
(9.17087 0.110117 0)
(9.10353 0.0997879 0)
(9.03996 0.0906927 0)
(8.98025 0.0826895 0)
(8.92435 0.075671 0)
(8.87211 0.0695629 0)
(8.82334 0.0643236 0)
(8.77777 0.059947 0)
(8.73511 0.0564668 0)
(8.69501 0.0539644 0)
(8.6571 0.0525822 0)
(8.62095 0.0525444 0)
(8.58607 0.0541863 0)
(8.55191 0.0580198 0)
(8.5179 0.0647759 0)
(8.48346 0.0756818 0)
(8.44827 0.0922858 0)
(8.41244 0.117816 0)
(8.37985 0.15525 0)
(8.40214 0.280048 0)
(8.71895 0.480639 0)
(8.99881 0.461882 0)
(9.17426 0.404438 0)
(9.29875 0.34251 0)
(9.3922 0.290208 0)
(9.46133 0.251358 0)
(9.51429 0.221967 0)
(9.55588 0.198721 0)
(9.58844 0.179723 0)
(9.61369 0.163716 0)
(9.633 0.149917 0)
(9.64747 0.137847 0)
(9.65768 0.127179 0)
(9.66434 0.117668 0)
(9.66808 0.109139 0)
(9.66944 0.101464 0)
(9.66892 0.094557 0)
(9.66689 0.0883638 0)
(9.66369 0.0828605 0)
(9.65958 0.0780535 0)
(9.65478 0.0739818 0)
(9.64944 0.0707225 0)
(9.64369 0.0683993 0)
(9.63763 0.0671964 0)
(9.63132 0.0673775 0)
(9.62482 0.0693146 0)
(9.61825 0.0735319 0)
(9.61177 0.0807526 0)
(9.60584 0.0920012 0)
(9.6013 0.108571 0)
(9.60014 0.132281 0)
(9.60628 0.16422 0)
(8.37747 0.202155 0)
(8.60135 0.383508 0)
(8.81578 0.390592 0)
(8.94679 0.356258 0)
(9.03263 0.311986 0)
(9.0954 0.268598 0)
(9.14232 0.232879 0)
(9.18069 0.20451 0)
(9.21471 0.181701 0)
(9.24578 0.16312 0)
(9.27449 0.147678 0)
(9.3012 0.134555 0)
(9.32611 0.123219 0)
(9.3495 0.113323 0)
(9.37147 0.10459 0)
(9.39213 0.0968174 0)
(9.41154 0.089868 0)
(9.42979 0.0836479 0)
(9.44698 0.0780996 0)
(9.46317 0.0731971 0)
(9.47848 0.0689447 0)
(9.493 0.0653787 0)
(9.50684 0.0625716 0)
(9.52015 0.0606384 0)
(9.53308 0.0597472 0)
(9.54586 0.060133 0)
(9.55877 0.0621147 0)
(9.57226 0.0661184 0)
(9.58695 0.0726886 0)
(9.60391 0.0825058 0)
(9.62457 0.0962802 0)
(9.65185 0.11466 0)
(9.68855 0.137203 0)
(8.36128 0.148779 0)
(8.52272 0.311288 0)
(8.69746 0.336909 0)
(8.81223 0.317402 0)
(8.88687 0.284248 0)
(8.94 0.248174 0)
(8.9778 0.216677 0)
(9.00645 0.190963 0)
(9.03039 0.169873 0)
(9.05152 0.152371 0)
(9.0708 0.13762 0)
(9.08884 0.12497 0)
(9.10596 0.113962 0)
(9.12233 0.104276 0)
(9.13807 0.0956852 0)
(9.15328 0.0880256 0)
(9.16799 0.0811765 0)
(9.18225 0.0750503 0)
(9.19611 0.0695884 0)
(9.20958 0.064759 0)
(9.22273 0.060557 0)
(9.2356 0.0570051 0)
(9.24828 0.0541562 0)
(9.26086 0.0520973 0)
(9.2735 0.0509545 0)
(9.28641 0.0508992 0)
(9.2999 0.0521515 0)
(9.31444 0.0549836 0)
(9.33067 0.0596954 0)
(9.34966 0.0665915 0)
(9.37275 0.0757953 0)
(9.40236 0.0871602 0)
(9.44038 0.0992979 0)
(8.35116 0.111335 0)
(8.4674 0.251451 0)
(8.60818 0.28628 0)
(8.70992 0.278105 0)
(8.77976 0.255826 0)
(8.83145 0.228479 0)
(8.8693 0.202499 0)
(8.89787 0.179997 0)
(8.92112 0.160714 0)
(8.94105 0.144178 0)
(8.95872 0.129942 0)
(8.97484 0.117574 0)
(8.98985 0.106727 0)
(9.00401 0.0971446 0)
(9.0175 0.0886298 0)
(9.03045 0.0810274 0)
(9.04295 0.0742178 0)
(9.05507 0.0681131 0)
(9.06687 0.0626535 0)
(9.07842 0.057804 0)
(9.08977 0.0535534 0)
(9.101 0.0499142 0)
(9.1122 0.0469226 0)
(9.12348 0.0446399 0)
(9.135 0.043153 0)
(9.14698 0.0425736 0)
(9.15973 0.0430318 0)
(9.1737 0.044664 0)
(9.18948 0.0475714 0)
(9.20797 0.0517714 0)
(9.23025 0.0570192 0)
(9.25805 0.0626992 0)
(9.29249 0.0672439 0)
(8.34487 0.0846489 0)
(8.42938 0.203535 0)
(8.54217 0.243435 0)
(8.63091 0.24414 0)
(8.69491 0.230024 0)
(8.74403 0.209118 0)
(8.78149 0.187278 0)
(8.81054 0.16735 0)
(8.83442 0.149773 0)
(8.85496 0.134407 0)
(8.87314 0.121002 0)
(8.88965 0.109246 0)
(8.90493 0.0988604 0)
(8.91926 0.0896254 0)
(8.93284 0.081368 0)
(8.94581 0.0739515 0)
(8.95829 0.0672711 0)
(8.97037 0.0612487 0)
(8.98211 0.0558291 0)
(8.9936 0.0509769 0)
(9.00492 0.0466755 0)
(9.01614 0.0429259 0)
(9.02737 0.0397463 0)
(9.03875 0.03717 0)
(9.05044 0.035243 0)
(9.06268 0.0340175 0)
(9.07577 0.0335385 0)
(9.09013 0.0338234 0)
(9.10629 0.0348135 0)
(9.12499 0.0363205 0)
(9.14703 0.0378793 0)
(9.1736 0.0386523 0)
(9.20523 0.0371697 0)
(8.34094 0.0653929 0)
(8.40307 0.165168 0)
(8.49326 0.206279 0)
(8.56995 0.212835 0)
(8.62806 0.204725 0)
(8.6742 0.189265 0)
(8.71068 0.171519 0)
(8.73966 0.154422 0)
(8.76374 0.138786 0)
(8.78454 0.124722 0)
(8.80299 0.112177 0)
(8.81973 0.100995 0)
(8.83522 0.0909975 0)
(8.84973 0.0820263 0)
(8.86348 0.0739496 0)
(8.87661 0.066656 0)
(8.88924 0.0600546 0)
(8.90147 0.0540732 0)
(8.91337 0.0486568 0)
(8.92503 0.0437661 0)
(8.93652 0.0393764 0)
(8.94795 0.0354754 0)
(8.95942 0.0320616 0)
(8.97108 0.0291403 0)
(8.98309 0.0267178 0)
(8.99568 0.0247923 0)
(9.00913 0.0233366 0)
(9.02382 0.0222742 0)
(9.04018 0.0214355 0)
(9.05877 0.0205045 0)
(9.08015 0.0189214 0)
(9.10506 0.0158025 0)
(9.13361 0.00990828 0)
(8.33845 0.051225 0)
(8.38472 0.13432 0)
(8.45689 0.174245 0)
(8.52283 0.184739 0)
(8.57534 0.18129 0)
(8.61838 0.170306 0)
(8.6535 0.156049 0)
(8.6821 0.14137 0)
(8.70616 0.127392 0)
(8.7271 0.114472 0)
(8.74575 0.102725 0)
(8.7627 0.0921169 0)
(8.77838 0.0825438 0)
(8.79307 0.0738925 0)
(8.80698 0.0660569 0)
(8.82026 0.0589418 0)
(8.83303 0.0524651 0)
(8.84538 0.0465592 0)
(8.85742 0.0411694 0)
(8.86921 0.0362533 0)
(8.88085 0.0317783 0)
(8.89244 0.0277194 0)
(8.90408 0.0240562 0)
(8.91593 0.0207677 0)
(8.92813 0.0178251 0)
(8.9409 0.0151808 0)
(8.95449 0.0127506 0)
(8.96919 0.0103918 0)
(8.98535 0.00786325 0)
(9.00336 0.0047931 0)
(9.02356 0.000607599 0)
(9.04634 -0.00552166 0)
(9.07158 -0.0145759 0)
(8.33687 0.0405911 0)
(8.37181 0.109454 0)
(8.42971 0.146697 0)
(8.48616 0.159426 0)
(8.53335 0.15925 0)
(8.57326 0.151688 0)
(8.60683 0.140354 0)
(8.63488 0.127889 0)
(8.65884 0.115551 0)
(8.67988 0.10384 0)
(8.69871 0.0929732 0)
(8.71588 0.0830046 0)
(8.73177 0.0738977 0)
(8.74666 0.0655851 0)
(8.76075 0.0579923 0)
(8.7742 0.0510459 0)
(8.78712 0.0446776 0)
(8.79962 0.038827 0)
(8.81179 0.0334416 0)
(8.82372 0.028476 0)
(8.83549 0.0238903 0)
(8.84721 0.0196475 0)
(8.85899 0.0157101 0)
(8.87095 0.0120345 0)
(8.88325 0.00856288 0)
(8.89606 0.00521252 0)
(8.90959 0.00186014 0)
(8.92406 -0.00167755 0)
(8.93973 -0.00567334 0)
(8.95684 -0.0105095 0)
(8.97556 -0.0167192 0)
(8.99603 -0.02502 0)
(9.01801 -0.0361476 0)
(8.33583 0.0324407 0)
(8.36262 0.0892797 0)
(8.40929 0.122987 0)
(8.4575 0.136661 0)
(8.49975 0.138724 0)
(8.53661 0.133802 0)
(8.5685 0.124915 0)
(8.5958 0.114396 0)
(8.61951 0.10353 0)
(8.64054 0.0929147 0)
(8.6595 0.0828529 0)
(8.67685 0.073477 0)
(8.69295 0.0648111 0)
(8.70804 0.056829 0)
(8.72233 0.0494833 0)
(8.73597 0.0427176 0)
(8.74907 0.0364737 0)
(8.76173 0.0306954 0)
(8.77405 0.0253302 0)
(8.78611 0.0203292 0)
(8.79801 0.0156452 0)
(8.80983 0.0112306 0)
(8.82169 0.00703317 0)
(8.8337 0.002991 0)
(8.84599 -0.000975382 0)
(8.85871 -0.00497261 0)
(8.87201 -0.00914705 0)
(8.88606 -0.0137004 0)
(8.90103 -0.0189065 0)
(8.91702 -0.0251301 0)
(8.93411 -0.0328336 0)
(8.95225 -0.0426059 0)
(8.97115 -0.0549703 0)
(8.33514 0.0260607 0)
(8.356 0.072782 0)
(8.39386 0.10256 0)
(8.43504 0.116206 0)
(8.47276 0.119636 0)
(8.50668 0.116612 0)
(8.53681 0.109646 0)
(8.56323 0.100757 0)
(8.58657 0.0911916 0)
(8.60751 0.0815956 0)
(8.62654 0.0723227 0)
(8.64404 0.0635537 0)
(8.66032 0.0553551 0)
(8.67561 0.0477315 0)
(8.6901 0.0406576 0)
(8.70392 0.0340921 0)
(8.71718 0.0279865 0)
(8.72999 0.0222899 0)
(8.74245 0.0169512 0)
(8.75462 0.0119194 0)
(8.76661 0.0071419 0)
(8.7785 0.00256298 0)
(8.79038 -0.0018804 0)
(8.80236 -0.00626322 0)
(8.81454 -0.0106789 0)
(8.82705 -0.015247 0)
(8.83998 -0.0201235 0)
(8.85346 -0.02551 0)
(8.86757 -0.0316646 0)
(8.88234 -0.0389087 0)
(8.89775 -0.0476237 0)
(8.91366 -0.0582722 0)
(8.92976 -0.0712031 0)
(8.33466 0.0209629 0)
(8.35117 0.0591584 0)
(8.38214 0.0849047 0)
(8.41738 0.0978088 0)
(8.45102 0.101903 0)
(8.48217 0.100172 0)
(8.51056 0.0946813 0)
(8.53601 0.0871451 0)
(8.55888 0.0787122 0)
(8.57964 0.0700341 0)
(8.59866 0.0614887 0)
(8.61626 0.0532887 0)
(8.6327 0.0455335 0)
(8.64816 0.0382547 0)
(8.66282 0.0314462 0)
(8.67681 0.0250803 0)
(8.69023 0.0191173 0)
(8.70318 0.0135105 0)
(8.71575 0.00820964 0)
(8.72801 0.00316164 0)
(8.74006 -0.00169026 0)
(8.75196 -0.00640821 0)
(8.76381 -0.0110628 0)
(8.77569 -0.0157369 0)
(8.78768 -0.0205313 0)
(8.79988 -0.0255699 0)
(8.81235 -0.0310067 0)
(8.82516 -0.0370307 0)
(8.83833 -0.0438713 0)
(8.85184 -0.0517987 0)
(8.86562 -0.0611139 0)
(8.87946 -0.0721637 0)
(8.89309 -0.0851615 0)
(8.33432 0.016808 0)
(8.34761 0.0477803 0)
(8.37319 0.069569 0)
(8.40347 0.0812297 0)
(8.43349 0.0854291 0)
(8.46209 0.0844729 0)
(8.48877 0.0800414 0)
(8.51321 0.0735648 0)
(8.53554 0.0660711 0)
(8.55605 0.0581893 0)
(8.57502 0.0503023 0)
(8.59268 0.0426388 0)
(8.60923 0.0353185 0)
(8.62484 0.0283905 0)
(8.63966 0.0218623 0)
(8.6538 0.0157158 0)
(8.66735 0.00991734 0)
(8.68042 0.00442368 0)
(8.69308 -0.000814551 0)
(8.7054 -0.00585161 0)
(8.71746 -0.0107468 0)
(8.72934 -0.015566 0)
(8.7411 -0.0203835 0)
(8.75281 -0.0252859 0)
(8.76455 -0.0303747 0)
(8.77636 -0.0357708 0)
(8.78829 -0.0416178 0)
(8.80036 -0.0480845 0)
(8.81257 -0.055365 0)
(8.82484 -0.0636765 0)
(8.83708 -0.073245 0)
(8.84907 -0.0843191 0)
(8.86056 -0.0970102 0)
(8.33407 0.0133562 0)
(8.34495 0.0381565 0)
(8.36632 0.0561564 0)
(8.39249 0.0662334 0)
(8.41936 0.0700962 0)
(8.44564 0.0694848 0)
(8.47071 0.0657488 0)
(8.49415 0.0600662 0)
(8.5159 0.0533323 0)
(8.53612 0.0461302 0)
(8.55499 0.0388296 0)
(8.57266 0.0316604 0)
(8.58929 0.0247515 0)
(8.60502 0.018163 0)
(8.61997 0.0119118 0)
(8.63424 0.00598717 0)
(8.64791 0.000360307 0)
(8.66107 -0.00500908 0)
(8.6738 -0.0101692 0)
(8.68615 -0.0151746 0)
(8.6982 -0.0200857 0)
(8.71 -0.0249698 0)
(8.72163 -0.0299022 0)
(8.73313 -0.0349687 0)
(8.74455 -0.0402673 0)
(8.75592 -0.0459103 0)
(8.76728 -0.052026 0)
(8.7786 -0.0587584 0)
(8.78985 -0.066265 0)
(8.80095 -0.0747123 0)
(8.81179 -0.0842617 0)
(8.82215 -0.0950814 0)
(8.83183 -0.107209 0)
(8.33389 0.0104345 0)
(8.34294 0.0299023 0)
(8.36104 0.0443229 0)
(8.38384 0.0525958 0)
(8.40799 0.0557786 0)
(8.43221 0.0551562 0)
(8.45579 0.0517973 0)
(8.47826 0.0466596 0)
(8.49942 0.0405052 0)
(8.51933 0.0338577 0)
(8.53806 0.0270615 0)
(8.55572 0.0203377 0)
(8.57241 0.0138159 0)
(8.58824 0.00756063 0)
(8.6033 0.00159354 0)
(8.61768 -0.00409229 0)
(8.63145 -0.00952277 0)
(8.64468 -0.0147366 0)
(8.65744 -0.0197813 0)
(8.66979 -0.0247114 0)
(8.68179 -0.0295875 0)
(8.69349 -0.0344765 0)
(8.70494 -0.0394521 0)
(8.71618 -0.0445964 0)
(8.72725 -0.0500003 0)
(8.73816 -0.0557644 0)
(8.74891 -0.0619988 0)
(8.75948 -0.0688216 0)
(8.76982 -0.0763551 0)
(8.77985 -0.084721 0)
(8.78944 -0.0940271 0)
(8.7984 -0.104379 0)
(8.80658 -0.115763 0)
(8.33375 0.00791547 0)
(8.34143 0.0227144 0)
(8.35696 0.0337714 0)
(8.37704 0.0401041 0)
(8.39888 0.0423422 0)
(8.4213 0.0414158 0)
(8.44355 0.0381594 0)
(8.46511 0.0333419 0)
(8.48571 0.0275985 0)
(8.50531 0.0213856 0)
(8.5239 0.0150129 0)
(8.54153 0.00868334 0)
(8.55826 0.00251884 0)
(8.57417 -0.00341789 0)
(8.58932 -0.00910507 0)
(8.60379 -0.0145486 0)
(8.61764 -0.0197735 0)
(8.63092 -0.0248175 0)
(8.6437 -0.0297275 0)
(8.65602 -0.0345574 0)
(8.66794 -0.0393666 0)
(8.67951 -0.0442198 0)
(8.69076 -0.0491872 0)
(8.70172 -0.0543448 0)
(8.71241 -0.0597741 0)
(8.72285 -0.065562 0)
(8.73301 -0.0717996 0)
(8.74287 -0.0785799 0)
(8.75237 -0.0859932 0)
(8.76142 -0.0941235 0)
(8.76993 -0.103036 0)
(8.77772 -0.112788 0)
(8.78466 -0.123334 0)
(8.33365 0.00570241 0)
(8.34027 0.0163514 0)
(8.35383 0.0242452 0)
(8.37171 0.0285579 0)
(8.39164 0.0296479 0)
(8.41252 0.028178 0)
(8.43361 0.02479 0)
(8.45436 0.0200929 0)
(8.47445 0.0146057 0)
(8.49375 0.00871503 0)
(8.5122 0.00268947 0)
(8.5298 -0.00329227 0)
(8.54656 -0.00912161 0)
(8.56254 -0.0147428 0)
(8.57777 -0.0201376 0)
(8.59232 -0.025314 0)
(8.60622 -0.0302979 0)
(8.61953 -0.0351277 0)
(8.6323 -0.0398504 0)
(8.64458 -0.0445192 0)
(8.6564 -0.0491921 0)
(8.66781 -0.053931 0)
(8.67883 -0.0588016 0)
(8.68949 -0.0638727 0)
(8.6998 -0.0692156 0)
(8.70976 -0.0749033 0)
(8.71935 -0.0810089 0)
(8.72854 -0.0876023 0)
(8.73728 -0.0947473 0)
(8.74547 -0.102497 0)
(8.75305 -0.110884 0)
(8.75986 -0.119931 0)
(8.76583 -0.129574 0)
(8.33357 0.00372014 0)
(8.3394 0.0106181 0)
(8.35144 0.015521 0)
(8.36759 0.0177675 0)
(8.38596 0.0175521 0)
(8.40557 0.015341 0)
(8.42568 0.0116209 0)
(8.44575 0.00686607 0)
(8.4654 0.0014905 0)
(8.48444 -0.00418896 0)
(8.50278 -0.00994848 0)
(8.52036 -0.0156389 0)
(8.53717 -0.0211703 0)
(8.55322 -0.0264986 0)
(8.56853 -0.0316129 0)
(8.58315 -0.0365257 0)
(8.59711 -0.0412656 0)
(8.61044 -0.0458726 0)
(8.6232 -0.0503938 0)
(8.63541 -0.0548818 0)
(8.64712 -0.0593923 0)
(8.65836 -0.0639837 0)
(8.66915 -0.068716 0)
(8.67951 -0.0736502 0)
(8.68944 -0.0788471 0)
(8.69894 -0.0843662 0)
(8.708 -0.0902637 0)
(8.71658 -0.09659 0)
(8.72463 -0.103386 0)
(8.73209 -0.110682 0)
(8.73888 -0.118486 0)
(8.7449 -0.126796 0)
(8.7501 -0.13554 0)
(8.33352 0.00190817 0)
(8.33876 0.00535275 0)
(8.34965 0.00740194 0)
(8.36446 0.00755274 0)
(8.38161 0.00590835 0)
(8.4002 0.00279464 0)
(8.41954 -0.00142443 0)
(8.43905 -0.00638594 0)
(8.45836 -0.0117685 0)
(8.47722 -0.017322 0)
(8.49548 -0.0228692 0)
(8.51306 -0.0282936 0)
(8.52992 -0.0335281 0)
(8.54605 -0.0385443 0)
(8.56144 -0.0433421 0)
(8.57612 -0.0479415 0)
(8.59012 -0.0523764 0)
(8.60346 -0.0566899 0)
(8.61619 -0.0609308 0)
(8.62833 -0.0651516 0)
(8.63991 -0.0694066 0)
(8.65096 -0.0737508 0)
(8.66151 -0.0782392 0)
(8.67156 -0.0829252 0)
(8.68112 -0.0878601 0)
(8.69019 -0.0930915 0)
(8.69876 -0.0986613 0)
(8.70678 -0.104604 0)
(8.71423 -0.110943 0)
(8.72106 -0.11769 0)
(8.7272 -0.124838 0)
(8.73258 -0.13237 0)
(8.73718 -0.140209 0)
(8.33347 0.000216124 0)
(8.33829 0.000417497 0)
(8.34834 -0.000289678 0)
(8.36218 -0.00226168 0)
(8.37842 -0.00543966 0)
(8.39626 -0.00959569 0)
(8.41503 -0.0144628 0)
(8.43415 -0.0197721 0)
(8.45323 -0.0252846 0)
(8.47199 -0.0308145 0)
(8.49025 -0.0362322 0)
(8.5079 -0.0414565 0)
(8.52485 -0.046446 0)
(8.54108 -0.0511905 0)
(8.55658 -0.055703 0)
(8.57134 -0.0600127 0)
(8.58539 -0.0641596 0)
(8.59876 -0.0681906 0)
(8.61145 -0.0721565 0)
(8.62352 -0.0761098 0)
(8.63498 -0.080103 0)
(8.64585 -0.084188 0)
(8.65616 -0.0884144 0)
(8.66592 -0.0928286 0)
(8.67514 -0.0974734 0)
(8.68381 -0.102386 0)
(8.69192 -0.107596 0)
(8.69946 -0.113125 0)
(8.70638 -0.118984 0)
(8.71267 -0.125171 0)
(8.71828 -0.13167 0)
(8.72315 -0.138454 0)
(8.72728 -0.145447 0)
(8.33345 -0.00139968 0)
(8.33797 -0.00430957 0)
(8.34746 -0.0077181 0)
(8.36063 -0.0118455 0)
(8.37626 -0.0166455 0)
(8.3936 -0.0219545 0)
(8.41201 -0.0275796 0)
(8.43091 -0.033329 0)
(8.44989 -0.0390358 0)
(8.46865 -0.0445747 0)
(8.48698 -0.049864 0)
(8.50473 -0.0548606 0)
(8.52181 -0.0595527 0)
(8.53817 -0.0639529 0)
(8.55377 -0.0680913 0)
(8.56862 -0.0720101 0)
(8.58273 -0.0757584 0)
(8.5961 -0.0793896 0)
(8.60877 -0.0829583 0)
(8.62075 -0.0865185 0)
(8.63208 -0.0901226 0)
(8.64277 -0.0938199 0)
(8.65285 -0.0976558 0)
(8.66233 -0.101671 0)
(8.67122 -0.105902 0)
(8.67951 -0.110376 0)
(8.68722 -0.115115 0)
(8.69431 -0.12013 0)
(8.70079 -0.125424 0)
(8.70663 -0.130985 0)
(8.7118 -0.136792 0)
(8.71627 -0.142814 0)
(8.72006 -0.148979 0)
(8.33343 -0.00297996 0)
(8.33778 -0.00894305 0)
(8.34695 -0.0150456 0)
(8.35975 -0.0213819 0)
(8.37506 -0.0279006 0)
(8.39217 -0.0344834 0)
(8.41047 -0.0409976 0)
(8.42936 -0.0473193 0)
(8.44843 -0.0533479 0)
(8.46734 -0.0590151 0)
(8.48586 -0.0642865 0)
(8.50382 -0.0691565 0)
(8.52111 -0.0736429 0)
(8.53766 -0.0777813 0)
(8.55343 -0.0816192 0)
(8.56841 -0.0852118 0)
(8.5826 -0.088618 0)
(8.59601 -0.0918975 0)
(8.60866 -0.0951092 0)
(8.62058 -0.0983091 0)
(8.63179 -0.10155 0)
(8.64231 -0.104878 0)
(8.65217 -0.108338 0)
(8.66139 -0.111964 0)
(8.66997 -0.115787 0)
(8.67793 -0.11983 0)
(8.68526 -0.124105 0)
(8.69198 -0.128619 0)
(8.69806 -0.133366 0)
(8.70351 -0.138333 0)
(8.70832 -0.143493 0)
(8.71246 -0.148815 0)
(8.71597 -0.154232 0)
(8.33342 -0.00456415 0)
(8.33772 -0.0135939 0)
(8.34679 -0.0224283 0)
(8.35949 -0.0310377 0)
(8.37476 -0.0393489 0)
(8.39191 -0.0472679 0)
(8.41032 -0.0547074 0)
(8.4294 -0.0616011 0)
(8.44869 -0.0679106 0)
(8.46787 -0.0736264 0)
(8.48667 -0.0787656 0)
(8.50491 -0.0833671 0)
(8.52246 -0.0874852 0)
(8.53924 -0.0911849 0)
(8.5552 -0.0945369 0)
(8.57032 -0.0976141 0)
(8.58461 -0.100488 0)
(8.59806 -0.103229 0)
(8.6107 -0.1059 0)
(8.62256 -0.108562 0)
(8.63366 -0.111268 0)
(8.64402 -0.114064 0)
(8.65368 -0.116991 0)
(8.66265 -0.120082 0)
(8.67095 -0.123362 0)
(8.67859 -0.126848 0)
(8.6856 -0.13055 0)
(8.69197 -0.134468 0)
(8.69772 -0.138593 0)
(8.70284 -0.142911 0)
(8.70734 -0.147392 0)
(8.71123 -0.152008 0)
(8.71454 -0.1567 0)
(8.33343 -0.00619343 0)
(8.33779 -0.0183835 0)
(8.34698 -0.0300561 0)
(8.35989 -0.0410648 0)
(8.37545 -0.0513164 0)
(8.39297 -0.060741 0)
(8.41181 -0.0692938 0)
(8.43136 -0.0769622 0)
(8.45116 -0.083763 0)
(8.47083 -0.0897385 0)
(8.4901 -0.094951 0)
(8.50878 -0.0994782 0)
(8.52672 -0.103408 0)
(8.54383 -0.106831 0)
(8.56006 -0.109842 0)
(8.57539 -0.11253 0)
(8.58981 -0.114982 0)
(8.60334 -0.117277 0)
(8.616 -0.119488 0)
(8.62781 -0.121679 0)
(8.63881 -0.123906 0)
(8.64902 -0.126217 0)
(8.65848 -0.128653 0)
(8.66721 -0.131244 0)
(8.67524 -0.134013 0)
(8.6826 -0.136975 0)
(8.6893 -0.140137 0)
(8.69535 -0.143496 0)
(8.70079 -0.147043 0)
(8.70561 -0.15076 0)
(8.70984 -0.154622 0)
(8.71349 -0.1586 0)
(8.71659 -0.16264 0)
(8.33344 -0.00791259 0)
(8.33797 -0.0234325 0)
(8.34752 -0.0380819 0)
(8.36092 -0.0515775 0)
(8.37705 -0.0637881 0)
(8.39519 -0.0746552 0)
(8.41469 -0.0841748 0)
(8.43491 -0.0923964 0)
(8.45536 -0.0994086 0)
(8.47566 -0.105323 0)
(8.49552 -0.110265 0)
(8.51473 -0.114366 0)
(8.53313 -0.117758 0)
(8.55064 -0.120567 0)
(8.5672 -0.122913 0)
(8.58278 -0.124909 0)
(8.59739 -0.126655 0)
(8.61103 -0.128241 0)
(8.62373 -0.129746 0)
(8.63552 -0.131239 0)
(8.64644 -0.132779 0)
(8.65653 -0.134414 0)
(8.66581 -0.136182 0)
(8.67434 -0.138114 0)
(8.68213 -0.14023 0)
(8.68922 -0.142543 0)
(8.69564 -0.145057 0)
(8.70141 -0.147769 0)
(8.70657 -0.150669 0)
(8.71113 -0.153739 0)
(8.71513 -0.156955 0)
(8.71859 -0.160295 0)
(8.72155 -0.163708 0)
(8.33348 -0.00977862 0)
(8.33833 -0.028926 0)
(8.34855 -0.0468485 0)
(8.36286 -0.0631455 0)
(8.38004 -0.0776743 0)
(8.39931 -0.0903962 0)
(8.41995 -0.101337 0)
(8.44128 -0.110585 0)
(8.46277 -0.118278 0)
(8.48402 -0.124575 0)
(8.50472 -0.129649 0)
(8.52466 -0.133678 0)
(8.54368 -0.136834 0)
(8.56169 -0.139282 0)
(8.57865 -0.141173 0)
(8.59453 -0.142645 0)
(8.60934 -0.143819 0)
(8.6231 -0.144803 0)
(8.63584 -0.145688 0)
(8.64761 -0.146552 0)
(8.65844 -0.147459 0)
(8.66839 -0.148462 0)
(8.67749 -0.149601 0)
(8.68579 -0.150907 0)
(8.69333 -0.152401 0)
(8.70015 -0.154094 0)
(8.70629 -0.155991 0)
(8.71177 -0.158089 0)
(8.71665 -0.160376 0)
(8.72094 -0.162837 0)
(8.72468 -0.16545 0)
(8.7279 -0.168192 0)
(8.73065 -0.171019 0)
(8.33352 -0.0118516 0)
(8.33881 -0.034979 0)
(8.34993 -0.0563567 0)
(8.36541 -0.0753994 0)
(8.38386 -0.0919427 0)
(8.40447 -0.106 0)
(8.42645 -0.117689 0)
(8.44909 -0.127211 0)
(8.47182 -0.134811 0)
(8.49421 -0.140742 0)
(8.51596 -0.145253 0)
(8.53681 -0.148581 0)
(8.55663 -0.150943 0)
(8.57531 -0.152539 0)
(8.5928 -0.153545 0)
(8.60911 -0.154117 0)
(8.62423 -0.15439 0)
(8.6382 -0.154481 0)
(8.65107 -0.154489 0)
(8.66287 -0.154494 0)
(8.67367 -0.154564 0)
(8.68352 -0.154752 0)
(8.69247 -0.1551 0)
(8.70058 -0.155638 0)
(8.7079 -0.156386 0)
(8.71447 -0.157356 0)
(8.72035 -0.158552 0)
(8.72557 -0.15997 0)
(8.73019 -0.161602 0)
(8.73424 -0.163432 0)
(8.73776 -0.165441 0)
(8.74079 -0.167611 0)
(8.74341 -0.1699 0)
(8.3336 -0.0142457 0)
(8.33968 -0.0420639 0)
(8.35237 -0.0677044 0)
(8.36988 -0.0904581 0)
(8.39054 -0.110149 0)
(8.41336 -0.126767 0)
(8.43744 -0.14041 0)
(8.462 -0.151308 0)
(8.48642 -0.159762 0)
(8.51028 -0.166099 0)
(8.53327 -0.170644 0)
(8.55516 -0.173711 0)
(8.57583 -0.17559 0)
(8.59519 -0.17654 0)
(8.61322 -0.176787 0)
(8.62991 -0.176528 0)
(8.6453 -0.17593 0)
(8.65944 -0.175131 0)
(8.67237 -0.174247 0)
(8.68416 -0.173371 0)
(8.69488 -0.172576 0)
(8.70459 -0.171921 0)
(8.71335 -0.171449 0)
(8.72123 -0.171191 0)
(8.72828 -0.171167 0)
(8.73457 -0.171389 0)
(8.74015 -0.17186 0)
(8.74507 -0.172576 0)
(8.74938 -0.173529 0)
(8.75312 -0.174705 0)
(8.75635 -0.176085 0)
(8.7591 -0.177651 0)
(8.76143 -0.179364 0)
(8.33366 -0.0170226 0)
(8.34051 -0.0499529 0)
(8.3548 -0.079552 0)
(8.37434 -0.104938 0)
(8.39721 -0.126151 0)
(8.42238 -0.14345 0)
(8.44886 -0.157179 0)
(8.47575 -0.167761 0)
(8.50236 -0.175634 0)
(8.52822 -0.18121 0)
(8.55297 -0.184874 0)
(8.57639 -0.186977 0)
(8.59834 -0.187836 0)
(8.61875 -0.18773 0)
(8.63762 -0.186902 0)
(8.65497 -0.185563 0)
(8.67084 -0.183889 0)
(8.6853 -0.18203 0)
(8.69843 -0.180108 0)
(8.71032 -0.178222 0)
(8.72104 -0.176452 0)
(8.73067 -0.174857 0)
(8.7393 -0.173485 0)
(8.747 -0.172367 0)
(8.75384 -0.171524 0)
(8.75988 -0.17097 0)
(8.7652 -0.170709 0)
(8.76985 -0.170737 0)
(8.77388 -0.171047 0)
(8.77737 -0.171627 0)
(8.78035 -0.17246 0)
(8.78289 -0.17353 0)
(8.78505 -0.174799 0)
(8.33391 -0.0205665 0)
(8.34279 -0.0607283 0)
(8.36071 -0.0971308 0)
(8.3844 -0.128564 0)
(8.41128 -0.154819 0)
(8.4401 -0.17594 0)
(8.46977 -0.192244 0)
(8.49938 -0.204297 0)
(8.5283 -0.212735 0)
(8.5561 -0.218174 0)
(8.58247 -0.221184 0)
(8.60724 -0.222279 0)
(8.63029 -0.221902 0)
(8.65159 -0.220429 0)
(8.67115 -0.218174 0)
(8.68901 -0.215396 0)
(8.70525 -0.212304 0)
(8.71994 -0.209068 0)
(8.73318 -0.205821 0)
(8.74506 -0.202668 0)
(8.75568 -0.199689 0)
(8.76515 -0.196944 0)
(8.77353 -0.194475 0)
(8.78094 -0.192313 0)
(8.78744 -0.190475 0)
(8.79311 -0.188972 0)
(8.79802 -0.187805 0)
(8.80225 -0.186972 0)
(8.80585 -0.186464 0)
(8.80889 -0.186269 0)
(8.81143 -0.186371 0)
(8.8135 -0.186754 0)
(8.81518 -0.187377 0)
(8.33387 -0.0246125 0)
(8.34358 -0.0709228 0)
(8.36391 -0.110291 0)
(8.39101 -0.142465 0)
(8.422 -0.168515 0)
(8.45537 -0.189107 0)
(8.48967 -0.204797 0)
(8.52362 -0.216233 0)
(8.55642 -0.224038 0)
(8.58759 -0.228782 0)
(8.61678 -0.231002 0)
(8.64382 -0.231195 0)
(8.66866 -0.229807 0)
(8.69131 -0.227229 0)
(8.71184 -0.223796 0)
(8.73035 -0.219795 0)
(8.74695 -0.215462 0)
(8.76178 -0.210989 0)
(8.77498 -0.20653 0)
(8.78667 -0.202204 0)
(8.79698 -0.198104 0)
(8.80603 -0.194296 0)
(8.81394 -0.190828 0)
(8.82081 -0.187733 0)
(8.82673 -0.18503 0)
(8.83179 -0.182727 0)
(8.83607 -0.180828 0)
(8.83966 -0.179329 0)
(8.84261 -0.178222 0)
(8.84501 -0.177497 0)
(8.84692 -0.177137 0)
(8.8484 -0.177129 0)
(8.84955 -0.177427 0)
(8.33497 -0.0314893 0)
(8.35131 -0.0931521 0)
(8.38035 -0.146808 0)
(8.41496 -0.190343 0)
(8.45168 -0.224114 0)
(8.48958 -0.248934 0)
(8.5275 -0.266119 0)
(8.56434 -0.277146 0)
(8.59946 -0.283293 0)
(8.63247 -0.285635 0)
(8.66308 -0.285077 0)
(8.69117 -0.282361 0)
(8.71673 -0.278082 0)
(8.73982 -0.272719 0)
(8.76055 -0.266651 0)
(8.77907 -0.26018 0)
(8.79553 -0.253543 0)
(8.81012 -0.246923 0)
(8.82299 -0.240463 0)
(8.8343 -0.234268 0)
(8.84421 -0.228416 0)
(8.85286 -0.222962 0)
(8.86037 -0.217943 0)
(8.86686 -0.213382 0)
(8.87244 -0.209289 0)
(8.87719 -0.205668 0)
(8.88121 -0.202519 0)
(8.88456 -0.199836 0)
(8.88733 -0.197613 0)
(8.88958 -0.195842 0)
(8.89138 -0.194512 0)
(8.89279 -0.193615 0)
(8.89389 -0.1931 0)
(8.33403 -0.0364687 0)
(8.34986 -0.0993051 0)
(8.38376 -0.14829 0)
(8.42649 -0.188144 0)
(8.47254 -0.220843 0)
(8.51947 -0.246128 0)
(8.56518 -0.26445 0)
(8.60845 -0.27671 0)
(8.64894 -0.283761 0)
(8.68657 -0.286478 0)
(8.72137 -0.28575 0)
(8.75346 -0.282388 0)
(8.78303 -0.277104 0)
(8.81024 -0.270494 0)
(8.83524 -0.263051 0)
(8.8582 -0.255164 0)
(8.87926 -0.247138 0)
(8.89855 -0.239202 0)
(8.91621 -0.231527 0)
(8.93235 -0.224236 0)
(8.94709 -0.21741 0)
(8.96054 -0.211105 0)
(8.97281 -0.205351 0)
(8.98399 -0.200161 0)
(8.99417 -0.195537 0)
(9.00343 -0.191473 0)
(9.01186 -0.187958 0)
(9.01951 -0.184983 0)
(9.02647 -0.182539 0)
(9.0328 -0.18062 0)
(9.03858 -0.179232 0)
(9.04391 -0.178377 0)
(9.04889 -0.178022 0)
(8.33959 -0.0605846 0)
(8.37703 -0.17002 0)
(8.42623 -0.248554 0)
(8.476 -0.301796 0)
(8.52835 -0.336847 0)
(8.5848 -0.358086 0)
(8.64373 -0.369605 0)
(8.70384 -0.374491 0)
(8.76417 -0.374697 0)
(8.82362 -0.37155 0)
(8.88119 -0.365993 0)
(8.93613 -0.358699 0)
(8.98792 -0.350172 0)
(9.0362 -0.340805 0)
(9.0808 -0.330917 0)
(9.12169 -0.32077 0)
(9.15894 -0.310585 0)
(9.19269 -0.300541 0)
(9.22314 -0.290785 0)
(9.25051 -0.281429 0)
(9.27504 -0.272559 0)
(9.29697 -0.264234 0)
(9.31652 -0.256493 0)
(9.33392 -0.249358 0)
(9.34937 -0.242837 0)
(9.36305 -0.23693 0)
(9.37513 -0.231632 0)
(9.38574 -0.226939 0)
(9.39502 -0.222857 0)
(9.40306 -0.219393 0)
(9.41 -0.216608 0)
(9.41593 -0.214511 0)
(9.42106 -0.21329 0)
(8.33759 -0.0465906 0)
(8.39347 -0.121119 0)
(8.49367 -0.185194 0)
(8.60839 -0.247039 0)
(8.73013 -0.300152 0)
(8.85338 -0.341366 0)
(8.97123 -0.371404 0)
(9.07956 -0.391157 0)
(9.17616 -0.401781 0)
(9.25985 -0.404864 0)
(9.33037 -0.402036 0)
(9.38818 -0.39476 0)
(9.43417 -0.384305 0)
(9.46946 -0.371723 0)
(9.49528 -0.357856 0)
(9.51286 -0.343365 0)
(9.52339 -0.328751 0)
(9.52796 -0.314388 0)
(9.52752 -0.30054 0)
(9.52293 -0.287388 0)
(9.51491 -0.275049 0)
(9.50409 -0.263586 0)
(9.491 -0.253024 0)
(9.47605 -0.243359 0)
(9.45962 -0.234565 0)
(9.44198 -0.226603 0)
(9.42336 -0.219426 0)
(9.40393 -0.212986 0)
(9.38382 -0.207248 0)
(9.36304 -0.202189 0)
(9.34175 -0.197914 0)
(9.31962 -0.194386 0)
(9.29741 -0.192662 0)
(8.40923 -0.221341 0)
(8.63493 -0.428483 0)
(8.83306 -0.522886 0)
(8.97671 -0.583609 0)
(9.07025 -0.616461 0)
(9.11271 -0.627053 0)
(9.10842 -0.622968 0)
(9.06681 -0.608281 0)
(8.99676 -0.58583 0)
(8.90574 -0.558181 0)
(8.80021 -0.527396 0)
(8.68554 -0.495057 0)
(8.56592 -0.462389 0)
(8.44452 -0.430306 0)
(8.32371 -0.399456 0)
(8.20517 -0.37027 0)
(8.09005 -0.34301 0)
(7.9791 -0.317805 0)
(7.87274 -0.294689 0)
(7.77118 -0.273628 0)
(7.67445 -0.254541 0)
(7.58247 -0.237318 0)
(7.49508 -0.221829 0)
(7.41207 -0.207934 0)
(7.33319 -0.195487 0)
(7.25818 -0.184339 0)
(7.18678 -0.174336 0)
(7.11868 -0.165329 0)
(7.05359 -0.15714 0)
(6.99107 -0.149602 0)
(6.93074 -0.142617 0)
(6.87144 -0.135285 0)
(6.81366 -0.131345 0)
(8.13707 -0.207183 0)
(7.84764 -0.388105 0)
(7.38525 -0.439482 0)
(6.8597 -0.440112 0)
(6.35999 -0.408789 0)
(5.88904 -0.359806 0)
(5.44946 -0.305445 0)
(5.04864 -0.252099 0)
(4.68765 -0.202989 0)
(4.36452 -0.159728 0)
(4.07688 -0.122761 0)
(3.82188 -0.0918618 0)
(3.59633 -0.0664882 0)
(3.39707 -0.0459508 0)
(3.22109 -0.0295256 0)
(3.06559 -0.0165286 0)
(2.92803 -0.00634924 0)
(2.80611 0.00153812 0)
(2.69781 0.00757518 0)
(2.60133 0.0121269 0)
(2.51509 0.0154917 0)
(2.43773 0.017912 0)
(2.36805 0.0195851 0)
(2.30502 0.0206722 0)
(2.24776 0.0213111 0)
(2.19552 0.0216213 0)
(2.14764 0.0217346 0)
(2.10367 0.021784 0)
(2.06305 0.022014 0)
(2.02596 0.0227611 0)
(1.9914 0.0243704 0)
(1.9616 0.029743 0)
(1.93435 0.0242525 0)
(1.24119 0.153157 0)
(2.11645 0.718916 0)
(3.32467 0.982974 0)
(4.26256 0.842584 0)
(4.81458 0.411789 0)
(4.98648 -0.0921647 0)