/*--------------------------------*- C++ -*----------------------------------*\
| =========                 |                                                 |
| \\      /  F ield         | OpenFOAM: The Open Source CFD Toolbox           |
|  \\    /   O peration     | Version:  2.1.1                                 |
|   \\  /    A nd           | Web:      www.OpenFOAM.org                      |
|    \\/     M anipulation  |                                                 |
\*---------------------------------------------------------------------------*/
FoamFile
{
    version     2.0;
    format      ascii;
    class       volScalarField;
    location    "0.14";
    object      nuSgs;
}
// * * * * * * * * * * * * * * * * * * * * * * * * * * * * * * * * * * * * * //

dimensions      [0 2 -1 0 0 0 0];

internalField   nonuniform List<scalar> 
6820
(
0.000556014
0.00045742
0.000368171
0.000306179
0.000269008
0.000243415
0.000224588
0.000210198
0.000198584
0.000188837
0.000180443
0.00017307
0.000166495
0.000160562
0.000155159
0.000150198
0.000145615
0.000141357
0.000137383
0.00013366
0.000130159
0.000126857
0.000123732
0.000120766
0.000117941
0.000115243
0.000112652
0.000110155
0.000107726
0.000105359
0.000103014
0.000100556
9.77397e-05
0.000103493
0.000170653
0.000223638
0.000240013
0.000235271
0.000224927
0.000213254
0.000201993
0.000191787
0.00018265
0.000174463
0.000167091
0.000160413
0.000154322
0.000148737
0.000143586
0.000138812
0.000134368
0.000130214
0.000126316
0.000122645
0.000119178
0.000115895
0.000112778
0.000109812
0.000106986
0.00010429
0.000101712
9.92597e-05
9.68869e-05
9.47359e-05
9.24566e-05
9.15134e-05
3.6775e-05
2.84798e-05
4.55956e-05
8.22576e-05
0.000107885
0.000123475
0.000131906
0.000135767
0.000136885
0.00013633
0.000134741
0.000132515
0.000129901
0.00012706
0.0001241
0.000121091
0.000118081
0.0001151
0.000112168
0.000109299
0.000106501
0.00010378
0.000101136
9.85721e-05
9.6089e-05
9.36856e-05
9.13627e-05
8.91211e-05
8.69675e-05
8.48956e-05
8.29453e-05
8.10305e-05
7.94404e-05
2.07362e-05
2.86873e-05
2.65694e-05
1.51107e-05
3.66114e-06
1.37769e-05
2.55769e-05
3.53735e-05
4.32692e-05
4.9539e-05
5.44583e-05
5.82712e-05
6.11798e-05
6.33418e-05
6.48902e-05
6.59348e-05
6.65658e-05
6.68572e-05
6.68698e-05
6.66538e-05
6.62507e-05
6.56947e-05
6.5015e-05
6.42359e-05
6.33782e-05
6.24606e-05
6.15006e-05
6.05139e-05
5.95197e-05
5.8533e-05
5.75862e-05
5.67074e-05
5.60131e-05
1.44187e-05
1.75894e-05
2.26085e-05
2.43029e-05
2.39808e-05
2.2016e-05
1.91485e-05
1.59172e-05
1.25544e-05
9.20927e-06
5.98922e-06
2.97671e-06
6.90713e-07
2.63588e-06
4.95321e-06
7.05921e-06
8.94042e-06
1.06044e-05
1.20639e-05
1.33334e-05
1.44282e-05
1.53633e-05
1.61538e-05
1.68143e-05
1.73593e-05
1.78029e-05
1.81597e-05
1.84446e-05
1.86747e-05
1.8868e-05
1.90466e-05
1.92428e-05
1.94749e-05
1.09181e-05
1.25031e-05
1.38296e-05
1.43352e-05
1.5113e-05
1.57434e-05
1.61126e-05
1.63144e-05
1.63535e-05
1.62356e-05
1.5985e-05
1.56254e-05
1.51807e-05
1.46661e-05
1.41e-05
1.34995e-05
1.28796e-05
1.22528e-05
1.1629e-05
1.10162e-05
1.04201e-05
9.84498e-06
9.29347e-06
8.76693e-06
8.26558e-06
7.78855e-06
7.33367e-06
6.89791e-06
6.47684e-06
6.06617e-06
5.66208e-06
5.26404e-06
4.89382e-06
8.24187e-06
9.43345e-06
1.02568e-05
1.00556e-05
9.86469e-06
9.68308e-06
9.49403e-06
9.40015e-06
9.39065e-06
9.4216e-06
9.46628e-06
9.50718e-06
9.53276e-06
9.54095e-06
9.5298e-06
9.49842e-06
9.44709e-06
9.37687e-06
9.2892e-06
9.18566e-06
9.06784e-06
8.93723e-06
8.79512e-06
8.64261e-06
8.48055e-06
8.3096e-06
8.13009e-06
7.94246e-06
7.74718e-06
7.54684e-06
7.34547e-06
7.1579e-06
7.00343e-06
6.35767e-06
7.41432e-06
8.22597e-06
8.09097e-06
7.78103e-06
7.44126e-06
7.06314e-06
6.73816e-06
6.48519e-06
6.28347e-06
6.12025e-06
5.98654e-06
5.87352e-06
5.77459e-06
5.68545e-06
5.60303e-06
5.52491e-06
5.44914e-06
5.37424e-06
5.29905e-06
5.22265e-06
5.14431e-06
5.06341e-06
4.97944e-06
4.89203e-06
4.80097e-06
4.70626e-06
4.6087e-06
4.50983e-06
4.41372e-06
4.3273e-06
4.26608e-06
4.24876e-06
4.99695e-06
5.86405e-06
6.55202e-06
6.54818e-06
6.38139e-06
6.17445e-06
5.89193e-06
5.60645e-06
5.35664e-06
5.13884e-06
4.94831e-06
4.78165e-06
4.63404e-06
4.50132e-06
4.3806e-06
4.26967e-06
4.16675e-06
4.07044e-06
3.9796e-06
3.8933e-06
3.81074e-06
3.73122e-06
3.65414e-06
3.57904e-06
3.50559e-06
3.43382e-06
3.36414e-06
3.29786e-06
3.23744e-06
3.18768e-06
3.15588e-06
3.15439e-06
3.19821e-06
3.99123e-06
4.71223e-06
5.31926e-06
5.39347e-06
5.29298e-06
5.14601e-06
4.93069e-06
4.70238e-06
4.49899e-06
4.31978e-06
4.16029e-06
4.0184e-06
3.89109e-06
3.77542e-06
3.66935e-06
3.57141e-06
3.48041e-06
3.39536e-06
3.31548e-06
3.2401e-06
3.16864e-06
3.10064e-06
3.03576e-06
2.97382e-06
2.91491e-06
2.85942e-06
2.80832e-06
2.7633e-06
2.72727e-06
2.70497e-06
2.70285e-06
2.72933e-06
2.79492e-06
3.23169e-06
3.83915e-06
4.3763e-06
4.4924e-06
4.44082e-06
4.3432e-06
4.18449e-06
4.00192e-06
3.83043e-06
3.67451e-06
3.53288e-06
3.40558e-06
3.29131e-06
3.18801e-06
3.09405e-06
3.00812e-06
2.9291e-06
2.85603e-06
2.78815e-06
2.72484e-06
2.66563e-06
2.61017e-06
2.55829e-06
2.51003e-06
2.4657e-06
2.426e-06
2.39212e-06
2.36604e-06
2.35058e-06
2.34965e-06
2.36817e-06
2.41113e-06
2.48569e-06
2.64522e-06
3.16311e-06
3.64823e-06
3.79972e-06
3.79403e-06
3.73513e-06
3.6162e-06
3.46591e-06
3.31753e-06
3.17961e-06
3.05277e-06
2.93786e-06
2.83439e-06
2.74095e-06
2.65622e-06
2.57914e-06
2.50879e-06
2.44438e-06
2.38526e-06
2.33095e-06
2.28108e-06
2.23542e-06
2.19394e-06
2.15681e-06
2.12445e-06
2.09767e-06
2.07771e-06
2.06636e-06
2.06597e-06
2.07947e-06
2.11016e-06
2.16051e-06
2.23537e-06
2.18218e-06
2.63179e-06
3.07842e-06
3.25501e-06
3.28477e-06
3.25629e-06
3.17092e-06
3.0513e-06
2.92653e-06
2.80669e-06
2.69384e-06
2.58972e-06
2.49492e-06
2.40889e-06
2.33086e-06
2.26015e-06
2.19607e-06
2.13799e-06
2.08539e-06
2.03787e-06
1.99513e-06
1.95704e-06
1.92361e-06
1.89508e-06
1.87191e-06
1.85487e-06
1.84506e-06
1.84391e-06
1.85318e-06
1.87478e-06
1.9107e-06
1.96169e-06
2.03127e-06
1.80896e-06
2.20764e-06
2.62566e-06
2.82194e-06
2.88238e-06
2.88087e-06
2.82375e-06
2.72971e-06
2.62429e-06
2.51898e-06
2.41747e-06
2.32236e-06
2.23501e-06
2.15546e-06
2.08332e-06
2.01813e-06
1.95937e-06
1.90656e-06
1.85927e-06
1.81719e-06
1.7801e-06
1.74791e-06
1.72069e-06
1.69867e-06
1.68229e-06
1.67219e-06
1.66921e-06
1.67438e-06
1.68886e-06
1.71374e-06
1.75005e-06
1.79756e-06
1.85898e-06
1.50211e-06
1.86439e-06
2.26196e-06
2.4743e-06
2.56032e-06
2.58129e-06
2.54718e-06
2.47475e-06
2.38664e-06
2.29482e-06
2.204e-06
2.11733e-06
2.03665e-06
1.96255e-06
1.89505e-06
1.83396e-06
1.77902e-06
1.7299e-06
1.68629e-06
1.64797e-06
1.61478e-06
1.58667e-06
1.5637e-06
1.54606e-06
1.53408e-06
1.52823e-06
1.52908e-06
1.53727e-06
1.55344e-06
1.5781e-06
1.61163e-06
1.65327e-06
1.70524e-06
1.24496e-06
1.58329e-06
1.967e-06
2.19284e-06
2.30063e-06
2.34138e-06
2.32721e-06
2.27364e-06
2.20076e-06
2.12056e-06
2.03866e-06
1.95877e-06
1.88329e-06
1.8133e-06
1.7492e-06
1.69107e-06
1.63881e-06
1.59225e-06
1.55117e-06
1.51539e-06
1.4848e-06
1.45934e-06
1.43904e-06
1.42402e-06
1.41449e-06
1.41073e-06
1.41304e-06
1.42176e-06
1.43713e-06
1.45926e-06
1.48812e-06
1.52272e-06
1.56497e-06
1.02551e-06
1.35092e-06
1.72642e-06
1.96401e-06
2.09049e-06
2.14853e-06
2.15139e-06
2.11387e-06
2.05412e-06
1.98404e-06
1.90992e-06
1.83594e-06
1.76487e-06
1.6982e-06
1.63663e-06
1.58048e-06
1.52983e-06
1.48463e-06
1.44477e-06
1.41015e-06
1.38066e-06
1.35625e-06
1.33693e-06
1.32272e-06
1.31372e-06
1.31003e-06
1.31176e-06
1.31898e-06
1.33167e-06
1.3497e-06
1.37278e-06
1.39989e-06
1.43268e-06
8.35075e-07
1.15787e-06
1.52999e-06
1.77802e-06
1.92058e-06
1.99387e-06
2.01159e-06
1.98805e-06
1.93987e-06
1.87865e-06
1.81117e-06
1.74198e-06
1.67422e-06
1.60974e-06
1.54956e-06
1.49423e-06
1.44402e-06
1.39901e-06
1.35918e-06
1.32447e-06
1.29481e-06
1.27012e-06
1.25037e-06
1.23552e-06
1.22554e-06
1.2204e-06
1.22006e-06
1.2244e-06
1.23323e-06
1.24626e-06
1.26311e-06
1.28277e-06
1.30673e-06
6.67556e-07
9.9789e-07
1.37066e-06
1.628e-06
1.78441e-06
1.87113e-06
1.9018e-06
1.89031e-06
1.85208e-06
1.79841e-06
1.7364e-06
1.67097e-06
1.60556e-06
1.54234e-06
1.48258e-06
1.42708e-06
1.37625e-06
1.33029e-06
1.28928e-06
1.2532e-06
1.22202e-06
1.19566e-06
1.17405e-06
1.1571e-06
1.1447e-06
1.13674e-06
1.13305e-06
1.13342e-06
1.13756e-06
1.1451e-06
1.15561e-06
1.16815e-06
1.18405e-06
5.1942e-07
8.67559e-07
1.2438e-06
1.50929e-06
1.6775e-06
1.77593e-06
1.81788e-06
1.8168e-06
1.78716e-06
1.73992e-06
1.68243e-06
1.61987e-06
1.55594e-06
1.49308e-06
1.43284e-06
1.3762e-06
1.32373e-06
1.27577e-06
1.23247e-06
1.19388e-06
1.15999e-06
1.13075e-06
1.10605e-06
1.08578e-06
1.06979e-06
1.0579e-06
1.04988e-06
1.04548e-06
1.04434e-06
1.04609e-06
1.05029e-06
1.05612e-06
1.06476e-06
3.90861e-07
7.66118e-07
1.14677e-06
1.41891e-06
1.59694e-06
1.70544e-06
1.7571e-06
1.76488e-06
1.74246e-06
1.70046e-06
1.64634e-06
1.58555e-06
1.522e-06
1.45841e-06
1.39654e-06
1.33757e-06
1.28224e-06
1.23101e-06
1.18412e-06
1.14171e-06
1.10379e-06
1.07034e-06
1.04128e-06
1.01648e-06
9.95786e-07
9.79004e-07
9.65889e-07
9.56162e-07
9.49478e-07
9.45466e-07
9.43708e-07
9.43473e-07
9.4577e-07
2.9014e-07
6.95282e-07
1.0785e-06
1.35528e-06
1.54112e-06
1.65808e-06
1.71803e-06
1.73335e-06
1.71701e-06
1.67936e-06
1.62791e-06
1.56826e-06
1.50455e-06
1.43969e-06
1.37563e-06
1.31373e-06
1.25487e-06
1.19961e-06
1.14829e-06
1.10109e-06
1.05812e-06
1.01936e-06
9.84789e-07
9.543e-07
9.27761e-07
9.05001e-07
8.85804e-07
8.6992e-07
8.57044e-07
8.46856e-07
8.38985e-07
8.3284e-07
8.293e-07
2.42279e-07
6.58468e-07
1.0391e-06
1.31789e-06
1.5094e-06
1.63314e-06
1.69982e-06
1.72113e-06
1.70942e-06
1.67469e-06
1.62447e-06
1.56454e-06
1.4992e-06
1.43158e-06
1.36384e-06
1.29753e-06
1.23365e-06
1.17291e-06
1.11574e-06
1.0624e-06
1.01305e-06
9.67748e-07
9.26502e-07
8.89269e-07
8.55968e-07
8.26483e-07
8.0066e-07
7.78316e-07
7.59208e-07
7.43088e-07
7.29624e-07
7.18317e-07
7.09884e-07
2.74271e-07
6.59016e-07
1.02944e-06
1.30717e-06
1.50229e-06
1.63136e-06
1.70372e-06
1.73026e-06
1.72272e-06
1.69078e-06
1.64191e-06
1.58195e-06
1.51531e-06
1.44526e-06
1.3741e-06
1.3035e-06
1.23459e-06
1.16815e-06
1.10472e-06
1.04463e-06
9.88088e-07
9.35228e-07
8.86118e-07
8.40783e-07
7.99223e-07
7.61413e-07
7.27303e-07
6.96829e-07
6.69871e-07
6.46325e-07
6.25973e-07
6.08537e-07
5.94603e-07
3.69802e-07
6.98157e-07
1.05077e-06
1.32415e-06
1.52055e-06
1.65294e-06
1.7289e-06
1.75838e-06
1.75254e-06
1.72082e-06
1.67068e-06
1.60811e-06
1.53771e-06
1.46292e-06
1.38626e-06
1.3095e-06
1.23393e-06
1.1604e-06
1.0895e-06
1.02163e-06
9.57034e-07
8.95874e-07
8.3826e-07
7.84271e-07
7.33972e-07
6.87428e-07
6.44704e-07
6.05873e-07
5.70975e-07
5.40078e-07
5.13112e-07
4.89985e-07
4.71219e-07
5.00821e-07
7.74498e-07
1.10438e-06
1.3709e-06
1.56728e-06
1.70272e-06
1.78285e-06
1.81656e-06
1.8143e-06
1.78504e-06
1.73605e-06
1.67323e-06
1.60121e-06
1.52353e-06
1.44281e-06
1.361e-06
1.27948e-06
1.19924e-06
1.12096e-06
1.04512e-06
9.72013e-07
9.01856e-07
8.34789e-07
7.70914e-07
7.10326e-07
6.53126e-07
5.99433e-07
5.49412e-07
5.03236e-07
4.61194e-07
4.23453e-07
3.90456e-07
3.62633e-07
6.56565e-07
8.865e-07
1.19236e-06
1.44963e-06
1.64298e-06
1.7776e-06
1.85703e-06
1.88924e-06
1.88447e-06
1.85171e-06
1.79835e-06
1.73047e-06
1.65289e-06
1.56924e-06
1.48226e-06
1.39392e-06
1.30565e-06
1.21844e-06
1.13299e-06
1.04974e-06
9.69e-07
8.90959e-07
8.15737e-07
7.43415e-07
6.74057e-07
6.07734e-07
5.44534e-07
4.84595e-07
4.28076e-07
3.75286e-07
3.26455e-07
2.82308e-07
2.43418e-07
8.35918e-07
1.03251e-06
1.31625e-06
1.56518e-06
1.75836e-06
1.89753e-06
1.98353e-06
2.02252e-06
2.02355e-06
1.9949e-06
1.94358e-06
1.87563e-06
1.79604e-06
1.70871e-06
1.61668e-06
1.52222e-06
1.42704e-06
1.33235e-06
1.23903e-06
1.14766e-06
1.05865e-06
9.7224e-07
8.88593e-07
8.07796e-07
7.29899e-07
6.54937e-07
5.8293e-07
5.13918e-07
4.47913e-07
3.85046e-07
3.25192e-07
2.69033e-07
2.15174e-07
1.04427e-06
1.2183e-06
1.48352e-06
1.72043e-06
1.904e-06
2.03391e-06
2.11025e-06
2.13966e-06
2.13195e-06
2.09575e-06
2.03809e-06
1.96483e-06
1.8807e-06
1.78934e-06
1.69354e-06
1.59542e-06
1.49655e-06
1.39811e-06
1.30096e-06
1.2057e-06
1.11279e-06
1.02252e-06
9.35137e-07
8.50787e-07
7.69602e-07
6.91696e-07
6.17181e-07
5.46196e-07
4.78879e-07
4.15488e-07
3.56142e-07
3.0173e-07
2.51362e-07
1.286e-06
1.44045e-06
1.69293e-06
1.93063e-06
2.12675e-06
2.27556e-06
2.37086e-06
2.41542e-06
2.41757e-06
2.38578e-06
2.32769e-06
2.25019e-06
2.15906e-06
2.05891e-06
1.9533e-06
1.84495e-06
1.73584e-06
1.62743e-06
1.52078e-06
1.4166e-06
1.31542e-06
1.2176e-06
1.12339e-06
1.03299e-06
9.46573e-07
8.64291e-07
7.86314e-07
7.12845e-07
6.44087e-07
5.80377e-07
5.21815e-07
4.69398e-07
4.21247e-07
1.58183e-06
1.7336e-06
1.97381e-06
2.18511e-06
2.34683e-06
2.46178e-06
2.52934e-06
2.55508e-06
2.54739e-06
2.51283e-06
2.45662e-06
2.3835e-06
2.29768e-06
2.20272e-06
2.10158e-06
1.99673e-06
1.89018e-06
1.78353e-06
1.67803e-06
1.57464e-06
1.47411e-06
1.37699e-06
1.2837e-06
1.1946e-06
1.10993e-06
1.02996e-06
9.54872e-07
8.84893e-07
8.20206e-07
7.61039e-07
7.07438e-07
6.59988e-07
6.17153e-07
1.92389e-06
2.0529e-06
2.3065e-06
2.57009e-06
2.80112e-06
2.97739e-06
3.08414e-06
3.12594e-06
3.11637e-06
3.06799e-06
2.99118e-06
2.89461e-06
2.78508e-06
2.66761e-06
2.5458e-06
2.42229e-06
2.29896e-06
2.17718e-06
2.05792e-06
1.94191e-06
1.82969e-06
1.72164e-06
1.61808e-06
1.51923e-06
1.42529e-06
1.33639e-06
1.25268e-06
1.17425e-06
1.1012e-06
1.03365e-06
9.71462e-07
9.15251e-07
8.62694e-07
2.40675e-06
2.5683e-06
2.76838e-06
2.908e-06
3.01731e-06
3.11712e-06
3.19672e-06
3.24795e-06
3.26884e-06
3.25875e-06
3.21921e-06
3.15427e-06
3.06894e-06
2.96812e-06
2.8563e-06
2.73733e-06
2.61441e-06
2.49005e-06
2.3662e-06
2.24434e-06
2.12556e-06
2.01065e-06
1.90016e-06
1.79447e-06
1.69382e-06
1.59837e-06
1.50818e-06
1.42332e-06
1.34378e-06
1.26961e-06
1.20072e-06
1.13763e-06
1.07851e-06
2.88505e-06
3.00139e-06
3.39337e-06
3.80485e-06
4.11415e-06
4.2995e-06
4.37004e-06
4.3568e-06
4.28969e-06
4.18702e-06
4.06009e-06
3.91699e-06
3.76339e-06
3.60326e-06
3.43971e-06
3.27534e-06
3.11235e-06
2.95256e-06
2.79746e-06
2.64819e-06
2.50564e-06
2.37037e-06
2.24275e-06
2.12292e-06
2.01089e-06
1.90651e-06
1.80954e-06
1.71971e-06
1.63667e-06
1.56021e-06
1.4899e-06
1.42642e-06
1.36709e-06
3.92676e-06
4.03736e-06
3.95344e-06
3.878e-06
3.97883e-06
4.18663e-06
4.37808e-06
4.503e-06
4.55778e-06
4.55228e-06
4.50322e-06
4.42893e-06
4.34429e-06
4.25954e-06
4.18094e-06
4.11159e-06
4.05232e-06
4.00256e-06
3.96101e-06
3.92611e-06
3.89632e-06
3.87026e-06
3.84675e-06
3.82481e-06
3.80364e-06
3.78259e-06
3.76109e-06
3.73868e-06
3.71504e-06
3.69001e-06
3.6636e-06
3.63733e-06
3.60938e-06
4.38806e-06
4.96145e-06
5.93651e-06
6.4154e-06
6.52346e-06
6.48998e-06
6.47085e-06
6.57266e-06
6.82603e-06
7.19897e-06
7.64089e-06
8.10628e-06
8.56037e-06
8.97981e-06
9.35116e-06
9.66819e-06
9.92945e-06
1.01366e-05
1.02931e-05
1.04033e-05
1.0472e-05
1.05041e-05
1.0504e-05
1.04759e-05
1.04235e-05
1.03501e-05
1.02583e-05
1.01502e-05
1.00276e-05
9.89174e-06
9.74433e-06
9.58753e-06
9.42265e-06
7.58094e-06
5.84374e-06
4.62645e-06
6.20317e-06
8.93093e-06
1.16415e-05
1.39746e-05
1.58684e-05
1.73208e-05
1.83457e-05
1.89795e-05
1.92696e-05
1.92659e-05
1.90176e-05
1.85721e-05
1.79722e-05
1.72559e-05
1.64557e-05
1.55991e-05
1.47083e-05
1.38015e-05
1.28928e-05
1.19932e-05
1.11108e-05
1.02515e-05
9.41905e-06
8.61576e-06
7.84201e-06
7.09754e-06
6.37869e-06
5.68602e-06
5.0072e-06
4.35568e-06
8.58889e-06
1.47172e-05
1.88087e-05
2.12004e-05
2.22746e-05
2.17829e-05
1.99019e-05
1.70874e-05
1.38168e-05
1.07373e-05
8.90996e-06
9.42119e-06
1.19226e-05
1.52923e-05
1.88634e-05
2.23452e-05
2.56109e-05
2.86059e-05
3.13109e-05
3.37254e-05
3.58595e-05
3.77288e-05
3.93516e-05
4.07476e-05
4.19362e-05
4.29364e-05
4.37667e-05
4.44448e-05
4.49883e-05
4.54189e-05
4.57527e-05
4.60489e-05
4.6297e-05
3.46668e-05
3.72435e-05
4.66988e-05
6.18533e-05
7.75951e-05
9.30328e-05
0.000107463
0.000120175
0.000130982
0.000139926
0.000147119
0.000152723
0.000156925
0.000159912
0.000161858
0.000162924
0.000163251
0.000162963
0.000162168
0.000160956
0.000159406
0.000157582
0.000155541
0.000153327
0.000150978
0.000148525
0.000145994
0.000143402
0.000140767
0.000138094
0.000135386
0.000132731
0.000130144
0.000608463
0.000582508
0.000556855
0.000530344
0.000504275
0.000478971
0.000454471
0.000431049
0.000408887
0.000388043
0.000368536
0.00035035
0.000333439
0.000317735
0.000303161
0.000289632
0.000277065
0.000265377
0.000254488
0.000244326
0.000234821
0.000225913
0.000217543
0.000209663
0.000202226
0.000195191
0.000188521
0.00018218
0.000176129
0.000170347
0.000164704
0.000159735
0.000155209
8.54971e-05
7.5324e-05
6.64023e-05
6.17256e-05
6.09502e-05
6.26181e-05
6.48977e-05
6.69171e-05
6.87408e-05
7.09834e-05
7.29443e-05
7.31081e-05
7.13747e-05
6.99908e-05
7.08936e-05
7.358e-05
7.67692e-05
8.30203e-05
9.33631e-05
8.30311e-05
5.86993e-05
5.36669e-05
5.20625e-05
4.61778e-05
3.86214e-05
3.08615e-05
2.32828e-05
1.62029e-05
1.089e-05
1.06049e-05
1.43221e-05
2.0667e-05
2.49359e-05
1.76392e-05
8.45684e-06
1.21624e-05
1.8896e-05
3.2044e-05
3.68668e-05
3.35919e-05
2.83069e-05
2.41226e-05
2.1297e-05
1.94388e-05
1.82493e-05
1.76411e-05
1.75552e-05
1.77757e-05
1.93788e-05
2.396e-05
3.26224e-05
4.98101e-05
6.3753e-05
6.30221e-05
5.13472e-05
3.737e-05
2.60939e-05
1.79992e-05
1.17594e-05
6.36806e-06
1.49916e-06
1.32891e-05
3.05425e-05
4.45251e-05
4.84377e-05
4.35899e-05
3.57847e-05
2.90428e-05
2.41345e-05
2.04877e-05
1.75774e-05
1.5139e-05
1.30543e-05
1.12719e-05
9.77082e-06
8.54785e-06
7.61486e-06
6.98009e-06
6.64959e-06
6.64839e-06
7.02402e-06
7.96766e-06
1.02201e-05
1.5611e-05
2.59186e-05
3.89645e-05
4.84783e-05
4.98351e-05
4.31948e-05
3.11391e-05
1.62358e-05
7.35539e-06
2.28194e-05
3.8319e-05
4.78312e-05
4.94829e-05
4.45241e-05
3.50286e-05
2.86443e-05
1.62166e-05
0.000117796
0.000110862
0.00010149
9.44981e-05
9.03952e-05
8.86637e-05
8.81582e-05
8.77321e-05
8.67089e-05
8.40909e-05
7.86573e-05
7.00469e-05
6.05576e-05
5.46422e-05
5.38263e-05
5.55317e-05
5.8178e-05
6.23983e-05
7.31981e-05
8.35253e-05
6.92657e-05
5.00391e-05
4.83103e-05
4.65089e-05
4.05451e-05
3.32848e-05
2.62444e-05
2.01801e-05
1.64029e-05
1.59328e-05
1.86459e-05
2.4299e-05
2.39739e-05
1.10426e-05
1.11564e-05
1.2801e-05
2.27318e-05
3.51368e-05
3.71644e-05
3.27477e-05
2.76783e-05
2.39213e-05
2.1369e-05
1.96569e-05
1.85507e-05
1.79869e-05
1.79708e-05
1.82522e-05
1.95774e-05
2.40212e-05
3.1945e-05
4.80628e-05
6.41894e-05
6.61971e-05
5.57369e-05
4.15278e-05
2.92636e-05
2.00286e-05
1.28363e-05
6.6916e-06
2.81293e-06
1.64137e-05
3.44294e-05
4.72933e-05
4.92848e-05
4.32221e-05
3.52397e-05
2.87774e-05
2.41274e-05
2.06272e-05
1.77945e-05
1.53962e-05
1.33265e-05
1.15395e-05
1.00194e-05
8.76726e-06
7.80144e-06
7.14606e-06
6.81364e-06
6.81593e-06
7.17996e-06
8.06577e-06
1.01701e-05
1.52739e-05
2.53606e-05
3.87332e-05
4.92249e-05
5.17187e-05
4.58674e-05
3.42824e-05
2.03799e-05
1.36002e-05
2.57156e-05
4.01738e-05
4.90693e-05
5.01678e-05
4.47905e-05
3.51091e-05
2.86912e-05
1.66357e-05
0.000104589
0.000105487
0.000104092
0.000101879
9.96567e-05
9.75739e-05
9.50187e-05
9.10459e-05
8.48428e-05
7.56405e-05
6.31289e-05
4.8845e-05
3.78015e-05
3.49414e-05
3.68763e-05
3.83566e-05
3.93826e-05
4.20882e-05
4.95556e-05
6.45426e-05
7.13124e-05
5.60957e-05
4.23982e-05
4.26072e-05
4.14685e-05
3.64656e-05
3.03585e-05
2.50147e-05
2.16658e-05
2.08842e-05
2.36107e-05
2.63565e-05
1.78521e-05
7.26824e-06
1.44128e-05
1.35251e-05
2.81232e-05
3.76966e-05
3.67533e-05
3.16559e-05
2.70092e-05
2.36988e-05
2.1406e-05
1.98275e-05
1.87997e-05
1.82775e-05
1.83101e-05
1.86883e-05
1.97824e-05
2.38048e-05
3.11686e-05
4.57353e-05
6.36042e-05
6.89474e-05
6.0395e-05
4.6361e-05
3.32893e-05
2.29841e-05
1.4952e-05
8.61971e-06
7.28204e-06
2.11769e-05
3.91475e-05
5.01139e-05
4.98013e-05
4.25553e-05
3.45495e-05
2.84561e-05
2.41005e-05
2.07672e-05
1.80251e-05
1.56732e-05
1.36193e-05
1.18255e-05
1.02827e-05
8.99781e-06
7.99167e-06
7.29345e-06
6.93332e-06
6.93497e-06
7.30871e-06
8.16079e-06
1.01151e-05
1.48851e-05
2.464e-05
3.82477e-05
4.97778e-05
5.36522e-05
4.89552e-05
3.82614e-05
2.57048e-05
2.00307e-05
2.94714e-05
4.24537e-05
5.04363e-05
5.07944e-05
4.49102e-05
3.50382e-05
2.86234e-05
1.69492e-05
7.42449e-05
7.53901e-05
7.55357e-05
7.52429e-05
7.44233e-05
7.25491e-05
6.89242e-05
6.28985e-05
5.39114e-05
4.18978e-05
2.81517e-05
1.80954e-05
1.99903e-05
2.60552e-05
2.86463e-05
2.77905e-05
2.61717e-05
2.65396e-05
3.07799e-05
4.08007e-05
5.5712e-05
5.94715e-05
4.59527e-05
3.51814e-05
3.59283e-05
3.64181e-05
3.37562e-05
3.01067e-05
2.71875e-05
2.62255e-05
2.69029e-05
2.14313e-05
5.55658e-06
1.51453e-05
1.374e-05
1.81957e-05
3.40442e-05
3.89694e-05
3.552e-05
3.03844e-05
2.6339e-05
2.34601e-05
2.13981e-05
1.99434e-05
1.89955e-05
1.85211e-05
1.85886e-05
1.90721e-05
2.00544e-05
2.355e-05
3.04308e-05
4.3102e-05
6.18876e-05
7.10392e-05
6.52689e-05
5.19835e-05
3.8362e-05
2.71018e-05
1.8419e-05
1.24336e-05
1.34105e-05
2.77169e-05
4.45583e-05
5.26431e-05
4.97132e-05
4.14865e-05
3.37056e-05
2.80845e-05
2.40519e-05
2.09012e-05
1.82623e-05
1.59647e-05
1.39298e-05
1.2129e-05
1.05609e-05
9.23953e-06
8.19178e-06
7.4479e-06
7.04373e-06
7.02207e-06
7.40146e-06
8.24008e-06
1.0061e-05
1.44713e-05
2.37867e-05
3.75134e-05
5.01083e-05
5.55794e-05
5.23663e-05
4.28963e-05
3.17614e-05
2.68557e-05
3.40712e-05
4.51311e-05
5.18238e-05
5.12331e-05
4.47954e-05
3.47961e-05
2.84988e-05
1.72318e-05
2.65426e-05
2.75568e-05
2.78353e-05
2.75189e-05
2.6525e-05
2.44763e-05
2.09317e-05
1.54749e-05
8.03666e-06
2.93897e-06
1.19219e-05
2.04708e-05
2.58481e-05
2.73026e-05
2.5747e-05
2.29419e-05
2.06237e-05
2.00019e-05
2.22259e-05
2.72447e-05
3.50749e-05
4.65698e-05
4.91367e-05
3.86356e-05
2.801e-05
2.66388e-05
2.81761e-05
2.81824e-05
2.69126e-05
2.46216e-05
1.86151e-05
3.99212e-06
1.50705e-05
1.85532e-05
1.10088e-05
2.72392e-05
3.85075e-05
3.84783e-05
3.37047e-05
2.91034e-05
2.56958e-05
2.31913e-05
2.13306e-05
1.99936e-05
1.91253e-05
1.87018e-05
1.87905e-05
1.93601e-05
2.03141e-05
2.32389e-05
2.96407e-05
4.0415e-05
5.88723e-05
7.18979e-05
6.99143e-05
5.82366e-05
4.45526e-05
3.26309e-05
2.36086e-05
1.83527e-05
2.13616e-05
3.56957e-05
5.01201e-05
5.44421e-05
4.88754e-05
4.00475e-05
3.27441e-05
2.76651e-05
2.39725e-05
2.10191e-05
1.84961e-05
1.626e-05
1.42464e-05
1.24373e-05
1.08408e-05
9.47805e-06
8.38205e-06
7.5883e-06
7.13627e-06
7.08007e-06
7.45557e-06
8.29128e-06
9.99969e-06
1.40403e-05
2.28003e-05
3.64618e-05
5.00551e-05
5.7275e-05
5.58508e-05
4.79228e-05
3.82782e-05
3.38958e-05
3.91009e-05
4.79781e-05
5.30925e-05
5.13926e-05
4.44019e-05
3.43762e-05
2.83237e-05
1.7456e-05
6.20275e-06
6.64116e-06
7.53575e-06
8.55263e-06
9.67098e-06
1.10738e-05
1.2969e-05
1.54715e-05
1.84858e-05
2.16033e-05
2.41201e-05
2.53317e-05
2.49635e-05
2.34435e-05
2.16491e-05
2.02893e-05
1.96183e-05
1.9734e-05
2.07452e-05
2.40527e-05
2.77885e-05
3.07e-05
3.73041e-05
4.00988e-05
3.39099e-05
2.37998e-05
1.6246e-05
1.26474e-05
1.01097e-05
5.18151e-06
6.03767e-06
1.88588e-05
2.22194e-05
1.07773e-05
2.02906e-05
3.59785e-05
3.99461e-05
3.64745e-05
3.17e-05
2.79162e-05
2.50772e-05
2.28826e-05
2.12007e-05
1.99779e-05
1.9188e-05
1.88172e-05
1.89195e-05
1.95445e-05
2.05393e-05
2.29404e-05
2.87194e-05
3.7918e-05
5.46669e-05
7.09337e-05
7.36861e-05
6.48024e-05
5.18747e-05
3.98157e-05
3.08206e-05
2.65127e-05
3.1191e-05
4.46015e-05
5.51625e-05
5.50907e-05
4.7209e-05
3.82939e-05
3.1701e-05
2.72083e-05
2.38673e-05
2.1125e-05
1.87296e-05
1.65618e-05
1.45716e-05
1.27534e-05
1.1125e-05
9.7152e-06
8.56289e-06
7.70999e-06
7.20305e-06
7.10512e-06
7.46946e-06
8.30878e-06
9.92633e-06
1.36044e-05
2.17055e-05
3.50672e-05
4.94943e-05
5.85375e-05
5.91752e-05
5.30796e-05
4.49569e-05
4.09153e-05
4.4274e-05
5.08254e-05
5.41114e-05
5.11718e-05
4.36872e-05
3.379e-05
2.81394e-05
1.7641e-05
9.33452e-06
1.00337e-05
1.11e-05
1.22538e-05
1.33901e-05
1.45259e-05
1.57072e-05
1.69291e-05
1.80931e-05
1.902e-05
1.95392e-05
1.95887e-05
1.92953e-05
1.89036e-05
1.86325e-05
1.86007e-05
1.8827e-05
1.94641e-05
2.05228e-05
2.22969e-05
2.63435e-05
2.89619e-05
2.76127e-05
2.83907e-05
3.08673e-05
2.98686e-05
2.56488e-05
2.11622e-05
1.93511e-05
2.13356e-05
2.48833e-05
2.2749e-05
1.02202e-05
1.64644e-05
3.35006e-05
4.01362e-05
3.82602e-05
3.37593e-05
2.98514e-05
2.68613e-05
2.44655e-05
2.25236e-05
2.10061e-05
1.98958e-05
1.91823e-05
1.88638e-05
1.89777e-05
1.96211e-05
2.06884e-05
2.26981e-05
2.76613e-05
3.56951e-05
4.97399e-05
6.77258e-05
7.57169e-05
7.10159e-05
6.00353e-05
4.86325e-05
4.01002e-05
3.68767e-05
4.24586e-05
5.33856e-05
5.87341e-05
5.41999e-05
4.47549e-05
3.6338e-05
3.06213e-05
2.67239e-05
2.37386e-05
2.12202e-05
1.8964e-05
1.68709e-05
1.49067e-05
1.30786e-05
1.14147e-05
9.95248e-06
8.73625e-06
7.81346e-06
7.24005e-06
7.09114e-06
7.43843e-06
8.288e-06
9.8376e-06
1.31746e-05
2.05427e-05
3.33446e-05
4.83403e-05
5.91687e-05
6.20594e-05
5.80228e-05
5.14398e-05
4.76116e-05
4.92253e-05
5.33903e-05
5.46726e-05
5.04449e-05
4.26286e-05
3.30798e-05
2.79952e-05
1.78012e-05
5.81615e-06
6.45345e-06
7.35839e-06
8.36298e-06
9.35866e-06
1.03395e-05
1.13304e-05
1.23334e-05
1.33121e-05
1.42042e-05
1.49505e-05
1.5514e-05
1.58848e-05
1.60925e-05
1.62251e-05
1.64264e-05
1.68379e-05
1.759e-05
1.88729e-05
2.05416e-05
2.3245e-05
2.7875e-05
3.0294e-05
2.73662e-05
2.25965e-05
2.06217e-05
2.08671e-05
2.12764e-05
2.13011e-05
1.95533e-05
1.33997e-05
3.26671e-06
1.85446e-05
3.34593e-05
3.99834e-05
3.89395e-05
3.49305e-05
3.11969e-05
2.82999e-05
2.58971e-05
2.38303e-05
2.2108e-05
2.07481e-05
1.97481e-05
1.9108e-05
1.88384e-05
1.89654e-05
1.95946e-05
2.0722e-05
2.25092e-05
2.65677e-05
3.36428e-05
4.47943e-05
6.22534e-05
7.49873e-05
7.56932e-05
6.81487e-05
5.84895e-05
5.09757e-05
4.87849e-05
5.39152e-05
6.05196e-05
5.98988e-05
5.16385e-05
4.17173e-05
3.43115e-05
2.95357e-05
2.62144e-05
2.35872e-05
2.13062e-05
1.92007e-05
1.71894e-05
1.5254e-05
1.34152e-05
1.1712e-05
1.01907e-05
8.90177e-06
7.89839e-06
7.24652e-06
7.03578e-06
7.35924e-06
8.22573e-06
9.73298e-06
1.27615e-05
1.93596e-05
3.13379e-05
4.65324e-05
5.89585e-05
6.417e-05
6.23472e-05
5.73171e-05
5.36127e-05
5.3581e-05
5.53642e-05
5.45414e-05
4.90906e-05
4.12365e-05
3.23121e-05
2.79347e-05
1.7949e-05
4.46709e-06
5.02996e-06
5.78252e-06
6.61472e-06
7.45873e-06
8.30942e-06
9.1806e-06
1.00734e-05
1.09653e-05
1.18106e-05
1.25505e-05
1.31328e-05
1.35386e-05
1.38026e-05
1.40155e-05
1.43037e-05
1.48004e-05
1.56079e-05
1.68318e-05
1.85198e-05
2.05565e-05
2.38039e-05
2.85426e-05
3.15867e-05
3.03003e-05
2.55043e-05
1.97128e-05
1.47042e-05
1.10071e-05
1.0576e-05
1.6996e-05
2.74225e-05
3.63319e-05
3.99756e-05
3.85471e-05
3.49842e-05
3.17009e-05
2.91581e-05
2.69723e-05
2.49567e-05
2.31563e-05
2.16387e-05
2.04301e-05
1.95364e-05
1.89665e-05
1.87402e-05
1.88812e-05
1.94774e-05
2.06179e-05
2.23172e-05
2.55747e-05
3.16359e-05
4.04426e-05
5.5207e-05
7.07487e-05
7.72454e-05
7.45589e-05
6.7892e-05
6.20193e-05
6.04748e-05
6.33862e-05
6.42507e-05
5.80681e-05
4.76552e-05
3.84237e-05
3.23333e-05
2.84592e-05
2.56792e-05
2.34143e-05
2.13855e-05
1.94425e-05
1.75206e-05
1.56172e-05
1.37668e-05
1.20197e-05
1.04322e-05
9.06111e-06
7.96529e-06
7.22154e-06
6.93697e-06
7.22923e-06
8.11942e-06
9.61433e-06
1.23773e-05
1.82101e-05
2.9132e-05
4.40697e-05
5.77344e-05
6.51735e-05
6.56216e-05
6.21325e-05
5.85011e-05
5.69388e-05
5.63787e-05
5.34449e-05
4.70165e-05
3.95832e-05
3.15849e-05
2.79944e-05
1.80973e-05
3.92792e-06
4.41106e-06
5.03433e-06
5.72869e-06
6.44414e-06
7.16886e-06
7.90618e-06
8.65216e-06
9.38712e-06
1.00771e-05
1.06834e-05
1.11769e-05
1.15527e-05
1.18418e-05
1.2117e-05
1.24788e-05
1.30292e-05
1.38631e-05
1.5026e-05
1.65601e-05
1.83992e-05
2.05603e-05
2.37815e-05
2.81383e-05
3.183e-05
3.32865e-05
3.27067e-05
3.15701e-05
3.14635e-05
3.31692e-05
3.62408e-05
3.8778e-05
3.89981e-05
3.68587e-05
3.38426e-05
3.12665e-05
2.92914e-05
2.75126e-05
2.57282e-05
2.4002e-05
2.24457e-05
2.11217e-05
2.00561e-05
1.92634e-05
1.87596e-05
1.85701e-05
1.87223e-05
1.92801e-05
2.03774e-05
2.20436e-05
2.47421e-05
2.97025e-05
3.68552e-05
4.7961e-05
6.32113e-05
7.42583e-05
7.70389e-05
7.43603e-05
7.06172e-05
6.90198e-05
6.82361e-05
6.33233e-05
5.34445e-05
4.29057e-05
3.52242e-05
3.04676e-05
2.73847e-05
2.51137e-05
2.32218e-05
2.14613e-05
1.96936e-05
1.7869e-05
1.60007e-05
1.41373e-05
1.23412e-05
1.0679e-05
9.21487e-06
8.01368e-06
7.16393e-06
6.79312e-06
7.04677e-06
7.96683e-06
9.48367e-06
1.20358e-05
1.7148e-05
2.68502e-05
4.1037e-05
5.541e-05
6.47855e-05
6.7425e-05
6.54154e-05
6.18454e-05
5.88795e-05
5.60251e-05
5.11193e-05
4.42186e-05
3.78236e-05
3.1007e-05
2.8188e-05
1.82601e-05
3.50382e-06
3.92031e-06
4.44063e-06
5.01908e-06
5.61905e-06
6.22701e-06
6.84017e-06
7.45256e-06
8.04952e-06
8.60847e-06
9.10438e-06
9.5195e-06
9.8558e-06
1.01451e-05
1.04505e-05
1.08541e-05
1.14335e-05
1.22611e-05
1.33798e-05
1.47902e-05
1.64787e-05
1.83343e-05
2.04137e-05
2.31664e-05
2.6646e-05
3.00803e-05
3.26732e-05
3.44005e-05
3.56014e-05
3.64025e-05
3.64986e-05
3.55431e-05
3.37045e-05
3.16765e-05
3.00197e-05
2.87096e-05
2.74253e-05
2.60018e-05
2.44974e-05
2.30365e-05
2.17085e-05
2.05633e-05
1.96306e-05
1.89324e-05
1.84898e-05
1.83308e-05
1.84876e-05
1.90085e-05
2.00232e-05
2.16327e-05
2.40058e-05
2.79795e-05
3.3848e-05
4.18443e-05
5.40164e-05
6.65822e-05
7.37704e-05
7.51646e-05
7.36087e-05
7.12956e-05
6.66747e-05
5.79102e-05
4.71769e-05
3.82162e-05
3.2344e-05
2.87062e-05
2.6292e-05
2.45162e-05
2.30139e-05
2.15391e-05
1.99599e-05
1.82408e-05
1.64106e-05
1.45322e-05
1.26809e-05
1.09348e-05
9.36551e-06
8.04421e-06
7.07217e-06
6.60133e-06
6.80962e-06
7.76541e-06
9.34072e-06
1.17497e-05
1.62203e-05
2.46368e-05
3.76108e-05
5.20248e-05
6.283e-05
6.74064e-05
6.67393e-05
6.32457e-05
5.89657e-05
5.38709e-05
4.7384e-05
4.08576e-05
3.61909e-05
3.06671e-05
2.85086e-05
1.84602e-05
3.15124e-06
3.50741e-06
3.94033e-06
4.4196e-06
4.91889e-06
5.42516e-06
5.9326e-06
6.43419e-06
6.9179e-06
7.36763e-06
7.76775e-06
8.1106e-06
8.40478e-06
8.68105e-06
8.99295e-06
9.40812e-06
9.99067e-06
1.07946e-05
1.18515e-05
1.31583e-05
1.46958e-05
1.64153e-05
1.82068e-05
2.0079e-05
2.22079e-05
2.45975e-05
2.69268e-05
2.88056e-05
3.005e-05
3.058e-05
3.04188e-05
2.97748e-05
2.89741e-05