/*--------------------------------*- C++ -*----------------------------------*\
| =========                 |                                                 |
| \\      /  F ield         | OpenFOAM: The Open Source CFD Toolbox           |
|  \\    /   O peration     | Version:  2.1.1                                 |
|   \\  /    A nd           | Web:      www.OpenFOAM.org                      |
|    \\/     M anipulation  |                                                 |
\*---------------------------------------------------------------------------*/
FoamFile
{
    version     2.0;
    format      ascii;
    class       volScalarField;
    location    "0.14";
    object      p;
}
// * * * * * * * * * * * * * * * * * * * * * * * * * * * * * * * * * * * * * //

dimensions      [0 2 -2 0 0 0 0];

internalField   nonuniform List<scalar> 
6820
(
7.96603
-9.87021
-12.8803
-13.0693
-13.2438
-13.1721
-13.1169
-13.1306
-13.1787
-13.246
-13.324
-13.4073
-13.4936
-13.5815
-13.6705
-13.7601
-13.85
-13.9399
-14.0296
-14.1187
-14.207
-14.2943
-14.3801
-14.464
-14.5454
-14.6241
-14.6995
-14.7704
-14.8367
-14.8951
-14.9517
-14.9811
-15.056
1.2852
-9.68866
-12.5687
-12.8707
-13.1252
-13.1497
-13.131
-13.1559
-13.2058
-13.2702
-13.3442
-13.4239
-13.5072
-13.5928
-13.68
-13.7683
-13.8572
-13.9465
-14.0358
-14.1246
-14.2129
-14.3001
-14.3859
-14.47
-14.5519
-14.6309
-14.7068
-14.7784
-14.8455
-14.9057
-14.9636
-15.0075
-15.096
-1.42893
-8.2577
-11.5474
-12.3075
-12.7777
-12.977
-13.0372
-13.0949
-13.1642
-13.241
-13.3237
-13.41
-13.4983
-13.5876
-13.6774
-13.7675
-13.8577
-13.9478
-14.0375
-14.1267
-14.2151
-14.3025
-14.3886
-14.473
-14.5553
-14.6352
-14.7122
-14.7856
-14.8553
-14.9195
-14.9814
-15.0323
-15.0907
-3.41385
-8.02994
-11.1251
-11.9863
-12.4604
-12.7388
-12.8692
-12.9711
-13.0715
-13.1689
-13.2646
-13.3598
-13.4546
-13.5491
-13.6433
-13.737
-13.8303
-13.923
-14.0151
-14.1064
-14.1968
-14.2861
-14.3741
-14.4606
-14.5453
-14.628
-14.7085
-14.7865
-14.8624
-14.9358
-15.0094
-15.0825
-15.1665
-5.04887
-8.12989
-10.7328
-11.6382
-12.148
-12.5056
-12.7062
-12.8476
-12.9727
-13.0867
-13.1943
-13.2985
-13.4002
-13.4999
-13.5982
-13.6954
-13.7916
-13.8867
-13.9809
-14.074
-14.1661
-14.257
-14.3468
-14.4353
-14.5225
-14.6086
-14.6935
-14.7777
-14.8621
-14.9475
-15.0377
-15.136
-15.2541
-6.27094
-8.31026
-10.4813
-11.4274
-11.9563
-12.3411
-12.5765
-12.7408
-12.882
-13.0089
-13.126
-13.2374
-13.345
-13.4496
-13.5518
-13.652
-13.7507
-13.8479
-13.9438
-14.0386
-14.1322
-14.2247
-14.3162
-14.4068
-14.4967
-14.5862
-14.6758
-14.7663
-14.8591
-14.9564
-15.0624
-15.1824
-15.3295
-7.22098
-8.59601
-10.3633
-11.2721
-11.7886
-12.1815
-12.4471
-12.6369
-12.7961
-12.9365
-13.0635
-13.1822
-13.2953
-13.4041
-13.5097
-13.6127
-13.7137
-13.8129
-13.9106
-14.0069
-14.102
-14.196
-14.2892
-14.3817
-14.474
-14.5664
-14.6599
-14.7556
-14.8551
-14.961
-15.0777
-15.2104
-15.3699
-7.96619
-8.90139
-10.3113
-11.1555
-11.6604
-12.0549
-12.3393
-12.5463
-12.7175
-12.8674
-13.0021
-13.1267
-13.2447
-13.3576
-13.4665
-13.5724
-13.6758
-13.777
-13.8765
-13.9743
-14.0709
-14.1664
-14.2611
-14.3555
-14.4499
-14.545
-14.6418
-14.7417
-14.8464
-14.9586
-15.0823
-15.2221
-15.3863
-8.55752
-9.20412
-10.3205
-11.0844
-11.5669
-11.9497
-12.2405
-12.4591
-12.6403
-12.799
-12.9412
-13.0719
-13.1948
-13.3118
-13.4241
-13.5327
-13.6384
-13.7416
-13.8427
-13.9421
-14.04
-14.1369
-14.2331
-14.329
-14.4252
-14.5225
-14.622
-14.7249
-14.8332
-14.9492
-15.0765
-15.2185
-15.3812
-9.03282
-9.48855
-10.3675
-11.0427
-11.4961
-11.8631
-12.1547
-12.3812
-12.57
-12.7353
-12.8833
-13.019
-13.146
-13.2663
-13.3815
-13.4926
-13.6004
-13.7054
-13.8081
-13.9088
-14.0081
-14.1062
-14.2035
-14.3008
-14.3984
-14.4973
-14.5986
-14.7035
-14.8137
-14.9314
-15.0592
-15.2
-15.3575
-9.41898
-9.74699
-10.4384
-11.0265
-11.4474
-11.7951
-12.0813
-12.3106
-12.5037
-12.6737
-12.8265
-12.9665
-13.0973
-13.2209
-13.339
-13.4525
-13.5623
-13.6691
-13.7732
-13.8753
-13.9757
-14.0748
-14.1732
-14.2714
-14.3701
-14.4701
-14.5723
-14.678
-14.7887
-14.9061
-15.0322
-15.169
-15.3189
-9.73563
-9.97707
-10.5223
-11.0288
-11.4148
-11.741
-12.0181
-12.247
-12.4426
-12.6159
-12.7723
-12.9159
-13.0498
-13.1763
-13.2968
-13.4125
-13.5241
-13.6324
-13.7378
-13.841
-13.9423
-14.0423
-14.1414
-14.2402
-14.3394
-14.4397
-14.5421
-14.6475
-14.7573
-14.8728
-14.9954
-15.1263
-15.267
-9.99711
-10.1789
-10.6112
-11.0445
-11.3953
-11.6994
-11.9649
-12.1906
-12.3864
-12.5613
-12.7202
-12.8665
-13.003
-13.132
-13.2547
-13.3723
-13.4856
-13.5953
-13.702
-13.8061
-13.9082
-14.0088
-14.1083
-14.2074
-14.3066
-14.4067
-14.5085
-14.6127
-14.7205
-14.8328
-14.9505
-15.0744
-15.205
-10.214
-10.3538
-10.6993
-11.0688
-11.3853
-11.6673
-11.9197
-12.1401
-12.3345
-12.5099
-12.6704
-12.8187
-12.9574
-13.0885
-13.2131
-13.3324
-13.4471
-13.558
-13.6657
-13.7706
-13.8732
-13.9741
-14.0738
-14.1727
-14.2714
-14.3707
-14.4711
-14.5734
-14.6782
-14.7863
-14.8982
-15.0142
-15.1345
-10.394
-10.5039
-10.7827
-11.0978
-11.3822
-11.6428
-11.8816
-12.0952
-12.2869
-12.4618
-12.6228
-12.7725
-12.9129
-13.0456
-13.1718
-13.2925
-13.4085
-13.5205
-13.6289
-13.7344
-13.8374
-13.9384
-14.0378
-14.1362
-14.2341
-14.332
-14.4305
-14.53
-14.6312
-14.7345
-14.84
-14.9478
-15.0578
-10.5432
-10.6312
-10.8589
-11.1283
-11.3834
-11.6237
-11.8489
-12.0549
-12.243
-12.4164
-12.5774
-12.7279
-12.8694
-13.0035
-13.131
-13.253
-13.3701
-13.4829
-13.5919
-13.6978
-13.8009
-13.9016
-14.0005
-14.0981
-14.1946
-14.2907
-14.3867
-14.483
-14.58
-14.6779
-14.7767
-14.8763
-14.9763
-10.6657
-10.7376
-10.9261
-11.1577
-11.3865
-11.6081
-11.8203
-12.0184
-12.2022
-12.3736
-12.534
-12.6848
-12.8272
-12.9623
-13.0909
-13.2139
-13.3318
-13.4453
-13.5548
-13.6608
-13.7637
-13.864
-13.9622
-14.0585
-14.1534
-14.2473
-14.3404
-14.4331
-14.5256
-14.6179
-14.7099
-14.8014
-14.8919
-10.7651
-10.8249
-10.9831
-11.1839
-11.3898
-11.5945
-11.7944
-11.9846
-12.1639
-12.3329
-12.4924
-12.6432
-12.7861
-12.922
-13.0515
-13.1753
-13.2939
-13.4078
-13.5175
-13.6235
-13.726
-13.8257
-13.9227
-14.0175
-14.1105
-14.2018
-14.2917
-14.3805
-14.4682
-14.5548
-14.6402
-14.724
-14.8056
-10.8437
-10.8944
-11.0293
-11.2051
-11.3914
-11.5811
-11.7699
-11.9528
-12.1276
-12.2941
-12.4525
-12.603
-12.7463
-12.8827
-13.0129
-13.1374
-13.2565
-13.3707
-13.4805
-13.5863
-13.6883
-13.7871
-13.8828
-13.9759
-14.0666
-14.1552
-14.2418
-14.3265
-14.4094
-14.4904
-14.5693
-14.6457
-14.7192
-10.9034
-10.9471
-11.0642
-11.22
-11.3898
-11.5667
-11.7458
-11.9219
-12.0924
-12.2565
-12.4138
-12.564
-12.7075
-12.8444
-12.9752
-13.1001
-13.2196
-13.334
-13.4437
-13.549
-13.6504
-13.748
-13.8422
-13.9334
-14.0216
-14.1072
-14.1902
-14.2708
-14.3489
-14.4244
-14.4971
-14.5667
-14.6328
-10.9453
-10.9838
-11.0873
-11.2275
-11.3838
-11.55
-11.7207
-11.8911
-12.0579
-12.2199
-12.3762
-12.5262
-12.6699
-12.8073
-12.9386
-13.0641
-13.1839
-13.2984
-13.4079
-13.5128
-13.6133
-13.7097
-13.8023
-13.8913
-13.9771
-14.0596
-14.1391
-14.2155
-14.2889
-14.3592
-14.4261
-14.4894
-14.5487
-10.9704
-11.005
-11.0983
-11.2264
-11.3722
-11.5297
-11.6938
-11.8594
-12.0233
-12.1837
-12.3392
-12.4892
-12.6332
-12.7711
-12.9029
-13.0288
-13.1488
-13.2633
-13.3725
-13.4767
-13.5761
-13.6711
-13.7619
-13.8487
-13.9318
-14.0111
-14.087
-14.1593
-14.2281
-14.2934
-14.3548
-14.4123
-14.4655
-10.979
-11.0107
-11.0966
-11.2159
-11.3537
-11.5047
-11.6639
-11.8262
-11.9882
-12.1476
-12.3031
-12.4534
-12.5981
-12.7368
-12.8693
-12.9957
-13.116
-13.2305
-13.3394
-13.443
-13.5414
-13.635
-13.724
-13.8085
-13.8889
-13.9651
-14.0374
-14.1058
-14.1703
-14.2308
-14.2872
-14.3394
-14.3871
-10.9711
-11.0009
-11.0818
-11.195
-11.3274
-11.4741
-11.6302
-11.7905
-11.9515
-12.1108
-12.2667
-12.4178
-12.5633
-12.7029
-12.8361
-12.963
-13.0836
-13.1981
-13.3065
-13.4093
-13.5065
-13.5985
-13.6855
-13.7676
-13.8452
-13.9183
-13.987
-14.0515
-14.1118
-14.1678
-14.2194
-14.2668
-14.3096
-10.9463
-10.975
-11.0529
-11.1628
-11.2923
-11.437
-11.5919
-11.7521
-11.9137
-12.0741
-12.2314
-12.3842
-12.5313
-12.6723
-12.8068
-12.9346
-13.0557
-13.1703
-13.2785
-13.3806
-13.4767
-13.5672
-13.6522
-13.7321
-13.8069
-13.877
-13.9423
-14.0031
-14.0593
-14.1111
-14.1584
-14.2013
-14.2395
-10.9038
-10.9322
-11.0091
-11.118
-11.2471
-11.3919
-11.5477
-11.7092
-11.8726
-12.0351
-12.1945
-12.3493
-12.4983
-12.6409
-12.7767
-12.9054
-13.0271
-13.1417
-13.2496
-13.3508
-13.4457
-13.5345
-13.6175
-13.6949
-13.7669
-13.8338
-13.8958
-13.9529
-14.0052
-14.053
-14.0962
-14.1349
-14.1691
-10.8424
-10.8712
-10.9492
-11.0598
-11.1911
-11.339
-11.4983
-11.6637
-11.8311
-11.9977
-12.1609
-12.3192
-12.4714
-12.6166
-12.7544
-12.8846
-13.0072
-13.1223
-13.23
-13.3306
-13.4244
-13.5116
-13.5926
-13.6676
-13.737
-13.8009
-13.8595
-13.9131
-13.9618
-14.0057
-14.045
-14.0797
-14.1099
-10.7603
-10.7902
-10.8712
-10.9859
-11.122
-11.275
-11.4396
-11.6103
-11.7829
-11.9543
-12.1221
-12.2844
-12.44
-12.5881
-12.7282
-12.86
-12.9836
-13.0991
-13.2066
-13.3065
-13.3991
-13.4847
-13.5636
-13.6361
-13.7027
-13.7635
-13.8188
-13.8688
-13.9138
-13.954
-13.9896
-14.0207
-14.0474
-10.6551
-10.687
-10.7738
-10.8964
-11.0413
-11.2038
-11.378
-11.5581
-11.7395
-11.9188
-12.0936
-12.2619
-12.4225
-12.5746
-12.7178
-12.8518
-12.9768
-13.093
-13.2005
-13.2998
-13.3912
-13.4751
-13.5519
-13.622
-13.6857
-13.7434
-13.7953
-13.8419
-13.8833
-13.9198
-13.9515
-13.9788
-14.0017
-10.5231
-10.5579
-10.6525
-10.7851
-10.9407
-11.1139
-11.299
-11.4894
-11.6804
-11.8686
-12.0513
-12.2265
-12.3929
-12.5497
-12.6966
-12.8334
-12.9602
-13.0773
-13.185
-13.2837
-13.374
-13.4562
-13.5308
-13.5984
-13.6592
-13.7137
-13.7622
-13.8052
-13.843
-13.8758
-13.904
-13.9279
-13.9476
-10.3604
-10.4005
-10.5088
-10.6592
-10.8337
-11.0261
-11.2293
-11.4362
-11.6417
-11.8423
-12.0354
-12.2192
-12.3926
-12.5548
-12.7057
-12.8454
-12.9739
-13.0918
-13.1994
-13.2974
-13.3863
-13.4665
-13.5387
-13.6034
-13.6611
-13.7121
-13.7571
-13.7963
-13.8301
-13.859
-13.8831
-13.9028
-13.9184
-10.1596
-10.2044
-10.3265
-10.4941
-10.6862
-10.8969
-11.1188
-11.3438
-11.5661
-11.7819
-11.9883
-12.1835
-12.3662
-12.5359
-12.6925
-12.8363
-12.9676
-13.0869
-13.195
-13.2925
-13.3801
-13.4584
-13.5282
-13.59
-13.6445
-13.6921
-13.7334
-13.7688
-13.7988
-13.8238
-13.8442
-13.8605
-13.8728
-9.91542
-9.9748
-10.1296
-10.3351
-10.5628
-10.8057
-11.0558
-11.3045
-11.5465
-11.7786
-11.9983
-12.204
-12.3951
-12.5713
-12.7326
-12.8795
-13.0125
-13.1326
-13.2403
-13.3365
-13.4221
-13.4978
-13.5645
-13.6227
-13.6732
-13.7165
-13.7533
-13.7841
-13.8093
-13.8295
-13.8449
-13.8562
-13.8635
-9.60588
-9.6677
-9.84248
-10.0745
-10.3328
-10.6106
-10.8964
-11.1784
-11.4503
-11.7083
-11.9498
-12.1731
-12.3781
-12.5647
-12.7336
-12.8857
-13.022
-13.1435
-13.2514
-13.3467
-13.4306
-13.5039
-13.5675
-13.6223
-13.6691
-13.7085
-13.7412
-13.7677
-13.7887
-13.8046
-13.816
-13.8234
-13.8272
-9.24129
-9.35832
-9.61851
-9.92164
-10.2309
-10.5491
-10.8677
-11.176
-11.4696
-11.7458
-12.0023
-12.2381
-12.453
-12.6472
-12.8215
-12.977
-13.1149
-13.2365
-13.343
-13.4358
-13.5162
-13.5852
-13.6439
-13.6934
-13.7344
-13.7678
-13.7942
-13.8144
-13.8288
-13.838
-13.8427
-13.8432
-13.8403
-8.7092
-8.80006
-9.09783
-9.46862
-9.85856
-10.2603
-10.6532
-11.0235
-11.3677
-11.6837
-11.9706
-12.2287
-12.4596
-12.6649
-12.8466
-13.0064
-13.1465
-13.2685
-13.3742
-13.4652
-13.543
-13.609
-13.6643
-13.7099
-13.7469
-13.776
-13.798
-13.8135
-13.8231
-13.8274
-13.827
-13.8226
-13.8151
-8.2114
-8.53357
-9.00081
-9.4188
-9.82794
-10.2555
-10.6731
-11.0674
-11.4367
-11.7774
-12.0864
-12.3634
-12.6092
-12.8253
-13.0137
-13.1767
-13.3167
-13.4361
-13.5372
-13.622
-13.6923
-13.75
-13.7964
-13.8329
-13.8605
-13.8803
-13.8929
-13.899
-13.8991
-13.8936
-13.8828
-13.8676
-13.848
-6.90675
-7.22819
-8.00062
-8.6994
-9.33484
-9.94004
-10.483
-10.9635
-11.3919
-11.7721
-12.1075
-12.4023
-12.6604
-12.8851
-13.0796
-13.2468
-13.3893
-13.5099
-13.6109
-13.6944
-13.7626
-13.8173
-13.8601
-13.8924
-13.9154
-13.9302
-13.9374
-13.9376
-13.9311
-13.9179
-13.8973
-13.8706
-13.8332
-6.89276
-7.63743
-8.24105
-8.70693
-9.30574
-9.93794
-10.5269
-11.0753
-11.5767
-12.0208
-12.4064
-12.7372
-13.0173
-13.2516
-13.4455
-13.6041
-13.7324
-13.8347
-13.915
-13.9766
-14.0225
-14.0552
-14.0769
-14.0892
-14.0938
-14.0916
-14.0836
-14.0703
-14.0515
-14.0263
-13.992
-13.9455
-13.8729
-0.639262
-5.24708
-7.03033
-7.8799
-8.88088
-9.75564
-10.4548
-11.0611
-11.5911
-12.045
-12.4319
-12.76
-13.0357
-13.2652
-13.4546
-13.6092
-13.7339
-13.8331
-13.9107
-13.9699
-14.0137
-14.0445
-14.0645
-14.0754
-14.0788
-14.0758
-14.0676
-14.0549
-14.0388
-14.0188
-13.9979
-13.9706
-13.9489
-14.8579
-15.2815
-16.4418
-17.6001
-18.7037
-19.8206
-21.1075
-22.6857
-24.4681
-26.1137
-27.0308
-26.4749
-23.7892
-18.937
-12.8119
-6.78021
-1.95651
1.04897
1.94125
0.814481
-2.21454
-6.98708
-13.1788
-20.3684
-27.9689
-35.3251
-41.8038
-46.8383
-49.9847
-51.0741
-50.1853
-47.7008
-44.206
-40.2574
-35.9445
-30.9362
-25.059
-18.9618
-13.6721
-9.59859
-6.56861
-4.29745
-2.57739
-1.27221
-0.288331
0.440139
0.95883
1.29638
1.46685
1.44804
1.20427
0.579924
-1.18482
-5.38884
-12.8685
-22.745
-33.1611
-42.3128
-48.7365
-51.4184
-49.9173
-44.0232
-34.9409
-25.1767
-17.0439
-11.2455
-7.32985
-4.68167
-2.87574
-1.6474
-0.822643
-0.279898
0.0683016
0.285223
0.415867
0.4911
0.530757
0.545581
0.539399
0.509415
0.445871
0.329381
0.129547
-0.211003
-0.827026
-2.08535
-4.81643
-9.95527
-17.4043
-25.4407
-31.1699
-32.2246
-28.1043
-20.6018
-12.7726
-6.73786
-3.00742
-1.08601
-0.141688
0.0439249
-15.0596
-15.3904
-16.433
-17.5903
-18.7151
-19.8543
-21.126
-22.6273
-24.2298
-25.6014
-26.1903
-25.3436
-22.5788
-18.0114
-12.4937
-7.16449
-2.90368
-0.173257
0.762055
-0.256876
-3.06961
-7.45065
-13.1251
-19.6845
-26.6388
-33.415
-39.4221
-44.1304
-47.1322
-48.2745
-47.6215
-45.5206
-42.4808
-38.8939
-34.7522
-29.8055
-24.0789
-18.325
-13.4069
-9.58304
-6.68132
-4.46717
-2.76808
-1.46514
-0.473241
0.269063
0.804697
1.16051
1.35039
1.3536
1.12585
0.554328
-1.01397
-4.80374
-11.6775
-20.9404
-30.8563
-39.6353
-45.8182
-48.3965
-46.9753
-41.398
-32.9143
-23.9104
-16.4407
-11.0639
-7.36344
-4.81038
-3.03961
-1.81721
-0.983907
-0.425705
-0.0593891
0.175798
0.323356
0.413281
0.464901
0.488709
0.488412
0.461125
0.397074
0.276847
0.0703162
-0.276808
-0.886808
-2.08455
-4.61556
-9.34594
-16.2217
-23.6792
-29.0352
-30.0916
-26.3596
-19.4647
-12.2124
-6.57287
-3.02119
-1.16248
-0.166008
-0.0113711
-15.1344
-15.5614
-16.5392
-17.6384
-18.719
-19.8265
-21.0426
-22.3681
-23.7101
-24.7351
-24.9576
-23.8664
-21.1675
-17.0691
-12.3005
-7.74614
-4.07971
-1.68018
-0.773473
-1.57813
-4.10814
-8.11093
-13.2844
-19.2398
-25.5377
-31.7004
-37.2062
-41.5695
-44.4128
-45.5921
-45.1631
-43.4313
-40.7962
-37.4853
-33.4501
-28.5568
-23.0458
-17.6913
-13.1518
-9.56939
-6.79282
-4.6375
-2.9627
-1.66518
-0.667921
0.0859556
0.636544
1.00866
1.21576
1.23907
1.02788
0.493364
-0.903113
-4.28614
-10.5179
-19.0911
-28.4244
-36.7704
-42.6803
-45.1489
-43.8253
-38.6184
-30.8073
-22.6193
-15.832
-10.8784
-7.39349
-4.9377
-3.20472
-1.99022
-1.14948
-0.57628
-0.191864
0.0618424
0.226719
0.33181
0.395863
0.429138
0.435218
0.411132
0.347124
0.2239
0.0117139
-0.340832
-0.944646
-2.08482
-4.42157
-8.74534
-15.0385
-21.9014
-26.8741
-27.9312
-24.5933
-18.317
-11.651
-6.41176
-3.03973
-1.24369
-0.195063
-0.0692165
-15.3046
-15.7439
-16.5811
-17.569
-18.5749
-19.6033
-20.6889
-21.809
-22.8426
-23.5032
-23.4093
-22.2053
-19.7384
-16.2219
-12.2175
-8.39273
-5.28345
-3.22848
-2.4194
-3.05406
-5.25439
-8.87441
-13.5808
-18.9855
-24.6727
-30.2259
-35.2122
-39.212
-41.8788
-43.0795
-42.8602
-41.4606
-39.136
-35.9955
-32.0078
-27.2073
-22.0044
-17.0868
-12.9125
-9.55629
-6.90125
-4.80747
-3.16083
-1.87208
-0.872201
-0.109133
0.454266
0.840641
1.06246
1.10324
0.909051
0.400622
-0.845905
-3.8334
-9.39994
-17.2187
-25.8937
-33.7495
-39.3575
-41.7168
-40.5152
-35.7411
-28.6727
-21.3363
-15.231
-10.6916
-7.41923
-5.06259
-3.37035
-2.16599
-1.31911
-0.731463
-0.329029
-0.0565796
0.126028
0.246806
0.323875
0.367186
0.380153
0.35979
0.296467
0.171117
-0.0455682
-0.402191
-0.998946
-2.08348
-4.23209
-8.15566
-13.8668
-20.1315
-24.7201
-25.7793
-22.8374
-17.1823
-11.1017
-6.25979
-3.06395
-1.32886
-0.227886
-0.129465
-15.444
-15.8654
-16.575
-17.4266
-18.302
-19.1913
-20.0968
-20.977
-21.7137
-22.0842
-21.8099
-20.6472
-18.505
-15.5528
-12.2118
-9.00107
-6.36648
-4.62773
-3.96653
-4.52167
-6.42356
-9.63844
-13.9053
-18.8262
-23.9892
-29.0033
-33.4959
-37.1236
-39.5979
-40.8095
-40.761
-39.5992
-37.449
-34.3702
-30.4176
-25.8011
-20.9929
-16.5211
-12.6885
-9.54346
-7.00737
-4.97768
-3.36272
-2.08603
-1.08639
-0.316686
0.257183
0.655676
0.889715
0.945153
0.768107
0.279633
-0.84028
-3.45469
-8.35534
-15.3744
-23.3234
-30.6313
-35.9042
-38.1532
-37.1038
-32.8259
-26.5571
-20.086
-14.6466
-10.5065
-7.44205
-5.18591
-3.53704
-2.34489
-1.49307
-0.891516
-0.471114
-0.179651
0.0211513
0.158172
0.248831
0.302767
0.323213
0.307189
0.245246
0.118695
-0.101228
-0.460428
-1.04907
-2.08008
-4.04923
-7.58634
-12.7276
-18.4011
-22.6091
-23.6696
-21.1191
-16.0779
-10.5736
-6.12048
-3.09493
-1.41825
-0.264442
-0.192745
-15.549
-15.9408
-16.5317
-17.2423
-17.9873
-18.7388
-19.4807
-20.1637
-20.6828
-20.8664
-20.506
-19.4242
-17.5655
-15.0694
-12.2624
-9.55659
-7.32508
-5.85473
-5.32733
-5.85389
-7.52632
-10.3488
-14.1625
-18.6351
-23.355
-27.9314
-32.0187
-35.3212
-37.6164
-38.8148
-38.8416
-37.7547
-35.6284
-32.5578
-28.7143
-24.4067
-20.0467
-16.0006
-12.4787
-9.53027
-7.11097
-5.14792
-3.5681
-2.30677
-1.31032
-0.536623
0.0452662
0.453687
0.697512
0.764678
0.603809
0.132428
-0.887188
-3.16535
-7.42444
-13.6218
-20.7867
-27.4889
-32.3917
-34.532
-33.6715
-29.9483
-24.5135
-18.8937
-14.0873
-10.3252
-7.46245
-5.30782
-3.70486
-2.52696
-1.67145
-1.05653
-0.618196
-0.307412
-0.0879005
0.0659882
0.170905
0.236127
0.264669
0.253609
0.193763
0.0669576
-0.154901
-0.515164
-1.09479
-2.07526
-3.8767
-7.04798
-11.6413
-16.7396
-20.5752
-21.6364
-19.4671
-15.023
-10.0765
-5.99739
-3.13323
-1.51145
-0.303956
-0.259324
-15.5964
-15.9578
-16.4648
-17.0696
-17.7049
-18.3374
-18.9416
-19.4658
-19.8183
-19.8636
-19.4468
-18.4446
-16.8282
-14.7125
-12.3533
-10.0786
-8.19875
-6.96152
-6.53754
-7.03543
-8.51964
-10.9892
-14.3383
-18.3303
-22.6174
-26.8176
-30.5835
-33.6367
-35.7805
-36.8636
-36.8317
-35.7022
-33.5675
-30.5862
-26.9966
-23.0949
-19.1838
-15.5229
-12.2807
-9.51651
-7.21244
-5.31827
-3.77679
-2.53406
-1.54381
-0.768838
-0.181478
0.234591
0.485929
0.561914
0.415419
-0.0388159
-0.981771
-2.97015
-6.63577
-12.02
-18.364
-24.4116
-28.9131
-30.9496
-30.3145
-27.1876
-22.5891
-17.7781
-13.5582
-10.1493
-7.4814
-5.429
-3.87425
-2.71254
-1.85452
-1.22675
-0.770475
-0.440001
-0.201192
-0.0297455
0.0901314
0.16735
0.204686
0.1993
0.142332
0.0162658
-0.206176
-0.565927
-1.1356
-2.06875
-3.71617
-6.54771
-10.6242
-15.173
-18.6507
-19.7113
-17.9067
-14.0335
-9.61818
-5.89303
-3.17922
-1.60825
-0.345873
-0.329716
-15.6114
-15.9453
-16.3837
-16.8951
-17.4302
-17.9555
-18.4399
-18.8336
-19.0582
-19.0082
-18.5691
-17.6546
-16.2524
-14.4592
-12.4784
-10.5725
-8.99782
-7.96782
-7.63433
-8.09919
-9.41351
-11.5675
-14.4748
-17.9567
-21.7481
-25.5244
-28.9542
-31.7497
-33.6816
-34.6137
-34.5022
-33.3717
-31.3433
-28.6058
-25.3831
-21.907
-18.4039
-15.0821
-12.0925
-9.50239
-7.31202
-5.48857
-3.98838
-2.76743
-1.7864
-1.01291
-0.422639
-0.00123685
0.255595
0.337723
0.203209
-0.232634
-1.11593
-2.86465
-6.00449
-10.62
-16.1392
-21.5025
-25.5805
-27.5205
-27.1384
-24.6208
-20.8223
-16.7512
-13.0621
-9.97992
-7.49984
-5.5501
-4.04565
-2.90196
-2.04259
-1.40243
-0.928136
-0.577512
-0.318724
-0.128937
0.00669919
0.0967055
0.14358
0.144614
0.091335
-0.0329805
-0.254629
-0.612252
-1.17097
-2.06003
-3.56819
-6.09034
-9.68933
-13.7237
-16.8633
-17.922
-16.4601
-13.1231
-9.20491
-5.8092
-3.23294
-1.70833
-0.389461
-0.404233
-15.5977
-15.9021
-16.2816
-16.7144
-17.1633
-17.5959
-17.9798
-18.2687
-18.3971
-18.2824
-17.8404
-17.0126
-15.7987
-14.2811
-12.622
-11.0316
-9.72112
-8.87286
-8.62009
-9.05338
-10.2166
-12.0944
-14.608
-17.6074
-20.8789
-24.1618
-27.1726
-29.6381
-31.3336
-32.1392
-32.0138
-30.9944
-29.1974
-26.7846
-23.938
-20.8444
-17.6949
-14.6718
-11.9131
-9.48838
-7.40994
-5.65862
-4.20245
-3.00634
-2.0375
-1.26824
-0.67759
-0.253176
0.0073236
0.0934355
-0.031564
-0.448098
-1.28134
-2.83814
-5.53163
-9.45642
-14.1878
-18.8665
-22.5134
-24.3639
-24.243
-22.308
-19.2351
-15.8169
-12.5995
-9.81814
-7.51897
-5.67204
-4.2197
-3.09573
-2.23608
-1.58394
-1.09144
-0.720093
-0.440529
-0.231513
-0.0792413
0.0244198
0.0816561
0.0899279
0.0412037
-0.0803296
-0.299805
-0.653661
-1.20038
-2.04846
-3.43252
-5.67835
-8.84555
-12.4082
-15.2345
-16.2898
-15.1439
-12.3016
-8.8407
-5.74674
-3.29431
-1.81147
-0.434136
-0.483141
-15.5619
-15.8376
-16.1667
-16.5326
-16.906
-17.2578
-17.5565
-17.7611
-17.8172
-17.6612
-17.232
-16.4907
-15.4446
-14.1633
-12.7773
-11.4558
-10.3725
-9.6815
-9.49892
-9.90338
-10.9323
-12.5702
-14.7443
-17.3241
-20.1268
-22.9339
-25.5107
-27.6309
-29.1077
-29.8234
-29.7306
-28.8577
-27.2963
-25.1778
-22.6536
-19.8859
-17.0438
-14.2881
-11.7425
-9.47504
-7.50634
-5.82817
-4.41843
-3.25005
-2.29632
-1.53399
-0.945397
-0.520195
-0.257676
-0.16906
-0.286655
-0.683809
-1.47091
-2.87491
-5.20292
-8.53728
-12.5581
-16.5889
-19.8168
-21.5798
-21.7003
-20.2812
-17.8315
-14.9718
-12.1692
-9.66495
-7.54013
-5.79583
-4.39717
-3.2945
-2.43556
-1.7717
-1.26068
-0.867894
-0.566608
-0.337339
-0.167425
-0.0491603
0.0193278
0.0357038
-0.0075643
-0.125276
-0.341217
-0.689664
-1.22328
-2.03315
-3.3079
-5.31146
-8.09631
-11.2357
-13.7776
-14.8284
-13.9683
-11.5745
-8.5273
-5.70567
-3.36317
-1.91764
-0.479419
-0.566455
-15.5089
-15.7566
-16.0414
-16.3495
-16.6578
-16.9406
-17.1691
-17.3075
-17.3115
-17.1323
-16.7257
-16.0674
-15.1689
-14.0897
-12.9355
-11.8427
-10.9538
-10.398
-10.2752
-10.6531
-11.5629
-12.9905
-14.8719
-17.0936
-19.4991
-21.9027
-24.1067
-25.9273
-27.2061
-27.8296
-27.7514
-26.992
-25.6219
-23.7471
-21.4961
-19.0118
-16.4429
-13.9295
-11.5809
-9.46275
-7.60131
-5.99688
-4.6357
-3.49775
-2.56189
-1.80911
-1.22489
-0.800955
-0.537919
-0.447664
-0.559133
-0.937328
-1.67932
-2.9577
-4.99225
-7.84192
-11.2574
-14.7112
-17.5511
-19.2207
-19.5357
-18.5376
-16.5982
-14.2076
-11.7695
-9.52152
-7.56481
-5.92268
-4.57904
-3.4991
-2.64172
-1.96627
-1.43625
-1.02111
-0.696976
-0.446272
-0.257552
-0.123664
-0.0429548
-0.0175457
-0.0544151
-0.167262
-0.378346
-0.719768
-1.23911
-2.01307
-3.1922
-4.98673
-7.43986
-10.2077
-12.4971
-13.5429
-12.937
-10.9427
-8.26416
-5.68543
-3.43957
-2.02708
-0.525079
-0.653974
-15.4418
-15.6629
-15.9086
-16.1674
-16.4203
-16.645
-16.8161
-16.903
-16.8701
-16.6806
-16.303
-15.7231
-14.955
-14.0492
-13.0918
-12.1931
-11.4695
-11.0289
-10.9558
-11.3081
-12.1118
-13.3538
-14.9791
-16.8909
-18.9558
-21.0162
-22.905
-24.4636
-25.5566
-26.0869
-26.0118
-25.341
-24.1274
-22.4585
-20.4452
-18.2122
-15.8882
-13.5946
-11.4283
-9.45178
-7.69483
-6.16439
-4.85358
-3.74851
-2.83313
-2.09235
-1.51466
-1.0938
-0.831534
-0.740075
-0.845678
-1.20519
-1.90235
-3.07163
-4.8688
-7.32818
-10.2488
-13.2155
-15.7109
-17.275
-17.7221
-17.0446
-15.5119
-13.5145
-11.3992
-9.38931
-7.59466
-6.05399
-4.76651
-3.7106
-2.85547
-2.16837
-1.61862
-1.17999
-0.831641
-0.558123
-0.349268
-0.198621
-0.104646
-0.069226
-0.0987276
-0.205674
-0.410642
-0.743483
-1.24731
-1.98712
-3.0827
-4.69912
-6.86966
-9.31816
-11.3882
-12.4296
-12.0462
-10.4029
-8.04893
-5.6853
-3.52397
-2.14039
-0.571153
-0.745238
-15.3643
-15.5605
-15.7718
-15.9882
-16.1941
-16.3704
-16.4951
-16.5429
-16.4855
-16.2951
-15.9502
-15.4433
-14.7896
-14.0322
-13.2414
-12.5065
-11.9227
-11.5789
-11.5466
-11.8743
-12.5833
-13.6618
-15.0623
-16.7026
-18.47
-20.2309
-21.8435
-23.1712
-24.0998
-24.5452
-24.4655
-23.8635
-22.7815
-21.292
-19.4894
-17.4803
-15.3762
-13.2823
-11.2848
-9.44233
-7.78692
-6.33033
-5.07133
-4.00132
-3.10878
-2.38229
-1.81309
-1.39687
-1.13636
-1.04382
-1.14298
-1.48342
-2.13582
-3.20572
-4.80446
-6.94671
-9.46678
-12.0325
-14.229
-15.6761
-16.1965
-15.7549
-14.5473
-12.8843
-11.0578
-9.26989
-7.63143
-6.19135
-4.96106
-3.93031
-3.07794
-2.37887
-1.80839
-1.34481
-0.970618
-0.67268
-0.442183
-0.2735
-0.165127
-0.118672
-0.139818
-0.239846
-0.43752
-0.760331
-1.24737
-1.95422
-2.97636
-4.44207
-6.37536
-8.55452
-10.4388
-11.477
-11.2863
-9.94806
-7.87808
-5.70489
-3.61751
-2.2586
-0.61799
-0.839627
-15.2786
-15.4518
-15.6328
-15.8131
-15.9795
-16.116
-16.2041
-16.2229
-16.1504
-15.9659
-15.655
-15.2151
-14.6616
-14.0311
-13.3811
-12.784
-12.3174
-12.0544
-12.0546
-12.3581
-12.9824
-13.9166
-15.1201
-16.523
-18.0301
-19.5285
-20.8981
-22.0232
-22.8054
-23.1711
-23.082
-22.5373
-21.5692
-20.237
-18.6202
-16.8104
-14.9038
-12.9915
-11.1502
-9.43462
-7.87754
-6.49432
-5.28819
-4.25511
-3.38753
-2.67736
-2.11839
-1.70807
-1.44998
-1.35615
-1.44788
-1.76811
-2.37555
-3.35233
-4.77832
-6.65496
-8.84375
-11.0755
-13.012
-14.3371
-14.8906
-14.6263
-13.6856
-12.3117
-10.7455
-9.16485
-7.67699
-6.33666
-5.16448
-4.15988
-3.31055
-2.59888
-2.0063
-1.51595
-1.11393
-0.789693
-0.535826
-0.347667
-0.223682
-0.165129
-0.17693
-0.26906
-0.458363
-0.769844
-1.23886
-1.9134
-2.87013
-4.20831
-5.94423
-7.89963
-9.63023
-10.6672
-10.6427
-9.5689
-7.74805
-5.74481
-3.72214
-2.38319
-0.666222
-0.936501
-15.1874
-15.3396
-15.4942
-15.6438
-15.7774
-15.8816
-15.9411
-15.939
-15.8584
-15.6844
-15.4076
-15.0286
-14.5622
-14.0397
-13.5083
-13.0265
-12.6574
-12.4609
-12.4861
-12.7657
-13.3141
-14.1213
-15.1523
-16.3481
-17.6282
-18.8975
-20.0545
-21.0011
-21.6527
-21.9459
-21.8456
-21.3478
-20.4771
-19.2819
-17.8292
-16.197
-14.4679
-12.7212
-11.0245
-9.42879
-7.96668
-6.65595
-5.50342
-4.50878
-3.66799
-2.9759
-2.42863
-2.02523
-1.76989
-1.67427
-1.75733
-2.05576
-2.61773
-3.50611
-4.77725
-6.42415
-8.33013
-10.2755
-11.9828
-13.1904
-13.7561
-13.6312
-12.9144
-11.793
-10.4622
-9.07572
-7.73337
-6.49211
-5.37894
-4.40135
-3.55505
-2.82978
-2.21328
-1.69387
-1.26161
-0.908829
-0.629648
-0.420399
-0.279492
-0.207751
-0.209237
-0.292544
-0.472518
-0.771561
-1.22144
-1.8639
-2.76127
-3.9906
-5.56258
-7.33377
-8.9396
-9.978
-10.0982
-9.25568
-7.65647
-5.80707
-3.84073
-2.51603
-0.716742
-1.03542
-15.0923
-15.2256
-15.3572
-15.4808
-15.5874
-15.6658
-15.7034
-15.6871
-15.6038
-15.443
-15.1991
-14.8749
-14.4841
-14.0532
-13.6211
-13.2352
-12.9466
-12.804
-12.8472
-13.1037
-13.584
-14.279
-15.1591
-16.1742
-17.2566
-18.3262
-19.2975
-20.0873
-20.6234
-20.8509
-20.738
-20.2789
-19.4921
-18.417
-17.1094
-15.6356
-14.0663
-12.4704
-10.9077
-9.425
-8.0543
-6.81488
-5.71626
-4.76122
-3.94871
-3.27619
-2.74181
-2.34603
-2.09353
-1.99535
-2.06833
-2.34326
-2.85911
-3.66316
-4.79371
-6.23818
-7.89799
-9.59374
-11.0986
-12.1975
-12.7649
-12.7519
-12.2246
-11.3247
-10.208
-9.00403
-7.80286
-6.66027
-5.6071
-4.65723
-3.81367
-3.07333
-2.43052
-1.87917
-1.41374
-1.02969
-0.722997
-0.490854
-0.331624
-0.245591
-0.235831
-0.309473
-0.479304
-0.765026
-1.19486
-1.80526
-2.64763
-3.78252
-5.21731
-6.83683
-8.34222
-9.38613
-9.63543
-9.00037
-7.60321
-5.89529
-3.97699
-2.65939
-0.770581
-1.13623
-14.9955
-15.1118
-15.2236
-15.3254
-15.4099
-15.4679
-15.4893
-15.4637
-15.3815
-15.2354
-15.0227
-14.7471
-14.4214
-14.068
-13.7187
-13.412
-13.1892
-13.0894
-13.1453
-13.3787
-13.7976
-14.3938
-15.142
-15.9998
-16.9103
-17.8063
-18.6156
-19.2683
-19.7025
-19.8709
-19.7452
-19.3184
-18.604
-17.6339
-16.4546
-15.122
-13.6968
-12.2383
-10.7996
-9.42339
-8.14039
-6.97077
-5.926
-5.01135
-4.22827
-3.57648
-3.0559
-2.66818
-2.41833
-2.31665
-2.37801
-2.62776
-3.09694
-3.82037
-4.82268
-6.08769
-7.53213
-9.00984
-10.3361
-11.3353
-11.897
-11.9738
-11.6078
-10.9034
-9.98255
-8.9514
-7.88801
-6.8442
-5.8522
-4.93067
-4.08917
-3.3317
-2.6595
-2.07259
-1.57044
-1.15189
-0.815111
-0.558063
-0.37902
-0.27759
-0.255722
-0.318971
-0.478002
-0.749766
-1.15895
-1.73729
-2.52777
-3.57895
-4.89715
-6.39042
-7.81527
-8.87047
-9.24063
-8.79855
-7.59085
-6.01456
-4.13544
-2.81608
-0.828923
-1.23911
-14.8977
-14.999
-15.0938
-15.1776
-15.2442
-15.2863
-15.2958
-15.2649
-15.1864
-15.0557
-14.8718
-14.6391
-14.369
-14.0807
-13.8
-13.5582
-13.3884
-13.3222
-13.3858
-13.5964
-13.9599
-14.4691
-15.102
-15.823
-16.5844
-17.3296
-17.9984
-18.5314
-18.8763
-18.9923
-18.8541
-18.4543
-17.8026
-16.9248
-15.8591
-14.6527
-13.3573
-12.0242
-10.7003
-9.42406
-8.22496
-7.12333
-6.13199
-5.25814
-4.5053
-3.87507
-3.36889
-2.98939
-2.74179
-2.63554
-2.68367
-2.90667
-3.32879
-3.97502
-4.85994
-5.9653
-7.2209
-8.50791
-9.67617
-10.5839
-11.1347
-11.284
-11.0562
-10.526
-9.7857
-8.91953
-7.99174
-7.04752
-6.11817
-5.22554
-4.38503
-3.60767
-2.90207
-2.27508
-1.73183
-1.27498
-0.905112
-0.620913
-0.42048
-0.302571
-0.267833
-0.320113
-0.467883
-0.72531
-1.11356
-1.66006
-2.40108
-3.37657
-4.59365
-5.98048
-7.34133
-8.41597
-8.90565
-8.64998
-7.62425
-6.17118
-4.32163
-2.98966
-0.893358
-1.3446
-14.801
-14.8892
-14.9695
-15.0383
-15.0906
-15.1204
-15.1216
-15.0882
-15.0152
-14.8996
-14.7418
-14.5464
-14.3237
-14.0896
-13.8654
-13.6762
-13.5487
-13.5081
-13.5751
-13.7634
-14.077
-14.5093
-15.0417
-15.6439
-16.2761
-16.8909
-17.4377
-17.8668
-18.1337
-18.2035
-18.0538
-17.6769
-17.0798
-16.283
-15.318
-14.2244
-13.0461
-11.8275
-10.6095
-9.42715
-8.30805
-7.27232
-6.33364
-5.50064
-4.77848
-4.17031
-3.67884
-3.30748
-3.06154
-2.94955
-2.98289
-3.17768
-3.55255
-4.12484
-4.9018
-5.86448
-6.95382
-8.07349
-9.1019
-9.92583
-10.4623
-10.6706
-10.5624
-10.1889
-9.61716
-8.91027
-8.11738
-7.27461
-6.4099
-5.54675
-4.70563
-3.90472
-3.16062
-2.48793
-1.8981
-1.39846
-0.991976
-0.678121
-0.454643
-0.319226
-0.270993
-0.311916
-0.448178
-0.691147
-1.05853
-1.57371
-2.26751
-3.17375
-4.30157
-5.5985
-6.91046
-8.01472
-8.62766
-8.55736
-7.70994
-6.37303
-4.54261
-3.18478
-0.96551
-1.45356
-14.7053
-14.782
-14.85
-14.9065
-14.9474
-14.9681
-14.9636
-14.9298
-14.8631
-14.762
-14.6275
-14.4644
-14.2815
-14.0923
-13.9141
-13.7672
-13.6728
-13.6509
-13.718
-13.8844
-14.1531
-14.5177
-14.9623
-15.4616
-15.9821
-16.4843
-16.926
-17.2652
-17.4645
-17.494
-17.334