/*--------------------------------*- C++ -*----------------------------------*\
| =========                 |                                                 |
| \\      /  F ield         | OpenFOAM: The Open Source CFD Toolbox           |
|  \\    /   O peration     | Version:  2.1.1                                 |
|   \\  /    A nd           | Web:      www.OpenFOAM.org                      |
|    \\/     M anipulation  |                                                 |
\*---------------------------------------------------------------------------*/
FoamFile
{
    version     2.0;
    format      ascii;
    class       surfaceScalarField;
    location    "0.14";
    object      phi;
}
// * * * * * * * * * * * * * * * * * * * * * * * * * * * * * * * * * * * * * //

dimensions      [0 3 -1 0 0 0 0];

internalField   nonuniform List<scalar> 
13452
(
4.59986e-05
2.24887e-05
2.96635e-05
1.6335e-05
2.11875e-05
8.47599e-06
1.72866e-05
3.90092e-06
1.56449e-05
1.64174e-06
1.48376e-05
8.07293e-07
1.4328e-05
5.09588e-07
1.39392e-05
3.88821e-07
1.3611e-05
3.28129e-07
1.33282e-05
2.82886e-07
1.30859e-05
2.42223e-07
1.28805e-05
2.05459e-07
1.27075e-05
1.72984e-07
1.25627e-05
1.44846e-07
1.2442e-05
1.20669e-07
1.23421e-05
9.98731e-08
1.22602e-05
8.18665e-08
1.21941e-05
6.6137e-08
1.21418e-05
5.22764e-08
1.21019e-05
3.99761e-08
1.20728e-05
2.90394e-08
1.20535e-05
1.93292e-08
1.20428e-05
1.07018e-08
1.20396e-05
3.19673e-09
1.20424e-05
-2.77623e-09
1.20492e-05
-6.87995e-09
1.20585e-05
-9.21985e-09
1.20667e-05
-8.26238e-09
1.2072e-05
-5.26592e-09
1.20623e-05
9.72301e-09
1.2044e-05
1.83137e-08
1.19283e-05
1.1561e-07
1.17712e-10
1.19282e-05
7.49127e-05
1.80199e-05
7.04128e-05
2.0835e-05
6.33245e-05
1.55643e-05
5.66722e-05
1.05532e-05
5.15593e-05
6.75467e-06
4.79085e-05
4.45807e-06
4.52939e-05
3.12417e-06
4.33735e-05
2.30928e-06
4.1914e-05
1.78756e-06
4.07658e-05
1.4311e-06
3.98366e-05
1.17148e-06
3.90684e-05
9.73629e-07
3.84235e-05
8.1788e-07
3.78762e-05
6.92188e-07
3.74082e-05
5.88668e-07
3.70061e-05
5.01878e-07
3.66601e-05
4.27951e-07
3.63621e-05
3.6409e-07
3.61061e-05
3.08259e-07
3.58871e-05
2.58974e-07
3.5701e-05
2.1518e-07
3.55442e-05
1.76113e-07
3.54136e-05
1.41277e-07
3.53062e-05
1.10611e-07
3.52193e-05
8.41564e-08
3.51501e-05
6.22831e-08
3.50954e-05
4.54793e-08
3.50516e-05
3.55105e-08
3.50138e-05
3.26109e-08
3.49783e-05
4.51892e-08
3.49342e-05
6.24068e-08
3.49203e-05
1.29473e-07
1.61205e-07
3.47593e-05
7.8521e-05
1.19555e-05
8.23345e-05
1.70214e-05
8.2993e-05
1.49059e-05
8.1479e-05
1.20672e-05
7.89591e-05
9.27459e-06
7.62768e-05
7.14032e-06
7.37637e-05
5.6373e-06
7.15229e-05
4.55007e-06
6.95676e-05
3.74283e-06
6.78733e-05
3.1254e-06
6.64067e-05
2.6381e-06
6.51358e-05
2.24455e-06
6.40322e-05
1.92145e-06
6.30718e-05
1.65263e-06
6.22341e-05
1.42634e-06
6.15022e-05
1.23379e-06
6.08619e-05
1.06829e-06
6.03012e-05
9.2473e-07
5.98104e-05
7.99127e-07
5.93809e-05
6.88423e-07
5.90058e-05
5.90282e-07
5.8679e-05
5.02938e-07
5.83951e-05
4.25148e-07
5.81496e-05
3.56162e-07
5.7938e-05
2.95698e-07
5.77564e-05
2.43925e-07
5.76004e-05
2.01407e-07
5.74661e-05
1.69857e-07
5.73479e-05
1.50804e-07
5.72425e-05
1.50614e-07
5.71366e-05
1.6829e-07
5.70372e-05
2.2887e-07
3.18453e-07
5.688e-05
7.81466e-05
8.33553e-06
8.19225e-05
1.32455e-05
8.46178e-05
1.22106e-05
8.62398e-05
1.04452e-05
8.6918e-05
8.59642e-06
8.70054e-05
7.05289e-06
8.67447e-05
5.89794e-06
8.62785e-05
5.01634e-06
8.56982e-05
4.32312e-06
8.50597e-05
3.76392e-06
8.43975e-05
3.30025e-06
8.37344e-05
2.90768e-06
8.30858e-05
2.56998e-06
8.24626e-05
2.27586e-06
8.18713e-05
2.01771e-06
8.13154e-05
1.7896e-06
8.0797e-05
1.58673e-06
8.03165e-05
1.40526e-06
7.98735e-05
1.24208e-06
7.94673e-05
1.09469e-06
7.90964e-05
9.61141e-07
7.87594e-05
8.39932e-07
7.84546e-05
7.29997e-07
7.818e-05
6.30728e-07
7.79337e-05
5.41958e-07
7.77137e-05
4.6397e-07
7.75175e-05
3.97549e-07
7.73429e-05
3.44448e-07
7.71869e-05
3.06835e-07
7.70479e-05
2.89646e-07
7.692e-05
2.96155e-07
7.68094e-05
3.39503e-07
4.25915e-07
7.67019e-05
7.89914e-05
5.99999e-06
8.15906e-05
1.06462e-05
8.35169e-05
1.02843e-05
8.496e-05
9.00213e-06
8.59771e-05
7.5793e-06
8.6717e-05
6.31302e-06
8.7282e-05
5.33293e-06
8.77202e-05
4.57808e-06
8.80634e-05
3.97998e-06
8.83327e-05
3.49461e-06
8.85426e-05
3.09033e-06
8.87044e-05
2.74587e-06
8.88263e-05
2.44807e-06
8.89145e-05
2.18768e-06
8.8975e-05
1.95719e-06
8.90135e-05
1.75114e-06
8.90347e-05
1.56548e-06
8.90429e-05
1.39707e-06
8.90416e-05
1.24346e-06
8.90335e-05
1.10272e-06
8.90213e-05
9.73387e-07
8.90068e-05
8.54381e-07
8.89918e-05
7.45e-07
8.89776e-05
6.44922e-07
8.89654e-05
5.54212e-07
8.8956e-05
4.73344e-07
8.89503e-05
4.03243e-07
8.89492e-05
3.45562e-07
8.89536e-05
3.02445e-07
8.89657e-05
2.7753e-07
8.89876e-05
2.74295e-07
8.90273e-05
2.99757e-07
3.5724e-07
8.9096e-05
8.0463e-05
4.38289e-06
8.25049e-05
8.60442e-06
8.39904e-05
8.79874e-06
8.50491e-05
7.94343e-06
8.57709e-05
6.85748e-06
8.62843e-05
5.79959e-06
8.66907e-05
4.92656e-06
8.70372e-05
4.23157e-06
8.7347e-05
3.67015e-06
8.76318e-05
3.20987e-06
8.78964e-05
2.82569e-06
8.81434e-05
2.49884e-06
8.83751e-05
2.21642e-06
8.85933e-05
1.96945e-06
8.87992e-05
1.75126e-06
8.89937e-05
1.5567e-06
8.91774e-05
1.38178e-06
8.93511e-05
1.22337e-06
8.95155e-05
1.07904e-06
8.96713e-05
9.46857e-07
8.98194e-05
8.25378e-07
8.99602e-05
7.13523e-07
9.00946e-05
6.10576e-07
9.02234e-05
5.16162e-07
9.03474e-05
4.30248e-07
9.04676e-05
3.53145e-07
9.05853e-05
2.85502e-07
9.07024e-05
2.28458e-07
9.08214e-05
1.83425e-07
9.09464e-05
1.52514e-07
9.10834e-05
1.37319e-07
9.12427e-05
1.4046e-07
1.59097e-07
9.14409e-05
8.2234e-05
3.2474e-06
8.3894e-05
6.94446e-06
8.51812e-05
7.51151e-06
8.61144e-05
7.01026e-06
8.67557e-05
6.21614e-06
8.71953e-05
5.36e-06
8.7521e-05
4.60089e-06
8.77821e-05
3.97049e-06
8.80052e-05
3.447e-06
8.82058e-05
3.00927e-06
8.83921e-05
2.63944e-06
8.85683e-05
2.32265e-06
8.87368e-05
2.04784e-06
8.88993e-05
1.80698e-06
8.90567e-05
1.59393e-06
8.92095e-05
1.40389e-06
8.93582e-05
1.23308e-06
8.9503e-05
1.07852e-06
8.96442e-05
9.37817e-07
8.9782e-05
8.09086e-07
8.99165e-05
6.9086e-07
9.0048e-05
5.82033e-07
9.01768e-05
4.8182e-07
9.03032e-05
3.89738e-07
9.04279e-05
3.05581e-07
9.05516e-05
2.29411e-07
9.06756e-05
1.61517e-07
9.08016e-05
1.02457e-07
9.09322e-05
5.28083e-08
9.10714e-05
1.3302e-08
9.12249e-05
-1.62095e-08
9.14014e-05
-3.60058e-08
-5.14102e-08
9.16119e-05
8.42165e-05
2.44647e-06
8.55501e-05
5.61087e-06
8.66717e-05
6.38989e-06
8.75287e-05
6.15324e-06
8.81543e-05
5.59056e-06
8.86013e-05
4.91295e-06
8.89352e-05
4.26704e-06
8.91995e-05
3.70615e-06
8.942e-05
3.22651e-06
8.96127e-05
2.81657e-06
8.97872e-05
2.46495e-06
8.99491e-05
2.16077e-06
9.01018e-05
1.89511e-06
9.02476e-05
1.66113e-06
9.03881e-05
1.45345e-06
9.05243e-05
1.26773e-06
9.06569e-05
1.1005e-06
9.07864e-05
9.4894e-07
9.09135e-05
8.10793e-07
9.10383e-05
6.84243e-07
9.11613e-05
5.67846e-07
9.12829e-05
4.60486e-07
9.14034e-05
3.61327e-07
9.15233e-05
2.69781e-07
9.16434e-05
1.85481e-07
9.17646e-05
1.08239e-07
9.18881e-05
3.79721e-08
9.20159e-05
-2.53176e-08
9.21505e-05
-8.17431e-08
9.22954e-05
-1.31618e-07
9.24554e-05
-1.7628e-07
9.26374e-05
-2.17944e-07
-2.62442e-07
9.28484e-05
8.63719e-05
1.87333e-06
8.74407e-05
4.54201e-06
8.84117e-05
5.41893e-06
8.91887e-05
5.37622e-06
8.9785e-05
4.99429e-06
9.02312e-05
4.46675e-06
9.05745e-05
3.92374e-06
9.08514e-05
3.42926e-06
9.10844e-05
2.99347e-06
9.12882e-05
2.61278e-06
9.1472e-05
2.28116e-06
9.16416e-05
1.99123e-06
9.18005e-05
1.73614e-06
9.19514e-05
1.51023e-06
9.2096e-05
1.30888e-06
9.22355e-05
1.12825e-06
9.23708e-05
9.65179e-07
9.25027e-05
8.1707e-07
9.26317e-05
6.81797e-07
9.27583e-05
5.57621e-07
9.2883e-05
4.43136e-07
9.30063e-05
3.37212e-07
9.31286e-05
2.3896e-07
9.32507e-05
1.47691e-07
9.33733e-05
6.28732e-08
9.34975e-05
-1.59234e-08
9.36246e-05
-8.90918e-08
9.37563e-05
-1.57075e-07
9.38952e-05
-2.20584e-07
9.40443e-05
-2.80716e-07
9.42075e-05
-3.39539e-07
9.43898e-05
-4.00183e-07
-4.68022e-07
9.45953e-05
8.86674e-05
1.45598e-06
8.95241e-05
3.68522e-06
9.03616e-05
4.58149e-06
9.1063e-05
4.67475e-06
9.16257e-05
4.43165e-06
9.20647e-05
4.02771e-06
9.24121e-05
3.57636e-06
9.2697e-05
3.14438e-06
9.29389e-05
2.75155e-06
9.31511e-05
2.4006e-06
9.33425e-05
2.08979e-06
9.35188e-05
1.81489e-06
9.36839e-05
1.57102e-06
9.38404e-05
1.35373e-06
9.39901e-05
1.15918e-06
9.41343e-05
9.84028e-07
9.42741e-05
8.25459e-07
9.441e-05
6.81093e-07
9.45429e-05
5.4894e-07
9.46732e-05
4.27337e-07
9.48014e-05
3.14905e-07
9.49281e-05
2.10504e-07
9.50539e-05
1.13188e-07
9.51794e-05
2.21663e-08
9.53055e-05
-6.32465e-08
9.54333e-05
-1.43688e-07
9.5564e-05
-2.19835e-07
9.56995e-05
-2.92489e-07
9.58416e-05
-3.62768e-07
9.59932e-05
-4.32246e-07
9.6157e-05
-5.03327e-07
9.63362e-05
-5.79411e-07
-6.65079e-07
9.65332e-05
9.10811e-05
1.14619e-06
9.17699e-05
2.99646e-06
9.24911e-05
3.86022e-06
9.31236e-05
4.04224e-06
9.36517e-05
3.90362e-06
9.40796e-05
3.59983e-06
9.44274e-05
3.22851e-06
9.47177e-05
2.85412e-06
9.49669e-05
2.50232e-06
9.51868e-05
2.18073e-06
9.53855e-05
1.89104e-06
9.55687e-05
1.6317e-06
9.57401e-05
1.39962e-06
9.59023e-05
1.19149e-06
9.60573e-05
1.00422e-06
9.62063e-05
8.34986e-07
9.63505e-05
6.81296e-07
9.64906e-05
5.40992e-07
9.66273e-05
4.12223e-07
9.67612e-05
2.93407e-07
9.68929e-05
1.83198e-07
9.7023e-05
8.04439e-08
9.7152e-05
-1.58494e-08
9.72808e-05
-1.0656e-07
9.741e-05
-1.92499e-07
9.75408e-05
-2.74478e-07
9.76744e-05
-3.53385e-07
9.78121e-05
-4.30271e-07
9.79559e-05
-5.06507e-07
9.81075e-05
-5.83888e-07
9.82691e-05
-6.6486e-07
9.84423e-05
-7.52683e-07
-8.51028e-07
9.86283e-05
9.35994e-05
9.11408e-07
9.41559e-05
2.43995e-06
9.47765e-05
3.23968e-06
9.53456e-05
3.47308e-06
9.58388e-05
3.41044e-06
9.62529e-05
3.18571e-06
9.65991e-05
2.88238e-06
9.68935e-05
2.55974e-06
9.71494e-05
2.24635e-06
9.73769e-05
1.95325e-06
9.75832e-05
1.68474e-06
9.77736e-05
1.44136e-06
9.79516e-05
1.22158e-06
9.812e-05
1.02314e-06
9.82805e-05
8.43649e-07
9.84347e-05
6.80783e-07
9.85836e-05
5.3238e-07
9.87281e-05
3.96501e-07
9.88689e-05
2.71439e-07
9.90066e-05
1.55695e-07
9.91419e-05
4.79593e-08
9.92752e-05
-5.29226e-08
9.94074e-05
-1.47978e-07
9.9539e-05
-2.38153e-07
9.96708e-05
-3.24359e-07
9.98039e-05
-4.0753e-07
9.99392e-05
-4.88692e-07
0.000100078
-5.69043e-07
0.000100221
-6.50053e-07
0.000100371
-7.3355e-07
0.000100528
-8.21826e-07
0.000100693
-9.17785e-07
-1.02422e-06
0.000100866
9.62138e-05
7.29659e-07
9.66667e-05
1.9871e-06
9.72008e-05
2.70554e-06
9.77125e-05
2.96137e-06
9.81718e-05
2.95114e-06
9.85704e-05
2.78713e-06
9.89126e-05
2.54019e-06
9.92092e-05
2.26312e-06
9.94706e-05
1.98499e-06
9.97048e-05
1.71898e-06
9.99184e-05
1.47121e-06
0.000100116
1.24385e-06
0.000100301
1.03667e-06
0.000100476
8.4832e-07
0.000100642
6.77064e-07
0.000100802
5.21022e-07
0.000100956
3.78346e-07
0.000101105
2.47313e-07
0.00010125
1.26354e-07
0.000101392
1.40519e-08
0.000101531
-9.08605e-08
0.000101667
-1.89526e-07
0.000101802
-2.82994e-07
0.000101936
-3.72254e-07
0.00010207
-4.58281e-07
0.000102205
-5.4208e-07
0.000102341
-6.24747e-07
0.000102479
-7.07527e-07
0.000102621
-7.9188e-07
0.000102767
-8.79532e-07
0.000102918
-9.72505e-07
0.000103073
-1.07325e-06
-1.18375e-06
0.000103233
9.89194e-05
5.85985e-07
9.92912e-05
1.6153e-06
9.9752e-05
2.24475e-06
0.000100212
2.50132e-06
0.000100639
2.52427e-06
0.000101021
2.40523e-06
0.000101357
2.20378e-06
0.000101655
1.96582e-06
0.00010192
1.71933e-06
0.000102161
1.47855e-06
0.000102381
1.25075e-06
0.000102586
1.03926e-06
0.000102777
8.44844e-07
0.000102959
6.66938e-07
0.000103132
5.04343e-07
0.000103297
3.55586e-07
0.000103456
2.19106e-07
0.00010361
9.33797e-08
0.00010376
-2.30315e-08
0.000103905
-1.31455e-07
0.000104047
-2.33109e-07
0.000104187
-3.29119e-07
0.000104324
-4.20536e-07
0.000104461
-5.08368e-07
0.000104596
-5.93616e-07
0.000104731
-6.77309e-07
0.000104867
-7.6055e-07
0.000105004
-8.44555e-07
0.000105143
-9.30691e-07
0.000105284
-1.0205e-06
0.000105427
-1.11567e-06
0.000105572
-1.21819e-06
-1.32936e-06
0.000105717
0.000101714
4.70077e-07
0.000102022
1.30677e-06
0.000102421
1.84566e-06
0.000102835
2.08719e-06
0.000103232
2.12774e-06
0.000103597
2.04026e-06
0.000103926
1.87431e-06
0.000104223
1.6691e-06
0.000104492
1.45048e-06
0.000104738
1.23279e-06
0.000104965
1.02392e-06
0.000105176
8.27908e-07
0.000105374
6.46271e-07
0.000105562
4.79034e-07
0.000105741
3.25461e-07
0.000105912
1.84418e-07
0.000106077
5.46004e-08
0.000106236
-6.53389e-08
0.000106389
-1.7671e-07
0.000106539
-2.80758e-07
0.000106684
-3.78646e-07
0.000106827
-4.71471e-07
0.000106966
-5.60268e-07
0.000107104
-6.4604e-07
0.00010724
-7.29779e-07
0.000107375
-8.12496e-07
0.00010751
-8.95252e-07
0.000107645
-9.79178e-07
0.000107779
-1.06549e-06
0.000107914
-1.15551e-06
0.000108049
-1.25059e-06
0.000108183
-1.35223e-06
-1.46121e-06
0.000108315
0.000104596
3.74725e-07
0.000104855
1.04767e-06
0.000105203
1.49799e-06
0.000105576
1.71336e-06
0.000105945
1.75906e-06
0.000106293
1.69187e-06
0.000106615
1.55251e-06
0.00010691
1.37395e-06
0.000107182
1.1793e-06
0.000107432
9.8236e-07
0.000107665
7.9114e-07
0.000107883
6.10048e-07
0.000108088
4.41061e-07
0.000108282
2.84646e-07
0.000108467
1.40416e-07
0.000108644
7.51339e-09
0.000108814
-1.15159e-07
0.000108977
-2.2879e-07
0.000109135
-3.34579e-07
0.000109288
-4.33689e-07
0.000109437
-5.27231e-07
0.000109582
-6.16258e-07
0.000109723
-7.01776e-07
0.000109862
-7.84758e-07
0.000109998
-8.6616e-07
0.000110133
-9.46942e-07
0.000110265
-1.02808e-06
0.000110397
-1.1106e-06
0.000110527
-1.19552e-06
0.000110655
-1.28393e-06
0.000110782
-1.37685e-06
0.000110905
-1.47539e-06
-1.57989e-06
0.000111023
0.000107566
2.94787e-07
0.000107786
8.27141e-07
0.000108092
1.19275e-06
0.000108431
1.37441e-06
0.000108774
1.41545e-06
0.000109107
1.35915e-06
0.000109421
1.23852e-06
0.000109714
1.08089e-06
0.000109987
9.06391e-07
0.000110241
7.2779e-07
0.00011048
5.52819e-07
0.000110704
3.85947e-07
0.000110916
2.29387e-07
0.000111116
8.38755e-08
0.000111307
-5.07309e-08
0.00011149
-1.75086e-07
0.000111665
-2.90122e-07
0.000111833
-3.96903e-07
0.000111995
-4.96532e-07
0.000112152
-5.90097e-07
0.000112303
-6.78651e-07
0.00011245
-7.63201e-07
0.000112593
-8.44708e-07
0.000112732
-9.24097e-07
0.000112868
-1.00227e-06
0.000113001
-1.0801e-06
0.000113132
-1.15847e-06
0.000113259
-1.23826e-06
0.000113384
-1.32031e-06
0.000113506
-1.40545e-06
0.000113623
-1.49443e-06
0.000113736
-1.58801e-06
-1.68618e-06
0.000113842
0.000110625
2.26517e-07
0.000110816
6.36694e-07
0.000111086
9.22201e-07
0.000111395
1.0652e-06
0.000111717
1.09391e-06
0.000112035
1.04074e-06
0.000112342
9.32018e-07
0.000112633
7.90092e-07
0.000112907
6.32087e-07
0.000113165
4.6941e-07
0.000113409
3.09217e-07
0.000113639
1.55787e-07
0.000113857
1.13554e-08
0.000114064
-1.23219e-07
0.000114261
-2.47943e-07
0.00011445
-3.63341e-07
0.00011463
-4.70234e-07
0.000114802
-5.69589e-07
0.000114968
-6.62432e-07
0.000115128
-7.49789e-07
0.000115282
-8.32655e-07
0.000115431
-9.11986e-07
0.000115575
-9.88688e-07
0.000115714
-1.06363e-06
0.00011585
-1.13763e-06
0.000115981
-1.21148e-06
0.000116109
-1.28594e-06
0.000116232
-1.36174e-06
0.000116351
-1.43955e-06
0.000116466
-1.51998e-06
0.000116575
-1.60352e-06
0.000116678
-1.69064e-06
-1.78113e-06
0.000116772
0.000113775
1.67118e-07
0.000113942
4.69607e-07
0.000114185
6.79623e-07
0.000114469
7.80848e-07
0.000114772
7.91316e-07
0.000115077
7.34876e-07
0.000115377
6.32203e-07
0.000115666
5.01289e-07
0.000115942
3.56363e-07
0.000116204
2.07279e-07
0.000116453
6.03991e-08
0.000116689
-8.03966e-08
0.000116913
-2.13023e-07
0.000117127
-3.36644e-07
0.00011733
-4.51231e-07
0.000117524
-5.57255e-07
0.000117709
-6.55472e-07
0.000117886
-7.46793e-07
0.000118056
-8.32187e-07
0.000118219
-9.12626e-07
0.000118375
-9.89056e-07
0.000118526
-1.06238e-06
0.00011867
-1.13344e-06
0.00011881
-1.20303e-06
0.000118944
-1.27191e-06
0.000119073
-1.34076e-06
0.000119198
-1.41022e-06
0.000119317
-1.48087e-06
0.00011943
-1.55321e-06
0.000119538
-1.62767e-06
0.000119639
-1.70452e-06
0.000119733
-1.78403e-06
-1.86578e-06
0.000119817
0.000117017
1.14448e-07
0.000117166
3.20495e-07
0.000117387
4.59219e-07
0.000117651
5.16744e-07
0.000117938
5.04401e-07
0.000118233
4.3946e-07
0.000118527
3.37864e-07
0.000118815
2.13828e-07
0.000119092
7.88719e-08
0.000119358
-5.87879e-08
0.000119612
-1.93745e-07
0.000119855
-3.22679e-07
0.000120086
-4.43808e-07
0.000120305
-5.56444e-07
0.000120515
-6.6062e-07
0.000120714
-7.56821e-07
0.000120905
-8.45796e-07
0.000121086
-9.28432e-07
0.00012126
-1.00567e-06
0.000121426
-1.07843e-06
0.000121584
-1.14763e-06
0.000121736
-1.21411e-06
0.000121881
-1.27866e-06
0.00012202
-1.34201e-06
0.000122153
-1.40481e-06
0.00012228
-1.46767e-06
0.000122401
-1.53109e-06
0.000122515
-1.59553e-06
0.000122624
-1.66134e-06
0.000122725
-1.72878e-06
0.000122818
-1.79798e-06
0.000122903
-1.86901e-06
-1.94138e-06
0.000122979
0.000120354
6.68125e-08
0.000120489
1.8496e-07
0.000120693
2.55909e-07
0.000120941
2.68521e-07
0.000121215
2.29812e-07
0.000121503
1.52084e-07
0.000121793
4.73658e-08
0.00012208
-7.33862e-08
0.00012236
-2.01142e-07
0.000122631
-3.29343e-07
0.000122891
-4.53647e-07
0.00012314
-5.71419e-07
0.000123377
-6.81307e-07
0.000123604
-7.8288e-07
0.000123819
-8.76323e-07
0.000124025
-9.62206e-07
0.00012422
-1.04132e-06
0.000124406
-1.11457e-06
0.000124584
-1.18288e-06
0.000124752
-1.24716e-06
0.000124913
-1.30829e-06
0.000125066
-1.36706e-06
0.000125211
-1.42421e-06
0.00012535
-1.4804e-06
0.000125481
-1.5362e-06
0.000125606
-1.5921e-06
0.000125723
-1.64853e-06
0.000125833
-1.70581e-06
0.000125936
-1.76417e-06
0.000126031
-1.82374e-06
0.000126118
-1.88451e-06
0.000126195
-1.94643e-06
-2.00895e-06
0.000126263
0.000123787
2.28269e-08
0.000123913
5.93122e-08
0.000124104
6.51748e-08
0.00012434
3.19942e-08
0.000124606
-3.59114e-08
0.000124888
-1.29947e-07
0.000125176
-2.41298e-07
0.000125465
-3.61819e-07
0.000125749
-4.84754e-07
0.000126024
-6.05186e-07
0.000126291
-7.19907e-07
0.000126546
-8.27071e-07
0.000126791
-9.25862e-07
0.000127024
-1.0162e-06
0.000127246
-1.09851e-06
0.000127458
-1.17351e-06
0.000127658
-1.24208e-06
0.000127849
-1.30517e-06
0.00012803
-1.36374e-06
0.000128201
-1.41869e-06
0.000128364
-1.47087e-06
0.000128518
-1.52105e-06
0.000128664
-1.5699e-06
0.000128801
-1.61802e-06
0.000128931
-1.66591e-06
0.000129053
-1.71397e-06
0.000129167
-1.76254e-06
0.000129273
-1.81183e-06
0.000129371
-1.86197e-06
0.00012946
-1.91299e-06
0.00012954
-1.96479e-06
0.000129611
-2.01724e-06
-2.06976e-06
0.000129672
0.00012732
-1.86923e-08
0.000127439
-5.96515e-08
0.000127621
-1.17122e-07
0.00012785
-1.96939e-07
0.000128111
-2.96411e-07
0.00012839
-4.09697e-07
0.00012868
-5.30623e-07
0.000128971
-6.53485e-07
0.00012926
-7.73606e-07
0.000129543
-8.87673e-07
0.000129817
-9.93662e-07
0.00013008
-1.0906e-06
0.000130333
-1.17828e-06
0.000130573
-1.25709e-06
0.000130803
-1.32775e-06
0.00013102
-1.39118e-06
0.000131227
-1.44842e-06
0.000131422
-1.50051e-06
0.000131607
-1.54843e-06
0.000131781
-1.59313e-06
0.000131946
-1.63543e-06
0.000132101
-1.67608e-06
0.000132247
-1.71571e-06
0.000132383
-1.75486e-06
0.000132511
-1.79396e-06
0.000132631
-1.83334e-06
0.000132741
-1.87325e-06
0.000132843
-1.91382e-06
0.000132937
-1.9551e-06
0.000133021
-1.99703e-06
0.000133095
-2.03945e-06
0.00013316
-2.08216e-06
-2.12458e-06
0.000133215
0.000130955
-5.87966e-08
0.00013107
-1.74832e-07
0.000131248
-2.94889e-07
0.000131473
-4.22364e-07
0.000131732
-5.55495e-07
0.000132013
-6.90503e-07
0.000132306
-8.23411e-07
0.000132603
-9.5067e-07
0.000132899
-1.06953e-06
0.00013319
-1.17826e-06
0.000133472
-1.27607e-06
0.000133744
-1.3629e-06
0.000134005
-1.43927e-06
0.000134254
-1.50608e-06
0.000134491
-1.56442e-06
0.000134715
-1.6155e-06
0.000134927
-1.66052e-06
0.000135128
-1.70066e-06
0.000135316
-1.73698e-06
0.000135494
-1.77044e-06
0.00013566
-1.8019e-06
0.000135816
-1.83207e-06
0.000135962
-1.86156e-06
0.000136098
-1.89085e-06
0.000136224
-1.92033e-06
0.000136341
-1.95025e-06
0.000136449
-1.98079e-06
0.000136547
-2.01202e-06
0.000136636
-2.04391e-06
0.000136715
-2.07637e-06
0.000136785
-2.10917e-06
0.000136845
-2.14211e-06
-2.17461e-06
0.000136895
0.000134695
-9.84842e-08
0.000134809
-2.89022e-07
0.000134986
-4.72038e-07
0.000135212
-6.48604e-07
0.000135474
-8.1745e-07
0.00013576
-9.76385e-07
0.00013606
-1.12331e-06
0.000136366
-1.25661e-06
0.000136672
-1.37538e-06
0.000136973
-1.47944e-06
0.000137266
-1.56925e-06
0.000137549
-1.64579e-06
0.00013782
-1.71036e-06
0.000138079
-1.76443e-06
0.000138324
-1.80956e-06
0.000138556
-1.84728e-06
0.000138774
-1.87903e-06
0.00013898
-1.90612e-06
0.000139172
-1.92973e-06
0.000139353
-1.95088e-06
0.000139521
-1.97044e-06
0.000139678
-1.98913e-06
0.000139824
-2.00752e-06
0.000139959
-2.02606e-06
0.000140084
-2.04508e-06
0.000140199
-2.0648e-06
0.000140303
-2.08531e-06
0.000140398
-2.10664e-06
0.000140483
-2.12872e-06
0.000140558
-2.15138e-06
0.000140623
-2.17438e-06
0.000140678
-2.19748e-06
-2.2201e-06
0.000140724
0.000138543
-1.38753e-07
0.000138658
-4.0502e-07
0.000138839
-6.52547e-07
0.000139071
-8.8012e-07
0.00013934
-1.08672e-06
0.000139635
-1.27146e-06
0.000139946
-1.43394e-06
0.000140263
-1.57441e-06
0.000140582
-1.69374e-06
0.000140896
-1.79332e-06
0.000141201
-1.87496e-06
0.000141496
-1.9407e-06
0.000141778
-1.99269e-06
0.000142047
-2.03307e-06
0.000142301
-2.06391e-06
0.000142541
-2.08711e-06
0.000142767
-2.10437e-06
0.000142978
-2.11721e-06
0.000143175
-2.12693e-06
0.000143359
-2.13461e-06
0.000143529
-2.14117e-06
0.000143688
-2.14733e-06
0.000143834
-2.15365e-06
0.000143968
-2.16055e-06
0.000144091
-2.16832e-06
0.000144204
-2.17712e-06
0.000144305
-2.18701e-06
0.000144397
-2.19796e-06
0.000144478
-2.20987e-06
0.000144549
-2.22253e-06
0.00014461
-2.23571e-06
0.000144662
-2.24914e-06
-2.26229e-06
0.000144704
0.000142501
-1.8071e-07
0.000142622
-5.2596e-07
0.000142811
-8.41035e-07
0.000143053
-1.12239e-06
0.000143335
-1.36914e-06
0.000143645
-1.58159e-06
0.000143972
-1.76094e-06
0.000144307
-1.90926e-06
0.000144643
-2.02927e-06
0.000144974
-2.12401e-06
0.000145295
-2.19669e-06
0.000145605
-2.25054e-06
0.000145901
-2.28866e-06
0.000146182
-2.31393e-06
0.000146447
-2.32898e-06
0.000146696
-2.33613e-06
0.000146929
-2.33741e-06
0.000147146
-2.33454e-06
0.000147348
-2.32897e-06
0.000147536
-2.32188e-06
0.000147709
-2.31422e-06
0.000147868
-2.30673e-06
0.000148014
-2.29996e-06
0.000148148
-2.2943e-06
0.00014827
-2.29001e-06
0.00014838
-2.2872e-06
0.000148479
-2.28589e-06
0.000148567
-2.28603e-06
0.000148644
-2.28744e-06
0.000148712
-2.28991e-06
0.000148769
-2.29316e-06
0.000148817
-2.29692e-06
-2.30064e-06
0.000148855
0.000146574
-2.25527e-07
0.000146703
-6.55159e-07
0.000146905
-1.04221e-06
0.000147163
-1.38069e-06
0.000147464
-1.66997e-06
0.000147794
-1.91166e-06
0.000148141
-2.10867e-06
0.000148497
-2.26502e-06
0.000148853
-2.38533e-06
0.000149204
-2.47443e-06
0.000149544
-2.53701e-06
0.000149871
-2.57757e-06
0.000150183
-2.60023e-06
0.000150477
-2.60869e-06
0.000150755
-2.6062e-06
0.000151014
-2.59557e-06
0.000151256
-2.57916e-06
0.00015148
-2.55894e-06
0.000151688
-2.53654e-06
0.000151879
-2.51323e-06
0.000152055
-2.49001e-06
0.000152216
-2.46766e-06
0.000152363
-2.44671e-06
0.000152496
-2.42753e-06
0.000152616
-2.41035e-06
0.000152724
-2.39524e-06
0.000152821
-2.38219e-06
0.000152906
-2.37108e-06
0.00015298
-2.36174e-06
0.000153044
-2.35392e-06
0.000153098
-2.34733e-06
0.000153143
-2.34172e-06
-2.33655e-06
0.000153179
0.000150765
-2.74927e-07
0.000150907
-7.97457e-07
0.000151129
-1.26336e-06
0.000151412
-1.66391e-06
0.000151741
-1.99891e-06
0.0001521
-2.27148e-06
0.000152478
-2.48643e-06
0.000152863
-2.65003e-06
0.000153247
-2.76915e-06
0.000153623
-2.85059e-06
0.000153987
-2.90077e-06
0.000154335
-2.92558e-06
0.000154665
-2.93029e-06
0.000154976
-2.91949e-06
0.000155267
-2.8971e-06
0.000155538
-2.86644e-06
0.000155789
-2.83024e-06
0.000156021
-2.79075e-06
0.000156234
-2.74974e-06
0.000156429
-2.70859e-06
0.000156607
-2.66838e-06
0.00015677
-2.62986e-06
0.000156917
-2.5936e-06
0.000157049
-2.55992e-06
0.000157168
-2.52901e-06
0.000157273
-2.50091e-06
0.000157367
-2.47555e-06
0.000157448
-2.45279e-06
0.000157519
-2.43241e-06
0.000157579
-2.41412e-06
0.000157629
-2.39759e-06
0.00015767
-2.38252e-06
-2.36835e-06
0.000157702
0.000155077
-3.30318e-07
0.000155237
-9.56995e-07
0.000155483
-1.50992e-06
0.000155797
-1.97769e-06
0.000156159
-2.36142e-06
0.000156554
-2.66629e-06
0.000156967
-2.89939e-06
0.000157387
-3.06947e-06
0.000157803
-3.18586e-06
0.00015821
-3.25753e-06
0.000158602
-3.29278e-06
0.000158976
-3.29907e-06
0.000159328
-3.28293e-06
0.000159659
-3.24996e-06
0.000159967
-3.20483e-06
0.000160252
-3.15143e-06
0.000160514
-3.09292e-06
0.000160755
-3.0318e-06
0.000160976
-2.97004e-06
0.000161176
-2.90915e-06
0.000161358
-2.85022e-06
0.000161522
-2.79405e-06
0.00016167
-2.74116e-06
0.000161802
-2.69187e-06
0.000161919
-2.6463e-06
0.000162023
-2.60445e-06
0.000162113
-2.56622e-06
0.000162192
-2.5314e-06
0.000162259
-2.49973e-06
0.000162316
-2.4709e-06
0.000162363
-2.44458e-06
0.000162401
-2.42046e-06
-2.39797e-06
0.00016243
0.000159516
-3.95935e-07
0.000159704
-1.14474e-06
0.000159992
-1.79785e-06
0.000160355
-2.34056e-06
0.00016077
-2.77633e-06
0.000161217
-3.11342e-06
0.00016168
-3.36222e-06
0.000162145
-3.535e-06
0.000162604
-3.64428e-06
0.000163048
-3.7016e-06
0.000163472
-3.71741e-06
0.000163874
-3.70087e-06
0.000164251
-3.65985e-06
0.000164602
-3.60096e-06
0.000164927
-3.52968e-06
0.000165226
-3.45045e-06
0.0001655
-3.36682e-06
0.00016575
-3.28156e-06
0.000165976
-3.19682e-06
0.000166181
-3.11417e-06
0.000166366
-3.03478e-06
0.000166531
-2.95943e-06
0.000166679
-2.88861e-06
0.000166809
-2.82257e-06
0.000166925
-2.76141e-06
0.000167025
-2.70505e-06
0.000167112
-2.65333e-06
0.000167187
-2.60598e-06
0.00016725
-2.56269e-06
0.000167302
-2.52309e-06
0.000167344
-2.48679e-06
0.000167377
-2.45339e-06
-2.42226e-06
0.000167401
0.000164082
-4.71552e-07
0.0001643
-1.36279e-06
0.000164631
-2.12924e-06
0.000165046
-2.75503e-06
0.000165517
-3.24811e-06
0.000166024
-3.62007e-06
0.000166546
-3.88464e-06
0.00016707
-4.05812e-06
0.000167582
-4.1567e-06
0.000168075
-4.19505e-06
0.000168544
-4.18619e-06
0.000168985
-4.1414e-06
0.000169395
-4.07014e-06
0.000169774
-3.98026e-06
0.000170123
-3.8781e-06
0.000170441
-3.76874e-06
0.00017073
-3.65614e-06
0.000170992
-3.54335e-06
0.000171228
-3.43265e-06
0.00017144
-3.32571e-06
0.000171628
-3.22365e-06
0.000171796
-3.12724e-06
0.000171945
-3.0369e-06
0.000172075
-2.95282e-06
0.000172188
-2.87498e-06
0.000172287
-2.80325e-06
0.000172371
-2.73738e-06
0.000172442
-2.67704e-06
0.000172501
-2.62185e-06
0.000172549
-2.57143e-06
0.000172588
-2.52531e-06
0.000172617
-2.48313e-06
-2.4442e-06
0.000172639
0.000168795
-5.74453e-07
0.000169079
-1.64694e-06
0.000169498
-2.54803e-06
0.000170005
-3.26287e-06
0.000170568
-3.81049e-06
0.000171158
-4.20997e-06
0.000171754
-4.48136e-06
0.000172343
-4.64668e-06
0.000172913
-4.72639e-06
0.000173456
-4.73835e-06
0.000173968
-4.69812e-06
0.000174446
-4.619e-06
0.000174887
-4.51198e-06
0.000175293
-4.38606e-06
0.000175663
-4.24842e-06
0.000176
-4.10474e-06
0.000176303
-3.9594e-06
0.000176575
-3.81568e-06
0.000176818
-3.67599e-06
0.000177035
-3.54205e-06
0.000177226
-3.41498e-06
0.000177394
-3.29546e-06
0.000177541
-3.18384e-06
0.000177669
-3.08019e-06
0.000177778
-2.98441e-06
0.000177871
-2.89623e-06
0.000177949
-2.81533e-06
0.000178013
-2.74128e-06
0.000178065
-2.67363e-06
0.000178105
-2.6119e-06
0.000178136
-2.55556e-06
0.000178157
-2.50411e-06
-2.45676e-06
0.000178169
0.000173623
-6.85777e-07
0.000173953
-1.97718e-06
0.000174443
-3.03828e-06
0.000175043
-3.86295e-06
0.000175713
-4.47982e-06
0.000176415
-4.91227e-06
0.000177121
-5.18792e-06
0.000177812
-5.3374e-06
0.000178473
-5.38758e-06
0.000179096
-5.36111e-06
0.000179675
-5.27729e-06
0.000180208
-5.15214e-06
0.000180695
-4.99861e-06
0.000181136
-4.82705e-06
0.000181533
-4.64554e-06
0.000181889
-4.46032e-06
0.000182205
-4.27608e-06
0.000182486
-4.09625e-06
0.000182733
-3.92326e-06
0.00018295
-3.75876e-06
0.000183139
-3.60373e-06
0.000183302
-3.45871e-06
0.000183442
-3.32387e-06
0.000183561
-3.19911e-06
0.000183661
-3.08414e-06
0.000183743
-2.97857e-06
0.00018381
-2.88191e-06
0.000183862
-2.79366e-06
0.000183902
-2.71327e-06
0.00018393
-2.64023e-06
0.000183948
-2.57397e-06
0.000183958
-2.51404e-06
-2.45951e-06
0.000183961
0.000178682
-8.9923e-07
0.000179189
-2.48463e-06
0.000179861
-3.70976e-06
0.000180617
-4.619e-06
0.000181416
-5.27876e-06
0.000182225
-5.72165e-06
0.000183021
-5.98379e-06
0.000183787
-6.10329e-06
0.000184511
-6.11183e-06
0.000185186
-6.03609e-06
0.000185808
-5.89885e-06
0.000186375
-5.71885e-06
0.000186887
-5.51098e-06
0.000187347
-5.28697e-06
0.000187757
-5.05584e-06
0.000188121
-4.82435e-06
0.000188443
-4.59744e-06
0.000188725
-4.37861e-06
0.000188972
-4.1702e-06
0.000189187
-3.97366e-06
0.000189373
-3.78977e-06
0.000189533
-3.61878e-06
0.00018967
-3.46061e-06
0.000189785
-3.3149e-06
0.000189882
-3.18111e-06
0.000189962
-3.05864e-06
0.000190027
-2.94681e-06
0.000190079
-2.84496e-06
0.000190118
-2.75247e-06
0.000190146
-2.66874e-06
0.000190166
-2.59322e-06
0.000190177
-2.52542e-06
-2.46434e-06
0.000190182
0.000183745
-1.07733e-06
0.000184336
-3.07537e-06
0.000185168
-4.54121e-06
0.000186136
-5.58778e-06
0.000187161
-6.30282e-06
0.000188177
-6.73762e-06
0.000189151
-6.95789e-06
0.000190068
-7.02069e-06
0.000190923
-6.96659e-06
0.000191714
-6.82749e-06
0.000192444
-6.62908e-06
0.000193117
-6.39127e-06
0.000193735
-6.12932e-06
0.000194303
-5.85494e-06
0.000194824
-5.57694e-06
0.000195302
-5.30188e-06
0.000195739
-5.03448e-06
0.000196138
-4.77807e-06
0.000196503
-4.53485e-06
0.000196835
-4.30611e-06
0.000197138
-4.0925e-06
0.000197413
-3.89413e-06
0.000197664
-3.71075e-06
0.000197891
-3.54184e-06
0.000198096
-3.38671e-06
0.000198282
-3.2446e-06
0.00019845
-3.11471e-06
0.000198601
-2.99629e-06
0.000198738
-2.88873e-06
0.00019886
-2.79147e-06
0.000198971
-2.70437e-06
0.000199073
-2.627e-06
-2.55961e-06
0.000199168
0.000189417
-1.68269e-06
0.000190404
-4.06249e-06
0.000191485
-5.62153e-06
0.000192642
-6.74482e-06
0.000193882
-7.54328e-06
0.000195185
-8.04046e-06
0.00019653