/*--------------------------------*- C++ -*----------------------------------*\
| =========                 |                                                 |
| \\      /  F ield         | OpenFOAM: The Open Source CFD Toolbox           |
|  \\    /   O peration     | Version:  2.1.1                                 |
|   \\  /    A nd           | Web:      www.OpenFOAM.org                      |
|    \\/     M anipulation  |                                                 |
\*---------------------------------------------------------------------------*/
FoamFile
{
    version     2.0;
    format      ascii;
    class       volVectorField;
    location    "0.14";
    object      U;
}
// * * * * * * * * * * * * * * * * * * * * * * * * * * * * * * * * * * * * * //

dimensions      [0 1 -1 0 0 0 0];

internalField   nonuniform List<vector> 
6820
(
(6.37605 0.503727 0)
(4.42452 0.286842 0)
(2.97403 0.0201759 0)
(2.23513 -0.0619545 0)
(1.96989 -0.0600419 0)
(1.8435 -0.0346244 0)
(1.76907 -0.0152093 0)
(1.71749 -0.00482957 0)
(1.67471 -0.000125397 0)
(1.6377 0.00138313 0)
(1.60588 0.00136354 0)
(1.57876 0.00075182 0)
(1.55586 -1.93352e-05 0)
(1.53664 -0.000760793 0)
(1.52058 -0.00139831 0)
(1.50725 -0.00191424 0)
(1.49625 -0.00231656 0)
(1.4873 -0.00262204 0)
(1.48014 -0.00284799 0)
(1.47456 -0.00300904 0)
(1.47039 -0.0031146 0)
(1.46748 -0.00317077 0)
(1.46567 -0.00317386 0)
(1.46487 -0.00311876 0)
(1.46488 -0.00311838 0)
(1.46553 -0.00306933 0)
(1.46654 -0.00294093 0)
(1.4678 -0.00267361 0)
(1.46844 -0.00235408 0)
(1.46941 -0.00138551 0)
(1.46502 -0.0011407 0)
(1.46835 0.00676128 0)
(1.42421 -0.0143141 0)
(8.72021 0.959568 0)
(8.76492 1.01179 0)
(7.96938 0.678817 0)
(7.05642 0.393659 0)
(6.35604 0.202163 0)
(5.85043 0.10301 0)
(5.48938 0.0574726 0)
(5.22903 0.0369112 0)
(5.03443 0.0276443 0)
(4.88337 0.0230355 0)
(4.76246 0.020234 0)
(4.66332 0.0181865 0)
(4.58057 0.0164986 0)
(4.51061 0.0150053 0)
(4.45096 0.0136257 0)
(4.3998 0.0123178 0)
(4.35578 0.0110602 0)
(4.31786 0.00984241 0)
(4.28523 0.00865983 0)
(4.25725 0.00751156 0)
(4.23337 0.00640161 0)
(4.21317 0.00533621 0)
(4.19624 0.00431907 0)
(4.18224 0.00340118 0)
(4.1708 0.00257555 0)
(4.16164 0.00187852 0)
(4.15441 0.00137408 0)
(4.1487 0.00121553 0)
(4.14399 0.00135097 0)
(4.13992 0.00258776 0)
(4.13516 0.00368802 0)
(4.13147 0.00993443 0)
(4.1255 0.0131429 0)
(8.58611 0.583394 0)
(9.3313 0.762079 0)
(9.61459 0.659725 0)
(9.50491 0.525993 0)
(9.23925 0.396351 0)
(8.92749 0.298402 0)
(8.62248 0.229491 0)
(8.34738 0.180004 0)
(8.10643 0.143962 0)
(7.89734 0.117184 0)
(7.71639 0.0967565 0)
(7.55974 0.0808157 0)
(7.42385 0.0681439 0)
(7.30572 0.0579118 0)
(7.20278 0.0495228 0)
(7.1129 0.042533 0)
(7.0343 0.0366104 0)
(6.9655 0.0315087 0)
(6.90526 0.027045 0)
(6.85252 0.0230847 0)
(6.8064 0.0195302 0)
(6.76617 0.0163124 0)
(6.73117 0.0133901 0)
(6.70083 0.0107397 0)
(6.67464 0.00838861 0)
(6.65213 0.00637828 0)
(6.63282 0.00476478 0)
(6.61625 0.00369356 0)
(6.60186 0.00329569 0)
(6.58915 0.00412238 0)
(6.57733 0.00595592 0)
(6.56545 0.0111384 0)
(6.55334 0.0164628 0)
(8.44093 0.379613 0)
(8.9459 0.583783 0)
(9.35835 0.554122 0)
(9.58613 0.486432 0)
(9.70042 0.406313 0)
(9.73673 0.336994 0)
(9.72165 0.284337 0)
(9.67749 0.244015 0)
(9.61714 0.212387 0)
(9.54787 0.186864 0)
(9.47439 0.165594 0)
(9.3998 0.147444 0)
(9.32609 0.131698 0)
(9.25474 0.117855 0)
(9.18668 0.10558 0)
(9.12245 0.0946246 0)
(9.06234 0.0847857 0)
(9.00647 0.0758949 0)
(8.95484 0.0678121 0)
(8.90737 0.0604227 0)
(8.86394 0.0536363 0)
(8.8244 0.0473847 0)
(8.78854 0.0416229 0)
(8.75619 0.0363363 0)
(8.72711 0.0315336 0)
(8.70108 0.0272558 0)
(8.67787 0.0235849 0)
(8.6572 0.0206881 0)
(8.63879 0.0187577 0)
(8.62235 0.0182731 0)
(8.60762 0.0194931 0)
(8.59401 0.023856 0)
(8.58312 0.0320266 0)
(8.40214 0.279971 0)
(8.71899 0.480395 0)
(8.99891 0.461435 0)
(9.17441 0.40375 0)
(9.29893 0.341544 0)
(9.39241 0.288929 0)
(9.46161 0.249737 0)
(9.51468 0.219974 0)
(9.55648 0.196327 0)
(9.58937 0.176896 0)
(9.6151 0.16042 0)
(9.63504 0.146107 0)
(9.65032 0.133469 0)
(9.66159 0.122164 0)
(9.66952 0.111933 0)
(9.67477 0.102576 0)
(9.67791 0.0939419 0)
(9.67941 0.08591 0)
(9.6797 0.0783878 0)
(9.67912 0.071304 0)
(9.67796 0.064607 0)
(9.67646 0.0582637 0)
(9.67482 0.0522611 0)
(9.6732 0.0466085 0)
(9.67173 0.0413426 0)
(9.67054 0.0365325 0)
(9.66969 0.0322846 0)
(9.6693 0.0287713 0)
(9.66945 0.0262188 0)
(9.6703 0.0250154 0)
(9.67208 0.0255539 0)
(9.67521 0.0287143 0)
(9.68098 0.0350255 0)
(8.37748 0.202071 0)
(8.60139 0.38324 0)
(8.8159 0.390113 0)
(8.94701 0.355538 0)
(9.03299 0.310997 0)
(9.09589 0.267311 0)
(9.14297 0.231262 0)
(9.18149 0.202528 0)
(9.21569 0.179318 0)
(9.24695 0.160295 0)
(9.27589 0.144365 0)
(9.30288 0.130698 0)
(9.32811 0.118751 0)
(9.35186 0.108162 0)
(9.37425 0.0986415 0)
(9.3954 0.0899663 0)
(9.41536 0.0819724 0)
(9.43424 0.0745354 0)
(9.45209 0.06756 0)
(9.469 0.0609746 0)
(9.48504 0.0547276 0)
(9.5003 0.0487861 0)
(9.51483 0.0431368 0)
(9.52872 0.0377877 0)
(9.54205 0.0327711 0)
(9.55493 0.0281465 0)
(9.56747 0.0240054 0)
(9.57983 0.0204897 0)
(9.59224 0.0177825 0)
(9.60504 0.0161595 0)
(9.61868 0.0159048 0)
(9.63414 0.0174683 0)
(9.65235 0.0209923 0)
(8.36128 0.148688 0)
(8.52275 0.310999 0)
(8.69756 0.336392 0)
(8.81246 0.316625 0)
(8.88725 0.283181 0)
(8.94057 0.246787 0)
(8.97861 0.214938 0)
(9.00756 0.188839 0)
(9.03183 0.167327 0)
(9.05335 0.149363 0)
(9.07308 0.134103 0)
(9.09161 0.120889 0)
(9.10927 0.109253 0)
(9.12625 0.09886 0)
(9.14266 0.089468 0)
(9.15859 0.0808933 0)
(9.17407 0.0729915 0)
(9.18915 0.0656472 0)
(9.20384 0.058768 0)
(9.21817 0.0522817 0)
(9.23216 0.0461341 0)
(9.24582 0.0402886 0)
(9.25918 0.0347259 0)
(9.27228 0.0294451 0)
(9.28517 0.0244648 0)
(9.29791 0.0198253 0)
(9.31061 0.0155892 0)
(9.3234 0.0118505 0)
(9.33651 0.00871964 0)
(9.35028 0.00634085 0)
(9.36514 0.00481535 0)
(9.38193 0.00427246 0)
(9.40133 0.00440111 0)
(8.35116 0.111238 0)
(8.46744 0.251139 0)
(8.60828 0.285725 0)
(8.71013 0.277272 0)
(8.78012 0.254685 0)
(8.832 0.226996 0)
(8.8701 0.20064 0)
(8.89898 0.177726 0)
(8.92258 0.157991 0)
(8.94294 0.140958 0)
(8.9611 0.126175 0)
(8.97779 0.113202 0)
(8.99343 0.10168 0)
(9.0083 0.0913411 0)
(9.02257 0.0819728 0)
(9.03637 0.0734019 0)
(9.04978 0.065487 0)
(9.06286 0.0581143 0)
(9.07567 0.051193 0)
(9.08824 0.0446515 0)
(9.10062 0.0384354 0)
(9.11282 0.0325059 0)
(9.1249 0.0268393 0)
(9.1369 0.0214265 0)
(9.14887 0.0162735 0)
(9.1609 0.0114011 0)
(9.17309 0.00684244 0)
(9.1856 0.00264342 0)
(9.19863 -0.00115063 0)
(9.2125 -0.0044974 0)
(9.22759 -0.00742116 0)
(9.24455 -0.0100067 0)
(9.26385 -0.0126904 0)
(8.34487 0.0845459 0)
(8.42941 0.203203 0)
(8.54227 0.242844 0)
(8.63111 0.243255 0)
(8.69525 0.228809 0)
(8.74455 0.207538 0)
(8.78226 0.185295 0)
(8.81159 0.164923 0)
(8.83581 0.146859 0)
(8.85676 0.130959 0)
(8.87542 0.116966 0)
(8.89246 0.104562 0)
(8.90834 0.0934582 0)
(8.92334 0.0834227 0)
(8.93765 0.0742689 0)
(8.95142 0.065843 0)
(8.96475 0.0580202 0)
(8.97771 0.0506992 0)
(8.99037 0.0437974 0)
(9.00277 0.0372477 0)
(9.01497 0.0309973 0)
(9.027 0.0250058 0)
(9.03891 0.0192448 0)
(9.05077 0.0136968 0)
(9.06263 0.00835443 0)
(9.07459 0.00321801 0)
(9.08676 -0.00170811 0)
(9.09928 -0.00642091 0)
(9.11236 -0.0109315 0)
(9.12627 -0.0152756 0)
(9.14132 -0.019573 0)
(9.15801 -0.0240375 0)
(9.17663 -0.0291304 0)
(8.34094 0.0652839 0)
(8.4031 0.164816 0)
(8.49335 0.205652 0)
(8.57013 0.211896 0)
(8.62839 0.203436 0)
(8.6747 0.187589 0)
(8.71141 0.169415 0)
(8.74067 0.151847 0)
(8.76508 0.135694 0)
(8.78627 0.121063 0)
(8.80516 0.107895 0)
(8.82241 0.0960274 0)
(8.83846 0.0852717 0)
(8.85359 0.0754598 0)
(8.86801 0.0664464 0)
(8.88187 0.0581051 0)
(8.89525 0.0503274 0)
(8.90826 0.0430206 0)
(8.92094 0.0361066 0)
(8.93335 0.0295201 0)
(8.94554 0.0232072 0)
(8.95757 0.0171244 0)
(8.96948 0.0112374 0)
(8.98132 0.00551952 0)
(8.99318 -5.0858e-05 0)
(9.00515 -0.0054926 0)
(9.01732 -0.0108275 0)
(9.02984 -0.0160859 0)
(9.0429 -0.0213244 0)
(9.0567 -0.0266392 0)
(9.0715 -0.0322051 0)
(9.08765 -0.0382944 0)
(9.10528 -0.0453346 0)
(8.33846 0.0511104 0)
(8.38475 0.133949 0)
(8.45697 0.173584 0)
(8.523 0.183748 0)
(8.57565 0.17993 0)
(8.61885 0.168535 0)
(8.65419 0.153824 0)
(8.68305 0.138647 0)
(8.70743 0.124121 0)
(8.72874 0.1106 0)
(8.74781 0.0981952 0)
(8.76524 0.0868647 0)
(8.78144 0.0764972 0)
(8.79671 0.0669697 0)
(8.81123 0.0581649 0)
(8.82516 0.0499743 0)
(8.8386 0.0423008 0)
(8.85163 0.0350597 0)
(8.86432 0.0281778 0)
(8.87674 0.0215921 0)
(8.88892 0.0152487 0)
(8.90092 0.00910173 0)
(8.9128 0.00311127 0)
(8.92462 -0.00275813 0)
(8.93644 -0.00854049 0)
(8.94835 -0.0142716 0)
(8.96046 -0.0199951 0)
(8.97288 -0.0257709 0)
(8.98576 -0.0316878 0)
(8.99927 -0.0378758 0)
(9.01359 -0.0445333 0)
(9.02893 -0.0519468 0)
(9.04534 -0.060486 0)
(8.33687 0.0404712 0)
(8.37183 0.109065 0)
(8.42979 0.146002 0)
(8.48632 0.158385 0)
(8.53363 0.157819 0)
(8.5737 0.149824 0)
(8.60748 0.138012 0)
(8.63577 0.125021 0)
(8.66003 0.112107 0)
(8.68141 0.0997651 0)
(8.70064 0.0882086 0)
(8.71825 0.0774859 0)
(8.73462 0.0675534 0)
(8.75003 0.0583349 0)
(8.76467 0.0497465 0)
(8.77869 0.0417035 0)
(8.7922 0.0341253 0)
(8.80528 0.0269381 0)
(8.818 0.020075 0)
(8.83041 0.0134761 0)
(8.84258 0.00708778 0)
(8.85456 0.000861315 0)
(8.86639 -0.00524821 0)
(8.87815 -0.0112841 0)
(8.88989 -0.0172905 0)
(8.90169 -0.0233173 0)
(8.91364 -0.0294254 0)
(8.92584 -0.0356933 0)
(8.93841 -0.0422287 0)
(8.95146 -0.0491779 0)
(8.96512 -0.0567425 0)
(8.97948 -0.0651963 0)
(8.99454 -0.0748436 0)
(8.33583 0.0323158 0)
(8.36264 0.0888732 0)
(8.40935 0.12226 0)
(8.45765 0.135571 0)
(8.50002 0.137226 0)
(8.53702 0.13185 0)
(8.5691 0.122461 0)
(8.59663 0.111391 0)
(8.62061 0.0999211 0)
(8.64196 0.0886462 0)
(8.66128 0.0778654 0)
(8.67902 0.067706 0)
(8.69555 0.0581863 0)
(8.71112 0.0492731 0)
(8.7259 0.0409112 0)
(8.74003 0.0330353 0)
(8.75363 0.0255777 0)
(8.76677 0.0184724 0)
(8.77952 0.0116571 0)
(8.79195 0.00507386 0)
(8.80411 -0.00133141 0)
(8.81604 -0.00760962 0)
(8.82782 -0.0138099 0)
(8.83948 -0.0199817 0)
(8.85109 -0.0261781 0)
(8.86272 -0.0324589 0)
(8.87444 -0.0388962 0)
(8.88634 -0.0455799 0)
(8.89848 -0.0526258 0)
(8.91095 -0.0601828 0)
(8.9238 -0.0684405 0)
(8.93709 -0.0776438 0)
(8.95075 -0.0880318 0)
(8.33514 0.0259312 0)
(8.35602 0.0723594 0)
(8.39392 0.101804 0)
(8.43518 0.115071 0)
(8.473 0.118074 0)
(8.50705 0.114577 0)
(8.53736 0.107086 0)
(8.56399 0.0976219 0)
(8.58758 0.0874271 0)
(8.6088 0.0771456 0)
(8.62815 0.0671278 0)
(8.64601 0.0575505 0)
(8.66267 0.0484754 0)
(8.67837 0.0399018 0)
(8.69328 0.031798 0)
(8.70752 0.0241163 0)
(8.7212 0.0168014 0)
(8.73439 0.00979618 0)
(8.74718 0.00304373 0)
(8.7596 -0.00351103 0)
(8.77173 -0.0099214 0)
(8.78361 -0.0162393 0)
(8.79529 -0.0225169 0)
(8.80682 -0.028808 0)
(8.81825 -0.0351712 0)
(8.82965 -0.0416726 0)
(8.84107 -0.0483899 0)
(8.85257 -0.0554171 0)
(8.86419 -0.0628694 0)
(8.87599 -0.070888 0)
(8.88797 -0.0796419 0)
(8.90014 -0.0893404 0)
(8.9124 -0.100163 0)
(8.33466 0.0208291 0)
(8.35119 0.058721 0)
(8.38219 0.0841205 0)
(8.4175 0.0966308 0)
(8.45124 0.100282 0)
(8.48251 0.098058 0)
(8.51105 0.092023 0)
(8.53669 0.0838893 0)
(8.55978 0.0748044 0)
(8.58079 0.0654178 0)
(8.6001 0.0561048 0)
(8.61802 0.0470754 0)
(8.63478 0.0384253 0)
(8.65059 0.0301822 0)
(8.66561 0.0223357 0)
(8.67994 0.0148542 0)
(8.69369 0.0076935 0)
(8.70693 0.000803928 0)
(8.71973 -0.00586664 0)
(8.73215 -0.0123708 0)
(8.74423 -0.0187611 0)
(8.75602 -0.0250904 0)
(8.76758 -0.0314128 0)
(8.77895 -0.037785 0)
(8.79017 -0.0442685 0)
(8.80129 -0.0509321 0)
(8.81235 -0.0578549 0)
(8.82338 -0.0651292 0)
(8.83443 -0.0728638 0)
(8.84549 -0.0811856 0)
(8.85657 -0.0902389 0)
(8.86762 -0.100195 0)
(8.87854 -0.111182 0)
(8.33432 0.0166704 0)
(8.34762 0.0473295 0)
(8.37324 0.0687596 0)
(8.40357 0.0800128 0)
(8.43368 0.0837538 0)
(8.46239 0.0822873 0)
(8.4892 0.0772926 0)
(8.51381 0.0701987 0)
(8.53633 0.0620328 0)
(8.55707 0.0534224 0)
(8.57628 0.0447489 0)
(8.59421 0.0362391 0)
(8.61104 0.0280104 0)
(8.62694 0.0201095 0)
(8.64204 0.0125415 0)
(8.65646 0.0052861 0)
(8.67026 -0.00169187 0)
(8.68353 -0.00843609 0)
(8.69633 -0.0149945 0)
(8.70872 -0.0214171 0)
(8.72073 -0.0277556 0)
(8.73242 -0.0340624 0)
(8.74382 -0.0403923 0)
(8.75499 -0.0468027 0)
(8.76595 -0.0533556 0)
(8.77674 -0.0601192 0)
(8.78739 -0.0671702 0)
(8.79793 -0.074595 0)
(8.80835 -0.0824914 0)
(8.81866 -0.090969 0)
(8.82883 -0.100146 0)
(8.83879 -0.110157 0)
(8.84846 -0.121087 0)
(8.33407 0.0132153 0)
(8.34496 0.0376938 0)
(8.36636 0.0553245 0)
(8.39259 0.0649815 0)
(8.41952 0.0683718 0)
(8.4459 0.0672346 0)
(8.47109 0.0629188 0)
(8.49466 0.0566018 0)
(8.51658 0.0491784 0)
(8.53699 0.041231 0)
(8.55606 0.0331287 0)
(8.57396 0.0251006 0)
(8.59082 0.0172744 0)
(8.60678 0.00970946 0)
(8.62196 0.0024218 0)
(8.63643 -0.00459952 0)
(8.65028 -0.0113825 0)
(8.66356 -0.0179653 0)
(8.67635 -0.0243922 0)
(8.68868 -0.0307107 0)
(8.7006 -0.0369709 0)
(8.71216 -0.0432245 0)
(8.72339 -0.0495255 0)
(8.73433 -0.0559306 0)
(8.745 -0.0625004 0)
(8.75543 -0.0693 0)
(8.76565 -0.0764008 0)
(8.77565 -0.0838806 0)
(8.78544 -0.091824 0)
(8.795 -0.100322 0)
(8.80428 -0.109467 0)
(8.81323 -0.119362 0)
(8.82174 -0.130055 0)
(8.33389 0.0102908 0)
(8.34295 0.0294292 0)
(8.36107 0.0434713 0)
(8.38392 0.0513131 0)
(8.40812 0.0540111 0)
(8.43242 0.0528494 0)
(8.45611 0.0488964 0)
(8.47869 0.0431097 0)
(8.49999 0.0362514 0)
(8.52005 0.0288453 0)
(8.53895 0.021236 0)
(8.55679 0.0136447 0)
(8.57366 0.00620129 0)
(8.58967 -0.00102941 0)
(8.60489 -0.00802492 0)
(8.6194 -0.0147905 0)
(8.63327 -0.0213496 0)
(8.64656 -0.0277367 0)
(8.65931 -0.0339933 0)
(8.67157 -0.0401653 0)
(8.68339 -0.0463011 0)
(8.69479 -0.0524512 0)
(8.70582 -0.0586681 0)
(8.7165 -0.0650064 0)
(8.72686 -0.0715235 0)
(8.73691 -0.0782799 0)
(8.74666 -0.08534 0)
(8.75613 -0.0927714 0)
(8.76528 -0.100645 0)
(8.7741 -0.109032 0)
(8.78255 -0.118003 0)
(8.79054 -0.127633 0)
(8.79802 -0.137941 0)
(8.33376 0.00776938 0)
(8.34143 0.0222326 0)
(8.35699 0.0329031 0)
(8.3771 0.0387954 0)
(8.39899 0.040538 0)
(8.42147 0.0390609 0)
(8.44381 0.0351986 0)
(8.46546 0.0297202 0)
(8.48617 0.0232619 0)
(8.50588 0.0162808 0)
(8.5246 0.00908751 0)
(8.54236 0.0018862 0)
(8.55923 -0.00519979 0)
(8.57526 -0.0121062 0)
(8.59052 -0.018809 0)
(8.60506 -0.025311 0)
(8.61894 -0.031633 0)
(8.63221 -0.0378074 0)
(8.64492 -0.0438734 0)
(8.6571 -0.0498751 0)
(8.66879 -0.0558591 0)
(8.68003 -0.0618739 0)
(8.69084 -0.0679696 0)
(8.70124 -0.0741978 0)
(8.71127 -0.0806115 0)
(8.72093 -0.0872653 0)
(8.73022 -0.0942151 0)
(8.73914 -0.101518 0)
(8.74768 -0.10923 0)
(8.7558 -0.117408 0)
(8.76347 -0.126099 0)
(8.77061 -0.135355 0)
(8.77716 -0.145174 0)
(8.33365 0.00555448 0)
(8.34028 0.0158626 0)
(8.35385 0.0233633 0)
(8.37176 0.0272279 0)
(8.39172 0.0278139 0)
(8.41265 0.025784 0)
(8.43381 0.0217808 0)
(8.45463 0.0164141 0)
(8.4748 0.0102041 0)
(8.49418 0.00353882 0)
(8.51272 -0.0033111 0)
(8.53041 -0.010165 0)
(8.54726 -0.016912 0)
(8.5633 -0.0234934 0)
(8.57858 -0.0298878 0)
(8.59315 -0.0360987 0)
(8.60703 -0.0421469 0)
(8.62027 -0.0480641 0)
(8.63292 -0.0538889 0)
(8.645 -0.0596642 0)
(8.65655 -0.0654353 0)
(8.6676 -0.071249 0)
(8.67817 -0.0771528 0)
(8.68829 -0.0831947 0)
(8.69798 -0.0894229 0)
(8.70724 -0.0958856 0)
(8.71607 -0.102631 0)
(8.72446 -0.109704 0)
(8.73241 -0.11715 0)
(8.73987 -0.125009 0)
(8.74682 -0.133312 0)
(8.75319 -0.142091 0)
(8.75894 -0.151331 0)
(8.33357 0.00357092 0)
(8.33941 0.0101241 0)
(8.35145 0.0146289 0)
(8.36762 0.0164212 0)
(8.38602 0.0156954 0)
(8.40566 0.0129177 0)
(8.42582 0.0085758 0)
(8.44593 0.00314545 0)
(8.46563 -0.00295745 0)
(8.48474 -0.0094139 0)
(8.50313 -0.0159975 0)
(8.52075 -0.0225561 0)
(8.5376 -0.0289966 0)
(8.55366 -0.0352712 0)
(8.56898 -0.0413646 0)
(8.58356 -0.047284 0)
(8.59744 -0.0530521 0)
(8.61065 -0.0587014 0)
(8.62323 -0.0642703 0)
(8.6352 -0.0698012 0)
(8.64661 -0.0753379 0)
(8.65747 -0.0809251 0)
(8.6678 -0.0866071 0)
(8.67763 -0.0924281 0)
(8.68698 -0.098431 0)
(8.69584 -0.104657 0)
(8.70422 -0.111147 0)
(8.71211 -0.117935 0)
(8.7195 -0.125056 0)
(8.72636 -0.132535 0)
(8.73266 -0.140392 0)
(8.73835 -0.148642 0)
(8.7434 -0.157258 0)
(8.33352 0.00175812 0)
(8.33876 0.00485537 0)
(8.34965 0.00650295 0)
(8.36448 0.00619551 0)
(8.38165 0.00403617 0)
(8.40026 0.000351618 0)
(8.41962 -0.00449291 0)
(8.43916 -0.0101328 0)
(8.45849 -0.016244 0)
(8.47737 -0.0225738 0)
(8.49565 -0.0289414 0)
(8.51324 -0.0352271 0)
(8.5301 -0.0413595 0)
(8.54619 -0.0473059 0)
(8.56153 -0.053061 0)
(8.57613 -0.0586389 0)
(8.59 -0.0640668 0)
(8.60317 -0.0693802 0)
(8.61568 -0.0746193 0)
(8.62754 -0.0798267 0)
(8.63879 -0.0850459 0)
(8.64944 -0.09032 0)
(8.65953 -0.095691 0)
(8.66907 -0.101199 0)
(8.67807 -0.106883 0)
(8.68654 -0.112777 0)
(8.69449 -0.118914 0)
(8.7019 -0.125322 0)
(8.70877 -0.132024 0)
(8.71508 -0.139035 0)
(8.7208 -0.146364 0)
(8.72589 -0.154016 0)
(8.73035 -0.161955 0)
(8.33347 6.58737e-05 0)
(8.33829 -8.13882e-05 0)
(8.34834 -0.00119207 0)
(8.36219 -0.00362448 0)
(8.37843 -0.00731952 0)
(8.39628 -0.012048 0)
(8.41505 -0.0175414 0)
(8.43418 -0.0235284 0)
(8.45326 -0.0297671 0)
(8.47201 -0.0360683 0)
(8.49026 -0.0422985 0)
(8.50787 -0.0483721 0)
(8.52478 -0.0542433 0)
(8.54094 -0.0598966 0)
(8.55633 -0.0653394 0)
(8.57096 -0.0705946 0)
(8.58484 -0.0756952 0)
(8.59799 -0.0806806 0)
(8.61043 -0.0855932 0)
(8.62218 -0.0904764 0)
(8.63328 -0.0953734 0)
(8.64374 -0.100326 0)
(8.65358 -0.105373 0)
(8.66283 -0.110552 0)
(8.67151 -0.115896 0)
(8.67961 -0.121435 0)
(8.68714 -0.127195 0)
(8.69411 -0.133196 0)
(8.7005 -0.139452 0)
(8.70631 -0.145972 0)
(8.71151 -0.152756 0)
(8.71609 -0.159799 0)
(8.72003 -0.167063 0)
(8.33345 -0.00154963 0)
(8.33797 -0.00480812 0)
(8.34746 -0.00862043 0)
(8.36062 -0.0132085 0)
(8.37625 -0.0185253 0)
(8.39358 -0.024406 0)
(8.41198 -0.0306555 0)
(8.43087 -0.0370793 0)
(8.44982 -0.0435072 0)
(8.46855 -0.04981 0)
(8.48683 -0.0559016 0)
(8.50451 -0.0617342 0)
(8.52151 -0.067291 0)
(8.53775 -0.0725788 0)
(8.55321 -0.0776218 0)
(8.56789 -0.0824556 0)
(8.58178 -0.0871224 0)
(8.5949 -0.091668 0)
(8.60727 -0.0961393 0)
(8.61891 -0.100582 0)
(8.62985 -0.10504 0)
(8.64011 -0.109555 0)
(8.64971 -0.114165 0)
(8.65868 -0.118903 0)
(8.66703 -0.123798 0)
(8.67478 -0.128877 0)
(8.68192 -0.134159 0)
(8.68847 -0.139659 0)
(8.69443 -0.145384 0)
(8.69978 -0.151337 0)
(8.70453 -0.157512 0)
(8.70866 -0.1639 0)
(8.71218 -0.17046 0)
(8.33343 -0.00312918 0)
(8.33778 -0.00943952 0)
(8.34694 -0.0159443 0)
(8.35973 -0.0227394 0)
(8.37502 -0.0297724 0)
(8.39212 -0.036923 0)
(8.41039 -0.0440564 0)
(8.42925 -0.0510452 0)
(8.44826 -0.0577851 0)
(8.46711 -0.0642035 0)
(8.48555 -0.0702611 0)
(8.50341 -0.0759472 0)
(8.52058 -0.0812742 0)
(8.53698 -0.0862717 0)
(8.55257 -0.090981 0)
(8.56733 -0.0954508 0)
(8.58126 -0.0997331 0)
(8.59438 -0.103881 0)
(8.6067 -0.107945 0)
(8.61825 -0.111975 0)
(8.62904 -0.116017 0)
(8.63912 -0.120111 0)
(8.64849 -0.124294 0)
(8.65719 -0.128598 0)
(8.66523 -0.133049 0)
(8.67264 -0.137669 0)
(8.67942 -0.142474 0)
(8.68558 -0.147474 0)
(8.69113 -0.152671 0)
(8.69608 -0.158065 0)
(8.70042 -0.163643 0)
(8.70416 -0.169395 0)
(8.70729 -0.175279 0)
(8.33342 -0.00471209 0)
(8.33772 -0.0140864 0)
(8.34677 -0.02332 0)
(8.35946 -0.0323844 0)
(8.37471 -0.041205 0)
(8.39183 -0.049686 0)
(8.41019 -0.0577373 0)
(8.42922 -0.0652892 0)
(8.44844 -0.0722991 0)
(8.46753 -0.0787529 0)
(8.48622 -0.0846628 0)
(8.50433 -0.090062 0)
(8.52172 -0.0949993 0)
(8.53832 -0.0995335 0)
(8.55406 -0.103729 0)
(8.56893 -0.107652 0)
(8.58293 -0.111368 0)
(8.59606 -0.114939 0)
(8.60834 -0.118424 0)
(8.6198 -0.121876 0)
(8.63046 -0.125342 0)
(8.64035 -0.128864 0)
(8.6495 -0.132477 0)
(8.65794 -0.136213 0)
(8.66569 -0.140095 0)
(8.67278 -0.144141 0)
(8.67922 -0.148364 0)
(8.68502 -0.15277 0)
(8.69021 -0.157358 0)
(8.69479 -0.162124 0)
(8.69878 -0.167054 0)
(8.70218 -0.172136 0)
(8.70501 -0.177329 0)
(8.33343 -0.00633963 0)
(8.33778 -0.0188702 0)
(8.34696 -0.0309372 0)
(8.35985 -0.0423949 0)
(8.37538 -0.0531483 0)
(8.39286 -0.0631253 0)
(8.41164 -0.072278 0)
(8.43112 -0.0805898 0)
(8.45082 -0.0880734 0)
(8.47038 -0.0947658 0)
(8.48952 -0.100724 0)
(8.50803 -0.106021 0)
(8.52578 -0.110737 0)
(8.54267 -0.114958 0)
(8.55865 -0.118773 0)
(8.57369 -0.122264 0)
(8.5878 -0.125511 0)
(8.60097 -0.128588 0)
(8.61323 -0.131562 0)
(8.62461 -0.134491 0)
(8.63515 -0.137427 0)
(8.64487 -0.140414 0)
(8.65381 -0.14349 0)
(8.66199 -0.146683 0)
(8.66946 -0.150017 0)
(8.67623 -0.153508 0)
(8.68234 -0.157167 0)
(8.68781 -0.160997 0)
(8.69265 -0.164997 0)
(8.69689 -0.169159 0)
(8.70054 -0.173468 0)
(8.70362 -0.17791 0)
(8.70614 -0.182447 0)
(8.33344 -0.00805659 0)
(8.33796 -0.0239118 0)
(8.3475 -0.0389492 0)
(8.36087 -0.052886 0)
(8.37696 -0.0655894 0)
(8.39505 -0.0769985 0)
(8.41447 -0.0871059 0)
(8.43461 -0.0959574 0)
(8.45495 -0.103637 0)
(8.47512 -0.110251 0)
(8.49482 -0.11592 0)
(8.51384 -0.120768 0)
(8.53203 -0.124922 0)
(8.54929 -0.128503 0)
(8.56557 -0.131625 0)
(8.58084 -0.134392 0)
(8.59509 -0.136899 0)
(8.60835 -0.139232 0)
(8.62063 -0.141464 0)
(8.63197 -0.14366 0)
(8.6424 -0.145872 0)
(8.65197 -0.148148 0)
(8.66071 -0.150523 0)
(8.66867 -0.153026 0)
(8.67587 -0.15568 0)
(8.68236 -0.158499 0)
(8.68817 -0.16149 0)
(8.69332 -0.164657 0)
(8.69785 -0.167995 0)
(8.70178 -0.171496 0)
(8.70514 -0.175146 0)
(8.70794 -0.178931 0)
(8.71025 -0.182813 0)
(8.33348 -0.00991994 0)
(8.33832 -0.029396 0)
(8.34852 -0.047698 0)
(8.3628 -0.0644256 0)
(8.37993 -0.079434 0)
(8.39913 -0.0926817 0)
(8.41969 -0.10419 0)
(8.44092 -0.114046 0)
(8.46228 -0.122379 0)
(8.48337 -0.129345 0)
(8.50389 -0.135112 0)
(8.52361 -0.13985 0)
(8.54239 -0.143727 0)
(8.56013 -0.146902 0)
(8.57677 -0.149521 0)
(8.59231 -0.151714 0)
(8.60674 -0.153599 0)
(8.62009 -0.155277 0)
(8.63239 -0.156835 0)
(8.64367 -0.158347 0)
(8.654 -0.159874 0)
(8.66341 -0.161466 0)
(8.67195 -0.163162 0)
(8.67966 -0.164993 0)
(8.68659 -0.16698 0)
(8.69279 -0.169138 0)
(8.69829 -0.171474 0)
(8.70312 -0.173989 0)
(8.70733 -0.176679 0)
(8.71094 -0.179534 0)
(8.71399 -0.18254 0)
(8.7165 -0.185682 0)
(8.71851 -0.188923 0)
(8.33352 -0.0119899 0)
(8.3388 -0.0354381 0)
(8.3499 -0.0571859 0)
(8.36534 -0.0766482 0)
(8.38374 -0.0936588 0)
(8.40428 -0.108229 0)
(8.42616 -0.120471 0)
(8.44868 -0.130583 0)
(8.47127 -0.138806 0)
(8.4935 -0.145387 0)
(8.51504 -0.150569 0)
(8.53566 -0.154582 0)
(8.55521 -0.157641 0)
(8.57359 -0.159936 0)
(8.59075 -0.16164 0)
(8.60669 -0.162903 0)
(8.62141 -0.163854 0)
(8.63494 -0.164606 0)
(8.64734 -0.165253 0)
(8.65864 -0.165872 0)
(8.66891 -0.166527 0)
(8.6782 -0.167271 0)
(8.68657 -0.168142 0)
(8.69408 -0.169172 0)
(8.70077 -0.170382 0)
(8.70669 -0.171785 0)
(8.71191 -0.173387 0)
(8.71645 -0.17519 0)
(8.72036 -0.177189 0)
(8.72369 -0.179374 0)
(8.72648 -0.181731 0)
(8.72875 -0.184247 0)
(8.73057 -0.186886 0)
(8.3336 -0.0143802 0)
(8.33967 -0.0425097 0)
(8.35234 -0.0685077 0)
(8.36981 -0.0916648 0)
(8.3904 -0.111803 0)
(8.41313 -0.128908 0)
(8.43711 -0.143077 0)
(8.46153 -0.154532 0)
(8.48579 -0.163572 0)
(8.50946 -0.170516 0)
(8.53223 -0.175688 0)
(8.55387 -0.179393 0)
(8.57424 -0.181918 0)
(8.59328 -0.183514 0)
(8.61095 -0.184404 0)
(8.62725 -0.18478 0)
(8.64222 -0.184802 0)
(8.6559 -0.184606 0)
(8.66834 -0.184304 0)
(8.67961 -0.183984 0)
(8.68978 -0.183718 0)
(8.69892 -0.183563 0)
(8.70708 -0.18356 0)
(8.71434 -0.183741 0)
(8.72075 -0.184127 0)
(8.72638 -0.184731 0)
(8.73127 -0.185557 0)
(8.73549 -0.186607 0)
(8.73907 -0.187873 0)
(8.74208 -0.189347 0)
(8.74454 -0.191013 0)
(8.74649 -0.192856 0)
(8.74799 -0.194842 0)
(8.33366 -0.0171531 0)
(8.3405 -0.0503846 0)
(8.35477 -0.0803293 0)
(8.37426 -0.106106 0)
(8.39706 -0.127752 0)
(8.42214 -0.145525 0)
(8.44851 -0.159764 0)
(8.47526 -0.170887 0)
(8.5017 -0.179328 0)
(8.52735 -0.185493 0)
(8.55187 -0.189761 0)
(8.57501 -0.192478 0)
(8.59666 -0.193957 0)
(8.61673 -0.19447 0)
(8.63522 -0.194256 0)
(8.65216 -0.19352 0)
(8.66759 -0.192436 0)
(8.68157 -0.191147 0)
(8.6942 -0.189773 0)
(8.70555 -0.18841 0)
(8.71571 -0.187135 0)
(8.72476 -0.186006 0)
(8.73278 -0.185069 0)
(8.73984 -0.184355 0)
(8.74602 -0.183887 0)
(8.75139 -0.183677 0)
(8.75601 -0.183731 0)
(8.75994 -0.184049 0)
(8.76324 -0.184625 0)
(8.76596 -0.18545 0)
(8.76815 -0.186508 0)
(8.76987 -0.187787 0)
(8.77119 -0.189249 0)
(8.33391 -0.020692 0)
(8.34278 -0.0611412 0)
(8.36066 -0.097871 0)
(8.3843 -0.129671 0)
(8.41111 -0.156331 0)
(8.43982 -0.177891 0)
(8.46936 -0.194665 0)
(8.49881 -0.207214 0)
(8.52754 -0.216172 0)
(8.55512 -0.222148 0)
(8.58125 -0.225708 0)
(8.60573 -0.227361 0)
(8.62846 -0.227545 0)
(8.6494 -0.226631 0)
(8.66857 -0.22493 0)
(8.68601 -0.222693 0)
(8.70179 -0.220129 0)
(8.71599 -0.217402 0)
(8.72871 -0.214642 0)
(8.74005 -0.211952 0)
(8.7501 -0.209409 0)
(8.75896 -0.207071 0)
(8.76673 -0.20498 0)
(8.77349 -0.203165 0)
(8.77932 -0.201645 0)
(8.78431 -0.20043 0)
(8.78852 -0.199522 0)
(8.79202 -0.19892 0)
(8.79487 -0.198618 0)
(8.79714 -0.198604 0)
(8.79888 -0.198864 0)
(8.80013 -0.199382 0)
(8.80096 -0.200121 0)
(8.33387 -0.024733 0)
(8.34357 -0.0713186 0)
(8.36386 -0.111002 0)
(8.39091 -0.14353 0)
(8.42182 -0.169972 0)
(8.45509 -0.190991 0)
(8.48925 -0.207138 0)
(8.52303 -0.219058 0)
(8.55564 -0.227366 0)
(8.58657 -0.232629 0)
(8.6155 -0.235378 0)
(8.64224 -0.236105 0)
(8.66674 -0.235252 0)
(8.68901 -0.233204 0)
(8.70913 -0.230294 0)
(8.72718 -0.226803 0)
(8.7433 -0.222965 0)
(8.75762 -0.218968 0)
(8.77027 -0.214963 0)
(8.78139 -0.211067 0)
(8.7911 -0.207368 0)
(8.79953 -0.203934 0)
(8.8068 -0.200809 0)
(8.81299 -0.198025 0)
(8.81823 -0.195601 0)
(8.82258 -0.193546 0)
(8.82614 -0.191862 0)
(8.82899 -0.190546 0)
(8.83118 -0.189592 0)
(8.8328 -0.188989 0)
(8.83391 -0.188722 0)
(8.83457 -0.188778 0)
(8.83488 -0.189112 0)
(8.33497 -0.0316022 0)
(8.35129 -0.0935205 0)
(8.38029 -0.147465 0)
(8.41483 -0.191321 0)
(8.45146 -0.225444 0)
(8.48924 -0.250645 0)
(8.527 -0.268236 0)
(8.56366 -0.27969 0)
(8.59857 -0.286282 0)
(8.63132 -0.289081 0)
(8.66164 -0.288988 0)
(8.68941 -0.286739 0)
(8.7146 -0.282928 0)
(8.73729 -0.278026 0)
(8.75758 -0.272411 0)
(8.77563 -0.266381 0)
(8.7916 -0.26017 0)
(8.80566 -0.253958 0)
(8.81799 -0.247884 0)
(8.82874 -0.242053 0)
(8.83807 -0.23654 0)
(8.84613 -0.231398 0)
(8.85303 -0.226663 0)
(8.85891 -0.222356 0)
(8.86385 -0.218488 0)
(8.86797 -0.215062 0)
(8.87134 -0.212077 0)
(8.87404 -0.209526 0)
(8.87614 -0.207405 0)
(8.8777 -0.205704 0)
(8.8788 -0.204414 0)
(8.87951 -0.203525 0)
(8.87987 -0.20299 0)
(8.33402 -0.0365751 0)
(8.34985 -0.0996512 0)
(8.3837 -0.148909 0)
(8.42635 -0.189073 0)
(8.4723 -0.222115 0)
(8.5191 -0.247773 0)
(8.56464 -0.266492 0)
(8.60772 -0.279164 0)
(8.64798 -0.28664 0)
(8.68536 -0.28979 0)
(8.71989 -0.289497 0)
(8.7517 -0.286573 0)
(8.78097 -0.281724 0)
(8.80787 -0.275547 0)
(8.83256 -0.26853 0)
(8.85521 -0.261061 0)
(8.87594 -0.253441 0)
(8.8949 -0.245897 0)
(8.91222 -0.238597 0)
(8.92802 -0.23166 0)
(8.94242 -0.225166 0)
(8.95552 -0.219167 0)
(8.96743 -0.213689 0)
(8.97824 -0.208745 0)
(8.98805 -0.204334 0)
(8.99692 -0.200448 0)
(9.00494 -0.197076 0)
(9.01217 -0.194206 0)
(9.01869 -0.191829 0)
(9.02455 -0.189939 0)
(9.02984 -0.18854 0)
(9.03465 -0.187636 0)
(9.03908 -0.187196 0)
(8.33959 -0.0606807 0)
(8.37701 -0.17033 0)
(8.42615 -0.249101 0)
(8.47583 -0.3026 0)
(8.52808 -0.337933 0)
(8.58442 -0.359478 0)
(8.64326 -0.37133 0)
(8.70329 -0.376577 0)
(8.76355 -0.377167 0)
(8.82296 -0.374424 0)
(8.8805 -0.369285 0)
(8.93541 -0.36242 0)
(8.98717 -0.354324 0)
(9.03541 -0.345386 0)
(9.07995 -0.33592 0)
(9.12076 -0.326184 0)
(9.1579 -0.316394 0)
(9.19151 -0.306727 0)
(9.22178 -0.297325 0)
(9.24893 -0.288299 0)
(9.2732 -0.279731 0)
(9.29483 -0.271677 0)
(9.31405 -0.264175 0)
(9.33108 -0.257243 0)
(9.34612 -0.250889 0)
(9.35935 -0.245111 0)
(9.37094 -0.239903 0)
(9.38102 -0.235258 0)
(9.38973 -0.231182 0)
(9.39718 -0.227681 0)
(9.40348 -0.224818 0)
(9.40872 -0.222601 0)
(9.41314 -0.221225 0)
(8.33759 -0.0466663 0)
(8.39344 -0.121374 0)
(8.49362 -0.185675 0)
(8.60833 -0.247803 0)
(8.73007 -0.301255 0)
(8.85333 -0.342855 0)
(8.97119 -0.373315 0)
(9.0795 -0.393514 0)
(9.17603 -0.404594 0)
(9.25957 -0.408135 0)
(9.32985 -0.405755 0)
(9.38733 -0.398913 0)
(9.43287 -0.388873 0)
(9.46759 -0.376683 0)
(9.49272 -0.363186 0)
(9.50951 -0.349041 0)
(9.51915 -0.334748 0)
(9.52272 -0.32068 0)
(9.52121 -0.3071 0)
(9.51548 -0.294189 0)
(9.50626 -0.28206 0)
(9.49419 -0.270775 0)
(9.4798 -0.260356 0)
(9.46353 -0.250798 0)
(9.44575 -0.242073 0)
(9.42676 -0.234139 0)
(9.40677 -0.226949 0)
(9.38598 -0.220451 0)
(9.3645 -0.21461 0)
(9.34237 -0.209401 0)
(9.31973 -0.204927 0)
(9.29626 -0.201148 0)
(9.27272 -0.199132 0)
(8.40925 -0.22144 0)
(8.63497 -0.428784 0)
(8.83307 -0.523413 0)
(8.9766 -0.584394 0)
(9.06991 -0.617524 0)
(9.11199 -0.628402 0)
(9.10714 -0.624598 0)
(9.0648 -0.610176 0)
(8.99382 -0.587966 0)
(8.90169 -0.560531 0)
(8.79488 -0.529931 0)
(8.67877 -0.49775 0)
(8.55756 -0.465217 0)
(8.43446 -0.43325 0)
(8.31184 -0.402504 0)
(8.1914 -0.373412 0)
(8.07432 -0.34624 0)
(7.96136 -0.321119 0)
(7.85296 -0.298085 0)
(7.74935 -0.277102 0)
(7.65055 -0.25809 0)
(7.55652 -0.240935 0)
(7.46709 -0.225506 0)
(7.38207 -0.211659 0)
(7.30121 -0.199246 0)
(7.22428 -0.188116 0)
(7.151 -0.178109 0)
(7.08109 -0.169075 0)
(7.01425 -0.160831 0)
(6.95005 -0.153208 0)
(6.88812 -0.146101 0)
(6.82731 -0.138602 0)
(6.76808 -0.134479 0)
(8.13705 -0.207249 0)
(7.84745 -0.388289 0)
(7.38472 -0.439769 0)
(6.85867 -0.440488 0)
(6.35832 -0.409233 0)
(5.88657 -0.360299 0)
(5.44606 -0.305966 0)
(5.04421 -0.252634 0)
(4.6821 -0.203526 0)
(4.35778 -0.160262 0)
(4.06889 -0.123293 0)
(3.81259 -0.0923977 0)
(3.58571 -0.067038 0)
(3.38509 -0.0465268 0)
(3.20773 -0.0301409 0)
(3.05084 -0.0171961 0)
(2.91185 -0.0070808 0)
(2.78849 0.000732931 0)
(2.67872 0.00668959 0)
(2.58074 0.0111574 0)
(2.49298 0.0144384 0)
(2.41408 0.0167786 0)
(2.34285 0.0183788 0)
(2.27827 0.0194034 0)
(2.21945 0.0199931 0)
(2.16567 0.0202696 0)
(2.11626 0.0203668 0)
(2.0708 0.0204189 0)
(2.02873 0.0206738 0)
(1.99026 0.0214672 0)
(1.95435 0.0231641 0)
(1.92335 0.0286441 0)
(1.8949 0.0233897 0)
(1.51677 0.0182 0)
(1.86308 0.173337 0)
(2.34508 0.277653 0)