/*--------------------------------*- C++ -*----------------------------------*\
| =========                 |                                                 |
| \\      /  F ield         | OpenFOAM: The Open Source CFD Toolbox           |
|  \\    /   O peration     | Version:  2.1.1                                 |
|   \\  /    A nd           | Web:      www.OpenFOAM.org                      |
|    \\/     M anipulation  |                                                 |
\*---------------------------------------------------------------------------*/
FoamFile
{
    version     2.0;
    format      ascii;
    class       volScalarField;
    location    "0.155";
    object      epsilon;
}
// * * * * * * * * * * * * * * * * * * * * * * * * * * * * * * * * * * * * * //

dimensions      [0 2 -3 0 0 0 0];

internalField   nonuniform List<scalar> 
6820
(
151.448
203.151
260.735
321.761
383.629
443.726
499.766
550.042
593.497
629.689
658.687
680.93
697.094
707.975
714.401
717.167
717.002
714.549
710.357
704.885
698.51
691.535
684.2
676.693
669.158
661.703
654.404
647.33
640.437
634.132
626.537
626.643
591.346
11.7448
21.4174
29.9438
38.6244
47.58
56.5569
65.3181
73.6622
81.4273
88.5047
94.8396
100.425
105.291
109.494
113.106
116.203
118.864
121.161
123.16
124.918
126.484
127.899
129.198
130.408
131.554
132.657
133.735
134.812
135.912
137.105
138.41
140.294
142.44
5.83781
7.51679
9.20658
10.8092
12.3197
13.7473
15.0883
16.339
17.498
18.5648
19.5415
20.4314
21.24
21.9737
22.6397
23.2456
23.7992
24.3077
24.778
25.2166
25.629
26.0204
26.3951
26.7568
27.1089
27.4541
27.7946
28.1327
28.4701
28.8093
29.1527
29.4969
29.8906
5.2423
5.56004
6.00443
6.49345
6.98568
7.46187
7.91296
8.33462
8.7252
9.08453
9.41337
9.71305
9.98529
10.232
10.4552
10.6568
10.839
11.0036
11.1525
11.2874
11.4101
11.5219
11.6243
11.7184
11.8056
11.8866
11.9624
12.0336
12.1007
12.1641
12.2234
12.279
12.3282
5.17349
5.18677
5.26821
5.39776
5.55637
5.72967
5.90778
6.08427
6.25511
6.41786
6.57115
6.71426
6.84696
6.96931
7.0816
7.18422
7.27768
7.36252
7.43933
7.5087
7.57121
7.62744
7.67793
7.72322
7.7638
7.80014
7.83266
7.86177
7.8878
7.91109
7.93186
7.95036
7.96667
5.16878
5.12131
5.09602
5.09482
5.11536
5.15307
5.20299
5.26075
5.32292
5.38693
5.45089
5.51349
5.57381
5.63123
5.68536
5.73599
5.78301
5.82641
5.86625
5.90264
5.93572
5.96564
5.99258
6.01673
6.03828
6.05741
6.07432
6.08918
6.10218
6.11348
6.12325
6.13161
6.13874
5.16887
5.11169
5.06116
5.01963
4.9884
4.96754
4.95615
4.95279
4.95587
4.96386
4.97542
4.98945
5.00502
5.02142
5.03808
5.05458
5.07059
5.08587
5.10026
5.11364
5.12593
5.13711
5.14717
5.1561
5.16394
5.17073
5.17652
5.18135
5.18529
5.18839
5.19074
5.19236
5.19335
5.16902
5.11063
5.05514
5.00339
4.95619
4.91413
4.87746
4.8461
4.81971
4.7978
4.77979
4.76509
4.75315
4.74346
4.73558
4.72912
4.72376
4.71921
4.71526
4.71172
4.70845
4.70532
4.70224
4.69913
4.69595
4.69264
4.6892
4.68559
4.68181
4.67786
4.67374
4.66945
4.66501
5.16904
5.11054
5.05431
5.00049
4.94927
4.9009
4.85558
4.81345
4.77455
4.7388
4.70609
4.67621
4.64894
4.62403
4.60123
4.58031
4.56103
4.54321
4.52665
4.51118
4.49667
4.48298
4.47001
4.45766
4.44584
4.4345
4.42356
4.41298
4.40273
4.39276
4.38304
4.37356
4.36429
5.16904
5.11054
5.0542
5.00002
4.94795
4.89803
4.85027
4.80471
4.76137
4.72027
4.68137
4.64464
4.60999
4.57734
4.54657
4.51757
4.49021
4.46439
4.43998
4.41687
4.39495
4.37412
4.3543
4.3354
4.31734
4.30005
4.28348
4.26757
4.25227
4.23753
4.22331
4.20959
4.19631
5.16904
5.11053
5.05418
4.99994
4.94772
4.89747
4.84912
4.80264
4.75799
4.71513
4.67404
4.63469
4.59702
4.561
4.52658
4.49368
4.46225
4.43222
4.40353
4.37609
4.34985
4.32474
4.30069
4.27764
4.25553
4.23431
4.21392
4.19432
4.17546
4.15731
4.13981
4.12294
4.10665
5.16904
5.11052
5.05417
4.99991
4.94767
4.89735
4.84888
4.80218
4.75718
4.71384
4.67208
4.63187
4.59315
4.55589
4.52002
4.48552
4.45232
4.42038
4.38966
4.3601
4.33167
4.3043
4.27796
4.2526
4.22818
4.20465
4.18198
4.16011
4.13903
4.11869
4.09906
4.08011
4.06179
5.16904
5.11052
5.05416
4.99989
4.94764
4.89731
4.8488
4.80205
4.75698
4.71351
4.67157
4.63112
4.59208
4.55441
4.51806
4.48297
4.44911
4.41642
4.38487
4.35441
4.325
4.2966
4.26918
4.2427
4.21712
4.19241
4.16853
4.14545
4.12314
4.10157
4.08071
4.06053
4.04101
5.16903
5.11052
5.05415
4.99988
4.94762
4.89728
4.84876
4.802
4.7569
4.71339
4.67141
4.63089
4.59176
4.55397
4.51747
4.4822
4.44811
4.41517
4.38332
4.35252
4.32273
4.29392
4.26606
4.23909
4.213
4.18775
4.16331
4.13965
4.11675
4.09456
4.07308
4.05227
4.03211
5.16903
5.11051
5.05414
4.99987
4.9476
4.89725
4.84873
4.80195
4.75684
4.71332
4.67133
4.63078
4.59163
4.5538
4.51725
4.48193
4.44777
4.41474
4.38279
4.35188
4.32196
4.293
4.26497
4.23782
4.21153
4.18607
4.1614
4.13749
4.11432
4.09187
4.0701
4.049
4.02853
5.16903
5.11051
5.05413
4.99986
4.94758
4.89723
4.8487
4.80192
4.7568
4.71327
4.67126
4.6307
4.59154
4.5537
4.51713
4.48178
4.4476
4.41454
4.38256
4.35161
4.32164
4.29263
4.26454
4.23733
4.21097
4.18542
4.16066
4.13666
4.11339
4.09082
4.06894
4.04771
4.02711
5.16903
5.1105
5.05413
4.99985
4.94757
4.89721
4.84867
4.80188
4.75676
4.71322
4.6712
4.63064
4.59146
4.55361
4.51703
4.48167
4.44748
4.41441
4.38241
4.35144
4.32146
4.29243
4.26431
4.23707
4.21068
4.1851
4.16031
4.13627
4.11295
4.09034
4.06841
4.04712
4.02647
5.16903
5.1105
5.05412
4.99984
4.94756
4.89719
4.84865
4.80185
4.75672
4.71318
4.67115
4.63058
4.59139
4.55353
4.51695
4.48158
4.44737
4.41429
4.38228
4.3513
4.32131
4.29226
4.26413
4.23688
4.21048
4.18488
4.16007
4.13601
4.11268
4.09004
4.06808
4.04678
4.02609
5.16903
5.1105
5.05412
4.99983
4.94755
4.89718
4.84863
4.80183
4.75669
4.71314
4.6711
4.63052
4.59133
4.55346
4.51687
4.48149
4.44728
4.41418
4.38216
4.35117
4.32117
4.29212
4.26398
4.23672
4.2103
4.18469
4.15987
4.1358
4.11245
4.0898
4.06783
4.0465
4.0258
5.16903
5.1105
5.05412
4.99982
4.94754
4.89716
4.84861
4.8018
4.75666
4.7131
4.67106
4.63047
4.59127
4.5534
4.51679
4.48141
4.44719
4.41409
4.38206
4.35106
4.32105
4.29199
4.26384
4.23656
4.21014
4.18452
4.15968
4.1356
4.11224
4.08958
4.06759
4.04626
4.02554
5.16903
5.1105
5.05411
4.99982
4.94753
4.89715
4.8486
4.80178
4.75663
4.71307
4.67102
4.63043
4.59122
4.55334
4.51673
4.48133
4.44711
4.414
4.38196
4.35095
4.32093
4.29186
4.2637
4.23642
4.20998
4.18436
4.15951
4.13542
4.11205
4.08938
4.06738
4.04603
4.0253
5.16903
5.11049
5.05411
4.99981
4.94752
4.89714
4.84858
4.80177
4.75661
4.71304
4.67099
4.63039
4.59117
4.55328
4.51667
4.48127
4.44703
4.41391
4.38187
4.35085
4.32082
4.29175
4.26358
4.23629
4.20984
4.1842
4.15935
4.13524
4.11186
4.08918
4.06717
4.04581
4.02507
5.16903
5.11049
5.05411
4.99981
4.94752
4.89713
4.84857
4.80175
4.75659
4.71302
4.67096
4.63035
4.59113
4.55324
4.51661
4.4812
4.44696
4.41384
4.38178
4.35076
4.32073
4.29164
4.26346
4.23616
4.20971
4.18406
4.15919
4.13508
4.11169
4.089
4.06698
4.0456
4.02485
5.16903
5.11049
5.0541
4.99981
4.94751
4.89712
4.84856
4.80174
4.75657
4.71299
4.67093
4.63032
4.59109
4.55319
4.51656
4.48115
4.4469
4.41377
4.38171
4.35068
4.32063
4.29154
4.26336
4.23605
4.20958
4.18393
4.15905
4.13493
4.11153
4.08882
4.06679
4.04541
4.02465
5.16903
5.11049
5.0541
4.9998
4.94751
4.89712
4.84855
4.80172
4.75656
4.71297
4.67091
4.63029
4.59106
4.55315
4.51652
4.4811
4.44684
4.41371
4.38164
4.3506
4.32055
4.29145
4.26326
4.23594
4.20947
4.1838
4.15892
4.13479
4.11138
4.08866
4.06662
4.04523
4.02446
5.16903
5.11049
5.0541
4.9998
4.9475
4.89711
4.84854
4.80171
4.75654
4.71296
4.67089
4.63027
4.59103
4.55312
4.51648
4.48106
4.4468
4.41365
4.38158
4.35054
4.32048
4.29137
4.26317
4.23584
4.20936
4.18369
4.1588
4.13466
4.11124
4.08852
4.06646
4.04506
4.02428
5.16903
5.11049
5.0541
4.9998
4.9475
4.89711
4.84854
4.8017
4.75653
4.71294
4.67087
4.63025
4.59101
4.55309
4.51645
4.48102
4.44675
4.4136
4.38152
4.35047
4.32041
4.29129
4.26309
4.23575
4.20927
4.18359
4.15869
4.13454
4.11111
4.08838
4.06632
4.04491
4.02411
5.16903
5.11049
5.0541
4.9998
4.9475
4.89711
4.84853
4.8017
4.75653
4.71294
4.67086
4.63023
4.59099
4.55307
4.51642
4.48099
4.44672
4.41356
4.38148
4.35042
4.32035
4.29123
4.26302
4.23568
4.20919
4.1835
4.15859
4.13443
4.111
4.08826
4.06619
4.04477
4.02397
5.16903
5.11049
5.0541
4.9998
4.9475
4.8971
4.84853
4.80169
4.75651
4.71292
4.67084
4.63021
4.59097
4.55304
4.51639
4.48095
4.44668
4.41352
4.38143
4.35037
4.3203
4.29117
4.26295
4.23561
4.20911
4.18342
4.1585
4.13434
4.1109
4.08815
4.06607
4.04465
4.02384
5.16903
5.11049
5.0541
4.9998
4.9475
4.89711
4.84854
4.8017
4.75653
4.71294
4.67086
4.63023
4.59098
4.55306
4.5164
4.48096
4.44668
4.41352
4.38143
4.35036
4.32028
4.29115
4.26293
4.23558
4.20907
4.18337
4.15845
4.13428
4.11083
4.08808
4.066
4.04456
4.02375
5.16903
5.11049
5.0541
4.9998
4.9475
4.8971
4.84853
4.80169
4.75651
4.71292
4.67084
4.6302
4.59095
4.55303
4.51637
4.48093
4.44665
4.41349
4.3814
4.35033
4.32025
4.29112
4.2629
4.23555
4.20904
4.18334
4.15842
4.13425
4.1108
4.08804
4.06596
4.04452
4.02371
5.16903
5.11049
5.0541
4.99981
4.94752
4.89714
4.84858
4.80176
4.75659
4.71301
4.67094
4.63031
4.59106
4.55314
4.51648
4.48104
4.44676
4.4136
4.38151
4.35044
4.32036
4.29123
4.26301
4.23567
4.20916
4.18347
4.15856
4.1344
4.11096
4.08822
4.06615
4.04473
4.02393
5.16903
5.11051
5.05414
4.99985
4.94756
4.89718
4.84861
4.80178
4.75661
4.71303
4.67096
4.63034
4.59111
4.5532
4.51657
4.48115
4.4469
4.41377
4.38172
4.35069
4.32066
4.29158
4.26342
4.23614
4.2097
4.18408
4.15924
4.13516
4.1118
4.08915
4.06717
4.04585
4.02515
5.16903
5.1105
5.05415
4.99992
4.9477
4.89739
4.8489
4.80214
4.75704
4.71352
4.67152
4.63098
4.59183
4.55402
4.51749
4.48221
4.44811
4.41514
4.38328
4.35246
4.32266
4.29383
4.26594
4.23894
4.21281
4.18752
4.16302
4.13929
4.11631
4.09403
4.07245
4.05153
4.03124
5.16905
5.11063
5.0544
5.00025
4.94809
4.89785
4.84947
4.80288
4.75802
4.71483
4.67324
4.63319
4.59463
4.5575
4.52174
4.4873
4.45412
4.42216
4.39136
4.36167
4.33306
4.30547
4.27886
4.25319
4.22842
4.20451
4.18142
4.15912
4.13758
4.11677
4.09664
4.07719
4.05837
5.16908
5.11079
5.05488
5.00137
4.95017
4.90121
4.85441
4.80973
4.76712
4.7265
4.68783
4.65101
4.61596
4.58262
4.55087
4.52065
4.49187
4.46444
4.43828
4.41332
4.38949
4.36672
4.34494
4.3241
4.30413
4.28499
4.26663
4.249
4.23206
4.21576
4.20008
4.18498
4.17042
5.16939
5.11358
5.06201
5.01464
4.97149
4.9325
4.89748
4.86617
4.83826
4.81342
4.79132
4.77167
4.75417
4.73857
4.72464
4.71217
4.70096
4.69087
4.68173
4.67343
4.66585
4.65889
4.65247
4.64652
4.64097
4.63576
4.63084
4.62617
4.62172
4.61745
4.61333
4.60934
4.60547
5.17808
5.16328
5.16951
5.1912
5.22439
5.26605
5.31379
5.36573
5.42044
5.47684
5.53409
5.59152
5.64865
5.70508
5.76052
5.81475
5.86761
5.91898
5.96878
6.01698
6.06355
6.10847
6.15176
6.19344
6.23354
6.27209
6.30914
6.34471
6.37888
6.41167
6.44314
6.47335
6.50235
5.63861
6.43044
7.1459
7.82572
8.49482
9.14721
9.77701
10.3819
10.9616
11.5172
12.0499
12.5613
13.053
13.5263
13.9826
14.4229
14.8482
15.2595
15.6574
16.0426
16.4158
16.7775
17.1282
17.4684
17.7985
18.1188
18.4299
18.7319
19.0254
19.3105
19.5876
19.8569
20.119
44.7794
48.3124
51.8864
55.4656
59.0311
62.5709
66.0744
69.5319
72.9346
76.2747
79.5454
82.7408
85.8561
88.8872
91.8311
94.6852
97.448
100.118
102.696
105.18
107.572
109.873
112.083
114.204
116.239
118.188
120.054
121.839
123.545
125.176
126.732
128.218
129.636
704.838
837.655
942.355
1022.41
1083.31
1125.41
1147.06
1147.45
1128.06
1092.78
1046.78
995.284
942.634
891.807
844.429
801.062
761.6
725.623
692.648
662.255
634.135
608.069
583.892
561.461
540.625
521.22
503.068
485.984
469.785
454.295
439.354
424.814
410.547
396.439
382.388
368.309
354.128
339.784
325.229
310.431
295.372
280.049
264.479
248.696
232.752
216.719
200.685
184.755
169.048
153.691
138.819
124.565
111.057
98.4105
86.7225
76.0652
66.483
57.99
50.5701
44.1801
38.7539
34.2095
30.4554
27.3978
24.946
23.0166
21.5363
20.4424
19.6826
19.2137
18.9994
19.0077
19.2083
19.57
20.0583
20.6341
21.2529
21.8654
22.4199
22.8643
23.1497
23.2331
23.0804
22.6683
21.9854
21.0335
19.8277
18.3961
16.7799
15.0319
13.2151
11.3991
9.65497
8.04897
6.63392
5.44254
4.4843
3.74149
3.21229
2.68705
147.447
154.551
165.003
180
200.414
226.853
259.468
297.56
339.528
383.048
425.357
463.677
495.643
519.663
535.092
542.216
542.047
536.027
525.725
512.601
497.854
482.37
466.735
451.29
436.198
421.513
407.223
393.285
379.647
366.251
353.04
339.958
326.951
313.966
300.956
287.876
274.692
261.375
247.913
234.302
220.554
206.695
192.767
178.827
164.945
151.207
137.708
124.556
111.858
99.7275
88.2689
77.5784
67.7357
58.7996
50.8041
43.7565
37.6371
32.4017
27.9861
24.3119
21.2927
18.8411
16.8736
15.3143
14.0977
13.1691
12.4845
12.0096
11.7184
11.5918
11.6155
11.7784
12.0704
12.4799
12.992
13.586
14.2342
14.9019
15.5477
16.1263
16.5912
16.8987
17.0115
16.9016
16.5525
15.9612
15.1382
14.1082
12.9088
11.5892
10.2074
8.82624
7.50736
6.3049
5.25847
4.38875
3.69745
3.16615
2.7904
2.41789
30.2648
30.6913
31.3377
32.3898
34.0258
36.3656
39.5216
43.7976
49.5275
57.0421
66.6156
78.4078
92.4067
108.388
125.905
144.317
162.853
180.698
197.089
211.401
223.203
232.283
238.633
242.409
243.879
243.364
241.193
237.67
233.056
227.558
221.337
214.51
207.163
199.358
191.144
182.562
173.649
164.443
154.988
145.333
135.532
125.651
115.759
105.936
96.2656
86.8368
77.7396
69.0622
60.887
53.2864
46.3189
40.0254
34.4267
29.5225
25.2918
21.6955
18.6803
16.1835
14.1382
12.4783
11.1418
10.0736
9.22664
8.5621
8.04891
7.66298
7.38628
7.20586
7.11307
7.10276
7.17247
7.3216
7.55038
7.8585
8.24354
8.69911
9.21303
9.76597
10.3309
10.8742
11.3572
11.7402
11.986
12.0635
11.9516
11.6411
11.1362
10.4547
9.6276
8.69637
7.71028
6.72161
5.78002
4.92675
4.18977
3.5815
3.10069
2.73193
2.472
2.21317
12.3807
12.4506
12.5386
12.6505
12.8003
13.0075
13.2981
13.6765
14.1733
14.8324
15.707
16.8579
18.352
20.26
22.6518
25.59
29.1201
33.2592
37.9848
43.2276
48.8703
54.7529
60.6849
66.4623
71.885
76.7732
80.9803
84.3995
86.9658
88.653
89.4681
89.4434
88.6295
87.0889
84.8904
82.1066
78.8114
75.0793
70.9855
66.6054
62.0153
57.2917
52.5113
47.7494
43.0788
38.5679
34.2784
30.2631
26.5638
23.2096
20.216
17.5852
15.3067
13.3597
11.7156
10.3414
9.20205
8.26348
7.49403
6.86566
6.35428
5.93985
5.60601
5.33974
5.13094
4.972
4.85752
4.784
4.74962
4.7541
4.79846
4.88481
5.01602
5.19511
5.42448
5.70475
6.03333
6.4029
6.80016
7.20524
7.59224
7.93103
8.19027
8.34104
8.36052
8.2351
7.96252
7.5527
7.02717
6.41719
5.76044
5.09665
4.46276
3.88835
3.39267
2.98357
2.65998
2.41087
2.23543
2.05914
7.98323
8.00082
8.01767
8.03404
8.05127
8.07194
8.10012
8.13884
8.19043
8.25966
8.35292
8.47798
8.64382
8.86046
9.13872
9.48985
9.9251
10.4551
11.0889
11.8334
12.6923
13.6646
14.744
15.9174
17.1647
18.4582
19.7634
21.0409
22.2477
23.3408
24.2795
25.0281
25.5581
25.8493
25.8913
25.6829
25.2321
24.555
23.6748
22.6205
21.4253
20.1247
18.7555
17.3539
15.9539
14.5861
13.2765
12.0457
10.9087
9.87441
8.94676
8.12497
7.40468
6.77904
6.23963
5.77735
5.38305
5.04798
4.76409
4.52421
4.32206
4.15232
4.01053
3.89307
3.79713
3.72061
3.66213
3.62097
3.5971
3.59113
3.60433
3.6386
3.69635
3.78037
3.89343
4.03783
4.21451
4.42214
4.65594
4.90674
5.16054
5.39887
5.60025
5.7426
5.80628
5.77707
5.64871
5.4242
5.11594
4.74425
4.33479
3.91501
3.51036
3.14114
2.82062
2.55439
2.34263
2.17825
2.06251
1.94461
6.14536
6.15072
6.15393
6.15527
6.15502
6.1535
6.15142
6.14931
6.14788
6.14802
6.15082
6.15759
6.16992
6.18961
6.21867
6.25925
6.31356
6.38373
6.4717
6.57905
6.70688
6.85568
7.02515
7.21411
7.42035
7.64056
7.87025
8.10379
8.33451
8.55491
8.75695
8.93243
9.07345
9.17285
9.2247
9.22465
9.17026
9.0612
8.89921
8.68809
8.43337
8.14203
7.82199
7.48169
7.12962
6.77383
6.42162
6.07927
5.75183
5.44315
5.15582
4.89135
4.65028
4.43237
4.23678
4.06227
3.90729
3.77019
3.64924
3.54276
3.44918
3.36707
3.29516
3.23239
3.17793
3.13117
3.09176
3.05963
3.03499
3.01838
3.01065
3.01303
3.02706
3.05459
3.0976
3.15803
3.23739
3.3362
3.45336
3.58543
3.726
3.8655
3.99158
4.09024
4.14769
4.15248
4.09765
3.9822
3.81167
3.59742
3.35497
3.10159
2.8537
2.62463
2.42356
2.25469
2.11924
2.01285
1.93805
1.86037
5.19363
5.19273
5.19043
5.1867
5.18154
5.17497
5.16716
5.1582
5.14831
5.13774
5.12673
5.11554
5.10449
5.09395
5.08436
5.0762
5.07003
5.0664
5.06587
5.06895
5.07606
5.08746
5.10325
5.12333
5.14732
5.17459
5.20423
5.23507
5.26566
5.29437
5.31937
5.33877
5.35067
5.35325
5.34491
5.32429
5.29045
5.24283
5.1814
5.10657
5.01925
4.92075
4.81273
4.6971
4.57595
4.45139
4.32548
4.20015
4.07714
3.9579
3.84363
3.73522
3.63328
3.53814
3.44991
3.36851
3.29368
3.22506
3.16221
3.10463
3.05182
3.0033
2.9586
2.91734
2.8792
2.84398
2.81155
2.78194
2.75532
2.732
2.7125
2.69751
2.68794
2.68489
2.68959
2.70335
2.72737
2.76248
2.80879
2.86529
2.92939
2.99666
3.0608
3.11404
3.14804
3.15515
3.12981
3.06974
2.97658
2.85583
2.71594
2.5669
2.41865
2.27959
2.15587
2.05058
1.96531
1.89735
1.84978
1.79893
4.65957
4.65281
4.64527
4.63687
4.62761
4.61748
4.6065
4.59469
4.58206
4.56866
4.55451
4.53968
4.52422
4.50818
4.49165
4.47472
4.45751
4.44015
4.42282
4.40565
4.38882
4.37246
4.35668
4.34151
4.32695
4.31292
4.29924
4.28565
4.27182
4.25734
4.24172
4.22446
4.205
4.18283
4.15745
4.12844
4.09546
4.05829
4.01686
3.97122
3.92157
3.86826
3.81176
3.75262
3.69148
3.62903
3.56596
3.50294
3.44062
3.37955
3.32021
3.263
3.20818
3.15594
3.10635
3.05942
3.01504
2.97309
2.93336
2.89563
2.85966
2.82521
2.79207
2.76002
2.7289
2.69861
2.66909
2.64033
2.61245
2.5856
2.56008
2.53626
2.51466
2.4959
2.48072
2.46993
2.46435
2.46468
2.47133
2.4842
2.50242
2.52415
2.54643
2.56535
2.57637
2.57496
2.55744
2.5217
2.46776
2.39792
2.31638
2.22854
2.14006
2.05597
1.98022
1.91485
1.86142
1.81804
1.78795
1.75435
4.35368
4.34148
4.32895
4.31604
4.30271
4.28893
4.27467
4.2599
4.24463
4.22886
4.21259
4.1958
4.17849
4.16065
4.14227
4.12334
4.10386
4.08386
4.06334
4.04235
4.02091
3.99907
3.97689
3.95439
3.9316
3.90853
3.88519
3.86152
3.83748
3.81297
3.7879
3.76213
3.73552
3.70794
3.67924
3.64931
3.61804
3.58539
3.55132
3.51588
3.47913
3.44121
3.40229
3.36258
3.32232
3.28178
3.24122
3.20091
3.16109
3.122
3.0838
3.04665
3.01064
2.97583
2.94221
2.90974
2.87835
2.84792
2.81831
2.78938
2.76097
2.73291
2.70506
2.67728
2.64946
2.62152
2.59341
2.56513
2.53671
2.50826
2.47993
2.45192
2.42453
2.39811
2.37311
2.35001
2.32933
2.31159
2.2972
2.28634
2.27887
2.27414
2.27092
2.26741
2.26136
2.25033
2.23218
2.20541
2.16962
2.12561
2.07533
2.02149
1.96717
1.91519
1.86795
1.82666
1.79264
1.76435
1.74501
1.72198
4.18134
4.16443
4.14746
4.13038
4.11317
4.09577
4.07819
4.06039
4.04236
4.0241
4.00557
3.98677
3.96767
3.94826
3.9285
3.90837
3.88786
3.86693
3.84558
3.82379
3.80155
3.77888
3.75576
3.73222
3.70827
3.68391
3.65916
3.63403
3.60852
3.58263
3.55635
3.52968
3.50259
3.47508
3.44711
3.41869
3.38981
3.36046
3.33069
3.30051
3.26999
3.23919
3.20819
3.17711
3.14604
3.1151
3.08441
3.05407
3.02417
2.99481
2.96603
2.93788
2.91037
2.88349
2.85718
2.83139
2.80603
2.78099
2.75615
2.7314
2.7066
2.68162
2.65636
2.6307
2.60455
2.57785
2.55056
2.52266
2.49416
2.46513
2.43565
2.40584
2.37589
2.346
2.31644
2.28753
2.25958
2.23297
2.20801
2.18496
2.16391
2.14476
2.1271
2.11021
2.09309
2.07458
2.05355
2.02913
2.00094
1.96919
1.93473
1.89885
1.86313
1.82904
1.79799
1.77056
1.7478
1.72833
1.71523
1.69824
4.08833
4.06775
4.04723
4.02674
4.00625
3.98576
3.96524
3.94467
3.92404
3.90335
3.88257
3.8617
3.84071
3.8196
3.79833
3.7769
3.75526
3.73341
3.71132
3.68897
3.66634
3.64342
3.62021
3.59668
3.57286
3.54873
3.5243
3.49959
3.4746
3.44934
3.42384
3.3981
3.37214
3.34598
3.31963
3.29313
3.26648
3.23973
3.2129
3.18604
3.15918
3.13238
3.10568
3.07914
3.05282
3.02678
3.00105
2.97569
2.95072
2.92617
2.90204
2.87833
2.855
2.83201
2.80931
2.7868
2.76441
2.74204
2.71957
2.6969
2.67391
2.65049
2.62656
2.60201
2.57678
2.5508
2.52403
2.49647
2.46811
2.439
2.40918
2.37875
2.34782
2.31654
2.28508
2.25365
2.22248
2.19183
2.16193
2.13303
2.1053
2.07882
2.05356
2.02931
2.00571
1.98231
1.95859
1.93413
1.9087
1.88235
1.85542
1.82849
1.80235
1.7777
1.75533
1.73541
1.71879
1.70412
1.69438
1.68049
4.04118
4.01803
3.99496
3.97197
3.94904
3.92617
3.90333
3.88054
3.85777
3.83502
3.8123
3.78958
3.76686
3.74414
3.72139
3.69861
3.67578
3.65288
3.62989
3.6068
3.5836
3.56027
3.53679
3.51317
3.4894
3.46546
3.44137
3.41713
3.39275
3.36823
3.34359
3.31885
3.29403
3.26914
3.24421
3.21927
3.19434
3.16945
3.14464
3.11994
3.09539
3.07101
3.04684
3.02293
2.99928
2.97595
2.95293
2.93025
2.90792
2.88591
2.86422
2.84282
2.82165
2.80067
2.7798
2.75897
2.7381
2.71707
2.69581
2.67419
2.65214
2.62954
2.60631
2.58238
2.55767
2.53214
2.50575
2.47849
2.45036
2.42137
2.39159
2.36108
2.32992
2.29823
2.26615
2.23382
2.20142
2.16914
2.13718
2.10575
2.07502
2.04514
2.01622
1.98828
1.96127
1.93506
1.90951
1.88446
1.85982
1.83562
1.81201
1.78925
1.76771
1.74769
1.72963
1.71349
1.69991
1.6876
1.67942
1.6668
4.019
3.99425
3.96957
3.94495
3.92039
3.8959
3.87146
3.84708
3.82275
3.79848
3.77427
3.75011
3.72601
3.70196
3.67795
3.65399
3.63005
3.60614
3.58225
3.55836
3.53447
3.51057
3.48664
3.46269
3.43871
3.4147
3.39065
3.36657
3.34247
3.31835
3.29423
3.27011
3.24601
3.22195
3.19795
3.17403
3.15021
3.12653
3.10299
3.07964
3.05649
3.03357
3.0109
2.98851
2.9664
2.9446
2.92309
2.90189
2.88098
2.86034
2.83994
2.81975
2.79971
2.77976
2.75983
2.73985
2.71974
2.69939
2.67873
2.65765
2.63607
2.6139
2.59105
2.56747
2.54308
2.51785
2.49174
2.46474
2.43685
2.40809
2.3785
2.34814
2.31709
2.28545
2.25332
2.22083
2.18814
2.15539
2.12276
2.09043
2.05856
2.02733
1.99687
1.9673
1.9387
1.91111
1.88453
1.85898
1.83446
1.81101
1.78873
1.76773
1.74819
1.73023
1.71408
1.69958
1.6873
1.6759
1.66825
1.65581
4.00935
3.98371
3.95811
3.93255
3.90704
3.88156
3.85613
3.83075
3.80542
3.78015
3.75493
3.72978
3.7047
3.67968
3.65474
3.62987
3.60506
3.58033
3.55566
3.53105
3.50651
3.48202
3.45758
3.4332
3.40887
3.38459
3.36037
3.3362
3.3121
3.28806
3.2641
3.24023
3.21646
3.1928
3.16928
3.1459
3.12269
3.09966
3.07683
3.05423
3.03186
3.00975
2.98791
2.96635
2.94507
2.92409
2.90338
2.88296
2.86278
2.84284
2.82309
2.8035
2.784
2.76455
2.74507
2.72548
2.70571
2.68568
2.66529
2.64446
2.6231
2.60115
2.57851
2.55513
2.53095
2.50592
2.48003
2.45325
2.4256
2.39709
2.36775
2.33765
2.30685
2.27544
2.24352
2.21121
2.17864
2.14595
2.11329
2.08082
2.0487
2.01709
1.98616
1.95603
1.92684
1.8987
1.87168
1.84586
1.82131
1.79807
1.77624
1.75587
1.73706
1.71984
1.70436
1.69039
1.67842
1.66717
1.65946
1.64658
4.0054
3.97933
3.95327
3.92722
3.9012
3.87519
3.84922
3.82327
3.79736
3.77149
3.74568
3.71991
3.69421
3.66857
3.643
3.61751
3.5921
3.56677
3.54152
3.51636
3.49129
3.46631
3.44141
3.41662
3.39192
3.36732
3.34282
3.31844
3.29417
3.27002
3.24601
3.22214
3.19842
3.17487
3.1515
3.12832
3.10535
3.0826
3.06008
3.03781
3.0158
2.99406
2.97261
2.95143
2.93054
2.90993
2.88959
2.8695
2.84965
2.83
2.81052
2.79117
2.77188
2.75261
2.73328
2.71383
2.69418
2.67424
2.65395
2.6332
2.61194
2.59007
2.56753
2.54427
2.52022
2.49535
2.46964
2.44306
2.41563
2.38737
2.3583
2.32849
2.29799
2.26689
2.23529
2.20329
2.17102
2.13861
2.10619
2.07392
2.04195
2.01042
1.97951
1.94934
1.92007
1.89182
1.86469
1.83879
1.81421
1.79102
1.76928
1.74905
1.73039
1.71329
1.69786
1.68384
1.67172
1.6602
1.65213
1.63849
4.00382
3.97755
3.95127
3.92499
3.89872
3.87245
3.8462
3.81997
3.79375
3.76757
3.74142
3.71531
3.68925
3.66325
3.6373
3.61143
3.58563
3.55991
3.53427
3.50873
3.48328
3.45792
3.43268
3.40754
3.38253
3.35763
3.33286
3.30823
3.28375
3.25941
3.23524
3.21125
3.18743
3.16382
3.14041
3.11722
3.09426
3.07154
3.04908
3.02689
3.00497
2.98333
2.96197
2.9409
2.92011
2.89959
2.87934
2.85934
2.83955
2.81996
2.80052
2.78119
2.76191
2.74264
2.7233
2.70383
2.68416
2.6642
2.64389
2.62314
2.60188
2.58003
2.55754
2.53434
2.51038
2.48564
2.46007
2.43368
2.40646
2.37843
2.34964
2.32012
2.28994
2.25918
2.22793
2.19629
2.16439
2.13234
2.10028
2.06834
2.03668
2.00543
1.97475
1.94478
1.91565
1.8875
1.86044
1.83458
1.81001
1.7868
1.76504
1.74475
1.72599
1.70872
1.69307
1.67875
1.66623
1.65424
1.64568
1.63114
4.00311
3.97675
3.95037
3.92399
3.89761
3.87122
3.84484
3.81846
3.7921
3.76575
3.73943
3.71314
3.68689
3.66068
3.63452
3.60843
3.58239
3.55643
3.53055
3.50475
3.47905
3.45345
3.42795
3.40256
3.37729
3.35216
3.32716
3.3023
3.27761
3.25307
3.22872
3.20455
3.18058
3.15681
3.13327
3.10996
3.0869
3.06409
3.04155
3.01928
2.99728
2.97558
2.95416
2.93303
2.91217
2.89159
2.87127
2.85119
2.83132
2.81164
2.7921
2.77267
2.75329
2.7339
2.71446
2.69489
2.67511
2.65507
2.63467
2.61386
2.59256
2.5707
2.54821
2.52505
2.50116
2.47651
2.45108
2.42485
2.39783
2.37004
2.3415
2.31227
2.28241
2.25199
2.2211
2.18985
2.15833
2.12667
2.095
2.06345
2.03215
2.00126
1.97089
1.9412
1.91231
1.88435
1.85744
1.83167
1.80714
1.78392
1.76208
1.74166
1.72269
1.70516
1.68915
1.67442
1.6614
1.64888
1.63975
1.62426
4.0027
3.9763
3.94988
3.92344
3.897
3.87056
3.84411
3.81766
3.79122
3.76479
3.73838
3.712
3.68564
3.65932
3.63304
3.60681
3.58064
3.55453
3.5285
3.50254
3.47667
3.45089
3.42521
3.39964
3.37419
3.34887
3.32369
3.29865
3.27376
3.24905
3.22451
3.20016
3.17602
3.15208
3.12838
3.10491
3.08168
3.05872
3.03602
3.0136
2.99146
2.9696
2.94803
2.92675
2.90574
2.88501
2.86452
2.84428
2.82425
2.80439
2.78469
2.76508
2.74554
2.72599
2.70638
2.68665
2.66674
2.64657
2.62607
2.60517
2.5838
2.56189
2.5394
2.51625
2.49242
2.46785
2.44254
2.41646
2.38963
2.36206
2.33377
2.30483
2.27527
2.24519
2.21466
2.18378
2.15265
2.12138
2.09011
2.05895
2.02804
1.99751
1.96749
1.93811
1.90949
1.88176
1.85501
1.82936
1.80488
1.78165
1.75972
1.73913
1.71992
1.70207
1.68567
1.67048
1.65693
1.64383
1.63413
1.61768
4.00239
3.97596
3.94951
3.92305
3.89657
3.87009
3.8436
3.81712
3.79063
3.76416
3.73769
3.71125
3.68483
3.65844
3.63209
3.60578
3.57952
3.55331
3.52717
3.50111
3.47512
3.44922
3.42341
3.39771
3.37212
3.34665
3.32131
3.29612
3.27108
3.2462
3.2215
3.19699
3.17268
3.14857
3.1247
3.10105
3.07765
3.05451
3.03163
3.00903
2.9867
2.96466
2.9429
2.92142
2.90022
2.87929
2.8586
2.83815
2.81791
2.79786
2.77794
2.75813
2.73839
2.71864
2.69885
2.67895
2.65887
2.63855
2.61793
2.59692
2.57547
2.55352
2.531
2.50786
2.48407
2.45958
2.43438
2.40845
2.38179
2.35443
2.32639
2.29772
2.26847
2.23871
2.20852
2.178
2.14725
2.11638
2.08549
2.05473
2.02419
1.99403
1.96435
1.93528
1.90693
1.87943
1.85286
1.82732
1.80289
1.77964
1.75761
1.73684
1.71738
1.6992
1.68239
1.66672
1.65263
1.63894
1.62867
1.61128
4.00211
3.97566
3.94919
3.92271
3.89621
3.8697
3.84318
3.81667
3.79015
3.76364
3.73714
3.71065
3.68419
3.65775
3.63134
3.60497
3.57864
3.55237
3.52615
3.5
3.47392
3.44793
3.42202
3.39621
3.37051
3.34492
3.31946
3.29414
3.26896
3.24394
3.2191
3.19443
3.16996
3.1457
3.12165
3.09784
3.07427
3.05094
3.02788
3.00509
2.98257
2.96033
2.93836
2.91668
2.89526
2.87411
2.85321
2.83254
2.81208
2.7918
2.77167
2.75164
2.73168
2.71173
2.69175
2.67166
2.65141
2.63094
2.61018
2.58907
2.56754
2.54552
2.52298
2.49985
2.47609
2.45167
2.42657
2.40077
2.37429
2.34713
2.31933
2.29092
2.26196
2.23252
2.20267
2.1725
2.14212
2.11162
2.08111
2.05072
2.02056
1.99074
1.96139
1.93262
1.90454
1.87726
1.85086
1.82543
1.80104
1.77775
1.75562
1.73467
1.71494
1.69641
1.67918
1.66303
1.64839
1.63412
1.62327
1.60496
4.00185
3.97539
3.9489
3.92239
3.89587
3.86934
3.8428
3.81625
3.78971
3.76317
3.73663
3.71011
3.68361
3.65713
3.63067
3.60425
3.57787
3.55154
3.52526
3.49904
3.47289
3.44681
3.42082
3.39491
3.36911
3.34342
3.31785
3.29241
3.26712
3.24197
3.21699
3.19219
3.16758
3.14316
3.11896
3.09498
3.07124
3.04775
3.0245
3.00152
2.97881
2.95637
2.9342
2.91231
2.89068
2.86932
2.84819
2.8273
2.80662
2.78611
2.76576
2.74552
2.72534
2.70519
2.685
2.66473
2.64431
2.62369
2.6028
2.58157
2.55996
2.53789
2.51531
2.49218
2.46845
2.4441
2.4191
2.39343
2.36712
2.34015
2.31258
2.28442
2.25574
2.22661
2.19708
2.16726
2.13723
2.1071
2.07696
2.04693
2.01712
1.98764
1.95861
1.93012
1.9023
1.87521
1.84897
1.82363
1.79927
1.77593
1.75368
1.73253
1.71252
1.69363
1.67597
1.65932
1.64413
1.62927
1.61785
1.59865
4.00161
3.97512
3.94862
3.92209
3.89555
3.86899
3.84243
3.81586
3.78929
3.76272
3.73616
3.70961
3.68307
3.65655
3.63005
3.60359
3.57716
3.55077
3.52443
3.49815
3.47193
3.44578
3.41971
3.39372
3.36783
3.34205
3.31638
3.29084
3.26543
3.24017
3.21507
3.19014
3.16539
3.14083
3.11648
3.09235
3.06845
3.04478
3.02137
2.99821
2.97531
2.95268
2.93031
2.90822
2.88638
2.8648
2.84347
2.82236
2.80146
2.78073
2.76016
2.7397
2.71932
2.69896
2.67859
2.65813
2.63755
2.61678
2.59576
2.57442
2.55272
2.53059
2.50799
2.48486
2.46116
2.43687
2.41196
2.38643
2.36027
2.3335
2.30614
2.27824
2.24983
2.22099
2.19179
2.1623
2.13261
2.10283
2.07304
2.04336
2.01389
1.98474
1.956
1.92779
1.90019
1.8733
1.84718
1.82192
1.79756
1.77417
1.75177
1.73039
1.71008
1.69082
1.6727
1.65554
1.63977
1.62431
1.61231
1.59224
4.00138
3.97488
3.94835
3.92181
3.89524
3.86867
3.84208
3.81549
3.7889
3.7623
3.73571
3.70912
3.68255
3.65599
3.62946
3.60295
3.57648
3.55004
3.52365
3.49731
3.47102
3.44481
3.41866
3.3926
3.36663
3.34076
3.315
3.28936
3.26385
3.23848
3.21326
3.18821
3.16333
3.13864
3.11415
3.08988
3.06582
3.042
3.01842
2.99509
2.97201
2.9492
2.92665
2.90435
2.88232
2.86054
2.839
2.81768
2.79656
2.77563
2.75485
2.73418
2.7136
2.69305
2.67249
2.65186
2.63112
2.6102
2.58905
2.56762
2.54584
2.52365
2.50102
2.47789
2.45423
2.43
2.40519
2.37978
2.35378
2.32719
2.30005
2.27239
2.24426
2.21571
2.18681
2.15765
2.1283
2.09885
2.06941
2.04006
2.01092
1.98207
1.95362
1.92565
1.89827
1.87154
1.84553
1.82031
1.79594
1.77245
1.74987
1.72824
1.70759
1.68791
1.66929
1.65158
1.6352
1.61913
1.60654
1.58566
4.00116
3.97464
3.9481
3.92154
3.89496
3.86836
3.84176
3.81514
3.78852
3.7619
3.73528
3.70866
3.68206
3.65547
3.6289
3.60235
3.57583
3.54934
3.5229
3.4965
3.47016
3.44388
3.41767
3.39154
3.36549
3.33954
3.31369
3.28796
3.26235
3.23688
3.21155
3.18639
3.16139
3.13658
3.11196
3.08755
3.06335
3.03937
3.01564
2.99214
2.9689
2.94591
2.92318
2.9007
2.87848
2.85651
2.83477
2.81325
2.79193
2.7708
2.74982
2.72895
2.70818
2.68744
2.6667
2.64591
2.62502
2.60396
2.5827
2.56116
2.53931
2.51708
2.49442
2.4713
2.44767
2.42351
2.3988
2.37352
2.34768
2.32128
2.29436
2.26694
2.23908
2.21081
2.18222
2.15338
2.12435