/*--------------------------------*- C++ -*----------------------------------*\
| =========                 |                                                 |
| \\      /  F ield         | OpenFOAM: The Open Source CFD Toolbox           |
|  \\    /   O peration     | Version:  2.1.1                                 |
|   \\  /    A nd           | Web:      www.OpenFOAM.org                      |
|    \\/     M anipulation  |                                                 |
\*---------------------------------------------------------------------------*/
FoamFile
{
    version     2.0;
    format      ascii;
    class       volScalarField;
    location    "0.155";
    object      k;
}
// * * * * * * * * * * * * * * * * * * * * * * * * * * * * * * * * * * * * * //

dimensions      [0 2 -2 0 0 0 0];

internalField   nonuniform List<scalar> 
6820
(
0.288909
0.351398
0.415005
0.477466
0.53686
0.591557
0.640371
0.682628
0.718124
0.74703
0.769791
0.787025
0.799431
0.807729
0.812609
0.814705
0.81458
0.812721
0.809539
0.805376
0.800513
0.795175
0.789542
0.783756
0.777927
0.772138
0.766449
0.760916
0.755505
0.750538
0.744532
0.744616
0.716386
0.265532
0.269396
0.270523
0.27134
0.272558
0.274214
0.276225
0.278475
0.280855
0.283279
0.285691
0.28806
0.290377
0.292647
0.294884
0.297107
0.299335
0.301587
0.303879
0.306223
0.308629
0.311104
0.313649
0.316267
0.318957
0.321719
0.324554
0.32747
0.33048
0.33364
0.336966
0.340951
0.345077
0.262038
0.264253
0.263596
0.261557
0.259001
0.256319
0.253627
0.250938
0.24824
0.245525
0.242794
0.240062
0.237346
0.234668
0.232052
0.229518
0.227085
0.224768
0.222581
0.220531
0.218626
0.216869
0.215261
0.213803
0.212493
0.211327
0.210303
0.209417
0.208664
0.208048
0.207555
0.207215
0.206966
0.259885
0.260272
0.259797
0.258535
0.256829
0.254891
0.252833
0.25071
0.248547
0.246359
0.244152
0.241935
0.239714
0.237496
0.235288
0.233098
0.230934
0.228802
0.22671
0.224662
0.222664
0.220721
0.218834
0.217008
0.215244
0.213543
0.211906
0.210333
0.208823
0.207376
0.205989
0.204664
0.203389
0.259299
0.258404
0.2576
0.256567
0.255295
0.25385
0.252292
0.250662
0.248985
0.247278
0.245552
0.243816
0.242075
0.240336
0.238603
0.236879
0.235168
0.233475
0.231802
0.230152
0.228528
0.226932
0.225366
0.223833
0.222332
0.220866
0.219435
0.21804
0.216681
0.215358
0.214072
0.212822
0.21161
0.259224
0.257848
0.256623
0.255437
0.254227
0.25297
0.251663
0.250313
0.248929
0.247523
0.246101
0.244671
0.243238
0.241806
0.240379
0.23896
0.237551
0.236155
0.234774
0.23341
0.232064
0.230738
0.229434
0.228151
0.226891
0.225655
0.224443
0.223256
0.222094
0.220957
0.219847
0.218764
0.217709
0.259217
0.257715
0.256309
0.25498
0.253698
0.252442
0.251196
0.249951
0.248704
0.247455
0.246205
0.244956
0.24371
0.24247
0.241238
0.240015
0.238802
0.237603
0.236417
0.235245
0.23409
0.232951
0.23183
0.230727
0.229642
0.228576
0.22753
0.226504
0.225497
0.224511
0.223547
0.222603
0.221682
0.259218
0.25769
0.256225
0.254822
0.253477
0.252181
0.250924
0.249696
0.248492
0.247307
0.246137
0.244982
0.24384
0.242711
0.241596
0.240495
0.239407
0.238334
0.237276
0.236233
0.235206
0.234195
0.2332
0.232222
0.231261
0.230318
0.229391
0.228482
0.22759
0.226717
0.225861
0.225024
0.224205
0.259218
0.257686
0.256207
0.25478
0.253405
0.25208
0.2508
0.24956
0.248357
0.247186
0.246043
0.244925
0.243831
0.242758
0.241706
0.240673
0.239658
0.238662
0.237683
0.236722
0.235778
0.234851
0.233941
0.233049
0.232173
0.231313
0.230471
0.229645
0.228835
0.228043
0.227267
0.226507
0.225765
0.259218
0.257686
0.256203
0.254769
0.253384
0.252045
0.250751
0.2495
0.248289
0.247115
0.245975
0.244867
0.243789
0.242738
0.241714
0.240714
0.239736
0.238781
0.237847
0.236933
0.236039
0.235164
0.234307
0.233469
0.232648
0.231845
0.231058
0.230289
0.229536
0.228799
0.228079
0.227375
0.226686
0.259218
0.257686
0.256202
0.254767
0.253378
0.252035
0.250735
0.249477
0.24826
0.247081
0.245938
0.24483
0.243754
0.242709
0.241694
0.240706
0.239745
0.238809
0.237896
0.237006
0.236139
0.235292
0.234465
0.233659
0.232871
0.232101
0.23135
0.230616
0.229899
0.229199
0.228516
0.227848
0.227196
0.259218
0.257685
0.256201
0.254766
0.253376
0.252031
0.250729
0.249469
0.248248
0.247066
0.24592
0.24481
0.243733
0.242689
0.241675
0.24069
0.239734
0.238804
0.2379
0.237021
0.236165
0.235332
0.23452
0.23373
0.23296
0.232209
0.231477
0.230764
0.230068
0.22939
0.228728
0.228083
0.227454
0.259218
0.257685
0.256201
0.254765
0.253375
0.25203
0.250727
0.249465
0.248244
0.24706
0.245913
0.244801
0.243722
0.242677
0.241662
0.240678
0.239722
0.238794
0.237892
0.237016
0.236165
0.235337
0.234532
0.233748
0.232986
0.232244
0.231522
0.230819
0.230134
0.229468
0.228818
0.228185
0.227569
0.259218
0.257685
0.256201
0.254764
0.253374
0.252028
0.250725
0.249463
0.248241
0.247056
0.245908
0.244796
0.243716
0.24267
0.241655
0.240669
0.239713
0.238785
0.237884
0.237008
0.236158
0.235332
0.234528
0.233748
0.232988
0.23225
0.231532
0.230833
0.230153
0.229492
0.228848
0.228221
0.227611
0.259218
0.257685
0.2562
0.254764
0.253374
0.252028
0.250724
0.249462
0.248239
0.247054
0.245906
0.244792
0.243713
0.242665
0.24165
0.240664
0.239707
0.238779
0.237877
0.237001
0.236151
0.235324
0.234522
0.233741
0.232983
0.232245
0.231528
0.230831
0.230153
0.229494
0.228852
0.228227
0.22762
0.259218
0.257685
0.2562
0.254764
0.253373
0.252027
0.250723
0.249461
0.248238
0.247052
0.245903
0.24479
0.24371
0.242662
0.241646
0.24066
0.239702
0.238773
0.237871
0.236995
0.236144
0.235318
0.234515
0.233734
0.232976
0.232238
0.231522
0.230825
0.230147
0.229488
0.228846
0.228223
0.227616
0.259218
0.257685
0.2562
0.254763
0.253373
0.252026
0.250722
0.24946
0.248236
0.247051
0.245901
0.244787
0.243707
0.242659
0.241642
0.240656
0.239698
0.238769
0.237867
0.23699
0.236139
0.235312
0.234509
0.233728
0.232969
0.232231
0.231514
0.230817
0.230139
0.22948
0.228838
0.228214
0.227607
0.259218
0.257684
0.2562
0.254763
0.253372
0.252026
0.250722
0.249459
0.248235
0.247049
0.2459
0.244785
0.243705
0.242657
0.24164
0.240653
0.239695
0.238765
0.237862
0.236986
0.236134
0.235307
0.234503
0.233722
0.232963
0.232225
0.231507
0.23081
0.230131
0.229471
0.22883
0.228205
0.227598
0.259218
0.257684
0.2562
0.254763
0.253372
0.252025
0.250721
0.249458
0.248234
0.247048
0.245898
0.244784
0.243703
0.242654
0.241637
0.24065
0.239692
0.238762
0.237859
0.236981
0.23613
0.235302
0.234498
0.233716
0.232957
0.232218
0.231501
0.230803
0.230124
0.229464
0.228821
0.228197
0.227589
0.259218
0.257684
0.2562
0.254763
0.253371
0.252025
0.25072
0.249457
0.248233
0.247047
0.245897
0.244782
0.243701
0.242652
0.241635
0.240647
0.239689
0.238758
0.237855
0.236978
0.236125
0.235298
0.234493
0.233711
0.232951
0.232213
0.231494
0.230796
0.230117
0.229456
0.228814
0.228188
0.22758
0.259218
0.257684
0.256199
0.254762
0.253371
0.252024
0.25072
0.249456
0.248232
0.247046
0.245896
0.24478
0.243699
0.24265
0.241632
0.240645
0.239686
0.238755
0.237852
0.236974
0.236122
0.235293
0.234489
0.233706
0.232946
0.232207
0.231489
0.23079
0.23011
0.229449
0.228806
0.22818
0.227572
0.259218
0.257684
0.256199
0.254762
0.253371
0.252024
0.250719
0.249456
0.248231
0.247045
0.245894
0.244779
0.243698
0.242648
0.24163
0.240643
0.239684
0.238753
0.237849
0.236971
0.236118
0.23529
0.234484
0.233702
0.232941
0.232202
0.231483
0.230784
0.230104
0.229443
0.228799
0.228173
0.227564
0.259218
0.257684
0.256199
0.254762
0.253371
0.252024
0.250719
0.249455
0.248231
0.247044
0.245893
0.244778
0.243696
0.242647
0.241629
0.240641
0.239681
0.23875
0.237846
0.236968
0.236115
0.235286
0.234481
0.233698
0.232937
0.232197
0.231478
0.230778
0.230098
0.229436
0.228792
0.228166
0.227556
0.259218
0.257684
0.256199
0.254762
0.253371
0.252023
0.250719
0.249455
0.24823
0.247043
0.245893
0.244777
0.243695
0.242645
0.241627
0.240639
0.239679
0.238748
0.237844
0.236965
0.236112
0.235283
0.234477
0.233694
0.232933
0.232193
0.231473
0.230773
0.230093
0.22943
0.228786
0.228159
0.227549
0.259218
0.257684
0.256199
0.254762
0.25337
0.252023
0.250718
0.249454
0.24823
0.247043
0.245892
0.244776
0.243694
0.242644
0.241626
0.240637
0.239678
0.238746
0.237841
0.236963
0.236109
0.23528
0.234474
0.23369
0.232929
0.232189
0.231469
0.230769
0.230087
0.229425
0.22878
0.228153
0.227543
0.259218
0.257684
0.256199
0.254762
0.25337
0.252023
0.250718
0.249454
0.248229
0.247042
0.245891
0.244775
0.243693
0.242643
0.241624
0.240636
0.239676
0.238744
0.237839
0.23696
0.236107
0.235277
0.234471
0.233687
0.232925
0.232185
0.231465
0.230764
0.230083
0.22942
0.228775
0.228147
0.227537
0.259218
0.257684
0.256199
0.254762
0.25337
0.252023
0.250718
0.249454
0.248229
0.247042
0.245891
0.244775
0.243692
0.242642
0.241623
0.240634
0.239674
0.238742
0.237837
0.236958
0.236104
0.235274
0.234468
0.233684
0.232922
0.232181
0.231461
0.23076
0.230078
0.229415
0.22877
0.228142
0.227531
0.259218
0.257684
0.256199
0.254762
0.25337
0.252023
0.250718
0.249454
0.248229
0.247041
0.24589
0.244774
0.243692
0.242642
0.241623
0.240634
0.239674
0.238741
0.237836
0.236957
0.236103
0.235273
0.234466
0.233682
0.23292
0.232178
0.231458
0.230757
0.230075
0.229411
0.228766
0.228138
0.227526
0.259218
0.257684
0.256199
0.254762
0.25337
0.252023
0.250718
0.249453
0.248228
0.247041
0.24589
0.244774
0.243691
0.242641
0.241622
0.240632
0.239672
0.23874
0.237835
0.236955
0.236101
0.235271
0.234464
0.23368
0.232917
0.232176
0.231455
0.230754
0.230071
0.229408
0.228762
0.228133
0.227522
0.259218
0.257684
0.256199
0.254762
0.25337
0.252023
0.250718
0.249454
0.248229
0.247041
0.24589
0.244774
0.243692
0.242641
0.241622
0.240633
0.239672
0.23874
0.237835
0.236955
0.2361
0.23527
0.234463
0.233679
0.232916
0.232174
0.231453
0.230752
0.230069
0.229405
0.228759
0.228131
0.227518
0.259218
0.257684
0.256199
0.254762
0.25337
0.252023
0.250718
0.249453
0.248228
0.247041
0.24589
0.244774
0.243691
0.242641
0.241621
0.240632
0.239672
0.23874
0.237834
0.236954
0.2361
0.235269
0.234462
0.233678
0.232915
0.232173
0.231452
0.23075
0.230068
0.229404
0.228757
0.228128
0.227516
0.259218
0.257684
0.256199
0.254762
0.253371
0.252024
0.25072
0.249456
0.248231
0.247044
0.245893
0.244777
0.243695
0.242644
0.241625
0.240636
0.239676
0.238743
0.237837
0.236958
0.236103
0.235272
0.234465
0.23368
0.232917
0.232175
0.231454
0.230752
0.230069
0.229404
0.228758
0.228128
0.227516
0.259218
0.257685
0.2562
0.254764
0.253373
0.252026
0.250721
0.249457
0.248232
0.247046
0.245895
0.244779
0.243697
0.242647
0.241628
0.240639
0.239679
0.238746
0.237841
0.236961
0.236106
0.235275
0.234468
0.233683
0.23292
0.232177
0.231455
0.230753
0.230069
0.229404
0.228756
0.228126
0.227512
0.259218
0.257685
0.256201
0.254766
0.253378
0.252033
0.250731
0.249469
0.248246
0.24706
0.24591
0.244795
0.243713
0.242663
0.241643
0.240654
0.239693
0.23876
0.237853
0.236972
0.236116
0.235284
0.234475
0.233688
0.232922
0.232178
0.231453
0.230748
0.230061
0.229393
0.228742
0.228108
0.227491
0.259219
0.257689
0.25621
0.254777
0.25339
0.252046
0.250743
0.249482
0.248259
0.247074
0.245924
0.244809
0.243726
0.242675
0.241655
0.240664
0.239701
0.238764
0.237854
0.236969
0.236108
0.23527
0.234455
0.233661
0.232889
0.232136
0.231403
0.230689
0.229994
0.229316
0.228655
0.228011
0.227383
0.25922
0.257694
0.256221
0.254799
0.253423
0.252089
0.250795
0.249539
0.248318
0.247131
0.245978
0.244857
0.243767
0.242706
0.241674
0.240669
0.239691
0.238738
0.23781
0.236906
0.236025
0.235167
0.23433
0.233514
0.232718
0.231942
0.231185
0.230446
0.229725
0.229022
0.228336
0.227666
0.227013
0.259229
0.257738
0.256292
0.254882
0.253508
0.252172
0.250871
0.249603
0.248368
0.247162
0.245985
0.244837
0.243716
0.242621
0.241552
0.240508
0.239489
0.238494
0.237523
0.236574
0.235647
0.234743
0.233859
0.232996
0.232153
0.231329
0.230525
0.229739
0.228971
0.228221
0.227488
0.226772
0.226072
0.259265
0.257822
0.256453
0.255125
0.253804
0.252483
0.251164
0.249854
0.248561
0.24729
0.246045
0.244828
0.243639
0.24248
0.24135
0.240248
0.239173
0.238126
0.237105
0.236108
0.235136
0.234188
0.233262
0.232358
0.231475
0.230613
0.229771
0.228948
0.228145
0.22736
0.226593
0.225844
0.225112
0.259599
0.258632
0.257578
0.256541
0.255587
0.254713
0.253905
0.25315
0.252444
0.251782
0.251164
0.250589
0.250056
0.249565
0.249114
0.248702
0.248327
0.247989
0.247684
0.247411
0.247169
0.246955
0.246769
0.246607
0.24647
0.246355
0.24626
0.246186
0.24613
0.246091
0.246068
0.246061
0.246067
0.266719
0.280569
0.294241
0.307622
0.320668
0.333362
0.345692
0.357649
0.369224
0.380412
0.391211
0.401619
0.411638
0.42127
0.430521
0.439396
0.447902
0.456047
0.463841
0.471292
0.478411
0.485208
0.491693
0.497878
0.503773
0.509388
0.514736
0.519826
0.524668
0.529274
0.533654
0.537815
0.541774
0.844128
1.01369
1.18483
1.35905
1.53395
1.7001
1.84645
1.96476
2.05189
2.11001
2.14471
2.16291
2.17094
2.17358
2.17377
2.17295
2.17165
2.16997
2.16798
2.16585
2.16384
2.16228
2.16143
2.16143
2.16229
2.16386
2.16591
2.16809
2.17001
2.17123
2.17131
2.16978
2.16616
2.15999
2.15079
2.13812
2.12154
2.10063
2.07502
2.04438
2.00845
1.96703
1.92
1.86735
1.80917
1.74568
1.67723
1.60432
1.52759
1.4478
1.36588
1.28283
1.19975
1.1178
1.03812
0.961801
0.889854
0.823122
0.762263
0.707719
0.659713
0.618257
0.583191
0.554226
0.530993
0.513088
0.500115
0.491708
0.487543
0.487335
0.490824
0.497745
0.507801
0.520624
0.535744
0.552564
0.570355
0.588262
0.605332
0.620564
0.632953
0.641549
0.645509
0.644141
0.636944
0.623637
0.604188
0.578834
0.5481
0.512812
0.474095
0.43335
0.392191
0.35232
0.315353
0.282593
0.254898
0.232345
0.215589
0.19832
0.353784
0.367222
0.387454
0.417504
0.460294
0.518382
0.593414
0.685293
0.791764
0.908575
1.02998
1.14962
1.26159
1.36128
1.44601
1.51508
1.56946
1.61123
1.64292
1.66703
1.68565
1.70038
1.71229
1.72205
1.73002
1.73636
1.74113
1.74431
1.74581
1.7455
1.7432
1.73869
1.73168
1.72189
1.709
1.69269
1.67266
1.6486
1.62029
1.58753
1.55019
1.5082
1.46161
1.41055
1.35528
1.29615
1.23366
1.16844
1.10122
1.03284
0.964246
0.896402
0.830305
0.766912
0.707097
0.6516
0.600992
0.555643
0.515716
0.481181
0.451841
0.427381
0.407414
0.39153
0.379332
0.370472
0.364659
0.361671
0.361354
0.363606
0.368365
0.375585
0.385199
0.397092
0.411054
0.426748
0.443686
0.461217
0.478544
0.494761
0.508905
0.520021
0.527228
0.529779
0.527112
0.518894
0.505055
0.485809
0.461669
0.433455
0.402271
0.369459
0.33651
0.30492
0.276016
0.250764
0.229716
0.212772
0.200324
0.187626
0.206596
0.206359
0.206756
0.208188
0.21109
0.215947
0.223356
0.234293
0.249902
0.271414
0.300013
0.336648
0.381807
0.435324
0.496273
0.563
0.633279
0.704585
0.774405
0.840537
0.901298
0.955635
1.0031
1.04375
1.07798
1.10638
1.12957
1.14813
1.16252
1.17308
1.18002
1.18344
1.18336
1.17975
1.17254
1.16163
1.14694
1.12841
1.10599
1.0797
1.0496
1.01584
0.978622
0.938259
0.89515
0.849789
0.80276
0.754728
0.706417
0.65859
0.612007
0.567397
0.525411
0.486585
0.451314
0.41983
0.392202
0.368353
0.348086
0.331119
0.31713
0.305787
0.296778
0.289827
0.284708
0.281247
0.279324
0.278871
0.279867
0.282331
0.286318
0.291899
0.299148
0.308113
0.318785
0.331059
0.344702
0.359318
0.374345
0.389065
0.402643
0.414191
0.422839
0.427807
0.428477
0.42445
0.415585
0.402031
0.38424
0.362956
0.339185
0.314124
0.289055
0.265204
0.243589
0.224884
0.209435
0.197077
0.188078
0.17897
0.201975
0.200465
0.199055
0.197747
0.196575
0.195604
0.194924
0.194612
0.194804
0.195688
0.197499
0.200522
0.205087
0.211567
0.220355
0.231844
0.246377
0.264199
0.285398
0.309856
0.337231
0.366961
0.398307
0.430417
0.462403
0.493417
0.522706
0.549651
0.573778
0.594754
0.612367
0.626498
0.637098
0.644162
0.647719
0.647818
0.644532
0.637957
0.628218
0.61548
0.599949
0.581883
0.561593
0.539444
0.515851
0.491271
0.466191
0.441106
0.416504
0.392832
0.370483
0.349768
0.330904
0.314014
0.299126
0.286187
0.275087
0.265673
0.257775
0.251221
0.245846
0.241507
0.23808
0.235468
0.233599
0.232428
0.231935
0.232125
0.233029
0.234703
0.237225
0.240689
0.2452
0.250862
0.257753
0.265906
0.275269
0.285677
0.296821
0.308236
0.319316
0.329343
0.337557
0.343225
0.34572
0.344593
0.339629
0.330881
0.318685
0.303647
0.2866
0.268523
0.250435
0.233275
0.21779
0.204441
0.193463
0.1847
0.17837
0.172018
0.210248
0.208736
0.207248
0.205776
0.204323
0.202898
0.201519
0.200204
0.198973
0.197853
0.196882
0.196104
0.195574
0.195357
0.195524
0.196155
0.197336
0.19916
0.201715
0.205089
0.209355
0.214568
0.220751
0.227888
0.235919
0.244729
0.254155
0.263985
0.273973
0.283849
0.293337
0.302166
0.310089
0.316888
0.322387
0.326453
0.328999
0.32999
0.329433
0.327384
0.323942
0.319244
0.31346
0.306787
0.299441
0.291646
0.283624
0.275583
0.26771
0.260163
0.253064
0.2465
0.240521
0.23515
0.23038
0.226191
0.222544
0.219397
0.216704
0.214419
0.212499
0.210909
0.209618
0.208605
0.207858
0.207375
0.207165
0.20725
0.207664
0.208456
0.209688
0.211436
0.213787
0.216835
0.220667
0.225354
0.230927
0.237352
0.244505
0.252143
0.259903
0.267303
0.273779
0.27874
0.281634
0.282026
0.279653
0.274477
0.266696
0.256739
0.245222
0.232875
0.22045
0.208628
0.197945
0.188724
0.181148
0.175098
0.170773
0.166486
0.216511
0.215156
0.213799
0.212444
0.211093
0.209745
0.208403
0.207072
0.205757
0.204465
0.203207
0.201995
0.200843
0.199767
0.198787
0.197923
0.197198
0.196634
0.196255
0.196083
0.196139
0.196442
0.197007
0.197842
0.198952
0.200332
0.201968
0.203835
0.205897
0.208108
0.210412
0.212744
0.215036
0.217215
0.219212
0.220962
0.222407
0.223502
0.224217
0.224535
0.224456
0.223994
0.223179
0.222051
0.220659
0.219058
0.217307
0.21546
0.213571
0.211687
0.209847
0.208083
0.206419
0.204869
0.203442
0.202141
0.200962
0.1999
0.198946
0.198092
0.197328
0.196646
0.19604
0.195506
0.195046
0.194666
0.194375
0.194193
0.194143
0.194261
0.194587
0.195175
0.196085
0.197385
0.199143
0.201425
0.20428
0.207725
0.211726
0.21618
0.2209
0.225607
0.229943
0.2335
0.235864
0.236677
0.235685
0.232794
0.228085
0.221819
0.214401
0.206329
0.198123
0.190256
0.183109
0.176914
0.171825
0.167759
0.164898
0.162121
0.220633
0.219443
0.218245
0.21704
0.215827
0.214608
0.213383
0.212154
0.210924
0.209699
0.208481
0.207274
0.206085
0.204919
0.203783
0.202685
0.201633
0.200636
0.199705
0.198847
0.198071
0.197387
0.196801
0.196319
0.195944
0.19568
0.195524
0.195473
0.195522
0.19566
0.195876
0.196156
0.196481
0.196833
0.197193
0.197541
0.197858
0.198126
0.19833
0.198459
0.198505
0.198463
0.198332
0.198118
0.197825
0.197464
0.197047
0.196585
0.196091
0.195577
0.195055
0.194534
0.194021
0.19352
0.193036
0.192568
0.192115
0.191676
0.191245
0.190819
0.190394
0.189966
0.189533
0.189093
0.188648
0.188201
0.187761
0.187337
0.186946
0.18661
0.186354
0.186212
0.186225
0.186437
0.186898
0.187657
0.188758
0.19023
0.192076
0.194263
0.196703
0.199252
0.201706
0.203815
0.205305
0.20592
0.205459
0.203814
0.200995
0.197136
0.192481
0.187342
0.18206
0.176951
0.172282
0.168216
0.164885
0.162227
0.160406
0.158702
0.223272
0.22221
0.221138
0.220054
0.218961
0.21786
0.216751
0.215636
0.214515
0.213391
0.212265
0.21114
0.210018
0.208903
0.207797
0.206704
0.205628
0.204574
0.203546
0.202549
0.201587
0.200666
0.19979
0.198962
0.198188
0.197468
0.196806
0.196202
0.195656
0.195167
0.194732
0.194349
0.194012
0.193716
0.193456
0.193224
0.193015
0.192821
0.192636
0.192456
0.192275
0.19209
0.191898
0.191697
0.191487
0.191268
0.191041
0.190808
0.19057
0.190328
0.190084
0.189839
0.189591
0.18934
0.189085
0.188822
0.188547
0.188258
0.187948
0.187615
0.187253
0.186858
0.186429
0.185961
0.185456
0.184914
0.184339
0.183737
0.183117
0.182492
0.181877
0.181295
0.18077
0.180331
0.180012
0.179847
0.179872
0.180114
0.180589
0.181294
0.182195
0.183224
0.184274
0.185204
0.185851
0.186047
0.185653
0.184577
0.182799
0.180378
0.177448
0.174193
0.170826
0.167551
0.164548
0.161928
0.1598
0.158111
0.157006
0.156037
0.224918
0.223954
0.222979
0.221995
0.221001
0.219997
0.218984
0.217963
0.216935
0.215902
0.214864
0.213823
0.21278
0.211738
0.210698
0.209662
0.208632
0.20761
0.2066
0.205603
0.204623
0.203662
0.202724
0.201811
0.200926
0.200072
0.19925
0.198464
0.197714
0.197001
0.196326
0.19569
0.195091
0.194528
0.194
0.193506
0.193043
0.19261
0.192202
0.19182
0.191459
0.191118
0.190796
0.19049
0.190199
0.189921
0.189656
0.189401
0.189155
0.188917
0.188684
0.188454
0.188224
0.187991
0.187749
0.187496
0.187225
0.186933
0.186613
0.186261
0.185871
0.18544
0.184963
0.184438
0.183863
0.183236
0.182559
0.181835
0.181069
0.180267
0.179439
0.178599
0.177761
0.176945
0.176173
0.175468
0.174857
0.174362
0.174002
0.173785
0.173705
0.173735
0.173824
0.173901
0.173873
0.173643
0.173122
0.172243
0.170982
0.169358
0.167441
0.165335
0.163166
0.161061
0.159137
0.157465
0.156131
0.155084
0.154453
0.153964
0.225902
0.225009
0.224106
0.223195
0.222274
0.221345
0.220407
0.219462
0.218509
0.21755
0.216586
0.215617
0.214645
0.213671
0.212696
0.211721
0.210748
0.209777
0.208812
0.207852
0.2069
0.205958
0.205028
0.204112
0.203211
0.202329
0.201466
0.200626
0.199808
0.199016
0.198251
0.197513
0.196804
0.196124
0.195474
0.194853
0.194262
0.1937
0.193166
0.19266
0.192182
0.191729
0.191301
0.190897
0.190515
0.190154
0.189812
0.189487
0.189177
0.188879
0.188591
0.188308
0.188028
0.187745
0.187455
0.187153
0.186835
0.186493
0.186124
0.185721
0.18528
0.184796
0.184264
0.183681
0.183044
0.182351
0.181602
0.180798
0.17994
0.179034
0.178083
0.177097
0.176085
0.175059
0.174034
0.173026
0.172055
0.171136
0.170289
0.169524
0.168847
0.168252
0.167721
0.167221
0.166707
0.166127
0.165428
0.16457
0.163532
0.162319
0.160964
0.159524
0.158072
0.156681
0.155428
0.154351
0.153517
0.152877
0.152542
0.152346
0.226454
0.22561
0.224758
0.223899
0.223032
0.222157
0.221275
0.220386
0.21949
0.218588
0.217681
0.21677
0.215854
0.214935
0.214015
0.213093
0.21217
0.211248
0.210328
0.20941
0.208496
0.207587
0.206685
0.205791
0.204906
0.204032
0.20317
0.202323
0.201492
0.200678
0.199883
0.199108
0.198355
0.197625
0.196918
0.196236
0.195578
0.194947
0.194341
0.193762
0.193208
0.19268
0.192176
0.191698
0.191242
0.190809
0.190396
0.190001
0.189623
0.189259
0.188905
0.188558
0.188215
0.187871
0.18752
0.187159
0.186783
0.186385
0.18596
0.185504
0.18501
0.184475
0.183893
0.183261
0.182575
0.181834
0.181036
0.18018
0.179267
0.1783
0.177281
0.176216
0.175111
0.173974
0.172815
0.171647
0.170482
0.169333
0.168215
0.167141
0.16612
0.165155
0.164246
0.163381
0.162542
0.161705
0.160844
0.159939
0.158974
0.157952
0.156889
0.155814
0.154767
0.153791
0.152932
0.152208
0.151672
0.151271
0.151109
0.151071
0.226739
0.225926
0.225108
0.224283
0.223452
0.222614
0.22177
0.220921
0.220065
0.219205
0.21834
0.21747
0.216597
0.215721
0.214842
0.213961
0.213079
0.212197
0.211315
0.210433
0.209554
0.208677
0.207805
0.206936
0.206074
0.205219
0.204373
0.203536
0.20271
0.201897
0.201097
0.200313
0.199545
0.198795
0.198063
0.197352
0.196661
0.195992
0.195345
0.194721
0.19412
0.193542
0.192987
0.192454
0.191944
0.191454
0.190985
0.190533
0.190097
0.189674
0.189262
0.188857
0.188457
0.188055
0.187649
0.187234
0.186804
0.186354
0.18588
0.185376
0.184837
0.184258
0.183636
0.182966
0.182244
0.181468
0.180637
0.179748
0.178803
0.177802
0.176747
0.175642
0.174491
0.1733
0.172077
0.170829
0.169568
0.168303
0.167046
0.165808
0.164601
0.163432
0.162306
0.161225
0.160184
0.159177
0.158194
0.157227
0.156269
0.155323
0.154396
0.153505
0.152672
0.151918
0.151274
0.150743
0.150369
0.150095
0.150019
0.150047
0.226869
0.226075
0.225276
0.224472
0.223663
0.222849
0.22203
0.221206
0.220378
0.219545
0.218708
0.217867
0.217024
0.216177
0.215328
0.214478
0.213625
0.212772
0.211919
0.211066
0.210214
0.209364
0.208515
0.20767
0.206829
0.205993
0.205163
0.20434
0.203526
0.20272
0.201925
0.201142
0.200371
0.199615
0.198874
0.198149
0.197441
0.196751
0.196081
0.19543
0.194798
0.194188
0.193597
0.193027
0.192477
0.191945
0.191432
0.190935
0.190453
0.189984
0.189525
0.189072
0.188624
0.188175
0.187723
0.187261
0.186787
0.186295
0.185779
0.185237
0.184661
0.184049
0.183395
0.182695
0.181947
0.181148
0.180295
0.179386
0.178423
0.177405
0.176333
0.17521
0.17404
0.172826
0.171576
0.170295
0.168992
0.167675
0.166354
0.165039
0.16374
0.162467
0.161228
0.160028
0.158873
0.157763
0.156698
0.155679
0.154705
0.153778
0.152906
0.152096
0.151363
0.150717
0.150177
0.149738
0.149437
0.149216
0.14917
0.149203
0.226918
0.226134
0.225345
0.224553
0.223756
0.222955
0.222151
0.221342
0.22053
0.219714
0.218894
0.218072
0.217247
0.21642
0.215591
0.21476
0.213928
0.213095
0.212261
0.211428
0.210595
0.209764
0.208934
0.208106
0.207281
0.206461
0.205644
0.204833
0.204029
0.203232
0.202443
0.201664
0.200895
0.200138
0.199393
0.198662
0.197945
0.197244
0.196558
0.19589
0.195239
0.194606
0.193991
0.193394
0.192815
0.192253
0.191707
0.191176
0.190659
0.190153
0.189657
0.189167
0.188681
0.188194
0.187704
0.187207
0.186697
0.18617
0.185623
0.185049
0.184445
0.183807
0.183129
0.182409
0.181642
0.180826
0.179959
0.17904
0.178067
0.177042
0.175964
0.174836
0.173661
0.172443
0.171186
0.169897
0.168582
0.167248
0.165904
0.164559
0.163223
0.161904
0.160612
0.159355
0.158141
0.156975
0.155863
0.154807
0.153813
0.152883
0.152025
0.151243
0.150547
0.14994
0.149438
0.14903
0.148748
0.148535
0.148484
0.148481
0.22693
0.22615
0.225366
0.224578
0.223788
0.222994
0.222196
0.221396
0.220592
0.219785
0.218976
0.218164
0.21735
0.216534
0.215716
0.214897
0.214077
0.213256
0.212435
0.211614
0.210793
0.209974
0.209155
0.208339
0.207525
0.206714
0.205907
0.205105
0.204308
0.203517
0.202733
0.201958
0.20119
0.200433
0.199687
0.198952
0.19823
0.197521
0.196826
0.196146
0.195481
0.194833
0.1942
0.193583
0.192982
0.192397
0.191827
0.19127
0.190725
0.190191
0.189666
0.189147
0.188631
0.188115
0.187595
0.187069
0.186531
0.185978
0.185405
0.184808
0.184182
0.183524
0.182829
0.182093
0.181313
0.180487
0.179612
0.178687
0.177711
0.176684
0.175607
0.174482
0.17331
0.172096
0.170844
0.169559
0.168247
0.166915
0.16557
0.16422
0.162875
0.161543
0.160234
0.158955
0.157716
0.156524
0.155387
0.15431
0.153299
0.152359
0.151496
0.150716
0.150023
0.149421
0.148919
0.148506
0.148212
0.147979
0.147901
0.147841
0.226927
0.226148
0.225365
0.22458
0.223791
0.223
0.222206
0.221408
0.220609
0.219806
0.219001
0.218194
0.217385
0.216575
0.215763
0.21495
0.214136
0.213321
0.212507
0.211692
0.210878
0.210065
0.209253
0.208443
0.207635
0.20683
0.206028
0.20523
0.204437
0.203649
0.202868
0.202093
0.201327
0.200569
0.19982
0.199082
0.198355
0.19764
0.196938
0.196249
0.195573
0.194912
0.194266
0.193634
0.193017
0.192413
0.191824
0.191246
0.19068
0.190124
0.189576
0.189034
0.188494
0.187955
0.187412
0.186863
0.186303
0.185729
0.185136
0.184521
0.183878
0.183205
0.182496
0.181749
0.180961
0.180128
0.179249
0.178322
0.177347
0.176322
0.175249
0.17413
0.172967
0.171762
0.17052
0.169246
0.167945
0.166623
0.165288
0.163947
0.162608
0.161279
0.15997
0.158689
0.157444
0.156244
0.155096
0.154008
0.152986
0.152035
0.151161
0.150369
0.149664
0.149047
0.148525
0.148089
0.147765
0.147496
0.14738
0.147249
0.226919
0.226139
0.225357
0.224572
0.223784
0.222993
0.222199
0.221403
0.220604
0.219803
0.219
0.218195
0.217388
0.216579
0.21577
0.214959
0.214147
0.213335
0.212523
0.211711
0.210899
0.210088
0.209278
0.20847
0.207664
0.206861
0.206061
0.205264
0.204472
0.203685
0.202903
0.202128
0.20136
0.2006
0.199848
0.199106
0.198374
0.197653
0.196944
0.196246
0.195562
0.19489
0.194232
0.193588
0.192957
0.192338
0.191733
0.191139
0.190556
0.189981
0.189415
0.188853
0.188295
0.187736
0.187175
0.186607
0.186029
0.185438
0.18483
0.184199
0.183544
0.182859
0.18214
0.181386
0.180591
0.179755
0.178874
0.177947
0.176974
0.175954
0.174888
0.173777
0.172624
0.171431
0.170202
0.168942
0.167655
0.166349
0.165028
0.163701
0.162375
0.161058
0.159758
0.158484
0.157243
0.156044
0.154894
0.153801
0.152771
0.15181
0.150923
0.150115
0.149389
0.148747
0.148197
0.147726
0.147362
0.147049
0.146889
0.146681
0.226909
0.226129
0.225346
0.224561
0.223772
0.222981
0.222187
0.221391
0.220592
0.219791
0.218988
0.218182
0.217375
0.216567
0.215757
0.214946
0.214135
0.213323
0.21251
0.211698
0.210886
0.210075
0.209265
0.208457
0.20765
0.206846
0.206045
0.205247
0.204453
0.203664
0.20288
0.202102
0.201331
0.200567
0.199811
0.199064
0.198326
0.197599
0.196882
0.196177
0.195484
0.194803
0.194134
0.193478
0.192835
0.192204
0.191585
0.190976
0.190378
0.189789
0.189206
0.188628
0.188054
0.187479
0.186902
0.186319
0.185726
0.185121
0.184499
0.183857
0.183191
0.182496
0.18177
0.18101
0.180211
0.179373
0.178492
0.177567
0.176597
0.175583
0.174525
0.173423
0.172281
0.171101
0.169886
0.168641
0.16737
0.16608
0.164777
0.163466
0.162156
0.160853
0.159566
0.158303
0.157071
0.155877
0.154729
0.153634
0.152599
0.151627
0.150726
0.149898
0.149148
0.148477
0.147892
0.147382
0.146973
0.146613
0.146405
0.146119
0.226899
0.226119
0.225335
0.224549
0.22376
0.222968
0.222173
0.221376
0.220577
0.219775
0.218971
0.218165
0.217357
0.216548
0.215737
0.214925
0.214112
0.213299
0.212485
0.211672
0.210858
0.210045
0.209233
0.208423
0.207614
0.206807
0.206004
0.205203
0.204406
0.203613
0.202826
0.202044
0.201268
0.200499
0.199738
0.198985
0.198241
0.197507
0.196783
0.19607
0.195368
0.194677
0.193999
0.193332
0.192678
0.192035
0.191403
0.190782
0.19017
0.189567
0.18897
0.188378
0.187789
0.1872
0.186609
0.186013
0.185407
0.18479
0.184157
0.183504
0.182829
0.182127
0.181395
0.18063
0.179828
0.178989
0.178108
0.177186
0.176221
0.175213
0.174162
0.17307
0.171939
0.170772
0.169571
0.168341
0.167087
0.165813
0.164526
0.163233
0.161939
0.160652
0.159379
0.158127
0.156904
0.155717
0.154572
0.153476
0.152435
0.151453
0.150536
0.149687
0.14891
0.148207
0.147584
0.147032
0.146576
0.146166
0.14591
0.145547
0.22689
0.226109
0.225325
0.224537
0.223748
0.222955
0.222159
0.221361
0.220561
0.219758
0.218953
0.218146
0.217337
0.216526
0.215714
0.214901
0.214087
0.213271
0.212456
0.21164
0.210824
0.210009
0.209194
0.208381
0.207569
0.206759
0.205951
0.205147
0.204346
0.203549
0.202757
0.20197
0.20119
0.200415
0.199648
0.198889
0.198138
0.197397
0.196665
0.195943
0.195232
0.194533
0.193844
0.193168
0.192502
0.191848
0.191204
0.190571
0.189947
0.189331
0.188721
0.188116
0.187514
0.186913
0.186309
0.1857
0.185083
0.184455
0.183812
0.18315
0.182466
0.181758
0.18102
0.180251
0.179448
0.178607
0.177728
0.176808
0.175847
0.174845