/*--------------------------------*- C++ -*----------------------------------*\
| =========                 |                                                 |
| \\      /  F ield         | OpenFOAM: The Open Source CFD Toolbox           |
|  \\    /   O peration     | Version:  2.1.1                                 |
|   \\  /    A nd           | Web:      www.OpenFOAM.org                      |
|    \\/     M anipulation  |                                                 |
\*---------------------------------------------------------------------------*/
FoamFile
{
    version     2.0;
    format      ascii;
    class       volScalarField;
    location    "0.155";
    object      nut;
}
// * * * * * * * * * * * * * * * * * * * * * * * * * * * * * * * * * * * * * //

dimensions      [0 2 -1 0 0 0 0];

internalField   nonuniform List<scalar> 
6820
(
4.96025e-05
5.47044e-05
5.94497e-05
6.37667e-05
6.76166e-05
7.09776e-05
7.3848e-05
7.62456e-05
7.82028e-05
7.97612e-05
8.09672e-05
8.18686e-05
8.25113e-05
8.29384e-05
8.31885e-05
8.32958e-05
8.32894e-05
8.31943e-05
8.30312e-05
8.28175e-05
8.2567e-05
8.22913e-05
8.19993e-05
8.16983e-05
8.13939e-05
8.10904e-05
8.07911e-05
8.0499e-05
8.02122e-05
7.9948e-05
7.96275e-05
7.9632e-05
7.81078e-05
0.000540295
0.000304972
0.00021996
0.000171558
0.000140519
0.000119657
0.000105132
9.47481e-05
8.7184e-05
8.16028e-05
7.74542e-05
7.43647e-05
7.20735e-05
7.03946e-05
6.91927e-05
6.83673e-05
6.7843e-05
6.7562e-05
6.74796e-05
6.75606e-05
6.77769e-05
6.8106e-05
6.85291e-05
6.9031e-05
6.95986e-05
7.02209e-05
7.08881e-05
7.15912e-05
7.23228e-05
7.30709e-05
7.38325e-05
7.45738e-05
7.52389e-05
0.00105857
0.000836087
0.000679238
0.000569614
0.000490053
0.000430117
0.000383702
0.000346857
0.000316957
0.000292241
0.000271495
0.000253857
0.000238699
0.000225553
0.000214064
0.000203955
0.00019501
0.000187055
0.000179949
0.000173578
0.000167847
0.000162675
0.000157998
0.000153757
0.000149906
0.000146402
0.000143209
0.000140298
0.000137641
0.000135219
0.000132994
0.000131012
0.000128975
0.00115953
0.00109653
0.00101167
0.000926416
0.000849809
0.000783617
0.000727063
0.000678733
0.000637212
0.000601278
0.000569927
0.000542357
0.000517927
0.000496129
0.000476553
0.000458873
0.000442823
0.000428183
0.000414774
0.000402445
0.000391071
0.000380544
0.000370774
0.00036168
0.000353198
0.000345268
0.00033784
0.000330873
0.000324331
0.000318185
0.00031242
0.000307017
0.000301994
0.00116966
0.00115863
0.00113363
0.00109757
0.00105569
0.0010122
0.000969673
0.000929416
0.000891975
0.000857475
0.000825825
0.000796834
0.000770276
0.000745917
0.000723538
0.000702935
0.000683924
0.000666342
0.000650044
0.000634903
0.000620806
0.000607653
0.000595356
0.000583835
0.000573023
0.000562856
0.00055328
0.000544244
0.000535707
0.000527629
0.000519979
0.000512732
0.00050587
0.00117006
0.00116839
0.00116306
0.00115261
0.00113713
0.00111767
0.00109554
0.00107192
0.00104772
0.0010236
0.00100001
0.000977195
0.000955329
0.000934487
0.000914695
0.000895948
0.000878217
0.000861462
0.000845634
0.000830684
0.000816557
0.000803204
0.000790574
0.00077862
0.000767296
0.00075656
0.000746373
0.000736696
0.000727495
0.000718739
0.0007104
0.000702457
0.000694887
0.00116996
0.00116938
0.00116821
0.00116569
0.00116123
0.00115458
0.00114584
0.00113528
0.00112328
0.00111024
0.00109649
0.00108235
0.00106803
0.00105374
0.0010396
0.00102573
0.00101219
0.000999033
0.000986294
0.000973991
0.000962133
0.000950721
0.000939751
0.000929215
0.0009191
0.000909394
0.000900082
0.000891148
0.000882577
0.000874353
0.000866462
0.000858894
0.000851635
0.00116994
0.0011694
0.00116883
0.00116803
0.00116674
0.00116472
0.0011618
0.00115791
0.00115304
0.00114729
0.00114074
0.00113355
0.00112582
0.00111771
0.0011093
0.00110071
0.00109202
0.00108329
0.00107459
0.00106597
0.00105745
0.00104908
0.00104087
0.00103284
0.00102501
0.00101737
0.00100994
0.00100272
0.000995718
0.000988922
0.000982337
0.000975963
0.000969797
0.00116994
0.00116939
0.00116886
0.00116832
0.0011677
0.00116692
0.00116588
0.00116449
0.00116269
0.00116043
0.00115772
0.00115456
0.00115098
0.00114702
0.00114273
0.00113816
0.00113335
0.00112835
0.00112321
0.00111797
0.00111265
0.00110729
0.00110192
0.00109655
0.00109121
0.00108592
0.00108069
0.00107553
0.00107045
0.00106546
0.00106057
0.00105577
0.00105109
0.00116994
0.00116938
0.00116885
0.00116833
0.00116782
0.00116729
0.00116671
0.00116605
0.00116526
0.00116432
0.00116319
0.00116185
0.0011603
0.00115853
0.00115654
0.00115435
0.00115198
0.00114943
0.00114672
0.00114388
0.00114092
0.00113787
0.00113474
0.00113155
0.0011283
0.00112503
0.00112173
0.00111843
0.00111512
0.00111183
0.00110856
0.00110532
0.00110211
0.00116994
0.00116938
0.00116884
0.00116832
0.00116782
0.00116732
0.00116683
0.00116634
0.00116582
0.00116527
0.00116466
0.00116399
0.00116324
0.0011624
0.00116146
0.00116042
0.00115928
0.00115803
0.00115669
0.00115525
0.00115372
0.00115212
0.00115043
0.00114869
0.00114688
0.00114503
0.00114313
0.0011412
0.00113924
0.00113725
0.00113526
0.00113325
0.00113125
0.00116994
0.00116938
0.00116884
0.00116832
0.00116781
0.00116732
0.00116684
0.00116637
0.00116591
0.00116545
0.00116499
0.00116451
0.00116402
0.00116351
0.00116296
0.00116238
0.00116176
0.00116109
0.00116038
0.00115963
0.00115883
0.00115798
0.00115709
0.00115616
0.00115518
0.00115417
0.00115313
0.00115205
0.00115095
0.00114982
0.00114868
0.00114751
0.00114634
0.00116994
0.00116938
0.00116884
0.00116832
0.00116781
0.00116732
0.00116684
0.00116637
0.00116592
0.00116547
0.00116504
0.00116461
0.00116419
0.00116377
0.00116334
0.00116292
0.00116248
0.00116203
0.00116158
0.0011611
0.00116061
0.00116011
0.00115958
0.00115904
0.00115848
0.0011579
0.0011573
0.00115668
0.00115605
0.00115541
0.00115475
0.00115408
0.0011534
0.00116994
0.00116938
0.00116884
0.00116832
0.00116781
0.00116731
0.00116683
0.00116637
0.00116591
0.00116547
0.00116504
0.00116462
0.00116421
0.00116381
0.00116342
0.00116304
0.00116266
0.00116228
0.0011619
0.00116153
0.00116115
0.00116078
0.0011604
0.00116002
0.00115963
0.00115924
0.00115884
0.00115844
0.00115804
0.00115763
0.00115721
0.00115679
0.00115637
0.00116994
0.00116938
0.00116884
0.00116832
0.00116781
0.00116731
0.00116683
0.00116636
0.00116591
0.00116547
0.00116504
0.00116462
0.00116421
0.00116382
0.00116343
0.00116305
0.00116269
0.00116233
0.00116197
0.00116163
0.00116129
0.00116095
0.00116063
0.0011603
0.00115998
0.00115966
0.00115934
0.00115903
0.00115872
0.00115841
0.0011581
0.00115779
0.00115749
0.00116994
0.00116938
0.00116884
0.00116831
0.0011678
0.00116731
0.00116683
0.00116636
0.0011659
0.00116546
0.00116503
0.00116461
0.00116421
0.00116381
0.00116342
0.00116305
0.00116268
0.00116233
0.00116198
0.00116164
0.00116131
0.00116099
0.00116067
0.00116037
0.00116006
0.00115977
0.00115948
0.0011592
0.00115892
0.00115864
0.00115838
0.00115811
0.00115785
0.00116994
0.00116938
0.00116884
0.00116831
0.0011678
0.00116731
0.00116683
0.00116636
0.0011659
0.00116546
0.00116503
0.00116461
0.0011642
0.0011638
0.00116342
0.00116304
0.00116268
0.00116232
0.00116197
0.00116164
0.00116131
0.00116099
0.00116068
0.00116037
0.00116008
0.00115979
0.00115951
0.00115923
0.00115896
0.0011587
0.00115844
0.00115819
0.00115795
0.00116994
0.00116938
0.00116884
0.00116831
0.0011678
0.00116731
0.00116682
0.00116635
0.0011659
0.00116546
0.00116502
0.0011646
0.0011642
0.0011638
0.00116341
0.00116304
0.00116267
0.00116231
0.00116197
0.00116163
0.0011613
0.00116098
0.00116067
0.00116037
0.00116007
0.00115978
0.0011595
0.00115923
0.00115896
0.0011587
0.00115845
0.0011582
0.00115796
0.00116994
0.00116938
0.00116884
0.00116831
0.0011678
0.0011673
0.00116682
0.00116635
0.0011659
0.00116545
0.00116502
0.0011646
0.00116419
0.00116379
0.00116341
0.00116303
0.00116266
0.00116231
0.00116196
0.00116162
0.00116129
0.00116097
0.00116066
0.00116036
0.00116006
0.00115977
0.00115949
0.00115922
0.00115895
0.00115869
0.00115844
0.00115819
0.00115796
0.00116994
0.00116938
0.00116884
0.00116831
0.0011678
0.0011673
0.00116682
0.00116635
0.00116589
0.00116545
0.00116502
0.0011646
0.00116419
0.00116379
0.0011634
0.00116303
0.00116266
0.0011623
0.00116195
0.00116162
0.00116129
0.00116096
0.00116065
0.00116035
0.00116005
0.00115976
0.00115948
0.00115921
0.00115894
0.00115868
0.00115843
0.00115818
0.00115794
0.00116994
0.00116938
0.00116884
0.00116831
0.0011678
0.0011673
0.00116682
0.00116635
0.00116589
0.00116545
0.00116502
0.0011646
0.00116419
0.00116379
0.0011634
0.00116302
0.00116265
0.0011623
0.00116195
0.00116161
0.00116128
0.00116096
0.00116064
0.00116034
0.00116004
0.00115975
0.00115947
0.0011592
0.00115893
0.00115867
0.00115841
0.00115817
0.00115793
0.00116994
0.00116938
0.00116884
0.00116831
0.0011678
0.0011673
0.00116682
0.00116635
0.00116589
0.00116545
0.00116501
0.00116459
0.00116418
0.00116378
0.0011634
0.00116302
0.00116265
0.00116229
0.00116194
0.0011616
0.00116127
0.00116095
0.00116064
0.00116033
0.00116003
0.00115974
0.00115946
0.00115918
0.00115892
0.00115866
0.0011584
0.00115815
0.00115791
0.00116994
0.00116938
0.00116884
0.00116831
0.0011678
0.0011673
0.00116682
0.00116635
0.00116589
0.00116545
0.00116501
0.00116459
0.00116418
0.00116378
0.00116339
0.00116301
0.00116265
0.00116229
0.00116194
0.0011616
0.00116127
0.00116094
0.00116063
0.00116032
0.00116003
0.00115973
0.00115945
0.00115918
0.00115891
0.00115864
0.00115839
0.00115814
0.0011579
0.00116994
0.00116938
0.00116884
0.00116831
0.0011678
0.0011673
0.00116682
0.00116635
0.00116589
0.00116544
0.00116501
0.00116459
0.00116418
0.00116378
0.00116339
0.00116301
0.00116264
0.00116228
0.00116193
0.00116159
0.00116126
0.00116094
0.00116062
0.00116032
0.00116002
0.00115973
0.00115944
0.00115917
0.0011589
0.00115863
0.00115838
0.00115813
0.00115788
0.00116994
0.00116938
0.00116884
0.00116831
0.0011678
0.0011673
0.00116682
0.00116635
0.00116589
0.00116544
0.00116501
0.00116459
0.00116418
0.00116378
0.00116339
0.00116301
0.00116264
0.00116228
0.00116193
0.00116159
0.00116126
0.00116093
0.00116062
0.00116031
0.00116001
0.00115972
0.00115943
0.00115916
0.00115889
0.00115862
0.00115837
0.00115812
0.00115787
0.00116994
0.00116938
0.00116884
0.00116831
0.0011678
0.0011673
0.00116682
0.00116635
0.00116589
0.00116544
0.00116501
0.00116459
0.00116418
0.00116378
0.00116339
0.00116301
0.00116264
0.00116228
0.00116193
0.00116159
0.00116125
0.00116093
0.00116061
0.00116031
0.00116001
0.00115971
0.00115943
0.00115915
0.00115888
0.00115862
0.00115836
0.00115811
0.00115786
0.00116994
0.00116938
0.00116884
0.00116831
0.0011678
0.0011673
0.00116682
0.00116635
0.00116589
0.00116544
0.00116501
0.00116459
0.00116417
0.00116377
0.00116338
0.001163
0.00116264
0.00116228
0.00116192
0.00116158
0.00116125
0.00116093
0.00116061
0.0011603
0.00116
0.00115971
0.00115942
0.00115914
0.00115887
0.00115861
0.00115835
0.0011581
0.00115785
0.00116994
0.00116938
0.00116884
0.00116831
0.0011678
0.0011673
0.00116682
0.00116635
0.00116589
0.00116544
0.00116501
0.00116458
0.00116417
0.00116377
0.00116338
0.001163
0.00116263
0.00116227
0.00116192
0.00116158
0.00116125
0.00116092
0.00116061
0.0011603
0.00116
0.0011597
0.00115942
0.00115914
0.00115887
0.0011586
0.00115834
0.00115809
0.00115784
0.00116994
0.00116938
0.00116884
0.00116831
0.0011678
0.0011673
0.00116682
0.00116634
0.00116589
0.00116544
0.00116501
0.00116458
0.00116417
0.00116377
0.00116338
0.001163
0.00116263
0.00116227
0.00116192
0.00116158
0.00116125
0.00116092
0.0011606
0.00116029
0.00115999
0.0011597
0.00115941
0.00115913
0.00115886
0.0011586
0.00115834
0.00115808
0.00115784
0.00116994
0.00116938
0.00116884
0.00116831
0.0011678
0.0011673
0.00116682
0.00116635
0.00116589
0.00116544
0.00116501
0.00116459
0.00116417
0.00116377
0.00116338
0.001163
0.00116263
0.00116227
0.00116192
0.00116158
0.00116125
0.00116092
0.0011606
0.00116029
0.00115999
0.0011597
0.00115941
0.00115913
0.00115886
0.00115859
0.00115833
0.00115808
0.00115783
0.00116994
0.00116938
0.00116884
0.00116831
0.0011678
0.0011673
0.00116682
0.00116635
0.00116589
0.00116544
0.00116501
0.00116459
0.00116418
0.00116378
0.00116339
0.00116301
0.00116264
0.00116228
0.00116192
0.00116158
0.00116125
0.00116092
0.0011606
0.00116029
0.00115999
0.0011597
0.00115941
0.00115913
0.00115885
0.00115859
0.00115832
0.00115807
0.00115782
0.00116994
0.00116938
0.00116884
0.00116831
0.0011678
0.00116731
0.00116682
0.00116635
0.0011659
0.00116545
0.00116502
0.0011646
0.00116418
0.00116378
0.00116339
0.00116301
0.00116264
0.00116228
0.00116193
0.00116158
0.00116125
0.00116092
0.0011606
0.00116029
0.00115998
0.00115968
0.00115939
0.0011591
0.00115882
0.00115854
0.00115827
0.00115801
0.00115775
0.00116994
0.00116938
0.00116884
0.00116831
0.00116781
0.00116731
0.00116683
0.00116636
0.0011659
0.00116546
0.00116503
0.0011646
0.00116419
0.00116379
0.0011634
0.00116301
0.00116263
0.00116227
0.0011619
0.00116155
0.0011612
0.00116086
0.00116052
0.00116018
0.00115986
0.00115953
0.00115921
0.0011589
0.00115858
0.00115827
0.00115797
0.00115767
0.00115737
0.00116994
0.00116938
0.00116884
0.00116833
0.00116782
0.00116733
0.00116685
0.00116638
0.00116593
0.00116548
0.00116503
0.00116459
0.00116416
0.00116373
0.00116331
0.00116288
0.00116246
0.00116204
0.00116161
0.00116119
0.00116076
0.00116033
0.0011599
0.00115946
0.00115902
0.00115858
0.00115814
0.00115769
0.00115724
0.00115678
0.00115632
0.00115586
0.0011554
0.00116994
0.00116939
0.00116886
0.00116835
0.00116784
0.00116733
0.00116683
0.00116632
0.00116581
0.00116528
0.00116473
0.00116417
0.00116358
0.00116297
0.00116233
0.00116166
0.00116096
0.00116024
0.00115949
0.0011587
0.0011579
0.00115706
0.0011562
0.00115532
0.00115441
0.00115349
0.00115254
0.00115158
0.00115061
0.00114962
0.00114862
0.00114761
0.00114659
0.00116995
0.0011694
0.00116886
0.00116828
0.00116765
0.00116694
0.00116612
0.00116519
0.00116413
0.00116294
0.00116162
0.00116017
0.00115859
0.00115688
0.00115507
0.00115314
0.00115111
0.001149
0.0011468
0.00114454
0.00114221
0.00113983
0.0011374
0.00113494
0.00113244
0.00112993
0.00112739
0.00112485
0.0011223
0.00111975
0.00111721
0.00111467
0.00111215
0.00116996
0.00116916
0.00116786
0.00116595
0.00116343
0.0011603
0.00115657
0.00115227
0.00114747
0.00114223
0.00113659
0.00113064
0.00112443
0.00111802
0.00111146
0.0011048
0.00109806
0.0010913
0.00108454
0.00107781
0.00107112
0.00106449
0.00105795
0.0010515
0.00104516
0.00103892
0.00103281
0.00102681
0.00102094
0.0010152
0.00100959
0.00100411
0.000998761
0.00116831
0.00115866
0.00114501
0.00112845
0.0011097
0.00108949
0.00106845
0.0010471
0.00102583
0.00100491
0.000984523
0.000964791
0.000945784
0.000927538
0.000910068
0.000893367
0.00087742
0.000862204
0.00084769
0.000833847
0.000820644
0.000808049
0.00079603
0.000784556
0.000773597
0.000763127
0.000753116
0.000743542
0.000734378
0.000725604
0.000717197
0.000709139
0.000701407
0.00107567
0.000936196
0.000835609
0.00075689
0.000692096
0.000638348
0.000593443
0.000555551
0.000523234
0.000495388
0.000471166
0.000449915
0.000431129
0.000414409
0.000399439
0.000385965
0.000373781
0.000362716
0.00035263
0.000343405
0.000334941
0.000327154
0.000319971
0.00031333
0.000307176
0.000301463
0.000296149
0.000291197
0.000286575
0.000282254
0.00027821
0.00027442
0.00027086
0.000142979
0.000146644
0.000150174
0.000153551
0.000156773
0.000159846
0.000162776
0.000165567
0.000168224
0.000170754
0.000173161
0.000175449
0.000177624
0.00017969
0.000181652
0.000183515
0.000185283
0.00018696
0.000188551
0.000190059
0.000191489
0.000192845
0.000194129
0.000195347
0.0001965
0.000197592
0.000198626
0.000199606
0.000200533
0.000201412
0.000202243
0.00020303
0.000203776
9.09849e-05
0.000110406
0.000134073
0.000162587
0.000195485
0.000231144
0.000267504
0.000302779
0.000335907
0.000366673
0.000395483
0.00042303
0.000449982
0.000476785
0.000503623
0.000530489
0.000557307
0.000584036
0.00061072
0.000637489
0.000664526
0.000692013
0.000720098
0.000748868
0.000778347
0.000808503
0.00083926
0.000870511
0.000902121
0.000933933
0.000965764
0.000997408
0.00102863
0.00105918
0.00108877
0.00111711
0.00114389
0.00116879
0.00119151
0.00121172
0.00122913
0.00124346
0.00125446
0.0012619
0.00126563
0.00126553
0.00126158
0.0012538
0.00124235
0.00122748
0.00120954
0.00118901
0.00116649
0.00114269
0.00111841
0.00109453
0.00107194
0.00105152
0.00103409
0.00102032
0.00101073
0.00100562
0.00100508
0.00100902
0.00101723
0.0010294
0.00104523
0.00106445
0.00108689
0.00111247
0.00114118
0.00117308
0.00120821
0.00124652
0.00128784
0.00133175
0.00137758
0.00142438
0.00147095
0.00151586
0.00155754
0.00159439
0.00162481
0.00164735
0.00166077
0.00166416
0.00165697
0.00163918
0.00161129
0.0015745
0.00153074
0.00148269
0.0014338
0.00138796
0.00134917
0.00132057
0.00130401
0.00129857
0.00130221
0.00131735
7.63983e-05
7.85283e-05
8.18824e-05
8.71551e-05
9.5145e-05
0.00010661
0.000122145
0.000142043
0.000166172
0.000193959
0.000224462
0.00025653
0.000289006
0.000320934
0.000351688
0.000381014
0.000408986
0.000435886
0.000462081
0.000487919
0.000513657
0.00053945
0.000565362
0.000591396
0.000617531
0.00064374
0.000669997
0.000696274
0.000722528
0.000748692
0.000774665
0.000800312
0.000825461
0.000849909
0.000873426
0.000895764
0.000916664
0.000935859
0.000953084
0.000968081
0.000980608
0.000990445
0.000997409
0.00100136
0.00100221
0.000999956
0.000994658
0.000986486
0.000975709
0.000962714
0.000948004
0.000932196
0.00091601
0.000900243
0.00088573
0.000873299
0.000863704
0.000857564
0.000855306
0.000857118
0.000862945
0.000872503
0.000885337
0.000900896
0.000918614
0.000937984
0.000958614
0.000980264
0.00100286
0.00102649
0.00105139
0.00107788
0.00110635
0.00113713
0.00117048
0.00120641
0.00124469
0.00128473
0.00132562
0.00136615
0.00140488
0.00144023
0.00147061
0.00149453
0.00151072
0.00151822
0.00151651
0.00150557
0.001486
0.00145907
0.0014268
0.00139187
0.00135754
0.0013272
0.00130393
0.00128953
0.00128446
0.00128688
0.00129433
0.00131036
0.000126925
0.000124874
0.000122769
0.000120433
0.000117861
0.000115411
0.000113606
0.0001128
0.000113484
0.000116228
0.000121604
0.000130087
0.00014198
0.000157357
0.000176053
0.000197671
0.000221635
0.000247262
0.000273853
0.00030078
0.000327551
0.000353842
0.00037949
0.000404468
0.000428834
0.000452682
0.000476106
0.00049917
0.000521896
0.00054426
0.000566197
0.000587609
0.00060837
0.000628336
0.000647344
0.000665223
0.000681795
0.000696882
0.000710308
0.000721914
0.00073156
0.00073914
0.00074459
0.000747903
0.000749141
0.000748447
0.000746057
0.000742306
0.000737634
0.000732581
0.000727776
0.000723905
0.000721681
0.000721784
0.000724804
0.000731172
0.000741105
0.000754572
0.000771295
0.00079078
0.000812387
0.000835405
0.000859137
0.000882959
0.00090637
0.000929011
0.00095068
0.000971324
0.000991031
0.00101003
0.00102866
0.00104737
0.00106671
0.00108723
0.00110949
0.00113391
0.00116072
0.00118983
0.00122081
0.00125282
0.00128473
0.00131512
0.00134251
0.00136541
0.00138252
0.00139284
0.00139581
0.00139139
0.00138016
0.00136337
0.0013429
0.00132121
0.00130099
0.00128482
0.00127458
0.00127085
0.00127315
0.00127951
0.00128786
0.00130253
0.000296546
0.000290488
0.000284406
0.000278198
0.000271693
0.000264729
0.00025715
0.000249233
0.000240973
0.000232359
0.000223502
0.000214666
0.00020627
0.000198837
0.000192924
0.000189044
0.000187607
0.000188883
0.000192989
0.000199895
0.000209437
0.000221348
0.000235287
0.000250868
0.000267698
0.000285405
0.000303654
0.000322164
0.000340707
0.000359107
0.000377223
0.000394943
0.00041217
0.000428816
0.000444792
0.000460013
0.000474397
0.00048787
0.000500373
0.000511871
0.000522363
0.000531891
0.000540547
0.000548488
0.000555939
0.000563194
0.000570622
0.000578649
0.000587746
0.000598397
0.00061106
0.000626115
0.000643822
0.000664272
0.000687361
0.000712795
0.000740112
0.00076873
0.000798011
0.000827315
0.000856058
0.000883744
0.000909987
0.000934516
0.00095717
0.000977887
0.000996687
0.00101366
0.00102897
0.00104283
0.00105551
0.00106735
0.00107876
0.00109022
0.00110228
0.00111548
0.00113032
0.00114714
0.00116604
0.00118676
0.00120868
0.00123086
0.0012521
0.0012711
0.00128664
0.00129774
0.00130377
0.00130462
0.00130072
0.00129311
0.00128333
0.00127326
0.00126483
0.00125955
0.00125828
0.00126079
0.00126637
0.00127351
0.00128093
0.00129332
0.000498342
0.000490118
0.000482141
0.000474351
0.000466672
0.000459006
0.000451213
0.000443226
0.000435035
0.000426547
0.000417652
0.000408246
0.000398254
0.000387653
0.000376492
0.000364906
0.00035312
0.000341443
0.000330241
0.000319901
0.000310792
0.000303232
0.000297462
0.000293639
0.000291832
0.00029203
0.000294156
0.000298084
0.000303651
0.000310672
0.00031896
0.000328326
0.0003386
0.000349628
0.00036128
0.000373456
0.000386082
0.00039912
0.000412562
0.000426437
0.00044081
0.000455784
0.000471495
0.000488112
0.000505823
0.000524827
0.000545311
0.000567431
0.00059129
0.000616912
0.000644227
0.000673061
0.000703143
0.000734114
0.000765552
0.000797008
0.00082803
0.000858198
0.000887149
0.000914588
0.000940299
0.000964143
0.000986047
0.001006
0.00102405
0.00104025
0.00105473
0.00106759
0.00107898
0.00108903
0.0010979
0.00110577
0.00111284
0.00111935
0.0011256
0.00113194
0.00113879
0.00114656
0.0011556
0.00116612
0.00117807
0.0011911
0.00120458
0.00121768
0.00122947
0.00123912
0.00124604
0.00125002
0.00125127
0.00125043
0.00124852
0.00124668
0.00124598
0.0012471
0.00125022
0.00125491
0.00126068
0.00126678
0.00127258
0.00128283
0.000686526
0.000677365
0.000668497
0.000659908
0.000651567
0.000643434
0.000635444
0.000627565
0.000619762
0.000611993
0.000604211
0.000596366
0.000588403
0.000580266
0.000571901
0.000563266
0.000554335
0.000545112
0.000535631
0.000525968
0.00051624
0.000506596
0.00049722
0.000488313
0.000480083
0.000472737
0.000466466
0.000461435
0.000457785
0.000455621
0.000455019
0.000456025
0.000458662
0.000462935
0.000468836
0.000476351
0.000485464
0.00049616
0.000508427
0.00052226
0.000537654
0.000554604
0.000573101
0.000593126
0.000614637
0.00063757
0.000661826
0.000687264
0.000713707
0.000740934
0.000768688
0.000796687
0.000824635
0.000852235
0.000879201
0.000905275
0.000930236
0.000953902
0.00097614
0.000996862
0.00101602
0.00103362
0.00104967
0.00106424
0.00107739
0.00108922
0.00109981
0.00110928
0.00111771
0.00112522
0.00113191
0.00113786
0.00114317
0.00114793
0.00115225
0.00115626
0.00116012
0.00116404
0.00116829
0.0011731
0.00117867
0.00118506
0.00119217
0.00119968
0.00120715
0.00121408
0.00122004
0.00122479
0.00122835
0.00123098
0.00123313
0.00123531
0.00123796
0.00124123
0.00124512
0.00124934
0.00125383
0.00125836
0.00126272
0.00127152
0.000843556
0.000834625
0.000825902
0.000817393
0.000809091
0.000800989
0.000793065
0.000785318
0.000777735
0.000770304
0.000763016
0.000755861
0.000748829
0.00074191
0.000735091
0.000728358
0.000721696
0.000715092
0.000708539
0.000702038
0.0006956
0.000689255
0.000683047
0.00067704
0.000671317
0.000665975
0.000661126
0.000656891
0.0006534
0.000650778
0.000649152
0.000648639
0.000649344
0.000651361
0.000654768
0.000659624
0.000665974
0.000673844
0.000683241
0.000694154
0.000706555
0.000720392
0.000735594
0.00075207
0.000769705
0.000788361
0.000807881
0.000828089
0.000848794
0.000869791
0.000890874
0.000911837
0.000932482
0.000952624
0.000972101
0.000990771
0.00100852
0.00102527
0.00104095
0.00105554
0.00106903
0.00108143
0.00109276
0.00110308
0.00111243
0.00112089
0.00112851
0.00113538
0.00114158
0.00114717
0.00115226
0.0011569
0.00116118
0.00116515
0.00116887
0.00117239
0.00117574
0.00117897
0.00118215
0.00118537
0.00118874
0.00119237
0.00119632
0.00120058
0.00120504
0.00120954
0.00121388
0.00121789
0.0012215
0.00122474
0.00122772
0.00123056
0.00123339
0.00123622
0.00123908
0.00124194
0.00124501
0.00124837
0.00125188
0.00126006
0.000962865
0.000955114
0.000947451
0.000939889
0.000932438
0.000925105
0.000917894
0.000910808
0.000903851
0.000897027
0.000890343
0.000883807
0.00087743
0.000871222
0.000865195
0.000859358
0.000853721
0.000848293
0.00084308
0.000838091
0.000833336
0.000828827
0.000824581
0.000820623
0.000816983
0.000813701
0.000810825
0.00080841
0.00080652
0.000805224
0.000804594
0.000804704
0.000805626
0.000807429
0.000810175
0.000813916
0.000818692
0.000824531
0.000831444
0.000839426
0.000848456
0.000858491
0.000869474
0.00088133
0.000893964
0.000907271
0.00092113
0.000935412
0.00094998
0.000964696
0.00097942
0.00099402
0.00100837
0.00102235
0.00103587
0.00104883
0.00106118
0.00107285
0.00108381
0.00109404
0.00110353
0.00111229
0.00112032
0.00112765
0.00113432
0.00114036
0.00114581
0.00115074
0.00115519
0.00115922
0.00116291
0.00116633
0.00116954
0.00117261
0.00117562
0.0011786
0.00118159
0.00118462
0.00118767
0.00119076
0.00119386
0.001197
0.00120016
0.00120337
0.0012066
0.00120981
0.00121294
0.00121592
0.00121867
0.00122117
0.00122341
0.00122542
0.00122723
0.00122891
0.0012306
0.00123241
0.00123467
0.00123755
0.00124085
0.00124905
0.00104576
0.00103973
0.00103369
0.00102764
0.00102161
0.00101561
0.00100964
0.00100371
0.000997846
0.000992044
0.000986323
0.000980696
0.00097518
0.000969791
0.000964548
0.00095947
0.000954575
0.000949882
0.000945408
0.000941172
0.00093719
0.000933479
0.000930058
0.000926943
0.000924157
0.000921722
0.000919663
0.000918009
0.000916791
0.000916044
0.000915802
0.000916105
0.000916989
0.00091849
0.00092064
0.000923469
0.000926998
0.000931241
0.000936203
0.000941879
0.000948251
0.000955293
0.000962964
0.000971214
0.00097998
0.000989192
0.000998772
0.00100863
0.00101869
0.00102885
0.00103903
0.00104914
0.00105909
0.00106883
0.00107826
0.00108735
0.00109604
0.0011043
0.00111208
0.00111938
0.00112618
0.00113247
0.00113825
0.00114354
0.00114835
0.00115269
0.00115659
0.00116008
0.00116321
0.00116601
0.00116853
0.00117083
0.00117297
0.00117503
0.00117707
0.00117916
0.00118135
0.00118368
0.00118618
0.00118885
0.00119165
0.00119453
0.00119746
0.00120037
0.0012032
0.0012059
0.00120842
0.0012107
0.00121271
0.00121442
0.00121585
0.00121702
0.00121804
0.00121902
0.00122018
0.00122167
0.00122385
0.00122685
0.00123037
0.00123895
0.00109842
0.00109417
0.00108985
0.00108548
0.00108105
0.00107658
0.00107208
0.00106756
0.00106303
0.0010585
0.00105399
0.00104951
0.00104508
0.00104071
0.00103642
0.00103223
0.00102815
0.00102422
0.00102045
0.00101685
0.00101345
0.00101027
0.00100733
0.00100464
0.00100223
0.00100012
0.000998313
0.000996844
0.00099573
0.000994991
0.000994647
0.000994719
0.000995226
0.000996187
0.000997619
0.000999535
0.00100194
0.00100485
0.00100826
0.00101215
0.00101653
0.00102137
0.00102664
0.0010323
0.00103833
0.00104467
0.00105128
0.00105809
0.00106506
0.00107212
0.00107922
0.00108629
0.00109329
0.00110017
0.00110688
0.00111337
0.00111961
0.00112556
0.00113121
0.00113653
0.0011415
0.00114612
0.00115037
0.00115425
0.00115776
0.00116092
0.00116372
0.0011662
0.00116836
0.00117023
0.00117185
0.00117327
0.00117452
0.00117566
0.00117676
0.00117788
0.00117909
0.00118044
0.00118199
0.00118375
0.00118573
0.00118791
0.00119023
0.00119261
0.00119499
0.00119727
0.00119938
0.00120125
0.00120285
0.00120418
0.00120525
0.00120615
0.00120701
0.00120796
0.00120925
0.00121101
0.00121357
0.00121702
0.00122096
0.00123001
0.0011289
0.00112617
0.00112336
0.00112045
0.00111748
0.00111443
0.00111132
0.00110815
0.00110494
0.00110169
0.00109841
0.00109512
0.00109182
0.00108853
0.00108527
0.00108204
0.00107887
0.00107578
0.00107277
0.00106987
0.0010671
0.00106447
0.00106201
0.00105972
0.00105763
0.00105576
0.00105412
0.00105273
0.00105161
0.00105077
0.00105022
0.00104999
0.00105008
0.00105051
0.00105129
0.00105242
0.00105391
0.00105576
0.00105797
0.00106054
0.00106345
0.00106669
0.00107025
0.0010741
0.00107822
0.00108257
0.00108713
0.00109186
0.00109672
0.00110168
0.00110669
0.00111172
0.00111672
0.00112167
0.00112652
0.00113125
0.00113583
0.00114022
0.00114441
0.00114837
0.00115209
0.00115555
0.00115874
0.00116164
0.00116426
0.00116659
0.00116863
0.00117039
0.00117187
0.00117309
0.00117408
0.00117485
0.00117545
0.0011759
0.00117627
0.0011766
0.00117695
0.00117739
0.00117796
0.00117872
0.0011797
0.00118089
0.00118229
0.00118385
0.0011855
0.00118718
0.00118881
0.00119032
0.00119168
0.00119287
0.00119395
0.00119498
0.00119608
0.00119741
0.00119917
0.00120147
0.00120456
0.00120852
0.00121286
0.00122228
0.00114495
0.0011433
0.00114159
0.0011398
0.00113793
0.001136
0.001134
0.00113194
0.00112982
0.00112765
0.00112544
0.00112318
0.0011209
0.0011186
0.00111628
0.00111397
0.00111167
0.00110939
0.00110715
0.00110497
0.00110285
0.00110081
0.00109886
0.00109703
0.00109532
0.00109375
0.00109234
0.0010911
0.00109004
0.00108918
0.00108853
0.00108811
0.00108792
0.00108798
0.00108828
0.00108885
0.00108968
0.00109077
0.00109213
0.00109376
0.00109564
0.00109777
0.00110014
0.00110274
0.00110554
0.00110853
0.00111169
0.001115
0.00111843
0.00112195
0.00112555
0.00112918
0.00113282
0.00113645
0.00114004
0.00114357
0.001147
0.00115032
0.0011535
0.00115653
0.00115938
0.00116203
0.00116448
0.00116671
0.0011687
0.00117046
0.00117197
0.00117324
0.00117426
0.00117504
0.0011756
0.00117595
0.00117611
0.00117611
0.00117598
0.00117576
0.00117551
0.00117527
0.00117509
0.00117503
0.00117513
0.00117542
0.00117591
0.0011766
0.00117745
0.00117844
0.00117951
0.00118061
0.00118173
0.00118285
0.00118401
0.00118526
0.00118672
0.0011885
0.00119075
0.00119355
0.0011971
0.00120146
0.00120608
0.00121567
0.00115259
0.00115162
0.00115061
0.00114954
0.00114842
0.00114724
0.00114602
0.00114474
0.00114341
0.00114203
0.00114061
0.00113915
0.00113766
0.00113614
0.00113459
0.00113302
0.00113145
0.00112987
0.00112831
0.00112675
0.00112523
0.00112374
0.00112231
0.00112093
0.00111962
0.0011184
0.00111727
0.00111625
0.00111535
0.00111459
0.00111396
0.00111349
0.00111318
0.00111304
0.00111308
0.0011133
0.00111372
0.00111434
0.00111514
0.00111615
0.00111735
0.00111875
0.00112032
0.00112208
0.001124
0.00112609
0.00112831
0.00113066
0.00113313
0.00113569
0.00113832
0.00114101
0.00114373
0.00114646
0.00114919
0.00115189
0.00115454
0.00115712
0.0011596
0.00116198
0.00116423
0.00116633
0.00116826
0.00117002
0.00117158
0.00117295
0.0011741
0.00117504
0.00117575
0.00117625
0.00117654
0.00117662
0.00117651
0.00117623
0.0011758
0.00117525
0.00117463
0.00117396
0.00117329
0.00117268
0.00117217
0.00117179
0.00117158
0.00117156