/*--------------------------------*- C++ -*----------------------------------*\
| =========                 |                                                 |
| \\      /  F ield         | OpenFOAM: The Open Source CFD Toolbox           |
|  \\    /   O peration     | Version:  2.1.1                                 |
|   \\  /    A nd           | Web:      www.OpenFOAM.org                      |
|    \\/     M anipulation  |                                                 |
\*---------------------------------------------------------------------------*/
FoamFile
{
    version     2.0;
    format      ascii;
    class       volScalarField;
    location    "0.155";
    object      p;
}
// * * * * * * * * * * * * * * * * * * * * * * * * * * * * * * * * * * * * * //

dimensions      [0 2 -2 0 0 0 0];

internalField   nonuniform List<scalar> 
6820
(
-10.6669
-12.5133
-13.0883
-13.2162
-13.3235
-13.4028
-13.4575
-13.5042
-13.5469
-13.5861
-13.6227
-13.6574
-13.6905
-13.7219
-13.752
-13.7809
-13.8086
-13.8354
-13.8612
-13.8862
-13.9105
-13.9341
-13.9571
-13.9796
-14.0014
-14.0225
-14.0427
-14.0615
-14.078
-14.091
-14.0964
-14.0879
-14.0532
-14.6195
-14.0848
-13.6624
-13.4726
-13.4481
-13.4595
-13.4799
-13.5081
-13.5405
-13.5742
-13.608
-13.6414
-13.6741
-13.7059
-13.7366
-13.7662
-13.7947
-13.8223
-13.8489
-13.8747
-13.8997
-13.924
-13.9477
-13.9709
-13.9934
-14.0153
-14.0366
-14.0571
-14.0766
-14.0966
-14.1154
-14.1556
-14.2089
-12.9769
-12.6732
-12.9599
-13.205
-13.3102
-13.3857
-13.4449
-13.4945
-13.5388
-13.5791
-13.6165
-13.6516
-13.6848
-13.7163
-13.7463
-13.775
-13.8026
-13.8292
-13.855
-13.8799
-13.9041
-13.9278
-13.9509
-13.9735
-13.9957
-14.0175
-14.0389
-14.0599
-14.0807
-14.1024
-14.1255
-14.1563
-14.1916
-13.4839
-13.5183
-13.5156
-13.4565
-13.4489
-13.4695
-13.4961
-13.5251
-13.5562
-13.5879
-13.6193
-13.6503
-13.6807
-13.7103
-13.7391
-13.767
-13.7942
-13.8206
-13.8463
-13.8713
-13.8958
-13.9197
-13.9431
-13.9662
-13.9889
-14.0113
-14.0336
-14.0559
-14.0786
-14.1031
-14.1298
-14.1659
-14.2086
-13.3285
-13.2284
-13.2727
-13.3388
-13.3919
-13.4387
-13.4796
-13.5172
-13.5532
-13.5879
-13.6211
-13.6532
-13.6841
-13.7139
-13.7426
-13.7704
-13.7973
-13.8233
-13.8487
-13.8734
-13.8975
-13.9211
-13.9443
-13.9671
-13.9898
-14.0123
-14.0348
-14.0577
-14.0813
-14.1067
-14.1348
-14.1689
-14.2079
-13.3835
-13.3669
-13.3921
-13.4153
-13.4378
-13.4673
-13.499
-13.5308
-13.5628
-13.5945
-13.6255
-13.6557
-13.6852
-13.7139
-13.7417
-13.7688
-13.7951
-13.8207
-13.8457
-13.8701
-13.8941
-13.9176
-13.9407
-13.9637
-13.9864
-14.0092
-14.0321
-14.0556
-14.0799
-14.106
-14.1345
-14.1673
-14.2038
-13.3817
-13.3606
-13.3765
-13.4054
-13.4356
-13.4687
-13.5018
-13.534
-13.5658
-13.597
-13.6275
-13.6573
-13.6863
-13.7145
-13.742
-13.7687
-13.7946
-13.82
-13.8447
-13.8689
-13.8927
-13.916
-13.9391
-13.9619
-13.9847
-14.0076
-14.0307
-14.0543
-14.0789
-14.105
-14.1331
-14.1641
-14.1974
-13.3958
-13.388
-13.4035
-13.4281
-13.4535
-13.4818
-13.5115
-13.5414
-13.5714
-13.6012
-13.6306
-13.6593
-13.6874
-13.7149
-13.7417
-13.7678
-13.7933
-13.8183
-13.8427
-13.8666
-13.8901
-13.9132
-13.9362
-13.9589
-13.9817
-14.0045
-14.0277
-14.0513
-14.0759
-14.1017
-14.129
-14.1582
-14.1889
-13.4087
-13.4048
-13.417
-13.4386
-13.4627
-13.4897
-13.5182
-13.547
-13.5759
-13.6047
-13.6331
-13.661
-13.6884
-13.7152
-13.7414
-13.767
-13.7921
-13.8166
-13.8407
-13.8643
-13.8875
-13.9105
-13.9332
-13.9559
-13.9785
-14.0012
-14.0242
-14.0477
-14.072
-14.0971
-14.1234
-14.151
-14.1793
-13.4221
-13.4215
-13.4329
-13.4524
-13.4747
-13.4996
-13.5262
-13.5534
-13.5809
-13.6084
-13.6358
-13.6628
-13.6894
-13.7155
-13.741
-13.7661
-13.7907
-13.8148
-13.8384
-13.8617
-13.8847
-13.9073
-13.9298
-13.9522
-13.9746
-13.9972
-14.0199
-14.0431
-14.0668
-14.0913
-14.1165
-14.1424
-14.1687
-13.4356
-13.4366
-13.447
-13.4646
-13.4852
-13.5084
-13.5334
-13.5593
-13.5856
-13.612
-13.6384
-13.6645
-13.6903
-13.7157
-13.7406
-13.7651
-13.7892
-13.8128
-13.8361
-13.859
-13.8816
-13.904
-13.9262
-13.9483
-13.9704
-13.9926
-14.015
-14.0377
-14.0608
-14.0844
-14.1085
-14.133
-14.1576
-13.4487
-13.4507
-13.4605
-13.4765
-13.4957
-13.5173
-13.5408
-13.5653
-13.5903
-13.6157
-13.641
-13.6662
-13.6912
-13.7159
-13.7402
-13.7641
-13.7876
-13.8108
-13.8336
-13.8561
-13.8783
-13.9003
-13.9222
-13.9439
-13.9656
-13.9874
-14.0094
-14.0315
-14.0539
-14.0767
-14.0996
-14.1228
-14.1458
-13.4615
-13.4639
-13.4732
-13.4878
-13.5056
-13.5258
-13.5479
-13.5711
-13.595
-13.6192
-13.6436
-13.6679
-13.6921
-13.716
-13.7397
-13.763
-13.786
-13.8086
-13.8309
-13.853
-13.8748
-13.8964
-13.9178
-13.9392
-13.9605
-13.9818
-14.0032
-14.0247
-14.0463
-14.0682
-14.0901
-14.1119
-14.1337
-13.4736
-13.4762
-13.485
-13.4985
-13.5151
-13.534
-13.5548
-13.5767
-13.5995
-13.6227
-13.6461
-13.6695
-13.6929
-13.7161
-13.7391
-13.7618
-13.7842
-13.8063
-13.8281
-13.8497
-13.871
-13.8922
-13.9132
-13.934
-13.9548
-13.9756
-13.9964
-14.0172
-14.0381
-14.059
-14.0799
-14.1006
-14.1211
-13.4852
-13.4878
-13.4961
-13.5086
-13.524
-13.5418
-13.5613
-13.5821
-13.6038
-13.626
-13.6484
-13.671
-13.6936
-13.7161
-13.7384
-13.7604
-13.7822
-13.8038
-13.8251
-13.8462
-13.867
-13.8877
-13.9082
-13.9286
-13.9488
-13.969
-13.9891
-14.0092
-14.0293
-14.0493
-14.0691
-14.0888
-14.1081
-13.496
-13.4986
-13.5064
-13.5181
-13.5324
-13.5491
-13.5676
-13.5873
-13.6079
-13.6291
-13.6506
-13.6724
-13.6942
-13.7159
-13.7375
-13.7589
-13.7802
-13.8012
-13.8219
-13.8425
-13.8628
-13.8829
-13.9029
-13.9227
-13.9424
-13.9619
-13.9814
-14.0007
-14.02
-14.0391
-14.0579
-14.0766
-14.0948
-13.5062
-13.5087
-13.516
-13.5269
-13.5403
-13.556
-13.5734
-13.5921
-13.6117
-13.632
-13.6527
-13.6736
-13.6946
-13.7156
-13.7365
-13.7573
-13.7779
-13.7983
-13.8185
-13.8385
-13.8583
-13.8779
-13.8973
-13.9165
-13.9355
-13.9544
-13.9732
-13.9918
-14.0102
-14.0284
-14.0463
-14.0639
-14.0812
-13.5156
-13.5179
-13.5249
-13.535
-13.5477
-13.5624
-13.5788
-13.5966
-13.6153
-13.6346
-13.6544
-13.6746
-13.6948
-13.7151
-13.7354
-13.7555
-13.7755
-13.7953
-13.8149
-13.8343
-13.8535
-13.8725
-13.8913
-13.9099
-13.9283
-13.9465
-13.9646
-13.9824
-13.9999
-14.0173
-14.0343
-14.051
-14.0673
-13.5242
-13.5264
-13.533
-13.5425
-13.5544
-13.5683
-13.5838
-13.6007
-13.6185
-13.637
-13.656
-13.6753
-13.6948
-13.7144
-13.734
-13.7535
-13.7729
-13.7921
-13.8111
-13.8299
-13.8485
-13.8669
-13.8851
-13.903
-13.9208
-13.9383
-13.9555
-13.9726
-13.9893
-14.0058
-14.0219
-14.0377
-14.053
-13.5321
-13.5342
-13.5403
-13.5493
-13.5604
-13.5736
-13.5883
-13.6043
-13.6213
-13.639
-13.6572
-13.6758
-13.6946
-13.7135
-13.7324
-13.7512
-13.77
-13.7886
-13.807
-13.8252
-13.8432
-13.861
-13.8785
-13.8958
-13.9129
-13.9297
-13.9462
-13.9624
-13.9784
-13.994
-14.0092
-14.0241
-14.0385
-13.5391
-13.5411
-13.5469
-13.5553
-13.5659
-13.5783
-13.5923
-13.6075
-13.6237
-13.6406
-13.6581
-13.676
-13.6941
-13.7123
-13.7306
-13.7488
-13.7669
-13.7849
-13.8027
-13.8203
-13.8376
-13.8548
-13.8717
-13.8883
-13.9047
-13.9207
-13.9365
-13.952
-13.9671
-13.9819
-13.9962
-14.0102
-14.0238
-13.5453
-13.5472
-13.5527
-13.5607
-13.5706
-13.5824
-13.5957
-13.6102
-13.6257
-13.6419
-13.6587
-13.6758
-13.6933
-13.7108
-13.7285
-13.746
-13.7635
-13.7809
-13.7981
-13.8151
-13.8318
-13.8483
-13.8645
-13.8805
-13.8962
-13.9115
-13.9265
-13.9412
-13.9555
-13.9695
-13.983
-13.9962
-14.0088
-13.5507
-13.5525
-13.5576
-13.5652
-13.5746
-13.5858
-13.5985
-13.6123
-13.6272
-13.6427
-13.6588
-13.6754
-13.6922
-13.7091
-13.7261
-13.7431
-13.7599
-13.7767
-13.7933
-13.8096
-13.8257
-13.8416
-13.8572
-13.8725
-13.8874
-13.902
-13.9163
-13.9302
-13.9438
-13.9569
-13.9696
-13.9819
-13.9938
-13.5552
-13.5569
-13.5618
-13.5689
-13.5779
-13.5885
-13.6006
-13.6139
-13.6281
-13.643
-13.6585
-13.6744
-13.6906
-13.7069
-13.7233
-13.7397
-13.756
-13.7722
-13.7881
-13.8039
-13.8194
-13.8346
-13.8495
-13.8641
-13.8784
-13.8923
-13.9059
-13.919
-13.9318
-13.9441
-13.956
-13.9675
-13.9785
-13.5588
-13.5604
-13.565
-13.5718
-13.5804
-13.5906
-13.6022
-13.6149
-13.6286
-13.6429
-13.6579
-13.6732
-13.6889
-13.7046
-13.7205
-13.7363
-13.752
-13.7675
-13.7829
-13.798
-13.8129
-13.8275
-13.8418
-13.8557
-13.8693
-13.8825
-13.8953
-13.9077
-13.9197
-13.9313
-13.9424
-13.9531
-13.9633
-13.5614
-13.5629
-13.5673
-13.5738
-13.5819
-13.5917
-13.6027
-13.615
-13.6281
-13.642
-13.6564
-13.6712
-13.6863
-13.7016
-13.7169
-13.7322
-13.7473
-13.7624
-13.7772
-13.7917
-13.806
-13.82
-13.8336
-13.8469
-13.8599
-13.8724
-13.8845
-13.8962
-13.9074
-13.9183
-13.9286
-13.9385
-13.9479
-13.5631
-13.5646
-13.5688
-13.5751
-13.583
-13.5924
-13.6032
-13.6151
-13.6277
-13.6412
-13.6552
-13.6695
-13.6842
-13.6988
-13.7136
-13.7284
-13.743
-13.7575
-13.7717
-13.7857
-13.7994
-13.8127
-13.8257
-13.8384
-13.8506
-13.8624
-13.8739
-13.8848
-13.8954
-13.9054
-13.915
-13.9242
-13.9328
-13.5638
-13.5651
-13.5689
-13.5747
-13.5821
-13.591
-13.6014
-13.6128
-13.6252
-13.6383
-13.6519
-13.6659
-13.6801
-13.6945
-13.7089
-13.7232
-13.7374
-13.7514
-13.7651
-13.7786
-13.7918
-13.8046
-13.8171
-13.8291
-13.8408
-13.852
-13.8628
-13.8731
-13.8829
-13.8923
-13.9012
-13.9096
-13.9176
-13.5636
-13.5652
-13.5692
-13.5751
-13.5825
-13.5915
-13.6016
-13.6129
-13.625
-13.6377
-13.6509
-13.6644
-13.6782
-13.692
-13.7059
-13.7197
-13.7333
-13.7467
-13.7599
-13.7728
-13.7854
-13.7976
-13.8094
-13.8208
-13.8318
-13.8423
-13.8524
-13.8621
-13.8712
-13.8799
-13.8881
-13.8957
-13.9029
-13.5618
-13.5624
-13.5652
-13.57
-13.5767
-13.5852
-13.5951
-13.6062
-13.6182
-13.6309
-13.6441
-13.6576
-13.6713
-13.6851
-13.6988
-13.7125
-13.7259
-13.7391
-13.752
-13.7646
-13.7768
-13.7886
-13.8
-13.811
-13.8215
-13.8315
-13.8411
-13.8502
-13.8588
-13.8668
-13.8744
-13.8815
-13.888
-13.5608
-13.5633
-13.5677
-13.5736
-13.5808
-13.5892
-13.5989
-13.6096
-13.6211
-13.6332
-13.6458
-13.6586
-13.6716
-13.6847
-13.6977
-13.7106
-13.7234
-13.7358
-13.7481
-13.7599
-13.7715
-13.7826
-13.7933
-13.8036
-13.8134
-13.8228
-13.8316
-13.84
-13.8479
-13.8553
-13.8621
-13.8685
-13.8743
-13.5529
-13.5509
-13.551
-13.5546
-13.5611
-13.5699
-13.5803
-13.592
-13.6046
-13.6178
-13.6314
-13.6451
-13.6589
-13.6727
-13.6862
-13.6996
-13.7126
-13.7254
-13.7377
-13.7496
-13.7611
-13.7722
-13.7827
-13.7928
-13.8024
-13.8114
-13.82
-13.828
-13.8355
-13.8424
-13.8489
-13.8548
-13.8601
-13.5602
-13.5667
-13.5723
-13.5772
-13.5829
-13.59
-13.5985
-13.6082
-13.6187
-13.6299
-13.6416
-13.6535
-13.6657
-13.6779
-13.6901
-13.7021
-13.7139
-13.7255
-13.7368
-13.7477
-13.7583
-13.7684
-13.7781
-13.7873
-13.796
-13.8043
-13.8121
-13.8193
-13.8261
-13.8323
-13.838
-13.8432
-13.8478
-13.5283
-13.5148
-13.5099
-13.5148
-13.5247
-13.537
-13.5508
-13.5656
-13.5809
-13.5963
-13.6116
-13.6268
-13.6417
-13.6563
-13.6704
-13.6841
-13.6974
-13.7101
-13.7223
-13.734
-13.7451
-13.7557
-13.7658
-13.7752
-13.7841
-13.7925
-13.8002
-13.8074
-13.814
-13.8201
-13.8256
-13.8305
-13.8349
-13.5818
-13.6021
-13.6063
-13.6016
-13.599
-13.601
-13.606
-13.6128
-13.621
-13.6303
-13.6404
-13.6509
-13.6618
-13.6729
-13.6839
-13.6949
-13.7058
-13.7164
-13.7267
-13.7366
-13.7462
-13.7554
-13.7641
-13.7724
-13.7801
-13.7874
-13.7942
-13.8005
-13.8062
-13.8114
-13.8161
-13.8203
-13.824
-13.459
-13.4095
-13.3976
-13.4236
-13.4514
-13.4754
-13.499
-13.5219
-13.5436
-13.5641
-13.5836
-13.6021
-13.6195
-13.6361
-13.6518
-13.6667
-13.6808
-13.6941
-13.7067
-13.7186
-13.7299
-13.7404
-13.7503
-13.7595
-13.768
-13.7759
-13.7832
-13.7899
-13.7959
-13.8013
-13.8061
-13.8103
-13.8139
-13.7071
-13.7419
-13.7109
-13.6681
-13.6393
-13.6281
-13.6251
-13.6256
-13.6291
-13.6348
-13.6421
-13.6505
-13.6595
-13.6689
-13.6785
-13.6883
-13.6979
-13.7075
-13.7168
-13.7258
-13.7345
-13.7428
-13.7506
-13.7581
-13.7651
-13.7715
-13.7775
-13.783
-13.788
-13.7925
-13.7964
-13.7999
-13.8028
-13.2148
-13.0951
-13.1574
-13.2588
-13.3326
-13.3842
-13.4276
-13.4655
-13.4985
-13.5274
-13.5533
-13.5766
-13.5978
-13.6173
-13.6352
-13.6518
-13.6672
-13.6815
-13.6948
-13.7071
-13.7187
-13.7293
-13.7392
-13.7484
-13.7568
-13.7645
-13.7714
-13.7777
-13.7834
-13.7883
-13.7926
-13.7963
-13.7993
-14.4292
-14.0903
-13.8265
-13.7092
-13.659
-13.6335
-13.6182
-13.6118
-13.6116
-13.6153
-13.6215
-13.6293
-13.6382
-13.6478
-13.6577
-13.6677
-13.6777
-13.6876
-13.6972
-13.7065
-13.7154
-13.724
-13.732
-13.7396
-13.7467
-13.7533
-13.7593
-13.7648
-13.7698
-13.7742
-13.7781
-13.7814
-13.7842
-11.9256
-12.6322
-13.0366
-13.1889
-13.2934
-13.3755
-13.4348
-13.4795
-13.5157
-13.5456
-13.571
-13.5931
-13.6127
-13.6305
-13.6466
-13.6615
-13.6752
-13.688
-13.6999
-13.711
-13.7213
-13.7308
-13.7396
-13.7478
-13.7553
-13.7621
-13.7682
-13.7737
-13.7786
-13.7829
-13.7865
-13.7896
-13.792
-13.9439
-14.1877
-14.3258
-14.4153
-14.4778
-14.5226
-14.5587
-14.5948
-14.6348
-14.6815
-14.7348
-14.7938
-14.8576
-14.9247
-14.9931
-15.0613
-15.1278
-15.1912
-15.2507
-15.3052
-15.3542
-15.3971
-15.4334
-15.4628
-15.4849
-15.4991
-15.505
-15.5018
-15.4887
-15.4649
-15.4294
-15.3811
-15.3191
-15.2421
-15.1492
-15.0392
-14.9111
-14.7639
-14.5968
-14.409
-14.1996
-13.9683
-13.7145
-13.438
-13.1387
-12.8169
-12.473
-12.1077
-11.7222
-11.3177
-10.8959
-10.4589
-10.0087
-9.54806
-9.07957
-8.6062
-8.13099
-7.65704
-7.1875
-6.72541
-6.27373
-5.83524
-5.41247
-5.00765
-4.6227
-4.25918
-3.91826
-3.60073
-3.30703
-3.03722
-2.79104
-2.56792
-2.36702
-2.18726
-2.02735
-1.88582
-1.76105
-1.65131
-1.55474
-1.46946
-1.39352
-1.32498
-1.2619
-1.20243
-1.14479
-1.08734
-1.02862
-0.967391
-0.902672
-0.833844
-0.76054
-0.683082
-0.601485
-0.517905
-0.430661
-0.348207
-0.255635
-0.193072
-0.069319
-0.106534
-14.5403
-14.6765
-14.6141
-14.5468
-14.518
-14.4964
-14.4915
-14.504
-14.5317
-14.5767
-14.6351
-14.7033
-14.7779
-14.8555
-14.9331
-15.0083
-15.0794
-15.1451
-15.2048
-15.2582
-15.3052
-15.3458
-15.3798
-15.4069
-15.427
-15.4393
-15.4435
-15.4387
-15.424
-15.3987
-15.3618
-15.3122
-15.2488
-15.1707
-15.0768
-14.9661
-14.8374
-14.69
-14.523
-14.3355
-14.1269
-13.8966
-13.6443
-13.3698
-13.0729
-12.754
-12.4135
-12.0521
-11.6709
-11.2712
-10.8547
-10.4231
-9.97886
-9.52423
-9.06193
-8.59478
-8.12574
-7.65784
-7.19412
-6.7376
-6.29115
-5.85748
-5.43907
-5.03812
-4.6565
-4.29572
-3.95695
-3.64096
-3.3482
-3.07874
-2.83234
-2.60849
-2.4064
-2.22503
-2.06319
-1.91946
-1.7923
-1.68005
-1.58094
-1.49311
-1.41469
-1.34376
-1.27843
-1.21686
-1.15729
-1.09809
-1.03779
-0.97517
-0.909228
-0.839368
-0.76516
-0.687025
-0.604719
-0.520881
-0.432731
-0.350942
-0.255834
-0.197422
-0.0637246
-0.120068
-14.246
-14.2522
-14.2746
-14.3263
-14.382
-14.432
-14.4705
-14.5077
-14.5473
-14.5915
-14.6403
-14.6942
-14.753
-14.8153
-14.8797
-14.9448
-15.0092
-15.0715
-15.1304
-15.1848
-15.2336
-15.2762
-15.312
-15.3403
-15.3609
-15.3731
-15.3764
-15.3704
-15.3544
-15.3275
-15.2889
-15.2377
-15.173
-15.0936
-14.9987
-14.8871
-14.758
-14.6104
-14.4435
-14.2564
-14.0487
-13.8198
-13.5692
-13.2968
-13.0026
-12.6868
-12.3499
-11.9926
-11.616
-11.2212
-10.81
-10.384
-9.94562
-9.49706
-9.04096
-8.58008
-8.11732
-7.65563
-7.198
-6.74734
-6.30645
-5.87797
-5.46432
-5.0676
-4.68966
-4.33196
-3.99564
-3.68147
-3.3899
-3.12101
-2.87461
-2.65021
-2.44706
-2.26421
-2.10049
-1.95457
-1.82499
-1.71014
-1.60834
-1.51781
-1.43672
-1.36321
-1.29542
-1.23155
-1.16986
-1.10873
-1.04671
-0.982565
-0.915301
-0.844338
-0.769185
-0.690363
-0.607377
-0.523334
-0.434389
-0.353337
-0.25593
-0.201523
-0.0587173
-0.132484
-14.3009
-14.4136
-14.4748
-14.4934
-14.5008
-14.5052
-14.5085
-14.5148
-14.5393
-14.5748
-14.6192
-14.6718
-14.7305
-14.7929
-14.8568
-14.9199
-14.9807
-15.038
-15.0907
-15.1384
-15.1807
-15.2172
-15.2476
-15.2715
-15.2885
-15.298
-15.2993
-15.2917
-15.2743
-15.2463
-15.2067
-15.1545
-15.0889
-15.0087
-14.9131
-14.801
-14.6716
-14.5239
-14.3573
-14.1709
-13.9641
-13.7365
-13.4878
-13.2177
-12.9262
-12.6136
-12.2803
-11.9272
-11.555
-11.1653
-10.7594
-10.3393
-9.90692
-9.46473
-9.01519
-8.56101
-8.10498
-7.64999
-7.1989
-6.75457
-6.31969
-5.89682
-5.48828
-5.09615
-4.72217
-4.36781
-4.03417
-3.72202
-3.4318
-3.16364
-2.91737
-2.69255
-2.48847
-2.30423
-2.13872
-1.99069
-1.85871
-1.74126
-1.63673
-1.54339
-1.4595
-1.38324
-1.31283
-1.24648
-1.18249
-1.11927
-1.05538
-0.989597
-0.920922
-0.848798
-0.772678
-0.693179
-0.609564
-0.525383
-0.435768
-0.355516
-0.256039
-0.205438
-0.0543485
-0.143759
-14.2651
-14.3123
-14.3282
-14.3427
-14.3683
-14.3982
-14.4299
-14.4721
-14.5128
-14.5544
-14.601
-14.6523
-14.7069
-14.7635
-14.821
-14.8781
-14.9338
-14.9871
-15.0369
-15.0826
-15.1233
-15.1583
-15.1871
-15.2092
-15.2238
-15.2306
-15.229
-15.2183
-15.1978
-15.1667
-15.1243
-15.0697
-15.0018
-14.9197
-14.8226
-14.7094
-14.5792
-14.4311
-14.2645
-14.0785
-13.8726
-13.6464
-13.3994
-13.1316
-12.8429
-12.5336
-12.2042
-11.8554
-11.4882
-11.1037
-10.7037
-10.2897
-9.86391
-9.42852
-8.986
-8.53896
-8.09012
-7.64225
-7.19815
-6.76052
-6.332
-5.91504
-5.51188
-5.12453
-4.75469
-4.40379
-4.07292
-3.76285
-3.47405
-3.20667
-2.96057
-2.73536
-2.53039
-2.3448
-2.17756
-2.02744
-1.8931
-1.77307
-1.66579
-1.56962
-1.48285
-1.40376
-1.3306
-1.26163
-1.19521
-1.12976
-1.06388
-0.99636
-0.926202
-0.852874
-0.77578
-0.695627
-0.611443
-0.527193
-0.437022
-0.357599
-0.256259
-0.209195
-0.0506537
-0.153864
-14.2531
-14.3087
-14.3533
-14.3897
-14.4207
-14.4476
-14.4696
-14.4853
-14.5136
-14.5483
-14.5885
-14.634
-14.6835
-14.7358
-14.7894
-14.8428
-14.8948
-14.9442
-14.99
-15.0314
-15.0677
-15.0986
-15.1233
-15.1416
-15.1529
-15.1566
-15.1521
-15.1389
-15.116
-15.0827
-15.0381
-14.9814
-14.9117
-14.8279
-14.7293
-14.6148
-14.4837
-14.3351
-14.1683
-13.9826
-13.7775
-13.5525
-13.3073
-13.0418
-12.7559
-12.4501
-12.1247
-11.7804
-11.4182
-11.0394
-10.6453
-10.2379
-9.81895
-9.39074
-8.95561
-8.51608
-8.07476
-7.63432
-7.19743
-6.76671
-6.34468
-5.93371
-5.53598
-5.15342
-4.78773
-4.44028
-4.11217
-3.80418
-3.51679
-3.25018
-3.00425
-2.77865
-2.57278
-2.38585
-2.21686
-2.06466
-1.92796
-1.80535
-1.69532
-1.59629
-1.50663
-1.42464
-1.34866
-1.27699
-1.20804
-1.14027
-1.0723
-1.00298
-0.931286
-0.856731
-0.778669
-0.697891
-0.613195
-0.528924
-0.438283
-0.359674
-0.256651
-0.2128
-0.0476345
-0.16279
-14.2391
-14.2846
-14.319
-14.3448
-14.3683
-14.3912
-14.4192
-14.4526
-14.4868
-14.5243
-14.5653
-14.6098
-14.6571
-14.706
-14.7557
-14.8048
-14.8524
-14.8975
-14.9394
-14.9771
-15.0102
-15.0379
-15.0597
-15.0751
-15.0834
-15.0842
-15.0768
-15.0605
-15.0347
-14.9986
-14.9513
-14.8921
-14.8201
-14.7343
-14.634
-14.5182
-14.3861
-14.237
-14.0701
-13.8847
-13.6804
-13.4567
-13.2134
-12.9503
-12.6674
-12.3652
-12.0439
-11.7044
-11.3476
-10.9746
-10.5869
-10.1862
-9.77442
-9.35358
-8.92599
-8.49406
-8.06031
-7.62729
-7.19759
-6.77371
-6.35811
-5.95306
-5.56068
-5.18287
-4.82126
-4.47723
-4.15185
-3.84591
-3.55991
-3.29406
-3.0483
-2.82231
-2.61555
-2.42727
-2.25654
-2.10226
-1.9632
-1.838
-1.72521
-1.62332
-1.53073
-1.44582
-1.36697
-1.29256
-1.22102
-1.15087
-1.08077
-1.00959
-0.936341
-0.86055
-0.781529
-0.700145
-0.614974
-0.5307
-0.439643
-0.361788
-0.257241
-0.216242
-0.0452656
-0.170553
-14.2258
-14.2671
-14.3028
-14.3338
-14.3635
-14.3934
-14.4188
-14.4469
-14.477
-14.5107
-14.548
-14.5885
-14.6317
-14.6765
-14.722
-14.7671
-14.8108
-14.8521
-14.8902
-14.9243
-14.9538
-14.978
-14.9964
-15.0084
-15.0135
-15.0111
-15.0007
-14.9815
-14.9529
-14.9141
-14.8644
-14.8029
-14.7287
-14.6411
-14.5392
-14.4221
-14.2891
-14.1394
-13.9723
-13.7873
-13.5839
-13.3616
-13.1202
-12.8596
-12.5799
-12.2814
-11.9644
-11.6298
-11.2783
-10.9112
-10.5299
-10.136
-9.73123
-9.31769
-8.89754
-8.47312
-8.04681
-7.62111
-7.19847
-6.78132
-6.37204
-5.97282
-5.58572
-5.21258
-4.85501
-4.51436
-4.19169
-3.8878
-3.60319
-3.33811
-3.09252
-2.86617
-2.65854
-2.46894
-2.29648
-2.14014
-1.99872
-1.87094
-1.7554
-1.65063
-1.55511
-1.46728
-1.38555
-1.30836
-1.2342
-1.16165
-1.08939
-1.01634
-0.941512
-0.864478
-0.784502
-0.702517
-0.616882
-0.532589
-0.441141
-0.363951
-0.258027
-0.219503
-0.0435058
-0.17719
-14.2127
-14.25
-14.2836
-14.3134
-14.341
-14.3675
-14.3946
-14.4236
-14.4547
-14.4882
-14.5244
-14.563
-14.6034
-14.645
-14.687
-14.7283
-14.7682
-14.8057
-14.84
-14.8705
-14.8965
-14.9174
-14.9325
-14.9415
-14.9435
-14.9382
-14.9249
-14.9029
-14.8716
-14.8302
-14.7779
-14.7141
-14.6379
-14.5485
-14.445
-14.3267
-14.1928
-14.0427
-13.8756
-13.6911
-13.4886
-13.2678
-13.0284
-12.7704
-12.4938
-12.199
-11.8863
-11.5565
-11.2104
-10.8492
-10.4742
-10.0869
-9.68912
-9.28277
-8.86996
-8.45291
-8.03394
-7.61542
-7.19973
-6.78922
-6.38616
-5.99269
-5.61081
-5.2423
-4.88874
-4.55144
-4.23147
-3.92963
-3.64643
-3.38214
-3.13675
-2.91005
-2.70158
-2.51069
-2.33654
-2.17816
-2.03441
-1.90407
-1.78579
-1.67817
-1.57973
-1.48896
-1.40436
-1.3244
-1.24762
-1.17265
-1.09823
-1.02329
-0.946884
-0.8686
-0.787663
-0.705063
-0.618958
-0.53461
-0.442779
-0.366152
-0.258991
-0.222564
-0.0423061
-0.182754
-14.1994
-14.2338
-14.266
-14.2956
-14.3237
-14.3513
-14.3788
-14.4071
-14.4368
-14.4684
-14.5022
-14.5379
-14.5751
-14.6133
-14.6516
-14.6892
-14.7253
-14.7591
-14.7898
-14.8168
-14.8393
-14.8569
-14.8688
-14.8745
-14.8736
-14.8652
-14.849
-14.8242
-14.7902
-14.7463
-14.6917
-14.6257
-14.5475
-14.4563
-14.3514
-14.232
-14.0974
-13.9469
-13.7799
-13.5959
-13.3944
-13.1751
-12.9378
-12.6824
-12.409
-12.1179
-11.8095
-11.4845
-11.1437
-10.7883
-10.4194
-10.0387
-9.6478
-9.24854
-8.84294
-8.43315
-8.0214
-7.60996
-7.20113
-6.79717
-6.40026
-6.01248
-5.63576
-5.27185
-4.92227
-4.58832
-4.27105
-3.97126
-3.68949
-3.42601
-3.18086
-2.95385
-2.74457
-2.55241
-2.37661
-2.21622
-2.07017
-1.9373
-1.81631
-1.70585
-1.60451
-1.51084
-1.42336
-1.34064
-1.26125
-1.18388
-1.10729
-1.03047
-0.952477
-0.872934
-0.791027
-0.70779
-0.621198
-0.536751
-0.444542
-0.368372
-0.260115
-0.225419
-0.0416157
-0.187317
-14.186
-14.2179
-14.2485
-14.2773
-14.3048
-14.3318
-14.3587
-14.3863
-14.4151
-14.4454
-14.4774
-14.5108
-14.5453
-14.5803
-14.6152
-14.6493
-14.6818
-14.712
-14.7392
-14.7627
-14.7819
-14.7961
-14.8049
-14.8075
-14.8035
-14.7923
-14.7733
-14.7457
-14.7091
-14.6627
-14.6058
-14.5377
-14.4576
-14.3647
-14.2585
-14.138
-14.0027
-13.8519
-13.685
-13.5016
-13.3012
-13.0834
-12.8482
-12.5954
-12.3252
-12.0378
-11.7336
-11.4134
-11.0779
-10.7282
-10.3655
-9.99123
-9.60708
-9.21479
-8.81631
-8.41368
-8.00905
-7.6046
-7.20254
-6.80504
-6.41422
-6.03207
-5.66048
-5.30112
-4.9555
-4.62489
-4.31033
-4.01261
-3.73228
-3.46963
-3.22475
-2.99746
-2.7874
-2.59403
-2.4166
-2.25424
-2.10593
-1.97055
-1.84688
-1.73362
-1.6294
-1.53284
-1.44252
-1.35705
-1.27507
-1.1953
-1.11655
-1.03785
-0.958275
-0.877466
-0.794576
-0.71068
-0.623585
-0.538994
-0.446414
-0.370598
-0.261384
-0.228067
-0.0413846
-0.19096
-14.1724
-14.2023
-14.2313
-14.2592
-14.2861
-14.3125
-14.3389
-14.3658
-14.3935
-14.4222
-14.4522
-14.4831
-14.5148
-14.5467
-14.5784
-14.609
-14.6381
-14.6648
-14.6885
-14.7086
-14.7244
-14.7354
-14.741
-14.7406
-14.7336
-14.7195
-14.6976
-14.6674
-14.6282
-14.5794
-14.5203
-14.4501
-14.3681
-14.2737
-14.1661
-14.0447
-13.9088
-13.7577
-13.591
-13.4082
-13.2089
-12.9927
-12.7596
-12.5094
-12.2423
-11.9586
-11.6587
-11.3432
-11.0129
-10.6688
-10.3122
-9.94432
-9.56685
-9.18145
-8.78998
-8.39442
-7.9968
-7.59925
-7.20387
-6.81276
-6.42795
-6.05139
-5.68487
-5.33004
-4.98836
-4.66109
-4.34923
-4.05359
-3.77472
-3.51294
-3.26835
-3.04082
-2.83003
-2.63546
-2.45645
-2.29216
-2.14162
-2.00378
-1.87746
-1.76142
-1.65435
-1.55493
-1.46179
-1.3736
-1.28904
-1.20688
-1.12599
-1.04542
-0.964257
-0.882176
-0.798293
-0.713718
-0.626104
-0.541329
-0.448386
-0.372827
-0.262789
-0.230517
-0.0415648
-0.193769
-14.1586
-14.1867
-14.2142
-14.241
-14.267
-14.2927
-14.3182
-14.3441
-14.3705
-14.3977
-14.4256
-14.4543
-14.4833
-14.5123
-14.5408
-14.5682
-14.5939
-14.6172
-14.6376
-14.6544
-14.6669
-14.6747
-14.6772
-14.6737
-14.6638
-14.6468
-14.6222
-14.5894
-14.5477
-14.4965
-14.4351
-14.3629
-14.2792
-14.1833
-14.0745
-13.9521
-13.8156
-13.6644
-13.4979
-13.3157
-13.1175
-12.9029
-12.6719
-12.4244
-12.1604
-11.8804
-11.5846
-11.2738
-10.9487
-10.6102
-10.2595
-9.89797
-9.52708
-9.14846
-8.76391
-8.3753
-7.98461
-7.59386
-7.20507
-6.82027
-6.44141
-6.07036
-5.70888
-5.35855
-5.02079
-4.69684
-4.38769
-4.09414
-3.81675
-3.55587
-3.3116
-3.08386
-2.87237
-2.67666
-2.4961
-2.32992
-2.1772
-2.03693
-1.90799
-1.78921
-1.67933
-1.57707
-1.48114
-1.39025
-1.30313
-1.21861
-1.13559
-1.05315
-0.970409
-0.887052
-0.802169
-0.716896
-0.628753
-0.543753
-0.450456
-0.375062
-0.264323
-0.232784
-0.0421099
-0.195835
-14.1445
-14.171
-14.1971
-14.2227
-14.2478
-14.2725
-14.2971
-14.3218
-14.3469
-14.3724
-14.3984
-14.4248
-14.4512
-14.4774
-14.5028
-14.5271
-14.5495
-14.5695
-14.5866
-14.6001
-14.6094
-14.6141
-14.6134
-14.607
-14.5942
-14.5744
-14.5471
-14.5116
-14.4675
-14.414
-14.3505
-14.2764
-14.1909
-14.0935
-13.9835
-13.8603
-13.7233
-13.5719
-13.4057
-13.2242
-13.0271
-12.8142
-12.5853
-12.3403
-12.0795
-11.8031
-11.5115
-11.2053
-10.8852
-10.5523
-10.2075
-9.85217
-9.48775
-9.11582
-8.73807
-8.35632
-7.97245
-7.5884
-7.20611
-6.82754
-6.45455
-6.08896
-5.73246
-5.38659
-5.05273
-4.73209
-4.42565
-4.1342
-3.85831
-3.59834
-3.35443
-3.12653
-2.91438
-2.71757
-2.5355
-2.36747
-2.2126
-2.06994
-1.93844
-1.81695
-1.70429
-1.59924
-1.50055
-1.40698
-1.31734
-1.23048
-1.14533
-1.06104
-0.976726
-0.892091
-0.806203
-0.720216
-0.631531
-0.546271
-0.452629
-0.377308
-0.265981
-0.234888
-0.0429756
-0.197246
-14.1302
-14.1552
-14.18
-14.2043
-14.2283
-14.2519
-14.2754
-14.2989
-14.3225
-14.3463
-14.3704
-14.3945
-14.4184
-14.4418
-14.4644
-14.4856
-14.5048
-14.5217
-14.5355
-14.5458
-14.552
-14.5536
-14.5499
-14.5405
-14.5248
-14.5023
-14.4723
-14.4344
-14.3878
-14.332
-14.2665
-14.1904
-14.1033
-14.0045
-13.8934
-13.7693
-13.6318
-13.4804
-13.3144
-13.1337
-12.9378
-12.7265
-12.4997
-12.2574
-11.9997
-11.7269
-11.4393
-11.1377
-10.8226
-10.4951
-10.1561
-9.80691
-9.44887
-9.08351
-8.71246
-8.33745
-7.96029
-7.58284
-7.20697
-6.83453
-6.46734
-6.10714
-5.75557
-5.41412
-5.08413
-4.76678
-4.46305
-4.17371
-3.89934
-3.64031
-3.39679
-3.16875
-2.95599
-2.75811
-2.57459
-2.40475
-2.24779
-2.10279
-1.96875
-1.8446
-1.7292
-1.62139
-1.51998
-1.42378
-1.33163
-1.24245
-1.15521
-1.06909
-0.983203
-0.897292
-0.810396
-0.72368
-0.634444
-0.548888
-0.454907
-0.379576
-0.267759
-0.236848
-0.044119
-0.19809
-14.1157
-14.1392
-14.1626
-14.1857
-14.2085
-14.231
-14.2532
-14.2754
-14.2975
-14.3196
-14.3417
-14.3636
-14.3851
-14.4058
-14.4256
-14.4438
-14.46
-14.4737
-14.4845
-14.4917
-14.4948
-14.4933
-14.4867
-14.4744
-14.4559
-14.4306
-14.398
-14.3576
-14.3087
-14.2507
-14.1831
-14.1052
-14.0165
-13.9164
-13.8042
-13.6794
-13.5414
-13.3899
-13.2243
-13.0443
-12.8495
-12.6399
-12.4152
-12.1755
-11.9209
-11.6516
-11.3681
-11.071
-10.7609
-10.4387
-10.1054
-9.76222
-9.41045
-9.05155
-8.68708
-8.3187
-7.94814
-7.57718
-7.20761
-6.84121
-6.47974
-6.12487
-5.77817
-5.44109
-5.11494
-4.80087
-4.49983
-4.21261
-3.93977
-3.68171
-3.43861
-3.21047
-2.99713
-2.79824
-2.61331
-2.44171
-2.28269
-2.1354
-1.99888
-1.87211
-1.75403
-1.6435
-1.5394
-1.4406
-1.34599
-1.25453
-1.16522
-1.07727
-0.989834
-0.902652
-0.814747
-0.727289
-0.637494
-0.551608
-0.457294
-0.381872
-0.269652
-0.238686
-0.0454986
-0.19845
-14.1009
-14.1231
-14.1451
-14.167
-14.1885
-14.2097
-14.2306
-14.2514
-14.2719
-14.2923
-14.3124
-14.3321
-14.3512
-14.3694
-14.3864
-14.4018
-14.4151
-14.4258
-14.4335
-14.4377
-14.4378
-14.4333
-14.4238
-14.4087
-14.3874
-14.3595
-14.3243
-14.2814
-14.2302
-14.1701
-14.1005
-14.0209
-13.9306
-13.8292
-13.7159
-13.5904
-13.4521
-13.3005
-13.1353
-12.956
-12.7625
-12.5545
-12.3319
-12.0947
-11.8432
-11.5775
-11.298
-11.0053
-10.7
-10.3831
-10.0554
-9.71811
-9.3725
-9.01995
-8.66194
-8.30006
-7.93598
-7.5714
-7.20802
-6.84758
-6.49173
-6.14211
-5.80021
-5.46746
-5.14511
-4.83429
-4.53595
-4.25084
-3.97954
-3.72247
-3.47982
-3.25162
-3.03774
-2.83788
-2.65159
-2.47828
-2.31726
-2.16772
-2.02877
-1.89944
-1.77871
-1.66552
-1.55878
-1.45743
-1.36039
-1.26668
-1.17533
-1.08558
-0.996609
-0.908162
-0.81925
-0.731042
-0.640681
-0.554436
-0.459791
-0.384206
-0.271653
-0.240425
-0.0470747
-0.198404
-14.0858
-14.1067
-14.1274
-14.148
-14.1682
-14.1881
-14.2077
-14.227
-14.2459
-14.2645
-14.2827
-14.3002
-14.317
-14.3327
-14.3471
-14.3596
-14.3701
-14.3779
-14.3827
-14.3839
-14.3811
-14.3737
-14.3613
-14.3434
-14.3195
-14.2889
-14.2513
-14.206
-14.1525
-14.0903
-14.0188
-13.9375
-13.8457
-13.743
-13.6288
-13.5026
-13.3639
-13.2124
-13.0475
-12.869
-12.6767
-12.4703
-12.2498
-12.0153
-11.7667
-11.5045
-11.2289
-10.9406
-10.6401
-10.3283
-10.0061
-9.67464
-9.33506
-8.98872
-8.63704
-8.28155
-7.92382
-7.56549
-7.2082
-6.8536
-6.50329
-6.15882
-5.82167
-5.49318
-5.1746
-4.86701
-4.57133
-4.28834
-4.0186
-3.76253
-3.52036
-3.29214
-3.07776
-2.87697
-2.68937
-2.51441
-2.35144
-2.19971
-2.05838
-1.92654
-1.80322
-1.68741
-1.57809
-1.47422
-1.3748
-1.27887
-1.18552
-1.094
-1.00351
-0.913811
-0.823897
-0.734933
-0.644001
-0.557369
-0.462395
-0.386582
-0.273751
-0.242085
-0.0488087
-0.198029
-14.0705
-14.0901
-14.1095
-14.1288
-14.1477
-14.1662
-14.1844
-14.2022
-14.2195
-14.2363
-14.2526
-14.268
-14.2825
-14.2958
-14.3075
-14.3175
-14.3251
-14.3301
-14.332
-14.3304
-14.3247
-14.3146
-14.2994
-14.2788
-14.2522
-14.2191
-14.179
-14.1314
-14.0757
-14.0115
-13.9381
-13.8551
-13.7619
-13.658
-13.5429
-13.4161
-13.2771
-13.1256
-12.9611
-12.7834
-12.5923
-12.3876
-12.1692
-11.9371
-11.6915
-11.4327
-11.161
-10.877
-10.5812
-10.2744
-9.95763
-9.63182
-9.29815
-8.9579
-8.61242
-8.26317
-7.91167
-7.55947
-7.20814
-6.85927
-6.51439
-6.175
-5.84251
-5.51823
-5.20336
-4.89896
-4.60594
-4.32505
-4.05687
-3.80182
-3.56015
-3.33194
-3.11712
-2.91545
-2.72658
-2.55002
-2.38515
-2.23129
-2.08764
-1.95335
-1.82749
-1.70912
-1.59726
-1.49094
-1.38918
-1.29108
-1.19576
-1.1025
-1.01052
-0.919583
-0.828676
-0.738952
-0.647446
-0.560406
-0.465103
-0.389006
-0.275939
-0.243691
-0.0506632
-0.197399
-14.0549
-14.0733
-14.0915
-14.1094
-14.1269
-14.1441
-14.1609
-14.1771
-14.1928
-14.2078
-14.2221
-14.2355
-14.2478
-14.2587
-14.268
-14.2753
-14.2803
-14.2826
-14.2817
-14.2773
-14.2688
-14.2559
-14.2381
-14.2148
-14.1856
-14.1501