/*--------------------------------*- C++ -*----------------------------------*\
| =========                 |                                                 |
| \\      /  F ield         | OpenFOAM: The Open Source CFD Toolbox           |
|  \\    /   O peration     | Version:  2.1.1                                 |
|   \\  /    A nd           | Web:      www.OpenFOAM.org                      |
|    \\/     M anipulation  |                                                 |
\*---------------------------------------------------------------------------*/
FoamFile
{
    version     2.0;
    format      ascii;
    class       surfaceScalarField;
    location    "0.155";
    object      phi;
}
// * * * * * * * * * * * * * * * * * * * * * * * * * * * * * * * * * * * * * //

dimensions      [0 3 -1 0 0 0 0];

internalField   nonuniform List<scalar> 
13452
(
6.89923e-05
-5.05006e-07
6.88134e-05
1.78825e-07
6.82019e-05
6.1155e-07
6.72543e-05
9.47641e-07
6.61774e-05
1.07685e-06
6.50855e-05
1.09187e-06
6.40204e-05
1.06514e-06
6.29993e-05
1.02108e-06
6.20306e-05
9.68674e-07
6.11178e-05
9.12805e-07
6.02619e-05
8.55893e-07
5.94626e-05
7.9939e-07
5.87183e-05
7.44242e-07
5.80272e-05
6.91114e-07
5.73867e-05
6.40453e-07
5.67942e-05
5.9254e-07
5.62467e-05
5.47532e-07
5.57412e-05
5.05484e-07
5.52748e-05
4.66383e-07
5.48446e-05
4.30164e-07
5.44479e-05
3.96732e-07
5.40819e-05
3.65982e-07
5.37441e-05
3.37817e-07
5.34319e-05
3.12168e-07
5.31429e-05
2.89034e-07
5.28744e-05
2.68529e-07
5.26234e-05
2.50995e-07
5.23861e-05
2.37305e-07
5.2157e-05
2.29074e-07
5.19256e-05
2.31418e-07
5.16732e-05
2.5234e-07
5.13506e-05
3.2268e-07
5.0824e-07
5.08423e-05
7.01649e-05
-2.26003e-07
7.00411e-05
3.02676e-07
7.01817e-05
4.70966e-07
7.05089e-05
6.20398e-07
7.08593e-05
7.26427e-07
7.11581e-05
7.93074e-07
7.13827e-05
8.40595e-07
7.15346e-05
8.69135e-07
7.16219e-05
8.81389e-07
7.16534e-05
8.81336e-07
7.16374e-05
8.71924e-07
7.15813e-05
8.55482e-07
7.14917e-05
8.33816e-07
7.13744e-05
8.08394e-07
7.12345e-05
7.80391e-07
7.10763e-05
7.50746e-07
7.09036e-05
7.20209e-07
7.07197e-05
6.8937e-07
7.05274e-05
6.58687e-07
7.0329e-05
6.28514e-07
7.01267e-05
5.99124e-07
6.99219e-05
5.70734e-07
6.97162e-05
5.43526e-07
6.95107e-05
5.17674e-07
6.93063e-05
4.9339e-07
6.91039e-05
4.70942e-07
6.89041e-05
4.50837e-07
6.87077e-05
4.33698e-07
6.85155e-05
4.21296e-07
6.83324e-05
4.14497e-07
6.81642e-05
4.20566e-07
6.80584e-05
4.28454e-07
4.6551e-07
6.81011e-05
7.22816e-05
-5.10678e-08
7.23967e-05
1.87561e-07
7.25015e-05
3.66188e-07
7.2588e-05
5.33937e-07
7.26712e-05
6.43209e-07
7.27531e-05
7.11111e-07
7.28392e-05
7.54521e-07
7.29258e-05
7.82495e-07
7.3009e-05
7.98208e-07
7.30862e-05
8.04211e-07
7.31556e-05
8.0246e-07
7.32166e-05
7.94526e-07
7.32687e-05
7.8169e-07
7.3312e-05
7.65069e-07
7.33468e-05
7.45606e-07
7.33735e-05
7.24091e-07
7.33925e-05
7.01178e-07
7.34045e-05
6.77403e-07
7.34099e-05
6.53202e-07
7.34095e-05
6.28927e-07
7.34038e-05
6.04867e-07
7.33933e-05
5.81264e-07
7.33785e-05
5.58335e-07
7.33598e-05
5.36294e-07
7.33378e-05
5.1539e-07
7.33129e-05
4.95919e-07
7.32853e-05
4.78373e-07
7.32557e-05
4.63282e-07
7.3225e-05
4.51993e-07
7.31949e-05
4.44685e-07
7.31693e-05
4.46131e-07
7.31509e-05
4.46889e-07
4.7232e-07
7.3144e-05
7.45185e-05
-4.29141e-08
7.44881e-05
2.17958e-07
7.44765e-05
3.77723e-07
7.4516e-05
4.94472e-07
7.45762e-05
5.8306e-07
7.46423e-05
6.44922e-07
7.4708e-05
6.88828e-07
7.47717e-05
7.18837e-07
7.4833e-05
7.36904e-07
7.48918e-05
7.45397e-07
7.49479e-05
7.46342e-07
7.50012e-05
7.41297e-07
7.50513e-05
7.31509e-07
7.50984e-05
7.18036e-07
7.51422e-05
7.01758e-07
7.51829e-05
6.83404e-07
7.52205e-05
6.63577e-07
7.52551e-05
6.42772e-07
7.52869e-05
6.21398e-07
7.53161e-05
5.99787e-07
7.53427e-05
5.78217e-07
7.53671e-05
5.56925e-07
7.53893e-05
5.36126e-07
7.54095e-05
5.16031e-07
7.54281e-05
4.96876e-07
7.5445e-05
4.78931e-07
7.54608e-05
4.62592e-07
7.54759e-05
4.48232e-07
7.54912e-05
4.36663e-07
7.55081e-05
4.27744e-07
7.55311e-05
4.23165e-07
7.5561e-05
4.16966e-07
4.13267e-07
7.56201e-05
7.66035e-05
9.40338e-09
7.66282e-05
1.93338e-07
7.66645e-05
3.41389e-07
7.67025e-05
4.56449e-07
7.67407e-05
5.44825e-07
7.67801e-05
6.05549e-07
7.68219e-05
6.47079e-07
7.68656e-05
6.75126e-07
7.69102e-05
6.92294e-07
7.69549e-05
7.0073e-07
7.6999e-05
7.02202e-07
7.70422e-05
6.98081e-07
7.70842e-05
6.8949e-07
7.71249e-05
6.7739e-07
7.71641e-05
6.62586e-07
7.72017e-05
6.45754e-07
7.72378e-05
6.27453e-07
7.72724e-05
6.0815e-07
7.73056e-05
5.88227e-07
7.73374e-05
5.68001e-07
7.73679e-05
5.47735e-07
7.73972e-05
5.27655e-07
7.74253e-05
5.07967e-07
7.74525e-05
4.88864e-07
7.74788e-05
4.70556e-07
7.75045e-05
4.53261e-07
7.75298e-05
4.37261e-07
7.75553e-05
4.22774e-07
7.75817e-05
4.10189e-07
7.76103e-05
3.99133e-07
7.76436e-05
3.89947e-07
7.7682e-05
3.78579e-07
3.6588e-07
7.77293e-05
7.88311e-05
2.41719e-08
7.88387e-05
1.85757e-07
7.88568e-05
3.23323e-07
7.88855e-05
4.27697e-07
7.89217e-05
5.0863e-07
7.89608e-05
5.66536e-07
7.90007e-05
6.07133e-07
7.90409e-05
6.34939e-07
7.90809e-05
6.52247e-07
7.91206e-05
6.61035e-07
7.91598e-05
6.63025e-07
7.91983e-05
6.59572e-07
7.9236e-05
6.51776e-07
7.92729e-05
6.40561e-07
7.93087e-05
6.26702e-07
7.93437e-05
6.10841e-07
7.93776e-05
5.93513e-07
7.94106e-05
5.75163e-07
7.94427e-05
5.56154e-07
7.94739e-05
5.3679e-07
7.95043e-05
5.17323e-07
7.9534e-05
4.97968e-07
7.9563e-05
4.78914e-07
7.95915e-05
4.60337e-07
7.96197e-05
4.42408e-07
7.96477e-05
4.2529e-07
7.96758e-05
4.09159e-07
7.97044e-05
3.94097e-07
7.97344e-05
3.80197e-07
7.97666e-05
3.66993e-07
7.98024e-05
3.54137e-07
7.9842e-05
3.38985e-07
3.20779e-07
7.98871e-05
8.10847e-05
3.79925e-08
8.10947e-05
1.75808e-07
8.11181e-05
2.99913e-07
8.11487e-05
3.97109e-07
8.11832e-05
4.74076e-07
8.12191e-05
5.30675e-07
8.12555e-05
5.70684e-07
8.12924e-05
5.98111e-07
8.13293e-05
6.15342e-07
8.1366e-05
6.24311e-07
8.14023e-05
6.26674e-07
8.14382e-05
6.2374e-07
8.14734e-05
6.16566e-07
8.15079e-05
6.06042e-07
8.15417e-05
5.92911e-07
8.15747e-05
5.7779e-07
8.16071e-05
5.61193e-07
8.16387e-05
5.43546e-07
8.16696e-05
5.252e-07
8.17e-05
5.06447e-07
8.17298e-05
4.87526e-07
8.17591e-05
4.68642e-07
8.17881e-05
4.49969e-07
8.18167e-05
4.31658e-07
8.18453e-05
4.13845e-07
8.18739e-05
3.9664e-07
8.1903e-05
3.80129e-07
8.19328e-05
3.64299e-07
8.19639e-05
3.49064e-07
8.1997e-05
3.33944e-07
8.20327e-05
3.18372e-07
8.20711e-05
3.00615e-07
2.79746e-07
8.21121e-05
8.34101e-05
4.34629e-08
8.342e-05
1.65909e-07
8.34407e-05
2.79136e-07
8.34682e-05
3.69648e-07
8.35005e-05
4.41802e-07
8.35351e-05
4.96013e-07
8.35708e-05
5.34978e-07
8.3607e-05
5.62008e-07
8.3643e-05
5.79284e-07
8.36788e-05
5.88566e-07
8.3714e-05
5.91392e-07
8.37488e-05
5.89017e-07
8.37829e-05
5.82467e-07
8.38163e-05
5.72602e-07
8.38491e-05
5.60141e-07
8.38812e-05
5.45684e-07
8.39126e-05
5.29727e-07
8.39435e-05
5.12682e-07
8.39738e-05
4.9489e-07
8.40036e-05
4.76631e-07
8.4033e-05
4.58135e-07
8.40621e-05
4.39595e-07
8.40909e-05
4.21168e-07
8.41195e-05
4.02985e-07
8.41482e-05
3.85148e-07
8.41772e-05
3.67722e-07
8.42066e-05
3.50731e-07
8.42368e-05
3.34099e-07
8.42682e-05
3.17651e-07
8.43012e-05
3.00945e-07
8.43361e-05
2.83412e-07
8.43728e-05
2.63917e-07
2.41723e-07
8.44109e-05
8.57963e-05
4.58707e-08
8.58061e-05
1.56093e-07
8.58263e-05
2.58962e-07
8.5853e-05
3.42965e-07
8.58842e-05
4.10574e-07
8.59179e-05
4.62365e-07
8.59527e-05
5.00192e-07
8.59879e-05
5.26713e-07
8.60233e-05
5.43911e-07
8.60585e-05
5.53407e-07
8.60932e-05
5.56632e-07
8.61275e-05
5.54777e-07
8.61611e-05
5.4882e-07
8.61941e-05
5.39587e-07
8.62265e-05
5.27768e-07
8.62583e-05
5.1394e-07
8.62894e-05
4.98585e-07
8.632e-05
4.821e-07
8.63501e-05
4.64814e-07
8.63797e-05
4.46996e-07
8.6409e-05
4.28868e-07
8.64379e-05
4.10609e-07
8.64668e-05
3.92363e-07
8.64955e-05
3.7424e-07
8.65243e-05
3.56316e-07
8.65534e-05
3.38625e-07
8.6583e-05
3.21146e-07
8.66133e-05
3.03775e-07
8.66447e-05
2.86309e-07
8.66773e-05
2.68369e-07
8.67112e-05
2.49477e-07
8.67462e-05
2.28898e-07
2.06146e-07
8.67818e-05
8.82501e-05
4.58093e-08
8.82601e-05
1.46096e-07
8.82793e-05
2.3975e-07
8.83046e-05
3.17635e-07
8.83344e-05
3.80809e-07
8.83668e-05
4.29891e-07
8.84008e-05
4.66245e-07
8.84355e-05
4.92009e-07
8.84705e-05
5.08949e-07
8.85053e-05
5.18536e-07
8.85399e-05
5.22077e-07
8.8574e-05
5.20679e-07
8.86075e-05
5.1527e-07
8.86405e-05
5.06631e-07
8.86728e-05
4.95424e-07
8.87046e-05
4.82201e-07
8.87357e-05
4.67423e-07
8.87664e-05
4.51474e-07
8.87965e-05
4.34669e-07
8.88262e-05
4.17269e-07
8.88556e-05
3.99483e-07
8.88847e-05
3.81479e-07
8.89137e-05
3.63389e-07
8.89426e-05
3.45304e-07
8.89717e-05
3.27283e-07
8.9001e-05
3.09337e-07
8.90307e-05
2.91425e-07
8.9061e-05
2.73433e-07
8.90922e-05
2.55169e-07
8.91242e-05
2.36329e-07
8.91571e-05
2.16546e-07
8.91907e-05
1.95353e-07
1.72472e-07
8.92244e-05
9.07727e-05
4.43704e-08
9.07827e-05
1.36128e-07
9.0801e-05
2.21441e-07
9.08252e-05
2.93412e-07
9.08538e-05
3.52228e-07
9.08853e-05
3.98456e-07
9.09184e-05
4.3313e-07
9.09524e-05
4.5795e-07
9.09869e-05
4.74462e-07
9.10215e-05
4.83988e-07
9.10558e-05
4.87716e-07
9.10898e-05
4.86674e-07
9.11234e-05
4.8173e-07
9.11564e-05
4.73621e-07
9.11888e-05
4.62974e-07
9.12207e-05
4.50314e-07
9.12521e-05
4.36081e-07
9.12829e-05
4.20642e-07
9.13133e-05
4.04298e-07
9.13432e-05
3.87298e-07
9.13729e-05
3.6984e-07
9.14023e-05
3.52082e-07
9.14315e-05
3.34143e-07
9.14607e-05
3.16103e-07
9.149e-05
2.98006e-07
9.15195e-05
2.79852e-07
9.15493e-05
2.61594e-07
9.15796e-05
2.43126e-07
9.16105e-05
2.24284e-07
9.1642e-05
2.04838e-07
9.1674e-05
1.84526e-07
9.17063e-05
1.63062e-07
1.40314e-07
9.17385e-05
9.33669e-05
4.20991e-08
9.33768e-05
1.26213e-07
9.33943e-05
2.03952e-07
9.34175e-05
2.70256e-07
9.34449e-05
3.24819e-07
9.34753e-05
3.68096e-07
9.35075e-05
4.00898e-07
9.35409e-05
4.24583e-07
9.35748e-05
4.40487e-07
9.3609e-05
4.49793e-07
9.36432e-05
4.53576e-07
9.36771e-05
4.52777e-07
9.37106e-05
4.48204e-07
9.37437e-05
4.40547e-07
9.37762e-05
4.30396e-07
9.38083e-05
4.18247e-07
9.38399e-05
4.04517e-07
9.3871e-05
3.89555e-07
9.39016e-05
3.73648e-07
9.39319e-05
3.57031e-07
9.39618e-05
3.39891e-07
9.39915e-05
3.22377e-07
9.40211e-05
3.04596e-07
9.40506e-05
2.86621e-07
9.40801e-05
2.68489e-07
9.41097e-05
2.50194e-07
9.41396e-05
2.31694e-07
9.41699e-05
2.12901e-07
9.42005e-05
1.93685e-07
9.42314e-05
1.73883e-07
9.42626e-05
1.5332e-07
9.42938e-05
1.31832e-07
1.09381e-07
9.43248e-05
9.60348e-05
3.9377e-08
9.60446e-05
1.16438e-07
9.60613e-05
1.8723e-07
9.60835e-05
2.48093e-07
9.61098e-05
2.98489e-07
9.61391e-05
3.38753e-07
9.61705e-05
3.69536e-07
9.62032e-05
3.91925e-07
9.62366e-05
4.07065e-07
9.62704e-05
4.16007e-07
9.63042e-05
4.19713e-07
9.6338e-05
4.19043e-07
9.63714e-05
4.14742e-07
9.64045e-05
4.07454e-07
9.64372e-05
3.97728e-07
9.64694e-05
3.86032e-07
9.65012e-05
3.72759e-07
9.65325e-05
3.58238e-07
9.65634e-05
3.4274e-07
9.65939e-05
3.26487e-07
9.66242e-05
3.09658e-07
9.66542e-05
2.92389e-07
9.6684e-05
2.74781e-07
9.67137e-05
2.56902e-07
9.67434e-05
2.38783e-07
9.67732e-05
2.20424e-07
9.68031e-05
2.0179e-07
9.68332e-05
1.82815e-07
9.68634e-05
1.63407e-07
9.68939e-05
1.43456e-07
9.69243e-05
1.22856e-07
9.69546e-05
1.01522e-07
7.94773e-08
9.69845e-05
9.87787e-05
3.64318e-08
9.87883e-05
1.06855e-07
9.88043e-05
1.71211e-07
9.88255e-05
2.2685e-07
9.88508e-05
2.73168e-07
9.88792e-05
3.10388e-07
9.89097e-05
3.39038e-07
9.89416e-05
3.59992e-07
9.89745e-05
3.74227e-07
9.90078e-05
3.82667e-07
9.90414e-05
3.86172e-07
9.90749e-05
3.8552e-07
9.91082e-05
3.81396e-07
9.91413e-05
3.74394e-07
9.9174e-05
3.65024e-07
9.92063e-05
3.53722e-07
9.92382e-05
3.40859e-07
9.92697e-05
3.26742e-07
9.93008e-05
3.11627e-07
9.93316e-05
2.95723e-07
9.9362e-05
2.79198e-07
9.93922e-05
2.62181e-07
9.94223e-05
2.44766e-07
9.94521e-05
2.27018e-07
9.9482e-05
2.08969e-07
9.95118e-05
1.90624e-07
9.95416e-05
1.71962e-07
9.95715e-05
1.52939e-07
9.96014e-05
1.33494e-07
9.96313e-05
1.13563e-07
9.9661e-05
9.3091e-08
9.96905e-05
7.20448e-08
5.04798e-08
9.97195e-05
0.000101601
3.34033e-08
0.00010161
9.75048e-08
0.000101626
1.55838e-07
0.000101646
2.06459e-07
0.00010167
2.48785e-07
0.000101698
2.82949e-07
0.000101727
3.09376e-07
0.000101759
3.2878e-07
0.000101791
3.41984e-07
0.000101824
3.49798e-07
0.000101857
3.52988e-07
0.00010189
3.52252e-07
0.000101923
3.48213e-07
0.000101956
3.41417e-07
0.000101989
3.32336e-07
0.000102021
3.21374e-07
0.000102053
3.08876e-07
0.000102085
2.95129e-07
0.000102116
2.80374e-07
0.000102147
2.64807e-07
0.000102178
2.48585e-07
0.000102208
2.31831e-07
0.000102238
2.14635e-07
0.000102268
1.97059e-07
0.000102298
1.79139e-07
0.000102328
1.60888e-07
0.000102357
1.42297e-07
0.000102387
1.23344e-07
0.000102416
1.03997e-07
0.000102446
8.42251e-08
0.000102475
6.40089e-08
0.000102504
4.33493e-08
2.23196e-08
0.000102532
0.000104503
3.03732e-08
0.000104513
8.84143e-08
0.000104527
1.4106e-07
0.000104547
1.86855e-07
0.00010457
2.25273e-07
0.000104597
2.56381e-07
0.000104626
2.80521e-07
0.000104656
2.98275e-07
0.000104688
3.10339e-07
0.00010472
3.17418e-07
0.000104753
3.20186e-07
0.000104786
3.1927e-07
0.000104819
3.15231e-07
0.000104852
3.08568e-07
0.000104885
2.99713e-07
0.000104917
2.8904e-07
0.000104949
2.76866e-07
0.000104981
2.63461e-07
0.000105012
2.49048e-07
0.000105043
2.3381e-07
0.000105074
2.17896e-07
0.000105104
2.01422e-07
0.000105134
1.84474e-07
0.000105164
1.67116e-07
0.000105194
1.49386e-07
0.000105223
1.31305e-07
0.000105253
1.1288e-07
0.000105282
9.41037e-08
0.000105311
7.49687e-08
0.00010534
5.54689e-08
0.000105368
3.56107e-08
0.000105396
1.54154e-08
-5.03548e-09
0.000105424
0.000107489
2.73877e-08
0.000107498
7.95957e-08
0.000107512
1.26833e-07
0.000107531
1.67975e-07
0.000107554
2.02568e-07
0.000107579
2.30629e-07
0.000107607
2.52433e-07
0.000107637
2.68457e-07
0.000107668
2.79287e-07
0.0001077
2.85532e-07
0.000107733
2.87784e-07
0.000107765
2.86599e-07
0.000107798
2.82482e-07
0.000107831
2.75884e-07
0.000107863
2.67198e-07
0.000107895
2.56768e-07
0.000107927
2.44884e-07
0.000107959
2.31796e-07
0.00010799
2.17711e-07
0.000108021
2.02801e-07
0.000108052
1.87204e-07
0.000108083
1.71031e-07
0.000108113
1.54366e-07
0.000108143
1.37273e-07
0.000108172
1.19795e-07
0.000108201
1.0196e-07
0.000108231
8.37858e-08
0.000108259
6.52823e-08
0.000108288
4.64582e-08
0.000108316
2.73262e-08
0.000108344
7.90942e-09
0.000108371
-1.17581e-08
-3.15926e-08
0.000108397
0.00011056
2.44706e-08
0.000110568
7.10512e-08
0.000110582
1.13114e-07
0.0001106
1.49761e-07
0.000110622
1.80607e-07
0.000110647
2.05638e-07
0.000110675
2.25072e-07
0.000110704
2.393e-07
0.000110734
2.48814e-07
0.000110766
2.54138e-07
0.000110798
2.55789e-07
0.00011083
2.54256e-07
0.000110862
2.49991e-07
0.000110895
2.43396e-07
0.000110927
2.3483e-07
0.000110959
2.24601e-07
0.000110991
2.12978e-07
0.000111023
2.00189e-07
0.000111054
1.86425e-07
0.000111085
1.71845e-07
0.000111116
1.5658e-07
0.000111146
1.40734e-07
0.000111176
1.2439e-07
0.000111206
1.07611e-07
0.000111235
9.04456e-08
0.000111264
7.29283e-08
0.000111293
5.50858e-08
0.000111321
3.69402e-08
0.000111349
1.85133e-08
0.000111377
-1.69335e-10
0.000111404
-1.90739e-08
0.00011143
-3.81593e-08
-5.73425e-08
0.000111456
0.000113718
2.16328e-08
0.000113727
6.27753e-08
0.00011374
9.98628e-08
0.000113757
1.32157e-07
0.000113779
1.59332e-07
0.000113803
1.81354e-07
0.00011383
1.98394e-07
0.000113858
2.10773e-07
0.000113888
2.18902e-07
0.000113919
2.2323e-07
0.000113951
2.24204e-07
0.000113983
2.22254e-07
0.000114015
2.17776e-07
0.000114047
2.11132e-07
0.000114079
2.0264e-07
0.000114111
1.92579e-07
0.000114143
1.81193e-07
0.000114175
1.6869e-07
0.000114206
1.55244e-07
0.000114237
1.41003e-07
0.000114267
1.26088e-07
0.000114297
1.10599e-07
0.000114327
9.46166e-08
0.000114356
7.82034e-08
0.000114385
6.14107e-08
0.000114414
4.42791e-08
0.000114442
2.68428e-08
0.00011447
9.13263e-09
0.000114498
-8.82047e-09
0.000114524
-2.69823e-08
0.000114551
-4.53126e-08
0.000114576
-6.37668e-08
-8.22647e-08
0.000114601
0.000116967
1.88773e-08
0.000116975
5.47568e-08
0.000116988
8.70424e-08
0.000117005
1.15111e-07
0.000117026
1.38686e-07
0.000117049
1.57722e-07
0.000117075
1.72352e-07
0.000117103
1.82839e-07
0.000117133
1.89525e-07
0.000117163
1.92792e-07
0.000117194
1.93025e-07
0.000117226
1.90596e-07
0.000117258
1.85852e-07
0.00011729
1.79111e-07
0.000117322
1.70656e-07
0.000117354
1.60737e-07
0.000117385
1.4957e-07
0.000117417
1.37345e-07
0.000117448
1.2422e-07
0.000117478
1.10331e-07
0.000117509
9.57903e-08
0.000117539
8.06918e-08
0.000117568
6.51127e-08
0.000117597
4.91164e-08
0.000117626
3.27558e-08
0.000117654
1.60755e-08
0.000117682
-8.85116e-10
0.000117709
-1.8089e-08
0.000117736
-3.5499e-08
0.000117762
-5.30758e-08
0.000117787
-7.07756e-08
0.000117812
-8.85529e-08
-1.06331e-07
0.000117836
0.000120309
1.62025e-08
0.000120316
4.69807e-08
0.000120329
7.46159e-08
0.000120345
9.85721e-08
0.000120366
1.18611e-07
0.000120389
1.34686e-07
0.000120414
1.46895e-07
0.000120441
1.55457e-07
0.00012047
1.60653e-07
0.0001205
1.62805e-07
0.000120531
1.62241e-07
0.000120562
1.59281e-07
0.000120594
1.54224e-07
0.000120626
1.47348e-07
0.000120657
1.38902e-07
0.000120689
1.29103e-07
0.000120721
1.18145e-07
0.000120752
1.06197e-07
0.000120783
9.34014e-08
0.000120813
7.98819e-08
0.000120843
6.57423e-08
0.000120873
5.10701e-08
0.000120902
3.5939e-08
0.000120931
2.04115e-08
0.000120959
4.54114e-09
0.000120986
-1.16252e-08
0.000121014
-2.80445e-08
0.00012104
-4.46762e-08
0.000121066
-6.14793e-08
0.000121091
-7.84117e-08
0.000121116
-9.54285e-08
0.00012114
-1.12484e-07
-1.29507e-07
0.000121163
0.000123746
1.36042e-08
0.000123753
3.94301e-08
0.000123765
6.25486e-08
0.000123781
8.24916e-08
0.000123801
9.90546e-08
0.000123824
1.1219e-07
0.000123848
1.21974e-07
0.000123875
1.28583e-07
0.000123904
1.32248e-07
0.000123933
1.33239e-07
0.000123964
1.31832e-07
0.000123995
1.28299e-07
0.000124026
1.22891e-07
0.000124058
1.15852e-07
0.000124089
1.07391e-07
0.00012412
9.76998e-08
0.000124152
8.69468e-08
0.000124183
7.52804e-08
0.000124213
6.28284e-08
0.000124243
4.97015e-08
0.000124273
3.5994e-08
0.000124302
2.1787e-08
0.000124331
7.15008e-09
0.000124359
-7.85632e-09
0.000124387
-2.31792e-08
0.000124414
-3.87707e-08
0.000124441
-5.45863e-08
0.000124467
-7.05834e-08
0.000124492
-8.67196e-08
0.000124516
-1.02952e-07
0.00012454
-1.19235e-07
0.000124563
-1.35526e-07
-1.51757e-07
0.000124586
0.000127281
1.1077e-08
0.000127288
3.20859e-08
0.0001273
5.08046e-08
0.000127316
6.68201e-08
0.000127335
7.99572e-08
0.000127357
9.01732e-08
0.000127381
9.75271e-08
0.000127408
1.02165e-07
0.000127436
1.04266e-07
0.000127465
1.0406e-07
0.000127495
1.01775e-07
0.000127526
9.76336e-08
0.000127557
9.18459e-08
0.000127588
8.4623e-08
0.000127619
7.61361e-08
0.00012765
6.6546e-08
0.000127681
5.60002e-08
0.000127712
4.46268e-08
0.000127742
3.25375e-08
0.000127772
1.98304e-08
0.000127802
6.5898e-09
0.00012783
-7.11034e-09
0.000127859
-2.12053e-08
0.000127887
-3.56377e-08
0.000127914
-5.03563e-08
0.00012794
-6.53136e-08
0.000127966
-8.04652e-08
0.000127991
-9.57682e-08
0.000128016
-1.1118e-07
0.00012804
-1.26658e-07
0.000128062
-1.42159e-07
0.000128085
-1.57641e-07
-1.7304e-07
0.000128106
0.000130917
8.61627e-09
0.000130924
2.49329e-08
0.000130936
3.93556e-08
0.000130951
5.15166e-08
0.00013097
6.12694e-08
0.000130992
6.85805e-08
0.000131016
7.34987e-08
0.000131042
7.61465e-08
0.000131069
7.66526e-08
0.000131098
7.52172e-08
0.000131128
7.20259e-08
0.000131158
6.72547e-08
0.000131189
6.10639e-08
0.00013122
5.36476e-08
0.000131251
4.51297e-08
0.000131282
3.56447e-08
0.000131313
2.53172e-08
0.000131343
1.42551e-08
0.000131373
2.55374e-09
0.000131402
-9.70052e-09
0.000131431
-2.24351e-08
0.00013146
-3.55833e-08
0.000131488
-4.90863e-08
0.000131515
-6.28907e-08
0.000131542
-7.69479e-08
0.000131568
-9.12124e-08
0.000131593
-1.05641e-07
0.000131617
-1.20192e-07
0.000131641
-1.34823e-07
0.000131664
-1.49494e-07
0.000131686
-1.64163e-07
0.000131707
-1.78792e-07
-1.93322e-07
0.000131727
0.000134658
6.21218e-09
0.000134665
1.79458e-08
0.000134676
2.81575e-08
0.000134691
3.65196e-08
0.000134709
4.29169e-08
0.00013473
4.7332e-08
0.000134754
4.98097e-08
0.00013478
5.04635e-08
0.000134807
4.93527e-08
0.000134836
4.66686e-08
0.000134865
4.25508e-08
0.000134895
3.71292e-08
0.000134926
3.05235e-08
0.000134956
2.29273e-08
0.000134987
1.43733e-08
0.000135018
5.00215e-09
0.000135048
-5.09058e-09
0.000135078
-1.58181e-08
0.000135108
-2.70995e-08
0.000135137
-3.88648e-08
0.000135166
-5.10505e-08
0.000135194
-6.35992e-08
0.000135221
-7.64584e-08
0.000135248
-8.95798e-08
0.000135274
-1.02918e-07
0.000135299
-1.16432e-07
0.000135323
-1.30079e-07
0.000135347
-1.4382e-07
0.00013537
-1.57615e-07
0.000135392
-1.71427e-07
0.000135413
-1.85215e-07
0.000135433
-1.98945e-07
-2.12561e-07
0.000135452
0.000138505
3.87683e-09
0.000138511
1.11405e-08
0.000138522
1.72219e-08
0.000138537
2.18248e-08
0.000138555
2.48738e-08
0.000138576
2.63789e-08
0.000138599
2.63973e-08
0.000138625
2.50249e-08
0.000138652
2.22418e-08
0.00013868
1.83071e-08
0.00013871
1.32676e-08
0.00013874
7.20704e-09
0.00013877
1.08769e-10
0.0001388
-7.59992e-09
0.000138831
-1.61756e-08
0.000138861
-2.5407e-08
0.000138892
-3.52376e-08
0.000138921
-4.55962e-08
0.000138951
-5.64193e-08
0.000138979
-6.76512e-08
0.000139008
-7.92397e-08
0.000139035
-9.11365e-08
0.000139062
-1.03297e-07
0.000139088
-1.15677e-07
0.000139113
-1.28239e-07
0.000139138
-1.40941e-07
0.000139162
-1.53748e-07
0.000139184
-1.66622e-07
0.000139206
-1.79526e-07
0.000139227
-1.92426e-07
0.000139247
-2.05284e-07
0.000139267
-2.18069e-07
-2.3073e-07
0.000139285
0.000142462
1.55093e-09
0.000142468
4.42439e-09
0.000142479
6.42745e-09
0.000142494
7.29865e-09
0.000142511
7.00929e-09
0.000142532
5.59335e-09
0.000142556
3.1493e-09
0.000142581
-1.1159e-10
0.000142608
-4.67601e-09
0.000142636
-9.88142e-09
0.000142665
-1.58811e-08
0.000142695
-2.25983e-08
0.000142725
-2.99965e-08
0.000142755
-3.7964e-08
0.000142786
-4.65254e-08
0.000142816
-5.55975e-08
0.000142846
-6.51306e-08
0.000142875
-7.50802e-08
0.000142904
-8.54017e-08
0.000142932
-9.60526e-08
0.00014296
-1.06993e-07
0.000142987
-1.18183e-07
0.000143014
-1.29587e-07
0.000143039
-1.41169e-07
0.000143064
-1.52893e-07
0.000143087
-1.64725e-07
0.00014311
-1.76632e-07
0.000143132
-1.88581e-07
0.000143153
-2.00538e-07
0.000143173
-2.12471e-07
0.000143192
-2.24347e-07
0.000143211
-2.36138e-07
-2.47796e-07
0.000143228
0.000146531
-5.73478e-10
0.000146538
-1.94465e-09
0.000146548
-3.98393e-09
0.000146562
-6.90825e-09
0.00014658
-1.06398e-08
0.000146601
-1.50602e-08
0.000146624
-2.00703e-08
0.000146649
-2.55909e-08
0.000146676
-3.16757e-08
0.000146705
-3.81549e-08
0.000146734
-4.50676e-08
0.000146764
-5.24032e-08
0.000146794
-6.01566e-08
0.000146824
-6.82821e-08
0.000146854
-7.67824e-08
0.000146884
-8.56375e-08
0.000146914
-9.48206e-08
0.000146943
-1.04307e-07
0.000146972
-1.14068e-07
0.000147
-1.24078e-07
0.000147027
-1.34308e-07
0.000147054
-1.4473e-07
0.00014708
-1.55315e-07
0.000147105
-1.66034e-07
0.000147129
-1.76857e-07
0.000147152
-1.87757e-07
0.000147174
-1.98704e-07
0.000147195
-2.09668e-07
0.000147215
-2.20621e-07
0.000147234
-2.31535e-07
0.000147252
-2.42379e-07
0.000147269
-2.53129e-07
-2.63743e-07
0.000147285
0.000150718
-3.04648e-09
0.000150725
-8.56928e-09
0.000150735
-1.45211e-08
0.000150749
-2.11037e-08
0.000150767
-2.81801e-08
0.000150788
-3.55695e-08
0.000150811
-4.31354e-08
0.000150836
-5.07734e-08
0.000150863
-5.85109e-08
0.000150891
-6.63021e-08
0.00015092
-7.41647e-08
0.00015095
-8.21326e-08
0.00015098
-9.02361e-08
0.00015101
-9.84882e-08
0.00015104
-1.06914e-07
0.00015107
-1.15524e-07
0.000151099
-1.24319e-07
0.000151128
-1.33296e-07
0.000151157
-1.42447e-07
0.000151184
-1.51761e-07
0.000151211
-1.61222e-07
0.000151237
-1.70813e-07
0.000151263
-1.80515e-07
0.000151287
-1.90307e-07
0.00015131
-2.00166e-07
0.000151333
-2.10069e-07
0.000151354
-2.19992e-07
0.000151374
-2.2991e-07
0.000151393
-2.39799e-07
0.000151411
-2.49634e-07
0.000151428
-2.59389e-07
0.000151444
-2.69041e-07
-2.78555e-07
0.000151459
0.000155023
-4.314e-09
0.000155028
-1.38542e-08
0.000155038
-2.41017e-08
0.000155052
-3.49971e-08
0.000155069
-4.60011e-08
0.000155091
-5.67451e-08
0.000155115
-6.70498e-08
0.000155141
-7.68614e-08
0.000155168
-8.62323e-08
0.000155197
-9.52142e-08
0.000155227
-1.03889e-07
0.000155257
-1.12348e-07
0.000155288
-1.20672e-07
0.000155318
-1.28923e-07
0.000155348
-1.37156e-07
0.000155378
-1.45411e-07
0.000155408
-1.53717e-07
0.000155436
-1.62091e-07
0.000155465
-1.70544e-07
0.000155492
-1.79078e-07
0.000155518
-1.87692e-07
0.000155544
-1.96377e-07
0.000155568
-2.05124e-07
0.000155592
-2.13918e-07
0.000155615
-2.22745e-07
0.000155636
-2.31586e-07
0.000155657
-2.40423e-07
0.000155676
-2.49236e-07
0.000155694
-2.58004e-07
0.000155711
-2.66707e-07
0.000155727
-2.75324e-07
0.000155742
-2.83836e-07
-2.9221e-07
0.000155756
0.000159454
-8.20469e-09
0.000159462
-2.0959e-08
0.000159472
-3.44036e-08
0.000159485
-4.85358e-08
0.000159502
-6.28738e-08
0.000159522
-7.6817e-08
0.000159545
-8.99592e-08
0.000159571
-1.02137e-07
0.000159598
-1.13369e-07
0.000159626
-1.23748e-07
0.000159656
-1.33405e-07
0.000159686
-1.4248e-07
0.000159716
-1.51107e-07
0.000159747
-1.59398e-07
0.000159777
-1.6745e-07
0.000159807
-1.75338e-07
0.000159836
-1.83124e-07
0.000159865
-1.90849e-07
0.000159893
-1.98547e-07
0.00015992
-2.06237e-07
0.000159947
-2.13932e-07
0.000159972
-2.21637e-07
0.000159996
-2.29352e-07
0.000160019
-2.37073e-07
0.000160041
-2.44791e-07
0.000160062
-2.52494e-07
0.000160082
-2.60171e-07
0.000160101
-2.67806e-07
0.000160118
-2.75383e-07
0.000160134
-2.82886e-07
0.000160149
-2.90298e-07
0.000160163
-2.97601e-07
-3.0477e-07
0.000160175
0.000164003
-5.5716e-09
0.000164005
-2.27719e-08
0.000164013
-4.26062e-08
0.000164028
-6.31386e-08
0.000164048
-8.26959e-08
0.000164072
-1.00523e-07
0.000164098
-1.16456e-07
0.000164127
-1.30602e-07
0.000164156
-1.43175e-07
0.000164187
-1.5441e-07
0.000164218
-1.64541e-07
0.00016425
-1.73788e-07
0.000164281
-1.82341e-07
0.000164312
-1.9036e-07
0.000164342
-1.97974e-07
0.000164372
-2.05287e-07
0.000164401
-2.1238e-07
0.00016443
-2.19315e-07
0.000164457
-2.26139e-07
0.000164484
-2.32883e-07
0.00016451
-2.39571e-07
0.000164534
-2.46218e-07
0.000164558
-2.52832e-07
0.00016458
-2.59414e-07
0.000164601
-2.65962e-07
0.000164621
-2.72472e-07
0.00016464
-2.78936e-07
0.000164658
-2.85343e-07
0.000164674
-2.91682e-07
0.000164689
-2.97941e-07
0.000164703
-3.04107e-07
0.000164715
-3.10168e-07
-3.161e-07
0.000164727
0.000168701
-1.50301e-08
0.000168709
-3.08639e-08
0.000168717
-5.03812e-08
0.000168727
-7.28187e-08
0.00016874
-9.63879e-08
0.000168759
-1.1877e-07
0.000168781
-1.38764e-07
0.000168807
-1.56157e-07
0.000168835
-1.71171e-07
0.000168864
-1.84135e-07
0.000168895
-1.95394e-07
0.000168927
-2.05272e-07
0.000168958
-2.14054e-07
0.00016899
-2.21979e-07
0.000169021
-2.2924e-07
0.000169052
-2.35994e-07
0.000169082
-2.42362e-07
0.000169111
-2.48439e-07
0.000169139
-2.54297e-07
0.000169166
-2.59992e-07
0.000169192
-2.65561e-07
0.000169217
-2.71034e-07
0.000169241
-2.76428e-07
0.000169263
-2.81756e-07
0.000169284
-2.87024e-07
0.000169304
-2.92232e-07
0.000169322
-2.9738e-07
0.000169339
-3.02461e-07
0.000169355
-3.07469e-07
0.00016937
-3.12396e-07
0.000169383
-3.17232e-07
0.000169395
-3.21968e-07
-3.26586e-07
0.000169405
0.000173491
5.09076e-09
0.000173485
-2.45001e-08
0.000173495
-6.01517e-08
0.000173516
-9.4303e-08
0.000173544
-1.24405e-07
0.000173575
-1.49878e-07
0.000173608
-1.71356e-07
0.000173641
-1.89419e-07
0.000173675
-2.04627e-07
0.000173708
-2.17481e-07
0.000173741
-2.28424e-07
0.000173773
-2.37841e-07
0.000173805
-2.4605e-07
0.000173837
-2.53304e-07
0.000173867
-2.59809e-07
0.000173897
-2.65728e-07
0.000173926
-2.71191e-07
0.000173954
-2.76297e-07
0.000173981
-2.81126e-07
0.000174006
-2.85737e-07
0.000174031
-2.90176e-07
0.000174054
-2.94475e-07
0.000174077
-2.9866e-07
0.000174098
-3.02748e-07
0.000174117
-3.06749e-07
0.000174136
-3.1067e-07
0.000174153
-3.14513e-07
0.000174169
-3.18279e-07
0.000174183
-3.21963e-07
0.000174196
-3.25563e-07
0.000174208
-3.29072e-07
0.000174219
-3.32485e-07
-3.35785e-07
0.000174228
0.000178498
-2.43132e-08
0.0001785
-2.69799e-08
0.000178489
-4.91235e-08
0.000178481
-8.55414e-08
0.000178483
-1.26799e-07
0.000178497
-1.63369e-07
0.000178518
-1.93178e-07
0.000178546
-2.16905e-07
0.000178577
-2.35879e-07
0.000178611
-2.51094e-07
0.000178646
-2.63351e-07
0.000178681
-2.73313e-07
0.000178717
-2.81507e-07
0.000178752
-2.88344e-07
0.000178786
-2.94139e-07
0.000178819
-2.99137e-07
0.000178852
-3.03525e-07
0.000178883
-3.07444e-07
0.000178913
-3.11002e-07
0.000178941
-3.14282e-07
0.000178968
-3.17344e-07
0.000178994
-3.20234e-07
0.000179018
-3.22985e-07
0.000179041
-3.25623e-07
0.000179063
-3.28162e-07
0.000179083
-3.30616e-07
0.000179101
-3.3299e-07
0.000179118
-3.35289e-07
0.000179134
-3.37514e-07
0.000179148
-3.39664e-07
0.000179161
-3.41736e-07
0.000179172
-3.43731e-07
-3.45635e-07
0.000179182
0.000183487
5.64964e-08
0.000183465
-5.00315e-09
0.000183501
-8.50419e-08
0.000183553
-1.37673e-07
0.000183604
-1.77991e-07
0.00018365
-2.09375e-07
0.000183691
-2.34376e-07
0.000183729
-2.54825e-07
0.000183765
-2.71444e-07
0.000183798
-2.84927e-07
0.000183831
-2.95931e-07
0.000183863
-3.04967e-07
0.000183894
-3.12428e-07
0.000183924
-3.1863e-07
0.000183954
-3.23825e-07
0.000183983
-3.28211e-07
0.000184011
-3.31947e-07
0.000184039
-3.35155e-07
0.000184066
-3.37935e-07
0.000184092
-3.40365e-07
0.000184117
-3.42506e-07
0.000184141
-3.44407e-07
0.000184164
-3.46105e-07
0.000184186
-3.4763e-07
0.000184207
-3.49005e-07
0.000184227
-3.50248e-07
0.000184245
-3.51373e-07
0.000184262
-3.52388e-07
0.000184278
-3.53302e-07
0.000184292
-3.54116e-07
0.000184305
-3.54833e-07
0.000184317
-3.55452e-07
-3.55971e-07
0.000184328
0.000188861
7.60655e-09
0.000188796
6.00254e-08
0.00018871
5.05961e-10
0.000188647
-7.40035e-08
0.000188628
-1.59601e-07
0.000188642
-2.22935e-07
0.000188674
-2.66629e-07
0.000188717
-2.97649e-07
0.000188766
-3.20212e-07
0.000188818
-3.3691e-07
0.000188871
-3.49378e-07
0.000188925
-3.58742e-07
0.000188978
-3.65799e-07
0.000189031
-3.71118e-07
0.000189082
-3.75112e-07
0.000189132
-3.78082e-07
0.00018918
-3.80254e-07