/*--------------------------------*- C++ -*----------------------------------*\
| =========                 |                                                 |
| \\      /  F ield         | OpenFOAM: The Open Source CFD Toolbox           |
|  \\    /   O peration     | Version:  2.1.1                                 |
|   \\  /    A nd           | Web:      www.OpenFOAM.org                      |
|    \\/     M anipulation  |                                                 |
\*---------------------------------------------------------------------------*/
FoamFile
{
    version     2.0;
    format      ascii;
    class       volVectorField;
    location    "0.155";
    object      U;
}
// * * * * * * * * * * * * * * * * * * * * * * * * * * * * * * * * * * * * * //

dimensions      [0 1 -1 0 0 0 0];

internalField   nonuniform List<vector> 
6820
(
(8.34337 -0.360077 0)
(8.4011 -0.247155 0)
(8.35611 -0.115296 0)
(8.24782 -0.0365617 0)
(8.11939 0.0060017 0)
(7.98598 0.027861 0)
(7.85391 0.0386281 0)
(7.72654 0.0433252 0)
(7.60531 0.0445938 0)
(7.49076 0.0438908 0)
(7.38311 0.0420577 0)
(7.2824 0.0395989 0)
(7.18851 0.0368257 0)
(7.10122 0.0339335 0)
(7.02026 0.0310462 0)
(6.9453 0.0282411 0)
(6.87601 0.0255656 0)
(6.81201 0.0230466 0)
(6.75295 0.0206975 0)
(6.69847 0.0185229 0)
(6.64822 0.0165217 0)
(6.60188 0.0146897 0)
(6.55912 0.0130214 0)
(6.51964 0.0115124 0)
(6.48312 0.010161 0)
(6.44927 0.00897325 0)
(6.41775 0.0079671 0)
(6.38815 0.00719465 0)
(6.35999 0.00675878 0)
(6.33232 0.00693016 0)
(6.30363 0.00852161 0)
(6.27079 0.0123492 0)
(6.22472 0.0292841 0)
(8.32139 0.16625 0)
(8.28709 0.190001 0)
(8.28544 0.132153 0)
(8.3174 0.0958497 0)
(8.3617 0.07501 0)
(8.40176 0.0623445 0)
(8.43286 0.0548577 0)
(8.45495 0.0503299 0)
(8.46889 0.0474199 0)
(8.47571 0.0454142 0)
(8.47641 0.0439178 0)
(8.47197 0.042693 0)
(8.46319 0.0416006 0)
(8.45082 0.0405635 0)
(8.43548 0.0395411 0)
(8.41774 0.0385146 0)
(8.39807 0.0374777 0)
(8.3769 0.0364312 0)
(8.35458 0.0353798 0)
(8.33141 0.0343298 0)
(8.30766 0.0332886 0)
(8.28354 0.0322642 0)
(8.25922 0.0312659 0)
(8.23487 0.0303048 0)
(8.2106 0.029397 0)
(8.18652 0.0285662 0)
(8.16271 0.0278544 0)
(8.13922 0.0273352 0)
(8.11629 0.0271463 0)
(8.09367 0.0276142 0)
(8.07347 0.0291706 0)
(8.05323 0.033803 0)
(8.05325 0.0416293 0)
(8.3225 -0.0608855 0)
(8.31398 -0.0832822 0)
(8.33051 -0.0540977 0)
(8.34433 -0.0203017 0)
(8.3532 0.00240645 0)
(8.36223 0.0165301 0)
(8.37197 0.0257661 0)
(8.382 0.0319796 0)
(8.39186 0.0361942 0)
(8.40114 0.0390551 0)
(8.4096 0.0409568 0)
(8.41712 0.0421434 0)
(8.42363 0.0427885 0)
(8.42912 0.0430232 0)
(8.43361 0.0429467 0)
(8.43713 0.0426352 0)
(8.43975 0.042148 0)
(8.44152 0.0415313 0)
(8.44251 0.0408219 0)
(8.44279 0.0400489 0)
(8.44242 0.0392361 0)
(8.44147 0.0384034 0)
(8.44 0.0375684 0)
(8.43807 0.0367487 0)
(8.43573 0.0359645 0)
(8.43301 0.0352403 0)
(8.42999 0.0346185 0)
(8.42668 0.0341427 0)
(8.42321 0.0339539 0)
(8.41961 0.0340279 0)
(8.41639 0.0350335 0)
(8.41352 0.0352385 0)
(8.41235 0.0384482 0)
(8.33365 0.0145639 0)
(8.32977 0.0477 0)
(8.32737 0.053971 0)
(8.32871 0.0465563 0)
(8.3346 0.0410561 0)
(8.34213 0.0385498 0)
(8.34963 0.037736 0)
(8.35686 0.0376866 0)
(8.36385 0.0379004 0)
(8.37058 0.0381569 0)
(8.37701 0.0383574 0)
(8.38313 0.0384607 0)
(8.38892 0.0384569 0)
(8.39436 0.0383492 0)
(8.39944 0.0381458 0)
(8.40417 0.0378576 0)
(8.40854 0.0374965 0)
(8.41258 0.0370749 0)
(8.41629 0.0366046 0)
(8.4197 0.0360968 0)
(8.42281 0.0355624 0)
(8.42566 0.0350123 0)
(8.42826 0.0344578 0)
(8.43063 0.0339123 0)
(8.43279 0.0333928 0)
(8.43477 0.0329215 0)
(8.4366 0.0325337 0)
(8.4383 0.032271 0)
(8.43999 0.0322149 0)
(8.44171 0.0324068 0)
(8.44391 0.0330167 0)
(8.44664 0.0337685 0)
(8.45125 0.03504 0)
(8.3302 -0.00530993 0)
(8.32722 -0.00750655 0)
(8.33137 -0.00245076 0)
(8.33605 0.00803503 0)
(8.34012 0.0172072 0)
(8.34429 0.0234209 0)
(8.3487 0.0276004 0)
(8.35336 0.0305577 0)
(8.35818 0.032694 0)
(8.36306 0.0342414 0)
(8.3679 0.0353448 0)
(8.37266 0.0360986 0)
(8.37729 0.0365691 0)
(8.38179 0.0368078 0)
(8.38613 0.0368566 0)
(8.39031 0.0367511 0)
(8.39432 0.0365211 0)
(8.39817 0.036192 0)
(8.40185 0.0357853 0)
(8.40538 0.0353193 0)
(8.40876 0.0348102 0)
(8.41201 0.0342723 0)
(8.41513 0.0337199 0)
(8.41813 0.0331674 0)
(8.42104 0.0326318 0)
(8.42386 0.0321325 0)
(8.42662 0.0316972 0)
(8.42936 0.0313518 0)
(8.43217 0.0311465 0)
(8.43511 0.031064 0)
(8.43844 0.0311892 0)
(8.44225 0.031102 0)
(8.4469 0.0309864 0)
(8.33238 0.00228733 0)
(8.33118 0.0133125 0)
(8.33279 0.0204007 0)
(8.33549 0.0237917 0)
(8.33894 0.025943 0)
(8.34299 0.0277474 0)
(8.34721 0.0294191 0)
(8.35146 0.0309068 0)
(8.3557 0.0321298 0)
(8.35992 0.033077 0)
(8.3641 0.0337704 0)
(8.36821 0.0342377 0)
(8.37224 0.0345075 0)
(8.37618 0.0346084 0)
(8.38002 0.0345672 0)
(8.38377 0.0344073 0)
(8.3874 0.0341496 0)
(8.39094 0.0338121 0)
(8.39438 0.0334108 0)
(8.39772 0.0329594 0)
(8.40098 0.0324705 0)
(8.40415 0.0319555 0)
(8.40725 0.031426 0)
(8.41029 0.0308937 0)
(8.41328 0.0303718 0)
(8.41624 0.029875 0)
(8.4192 0.0294215 0)
(8.42219 0.0290256 0)
(8.42527 0.0287071 0)
(8.42852 0.0284406 0)
(8.43208 0.0282171 0)
(8.43604 0.0277963 0)
(8.4405 0.0271289 0)
(8.33232 0.000875584 0)
(8.33152 0.00579191 0)
(8.33341 0.010771 0)
(8.33644 0.0155717 0)
(8.33984 0.0199564 0)
(8.34349 0.0234645 0)
(8.34723 0.0261426 0)
(8.351 0.0281858 0)
(8.35479 0.0297305 0)
(8.35858 0.0308791 0)
(8.36234 0.0317085 0)
(8.36605 0.0322744 0)
(8.3697 0.0326199 0)
(8.37329 0.0327809 0)
(8.3768 0.0327877 0)
(8.38023 0.0326659 0)
(8.38359 0.0324376 0)
(8.38688 0.032122 0)
(8.39009 0.0317355 0)
(8.39324 0.0312924 0)
(8.39633 0.0308053 0)
(8.39936 0.0302856 0)
(8.40235 0.0297442 0)
(8.40531 0.0291915 0)
(8.40825 0.0286383 0)
(8.41118 0.0280949 0)
(8.41414 0.027572 0)
(8.41715 0.027074 0)
(8.42026 0.0266021 0)
(8.42354 0.0261225 0)
(8.42706 0.0255959 0)
(8.43086 0.024853 0)
(8.43495 0.0238023 0)
(8.33272 0.00171297 0)
(8.33255 0.00729819 0)
(8.33416 0.0125955 0)
(8.33675 0.0168622 0)
(8.33977 0.0203128 0)
(8.34315 0.0230355 0)
(8.3467 0.0251936 0)
(8.35029 0.0269204 0)
(8.35391 0.0282757 0)
(8.3575 0.0293058 0)
(8.36105 0.0300564 0)
(8.36455 0.0305678 0)
(8.36799 0.0308745 0)
(8.37136 0.0310072 0)
(8.37467 0.030993 0)
(8.37791 0.0308552 0)
(8.38109 0.0306142 0)
(8.3842 0.0302874 0)
(8.38725 0.02989 0)
(8.39026 0.0294351 0)
(8.39321 0.0289341 0)
(8.39613 0.0283972 0)
(8.39902 0.0278337 0)
(8.40188 0.0272519 0)
(8.40475 0.0266597 0)
(8.40762 0.0260632 0)
(8.41052 0.0254666 0)
(8.41349 0.0248675 0)
(8.41656 0.0242559 0)
(8.41976 0.0235972 0)
(8.42315 0.0228435 0)
(8.42673 0.0218818 0)
(8.43048 0.0206321 0)
(8.33284 0.00179247 0)
(8.33293 0.00647216 0)
(8.33442 0.0109923 0)
(8.33683 0.014887 0)
(8.33969 0.0182567 0)
(8.34287 0.0210529 0)
(8.34622 0.0233024 0)
(8.34964 0.0250884 0)
(8.35308 0.0264765 0)
(8.35651 0.0275248 0)
(8.35991 0.0282865 0)
(8.36326 0.0288058 0)
(8.36656 0.0291191 0)
(8.3698 0.0292575 0)
(8.37297 0.0292479 0)
(8.37609 0.0291131 0)
(8.37914 0.028873 0)
(8.38214 0.0285445 0)
(8.38508 0.028142 0)
(8.38798 0.0276781 0)
(8.39084 0.0271635 0)
(8.39367 0.0266074 0)
(8.39647 0.0260179 0)
(8.39926 0.0254016 0)
(8.40205 0.0247638 0)
(8.40486 0.0241076 0)
(8.40771 0.0234325 0)
(8.41061 0.0227317 0)
(8.4136 0.0219902 0)
(8.4167 0.0211756 0)
(8.41992 0.0202435 0)
(8.42328 0.0191173 0)
(8.42672 0.0177377 0)
(8.33294 0.00183488 0)
(8.33323 0.00615111 0)
(8.33462 0.0103686 0)
(8.33682 0.0140395 0)
(8.33946 0.0171801 0)
(8.34243 0.0197792 0)
(8.34559 0.0218771 0)
(8.34885 0.0235533 0)
(8.35214 0.0248677 0)
(8.35545 0.0258684 0)
(8.35873 0.0265994 0)
(8.36198 0.0270986 0)
(8.36517 0.0273987 0)
(8.36831 0.0275279 0)
(8.3714 0.0275113 0)
(8.37442 0.0273702 0)
(8.37739 0.0271232 0)
(8.38031 0.0267862 0)
(8.38318 0.026373 0)
(8.386 0.025895 0)
(8.38879 0.0253622 0)
(8.39155 0.0247827 0)
(8.39429 0.0241632 0)
(8.39702 0.0235088 0)
(8.39976 0.0228228 0)
(8.40251 0.0221055 0)
(8.40529 0.0213538 0)
(8.40812 0.0205585 0)
(8.41102 0.0197033 0)
(8.414 0.0187599 0)
(8.41707 0.0176918 0)
(8.42021 0.0164473 0)
(8.4234 0.0149875 0)
(8.33299 0.00179883 0)
(8.33338 0.00572613 0)
(8.33468 0.0095439 0)
(8.33671 0.0129167 0)
(8.33917 0.0158357 0)
(8.34195 0.0182929 0)
(8.34493 0.0203057 0)
(8.34803 0.0219262 0)
(8.35119 0.0232024 0)
(8.35436 0.0241766 0)
(8.35753 0.0248889 0)
(8.36067 0.0253752 0)
(8.36378 0.0256664 0)
(8.36683 0.0257894 0)
(8.36984 0.0257678 0)
(8.37279 0.0256218 0)
(8.37569 0.025369 0)
(8.37855 0.0250244 0)
(8.38135 0.0246008 0)
(8.38412 0.0241089 0)
(8.38686 0.0235577 0)
(8.38957 0.0229545 0)
(8.39226 0.0223047 0)
(8.39494 0.0216123 0)
(8.39762 0.0208786 0)
(8.40031 0.0201026 0)
(8.40303 0.0192795 0)
(8.40579 0.0183994 0)
(8.40859 0.0174469 0)
(8.41146 0.0163987 0)
(8.41437 0.0152264 0)
(8.41733 0.0138956 0)
(8.4203 0.0123826 0)
(8.33302 0.0017216 0)
(8.33346 0.00532401 0)
(8.33469 0.00881356 0)
(8.33656 0.0119343 0)
(8.33884 0.0146505 0)
(8.34144 0.0169523 0)
(8.34426 0.0188501 0)
(8.3472 0.0203842 0)
(8.35022 0.0215964 0)
(8.35327 0.0225245 0)
(8.35632 0.0232038 0)
(8.35936 0.0236664 0)
(8.36237 0.0239406 0)
(8.36535 0.0240509 0)
(8.36828 0.024019 0)
(8.37116 0.0238639 0)
(8.374 0.0236018 0)
(8.3768 0.0232466 0)
(8.37955 0.0228102 0)
(8.38227 0.0223025 0)
(8.38495 0.0217314 0)
(8.38762 0.0211032 0)
(8.39026 0.0204227 0)
(8.39289 0.0196924 0)
(8.39552 0.0189127 0)
(8.39816 0.0180815 0)
(8.40081 0.0171935 0)
(8.4035 0.0162392 0)
(8.40621 0.015205 0)
(8.40896 0.0140727 0)
(8.41173 0.0128213 0)
(8.41452 0.011428 0)
(8.41731 0.00987982 0)
(8.33303 0.00162022 0)
(8.33349 0.00492229 0)
(8.33465 0.008102 0)
(8.33638 0.0109692 0)
(8.33851 0.0134795 0)
(8.34094 0.0156225 0)
(8.3436 0.0174035 0)
(8.34639 0.0188511 0)
(8.34927 0.0199991 0)
(8.35219 0.0208795 0)
(8.35513 0.0215234 0)
(8.35807 0.0219594 0)
(8.36098 0.0222133 0)
(8.36387 0.0223078 0)
(8.36673 0.0222628 0)
(8.36954 0.022096 0)
(8.37232 0.0218223 0)
(8.37506 0.0214547 0)
(8.37776 0.0210039 0)
(8.38042 0.0204791 0)
(8.38306 0.0198873 0)
(8.38567 0.0192341 0)
(8.38826 0.0185232 0)
(8.39084 0.0177565 0)
(8.39342 0.0169336 0)
(8.396 0.0160521 0)
(8.39859 0.0151065 0)
(8.40119 0.0140886 0)
(8.40381 0.0129872 0)
(8.40644 0.0117883 0)
(8.40909 0.010477 0)
(8.41173 0.00903873 0)
(8.41435 0.00746714 0)
(8.33304 0.00150631 0)
(8.3335 0.00452858 0)
(8.33459 0.00742418 0)
(8.33619 0.0100517 0)
(8.33818 0.0123644 0)
(8.34046 0.0143493 0)
(8.34296 0.0160081 0)
(8.34561 0.0173613 0)
(8.34835 0.0184364 0)
(8.35115 0.0192609 0)
(8.35398 0.0198617 0)
(8.35681 0.0202646 0)
(8.35963 0.0204925 0)
(8.36244 0.0205662 0)
(8.36521 0.020504 0)
(8.36796 0.0203218 0)
(8.37066 0.0200334 0)
(8.37334 0.0196508 0)
(8.37598 0.0191837 0)
(8.37859 0.0186403 0)
(8.38117 0.018027 0)
(8.38373 0.0173485 0)
(8.38627 0.016608 0)
(8.38879 0.0158066 0)
(8.39131 0.0149437 0)
(8.39382 0.0140169 0)
(8.39634 0.0130211 0)
(8.39886 0.0119496 0)
(8.40138 0.0107935 0)
(8.4039 0.00954244 0)
(8.40642 0.00818629 0)
(8.40892 0.00671589 0)
(8.41139 0.00512929 0)
(8.33304 0.00138689 0)
(8.33349 0.00414372 0)
(8.33451 0.00677348 0)
(8.33601 0.00916984 0)
(8.33786 0.0112881 0)
(8.34 0.0131141 0)
(8.34236 0.0146469 0)
(8.34487 0.0159011 0)
(8.34748 0.0168984 0)
(8.35016 0.0176619 0)
(8.35287 0.0182151 0)
(8.3556 0.0185803 0)
(8.35833 0.0187781 0)
(8.36105 0.0188273 0)
(8.36374 0.0187443 0)
(8.36641 0.0185437 0)
(8.36905 0.0182381 0)
(8.37166 0.0178383 0)
(8.37423 0.0173533 0)
(8.37678 0.0167903 0)
(8.37931 0.0161551 0)
(8.38181 0.0154517 0)
(8.38429 0.0146827 0)
(8.38675 0.013849 0)
(8.3892 0.0129499 0)
(8.39164 0.0119831 0)
(8.39408 0.0109445 0)
(8.39651 0.00982855 0)
(8.39893 0.00862858 0)
(8.40135 0.00733736 0)
(8.40374 0.00594817 0)
(8.40612 0.00445556 0)
(8.40845 0.00286021 0)
(8.33304 0.00126612 0)
(8.33348 0.00376916 0)
(8.33443 0.0061487 0)
(8.33583 0.00832314 0)
(8.33756 0.010252 0)
(8.33958 0.0119199 0)
(8.3418 0.0133245 0)
(8.34418 0.0144755 0)
(8.34666 0.01539 0)
(8.34922 0.0160875 0)
(8.35183 0.0165878 0)
(8.35445 0.0169104 0)
(8.35709 0.0170737 0)
(8.35972 0.0170943 0)
(8.36233 0.0169871 0)
(8.36492 0.0167652 0)
(8.36748 0.01644 0)
(8.37002 0.0160211 0)
(8.37254 0.0155168 0)
(8.37502 0.0149335 0)
(8.37748 0.0142762 0)
(8.37991 0.0135486 0)
(8.38233 0.0127527 0)
(8.38473 0.0118895 0)
(8.3871 0.0109582 0)
(8.38947 0.0099568 0)
(8.39182 0.00888221 0)
(8.39416 0.00773017 0)
(8.39649 0.00649587 0)
(8.39879 0.00517443 0)
(8.40107 0.0037617 0)
(8.40332 0.00225472 0)
(8.40553 0.000655678 0)
(8.33304 0.00114641 0)
(8.33345 0.00340556 0)
(8.33435 0.00554761 0)
(8.33566 0.00750828 0)
(8.33728 0.00925179 0)
(8.33918 0.0107627 0)
(8.34127 0.0120371 0)
(8.34353 0.0130816 0)
(8.3459 0.0139093 0)
(8.34834 0.0145363 0)
(8.35084 0.0149794 0)
(8.35337 0.0152554 0)
(8.35591 0.0153803 0)
(8.35845 0.0153689 0)
(8.36098 0.0152345 0)
(8.36349 0.0149887 0)
(8.36598 0.0146418 0)
(8.36845 0.0142024 0)
(8.37089 0.0136778 0)
(8.37331 0.0130738 0)
(8.3757 0.0123949 0)
(8.37807 0.0116442 0)
(8.38041 0.0108236 0)
(8.38273 0.00993389 0)
(8.38504 0.00897451 0)
(8.38732 0.007944 0)
(8.38959 0.00683999 0)
(8.39183 0.00565948 0)
(8.39406 0.00439918 0)
(8.39625 0.00305601 0)
(8.39842 0.00162765 0)
(8.40055 0.00011278 0)
(8.40263 -0.00148553 0)
(8.33304 0.00102907 0)
(8.33343 0.00305317 0)
(8.33428 0.00496845 0)
(8.3355 0.00672285 0)
(8.33702 0.00828525 0)
(8.3388 0.0096405 0)
(8.34079 0.0107838 0)
(8.34293 0.0117191 0)
(8.34518 0.0124567 0)
(8.34752 0.0130093 0)
(8.34992 0.0133912 0)
(8.35234 0.0136167 0)
(8.35479 0.0136998 0)
(8.35724 0.0136533 0)
(8.35969 0.013489 0)
(8.36212 0.0132171 0)
(8.36454 0.0128467 0)
(8.36693 0.0123857 0)
(8.3693 0.0118403 0)
(8.37165 0.0112157 0)
(8.37397 0.0105159 0)
(8.37627 0.00974363 0)
(8.37854 0.00890071 0)
(8.38079 0.00798779 0)
(8.38301 0.00700466 0)
(8.38521 0.00595031 0)
(8.38739 0.00482312 0)
(8.38954 0.00362109 0)
(8.39166 0.00234218 0)
(8.39375 0.000984635 0)
(8.3958 -0.000452562 0)
(8.39782 -0.00196965 0)
(8.39978 -0.00356312 0)
(8.33303 0.000914739 0)
(8.33341 0.00271189 0)
(8.3342 0.00440952 0)
(8.33535 0.00596442 0)
(8.33678 0.00734962 0)
(8.33846 0.00855069 0)
(8.34034 0.00956221 0)
(8.34237 0.0103864 0)
(8.34452 0.0110308 0)
(8.34676 0.0115057 0)
(8.34905 0.011823 0)
(8.35138 0.0119948 0)
(8.35374 0.0120329 0)
(8.35611 0.0119486 0)
(8.35847 0.0117519 0)
(8.36082 0.0114521 0)
(8.36316 0.011057 0)
(8.36548 0.0105734 0)
(8.36778 0.0100069 0)
(8.37005 0.0093622 0)
(8.3723 0.00864265 0)
(8.37452 0.0078508 0)
(8.37672 0.00698822 0)
(8.37889 0.00605568 0)
(8.38103 0.00505319 0)
(8.38314 0.0039802 0)
(8.38523 0.00283573 0)
(8.38728 0.00161864 0)
(8.3893 0.000327804 0)
(8.39129 -0.00103753 0)
(8.39323 -0.00247748 0)
(8.39513 -0.00399161 0)
(8.39699 -0.0055762 0)
(8.33303 0.000803658 0)
(8.33338 0.00238133 0)
(8.33413 0.00386923 0)
(8.33521 0.0052307 0)
(8.33656 0.00644246 0)
(8.33815 0.007491 0)
(8.33993 0.00837062 0)
(8.34186 0.00908219 0)
(8.34391 0.00963114 0)
(8.34604 0.0100257 0)
(8.34824 0.0102755 0)
(8.35049 0.0103907 0)
(8.35275 0.0103813 0)
(8.35504 0.0102568 0)
(8.35732 0.0100261 0)
(8.35959 0.00969689 0)
(8.36186 0.00927608 0)
(8.3641 0.00876958 0)
(8.36632 0.0081823 0)
(8.36852 0.00751822 0)
(8.37069 0.00678041 0)
(8.37284 0.00597111 0)
(8.37495 0.00509179 0)
(8.37704 0.00414328 0)
(8.3791 0.00312581 0)
(8.38112 0.00203923 0)
(8.38312 0.000883101 0)
(8.38508 -0.000343083 0)
(8.387 -0.00163971 0)
(8.38888 -0.00300684 0)
(8.39072 -0.00444399 0)
(8.39251 -0.00595028 0)
(8.39425 -0.00752195 0)
(8.33303 0.000695835 0)
(8.33336 0.00206095 0)
(8.33407 0.00334601 0)
(8.33508 0.00451947 0)
(8.33636 0.00556116 0)
(8.33786 0.0064587 0)
(8.33955 0.00720633 0)
(8.34139 0.00780394 0)
(8.34334 0.00825535 0)
(8.34539 0.00856699 0)
(8.3475 0.00874664 0)
(8.34965 0.00880265 0)
(8.35183 0.00874333 0)
(8.35403 0.00857675 0)
(8.35623 0.00831029 0)
(8.35843 0.00795056 0)
(8.36062 0.00750345 0)
(8.36278 0.00697401 0)
(8.36493 0.00636646 0)
(8.36705 0.00568423 0)
(8.36915 0.00493 0)
(8.37122 0.00410577 0)
(8.37325 0.0032129 0)
(8.37526 0.00225227 0)
(8.37723 0.00122431 0)
(8.37917 0.000129177 0)
(8.38107 -0.00103315 0)
(8.38293 -0.00226267 0)
(8.38475 -0.00355926 0)
(8.38653 -0.00492248 0)
(8.38826 -0.00635146 0)
(8.38995 -0.00784504 0)
(8.39158 -0.00939953 0)
(8.33303 0.000591147 0)
(8.33334 0.00175009 0)
(8.33401 0.00283845 0)
(8.33497 0.00382883 0)
(8.33618 0.00470379 0)
(8.3376 0.00545219 0)
(8.3392 0.00606844 0)
(8.34095 0.00655178 0)
(8.34282 0.00690466 0)
(8.34478 0.007132 0)
(8.3468 0.00723994 0)
(8.34887 0.00723519 0)
(8.35098 0.00712448 0)
(8.35309 0.00691456 0)
(8.35522 0.00661147 0)
(8.35734 0.00622067 0)
(8.35945 0.00574712 0)
(8.36154 0.00519507 0)
(8.36361 0.0045681 0)
(8.36566 0.00386914 0)
(8.36768 0.00310048 0)
(8.36966 0.0022639 0)
(8.37162 0.00136067 0)
(8.37354 0.000391685 0)
(8.37543 -0.000642479 0)
(8.37728 -0.00174143 0)
(8.37908 -0.00290486 0)
(8.38085 -0.00413242 0)
(8.38257 -0.0054236 0)
(8.38425 -0.00677766 0)
(8.38588 -0.00819345 0)
(8.38746 -0.00966969 0)
(8.38898 -0.0112028 0)
(8.33303 0.000489394 0)
(8.33332 0.00144795 0)
(8.33395 0.00234483 0)
(8.33486 0.00315602 0)
(8.33601 0.00386645 0)
(8.33736 0.00446632 0)
(8.33889 0.00495042 0)
(8.34056 0.00531771 0)
(8.34235 0.00556958 0)
(8.34422 0.00570997 0)
(8.34617 0.00574371 0)
(8.34816 0.00567599 0)
(8.35018 0.00551198 0)
(8.35222 0.00525735 0)
(8.35427 0.0049168 0)
(8.35632 0.00449472 0)
(8.35835 0.00399511 0)
(8.36037 0.00342142 0)
(8.36236 0.00277658 0)
(8.36433 0.00206302 0)
(8.36628 0.00128268 0)
(8.36819 0.000437057 0)
(8.37006 -0.000472671 0)
(8.3719 -0.00144564 0)
(8.3737 -0.00248118 0)
(8.37546 -0.00357874 0)
(8.37717 -0.00473779 0)
(8.37885 -0.00595774 0)
(8.38047 -0.00723784 0)
(8.38205 -0.00857713 0)
(8.38358 -0.00997434 0)
(8.38505 -0.0114281 0)
(8.38647 -0.012935 0)
(8.33303 0.000390375 0)
(8.33331 0.00115405 0)
(8.3339 0.0018647 0)
(8.33477 0.00250141 0)
(8.33585 0.00305135 0)
(8.33714 0.00350613 0)
(8.3386 0.00386096 0)
(8.3402 0.00411469 0)
(8.34191 0.00426733 0)
(8.34371 0.00432179 0)
(8.34558 0.00428169 0)
(8.3475 0.00415097 0)
(8.34945 0.00393363 0)
(8.35142 0.00363445 0)
(8.35339 0.00325619 0)
(8.35536 0.00280259 0)
(8.35733 0.00227701 0)
(8.35927 0.00168215 0)
(8.36119 0.00102037 0)
(8.36309 0.000293579 0)
(8.36495 -0.00049661 0)
(8.36678 -0.00134891 0)
(8.36858 -0.00226229 0)
(8.37033 -0.00323594 0)
(8.37205 -0.00426913 0)
(8.37372 -0.00536123 0)
(8.37535 -0.00651156 0)
(8.37692 -0.00771939 0)
(8.37846 -0.00898382 0)
(8.37994 -0.0103038 0)
(8.38136 -0.0116779 0)
(8.38274 -0.0131049 0)
(8.38406 -0.0145814 0)
(8.33303 0.000293769 0)
(8.33329 0.000866698 0)
(8.33386 0.00139347 0)
(8.33468 0.00185549 0)
(8.33572 0.00224221 0)
(8.33695 0.0025471 0)
(8.33834 0.0027666 0)
(8.33988 0.00289993 0)
(8.34152 0.0029467 0)
(8.34325 0.00291078 0)
(8.34505 0.00279385 0)
(8.3469 0.00259807 0)
(8.34878 0.0023246 0)
(8.35068 0.00198097 0)
(8.35259 0.00156674 0)
(8.35449 0.00108393 0)
(8.35638 0.000535175 0)
(8.35825 -7.74396e-05 0)
(8.3601 -0.000752254 0)
(8.36192 -0.00148785 0)
(8.36371 -0.002283 0)
(8.36546 -0.00313667 0)
(8.36718 -0.00404802 0)
(8.36885 -0.00501632 0)
(8.37048 -0.00604088 0)
(8.37207 -0.00712103 0)
(8.3736 -0.00825603 0)
(8.37509 -0.00944508 0)
(8.37653 -0.0106872 0)
(8.37791 -0.0119812 0)
(8.37924 -0.0133259 0)
(8.38052 -0.0147198 0)
(8.38174 -0.0161599 0)
(8.33302 0.000199783 0)
(8.33327 0.000588826 0)
(8.33381 0.000940757 0)
(8.33459 0.00123943 0)
(8.33558 0.00147597 0)
(8.33676 0.00164487 0)
(8.3381 0.00174275 0)
(8.33958 0.00177044 0)
(8.34116 0.00171938 0)
(8.34284 0.0015966 0)
(8.34457 0.0014049 0)
(8.34636 0.00114525 0)
(8.34818 0.000821181 0)
(8.35001 0.000428769 0)
(8.35185 -2.60221e-05 0)
(8.35369 -0.000541105 0)
(8.35551 -0.00111559 0)
(8.35732 -0.00174824 0)
(8.3591 -0.00243794 0)
(8.36085 -0.00318366 0)
(8.36256 -0.00398456 0)
(8.36424 -0.00483988 0)
(8.36587 -0.00574894 0)
(8.36747 -0.00671112 0)
(8.36902 -0.00772579 0)
(8.37051 -0.00879229 0)
(8.37197 -0.0099099 0)
(8.37336 -0.0110778 0)
(8.37471 -0.012295 0)
(8.376 -0.0135604 0)
(8.37724 -0.0148727 0)
(8.37842 -0.0162306 0)
(8.37954 -0.0176313 0)
(8.33302 0.00010657 0)
(8.33326 0.00030749 0)
(8.33378 0.000470982 0)
(8.33453 0.000583717 0)
(8.33548 0.000641872 0)
(8.33662 0.000644253 0)
(8.33791 0.000591194 0)
(8.33933 0.000480706 0)
(8.34086 0.000323798 0)
(8.34247 0.000112019 0)
(8.34416 -0.000155501 0)
(8.34588 -0.000477591 0)
(8.34764 -0.000851763 0)
(8.34941 -0.00128362 0)
(8.35119 -0.00176847 0)
(8.35296 -0.0023054 0)
(8.35472 -0.00289468 0)
(8.35646 -0.003536 0)
(8.35817 -0.00422884 0)
(8.35985 -0.0049728 0)
(8.36149 -0.00576749 0)
(8.3631 -0.00661251 0)
(8.36466 -0.00750741 0)
(8.36617 -0.00845174 0)
(8.36764 -0.00944499 0)
(8.36906 -0.0104866 0)
(8.37042 -0.0115757 0)
(8.37174 -0.0127117 0)
(8.37299 -0.0138936 0)
(8.37419 -0.0151203 0)
(8.37534 -0.0163905 0)
(8.37643 -0.017703 0)
(8.37745 -0.0190551 0)
(8.33302 2.10119e-05 0)
(8.33324 6.4226e-05 0)
(8.33372 8.65765e-05 0)
(8.33442 7.15038e-05 0)
(8.33533 1.16335e-05 0)
(8.33643 -9.69044e-05 0)
(8.33768 -0.000255041 0)
(8.33907 -0.000464926 0)
(8.34057 -0.000714856 0)
(8.34215 -0.00101247 0)
(8.34378 -0.0013584 0)
(8.34546 -0.0017509 0)
(8.34717 -0.00219106 0)
(8.3489 -0.00267415 0)
(8.35062 -0.00320287 0)
(8.35234 -0.00377758 0)
(8.35404 -0.00439786 0)
(8.35571 -0.00506352 0)
(8.35736 -0.00577446 0)
(8.35898 -0.00653059 0)
(8.36055 -0.00733181 0)
(8.36208 -0.00817796 0)
(8.36357 -0.00906884 0)
(8.36501 -0.0100042 0)
(8.3664 -0.0109837 0)
(8.36774 -0.0120068 0)
(8.36902 -0.0130731 0)
(8.37025 -0.0141817 0)
(8.37142 -0.015332 0)
(8.37253 -0.0165229 0)
(8.37359 -0.0177533 0)
(8.37458 -0.0190222 0)
(8.37552 -0.0203271 0)
(8.33303 -7.89662e-05 0)
(8.33326 -0.000260764 0)
(8.33374 -0.000488648 0)
(8.33443 -0.000761231 0)
(8.33531 -0.00106452 0)
(8.33636 -0.00138728 0)
(8.33757 -0.00172434 0)
(8.33891 -0.00207274 0)
(8.34035 -0.00244284 0)
(8.34188 -0.0028321 0)
(8.34347 -0.00324311 0)
(8.3451 -0.00368006 0)
(8.34675 -0.00414664 0)
(8.34842 -0.00464527 0)
(8.35009 -0.00517929 0)
(8.35175 -0.00575042 0)
(8.3534 -0.00635991 0)
(8.35502 -0.00700894 0)
(8.3566 -0.00769838 0)
(8.35816 -0.00842881 0)
(8.35967 -0.00920062 0)
(8.36113 -0.010014 0)
(8.36255 -0.010869 0)
(8.36392 -0.0117654 0)
(8.36524 -0.0127031 0)
(8.3665 -0.0136815 0)
(8.3677 -0.0147002 0)
(8.36885 -0.0157584 0)
(8.36994 -0.0168554 0)
(8.37097 -0.0179902 0)
(8.37194 -0.0191617 0)
(8.37285 -0.0203689 0)
(8.3737 -0.0216094 0)
(8.333 -0.000124057 0)
(8.33315 -0.000335645 0)
(8.33355 -0.000553155 0)
(8.33418 -0.000813248 0)
(8.33504 -0.00112774 0)
(8.33609 -0.00149479 0)
(8.33731 -0.00190644 0)
(8.33866 -0.00235395 0)
(8.34012 -0.00283134 0)
(8.34164 -0.00333276 0)
(8.34322 -0.00385665 0)
(8.34484 -0.00440291 0)
(8.34647 -0.00497207 0)
(8.34811 -0.00556474 0)
(8.34974 -0.00618236 0)
(8.35136 -0.00682649 0)
(8.35296 -0.00749856 0)
(8.35452 -0.00819992 0)
(8.35605 -0.0089318 0)
(8.35754 -0.00969522 0)
(8.35899 -0.0104911 0)
(8.36039 -0.01132 0)
(8.36174 -0.0121826 0)
(8.36304 -0.0130792 0)
(8.36428 -0.0140098 0)
(8.36546 -0.0149746 0)
(8.36659 -0.0159733 0)
(8.36766 -0.0170056 0)
(8.36867 -0.018071 0)
(8.36962 -0.0191688 0)
(8.37051 -0.0202984 0)
(8.37133 -0.0214588 0)
(8.3721 -0.0226482 0)
(8.33306 -0.000319722 0)
(8.33334 -0.00103243 0)
(8.3338 -0.00182348 0)
(8.33442 -0.00262495 0)
(8.33521 -0.00338096 0)
(8.33618 -0.00407135 0)
(8.33731 -0.00469793 0)
(8.33857 -0.00527132 0)
(8.33995 -0.00580607 0)
(8.34141 -0.00631569 0)
(8.34293 -0.00681247 0)
(8.34449 -0.0073071 0)
(8.34608 -0.00780845 0)
(8.34767 -0.00832354 0)
(8.34927 -0.00885806 0)
(8.35084 -0.00941642 0)
(8.35239 -0.0100019 0)
(8.35392 -0.0106169 0)
(8.3554 -0.0112634 0)
(8.35684 -0.0119426 0)
(8.35824 -0.0126553 0)
(8.35959 -0.0134022 0)
(8.36088 -0.0141835 0)
(8.36212 -0.0149993 0)
(8.3633 -0.0158494 0)
(8.36442 -0.0167335 0)
(8.36549 -0.0176512 0)
(8.36649 -0.0186019 0)
(8.36743 -0.0195848 0)
(8.36831 -0.0205991 0)
(8.36912 -0.0216439 0)
(8.36987 -0.0227183 0)
(8.37056 -0.0238203 0)
(8.33294 -7.83865e-05 0)
(8.33285 -0.000147949 0)
(8.33308 -0.000284642 0)
(8.33366 -0.000614034 0)
(8.33455 -0.00114018 0)
(8.33568 -0.00180639 0)
(8.33696 -0.00255379 0)
(8.33837 -0.0033405 0)
(8.33986 -0.00414067 0)
(8.3414 -0.00493893 0)
(8.34297 -0.00572756 0)
(8.34456 -0.00650419 0)
(8.34615 -0.00726966 0)
(8.34774 -0.00802656 0)
(8.3493 -0.00877845 0)
(8.35084 -0.00952924 0)
(8.35234 -0.0102828 0)
(8.35381 -0.0110427 0)
(8.35524 -0.0118123 0)
(8.35662 -0.0125945 0)
(8.35794 -0.0133918 0)
(8.35922 -0.0142063 0)
(8.36044 -0.0150397 0)
(8.36161 -0.0158935 0)
(8.36271 -0.0167687 0)
(8.36376 -0.0176661 0)
(8.36474 -0.0185863 0)
(8.36567 -0.0195296 0)
(8.36653 -0.020496 0)
(8.36732 -0.0214855 0)
(8.36806 -0.0224977 0)
(8.36873 -0.0235324 0)
(8.36934 -0.0245881 0)
(8.33317 -0.000779026 0)
(8.33367 -0.00268095 0)
(8.33406 -0.00464592 0)
(8.33446 -0.00632821 0)
(8.33501 -0.00765471 0)
(8.33579 -0.00868059 0)
(8.33681 -0.00948027 0)
(8.338 -0.0101177 0)
(8.33933 -0.0106446 0)
(8.34076 -0.0111009 0)
(8.34226 -0.0115168 0)
(8.34381 -0.0119147 0)
(8.34538 -0.0123106 0)
(8.34694 -0.0127159 0)
(8.3485 -0.0131386 0)
(8.35003 -0.0135841 0)
(8.35153 -0.014056 0)
(8.353 -0.0145569 0)
(8.35441 -0.0150881 0)
(8.35578 -0.0156504 0)
(8.35709 -0.0162444 0)
(8.35835 -0.0168699 0)
(8.35954 -0.0175267 0)
(8.36068 -0.0182145 0)
(8.36175 -0.0189328 0)
(8.36276 -0.0196809 0)
(8.3637 -0.020458 0)
(8.36458 -0.0212635 0)
(8.3654 -0.0220964 0)
(8.36614 -0.0229559 0)
(8.36682 -0.023841 0)
(8.36744 -0.0247509 0)
(8.36799 -0.0256838 0)
(8.33263 0.000570148 0)
(8.33174 0.00197593 0)
(8.33174 0.0028383 0)
(8.33258 0.00273548 0)
(8.33384 0.00187662 0)
(8.33529 0.000621384 0)
(8.33683 -0.000795791 0)
(8.33842 -0.00225105 0)
(8.34002 -0.00367782 0)
(8.34163 -0.00504039 0)
(8.34323 -0.00632362 0)
(8.3448 -0.00752533 0)
(8.34636 -0.00865037 0)
(8.34788 -0.00970701 0)
(8.34937 -0.0107049 0)
(8.35082 -0.0116539 0)
(8.35222 -0.0125635 0)
(8.35358 -0.013442 0)
(8.3549 -0.0142973 0)
(8.35616 -0.0151358 0)
(8.35737 -0.0159634 0)
(8.35853 -0.0167848 0)
(8.35962 -0.0176041 0)
(8.36066 -0.0184248 0)
(8.36164 -0.0192497 0)
(8.36256 -0.0200809 0)
(8.36341 -0.0209204 0)
(8.36421 -0.0217696 0)
(8.36493 -0.0226295 0)
(8.3656 -0.0235009 0)
(8.3662 -0.0243843 0)
(8.36674 -0.0252799 0)
(8.36721 -0.026187 0)
(8.33358 -0.00196186 0)
(8.33466 -0.00690888 0)
(8.33441 -0.0117042 0)
(8.3337 -0.0148903 0)
(8.33347 -0.0166756 0)
(8.33386 -0.0176496 0)
(8.33473 -0.0181377 0)
(8.33591 -0.0183336 0)
(8.33729 -0.0183719 0)
(8.33882 -0.0183401 0)
(8.34043 -0.0182922 0)
(8.34208 -0.0182612 0)
(8.34375 -0.0182659 0)
(8.3454 -0.0183164 0)
(8.34702 -0.0184174 0)
(8.3486 -0.0185702 0)
(8.35014 -0.0187741 0)
(8.35162 -0.0190273 0)
(8.35305 -0.0193276 0)
(8.35441 -0.0196723 0)
(8.35571 -0.0200588 0)
(8.35695 -0.0204847 0)
(8.35812 -0.0209475 0)
(8.35922 -0.0214451 0)
(8.36026 -0.0219753 0)
(8.36122 -0.0225364 0)
(8.36212 -0.0231265 0)
(8.36295 -0.023744 0)
(8.36371 -0.0243874 0)
(8.3644 -0.0250554 0)
(8.36503 -0.0257467 0)
(8.36559 -0.0264602 0)
(8.36608 -0.0271943 0)
(8.33162 0.00369169 0)
(8.32827 0.010238 0)
(8.32843 0.0133952 0)
(8.33098 0.0133376 0)
(8.33357 0.0112732 0)
(8.33576 0.0084224 0)
(8.33771 0.00541433 0)
(8.33949 0.00249153 0)
(8.34116 -0.000234013 0)
(8.34273 -0.00271435 0)
(8.34423 -0.00494413 0)
(8.34568 -0.00693933 0)
(8.3471 -0.00872429 0)
(8.34849 -0.0103258 0)
(8.34985 -0.0117703 0)
(8.35119 -0.0130821 0)
(8.35249 -0.0142828 0)
(8.35377 -0.0153912 0)
(8.35501 -0.0164235 0)
(8.35621 -0.0173936 0)
(8.35738 -0.0183129 0)
(8.3585 -0.0191914 0)
(8.35957 -0.0200371 0)
(8.3606 -0.020857 0)
(8.36157 -0.0216568 0)
(8.36249 -0.0224413 0)
(8.36335 -0.0232144 0)
(8.36416 -0.0239793 0)
(8.36491 -0.0247387 0)
(8.36559 -0.0254946 0)
(8.36622 -0.0262488 0)
(8.36678 -0.0270023 0)
(8.36729 -0.0277558 0)
(8.3343 -0.00643195 0)
(8.33462 -0.0206812 0)
(8.33072 -0.0299121 0)
(8.32671 -0.0339095 0)
(8.32479 -0.0348044 0)
(8.32487 -0.0342583 0)
(8.32604 -0.033084 0)
(8.32776 -0.0316775 0)
(8.32981 -0.0302614 0)
(8.33206 -0.0289524 0)
(8.3344 -0.0278021 0)
(8.33678 -0.0268269 0)
(8.33915 -0.0260253 0)
(8.34149 -0.0253867 0)
(8.34379 -0.0248967 0)
(8.34602 -0.0245394 0)
(8.34819 -0.0242994 0)
(8.35029 -0.0241626 0)
(8.35231 -0.0241162 0)
(8.35425 -0.0241489 0)
(8.35611 -0.0242509 0)
(8.35789 -0.0244137 0)
(8.35959 -0.0246301 0)
(8.36121 -0.0248939 0)
(8.36274 -0.0251997 0)
(8.36419 -0.025543 0)
(8.36555 -0.0259198 0)
(8.36683 -0.0263268 0)
(8.36803 -0.0267611 0)
(8.36915 -0.0272202 0)
(8.37018 -0.027702 0)
(8.37114 -0.0282048 0)
(8.37202 -0.0287267 0)
(8.32884 0.0225971 0)
(8.32235 0.0427764 0)
(8.32668 0.0440108 0)
(8.33331 0.0380584 0)
(8.33781 0.0307171 0)
(8.34064 0.0235713 0)
(8.34294 0.0169358 0)
(8.34511 0.0109881 0)
(8.3473 0.00578409 0)
(8.34955 0.00127591 0)
(8.3519 -0.00261642 0)
(8.35435 -0.00597471 0)
(8.35687 -0.00887658 0)
(8.35944 -0.0113925 0)
(8.36205 -0.0135838 0)
(8.36466 -0.0155028 0)
(8.36727 -0.0171937 0)
(8.36985 -0.0186936 0)
(8.37238 -0.0200336 0)
(8.37486 -0.0212397 0)
(8.37728 -0.0223334 0)
(8.37962 -0.0233329 0)
(8.38188 -0.0242533 0)
(8.38406 -0.0251072 0)
(8.38614 -0.0259053 0)
(8.38814 -0.0266564 0)
(8.39004 -0.0273681 0)
(8.39184 -0.0280467 0)
(8.39354 -0.0286976 0)
(8.39514 -0.0293253 0)
(8.39665 -0.0299337 0)
(8.39806 -0.0305258 0)
(8.39936 -0.0311056 0)
(8.32436 -0.0380278 0)
(8.29386 -0.0683146 0)
(8.27215 -0.0716877 0)
(8.26668 -0.0685892 0)
(8.27357 -0.0642432 0)
(8.28619 -0.059419 0)
(8.30092 -0.0547413 0)
(8.31622 -0.0505713 0)
(8.33124 -0.0469698 0)
(8.34551 -0.0439115 0)
(8.35883 -0.0413516 0)
(8.37114 -0.0392309 0)
(8.38245 -0.0374873 0)
(8.39281 -0.0360639 0)
(8.40227 -0.0349105 0)
(8.41089 -0.033984 0)
(8.41875 -0.0332477 0)
(8.4259 -0.0326711 0)
(8.4324 -0.0322287 0)
(8.43831 -0.0318992 0)
(8.44367 -0.0316652 0)
(8.44853 -0.031512 0)
(8.45292 -0.0314277 0)
(8.45689 -0.0314022 0)
(8.46045 -0.0314271 0)
(8.46365 -0.0314955 0)
(8.46651 -0.0316013 0)
(8.46906 -0.0317396 0)
(8.4713 -0.0319062 0)
(8.47328 -0.0320972 0)
(8.475 -0.0323095 0)
(8.47648 -0.0325401 0)
(8.47775 -0.0327853 0)
(8.34002 0.15699 0)
(8.38199 0.148999 0)
(8.40249 0.103381 0)