/*--------------------------------*- C++ -*----------------------------------*\
| =========                 |                                                 |
| \\      /  F ield         | OpenFOAM: The Open Source CFD Toolbox           |
|  \\    /   O peration     | Version:  2.1.1                                 |
|   \\  /    A nd           | Web:      www.OpenFOAM.org                      |
|    \\/     M anipulation  |                                                 |
\*---------------------------------------------------------------------------*/
FoamFile
{
    version     2.0;
    format      ascii;
    class       volScalarField;
    location    "0.16";
    object      nuSgs;
}
// * * * * * * * * * * * * * * * * * * * * * * * * * * * * * * * * * * * * * //

dimensions      [0 2 -1 0 0 0 0];

internalField   nonuniform List<scalar> 
6820
(
0.000556015
0.00045741
0.000368131
0.000306093
0.000268865
0.000243203
0.000224299
0.000209824
0.000198117
0.000188272
0.000179775
0.000172295
0.000165611
0.000159568
0.000154053
0.000148983
0.000144292
0.00013993
0.000135859
0.000132045
0.000128464
0.000125095
0.00012192
0.000118923
0.000116092
0.000113416
0.000110883
0.000108487
0.000106207
0.000104048
0.000101969
9.98354e-05
9.77412e-05
0.000103498
0.000170666
0.000223659
0.000240033
0.000235277
0.000224911
0.000213205
0.000201906
0.000191653
0.000182466
0.000174224
0.000166795
0.000160056
0.000153904
0.000148254
0.000143039
0.000138199
0.000133689
0.000129467
0.000125501
0.000121762
0.000118226
0.000114874
0.000111687
0.000108652
0.000105757
0.000102993
0.000100347
9.78321e-05
9.54035e-05
9.3227e-05
9.09534e-05
9.02884e-05
3.67757e-05
2.84775e-05
4.56245e-05
8.23219e-05
0.000107986
0.000123611
0.000132072
0.000135957
0.000137093
0.000136548
0.000134964
0.000132738
0.000130117
0.000127266
0.000124293
0.000121269
0.00011824
0.000115238
0.000112284
0.000109392
0.000106568
0.000103819
0.000101145
9.85487e-05
9.60292e-05
9.35848e-05
9.12166e-05
8.89227e-05
8.67115e-05
8.458e-05
8.25774e-05
8.06207e-05
7.90888e-05
2.07374e-05
2.86846e-05
2.6558e-05
1.5079e-05
3.65723e-06
1.3898e-05
2.57632e-05
3.56315e-05
4.3604e-05
4.99528e-05
5.49513e-05
5.88417e-05
6.18244e-05
6.40557e-05
6.56684e-05
6.6772e-05
6.74564e-05
6.77955e-05
6.78501e-05
6.76699e-05
6.72961e-05
6.67624e-05
6.60972e-05
6.53238e-05
6.4462e-05
6.35285e-05
6.2539e-05
6.15082e-05
6.0454e-05
5.93882e-05
5.83446e-05
5.73417e-05
5.6486e-05
1.44207e-05
1.75859e-05
2.26046e-05
2.42995e-05
2.39735e-05
2.19962e-05
1.91055e-05
1.58388e-05
1.24285e-05
9.0244e-06
5.73583e-06
2.65214e-06
7.66863e-07
3.12643e-06
5.54791e-06
7.75156e-06
9.72895e-06
1.14873e-05
1.30381e-05
1.43947e-05
1.55711e-05
1.65808e-05
1.74373e-05
1.81532e-05
1.8741e-05
1.9212e-05
1.95783e-05
1.98515e-05
2.00445e-05
2.01689e-05
2.02414e-05
2.02729e-05
2.02714e-05
1.09205e-05
1.24996e-05
1.38224e-05
1.43289e-05
1.51115e-05
1.57498e-05
1.6128e-05
1.63387e-05
1.6385e-05
1.62713e-05
1.6021e-05
1.56571e-05
1.52026e-05
1.46721e-05
1.40847e-05
1.3458e-05
1.28078e-05
1.21472e-05
1.14874e-05
1.08373e-05
1.02039e-05
9.59294e-06
9.00847e-06
8.4536e-06
7.93039e-06
7.44016e-06
6.98324e-06
6.55957e-06
6.16835e-06
5.81122e-06
5.49054e-06
5.22305e-06
5.05111e-06
8.24484e-06
9.43081e-06
1.02487e-05
1.00442e-05
9.85234e-06
9.67249e-06
9.48807e-06
9.40167e-06
9.40232e-06
9.44589e-06
9.50538e-06
9.56287e-06
9.60693e-06
9.63517e-06
9.64498e-06
9.63516e-06
9.60581e-06
9.55791e-06
9.49294e-06
9.41264e-06
9.31885e-06
9.21342e-06
9.09813e-06
8.97464e-06
8.8445e-06
8.70921e-06
8.57013e-06
8.42926e-06
8.2887e-06
8.15491e-06
8.03568e-06
7.95436e-06
7.94712e-06
6.36115e-06
7.41248e-06
8.21828e-06
8.07914e-06
7.76632e-06
7.42472e-06
7.04576e-06
6.72091e-06
6.4691e-06
6.26974e-06
6.11019e-06
5.98154e-06
5.87502e-06
5.78412e-06
5.70468e-06
5.63367e-06
5.5687e-06
5.50792e-06
5.44996e-06
5.39383e-06
5.33882e-06
5.28447e-06
5.2305e-06
5.1768e-06
5.12347e-06
5.0709e-06
5.01994e-06
4.97238e-06
4.93141e-06
4.90372e-06
4.89967e-06
4.93814e-06
5.04643e-06
5.0009e-06
5.86305e-06
6.54472e-06
6.53617e-06
6.36599e-06
6.15663e-06
5.87237e-06
5.58565e-06
5.33496e-06
5.11664e-06
4.92598e-06
4.75964e-06
4.61291e-06
4.48172e-06
4.36333e-06
4.25569e-06
4.15718e-06
4.06662e-06
3.98312e-06
3.90603e-06
3.83487e-06
3.7693e-06
3.70914e-06
3.65437e-06
3.60522e-06
3.56231e-06
3.52677e-06
3.50074e-06
3.48779e-06
3.4938e-06
3.52705e-06
3.59999e-06
3.73357e-06
3.99561e-06
4.71207e-06
5.31238e-06
5.38118e-06
5.27667e-06
5.12677e-06
4.90938e-06
4.67962e-06
4.47523e-06
4.29534e-06
4.13552e-06
3.99364e-06
3.86672e-06
3.75192e-06
3.64731e-06
3.55157e-06
3.46367e-06
3.38282e-06
3.30846e-06
3.24017e-06
3.17767e-06
3.1208e-06
3.06957e-06
3.02419e-06
2.98511e-06
2.95318e-06
2.92972e-06
2.91701e-06
2.91817e-06
2.93821e-06
2.98344e-06
3.06091e-06
3.18584e-06
3.23648e-06
3.83979e-06
4.36996e-06
4.48e-06
4.42365e-06
4.32232e-06
4.16076e-06
3.97602e-06
3.80285e-06
3.64564e-06
3.50311e-06
3.37531e-06
3.26095e-06
3.15808e-06
3.06514e-06
2.98095e-06
2.90451e-06
2.83502e-06
2.77189e-06
2.71469e-06
2.66316e-06
2.61717e-06
2.57677e-06
2.54221e-06
2.51398e-06
2.49295e-06
2.48042e-06
2.47834e-06
2.48932e-06
2.51694e-06
2.56541e-06
2.63797e-06
2.74609e-06
2.65039e-06
3.16452e-06
3.64248e-06
3.78731e-06
3.77614e-06
3.71276e-06
3.5902e-06
3.43696e-06
3.28614e-06
3.14616e-06
3.01762e-06
2.90134e-06
2.79688e-06
2.70286e-06
2.61807e-06
2.54153e-06
2.47243e-06
2.41009e-06
2.35402e-06
2.30383e-06
2.25931e-06
2.22033e-06
2.18695e-06
2.15941e-06
2.13813e-06
2.12386e-06
2.11767e-06
2.12104e-06
2.13581e-06
2.16429e-06
2.209e-06
2.27081e-06
2.35865e-06
2.18773e-06
2.63389e-06
3.07328e-06
3.24273e-06
3.26637e-06
3.23266e-06
3.14287e-06
3.01949e-06
2.89143e-06
2.76867e-06
2.6532e-06
2.54676e-06
2.44995e-06
2.36224e-06
2.28296e-06
2.21146e-06
2.14714e-06
2.08946e-06
2.03796e-06
1.9923e-06
1.95223e-06
1.91764e-06
1.88853e-06
1.86505e-06
1.84754e-06
1.83653e-06
1.83277e-06
1.83724e-06
1.85108e-06
1.87558e-06
1.91204e-06
1.95999e-06
2.02661e-06
1.81489e-06
2.21035e-06
2.6211e-06
2.80986e-06
2.86361e-06
2.85619e-06
2.79389e-06
2.69527e-06
2.58574e-06
2.47664e-06
2.37162e-06
2.27324e-06
2.18283e-06
2.10047e-06
2.02578e-06
1.95836e-06
1.89772e-06
1.8434e-06
1.795e-06
1.75221e-06
1.71479e-06
1.68259e-06
1.65556e-06
1.63377e-06
1.6174e-06
1.60676e-06
1.60229e-06
1.60452e-06
1.61401e-06
1.63132e-06
1.657e-06
1.68993e-06
1.73613e-06
1.50842e-06
1.86762e-06
2.25791e-06
2.46248e-06
2.54134e-06
2.55582e-06
2.51582e-06
2.43805e-06
2.345e-06
2.24852e-06
2.15325e-06
2.06227e-06
1.97742e-06
1.89927e-06
1.82785e-06
1.76299e-06
1.70441e-06
1.65177e-06
1.60474e-06
1.56305e-06
1.52644e-06
1.49473e-06
1.46782e-06
1.44564e-06
1.42823e-06
1.4157e-06
1.40817e-06
1.40583e-06
1.40883e-06
1.41726e-06
1.43123e-06
1.44941e-06
1.47695e-06
1.25167e-06
1.58692e-06
1.96335e-06
2.18127e-06
2.28158e-06
2.31535e-06
2.2947e-06
2.23509e-06
2.15649e-06
2.07079e-06
1.98353e-06
1.89835e-06
1.81759e-06
1.74233e-06
1.67293e-06
1.60944e-06
1.55174e-06
1.49958e-06
1.45268e-06
1.41078e-06
1.3736e-06
1.34091e-06
1.31255e-06
1.28834e-06
1.26817e-06
1.25196e-06
1.23962e-06
1.23109e-06
1.22623e-06
1.22486e-06
1.22689e-06
1.23106e-06
1.24183e-06
1.03261e-06
1.35478e-06
1.72301e-06
1.95264e-06
2.07144e-06
2.12218e-06
2.1181e-06
2.07396e-06
2.00784e-06
1.93152e-06
1.8512e-06
1.77099e-06
1.6936e-06
1.62047e-06
1.55224e-06
1.48918e-06
1.4313e-06
1.37846e-06
1.33044e-06
1.28701e-06
1.24789e-06
1.21282e-06
1.18157e-06
1.15388e-06
1.12953e-06
1.10829e-06
1.08994e-06
1.07421e-06
1.06083e-06
1.04951e-06
1.04008e-06
1.03149e-06
1.02764e-06
8.42541e-07
1.16171e-06
1.52659e-06
1.76675e-06
1.9016e-06
1.96743e-06
1.97791e-06
1.94734e-06
1.89227e-06
1.82422e-06
1.74984e-06
1.67364e-06
1.59865e-06
1.52666e-06
1.4586e-06
1.39495e-06
1.33587e-06
1.28133e-06
1.23116e-06
1.18515e-06
1.14301e-06
1.10448e-06
1.06924e-06
1.03698e-06
1.00739e-06
9.80146e-07
9.54894e-07
9.31296e-07
9.08995e-07
8.87676e-07
8.67187e-07
8.46785e-07
8.29911e-07
6.75304e-07
1.00138e-06
1.36697e-06
1.61668e-06
1.76551e-06
1.84478e-06
1.86812e-06
1.8494e-06
1.80398e-06
1.74308e-06
1.6737e-06
1.60068e-06
1.52736e-06
1.4558e-06
1.38721e-06
1.32223e-06
1.26117e-06
1.20409e-06
1.1509e-06
1.10139e-06
1.05533e-06
1.01241e-06
9.72299e-07
9.34652e-07
8.99097e-07
8.65247e-07
8.32704e-07
8.01081e-07
7.70001e-07
7.39183e-07
7.08514e-07
6.77598e-07
6.49454e-07
5.27214e-07
8.70196e-07
1.23946e-06
1.49769e-06
1.65865e-06
1.74986e-06
1.78461e-06
1.77633e-06
1.73945e-06
1.68486e-06
1.6198e-06
1.54938e-06
1.47716e-06
1.40551e-06
1.33583e-06
1.26897e-06
1.20537e-06
1.14517e-06
1.08836e-06
1.03478e-06
9.84187e-07
9.36291e-07
8.90745e-07
8.47171e-07
8.0516e-07
7.64289e-07
7.2412e-07
6.84239e-07
6.44251e-07
6.03903e-07
5.63094e-07
5.21764e-07
4.82547e-07
3.98058e-07
7.67213e-07
1.14133e-06
1.40679e-06
1.57808e-06
1.6798e-06
1.72462e-06
1.72551e-06
1.69609e-06
1.64692e-06
1.58539e-06
1.51682e-06
1.44504e-06
1.37261e-06
1.30119e-06
1.23179e-06
1.16499e-06
1.10106e-06
1.04006e-06
9.81875e-07
9.26313e-07
8.73094e-07
8.21882e-07
7.72298e-07
7.23925e-07
6.76325e-07
6.29044e-07
5.81644e-07
5.33695e-07
4.84925e-07
4.35122e-07
3.84432e-07
3.34849e-07
2.95021e-07
6.93983e-07
1.07149e-06
1.34237e-06
1.52219e-06
1.63303e-06
1.68676e-06
1.69578e-06
1.67303e-06
1.62878e-06
1.57047e-06
1.50362e-06
1.43224e-06
1.35911e-06
1.28607e-06
1.2143e-06
1.1445e-06
1.07703e-06
1.01204e-06
9.4948e-07
8.89194e-07
8.30937e-07
7.74398e-07
7.19218e-07
6.64994e-07
6.11292e-07
5.57651e-07
5.03612e-07
4.48675e-07
3.92466e-07
3.3445e-07
2.74641e-07
2.1322e-07
2.4136e-07
6.53909e-07
1.03006e-06
1.30393e-06
1.49033e-06
1.60882e-06
1.67016e-06
1.68606e-06
1.66881e-06
1.6284e-06
1.57228e-06
1.50613e-06
1.43417e-06
1.35939e-06
1.28385e-06
1.2089e-06
1.13542e-06
1.0639e-06
9.94575e-07
9.27504e-07
8.62601e-07
7.99686e-07
7.38516e-07
6.78793e-07
6.20185e-07
5.62337e-07
5.04873e-07
4.47434e-07
3.8963e-07
3.31237e-07
2.71806e-07
2.11937e-07
1.51201e-07
2.66177e-07
6.50626e-07
1.01802e-06
1.29197e-06
1.48307e-06
1.60801e-06
1.67619e-06
1.69854e-06
1.68677e-06
1.65055e-06
1.59729e-06
1.53275e-06
1.46128e-06
1.38602e-06
1.30918e-06
1.23228e-06
1.15632e-06
1.08193e-06
1.00947e-06
9.39108e-07
8.70879e-07
8.0472e-07
7.4051e-07
6.78095e-07
6.17311e-07
5.58014e-07
5.00106e-07
4.43611e-07
3.88691e-07
3.35995e-07
2.86403e-07
2.43068e-07
2.08154e-07
3.57259e-07
6.85887e-07
1.03676e-06
1.30758e-06
1.5012e-06
1.63075e-06
1.7039e-06
1.73063e-06
1.7221e-06
1.68773e-06
1.63497e-06
1.56974e-06
1.49659e-06
1.41891e-06
1.33912e-06
1.25893e-06
1.1795e-06
1.10162e-06
1.02578e-06
9.52264e-07
8.81227e-07
8.12739e-07
7.46827e-07
6.83513e-07
6.22846e-07
5.64946e-07
5.10051e-07
4.58606e-07
4.11295e-07
3.69334e-07
3.34104e-07
3.08491e-07
2.93093e-07
4.8572e-07
7.58746e-07
1.08782e-06
1.35303e-06
1.54803e-06
1.68219e-06
1.76122e-06
1.79405e-06
1.79113e-06
1.76146e-06
1.71227e-06
1.64943e-06
1.57756e-06
1.50015e-06
1.4198e-06
1.33841e-06
1.25734e-06
1.17757e-06
1.09976e-06
1.0244e-06
9.51807e-07
8.82245e-07
8.15924e-07
7.53058e-07
6.93903e-07
6.38786e-07
5.88142e-07
5.42558e-07
5.02737e-07
4.69658e-07
4.44034e-07
4.27532e-07
4.18852e-07
6.39604e-07
8.67835e-07
1.17345e-06
1.43058e-06
1.62396e-06
1.75889e-06
1.83894e-06
1.87213e-06
1.8687e-06
1.83767e-06
1.78645e-06
1.72112e-06
1.6465e-06
1.56624e-06
1.48307e-06
1.39901e-06
1.3155e-06
1.23361e-06
1.1541e-06
1.07751e-06
1.00429e-06
9.34759e-07
8.69247e-07
8.08059e-07
7.51528e-07
7.00026e-07
6.53971e-07
6.13832e-07
5.8006e-07
5.53167e-07
5.33306e-07
5.2121e-07
5.15421e-07
8.17348e-07
1.01149e-06
1.29542e-06
1.54547e-06
1.74039e-06
1.88188e-06
1.97075e-06
2.01316e-06
2.01816e-06
1.99401e-06
1.94776e-06
1.88545e-06
1.81207e-06
1.73159e-06
1.64706e-06
1.56084e-06
1.47469e-06
1.38994e-06
1.30758e-06
1.22835e-06
1.15282e-06
1.08145e-06
1.0146e-06
9.52606e-07
8.95783e-07
8.44418e-07
7.98781e-07
7.59124e-07
7.25615e-07
6.98452e-07
6.77433e-07
6.63119e-07
6.53421e-07
1.02422e-06
1.19541e-06
1.46116e-06
1.70023e-06
1.88696e-06
2.02084e-06
2.1019e-06
2.13676e-06
2.13522e-06
2.1059e-06
2.05586e-06
1.99097e-06
1.91598e-06
1.83457e-06
1.74958e-06
1.66319e-06
1.57707e-06
1.49249e-06
1.41043e-06
1.33166e-06
1.25675e-06
1.18619e-06
1.12035e-06
1.05954e-06
1.004e-06
9.53934e-07
9.09462e-07
8.70659e-07
8.37496e-07
8.09925e-07
7.87606e-07
7.70718e-07
7.57658e-07
1.26452e-06
1.41612e-06
1.66991e-06
1.91147e-06
2.11297e-06
2.26825e-06
2.37087e-06
2.42349e-06
2.43438e-06
2.41202e-06
2.36405e-06
2.29737e-06
2.21779e-06
2.12997e-06
2.03751e-06
1.94317e-06
1.84903e-06
1.75662e-06
1.66706e-06
1.58118e-06
1.49956e-06
1.42264e-06
1.35072e-06
1.28402e-06
1.22267e-06
1.16674e-06
1.11624e-06
1.07113e-06
1.03128e-06
9.96577e-07
9.66606e-07
9.41739e-07
9.19693e-07
1.55908e-06
1.70825e-06
1.95022e-06
2.16616e-06
2.33441e-06
2.45742e-06
2.53428e-06
2.57029e-06
2.57368e-06
2.55092e-06
2.50717e-06
2.44712e-06
2.37498e-06
2.2943e-06
2.20807e-06
2.11879e-06
2.0285e-06
1.93882e-06
1.85103e-06
1.76611e-06
1.6848e-06
1.60763e-06
1.53497e-06
1.46703e-06
1.40395e-06
1.34573e-06
1.29233e-06
1.24365e-06
1.19949e-06
1.1597e-06
1.12389e-06
1.09221e-06
1.06305e-06
1.89991e-06
2.02712e-06
2.28467e-06
2.55586e-06
2.79628e-06
2.98304e-06
3.10107e-06
3.15482e-06
3.15779e-06
3.1225e-06
3.05928e-06
2.97677e-06
2.88173e-06
2.77914e-06
2.67262e-06
2.56477e-06
2.4575e-06
2.35217e-06
2.24974e-06
2.15094e-06
2.05625e-06
1.96602e-06
1.88046e-06
1.79968e-06
1.72372e-06
1.65253e-06
1.58604e-06
1.52411e-06
1.46659e-06
1.41336e-06
1.36405e-06
1.31917e-06
1.27629e-06
2.38198e-06
2.54233e-06
2.74621e-06
2.89346e-06
3.01347e-06
3.1262e-06
3.21989e-06
3.28564e-06
3.32119e-06
3.32578e-06
3.30095e-06
3.25076e-06
3.18024e-06
3.09435e-06
2.99755e-06
2.89373e-06
2.78606e-06
2.67702e-06
2.56853e-06
2.46201e-06
2.35845e-06
2.25855e-06
2.16274e-06
2.07125e-06
1.98415e-06
1.90142e-06
1.82296e-06
1.74861e-06
1.67823e-06
1.61172e-06
1.54886e-06
1.49005e-06
1.43363e-06
2.85943e-06
2.97748e-06
3.37884e-06
3.80196e-06
4.12346e-06
4.32186e-06
4.40625e-06
4.40746e-06
4.3553e-06
4.26791e-06
4.15649e-06
4.02902e-06
3.89107e-06
3.74652e-06
3.59839e-06
3.44917e-06
3.30094e-06
3.1554e-06
3.0139e-06
2.87748e-06
2.74686e-06
2.62251e-06
2.50464e-06
2.39326e-06
2.28826e-06
2.18936e-06
2.09623e-06
2.00853e-06
1.9259e-06
1.84815e-06
1.77495e-06
1.70721e-06
1.64233e-06
3.90134e-06
4.01279e-06
3.93587e-06
3.87357e-06
3.99156e-06
4.21739e-06
4.42617e-06
4.5676e-06
4.63812e-06
4.64743e-06
4.61184e-06
4.54922e-06
4.47396e-06
4.39595e-06
4.32126e-06
4.25298e-06
4.19206e-06
4.13815e-06
4.09024e-06
4.04709e-06
4.00745e-06
3.97018e-06
3.93435e-06
3.89916e-06
3.86397e-06
3.82824e-06
3.79151e-06
3.75343e-06
3.71378e-06
3.67253e-06
3.62986e-06
3.58734e-06
3.54364e-06
4.36352e-06
4.94786e-06
5.93688e-06
6.42853e-06
6.55114e-06
6.53394e-06
6.52989e-06
6.64232e-06
6.89968e-06
7.26961e-06
7.70251e-06
8.1544e-06
8.59196e-06
8.99306e-06
9.34525e-06
9.64303e-06
9.88552e-06
1.00748e-05
1.02146e-05
1.03095e-05
1.03644e-05
1.03842e-05
1.03734e-05
1.03361e-05
1.02759e-05
1.0196e-05
1.0099e-05
9.98669e-06
9.86101e-06
9.72299e-06
9.57439e-06
9.41744e-06
9.2537e-06
7.55665e-06
5.82552e-06
4.63663e-06
6.23564e-06
8.96654e-06
1.16731e-05
1.39993e-05
1.58857e-05
1.73324e-05
1.8355e-05
1.89913e-05
1.929e-05
1.93013e-05
1.90748e-05
1.86575e-05
1.8092e-05
1.74155e-05
1.66597e-05
1.58513e-05
1.50118e-05
1.41583e-05
1.33042e-05
1.24597e-05
1.16322e-05
1.0827e-05
1.00471e-05
9.29431e-06
8.5686e-06
7.86932e-06
7.19269e-06
6.53919e-06
5.89739e-06
5.28207e-06
8.58177e-06
1.47249e-05
1.88233e-05
2.12223e-05
2.23088e-05
2.18367e-05
1.9983e-05
1.72005e-05
1.39556e-05
1.08629e-05
8.91449e-06
9.1913e-06
1.14758e-05
1.46789e-05
1.81091e-05
2.14617e-05
2.46049e-05
2.74828e-05
3.00758e-05
3.2384e-05
3.44179e-05
3.61936e-05
3.773e-05
3.9047e-05
4.01645e-05
4.11018e-05
4.18774e-05
4.25095e-05
4.30155e-05
4.34176e-05
4.37313e-05
4.40152e-05
4.42588e-05
3.46387e-05
3.72113e-05
4.66423e-05
6.17543e-05
7.74405e-05
9.28111e-05
0.000107166
0.000119799
0.000130526
0.000139392
0.000146511
0.000152047
0.000156188
0.000159121
0.000161022
0.000162049
0.000162345
0.000162032
0.000161217
0.000159992
0.000158432
0.000156603
0.000154561
0.000152349
0.000150005
0.00014756
0.00014504
0.000142462
0.000139844
0.000137192
0.000134507
0.000131878
0.000129314
0.000608443
0.000582494
0.00055686
0.000530385
0.000504373
0.000479144
0.000454741
0.000431434
0.000409405
0.000388709
0.000369362
0.000351346
0.000334614
0.000319094
0.000304708
0.00029137
0.000278996
0.0002675
0.000256803
0.00024683
0.000237513
0.000228788
0.000220599
0.000212894
0.000205626
0.000198755
0.000192241
0.00018605
0.000180141
0.000174494
0.000168978
0.000164133
0.000159733
8.57285e-05
7.51039e-05
6.51299e-05
5.8093e-05
5.49061e-05
5.66799e-05
6.1811e-05
6.77363e-05
7.43775e-05
8.29919e-05
9.28216e-05
0.000103792
0.000113199
9.40322e-05
7.69685e-05
7.477e-05
7.18777e-05
6.72812e-05
6.21742e-05
5.75136e-05
5.39305e-05
5.18379e-05
5.05221e-05
4.93341e-05
4.91121e-05
4.91984e-05
4.91845e-05
4.96508e-05
5.02222e-05
4.91379e-05
4.53468e-05
3.89293e-05
3.09221e-05
2.31646e-05
1.76093e-05
1.53957e-05
1.59317e-05
1.76972e-05
1.96848e-05
2.14666e-05
2.28637e-05
2.37361e-05
2.39219e-05
2.33804e-05
2.23637e-05
2.12879e-05
2.03758e-05
1.95469e-05
1.86401e-05
1.75986e-05
1.64618e-05
1.52923e-05
1.41387e-05
1.30327e-05
1.19954e-05
1.10399e-05
1.01719e-05
9.3907e-06
8.69118e-06
8.06542e-06
7.50497e-06
7.01692e-06
6.64164e-06
6.41478e-06
6.34444e-06
6.67385e-06
8.00813e-06
1.09101e-05
1.80132e-05
2.91044e-05
3.89304e-05
4.43361e-05
4.55067e-05
4.32714e-05
3.79977e-05
3.02907e-05
2.10274e-05
1.07145e-05
2.69937e-06
1.59224e-05
3.29491e-05
4.77075e-05
5.33897e-05
4.8486e-05
3.74539e-05
2.59208e-05
1.70625e-05
1.14127e-05
8.24837e-06
6.75056e-06
6.3049e-06
6.50328e-06
6.94758e-06
7.9628e-06
9.08375e-06
1.2204e-05
1.41401e-05
2.60958e-05
3.07325e-05
3.17355e-05
0.000116378
0.000108607
9.84497e-05
9.0149e-05
8.46194e-05
8.13941e-05
7.8525e-05
7.54234e-05
7.44583e-05
7.81591e-05
8.56042e-05
9.35483e-05
0.000107274
0.000111236
8.75691e-05
7.73207e-05
7.4686e-05
7.05412e-05
6.51856e-05
5.9902e-05
5.56979e-05
5.29324e-05
5.06027e-05
4.86492e-05
4.73922e-05
4.57019e-05
4.47516e-05
4.53148e-05
4.55938e-05
4.37354e-05
3.96193e-05
3.34565e-05
2.60576e-05
1.9214e-05
1.47582e-05
1.33795e-05
1.40951e-05
1.55948e-05
1.72111e-05
1.86586e-05
1.97574e-05
2.03838e-05
2.05284e-05
2.03424e-05
2.00468e-05
1.97466e-05
1.93771e-05
1.88337e-05
1.80861e-05
1.71762e-05
1.61675e-05
1.51149e-05
1.40592e-05
1.30311e-05
1.2053e-05
1.11399e-05
1.02997e-05
9.53419e-06
8.84172e-06
8.2191e-06
7.66248e-06
7.18181e-06
6.82086e-06
6.62503e-06
6.59981e-06
6.92812e-06
8.22519e-06
1.09832e-05
1.76529e-05
2.9015e-05
3.97032e-05
4.57441e-05
4.71355e-05
4.49087e-05
3.95622e-05
3.16306e-05
2.18901e-05
1.09777e-05
2.3217e-06
1.6956e-05
3.51779e-05
5.03149e-05
5.52711e-05
4.92254e-05
3.74219e-05
2.57216e-05
1.70786e-05
1.16803e-05
8.60769e-06
7.08206e-06
6.58217e-06
6.73428e-06
7.12862e-06
8.10307e-06
9.14697e-06
1.23298e-05
1.4163e-05
2.5801e-05
3.20483e-05
3.18624e-05
0.000104041
0.000103716
0.000100251
9.51256e-05
8.89248e-05
8.17718e-05
7.33383e-05
6.49472e-05
6.05084e-05
6.26156e-05
6.93548e-05
7.73812e-05
8.85529e-05
0.000105143
9.92135e-05
8.05507e-05
7.46112e-05
7.10593e-05
6.62201e-05
6.08827e-05
5.63272e-05
5.28573e-05
4.97666e-05
4.73188e-05
4.4394e-05
4.06983e-05
3.96438e-05
4.0699e-05
4.05523e-05
3.84805e-05
3.50259e-05
2.96415e-05
2.29634e-05
1.70085e-05
1.34142e-05
1.22875e-05
1.25788e-05
1.34179e-05
1.44445e-05
1.55026e-05
1.64739e-05
1.72738e-05
1.78832e-05
1.83297e-05
1.86206e-05
1.87139e-05
1.85616e-05
1.81576e-05
1.75395e-05
1.67626e-05
1.5881e-05
1.49408e-05
1.39798e-05
1.30283e-05
1.21094e-05
1.12393e-05
1.04279e-05
9.67949e-06
8.99584e-06
8.37809e-06
7.82682e-06
7.35381e-06
7.0052e-06
6.8321e-06
6.83743e-06
7.15177e-06
8.38251e-06
1.10269e-05
1.71833e-05
2.86435e-05
4.02666e-05
4.71418e-05
4.88879e-05
4.6741e-05
4.14005e-05
3.33861e-05
2.34327e-05
1.27082e-05
6.16813e-06
1.92338e-05
3.83188e-05
5.34925e-05
5.73181e-05
4.98863e-05
3.72952e-05
2.55363e-05
1.72015e-05
1.20593e-05
9.03183e-06
7.43503e-06
6.84837e-06
6.92459e-06
7.25637e-06
8.20203e-06
9.19507e-06
1.2402e-05
1.42003e-05
2.5302e-05
3.31668e-05
3.23022e-05
7.4321e-05
7.40669e-05
7.17504e-05
6.75424e-05
6.14158e-05
5.33239e-05
4.40018e-05
3.66741e-05
3.60679e-05
4.12382e-05
4.76842e-05
5.44971e-05
6.37735e-05
8.1743e-05
9.62154e-05
8.59943e-05
7.407e-05
6.92223e-05
6.46466e-05
5.97392e-05
5.53671e-05
5.15667e-05
4.81366e-05
4.45763e-05
3.8538e-05
3.36942e-05
3.39568e-05
3.54142e-05
3.49142e-05
3.39753e-05
3.19557e-05
2.71869e-05
2.10186e-05
1.58845e-05
1.29307e-05
1.172e-05
1.14289e-05
1.16584e-05
1.2284e-05
1.31979e-05
1.42579e-05
1.53243e-05
1.62857e-05
1.70576e-05
1.75779e-05
1.78152e-05
1.77739e-05
1.74863e-05
1.69964e-05
1.63503e-05
1.55919e-05
1.47614e-05
1.38941e-05
1.30194e-05
1.21607e-05
1.13352e-05
1.05544e-05
9.82525e-06
9.15241e-06
8.5412e-06
7.99681e-06
7.53255e-06
7.19633e-06
7.04634e-06
7.08179e-06
7.37837e-06
8.50381e-06
1.10415e-05
1.66436e-05
2.79917e-05
4.06109e-05
4.85742e-05
5.08579e-05
4.88614e-05
4.35676e-05
3.55579e-05
2.56208e-05
1.55743e-05
1.07458e-05
2.28777e-05
4.24328e-05
5.70823e-05
5.92453e-05
5.02272e-05
3.69782e-05
2.54017e-05
1.75116e-05
1.2605e-05
9.55034e-06
7.83428e-06
7.13504e-06
7.10908e-06
7.35156e-06
8.25686e-06
9.21987e-06
1.24244e-05
1.42683e-05
2.46584e-05
3.40943e-05
3.29908e-05
2.69595e-05
2.66213e-05
2.45883e-05
2.08549e-05
1.55588e-05
9.8275e-06
9.5678e-06
1.68388e-05
2.44605e-05
2.9436e-05
3.18505e-05
3.40637e-05
3.91057e-05
5.21745e-05
7.38998e-05
8.34691e-05
7.48174e-05
6.68639e-05
6.14352e-05
5.59607e-05
5.11771e-05
4.70033e-05
4.28786e-05
3.65381e-05
2.83958e-05
2.59502e-05
2.83511e-05
2.94082e-05
3.01055e-05
3.19353e-05
3.07042e-05
2.56879e-05
1.97885e-05
1.53402e-05
1.26684e-05
1.11186e-05
1.02828e-05
1.01281e-05
1.0634e-05
1.16226e-05
1.28433e-05
1.40785e-05
1.51748e-05
1.60385e-05
1.66272e-05
1.69384e-05
1.69938e-05
1.68238e-05
1.64614e-05
1.59414e-05
1.53006e-05
1.45754e-05
1.37991e-05
1.30003e-05
1.22019e-05
1.14217e-05
1.06727e-05
9.96385e-06
9.3028e-06
8.69847e-06
8.16063e-06
7.70446e-06
7.37739e-06
7.24628e-06
7.31537e-06
7.60974e-06
8.61146e-06
1.10238e-05
1.60651e-05
2.7012e-05
4.05868e-05
4.99183e-05
5.30036e-05
5.12737e-05
4.60766e-05
3.81586e-05
2.84758e-05
1.93931e-05
1.58926e-05
2.78045e-05
4.74628e-05
6.08892e-05
6.08358e-05
5.01331e-05
3.64718e-05
2.53578e-05
1.80038e-05
1.32682e-05
1.01111e-05
8.24155e-06
7.41832e-06
7.282e-06
7.42459e-06
8.2779e-06
9.22448e-06
1.23986e-05
1.4365e-05
2.38984e-05
3.47859e-05
3.3789e-05
6.91154e-06
8.18973e-06
1.02079e-05
1.26609e-05
1.55317e-05
1.8808e-05
2.21607e-05
2.48776e-05
2.62298e-05
2.60336e-05
2.49837e-05
2.44433e-05
2.59597e-05
3.24162e-05
4.6649e-05
6.49303e-05
7.07768e-05
6.483e-05
5.81769e-05
5.18338e-05
4.52659e-05
3.9096e-05
3.23985e-05
2.36942e-05
1.84176e-05
2.02077e-05
2.23577e-05
2.38384e-05
2.92803e-05
3.27111e-05
3.01624e-05
2.4321e-05
1.87626e-05
1.48135e-05
1.20984e-05
1.01419e-05
8.94003e-06
8.66444e-06
9.25286e-06
1.03795e-05
1.17053e-05
1.29995e-05
1.4129e-05
1.50275e-05
1.56729e-05
1.60693e-05
1.62321e-05
1.61809e-05
1.59394e-05
1.55372e-05
1.50074e-05
1.43835e-05
1.36964e-05
1.29727e-05
1.22347e-05
1.15004e-05
1.07838e-05
1.00962e-05
9.44767e-06
8.85028e-06
8.31818e-06
7.86877e-06
7.54774e-06
7.42822e-06
7.52689e-06
7.83425e-06
8.71723e-06
1.09725e-05
1.5491e-05
2.57119e-05
4.00563e-05
5.10222e-05
5.52722e-05
5.40182e-05
4.90132e-05
4.12837e-05
3.20678e-05
2.40142e-05
2.17743e-05
3.40805e-05
5.33351e-05
6.46319e-05
6.18012e-05
4.94652e-05
3.57882e-05
2.54577e-05
1.86838e-05
1.40247e-05
1.06943e-05
8.6446e-06
7.68512e-06
7.4294e-06
7.46933e-06
8.26792e-06
9.21341e-06
1.233e-05
1.44904e-05
2.30477e-05
3.52334e-05
3.45812e-05
1.09169e-05
1.21652e-05
1.391e-05
1.58067e-05
1.76032e-05
1.91444e-05
2.02952e-05
2.0955e-05
2.11768e-05
2.12341e-05
2.14999e-05
2.23641e-05
2.40242e-05
2.71453e-05
3.38807e-05
4.38843e-05
5.51585e-05
5.8576e-05
5.44284e-05
4.81071e-05
4.10318e-05
3.33232e-05
2.46769e-05
1.74272e-05
1.54775e-05
1.53127e-05
1.58125e-05
2.48412e-05
3.32651e-05
3.3946e-05
2.8909e-05
2.26734e-05
1.76755e-05
1.39925e-05
1.10921e-05
8.83925e-06
7.47791e-06
7.24859e-06
7.97926e-06
9.21585e-06
1.05962e-05
1.19188e-05
1.30807e-05
1.40319e-05
1.4753e-05
1.52421e-05
1.55072e-05
1.55631e-05
1.54313e-05
1.51383e-05
1.47139e-05
1.41878e-05
1.35877e-05
1.29381e-05
1.22602e-05
1.15721e-05
1.08887e-05
1.02228e-05
9.58707e-06
8.9963e-06
8.46863e-06
8.02414e-06
7.70618e-06
7.5912e-06
7.71182e-06
8.04098e-06
8.82498e-06
1.08843e-05
1.49511e-05
2.41514e-05
3.89028e-05
5.17014e-05
5.7579e-05
5.71355e-05
5.2483e-05
4.50549e-05
3.64717e-05
2.94473e-05
2.86435e-05
4.16785e-05
5.97412e-05
6.78485e-05
6.18115e-05
4.81485e-05
3.50102e-05
2.57533e-05
1.95153e-05
1.4819e-05
1.12659e-05
9.02986e-06
7.92926e-06
7.54384e-06
7.47766e-06
8.22255e-06
9.18637e-06
1.22223e-05
1.46452e-05
2.21273e-05
3.54475e-05
3.52825e-05
7.12024e-06
8.12586e-06
9.46578e-06
1.09208e-05
1.23179e-05
1.35765e-05
1.4686e-05
1.56944e-05
1.66985e-05
1.78304e-05
1.9196e-05
2.09324e-05
2.32896e-05
2.59681e-05
3.04408e-05
3.65268e-05
4.10734e-05
4.50534e-05
4.59294e-05
4.26641e-05
3.70266e-05
3.00646e-05
2.2861e-05
1.73159e-05
1.10376e-05
6.95204e-06
2.12989e-05
3.36748e-05
3.70684e-05
3.30933e-05
2.65964e-05
2.08451e-05
1.64314e-05
1.28618e-05
9.84351e-06
7.4691e-06
6.06851e-06
5.91654e-06
6.76831e-06
8.08972e-06
9.52108e-06
1.08856e-05
1.20956e-05
1.31061e-05
1.38973e-05
1.44654e-05
1.48176e-05
1.49682e-05
1.49366e-05
1.47462e-05
1.44223e-05
1.39905e-05
1.34751e-05
1.28985e-05
1.22804e-05
1.16386e-05
1.09885e-05
1.03446e-05
9.72162e-06
9.13677e-06
8.61172e-06
8.1697e-06
7.8516e-06
7.73418e-06
7.86765e-06
8.22235e-06
8.93646e-06
1.07645e-05
1.44502e-05
2.24395e-05
3.70337e-05
5.16903e-05
5.97243e-05
6.0596e-05
5.65788e-05
4.96214e-05
4.18109e-05
3.58571e-05
3.67997e-05
5.04546e-05
6.61375e-05
6.99438e-05
6.05591e-05
4.62024e-05
3.42587e-05
2.62482e-05
2.04197e-05
1.55876e-05
1.17975e-05
9.389e-06
8.14744e-06
7.62199e-06
7.44497e-06
8.13663e-06
9.13943e-06
1.20752e-05
1.48258e-05
2.11601e-05
3.54332e-05
3.58171e-05
5.33978e-06
6.13224e-06
7.15874e-06
8.29165e-06
9.43023e-06
1.05373e-05
1.16174e-05
1.26988e-05
1.3834e-05
1.51078e-05
1.66332e-05
1.85035e-05
2.09404e-05
2.40105e-05
2.76033e-05
3.33392e-05
3.86257e-05
3.94513e-05
3.73739e-05
3.41359e-05
2.97123e-05
2.40421e-05
1.76059e-05
9.56876e-06
9.00027e-06
2.38664e-05
3.60643e-05
3.99569e-05
3.65036e-05
3.00212e-05
2.3905e-05
1.90591e-05
1.50921e-05
1.16374e-05
8.64082e-06
6.24876e-06
4.79852e-06
4.67389e-06
5.6336e-06
7.04715e-06
8.54017e-06
9.95031e-06
1.12018e-05
1.22574e-05
1.31016e-05
1.37333e-05
1.41604e-05
1.43961e-05
1.4457e-05
1.43628e-05
1.41344e-05
1.37935e-05
1.33608e-05
1.28559e-05
1.22971e-05
1.17015e-05
1.10848e-05
1.04628e-05
9.85208e-06
9.27205e-06
8.74727e-06
8.30458e-06
7.98307e-06
7.85657e-06
7.99207e-06
8.3711e-06
9.04855e-06
1.06325e-05
1.39703e-05
2.07277e-05
3.44427e-05
5.06733e-05
6.13562e-05
6.42323e-05
6.1328e-05
5.51375e-05
4.82564e-05
4.35302e-05
4.64296e-05
5.99233e-05
7.16471e-05
7.02252e-05
5.78509e-05
4.37954e-05
3.36725e-05
2.68876e-05
2.12937e-05
1.62698e-05
1.22702e-05
9.72018e-06
8.33962e-06
7.66306e-06
7.36927e-06
8.00614e-06
9.06733e-06
1.18871e-05
1.50217e-05
2.01793e-05
3.51929e-05
3.61253e-05
4.54775e-06
5.16687e-06
5.95081e-06
6.82527e-06
7.72538e-06
8.62567e-06
9.53439e-06
1.04878e-05
1.15468e-05
1.27877e-05
1.42993e-05
1.61642e-05
1.84503e-05
2.13287e-05
2.46939e-05
2.89671e-05
3.51178e-05
4.00811e-05
4.05245e-05
3.71193e-05
3.21137e-05
2.74012e-05
2.45451e-05
2.6528e-05
3.39075e-05
4.08803e-05
4.24978e-05
3.86747e-05
3.2413e-05
2.64203e-05
2.15312e-05
1.74429e-05
1.3809e-05
1.05308e-05
7.64026e-06
5.24494e-06
3.66709e-06
3.51537e-06
4.60837e-06
6.1273e-06
7.67638e-06
9.11726e-06
1.03927e-05
1.14767e-05
1.23598e-05
1.30435e-05
1.35356e-05
1.38477e-05
1.39937e-05
1.39894e-05
1.3852e-05
1.35987e-05
1.32465e-05
1.28123e-05
1.23123e-05
1.17626e-05
1.11791e-05
1.05786e-05
9.97918e-06
9.40233e-06
8.87496e-06
8.42759e-06
8.09888e-06
7.95731e-06
8.08296e-06
8.48009e-06
9.15129e-06
1.05164e-05
1.34891e-05
1.91631e-05
3.12743e-05
4.836e-05
6.19545e-05
6.76435e-05
6.65794e-05
6.16496e-05
5.5936e-05
5.26958e-05
5.73086e-05
6.90662e-05
7.50878e-05
6.80556e-05
5.37397e-05
4.1248e-05
3.33332e-05
2.7553e-05
2.2035e-05
1.68285e-05
1.26844e-05
1.00303e-05
8.50866e-06
7.66771e-06
7.24965e-06
7.82826e-06
8.96493e-06
1.16579e-05
1.52145e-05
1.92274e-05
3.47328e-05
3.61703e-05
3.903e-06
4.38603e-06
4.98369e-06
5.6518e-06
6.35098e-06
7.0711e-06
7.83121e-06
8.67384e-06
9.65736e-06
1.0847e-05
1.23059e-05
1.40987e-05
1.62605e-05
1.88367e-05
2.18647e-05
2.52433e-05
2.96006e-05
3.52714e-05
4.01468e-05
4.22682e-05
4.20113e-05
4.10467e-05
4.12244e-05
4.3015e-05
4.44499e-05
4.31781e-05
3.89235e-05
3.3329e-05
2.8032e-05
2.35393e-05
1.9617e-05
1.60156e-05
1.26732e-05
9.61034e-06
6.85061e-06
4.44626e-06
2.66679e-06
2.44285e-06
3.72191e-06
5.34408e-06
6.9293e-06
8.38092e-06
9.66348e-06
1.07619e-05
1.16719e-05
1.23967e-05
1.2944e-05
1.33237e-05
1.35473e-05
1.36272e-05
1.35763e-05
1.34074e-05
1.3134e-05
1.27694e-05
1.23277e-05
1.18237e-05
1.12732e-05
1.06933e-05
1.01039e-05
9.52803e-06
8.99469e-06
8.53778e-06
8.19722e-06
8.03526e-06
8.13891e-06
8.54234e-06
9.22795e-06
1.04371e-05
1.30109e-05
1.78227e-05
2.78531e-05
4.46165e-05
6.08747e-05
7.00959e-05
7.1813e-05
6.88639e-05
6.46939e-05
6.31266e-05
6.84134e-05
7.62176e-05
7.5137e-05
6.30929e-05
4.86438e-05
3.8949e-05
3.32114e-05
2.81103e-05
2.25857e-05
1.72689e-05
1.30635e-05
1.03341e-05
8.66043e-06
7.63807e-06
7.08497e-06
7.59967e-06
8.82681e-06
1.13914e-05
1.53823e-05
1.83524e-05
3.40695e-05
3.59444e-05
3.33258e-06
3.70432e-06
4.15542e-06
4.66189e-06
5.20428e-06
5.7842e-06
6.42628e-06
7.17507e-06
8.08659e-06
9.21738e-06
1.06131e-05
1.23077e-05
1.43213e-05
1.66588e-05
1.93338e-05
2.22677e-05
2.54191e-05
2.9211e-05
3.368e-05
3.77855e-05
4.05885e-05
4.20629e-05
4.26924e-05
4.23098e-05
4.03394e-05
3.68456e-05
3.26593e-05
2.85844e-05
2.48598e-05