/*--------------------------------*- C++ -*----------------------------------*\
| =========                 |                                                 |
| \\      /  F ield         | OpenFOAM: The Open Source CFD Toolbox           |
|  \\    /   O peration     | Version:  2.1.1                                 |
|   \\  /    A nd           | Web:      www.OpenFOAM.org                      |
|    \\/     M anipulation  |                                                 |
\*---------------------------------------------------------------------------*/
FoamFile
{
    version     2.0;
    format      ascii;
    class       volScalarField;
    location    "0.16";
    object      p;
}
// * * * * * * * * * * * * * * * * * * * * * * * * * * * * * * * * * * * * * //

dimensions      [0 2 -2 0 0 0 0];

internalField   nonuniform List<scalar> 
6820
(
10.4076
-7.42839
-10.4376
-10.6261
-10.8004
-10.7289
-10.6742
-10.6887
-10.738
-10.8071
-10.8875
-10.9739
-11.0642
-11.1572
-11.2524
-11.3498
-11.4491
-11.5504
-11.6537
-11.7591
-11.8668
-11.9768
-12.0894
-12.2045
-12.3229
-12.4439
-12.5679
-12.6945
-12.8241
-12.9532
-13.0893
-13.2037
-13.3691
3.72649
-7.2471
-10.1263
-10.4278
-10.682
-10.7065
-10.6883
-10.7139
-10.765
-10.831
-10.9074
-10.9902
-11.0774
-11.1679
-11.2614
-11.3573
-11.4556
-11.5561
-11.6589
-11.7639
-11.8713
-11.9812
-12.0936
-12.2089
-12.3267
-12.4476
-12.5717
-12.6985
-12.8286
-12.96
-13.0984
-13.2314
-13.4254
1.01195
-5.81666
-9.10578
-9.86523
-10.3352
-10.5344
-10.5949
-10.6532
-10.7236
-10.802
-10.887
-10.9763
-11.0684
-11.1626
-11.2584
-11.3559
-11.4551
-11.5561
-11.659
-11.7638
-11.8709
-11.9803
-12.0922
-12.2067
-12.3241
-12.4447
-12.5686
-12.6957
-12.8266
-12.9611
-13.104
-13.2489
-13.4293
-0.973304
-5.58931
-8.68411
-9.54506
-10.019
-10.2974
-10.4281
-10.5305
-10.632
-10.7308
-10.8287
-10.9267
-11.0251
-11.1243
-11.2242
-11.325
-11.4269
-11.53
-11.6346
-11.7408
-11.8487
-11.9588
-12.071
-12.1858
-12.3033
-12.4239
-12.5481
-12.6762
-12.8096
-12.9496
-13.1019
-13.2689
-13.4782
-2.60869
-5.68968
-8.29236
-9.19762
-9.70739
-10.0652
-10.2661
-10.4083
-10.5344
-10.65
-10.7596
-10.8665
-10.9717
-11.0757
-11.1794
-11.2832
-11.3873
-11.492
-11.5977
-11.7044
-11.8125
-11.9222
-12.0338
-12.1477
-12.2642
-12.3838
-12.5073
-12.6356
-12.7706
-12.9147
-13.0742
-13.256
-13.4825
-3.83114
-5.87045
-8.04139
-8.98738
-9.51626
-9.90118
-10.1371
-10.3021
-10.4442
-10.5726
-10.6917
-10.8057
-10.9166
-11.0252
-11.1324
-11.2387
-11.3447
-11.4507
-11.557
-11.6639
-11.7718
-11.8809
-11.9915
-12.1041
-12.219
-12.337
-12.459
-12.5861
-12.7208
-12.8659
-13.0278
-13.2143
-13.4444
-4.78157
-6.1566
-7.92383
-8.83257
-9.34911
-9.74228
-10.0083
-10.1988
-10.3589
-10.5007
-10.6295
-10.7505
-10.8666
-10.9791
-11.0891
-11.1976
-11.3051
-11.4121
-11.5189
-11.6259
-11.7333
-11.8416
-11.951
-12.0621
-12.1752
-12.2911
-12.4109
-12.5358
-12.6682
-12.8112
-12.9702
-13.1513
-13.367
-5.52717
-6.46239
-7.87229
-8.71644
-9.22143
-9.61618
-9.90093
-10.1086
-10.2807
-10.4318
-10.5681
-10.6948
-10.8154
-10.9316
-11.0445
-11.1552
-11.2643
-11.3723
-11.4796
-11.5865
-11.6935
-11.8009
-11.9089
-12.0182
-12.1292
-12.2425
-12.3593
-12.4808
-12.609
-12.7464
-12.8973
-13.0658
-13.2596
-6.11891
-6.76553
-7.88195
-8.64586
-9.12838
-9.51146
-9.80254
-10.0217
-10.2037
-10.3635
-10.5071
-10.6397
-10.7648
-10.8846
-11.0003
-11.1129
-11.2234
-11.3321
-11.4397
-11.5464
-11.6527
-11.7589
-11.8653
-11.9724
-12.0807
-12.1909
-12.3037
-12.4204
-12.5425
-12.6719
-12.8114
-12.9634
-13.1313
-6.59462
-7.05037
-7.92934
-8.60457
-9.05805
-9.42522
-9.71709
-9.94407
-10.1335
-10.2997
-10.4489
-10.5861
-10.7149
-10.8375
-10.9555
-11.0699
-11.1814
-11.2908
-11.3985
-11.5048
-11.6102
-11.715
-11.8196
-11.9242
-12.0294
-12.1358
-12.244
-12.3548
-12.4694
-12.5889
-12.7148
-12.8479
-12.9889
-6.98119
-7.30923
-8.00065
-8.58873
-9.00974
-9.35754
-9.64396
-9.87365
-10.0672
-10.2379
-10.3916
-10.5327
-10.6649
-10.7903
-10.9104
-11.0264
-11.139
-11.2489
-11.3565
-11.4623
-11.5667
-11.6699
-11.7722
-11.8741
-11.9758
-12.0779
-12.1807
-12.2847
-12.3907
-12.4991
-12.6103
-12.7241
-12.8392
-7.29827
-7.53973
-8.08499
-8.59148
-8.97751
-9.30376
-9.58094
-9.81011
-10.006
-10.1797
-10.3368
-10.4811
-10.616
-10.7437
-10.8655
-10.9827
-11.0961
-11.2062
-11.3136
-11.4187
-11.5218
-11.6231
-11.7231
-11.8219
-11.9198
-12.0171
-12.114
-12.2108
-12.3076
-12.4044
-12.5008
-12.5958
-12.6872
-7.56019
-7.74195
-8.17424
-8.60749
-8.95827
-9.26234
-9.52787
-9.75366
-9.94957
-10.1247
-10.2839
-10.4305
-10.5676
-10.6971
-10.8204
-10.9387
-11.0526
-11.1629
-11.2699
-11.3741
-11.4758
-11.5753
-11.6726
-11.7682
-11.862
-11.9543
-12.045
-12.1343
-12.2217
-12.307
-12.3892
-12.4669
-12.5374
-7.77749
-7.91733
-8.26277
-8.63216
-8.94865
-9.23052
-9.48286
-9.70313
-9.89745
-10.0728
-10.2332
-10.3815
-10.5202
-10.6512
-10.7757
-10.8947
-11.009
-11.1192
-11.2257
-11.3289
-11.4291
-11.5264
-11.621
-11.7131
-11.8027
-11.8898
-11.9743
-12.0559
-12.1343
-12.2086
-12.2778
-12.34
-12.3927
-7.95802
-8.06787
-8.34664
-8.66154
-8.94583
-9.20619
-9.44477
-9.65814
-9.84956
-10.024
-10.1847
-10.3339
-10.4738
-10.6058
-10.7311
-10.8508
-10.9653
-11.0753
-11.1811
-11.2832
-11.3817
-11.4768
-11.5686
-11.6572
-11.7425
-11.8245
-11.9029
-11.9772
-12.047
-12.1113
-12.1687
-12.2178
-12.2559
-8.10764
-8.19564
-8.42324
-8.69245
-8.94727
-9.18729
-9.41212
-9.61772
-9.80525
-9.97801
-10.1383
-10.2879
-10.4284
-10.5612
-10.6872
-10.8071
-10.9217
-11.0314
-11.1364
-11.2373
-11.334
-11.4268
-11.5158
-11.6009
-11.682
-11.759
-11.8315
-11.899
-11.9609
-12.0162
-12.0637
-12.1018
-12.1283
-8.23075
-8.30259
-8.49087
-8.72226
-8.95075
-9.17196
-9.38356
-9.58106
-9.76412
-9.93459
-10.094
-10.2435
-10.3843
-10.5175
-10.6439
-10.764
-10.8785
-10.9877
-11.0919
-11.1915
-11.2865
-11.377
-11.4632
-11.5449
-11.622
-11.6942
-11.7613
-11.8226
-11.8776
-11.9252
-11.9643
-11.9937
-12.0114
-8.33067
-8.39039
-8.54841
-8.74886
-8.95433
-9.15853
-9.35775
-9.54722
-9.72552
-9.89334
-10.0514
-10.2005
-10.3414
-10.4748
-10.6014
-10.7216
-10.8358
-10.9445
-11.0478
-11.1461
-11.2393
-11.3276
-11.411
-11.4894
-11.5627
-11.6306
-11.6927
-11.7486
-11.7975
-11.8387
-11.8712
-11.8939
-11.9052
-8.40987
-8.46044
-8.59515
-8.77057
-8.95632
-9.14546
-9.33344
-9.51531
-9.68889
-9.85395
-10.0106
-10.1591
-10.2999
-10.4334
-10.56
-10.6802
-10.7942
-10.9023
-11.0047
-11.1017
-11.1932
-11.2794
-11.3603
-11.4357
-11.5055
-11.5695
-11.6273
-11.6784
-11.7224
-11.7585
-11.7858
-11.8037
-11.8109
-8.47017
-8.5138
-8.63061
-8.78602
-8.95522
-9.13137
-9.30946
-9.48442
-9.65357
-9.81596
-9.97116
-10.119
-10.2596
-10.393
-10.5197
-10.6398
-10.7535
-10.861
-10.9625
-11.0582
-11.1481
-11.2323
-11.3107
-11.3834
-11.4501
-11.5106
-11.5646
-11.6118
-11.6517
-11.6837
-11.7074
-11.722
-11.7267
-8.51284
-8.55122
-8.65438
-8.79405
-8.94973
-9.11501
-9.2847
-9.4537
-9.61898
-9.77905
-9.93299
-10.0803
-10.2207
-10.3543
-10.4811
-10.6011
-10.7146
-10.8216
-10.9224
-11.017
-11.1054
-11.1878
-11.2642
-11.3344
-11.3983
-11.4559
-11.5069
-11.5509
-11.5877
-11.6169
-11.638
-11.6508
-11.6545
-8.5387
-8.57316
-8.66608
-8.79366
-8.93866
-9.09521
-9.25811
-9.42228
-9.58443
-9.74264
-9.89565
-10.0426
-10.1831
-10.3168
-10.4437
-10.5637
-10.677
-10.7836
-10.8836
-10.9771
-11.0641
-11.1449
-11.2193
-11.2873
-11.3489
-11.4039
-11.4523
-11.4938
-11.5283
-11.5554
-11.575
-11.5869
-11.5907
-8.54815
-8.57977
-8.66526
-8.78393
-8.92093
-9.07093
-9.22879
-9.38948
-9.54952
-9.70667
-9.85937
-10.0065
-10.1474
-10.2816
-10.4089
-10.5292
-10.6426
-10.7489
-10.8484
-10.9411
-11.0272
-11.1065
-11.1793
-11.2456
-11.3052
-11.3583
-11.4048
-11.4444
-11.4773
-11.5032
-11.5221
-11.534
-11.5388
-8.54121
-8.5709
-8.65134
-8.76393
-8.89547
-9.04107
-9.19571
-9.35433
-9.51331
-9.67019
-9.82313
-9.97083
-10.1124
-10.2473
-10.3752
-10.4958
-10.6093
-10.7154
-10.8145
-10.9064
-10.9914
-11.0695
-11.1409
-11.2055
-11.2635
-11.3149
-11.3597
-11.398
-11.4297
-11.4549
-11.4737
-11.4862
-11.4923
-8.51752
-8.54608
-8.62358
-8.73272
-8.86134
-9.00488
-9.15836
-9.31672
-9.4762
-9.63411
-9.78843
-9.93764
-10.0807
-10.217
-10.346
-10.4676
-10.5816
-10.688
-10.7869
-10.8785
-10.9628
-11.0401
-11.1103
-11.1738
-11.2305
-11.2807
-11.3244
-11.3618
-11.3929
-11.418
-11.4371
-11.4504
-11.4582
-8.47629
-8.50446
-8.58099
-8.68914
-8.81726
-8.96093
-9.11518
-9.27484
-9.43604
-9.59592
-9.7523
-9.90352
-10.0485
-10.1863
-10.3167
-10.4392
-10.5538
-10.6605
-10.7594
-10.8506
-10.9342
-11.0106
-11.0799
-11.1422
-11.1978
-11.2469
-11.2896
-11.3263
-11.357
-11.382
-11.4016
-11.4161
-11.4256
-8.41628
-8.44482
-8.5224
-8.63224
-8.76269
-8.90934
-9.06712
-9.23067
-9.39593
-9.55986
-9.7201
-9.87489
-10.023
-10.1636
-10.2961
-10.4204
-10.5362
-10.6437
-10.743
-10.8342
-10.9176
-10.9934
-11.062
-11.1235
-11.1783
-11.2266
-11.2687
-11.3049
-11.3354
-11.3606
-11.3808
-11.3963
-11.4074
-8.33569
-8.36533
-8.44593
-8.55991
-8.69505
-8.84682
-9.00992
-9.17882
-9.34927
-9.51812
-9.6829
-9.84177
-9.99343
-10.137
-10.272
-10.3981
-10.5153
-10.6237
-10.7234
-10.8146
-10.8978
-10.9731
-11.0409
-11.1016
-11.1555
-11.203
-11.2444
-11.28
-11.3103
-11.3356
-11.3562
-11.3727
-11.3854
-8.2321
-8.26388
-8.35024
-8.4721
-8.61615
-8.77746
-8.95029
-9.12863
-9.30791
-9.4848
-9.65672
-9.82177
-9.97865
-10.1265
-10.265
-10.3938
-10.5129
-10.6226
-10.723
-10.8146
-10.8976
-10.9725
-11.0398
-11.0998
-11.1529
-11.1996
-11.2403
-11.2754
-11.3054
-11.3306
-11.3514
-11.3684
-11.3818
-8.10201
-8.13665
-8.23084
-8.36278
-8.51745
-8.6896
-8.87325
-9.06199
-9.25104
-9.43689
-9.61687
-9.78898
-9.95191
-10.1048
-10.2473
-10.3793
-10.5008
-10.612
-10.7134
-10.8054
-10.8884
-10.9629
-11.0295
-11.0887
-11.1409
-11.1867
-11.2265
-11.2608
-11.2902
-11.315
-11.3359
-11.3532
-11.3674
-7.94132
-7.98126
-8.08915
-8.23904
-8.41282
-8.60417
-8.80614
-9.01154
-9.21526
-9.41379
-9.60451
-9.78555
-9.95576
-10.1145
-10.2615
-10.3969
-10.5208
-10.6336
-10.7359
-10.8281
-10.911
-10.9849
-11.0507
-11.1087
-11.1598
-11.2043
-11.2429
-11.276
-11.3043
-11.3282
-11.3482
-11.3648
-11.3784
-7.74263
-7.78729
-7.90913
-8.07621
-8.26764
-8.47746
-8.69827
-8.92187
-9.14255
-9.35645
-9.56071
-9.75338
-9.93331
-10.1
-10.2532
-10.3933
-10.5206
-10.6357
-10.7393
-10.832
-10.9147
-10.9881
-11.0529
-11.1098
-11.1594
-11.2025
-11.2396
-11.2713
-11.2983
-11.321
-11.3402
-11.3562
-11.3696
-7.50083
-7.56014
-7.71475
-7.91989
-8.14712
-8.38939
-8.6386
-8.8862
-9.12689
-9.35741
-9.57531
-9.77903
-9.96778
-10.1413
-10.2998
-10.4437
-10.5736
-10.6902
-10.7943
-10.8869
-10.9688
-11.0409
-11.104
-11.1588
-11.2062
-11.2468
-11.2814
-11.3106
-11.335
-11.3552
-11.3718
-11.3853
-11.396
-7.19376
-7.2555
-7.43012
-7.66194
-7.91982
-8.19712
-8.48225
-8.76347
-9.03435
-9.29111
-9.53109
-9.75282
-9.95588
-10.1405
-10.3072
-10.4569
-10.5906
-10.7096
-10.8148
-10.9075
-10.9888
-11.0596
-11.121
-11.1738
-11.219
-11.2574
-11.2896
-11.3163
-11.3384
-11.3563
-11.3708
-11.3825
-11.3919
-6.83182
-6.94887
-7.2091
-7.51224
-7.82139
-8.13946
-8.45771
-8.76556
-9.05848
-9.33384
-9.58939
-9.82401
-10.0375
-10.2302
-10.403
-10.5568
-10.6929
-10.8127
-10.9175
-11.0086
-11.0874
-11.1551
-11.2128
-11.2615
-11.3023
-11.3359
-11.3633
-11.3851
-11.402
-11.4148
-11.424
-11.4303
-11.4343
-6.30232
-6.39322
-6.69116
-7.06214
-7.45224
-7.85402
-8.24694
-8.61718
-8.96108
-9.27672
-9.56303
-9.82054
-10.0507
-10.2551
-10.4358
-10.5946
-10.7336
-10.8546
-10.9594
-11.0496
-11.1268
-11.1923
-11.2475
-11.2935
-11.3312
-11.3618
-11.3858
-11.4042
-11.4175
-11.4265
-11.4318
-11.4344
-11.435
-5.80732
-6.1296
-6.59725
-7.01585
-7.42563
-7.85373
-8.27184
-8.66646
-9.03596
-9.37667
-9.68561
-9.96238
-10.2079
-10.4236
-10.6116
-10.7742
-10.9139
-11.0331
-11.134
-11.2188
-11.2893
-11.3475
-11.3947
-11.4324
-11.4618
-11.4838
-11.4993
-11.5091
-11.5136
-11.5135
-11.5091
-11.5013
-11.4905
-4.5052
-4.82701
-5.60002
-6.29954
-6.93579
-7.54187
-8.08576
-8.56719
-8.99648
-9.37747
-9.71353
-10.009
-10.2676
-10.4928
-10.6878
-10.8554
-10.9985
-11.1197
-11.2214
-11.3059
-11.3752
-11.4312
-11.4757
-11.51
-11.5355
-11.5532
-11.5639
-11.5683
-11.5667
-11.5593
-11.5455
-11.5268
-11.4988
-4.49313
-5.23834
-5.84354
-6.31152
-6.91256
-7.54701
-8.13815
-8.68846
-9.19167
-9.63725
-10.0243
-10.3564
-10.6377
-10.8732
-11.0683
-11.2282
-11.3577
-11.4614
-11.543
-11.6062
-11.6538
-11.6883
-11.7119
-11.7265
-11.7336
-11.7343
-11.7296
-11.7199
-11.7052
-11.6847
-11.6556
-11.6151
-11.549
1.75582
-2.85228
-4.63741
-5.48934
-6.49275
-7.36999
-8.07145
-8.6799
-9.21169
-9.66721
-10.0555
-10.3849
-10.6617
-10.8924
-11.0828
-11.2385
-11.3644
-11.4649
-11.5438
-11.6045
-11.6499
-11.6826
-11.7046
-11.7178
-11.7238
-11.7238
-11.719
-11.7103
-11.6987
-11.6839
-11.6687
-11.6483
-11.6338
-13.2621
-14.2112
-16.2779
-18.6628
-20.9689
-22.6698
-23.261
-22.0952
-18.4333
-12.2682
-4.89967
1.8158
6.45909
8.58693
8.14017
5.10891
-0.283423
-7.88403
-17.1999
-27.2925
-37.0125
-45.3852
-51.7128
-55.3818
-55.6734
-52.457
-46.46
-39.0377
-31.2546
-24.1317
-18.7047
-15.5086
-14.3819
-14.8027
-16.2355
-18.2474
-20.4951
-22.6888
-24.5709
-25.9115
-26.5205
-26.2724
-25.1332
-23.1749
-20.5615
-17.5131
-14.2654
-11.037
-8.00596
-5.29416
-2.96427
-1.0294
0.531113
1.75679
2.69485
3.393
3.89527
4.24018
4.46029
4.5826
4.62937
4.61871
4.56525
4.48005
4.36959
4.23521
4.07326
3.86993
3.59537
3.13771
2.13082
-0.125285
-4.45156
-11.3506
-20.5451
-30.4792
-38.6208
-42.5452
-41.1401
-34.276
-24.0225
-13.6696
-5.91369
-1.31131
1.09717
2.35008
3.03511
3.42122
3.64576
3.78963
3.89501
3.97647
4.04423
4.08995
4.13019
4.09876
4.045
3.7104
3.05731
1.67442
-13.533
-14.3944
-16.2883
-18.521
-20.6158
-22.0583
-22.3696
-20.9361
-17.1748
-11.2132
-4.24681
2.118
6.63632
8.68851
8.37833
5.39944
0.000776084
-7.59985
-16.9114
-26.9703
-36.6191
-44.8866
-51.0863
-54.6217
-54.8564
-51.7062
-45.9178
-38.7684
-31.2883
-24.4983
-19.3734
-16.3403
-15.1879
-15.429
-16.5929
-18.3
-20.2404
-22.1464
-23.7784
-24.9247
-25.4124
-25.1283
-24.0407
-22.2102
-19.7789
-16.941
-13.9069
-10.8748
-8.00843
-5.42266
-3.18033
-1.29946
0.233664
1.45149
2.39514
3.10746
3.62894
3.9956
4.23836
4.38314
4.45148
4.46098
4.42581
4.35668
4.25992
4.13653
3.98244
3.78448
3.51539
3.07916
2.14015
0.0315786
-4.04203
-10.5701
-19.2809
-28.6887
-36.3981
-40.1074
-38.7963
-32.3079
-22.6336
-12.9201
-5.67539
-1.35618
0.952341
2.195
2.89794
3.30625
3.55097
3.71175
3.82941
3.91974
3.99009
4.03917
4.06835
4.0457
3.9448
3.68288
2.85414
1.9747
-13.6686
-14.5741
-16.2801
-18.2291
-19.9676
-21.0606
-21.0384
-19.3749
-15.6811
-10.193
-3.94257
1.78336
6.01267
8.08585
7.82413
5.08195
-0.135952
-7.53754
-16.6365
-26.4814
-35.9174
-43.9758
-49.9721
-53.326
-53.4998
-50.4599
-44.9578
-38.1611
-31.0665
-24.6914
-19.9252
-17.0795
-15.9137
-15.9922
-16.9118
-18.3418
-20.0021
-21.6448
-23.0474
-24.0148
-24.39
-24.0708
-23.0275
-21.3116
-19.0463
-16.4022
-13.567
-10.7196
-8.00981
-5.54575
-3.38962
-1.56334
-0.0592584
1.14872
2.096
2.82082
3.3602
3.74767
4.01245
4.17934
4.26908
4.29871
4.2819
4.22897
4.14606
4.03396
3.88826
3.69625
3.43211
3.01367
2.13935
0.183991
-3.61618
-9.73879
-17.9247
-26.7683
-34.0197
-37.5087
-36.2937
-30.2085
-21.1611
-12.135
-5.4282
-1.39812
0.810819
2.04261
2.76169
3.19067
3.45474
3.63206
3.7618
3.86083
3.9335
3.98577
4.00344
3.98988
3.84083
3.65349
2.64441
2.26122
-13.8071
-14.6435
-16.0418
-17.6147
-18.9555
-19.6644
-19.3297
-17.5624
-14.1544
-9.37729
-4.03907
0.892483
4.68085
6.74151
6.59988
4.1371
-0.701078
-7.70285
-16.3677
-25.803
-34.8816
-42.6293
-48.3536
-51.4863
-51.6085
-48.7349
-43.592
-37.2219
-30.597
-24.7175
-20.3565
-17.7147
-16.5478
-16.485
-17.1881
-18.3695
-19.7753
-21.1767
-22.3681
-23.1705
-23.4414
-23.0886
-22.0846
-20.4726
-18.3594
-15.8945
-13.2448
-10.571
-8.01026
-5.66362
-3.5922
-1.82097
-0.347454
0.848729
1.79771
2.53337
3.08931
3.49662
3.78276
3.97135
4.08228
4.13198
4.13362
4.09707
4.02823
3.92777
3.79088
3.60523
3.34614
2.9438
2.1329
0.336471
-3.17141
-8.85731
-16.4829
-24.733
-31.51
-34.7801
-33.6661
-28.0127
-19.6364
-11.3361
-5.18142
-1.43836
0.674062
1.8943
2.62714
3.07485
3.3573
3.55078
3.69235
3.79987
3.87463
3.92999
3.9359
3.93167
3.73428
3.6221
2.43265
2.53342
-13.8334
-14.5407
-15.6164
-16.7826
-17.7019
-18.0467
-17.4995
-15.7924
-12.8204
-8.82036
-4.39705
-0.277742
2.95842
4.85508
4.87677
2.71914
-1.6478
-8.08895
-16.1287
-24.9496
-33.5073
-40.8363
-46.2221
-49.1109
-49.2066
-46.5688
-41.8492
-35.9722
-29.9013
-24.5891
-20.6649
-18.2372
-17.0843
-16.9057
-17.4219
-18.3822
-19.5575
-20.7378
-21.7346
-22.3848
-22.5595
-22.1755
-21.2068
-19.6897
-17.7162
-15.417
-12.94
-10.4294
-8.01015
-5.77666
-3.78835
-2.07245
-0.630866
0.551694
1.50052
2.24533
2.81649
3.24261
3.5494
3.75924
3.89112
3.96081
3.98093
3.9609
3.90633
3.81781
3.69025
3.51153
3.25788
2.87025
2.12105
0.486884
-2.71463
-7.93926
-14.9771
-22.6119
-28.9023
-31.9535
-30.9461
-25.7517
-18.0868
-10.5412
-4.94311
-1.47981
0.540557
1.74886
2.49343
2.95834
3.25848
3.46785
3.62106
3.73688
3.81355
3.87186
3.86587
3.87104
3.62571
3.58813
2.22204
2.78652
-13.7802
-14.3531
-15.1444
-15.9616
-16.5435
-16.633
-15.9862
-14.4108
-11.8514
-8.50525
-4.8338
-1.40922
1.26303
2.84067
2.90842
1.05783
-2.83293
-8.63904
-15.9423
-23.9919
-31.8555
-38.6307
-43.6038
-46.2613
-46.3962
-44.055
-39.7906
-34.4617
-29.0268
-24.3362
-20.8606
-18.6495
-17.526
-17.2572
-17.6139
-18.3783
-19.3447
-20.323
-21.1415
-21.6523
-21.739
-21.3263
-20.3898
-18.9594
-17.1142
-14.9682
-12.6519
-10.2945
-8.00974
-5.88519
-3.9783
-2.31785
-0.909419
0.257789
1.20463
1.95696
2.54195
2.98584
3.31254
3.54315
3.69571
3.78528
3.82393
3.82056
3.78048
3.7042
3.58645
3.41523
3.16752
2.79289
2.10111
0.627551
-2.25998
-7.00521
-13.4338
-20.4368
-26.2319
-29.0658
-28.1747
-23.4663
-16.5465
-9.77155
-4.72186
-1.52488
0.409487
1.60574
2.3602
2.84105
3.15836
3.3834
3.54806
3.67202
3.75042
3.81153
3.79359
3.80801
3.5157
3.55075
2.01472
3.01397
-13.6662
-14.1226
-14.7012
-15.2624
-15.6026
-15.5172
-14.8187
-13.3725
-11.1582
-8.34191
-5.28322
-2.43579
-0.235987
1.01466
1.00441
-0.621295
-4.05501
-9.22457
-15.7632
-22.9946
-30.0778
-36.2016
-40.72
-43.183
-43.3754
-41.302
-37.4817
-32.7633
-28.0404
-23.9944
-20.9561
-18.9579
-17.8778
-17.5421
-17.7638
-18.3551
-19.1335
-19.9283
-20.5844
-20.9684
-20.9751
-20.5366
-19.6296
-18.2786
-16.5512
-14.5467
-12.38
-10.1666
-8.00938
-5.98962
-4.16237
-2.55733
-1.18312
-0.0328779
0.91024
1.66845
2.26592
2.7265
3.07235
3.32321
3.49615
3.60549
3.66266
3.67609
3.65071
3.58698
3.47956
3.31646
3.07542
2.71245
2.0724
0.753097
-1.82035
-6.07613
-11.8814
-18.2423
-23.5385
-26.1594
-25.3972
-21.2007
-15.0509
-9.04702
-4.52513
-1.5762
0.279064
1.46335
2.22637
2.72244
3.05675
3.29741
3.47344
3.60538
3.6854
3.74914
3.71935
3.74264
3.40496
3.50933
1.81356
3.21069
-13.5168
-13.8752
-14.2892
-14.6532
-14.8112
-14.6045
-13.893
-12.5836
-10.6757
-8.30876
-5.76591
-3.40868
-1.59695
-0.616239
-0.722423
-2.18382
-5.18515
-9.71584
-15.4872
-21.9121
-28.2336
-33.7166
-37.7845
-40.0042
-40.1661
-38.3169
-34.9961
-30.9878
-27.021
-23.5979
-20.9654
-19.1712
-18.1456
-17.7625
-17.8707
-18.3099
-18.9203
-19.5497
-20.0591
-20.3285
-20.2632
-19.8017
-18.9221
-17.6439
-16.0249
-14.1512
-12.1238
-10.0455
-8.00945
-6.0904
-4.3409
-2.79109
-1.45203
-0.320233
0.617492
1.38
1.98858
2.4648
2.82899
3.09958
3.29259
3.42155
3.49725
3.52761
3.51719
3.46631
3.3697
3.21542
2.98189
2.62982
2.0351
0.859413
-1.40822
-5.17459
-10.3517
-16.0677
-20.8666
-23.282
-22.6654
-19.0044
-13.6369
-8.386
-4.35907
-1.63611
0.147385
1.32007
2.09094
2.60212
2.95362
3.21
3.39735
3.53717
3.61874
3.68492
3.64348
3.67503
3.29421
3.46323
1.6215
3.37232
-13.3441
-13.6171
-13.9016
-14.1168
-14.1445
-13.8625
-13.1664
-11.9931
-10.3547
-8.36961
-6.26346
-4.32685
-2.85222
-2.09395
-2.2742
-3.59367
-6.19718
-10.091
-15.0693
-20.6638
-26.2197
-31.0704
-34.6591
-36.5816
-36.7177
-35.2046
-32.5176
-29.2777
-26.0336
-23.169
-20.8995
-19.2976
-18.3341
-17.9197
-17.9336
-18.2407
-18.7023
-19.184
-19.5619
-19.7285
-19.5988
-19.1174
-18.2634
-17.0523
-15.5333
-13.7806
-11.883
-9.9316
-8.01034
-6.188
-4.51431
-3.01942
-1.71625
-0.604268
0.326487
1.09176
1.71013
2.20089
2.58265
2.87242
3.08518
3.23361
3.32784
3.37528
3.38007
3.34237
3.25707
3.11233
2.88726
2.54592
1.98995
0.943392
-1.03561
-4.32463
-8.87989
-13.9569
-18.2658
-20.4876
-20.0365
-16.9288
-12.3384
-7.80284
-4.22771
-1.70663
0.0121888
1.17389
1.95268
2.47953
2.84883
3.12121
3.31997
3.46762
3.55071
3.6191
3.56636
3.6053
3.18419
3.41187
1.44133
3.49525
-13.1593
-13.3605
-13.545
-13.65
-13.586
-13.2607
-12.5976
-11.5565
-10.1572
-8.4999
-6.76537
-5.18751
-4.00441
-3.43328
-3.66598
-4.8589
-7.11213
-10.4212
-14.6224
-19.357
-24.0996
-28.2768
-31.3846
-33.103
-33.3666
-32.3046
-30.2711
-27.7299
-25.1049
-22.7161
-20.7664
-19.3443
-18.4477
-18.0154
-17.9524
-18.1461
-18.4774
-18.8284
-19.0894
-19.1645
-18.978
-18.4798
-17.6501
-16.5011
-15.0743
-13.4339
-11.6571
-9.82488
-8.01248
-6.28295
-4.68307
-3.24263
-1.97598
-0.885035
0.0372748
0.803844
1.4307
1.93496
2.33348
2.64189
2.87407
3.04184
3.15462
3.21928
3.23956
3.21542
3.14192
3.0075
2.79188
2.46171
1.9385
1.0039
-0.712186
-3.54946
-7.50295
-11.957
-15.7904
-17.8364
-17.5716
-15.0243
-11.1839
-7.30639
-4.13277
-1.78943
-0.12886
1.02286
1.81049
2.35429
2.74237
3.03122
3.24156
3.39701
3.48166
3.55199
3.48838
3.5336
3.07562
3.3548
1.27549
3.57726
-12.9713
-13.1128
-13.2205
-13.2452
-13.1201
-12.7763
-12.1592
-11.2447
-10.0563
-8.67904
-7.2591
-5.98458
-5.05048
-4.63959
-4.91167
-5.992
-7.94802
-10.7607
-14.2875
-18.2411
-22.2125
-25.7484
-28.4512
-30.0599
-30.4889
-29.8235
-28.3262
-26.3478
-24.2276
-22.2405
-20.573
-19.3184
-18.4913
-18.0523
-17.9281
-18.0259
-18.2442
-18.4806
-18.6386
-18.6333
-18.3971
-17.8852
-17.079
-15.9878
-14.6464
-13.1099
-11.4459
-9.72554
-8.01635
-6.3758
-4.84771
-3.46114
-2.23147
-1.16266
-0.250161
0.51632
1.1504
1.66715
2.08165
2.40818
2.65947
2.84645
2.9778
3.05984
3.09593
3.08577
3.02459
2.90127
2.69619
2.37805
1.8829
1.04215
-0.443597
-2.86856
-6.25668
-10.1173
-13.4991
-15.3924
-15.3314
-13.3341
-10.1914
-6.89882
-4.07375
-1.88594
-0.278126
0.865116
1.66339
2.22604
2.63424
2.94021
3.16241
3.3257
3.41197
3.48393
3.41002
3.46017
2.96921
3.29173
1.12588
3.61795
-12.7859
-12.8792
-12.9292
-12.8977
-12.7352
-12.3909
-11.8271
-11.0311
-10.028
-8.89024
-7.73657
-6.71812
-5.99435
-5.71744
-6.01884
-6.99823
-8.70316
-11.1063
-14.0834
-17.4012
-20.7371
-23.739
-26.0931
-27.5778
-28.1038
-27.725
-26.6336
-25.0973
-23.3905
-21.7455
-20.3275
-19.2274
-18.4706
-18.0341
-17.8625
-17.8804
-18.0019
-18.1389
-18.207
-18.1315
-17.8527
-17.3304
-16.5471
-15.5098
-14.2477
-12.8079
-11.249
-9.63379
-8.02243
-6.46716
-5.00879
-3.67543
-2.48307
-1.43734
-0.535906
0.229188
0.869322
1.39756
1.82733
2.17146
2.44158
2.64767
2.79764
2.89727
2.9495
2.95381
2.90552
2.79407
2.60065
2.29573
1.82558
1.06152
-0.230395
-2.29454
-5.17118
-8.48401
-11.4499
-13.2169
-13.3676
-11.8867
-9.36541
-6.5758
-4.04866
-1.99754
-0.437865
0.6991
1.5107
2.09462
2.52458
2.84845
3.08292
3.25413
3.34213
3.41535
3.33178
3.38529
2.86563
3.22262
0.993594
3.61894
-12.6079
-12.6631
-12.6709
-12.602
-12.4198
-12.0879
-11.5811
-10.8948
-10.0543
-9.12104
-8.19183
-7.38816
-6.84027
-6.67336
-6.99475
-7.88288
-9.37161
-11.432
-13.9574
-16.7587
-19.5788
-22.1381
-24.1813
-25.5272
-26.0963
-25.9198
-25.1372
-23.9542
-22.5899
-21.2369
-20.0382
-19.0794
-18.392
-17.9652
-17.7582
-17.7104
-17.75
-17.8017
-17.7923
-17.6566
-17.3419
-16.8122
-16.0517
-15.065
-13.8767
-12.5268
-11.0662
-9.54982
-8.03123
-6.55768
-5.16698
-3.88606
-2.7312
-1.70937
-0.820127
-0.0576159
0.587467
1.12629
1.57063
1.93192
2.22062
2.44576
2.61446
2.73192
2.80066
2.81996
2.7852
2.68642
2.50581
2.21548
1.76889
1.06709
-0.0676148
-1.82998
-4.26467
-7.09272
-9.69068
-11.3573
-11.7116
-10.6886
-8.69635
-6.32811
-4.05504
-2.12583
-0.610156
0.523607
1.35198
1.95997
2.41359
2.75632
3.00355
3.1828
3.27266
3.34672
3.2542
3.30932
2.76549
3.14766
0.878891
3.5838
-12.4403
-12.4664
-12.4446
-12.3527
-12.1642
-11.8536
-11.4048
-10.8189
-10.1203
-9.36099
-8.62025
-7.99581
-7.59357
-7.51551
-7.8484
-8.65357
-9.95444
-11.7229
-13.869
-16.239
-18.6277
-20.8115
-22.5828
-23.7952
-24.3783
-24.348
-23.8054
-22.9069
-21.8259
-20.7204
-19.713
-18.882
-18.2617
-17.8501
-17.618
-17.5173
-17.4886
-17.4681
-17.3928
-17.2061
-16.8617
-16.328
-15.5901
-14.6514
-13.5319
-12.266
-10.8973
-9.47389
-8.04329
-6.64805
-5.32297
-4.09364
-2.97638
-1.97914
-1.10308
-0.344238
0.304789
0.85337
1.31166
1.68973
1.99683
2.24101
2.42861
2.56419
2.64987
2.68474
2.66424
2.57896
2.41228
2.13801
1.71486
1.06477
0.0544877
-1.46595
-3.53737
-5.95745
-8.24434
-9.83119
-10.3633
-9.72205
-8.1633
-6.14453
-4.09121
-2.27282
-0.796891
0.337717
1.18695
1.82221
2.30153
2.66428
2.92488
3.11231
3.20417
3.2786
3.17788
3.23271
2.66935
3.06734
0.781191
3.51769
-12.2854
-12.2901
-12.2489
-12.1451
-11.96
-11.6762
-11.2845
-10.7894
-10.214
-9.60233
-9.01911
-8.54321
-8.26028
-8.25267
-8.58988
-9.31949
-10.4571
-11.9765
-13.8022
-15.8094
-17.8343
-19.6983
-21.2336
-22.3222
-22.9013
-22.9754
-22.6175
-21.9462
-21.0977
-20.2007
-19.3591
-18.6427
-18.0862
-17.6938
-17.4452
-17.3029
-17.2181
-17.1373
-17.0068
-16.7777
-16.4098
-15.8751
-15.1601
-14.2668
-13.212
-12.0245
-10.742
-9.40625
-8.05919
-6.739
-5.47755
-4.29892
-3.21922
-2.24714
-1.38514
-0.630917
0.021163
0.578774
1.05051
1.44505
1.77045
2.03377
2.24048
2.39455
2.49767
2.54872
2.54325
2.47239
2.32075
2.06405
1.6651
1.06022
0.148513
-1.18338
-2.96911
-5.06263
-7.09705
-8.61688
-9.28899
-8.94964
-7.74018
-6.01523
-4.15722
-2.44103
-0.999924
0.140527
1.0153
1.6815
2.18875
2.57286
2.84758
3.04337
3.13737
3.21162
3.10345
3.15595
2.5777
2.98233
0.699333
3.42651
-12.1441
-12.134
-12.0813
-11.974
-11.799
-11.5452
-11.2081
-10.7944
-10.3254
-9.83849
-9.38628
-9.03254
-8.84616
-8.89316
-9.22869
-9.88935
-10.8851
-12.1919
-13.747
-15.4492
-17.1676
-18.7597
-20.091
-21.0643
-21.6251
-21.7712
-21.5541
-21.0631
-20.4046
-19.6823
-18.9832
-18.3686
-17.872
-17.5013
-17.2433
-17.0691
-16.9393
-16.8091
-16.6332
-16.3696
-15.9838
-15.4511
-14.7594
-13.9097
-12.9156
-11.8018
-10.6002
-9.34717
-8.07952
-6.83132
-5.63154
-4.50271
-3.46047
-2.51397
-1.66677
-0.918001
-0.263626
0.302417
0.787206
1.19803
1.54175
1.82438
2.05054
2.22355
2.34466
2.41258
2.42298
2.36751
2.23203
1.99433
1.62085
1.05806
0.227264
-0.957653
-2.52354
-4.36395
-6.19818
-7.65751
-8.43041
-8.32562
-7.40307
-5.93439
-4.25512
-2.6336
-1.22144
-0.0692225
0.836386
1.5378
2.07564
2.48272
2.77243
2.97677
3.07305
3.14647
3.03157
3.07963
2.49095
2.89348
0.631914
3.31591
-12.0175
-11.9979
-11.94
-11.8352
-11.6749
-11.4523
-11.1664
-10.8251
-10.4476
-10.0654
-9.72153
-9.4674
-9.35815
-9.44633
-9.77532
-10.373
-11.2452
-12.3705
-13.6967
-15.1422
-16.6022
-17.9631
-19.117
-19.9843
-20.5177
-20.711
-20.5997
-20.2506
-19.7459
-19.1688
-18.5913
-18.0663
-17.625
-17.2776
-17.016
-16.8183
-16.653
-16.4832
-16.2708
-15.9802
-15.5817
-15.0539
-14.3859
-13.5781
-12.6416
-11.597
-10.4717
-9.29695
-8.10492
-6.92583
-5.78589
-4.70594
-3.70098
-2.7804
-1.9486
-1.20596
-0.549903
0.0241252
0.521721
0.948802
1.31099
1.61324
1.85928
2.0518
2.19154
2.27707
2.3042
2.26514
2.14698
1.92962
1.58305
1.06143
0.301255
-0.764744
-2.15853
-3.80187
-5.47477
-6.87782
-7.72352
-7.80964
-7.13635
-5.90118
-4.3888
-2.85449
-1.46447
-0.293488
0.64924
1.3909
1.96262
2.39464
2.70035
2.91345
3.01208
3.08395
2.96296
3.0044
2.4095
2.80167
0.577629
3.19048
-11.9048
-11.8802
-11.8217
-11.7237
-11.5808
-11.3893
-11.1505
-10.8728
-10.5733
-10.2787
-10.0238
-9.85011
-9.80155
-9.91964
-10.2382
-10.7783
-11.5428
-12.5129
-13.6454
-14.8744
-16.1163
-17.2801
-18.2803
-19.0509
-19.5513
-19.7731
-19.74
-19.5013
-19.1204
-18.6632
-18.1887
-17.742
-17.3512
-17.0275
-16.7668
-16.5529
-16.3606
-16.1598
-15.919
-15.608
-15.2016
-14.6815
-14.0378
-13.2706
-12.3889
-11.4097
-10.3564
-9.25591
-8.13603
-7.02344
-5.94161
-4.90964
-3.94176
-3.04733
-2.23141
-1.49543
-0.838121
-0.256374
0.25397
0.697449
1.07843
1.40077
1.66728
1.87997
2.0391
2.14306
2.18783
2.16621
2.06648
1.87072
1.55236
1.07206
0.377263
-0.586457
-1.83841
-3.32119
-4.85953
-6.21231
-7.12044
-7.37768
-6.93442
-5.91868
-4.56371
-3.10908
-1.73332
-0.535139
0.452638
1.24054
1.85023
2.30956
2.63243
2.85448
2.95546
3.02493
2.89834
2.93091
2.33364
2.7078
0.535365
3.05346
-11.8067
-11.7804
-11.7249
-11.6365
-11.5122
-11.3508
-11.1547
-10.9326
-10.6993
-10.4773
-10.2949
-10.1855
-10.1838
-10.3225
-10.6278
-11.1152
-11.7857
-12.6229
-13.5912
-14.6375
-15.695
-16.6908
-17.5576
-18.2403
-18.7045
-18.9404
-18.9635
-18.8097
-18.5273
-18.1682
-17.7801
-17.401
-17.0558
-16.7558
-16.4995
-16.2752
-16.0632
-15.8391
-15.577
-15.2518
-14.842
-14.332
-13.7134
-12.9857
-12.1562
-11.2392
-10.2543
-9.22439
-8.17357
-7.12511
-6.09982
-5.11501
-4.18397
-3.31586
-2.51616
-1.7872
-1.12889
-0.539476
-0.0162219
0.444024
0.844343
1.18743
1.47517
1.70884
1.8882
2.01148
2.07484
2.07168
1.99151
1.81847
1.52937
1.09064
0.458333
-0.412804
-1.54129
-2.88619
-4.31233
-5.62706
-6.5993
-7.02107
-6.79777
-5.99213
-4.78702
-3.40449
-2.03369
-0.797965
0.24494
1.08646
1.73916
2.22861
2.56995
2.80109
2.90428
2.97036
2.83849
2.85989
2.26368
2.61277
0.504143
2.90724
-11.721
-11.6956
-11.6454
-11.5682
-11.463
-11.3297
-11.1718
-10.9975
-10.82
-10.6577
-10.5339
-10.4751
-10.5089
-10.6606
-10.9504
-11.3896
-11.978
-12.7011
-13.5301
-14.4219
-15.3235
-16.1771
-16.9274
-17.5306
-17.9573
-18.1971
-18.2593
-18.1698
-17.9651
-17.6855
-17.3695
-17.0484
-16.7438
-16.4667
-16.2174
-15.9876
-15.7621
-15.5215
-15.2445
-14.9103
-14.5012
-14.0038
-13.411
-12.7219
-11.9426
-11.0849
-10.1651
-9.20274
-8.21828
-7.23187
-6.26175
-5.32339
-4.42897
-3.58729
-2.80404
-2.08228
-1.42299
-0.825724
-0.289129
0.188523
0.608976
0.973715
1.28366
1.53926
1.73983
1.88339
1.96632
1.98263
1.92305
1.77374
1.51468
1.11742
0.545111
-0.240673
-1.25904
-2.48442
-3.819
-5.10893
-6.15098
-6.7364
-6.72877
-6.12851
-5.0681
-3.74992
-2.37271
-1.08625
0.0241254
0.928554
1.63035
2.1532
2.51438
2.75466
2.85976
2.92124
2.78419
2.79201
2.19982
2.51736
0.482904
2.75389
-11.6489
-11.6263
-11.5829
-11.5179
-11.4311
-11.3237
-11.1996
-11.0663
-10.9351
-10.8216
-10.7446
-10.7251
-10.7849
-10.9435
-11.2164
-11.6116
-12.1279
-12.7532
-13.4637