/*--------------------------------*- C++ -*----------------------------------*\
| =========                 |                                                 |
| \\      /  F ield         | OpenFOAM: The Open Source CFD Toolbox           |
|  \\    /   O peration     | Version:  2.1.1                                 |
|   \\  /    A nd           | Web:      www.OpenFOAM.org                      |
|    \\/     M anipulation  |                                                 |
\*---------------------------------------------------------------------------*/
FoamFile
{
    version     2.0;
    format      ascii;
    class       surfaceScalarField;
    location    "0.16";
    object      phi;
}
// * * * * * * * * * * * * * * * * * * * * * * * * * * * * * * * * * * * * * //

dimensions      [0 3 -1 0 0 0 0];

internalField   nonuniform List<scalar> 
13452
(
4.59975e-05
2.24897e-05
2.96602e-05
1.63373e-05
2.11808e-05
8.47943e-06
1.72754e-05
3.9054e-06
1.5628e-05
1.64733e-06
1.4814e-05
8.14034e-07
1.42967e-05
5.17346e-07
1.38992e-05
3.97492e-07
1.35615e-05
3.37628e-07
1.32684e-05
2.93136e-07
1.30152e-05
2.53156e-07
1.27982e-05
2.17001e-07
1.26132e-05
1.85053e-07
1.24559e-05
1.57335e-07
1.23224e-05
1.33434e-07
1.22097e-05
1.12729e-07
1.21151e-05
9.45859e-08
1.20367e-05
7.84386e-08
1.19729e-05
6.38115e-08
1.19225e-05
5.03182e-08
1.18849e-05
3.76521e-08
1.18593e-05
2.55822e-08
1.18454e-05
1.38797e-08
1.18434e-05
2.0609e-09
1.18522e-05
-8.82862e-09
1.18718e-05
-1.96484e-08
1.1902e-05
-3.01406e-08
1.19409e-05
-3.89561e-08
1.19881e-05
-4.71709e-08
1.20323e-05
-4.42238e-08
1.208e-05
-4.76957e-08
1.2032e-05
4.80025e-08
-6.07623e-08
1.20928e-05
7.4912e-05
1.80216e-05
7.04091e-05
2.08403e-05
6.33147e-05
1.55738e-05
5.66536e-05
1.05665e-05
5.15293e-05
6.77161e-06
4.78648e-05
4.47851e-06
4.52343e-05
3.14791e-06
4.32956e-05
2.33613e-06
4.18159e-05
1.81739e-06
4.06453e-05
1.46373e-06
3.96917e-05
1.20673e-06
3.88974e-05
1.01128e-06
3.82248e-05
8.57705e-07
3.76482e-05
7.33914e-07
3.71497e-05
6.31961e-07
3.67161e-05
5.46337e-07
3.63376e-05
4.73088e-07
3.60067e-05
4.0931e-07
3.57177e-05
3.52831e-07
3.5466e-05
3.01998e-07
3.52481e-05
2.55535e-07
3.50612e-05
2.12447e-07
3.49032e-05
1.71949e-07
3.47718e-05
1.33431e-07
3.46661e-05
9.68368e-08
3.45847e-05
6.18081e-08
3.45261e-05
2.84161e-08
3.44895e-05
-2.37359e-09
3.44717e-05
-2.9342e-08
3.44721e-05
-4.46195e-08
3.44821e-05
-5.76877e-08
3.45429e-05
-1.28101e-08
1.22588e-08
3.44699e-05
7.8521e-05
1.19572e-05
8.23336e-05
1.70277e-05
8.29888e-05
1.49186e-05
8.14681e-05
1.20873e-05
7.89374e-05
9.30222e-06
7.62406e-05
7.17533e-06
7.37092e-05
5.67929e-06
7.14468e-05
4.59857e-06
6.94668e-05
3.79739e-06
6.7745e-05
3.18555e-06
6.62483e-05
2.7034e-06
6.4945e-05
2.31456e-06
6.3807e-05
1.99573e-06
6.28102e-05
1.7307e-06
6.19345e-05
1.50764e-06
6.11632e-05
1.31769e-06
6.04822e-05
1.15404e-06
5.98801e-05
1.01141e-06
5.93473e-05
8.85627e-07
5.88759e-05
7.7338e-07
5.84595e-05
6.72005e-07
5.80926e-05
5.79361e-07
5.77708e-05
4.93732e-07
5.74905e-05
4.1375e-07
5.72487e-05
3.3859e-07
5.70429e-05
2.67593e-07
5.68708e-05
2.00534e-07
5.673e-05
1.38395e-07
5.66184e-05
8.2302e-08
5.65356e-05
3.81404e-08
5.64733e-05
4.62342e-09
5.64491e-05
1.13878e-08
4.10117e-08
5.64204e-05
7.81466e-05
8.33719e-06
8.19226e-05
1.32516e-05
8.46181e-05
1.22231e-05
8.62396e-05
1.04658e-05
8.69156e-05
8.6263e-06
8.69981e-05
7.0928e-06
8.67293e-05
5.94812e-06
8.62511e-05
5.07672e-06
8.56551e-05
4.39343e-06
8.49969e-05
3.84373e-06
8.43113e-05
3.38903e-06
8.36211e-05
3.00473e-06
8.29424e-05
2.67446e-06
8.22862e-05
2.38693e-06
8.16593e-05
2.13451e-06
8.10658e-05
1.91115e-06
8.0508e-05
1.71189e-06
7.99867e-05
1.53271e-06
7.95021e-05
1.37025e-06
7.90537e-05
1.22172e-06
7.8641e-05
1.08477e-06
7.82629e-05
9.57417e-07
7.79186e-05
8.38018e-07
7.76071e-05
7.25226e-07
7.73276e-05
6.18091e-07
7.70793e-05
5.15934e-07
7.68613e-05
4.18482e-07
7.66734e-05
3.26334e-07
7.65152e-05
2.40534e-07
7.63886e-05
1.64721e-07
7.62931e-05
1.00157e-07
7.62449e-05
5.9534e-08
4.12154e-08
7.62447e-05
7.89913e-05
6.00171e-06
8.15904e-05
1.06525e-05
8.35168e-05
1.02967e-05
8.49605e-05
9.02217e-06
8.59787e-05
7.6081e-06
8.67199e-05
6.35156e-06
8.72862e-05
5.38183e-06
8.77252e-05
4.63771e-06
8.80681e-05
4.05048e-06
8.83359e-05
3.57594e-06
8.85427e-05
3.18223e-06
8.86995e-05
2.84799e-06
8.8814e-05
2.55995e-06
8.88923e-05
2.30859e-06
8.89407e-05
2.08618e-06
8.89647e-05
1.88711e-06
8.89694e-05
1.70716e-06
8.89592e-05
1.54293e-06
8.89378e-05
1.39167e-06
8.89084e-05
1.2511e-06
8.88739e-05
1.11928e-06
8.88367e-05
9.94613e-07
8.8799e-05
8.75734e-07
8.87627e-05
7.61532e-07
8.87296e-05
6.51176e-07
8.87014e-05
5.44081e-07
8.868e-05
4.39952e-07
8.86672e-05
3.39062e-07
8.86658e-05
2.41943e-07
8.86803e-05
1.5029e-07
8.8716e-05
6.44664e-08
8.87868e-05
-1.13437e-08
-8.3089e-08
8.89111e-05
8.0463e-05
4.38465e-06
8.25046e-05
8.61096e-06
8.39896e-05
8.81161e-06
8.50478e-05
7.96399e-06
8.57692e-05
6.88675e-06
8.62823e-05
5.83839e-06
8.66887e-05
4.97544e-06
8.70356e-05
4.29087e-06
8.7346e-05
3.74004e-06
8.76316e-05
3.29035e-06
8.78972e-05
2.91658e-06
8.81454e-05
2.59981e-06
8.83784e-05
2.32699e-06
8.8598e-05
2.08901e-06
8.88051e-05
1.879e-06
8.90006e-05
1.69161e-06
8.91852e-05
1.52261e-06
8.93595e-05
1.36861e-06
8.95243e-05
1.22684e-06
8.96804e-05
1.095e-06
8.98285e-05
9.71162e-07
8.99695e-05
8.53705e-07
9.01039e-05
7.41254e-07
9.02328e-05
6.3266e-07
9.0357e-05
5.26993e-07
9.04776e-05
4.23518e-07
9.05958e-05
3.21666e-07
9.07138e-05
2.21153e-07
9.08341e-05
1.2164e-07
9.09612e-05
2.31856e-08
9.11015e-05
-7.58391e-08
9.12675e-05
-1.77403e-07
-2.91561e-07
9.1476e-05
8.2234e-05
3.24918e-06
8.38938e-05
6.95123e-06
8.51805e-05
7.52487e-06
8.61129e-05
7.03163e-06
8.6753e-05
6.24659e-06
8.7191e-05
5.40035e-06
8.75148e-05
4.6517e-06
8.77736e-05
4.03208e-06
8.79941e-05
3.5195e-06
8.81918e-05
3.09265e-06
8.83749e-05
2.73351e-06
8.85476e-05
2.42704e-06
8.87126e-05
2.16206e-06
8.88712e-05
1.93035e-06
8.90246e-05
1.72562e-06
8.91734e-05
1.54285e-06
8.9318e-05
1.37804e-06
8.94587e-05
1.22791e-06
8.95957e-05
1.08977e-06
8.97294e-05
9.61343e-07
8.98598e-05
8.40706e-07
8.99873e-05
7.26219e-07
9.01121e-05
6.16466e-07
9.02345e-05
5.10228e-07
9.03551e-05
4.0644e-07
9.04744e-05
3.04168e-07
9.05936e-05
2.02518e-07
9.07141e-05
1.00646e-07
9.08384e-05
-2.64412e-09
9.09704e-05
-1.08875e-07
9.11159e-05
-2.21265e-07
9.12829e-05
-3.44426e-07
-4.88614e-07
9.14799e-05
8.42165e-05
2.44826e-06
8.55499e-05
5.61784e-06
8.6671e-05
6.40372e-06
8.75272e-05
6.17542e-06
8.81515e-05
5.62226e-06
8.85968e-05
4.95505e-06
8.89284e-05
4.32016e-06
8.91898e-05
3.77067e-06
8.94067e-05
3.30259e-06
8.95952e-05
2.9042e-06
8.97647e-05
2.56394e-06
8.9921e-05
2.27077e-06
9.00675e-05
2.0156e-06
9.02064e-05
1.79143e-06
9.03393e-05
1.59268e-06
9.04674e-05
1.41482e-06
9.05913e-05
1.25412e-06
9.07117e-05
1.10751e-06
9.08291e-05
9.72394e-07
9.09438e-05
8.46588e-07
9.10563e-05
7.28212e-07
9.11669e-05
6.15636e-07
9.12759e-05
5.07428e-07
9.13838e-05
4.02311e-07
9.14912e-05
2.99113e-07
9.15986e-05
1.96714e-07
9.17072e-05
9.3952e-08
9.18183e-05
-1.04977e-08
9.19341e-05
-1.18368e-07
9.20572e-05
-2.31985e-07
9.21912e-05
-3.55334e-07
9.2341e-05
-4.94219e-07
-6.57392e-07
9.25098e-05
8.63719e-05
1.87513e-06
8.74405e-05
4.54917e-06
8.8411e-05
5.43323e-06
8.91872e-05
5.39925e-06
8.97822e-05
5.02729e-06
9.02265e-05
4.51067e-06
9.05674e-05
3.97926e-06
9.08413e-05
3.49682e-06
9.10706e-05
3.07329e-06
9.12699e-05
2.70489e-06
9.14484e-05
2.3854e-06
9.16119e-05
2.10726e-06
9.17641e-05
1.86346e-06
9.19073e-05
1.64816e-06
9.20435e-05
1.45654e-06
9.21737e-05
1.28456e-06
9.22991e-05
1.12881e-06
9.24201e-05
9.86421e-07
9.25376e-05
8.54962e-07
9.26518e-05
7.32334e-07
9.27633e-05
6.16715e-07
9.28725e-05
5.06501e-07
9.29796e-05
4.00255e-07
9.30853e-05
2.9666e-07
9.31899e-05
1.94463e-07
9.32942e-05
9.24092e-08
9.3399e-05
-1.08545e-08
9.35055e-05
-1.1692e-07
9.36149e-05
-2.27815e-07
9.37292e-05
-3.46283e-07
9.38502e-05
-4.76353e-07
9.39797e-05
-6.23731e-07
-7.94954e-07
9.41173e-05
8.86673e-05
1.45779e-06
8.95239e-05
3.69258e-06
9.03609e-05
4.59629e-06
9.10614e-05
4.69868e-06
9.16227e-05
4.46603e-06
9.20598e-05
4.07358e-06
9.24046e-05
3.63446e-06
9.26862e-05
3.21521e-06
9.29241e-05
2.83538e-06
9.31315e-05
2.49749e-06
9.33173e-05
2.19962e-06
9.34872e-05
1.93736e-06
9.3645e-05
1.70563e-06
9.37933e-05
1.49983e-06
9.3934e-05
1.3159e-06
9.40683e-05
1.1503e-06
9.41971e-05
9.99977e-07
9.43212e-05
8.62293e-07
9.44412e-05
7.34961e-07
9.45576e-05
6.15987e-07
9.46707e-05
5.03613e-07
9.47809e-05
3.96272e-07
9.48886e-05
2.92534e-07
9.49942e-05
1.91065e-07
9.50981e-05
9.05688e-08
9.52008e-05
-1.02878e-08
9.53029e-05
-1.12957e-07
9.54051e-05
-2.19131e-07
9.55082e-05
-3.30932e-07
9.5613e-05
-4.51074e-07
9.57199e-05
-5.8318e-07
9.58283e-05
-7.32174e-07
-9.02423e-07
9.59358e-05
9.10811e-05
1.14802e-06
9.17696e-05
3.00401e-06
9.24904e-05
3.87555e-06
9.3122e-05
4.06711e-06
9.36485e-05
3.93947e-06
9.40743e-05
3.64776e-06
9.44194e-05
3.28936e-06
9.47062e-05
2.92843e-06
9.49512e-05
2.59042e-06
9.51659e-05
2.28272e-06
9.53587e-05
2.00685e-06
9.5535e-05
1.76106e-06
9.56986e-05
1.54206e-06
9.5852e-05
1.34639e-06
9.59972e-05
1.17075e-06
9.61354e-05
1.0121e-06
9.62676e-05
8.67747e-07
9.63946e-05
7.35278e-07
9.6517e-05
6.12573e-07
9.66352e-05
4.97752e-07
9.67497e-05
3.89136e-07
9.68608e-05
2.85208e-07
9.69687e-05
1.8457e-07
9.70739e-05
8.58981e-08
9.71766e-05
-1.21039e-08
9.72771e-05
-1.10784e-07
9.73757e-05
-2.11584e-07
9.74728e-05
-3.16173e-07
9.75684e-05
-4.26544e-07
9.76624e-05
-5.45128e-07
9.77541e-05
-6.74886e-07
9.78416e-05
-8.19662e-07
-9.81917e-07
9.79211e-05
9.35994e-05
9.13255e-07
9.41557e-05
2.44772e-06
9.47757e-05
3.25556e-06
9.53439e-05
3.49895e-06
9.58355e-05
3.44783e-06
9.62474e-05
3.23582e-06
9.65907e-05
2.9461e-06
9.68814e-05
2.63771e-06
9.71329e-05
2.33894e-06
9.7355e-05
2.06063e-06
9.7555e-05
1.80686e-06
9.7738e-05
1.578e-06
9.79078e-05
1.37233e-06
9.80667e-05
1.18741e-06
9.82168e-05
1.02066e-06
9.83594e-05
8.69552e-07
9.84954e-05
7.31728e-07
9.86257e-05
6.05025e-07
9.87507e-05
4.87497e-07
9.88711e-05
3.77389e-07
9.89871e-05
2.73111e-07
9.90991e-05
1.73216e-07
9.92073e-05
7.6357e-08
9.9312e-05
-1.8746e-08
9.94132e-05
-1.13349e-07
9.95112e-05
-2.08737e-07
9.96059e-05
-3.06277e-07
9.96972e-05
-4.07487e-07
9.97847e-05
-5.14097e-07
9.98677e-05
-6.28095e-07
9.99445e-05
-7.51683e-07
0.000100012
-8.87582e-07
-1.03673e-06
0.000100067
9.62138e-05
7.31535e-07
9.66664e-05
1.99511e-06
9.72e-05
2.722e-06
9.77106e-05
2.98828e-06
9.81683e-05
2.99014e-06
9.85646e-05
2.83952e-06
9.89038e-05
2.60693e-06
9.91966e-05
2.3449e-06
9.94533e-05
2.08226e-06
9.96819e-05
1.83196e-06
9.98889e-05
1.59993e-06
0.000100079
1.38812e-06
0.000100255
1.19613e-06
0.00010042
1.02245e-06
0.000100575
8.65142e-07
0.000100723
7.22152e-07
0.000100863
5.91448e-07
0.000100997
4.7111e-07
0.000101125
3.59367e-07
0.000101248
2.54595e-07
0.000101366
1.55307e-07
0.000101479
6.01392e-08
0.000101587
-3.21812e-08
0.000101691
-1.2286e-07
0.000101791
-2.1307e-07
0.000101886
-3.0399e-07
0.000101977
-3.96839e-07
0.000102062
-4.92908e-07
0.000102142
-5.93584e-07
0.000102214
-7.00351e-07
0.000102277
-8.1467e-07
0.000102328
-9.3824e-07
-1.07087e-06
0.000102362
9.89194e-05
5.87898e-07
9.92909e-05
1.62356e-06
9.97511e-05
2.26183e-06
0.00010021
2.52934e-06
0.000100635
2.56496e-06
0.000101015
2.45998e-06
0.000101348
2.27363e-06
0.000101641
2.05155e-06
0.000101902
1.82145e-06
0.000102137
1.59734e-06
0.00010235
1.3863e-06
0.000102547
1.19144e-06
0.00010273
1.01337e-06
0.000102901
8.51338e-07
0.000103062
7.0399e-07
0.000103215
5.69683e-07
0.000103359
4.46695e-07
0.000103497
3.33336e-07
0.000103629
2.2801e-07
0.000103754
1.29227e-07
0.000103874
3.56158e-08
0.000103988
-5.40926e-08
0.000104097
-1.41076e-07
0.0001042
-2.26441e-07
0.000104298
-3.11249e-07
0.000104391
-3.96533e-07
0.000104477
-4.83319e-07
0.000104557
-5.72634e-07
0.000104629
-6.65495e-07
0.000104692
-7.62889e-07
0.000104743
-8.6562e-07
0.000104779
-9.74541e-07
-1.0887e-06
0.000104797
0.000101714
4.7204e-07
0.000102022
1.31533e-06
0.00010242
1.8634e-06
0.000102833
2.11636e-06
0.000103228
2.17018e-06
0.000103591
2.09744e-06
0.000103917
1.94738e-06
0.000104209
1.7589e-06
0.000104473
1.55757e-06
0.000104713
1.35754e-06
0.000104933
1.16647e-06
0.000105136
9.88216e-07
0.000105325
8.24111e-07
0.000105503
6.74026e-07
0.00010567
5.37069e-07
0.000105827
4.11963e-07
0.000105977
2.97264e-07
0.000106119
1.91496e-07
0.000106253
9.32285e-08
0.000106382
1.10953e-09
0.000106503
-8.61174e-08
0.000106619
-1.69612e-07
0.000106728
-2.50445e-07
0.000106831
-3.29608e-07
0.000106928
-4.08028e-07
0.000107018
-4.86571e-07
0.000107101
-5.66051e-07
0.000107175
-6.4722e-07
0.000107241
-7.30742e-07
0.000107295
-8.17158e-07
0.000107336
-9.06738e-07
0.000107361
-9.99682e-07
-1.09457e-06
0.000107367
0.000104596
3.76752e-07
0.000104854
1.05654e-06
0.000105201
1.51644e-06
0.000105574
1.74374e-06
0.000105941
1.80332e-06
0.000106287
1.75157e-06
0.000106605
1.62887e-06
0.000106896
1.46789e-06
0.000107162
1.29147e-06
0.000107407
1.11318e-06
0.000107632
9.4083e-07
0.000107842
7.78632e-07
0.000108038
6.28402e-07
0.000108221
4.90454e-07
0.000108394
3.64264e-07
0.000108557
2.4885e-07
0.000108711
1.43005e-07
0.000108858
4.54426e-08
0.000108996
-4.51148e-08
0.000109127
-1.29887e-07
0.000109251
-2.10013e-07
0.000109368
-2.86539e-07
0.000109478
-3.60423e-07
0.000109581
-4.32531e-07
0.000109676
-5.03643e-07
0.000109764
-5.74454e-07
0.000109844
-6.45565e-07
0.000109914
-7.1747e-07
0.000109974
-7.9052e-07
0.000110021
-8.64891e-07
0.000110055
-9.40449e-07
0.000110072
-1.01693e-06
-1.09269e-06
0.00011007
0.000107566
2.96895e-07
0.000107786
8.36378e-07
0.00010809
1.21197e-06
0.000108428
1.40607e-06
0.00010877
1.46159e-06
0.0001091
1.42143e-06
0.000109411
1.31823e-06
0.0001097
1.17903e-06
0.000109967
1.02369e-06
0.000110216
8.64736e-07
0.000110447
7.09704e-07
0.000110663
5.62878e-07
0.000110865
4.26313e-07
0.000111055
3.00606e-07
0.000111233
1.85493e-07
0.000111402
8.02188e-08
0.000111561
-1.62355e-08
0.000111712
-1.04997e-07
0.000111854
-1.87204e-07
0.000111988
-2.63956e-07
0.000112114
-3.36278e-07
0.000112233
-4.05106e-07
0.000112344
-4.71281e-07
0.000112447
-5.35542e-07
0.000112541
-5.98524e-07
0.000112628
-6.60755e-07
0.000112705
-7.22643e-07
0.000112772
-7.84456e-07
0.000112828
-8.46288e-07
0.000112871
-9.08037e-07
0.0001129
-9.69289e-07
0.000112912
-1.02948e-06
-1.08692e-06
0.000112906
0.000110625
2.28722e-07
0.000110815
6.46331e-07
0.000111085
9.42228e-07
0.000111393
1.09818e-06
0.000111712
1.14198e-06
0.000112028
1.10563e-06
0.000112331
1.01511e-06
0.000112618
8.92452e-07
0.000112887
7.54518e-07
0.000113139
6.12478e-07
0.000113376
4.73285e-07
0.000113597
3.41045e-07
0.000113806
2.17845e-07
0.000114002
1.04414e-07
0.000114187
6.4188e-10
0.000114361
-9.40772e-08
0.000114526
-1.80622e-07
0.000114681
-2.59994e-07
0.000114827
-3.33217e-07
0.000114964
-4.01285e-07
0.000115093
-4.6512e-07
0.000115213
-5.25551e-07
0.000115325
-5.83307e-07
0.000115429
-6.39007e-07
0.000115523
-6.93153e-07
0.000115609
-7.46121e-07
0.000115684
-7.98151e-07
0.000115749
-8.49328e-07
0.000115802
-8.99555e-07
0.000115843
-9.48534e-07
0.000115869
-9.95683e-07
0.00011588
-1.04028e-06
-1.08072e-06
0.000115874
0.000113775
1.6944e-07
0.000113941
4.79684e-07
0.000114183
7.00512e-07
0.000114466
8.15203e-07
0.000114767
8.41353e-07
0.00011507
8.02406e-07
0.000115366
7.1868e-07
0.000115651
6.07854e-07
0.000115922
4.83886e-07
0.000116178
3.56399e-07
0.000116419
2.31555e-07
0.000116647
1.13069e-07
0.000116862
2.88148e-09
0.000117065
-9.82833e-08
0.000117256
-1.90486e-07
0.000117436
-2.74258e-07
0.000117606
-3.50393e-07
0.000117766
-4.19804e-07
0.000117916
-4.83429e-07
0.000118057
-5.42174e-07
0.000118189
-5.96869e-07
0.000118312
-6.4825e-07
0.000118425
-6.96947e-07
0.00011853
-7.43467e-07
0.000118625
-7.88196e-07
0.00011871
-8.31383e-07
0.000118785
-8.73134e-07
0.000118849
-9.13397e-07
0.000118901
-9.51939e-07
0.000118941
-9.88347e-07
0.000118967
-1.02196e-06
0.000118979
-1.05199e-06
-1.07697e-06
0.000118975
0.000117017
1.16904e-07
0.000117166
3.31053e-07
0.000117385
4.81015e-07
0.000117648
5.52513e-07
0.000117933
5.56432e-07
0.000118225
5.09633e-07
0.000118516
4.277e-07
0.0001188
3.24535e-07
0.000119072
2.11387e-07
0.000119332
9.62424e-08
0.00011958
-1.56881e-08
0.000119814
-1.2124e-07
0.000120036
-2.18769e-07
0.000120245
-3.07687e-07
0.000120443
-3.881e-07
0.000120629
-4.6054e-07
0.000120804
-5.2577e-07
0.000120969
-5.84655e-07
0.000121124
-6.38079e-07
0.000121268
-6.86879e-07
0.000121403
-7.31814e-07
0.000121529
-7.73542e-07
0.000121644
-8.12605e-07
0.00012175
-8.49422e-07
0.000121846
-8.84279e-07
0.000121932
-9.17328e-07
0.000122008
-9.48572e-07
0.000122072
-9.77867e-07
0.000122125
-1.0049e-06
0.000122166
-1.02921e-06
0.000122194
-1.05011e-06
0.000122209
-1.06686e-06
-1.07817e-06
0.00012221
0.000120354
6.94226e-08
0.000120489
1.96037e-07
0.000120691
2.78655e-07
0.000120938
3.05733e-07
0.00012121
2.83842e-07
0.000121495
2.24872e-07
0.000121782
1.40493e-07
0.000122065
4.13451e-08
0.000122341
-6.38075e-08
0.000122605
-1.68634e-07
0.000122859
-2.68982e-07
0.0001231
-3.62372e-07
0.000123329
-4.47575e-07
0.000123545
-5.24251e-07
0.00012375
-5.92646e-07
0.000123943
-6.5336e-07
0.000124124
-7.07184e-07
0.000124294
-7.5498e-07
0.000124454
-7.97603e-07
0.000124603
-8.35854e-07
0.000124742
-8.70439e-07
0.00012487
-9.01956e-07
0.000124988
-9.3088e-07
0.000125096
-9.57558e-07
0.000125194
-9.82203e-07
0.000125282
-1.00489e-06
0.000125359
-1.02557e-06
0.000125425
-1.04402e-06
0.00012548
-1.05992e-06
0.000125524
-1.07277e-06
0.000125555
-1.08194e-06
0.000125575
-1.08674e-06
-1.08609e-06
0.000125583
0.000123787
2.56094e-08
0.000123912
7.09453e-08
0.000124102
8.89044e-08
0.000124337
7.06659e-08
0.000124601
2.01015e-08
0.00012488
-5.46029e-08
0.000125166
-1.44993e-07
0.00012545
-2.43236e-07
0.000125729
-3.42842e-07
0.000126
-4.39116e-07
0.00012626
-5.29037e-07
0.000126508
-6.10907e-07
0.000126745
-6.84025e-07
0.000126969
-7.48398e-07
0.000127181
-8.04494e-07
0.00012738
-8.53054e-07
0.000127568
-8.94947e-07
0.000127744
-9.31073e-07
0.000127909
-9.62298e-07
0.000128063
-9.89407e-07
0.000128205
-1.01308e-06
0.000128337
-1.03387e-06
0.000128458
-1.05221e-06
0.000128569
-1.0684e-06
0.00012867
-1.08259e-06
0.00012876
-1.09482e-06
0.000128839
-1.10499e-06
0.000128908
-1.11287e-06
0.000128966
-1.11812e-06
0.000129014
-1.12029e-06
0.00012905
-1.11882e-06
0.000129077
-1.11309e-06
-1.10226e-06
0.000129093
0.00012732
-1.57185e-08
0.000127438
-4.74311e-08
0.00012762
-9.23852e-08
0.000127847
-1.56811e-07
0.000128106
-2.38459e-07
0.000128383
-3.31897e-07
0.000128669
-4.31307e-07
0.000128957
-5.31294e-07
0.000129242
-6.27447e-07
0.000129519
-7.16671e-07
0.000129787
-7.97124e-07
0.000130045
-8.6797e-07
0.00013029
-9.29129e-07
0.000130522
-9.81042e-07
0.000130742
-1.02448e-06
0.00013095
-1.06039e-06
0.000131144
-1.08977e-06
0.000131327
-1.1136e-06
0.000131497
-1.1328e-06
0.000131656
-1.14816e-06
0.000131803
-1.16036e-06
0.00013194
-1.16994e-06
0.000132065
-1.17729e-06
0.000132179
-1.18268e-06
0.000132283
-1.18625e-06
0.000132376
-1.18799e-06
0.000132459
-1.1878e-06
0.000132531
-1.18546e-06
0.000132594
-1.18063e-06
0.000132646
-1.17292e-06
0.000132689
-1.16183e-06
0.000132723
-1.14686e-06
-1.1273e-06
0.000132748
0.000130955
-5.56173e-08
0.000131069
-1.62002e-07
0.000131246
-2.69137e-07
0.00013147
-3.80805e-07
0.000131727
-4.9568e-07
0.000132006
-6.10387e-07
0.000132296
-7.21302e-07
0.00013259
-8.2518e-07
0.000132882
-9.19539e-07
0.000133168
-1.00285e-06
0.000133445
-1.0745e-06
0.000133712
-1.13459e-06
0.000133967
-1.18373e-06
0.000134208
-1.22288e-06
0.000134437
-1.25319e-06
0.000134653
-1.27586e-06
0.000134855
-1.29208e-06
0.000135044
-1.30295e-06
0.000135221
-1.30947e-06
0.000135385
-1.31246e-06
0.000135537
-1.31263e-06
0.000135678
-1.31051e-06
0.000135807
-1.3065e-06
0.000135925
-1.30085e-06
0.000136033
-1.29367e-06
0.00013613
-1.28496e-06
0.000136217
-1.27462e-06
0.000136294
-1.26243e-06
0.000136361
-1.24812e-06
0.00013642
-1.23134e-06
0.000136469
-1.21167e-06
0.000136511
-1.18873e-06
-1.16199e-06
0.000136546
0.000134695
-9.5086e-08
0.000134808
-2.75566e-07
0.000134984
-4.45278e-07
0.000135209
-6.05665e-07
0.000135469
-7.55887e-07
0.000135753
-8.9415e-07
0.000136051
-1.0187e-06
0.000136354
-1.12823e-06
0.000136656
-1.22208e-06
0.000136954
-1.30028e-06
0.000137243
-1.36348e-06
0.000137521
-1.41279e-06
0.000137787
-1.4496e-06
0.000138039
-1.47546e-06
0.000138278
-1.49196e-06
0.000138503
-1.50063e-06
0.000138714
-1.5029e-06
0.000138911
-1.50003e-06
0.000139094
-1.4931e-06
0.000139265
-1.48304e-06
0.000139423
-1.47057e-06
0.000139569
-1.45626e-06
0.000139702
-1.44049e-06
0.000139825
-1.42353e-06
0.000139937
-1.40549e-06
0.000140038
-1.38637e-06
0.00014013
-1.36608e-06
0.000140212
-1.34444e-06
0.000140285
-1.32119e-06
0.00014035
-1.29604e-06
0.000140407
-1.26866e-06
0.000140457
-1.23873e-06
-1.20582e-06
0.0001405
0.000138542
-1.35126e-07
0.000138658
-3.90933e-07
0.000138837
-6.24804e-07
0.000139067
-8.35879e-07
0.000139335
-1.02356e-06
0.000139628
-1.18734e-06
0.000139937
-1.32717e-06
0.000140252
-1.44359e-06
0.000140568
-1.53771e-06
0.000140879
-1.61115e-06
0.000141181
-1.66588e-06
0.000141472
-1.70406e-06
0.000141751
-1.72797e-06
0.000142015
-1.7398e-06
0.000142265
-1.74165e-06
0.000142499
-1.73543e-06
0.000142719
-1.72285e-06
0.000142925
-1.70535e-06
0.000143116
-1.68416e-06
0.000143293
-1.66031e-06
0.000143457
-1.63456e-06
0.000143608
-1.60751e-06
0.000143747
-1.57959e-06
0.000143875
-1.55105e-06
0.000143991
-1.52202e-06
0.000144098
-1.49252e-06
0.000144194
-1.46247e-06
0.000144281
-1.43171e-06
0.00014436
-1.40004e-06
0.000144431
-1.3672e-06
0.000144496
-1.33294e-06
0.000144554
-1.29703e-06
-1.25913e-06
0.000144607
0.000142501
-1.76849e-07
0.000142621
-5.11255e-07
0.000142809
-8.12365e-07
0.00014305
-1.07697e-06
0.000143331
-1.30459e-06
0.00014364
-1.49591e-06
0.000143965
-1.65246e-06
0.000144298
-1.77659e-06
0.000144631
-1.87127e-06
0.00014496
-1.93975e-06
0.00014528
-1.98541e-06
0.000145587
-2.0116e-06
0.000145881
-2.02153e-06
0.000146159
-2.01814e-06
0.000146421
-2.00411e-06
0.000146668
-1.98177e-06
0.000146898
-1.95314e-06
0.000147113
-1.91991e-06
0.000147312
-1.88347e-06
0.000147497
-1.84492e-06
0.000147667
-1.80513e-06
0.000147824
-1.76473e-06
0.000147969
-1.72417e-06
0.000148102
-1.68373e-06
0.000148223
-1.64354e-06
0.000148334
-1.60364e-06
0.000148436
-1.56394e-06
0.000148528
-1.52433e-06
0.000148613
-1.48461e-06
0.00014869
-1.44457e-06
0.000148761
-1.40398e-06
0.000148827
-1.36264e-06
-1.32024e-06
0.000148888
0.000146574
-2.21431e-07
0.000146703
-6.39859e-07
0.000146903
-1.01269e-06
0.00014716
-1.33424e-06
0.00014746
-1.60427e-06
0.000147789
-1.82476e-06
0.000148135
-1.99894e-06
0.00014849
-2.13109e-06
0.000148844
-2.22612e-06
0.000149194
-2.28901e-06
0.000149533
-2.32465e-06
0.000149859
-2.33766e-06
0.00015017
-2.33225e-06
0.000150464
-2.31222e-06
0.000150741
-2.28083e-06
0.000151
-2.24094e-06
0.000151241
-2.19489e-06
0.000151466
-2.14464e-06
0.000151674
-2.09177e-06
0.000151867
-2.03751e-06
0.000152045
-1.9828e-06
0.000152208
-1.92833e-06
0.000152359
-1.87456e-06
0.000152497
-1.8218e-06
0.000152623
-1.77019e-06
0.00015274
-1.71977e-06
0.000152846
-1.67047e-06
0.000152944
-1.62218e-06
0.000153034
-1.57472e-06
0.000153117
-1.52792e-06
0.000153195
-1.48157e-06
0.000153268
-1.43552e-06
-1.38951e-06
0.000153337
0.000150765
-2.70605e-07
0.000150907
-7.81615e-07
0.000151127
-1.23311e-06
0.000151409
-1.61665e-06
0.000151738
-1.93241e-06
0.000152097
-2.18385e-06
0.000152474
-2.37609e-06
0.000152858
-2.51568e-06
0.000153242
-2.60972e-06
0.000153618
-2.66521e-06
0.000153982
-2.68874e-06
0.000154331
-2.68633e-06
0.000154662
-2.66335e-06
0.000154974
-2.62446e-06
0.000155267
-2.57364e-06
0.00015554
-2.51425e-06
0.000155795
-2.44901e-06
0.00015603
-2.38017e-06
0.000156248
-2.30948e-06
0.000156449
-2.2383e-06
0.000156633
-2.16764e-06
0.000156803
-2.09825e-06
0.000156959
-2.03061e-06
0.000157103
-1.96502e-06
0.000157234
-1.90165e-06
0.000157355
-1.8405e-06
0.000157466
-1.78153e-06
0.000157568
-1.7246e-06
0.000157663
-1.66954e-06
0.000157751
-1.61615e-06
0.000157834
-1.56422e-06
0.000157912
-1.51357e-06
-1.46389e-06
0.000157986
0.000155077
-3.2578e-07
0.000155236
-9.40669e-07
0.000155482
-1.47907e-06
0.000155795
-1.92983e-06
0.000156157
-2.29442e-06
0.000156552
-2.57835e-06
0.000156964
-2.789e-06
0.000157384
-2.9354e-06
0.000157802
-3.0271e-06
0.00015821
-3.07327e-06
0.000158603
-3.08238e-06
0.000158979
-3.06202e-06
0.000159334
-3.01882e-06
0.000159668
-2.95845e-06
0.00015998
-2.88566e-06
0.00016027
-2.80436e-06
0.000160539
-2.71774e-06
0.000160787
-2.62831e-06
0.000161016
-2.53803e-06
0.000161226
-2.44839e-06
0.000161419
-2.36048e-06
0.000161596
-2.27507e-06
0.000161758
-2.19267e-06
0.000161906
-2.11358e-06
0.000162043
-2.03793e-06
0.000162168
-1.96572e-06
0.000162283
-1.89688e-06
0.00016239
-1.83125e-06
0.000162489
-1.76866e-06
0.000162582
-1.70888e-06
0.000162669
-1.6517e-06
0.000162753
-1.59695e-06
-1.54431e-06
0.000162833
0.000159516
-3.91215e-07
0.000159703
-1.12806e-06
0.000159991
-1.76663e-06
0.000160354
-2.29248e-06
0.000160769
-2.70937e-06
0.000161216
-3.02588e-06
0.00016168
-3.25266e-06
0.000162147
-3.40227e-06
0.000162607
-3.48743e-06
0.000163054
-3.51991e-06
0.000163482
-3.51028e-06
0.000163887
-3.46787e-06
0.000164269
-3.40065e-06
0.000164626
-3.31531e-06
0.000164958
-3.2174e-06
0.000165265
-3.11139e-06
0.000165548
-3.00087e-06
0.000165808
-2.88865e-06
0.000166047
-2.77686e-06
0.000166266
-2.66711e-06
0.000166466
-2.56054e-06
0.000166649
-2.45794e-06
0.000166816
-2.35982e-06
0.000166969
-2.26643e-06
0.000167109
-2.17789e-06
0.000167237
-2.09416e-06
0.000167355
-2.01511e-06
0.000167465
-1.94055e-06
0.000167566
-1.87025e-06
0.000167661
-1.80394e-06
0.000167751
-1.74133e-06
0.000167836
-1.68218e-06
-1.62605e-06
0.000167918
0.000164082
-4.66666e-07
0.000164299
-1.34583e-06
0.000164631
-2.09782e-06
0.000165045
-2.70698e-06
0.000165517
-3.18155e-06
0.000166025
-3.5334e-06
0.000166549
-3.77656e-06
0.000167074
-3.92754e-06
0.000167589
-4.00278e-06
0.000168086
-4.01714e-06
0.00016856
-3.9838e-06
0.000169006
-3.91416e-06
0.000169423
-3.81782e-06
0.000169811
-3.70268e-06
0.000170169
-3.57518e-06
0.000170498
-3.44045e-06
0.000170799
-3.30248e-06
0.000171075
-3.16436e-06
0.000171327
-3.02841e-06
0.000171556
-2.89628e-06
0.000171764
-2.76916e-06
0.000171954
-2.64781e-06
0.000172127
-2.53267e-06
0.000172285
-2.42397e-06
0.000172428
-2.32172e-06
0.00017256
-2.22584e-06
0.000172681
-2.13612e-06
0.000172793
-2.05233e-06
0.000172897
-1.97416e-06
0.000172994
-1.9013e-06
0.000173086
-1.83343e-06
0.000173174
-1.77028e-06
-1.71134e-06
0.00017326
0.000168795
-5.69492e-07
0.000169079
-1.62994e-06
0.000169498
-2.51685e-06
0.000170006
-3.21548e-06
0.00017057
-3.74513e-06
0.000171162
-4.12515e-06
0.000171761
-4.37585e-06
0.000172353
-4.51951e-06
0.000172927
-4.57678e-06
0.000173475
-4.56575e-06
0.000173994
-4.50214e-06
0.000174479
-4.39937e-06
0.00017493
-4.26857e-06
0.000175346
-4.11881e-06
0.000175728
-3.95737e-06
0.000176078
-3.78997e-06
0.000176396
-3.62104e-06
0.000176686
-3.45391e-06
0.000176948
-3.29103e-06
0.000177186
-3.13413e-06
0.000177401
-2.98438e-06
0.000177596
-2.84249e-06
0.000177772
-2.70883e-06
0.000177932
-2.58353e-06
0.000178077
-2.46652e-06
0.000178208
-2.3576e-06
0.000178329
-2.25648e-06
0.000178439
-2.16283e-06
0.000178541
-2.07625e-06
0.000178636
-1.99635e-06
0.000178726
-1.92269e-06
0.00017881
-1.85487e-06
-1.79224e-06
0.000178891
0.000173623
-6.80737e-07
0.000173953
-1.96025e-06
0.000174444
-3.00751e-06
0.000175045
-3.8165e-06
0.000175715
-4.41608e-06
0.00017642
-4.82987e-06
0.00017713
-5.08575e-06
0.000177825
-5.2146e-06
0.000178492
-5.24349e-06
0.000179121
-5.19529e-06
0.000179709
-5.08945e-06
0.000180252
-4.94216e-06
0.000180749
-4.76647e-06
0.000181203
-4.57281e-06
0.000181615
-4.36936e-06
0.000181988
-4.16241e-06
0.000182324
-3.95671e-06
0.000182625
-3.75572e-06
0.000182896
-3.56193e-06
0.000183139
-3.377e-06
0.000183357
-3.20197e-06
0.000183552
-3.03741e-06
0.000183726
-2.88353e-06
0.000183883
-2.74028e-06
0.000184024
-2.60743e-06
0.000184151
-2.48462e-06
0.000184266
-2.37143e-06
0.000184371
-2.26742e-06
0.000184466
-2.17212e-06
0.000184555
-2.08506e-06
0.000184638
-2.00576e-06
0.000184717
-1.93382e-06
-1.86842e-06
0.000184793
0.000178682
-8.94314e-07
0.00017919
-2.46822e-06
0.000179863
-3.68012e-06
0.000180621
-4.57443e-06
0.000181422
-5.21774e-06
0.000182235
-5.64294e-06
0.000183036
-5.8864e-06
0.000183808
-5.98648e-06
0.000184539
-5.97509e-06
0.000185223
-5.87911e-06
0.000185855
-5.72149e-06
0.000186434
-5.52106e-06
0.000186961
-5.29285e-06
0.000187436
-5.04864e-06
0.000187865
-4.79752e-06
0.000188249
-4.54632e-06
0.000188592
-4.30003e-06
0.000188898
-4.06219e-06
0.000189172
-3.83519e-06
0.000189415
-3.62052e-06
0.000189632
-3.41903e-06
0.000189826
-3.23101e-06
0.000189999
-3.05644e-06
0.000190153
-2.89501e-06
0.000190292
-2.74625e-06
0.000190417
-2.6096e-06
0.00019053
-2.48445e-06
0.000190633
-2.37021e-06
0.000190727
-2.26629e-06
0.000190814
-2.17214e-06
0.000190896
-2.08729e-06
0.000190973
-2.01124e-06
-1.94309e-06
0.000191048
0.000183746
-1.07256e-06
0.000184337
-3.05969e-06
0.00018517
-4.5131e-06
0.000186141
-5.54574e-06
0.000187169
-6.24549e-06
0.00018819
-6.66384e-06
0.00018917
-6.86666e-06
0.000190095
-6.91119e-06
0.000190958
-6.83819e-06
0.000191759
-6.67973e-06
0.000192499
-6.46169e-06
0.000193182
-6.2041e-06
0.000193812
-5.92239e-06
0.000194391
-5.62839e-06
0.000194925
-5.33104e-06
0.000195415
-5.03699e-06
0.000195866
-4.75105e-06
0.000196281
-4.47665e-06
0.000196662
-4.21603e-06
0.000197012
-3.97057e-06
0.000197334
-3.74099e-06
0.00019763
-3.52745e-06
0.000197904
-3.32977e-06
0.000198156
-3.14749e-06
0.00019839
-2.97998e-06
0.000198607
-2.82653e-06
0.000198809
-2.68641e-06
0.000198997
-2.55892e-06
0.000199175
-2.44347e-06
0.000199342
-2.33955e-06
0.000199502
-2.24702e-06
0.000199656
-2.16546e-06
-2.09504e-06
0.000199808
0.000189418
-1.67826e-06
0.000190406
-4.04819e-06
0.000191489
-5.59589e-06
0.000192649
-6.70599e-06
0.000193893
-7.48937e-06
0.000195199
-7.96971e-06
0.000196546
-8.2136e-06