/*--------------------------------*- C++ -*----------------------------------*\
| =========                 |                                                 |
| \\      /  F ield         | OpenFOAM: The Open Source CFD Toolbox           |
|  \\    /   O peration     | Version:  2.1.1                                 |
|   \\  /    A nd           | Web:      www.OpenFOAM.org                      |
|    \\/     M anipulation  |                                                 |
\*---------------------------------------------------------------------------*/
FoamFile
{
    version     2.0;
    format      ascii;
    class       volVectorField;
    location    "0.16";
    object      U;
}
// * * * * * * * * * * * * * * * * * * * * * * * * * * * * * * * * * * * * * //

dimensions      [0 1 -1 0 0 0 0];

internalField   nonuniform List<vector> 
6820
(
(6.37601 0.503745 0)
(4.42431 0.286868 0)
(2.97346 0.0202112 0)
(2.23406 -0.0619041 0)
(1.96823 -0.0599747 0)
(1.84107 -0.0345499 0)
(1.76576 -0.0151418 0)
(1.71318 -0.00477486 0)
(1.6693 -8.39685e-05 0)
(1.63108 0.00141194 0)
(1.59797 0.00138053 0)
(1.56948 0.000757567 0)
(1.54514 -2.41355e-05 0)
(1.52443 -0.000775533 0)
(1.50683 -0.00142365 0)
(1.49193 -0.00195288 0)
(1.47937 -0.00237354 0)
(1.46889 -0.0027049 0)
(1.46027 -0.00296709 0)
(1.45335 -0.00317786 0)
(1.44801 -0.00335141 0)
(1.44417 -0.00349717 0)
(1.44176 -0.00361932 0)
(1.44079 -0.00369726 0)
(1.44121 -0.00385618 0)
(1.44296 -0.00403037 0)
(1.44595 -0.00418725 0)
(1.45031 -0.00427882 0)
(1.45528 -0.0043354 0)
(1.46215 -0.0037482 0)
(1.46481 -0.00379836 0)
(1.47727 0.00474767 0)
(1.43983 -0.0169127 0)
(8.72022 0.959628 0)
(8.76475 1.01195 0)
(7.96867 0.679071 0)
(7.05482 0.393999 0)
(6.35325 0.202595 0)
(5.84615 0.103548 0)
(5.48335 0.0581214 0)
(5.22098 0.0376716 0)
(5.0241 0.0285163 0)
(4.87052 0.0240168 0)
(4.74684 0.0213214 0)
(4.64471 0.0193753 0)
(4.55877 0.0177817 0)
(4.48544 0.0163721 0)
(4.42225 0.0150621 0)
(4.36741 0.0138069 0)
(4.31959 0.0125813 0)
(4.2778 0.0113693 0)
(4.24126 0.0101586 0)
(4.20937 0.00893923 0)
(4.18167 0.00770218 0)
(4.15778 0.00644024 0)
(4.13742 0.00514663 0)
(4.12034 0.00383231 0)
(4.10633 0.00243266 0)
(4.09529 0.00101689 0)
(4.08702 -0.000403861 0)
(4.08144 -0.00168994 0)
(4.07825 -0.0030031 0)
(4.07743 -0.00337658 0)
(4.07781 -0.00404253 0)
(4.08203 0.00120665 0)
(4.08557 0.00412384 0)
(8.58612 0.583466 0)
(9.3313 0.762346 0)
(9.6144 0.660245 0)
(9.50416 0.52678 0)
(9.23749 0.397395 0)
(8.92428 0.299692 0)
(8.61738 0.231013 0)
(8.33998 0.181753 0)
(8.09635 0.145935 0)
(7.88425 0.119379 0)
(7.69999 0.099171 0)
(7.53974 0.0834467 0)
(7.40001 0.0709893 0)
(7.2778 0.0609679 0)
(7.17058 0.0527791 0)
(7.07624 0.0459711 0)
(6.99304 0.0402037 0)
(6.91951 0.0352201 0)
(6.85445 0.0308241 0)
(6.79688 0.0268643 0)
(6.74596 0.0232218 0)
(6.70102 0.0198018 0)
(6.66151 0.0165288 0)
(6.62695 0.0133372 0)
(6.59698 0.0102189 0)
(6.57129 0.00714372 0)
(6.5496 0.00410725 0)
(6.53167 0.00121989 0)
(6.51718 -0.00150844 0)
(6.50607 -0.00348275 0)
(6.49785 -0.00486717 0)
(6.49267 -0.00282074 0)
(6.4912 -0.000608783 0)
(8.44093 0.379677 0)
(8.9459 0.584032 0)
(9.35839 0.554654 0)
(9.58617 0.487332 0)
(9.70034 0.407637 0)
(9.73628 0.338775 0)
(9.72048 0.286587 0)
(9.67521 0.246732 0)
(9.61332 0.215561 0)
(9.54207 0.190482 0)
(9.46618 0.169639 0)
(9.38876 0.151898 0)
(9.31184 0.136534 0)
(9.23695 0.123047 0)
(9.16506 0.1111 0)
(9.09673 0.100439 0)
(9.0323 0.0908543 0)
(8.97194 0.082163 0)
(8.91568 0.0742088 0)
(8.86352 0.0668551 0)
(8.81538 0.059983 0)
(8.77117 0.0534886 0)
(8.7308 0.0472824 0)
(8.69414 0.0412902 0)
(8.66111 0.0354592 0)
(8.6316 0.0297485 0)
(8.60554 0.0241491 0)
(8.58285 0.0187164 0)
(8.56347 0.0135701 0)
(8.54752 0.00907622 0)
(8.53507 0.00539288 0)
(8.52665 0.00398939 0)
(8.52434 0.0051463 0)
(8.40214 0.280039 0)
(8.71898 0.480645 0)
(8.99888 0.461945 0)
(9.17441 0.404602 0)
(9.29903 0.342812 0)
(9.39266 0.290678 0)
(9.462 0.252017 0)
(9.5152 0.222823 0)
(9.55704 0.19977 0)
(9.58985 0.180951 0)
(9.61533 0.165093 0)
(9.63484 0.151396 0)
(9.64946 0.139364 0)
(9.65978 0.128643 0)
(9.66652 0.118965 0)
(9.67032 0.110118 0)
(9.67177 0.101937 0)
(9.67137 0.0942867 0)
(9.66957 0.0870535 0)
(9.66673 0.0801395 0)
(9.66319 0.0734593 0)
(9.65923 0.0669377 0)
(9.6551 0.0605087 0)
(9.65103 0.0541156 0)
(9.64721 0.0477176 0)
(9.64384 0.0412874 0)
(9.64109 0.0348194 0)
(9.63918 0.028359 0)
(9.63833 0.0219793 0)
(9.63893 0.0158871 0)
(9.64146 0.0101874 0)
(9.64699 0.00552185 0)
(9.657 0.00157332 0)
(8.37748 0.202141 0)
(8.60138 0.383502 0)
(8.81585 0.390636 0)
(8.94691 0.35639 0)
(9.03283 0.312236 0)
(9.09569 0.268987 0)
(9.14275 0.233423 0)
(9.18129 0.205213 0)
(9.21554 0.182559 0)
(9.24688 0.164117 0)
(9.27593 0.148785 0)
(9.30303 0.135728 0)
(9.32839 0.124398 0)
(9.35228 0.114421 0)
(9.37482 0.105493 0)
(9.39608 0.0973773 0)
(9.41615 0.0898953 0)
(9.4351 0.0829026 0)
(9.45301 0.0762797 0)
(9.46996 0.0699246 0)
(9.48602 0.0637486 0)
(9.50127 0.0576727 0)
(9.51581 0.0516271 0)
(9.52971 0.0455504 0)
(9.54306 0.0393924 0)
(9.55597 0.0331135 0)
(9.56856 0.0266865 0)
(9.58099 0.0201119 0)
(9.5935 0.0133986 0)
(9.60649 0.00661126 0)
(9.62039 -0.000281771 0)
(9.63636 -0.00723285 0)
(9.65538 -0.0148379 0)
(8.36128 0.148758 0)
(8.52275 0.311269 0)
(8.69752 0.336936 0)
(8.81235 0.317514 0)
(8.88704 0.284475 0)
(8.94022 0.248539 0)
(8.97808 0.217192 0)
(9.00681 0.19163 0)
(9.03083 0.170684 0)
(9.05207 0.153305 0)
(9.07148 0.138645 0)
(9.08967 0.126036 0)
(9.10697 0.115001 0)
(9.12357 0.105198 0)
(9.13958 0.0963733 0)
(9.15509 0.0883312 0)
(9.17016 0.0809113 0)
(9.18481 0.0739786 0)
(9.19907 0.0674162 0)
(9.21298 0.0611221 0)
(9.22654 0.0550057 0)
(9.23979 0.0489854 0)
(9.25275 0.0429875 0)
(9.26544 0.0369449 0)
(9.27792 0.0307971 0)
(9.29022 0.0244893 0)
(9.30245 0.017969 0)
(9.31473 0.0111912 0)
(9.32724 0.00409062 0)
(9.34031 -0.00340402 0)
(9.35439 -0.0115057 0)
(9.37032 -0.0205289 0)
(9.38857 -0.0314079 0)
(8.35116 0.111309 0)
(8.46743 0.251418 0)
(8.60824 0.286289 0)
(8.71003 0.278196 0)
(8.77992 0.256032 0)
(8.83165 0.228821 0)
(8.86955 0.202989 0)
(8.89817 0.180636 0)
(8.92145 0.161493 0)
(8.94142 0.145076 0)
(8.95913 0.130924 0)
(8.97528 0.11859 0)
(8.99034 0.107707 0)
(9.00455 0.097998 0)
(9.0181 0.0892393 0)
(9.03111 0.0812434 0)
(9.04368 0.0738523 0)
(9.05587 0.0669323 0)
(9.06774 0.0603682 0)
(9.07933 0.0540589 0)
(9.09067 0.0479138 0)
(9.1018 0.0418504 0)
(9.11277 0.0357919 0)
(9.12359 0.0296658 0)
(9.13433 0.0234016 0)
(9.14504 0.0169286 0)
(9.15581 0.0101697 0)
(9.16675 0.00303559 0)
(9.17803 -0.0045991 0)
(9.18989 -0.0129106 0)
(9.20263 -0.0222219 0)
(9.21674 -0.0330197 0)
(9.23242 -0.0461546 0)
(8.34487 0.0846172 0)
(8.4294 0.20349 0)
(8.54223 0.243428 0)
(8.63101 0.244212 0)
(8.69505 0.23021 0)
(8.74421 0.209441 0)
(8.78171 0.187752 0)
(8.81077 0.167977 0)
(8.83467 0.150544 0)
(8.85522 0.135301 0)
(8.8734 0.121984 0)
(8.8899 0.110265 0)
(8.90515 0.0998475 0)
(8.91945 0.0904888 0)
(8.93299 0.0819902 0)
(8.9459 0.0741841 0)
(8.95829 0.0669293 0)
(8.97024 0.0601047 0)
(8.98182 0.0536035 0)
(8.99306 0.0473299 0)
(9.00401 0.0411961 0)
(9.01472 0.0351199 0)
(9.02522 0.029023 0)
(9.03554 0.0228282 0)
(9.04574 0.016457 0)
(9.05588 0.00982533 0)
(9.06601 0.00283599 0)
(9.07624 -0.00462972 0)
(9.08669 -0.0127354 0)
(9.09752 -0.0217066 0)
(9.10888 -0.0319009 0)
(9.12104 -0.0438486 0)
(9.13394 -0.0582648 0)
(8.34094 0.0653557 0)
(8.40309 0.165111 0)
(8.49332 0.206256 0)
(8.57004 0.212892 0)
(8.62819 0.204896 0)
(8.67434 0.189576 0)
(8.71084 0.171984 0)
(8.73983 0.155044 0)
(8.76389 0.139556 0)
(8.78467 0.125621 0)
(8.80307 0.113169 0)
(8.81975 0.102031 0)
(8.83515 0.0920094 0)
(8.84956 0.0829253 0)
(8.86317 0.0746221 0)
(8.87612 0.0669595 0)
(8.88853 0.0598124 0)
(8.90046 0.0530688 0)
(8.91197 0.0466276 0)
(8.92312 0.0403956 0)
(8.93395 0.0342864 0)
(8.94449 0.0282177 0)
(8.95477 0.0221091 0)
(8.96483 0.0158801 0)
(8.97472 0.00944584 0)
(8.98446 0.00271268 0)
(8.99412 -0.00442965 0)
(9.00375 -0.0121157 0)
(9.01342 -0.0205269 0)
(9.02322 -0.0299082 0)
(9.0332 -0.0406095 0)
(9.04339 -0.0531273 0)
(9.05361 -0.0679993 0)
(8.33846 0.0511827 0)
(8.38474 0.134251 0)
(8.45694 0.174208 0)
(8.5229 0.184782 0)
(8.57544 0.181451 0)
(8.61849 0.17061 0)
(8.6536 0.156514 0)
(8.68218 0.142 0)
(8.70621 0.128181 0)
(8.72709 0.1154 0)
(8.74565 0.10376 0)
(8.76249 0.0932116 0)
(8.77801 0.0836333 0)
(8.79252 0.074892 0)
(8.80619 0.0668584 0)
(8.81917 0.0594105 0)
(8.83157 0.0524355 0)
(8.84345 0.0458301 0)
(8.85489 0.0394996 0)
(8.86593 0.0333555 0)
(8.8766 0.0273145 0)
(8.88695 0.0212958 0)
(8.897 0.0152192 0)
(8.90678 0.00900279 0)
(8.91631 0.00255882 0)
(8.92563 -0.0042102 0)
(8.93477 -0.0114191 0)
(8.94375 -0.0192087 0)
(8.95259 -0.0277596 0)
(8.9613 -0.0373059 0)
(8.96985 -0.0481541 0)
(8.97812 -0.0607201 0)
(8.98587 -0.0753678 0)
(8.33687 0.0405441 0)
(8.37183 0.109376 0)
(8.42975 0.146649 0)
(8.48622 0.15946 0)
(8.53342 0.159405 0)
(8.57333 0.151994 0)
(8.60688 0.14083 0)
(8.63488 0.128541 0)
(8.65878 0.116374 0)
(8.67972 0.104818 0)
(8.69843 0.0940757 0)
(8.71543 0.0841881 0)
(8.7311 0.0751019 0)
(8.74573 0.0667312 0)
(8.75949 0.0589807 0)
(8.77252 0.051753 0)
(8.78494 0.0449527 0)
(8.79681 0.0384892 0)
(8.80819 0.032276 0)
(8.81914 0.0262308 0)
(8.82968 0.0202738 0)
(8.83985 0.0143269 0)
(8.84967 0.00831174 0)
(8.85917 0.00214691 0)
(8.86836 -0.00425469 0)
(8.87725 -0.0109896 0)
(8.88585 -0.0181705 0)
(8.89415 -0.0259318 0)
(8.90215 -0.034439 0)
(8.90978 -0.0438961 0)
(8.91695 -0.054551 0)
(8.92346 -0.066724 0)
(8.92906 -0.0806291 0)
(8.33583 0.0323897 0)
(8.36263 0.0891932 0)
(8.40932 0.12293 0)
(8.45755 0.136689 0)
(8.4998 0.138881 0)
(8.53663 0.134119 0)
(8.56848 0.125412 0)
(8.59572 0.115083 0)
(8.61934 0.104405 0)
(8.64024 0.0939646 0)
(8.65903 0.084052 0)
(8.67616 0.0747862 0)
(8.69198 0.0661765 0)
(8.70674 0.0581799 0)
(8.72062 0.0507304 0)
(8.73374 0.043751 0)
(8.7462 0.0371605 0)
(8.75808 0.0308776 0)
(8.76945 0.0248232 0)
(8.78033 0.01892 0)
(8.79076 0.0130927 0)
(8.80077 0.00726635 0)
(8.81039 0.00136565 0)
(8.81961 -0.00468748 0)
(8.82846 -0.010976 0)
(8.83692 -0.0175916 0)
(8.84499 -0.0246378 0)
(8.85264 -0.0322344 0)
(8.85982 -0.0405219 0)
(8.86643 -0.0496648 0)
(8.87235 -0.0598463 0)
(8.87734 -0.0712911 0)
(8.88115 -0.0840916 0)
(8.33514 0.0260064 0)
(8.35601 0.0726894 0)
(8.39388 0.102499 0)
(8.43507 0.116235 0)
(8.47277 0.1198 0)
(8.50665 0.116948 0)
(8.53673 0.110176 0)
(8.56307 0.101494 0)
(8.58628 0.0921372 0)
(8.60706 0.0827406 0)
(8.62588 0.0736464 0)
(8.64312 0.065023 0)
(8.65907 0.0569236 0)
(8.67396 0.0493382 0)
(8.68795 0.0422255 0)
(8.70115 0.0355273 0)
(8.71368 0.0291764 0)
(8.72558 0.0231029 0)
(8.73693 0.0172358 0)
(8.74775 0.0115047 0)
(8.75808 0.00583996 0)
(8.76795 0.000171808 0)
(8.77736 -0.00557013 0)
(8.78633 -0.0114582 0)
(8.79484 -0.0175687 0)
(8.8029 -0.0239838 0)
(8.81046 -0.0307934 0)
(8.81749 -0.0380975 0)
(8.82391 -0.0460066 0)
(8.82962 -0.0546416 0)
(8.83446 -0.0641237 0)
(8.8382 -0.0745924 0)
(8.84061 -0.0860483 0)
(8.33466 0.0209061 0)
(8.35118 0.0590621 0)
(8.38215 0.0848426 0)
(8.41738 0.0978428 0)
(8.451 0.102083 0)
(8.4821 0.100536 0)
(8.51041 0.0952559 0)
(8.53576 0.0879467 0)
(8.55848 0.0797466 0)
(8.57904 0.071297 0)
(8.59783 0.0629651 0)
(8.61512 0.0549527 0)
(8.63117 0.0473478 0)
(8.64617 0.0401694 0)
(8.66026 0.0333987 0)
(8.67356 0.0269944 0)
(8.68614 0.0209028 0)
(8.69807 0.0150636 0)
(8.70941 0.00941388 0)
(8.72019 0.00388966 0)
(8.73043 -0.00157311 0)
(8.74016 -0.0070385 0)
(8.74939 -0.0125708 0)
(8.75811 -0.0182354 0)
(8.76631 -0.0240998 0)
(8.77399 -0.0302341 0)
(8.78109 -0.036712 0)
(8.78756 -0.043611 0)
(8.79332 -0.0510102 0)
(8.79826 -0.0589888 0)
(8.80223 -0.0676134 0)
(8.80499 -0.0769525 0)
(8.80638 -0.0869425 0)
(8.33432 0.0167496 0)
(8.34761 0.0476831 0)
(8.37319 0.0695102 0)
(8.40345 0.0812751 0)
(8.43344 0.0856319 0)
(8.46197 0.0848748 0)
(8.48856 0.0806729 0)
(8.51288 0.0744462 0)
(8.53503 0.067213 0)
(8.55532 0.0595928 0)
(8.57401 0.0519591 0)
(8.59132 0.0445313 0)
(8.60745 0.0374191 0)
(8.62254 0.0306618 0)
(8.63673 0.0242571 0)
(8.65011 0.0181769 0)
(8.66275 0.0123784 0)
(8.67471 0.00681014 0)
(8.68605 0.00141656 0)
(8.69678 -0.00385959 0)
(8.70694 -0.00907599 0)
(8.71655 -0.0142902 0)
(8.7256 -0.0195593 0)
(8.73409 -0.0249405 0)
(8.74202 -0.0304906 0)
(8.74934 -0.0362663 0)
(8.75603 -0.0423239 0)
(8.76203 -0.0487179 0)
(8.76724 -0.0554981 0)
(8.77156 -0.0627064 0)
(8.77486 -0.0703646 0)
(8.77693 -0.0784864 0)
(8.77765 -0.0869667 0)
(8.33407 0.0132973 0)
(8.34495 0.0380613 0)
(8.36631 0.0561056 0)
(8.39245 0.0662964 0)
(8.41927 0.07033 0)
(8.44548 0.0699347 0)
(8.47044 0.0664495 0)
(8.49372 0.0610424 0)
(8.51528 0.0545998 0)
(8.53526 0.0476962 0)
(8.55381 0.040693 0)
(8.57111 0.0338125 0)
(8.58728 0.0271756 0)
(8.60245 0.0208352 0)
(8.61672 0.014801 0)
(8.63018 0.00905625 0)
(8.64287 0.0035671 0)
(8.65487 -0.00170964 0)
(8.66621 -0.0068225 0)
(8.67691 -0.0118222 0)
(8.687 -0.0167601 0)
(8.69649 -0.0216869 0)
(8.70539 -0.0266523 0)
(8.71369 -0.0317043 0)
(8.72137 -0.0368888 0)
(8.7284 -0.0422491 0)
(8.73475 -0.0478242 0)
(8.74036 -0.0536476 0)
(8.74514 -0.059743 0)
(8.749 -0.0661217 0)
(8.75184 -0.0727712 0)
(8.75347 -0.0796656 0)
(8.75382 -0.0866769 0)
(8.33389 0.0103764 0)
(8.34294 0.0298121 0)
(8.36101 0.0442851 0)
(8.38378 0.0526832 0)
(8.40787 0.0560519 0)
(8.43199 0.0556646 0)
(8.45546 0.0525796 0)
(8.47775 0.0477455 0)
(8.4987 0.0419159 0)
(8.51834 0.0356069 0)
(8.53674 0.0291561 0)
(8.554 0.0227784 0)
(8.5702 0.0165976 0)
(8.58543 0.0106732 0)
(8.59978 0.00502278 0)
(8.6133 -0.000363258 0)
(8.62606 -0.00551179 0)
(8.63809 -0.0104598 0)
(8.64943 -0.0152501 0)
(8.66011 -0.0199274 0)
(8.67014 -0.0245373 0)
(8.67954 -0.0291237 0)
(8.6883 -0.0337288 0)
(8.69643 -0.0383918 0)
(8.7039 -0.0431478 0)
(8.7107 -0.0480271 0)
(8.71678 -0.0530535 0)
(8.72209 -0.0582418 0)
(8.72656 -0.0635949 0)
(8.73012 -0.0691002 0)
(8.73268 -0.0747211 0)
(8.73409 -0.0804058 0)
(8.73434 -0.0860177 0)
(8.33375 0.00785923 0)
(8.34142 0.0226325 0)
(8.35693 0.0337516 0)
(8.37695 0.0402227 0)
(8.39872 0.0426633 0)
(8.42104 0.0419927 0)
(8.44315 0.0390353 0)
(8.46453 0.0345513 0)
(8.4849 0.0291685 0)
(8.50421 0.0233368 0)
(8.52245 0.0173603 0)
(8.53965 0.0114374 0)
(8.55587 0.00568611 0)
(8.57117 0.000166499 0)
(8.58559 -0.00510103 0)
(8.59919 -0.010122 0)
(8.612 -0.0149187 0)
(8.62408 -0.0195234 0)
(8.63543 -0.0239738 0)
(8.6461 -0.0283096 0)
(8.65609 -0.0325705 0)
(8.66541 -0.0367941 0)
(8.67408 -0.0410154 0)
(8.68207 -0.0452649 0)
(8.68939 -0.049568 0)
(8.69601 -0.0539435 0)
(8.70189 -0.0584018 0)
(8.707 -0.062943 0)
(8.71129 -0.0675537 0)
(8.71468 -0.0722047 0)
(8.71713 -0.0768438 0)
(8.71853 -0.0814044 0)
(8.71888 -0.0857516 0)
(8.33365 0.00564932 0)
(8.34026 0.0162813 0)
(8.35378 0.0242486 0)
(8.37161 0.0287143 0)
(8.39145 0.0300252 0)
(8.41222 0.0288331 0)
(8.43316 0.0257706 0)
(8.45372 0.0214387 0)
(8.47356 0.0163497 0)
(8.49256 0.0108848 0)
(8.51065 0.00530851 0)
(8.5278 -0.000203758 0)
(8.54405 -0.00554524 0)
(8.5594 -0.0106607 0)
(8.57389 -0.0155307 0)
(8.58756 -0.0201602 0)
(8.60044 -0.0245694 0)
(8.61256 -0.0287878 0)
(8.62394 -0.0328497 0)
(8.6346 -0.0367911 0)
(8.64457 -0.0406468 0)
(8.65384 -0.0444495 0)
(8.66242 -0.0482277 0)
(8.67032 -0.0520047 0)
(8.67753 -0.0557977 0)
(8.68402 -0.0596159 0)
(8.68978 -0.0634594 0)
(8.69477 -0.0673173 0)
(8.69897 -0.0711649 0)
(8.70233 -0.0749628 0)
(8.70481 -0.078651 0)
(8.70634 -0.082157 0)
(8.70696 -0.0853545 0)
(8.33357 0.00367148 0)
(8.33939 0.0105631 0)
(8.35138 0.0155527 0)
(8.36747 0.0179684 0)
(8.38575 0.0179933 0)
(8.40523 0.0160833 0)
(8.42519 0.0127163 0)
(8.44505 0.00835918 0)
(8.46444 0.00342036 0)
(8.48318 -0.00178781 0)
(8.50115 -0.00704438 0)
(8.51829 -0.0122021 0)
(8.53457 -0.0171711 0)
(8.54999 -0.0219061 0)
(8.56458 -0.0263928 0)
(8.57834 -0.0306383 0)
(8.5913 -0.0346632 0)
(8.60348 -0.038496 0)
(8.6149 -0.0421689 0)
(8.62559 -0.0457148 0)
(8.63555 -0.0491648 0)
(8.6448 -0.0525468 0)
(8.65334 -0.055884 0)
(8.66119 -0.0591938 0)
(8.66833 -0.0624863 0)
(8.67476 -0.0657636 0)
(8.68046 -0.0690179 0)
(8.68543 -0.0722309 0)
(8.68964 -0.0753711 0)
(8.69306 -0.0783939 0)
(8.69568 -0.0812373 0)
(8.69747 -0.0838288 0)
(8.69847 -0.086055 0)
(8.33351 0.00186522 0)
(8.33873 0.00531625 0)
(8.34958 0.007467 0)
(8.36433 0.00780436 0)
(8.38138 0.00642068 0)
(8.39984 0.00363216 0)
(8.41901 -0.000205524 0)
(8.43831 -0.00473607 0)
(8.45736 -0.00964282 0)
(8.4759 -0.0146791 0)
(8.4938 -0.0196696 0)
(8.51094 -0.0244978 0)
(8.52728 -0.0290957 0)
(8.5428 -0.0334316 0)
(8.55748 -0.0375005 0)
(8.57134 -0.0413151 0)
(8.58439 -0.0448991 0)
(8.59664 -0.0482826 0)
(8.60811 -0.0514979 0)
(8.61883 -0.0545767 0)
(8.6288 -0.0575483 0)
(8.63805 -0.0604375 0)
(8.64657 -0.0632638 0)
(8.65439 -0.0660403 0)
(8.66151 -0.0687725 0)
(8.66792 -0.0714573 0)
(8.67363 -0.0740825 0)
(8.67862 -0.0766252 0)
(8.68291 -0.0790516 0)
(8.68647 -0.0813158 0)
(8.68932 -0.0833583 0)
(8.69144 -0.0851118 0)
(8.6929 -0.0864781 0)
(8.33347 0.000180147 0)
(8.33826 0.0004027 0)
(8.34827 -0.00018665 0)
(8.36203 -0.00195367 0)
(8.37817 -0.00484982 0)
(8.39587 -0.00865626 0)
(8.41446 -0.0131137 0)
(8.43337 -0.0179591 0)
(8.4522 -0.0229577 0)
(8.47065 -0.027926 0)
(8.48855 -0.0327353 0)
(8.50577 -0.0373036 0)
(8.52222 -0.0415869 0)
(8.53787 -0.0455709 0)
(8.5527 -0.0492621 0)
(8.56669 -0.0526811 0)
(8.57986 -0.0558567 0)
(8.59221 -0.0588217 0)
(8.60377 -0.0616095 0)
(8.61454 -0.0642517 0)
(8.62456 -0.0667764 0)
(8.63384 -0.0692066 0)
(8.64239 -0.0715593 0)
(8.65022 -0.0738446 0)
(8.65736 -0.076065 0)
(8.6638 -0.0782145 0)
(8.66956 -0.0802785 0)
(8.67465 -0.0822328 0)
(8.67907 -0.0840436 0)
(8.68284 -0.0856671 0)
(8.68597 -0.087049 0)
(8.68848 -0.0881293 0)
(8.69042 -0.0888251 0)
(8.33344 -0.0014275 0)
(8.33794 -0.00429969 0)
(8.34738 -0.00757291 0)
(8.36047 -0.0114762 0)
(8.37599 -0.0159728 0)
(8.39319 -0.0209079 0)
(8.41142 -0.0260953 0)
(8.43012 -0.0313485 0)
(8.44885 -0.0365039 0)
(8.46731 -0.0414377 0)
(8.48529 -0.046068 0)
(8.50264 -0.05035 0)
(8.51925 -0.0542683 0)
(8.53506 -0.0578301 0)
(8.55005 -0.0610583 0)
(8.56419 -0.0639854 0)
(8.57749 -0.0666487 0)
(8.58995 -0.0690871 0)
(8.6016 -0.0713378 0)
(8.61245 -0.0734347 0)
(8.62252 -0.0754066 0)
(8.63184 -0.0772765 0)
(8.64043 -0.0790607 0)
(8.6483 -0.0807681 0)
(8.65548 -0.0823999 0)
(8.66198 -0.0839494 0)
(8.66783 -0.0854016 0)
(8.67304 -0.0867331 0)
(8.67764 -0.0879123 0)
(8.68164 -0.0888999 0)
(8.68508 -0.0896486 0)
(8.68799 -0.0901079 0)
(8.69044 -0.0902097 0)
(8.33343 -0.00299855 0)
(8.33775 -0.00890585 0)
(8.34686 -0.0148547 0)
(8.35958 -0.0209473 0)
(8.37478 -0.0271416 0)
(8.39175 -0.0333268 0)
(8.40988 -0.0393771 0)
(8.42857 -0.0451727 0)
(8.4474 -0.0506159 0)
(8.46603 -0.0556395 0)
(8.48422 -0.060208 0)
(8.50181 -0.0643135 0)
(8.51866 -0.0679696 0)
(8.53472 -0.0712058 0)
(8.54994 -0.0740617 0)
(8.56429 -0.0765825 0)
(8.57777 -0.0788151 0)
(8.59039 -0.080805 0)
(8.60217 -0.0825943 0)
(8.61313 -0.0842202 0)
(8.62329 -0.0857137 0)
(8.63268 -0.0870988 0)
(8.64134 -0.0883924 0)
(8.64928 -0.089604 0)
(8.65653 -0.090735 0)
(8.66312 -0.0917795 0)
(8.66909 -0.092724 0)
(8.67445 -0.0935476 0)
(8.67924 -0.0942225 0)
(8.6835 -0.0947152 0)
(8.68726 -0.0949857 0)
(8.69055 -0.0949925 0)
(8.69347 -0.0946809 0)
(8.33342 -0.00457256 0)
(8.33769 -0.0135272 0)
(8.3467 -0.0221889 0)
(8.35932 -0.0305351 0)
(8.37447 -0.0385008 0)
(8.39149 -0.0459996 0)
(8.40973 -0.0529496 0)
(8.42862 -0.0592884 0)
(8.44769 -0.0649796 0)
(8.46661 -0.0700138 0)
(8.48511 -0.074407 0)
(8.50301 -0.0781947 0)
(8.52017 -0.0814267 0)
(8.53652 -0.0841616 0)
(8.55199 -0.086462 0)
(8.56657 -0.0883907 0)
(8.58026 -0.090008 0)
(8.59305 -0.0913692 0)
(8.60497 -0.0925237 0)
(8.61605 -0.0935136 0)
(8.62631 -0.0943732 0)
(8.63579 -0.0951292 0)
(8.64452 -0.0957998 0)
(8.65254 -0.0963959 0)
(8.65987 -0.0969203 0)
(8.66657 -0.0973687 0)
(8.67265 -0.09773 0)
(8.67817 -0.0979866 0)
(8.68316 -0.0981155 0)
(8.68766 -0.0980889 0)
(8.69173 -0.0978749 0)
(8.6954 -0.0974417 0)
(8.69876 -0.096746 0)
(8.33343 -0.00619087 0)
(8.33775 -0.0182855 0)
(8.34689 -0.0297663 0)
(8.35972 -0.040493 0)
(8.37517 -0.0503801 0)
(8.39256 -0.0593644 0)
(8.41124 -0.0674063 0)
(8.43062 -0.0744967 0)
(8.45021 -0.0806541 0)
(8.46965 -0.0859206 0)
(8.48867 -0.0903568 0)
(8.50705 -0.0940373 0)
(8.52466 -0.0970443 0)
(8.54141 -0.0994635 0)
(8.55724 -0.10138 0)
(8.57212 -0.102875 0)
(8.58607 -0.104022 0)
(8.59908 -0.10489 0)
(8.61118 -0.105536 0)
(8.6224 -0.106009 0)
(8.63279 -0.10635 0)
(8.64237 -0.10659 0)
(8.65119 -0.10675 0)
(8.65929 -0.106844 0)
(8.66672 -0.106879 0)
(8.67351 -0.106852 0)
(8.67972 -0.106757 0)
(8.68539 -0.106579 0)
(8.69056 -0.106302 0)
(8.69529 -0.105903 0)
(8.69962 -0.105356 0)
(8.7036 -0.104639 0)
(8.70731 -0.103716 0)
(8.33344 -0.00789849 0)
(8.33794 -0.0233023 0)
(8.34743 -0.0377408 0)
(8.36075 -0.0509361 0)
(8.37677 -0.0627637 0)
(8.39479 -0.0731712 0)
(8.41415 -0.0821588 0)
(8.43421 -0.0897789 0)
(8.45448 -0.0961212 0)
(8.47458 -0.101297 0)
(8.49422 -0.10543 0)
(8.51318 -0.108648 0)
(8.53132 -0.111077 0)
(8.54854 -0.112838 0)
(8.56478 -0.114045 0)
(8.58002 -0.114799 0)
(8.59427 -0.115191 0)
(8.60753 -0.1153 0)
(8.61984 -0.115194 0)
(8.63123 -0.114927 0)
(8.64176 -0.114545 0)
(8.65145 -0.114081 0)
(8.66037 -0.113562 0)
(8.66857 -0.113003 0)
(8.67608 -0.112413 0)
(8.68298 -0.111793 0)
(8.6893 -0.111139 0)
(8.6951 -0.110442 0)
(8.70043 -0.109688 0)
(8.70535 -0.108861 0)
(8.70992 -0.107943 0)
(8.71418 -0.106918 0)
(8.71823 -0.105757 0)
(8.33347 -0.00975265 0)
(8.33829 -0.0287633 0)
(8.34846 -0.0464571 0)
(8.3627 -0.0624379 0)
(8.37978 -0.0765693 0)
(8.39894 -0.0888183 0)
(8.41946 -0.0992142 0)
(8.44066 -0.10785 0)
(8.462 -0.114861 0)
(8.48309 -0.120409 0)
(8.50362 -0.124664 0)
(8.52336 -0.127799 0)
(8.54219 -0.129984 0)
(8.55999 -0.131376 0)
(8.57673 -0.13212 0)
(8.59239 -0.132345 0)
(8.60697 -0.132165 0)
(8.6205 -0.131676 0)
(8.63302 -0.13096 0)
(8.64459 -0.130084 0)
(8.65524 -0.129102 0)
(8.66504 -0.128054 0)
(8.67404 -0.126972 0)
(8.6823 -0.125876 0)
(8.68988 -0.124778 0)
(8.69684 -0.123684 0)
(8.70324 -0.122594 0)
(8.70913 -0.121501 0)
(8.71457 -0.120398 0)
(8.71962 -0.119271 0)
(8.72433 -0.118107 0)
(8.72876 -0.116894 0)
(8.73297 -0.115609 0)
(8.33351 -0.0118137 0)
(8.33878 -0.0347842 0)
(8.34985 -0.0559159 0)
(8.36526 -0.0746269 0)
(8.38363 -0.0907581 0)
(8.40413 -0.104328 0)
(8.42601 -0.115456 0)
(8.44854 -0.124347 0)
(8.47115 -0.131247 0)
(8.49342 -0.136409 0)
(8.51503 -0.140079 0)
(8.53576 -0.142491 0)
(8.55544 -0.143859 0)
(8.57399 -0.144376 0)
(8.59137 -0.144215 0)
(8.60755 -0.143522 0)
(8.62257 -0.142427 0)
(8.63646 -0.141037 0)
(8.64926 -0.139442 0)
(8.66104 -0.137716 0)
(8.67186 -0.135917 0)
(8.68178 -0.134089 0)
(8.69088 -0.132268 0)
(8.69921 -0.130477 0)
(8.70686 -0.128732 0)
(8.71387 -0.127041 0)
(8.72033 -0.125406 0)
(8.72628 -0.123826 0)
(8.7318 -0.122296 0)
(8.73694 -0.120807 0)
(8.74177 -0.11935 0)
(8.74635 -0.117918 0)
(8.75075 -0.11649 0)
(8.3336 -0.0141962 0)
(8.33965 -0.0418389 0)
(8.3523 -0.0672197 0)
(8.36975 -0.089632 0)
(8.39034 -0.108905 0)
(8.41308 -0.125032 0)
(8.43709 -0.138117 0)
(8.46156 -0.148388 0)
(8.48591 -0.156151 0)
(8.5097 -0.161728 0)
(8.53261 -0.165446 0)
(8.55444 -0.167615 0)
(8.57505 -0.168521 0)
(8.59437 -0.168418 0)
(8.61237 -0.167529 0)
(8.62906 -0.166043 0)
(8.64448 -0.164122 0)
(8.65867 -0.161898 0)
(8.6717 -0.159479 0)
(8.68365 -0.156952 0)
(8.69458 -0.154385 0)
(8.70457 -0.15183 0)
(8.7137 -0.149326 0)
(8.72205 -0.1469 0)
(8.72969 -0.14457 0)
(8.73668 -0.142348 0)
(8.74312 -0.140237 0)
(8.74905 -0.138238 0)
(8.75455 -0.136347 0)
(8.75967 -0.134558 0)
(8.76449 -0.132863 0)
(8.76904 -0.131256 0)
(8.7734 -0.129718 0)
(8.33366 -0.016962 0)
(8.34048 -0.0496993 0)
(8.35474 -0.0790245 0)
(8.37422 -0.104058 0)
(8.39704 -0.124841 0)
(8.42215 -0.141639 0)
(8.44857 -0.154797 0)
(8.47541 -0.164741 0)
(8.50198 -0.17191 0)
(8.5278 -0.176716 0)
(8.55253 -0.179542 0)
(8.57594 -0.180739 0)
(8.59791 -0.18062 0)
(8.61836 -0.179462 0)
(8.63729 -0.177503 0)
(8.65474 -0.174948 0)
(8.67075 -0.17197 0)
(8.6854 -0.168713 0)
(8.69878 -0.165295 0)
(8.71098 -0.16181 0)
(8.72208 -0.158333 0)
(8.73219 -0.154921 0)
(8.74139 -0.151619 0)
(8.74976 -0.148456 0)
(8.7574 -0.145455 0)
(8.76439 -0.142629 0)
(8.77079 -0.139985 0)
(8.77669 -0.137526 0)
(8.78215 -0.135251 0)
(8.78725 -0.133156 0)
(8.79205 -0.131235 0)
(8.79661 -0.129483 0)
(8.80102 -0.12788 0)
(8.3339 -0.0204962 0)
(8.34277 -0.060452 0)
(8.36065 -0.0965749 0)
(8.38432 -0.127655 0)
(8.41117 -0.153489 0)
(8.43995 -0.174123 0)
(8.4696 -0.189875 0)
(8.4992 -0.201314 0)
(8.52812 -0.209079 0)
(8.55593 -0.213782 0)
(8.58235 -0.215995 0)
(8.60717 -0.216229 0)
(8.63031 -0.214926 0)
(8.65173 -0.212459 0)
(8.67144 -0.20914 0)
(8.68951 -0.205222 0)
(8.706 -0.200914 0)
(8.721 -0.19638 0)
(8.73462 -0.191752 0)
(8.74696 -0.187131 0)
(8.75813 -0.182594 0)
(8.76823 -0.178201 0)
(8.77737 -0.173992 0)
(8.78565 -0.169999 0)
(8.79315 -0.166241 0)
(8.79996 -0.16273 0)
(8.80617 -0.159472 0)
(8.81186 -0.156471 0)
(8.81709 -0.153724 0)
(8.82195 -0.151228 0)
(8.82649 -0.148976 0)
(8.83077 -0.146963 0)
(8.83485 -0.145164 0)
(8.33387 -0.0245334 0)
(8.34356 -0.0706247 0)
(8.36387 -0.109704 0)
(8.39094 -0.141517 0)
(8.42191 -0.167137 0)
(8.45528 -0.187232 0)
(8.48957 -0.202361 0)
(8.52354 -0.213175 0)
(8.55639 -0.220299 0)
(8.58761 -0.224303 0)
(8.61689 -0.225726 0)
(8.64406 -0.225066 0)
(8.66906 -0.222764 0)
(8.69192 -0.219212 0)
(8.7127 -0.214743 0)
(8.73151 -0.209641 0)
(8.74849 -0.20414 0)
(8.76377 -0.19843 0)
(8.7775 -0.192663 0)
(8.78981 -0.186958 0)
(8.80084 -0.181405 0)
(8.81072 -0.176072 0)
(8.81958 -0.171006 0)
(8.82751 -0.166241 0)
(8.83464 -0.161801 0)
(8.84105 -0.157697 0)
(8.84685 -0.153937 0)
(8.8521 -0.150524 0)
(8.8569 -0.147456 0)
(8.86131 -0.144731 0)
(8.86543 -0.142343 0)
(8.86929 -0.140286 0)
(8.87302 -0.138528 0)
(8.33497 -0.0314048 0)
(8.3513 -0.092846 0)
(8.38033 -0.14622 0)
(8.41495 -0.189409 0)
(8.45168 -0.222776 0)
(8.48961 -0.247133 0)
(8.52757 -0.263799 0)
(8.56448 -0.274252 0)
(8.59969 -0.279772 0)
(8.63282 -0.281435 0)
(8.66359 -0.280147 0)
(8.69188 -0.27665 0)
(8.71769 -0.271541 0)
(8.74107 -0.265296 0)
(8.76215 -0.258296 0)
(8.78108 -0.250841 0)
(8.79803 -0.243166 0)
(8.81317 -0.235456 0)
(8.82667 -0.22785 0)
(8.8387 -0.220455 0)
(8.84942 -0.213348 0)
(8.85898 -0.206586 0)
(8.86751 -0.200205 0)
(8.87514 -0.194232 0)
(8.88197 -0.188681 0)
(8.88811 -0.183559 0)
(8.89365 -0.17887 0)
(8.89867 -0.174615 0)
(8.90325 -0.170793 0)
(8.90747 -0.167403 0)
(8.91139 -0.164442 0)
(8.91508 -0.161907 0)
(8.91862 -0.159761 0)
(8.33402 -0.0363795 0)
(8.34986 -0.0989908 0)
(8.38376 -0.147691 0)
(8.42651 -0.187196 0)
(8.47259 -0.219482 0)
(8.51959 -0.244295 0)
(8.56538 -0.262091 0)
(8.60876 -0.273775 0)
(8.64939 -0.280203 0)
(8.68716 -0.282255 0)
(8.72213 -0.280816 0)
(8.75441 -0.276703 0)
(8.78418 -0.270622 0)
(8.8116 -0.263172 0)
(8.83684 -0.254843 0)
(8.86006 -0.246025 0)
(8.88141 -0.237021 0)
(8.90102 -0.228061 0)
(8.91905 -0.219317 0)
(8.93562 -0.210911 0)
(8.95084 -0.202927 0)
(8.96486 -0.195422 0)
(8.97777 -0.188429 0)
(8.98968 -0.181966 0)
(9.0007 -0.176037 0)
(9.01091 -0.170641 0)
(9.0204 -0.165775 0)
(9.02925 -0.161434 0)
(9.03754 -0.157615 0)
(9.04535 -0.15432 0)
(9.05275 -0.15156 0)
(9.05985 -0.149344 0)
(9.06677 -0.147649 0)
(8.33959 -0.0604955 0)
(8.37704 -0.169714 0)
(8.42627 -0.247988 0)
(8.47608 -0.300926 0)
(8.52849 -0.335625 0)
(8.58497 -0.356461 0)
(8.64393 -0.367519 0)
(8.70403 -0.371886 0)
(8.76431 -0.371514 0)
(8.82367 -0.36773 0)
(8.88113 -0.36148 0)
(8.93592 -0.353441 0)
(8.98754 -0.344122 0)
(9.03566 -0.333919 0)
(9.08012 -0.323156 0)
(9.12091 -0.312099 0)
(9.15811 -0.300971 0)
(9.19188 -0.289955 0)
(9.22243 -0.279199 0)
(9.24999 -0.26882 0)
(9.27483 -0.258904 0)
(9.29718 -0.249515 0)
(9.3173 -0.240695 0)
(9.33541 -0.23247 0)
(9.35173 -0.224854 0)
(9.36643 -0.217851 0)
(9.3797 -0.211462 0)
(9.39168 -0.205689 0)
(9.40251 -0.200544 0)
(9.4123 -0.196039 0)
(9.42118 -0.192239 0)
(9.42924 -0.189158 0)
(9.4367 -0.186981 0)
(8.33759 -0.0465163 0)
(8.39348 -0.120854 0)
(8.49369 -0.184669 0)
(8.60837 -0.246166 0)
(8.73005 -0.298844 0)
(8.8532 -0.339539 0)
(8.97096 -0.368982 0)
(9.07921 -0.388077 0)
(9.17579 -0.397993 0)
(9.25953 -0.400331 0)
(9.33022 -0.396728 0)
(9.38834 -0.38866 0)
(9.43481 -0.377399 0)
(9.47075 -0.364003 0)
(9.4974 -0.349319 0)
(9.51603 -0.334008 0)
(9.52782 -0.318575 0)
(9.53384 -0.303392 0)
(9.53507 -0.288726 0)
(9.53236 -0.274759 0)
(9.52643 -0.261608 0)
(9.5179 -0.24934 0)
(9.50728 -0.237981 0)
(9.49501 -0.227531 0)
(9.48144 -0.217969 0)
(9.46683 -0.209259 0)
(9.45142 -0.201361 0)
(9.43536 -0.194232 0)
(9.41877 -0.187843 0)
(9.40167 -0.182181 0)
(9.3842 -0.177357 0)
(9.36604 -0.173345 0)
(9.34792 -0.171182 0)
(8.40921 -0.221231 0)
(8.63487 -0.428143 0)
(8.833 -0.522268 0)
(8.97676 -0.582662 0)
(9.07055 -0.61514 0)
(9.11345 -0.625327 0)
(9.10982 -0.62082 0)
(9.06914 -0.605707 0)
(9.00028 -0.582836 0)
(8.91073 -0.55478 0)
(8.80696 -0.523604 0)
(8.69432 -0.490893 0)
(8.577 -0.457867 0)
(8.45816 -0.42544 0)
(8.34014 -0.394254 0)
(8.22462 -0.364739 0)
(8.11274 -0.337151 0)
(8.00521 -0.311617 0)
(7.90247 -0.288169 0)
(7.80468 -0.266771 0)
(7.71187 -0.247344 0)
(7.62394 -0.229775 0)
(7.54072 -0.213936 0)
(7.46199 -0.199689 0)
(7.38747 -0.186889 0)
(7.31691 -0.175392 0)
(7.25 -0.165047 0)
(7.18645 -0.155709 0)
(7.12594 -0.147207 0)
(7.068 -0.139379 0)
(7.01224 -0.132138 0)
(6.95749 -0.124603 0)
(6.90424 -0.120459 0)
(8.1371 -0.207106 0)
(7.84785 -0.387889 0)
(7.38587 -0.439133 0)
(6.86092 -0.439641 0)
(6.36201 -0.408215 0)
(5.89207 -0.359147 0)
(5.4537 -0.304717 0)
(5.05428 -0.251319 0)
(4.69487 -0.202164 0)
(4.37347 -0.158865 0)
(4.08771 -0.121857 0)
(3.83472 -0.0909105 0)
(3.61131 -0.0654802 0)
(3.41429 -0.0448741 0)
(3.24066 -0.0283668 0)
(3.08763 -0.0152732 0)
(2.95263 -0.00498239 0)
(2.83338 0.00303142 0)
(2.72785 0.00920978 0)
(2.63424 0.0139171 0)
(2.55098 0.0174511 0)
(2.47669 0.0200532 0)
(2.4102 0.0219196 0)
(2.35046 0.0232102 0)
(2.29659 0.0240616 0)
(2.24784 0.0245921 0)
(2.20354 0.0249316 0)
(2.16325 0.0252125 0)
(2.12638 0.0256736 0)
(2.0931 0.0266522 0)