/*--------------------------------*- C++ -*----------------------------------*\
| =========                 |                                                 |
| \\      /  F ield         | OpenFOAM: The Open Source CFD Toolbox           |
|  \\    /   O peration     | Version:  2.1.1                                 |
|   \\  /    A nd           | Web:      www.OpenFOAM.org                      |
|    \\/     M anipulation  |                                                 |
\*---------------------------------------------------------------------------*/
FoamFile
{
    version     2.0;
    format      ascii;
    class       volScalarField;
    location    "0.14";
    object      epsilon;
}
// * * * * * * * * * * * * * * * * * * * * * * * * * * * * * * * * * * * * * //

dimensions      [0 2 -3 0 0 0 0];

internalField   nonuniform List<scalar> 
6820
(
151.448
203.151
260.735
321.761
383.629
443.727
499.77
550.049
593.509
629.708
658.714
680.968
697.145
708.042
714.485
717.27
717.128
714.698
710.532
705.088
698.742
691.799
684.498
677.028
669.532
662.118
654.864
647.838
640.997
634.748
627.219
627.368
592.278
11.7448
21.4172
29.9434
38.6235
47.5783
56.5541
65.3138
73.6561
81.419
88.4938
94.8258
100.408
105.27
109.469
113.077
116.169
118.825
121.116
123.108
124.859
126.416
127.822
129.11
130.309
131.441
132.528
133.589
134.646
135.722
136.888
138.162
139.997
142.131
5.83781
7.51681
9.20663
10.8093
12.3198
13.7474
15.0884
16.3392
17.4982
18.565
19.5416
20.4315
21.24
21.9735
22.6393
23.2449
23.7981
24.3062
24.776
25.2139
25.6255
26.0159
26.3895
26.75
27.1006
27.444
27.7826
28.1184
28.4529
28.7889
29.1282
29.4679
29.8543
5.2423
5.56004
6.00443
6.49347
6.98571
7.46193
7.91305
8.33476
8.7254
9.08479
9.4137
9.71347
9.9858
10.2326
10.4559
10.6576
10.8399
11.0046
11.1537
11.2887
11.4115
11.5234
11.6259
11.7202
11.8075
11.8887
11.9646
12.036
12.1033
12.1669
12.2264
12.2824
12.3319
5.17349
5.18677
5.26821
5.39776
5.55638
5.72968
5.9078
6.08429
6.25514
6.4179
6.57119
6.71431
6.84703
6.9694
7.0817
7.18433
7.27781
7.36267
7.4395
7.50888
7.5714
7.62764
7.67815
7.72345
7.76404
7.80039
7.83292
7.86204
7.88808
7.91138
7.93217
7.9507
7.96706
5.16878
5.12131
5.09602
5.09481
5.11536
5.15307
5.20299
5.26075
5.32292
5.38692
5.45088
5.51347
5.57378
5.6312
5.68532
5.73594
5.78295
5.82634
5.86616
5.90253
5.93558
5.96547
5.99239
6.01651
6.03802
6.05711
6.07397
6.08878
6.10172
6.11295
6.12265
6.13092
6.13796
5.16887
5.11169
5.06116
5.01963
4.9884
4.96754
4.95615
4.95279
4.95586
4.96385
4.97542
4.98943
5.005
5.02139
5.03804
5.05453
5.07052
5.08579
5.10016
5.11352
5.12579
5.13695
5.14697
5.15587
5.16368
5.17043
5.17617
5.18095
5.18483
5.18787
5.19015
5.19169
5.1926
5.16902
5.11063
5.05514
5.00339
4.95619
4.91413
4.87747
4.84611
4.81972
4.7978
4.77979
4.76509
4.75315
4.74346
4.73557
4.7291
4.72373
4.71917
4.71521
4.71166
4.70837
4.70522
4.70212
4.69899
4.69578
4.69245
4.68898
4.68533
4.68152
4.67752
4.67335
4.66901
4.66451
5.16904
5.11054
5.05431
5.00049
4.94927
4.9009
4.85559
4.81346
4.77455
4.73881
4.7061
4.67622
4.64895
4.62404
4.60124
4.58031
4.56104
4.54321
4.52664
4.51117
4.49665
4.48296
4.46998
4.45761
4.44578
4.43442
4.42347
4.41287
4.40259
4.3926
4.38286
4.37335
4.36404
5.16904
5.11054
5.0542
5.00002
4.94795
4.89803
4.85027
4.80471
4.76138
4.72028
4.68139
4.64465
4.61001
4.57735
4.54659
4.51759
4.49024
4.46441
4.44
4.41689
4.39497
4.37414
4.35432
4.33542
4.31735
4.30007
4.28349
4.26757
4.25226
4.23751
4.22328
4.20955
4.19626
5.16904
5.11053
5.05418
4.99994
4.94772
4.89747
4.84913
4.80265
4.75799
4.71514
4.67405
4.6347
4.59704
4.56103
4.5266
4.49371
4.46228
4.43226
4.40357
4.37614
4.3499
4.32479
4.30074
4.2777
4.25559
4.23437
4.21399
4.19439
4.17554
4.15738
4.13988
4.12301
4.10672
5.16904
5.11052
5.05417
4.99991
4.94767
4.89735
4.84888
4.80218
4.75719
4.71384
4.67209
4.63189
4.59317
4.55591
4.52005
4.48555
4.45235
4.42042
4.3897
4.36015
4.33172
4.30437
4.27803
4.25268
4.22827
4.20474
4.18208
4.16023
4.13915
4.11882
4.0992
4.08025
4.06194
5.16904
5.11052
5.05416
4.99989
4.94764
4.89731
4.84881
4.80206
4.75698
4.71351
4.67158
4.63113
4.5921
4.55443
4.51808
4.483
4.44914
4.41646
4.38491
4.35446
4.32506
4.29667
4.26926
4.24279
4.21722
4.19251
4.16864
4.14557
4.12327
4.10172
4.08087
4.06071
4.04119
5.16903
5.11051
5.05415
4.99988
4.94762
4.89728
4.84876
4.802
4.7569
4.7134
4.67142
4.6309
4.59178
4.55399
4.51749
4.48223
4.44815
4.41521
4.38336
4.35257
4.32279
4.29399
4.26613
4.23918
4.2131
4.18786
4.16343
4.13978
4.11689
4.09472
4.07325
4.05245
4.0323
5.16903
5.11051
5.05414
4.99987
4.9476
4.89725
4.84873
4.80196
4.75685
4.71333
4.67133
4.63079
4.59164
4.55382
4.51728
4.48195
4.4478
4.41478
4.38283
4.35193
4.32202
4.29307
4.26504
4.2379
4.21162
4.18617
4.16151
4.13761
4.11446
4.09202
4.07027
4.04918
4.02872
5.16903
5.11051
5.05413
4.99986
4.94758
4.89723
4.8487
4.80192
4.7568
4.71327
4.67127
4.63071
4.59155
4.55371
4.51715
4.48181
4.44763
4.41458
4.3826
4.35165
4.3217
4.29269
4.26461
4.2374
4.21105
4.18551
4.16076
4.13677
4.11351
4.09096
4.06909
4.04787
4.02729
5.16903
5.1105
5.05413
4.99985
4.94757
4.89721
4.84867
4.80188
4.75676
4.71322
4.67121
4.63065
4.59147
4.55362
4.51705
4.48169
4.44751
4.41444
4.38244
4.35148
4.3215
4.29248
4.26437
4.23714
4.21076
4.18519
4.1604
4.13637
4.11307
4.09047
4.06855
4.04728
4.02663
5.16903
5.1105
5.05412
4.99984
4.94756
4.89719
4.84865
4.80185
4.75672
4.71318
4.67116
4.63058
4.5914
4.55354
4.51696
4.4816
4.4474
4.41432
4.38231
4.35134
4.32135
4.29231
4.26419
4.23694
4.21054
4.18496
4.16015
4.1361
4.11278
4.09016
4.06821
4.04691
4.02624
5.16903
5.1105
5.05412
4.99983
4.94755
4.89718
4.84863
4.80183
4.75669
4.71314
4.67111
4.63053
4.59134
4.55347
4.51688
4.4815
4.4473
4.41421
4.38219
4.35121
4.32121
4.29216
4.26403
4.23677
4.21036
4.18476
4.15994
4.13588
4.11254
4.0899
4.06794
4.04663
4.02594
5.16903
5.1105
5.05412
4.99982
4.94754
4.89716
4.84861
4.8018
4.75666
4.7131
4.67107
4.63048
4.59128
4.55341
4.5168
4.48142
4.4472
4.41411
4.38208
4.35109
4.32108
4.29202
4.26388
4.23661
4.21019
4.18458
4.15975
4.13567
4.11232
4.08967
4.06769
4.04637
4.02566
5.16903
5.1105
5.05411
4.99982
4.94753
4.89715
4.8486
4.80178
4.75663
4.71307
4.67103
4.63043
4.59123
4.55335
4.51674
4.48135
4.44712
4.41401
4.38198
4.35098
4.32096
4.29189
4.26374
4.23646
4.21003
4.18441
4.15957
4.13548
4.11212
4.08945
4.06746
4.04612
4.0254
5.16903
5.11049
5.05411
4.99981
4.94752
4.89714
4.84858
4.80177
4.75661
4.71304
4.67099
4.63039
4.59118
4.55329
4.51667
4.48128
4.44704
4.41393
4.38189
4.35087
4.32085
4.29177
4.26361
4.23632
4.20988
4.18425
4.1594
4.1353
4.11192
4.08925
4.06724
4.04589
4.02516
5.16903
5.11049
5.05411
4.99981
4.94752
4.89713
4.84857
4.80175
4.75659
4.71302
4.67096
4.63035
4.59113
4.55324
4.51662
4.48121
4.44697
4.41385
4.3818
4.35078
4.32074
4.29166
4.26349
4.23619
4.20974
4.18409
4.15923
4.13512
4.11174
4.08905
4.06703
4.04567
4.02492
5.16903
5.11049
5.0541
4.99981
4.94751
4.89712
4.84856
4.80174
4.75657
4.713
4.67093
4.63032
4.5911
4.5532
4.51657
4.48115
4.44691
4.41378
4.38172
4.35069
4.32065
4.29155
4.26337
4.23607
4.2096
4.18395
4.15908
4.13496
4.11157
4.08887
4.06684
4.04546
4.0247
5.16903
5.11049
5.0541
4.9998
4.94751
4.89712
4.84855
4.80172
4.75656
4.71298
4.67091
4.63029
4.59106
4.55316
4.51652
4.4811
4.44685
4.41371
4.38165
4.35061
4.32056
4.29146
4.26327
4.23595
4.20948
4.18382
4.15894
4.13481
4.1114
4.08869
4.06666
4.04527
4.0245
5.16903
5.11049
5.0541
4.9998
4.9475
4.89711
4.84854
4.80171
4.75654
4.71296
4.67089
4.63027
4.59103
4.55312
4.51648
4.48106
4.4468
4.41365
4.38158
4.35054
4.32048
4.29137
4.26317
4.23585
4.20937
4.1837
4.15881
4.13467
4.11125
4.08853
4.06649
4.04508
4.02431
5.16903
5.11049
5.0541
4.9998
4.9475
4.89711
4.84854
4.8017
4.75653
4.71294
4.67087
4.63024
4.591
4.55309
4.51644
4.48101
4.44675
4.4136
4.38152
4.35047
4.32041
4.29129
4.26309
4.23575
4.20927
4.18359
4.15869
4.13454
4.11111
4.08838
4.06633
4.04492
4.02413
5.16903
5.11049
5.0541
4.9998
4.9475
4.89711
4.84853
4.8017
4.75653
4.71294
4.67086
4.63023
4.59099
4.55307
4.51642
4.48099
4.44672
4.41356
4.38148
4.35042
4.32035
4.29123
4.26301
4.23568
4.20918
4.18349
4.15859
4.13443
4.11099
4.08825
4.06619
4.04477
4.02397
5.16903
5.11049
5.0541
4.9998
4.9475
4.8971
4.84853
4.80169
4.75651
4.71292
4.67084
4.63021
4.59096
4.55304
4.51639
4.48095
4.44667
4.41351
4.38143
4.35036
4.32029
4.29116
4.26294
4.2356
4.2091
4.1834
4.15849
4.13432
4.11088
4.08814
4.06606
4.04463
4.02382
5.16903
5.11049
5.0541
4.9998
4.9475
4.89711
4.84853
4.8017
4.75653
4.71293
4.67086
4.63022
4.59098
4.55305
4.5164
4.48095
4.44667
4.41351
4.38142
4.35035
4.32027
4.29113
4.26291
4.23556
4.20905
4.18335
4.15843
4.13426
4.11081
4.08805
4.06597
4.04453
4.02372
5.16903
5.11049
5.0541
4.9998
4.9475
4.8971
4.84853
4.80169
4.75651
4.71291
4.67083
4.6302
4.59095
4.55302
4.51637
4.48092
4.44664
4.41348
4.38139
4.35032
4.32024
4.2911
4.26287
4.23552
4.20901
4.18331
4.15839
4.13421
4.11076
4.08801
4.06592
4.04448
4.02367
5.16903
5.11049
5.0541
4.99981
4.94752
4.89714
4.84858
4.80176
4.75659
4.71301
4.67093
4.6303
4.59106
4.55313
4.51647
4.48103
4.44675
4.41359
4.38149
4.35042
4.32034
4.29121
4.26299
4.23564
4.20913
4.18344
4.15852
4.13436
4.11092
4.08817
4.0661
4.04468
4.02388
5.16903
5.11051
5.05414
4.99985
4.94756
4.89718
4.84861
4.80178
4.75661
4.71302
4.67095
4.63033
4.5911
4.55319
4.51656
4.48114
4.44689
4.41376
4.3817
4.35067
4.32064
4.29156
4.26339
4.2361
4.20966
4.18404
4.1592
4.13511
4.11175
4.0891
4.06712
4.04579
4.02509
5.16903
5.1105
5.05415
4.99992
4.9477
4.89739
4.8489
4.80214
4.75704
4.71352
4.67152
4.63097
4.59182
4.55401
4.51748
4.48219
4.44809
4.41512
4.38325
4.35244
4.32263
4.2938
4.2659
4.2389
4.21277
4.18747
4.16296
4.13923
4.11624
4.09397
4.07238
4.05146
4.03117
5.16905
5.11063
5.05441
5.00026
4.9481
4.89786
4.84947
4.80288
4.75802
4.71482
4.67323
4.63318
4.59462
4.55748
4.52172
4.48728
4.4541
4.42213
4.39132
4.36164
4.33302
4.30542
4.2788
4.25313
4.22835
4.20443
4.18134
4.15904
4.13749
4.11667
4.09654
4.07708
4.05825
5.16908
5.11079
5.05488
5.00137
4.95017
4.9012
4.85441
4.80972
4.76711
4.72649
4.68781
4.65098
4.61594
4.58258
4.55083
4.5206
4.49181
4.46437
4.4382
4.41323
4.38939
4.3666
4.34481
4.32396
4.30398
4.28483
4.26645
4.24881
4.23185
4.21554
4.19984
4.18473
4.17015
5.16939
5.11358
5.06201
5.01464
4.97149
4.93249
4.89746
4.86614
4.83822
4.81336
4.79125
4.77157
4.75405
4.73843
4.72448
4.71197
4.70074
4.69061
4.68144
4.6731
4.66549
4.65849
4.65203
4.64603
4.64043
4.63517
4.63019
4.62547
4.62096
4.61663
4.61245
4.60839
4.60445
5.17808
5.16328
5.16949
5.19116
5.22432
5.26596
5.31367
5.36558
5.42026
5.47662
5.53383
5.59123
5.64832
5.70472
5.76011
5.8143
5.86712
5.91844
5.96821
6.01636
6.06288
6.10776
6.151
6.19264
6.23269
6.2712
6.30819
6.34373
6.37785
6.4106
6.44203
6.47219
6.50116
5.63861
6.43046
7.14594
7.82586
8.49512
9.14771
9.77775
10.3829
10.963
11.5189
12.0521
12.564
13.0563
13.5303
13.9873
14.4284
14.8546
15.2668
15.6658
16.0523
16.4268
16.7898
17.1421
17.4838
17.8156
18.1378
18.4508
18.7549
19.0506
19.338
19.6175
19.8894
20.154
44.7794
48.3124
51.8864
55.4656
59.0311
62.5709
66.0744
69.5318
72.9344
76.2744
79.545
82.7403
85.8554
88.8862
91.8297
94.6834
97.4457
100.115
102.692
105.176
107.567
109.867
112.076
114.196
116.228
118.176
120.04
121.823
123.528
125.156
126.711
128.193
129.609
705.181
836.87
941.332
1022.62
1085.68
1130.21
1154
1155.81
1137.06
1101.74
1055.21
1002.93
949.392
897.684
849.481
805.356
765.199
728.584
695.028
664.12
635.553
609.109
584.613
561.905
540.811
521.141
502.692
485.254
468.621
452.601
437.018
421.714
406.554
391.42
376.215
360.86
345.295
329.479
313.392
297.033
280.424
263.61
246.659
229.659
212.718
195.963
179.533
163.574
148.235
133.657
119.969
107.281
95.6753
85.2035
75.8857
67.7101
60.636
54.5992
49.5179
45.2996
41.8465
39.0603
36.8454
35.11
33.7663
32.7302
31.92
31.2562
30.6615
30.0618
29.3888
28.5822
27.5929
26.3861
24.9439
23.267
21.3758
19.3108
17.1304
14.9083
12.7278
10.6734
8.82051
7.22472
5.91353
4.88446
4.11023
3.54896
3.15475
2.88531
2.70571
2.589
2.51548
2.47113
2.44647
2.43493
2.43267
2.43678
2.44498
2.46642
146.943
153.852
164.171
179.134
199.663
226.577
259.992
299.144
342.36
387.178
430.665
469.861
502.265
526.216
541.097
547.291
545.949
538.654
527.09
512.786
496.972
480.532
464.034
447.793
431.95
416.537
401.526
386.861
372.474
358.297
344.261
330.303
316.363
302.387
288.331
274.161
259.857
245.413
230.843
216.175
201.46
186.765
172.173
157.785
143.712
130.073
116.988
104.576
92.9452
82.186
72.3684
63.5357
55.7031
48.8576
42.9602
37.951
33.7546
30.287
27.4611
25.1924
23.4018
22.018
20.977
20.2221
19.7014
19.366
19.168
19.0589
18.9886
18.9061
18.7608
18.5056
18.0996
17.5124
16.7267
15.7416
14.5732
13.2552
11.8366
10.378
8.94544
7.60251
6.40187
5.37805
4.54419
3.89354
3.40514
3.05093
2.80188
2.63183
2.51913
2.44696
2.40279
2.37757
2.36514
2.36115
2.36318
2.36926
2.37798
2.39754
30.2222
30.6495
31.3044
32.3649
34.0333
36.3056
39.429
43.7203
49.5307
57.2049
67.0248
79.1436
93.5222
109.886
127.722
146.311
164.812
182.361
198.176
211.65
222.398
230.274
235.34
237.816
238.015
236.289
232.979
228.39
222.774
216.327
209.2
201.5
193.311
184.693
175.7
166.38
156.784
146.97
136.999
126.945
116.888
106.917
97.1263
87.6144
78.4786
69.8119
61.6978
54.2062
47.3892
41.2781
35.8819
31.1878
27.1636
23.7611
20.9215
18.5802
16.6719
15.1345
13.9115
12.9538
12.2198
11.6751
11.2911
11.0438
10.9121
10.876
10.9149
11.0062
11.1241
11.2393
11.3198
11.3329
11.2478
11.0388
10.6893
10.1943
9.56235
8.8156
7.98829
7.12307
6.2657
5.45892
4.73663
4.12
3.61656
3.22208
2.92442
2.70756
2.55482
2.45091
2.38293
2.34057
2.31599
2.30341
2.29888
2.29952
2.30389
2.3106
2.31899
2.33577
12.3854
12.4581
12.5503
12.668
12.8273
13.0484
13.3281
13.6914
14.1757
14.828
15.7035
16.8644
18.3776
20.3123
22.7341
25.6974
29.2349
33.3459
37.986
43.0622
48.4351
53.9277
59.3412
64.4735
69.1369
73.1732
76.4631
78.9301
80.5387
81.2895
81.2118
80.3557
78.7855
76.5738
73.7983
70.5389
66.8768
62.8941
58.6733
54.2971
49.8474
45.4042
41.0439
36.8371
32.8462
29.1229
25.7066
22.6229
19.8832
17.4859
15.4174
13.6552
12.1707
10.9324
9.90822
9.06761
8.38302
7.83046
7.3897
7.04414
6.78044
6.58803
6.45856
6.38526
6.36229
6.38391
6.44364
6.53337
6.64248
6.75738
6.8614
6.93554
6.96005
6.91665
6.79133
6.57686
6.2747
5.89568
5.45907
4.99017
4.51668
4.06468
3.65505
3.30135
3.00936
2.77822
2.60237
2.47367
2.38317
2.32228
2.28346
2.26051
2.24859
2.24402
2.24429
2.2475
2.25284
2.25928
2.26676
2.28025
7.98373
8.00159
8.01887
8.03584
8.05392
8.07628
8.10522
8.14224
8.19121
8.25754
8.34798
8.47049
8.63411
8.84868
9.12447
9.47175
9.90015
10.4179
11.031
11.7423
12.5506
13.4496
14.4271
15.4648
16.5379
17.6158
18.6634
19.6433
20.518
21.2524
21.8163
22.1864
22.3472
22.2921
22.0232
21.5505
20.8917
20.0704
19.1147
18.056
16.927
15.7605
14.5874
13.4356
12.3288
11.2857
10.3198
9.43958
8.64857
7.94648
7.32995
6.79352
6.33045
5.93345
5.59523
5.30885
5.06799
4.86708
4.70136
4.56691
4.46054
4.3798
4.32281
4.28816
4.27468
4.28114
4.30598
4.3468
4.39994
4.46004
4.51977
4.56995
4.60007
4.5994
4.55855
4.47115
4.33536
4.15471
3.93793
3.69784
3.44931
3.20702
2.98335
2.787
2.62257
2.49093
2.39009
2.31626
2.26482
2.23106
2.21062
2.19981
2.19565
2.1958
2.19868
2.203
2.20837
2.21393
2.22016
2.23012
6.14443
6.14961
6.15261
6.15375
6.15331
6.15178
6.14952
6.14706
6.14508
6.14448
6.14636
6.15203
6.16305
6.18116
6.20828
6.24637
6.29738
6.36305
6.4448
6.54355
6.65958
6.79245
6.94084
7.10249
7.27417
7.45164
7.62973
7.80251
7.96343
8.10571
8.22264
8.30802
8.35649
8.36395
8.3278
8.24715
8.12287
7.95754
7.75532
7.52159
7.26268
6.98544
6.69685
6.40364
6.11199
5.82724
5.55381
5.29507
5.0534
4.83023
4.6262
4.44127
4.27491
4.12621
3.99405
3.87717
3.77432
3.6843
3.60601
3.53853
3.48111
3.43319
3.39441
3.36456
3.34353
3.33121
3.32738
3.33148
3.34243
3.35834
3.37637
3.39259
3.40214
3.39965
3.37989
3.33871
3.27393
3.186
3.0782
2.95626
2.82747
2.69953
2.57937
2.47228
2.38152
2.3083
2.25213
2.21133
2.18355
2.16621
2.15683
2.15316
2.15338
2.15597
2.15994
2.16437
2.16912
2.17344
2.17821
2.1846
5.19275
5.19169
5.18921
5.18527
5.17988
5.17309
5.16495
5.15566
5.14545
5.13451
5.12309
5.1114
5.09974
5.08845
5.07791
5.06855
5.06086
5.0553
5.05231
5.05225
5.05537
5.06174
5.07124
5.08352
5.09798
5.11379
5.12986
5.1449
5.15748
5.16604
5.16899
5.1648
5.15206
5.1296
5.09653
5.05233
4.99685
4.93038
4.85359
4.76752
4.67352
4.57314
4.46812
4.36021
4.25115
4.14256
4.0359
3.93241
3.83307
3.73863
3.6496
3.56623
3.48861
3.41664
3.35012
3.28874
3.23217
3.18005
3.13204
3.08785
3.04725
3.01009
2.97631
2.94592
2.919
2.89568
2.87603
2.86005
2.84753
2.83795
2.83032
2.82316
2.81446
2.80182
2.78271
2.7549
2.71691
2.66841
2.61043
2.54533
2.47648
2.40766
2.34252
2.28404
2.23423
2.19404
2.16345
2.14171
2.12759
2.11965
2.11644
2.11659
2.11891
2.12243
2.12645
2.13033
2.13406
2.1369
2.14014
2.14304
4.65899
4.65212
4.64444
4.63589
4.62644
4.61611
4.60493
4.59289
4.58002
4.56637
4.55197
4.53686
4.52108
4.50466
4.48765
4.47014
4.45219
4.43393
4.41547
4.39694
4.37843
4.36004
4.34181
4.32374
4.30574
4.28768
4.26933
4.25042
4.2306
4.20948
4.18663
4.16163
4.13407
4.10361
4.06996
4.03293
3.99244
3.94853
3.90137
3.85124
3.79854
3.74374
3.68738
3.63004
3.5723
3.51474
3.45787
3.40215
3.34795
3.29556
3.24518
3.19691
3.15076
3.10669
3.06458
3.02428
2.98563
2.94843
2.91252
2.87775
2.84401
2.81124
2.77943
2.74862
2.71889
2.69039
2.66326
2.63764
2.6136
2.5911
2.56992
2.54964
2.52954
2.50872
2.48612
2.46073
2.43178
2.39897
2.36259
2.3236
2.28346
2.24395
2.20687
2.17378
2.14577
2.1234
2.10672
2.09534
2.08856
2.08555
2.08538
2.08717
2.09014
2.09357
2.097
2.09991
2.10237
2.10363
2.10531
2.10488
4.35339
4.34112
4.32852
4.31552
4.30209
4.28818
4.27376
4.25885
4.24342
4.2275
4.21106
4.19411
4.17662
4.15858
4.13996
4.12075
4.10093
4.0805
4.05946
4.03783
4.01564
3.99291
3.96967
3.94594
3.92173
3.89705
3.87187
3.84615
3.81984
3.79285
3.76511
3.73652
3.70698
3.67641
3.64476
3.61197
3.57805
3.54303
3.50699
3.47004
3.43234
3.39406
3.35543
3.31665
3.27795
3.23955
3.20163
3.16435
3.12785
3.0922
3.05744
3.02356
2.99052
2.95823
2.92659
2.89547
2.86473
2.83424
2.80388
2.77354
2.74314
2.71266
2.68208
2.65144
2.62083
2.59036
2.56017
2.53042
2.50128
2.47287
2.44526
2.41845
2.39229
2.36658
2.34097
2.31515
2.28882
2.26187
2.23443
2.20689
2.1799
2.15425
2.1308
2.11027
2.0932
2.07983
2.07015
2.0639
2.06063
2.05976
2.06069
2.06279
2.06548
2.06821
2.07065
2.07235
2.07341
2.07307
2.07322
2.06967
4.18126
4.16433
4.14732
4.1302
4.11292
4.09546
4.07779
4.05991
4.0418
4.02345
4.00484
3.98595
3.96677
3.94727
3.92741
3.90717
3.88652
3.86542
3.84386
3.82181
3.79927
3.77623
3.75268
3.72864
3.70411
3.67911
3.65365
3.62774
3.60138
3.57458
3.54735
3.5197
3.49161
3.46312
3.43421
3.40493
3.37529
3.34535
3.31515
3.28477
3.25429
3.22378
3.19336
3.1631
3.13309
3.10342
3.07414
3.04529
3.01691
2.98897
2.96144
2.93428
2.9074
2.88069
2.85406
2.82738
2.80053
2.7734
2.74589
2.71791
2.6894
2.66035
2.63074
2.60061
2.57004
2.53913
2.50801
2.47683
2.44578
2.41503
2.38476
2.3551
2.32617
2.29803
2.2707
2.24417
2.21844
2.19354
2.16959
2.1468
2.12547
2.10598
2.08868
2.0739
2.06183
2.05255
2.04595
2.04182
2.0398
2.03946
2.04034
2.04194
2.04382
2.04551
2.04674
2.04709
2.04673
2.0448
2.04348
2.03702
4.08841
4.06782
4.04729
4.02678
4.00628
3.98576
3.9652
3.9446
3.92393
3.90321
3.8824
3.8615
3.8405
3.81938
3.7981
3.77666
3.75501
3.73314
3.71102
3.68862
3.66593
3.64293
3.6196
3.59595
3.57197
3.54767
3.52305
3.49813
3.47293
3.44745
3.42173
3.39579
3.36965
3.34335
3.31691
3.29037
3.26378
3.23716
3.21058
3.18407
3.15768
3.13147
3.10547
3.07972
3.05426
3.02911
3.00428
2.97975
2.95549
2.93148
2.90764
2.88389
2.86015
2.83632
2.81228
2.78792
2.76314
2.73783
2.71192
2.68532
2.658
2.62994
2.60113
2.57161
2.54145
2.51075
2.47963
2.44824
2.41675
2.38536
2.35426
2.32364
2.29371
2.26464
2.23658
2.20967
2.18404
2.15982
2.13715
2.11619
2.0971
2.08006
2.06523
2.05272
2.04259
2.03477
2.02913
2.02546
2.02344
2.02272
2.0229
2.02358
2.02435
2.02483
2.02475
2.02374
2.02194
2.01849
2.01577
2.00665
4.04134
4.0182
3.99514
3.97216
3.94923
3.92635
3.90352
3.88072
3.85795
3.83521
3.8125
3.7898
3.76711
3.74443
3.72173
3.69901
3.67624
3.65341
3.6305
3.60749
3.58437
3.56111
3.53772
3.51417
3.49047
3.46661
3.44261
3.41845
3.39417
3.36977
3.34527
3.32069
3.29606
3.2714
3.24676
3.22215
3.19761
3.17318
3.14889
3.12477
3.10085
3.07716
3.05372
3.03054
3.00763
2.98499
2.96258
2.9404
2.91837
2.89646
2.87459
2.85267
2.83062
2.80832
2.78569
2.76261
2.73898
2.71473
2.68977
2.66405
2.63752
2.61017
2.58202
2.55309
2.52345
2.49319
2.46244
2.43134
2.40004
2.36874
2.33764
2.30695
2.27687
2.24764
2.21944
2.19247
2.16692
2.14295
2.12072
2.10036
2.082
2.06574
2.05166
2.03976
2.03003
2.02236
2.0166
2.01252
2.00986
2.00829
2.00745
2.00698
2.00653
2.00572
2.00432
2.00196
1.99879
1.99389
1.98986
1.97831
4.0192
3.99447
3.96981
3.9452
3.92067
3.89619
3.87177
3.84741
3.8231
3.79887
3.77469
3.75058
3.72654
3.70256
3.67864
3.65477
3.63095
3.60717
3.58341
3.55967
3.53594
3.51221
3.48846
3.46471
3.44093
3.41713
3.39332
3.36949
3.34565
3.32182
3.29801
3.27424
3.25052
3.22687
3.20333
3.1799
3.15663
3.13352
3.11061
3.08791
3.06545
3.04323
3.02126
2.99955
2.97807
2.95682
2.93575
2.91484
2.89403
2.87325
2.85244
2.8315
2.81034
2.78888
2.76701
2.74465
2.72169
2.69806
2.6737
2.64855
2.62258
2.59578
2.56815
2.53975
2.51063
2.48088
2.45061
2.41996
2.38909
2.35818
2.32742
2.29701
2.26718
2.23814
2.21009
2.18326
2.15784
2.134
2.1119
2.09167
2.07343
2.05723
2.04312
2.03107
2.02104
2.01291
2.0065
2.00162
1.99801
1.99536
1.99336
1.99167
1.98996
1.98786
1.98518
1.98152
1.97705
1.9708
1.96557
1.95179
4.00956
3.98395
3.95837
3.93284
3.90734
3.8819
3.8565
3.83115
3.80585
3.78062
3.75546
3.73038
3.70537
3.68044
3.6556
3.63085
3.60618
3.5816
3.55711
3.53269
3.50835
3.48408
3.45988
3.43575
3.4117
3.38771
3.3638
3.33996
3.31621
3.29256
3.269
3.24557
3.22226
3.19911
3.17612
3.1533
3.13069
3.10829
3.08612
3.06418
3.0425
3.02106
2.99988
2.97893
2.9582
2.93767
2.9173
2.89704
2.87684
2.85663
2.83635
2.8159
2.7952
2.77417
2.7527
2.73073
2.70815
2.6849
2.66092
2.63616
2.6106
2.58422
2.55704
2.5291
2.50046
2.4712
2.44143
2.41128
2.38091
2.35047
2.32017
2.29018
2.26073
2.23202
2.20426
2.17765
2.15239
2.12865
2.10658
2.08631
2.06794
2.05151
2.03706
2.02455
2.01392
2.00505
1.99779
1.99193
1.98724
1.98345
1.98025
1.97733
1.97437
1.97104
1.96712
1.96224
1.95657
1.94907
1.94272
1.92695
4.00562
3.97957
3.95353
3.92751
3.90151
3.87554
3.84959
3.82369
3.79782
3.772
3.74625
3.72055
3.69493
3.66939
3.64394
3.61857
3.59331
3.56814
3.54308
3.51812
3.49327
3.46853
3.4439
3.41939
3.39499
3.37072
3.34657
3.32256
3.29869
3.27496
3.2514
3.22801
3.2048
3.18178
3.15897
3.13638
3.11403
3.09191
3.07004
3.04844
3.02708
3.00599
2.98514
2.96452
2.94412
2.92389
2.90381
2.88382
2.86386
2.84389
2.82382
2.80357
2.78306
2.76222
2.74094
2.71916
2.69679
2.67377
2.65004
2.62556
2.6003
2.57427
2.54746
2.51992
2.49171
2.46291
2.43362
2.40397
2.37409
2.34415
2.31432
2.2848
2.25577
2.22743
2.19998
2.17363
2.14854
2.12488
2.10281
2.08244
2.06384
2.04708
2.03217
2.01908
2.00774
1.99804
1.98985
1.98297
1.97718
1.97223
1.96785
1.96373
1.95959
1.95508
1.95001
1.94399
1.9372
1.92856
1.9212
1.90364
4.00402
3.97777
3.95151
3.92526
3.89902
3.87279
3.84657
3.82037
3.79421
3.76808
3.74199
3.71595
3.68997
3.66407
3.63823
3.61249
3.58683
3.56127
3.53582
3.51048
3.48525
3.46015
3.43517
3.41032
3.38562
3.36106
3.33665
3.3124
3.28833
3.26443
3.24072
3.21721
3.19392
3.17084
3.148
3.1254
3.10305
3.08096
3.05914
3.03758
3.01629
2.99526
2.97447
2.95391
2.93356
2.91338
2.89334
2.87339
2.85347
2.83352
2.81347
2.79324
2.77277
2.75197
2.73075
2.70905
2.68679
2.6639
2.64034
2.61606
2.59105
2.56529
2.53881
2.51163
2.48381
2.45544
2.4266
2.39741
2.36801
2.33854
2.30919
2.28011
2.25149
2.22353
2.1964
2.17029
2.14537
2.1218
2.09971
2.0792
2.06036
2.04323
2.02782
2.01412
2.00204
1.9915
1.98237
1.97447
1.9676
1.96153
1.95602
1.95076
1.94548
1.93987
1.93373
1.92666
1.91885
1.90917
1.90091
1.88174
4.00329
3.97695
3.9506
3.92425
3.89789
3.87153
3.84518
3.81885
3.79253
3.76623
3.73997
3.71375
3.68758
3.66146
3.63541
3.60944
3.58354
3.55774
3.53203
3.50643
3.48094
3.45557
3.43033
3.40523
3.38027
3.35546
3.33082
3.30634
3.28205
3.25795
3.23405
3.21036
3.1869
3.16367
3.14068
3.11795
3.09548
3.07328
3.05135
3.02969
3.0083
2.98717
2.96628
2.94563
2.92518
2.9049
2.88476
2.8647
2.84468
2.82464
2.8045
2.78421
2.76367
2.74283
2.7216
2.6999
2.67768
2.65487
2.63143
2.60731
2.58249
2.55698
2.53078
2.50392
2.47646
2.44848
2.42005
2.3913
2.36235
2.33334
2.30443
2.27578
2.24756
2.21995
2.19313
2.16726
2.1425
2.11899
2.09686
2.07622
2.05712
2.03962
2.02372
2.00939
1.9966
1.98523
1.97518
1.96629
1.95838
1.95124
1.94464
1.9383
1.93197
1.92533
1.91819
1.91016
1.90142
1.89081
1.88174
1.86115
4.00287
3.97648
3.95008
3.92367
3.89726
3.87084
3.84443
3.81802
3.79162
3.76524
3.73889
3.71256
3.68628
3.66005
3.63387
3.60775
3.58171
3.55575
3.52988
3.5041
3.47843
3.45288
3.42745
3.40214
3.37699
3.35198
3.32713
3.30245
3.27796
3.25366
3.22956
3.20568
3.18203
3.15861
3.13544
3.11252
3.08987
3.06749
3.04538
3.02354
3.00197
2.98066
2.9596
2.93876
2.91813
2.89768
2.87736
2.85713
2.83694
2.81674
2.79646
2.77603
2.75539
2.73446
2.71316
2.69144
2.66922
2.64646
2.6231
2.5991
2.57446
2.54915
2.5232
2.49664
2.46952
2.44189
2.41386
2.38552
2.35699
2.3284
2.29991
2.27166
2.24382
2.21655
2.19
2.16435
2.13973
2.11628
2.09412
2.07333
2.05397
2.0361
2.01971
2.00479
1.99129
1.97912
1.96819
1.95835
1.94945
1.94129
1.93366
1.9263
1.91897
1.91137
1.90332
1.89441
1.88484
1.8734
1.86361
1.84179
4.00254
3.97613
3.9497
3.92325
3.8968
3.87035
3.84389
3.81744
3.791
3.76457
3.73815
3.71177
3.68542
3.65911
3.63285
3.60664
3.5805
3.55443
3.52844
3.50254
3.47674
3.45104
3.42547
3.40001
3.3747
3.34952
3.32451
3.29966
3.27499
3.2505
3.22622
3.20215
3.17831
3.1547
3.13133
3.10822
3.08536
3.06278
3.04046
3.01841
2.99663
2.9751
2.95383
2.93277
2.91193
2.89125
2.87072
2.85029
2.8299
2.80951
2.78906
2.76847
2.74769
2.72665
2.70527
2.6835
2.66127
2.63852
2.61522
2.59134
2.56684
2.54172
2.51601
2.48971
2.46289
2.43561
2.40794
2.37998
2.35184
2.32366
2.29556
2.26769
2.2402
2.21324
2.18696
2.1615
2.13702
2.11361
2.0914
2.07046
2.05085
2.03261
2.01575
2.00025
1.98607
1.97313
1.96135
1.9506
1.94075
1.93162
1.92301
1.91469
1.90644
1.89795
1.88905
1.87936
1.86904
1.85687
1.84645
1.82358
4.00224
3.97581
3.94936
3.92289
3.89641
3.86993
3.84344
3.81696
3.79048
3.76401
3.73755
3.71112
3.68472
3.65835
3.63203
3.60575
3.57953
3.55338
3.5273
3.50131
3.4754
3.44959
3.4239
3.39832
3.37287
3.34755
3.32239
3.29739
3.27256
3.24792
3.22346
3.19922
3.17519
3.1514
3.12784
3.10453
3.08147
3.05868
3.03615
3.01388
2.99188
2.97013
2.94862
2.92734
2.90627
2.88537
2.86461
2.84396
2.82336
2.80277
2.78213
2.76138
2.74046
2.71929
2.69782
2.67599
2.65373
2.631
2.60775
2.58395
2.55958
2.53464
2.50914
2.48309
2.45656
2.42959
2.40226
2.37466
2.34689
2.31908
2.29135
2.26383
2.23667
2.21
2.18396
2.15869
2.13432
2.11095
2.08868
2.06759
2.04773
2.02914
2.01182
1.99576
1.98092
1.96724
1.95464
1.94302
1.93226
1.9222
1.91266
1.90344
1.89431
1.885
1.87533
1.86491
1.85394
1.84114
1.83019
1.80643
4.00197
3.97551
3.94904
3.92255
3.89605
3.86954
3.84303
3.81651
3.79
3.7635
3.73701
3.71053
3.68409
3.65767
3.63129
3.60496
3.57868
3.55245
3.5263
3.50022
3.47422
3.44832
3.42252
3.39683
3.37126
3.34582
3.32053
3.29539
3.27042
3.24562
3.22102
3.19661
3.17241
3.14844
3.1247
3.1012
3.07795
3.05495
3.03221
3.00973
2.98751
2.96554
2.94381
2.9223
2.901
2.87987
2.85889
2.83802
2.81722
2.79643
2.7756
2.75469
2.73361
2.71232
2.69076
2.66886
2.64657
2.62384
2.60064
2.57692
2.55267
2.52788
2.50257
2.47676
2.45049
2.42382
2.3968
2.36954
2.34212
2.31466
2.28728
2.26009
2.23323
2.20683
2.18102
2.15592
2.13165
2.1083
2.08597
2.06473
2.04462
2.02568
2.00791
1.9913
1.97583
1.96143
1.94804
1.93558
1.92394
1.91298
1.90255
1.89246
1.8825
1.87242
1.86205
1.851
1.83946
1.82612
1.81474
1.79027
4.00171
3.97523
3.94874
3.92223
3.8957
3.86917
3.84263
3.81609
3.78955
3.76301
3.73649
3.70998
3.68349
3.65703
3.6306
3.60421
3.57787
3.55158
3.52536
3.4992
3.47312
3.44713
3.42124
3.39545
3.36978
3.34423
3.31882
3.29355
3.26845
3.24351
3.21876
3.1942
3.16984
3.1457
3.12179
3.09811
3.07467
3.05148
3.02854
3.00586
2.98343
2.96124
2.93929
2.91757
2.89604
2.8747
2.8535
2.83242
2.81141
2.79043
2.76943
2.74834
2.72713
2.70572
2.68406
2.66209
2.63977
2.61704
2.59387
2.57022
2.54608
2.52144
2.49631
2.47072
2.4447
2.41829
2.39158
2.36463
2.33754
2.31041
2.28335
2.25647
2.2299
2.20375
2.17815
2.1532
2.12902
2.10569
2.08329
2.0619
2.04154
2.02226
2.00405
1.9869
1.9708
1.95569
1.94153
1.92824
1.91573
1.90389
1.89259
1.88166
1.87092
1.86012
1.84911
1.83751
1.82548
1.81173
1.80002
1.77504
4.00146
3.97497
3.94845
3.92192
3.89538
3.86882
3.84225
3.81568
3.78911
3.76255
3.73599
3.70944
3.68292
3.65641
3.62994
3.6035
3.5771
3.55076
3.52447
3.49824
3.47209
3.44602
3.42003
3.39415
3.36838
3.34273
3.3172
3.29182
3.26659
3.24153
3.21664
3.19193
3.16743
3.14313
3.11905
3.0952
3.07159
3.04822
3.02509
3.00221
2.97958
2.95719
2.93504
2.9131
2.89137
2.86981
2.84841
2.82713
2.80592
2.78476
2.76358
2.74234
2.72099
2.69946
2.67771
2.65568
2.63332
2.61059
2.58744
2.56386
2.53982
2.51532
2.49036
2.46497
2.43918
2.41303
2.3866
2.35995
2.33317
2.30634
2.27959
2.253
2.2267
2.20079
2.17538
2.15058
2.12647
2.10315
2.08069
2.05913
2.03853
2.0189
2.00024
1.98256
1.96583
1.95001
1.93506
1.92093
1.90754
1.89481
1.88264
1.87088
1.85938
1.84792
1.83634
1.82427
1.81189
1.79784
1.78594
1.76069
4.00122
3.97472
3.94818
3.92163
3.89506
3.86848
3.84189
3.8153
3.7887
3.76211
3.73552
3.70894
3.68237
3.65583
3.62931
3.60282
3.57638
3.54997
3.52362
3.49733
3.47111
3.44496
3.41889
3.39293
3.36706
3.34131
3.31568
3.29019
3.26484
3.23966
3.21464
3.1898
3.16515
3.14071
3.11647
3.09246
3.06868
3.04514
3.02184
2.99877
2.97595
2.95337
2.93102
2.90889
2.88695
2.8652
2.8436
2.82213
2.80074
2.7794
2.75806
2.73667
2.71518
2.69355
2.67171
2.64961
2.62722
2.60448
2.58137
2.55785
2.5339
2.50953
2.48473
2.45953
2.43396
2.40806
2.3819
2.35553
2.32904
2.30252
2.27606
2.24975
2.2237
2.19802
2.17279
2.14812
2.12409
2.10077