/*--------------------------------*- C++ -*----------------------------------*\
| =========                 |                                                 |
| \\      /  F ield         | OpenFOAM: The Open Source CFD Toolbox           |
|  \\    /   O peration     | Version:  2.1.1                                 |
|   \\  /    A nd           | Web:      www.OpenFOAM.org                      |
|    \\/     M anipulation  |                                                 |
\*---------------------------------------------------------------------------*/
FoamFile
{
    version     2.0;
    format      ascii;
    class       volScalarField;
    location    "0.14";
    object      k;
}
// * * * * * * * * * * * * * * * * * * * * * * * * * * * * * * * * * * * * * //

dimensions      [0 2 -2 0 0 0 0];

internalField   nonuniform List<scalar> 
6820
(
0.288909
0.351398
0.415005
0.477466
0.53686
0.591558
0.640374
0.682634
0.718133
0.747044
0.769812
0.787054
0.79947
0.80778
0.812672
0.814783
0.814675
0.812834
0.809672
0.805531
0.80069
0.795377
0.789771
0.784015
0.778217
0.772461
0.766808
0.761314
0.755945
0.751023
0.745073
0.745191
0.717137
0.265532
0.269396
0.270523
0.27134
0.272557
0.274213
0.276222
0.278471
0.280848
0.28327
0.285678
0.288044
0.290356
0.292621
0.294853
0.297069
0.299289
0.301533
0.303815
0.306149
0.308543
0.311003
0.313533
0.316133
0.318804
0.321544
0.324354
0.327241
0.330217
0.333338
0.336621
0.340543
0.344638
0.262038
0.264254
0.263596
0.261557
0.259001
0.256319
0.253628
0.250939
0.248241
0.245525
0.242795
0.240062
0.237346
0.234668
0.232052
0.229518
0.227085
0.224768
0.222579
0.220529
0.218623
0.216864
0.215255
0.213795
0.212482
0.211314
0.210286
0.209395
0.208637
0.208014
0.207513
0.207162
0.206896
0.259885
0.260272
0.259797
0.258535
0.256829
0.254891
0.252833
0.25071
0.248547
0.246359
0.244153
0.241936
0.239715
0.237497
0.23529
0.233101
0.230937
0.228806
0.226714
0.224667
0.22267
0.220727
0.218842
0.217017
0.215254
0.213555
0.211919
0.210348
0.20884
0.207395
0.206009
0.204687
0.203415
0.259299
0.258404
0.2576
0.256567
0.255295
0.25385
0.252292
0.250662
0.248985
0.247278
0.245552
0.243817
0.242076
0.240337
0.238604
0.236881
0.235171
0.233478
0.231805
0.230156
0.228533
0.226938
0.225373
0.22384
0.222341
0.220876
0.219447
0.218053
0.216696
0.215376
0.214092
0.212845
0.211637
0.259224
0.257848
0.256623
0.255437
0.254227
0.25297
0.251663
0.250313
0.24893
0.247523
0.246102
0.244672
0.243239
0.241807
0.24038
0.238961
0.237553
0.236158
0.234777
0.233414
0.232069
0.230743
0.229439
0.228157
0.226898
0.225663
0.224453
0.223267
0.222107
0.220972
0.219864
0.218783
0.217731
0.259217
0.257715
0.256309
0.25498
0.253698
0.252442
0.251196
0.249951
0.248704
0.247455
0.246206
0.244957
0.243711
0.242471
0.241239
0.240016
0.238804
0.237605
0.236419
0.235249
0.234094
0.232955
0.231835
0.230732
0.229648
0.228584
0.227539
0.226513
0.225509
0.224524
0.223561
0.222619
0.2217
0.259218
0.25769
0.256225
0.254822
0.253477
0.252181
0.250924
0.249696
0.248492
0.247307
0.246138
0.244982
0.243841
0.242712
0.241597
0.240496
0.239409
0.238336
0.237278
0.236236
0.235209
0.234199
0.233205
0.232228
0.231267
0.230324
0.229399
0.22849
0.2276
0.226728
0.225873
0.225038
0.224221
0.259218
0.257686
0.256207
0.25478
0.253405
0.25208
0.2508
0.24956
0.248357
0.247186
0.246043
0.244926
0.243832
0.242759
0.241707
0.240674
0.23966
0.238664
0.237685
0.236724
0.235781
0.234855
0.233945
0.233053
0.232178
0.231319
0.230477
0.229652
0.228844
0.228052
0.227277
0.226519
0.225778
0.259218
0.257686
0.256203
0.254769
0.253384
0.252045
0.250751
0.2495
0.248289
0.247115
0.245975
0.244868
0.24379
0.242739
0.241715
0.240715
0.239738
0.238783
0.237849
0.236936
0.236042
0.235167
0.234311
0.233473
0.232653
0.23185
0.231064
0.230296
0.229543
0.228808
0.228089
0.227385
0.226698
0.259218
0.257686
0.256202
0.254767
0.253378
0.252035
0.250735
0.249477
0.24826
0.247081
0.245938
0.24483
0.243755
0.24271
0.241695
0.240707
0.239746
0.23881
0.237898
0.237008
0.236141
0.235295
0.234469
0.233662
0.232875
0.232106
0.231356
0.230622
0.229906
0.229207
0.228524
0.227858
0.227207
0.259218
0.257685
0.256201
0.254766
0.253376
0.252031
0.250729
0.249469
0.248249
0.247066
0.245921
0.244811
0.243734
0.24269
0.241676
0.240692
0.239735
0.238806
0.237902
0.237023
0.236167
0.235335
0.234523
0.233733
0.232964
0.232213
0.231482
0.230769
0.230074
0.229397
0.228736
0.228092
0.227463
0.259218
0.257685
0.256201
0.254765
0.253375
0.25203
0.250727
0.249466
0.248244
0.24706
0.245913
0.244801
0.243723
0.242677
0.241663
0.240679
0.239723
0.238795
0.237894
0.237018
0.236167
0.23534
0.234535
0.233752
0.23299
0.232249
0.231527
0.230824
0.23014
0.229474
0.228825
0.228193
0.227578
0.259218
0.257685
0.256201
0.254764
0.253374
0.252028
0.250725
0.249464
0.248241
0.247057
0.245909
0.244796
0.243717
0.242671
0.241655
0.24067
0.239715
0.238787
0.237885
0.23701
0.23616
0.235334
0.234531
0.233751
0.232992
0.232254
0.231536
0.230838
0.230159
0.229498
0.228854
0.228228
0.227619
0.259218
0.257685
0.2562
0.254764
0.253374
0.252028
0.250724
0.249462
0.248239
0.247054
0.245906
0.244793
0.243713
0.242666
0.24165
0.240665
0.239708
0.23878
0.237878
0.237003
0.236153
0.235327
0.234524
0.233744
0.232986
0.232249
0.231533
0.230836
0.230158
0.229499
0.228858
0.228234
0.227627
0.259218
0.257685
0.2562
0.254764
0.253373
0.252027
0.250723
0.249461
0.248238
0.247052
0.245904
0.24479
0.24371
0.242663
0.241646
0.24066
0.239703
0.238775
0.237873
0.236997
0.236146
0.23532
0.234517
0.233737
0.232979
0.232242
0.231525
0.230829
0.230151
0.229493
0.228852
0.228229
0.227622
0.259218
0.257685
0.2562
0.254763
0.253373
0.252026
0.250722
0.24946
0.248236
0.247051
0.245902
0.244788
0.243707
0.24266
0.241643
0.240657
0.239699
0.23877
0.237868
0.236992
0.236141
0.235314
0.234511
0.23373
0.232972
0.232234
0.231518
0.230821
0.230143
0.229484
0.228843
0.22822
0.227613
0.259218
0.257684
0.2562
0.254763
0.253372
0.252026
0.250722
0.249459
0.248235
0.247049
0.2459
0.244786
0.243705
0.242657
0.24164
0.240653
0.239696
0.238766
0.237863
0.236987
0.236136
0.235308
0.234505
0.233724
0.232965
0.232227
0.23151
0.230813
0.230135
0.229476
0.228834
0.228211
0.227604
0.259218
0.257684
0.2562
0.254763
0.253372
0.252025
0.250721
0.249458
0.248234
0.247048
0.245898
0.244784
0.243703
0.242655
0.241637
0.24065
0.239692
0.238762
0.23786
0.236983
0.236131
0.235303
0.2345
0.233718
0.232959
0.232221
0.231503
0.230806
0.230127
0.229467
0.228826
0.228201
0.227594
0.259218
0.257684
0.2562
0.254762
0.253371
0.252025
0.25072
0.249457
0.248233
0.247047
0.245897
0.244782
0.243701
0.242652
0.241635
0.240648
0.239689
0.238759
0.237856
0.236979
0.236127
0.235299
0.234495
0.233713
0.232953
0.232215
0.231497
0.230799
0.23012
0.22946
0.228817
0.228192
0.227584
0.259218
0.257684
0.256199
0.254762
0.253371
0.252024
0.25072
0.249456
0.248232
0.247046
0.245896
0.244781
0.243699
0.24265
0.241633
0.240645
0.239687
0.238756
0.237852
0.236975
0.236123
0.235294
0.23449
0.233708
0.232948
0.232209
0.231491
0.230792
0.230113
0.229452
0.228809
0.228184
0.227576
0.259218
0.257684
0.256199
0.254762
0.253371
0.252024
0.250719
0.249456
0.248231
0.247045
0.245895
0.244779
0.243698
0.242649
0.241631
0.240643
0.239684
0.238753
0.237849
0.236972
0.236119
0.23529
0.234485
0.233703
0.232943
0.232204
0.231485
0.230786
0.230106
0.229445
0.228802
0.228176
0.227567
0.259218
0.257684
0.256199
0.254762
0.253371
0.252024
0.250719
0.249455
0.248231
0.247044
0.245894
0.244778
0.243696
0.242647
0.241629
0.240641
0.239682
0.238751
0.237846
0.236968
0.236115
0.235287
0.234481
0.233699
0.232938
0.232198
0.231479
0.23078
0.2301
0.229438
0.228795
0.228168
0.227559
0.259218
0.257684
0.256199
0.254762
0.253371
0.252023
0.250719
0.249455
0.24823
0.247043
0.245893
0.244777
0.243695
0.242646
0.241627
0.240639
0.23968
0.238748
0.237844
0.236966
0.236112
0.235283
0.234478
0.233695
0.232934
0.232194
0.231474
0.230775
0.230094
0.229432
0.228788
0.228161
0.227551
0.259218
0.257684
0.256199
0.254762
0.25337
0.252023
0.250718
0.249454
0.24823
0.247043
0.245892
0.244776
0.243694
0.242644
0.241626
0.240637
0.239678
0.238746
0.237841
0.236963
0.236109
0.23528
0.234474
0.233691
0.23293
0.232189
0.231469
0.230769
0.230089
0.229426
0.228782
0.228155
0.227544
0.259218
0.257684
0.256199
0.254762
0.25337
0.252023
0.250718
0.249454
0.248229
0.247042
0.245891
0.244775
0.243693
0.242643
0.241624
0.240636
0.239676
0.238744
0.237839
0.236961
0.236107
0.235277
0.234471
0.233687
0.232926
0.232185
0.231465
0.230765
0.230083
0.229421
0.228776
0.228148
0.227538
0.259218
0.257684
0.256199
0.254762
0.25337
0.252023
0.250718
0.249454
0.248229
0.247042
0.245891
0.244775
0.243692
0.242642
0.241623
0.240634
0.239674
0.238742
0.237837
0.236958
0.236104
0.235275
0.234468
0.233684
0.232922
0.232181
0.231461
0.23076
0.230079
0.229416
0.228771
0.228143
0.227532
0.259218
0.257684
0.256199
0.254762
0.25337
0.252023
0.250718
0.249454
0.248229
0.247041
0.24589
0.244774
0.243692
0.242642
0.241622
0.240633
0.239673
0.238741
0.237836
0.236957
0.236102
0.235272
0.234466
0.233682
0.232919
0.232178
0.231458
0.230757
0.230075
0.229411
0.228766
0.228138
0.227526
0.259218
0.257684
0.256199
0.254762
0.25337
0.252023
0.250718
0.249453
0.248228
0.247041
0.24589
0.244774
0.243691
0.242641
0.241621
0.240632
0.239672
0.23874
0.237834
0.236955
0.236101
0.23527
0.234464
0.233679
0.232917
0.232175
0.231454
0.230753
0.230071
0.229407
0.228762
0.228133
0.227521
0.259218
0.257684
0.256199
0.254762
0.25337
0.252023
0.250718
0.249454
0.248229
0.247041
0.24589
0.244774
0.243691
0.242641
0.241622
0.240633
0.239672
0.23874
0.237834
0.236955
0.2361
0.23527
0.234463
0.233678
0.232915
0.232174
0.231453
0.230751
0.230069
0.229405
0.228759
0.22813
0.227518
0.259218
0.257684
0.256199
0.254762
0.25337
0.252023
0.250718
0.249453
0.248228
0.247041
0.24589
0.244774
0.243691
0.24264
0.241621
0.240632
0.239672
0.238739
0.237834
0.236954
0.236099
0.235269
0.234462
0.233677
0.232914
0.232173
0.231451
0.230749
0.230067
0.229403
0.228756
0.228127
0.227515
0.259218
0.257684
0.256199
0.254762
0.253371
0.252024
0.25072
0.249456
0.248231
0.247044
0.245893
0.244777
0.243695
0.242644
0.241625
0.240636
0.239675
0.238743
0.237837
0.236957
0.236102
0.235272
0.234464
0.233679
0.232916
0.232174
0.231453
0.230751
0.230068
0.229403
0.228756
0.228127
0.227514
0.259218
0.257685
0.2562
0.254764
0.253373
0.252026
0.250721
0.249457
0.248232
0.247045
0.245895
0.244779
0.243696
0.242646
0.241627
0.240638
0.239678
0.238746
0.23784
0.23696
0.236105
0.235275
0.234467
0.233682
0.232919
0.232176
0.231454
0.230751
0.230068
0.229402
0.228755
0.228124
0.227511
0.259218
0.257685
0.256201
0.254766
0.253378
0.252033
0.250731
0.249469
0.248246
0.24706
0.24591
0.244795
0.243712
0.242662
0.241643
0.240653
0.239693
0.238759
0.237853
0.236972
0.236115
0.235283
0.234474
0.233687
0.232921
0.232176
0.231452
0.230746
0.23006
0.229391
0.22874
0.228106
0.227489
0.259219
0.257689
0.25621
0.254777
0.25339
0.252046
0.250744
0.249482
0.248259
0.247074
0.245924
0.244808
0.243726
0.242675
0.241655
0.240663
0.2397
0.238764
0.237854
0.236968
0.236107
0.235269
0.234454
0.23366
0.232887
0.232134
0.231401
0.230687
0.229991
0.229313
0.228652
0.228008
0.22738
0.25922
0.257694
0.256221
0.254799
0.253423
0.252089
0.250795
0.249539
0.248318
0.247131
0.245978
0.244857
0.243766
0.242706
0.241673
0.240668
0.23969
0.238737
0.237809
0.236905
0.236024
0.235165
0.234328
0.233512
0.232716
0.23194
0.231182
0.230443
0.229723
0.229019
0.228333
0.227663
0.227009
0.259229
0.257738
0.256292
0.254882
0.253509
0.252172
0.250871
0.249603
0.248368
0.247162
0.245985
0.244837
0.243715
0.24262
0.241551
0.240507
0.239488
0.238493
0.237521
0.236572
0.235645
0.23474
0.233856
0.232993
0.23215
0.231326
0.230521
0.229735
0.228967
0.228216
0.227483
0.226766
0.226066
0.259265
0.257822
0.256453
0.255125
0.253804
0.252482
0.251163
0.249854
0.248561
0.24729
0.246044
0.244826
0.243638
0.242478
0.241348
0.240246
0.239171
0.238124
0.237102
0.236106
0.235134
0.234185
0.233259
0.232355
0.231472
0.23061
0.229768
0.228945
0.228142
0.227357
0.22659
0.225841
0.225109
0.259599
0.258632
0.257578
0.256541
0.255587
0.254714
0.253906
0.253151
0.252445
0.251784
0.251166
0.250592
0.25006
0.249571
0.249121
0.248711
0.248339
0.248003
0.2477
0.247431
0.247192
0.246982
0.2468
0.246643
0.246511
0.246401
0.246312
0.246244
0.246194
0.246162
0.246147
0.246148
0.246162
0.266719
0.280569
0.294241
0.307622
0.320668
0.333362
0.345692
0.357649
0.369224
0.380412
0.39121
0.401617
0.411635
0.421267
0.430517
0.43939
0.447895
0.456039
0.46383
0.47128
0.478396
0.48519
0.491672
0.497853
0.503744
0.509355
0.514698
0.519782
0.52462
0.52922
0.533592
0.537747
0.541698
0.844309
1.01352
1.18637
1.36465
1.54495
1.71677
1.86826
1.99057
2.08049
2.14031
2.17589
2.1944
2.20241
2.20479
2.20455
2.20315
2.20114
2.19868
2.1959
2.19303
2.1904
2.18835
2.18713
2.18683
2.1874
2.18861
2.19011
2.19146
2.19214
2.19161
2.18931
2.18466
2.17711
2.16611
2.15114
2.13173
2.10743
2.07789
2.04281
2.00201
1.95538
1.90298
1.84496
1.78167
1.71356
1.6413
1.56567
1.48761
1.40819
1.32855
1.24989
1.17341
1.10023
1.03139
0.96777
0.910039
0.858668
0.813904
0.775788
0.744183
0.718798
0.69922
0.684937
0.67535
0.669781
0.667462
0.66754
0.669072
0.671036
0.672357
0.671945
0.668745
0.6618
0.650308
0.633688
0.611631
0.584155
0.551638
0.514844
0.474918
0.43335
0.391875
0.3523
0.316272
0.285029
0.259221
0.238881
0.223546
0.212468
0.204812
0.199796
0.196756
0.195166
0.194627
0.194854
0.195636
0.19685
0.198413
0.200079
0.203266
0.353122
0.36635
0.386487
0.41668
0.459988
0.519285
0.596273
0.690806
0.800522
0.920909
1.04585
1.16859
1.28284
1.3838
1.46873
1.53708
1.59004
1.62994
1.65954
1.68146
1.69788
1.71042
1.72014
1.72766
1.73334
1.73729
1.73954
1.73999
1.73852
1.73491
1.7289
1.72018
1.70842
1.69327
1.67438
1.65143
1.62412
1.59226
1.55568
1.51435
1.46832
1.4178
1.36308
1.30465
1.2431
1.17916
1.11368
1.04762
0.981971
0.917769
0.856004
0.797587
0.743303
0.693771
0.649418
0.610476
0.576993
0.548861
0.525847
0.50764
0.493881
0.484184
0.478154
0.475383
0.475433
0.477822
0.481999
0.487325
0.493068
0.498408
0.50247
0.504365
0.503251
0.498405
0.489288
0.475611
0.45739
0.43498
0.409085
0.380736
0.351224
0.321974
0.294372
0.269576
0.248358
0.231036
0.217519
0.207428
0.200233
0.195374
0.19233
0.190656
0.189995
0.190072
0.190691
0.191704
0.193029
0.194615
0.19625
0.199294
0.206499
0.206235
0.206607
0.208016
0.210926
0.2157
0.223128
0.234226
0.250189
0.2723
0.301789
0.339613
0.386214
0.4413
0.503751
0.571672
0.642596
0.713805
0.782681
0.847017
0.905221
0.956391
1.00025
1.03702
1.0672
1.09148
1.11048
1.1248
1.13486
1.14097
1.14328
1.14188
1.13676
1.12785
1.1151
1.09845
1.07785
1.05332
1.02495
0.992874
0.957358
0.918748
0.877496
0.834158
0.789379
0.743876
0.698416
0.653776
0.610712
0.569909
0.531954
0.497298
0.466237
0.438918
0.415339
0.395384
0.378851
0.365489
0.35503
0.34721
0.34179
0.338557
0.337323
0.337913
0.340152
0.343836
0.348711
0.354447
0.360622
0.366715
0.372116
0.376159
0.378172
0.377541
0.373781
0.366606
0.355983
0.342164
0.325693
0.307368
0.288166
0.269126
0.251213
0.23519
0.221537
0.210437
0.201822
0.195454
0.191003
0.188118
0.186465
0.18575
0.185735
0.186231
0.187103
0.188248
0.189614
0.191171
0.192737
0.195588
0.202005
0.200503
0.199103
0.197805
0.196648
0.195696
0.195001
0.194672
0.194861
0.195766
0.19763
0.200747
0.205454
0.212126
0.221151
0.232899
0.247672
0.265649
0.286828
0.310987
0.337674
0.366231
0.395852
0.425659
0.454777
0.482412
0.507891
0.530688
0.550428
0.566866
0.579867
0.589376
0.595393
0.597962
0.597156
0.593079
0.585863
0.575681
0.562749
0.547335
0.529761
0.510401
0.48968
0.468061
0.446026
0.42406
0.402626
0.382137
0.362942
0.345304
0.329396
0.3153
0.303021
0.2925
0.283633
0.276294
0.270348
0.265666
0.262133
0.259654
0.258155
0.25758
0.257892
0.259061
0.261057
0.263837
0.267325
0.271398
0.275868
0.280465
0.284837
0.288563
0.29118
0.292232
0.291326
0.288195
0.282747
0.275104
0.265598
0.254751
0.24321
0.231656
0.22072
0.210899
0.202512
0.195701
0.190451
0.186639
0.184077
0.182553
0.181855
0.181795
0.182212
0.182976
0.183996
0.185199
0.186555
0.188045
0.189517
0.192142
0.210279
0.208774
0.207295
0.205833
0.204387
0.202972
0.2016
0.200289
0.199061
0.197945
0.19698
0.196214
0.195704
0.195514
0.195716
0.196387
0.197609
0.199465
0.202032
0.205377
0.209549
0.214571
0.220432
0.227078
0.23441
0.242283
0.250511
0.258873
0.267132
0.275041
0.282362
0.28888
0.294407
0.298796
0.301941
0.303782
0.304304
0.303536
0.301549
0.298453
0.294389
0.289526
0.284051
0.278158
0.27204
0.265877
0.259831
0.254036
0.248595
0.243584
0.239045
0.234999
0.231446
0.228371
0.225752
0.22356
0.221768
0.220351
0.219289
0.218569
0.218187
0.218143
0.218449
0.219117
0.220161
0.22159
0.223397
0.225554
0.227992
0.230597
0.233199
0.235574
0.237454
0.23855
0.238592
0.23737
0.234774
0.230825
0.225686
0.219647
0.213086
0.20642
0.20004
0.19427
0.189332
0.185342
0.182319
0.180208
0.178908
0.178293
0.178229
0.178594
0.179281
0.1802
0.18129
0.182496
0.183804
0.185201
0.186561
0.188939
0.216537
0.215186
0.213833
0.212485
0.21114
0.209799
0.208465
0.20714
0.205831
0.204546
0.203296
0.202093
0.200952
0.199891
0.198929
0.198087
0.197385
0.196848
0.196494
0.196343
0.196413
0.196715
0.197258
0.198043
0.199064
0.200306
0.201747
0.203354
0.205085
0.20689
0.208716
0.210503
0.212193
0.21373
0.215064
0.216153
0.216965
0.217483
0.217698
0.217616
0.217257
0.216647
0.215822
0.214824
0.213696
0.212482
0.211224
0.209958
0.208715
0.207522
0.206396
0.20535
0.204391
0.203521
0.202741
0.202048
0.20144
0.200915
0.200472
0.200114
0.199848
0.199684
0.199635
0.19972
0.199956
0.200361
0.200948
0.201717
0.202655
0.20372
0.204843
0.205917
0.206809
0.20736
0.20741
0.206821
0.205503
0.203435
0.200681
0.197385
0.193749
0.190012
0.186409
0.183144
0.180367
0.178165
0.176567
0.175552
0.175065
0.17503
0.175365
0.175987
0.176824
0.177814
0.178913
0.180082
0.181315
0.182601
0.18384
0.185961
0.220655
0.219468
0.218275
0.217074
0.215867
0.214652
0.213431
0.212207
0.210984
0.209765
0.208555
0.207358
0.20618
0.205027
0.203906
0.202826
0.201796
0.200823
0.199917
0.199087
0.198341
0.197685
0.197125
0.196665
0.196305
0.196047
0.195885
0.195815
0.195828
0.195913
0.196057
0.196244
0.19646
0.196688
0.196911
0.197116
0.197288
0.197418
0.197496
0.197517
0.197481
0.197387
0.197239
0.197043
0.196806
0.196535
0.19624
0.195927
0.195603
0.195273
0.19494
0.194607
0.194274
0.193938
0.1936
0.193255
0.192902
0.192539
0.192166
0.191787
0.191403
0.191024
0.190659
0.190321
0.190023
0.189783
0.189614
0.189528
0.189528
0.189607
0.18974
0.189888
0.189988
0.189966
0.189738
0.189225
0.188369
0.187145
0.185574
0.183721
0.18169
0.179612
0.177622
0.175841
0.174366
0.173256
0.172535
0.172195
0.172206
0.17252
0.173083
0.17384
0.174741
0.17574
0.176807
0.177911
0.179051
0.180216
0.18133
0.183192
0.22329
0.222231
0.221161
0.220081
0.218991
0.217894
0.216789
0.215679
0.214563
0.213445
0.212326
0.21121
0.210098
0.208995
0.207903
0.206827
0.205771
0.204738
0.203734
0.202764
0.201832
0.200942
0.200098
0.199305
0.198564
0.197878
0.197248
0.196673
0.196154
0.195688
0.195271
0.194901
0.194573
0.194281
0.19402
0.193785
0.193571
0.193372
0.193185
0.193005
0.19283
0.192657
0.192486
0.192313
0.19214
0.191965
0.191788
0.191607
0.191421
0.191227
0.191023
0.190806
0.19057
0.190311
0.190025
0.189706
0.189351
0.188957
0.188521
0.188043
0.187525
0.18697
0.186384
0.185775
0.185154
0.184534
0.183926
0.183343
0.182795
0.182287
0.181818
0.181376
0.180942
0.180484
0.179965
0.179348
0.178602
0.177711
0.176681
0.175542
0.174348
0.173166
0.172071
0.171133
0.170408
0.169933
0.169723
0.169774
0.170066
0.170567
0.171241
0.172048
0.172952
0.173918
0.174923
0.175943
0.176978
0.178018
0.179005
0.180614
0.224933
0.223971
0.222999
0.222018
0.221026
0.220026
0.219016
0.217999
0.216975
0.215947
0.214915
0.213881
0.212848
0.211817
0.210789
0.209768
0.208755
0.207753
0.206765
0.205792
0.204839
0.203907
0.203
0.202121
0.201271
0.200454
0.199671
0.198924
0.198214
0.197542
0.196908
0.196312
0.195752
0.195229
0.19474
0.194284
0.193859
0.193463
0.193094
0.192749
0.192428
0.192128
0.191846
0.19158
0.191328
0.191087
0.190855
0.190626
0.190399
0.190167
0.189925
0.189669
0.189393
0.189089
0.188753
0.188378
0.187959
0.187492
0.186974
0.186402
0.185776
0.185097
0.18437
0.183598
0.18279
0.181953
0.1811
0.180241
0.179387
0.178548
0.177732
0.176941
0.176175
0.175427
0.174685
0.173938
0.173173
0.172386
0.17158
0.17077
0.169985
0.16926
0.168635
0.168147
0.167827
0.167695
0.167759
0.168012
0.168441
0.169021
0.169726
0.170525
0.171391
0.172295
0.173221
0.174144
0.175069
0.175982
0.176845
0.178209
0.225915
0.225024
0.224124
0.223214
0.222296
0.221369
0.220434
0.219492
0.218543
0.217588
0.21663
0.215668
0.214704
0.213739
0.212775
0.211813
0.210855
0.209901
0.208955
0.208016
0.207088
0.206172
0.20527
0.204385
0.203517
0.202669
0.201844
0.201042
0.200266
0.199516
0.198795
0.198103
0.197441
0.196808
0.196207
0.195635
0.195094
0.194583
0.1941
0.193645
0.193216
0.192812
0.192432
0.192072
0.191731
0.191404
0.19109
0.190783
0.190479
0.190173
0.18986
0.189533
0.189186
0.188813
0.188407
0.187963
0.187474
0.186937
0.186347
0.185701
0.184998
0.184238
0.183423
0.182556
0.181643
0.18069
0.179705
0.1787
0.177684
0.176668
0.175663
0.174679
0.173722
0.172797
0.171909
0.171056
0.170241
0.169465
0.168734
0.168059
0.167456
0.166944
0.166543
0.166273
0.166149
0.16618
0.166367
0.166704
0.167176
0.167765
0.16845
0.169204
0.170006
0.170831
0.171665
0.172486
0.1733
0.174087
0.174831
0.175962
0.226466
0.225623
0.224773
0.223916
0.223051
0.222178
0.221299
0.220412
0.219519
0.218622
0.217719
0.216813
0.215905
0.214994
0.214083
0.213172
0.212263
0.211356
0.210452
0.209553
0.20866
0.207774
0.206896
0.206029
0.205173
0.204331
0.203503
0.202692
0.201898
0.201124
0.200371
0.19964
0.198933
0.19825
0.197592
0.19696
0.196354
0.195775
0.195221
0.194694
0.194192
0.193714
0.193259
0.192824
0.192408
0.192007
0.191619
0.191239
0.190862
0.190485
0.190101
0.189705
0.18929
0.188851
0.188382
0.187876
0.187327
0.186733
0.186087
0.185387
0.184632
0.18382
0.182952
0.182032
0.181062
0.180049
0.178999
0.177921
0.176826
0.175723
0.174623
0.173539
0.172482
0.17146
0.170484
0.169561
0.168699
0.167905
0.167187
0.166555
0.166018
0.165588
0.165277
0.165093
0.165044
0.165131
0.165352
0.165699
0.166158
0.166714
0.167346
0.168033
0.168756
0.169492
0.170229
0.170947
0.17165
0.172316
0.172945
0.173859
0.226749
0.225938
0.225121
0.224298
0.223468
0.222633
0.221791
0.220944
0.220091
0.219234
0.218373
0.217509
0.216641
0.215772
0.214902
0.214031
0.213161
0.212291
0.211423
0.210558
0.209697
0.20884
0.207989
0.207145
0.206309
0.205481
0.204665
0.20386
0.203068
0.202291
0.20153
0.200786
0.20006
0.199354
0.198668
0.198004
0.197362
0.196742
0.196146
0.195572
0.19502
0.19449
0.19398
0.19349
0.193016
0.192557
0.19211
0.19167
0.191233
0.190796
0.190354
0.1899
0.189429
0.188935
0.188413
0.187858
0.187263
0.186624
0.185938
0.1852
0.18441
0.183566
0.182669
0.18172
0.180722
0.179681
0.178603
0.177494
0.176365
0.175225
0.174084
0.172956
0.171851
0.170782
0.169761
0.168797
0.167903
0.167087
0.166359
0.165728
0.165202
0.164791
0.164499
0.164331
0.16429
0.164374
0.164578
0.164893
0.165306
0.165802
0.166364
0.166972
0.167608
0.168252
0.168891
0.169506
0.170102
0.170652
0.171174
0.171885
0.226878
0.226085
0.225288
0.224485
0.223678
0.222866
0.222049
0.221227
0.220401
0.219571
0.218738
0.217902
0.217063
0.216223
0.215382
0.214539
0.213697
0.212856
0.212015
0.211176
0.21034
0.209507
0.208678
0.207854
0.207036
0.206224
0.205421
0.204626
0.203842
0.203069
0.202308
0.201561
0.200829
0.200113
0.199414
0.198732
0.198069
0.197425
0.196801
0.196196
0.195611
0.195045
0.194496
0.193965
0.193449
0.192945
0.192452
0.191966
0.191483
0.190999
0.19051
0.19001
0.189495
0.188959
0.188397
0.187803
0.187173
0.186503
0.185788
0.185025
0.184213
0.183351
0.182438
0.181476
0.180467
0.179417
0.17833
0.177214
0.176075
0.174925
0.173773
0.172631
0.17151
0.170423
0.169382
0.168398
0.167484
0.166651
0.165908
0.165264
0.164727
0.164303
0.163997
0.16381
0.163743
0.163793
0.163952
0.164213
0.164562
0.164987
0.165469
0.165992
0.166538
0.167089
0.167631
0.168147
0.168641
0.169083
0.169504
0.170028
0.226927
0.226144
0.225356
0.224565
0.22377
0.22297
0.222168
0.221361
0.220551
0.219738
0.218922
0.218104
0.217283
0.216462
0.215639
0.214816
0.213992
0.213169
0.212347
0.211526
0.210707
0.209891
0.209078
0.208269
0.207465
0.206666
0.205873
0.205087
0.20431
0.203542
0.202785
0.202038
0.201304
0.200583
0.199876
0.199185
0.198509
0.197849
0.197207
0.196581
0.195972
0.19538
0.194804
0.194243
0.193695
0.193158
0.192631
0.192109
0.19159
0.19107
0.190546
0.190011
0.189462
0.188894
0.188301
0.18768
0.187024
0.186331
0.185597
0.184818
0.183994
0.183121
0.182202
0.181236
0.180227
0.179178
0.178094
0.176982
0.175849
0.174703
0.173555
0.172415
0.171295
0.170206
0.16916
0.16817
0.167247
0.166402
0.165644
0.164984
0.164427
0.163979
0.163643
0.163422
0.163312
0.163312
0.163414
0.16361
0.163888
0.164234
0.164634
0.16507
0.165527
0.165986
0.166436
0.166857
0.167255
0.167595
0.167923
0.168277
0.226939
0.226159
0.225376
0.22459
0.2238
0.223008
0.222212
0.221413
0.220612
0.219807
0.219001
0.218193
0.217383
0.216572
0.21576
0.214947
0.214135
0.213323
0.212512
0.211702
0.210894
0.210088
0.209285
0.208485
0.207689
0.206898
0.206112
0.205333
0.20456
0.203796
0.20304
0.202294
0.201558
0.200834
0.200123
0.199424
0.198739
0.198068
0.197413
0.196772
0.196146
0.195535
0.194938
0.194354
0.193782
0.19322
0.192666
0.192117
0.191571
0.191024
0.190472
0.18991
0.189336
0.188743
0.188128
0.187486
0.186813
0.186105
0.185358
0.184569
0.183738
0.182862
0.181942
0.180979
0.179975
0.178934
0.177859
0.176757
0.175636
0.174502
0.173366
0.172237
0.171126
0.170044
0.169002
0.168013
0.167087
0.166235
0.165466
0.164788
0.164209
0.163733
0.163363
0.1631
0.162943
0.162887
0.162926
0.163052
0.163255
0.163522
0.163839
0.16419
0.16456
0.164931
0.165292
0.165624
0.165932
0.166179
0.166422
0.166621
0.226935
0.226156
0.225375
0.22459
0.223803
0.223013
0.22222
0.221425
0.220627
0.219827
0.219025
0.218221
0.217416
0.21661
0.215803
0.214996
0.214189
0.213382
0.212577
0.211772
0.210969
0.210168
0.20937
0.208575
0.207783
0.206996
0.206213
0.205436
0.204665
0.203902
0.203146
0.202398
0.201661
0.200933
0.200216
0.199511
0.198819
0.198139
0.197473
0.19682
0.19618
0.195554
0.19494
0.194339
0.193748
0.193166
0.192591
0.192022
0.191454
0.190885
0.190312
0.18973
0.189136
0.188525
0.187893
0.187236
0.18655
0.185831
0.185076
0.184283
0.183449
0.182574
0.181657
0.1807
0.179705
0.178674
0.177612
0.176525
0.175419
0.174301
0.17318
0.172066
0.170968
0.169898
0.168865
0.16788
0.166955
0.166099
0.16532
0.164627
0.164026
0.163522
0.163116
0.16281
0.162601
0.162488
0.162463
0.162519
0.162647
0.162835
0.16307
0.163338
0.163624
0.163911
0.16419
0.164438
0.164664
0.164824
0.164991
0.165052
0.226926
0.226147
0.225366
0.224581
0.223794
0.223005
0.222213
0.221418
0.220621
0.219822
0.219022
0.218219
0.217416
0.216612
0.215806
0.215001
0.214196
0.213391
0.212586
0.211783
0.210982
0.210182
0.209385
0.20859
0.207799
0.207012
0.206229
0.205452
0.20468
0.203915
0.203157
0.202406
0.201665
0.200933
0.200211
0.199499
0.198799
0.198111
0.197435
0.196771
0.196119
0.19548
0.194853
0.194236
0.19363
0.193031
0.19244
0.191853
0.191268
0.190682
0.190091
0.189493
0.188884
0.188258
0.187614
0.186946
0.18625
0.185524
0.184765
0.183969
0.183136
0.182264
0.181353
0.180404
0.179419
0.1784
0.177353
0.176282
0.175192
0.174092
0.172988
0.171891
0.170808
0.169751
0.168728
0.16775
0.166828
0.165969
0.165182
0.164475
0.163852
0.163319
0.162878
0.162528
0.162269
0.162098
0.162009
0.161995
0.162049
0.16216
0.162316
0.162503
0.162709
0.162918
0.163118
0.163291
0.16344
0.163524
0.163621
0.16356
0.226915
0.226136
0.225354
0.224569
0.223782
0.222992
0.222199
0.221405
0.220607
0.219808
0.219007
0.218205
0.217401
0.216597
0.215791
0.214985
0.214179
0.213374
0.212568
0.211764
0.210962
0.210161
0.209362
0.208566
0.207773
0.206984
0.206199
0.205418
0.204643
0.203875
0.203113
0.202358
0.201611
0.200873
0.200145
0.199426
0.198718
0.198022
0.197336
0.196662
0.196
0.195349
0.194709
0.194079
0.193459
0.192846
0.19224
0.191638
0.191038
0.190438
0.189833
0.189221
0.188599
0.187962
0.187307
0.18663
0.185928
0.185198
0.184436
0.18364
0.182808
0.181941
0.181036
0.180096
0.179122
0.178117
0.177085
0.176029
0.174957
0.173874
0.172789
0.171708
0.170641
0.169597
0.168585
0.167615
0.166695
0.165834
0.165039
0.164318
0.163675
0.163113
0.162636
0.162243
0.161934
0.161705
0.161553
0.161471
0.161452
0.161487
0.161566
0.161677
0.161807
0.161942
0.16207
0.162173
0.162255
0.16227
0.162307
0.162138
0.226905
0.226125
0.225342
0.224557
0.223769
0.222978
0.222185
0.221389
0.220591
0.219791
0.218989
0.218186
0.217381
0.216575
0.215768
0.214961
0.214153
0.213345
0.212538
0.211732
0.210927
0.210123
0.209322
0.208522
0.207726
0.206933
0.206144
0.20536
0.204581
0.203807
0.20304
0.202279
0.201527
0.200782
0.200047
0.199321
0.198605
0.197899
0.197204
0.19652
0.195847
0.195185
0.194533
0.193891
0.193258
0.192633
0.192014
0.191399
0.190785
0.190172
0.189555
0.188931
0.188298
0.187651
0.186988
0.186304
0.185596
0.184862
0.184098
0.183303
0.182474
0.181612
0.180715
0.179784
0.178822
0.17783
0.176812
0.175772
0.174717
0.173651
0.172582
0.171518
0.170466
0.169435
0.168433
0.16747
0.166552
0.165689
0.164886
0.16415
0.163485
0.162896
0.162382
0.161946
0.161586
0.161301
0.161085
0.160935
0.160845
0.160807
0.160812
0.160849
0.160908
0.160974
0.161037
0.161077
0.1611
0.161055
0.16104
0.16078
0.226895
0.226114
0.225331
0.224545
0.223755
0.222964
0.22217
0.221373
0.220574
0.219773
0.21897
0.218165
0.217359
0.216551
0.215742
0.214933
0.214123
0.213313
0.212504
0.211695
0.210886
0.21008
0.209274
0.208471
0.207671
0.206874
0.20608
0.205291
0.204507
0.203727
0.202954
0.202188
0.201428
0.200677
0.199934
0.1992
0.198475
0.197761
0.197056
0.196362
0.195679
0.195006
0.194343
0.19369
0.193045
0.192407
0.191776
0.191148
0.190523
0.189898
0.189269
0.188635
0.187992
0.187336
0.186665
0.185975
0.185263
0.184526
0.183761
0.182967
0.182141
0.181284
0.180394
0.179472
0.178521
0.177542
0.176538
0.175514
0.174474
0.173424
0.172371
0.171322