/*--------------------------------*- C++ -*----------------------------------*\
| =========                 |                                                 |
| \\      /  F ield         | OpenFOAM: The Open Source CFD Toolbox           |
|  \\    /   O peration     | Version:  2.1.1                                 |
|   \\  /    A nd           | Web:      www.OpenFOAM.org                      |
|    \\/     M anipulation  |                                                 |
\*---------------------------------------------------------------------------*/
FoamFile
{
    version     2.0;
    format      ascii;
    class       volScalarField;
    location    "0.14";
    object      nut;
}
// * * * * * * * * * * * * * * * * * * * * * * * * * * * * * * * * * * * * * //

dimensions      [0 2 -1 0 0 0 0];

internalField   nonuniform List<scalar> 
6820
(
4.96025e-05
5.47044e-05
5.94497e-05
6.37667e-05
6.76166e-05
7.09777e-05
7.38482e-05
7.6246e-05
7.82033e-05
7.9762e-05
8.09684e-05
8.18701e-05
8.25133e-05
8.2941e-05
8.31918e-05
8.32998e-05
8.32942e-05
8.32e-05
8.3038e-05
8.28254e-05
8.25762e-05
8.23017e-05
8.20112e-05
8.17117e-05
8.1409e-05
8.11074e-05
8.081e-05
8.052e-05
8.02355e-05
7.99739e-05
7.96564e-05
7.96627e-05
7.81487e-05
0.000540295
0.000304974
0.000219962
0.000171561
0.000140524
0.000119661
0.000105137
9.47529e-05
8.71888e-05
8.16075e-05
7.74587e-05
7.43689e-05
7.20774e-05
7.03982e-05
6.91958e-05
6.83698e-05
6.78449e-05
6.75632e-05
6.748e-05
6.756e-05
6.77753e-05
6.81032e-05
6.85251e-05
6.90256e-05
6.95917e-05
7.02123e-05
7.08777e-05
7.15789e-05
7.23085e-05
7.30545e-05
7.38136e-05
7.45536e-05
7.52105e-05
0.00105857
0.000836086
0.000679236
0.000569611
0.00049005
0.000430114
0.000383699
0.000346853
0.000316954
0.000292239
0.000271494
0.000253857
0.0002387
0.000225555
0.000214068
0.000203961
0.000195018
0.000187066
0.000179962
0.000173594
0.000167865
0.000162697
0.000158023
0.000153785
0.000149937
0.000146437
0.000143248
0.000140341
0.000137688
0.00013527
0.000133051
0.000131073
0.000129045
0.00115953
0.00109653
0.00101167
0.000926412
0.000849804
0.000783611
0.000727055
0.000678723
0.0006372
0.000601264
0.000569911
0.000542338
0.000517906
0.000496106
0.000476529
0.000458847
0.000442795
0.000428155
0.000414745
0.000402417
0.000391043
0.000380516
0.000370746
0.000361654
0.000353173
0.000345245
0.000337819
0.000330854
0.000324314
0.000318169
0.000312406
0.000307001
0.00030198
0.00116966
0.00115863
0.00113363
0.00109757
0.00105569
0.0010122
0.000969672
0.000929414
0.000891974
0.000857473
0.000825823
0.000796832
0.000770274
0.000745917
0.000723538
0.000702936
0.000683926
0.000666345
0.00065005
0.000634911
0.000620817
0.000607667
0.000595374
0.000583858
0.000573051
0.00056289
0.000553321
0.000544293
0.000535764
0.000527696
0.000520057
0.000512821
0.000505971
0.00117006
0.00116839
0.00116306
0.00115261
0.00113713
0.00111768
0.00109554
0.00107192
0.00104772
0.00102361
0.00100001
0.000977204
0.00095534
0.000934501
0.000914713
0.000895969
0.000878242
0.000861492
0.00084567
0.000830725
0.000816606
0.00080326
0.000790639
0.000778694
0.000767381
0.000756657
0.000746483
0.00073682
0.000727636
0.000718899
0.000710581
0.000702661
0.000695117
0.00116996
0.00116938
0.00116821
0.00116569
0.00116123
0.00115458
0.00114584
0.00113528
0.00112329
0.00111024
0.0010965
0.00108236
0.00106804
0.00105375
0.00103962
0.00102575
0.00101222
0.000999067
0.000986335
0.000974039
0.000962189
0.000950787
0.000939827
0.000929302
0.0009192
0.000909508
0.000900212
0.000891295
0.000882743
0.00087454
0.000866673
0.000859131
0.000851902
0.00116994
0.0011694
0.00116883
0.00116803
0.00116674
0.00116472
0.0011618
0.00115791
0.00115305
0.00114729
0.00114075
0.00113355
0.00112583
0.00111772
0.00110931
0.00110073
0.00109204
0.00108332
0.00107463
0.00106601
0.0010575
0.00104914
0.00104094
0.00103292
0.00102509
0.00101747
0.00101006
0.00100285
0.000995866
0.00098909
0.000982526
0.000976176
0.000970037
0.00116994
0.00116939
0.00116886
0.00116832
0.0011677
0.00116692
0.00116588
0.00116449
0.00116269
0.00116043
0.00115772
0.00115456
0.00115098
0.00114702
0.00114274
0.00113817
0.00113336
0.00112837
0.00112324
0.00111799
0.00111268
0.00110733
0.00110196
0.0010966
0.00109128
0.001086
0.00108078
0.00107563
0.00107056
0.00106559
0.00106071
0.00105594
0.00105128
0.00116994
0.00116938
0.00116885
0.00116833
0.00116782
0.00116729
0.00116671
0.00116605
0.00116526
0.00116432
0.00116319
0.00116185
0.0011603
0.00115853
0.00115655
0.00115436
0.00115198
0.00114944
0.00114673
0.0011439
0.00114094
0.0011379
0.00113477
0.00113158
0.00112834
0.00112508
0.00112179
0.00111849
0.0011152
0.00111192
0.00110866
0.00110543
0.00110224
0.00116994
0.00116938
0.00116884
0.00116832
0.00116782
0.00116732
0.00116683
0.00116634
0.00116582
0.00116527
0.00116466
0.00116399
0.00116324
0.0011624
0.00116146
0.00116042
0.00115928
0.00115804
0.0011567
0.00115526
0.00115373
0.00115213
0.00115045
0.00114871
0.00114691
0.00114506
0.00114316
0.00114124
0.00113928
0.00113731
0.00113532
0.00113333
0.00113133
0.00116994
0.00116938
0.00116884
0.00116832
0.00116781
0.00116732
0.00116684
0.00116637
0.00116591
0.00116545
0.00116499
0.00116451
0.00116402
0.00116351
0.00116296
0.00116238
0.00116176
0.0011611
0.00116039
0.00115964
0.00115884
0.00115799
0.0011571
0.00115617
0.0011552
0.00115419
0.00115315
0.00115208
0.00115098
0.00114986
0.00114872
0.00114756
0.00114639
0.00116994
0.00116938
0.00116884
0.00116832
0.00116781
0.00116732
0.00116684
0.00116637
0.00116592
0.00116547
0.00116504
0.00116461
0.00116419
0.00116377
0.00116335
0.00116292
0.00116248
0.00116204
0.00116158
0.00116111
0.00116062
0.00116011
0.00115959
0.00115905
0.00115849
0.00115791
0.00115731
0.0011567
0.00115607
0.00115543
0.00115478
0.00115411
0.00115343
0.00116994
0.00116938
0.00116884
0.00116832
0.00116781
0.00116731
0.00116683
0.00116637
0.00116591
0.00116547
0.00116504
0.00116462
0.00116421
0.00116382
0.00116342
0.00116304
0.00116266
0.00116228
0.00116191
0.00116153
0.00116116
0.00116078
0.0011604
0.00116002
0.00115964
0.00115925
0.00115885
0.00115846
0.00115805
0.00115764
0.00115723
0.00115681
0.00115639
0.00116994
0.00116938
0.00116884
0.00116832
0.00116781
0.00116731
0.00116683
0.00116636
0.00116591
0.00116547
0.00116504
0.00116462
0.00116421
0.00116382
0.00116343
0.00116305
0.00116269
0.00116233
0.00116198
0.00116163
0.00116129
0.00116096
0.00116063
0.00116031
0.00115999
0.00115967
0.00115935
0.00115904
0.00115873
0.00115842
0.00115811
0.00115781
0.00115751
0.00116994
0.00116938
0.00116884
0.00116831
0.0011678
0.00116731
0.00116683
0.00116636
0.0011659
0.00116546
0.00116503
0.00116461
0.00116421
0.00116381
0.00116343
0.00116305
0.00116269
0.00116233
0.00116198
0.00116165
0.00116132
0.00116099
0.00116068
0.00116037
0.00116007
0.00115978
0.00115949
0.00115921
0.00115893
0.00115866
0.00115839
0.00115813
0.00115787
0.00116994
0.00116938
0.00116884
0.00116831
0.0011678
0.00116731
0.00116683
0.00116636
0.0011659
0.00116546
0.00116503
0.00116461
0.0011642
0.0011638
0.00116342
0.00116304
0.00116268
0.00116232
0.00116198
0.00116164
0.00116131
0.00116099
0.00116068
0.00116038
0.00116008
0.00115979
0.00115951
0.00115924
0.00115897
0.00115871
0.00115846
0.00115821
0.00115797
0.00116994
0.00116938
0.00116884
0.00116831
0.0011678
0.00116731
0.00116682
0.00116635
0.0011659
0.00116546
0.00116502
0.0011646
0.0011642
0.0011638
0.00116341
0.00116304
0.00116267
0.00116232
0.00116197
0.00116163
0.0011613
0.00116098
0.00116067
0.00116037
0.00116008
0.00115979
0.00115951
0.00115924
0.00115897
0.00115871
0.00115846
0.00115822
0.00115798
0.00116994
0.00116938
0.00116884
0.00116831
0.0011678
0.0011673
0.00116682
0.00116635
0.0011659
0.00116545
0.00116502
0.0011646
0.00116419
0.0011638
0.00116341
0.00116303
0.00116267
0.00116231
0.00116196
0.00116162
0.0011613
0.00116098
0.00116066
0.00116036
0.00116006
0.00115978
0.0011595
0.00115922
0.00115896
0.0011587
0.00115845
0.00115821
0.00115797
0.00116994
0.00116938
0.00116884
0.00116831
0.0011678
0.0011673
0.00116682
0.00116635
0.00116589
0.00116545
0.00116502
0.0011646
0.00116419
0.00116379
0.0011634
0.00116303
0.00116266
0.0011623
0.00116196
0.00116162
0.00116129
0.00116097
0.00116066
0.00116035
0.00116005
0.00115977
0.00115949
0.00115921
0.00115895
0.00115869
0.00115844
0.00115819
0.00115795
0.00116994
0.00116938
0.00116884
0.00116831
0.0011678
0.0011673
0.00116682
0.00116635
0.00116589
0.00116545
0.00116502
0.0011646
0.00116419
0.00116379
0.0011634
0.00116302
0.00116266
0.0011623
0.00116195
0.00116161
0.00116128
0.00116096
0.00116065
0.00116034
0.00116005
0.00115976
0.00115947
0.0011592
0.00115893
0.00115867
0.00115842
0.00115817
0.00115794
0.00116994
0.00116938
0.00116884
0.00116831
0.0011678
0.0011673
0.00116682
0.00116635
0.00116589
0.00116545
0.00116501
0.00116459
0.00116418
0.00116378
0.0011634
0.00116302
0.00116265
0.00116229
0.00116194
0.00116161
0.00116127
0.00116095
0.00116064
0.00116033
0.00116004
0.00115975
0.00115946
0.00115919
0.00115892
0.00115866
0.00115841
0.00115816
0.00115792
0.00116994
0.00116938
0.00116884
0.00116831
0.0011678
0.0011673
0.00116682
0.00116635
0.00116589
0.00116545
0.00116501
0.00116459
0.00116418
0.00116378
0.00116339
0.00116302
0.00116265
0.00116229
0.00116194
0.0011616
0.00116127
0.00116095
0.00116063
0.00116033
0.00116003
0.00115974
0.00115945
0.00115918
0.00115891
0.00115865
0.00115839
0.00115815
0.0011579
0.00116994
0.00116938
0.00116884
0.00116831
0.0011678
0.0011673
0.00116682
0.00116635
0.00116589
0.00116544
0.00116501
0.00116459
0.00116418
0.00116378
0.00116339
0.00116301
0.00116264
0.00116228
0.00116194
0.00116159
0.00116126
0.00116094
0.00116063
0.00116032
0.00116002
0.00115973
0.00115945
0.00115917
0.0011589
0.00115864
0.00115838
0.00115813
0.00115789
0.00116994
0.00116938
0.00116884
0.00116831
0.0011678
0.0011673
0.00116682
0.00116635
0.00116589
0.00116544
0.00116501
0.00116459
0.00116418
0.00116378
0.00116339
0.00116301
0.00116264
0.00116228
0.00116193
0.00116159
0.00116126
0.00116093
0.00116062
0.00116031
0.00116001
0.00115972
0.00115944
0.00115916
0.00115889
0.00115863
0.00115837
0.00115812
0.00115788
0.00116994
0.00116938
0.00116884
0.00116831
0.0011678
0.0011673
0.00116682
0.00116635
0.00116589
0.00116544
0.00116501
0.00116459
0.00116418
0.00116378
0.00116339
0.00116301
0.00116264
0.00116228
0.00116193
0.00116159
0.00116125
0.00116093
0.00116061
0.00116031
0.00116001
0.00115971
0.00115943
0.00115915
0.00115888
0.00115862
0.00115836
0.00115811
0.00115787
0.00116994
0.00116938
0.00116884
0.00116831
0.0011678
0.0011673
0.00116682
0.00116635
0.00116589
0.00116544
0.00116501
0.00116459
0.00116417
0.00116377
0.00116338
0.001163
0.00116264
0.00116228
0.00116192
0.00116158
0.00116125
0.00116093
0.00116061
0.0011603
0.00116
0.00115971
0.00115942
0.00115914
0.00115887
0.00115861
0.00115835
0.0011581
0.00115786
0.00116994
0.00116938
0.00116884
0.00116831
0.0011678
0.0011673
0.00116682
0.00116635
0.00116589
0.00116544
0.00116501
0.00116458
0.00116417
0.00116377
0.00116338
0.001163
0.00116263
0.00116227
0.00116192
0.00116158
0.00116125
0.00116092
0.00116061
0.0011603
0.00116
0.0011597
0.00115942
0.00115914
0.00115887
0.0011586
0.00115834
0.00115809
0.00115785
0.00116994
0.00116938
0.00116884
0.00116831
0.0011678
0.0011673
0.00116682
0.00116634
0.00116589
0.00116544
0.00116501
0.00116458
0.00116417
0.00116377
0.00116338
0.001163
0.00116263
0.00116227
0.00116192
0.00116158
0.00116124
0.00116092
0.0011606
0.00116029
0.00115999
0.0011597
0.00115941
0.00115913
0.00115886
0.0011586
0.00115834
0.00115808
0.00115784
0.00116994
0.00116938
0.00116884
0.00116831
0.0011678
0.0011673
0.00116682
0.00116635
0.00116589
0.00116544
0.00116501
0.00116459
0.00116417
0.00116377
0.00116338
0.001163
0.00116263
0.00116227
0.00116192
0.00116158
0.00116124
0.00116092
0.0011606
0.00116029
0.00115999
0.0011597
0.00115941
0.00115913
0.00115886
0.00115859
0.00115833
0.00115808
0.00115783
0.00116994
0.00116938
0.00116884
0.00116831
0.0011678
0.0011673
0.00116682
0.00116635
0.00116589
0.00116544
0.00116501
0.00116459
0.00116418
0.00116378
0.00116339
0.00116301
0.00116264
0.00116227
0.00116192
0.00116158
0.00116125
0.00116092
0.0011606
0.00116029
0.00115999
0.0011597
0.00115941
0.00115913
0.00115885
0.00115858
0.00115832
0.00115807
0.00115782
0.00116994
0.00116938
0.00116884
0.00116831
0.0011678
0.00116731
0.00116682
0.00116635
0.0011659
0.00116545
0.00116502
0.0011646
0.00116418
0.00116378
0.00116339
0.00116301
0.00116264
0.00116228
0.00116193
0.00116158
0.00116125
0.00116092
0.0011606
0.00116028
0.00115998
0.00115968
0.00115939
0.0011591
0.00115882
0.00115854
0.00115827
0.00115801
0.00115775
0.00116994
0.00116938
0.00116884
0.00116831
0.00116781
0.00116731
0.00116683
0.00116636
0.0011659
0.00116546
0.00116502
0.0011646
0.00116419
0.00116379
0.0011634
0.00116301
0.00116263
0.00116227
0.0011619
0.00116155
0.0011612
0.00116086
0.00116052
0.00116018
0.00115986
0.00115953
0.00115921
0.00115889
0.00115858
0.00115827
0.00115797
0.00115766
0.00115736
0.00116994
0.00116938
0.00116884
0.00116833
0.00116782
0.00116733
0.00116685
0.00116639
0.00116593
0.00116548
0.00116503
0.00116459
0.00116416
0.00116373
0.00116331
0.00116288
0.00116246
0.00116204
0.00116161
0.00116119
0.00116076
0.00116033
0.0011599
0.00115946
0.00115902
0.00115858
0.00115814
0.00115769
0.00115724
0.00115678
0.00115632
0.00115586
0.0011554
0.00116994
0.00116939
0.00116886
0.00116835
0.00116784
0.00116733
0.00116683
0.00116632
0.00116581
0.00116528
0.00116473
0.00116417
0.00116358
0.00116297
0.00116233
0.00116166
0.00116097
0.00116024
0.00115949
0.00115871
0.0011579
0.00115706
0.0011562
0.00115532
0.00115442
0.00115349
0.00115255
0.00115159
0.00115061
0.00114962
0.00114862
0.00114761
0.00114659
0.00116995
0.0011694
0.00116886
0.00116828
0.00116765
0.00116694
0.00116612
0.00116519
0.00116413
0.00116295
0.00116162
0.00116017
0.00115859
0.00115689
0.00115507
0.00115315
0.00115112
0.00114901
0.00114682
0.00114455
0.00114222
0.00113984
0.00113742
0.00113496
0.00113246
0.00112995
0.00112742
0.00112488
0.00112233
0.00111978
0.00111724
0.0011147
0.00111218
0.00116996
0.00116916
0.00116786
0.00116595
0.00116343
0.0011603
0.00115657
0.00115228
0.00114748
0.00114224
0.00113661
0.00113066
0.00112446
0.00111805
0.00111149
0.00110483
0.00109811
0.00109135
0.00108459
0.00107786
0.00107118
0.00106457
0.00105803
0.00105159
0.00104525
0.00103902
0.00103291
0.00102693
0.00102107
0.00101534
0.00100974
0.00100427
0.000998927
0.00116831
0.00115866
0.00114501
0.00112845
0.00110971
0.0010895
0.00106846
0.00104712
0.00102586
0.00100494
0.00098456
0.000964831
0.000945828
0.000927586
0.000910119
0.000893422
0.000877479
0.000862266
0.000847756
0.000833917
0.000820717
0.000808126
0.00079611
0.000784639
0.000773684
0.000763216
0.000753209
0.000743638
0.000734477
0.000725705
0.000717301
0.000709245
0.000701515
0.00107567
0.000936195
0.000835605
0.000756877
0.000692072
0.000638315
0.0005934
0.0005555
0.000523174
0.00049532
0.00047109
0.00044983
0.000431036
0.000414307
0.000399329
0.000385847
0.000373654
0.000362581
0.000352487
0.000343253
0.000334781
0.000326985
0.000319793
0.000313144
0.000306981
0.00030126
0.000295937
0.000290976
0.000286346
0.000282017
0.000277964
0.000274166
0.000270598
0.000142979
0.000146644
0.000150174
0.000153551
0.000156773
0.000159846
0.000162776
0.000165567
0.000168224
0.000170754
0.000173161
0.000175449
0.000177624
0.00017969
0.000181652
0.000183514
0.000185282
0.000186958
0.000188549
0.000190057
0.000191486
0.000192841
0.000194125
0.000195342
0.000196494
0.000197585
0.000198619
0.000199598
0.000200524
0.000201401
0.000202232
0.000203018
0.000203762
9.09798e-05
0.000110471
0.000134568
0.000163897
0.000197865
0.000234697
0.000272213
0.000308539
0.000342603
0.000374211
0.000403809
0.00043212
0.000459826
0.000487366
0.000514907
0.000542429
0.000569855
0.000597157
0.000624404
0.000651757
0.00067942
0.000707589
0.000736413
0.000765969
0.00079626
0.000827229
0.000858765
0.000890718
0.000922903
0.000955108
0.000987089
0.00101857
0.00104927
0.00107885
0.00110699
0.00113336
0.0011576
0.0011794
0.00119843
0.00121442
0.00122713
0.00123637
0.001242
0.00124398
0.00124234
0.00123721
0.00122885
0.00121761
0.00120397
0.00118853
0.00117197
0.00115509
0.0011387
0.00112366
0.00111078
0.0011008
0.00109437
0.00109195
0.00109387
0.00110029
0.00111121
0.00112651
0.00114593
0.00116915
0.00119571
0.00122503
0.00125642
0.001289
0.00132173
0.0013534
0.0013827
0.00140821
0.00142856
0.00144247
0.00144887
0.00144705
0.00143673
0.00141825
0.0013926
0.0013616
0.0013279
0.0012949
0.00126641
0.00124607
0.00123644
0.00123813
0.00124951
0.00126729
0.00128785
0.00130846
0.0013278
0.00134575
0.0013628
0.0013796
0.00139676
0.00141467
0.00143361
0.001454
0.00147357
0.00150766
7.63734e-05
7.85108e-05
8.18874e-05
8.72305e-05
9.53755e-05
0.000107112
0.000123076
0.000143573
0.000168464
0.000197136
0.000228582
0.000261574
0.000294886
0.000327508
0.0003588
0.000388523
0.000416781
0.000443893
0.000470255
0.000496225
0.000522067
0.000547931
0.000573876
0.000599906
0.000626
0.000652129
0.000678258
0.000704341
0.000730307
0.000756053
0.000781434
0.000806265
0.000830324
0.000853361
0.000875104
0.000895271
0.00091358
0.000929758
0.000943553
0.000954745
0.000963156
0.000968668
0.000971231
0.000970879
0.000967741
0.000962053
0.00095416
0.000944524
0.000933711
0.000922383
0.000911266
0.000901117
0.000892679
0.000886631
0.000883536
0.000883805
0.000887669
0.000895181
0.00090624
0.000920631
0.000938073
0.000958266
0.000980923
0.00100578
0.00103258
0.00106105
0.00109083
0.00112145
0.00115229
0.00118253
0.00121119
0.00123717
0.00125934
0.00127662
0.00128813
0.0012933
0.001292
0.00128468
0.00127245
0.00125712
0.00124111
0.00122723
0.00121823
0.00121613
0.00122163
0.00123383
0.00125055
0.00126924
0.00128785
0.00130532
0.00132155
0.00133695
0.00135211
0.00136756
0.00138372
0.00140082
0.00141903
0.00143874
0.00145765
0.00149095
0.000126985
0.000124894
0.000122723
0.000120327
0.000117652
0.000115338
0.000113641
0.000112935
0.000113738
0.000116655
0.000122296
0.000131159
0.000143544
0.000159502
0.000178818
0.000201029
0.000225491
0.000251461
0.000278202
0.000305077
0.000331605
0.000357493
0.000382616
0.000406978
0.000430658
0.00045376
0.000476375
0.000498557
0.000520312
0.000541597
0.000562328
0.000582383
0.000601617
0.000619864
0.000636946
0.000652682
0.000666895
0.000679422
0.000690125
0.000698903
0.000705704
0.000710542
0.000713504
0.000714766
0.000714598
0.00071337
0.000711543
0.000709663
0.000708329
0.000708165
0.000709768
0.000713658
0.000720227
0.000729695
0.000742086
0.000757233
0.000774808
0.000794374
0.000815454
0.000837589
0.00086039
0.000883575
0.000906977
0.00093054
0.000954294
0.000978312
0.00100266
0.00102732
0.00105216
0.00107686
0.00110093
0.00112368
0.00114434
0.00116212
0.00117633
0.00118655
0.00119272
0.00119525
0.0011951
0.00119369
0.00119277
0.00119412
0.00119911
0.00120833
0.00122135
0.00123695
0.00125355
0.00126985
0.00128518
0.0012995
0.00131318
0.00132672
0.00134059
0.00135511
0.00137053
0.00138696
0.0014045
0.00142351
0.0014417
0.001474
0.00029652
0.000290425
0.000284278
0.000277977
0.00027132
0.000264151
0.000256772
0.000249117
0.000241074
0.000232613
0.000223847
0.000215065
0.000206721
0.000199376
0.000193618
0.000189972
0.00018884
0.000190466
0.000194923
0.00020213
0.000211874
0.000223842
0.000237658
0.000252921
0.000269234
0.000286238
0.000303621
0.000321129
0.000338563
0.00035577
0.000372632
0.000389054
0.000404952
0.000420252
0.000434883
0.000448785
0.000461912
0.000474238
0.000485771
0.000496561
0.00050671
0.00051638
0.000525798
0.000535256
0.000545103
0.00055573
0.000567547
0.000580944
0.000596252
0.000613702
0.000633385
0.00065523
0.000679004
0.000704332
0.000730737
0.000757693
0.000784673
0.000811199
0.000836874
0.0008614
0.000884594
0.000906381
0.000926792
0.000945949
0.000964052
0.000981354
0.000998135
0.00101466
0.00103113
0.00104766
0.0010642
0.00108054
0.00109636
0.00111122
0.00112472
0.00113657
0.00114669
0.00115532
0.00116298
0.00117047
0.00117865
0.00118824
0.00119959
0.00121255
0.00122651
0.00124068
0.00125441
0.00126737
0.00127964
0.00129153
0.00130347
0.00131583
0.00132888
0.00134278
0.00135763
0.00137348
0.00139036
0.00140863
0.00142605
0.00145714
0.000498459
0.000490253
0.00048229
0.000474503
0.000466813
0.000459094
0.000451294
0.000443418
0.000435376
0.00042705
0.000418317
0.000409068
0.000399232
0.000388794
0.000377821
0.000366469
0.00035499
0.000343714
0.000333017
0.000323289
0.000314882
0.000308089
0.000303118
0.000300086
0.000299029
0.000299907
0.000302624
0.000307045
0.000313011
0.000320354
0.000328909
0.000338525
0.000349072
0.000360446
0.00037257
0.000385398
0.000398919
0.000413151
0.000428147
0.000443991
0.000460793
0.000478683
0.000497803
0.000518285
0.000540241
0.000563737
0.000588778
0.000615288
0.000643108
0.000671992
0.000701617
0.00073161
0.000761565
0.000791075
0.00081976
0.000847287
0.000873384
0.000897852
0.000920561
0.000941453
0.000960531
0.000977851
0.000993518
0.00100768
0.00102052
0.00103224
0.0010431
0.00105335
0.00106324
0.00107303
0.00108288
0.00109292
0.00110315
0.00111352
0.0011239
0.00113416
0.00114424
0.00115416
0.00116408
0.0011742
0.00118473
0.00119575
0.00120718
0.00121876
0.00123017
0.00124116
0.00125167
0.00126184
0.00127195
0.00128233
0.00129326
0.00130495
0.0013175
0.00133095
0.00134532
0.00136061
0.00137683
0.00139432
0.00141091
0.00144064
0.000686791
0.000677676
0.000668859
0.000660325
0.00065204
0.000643946
0.000636013
0.000628207
0.000620493
0.000612831
0.000605177
0.000597485
0.000589703
0.000581782
0.000573678
0.00056536
0.000556818
0.000548071
0.000539176
0.000530227
0.000521358
0.000512734
0.000504545
0.000496992
0.000490279
0.000484596
0.000480119
0.000476996
0.000475346
0.000475261
0.000476806
0.000480021
0.00048493
0.000491542
0.000499857
0.00050987
0.000521572
0.000534949
0.000549984
0.000566652
0.000584915
0.000604719
0.000625986
0.000648607
0.00067244
0.000697309
0.000722998
0.000749263
0.000775832
0.000802421
0.000828743
0.000854522
0.000879502
0.000903462
0.000926218
0.00094763
0.0009676
0.000986077
0.00100305
0.00101853
0.00103258
0.00104527
0.0010567
0.00106698
0.00107623
0.00108459
0.00109221
0.00109924
0.00110585
0.00111221
0.00111849
0.00112486
0.00113143
0.0011383
0.00114551
0.00115306
0.00116094
0.00116909
0.0011775
0.00118611
0.00119488
0.0012037
0.00121245
0.00122104
0.00122942
0.00123764
0.00124585
0.0012543
0.00126322
0.00127283
0.00128326
0.00129457
0.00130679
0.00131986
0.00133378
0.0013485
0.00136403
0.00138071
0.00139645
0.00142467
0.000843862
0.000834982
0.000826319
0.000817874
0.000809644
0.000801607
0.000793763
0.000786099
0.000778606
0.000771276
0.000764102
0.000757083
0.000750214
0.000743493
0.000736916
0.000730478
0.000724172
0.000717997
0.000711958
0.000706066
0.000700349
0.000694848
0.000689622
0.000684747
0.000680313
0.000676424
0.000673196
0.000670747
0.000669199
0.000668669
0.000669267
0.000671093
0.000674232
0.000678755
0.000684714
0.000692141
0.00070105
0.000711433
0.00072326
0.000736479
0.000751015
0.000766768
0.000783615
0.000801413
0.000819995
0.000839178
0.000858768
0.00087856
0.00089835
0.000917937
0.000937133
0.000955766
0.000973685
0.000990767
0.00100691
0.00102205
0.00103614
0.00104917
0.00106114
0.00107207
0.00108202
0.00109104
0.00109921
0.00110661
0.00111332
0.00111946
0.0011251
0.00113036
0.00113533
0.00114011
0.00114479
0.00114948
0.00115425
0.00115919
0.00116435
0.00116975
0.0011754
0.00118127
0.00118731
0.00119347
0.00119969
0.00120592
0.00121214
0.00121837
0.00122472
0.00123132
0.00123836
0.00124602
0.00125445
0.00126374
0.00127393
0.00128501
0.00129694
0.00130964
0.00132308
0.00133721
0.00135203
0.00136787
0.00138273
0.00140937
0.00096314
0.000955435
0.000947823
0.000940318
0.000932931
0.000925668
0.000918533
0.000911529
0.000904659
0.000897931
0.000891354
0.000884942
0.00087871
0.000872675
0.000866855
0.000861266
0.000855925
0.000850847
0.000846047
0.000841539
0.000837342
0.000833474
0.000829961
0.000826834
0.000824129
0.000821892
0.000820174
0.000819033
0.00081853
0.000818731
0.000819701
0.000821502
0.000824191
0.000827819
0.000832425
0.000838035
0.000844663
0.000852303
0.000860935
0.00087052
0.000880998
0.000892295
0.000904319
0.000916961
0.000930104
0.000943617
0.000957364
0.000971209
0.000985014
0.000998649
0.00101199
0.00102493
0.00103737
0.00104923
0.00106045
0.00107098
0.0010808
0.00108988
0.00109823
0.00110587
0.00111283
0.00111915
0.00112487
0.00113006
0.0011348
0.00113914
0.00114318
0.00114698
0.00115062
0.00115417
0.00115769
0.00116125
0.00116487
0.0011686
0.00117246
0.00117644
0.00118056
0.0011848
0.00118914
0.00119356
0.00119807
0.00120269
0.00120748
0.00121254
0.00121798
0.00122396
0.0012306
0.00123803
0.00124632
0.0012555
0.00126554
0.0012764
0.00128801
0.0013003
0.00131323
0.00132674
0.00134083
0.00135581
0.0013698
0.00139481
0.00104598
0.00103998
0.00103398
0.00102798
0.001022
0.00101605
0.00101015
0.00100429
0.000998497
0.000992779
0.000987152
0.000981632
0.00097624
0.000970996
0.000965925
0.000961048
0.00095639
0.000951974
0.000947822
0.000943956
0.000940398
0.000937169
0.000934289
0.000931781
0.000929668
0.000927974
0.000926728
0.000925958
0.000925694
0.000925968
0.000926811
0.000928255
0.000930327
0.000933051
0.000936448
0.000940527
0.000945294
0.00095074
0.00095685
0.000963595
0.000970934
0.000978818
0.000987184
0.000995962
0.00100507
0.00101443
0.00102395
0.00103353
0.0010431
0.00105255
0.00106182
0.00107082
0.0010795
0.00108778
0.00109564
0.00110302
0.0011099
0.00111628
0.00112213
0.00112748
0.00113233
0.0011367
0.00114064
0.00114418
0.00114738
0.00115028
0.00115295
0.00115546
0.00115788
0.00116025
0.00116264
0.0011651
0.00116766
0.00117035
0.00117317
0.00117612
0.00117921
0.00118243
0.00118579
0.00118929
0.00119297
0.0011969
0.00120115
0.00120582
0.00121104
0.00121691
0.00122352
0.00123094
0.00123919
0.00124827
0.00125813
0.00126872
0.00127997
0.0012918
0.00130417
0.00131703
0.00133038
0.00134451
0.00135764
0.00138102
0.00109856
0.00109434
0.00109006
0.00108571
0.00108132
0.0010769
0.00107244
0.00106798
0.00106351
0.00105905
0.00105461
0.00105022
0.00104588
0.00104163
0.00103747
0.00103344
0.00102955
0.00102583
0.0010223
0.00101898
0.00101591
0.00101308
0.00101054
0.0010083
0.00100637
0.00100479
0.00100357
0.00100272
0.00100228
0.00100225
0.00100265
0.0010035
0.00100482
0.00100661
0.00100889
0.00101165
0.00101489
0.00101861
0.0010228
0.00102742
0.00103246
0.00103788
0.00104364
0.00104968
0.00105597
0.00106245
0.00106904
0.00107571
0.00108237
0.00108898
0.00109548
0.00110182
0.00110794
0.0011138
0.00111937
0.00112461
0.0011295
0.00113402
0.00113816
0.00114192
0.0011453
0.00114832
0.00115099
0.00115335
0.00115541
0.00115724
0.00115887
0.00116036
0.00116177
0.00116315
0.00116455
0.00116604
0.00116764
0.00116939
0.00117132
0.00117345
0.00117577
0.0011783
0.00118106
0.00118407
0.00118738
0.00119105
0.00119515
0.00119977
0.00120499
0.0012109
0.00121754
0.00122494
0.00123311
0.00124203
0.00125164
0.00126189
0.00127271
0.00128403
0.00129582
0.00130802
0.00132063
0.00133391
0.0013462
0.001368
0.001129
0.00112629
0.00112349
0.00112061
0.00111766
0.00111464
0.00111156
0.00110844
0.00110527
0.00110206
0.00109884
0.00109561
0.00109239
0.00108919
0.00108603
0.00108292
0.00107989
0.00107695
0.00107413
0.00107144
0.0010689
0.00106653
0.00106436
0.00106239
0.00106066
0.00105917
0.00105795
0.00105701
0.00105636
0.00105602
0.00105601
0.00105633
0.00105699
0.001058
0.00105937
0.00106109
0.00106317
0.00106559
0.00106835
0.00107143
0.00107482
0.00107849
0.00108241
0.00108656
0.00109089
0.00109537
0.00109997
0.00110463
0.00110931
0.00111398
0.00111859
0.00112311
0.00112748
0.00113169
0.0011357
0.00113947
0.00114299
0.00114624
0.0011492
0.00115187
0.00115425
0.00115633
0.00115813
0.00115966
0.00116096
0.00116204
0.00116294
0.00116371
0.0011644
0.00116505
0.00116572
0.00116646
0.00116732
0.00116834
0.00116957
0.00117103
0.00117276
0.00117477
0.0011771
0.00117978
0.00118286
0.00118638
0.00119041
0.00119501
0.00120022
0.00120611
0.0012127
0.00122
0.00122799
0.00123666
0.00124594
0.00125578
0.00126612
0.00127689
0.00128807
0.0012996
0.00131148
0.00132394
0.00133542
0.0013557
0.00114501
0.00114338
0.00114167
0.0011399
0.00113805
0.00113614
0.00113416
0.00113212
0.00113003
0.0011279
0.00112572
0.00112352
0.00112129
0.00111905
0.00111681
0.00111458
0.00111238
0.00111022
0.00110811
0.00110607
0.00110412
0.00110226
0.00110053
0.00109893
0.00109747
0.00109618
0.00109507
0.00109415
0.00109343
0.00109294
0.00109267
0.00109265
0.00109287
0.00109335
0.00109408
0.00109508
0.00109634
0.00109785
0.00109962
0.00110163
0.00110387
0.00110633
0.00110899
0.00111183
0.00111482
0.00111794
0.00112116
0.00112446
0.00112779
0.00113114
0.00113446
0.00113773
0.00114091
0.00114399
0.00114692
0.00114969
0.00115227
0.00115465
0.00115681
0.00115874
0.00116042
0.00116187
0.00116309
0.00116408
0.00116485
0.00116545
0.00116588
0.00116618
0.0011664
0.00116658
0.00116677
0.00116702
0.00116737
0.00116789
0.00116862
0.0011696
0.00117088
0.0011725
0.00117449
0.0011769
0.00117976
0.00118313
0.00118703
0.00119153
0.00119664
0.00120241
0.00120884
0.00121592
0.00122364
0.00123197
0.00124085
0.00125022
0.00126005
0.00127026
0.00128082
0.00129168
0.00130284
0.00131452
0.00132524
0.00134408
0.00115263
0.00115167
0.00115066
0.00114961
0.00114849
0.00114733
0.00114612
0.00114485
0.00114354
0.00114219
0.0011408
0.00113937
0.00113792
0.00113644
0.00113494
0.00113344
0.00113193
0.00113044
0.00112896
0.00112752
0.00112611
0.00112476
0.00112347
0.00112226
0.00112113
0.00112011
0.0011192
0.00111841
0.00111776
0.00111725
0.00111691
0.00111673
0.00111672
0.00111689
0.00111725
0.0011178
0.00111854
0.00111948
0.0011206
0.00112191
0.0011234
0.00112506
0.00112688
0.00112884
0.00113094
0.00113315
0.00113545
0.00113783
0.00114025
0.0011427
0.00114515
0.00114757
0.00114995
0.00115225
0.00115446
0.00115654
0.00115849
0.00116028
0.00116189
0.00116331
0.00116454
0.00116558
0.00116641
0.00116704
0.0011675
0.00116779
0.00116793
0.00116796
0.0011679
0.00116781
0.00116771
0.00116766
0.00116771
0.00116792
0.00116833
0.00116899
0.00116996
0.00117129
0.00117301
0.00117518
0.00117783
0.001181
0.00118473
0.00118905
0.00119397
0.00119952
0.00120569