/*--------------------------------*- C++ -*----------------------------------*\
| =========                 |                                                 |
| \\      /  F ield         | OpenFOAM: The Open Source CFD Toolbox           |
|  \\    /   O peration     | Version:  2.1.1                                 |
|   \\  /    A nd           | Web:      www.OpenFOAM.org                      |
|    \\/     M anipulation  |                                                 |
\*---------------------------------------------------------------------------*/
FoamFile
{
    version     2.0;
    format      ascii;
    class       volScalarField;
    location    "0.14";
    object      p;
}
// * * * * * * * * * * * * * * * * * * * * * * * * * * * * * * * * * * * * * //

dimensions      [0 2 -2 0 0 0 0];

internalField   nonuniform List<scalar> 
6820
(
-11.024
-12.8703
-13.4455
-13.5735
-13.6808
-13.7604
-13.8153
-13.8622
-13.9052
-13.9448
-13.9818
-14.0169
-14.0504
-14.0824
-14.1131
-14.1426
-14.171
-14.1984
-14.2251
-14.2509
-14.2762
-14.3009
-14.325
-14.3487
-14.3719
-14.3945
-14.4163
-14.437
-14.4555
-14.4708
-14.4788
-14.4731
-14.442
-14.9765
-14.4419
-14.0195
-13.8298
-13.8055
-13.817
-13.8377
-13.8661
-13.8988
-13.9328
-13.967
-14.0009
-14.0341
-14.0663
-14.0976
-14.1278
-14.157
-14.1853
-14.2127
-14.2394
-14.2654
-14.2907
-14.3155
-14.3399
-14.3638
-14.3872
-14.41
-14.4324
-14.4538
-14.476
-14.4974
-14.5409
-14.5978
-13.3339
-13.0302
-13.317
-13.5622
-13.6676
-13.7433
-13.8027
-13.8525
-13.8971
-13.9378
-13.9756
-14.0111
-14.0447
-14.0767
-14.1073
-14.1366
-14.1649
-14.1922
-14.2187
-14.2445
-14.2697
-14.2944
-14.3186
-14.3424
-14.3659
-14.3892
-14.4121
-14.4349
-14.4576
-14.4814
-14.5067
-14.5401
-14.5775
-13.8409
-13.8753
-13.8727
-13.8137
-13.8063
-13.8271
-13.8539
-13.8832
-13.9145
-13.9465
-13.9783
-14.0097
-14.0405
-14.0706
-14.1
-14.1286
-14.1564
-14.1835
-14.21
-14.2359
-14.2612
-14.2861
-14.3107
-14.3349
-14.3589
-14.3827
-14.4065
-14.4305
-14.455
-14.4815
-14.5103
-14.5487
-14.5937
-13.6854
-13.5854
-13.6298
-13.696
-13.7493
-13.7962
-13.8373
-13.8751
-13.9115
-13.9465
-13.9801
-14.0125
-14.0439
-14.0742
-14.1035
-14.1319
-14.1594
-14.1862
-14.2123
-14.2378
-14.2628
-14.2874
-14.3117
-14.3357
-14.3596
-14.3834
-14.4074
-14.4319
-14.4572
-14.4844
-14.5144
-14.5505
-14.5913
-13.7405
-13.7239
-13.7492
-13.7725
-13.7951
-13.8247
-13.8567
-13.8888
-13.9211
-13.953
-13.9844
-14.0151
-14.045
-14.0741
-14.1025
-14.1301
-14.1571
-14.1834
-14.2092
-14.2344
-14.2592
-14.2837
-14.3079
-14.332
-14.3559
-14.38
-14.4043
-14.4292
-14.4552
-14.4829
-14.5131
-14.5477
-14.5859
-13.7386
-13.7175
-13.7335
-13.7625
-13.7929
-13.8261
-13.8594
-13.8919
-13.9239
-13.9555
-13.9864
-14.0166
-14.046
-14.0747
-14.1027
-14.1299
-14.1565
-14.1825
-14.208
-14.233
-14.2576
-14.2819
-14.306
-14.3299
-14.3539
-14.3779
-14.4024
-14.4274
-14.4535
-14.4811
-14.5107
-14.5433
-14.5781
-13.7526
-13.7449
-13.7604
-13.7852
-13.8107
-13.8392
-13.8691
-13.8993
-13.9295
-13.9597
-13.9893
-14.0185
-14.047
-14.075
-14.1023
-14.129
-14.1551
-14.1807
-14.2058
-14.2305
-14.2548
-14.2789
-14.3028
-14.3266
-14.3504
-14.3744
-14.3988
-14.4238
-14.4497
-14.4768
-14.5055
-14.5361
-14.5681
-13.7655
-13.7616
-13.7739
-13.7956
-13.8199
-13.847
-13.8757
-13.9048
-13.9339
-13.963
-13.9917
-14.02
-14.0478
-14.0751
-14.1018
-14.128
-14.1537
-14.1788
-14.2036
-14.2279
-14.252
-14.2758
-14.2995
-14.3231
-14.3467
-14.3705
-14.3947
-14.4194
-14.4449
-14.4714
-14.4989
-14.5277
-14.5572
-13.7789
-13.7783
-13.7898
-13.8094
-13.8318
-13.8569
-13.8836
-13.9111
-13.9388
-13.9667
-13.9943
-14.0217
-14.0487
-14.0752
-14.1013
-14.1269
-14.152
-14.1767
-14.2011
-14.2251
-14.2488
-14.2723
-14.2956
-14.319
-14.3423
-14.3659
-14.3897
-14.414
-14.4389
-14.4645
-14.4908
-14.5179
-14.5453
-13.7923
-13.7934
-13.8039
-13.8215
-13.8423
-13.8656
-13.8908
-13.9169
-13.9434
-13.9702
-13.9968
-14.0233
-14.0495
-14.0753
-14.1007
-14.1257
-14.1503
-14.1745
-14.1984
-14.222
-14.2453
-14.2685
-14.2915
-14.3145
-14.3375
-14.3606
-14.384
-14.4078
-14.4319
-14.4566
-14.4817
-14.5072
-14.5328
-13.8054
-13.8074
-13.8173
-13.8334
-13.8526
-13.8744
-13.8981
-13.9228
-13.9481
-13.9737
-13.9993
-14.0249
-14.0502
-14.0753
-14.1
-14.1244
-14.1485
-14.1722
-14.1956
-14.2187
-14.2416
-14.2643
-14.287
-14.3095
-14.3321
-14.3548
-14.3776
-14.4007
-14.4241
-14.4477
-14.4716
-14.4957
-14.5196
-13.818
-13.8205
-13.8298
-13.8446
-13.8624
-13.8828
-13.9051
-13.9285
-13.9526
-13.9771
-14.0017
-14.0264
-14.0509
-14.0752
-14.0993
-14.123
-14.1465
-14.1697
-14.1926
-14.2152
-14.2376
-14.2599
-14.2821
-14.3042
-14.3262
-14.3483
-14.3706
-14.3929
-14.4154
-14.4381
-14.4608
-14.4836
-14.5061
-13.8301
-13.8328
-13.8416
-13.8552
-13.8718
-13.8909
-13.9118
-13.934
-13.9569
-13.9804
-14.004
-14.0278
-14.0515
-14.075
-14.0984
-14.1215
-14.1444
-14.167
-14.1893
-14.2115
-14.2334
-14.2552
-14.2768
-14.2984
-14.3199
-14.3414
-14.3629
-14.3845
-14.4061
-14.4278
-14.4494
-14.4709
-14.4921
-13.8416
-13.8442
-13.8525
-13.8651
-13.8807
-13.8985
-13.9182
-13.9392
-13.9611
-13.9835
-14.0062
-14.0291
-14.052
-14.0748
-14.0974
-14.1199
-14.1421
-14.1641
-14.1859
-14.2075
-14.2289
-14.2501
-14.2712
-14.2922
-14.3131
-14.3339
-14.3547
-14.3755
-14.3962
-14.4169
-14.4374
-14.4577
-14.4777
-13.8523
-13.8549
-13.8628
-13.8745
-13.889
-13.9057
-13.9243
-13.9442
-13.965
-13.9864
-14.0082
-14.0302
-14.0523
-14.0743
-14.0963
-14.118
-14.1396
-14.1611
-14.1823
-14.2033
-14.2241
-14.2447
-14.2652
-14.2856
-14.3058
-14.3259
-14.346
-14.3659
-14.3857
-14.4054
-14.4249
-14.444
-14.4629
-13.8623
-13.8648
-13.8722
-13.8832
-13.8967
-13.9125
-13.93
-13.9489
-13.9686
-13.9891
-14.01
-14.0311
-14.0524
-14.0737
-14.0949
-14.116
-14.137
-14.1578
-14.1784
-14.1988
-14.219
-14.239
-14.2589
-14.2786
-14.2981
-14.3175
-14.3367
-14.3558
-14.3747
-14.3934
-14.4119
-14.43
-14.4477
-13.8716
-13.874
-13.881
-13.8912
-13.9039
-13.9187
-13.9353
-13.9532
-13.972
-13.9915
-14.0115
-14.0319
-14.0524
-14.0729
-14.0934
-14.1138
-14.1341
-14.1543
-14.1742
-14.194
-14.2136
-14.233
-14.2522
-14.2712
-14.29
-14.3086
-14.3271
-14.3453
-14.3633
-14.381
-14.3984
-14.4155
-14.4322
-13.8801
-13.8824
-13.8889
-13.8985
-13.9104
-13.9244
-13.9401
-13.957
-13.975
-13.9936
-14.0128
-14.0323
-14.052
-14.0719
-14.0917
-14.1114
-14.131
-14.1505
-14.1698
-14.1889
-14.2079
-14.2266
-14.2451
-14.2634
-14.2815
-14.2993
-14.317
-14.3343
-14.3514
-14.3682
-14.3846
-14.4007
-14.4164
-13.8878
-13.8899
-13.8961
-13.9051
-13.9164
-13.9295
-13.9444
-13.9605
-13.9776
-13.9954
-14.0138
-14.0325
-14.0515
-14.0706
-14.0897
-14.1087
-14.1277
-14.1465
-14.1651
-14.1836
-14.2019
-14.2199
-14.2377
-14.2553
-14.2726
-14.2897
-14.3065
-14.323
-14.3391
-14.355
-14.3705
-14.3856
-14.4002
-13.8947
-13.8967
-13.9025
-13.911
-13.9216
-13.9341
-13.9481
-13.9634
-13.9797
-13.9968
-14.0144
-14.0324
-14.0506
-14.069
-14.0874
-14.1058
-14.1241
-14.1422
-14.1602
-14.178
-14.1956
-14.2129
-14.23
-14.2468
-14.2634
-14.2797
-14.2956
-14.3113
-14.3265
-14.3415
-14.356
-14.3701
-14.3838
-13.9008
-13.9027
-13.9081
-13.9162
-13.9262
-13.938
-13.9513
-13.9659
-13.9814
-13.9978
-14.0146
-14.0319
-14.0494
-14.0671
-14.0848
-14.1025
-14.1202
-14.1377
-14.155
-14.1721
-14.189
-14.2056
-14.222
-14.2381
-14.2539
-14.2693
-14.2845
-14.2992
-14.3136
-14.3277
-14.3413
-14.3544
-14.3671
-13.906
-13.9078
-13.9129
-13.9205
-13.93
-13.9412
-13.9539
-13.9678
-13.9827
-13.9983
-14.0145
-14.0311
-14.0479
-14.0649
-14.082
-14.0991
-14.116
-14.1329
-14.1495
-14.166
-14.1822
-14.1981
-14.2137
-14.2291
-14.2441
-14.2587
-14.273
-14.287
-14.3005
-14.3136
-14.3263
-14.3385
-14.3503
-13.9103
-13.912
-13.9169
-13.924
-13.933
-13.9437
-13.9558
-13.9691
-13.9833
-13.9983
-14.0138
-14.0298
-14.046
-14.0624
-14.0788
-14.0952
-14.1115
-14.1277
-14.1437
-14.1595
-14.175
-14.1902
-14.2052
-14.2197
-14.234
-14.2479
-14.2614
-14.2744
-14.2871
-14.2994
-14.3111
-14.3225
-14.3333
-13.9137
-13.9153
-13.9199
-13.9268
-13.9353
-13.9455
-13.9571
-13.9698
-13.9835
-13.9979
-14.0128
-14.0282
-14.0438
-14.0596
-14.0754
-14.0912
-14.1069
-14.1224
-14.1378
-14.1529
-14.1677
-14.1823
-14.1965
-14.2103
-14.2238
-14.2369
-14.2496
-14.2618
-14.2737
-14.285
-14.2959
-14.3064
-14.3163
-13.9162
-13.9177
-13.922
-13.9285
-13.9366
-13.9463
-13.9574
-13.9696
-13.9828
-13.9966
-14.011
-14.0258
-14.0409
-14.0561
-14.0714
-14.0866
-14.1017
-14.1166
-14.1314
-14.1458
-14.16
-14.1739
-14.1874
-14.2005
-14.2133
-14.2256
-14.2375
-14.249
-14.26
-14.2705
-14.2806
-14.2901
-14.2992
-13.9177
-13.9191
-13.9234
-13.9296
-13.9375
-13.9469
-13.9576
-13.9694
-13.9821
-13.9955
-14.0094
-14.0237
-14.0382
-14.0529
-14.0676
-14.0822
-14.0967
-14.1111
-14.1252
-14.139
-14.1525
-14.1657
-14.1785
-14.1909
-14.2029
-14.2145
-14.2256
-14.2363
-14.2465
-14.2562
-14.2654
-14.2741
-14.2823
-13.9181
-13.9194
-13.9232
-13.929
-13.9363
-13.9452
-13.9556
-13.967
-13.9793
-13.9923
-14.0058
-14.0197
-14.0338
-14.0481
-14.0623
-14.0765
-14.0905
-14.1043
-14.1179
-14.1312
-14.1441
-14.1567
-14.1689
-14.1807
-14.192
-14.2029
-14.2133
-14.2232
-14.2327
-14.2416
-14.25
-14.258
-14.2654
-13.9177
-13.9193
-13.9233
-13.9291
-13.9365
-13.9454
-13.9555
-13.9667
-13.9786
-13.9913
-14.0044
-14.0178
-14.0314
-14.0451
-14.0588
-14.0724
-14.0858
-14.099
-14.112
-14.1246
-14.1369
-14.1488
-14.1603
-14.1713
-14.1819
-14.1921
-14.2017
-14.2109
-14.2196
-14.2277
-14.2353
-14.2424
-14.249
-13.9157
-13.9163
-13.9191
-13.9239
-13.9306
-13.9389
-13.9487
-13.9597
-13.9716
-13.9842
-13.9973
-14.0106
-14.0242
-14.0377
-14.0513
-14.0647
-14.0778
-14.0908
-14.1034
-14.1156
-14.1275
-14.139
-14.15
-14.1605
-14.1706
-14.1801
-14.1892
-14.1977
-14.2057
-14.2132
-14.2202
-14.2266
-14.2325
-13.9145
-13.917
-13.9213
-13.9271
-13.9342
-13.9427
-13.9523
-13.9629
-13.9742
-13.9862
-13.9985
-14.0112
-14.024
-14.0368
-14.0496
-14.0623
-14.0747
-14.0869
-14.0987
-14.1103
-14.1214
-14.1321
-14.1423
-14.1521
-14.1615
-14.1703
-14.1786
-14.1863
-14.1936
-14.2003
-14.2065
-14.2121
-14.2172
-13.9065
-13.9045
-13.9046
-13.9081
-13.9145
-13.9232
-13.9335
-13.9451
-13.9575
-13.9705
-13.9839
-13.9974
-14.0109
-14.0244
-14.0377
-14.0507
-14.0634
-14.0758
-14.0877
-14.0992
-14.1103
-14.1209
-14.1309
-14.1404
-14.1494
-14.1579
-14.1658
-14.1731
-14.1799
-14.1861
-14.1918
-14.1969
-14.2014
-13.9134
-13.9198
-13.9254
-13.9303
-13.9359
-13.9429
-13.9513
-13.9608
-13.9712
-13.9822
-13.9937
-14.0054
-14.0173
-14.0292
-14.041
-14.0527
-14.0642
-14.0754
-14.0862
-14.0967
-14.1067
-14.1163
-14.1254
-14.134
-14.1422
-14.1498
-14.1568
-14.1633
-14.1693
-14.1747
-14.1796
-14.1839
-14.1877
-13.8816
-13.8682
-13.8632
-13.868
-13.8777
-13.8899
-13.9036
-13.9181
-13.9332
-13.9484
-13.9635
-13.9784
-13.993
-14.0072
-14.021
-14.0343
-14.0471
-14.0594
-14.0711
-14.0823
-14.0929
-14.1029
-14.1123
-14.1211
-14.1294
-14.137
-14.144
-14.1504
-14.1562
-14.1614
-14.166
-14.17
-14.1734
-13.9348
-13.955
-13.959
-13.9542
-13.9516
-13.9535
-13.9584
-13.965
-13.973
-13.9821
-13.9919
-14.0021
-14.0127
-14.0234
-14.0341
-14.0447
-14.055
-14.0652
-14.0749
-14.0844
-14.0933
-14.1019
-14.11
-14.1175
-14.1246
-14.1311
-14.1371
-14.1425
-14.1474
-14.1517
-14.1554
-14.1586
-14.1612
-13.8119
-13.7624
-13.7506
-13.7766
-13.8041
-13.8279
-13.8513
-13.8739
-13.8954
-13.9157
-13.9349
-13.953
-13.9701
-13.9863
-14.0016
-14.016
-14.0296
-14.0424
-14.0545
-14.0658
-14.0764
-14.0863
-14.0955
-14.1039
-14.1117
-14.1188
-14.1253
-14.131
-14.1361
-14.1406
-14.1444
-14.1475
-14.1501
-14.0598
-14.0945
-14.0634
-14.0205
-13.9915
-13.9803
-13.9771
-13.9775
-13.9807
-13.9862
-13.9932
-14.0012
-14.0098
-14.0188
-14.0281
-14.0373
-14.0465
-14.0555
-14.0642
-14.0726
-14.0806
-14.0882
-14.0954
-14.1021
-14.1082
-14.1139
-14.119
-14.1235
-14.1276
-14.131
-14.1339
-14.1363
-14.1381
-13.5675
-13.4478
-13.51
-13.6114
-13.6851
-13.7364
-13.7795
-13.8173
-13.8499
-13.8786
-13.9041
-13.9271
-13.9479
-13.9669
-13.9844
-14.0005
-14.0153
-14.0291
-14.0418
-14.0535
-14.0643
-14.0743
-14.0834
-14.0918
-14.0993
-14.1061
-14.1122
-14.1175
-14.1221
-14.1261
-14.1293
-14.1319
-14.1338
-14.7818
-14.4428
-14.179
-14.0615
-14.0113
-13.9856
-13.9701
-13.9635
-13.9631
-13.9665
-13.9723
-13.9798
-13.9883
-13.9974
-14.0068
-14.0164
-14.0258
-14.0351
-14.0441
-14.0528
-14.061
-14.0688
-14.0761
-14.0829
-14.0891
-14.0948
-14.0999
-14.1044
-14.1084
-14.1117
-14.1145
-14.1167
-14.1184
-12.2781
-12.9847
-13.389
-13.5412
-13.6455
-13.7275
-13.7866
-13.831
-13.8669
-13.8966
-13.9216
-13.9433
-13.9626
-13.9798
-13.9955
-14.0098
-14.023
-14.0352
-14.0465
-14.0568
-14.0664
-14.0752
-14.0832
-14.0905
-14.0971
-14.103
-14.1082
-14.1127
-14.1165
-14.1197
-14.1222
-14.1241
-14.1254
-14.3357
-14.5754
-14.7201
-14.8088
-14.8684
-14.9112
-14.9468
-14.9842
-15.0297
-15.0848
-15.149
-15.221
-15.2988
-15.38
-15.4619
-15.5422
-15.619
-15.6905
-15.7555
-15.813
-15.8624
-15.9031
-15.9348
-15.9572
-15.97
-15.9727
-15.9649
-15.946
-15.9151
-15.8714
-15.814
-15.7416
-15.6534
-15.5481
-15.4247
-15.2819
-15.1189
-14.9345
-14.728
-14.4986
-14.2457
-13.969
-13.6683
-13.3439
-12.9963
-12.6264
-12.2353
-11.8249
-11.3971
-10.9544
-10.4995
-10.0354
-9.56554
-9.09324
-8.62206
-8.15548
-7.69691
-7.24955
-6.81634
-6.39985
-6.00226
-5.6253
-5.27019
-4.9377
-4.62805
-4.34102
-4.07594
-3.83171
-3.60689
-3.39973
-3.20823
-3.03023
-2.86343
-2.70552
-2.55422
-2.40734
-2.26288
-2.11909
-1.97454
-1.82819
-1.67948
-1.52834
-1.37529
-1.22139
-1.06826
-0.918014
-0.773087
-0.636072
-0.509416
-0.395251
-0.295043
-0.209859
-0.13957
-0.0846304
-0.042383
-0.0155474
0.00629223
0.00498505
0.0272771
-0.0268354
-14.9396
-15.0747
-15.0084
-14.9417
-14.907
-14.8825
-14.8782
-14.8911
-14.9246
-14.978
-15.0472
-15.1281
-15.2163
-15.3076
-15.3981
-15.4849
-15.5656
-15.6387
-15.7035
-15.7595
-15.8067
-15.8449
-15.8741
-15.8943
-15.905
-15.9059
-15.8965
-15.8759
-15.8436
-15.7985
-15.7397
-15.6662
-15.5769
-15.4707
-15.3466
-15.2035
-15.0404
-14.8563
-14.6505
-14.4221
-14.1708
-13.8962
-13.5981
-13.2769
-12.933
-12.5674
-12.1812
-11.7762
-11.3542
-10.9177
-10.4693
-10.012
-9.5489
-9.08337
-8.6188
-8.15858
-7.70602
-7.26421
-6.836
-6.42392
-6.03008
-5.65616
-5.3034
-4.97253
-4.66383
-4.37712
-4.11177
-3.86678
-3.64078
-3.43211
-3.23887
-3.05897
-2.89019
-2.7303
-2.57706
-2.42833
-2.28216
-2.13683
-1.99094
-1.84348
-1.69391
-1.54219
-1.38883
-1.23493
-1.08209
-0.932387
-0.788174
-0.651912
-0.525884
-0.412084
-0.311847
-0.226238
-0.155025
-0.0988997
-0.0548209
-0.0264577
-0.00162502
-0.00224407
0.0257687
-0.0321467
-14.6335
-14.6365
-14.659
-14.7124
-14.7708
-14.8231
-14.8601
-14.8983
-14.9429
-14.9938
-15.0516
-15.1165
-15.1872
-15.2618
-15.3381
-15.4141
-15.4878
-15.5574
-15.6214
-15.6784
-15.7274
-15.7677
-15.7986
-15.8199
-15.831
-15.8317
-15.8215
-15.7999
-15.7662
-15.7196
-15.6594
-15.5846
-15.4942
-15.3871
-15.2624
-15.1189
-14.9559
-14.7722
-14.5672
-14.3402
-14.0907
-13.8184
-13.5232
-13.2055
-12.8656
-12.5046
-12.1235
-11.7241
-11.3081
-10.878
-10.4363
-9.98579
-9.52964
-9.07106
-8.61332
-8.15973
-7.71347
-7.27753
-6.85469
-6.44737
-6.05762
-5.68709
-5.33696
-5.00798
-4.70043
-4.41418
-4.14866
-3.90293
-3.67572
-3.46545
-3.27033
-3.08835
-2.91739
-2.7553
-2.59989
-2.44912
-2.30106
-2.15404
-2.0067
-1.85809
-1.70767
-1.55543
-1.40192
-1.24821
-1.09588
-0.94693
-0.803589
-0.668168
-0.542792
-0.429337
-0.329039
-0.242969
-0.170803
-0.113461
-0.0675327
-0.0376036
-0.00977836
-0.00960807
0.0239978
-0.0373756
-14.6899
-14.8063
-14.8696
-14.8896
-14.8966
-14.8939
-14.8903
-14.9038
-14.9349
-14.9766
-15.0293
-15.0919
-15.1614
-15.2349
-15.3094
-15.3822
-15.4513
-15.5149
-15.5721
-15.6221
-15.6643
-15.6986
-15.7244
-15.7416
-15.7496
-15.7479
-15.7358
-15.7128
-15.678
-15.6305
-15.5695
-15.4939
-15.4028
-15.2953
-15.1702
-15.0267
-14.8639
-14.6808
-14.4768
-14.2512
-14.0037
-13.7338
-13.4417
-13.1275
-12.7917
-12.4354
-12.0596
-11.6659
-11.2562
-10.8327
-10.3979
-9.95464
-9.50584
-9.05463
-8.60419
-8.15766
-7.71814
-7.28851
-6.87143
-6.46924
-6.08394
-5.7171
-5.36989
-5.04306
-4.7369
-4.45131
-4.18577
-3.93942
-3.71105
-3.49921
-3.30216
-3.11802
-2.94478
-2.78034
-2.62263
-2.46967
-2.3196
-2.17081
-2.022
-1.87224
-1.72105
-1.56843
-1.41492
-1.26158
-1.10993
-0.961846
-0.819439
-0.684869
-0.560119
-0.446972
-0.346575
-0.260014
-0.186872
-0.128294
-0.080502
-0.0489735
-0.0181611
-0.0171104
0.0219837
-0.0425419
-14.6504
-14.6974
-14.7116
-14.725
-14.7496
-14.7821
-14.8243
-14.8665
-14.9081
-14.9557
-15.0101
-15.0702
-15.1343
-15.2006
-15.2675
-15.3332
-15.3962
-15.4552
-15.5089
-15.5564
-15.5968
-15.6293
-15.6534
-15.6686
-15.6742
-15.67
-15.6552
-15.6294
-15.5918
-15.5417
-15.4782
-15.4006
-15.3077
-15.1987
-15.0727
-14.9286
-14.7655
-14.5828
-14.3796
-14.1554
-13.9097
-13.6423
-13.3533
-13.0428
-12.7115
-12.3601
-11.9898
-11.6022
-11.1991
-10.7826
-10.3552
-9.91958
-9.47853
-9.03509
-8.59231
-8.15323
-7.7208
-7.2978
-6.88677
-6.48998
-6.10933
-5.74638
-5.40227
-5.07772
-4.77307
-4.48825
-4.22279
-3.97589
-3.74644
-3.53305
-3.33411
-3.1478
-2.97223
-2.8054
-2.64534
-2.49013
-2.33801
-2.18745
-2.03718
-1.88633
-1.73444
-1.58155
-1.42817
-1.27531
-1.12441
-0.977233
-0.835751
-0.701995
-0.577826
-0.464943
-0.364413
-0.277334
-0.2032
-0.143365
-0.0937011
-0.0605404
-0.02675
-0.0247263
0.019753
-0.0476303
-14.637
-14.6944
-14.741
-14.7801
-14.8142
-14.8389
-14.8516
-14.8762
-14.9089
-14.9488
-14.9959
-15.0492
-15.1071
-15.1681
-15.23
-15.291
-15.3494
-15.4037
-15.4527
-15.4954
-15.5311
-15.5592
-15.5791
-15.5905
-15.5929
-15.5856
-15.5682
-15.54
-15.5002
-15.4481
-15.3828
-15.3035
-15.2092
-15.099
-14.9719
-14.8272
-14.664
-14.4815
-14.2791
-14.0561
-13.8123
-13.5475
-13.2615
-12.9549
-12.6279
-12.2817
-11.9171
-11.5358
-11.1396
-10.7304
-10.3107
-9.88292
-9.44993
-9.01455
-8.57971
-8.14829
-7.72313
-7.30689
-6.90201
-6.51067
-6.13473
-5.7757
-5.43469
-5.11245
-4.80932
-4.52528
-4.25991
-4.01248
-3.78197
-3.56705
-3.36622
-3.17776
-2.99986
-2.83064
-2.66821
-2.51076
-2.3566
-2.20427
-2.05258
-1.90069
-1.74819
-1.5951
-1.4419
-1.28955
-1.1394
-0.993098
-0.852495
-0.719502
-0.595866
-0.483209
-0.382518
-0.294901
-0.219762
-0.158656
-0.107114
-0.0722893
-0.0355331
-0.0324436
0.0173203
-0.0526372
-14.6213
-14.668
-14.7029
-14.7284
-14.7504
-14.7765
-14.8101
-14.8439
-14.8816
-14.9238
-14.9709
-15.0223
-15.077
-15.1335
-15.1904
-15.2461
-15.2992
-15.3485
-15.3929
-15.4315
-15.4636
-15.4883
-15.5052
-15.5136
-15.513
-15.5029
-15.4827
-15.4517
-15.4093
-15.3546
-15.287
-15.2056
-15.1094
-14.9977
-14.8696
-14.7242
-14.5608
-14.3785
-14.1769
-13.9553
-13.7135
-13.4513
-13.1686
-12.8659
-12.5437
-12.2027
-11.8442
-11.4694
-11.0802
-10.6785
-10.2666
-9.84693
-9.42207
-8.99478
-8.56785
-8.14406
-7.7261
-7.31654
-6.91773
-6.53178
-6.16048
-5.8053
-5.46736
-5.1474
-4.84578
-4.56251
-4.29724
-4.0493
-3.81773
-3.60131
-3.39861
-3.20801
-3.02781
-2.85622
-2.69144
-2.53177
-2.37559
-2.22153
-2.06845
-1.91557
-1.76247
-1.60919
-1.45617
-1.30431
-1.15487
-1.0094
-0.869621
-0.737341
-0.614197
-0.501736
-0.400863
-0.312694
-0.236542
-0.17415
-0.120727
-0.0842071
-0.0444994
-0.0402518
0.0147004
-0.0575618
-14.6065
-14.6491
-14.6859
-14.7183
-14.7505
-14.7785
-14.8068
-14.8366
-14.8703
-14.9085
-14.9513
-14.9979
-15.0476
-15.099
-15.1508
-15.2016
-15.25
-15.2947
-15.3348
-15.3693
-15.3974
-15.4184
-15.4316
-15.4367
-15.4329
-15.4197
-15.3966
-15.363
-15.318
-15.261
-15.1913
-15.1079
-15.0101
-14.8971
-14.768
-14.622
-14.4584
-14.2765
-14.0757
-13.8556
-13.6159
-13.3564
-13.0771
-12.7785
-12.461
-12.1254
-11.7728
-11.4046
-11.0224
-10.6281
-10.224
-9.81217
-9.39529
-8.97594
-8.55678
-8.14046
-7.72957
-7.32656
-6.93371
-6.55305
-6.18631
-5.83495
-5.50005
-5.18235
-4.88224
-4.59976
-4.33462
-4.08621
-3.85363
-3.63575
-3.43122
-3.23854
-3.05608
-2.88216
-2.71508
-2.55322
-2.39507
-2.2393
-2.08486
-1.93098
-1.7773
-1.62381
-1.47096
-1.31955
-1.17077
-1.02608
-0.887081
-0.755473
-0.63279
-0.520499
-0.419429
-0.330695
-0.253523
-0.189834
-0.134527
-0.0962813
-0.0536377
-0.048141
0.0119078
-0.0624038
-14.5918
-14.6304
-14.6651
-14.6957
-14.7239
-14.7522
-14.7813
-14.8126
-14.8468
-14.8844
-14.9253
-14.9692
-15.0153
-15.0626
-15.1099
-15.1561
-15.1998
-15.2401
-15.2759
-15.3063
-15.3305
-15.3479
-15.3579
-15.3597
-15.3529
-15.3369
-15.3111
-15.2748
-15.2273
-15.1681
-15.0962
-15.011
-14.9116
-14.7973
-14.6673
-14.5208
-14.3571
-14.1757
-13.9759
-13.7573
-13.5197
-13.263
-12.9872
-12.6926
-12.3798
-12.0495
-11.7029
-11.3411
-10.9659
-10.5789
-10.1823
-9.77826
-9.36922
-8.95764
-8.54609
-8.1371
-7.73314
-7.33658
-6.9496
-6.57415
-6.21193
-5.86435
-5.53247
-5.21704
-4.91846
-4.63681
-4.37184
-4.123
-3.88947
-3.67019
-3.46391
-3.26921
-3.08456
-2.90837
-2.73904
-2.57505
-2.41496
-2.25752
-2.10173
-1.94689
-1.79261
-1.63892
-1.48619
-1.33521
-1.18705
-1.0431
-0.904841
-0.773873
-0.651622
-0.539482
-0.438199
-0.34889
-0.270692
-0.205694
-0.148503
-0.1085
-0.0629369
-0.0561019
0.00895706
-0.0671635
-14.5771
-14.6127
-14.646
-14.6766
-14.706
-14.735
-14.7642
-14.7946
-14.8272
-14.8624
-14.9004
-14.9407
-14.9828
-15.0258
-15.0687
-15.1103
-15.1496
-15.1855
-15.2171
-15.2435
-15.264
-15.2778
-15.2843
-15.283
-15.2731
-15.2542
-15.2256
-15.1867
-15.1369
-15.0754
-15.0015
-14.9146
-14.8137
-14.6983
-14.5674
-14.4206
-14.2569
-14.076
-13.8772
-13.6603
-13.4249
-13.1709
-12.8986
-12.608
-12.2999
-11.9749
-11.6341
-11.2787
-10.9102
-10.5304
-10.1413
-9.74487
-9.34352
-8.93958
-8.5355
-8.13371
-7.73658
-7.34636
-6.96516
-6.59487
-6.23713
-5.8933
-5.56444
-5.25129
-4.95427
-4.67349
-4.40874
-4.15954
-3.92512
-3.70452
-3.49656
-3.2999
-3.11313
-2.93474
-2.76323
-2.59716
-2.43518
-2.27611
-2.11901
-1.96321
-1.80835
-1.65443
-1.50182
-1.35123
-1.20368
-1.06043
-0.922882
-0.792524
-0.670682
-0.558672
-0.457164
-0.367268
-0.288039
-0.22172
-0.162644
-0.120854
-0.0723864
-0.0641261
0.00586228
-0.0718424
-14.5622
-14.5953
-14.627
-14.6568
-14.6855
-14.7138
-14.7424
-14.7721
-14.8036
-14.8371
-14.8726
-14.91
-14.9486
-14.9878
-15.0265
-15.0639
-15.0989
-15.1306
-15.1581
-15.1807
-15.1974
-15.2077
-15.2109
-15.2063
-15.1935
-15.1717
-15.1404
-15.099
-15.0468
-14.9832
-14.9074
-14.8187
-14.7165
-14.5999
-14.4684
-14.3212
-14.1576
-13.9773
-13.7796
-13.5643
-13.3311
-13.08
-12.8111
-12.5246
-12.2211
-11.9013
-11.5663
-11.2171
-10.8553
-10.4826
-10.1007
-9.71183
-9.31801
-8.92158
-8.52485
-8.13014
-7.73972
-7.35576
-6.98027
-6.61509
-6.26178
-5.92169
-5.59585
-5.285
-4.98957
-4.7097
-4.44523
-4.19572
-3.96049
-3.73864
-3.52907
-3.33054
-3.14172
-2.9612
-2.78758
-2.61949
-2.45567
-2.29502
-2.13664
-1.9799
-1.82447
-1.67033
-1.51783
-1.36761
-1.22063
-1.07806
-0.941193
-0.811417
-0.689961
-0.578062
-0.476315
-0.38582
-0.305553
-0.237902
-0.176939
-0.133332
-0.0819761
-0.0722062
0.00263697
-0.0764425
-14.5472
-14.5781
-14.6082
-14.6371
-14.6652
-14.693
-14.721
-14.7498
-14.7798
-14.8113
-14.8443
-14.8786
-14.9138
-14.9491
-14.9838
-15.0171
-15.048
-15.0756
-15.0992
-15.1179
-15.131
-15.1378
-15.1376
-15.1299
-15.1141
-15.0895
-15.0556
-15.0117
-14.9572
-14.8915
-14.8138
-14.7235
-14.6199
-14.5023
-14.3701
-14.2226
-14.0593
-13.8796
-13.6831
-13.4694
-13.2385
-12.9902
-12.7246
-12.4422
-12.1433
-11.8286
-11.4993
-11.1563
-10.8011
-10.4353
-10.0606
-9.67902
-9.29262
-8.90355
-8.51404
-8.12629
-7.74249
-7.36469
-6.99485
-6.63471
-6.28581
-5.94944
-5.62662
-5.31809
-5.02429
-4.74538
-4.48124
-4.23149
-3.99552
-3.77249
-3.56139
-3.36108
-3.17029
-2.98772
-2.81205
-2.642
-2.4764
-2.31421
-2.15459
-1.99694
-1.84094
-1.68659
-1.53419
-1.38433
-1.2379
-1.09598
-0.959766
-0.830546
-0.70945
-0.597643
-0.495642
-0.404537
-0.323227
-0.25423
-0.191381
-0.145926
-0.0916962
-0.0803355
-0.000705969
-0.0809664
-14.5319
-14.561
-14.5895
-14.6173
-14.6444
-14.6713
-14.6983
-14.7259
-14.7544
-14.7839
-14.8146
-14.846
-14.8779
-14.9096
-14.9406
-14.9699
-14.9968
-15.0205
-15.0402
-15.0552
-15.0647
-15.0681
-15.0646
-15.0538
-15.0351
-15.0077
-14.9711
-14.9248
-14.8681
-14.8003
-14.7208
-14.6289
-14.5241
-14.4055
-14.2727
-14.125
-13.9619
-13.7829
-13.5875
-13.3756
-13.1469
-12.9014
-12.6393
-12.3608
-12.0664
-11.7569
-11.4331
-11.0962
-10.7474
-10.3884
-10.0208
-9.64641
-9.26728
-8.88545
-8.50302
-8.12212
-7.74482
-7.3731
-7.00883
-6.65368
-6.30915
-5.97649
-5.6567
-5.3505
-5.05836
-4.78046
-4.51671
-4.2668
-4.03016
-3.80604
-3.59349
-3.39147
-3.19879
-3.01424
-2.8366
-2.66467
-2.49735
-2.33367
-2.17285
-2.01431
-1.85777
-1.70321
-1.5509
-1.40139
-1.25548
-1.11418
-0.978596
-0.849904
-0.729145
-0.617409
-0.51514
-0.423412
-0.341052
-0.270697
-0.20596
-0.158629
-0.101538
-0.088508
-0.00415439
-0.0854171
-14.5163
-14.5437
-14.5708
-14.5973
-14.6233
-14.6492
-14.6751
-14.7014
-14.7282
-14.7557
-14.7839
-14.8126
-14.8413
-14.8696
-14.8969
-14.9224
-14.9455
-14.9654
-14.9814
-14.9927
-14.9987
-14.9986
-14.992
-14.9781
-14.9564
-14.9263
-14.8872
-14.8385
-14.7795
-14.7097
-14.6285
-14.5351
-14.429
-14.3096
-14.1763
-14.0284
-13.8655
-13.6872
-13.4931
-13.2829
-13.0564
-12.8137
-12.555
-12.2804
-11.9905
-11.686
-11.3677
-11.0367
-10.6943
-10.342
-9.98127
-9.61397
-9.24197
-8.86723
-8.49177
-8.11759
-7.74669
-7.38096
-7.02217
-6.67197
-6.33177
-6.0028
-5.68603
-5.38219
-5.09174
-4.8149
-4.55161
-4.3016
-4.06437
-3.83923
-3.62533
-3.42167
-3.2272
-3.04076
-2.86122
-2.68748
-2.5185
-2.35338
-2.19139
-2.03201
-1.87494
-1.72017
-1.56795
-1.41877
-1.27337
-1.13267
-0.997675
-0.869484
-0.749038
-0.637354
-0.534801
-0.442438
-0.359021
-0.287296
-0.22067
-0.171433
-0.111493
-0.0967186
-0.00769704
-0.0897976
-14.5005
-14.5263
-14.5518
-14.577
-14.6019
-14.6266
-14.6512
-14.676
-14.7011
-14.7266
-14.7524
-14.7783
-14.8039
-14.8289
-14.8527
-14.8747
-14.8941
-14.9103
-14.9226
-14.9304
-14.9329
-14.9296
-14.9198
-14.9029
-14.8783
-14.8455
-14.8038
-14.7528
-14.6916
-14.6199
-14.5369
-14.4421
-14.3349
-14.2146
-14.0808
-13.9328
-13.7702
-13.5927
-13.3998
-13.1913
-12.9671
-12.7272
-12.4718
-12.2011
-11.9156
-11.616
-11.3031
-10.978
-10.6418
-10.296
-9.94206
-9.58169
-9.21668
-8.84889
-8.48025
-8.11268
-7.74806
-7.38821
-7.03485
-6.68953
-6.35362
-6.02832
-5.71458
-5.41311
-5.12439
-4.84865
-4.58587
-4.33584
-4.09809
-3.87203
-3.65685
-3.45166
-3.25547
-3.06723
-2.88588
-2.71039
-2.53982
-2.37332
-2.21021
-2.05
-1.89243
-1.73746
-1.58532
-1.43646
-1.29155
-1.15142
-1.01699
-0.889277
-0.769121
-0.657468
-0.554619
-0.461607
-0.377129
-0.30402
-0.235504
-0.184332
-0.121553
-0.104963
-0.0113238
-0.0941112
-14.4843
-14.5086
-14.5327
-14.5566
-14.5801
-14.6035
-14.6267
-14.6499
-14.6732
-14.6966
-14.7201
-14.7433
-14.766
-14.7878
-14.8083
-14.8267
-14.8426
-14.8553
-14.8641
-14.8684
-14.8676
-14.861
-14.848
-14.8282
-14.8008
-14.7653
-14.7212
-14.6678
-14.6046
-14.5309
-14.4463
-14.3501
-14.2417
-14.1207
-13.9864
-13.8383
-13.6761
-13.4993
-13.3077
-13.1009
-12.879
-12.6419
-12.3897
-12.1228
-11.8417
-11.547
-11.2394
-10.92
-10.5899
-10.2505
-9.90317
-9.54957
-9.19139
-8.83042
-8.46846
-8.10736
-7.74891
-7.39485
-7.04682
-6.70632
-6.37467
-6.05301
-5.74229
-5.44321
-5.15625
-4.88166
-4.61946
-4.36947
-4.13129
-3.90438
-3.68802
-3.48139
-3.28357
-3.09361
-2.91052
-2.73337
-2.56127
-2.39345
-2.22927
-2.06828
-1.91022
-1.75506
-1.603
-1.45445
-1.31
-1.17042
-1.03654
-0.909274
-0.789386
-0.677746
-0.574586
-0.480916
-0.395369
-0.320865
-0.250458
-0.197323
-0.131714
-0.113237
-0.0150256
-0.0983607
-14.4679
-14.4907
-14.5134
-14.5358
-14.558
-14.5799
-14.6016
-14.6232
-14.6447
-14.666
-14.6871
-14.7077
-14.7276
-14.7464
-14.7636
-14.7787
-14.7911
-14.8004
-14.8058
-14.8067
-14.8026
-14.7929
-14.7769
-14.7541
-14.724
-14.6859
-14.6393
-14.5836
-14.5183
-14.4429
-14.3566
-14.2591
-14.1497
-14.0279
-13.8932
-13.7451
-13.5832
-13.4073
-13.2169
-13.0118
-12.7921
-12.5578
-12.3089
-12.0458
-11.7689
-11.4789
-11.1765
-10.8627
-10.5386
-10.2054
-9.8646
-9.51762
-9.16613
-8.8118
-8.45639
-8.10162
-7.74922
-7.40085
-7.05807
-6.72231
-6.39487
-6.07684
-5.76913
-5.47245
-5.18728
-4.91388
-4.65232
-4.40244
-4.16392
-3.93625
-3.71879
-3.51081
-3.31145
-3.11986
-2.93513
-2.75639
-2.58283
-2.41374
-2.24854
-2.0868
-1.92828
-1.77295
-1.62097
-1.47271
-1.32871
-1.18966
-1.0563
-0.929461
-0.809821
-0.698178
-0.594696
-0.500358
-0.413739
-0.337827
-0.265529
-0.210402
-0.141971
-0.12154
-0.0187948
-0.102549
-14.4512
-14.4725
-14.4938
-14.5148
-14.5355
-14.556
-14.5761
-14.596
-14.6156
-14.6348
-14.6536
-14.6717
-14.6888
-14.7046
-14.7187
-14.7306
-14.7398
-14.7457
-14.7478
-14.7455
-14.7382
-14.7253
-14.7064
-14.6808
-14.6479
-14.6073
-14.5583
-14.5004
-14.4331
-14.3559
-14.2681
-14.1692
-14.0588
-13.9363
-13.8012
-13.6532
-13.4917
-13.3166
-13.1274
-12.9242
-12.7067
-12.475
-12.2293
-11.9699
-11.6972
-11.4119
-11.1146
-10.8063
-10.488
-10.1609
-9.82638
-9.48586
-9.14088
-8.79306
-8.44403
-8.09546
-7.74899
-7.4062
-7.06857
-6.73749
-6.4142
-6.09976
-5.79506
-5.50079
-5.21744
-4.94528
-4.68441
-4.43472
-4.19592
-3.96758
-3.74912
-3.53987
-3.33908
-3.14594
-2.95964
-2.77939
-2.60444
-2.43415
-2.26798
-2.10552
-1.94657
-1.79108
-1.63918
-1.49122
-1.34766
-1.20911
-1.07626
-0.949827
-0.830418
-0.718758
-0.614946
-0.51993
-0.432235
-0.354906
-0.280716
-0.223568
-0.152322
-0.129868
-0.0226251
-0.106678
-14.4341
-14.4541
-14.4739
-14.4935
-14.5128
-14.5317
-14.5502
-14.5684
-14.5861
-14.6032
-14.6197
-14.6353
-14.6497
-14.6627
-14.6738
-14.6826
-14.6886
-14.6913
-14.6902
-14.6847
-14.6743
-14.6585
-14.6366
-14.6082
-14.5727
-14.5296
-14.4783
-14.4183
-14.3491
-14.2701
-14.1808
-14.0807
-13.9693
-13.8461
-13.7107
-13.5627
-13.4017
-13.2274
-13.0395
-12.8379
-12.6226
-12.3936
-12.1511
-11.8953
-11.6268
-11.3459
-11.0536
-10.7506
-10.438
-10.1169
-9.78852
-9.4543
-9.11568
-8.77419
-8.4314
-8.08888
-7.7482
-7.41087
-7.0783
-6.75183
-6.43263
-6.12175
-5.82004
-5.52819
-5.24668
-4.97581
-4.71569
-4.46625
-4.22725
-3.99832
-3.77895
-3.56853
-3.36638
-3.17179
-2.98401
-2.80233
-2.62607
-2.45464
-2.28754
-2.12442
-1.96506
-1.80942
-1.65762
-1.50995
-1.36681
-1.22877
-1.0964
-0.970356
-0.851166
-0.73948
-0.63533
-0.539632
-0.450859
-0.372103
-0.29602
-0.236823
-0.162766
-0.138222
-0.0265118
-0.110751
-14.4168
-14.4354
-14.4538
-14.4719
-14.4897
-14.5071
-14.524
-14.5403
-14.5561
-14.5712
-14.5854
-14.5986
-14.6104
-14.6206
-14.6288
-14.6347
-14.6376
-14.6373
-14.6331
-14.6246