/*--------------------------------*- C++ -*----------------------------------*\
| =========                 |                                                 |
| \\      /  F ield         | OpenFOAM: The Open Source CFD Toolbox           |
|  \\    /   O peration     | Version:  2.1.1                                 |
|   \\  /    A nd           | Web:      www.OpenFOAM.org                      |
|    \\/     M anipulation  |                                                 |
\*---------------------------------------------------------------------------*/
FoamFile
{
    version     2.0;
    format      ascii;
    class       surfaceScalarField;
    location    "0.14";
    object      phi;
}
// * * * * * * * * * * * * * * * * * * * * * * * * * * * * * * * * * * * * * //

dimensions      [0 3 -1 0 0 0 0];

internalField   nonuniform List<scalar> 
13452
(
6.89923e-05
-5.05034e-07
6.88136e-05
1.78725e-07
6.82022e-05
6.11378e-07
6.72548e-05
9.47405e-07
6.61783e-05
1.07654e-06
6.50868e-05
1.09149e-06
6.40221e-05
1.06468e-06
6.30015e-05
1.02056e-06
6.20335e-05
9.68067e-07
6.11213e-05
9.12117e-07
6.02662e-05
8.55122e-07
5.94677e-05
7.98531e-07
5.87244e-05
7.43292e-07
5.80343e-05
6.90067e-07
5.7395e-05
6.39302e-07
5.68037e-05
5.9128e-07
5.62576e-05
5.46153e-07
5.57536e-05
5.03978e-07
5.52889e-05
4.64738e-07
5.48605e-05
4.28368e-07
5.44657e-05
3.94769e-07
5.41019e-05
3.63834e-07
5.37664e-05
3.35461e-07
5.34569e-05
3.09576e-07
5.31707e-05
2.86169e-07
5.29054e-05
2.65347e-07
5.26579e-05
2.47434e-07
5.24246e-05
2.3329e-07
5.22001e-05
2.24487e-07
5.1974e-05
2.26174e-07
5.17277e-05
2.46243e-07
5.14122e-05
3.15574e-07
5.03016e-07
5.09091e-05
7.0165e-05
-2.26039e-07
7.00411e-05
3.02553e-07
7.01817e-05
4.70762e-07
7.0509e-05
6.20106e-07
7.08595e-05
7.26034e-07
7.11585e-05
7.92578e-07
7.13831e-05
8.3999e-07
7.15353e-05
8.68416e-07
7.16228e-05
8.8055e-07
7.16546e-05
8.8037e-07
7.16388e-05
8.70825e-07
7.15831e-05
8.54243e-07
7.1494e-05
8.32428e-07
7.13772e-05
8.06848e-07
7.12378e-05
7.78677e-07
7.10803e-05
7.48853e-07
7.09083e-05
7.18125e-07
7.07252e-05
6.8708e-07
7.05338e-05
6.56176e-07
7.03364e-05
6.25763e-07
7.0135e-05
5.96111e-07
6.99314e-05
5.67434e-07
6.9727e-05
5.39907e-07
6.95229e-05
5.13698e-07
6.932e-05
4.89009e-07
6.91193e-05
4.66096e-07
6.89213e-05
4.45448e-07
6.87269e-05
4.27662e-07
6.85369e-05
4.14471e-07
6.83564e-05
4.0667e-07
6.81912e-05
4.11439e-07
6.80896e-05
4.17136e-07
4.51468e-07
6.81412e-05
7.22816e-05
-5.11226e-08
7.23968e-05
1.87385e-07
7.25016e-05
3.65901e-07
7.25882e-05
5.33515e-07
7.26716e-05
6.42665e-07
7.27538e-05
7.10436e-07
7.284e-05
7.53707e-07
7.29269e-05
7.81535e-07
7.30104e-05
7.97094e-07
7.30878e-05
8.02935e-07
7.31576e-05
8.01011e-07
7.3219e-05
7.92895e-07
7.32715e-05
7.79866e-07
7.33153e-05
7.63039e-07
7.33507e-05
7.43356e-07
7.33779e-05
7.21606e-07
7.33976e-05
6.98441e-07
7.34103e-05
6.74395e-07
7.34165e-05
6.49901e-07
7.3417e-05
6.25309e-07
7.34122e-05
6.00902e-07
7.34027e-05
5.76919e-07
7.33891e-05
5.53571e-07
7.33717e-05
5.31062e-07
7.33511e-05
5.09629e-07
7.33276e-05
4.89556e-07
7.33018e-05
4.71313e-07
7.3274e-05
4.55401e-07
7.32454e-05
4.43129e-07
7.32174e-05
4.34597e-07
7.31943e-05
4.34556e-07
7.31782e-05
4.33218e-07
4.56787e-07
7.31729e-05
7.45185e-05
-4.29924e-08
7.44882e-05
2.17713e-07
7.44767e-05
3.77345e-07
7.45163e-05
4.9392e-07
7.45766e-05
5.82346e-07
7.4643e-05
6.44038e-07
7.4709e-05
6.87769e-07
7.47729e-05
7.17596e-07
7.48345e-05
7.35472e-07
7.48937e-05
7.43763e-07
7.49502e-05
7.44495e-07
7.50039e-05
7.39225e-07
7.50546e-05
7.29197e-07
7.51021e-05
7.15469e-07
7.51466e-05
6.9892e-07
7.51879e-05
6.80275e-07
7.52262e-05
6.60136e-07
7.52616e-05
6.38996e-07
7.52942e-05
6.1726e-07
7.53243e-05
5.95257e-07
7.53519e-05
5.73261e-07
7.53774e-05
5.51503e-07
7.54007e-05
5.30191e-07
7.54223e-05
5.09526e-07
7.54422e-05
4.89733e-07
7.54607e-05
4.71065e-07
7.54781e-05
4.53897e-07
7.54949e-05
4.38574e-07
7.55122e-05
4.25869e-07
7.55312e-05
4.15573e-07
7.55564e-05
4.09337e-07
7.55887e-05
4.00957e-07
3.94712e-07
7.56507e-05
7.66036e-05
9.3097e-09
7.66282e-05
1.93027e-07
7.66647e-05
3.40895e-07
7.67029e-05
4.55754e-07
7.67413e-05
5.43932e-07
7.67809e-05
6.04449e-07
7.68229e-05
6.45766e-07
7.68669e-05
6.73592e-07
7.69118e-05
6.90528e-07
7.69569e-05
6.9872e-07
7.70014e-05
6.99936e-07
7.70451e-05
6.95543e-07
7.70876e-05
6.86665e-07
7.71288e-05
6.74258e-07
7.71686e-05
6.59129e-07
7.7207e-05
6.41949e-07
7.72438e-05
6.23276e-07
7.72792e-05
6.03573e-07
7.73133e-05
5.83219e-07
7.7346e-05
5.62527e-07
7.73775e-05
5.41756e-07
7.74079e-05
5.21126e-07
7.74372e-05
5.00833e-07
7.74657e-05
4.81063e-07
7.74934e-05
4.62012e-07
7.75206e-05
4.43883e-07
7.75476e-05
4.26938e-07
7.75748e-05
4.11366e-07
7.76031e-05
3.97526e-07
7.76337e-05
3.8499e-07
7.7669e-05
3.7407e-07
7.77094e-05
3.60581e-07
3.45546e-07
7.77585e-05
7.88312e-05
2.40528e-08
7.88388e-05
1.85385e-07
7.8857e-05
3.22722e-07
7.88859e-05
4.26856e-07
7.89223e-05
5.0755e-07
7.89615e-05
5.65212e-07
7.90017e-05
6.05557e-07
7.90422e-05
6.33101e-07
7.90826e-05
6.50136e-07
7.91227e-05
6.58638e-07
7.91623e-05
6.60326e-07
7.92013e-05
6.56555e-07
7.92395e-05
6.48422e-07
7.92769e-05
6.3685e-07
7.93134e-05
6.2261e-07
7.93491e-05
6.06343e-07
7.93838e-05
5.88582e-07
7.94176e-05
5.69766e-07
7.94505e-05
5.50257e-07
7.94827e-05
5.30355e-07
7.95141e-05
5.10304e-07
7.9545e-05
4.90315e-07
7.95752e-05
4.7057e-07
7.9605e-05
4.51233e-07
7.96346e-05
4.32464e-07
7.96641e-05
4.14412e-07
7.96938e-05
3.97232e-07
7.97242e-05
3.80986e-07
7.97559e-05
3.65739e-07
7.97899e-05
3.50987e-07
7.98277e-05
3.36362e-07
7.98691e-05
3.19152e-07
2.98688e-07
7.99159e-05
8.10848e-05
3.78487e-08
8.10948e-05
1.75371e-07
8.11183e-05
2.99201e-07
8.1149e-05
3.96118e-07
8.11838e-05
4.72806e-07
8.12199e-05
5.29122e-07
8.12566e-05
5.68839e-07
8.12937e-05
5.95963e-07
8.1331e-05
6.12879e-07
8.13681e-05
6.21519e-07
8.14049e-05
6.23535e-07
8.14412e-05
6.20235e-07
8.14769e-05
6.12675e-07
8.15121e-05
6.01741e-07
8.15465e-05
5.88174e-07
8.15802e-05
5.72589e-07
8.16133e-05
5.55496e-07
8.16458e-05
5.37319e-07
8.16776e-05
5.18405e-07
8.17089e-05
4.99041e-07
8.17398e-05
4.79461e-07
8.17702e-05
4.59863e-07
8.18004e-05
4.40414e-07
8.18304e-05
4.21257e-07
8.18603e-05
4.02515e-07
8.18904e-05
3.84285e-07
8.1921e-05
3.66639e-07
8.19525e-05
3.49543e-07
8.19853e-05
3.32892e-07
8.20201e-05
3.16183e-07
8.20577e-05
2.98838e-07
8.20977e-05
2.79097e-07
2.56096e-07
8.21403e-05
8.34101e-05
4.3294e-08
8.34201e-05
1.65406e-07
8.34409e-05
2.78315e-07
8.34686e-05
3.68508e-07
8.3501e-05
4.40342e-07
8.35359e-05
4.94228e-07
8.35719e-05
5.3286e-07
8.36083e-05
5.59547e-07
8.36447e-05
5.76466e-07
8.36809e-05
5.85373e-07
8.37166e-05
5.87807e-07
8.37518e-05
5.85018e-07
8.37865e-05
5.78031e-07
8.38205e-05
5.67704e-07
8.38539e-05
5.54752e-07
8.38867e-05
5.39773e-07
8.3919e-05
5.23259e-07
8.39507e-05
5.05621e-07
8.39819e-05
4.87193e-07
8.40127e-05
4.68253e-07
8.40431e-05
4.49025e-07
8.40733e-05
4.29694e-07
8.41033e-05
4.10413e-07
8.41332e-05
3.91302e-07
8.41633e-05
3.72455e-07
8.41936e-05
3.53926e-07
8.42246e-05
3.35725e-07
8.42563e-05
3.17761e-07
8.42894e-05
2.99849e-07
8.4324e-05
2.81532e-07
8.43606e-05
2.62238e-07
8.43989e-05
2.40828e-07
2.16614e-07
8.44384e-05
8.57963e-05
4.56782e-08
8.58062e-05
1.55524e-07
8.58265e-05
2.58031e-07
8.58533e-05
3.41673e-07
8.58848e-05
4.08922e-07
8.59186e-05
4.60348e-07
8.59537e-05
4.97802e-07
8.59893e-05
5.23937e-07
8.6025e-05
5.40734e-07
8.60606e-05
5.49812e-07
8.60958e-05
5.52599e-07
8.61305e-05
5.50282e-07
8.61647e-05
5.43839e-07
8.61984e-05
5.3409e-07
8.62314e-05
5.21726e-07
8.62638e-05
5.07319e-07
8.62957e-05
4.91348e-07
8.63272e-05
4.74206e-07
8.63581e-05
4.56219e-07
8.63887e-05
4.37652e-07
8.6419e-05
4.18721e-07
8.64491e-05
3.996e-07
8.64791e-05
3.80426e-07
8.65091e-05
3.61301e-07
8.65393e-05
3.42295e-07
8.65698e-05
3.2343e-07
8.66008e-05
3.04679e-07
8.66327e-05
2.85926e-07
8.66655e-05
2.66961e-07
8.66997e-05
2.47401e-07
8.67351e-05
2.26769e-07
8.67716e-05
2.04339e-07
1.79664e-07
8.68086e-05
8.82501e-05
4.55934e-08
8.82602e-05
1.4546e-07
8.82795e-05
2.38709e-07
8.8305e-05
3.16193e-07
8.83349e-05
3.78967e-07
8.83676e-05
4.27643e-07
8.84018e-05
4.63583e-07
8.84368e-05
4.88918e-07
8.84722e-05
5.05416e-07
8.85074e-05
5.1454e-07
8.85424e-05
5.17596e-07
8.8577e-05
5.1569e-07
8.86111e-05
5.09744e-07
8.86447e-05
5.00539e-07
8.86777e-05
4.88732e-07
8.87101e-05
4.74873e-07
8.8742e-05
4.59421e-07
8.87735e-05
4.42754e-07
8.88045e-05
4.25186e-07
8.88352e-05
4.06971e-07
8.88656e-05
3.88316e-07
8.88958e-05
3.69382e-07
8.8926e-05
3.50295e-07
8.89561e-05
3.31143e-07
8.89864e-05
3.11975e-07
8.90171e-05
2.92797e-07
8.90482e-05
2.7356e-07
8.908e-05
2.54147e-07
8.91126e-05
2.3436e-07
8.91461e-05
2.13898e-07
8.91804e-05
1.92399e-07
8.92154e-05
1.69411e-07
1.44688e-07
8.92504e-05
9.07728e-05
4.41316e-08
9.07828e-05
1.35426e-07
9.08012e-05
2.20291e-07
9.08256e-05
2.91821e-07
9.08544e-05
3.50196e-07
9.0886e-05
3.95978e-07
9.09194e-05
4.30197e-07
9.09538e-05
4.54549e-07
9.09886e-05
4.70574e-07
9.10236e-05
4.79594e-07
9.10584e-05
4.82793e-07
9.10929e-05
4.81195e-07
9.11269e-05
4.75666e-07
9.11605e-05
4.6694e-07
9.11936e-05
4.5564e-07
9.12262e-05
4.4229e-07
9.12583e-05
4.27326e-07
9.129e-05
4.1111e-07
9.13212e-05
3.93943e-07
9.13521e-05
3.76067e-07
9.13827e-05
3.57677e-07
9.14132e-05
3.38927e-07
9.14436e-05
3.19929e-07
9.1474e-05
3.00762e-07
9.15045e-05
2.81462e-07
9.15352e-05
2.62025e-07
9.15664e-05
2.42401e-07
9.15981e-05
2.22481e-07
9.16303e-05
2.02102e-07
9.16632e-05
1.81036e-07
9.16965e-05
1.59033e-07
9.17301e-05
1.3582e-07
1.11295e-07
9.17635e-05
9.33669e-05
4.18378e-08
9.33769e-05
1.25446e-07
9.33945e-05
2.02695e-07
9.34178e-05
2.68518e-07
9.34454e-05
3.226e-07
9.3476e-05
3.65391e-07
9.35085e-05
3.97699e-07
9.35422e-05
4.20874e-07
9.35765e-05
4.3625e-07
9.36111e-05
4.45008e-07
9.36457e-05
4.48217e-07
9.368e-05
4.46816e-07
9.37141e-05
4.4161e-07
9.37478e-05
4.33287e-07
9.3781e-05
4.22433e-07
9.38137e-05
4.09541e-07
9.3846e-05
3.95026e-07
9.38779e-05
3.79233e-07
9.39094e-05
3.62445e-07
9.39406e-05
3.44894e-07
9.39715e-05
3.26765e-07
9.40022e-05
3.08201e-07
9.40328e-05
2.89307e-07
9.40634e-05
2.70151e-07
9.40941e-05
2.50767e-07
9.4125e-05
2.31148e-07
9.41562e-05
2.11248e-07
9.41877e-05
1.90979e-07
9.42195e-05
1.70217e-07
9.42518e-05
1.48802e-07
9.42842e-05
1.2657e-07
9.43167e-05
1.03372e-07
7.91942e-08
9.43488e-05
9.60348e-05
3.90937e-08
9.60447e-05
1.15606e-07
9.60615e-05
1.85869e-07
9.60838e-05
2.46211e-07
9.61103e-05
2.96087e-07
9.61399e-05
3.35826e-07
9.61715e-05
3.66075e-07
9.62045e-05
3.87915e-07
9.62382e-05
4.02487e-07
9.62724e-05
4.10838e-07
9.63067e-05
4.13928e-07
9.63409e-05
4.12612e-07
9.63749e-05
4.07633e-07
9.64085e-05
3.99631e-07
9.64418e-05
3.89154e-07
9.64747e-05
3.76665e-07
9.65071e-05
3.62555e-07
9.65392e-05
3.4715e-07
9.6571e-05
3.30719e-07
9.66024e-05
3.1348e-07
9.66335e-05
2.95608e-07
9.66645e-05
2.77238e-07
9.66953e-05
2.58468e-07
9.67261e-05
2.39361e-07
9.67569e-05
2.1995e-07
9.67879e-05
2.00231e-07
9.68189e-05
1.80171e-07
9.68502e-05
1.59704e-07
9.68817e-05
1.38744e-07
9.69133e-05
1.17187e-07
9.69449e-05
9.49394e-08
9.69764e-05
7.19283e-08
4.81962e-08
9.70074e-05
9.87787e-05
3.61271e-08
9.87883e-05
1.05961e-07
9.88045e-05
1.69747e-07
9.88258e-05
2.24827e-07
9.88513e-05
2.70588e-07
9.88799e-05
3.07246e-07
9.89107e-05
3.35323e-07
9.89429e-05
3.5569e-07
9.89761e-05
3.69318e-07
9.90098e-05
3.77127e-07
9.90437e-05
3.79974e-07
9.90777e-05
3.78634e-07
9.91116e-05
3.73789e-07
9.91452e-05
3.66028e-07
9.91785e-05
3.5586e-07
9.92114e-05
3.43719e-07
9.9244e-05
3.29971e-07
9.92762e-05
3.14921e-07
9.93081e-05
2.98825e-07
9.93397e-05
2.81886e-07
9.9371e-05
2.64272e-07
9.94022e-05
2.46108e-07
9.94331e-05
2.27487e-07
9.9464e-05
2.08473e-07
9.94949e-05
1.89097e-07
9.95258e-05
1.69365e-07
9.95567e-05
1.49256e-07
9.95876e-05
1.28729e-07
9.96187e-05
1.07731e-07
9.96496e-05
8.62035e-08
9.96805e-05
6.41015e-08
9.9711e-05
4.14042e-08
1.81841e-08
9.9741e-05
0.000101601
3.30781e-08
0.00010161
9.65507e-08
0.000101626
1.54276e-07
0.000101646
2.04301e-07
0.000101671
2.46033e-07
0.000101698
2.79599e-07
0.000101728
3.05417e-07
0.00010176
3.24196e-07
0.000101792
3.36756e-07
0.000101826
3.43901e-07
0.000101859
3.46394e-07
0.000101893
3.4493e-07
0.000101927
3.40128e-07
0.00010196
3.32532e-07
0.000101993
3.2261e-07
0.000102026
3.10765e-07
0.000102059
2.97338e-07
0.000102091
2.82615e-07
0.000102123
2.66834e-07
0.000102155
2.5019e-07
0.000102186
2.32836e-07
0.000102218
2.14896e-07
0.000102249
1.96458e-07
0.000102279
1.77583e-07
0.00010231
1.58309e-07
0.000102341
1.38648e-07
0.000102372
1.18595e-07
0.000102402
9.81324e-08
0.000102433
7.7233e-08
0.000102463
5.58734e-08
0.000102493
3.40442e-08
0.000102523
1.17563e-08
-1.09027e-08
0.000102552
0.000104503
3.00284e-08
0.000104513
8.74028e-08
0.000104527
1.39405e-07
0.000104547
1.84568e-07
0.000104571
2.22358e-07
0.000104598
2.52832e-07
0.000104627
2.76329e-07
0.000104658
2.93424e-07
0.000104689
3.04808e-07
0.000104722
3.11182e-07
0.000104755
3.13217e-07
0.000104789
3.11534e-07
0.000104822
3.06695e-07
0.000104856
2.99192e-07
0.000104889
2.89457e-07
0.000104922
2.77861e-07
0.000104954
2.64719e-07
0.000104987
2.50298e-07
0.000105019
2.3482e-07
0.00010505
2.18467e-07
0.000105082
2.01386e-07
0.000105113
1.83691e-07
0.000105144
1.65471e-07
0.000105175
1.46788e-07
0.000105205
1.27682e-07
0.000105236
1.08176e-07
0.000105266
8.82787e-08
0.000105296
6.79899e-08
0.000105326
4.73065e-08
0.000105356
2.62298e-08
0.000105385
4.77454e-09
0.000105414
-1.70289e-08
-3.90868e-08
0.000105442
0.000107489
2.70244e-08
0.000107498
7.85301e-08
0.000107512
1.2509e-07
0.000107531
1.65566e-07
0.000107554
1.99498e-07
0.00010758
2.26894e-07
0.000107608
2.48022e-07
0.000107638
2.63354e-07
0.00010767
2.73471e-07
0.000107702
2.78977e-07
0.000107735
2.80462e-07
0.000107768
2.78477e-07
0.000107801
2.73524e-07
0.000107834
2.66052e-07
0.000107867
2.56451e-07
0.0001079
2.45061e-07
0.000107932
2.32174e-07
0.000107965
2.18035e-07
0.000107997
2.02852e-07
0.000108028
1.86794e-07
0.00010806
1.7e-07
0.000108091
1.5258e-07
0.000108122
1.34618e-07
0.000108152
1.1618e-07
0.000108183
9.73096e-08
0.000108213
7.80389e-08
0.000108243
5.83886e-08
0.000108272
3.83732e-08
0.000108302
1.80072e-08
0.00010833
-2.6899e-09
0.000108359
-2.36876e-08
0.000108387
-4.49441e-08
-6.63651e-08
0.000108414
0.00011056
2.40902e-08
0.000110568
6.99355e-08
0.000110582
1.11289e-07
0.000110601
1.4724e-07
0.000110623
1.77394e-07
0.000110648
2.01731e-07
0.000110675
2.20459e-07
0.000110705
2.33964e-07
0.000110735
2.42735e-07
0.000110767
2.4729e-07
0.000110799
2.48143e-07
0.000110832
2.45779e-07
0.000110865
2.40647e-07
0.000110898
2.33146e-07
0.000110931
2.23633e-07
0.000110963
2.12414e-07
0.000110996
1.99757e-07
0.000111028
1.85888e-07
0.00011106
1.70997e-07
0.000111091
1.55243e-07
0.000111123
1.38757e-07
0.000111154
1.21642e-07
0.000111184
1.03984e-07
0.000111215
8.58457e-08
0.000111245
6.72783e-08
0.000111274
4.832e-08
0.000111304
2.90013e-08
0.000111333
9.34839e-09
0.000111361
-1.06108e-08
0.000111389
-3.08449e-08
0.000111417
-5.13132e-08
0.000111444
-7.19682e-08
-9.27176e-08
0.00011147
0.000113718
2.12368e-08
0.000113727
6.16139e-08
0.00011374
9.79631e-08
0.000113758
1.29534e-07
0.000113779
1.5599e-07
0.000113804
1.7729e-07
0.00011383
1.93596e-07
0.000113859
2.05225e-07
0.000113889
2.12585e-07
0.00011392
2.16117e-07
0.000113952
2.16266e-07
0.000113985
2.13457e-07
0.000114017
2.08086e-07
0.00011405
2.00508e-07
0.000114082
1.91042e-07
0.000114115
1.79966e-07
0.000114147
1.67521e-07
0.000114179
1.53913e-07
0.000114211
1.39318e-07
0.000114242
1.23882e-07
0.000114273
1.07728e-07
0.000114304
9.09559e-08
0.000114334
7.36465e-08
0.000114364
5.58657e-08
0.000114394
3.76671e-08
0.000114423
1.90945e-08
0.000114452
1.87499e-10
0.00011448
-1.90223e-08
0.000114508
-3.84948e-08
0.000114535
-5.81919e-08
0.000114562
-7.8067e-08
0.000114588
-9.807e-08
-1.18113e-07
0.000114614
0.000116967
1.84675e-08
0.000116975
5.3555e-08
0.000116988
8.50767e-08
0.000117005
1.12397e-07
0.000117026
1.35228e-07
0.00011705
1.53519e-07
0.000117076
1.67391e-07
0.000117104
1.77105e-07
0.000117134
1.82998e-07
0.000117164
1.85446e-07
0.000117196
1.84831e-07
0.000117228
1.8152e-07
0.00011726
1.7586e-07
0.000117292
1.68164e-07
0.000117325
1.58713e-07
0.000117357
1.47757e-07
0.000117389
1.35511e-07
0.000117421
1.22163e-07
0.000117452
1.07873e-07
0.000117483
9.27749e-08
0.000117514
7.69829e-08
0.000117544
6.05916e-08
0.000117574
4.36801e-08
0.000117604
2.6314e-08
0.000117633
8.54907e-09
0.000117662
-9.56674e-09
0.00011769
-2.79898e-08
0.000117717
-4.66793e-08
0.000117744
-6.55926e-08
0.000117771
-8.46853e-08
0.000117797
-1.03908e-07
0.000117822
-1.23211e-07
-1.4251e-07
0.000117846
0.000120309
1.57809e-08
0.000120317
4.57443e-08
0.000120329
7.2594e-08
0.000120346
9.57807e-08
0.000120366
1.15056e-07
0.000120389
1.30364e-07
0.000120415
1.41797e-07
0.000120442
1.49564e-07
0.000120471
1.53947e-07
0.000120501
1.55262e-07
0.000120532
1.53831e-07
0.000120564
1.49972e-07
0.000120596
1.43981e-07
0.000120628
1.36133e-07
0.00012066
1.26674e-07
0.000120692
1.15822e-07
0.000120723
1.03771e-07
0.000120755
9.0688e-08
0.000120786
7.67166e-08
0.000120817
6.19801e-08
0.000120847
4.65835e-08
0.000120877
3.06158e-08
0.000120907
1.41527e-08
0.000120936
-2.74083e-09
0.000120964
-2.00084e-08
0.000120992
-3.75995e-08
0.00012102
-5.54673e-08
0.000121047
-7.35669e-08
0.000121073
-9.1853e-08
0.000121099
-1.10279e-07
0.000121124
-1.28794e-07
0.000121148
-1.47349e-07
-1.65865e-07
0.000121171
0.000123746
1.31731e-08
0.000123753
3.81657e-08
0.000123765
6.04811e-08
0.000123782
7.96379e-08
0.000123801
9.5421e-08
0.000123824
1.07774e-07
0.000123849
1.16764e-07
0.000123876
1.22562e-07
0.000123904
1.254e-07
0.000123934
1.2554e-07
0.000123965
1.23253e-07
0.000123996
1.18806e-07
0.000124027
1.12453e-07
0.000124059
1.04429e-07
0.000124091
9.49444e-08
0.000124122
8.41906e-08
0.000124154
7.23361e-08
0.000124185
5.95286e-08
0.000124216
4.58966e-08
0.000124246
3.15509e-08
0.000124276
1.65871e-08
0.000124306
1.08827e-09
0.000124335
-1.48739e-08
0.000124363
-3.12365e-08
0.000124391
-4.79435e-08
0.000124419
-6.49435e-08
0.000124445
-8.21883e-08
0.000124471
-9.96312e-08
0.000124497
-1.17226e-07
0.000124521
-1.34924e-07
0.000124545
-1.52677e-07
0.000124568
-1.70437e-07
-1.88131e-07
0.000124591
0.000127281
1.06389e-08
0.000127288
3.0801e-08
0.0001273
4.87037e-08
0.000127316
6.39207e-08
0.000127335
7.62663e-08
0.000127357
8.56889e-08
0.000127382
9.22372e-08
0.000127408
9.60485e-08
0.000127436
9.73143e-08
0.000127466
9.62486e-08
0.000127496
9.3074e-08
0.000127527
8.80121e-08
0.000127558
8.12755e-08
0.000127589
7.30587e-08
0.000127621
6.3542e-08
0.000127652
5.28862e-08
0.000127683
4.12372e-08
0.000127714
2.8723e-08
0.000127744
1.54563e-08
0.000127774
1.53545e-09
0.000127804
-1.29544e-08
0.000127833
-2.79361e-08
0.000127861
-4.33433e-08
0.000127889
-5.9116e-08
0.000127916
-7.51997e-08
0.000127943
-9.15437e-08
0.000127969
-1.081e-07
0.000127994
-1.24821e-07
0.000128018
-1.41662e-07
0.000128042
-1.58574e-07
0.000128065
-1.75511e-07
0.000128087
-1.92428e-07
-2.09255e-07
0.000128108
0.000130917
8.17382e-09
0.000130925
2.36353e-08
0.000130936
3.72343e-08
0.000130951
4.85901e-08
0.00013097
5.7545e-08
0.000130992
6.40578e-08
0.000131016
6.81609e-08
0.000131042
6.99686e-08
0.000131069
6.96395e-08
0.000131098
6.73439e-08
0.000131128
6.32588e-08
0.000131159
5.75626e-08
0.00013119
5.04294e-08
0.000131221
4.2015e-08
0.000131252
3.24677e-08
0.000131283
2.19182e-08
0.000131313
1.04924e-08
0.000131344
-1.7041e-09
0.000131374
-1.45722e-08
0.000131403
-2.80295e-08
0.000131432
-4.19989e-08
0.000131461
-5.6412e-08
0.000131489
-7.12077e-08
0.000131516
-8.63301e-08
0.000131542
-1.01727e-07
0.000131568
-1.17351e-07
0.000131593
-1.33154e-07
0.000131618
-1.4909e-07
0.000131641
-1.65115e-07
0.000131664
-1.81184e-07
0.000131685
-1.97252e-07
0.000131706
-2.13276e-07
-2.29192e-07
0.000131726
0.000134658
5.76872e-09
0.000134665
1.66447e-08
0.000134676
2.60302e-08
0.000134691
3.3585e-08
0.000134709
3.91837e-08
0.00013473
4.28055e-08
0.000134754
4.44658e-08
0.00013478
4.42612e-08
0.000134807
4.23232e-08
0.000134836
3.8782e-08
0.000134865
3.37727e-08
0.000134895
2.74345e-08
0.000134926
1.99031e-08
0.000134956
1.1292e-08
0.000134987
1.72868e-09
0.000135018
-8.70118e-09
0.000135048
-1.98799e-08
0.000135078
-3.17265e-08
0.000135108
-4.41601e-08
0.000135137
-5.71095e-08
0.000135165
-7.05091e-08
0.000135193
-8.42992e-08
0.000135221
-9.8425e-08
0.000135247
-1.12836e-07
0.000135273
-1.27483e-07
0.000135298
-1.42322e-07
0.000135322
-1.57307e-07
0.000135345
-1.72395e-07
0.000135368
-1.87545e-07
0.000135389
-2.02712e-07
0.00013541
-2.17856e-07
0.000135429
-2.32936e-07
-2.47893e-07
0.000135448
0.000138505
3.43472e-09
0.000138511
9.84439e-09
0.000138522
1.51041e-08
0.000138537
1.89051e-08
0.000138555
2.11638e-08
0.000138576
2.18842e-08
0.000138599
2.10684e-08
0.000138625
1.88275e-08
0.000138652
1.52686e-08
0.00013868
1.04739e-08
0.000138709
4.53184e-09
0.000138739
-2.45539e-09
0.00013877
-1.03651e-08
0.0001388
-1.91549e-08
0.00013883
-2.87223e-08
0.000138861
-3.89937e-08
0.000138891
-4.98904e-08
0.00013892
-6.13461e-08
0.000138949
-7.3298e-08
0.000138978
-8.56882e-08
0.000139006
-9.84624e-08
0.000139033
-1.1157e-07
0.00013906
-1.24964e-07
0.000139086
-1.38599e-07
0.000139111
-1.52431e-07
0.000139135
-1.66419e-07
0.000139158
-1.80522e-07
0.00013918
-1.94699e-07
0.000139202
-2.08911e-07
0.000139222
-2.23119e-07
0.000139241
-2.37284e-07
0.00013926
-2.5137e-07
-2.65322e-07
0.000139277
0.000142462
1.11754e-09
0.000142468
3.14479e-09
0.000142479
4.33223e-09
0.000142494
4.40464e-09
0.000142511
3.33993e-09
0.000142532
1.22776e-09
0.000142555
-2.05823e-09
0.00014258
-6.36176e-09
0.000142607
-1.15559e-08
0.000142635
-1.76117e-08
0.000142664
-2.4472e-08
0.000142694
-3.20814e-08
0.000142724
-4.03819e-08
0.000142754
-4.93314e-08
0.000142784
-5.88721e-08
0.000142814
-6.89553e-08
0.000142844
-7.95311e-08
0.000142873
-9.05521e-08
0.000142902
-1.01973e-07
0.00014293
-1.1375e-07
0.000142957
-1.25841e-07
0.000142984
-1.38205e-07
0.00014301
-1.50804e-07
0.000143035
-1.63597e-07
0.000143059
-1.76548e-07
0.000143082
-1.89619e-07
0.000143104
-2.02774e-07
0.000143125
-2.15976e-07
0.000143146
-2.2919e-07
0.000143165
-2.42378e-07
0.000143183
-2.55507e-07
0.0001432
-2.68543e-07
-2.81436e-07
0.000143217
0.000146531
-1.00432e-09
0.000146538
-3.19872e-09
0.000146548
-6.02895e-09
0.000146562
-9.72784e-09
0.00014658
-1.42247e-08
0.0001466
-1.94067e-08
0.000146624
-2.52212e-08
0.000146649
-3.15721e-08
0.000146676
-3.8405e-08
0.000146704
-4.57093e-08
0.000146733
-5.34718e-08
0.000146762
-6.16796e-08
0.000146792
-7.03172e-08
0.000146822
-7.93736e-08
0.000146852
-8.88309e-08
0.000146882
-9.86681e-08
0.000146911
-1.08861e-07
0.00014694
-1.19383e-07
0.000146968
-1.30206e-07
0.000146996
-1.41302e-07
0.000147023
-1.52641e-07
0.000147049
-1.64192e-07
0.000147074
-1.75923e-07
0.000147098
-1.87805e-07
0.000147121
-1.99805e-07
0.000147144
-2.11891e-07
0.000147165
-2.24031e-07
0.000147185
-2.36193e-07
0.000147204
-2.48345e-07
0.000147222
-2.60455e-07
0.000147239
-2.72491e-07
0.000147255
-2.84426e-07
-2.96213e-07
0.00014727
0.000150718
-3.4479e-09
0.000150725
-9.77942e-09
0.000150735
-1.65089e-08
0.000150749
-2.38492e-08
0.000150767
-3.1671e-08
0.000150787
-3.97957e-08
0.00015081
-4.81162e-08
0.000150835
-5.65484e-08
0.000150862
-6.50496e-08
0.00015089
-7.36259e-08
0.000150918
-8.23019e-08
0.000150948
-9.11071e-08
0.000150978
-1.0007e-07
0.000151007
-1.09215e-07
0.000151037
-1.1856e-07
0.000151067
-1.28113e-07
0.000151096
-1.37877e-07
0.000151124
-1.47847e-07
0.000151152
-1.58015e-07
0.000151179
-1.68368e-07
0.000151205
-1.78888e-07
0.000151231
-1.89557e-07
0.000151255
-2.00353e-07
0.000151278
-2.11252e-07
0.000151301
-2.22229e-07
0.000151322
-2.33259e-07
0.000151343
-2.44314e-07
0.000151362
-2.55368e-07
0.00015138
-2.66392e-07
0.000151397
-2.77359e-07
0.000151412
-2.88241e-07
0.000151427
-2.99012e-07
-3.09632e-07
0.00015144
0.000155023
-4.71794e-09
0.000155028
-1.50245e-08
0.000155038
-2.60032e-08
0.000155051
-3.76177e-08
0.000155069
-4.93367e-08
0.00015509
-6.07951e-08
0.000155114
-7.18263e-08
0.00015514
-8.23817e-08
0.000155167
-9.24897e-08
0.000155196
-1.02226e-07
0.000155225
-1.11681e-07
0.000155255
-1.20942e-07
0.000155285
-1.30089e-07
0.000155315
-1.39189e-07
0.000155345
-1.48295e-07
0.000155374
-1.57448e-07
0.000155403
-1.66674e-07
0.000155431
-1.75991e-07
0.000155458
-1.85408e-07
0.000155485
-1.94926e-07
0.00015551
-2.04542e-07
0.000155535
-2.14246e-07
0.000155559
-2.24025e-07
0.000155581
-2.33864e-07
0.000155603
-2.43744e-07
0.000155623
-2.53646e-07
0.000155643
-2.63548e-07
0.000155661
-2.73428e-07
0.000155678
-2.83262e-07
0.000155693
-2.93027e-07
0.000155708
-3.02699e-07
0.000155721
-3.12258e-07
-3.21667e-07
0.000155733
0.000159454
-8.55473e-09
0.000159461
-2.20629e-08
0.000159472
-3.62143e-08
0.000159485
-5.10377e-08
0.000159502
-6.60529e-08
0.000159522
-8.06662e-08
0.000159544
-9.44856e-08
0.000159569
-1.07355e-07
0.000159596
-1.19287e-07
0.000159624
-1.3038e-07
0.000159653
-1.40771e-07
0.000159683
-1.50602e-07
0.000159713
-1.60005e-07
0.000159743
-1.69095e-07
0.000159773
-1.77968e-07
0.000159802
-1.86701e-07
0.00015983
-1.9535e-07
0.000159858
-2.03961e-07
0.000159886
-2.12563e-07
0.000159912
-2.21175e-07
0.000159937
-2.29808e-07
0.000159961
-2.38466e-07
0.000159984
-2.47146e-07
0.000160006
-2.55841e-07
0.000160027
-2.64541e-07
0.000160047
-2.73233e-07
0.000160065
-2.81902e-07
0.000160082
-2.90529e-07
0.000160098
-2.99096e-07
0.000160113
-3.07585e-07
0.000160126
-3.15976e-07
0.000160138
-3.24249e-07
-3.32376e-07
0.000160149
0.000164003
-5.90944e-09
0.000164005
-2.38081e-08
0.000164013
-4.42717e-08
0.000164028
-6.54472e-08
0.000164047
-8.56403e-08
0.000164071
-1.04099e-07
0.000164097
-1.20669e-07
0.000164125
-1.35462e-07
0.000164154
-1.4869e-07
0.000164185
-1.60592e-07
0.000164215
-1.71408e-07
0.000164246
-1.81357e-07
0.000164277
-1.90632e-07
0.000164307
-1.99392e-07
0.000164337
-2.07768e-07
0.000164366
-2.15862e-07
0.000164394
-2.23756e-07
0.000164422
-2.31509e-07
0.000164448
-2.39168e-07
0.000164474
-2.46764e-07
0.000164499
-2.54319e-07
0.000164522
-2.61845e-07
0.000164544
-2.69347e-07
0.000164565
-2.76827e-07
0.000164585
-2.8428e-07
0.000164603
-2.91699e-07
0.00016462
-2.99074e-07
0.000164636
-3.06392e-07
0.000164651
-3.1364e-07
0.000164664
-3.20803e-07
0.000164676
-3.27866e-07
0.000164687
-3.34816e-07
-3.41624e-07
0.000164696
0.000168701
-1.53319e-08
0.000168709
-3.1833e-08
0.000168717
-5.19249e-08
0.000168726
-7.49772e-08
0.00016874
-9.9116e-08
0.000168758
-1.22057e-07
0.00016878
-1.42621e-07
0.000168805
-1.60596e-07
0.000168832
-1.76205e-07
0.000168862
-1.89778e-07
0.000168892
-2.01662e-07
0.000168923
-2.12182e-07
0.000168954
-2.21624e-07
0.000168985
-2.30226e-07
0.000169015
-2.38182e-07
0.000169045
-2.45649e-07
0.000169074
-2.52747e-07
0.000169102
-2.5957e-07
0.000169129
-2.6619e-07
0.000169155
-2.7266e-07
0.000169179
-2.79017e-07
0.000169203
-2.85288e-07
0.000169225
-2.9149e-07
0.000169246
-2.97633e-07
0.000169265
-3.0372e-07
0.000169283
-3.09752e-07
0.0001693
-3.15725e-07
0.000169315
-3.2163e-07
0.000169329
-3.2746e-07
0.000169341
-3.33204e-07
0.000169352
-3.3885e-07
0.000169362
-3.44387e-07
-3.49795e-07
0.00016937
0.000173491
4.74296e-09
0.000173485
-2.54342e-08
0.000173494
-6.14242e-08
0.000173516
-9.61612e-08
0.000173543
-1.26779e-07
0.000173574
-1.5278e-07
0.000173606
-1.74787e-07
0.000173639
-1.93382e-07
0.000173672
-2.09129e-07
0.000173705
-2.22531e-07
0.000173737
-2.34034e-07
0.000173769
-2.44026e-07
0.0001738
-2.52823e-07
0.00017383
-2.60681e-07
0.00017386
-2.67806e-07
0.000173889
-2.7436e-07
0.000173916
-2.80473e-07
0.000173943
-2.86244e-07
0.000173969
-2.9175e-07
0.000173993
-2.97051e-07
0.000174016
-3.0219e-07
0.000174038
-3.072e-07
0.000174059
-3.12103e-07
0.000174078
-3.16914e-07
0.000174096
-3.21644e-07
0.000174113
-3.26296e-07
0.000174128
-3.30872e-07
0.000174141
-3.35369e-07
0.000174154
-3.39783e-07
0.000174165
-3.44107e-07
0.000174174
-3.48334e-07
0.000174182
-3.52457e-07
-3.56457e-07
0.000174189
0.000178498
-2.45237e-08
0.0001785
-2.76448e-08
0.000178489
-5.01974e-08
0.00017848
-8.7351e-08
0.000178482
-1.28959e-07
0.000178495
-1.65946e-07
0.000178517
-1.96172e-07
0.000178544
-2.2034e-07
0.000178574
-2.39771e-07
0.000178607
-2.55457e-07
0.000178641
-2.68198e-07
0.000178676
-2.78658e-07
0.000178711
-2.87365e-07
0.000178745
-2.94727e-07
0.000178778
-3.01061e-07
0.00017881
-3.06612e-07
0.000178841
-3.11565e-07
0.000178871
-3.16061e-07
0.000178899
-3.20209e-07
0.000178927
-3.24087e-07
0.000178952
-3.27758e-07
0.000178976
-3.31265e-07
0.000178999
-3.34639e-07
0.00017902
-3.37905e-07
0.000179039
-3.41077e-07
0.000179057
-3.44165e-07
0.000179073
-3.47174e-07
0.000179088
-3.50107e-07
0.000179101
-3.52963e-07
0.000179113
-3.5574e-07
0.000179123
-3.58434e-07
0.000179132
-3.61042e-07
-3.63552e-07
0.000179139
0.000183487
5.62593e-08
0.000183465
-5.66604e-09
0.000183501
-8.60928e-08
0.000183552
-1.38908e-07
0.000183603
-1.7966e-07
0.000183648
-2.11419e-07
0.000183689
-2.36813e-07
0.000183726
-2.57658e-07
0.000183761
-2.74672e-07
0.000183794
-2.88554e-07
0.000183826
-2.99966e-07
0.000183857
-3.09419e-07
0.000183887
-3.17308e-07
0.000183916
-3.23949e-07
0.000183944
-3.29594e-07
0.000183972
-3.34442e-07
0.000183999
-3.3865e-07
0.000184026
-3.42341e-07
0.000184051
-3.45614e-07
0.000184076
-3.48545e-07
0.000184099
-3.51196e-07
0.000184121
-3.53613e-07
0.000184142
-3.55833e-07
0.000184162
-3.57885e-07
0.000184181
-3.59791e-07
0.000184199
-3.61566e-07
0.000184215
-3.63223e-07
0.000184229
-3.64771e-07
0.000184243
-3.66215e-07
0.000184254
-3.67556e-07
0.000184265
-3.68796e-07
0.000184274
-3.69933e-07
-3.70962e-07
0.000184281
0.000188861
7.46976e-09
0.000188795
5.95878e-08
0.00018871
-1.88592e-10
0.000188646
-7.49846e-08
0.000188627
-1.61095e-07
0.00018864
-2.24611e-07
0.000188672
-2.68568e-07
0.000188714
-2.99865e-07
0.000188762
-3.22725e-07
0.000188813
-3.39732e-07
0.000188866
-3.52521e-07
0.000188919
-3.62217e-07
0.000188971
-3.69615e-07
0.000189022
-3.75285e-07
0.000189073
-3.7964e-07
0.000189121
-3.82981e-07
0.000189168
-3.85533e-07
0.000189213