/*--------------------------------*- C++ -*----------------------------------*\
| =========                 |                                                 |
| \\      /  F ield         | OpenFOAM: The Open Source CFD Toolbox           |
|  \\    /   O peration     | Version:  2.1.1                                 |
|   \\  /    A nd           | Web:      www.OpenFOAM.org                      |
|    \\/     M anipulation  |                                                 |
\*---------------------------------------------------------------------------*/
FoamFile
{
    version     2.0;
    format      ascii;
    class       volVectorField;
    location    "0.14";
    object      U;
}
// * * * * * * * * * * * * * * * * * * * * * * * * * * * * * * * * * * * * * //

dimensions      [0 1 -1 0 0 0 0];

internalField   nonuniform List<vector> 
6820
(
(8.34337 -0.360077 0)
(8.40111 -0.247159 0)
(8.35613 -0.1153 0)
(8.24787 -0.0365675 0)
(8.11947 0.00599335 0)
(7.98611 0.0278496 0)
(7.85408 0.0386135 0)
(7.72678 0.0433075 0)
(7.60562 0.044573 0)
(7.49114 0.0438668 0)
(7.38358 0.0420304 0)
(7.28297 0.0395683 0)
(7.18919 0.0367914 0)
(7.10202 0.0338953 0)
(7.02119 0.0310037 0)
(6.94638 0.0281939 0)
(6.87725 0.0255132 0)
(6.81342 0.0229884 0)
(6.75455 0.0206328 0)
(6.70028 0.0184509 0)
(6.65027 0.0164414 0)
(6.60417 0.0145998 0)
(6.56169 0.0129205 0)
(6.5225 0.0113986 0)
(6.48632 0.0100322 0)
(6.45283 0.00882627 0)
(6.42172 0.00779805 0)
(6.39258 0.00699868 0)
(6.36494 0.00652836 0)
(6.33787 0.00665816 0)
(6.30985 0.00820518 0)
(6.27784 0.0119251 0)
(6.23259 0.0292857 0)
(8.32139 0.166249 0)
(8.28709 0.189996 0)
(8.28544 0.132146 0)
(8.31741 0.0958364 0)
(8.36172 0.0749928 0)
(8.40179 0.0623236 0)
(8.4329 0.0548326 0)
(8.45501 0.0503 0)
(8.46898 0.0473846 0)
(8.47583 0.045373 0)
(8.47657 0.0438702 0)
(8.47217 0.0426383 0)
(8.46344 0.0415381 0)
(8.45112 0.0404926 0)
(8.43584 0.0394611 0)
(8.41817 0.0384245 0)
(8.39859 0.0373766 0)
(8.3775 0.036318 0)
(8.35528 0.0352531 0)
(8.33222 0.0341882 0)
(8.30858 0.0331303 0)
(8.28459 0.0320873 0)
(8.26042 0.0310677 0)
(8.23622 0.0300824 0)
(8.21212 0.0291465 0)
(8.18823 0.0282828 0)
(8.16463 0.0275318 0)
(8.14137 0.0269652 0)
(8.11868 0.0267169 0)
(8.09634 0.0271128 0)
(8.07649 0.0285675 0)
(8.0566 0.0330854 0)
(8.05736 0.0407156 0)
(8.3225 -0.0608872 0)
(8.31398 -0.0832878 0)
(8.33052 -0.0541068 0)
(8.34435 -0.0203151 0)
(8.35324 0.00238772 0)
(8.36229 0.0165055 0)
(8.37205 0.0257352 0)
(8.38211 0.0319419 0)
(8.39199 0.0361492 0)
(8.40131 0.0390021 0)
(8.40981 0.0408951 0)
(8.41737 0.0420721 0)
(8.42393 0.0427069 0)
(8.42947 0.0429302 0)
(8.43402 0.0428413 0)
(8.43761 0.0425161 0)
(8.44029 0.0420137 0)
(8.44214 0.0413804 0)
(8.44322 0.0406526 0)
(8.44359 0.0398592 0)
(8.44333 0.0390236 0)
(8.4425 0.0381652 0)
(8.44115 0.0373014 0)
(8.43936 0.0364488 0)
(8.43717 0.0356269 0)
(8.43462 0.0348589 0)
(8.43178 0.0341855 0)
(8.42867 0.0336477 0)
(8.42542 0.0333837 0)
(8.42206 0.0333607 0)
(8.41912 0.034248 0)
(8.41653 0.0342494 0)
(8.41562 0.0372558 0)
(8.33365 0.0145611 0)
(8.32977 0.0476909 0)
(8.32739 0.0539544 0)
(8.32874 0.0465358 0)
(8.33464 0.0410291 0)
(8.34219 0.0385154 0)
(8.34972 0.0376936 0)
(8.35698 0.0376357 0)
(8.364 0.0378403 0)
(8.37077 0.0380866 0)
(8.37725 0.0382761 0)
(8.38341 0.0383673 0)
(8.38925 0.0383503 0)
(8.39475 0.0382281 0)
(8.39989 0.0380088 0)
(8.40469 0.037703 0)
(8.40914 0.0373227 0)
(8.41326 0.0368798 0)
(8.41706 0.036386 0)
(8.42056 0.0358521 0)
(8.42378 0.0352886 0)
(8.42675 0.0347057 0)
(8.42947 0.0341145 0)
(8.43198 0.0335273 0)
(8.43429 0.0329601 0)
(8.43643 0.0324337 0)
(8.43843 0.0319815 0)
(8.44032 0.0316423 0)
(8.44222 0.031494 0)
(8.44416 0.0315723 0)
(8.44661 0.0320412 0)
(8.44959 0.032609 0)
(8.45449 0.0336735 0)
(8.3302 -0.00531316 0)
(8.32722 -0.00751597 0)
(8.33139 -0.00246981 0)
(8.33608 0.00800738 0)
(8.34017 0.0171715 0)
(8.34436 0.0233765 0)
(8.3488 0.0275466 0)
(8.35348 0.0304935 0)
(8.35834 0.0326185 0)
(8.36325 0.0341535 0)
(8.36814 0.0352434 0)
(8.37294 0.0359825 0)
(8.37763 0.0364369 0)
(8.38219 0.0366579 0)
(8.3866 0.0366874 0)
(8.39084 0.0365607 0)
(8.39493 0.0363073 0)
(8.39886 0.0359525 0)
(8.40263 0.0355173 0)
(8.40626 0.0350198 0)
(8.40975 0.0344755 0)
(8.41311 0.0338985 0)
(8.41636 0.0333021 0)
(8.4195 0.0327 0)
(8.42255 0.0321079 0)
(8.42552 0.0315439 0)
(8.42846 0.0310337 0)
(8.43139 0.0306004 0)
(8.43439 0.0302912 0)
(8.43754 0.030083 0)
(8.44109 0.0300572 0)
(8.44512 0.0297761 0)
(8.44998 0.0294344 0)
(8.33239 0.00228249 0)
(8.33118 0.0133 0)
(8.33281 0.0203799 0)
(8.33552 0.0237605 0)
(8.33899 0.0259011 0)
(8.34306 0.0276942 0)
(8.34731 0.029354 0)
(8.35158 0.030829 0)
(8.35586 0.0320383 0)
(8.36012 0.0329707 0)
(8.36434 0.033648 0)
(8.36849 0.0340977 0)
(8.37258 0.0343483 0)
(8.37658 0.0344283 0)
(8.38049 0.034364 0)
(8.3843 0.0341789 0)
(8.38801 0.0338935 0)
(8.39163 0.0335256 0)
(8.39516 0.0330906 0)
(8.3986 0.0326021 0)
(8.40196 0.0320719 0)
(8.40525 0.0315111 0)
(8.40848 0.0309303 0)
(8.41165 0.0303403 0)
(8.41478 0.0297532 0)
(8.41789 0.0291823 0)
(8.42101 0.0286438 0)
(8.42417 0.0281495 0)
(8.42744 0.0277165 0)
(8.43089 0.0273149 0)
(8.43465 0.0269326 0)
(8.43881 0.0263211 0)
(8.44346 0.0254389 0)
(8.33232 0.000869683 0)
(8.33152 0.00577427 0)
(8.33342 0.0107425 0)
(8.33647 0.0155319 0)
(8.33988 0.0199049 0)
(8.34356 0.0234005 0)
(8.34732 0.026065 0)
(8.35112 0.0280935 0)
(8.35495 0.0296224 0)
(8.35877 0.0307538 0)
(8.36258 0.0315644 0)
(8.36634 0.03211 0)
(8.37004 0.0324332 0)
(8.37368 0.0325699 0)
(8.37726 0.0325501 0)
(8.38076 0.0323992 0)
(8.38419 0.032139 0)
(8.38756 0.0317882 0)
(8.39086 0.0313631 0)
(8.39411 0.0308773 0)
(8.3973 0.030343 0)
(8.40045 0.029771 0)
(8.40356 0.0291712 0)
(8.40664 0.0285533 0)
(8.40972 0.0279269 0)
(8.4128 0.0273008 0)
(8.41591 0.0266841 0)
(8.41909 0.026079 0)
(8.42238 0.0254844 0)
(8.42583 0.0248631 0)
(8.42953 0.0241738 0)
(8.43351 0.0232425 0)
(8.43777 0.0219819 0)
(8.33272 0.00170698 0)
(8.33256 0.00727957 0)
(8.33418 0.0125642 0)
(8.33677 0.0168174 0)
(8.33981 0.020254 0)
(8.34321 0.0229617 0)
(8.34678 0.025104 0)
(8.35041 0.0268139 0)
(8.35406 0.028151 0)
(8.35769 0.0291612 0)
(8.36128 0.0298905 0)
(8.36483 0.0303786 0)
(8.36832 0.0306599 0)
(8.37175 0.0307649 0)
(8.37512 0.0307205 0)
(8.37843 0.0305496 0)
(8.38168 0.0302723 0)
(8.38487 0.0299057 0)
(8.38801 0.0294646 0)
(8.39111 0.0289615 0)
(8.39416 0.0284075 0)
(8.39719 0.0278119 0)
(8.40019 0.0271833 0)
(8.40318 0.0265292 0)
(8.40618 0.0258561 0)
(8.40919 0.0251692 0)
(8.41224 0.024471 0)
(8.41537 0.0237572 0)
(8.41859 0.0230161 0)
(8.42196 0.0222107 0)
(8.42552 0.021292 0)
(8.42926 0.0201447 0)
(8.43316 0.0186924 0)
(8.33284 0.00178526 0)
(8.33293 0.00645025 0)
(8.33444 0.0109557 0)
(8.33686 0.0148353 0)
(8.33973 0.0181891 0)
(8.34293 0.0209686 0)
(8.34631 0.0232003 0)
(8.34975 0.0249673 0)
(8.35323 0.0263348 0)
(8.35669 0.0273608 0)
(8.36014 0.0280984 0)
(8.36353 0.0285915 0)
(8.36688 0.0288763 0)
(8.37018 0.0289837 0)
(8.37341 0.0289402 0)
(8.37659 0.0287684 0)
(8.37972 0.0284878 0)
(8.38279 0.0281148 0)
(8.38582 0.0276637 0)
(8.38881 0.0271464 0)
(8.39177 0.026573 0)
(8.3947 0.0259522 0)
(8.39761 0.0252912 0)
(8.40052 0.0245958 0)
(8.40344 0.0238704 0)
(8.40638 0.0231166 0)
(8.40936 0.022333 0)
(8.41241 0.0215112 0)
(8.41555 0.0206348 0)
(8.4188 0.0196699 0)
(8.42218 0.0185717 0)
(8.42568 0.0172625 0)
(8.42926 0.015686 0)
(8.33294 0.00182676 0)
(8.33323 0.00612664 0)
(8.33463 0.0103277 0)
(8.33685 0.0139816 0)
(8.3395 0.0171044 0)
(8.34249 0.0196847 0)
(8.34567 0.0217628 0)
(8.34896 0.0234176 0)
(8.35229 0.0247091 0)
(8.35563 0.0256851 0)
(8.35895 0.0263892 0)
(8.36224 0.0268594 0)
(8.36548 0.0271278 0)
(8.36868 0.0272226 0)
(8.37182 0.0271685 0)
(8.37491 0.0269864 0)
(8.37795 0.0266947 0)
(8.38094 0.0263089 0)
(8.38389 0.0258422 0)
(8.3868 0.0253056 0)
(8.38968 0.0247086 0)
(8.39254 0.0240585 0)
(8.39539 0.0233616 0)
(8.39824 0.0226219 0)
(8.40109 0.0218418 0)
(8.40396 0.0210208 0)
(8.40687 0.0201545 0)
(8.40984 0.0192328 0)
(8.41287 0.0182383 0)
(8.41599 0.017142 0)
(8.4192 0.015907 0)
(8.42248 0.0144817 0)
(8.42579 0.0128297 0)
(8.33299 0.00178979 0)
(8.33338 0.00569894 0)
(8.33469 0.0094984 0)
(8.33673 0.0128523 0)
(8.33921 0.0157516 0)
(8.342 0.0181882 0)
(8.34501 0.020179 0)
(8.34814 0.021776 0)
(8.35133 0.023027 0)
(8.35454 0.0239739 0)
(8.35774 0.0246568 0)
(8.36093 0.0251111 0)
(8.36408 0.0253676 0)
(8.36719 0.0254529 0)
(8.37025 0.0253901 0)
(8.37326 0.0251994 0)
(8.37623 0.0248978 0)
(8.37916 0.0245 0)
(8.38204 0.0240182 0)
(8.38489 0.0234628 0)
(8.38772 0.0228422 0)
(8.39052 0.0221631 0)
(8.39331 0.0214302 0)
(8.39609 0.0206466 0)
(8.39889 0.0198132 0)
(8.4017 0.0189279 0)
(8.40454 0.017985 0)
(8.40742 0.016974 0)
(8.41035 0.0158786 0)
(8.41334 0.0146753 0)
(8.41638 0.0133357 0)
(8.41946 0.0118259 0)
(8.42255 0.0101241 0)
(8.33302 0.00171166 0)
(8.33346 0.00529415 0)
(8.3347 0.0087636 0)
(8.33658 0.0118636 0)
(8.33888 0.0145584 0)
(8.3415 0.0168375 0)
(8.34434 0.0187113 0)
(8.3473 0.0202197 0)
(8.35035 0.0214044 0)
(8.35343 0.0223027 0)
(8.35652 0.0229499 0)
(8.3596 0.0233778 0)
(8.36266 0.0236142 0)
(8.36568 0.0236835 0)
(8.36867 0.0236072 0)
(8.37161 0.0234036 0)
(8.37452 0.0230887 0)
(8.37738 0.0226761 0)
(8.38021 0.0221772 0)
(8.383 0.0216012 0)
(8.38577 0.0209558 0)
(8.38852 0.0202467 0)
(8.39126 0.0194778 0)
(8.39399 0.0186511 0)
(8.39672 0.0177665 0)
(8.39947 0.0168211 0)
(8.40223 0.0158088 0)
(8.40503 0.0147197 0)
(8.40785 0.0135398 0)
(8.41072 0.0122507 0)
(8.41361 0.0108316 0)
(8.41651 0.00926047 0)
(8.4194 0.00752584 0)
(8.33303 0.0016094 0)
(8.3335 0.0048898 0)
(8.33466 0.00804764 0)
(8.3364 0.0108924 0)
(8.33855 0.0133793 0)
(8.341 0.0154978 0)
(8.34367 0.0172527 0)
(8.34649 0.0186725 0)
(8.34939 0.0197907 0)
(8.35235 0.020639 0)
(8.35532 0.0212482 0)
(8.3583 0.0216468 0)
(8.36126 0.02186 0)
(8.3642 0.0219103 0)
(8.3671 0.0218175 0)
(8.36997 0.0215987 0)
(8.37281 0.0212685 0)
(8.37561 0.0208394 0)
(8.37838 0.0203219 0)
(8.38111 0.0197245 0)
(8.38383 0.0190539 0)
(8.38652 0.018315 0)
(8.3892 0.0175111 0)
(8.39187 0.0166433 0)
(8.39455 0.0157109 0)
(8.39722 0.0147108 0)
(8.39991 0.0136372 0)
(8.40261 0.0124813 0)
(8.40534 0.0112317 0)
(8.40808 0.00987451 0)
(8.41082 0.00839518 0)
(8.41356 0.00677973 0)
(8.41628 0.00502327 0)
(8.33304 0.00149463 0)
(8.33351 0.00449353 0)
(8.3346 0.00736553 0)
(8.33621 0.00996886 0)
(8.33821 0.0122563 0)
(8.34051 0.0142149 0)
(8.34303 0.0158457 0)
(8.3457 0.017169 0)
(8.34847 0.0182121 0)
(8.3513 0.0190021 0)
(8.35416 0.0195659 0)
(8.35703 0.0199286 0)
(8.35989 0.0201131 0)
(8.36274 0.0201397 0)
(8.36556 0.0200263 0)
(8.36836 0.0197887 0)
(8.37112 0.0194403 0)
(8.37386 0.0189924 0)
(8.37656 0.0184547 0)
(8.37924 0.0178346 0)
(8.38189 0.0171383 0)
(8.38453 0.0163699 0)
(8.38714 0.015532 0)
(8.38975 0.0146255 0)
(8.39236 0.0136491 0)
(8.39496 0.0126 0)
(8.39756 0.0114729 0)
(8.40017 0.0102607 0)
(8.40279 0.00895433 0)
(8.40541 0.00754381 0)
(8.40802 0.00601923 0)
(8.41061 0.00437208 0)
(8.41317 0.00260153 0)
(8.33304 0.00137437 0)
(8.3335 0.00410617 0)
(8.33452 0.00671068 0)
(8.33603 0.00908114 0)
(8.3379 0.0111725 0)
(8.34005 0.0129702 0)
(8.34243 0.0144731 0)
(8.34496 0.0156955 0)
(8.34759 0.0166586 0)
(8.3503 0.0173856 0)
(8.35304 0.0178992 0)
(8.35581 0.0182218 0)
(8.35857 0.0183735 0)
(8.36133 0.0183727 0)
(8.36407 0.0182356 0)
(8.36678 0.0179764 0)
(8.36947 0.0176074 0)
(8.37214 0.017139 0)
(8.37477 0.0165797 0)
(8.37739 0.0159363 0)
(8.37997 0.0152143 0)
(8.38254 0.0144171 0)
(8.38509 0.013547 0)
(8.38763 0.0126045 0)
(8.39016 0.0115885 0)
(8.39268 0.0104963 0)
(8.3952 0.00932357 0)
(8.39771 0.00806465 0)
(8.40022 0.00671286 0)
(8.40272 0.00526115 0)
(8.40519 0.00370316 0)
(8.40765 0.00203398 0)
(8.41006 0.000255235 0)
(8.33304 0.0012528 0)
(8.33348 0.00372922 0)
(8.33444 0.00608191 0)
(8.33585 0.00822883 0)
(8.33759 0.0101291 0)
(8.33962 0.0117671 0)
(8.34186 0.0131399 0)
(8.34426 0.0142572 0)
(8.34677 0.0151356 0)
(8.34935 0.0157943 0)
(8.35199 0.0162528 0)
(8.35464 0.0165304 0)
(8.35731 0.0166451 0)
(8.35998 0.0166131 0)
(8.36263 0.016449 0)
(8.36526 0.0161655 0)
(8.36788 0.0157738 0)
(8.37047 0.0152832 0)
(8.37303 0.0147013 0)
(8.37557 0.0140343 0)
(8.37809 0.0132868 0)
(8.38059 0.0124621 0)
(8.38307 0.0115619 0)
(8.38553 0.0105867 0)
(8.38798 0.0095355 0)
(8.39042 0.00840611 0)
(8.39284 0.00719515 0)
(8.39525 0.00589834 0)
(8.39765 0.00451093 0)
(8.40002 0.00302822 0)
(8.40237 0.00144639 0)
(8.40469 -0.000237067 0)
(8.40697 -0.00201916 0)
(8.33304 0.00113234 0)
(8.33346 0.00336336 0)
(8.33436 0.00547704 0)
(8.33568 0.00740864 0)
(8.33731 0.009122 0)
(8.33922 0.0106013 0)
(8.34133 0.0118423 0)
(8.3436 0.0128512 0)
(8.34599 0.013641 0)
(8.34846 0.0142272 0)
(8.35099 0.0146264 0)
(8.35354 0.0148552 0)
(8.35611 0.0149291 0)
(8.35868 0.0148627 0)
(8.36125 0.0146688 0)
(8.3638 0.0143588 0)
(8.36634 0.0139427 0)
(8.36885 0.0134286 0)
(8.37134 0.0128235 0)
(8.37381 0.0121329 0)
(8.37625 0.0113608 0)
(8.37867 0.0105102 0)
(8.38107 0.00958247 0)
(8.38346 0.00857815 0)
(8.38582 0.00749651 0)
(8.38817 0.00633587 0)
(8.39049 0.00509375 0)
(8.3928 0.0037671 0)
(8.39509 0.00235275 0)
(8.39734 0.000847773 0)
(8.39957 -0.000749833 0)
(8.40176 -0.00244102 0)
(8.4039 -0.00422209 0)
(8.33304 0.00101429 0)
(8.33343 0.00300885 0)
(8.33428 0.00489435 0)
(8.33551 0.00661824 0)
(8.33705 0.00814901 0)
(8.33884 0.00947112 0)
(8.34084 0.0105794 0)
(8.343 0.0114776 0)
(8.34527 0.0121753 0)
(8.34763 0.0126854 0)
(8.35005 0.0130215 0)
(8.3525 0.0131978 0)
(8.35497 0.0132278 0)
(8.35746 0.0131241 0)
(8.35994 0.0128979 0)
(8.3624 0.0125595 0)
(8.36486 0.0121174 0)
(8.36729 0.0115791 0)
(8.3697 0.0109507 0)
(8.37209 0.0102369 0)
(8.37446 0.00944151 0)
(8.3768 0.00856691 0)
(8.37912 0.00761458 0)
(8.38142 0.00658499 0)
(8.3837 0.00547773 0)
(8.38595 0.00429165 0)
(8.38818 0.00302508 0)
(8.39038 0.00167598 0)
(8.39255 0.000242433 0)
(8.39469 -0.00127714 0)
(8.3968 -0.0028835 0)
(8.39886 -0.00457661 0)
(8.40087 -0.00635241 0)
(8.33304 0.000899307 0)
(8.33341 0.00266562 0)
(8.33421 0.00433217 0)
(8.33536 0.00585524 0)
(8.33681 0.00720746 0)
(8.3385 0.008374 0)
(8.34039 0.00934906 0)
(8.34243 0.0101345 0)
(8.3446 0.0107376 0)
(8.34685 0.0111683 0)
(8.34916 0.0114381 0)
(8.35152 0.0115588 0)
(8.3539 0.011542 0)
(8.35629 0.0113984 0)
(8.35869 0.011138 0)
(8.36107 0.0107695 0)
(8.36344 0.0103006 0)
(8.36579 0.00973763 0)
(8.36813 0.00908604 0)
(8.37044 0.00835004 0)
(8.37272 0.00753284 0)
(8.37499 0.00663669 0)
(8.37722 0.00566293 0)
(8.37943 0.00461213 0)
(8.38162 0.00348415 0)
(8.38377 0.00227833 0)
(8.3859 0.000993652 0)
(8.388 -0.000370966 0)
(8.39006 -0.00181658 0)
(8.39208 -0.00334381 0)
(8.39407 -0.00495255 0)
(8.396 -0.00664212 0)
(8.39789 -0.00840834 0)
(8.33303 0.000787641 0)
(8.33338 0.00233331 0)
(8.33414 0.00378895 0)
(8.33522 0.00511742 0)
(8.33658 0.00629498 0)
(8.33818 0.00730774 0)
(8.33997 0.00814961 0)
(8.34191 0.00882108 0)
(8.34397 0.00932733 0)
(8.34612 0.00967623 0)
(8.34834 0.00987705 0)
(8.3506 0.0099396 0)
(8.35289 0.00987362 0)
(8.3552 0.00968828 0)
(8.3575 0.00939204 0)
(8.3598 0.00899243 0)
(8.36209 0.00849604 0)
(8.36436 0.00790846 0)
(8.36662 0.00723434 0)
(8.36884 0.00647737 0)
(8.37105 0.00564037 0)
(8.37323 0.00472535 0)
(8.37538 0.0037336 0)
(8.3775 0.00266577 0)
(8.37959 0.00152198 0)
(8.38164 0.000302 0)
(8.38367 -0.000994641 0)
(8.38566 -0.00236836 0)
(8.38761 -0.00381949 0)
(8.38952 -0.00534798 0)
(8.39139 -0.00695316 0)
(8.3932 -0.00863394 0)
(8.39497 -0.0103862 0)
(8.33303 0.000679309 0)
(8.33336 0.0020114 0)
(8.33407 0.00326319 0)
(8.33509 0.00440262 0)
(8.33638 0.00540907 0)
(8.33788 0.00626975 0)
(8.33958 0.00697849 0)
(8.34143 0.00753483 0)
(8.3434 0.00794235 0)
(8.34545 0.00820712 0)
(8.34758 0.00833655 0)
(8.34975 0.00833863 0)
(8.35195 0.00822142 0)
(8.35416 0.00799259 0)
(8.35638 0.00765924 0)
(8.3586 0.00722774 0)
(8.36081 0.00670368 0)
(8.363 0.00609184 0)
(8.36517 0.00539619 0)
(8.36732 0.0046199 0)
(8.36944 0.00376542 0)
(8.37153 0.00283456 0)
(8.37359 0.00182854 0)
(8.37562 0.000748069 0)
(8.37761 -0.000406497 0)
(8.37957 -0.00163506 0)
(8.3815 -0.00293763 0)
(8.38338 -0.00431422 0)
(8.38522 -0.00576458 0)
(8.38702 -0.00728817 0)
(8.38877 -0.00888395 0)
(8.39047 -0.0105506 0)
(8.39211 -0.0122842 0)
(8.33303 0.000574196 0)
(8.33334 0.00169926 0)
(8.33401 0.00275351 0)
(8.33498 0.003709 0)
(8.33619 0.00454785 0)
(8.33762 0.00525851 0)
(8.33923 0.00583494 0)
(8.34099 0.006276 0)
(8.34286 0.00658403 0)
(8.34483 0.00676351 0)
(8.34687 0.00682021 0)
(8.34895 0.00676051 0)
(8.35106 0.00659093 0)
(8.3532 0.00631771 0)
(8.35533 0.0059467 0)
(8.35747 0.00548314 0)
(8.35959 0.00493172 0)
(8.3617 0.00429642 0)
(8.36379 0.00358058 0)
(8.36585 0.00278689 0)
(8.36789 0.00191746 0)
(8.36989 0.000973882 0)
(8.37187 -4.26914e-05 0)
(8.3738 -0.00113149 0)
(8.3757 -0.002292 0)
(8.37757 -0.00352387 0)
(8.37939 -0.00482679 0)
(8.38117 -0.00620038 0)
(8.3829 -0.00764405 0)
(8.38458 -0.00915695 0)
(8.38622 -0.0107378 0)
(8.3878 -0.0123852 0)
(8.38933 -0.0140953 0)
(8.33303 0.000472113 0)
(8.33332 0.00139614 0)
(8.33396 0.00225825 0)
(8.33487 0.00303392 0)
(8.33602 0.00370758 0)
(8.33737 0.00426903 0)
(8.3389 0.00471256 0)
(8.34058 0.00503677 0)
(8.34238 0.00524322 0)
(8.34426 0.00533519 0)
(8.34621 0.00531701 0)
(8.34821 0.00519363 0)
(8.35024 0.00497017 0)
(8.35229 0.00465156 0)
(8.35435 0.00424241 0)
(8.35641 0.00374692 0)
(8.35845 0.00316887 0)
(8.36048 0.00251147 0)
(8.36248 0.00177745 0)
(8.36446 0.000968979 0)
(8.36641 8.78443e-05 0)
(8.36833 -0.000864592 0)
(8.37022 -0.0018873 0)
(8.37206 -0.00297948 0)
(8.37387 -0.00414054 0)
(8.37563 -0.00536994 0)
(8.37735 -0.00666714 0)
(8.37902 -0.00803153 0)
(8.38065 -0.00946227 0)
(8.38222 -0.0109583 0)
(8.38375 -0.0125183 0)
(8.38521 -0.0141407 0)
(8.38663 -0.0158218 0)
(8.33303 0.000372868 0)
(8.33331 0.00110155 0)
(8.3339 0.00177696 0)
(8.33477 0.00237767 0)
(8.33586 0.00289041 0)
(8.33715 0.00330641 0)
(8.33861 0.00362022 0)
(8.34021 0.00383001 0)
(8.34193 0.00393658 0)
(8.34373 0.00394211 0)
(8.34561 0.00384972 0)
(8.34753 0.0036631 0)
(8.34948 0.00338609 0)
(8.35146 0.00302227 0)
(8.35344 0.00257537 0)
(8.35541 0.0020484 0)
(8.35738 0.00144442 0)
(8.35933 0.000766027 0)
(8.36125 1.52754e-05 0)
(8.36315 -0.000806036 0)
(8.36502 -0.00169644 0)
(8.36685 -0.0026548 0)
(8.36864 -0.00368019 0)
(8.37039 -0.00477186 0)
(8.37211 -0.00592913 0)
(8.37377 -0.00715138 0)
(8.37539 -0.00843793 0)
(8.37696 -0.00978798 0)
(8.37848 -0.0112006 0)
(8.37995 -0.0126746 0)
(8.38136 -0.0142085 0)
(8.38272 -0.015801 0)
(8.38402 -0.0174484 0)
(8.33303 0.000276157 0)
(8.33329 0.000813913 0)
(8.33386 0.00130531 0)
(8.33468 0.00173122 0)
(8.33572 0.00208056 0)
(8.33695 0.00234637 0)
(8.33834 0.00252439 0)
(8.33988 0.00261396 0)
(8.34153 0.00261577 0)
(8.34326 0.00253089 0)
(8.34506 0.00236113 0)
(8.34691 0.00210905 0)
(8.34879 0.0017777 0)
(8.35069 0.00136906 0)
(8.35259 0.000885341 0)
(8.35449 0.000329203 0)
(8.35638 -0.000297584 0)
(8.35825 -0.000993306 0)
(8.3601 -0.00175646 0)
(8.36191 -0.00258572 0)
(8.3637 -0.00348003 0)
(8.36544 -0.00443848 0)
(8.36715 -0.00546033 0)
(8.36881 -0.00654488 0)
(8.37043 -0.0076915 0)
(8.372 -0.00889951 0)
(8.37352 -0.0101682 0)
(8.37499 -0.0114966 0)
(8.37641 -0.0128838 0)
(8.37777 -0.0143286 0)
(8.37907 -0.0158295 0)
(8.38032 -0.017385 0)
(8.38151 -0.0189919 0)
(8.33302 0.000182162 0)
(8.33327 0.000535877 0)
(8.33381 0.000852229 0)
(8.33459 0.00111474 0)
(8.33558 0.00131421 0)
(8.33676 0.00144534 0)
(8.33809 0.00150122 0)
(8.33957 0.0014804 0)
(8.34115 0.00138452 0)
(8.34282 0.00121445 0)
(8.34456 0.000971265 0)
(8.34634 0.000656178 0)
(8.34816 0.000270148 0)
(8.34998 -0.000184438 0)
(8.35182 -0.000706084 0)
(8.35365 -0.00129306 0)
(8.35546 -0.00194433 0)
(8.35726 -0.00265881 0)
(8.35903 -0.00343538 0)
(8.36077 -0.0042732 0)
(8.36247 -0.00517152 0)
(8.36413 -0.00612966 0)
(8.36575 -0.00714702 0)
(8.36732 -0.00822301 0)
(8.36885 -0.00935703 0)
(8.37033 -0.0105484 0)
(8.37175 -0.0117964 0)
(8.37312 -0.0131002 0)
(8.37444 -0.0144587 0)
(8.37569 -0.0158708 0)
(8.37689 -0.017335 0)
(8.37803 -0.01885 0)
(8.37911 -0.0204126 0)
(8.33302 8.92509e-05 0)
(8.33326 0.000255705 0)
(8.33378 0.000384489 0)
(8.33453 0.000461376 0)
(8.33548 0.000482158 0)
(8.33661 0.000444793 0)
(8.33789 0.000352979 0)
(8.33931 0.00020598 0)
(8.34084 1.30441e-06 0)
(8.34245 -0.000261134 0)
(8.34412 -0.00058108 0)
(8.34584 -0.000958741 0)
(8.34759 -0.00139473 0)
(8.34935 -0.0018882 0)
(8.35112 -0.00243882 0)
(8.35288 -0.0030468 0)
(8.35462 -0.00371175 0)
(8.35635 -0.00443336 0)
(8.35804 -0.00521135 0)
(8.3597 -0.00604544 0)
(8.36132 -0.00693533 0)
(8.36291 -0.00788069 0)
(8.36444 -0.00888115 0)
(8.36593 -0.00993628 0)
(8.36737 -0.0110456 0)
(8.36875 -0.0122085 0)
(8.37008 -0.0134242 0)
(8.37135 -0.0146919 0)
(8.37257 -0.0160107 0)
(8.37373 -0.0173792 0)
(8.37482 -0.0187963 0)
(8.37586 -0.0202606 0)
(8.37683 -0.0217691 0)
(8.33302 3.21821e-06 0)
(8.33324 1.0559e-05 0)
(8.33371 -3.11648e-06 0)
(8.33442 -5.46446e-05 0)
(8.33532 -0.000151719 0)
(8.33641 -0.000299331 0)
(8.33766 -0.00049527 0)
(8.33905 -0.000740292 0)
(8.34053 -0.00103638 0)
(8.3421 -0.00138306 0)
(8.34373 -0.00177974 0)
(8.3454 -0.00222604 0)
(8.34709 -0.00272133 0)
(8.3488 -0.00326615 0)
(8.35051 -0.00386062 0)
(8.35221 -0.00450481 0)
(8.35389 -0.00519872 0)
(8.35555 -0.00594245 0)
(8.35717 -0.00673606 0)
(8.35876 -0.0075796 0)
(8.3603 -0.00847303 0)
(8.36181 -0.0094163 0)
(8.36326 -0.0104092 0)
(8.36466 -0.0114516 0)
(8.36601 -0.0125431 0)
(8.36731 -0.0136832 0)
(8.36855 -0.0148714 0)
(8.36973 -0.0161069 0)
(8.37085 -0.0173887 0)
(8.37191 -0.018716 0)
(8.3729 -0.0200875 0)
(8.37384 -0.0215021 0)
(8.37471 -0.022957 0)
(8.33303 -9.51838e-05 0)
(8.33326 -0.00030931 0)
(8.33373 -0.000569673 0)
(8.33442 -0.000875557 0)
(8.33529 -0.00121345 0)
(8.33634 -0.00157181 0)
(8.33754 -0.00194881 0)
(8.33887 -0.00234361 0)
(8.34031 -0.00275646 0)
(8.34182 -0.00319064 0)
(8.34339 -0.00365028 0)
(8.34501 -0.00413936 0)
(8.34665 -0.00466147 0)
(8.3483 -0.00521986 0)
(8.34995 -0.00581707 0)
(8.35158 -0.00645517 0)
(8.3532 -0.0071358 0)
(8.35479 -0.00786025 0)
(8.35635 -0.00862948 0)
(8.35787 -0.00944417 0)
(8.35934 -0.0103048 0)
(8.36077 -0.0112116 0)
(8.36215 -0.0121646 0)
(8.36347 -0.0131638 0)
(8.36474 -0.0142088 0)
(8.36595 -0.0152993 0)
(8.36711 -0.0164346 0)
(8.3682 -0.0176141 0)
(8.36923 -0.0188369 0)
(8.37019 -0.0201019 0)
(8.3711 -0.021408 0)
(8.37194 -0.022754 0)
(8.37271 -0.0241374 0)
(8.333 -0.000141397 0)
(8.33315 -0.000387657 0)
(8.33354 -0.000639263 0)
(8.33417 -0.000933377 0)
(8.33502 -0.00128235 0)
(8.33607 -0.00168489 0)
(8.33728 -0.00213372 0)
(8.33861 -0.00262004 0)
(8.34005 -0.00313738 0)
(8.34156 -0.00368223 0)
(8.34313 -0.00425289 0)
(8.34472 -0.00484893 0)
(8.34633 -0.0054709 0)
(8.34795 -0.00612003 0)
(8.34956 -0.00679783 0)
(8.35115 -0.00750591 0)
(8.35271 -0.00824584 0)
(8.35424 -0.00901908 0)
(8.35574 -0.00982695 0)
(8.35719 -0.0106706 0)
(8.35859 -0.0115509 0)
(8.35995 -0.0124687 0)
(8.36125 -0.0134244 0)
(8.36249 -0.0144185 0)
(8.36368 -0.0154511 0)
(8.36481 -0.0165221 0)
(8.36587 -0.0176314 0)
(8.36687 -0.0187785 0)
(8.36781 -0.0199629 0)
(8.36869 -0.0211839 0)
(8.3695 -0.0224406 0)
(8.37024 -0.0237322 0)
(8.37092 -0.0250565 0)
(8.33305 -0.000332686 0)
(8.33334 -0.00107284 0)
(8.33379 -0.00189254 0)
(8.33441 -0.0027247 0)
(8.33519 -0.00351337 0)
(8.33615 -0.00423817 0)
(8.33727 -0.00490124 0)
(8.33852 -0.00551364 0)
(8.33988 -0.00608913 0)
(8.34132 -0.00664158 0)
(8.34282 -0.00718368 0)
(8.34436 -0.00772636 0)
(8.34592 -0.00827869 0)
(8.34748 -0.00884801 0)
(8.34904 -0.0094401 0)
(8.35059 -0.0100594 0)
(8.3521 -0.0107095 0)
(8.35358 -0.0113928 0)
(8.35503 -0.0121113 0)
(8.35642 -0.0128664 0)
(8.35777 -0.013659 0)
(8.35906 -0.0144898 0)
(8.3603 -0.015359 0)
(8.36148 -0.0162667 0)
(8.3626 -0.0172128 0)
(8.36366 -0.0181969 0)
(8.36465 -0.0192185 0)
(8.36557 -0.020277 0)
(8.36644 -0.0213716 0)
(8.36723 -0.0225014 0)
(8.36796 -0.0236654 0)
(8.36862 -0.0248626 0)
(8.36921 -0.0260908 0)
(8.33294 -9.60558e-05 0)
(8.33285 -0.000198925 0)
(8.33307 -0.000366814 0)
(8.33365 -0.000727151 0)
(8.33453 -0.00128384 0)
(8.33564 -0.00198095 0)
(8.33691 -0.00276059 0)
(8.3383 -0.00358138 0)
(8.33976 -0.00441747 0)
(8.34128 -0.00525398 0)
(8.34283 -0.00608358 0)
(8.3444 -0.00690402 0)
(8.34596 -0.00771623 0)
(8.34751 -0.00852298 0)
(8.34904 -0.00932795 0)
(8.35054 -0.0101351 0)
(8.352 -0.0109485 0)
(8.35343 -0.0117717 0)
(8.3548 -0.0126082 0)
(8.35613 -0.0134608 0)
(8.3574 -0.0143323 0)
(8.35862 -0.0152246 0)
(8.35978 -0.0161396 0)
(8.36088 -0.0170786 0)
(8.36191 -0.0180428 0)
(8.36289 -0.0190329 0)
(8.36379 -0.0200494 0)
(8.36463 -0.0210925 0)
(8.3654 -0.0221623 0)
(8.36611 -0.0232586 0)
(8.36675 -0.024381 0)
(8.36732 -0.0255292 0)
(8.36782 -0.0267014 0)
(8.33317 -0.000792062 0)
(8.33366 -0.00271843 0)
(8.33406 -0.00470499 0)
(8.33444 -0.00641264 0)
(8.33499 -0.00776719 0)
(8.33576 -0.00882319 0)
(8.33675 -0.00965487 0)
(8.33793 -0.0103261 0)
(8.33924 -0.0108885 0)
(8.34064 -0.0113822 0)
(8.34212 -0.0118377 0)
(8.34363 -0.0122774 0)
(8.34516 -0.0127176 0)
(8.34669 -0.0131698 0)
(8.34821 -0.0136421 0)
(8.3497 -0.0141402 0)
(8.35115 -0.0146677 0)
(8.35256 -0.0152272 0)
(8.35393 -0.0158202 0)
(8.35523 -0.0164476 0)
(8.35649 -0.0171099 0)
(8.35768 -0.0178071 0)
(8.3588 -0.0185389 0)
(8.35986 -0.0193051 0)
(8.36086 -0.0201051 0)
(8.36179 -0.0209381 0)
(8.36264 -0.0218035 0)
(8.36343 -0.0227005 0)
(8.36415 -0.023628 0)
(8.3648 -0.0245852 0)
(8.36538 -0.0255711 0)
(8.36588 -0.0265847 0)
(8.36632 -0.0276241 0)
(8.33263 0.000560709 0)
(8.33174 0.00194516 0)
(8.33174 0.0027795 0)
(8.33256 0.00264502 0)
(8.3338 0.00175892 0)
(8.33523 0.000477478 0)
(8.33676 -0.000966798 0)
(8.33832 -0.00245056 0)
(8.33991 -0.00390751 0)
(8.34149 -0.0053022 0)
(8.34305 -0.00661968 0)
(8.3446 -0.00785794 0)
(8.34611 -0.00902196 0)
(8.34759 -0.0101201 0)
(8.34904 -0.0111622 0)
(8.35044 -0.012158 0)
(8.3518 -0.0131172 0)
(8.3531 -0.0140483 0)
(8.35436 -0.0149589 0)
(8.35556 -0.0158558 0)
(8.3567 -0.0167446 0)
(8.35779 -0.0176302 0)
(8.35881 -0.0185168 0)
(8.35977 -0.0194077 0)
(8.36066 -0.0203058 0)
(8.36149 -0.0212132 0)
(8.36225 -0.0221317 0)
(8.36294 -0.0230628 0)
(8.36357 -0.0240075 0)
(8.36413 -0.0249664 0)
(8.36462 -0.0259399 0)
(8.36504 -0.0269282 0)
(8.3654 -0.0279306 0)
(8.33358 -0.00197454 0)
(8.33465 -0.00694591 0)
(8.33438 -0.0117672 0)
(8.33367 -0.0149666 0)
(8.33343 -0.0167715 0)
(8.33382 -0.0177691 0)
(8.33466 -0.0182821 0)
(8.33582 -0.0185043 0)
(8.33718 -0.0185706 0)
(8.33868 -0.0185682 0)
(8.34025 -0.0185515 0)
(8.34187 -0.0185535 0)
(8.34349 -0.0185932 0)
(8.34509 -0.0186809 0)
(8.34667 -0.0188212 0)
(8.3482 -0.0190156 0)
(8.34968 -0.0192636 0)
(8.3511 -0.0195633 0)
(8.35247 -0.0199126 0)
(8.35376 -0.0203089 0)
(8.35499 -0.0207496 0)
(8.35615 -0.0212323 0)
(8.35724 -0.0217545 0)
(8.35826 -0.0223141 0)
(8.3592 -0.022909 0)
(8.36007 -0.0235373 0)
(8.36087 -0.0241972 0)
(8.3616 -0.024887 0)
(8.36225 -0.0256052 0)
(8.36283 -0.0263504 0)
(8.36333 -0.0271211 0)
(8.36377 -0.0279164 0)
(8.36414 -0.0287342 0)
(8.33162 0.00368383 0)
(8.32827 0.0102148 0)
(8.32843 0.0133591 0)
(8.33097 0.0132863 0)
(8.33354 0.0111985 0)
(8.3357 0.00832624 0)
(8.33762 0.00529709 0)
(8.33938 0.00235204 0)
(8.34102 -0.000397067 0)
(8.34255 -0.00290233 0)
(8.34402 -0.00515854 0)
(8.34544 -0.00718181 0)
(8.34682 -0.00899657 0)
(8.34816 -0.0106297 0)
(8.34947 -0.0121077 0)
(8.35075 -0.0134549 0)
(8.352 -0.0146931 0)
(8.35321 -0.015841 0)
(8.35438 -0.016915 0)
(8.35552 -0.0179288 0)
(8.3566 -0.0188941 0)
(8.35764 -0.0198207 0)
(8.35863 -0.0207168 0)
(8.35957 -0.0215893 0)
(8.36045 -0.0224439 0)
(8.36127 -0.0232853 0)
(8.36203 -0.0241174 0)
(8.36273 -0.0249435 0)
(8.36336 -0.0257661 0)
(8.36393 -0.0265874 0)
(8.36443 -0.0274088 0)
(8.36487 -0.0282315 0)
(8.36524 -0.029056 0)
(8.33429 -0.00644022 0)
(8.33461 -0.0207071 0)
(8.3307 -0.0299557 0)
(8.32667 -0.0339765 0)
(8.32474 -0.0348853 0)
(8.32481 -0.0343544 0)
(8.32596 -0.033197 0)
(8.32766 -0.031808 0)
(8.32968 -0.0304101 0)
(8.3319 -0.0291205 0)
(8.3342 -0.0279908 0)
(8.33654 -0.0270376 0)
(8.33887 -0.0262596 0)
(8.34116 -0.0256463 0)
(8.3434 -0.0251831 0)
(8.34558 -0.0248545 0)
(8.34768 -0.024645 0)
(8.34972 -0.0245404 0)
(8.35167 -0.0245281 0)
(8.35354 -0.0245968 0)
(8.35532 -0.0247367 0)
(8.35702 -0.0249393 0)
(8.35863 -0.0251974 0)
(8.36016 -0.0255048 0)
(8.36159 -0.0258561 0)
(8.36294 -0.0262467 0)
(8.3642 -0.0266726 0)
(8.36537 -0.0271306 0)
(8.36646 -0.0276175 0)
(8.36745 -0.028131 0)
(8.36837 -0.0286687 0)
(8.3692 -0.0292292 0)
(8.36995 -0.0298101 0)
(8.32884 0.0225929 0)
(8.32235 0.0427639 0)
(8.32667 0.0439924 0)
(8.33329 0.0380338 0)
(8.33777 0.0306888 0)
(8.34058 0.0235334 0)
(8.34285 0.016885 0)
(8.345 0.0109231 0)
(8.34715 0.00570366 0)
(8.34938 0.00117906 0)
(8.3517 -0.00273069 0)
(8.35411 -0.00610738 0)
(8.35659 -0.00902866 0)
(8.35912 -0.011565 0)
(8.36168 -0.0137779 0)
(8.36424 -0.0157196 0)
(8.36679 -0.0174344 0)
(8.36931 -0.0189595 0)
(8.37178 -0.020326 0)
(8.3742 -0.0215598 0)
(8.37654 -0.0226826 0)
(8.37881 -0.0237126 0)
(8.381 -0.0246648 0)
(8.38309 -0.025552 0)
(8.38509 -0.0263848 0)
(8.387 -0.027172 0)
(8.3888 -0.0279212 0)
(8.39051 -0.0286387 0)
(8.39211 -0.0293298 0)
(8.39361 -0.0299991 0)
(8.395 -0.0306505 0)
(8.3963 -0.0312867 0)
(8.39749 -0.0319119 0)
(8.32436 -0.0380322 0)
(8.29386 -0.0683287 0)
(8.27214 -0.0717142 0)
(8.26666 -0.0686298 0)
(8.27355 -0.0643008 0)
(8.28617 -0.0594887 0)
(8.30091 -0.0548208 0)
(8.3162 -0.0506604 0)
(8.33121 -0.047069 0)
(8.34547 -0.0440215 0)
(8.35877 -0.0414731 0)
(8.37107 -0.0393649 0)
(8.38237 -0.0376349 0)
(8.39271 -0.0362262 0)
(8.40215 -0.0350887 0)
(8.41075 -0.0341792 0)
(8.41858 -0.0334611 0)
(8.42571 -0.032904 0)
(8.43218 -0.0324823 0)
(8.43806 -0.0321747 0)
(8.44338 -0.0319638 0)
(8.4482 -0.031835 0)
(8.45255 -0.0317763 0)
(8.45647 -0.0317777 0)
(8.45999 -0.0318306 0)
(8.46314 -0.0319282 0)
(8.46595 -0.0320644 0)
(8.46843 -0.0322342 0)
(8.47062 -0.0324334 0)
(8.47253 -0.0326583 0)
(8.47419 -0.0329054 0)
(8.4756 -0.033172 0)
(8.47679 -0.0334542 0)
(8.34002 0.156988 0)
(8.38198 0.148996 0)
(8.40248 0.103372 0)