/*--------------------------------*- C++ -*----------------------------------*\
| =========                 |                                                 |
| \\      /  F ield         | OpenFOAM: The Open Source CFD Toolbox           |
|  \\    /   O peration     | Version:  2.1.1                                 |
|   \\  /    A nd           | Web:      www.OpenFOAM.org                      |
|    \\/     M anipulation  |                                                 |
\*---------------------------------------------------------------------------*/
FoamFile
{
    version     2.0;
    format      ascii;
    class       volScalarField;
    location    "0.07";
    object      epsilon;
}
// * * * * * * * * * * * * * * * * * * * * * * * * * * * * * * * * * * * * * //

dimensions      [0 2 -3 0 0 0 0];

internalField   nonuniform List<scalar> 
6820
(
151.448
203.151
260.735
321.761
383.626
443.718
499.749
550.007
593.436
629.591
658.538
680.716
696.8
707.583
713.894
716.525
716.207
713.578
709.188
703.493
696.868
689.613
681.965
674.108
666.18
658.284
650.489
642.856
635.332
628.305
619.92
618.945
583.232
11.7448
21.4179
29.9458
38.6288
47.5886
56.5715
65.341
73.6961
81.4748
88.5688
94.9237
100.533
105.426
109.662
113.311
116.453
119.165
121.523
123.592
125.432
127.095
128.624
130.056
131.424
132.756
134.077
135.414
136.799
138.264
139.894
141.72
144.211
147.142
5.83781
7.5167
9.20636
10.8088
12.3192
13.7465
15.0874
16.338
17.4969
18.5638
19.5406
20.431
21.2403
21.9749
22.6424
23.2503
23.8064
24.3183
24.7929
25.237
25.6564
26.0565
26.4419
26.817
27.1856
27.551
27.9166
28.2855
28.6613
29.048
29.4533
29.8701
30.3806
5.2423
5.56004
6.00441
6.49338
6.98551
7.46157
7.91246
8.33388
8.72413
9.08306
9.41142
9.71054
9.98212
10.2281
10.4504
10.6511
10.8322
10.9956
11.1431
11.2766
11.3976
11.5077
11.6081
11.7001
11.7848
11.8632
11.9359
12.0038
12.0671
12.1262
12.1805
12.2302
12.2722
5.17349
5.18677
5.2682
5.39774
5.55634
5.72963
5.90771
6.08417
6.25496
6.41766
6.57088
6.71391
6.84651
6.96876
7.08092
7.18341
7.27671
7.36139
7.43803
7.5072
7.5695
7.62551
7.67576
7.72079
7.76109
7.79713
7.82933
7.85807
7.8837
7.90651
7.92668
7.94446
7.95962
5.16878
5.12132
5.09603
5.09482
5.11536
5.15308
5.20299
5.26076
5.32294
5.38696
5.45095
5.51358
5.57393
5.6314
5.6856
5.7363
5.78341
5.82693
5.86691
5.90347
5.93674
5.9669
5.99414
6.01863
6.04059
6.06022
6.07771
6.09327
6.1071
6.11938
6.13031
6.14003
6.14873
5.16887
5.11169
5.06115
5.01963
4.9884
4.96754
4.95615
4.95279
4.95588
4.96388
4.97547
4.98953
5.00514
5.02159
5.03832
5.0549
5.07102
5.08642
5.10096
5.11452
5.12703
5.13846
5.14881
5.1581
5.16636
5.17364
5.18
5.18552
5.19026
5.19432
5.19778
5.20073
5.20325
5.16902
5.11063
5.05515
5.00339
4.95619
4.91413
4.87745
4.84609
4.8197
4.79779
4.77978
4.7651
4.75318
4.74352
4.73568
4.72926
4.72396
4.7195
4.71564
4.71222
4.70909
4.70613
4.70325
4.70039
4.69749
4.69453
4.69149
4.68836
4.68515
4.68187
4.67854
4.67518
4.67182
5.16904
5.11054
5.05431
5.00049
4.94927
4.90089
4.85557
4.81343
4.77452
4.73877
4.70605
4.67617
4.6489
4.62399
4.6012
4.58029
4.56104
4.54325
4.52673
4.51132
4.49688
4.48328
4.47041
4.45819
4.44654
4.43539
4.42469
4.41439
4.40448
4.39492
4.38569
4.37678
4.36819
5.16904
5.11054
5.05421
5.00002
4.94795
4.89802
4.85025
4.80469
4.76134
4.72023
4.68132
4.64457
4.60991
4.57724
4.54646
4.51745
4.49009
4.46427
4.43986
4.41675
4.39485
4.37405
4.35426
4.33541
4.31741
4.30021
4.28375
4.26798
4.25284
4.23831
4.22436
4.21095
4.19807
5.16904
5.11053
5.05418
4.99994
4.94772
4.89747
4.84911
4.80262
4.75796
4.71509
4.67399
4.63461
4.59693
4.56089
4.52645
4.49353
4.46208
4.43203
4.40331
4.37585
4.34959
4.32446
4.3004
4.27735
4.25524
4.23403
4.21366
4.1941
4.1753
4.15723
4.13984
4.12312
4.10703
5.16904
5.11053
5.05417
4.99991
4.94767
4.89735
4.84887
4.80216
4.75716
4.7138
4.67203
4.6318
4.59307
4.55578
4.51989
4.48536
4.45213
4.42016
4.38941
4.35982
4.33135
4.30394
4.27757
4.25217
4.22772
4.20416
4.18146
4.15958
4.1385
4.11817
4.09856
4.07966
4.06143
5.16904
5.11052
5.05416
4.9999
4.94764
4.8973
4.8488
4.80204
4.75696
4.71347
4.67153
4.63106
4.592
4.55431
4.51794
4.48282
4.44893
4.41621
4.38462
4.35413
4.32468
4.29624
4.26878
4.24225
4.21662
4.19186
4.16794
4.14482
4.12247
4.10088
4.08001
4.05984
4.04035
5.16904
5.11052
5.05415
4.99988
4.94762
4.89727
4.84876
4.80198
4.75688
4.71336
4.67137
4.63084
4.59169
4.55389
4.51736
4.48207
4.44796
4.41498
4.38309
4.35226
4.32244
4.29359
4.26568
4.23867
4.21253
4.18724
4.16275
4.13905
4.1161
4.09389
4.07239
4.05157
4.03142
5.16903
5.11051
5.05414
4.99987
4.9476
4.89725
4.84872
4.80194
4.75683
4.7133
4.67129
4.63074
4.59157
4.55373
4.51716
4.48181
4.44763
4.41458
4.3826
4.35165
4.3217
4.29271
4.26464
4.23745
4.21112
4.18562
4.16091
4.13697
4.11377
4.09129
4.06951
4.04841
4.02796
5.16903
5.11051
5.05414
4.99986
4.94758
4.89723
4.8487
4.80191
4.75678
4.71325
4.67123
4.63067
4.59149
4.55363
4.51705
4.48169
4.44749
4.41441
4.3824
4.35142
4.32143
4.29239
4.26427
4.23702
4.21063
4.18505
4.16026
4.13624
4.11295
4.09037
4.06849
4.04727
4.0267
5.16903
5.11051
5.05413
4.99985
4.94757
4.89721
4.84867
4.80188
4.75675
4.7132
4.67118
4.63061
4.59142
4.55356
4.51697
4.48159
4.44739
4.41429
4.38228
4.35129
4.32128
4.29223
4.26409
4.23683
4.21042
4.18482
4.16001
4.13596
4.11264
4.09003
4.06811
4.04686
4.02624
5.16903
5.1105
5.05413
4.99984
4.94756
4.89719
4.84865
4.80185
4.75671
4.71316
4.67113
4.63055
4.59136
4.55349
4.5169
4.48151
4.4473
4.4142
4.38218
4.35118
4.32118
4.29212
4.26397
4.23671
4.21029
4.18469
4.15987
4.13581
4.11248
4.08987
4.06793
4.04667
4.02604
5.16903
5.1105
5.05412
4.99983
4.94755
4.89718
4.84863
4.80183
4.75668
4.71313
4.67109
4.6305
4.5913
4.55343
4.51683
4.48144
4.44722
4.41412
4.38209
4.35109
4.32108
4.29202
4.26387
4.2366
4.21018
4.18458
4.15976
4.1357
4.11237
4.08975
4.06781
4.04654
4.02591
5.16903
5.1105
5.05412
4.99983
4.94754
4.89716
4.84861
4.8018
4.75666
4.7131
4.67105
4.63046
4.59126
4.55338
4.51677
4.48138
4.44715
4.41405
4.38201
4.35101
4.32099
4.29193
4.26378
4.23651
4.21009
4.18448
4.15966
4.13559
4.11226
4.08964
4.0677
4.04643
4.02579
5.16903
5.1105
5.05411
4.99982
4.94753
4.89715
4.8486
4.80178
4.75663
4.71307
4.67102
4.63042
4.59121
4.55333
4.51671
4.48132
4.44709
4.41398
4.38194
4.35093
4.32091
4.29184
4.26369
4.23642
4.20999
4.18438
4.15956
4.13549
4.11216
4.08953
4.06759
4.04631
4.02567
5.16903
5.11049
5.05411
4.99982
4.94752
4.89714
4.84858
4.80177
4.75661
4.71304
4.67099
4.63039
4.59117
4.55328
4.51667
4.48126
4.44703
4.41391
4.38187
4.35086
4.32084
4.29177
4.26361
4.23633
4.2099
4.18429
4.15946
4.13539
4.11205
4.08942
4.06748
4.04619
4.02554
5.16903
5.11049
5.05411
4.99981
4.94752
4.89713
4.84857
4.80175
4.75659
4.71302
4.67096
4.63036
4.59114
4.55324
4.51662
4.48122
4.44698
4.41386
4.38181
4.35079
4.32077
4.29169
4.26353
4.23625
4.20981
4.1842
4.15936
4.13529
4.11195
4.08931
4.06736
4.04606
4.0254
5.16903
5.11049
5.05411
4.99981
4.94751
4.89713
4.84856
4.80174
4.75658
4.713
4.67094
4.63033
4.59111
4.55321
4.51658
4.48117
4.44693
4.4138
4.38175
4.35073
4.3207
4.29162
4.26346
4.23617
4.20973
4.18411
4.15927
4.13519
4.11184
4.08919
4.06723
4.04593
4.02525
5.16903
5.11049
5.0541
4.99981
4.94751
4.89712
4.84855
4.80173
4.75656
4.71298
4.67092
4.6303
4.59108
4.55318
4.51654
4.48113
4.44688
4.41375
4.3817
4.35067
4.32064
4.29155
4.26338
4.23609
4.20965
4.18402
4.15917
4.13509
4.11173
4.08908
4.0671
4.04579
4.0251
5.16903
5.11049
5.0541
4.9998
4.9475
4.89712
4.84855
4.80172
4.75655
4.71297
4.6709
4.63029
4.59105
4.55315
4.51651
4.4811
4.44685
4.41371
4.38165
4.35062
4.32058
4.29149
4.26332
4.23602
4.20957
4.18393
4.15908
4.13499
4.11162
4.08896
4.06697
4.04564
4.02495
5.16903
5.11049
5.0541
4.9998
4.9475
4.89711
4.84854
4.80171
4.75654
4.71295
4.67088
4.63026
4.59103
4.55312
4.51648
4.48106
4.44681
4.41367
4.38161
4.35057
4.32053
4.29143
4.26325
4.23595
4.20949
4.18385
4.15899
4.13488
4.11151
4.08884
4.06684
4.0455
4.02479
5.16903
5.11049
5.0541
4.9998
4.9475
4.89711
4.84854
4.80171
4.75654
4.71295
4.67088
4.63026
4.59102
4.55311
4.51647
4.48104
4.44678
4.41364
4.38157
4.35054
4.32049
4.29138
4.2632
4.23589
4.20942
4.18377
4.15891
4.13479
4.11141
4.08872
4.06672
4.04536
4.02464
5.16903
5.11049
5.0541
4.9998
4.9475
4.8971
4.84853
4.8017
4.75652
4.71293
4.67086
4.63023
4.59099
4.55308
4.51644
4.48101
4.44675
4.4136
4.38153
4.35049
4.32044
4.29133
4.26314
4.23582
4.20935
4.18369
4.15882
4.1347
4.1113
4.08861
4.06659
4.04522
4.02448
5.16903
5.11049
5.0541
4.9998
4.9475
4.89711
4.84854
4.80171
4.75654
4.71295
4.67088
4.63025
4.59101
4.5531
4.51645
4.48102
4.44676
4.41361
4.38153
4.35049
4.32043
4.29132
4.26312
4.23579
4.20932
4.18365
4.15877
4.13464
4.11123
4.08852
4.06649
4.04511
4.02436
5.16903
5.11049
5.0541
4.9998
4.9475
4.8971
4.84853
4.80169
4.75652
4.71293
4.67085
4.63023
4.59099
4.55307
4.51642
4.48099
4.44673
4.41358
4.3815
4.35046
4.3204
4.29128
4.26308
4.23576
4.20928
4.18361
4.15872
4.13459
4.11118
4.08846
4.06643
4.04504
4.02428
5.16903
5.11049
5.0541
4.99981
4.94752
4.89715
4.84859
4.80177
4.75661
4.71303
4.67096
4.63034
4.5911
4.55319
4.51654
4.48111
4.44684
4.4137
4.38162
4.35057
4.32051
4.2914
4.2632
4.23588
4.2094
4.18374
4.15885
4.13472
4.11132
4.08862
4.06659
4.04521
4.02446
5.16903
5.11051
5.05413
4.99985
4.94756
4.89718
4.84861
4.80178
4.75662
4.71304
4.67097
4.63036
4.59114
4.55324
4.51662
4.48121
4.44697
4.41386
4.38182
4.35081
4.3208
4.29174
4.2636
4.23634
4.20992
4.18433
4.15951
4.13546
4.11214
4.08952
4.06758
4.04629
4.02563
5.16903
5.1105
5.05415
4.99992
4.9477
4.89739
4.84891
4.80215
4.75705
4.71354
4.67155
4.63101
4.59187
4.55407
4.51755
4.48228
4.44819
4.41524
4.38339
4.3526
4.32281
4.294
4.26613
4.23915
4.21304
4.18777
4.16329
4.13959
4.11663
4.09439
4.07283
4.05194
4.03169
5.16905
5.11063
5.0544
5.00025
4.94809
4.89785
4.84947
4.80288
4.75802
4.71483
4.67325
4.63321
4.59466
4.55754
4.5218
4.48737
4.45421
4.42227
4.39149
4.36182
4.33323
4.30565
4.27907
4.25342
4.22867
4.20478
4.18171
4.15944
4.13792
4.11712
4.09702
4.07759
4.05879
5.16908
5.11079
5.05488
5.00137
4.95018
4.90122
4.85443
4.80976
4.76715
4.72655
4.68789
4.65109
4.61607
4.58274
4.55103
4.52083
4.49207
4.46467
4.43854
4.41361
4.38981
4.36706
4.34531
4.32449
4.30454
4.28542
4.26708
4.24946
4.23252
4.21623
4.20055
4.18544
4.17087
5.16939
5.11358
5.062
5.01464
4.9715
4.93253
4.89754
4.86627
4.8384
4.8136
4.79156
4.77196
4.75453
4.73899
4.72513
4.71272
4.70158
4.69154
4.68247
4.67421
4.66668
4.65976
4.65336
4.64741
4.64185
4.63661
4.63164
4.6269
4.62234
4.61794
4.61365
4.60947
4.60535
5.17809
5.16327
5.16956
5.19131
5.22458
5.26632
5.31415
5.36619
5.421
5.4775
5.53484
5.59237
5.64958
5.70608
5.76158
5.81586
5.86874
5.92011
5.9699
6.01805
6.06453
6.10934
6.15248
6.19397
6.23383
6.2721
6.30881
6.344
6.37772
6.41002
6.44094
6.47054
6.49888
5.6386
6.43041
7.1458
7.82527
8.49387
9.14563
9.77466
10.3786
10.9573
11.5117
12.0431
12.5531
13.0433
13.515
13.9697
14.4083
14.8321
15.2418
15.6383
16.0224
16.3948
16.7561
17.1068
17.4476
17.779
18.1015
18.4155
18.7216
19.0202
19.3118
19.5967
19.8754
20.1483
44.7794
48.3124
51.8864
55.4656
59.0311
62.5709
66.0745
69.5321
72.935
76.2754
79.5465
82.7425
85.8585
88.8906
91.8356
94.691
97.4554
100.128
102.707
105.194
107.589
109.892
112.106
114.231
116.269
118.221
120.091
121.881
123.591
125.226
126.787
128.276
129.698
693.062
828.329
955.656
1078.14
1190.62
1277.57
1321.63
1312.73
1255.32
1166.76
1067.06
970.953
885.639
812.635
750.886
698.884
655.432
619.724
590.885
567.919
549.804
535.511
524.066
514.574
506.203
498.144
489.586
479.702
467.649
452.582
433.663
410.086
381.126
346.239
305.224
258.492
207.435
154.845
105.082
63.4171
33.9973
17.3452
10.0339
7.55344
6.98028
7.05199
7.31314
7.60188
7.8562
8.05146
8.18042
8.24542
8.25405
8.21623
8.14229
8.04177
7.92296
7.79268
7.65639
7.5184
7.38203
7.24986
7.12387
7.00557
6.89605
6.79605
6.70597
6.6259
6.55567
6.49481
6.44257
6.39789
6.35934
6.32508
6.29286
6.26005
6.22368
6.18057
6.12753
6.06156
5.98012
5.88126
5.7637
5.6268
5.47029
5.29401
5.0976
4.88039
4.6416
4.38077
4.09862
3.79795
3.48443
3.16677
2.85623
2.56513
2.30508
2.08286
1.91208
1.72752
153.006
162.499
177.873
203.129
243.168
302.105
381.742
479.16
585.207
685.672
765.43
813.948
828.941
815.955
784.728
745.024
704.088
665.807
631.788
602.187
576.399
553.699
533.437
514.988
497.672
480.726
463.33
444.646
423.857
400.192
372.965
341.621
305.837
265.666
221.747
175.57
129.692
87.6775
53.3985
29.5071
15.8664
9.61965
7.30104
6.63854
6.59963
6.78522
7.03918
7.29239
7.5107
7.67774
7.78809
7.84343
7.84968
7.81485
7.74745
7.65555
7.54628
7.42562
7.29847
7.16871
7.03945
6.9131
6.79156
6.67631
6.56847
6.46882
6.37789
6.29593
6.22293
6.15866
6.10263
6.05407
6.01187
5.97457
5.94032
5.90688
5.87168
5.8319
5.78461
5.72698
5.65648
5.57105
5.46918
5.3499
5.21261
5.0568
4.88188
4.68698
4.47113
4.23369
3.97504
3.69752
3.40613
3.10883
2.81611
2.53969
2.29089
2.07655
1.91068
1.72932
30.8807
31.4085
32.1023
33.2753
35.5543
40.2183
49.4299
66.099
93.1447
132.443
183.865
244.706
309.931
373.223
428.439
471.027
498.864
512.638
513.53
504.984
490.78
473.819
455.771
437.274
418.315
398.554
377.534
354.778
329.838
302.344
272.059
238.977
203.444
166.298
129.002
93.6573
62.7735
38.6272
22.3142
13.0688
8.68888
6.90916
6.30268
6.20051
6.31842
6.52784
6.76273
6.98564
7.17495
7.31933
7.41487
7.46285
7.46794
7.43658
7.3758
7.29238
7.19243
7.08121
6.96306
6.84153
6.71946
6.59913
6.48234
6.37053
6.2648
6.16599
6.07467
5.99121
5.91575
5.84824
5.78841
5.73575
5.68946
5.64843
5.6112
5.57593
5.54048
5.50239
5.45908
5.40793
5.34652
5.27271
5.18485
5.08167
4.96225
4.8258
4.67146
4.49815
4.30473
4.09031
3.85495
3.60046
3.33112
3.05408
2.77904
2.51707
2.27918
2.07231
1.91093
1.73215
12.3163
12.3639
12.3894
12.3557
12.209
11.9059
11.4899
11.2448
11.8306
14.2299
19.6062
29.1535
43.801
63.8369
88.6433
116.745
146.159
174.64
201.122
223.75
240.872
251.662
256.149
254.955
248.943
238.941
225.599
209.376
190.608
169.613
146.806
122.804
98.5002
75.0762
53.9138
36.3476
23.27
14.7368
9.90066
7.47633
6.36997
5.928
5.82561
5.90239
6.07111
6.27912
6.49244
6.68868
6.85354
6.97908
7.06242
7.10455
7.10913
7.08133
7.02692
6.95159
6.86056
6.7584
6.649
6.53556
6.42068
6.3065
6.19471
6.0867
5.98354
5.88607
5.79492
5.7105
5.63308
5.56273
5.49937
5.4427
5.3922
5.34707
5.30621
5.2682
5.23129
5.19346
5.15246
5.10598
5.05175
4.98767
4.91197
4.82318
4.72011
4.60167
4.46675
4.31407
4.14229
3.95029
3.73775
3.50594
3.25841
3.00146
2.74394
2.49623
2.26906
2.06941
1.91228
1.73568
7.97434
7.98875
7.99982
8.00338
7.9888
7.93316
7.79571
7.52321
7.08368
6.5213
6.01532
5.90316
6.5625
8.27732
11.2483
15.6029
21.341
28.2397
35.9583
44.2784
52.7893
60.9122
67.9916
73.411
76.6914
77.5509
75.9189
71.9215
65.8543
58.1574
49.395
40.2294
31.3719
23.4952
17.1069
12.4217
9.31523
7.426
6.35004
5.77903
5.5208
5.46023
5.52452
5.6645
5.84522
6.04084
6.23201
6.4045
6.54848
6.65816
6.73134
6.76874
6.77319
6.74883
6.70037
6.63257
6.54989
6.45632
6.35527
6.24965
6.14184
6.03382
5.92719
5.82326
5.72307
5.62745
5.53703
5.45227
5.37349
5.30087
5.23445
5.17411
5.11957
5.07028
5.02549
4.98413
4.94487
4.90608
4.86594
4.82244
4.77355
4.7173
4.65188
4.57568
4.48728
4.38535
4.26852
4.13531
3.98419
3.81377
3.62337
3.41371
3.18759
2.95043
2.7102
2.4766
2.25998
2.0674
1.91436
1.73969
6.15749
6.16616
6.17411
6.18178
6.18907
6.19448
6.19324
6.17382
6.11517
5.98962
5.77684
5.49272
5.20521
5.01259
5.02035
5.32619
5.99811
7.07075
8.47765
10.0138
11.598
13.1631
14.6286
15.8966
16.8608
17.421
17.5027
17.0749
16.1629
14.8518
13.2774
11.6046
9.99542
8.57678
7.41911
6.53633
5.90438
5.48416
5.23568
5.12267
5.11349
5.18128
5.30329
5.46005
5.63479
5.8131
5.98286
6.13437
6.26051
6.35684
6.42156
6.45512
6.45969
6.43855
6.39556
6.33467
6.25971
6.17412
6.08094
5.98277
5.8818
5.77986
5.67844
5.57879
5.48189
5.38855
5.29939
5.21489
5.1354
5.06116
4.99231
4.92885
4.87066
4.81744
4.76869
4.7237
4.68148
4.64084
4.60033
4.55833
4.51309
4.46283
4.4058
4.34034
4.26484
4.17778
4.07756
3.96249
3.83084
3.68097
3.51184
3.3236
3.11832
2.90052
2.6773
2.45762
2.25144
2.06585
1.91683
1.74396
5.20565
5.20786
5.20987
5.21218
5.21538
5.21993
5.22594
5.23267
5.23748
5.23449
5.21403
5.16528
5.08335
4.97604
4.86659
4.79104
4.78759
4.89312
5.10339
5.38242
5.70013
6.02942
6.3452
6.62398
6.84431
6.988
7.04204
7.00072
6.86722
6.65408
6.38199
6.07693
5.76625
5.47483
5.2223
5.02178
4.88001
4.79846
4.77454
4.8028
4.87587
4.98513
5.12127
5.2747
5.43587
5.59564
5.74568
5.87889
5.9898
6.07487
6.13253
6.16298
6.16783
6.14968
6.11166
6.05708
5.98917
5.91095
5.82509
5.73395
5.63951
5.54347
5.44722
5.35193
5.25855
5.16784
5.08041
4.99673
4.91717
4.842
4.7714
4.70547
4.64421
4.5875
4.53505
4.48642
4.44098
4.39788
4.35608
4.31433
4.27124
4.22527
4.17482
4.11823
4.05383
3.97991
3.89468
3.79627
3.68272
3.55218
3.40324
3.23551
3.05033
2.85136
2.64477
2.43881
2.24299
2.06436
1.91937
1.74828
4.6679
4.66337
4.6589
4.65478
4.65138
4.6491
4.64829
4.64924
4.65192
4.65573
4.65905
4.65885
4.6512
4.63273
4.60284
4.56559
4.52959
4.50822
4.50881
4.53327
4.57852
4.63831
4.7049
4.77024
4.82682
4.86831
4.89005
4.88947
4.8664
4.8231
4.76412
4.69582
4.62567
4.56147
4.51053
4.47903
4.47153
4.49075
4.53754
4.61094
4.70842
4.82607
4.95891
5.10115
5.24651
5.38849
5.52091
5.63828
5.73621
5.81176
5.86348
5.89138
5.89662
5.88121
5.8477
5.79882
5.73735
5.66588
5.58681
5.50223
5.41396
5.32357
5.23237
5.14145
5.05172
4.96389
4.87856
4.79619
4.71714
4.64168
4.57004
4.50236
4.43872
4.37911
4.32342
4.27142
4.22276
4.17691
4.13319
4.09074
4.04853
4.00534
3.95977
3.91027
3.85515
3.79259
3.72066
3.63729
3.54035
3.42774
3.29773
3.14942
2.98346
2.80263
2.61225
2.41976
2.23421
2.06258
1.92169
1.75244
4.35855
4.34778
4.33724
4.32709
4.31759
4.309
4.30159
4.2956
4.29119
4.2884
4.28705
4.28664
4.28615
4.28417
4.27921
4.27037
4.25785
4.24364
4.23032
4.22021
4.2148
4.21441
4.21831
4.22497
4.23246
4.23882
4.24241
4.24215
4.23775
4.22977
4.21965
4.20962
4.20249
4.20143
4.20965
4.2301
4.26522
4.31667
4.38515
4.47035
4.5709
4.68442
4.80761
4.93641
5.06617
5.19195
5.3089
5.41259
5.49941
5.56685
5.61354
5.63931
5.64496
5.63204
5.60258
5.55885
5.50322
5.43793
5.3651
5.28662
5.20416
5.11915
5.03282
4.94621
4.86017
4.77539
4.69244
4.61176
4.53371
4.45856
4.38653
4.31781
4.2525
4.19068
4.13236
4.07745
4.02582
3.9772
3.93125
3.88745
3.84514
3.80344
3.76124
3.71716
3.66957
3.6166
3.5562
3.48618
3.40422
3.30803
3.19554
3.06541
2.91762
2.75415
2.57943
2.40013
2.22477
2.06018
1.92351
1.75628
4.18366
4.16763
4.15188
4.13656
4.12181
4.10782
4.0948
4.08294
4.07239
4.06328
4.05565
4.04941
4.04437
4.04014
4.03616
4.03179
4.0265
4.02014
4.01289
4.00518
3.99761
3.99071
3.98486
3.98025
3.97685
3.97453
3.97315
3.97267
3.97328
3.97544
3.97996
3.98798
4.0009
4.02033
4.04794
4.08529
4.13372
4.19412
4.26686
4.35164
4.44744
4.55248
4.66427
4.77967
4.89501
5.00638
5.10981
5.20169
5.27895
5.3394
5.38176
5.4057
5.41174
5.40102
5.37518
5.33609
5.28574
5.22609
5.15899
5.08616
5.00912
4.92919
4.84753
4.76511
4.68275
4.60111
4.52073
4.44204
4.36538
4.29103
4.2192
4.15008
4.08381
4.02049
3.9602
3.90298
3.84882
3.79767
3.74944
3.70393
3.66082
3.61961
3.5795
3.53933
3.49762
3.45252
3.40192
3.34352
3.27485
3.19343
3.09694
2.98361
2.85283
2.70581
2.54613
2.37967
2.2144
2.05692
1.92462
1.75963
4.08902
4.06894
4.04916
4.02976
4.01088
3.99264
3.97521
3.95874
3.94338
3.92925
3.91644
3.90498
3.89485
3.88596
3.87815
3.87117
3.86477
3.85869
3.85277
3.84694
3.84124
3.83583
3.83091
3.82673
3.82354
3.82163
3.82128
3.82286
3.8268
3.83364
3.84406
3.85889
3.87904
3.90553
3.93937
3.98152
4.03275
4.09357
4.1641
4.244
4.33238
4.42778
4.52819
4.63106
4.73342
4.83204
4.92368
5.00528
5.07424
5.12861
5.16716
5.18948
5.19582
5.18704
5.1644
5.12945
5.08386
5.02933
4.96749
4.89988
4.82788
4.75273
4.67551
4.59714
4.51839
4.43991
4.36221
4.28572
4.21076
4.1376
4.06646
3.99751
3.9309
3.86676
3.8052
3.74631
3.69018
3.63691
3.58658
3.53927
3.49498
3.45353
3.41446
3.37692
3.33961
3.30077
3.25828
3.20977
3.15266
3.08433
3.00222
2.90421
2.78916
2.65758
2.51223
2.35821
2.20289
2.0526
1.92482
1.76235
4.04098
4.01811
3.99549
3.97321
3.95135
3.93002
3.90936
3.88949
3.87056
3.85267
3.83593
3.82042
3.80618
3.79322
3.7815
3.77098
3.76155
3.7531
3.74553
3.73876
3.73278
3.72759
3.72329
3.72002
3.71799
3.71746
3.71876
3.72227
3.72844
3.73777
3.75088
3.7684
3.79104
3.81953
3.85457
3.8968
3.94672
4.00459
4.07043
4.14384
4.22406
4.30984
4.3995
4.49092
4.58167
4.66904
4.75033
4.82294
4.88461
4.93361
4.96877
4.98958
4.99612
4.98898
4.96915
4.93788
4.89656
4.84666
4.78962
4.72682
4.65951
4.58885
4.51583
4.44134
4.36611
4.29076
4.2158
4.14163
4.06858
3.99691
3.92684
3.85852
3.79212
3.72776
3.66557
3.60566
3.54817
3.49329
3.44123
3.39226
3.34664
3.3045
3.26571
3.22975
3.19556
3.16152
3.12556
3.08528
3.03804
2.98108
2.91169
2.82746
2.72679
2.60955
2.47773
2.33568
2.19014
2.04706
1.92397
1.76435
4.01842
3.99384
3.96946
3.94533
3.92154
3.89818
3.87535
3.85317
3.83176
3.81124
3.7917
3.77324
3.75593
3.73983
3.72496
3.71135
3.69898
3.68782
3.67787
3.6691
3.66153
3.65518
3.65012
3.64647
3.64438
3.64408
3.64582
3.64994
3.65683
3.66691
3.68067
3.69863
3.72135
3.74938
3.78323
3.82335
3.87007
3.92353
3.98367
4.05011
4.12215
4.19874
4.27845
4.35951
4.43987
4.51728
4.58943
4.65409
4.70931
4.7535
4.78557
4.80494
4.81156
4.80579
4.78839
4.76035
4.72285
4.67713
4.62447
4.56608
4.50312
4.43665
4.3676
4.2968
4.22497
4.15269
4.08047
4.00869
3.9377
3.86773
3.79901
3.73169
3.66594
3.60186
3.53959
3.47926
3.42101
3.36507
3.31174
3.26141
3.21453
3.1715
3.13251
3.09734
3.06521
3.0347
3.00385
2.97026
2.93124
2.88399
2.82566
2.75362
2.66591
2.56184
2.4427
2.31208
2.17607
2.04024
1.92199
1.76553
4.00872
3.98321
3.95784
3.93267
3.90775
3.88317
3.85902
3.83539
3.81239
3.79013
3.7687
3.7482
3.72872
3.71033
3.6931
3.67707
3.66228
3.64877
3.63655
3.62567
3.61617
3.60811
3.60157
3.59666
3.59352
3.59235
3.59338
3.59688
3.60315
3.61258
3.62554
3.64245
3.66375
3.68986
3.72117
3.758
3.80057
3.84895
3.90303
3.96246
4.02662
4.0946
4.16519
4.23689
4.30796
4.37649
4.44051
4.49811
4.54754
4.58738
4.61659
4.63456
4.64111
4.63645
4.62112
4.59591
4.5618
4.51985
4.47115
4.41681
4.35787
4.29531
4.22998
4.1627
4.09412
4.02482
3.9553
3.88595
3.81708
3.74896
3.68179
3.61574
3.55096
3.48757
3.42569
3.36543
3.30697
3.25052
3.19642
3.14512
3.09721
3.0533
3.01384
2.97891
2.94803
2.92001
2.89302
2.86471
2.83241
2.79326
2.74438
2.68297
2.60678
2.51466
2.40727
2.28748
2.16073
2.0321
1.91883
1.76587
4.00489
3.97893
3.95308
3.92737
3.90187
3.87663
3.85173
3.82725
3.80329
3.77994
3.75729
3.73544
3.71447
3.69447
3.67552
3.65768
3.64101
3.62558
3.61144
3.59866
3.5873
3.57745
3.56919
3.56266
3.55799
3.55535
3.55494
3.55702
3.56183
3.56968
3.5809
3.59581
3.61478
3.63811
3.66612
3.69903
3.73701
3.78007
3.82807
3.88071
3.93742
3.99743
4.05969
4.12293
4.18566
4.24626
4.30302
4.35426
4.39847
4.43433
4.46087
4.47744
4.48379
4.47998
4.4664
4.44366
4.41254
4.37395
4.32885
4.27821
4.22298
4.16404
4.10221
4.03824
3.97276
3.90635
3.83947
3.77252
3.70581
3.63961
3.57412
3.50953
3.44597
3.38356
3.32242
3.26267
3.20445
3.14797
3.09357
3.04173
2.99311
2.94846
2.90846
2.87346
2.84325
2.8169
2.79273
2.76849
2.74154
2.70904
2.66806
2.61576
2.54968
2.46827
2.37166
2.26204
2.14419
2.02269
1.91448
1.76533
4.00348
3.97734
3.95127
3.92532
3.89952
3.87395
3.84864
3.82369
3.79916
3.77513
3.75171
3.72896
3.70698
3.68585
3.66565
3.64646
3.62835
3.61139
3.59567
3.58126
3.56824
3.5567
3.54676
3.53853
3.53215
3.52778
3.52562
3.52587
3.52876
3.53455
3.54351
3.55592
3.57206
3.59219
3.61654
3.6453
3.67856
3.71633
3.75846
3.80465
3.85443
3.90711
3.9618
4.01739
4.07262
4.12609
4.17631
4.22182
4.26127
4.29346
4.31747
4.33264
4.33866
4.33548
4.32335
4.30272
4.27424
4.23866
4.1968
4.14953
4.0977
4.04212
3.98356
3.92271
3.86019
3.79654
3.73222
3.66763
3.60307
3.53883
3.4751
3.41208
3.3499
3.28869
3.22855
3.16961
3.11199
3.05588
3.0016
2.94963
2.90065
2.85551
2.81503
2.77982
2.74991
2.72462
2.70245
2.68127
2.65849
2.63132
2.59686
2.55223
2.49486
2.42295
2.33612
2.23595
2.12659
2.01209
1.90899
1.76394
4.00297
3.97675
3.95059
3.92453
3.8986
3.87285
3.84732
3.82209
3.79721
3.77276
3.74882
3.72546
3.70276
3.68081
3.65969
3.63946
3.62023
3.60205
3.58502
3.56922
3.55474
3.54169
3.53016
3.52029
3.51221
3.50607
3.50204
3.50032
3.50112
3.50465
3.51114
3.52084
3.53398
3.55077
3.5714
3.596
3.62465
3.65733
3.6939
3.73408
3.77746
3.82344
3.87124
3.91992
3.96838
4.01541
4.05972
4.10002
4.1351
4.16388
4.18549
4.19926
4.20484
4.20209
4.19114
4.17232
4.14614
4.11322
4.07429
4.03008
3.98137
3.9289
3.87338
3.81546
3.75574
3.69473
3.63288
3.57058
3.50814
3.44585
3.38392
3.32253
3.26183
3.20195
3.143
3.08509
3.02833
2.97291
2.9191
2.86735
2.81835
2.77297
2.73218
2.69674
2.66693
2.64228
2.62151
2.60258
2.58301
2.56004
2.53083
2.49256
2.44261
2.37898
2.30092
2.20947
2.10814
2.00044
1.90245
1.76173
4.00275
3.9765
3.9503
3.92419
3.89818
3.87233
3.84667
3.82125
3.79614
3.77139
3.74708
3.72327
3.70004
3.67746
3.65561
3.63457
3.61442
3.59524
3.5771
3.56011
3.54436
3.52994
3.51697
3.50556
3.49586
3.48799
3.48213
3.47845
3.47714
3.47838
3.48239
3.48937
3.49952
3.51301
3.53001
3.55061
3.57487
3.60276
3.63414
3.66877
3.70628
3.74614
3.78769
3.83011
3.87244
3.91363
3.95256
3.98811
4.01917
4.04477
4.06408
4.07645
4.08148
4.07898
4.06898
4.05169
4.02752
3.99697
3.96065
3.91923
3.87337
3.82377
3.77108
3.71591
3.65882
3.60031
3.54082
3.48074
3.42038
3.36002
3.29987
3.24014
3.18098
3.12251
3.06486
3.00812
2.95242
2.8979
2.84481
2.79357
2.74484
2.6995
2.65858
2.62298
2.59318
2.56894
2.54912
2.53185
2.5147
2.49499
2.46996
2.43688
2.39315
2.33666
2.26638
2.18286
2.08905
1.9879
1.89496
1.75876
4.0026
3.97634
3.95012
3.92397
3.89791
3.87199
3.84623
3.82068
3.79539
3.77041
3.74581
3.72164
3.69798
3.67489
3.65245
3.63073
3.60981
3.58977
3.57069
3.55266
3.53577
3.52013
3.50584
3.49302
3.4818
3.47231
3.4647
3.45914
3.45578
3.45482
3.45643
3.46078
3.46806
3.4784
3.49195
3.50878
3.52892
3.55235
3.57894
3.60846
3.6406
3.67489
3.71076
3.74748
3.78425
3.82014
3.85418
3.88536
3.91271
3.93533
3.95244
3.96341
3.96782
3.96541
3.95615
3.94015
3.91772
3.88926
3.85529
3.81638
3.77313
3.72617
3.6761
3.6235
3.56888
3.51275
3.45552
3.39757
3.33921
3.28074
3.22236
3.16429
3.10667
3.04966
2.99336
2.93789
2.88335
2.82988
2.7777
2.72718
2.67895
2.63388
2.59301
2.55737
2.52759
2.50361
2.48447
2.46842
2.4531
2.43591
2.41418
2.38527
2.34668
2.29627
2.2328
2.15644
2.06959
1.97469
1.88669
1.75513
4.00248
3.9762
3.94996
3.92378
3.89768
3.87169
3.84585
3.82018
3.79474
3.76957
3.74473
3.72026
3.69624
3.67272
3.64977
3.62746
3.60588
3.58508
3.56517
3.54622
3.52832
3.51158
3.49609
3.48197
3.46935
3.45834
3.4491
3.44176
3.43649
3.43344
3.43278
3.43465
3.43922
3.4466
3.45692
3.47023
3.48656
3.50587
3.52805
3.5529
3.58013
3.60934
3.64003
3.67158
3.70329
3.73435
3.7639
3.79107
3.81498
3.8348
3.84981
3.8594
3.86312
3.86068
3.85198
3.83706
3.81613
3.78951
3.75763
3.721
3.68013
3.6356
3.58796
3.53775
3.48546
3.43157
3.37649
3.32058
3.26416
3.20751
3.15087
3.09442
3.03835
2.9828
2.92789
2.87372
2.82041
2.76807
2.71691
2.66727
2.61971
2.57508
2.53443
2.49887
2.46914
2.44536
2.42674
2.41161
2.39771
2.38248
2.36333
2.33775
2.30335
2.25805
2.20048
2.13051
2.05005
1.96103
1.87781
1.75094
4.00234
3.97605
3.94979
3.92358
3.89744
3.87139
3.84547
3.8197
3.79413
3.76879
3.74373
3.719
3.69466
3.67076
3.64737
3.62455
3.60238
3.58093
3.56027
3.54049
3.52168
3.50394
3.48736
3.47206
3.45814
3.44574
3.43498
3.42599
3.41893
3.41393
3.41115
3.41071
3.41275
3.41739
3.4247
3.43476
3.44757
3.46309
3.48122
3.50179
3.52454
3.54912
3.57509
3.60193
3.62902
3.65566
3.68111
3.70459
3.7253
3.7425
3.75551
3.76373
3.76672
3.76414
3.75584
3.74181
3.72218
3.69718
3.66718
3.63259
3.5939
3.5516
3.50621
3.45823
3.40813
3.35635
3.30331
3.24935
3.19479
3.13991
3.08495
3.03011
2.97556
2.92145
2.86792
2.81507
2.76301
2.71186
2.66178
2.6131
2.56632
2.52226
2.48197
2.44658
2.41697
2.39338
2.37517
2.36079
2.34801
2.33433
2.31722
2.29429
2.26329
2.22224
2.16973
2.10538
2.03072
1.94719
1.86852
1.74632
4.0022
3.97589
3.94961
3.92336
3.89718
3.87108
3.84508
3.81922
3.79353
3.76803
3.74278
3.71782
3.6932
3.66896
3.64518
3.62191
3.59921
3.57717
3.55584
3.53532
3.51569
3.49705
3.47948
3.46309
3.44799
3.43429
3.42213
3.41162
3.4029
3.3961
3.39135
3.38877
3.38847
3.39056
3.39511
3.40217
3.41174
3.42378
3.43821
3.45486
3.47351
3.49386
3.51553
3.53807
3.56094
3.58354
3.60522
3.62529
3.64303
3.65778
3.66887
3.67576
3.67798
3.67518
3.66717
3.65387
3.63535
3.61178
3.58345
3.55072
3.514
3.47376
3.43045
3.38455
3.3365
3.28672
3.23561
3.18352
3.13075
3.07758
3.02426
2.97098
2.91792
2.86524
2.81308
2.76154
2.71073
2.66077
2.61181
2.56413
2.5182
2.4748
2.43495
2.39981
2.37035
2.34696
2.32911
2.31535
2.30353
2.29112
2.27566
2.25484
2.22659
2.18905
2.14082
2.08138
2.01191
1.93342
1.85904
1.74142
4.00205
3.97572
3.94941
3.92313
3.89691
3.87075
3.84469
3.81874
3.79293
3.76729
3.74187
3.7167
3.69182
3.66729
3.64316
3.61948
3.59632
3.57374
3.55182
3.53063
3.51026
3.49079
3.47231
3.45493
3.43875
3.42388
3.41043
3.39852
3.38827
3.3798
3.37323
3.36867
3.36622
3.36597
3.36797
3.37227
3.37886
3.38772
3.39875
3.41181
3.42672
3.4432
3.46095
3.47955
3.49856
3.51746
3.53567
3.55259
3.56758
3.58002
3.58931
3.5949
3.59634
3.59326
3.58543
3.57273
3.55517
3.53286
3.50602
3.47497
3.44006
3.4017
3.36032
3.31636
3.27024
3.22236
3.1731
3.12279
3.07175
3.02024
2.96851
2.91676
2.86516
2.81389
2.76307
2.71282
2.66326
2.61448
2.56664
2.51998
2.47494
2.43223
2.39288
2.35804
2.32876
2.30555
2.28803
2.27484
2.26384
2.25253
2.23844
2.21935
2.19332
2.15864
2.114
2.0588
1.99393
1.92003
1.84964
1.73641
4.00189
3.97554
3.9492
3.92289
3.89663
3.87042
3.84428
3.81825
3.79233
3.76657
3.74099
3.71563
3.69052
3.66572
3.64127
3.61723
3.59365
3.5706
3.54814
3.52635
3.50531
3.48509
3.4658
3.44752
3.43035
3.41439
3.39976
3.38657
3.37491
3.36491
3.35667
3.35029
3.34586
3.34345
3.34312
3.34488
3.34875
3.35468
3.3626
3.37239
3.38387
3.39682
3.41097
3.42597
3.44145
3.45694
3.47196
3.48597
3.4984
3.50869
3.51627
3.52062
3.52128
3.51789
3.51017
3.49796
3.48122
3.46001
3.43451
3.40497
3.3717
3.33508
3.2955
3.25336
3.20907
3.163
3.11551
3.06694