/*--------------------------------*- C++ -*----------------------------------*\
| =========                 |                                                 |
| \\      /  F ield         | OpenFOAM: The Open Source CFD Toolbox           |
|  \\    /   O peration     | Version:  2.1.1                                 |
|   \\  /    A nd           | Web:      www.OpenFOAM.org                      |
|    \\/     M anipulation  |                                                 |
\*---------------------------------------------------------------------------*/
FoamFile
{
    version     2.0;
    format      ascii;
    class       volScalarField;
    location    "0.07";
    object      k;
}
// * * * * * * * * * * * * * * * * * * * * * * * * * * * * * * * * * * * * * //

dimensions      [0 2 -2 0 0 0 0];

internalField   nonuniform List<scalar> 
6820
(
0.28891
0.351398
0.415005
0.477466
0.536858
0.59155
0.640356
0.6826
0.718074
0.746952
0.769675
0.786861
0.799207
0.807432
0.812225
0.81422
0.813979
0.811987
0.808653
0.804319
0.799262
0.793705
0.787827
0.781764
0.775623
0.769483
0.763397
0.757415
0.751495
0.745945
0.739295
0.738522
0.709837
0.265533
0.269397
0.270523
0.271342
0.272562
0.274223
0.27624
0.2785
0.280893
0.283334
0.285767
0.288163
0.290512
0.292821
0.295105
0.297383
0.299677
0.302008
0.304392
0.306846
0.309382
0.312008
0.314732
0.317561
0.320499
0.323554
0.326736
0.33006
0.333553
0.337286
0.3413
0.34608
0.351214
0.262038
0.264253
0.263595
0.261555
0.258999
0.256316
0.253625
0.250936
0.248238
0.245523
0.242793
0.24006
0.237344
0.234667
0.232052
0.229519
0.227088
0.224774
0.222591
0.220548
0.218652
0.216907
0.215316
0.21388
0.212597
0.211468
0.210489
0.209662
0.208984
0.208464
0.208094
0.207909
0.207877
0.259885
0.260273
0.259797
0.258536
0.256829
0.254891
0.252832
0.250708
0.248545
0.246355
0.244148
0.24193
0.239707
0.237486
0.235276
0.233083
0.230915
0.228778
0.22668
0.224625
0.222619
0.220666
0.218769
0.216931
0.215152
0.213435
0.21178
0.210186
0.208653
0.20718
0.205764
0.204407
0.203094
0.259299
0.258404
0.2576
0.256567
0.255295
0.25385
0.252292
0.250661
0.248983
0.247275
0.245548
0.243811
0.242069
0.240328
0.238592
0.236866
0.235152
0.233455
0.231777
0.230122
0.228491
0.226887
0.225312
0.223768
0.222255
0.220774
0.219326
0.217911
0.216529
0.215179
0.213861
0.212575
0.211319
0.259225
0.257848
0.256623
0.255437
0.254228
0.25297
0.251663
0.250312
0.248928
0.247521
0.246098
0.244667
0.243233
0.241799
0.24037
0.238948
0.237537
0.236138
0.234753
0.233385
0.232034
0.230701
0.229389
0.228098
0.226828
0.22558
0.224354
0.223152
0.221972
0.220814
0.21968
0.218568
0.217478
0.259217
0.257715
0.256309
0.25498
0.253698
0.252442
0.251195
0.24995
0.248703
0.247453
0.246203
0.244953
0.243706
0.242464
0.24123
0.240005
0.238791
0.237588
0.236399
0.235224
0.234064
0.23292
0.231793
0.230683
0.22959
0.228515
0.227458
0.226419
0.225399
0.224397
0.223413
0.222447
0.2215
0.259218
0.25769
0.256225
0.254822
0.253477
0.252181
0.250923
0.249695
0.248491
0.247305
0.246135
0.244979
0.243836
0.242706
0.24159
0.240486
0.239397
0.238321
0.237261
0.236215
0.235184
0.234169
0.233169
0.232186
0.231218
0.230267
0.229332
0.228413
0.22751
0.226624
0.225754
0.2249
0.224062
0.259218
0.257687
0.256207
0.25478
0.253405
0.252079
0.250799
0.249559
0.248356
0.247184
0.246041
0.244922
0.243827
0.242754
0.2417
0.240665
0.239649
0.238651
0.23767
0.236706
0.235759
0.234829
0.233915
0.233018
0.232136
0.231271
0.230422
0.229588
0.22877
0.227968
0.227181
0.22641
0.225654
0.259218
0.257686
0.256203
0.254769
0.253384
0.252045
0.250751
0.249499
0.248288
0.247113
0.245973
0.244864
0.243785
0.242734
0.241708
0.240707
0.239728
0.238771
0.237835
0.236919
0.236022
0.235144
0.234285
0.233442
0.232617
0.231809
0.231018
0.230242
0.229483
0.228739
0.228011
0.227298
0.2266
0.259218
0.257686
0.256202
0.254767
0.253378
0.252034
0.250735
0.249477
0.248259
0.247079
0.245936
0.244827
0.243751
0.242705
0.241689
0.2407
0.239737
0.238799
0.237885
0.236994
0.236124
0.235274
0.234445
0.233635
0.232844
0.232071
0.231315
0.230577
0.229855
0.22915
0.228461
0.227787
0.227129
0.259218
0.257685
0.256202
0.254766
0.253376
0.252031
0.250729
0.249468
0.248247
0.247065
0.245919
0.244808
0.24373
0.242685
0.24167
0.240685
0.239727
0.238796
0.237891
0.237009
0.236152
0.235316
0.234502
0.233709
0.232936
0.232183
0.231447
0.23073
0.230031
0.229349
0.228683
0.228035
0.227402
0.259218
0.257685
0.256201
0.254765
0.253375
0.252029
0.250727
0.249465
0.248243
0.247059
0.245911
0.244799
0.24372
0.242673
0.241658
0.240673
0.239716
0.238787
0.237884
0.237006
0.236153
0.235323
0.234516
0.23373
0.232966
0.232221
0.231497
0.230791
0.230103
0.229434
0.228782
0.228146
0.227528
0.259218
0.257685
0.256201
0.254764
0.253374
0.252028
0.250725
0.249463
0.24824
0.247055
0.245907
0.244794
0.243714
0.242667
0.241651
0.240665
0.239708
0.238779
0.237876
0.236999
0.236147
0.235319
0.234514
0.233732
0.232971
0.23223
0.23151
0.230809
0.230127
0.229464
0.228818
0.22819
0.227579
0.259218
0.257685
0.256201
0.254764
0.253374
0.252028
0.250724
0.249462
0.248239
0.247053
0.245905
0.244791
0.243711
0.242663
0.241646
0.24066
0.239702
0.238773
0.23787
0.236993
0.236142
0.235314
0.23451
0.233728
0.232968
0.232229
0.23151
0.230812
0.230132
0.229471
0.228829
0.228204
0.227597
0.259218
0.257685
0.2562
0.254764
0.253373
0.252027
0.250723
0.24946
0.248237
0.247052
0.245902
0.244788
0.243708
0.24266
0.241643
0.240656
0.239698
0.238769
0.237866
0.236989
0.236137
0.235309
0.234505
0.233723
0.232964
0.232225
0.231507
0.230809
0.230131
0.229471
0.228829
0.228206
0.2276
0.259218
0.257685
0.2562
0.254763
0.253373
0.252026
0.250722
0.249459
0.248236
0.24705
0.245901
0.244786
0.243706
0.242657
0.24164
0.240653
0.239695
0.238765
0.237862
0.236985
0.236133
0.235305
0.234501
0.233719
0.23296
0.232221
0.231503
0.230806
0.230127
0.229468
0.228827
0.228204
0.227599
0.259218
0.257685
0.2562
0.254763
0.253372
0.252026
0.250722
0.249458
0.248235
0.247049
0.245899
0.244785
0.243704
0.242655
0.241638
0.240651
0.239692
0.238762
0.237859
0.236982
0.236129
0.235302
0.234497
0.233716
0.232956
0.232218
0.2315
0.230802
0.230124
0.229465
0.228824
0.228201
0.227596
0.259218
0.257684
0.2562
0.254763
0.253372
0.252025
0.250721
0.249458
0.248234
0.247048
0.245898
0.244783
0.243702
0.242653
0.241636
0.240648
0.23969
0.238759
0.237856
0.236979
0.236126
0.235298
0.234494
0.233712
0.232953
0.232214
0.231496
0.230799
0.230121
0.229461
0.228821
0.228198
0.227592
0.259218
0.257684
0.2562
0.254763
0.253372
0.252025
0.25072
0.249457
0.248233
0.247047
0.245897
0.244782
0.2437
0.242651
0.241634
0.240646
0.239688
0.238757
0.237853
0.236976
0.236123
0.235295
0.234491
0.233709
0.232949
0.232211
0.231493
0.230796
0.230117
0.229458
0.228817
0.228194
0.227589
0.259218
0.257684
0.2562
0.254762
0.253371
0.252024
0.25072
0.249456
0.248232
0.247046
0.245895
0.24478
0.243699
0.24265
0.241632
0.240644
0.239685
0.238755
0.237851
0.236973
0.236121
0.235293
0.234488
0.233706
0.232946
0.232208
0.23149
0.230792
0.230114
0.229455
0.228814
0.22819
0.227585
0.259218
0.257684
0.256199
0.254762
0.253371
0.252024
0.250719
0.249456
0.248231
0.247045
0.245894
0.244779
0.243698
0.242648
0.24163
0.240642
0.239684
0.238753
0.237849
0.236971
0.236118
0.23529
0.234485
0.233703
0.232943
0.232205
0.231487
0.230789
0.230111
0.229451
0.22881
0.228186
0.22758
0.259218
0.257684
0.256199
0.254762
0.253371
0.252024
0.250719
0.249455
0.248231
0.247044
0.245894
0.244778
0.243696
0.242647
0.241629
0.240641
0.239682
0.238751
0.237847
0.236969
0.236116
0.235288
0.234483
0.233701
0.232941
0.232202
0.231484
0.230786
0.230107
0.229447
0.228806
0.228182
0.227576
0.259218
0.257684
0.256199
0.254762
0.253371
0.252023
0.250719
0.249455
0.24823
0.247043
0.245893
0.244777
0.243695
0.242646
0.241628
0.240639
0.23968
0.238749
0.237845
0.236967
0.236114
0.235285
0.23448
0.233698
0.232938
0.232199
0.231481
0.230782
0.230103
0.229443
0.228802
0.228177
0.227571
0.259218
0.257684
0.256199
0.254762
0.25337
0.252023
0.250718
0.249455
0.24823
0.247043
0.245892
0.244777
0.243694
0.242645
0.241626
0.240638
0.239679
0.238748
0.237843
0.236965
0.236112
0.235283
0.234478
0.233695
0.232935
0.232196
0.231477
0.230779
0.2301
0.229439
0.228797
0.228173
0.227565
0.259218
0.257684
0.256199
0.254762
0.25337
0.252023
0.250718
0.249454
0.248229
0.247042
0.245892
0.244776
0.243694
0.242644
0.241625
0.240637
0.239678
0.238746
0.237842
0.236963
0.23611
0.235281
0.234476
0.233693
0.232932
0.232193
0.231474
0.230775
0.230096
0.229435
0.228793
0.228168
0.22756
0.259218
0.257684
0.256199
0.254762
0.25337
0.252023
0.250718
0.249454
0.248229
0.247042
0.245891
0.244775
0.243693
0.242643
0.241624
0.240636
0.239676
0.238745
0.23784
0.236962
0.236108
0.235279
0.234474
0.233691
0.23293
0.23219
0.231471
0.230772
0.230092
0.229431
0.228788
0.228163
0.227555
0.259218
0.257684
0.256199
0.254762
0.25337
0.252023
0.250718
0.249454
0.248229
0.247042
0.245891
0.244775
0.243693
0.242643
0.241624
0.240635
0.239676
0.238744
0.237839
0.23696
0.236107
0.235278
0.234472
0.233689
0.232928
0.232188
0.231468
0.230769
0.230089
0.229427
0.228784
0.228158
0.227549
0.259218
0.257684
0.256199
0.254762
0.25337
0.252023
0.250718
0.249454
0.248229
0.247041
0.24589
0.244774
0.243692
0.242642
0.241623
0.240634
0.239675
0.238743
0.237838
0.236959
0.236105
0.235276
0.23447
0.233687
0.232925
0.232185
0.231466
0.230766
0.230085
0.229423
0.22878
0.228153
0.227544
0.259218
0.257684
0.256199
0.254762
0.25337
0.252023
0.250718
0.249454
0.248229
0.247042
0.245891
0.244775
0.243693
0.242643
0.241624
0.240635
0.239675
0.238743
0.237838
0.236959
0.236105
0.235276
0.234469
0.233686
0.232924
0.232184
0.231464
0.230764
0.230083
0.229421
0.228776
0.22815
0.22754
0.259218
0.257684
0.256199
0.254762
0.25337
0.252023
0.250718
0.249454
0.248229
0.247041
0.24589
0.244774
0.243692
0.242642
0.241623
0.240634
0.239674
0.238742
0.237837
0.236958
0.236105
0.235275
0.234469
0.233685
0.232923
0.232182
0.231462
0.230762
0.230081
0.229418
0.228773
0.228146
0.227536
0.259218
0.257684
0.256199
0.254762
0.253371
0.252024
0.25072
0.249456
0.248232
0.247045
0.245894
0.244778
0.243696
0.242646
0.241627
0.240638
0.239678
0.238746
0.237841
0.236962
0.236108
0.235278
0.234471
0.233687
0.232925
0.232184
0.231464
0.230763
0.230081
0.229418
0.228773
0.228145
0.227534
0.259218
0.257685
0.2562
0.254763
0.253372
0.252026
0.250721
0.249457
0.248233
0.247046
0.245895
0.24478
0.243698
0.242648
0.241629
0.240641
0.239681
0.238749
0.237844
0.236965
0.236111
0.235281
0.234474
0.23369
0.232927
0.232186
0.231464
0.230763
0.23008
0.229416
0.22877
0.228141
0.227529
0.259218
0.257685
0.256201
0.254766
0.253378
0.252034
0.250731
0.24947
0.248247
0.247061
0.245911
0.244796
0.243714
0.242664
0.241645
0.240656
0.239696
0.238763
0.237857
0.236976
0.236121
0.235289
0.23448
0.233694
0.232929
0.232185
0.231462
0.230757
0.230072
0.229404
0.228754
0.228122
0.227505
0.259219
0.257689
0.25621
0.254777
0.253389
0.252045
0.250743
0.249482
0.248259
0.247074
0.245924
0.244809
0.243727
0.242676
0.241656
0.240666
0.239703
0.238767
0.237857
0.236973
0.236112
0.235275
0.23446
0.233667
0.232895
0.232143
0.231411
0.230697
0.230002
0.229325
0.228665
0.228022
0.227395
0.25922
0.257694
0.256221
0.254799
0.253423
0.25209
0.250795
0.249539
0.248318
0.247132
0.245979
0.244858
0.243768
0.242707
0.241676
0.240671
0.239693
0.238741
0.237814
0.23691
0.23603
0.235171
0.234335
0.233519
0.232724
0.231948
0.231191
0.230453
0.229733
0.22903
0.228344
0.227674
0.22702
0.259229
0.257738
0.256292
0.254881
0.253508
0.252171
0.250871
0.249603
0.248367
0.247162
0.245986
0.244838
0.243717
0.242622
0.241554
0.240511
0.239492
0.238498
0.237526
0.236578
0.235652
0.234747
0.233863
0.233
0.232157
0.231333
0.230528
0.229742
0.228973
0.228222
0.227487
0.226769
0.226068
0.259265
0.257822
0.256453
0.255125
0.253805
0.252484
0.251165
0.249856
0.248564
0.247293
0.246049
0.244831
0.243643
0.242484
0.241354
0.240252
0.239178
0.23813
0.237109
0.236112
0.235139
0.234189
0.233262
0.232357
0.231473
0.230609
0.229765
0.22894
0.228135
0.227347
0.226578
0.225826
0.225091
0.259599
0.258632
0.257578
0.256541
0.255586
0.254712
0.253903
0.253148
0.25244
0.251777
0.251157
0.250579
0.250044
0.24955
0.249096
0.248681
0.248303
0.247961
0.247653
0.247378
0.247133
0.246919
0.246732
0.246573
0.246439
0.246329
0.246243
0.24618
0.246138
0.246117
0.246116
0.246136
0.246174
0.266719
0.280569
0.294241
0.307622
0.320667
0.333362
0.345693
0.35765
0.369226
0.380415
0.391215
0.401625
0.411646
0.421281
0.430535
0.439414
0.447925
0.456076
0.463875
0.471334
0.47846
0.485265
0.49176
0.497954
0.503859
0.509486
0.514844
0.519945
0.524799
0.529416
0.533807
0.537979
0.541947
0.834418
1.01602
1.23509
1.49186
1.77003
2.03922
2.2666
2.42994
2.52698
2.57417
2.59408
2.6041
2.61285
2.62278
2.63448
2.6491
2.66853
2.69461
2.72823
2.76912
2.81614
2.86749
2.92082
2.97336
3.02183
3.06251
3.09132
3.10391
3.09571
3.06207
2.99822
2.89947
2.76133
2.57994
2.3527
2.07962
1.76541
1.42278
1.07631
0.763475
0.525316
0.383549
0.323648
0.310997
0.318813
0.333894
0.350517
0.366113
0.379491
0.39017
0.398091
0.403453
0.406596
0.407914
0.4078
0.406609
0.404652
0.402183
0.399412
0.396506
0.393597
0.39079
0.388164
0.38578
0.383681
0.381893
0.380427
0.379284
0.378451
0.377908
0.377622
0.377554
0.377652
0.377856
0.378091
0.378272
0.378298
0.378051
0.377395
0.376178
0.374235
0.371395
0.367491
0.36237
0.355901
0.347978
0.338527
0.327506
0.314916
0.300818
0.285353
0.268772
0.251452
0.2339
0.216716
0.200533
0.185944
0.173297
0.16337
0.152361
0.361173
0.37788
0.405704
0.452612
0.5291
0.646026
0.811216
1.02439
1.27318
1.53375
1.77749
1.981
2.13383
2.23928
2.3093
2.35765
2.39537
2.42891
2.46146
2.4942
2.5272
2.56005
2.59185
2.62091
2.64466
2.6598
2.66248
2.64852
2.61358
2.55326
2.46331
2.33985
2.1798
1.9816
1.74637
1.47974
1.19419
0.911203
0.660452
0.471552
0.358129
0.308085
0.29589
0.301405
0.314153
0.32927
0.344338
0.35805
0.3697
0.378989
0.385892
0.390577
0.39332
0.394446
0.394283
0.393134
0.391266
0.388904
0.386235
0.383411
0.380553
0.37776
0.375111
0.372665
0.370469
0.368554
0.366938
0.365629
0.364623
0.363907
0.363459
0.363247
0.363228
0.36335
0.363549
0.363748
0.363854
0.363759
0.363333
0.362431
0.36089
0.358538
0.355204
0.350731
0.344978
0.337836
0.329222
0.319088
0.307428
0.29429
0.2798
0.264187
0.247801
0.231118
0.21471
0.199185
0.185121
0.172867
0.163207
0.152412
0.207763
0.207909
0.208922
0.211592
0.217322
0.228763
0.250379
0.288575
0.351044
0.445118
0.575059
0.73915
0.928611
1.12917
1.32463
1.50099
1.64946
1.76812
1.85714
1.92269
1.97201
2.01035
2.04023
2.06185
2.0739
2.07418
2.05996
2.02821
1.97569
1.89928
1.79625
1.66482
1.50485
1.31888
1.11342
0.900208
0.696572
0.523109
0.396972
0.322726
0.289792
0.281798
0.286488
0.297214
0.310525
0.324456
0.337782
0.349728
0.359841
0.367916
0.373943
0.378054
0.380469
0.381453
0.381276
0.380195
0.378438
0.376203
0.373656
0.370933
0.368147
0.365391
0.362738
0.36025
0.357972
0.35594
0.354178
0.352698
0.351506
0.350596
0.349954
0.349559
0.349376
0.349363
0.349466
0.349619
0.34974
0.349731
0.349473
0.348827
0.347635
0.345727
0.342931
0.339083
0.334039
0.327678
0.319912
0.310684
0.299978
0.28783
0.274346
0.259731
0.244305
0.228509
0.212883
0.198011
0.184459
0.172575
0.163156
0.152533
0.201636
0.20007
0.198557
0.197043
0.195511
0.194042
0.192969
0.193162
0.196294
0.204664
0.22097
0.248407
0.290561
0.350548
0.429586
0.526026
0.635487
0.751468
0.868947
0.980324
1.0787
1.15979
1.22203
1.26561
1.29137
1.29991
1.29116
1.26445
1.21884
1.15352
1.06849
0.965113
0.846873
0.719948
0.593416
0.478461
0.385889
0.322104
0.286057
0.27078
0.268425
0.273508
0.282815
0.294379
0.306855
0.319267
0.330903
0.341262
0.350029
0.357054
0.362328
0.365951
0.368095
0.368972
0.368805
0.367807
0.366174
0.364079
0.361667
0.359062
0.356367
0.353667
0.351033
0.348523
0.346184
0.344053
0.342156
0.340513
0.339133
0.33802
0.337167
0.336561
0.336179
0.335987
0.335944
0.335993
0.336067
0.336078
0.33592
0.335464
0.33456
0.333043
0.33074
0.327483
0.323122
0.317529
0.310606
0.302288
0.292547
0.281404
0.268946
0.25535
0.240901
0.226007
0.211172
0.196954
0.183906
0.172378
0.163184
0.152706
0.209891
0.208279
0.206663
0.205034
0.203372
0.201646
0.199818
0.197884
0.195969
0.194399
0.193736
0.194791
0.198416
0.205336
0.216305
0.232164
0.253635
0.280909
0.313788
0.352189
0.394815
0.43927
0.482453
0.521085
0.552185
0.573383
0.583044
0.580291
0.565006
0.537901
0.500658
0.456068
0.408043
0.361303
0.320566
0.289331
0.268821
0.257975
0.254582
0.25653
0.262251
0.270593
0.280629
0.29158
0.302779
0.313658
0.323758
0.332729
0.340339
0.346468
0.351102
0.354313
0.356234
0.357032
0.356888
0.355983
0.35448
0.35253
0.350262
0.347786
0.345195
0.342569
0.339973
0.337464
0.335086
0.332876
0.330864
0.329072
0.327515
0.326201
0.325132
0.324301
0.323696
0.323294
0.323062
0.322959
0.322928
0.322897
0.322774
0.322441
0.32176
0.320572
0.318708
0.315998
0.312285
0.307435
0.30134
0.293924
0.285149
0.275017
0.263594
0.251027
0.237568
0.223584
0.209547
0.195984
0.183436
0.172255
0.163275
0.152919
0.216232
0.21481
0.213374
0.211923
0.210452
0.208956
0.207428
0.205856
0.204226
0.202544
0.200879
0.199421
0.198454
0.198236
0.198961
0.200811
0.203957
0.208553
0.214533
0.221459
0.229259
0.237829
0.246902
0.256013
0.26452
0.271682
0.276773
0.279223
0.278744
0.275432
0.269806
0.262757
0.255399
0.248843
0.243961
0.241259
0.240903
0.242842
0.246906
0.252844
0.260337
0.269019
0.278493
0.288354
0.298203
0.307667
0.316422
0.324206
0.330836
0.336209
0.340305
0.343171
0.344909
0.345651
0.345542
0.344731
0.34336
0.341556
0.339434
0.337093
0.334616
0.332077
0.329536
0.327047
0.324652
0.322387
0.320284
0.318364
0.316647
0.315145
0.313865
0.312809
0.31197
0.311337
0.310889
0.310594
0.31041
0.310281
0.310129
0.309853
0.309328
0.308404
0.306918
0.304701
0.301592
0.297449
0.292155
0.285623
0.277801
0.268673
0.258283
0.246748
0.234283
0.221215
0.207979
0.195073
0.183023
0.172184
0.163409
0.153162
0.220415
0.219175
0.217918
0.21665
0.215372
0.214089
0.212802
0.211511
0.210213
0.208903
0.207582
0.20627
0.205026
0.203946
0.203144
0.202733
0.202795
0.203395
0.204482
0.205926
0.207643
0.209573
0.211657
0.213824
0.215991
0.218058
0.219929
0.221521
0.222793
0.223762
0.224516
0.225208
0.226043
0.22725
0.229053
0.231649
0.235182
0.239737
0.245327
0.251891
0.259303
0.26738
0.275891
0.284577
0.293164
0.301383
0.308987
0.315769
0.321576
0.326317
0.329963
0.332545
0.334136
0.334839
0.334771
0.334057
0.332814
0.331154
0.329177
0.326971
0.324614
0.322171
0.319699
0.317247
0.314855
0.312559
0.310387
0.308365
0.306511
0.304841
0.303367
0.302094
0.301025
0.300155
0.299473
0.298959
0.298586
0.298312
0.298075
0.297793
0.297355
0.296627
0.295453
0.293668
0.291109
0.287627
0.283097
0.277418
0.270525
0.262385
0.253016
0.242504
0.231029
0.218876
0.206441
0.194194
0.182642
0.172143
0.16357
0.153422
0.223103
0.222007
0.220898
0.219778
0.218652
0.217525
0.216404
0.215293
0.214198
0.213122
0.212066
0.211031
0.210026
0.209071
0.208202
0.207463
0.206904
0.206575
0.206487
0.20663
0.206977
0.207501
0.208176
0.20898
0.209895
0.210908
0.212011
0.2132
0.214487
0.215896
0.217469
0.219267
0.221368
0.22386
0.226836
0.230385
0.234575
0.239447
0.245007
0.251215
0.25799
0.265205
0.2727
0.280288
0.287763
0.294916
0.301549
0.307492
0.312611
0.316824
0.320098
0.322445
0.323919
0.324598
0.324576
0.323955
0.322836
0.321315
0.31948
0.317409
0.315173
0.312832
0.310438
0.308037
0.305666
0.303359
0.301144
0.299044
0.29708
0.295268
0.293622
0.292153
0.290866
0.289764
0.288845
0.2881
0.287512
0.287056
0.286687
0.286341
0.285928
0.285327
0.284397
0.282978
0.280907
0.278031
0.274215
0.269348
0.263349
0.256166
0.247794
0.238289
0.227791
0.216547
0.204911
0.193321
0.182269
0.172111
0.163741
0.153689
0.224789
0.223802
0.222805
0.221801
0.220795
0.219791
0.218796
0.217816
0.216857
0.215926
0.215025
0.214159
0.213331
0.212547
0.211817
0.211154
0.21058
0.210115
0.209778
0.209582
0.209532
0.209629
0.209869
0.210252
0.210776
0.211445
0.212266
0.213251
0.214419
0.215796
0.217416
0.219319
0.221552
0.224166
0.227213
0.230739
0.23478
0.239353
0.244454
0.250046
0.256067
0.262419
0.268981
0.275604
0.282127
0.28838
0.294199
0.29944
0.303985
0.307758
0.310721
0.312875
0.314255
0.314921
0.314948
0.314418
0.313417
0.312029
0.31033
0.308391
0.306276
0.304039
0.30173
0.29939
0.297055
0.294756
0.292519
0.290367
0.288319
0.286393
0.284604
0.282963
0.28148
0.280163
0.279016
0.278038
0.277224
0.276563
0.276026
0.275569
0.275122
0.274584
0.273828
0.272705
0.271055
0.268722
0.265562
0.261455
0.256303
0.250037
0.242628
0.2341
0.224559
0.214209
0.203365
0.192433
0.181882
0.17207
0.163907
0.153951
0.225804
0.224897
0.223983
0.223064
0.222145
0.22123
0.220326
0.219438
0.218573
0.217737
0.216935
0.216172
0.215451
0.214777
0.214153
0.213586
0.213083
0.212654
0.212312
0.212066
0.211928
0.211903
0.212002
0.21223
0.212597
0.213111
0.213786
0.214637
0.215684
0.216951
0.218466
0.220259
0.222367
0.224823
0.227662
0.230914
0.234598
0.238724
0.24328
0.248237
0.253542
0.259118
0.264865
0.270665
0.276384
0.281881
0.287018
0.291671
0.295735
0.299138
0.301841
0.303834
0.305139
0.305799
0.305874
0.305431
0.304543
0.30328
0.301711
0.2999
0.297903
0.295772
0.293551
0.29128
0.288992
0.286716
0.284476
0.282294
0.280189
0.278177
0.276273
0.27449
0.272839
0.271332
0.269975
0.268776
0.267739
0.266862
0.266135
0.265531
0.265001
0.264467
0.263819
0.262921
0.261621
0.259761
0.257192
0.253783
0.249421
0.24402
0.237528
0.229942
0.221328
0.211852
0.201789
0.191509
0.181463
0.172001
0.164051
0.1542
0.22638
0.225529
0.224673
0.223814
0.222957
0.222105
0.221264
0.22044
0.219638
0.218864
0.218123
0.217421
0.216762
0.216149
0.215586
0.215077
0.214625
0.214239
0.213923
0.213686
0.213535
0.213481
0.213532
0.213697
0.213988
0.214417
0.214998
0.215747
0.216683
0.217827
0.219203
0.220838
0.222758
0.224989
0.227558
0.230485
0.233784
0.237458
0.241497
0.245875
0.250547
0.255451
0.260503
0.265606
0.270647
0.275509
0.280073
0.28423
0.287888
0.290979
0.293459
0.295316
0.296558
0.297217
0.297339
0.296977
0.296194
0.295049
0.293604
0.291915
0.290033
0.288006
0.285876
0.283679
0.281446
0.279205
0.276979
0.274787
0.272648
0.270576
0.268587
0.266692
0.264904
0.263236
0.261696
0.260298
0.25905
0.257961
0.257034
0.256261
0.255611
0.25503
0.254429
0.253689
0.252666
0.251207
0.249157
0.246376
0.242739
0.238143
0.232513
0.22582
0.218096
0.209467
0.200168
0.190535
0.180995
0.17189
0.164161
0.154424
0.226682
0.225867
0.225049
0.22423
0.223413
0.222603
0.221803
0.221019
0.220257
0.21952
0.218815
0.218146
0.217518
0.216935
0.2164
0.215917
0.215489
0.215121
0.214818
0.214584
0.214428
0.214357
0.214379
0.214504
0.214742
0.215107
0.215611
0.21627
0.217102
0.218125
0.21936
0.220828
0.222553
0.224556
0.226857
0.229471
0.232408
0.23567
0.239248
0.243118
0.247244
0.251572
0.256034
0.260546
0.265015
0.269339
0.273417
0.277153
0.280463
0.283284
0.285574
0.287312
0.2885
0.28916
0.289324
0.289038
0.288351
0.287317
0.285988
0.284414
0.282644
0.28072
0.278681
0.27656
0.274389
0.272193
0.269992
0.267807
0.265653
0.263546
0.261497
0.25952
0.257627
0.255829
0.254139
0.252568
0.251133
0.249847
0.248724
0.247771
0.246978
0.246311
0.245705
0.24506
0.244245
0.243112
0.241506
0.239278
0.236293
0.232433
0.227603
0.221747
0.214867
0.207051
0.198495
0.189499
0.180465
0.171724
0.164225
0.154617
0.226826
0.226033
0.225237
0.224442
0.22365
0.222865
0.222089
0.221329
0.220587
0.21987
0.219182
0.218527
0.21791
0.217335
0.216805
0.216325
0.215897
0.215526
0.215216
0.214972
0.214798
0.214703
0.214692
0.214776
0.214964
0.215266
0.215697
0.21627
0.217
0.217905
0.219002
0.220311
0.221849
0.223636
0.225687
0.228014
0.230626
0.233523
0.236696
0.240126
0.24378
0.247616
0.251573
0.255582
0.259562
0.263427
0.267088
0.27046
0.27347
0.276056
0.278177
0.279809
0.280949
0.281607
0.28181
0.281591
0.280993
0.280061
0.27884
0.277377
0.275712
0.273888
0.271939
0.269897
0.267792
0.265646
0.263482
0.261316
0.259165
0.257041
0.254957
0.252925
0.250956
0.24906
0.247251
0.245541
0.243946
0.242487
0.241183
0.240053
0.239105
0.238327
0.237674
0.237069
0.236398
0.23552
0.234282
0.23253
0.23012
0.22692
0.222819
0.217737
0.211649
0.204606
0.196766
0.188394
0.179864
0.171493
0.164235
0.15477
0.226887
0.226105
0.225322
0.22454
0.223761
0.222989
0.222226
0.221476
0.220744
0.220033
0.219348
0.218694
0.218074
0.217492
0.216953
0.21646
0.216017
0.215628
0.215295
0.215025
0.214822
0.214692
0.214641
0.214677
0.214809
0.215048
0.215404
0.215891
0.216522
0.217312
0.218277
0.219433
0.220797
0.222383
0.224205
0.226273
0.228594
0.231168
0.233986
0.237032
0.240278
0.243687
0.247209
0.250784
0.254343
0.25781
0.261109
0.264164
0.266909
0.269287
0.271257
0.272793
0.273885
0.27454
0.274775
0.274616
0.274098
0.273259
0.272139
0.270778
0.269215
0.267486
0.265625
0.263663
0.261626
0.259536
0.257415
0.255279
0.253143
0.25102
0.248921
0.246856
0.244837
0.242873
0.240976
0.239158
0.237437
0.235832
0.234371
0.233078
0.231977
0.231073
0.230345
0.229737
0.229152
0.228463
0.227519
0.226166
0.224251
0.221632
0.218185
0.21381
0.208454
0.202138
0.194982
0.187217
0.179186
0.171191
0.164183
0.154879
0.226909
0.226132
0.225354
0.224579
0.223806
0.223039
0.222281
0.221534
0.220803
0.220091
0.219401
0.218739
0.218108
0.217512
0.216955
0.21644
0.215971
0.215553
0.215188
0.214882
0.214639
0.214465
0.214366
0.214348
0.21442
0.214591
0.214871
0.215271
0.215803
0.216482
0.217321
0.218333
0.219533
0.220934
0.222547
0.224381
0.226441
0.228727
0.231231
0.23394
0.236829
0.239866
0.243009
0.246205
0.249395
0.252514
0.255493
0.258268
0.260776
0.262966
0.264797
0.266242
0.267289
0.267937
0.268197
0.26809
0.267643
0.266889
0.265861
0.264596
0.263128
0.261491
0.259716
0.257832
0.255864
0.253834
0.251761
0.249663
0.247552
0.245442
0.243343
0.241266
0.239219
0.237212
0.235256
0.233361
0.231545
0.229827
0.228234
0.226801
0.225557
0.224526
0.223707
0.223063
0.222518
0.221958
0.221242
0.220212
0.218714
0.216598
0.213726
0.209984
0.205298
0.199657
0.193149
0.185968
0.178429
0.170812
0.164064
0.15494
0.226914
0.226139
0.225364
0.224591
0.22382
0.223055
0.222296
0.221548
0.220814
0.220095
0.219398
0.218723
0.218077
0.217461
0.216881
0.216339
0.21584
0.215388
0.214985
0.214638
0.21435
0.214126
0.213973
0.213897
0.213905
0.214005
0.214207
0.214521
0.214957
0.215527
0.216244
0.21712
0.218168
0.219397
0.220819
0.22244
0.224265
0.226292
0.228517
0.230926
0.233498
0.236207
0.239014
0.241875
0.244739
0.247548
0.250244
0.252766
0.25506
0.257077
0.258779
0.260138
0.261138
0.261775
0.262054
0.261991
0.261607
0.260928
0.259984
0.258807
0.257429
0.255879
0.254186
0.252379
0.25048
0.248511
0.246491
0.244435
0.242358
0.240271
0.238185
0.23611
0.234054
0.232025
0.230034
0.22809
0.226207
0.224406
0.222713
0.221163
0.219797
0.218646
0.217729
0.217029
0.216489
0.21601
0.21546
0.214685
0.21353
0.211837
0.209464
0.206281
0.202197
0.197178
0.191276
0.184654
0.177595
0.170358
0.163877
0.15495
0.226913
0.226139
0.225365
0.224592
0.223821
0.223055
0.222294
0.221543
0.220803
0.220077
0.219368
0.21868
0.218017
0.217381
0.216776
0.216207
0.215676
0.215187
0.214745
0.214355
0.214019
0.213744
0.213535
0.213398
0.213341
0.213369
0.213493
0.213721
0.214063
0.214529
0.21513
0.215877
0.21678
0.217851
0.219096
0.220522
0.222132
0.223926
0.225899
0.228039
0.230329
0.232743
0.235251
0.237813
0.240385
0.242916
0.245354
0.247647
0.249745
0.251602
0.253183
0.254458
0.25541
0.256031
0.256323
0.256296
0.255965
0.255354
0.254486
0.253391
0.252095
0.250627
0.249014
0.24728
0.24545
0.243542
0.241576
0.239568
0.237529
0.235473
0.23341
0.231348
0.229297
0.227264
0.225257
0.223286
0.221363
0.219506
0.217741
0.216103
0.214635
0.21338
0.212369
0.211602
0.211042
0.210606
0.210171
0.209592
0.20871
0.207368
0.205417
0.20272
0.199171
0.194714
0.189376
0.183283
0.176689
0.169829
0.163621
0.154908
0.22691
0.226136
0.225362
0.224588
0.223817
0.223049
0.222285
0.22153
0.220783
0.220049
0.21933
0.218628
0.217948
0.217292
0.216664
0.216067
0.215505
0.214981
0.214501
0.214067
0.213685
0.213359
0.213095
0.212898
0.212775
0.212734
0.212781
0.212925
0.213175
0.213541
0.214031
0.214656
0.215425
0.216347
0.217428
0.218675
0.220089
0.221671
0.223415
0.225311
0.227345
0.229495
0.231732
0.234024
0.236331
0.23861
0.240814
0.242897
0.244813
0.246521
0.247985
0.249179
0.250081
0.250683
0.250981
0.250982
0.250697
0.250145
0.249346
0.248324
0.247105
0.245714
0.244175
0.242513
0.240749
0.238903
0.236992
0.235033
0.233037
0.231017
0.228984
0.226945
0.224909
0.222885
0.220878
0.218899
0.216956
0.215067
0.213255
0.211554
0.210009
0.208668
0.207571
0.206736
0.206142
0.20572
0.205362
0.204926
0.204258
0.2032
0.2016
0.199319
0.196237
0.192284
0.187461
0.181866
0.175719
0.16923
0.163299
0.154815
0.226907
0.226133
0.225358
0.224583
0.22381
0.22304
0.222274
0.221513
0.220761
0.220019
0.219289
0.218575
0.217879
0.217205
0.216555
0.215932
0.215341
0.214785
0.214268
0.213793
0.213367
0.212992
0.212675
0.212421
0.212236
0.212126
0.2121
0.212164
0.212326
0.212596
0.212982
0.213492
0.214134
0.214917
0.215847
0.216927
0.218161
0.219548
0.221083
0.222757
0.224558
0.226467
0.228458
0.230505
0.232571
0.234619
0.236608
0.238497
0.240244
0.241811
0.243165
0.244278
0.245129
0.245707
0.246006
0.246028
0.245781
0.24528
0.244542
0.243587
0.242437
0.241117
0.239649
0.238055
0.236355
0.23457
0.232715
0.230805
0.228855
0.226876
0.224877
0.222868
0.220856
0.21885
0.216856
0.214881
0.212936
0.211034
0.209197
0.207456
0.205855
0.204446
0.203278
0.202379
0.201744
0.201318
0.201006
0.200673
0.200168
0.199335
0.198024
0.19609
0.193412
0.189905
0.185549
0.180415
0.174694
0.168568
0.162913
0.154672
0.226903
0.226128
0.225353
0.224577
0.223803
0.22303
0.222261
0.221496
0.220738
0.219989
0.21925
0.218524
0.217814
0.217123
0.216452
0.215807
0.215189
0.214603
0.214052
0.21354
0.213072
0.212652
0.212285
0.211977
0.211733
0.211559
0.211463
0.211451
0.211532
0.211711
0.211998
0.2124
0.212925
0.213579
0.214367
0.215294
0.216361
0.217569
0.218911
0.220383
0.22197
0.223658
0.225425
0.227246
0.229091
0.230927
0.232718
0.234427
0.236016
0.23745
0.238697
0.239731
0.240531
0.241081
0.241375
0.241412
0.241196
0.240738
0.240052
0.239157
0.238072
0.236817
0.235414
0.233884
0.232247
0.23052
0.22872
0.226862