/*--------------------------------*- C++ -*----------------------------------*\
| =========                 |                                                 |
| \\      /  F ield         | OpenFOAM: The Open Source CFD Toolbox           |
|  \\    /   O peration     | Version:  2.1.1                                 |
|   \\  /    A nd           | Web:      www.OpenFOAM.org                      |
|    \\/     M anipulation  |                                                 |
\*---------------------------------------------------------------------------*/
FoamFile
{
    version     2.0;
    format      ascii;
    class       volScalarField;
    location    "0.07";
    object      nut;
}
// * * * * * * * * * * * * * * * * * * * * * * * * * * * * * * * * * * * * * //

dimensions      [0 2 -1 0 0 0 0];

internalField   nonuniform List<scalar> 
6820
(
4.96025e-05
5.47044e-05
5.94497e-05
6.37667e-05
6.76165e-05
7.09772e-05
7.38471e-05
7.62441e-05
7.82002e-05
7.97571e-05
8.09612e-05
8.18601e-05
8.24998e-05
8.29233e-05
8.31691e-05
8.32712e-05
8.32589e-05
8.3157e-05
8.29862e-05
8.27635e-05
8.2503e-05
8.22158e-05
8.19108e-05
8.15952e-05
8.12742e-05
8.0952e-05
8.06314e-05
8.0315e-05
8.00007e-05
7.9705e-05
7.93493e-05
7.93081e-05
7.77533e-05
0.000540296
0.000304964
0.000219946
0.00017154
0.000140498
0.000119633
0.000105106
9.47216e-05
8.71569e-05
8.15755e-05
7.74271e-05
7.43382e-05
7.20481e-05
7.03707e-05
6.91707e-05
6.83478e-05
6.78266e-05
6.75493e-05
6.74714e-05
6.75576e-05
6.77802e-05
6.81164e-05
6.85478e-05
6.90592e-05
6.96376e-05
7.0272e-05
7.0953e-05
7.16715e-05
7.24208e-05
7.31883e-05
7.3975e-05
7.47474e-05
7.54484e-05
0.00105857
0.000836093
0.000679248
0.000569626
0.000490068
0.000430133
0.000383719
0.000346873
0.000316971
0.000292253
0.000271503
0.000253859
0.000238693
0.000225538
0.000214038
0.000203916
0.000194956
0.000186984
0.000179858
0.000173464
0.000167708
0.000162508
0.000157798
0.000153522
0.00014963
0.000146081
0.000142837
0.000139868
0.000137143
0.000134644
0.00013232
0.000130243
0.000128015
0.00115953
0.00109653
0.00101168
0.00092643
0.000849831
0.000783648
0.000727104
0.000678786
0.000637279
0.00060136
0.000570026
0.000542473
0.000518061
0.00049628
0.000476723
0.000459061
0.000443027
0.000428404
0.000415012
0.000402699
0.00039134
0.000380827
0.000371069
0.000361989
0.000353519
0.000345601
0.000338186
0.000331232
0.000324705
0.000318577
0.000312835
0.000307468
0.000302494
0.00116966
0.00115863
0.00113363
0.00109757
0.00105569
0.00101221
0.00096968
0.000929424
0.000891984
0.000857485
0.000825835
0.000796845
0.000770287
0.000745927
0.000723546
0.000702938
0.000683921
0.000666329
0.00065002
0.000634863
0.000620746
0.000607567
0.000595239
0.000583681
0.000572824
0.000562604
0.000552965
0.000543856
0.000535234
0.000527058
0.000519297
0.000511922
0.000504924
0.00117006
0.00116839
0.00116306
0.00115261
0.00113713
0.00111767
0.00109554
0.00107191
0.0010477
0.00102358
0.000999972
0.000977148
0.000955266
0.000934405
0.000914591
0.000895817
0.000878054
0.000861261
0.000845389
0.000830386
0.000816199
0.000802775
0.000790062
0.000778011
0.000766575
0.000755709
0.000745369
0.000735516
0.000726111
0.000717117
0.000708501
0.000700235
0.000692288
0.00116996
0.00116938
0.00116821
0.00116569
0.00116123
0.00115458
0.00114583
0.00113527
0.00112327
0.00111022
0.00109646
0.0010823
0.00106797
0.00105365
0.00103949
0.00102558
0.001012
0.000998802
0.00098601
0.000973645
0.000961715
0.000950219
0.000939151
0.000928501
0.000918255
0.000908396
0.000898907
0.000889769
0.00088096
0.000872461
0.000864251
0.000856312
0.000848622
0.00116994
0.0011694
0.00116883
0.00116803
0.00116674
0.00116472
0.0011618
0.0011579
0.00115304
0.00114727
0.00114072
0.00113352
0.00112578
0.00111764
0.00110922
0.0011006
0.00109188
0.00108311
0.00107437
0.00106569
0.00105711
0.00104866
0.00104037
0.00103224
0.00102428
0.00101651
0.00100893
0.00100153
0.000994309
0.000987268
0.0009804
0.000973696
0.000967151
0.00116994
0.00116939
0.00116886
0.00116832
0.0011677
0.00116692
0.00116588
0.00116449
0.00116268
0.00116043
0.00115771
0.00115454
0.00115095
0.00114698
0.00114268
0.00113809
0.00113326
0.00112824
0.00112307
0.00111778
0.00111242
0.00110701
0.00110157
0.00109613
0.0010907
0.00108531
0.00107996
0.00107466
0.00106942
0.00106424
0.00105913
0.00105409
0.00104912
0.00116994
0.00116938
0.00116885
0.00116833
0.00116782
0.00116729
0.00116671
0.00116605
0.00116526
0.00116432
0.00116318
0.00116184
0.00116029
0.00115851
0.00115652
0.00115432
0.00115193
0.00114936
0.00114664
0.00114377
0.00114079
0.0011377
0.00113453
0.00113128
0.00112798
0.00112464
0.00112126
0.00111787
0.00111446
0.00111104
0.00110762
0.00110421
0.00110081
0.00116994
0.00116938
0.00116884
0.00116832
0.00116782
0.00116732
0.00116683
0.00116634
0.00116582
0.00116527
0.00116466
0.00116399
0.00116323
0.00116239
0.00116145
0.0011604
0.00115925
0.001158
0.00115664
0.00115519
0.00115365
0.00115202
0.00115031
0.00114854
0.0011467
0.0011448
0.00114286
0.00114087
0.00113884
0.00113679
0.0011347
0.0011326
0.00113048
0.00116994
0.00116938
0.00116884
0.00116832
0.00116781
0.00116732
0.00116684
0.00116637
0.00116591
0.00116545
0.00116498
0.00116451
0.00116402
0.0011635
0.00116295
0.00116236
0.00116174
0.00116107
0.00116036
0.00115959
0.00115878
0.00115792
0.00115702
0.00115607
0.00115508
0.00115404
0.00115297
0.00115187
0.00115073
0.00114956
0.00114837
0.00114715
0.00114591
0.00116994
0.00116938
0.00116884
0.00116832
0.00116781
0.00116732
0.00116684
0.00116637
0.00116591
0.00116547
0.00116504
0.00116461
0.00116418
0.00116376
0.00116334
0.00116291
0.00116247
0.00116202
0.00116155
0.00116108
0.00116058
0.00116007
0.00115953
0.00115898
0.00115841
0.00115782
0.00115721
0.00115658
0.00115593
0.00115526
0.00115458
0.00115388
0.00115317
0.00116994
0.00116938
0.00116884
0.00116832
0.00116781
0.00116731
0.00116683
0.00116636
0.00116591
0.00116547
0.00116504
0.00116462
0.00116421
0.00116381
0.00116341
0.00116303
0.00116264
0.00116226
0.00116189
0.00116151
0.00116113
0.00116075
0.00116036
0.00115998
0.00115958
0.00115918
0.00115878
0.00115837
0.00115796
0.00115754
0.00115711
0.00115668
0.00115625
0.00116994
0.00116938
0.00116884
0.00116832
0.00116781
0.00116731
0.00116683
0.00116636
0.00116591
0.00116546
0.00116503
0.00116461
0.00116421
0.00116381
0.00116342
0.00116304
0.00116267
0.00116231
0.00116196
0.00116161
0.00116127
0.00116093
0.0011606
0.00116027
0.00115994
0.00115962
0.0011593
0.00115898
0.00115866
0.00115835
0.00115804
0.00115772
0.00115742
0.00116994
0.00116938
0.00116884
0.00116831
0.0011678
0.00116731
0.00116683
0.00116636
0.0011659
0.00116546
0.00116503
0.00116461
0.0011642
0.00116381
0.00116342
0.00116304
0.00116267
0.00116232
0.00116197
0.00116163
0.00116129
0.00116097
0.00116065
0.00116034
0.00116004
0.00115974
0.00115945
0.00115916
0.00115888
0.0011586
0.00115833
0.00115807
0.00115781
0.00116994
0.00116938
0.00116884
0.00116831
0.0011678
0.00116731
0.00116683
0.00116636
0.0011659
0.00116546
0.00116503
0.00116461
0.0011642
0.0011638
0.00116341
0.00116304
0.00116267
0.00116231
0.00116196
0.00116163
0.00116129
0.00116097
0.00116066
0.00116035
0.00116005
0.00115976
0.00115948
0.0011592
0.00115893
0.00115867
0.00115842
0.00115817
0.00115793
0.00116994
0.00116938
0.00116884
0.00116831
0.0011678
0.00116731
0.00116682
0.00116635
0.0011659
0.00116545
0.00116502
0.0011646
0.00116419
0.0011638
0.00116341
0.00116303
0.00116267
0.00116231
0.00116196
0.00116162
0.00116129
0.00116097
0.00116066
0.00116035
0.00116005
0.00115976
0.00115948
0.00115921
0.00115894
0.00115869
0.00115844
0.00115819
0.00115796
0.00116994
0.00116938
0.00116884
0.00116831
0.0011678
0.00116731
0.00116682
0.00116635
0.0011659
0.00116545
0.00116502
0.0011646
0.00116419
0.00116379
0.00116341
0.00116303
0.00116266
0.0011623
0.00116195
0.00116162
0.00116129
0.00116096
0.00116065
0.00116035
0.00116005
0.00115976
0.00115948
0.00115921
0.00115894
0.00115869
0.00115844
0.00115819
0.00115796
0.00116994
0.00116938
0.00116884
0.00116831
0.0011678
0.0011673
0.00116682
0.00116635
0.00116589
0.00116545
0.00116502
0.0011646
0.00116419
0.00116379
0.0011634
0.00116302
0.00116266
0.0011623
0.00116195
0.00116161
0.00116128
0.00116096
0.00116065
0.00116034
0.00116004
0.00115976
0.00115948
0.0011592
0.00115894
0.00115868
0.00115843
0.00115819
0.00115796
0.00116994
0.00116938
0.00116884
0.00116831
0.0011678
0.0011673
0.00116682
0.00116635
0.00116589
0.00116545
0.00116502
0.00116459
0.00116419
0.00116379
0.0011634
0.00116302
0.00116265
0.0011623
0.00116195
0.00116161
0.00116128
0.00116095
0.00116064
0.00116034
0.00116004
0.00115975
0.00115947
0.0011592
0.00115893
0.00115868
0.00115843
0.00115819
0.00115795
0.00116994
0.00116938
0.00116884
0.00116831
0.0011678
0.0011673
0.00116682
0.00116635
0.00116589
0.00116545
0.00116501
0.00116459
0.00116418
0.00116378
0.0011634
0.00116302
0.00116265
0.00116229
0.00116194
0.0011616
0.00116127
0.00116095
0.00116064
0.00116033
0.00116004
0.00115975
0.00115947
0.00115919
0.00115893
0.00115867
0.00115842
0.00115818
0.00115795
0.00116994
0.00116938
0.00116884
0.00116831
0.0011678
0.0011673
0.00116682
0.00116635
0.00116589
0.00116545
0.00116501
0.00116459
0.00116418
0.00116378
0.00116339
0.00116302
0.00116265
0.00116229
0.00116194
0.0011616
0.00116127
0.00116095
0.00116063
0.00116033
0.00116003
0.00115974
0.00115946
0.00115919
0.00115892
0.00115867
0.00115841
0.00115817
0.00115794
0.00116994
0.00116938
0.00116884
0.00116831
0.0011678
0.0011673
0.00116682
0.00116635
0.00116589
0.00116544
0.00116501
0.00116459
0.00116418
0.00116378
0.00116339
0.00116301
0.00116264
0.00116229
0.00116194
0.0011616
0.00116127
0.00116094
0.00116063
0.00116032
0.00116003
0.00115974
0.00115946
0.00115918
0.00115892
0.00115866
0.00115841
0.00115816
0.00115793
0.00116994
0.00116938
0.00116884
0.00116831
0.0011678
0.0011673
0.00116682
0.00116635
0.00116589
0.00116544
0.00116501
0.00116459
0.00116418
0.00116378
0.00116339
0.00116301
0.00116264
0.00116228
0.00116193
0.00116159
0.00116126
0.00116094
0.00116063
0.00116032
0.00116002
0.00115973
0.00115945
0.00115918
0.00115891
0.00115865
0.0011584
0.00115816
0.00115792
0.00116994
0.00116938
0.00116884
0.00116831
0.0011678
0.0011673
0.00116682
0.00116635
0.00116589
0.00116544
0.00116501
0.00116459
0.00116418
0.00116378
0.00116339
0.00116301
0.00116264
0.00116228
0.00116193
0.00116159
0.00116126
0.00116094
0.00116062
0.00116032
0.00116002
0.00115973
0.00115945
0.00115917
0.0011589
0.00115864
0.00115839
0.00115815
0.00115791
0.00116994
0.00116938
0.00116884
0.00116831
0.0011678
0.0011673
0.00116682
0.00116635
0.00116589
0.00116544
0.00116501
0.00116459
0.00116418
0.00116378
0.00116339
0.00116301
0.00116264
0.00116228
0.00116193
0.00116159
0.00116126
0.00116093
0.00116062
0.00116031
0.00116001
0.00115972
0.00115944
0.00115917
0.0011589
0.00115864
0.00115838
0.00115814
0.0011579
0.00116994
0.00116938
0.00116884
0.00116831
0.0011678
0.0011673
0.00116682
0.00116635
0.00116589
0.00116544
0.00116501
0.00116459
0.00116417
0.00116377
0.00116339
0.00116301
0.00116264
0.00116228
0.00116193
0.00116159
0.00116125
0.00116093
0.00116062
0.00116031
0.00116001
0.00115972
0.00115944
0.00115916
0.00115889
0.00115863
0.00115838
0.00115813
0.00115789
0.00116994
0.00116938
0.00116884
0.00116831
0.0011678
0.0011673
0.00116682
0.00116635
0.00116589
0.00116544
0.00116501
0.00116459
0.00116417
0.00116377
0.00116338
0.00116301
0.00116264
0.00116228
0.00116193
0.00116159
0.00116125
0.00116093
0.00116061
0.00116031
0.00116001
0.00115972
0.00115943
0.00115916
0.00115889
0.00115862
0.00115837
0.00115812
0.00115788
0.00116994
0.00116938
0.00116884
0.00116831
0.0011678
0.0011673
0.00116682
0.00116635
0.00116589
0.00116544
0.00116501
0.00116459
0.00116418
0.00116378
0.00116339
0.00116301
0.00116264
0.00116228
0.00116193
0.00116159
0.00116125
0.00116093
0.00116061
0.00116031
0.00116001
0.00115971
0.00115943
0.00115915
0.00115888
0.00115862
0.00115836
0.00115811
0.00115787
0.00116994
0.00116938
0.00116884
0.00116831
0.0011678
0.0011673
0.00116682
0.00116635
0.00116589
0.00116544
0.00116501
0.00116459
0.00116418
0.00116378
0.00116339
0.00116301
0.00116264
0.00116228
0.00116193
0.00116159
0.00116126
0.00116093
0.00116061
0.00116031
0.00116001
0.00115971
0.00115943
0.00115915
0.00115888
0.00115861
0.00115835
0.0011581
0.00115786
0.00116994
0.00116938
0.00116884
0.00116831
0.0011678
0.00116731
0.00116682
0.00116635
0.0011659
0.00116545
0.00116502
0.0011646
0.00116419
0.00116379
0.0011634
0.00116302
0.00116265
0.00116229
0.00116193
0.00116159
0.00116126
0.00116093
0.00116061
0.0011603
0.00115999
0.00115969
0.0011594
0.00115912
0.00115884
0.00115857
0.0011583
0.00115804
0.00115778
0.00116994
0.00116938
0.00116884
0.00116831
0.0011678
0.00116731
0.00116683
0.00116636
0.0011659
0.00116546
0.00116503
0.0011646
0.00116419
0.00116379
0.0011634
0.00116301
0.00116264
0.00116227
0.00116191
0.00116155
0.00116121
0.00116086
0.00116053
0.00116019
0.00115987
0.00115954
0.00115923
0.00115891
0.0011586
0.00115829
0.00115799
0.00115769
0.00115739
0.00116994
0.00116938
0.00116884
0.00116833
0.00116782
0.00116733
0.00116685
0.00116639
0.00116593
0.00116548
0.00116503
0.00116459
0.00116416
0.00116373
0.00116331
0.00116289
0.00116246
0.00116204
0.00116162
0.00116119
0.00116077
0.00116034
0.0011599
0.00115947
0.00115903
0.00115859
0.00115815
0.0011577
0.00115725
0.00115679
0.00115634
0.00115588
0.00115542
0.00116994
0.00116939
0.00116886
0.00116835
0.00116784
0.00116733
0.00116683
0.00116632
0.0011658
0.00116528
0.00116473
0.00116417
0.00116358
0.00116297
0.00116233
0.00116166
0.00116096
0.00116024
0.00115948
0.0011587
0.00115789
0.00115706
0.0011562
0.00115531
0.00115441
0.00115348
0.00115254
0.00115158
0.0011506
0.00114961
0.00114861
0.0011476
0.00114658
0.00116995
0.0011694
0.00116886
0.00116828
0.00116765
0.00116694
0.00116612
0.00116519
0.00116413
0.00116294
0.00116161
0.00116016
0.00115857
0.00115687
0.00115504
0.00115311
0.00115109
0.00114897
0.00114677
0.0011445
0.00114217
0.00113978
0.00113736
0.00113489
0.00113239
0.00112988
0.00112734
0.0011248
0.00112225
0.0011197
0.00111716
0.00111462
0.0011121
0.00116996
0.00116916
0.00116786
0.00116595
0.00116342
0.00116029
0.00115655
0.00115225
0.00114744
0.00114218
0.00113654
0.00113058
0.00112436
0.00111794
0.00111137
0.00110469
0.00109795
0.00109118
0.00108441
0.00107766
0.00107097
0.00106434
0.00105779
0.00105134
0.001045
0.00103877
0.00103266
0.00102667
0.00102082
0.0010151
0.00100951
0.00100406
0.000998749
0.00116831
0.00115867
0.001145
0.00112842
0.00110967
0.00108944
0.00106838
0.00104702
0.00102574
0.00100481
0.000984416
0.000964675
0.000945661
0.00092741
0.000909935
0.000893232
0.000877284
0.00086207
0.000847559
0.000833723
0.000820529
0.000807945
0.00079594
0.000784484
0.000773546
0.0007631
0.000753118
0.000743574
0.000734446
0.00072571
0.000717345
0.000709332
0.00070165
0.00107567
0.000936198
0.000835618
0.00075693
0.000692169
0.000638453
0.000593577
0.000555713
0.000523424
0.000495603
0.000471404
0.000450175
0.000431408
0.000414706
0.000399751
0.000386289
0.000374114
0.000363055
0.000352971
0.000343744
0.000335273
0.000327475
0.000320276
0.000313614
0.000307435
0.000301689
0.000296337
0.000291342
0.000286671
0.000282295
0.00027819
0.000274331
0.000270699
0.000142979
0.000146644
0.000150174
0.000153551
0.000156773
0.000159846
0.000162776
0.000165567
0.000168225
0.000170755
0.000173162
0.00017545
0.000177626
0.000179693
0.000181655
0.000183519
0.000185288
0.000186966
0.000188558
0.000190068
0.000191499
0.000192856
0.000194142
0.000195361
0.000196516
0.00019761
0.000198647
0.000199629
0.000200558
0.000201439
0.000202272
0.000203061
0.000203809
9.04145e-05
0.000112162
0.00014366
0.000185792
0.000236824
0.000292945
0.000349849
0.000404818
0.000457816
0.000511134
0.000567571
0.00062858
0.00069377
0.000761851
0.000831874
0.000903723
0.000977817
0.00105448
0.00113371
0.00121518
0.00129821
0.0013819
0.0014651
0.00154629
0.00162352
0.0016945
0.00175671
0.00180754
0.00184435
0.00186455
0.00186559
0.00184504
0.00180058
0.00173016
0.00163214
0.00150579
0.00135223
0.00117658
0.000992176
0.000827229
0.000730534
0.000763314
0.00093954
0.00115242
0.00131051
0.00142282
0.00151202
0.00158691
0.00164981
0.00170167
0.00174354
0.00177671
0.00180261
0.00182267
0.00183819
0.00185031
0.00186002
0.00186811
0.00187526
0.00188199
0.00188874
0.00189583
0.00190352
0.00191196
0.00192124
0.00193138
0.00194233
0.00195401
0.00196628
0.00197901
0.00199204
0.00200523
0.00201843
0.00203155
0.0020445
0.00205719
0.00206949
0.00208121
0.00209194
0.00210109
0.00210776
0.00211078
0.00210879
0.00210032
0.00208396
0.00205855
0.00202331
0.001978
0.00192294
0.00185909
0.00178801
0.00171183
0.00163314
0.00155484
0.00147989
0.00141094
0.00134996
0.00129766
0.00125626
0.00120939
7.673e-05
7.90862e-05
8.3282e-05
9.07661e-05
0.000103612
0.000124332
0.000155148
0.000197104
0.000249294
0.000308771
0.000371492
0.000433925
0.000494355
0.000553089
0.000611623
0.000671478
0.000733432
0.000797473
0.000863091
0.000929769
0.000997236
0.00106528
0.00113339
0.00120046
0.00126485
0.00132447
0.00137697
0.00141983
0.00145042
0.0014661
0.00146424
0.00144236
0.00139825
0.00133026
0.00123782
0.00112244
0.00098964
0.000852284
0.000735184
0.000678229
0.000727514
0.00088802
0.00107924
0.00123161
0.00134588
0.00143808
0.00151597
0.00158219
0.0016378
0.00168369
0.00172085
0.00175045
0.00177371
0.00179183
0.00180592
0.00181697
0.0018258
0.00183314
0.00183957
0.00184557
0.00185154
0.00185781
0.00186462
0.00187216
0.00188054
0.00188981
0.00189999
0.00191102
0.00192281
0.00193526
0.00194822
0.00196155
0.00197511
0.00198878
0.00200244
0.00201597
0.00202924
0.00204202
0.0020539
0.00206428
0.00207227
0.00207671
0.00207623
0.0020694
0.00205481
0.00203132
0.00199817
0.00195511
0.00190244
0.00184109
0.00177254
0.00169884
0.00162251
0.00154637
0.00147332
0.00140597
0.00134633
0.00129516
0.00125468
0.00120894
0.000125803
0.000123863
0.00012237
0.000121093
0.000119552
0.000117109
0.000114143
0.000113387
0.000119072
0.000134637
0.000161871
0.000200939
0.000250406
0.000307465
0.000368591
0.000430477
0.000490845
0.000548852
0.000604456
0.000658847
0.000713136
0.000767668
0.000821968
0.00087499
0.000925367
0.000971507
0.00101159
0.00104354
0.00106507
0.00107379
0.00106737
0.00104381
0.00100181
0.000941384
0.000864901
0.000778729
0.000695661
0.000637577
0.000635595
0.000717258
0.000869865
0.00103441
0.00117201
0.00128219
0.0013735
0.00145139
0.00151842
0.00157579
0.00162422
0.00166444
0.00169726
0.00172363
0.00174454
0.00176096
0.00177383
0.00178396
0.00179207
0.00179879
0.00180462
0.00181
0.00181531
0.00182083
0.00182682
0.00183347
0.00184091
0.00184924
0.0018585
0.00186868
0.00187974
0.00189161
0.00190417
0.00191731
0.00193089
0.00194477
0.00195884
0.00197295
0.00198695
0.0020006
0.00201349
0.00202503
0.00203431
0.00204021
0.00204136
0.00203634
0.00202376
0.00200248
0.00197174
0.00193128
0.00188138
0.00182287
0.0017572
0.00168629
0.00161256
0.00153875
0.00146767
0.00140193
0.00134358
0.00129343
0.00125373
0.00120889
0.000297097
0.000291374
0.000286392
0.000282813
0.000281774
0.000284623
0.000291675
0.000298632
0.000293123
0.000264926
0.000224137
0.000190493
0.000173474
0.000173247
0.000187368
0.000213314
0.000248674
0.000291018
0.000337886
0.000386562
0.000434766
0.000481044
0.000524699
0.000565427
0.000602899
0.000636467
0.000665062
0.000687259
0.000701442
0.000706053
0.000699906
0.000682631
0.000655303
0.000621358
0.000587843
0.000566838
0.000575931
0.000633624
0.000743849
0.000882644
0.00101801
0.00113573
0.00123568
0.00132138
0.00139585
0.00146101
0.00151788
0.00156703
0.00160892
0.00164404
0.00167299
0.00169649
0.00171532
0.00173027
0.00174209
0.00175145
0.00175897
0.00176518
0.00177053
0.00177541
0.00178015
0.00178502
0.00179026
0.00179607
0.0018026
0.00180995
0.00181821
0.0018274
0.00183754
0.00184858
0.00186046
0.00187308
0.00188633
0.00190008
0.00191422
0.00192859
0.00194305
0.00195734
0.00197106
0.0019836
0.00199411
0.00200145
0.00200429
0.00200118
0.00199078
0.00197194
0.00194388
0.00190632
0.00185949
0.00180416
0.00174166
0.00167382
0.00160293
0.00153162
0.00146265
0.00139858
0.00134149
0.00129229
0.00125328
0.00120917
0.000497205
0.000488712
0.000480492
0.000472736
0.000465955
0.000461291
0.00046095
0.000468447
0.000487932
0.00052155
0.000561568
0.00057849
0.000539919
0.000458441
0.000374359
0.000310903
0.000271297
0.000251485
0.000246443
0.000252117
0.000265756
0.000285103
0.000308104
0.000332889
0.00035782
0.000381544
0.000402991
0.000421381
0.000436279
0.000447757
0.000456711
0.000465326
0.000477654
0.000500042
0.000540638
0.000606526
0.000698194
0.000806573
0.000918593
0.00102486
0.00112118
0.00120688
0.00128296
0.00135082
0.00141154
0.00146574
0.00151375
0.00155575
0.00159194
0.00162261
0.00164819
0.0016692
0.00168624
0.00169992
0.00171084
0.00171956
0.0017266
0.00173241
0.00173738
0.00174185
0.00174611
0.00175043
0.00175502
0.00176007
0.00176573
0.00177213
0.00177937
0.00178751
0.00179659
0.00180662
0.00181756
0.00182938
0.00184198
0.00185526
0.00186912
0.00188342
0.00189801
0.00191265
0.00192696
0.00194033
0.00195194
0.00196066
0.00196517
0.00196406
0.00195597
0.00193974
0.0019146
0.00188021
0.00183673
0.00178487
0.00172583
0.00166133
0.00159351
0.00152489
0.00145815
0.00139582
0.00134001
0.0012917
0.00125331
0.00120975
0.000683405
0.0006735
0.000663671
0.000653861
0.000644055
0.000634376
0.000625259
0.000617756
0.000613841
0.00061643
0.00062867
0.000651622
0.000680967
0.000705579
0.000709653
0.000681401
0.000624171
0.000553619
0.000488604
0.000440789
0.000407863
0.000386735
0.000375052
0.000371076
0.000373493
0.000381321
0.000393899
0.000410948
0.000432647
0.000459719
0.000493437
0.000535453
0.000587329
0.000649785
0.000721991
0.000801451
0.000884614
0.000967784
0.00104793
0.00112319
0.00119288
0.0012571
0.00131621
0.00137056
0.00142033
0.00146554
0.00150615
0.00154211
0.00157347
0.00160037
0.00162307
0.00164195
0.00165745
0.00167005
0.00168022
0.00168842
0.00169507
0.00170056
0.00170523
0.00170938
0.00171327
0.00171712
0.00172115
0.00172553
0.0017304
0.00173591
0.00174215
0.00174922
0.00175719
0.00176609
0.00177593
0.00178671
0.00179838
0.00181088
0.00182412
0.001838
0.00185239
0.00186706
0.00188165
0.00189561
0.00190812
0.0019181
0.00192425
0.00192516
0.00191946
0.00190599
0.00188395
0.00185294
0.00181307
0.00176494
0.00170962
0.0016487
0.00158418
0.00151844
0.00145407
0.00139356
0.00133904
0.0012916
0.00125375
0.00121062
0.000839944
0.000830164
0.000820359
0.000810474
0.000800454
0.000790256
0.000779886
0.000769461
0.000759347
0.000750342
0.000743789
0.000741348
0.000744238
0.000752297
0.000763181
0.000772081
0.000773111
0.000760917
0.000737385
0.000709066
0.00068076
0.0006556
0.00063542
0.000621207
0.000613454
0.0006124
0.000618171
0.000630855
0.000650526
0.000677218
0.000710854
0.000751148
0.000797499
0.000848941
0.000904175
0.00096171
0.00102007
0.00107798
0.00113449
0.00118897
0.0012411
0.0012907
0.00133764
0.0013818
0.00142297
0.00146093
0.00149549
0.00152647
0.00155381
0.00157755
0.00159784
0.00161493
0.00162914
0.00164082
0.00165037
0.00165813
0.00166448
0.00166972
0.00167416
0.00167806
0.00168165
0.00168513
0.00168869
0.00169249
0.00169667
0.00170136
0.00170668
0.00171272
0.00171957
0.00172729
0.00173593
0.00174552
0.00175605
0.0017675
0.00177982
0.00179294
0.00180677
0.00182113
0.00183568
0.00184994
0.00186312
0.00187417
0.00188184
0.00188472
0.00188143
0.00187081
0.001852
0.00182455
0.0017885
0.00174431
0.00169295
0.00163583
0.00157481
0.00151213
0.00145027
0.00139167
0.00133849
0.00129192
0.00125456
0.00121174
0.000959696
0.000951213
0.000942632
0.000933924
0.000925054
0.000915995
0.00090673
0.000897265
0.000887652
0.000878036
0.000868733
0.000860309
0.000853537
0.000849169
0.00084759
0.000848455
0.000850596
0.000851909
0.000851074
0.000847651
0.000842098
0.000835455
0.000828995
0.000823968
0.000821459
0.000822341
0.000827264
0.000836672
0.000850819
0.000869773
0.00089342
0.000921467
0.000953449
0.000988759
0.00102669
0.00106651
0.00110751
0.00114906
0.00119063
0.00123181
0.00127225
0.00131163
0.00134967
0.00138607
0.0014205
0.00145269
0.00148234
0.00150926
0.0015333
0.00155443
0.00157272
0.00158832
0.00160145
0.00161238
0.0016214
0.00162882
0.00163492
0.00163997
0.00164424
0.00164795
0.0016513
0.00165448
0.00165765
0.00166097
0.00166455
0.00166853
0.00167301
0.0016781
0.00168388
0.00169044
0.00169786
0.00170617
0.00171542
0.00172563
0.00173678
0.00174886
0.00176181
0.0017755
0.00178967
0.00180388
0.00181743
0.00182932
0.00183832
0.00184306
0.00184215
0.00183439
0.00181889
0.00179512
0.00176303
0.00172297
0.00167575
0.00162263
0.00156529
0.00150584
0.00144663
0.00139005
0.00133827
0.00129256
0.00125567
0.00121306
0.0010434
0.00103682
0.0010301
0.00102323
0.0010162
0.00100898
0.00100159
0.000994026
0.000986311
0.000978489
0.000970647
0.000962938
0.000955618
0.000949047
0.000943625
0.000939675
0.000937313
0.000936304
0.000936247
0.000936736
0.000937491
0.000938441
0.000939728
0.000941671
0.000944699
0.000949277
0.00095585
0.000964801
0.000976414
0.000990864
0.0010082
0.00102837
0.0010512
0.00107643
0.00110373
0.00113275
0.00116311
0.00119446
0.00122645
0.00125876
0.00129106
0.00132306
0.00135443
0.00138485
0.00141401
0.00144159
0.00146731
0.00149093
0.00151228
0.00153127
0.00154791
0.00156228
0.00157452
0.00158482
0.00159342
0.00160056
0.00160647
0.00161138
0.00161552
0.00161908
0.00162225
0.00162519
0.00162805
0.00163096
0.00163405
0.00163741
0.00164116
0.00164539
0.0016502
0.00165567
0.00166189
0.00166893
0.00167685
0.0016857
0.00169551
0.00170632
0.00171811
0.00173082
0.00174427
0.00175809
0.00177167
0.00178409
0.00179419
0.0018006
0.00180195
0.001797
0.0017848
0.00176477
0.00173672
0.00170091
0.00165798
0.00160901
0.00155552
0.00149945
0.00144302
0.00138856
0.00133825
0.00129344
0.00125701
0.00121455
0.00109686
0.00109225
0.0010875
0.00108259
0.00107753
0.00107231
0.00106694
0.00106144
0.00105581
0.0010501
0.00104434
0.0010386
0.00103298
0.00102759
0.00102264
0.00101833
0.00101487
0.00101239
0.00101096
0.00101056
0.00101115
0.00101267
0.0010151
0.00101847
0.00102286
0.00102842
0.0010353
0.00104368
0.00105373
0.00106557
0.00107927
0.00109486
0.00111231
0.00113152
0.00115237
0.00117468
0.00119826
0.00122291
0.00124838
0.00127445
0.00130087
0.00132736
0.00135365
0.00137946
0.00140447
0.0014284
0.00145096
0.00147192
0.00149108
0.00150832
0.00152361
0.00153696
0.00154846
0.00155825
0.00156651
0.00157342
0.00157918
0.00158399
0.00158804
0.00159149
0.00159452
0.00159728
0.00159989
0.00160247
0.00160514
0.00160799
0.00161111
0.0016146
0.00161854
0.00162302
0.00162813
0.00163395
0.00164056
0.00164803
0.00165643
0.00166582
0.00167624
0.00168771
0.00170012
0.00171321
0.00172647
0.00173909
0.00174997
0.00175781
0.00176122
0.00175895
0.00174998
0.00173366
0.00170969
0.00167817
0.00163961
0.00159491
0.0015454
0.00149283
0.00143931
0.00138709
0.00133833
0.00129445
0.0012585
0.00121615
0.00112798
0.00112503
0.00112196
0.00111876
0.00111543
0.00111198
0.00110842
0.00110475
0.001101
0.00109719
0.00109334
0.0010895
0.00108572
0.00108206
0.0010786
0.00107544
0.00107271
0.00107053
0.00106901
0.00106826
0.00106834
0.0010693
0.00107119
0.00107402
0.00107785
0.00108271
0.00108868
0.00109583
0.00110422
0.00111392
0.00112499
0.00113744
0.00115129
0.00116651
0.00118305
0.00120083
0.00121975
0.00123969
0.00126051
0.00128202
0.00130405
0.00132639
0.00134879
0.001371
0.00139276
0.00141379
0.00143382
0.00145263
0.00147001
0.00148582
0.00149998
0.00151249
0.00152338
0.00153275
0.00154072
0.00154746
0.0015531
0.00155784
0.00156182
0.0015652
0.00156813
0.00157074
0.00157315
0.00157547
0.00157779
0.00158021
0.00158281
0.00158567
0.00158886
0.00159248
0.0015966
0.0016013
0.00160668
0.00161281
0.0016198
0.00162772
0.00163667
0.00164672
0.00165785
0.00166991
0.00168251
0.00169497
0.00170629
0.00171524
0.00172045
0.00172064
0.00171475
0.00170202
0.00168206
0.00165484
0.00162068
0.00158029
0.00153484
0.00148589
0.00143539
0.00138551
0.00133839
0.00129551
0.00126006
0.00121781
0.00114444
0.00114269
0.00114084
0.00113891
0.00113688
0.00113477
0.00113259
0.00113034
0.00112805
0.00112572
0.00112338
0.00112106
0.00111878
0.00111659
0.00111453
0.00111266
0.00111103
0.00110973
0.00110884
0.00110844
0.0011086
0.0011094
0.00111091
0.00111318
0.00111627
0.00112022
0.00112509
0.00113091
0.00113774
0.00114561
0.00115458
0.00116465
0.00117585
0.00118818
0.00120163
0.00121615
0.00123171
0.00124823
0.0012656
0.00128373
0.00130246
0.00132162
0.00134102
0.00136043
0.00137962
0.00139834
0.00141635
0.00143341
0.00144932
0.00146394
0.00147717
0.00148897
0.00149935
0.00150836
0.0015161
0.00152269
0.00152825
0.00153293
0.00153687
0.0015402
0.00154306
0.00154556
0.00154781
0.00154992
0.00155197
0.00155404
0.0015562
0.00155853
0.0015611
0.00156397
0.00156723
0.00157096
0.00157523
0.00158014
0.00158578
0.00159227
0.00159972
0.00160826
0.00161795
0.00162875
0.0016404
0.00165236
0.00166377
0.00167346
0.00168015
0.00168252
0.00167946
0.00167015
0.00165406
0.00163103
0.00160122
0.00156516
0.00152381
0.00147854
0.00143115
0.0013837
0.00133831
0.0012965
0.00126161
0.00121947
0.00115232
0.00115131
0.00115025
0.00114913
0.00114795
0.00114674
0.00114548
0.00114419
0.00114289
0.00114159
0.0011403
0.00113904
0.00113783
0.00113671
0.00113569
0.00113481
0.00113411
0.00113363
0.00113343
0.00113356
0.00113407
0.00113503
0.0011365
0.00113852
0.00114116
0.00114448
0.00114851
0.00115332
0.00115893
0.00116541
0.00117277
0.00118106
0.0011903
0.00120051
0.00121169
0.00122383
0.00123692
0.0012509
0.00126573
0.0012813
0.00129753
0.00131425
0.00133132
0.00134854
0.0013657
0.00138256
0.00139891
0.00141453
0.00142923
0.00144286
0.0014553
0.00146649
0.00147643
0.00148513
0.00149267
0.00149914
0.00150463
0.00150928
0.00151319
0.00151649
0.00151929
0.00152171
0.00152385
0.00152579
0.00152761
0.0015294
0.00153121
0.00153311
0.00153515
0.00153741
0.00153995
0.00154284
0.00154615
0.00154997
0.00155441
0.00155956
0.00156558
0.00157262
0.00158081
0.0015902
0.00160067
0.00161184
0.00162298
0.00163307
0.00164085
0.00164506
0.00164453
0.00163836
0.00162592
0.00160691
0.00158134
0.00154954
0.00151227
0.00147071
0.0014265
0.00138157
0.001338
0.00129734
0.00126306
0.00122107