/*--------------------------------*- C++ -*----------------------------------*\
| =========                 |                                                 |
| \\      /  F ield         | OpenFOAM: The Open Source CFD Toolbox           |
|  \\    /   O peration     | Version:  2.1.1                                 |
|   \\  /    A nd           | Web:      www.OpenFOAM.org                      |
|    \\/     M anipulation  |                                                 |
\*---------------------------------------------------------------------------*/
FoamFile
{
    version     2.0;
    format      ascii;
    class       volScalarField;
    location    "0.07";
    object      p;
}
// * * * * * * * * * * * * * * * * * * * * * * * * * * * * * * * * * * * * * //

dimensions      [0 2 -2 0 0 0 0];

internalField   nonuniform List<scalar> 
6820
(
-11.1583
-13.0045
-13.5793
-13.7067
-13.8132
-13.8917
-13.9453
-13.9908
-14.0321
-14.0696
-14.1044
-14.1369
-14.1674
-14.1961
-14.223
-14.2482
-14.2718
-14.2938
-14.3143
-14.3332
-14.3506
-14.3664
-14.3804
-14.3926
-14.4027
-14.4104
-14.415
-14.416
-14.4119
-14.401
-14.3793
-14.3375
-14.2728
-15.1109
-14.5762
-14.1534
-13.963
-13.9379
-13.9485
-13.9679
-13.9948
-14.0259
-14.0579
-14.0898
-14.1211
-14.1514
-14.1803
-14.2079
-14.2339
-14.2584
-14.2813
-14.3027
-14.3225
-14.3408
-14.3575
-14.3725
-14.3856
-14.3968
-14.4057
-14.412
-14.4155
-14.4151
-14.4124
-14.4044
-14.4143
-14.4258
-13.4684
-13.1645
-13.4509
-13.6956
-13.8
-13.8747
-13.9329
-13.9813
-14.0242
-14.0629
-14.0985
-14.1314
-14.1622
-14.1909
-14.2178
-14.2431
-14.2667
-14.2887
-14.3093
-14.3284
-14.3461
-14.3622
-14.3769
-14.3898
-14.401
-14.4103
-14.4173
-14.422
-14.424
-14.4241
-14.4224
-14.4252
-14.4279
-13.9754
-14.0097
-14.0065
-13.947
-13.9388
-13.9586
-13.9842
-14.0121
-14.0418
-14.0718
-14.1014
-14.1303
-14.1583
-14.1852
-14.211
-14.2355
-14.2588
-14.2808
-14.3015
-14.3209
-14.3389
-14.3556
-14.3709
-14.3847
-14.3969
-14.4075
-14.4162
-14.4233
-14.4285
-14.4331
-14.437
-14.4474
-14.4585
-13.8201
-13.72
-13.764
-13.8295
-13.882
-13.9279
-13.9678
-14.0042
-14.0389
-14.072
-14.1035
-14.1334
-14.162
-14.1892
-14.215
-14.2394
-14.2625
-14.2843
-14.3048
-14.324
-14.342
-14.3587
-14.3741
-14.3882
-14.401
-14.4123
-14.4222
-14.4309
-14.4384
-14.4459
-14.4535
-14.4649
-14.4778
-13.8752
-13.8584
-13.8834
-13.9061
-13.9279
-13.9566
-13.9873
-14.0181
-14.0488
-14.0789
-14.1081
-14.1364
-14.1636
-14.1897
-14.2147
-14.2385
-14.2612
-14.2827
-14.3031
-14.3223
-14.3404
-14.3574
-14.3733
-14.388
-14.4016
-14.414
-14.4254
-14.436
-14.446
-14.4562
-14.467
-14.4805
-14.4954
-13.8736
-13.8523
-13.868
-13.8964
-13.926
-13.9582
-13.9904
-14.0215
-14.052
-14.0818
-14.1106
-14.1385
-14.1653
-14.191
-14.2157
-14.2393
-14.2618
-14.2832
-14.3036
-14.3229
-14.3412
-14.3585
-14.3748
-14.3901
-14.4045
-14.418
-14.4308
-14.443
-14.4551
-14.4676
-14.4808
-14.496
-14.5125
-13.8878
-13.8799
-13.8951
-13.9192
-13.944
-13.9716
-14.0004
-14.0293
-14.058
-14.0864
-14.1141
-14.141
-14.1671
-14.1922
-14.2164
-14.2396
-14.2618
-14.2831
-14.3034
-14.3227
-14.3412
-14.3588
-14.3756
-14.3915
-14.4067
-14.4213
-14.4355
-14.4494
-14.4633
-14.4778
-14.4933
-14.5102
-14.5286
-13.9009
-13.8969
-13.9088
-13.93
-13.9535
-13.9798
-14.0074
-14.0352
-14.0629
-14.0903
-14.1172
-14.1434
-14.1688
-14.1934
-14.2172
-14.24
-14.262
-14.2832
-14.3035
-14.3229
-14.3416
-14.3595
-14.3768
-14.3934
-14.4094
-14.4251
-14.4405
-14.4559
-14.4715
-14.4879
-14.5052
-14.5239
-14.5441
-13.9146
-13.9139
-13.925
-13.9441
-13.9658
-13.99
-14.0158
-14.042
-14.0684
-14.0947
-14.1206
-14.1459
-14.1707
-14.1947
-14.218
-14.2405
-14.2623
-14.2833
-14.3036
-14.3231
-14.342
-14.3603
-14.3779
-14.3952
-14.412
-14.4286
-14.4452
-14.462
-14.4792
-14.4972
-14.5162
-14.5366
-14.5585
-13.9283
-13.9292
-13.9394
-13.9566
-13.9767
-13.9992
-14.0235
-14.0484
-14.0737
-14.0989
-14.1239
-14.1485
-14.1726
-14.1961
-14.219
-14.2412
-14.2627
-14.2836
-14.3038
-14.3234
-14.3425
-14.3611
-14.3792
-14.397
-14.4146
-14.4321
-14.4498
-14.4678
-14.4864
-14.5058
-14.5263
-14.5483
-14.5718
-13.9418
-13.9437
-13.9532
-13.9689
-13.9875
-14.0086
-14.0313
-14.055
-14.079
-14.1033
-14.1274
-14.1512
-14.1746
-14.1976
-14.22
-14.2418
-14.2631
-14.2839
-14.3041
-14.3238
-14.343
-14.3619
-14.3804
-14.3988
-14.4171
-14.4354
-14.454
-14.4731
-14.4929
-14.5136
-14.5354
-14.5587
-14.5837
-13.9548
-13.9572
-13.9662
-13.9805
-13.9978
-14.0175
-14.0389
-14.0614
-14.0843
-14.1076
-14.1308
-14.1539
-14.1767
-14.1991
-14.2211
-14.2426
-14.2636
-14.2842
-14.3044
-14.3241
-14.3435
-14.3626
-14.3816
-14.4004
-14.4193
-14.4384
-14.4578
-14.4778
-14.4986
-14.5204
-14.5433
-14.5678
-14.5939
-13.9674
-13.9699
-13.9785
-13.9917
-14.0078
-14.0262
-14.0464
-14.0676
-14.0896
-14.1119
-14.1343
-14.1566
-14.1788
-14.2006
-14.2222
-14.2434
-14.2642
-14.2846
-14.3047
-14.3245
-14.344
-14.3633
-14.3826
-14.4018
-14.4213
-14.441
-14.4611
-14.4819
-14.5035
-14.5261
-14.55
-14.5752
-14.6022
-13.9793
-13.9819
-13.99
-14.0022
-14.0172
-14.0345
-14.0536
-14.0737
-14.0947
-14.1161
-14.1377
-14.1593
-14.1808
-14.2022
-14.2233
-14.2441
-14.2647
-14.2849
-14.3049
-14.3247
-14.3443
-14.3638
-14.3833
-14.403
-14.4228
-14.443
-14.4637
-14.4851
-14.5073
-14.5306
-14.5551
-14.581
-14.6086
-13.9906
-13.9931
-14.0008
-14.0122
-14.0262
-14.0425
-14.0605
-14.0796
-14.0996
-14.1201
-14.141
-14.1619
-14.1829
-14.2037
-14.2244
-14.2449
-14.2651
-14.2852
-14.3051
-14.3248
-14.3445
-14.3641
-14.3838
-14.4037
-14.4239
-14.4444
-14.4656
-14.4874
-14.5101
-14.5338
-14.5587
-14.585
-14.6129
-14.0012
-14.0037
-14.0109
-14.0215
-14.0347
-14.05
-14.067
-14.0853
-14.1044
-14.1241
-14.1441
-14.1644
-14.1848
-14.2051
-14.2254
-14.2455
-14.2655
-14.2853
-14.3051
-14.3248
-14.3444
-14.3641
-14.3839
-14.404
-14.4243
-14.4452
-14.4666
-14.4887
-14.5116
-14.5356
-14.5607
-14.5871
-14.6149
-14.0111
-14.0135
-14.0203
-14.0303
-14.0426
-14.0571
-14.0732
-14.0906
-14.1089
-14.1278
-14.1472
-14.1668
-14.1866
-14.2064
-14.2262
-14.246
-14.2657
-14.2853
-14.3049
-14.3244
-14.344
-14.3637
-14.3836
-14.4037
-14.4242
-14.4451
-14.4666
-14.4888
-14.5119
-14.5359
-14.5609
-14.5872
-14.6147
-14.0203
-14.0225
-14.0289
-14.0383
-14.05
-14.0637
-14.079
-14.0955
-14.1131
-14.1313
-14.15
-14.169
-14.1882
-14.2076
-14.2269
-14.2463
-14.2657
-14.2851
-14.3044
-14.3238
-14.3433
-14.3629
-14.3827
-14.4028
-14.4233
-14.4442
-14.4657
-14.4878
-14.5108
-14.5346
-14.5594
-14.5852
-14.6123
-14.0287
-14.0308
-14.0369
-14.0458
-14.0568
-14.0697
-14.0843
-14.1001
-14.1169
-14.1344
-14.1525
-14.1709
-14.1896
-14.2085
-14.2274
-14.2464
-14.2655
-14.2846
-14.3037
-14.3229
-14.3422
-14.3616
-14.3813
-14.4012
-14.4216
-14.4423
-14.4637
-14.4856
-14.5082
-14.5317
-14.556
-14.5812
-14.6076
-14.0364
-14.0384
-14.0441
-14.0525
-14.0629
-14.0753
-14.0891
-14.1043
-14.1204
-14.1373
-14.1547
-14.1726
-14.1908
-14.2092
-14.2277
-14.2463
-14.265
-14.2838
-14.3026
-14.3215
-14.3406
-14.3598
-14.3792
-14.399
-14.419
-14.4395
-14.4605
-14.4821
-14.5043
-14.5271
-14.5508
-14.5753
-14.6007
-14.0432
-14.0451
-14.0505
-14.0585
-14.0684
-14.0802
-14.0934
-14.1079
-14.1234
-14.1397
-14.1566
-14.1739
-14.1916
-14.2095
-14.2276
-14.2458
-14.2642
-14.2826
-14.3011
-14.3197
-14.3385
-14.3574
-14.3765
-14.3959
-14.4156
-14.4357
-14.4563
-14.4773
-14.4989
-14.521
-14.5438
-14.5674
-14.5916
-14.0493
-14.0511
-14.0562
-14.0638
-14.0732
-14.0844
-14.0971
-14.1111
-14.126
-14.1417
-14.1581
-14.1749
-14.1921
-14.2096
-14.2272
-14.2451
-14.263
-14.281
-14.2992
-14.3174
-14.3358
-14.3544
-14.3731
-14.3921
-14.4114
-14.4309
-14.4509
-14.4712
-14.4921
-14.5134
-14.5352
-14.5576
-14.5805
-14.0544
-14.0561
-14.061
-14.0682
-14.0773
-14.088
-14.1002
-14.1136
-14.128
-14.1432
-14.1591
-14.1754
-14.1922
-14.2092
-14.2264
-14.2438
-14.2614
-14.279
-14.2967
-14.3146
-14.3326
-14.3507
-14.369
-14.3874
-14.4061
-14.4251
-14.4443
-14.4639
-14.4838
-14.5042
-14.5249
-14.546
-14.5676
-14.0587
-14.0603
-14.065
-14.0719
-14.0806
-14.0909
-14.1027
-14.1157
-14.1296
-14.1444
-14.1598
-14.1757
-14.192
-14.2085
-14.2254
-14.2423
-14.2594
-14.2767
-14.294
-14.3114
-14.3289
-14.3465
-14.3642
-14.3821
-14.4001
-14.4183
-14.4368
-14.4555
-14.4744
-14.4936
-14.5131
-14.5328
-14.5529
-14.0621
-14.0636
-14.068
-14.0746
-14.0829
-14.0928
-14.1041
-14.1167
-14.1302
-14.1445
-14.1595
-14.175
-14.1909
-14.2071
-14.2235
-14.2401
-14.2568
-14.2735
-14.2904
-14.3073
-14.3243
-14.3414
-14.3585
-14.3757
-14.393
-14.4105
-14.428
-14.4457
-14.4636
-14.4816
-14.4998
-14.5181
-14.5366
-14.0645
-14.066
-14.0703
-14.0767
-14.0848
-14.0945
-14.1056
-14.1178
-14.1309
-14.1449
-14.1595
-14.1746
-14.1901
-14.2059
-14.2219
-14.238
-14.2542
-14.2705
-14.2868
-14.3032
-14.3196
-14.3361
-14.3525
-14.369
-14.3855
-14.402
-14.4186
-14.4353
-14.4519
-14.4687
-14.4854
-14.5022
-14.519
-14.0658
-14.0671
-14.071
-14.0769
-14.0845
-14.0937
-14.1045
-14.1164
-14.1293
-14.143
-14.1573
-14.1722
-14.1873
-14.2028
-14.2184
-14.2342
-14.2501
-14.266
-14.2819
-14.2978
-14.3136
-14.3294
-14.3452
-14.361
-14.3767
-14.3923
-14.4079
-14.4235
-14.439
-14.4544
-14.4697
-14.485
-14.5001
-14.0664
-14.0681
-14.0723
-14.0784
-14.0862
-14.0954
-14.1059
-14.1175
-14.1301
-14.1435
-14.1574
-14.1718
-14.1866
-14.2016
-14.2168
-14.2321
-14.2474
-14.2627
-14.278
-14.2932
-14.3084
-14.3235
-14.3385
-14.3533
-14.3681
-14.3827
-14.3972
-14.4116
-14.4258
-14.4398
-14.4537
-14.4673
-14.4807
-14.0651
-14.0657
-14.0686
-14.0736
-14.0806
-14.0894
-14.0998
-14.1114
-14.1241
-14.1375
-14.1516
-14.166
-14.1808
-14.1958
-14.2108
-14.226
-14.2411
-14.2561
-14.2711
-14.2859
-14.3006
-14.3151
-14.3295
-14.3436
-14.3576
-14.3713
-14.3848
-14.3981
-14.4111
-14.4238
-14.4362
-14.4483
-14.4601
-14.0651
-14.0678
-14.0723
-14.0784
-14.0858
-14.0947
-14.1048
-14.116
-14.1281
-14.1409
-14.1543
-14.168
-14.1821
-14.1964
-14.2107
-14.2251
-14.2394
-14.2537
-14.2679
-14.2819
-14.2957
-14.3094
-14.3227
-14.3359
-14.3488
-14.3614
-14.3737
-14.3857
-14.3973
-14.4086
-14.4195
-14.43
-14.44
-14.0573
-14.0551
-14.0555
-14.0594
-14.0663
-14.0755
-14.0865
-14.0988
-14.1121
-14.1261
-14.1406
-14.1553
-14.1702
-14.1851
-14.2
-14.2148
-14.2294
-14.2438
-14.258
-14.2719
-14.2855
-14.2988
-14.3118
-14.3244
-14.3366
-14.3484
-14.3599
-14.3709
-14.3814
-14.3915
-14.4012
-14.4103
-14.4188
-14.066
-14.0726
-14.0784
-14.0835
-14.0894
-14.0968
-14.1058
-14.116
-14.1272
-14.1391
-14.1516
-14.1645
-14.1778
-14.1911
-14.2045
-14.2179
-14.2312
-14.2444
-14.2574
-14.2701
-14.2825
-14.2946
-14.3064
-14.3178
-14.3288
-14.3393
-14.3495
-14.3591
-14.3682
-14.3769
-14.3849
-14.3924
-14.3994
-14.0337
-14.0201
-14.0151
-14.0206
-14.0309
-14.0438
-14.0583
-14.0737
-14.0897
-14.1059
-14.1222
-14.1384
-14.1543
-14.17
-14.1854
-14.2004
-14.215
-14.2292
-14.2429
-14.2562
-14.269
-14.2813
-14.2931
-14.3044
-14.3151
-14.3252
-14.3348
-14.3438
-14.3521
-14.3599
-14.3669
-14.3733
-14.379
-14.0884
-14.1089
-14.1137
-14.1093
-14.1067
-14.109
-14.1144
-14.1218
-14.1306
-14.1407
-14.1516
-14.163
-14.1749
-14.187
-14.1993
-14.2115
-14.2236
-14.2355
-14.2472
-14.2585
-14.2695
-14.2802
-14.2904
-14.3001
-14.3093
-14.3179
-14.326
-14.3335
-14.3404
-14.3466
-14.3522
-14.357
-14.3612
-13.9655
-13.9159
-13.904
-13.9298
-13.9586
-13.9833
-14.0075
-14.031
-14.0535
-14.0749
-14.0952
-14.1146
-14.133
-14.1506
-14.1674
-14.1834
-14.1987
-14.2132
-14.2271
-14.2402
-14.2526
-14.2643
-14.2753
-14.2856
-14.2951
-14.304
-14.312
-14.3194
-14.3259
-14.3316
-14.3366
-14.3407
-14.344
-14.2143
-14.2493
-14.2186
-14.1765
-14.1479
-14.1369
-14.1342
-14.1353
-14.1395
-14.1459
-14.154
-14.1632
-14.1732
-14.1836
-14.1942
-14.205
-14.2158
-14.2264
-14.2368
-14.2468
-14.2566
-14.2658
-14.2746
-14.2829
-14.2906
-14.2977
-14.3041
-14.3099
-14.3149
-14.3193
-14.3228
-14.3257
-14.3277
-13.7221
-13.6023
-13.6647
-13.7663
-13.8405
-13.8929
-13.9369
-13.9755
-14.0092
-14.0389
-14.0656
-14.0898
-14.1119
-14.1323
-14.1512
-14.1687
-14.185
-14.2003
-14.2145
-14.2277
-14.24
-14.2514
-14.2619
-14.2715
-14.2802
-14.288
-14.295
-14.301
-14.3062
-14.3104
-14.3137
-14.316
-14.3174
-14.9368
-14.5979
-14.3343
-14.2176
-14.1675
-14.1424
-14.1277
-14.1218
-14.1223
-14.1267
-14.1337
-14.1424
-14.1521
-14.1626
-14.1735
-14.1845
-14.1954
-14.2062
-14.2167
-14.2268
-14.2365
-14.2457
-14.2543
-14.2623
-14.2697
-14.2763
-14.2822
-14.2874
-14.2917
-14.2953
-14.2979
-14.2998
-14.3007
-12.4333
-13.1399
-13.5447
-13.6972
-13.8021
-13.8848
-13.9446
-13.9899
-14.0268
-14.0575
-14.0837
-14.1066
-14.127
-14.1456
-14.1626
-14.1783
-14.1928
-14.2064
-14.2189
-14.2306
-14.2413
-14.2512
-14.2603
-14.2684
-14.2757
-14.2821
-14.2876
-14.2922
-14.2958
-14.2986
-14.3003
-14.3012
-14.301
-14.0936
-14.1794
-14.2236
-14.2218
-14.2394
-14.2991
-14.4395
-14.6737
-14.992
-15.3802
-15.8204
-16.2946
-16.7847
-17.2735
-17.7463
-18.1913
-18.6002
-18.9691
-19.2954
-19.5809
-19.8268
-20.0357
-20.2096
-20.3504
-20.4594
-20.5371
-20.5832
-20.5964
-20.5741
-20.5128
-20.4072
-20.2509
-20.0358
-19.7522
-19.3891
-18.9341
-18.3742
-17.696
-16.8876
-15.9404
-14.853
-13.6329
-12.2991
-10.8893
-9.45344
-8.03571
-6.67379
-5.40323
-4.25307
-3.24131
-2.37441
-1.649
-1.05485
-0.57787
-0.202528
0.0866007
0.303901
0.462266
0.572949
0.645574
0.688255
0.707739
0.709573
0.698266
0.677446
0.649992
0.618166
0.583719
0.547984
0.511963
0.476391
0.441796
0.408543
0.376877
0.346952
0.318855
0.292626
0.268273
0.245779
0.225111
0.206217
0.189029
0.173461
0.159401
0.14671
0.135224
0.124747
0.11507
0.105957
0.0972142
0.0886089
0.0800955
0.0713399
0.0627205
0.0532512
0.0448361
0.0335527
0.0273436
0.0104707
0.0141172
-14.724
-14.7377
-14.554
-14.3957
-14.2938
-14.2871
-14.3765
-14.5706
-14.8686
-15.2544
-15.704
-16.1908
-16.6891
-17.1772
-17.6405
-18.071
-18.4651
-18.8213
-19.1383
-19.4185
-19.6609
-19.867
-20.0385
-20.1766
-20.2826
-20.3568
-20.399
-20.4075
-20.3797
-20.3117
-20.1983
-20.0327
-19.8069
-19.5114
-19.1353
-18.6667
-18.093
-17.4018
-16.5828
-15.6312
-14.5496
-13.3495
-12.0555
-10.7037
-9.33041
-7.97099
-6.66227
-5.43838
-4.32615
-3.34259
-2.49442
-1.77948
-1.18913
-0.710986
-0.330976
-0.0348925
0.190717
0.358061
0.477899
0.559524
0.610823
0.638408
0.647751
0.643329
0.628765
0.60696
0.580206
0.550292
0.518597
0.486165
0.453774
0.421992
0.391223
0.361745
0.333744
0.307332
0.282575
0.2595
0.238111
0.218392
0.200308
0.183812
0.168835
0.155286
0.143044
0.131962
0.121857
0.112532
0.103755
0.0953348
0.0870392
0.0788094
0.0703256
0.061921
0.0526984
0.0443647
0.0334297
0.026903
0.011085
0.0127037
-14.4468
-14.3662
-14.3045
-14.2906
-14.3097
-14.3778
-14.5052
-14.7008
-14.9661
-15.2943
-15.6763
-16.1
-16.5501
-17.0101
-17.4633
-17.8953
-18.2949
-18.6584
-18.9753
-19.2523
-19.4885
-19.6873
-19.8516
-19.9834
-20.0837
-20.1524
-20.1888
-20.1909
-20.1559
-20.0796
-19.9567
-19.7805
-19.5427
-19.234
-18.8437
-18.3599
-17.7711
-17.0673
-16.2428
-15.2969
-14.2344
-13.0693
-11.8254
-10.5302
-9.21357
-7.90938
-6.65235
-5.47381
-4.39856
-3.44274
-2.61331
-1.90914
-1.32309
-0.844299
-0.460115
-0.157492
0.0761042
0.252195
0.381042
0.471588
0.531487
0.567199
0.584111
0.586657
0.578452
0.562408
0.540844
0.515585
0.488048
0.459319
0.43022
0.401355
0.373168
0.345969
0.319975
0.295326
0.272111
0.250379
0.230152
0.211433
0.194207
0.178444
0.164093
0.151084
0.139314
0.128653
0.118932
0.109964
0.101526
0.0934281
0.0854404
0.0774915
0.0692789
0.0610875
0.0521157
0.0438612
0.0332872
0.0264332
0.0116901
0.0112802
-14.5102
-14.5483
-14.5364
-14.5082
-14.4982
-14.535
-14.6337
-14.8028
-15.0445
-15.3525
-15.7135
-16.11
-16.5243
-16.9415
-17.3501
-17.7414
-18.1083
-18.4436
-18.7512
-19.0223
-19.2594
-19.4612
-19.6274
-19.7588
-19.8562
-19.92
-19.9498
-19.9442
-19.9003
-19.814
-19.6798
-19.491
-19.2392
-18.9152
-18.5088
-18.0102
-17.4111
-16.7053
-15.8884
-14.96
-13.9266
-12.8028
-11.6078
-10.3648
-9.10207
-7.85124
-6.64411
-5.50942
-4.47013
-3.54157
-2.73085
-2.03776
-1.45648
-0.977583
-0.589736
-0.281017
-0.0397843
0.144794
0.282477
0.381843
0.450301
0.494149
0.518674
0.528261
0.526507
0.516328
0.500066
0.479576
0.456314
0.431403
0.405704
0.379862
0.354356
0.329529
0.305628
0.282822
0.261222
0.2409
0.221898
0.204237
0.18792
0.172934
0.159249
0.146811
0.135537
0.125313
0.115987
0.10738
0.0992818
0.0915025
0.0838185
0.0761459
0.0682021
0.0602217
0.0515031
0.0433271
0.0331222
0.0259389
0.0122752
0.0098633
-14.5038
-14.5062
-14.4811
-14.4708
-14.4956
-14.5649
-14.6858
-14.8635
-15.0993
-15.3884
-15.7206
-16.0836
-16.4651
-16.8537
-17.2382
-17.6087
-17.957
-18.2772
-18.5662
-18.8193
-19.0392
-19.2259
-19.3798
-19.5016
-19.5914
-19.6484
-19.6713
-19.6577
-19.6046
-19.5075
-19.361
-19.1588
-18.8934
-18.5568
-18.141
-17.638
-17.0402
-16.3412
-15.538
-14.6324
-13.6321
-12.5491
-11.4001
-10.207
-8.99621
-7.7967
-6.63754
-5.54513
-4.54075
-3.63892
-2.84684
-2.16509
-1.58905
-1.11058
-0.719585
-0.405225
-0.156731
0.036051
0.182368
0.290428
0.367381
0.419351
0.451516
0.4682
0.472974
0.468754
0.457897
0.442285
0.423405
0.402421
0.380229
0.357511
0.334782
0.312418
0.290695
0.26981
0.249899
0.231055
0.21334
0.196793
0.181434
0.16727
0.154288
0.142453
0.1317
0.121932
0.113012
0.104775
0.0970183
0.0895575
0.0821752
0.0747764
0.0670995
0.0593284
0.0508649
0.042767
0.0329365
0.0254255
0.012836
0.0084671
-14.5184
-14.5379
-14.5477
-14.5651
-14.6034
-14.674
-14.7873
-14.95
-15.1644
-15.4271
-15.7302
-16.0634
-16.4153
-16.7742
-17.1292
-17.4711
-17.7932
-18.0904
-18.361
-18.6013
-18.8106
-18.9882
-19.1334
-19.2461
-19.3258
-19.3719
-19.3832
-19.3577
-19.2923
-19.183
-19.0249
-18.812
-18.5375
-18.194
-17.7738
-17.2694
-16.6743
-15.9843
-15.1983
-14.3185
-13.3509
-12.3067
-11.2019
-10.0569
-8.89594
-7.74561
-6.63249
-5.58081
-4.61028
-3.73462
-2.9611
-2.29094
-1.72057
-1.24305
-0.849434
-0.529905
-0.274542
-0.073864
0.0808625
0.197468
0.282831
0.34289
0.382704
0.406527
0.417894
0.419715
0.414356
0.403721
0.389329
0.372375
0.353792
0.334298
0.314439
0.294628
0.275168
0.256283
0.238134
0.220835
0.204468
0.189092
0.174743
0.161446
0.149206
0.138007
0.127801
0.118509
0.110009
0.102149
0.094738
0.0875961
0.0805141
0.0733864
0.0659748
0.0584111
0.0502034
0.0421836
0.0327301
0.0248966
0.0133675
0.00710386
-14.5345
-14.5568
-14.5739
-14.5987
-14.645
-14.7228
-14.8394
-14.9991
-15.2029
-15.4478
-15.7275
-16.0335
-16.3569
-16.6877
-17.0162
-17.3339
-17.6344
-17.913
-18.1666
-18.3913
-18.5858
-18.7496
-18.8822
-18.9832
-19.0521
-19.088
-19.0892
-19.0535
-18.9778
-18.8582
-18.69
-18.4675
-18.1845
-17.8343
-17.4102
-16.9062
-16.3172
-15.6396
-14.8724
-14.0177
-13.0817
-12.0752
-11.013
-9.91416
-8.80098
-7.69776
-6.6288
-5.61633
-4.67859
-3.82857
-3.07348
-2.41512
-1.85084
-1.37478
-0.979062
-0.654844
-0.393022
-0.184776
-0.0218864
0.103093
0.196758
0.264855
0.31231
0.343297
0.361311
0.369245
0.369468
0.363904
0.354096
0.341271
0.326395
0.31022
0.293326
0.276154
0.259041
0.242234
0.225919
0.210234
0.195278
0.181128
0.167842
0.155458
0.144
0.13347
0.123839
0.115043
0.106978
0.0995035
0.0924431
0.0856212
0.0788384
0.0719797
0.0648313
0.0574732
0.0495212
0.0415798
0.0325033
0.024356
0.0138648
0.00578453
-14.5518
-14.579
-14.607
-14.6442
-14.7006
-14.7835
-14.899
-15.0512
-15.2413
-15.4671
-15.7236
-16.0037
-16.2996
-16.6026
-16.9045
-17.1978
-17.4763
-17.735
-17.9705
-18.1794
-18.3601
-18.5116
-18.6329
-18.7232
-18.7816
-18.8068
-18.7974
-18.7509
-18.6645
-18.5345
-18.3565
-18.1253
-17.8353
-17.4807
-17.0555
-16.5543
-15.9727
-15.3077
-14.5589
-13.729
-12.824
-11.854
-10.8329
-9.77843
-8.71102
-7.6529
-6.62629
-5.65154
-4.74557
-3.92062
-3.18384
-2.53746
-1.97966
-1.50555
-1.10825
-0.779828
-0.511971
-0.296504
-0.125719
0.00743972
0.109281
0.185344
0.240415
0.278578
0.303278
0.317384
0.323265
0.322857
0.317724
0.309121
0.298046
0.285282
0.271441
0.256996
0.24231
0.227658
0.21325
0.199245
0.185763
0.172898
0.160725
0.149302
0.138667
0.128841
0.119811
0.111534
0.103919
0.0968405
0.0901358
0.0836357
0.0771516
0.0705599
0.0636726
0.0565181
0.0488206
0.0409583
0.0322563
0.0238073
0.0143244
0.00451853
-14.5693
-14.6004
-14.6354
-14.68
-14.7416
-14.8268
-14.9407
-15.0865
-15.265
-15.4746
-15.7109
-15.9681
-16.2393
-16.5173
-16.7945
-17.0644
-17.3213
-17.5604
-17.7781
-17.9713
-18.1379
-18.2763
-18.3855
-18.4643
-18.5118
-18.5265
-18.5067
-18.4502
-18.354
-18.2148
-18.0282
-17.7897
-17.4941
-17.1362
-16.7107
-16.2129
-15.6392
-14.9874
-14.2574
-13.452
-12.5772
-11.6426
-10.6612
-9.64931
-8.62575
-7.61081
-6.62478
-5.68634
-4.81112
-4.01068
-3.29204
-2.6578
-2.10684
-1.63515
-1.23678
-0.904647
-0.631188
-0.408863
-0.230469
-0.0893441
0.0205258
0.104464
0.167108
0.212444
0.243856
0.264183
0.275787
0.28061
0.280236
0.275943
0.268757
0.259492
0.248791
0.237155
0.224976
0.212554
0.200124
0.187866
0.175919
0.164397
0.153391
0.142974
0.133204
0.124116
0.115718
0.107981
0.100832
0.0941609
0.0878181
0.0816422
0.0754568
0.0691305
0.0625021
0.0555493
0.0481045
0.0403222
0.0319901
0.0232539
0.0147432
0.00331343
-14.5859
-14.6206
-14.6611
-14.7114
-14.7774
-14.8641
-14.9757
-15.1147
-15.2818
-15.4757
-15.6929
-15.9285
-16.1766
-16.4309
-16.6848
-16.9324
-17.1683
-17.3882
-17.5883
-17.7655
-17.9177
-18.043
-18.1402
-18.2078
-18.2446
-18.249
-18.2192
-18.153
-18.0476
-17.8996
-17.7053
-17.4603
-17.1601
-16.7998
-16.3751
-15.8817
-15.3167
-14.6784
-13.9672
-13.1861
-12.3409
-11.4406
-10.4974
-9.52644
-8.54487
-7.57125
-6.62413
-5.72061
-4.87516
-4.09866
-3.39797
-2.77599
-2.23221
-1.7634
-1.36446
-1.02909
-0.750471
-0.521664
-0.335965
-0.187106
-0.0693742
0.0223308
0.0924885
0.144977
0.183112
0.209698
0.22708
0.237202
0.241662
0.241761
0.238548
0.232866
0.225386
0.216639
0.207043
0.196925
0.186542
0.176095
0.165745
0.155623
0.145835
0.136472
0.127608
0.119295
0.111557
0.104383
0.0977179
0.0914657
0.0854917
0.0796433
0.073757
0.0676949
0.0613232
0.0545702
0.0473755
0.0396745
0.0317054
0.0226992
0.0151197
0.00217464
-14.6012
-14.6389
-14.6833
-14.7376
-14.806
-14.8927
-15.0011
-15.1331
-15.2894
-15.4687
-15.6683
-15.884
-16.1107
-16.3428
-16.5748
-16.8012
-17.017
-17.2182
-17.401
-17.5626
-17.7004
-17.8126
-17.8976
-17.9539
-17.98
-17.9742
-17.9347
-17.8592
-17.7451
-17.5892
-17.3879
-17.1373
-16.8334
-16.4718
-16.0487
-15.5605
-15.0048
-14.3804
-13.6881
-12.9309
-12.1146
-11.2476
-10.3413
-9.40951
-8.46813
-7.53406
-6.62421
-5.75427
-4.93763
-4.18449
-3.50154
-2.89191
-2.35561
-1.89011
-1.49107
-1.15296
-0.86962
-0.634715
-0.442029
-0.285686
-0.160277
-0.0609323
0.0166619
0.0762676
0.121125
0.153993
0.177197
0.192677
0.20204
0.206604
0.207441
0.205421
0.201241
0.195459
0.18852
0.180776
0.172507
0.163936
0.155242
0.146574
0.138056
0.129794
0.121877
0.114375
0.107328
0.100741
0.0945769
0.0887559
0.0831585
0.0776414
0.0720552
0.0662565
0.0601395
0.0535845
0.0466364
0.0390182
0.0314036
0.0221462
0.0154532
0.0011053
-14.6148
-14.6548
-14.702
-14.7588
-14.8284
-14.9143
-15.0189
-15.1439
-15.2897
-15.4553
-15.6384
-15.8354
-16.042
-16.2534
-16.4646
-16.6707
-16.8673
-17.0503
-17.2162
-17.3623
-17.4858
-17.585
-17.6578
-17.7028
-17.7183
-17.7026
-17.6537
-17.5693
-17.447
-17.2838
-17.0763
-16.821
-16.5142
-16.1521
-15.7314
-15.2491
-14.7032
-14.0931
-13.4197
-12.6861
-11.8979
-11.0631
-10.1923
-9.2982
-8.39529
-7.49905
-6.62491
-5.78726
-4.99846
-4.26811
-3.60268
-3.00546
-2.4769
-2.01511
-1.61644
-1.27605
-0.988435
-0.747825
-0.548482
-0.384919
-0.252035
-0.145194
-0.0602571
0.00641465
0.0579779
0.0971399
0.126199
0.147086
0.161412
0.170509
0.175469
0.177183
0.176377
0.173632
0.16942
0.164117
0.158026
0.151391
0.144412
0.137252
0.130054
0.122939
0.116012
0.109356
0.103029
0.0970533
0.0914092
0.0860325
0.0808201
0.0756389
0.0703543
0.0648187
0.0589542
0.0525956
0.0458903
0.0383566
0.0310866
0.0215976
0.0157446
0.000106051
-14.6263
-14.6681
-14.7171
-14.7752
-14.845
-14.929
-15.0293
-15.1472
-15.283
-15.4357
-15.6033
-15.7829
-15.9708
-16.1627
-16.3542
-16.5411
-16.7191
-16.8845
-17.034
-17.1648
-17.2743
-17.3604
-17.4212
-17.455
-17.4601
-17.4346
-17.3765
-17.2837
-17.1537
-16.9837
-16.7707
-16.5115
-16.2026
-15.8409
-15.4234
-14.9476
-14.412
-13.8163
-13.1617
-12.4514
-11.6906
-10.887
-10.0503
-9.19225
-8.32615
-7.46609
-6.62616
-5.81954
-5.05765
-4.3495
-3.70132
-3.11653
-2.59595
-2.13824
-1.74038
-1.39817
-1.10672
-0.860801
-0.655141
-0.484636
-0.344493
-0.230316
-0.138146
-0.0644746
-0.00623583
0.0392191
0.0741546
0.100488
0.119828
0.133518
0.142665
0.148183
0.150819
0.15118
0.149761
0.146963
0.143112
0.138471
0.133261
0.127662
0.121833
0.11591
0.110011
0.104237
0.0986606
0.0933209
0.0882156
0.0832968
0.0784784
0.0736383
0.0686573
0.0633847
0.0577709
0.0516071
0.0451403
0.0376929
0.0307563
0.0210559
0.0159959
-0.000824937
-14.6357
-14.6785
-14.7285
-14.787
-14.856
-14.9375
-15.0332
-15.144
-15.27
-15.4104
-15.5636
-15.727
-15.8972
-16.0708
-16.2438
-16.4122
-16.5724
-16.7209
-16.8544
-16.9702
-17.0659
-17.1391
-17.188
-17.2108
-17.2055
-17.1705
-17.1036
-17.0027
-16.8655
-16.6894
-16.4716
-16.2091
-15.8989
-15.5382
-15.1245
-14.6558
-14.1309
-13.5498
-12.9139
-12.2264
-11.4923
-10.7188
-9.9149
-9.09144
-8.26053
-7.43506
-6.62788
-5.85107
-5.11517
-4.42862
-3.79742
-3.22505
-2.71265
-2.25936
-1.86272
-1.51913
-1.22428
-0.973451
-0.761819
-0.584661
-0.43749
-0.316153
-0.216874
-0.136284
-0.0714148
-0.0196813
0.0211406
0.052948
0.0773454
0.0956794
0.109073
0.118456
0.124597
0.128128
0.129565
0.129333
0.127778
0.125188
0.121798
0.11781
0.113396
0.108707
0.103877
0.0990199
0.0942237
0.0895444
0.0849969
0.0805502
0.0761354
0.0716419
0.0669671
0.061958
0.0565931
0.0506227
0.0443897
0.0370302
0.0304155
0.0205231
0.0162104
-0.00169199
-14.6427
-14.686
-14.7362
-14.7943
-14.8618
-14.9403
-15.031
-15.1346
-15.2512
-15.3801
-15.5196
-15.6677
-15.8215
-15.9778
-16.1332
-16.2842
-16.4274
-16.5595
-16.6775
-16.7787
-16.8607
-16.9214
-16.9585
-16.9704
-16.9551
-16.9107
-16.8353
-16.7268
-16.5829
-16.4012
-16.1791
-15.914
-15.6032
-15.2442
-14.835
-14.3738
-13.8599
-13.2934
-12.676
-12.0109
-11.3027
-10.5583
-9.78589
-8.99553
-8.19828
-7.40587
-6.63004
-5.88185
-5.17103
-4.50548
-3.89095
-3.33096
-2.8269
-2.37833
-1.9833
-1.63876
-1.34093
-1.08558
-0.868329
-0.684815
-0.530859
-0.402549
-0.296303
-0.208891
-0.137449
-0.0794643
-0.0327583
0.00454078
0.0340275
0.0570496
0.0747397
0.0880438
0.0977489
0.104507
0.108858
0.111248
0.112046
0.111557
0.110038
0.107707
0.104752
0.101338
0.0976143
0.0937069
0.0897202
0.0857254
0.081755
0.0777948
0.0737934
0.0696528
0.065287
0.0605422
0.0554246
0.0496462
0.0436421
0.036372
0.030067
0.0200011
0.0163928
-0.00250179
-14.6471
-14.6905
-14.7403
-14.7973
-14.8627
-14.9377
-15.0232
-15.1197
-15.2272
-15.345
-15.4717
-15.6054
-15.7437
-15.8838
-16.0226
-16.1571
-16.2839
-16.4003
-16.5033
-16.5904
-16.6591
-16.7073
-16.7329
-16.7341
-16.7089
-16.6555
-16.572
-16.4562
-16.3061
-16.1193
-15.8936
-15.6265
-15.3157
-14.959
-14.5547
-14.1015
-13.5987
-13.047
-12.4479
-11.8046
-11.1216
-10.4051
-9.66303
-8.90437
-8.13927
-7.37845
-6.63262
-5.91189
-5.22525
-4.58009
-3.98191
-3.43421
-2.93862
-2.49503
-2.10197
-1.75689
-1.45649
-1.19701
-0.974483
-0.784916
-0.624426
-0.489346
-0.376284
-0.282161
-0.204219
-0.140024
-0.0874488
-0.0446517
-0.0100533
0.0176915
0.0397214
0.0569949
0.0703157
0.0803551
0.0876735
0.0927375
0.0959369
0.0975979
0.0979956
0.0973649
0.0959098
0.0938104
0.0912275
0.0883023
0.0851531
0.0818665
0.0784924
0.0750331
0.0714554
0.0676742
0.0636206
0.0591411
0.0542692
0.0486816
0.0429013
0.0357218
0.0297145
0.0194912
0.0165487
-0.00326326
-14.6491
-14.692
-14.7408
-14.7962
-14.859
-14.9301
-15.0102
-15.0997
-15.1984
-15.3056
-15.4201
-15.5404
-15.6641
-15.789
-15.9121
-16.0308
-16.1422
-16.2434
-16.332
-16.4053
-16.4611
-16.4971
-16.5115
-16.5023
-16.4675
-16.4054
-16.314
-16.1913
-16.0354
-15.8441
-15.6153
-15.3468
-15.0365
-14.6827
-14.2838
-13.8388
-13.3474
-12.8103
-12.2293
-11.6073
-10.9486
-10.2592
-9.54611
-8.81777
-8.08339
-7.35274
-6.63559
-5.9412
-5.27787
-4.65248
-4.07029
-3.53478
-3.04773
-2.60936
-2.2186
-1.87335
-1.57077
-1.30754
-1.08009
-0.884778
-0.718014
-0.576376
-0.456665
-0.355953
-0.271597
-0.201246
-0.142828
-0.0945385
-0.0548166
-0.0223241
0.00408012
0.0253641
0.0423456
0.0557135
0.066047
0.0738327
0.0794804
0.0833357
0.0856921
0.0868018
0.0868844
0.0861343
0.0847255
0.0828126
0.0805274
0.077972
0.0752126
0.0722687
0.069125
0.0657099
0.0619719
0.057759
0.0531314
0.0477331
0.0421713
0.0350831
0.0293617
0.0189946
0.016685
-0.0039873
-14.6484
-14.6905
-14.7379
-14.7912
-14.8509
-14.9179
-14.9926
-15.075
-15.1652
-15.2623
-15.3654
-15.4729
-15.5829
-15.6934
-15.8017
-15.9055
-16.002
-16.0889
-16.1635
-16.2235
-16.2667
-16.2911
-16.2945
-16.2751
-16.231
-16.1605
-16.0616
-15.9325
-15.7713
-15.5759
-15.3445
-15.0751
-14.7659
-14.4153
-14.0221
-13.5857
-13.1058
-12.5833
-12.02
-11.4187
-10.7836
-10.1202
-9.43496
-8.7356
-8.03055
-7.32871
-6.63897
-5.96983
-5.32892
-4.72268
-4.15611
-3.63265
-3.15419
-2.72123
-2.33306
-1.98799
-1.6836
-1.41699
-1.18496
-0.984211
-0.81144
-0.663464
-0.537281
-0.430116
-0.339446
-0.263006
-0.198785
-0.145019
-0.100173
-0.062918
-0.032114
-0.00678664
0.0138936
0.0306308
0.0440216
0.0545714
0.0627088
0.0687984
0.0731519
0.0760383
0.0776928
0.0783241
0.0781196
0.0772464
0.0758502
0.0740473
0.0719207
0.0695062
0.0668067
0.0637646
0.0603457
0.0564006
0.0520158
0.0468054
0.0414567
0.0344596
0.0290132
0.0185122
0.0168097
-0.00468652
-14.6452
-14.686
-14.7316
-14.7825
-14.8389
-14.9015
-14.9706
-15.0461
-15.128
-15.2155
-15.3077
-15.4032
-15.5003
-15.5972
-15.6915
-15.7812
-15.8637
-15.9367
-15.998
-16.0452
-16.0763
-16.0892
-16.082
-16.0528
-15.9998
-15.9212
-15.8152
-15.68
-15.5138
-15.3149
-15.0813
-14.8115
-14.5038
-14.1569
-13.7698
-13.3421
-12.8738
-12.3657
-11.8198
-11.2387
-10.6264
-9.98795
-9.32939
-8.65774
-7.98069
-7.30633
-6.64278
-5.99781
-5.37847
-4.79076
-4.23941
-3.72781
-3.25795
-2.83056
-2.44523
-2.10066
-1.79481
-1.52517
-1.28891
-1.08303
-0.904516
-0.75043
-0.617962
-0.504492
-0.407619
-0.325169
-0.255197
-0.195985
-0.146024
-0.104002
-0.0687825
-0.0393875
-0.0149785
0.00516184
0.0216458
0.0349963
0.0456598
0.0540191
0.0604036
0.065099
0.068356
0.0703974
0.0714239
0.0716154
0.0711307
0.0701004
0.0686233
0.0667517
0.0645064
0.0618438
0.0587476
0.0550715
0.0509279
0.0459034
0.0407623
0.0338554
0.0286737
0.0180447
0.0169313