/*--------------------------------*- C++ -*----------------------------------*\
| =========                 |                                                 |
| \\      /  F ield         | OpenFOAM: The Open Source CFD Toolbox           |
|  \\    /   O peration     | Version:  2.1.1                                 |
|   \\  /    A nd           | Web:      www.OpenFOAM.org                      |
|    \\/     M anipulation  |                                                 |
\*---------------------------------------------------------------------------*/
FoamFile
{
    version     2.0;
    format      ascii;
    class       surfaceScalarField;
    location    "0.07";
    object      phi;
}
// * * * * * * * * * * * * * * * * * * * * * * * * * * * * * * * * * * * * * //

dimensions      [0 3 -1 0 0 0 0];

internalField   nonuniform List<scalar> 
13452
(
6.89921e-05
-5.04875e-07
6.88128e-05
1.79297e-07
6.82005e-05
6.1238e-07
6.72516e-05
9.48816e-07
6.61732e-05
1.07843e-06
6.50793e-05
1.09388e-06
6.40117e-05
1.06763e-06
6.29876e-05
1.02409e-06
6.20154e-05
9.72252e-07
6.10984e-05
9.1701e-07
6.02376e-05
8.60792e-07
5.94325e-05
8.05061e-07
5.86817e-05
7.50778e-07
5.79831e-05
6.98622e-07
5.7334e-05
6.49059e-07
5.67316e-05
6.02393e-07
5.61728e-05
5.58806e-07
5.56545e-05
5.18386e-07
5.51733e-05
4.81154e-07
5.47262e-05
4.4709e-07
5.43101e-05
4.16152e-07
5.39218e-05
3.88299e-07
5.35583e-05
3.63511e-07
5.32164e-05
3.41816e-07
5.28931e-05
3.23328e-07
5.25848e-05
3.08309e-07
5.22875e-05
2.97267e-07
5.19962e-05
2.91338e-07
5.1704e-05
2.922e-07
5.13982e-05
3.05842e-07
5.10595e-05
3.38622e-07
5.06348e-05
4.24687e-07
6.35239e-07
4.99996e-05
7.01649e-05
-2.25845e-07
7.0041e-05
3.03236e-07
7.01814e-05
4.71921e-07
7.05085e-05
6.21794e-07
7.08585e-05
7.28359e-07
7.11568e-05
7.95585e-07
7.13807e-05
8.43754e-07
7.15318e-05
8.73013e-07
7.1618e-05
8.86068e-07
7.16481e-05
8.86909e-07
7.16304e-05
8.78497e-07
7.15722e-05
8.63175e-07
7.14803e-05
8.42767e-07
7.13601e-05
8.1876e-07
7.12168e-05
7.92354e-07
7.10547e-05
7.64517e-07
7.08775e-05
7.36035e-07
7.06883e-05
7.07536e-07
7.04899e-05
6.79528e-07
7.02846e-05
6.52422e-07
7.00742e-05
6.26561e-07
6.98603e-05
6.02245e-07
6.9644e-05
5.79758e-07
6.94264e-05
5.59397e-07
6.92082e-05
5.41526e-07
6.89899e-05
5.26604e-07
6.87718e-05
5.15366e-07
6.85544e-05
5.08749e-07
6.83378e-05
5.08841e-07
6.81265e-05
5.17147e-07
6.79237e-05
5.41386e-07
6.7777e-05
5.71441e-07
6.40069e-07
6.77721e-05
7.22815e-05
-5.0824e-08
7.23964e-05
1.88361e-07
7.25008e-05
3.67516e-07
7.25866e-05
5.35941e-07
7.26692e-05
6.45855e-07
7.27502e-05
7.14494e-07
7.28353e-05
7.58715e-07
7.29207e-05
7.87593e-07
7.30025e-05
8.04313e-07
7.30779e-05
8.1144e-07
7.31455e-05
8.10946e-07
7.32042e-05
8.04421e-07
7.32538e-05
7.93169e-07
7.32943e-05
7.78334e-07
7.33257e-05
7.6089e-07
7.33486e-05
7.41663e-07
7.33633e-05
7.2135e-07
7.33703e-05
7.00537e-07
7.33701e-05
6.79721e-07
7.33632e-05
6.59326e-07
7.335e-05
6.39726e-07
7.3331e-05
6.21265e-07
7.33064e-05
6.04285e-07
7.32767e-05
5.8915e-07
7.32419e-05
5.76292e-07
7.32023e-05
5.66235e-07
7.31579e-05
5.59747e-07
7.3109e-05
5.57706e-07
7.30559e-05
5.61898e-07
7.30001e-05
5.72969e-07
7.29448e-05
5.96667e-07
7.28935e-05
6.22746e-07
6.81782e-07
7.28518e-05
7.45184e-05
-4.25658e-08
7.44877e-05
2.19068e-07
7.44757e-05
3.79472e-07
7.45146e-05
4.97083e-07
7.45739e-05
5.86521e-07
7.46391e-05
6.4932e-07
7.47035e-05
6.94244e-07
7.47658e-05
7.25375e-07
7.48254e-05
7.44685e-07
7.48823e-05
7.5456e-07
7.49362e-05
7.57046e-07
7.49869e-05
7.53726e-07
7.50342e-05
7.45874e-07
7.50779e-05
7.34579e-07
7.5118e-05
7.2076e-07
7.51545e-05
7.05187e-07
7.51874e-05
6.88514e-07
7.52166e-05
6.71297e-07
7.52423e-05
6.54013e-07
7.52645e-05
6.3708e-07
7.52834e-05
6.20873e-07
7.52989e-05
6.05748e-07
7.53111e-05
5.92062e-07
7.53201e-05
5.80195e-07
7.53258e-05
5.70593e-07
7.53283e-05
5.63775e-07
7.53276e-05
5.6045e-07
7.53239e-05
5.61367e-07
7.5318e-05
5.6783e-07
7.53107e-05
5.80213e-07
7.53062e-05
6.0122e-07
7.53039e-05
6.25037e-07
6.5981e-07
7.53258e-05
7.66035e-05
9.81852e-09
7.66278e-05
1.94743e-07
7.66636e-05
3.43665e-07
7.6701e-05
4.59727e-07
7.67383e-05
5.49146e-07
7.67766e-05
6.11003e-07
7.68171e-05
6.53769e-07
7.68593e-05
6.83172e-07
7.69022e-05
7.01833e-07
7.69448e-05
7.11924e-07
7.69866e-05
7.15237e-07
7.70272e-05
7.13171e-07
7.70662e-05
7.0688e-07
7.71034e-05
6.97361e-07
7.71387e-05
6.85465e-07
7.7172e-05
6.71915e-07
7.72031e-05
6.5733e-07
7.72322e-05
6.42242e-07
7.72591e-05
6.27113e-07
7.72838e-05
6.12354e-07
7.73064e-05
5.98337e-07
7.73267e-05
5.85421e-07
7.73448e-05
5.73966e-07
7.73606e-05
5.64352e-07
7.73742e-05
5.57013e-07
7.73855e-05
5.52436e-07
7.73948e-05
5.51235e-07
7.74021e-05
5.54019e-07
7.74082e-05
5.61689e-07
7.7414e-05
5.74415e-07
7.74218e-05
5.93467e-07
7.74316e-05
6.15269e-07
6.43002e-07
7.74484e-05
7.8831e-05
2.46992e-08
7.88383e-05
1.87434e-07
7.88559e-05
3.26088e-07
7.8884e-05
4.31655e-07
7.89193e-05
5.13837e-07
7.89572e-05
5.73085e-07
7.89959e-05
6.15137e-07
7.90345e-05
6.44532e-07
7.90727e-05
6.63588e-07
7.91104e-05
6.74307e-07
7.91472e-05
6.7844e-07
7.91829e-05
6.77374e-07
7.92176e-05
6.72243e-07
7.92509e-05
6.64015e-07
7.92829e-05
6.5351e-07
7.93134e-05
6.41428e-07
7.93423e-05
6.28367e-07
7.93697e-05
6.14844e-07
7.93955e-05
6.01313e-07
7.94197e-05
5.88176e-07
7.94422e-05
5.75805e-07
7.94631e-05
5.64556e-07
7.94823e-05
5.54785e-07
7.94998e-05
5.46861e-07
7.95156e-05
5.41191e-07
7.95298e-05
5.38216e-07
7.95426e-05
5.38447e-07
7.95543e-05
5.42364e-07
7.95654e-05
5.50557e-07
7.95767e-05
5.63108e-07
7.95897e-05
5.8049e-07
7.96043e-05
6.00697e-07
6.24536e-07
7.96227e-05
8.10846e-05
3.86266e-08
8.10943e-05
1.77773e-07
8.11172e-05
3.03179e-07
8.11471e-05
4.01754e-07
8.11808e-05
4.80173e-07
8.12155e-05
5.38323e-07
8.12506e-05
5.8001e-07
8.12859e-05
6.09264e-07
8.1321e-05
6.28499e-07
8.13556e-05
6.39677e-07
8.13896e-05
6.44484e-07
8.14227e-05
6.44265e-07
8.14548e-05
6.40119e-07
8.14859e-05
6.32979e-07
8.15157e-05
6.2364e-07
8.15444e-05
6.1278e-07
8.15718e-05
6.00981e-07
8.15979e-05
5.88751e-07
8.16226e-05
5.76531e-07
8.16461e-05
5.64722e-07
8.16682e-05
5.53688e-07
8.1689e-05
5.4378e-07
8.17084e-05
5.35343e-07
8.17266e-05
5.28729e-07
8.17434e-05
5.24309e-07
8.17592e-05
5.22471e-07
8.1774e-05
5.23631e-07
8.17882e-05
5.28155e-07
8.18023e-05
5.36426e-07
8.1817e-05
5.48475e-07
8.1833e-05
5.64432e-07
8.18505e-05
5.83191e-07
6.04821e-07
8.18702e-05
8.341e-05
4.42054e-08
8.34196e-05
1.68163e-07
8.34399e-05
2.82893e-07
8.34666e-05
3.74978e-07
8.3498e-05
4.48786e-07
8.35316e-05
5.0476e-07
8.3566e-05
5.45625e-07
8.36005e-05
5.7472e-07
8.36348e-05
5.94254e-07
8.36684e-05
6.06017e-07
8.37013e-05
6.11584e-07
8.37333e-05
6.12248e-07
8.37644e-05
6.09076e-07
8.37944e-05
6.02979e-07
8.38233e-05
5.94732e-07
8.38511e-05
5.84996e-07
8.38777e-05
5.74342e-07
8.39032e-05
5.63267e-07
8.39275e-05
5.52206e-07
8.39507e-05
5.4155e-07
8.39727e-05
5.3166e-07
8.39936e-05
5.22875e-07
8.40134e-05
5.15525e-07
8.40322e-05
5.09938e-07
8.40501e-05
5.06448e-07
8.40672e-05
5.05387e-07
8.40837e-05
5.07088e-07
8.41e-05
5.11829e-07
8.41166e-05
5.19852e-07
8.41339e-05
5.31167e-07
8.41526e-05
5.45766e-07
8.41727e-05
5.6305e-07
5.82893e-07
8.41947e-05
8.57962e-05
4.67135e-08
8.58057e-05
1.58636e-07
8.58254e-05
2.63205e-07
8.58514e-05
3.48973e-07
8.58818e-05
4.18437e-07
8.59143e-05
4.72199e-07
8.59478e-05
5.12146e-07
8.59816e-05
5.40964e-07
8.60152e-05
5.60668e-07
8.60483e-05
5.72913e-07
8.60807e-05
5.79167e-07
8.61123e-05
5.80661e-07
8.61429e-05
5.7842e-07
8.61726e-05
5.73321e-07
8.62012e-05
5.66113e-07
8.62288e-05
5.5744e-07
8.62553e-05
5.47857e-07
8.62807e-05
5.37848e-07
8.6305e-05
5.27841e-07
8.63284e-05
5.18218e-07
8.63507e-05
5.09327e-07
8.63721e-05
5.01496e-07
8.63926e-05
4.95034e-07
8.64123e-05
4.90245e-07
8.64313e-05
4.87421e-07
8.64498e-05
4.86845e-07
8.64681e-05
4.88778e-07
8.64865e-05
4.93427e-07
8.65055e-05
5.00946e-07
8.65253e-05
5.11333e-07
8.65465e-05
5.24533e-07
8.65693e-05
5.40222e-07
5.58243e-07
8.6594e-05
8.825e-05
4.675e-08
8.82597e-05
1.48922e-07
8.82784e-05
2.44468e-07
8.83031e-05
3.24308e-07
8.8332e-05
3.89533e-07
8.83634e-05
4.40789e-07
8.83961e-05
4.79477e-07
8.84293e-05
5.07763e-07
8.84625e-05
5.27449e-07
8.84954e-05
5.40042e-07
8.85276e-05
5.46886e-07
8.85592e-05
5.49133e-07
8.85898e-05
5.47758e-07
8.86195e-05
5.43597e-07
8.86483e-05
5.37368e-07
8.8676e-05
5.29695e-07
8.87028e-05
5.21113e-07
8.87285e-05
5.12094e-07
8.87533e-05
5.0305e-07
8.87772e-05
4.94352e-07
8.88002e-05
4.86336e-07
8.88224e-05
4.79311e-07
8.88438e-05
4.73566e-07
8.88647e-05
4.69373e-07
8.88851e-05
4.6699e-07
8.89053e-05
4.66649e-07
8.89256e-05
4.68556e-07
8.89461e-05
4.7286e-07
8.89674e-05
4.79657e-07
8.89898e-05
4.88936e-07
8.90137e-05
5.00629e-07
8.90394e-05
5.14545e-07
5.30535e-07
8.90671e-05
9.07727e-05
4.54055e-08
9.07823e-05
1.3923e-07
9.08002e-05
2.2662e-07
9.08238e-05
3.00732e-07
9.08515e-05
3.61788e-07
9.08819e-05
4.10387e-07
9.09138e-05
4.47599e-07
9.09464e-05
4.75158e-07
9.09792e-05
4.94644e-07
9.10118e-05
5.07418e-07
9.1044e-05
5.14708e-07
9.10756e-05
5.17586e-07
9.11063e-05
5.16968e-07
9.11363e-05
5.13649e-07
9.11653e-05
5.08312e-07
9.11935e-05
5.01553e-07
9.12207e-05
4.93888e-07
9.1247e-05
4.85767e-07
9.12725e-05
4.77588e-07
9.12971e-05
4.69707e-07
9.1321e-05
4.6244e-07
9.13443e-05
4.56077e-07
9.1367e-05
4.50885e-07
9.13892e-05
4.47105e-07
9.14113e-05
4.44957e-07
9.14333e-05
4.44633e-07
9.14555e-05
4.46289e-07
9.14784e-05
4.50032e-07
9.15021e-05
4.55915e-07
9.15271e-05
4.63916e-07
9.15538e-05
4.73962e-07
9.15824e-05
4.85922e-07
4.99645e-07
9.16133e-05
9.33668e-05
4.32248e-08
9.33765e-05
1.29583e-07
9.33935e-05
2.09576e-07
9.34161e-05
2.782e-07
9.34427e-05
3.35183e-07
9.3472e-05
3.81018e-07
9.35031e-05
4.16554e-07
9.35351e-05
4.4318e-07
9.35674e-05
4.62272e-07
9.35998e-05
4.75051e-07
9.36319e-05
4.82632e-07
9.36635e-05
4.86003e-07
9.36944e-05
4.8602e-07
9.37246e-05
4.83429e-07
9.37541e-05
4.78877e-07
9.37827e-05
4.7293e-07
9.38105e-05
4.66078e-07
9.38375e-05
4.58751e-07
9.38638e-05
4.51327e-07
9.38893e-05
4.44142e-07
9.39143e-05
4.37493e-07
9.39387e-05
4.31649e-07
9.39627e-05
4.26848e-07
9.39865e-05
4.23304e-07
9.40103e-05
4.21203e-07
9.40342e-05
4.20698e-07
9.40586e-05
4.21906e-07
9.40837e-05
4.24896e-07
9.411e-05
4.29693e-07
9.41376e-05
4.36259e-07
9.41671e-05
4.44516e-07
9.41986e-05
4.54351e-07
4.65607e-07
9.42327e-05
9.60347e-05
4.05889e-08
9.60442e-05
1.20063e-07
9.60605e-05
1.93279e-07
9.60821e-05
2.5663e-07
9.61077e-05
3.09618e-07
9.61361e-05
3.52617e-07
9.61663e-05
3.86314e-07
9.61977e-05
4.11834e-07
9.62296e-05
4.30358e-07
9.62616e-05
4.42976e-07
9.62936e-05
4.50693e-07
9.63252e-05
4.54414e-07
9.63563e-05
4.54932e-07
9.63867e-05
4.52945e-07
9.64166e-05
4.4906e-07
9.64457e-05
4.43809e-07
9.64741e-05
4.37656e-07
9.65019e-05
4.31007e-07
9.6529e-05
4.24218e-07
9.65555e-05
4.17601e-07
9.65816e-05
4.11435e-07
9.66072e-05
4.05961e-07
9.66327e-05
4.01395e-07
9.66581e-05
3.97919e-07
9.66836e-05
3.95688e-07
9.67095e-05
3.94823e-07
9.6736e-05
3.95405e-07
9.67634e-05
3.97476e-07
9.67921e-05
4.01033e-07
9.68223e-05
4.06027e-07
9.68544e-05
4.1237e-07
9.68888e-05
4.19946e-07
4.28594e-07
9.69259e-05
9.87786e-05
3.77248e-08
9.87879e-05
1.10721e-07
9.88036e-05
1.77659e-07
9.88242e-05
2.35945e-07
9.88488e-05
2.85016e-07
9.88763e-05
3.25134e-07
9.89058e-05
3.56865e-07
9.89365e-05
3.8112e-07
9.89679e-05
3.98914e-07
9.89997e-05
4.11211e-07
9.90315e-05
4.18912e-07
9.9063e-05
4.2284e-07
9.90943e-05
4.23725e-07
9.9125e-05
4.22214e-07
9.91552e-05
4.18872e-07
9.91848e-05
4.14198e-07
9.92138e-05
4.08625e-07
9.92423e-05
4.02533e-07
9.92703e-05
3.96253e-07
9.92978e-05
3.90076e-07
9.9325e-05
3.84255e-07
9.93519e-05
3.79008e-07
9.93788e-05
3.74524e-07
9.94057e-05
3.70959e-07
9.9433e-05
3.68439e-07
9.94608e-05
3.67052e-07
9.94893e-05
3.66856e-07
9.95189e-05
3.67864e-07
9.95499e-05
3.70054e-07
9.95826e-05
3.73363e-07
9.96172e-05
3.77694e-07
9.96543e-05
3.82924e-07
3.88884e-07
9.9694e-05
0.000101601
3.47717e-08
0.00010161
1.01595e-07
0.000101625
1.62658e-07
0.000101645
2.16072e-07
0.000101668
2.61298e-07
0.000101695
2.98507e-07
0.000101724
3.28165e-07
0.000101754
3.51021e-07
0.000101785
3.67937e-07
0.000101816
3.79763e-07
0.000101848
3.87302e-07
0.000101879
3.91298e-07
0.000101911
3.92417e-07
0.000101942
3.91254e-07
0.000101972
3.88333e-07
0.000102002
3.84114e-07
0.000102032
3.79e-07
0.000102061
3.73343e-07
0.00010209
3.67449e-07
0.000102118
3.61584e-07
0.000102147
3.55976e-07
0.000102175
3.5082e-07
0.000102203
3.46278e-07
0.000102232
3.42481e-07
0.000102261
3.39527e-07
0.00010229
3.37483e-07
0.000102321
3.36378e-07
0.000102352
3.36208e-07
0.000102385
3.36932e-07
0.00010242
3.38478e-07
0.000102457
3.40736e-07
0.000102497
3.43579e-07
3.46837e-07
0.000102539
0.000104503
3.18104e-08
0.000104512
9.27096e-08
0.000104527
1.48219e-07
0.000104546
1.96939e-07
0.000104569
2.38388e-07
0.000104595
2.72672e-07
0.000104623
3.00172e-07
0.000104652
3.21508e-07
0.000104683
3.37413e-07
0.000104714
3.48628e-07
0.000104745
3.55867e-07
0.000104777
3.59796e-07
0.000104808
3.61019e-07
0.000104839
3.60079e-07
0.00010487
3.57457e-07
0.000104901
3.53574e-07
0.000104931
3.48801e-07
0.000104961
3.43462e-07
0.00010499
3.37834e-07
0.00010502
3.32159e-07
0.000105049
3.26641e-07
0.000105078
3.21449e-07
0.000105108
3.16723e-07
0.000105138
3.12569e-07
0.000105168
3.09062e-07
0.0001052
3.06246e-07
0.000105232
3.04132e-07
0.000105265
3.02698e-07
0.0001053
3.01892e-07
0.000105337
3.01629e-07
0.000105376
3.01797e-07
0.000105418
3.02263e-07
3.02862e-07
0.000105462
0.000107489
2.88861e-08
0.000107498
8.40736e-08
0.000107511
1.34293e-07
0.00010753
1.78476e-07
0.000107552
2.16214e-07
0.000107577
2.47563e-07
0.000107605
2.72837e-07
0.000107634
2.92549e-07
0.000107664
3.0732e-07
0.000107694
3.17795e-07
0.000107726
3.24603e-07
0.000107757
3.28336e-07
0.000107789
3.29539e-07
0.00010782
3.28701e-07
0.000107851
3.26259e-07
0.000107882
3.22597e-07
0.000107913
3.18052e-07
0.000107943
3.12917e-07
0.000107974
3.07444e-07
0.000108004
3.01847e-07
0.000108035
2.96306e-07
0.000108065
2.90968e-07
0.000108096
2.85949e-07
0.000108127
2.81333e-07
0.000108159
2.77176e-07
0.000108192
2.73503e-07
0.000108225
2.70309e-07
0.000108261
2.67558e-07
0.000108297
2.65189e-07
0.000108336
2.63112e-07
0.000108376
2.61214e-07
0.000108419
2.59358e-07
2.57395e-07
0.000108465
0.00011056
2.60221e-08
0.000110568
7.56871e-08
0.000110582
1.20833e-07
0.000110599
1.60621e-07
0.000110621
1.94707e-07
0.000110645
2.23117e-07
0.000110672
2.46107e-07
0.000110701
2.64102e-07
0.00011073
2.7763e-07
0.000110761
2.87245e-07
0.000110792
2.935e-07
0.000110823
2.96916e-07
0.000110855
2.9798e-07
0.000110886
2.97128e-07
0.000110918
2.94754e-07
0.000110949
2.91204e-07
0.000110981
2.8678e-07
0.000111012
2.81745e-07
0.000111043
2.76324e-07
0.000111074
2.70704e-07
0.000111105
2.65042e-07
0.000111137
2.59463e-07
0.000111169
2.54062e-07
0.000111201
2.48904e-07
0.000111234
2.44026e-07
0.000111268
2.39438e-07
0.000111304
2.35122e-07
0.00011134
2.31035e-07
0.000111378
2.27107e-07
0.000111418
2.23249e-07
0.00011146
2.19347e-07
0.000111504
2.15271e-07
2.10884e-07
0.00011155
0.000113718
2.32284e-08
0.000113726
6.75421e-08
0.000113739
1.07797e-07
0.000113757
1.43311e-07
0.000113778
1.738e-07
0.000113802
1.9927e-07
0.000113828
2.19927e-07
0.000113856
2.36126e-07
0.000113885
2.4831e-07
0.000113915
2.56957e-07
0.000113946
2.62544e-07
0.000113978
2.65531e-07
0.000114009
2.66343e-07
0.000114041
2.6537e-07
0.000114073
2.6296e-07
0.000114105
2.5942e-07
0.000114136
2.55019e-07
0.000114168
2.4999e-07
0.0001142
2.44528e-07
0.000114232
2.38799e-07
0.000114264
2.32935e-07
0.000114296
2.27039e-07
0.000114329
2.21187e-07
0.000114363
2.15428e-07
0.000114397
2.09784e-07
0.000114432
2.04253e-07
0.000114468
1.98806e-07
0.000114506
1.93396e-07
0.000114545
1.8795e-07
0.000114586
1.82379e-07
0.000114629
1.76574e-07
0.000114674
1.70414e-07
1.6378e-07
0.000114721
0.000116967
2.05072e-08
0.000116975
5.96252e-08
0.000116988
9.51414e-08
0.000117004
1.26489e-07
0.000117025
1.5343e-07
0.000117048
1.75958e-07
0.000117074
1.9424e-07
0.000117101
2.08572e-07
0.00011713
2.19324e-07
0.00011716
2.26903e-07
0.000117191
2.31719e-07
0.000117223
2.34171e-07
0.000117254
2.3463e-07
0.000117286
2.33436e-07
0.000117318
2.30894e-07
0.00011735
2.27273e-07
0.000117383
2.22808e-07
0.000117415
2.17701e-07
0.000117447
2.12123e-07
0.00011748
2.06212e-07
0.000117513
2.00081e-07
0.000117546
1.93812e-07
0.00011758
1.87465e-07
0.000117614
1.81072e-07
0.000117649
1.74645e-07
0.000117685
1.6817e-07
0.000117723
1.61615e-07
0.000117761
1.54926e-07
0.000117801
1.48033e-07
0.000117842
1.4085e-07
0.000117886
1.33278e-07
0.000117931
1.25204e-07
1.16532e-07
0.000117978
0.000120309
1.78561e-08
0.000120316
5.19194e-08
0.000120329
8.28276e-08
0.000120345
1.10098e-07
0.000120365
1.33533e-07
0.000120388
1.53119e-07
0.000120413
1.6899e-07
0.00012044
1.8139e-07
0.000120469
1.9063e-07
0.000120499
1.97052e-07
0.00012053
2.01005e-07
0.000120561
2.02828e-07
0.000120593
2.02841e-07
0.000120625
2.01336e-07
0.000120657
1.98576e-07
0.00012069
1.94794e-07
0.000120722
1.9019e-07
0.000120755
1.84938e-07
0.000120788
1.79181e-07
0.000120821
1.73035e-07
0.000120855
1.66591e-07
0.000120888
1.59915e-07
0.000120923
1.5305e-07
0.000120958
1.46017e-07
0.000120994
1.38815e-07
0.00012103
1.31426e-07
0.000121068
1.23812e-07
0.000121107
1.15921e-07
0.000121148
1.07684e-07
0.000121189
9.90221e-08
0.000121233
8.98456e-08
0.000121278
8.00556e-08
6.95759e-08
0.000121325
0.000123746
1.52706e-08
0.000123753
4.44061e-08
0.000123765
7.08176e-08
0.000123781
9.40883e-08
0.000123801
1.14051e-07
0.000123823
1.3069e-07
0.000123848
1.44116e-07
0.000123875
1.5453e-07
0.000123903
1.62186e-07
0.000123933
1.67371e-07
0.000123964
1.70375e-07
0.000123995
1.71485e-07
0.000124027
1.70971e-07
0.000124059
1.69078e-07
0.000124092
1.66029e-07
0.000124124
1.62018e-07
0.000124157
1.57215e-07
0.000124191
1.51765e-07
0.000124224
1.45784e-07
0.000124258
1.39368e-07
0.000124292
1.32587e-07
0.000124326
1.25492e-07
0.000124361
1.18111e-07
0.000124397
1.10454e-07
0.000124433
1.02514e-07
0.00012447
9.42667e-08
0.000124508
8.56738e-08
0.000124547
7.66836e-08
0.000124588
6.72334e-08
0.00012463
5.72519e-08
0.000124673
4.66603e-08
0.000124718
3.53736e-08
2.3337e-08
0.000124764
0.000127281
1.27446e-08
0.000127288
3.70647e-08
0.0001273
5.90731e-08
0.000127316
7.84049e-08
0.000127335
9.49201e-08
0.000127357
1.08606e-07
0.000127382
1.19555e-07
0.000127408
1.27932e-07
0.000127436
1.33943e-07
0.000127466
1.3782e-07
0.000127497
1.39804e-07
0.000127528
1.4013e-07
0.00012756
1.39019e-07
0.000127592
1.36674e-07
0.000127625
1.33277e-07
0.000127658
1.28986e-07
0.000127691
1.23939e-07
0.000127725
1.18254e-07
0.000127759
1.12024e-07
0.000127793
1.05321e-07
0.000127827
9.82004e-08
0.000127862
9.06953e-08
0.000127897
8.28235e-08
0.000127933
7.45861e-08
0.00012797
6.59697e-08
0.000128007
5.69475e-08
0.000128045
4.7481e-08
0.000128084
3.7522e-08
0.000128124
2.7014e-08
0.000128166
1.58948e-08
0.000128208
4.09803e-09
0.000128252
-8.44722e-09
-2.17761e-08
0.000128297
0.000130917
1.02735e-08
0.000130925
2.98797e-08
0.000130936
4.75653e-08
0.000130951
6.30068e-08
0.00013097
7.60899e-08
0.000130992
8.6808e-08
0.000131016
9.52445e-08
0.000131043
1.01536e-07
0.000131071
1.05844e-07
0.0001311
1.08352e-07
0.000131131
1.09253e-07
0.000131162
1.08735e-07
0.000131194
1.06973e-07
0.000131227
1.04126e-07
0.00013126
1.00339e-07
0.000131293
9.57309e-08
0.000131327
9.04132e-08
0.00013136
8.44769e-08
0.000131394
7.7991e-08
0.000131429
7.1008e-08
0.000131463
6.35655e-08
0.000131498
5.56846e-08
0.000131534
4.73718e-08
0.00013157
3.86215e-08
0.000131606
2.94154e-08
0.000131644
1.97257e-08
0.000131682
9.51558e-09
0.00013172
-1.25925e-09
0.00013176
-1.26475e-08
0.000131801
-2.47024e-08
0.000131842
-3.74778e-08
0.000131885
-5.10308e-08
-6.53786e-08
0.000131928
0.000134658
7.84622e-09
0.000134665
2.28235e-08
0.000134676
3.62468e-08
0.000134691
4.78284e-08
0.00013471
5.74824e-08
0.000134731
6.52132e-08
0.000134755
7.11092e-08
0.000134782
7.52812e-08
0.00013481
7.784e-08
0.000134839
7.89285e-08
0.00013487
7.86973e-08
0.000134901
7.72876e-08
0.000134933
7.48311e-08
0.000134966
7.1447e-08
0.000134999
6.72462e-08
0.000135032
6.23004e-08
0.000135066
5.6702e-08
0.0001351
5.05156e-08
0.000135134
4.37864e-08
0.000135169
3.65482e-08
0.000135204
2.88253e-08
0.000135239
2.06237e-08
0.000135274
1.19422e-08
0.00013531
2.76986e-09
0.000135346
-6.91652e-09
0.000135383
-1.71434e-08
0.000135421
-2.79456e-08
0.000135459
-3.93621e-08
0.000135497
-5.14349e-08
0.000135537
-6.42067e-08
0.000135577
-7.77201e-08
0.000135618
-9.20184e-08
-1.07103e-07
0.00013566
0.000138505
5.47958e-09
0.000138512
1.59196e-08
0.000138523
2.51385e-08
0.000138538
3.28746e-08
0.000138556
3.9078e-08
0.000138577
4.37688e-08
0.000138601
4.7065e-08
0.000138628
4.90614e-08
0.000138656
4.98212e-08
0.000138685
4.9449e-08
0.000138716
4.80505e-08
0.000138747
4.5721e-08
0.00013878
4.25494e-08
0.000138813
3.86162e-08
0.000138846
3.39994e-08
0.000138879
2.8706e-08
0.000138913
2.28448e-08
0.000138947
1.64357e-08
0.000138982
9.50121e-09
0.000139016
2.05408e-09
0.000139051
-5.88319e-09
0.000139086
-1.43255e-08
0.000139121
-2.32798e-08
0.000139156
-3.2762e-08
0.000139192
-4.27957e-08
0.000139229
-5.34082e-08
0.000139265
-6.46309e-08
0.000139302
-7.64977e-08
0.00013934
-8.9043e-08
0.000139378
-1.023e-07
0.000139417
-1.16302e-07
0.000139456
-1.31079e-07
-1.46619e-07
0.000139495
0.000142462
3.09839e-09
0.000142468
9.05617e-09
0.00014248
1.41005e-08
0.000142494
1.79991e-08
0.000142513
2.07409e-08
0.000142534
2.23734e-08
0.000142558
2.30878e-08
0.000142584
2.28966e-08
0.000142612
2.18081e-08
0.000142642
1.99291e-08
0.000142673
1.73255e-08
0.000142704
1.40477e-08
0.000142737
1.01388e-08
0.00014277
5.64474e-09
0.000142803
6.82191e-10
0.000142837
-4.99078e-09
0.000142871
-1.10886e-08
0.000142905
-1.7685e-08
0.000142939
-2.47716e-08
0.000142973
-3.23501e-08
0.000143008
-4.0425e-08
0.000143043
-4.90101e-08
0.000143077
-5.81216e-08
0.000143112
-6.77799e-08
0.000143148
-7.80096e-08
0.000143183
-8.88378e-08
0.000143219
-1.00293e-07
0.000143255
-1.12403e-07
0.000143291
-1.25195e-07
0.000143327
-1.38695e-07
0.000143364
-1.52925e-07
0.000143401
-1.67906e-07
-1.83613e-07
0.000143438
0.000146531
9.49276e-10
0.000146538
2.55015e-09
0.000146549
3.43021e-09
0.000146563
3.39857e-09
0.000146581
2.53182e-09
0.000146603
8.05985e-10
0.000146627
-1.21058e-09
0.000146654
-3.58625e-09
0.000146682
-6.52392e-09
0.000146712
-9.89771e-09
0.000146743
-1.36936e-08
0.000146775
-1.78974e-08
0.000146808
-2.25043e-08
0.000146841
-2.7516e-08
0.000146874
-3.29299e-08
0.000146908
-3.87984e-08
0.000146942
-4.50727e-08
0.000146976
-5.17803e-08
0.00014701
-5.89377e-08
0.000147045
-6.65594e-08
0.000147079
-7.46625e-08
0.000147113
-8.3268e-08
0.000147147
-9.23989e-08
0.000147182
-1.0208e-07
0.000147216
-1.12336e-07
0.00014725
-1.23193e-07
0.000147285
-1.34677e-07
0.000147319
-1.46811e-07
0.000147354
-1.59617e-07
0.000147388
-1.73112e-07
0.000147422
-1.8731e-07
0.000147457
-2.02224e-07
-2.1782e-07
0.000147491
0.000150718
-1.67017e-09
0.000150725
-4.35358e-09
0.000150736
-7.5177e-09
0.000150751
-1.13505e-08
0.000150769
-1.57045e-08
0.00015079
-2.03893e-08
0.000150814
-2.51559e-08
0.000150841
-2.9976e-08
0.000150869
-3.48763e-08
0.000150899
-3.98287e-08
0.00015093
-4.48572e-08
0.000150962
-5.00047e-08
0.000150995
-5.5316e-08
0.000151028
-6.0836e-08
0.000151062
-6.66015e-08
0.000151096
-7.26691e-08
0.00015113
-7.90615e-08
0.000151164
-8.58094e-08
0.000151198
-9.29469e-08
0.000151232
-1.00505e-07
0.000151266
-1.08513e-07
0.000151299
-1.17001e-07
0.000151333
-1.25998e-07
0.000151366
-1.35532e-07
0.0001514
-1.45629e-07
0.000151433
-1.56315e-07
0.000151466
-1.67611e-07
0.000151499
-1.79539e-07
0.000151531
-1.92113e-07
0.000151563
-2.05345e-07
0.000151595
-2.19242e-07
0.000151627
-2.33808e-07
-2.49006e-07
0.000151658
0.000155023
-2.94794e-09
0.000155028
-9.86267e-09
0.000155038
-1.75508e-08
0.000155053
-2.58925e-08
0.000155072
-3.43475e-08
0.000155094
-4.256e-08
0.000155119
-5.02999e-08
0.000155146
-5.75134e-08
0.000155176
-6.42775e-08
0.000155207
-7.06757e-08
0.000155239
-7.68013e-08
0.000155271
-8.27557e-08
0.000155305
-8.86356e-08
0.000155338
-9.45295e-08
0.000155372
-1.00515e-07
0.000155406
-1.06669e-07
0.00015544
-1.13046e-07
0.000155474
-1.19701e-07
0.000155508
-1.26681e-07
0.000155541
-1.34033e-07
0.000155575
-1.41795e-07
0.000155608
-1.50004e-07
0.00015564
-1.58694e-07
0.000155673
-1.67896e-07
0.000155705
-1.77636e-07
0.000155736
-1.8794e-07
0.000155768
-1.98827e-07
0.000155798
-2.10314e-07
0.000155829
-2.22413e-07
0.000155859
-2.3513e-07
0.000155888
-2.48468e-07
0.000155916
-2.62425e-07
-2.76959e-07
0.000155944
0.000159455
-7.04777e-09
0.000159462
-1.72866e-08
0.000159473
-2.8296e-08
0.000159487
-4.00306e-08
0.000159505
-5.20188e-08
0.000159526
-6.36445e-08
0.00015955
-7.44585e-08
0.000159577
-8.43002e-08
0.000159606
-9.32096e-08
0.000159636
-1.01298e-07
0.000159668
-1.08709e-07
0.000159701
-1.156e-07
0.000159735
-1.22124e-07
0.000159768
-1.2842e-07
0.000159802
-1.34612e-07
0.000159837
-1.40807e-07
0.000159871
-1.47097e-07
0.000159905
-1.5356e-07
0.000159938
-1.60264e-07
0.000159971
-1.6727e-07
0.000160004
-1.74628e-07
0.000160037
-1.82385e-07
0.000160068
-1.9058e-07
0.0001601
-1.99247e-07
0.000160131
-2.08415e-07
0.000160161
-2.18108e-07
0.00016019
-2.28346e-07
0.000160219
-2.39143e-07
0.000160247
-2.50507e-07
0.000160275
-2.62442e-07
0.000160301
-2.74944e-07
0.000160327
-2.88008e-07
-3.01593e-07
0.000160351
0.000164003
-4.3555e-09
0.000164006
-1.94196e-08
0.000164014
-3.71314e-08
0.00016403
-5.54912e-08
0.000164051
-7.28892e-08
0.000164076
-8.85871e-08
0.000164104
-1.02401e-07
0.000164134
-1.14445e-07
0.000164165
-1.24947e-07
0.000164198
-1.34159e-07
0.000164232
-1.4233e-07
0.000164266
-1.49696e-07
0.0001643
-1.56471e-07
0.000164335
-1.62837e-07
0.000164369
-1.6895e-07
0.000164403
-1.74944e-07
0.000164437
-1.80932e-07
0.000164471
-1.87006e-07
0.000164504
-1.9325e-07
0.000164536
-1.9973e-07
0.000164568
-2.06507e-07
0.000164599
-2.1363e-07
0.00016463
-2.21142e-07
0.00016466
-2.2908e-07
0.000164689
-2.37473e-07
0.000164717
-2.46346e-07
0.000164744
-2.55715e-07
0.000164771
-2.65594e-07
0.000164796
-2.7599e-07
0.000164821
-2.86903e-07
0.000164844
-2.9833e-07
0.000164866
-3.10263e-07
-3.22659e-07
0.000164887
0.000168702
-1.4081e-08
0.00016871
-2.77623e-08
0.000168718
-4.53799e-08
0.000168728
-6.57763e-08
0.000168743
-8.74697e-08
0.000168762
-1.0803e-07
0.000168786
-1.26199e-07
0.000168814
-1.41777e-07
0.000168844
-1.55005e-07
0.000168876
-1.66232e-07
0.000168909
-1.7582e-07
0.000168944
-1.84114e-07
0.000168979
-1.91422e-07
0.000169014
-1.98005e-07
0.000169049
-2.04085e-07
0.000169084
-2.09845e-07
0.000169118
-2.15438e-07
0.000169152
-2.20988e-07
0.000169186
-2.266e-07
0.000169218
-2.3236e-07
0.00016925
-2.38341e-07
0.000169281
-2.44601e-07
0.000169311
-2.51189e-07
0.00016934
-2.58147e-07
0.000169368
-2.65506e-07
0.000169395
-2.73291e-07
0.000169421
-2.81521e-07
0.000169446
-2.90208e-07
0.000169469
-2.99358e-07
0.000169491
-3.0897e-07
0.000169512
-3.19039e-07
0.000169531
-3.29556e-07
-3.4048e-07
0.000169549
0.000173491
6.20108e-09
0.000173485
-2.15414e-08
0.000173496
-5.61393e-08
0.000173518
-8.83928e-08
0.000173548
-1.16832e-07
0.00017358
-1.40623e-07
0.000173614
-1.60449e-07
0.00017365
-1.76911e-07
0.000173685
-1.90571e-07
0.000173721
-2.0194e-07
0.000173756
-2.11478e-07
0.000173792
-2.19586e-07
0.000173827
-2.266e-07
0.000173862
-2.32797e-07
0.000173896
-2.38406e-07
0.00017393
-2.43615e-07
0.000173963
-2.4858e-07
0.000173996
-2.5343e-07
0.000174027
-2.58272e-07
0.000174058
-2.63193e-07
0.000174088
-2.68267e-07
0.000174117
-2.73555e-07
0.000174145
-2.79108e-07
0.000174172
-2.84966e-07
0.000174197
-2.91163e-07
0.000174222
-2.97722e-07
0.000174245
-3.04664e-07
0.000174267
-3.12e-07
0.000174287
-3.19736e-07
0.000174306
-3.27872e-07
0.000174323
-3.36404e-07
0.000174339
-3.45324e-07
-3.54593e-07
0.000174353
0.000178498
-2.36899e-08
0.000178502
-2.49533e-08
0.000178492
-4.5807e-08
0.000178483
-7.98321e-08
0.000178486
-1.20012e-07
0.000178501
-1.55293e-07
0.000178524
-1.83856e-07
0.000178554
-2.06316e-07
0.000178587
-2.24036e-07
0.000178623
-2.38048e-07
0.000178661
-2.4917e-07
0.000178699
-2.58084e-07
0.000178738
-2.65338e-07
0.000178777
-2.71363e-07
0.000178815
-2.76498e-07
0.000178852
-2.8101e-07
0.000178889
-2.8511e-07
0.000178924
-2.88965e-07
0.000178959
-2.92708e-07
0.000178992
-2.96446e-07
0.000179024
-3.00263e-07
0.000179055
-3.04228e-07
0.000179084
-3.08397e-07
0.000179112
-3.12812e-07
0.000179138
-3.17509e-07
0.000179163
-3.22514e-07
0.000179186
-3.27845e-07
0.000179208
-3.33515e-07
0.000179227
-3.3953e-07
0.000179245
-3.45892e-07
0.000179262
-3.52596e-07
0.000179276
-3.59637e-07
-3.6698e-07
0.000179288
0.000183486
5.72185e-08
0.000183465
-2.97602e-09
0.000183501
-8.18169e-08
0.000183555
-1.33886e-07
0.000183607
-1.72866e-07
0.000183655
-2.03113e-07
0.000183698
-2.26955e-07
0.000183738
-2.46288e-07
0.000183776
-2.6186e-07
0.000183812
-2.74361e-07
0.000183848
-2.84455e-07
0.000183882
-2.92669e-07
0.000183916
-2.99409e-07
0.00018395
-3.05009e-07
0.000183983
-3.09737e-07
0.000184016
-3.13812e-07
0.000184048
-3.17412e-07
0.00018408
-3.20683e-07
0.000184111
-3.23743e-07
0.000184141
-3.26691e-07
0.000184171
-3.29609e-07
0.000184199
-3.32564e-07
0.000184226
-3.35612e-07
0.000184252
-3.38799e-07
0.000184277
-3.42161e-07
0.0001843
-3.45729e-07
0.000184322
-3.49524e-07
0.000184342
-3.53564e-07
0.00018436
-3.57859e-07
0.000184377
-3.62414e-07
0.000184391
-3.67229e-07
0.000184404
-3.72299e-07
-3.77602e-07
0.000184415
0.000188861
7.99885e-09
0.000188797
6.13246e-08
0.000188712
2.59033e-09
0.00018865
-7.10261e-08
0.000188632
-1.55041e-07
0.000188647
-2.17861e-07
0.00018868
-2.60811e-07
0.000188725
-2.91087e-07
0.000188776
-3.12903e-07
0.000188831
-3.28875e-07
0.000188887
-3.40667e-07
0.000188944
-3.4942e-07
0.000189
-3.55943e-07
0.000189056
-3.60825e-07
0.000189111
-3.64493e-07
0.000189164
-3.67267e-07
0.000189216
-3.69389e-07
0.000189267
-3.71046e-07
0.000189315
-3.72382e-07
0.000189362
-3.73513e-07
0.000189407
-3.74531e-07
0.00018945
-3.75512e-07
0.000189491
-3.76515e-07
0.00018953