/*--------------------------------*- C++ -*----------------------------------*\
| =========                 |                                                 |
| \\      /  F ield         | OpenFOAM: The Open Source CFD Toolbox           |
|  \\    /   O peration     | Version:  2.1.1                                 |
|   \\  /    A nd           | Web:      www.OpenFOAM.org                      |
|    \\/     M anipulation  |                                                 |
\*---------------------------------------------------------------------------*/
FoamFile
{
    version     2.0;
    format      ascii;
    class       volVectorField;
    location    "0.07";
    object      U;
}
// * * * * * * * * * * * * * * * * * * * * * * * * * * * * * * * * * * * * * //

dimensions      [0 1 -1 0 0 0 0];

internalField   nonuniform List<vector> 
6820
(
(8.34337 -0.360074 0)
(8.40107 -0.24714 0)
(8.35599 -0.115276 0)
(8.24759 -0.0365319 0)
(8.11899 0.0060461 0)
(7.98537 0.0279235 0)
(7.85302 0.0387108 0)
(7.72532 0.0434294 0)
(7.60369 0.0447209 0)
(7.48866 0.044043 0)
(7.38047 0.0422377 0)
(7.27911 0.0398102 0)
(7.18448 0.0370725 0)
(7.09635 0.0342212 0)
(7.01441 0.031381 0)
(6.93834 0.028631 0)
(6.86776 0.0260198 0)
(6.8023 0.0235765 0)
(6.74156 0.0213169 0)
(6.68517 0.0192482 0)
(6.63272 0.0173728 0)
(6.58386 0.0156908 0)
(6.5382 0.0142019 0)
(6.49537 0.0129082 0)
(6.45499 0.0118162 0)
(6.41666 0.010942 0)
(6.37994 0.0103155 0)
(6.34429 0.0100074 0)
(6.30904 0.0101273 0)
(6.27313 0.010999 0)
(6.2345 0.0134011 0)
(6.19092 0.0178926 0)
(6.12973 0.0382295 0)
(8.32138 0.166257 0)
(8.28708 0.190022 0)
(8.28542 0.132187 0)
(8.31736 0.095914 0)
(8.36163 0.0750963 0)
(8.40164 0.0624528 0)
(8.43267 0.054992 0)
(8.45467 0.0504952 0)
(8.4685 0.0476216 0)
(8.47517 0.0456583 0)
(8.4757 0.044211 0)
(8.47103 0.0430425 0)
(8.462 0.0420151 0)
(8.44931 0.0410531 0)
(8.43361 0.0401175 0)
(8.41544 0.0391915 0)
(8.39527 0.0382714 0)
(8.37353 0.0373611 0)
(8.35054 0.0364687 0)
(8.3266 0.0356052 0)
(8.30197 0.0347834 0)
(8.27683 0.0340178 0)
(8.25135 0.033326 0)
(8.22567 0.0327294 0)
(8.19988 0.0322566 0)
(8.17404 0.0319474 0)
(8.14823 0.031863 0)
(8.12243 0.0321052 0)
(8.09684 0.0328306 0)
(8.07109 0.0344493 0)
(8.04738 0.0372941 0)
(8.0223 0.0438142 0)
(8.01817 0.0532985 0)
(8.3225 -0.0608783 0)
(8.31396 -0.0832566 0)
(8.33045 -0.0540552 0)
(8.34422 -0.0202381 0)
(8.35302 0.00249754 0)
(8.36195 0.016653 0)
(8.37158 0.0259252 0)
(8.38149 0.03218 0)
(8.39119 0.0364418 0)
(8.40029 0.0393565 0)
(8.40855 0.0413199 0)
(8.41584 0.0425775 0)
(8.42208 0.0433046 0)
(8.42726 0.0436342 0)
(8.43139 0.0436677 0)
(8.4345 0.0434838 0)
(8.43665 0.043145 0)
(8.43789 0.0427015 0)
(8.43827 0.0421945 0)
(8.43785 0.0416588 0)
(8.43669 0.0411247 0)
(8.43483 0.0406203 0)
(8.43232 0.0401736 0)
(8.4292 0.0398141 0)
(8.42549 0.0395778 0)
(8.4212 0.0395083 0)
(8.41638 0.039672 0)
(8.411 0.0401431 0)
(8.40514 0.041104 0)
(8.39878 0.0425698 0)
(8.39244 0.0453332 0)
(8.38584 0.0475473 0)
(8.38101 0.0539092 0)
(8.33365 0.0145761 0)
(8.32974 0.0477416 0)
(8.32731 0.0540476 0)
(8.32859 0.0466533 0)
(8.3344 0.0411869 0)
(8.34182 0.0387216 0)
(8.3492 0.0379535 0)
(8.35628 0.037956 0)
(8.3631 0.0382289 0)
(8.36963 0.0385531 0)
(8.37583 0.0388315 0)
(8.38169 0.0390243 0)
(8.38717 0.0391238 0)
(8.39227 0.0391355 0)
(8.39696 0.0390702 0)
(8.40125 0.0389421 0)
(8.40512 0.0387671 0)
(8.40859 0.0385623 0)
(8.41167 0.0383449 0)
(8.41435 0.0381332 0)
(8.41664 0.0379461 0)
(8.41857 0.0378045 0)
(8.42012 0.0377319 0)
(8.4213 0.0377566 0)
(8.42212 0.0379141 0)
(8.42258 0.0382493 0)
(8.42268 0.0388259 0)
(8.42242 0.0397211 0)
(8.42189 0.0410616 0)
(8.42107 0.0429421 0)
(8.42042 0.0456167 0)
(8.4198 0.0488262 0)
(8.42067 0.0532386 0)
(8.3302 -0.00529562 0)
(8.3272 -0.00746392 0)
(8.33131 -0.00236274 0)
(8.33592 0.00816569 0)
(8.33991 0.0173801 0)
(8.34398 0.0236413 0)
(8.34826 0.0278753 0)
(8.35277 0.0308951 0)
(8.35742 0.0331031 0)
(8.36209 0.0347325 0)
(8.36669 0.0359299 0)
(8.37118 0.0367916 0)
(8.37551 0.0373863 0)
(8.37966 0.037768 0)
(8.3836 0.037982 0)
(8.38733 0.0380677 0)
(8.39084 0.0380594 0)
(8.39411 0.037988 0)
(8.39716 0.0378813 0)
(8.39996 0.0377654 0)
(8.40254 0.0376657 0)
(8.40487 0.037608 0)
(8.40696 0.03762 0)
(8.4088 0.0377328 0)
(8.4104 0.0379836 0)
(8.41176 0.038417 0)
(8.41288 0.0390916 0)
(8.41376 0.0400711 0)
(8.41449 0.0414556 0)
(8.41509 0.0432827 0)
(8.41581 0.0457322 0)
(8.41667 0.048438 0)
(8.41813 0.0518622 0)
(8.33238 0.00230874 0)
(8.33116 0.013369 0)
(8.33273 0.0204963 0)
(8.33537 0.0239383 0)
(8.33874 0.0261454 0)
(8.34268 0.0280109 0)
(8.34678 0.0297503 0)
(8.35087 0.031314 0)
(8.35494 0.0326229 0)
(8.35896 0.0336677 0)
(8.36289 0.0344725 0)
(8.36674 0.0350673 0)
(8.37046 0.0354835 0)
(8.37406 0.0357527 0)
(8.37751 0.0359053 0)
(8.38082 0.0359693 0)
(8.38396 0.0359705 0)
(8.38694 0.0359332 0)
(8.38975 0.0358804 0)
(8.39239 0.0358347 0)
(8.39486 0.0358188 0)
(8.39716 0.0358568 0)
(8.39928 0.035975 0)
(8.40122 0.0362033 0)
(8.40298 0.0365769 0)
(8.40456 0.037137 0)
(8.40599 0.0379349 0)
(8.40727 0.0390245 0)
(8.40846 0.0404763 0)
(8.40962 0.042323 0)
(8.41088 0.0446424 0)
(8.4123 0.0472655 0)
(8.41404 0.0503186 0)
(8.33232 0.000901642 0)
(8.3315 0.00587137 0)
(8.33334 0.0109023 0)
(8.33632 0.0157586 0)
(8.33964 0.020204 0)
(8.34319 0.0237804 0)
(8.3468 0.0265357 0)
(8.35042 0.0286661 0)
(8.35404 0.0303099 0)
(8.35763 0.031571 0)
(8.36116 0.0325288 0)
(8.36461 0.0332413 0)
(8.36797 0.0337548 0)
(8.37121 0.0341085 0)
(8.37434 0.0343368 0)
(8.37735 0.0344702 0)
(8.38023 0.0345366 0)
(8.38298 0.0345615 0)
(8.3856 0.0345695 0)
(8.38808 0.0345841 0)
(8.39042 0.0346292 0)
(8.39262 0.0347294 0)
(8.39469 0.0349115 0)
(8.39662 0.0352048 0)
(8.39842 0.035643 0)
(8.40009 0.036264 0)
(8.40166 0.0371119 0)
(8.40314 0.0382308 0)
(8.40458 0.039672 0)
(8.40604 0.0414586 0)
(8.4076 0.0436297 0)
(8.40931 0.046093 0)
(8.41122 0.0488855 0)
(8.33272 0.00173935 0)
(8.33253 0.00738178 0)
(8.33411 0.0127388 0)
(8.33663 0.0170717 0)
(8.33957 0.0205951 0)
(8.34285 0.0233979 0)
(8.34628 0.0256453 0)
(8.34974 0.0274724 0)
(8.35318 0.0289406 0)
(8.35658 0.0300986 0)
(8.35991 0.0309948 0)
(8.36315 0.0316719 0)
(8.36631 0.0321681 0)
(8.36936 0.0325177 0)
(8.3723 0.0327523 0)
(8.37513 0.0329005 0)
(8.37785 0.0329886 0)
(8.38046 0.0330414 0)
(8.38295 0.0330824 0)
(8.38532 0.0331347 0)
(8.38758 0.0332213 0)
(8.38972 0.0333665 0)
(8.39175 0.0335957 0)
(8.39368 0.033937 0)
(8.39551 0.0344213 0)
(8.39725 0.0350822 0)
(8.39893 0.035957 0)
(8.40056 0.0370817 0)
(8.40219 0.0384935 0)
(8.40387 0.0402114 0)
(8.40565 0.0422557 0)
(8.40758 0.0445838 0)
(8.40968 0.0472059 0)
(8.33284 0.00182409 0)
(8.33291 0.00657016 0)
(8.33437 0.0111592 0)
(8.33672 0.0151284 0)
(8.3395 0.0185793 0)
(8.34259 0.0214651 0)
(8.34582 0.0238145 0)
(8.3491 0.0257126 0)
(8.35238 0.027227 0)
(8.35563 0.028418 0)
(8.35881 0.0293418 0)
(8.36192 0.0300454 0)
(8.36495 0.0305689 0)
(8.36788 0.0309475 0)
(8.37071 0.0312127 0)
(8.37344 0.031393 0)
(8.37607 0.0315146 0)
(8.37859 0.031602 0)
(8.381 0.0316784 0)
(8.38332 0.0317668 0)
(8.38554 0.0318898 0)
(8.38766 0.0320709 0)
(8.38969 0.0323347 0)
(8.39164 0.0327072 0)
(8.39352 0.0332167 0)
(8.39534 0.0338927 0)
(8.39712 0.0347664 0)
(8.3989 0.0358671 0)
(8.4007 0.0372227 0)
(8.40257 0.0388486 0)
(8.40455 0.0407576 0)
(8.40668 0.0429331 0)
(8.40898 0.045378 0)
(8.33293 0.00187034 0)
(8.33321 0.00626009 0)
(8.33457 0.0105544 0)
(8.33671 0.0143083 0)
(8.33928 0.0175395 0)
(8.34216 0.0202384 0)
(8.34521 0.0224474 0)
(8.34834 0.0242477 0)
(8.35148 0.0257016 0)
(8.35461 0.0268597 0)
(8.35769 0.0277688 0)
(8.36071 0.0284703 0)
(8.36365 0.0290004 0)
(8.3665 0.0293918 0)
(8.36926 0.0296745 0)
(8.37193 0.0298757 0)
(8.3745 0.0300205 0)
(8.37698 0.0301328 0)
(8.37937 0.0302352 0)
(8.38166 0.0303497 0)
(8.38387 0.0304984 0)
(8.38601 0.0307035 0)
(8.38806 0.0309881 0)
(8.39006 0.0313763 0)
(8.39201 0.031893 0)
(8.39392 0.0325641 0)
(8.39582 0.0334153 0)
(8.39774 0.0344703 0)
(8.39971 0.0357502 0)
(8.40176 0.037268 0)
(8.40394 0.039033 0)
(8.40627 0.0410409 0)
(8.40878 0.0432939 0)
(8.33299 0.00183812 0)
(8.33336 0.00584663 0)
(8.33463 0.0097495 0)
(8.3366 0.0132138 0)
(8.339 0.0162323 0)
(8.34169 0.018799 0)
(8.34457 0.0209332 0)
(8.34755 0.0226892 0)
(8.35056 0.0241174 0)
(8.35357 0.0252628 0)
(8.35655 0.0261686 0)
(8.35948 0.026874 0)
(8.36235 0.0274138 0)
(8.36514 0.0278194 0)
(8.36785 0.0281196 0)
(8.37047 0.0283407 0)
(8.37301 0.0285068 0)
(8.37547 0.028641 0)
(8.37785 0.028765 0)
(8.38015 0.0289001 0)
(8.38237 0.0290671 0)
(8.38454 0.0292871 0)
(8.38664 0.0295813 0)
(8.3887 0.0299715 0)
(8.39073 0.0304798 0)
(8.39275 0.0311281 0)
(8.39477 0.0319376 0)
(8.39684 0.0329272 0)
(8.39897 0.0341131 0)
(8.40119 0.0355058 0)
(8.40356 0.0371122 0)
(8.40609 0.0389329 0)
(8.40881 0.0409685 0)
(8.33301 0.00176456 0)
(8.33344 0.00545554 0)
(8.33464 0.00903793 0)
(8.33646 0.0122582 0)
(8.33869 0.0150826 0)
(8.34121 0.0175032 0)
(8.34392 0.0195324 0)
(8.34675 0.0212129 0)
(8.34963 0.0225892 0)
(8.35253 0.0237015 0)
(8.35541 0.0245884 0)
(8.35826 0.0252858 0)
(8.36105 0.0258255 0)
(8.36378 0.026237 0)
(8.36644 0.0265472 0)
(8.36904 0.026781 0)
(8.37156 0.0269614 0)
(8.374 0.0271102 0)
(8.37638 0.0272481 0)
(8.37869 0.0273952 0)
(8.38094 0.0275711 0)
(8.38314 0.0277951 0)
(8.3853 0.0280868 0)
(8.38744 0.0284653 0)
(8.38955 0.0289497 0)
(8.39168 0.0295584 0)
(8.39383 0.0303087 0)
(8.39603 0.0312153 0)
(8.39831 0.0322904 0)
(8.40071 0.0335418 0)
(8.40325 0.0349743 0)
(8.40597 0.0365891 0)
(8.40888 0.0383846 0)
(8.33303 0.00166669 0)
(8.33348 0.00506445 0)
(8.3346 0.00834445 0)
(8.33629 0.011319 0)
(8.33836 0.0139457 0)
(8.34072 0.0162163 0)
(8.34329 0.0181382 0)
(8.34597 0.0197424 0)
(8.34873 0.0210655 0)
(8.35151 0.0221422 0)
(8.3543 0.0230067 0)
(8.35706 0.0236914 0)
(8.35978 0.0242261 0)
(8.36245 0.0246381 0)
(8.36507 0.0249527 0)
(8.36763 0.0251933 0)
(8.37012 0.0253816 0)
(8.37256 0.0255382 0)
(8.37494 0.0256826 0)
(8.37727 0.0258335 0)
(8.37955 0.0260089 0)
(8.38179 0.0262266 0)
(8.38401 0.0265039 0)
(8.38621 0.0268575 0)
(8.38841 0.0273037 0)
(8.39064 0.0278575 0)
(8.3929 0.0285326 0)
(8.39523 0.0293403 0)
(8.39766 0.0302891 0)
(8.40021 0.0313843 0)
(8.4029 0.0326281 0)
(8.40579 0.0340204 0)
(8.40887 0.0355568 0)
(8.33304 0.00155611 0)
(8.33349 0.00468084 0)
(8.33455 0.00768375 0)
(8.33611 0.010426 0)
(8.33805 0.0128628 0)
(8.34026 0.0149835 0)
(8.34268 0.016792 0)
(8.34523 0.0183113 0)
(8.34786 0.0195715 0)
(8.35054 0.020603 0)
(8.35322 0.0214361 0)
(8.3559 0.0221 0)
(8.35855 0.0226219 0)
(8.36116 0.0230269 0)
(8.36374 0.0233386 0)
(8.36626 0.0235787 0)
(8.36873 0.0237675 0)
(8.37116 0.0239242 0)
(8.37354 0.0240667 0)
(8.37588 0.0242123 0)
(8.37818 0.0243775 0)
(8.38046 0.024578 0)
(8.38273 0.0248291 0)
(8.385 0.0251451 0)
(8.38728 0.0255394 0)
(8.3896 0.0260241 0)
(8.39197 0.0266096 0)
(8.39441 0.0273039 0)
(8.39696 0.0281126 0)
(8.39964 0.0290383 0)
(8.40247 0.0300808 0)
(8.40549 0.0312374 0)
(8.40871 0.0325012 0)
(8.33304 0.0014398 0)
(8.33348 0.00430544 0)
(8.33448 0.00704909 0)
(8.33594 0.00956697 0)
(8.33774 0.0118166 0)
(8.33982 0.0137859 0)
(8.34211 0.0154764 0)
(8.34453 0.0169051 0)
(8.34704 0.0180965 0)
(8.34961 0.0190766 0)
(8.3522 0.0198719 0)
(8.3548 0.0205086 0)
(8.35738 0.0210111 0)
(8.35993 0.0214026 0)
(8.36246 0.0217047 0)
(8.36494 0.0219373 0)
(8.36739 0.0221194 0)
(8.36981 0.0222684 0)
(8.37218 0.0224009 0)
(8.37453 0.0225324 0)
(8.37686 0.0226778 0)
(8.37917 0.0228509 0)
(8.38148 0.0230646 0)
(8.3838 0.0233312 0)
(8.38615 0.0236612 0)
(8.38855 0.0240641 0)
(8.391 0.0245473 0)
(8.39355 0.025116 0)
(8.3962 0.0257731 0)
(8.39898 0.0265185 0)
(8.40192 0.0273497 0)
(8.40504 0.0282616 0)
(8.40836 0.029245 0)
(8.33304 0.0013219 0)
(8.33346 0.0039396 0)
(8.3344 0.00643905 0)
(8.33576 0.00874127 0)
(8.33746 0.0108079 0)
(8.33941 0.012626 0)
(8.34157 0.0141953 0)
(8.34388 0.0155283 0)
(8.34628 0.0166446 0)
(8.34875 0.0175666 0)
(8.35125 0.0183173 0)
(8.35376 0.0189197 0)
(8.35627 0.019396 0)
(8.35877 0.0197671 0)
(8.36124 0.0200525 0)
(8.36369 0.0202706 0)
(8.36611 0.0204386 0)
(8.36851 0.0205723 0)
(8.37088 0.0206866 0)
(8.37323 0.0207955 0)
(8.37557 0.0209119 0)
(8.37791 0.0210477 0)
(8.38026 0.021214 0)
(8.38263 0.0214204 0)
(8.38503 0.0216752 0)
(8.38748 0.0219853 0)
(8.39001 0.0223556 0)
(8.39263 0.0227887 0)
(8.39535 0.0232849 0)
(8.39821 0.0238422 0)
(8.40123 0.0244557 0)
(8.40442 0.0251181 0)
(8.40781 0.0258187 0)
(8.33304 0.00120477 0)
(8.33344 0.00358388 0)
(8.33433 0.00585126 0)
(8.3356 0.00794527 0)
(8.33719 0.00983234 0)
(8.33904 0.0114993 0)
(8.34108 0.0129446 0)
(8.34327 0.0141773 0)
(8.34557 0.0152132 0)
(8.34794 0.016071 0)
(8.35035 0.0167708 0)
(8.35279 0.0173327 0)
(8.35523 0.0177762 0)
(8.35767 0.0181203 0)
(8.3601 0.0183825 0)
(8.36251 0.0185792 0)
(8.3649 0.018726 0)
(8.36728 0.018837 0)
(8.36964 0.0189256 0)
(8.37199 0.0190037 0)
(8.37434 0.0190827 0)
(8.37669 0.0191726 0)
(8.37906 0.0192822 0)
(8.38146 0.0194191 0)
(8.38391 0.0195895 0)
(8.38641 0.0197979 0)
(8.38898 0.0200468 0)
(8.39165 0.0203367 0)
(8.39443 0.0206659 0)
(8.39734 0.0210304 0)
(8.4004 0.0214233 0)
(8.40363 0.0218359 0)
(8.40705 0.0222563 0)
(8.33304 0.00108971 0)
(8.33342 0.00323842 0)
(8.33425 0.00528377 0)
(8.33545 0.00717633 0)
(8.33695 0.00888719 0)
(8.33869 0.0104034 0)
(8.34063 0.0117226 0)
(8.34272 0.0128512 0)
(8.34492 0.0138017 0)
(8.34719 0.0145899 0)
(8.34952 0.0152328 0)
(8.35188 0.015748 0)
(8.35426 0.0161526 0)
(8.35664 0.0164633 0)
(8.35902 0.0166957 0)
(8.36139 0.0168646 0)
(8.36375 0.0169835 0)
(8.3661 0.0170649 0)
(8.36845 0.0171205 0)
(8.3708 0.0171606 0)
(8.37315 0.0171945 0)
(8.37551 0.0172306 0)
(8.37789 0.0172757 0)
(8.38032 0.0173355 0)
(8.38278 0.017414 0)
(8.38531 0.0175137 0)
(8.38792 0.0176352 0)
(8.39062 0.0177772 0)
(8.39342 0.017936 0)
(8.39636 0.0181062 0)
(8.39943 0.0182796 0)
(8.40267 0.018446 0)
(8.40607 0.0185934 0)
(8.33303 0.00097731 0)
(8.3334 0.00290301 0)
(8.33418 0.0047347 0)
(8.33531 0.00643175 0)
(8.33672 0.0079694 0)
(8.33837 0.00933541 0)
(8.34021 0.0105267 0)
(8.34221 0.0115477 0)
(8.34431 0.0124084 0)
(8.3465 0.0131218 0)
(8.34875 0.0137022 0)
(8.35104 0.0141649 0)
(8.35335 0.0145246 0)
(8.35568 0.0147959 0)
(8.35801 0.0149926 0)
(8.36034 0.0151273 0)
(8.36267 0.015212 0)
(8.36499 0.0152575 0)
(8.36732 0.0152736 0)
(8.36965 0.0152691 0)
(8.372 0.0152514 0)
(8.37436 0.0152272 0)
(8.37675 0.0152014 0)
(8.37918 0.015178 0)
(8.38165 0.0151591 0)
(8.38419 0.0151456 0)
(8.38681 0.0151362 0)
(8.38952 0.015128 0)
(8.39233 0.0151162 0)
(8.39525 0.015094 0)
(8.39831 0.0150522 0)
(8.40152 0.01498 0)
(8.40488 0.0148654 0)
(8.33303 0.000867786 0)
(8.33338 0.00257719 0)
(8.33412 0.0042023 0)
(8.33518 0.00570904 0)
(8.33652 0.00707623 0)
(8.33808 0.00829254 0)
(8.33984 0.00935446 0)
(8.34174 0.0102651 0)
(8.34376 0.0110321 0)
(8.34587 0.0116661 0)
(8.34804 0.0121791 0)
(8.35026 0.012584 0)
(8.35251 0.0128934 0)
(8.35478 0.0131199 0)
(8.35706 0.0132751 0)
(8.35935 0.0133702 0)
(8.36164 0.013415 0)
(8.36394 0.0134189 0)
(8.36624 0.0133899 0)
(8.36856 0.0133351 0)
(8.37089 0.0132604 0)
(8.37324 0.0131706 0)
(8.37562 0.0130692 0)
(8.37804 0.0129582 0)
(8.38052 0.0128385 0)
(8.38305 0.0127092 0)
(8.38566 0.0125678 0)
(8.38835 0.0124101 0)
(8.39114 0.0122302 0)
(8.39404 0.0120204 0)
(8.39705 0.0117712 0)
(8.4002 0.0114712 0)
(8.40349 0.0111091 0)
(8.33303 0.000761116 0)
(8.33336 0.0022603 0)
(8.33406 0.00368485 0)
(8.33507 0.00500572 0)
(8.33633 0.00620477 0)
(8.33782 0.00727169 0)
(8.33949 0.00820284 0)
(8.34132 0.00900018 0)
(8.34326 0.00966968 0)
(8.34529 0.0102198 0)
(8.34739 0.0106606 0)
(8.34954 0.0110026 0)
(8.35173 0.0112565 0)
(8.35395 0.0114329 0)
(8.35618 0.0115416 0)
(8.35842 0.0115918 0)
(8.36068 0.0115919 0)
(8.36294 0.0115492 0)
(8.36522 0.0114704 0)
(8.36751 0.0113609 0)
(8.36981 0.0112249 0)
(8.37215 0.0110658 0)
(8.37451 0.0108856 0)
(8.37691 0.0106849 0)
(8.37937 0.010463 0)
(8.38188 0.0102179 0)
(8.38446 0.00994588 0)
(8.38711 0.00964193 0)
(8.38986 0.00929934 0)
(8.3927 0.00890993 0)
(8.39565 0.00846394 0)
(8.39872 0.00795012 0)
(8.4019 0.00735789 0)
(8.33303 0.000657155 0)
(8.33334 0.00195163 0)
(8.334 0.00318084 0)
(8.33496 0.00431977 0)
(8.33616 0.00535294 0)
(8.33758 0.00627118 0)
(8.33918 0.00707089 0)
(8.34093 0.0077532 0)
(8.3428 0.00832256 0)
(8.34476 0.00878561 0)
(8.34679 0.00915038 0)
(8.34888 0.00942552 0)
(8.35101 0.00961984 0)
(8.35318 0.00974187 0)
(8.35536 0.00979972 0)
(8.35756 0.00980081 0)
(8.35977 0.00975183 0)
(8.362 0.00965866 0)
(8.36424 0.00952624 0)
(8.3665 0.0093585 0)
(8.36878 0.00915835 0)
(8.37108 0.0089276 0)
(8.37341 0.00866689 0)
(8.37578 0.00837567 0)
(8.3782 0.00805211 0)
(8.38067 0.00769309 0)
(8.3832 0.00729415 0)
(8.38581 0.00684951 0)
(8.38849 0.00635205 0)
(8.39125 0.00579336 0)
(8.39411 0.00516379 0)
(8.39707 0.00445239 0)
(8.40013 0.00364959 0)
(8.33303 0.000555678 0)
(8.33332 0.00165029 0)
(8.33395 0.00268835 0)
(8.33486 0.00364809 0)
(8.33601 0.00451628 0)
(8.33736 0.00528495 0)
(8.3389 0.00595085 0)
(8.34058 0.00651466 0)
(8.34238 0.00697967 0)
(8.34428 0.00735107 0)
(8.34625 0.00763523 0)
(8.34828 0.007839 0)
(8.35035 0.00796932 0)
(8.35246 0.0080329 0)
(8.3546 0.00803609 0)
(8.35675 0.00798453 0)
(8.35892 0.00788336 0)
(8.36111 0.00773691 0)
(8.36331 0.00754862 0)
(8.36553 0.00732098 0)
(8.36777 0.00705555 0)
(8.37003 0.00675286 0)
(8.37232 0.00641237 0)
(8.37465 0.00603245 0)
(8.37702 0.00561031 0)
(8.37944 0.00514205 0)
(8.38191 0.00462259 0)
(8.38444 0.00404571 0)
(8.38703 0.00340408 0)
(8.3897 0.00268935 0)
(8.39245 0.00189216 0)
(8.39528 0.00100211 0)
(8.39818 1.07479e-05 0)
(8.33303 0.000456478 0)
(8.33331 0.00135584 0)
(8.33391 0.00220714 0)
(8.33477 0.00299157 0)
(8.33587 0.00369802 0)
(8.33717 0.0043197 0)
(8.33864 0.00485376 0)
(8.34026 0.00530029 0)
(8.342 0.0056612 0)
(8.34384 0.00594019 0)
(8.34575 0.0061421 0)
(8.34773 0.00627221 0)
(8.34975 0.0063358 0)
(8.35181 0.00633797 0)
(8.35389 0.00628349 0)
(8.356 0.00617629 0)
(8.35812 0.00602006 0)
(8.36027 0.00581774 0)
(8.36242 0.00557138 0)
(8.3646 0.00528221 0)
(8.36679 0.00495063 0)
(8.36901 0.00457601 0)
(8.37125 0.00415682 0)
(8.37352 0.00369056 0)
(8.37583 0.00317369 0)
(8.37817 0.0026017 0)
(8.38057 0.00196912 0)
(8.38301 0.00126953 0)
(8.3855 0.000495571 0)
(8.38806 -0.000360878 0)
(8.39067 -0.0013087 0)
(8.39335 -0.0023576 0)
(8.39609 -0.0035149 0)
(8.33303 0.000359197 0)
(8.33329 0.00106627 0)
(8.33387 0.00173165 0)
(8.3347 0.00233867 0)
(8.33575 0.00287838 0)
(8.337 0.00334573 0)
(8.33842 0.00373938 0)
(8.33998 0.00406007 0)
(8.34166 0.00430931 0)
(8.34345 0.00448973 0)
(8.34531 0.00460458 0)
(8.34723 0.00465733 0)
(8.3492 0.00465148 0)
(8.35121 0.00459038 0)
(8.35324 0.00447708 0)
(8.3553 0.00431368 0)
(8.35738 0.00410286 0)
(8.35947 0.003846 0)
(8.36158 0.00354365 0)
(8.36371 0.00319573 0)
(8.36585 0.00280167 0)
(8.36801 0.00235981 0)
(8.37019 0.0018677 0)
(8.37239 0.0013221 0)
(8.37462 0.000718952 0)
(8.37689 5.33289e-05 0)
(8.37919 -0.000680501 0)
(8.38152 -0.001489 0)
(8.3839 -0.00237934 0)
(8.38632 -0.00335927 0)
(8.38879 -0.00443706 0)
(8.3913 -0.00562162 0)
(8.39386 -0.00691912 0)
(8.33302 0.000264161 0)
(8.33328 0.000785554 0)
(8.33382 0.00127451 0)
(8.33462 0.00171647 0)
(8.33562 0.00210384 0)
(8.33683 0.00243207 0)
(8.3382 0.00269988 0)
(8.33972 0.00290578 0)
(8.34136 0.00304947 0)
(8.34309 0.00313361 0)
(8.3449 0.00316115 0)
(8.34678 0.00313453 0)
(8.3487 0.00305612 0)
(8.35066 0.00292801 0)
(8.35265 0.00275271 0)
(8.35466 0.00252837 0)
(8.35669 0.0022579 0)
(8.35874 0.00194195 0)
(8.36079 0.00157996 0)
(8.36286 0.00117085 0)
(8.36494 0.000712715 0)
(8.36704 0.000203266 0)
(8.36915 -0.000360542 0)
(8.37128 -0.000982541 0)
(8.37342 -0.00166722 0)
(8.37559 -0.00241978 0)
(8.37779 -0.00324603 0)
(8.38001 -0.00415236 0)
(8.38226 -0.00514564 0)
(8.38453 -0.00623317 0)
(8.38684 -0.00742257 0)
(8.38918 -0.00872194 0)
(8.39154 -0.0101364 0)
(8.33302 0.00016902 0)
(8.33327 0.000497103 0)
(8.3338 0.000790815 0)
(8.33456 0.00103845 0)
(8.33554 0.00123757 0)
(8.33671 0.00138752 0)
(8.33804 0.00149607 0)
(8.33951 0.00156608 0)
(8.3411 0.00159296 0)
(8.34279 0.00157576 0)
(8.34455 0.00151508 0)
(8.34638 0.00141143 0)
(8.34826 0.00126502 0)
(8.35017 0.00107597 0)
(8.35211 0.000843363 0)
(8.35407 0.000570518 0)
(8.35605 0.000253918 0)
(8.35804 -0.000108109 0)
(8.36004 -0.000516741 0)
(8.36205 -0.000973838 0)
(8.36407 -0.00148215 0)
(8.36609 -0.00204463 0)
(8.36813 -0.0026649 0)
(8.37017 -0.00334716 0)
(8.37222 -0.00409624 0)
(8.37429 -0.00491739 0)
(8.37637 -0.00581635 0)
(8.37846 -0.00679928 0)
(8.38057 -0.00787265 0)
(8.38269 -0.00904321 0)
(8.38483 -0.0103178 0)
(8.38697 -0.0117037 0)
(8.38913 -0.0132049 0)
(8.33302 8.32007e-05 0)
(8.33324 0.000255526 0)
(8.33373 0.000412211 0)
(8.33446 0.000537594 0)
(8.33539 0.000624819 0)
(8.33653 0.000672039 0)
(8.33784 0.000670642 0)
(8.33929 0.000621342 0)
(8.34085 0.000533544 0)
(8.34251 0.000409892 0)
(8.34424 0.000250345 0)
(8.34604 5.49268e-05 0)
(8.34788 -0.000176666 0)
(8.34975 -0.000445031 0)
(8.35165 -0.000751997 0)
(8.35357 -0.001095 0)
(8.3555 -0.00147848 0)
(8.35743 -0.001905 0)
(8.35938 -0.00237655 0)
(8.36132 -0.00289584 0)
(8.36327 -0.00346593 0)
(8.36521 -0.00409056 0)
(8.36716 -0.0047739 0)
(8.36911 -0.00552048 0)
(8.37106 -0.00633527 0)
(8.37302 -0.0072236 0)
(8.37497 -0.00819112 0)
(8.37693 -0.00924373 0)
(8.37889 -0.0103875 0)
(8.38084 -0.0116288 0)
(8.3828 -0.0129736 0)
(8.38475 -0.0144285 0)
(8.3867 -0.0159967 0)
(8.33303 -2.54843e-05 0)
(8.33327 -9.72566e-05 0)
(8.33377 -0.0002093 0)
(8.33448 -0.000356374 0)
(8.3354 -0.000523805 0)
(8.3365 -0.000700157 0)
(8.33775 -0.000889022 0)
(8.33914 -0.00109087 0)
(8.34066 -0.0013004 0)
(8.34228 -0.00151975 0)
(8.34397 -0.0017537 0)
(8.34572 -0.00200664 0)
(8.34752 -0.00228259 0)
(8.34935 -0.00258543 0)
(8.3512 -0.00291809 0)
(8.35307 -0.00328702 0)
(8.35495 -0.00369366 0)
(8.35683 -0.00414097 0)
(8.35871 -0.00463263 0)
(8.36059 -0.00517243 0)
(8.36247 -0.00576425 0)
(8.36434 -0.00641228 0)
(8.3662 -0.00712093 0)
(8.36805 -0.00789487 0)
(8.3699 -0.00873901 0)
(8.37173 -0.00965852 0)
(8.37356 -0.0106587 0)
(8.37537 -0.0117451 0)
(8.37718 -0.0129232 0)
(8.37897 -0.0141985 0)
(8.38074 -0.0155764 0)
(8.3825 -0.0170626 0)
(8.38424 -0.0186593 0)
(8.333 -6.42931e-05 0)
(8.33316 -0.000154478 0)
(8.33357 -0.000250723 0)
(8.33423 -0.00039009 0)
(8.33513 -0.000583575 0)
(8.33623 -0.000828796 0)
(8.33751 -0.00110957 0)
(8.33893 -0.00141458 0)
(8.34047 -0.00174216 0)
(8.34209 -0.00208963 0)
(8.34379 -0.0024549 0)
(8.34553 -0.0028377 0)
(8.34731 -0.00323914 0)
(8.34911 -0.00366132 0)
(8.35093 -0.00410693 0)
(8.35276 -0.00457952 0)
(8.35458 -0.00508211 0)
(8.35641 -0.00561855 0)
(8.35823 -0.0061931 0)
(8.36004 -0.00681007 0)
(8.36183 -0.00747392 0)
(8.36361 -0.00818934 0)
(8.36538 -0.00896117 0)
(8.36713 -0.00979445 0)
(8.36886 -0.0106943 0)
(8.37057 -0.011666 0)
(8.37226 -0.0127149 0)
(8.37393 -0.0138462 0)
(8.37557 -0.0150652 0)
(8.37719 -0.0163771 0)
(8.37877 -0.0177868 0)
(8.38033 -0.0192993 0)
(8.38185 -0.0209165 0)
(8.33306 -0.000274711 0)
(8.33336 -0.000895736 0)
(8.33384 -0.00158838 0)
(8.33448 -0.00228204 0)
(8.33531 -0.00292226 0)
(8.33633 -0.00349028 0)
(8.33751 -0.00398789 0)
(8.33885 -0.00442775 0)
(8.34031 -0.00482512 0)
(8.34187 -0.00519352 0)
(8.34351 -0.00554545 0)
(8.34521 -0.00589238 0)
(8.34695 -0.00624425 0)
(8.34871 -0.00660948 0)
(8.35049 -0.00699524 0)
(8.35227 -0.00740797 0)
(8.35406 -0.00785313 0)
(8.35583 -0.00833572 0)
(8.3576 -0.00886045 0)
(8.35934 -0.00943187 0)
(8.36107 -0.0100544 0)
(8.36277 -0.0107325 0)
(8.36445 -0.0114707 0)
(8.36611 -0.0122734 0)
(8.36773 -0.0131453 0)
(8.36932 -0.0140908 0)
(8.37088 -0.0151146 0)
(8.37241 -0.0162211 0)
(8.3739 -0.0174148 0)
(8.37535 -0.0186999 0)
(8.37675 -0.0200805 0)
(8.37811 -0.0215607 0)
(8.37943 -0.0231414 0)
(8.33293 -2.3716e-05 0)
(8.33286 1.85913e-05 0)
(8.3331 -1.21174e-05 0)
(8.33373 -0.000236234 0)
(8.33467 -0.000658293 0)
(8.33585 -0.00121993 0)
(8.3372 -0.00185928 0)
(8.33869 -0.00253323 0)
(8.34026 -0.00321608 0)
(8.34191 -0.00389334 0)
(8.3436 -0.00455823 0)
(8.34533 -0.00520934 0)
(8.34707 -0.00584873 0)
(8.34882 -0.00648053 0)
(8.35057 -0.00711005 0)
(8.35231 -0.00774326 0)
(8.35404 -0.00838634 0)
(8.35575 -0.00904551 0)
(8.35743 -0.00972698 0)
(8.3591 -0.0104369 0)
(8.36073 -0.0111813 0)
(8.36234 -0.0119659 0)
(8.36391 -0.0127966 0)
(8.36544 -0.0136788 0)
(8.36694 -0.0146181 0)
(8.3684 -0.0156197 0)
(8.36981 -0.0166887 0)
(8.37118 -0.0178299 0)
(8.3725 -0.019048 0)
(8.37377 -0.0203473 0)
(8.37499 -0.0217319 0)
(8.37615 -0.0232056 0)
(8.37725 -0.0247694 0)
(8.33317 -0.000739119 0)
(8.33368 -0.00255903 0)
(8.3341 -0.0044513 0)
(8.33452 -0.0060486 0)
(8.33511 -0.00728109 0)
(8.33594 -0.00820678 0)
(8.33702 -0.00890156 0)
(8.33829 -0.00943086 0)
(8.33972 -0.00984737 0)
(8.34126 -0.010192 0)
(8.34289 -0.0104958 0)
(8.34457 -0.010782 0)
(8.34629 -0.0110679 0)
(8.34802 -0.0113662 0)
(8.34976 -0.0116866 0)
(8.35149 -0.0120366 0)
(8.35321 -0.012422 0)
(8.3549 -0.0128478 0)
(8.35657 -0.0133182 0)
(8.3582 -0.0138371 0)
(8.35979 -0.0144081 0)
(8.36134 -0.0150348 0)
(8.36285 -0.0157206 0)
(8.36431 -0.0164689 0)
(8.36572 -0.0172832 0)
(8.36708 -0.0181668 0)
(8.36839 -0.0191231 0)
(8.36963 -0.0201553 0)
(8.37082 -0.0212666 0)
(8.37194 -0.0224597 0)
(8.373 -0.0237375 0)
(8.37399 -0.0251026 0)
(8.37491 -0.0265552 0)
(8.33263 0.000600141 0)
(8.33173 0.00207029 0)
(8.33176 0.00302176 0)
(8.33265 0.00302219 0)
(8.33397 0.00225177 0)
(8.33548 0.00108079 0)
(8.3371 -0.000250736 0)
(8.33878 -0.00161835 0)
(8.34048 -0.00295559 0)
(8.34219 -0.00422729 0)
(8.34391 -0.00541911 0)
(8.34562 -0.00652997 0)
(8.34732 -0.00756607 0)
(8.349 -0.00853721 0)
(8.35066 -0.00945483 0)
(8.35229 -0.0103308 0)
(8.3539 -0.0111767 0)
(8.35548 -0.0120036 0)
(8.35702 -0.0128216 0)
(8.35852 -0.0136403 0)
(8.35998 -0.0144685 0)
(8.3614 -0.0153141 0)
(8.36276 -0.0161846 0)
(8.36408 -0.0170868 0)
(8.36534 -0.0180271 0)
(8.36654 -0.0190112 0)
(8.36769 -0.0200445 0)
(8.36877 -0.021132 0)
(8.36978 -0.0222781 0)
(8.37072 -0.0234868 0)
(8.3716 -0.0247616 0)
(8.37239 -0.0261059 0)
(8.37311 -0.0275206 0)
(8.33358 -0.00192233 0)
(8.3347 -0.00679134 0)
(8.33449 -0.0115012 0)
(8.33381 -0.0146442 0)
(8.33359 -0.0163666 0)
(8.33403 -0.0172664 0)
(8.33496 -0.0176781 0)
(8.33622 -0.0177959 0)
(8.33771 -0.0177552 0)
(8.33934 -0.0176442 0)
(8.34108 -0.0175183 0)
(8.34286 -0.017411 0)
(8.34467 -0.0173426 0)
(8.34648 -0.0173246 0)
(8.34827 -0.0173631 0)
(8.35004 -0.0174612 0)
(8.35177 -0.0176205 0)
(8.35345 -0.0178411 0)
(8.35509 -0.0181233 0)
(8.35667 -0.0184671 0)
(8.35819 -0.0188726 0)
(8.35966 -0.0193401 0)
(8.36106 -0.0198703 0)
(8.36239 -0.020464 0)
(8.36366 -0.0211222 0)
(8.36485 -0.0218462 0)
(8.36597 -0.0226372 0)
(8.36702 -0.0234965 0)
(8.36798 -0.0244257 0)
(8.36887 -0.0254259 0)
(8.36967 -0.0264985 0)
(8.37038 -0.0276449 0)
(8.37101 -0.0288642 0)
(8.33162 0.00371482 0)
(8.32827 0.0103068 0)
(8.32842 0.0135015 0)
(8.33101 0.0134892 0)
(8.3337 0.0114968 0)
(8.33596 0.00871218 0)
(8.33799 0.00576709 0)
(8.33987 0.00290851 0)
(8.34163 0.000247921 0)
(8.34331 -0.00216767 0)
(8.34493 -0.00433363 0)
(8.34651 -0.00626691 0)
(8.34807 -0.00799297 0)
(8.3496 -0.00953995 0)
(8.35112 -0.0109357 0)
(8.35262 -0.0122061 0)
(8.3541 -0.0133747 0)
(8.35555 -0.0144621 0)
(8.35698 -0.0154867 0)
(8.35837 -0.0164645 0)
(8.35973 -0.0174094 0)
(8.36104 -0.0183335 0)
(8.3623 -0.0192478 0)
(8.36351 -0.0201614 0)
(8.36466 -0.0210828 0)
(8.36575 -0.0220194 0)
(8.36677 -0.0229775 0)
(8.36772 -0.0239629 0)
(8.36859 -0.0249806 0)
(8.36938 -0.026035 0)
(8.37009 -0.0271299 0)
(8.37071 -0.0282687 0)
(8.37124 -0.0294526 0)
(8.3343 -0.00640698 0)
(8.33464 -0.0206014 0)
(8.33079 -0.029776 0)
(8.32683 -0.0336978 0)
(8.32493 -0.0345492 0)
(8.32504 -0.0339576 0)
(8.32628 -0.032734 0)
(8.32808 -0.0312794 0)
(8.33023 -0.0298161 0)
(8.33258 -0.0284606 0)
(8.33504 -0.027265 0)
(8.33755 -0.0262466 0)
(8.34005 -0.0254047 0)
(8.34254 -0.0247298 0)
(8.34498 -0.0242088 0)
(8.34737 -0.0238272 0)
(8.3497 -0.0235713 0)
(8.35196 -0.0234286 0)
(8.35415 -0.0233882 0)
(8.35625 -0.0234408 0)
(8.35828 -0.0235787 0)
(8.36022 -0.0237955 0)
(8.36207 -0.0240863 0)
(8.36383 -0.0244469 0)
(8.3655 -0.0248743 0)
(8.36706 -0.025366 0)
(8.36853 -0.0259203 0)
(8.3699 -0.0265359 0)
(8.37116 -0.0272119 0)
(8.37231 -0.0279474 0)
(8.37336 -0.0287422 0)
(8.3743 -0.0295961 0)
(8.37512 -0.0305072 0)
(8.32884 0.0226091 0)
(8.32236 0.042812 0)
(8.3267 0.0440623 0)
(8.33335 0.0381267 0)
(8.33792 0.0307936 0)
(8.34084 0.0236748 0)
(8.34321 0.0170761 0)
(8.34547 0.0111676 0)
(8.34773 0.00600402 0)
(8.35008 0.00153701 0)
(8.35253 -0.00231462 0)
(8.35508 -0.00563361 0)
(8.35771 -0.00849845 0)
(8.36039 -0.0109805 0)
(8.36312 -0.0131422 0)
(8.36585 -0.0150368 0)
(8.36858 -0.0167097 0)
(8.37128 -0.0181994 0)
(8.37394 -0.0195382 0)
(8.37654 -0.0207535 0)
(8.37907 -0.0218684 0)
(8.38152 -0.0229026 0)
(8.38389 -0.0238729 0)
(8.38616 -0.0247935 0)
(8.38833 -0.0256769 0)
(8.39039 -0.0265335 0)
(8.39234 -0.0273726 0)
(8.39417 -0.0282021 0)
(8.39589 -0.0290289 0)
(8.39749 -0.0298591 0)
(8.39896 -0.0306981 0)
(8.4003 -0.0315502 0)
(8.40152 -0.0324194 0)
(8.32437 -0.0380144 0)
(8.29387 -0.0682715 0)
(8.2722 -0.0716058 0)
(8.26674 -0.0684628 0)
(8.27361 -0.0640627 0)
(8.28623 -0.0592012 0)
(8.30097 -0.0544948 0)
(8.31628 -0.0502982 0)
(8.33131 -0.0466714 0)
(8.3456 -0.0435891 0)
(8.35895 -0.0410065 0)
(8.37129 -0.0388648 0)
(8.38265 -0.0371026 0)
(8.39305 -0.0356637 0)
(8.40257 -0.0344989 0)
(8.41126 -0.0335662 0)
(8.41918 -0.0328301 0)
(8.42642 -0.0322612 0)
(8.43301 -0.0318355 0)
(8.43901 -0.0315331 0)
(8.44448 -0.031338 0)
(8.44945 -0.031237 0)
(8.45396 -0.0312198 0)
(8.45805 -0.0312777 0)
(8.46176 -0.031404 0)
(8.4651 -0.0315931 0)
(8.46811 -0.0318406 0)
(8.47081 -0.0321429 0)
(8.47322 -0.0324973 0)
(8.47535 -0.0329014 0)
(8.47724 -0.0333531 0)
(8.47888 -0.0338509 0)
(8.48032 -0.0343919 0)
(8.34002 0.156994 0)
(8.38201 0.149008 0)
(8.40253 0.103406 0)
(8.39951 0.0645276 0)
(8.38364 0.0358902 0)
(8.36104 0.0155319 0)
(8.33459 0.0011124 0)
(8.30623 -0.00921936 0)
(8.27716 -0.0167125 0)
(8.248 -0.0222004 0)