/*--------------------------------*- C++ -*----------------------------------*\
| =========                 |                                                 |
| \\      /  F ield         | OpenFOAM: The Open Source CFD Toolbox           |
|  \\    /   O peration     | Version:  2.1.1                                 |
|   \\  /    A nd           | Web:      www.OpenFOAM.org                      |
|    \\/     M anipulation  |                                                 |
\*---------------------------------------------------------------------------*/
FoamFile
{
    version     2.0;
    format      ascii;
    class       volScalarField;
    location    "0.03";
    object      nuSgs;
}
// * * * * * * * * * * * * * * * * * * * * * * * * * * * * * * * * * * * * * //

dimensions      [0 2 -1 0 0 0 0];

internalField   nonuniform List<scalar> 
6820
(
0.000556014
0.000457408
0.000368134
0.000306111
0.00026891
0.000243288
0.000224435
0.000210022
0.000198389
0.000188628
0.000180223
0.000172843
0.000166265
0.000160333
0.000154932
0.000149976
0.000145397
0.000141142
0.00013717
0.000133445
0.000129937
0.000126622
0.000123479
0.000120487
0.00011763
0.000114892
0.000112258
0.00010972
0.000107259
0.00010489
0.000102569
0.00010024
9.76505e-05
0.000103497
0.000170662
0.00022365
0.000240021
0.00023527
0.000224917
0.000213234
0.000201968
0.000191759
0.000182623
0.000174444
0.000167086
0.000160426
0.000154361
0.000148806
0.000143693
0.000138963
0.000134568
0.000130468
0.000126629
0.000123022
0.000119623
0.000116411
0.000113367
0.000110476
0.000107725
0.000105102
0.000102591
0.000100195
9.78513e-05
9.5672e-05
9.32124e-05
9.16592e-05
3.67739e-05
2.8474e-05
4.56115e-05
8.22889e-05
0.000107925
0.000123517
0.000131943
0.000135796
0.000136901
0.000136332
0.000134728
0.000132487
0.000129858
0.000127005
0.000124034
0.000121017
0.000118001
0.000115017
0.000112086
0.000109221
0.000106431
0.000103718
0.000101087
9.85369e-05
9.60674e-05
9.36768e-05
9.13631e-05
8.91209e-05
8.69483e-05
8.48195e-05
8.2749e-05
8.0599e-05
7.8586e-05
2.07357e-05
2.86817e-05
2.65588e-05
1.50903e-05
3.64461e-06
1.38122e-05
2.56209e-05
3.54178e-05
4.33059e-05
4.95595e-05
5.44541e-05
5.8234e-05
6.11021e-05
6.32168e-05
6.47121e-05
6.56989e-05
6.62682e-05
6.6495e-05
6.64412e-05
6.61576e-05
6.56865e-05
6.50626e-05
6.43151e-05
6.34683e-05
6.25425e-05
6.15543e-05
6.05176e-05
5.94426e-05
5.83399e-05
5.72106e-05
5.60673e-05
5.49128e-05
5.38501e-05
1.44196e-05
1.75823e-05
2.26027e-05
2.42993e-05
2.39771e-05
2.20094e-05
1.91376e-05
1.59023e-05
1.25376e-05
9.19436e-06
5.98097e-06
2.97715e-06
6.26639e-07
2.54533e-06
4.82613e-06
6.88207e-06
8.7033e-06
1.02988e-05
1.16822e-05
1.2869e-05
1.38755e-05
1.47176e-05
1.54109e-05
1.59705e-05
1.64103e-05
1.67435e-05
1.69822e-05
1.71377e-05
1.72211e-05
1.72424e-05
1.72163e-05
1.71748e-05
1.71656e-05
1.09198e-05
1.24948e-05
1.38196e-05
1.43285e-05
1.51109e-05
1.57456e-05
1.61176e-05
1.63206e-05
1.63592e-05
1.62395e-05
1.59861e-05
1.56234e-05
1.5176e-05
1.466e-05
1.40943e-05
1.34968e-05
1.28827e-05
1.22649e-05
1.16535e-05
1.10565e-05
1.04795e-05
9.92689e-06
9.4011e-06
8.90359e-06
8.43481e-06
7.99449e-06
7.58145e-06
7.19392e-06
6.82836e-06
6.47985e-06
6.13801e-06
5.78278e-06
5.37803e-06
8.24487e-06
9.42522e-06
1.02442e-05
1.00432e-05
9.85431e-06
9.67562e-06
9.48964e-06
9.3984e-06
9.39066e-06
9.42213e-06
9.46576e-06
9.50375e-06
9.52426e-06
9.52507e-06
9.50415e-06
9.46061e-06
9.3948e-06
9.30792e-06
9.20158e-06
9.0776e-06
8.93783e-06
8.78407e-06
8.61797e-06
8.44101e-06
8.25448e-06
8.05946e-06
7.85649e-06
7.6456e-06
7.4254e-06
7.19351e-06
6.94286e-06
6.66737e-06
6.3427e-06
6.36208e-06
7.40644e-06
8.21217e-06
8.07595e-06
7.76655e-06
7.42795e-06
7.05107e-06
6.72707e-06
6.47464e-06
6.27295e-06
6.10909e-06
5.97393e-06
5.85847e-06
5.7559e-06
5.66175e-06
5.5728e-06
5.48646e-06
5.40074e-06
5.31409e-06
5.22535e-06
5.13366e-06
5.03836e-06
4.93891e-06
4.83489e-06
4.72587e-06
4.61139e-06
4.49068e-06
4.36259e-06
4.22498e-06
4.07494e-06
3.90689e-06
3.7174e-06
3.49008e-06
5.00288e-06
5.85691e-06
6.53729e-06
6.53114e-06
6.36409e-06
6.15761e-06
5.87558e-06
5.59029e-06
5.3402e-06
5.1216e-06
4.92972e-06
4.76106e-06
4.61075e-06
4.47451e-06
4.34935e-06
4.23297e-06
4.12347e-06
4.01935e-06
3.91938e-06
3.82251e-06
3.72784e-06
3.63451e-06
3.54172e-06
3.44867e-06
3.35449e-06
3.25823e-06
3.15863e-06
3.05407e-06
2.9423e-06
2.82062e-06
2.68503e-06
2.53397e-06
2.35785e-06
3.99877e-06
4.70615e-06
5.30393e-06
5.37449e-06
5.27279e-06
5.12558e-06
4.91026e-06
4.68173e-06
4.47764e-06
4.29713e-06
4.1357e-06
3.99114e-06
3.86038e-06
3.7404e-06
3.62908e-06
3.52486e-06
3.42643e-06
3.33272e-06
3.24279e-06
3.15581e-06
3.07102e-06
2.98768e-06
2.90506e-06
2.82243e-06
2.73897e-06
2.65376e-06
2.56569e-06
2.47343e-06
2.37531e-06
2.26957e-06
2.15423e-06
2.03025e-06
1.89327e-06
3.24091e-06
3.83438e-06
4.36086e-06
4.47194e-06
4.41806e-06
4.31931e-06
4.15984e-06
3.9764e-06
3.80362e-06
3.64586e-06
3.50174e-06
3.37125e-06
3.25297e-06
3.14478e-06
3.04494e-06
2.95204e-06
2.86484e-06
2.78224e-06
2.70333e-06
2.62727e-06
2.55332e-06
2.4808e-06
2.40903e-06
2.33733e-06
2.265e-06
2.19129e-06
2.11537e-06
2.03636e-06
1.95339e-06
1.86588e-06
1.77378e-06
1.6801e-06
1.58472e-06
2.65614e-06
3.15985e-06
3.6331e-06
3.77826e-06
3.76917e-06
3.70816e-06
3.58764e-06
3.43576e-06
3.28544e-06
3.14507e-06
3.01517e-06
2.89647e-06
2.78841e-06
2.68949e-06
2.59831e-06
2.51369e-06
2.43459e-06
2.36007e-06
2.28931e-06
2.22158e-06
2.1562e-06
2.09256e-06
2.03005e-06
1.96811e-06
1.9062e-06
1.84377e-06
1.78037e-06
1.71561e-06
1.64945e-06
1.58249e-06
1.51628e-06
1.45495e-06
1.40103e-06
2.19483e-06
2.63015e-06
3.06398e-06
3.23308e-06
3.25839e-06
3.22685e-06
3.13904e-06
3.01707e-06
2.88968e-06
2.76676e-06
2.65026e-06
2.54181e-06
2.44192e-06
2.34994e-06
2.26505e-06
2.18642e-06
2.11325e-06
2.04476e-06
1.98025e-06
1.91905e-06
1.86056e-06
1.80424e-06
1.74961e-06
1.69622e-06
1.64372e-06
1.59183e-06
1.54045e-06
1.48978e-06
1.44046e-06
1.39386e-06
1.35248e-06
1.3207e-06
1.30201e-06
1.82335e-06
2.20763e-06
2.6122e-06
2.80003e-06
2.85507e-06
2.8496e-06
2.78922e-06
2.69207e-06
2.58339e-06
2.47442e-06
2.36874e-06
2.26885e-06
2.17601e-06
2.09019e-06
2.01092e-06
1.93764e-06
1.86973e-06
1.80654e-06
1.74749e-06
1.69202e-06
1.63965e-06
1.58996e-06
1.54257e-06
1.49723e-06
1.45377e-06
1.41219e-06
1.37275e-06
1.33602e-06
1.30312e-06
1.27581e-06
1.25685e-06
1.24997e-06
1.25836e-06
1.51821e-06
1.86596e-06
2.24967e-06
2.45285e-06
2.53269e-06
2.54894e-06
2.51082e-06
2.43462e-06
2.34265e-06
2.24665e-06
2.15124e-06
2.05944e-06
1.97304e-06
1.89254e-06
1.8179e-06
1.74887e-06
1.68505e-06
1.62602e-06
1.57132e-06
1.52055e-06
1.47334e-06
1.42937e-06
1.38841e-06
1.35034e-06
1.31519e-06
1.28317e-06
1.25473e-06
1.2307e-06
1.21235e-06
1.20142e-06
1.20038e-06
1.2119e-06
1.23852e-06
1.26274e-06
1.5863e-06
1.95596e-06
2.17221e-06
2.27325e-06
2.30866e-06
2.28988e-06
2.23198e-06
2.15476e-06
2.07e-06
1.98322e-06
1.89803e-06
1.81676e-06
1.74047e-06
1.66948e-06
1.60383e-06
1.54335e-06
1.48777e-06
1.43679e-06
1.39011e-06
1.34746e-06
1.30866e-06
1.27357e-06
1.24222e-06
1.21473e-06
1.19144e-06
1.17293e-06
1.16003e-06
1.15396e-06
1.15615e-06
1.16856e-06
1.19283e-06
1.23093e-06
1.04488e-06
1.35511e-06
1.71659e-06
1.94444e-06
2.06384e-06
2.11615e-06
2.11397e-06
2.07173e-06
2.00732e-06
1.93245e-06
1.85333e-06
1.77406e-06
1.69738e-06
1.62474e-06
1.55681e-06
1.4939e-06
1.43604e-06
1.38316e-06
1.33508e-06
1.29164e-06
1.25269e-06
1.21814e-06
1.18796e-06
1.16223e-06
1.14115e-06
1.12511e-06
1.11464e-06
1.11049e-06
1.11366e-06
1.12519e-06
1.14651e-06
1.17842e-06
1.22252e-06
8.55831e-07
1.16283e-06
1.52122e-06
1.75965e-06
1.89506e-06
1.96246e-06
1.97493e-06
1.94647e-06
1.89349e-06
1.82745e-06
1.75504e-06
1.68079e-06
1.60781e-06
1.53794e-06
1.47221e-06
1.41118e-06
1.35512e-06
1.3041e-06
1.25811e-06
1.2171e-06
1.18102e-06
1.14984e-06
1.1236e-06
1.10241e-06
1.08649e-06
1.07617e-06
1.0719e-06
1.07427e-06
1.084e-06
1.10177e-06
1.12855e-06
1.16459e-06
1.21123e-06
6.89346e-07
1.00303e-06
1.36266e-06
1.61086e-06
1.76034e-06
1.84123e-06
1.86667e-06
1.85028e-06
1.80733e-06
1.749e-06
1.68236e-06
1.61231e-06
1.5423e-06
1.4745e-06
1.41025e-06
1.35034e-06
1.29525e-06
1.24523e-06
1.20038e-06
1.16076e-06
1.12641e-06
1.09736e-06
1.07368e-06
1.05549e-06
1.04299e-06
1.03643e-06
1.03615e-06
1.04254e-06
1.05607e-06
1.07715e-06
1.10638e-06
1.14363e-06
1.1901e-06
5.41501e-07
8.72034e-07
1.23616e-06
1.4933e-06
1.65506e-06
1.748e-06
1.78497e-06
1.77924e-06
1.74517e-06
1.69367e-06
1.63205e-06
1.56552e-06
1.49781e-06
1.4314e-06
1.36792e-06
1.30838e-06
1.25345e-06
1.20353e-06
1.15887e-06
1.11962e-06
1.08588e-06
1.05773e-06
1.03528e-06
1.01864e-06
1.00795e-06
1.00338e-06
1.00517e-06
1.01352e-06
1.02873e-06
1.05096e-06
1.08058e-06
1.11724e-06
1.16204e-06
4.11524e-07
7.68777e-07
1.139e-06
1.40393e-06
1.57626e-06
1.67982e-06
1.72699e-06
1.7306e-06
1.70425e-06
1.65857e-06
1.60102e-06
1.53708e-06
1.47074e-06
1.40475e-06
1.34098e-06
1.2807e-06
1.22473e-06
1.17363e-06
1.12777e-06
1.0874e-06
1.05269e-06
1.02378e-06
1.00078e-06
9.83797e-07
9.72942e-07
9.68329e-07
9.7008e-07
9.78302e-07
9.93123e-07
1.01455e-06
1.0428e-06
1.07732e-06
1.11919e-06
3.05158e-07
6.94732e-07
1.07005e-06
1.34111e-06
1.52225e-06
1.63507e-06
1.69123e-06
1.70305e-06
1.68351e-06
1.64295e-06
1.58894e-06
1.52714e-06
1.46176e-06
1.39579e-06
1.33129e-06
1.2697e-06
1.21203e-06
1.15896e-06
1.11095e-06
1.06834e-06
1.03138e-06
1.00026e-06
9.75107e-07
9.56062e-07
9.43223e-07
9.36678e-07
9.36499e-07
9.42725e-07
9.55396e-07
9.74441e-07
9.99949e-07
1.03136e-06
1.06967e-06
2.43062e-07
6.53324e-07
1.02944e-06
1.30432e-06
1.49237e-06
1.61295e-06
1.67672e-06
1.6954e-06
1.68133e-06
1.6446e-06
1.59279e-06
1.53174e-06
1.46586e-06
1.39835e-06
1.33151e-06
1.26695e-06
1.20583e-06
1.14896e-06
1.09693e-06
1.05016e-06
1.00895e-06
9.73559e-07
9.4418e-07
9.20972e-07
9.0407e-07
8.93573e-07
8.89554e-07
8.92036e-07
9.01021e-07
9.16393e-07
9.38159e-07
9.65682e-07
9.99938e-07
2.56904e-07
6.48384e-07
1.01816e-06
1.29402e-06
1.48712e-06
1.61421e-06
1.68473e-06
1.70965e-06
1.70078e-06
1.66789e-06
1.61853e-06
1.5586e-06
1.49262e-06
1.42393e-06
1.35496e-06
1.28744e-06
1.22266e-06
1.1615e-06
1.10465e-06
1.0526e-06
1.00573e-06
9.64357e-07
9.28764e-07
8.99188e-07
8.75847e-07
8.5893e-07
8.48593e-07
8.44938e-07
8.48023e-07
8.57783e-07
8.74231e-07
8.96808e-07
9.26407e-07
3.41655e-07
6.82051e-07
1.03767e-06
1.31134e-06
1.50727e-06
1.63897e-06
1.71424e-06
1.74319e-06
1.73707e-06
1.70541e-06
1.65579e-06
1.59424e-06
1.52547e-06
1.45301e-06
1.37943e-06
1.30663e-06
1.23597e-06
1.16844e-06
1.10475e-06
1.04544e-06
9.90934e-07
9.41599e-07
8.97766e-07
8.59765e-07
8.27924e-07
8.02573e-07
7.84026e-07
7.7255e-07
7.68348e-07
7.71469e-07
7.81964e-07
7.99248e-07
8.24202e-07
4.67591e-07
7.53706e-07
1.08953e-06
1.35849e-06
1.55608e-06
1.69227e-06
1.77304e-06
1.80745e-06
1.8061e-06
1.77807e-06
1.73069e-06
1.66993e-06
1.60049e-06
1.52597e-06
1.44904e-06
1.37171e-06
1.29543e-06
1.22129e-06
1.15005e-06
1.08233e-06
1.01859e-06
9.59244e-07
9.04671e-07
8.55282e-07
8.11527e-07
7.73912e-07
7.4299e-07
7.19332e-07
7.03484e-07
6.95863e-07
6.96798e-07
7.06048e-07
7.24398e-07
6.20619e-07
8.62113e-07
1.17602e-06
1.43772e-06
1.63391e-06
1.77068e-06
1.85197e-06
1.886e-06
1.88314e-06
1.85251e-06
1.80157e-06
1.73645e-06
1.662e-06
1.58189e-06
1.49886e-06
1.41492e-06
1.3315e-06
1.24964e-06
1.17006e-06
1.09331e-06
1.01977e-06
9.49811e-07
8.8376e-07
8.22018e-07
7.65074e-07
7.13562e-07
6.68282e-07
6.302e-07
6.00405e-07
5.79955e-07
5.69802e-07
5.70119e-07
5.81989e-07
7.9834e-07
1.00565e-06
1.299e-06
1.55429e-06
1.75208e-06
1.89501e-06
1.98432e-06
2.02644e-06
2.03056e-06
2.00503e-06
1.95695e-06
1.89236e-06
1.81625e-06
1.73253e-06
1.64418e-06
1.55349e-06
1.46209e-06
1.3712e-06
1.28164e-06
1.19401e-06
1.10871e-06
1.02603e-06
9.46237e-07
8.69594e-07
7.96447e-07
7.27286e-07
6.6282e-07
6.04071e-07
5.52447e-07
5.0979e-07
4.78251e-07
4.59864e-07
4.56663e-07
1.00572e-06
1.18989e-06
1.46579e-06
1.71061e-06
1.90023e-06
2.03517e-06
2.11593e-06
2.14943e-06
2.14563e-06
2.11323e-06
2.0593e-06
1.98968e-06
1.90905e-06
1.821e-06
1.72823e-06
1.63277e-06
1.53609e-06
1.43926e-06
1.34301e-06
1.24785e-06
1.1541e-06
1.06197e-06
9.71577e-07
8.83029e-07
7.96439e-07
7.11987e-07
6.29991e-07
5.51008e-07
4.7601e-07
4.06677e-07
3.45892e-07
2.98253e-07
2.70875e-07
1.24695e-06
1.41142e-06
1.67591e-06
1.92344e-06
2.12748e-06
2.28294e-06
2.38402e-06
2.43374e-06
2.44059e-06
2.41312e-06
2.359e-06
2.28507e-06
2.19706e-06
2.0995e-06
1.99584e-06
1.88866e-06
1.77981e-06
1.67059e-06
1.56187e-06
1.45421e-06
1.34793e-06
1.2432e-06
1.14006e-06
1.03849e-06
9.38459e-07
8.39892e-07
7.42752e-07
6.47042e-07
5.52823e-07
4.60343e-07
3.69932e-07
2.83105e-07
2.00987e-07
1.54281e-06
1.70457e-06
1.95735e-06
2.1794e-06
2.35007e-06
2.47276e-06
2.54716e-06
2.579e-06
2.57673e-06
2.54699e-06
2.49495e-06
2.4253e-06
2.34216e-06
2.24896e-06
2.14855e-06
2.04323e-06
1.93484e-06
1.82481e-06
1.71419e-06
1.60376e-06
1.49403e-06
1.38536e-06
1.27797e-06
1.17197e-06
1.06742e-06
9.64377e-07
8.62878e-07
7.63013e-07
6.64939e-07
5.6896e-07
4.755e-07
3.85967e-07
3.00513e-07
1.88527e-06
2.02512e-06
2.29367e-06
2.57044e-06
2.81215e-06
2.99723e-06
3.11141e-06
3.15957e-06
3.15548e-06
3.11176e-06
3.03878e-06
2.94515e-06
2.83758e-06
2.72094e-06
2.59872e-06
2.47339e-06
2.34667e-06
2.21977e-06
2.0935e-06
1.96843e-06
1.84491e-06
1.72321e-06
1.6035e-06
1.4859e-06
1.37053e-06
1.2575e-06
1.147e-06
1.03927e-06
9.34675e-07
8.33783e-07
7.3718e-07
6.46598e-07
5.61053e-07
2.3693e-06
2.54158e-06
2.75592e-06
2.90883e-06
3.03007e-06
3.14045e-06
3.22904e-06
3.2877e-06
3.31466e-06
3.30942e-06
3.27358e-06
3.21119e-06
3.12722e-06
3.02652e-06
2.91344e-06
2.79175e-06
2.66451e-06
2.53411e-06
2.4024e-06
2.27073e-06
2.14013e-06
2.01133e-06
1.88486e-06
1.76113e-06
1.64049e-06
1.52325e-06
1.40977e-06
1.30049e-06
1.19597e-06
1.09699e-06
1.00441e-06
9.20074e-07
8.4313e-07
2.849e-06
2.97962e-06
3.39097e-06
3.81773e-06
4.13861e-06
4.33351e-06
4.41215e-06
4.40582e-06
4.34459e-06
4.2468e-06
4.12375e-06
3.98347e-06
3.83154e-06
3.6718e-06
3.50723e-06
3.34029e-06
3.17303e-06
3.00713e-06
2.84398e-06
2.68465e-06
2.52997e-06
2.38054e-06
2.23677e-06
2.09896e-06
1.96731e-06
1.84198e-06
1.72312e-06
1.61096e-06
1.50573e-06
1.40789e-06
1.31775e-06
1.23679e-06
1.16292e-06
3.89342e-06
4.01539e-06
3.94777e-06
3.88972e-06
4.00648e-06
4.22711e-06
4.42842e-06
4.56104e-06
4.62184e-06
4.6208e-06
4.57451e-06
4.50114e-06
4.41539e-06
4.32735e-06
4.24326e-06
4.16624e-06
4.09718e-06
4.03561e-06
3.98035e-06
3.92996e-06
3.88303e-06
3.8383e-06
3.79473e-06
3.75149e-06
3.70795e-06
3.66363e-06
3.61821e-06
3.57147e-06
3.52332e-06
3.47393e-06
3.42349e-06
3.37395e-06
3.32285e-06
4.35857e-06
4.95493e-06
5.95022e-06
6.44291e-06
6.56298e-06
6.54017e-06
6.52873e-06
6.6339e-06
6.88592e-06
7.25338e-06
7.68676e-06
8.14148e-06
8.58345e-06
8.98974e-06
9.34713e-06
9.64949e-06
9.89544e-06
1.00866e-05
1.02265e-05
1.03195e-05
1.03703e-05
1.03838e-05
1.03645e-05
1.03168e-05
1.02444e-05
1.01505e-05
1.00381e-05
9.90938e-06
9.76641e-06
9.61056e-06
9.44368e-06
9.26854e-06
9.08529e-06
7.55401e-06
5.83125e-06
4.64804e-06
6.24248e-06
8.96976e-06
1.16757e-05
1.40035e-05
1.58924e-05
1.73416e-05
1.83656e-05
1.90013e-05
1.92968e-05
1.93018e-05
1.90657e-05
1.86358e-05
1.80548e-05
1.73605e-05
1.65852e-05
1.57561e-05
1.48953e-05
1.40209e-05
1.31467e-05
1.22837e-05
1.14399e-05
1.0621e-05
9.83093e-06
9.0719e-06
8.34443e-06
7.64848e-06
6.98069e-06
6.34176e-06
5.72044e-06
5.12568e-06
8.58445e-06
1.47335e-05
1.88334e-05
2.12317e-05
2.23153e-05
2.18377e-05
1.99756e-05
1.71826e-05
1.39291e-05
1.08415e-05
8.93528e-06
9.29246e-06
1.16509e-05
1.49101e-05
1.83859e-05
2.17773e-05
2.49531e-05
2.78567e-05
3.04681e-05
3.27865e-05
3.48217e-05
3.65895e-05
3.81082e-05
3.93976e-05
4.04775e-05
4.13671e-05
4.20849e-05
4.26495e-05
4.30786e-05
4.33948e-05
4.36143e-05
4.37962e-05
4.3931e-05
3.46441e-05
3.72253e-05
4.66672e-05
6.17946e-05
7.75022e-05
9.29002e-05
0.000107287
0.000119956
0.000130718
0.000139617
0.000146765
0.000152325
0.000156484
0.000159428
0.000161331
0.000162352
0.000162634
0.000162301
0.000161458
0.000160198
0.000158598
0.000156724
0.000154631
0.000152366
0.000149965
0.000147461
0.00014488
0.000142239
0.000139557
0.00013684
0.00013409
0.000131397
0.00012877
0.000608447
0.000582502
0.000556869
0.000530391
0.000504369
0.000479121
0.000454688
0.000431343
0.000409266
0.000388516
0.000369109
0.00035103
0.000334232
0.000318647
0.000304197
0.000290798
0.000278366
0.000266816
0.000256071
0.000246056
0.000236703
0.000227947
0.000219733
0.000212008
0.000204727
0.000197847
0.000191329
0.000185138
0.000179233
0.000173594
0.000168089
0.000163256
0.000158871
9.04423e-05
9.35251e-05
9.92908e-05
9.43095e-05
8.47301e-05
7.19085e-05
5.92552e-05
4.97407e-05
4.42535e-05
4.11633e-05
3.86194e-05
3.57902e-05
3.25813e-05
2.91151e-05
2.52122e-05
1.96465e-05
9.76123e-06
1.4893e-05
3.60399e-05
4.53233e-05
3.46843e-05
1.41449e-05
1.83188e-05
2.81216e-05
2.891e-05
2.57004e-05
2.26878e-05
2.06537e-05
1.90511e-05
1.75422e-05
1.60834e-05
1.47013e-05
1.34056e-05
1.21954e-05
1.10717e-05
1.00363e-05
9.08619e-06
8.21095e-06
7.39658e-06
6.63421e-06
5.92776e-06
5.29279e-06
4.74572e-06
4.29101e-06
3.91599e-06
3.59656e-06
3.30848e-06
3.03631e-06
2.7756e-06
2.52936e-06
2.30251e-06
2.09766e-06
1.91359e-06
1.74614e-06
1.59027e-06
1.44212e-06
1.30014e-06
1.16499e-06
1.0386e-06
9.22888e-07
8.18913e-07
7.2663e-07
6.45194e-07
5.73429e-07
5.10178e-07
4.54457e-07
4.05451e-07
3.62459e-07
3.24872e-07
2.92108e-07
2.63637e-07
2.38998e-07
2.1771e-07
1.99359e-07
1.83495e-07
1.69856e-07
1.58105e-07
1.48033e-07
1.39462e-07
1.32248e-07
1.26276e-07
1.21434e-07
1.17605e-07
1.14662e-07
1.12466e-07
1.10877e-07
1.09773e-07
1.09041e-07
1.08629e-07
1.08433e-07
1.08513e-07
1.08611e-07
1.09153e-07
1.09152e-07
1.10589e-07
1.09404e-07
1.13825e-07
1.07362e-07
1.2189e-07
1.05419e-07
0.000116274
0.000112674
0.000113579
0.000115266
0.000115418
0.000111053
0.000100948
8.62435e-05
7.01152e-05
5.56562e-05
4.43202e-05
3.58391e-05
2.9155e-05
2.32388e-05
1.93741e-05
2.28849e-05
3.57855e-05
4.92083e-05
5.10207e-05
3.61923e-05
1.31168e-05
1.70488e-05
2.82244e-05
2.98922e-05
2.69512e-05
2.38259e-05
2.16833e-05
2.00876e-05
1.86314e-05
1.72104e-05
1.58377e-05
1.45288e-05
1.32892e-05
1.21231e-05
1.10353e-05
1.00287e-05
9.10069e-06
8.24192e-06
7.43926e-06
6.68445e-06
5.98188e-06
5.34799e-06
4.80054e-06
4.34534e-06
3.9703e-06
3.65098e-06
3.36236e-06
3.08838e-06
2.82451e-06
2.57417e-06
2.34288e-06
2.13381e-06
1.94611e-06
1.77574e-06
1.6176e-06
1.46759e-06
1.3239e-06
1.18699e-06
1.05873e-06
9.4109e-07
8.3523e-07
7.41187e-07
6.58155e-07
5.84953e-07
5.20407e-07
4.63528e-07
4.13499e-07
3.69615e-07
3.31243e-07
2.97782e-07
2.68673e-07
2.43429e-07
2.21591e-07
2.02776e-07
1.86576e-07
1.72715e-07
1.60852e-07
1.50743e-07
1.4215e-07
1.34882e-07
1.28765e-07
1.23649e-07
1.19409e-07
1.15928e-07
1.13106e-07
1.10838e-07
1.09033e-07
1.07601e-07
1.06503e-07
1.05646e-07
1.05089e-07
1.04588e-07
1.04583e-07
1.0409e-07
1.05103e-07
1.03425e-07
1.07551e-07
1.00147e-07
1.14841e-07
9.65014e-08
0.000102313
0.000102847
0.000104375
0.00010628
0.000108669
0.000110977
0.000111795
0.000109045
0.000101745
9.097e-05
7.90511e-05
6.82857e-05
6.01803e-05
5.61653e-05
5.70006e-05
6.02332e-05
6.05468e-05
5.18691e-05
3.24176e-05
9.39668e-06
1.76566e-05
2.88043e-05
3.07427e-05
2.7995e-05
2.47867e-05
2.25409e-05
2.09593e-05
1.95783e-05
1.82253e-05
1.6893e-05
1.5601e-05
1.43601e-05
1.31766e-05
1.20567e-05
1.10061e-05
1.00283e-05
9.12222e-06
8.2796e-06
7.4884e-06
6.74088e-06
6.04188e-06
5.40869e-06
4.86051e-06
4.40454e-06
4.02938e-06
3.71021e-06
3.42112e-06
3.14532e-06
2.87813e-06
2.62338e-06
2.38724e-06
2.17347e-06
1.98164e-06
1.80787e-06
1.64701e-06
1.49474e-06
1.34898e-06
1.21e-06
1.0796e-06
9.59804e-07
8.51871e-07
7.5594e-07
6.71247e-07
5.96606e-07
5.30818e-07
4.72854e-07
4.21873e-07
3.77158e-07
3.3807e-07
3.04013e-07
2.74427e-07
2.48819e-07
2.26716e-07
2.07717e-07
1.91429e-07
1.77503e-07
1.6566e-07
1.55627e-07
1.47164e-07
1.40063e-07
1.34127e-07
1.29188e-07
1.25101e-07
1.21731e-07
1.18972e-07
1.16725e-07
1.1492e-07
1.1348e-07
1.12371e-07
1.11503e-07
1.10933e-07
1.10416e-07
1.1038e-07
1.09855e-07
1.10813e-07
1.09098e-07
1.13144e-07
1.0565e-07
1.2031e-07
1.01652e-07
7.0726e-05
7.19273e-05
7.409e-05
7.70903e-05
8.05356e-05
8.4114e-05
8.76983e-05
9.08108e-05
9.24836e-05
9.18151e-05
8.87257e-05
8.40209e-05
7.8844e-05
7.37696e-05
6.72799e-05
5.7094e-05
4.11642e-05
1.99384e-05
5.41694e-06
2.1724e-05
3.05754e-05
3.15148e-05
2.85884e-05
2.53783e-05
2.3156e-05
2.16413e-05
2.03496e-05
1.90787e-05
1.78113e-05
1.65669e-05
1.53556e-05
1.41833e-05
1.30569e-05
1.19839e-05
1.0971e-05
1.00228e-05
9.13928e-06
8.31365e-06
7.53465e-06
6.79503e-06
6.10003e-06
5.46781e-06
4.91906e-06
4.46255e-06
4.08764e-06
3.76918e-06
3.48023e-06
3.20315e-06
2.93303e-06
2.67405e-06
2.43309e-06
2.21458e-06
2.01852e-06
1.84126e-06
1.67759e-06
1.523e-06
1.37514e-06
1.23408e-06
1.10151e-06
9.795e-07
8.69417e-07
7.71492e-07
6.8501e-07
6.08785e-07
5.41592e-07
4.8237e-07
4.30253e-07
3.84506e-07
3.44479e-07
3.09565e-07
2.79206e-07
2.52904e-07
2.30194e-07
2.10668e-07
1.93932e-07
1.79652e-07
1.67534e-07
1.57288e-07
1.4867e-07
1.41455e-07
1.35446e-07
1.30465e-07
1.26358e-07
1.2299e-07
1.20245e-07
1.18024e-07
1.16248e-07
1.1484e-07
1.13762e-07
1.12916e-07
1.12366e-07
1.1186e-07
1.1184e-07
1.11302e-07
1.12275e-07
1.10504e-07
1.14605e-07
1.06922e-07
1.218e-07
1.02756e-07
2.31971e-05
2.46126e-05
2.68087e-05
2.96825e-05
3.30587e-05
3.68249e-05
4.08376e-05
4.48364e-05
4.8426e-05
5.10366e-05
5.20244e-05
5.0838e-05
4.71242e-05
3.999e-05
2.90448e-05
1.45884e-05
2.23323e-06
1.73715e-05
2.80913e-05
3.23697e-05
3.14684e-05
2.83709e-05
2.54781e-05
2.35162e-05
2.21451e-05
2.09439e-05
1.97524e-05
1.85639e-05
1.73923e-05
1.62395e-05
1.51067e-05
1.40007e-05
1.29304e-05
1.19041e-05
1.09292e-05
1.00111e-05
9.15098e-06
8.34307e-06
7.57699e-06
6.84591e-06
6.15547e-06
5.52468e-06
4.97577e-06
4.51909e-06
4.14487e-06
3.82765e-06
3.53943e-06
3.26157e-06
2.98886e-06
2.72585e-06
2.48009e-06
2.25674e-06
2.0563e-06
1.87534e-06
1.70867e-06
1.55159e-06
1.40149e-06
1.25824e-06
1.12342e-06
9.99132e-07
8.86846e-07
7.86891e-07
6.98604e-07
6.20804e-07
5.52236e-07
4.91812e-07
4.38641e-07
3.91975e-07
3.51149e-07
3.15549e-07
2.84607e-07
2.57818e-07
2.34711e-07
2.14869e-07
1.97902e-07
1.83461e-07
1.71225e-07
1.60915e-07
1.52269e-07
1.45061e-07
1.39083e-07
1.34153e-07
1.3011e-07
1.26813e-07
1.24143e-07
1.21999e-07
1.203e-07
1.18964e-07
1.17956e-07
1.17174e-07
1.16686e-07
1.16229e-07
1.16264e-07
1.15757e-07
1.16787e-07
1.15002e-07
1.19196e-07
1.11367e-07
1.26589e-07
1.07239e-07
6.48722e-06
5.72633e-06
4.47343e-06
2.92476e-06
2.49832e-06
4.44508e-06
7.17231e-06
9.83266e-06
1.19897e-05
1.33249e-05
1.36423e-05
1.29515e-05
1.18618e-05
1.25751e-05
1.6802e-05
2.30459e-05
2.87257e-05
3.18908e-05
3.19691e-05
2.98943e-05
2.72457e-05
2.51017e-05
2.36086e-05
2.24384e-05
2.13314e-05
2.02223e-05
1.91259e-05
1.80478e-05
1.69782e-05
1.59119e-05
1.48534e-05
1.38121e-05
1.27975e-05
1.18179e-05
1.08812e-05
9.99378e-06
9.15769e-06
8.36823e-06
7.61576e-06
6.89384e-06
6.20847e-06
5.57953e-06
5.03075e-06
4.57419e-06
4.20104e-06
3.88558e-06
3.59867e-06
3.32058e-06
3.04567e-06
2.77882e-06
2.52831e-06
2.30006e-06
2.0951e-06
1.9103e-06
1.74047e-06
1.58078e-06
1.42837e-06
1.28287e-06
1.14576e-06
1.01916e-06
9.04624e-07
8.02583e-07
7.12431e-07
6.32987e-07
5.6297e-07
5.0126e-07
4.4694e-07
3.99246e-07
3.57503e-07
3.21085e-07
2.89421e-07
2.62e-07
2.38345e-07
2.18038e-07
2.00681e-07
1.85921e-07
1.73441e-07
1.62951e-07
1.54178e-07
1.46887e-07
1.40861e-07
1.35908e-07
1.31862e-07
1.28575e-07
1.25926e-07
1.23805e-07
1.22132e-07
1.20822e-07
1.19838e-07
1.19077e-07
1.18611e-07
1.18167e-07
1.18224e-07
1.17709e-07
1.18768e-07
1.1692e-07
1.21199e-07
1.13139e-07
1.28698e-07
1.0887e-07
7.95725e-06
7.53946e-06
6.91073e-06
6.31937e-06
6.32102e-06
7.38105e-06
9.42481e-06
1.20501e-05
1.48539e-05
1.75476e-05
1.99921e-05
2.22406e-05
2.44549e-05
2.66283e-05
2.84429e-05
2.94964e-05
2.94852e-05
2.84933e-05
2.69921e-05
2.55352e-05
2.43689e-05
2.33992e-05
2.24535e-05
2.14672e-05
2.04668e-05
1.9483e-05
1.85149e-05
1.75468e-05
1.6569e-05
1.5583e-05
1.45964e-05
1.36186e-05
1.26588e-05
1.17255e-05
1.08273e-05
9.97097e-06
9.15957e-06
8.38922e-06
7.65096e-06
6.93876e-06
6.25899e-06
5.63233e-06
5.08404e-06
4.62793e-06
4.25623e-06
3.94302e-06
3.658e-06
3.38022e-06
3.10352e-06
2.83305e-06
2.57786e-06
2.34464e-06
2.13503e-06
1.9462e-06
1.77302e-06
1.61054e-06
1.45567e-06
1.30781e-06
1.16832e-06
1.03933e-06
9.2247e-07
8.18277e-07
7.26204e-07
6.45079e-07
5.73596e-07
5.106e-07
4.5515e-07
4.06465e-07
3.63857e-07
3.26692e-07
2.94392e-07
2.66437e-07
2.42348e-07
2.21698e-07
2.04086e-07
1.89152e-07
1.76566e-07
1.66019e-07
1.57237e-07
1.49967e-07
1.43991e-07
1.39108e-07
1.35142e-07
1.31942e-07
1.2938e-07
1.27345e-07
1.25754e-07
1.24521e-07
1.2361e-07
1.22914e-07
1.22511e-07
1.2212e-07
1.22232e-07
1.21747e-07
1.22866e-07
1.20998e-07
1.2538e-07
1.17146e-07
1.33085e-07
1.12877e-07
4.28847e-06
3.95001e-06
3.5358e-06
3.33039e-06
3.82028e-06
5.1556e-06
7.12021e-06
9.50445e-06
1.21394e-05
1.48445e-05
1.74236e-05
1.97099e-05
2.15826e-05
2.29929e-05
2.38872e-05
2.42944e-05
2.43144e-05
2.4107e-05
2.37905e-05
2.33723e-05
2.28091e-05
2.20982e-05
2.12928e-05
2.0455e-05
1.96163e-05
1.87768e-05
1.79252e-05
1.70536e-05
1.61612e-05
1.52528e-05
1.43363e-05
1.34205e-05
1.25146e-05
1.16275e-05
1.07678e-05
9.94307e-06
9.15692e-06
8.40624e-06
7.68275e-06
6.98083e-06
6.30716e-06
5.68323e-06
5.13577e-06
4.6804e-06
4.3105e-06
4.00001e-06
3.71742e-06
3.4405e-06
3.16242e-06
2.88857e-06
2.62876e-06
2.39052e-06
2.17613e-06
1.98309e-06
1.80638e-06
1.64093e-06
1.48347e-06
1.33315e-06
1.19122e-06
1.05977e-06
9.40533e-07
8.34133e-07
7.40087e-07
6.57232e-07
5.84235e-07
5.19906e-07
4.63275e-07
4.13543e-07
3.70008e-07
3.3203e-07
2.9902e-07
2.70453e-07
2.45845e-07
2.24764e-07
2.06806e-07
1.91601e-07
1.78813e-07
1.68129e-07
1.59269e-07
1.51964e-07
1.45986e-07
1.41125e-07
1.372e-07
1.34052e-07
1.31547e-07
1.29571e-07
1.28038e-07
1.26859e-07
1.25999e-07
1.25347e-07
1.24986e-07
1.24626e-07
1.24776e-07
1.24299e-07
1.2546e-07
1.23542e-07
1.28023e-07
1.19563e-07
1.35876e-07
1.15164e-07
2.86852e-06
2.63775e-06
2.45271e-06
2.59141e-06
3.32052e-06
4.58711e-06
6.21904e-06
8.09168e-06
1.0113e-05
1.21951e-05
1.42442e-05
1.61495e-05
1.78186e-05
1.9199e-05
2.02875e-05
2.1103e-05
2.16537e-05
2.19351e-05
2.19479e-05
2.17204e-05
2.13077e-05
2.0772e-05
2.01623e-05
1.95072e-05
1.88184e-05
1.80988e-05
1.7348e-05
1.65663e-05
1.57561e-05
1.49227e-05
1.40739e-05
1.32185e-05
1.23657e-05
1.15243e-05
1.07033e-05
9.91047e-06
9.15001e-06
8.41951e-06
7.71132e-06
7.02017e-06
6.3531e-06
5.73234e-06
5.18608e-06
4.73174e-06
4.36396e-06
4.05662e-06
3.777e-06
3.50146e-06
3.22243e-06
2.94546e-06
2.68112e-06
2.43782e-06
2.2185e-06
2.02106e-06
1.84061e-06
1.67201e-06
1.51178e-06
1.35888e-06
1.2144e-06
1.08041e-06
9.58714e-07
8.50032e-07
7.5395e-07
6.69316e-07
5.94769e-07
5.29084e-07
4.71261e-07
4.20481e-07
3.76032e-07
3.37264e-07
3.03583e-07
2.74455e-07
2.49392e-07
2.27955e-07
2.09735e-07
1.94355e-07
1.81468e-07
1.7075e-07
1.619e-07
1.54651e-07
1.48755e-07
1.43994e-07
1.40179e-07
1.37143e-07
1.34751e-07
1.32883e-07
1.31452e-07
1.30367e-07
1.29593e-07
1.29019e-07
1.28731e-07
1.2843e-07
1.28642e-07
1.28199e-07
1.29423e-07
1.27484e-07
1.3208e-07
1.23429e-07
1.40153e-07
1.18991e-07
2.32825e-06
2.21853e-06
2.23222e-06
2.56051e-06
3.31736e-06
4.44855e-06
5.85066e-06
7.43751e-06
9.13691e-06
1.08829e-05
1.26111e-05
1.42599e-05
1.57786e-05
1.71214e-05
1.82441e-05
1.91159e-05
1.97239e-05
2.00785e-05
2.02082e-05
2.01467e-05
1.99258e-05
1.95778e-05
1.91342e-05
1.862e-05
1.80518e-05
1.74378e-05
1.67817e-05
1.60861e-05
1.53545e-05
1.45931e-05
1.38098e-05
1.30133e-05
1.22127e-05
1.14167e-05
1.06343e-05
9.87362e-06
9.13923e-06
8.42935e-06
7.7369e-06
7.05701e-06
6.39702e-06
5.77987e-06
5.23517e-06
4.78214e-06
4.41677e-06
4.11296e-06
3.83681e-06
3.56317e-06
3.28361e-06
3.00379e-06
2.73502e-06
2.4866e-06
2.26222e-06
2.06019e-06
1.87578e-06
1.70381e-06
1.54064e-06
1.38502e-06
1.23789e-06
1.10128e-06
9.7705e-07
8.66022e-07
7.67846e-07
6.81384e-07
6.05247e-07
5.38167e-07
4.79114e-07
4.27249e-07
3.81846e-07
3.42246e-07
3.0785e-07
2.78115e-07
2.52548e-07
2.30705e-07
2.12171e-07
1.96562e-07
1.83521e-07
1.72715e-07
1.63836e-07
1.56603e-07
1.50755e-07
1.46067e-07
1.42338e-07
1.39397e-07
1.37102e-07
1.35329e-07
1.33989e-07
1.32987e-07
1.32289e-07
1.31781e-07
1.31555e-07
1.31303e-07
1.31568e-07
1.31146e-07
1.32425e-07
1.30446e-07
1.35158e-07
1.26277e-07
1.43415e-07
1.21716e-07
1.99992e-06
2.00836e-06
2.16903e-06
2.5906e-06
3.31997e-06
4.32389e-06
5.54108e-06
6.91288e-06
8.38556e-06
9.90604e-06
1.14233e-05
1.28884e-05
1.42542e-05
1.54731e-05
1.65125e-05
1.73588e-05
1.80066e-05
1.84539e-05
1.87056e-05
1.87767e-05
1.86917e-05
1.84791e-05
1.81655e-05
1.77718e-05
1.73125e-05
1.67963e-05
1.62286e-05
1.56138e-05
1.49569e-05
1.42646e-05
1.35447e-05
1.28057e-05
1.20563e-05
1.13053e-05
1.05614e-05
9.83303e-06
9.12502e-06
8.43614e-06
7.75983e-06
7.09162e-06
6.43916e-06
5.82606e-06
5.28327e-06
4.83184e-06
4.46913e-06
4.16918e-06
3.89695e-06
3.6257e-06
3.34605e-06
3.06364e-06
2.79054e-06
2.53698e-06
2.3074e-06
2.10058e-06
1.91198e-06
1.73641e-06
1.57009e-06
1.41159e-06
1.26169e-06
1.12236e-06
9.95509e-07
8.8206e-07
7.81725e-07
6.93381e-07
6.15611e-07
5.47107e-07
4.86802e-07
4.33837e-07
3.87476e-07
3.47051e-07
3.11957e-07
2.81643e-07
2.55612e-07
2.33413e-07
2.14624e-07
1.98856e-07
1.8574e-07
1.74931e-07
1.66107e-07
1.58969e-07
1.53246e-07
1.48701e-07
1.45123e-07
1.42334e-07
1.40187e-07
1.38554e-07
1.37342e-07
1.36457e-07
1.35865e-07
1.3545e-07
1.3531e-07
1.35128e-07
1.35464e-07
1.35083e-07
1.36433e-07
1.34435e-07
1.39277e-07
1.30189e-07
1.47775e-07
1.25561e-07
1.83101e-06
1.93273e-06
2.17974e-06
2.62932e-06
3.30457e-06
4.18847e-06
5.24427e-06
6.43222e-06
7.71176e-06
9.04075e-06
1.03775e-05
1.16811e-05
1.29139e-05
1.40419e-05
1.50368e-05
1.58765e-05
1.65459e-05
1.70398e-05
1.73636e-05
1.75301e-05
1.75553e-05
1.74572e-05
1.72547e-05
1.6965e-05
1.66016e-05
1.61738e-05
1.5688e-05
1.51495e-05
1.45639e-05
1.3938e-05
1.32795e-05