/*--------------------------------*- C++ -*----------------------------------*\
| =========                 |                                                 |
| \\      /  F ield         | OpenFOAM: The Open Source CFD Toolbox           |
|  \\    /   O peration     | Version:  2.1.1                                 |
|   \\  /    A nd           | Web:      www.OpenFOAM.org                      |
|    \\/     M anipulation  |                                                 |
\*---------------------------------------------------------------------------*/
FoamFile
{
    version     2.0;
    format      ascii;
    class       volScalarField;
    location    "0.03";
    object      p;
}
// * * * * * * * * * * * * * * * * * * * * * * * * * * * * * * * * * * * * * //

dimensions      [0 2 -2 0 0 0 0];

internalField   nonuniform List<scalar> 
6820
(
9.88775
-7.94778
-10.9559
-11.1424
-11.3138
-11.2382
-11.1781
-11.1859
-11.2271
-11.2863
-11.3549
-11.4275
-11.5016
-11.5758
-11.6492
-11.7215
-11.7921
-11.8606
-11.9266
-11.9899
-12.0499
-12.1063
-12.1587
-12.2068
-12.2501
-12.2882
-12.3208
-12.3473
-12.368
-12.3797
-12.3906
-12.3759
-12.4131
3.20663
-7.76653
-10.6446
-10.9441
-11.1955
-11.2159
-11.1924
-11.2114
-11.2543
-11.3106
-11.3753
-11.4444
-11.5155
-11.5874
-11.6591
-11.7302
-11.7999
-11.8678
-11.9335
-11.9966
-12.0565
-12.113
-12.1656
-12.2138
-12.2573
-12.2957
-12.3287
-12.3555
-12.3763
-12.3891
-12.3992
-12.3896
-12.4092
0.492014
-6.33611
-9.62396
-10.3814
-10.8484
-11.0437
-11.099
-11.1508
-11.2132
-11.2819
-11.3553
-11.431
-11.5072
-11.5829
-11.6574
-11.7303
-11.8014
-11.8703
-11.9366
-12.0001
-12.0605
-12.1173
-12.1702
-12.2189
-12.2628
-12.3017
-12.3352
-12.3625
-12.3834
-12.3953
-12.3991
-12.3784
-12.3342
-1.4934
-6.10889
-9.20228
-10.061
-10.5318
-10.8061
-10.9315
-11.0275
-11.121
-11.2104
-11.2969
-11.3816
-11.4645
-11.5455
-11.6246
-11.7014
-11.7759
-11.8478
-11.9169
-11.983
-12.0457
-12.1048
-12.16
-12.2109
-12.2572
-12.2984
-12.3343
-12.3639
-12.3866
-12.3999
-12.4019
-12.3816
-12.3291
-3.12903
-6.20949
-8.81068
-9.7136
-10.2201
-10.5737
-10.7692
-10.9048
-11.0229
-11.129
-11.2273
-11.3211
-11.4111
-11.4975
-11.581
-11.6616
-11.7393
-11.8141
-11.8858
-11.9543
-12.0193
-12.0808
-12.1383
-12.1918
-12.2408
-12.285
-12.324
-12.357
-12.383
-12.3999
-12.4048
-12.3906
-12.3484
-4.35183
-6.39059
-8.56001
-9.50362
-10.0292
-10.4099
-10.6405
-10.7989
-10.9332
-11.0522
-11.1603
-11.2615
-11.3575
-11.4491
-11.5367
-11.6208
-11.7015
-11.779
-11.8531
-11.9239
-11.9912
-12.055
-12.1151
-12.1713
-12.2233
-12.2709
-12.3137
-12.351
-12.382
-12.4049
-12.4177
-12.4165
-12.3985
-5.30272
-6.6772
-8.44288
-9.34922
-9.86249
-10.2514
-10.5122
-10.6962
-10.8486
-10.9812
-11.0993
-11.2079
-11.3097
-11.4059
-11.4973
-11.5846
-11.6682
-11.7483
-11.8249
-11.8981
-11.9679
-12.0341
-12.0968
-12.1558
-12.211
-12.2621
-12.3089
-12.3509
-12.3874
-12.4174
-12.4396
-12.4521
-12.4542
-6.04891
-6.98357
-8.39193
-9.23369
-9.73544
-10.126
-10.4056
-10.607
-10.7715
-10.9138
-11.0398
-11.1547
-11.2616
-11.3622
-11.4575
-11.5482
-11.6348
-11.7176
-11.7968
-11.8724
-11.9447
-12.0135
-12.0788
-12.1408
-12.1992
-12.2541
-12.3052
-12.3523
-12.395
-12.4329
-12.4655
-12.4922
-12.5139
-6.64137
-7.28744
-8.40233
-9.16389
-9.64324
-10.0222
-10.3083
-10.5213
-10.6961
-10.8474
-10.9811
-11.1024
-11.2147
-11.3197
-11.4189
-11.5129
-11.6025
-11.6881
-11.7699
-11.8481
-11.9229
-11.9944
-12.0626
-12.1277
-12.1896
-12.2485
-12.3042
-12.3569
-12.4064
-12.4528
-12.4962
-12.5371
-12.5772
-7.11795
-7.57316
-8.45064
-9.12357
-9.57398
-9.93721
-10.2242
-10.4454
-10.6278
-10.786
-10.9259
-11.0524
-11.1692
-11.2782
-11.3808
-11.478
-11.5705
-11.6588
-11.7431
-11.8239
-11.9013
-11.9755
-12.0466
-12.1148
-12.1803
-12.2432
-12.3038
-12.3621
-12.4185
-12.4733
-12.5273
-12.5814
-12.6381
-7.50555
-7.83306
-8.52304
-9.10892
-9.52697
-9.871
-10.1528
-10.3769
-10.564
-10.7271
-10.8721
-11.0033
-11.1243
-11.2371
-11.3432
-11.4436
-11.5391
-11.6301
-11.7171
-11.8005
-11.8805
-11.9575
-12.0316
-12.1031
-12.1722
-12.2393
-12.3047
-12.3688
-12.432
-12.4951
-12.5592
-12.6256
-12.6965
-7.82383
-8.06479
-8.60867
-9.11305
-9.49627
-9.81896
-10.0918
-10.3157
-10.5055
-10.6723
-10.8213
-10.9565
-11.0812
-11.1975
-11.3068
-11.4101
-11.5083
-11.6019
-11.6915
-11.7775
-11.8601
-11.9398
-12.0168
-12.0915
-12.1642
-12.2354
-12.3054
-12.3749
-12.4446
-12.5153
-12.5883
-12.6652
-12.7483
-8.08712
-8.2684
-8.69939
-9.13066
-9.4788
-9.77955
-10.041
-10.262
-10.4523
-10.621
-10.7729
-10.9113
-11.0392
-11.1586
-11.2708
-11.377
-11.4779
-11.5742
-11.6664
-11.7549
-11.8401
-11.9225
-12.0024
-12.0802
-12.1565
-12.2315
-12.3061
-12.3807
-12.4563
-12.5339
-12.6147
-12.7005
-12.7935
-8.30598
-8.44537
-8.7896
-9.15714
-9.47121
-9.75001
-9.99863
-10.2145
-10.4038
-10.5733
-10.7272
-10.8682
-10.9989
-11.1211
-11.2361
-11.3449
-11.4484
-11.5471
-11.6417
-11.7327
-11.8204
-11.9054
-11.9881
-12.0689
-12.1483
-12.227
-12.3056
-12.3848
-12.4656
-12.5489
-12.6363
-12.729
-12.8294
-8.48824
-8.59768
-8.87534
-9.18857
-9.47064
-9.72823
-9.96346
-10.1729
-10.3598
-10.5292
-10.6842
-10.8271
-10.9601
-11.0847
-11.2021
-11.3134
-11.4193
-11.5205
-11.6175
-11.7108
-11.8009
-11.8884
-11.9736
-12.0572
-12.1397
-12.2217
-12.3038
-12.387
-12.4721
-12.5603
-12.6527
-12.7507
-12.8563
-8.63978
-8.72741
-8.95402
-9.22173
-9.47457
-9.71213
-9.93402
-10.1362
-10.3198
-10.4882
-10.6436
-10.788
-10.9228
-11.0496
-11.1694
-11.2829
-11.3911
-11.4945
-11.5937
-11.6892
-11.7816
-11.8714
-11.959
-12.045
-12.1301
-12.2149
-12.3001
-12.3865
-12.475
-12.5667
-12.6627
-12.7643
-12.873
-8.765
-8.83651
-9.02392
-9.25399
-9.48077
-9.69986
-9.90893
-10.1035
-10.2833
-10.4501
-10.6055
-10.7508
-10.8873
-11.0159
-11.1377
-11.2534
-11.3637
-11.4692
-11.5704
-11.668
-11.7625
-11.8543
-11.944
-12.0322
-12.1195
-12.2066
-12.2942
-12.3831
-12.4741
-12.5682
-12.6664
-12.7698
-12.8798
-8.8672
-8.92665
-9.08392
-9.28326
-9.48729
-9.68972
-9.88685
-10.0739
-10.2496
-10.4146
-10.5696
-10.7155
-10.8532
-10.9835
-11.1072
-11.2248
-11.337
-11.4445
-11.5476
-11.6471
-11.7433
-11.8369
-11.9284
-12.0184
-12.1075
-12.1963
-12.2856
-12.376
-12.4685
-12.5639
-12.663
-12.7667
-12.8763
-8.94886
-8.99921
-9.13332
-9.30783
-9.49242
-9.68016
-9.86651
-10.0465
-10.2181
-10.3811
-10.5356
-10.682
-10.8208
-10.9526
-11.0779
-11.1973
-11.3114
-11.4206
-11.5255
-11.6267
-11.7245
-11.8196
-11.9126
-12.0039
-12.0942
-12.1842
-12.2745
-12.3658
-12.4588
-12.5544
-12.6531
-12.7558
-12.8635
-9.01179
-9.05524
-9.17159
-9.32632
-9.49466
-9.66978
-9.84669
-10.0204
-10.1882
-10.3493
-10.5032
-10.65
-10.7898
-10.9229
-11.0498
-11.1709
-11.2866
-11.3974
-11.5039
-11.6064
-11.7055
-11.8018
-11.8958
-11.988
-12.0791
-12.1696
-12.2602
-12.3515
-12.4441
-12.5387
-12.636
-12.7365
-12.8409
-9.05724
-9.09549
-9.19834
-9.33755
-9.49266
-9.65729
-9.82626
-9.99455
-10.1592
-10.3187
-10.4723
-10.6195
-10.7603
-10.8948
-11.0233
-11.1459
-11.2632
-11.3756
-11.4834
-11.5871
-11.6873
-11.7845
-11.8792
-11.9719
-12.0632
-12.1537
-12.2439
-12.3344
-12.4258
-12.5186
-12.6134
-12.7106
-12.8108
-9.08601
-9.12039
-9.21315
-9.3405
-9.48522
-9.64149
-9.80414
-9.96814
-10.1303
-10.2887
-10.4422
-10.5901
-10.732
-10.8678
-10.9977
-11.1219
-11.2406
-11.3542
-11.4631
-11.5678
-11.6687
-11.7664
-11.8613
-11.954
-12.045
-12.1347
-12.2239
-12.3129
-12.4022
-12.4924
-12.5838
-12.6768
-12.7719
-9.09848
-9.13009
-9.21556
-9.33422
-9.47124
-9.62132
-9.77939
-9.94045
-10.1011
-10.2591
-10.4131
-10.5621
-10.7054
-10.8429
-10.9744
-11.1001
-11.2203
-11.3352
-11.4451
-11.5506
-11.6521
-11.75
-11.8448
-11.9371
-12.0273
-12.1158
-12.2033
-12.2902
-12.3768
-12.4636
-12.5509
-12.639
-12.7282
-9.09465
-9.12439
-9.20495
-9.31774
-9.4496
-9.59565
-9.75092
-9.91042
-10.0706
-10.229
-10.384
-10.5344
-10.6793
-10.8184
-10.9516
-11.0788
-11.2003
-11.3162
-11.4269
-11.5328
-11.6344
-11.7321
-11.8264
-11.9177
-12.0066
-12.0934
-12.1786
-12.2626
-12.3458
-12.4285
-12.5111
-12.5937
-12.6765
-9.07414
-9.10279
-9.18056
-9.29012
-9.41933
-9.56366
-9.71819
-9.8779
-10.0391
-10.1992
-10.3563
-10.5089
-10.6561
-10.7975
-10.9327
-11.0617
-11.1846
-11.3016
-11.4132
-11.5195
-11.6211
-11.7184
-11.8118
-11.9019
-11.989
-12.0736
-12.156
-12.2367
-12.316
-12.3942
-12.4715
-12.5481
-12.6241
-9.03611
-9.06443
-9.14136
-9.25014
-9.37911
-9.5239
-9.67958
-9.84105
-10.0045
-10.1671
-10.3268
-10.4821
-10.6319
-10.7756
-10.9128
-11.0436
-11.1678
-11.2858
-11.3978
-11.5042
-11.6054
-11.7018
-11.794
-11.8823
-11.9671
-12.0489
-12.1281
-12.2049
-12.2798
-12.3529
-12.4245
-12.4948
-12.5638
-8.97931
-9.00805
-9.08616
-9.19681
-9.32834
-9.47642
-9.63598
-9.80174
-9.96968
-10.1368
-10.3009
-10.4603
-10.6138
-10.7608
-10.9008
-11.0337
-11.1596
-11.2787
-11.3913
-11.4977
-11.5984
-11.6939
-11.7845
-11.8707
-11.953
-12.0317
-12.1072
-12.1798
-12.2498
-12.3175
-12.3831
-12.4466
-12.5082
-8.90189
-8.93177
-9.01302
-9.12798
-9.26444
-9.4179
-9.58312
-9.75459
-9.92813
-10.1006
-10.2697
-10.4337
-10.5912
-10.7416
-10.8844
-11.0195
-11.147
-11.2671
-11.38
-11.4862
-11.5862
-11.6802
-11.7689
-11.8526
-11.9319
-12.007
-12.0783
-12.1463
-12.2111
-12.2731
-12.3324
-12.3891
-12.4435
-8.8014
-8.83346
-8.92057
-9.04357
-9.18913
-9.35237
-9.52759
-9.70879
-9.89148
-10.0724
-10.2489
-10.4194
-10.5824
-10.7373
-10.8838
-11.0217
-11.1511
-11.2722
-11.3855
-11.4914
-11.5904
-11.6828
-11.7693
-11.8502
-11.9261
-11.9973
-12.0642
-12.1271
-12.1864
-12.2423
-12.295
-12.3446
-12.3912
-8.67429
-8.70924
-8.80427
-8.9375
-9.09386
-9.26816
-9.45444
-9.64633
-9.83908
-10.0292
-10.2141
-10.3919
-10.5612
-10.7213
-10.8719
-11.0129
-11.1445
-11.2669
-11.3806
-11.486
-11.5838
-11.6743
-11.7583
-11.8361
-11.9082
-11.9751
-12.0372
-12.0949
-12.1484
-12.198
-12.2441
-12.2868
-12.3262
-8.51642
-8.55671
-8.66552
-8.81679
-8.9924
-9.18606
-9.39085
-9.59958
-9.80719
-10.0102
-10.206
-10.3928
-10.5695
-10.7354
-10.8904
-11.0346
-11.1681
-11.2915
-11.4053
-11.51
-11.6061
-11.6944
-11.7754
-11.8496
-11.9176
-11.9798
-12.0367
-12.0886
-12.1359
-12.1789
-12.2178
-12.2529
-12.2842
-8.32036
-8.36539
-8.48822
-8.65679
-8.85018
-9.06247
-9.28626
-9.51338
-9.73812
-9.95667
-10.1662
-10.3647
-10.5511
-10.7248
-10.8859
-11.0344
-11.1708
-11.2958
-11.4099
-11.5139
-11.6085
-11.6943
-11.7721
-11.8425
-11.9061
-11.9633
-12.0148
-12.0608
-12.1019
-12.1383
-12.1704
-12.1986
-12.2229
-8.08095
-8.14064
-8.29628
-8.50296
-8.73223
-8.97703
-9.22931
-9.48051
-9.72536
-9.96058
-10.1837
-10.3933
-10.5884
-10.7689
-10.9349
-11.0868
-11.2252
-11.3508
-11.4645
-11.567
-11.6592
-11.7418
-11.8157
-11.8815
-11.9398
-11.9913
-12.0365
-12.0758
-12.1097
-12.1386
-12.1628
-12.1826
-12.1983
-7.77599
-7.83812
-8.01381
-8.24723
-8.50722
-8.78715
-9.07545
-9.36037
-9.63547
-9.89699
-10.1422
-10.3697
-10.579
-10.7702
-10.9441
-11.1013
-11.2429
-11.3699
-11.4836
-11.5848
-11.6747
-11.7542
-11.8242
-11.8855
-11.9387
-11.9847
-12.0238
-12.0568
-12.0841
-12.1061
-12.1233
-12.1362
-12.1451
-7.41584
-7.53329
-7.79458
-8.09931
-8.41055
-8.73126
-9.05267
-9.36422
-9.66137
-9.94146
-10.2022
-10.4425
-10.6621
-10.8613
-11.0407
-11.2016
-11.3449
-11.472
-11.5841
-11.6826
-11.7685
-11.8431
-11.9073
-11.9622
-12.0084
-12.0467
-12.0779
-12.1024
-12.1209
-12.1338
-12.1416
-12.1447
-12.1437
-6.88777
-6.97906
-7.27806
-7.65065
-8.04287
-8.44731
-8.84343
-9.21739
-9.5655
-9.88582
-10.1772
-10.4403
-10.6762
-10.8868
-11.0738
-11.2391
-11.3846
-11.512
-11.6231
-11.7194
-11.8023
-11.8732
-11.933
-11.983
-12.0239
-12.0565
-12.0816
-12.0997
-12.1113
-12.117
-12.1173
-12.113
-12.1048
-6.39389
-6.71654
-7.18517
-7.60525
-8.01703
-8.44767
-8.86889
-9.26718
-9.64088
-9.98629
-10.3004
-10.5826
-10.8339
-11.0556
-11.2497
-11.4184
-11.5641
-11.6891
-11.7954
-11.8853
-11.9603
-12.0223
-12.0725
-12.1123
-12.1426
-12.1644
-12.1783
-12.185
-12.1849
-12.1784
-12.1657
-12.1477
-12.1247
-5.09233
-5.41449
-6.18847
-6.88949
-7.52776
-8.13641
-8.68336
-9.16837
-9.60172
-9.98721
-10.3282
-10.6288
-10.8929
-11.1238
-11.3244
-11.4977
-11.6463
-11.7726
-11.8789
-11.9675
-12.0402
-12.0988
-12.1449
-12.1797
-12.2045
-12.22
-12.2272
-12.2263
-12.2177
-12.2015
-12.177
-12.1455
-12.1028
-5.08079
-5.82626
-6.43214
-6.90116
-7.5037
-8.1402
-8.734
-9.28761
-9.79475
-10.2449
-10.6369
-10.9744
-11.2613
-11.5026
-11.7035
-11.8689
-12.0038
-12.1123
-12.1983
-12.265
-12.3153
-12.3515
-12.3758
-12.3897
-12.3948
-12.392
-12.3821
-12.3656
-12.3423
-12.3112
-12.2694
-12.2142
-12.131
1.16877
-3.43954
-5.22511
-6.07788
-7.08267
-7.96187
-8.66597
-9.27774
-9.8135
-10.2736
-10.6669
-11.0017
-11.2843
-11.5207
-11.7169
-11.8782
-12.0092
-12.1144
-12.1974
-12.2614
-12.3092
-12.3432
-12.3654
-12.3775
-12.3809
-12.3768
-12.3663
-12.35
-12.3289
-12.3027
-12.274
-12.2379
-12.2055
-12.1853
-12.2032
-11.5739
-10.8
-10.2486
-10.2823
-11.0062
-12.5606
-15.0163
-18.3301
-22.3258
-26.7157
-31.1475
-35.259
-38.7043
-41.2271
-42.6977
-43.0449
-42.2121
-40.2104
-37.1958
-33.4768
-29.4306
-25.368
-21.4647
-17.7963
-14.4041
-11.3254
-8.59127
-6.21656
-4.19637
-2.50978
-1.12598
-0.00929205
0.877074
1.56848
2.09732
2.49235
2.7786
2.97762
3.10774
3.18426
3.21955
3.22327
3.20275
3.16357
3.11003
3.04562
2.97324
2.89532
2.81387
2.73052
2.64652
2.56288
2.48035
2.39949
2.32073
2.24435
2.17053
2.09933
2.03076
1.96472
1.90111
1.83977
1.78054
1.72322
1.66764
1.61361
1.56095
1.5095
1.45907
1.40954
1.36074
1.31259
1.26491
1.21761
1.1706
1.12376
1.07702
1.03031
0.983541
0.936662
0.889611
0.842333
0.794782
0.746915
0.698692
0.650079
0.601042
0.551561
0.501584
0.451141
0.400086
0.348658
0.296264
0.244104
0.189527
0.138118
0.0779976
0.0344097
-12.2343
-12.0471
-11.4774
-10.8713
-10.442
-10.4772
-11.1761
-12.7219
-15.1526
-18.3605
-22.1462
-26.2466
-30.3595
-34.174
-37.4134
-39.8407
-41.2365
-41.4595
-40.4736
-38.3622
-35.3519
-31.7903
-28.0213
-24.277
-20.6707
-17.2573
-14.0786
-11.1752
-8.57975
-6.30933
-4.36281
-2.72432
-1.36829
-0.263951
0.621262
1.31928
1.85983
2.26966
2.5723
2.78824
2.93511
3.02772
3.07819
3.09605
3.08859
3.06139
3.0188
2.96434
2.901
2.83125
2.75718
2.68046
2.60243
2.52413
2.44636
2.36974
2.29474
2.22168
2.15078
2.08216
2.01583
1.95177
1.88989
1.83006
1.77215
1.71598
1.6614
1.60824
1.55634
1.50554
1.45569
1.40664
1.35828
1.31049
1.26313
1.2161
1.16932
1.12268
1.07612
1.02954
0.982901
0.936127
0.889162
0.841959
0.794468
0.746652
0.69847
0.649892
0.600883
0.551424
0.501462
0.451034
0.399988
0.348571
0.296174
0.244033
0.189436
0.138073
0.0779044
0.0344181
-12.1732
-12.0312
-11.5913
-11.0441
-10.6916
-10.8209
-11.599
-13.1405
-15.4742
-18.5201
-22.095
-25.9415
-29.7725
-33.3203
-36.3058
-38.444
-39.5468
-39.5161
-38.3578
-36.2095
-33.3423
-30.0719
-26.6525
-23.2393
-19.9165
-16.7407
-13.7618
-11.0244
-8.5623
-6.39357
-4.52009
-2.93033
-1.60344
-0.513143
0.369193
1.07224
1.62314
2.04664
2.36482
2.59707
2.76025
2.86869
2.93421
2.96616
2.97178
2.95664
2.9251
2.88075
2.82658
2.76515
2.6986
2.62867
2.55674
2.48391
2.41104
2.33878
2.26765
2.19802
2.13015
2.06419
2.00021
1.93821
1.87813
1.81989
1.76335
1.7084
1.65487
1.60263
1.55153
1.50143
1.45217
1.40366
1.35575
1.30834
1.26132
1.21459
1.16805
1.12162
1.07524
1.02882
0.98231
0.935647
0.888775
0.84165
0.794225
0.746464
0.698327
0.649786
0.600807
0.551372
0.501428
0.451015
0.399977
0.348572
0.296172
0.244049
0.189435
0.138115
0.0779024
0.0344978
-12.2051
-12.0579
-11.7119
-11.3193
-11.1273
-11.3524
-12.1488
-13.6333
-15.8387
-18.6853
-21.9984
-25.5376
-29.038
-32.2184
-34.8056
-36.5774
-37.3769
-37.141
-35.9347
-33.9336
-31.3664
-28.4555
-25.3799
-22.2647
-19.1962
-16.2397
-13.4499
-10.8717
-8.5383
-6.46874
-4.6676
-3.12715
-1.83075
-0.756185
0.121531
0.827977
1.3878
1.82381
2.15659
2.40445
2.58345
2.70739
2.78775
2.83371
2.85242
2.84939
2.829
2.79486
2.75
2.69704
2.63816
2.57515
2.50947
2.44225
2.3744
2.30663
2.23949
2.1734
2.10866
2.04546
1.98391
1.92405
1.86584
1.80924
1.75414
1.70044
1.64801
1.59672
1.54645
1.49707
1.44845
1.40047
1.35303
1.30603
1.25936
1.21293
1.16665
1.12045
1.07425
1.02799
0.981617
0.935069
0.888295
0.841252
0.793896
0.746192
0.698103
0.6496
0.600652
0.551243
0.501318
0.450921
0.399892
0.348499
0.296099
0.243992
0.189365
0.138083
0.0778351
0.0345076
-12.2615
-12.1515
-11.9433
-11.7254
-11.6809
-11.9878
-12.7826
-14.1619
-16.155
-18.6999
-21.6482
-24.7871
-27.8555
-30.5886
-32.7791
-34.2383
-34.8453
-34.5827
-33.5236
-31.7927
-29.549
-26.9631
-24.1862
-21.3367
-18.5032
-15.754
-13.144
-10.7178
-8.50818
-6.53512
-4.80545
-3.31472
-2.04998
-0.992696
-0.121267
0.586983
1.15431
1.60162
1.94803
2.21075
2.40502
2.54409
2.63906
2.6989
2.73065
2.73976
2.73059
2.70676
2.67133
2.62696
2.57588
2.51993
2.46062
2.39914
2.33644
2.27328
2.21024
2.1478
2.08628
2.02594
1.96691
1.90926
1.853
1.7981
1.7445
1.69211
1.64083
1.59054
1.54114
1.49252
1.44456
1.39716
1.35022
1.30365
1.25734
1.21123
1.16522
1.11925
1.07326
1.02717
0.980941
0.934515
0.887844
0.840889
0.793606
0.745962
0.697923
0.649462
0.600547
0.551165
0.501262
0.450882
0.399863
0.348483
0.296084
0.243993
0.189354
0.138108
0.077828
0.0345627
-12.3556
-12.2975
-12.2016
-12.1296
-12.2169
-12.5998
-13.384
-14.6423
-16.3974
-18.6013
-21.1346
-23.8165
-26.4341
-28.7796
-30.6543
-31.9132
-32.4619
-32.271
-31.3762
-29.8728
-27.8922
-25.5774
-23.061
-20.4526
-17.8376
-15.2833
-12.8437
-10.5624
-8.47185
-6.59265
-4.9335
-3.49275
-2.26072
-1.2222
-0.358676
0.349795
0.923185
1.38056
1.73959
2.01637
2.22531
2.37907
2.48837
2.56192
2.60663
2.62787
2.62996
2.61651
2.59062
2.55495
2.51179
2.46303
2.41022
2.35461
2.29717
2.23873
2.17991
2.12122
2.06303
2.00563
1.9492
1.89385
1.83961
1.78648
1.73444
1.68341
1.63331
1.58407
1.53558
1.48774
1.44047
1.39366
1.34724
1.30111
1.25519
1.20941
1.16368
1.11796
1.07217
1.02626
0.980185
0.933887
0.887325
0.84046
0.793253
0.745673
0.697688
0.64927
0.60039
0.551037
0.501156
0.450794
0.399787
0.34842
0.296023
0.243948
0.189299
0.138084
0.0777796
0.034571
-12.4447
-12.4318
-12.4179
-12.4509
-12.6297
-13.0592
-13.8225
-14.9746
-16.5291
-18.4443
-20.6221
-22.9206
-25.1765
-27.2025
-28.8236
-29.9163
-30.3942
-30.2267
-29.4431
-28.1188
-26.3579
-24.2789
-21.9966
-19.6098
-17.1986
-14.8275
-12.549
-10.4058
-8.42958
-6.64152
-5.0518
-3.66115
-2.46274
-1.44433
-0.590254
0.116895
0.69492
1.16111
1.53171
1.82169
2.04466
2.21263
2.33593
2.42299
2.48054
2.51387
2.52723
2.52422
2.50794
2.48107
2.44594
2.40449
2.3583
2.30866
2.25661
2.20299
2.14849
2.09365
2.03889
1.98453
1.93079
1.8778
1.82565
1.77437
1.72394
1.67432
1.62547
1.57731
1.52976
1.48275
1.4362
1.39002
1.34413
1.29847
1.25296
1.20752
1.1621
1.11663
1.07106
1.02534
0.979423
0.933261
0.886813
0.840044
0.792919
0.745406
0.697476
0.649105
0.600263
0.55094
0.501082
0.450741
0.399746
0.348392
0.295999
0.243939
0.189284
0.138097
0.077771
0.0346077
-12.5354
-12.5668
-12.6186
-12.7299
-12.9742
-13.4322
-14.1689
-15.2254
-16.6092
-18.2843
-20.1698
-22.1492
-24.079
-25.8061
-27.1887
-28.1195
-28.5247
-28.3738
-27.683
-26.5088
-24.9362
-23.0647
-20.993
-18.8088
-16.5862
-14.3864
-12.26
-10.248
-8.3816
-6.68192
-5.16043
-3.81983
-2.6558
-1.65874
-0.815571
-0.111243
0.469999
0.943733
1.32482
1.62714
1.86343
2.0451
2.18202
2.28233
2.35257
2.39791
2.42254
2.43
2.42338
2.4054
2.3784
2.34435
2.30488
2.26132
2.21477
2.16609
2.11602
2.06513
2.01389
1.96265
1.91167
1.86114
1.81115
1.76176
1.713
1.66486
1.61729
1.57025
1.52369
1.47753
1.43172
1.38619
1.34087
1.29569
1.2506
1.20553
1.16042
1.11522
1.06988
1.02435
0.978597
0.932576
0.886247
0.839579
0.792538
0.745095
0.697225
0.648902
0.600099
0.550808
0.500976
0.450654
0.399674
0.348334
0.295946
0.2439
0.18924
0.138077
0.0777363
0.034613
-12.6255
-12.6948
-12.7968
-12.9646
-13.2533
-13.7241
-14.4272
-15.3927
-16.6236
-18.088
-19.718
-21.4153
-23.0634
-24.5379
-25.7187
-26.5101
-26.8468
-26.6995
-26.0784
-25.0283
-23.6181
-21.9296
-20.0469
-18.0476
-15.9995
-13.9599
-11.9768
-10.0896
-8.32827
-6.71415
-5.25953
-3.9688
-2.83976
-1.86516
-1.03425
-0.334186
0.248884
0.728901
1.11938
1.43312
1.68201
1.87681
2.02693
2.1402
2.22294
2.28018
2.31603
2.33396
2.33705
2.32802
2.30923
2.28267
2.25002
2.21265
2.17168
2.12804
2.08249
2.03564
1.98801
1.93999
1.89186
1.84384
1.79608
1.74866
1.70163
1.655
1.60877
1.5629
1.51736
1.4721
1.42706
1.38221
1.33747
1.2928
1.24815
1.20345
1.15867
1.11375
1.06865
1.02333
0.977753
0.93188
0.885677
0.839114
0.792162
0.744794
0.696985
0.648713
0.599952
0.550695
0.50089
0.45059
0.399625
0.3483
0.295918
0.243886
0.189223
0.138082
0.0777288
0.0346363
-12.7097
-12.811
-12.9521
-13.1605
-13.4778
-13.9501
-14.6154
-15.4951
-16.5889
-17.8686
-19.2771
-20.7336
-22.1406
-23.3932
-24.3909
-25.0525
-25.3222
-25.1731
-24.6099
-23.6661
-22.3966
-20.8693
-19.1561
-17.3253
-15.4382
-13.548
-11.6998
-9.93072
-8.26999
-6.73853
-5.34932
-4.10811
-3.0145
-2.06334
-1.24597
-0.551531
0.0320133
0.51706
0.915828
1.24005
1.50077
1.70811
1.87097
1.99687
2.09188
2.16089
2.20787
2.23625
2.24908
2.24904
2.23851
2.21952
2.19378
2.16268
2.12739
2.08888
2.04794
2.00523
1.96129
1.91656
1.87136
1.82593
1.78047
1.73507
1.68983
1.64477
1.59992
1.55525
1.51077
1.46643
1.4222
1.37805
1.33392
1.28978
1.24558
1.20128
1.15684
1.11221
1.06736
1.02225
0.976853
0.931133
0.885061
0.838608
0.791749
0.744458
0.696714
0.648495
0.599778
0.550557
0.500779
0.450503
0.399555
0.348245
0.29587
0.243851
0.189188
0.138065
0.0777038
0.0346375
-12.7874
-12.9144
-13.0843
-13.3197
-13.652
-14.116
-14.7399
-15.5384
-16.5085
-17.6252
-18.8404
-20.0866
-21.2826
-22.3417
-23.1805
-23.7294
-23.9393
-23.7848
-23.2673
-22.4123
-21.2641
-19.8791
-18.318
-16.6407
-14.902
-13.1509
-11.4291
-9.77197
-8.20723
-6.75548
-5.43009
-4.23788
-3.18001
-2.25311
-1.45043
-0.762917
-0.180202
0.308644
0.714594
1.04835
1.32011
1.53934
1.71446
1.85262
1.95965
2.04023
2.09825
2.13704
2.15958
2.16856
2.16635
2.15499
2.13622
2.11148
2.08195
2.04865
2.0124
1.97391
1.93375
1.89238
1.85018
1.80742
1.76431
1.721
1.6776
1.63416
1.59073
1.54732
1.50393
1.46055
1.41716
1.37373
1.33023
1.28664
1.24292
1.19903
1.15493
1.11061
1.06602
1.02114
0.975929
0.930371
0.884435
0.838098
0.791336
0.744126
0.69645
0.648287
0.599615
0.550432
0.500684
0.450433
0.399502
0.348208
0.295842
0.243835
0.189173
0.138067
0.0776996
0.0346518
-12.8549
-13.0016
-13.1917
-13.4437
-13.7811
-14.23
-14.8109
-15.533
-16.3917
-17.3647
-18.4114
-19.4754
-20.4891
-21.3803
-22.079
-22.5263
-22.6798
-22.5167
-22.0361
-21.257
-20.2146
-18.9553
-17.5307
-15.9928
-14.3906
-12.7685
-11.1653
-9.61379
-8.14051
-6.76544
-5.50215
-4.35829
-3.33631
-2.43438
-1.64741
-0.968024
-0.387385
0.104062
0.5161
0.858427
1.14042
1.37089
1.55774
1.70775
1.82649
1.91846
1.98738
2.0365
2.06873
2.08673
2.09286
2.08918
2.07744
2.05911
2.03542
2.0074
1.97592
1.94172
1.9054
1.86748
1.82834
1.78831
1.74763
1.70646
1.66495
1.62318
1.58122
1.5391
1.49684
1.45444
1.41191
1.36924
1.3264
1.28337
1.24014
1.19667
1.15295
1.10893
1.06462
1.01996
0.974951
0.92956
0.883766
0.837549
0.790888
0.743763
0.696157
0.648053
0.599429
0.550284
0.500568
0.450342
0.39943
0.348153
0.295797
0.243803
0.189142
0.13805
0.0776809
0.0346478
-12.9121
-13.073
-13.2761
-13.5359
-13.8706
-14.299
-14.8352
-15.4856
-16.2435
-17.0892
-17.9882
-18.8933
-19.7482
-20.4929
-21.0692
-21.4273
-21.5305
-21.3582
-20.9076
-20.1929
-19.2423
-18.0941
-16.7918
-15.3805
-13.9036
-12.4011
-10.9086
-9.4567
-8.07038
-6.76892
-5.56592
-4.46961
-3.48349
-2.60707
-1.83673
-1.16658
-0.589192
-0.096302
0.320748
0.670689
0.962096
1.20311
1.40115
1.56259
1.69271
1.79582
1.87548
1.93482
1.97669
2.00369
2.01817
2.02219
2.01753
2.00566
1.98786
1.96519
1.93855
1.9087
1.8763
1.84189
1.80588
1.76864
1.73043
1.69146
1.6519
1.61184
1.57139
1.5306
1.4895
1.44813
1.40649
1.36459
1.32243
1.27999
1.23727
1.19424
1.15089
1.10721
1.06317
1.01876
0.973952
0.928735
0.883089
0.836997
0.790441
0.743404
0.695871
0.647828
0.599255
0.550152
0.500469
0.450269
0.399378
0.348117
0.295772
0.243789
0.189133
0.138052
0.0776823
0.0346571
-12.9568
-13.127
-13.337
-13.5982
-13.924
-14.328
-14.82
-15.4029
-16.0698
-16.8027
-17.5724
-18.3393
-19.0566
-19.6743
-20.1437
-20.423
-20.4804
-20.2979
-19.8717
-19.2122
-18.3418
-17.2919
-16.0993
-14.8027
-13.4406
-12.0487
-10.6595
-9.30127
-7.99744
-6.76648
-5.62183
-4.57213
-3.62171
-2.7712
-2.01827
-1.35835
-0.785321
-0.292094
0.128921
0.485531
0.785522
1.03639
1.24503
1.41744
1.5586
1.67259
1.7628
1.83223
1.88365
1.91961
1.94243
1.95416
1.95659
1.95123
1.93937
1.92209
1.90034
1.87491
1.84649
1.81564
1.78282
1.74843
1.71275
1.67603
1.63845
1.60016
1.56125
1.52182
1.48192
1.4416
1.40088
1.35978
1.31831
1.27648
1.23428
1.19171
1.14875
1.10541
1.06166
1.01749
0.972898
0.927861
0.882367
0.836404
0.789957
0.743011
0.695555
0.647575
0.599054
0.549994
0.500345
0.450174
0.399304
0.348061
0.295728
0.243757
0.189106
0.138033
0.0776668
0.0346464
-12.9894
-13.1646
-13.3765
-13.6337
-13.946
-14.3231
-14.7713
-15.2912
-15.8755
-16.5083
-17.1645
-17.8109
-18.4084
-18.9156
-19.2919
-19.502
-19.519
-19.3266
-18.9206
-18.3085
-17.5082
-16.5453
-15.451
-14.2584
-13.0012
-11.7114
-10.4184
-9.14805
-7.92231
-6.75871
-5.6704
-4.66623
-3.75119
-2.92685
-2.19198
-1.54318
-0.975514
-0.482992
-0.0590196
0.303331
0.611084
0.871104
1.08976
1.27266
1.42448
1.54904
1.64958
1.72896
1.78983
1.83468
1.8658
1.88524
1.89478
1.89594
1.89004
1.8782
1.86138
1.84042
1.81602
1.78878
1.75921
1.72771
1.69461
1.66019
1.62464
1.58815
1.55083
1.5128
1.47413
1.43488
1.39511
1.35483
1.31408
1.27287
1.23122
1.18911
1.14656
1.10356
1.06011
1.01621
0.971831
0.926981
0.881646
0.835816
0.789482
0.742632
0.695255
0.647341
0.598874
0.549858
0.500246
0.450104
0.399256
0.348031
0.295711
0.24375
0.189106
0.138039
0.0776772
0.0346544
-13.0089
-13.1855
-13.3951
-13.6442
-13.9396
-14.2882
-14.6937
-15.1549
-15.6646
-16.2085
-16.7651
-17.3066
-17.8003
-18.2117
-18.5072
-18.6569
-18.6379
-18.436
-18.0468
-17.4757
-16.7368
-15.8511
-14.8448
-13.7463
-12.585
-11.3893
-10.1856
-8.99761
-7.84563
-6.74623
-5.71215
-4.75232
-3.87221
-3.07414
-2.35783
-1.72094
-1.15956
-0.668716
-0.242744
0.124447
0.439155
0.707618
0.9357
1.12859
1.29066
1.4255
1.53613
1.62526
1.69545
1.74911
1.78848
1.81559
1.83221
1.8399
1.83998
1.8336
1.82175
1.80528
1.78495
1.76137
1.73508
1.70652
1.67605
1.64396
1.61048
1.57582
1.54013
1.50352
1.46611
1.42797
1.38916
1.34972
1.30971
1.26914
1.22804
1.18641
1.14428
1.10164
1.0585
1.01485
0.970702
0.926044
0.880872
0.83518
0.788962
0.742209
0.694914
0.647068
0.598657
0.549688
0.500113
0.450002
0.399178
0.347972
0.295665
0.243715
0.189079
0.138015
0.0776615
0.0346344
-13.0162
-13.1911
-13.395
-13.6328
-13.9092
-14.2285
-14.5927
-14.9994
-15.4415
-15.9064
-16.3755
-16.8254
-17.229
-17.5574
-17.7826
-17.8796
-17.8291
-17.6187
-17.2438
-16.7083
-16.0233
-15.2062
-14.2788
-13.2655
-12.1916
-11.0824
-9.96156
-8.85053
-7.76806
-6.7297
-5.74767
-4.83089
-3.9851
-3.21327
-2.51591
-1.89157
-1.33729
-0.849022
-0.421953
-0.0507802
0.270093
0.546302
0.783206
0.985589
1.1575
1.30226
1.42272
1.52142
1.60078
1.66313
1.71066
1.74539
1.76907
1.78327
1.78933
1.78841
1.78154
1.7696
1.75336
1.73348
1.71051
1.68492
1.65711
1.62739
1.59602
1.56323
1.52919
1.49404
1.45791
1.4209
1.38307
1.34451
1.30525
1.26534
1.2248
1.18367
1.14197
1.0997
1.05687
1.0135
0.969582
0.925121
0.880118
0.834568
0.78847
0.741818
0.694607
0.646832
0.598479
0.549558
0.500022
0.449941
0.399142
0.347955
0.295663
0.243722
0.189095
0.138032
0.0776858
0.0346451
-13.011
-13.1816
-13.3772
-13.6014
-13.8571
-14.1471
-14.4716
-14.8279
-15.2091
-15.6037
-15.996
-16.3662
-16.6915
-16.9481
-17.1126
-17.1641
-17.0862
-16.868
-16.5055
-16.0011
-15.3638
-14.6077
-13.751
-12.8146
-11.8205
-10.7908
-9.74659
-8.70735
-7.69025
-6.70978
-5.7776
-4.90244
-4.09027
-3.34451
-2.66633
-2.05507
-1.50861
-1.02372
-0.596383
-0.222041
0.104242
0.387516
0.632645
0.84401
1.02533
1.17968
1.30968
1.41771
1.50606
1.57697
1.63258
1.67485
1.70554
1.72621
1.73822
1.74276
1.74087
1.73347
1.72134
1.70517
1.68554
1.66296
1.63783
1.6105
1.58127
1.55037
1.518
1.48434
1.44951
1.41365
1.37683
1.33914
1.30065
1.26141
1.22145
1.18083
1.13956
1.09766
1.05516
1.01206
0.968382
0.924124
0.879292
0.833888
0.787913
0.741364
0.694239
0.646537
0.598244
0.549372
0.499877
0.449829
0.399056
0.347888
0.295613
0.243681
0.189065
0.137999
0.077666
0.0346113
-12.9947
-13.1589
-13.3442
-13.5531
-13.7873
-14.0482
-14.3352
-14.645
-14.971
-15.3031
-15.6279
-15.9285
-16.186
-16.3806
-16.4926
-16.5047
-16.4031
-16.1783
-15.8267
-15.3497
-14.7545
-14.0527
-13.2596
-12.3927
-11.4712
-10.5144
-9.54102
-8.56864
-7.61288
-6.68718
-5.80258
-4.96755
-4.18816
-3.46816
-2.80927
-2.2115
-1.67345
-1.19265
-0.765808
-0.389052
-0.0580763
0.231608
0.48438
0.70422
0.894517
1.05809
1.19733
1.31446
1.41161
1.49093
1.55448
1.60419
1.64181
1.6689
1.68682
1.69679
1.69988
1.697
1.68898
1.67653
1.66027
1.64071
1.61829
1.59338
1.56631
1.53732
1.50666
1.4745
1.441
1.4063
1.37051
1.33372
1.29601
1.25745
1.21809
1.17798
1.13716
1.09565
1.05348
1.01066
0.967228
0.923177
0.878522
0.833267
0.787418
0.740975
0.693939
0.64631
0.598079
0.549257
0.499803
0.449788
0.399042
0.347893
0.295635
0.24371
0.189106
0.138034
0.0777115
0.0346288
-12.9672
-13.1232
-13.2968
-13.4892
-13.7016
-13.9342
-14.1858
-14.4528
-14.7291
-15.0058
-15.2712
-15.5113
-15.7101
-15.8511
-15.918
-15.8963
-15.7744
-15.5442
-15.2023
-14.7497
-14.192
-13.5387
-12.8026
-11.9986
-11.1431
-10.2531
-9.34516
-8.43492
-7.5366
-6.66261
-5.8233
-5.02684
-4.27928
-3.58461
-2.94499
-2.36098
-1.83182
-1.35572
-0.930047
-0.551565
-0.216562
0.0789108
0.338766
0.566584
0.765431
0.937855
1.08603
1.21199
1.31773
1.40528
1.47662
1.53365
1.5781
1.61153
1.63531
1.65066
1.65868
1.6603
1.65639
1.64766
1.63475
1.61821
1.59851
1.57604
1.55113
1.52407
1.49512
1.46447
1.43231
1.39878
1.36403
1.32814
1.29122
1.25335
1.2146
1.17501
1.13463
1.09351
1.05168
1.00915
0.965964
0.922124
0.877647
0.832544
0.786823
0.740488
0.693543
0.64599
0.597821
0.549052
0.499642
0.44966
0.398944
0.347815
0.295576
0.243657
0.189067
0.137985
0.0776837
0.0345741
-12.9309
-13.0775
-13.2381
-13.4135
-13.6041
-13.8093
-14.0276
-14.2553
-14.4868
-14.7142
-14.9275
-15.1148
-15.2627
-15.3575
-15.3856
-15.335
-15.1958
-14.9613
-14.6283
-14.1974
-13.6731
-13.0632
-12.3783
-11.6312
-10.8358
-10.007
-9.15929
-8.3067
-7.46207
-6.63678
-5.84047
-5.08096
-4.36419
-3.6943
-3.07379
-2.50369