/*--------------------------------*- C++ -*----------------------------------*\
| =========                 |                                                 |
| \\      /  F ield         | OpenFOAM: The Open Source CFD Toolbox           |
|  \\    /   O peration     | Version:  2.1.1                                 |
|   \\  /    A nd           | Web:      www.OpenFOAM.org                      |
|    \\/     M anipulation  |                                                 |
\*---------------------------------------------------------------------------*/
FoamFile
{
    version     2.0;
    format      ascii;
    class       surfaceScalarField;
    location    "0.03";
    object      phi;
}
// * * * * * * * * * * * * * * * * * * * * * * * * * * * * * * * * * * * * * //

dimensions      [0 3 -1 0 0 0 0];

internalField   nonuniform List<scalar> 
13452
(
4.59975e-05
2.24897e-05
2.96604e-05
1.63371e-05
2.11817e-05
8.47867e-06
1.72778e-05
3.90388e-06
1.56329e-05
1.64491e-06
1.48223e-05
8.10598e-07
1.43094e-05
5.12918e-07
1.39173e-05
3.92134e-07
1.35859e-05
3.31425e-07
1.32997e-05
2.86194e-07
1.30541e-05
2.45598e-07
1.28451e-05
2.08975e-07
1.26684e-05
1.76734e-07
1.25194e-05
1.48944e-07
1.23941e-05
1.25256e-07
1.2289e-05
1.05115e-07
1.22011e-05
8.79546e-08
1.21278e-05
7.32848e-08
1.20671e-05
6.07139e-08
1.20171e-05
4.9949e-08
1.19764e-05
4.07794e-08
1.19433e-05
3.30426e-08
1.19167e-05
2.66057e-08
1.18953e-05
2.14226e-08
1.18778e-05
1.75269e-08
1.18627e-05
1.50553e-08
1.18491e-05
1.36254e-08
1.18353e-05
1.37355e-08
1.1823e-05
1.2299e-08
1.18065e-05
1.6538e-08
1.1808e-05
-1.45502e-09
1.17767e-05
3.12241e-08
-2.04559e-07
1.19813e-05
7.49119e-05
1.80218e-05
7.04092e-05
2.08398e-05
6.33167e-05
1.55712e-05
5.66596e-05
1.05611e-05
5.15417e-05
6.76276e-06
4.78863e-05
4.466e-06
4.52676e-05
3.1316e-06
4.33438e-05
2.31599e-06
4.18818e-05
1.7934e-06
4.0732e-05
1.43596e-06
3.98023e-05
1.1753e-06
3.90349e-05
9.76411e-07
3.83919e-05
8.19684e-07
3.78477e-05
6.93146e-07
3.7384e-05
5.88985e-07
3.69873e-05
5.01838e-07
3.66473e-05
4.27912e-07
3.63561e-05
3.64481e-07
3.61073e-05
3.09566e-07
3.58955e-05
2.6173e-07
3.57163e-05
2.19924e-07
3.5566e-05
1.83364e-07
3.54412e-05
1.51462e-07
3.53387e-05
1.23859e-07
3.52559e-05
1.00379e-07
3.519e-05
8.09132e-08
3.51388e-05
6.48658e-08
3.51003e-05
5.21812e-08
3.50726e-05
3.99885e-08
3.50574e-05
3.18145e-08
3.505e-05
5.95552e-09
3.50941e-05
-1.29394e-08
-1.45596e-07
3.50352e-05
7.85207e-05
1.19577e-05
8.23328e-05
1.70277e-05
8.29882e-05
1.49158e-05
8.14696e-05
1.20796e-05
7.89441e-05
9.28823e-06
7.62561e-05
7.15408e-06
7.37374e-05
5.65027e-06
7.14918e-05
4.56155e-06
6.9533e-05
3.75229e-06
6.78365e-05
3.13245e-06
6.63693e-05
2.64248e-06
6.50996e-05
2.24611e-06
6.39991e-05
1.92015e-06
6.30437e-05
1.64858e-06
6.22129e-05
1.41974e-06
6.14898e-05
1.22499e-06
6.08599e-05
1.05779e-06
6.03113e-05
9.13119e-07
5.98337e-05
7.87125e-07
5.94186e-05
6.76826e-07
5.90586e-05
5.79923e-07
5.87473e-05
4.94634e-07
5.84792e-05
4.19593e-07
5.82493e-05
3.5381e-07
5.80531e-05
2.96562e-07
5.78867e-05
2.47256e-07
5.77465e-05
2.05088e-07
5.76291e-05
1.69627e-07
5.75302e-05
1.38876e-07
5.74482e-05
1.13824e-07
5.73707e-05
8.34626e-08
5.73001e-05
5.76412e-08
-3.76841e-10
5.71549e-05
7.81463e-05
8.33803e-06
8.19214e-05
1.32525e-05
8.46154e-05
1.22218e-05
8.62351e-05
1.04599e-05
8.69097e-05
8.6136e-06
8.69924e-05
7.07138e-06
8.67261e-05
5.91657e-06
8.62536e-05
5.034e-06
8.56671e-05
4.33885e-06
8.50227e-05
3.77688e-06
8.43554e-05
3.30977e-06
8.36882e-05
2.91327e-06
8.3037e-05
2.57132e-06
8.24128e-05
2.27285e-06
8.18221e-05
2.01045e-06
8.12687e-05
1.77839e-06
8.07543e-05
1.5721e-06
8.02796e-05
1.38791e-06
7.98438e-05
1.22288e-06
7.94459e-05
1.07467e-06
7.90845e-05
9.41403e-07
7.87575e-05
8.21595e-07
7.8463e-05
7.14086e-07
7.81988e-05
6.18013e-07
7.79626e-05
5.32734e-07
7.77522e-05
4.57735e-07
7.75648e-05
3.92431e-07
7.7398e-05
3.3648e-07
7.7248e-05
2.88866e-07
7.71118e-05
2.50031e-07
7.69787e-05
2.16527e-07
7.68426e-05
1.93742e-07
1.81725e-07
7.66605e-05
7.8991e-05
6.00289e-06
8.15892e-05
1.06543e-05
8.35141e-05
1.0297e-05
8.49552e-05
9.01874e-06
8.59699e-05
7.59894e-06
8.67064e-05
6.33482e-06
8.72671e-05
5.35594e-06
8.76997e-05
4.60138e-06
8.80359e-05
4.00268e-06
8.82968e-05
3.5159e-06
8.84971e-05
3.10948e-06
8.86481e-05
2.76229e-06
8.87581e-05
2.46132e-06
8.88335e-05
2.1975e-06
8.88804e-05
1.96354e-06
8.89046e-05
1.75421e-06
8.8911e-05
1.56569e-06
8.89038e-05
1.39507e-06
8.88866e-05
1.24012e-06
8.88621e-05
1.09911e-06
8.88328e-05
9.70697e-07
8.88006e-05
8.53888e-07
8.87667e-05
7.47949e-07
8.87323e-05
6.52392e-07
8.86981e-05
5.6691e-07
8.86645e-05
4.91328e-07
8.86315e-05
4.25496e-07
8.85985e-05
3.69509e-07
8.85639e-05
3.23368e-07
8.85259e-05
2.88088e-07
8.84782e-05
2.64251e-07
8.84143e-05
2.57629e-07
2.75098e-07
8.83209e-05
8.04626e-05
4.38621e-06
8.25032e-05
8.61372e-06
8.39869e-05
8.81332e-06
8.50431e-05
7.9625e-06
8.57619e-05
6.88018e-06
8.62716e-05
5.8251e-06
8.66735e-05
4.95407e-06
8.70145e-05
4.26032e-06
8.73178e-05
3.69944e-06
8.75946e-05
3.2391e-06
8.78497e-05
2.85431e-06
8.80855e-05
2.52648e-06
8.8304e-05
2.24282e-06
8.8507e-05
1.99451e-06
8.86955e-05
1.7751e-06
8.887e-05
1.57962e-06
8.90314e-05
1.4043e-06
8.91803e-05
1.24624e-06
8.93172e-05
1.1032e-06
8.94428e-05
9.73474e-07
8.95578e-05
8.55751e-07
8.96626e-05
7.49069e-07
8.97578e-05
6.52748e-07
8.98438e-05
5.66352e-07
8.99211e-05
4.89648e-07
8.99898e-05
4.22579e-07
9.00501e-05
3.65218e-07
9.01017e-05
3.17927e-07
9.01438e-05
2.81258e-07
9.01752e-05
2.56679e-07
9.01934e-05
2.46061e-07
9.01961e-05
2.54948e-07
2.87926e-07
9.01833e-05
8.22336e-05
3.25114e-06
8.38923e-05
6.95501e-06
8.51776e-05
7.52809e-06
8.6108e-05
7.03207e-06
8.67458e-05
6.24233e-06
8.71812e-05
5.38976e-06
8.75018e-05
4.63347e-06
8.77569e-05
4.00519e-06
8.79731e-05
3.48321e-06
8.81658e-05
3.04648e-06
8.83428e-05
2.67725e-06
8.85085e-05
2.36079e-06
8.86651e-05
2.08621e-06
8.8814e-05
1.84562e-06
8.8956e-05
1.63309e-06
8.90916e-05
1.44403e-06
8.9221e-05
1.27486e-06
8.93445e-05
1.1228e-06
8.9462e-05
9.85691e-07
8.95736e-05
8.61843e-07
8.96794e-05
7.49969e-07
8.97794e-05
6.49112e-07
8.98735e-05
5.58593e-07
8.99619e-05
4.77982e-07
9.00445e-05
4.07066e-07
9.01212e-05
3.45839e-07
9.01919e-05
2.94492e-07
9.02563e-05
2.53535e-07
9.03138e-05
2.23809e-07
9.03635e-05
2.06957e-07
9.04044e-05
2.05199e-07
9.04359e-05
2.2338e-07
2.64698e-07
9.04592e-05
8.4216e-05
2.45064e-06
8.55484e-05
5.6227e-06
8.66679e-05
6.40852e-06
8.75221e-05
6.17787e-06
8.81441e-05
5.62037e-06
8.85867e-05
4.94715e-06
8.89152e-05
4.30492e-06
8.91734e-05
3.74707e-06
8.93866e-05
3.26992e-06
8.95711e-05
2.86201e-06
8.97363e-05
2.5121e-06
8.98876e-05
2.20944e-06
9.00285e-05
1.94529e-06
9.01612e-05
1.71296e-06
9.0287e-05
1.50726e-06
9.0407e-05
1.32408e-06
9.05217e-05
1.16015e-06
9.06316e-05
1.01287e-06
9.07371e-05
8.80224e-07
9.08383e-05
7.60604e-07
9.09355e-05
6.5279e-07
9.10287e-05
5.55867e-07
9.11181e-05
4.69192e-07
9.12038e-05
3.92364e-07
9.12856e-05
3.25202e-07
9.13637e-05
2.6775e-07
9.14379e-05
2.20277e-07
9.15081e-05
1.83376e-07
9.15739e-05
1.58003e-07
9.16351e-05
1.45761e-07
9.16915e-05
1.48775e-07
9.1744e-05
1.70913e-07
2.14321e-07
9.17944e-05
8.63714e-05
1.87795e-06
8.7439e-05
4.55514e-06
8.84078e-05
5.43967e-06
8.91819e-05
5.40375e-06
8.97745e-05
5.0278e-06
9.02162e-05
4.50549e-06
9.05541e-05
3.96703e-06
9.08246e-05
3.47651e-06
9.10504e-05
3.04417e-06
9.12458e-05
2.66656e-06
9.14202e-05
2.33774e-06
9.15791e-05
2.05051e-06
9.17262e-05
1.79816e-06
9.1864e-05
1.57521e-06
9.1994e-05
1.37723e-06
9.21175e-05
1.2006e-06
9.22353e-05
1.04238e-06
9.23479e-05
9.00197e-07
9.2456e-05
7.72173e-07
9.25598e-05
6.56815e-07
9.26596e-05
5.52971e-07
9.27557e-05
4.59776e-07
9.28483e-05
3.76623e-07
9.29375e-05
3.03134e-07
9.30235e-05
2.39151e-07
9.31065e-05
1.84737e-07
9.31866e-05
1.40187e-07
9.32639e-05
1.06084e-07
9.33386e-05
8.33505e-08
9.3411e-05
7.33924e-08
9.34817e-05
7.79971e-08
9.35526e-05
1.00053e-07
1.40833e-07
9.36261e-05
8.86669e-05
1.46106e-06
8.95223e-05
3.69969e-06
9.03576e-05
4.6044e-06
9.10561e-05
4.70526e-06
9.1615e-05
4.46895e-06
9.20494e-05
4.07108e-06
9.23913e-05
3.62515e-06
9.26697e-05
3.19804e-06
9.29043e-05
2.80963e-06
9.31081e-05
2.46275e-06
9.329e-05
2.15582e-06
9.34558e-05
1.88474e-06
9.36091e-05
1.6448e-06
9.37526e-05
1.43171e-06
9.3888e-05
1.24184e-06
9.40166e-05
1.07207e-06
9.41391e-05
9.19793e-07
9.42565e-05
7.82878e-07
9.4369e-05
6.59589e-07
9.44773e-05
5.48537e-07
9.45817e-05
4.48633e-07
9.46824e-05
3.59055e-07
9.47798e-05
2.79219e-07
9.48742e-05
2.08756e-07
9.49658e-05
1.4751e-07
9.5055e-05
9.55223e-08
9.51422e-05
5.30525e-08
9.52276e-05
2.06005e-08
9.5312e-05
-1.0422e-09
9.53962e-05
-1.077e-08
9.54814e-05
-7.25083e-09
9.55701e-05
1.14103e-08
4.57952e-08
9.56651e-05
9.10806e-05
1.15173e-06
9.17681e-05
3.01227e-06
9.24871e-05
3.88532e-06
9.31166e-05
4.07576e-06
9.36408e-05
3.94477e-06
9.4064e-05
3.64788e-06
9.44063e-05
3.28286e-06
9.46901e-05
2.91424e-06
9.49319e-05
2.56779e-06
9.51434e-05
2.25126e-06
9.53328e-05
1.96648e-06
9.55055e-05
1.71203e-06
9.56653e-05
1.48499e-06
9.58148e-05
1.28224e-06
9.59557e-05
1.10087e-06
9.60895e-05
9.38266e-07
9.62172e-05
7.92178e-07
9.63394e-05
6.60692e-07
9.64567e-05
5.42224e-07
9.65698e-05
4.35484e-07
9.6679e-05
3.39448e-07
9.67847e-05
2.53328e-07
9.68873e-05
1.76553e-07
9.69874e-05
1.08751e-07
9.70851e-05
4.97363e-08
9.71811e-05
-4.94993e-10
9.7276e-05
-4.17604e-08
9.73702e-05
-7.36859e-08
9.74649e-05
-9.57039e-08
9.75612e-05
-1.07044e-07
9.76608e-05
-1.06872e-07
9.77662e-05
-9.39739e-08
-6.86303e-08
9.78806e-05
9.3599e-05
9.17407e-07
9.41541e-05
2.45711e-06
9.47725e-05
3.26698e-06
9.53386e-05
3.50963e-06
9.58279e-05
3.45544e-06
9.62373e-05
3.23846e-06
9.65779e-05
2.94228e-06
9.68659e-05
2.6263e-06
9.71145e-05
2.31918e-06
9.73336e-05
2.03209e-06
9.75307e-05
1.76947e-06
9.77107e-05
1.53199e-06
9.78774e-05
1.3183e-06
9.80333e-05
1.12631e-06
9.81804e-05
9.53823e-07
9.83199e-05
7.98725e-07
9.8453e-05
6.59083e-07
9.85805e-05
5.33215e-07
9.8703e-05
4.19685e-07
9.88212e-05
3.17303e-07
9.89355e-05
2.251e-07
9.90466e-05
1.42318e-07
9.91547e-05
6.83903e-08
9.92605e-05
2.92131e-09
9.93646e-05
-5.43137e-08
9.94675e-05
-1.0339e-07
9.957e-05
-1.44235e-07
9.96729e-05
-1.76637e-07
9.97775e-05
-2.0027e-07
9.98851e-05
-2.14704e-07
9.99978e-05
-2.19556e-07
0.000100118
-2.14246e-07
-1.99614e-07
0.000100249
9.62134e-05
7.36117e-07
9.66649e-05
2.0056e-06
9.71968e-05
2.73503e-06
9.77055e-05
3.00094e-06
9.8161e-05
2.99998e-06
9.85549e-05
2.84456e-06
9.88916e-05
2.60561e-06
9.91818e-05
2.33605e-06
9.94359e-05
2.06508e-06
9.9662e-05
1.80599e-06
9.98664e-05
1.56503e-06
0.000100054
1.34453e-06
0.000100228
1.1444e-06
0.000100391
9.63476e-07
0.000100544
8.00209e-07
0.00010069
6.52924e-07
0.000100829
5.20004e-07
0.000100962
3.99976e-07
0.000101091
2.91545e-07
0.000101214
1.9361e-07
0.000101334
1.05256e-07
0.000101451
2.57414e-08
0.000101565
-4.55064e-08
0.000101676
-1.08909e-07
0.000101787
-1.64749e-07
0.000101897
-2.13188e-07
0.000102007
-2.54279e-07
0.000102118
-2.87986e-07
0.000102232
-3.14219e-07
0.00010235
-3.32865e-07
0.000102474
-3.43922e-07
0.000102608
-3.47314e-07
-3.44213e-07
0.000102752
9.89189e-05
5.92895e-07
9.92894e-05
1.63512e-06
9.97481e-05
2.2764e-06
0.000100205
2.54387e-06
0.000100628
2.57691e-06
0.000101006
2.46726e-06
0.000101337
2.27462e-06
0.000101628
2.045e-06
0.000101886
1.80652e-06
0.000102119
1.57351e-06
0.00010233
1.35339e-06
0.000102525
1.14963e-06
0.000102706
9.63138e-07
0.000102876
7.93525e-07
0.000103037
6.39773e-07
0.000103189
5.00609e-07
0.000103334
3.74694e-07
0.000103474
2.60748e-07
0.000103608
1.57606e-07
0.000103737
6.42455e-08
0.000103862
-2.02057e-08
0.000103985
-9.64725e-08
0.000104104
-1.6514e-07
0.000104222
-2.26669e-07
0.000104339
-2.81406e-07
0.000104455
-3.29605e-07
0.000104572
-3.71449e-07
0.000104691
-4.07069e-07
0.000104814
-4.36593e-07
0.000104941
-4.60175e-07
0.000105075
-4.78119e-07
0.000105219
-4.90727e-07
-4.9935e-07
0.000105374
0.000101713
4.7743e-07
0.00010202
1.32789e-06
0.000102417
1.87943e-06
0.000102829
2.13265e-06
0.000103221
2.18407e-06
0.000103582
2.10677e-06
0.000103906
1.95043e-06
0.000104197
1.75436e-06
0.000104459
1.54453e-06
0.000104697
1.33541e-06
0.000104915
1.13502e-06
0.000105117
9.47526e-07
0.000105306
7.74586e-07
0.000105483
6.16391e-07
0.00010565
4.72373e-07
0.000105809
3.41592e-07
0.000105961
2.2295e-07
0.000106107
1.15334e-07
0.000106247
1.76901e-08
0.000106382
-7.09354e-08
0.000106513
-1.51379e-07
0.000106641
-2.2436e-07
0.000106766
-2.9048e-07
0.00010689
-3.50243e-07
0.000107012
-4.04062e-07
0.000107135
-4.52282e-07
0.000107259
-4.95206e-07
0.000107385
-5.33117e-07
0.000107515
-5.66324e-07
0.00010765
-5.95192e-07
0.000107792
-6.20248e-07
0.000107943
-6.42052e-07
-6.62007e-07
0.000108106
0.000104595
3.82506e-07
0.000104853
1.07004e-06
0.000105199
1.5338e-06
0.00010557
1.76163e-06
0.000105935
1.81897e-06
0.000106279
1.76271e-06
0.000106596
1.6337e-06
0.000106885
1.46503e-06
0.00010715
1.27992e-06
0.000107393
1.09229e-06
0.000107618
9.10264e-07
0.000107827
7.38381e-07
0.000108023
5.78757e-07
0.000108207
4.32002e-07
0.000108381
2.97891e-07
0.000108547
1.75741e-07
0.000108706
6.46477e-08
0.000108857
-3.63667e-08
0.000109003
-1.28264e-07
0.000109144
-2.11943e-07
0.000109281
-2.88215e-07
0.000109414
-3.57798e-07
0.000109545
-4.21317e-07
0.000109674
-4.79315e-07
0.000109803
-5.32271e-07
0.000109931
-5.80612e-07
0.00011006
-6.24743e-07
0.000110192
-6.65075e-07
0.000110328
-7.02056e-07
0.000110469
-7.36204e-07
0.000110617
-7.68191e-07
0.000110774
-7.98741e-07
-8.29214e-07
0.000110941
0.000107566
3.02976e-07
0.000107785
8.50706e-07
0.000108088
1.23052e-06
0.000108424
1.42538e-06
0.000108765
1.47877e-06
0.000109093
1.43412e-06
0.000109402
1.32454e-06
0.00010969
1.17749e-06
0.000109957
1.01321e-06
0.000110204
8.4458e-07
0.000110435
6.79439e-07
0.000110651
5.22376e-07
0.000110854
3.75727e-07
0.000111046
2.40363e-07
0.000111227
1.16283e-07
0.0001114
2.98844e-09
0.000111565
-1.00283e-07
0.000111723
-1.94406e-07
0.000111875
-2.80275e-07
0.000112022
-3.58749e-07
0.000112164
-4.30623e-07
0.000112303
-4.9662e-07
0.000112439
-5.57388e-07
0.000112573
-6.1351e-07
0.000112707
-6.65518e-07
0.00011284
-7.13911e-07
0.000112974
-7.59177e-07
0.000113111
-8.01817e-07
0.000113251
-8.4238e-07
0.000113397
-8.81482e-07
0.000113548
-9.19869e-07
0.000113708
-9.58342e-07
-9.98152e-07
0.000113877
0.000110625
2.35092e-07
0.000110814
6.61388e-07
0.000111083
9.61808e-07
0.000111389
1.11871e-06
0.000111708
1.16045e-06
0.000112022
1.11958e-06
0.000112324
1.02256e-06
0.00011261
8.91849e-07
0.000112878
7.44677e-07
0.000113131
5.92552e-07
0.000113367
4.42736e-07
0.00011359
2.9961e-07
0.0001138
1.65521e-07
0.000113999
4.14431e-08
0.000114188
-7.25083e-08
0.000114368
-1.76724e-07
0.000114539
-2.71878e-07
0.000114704
-3.58783e-07
0.000114862
-4.38289e-07
0.000115014
-5.11233e-07
0.000115162
-5.78403e-07
0.000115306
-6.40532e-07
0.000115447
-6.9829e-07
0.000115585
-7.52294e-07
0.000115723
-8.0312e-07
0.00011586
-8.5132e-07
0.000115999
-8.97441e-07
0.000116139
-9.42046e-07
0.000116282
-9.85741e-07
0.00011643
-1.02919e-06
0.000116583
-1.07316e-06
0.000116743
-1.11846e-06
-1.1662e-06
0.000116911
0.000113775
1.76051e-07
0.000113941
4.95349e-07
0.000114181
7.20941e-07
0.000114463
8.36704e-07
0.000114763
8.60827e-07
0.000115065
8.17297e-07
0.000115361
7.26914e-07
0.000115645
6.07781e-07
0.000115916
4.74225e-07
0.000116172
3.36196e-07
0.000116414
2.00145e-07
0.000116644
7.00441e-08
0.000116861
-5.19289e-08
0.000117068
-1.64842e-07
0.000117264
-2.68567e-07
0.000117451
-3.63464e-07
0.000117629
-4.50177e-07
0.0001178
-5.29491e-07
0.000117964
-6.02241e-07
0.000118122
-6.69256e-07
0.000118274
-7.31331e-07
0.000118423
-7.89208e-07
0.000118568
-8.43579e-07
0.000118711
-8.95089e-07
0.000118852
-9.44344e-07
0.000118993
-9.91931e-07
0.000119134
-1.03843e-06
0.000119276
-1.08444e-06
0.000119421
-1.13059e-06
0.00011957
-1.17753e-06
0.000119723
-1.22602e-06
0.000119881
-1.27683e-06
-1.33088e-06
0.000120046
0.000117017
1.23705e-07
0.000117165
3.47189e-07
0.000117384
5.02089e-07
0.000117646
5.74734e-07
0.00011793
5.76609e-07
0.000118222
5.25121e-07
0.000118513
4.36338e-07
0.000118796
3.24577e-07
0.000119069
2.01453e-07
0.00011933
7.52632e-08
0.000119578
-4.8507e-08
0.000119815
-1.66462e-07
0.00012004
-2.76746e-07
0.000120253
-3.78596e-07
0.000120457
-4.71968e-07
0.00012065
-5.57269e-07
0.000120835
-6.35164e-07
0.000121012
-7.06451e-07
0.000121182
-7.71976e-07
0.000121345
-8.32579e-07
0.000121503
-8.89068e-07
0.000121656
-9.42201e-07
0.000121805
-9.92686e-07
0.000121951
-1.04119e-06
0.000122095
-1.08833e-06
0.000122238
-1.13472e-06
0.000122381
-1.18095e-06
0.000122524
-1.22762e-06
0.000122669
-1.27533e-06
0.000122816
-1.32474e-06
0.000122966
-1.37652e-06
0.000123121
-1.43138e-06
-1.49006e-06
0.00012328
0.000120353
7.63561e-08
0.000120488
2.12496e-07
0.00012069
3.00155e-07
0.000120936
3.28401e-07
0.000121209
3.04404e-07
0.000121493
2.40603e-07
0.00012178
1.49147e-07
0.000122064
4.10905e-08
0.00012234
-7.4454e-08
0.000122606
-1.90856e-07
0.000122861
-3.0371e-07
0.000123105
-4.10322e-07
0.000123337
-5.09286e-07
0.000123559
-6.00119e-07
0.00012377
-6.82954e-07
0.000123971
-7.58313e-07
0.000124163
-8.26937e-07
0.000124346
-8.89677e-07
0.000124521
-9.47413e-07
0.00012469
-1.00102e-06
0.000124852
-1.05132e-06
0.000125009
-1.09909e-06
0.000125161
-1.14505e-06
0.00012531
-1.18989e-06
0.000125456
-1.23422e-06
0.0001256
-1.27867e-06
0.000125743
-1.3238e-06
0.000125885
-1.3702e-06
0.000126028
-1.41844e-06
0.000126173
-1.46911e-06
0.000126319
-1.5228e-06
0.000126468
-1.58014e-06
-1.64165e-06
0.000126619
0.000123787
3.2615e-08
0.000123912
8.75683e-08
0.000124101
1.10597e-07
0.000124336
9.34888e-08
0.0001246
4.07157e-08
0.00012488
-3.89929e-08
0.000125165
-1.36707e-07
0.000125451
-2.44192e-07
0.000125731
-3.54618e-07
0.000126003
-4.63008e-07
0.000126265
-5.66107e-07
0.000126517
-6.62027e-07
0.000126758
-7.49918e-07
0.000126987
-8.29675e-07
0.000127206
-9.01692e-07
0.000127414
-9.6667e-07
0.000127613
-1.02548e-06
0.000127802
-1.07905e-06
0.000127983
-1.12833e-06
0.000128156
-1.17424e-06
0.000128323
-1.21763e-06
0.000128483
-1.25931e-06
0.000128638
-1.3e-06
0.000128788
-1.34038e-06
0.000128935
-1.38108e-06
0.000129079
-1.42268e-06
0.000129221
-1.46576e-06
0.000129362
-1.51083e-06
0.000129502
-1.55843e-06
0.000129642
-1.60906e-06
0.000129782
-1.66323e-06
0.000129924
-1.72145e-06
-1.78409e-06
0.000130066
0.00012732
-8.70367e-09
0.000127438
-3.08114e-08
0.00012762
-7.07447e-08
0.000127847
-1.34133e-07
0.000128106
-2.18133e-07
0.000128384
-3.16771e-07
0.000128671
-4.23766e-07
0.00012896
-5.33331e-07
0.000129246
-6.40726e-07
0.000129526
-7.42592e-07
0.000129796
-8.36873e-07
0.000130057
-9.22568e-07
0.000130307
-9.99471e-07
0.000130545
-1.06794e-06
0.000130772
-1.12872e-06
0.000130988
-1.18274e-06
0.000131193
-1.23104e-06
0.000131389
-1.27468e-06
0.000131575
-1.31471e-06
0.000131753
-1.35208e-06
0.000131923
-1.3877e-06
0.000132086
-1.4224e-06
0.000132243
-1.4569e-06
0.000132395
-1.49189e-06
0.000132542
-1.52797e-06
0.000132685
-1.56571e-06
0.000132825
-1.60563e-06
0.000132962
-1.64819e-06
0.000133098
-1.69386e-06
0.000133232
-1.74306e-06
0.000133364
-1.79619e-06
0.000133497
-1.85364e-06
-1.9156e-06
0.000133628
0.000130955
-4.86628e-08
0.00013107
-1.45558e-07
0.000131247
-2.47798e-07
0.000131471
-3.58575e-07
0.000131729
-4.75978e-07
0.000132008
-5.961e-07
0.000132299
-7.14864e-07
0.000132595
-8.28644e-07
0.000132889
-9.34645e-07
0.000133177
-1.03109e-06
0.000133457
-1.11718e-06
0.000133728
-1.19285e-06
0.000133987
-1.25863e-06
0.000134234
-1.31542e-06
0.00013447
-1.36436e-06
0.000134694
-1.40668e-06
0.000134907
-1.44365e-06
0.000135108
-1.47648e-06
0.0001353
-1.50631e-06
0.000135482
-1.53419e-06
0.000135655
-1.56106e-06
0.000135821
-1.58777e-06
0.000135979
-1.61507e-06
0.000136131
-1.64361e-06
0.000136277
-1.67399e-06
0.000136418
-1.70673e-06
0.000136554
-1.74229e-06
0.000136687
-1.78108e-06
0.000136817
-1.82349e-06
0.000136944
-1.86985e-06
0.000137068
-1.92044e-06
0.00013719
-1.97556e-06
-2.03526e-06
0.000137309
0.000134695
-8.826e-08
0.000134809
-2.59474e-07
0.000134985
-4.24495e-07
0.000135211
-5.84188e-07
0.000135472
-7.37141e-07
0.000135757
-8.8104e-07
0.000136056
-1.01369e-06
0.000136361
-1.13341e-06
0.000136665
-1.23926e-06
0.000136965
-1.33102e-06
0.000137257
-1.40917e-06
0.000137539
-1.4747e-06
0.000137809
-1.52891e-06
0.000138067
-1.57334e-06
0.000138312
-1.60958e-06
0.000138545
-1.63924e-06
0.000138765
-1.66381e-06
0.000138973
-1.6847e-06
0.00013917
-1.7032e-06
0.000139357
-1.72043e-06
0.000139533
-1.73739e-06
0.0001397
-1.75494e-06
0.000139859
-1.77385e-06
0.00014001
-1.79475e-06
0.000140154
-1.8182e-06
0.000140292
-1.84467e-06
0.000140424
-1.87458e-06
0.000140552
-1.90826e-06
0.000140674
-1.946e-06
0.000140792
-1.98804e-06
0.000140906
-2.03456e-06
0.000141017
-2.08573e-06
-2.14144e-06
0.000141123
0.000138542
-1.28497e-07
0.000138658
-3.75371e-07
0.000138839
-6.04829e-07
0.00013907
-8.15455e-07
0.000139339
-1.00608e-06
0.000139634
-1.17573e-06
0.000139944
-1.32389e-06
0.000140261
-1.45075e-06
0.000140579
-1.55715e-06
0.000140893
-1.6445e-06
0.000141198
-1.71459e-06
0.000141493
-1.76949e-06
0.000141775
-1.8114e-06
0.000142044
-1.84254e-06
0.0001423
-1.86501e-06
0.000142541
-1.88081e-06
0.000142769
-1.89174e-06
0.000142984
-1.89944e-06
0.000143186
-1.90531e-06
0.000143376
-1.91059e-06
0.000143555
-1.91633e-06
0.000143724
-1.92343e-06
0.000143883
-1.93265e-06
0.000144032
-1.9446e-06
0.000144174
-1.95981e-06
0.000144308
-1.9787e-06
0.000144435
-2.0016e-06
0.000144556
-2.02878e-06
0.00014467
-2.06045e-06
0.000144779
-2.09676e-06
0.000144882
-2.13777e-06
0.00014498
-2.18359e-06
-2.23399e-06
0.000145072
0.000142501
-1.70487e-07
0.000142622
-4.96397e-07
0.000142811
-7.93442e-07
0.000143053
-1.05788e-06
0.000143336
-1.28869e-06
0.000143646
-1.48606e-06
0.000143973
-1.65112e-06
0.000144309
-1.78589e-06
0.000144645
-1.89304e-06
0.000144976
-1.97564e-06
0.000145298
-2.03693e-06
0.000145609
-2.08016e-06
0.000145906
-2.10848e-06
0.000146188
-2.12487e-06
0.000146455
-2.13203e-06
0.000146707
-2.13239e-06
0.000146943
-2.12809e-06
0.000147165
-2.12099e-06
0.000147372
-2.11267e-06
0.000147566
-2.10446e-06
0.000147747
-2.09749e-06
0.000147916
-2.09267e-06
0.000148074
-2.09074e-06
0.000148222
-2.09231e-06
0.00014836
-2.09785e-06
0.000148489
-2.10772e-06
0.00014861
-2.1222e-06
0.000148722
-2.14146e-06
0.000148828
-2.16562e-06
0.000148925
-2.19472e-06
0.000149016
-2.22875e-06
0.000149101
-2.26766e-06
-2.31113e-06
0.000149178
0.000146574
-2.15404e-07
0.000146704
-6.25874e-07
0.000146905
-9.95052e-07
0.000147164
-1.31675e-06
0.000147466
-1.59021e-06
0.000147797
-1.81694e-06
0.000148145
-1.99977e-06
0.000148502
-2.14267e-06
0.000148859
-2.25026e-06
0.000149211
-2.32736e-06
0.000149553
-2.37872e-06
0.000149881
-2.40887e-06
0.000150195
-2.42201e-06
0.000150492
-2.42193e-06
0.000150772
-2.41197e-06
0.000151035
-2.39505e-06
0.00015128
-2.37368e-06
0.000151509
-2.34996e-06
0.000151722
-2.32567e-06
0.00015192
-2.30224e-06
0.000152103
-2.28086e-06
0.000152273
-2.26247e-06
0.00015243
-2.24781e-06
0.000152575
-2.23745e-06
0.000152709
-2.23181e-06
0.000152833
-2.23118e-06
0.000152946
-2.23577e-06
0.000153051
-2.24568e-06
0.000153146
-2.26093e-06
0.000153233
-2.28149e-06
0.000153311
-2.30725e-06
0.000153382
-2.33811e-06
-2.37364e-06
0.000153444
0.000150765
-2.64977e-07
0.000150908
-7.68661e-07
0.00015113
-1.21698e-06
0.000151414
-1.601e-06
0.000151744
-1.92042e-06
0.000152106
-2.17823e-06
0.000152485
-2.37919e-06
0.000152872
-2.52952e-06
0.000153258
-2.63608e-06
0.000153636
-2.7057e-06
0.000154002
-2.74484e-06
0.000154353
-2.75944e-06
0.000154686
-2.75485e-06
0.000154999
-2.73576e-06
0.000155294
-2.7062e-06
0.000155568
-2.66961e-06
0.000155823
-2.62888e-06
0.00015606
-2.58638e-06
0.000156278
-2.54404e-06
0.000156479
-2.50343e-06
0.000156664
-2.46578e-06
0.000156834
-2.43204e-06
0.000156989
-2.40293e-06
0.000157131
-2.37899e-06
0.000157259
-2.36057e-06
0.000157376
-2.34791e-06
0.000157481
-2.34112e-06
0.000157576
-2.34022e-06
0.00015766
-2.34514e-06
0.000157734
-2.35575e-06
0.000157799
-2.37183e-06
0.000157854
-2.39317e-06
-2.41923e-06
0.0001579
0.000155077
-3.20612e-07
0.000155237
-9.28897e-07
0.000155485
-1.46464e-06
0.0001558
-1.91625e-06
0.000156165
-2.28472e-06
0.000156562
-2.57513e-06
0.000156977
-2.79449e-06
0.000157399
-2.95153e-06
0.000157818
-3.05558e-06
0.000158228
-3.11563e-06
0.000158624
-3.14002e-06
0.000159
-3.13627e-06
0.000159357
-3.11101e-06
0.000159691
-3.06991e-06
0.000160002
-3.01778e-06
0.000160291
-2.95865e-06
0.000160558
-2.89579e-06
0.000160804
-2.83187e-06
0.000161029
-2.76902e-06
0.000161234
-2.70891e-06
0.000161421
-2.6528e-06
0.000161591
-2.60167e-06
0.000161744
-2.5562e-06
0.000161882
-2.51687e-06
0.000162005
-2.48397e-06
0.000162115
-2.45767e-06
0.000162212
-2.43798e-06
0.000162297
-2.42484e-06
0.00016237
-2.4181e-06
0.000162431
-2.41754e-06
0.000162482
-2.42287e-06
0.000162523
-2.43385e-06
-2.44984e-06
0.000162554
0.000159517
-3.8656e-07
0.000159705
-1.11759e-06
0.000159995
-1.75408e-06
0.00016036
-2.28113e-06
0.000160777
-2.70208e-06
0.000161227
-3.02509e-06
0.000161693
-3.26048e-06
0.000162162
-3.42052e-06
0.000162624
-3.51769e-06
0.000163072
-3.56359e-06
0.000163501
-3.56868e-06
0.000163907
-3.54222e-06
0.000164288
-3.49214e-06
0.000164643
-3.42518e-06
0.000164972
-3.34691e-06
0.000165275
-3.26191e-06
0.000165553
-3.17386e-06
0.000165807
-3.0857e-06
0.000166038
-2.99971e-06
0.000166247
-2.91766e-06
0.000166435
-2.84085e-06
0.000166603
-2.77021e-06
0.000166753
-2.70641e-06
0.000166886
-2.64985e-06
0.000167003
-2.60075e-06
0.000167105
-2.55917e-06
0.000167192
-2.52505e-06
0.000167265
-2.49822e-06
0.000167326
-2.47843e-06
0.000167373
-2.46538e-06
0.000167409
-2.45865e-06
0.000167433
-2.45788e-06
-2.46232e-06
0.000167446
0.000164082
-4.62576e-07
0.000164301
-1.3368e-06
0.000164635
-2.08731e-06
0.000165051
-2.69804e-06
0.000165526
-3.17685e-06
0.000166036
-3.5352e-06
0.000166563
-3.78679e-06
0.00016709
-3.94787e-06
0.000167607
-4.03462e-06
0.000168105
-4.06175e-06
0.000168579
-4.04233e-06
0.000169024
-3.98767e-06
0.000169439
-3.90735e-06
0.000169824
-3.80929e-06
0.000170177
-3.69995e-06
0.000170499
-3.58455e-06
0.000170793
-3.46718e-06
0.000171058
-3.35103e-06
0.000171297
-3.23854e-06
0.000171511
-3.13152e-06
0.000171701
-3.03126e-06
0.000171869
-2.93866e-06
0.000172017
-2.85429e-06
0.000172146
-2.77846e-06
0.000172256
-2.71129e-06
0.00017235
-2.65274e-06
0.000172428
-2.60263e-06
0.00017249
-2.56072e-06
0.000172538
-2.52665e-06
0.000172573
-2.50005e-06
0.000172595
-2.48045e-06
0.000172604
-2.46744e-06
-2.46019e-06
0.000172602
0.000168795
-5.66003e-07
0.000169081
-1.62242e-06
0.000169502
-2.50844e-06
0.000170013
-3.20899e-06
0.000170579
-3.743e-06
0.000171173
-4.12944e-06
0.000171775
-4.3883e-06
0.000172369
-4.54159e-06
0.000172944
-4.60976e-06
0.000173493
-4.61069e-06
0.00017401
-4.55998e-06
0.000174494
-4.47098e-06
0.000174941
-4.35478e-06
0.000175352
-4.22044e-06
0.000175727
-4.07526e-06
0.000176068
-3.92504e-06
0.000176375
-3.77428e-06
0.00017665
-3.62641e-06
0.000176896
-3.48398e-06
0.000177113
-3.34883e-06
0.000177304
-3.22225e-06
0.000177471
-3.10505e-06
0.000177614
-2.9977e-06
0.000177736
-2.9004e-06
0.000177838
-2.81313e-06
0.000177921
-2.73573e-06
0.000177986
-2.66792e-06
0.000178035
-2.60932e-06
0.000178068
-2.5595e-06
0.000178085
-2.51796e-06
0.000178089
-2.48413e-06
0.000178079
-2.45746e-06
-2.43701e-06
0.000178056
0.000173623
-6.77888e-07
0.000173955
-1.95433e-06
0.000174448
-3.00135e-06
0.000175052
-3.81262e-06
0.000175725
-4.41667e-06
0.000176433
-4.83675e-06
0.000177145
-5.10046e-06
0.000177842
-5.23837e-06
0.000178509
-5.27736e-06
0.000179139
-5.24009e-06
0.000179724
-5.14589e-06
0.000180264
-5.01083e-06
0.000180757
-4.84793e-06
0.000181205
-4.6676e-06
0.000181607
-4.47802e-06
0.000181968
-4.28554e-06
0.000182289
-4.09497e-06
0.000182572
-3.90986e-06
0.000182821
-3.73278e-06
0.000183037
-3.56548e-06
0.000183224
-3.40912e-06
0.000183384
-3.26434e-06
0.000183517
-3.13142e-06
0.000183627
-3.01038e-06
0.000183715
-2.90103e-06
0.000183783
-2.80303e-06
0.000183831
-2.71597e-06
0.000183861
-2.63934e-06
0.000183874
-2.57264e-06
0.000183871
-2.51531e-06
0.000183854
-2.46674e-06
0.000183823
-2.42641e-06
-2.39322e-06
0.000183779
0.000178683
-8.92116e-07
0.000179192
-2.46389e-06
0.000179867
-3.67615e-06
0.000180628
-4.57304e-06
0.000181432
-5.22087e-06
0.000182247
-5.65219e-06
0.00018305
-5.90305e-06
0.000183823
-6.01155e-06
0.000184555
-6.00934e-06
0.000185238
-5.9231e-06
0.000185868
-5.77563e-06
0.000186443
-5.58567e-06
0.000186963
-5.36816e-06
0.00018743
-5.13489e-06
0.000187847
-4.89493e-06
0.000188217
-4.65516e-06
0.000188542
-4.4206e-06
0.000188827
-4.19488e-06
0.000189075
-3.98046e-06
0.000189288
-3.77891e-06
0.00018947
-3.59115e-06
0.000189624
-3.41756e-06
0.00018975
-3.25816e-06
0.000189853
-3.1127e-06
0.000189932
-2.98075e-06
0.000189991
-2.86177e-06
0.00019003
-2.75513e-06
0.000190051
-2.66022e-06
0.000190055
-2.57641e-06
0.000190043
-2.50309e-06
0.000190016
-2.43965e-06
0.000189975
-2.38555e-06
-2.33959e-06
0.000189921
0.000183746
-1.07101e-06
0.000184339
-3.05699e-06
0.000185175
-4.51136e-06
0.000186148
-5.54688e-06
0.000187179
-6.25114e-06
0.000188202
-6.67534e-06
0.000189184
-6.88508e-06
0.00019011
-6.93735e-06
0.000190973
-6.87269e-06
0.000191773
-6.72298e-06
0.000192511
-6.51393e-06
0.000193191
-6.26543e-06
0.000193816
-5.99281e-06
0.000194389
-5.70781e-06
0.000194913
-5.41934e-06
0.000195392
-5.13402e-06
0.000195828
-4.8567e-06
0.000196224
-4.5908e-06
0.000196582
-4.33865e-06
0.000196905
-4.10168e-06
0.000197194
-3.88066e-06
0.000197453
-3.67582e-06
0.000197681
-3.48703e-06
0.000197883
-3.3139e-06
0.000198058
-3.15583e-06
0.000198208
-3.01214e-06
0.000198335
-2.88211e-06
0.00019844
-2.76503e-06
0.000198524
-2.66032e-06
0.000198588
-2.56741e-06
0.000198635
-2.4861e-06
0.000198665
-2.41596e-06
-2.35691e-06
0.000198682
0.000189418
-1.67736e-06
0.000190408
-4.04697e-06
0.000191493
-5.59615e-06
0.000192656
-6.70948e-06
0.000193902
-7.49771e-06
0.000195211
-7.98434e-06
0.000196562
-8.23567e-06
0.00019793
-8.30574e-06
0.00019929