/*--------------------------------*- C++ -*----------------------------------*\
| =========                 |                                                 |
| \\      /  F ield         | OpenFOAM: The Open Source CFD Toolbox           |
|  \\    /   O peration     | Version:  2.1.1                                 |
|   \\  /    A nd           | Web:      www.OpenFOAM.org                      |
|    \\/     M anipulation  |                                                 |
\*---------------------------------------------------------------------------*/
FoamFile
{
    version     2.0;
    format      ascii;
    class       volVectorField;
    location    "0.03";
    object      U;
}
// * * * * * * * * * * * * * * * * * * * * * * * * * * * * * * * * * * * * * //

dimensions      [0 1 -1 0 0 0 0];

internalField   nonuniform List<vector> 
6820
(
(6.376 0.503745 0)
(4.4243 0.286869 0)
(2.9735 0.0202098 0)
(2.23424 -0.0619102 0)
(1.96864 -0.0599859 0)
(1.84184 -0.0345601 0)
(1.76701 -0.0151407 0)
(1.71502 -0.00475519 0)
(1.67185 -4.05164e-05 0)
(1.63443 0.001484 0)
(1.6022 0.00148631 0)
(1.57467 0.000902664 0)
(1.55133 0.000165717 0)
(1.53164 -0.000535603 0)
(1.51506 -0.0011272 0)
(1.50113 -0.00159135 0)
(1.48945 -0.00193574 0)
(1.4797 -0.00217693 0)
(1.4716 -0.00233218 0)
(1.46491 -0.00241621 0)
(1.45943 -0.00244058 0)
(1.45498 -0.002414 0)
(1.45138 -0.00234334 0)
(1.4485 -0.00223379 0)
(1.44616 -0.00209024 0)
(1.44423 -0.00190984 0)
(1.44248 -0.00170618 0)
(1.44094 -0.00144405 0)
(1.43902 -0.00127944 0)
(1.43833 -0.000773108 0)
(1.43385 -0.00163403 0)
(1.44225 0.00259836 0)
(1.41345 -0.0255715 0)
(8.72021 0.95963 0)
(8.76472 1.01193 0)
(7.96874 0.679003 0)
(7.05522 0.393866 0)
(6.35425 0.202381 0)
(5.84807 0.103238 0)
(5.48649 0.0577049 0)
(5.2257 0.0371422 0)
(5.03074 0.02787 0)
(4.87944 0.0232529 0)
(4.7584 0.0204422 0)
(4.65927 0.0183866 0)
(4.57668 0.0166943 0)
(4.50703 0.0152038 0)
(4.44782 0.0138381 0)
(4.39722 0.0125592 0)
(4.35388 0.0113496 0)
(4.31673 0.0102027 0)
(4.28493 0.00911707 0)
(4.2578 0.00809529 0)
(4.23478 0.00714227 0)
(4.21538 0.00626298 0)
(4.19918 0.00546175 0)
(4.18581 0.00474989 0)
(4.17492 0.00414768 0)
(4.16618 0.00367931 0)
(4.15931 0.00331849 0)
(4.15406 0.00309612 0)
(4.15014 0.00276211 0)
(4.1477 0.00281137 0)
(4.14588 0.00112972 0)
(4.14779 0.000964166 0)
(4.14916 -0.00931137 0)
(8.58611 0.58348 0)
(9.33123 0.762325 0)
(9.61427 0.660105 0)
(9.50414 0.526452 0)
(9.23787 0.396838 0)
(8.92544 0.29888 0)
(8.61976 0.229932 0)
(8.34406 0.180392 0)
(8.10261 0.144283 0)
(7.89318 0.117429 0)
(7.71207 0.0969182 0)
(7.55545 0.08089 0)
(7.41981 0.0681299 0)
(7.30213 0.0578121 0)
(7.19988 0.049345 0)
(7.11091 0.0422903 0)
(7.03342 0.0363229 0)
(6.96592 0.0312029 0)
(6.90713 0.0267541 0)
(6.85599 0.0228476 0)
(6.81158 0.0193903 0)
(6.77312 0.0163146 0)
(6.73992 0.0135738 0)
(6.71139 0.0111408 0)
(6.68699 0.00900184 0)
(6.66623 0.00714824 0)
(6.64868 0.00555232 0)
(6.63395 0.00421236 0)
(6.62159 0.00298701 0)
(6.61125 0.00198846 0)
(6.60232 3.38344e-05 0)
(6.59379 -0.00200374 0)
(6.58433 -0.00947898 0)
(8.44092 0.379704 0)
(8.94584 0.584051 0)
(9.35818 0.554565 0)
(9.58576 0.487023 0)
(9.69973 0.407005 0)
(9.73557 0.337733 0)
(9.7199 0.28507 0)
(9.67507 0.244692 0)
(9.61401 0.212964 0)
(9.54405 0.187303 0)
(9.46994 0.165863 0)
(9.39482 0.14752 0)
(9.32073 0.131565 0)
(9.24918 0.117507 0)
(9.18109 0.105021 0)
(9.11704 0.0938669 0)
(9.05729 0.0838539 0)
(9.00197 0.0748237 0)
(8.95107 0.0666467 0)
(8.90448 0.059218 0)
(8.86205 0.052454 0)
(8.8236 0.0462898 0)
(8.7889 0.0406771 0)
(8.75771 0.0355849 0)
(8.72978 0.0309961 0)
(8.70486 0.0269019 0)
(8.68267 0.0232819 0)
(8.66293 0.0201324 0)
(8.6453 0.0173702 0)
(8.62938 0.0150517 0)
(8.61464 0.0127339 0)
(8.59962 0.0108609 0)
(8.58398 0.00889142 0)
(8.40213 0.280078 0)
(8.71891 0.4807 0)
(8.99869 0.461928 0)
(9.174 0.404411 0)
(9.2983 0.342343 0)
(9.39148 0.289828 0)
(9.46026 0.250692 0)
(9.5128 0.220936 0)
(9.55391 0.197246 0)
(9.58597 0.177724 0)
(9.61072 0.161111 0)
(9.62954 0.146619 0)
(9.64359 0.133769 0)
(9.65351 0.122226 0)
(9.66 0.111744 0)
(9.66373 0.102135 0)
(9.66528 0.0932602 0)
(9.66514 0.0850159 0)
(9.66374 0.0773233 0)
(9.6614 0.0701252 0)
(9.65843 0.0633816 0)
(9.65504 0.0570672 0)
(9.65141 0.05117 0)
(9.64768 0.0456913 0)
(9.64393 0.0406423 0)
(9.64024 0.0360407 0)
(9.63662 0.0319021 0)
(9.63305 0.0282584 0)
(9.62942 0.0251207 0)
(9.62554 0.022575 0)
(9.62106 0.0205979 0)
(9.61513 0.0196588 0)
(9.60727 0.0201805 0)
(8.37747 0.202195 0)
(8.6013 0.383594 0)
(8.81565 0.390677 0)
(8.94653 0.356289 0)
(9.03221 0.311906 0)
(9.09476 0.268346 0)
(9.14141 0.232394 0)
(9.17941 0.203724 0)
(9.21298 0.180546 0)
(9.24348 0.161523 0)
(9.27151 0.145562 0)
(9.29741 0.131839 0)
(9.32136 0.119814 0)
(9.34361 0.109134 0)
(9.36428 0.0995156 0)
(9.38345 0.0907495 0)
(9.4012 0.0826842 0)
(9.41758 0.0752096 0)
(9.43267 0.0682457 0)
(9.44653 0.0617357 0)
(9.45924 0.055642 0)
(9.47084 0.0499429 0)
(9.4814 0.044631 0)
(9.49097 0.0397128 0)
(9.4996 0.0352068 0)
(9.50731 0.0311426 0)
(9.51413 0.0275567 0)
(9.52006 0.0245054 0)
(9.52503 0.0220541 0)
(9.52896 0.0203437 0)
(9.53164 0.0195466 0)
(9.53284 0.020184 0)
(9.53224 0.022874 0)
(8.36127 0.148828 0)
(8.52267 0.311402 0)
(8.69731 0.337037 0)
(8.81196 0.317491 0)
(8.88643 0.28424 0)
(8.93936 0.24801 0)
(8.97692 0.216296 0)
(9.0053 0.190304 0)
(9.02892 0.168873 0)
(9.04968 0.150964 0)
(9.06852 0.13574 0)
(9.08604 0.122546 0)
(9.10256 0.110922 0)
(9.11823 0.100542 0)
(9.13316 0.0911743 0)
(9.14742 0.0826465 0)
(9.16103 0.0748278 0)
(9.17402 0.0676173 0)
(9.1864 0.0609379 0)
(9.19818 0.0547331 0)
(9.20935 0.0489639 0)
(9.21992 0.0436075 0)
(9.2299 0.0386554 0)
(9.23928 0.0341133 0)
(9.24806 0.0300002 0)
(9.25625 0.0263487 0)
(9.26384 0.0232045 0)
(9.27079 0.0206385 0)
(9.27707 0.0187471 0)
(9.2826 0.0176988 0)
(9.28728 0.0177157 0)
(9.29103 0.0192878 0)
(9.29379 0.0228136 0)
(8.35115 0.111396 0)
(8.46735 0.251594 0)
(8.60803 0.286455 0)
(8.70963 0.278257 0)
(8.7793 0.255898 0)
(8.83078 0.228412 0)
(8.8684 0.202234 0)
(8.8967 0.179473 0)
(8.91964 0.159871 0)
(8.93922 0.142953 0)
(8.95651 0.128273 0)
(8.97221 0.115394 0)
(8.98674 0.103968 0)
(9.00037 0.0937325 0)
(9.01325 0.0844872 0)
(9.02551 0.0760707 0)
(9.03722 0.0683555 0)
(9.04843 0.0612431 0)
(9.05919 0.054659 0)
(9.06951 0.048549 0)
(9.07942 0.0428764 0)
(9.08893 0.0376202 0)
(9.09805 0.0327739 0)
(9.10679 0.0283449 0)
(9.11516 0.0243548 0)
(9.12315 0.0208409 0)
(9.13076 0.0178573 0)
(9.13798 0.0154845 0)
(9.14478 0.0138349 0)
(9.15113 0.0130835 0)
(9.15701 0.0134633 0)
(9.16244 0.0153903 0)
(9.16751 0.0191796 0)
(8.34486 0.0847207 0)
(8.42932 0.20371 0)
(8.54202 0.243661 0)
(8.63061 0.24436 0)
(8.69444 0.23018 0)
(8.74334 0.209152 0)
(8.78056 0.187131 0)
(8.80932 0.166962 0)
(8.83289 0.149084 0)
(8.85308 0.133356 0)
(8.87087 0.119527 0)
(8.88694 0.107285 0)
(8.90173 0.0963501 0)
(8.91552 0.0864992 0)
(8.9285 0.0775571 0)
(8.94078 0.0693834 0)
(8.95248 0.0618682 0)
(8.96366 0.0549265 0)
(8.97437 0.0484938 0)
(8.98466 0.0425227 0)
(8.99454 0.0369813 0)
(9.00405 0.0318518 0)
(9.01321 0.0271302 0)
(9.02203 0.0228258 0)
(9.03054 0.0189625 0)
(9.03875 0.0155796 0)
(9.04667 0.0127351 0)
(9.05431 0.010513 0)
(9.06169 0.00902923 0)
(9.06882 0.00844968 0)
(9.07575 0.00898796 0)
(9.0826 0.0109819 0)
(9.08953 0.0146625 0)
(8.34093 0.0654767 0)
(8.40301 0.165377 0)
(8.4931 0.206558 0)
(8.56964 0.213127 0)
(8.62758 0.204971 0)
(8.67349 0.189407 0)
(8.70972 0.171498 0)
(8.73842 0.15418 0)
(8.76218 0.138265 0)
(8.78263 0.123863 0)
(8.80069 0.110923 0)
(8.81699 0.0992869 0)
(8.83198 0.0887759 0)
(8.84595 0.0792315 0)
(8.85909 0.0705201 0)
(8.87152 0.0625285 0)
(8.88336 0.0551635 0)
(8.89468 0.0483497 0)
(8.90552 0.0420282 0)
(8.91594 0.036155 0)
(8.92598 0.0307004 0)
(8.93565 0.0256475 0)
(8.945 0.0209929 0)
(8.95405 0.016746 0)
(8.96283 0.0129301 0)
(8.97136 0.00958419 0)
(8.97968 0.00676495 0)
(8.98782 0.00455151 0)
(8.99583 0.00305021 0)
(9.00377 0.00240703 0)
(9.01173 0.00280104 0)
(9.01989 0.0044912 0)
(9.02846 0.00761724 0)
(8.33845 0.0513213 0)
(8.38466 0.134563 0)
(8.45673 0.17458 0)
(8.52252 0.185105 0)
(8.57485 0.181629 0)
(8.61766 0.170559 0)
(8.65253 0.156158 0)
(8.68085 0.141278 0)
(8.70459 0.127041 0)
(8.72517 0.113806 0)
(8.74343 0.101688 0)
(8.75994 0.0906549 0)
(8.77514 0.0806023 0)
(8.78929 0.0714179 0)
(8.80258 0.0629964 0)
(8.81517 0.0552431 0)
(8.82715 0.0480771 0)
(8.83861 0.0414317 0)
(8.84959 0.0352543 0)
(8.86016 0.0295054 0)
(8.87035 0.0241579 0)
(8.88021 0.0191966 0)
(8.88977 0.014618 0)
(8.89906 0.0104311 0)
(8.90813 0.00665722 0)
(8.91702 0.00333141 0)
(8.92577 0.000504814 0)
(8.93443 -0.001753 0)
(8.94308 -0.00335151 0)
(8.95182 -0.00417284 0)
(8.96076 -0.004081 0)
(8.97013 -0.00289088 0)
(8.98011 -0.000536948 0)
(8.33686 0.0407004 0)
(8.37175 0.109734 0)
(8.42955 0.14709 0)
(8.48584 0.159871 0)
(8.53285 0.159686 0)
(8.57254 0.152057 0)
(8.60586 0.140598 0)
(8.63362 0.127951 0)
(8.65726 0.115377 0)
(8.67794 0.103375 0)
(8.69639 0.092164 0)
(8.71312 0.0818013 0)
(8.72853 0.0722514 0)
(8.74288 0.0634488 0)
(8.75637 0.0553215 0)
(8.76913 0.0477991 0)
(8.78128 0.0408171 0)
(8.79289 0.0343203 0)
(8.80404 0.0282633 0)
(8.81477 0.0226107 0)
(8.82514 0.0173376 0)
(8.83519 0.0124289 0)
(8.84496 0.00788027 0)
(8.8545 0.00369769 0)
(8.86385 -0.00010191 0)
(8.87307 -0.0034896 0)
(8.88222 -0.00642381 0)
(8.89137 -0.00884838 0)
(8.9006 -0.0106925 0)
(8.91004 -0.0118707 0)
(8.91982 -0.0122914 0)
(8.93017 -0.0118357 0)
(8.94128 -0.0104945 0)
(8.33582 0.0325633 0)
(8.36256 0.0895973 0)
(8.40912 0.123438 0)
(8.4572 0.137185 0)
(8.49926 0.13926 0)
(8.53589 0.134291 0)
(8.56753 0.125298 0)
(8.59455 0.114618 0)
(8.61794 0.103537 0)
(8.63862 0.0926538 0)
(8.65719 0.082275 0)
(8.67411 0.0725349 0)
(8.68972 0.0634609 0)
(8.70429 0.05503 0)
(8.71799 0.0471991 0)
(8.73095 0.0399171 0)
(8.74329 0.0331328 0)
(8.75509 0.0267989 0)
(8.76642 0.0208752 0)
(8.77734 0.0153292 0)
(8.78789 0.0101367 0)
(8.79814 0.0052824 0)
(8.80813 0.000759583 0)
(8.81791 -0.00342942 0)
(8.82754 -0.00727313 0)
(8.83708 -0.0107504 0)
(8.8466 -0.0138309 0)
(8.85618 -0.016475 0)
(8.86592 -0.0186348 0)
(8.87596 -0.0202552 0)
(8.88643 -0.0212845 0)
(8.89756 -0.0216586 0)
(8.9095 -0.021416 0)
(8.33513 0.0261968 0)
(8.35594 0.0731377 0)
(8.3937 0.103073 0)
(8.43474 0.116812 0)
(8.47228 0.120274 0)
(8.50597 0.117223 0)
(8.53586 0.110171 0)
(8.562 0.101142 0)
(8.58502 0.0913827 0)
(8.60561 0.0815434 0)
(8.62425 0.0719804 0)
(8.64133 0.0628781 0)
(8.65714 0.054307 0)
(8.67192 0.0462765 0)
(8.68582 0.0387672 0)
(8.69899 0.0317451 0)
(8.71153 0.0251711 0)
(8.72351 0.0190067 0)
(8.73502 0.013217 0)
(8.74612 0.00777232 0)
(8.75685 0.0026494 0)
(8.76729 -0.0021683 0)
(8.77748 -0.00669025 0)
(8.78748 -0.0109187 0)
(8.79735 -0.0148487 0)
(8.80716 -0.0184689 0)
(8.817 -0.0217617 0)
(8.82694 -0.0247042 0)
(8.83709 -0.0272707 0)
(8.84759 -0.0294349 0)
(8.85857 -0.0311799 0)
(8.87024 -0.0324864 0)
(8.88274 -0.0334264 0)
(8.33465 0.0211126 0)
(8.35112 0.0595525 0)
(8.38198 0.0854784 0)
(8.41708 0.0984978 0)
(8.45055 0.102645 0)
(8.48149 0.100906 0)
(8.50962 0.0953502 0)
(8.5348 0.0876943 0)
(8.55736 0.0790903 0)
(8.57778 0.0701931 0)
(8.59643 0.0613843 0)
(8.61361 0.0528811 0)
(8.62959 0.0447879 0)
(8.64455 0.0371421 0)
(8.65865 0.0299451 0)
(8.67201 0.0231783 0)
(8.68474 0.0168134 0)
(8.69691 0.0108187 0)
(8.7086 0.00516329 0)
(8.71987 -0.000180783 0)
(8.73078 -0.00523709 0)
(8.74139 -0.0100241 0)
(8.75176 -0.0145547 0)
(8.76195 -0.0188367 0)
(8.77203 -0.022873 0)
(8.78208 -0.0266618 0)
(8.79216 -0.0301985 0)
(8.80238 -0.0334766 0)
(8.81284 -0.0364907 0)
(8.82366 -0.0392395 0)
(8.83498 -0.0417347 0)
(8.84699 -0.0439916 0)
(8.85978 -0.0461028 0)
(8.33431 0.0169711 0)
(8.34755 0.0482128 0)
(8.37304 0.0702039 0)
(8.40318 0.0820015 0)
(8.43303 0.0862741 0)
(8.46142 0.0853307 0)
(8.48787 0.0808545 0)
(8.51204 0.0742793 0)
(8.53407 0.0666368 0)
(8.55425 0.0585598 0)
(8.57285 0.0504359 0)
(8.59011 0.0424988 0)
(8.60622 0.0348739 0)
(8.62135 0.0276174 0)
(8.63563 0.0207452 0)
(8.64918 0.0142496 0)
(8.66209 0.00811011 0)
(8.67443 0.00230005 0)
(8.68629 -0.00320876 0)
(8.69771 -0.00844345 0)
(8.70878 -0.0134284 0)
(8.71954 -0.0181844 0)
(8.73006 -0.0227287 0)
(8.74041 -0.0270748 0)
(8.75065 -0.0312334 0)
(8.76086 -0.0352126 0)
(8.77112 -0.03902 0)
(8.78152 -0.042664 0)
(8.79217 -0.0461573 0)
(8.80317 -0.0495189 0)
(8.81465 -0.0527826 0)
(8.82677 -0.0559894 0)
(8.83961 -0.0592423 0)
(8.33407 0.0135326 0)
(8.3449 0.0386269 0)
(8.36618 0.0568519 0)
(8.39222 0.0670871 0)
(8.41892 0.0710439 0)
(8.445 0.0704655 0)
(8.46984 0.0667053 0)
(8.49302 0.0609451 0)
(8.51448 0.0540845 0)
(8.53439 0.0467109 0)
(8.5529 0.0391991 0)
(8.57019 0.0317847 0)
(8.58641 0.0246029 0)
(8.60168 0.0177216 0)
(8.61613 0.0111668 0)
(8.62985 0.00493906 0)
(8.64292 -0.00097645 0)
(8.65542 -0.00660259 0)
(8.66743 -0.0119657 0)
(8.679 -0.0170926 0)
(8.6902 -0.0220092 0)
(8.70108 -0.0267393 0)
(8.71173 -0.0313045 0)
(8.72219 -0.0357243 0)
(8.73254 -0.0400166 0)
(8.74285 -0.0441989 0)
(8.75321 -0.0482897 0)
(8.76369 -0.0523105 0)
(8.77441 -0.0562883 0)
(8.78545 -0.0602581 0)
(8.79693 -0.0642694 0)
(8.80898 -0.0683803 0)
(8.82165 -0.0726972 0)
(8.33389 0.010624 0)
(8.3429 0.0304096 0)
(8.3609 0.0450777 0)
(8.38358 0.0535299 0)
(8.40757 0.056827 0)
(8.4316 0.0562577 0)
(8.45497 0.0528948 0)
(8.47719 0.0477003 0)
(8.49808 0.0414409 0)
(8.51768 0.0346448 0)
(8.53609 0.0276622 0)
(8.55338 0.0207201 0)
(8.56968 0.0139549 0)
(8.58508 0.0074392 0)
(8.59967 0.00120421 0)
(8.61354 -0.00474543 0)
(8.62677 -0.0104215 0)
(8.63942 -0.0158453 0)
(8.65156 -0.0210429 0)
(8.66324 -0.0260425 0)
(8.67455 -0.0308722 0)
(8.68553 -0.0355593 0)
(8.69624 -0.04013 0)
(8.70677 -0.0446098 0)
(8.71717 -0.0490235 0)
(8.72751 -0.053397 0)
(8.73788 -0.0577584 0)
(8.74836 -0.0621395 0)
(8.75902 -0.0665788 0)
(8.76997 -0.0711228 0)
(8.78128 -0.075831 0)
(8.79308 -0.0807726 0)
(8.80539 -0.0860507 0)
(8.33375 0.00811734 0)
(8.34138 0.0232573 0)
(8.35684 0.0345834 0)
(8.37679 0.0411159 0)
(8.39849 0.0434881 0)
(8.42073 0.0426346 0)
(8.44278 0.0393941 0)
(8.46411 0.03454 0)
(8.48446 0.0287127 0)
(8.50376 0.0223735 0)
(8.52204 0.015838 0)
(8.53933 0.00931514 0)
(8.5557 0.00293411 0)
(8.57121 -0.00323435 0)
(8.58594 -0.00915897 0)
(8.59995 -0.0148343 0)
(8.61332 -0.0202716 0)
(8.62609 -0.0254923 0)
(8.63834 -0.0305234 0)
(8.65013 -0.0353947 0)
(8.66151 -0.040137 0)
(8.67254 -0.044781 0)
(8.6833 -0.0493574 0)
(8.69384 -0.0538967 0)
(8.70423 -0.0584302 0)
(8.71454 -0.0629904 0)
(8.72484 -0.0676129 0)
(8.73521 -0.0723377 0)
(8.74571 -0.0772108 0)
(8.75643 -0.0822863 0)
(8.76745 -0.087629 0)
(8.77884 -0.0933128 0)
(8.79063 -0.0994339 0)
(8.33365 0.005916 0)
(8.34024 0.016928 0)
(8.35372 0.0251115 0)
(8.37149 0.0296437 0)
(8.39128 0.0308872 0)
(8.412 0.029509 0)
(8.43291 0.0261561 0)
(8.45344 0.0214422 0)
(8.47329 0.0158914 0)
(8.49232 0.00989548 0)
(8.51049 0.0037291 0)
(8.52777 -0.0024229 0)
(8.5442 -0.00844498 0)
(8.55981 -0.0142736 0)
(8.57466 -0.0198813 0)
(8.5888 -0.0252656 0)
(8.60229 -0.0304398 0)
(8.61517 -0.0354276 0)
(8.62751 -0.0402585 0)
(8.63936 -0.0449653 0)
(8.65078 -0.0495821 0)
(8.66184 -0.0541439 0)
(8.67259 -0.0586856 0)
(8.68309 -0.0632429 0)
(8.69341 -0.0678523 0)
(8.70361 -0.0725523 0)
(8.71376 -0.0773841 0)
(8.72392 -0.0823933 0)
(8.73416 -0.087631 0)
(8.74454 -0.0931552 0)
(8.75513 -0.0990325 0)
(8.76599 -0.105338 0)
(8.77713 -0.112157 0)
(8.33357 0.00394458 0)
(8.33937 0.011226 0)
(8.35134 0.0164379 0)
(8.36739 0.0189226 0)
(8.38564 0.0188789 0)
(8.4051 0.0167779 0)
(8.42505 0.0131113 0)
(8.44491 0.00835842 0)
(8.46435 0.00293858 0)
(8.48315 -0.00282607 0)
(8.50122 -0.00870592 0)
(8.51852 -0.0145457 0)
(8.53502 -0.0202489 0)
(8.55074 -0.0257641 0)
(8.56572 -0.031072 0)
(8.57998 -0.0361756 0)
(8.59358 -0.041093 0)
(8.60655 -0.0458513 0)
(8.61896 -0.0504835 0)
(8.63086 -0.0550259 0)
(8.6423 -0.0595161 0)
(8.65334 -0.0639925 0)
(8.66404 -0.0684942 0)
(8.67446 -0.0730608 0)
(8.68464 -0.0777329 0)
(8.69467 -0.082553 0)
(8.70459 -0.0875663 0)
(8.71446 -0.0928214 0)
(8.72434 -0.0983718 0)
(8.73428 -0.104276 0)
(8.74434 -0.1106 0)
(8.75455 -0.117414 0)
(8.76493 -0.124794 0)
(8.33351 0.00214248 0)
(8.33873 0.00598913 0)
(8.34956 0.00836508 0)
(8.36429 0.00877136 0)
(8.38133 0.00731578 0)
(8.39979 0.0043294 0)
(8.41898 0.000181348 0)
(8.43832 -0.00476033 0)
(8.45742 -0.0101689 0)
(8.47606 -0.015789 0)
(8.49409 -0.0214378 0)
(8.51142 -0.026993 0)
(8.528 -0.0323816 0)
(8.54384 -0.0375686 0)
(8.55893 -0.0425467 0)
(8.57331 -0.047328 0)
(8.587 -0.0519377 0)
(8.60005 -0.056409 0)
(8.61251 -0.0607802 0)
(8.62443 -0.0650921 0)
(8.63585 -0.0693867 0)
(8.64683 -0.0737068 0)
(8.65743 -0.0780951 0)
(8.66771 -0.082595 0)
(8.67771 -0.0872506 0)
(8.68749 -0.0921073 0)
(8.6971 -0.0972125 0)
(8.70661 -0.102617 0)
(8.71605 -0.108373 0)
(8.72546 -0.114539 0)
(8.73489 -0.121176 0)
(8.74438 -0.128352 0)
(8.75391 -0.13613 0)
(8.33347 0.000458867 0)
(8.33826 0.00107878 0)
(8.34827 0.000714322 0)
(8.36204 -0.000986476 0)
(8.37818 -0.00395988 0)
(8.39591 -0.00797252 0)
(8.41454 -0.0127522 0)
(8.43352 -0.0180248 0)
(8.45242 -0.0235461 0)
(8.47099 -0.0291252 0)
(8.48904 -0.0346271 0)
(8.50646 -0.0399654 0)
(8.52317 -0.0450933 0)
(8.53915 -0.0499952 0)
(8.55438 -0.0546782 0)
(8.56888 -0.0591653 0)
(8.58268 -0.06349 0)
(8.59581 -0.0676926 0)
(8.60831 -0.0718168 0)
(8.62022 -0.0759082 0)
(8.6316 -0.0800131 0)
(8.6425 -0.0841777 0)
(8.65296 -0.0884482 0)
(8.66305 -0.0928704 0)
(8.6728 -0.0974907 0)
(8.68228 -0.102356 0)
(8.69153 -0.107515 0)
(8.7006 -0.113016 0)
(8.70952 -0.118912 0)
(8.71834 -0.125258 0)
(8.72707 -0.132109 0)
(8.73575 -0.139526 0)
(8.74437 -0.14756 0)
(8.33344 -0.00114985 0)
(8.33795 -0.00362726 0)
(8.3474 -0.00667931 0)
(8.36051 -0.0105216 0)
(8.37607 -0.0151028 0)
(8.39331 -0.0202538 0)
(8.41161 -0.0257763 0)
(8.43038 -0.0314732 0)
(8.44922 -0.0371727 0)
(8.46781 -0.0427445 0)
(8.48596 -0.0481023 0)
(8.50351 -0.0531982 0)
(8.52038 -0.0580159 0)
(8.53651 -0.0625637 0)
(8.55189 -0.0668676 0)
(8.56652 -0.0709652 0)
(8.58041 -0.0749021 0)
(8.5936 -0.0787278 0)
(8.60611 -0.0824937 0)
(8.618 -0.0862516 0)
(8.6293 -0.0900527 0)
(8.64007 -0.0939473 0)
(8.65036 -0.0979846 0)
(8.66021 -0.102213 0)
(8.66968 -0.10668 0)
(8.67881 -0.111434 0)
(8.68763 -0.116522 0)
(8.69621 -0.121992 0)
(8.70455 -0.127893 0)
(8.71271 -0.134277 0)
(8.72069 -0.141192 0)
(8.72853 -0.148692 0)
(8.73621 -0.156817 0)
(8.33343 -0.0027245 0)
(8.33777 -0.00824408 0)
(8.34691 -0.0139788 0)
(8.35966 -0.0200183 0)
(8.37491 -0.0263059 0)
(8.39196 -0.0327175 0)
(8.41016 -0.0391151 0)
(8.42895 -0.0453698 0)
(8.44789 -0.0513759 0)
(8.46666 -0.0570607 0)
(8.48503 -0.0623853 0)
(8.50281 -0.0673402 0)
(8.51992 -0.0719397 0)
(8.53628 -0.0762162 0)
(8.55186 -0.0802144 0)
(8.56664 -0.0839873 0)
(8.58065 -0.0875922 0)
(8.5939 -0.0910882 0)
(8.60643 -0.0945344 0)
(8.61828 -0.0979888 0)
(8.62949 -0.101507 0)
(8.64011 -0.105144 0)
(8.65018 -0.108951 0)
(8.65977 -0.112978 0)
(8.6689 -0.117273 0)
(8.67762 -0.121885 0)
(8.68597 -0.126859 0)
(8.69399 -0.132241 0)
(8.70172 -0.138077 0)
(8.70916 -0.14441 0)
(8.71635 -0.151286 0)
(8.72329 -0.158749 0)
(8.72998 -0.166827 0)
(8.33342 -0.00430503 0)
(8.33771 -0.0128834 0)
(8.34676 -0.0213415 0)
(8.35944 -0.0296446 0)
(8.37466 -0.037714 0)
(8.39176 -0.0454502 0)
(8.4101 -0.0527604 0)
(8.4291 -0.0595734 0)
(8.4483 -0.0658461 0)
(8.46736 -0.0715649 0)
(8.48603 -0.0767431 0)
(8.50412 -0.0814163 0)
(8.52152 -0.0856366 0)
(8.53813 -0.0894668 0)
(8.55392 -0.0929767 0)
(8.56888 -0.0962387 0)
(8.583 -0.0993255 0)
(8.59632 -0.102308 0)
(8.60885 -0.105255 0)
(8.62064 -0.108231 0)
(8.63174 -0.111298 0)
(8.64218 -0.114511 0)
(8.65202 -0.117927 0)
(8.6613 -0.121595 0)
(8.67006 -0.125565 0)
(8.67834 -0.129882 0)
(8.68619 -0.134591 0)
(8.69363 -0.139734 0)
(8.7007 -0.145352 0)
(8.70741 -0.151484 0)
(8.71378 -0.158167 0)
(8.71983 -0.16544 0)
(8.72556 -0.17332 0)
(8.33343 -0.00593258 0)
(8.33778 -0.0176668 0)
(8.34697 -0.0289576 0)
(8.35987 -0.0396532 0)
(8.37541 -0.0496547 0)
(8.3929 -0.0588868 0)
(8.41169 -0.0672992 0)
(8.43119 -0.0748744 0)
(8.45091 -0.0816248 0)
(8.47049 -0.0875887 0)
(8.48966 -0.0928254 0)
(8.50822 -0.0974098 0)
(8.52602 -0.101428 0)
(8.54298 -0.104971 0)
(8.55906 -0.108132 0)
(8.57423 -0.111003 0)
(8.58851 -0.113673 0)
(8.6019 -0.116226 0)
(8.61444 -0.118739 0)
(8.62617 -0.121287 0)
(8.63713 -0.123936 0)
(8.64737 -0.126748 0)
(8.65693 -0.129779 0)
(8.66587 -0.133083 0)
(8.67422 -0.136707 0)
(8.68202 -0.140696 0)
(8.68932 -0.145092 0)
(8.69614 -0.149933 0)
(8.7025 -0.155257 0)
(8.70844 -0.161096 0)
(8.71397 -0.167481 0)
(8.71909 -0.174441 0)
(8.7238 -0.181986 0)
(8.33345 -0.00765216 0)
(8.33797 -0.0227157 0)
(8.34753 -0.0369809 0)
(8.36093 -0.050159 0)
(8.37705 -0.0621133 0)
(8.39519 -0.0727795 0)
(8.41466 -0.0821483 0)
(8.43485 -0.0902645 0)
(8.45525 -0.0972126 0)
(8.47549 -0.103101 0)
(8.49527 -0.108052 0)
(8.51438 -0.112196 0)
(8.53267 -0.115662 0)
(8.55005 -0.11858 0)
(8.56647 -0.121069 0)
(8.58191 -0.123246 0)
(8.59636 -0.125214 0)
(8.60985 -0.12707 0)
(8.62242 -0.128902 0)
(8.63409 -0.130789 0)
(8.64492 -0.132803 0)
(8.65496 -0.135007 0)
(8.66424 -0.13746 0)
(8.67283 -0.140213 0)
(8.68076 -0.143314 0)
(8.68807 -0.146805 0)
(8.69481 -0.150726 0)
(8.70099 -0.15511 0)
(8.70666 -0.159989 0)
(8.71184 -0.165391 0)
(8.71654 -0.171339 0)
(8.72077 -0.177859 0)
(8.72455 -0.184951 0)
(8.33348 -0.0095209 0)
(8.33834 -0.0282155 0)
(8.34858 -0.0457551 0)
(8.36291 -0.0617337 0)
(8.3801 -0.0760029 0)
(8.39938 -0.0885183 0)
(8.42002 -0.0992998 0)
(8.44134 -0.108433 0)
(8.46281 -0.116048 0)
(8.48402 -0.122304 0)
(8.50466 -0.127371 0)
(8.52452 -0.131424 0)
(8.54345 -0.134637 0)
(8.56134 -0.137174 0)
(8.57816 -0.13919 0)
(8.59389 -0.140827 0)
(8.60854 -0.142212 0)
(8.62213 -0.14346 0)
(8.6347 -0.144671 0)
(8.64629 -0.145937 0)
(8.65695 -0.147335 0)
(8.66675 -0.148934 0)
(8.67571 -0.150796 0)
(8.68391 -0.152972 0)
(8.69137 -0.155511 0)
(8.69815 -0.158451 0)
(8.70429 -0.161829 0)
(8.70981 -0.165676 0)
(8.71475 -0.170017 0)
(8.71913 -0.174874 0)
(8.72296 -0.180265 0)
(8.72627 -0.186207 0)
(8.72906 -0.192692 0)
(8.33352 -0.0115991 0)
(8.33882 -0.0342815 0)
(8.34998 -0.055281 0)
(8.36549 -0.0740067 0)
(8.38398 -0.0902883 0)
(8.40461 -0.104134 0)
(8.42662 -0.115655 0)
(8.44927 -0.12505 0)
(8.472 -0.132558 0)
(8.49439 -0.138432 0)
(8.51609 -0.142917 0)
(8.53689 -0.146248 0)
(8.55662 -0.148646 0)
(8.5752 -0.15031 0)
(8.59256 -0.15142 0)
(8.60871 -0.152137 0)
(8.62365 -0.152604 0)
(8.63742 -0.152944 0)
(8.65006 -0.153267 0)
(8.66162 -0.153668 0)
(8.67216 -0.154227 0)
(8.68174 -0.155016 0)
(8.69041 -0.156095 0)
(8.69823 -0.157517 0)
(8.70524 -0.159326 0)
(8.7115 -0.161561 0)
(8.71705 -0.164254 0)
(8.72192 -0.16743 0)
(8.72615 -0.171113 0)
(8.72977 -0.17532 0)
(8.7328 -0.180061 0)
(8.73526 -0.185351 0)
(8.73718 -0.191174 0)
(8.3336 -0.0140009 0)
(8.3397 -0.0413869 0)
(8.35244 -0.0666589 0)
(8.37 -0.0891019 0)
(8.39071 -0.108535 0)
(8.41358 -0.124939 0)
(8.43771 -0.138411 0)
(8.46231 -0.149174 0)
(8.48676 -0.157524 0)
(8.51062 -0.163786 0)
(8.5336 -0.168284 0)
(8.55545 -0.17133 0)
(8.57605 -0.173216 0)
(8.59531 -0.174202 0)
(8.6132 -0.174519 0)
(8.62973 -0.174368 0)
(8.64492 -0.173924 0)
(8.65881 -0.173335 0)
(8.67146 -0.172725 0)
(8.68293 -0.172202 0)
(8.69329 -0.171853 0)
(8.7026 -0.171754 0)
(8.71092 -0.171965 0)
(8.71831 -0.172539 0)
(8.72483 -0.173517 0)
(8.73053 -0.174935 0)
(8.73545 -0.17682 0)
(8.73963 -0.179194 0)
(8.74312 -0.182075 0)
(8.74595 -0.185473 0)
(8.74813 -0.189393 0)
(8.74969 -0.193843 0)
(8.75065 -0.1988 0)
(8.33366 -0.0167882 0)
(8.34053 -0.0493032 0)
(8.35488 -0.0785456 0)
(8.37448 -0.103628 0)
(8.39743 -0.124583 0)
(8.42267 -0.141667 0)
(8.44923 -0.155217 0)
(8.47618 -0.165652 0)
(8.50285 -0.173405 0)
(8.52873 -0.178886 0)
(8.55349 -0.182478 0)
(8.57689 -0.184532 0)
(8.59878 -0.185365 0)
(8.61911 -0.185258 0)
(8.63784 -0.184459 0)
(8.655 -0.183182 0)
(8.67064 -0.181612 0)
(8.68483 -0.179907 0)
(8.69762 -0.1782 0)
(8.70911 -0.176602 0)
(8.71937 -0.175206 0)
(8.72847 -0.17409 0)
(8.7365 -0.173316 0)
(8.74351 -0.172934 0)
(8.74958 -0.172988 0)
(8.75475 -0.173508 0)
(8.75909 -0.17452 0)
(8.76265 -0.176044 0)
(8.76545 -0.178091 0)
(8.76755 -0.180671 0)
(8.76898 -0.183783 0)
(8.76977 -0.187432 0)
(8.76996 -0.191587 0)
(8.33391 -0.0203456 0)
(8.34283 -0.0601159 0)
(8.3608 -0.0961818 0)
(8.38458 -0.127327 0)
(8.41156 -0.153338 0)
(8.44047 -0.17425 0)
(8.47024 -0.190375 0)
(8.49994 -0.202274 0)
(8.52893 -0.210581 0)
(8.55679 -0.215906 0)
(8.58319 -0.218818 0)
(8.60796 -0.219831 0)
(8.63097 -0.219388 0)
(8.65219 -0.217867 0)
(8.67161 -0.215585 0)
(8.68929 -0.212807 0)
(8.70527 -0.20975 0)
(8.71965 -0.206589 0)
(8.7325 -0.20347 0)
(8.74391 -0.200507 0)
(8.75398 -0.197795 0)
(8.7628 -0.195406 0)
(8.77043 -0.193399 0)
(8.77698 -0.19182 0)
(8.78249 -0.190703 0)
(8.78705 -0.190077 0)
(8.7907 -0.189959 0)
(8.7935 -0.190365 0)
(8.79551 -0.191302 0)
(8.79676 -0.192773 0)
(8.79729 -0.194774 0)
(8.79713 -0.197302 0)
(8.79631 -0.200322 0)
(8.33387 -0.0244074 0)
(8.34362 -0.0703516 0)
(8.36402 -0.109402 0)
(8.39122 -0.141299 0)
(8.42232 -0.16711 0)
(8.45581 -0.187492 0)
(8.49023 -0.202997 0)
(8.5243 -0.214269 0)
(8.55721 -0.221924 0)
(8.58845 -0.22653 0)
(8.6177 -0.228622 0)
(8.64477 -0.228695 0)
(8.66959 -0.227193 0)
(8.69217 -0.22451 0)
(8.71257 -0.220984 0)
(8.73088 -0.216905 0)
(8.74722 -0.212516 0)
(8.7617 -0.208016 0)
(8.77446 -0.203568 0)
(8.78562 -0.199303 0)
(8.79529 -0.195322 0)
(8.80358 -0.191707 0)
(8.8106 -0.188518 0)
(8.81644 -0.185802 0)
(8.82118 -0.183592 0)
(8.82489 -0.181913 0)
(8.82765 -0.18078 0)
(8.82951 -0.180205 0)
(8.83054 -0.180192 0)
(8.83079 -0.180742 0)
(8.8303 -0.181848 0)
(8.82912 -0.183505 0)
(8.82733 -0.185667 0)
(8.33498 -0.0313048 0)
(8.35136 -0.0926395 0)
(8.38048 -0.146011 0)
(8.41521 -0.189297 0)
(8.45206 -0.222851 0)
(8.49011 -0.247477 0)
(8.52817 -0.264485 0)
(8.56516 -0.275346 0)
(8.60042 -0.281334 0)
(8.63354 -0.28352 0)
(8.66424 -0.282805 0)
(8.69239 -0.27993 0)
(8.71796 -0.275489 0)
(8.741 -0.269961 0)
(8.76163 -0.263729 0)
(8.77997 -0.257096 0)
(8.79617 -0.250305 0)
(8.8104 -0.243545 0)
(8.82281 -0.236966 0)
(8.83355 -0.230681 0)
(8.84275 -0.22478 0)
(8.85056 -0.219326 0)
(8.85707 -0.214367 0)
(8.86241 -0.209939 0)
(8.86664 -0.206063 0)
(8.86986 -0.202756 0)
(8.87213 -0.200028 0)
(8.87353 -0.197884 0)
(8.87409 -0.196326 0)
(8.87389 -0.195356 0)
(8.87296 -0.194968 0)
(8.87137 -0.195159 0)
(8.86915 -0.195876 0)
(8.33403 -0.0363042 0)
(8.34992 -0.0988461 0)
(8.38391 -0.147572 0)
(8.42677 -0.187195 0)
(8.47297 -0.219686 0)
(8.52008 -0.24478 0)
(8.56596 -0.262925 0)
(8.60941 -0.275012 0)
(8.65007 -0.28189 0)
(8.68784 -0.284427 0)
(8.72275 -0.283507 0)
(8.75491 -0.279939 0)
(8.78449 -0.27443 0)
(8.81165 -0.267579 0)
(8.83654 -0.259876 0)
(8.85929 -0.251715 0)
(8.88004 -0.243403 0)
(8.8989 -0.235176 0)
(8.916 -0.227209 0)
(8.93144 -0.219632 0)
(8.94532 -0.212537 0)
(8.95774 -0.205985 0)
(8.96878 -0.200018 0)
(8.97853 -0.194658 0)
(8.98706 -0.189917 0)
(8.99444 -0.185799 0)
(9.00072 -0.182303 0)
(9.00597 -0.179428 0)
(9.01025 -0.177173 0)
(9.0136 -0.175541 0)
(9.0161 -0.174537 0)
(9.01783 -0.174173 0)
(9.01888 -0.174406 0)
(8.3396 -0.0604491 0)
(8.37709 -0.169641 0)
(8.4264 -0.247965 0)
(8.47631 -0.301022 0)
(8.52883 -0.335904 0)
(8.58544 -0.356981 0)
(8.64455 -0.368336 0)
(8.70482 -0.373051 0)
(8.76529 -0.373073 0)
(8.82487 -0.369722 0)
(8.88254 -0.363937 0)
(8.93752 -0.356388 0)
(8.98929 -0.347573 0)
(9.03748 -0.337883 0)
(9.08191 -0.327635 0)
(9.12253 -0.317092 0)
(9.15938 -0.306473 0)
(9.19259 -0.295962 0)
(9.22235 -0.285706 0)
(9.24887 -0.275825 0)
(9.27236 -0.266408 0)
(9.29305 -0.257522 0)
(9.31115 -0.249213 0)
(9.32688 -0.24151 0)
(9.34042 -0.234432 0)
(9.35194 -0.227985 0)
(9.3616 -0.222174 0)
(9.36951 -0.217002 0)
(9.37581 -0.212483 0)
(9.38059 -0.208629 0)
(9.38398 -0.205504 0)
(9.38605 -0.203123 0)
(9.38701 -0.201657 0)
(8.3376 -0.0464875 0)
(8.39353 -0.120823 0)
(8.49383 -0.184712 0)
(8.60865 -0.246374 0)
(8.73052 -0.299308 0)
(8.85392 -0.340344 0)
(8.97194 -0.3702 0)
(9.08046 -0.389761 0)
(9.17727 -0.400173 0)
(9.26117 -0.403015 0)
(9.33191 -0.399905 0)
(9.38994 -0.3923 0)
(9.43614 -0.381461 0)
(9.47162 -0.368435 0)
(9.4976 -0.354063 0)
(9.51534 -0.339002 0)
(9.52599 -0.323755 0)
(9.53066 -0.308697 0)
(9.53029 -0.294098 0)
(9.52575 -0.280143 0)
(9.51776 -0.266953 0)
(9.50695 -0.2546 0)
(9.49382 -0.243114 0)
(9.47883 -0.232502 0)
(9.46231 -0.222745 0)
(9.44457 -0.213812 0)
(9.42581 -0.205666 0)
(9.4062 -0.198267 0)
(9.38587 -0.191591 0)
(9.36484 -0.185625 0)
(9.34325 -0.180486 0)
(9.32081 -0.176156 0)
(9.29824 -0.173661 0)
(8.40922 -0.221241 0)
(8.63495 -0.42822 0)
(8.83317 -0.522483 0)
(8.97701 -0.583082 0)
(9.07081 -0.615824 0)
(9.11362 -0.626313 0)
(9.10974 -0.622123 0)
(9.06861 -0.607321 0)
(8.99911 -0.584735 0)
(8.9087 -0.556923 0)
(8.80386 -0.525937 0)
(8.68996 -0.493357 0)
(8.5712 -0.460401 0)
(8.45077 -0.427983 0)
(8.33105 -0.396751 0)
(8.21374 -0.367137 0)
(8.10002 -0.339404 0)
(7.99063 -0.313686 0)
(7.88603 -0.290021 0)
(7.78643 -0.26838 0)
(7.69188 -0.248687 0)
(7.60229 -0.230838 0)
(7.51752 -0.214708 0)
(7.43736 -0.200163 0)
(7.36156 -0.187063 0)
(7.28986 -0.175267 0)
(7.222 -0.164625 0)
(7.15766 -0.154997 0)
(7.09654 -0.146213 0)
(7.03818 -0.138114 0)
(6.9822 -0.130615 0)
(6.92739 -0.122848 0)
(6.87427 -0.118466 0)
(8.1371 -0.20713 0)
(7.84781 -0.387979 0)
(7.38568 -0.43931 0)
(6.86046 -0.439915 0)
(6.36113 -0.408578 0)
(5.8906 -0.359583 0)
(5.45149 -0.305202 0)
(5.05119 -0.251824 0)
(4.69078 -0.202664 0)
(4.3683 -0.159337 0)
(4.08141 -0.122285 0)
(3.82726 -0.0912863 0)
(3.60268 -0.0658005 0)
(3.40454 -0.045142 0)
(3.22984 -0.0285903 0)
(3.07579 -0.0154649 0)
(2.93986 -0.00515881 0)
(2.81975 0.00285062 0)
(2.71345 0.00900201 0)
(2.61915 0.0136574 0)
(2.53529 0.0171125 0)
(2.46047 0.0196071 0)
(2.39351 0.0213359 0)
(2.33337 0.0224579 0)
(2.27913 0.023109 0)
(2.23006 0.0234075 0)
(2.18545 0.0234839 0)
(2.14487 0.0234729 0)
(2.10772 0.0236169 0)
(2.07414 0.0242595 0)
(2.04318 0.0257161 0)
(2.01691 0.0309343 0)
(1.99336 0.0250884 0)
(1.53479 -0.0168419 0)
(1.70558 -0.0268464 0)