/*--------------------------------*- C++ -*----------------------------------*\
| =========                 |                                                 |
| \\      /  F ield         | OpenFOAM: The Open Source CFD Toolbox           |
|  \\    /   O peration     | Version:  2.1.1                                 |
|   \\  /    A nd           | Web:      www.OpenFOAM.org                      |
|    \\/     M anipulation  |                                                 |
\*---------------------------------------------------------------------------*/
FoamFile
{
    version     2.0;
    format      ascii;
    class       volScalarField;
    location    "0.005";
    object      nuSgs;
}
// * * * * * * * * * * * * * * * * * * * * * * * * * * * * * * * * * * * * * //

dimensions      [0 2 -1 0 0 0 0];

internalField   nonuniform List<scalar> 
6820
(
0.000555999
0.000457902
0.000369921
0.000309952
0.000275542
0.000253726
0.00023981
0.000231294
0.000226134
0.000222748
0.000220083
0.000217592
0.000215119
0.000212728
0.000210528
0.000208593
0.000206944
0.000205573
0.000204468
0.000203623
0.000203053
0.000202785
0.000202862
0.000203339
0.000204288
0.000205796
0.000207979
0.000210988
0.000215031
0.000220398
0.000227499
0.000236638
0.000243543
0.000103318
0.000170128
0.000222712
0.000239017
0.000234703
0.000225292
0.000215019
0.000205569
0.000197356
0.000190069
0.000183404
0.0001772
0.00017142
0.000166111
0.000161333
0.000157094
0.000153337
0.000149959
0.000146845
0.000143896
0.000141044
0.000138243
0.000135467
0.000132693
0.000129898
0.000127048
0.000124101
0.000120979
0.000117609
0.000113683
0.000109226
0.000102399
9.37665e-05
3.6761e-05
2.85859e-05
4.43364e-05
7.92874e-05
0.000102739
0.000115602
0.000120803
0.000121059
0.00011822
0.000113522
0.000107764
0.000101476
9.5109e-05
8.90471e-05
8.35514e-05
7.87479e-05
7.46251e-05
7.10603e-05
6.78906e-05
6.49679e-05
6.21829e-05
5.94635e-05
5.67628e-05
5.40458e-05
5.12796e-05
4.84273e-05
4.54423e-05
4.22599e-05
3.87924e-05
3.48922e-05
3.031e-05
2.48127e-05
1.69476e-05
2.06971e-05
2.88087e-05
2.70366e-05
1.64595e-05
4.77474e-06
7.30463e-06
1.50806e-05
2.00763e-05
2.28049e-05
2.39675e-05
2.4059e-05
2.33843e-05
2.21517e-05
2.05592e-05
1.88441e-05
1.7199e-05
1.57207e-05
1.44114e-05
1.32238e-05
1.21129e-05
1.10553e-05
1.00449e-05
9.08488e-06
8.18562e-06
7.36872e-06
6.67674e-06
6.18616e-06
6.01628e-06
6.2973e-06
7.15346e-06
8.54577e-06
1.046e-05
1.278e-05
1.43413e-05
1.77317e-05
2.27513e-05
2.44305e-05
2.42294e-05
2.26621e-05
2.05114e-05
1.8284e-05
1.60859e-05
1.3911e-05
1.17528e-05
9.61996e-06
7.55655e-06
5.61176e-06
3.8359e-06
2.33017e-06
1.24468e-06
8.99111e-07
1.2594e-06
1.74687e-06
2.21688e-06
2.67529e-06
3.1441e-06
3.6439e-06
4.19341e-06
4.81156e-06
5.51764e-06
6.33492e-06
7.28148e-06
8.38046e-06
9.62709e-06
1.09199e-05
1.24238e-05
1.08189e-05
1.26305e-05
1.40646e-05
1.45338e-05
1.51102e-05
1.52844e-05
1.4867e-05
1.39574e-05
1.26739e-05
1.11842e-05
9.63526e-06
8.10093e-06
6.61471e-06
5.21572e-06
3.98601e-06
3.00235e-06
2.32634e-06
2.00232e-06
2.00181e-06
2.21341e-06
2.53312e-06
2.90885e-06
3.32454e-06
3.78138e-06
4.28814e-06
4.85734e-06
5.50281e-06
6.23959e-06
7.0793e-06
8.02699e-06
9.08186e-06
1.01485e-05
1.13327e-05
8.11786e-06
9.51696e-06
1.04867e-05
1.03681e-05
1.01846e-05
9.85292e-06
9.25008e-06
8.43956e-06
7.48441e-06
6.49232e-06
5.58678e-06
4.83672e-06
4.23665e-06
3.73027e-06
3.26559e-06
2.83888e-06
2.49471e-06
2.2972e-06
2.28149e-06
2.42822e-06
2.68912e-06
3.02365e-06
3.41056e-06
3.84378e-06
4.32613e-06
4.86515e-06
5.46997e-06
6.14948e-06
6.90981e-06
7.74771e-06
8.65959e-06
9.57423e-06
1.0561e-05
6.21109e-06
7.45866e-06
8.4071e-06
8.34871e-06
8.073e-06
7.68481e-06
7.10262e-06
6.37608e-06
5.56369e-06
4.76408e-06
4.10892e-06
3.68163e-06
3.45657e-06
3.31984e-06
3.16322e-06
2.95306e-06
2.73169e-06
2.57414e-06
2.53814e-06
2.6369e-06
2.84855e-06
3.14294e-06
3.49836e-06
3.90451e-06
4.35962e-06
4.86679e-06
5.43097e-06
6.05641e-06
6.745e-06
7.4903e-06
8.28565e-06
9.08223e-06
9.91709e-06
4.83119e-06
5.8706e-06
6.69084e-06
6.75647e-06
6.61106e-06
6.34711e-06
5.87282e-06
5.23651e-06
4.53131e-06
3.88014e-06
3.41872e-06
3.2145e-06
3.20431e-06
3.24262e-06
3.21452e-06
3.09349e-06
2.92762e-06
2.79294e-06
2.75001e-06
2.82212e-06
3.0002e-06
3.26195e-06
3.58749e-06
3.96492e-06
4.38966e-06
4.86168e-06
5.38272e-06
5.9538e-06
6.57383e-06
7.23546e-06
7.9305e-06
8.62568e-06
9.34171e-06
3.80914e-06
4.68528e-06
5.42042e-06
5.56175e-06
5.47607e-06
5.26612e-06
4.86617e-06
4.32218e-06
3.73683e-06
3.23851e-06
2.95596e-06
2.93143e-06
3.06928e-06
3.21578e-06
3.26749e-06
3.20721e-06
3.08356e-06
2.96991e-06
2.92649e-06
2.98147e-06
3.13362e-06
3.36689e-06
3.664e-06
4.01282e-06
4.40708e-06
4.84441e-06
5.32408e-06
5.84478e-06
6.40342e-06
6.99246e-06
7.60331e-06
8.21227e-06
8.83091e-06
3.03627e-06
3.78292e-06
4.44135e-06
4.62296e-06
4.58642e-06
4.43216e-06
4.10942e-06
3.65558e-06
3.17865e-06
2.8145e-06
2.68138e-06
2.79063e-06
3.0248e-06
3.23484e-06
3.33029e-06
3.30285e-06
3.20434e-06
3.1065e-06
3.06694e-06
3.11385e-06
3.24904e-06
3.46015e-06
3.7322e-06
4.05364e-06
4.41751e-06
4.82008e-06
5.25899e-06
5.73143e-06
6.23315e-06
6.75678e-06
7.29408e-06
7.82722e-06
8.363e-06
2.43914e-06
3.08212e-06
3.68108e-06
3.89702e-06
3.90789e-06
3.79887e-06
3.53519e-06
3.15593e-06
2.77487e-06
2.5286e-06
2.51505e-06
2.71594e-06
3.00611e-06
3.24924e-06
3.36886e-06
3.36376e-06
3.28613e-06
3.20424e-06
3.17194e-06
3.21604e-06
3.33969e-06
3.53304e-06
3.78312e-06
4.07929e-06
4.41449e-06
4.78424e-06
5.18511e-06
5.61332e-06
6.06398e-06
6.52998e-06
7.00369e-06
7.47095e-06
7.93553e-06
1.96788e-06
2.53057e-06
3.08272e-06
3.32179e-06
3.37004e-06
3.29954e-06
3.09077e-06
2.78517e-06
2.49652e-06
2.35471e-06
2.43431e-06
2.696e-06
3.01666e-06
3.27335e-06
3.40089e-06
3.40481e-06
3.33889e-06
3.26884e-06
3.24444e-06
3.28958e-06
3.40671e-06
3.5869e-06
3.81855e-06
4.09199e-06
4.40047e-06
4.73928e-06
5.10447e-06
5.49177e-06
5.89606e-06
6.31055e-06
6.72838e-06
7.13787e-06
7.54069e-06
1.58869e-06
2.0905e-06
2.60518e-06
2.86127e-06
2.9425e-06
2.90768e-06
2.74788e-06
2.50737e-06
2.29827e-06
2.24024e-06
2.38655e-06
2.68546e-06
3.01974e-06
3.27838e-06
3.40625e-06
3.41466e-06
3.35821e-06
3.29969e-06
3.28468e-06
3.33374e-06
3.44792e-06
3.61854e-06
3.83498e-06
4.08853e-06
4.37295e-06
4.68363e-06
5.01644e-06
5.36689e-06
5.72988e-06
6.099e-06
6.46811e-06
6.82737e-06
7.17681e-06
1.27806e-06
1.73553e-06
2.22039e-06
2.48864e-06
2.59693e-06
2.59268e-06
2.47561e-06
2.29348e-06
2.15452e-06
2.16556e-06
2.36202e-06
2.68548e-06
3.02445e-06
3.27729e-06
3.39792e-06
3.40382e-06
3.35142e-06
3.30146e-06
3.29548e-06
3.35023e-06
3.46443e-06
3.62879e-06
3.83321e-06
4.06978e-06
4.33291e-06
4.61829e-06
4.92189e-06
5.23926e-06
5.56546e-06
5.89457e-06
6.22108e-06
6.53665e-06
6.84004e-06
1.01947e-06
1.4469e-06
1.90786e-06
2.1843e-06
2.31469e-06
2.33727e-06
2.25796e-06
2.12695e-06
2.04687e-06
2.11162e-06
2.3435e-06
2.68078e-06
3.01667e-06
3.25779e-06
3.36665e-06
3.36681e-06
3.31647e-06
3.27435e-06
3.27797e-06
3.34006e-06
3.45669e-06
3.61759e-06
3.81289e-06
4.0354e-06
4.28021e-06
4.54343e-06
4.82129e-06
5.10951e-06
5.40344e-06
5.69763e-06
5.98719e-06
6.26504e-06
6.52892e-06
8.01394e-07
1.21138e-06
1.6531e-06
1.93435e-06
2.08205e-06
2.12713e-06
2.07993e-06
1.99235e-06
1.96094e-06
2.06802e-06
2.32639e-06
2.67179e-06
3.00042e-06
3.22572e-06
3.31857e-06
3.309e-06
3.25762e-06
3.2216e-06
3.23462e-06
3.30516e-06
3.42624e-06
3.58619e-06
3.77512e-06
3.98642e-06
4.21585e-06
4.46002e-06
4.71548e-06
4.97827e-06
5.24409e-06
5.50797e-06
5.76558e-06
6.01095e-06
6.2411e-06
6.16142e-07
1.02002e-06
1.44577e-06
1.72868e-06
1.88912e-06
1.95241e-06
1.93203e-06
1.88071e-06
1.88876e-06
2.02867e-06
2.3062e-06
2.65458e-06
2.97175e-06
3.17739e-06
3.25089e-06
3.22899e-06
3.17491e-06
3.14438e-06
3.16719e-06
3.24743e-06
3.3748e-06
3.53608e-06
3.72118e-06
3.92401e-06
4.14096e-06
4.36917e-06
4.60558e-06
4.84655e-06
5.08817e-06
5.32599e-06
5.55619e-06
5.7738e-06
5.97531e-06
4.59853e-07
8.67234e-07
1.2786e-06
1.56007e-06
1.72885e-06
1.80596e-06
1.80706e-06
1.78505e-06
1.82439e-06
1.9896e-06
2.28095e-06
2.62868e-06
2.9313e-06
3.11433e-06
3.16571e-06
3.12916e-06
3.0708e-06
3.04514e-06
3.07808e-06
3.16915e-06
3.30453e-06
3.46924e-06
3.65291e-06
3.84988e-06
4.05714e-06
4.27233e-06
4.4928e-06
4.7153e-06
4.93632e-06
5.15192e-06
5.35875e-06
5.55274e-06
5.73006e-06
3.34665e-07
7.50521e-07
1.14675e-06
1.42346e-06
1.59622e-06
1.68274e-06
1.70017e-06
1.70111e-06
1.76471e-06
1.94903e-06
2.24965e-06
2.59319e-06
2.87813e-06
3.03568e-06
3.06255e-06
3.00971e-06
2.94628e-06
2.92561e-06
2.96956e-06
3.07284e-06
3.21795e-06
3.38811e-06
3.57258e-06
3.76613e-06
3.9663e-06
4.17125e-06
4.37872e-06
4.58585e-06
4.78955e-06
4.98636e-06
5.1734e-06
5.3474e-06
5.50438e-06
2.53352e-07
6.69209e-07
1.04691e-06
1.31523e-06
1.48768e-06
1.5792e-06
1.608e-06
1.62604e-06
1.70767e-06
1.90566e-06
2.21144e-06
2.54752e-06
2.81193e-06
2.94159e-06
2.94211e-06
2.87185e-06
2.80312e-06
2.78807e-06
2.84426e-06
2.96133e-06
3.11792e-06
3.29543e-06
3.48282e-06
3.67521e-06
3.87071e-06
4.06794e-06
4.26507e-06
4.45962e-06
4.64891e-06
4.82997e-06
5.00033e-06
5.15746e-06
5.29737e-06
2.39657e-07
6.23549e-07
9.76896e-07
1.23294e-06
1.40089e-06
1.4931e-06
1.52853e-06
1.55826e-06
1.65224e-06
1.85892e-06
2.16583e-06
2.49107e-06
2.73213e-06
2.83173e-06
2.80452e-06
2.7164e-06
2.64292e-06
2.63487e-06
2.70514e-06
2.83787e-06
3.00777e-06
3.19447e-06
3.3867e-06
3.57999e-06
3.77298e-06
3.96476e-06
4.15389e-06
4.3383e-06
4.5157e-06
4.68361e-06
4.83995e-06
4.98287e-06
5.10848e-06
2.92538e-07
6.13407e-07
9.3546e-07
1.17498e-06
1.33423e-06
1.42287e-06
1.46037e-06
1.49666e-06
1.59757e-06
1.80789e-06
2.1116e-06
2.42242e-06
2.6374e-06
2.7052e-06
2.6496e-06
2.54406e-06
2.46739e-06
2.46872e-06
2.55561e-06
2.70624e-06
2.89133e-06
3.08896e-06
3.28775e-06
3.48373e-06
3.67606e-06
3.8643e-06
4.04742e-06
4.22373e-06
4.39136e-06
4.5483e-06
4.69283e-06
4.82373e-06
4.93729e-06
3.81799e-07
6.35372e-07
9.20809e-07
1.13995e-06
1.28656e-06
1.36762e-06
1.40297e-06
1.44114e-06
1.54382e-06
1.75263e-06
2.04847e-06
2.34099e-06
2.52716e-06
2.56179e-06
2.47779e-06
2.35624e-06
2.27915e-06
2.29336e-06
2.40016e-06
2.57117e-06
2.77327e-06
2.9833e-06
3.19007e-06
3.39015e-06
3.58329e-06
3.76949e-06
3.94815e-06
4.11799e-06
4.27753e-06
4.42522e-06
4.55972e-06
4.68035e-06
4.78365e-06
4.87824e-07
6.84816e-07
9.31558e-07
1.12706e-06
1.25721e-06
1.32655e-06
1.35519e-06
1.38999e-06
1.48853e-06
1.68979e-06
1.97234e-06
2.24241e-06
2.39736e-06
2.39833e-06
2.28733e-06
2.15307e-06
2.08046e-06
2.11298e-06
2.24403e-06
2.4382e-06
2.65895e-06
2.88253e-06
3.09825e-06
3.30341e-06
3.49835e-06
3.68356e-06
3.85884e-06
4.02337e-06
4.17605e-06
4.31578e-06
4.44155e-06
4.55324e-06
4.64763e-06
6.04714e-07
7.57452e-07
9.66321e-07
1.13592e-06
1.24656e-06
1.30104e-06
1.31977e-06
1.34722e-06
1.43606e-06
1.62304e-06
1.8858e-06
2.12849e-06
2.24953e-06
2.21657e-06
2.08085e-06
1.93878e-06
1.87772e-06
1.93557e-06
2.09565e-06
2.31524e-06
2.55546e-06
2.79287e-06
3.01776e-06
3.22826e-06
3.42534e-06
3.60999e-06
3.78244e-06
3.94227e-06
4.08881e-06
4.22139e-06
4.33931e-06
4.44294e-06
4.52935e-06
7.32345e-07
8.50982e-07
1.02472e-06
1.16665e-06
1.25397e-06
1.2885e-06
1.29104e-06
1.30362e-06
1.37417e-06
1.53811e-06
1.77381e-06
1.98454e-06
2.07048e-06
2.0061e-06
1.852e-06
1.71245e-06
1.67562e-06
1.76945e-06
1.96416e-06
2.21081e-06
2.47038e-06
2.72103e-06
2.95449e-06
3.16988e-06
3.36879e-06
3.55271e-06
3.72229e-06
3.87754e-06
4.01817e-06
4.14394e-06
4.25442e-06
4.35048e-06
4.4294e-06
8.73227e-07
9.64594e-07
1.1065e-06
1.22096e-06
1.28497e-06
1.30057e-06
1.28818e-06
1.28461e-06
1.3301e-06
1.45947e-06
1.65639e-06
1.82686e-06
1.87385e-06
1.77913e-06
1.61369e-06
1.49037e-06
1.49412e-06
1.63459e-06
1.86656e-06
2.13851e-06
2.4145e-06
2.67563e-06
2.9154e-06
3.13389e-06
3.33323e-06
3.51534e-06
3.68126e-06
3.83138e-06
3.96577e-06
4.08456e-06
4.18757e-06
4.2761e-06
4.34765e-06
1.03333e-06
1.10411e-06
1.21796e-06
1.30205e-06
1.33401e-06
1.31754e-06
1.27472e-06
1.2394e-06
1.2453e-06
1.32725e-06
1.47665e-06
1.60406e-06
1.6161e-06
1.50314e-06
1.34904e-06
1.27462e-06
1.34824e-06
1.54778e-06
1.81665e-06
2.10927e-06
2.39681e-06
2.66441e-06
2.90733e-06
3.1264e-06
3.32417e-06
3.50285e-06
3.66382e-06
3.80781e-06
3.93519e-06
4.04642e-06
4.14152e-06
4.22222e-06
4.28611e-06
1.21757e-06
1.26742e-06
1.35651e-06
1.41982e-06
1.43747e-06
1.41189e-06
1.35909e-06
1.30003e-06
1.25533e-06
1.26166e-06
1.33141e-06
1.39241e-06
1.35824e-06
1.23068e-06
1.11285e-06
1.12657e-06
1.292e-06
1.54781e-06
1.84152e-06
2.14254e-06
2.43153e-06
2.69769e-06
2.93762e-06
3.15249e-06
3.34489e-06
3.51715e-06
3.67081e-06
3.80681e-06
3.92571e-06
4.02823e-06
4.11448e-06
4.18655e-06
4.24214e-06
1.4456e-06
1.48868e-06
1.55485e-06
1.57334e-06
1.53187e-06
1.44497e-06
1.33733e-06
1.22629e-06
1.11561e-06
1.03351e-06
1.01536e-06
1.01684e-06
9.64187e-07
8.82975e-07
9.0129e-07
1.0802e-06
1.34924e-06
1.64531e-06
1.94648e-06
2.24262e-06
2.52349e-06
2.78122e-06
3.0129e-06
3.2194e-06
3.4031e-06
3.56624e-06
3.71038e-06
3.83658e-06
3.94552e-06
4.03806e-06
4.11436e-06
4.17686e-06
4.22311e-06
1.71081e-06
1.72463e-06
1.79055e-06
1.8448e-06
1.85515e-06
1.80989e-06
1.7107e-06
1.55925e-06
1.35281e-06
1.11826e-06
9.14068e-07
7.59985e-07
6.45199e-07
6.64905e-07
8.9989e-07
1.23497e-06
1.56847e-06
1.87457e-06
2.16034e-06
2.43247e-06
2.68899e-06
2.92494e-06
3.13761e-06
3.32728e-06
3.49564e-06
3.64447e-06
3.77504e-06
3.88824e-06
3.98464e-06
4.06504e-06
4.12952e-06
4.18071e-06
4.21615e-06
2.10724e-06
2.14943e-06
2.1537e-06
2.06249e-06
1.91987e-06
1.77126e-06
1.63079e-06
1.47118e-06
1.23953e-06
9.16755e-07
5.38082e-07
1.44906e-07
2.84189e-07
7.31039e-07
1.18028e-06
1.58421e-06
1.92042e-06
2.20136e-06
2.45284e-06
2.69083e-06
2.917e-06
3.12689e-06
3.31707e-06
3.48691e-06
3.63739e-06
3.76981e-06
3.88512e-06
3.98397e-06
4.06667e-06
4.13387e-06
4.18535e-06
4.22404e-06
4.24694e-06
2.49207e-06
2.49186e-06
2.70949e-06
2.91821e-06
2.99251e-06
2.92068e-06
2.71896e-06
2.39831e-06
1.95794e-06
1.41835e-06
8.39553e-07
3.55434e-07
5.59888e-07
1.11389e-06
1.65162e-06
2.09863e-06
2.43531e-06
2.68428e-06
2.88453e-06
3.06494e-06
3.23634e-06
3.3985e-06
3.54868e-06
3.68522e-06
3.80767e-06
3.91606e-06
4.01033e-06
4.09035e-06
4.15574e-06
4.20662e-06
4.24224e-06
4.2654e-06
4.27305e-06
3.43838e-06
3.42801e-06
3.15203e-06
2.86066e-06
2.7567e-06
2.7823e-06
2.79175e-06
2.68826e-06
2.43335e-06
2.06759e-06
1.7231e-06
1.57572e-06
1.71532e-06
2.05317e-06
2.43871e-06
2.77048e-06
3.01591e-06
3.19293e-06
3.33568e-06
3.4678e-06
3.59656e-06
3.72042e-06
3.83646e-06
3.94311e-06
4.03983e-06
4.12629e-06
4.20193e-06
4.26585e-06
4.31657e-06
4.3532e-06
4.37381e-06
4.38109e-06
4.37064e-06
3.8248e-06
4.40365e-06
5.3011e-06
5.61525e-06
5.52547e-06
5.26693e-06
4.92602e-06
4.49947e-06
3.9514e-06
3.31831e-06
2.7657e-06
2.51362e-06
2.65005e-06
3.03336e-06
3.45481e-06
3.77806e-06
3.96135e-06
4.03299e-06
4.04865e-06
4.05442e-06
4.07279e-06
4.10781e-06
4.15539e-06
4.20985e-06
4.26619e-06
4.32045e-06
4.36945e-06
4.41064e-06
4.4412e-06
4.45906e-06
4.46051e-06
4.44723e-06
4.41357e-06
6.90611e-06
5.1541e-06
4.25929e-06
6.07822e-06
8.5435e-06
1.06295e-05
1.20145e-05
1.26445e-05
1.25611e-05
1.18843e-05
1.08124e-05
9.57114e-06
8.35113e-06
7.27452e-06
6.3981e-06
5.73511e-06
5.27061e-06
4.96732e-06
4.77768e-06
4.66008e-06
4.5875e-06
4.5456e-06
4.52685e-06
4.52594e-06
4.53798e-06
4.55877e-06
4.58545e-06
4.61355e-06
4.63442e-06
4.64099e-06
4.62326e-06
4.58394e-06
4.50079e-06
8.30332e-06
1.45609e-05
1.84982e-05
2.06895e-05
2.16465e-05
2.11591e-05
1.93613e-05
1.66158e-05
1.33185e-05
1.01268e-05
8.09158e-06
7.93476e-06
8.80172e-06
9.51518e-06
9.64009e-06
9.2513e-06
8.61153e-06
7.9647e-06
7.44044e-06
7.05896e-06
6.78699e-06
6.58504e-06
6.42518e-06
6.29106e-06
6.173e-06
6.06351e-06
5.95806e-06
5.85501e-06
5.75265e-06
5.65192e-06
5.53358e-06
5.4115e-06
5.21763e-06
3.35504e-05
3.5618e-05
4.36591e-05
5.64761e-05
6.89363e-05
8.00366e-05
8.90747e-05
9.54312e-05
9.90759e-05
0.000100278
9.93961e-05
9.69197e-05
9.34007e-05
8.93645e-05
8.52144e-05
8.11936e-05
7.7421e-05
7.39341e-05
7.07278e-05
6.77795e-05
6.506e-05
6.25379e-05
6.01831e-05
5.79703e-05
5.58817e-05
5.39085e-05
5.2042e-05
5.02803e-05
4.86227e-05
4.70854e-05
4.56541e-05
4.44156e-05
4.31813e-05
0.000607616
0.000581726
0.000556426
0.000530784
0.000506233
0.000483239
0.000462092
0.00044333
0.000427259
0.000413758
0.000402272
0.000391952
0.00038212
0.000372537
0.000363214
0.000354206
0.000345556
0.00033727
0.000329319
0.000321656
0.000314231
0.000307003
0.000299942
0.000293029
0.000286255
0.000279614
0.000273094
0.000266682
0.000260372
0.000254187
0.000248047
0.000242447
0.000237351
0.000185806
0.00017139
0.000128999
7.05165e-05
1.08793e-05
4.92583e-05
6.09679e-05
5.26704e-05
4.20903e-05
3.41382e-05
2.81751e-05
2.35573e-05
1.99733e-05
1.71527e-05
1.48751e-05
1.30027e-05
1.14508e-05
1.01567e-05
9.06822e-06
8.14281e-06
7.34727e-06
6.65644e-06
6.05111e-06
5.51641e-06
5.04069e-06
4.6148e-06
4.23146e-06
3.88487e-06
3.57033e-06
3.28395e-06
3.02249e-06
2.78319e-06
2.56369e-06
2.36198e-06
2.1763e-06
2.00512e-06
1.8471e-06
1.70107e-06
1.56601e-06
1.441e-06
1.32524e-06
1.21803e-06
1.11874e-06
1.02678e-06
9.41641e-07
8.62837e-07
7.8994e-07
7.22561e-07
6.60326e-07
6.02873e-07
5.49867e-07
5.01008e-07
4.56042e-07
4.14728e-07
3.76839e-07
3.42153e-07
3.10467e-07
2.81604e-07
2.55387e-07
2.31623e-07
2.10103e-07
1.9062e-07
1.73001e-07
1.57114e-07
1.42856e-07
1.30148e-07
1.18908e-07
1.09055e-07
1.00498e-07
9.31441e-08
8.68998e-08
8.16573e-08
7.72931e-08
7.37038e-08
7.08137e-08
6.85562e-08
6.68592e-08
6.56421e-08
6.48052e-08
6.42332e-08
6.38434e-08
6.35957e-08
6.34789e-08
6.35094e-08
6.37183e-08
6.41025e-08
6.46336e-08
6.52975e-08
6.60361e-08
6.66893e-08
6.71987e-08
6.76594e-08
6.83219e-08
6.90366e-08
6.99463e-08
7.03777e-08
7.15657e-08
7.11005e-08
7.6024e-08
6.91634e-08
9.96004e-05
8.21267e-05
4.54232e-05
1.71957e-05
4.5563e-05
5.76115e-05
5.32599e-05
4.51386e-05
3.79955e-05
3.19109e-05
2.68464e-05
2.27797e-05
1.95432e-05
1.69287e-05
1.47749e-05
1.29799e-05
1.14765e-05
1.02117e-05
9.14009e-06
8.22384e-06
7.43272e-06
6.74342e-06
6.13792e-06
5.60205e-06
5.12458e-06
4.69654e-06
4.3107e-06
3.96127e-06
3.64351e-06
3.35356e-06
3.08821e-06
2.84479e-06
2.62105e-06
2.4151e-06
2.22528e-06
2.05015e-06
1.88846e-06
1.73908e-06
1.60101e-06
1.47336e-06
1.35532e-06
1.24618e-06
1.14527e-06
1.05197e-06
9.65736e-07
8.86061e-07
8.1251e-07
7.44657e-07
6.82086e-07
6.24411e-07
5.71303e-07
5.2247e-07
4.77624e-07
4.36464e-07
3.98699e-07
3.64088e-07
3.3243e-07
3.03538e-07
2.772e-07
2.53197e-07
2.31337e-07
2.11479e-07
1.93517e-07
1.77341e-07
1.62808e-07
1.49758e-07
1.3804e-07
1.27546e-07
1.18202e-07
1.09951e-07
1.02709e-07
9.63522e-08
9.07458e-08
8.58031e-08
8.14744e-08
7.77249e-08
7.45238e-08
7.18495e-08
6.96522e-08
6.78435e-08
6.63088e-08
6.4973e-08
6.37852e-08
6.27186e-08
6.17877e-08
6.102e-08
6.03991e-08
5.99074e-08
5.95718e-08
5.93383e-08
5.9065e-08
5.85779e-08
5.79994e-08
5.71741e-08
5.64761e-08
5.47395e-08
5.36448e-08
4.88839e-08
4.93205e-08
3.57788e-08
1.11686e-05
1.04142e-05
2.28713e-05
3.94031e-05
4.79203e-05
4.80708e-05
4.45784e-05
3.99521e-05
3.47886e-05
2.98154e-05
2.55322e-05
2.19926e-05
1.90826e-05
1.66701e-05
1.46459e-05
1.29352e-05
1.14856e-05
1.02546e-05
9.20389e-06
8.30005e-06
7.51573e-06
6.82943e-06
6.22435e-06
5.68723e-06
5.20747e-06
4.77653e-06
4.38752e-06
4.0348e-06
3.71376e-06
3.42056e-06
3.152e-06
2.90542e-06
2.67856e-06
2.46952e-06
2.27664e-06
2.0985e-06
1.93383e-06
1.78155e-06
1.64066e-06
1.51029e-06
1.38967e-06
1.27808e-06
1.17485e-06
1.07938e-06
9.91124e-07
9.09602e-07
8.34349e-07
7.64917e-07
7.00887e-07
6.41895e-07
5.87624e-07
5.37763e-07
4.9198e-07
4.49952e-07
4.11406e-07
3.7611e-07
3.43841e-07
3.14348e-07
2.87383e-07
2.62753e-07
2.40338e-07
2.20047e-07
2.01761e-07
1.85306e-07
1.70485e-07
1.57133e-07
1.45144e-07
1.34439e-07
1.2493e-07
1.16504e-07
1.09021e-07
1.02365e-07
9.64812e-08
9.13452e-08
8.69161e-08
8.31277e-08
7.99e-08
7.71322e-08
7.47205e-08
7.25796e-08
7.06797e-08
6.90215e-08
6.76109e-08
6.64526e-08
6.55354e-08
6.48182e-08
6.4246e-08
6.37703e-08
6.33369e-08
6.28553e-08
6.22921e-08
6.15974e-08
6.08457e-08
5.97195e-08
5.85076e-08
5.60683e-08
5.42003e-08
4.84012e-08
4.72357e-08
3.23315e-08
1.78934e-05
2.00959e-05
2.73949e-05
3.49225e-05
3.90542e-05
4.02391e-05
3.90489e-05
3.58813e-05
3.18127e-05
2.78023e-05
2.42363e-05
2.11726e-05
1.85727e-05
1.63654e-05
1.44785e-05
1.28592e-05
1.14701e-05
1.02785e-05
9.25323e-06
8.36536e-06
7.59068e-06
6.90974e-06
6.30709e-06
5.77033e-06
5.2895e-06
4.85651e-06
4.46478e-06
4.10891e-06
3.78444e-06
3.48768e-06
3.21554e-06
2.96539e-06
2.73506e-06
2.52263e-06
2.32648e-06
2.14517e-06
1.97747e-06
1.82226e-06
1.67858e-06
1.54556e-06
1.42241e-06
1.3084e-06
1.20287e-06
1.10523e-06
1.01495e-06
9.3152e-07
8.54452e-07
7.83306e-07
7.17685e-07
6.57215e-07
6.01543e-07
5.50329e-07
5.03264e-07
4.60066e-07
4.20475e-07
3.84237e-07
3.51106e-07
3.20852e-07
2.93267e-07
2.68163e-07
2.45361e-07
2.2469e-07
2.05982e-07
1.89078e-07
1.73838e-07
1.60138e-07
1.47866e-07
1.3691e-07
1.27158e-07
1.185e-07
1.10836e-07
1.04078e-07
9.81464e-08
9.29662e-08
8.8462e-08
8.45603e-08
8.11924e-08
7.82938e-08
7.58074e-08
7.36831e-08
7.18802e-08
7.03609e-08
6.90883e-08
6.80259e-08
6.71367e-08
6.63851e-08
6.57394e-08
6.51654e-08
6.46327e-08
6.40979e-08
6.3545e-08
6.28754e-08
6.21077e-08
6.09208e-08
5.96286e-08
5.71064e-08
5.50957e-08
4.90732e-08
4.75404e-08
3.23078e-08
1.73101e-05
1.88115e-05
2.33713e-05
2.9095e-05
3.33807e-05
3.52483e-05
3.46114e-05
3.22285e-05
2.91192e-05
2.59386e-05
2.29761e-05
2.03347e-05
1.80283e-05
1.60234e-05
1.4276e-05
1.27529e-05
1.14295e-05
1.02824e-05
9.28671e-06
8.41815e-06
7.65574e-06
6.98221e-06
6.38363e-06
5.84863e-06
5.36791e-06
4.93389e-06
4.54031e-06
4.18202e-06
3.85476e-06
3.55494e-06
3.27959e-06
3.02618e-06
2.79256e-06
2.57686e-06
2.37749e-06
2.19303e-06
2.02227e-06
1.86411e-06
1.7176e-06
1.58187e-06
1.45612e-06
1.33963e-06
1.23175e-06
1.13191e-06
1.03953e-06
9.54127e-07
8.75199e-07
8.02313e-07
7.35067e-07
6.73082e-07
6.15995e-07
5.63465e-07
5.1518e-07
4.70858e-07
4.30227e-07
3.93023e-07
3.58994e-07
3.27918e-07
2.99589e-07
2.73815e-07
2.50405e-07
2.29174e-07
2.09955e-07
1.92597e-07
1.76964e-07
1.62927e-07
1.50358e-07
1.39135e-07
1.29144e-07
1.20284e-07
1.12461e-07
1.05585e-07
9.95648e-08
9.43114e-08
8.97443e-08
8.57918e-08
8.23882e-08
7.94733e-08
7.69905e-08
7.48875e-08
7.31131e-08
7.16221e-08
7.03715e-08
6.93226e-08
6.84413e-08
6.76964e-08
6.70579e-08
6.64918e-08
6.59692e-08
6.54444e-08
6.4892e-08
6.42041e-08
6.33994e-08
6.21612e-08
6.07974e-08
5.81767e-08
5.60156e-08
4.97923e-08
4.80069e-08
3.2463e-08
1.62013e-05
1.79311e-05
2.14733e-05
2.60384e-05
2.95392e-05
3.10419e-05
3.06929e-05
2.90495e-05
2.67316e-05
2.42103e-05
2.17554e-05
1.94921e-05
1.74596e-05
1.56503e-05
1.40425e-05
1.26186e-05
1.13652e-05
1.02668e-05
9.30447e-06
8.45851e-06
7.71104e-06
7.0471e-06
6.4543e-06
5.9224e-06
5.44287e-06
5.00864e-06
4.61387e-06
4.25368e-06
3.92403e-06
3.6215e-06
3.34324e-06
3.0868e-06
2.85007e-06
2.63125e-06
2.42876e-06
2.24124e-06
2.06748e-06
1.90643e-06
1.75711e-06
1.61866e-06
1.49031e-06
1.37135e-06
1.26112e-06
1.15903e-06
1.06454e-06
9.77125e-07
8.96313e-07
8.21656e-07
7.52748e-07
6.89209e-07
6.30675e-07
5.76805e-07
5.27276e-07
4.81797e-07
4.40093e-07
4.01902e-07
3.66971e-07
3.35065e-07
3.05971e-07
2.79493e-07
2.55445e-07
2.33648e-07
2.13926e-07
1.96119e-07
1.8008e-07
1.65679e-07
1.52793e-07
1.41304e-07
1.31094e-07
1.2205e-07
1.14067e-07
1.07054e-07
1.00924e-07
9.55933e-08
9.09794e-08
8.70045e-08
8.35948e-08
8.06822e-08
7.82042e-08
7.61067e-08
7.43419e-08
7.28661e-08
7.16386e-08
7.06197e-08
6.97711e-08
6.9056e-08
6.84421e-08
6.78939e-08
6.73797e-08
6.68518e-08
6.62882e-08
6.55825e-08
6.47473e-08
6.34562e-08
6.20077e-08
5.92718e-08
5.69551e-08
5.05261e-08
4.84977e-08
3.26403e-08
1.53015e-05
1.71064e-05
1.98609e-05
2.32487e-05
2.60121e-05
2.74293e-05
2.7438e-05
2.63419e-05
2.46026e-05
2.26064e-05
2.05843e-05
1.86567e-05
1.68761e-05
1.52533e-05
1.37828e-05
1.24595e-05
1.12789e-05
1.02324e-05
9.30677e-06
8.48633e-06
7.75633e-06
7.10405e-06
6.51877e-06
5.99138e-06
5.51417e-06
5.08066e-06
4.68542e-06
4.32393e-06
3.99236e-06
3.68751e-06
3.40663e-06
3.14737e-06
2.9077e-06
2.68587e-06
2.48037e-06
2.28985e-06
2.11315e-06
1.94922e-06
1.79711e-06
1.65596e-06
1.52501e-06
1.40356e-06
1.29095e-06
1.18661e-06
1.08998e-06
1.00054e-06
9.17811e-07
8.41355e-07
7.70762e-07
7.05646e-07
6.45639e-07
5.90392e-07
5.39586e-07
4.92926e-07
4.50131e-07
4.10929e-07
3.75065e-07
3.42303e-07
3.12431e-07
2.85249e-07
2.6056e-07
2.38178e-07
2.17925e-07
1.99643e-07
1.83189e-07
1.68428e-07
1.55229e-07
1.43466e-07
1.33016e-07
1.23771e-07
1.15629e-07
1.08494e-07
1.02273e-07
9.68728e-08
9.2209e-08
8.82014e-08
8.47759e-08
8.1864e-08
7.94024e-08
7.73327e-08
7.56012e-08
7.41583e-08
7.29601e-08
7.19658e-08
7.11388e-08
7.04446e-08
6.9851e-08
6.93217e-08
6.88249e-08
6.83101e-08
6.77477e-08
6.70249e-08
6.61546e-08
6.48111e-08
6.32863e-08
6.0442e-08
5.79715e-08
5.13241e-08
4.90393e-08
3.28461e-08
1.43864e-05
1.61062e-05
1.8346e-05
2.10033e-05
2.32761e-05
2.4543e-05
2.47003e-05
2.39725e-05
2.26881e-05
2.11255e-05
1.94705e-05
1.78372e-05
1.62857e-05
1.48384e-05
1.35014e-05
1.22785e-05
1.11722e-05
1.01802e-05
9.29401e-06
8.50172e-06
7.79151e-06
7.1529e-06
6.57679e-06
6.05529e-06
5.58153e-06
5.14966e-06
4.75473e-06
4.39255e-06
4.05959e-06
3.75281e-06
3.46963e-06
3.20779e-06
2.96538e-06
2.74069e-06
2.53229e-06
2.33886e-06
2.15928e-06
1.99251e-06
1.83762e-06
1.69378e-06
1.56023e-06
1.43627e-06
1.32128e-06
1.21465e-06
1.11585e-06
1.02435e-06
9.39683e-07
8.61398e-07
7.89086e-07
7.22359e-07
6.60847e-07
6.04199e-07
5.5209e-07
5.04219e-07
4.60302e-07
4.20065e-07
3.83251e-07
3.49618e-07
3.18947e-07
2.91032e-07
2.65679e-07
2.42699e-07
2.21913e-07
2.03155e-07
1.86276e-07
1.71138e-07
1.57612e-07
1.4557e-07
1.34888e-07
1.25451e-07
1.1715e-07
1.09886e-07
1.03564e-07
9.80961e-08
9.33926e-08
8.93692e-08
8.59456e-08
8.30468e-08
8.06044e-08
7.85576e-08
7.68526e-08
7.54409e-08
7.42781e-08
7.33226e-08
7.25352e-08
7.18776e-08
7.13155e-08
7.08112e-08
7.03303e-08
6.98204e-08
6.92528e-08
6.85153e-08
6.76159e-08
6.62205e-08
6.46133e-08
6.16512e-08
5.90258e-08
5.21556e-08
4.96217e-08
3.30892e-08
1.35215e-05
1.51305e-05
1.70181e-05
1.91205e-05
2.09508e-05
2.2067e-05
2.23484e-05
2.19137e-05
2.09824e-05
1.97648e-05
1.84162e-05
1.70395e-05
1.56953e-05
1.44119e-05
1.32029e-05
1.20786e-05
1.10473e-05
1.01116e-05
9.26689e-06
8.50499e-06
7.81668e-06
7.1936e-06
6.62826e-06
6.11399e-06
5.6448e-06
5.2155e-06
4.82165e-06
4.45943e-06
4.12558e-06
3.81729e-06
3.53213e-06
3.26798e-06
3.02301e-06
2.79564e-06
2.58446e-06
2.38822e-06
2.20582e-06
2.03624e-06
1.8786e-06
1.73208e-06
1.59593e-06
1.46947e-06
1.35208e-06
1.24315e-06
1.14216e-06
1.04858e-06
9.61937e-07
8.81794e-07
8.07737e-07
7.39373e-07
6.76326e-07
6.18244e-07
5.64801e-07
5.15692e-07
4.70629e-07
4.29333e-07
3.91542e-07
3.57013e-07
3.25524e-07
2.96866e-07
2.70838e-07
2.47244e-07
2.25903e-07
2.0665e-07
1.89334e-07
1.73816e-07
1.5996e-07
1.47633e-07
1.36709e-07
1.27071e-07
1.1861e-07
1.11224e-07
1.04814e-07
9.92856e-08
9.45449e-08
9.05043e-08
8.70809e-08
8.41975e-08
8.17839e-08
7.97759e-08
7.81155e-08
7.67497e-08
7.56309e-08
7.47156e-08
7.39644e-08
7.33399e-08
7.28076e-08
7.23291e-08
7.187e-08
7.13756e-08
7.08129e-08
7.00637e-08
6.91344e-08
6.76888e-08
6.60066e-08
6.29337e-08
6.01601e-08
5.30623e-08
5.02816e-08
3.33932e-08
1.27225e-05
1.41855e-05
1.57983e-05
1.751e-05
1.90226e-05
2.00124e-05
2.03552e-05
2.01173e-05
1.94519e-05
1.85132e-05
1.74228e-05
1.62695e-05
1.5111e-05
1.39789e-05
1.28913e-05
1.1863e-05
1.09063e-05
1.00277e-05
9.22622e-06
8.49655e-06
7.832e-06
7.22614e-06
6.67309e-06
6.16733e-06
5.70382e-06
5.27804e-06
4.88605e-06
4.52443e-06
4.19023e-06
3.88085e-06
3.59405e-06
3.32786e-06
3.08057e-06
2.85068e-06
2.63686e-06
2.4379e-06
2.25275e-06
2.08042e-06
1.92006e-06
1.77087e-06
1.63213e-06
1.50317e-06
1.38335e-06
1.27211e-06
1.16889e-06
1.0732e-06
9.84564e-07
9.02536e-07
8.26702e-07
7.56666e-07
6.92053e-07
6.32509e-07
5.77704e-07
5.2733e-07
4.81093e-07
4.38711e-07
3.99921e-07
3.64476e-07
3.32149e-07
3.02724e-07
2.75998e-07
2.51774e-07
2.29868e-07
2.10112e-07
1.9235e-07
1.7644e-07
1.62243e-07
1.49625e-07
1.38459e-07
1.28623e-07
1.20003e-07
1.12494e-07
1.05995e-07
1.00409e-07
9.56395e-08
9.15942e-08
8.81849e-08
8.5329e-08
8.29515e-08
8.09849e-08
7.93694e-08
7.80514e-08
7.69823e-08
7.61174e-08
7.54151e-08
7.48358e-08
7.43433e-08
7.3898e-08
7.34635e-08
7.29832e-08
7.24234e-08
7.1665e-08
7.07112e-08
6.92184e-08
6.74608e-08
6.4274e-08
6.13552e-08
5.40286e-08
5.10163e-08
3.37684e-08
1.19834e-05
1.33014e-05
1.47006e-05
1.61235e-05
1.73817e-05
1.82524e-05
1.86292e-05
1.85398e-05
1.80824e-05
1.73676e-05
1.64917e-05
1.55308e-05
1.45377e-05
1.35442e-05
1.25707e-05
1.16348e-05
1.07515e-05
9.93026e-06
9.17301e-06
8.47702e-06
7.83777e-06
7.25067e-06
6.71128e-06
6.21529e-06
5.75853e-06
5.33717e-06
4.94782e-06
4.58745e-06
4.25342e-06
3.94339e-06
3.6553e-06
3.38736e-06
3.13799e-06
2.90577e-06
2.68944e-06
2.48787e-06
2.30004e-06
2.12502e-06
1.96197e-06
1.81014e-06
1.66882e-06
1.53734e-06
1.4151e-06
1.30151e-06
1.19606e-06
1.09823e-06
1.00757e-06
9.23631e-07
8.45989e-07
7.74251e-07
7.08041e-07
6.47003e-07
5.90806e-07
5.39138e-07
4.917e-07
4.48207e-07
4.08392e-07
3.72006e-07
3.38818e-07
3.0861e-07
2.8117e-07
2.56299e-07
2.33811e-07
2.13535e-07
1.95314e-07
1.79004e-07
1.6446e-07
1.51547e-07
1.40132e-07
1.30092e-07
1.21313e-07
1.13685e-07
1.07105e-07
1.0147e-07
9.66781e-08
9.26328e-08
8.92419e-08
8.64195e-08
8.40875e-08
8.21751e-08
8.06189e-08
7.93616e-08
7.83519e-08
7.75431e-08
7.68925e-08
7.636e-08
7.59087e-08
7.54987e-08
7.50932e-08
7.46342e-08
7.40854e-08
7.33228e-08
7.23473e-08
7.08108e-08
6.89859e-08
6.56934e-08
6.26413e-08
5.50892e-08
5.1865e-08
3.42484e-08
1.1307e-05
1.24857e-05
1.37076e-05
1.49128e-05
1.59794e-05
1.67531e-05
1.71437e-05
1.71566e-05
1.68551e-05
1.63186e-05
1.56213e-05
1.4826e-05
1.39794e-05
1.3112e-05
1.22449e-05
1.1397e-05
1.05852e-05
9.82087e-06
9.10836e-06
8.44708e-06
7.83442e-06
7.26739e-06
6.74294e-06
6.25786e-06
5.80887e-06
5.39284e-06
5.00688e-06
4.64839e-06
4.31507e-06