/*--------------------------------*- C++ -*----------------------------------*\
| =========                 |                                                 |
| \\      /  F ield         | OpenFOAM: The Open Source CFD Toolbox           |
|  \\    /   O peration     | Version:  2.1.1                                 |
|   \\  /    A nd           | Web:      www.OpenFOAM.org                      |
|    \\/     M anipulation  |                                                 |
\*---------------------------------------------------------------------------*/
FoamFile
{
    version     2.0;
    format      ascii;
    class       volScalarField;
    location    "0.005";
    object      p;
}
// * * * * * * * * * * * * * * * * * * * * * * * * * * * * * * * * * * * * * //

dimensions      [0 2 -2 0 0 0 0];

internalField   nonuniform List<scalar> 
6820
(
17.2142
-0.640047
-3.70085
-3.93349
-4.14168
-4.07546
-3.97074
-3.89448
-3.82921
-3.80263
-3.83834
-3.94454
-4.11001
-4.31742
-4.5528
-4.80925
-5.08616
-5.38672
-5.71587
-6.079
-6.48145
-6.92894
-7.42812
-7.98731
-8.6173
-9.33231
-10.1515
-11.1011
-12.2204
-13.5595
-15.2395
-17.3014
-20.4717
10.5455
-0.445899
-3.37503
-3.7238
-4.01581
-4.05167
-3.99378
-3.92409
-3.86269
-3.8321
-3.86189
-3.96313
-4.12465
-4.32924
-4.56266
-4.81769
-5.09341
-5.3928
-5.72068
-6.08226
-6.48275
-6.92759
-7.42316
-7.9774
-8.60052
-9.30587
-10.1111
-11.0399
-12.1255
-13.412
-14.9761
-16.8747
-19.3023
7.85039
1.00908
-2.32052
-3.12451
-3.63201
-3.84729
-3.87651
-3.85445
-3.8224
-3.81224
-3.85495
-3.96356
-4.12728
-4.3304
-4.56015
-4.81026
-5.08029
-5.37353
-5.69489
-6.04942
-6.44184
-6.87703
-7.36062
-7.89962
-8.50291
-9.18181
-9.95073
-10.8279
-11.8367
-13.0036
-14.3585
-15.9048
-17.5432
5.88259
1.25786
-1.86374
-2.75317
-3.24842
-3.53205
-3.63556
-3.67742
-3.70493
-3.74157
-3.81381
-3.93032
-4.0915
-4.28864
-4.51264
-4.75901
-5.02691
-5.31787
-5.63534
-5.98351
-6.3667
-6.7894
-7.25669
-7.77465
-8.35068
-8.99378
-9.7147
-10.5261
-11.4414
-12.4735
-13.6238
-14.881
-16.1264
4.26651
1.17969
-1.4425
-2.36866
-2.89145
-3.24905
-3.42792
-3.5264
-3.60153
-3.67614
-3.77021
-3.89512
-4.05515
-4.24807
-4.46887
-4.71212
-4.97587
-5.26153
-5.57223
-5.91166
-6.28357
-6.69186
-7.14084
-7.63549
-8.18157
-8.78573
-9.45523
-10.1976
-11.0185
-11.921
-12.8921
-13.9129
-14.8752
3.0648
1.02115
-1.16428
-2.12625
-2.66436
-3.04777
-3.26557
-3.39667
-3.50047
-3.59949
-3.71064
-3.8452
-4.00816
-4.19912
-4.41516
-4.65308
-4.91156
-5.19143
-5.49482
-5.82454
-6.18367
-6.57547
-7.00342
-7.47139
-7.98351
-8.54416
-9.15737
-9.82633
-10.551
-11.3275
-12.1373
-12.9584
-13.7108
2.1364
0.75823
-1.01898
-1.93862
-2.46017
-2.84962
-3.10042
-3.26563
-3.39896
-3.5222
-3.64963
-3.79235
-3.95671
-4.14477
-4.35576
-4.58778
-4.83979
-5.1121
-5.40618
-5.72419
-6.06852
-6.44172
-6.84641
-7.28529
-7.76097
-8.27576
-8.83104
-9.42664
-10.0587
-10.7194
-11.3893
-12.0467
-12.6338
1.41402
0.476702
-0.939808
-1.79127
-2.29895
-2.68963
-2.96212
-3.15071
-3.30325
-3.44217
-3.58083
-3.73003
-3.89651
-4.08306
-4.28981
-4.51577
-4.76037
-5.02379
-5.30708
-5.61175
-5.93955
-6.29229
-6.67172
-7.07944
-7.51667
-7.98398
-8.48062
-9.00401
-9.54799
-10.1028
-10.65
-11.17
-11.6212
0.846567
0.198592
-0.921898
-1.6901
-2.17308
-2.5512
-2.83161
-3.03606
-3.20427
-3.35717
-3.50631
-3.66137
-3.82919
-4.01332
-4.21493
-4.43409
-4.67042
-4.92396
-5.19528
-5.48533
-5.79522
-6.12607
-6.47882
-6.85409
-7.25193
-7.6715
-8.11054
-8.56485
-9.02713
-9.48707
-9.92809
-10.3335
-10.6727
0.396083
-0.0603883
-0.941359
-1.61839
-2.07066
-2.43253
-2.7153
-2.93095
-3.11049
-3.27304
-3.42926
-3.58816
-3.75651
-3.93817
-4.1348
-4.34681
-4.57405
-4.81651
-5.07448
-5.34846
-5.63903
-5.94666
-6.27157
-6.61351
-6.97159
-7.3439
-7.72712
-8.11617
-8.50335
-8.87866
-9.22771
-9.53666
-9.78236
0.0355713
-0.292646
-0.984453
-1.57234
-1.99072
-2.33271
-2.61072
-2.83093
-3.017
-3.18584
-3.34702
-3.50848
-3.67651
-3.85502
-4.04598
-4.25018
-4.46765
-4.6983
-4.94211
-5.19918
-5.46959
-5.75324
-6.04975
-6.3582
-6.67694
-7.00337
-7.33353
-7.66196
-7.98113
-8.28181
-8.55178
-8.77983
-8.94814
-0.254704
-0.495887
-1.04019
-1.54477
-1.92684
-2.24669
-2.51576
-2.73661
-2.92629
-3.09899
-3.26314
-3.42569
-3.59244
-3.7672
-3.95205
-4.1479
-4.35487
-4.5728
-4.80149
-5.04069
-5.2901
-5.54917
-5.817
-6.09215
-6.37246
-6.65487
-6.93514
-7.20782
-7.46584
-7.70102
-7.90314
-8.06328
-8.16759
-0.489174
-0.670251
-1.10045
-1.5303
-1.87589
-2.17281
-2.43002
-2.64766
-2.83758
-3.01129
-3.17613
-3.33815
-3.50247
-3.67264
-3.85075
-4.0377
-4.23365
-4.43834
-4.65137
-4.87225
-5.10032
-5.33469
-5.57407
-5.81666
-6.05998
-6.30075
-6.53474
-6.75673
-6.96034
-7.13852
-7.28283
-7.3863
-7.43814
-0.678494
-0.817278
-1.1596
-1.52424
-1.83429
-2.10802
-2.35136
-2.56302
-2.75075
-2.92353
-3.08751
-3.24778
-3.40877
-3.5737
-3.74449
-3.92201
-4.10636
-4.29723
-4.49408
-4.69621
-4.90273
-5.11247
-5.32389
-5.53495
-5.74304
-5.94483
-6.13627
-6.31256
-6.46809
-6.59691
-6.69217
-6.74854
-6.75762
-0.830612
-0.939048
-1.21376
-1.52262
-1.79914
-2.05017
-2.27865
-2.48229
-2.66573
-2.83565
-2.99705
-3.15416
-3.31072
-3.46957
-3.63242
-3.80002
-3.97239
-4.14914
-4.32959
-4.5129
-4.698
-4.88356
-5.06786
-5.24879
-5.42369
-5.58939
-5.7421
-5.87756
-5.99095
-6.07735
-6.1313
-6.14878
-6.12337
-0.951512
-1.03775
-1.26037
-1.52224
-1.76788
-1.99712
-2.21034
-2.40452
-2.58206
-2.74765
-2.90519
-3.05807
-3.20939
-3.36154
-3.51594
-3.67319
-3.83324
-3.9956
-4.15953
-4.32407
-4.48806
-4.65006
-4.80832
-4.96069
-5.10464
-5.23719
-5.35495
-5.4542
-5.53089
-5.58106
-5.60041
-5.58603
-5.53305
-1.04574
-1.11546
-1.29782
-1.52054
-1.73831
-1.94704
-2.14511
-2.32901
-2.49945
-2.6595
-2.81202
-2.95966
-3.10489
-3.24965
-3.39509
-3.54165
-3.68916
-3.83707
-3.98456
-4.13062
-4.27404
-4.41337
-4.54686
-4.67247
-4.78781
-4.8902
-4.97666
-5.04404
-5.08902
-5.10845
-5.09906
-5.05879
-4.98404
-1.11677
-1.17402
-1.32512
-1.51551
-1.70856
-1.8983
-2.08172
-2.25493
-2.41747
-2.57106
-2.71769
-2.8593
-2.99778
-3.13465
-3.27077
-3.4064
-3.54125
-3.67473
-3.80599
-3.934
-4.05755
-4.17523
-4.28538
-4.38609
-4.4752
-4.55035
-4.609
-4.64853
-4.66628
-4.65983
-4.62674
-4.56563
-4.47393
-1.16727
-1.21497
-1.34174
-1.50559
-1.67704
-1.84949
-2.01904
-2.18155
-2.33573
-2.48225
-2.62232
-2.75725
-2.88844
-3.01697
-3.14346
-3.26799
-3.39018
-3.5094
-3.62478
-3.73532
-3.83986
-3.93706
-4.0254
-4.10314
-4.1684
-4.21914
-4.25325
-4.26862
-4.26317
-4.23508
-4.18262
-4.10494
-4.00028
-1.19927
-1.23961
-1.34738
-1.48959
-1.64244
-1.7994
-1.95607
-2.10818
-2.25384
-2.39295
-2.526
-2.65382
-2.7773
-2.89721
-3.01389
-3.12726
-3.2369
-3.34212
-3.44209
-3.53586
-3.62234
-3.70032
-3.76843
-3.82516
-3.86888
-3.8979
-3.91051
-3.90505
-3.87997
-3.83395
-3.7658
-3.67513
-3.56079
-1.21434
-1.24896
-1.34189
-1.46659
-1.60367
-1.747
-1.89196
-2.03422
-2.17149
-2.30306
-2.42888
-2.5493
-2.66483
-2.77592
-2.8827
-2.98497
-3.08225
-3.17385
-3.25898
-3.33677
-3.40624
-3.46631
-3.5158
-3.55342
-3.57783
-3.58766
-3.58156
-3.55828
-3.5167
-3.45595
-3.37527
-3.27457
-3.15323
-1.21341
-1.24378
-1.32519
-1.43589
-1.55984
-1.69142
-1.82596
-1.95915
-2.0884
-2.21254
-2.33109
-2.44401
-2.55149
-2.6537
-2.75061
-2.84193
-2.92714
-3.00559
-3.07654
-3.13921
-3.19276
-3.23626
-3.26872
-3.28909
-3.2963
-3.28927
-3.26699
-3.22858
-3.17326
-3.10051
-3.00995
-2.9017
-2.77554
-1.19758
-1.22457
-1.29717
-1.39692
-1.51022
-1.63195
-1.75751
-1.88259
-2.0044
-2.12144
-2.23289
-2.33838
-2.43784
-2.53123
-2.61841
-2.699
-2.77252
-2.83834
-2.89581
-2.94427
-2.98301
-3.01128
-3.02827
-3.03316
-3.02513
-3.00339
-2.96722
-2.91603
-2.84937
-2.76697
-2.66874
-2.55498
-2.42574
-1.16709
-1.1916
-1.2577
-1.34919
-1.4542
-1.56801
-1.68611
-1.80419
-1.91934
-2.02979
-2.13446
-2.23275
-2.32436
-2.40912
-2.48679
-2.557
-2.61926
-2.67305
-2.71782
-2.75301
-2.77806
-2.79239
-2.7954
-2.78648
-2.76503
-2.73053
-2.6825
-2.62062
-2.54467
-2.45462
-2.35057
-2.23295
-2.10203
-1.1221
-1.14492
-1.20653
-1.29224
-1.39128
-1.49922
-1.61156
-1.72398
-1.83348
-1.93807
-2.03647
-2.12791
-2.21195
-2.28833
-2.35678
-2.41695
-2.46845
-2.51082
-2.54363
-2.56647
-2.57892
-2.58057
-2.57101
-2.54981
-2.51661
-2.47108
-2.413
-2.34222
-2.25874
-2.1627
-2.05437
-1.93424
-1.80275
-1.06238
-1.08423
-1.14327
-1.22556
-1.32093
-1.42503
-1.53336
-1.64154
-1.74646
-1.84603
-1.93881
-2.02391
-2.10081
-2.16922
-2.22888
-2.27952
-2.32082
-2.35246
-2.37412
-2.38555
-2.38647
-2.37664
-2.35581
-2.32376
-2.28031
-2.22531
-2.15873
-2.08061
-1.9911
-1.89047
-1.7791
-1.65754
-1.52633
-0.987365
-1.00898
-1.06737
-1.14876
-1.24303
-1.34576
-1.4523
-1.55812
-1.65996
-1.75561
-1.84355
-1.92285
-1.99299
-2.05372
-2.10488
-2.14633
-2.17787
-2.19934
-2.21056
-2.2114
-2.20176
-2.18152
-2.15062
-2.10898
-2.05659
-1.99348
-1.91976
-1.83561
-1.74131
-1.63723
-1.52384
-1.40169
-1.27141
-0.895976
-0.918096
-0.97783
-1.0608
-1.15639
-1.25993
-1.36658
-1.47163
-1.57173
-1.66459
-1.74867
-1.82302
-1.88716
-1.94092
-1.98427
-2.01721
-2.03973
-2.0518
-2.05342
-2.04459
-2.02536
-1.99578
-1.9559
-1.90583
-1.84568
-1.77563
-1.69592
-1.60684
-1.50878
-1.40217
-1.28755
-1.16546
-1.03661
-0.786605
-0.810239
-0.873984
-0.962096
-1.06283
-1.17097
-1.28119
-1.38832
-1.48877
-1.58022
-1.6612
-1.73091
-1.78907
-1.83576
-1.8712
-1.89563
-1.90924
-1.9122
-1.90466
-1.88676
-1.85866
-1.82055
-1.77261
-1.71506
-1.64813
-1.57213
-1.48739
-1.39429
-1.2933
-1.18489
-1.06965
-0.948103
-0.821007
-0.656701
-0.682671
-0.752713
-0.848513
-0.956543
-1.07115
-1.18666
-1.29757
-1.40009
-1.49187
-1.57147
-1.63818
-1.6919
-1.73292
-1.76172
-1.77879
-1.78457
-1.77943
-1.76368
-1.73764
-1.70161
-1.65588
-1.60077
-1.53662
-1.46377
-1.38263
-1.29361
-1.19718
-1.09386
-0.984181
-0.868741
-0.748061
-0.622931
-0.503076
-0.533778
-0.615935
-0.727033
-0.85027
-0.978651
-1.10539
-1.22418
-1.33106
-1.42389
-1.50166
-1.56415
-1.61184
-1.64556
-1.66626
-1.67483
-1.67199
-1.65831
-1.63424
-1.6002
-1.55656
-1.50371
-1.44203
-1.37192
-1.29383
-1.20819
-1.11552
-1.01633
-0.911186
-0.800641
-0.685322
-0.565723
-0.442657
-0.319486
-0.354631
-0.449805
-0.576393
-0.714548
-0.857303
-0.997207
-1.12688
-1.24181
-1.33977
-1.41979
-1.48198
-1.52722
-1.55682
-1.57217
-1.57455
-1.56501
-1.54437
-1.51331
-1.47238
-1.42208
-1.36291
-1.29534
-1.21988
-1.13702
-1.04731
-0.951299
-0.84958
-0.742759
-0.631433
-0.516259
-0.397727
-0.27669
-0.101685
-0.151206
-0.278344
-0.441233
-0.611942
-0.781882
-0.942547
-1.08599
-1.2082
-1.30785
-1.38502
-1.44098
-1.47777
-1.49772
-1.50304
-1.49556
-1.47665
-1.44728
-1.40814
-1.35979
-1.3027
-1.23735
-1.16421
-1.08379
-0.99661
-0.903248
-0.804301
-0.700391
-0.592166
-0.48025
-0.365329
-0.247879
-0.128783
0.171369
0.119136
-0.0285504
-0.218212
-0.418319
-0.61997
-0.810642
-0.979002
-1.12003
-1.23244
-1.31688
-1.37562
-1.41186
-1.42892
-1.42981
-1.41696
-1.39217
-1.35671
-1.31148
-1.25716
-1.19432
-1.1235
-1.04523
-0.960052
-0.868561
-0.771375
-0.669151
-0.562575
-0.452368
-0.339232
-0.22394
-0.107036
0.0104928
0.488552
0.380428
0.145825
-0.116356
-0.367722
-0.607754
-0.825523
-1.00984
-1.15712
-1.26749
-1.34319
-1.38865
-1.40935
-1.41054
-1.39655
-1.37051
-1.33439
-1.2893
-1.23586
-1.17445
-1.1054
-1.02907
-0.945884
-0.856322
-0.76094
-0.660353
-0.55524
-0.446313
-0.334332
-0.220043
-0.104294
0.0123281
0.128697
0.962844
0.87843
0.601535
0.267497
-0.0660909
-0.387341
-0.672838
-0.907696
-1.08962
-1.22085
-1.3067
-1.35509
-1.37423
-1.37131
-1.35196
-1.32006
-1.27798
-1.22708
-1.16809
-1.1014
-1.0273
-0.946103
-0.858169
-0.763959
-0.664015
-0.558963
-0.449515
-0.336467
-0.220706
-0.103186
0.0149878
0.132908
0.249063
1.39224
1.07653
0.623386
0.230068
-0.136048
-0.493693
-0.807656
-1.05947
-1.24618
-1.36794
-1.43136
-1.44964
-1.43678
-1.40433
-1.36067
-1.31035
-1.25485
-1.19408
-1.1275
-1.05464
-0.975246
-0.889311
-0.79701
-0.698693
-0.594849
-0.486075
-0.373087
-0.256641
-0.13748
-0.0164974
0.105176
0.226311
0.344936
2.61605
2.28868
1.52093
0.841746
0.248449
-0.283995
-0.715464
-1.0394
-1.26506
-1.4018
-1.46504
-1.47522
-1.45136
-1.40769
-1.35372
-1.29421
-1.231
-1.16413
-1.09276
-1.0159
-0.93284
-0.843219
-0.746975
-0.644274
-0.535458
-0.420988
-0.301441
-0.177621
-0.0504468
0.0786974
0.20832
0.335943
0.458836
2.57746
1.82149
1.18544
0.684431
0.0691546
-0.542938
-1.05173
-1.43588
-1.67728
-1.77494
-1.76492
-1.69645
-1.60399
-1.50604
-1.41476
-1.33156
-1.25328
-1.17628
-1.0975
-1.01468
-0.926405
-0.831927
-0.73095
-0.623512
-0.509925
-0.390592
-0.266544
-0.138529
-0.00477554
0.134379
0.280411
0.428038
0.588122
8.64741
4.03113
2.18519
1.2676
0.217759
-0.667835
-1.30862
-1.76026
-2.02696
-2.11743
-2.06999
-1.9422
-1.78749
-1.63584
-1.49713
-1.3761
-1.27156
-1.17869
-1.09174
-1.00551
-0.916048
-0.820849
-0.718595
-0.608699
-0.490894
-0.365173
-0.230839
-0.0879963
0.0620844
0.218994
0.386366
0.558386
0.752683
-23.5022
-19.4578
-24.6017
-32.6361
-35.4981
-31.6224
-23.9472
-16.1482
-9.97787
-5.44837
-2.12334
0.327519
2.14429
3.50507
4.53349
5.31639
5.91581
6.37606
6.72911
6.99845
7.2016
7.35184
7.4594
7.53229
7.57683
7.5981
7.60018
7.58643
7.5596
7.52196
7.47539
7.42145
7.36146
7.29649
7.22744
7.15508
7.08001
7.00275
6.92372
6.84326
6.76163
6.67906
6.59571
6.51171
6.42716
6.34212
6.25663
6.17072
6.08439
5.99763
5.91041
5.82272
5.7345
5.64573
5.55635
5.46631
5.37556
5.28405
5.19171
5.0985
5.00434
4.9092
4.81301
4.71571
4.61725
4.51758
4.41664
4.31438
4.21074
4.10568
3.99916
3.89111
3.7815
3.67028
3.5574
3.44281
3.32649
3.20838
3.08844
2.96663
2.84291
2.71724
2.58958
2.45989
2.32814
2.19428
2.05828
1.92009
1.77969
1.63702
1.49206
1.34479
1.19513
1.04313
0.888594
0.731892
0.572202
0.411339
0.245529
0.0833613
-21.7449
-19.8232
-22.8387
-27.8769
-29.4374
-26.3857
-20.5613
-14.3583
-9.1462
-5.122
-2.06051
0.257259
2.01127
3.3457
4.36664
5.15172
5.758
6.22719
6.58992
6.86897
7.08149
7.24062
7.35653
7.43721
7.48898
7.51696
7.52527
7.51729
7.4958
7.4631
7.42111
7.3714
7.31533
7.25398
7.18828
7.11901
7.04681
6.97219
6.89559
6.81738
6.73783
6.65717
6.57559
6.49322
6.41017
6.32651
6.2423
6.15756
6.07231
5.98653
5.90023
5.81337
5.72593
5.63786
5.54913
5.45968
5.36948
5.27846
5.18657
5.09377
5
4.9052
4.80932
4.71231
4.61411
4.51467
4.41394
4.31187
4.20841
4.10352
3.99713
3.88922
3.77972
3.6686
3.55582
3.44132
3.32508
3.20704
3.08716
2.96541
2.84174
2.71612
2.58851
2.45886
2.32715
2.19333
2.05736
1.91921
1.77883
1.63621
1.49129
1.34405
1.19443
1.04248
0.888009
0.731375
0.571774
0.410998
0.245346
0.0832294
-19.3204
-18.8505
-20.633
-23.8443
-24.759
-22.3098
-17.7459
-12.7436
-8.33344
-4.76952
-1.96516
0.213498
1.89657
3.19779
4.20627
4.9901
5.601
6.0777
6.44922
6.73744
6.95906
7.12694
7.25116
7.33964
7.39872
7.43351
7.44815
7.44605
7.43001
7.40238
7.36507
7.31972
7.26767
7.21004
7.14779
7.08171
7.01245
6.94055
6.86648
6.79059
6.71318
6.63451
6.55475
6.47407
6.39258
6.31035
6.22746
6.14394
6.0598
5.97506
5.8897
5.80371
5.71707
5.62973
5.54167
5.45284
5.3632
5.27269
5.18128
5.08891
4.99553
4.90109
4.80553
4.70881
4.61088
4.51169
4.41118
4.30932
4.20604
4.10131
3.99507
3.88729
3.77792
3.66691
3.55422
3.43982
3.32365
3.20568
3.08587
2.96418
2.84057
2.715
2.58743
2.45783
2.32616
2.19237
2.05644
1.91832
1.77799
1.6354
1.49051
1.34332
1.19374
1.04184
0.887431
0.730865
0.571354
0.410663
0.245168
0.0831014
-17.5135
-17.7632
-18.8661
-20.7393
-21.0648
-19.0065
-15.3665
-11.2917
-7.54737
-4.39787
-1.84126
0.195181
1.80091
3.06283
4.054
4.83307
5.44614
5.92871
6.30793
6.60462
6.8349
7.01129
7.14368
7.23993
7.30632
7.34795
7.36898
7.37285
7.36236
7.33988
7.30737
7.26645
7.21852
7.16471
7.106
7.04319
6.97696
6.90787
6.83639
6.76289
6.6877
6.61107
6.53321
6.45427
6.37438
6.29364
6.21211
6.12985
6.04687
5.96319
5.87882
5.79373
5.70791
5.62134
5.53397
5.44578
5.35672
5.26675
5.17583
5.0839
4.99093
4.89686
4.80164
4.70523
4.60758
4.50864
4.40836
4.3067
4.20361
4.09905
3.99297
3.88533
3.77608
3.66519
3.5526
3.43829
3.32221
3.20432
3.08458
2.96295
2.83939
2.71388
2.58636
2.4568
2.32516
2.19142
2.05552
1.91744
1.77714
1.63459
1.48974
1.34259
1.19306
1.04121
0.886861
0.730362
0.570942
0.410334
0.244994
0.0829776
-15.9166
-16.3735
-17.0528
-18.0695
-18.0387
-16.2992
-13.3481
-9.99049
-6.79859
-4.01807
-1.69514
0.199607
1.72367
2.9412
3.91062
4.68148
5.29421
5.78087
6.16657
6.47093
6.70933
6.8939
7.03428
7.13819
7.21185
7.26035
7.28783
7.29771
7.29286
7.27562
7.24798
7.2116
7.16788
7.11798
7.06289
7.00345
6.94033
6.87412
6.8053
6.73428
6.66137
6.58685
6.51093
6.43379
6.35557
6.27636
6.19625
6.11528
6.03351
5.95093
5.86757
5.78342
5.69846
5.61267
5.52603
5.4385
5.35005
5.26063
5.17021
5.07875
4.9862
4.89251
4.79765
4.70156
4.60419
4.50552
4.40548
4.30404
4.20114
4.09676
3.99084
3.88334
3.77422
3.66345
3.55097
3.43675
3.32076
3.20294
3.08327
2.96171
2.83821
2.71275
2.58528
2.45577
2.32417
2.19047
2.05461
1.91657
1.77631
1.63379
1.48898
1.34187
1.19239
1.04059
0.886301
0.729869
0.570539
0.410014
0.244825
0.0828587
-14.5059
-14.9902
-15.4142
-15.8777
-15.5818
-14.0612
-11.623
-8.82503
-6.09104
-3.63637
-1.53137
0.224473
1.66427
2.83331
3.77702
4.53635
5.14618
5.63505
6.02589
6.33698
6.58287
6.77519
6.92328
7.03469
7.11555
7.17088
7.20481
7.22076
7.22159
7.20965
7.18697
7.15521
7.11578
7.06987
7.01849
6.96249
6.90256
6.83931
6.77323
6.70475
6.63419
6.56184
6.48793
6.41265
6.33614
6.25851
6.17986
6.10024
6.01971
5.93828
5.85597
5.77278
5.68871
5.60374
5.51784
5.431
5.34317
5.25433
5.16444
5.07346
4.98134
4.88805
4.79355
4.69779
4.60073
4.50233
4.40254
4.30132
4.19863
4.09442
3.98867
3.88132
3.77234
3.66169
3.54932
3.4352
3.3193
3.20156
3.08197
2.96047
2.83703
2.71162
2.5842
2.45474
2.32319
2.18952
2.05371
1.9157
1.77548
1.633
1.48823
1.34116
1.19173
1.03998
0.885751
0.729387
0.570146
0.409703
0.24466
0.0827449
-13.2322
-13.6379
-13.8662
-13.9756
-13.519
-12.1795
-10.138
-7.78146
-5.42739
-3.25889
-1.35482
0.267013
1.62164
2.73914
3.65371
4.39843
5.00284
5.492
5.88655
6.20332
6.45596
6.65552
6.81098
6.92968
7.0176
7.0797
7.12006
7.14208
7.14862
7.14205
7.12438
7.0973
7.06223
7.0204
6.9728
6.92032
6.86366
6.80344
6.74018
6.6743
6.60615
6.53604
6.46421
6.39084
6.31609
6.2401
6.16295
6.08473
6.00547
5.92522
5.844
5.76181
5.67866
5.59453
5.50941
5.42327
5.3361
5.24785
5.1585
5.06802
4.97636
4.88348
4.78936
4.69394
4.59719
4.49907
4.39953
4.29855
4.19607
4.09205
3.98647
3.87928
3.77044
3.65991
3.54766
3.43364
3.31783
3.20018
3.08066
2.95923
2.83585
2.7105
2.58313
2.45371
2.32221
2.18859
2.05281
1.91484
1.77466
1.63222
1.48749
1.34046
1.19108
1.03938
0.885214
0.728916
0.569763
0.409401
0.2445
0.0826369
-12.0632
-12.3646
-12.452
-12.3443
-11.7918
-10.5913
-8.85312
-6.84656
-4.8084
-2.88995
-1.16948
0.324643
1.59457
2.65847
3.54105
4.26837
4.86496
5.35245
5.74921
6.07055
6.32912
6.53532
6.69775
6.82344
6.91824
6.987
7.03373
7.06181
7.07407
7.07289
7.06027
7.03793
7.0073
6.9696
6.92586
6.87696
6.82364
6.76653
6.70615
6.64294
6.57728
6.50946
6.43975
6.36835
6.29543
6.22111
6.14552
6.06873
5.9908
5.91176
5.83166
5.75051
5.6683
5.58505
5.50073
5.41533
5.32882
5.24119
5.15241
5.06244
4.97125
4.8788
4.78506
4.69
4.59357
4.49574
4.39647
4.29573
4.19346
4.08965
3.98424
3.87721
3.76851
3.65811
3.54598
3.43207
3.31635
3.19879
3.07935
2.95799
2.83468
2.70938
2.58207
2.4527
2.32124
2.18766
2.05192
1.914
1.77385
1.63145
1.48677
1.33978
1.19044
1.0388
0.88469
0.728459
0.569392
0.40911
0.244344
0.0825349
-10.9878
-11.1821
-11.1585
-10.9146
-10.313
-9.22962
-7.73243
-6.00794
-4.23344
-2.53281
-0.978924
0.394753
1.58164
2.59082
3.43918
4.14663
4.73314
5.21707
5.61451
5.93923
6.20283
6.41503
6.58392
6.71627
6.81772
6.89297
6.94598
6.98007
6.99803
7.00225
6.99473
6.97717
6.95102
6.91751
6.87769
6.83245
6.78253
6.72859
6.67115
6.61068
6.54756
6.4821
6.41457
6.34519
6.27414
6.20156
6.12757
6.05225
5.97568
5.89791
5.81897
5.73888
5.65765
5.5753
5.4918
5.40716
5.32135
5.23436
5.14616
5.05672
4.96601
4.87401
4.78067
4.68598
4.58988
4.49235
4.39336
4.29286
4.19082
4.08721
3.98199
3.87512
3.76657
3.65631
3.5443
3.4305
3.31488
3.1974
3.07804
2.95675
2.83351
2.70827
2.58101
2.45169
2.32028
2.18675
2.05105
1.91317
1.77306
1.6307
1.48605
1.33911
1.18982
1.03823
0.884183
0.728017
0.569034
0.40883
0.244194
0.0824395
-9.99368
-10.0922
-9.98471
-9.6599
-9.04166
-8.05711
-6.7513
-5.25495
-3.70105
-2.18978
-0.786171
0.474921
1.58136
2.53553
3.34804
4.03354
4.60791
5.08645
5.48305
5.80993
6.07761
6.29506
6.46989
6.6085
6.7163
6.79786
6.85701
6.89702
6.92066
6.93026
6.92784
6.91509
6.89346
6.86419
6.82834
6.78681
6.74036
6.68964
6.63521
6.57754
6.51701
6.45397
6.38868
6.32138
6.25225
6.18145
6.1091
6.0353
5.96014
5.88366
5.80591
5.72692
5.6467
5.56528
5.48264
5.39878
5.31369
5.22735
5.13975
5.05086
4.96065
4.86911
4.77619
4.68187
4.58612
4.4889
4.39019
4.28995
4.18814
4.08474
3.97971
3.87301
3.76462
3.65449
3.54261
3.42892
3.3134
3.19602
3.07674
2.95552
2.83235
2.70717
2.57997
2.4507
2.31934
2.18585
2.0502
1.91235
1.77228
1.62997
1.48536
1.33846
1.18922
1.03768
0.883692
0.727591
0.56869
0.408562
0.244049
0.0823511
-9.07491
-9.09268
-8.92182
-8.54966
-7.93457
-7.03603
-5.88614
-4.57719
-3.20906
-1.86235
-0.593712
0.562906
1.5922
2.4918
3.2674
3.92927
4.48966
4.96109
5.35537
5.68317
5.95394
6.17588
6.35604
6.50046
6.61428
6.70189
6.76702
6.81284
6.84208
6.85704
6.8597
6.85177
6.83469
6.80969
6.77786
6.74008
6.69715
6.64972
6.59835
6.54353
6.48566
6.42509
6.36209
6.29691
6.22976
6.16078
6.09012
6.01789
5.94417
5.86902
5.79249
5.71463
5.63546
5.55499
5.47323
5.39018
5.30583
5.22017
5.13319
5.04487
4.95518
4.8641
4.77162
4.67769
4.58229
4.4854
4.38698
4.287
4.18543
4.08225
3.97741
3.87089
3.76266
3.65267
3.54091
3.42734
3.31193
3.19464
3.07544
2.95431
2.8312
2.70609
2.57894
2.44973
2.31841
2.18497
2.04936
1.91156
1.77153
1.62925
1.48469
1.33784
1.18864
1.03715
0.883221
0.727183
0.568361
0.408307
0.24391
0.0822702
-8.22561
-8.17779
-7.96062
-7.56363
-6.96447
-6.1419
-5.1204
-3.96633
-2.75514
-1.5514
-0.40358
0.656681
1.61264
2.45873
3.1969
3.83383
4.37868
4.84143
5.23195
5.55946
5.8323
6.05791
6.24275
6.39248
6.51195
6.60533
6.67623
6.72772
6.76246
6.78271
6.79043
6.78731
6.77478
6.75409
6.7263
6.69233
6.65296
6.60886
6.5606
6.50869
6.45353
6.39547
6.33482
6.27182
6.20668
6.13957
6.07065
6.00002
5.92777
5.85399
5.77873
5.70204
5.62394
5.54445
5.4636
5.38138
5.29779
5.21283
5.12649
5.03875
4.94959
4.859
4.76696
4.67343
4.5784
4.48184
4.38372
4.28401
4.1827
4.07973
3.9751
3.86876
3.76069
3.65085
3.53922
3.42577
3.31046
3.19327
3.07416
2.95311
2.83007
2.70502
2.57793
2.44877
2.31751
2.18411
2.04854
1.91078
1.7708
1.62856
1.48404
1.33723
1.18808
1.03664
0.882771
0.726795
0.568048
0.408068
0.243777
0.0821972
-7.44085
-7.34134
-7.09144
-6.68406
-6.10786
-5.35289
-4.43882
-3.4143
-2.33658
-1.25728
-0.217373
0.754457
1.64123
2.43535
3.13605
3.74713
4.27511
4.72778
5.11321
5.43923
5.71314
5.94157
6.13043
6.28493
6.40962
6.50846
6.58488
6.64186
6.68197
6.70743
6.72017
6.72183
6.71385
6.69747
6.67374
6.6436
6.60783
6.5671
6.52201
6.47305
6.42064
6.36515
6.30688
6.2461
6.18303
6.11784
6.05069
5.9817
5.91098
5.8386
5.76464
5.68913
5.61213
5.53366
5.45374
5.37237
5.28957
5.20533
5.11964
5.0325
4.9439
4.85381
4.76222
4.66911
4.57445
4.47823
4.38042
4.281
4.17993
4.0772
3.97277
3.86662
3.75871
3.64903
3.53754
3.42421
3.30901
3.19192
3.0729
2.95192
2.82896
2.70398
2.57695
2.44784
2.31663
2.18327
2.04775
1.91004
1.77009
1.6279
1.48342
1.33665
1.18755
1.03616
0.882345
0.726429
0.567754
0.407843
0.243651
0.0821329
-6.71619
-6.57683
-6.30495
-5.89675
-5.3473
-4.65291
-3.82988
-2.9146
-1.95088
-0.980012
-0.0363352
0.854668
1.67657
2.42067
3.08427
3.66894
4.17902
4.62038
4.99949
5.32289
5.59687
5.82728
6.01945
6.17815
6.30761
6.41154
6.49322
6.55548
6.60081
6.63138
6.64904
6.65544
6.65199
6.63991
6.62027
6.59397
6.56183
6.52451
6.48261
6.43664
6.38703
6.33415
6.27832
6.21981
6.15884
6.0956
6.03026
5.96296
5.89379
5.82285
5.75021
5.67594
5.60007
5.52263
5.44367
5.36318
5.28118
5.19768
5.11266
5.02614
4.9381
4.84853
4.7574
4.66472
4.57045
4.47458
4.37709
4.27796
4.17715
4.07465
3.97044
3.86448
3.75675
3.64722
3.53587
3.42266
3.30758
3.19058
3.07165
2.95076
2.82787
2.70296
2.57599
2.44694
2.31577
2.18247
2.04699
1.90932
1.76942
1.62726
1.48283
1.3361
1.18704
1.03571
0.881945
0.726087
0.567479
0.407636
0.243533
0.0820778
-6.04718
-5.87792
-5.59245
-5.18971
-4.6685
-4.02853
-3.28348
-2.46118
-1.59543
-0.719287
0.138621
0.955978
1.71738
2.41369
3.04092
3.59894
4.09036
4.51938
4.89107
5.21079
5.48387
5.71542
5.91019
6.0725
6.20624
6.31488
6.4015
6.46881
6.51918
6.55471
6.57722
6.58829
6.58933
6.58153
6.56596
6.54353
6.51503
6.48114
6.44247
6.39953
6.35275
6.30252
6.24916
6.19295
6.13412
6.07288
6.0094
5.94381
5.87623
5.80676
5.73548
5.66246
5.58775
5.51138
5.43339
5.3538
5.27263
5.18988
5.10557
5.01968
4.93221
4.84317
4.75253
4.66028
4.56641
4.4709
4.37374
4.2749
4.17436
4.0721
3.9681
3.86234
3.75479
3.64542
3.53421
3.42113
3.30616
3.18927
3.07044
2.94963
2.82681
2.70197
2.57506
2.44607
2.31495
2.1817
2.04627
1.90864
1.76877
1.62666
1.48227
1.33559
1.18657
1.03528
0.881573
0.725771
0.567226
0.407448
0.243422
0.0820326
-5.42985
-5.23875
-4.94609
-4.5529
-4.06011
-3.46913
-2.79155
-2.04901
-1.26787
-0.474658
0.306827
1.05725
1.76249
2.41344
3.0053
3.53676
4.00898
4.42484
4.78814
5.1032
5.37448
5.60635
5.803
5.9683
6.10582
6.21876
6.31
6.38209
6.4373
6.47764
6.50486
6.52053
6.52599
6.52245
6.51093
6.49236
6.46751
6.43707
6.40165
6.36176
6.31785
6.2703
6.21945
6.16558
6.10893
6.04972
5.98812
5.92428
5.85832
5.79035
5.72046
5.64872
5.57519
5.49991
5.42293
5.34426
5.26393
5.18196
5.09836
5.01312
4.92625
4.83774
4.74759
4.65579
4.56233
4.46719
4.37036
4.27183
4.17156
4.06955
3.96578
3.86022
3.75284
3.64364
3.53257
3.41963
3.30478
3.18799
3.06925
2.94853
2.82579
2.70101
2.57417
2.44523
2.31417
2.18096
2.04558
1.90799
1.76817
1.6261
1.48175
1.33511
1.18614
1.0349
0.881233
0.725484
0.566996
0.40728
0.243321
0.0819982
-4.86023
-4.65382
-4.35884
-3.97779
-3.51275
-2.96595
-2.34719
-1.67359
-0.965912
-0.245514
0.467847
1.15754
1.81083
2.41896
2.97672
3.48192
3.93468
4.33673
4.69084
5.00037
5.26898
5.50038
5.6982
5.8659
6.00668
6.12349
6.21898
6.29556
6.35538
6.40035
6.43216
6.45231
6.46214
6.46279
6.4553
6.44056
6.41936
6.39238
6.36022
6.32341
6.28238
6.23754
6.18923
6.13773
6.08329
6.02614
5.96646
5.90439
5.84009
5.77365
5.70518
5.63475
5.56242
5.48826
5.41229
5.33457
5.25511
5.17393
5.09105
5.00647
4.92021
4.83226
4.74261
4.65127
4.55823
4.46347
4.36698
4.26875
4.16877
4.06701
3.96347
3.85811
3.75092
3.64188
3.53097
3.41815
3.30342
3.18675
3.0681
2.94746
2.8248
2.7001
2.57332
2.44444
2.31343
2.18027
2.04493
1.90739
1.76761
1.62558
1.48127
1.33467
1.18574
1.03454
0.880928
0.725229
0.566793
0.407134
0.243228
0.0819754
-4.33474
-4.11819
-3.82451
-3.45713
-3.01874
-2.51182
-1.94469
-1.33107
-0.687484
-0.0311954
0.621399
1.25607
1.86147
2.42937
2.95444
3.43394
3.86716
4.25496
4.5992
4.90244
5.16761
5.39779
5.59611
5.7656
5.90912
6.02934
6.12872
6.20949
6.27367
6.32306
6.3593
6.38382
6.39791
6.4027
6.39919
6.38826
6.37069
6.34716
6.31827
6.28454
6.24642
6.20431
6.15856
6.10945
6.05726
6.0022
5.94445
5.8842
5.82157
5.75669
5.68966
5.62056
5.54946
5.47643
5.40151
5.32475
5.24617
5.1658
5.08366
4.99976
4.91412
4.82673
4.7376
4.64673
4.55411
4.45973
4.3636
4.26569
4.16599
4.06449
3.96118
3.85603
3.74903
3.64016
3.52939
3.41672
3.30211
3.18554
3.067
2.94644
2.82386
2.69923
2.57251
2.44369
2.31274
2.17963
2.04433
1.90683
1.7671
1.62511
1.48083
1.33428
1.18539
1.03423
0.880661
0.725008
0.566617
0.407012
0.243146
0.0819653
-3.84995
-3.62736
-3.33762
-2.98473
-2.57162
-2.10076
-1.57921
-1.01809
-0.430673
0.16901
0.767347
1.3522
1.91357
2.44384
2.93777
3.39228
3.8061
4.17937
4.51324
4.80954
5.07056
5.29884
5.49701
5.66769
5.81343
5.93662
6.0395
6.12413
6.19239
6.246
6.28649
6.31524
6.33348
6.34232
6.34273
6.33557
6.32161
6.30152
6.2759
6.24525
6.21005
6.17068
6.12751
6.08082
6.03088
5.97793
5.92215
5.86373
5.80281
5.7395
5.67393
5.60618
5.53634
5.46446
5.3906
5.31482
5.23714
5.15759
5.0762
4.993
4.90798
4.82117
4.73257
4.64217
4.54999
4.45601
4.36023
4.26264
4.16323
4.062
3.95892
3.85398
3.74718
3.63848
3.52787
3.41533
3.30084
3.18439
3.06594
2.94548
2.82298
2.69841
2.57176
2.443
2.3121
2.17904
2.04379
1.90633
1.76664
1.62469
1.48045
1.33393
1.18508
1.03397
0.880435
0.724826
0.566473
0.406917
0.243076
0.081969
-3.40275
-3.17729
-2.89339
-2.55531
-2.16598
-1.72777
-1.24665
-0.73173
-0.193753
0.355813
0.905649
1.44543
1.96638
2.46158
2.926
3.35641
3.75113
4.10976
4.43287
4.7217
4.97797
5.20371
5.40112
5.57244
5.71988
5.84558
5.95157
6.03973
6.11181
6.16939
6.21394
6.24676
6.26904
6.28183
6.28609
6.28264
6.27225
6.25557
6.2332
6.20564
6.17335
6.13673
6.09614
6.05188
6.00422
5.9534
5.89961
5.84304
5.78383
5.72213
5.65804
5.59166
5.52309
5.45238
5.3796
5.3048
5.22804
5.14933
5.06871
4.9862
4.90183
4.8156
4.72753
4.63762
4.54588
4.4523
4.35688
4.25962
4.16051
4.05954
3.9567
3.85198
3.74537
3.63685
3.52639
3.414
3.29963
3.18329
3.06494
2.94457
2.82215
2.69766
2.57107
2.44237
2.31152
2.17851
2.0433
1.90589
1.76623
1.62432
1.48012
1.33364
1.18483
1.03375
0.880256
0.724685
0.566362
0.406851
0.243018
0.081988
-2.99022
-2.76435
-2.4876
-2.16429
-1.79724
-1.38863
-0.943523
-0.469442
0.0248418
0.529914
1.03634
1.53534
2.01928
2.4819
2.91848
3.32576
3.70182
4.04586
4.35798
4.63892
4.88992
5.11258
5.30867
5.48008
5.62873
5.75651
5.86521
5.95656
6.03215
6.09347
6.14187
6.17859
6.20477
6.22141
6.22942
6.22962
6.22275
6.20944
6.19029
6.1658
6.13642
6.10255
6.06455
6.02273
5.97736
5.92867
5.87688
5.82218
5.76471
5.70462
5.64202
5.57703
5.50974
5.44021
5.36853
5.29474
5.21889
5.14103
5.06119
4.9794
4.89568
4.81004
4.72251
4.6331
4.5418
4.44862
4.35357
4.25664
4.15783
4.05714
3.95454
3.85004
3.74362
3.63528
3.52498
3.41272
3.29849
3.18226
3.06401
2.94373
2.82139
2.69697
2.57044
2.4418
2.31101
2.17804
2.04288
1.90551
1.76589
1.62402
1.47986
1.33341
1.18464
1.03359
0.880127
0.724589
0.566289
0.406816
0.242974
0.0820236
-2.60974
-2.38532
-2.11658
-1.80776
-1.4615
-1.07975
-0.666845
-0.229019
0.226515
0.691985
1.15951
1.62163
2.0717
2.50414
2.91457
3.29979
3.65775
3.98738
4.2884
4.56115
4.80647
5.02555
5.21982
5.39083
5.54023
5.66964
5.78067
5.87487
5.95368
6.01847
6.0705
6.11095
6.14087
6.16123
6.1729
6.17667