/*--------------------------------*- C++ -*----------------------------------*\
| =========                 |                                                 |
| \\      /  F ield         | OpenFOAM: The Open Source CFD Toolbox           |
|  \\    /   O peration     | Version:  2.1.1                                 |
|   \\  /    A nd           | Web:      www.OpenFOAM.org                      |
|    \\/     M anipulation  |                                                 |
\*---------------------------------------------------------------------------*/
FoamFile
{
    version     2.0;
    format      ascii;
    class       surfaceScalarField;
    location    "0.005";
    object      phi;
}
// * * * * * * * * * * * * * * * * * * * * * * * * * * * * * * * * * * * * * //

dimensions      [0 3 -1 0 0 0 0];

internalField   nonuniform List<scalar> 
13452
(
4.60448e-05
2.24424e-05
2.98102e-05
1.62346e-05
2.14861e-05
8.32404e-06
1.77903e-05
3.6958e-06
1.64249e-05
1.36543e-06
1.59945e-05
4.30422e-07
1.59783e-05
1.61592e-08
1.61634e-05
-1.85048e-07
1.64454e-05
-2.82069e-07
1.67558e-05
-3.10317e-07
1.70553e-05
-2.99562e-07
1.73323e-05
-2.76955e-07
1.75979e-05
-2.65636e-07
1.78714e-05
-2.73476e-07
1.81686e-05
-2.9723e-07
1.8499e-05
-3.30358e-07
1.88671e-05
-3.68109e-07
1.92758e-05
-4.08729e-07
1.97286e-05
-4.52746e-07
2.02306e-05
-5.02055e-07
2.07898e-05
-5.59204e-07
2.14168e-05
-6.27027e-07
2.21255e-05
-7.08685e-07
2.29335e-05
-8.08006e-07
2.38636e-05
-9.3006e-07
2.49454e-05
-1.0818e-06
2.62192e-05
-1.27385e-06
2.77395e-05
-1.52023e-06
2.95913e-05
-1.85181e-06
3.18814e-05
-2.29015e-06
3.4868e-05
-2.98652e-06
3.87579e-05
-3.88991e-06
-6.17397e-06
4.49318e-05
7.49448e-05
1.79416e-05
7.05768e-05
2.06026e-05
6.37513e-05
1.51495e-05
5.75148e-05
9.93228e-06
5.30043e-05
5.87599e-06
5.01809e-05
3.25383e-06
4.86224e-05
1.57463e-06
4.79588e-05
4.78514e-07
4.78695e-05
-1.92769e-07
4.809e-05
-5.30829e-07
4.84418e-05
-6.51371e-07
4.88372e-05
-6.72293e-07
4.92547e-05
-6.83194e-07
4.97053e-05
-7.24013e-07
5.02063e-05
-7.98287e-07
5.07693e-05
-8.9338e-07
5.13978e-05
-9.96565e-07
5.20909e-05
-1.10183e-06
5.28479e-05
-1.20979e-06
5.36712e-05
-1.32531e-06
5.45669e-05
-1.45486e-06
5.5545e-05
-1.60512e-06
5.66191e-05
-1.7828e-06
5.78063e-05
-1.99528e-06
5.91281e-05
-2.25184e-06
6.06112e-05
-2.56488e-06
6.22897e-05
-2.95235e-06
6.42085e-05
-3.43907e-06
6.64254e-05
-4.06861e-06
6.90278e-05
-4.89265e-06
7.20976e-05
-6.05623e-06
7.58893e-05
-7.68162e-06
-1.02011e-05
7.99164e-05
7.8521e-05
1.18771e-05
8.23747e-05
1.6749e-05
8.3166e-05
1.43582e-05
8.19383e-05
1.116e-05
7.99057e-05
7.90859e-06
7.79426e-05
5.21687e-06
7.63788e-05
3.13843e-06
7.52548e-05
1.60251e-06
7.44709e-05
5.91138e-07
7.38959e-05
4.42155e-08
7.34356e-05
-1.91041e-07
7.30507e-05
-2.87389e-07
7.27527e-05
-3.85224e-07
7.25773e-05
-5.486e-07
7.25567e-05
-7.77706e-07
7.27022e-05
-1.03889e-06
7.3002e-05
-1.29639e-06
7.34304e-05
-1.53018e-06
7.39594e-05
-1.73885e-06
7.45681e-05
-1.93394e-06
7.52452e-05
-2.13202e-06
7.59891e-05
-2.34899e-06
7.68045e-05
-2.5982e-06
7.77006e-05
-2.89137e-06
7.86894e-05
-3.24069e-06
7.97857e-05
-3.66117e-06
8.10067e-05
-4.17336e-06
8.23733e-05
-4.8056e-06
8.39059e-05
-5.60126e-06
8.56322e-05
-6.61893e-06
8.75336e-05
-7.9576e-06
8.96023e-05
-9.75036e-06
-1.20866e-05
9.14878e-05
7.81482e-05
8.25552e-06
8.19185e-05
1.29787e-05
8.45934e-05
1.16833e-05
8.61906e-05
9.56291e-06
8.68558e-05
7.2433e-06
8.69564e-05
5.1163e-06
8.67371e-05
3.35776e-06
8.63225e-05
2.01707e-06
8.576e-05
1.15366e-06
8.50571e-05
7.47148e-07
8.42212e-05
6.44814e-07
8.3302e-05
6.31868e-07
8.23922e-05
5.24587e-07
8.15974e-05
2.46178e-07
8.09991e-05
-1.79468e-07
8.06373e-05
-6.76995e-07
8.05067e-05
-1.16581e-06
8.05712e-05
-1.59469e-06
8.07852e-05
-1.95282e-06
8.11098e-05
-2.25861e-06
8.15198e-05
-2.54205e-06
8.20028e-05
-2.83198e-06
8.25558e-05
-3.15117e-06
8.31816e-05
-3.51721e-06
8.38866e-05
-3.94566e-06
8.4679e-05
-4.45354e-06
8.55681e-05
-5.06244e-06
8.65635e-05
-5.80109e-06
8.76713e-05
-6.70905e-06
8.88923e-05
-7.83994e-06
9.01951e-05
-9.26037e-06
9.15205e-05
-1.10757e-05
-1.3268e-05
9.27018e-05
7.89958e-05
5.91561e-06
8.16001e-05
1.03744e-05
8.35087e-05
9.77465e-06
8.48849e-05
8.18675e-06
8.57518e-05
6.37642e-06
8.6224e-05
4.64405e-06
8.639e-05
3.19177e-06
8.63099e-05
2.09711e-06
8.60438e-05
1.41982e-06
8.56423e-05
1.14867e-06
8.51433e-05
1.14379e-06
8.45884e-05
1.18678e-06
8.40332e-05
1.07971e-06
8.35469e-05
7.32561e-07
8.31884e-05
1.78972e-07
8.29857e-05
-4.74306e-07
8.29367e-05
-1.11681e-06
8.30229e-05
-1.68081e-06
8.32212e-05
-2.15116e-06
8.35121e-05
-2.54954e-06
8.38822e-05
-2.91214e-06
8.43242e-05
-3.27396e-06
8.48357e-05
-3.66269e-06
8.54179e-05
-4.09938e-06
8.6074e-05
-4.60182e-06
8.68087e-05
-5.18823e-06
8.76265e-05
-5.88018e-06
8.85303e-05
-6.70488e-06
8.95177e-05
-7.6965e-06
9.0577e-05
-8.89919e-06
9.16737e-05
-1.03571e-05
9.27369e-05
-1.21389e-05
-1.42054e-05
9.36744e-05
8.04662e-05
4.29534e-06
8.25159e-05
8.32467e-06
8.40022e-05
8.28833e-06
8.50379e-05
7.15108e-06
8.56882e-05
5.72605e-06
8.60511e-05
4.28118e-06
8.62063e-05
3.03661e-06
8.62012e-05
2.1022e-06
8.60803e-05
1.54065e-06
8.58894e-05
1.33961e-06
8.56678e-05
1.36541e-06
8.54478e-05
1.40676e-06
8.5255e-05
1.27251e-06
8.51102e-05
8.77386e-07
8.50295e-05
2.59687e-07
8.50231e-05
-4.67908e-07
8.50952e-05
-1.18894e-06
8.52458e-05
-1.83145e-06
8.54723e-05
-2.37764e-06
8.57707e-05
-2.84795e-06
8.61372e-05
-3.27864e-06
8.6569e-05
-3.70576e-06
8.70649e-05
-4.15854e-06
8.7625e-05
-4.6595e-06
8.82506e-05
-5.2274e-06
8.8943e-05
-5.8806e-06
8.97023e-05
-6.63953e-06
9.05259e-05
-7.52843e-06
9.14047e-05
-8.57529e-06
9.23191e-05
-9.81366e-06
9.32338e-05
-1.12718e-05
9.40844e-05
-1.29896e-05
-1.49307e-05
9.48097e-05
8.22362e-05
3.15766e-06
8.39009e-05
6.65998e-06
8.51875e-05
7.00176e-06
8.61045e-05
6.23408e-06
8.67006e-05
5.12997e-06
8.70479e-05
3.93384e-06
8.72198e-05
2.8647e-06
8.72638e-05
2.05817e-06
8.72217e-05
1.58281e-06
8.71383e-05
1.42302e-06
8.70546e-05
1.44907e-06
8.69995e-05
1.46182e-06
8.69855e-05
1.28659e-06
8.70123e-05
8.50584e-07
8.70763e-05
1.95684e-07
8.71774e-05
-5.69004e-07
8.73203e-05
-1.3319e-06
8.75119e-05
-2.02304e-06
8.77578e-05
-2.62355e-06
8.80612e-05
-3.1513e-06
8.84228e-05
-3.64026e-06
8.88423e-05
-4.12524e-06
8.93189e-05
-4.63513e-06
8.98519e-05
-5.19251e-06
9.04406e-05
-5.8161e-06
9.10835e-05
-6.52351e-06
9.17772e-05
-7.33322e-06
9.25145e-05
-8.26576e-06
9.32822e-05
-9.34297e-06
9.40571e-05
-1.05886e-05
9.48048e-05
-1.20195e-05
9.54707e-05
-1.36555e-05
-1.54658e-05
9.60058e-05
8.42179e-05
2.35526e-06
8.55539e-05
5.324e-06
8.66721e-05
5.88359e-06
8.75111e-05
5.39511e-06
8.80936e-05
4.5474e-06
8.846e-05
3.56742e-06
8.86665e-05
2.65825e-06
8.87591e-05
1.96557e-06
8.87813e-05
1.56065e-06
8.87787e-05
1.42561e-06
8.87908e-05
1.43699e-06
8.88412e-05
1.41141e-06
8.89345e-05
1.19325e-06
8.90624e-05
7.22713e-07
8.92144e-05
4.36754e-08
8.93862e-05
-7.40843e-07
8.9581e-05
-1.52672e-06
8.98064e-05
-2.2484e-06
9.00704e-05
-2.8875e-06
9.03789e-05
-3.45987e-06
9.07355e-05
-3.99678e-06
9.1141e-05
-4.53077e-06
9.15951e-05
-5.0893e-06
9.20966e-05
-5.694e-06
9.26432e-05
-6.36264e-06
9.3231e-05
-7.11138e-06
9.3854e-05
-7.95621e-06
9.4502e-05
-8.91372e-06
9.51591e-05
-1e-05
9.58012e-05
-1.12308e-05
9.63961e-05
-1.26144e-05
9.68986e-05
-1.4158e-05
-1.58352e-05
9.7268e-05
8.63728e-05
1.78123e-06
8.74424e-05
4.2544e-06
8.84083e-05
4.91765e-06
8.91669e-05
4.63648e-06
8.97228e-05
3.99158e-06
9.00968e-05
3.19342e-06
9.03303e-05
2.42471e-06
9.0465e-05
1.83086e-06
9.05426e-05
1.48308e-06
9.06067e-05
1.36149e-06
9.06942e-05
1.3495e-06
9.0825e-05
1.28057e-06
9.09995e-05
1.0188e-06
9.12046e-05
5.17569e-07
9.14256e-05
-1.77328e-07
9.16541e-05
-9.69367e-07
9.1891e-05
-1.76355e-06
9.21434e-05
-2.50083e-06
9.24208e-05
-3.16488e-06
9.27311e-05
-3.77018e-06
9.30793e-05
-4.34503e-06
9.34676e-05
-4.91905e-06
9.38957e-05
-5.51737e-06
9.43616e-05
-6.15989e-06
9.48617e-05
-6.86279e-06
9.53906e-05
-7.6403e-06
9.59401e-05
-8.50571e-06
9.64981e-05
-9.47174e-06
9.70477e-05
-1.05496e-05
9.75652e-05
-1.17483e-05
9.80214e-05
-1.30705e-05
9.83785e-05
-1.45152e-05
-1.60592e-05
9.86025e-05
8.86677e-05
1.36351e-06
8.95238e-05
3.39836e-06
9.03548e-05
4.0866e-06
9.10381e-05
3.95319e-06
9.15639e-05
3.46578e-06
9.19401e-05
2.81718e-06
9.21951e-05
2.16973e-06
9.23644e-05
1.6616e-06
9.24868e-05
1.36066e-06
9.26036e-05
1.24468e-06
9.27491e-05
1.20404e-06
9.29402e-05
1.08938e-06
9.31744e-05
7.8464e-07
9.34358e-05
2.56214e-07
9.37068e-05
-4.48391e-07
9.3977e-05
-1.23956e-06
9.42455e-05
-2.03201e-06
9.45187e-05
-2.77401e-06
9.48059e-05
-3.45213e-06
9.51157e-05
-4.07994e-06
9.54536e-05
-4.68298e-06
9.58223e-05
-5.28769e-06
9.62213e-05
-5.91645e-06
9.66484e-05
-6.58694e-06
9.70989e-05
-7.31332e-06
9.75662e-05
-8.10759e-06
9.80408e-05
-8.9803e-06
9.85097e-05
-9.94068e-06
9.89559e-05
-1.09957e-05
9.93571e-05
-1.21495e-05
9.96871e-05
-1.34005e-05
9.99148e-05
-1.47429e-05
-1.61559e-05
0.000100012
9.1081e-05
1.05381e-06
9.17678e-05
2.71158e-06
9.24815e-05
3.37287e-06
9.3096e-05
3.33869e-06
9.35902e-05
2.97165e-06
9.39628e-05
2.44454e-06
9.42322e-05
1.90037e-06
9.4428e-05
1.46573e-06
9.45861e-05
1.20263e-06
9.47444e-05
1.08632e-06
9.49344e-05
1.01405e-06
9.51706e-05
8.53164e-07
9.54485e-05
5.06722e-07
9.57511e-05
-4.63553e-08
9.60593e-05
-7.56607e-07
9.63608e-05
-1.54098e-06
9.66527e-05
-2.32399e-06
9.69405e-05
-3.06174e-06
9.72327e-05
-3.74442e-06
9.75381e-05
-4.38528e-06
9.78624e-05
-5.00725e-06
9.82082e-05
-5.63354e-06
9.85753e-05
-6.28352e-06
9.89607e-05
-6.97233e-06
9.93592e-05
-7.71186e-06
9.97634e-05
-8.51179e-06
0.000100163
-9.38006e-06
0.000100545
-1.03228e-05
0.000100893
-1.13436e-05
0.000101187
-1.24431e-05
0.000101403
-1.36166e-05
0.000101516
-1.48558e-05
-1.61418e-05
0.000101502
9.35989e-05
8.19526e-07
9.41523e-05
2.15817e-06
9.47643e-05
2.76096e-06
9.53154e-05
2.78754e-06
9.5777e-05
2.51004e-06
9.61421e-05
2.07945e-06
9.64212e-05
1.62125e-06
9.66384e-05
1.24853e-06
9.68254e-05
1.01561e-06
9.70169e-05
8.94904e-07
9.72409e-05
7.90029e-07
9.751e-05
5.84051e-07
9.78187e-05
1.98055e-07
9.81494e-05
-3.77084e-07
9.84826e-05
-1.08982e-06
9.88049e-05
-1.86324e-06
9.91122e-05
-2.6313e-06
9.94084e-05
-3.35798e-06
9.97014e-05
-4.03737e-06
9.99989e-05
-4.68284e-06
0.000100307
-5.31504e-06
0.000100627
-5.95405e-06
0.00010096
-6.61621e-06
0.000101302
-7.31399e-06
0.000101647
-8.05694e-06
0.000101987
-8.85245e-06
0.000102313
-9.70606e-06
0.000102612
-1.06213e-05
0.000102867
-1.15992e-05
0.000103062
-1.26376e-05
0.000103175
-1.37301e-05
0.000103187
-1.48672e-05
-1.60317e-05
0.000103077
9.62129e-05
6.38682e-07
9.66616e-05
1.70946e-06
9.71861e-05
2.23648e-06
9.76797e-05
2.29399e-06
9.81092e-05
2.08054e-06
9.84636e-05
1.72505e-06
9.87477e-05
1.33714e-06
9.89804e-05
1.01586e-06
9.91894e-05
8.06524e-07
9.9406e-05
6.78342e-07
9.96553e-05
5.40767e-07
9.99479e-05
2.91431e-07
0.000100278
-1.31838e-07
0.000100627
-7.2677e-07
0.000100977
-1.4395e-06
0.000101313
-2.19872e-06
0.000101629
-2.94735e-06
0.000101928
-3.65714e-06
0.000102217
-4.32634e-06
0.000102503
-4.96876e-06
0.000102791
-5.60312e-06
0.000103083
-6.24651e-06
0.000103379
-6.9123e-06
0.000103676
-7.61033e-06
0.000103967
-8.34781e-06
0.000104244
-9.12999e-06
0.000104498
-9.9603e-06
0.000104717
-1.08401e-05
0.000104886
-1.17685e-05
0.00010499
-1.27415e-05
0.000105012
-1.37519e-05
0.000104934
-1.47893e-05
-1.58388e-05
0.000104741
9.89181e-05
4.96301e-07
9.92848e-05
1.34277e-06
9.97348e-05
1.78644e-06
0.000100176
1.85252e-06
0.000100574
1.68237e-06
0.000100916
1.38371e-06
0.000101201
1.05193e-06
0.000101445
7.72306e-07
0.00010167
5.80632e-07
0.000101906
4.4263e-07
0.000102174
2.72997e-07
0.000102483
-1.73399e-08
0.000102826
-4.75093e-07
0.000103186
-1.08724e-06
0.000103545
-1.7976e-06
0.000103886
-2.53994e-06
0.000104204
-3.26559e-06
0.000104501
-3.95377e-06
0.000104781
-4.6069e-06
0.000105052
-5.2395e-06
0.000105317
-5.86861e-06
0.00010558
-6.50864e-06
0.000105837
-7.17011e-06
0.000106087
-7.86036e-06
0.000106324
-8.5844e-06
0.00010654
-9.34554e-06
0.000106725
-1.01454e-05
0.000106868
-1.09837e-05
0.000106958
-1.18579e-05
0.000106979
-1.27632e-05
0.000106919
-1.36918e-05
0.000106763
-1.46334e-05
-1.55749e-05
0.000106499
0.000101712
3.82085e-07
0.000102014
1.04037e-06
0.000102402
1.3993e-06
0.000102796
1.4577e-06
0.000103165
1.31407e-06
0.000103491
1.05689e-06
0.000103775
7.68757e-07
0.000104025
5.22059e-07
0.000104263
3.42924e-07
0.000104512
1.93389e-07
0.000104792
-7.23971e-09
0.000105111
-3.3599e-07
0.000105461
-8.25315e-07
0.000105826
-1.45211e-06
0.000106186
-2.15782e-06
0.000106527
-2.88088e-06
0.000106842
-3.58046e-06
0.000107131
-4.24293e-06
0.000107399
-4.8748e-06
0.000107651
-5.49151e-06
0.000107891
-6.10869e-06
0.000108121
-6.73829e-06
0.000108339
-7.38824e-06
0.000108542
-8.06352e-06
0.000108725
-8.76717e-06
0.00010888
-9.50076e-06
0.000108999
-1.02644e-05
0.000109072
-1.10566e-05
0.000109088
-1.18738e-05
0.000109035
-1.27106e-05
0.000108902
-1.3559e-05
0.000108678
-1.44094e-05
-1.52505e-05
0.000108354
0.000104594
2.88839e-07
0.000104846
7.8846e-07
0.00010518
1.06492e-06
0.000105533
1.10429e-06
0.000105874
9.73908e-07
0.000106185
7.45479e-07
0.000106464
4.90182e-07
0.000106717
2.68609e-07
0.000106962
9.75055e-08
0.000107221
-6.48597e-08
0.000107509
-2.95157e-07
0.000107832
-6.5947e-07
0.000108184
-1.17713e-06
0.000108547
-1.81567e-06
0.000108904
-2.51436e-06
0.000109239
-3.21586e-06
0.000109545
-3.88668e-06
0.000109822
-4.5199e-06
0.000110073
-5.12606e-06
0.000110303
-5.72154e-06
0.000110516
-6.32083e-06
0.000110711
-6.93369e-06
0.000110888
-7.5657e-06
0.000111045
-8.21973e-06
0.000111174
-8.89704e-06
0.000111271
-9.59776e-06
0.000111328
-1.03208e-05
0.000111335
-1.10637e-05
0.000111283
-1.18224e-05
0.000111164
-1.2591e-05
0.000110967
-1.3362e-05
0.000110684
-1.41264e-05
-1.48747e-05
0.000110308
0.000107563
2.11452e-07
0.000107776
5.763e-07
0.000108066
7.74566e-07
0.000108383
7.87333e-07
0.000108697
6.59846e-07
0.000108993
4.49741e-07
0.000109265
2.18092e-07
0.000109518
1.48632e-08
0.000109768
-1.52056e-07
0.000110031
-3.28129e-07
0.000110323
-5.86515e-07
0.000110647
-9.83325e-07
0.000110995
-1.52587e-06
0.000111353
-2.17309e-06
0.000111701
-2.86224e-06
0.000112025
-3.53995e-06
0.000112318
-4.17956e-06
0.000112578
-4.78045e-06
0.000112809
-5.35699e-06
0.000113014
-5.92658e-06
0.000113196
-6.50273e-06
0.000113356
-7.09331e-06
0.000113492
-7.7018e-06
0.000113601
-8.3292e-06
0.000113679
-8.97526e-06
0.000113721
-9.6389e-06
0.000113718
-1.03181e-05
0.000113664
-1.10098e-05
0.000113551
-1.17094e-05
0.000113371
-1.24113e-05
0.000113118
-1.31083e-05
0.000112783
-1.37923e-05
-1.44552e-05
0.000112364
0.000110622
1.46221e-07
0.000110803
3.95527e-07
0.000111057
5.2075e-07
0.000111342
5.02158e-07
0.000111632
3.69694e-07
0.000111912
1.69512e-07
0.000112177
-4.61631e-08
0.000112428
-2.36826e-07
0.000112679
-4.02782e-07
0.000112944
-5.9309e-07
0.000113235
-8.77758e-07
0.000113556
-1.30379e-06
0.000113897
-1.8675e-06
0.000114244
-2.52006e-06
0.000114579
-3.19698e-06
0.000114888
-3.84865e-06
0.000115163
-4.45479e-06
0.000115403
-5.02067e-06
0.00011561
-5.56421e-06
0.000115788
-6.10389e-06
0.000115937
-6.6524e-06
0.00011606
-7.21593e-06
0.000116154
-7.79615e-06
0.000116218
-8.39246e-06
0.000116246
-9.00333e-06
0.000116233
-9.62671e-06
0.000116175
-1.02599e-05
0.000116065
-1.08994e-05
0.000115896
-1.15405e-05
0.000115662
-1.21778e-05
0.000115359
-1.28048e-05
0.000114981
-1.3414e-05
-1.39989e-05
0.000114524
0.000113771
9.04017e-08
0.000113927
2.39588e-07
0.000114151
2.97093e-07
0.000114409
2.44435e-07
0.000114677
1.01148e-07
0.000114942
-9.57598e-08
0.000115198
-3.0173e-07
0.000115446
-4.84644e-07
0.000115695
-6.52252e-07
0.000115959
-8.56936e-07
0.000116247
-1.1658e-06
0.000116561
-1.61752e-06
0.000116892
-2.19844e-06
0.000117225
-2.85275e-06
0.000117542
-3.51459e-06
0.000117831
-4.13796e-06
0.000118085
-4.70853e-06
0.000118302
-5.23702e-06
0.000118482
-5.74471e-06
0.000118629
-6.25105e-06
0.000118745
-6.76809e-06
0.00011883
-7.30057e-06
0.000118882
-7.84861e-06
0.0001189
-8.41025e-06
0.000118879
-8.98292e-06
0.000118816
-9.5638e-06
0.000118706
-1.01497e-05
0.000118544
-1.07369e-05
0.000118324
-1.13208e-05
0.000118043
-1.18963e-05
0.000117695
-1.24573e-05
0.000117279
-1.29975e-05
-1.35114e-05
0.000116791
0.000117013
4.1917e-08
0.000117149
1.0329e-07
0.000117348
9.81587e-08
0.000117582
1.01507e-08
0.000117832
-1.48161e-07
0.000118083
-3.46936e-07
0.000118329
-5.48218e-07
0.000118572
-7.27282e-07
0.000118818
-8.98549e-07
0.000119079
-1.11735e-06
0.000119361
-1.44805e-06
0.000119665
-1.92165e-06
0.000119982
-2.51552e-06
0.000120297
-3.16777e-06
0.000120594
-3.8115e-06
0.00012086
-4.40428e-06
0.000121089
-4.9373e-06
0.000121278
-5.42635e-06
0.00012143
-5.89575e-06
0.000121544
-6.36591e-06
0.000121625
-6.84831e-06
0.000121671
-7.34649e-06
0.000121681
-7.85923e-06
0.000121654
-8.38345e-06
0.000121587
-8.91575e-06
0.000121476
-9.45276e-06
0.000121317
-9.99097e-06
0.000121107
-1.05265e-05
0.000120841
-1.10551e-05
0.000120517
-1.15717e-05
0.000120131
-1.20712e-05
0.000119681
-1.25479e-05
-1.29975e-05
0.000119167
0.000120349
-8.4527e-10
0.00012047
-1.75415e-08
0.000120649
-8.07247e-08
0.000120863
-2.04425e-07
0.000121096
-3.80663e-07
0.000121334
-5.85169e-07
0.000121571
-7.85654e-07
0.000121808
-9.63904e-07
0.00012205
-1.14024e-06
0.000122305
-1.37248e-06
0.000122579
-1.7223e-06
0.000122871
-2.21368e-06
0.000123171
-2.816e-06
0.000123466
-3.46209e-06
0.000123739
-4.08454e-06
0.000123979
-4.64437e-06
0.00012418
-5.138e-06
0.000124339
-5.5858e-06
0.000124458
-6.01491e-06
0.000124539
-6.44656e-06
0.000124582
-6.89181e-06
0.000124589
-7.35312e-06
0.000124558
-7.82818e-06
0.000124488
-8.31302e-06
0.000124375
-8.80356e-06
0.000124219
-9.29605e-06
0.000124014
-9.7868e-06
0.00012376
-1.0272e-05
0.000123452
-1.07474e-05
0.000123089
-1.12086e-05
0.000122669
-1.1651e-05
0.000122191
-1.20697e-05
-1.24611e-05
0.000121654
0.000123782
-3.9303e-08
0.00012389
-1.26315e-07
0.000124053
-2.43619e-07
0.000124252
-4.02785e-07
0.00012447
-5.98853e-07
0.000124697
-8.11877e-07
0.000124925
-1.01445e-06
0.000125156
-1.19411e-06
0.000125392
-1.37632e-06
0.00012564
-1.62089e-06
0.000125905
-1.98677e-06
0.000126182
-2.49153e-06
0.000126464
-3.09745e-06
0.000126735
-3.73305e-06
0.000126981
-4.33086e-06
0.000127192
-4.85535e-06
0.000127362
-5.30781e-06
0.000127489
-5.71283e-06
0.000127574
-6.1e-06
0.000127619
-6.49134e-06
0.000127624
-6.89749e-06
0.000127591
-7.32003e-06
0.000127519
-7.75573e-06
0.000127406
-8.19991e-06
0.00012725
-8.64801e-06
0.00012705
-9.09599e-06
0.000126804
-9.54009e-06
0.000126508
-9.97656e-06
0.000126162
-1.04015e-05
0.000125764
-1.08108e-05
0.000125314
-1.12005e-05
0.000124811
-1.15663e-05
-1.19054e-05
0.000124255
0.000127314
-7.444e-08
0.000127413
-2.26003e-07
0.000127564
-3.94201e-07
0.000127749
-5.88312e-07
0.000127956
-8.05344e-07
0.000128173
-1.02877e-06
0.000128394
-1.23543e-06
0.000128618
-1.41797e-06
0.000128848
-1.60626e-06
0.000129088
-1.86156e-06
0.000129342
-2.24006e-06
0.000129603
-2.75342e-06
0.000129864
-3.35782e-06
0.000130109
-3.97832e-06
0.000130326
-4.54793e-06
0.000130505
-5.03462e-06
0.000130642
-5.44422e-06
0.000130734
-5.80512e-06
0.000130783
-6.14909e-06
0.000130791
-6.49876e-06
0.000130758
-6.86441e-06
0.000130684
-7.24687e-06
0.000130571
-7.64217e-06
0.000130416
-8.04505e-06
0.000130219
-8.45062e-06
0.000129977
-8.85466e-06
0.000129691
-9.25342e-06
0.000129357
-9.64326e-06
0.000128976
-1.00206e-05
0.000128547
-1.03816e-05
0.00012807
-1.0723e-05
0.000127544
-1.10408e-05
-1.13331e-05
0.000126972
0.000130948
-1.07241e-07
0.000131041
-3.1924e-07
0.000131183
-5.35885e-07
0.000131359
-7.6434e-07
0.000131556
-1.00291e-06
0.000131765
-1.23783e-06
0.00013198
-1.44979e-06
0.000132198
-1.63595e-06
0.000132421
-1.82994e-06
0.000132654
-2.0939e-06
0.000132895
-2.48116e-06
0.000133139
-2.99797e-06
0.000133377
-3.59534e-06
0.000133594
-4.19584e-06
0.00013378
-4.73349e-06
0.000133925
-5.17984e-06
0.000134026
-5.54494e-06
0.000134081
-5.86058e-06
0.000134093
-6.16038e-06
0.000134061
-6.46744e-06
0.000133988
-6.79169e-06
0.000133875
-7.1333e-06
0.00013372
-7.48772e-06
0.000133525
-7.84924e-06
0.000133287
-8.21273e-06
0.000133006
-8.57389e-06
0.000132682
-8.929e-06
0.000132313
-9.27458e-06
0.0001319
-9.60726e-06
0.000131442
-9.92373e-06
0.00013094
-1.02209e-05
0.000130394
-1.04955e-05
-1.0746e-05
0.000129807
0.000134687
-1.38623e-07
0.000134776
-4.08516e-07
0.000134912
-6.72039e-07
0.000135082
-9.34342e-07
0.000135274
-1.19462e-06
0.000135477
-1.4415e-06
0.000135687
-1.65919e-06
0.0001359
-1.84897e-06
0.000136117
-2.04763e-06
0.000136341
-2.31765e-06
0.000136569
-2.70934e-06
0.000136795
-3.22405e-06
0.000137009
-3.80852e-06
0.000137197
-4.38378e-06
0.000137349
-4.8855e-06
0.000137458
-5.28884e-06
0.00013752
-5.60784e-06
0.000137537
-5.87724e-06
0.000137509
-6.13218e-06
0.000137438
-6.39607e-06
0.000137324
-6.67845e-06
0.00013717
-6.97896e-06
0.000136975
-7.29252e-06
0.000136739
-7.61312e-06
0.000136461
-7.93546e-06
0.000136143
-8.25519e-06
0.000135782
-8.56867e-06
0.00013538
-8.87258e-06
0.000134937
-9.16379e-06
0.000134452
-9.4393e-06
0.000133928
-9.69635e-06
0.000133365
-9.93218e-06
-1.01456e-05
0.000132764
0.000138533
-1.69503e-07
0.000138621
-4.96356e-07
0.000138755
-8.06144e-07
0.000138923
-1.10203e-06
0.000139112
-1.38388e-06
0.000139313
-1.64257e-06
0.00013952
-1.8657e-06
0.000139729
-2.0584e-06
0.000139941
-2.2601e-06
0.000140157
-2.53305e-06
0.000140372
-2.92437e-06
0.000140579
-3.43093e-06
0.000140766
-3.99617e-06
0.000140923
-4.54058e-06
0.00014104
-5.00207e-06
0.000141111
-5.35959e-06
0.000141134
-5.63086e-06
0.000141109
-5.85315e-06
0.00014104
-6.06278e-06
0.000140927
-6.28326e-06
0.000140773
-6.52374e-06
0.000140577
-6.78332e-06
0.000140341
-7.05653e-06
0.000140065
-7.33709e-06
0.000139749
-7.6196e-06
0.000139394
-7.89972e-06
0.000138999
-8.17386e-06
0.000138565
-8.43887e-06
0.000138093
-8.69182e-06
0.000137584
-8.92998e-06
0.000137038
-9.15091e-06
0.000136458
-9.35217e-06
-9.53282e-06
0.000135846
0.000142491
-2.00894e-07
0.00014258
-5.85574e-07
0.000142716
-9.42186e-07
0.000142886
-1.27181e-06
0.000143077
-1.57493e-06
0.000143279
-1.84468e-06
0.000143485
-2.0721e-06
0.000143693
-2.2661e-06
0.000143901
-2.46833e-06
0.000144108
-2.74033e-06
0.00014431
-3.12588e-06
0.000144497
-3.61779e-06
0.000144658
-4.15707e-06
0.000144782
-4.66467e-06
0.000144861
-5.08139e-06
0.000144892
-5.39011e-06
0.000144873
-5.61197e-06
0.000144806
-5.78639e-06
0.000144694
-5.95046e-06
0.000144538
-6.12761e-06
0.000144341
-6.3265e-06
0.000144103
-6.54573e-06
0.000143826
-6.77949e-06
0.00014351
-7.02129e-06
0.000143156
-7.26566e-06
0.000142765
-7.50826e-06
0.000142337
-7.74559e-06
0.000141872
-7.97461e-06
0.000141373
-8.19256e-06
0.00014084
-8.39695e-06
0.000140275
-8.58557e-06
0.000139679
-8.75626e-06
-8.90826e-06
0.000139054
0.000146562
-2.33926e-07
0.000146656
-6.79316e-07
0.000146798
-1.08455e-06
0.000146975
-1.44845e-06
0.000147172
-1.77232e-06
0.00014738
-2.0518e-06
0.000147589
-2.28167e-06
0.000147798
-2.47465e-06
0.000148004
-2.67426e-06
0.000148204
-2.94083e-06
0.000148393
-3.31454e-06
0.00014856
-3.78457e-06
0.000148693
-4.29045e-06
0.000148783
-4.75463e-06
0.000148823
-5.12155e-06
0.000148811
-5.37817e-06
0.000148748
-5.54881e-06
0.000148636
-5.67461e-06
0.000148479
-5.79306e-06
0.000148278
-5.92725e-06
0.000148037
-6.08523e-06
0.000147757
-6.26512e-06
0.000147438
-6.46074e-06
0.000147082
-6.66546e-06
0.00014669
-6.87371e-06
0.000146263
-7.08118e-06
0.000145802
-7.28441e-06
0.000145308
-7.48047e-06
0.000144782
-7.66675e-06
0.000144226
-7.8409e-06
0.000143641
-8.00091e-06
0.00014303
-8.14485e-06
-8.27205e-06
0.000142394
0.000150752
-2.70213e-07
0.000150855
-7.82042e-07
0.00015101
-1.23965e-06
0.000151201
-1.63924e-06
0.000151411
-1.98311e-06
0.000151629
-2.26991e-06
0.000151847
-2.49871e-06
0.000152058
-2.68646e-06
0.000152263
-2.87864e-06
0.000152456
-3.13407e-06
0.000152631
-3.48918e-06
0.000152776
-3.92975e-06
0.00015288
-4.39461e-06
0.000152934
-4.80863e-06
0.000152933
-5.12053e-06
0.000152876
-5.32159e-06
0.000152767
-5.43914e-06
0.000152608
-5.51562e-06
0.000152403
-5.58854e-06
0.000152156
-5.68036e-06
0.000151869
-5.79843e-06
0.000151545
-5.94029e-06
0.000151183
-6.09943e-06
0.000150787
-6.26904e-06
0.000150357
-6.44348e-06
0.000149894
-6.61843e-06
0.0001494
-6.79046e-06
0.000148876
-6.9567e-06
0.000148324
-7.11464e-06
0.000147745
-7.26207e-06
0.000147141
-7.39709e-06
0.000146514
-7.51793e-06
-7.62398e-06
0.000145866
0.000155063
-3.11268e-07
0.000155179
-8.9813e-07
0.000155352
-1.41333e-06
0.000155564
-1.85034e-06
0.000155794
-2.21341e-06
0.000156029
-2.50497e-06
0.000156259
-2.72899e-06
0.00015648
-2.90702e-06
0.000156687
-3.08637e-06
0.000156877
-3.32397e-06
0.000157041
-3.65231e-06
0.000157165
-4.05425e-06
0.000157239
-4.46888e-06
0.000157255
-4.8246e-06
0.00015721
-5.07524e-06
0.000157105
-5.21665e-06
0.000156945
-5.27894e-06
0.000156735
-5.30542e-06
0.000156479
-5.33316e-06
0.000156183
-5.38366e-06
0.000155847
-5.46331e-06
0.000155476
-5.569e-06
0.000155071
-5.69382e-06
0.000154632
-5.83075e-06
0.000154163
-5.97407e-06
0.000153664
-6.1194e-06
0.000153137
-6.26333e-06
0.000152583
-6.40302e-06
0.000152004
-6.53604e-06
0.000151403
-6.66025e-06
0.000150779
-6.77384e-06
0.000150137
-6.87516e-06
-6.9636e-06
0.000149476
0.000159501
-3.61177e-07
0.00015964
-1.03802e-06
0.000159847
-1.62009e-06
0.000160094
-2.0973e-06
0.000160358
-2.47692e-06
0.000160619
-2.7666e-06
0.000160867
-2.97699e-06
0.000161096
-3.13593e-06
0.000161303
-3.29348e-06
0.000161484
-3.5048e-06
0.00016163
-3.79809e-06
0.000161729
-4.15309e-06
0.000161769
-4.50941e-06
0.000161744
-4.79959e-06
0.000161652
-4.9832e-06
0.000161497
-5.06101e-06
0.000161284
-5.06589e-06
0.00016102
-5.04169e-06
0.000160711
-5.02464e-06
0.000160363
-5.03496e-06
0.000159977
-5.07789e-06
0.000159558
-5.14949e-06
0.000159106
-5.24239e-06
0.000158625
-5.34931e-06
0.000158115
-5.46438e-06
0.000157579
-5.58317e-06
0.000157018
-5.70223e-06
0.000156433
-5.81874e-06
0.000155828
-5.93028e-06
0.000155202
-6.03477e-06
0.000154559
-6.13046e-06
0.000153899
-6.21574e-06
-6.28995e-06
0.000153226
0.000164065
-4.20187e-07
0.000164232
-1.20512e-06
0.000164477
-1.86439e-06
0.000164765
-2.38613e-06
0.000165071
-2.7827e-06
0.000165372
-3.06739e-06
0.000165653
-3.258e-06
0.000165906
-3.38942e-06
0.000166128
-3.515e-06
0.000166311
-3.68835e-06
0.000166447
-3.93376e-06
0.000166523
-4.22857e-06
0.000166527
-4.51397e-06
0.000166455
-4.72782e-06
0.000166308
-4.83626e-06
0.000166093
-4.8453e-06
0.000165817
-4.79035e-06
0.000165491
-4.71526e-06
0.000165121
-4.6548e-06
0.000164713
-4.6273e-06
0.000164272
-4.63644e-06
0.0001638
-4.67719e-06
0.000163299
-4.74155e-06
0.000162771
-4.82191e-06
0.000162219
-4.91223e-06
0.000161644
-5.00798e-06
0.000161047
-5.10571e-06
0.000160431
-5.20259e-06
0.000159797
-5.29624e-06
0.000159147
-5.38461e-06
0.000158483
-5.46597e-06
0.000157806
-5.53876e-06
-5.60223e-06
0.000157118
0.000168777
-5.05489e-07
0.000169007
-1.43464e-06
0.00016933
-2.18792e-06
0.000169697
-2.7532e-06
0.000170069
-3.15439e-06
0.000170417
-3.41521e-06
0.000170724
-3.56497e-06
0.000170984
-3.64926e-06
0.000171195
-3.72678e-06
0.000171357
-3.85006e-06
0.000171462
-4.03867e-06
0.000171499
-4.2661e-06
0.00017146
-4.47404e-06
0.000171337
-4.60541e-06
0.000171134
-4.63334e-06
0.000170859
-4.56964e-06
0.000170521
-4.45258e-06
0.000170132
-4.32602e-06
0.0001697
-4.22298e-06
0.000169232
-4.15956e-06
0.000168733
-4.1375e-06
0.000168206
-4.15044e-06
0.000167654
-4.18957e-06
0.000167079
-4.2468e-06
0.000166483
-4.31587e-06
0.000165867
-4.39213e-06
0.000165233
-4.47208e-06
0.000164584
-4.5529e-06
0.00016392
-4.63223e-06
0.000163243
-4.70806e-06
0.000162556
-4.77866e-06
0.00016186
-4.84246e-06
-4.89857e-06
0.000161156
0.000173605
-5.9932e-07
0.000173881
-1.71007e-06
0.000174274
-2.58103e-06
0.000174727
-3.20685e-06
0.000175194
-3.62124e-06
0.000175634
-3.85515e-06
0.00017602
-3.95097e-06
0.000176339
-3.96831e-06
0.000176586
-3.97405e-06
0.000176758
-4.02205e-06
0.000176849
-4.12911e-06
0.000176849
-4.26632e-06
0.000176752
-4.37713e-06
0.000176557
-4.41055e-06
0.000176271
-4.34738e-06
0.000175907
-4.20538e-06
0.00017548
-4.02522e-06
0.000175004
-3.8498e-06
0.00017449
-3.70915e-06
0.000173946
-3.61595e-06
0.000173378
-3.56911e-06
0.000172788
-3.5604e-06
0.000172178
-3.57993e-06
0.00017155
-3.61915e-06
0.000170906
-3.67161e-06
0.000170247
-3.73264e-06
0.000169573
-3.7988e-06
0.000168888
-3.8674e-06
0.000168192
-3.93618e-06
0.000167487
-4.00325e-06
0.000166775
-4.06692e-06
0.000166058
-4.12564e-06
-4.17833e-06
0.000165338
0.000178665
-7.95808e-07
0.000179118
-2.16287e-06
0.000179689
-3.15217e-06
0.000180287
-3.80487e-06
0.000180857
-4.19131e-06
0.000181357
-4.35492e-06
0.00018176
-4.35459e-06
0.00018206
-4.2675e-06
0.000182258
-4.17238e-06
0.000182363
-4.12729e-06
0.00018238
-4.14615e-06
0.000182308
-4.19393e-06
0.000182141
-4.21073e-06
0.000181879
-4.14795e-06
0.000181524
-3.99289e-06
0.000181089
-3.77019e-06
0.000180589
-3.52461e-06
0.000180038
-3.29936e-06
0.000179451
-3.12199e-06
0.000178837
-3.00158e-06
0.000178201
-2.9337e-06
0.000177548
-2.90765e-06
0.000176881
-2.91208e-06
0.000176199
-2.93767e-06
0.000175505
-2.97764e-06
0.0001748
-3.02731e-06
0.000174084
-3.08332e-06
0.00017336
-3.14314e-06
0.000172629
-3.20477e-06
0.000171892
-3.26653e-06
0.000171152
-3.32686e-06
0.00017041
-3.38423e-06
-3.43729e-06
0.000169669
0.000183733
-9.61335e-07
0.000184278
-2.70823e-06
0.000185021
-3.89443e-06
0.000185841
-4.62571e-06
0.000186643
-4.99244e-06
0.000187346
-5.05796e-06
0.000187907
-4.91613e-06
0.000188312
-4.67213e-06
0.000188562
-4.42216e-06
0.000188667
-4.23326e-06
0.000188641
-4.11921e-06
0.000188486
-4.03934e-06
0.000188206
-3.93066e-06
0.000187806
-3.74786e-06
0.000187299
-3.48619e-06
0.000186707
-3.17831e-06
0.000186055
-2.87265e-06
0.000185366
-2.61034e-06
0.000184657
-2.41284e-06
0.000183938
-2.28227e-06
0.000183213
-2.20859e-06
0.000182483
-2.17772e-06
0.000181747
-2.17679e-06
0.000181006
-2.19617e-06
0.000180258
-2.22939e-06
0.000179503
-2.27226e-06
0.000178741
-2.32195e-06
0.000177975
-2.37645e-06
0.000177204
-2.43434e-06
0.000176432