/*--------------------------------*- C++ -*----------------------------------*\
| =========                 |                                                 |
| \\      /  F ield         | OpenFOAM: The Open Source CFD Toolbox           |
|  \\    /   O peration     | Version:  2.1.1                                 |
|   \\  /    A nd           | Web:      www.OpenFOAM.org                      |
|    \\/     M anipulation  |                                                 |
\*---------------------------------------------------------------------------*/
FoamFile
{
    version     2.0;
    format      ascii;
    class       volVectorField;
    location    "0.005";
    object      U;
}
// * * * * * * * * * * * * * * * * * * * * * * * * * * * * * * * * * * * * * //

dimensions      [0 1 -1 0 0 0 0];

internalField   nonuniform List<vector> 
6820
(
(6.37787 0.502942 0)
(4.43413 0.285657 0)
(2.99931 0.0186394 0)
(2.28212 -0.0639114 0)
(2.04479 -0.0622192 0)
(1.95737 -0.0364155 0)
(1.93648 -0.0155865 0)
(1.95132 -0.00571254 0)
(1.98227 -0.000622938 0)
(2.01977 0.00107429 0)
(2.05743 0.00079411 0)
(2.09229 -0.000275601 0)
(2.12474 -0.00154397 0)
(2.15702 -0.00269983 0)
(2.19142 -0.00364482 0)
(2.22944 -0.00441796 0)
(2.27185 -0.00511193 0)
(2.31901 -0.00581937 0)
(2.37127 -0.00661716 0)
(2.42914 -0.0075745 0)
(2.4934 -0.0087624 0)
(2.56517 -0.0102611 0)
(2.64594 -0.0121699 0)
(2.7376 -0.0146208 0)
(2.84254 -0.0178025 0)
(2.96391 -0.021987 0)
(3.1058 -0.0276161 0)
(3.27401 -0.0352903 0)
(3.47573 -0.0464733 0)
(3.72612 -0.0619724 0)
(4.03043 -0.0908395 0)
(4.46942 -0.124796 0)
(4.91609 -0.275212 0)
(8.72015 0.956896 0)
(8.77261 1.00485 0)
(7.99981 0.667507 0)
(7.12641 0.377536 0)
(6.48447 0.179314 0)
(6.06251 0.0705173 0)
(5.81358 0.0145963 0)
(5.69149 -0.0159237 0)
(5.65569 -0.0305377 0)
(5.66993 -0.0347137 0)
(5.70728 -0.0330955 0)
(5.75268 -0.0296717 0)
(5.80068 -0.02741 0)
(5.8515 -0.0275022 0)
(5.90734 -0.0297504 0)
(5.97008 -0.0334336 0)
(6.04053 -0.037945 0)
(6.11872 -0.042998 0)
(6.20444 -0.0485905 0)
(6.29775 -0.0549119 0)
(6.39914 -0.0622573 0)
(6.50958 -0.0709792 0)
(6.63047 -0.0814879 0)
(6.76362 -0.0942881 0)
(6.91129 -0.110044 0)
(7.07626 -0.12966 0)
(7.26209 -0.154471 0)
(7.47332 -0.186289 0)
(7.71598 -0.228592 0)
(7.99808 -0.284838 0)
(8.3308 -0.36847 0)
(8.72642 -0.48566 0)
(9.20615 -0.68724 0)
(8.58589 0.5801 0)
(9.33165 0.750593 0)
(9.62309 0.637121 0)
(9.53588 0.489641 0)
(9.31322 0.342702 0)
(9.0701 0.223225 0)
(8.86193 0.130868 0)
(8.70858 0.0614513 0)
(8.60276 0.0131932 0)
(8.5279 -0.0161186 0)
(8.47003 -0.0311797 0)
(8.42154 -0.0387613 0)
(8.38133 -0.0441247 0)
(8.35292 -0.0501264 0)
(8.34091 -0.057573 0)
(8.34808 -0.066077 0)
(8.37424 -0.0750506 0)
(8.41689 -0.0842586 0)
(8.47263 -0.093873 0)
(8.53847 -0.10434 0)
(8.61255 -0.116229 0)
(8.69417 -0.130138 0)
(8.7836 -0.146689 0)
(8.88168 -0.166588 0)
(8.98966 -0.190726 0)
(9.10908 -0.220297 0)
(9.24177 -0.256997 0)
(9.38988 -0.303221 0)
(9.55598 -0.362747 0)
(9.74227 -0.440849 0)
(9.95231 -0.547689 0)
(10.1775 -0.696858 0)
(10.4259 -0.911368 0)
(8.44116 0.376544 0)
(8.94611 0.573006 0)
(9.35702 0.531498 0)
(9.58199 0.446847 0)
(9.69343 0.343471 0)
(9.72957 0.244382 0)
(9.71781 0.159393 0)
(9.67987 0.0920564 0)
(9.62495 0.0463529 0)
(9.55431 0.0223686 0)
(9.46766 0.0141292 0)
(9.36742 0.0116884 0)
(9.262 0.00655077 0)
(9.16388 -0.00539033 0)
(9.08414 -0.0238815 0)
(9.02988 -0.0461809 0)
(9.00296 -0.0690547 0)
(9.00045 -0.0902941 0)
(9.01719 -0.109328 0)
(9.04815 -0.126922 0)
(9.08969 -0.144487 0)
(9.13977 -0.163506 0)
(9.19764 -0.185283 0)
(9.26338 -0.210969 0)
(9.33754 -0.241736 0)
(9.42097 -0.278982 0)
(9.51467 -0.324579 0)
(9.61969 -0.381089 0)
(9.73716 -0.452233 0)
(9.86707 -0.5432 0)
(10.0098 -0.661351 0)
(10.1563 -0.818105 0)
(10.3075 -1.01584 0)
(8.40225 0.2767 0)
(8.71991 0.46953 0)
(8.99985 0.440199 0)
(9.17163 0.36824 0)
(9.28542 0.286762 0)
(9.35702 0.209677 0)
(9.39023 0.14441 0)
(9.39292 0.0941035 0)
(9.37258 0.0623149 0)
(9.33521 0.0494816 0)
(9.28529 0.0494899 0)
(9.22671 0.0521608 0)
(9.16458 0.0477616 0)
(9.10593 0.0315203 0)
(9.05871 0.00451927 0)
(9.02789 -0.028534 0)
(9.01451 -0.0623148 0)
(9.01709 -0.0932301 0)
(9.0331 -0.120258 0)
(9.0601 -0.144388 0)
(9.09626 -0.167539 0)
(9.14049 -0.191714 0)
(9.19229 -0.218629 0)
(9.25164 -0.24973 0)
(9.3188 -0.286391 0)
(9.39423 -0.330155 0)
(9.47845 -0.382962 0)
(9.57189 -0.447368 0)
(9.6748 -0.52677 0)
(9.78618 -0.625748 0)
(9.90489 -0.749611 0)
(10.0229 -0.906465 0)
(10.1378 -1.09574 0)
(8.37754 0.198645 0)
(8.60206 0.371992 0)
(8.81739 0.368965 0)
(8.94793 0.321725 0)
(9.02969 0.261235 0)
(9.08173 0.198382 0)
(9.10807 0.142583 0)
(9.11453 0.0990885 0)
(9.10662 0.0719467 0)
(9.08902 0.0620474 0)
(9.06624 0.0641151 0)
(9.0421 0.0681303 0)
(9.01963 0.0639049 0)
(9.00126 0.0459079 0)
(8.98895 0.0150309 0)
(8.98415 -0.0233432 0)
(8.98755 -0.062983 0)
(8.99933 -0.0996921 0)
(9.01932 -0.132194 0)
(9.04713 -0.161455 0)
(9.08232 -0.189504 0)
(9.12453 -0.218506 0)
(9.17353 -0.250354 0)
(9.22928 -0.28665 0)
(9.29186 -0.328886 0)
(9.36143 -0.378669 0)
(9.43812 -0.437917 0)
(9.5218 -0.50904 0)
(9.61205 -0.59501 0)
(9.70722 -0.699603 0)
(9.80523 -0.826614 0)
(9.89946 -0.98142 0)
(9.98654 -1.16256 0)
(8.36133 0.145163 0)
(8.52319 0.29953 0)
(8.69842 0.315208 0)
(8.8128 0.283343 0)
(8.88486 0.235103 0)
(8.93164 0.181588 0)
(8.95741 0.13301 0)
(8.96722 0.0957864 0)
(8.96611 0.073814 0)
(8.95852 0.0672655 0)
(8.94895 0.0704691 0)
(8.94124 0.0735798 0)
(8.93753 0.0671391 0)
(8.93825 0.0464486 0)
(8.94298 0.0128863 0)
(8.95138 -0.0281489 0)
(8.96374 -0.0706777 0)
(8.98073 -0.110694 0)
(9.00306 -0.146918 0)
(9.03121 -0.180198 0)
(9.06534 -0.212444 0)
(9.10546 -0.245768 0)
(9.15149 -0.282066 0)
(9.20334 -0.322973 0)
(9.26096 -0.370008 0)
(9.32425 -0.424756 0)
(9.39299 -0.489029 0)
(9.46668 -0.564981 0)
(9.54439 -0.655105 0)
(9.62418 -0.762339 0)
(9.70359 -0.889341 0)
(9.77717 -1.03943 0)
(9.84152 -1.21125 0)
(8.3512 0.107641 0)
(8.46772 0.239521 0)
(8.60868 0.264613 0)
(8.70973 0.244719 0)
(8.77699 0.208579 0)
(8.82304 0.165793 0)
(8.85096 0.125346 0)
(8.86471 0.0939105 0)
(8.8692 0.0754511 0)
(8.86906 0.0701091 0)
(8.86866 0.0726169 0)
(8.87138 0.0739208 0)
(8.87862 0.0654465 0)
(8.88994 0.0430334 0)
(8.90412 0.00802447 0)
(8.9203 -0.0345911 0)
(8.93845 -0.0791669 0)
(8.95921 -0.121802 0)
(8.98345 -0.16115 0)
(9.01191 -0.197921 0)
(9.04505 -0.233896 0)
(9.08308 -0.271099 0)
(9.12602 -0.311386 0)
(9.17377 -0.356376 0)
(9.22615 -0.407554 0)
(9.28289 -0.466432 0)
(9.34353 -0.534654 0)
(9.40726 -0.614078 0)
(9.47289 -0.706722 0)
(9.53836 -0.81478 0)
(9.60118 -0.940056 0)
(9.65685 -1.08447 0)
(9.70237 -1.24683 0)
(8.3449 0.0809019 0)
(8.42957 0.191529 0)
(8.54237 0.221936 0)
(8.6303 0.211524 0)
(8.69184 0.184559 0)
(8.73593 0.149694 0)
(8.76489 0.115193 0)
(8.78174 0.0880245 0)
(8.79088 0.072224 0)
(8.79671 0.0676883 0)
(8.80331 0.0692251 0)
(8.81362 0.068379 0)
(8.82862 0.0574631 0)
(8.84743 0.0330271 0)
(8.86843 -0.00334963 0)
(8.89034 -0.0468853 0)
(8.91282 -0.0924044 0)
(8.93635 -0.136412 0)
(8.96184 -0.177736 0)
(8.9902 -0.217049 0)
(9.02208 -0.255984 0)
(9.0578 -0.296405 0)
(9.09745 -0.340042 0)
(9.1409 -0.388413 0)
(9.18789 -0.442909 0)
(9.23799 -0.504908 0)
(9.29057 -0.575853 0)
(9.34465 -0.657288 0)
(9.39889 -0.750786 0)
(9.45128 -0.857919 0)
(9.49945 -0.979835 0)
(9.53967 -1.11753 0)
(9.56946 -1.26988 0)
(8.34096 0.0616154 0)
(8.40316 0.153144 0)
(8.49319 0.184976 0)
(8.56899 0.18092 0)
(8.62484 0.160824 0)
(8.66663 0.132703 0)
(8.69605 0.103896 0)
(8.71522 0.0809768 0)
(8.72793 0.0676619 0)
(8.73825 0.0635754 0)
(8.74995 0.0637612 0)
(8.76564 0.0605655 0)
(8.78596 0.0473039 0)
(8.80979 0.0212239 0)
(8.83529 -0.0160043 0)
(8.86097 -0.0599801 0)
(8.88632 -0.106023 0)
(8.91168 -0.151 0)
(8.9379 -0.193877 0)
(8.96591 -0.235279 0)
(8.99638 -0.276693 0)
(9.02969 -0.31982 0)
(9.06595 -0.366245 0)
(9.10502 -0.417362 0)
(9.14656 -0.474437 0)
(9.19005 -0.538689 0)
(9.23475 -0.611344 0)
(9.27962 -0.693642 0)
(9.32327 -0.786767 0)
(9.3638 -0.891782 0)
(9.39909 -1.00934 0)
(9.42602 -1.13983 0)
(9.44261 -1.28217 0)
(8.33847 0.0474364 0)
(8.38472 0.122334 0)
(8.4566 0.153201 0)
(8.52159 0.153548 0)
(8.57201 0.138865 0)
(8.61125 0.116269 0)
(8.64045 0.0921399 0)
(8.66109 0.0725277 0)
(8.67638 0.0608685 0)
(8.69002 0.0566068 0)
(8.70542 0.0550273 0)
(8.72484 0.0492247 0)
(8.74871 0.033456 0)
(8.7758 0.00564876 0)
(8.80423 -0.0323458 0)
(8.83239 -0.0764125 0)
(8.85958 -0.122393 0)
(8.88601 -0.167617 0)
(8.91241 -0.211292 0)
(8.93966 -0.254055 0)
(8.96845 -0.297265 0)
(8.99917 -0.34244 0)
(9.03192 -0.390985 0)
(9.06653 -0.444133 0)
(9.10264 -0.502989 0)
(9.13967 -0.568596 0)
(9.17682 -0.64196 0)
(9.21303 -0.724039 0)
(9.24696 -0.815678 0)
(9.27688 -0.917546 0)
(9.30093 -1.02993 0)
(9.31651 -1.1528 0)
(9.32209 -1.28512 0)
(8.33687 0.036809 0)
(8.37173 0.0975552 0)
(8.42924 0.125956 0)
(8.48468 0.128945 0)
(8.52989 0.118157 0)
(8.56646 0.0998343 0)
(8.59502 0.0795728 0)
(8.6166 0.0628208 0)
(8.63381 0.0526035 0)
(8.64991 0.0481144 0)
(8.66794 0.0448332 0)
(8.68985 0.0365692 0)
(8.71591 0.0184924 0)
(8.74489 -0.0108142 0)
(8.77491 -0.0493542 0)
(8.80436 -0.0933054 0)
(8.83245 -0.138996 0)
(8.85923 -0.184182 0)
(8.88533 -0.228294 0)
(8.91152 -0.271987 0)
(8.93844 -0.316502 0)
(8.96645 -0.363185 0)
(8.99563 -0.413259 0)
(9.02581 -0.467787 0)
(9.05659 -0.527709 0)
(9.08738 -0.593889 0)
(9.11738 -0.66712 0)
(9.14556 -0.748113 0)
(9.17067 -0.837432 0)
(9.19117 -0.935439 0)
(9.20546 -1.04215 0)
(9.21142 -1.15728 0)
(9.20788 -1.27981 0)
(8.33583 0.0286818 0)
(8.36247 0.0775113 0)
(8.40865 0.102594 0)
(8.45581 0.106896 0)
(8.49618 0.0988911 0)
(8.53003 0.0839181 0)
(8.55762 0.0668369 0)
(8.57959 0.0524157 0)
(8.59804 0.0432063 0)
(8.61582 0.0381687 0)
(8.63559 0.0329933 0)
(8.65903 0.0221766 0)
(8.68631 0.00174927 0)
(8.71623 -0.0290669 0)
(8.74697 -0.0680848 0)
(8.77692 -0.111734 0)
(8.8052 -0.156817 0)
(8.83178 -0.201535 0)
(8.85713 -0.245577 0)
(8.88193 -0.289652 0)
(8.90675 -0.334899 0)
(8.93191 -0.382494 0)
(8.95749 -0.433475 0)
(8.98328 -0.488725 0)
(9.0089 -0.549014 0)
(9.03375 -0.615024 0)
(9.05706 -0.687358 0)
(9.07787 -0.76651 0)
(9.09505 -0.852814 0)
(9.10727 -0.946401 0)
(9.11318 -1.0471 0)
(9.11105 -1.15446 0)
(9.10002 -1.2675 0)
(8.33513 0.0223409 0)
(8.35579 0.0611855 0)
(8.39307 0.0825609 0)
(8.43314 0.0871729 0)
(8.46903 0.0809984 0)
(8.50019 0.0685025 0)
(8.52656 0.0539023 0)
(8.54851 0.0413237 0)
(8.56772 0.0328366 0)
(8.58659 0.0271631 0)
(8.60745 0.0201731 0)
(8.63173 0.00698258 0)
(8.6595 -0.0155898 0)
(8.6896 -0.0477304 0)
(8.72029 -0.0870762 0)
(8.75002 -0.130283 0)
(8.77788 -0.174588 0)
(8.80373 -0.218599 0)
(8.82794 -0.262252 0)
(8.85108 -0.30631 0)
(8.87362 -0.351827 0)
(8.89587 -0.39982 0)
(8.91784 -0.451152 0)
(8.93936 -0.506532 0)
(8.96002 -0.566564 0)
(8.97927 -0.631766 0)
(8.99639 -0.702566 0)
(9.01051 -0.779279 0)
(9.02064 -0.862058 0)
(9.02563 -0.950862 0)
(9.02439 -1.04539 0)
(9.01551 -1.1451 0)
(8.99839 -1.24908 0)
(8.33464 0.0172982 0)
(8.35091 0.0477753 0)
(8.3812 0.0653479 0)
(8.41526 0.0695332 0)
(8.44709 0.0644329 0)
(8.47566 0.0537144 0)
(8.50066 0.0410255 0)
(8.52226 0.0298784 0)
(8.54177 0.0218453 0)
(8.56123 0.0154029 0)
(8.58262 0.00658218 0)
(8.60716 -0.00892981 0)
(8.63485 -0.0335772 0)
(8.66457 -0.0669709 0)
(8.69468 -0.10656 0)
(8.72366 -0.149196 0)
(8.75062 -0.192522 0)
(8.77534 -0.235545 0)
(8.79807 -0.278451 0)
(8.81929 -0.322069 0)
(8.83942 -0.367383 0)
(8.85868 -0.415266 0)
(8.87709 -0.466411 0)
(8.89446 -0.521362 0)
(8.91042 -0.580567 0)
(8.92444 -0.644392 0)
(8.93589 -0.713116 0)
(8.94399 -0.786904 0)
(8.94789 -0.86577 0)
(8.94664 -0.949552 0)
(8.93934 -1.03787 0)
(8.92488 -1.13012 0)
(8.90287 -1.22549 0)
(8.3343 0.0132148 0)
(8.34728 0.0366538 0)
(8.37211 0.0505092 0)
(8.40112 0.0537541 0)
(8.4293 0.0491267 0)
(8.4554 0.0395935 0)
(8.47894 0.0282982 0)
(8.49994 0.0181944 0)
(8.51942 0.0103784 0)
(8.53907 0.00309133 0)
(8.56058 -0.00749227 0)
(8.58495 -0.025169 0)
(8.61213 -0.0517044 0)
(8.64103 -0.0861799 0)
(8.67009 -0.125869 0)
(8.69789 -0.167802 0)
(8.72353 -0.209993 0)
(8.74675 -0.251818 0)
(8.76773 -0.293699 0)
(8.78684 -0.336532 0)
(8.80442 -0.381241 0)
(8.82068 -0.428566 0)
(8.83559 -0.479045 0)
(8.84898 -0.533074 0)
(8.86051 -0.590957 0)
(8.86971 -0.652926 0)
(8.876 -0.719136 0)
(8.87873 -0.789631 0)
(8.87717 -0.864322 0)
(8.87056 -0.942963 0)
(8.85818 -1.02513 0)
(8.83917 -1.11021 0)
(8.81328 -1.19747 0)
(8.33405 0.00985206 0)
(8.34457 0.0273332 0)
(8.36509 0.0376566 0)
(8.38989 0.0396176 0)
(8.41484 0.0349947 0)
(8.43863 0.026165 0)
(8.46068 0.0158309 0)
(8.4809 0.00644418 0)
(8.50008 -0.00134888 0)
(8.51959 -0.00953811 0)
(8.54088 -0.0218274 0)
(8.56474 -0.0415396 0)
(8.59106 -0.0698123 0)
(8.61879 -0.105231 0)
(8.64646 -0.144896 0)
(8.67273 -0.186001 0)
(8.69673 -0.226901 0)
(8.71817 -0.26732 0)
(8.73715 -0.307903 0)
(8.75399 -0.349621 0)
(8.76896 -0.393345 0)
(8.78221 -0.439697 0)
(8.79372 -0.489078 0)
(8.80332 -0.541743 0)
(8.81071 -0.597873 0)
(8.81547 -0.657585 0)
(8.81711 -0.720929 0)
(8.81508 -0.787858 0)
(8.80879 -0.858206 0)
(8.79761 -0.931676 0)
(8.78101 -1.00782 0)
(8.75831 -1.08605 0)
(8.7294 -1.16571 0)
(8.33386 0.00703844 0)
(8.3425 0.0194339 0)
(8.35963 0.0264571 0)
(8.38094 0.0269204 0)
(8.40306 0.0219461 0)
(8.42473 0.0134311 0)
(8.4453 0.00369391 0)
(8.46463 -0.00525989 0)
(8.48329 -0.0131979 0)
(8.50242 -0.022327 0)
(8.52321 -0.03624 0)
(8.5463 -0.0578237 0)
(8.57149 -0.0876384 0)
(8.59778 -0.123815 0)
(8.62379 -0.1633 0)
(8.64825 -0.203436 0)
(8.67034 -0.242899 0)
(8.68976 -0.28173 0)
(8.70658 -0.320785 0)
(8.72102 -0.361103 0)
(8.73332 -0.403511 0)
(8.7436 -0.44853 0)
(8.75182 -0.496433 0)
(8.75784 -0.547357 0)
(8.76138 -0.601373 0)
(8.7621 -0.658504 0)
(8.75957 -0.718714 0)
(8.75336 -0.78189 0)
(8.74298 -0.847813 0)
(8.72795 -0.916155 0)
(8.70786 -0.986475 0)
(8.68222 -1.0582 0)
(8.651 -1.13077 0)
(8.33371 0.0046481 0)
(8.34092 0.0126582 0)
(8.35538 0.0166255 0)
(8.37381 0.0154714 0)
(8.39347 0.00988199 0)
(8.4132 0.00137392 0)
(8.43235 -0.00806471 0)
(8.4507 -0.01682 0)
(8.4687 -0.0250364 0)
(8.48727 -0.0351203 0)
(8.50736 -0.0505616 0)
(8.52946 -0.0738455 0)
(8.55332 -0.105003 0)
(8.57795 -0.141749 0)
(8.60207 -0.180896 0)
(8.62451 -0.219924 0)
(8.64449 -0.257806 0)
(8.66172 -0.294879 0)
(8.67623 -0.332195 0)
(8.6882 -0.370856 0)
(8.69782 -0.411655 0)
(8.70517 -0.45502 0)
(8.71024 -0.501116 0)
(8.71288 -0.549978 0)
(8.71287 -0.601583 0)
(8.70992 -0.655877 0)
(8.70369 -0.712761 0)
(8.69381 -0.772067 0)
(8.67992 -0.833548 0)
(8.66166 -0.896862 0)
(8.63873 -0.961582 0)
(8.61077 -1.02718 0)
(8.57783 -1.09315 0)
(8.3336 0.00258784 0)
(8.33969 0.00677451 0)
(8.35205 0.00792115 0)
(8.36811 0.00509557 0)
(8.38567 -0.0012981 0)
(8.40366 -0.0100374 0)
(8.42145 -0.0194165 0)
(8.43882 -0.0281646 0)
(8.45606 -0.0367633 0)
(8.47391 -0.0477974 0)
(8.49315 -0.0646554 0)
(8.51411 -0.0894493 0)
(8.53647 -0.121727 0)
(8.55928 -0.158833 0)
(8.58136 -0.197461 0)
(8.6016 -0.235233 0)
(8.61933 -0.271393 0)
(8.63423 -0.306555 0)
(8.64633 -0.341945 0)
(8.65578 -0.378726 0)
(8.66272 -0.417662 0)
(8.66723 -0.459101 0)
(8.66928 -0.503115 0)
(8.66876 -0.549649 0)
(8.66549 -0.598608 0)
(8.65922 -0.649875 0)
(8.6497 -0.7033 0)
(8.63664 -0.758685 0)
(8.61977 -0.81576 0)
(8.59882 -0.874189 0)
(8.57358 -0.933564 0)
(8.54384 -0.993399 0)
(8.50965 -1.05327 0)
(8.33352 0.000777768 0)
(8.33875 0.00159076 0)
(8.34944 0.000134696 0)
(8.36357 -0.00437153 0)
(8.37934 -0.0116989 0)
(8.39579 -0.0208486 0)
(8.41234 -0.0303541 0)
(8.42872 -0.0392455 0)
(8.44514 -0.0483015 0)
(8.4622 -0.0602591 0)
(8.48048 -0.0784037 0)
(8.50018 -0.104501 0)
(8.52092 -0.137662 0)
(8.5418 -0.174902 0)
(8.5617 -0.212825 0)
(8.57964 -0.249186 0)
(8.59498 -0.283489 0)
(8.60747 -0.316595 0)
(8.6171 -0.349893 0)
(8.624 -0.384601 0)
(8.6283 -0.421456 0)
(8.63005 -0.460739 0)
(8.62924 -0.502442 0)
(8.62578 -0.546438 0)
(8.61951 -0.59257 0)
(8.61026 -0.640675 0)
(8.59784 -0.690568 0)
(8.58202 -0.742027 0)
(8.56261 -0.794779 0)
(8.53944 -0.848495 0)
(8.51237 -0.902795 0)
(8.48126 -0.957236 0)
(8.44621 -1.01146 0)
(8.33346 -0.000828262 0)
(8.33802 -0.00303844 0)
(8.34741 -0.00691049 0)
(8.35999 -0.013081 0)
(8.37426 -0.0214261 0)
(8.38938 -0.0311157 0)
(8.40479 -0.0408868 0)
(8.42022 -0.0500326 0)
(8.43581 -0.0595907 0)
(8.45202 -0.0724225 0)
(8.46927 -0.0917052 0)
(8.48763 -0.118882 0)
(8.50668 -0.152671 0)
(8.52554 -0.189804 0)
(8.54318 -0.226819 0)
(8.55873 -0.26161 0)
(8.57162 -0.293921 0)
(8.58163 -0.32484 0)
(8.58876 -0.3559 0)
(8.59312 -0.38837 0)
(8.59482 -0.422963 0)
(8.59391 -0.4599 0)
(8.59038 -0.49911 0)
(8.58418 -0.540405 0)
(8.57518 -0.583581 0)
(8.56326 -0.628439 0)
(8.54827 -0.674772 0)
(8.53007 -0.722346 0)
(8.50852 -0.770889 0)
(8.48352 -0.820086 0)
(8.455 -0.86959 0)
(8.42288 -0.918998 0)
(8.38729 -0.968005 0)
(8.33341 -0.00227787 0)
(8.33746 -0.00724104 0)
(8.34585 -0.0133732 0)
(8.35721 -0.0211775 0)
(8.37025 -0.0305903 0)
(8.38424 -0.0409092 0)
(8.39864 -0.0510456 0)
(8.41319 -0.0605233 0)
(8.42797 -0.0706021 0)
(8.44331 -0.0842381 0)
(8.45948 -0.104492 0)
(8.47647 -0.132506 0)
(8.49377 -0.166649 0)
(8.51056 -0.203416 0)
(8.5259 -0.239308 0)
(8.53901 -0.272362 0)
(8.5494 -0.302546 0)
(8.5569 -0.331155 0)
(8.56152 -0.359851 0)
(8.56335 -0.389943 0)
(8.56251 -0.422123 0)
(8.55905 -0.456564 0)
(8.55296 -0.493139 0)
(8.54421 -0.531614 0)
(8.53271 -0.57175 0)
(8.51839 -0.613321 0)
(8.50114 -0.656106 0)
(8.48089 -0.699869 0)
(8.45754 -0.744342 0)
(8.43104 -0.78923 0)
(8.40138 -0.834215 0)
(8.36854 -0.878938 0)
(8.33264 -0.92314 0)
(8.33337 -0.00362288 0)
(8.33705 -0.0111346 0)
(8.34469 -0.0194 0)
(8.35511 -0.0288018 0)
(8.36719 -0.0393055 0)
(8.38025 -0.0503064 0)
(8.3938 -0.0608677 0)
(8.40755 -0.0707167 0)
(8.42156 -0.0813015 0)
(8.43603 -0.0956434 0)
(8.45114 -0.116677 0)
(8.46672 -0.145266 0)
(8.48227 -0.179472 0)
(8.49697 -0.215601 0)
(8.50998 -0.250147 0)
(8.52062 -0.281292 0)
(8.52849 -0.309218 0)
(8.53347 -0.335407 0)
(8.53558 -0.36163 0)
(8.53493 -0.389229 0)
(8.53162 -0.418878 0)
(8.5257 -0.450707 0)
(8.51719 -0.484545 0)
(8.50607 -0.520122 0)
(8.49229 -0.557171 0)
(8.47581 -0.595452 0)
(8.45658 -0.634736 0)
(8.43455 -0.674787 0)
(8.40968 -0.715349 0)
(8.38197 -0.756146 0)
(8.35142 -0.79689 0)
(8.31808 -0.837259 0)
(8.28206 -0.877037 0)
(8.33334 -0.00489266 0)
(8.33677 -0.0148161 0)
(8.34389 -0.0251279 0)
(8.35364 -0.0360979 0)
(8.365 -0.0477027 0)
(8.37735 -0.0594173 0)
(8.3902 -0.0704411 0)
(8.40328 -0.080682 0)
(8.41658 -0.0917435 0)
(8.43023 -0.10668 0)
(8.44428 -0.128286 0)
(8.45848 -0.157166 0)
(8.47227 -0.191119 0)
(8.48487 -0.22631 0)
(8.49555 -0.25926 0)
(8.50371 -0.28831 0)
(8.50907 -0.313841 0)
(8.51153 -0.337499 0)
(8.51116 -0.36115 0)
(8.50807 -0.386159 0)
(8.50235 -0.413183 0)
(8.49408 -0.442313 0)
(8.48328 -0.473344 0)
(8.46995 -0.505978 0)
(8.45408 -0.53993 0)
(8.43566 -0.57495 0)
(8.41466 -0.610806 0)
(8.39109 -0.647266 0)
(8.36494 -0.684089 0)
(8.33623 -0.721018 0)
(8.30501 -0.757792 0)
(8.27134 -0.794124 0)
(8.23534 -0.829832 0)
(8.33333 -0.00612439 0)
(8.33661 -0.0183879 0)
(8.34342 -0.0306961 0)
(8.35276 -0.0432088 0)
(8.36366 -0.0559018 0)
(8.37552 -0.0683172 0)
(8.38785 -0.0797826 0)
(8.40038 -0.0903732 0)
(8.41306 -0.101824 0)
(8.42595 -0.117197 0)
(8.43899 -0.139139 0)
(8.45184 -0.168007 0)
(8.46389 -0.201384 0)
(8.47443 -0.235339 0)
(8.48278 -0.266453 0)
(8.48849 -0.293231 0)
(8.49133 -0.316243 0)
(8.49129 -0.337279 0)
(8.48846 -0.358283 0)
(8.48297 -0.380634 0)
(8.47491 -0.404967 0)
(8.46438 -0.431345 0)
(8.4514 -0.459533 0)
(8.43601 -0.489212 0)
(8.41821 -0.520087 0)
(8.39803 -0.551901 0)
(8.37546 -0.584425 0)
(8.35055 -0.617434 0)
(8.3233 -0.650699 0)
(8.29378 -0.683984 0)
(8.26204 -0.717052 0)
(8.22817 -0.749647 0)
(8.19228 -0.781614 0)
(8.33333 -0.00735581 0)
(8.33657 -0.0219573 0)
(8.34329 -0.0362638 0)
(8.3525 -0.0503279 0)
(8.36322 -0.0641228 0)
(8.37483 -0.0772557 0)
(8.38685 -0.0891774 0)
(8.39899 -0.100113 0)
(8.41116 -0.111895 0)
(8.42336 -0.127555 0)
(8.43542 -0.149575 0)
(8.44695 -0.178086 0)
(8.4573 -0.210499 0)
(8.46579 -0.242849 0)
(8.47184 -0.271819 0)
(8.4751 -0.296093 0)
(8.47544 -0.316421 0)
(8.47292 -0.334719 0)
(8.46766 -0.352987 0)
(8.45981 -0.37261 0)
(8.44948 -0.3942 0)
(8.43676 -0.417789 0)
(8.42171 -0.443118 0)
(8.40437 -0.469855 0)
(8.38479 -0.497696 0)
(8.36299 -0.526382 0)
(8.33902 -0.555688 0)
(8.31291 -0.585397 0)
(8.28473 -0.615293 0)
(8.25453 -0.645157 0)
(8.2224 -0.674776 0)
(8.18842 -0.703918 0)
(8.1527 -0.732453 0)
(8.33333 -0.00862898 0)
(8.33665 -0.0256376 0)
(8.34351 -0.0419764 0)
(8.35286 -0.0575739 0)
(8.36367 -0.0723932 0)
(8.37529 -0.0861118 0)
(8.38722 -0.0983201 0)
(8.39914 -0.109409 0)
(8.41095 -0.121312 0)
(8.42258 -0.13702 0)
(8.43377 -0.158837 0)
(8.44405 -0.186677 0)
(8.45276 -0.217811 0)
(8.45925 -0.248272 0)
(8.46302 -0.274875 0)
(8.46385 -0.296492 0)
(8.4617 -0.31404 0)
(8.45669 -0.329545 0)
(8.44901 -0.345044 0)
(8.43882 -0.361917 0)
(8.42625 -0.380751 0)
(8.4114 -0.401551 0)
(8.39436 -0.424042 0)
(8.37517 -0.447879 0)
(8.35391 -0.472754 0)
(8.33062 -0.498412 0)
(8.30536 -0.524629 0)
(8.27819 -0.5512 0)
(8.24918 -0.577919 0)
(8.2184 -0.604585 0)
(8.18595 -0.631001 0)
(8.15193 -0.656962 0)
(8.11642 -0.682351 0)
(8.33336 -0.00999779 0)
(8.33689 -0.0295973 0)
(8.34419 -0.0481283 0)
(8.35406 -0.0654017 0)
(8.36536 -0.0813838 0)
(8.37736 -0.0958225 0)
(8.38948 -0.10843 0)
(8.40138 -0.119729 0)
(8.41292 -0.131703 0)
(8.42399 -0.147255 0)
(8.43431 -0.1685 0)
(8.44333 -0.195167 0)
(8.45039 -0.224455 0)
(8.45488 -0.252484 0)
(8.45639 -0.276256 0)
(8.4548 -0.294857 0)
(8.45017 -0.309371 0)
(8.4427 -0.321909 0)
(8.43261 -0.334527 0)
(8.42011 -0.348581 0)
(8.40534 -0.364625 0)
(8.38842 -0.382635 0)
(8.36944 -0.402313 0)
(8.34849 -0.423306 0)
(8.32563 -0.445302 0)
(8.30093 -0.468046 0)
(8.27448 -0.491319 0)
(8.24633 -0.514922 0)
(8.21658 -0.538662 0)
(8.1853 -0.56235 0)
(8.15259 -0.585807 0)
(8.11855 -0.608845 0)
(8.08326 -0.63136 0)
(8.33339 -0.0115223 0)
(8.33728 -0.0339572 0)
(8.34528 -0.0547501 0)
(8.35598 -0.0735365 0)
(8.36807 -0.0902989 0)
(8.38073 -0.104923 0)
(8.39334 -0.117344 0)
(8.40551 -0.128315 0)
(8.41708 -0.13993 0)
(8.42786 -0.155015 0)
(8.43751 -0.175467 0)
(8.44543 -0.200795 0)
(8.45093 -0.228108 0)
(8.45345 -0.253604 0)
(8.45268 -0.274484 0)
(8.44862 -0.29005 0)
(8.44144 -0.301545 0)
(8.43142 -0.311153 0)
(8.41886 -0.320937 0)
(8.40399 -0.332224 0)
(8.38699 -0.345532 0)
(8.36799 -0.36081 0)
(8.34709 -0.377748 0)
(8.3244 -0.395986 0)
(8.3 -0.415211 0)
(8.27396 -0.43517 0)
(8.24636 -0.455651 0)
(8.2173 -0.476462 0)
(8.18685 -0.497418 0)
(8.15511 -0.518344 0)
(8.12217 -0.539073 0)
(8.08813 -0.559433 0)
(8.05306 -0.579331 0)
(8.33346 -0.0133153 0)
(8.33805 -0.0391684 0)
(8.34738 -0.062854 0)
(8.35969 -0.083861 0)
(8.37332 -0.102167 0)
(8.38723 -0.117691 0)
(8.40067 -0.130469 0)
(8.41319 -0.14138 0)
(8.42464 -0.152556 0)
(8.43487 -0.166718 0)
(8.44356 -0.185579 0)
(8.45014 -0.208538 0)
(8.45393 -0.232758 0)
(8.45441 -0.254662 0)
(8.45136 -0.271746 0)
(8.44483 -0.283574 0)
(8.43512 -0.291544 0)
(8.42259 -0.297886 0)
(8.40758 -0.30463 0)
(8.39037 -0.313044 0)
(8.37116 -0.323584 0)
(8.3501 -0.336155 0)
(8.32733 -0.350418 0)
(8.30294 -0.366001 0)
(8.27703 -0.382585 0)
(8.24968 -0.399914 0)
(8.22099 -0.417779 0)
(8.19105 -0.435992 0)
(8.15994 -0.454378 0)
(8.12775 -0.472768 0)
(8.09457 -0.491008 0)
(8.06052 -0.508938 0)
(8.02563 -0.526469 0)
(8.33352 -0.0154445 0)
(8.33883 -0.0450357 0)
(8.34964 -0.0712 0)
(8.36373 -0.0932488 0)
(8.37916 -0.11142 0)
(8.39478 -0.126031 0)
(8.40972 -0.137555 0)
(8.42339 -0.147244 0)
(8.43553 -0.157385 0)
(8.44594 -0.170573 0)
(8.45422 -0.188212 0)
(8.45977 -0.209404 0)
(8.46194 -0.231197 0)
(8.46028 -0.250125 0)
(8.45468 -0.263938 0)
(8.44538 -0.272457 0)
(8.4328 -0.277249 0)
(8.41741 -0.280604 0)
(8.39965 -0.284533 0)
(8.37985 -0.290252 0)
(8.35825 -0.298171 0)
(8.33501 -0.308164 0)
(8.31027 -0.319875 0)
(8.28413 -0.332927 0)
(8.25669 -0.347 0)
(8.22803 -0.361842 0)
(8.19825 -0.377246 0)
(8.16743 -0.393032 0)
(8.13565 -0.409032 0)
(8.10301 -0.425086 0)
(8.06959 -0.441049 0)
(8.0355 -0.456772 0)
(8.00078 -0.472167 0)
(8.33377 -0.0183033 0)
(8.34106 -0.0536417 0)
(8.35531 -0.0849348 0)
(8.37316 -0.1111 0)
(8.39184 -0.132115 0)
(8.40988 -0.148141 0)
(8.42622 -0.159766 0)
(8.44029 -0.16851 0)
(8.45196 -0.176842 0)
(8.46126 -0.187363 0)
(8.46798 -0.201414 0)
(8.47167 -0.218121 0)
(8.47174 -0.234758 0)
(8.46777 -0.248248 0)
(8.45968 -0.25676 0)
(8.44776 -0.260432 0)
(8.43248 -0.260975 0)
(8.41441 -0.260666 0)
(8.39405 -0.261408 0)
(8.37177 -0.264282 0)
(8.34785 -0.269578 0)
(8.32249 -0.277085 0)
(8.29583 -0.286397 0)
(8.26797 -0.297107 0)
(8.23902 -0.308882 0)
(8.20907 -0.321464 0)
(8.17819 -0.334647 0)
(8.14648 -0.348254 0)
(8.11401 -0.362124 0)
(8.08089 -0.376106 0)
(8.04718 -0.39006 0)
(8.013 -0.403845 0)
(7.97836 -0.417369 0)
(8.33373 -0.0216351 0)
(8.3419 -0.0615605 0)
(8.35864 -0.09403 0)
(8.3799 -0.118847 0)
(8.40252 -0.137286 0)
(8.42468 -0.150303 0)
(8.44481 -0.159055 0)
(8.46188 -0.165509 0)
(8.47555 -0.172302 0)
(8.4857 -0.181833 0)
(8.49213 -0.194966 0)
(8.49445 -0.210315 0)
(8.49221 -0.224864 0)
(8.48519 -0.235575 0)
(8.47354 -0.24089 0)
(8.45776 -0.241273 0)
(8.43858 -0.238669 0)
(8.41673 -0.235452 0)
(8.39285 -0.233518 0)
(8.3674 -0.233891 0)
(8.34065 -0.236801 0)
(8.31281 -0.241993 0)
(8.28399 -0.249037 0)
(8.25427 -0.257514 0)
(8.22371 -0.26709 0)
(8.1924 -0.27751 0)
(8.16038 -0.288574 0)
(8.12774 -0.300113 0)
(8.09454 -0.311979 0)
(8.06089 -0.324031 0)
(8.02684 -0.336138 0)
(7.99254 -0.348168 0)
(7.95796 -0.360024 0)
(8.33485 -0.0278302 0)
(8.34972 -0.0815359 0)
(8.37522 -0.12637 0)
(8.40386 -0.160187 0)
(8.43163 -0.183517 0)
(8.45696 -0.19749 0)
(8.47833 -0.204121 0)
(8.49482 -0.206303 0)
(8.50638 -0.207315 0)
(8.51342 -0.209907 0)
(8.51629 -0.215146 0)
(8.51508 -0.221902 0)
(8.50958 -0.227599 0)
(8.49957 -0.229774 0)
(8.48509 -0.227417 0)
(8.4665 -0.221347 0)
(8.44447 -0.213604 0)
(8.41977 -0.206423 0)
(8.39309 -0.201423 0)
(8.36495 -0.19933 0)
(8.33573 -0.200124 0)
(8.30563 -0.203382 0)
(8.27478 -0.208575 0)
(8.24327 -0.21524 0)
(8.21115 -0.223025 0)
(8.17848 -0.231676 0)
(8.14529 -0.241004 0)
(8.11167 -0.250853 0)
(8.07766 -0.26109 0)
(8.04337 -0.271586 0)
(8.00886 -0.282221 0)
(7.97428 -0.292866 0)
(7.93959 -0.303413 0)
(8.33395 -0.0321603 0)
(8.34866 -0.0856336 0)
(8.37962 -0.123883 0)
(8.41706 -0.151205 0)
(8.4548 -0.169625 0)
(8.48963 -0.179453 0)
(8.5188 -0.182495 0)
(8.54088 -0.181974 0)
(8.55569 -0.181557 0)
(8.56368 -0.184113 0)
(8.56543 -0.190298 0)
(8.56131 -0.198099 0)
(8.55144 -0.204067 0)
(8.53592 -0.205316 0)
(8.51515 -0.200935 0)
(8.48995 -0.192169 0)
(8.46144 -0.181534 0)
(8.43077 -0.171595 0)
(8.39889 -0.164109 0)
(8.36639 -0.159792 0)
(8.33359 -0.15855 0)
(8.30056 -0.159881 0)
(8.26732 -0.163197 0)
(8.23381 -0.167998 0)
(8.20001 -0.17392 0)
(8.16589 -0.180711 0)
(8.13146 -0.188193 0)
(8.09677 -0.196234 0)
(8.06186 -0.204737 0)
(8.02683 -0.213615 0)
(7.99175 -0.22278 0)
(7.95681 -0.232128 0)
(7.92199 -0.241541 0)
(8.33948 -0.0556672 0)
(8.37602 -0.154062 0)
(8.42311 -0.219973 0)
(8.46844 -0.258654 0)
(8.51208 -0.277023 0)
(8.55316 -0.279597 0)
(8.58783 -0.271387 0)
(8.61326 -0.257497 0)
(8.62825 -0.242517 0)
(8.63292 -0.229766 0)
(8.62854 -0.220184 0)
(8.61664 -0.212162 0)
(8.59841 -0.202936 0)
(8.57472 -0.190486 0)
(8.5465 -0.174733 0)
(8.51476 -0.157441 0)
(8.48061 -0.141128 0)
(8.44506 -0.127864 0)
(8.40894 -0.118652 0)
(8.37279 -0.113461 0)
(8.33686 -0.111636 0)
(8.30122 -0.112347 0)
(8.26579 -0.114873 0)
(8.23047 -0.118703 0)
(8.19515 -0.123516 0)
(8.15977 -0.129121 0)
(8.12426 -0.135398 0)
(8.08859 -0.142264 0)
(8.05278 -0.149661 0)
(8.0169 -0.15753 0)
(7.98107 -0.165822 0)
(7.94552 -0.174449 0)
(7.91026 -0.183299 0)
(8.33782 -0.0422949 0)
(8.39343 -0.10639 0)
(8.49011 -0.155981 0)
(8.59546 -0.19752 0)
(8.69936 -0.223723 0)
(8.79394 -0.231747 0)
(8.87038 -0.224555 0)
(8.92326 -0.207608 0)
(8.95003 -0.187974 0)
(8.95018 -0.172069 0)
(8.92527 -0.162319 0)
(8.8789 -0.156343 0)
(8.81646 -0.149908 0)
(8.74472 -0.139871 0)
(8.67061 -0.125502 0)
(8.59975 -0.108469 0)
(8.53554 -0.0916025 0)
(8.47903 -0.0774148 0)
(8.42952 -0.067239 0)
(8.38539 -0.0611797 0)
(8.34494 -0.0585589 0)
(8.30676 -0.0584492 0)
(8.26987 -0.0600341 0)
(8.23366 -0.0627416 0)
(8.1978 -0.066229 0)
(8.16211 -0.0702984 0)
(8.12648 -0.0748073 0)
(8.0909 -0.0797263 0)
(8.05539 -0.0852048 0)
(8.02004 -0.0913707 0)
(7.98498 -0.0984292 0)
(7.95053 -0.106304 0)
(7.91685 -0.115399 0)
(8.40792 -0.213873 0)
(8.62886 -0.405101 0)
(8.82224 -0.478986 0)
(8.96319 -0.512599 0)
(9.0578 -0.511016 0)
(9.10633 -0.479726 0)
(9.11286 -0.427443 0)
(9.08459 -0.36103 0)
(9.02676 -0.287474 0)
(8.94385 -0.214006 0)
(8.8418 -0.146826 0)
(8.73094 -0.0898435 0)
(8.62128 -0.0449753 0)
(8.51992 -0.0130429 0)
(8.43153 0.00634096 0)
(8.35771 0.0151125 0)
(8.29744 0.0163313 0)
(8.24813 0.0132683 0)
(8.2067 0.00857805 0)
(8.17035 0.00388674 0)
(8.13699 -0.000156799 0)
(8.10524 -0.00355441 0)
(8.07428 -0.00659522 0)
(8.0437 -0.00960471 0)
(8.01327 -0.0128338 0)
(7.98295 -0.016458 0)
(7.95269 -0.0206417 0)
(7.92267 -0.0254441 0)
(7.893 -0.0308774 0)
(7.86334 -0.0369811 0)
(7.83399 -0.0441442 0)
(7.80407 -0.0523192 0)
(7.77514 -0.0630112 0)
(8.13919 -0.201424 0)
(7.86325 -0.371038 0)
(7.43027 -0.409703 0)
(6.95207 -0.395247 0)
(6.52072 -0.34555 0)
(6.1441 -0.273337 0)
(5.82972 -0.189806 0)
(5.58858 -0.102776 0)
(5.42233 -0.020592 0)
(5.32448 0.0470764 0)
(5.28269 0.0918208 0)
(5.2794 0.110742 0)
(5.29921 0.109685 0)
(5.33048 0.0976689 0)
(5.36475 0.0818919 0)
(5.39713 0.0670258 0)
(5.42528 0.0553667 0)
(5.44865 0.0473509 0)
(5.46775 0.0423402 0)
(5.48344 0.0393381 0)
(5.49657 0.0374404 0)
(5.50771 0.036011 0)
(5.51719 0.0346707 0)
(5.5251 0.0332078 0)
(5.53141 0.0314902 0)
(5.53595 0.0293945 0)
(5.53861 0.0267649 0)
(5.53892 0.0236414 0)
(5.53681 0.0201533 0)
(5.5319 0.0164388 0)
(5.52472 0.0115688 0)
(5.51266 0.00838965 0)
(5.50296 -0.0098912 0)
(6.06378 -0.893877 0)
(7.15124 -0.979208 0)
(8.86688 -1.39824 0)
(10.6381 -2.52906 0)
(11.4485 -4.05818 0)
(10.9072 -5.29257 0)
(9.60467 -5.84414 0)
(8.3075 -5.81304 0)