/*--------------------------------*- C++ -*----------------------------------*\
| =========                 |                                                 |
| \\      /  F ield         | OpenFOAM: The Open Source CFD Toolbox           |
|  \\    /   O peration     | Version:  2.1.1                                 |
|   \\  /    A nd           | Web:      www.OpenFOAM.org                      |
|    \\/     M anipulation  |                                                 |
\*---------------------------------------------------------------------------*/
FoamFile
{
    version     2.0;
    format      ascii;
    class       volScalarField;
    location    "0.105";
    object      epsilon;
}
// * * * * * * * * * * * * * * * * * * * * * * * * * * * * * * * * * * * * * //

dimensions      [0 2 -3 0 0 0 0];

internalField   nonuniform List<scalar> 
6820
(
151.448
203.151
260.735
321.761
383.63
443.729
499.775
550.058
593.523
629.73
658.747
681.012
697.202
708.114
714.572
717.375
717.249
714.838
710.69
705.264
698.938
692.014
684.733
677.282
669.805
662.412
655.178
648.174
641.356
635.129
627.644
627.745
593.094
11.7448
21.417
29.9428
38.6222
47.5761
56.5505
65.3085
73.6489
81.4095
88.482
94.8115
100.391
105.251
109.447
113.052
116.142
118.795
121.083
123.072
124.82
126.374
127.777
129.061
130.256
131.385
132.467
133.522
134.57
135.637
136.786
138.045
139.826
142.013
5.8378
7.51683
9.20671
10.8094
12.32
13.7476
15.0887
16.3396
17.4985
18.5654
19.5419
20.4318
21.2402
21.9736
22.6393
23.2448
23.7978
24.3056
24.7751
25.2127
25.624
26.0141
26.3872
26.7472
27.0973
27.4402
27.7781
28.1131
28.4467
28.7816
29.1191
29.457
29.8386
5.24229
5.56004
6.00444
6.49349
6.98576
7.46202
7.91318
8.33495
8.72564
9.08511
9.4141
9.71396
9.98638
10.2333
10.4566
10.6585
10.8409
11.0057
11.1548
11.29
11.4129
11.5249
11.6275
11.7219
11.8093
11.8906
11.9667
12.0383
12.1058
12.1697
12.2295
12.2863
12.3363
5.17349
5.18677
5.26821
5.39776
5.55639
5.7297
5.90782
6.08432
6.25517
6.41794
6.57124
6.71438
6.8471
6.96948
7.08179
7.18444
7.27792
7.36279
7.43963
7.50902
7.57155
7.6278
7.67831
7.72361
7.7642
7.80055
7.83309
7.86221
7.88826
7.91158
7.93238
7.95097
7.96738
5.16878
5.12131
5.09602
5.09481
5.11536
5.15307
5.20299
5.26075
5.32291
5.38691
5.45086
5.51345
5.57376
5.63116
5.68528
5.73588
5.78287
5.82625
5.86606
5.90241
5.93544
5.96531
5.9922
6.01629
6.03777
6.05682
6.07365
6.08842
6.10131
6.11249
6.12213
6.13033
6.13729
5.16887
5.11169
5.06116
5.01963
4.9884
4.96755
4.95615
4.95279
4.95586
4.96385
4.97541
4.98942
5.00498
5.02136
5.038
5.05447
5.07046
5.08571
5.10006
5.1134
5.12566
5.13679
5.14679
5.15567
5.16344
5.17016
5.17587
5.18061
5.18445
5.18745
5.18968
5.19116
5.192
5.16902
5.11062
5.05514
5.00339
4.95619
4.91414
4.87747
4.84611
4.81972
4.79781
4.77979
4.76509
4.75314
4.74345
4.73556
4.72908
4.7237
4.71913
4.71516
4.7116
4.7083
4.70513
4.70202
4.69887
4.69564
4.69229
4.68879
4.68513
4.68128
4.67726
4.67306
4.66868
4.66413
5.16904
5.11054
5.05431
5.00049
4.94927
4.9009
4.85559
4.81346
4.77456
4.73882
4.70611
4.67624
4.64896
4.62405
4.60125
4.58032
4.56104
4.54321
4.52664
4.51116
4.49664
4.48294
4.46994
4.45757
4.44573
4.43436
4.42339
4.41279
4.40249
4.39248
4.38272
4.37319
4.36386
5.16904
5.11054
5.0542
5.00002
4.94796
4.89803
4.85027
4.80472
4.76139
4.72029
4.6814
4.64467
4.61003
4.57738
4.54661
4.51761
4.49026
4.46444
4.44003
4.41692
4.395
4.37417
4.35434
4.33544
4.31737
4.30008
4.2835
4.26758
4.25226
4.2375
4.22327
4.20952
4.19622
5.16904
5.11053
5.05418
4.99994
4.94773
4.89747
4.84913
4.80265
4.758
4.71515
4.67407
4.63472
4.59706
4.56105
4.52663
4.49374
4.46232
4.4323
4.40361
4.37619
4.34995
4.32485
4.3008
4.27776
4.25565
4.23444
4.21405
4.19446
4.1756
4.15745
4.13995
4.12307
4.10678
5.16904
5.11052
5.05417
4.99991
4.94767
4.89735
4.84888
4.80219
4.7572
4.71386
4.67211
4.6319
4.59319
4.55594
4.52008
4.48558
4.45239
4.42047
4.38976
4.36021
4.33179
4.30443
4.27811
4.25276
4.22835
4.20483
4.18217
4.16032
4.13925
4.11893
4.09931
4.08036
4.06206
5.16904
5.11052
5.05416
4.99989
4.94764
4.89731
4.84881
4.80206
4.75699
4.71352
4.6716
4.63115
4.59212
4.55446
4.51811
4.48304
4.44918
4.41651
4.38497
4.35452
4.32512
4.29674
4.26934
4.24287
4.21731
4.19261
4.16875
4.14569
4.12339
4.10184
4.081
4.06085
4.04134
5.16903
5.11051
5.05415
4.99988
4.94762
4.89728
4.84877
4.802
4.75691
4.71341
4.67143
4.63092
4.5918
4.55402
4.51752
4.48226
4.44819
4.41525
4.38341
4.35262
4.32285
4.29406
4.26621
4.23926
4.21319
4.18796
4.16354
4.1399
4.11701
4.09485
4.07339
4.05261
4.03246
5.16903
5.11051
5.05414
4.99987
4.9476
4.89725
4.84873
4.80196
4.75685
4.71334
4.67135
4.63081
4.59166
4.55384
4.5173
4.48198
4.44784
4.41482
4.38288
4.35198
4.32208
4.29313
4.26511
4.23799
4.21171
4.18627
4.16161
4.13773
4.11458
4.09215
4.07041
4.04933
4.02889
5.16903
5.11051
5.05413
4.99986
4.94758
4.89723
4.8487
4.80192
4.75681
4.71328
4.67128
4.63073
4.59157
4.55373
4.51718
4.48184
4.44767
4.41462
4.38264
4.3517
4.32175
4.29276
4.26468
4.23748
4.21114
4.18561
4.16087
4.13688
4.11363
4.09109
4.06923
4.04802
4.02745
5.16903
5.1105
5.05413
4.99985
4.94757
4.89721
4.84868
4.80189
4.75676
4.71323
4.67122
4.63066
4.59149
4.55364
4.51707
4.48172
4.44754
4.41447
4.38248
4.35152
4.32156
4.29254
4.26444
4.23721
4.21084
4.18528
4.1605
4.13648
4.11319
4.0906
4.06868
4.04742
4.02679
5.16903
5.1105
5.05412
4.99984
4.94756
4.89719
4.84865
4.80186
4.75673
4.71319
4.67116
4.63059
4.59141
4.55356
4.51698
4.48162
4.44743
4.41435
4.38235
4.35138
4.3214
4.29237
4.26425
4.23701
4.21062
4.18504
4.16025
4.13621
4.11289
4.09028
4.06834
4.04706
4.0264
5.16903
5.1105
5.05412
4.99983
4.94755
4.89718
4.84863
4.80183
4.75669
4.71315
4.67112
4.63054
4.59135
4.55349
4.5169
4.48153
4.44732
4.41424
4.38223
4.35125
4.32125
4.29221
4.26408
4.23684
4.21043
4.18484
4.16003
4.13597
4.11265
4.09002
4.06806
4.04676
4.02608
5.16903
5.1105
5.05411
4.99982
4.94754
4.89716
4.84861
4.80181
4.75666
4.71311
4.67107
4.63049
4.59129
4.55342
4.51682
4.48144
4.44723
4.41413
4.38211
4.35112
4.32112
4.29207
4.26393
4.23667
4.21025
4.18465
4.15983
4.13576
4.11242
4.08978
4.06781
4.04649
4.0258
5.16903
5.1105
5.05411
4.99982
4.94753
4.89715
4.8486
4.80179
4.75664
4.71308
4.67103
4.63044
4.59123
4.55336
4.51675
4.48136
4.44714
4.41404
4.38201
4.35101
4.32099
4.29193
4.26378
4.23651
4.21009
4.18447
4.15964
4.13556
4.11221
4.08955
4.06757
4.04624
4.02553
5.16903
5.11049
5.05411
4.99981
4.94752
4.89714
4.84858
4.80177
4.75661
4.71305
4.671
4.6304
4.59118
4.5533
4.51669
4.48129
4.44706
4.41395
4.38191
4.3509
4.32088
4.29181
4.26365
4.23637
4.20993
4.1843
4.15946
4.13537
4.112
4.08933
4.06734
4.046
4.02528
5.16903
5.11049
5.05411
4.99981
4.94752
4.89713
4.84857
4.80175
4.75659
4.71302
4.67096
4.63036
4.59114
4.55325
4.51663
4.48122
4.44698
4.41386
4.38182
4.3508
4.32077
4.29169
4.26352
4.23623
4.20978
4.18414
4.15929
4.13519
4.11181
4.08913
4.06712
4.04576
4.02503
5.16903
5.11049
5.0541
4.99981
4.94751
4.89712
4.84856
4.80174
4.75657
4.713
4.67094
4.63033
4.5911
4.5532
4.51657
4.48116
4.44692
4.41379
4.38173
4.35071
4.32067
4.29158
4.2634
4.2361
4.20964
4.18399
4.15913
4.13501
4.11163
4.08893
4.06691
4.04555
4.0248
5.16903
5.11049
5.0541
4.9998
4.94751
4.89712
4.84855
4.80172
4.75656
4.71298
4.67091
4.63029
4.59106
4.55316
4.51653
4.48111
4.44686
4.41372
4.38166
4.35062
4.32057
4.29148
4.26329
4.23598
4.20951
4.18385
4.15898
4.13485
4.11145
4.08875
4.06672
4.04534
4.02458
5.16903
5.11049
5.0541
4.9998
4.9475
4.89711
4.84854
4.80171
4.75654
4.71296
4.67089
4.63027
4.59103
4.55313
4.51649
4.48106
4.4468
4.41366
4.38159
4.35055
4.32049
4.29138
4.26319
4.23587
4.20939
4.18373
4.15884
4.1347
4.11129
4.08858
4.06654
4.04514
4.02437
5.16903
5.11049
5.0541
4.9998
4.9475
4.89711
4.84854
4.8017
4.75653
4.71294
4.67087
4.63024
4.591
4.55309
4.51644
4.48101
4.44675
4.4136
4.38152
4.35047
4.32041
4.2913
4.26309
4.23577
4.20928
4.1836
4.15871
4.13456
4.11114
4.08842
4.06636
4.04496
4.02418
5.16903
5.11049
5.0541
4.9998
4.9475
4.8971
4.84853
4.8017
4.75652
4.71294
4.67086
4.63023
4.59099
4.55307
4.51642
4.48098
4.44671
4.41356
4.38148
4.35042
4.32035
4.29123
4.26302
4.23568
4.20919
4.1835
4.1586
4.13444
4.11101
4.08827
4.06621
4.0448
4.024
5.16903
5.11049
5.0541
4.9998
4.9475
4.8971
4.84853
4.80169
4.75651
4.71292
4.67084
4.63021
4.59096
4.55304
4.51638
4.48094
4.44667
4.41351
4.38142
4.35036
4.32028
4.29116
4.26294
4.23559
4.20909
4.1834
4.15849
4.13433
4.11089
4.08814
4.06607
4.04465
4.02384
5.16903
5.11049
5.0541
4.9998
4.9475
4.89711
4.84853
4.8017
4.75652
4.71293
4.67085
4.63022
4.59097
4.55305
4.51639
4.48095
4.44667
4.4135
4.38141
4.35034
4.32026
4.29112
4.2629
4.23555
4.20904
4.18334
4.15842
4.13425
4.1108
4.08805
4.06597
4.04453
4.02372
5.16903
5.11049
5.0541
4.9998
4.9475
4.8971
4.84853
4.80169
4.75651
4.71291
4.67083
4.63019
4.59094
4.55302
4.51636
4.48091
4.44663
4.41347
4.38137
4.3503
4.32022
4.29108
4.26286
4.2355
4.20899
4.18329
4.15837
4.13419
4.11074
4.08799
4.06591
4.04447
4.02365
5.16903
5.11049
5.0541
4.99981
4.94752
4.89714
4.84858
4.80176
4.75659
4.713
4.67093
4.6303
4.59105
4.55312
4.51646
4.48102
4.44674
4.41357
4.38147
4.3504
4.32032
4.29119
4.26296
4.23561
4.20911
4.18341
4.15849
4.13433
4.11089
4.08814
4.06607
4.04465
4.02385
5.16903
5.11051
5.05414
4.99985
4.94756
4.89718
4.84861
4.80178
4.75661
4.71302
4.67095
4.63033
4.59109
4.55318
4.51655
4.48112
4.44687
4.41374
4.38168
4.35065
4.32061
4.29153
4.26336
4.23607
4.20963
4.184
4.15916
4.13507
4.11171
4.08905
4.06707
4.04575
4.02505
5.16903
5.1105
5.05415
4.99992
4.9477
4.89739
4.8489
4.80214
4.75703
4.71351
4.67151
4.63096
4.59181
4.55399
4.51747
4.48217
4.44807
4.4151
4.38323
4.35241
4.3226
4.29376
4.26586
4.23886
4.21272
4.18742
4.16291
4.13918
4.11619
4.09391
4.07232
4.0514
4.03111
5.16905
5.11063
5.05441
5.00026
4.9481
4.89786
4.84948
4.80288
4.75802
4.71482
4.67323
4.63317
4.59461
4.55747
4.5217
4.48725
4.45407
4.4221
4.39129
4.36159
4.33297
4.30537
4.27875
4.25307
4.22828
4.20436
4.18127
4.15896
4.13741
4.11658
4.09645
4.07699
4.05816
5.16908
5.11079
5.05488
5.00136
4.95017
4.9012
4.8544
4.80971
4.76709
4.72647
4.68778
4.65095
4.6159
4.58254
4.55078
4.52054
4.49174
4.46429
4.43811
4.41313
4.38928
4.36648
4.34468
4.32381
4.30382
4.28466
4.26627
4.24861
4.23164
4.21532
4.19961
4.18448
4.16989
5.16939
5.11359
5.06202
5.01464
4.97148
4.93247
4.89743
4.8661
4.83816
4.81328
4.79115
4.77145
4.7539
4.73826
4.72427
4.71174
4.70047
4.6903
4.6811
4.67272
4.66506
4.65801
4.6515
4.64545
4.63979
4.63447
4.62944
4.62464
4.62006
4.61565
4.61139
4.60725
4.60321
5.17808
5.16329
5.16947
5.19111
5.22424
5.26583
5.31351
5.36537
5.42001
5.47632
5.53349
5.59084
5.64788
5.70421
5.75955
5.81368
5.86643
5.91769
5.96738
6.01546
6.06189
6.10668
6.14983
6.19137
6.23131
6.2697
6.30657
6.34198
6.37596
6.40856
6.43984
6.46985
6.49866
5.63861
6.43047
7.14599
7.82608
8.49555
9.1484
9.77875
10.3842
10.9647
11.5211
12.0547
12.5672
13.0601
13.5347
13.9924
14.4343
14.8614
15.2745
15.6745
16.062
16.4376
16.802
17.1555
17.4987
17.8321
18.1559
18.4707
18.7767
19.0743
19.3639
19.6457
19.92
20.1873
44.7794
48.3124
51.8864
55.4657
59.0311
62.5709
66.0743
69.5317
72.9342
76.2741
79.5445
82.7395
85.8543
88.8848
91.8279
94.6812
97.4428
100.112
102.688
105.171
107.561
109.86
112.067
114.186
116.218
118.164
120.026
121.808
123.511
125.137
126.689
128.17
129.583
704.097
833.065
939.23
1027.94
1102.19
1158.55
1192.16
1200.16
1183.57
1146.98
1096.92
1040.03
981.797
925.869
874.091
826.972
784.269
745.47
710.089
677.767
648.263
621.393
596.966
574.754
554.49
535.876
518.613
502.415
487.024
472.218
457.81
443.65
429.615
415.611
401.566
387.425
373.149
358.709
344.079
329.24
314.17
298.841
283.226
267.289
250.994
234.307
217.197
199.65
181.671
163.3
144.622
125.788
107.022
88.6453
71.0821
54.8497
40.5171
28.6088
19.4534
13.0322
8.94295
6.55444
5.24961
4.57497
4.25011
4.11517
4.08085
4.097
4.13523
4.17958
4.22133
4.2561
4.28216
4.29933
4.30842
4.31072
4.30784
4.30144
4.29318
4.28458
4.27691
4.27115
4.2679
4.26734
4.26931
4.27332
4.27866
4.28453
4.29006
4.29442
4.29687
4.29679
4.29374
4.28742
4.27771
4.26452
4.24806
4.22726
4.20732
4.16028
146.435
153.106
163.487
179.109
201.518
231.877
270.598
316.996
369.073
423.607
476.559
523.736
561.572
587.808
601.86
604.715
598.449
585.609
568.653
549.594
529.86
510.33
491.459
473.42
456.231
439.837
424.156
409.1
394.585
380.527
366.844
353.46
340.303
327.31
314.426
301.606
288.813
276.018
263.193
250.311
237.343
224.257
211.019
197.592
183.941
170.037
155.865
141.429
126.765
111.947
97.104
82.4262
68.1765
54.6892
42.3542
31.5752
22.6926
15.8817
11.0703
7.9416
6.04931
4.96811
4.38066
4.0829
3.95224
3.91597
3.9306
3.96986
4.01794
4.06549
4.1073
4.14075
4.16495
4.18008
4.18703
4.18708
4.18172
4.17252
4.16102
4.14867
4.13674
4.12625
4.11791
4.11209
4.10883
4.10784
4.10864
4.11056
4.11287
4.11481
4.1157
4.11489
4.11191
4.1064
4.09815
4.08699
4.07303
4.05521
4.03814
3.99673
30.205
30.6444
31.3191
32.4373
34.1205
36.5206
39.9963
44.9978
52.0472
61.6702
74.3074
90.1943
109.241
130.95
154.409
178.388
201.506
222.454
240.186
254.059
263.864
269.776
272.24
271.844
269.207
264.896
259.386
253.044
246.138
238.852
231.308
223.581
215.719
207.749
199.688
191.545
183.325
175.027
166.645
158.168
149.582
140.864
131.991
122.94
113.692
104.237
94.5847
84.7668
74.848
64.9322
55.1683
45.7509
36.9147
28.9148
21.9925
16.3248
11.9719
8.8497
6.75232
5.42103
4.61575
4.15241
3.90487
3.79103
3.75815
3.77224
3.81129
3.86105
3.91243
3.9598
3.99991
4.03115
4.0531
4.06609
4.07102
4.06906
4.0616
4.05005
4.03586
4.02037
4.00481
3.9902
3.97733
3.96669
3.95848
3.95261
3.94879
3.94651
3.9452
3.94419
3.94286
3.94059
3.93691
3.93141
3.92381
3.91388
3.90164
3.88604
3.8712
3.83451
12.3923
12.4707
12.5702
12.698
12.8651
13.0868
13.3791
13.7822
14.3456
15.1403
16.2497
17.7701
19.8072
22.4685
25.8521
30.0295
35.0245
40.7917
47.2048
54.0586
61.0883
68.0002
74.5069
80.3599
85.3722
89.4299
92.4907
94.574
95.7452
96.0981
95.7395
94.7767
93.3086
91.4213
89.1861
86.6596
83.8846
80.8912
77.6986
74.3165
70.7466
66.9848
63.0244
58.859
54.4876
49.9187
45.1763
40.3044
35.3707
30.4688
25.7154
21.2437
17.1886
13.6673
10.7558
8.47181
6.77199
5.56776
4.75228
4.22432
3.90072
3.71854
3.63193
3.60809
3.62367
3.66214
3.71194
3.76502
3.81593
3.86113
3.8985
3.92703
3.94651
3.95734
3.96034
3.95658
3.94731
3.93382
3.91741
3.89933
3.88073
3.86261
3.84578
3.83082
3.81806
3.80756
3.79919
3.79264
3.78745
3.78309
3.77902
3.77468
3.7696
3.76336
3.75565
3.74619
3.73491
3.72079
3.70751
3.67459
7.98426
8.00266
8.02071
8.03867
8.05802
8.08146
8.11219
8.15424
8.21268
8.29503
8.41086
8.57188
8.79148
9.08397
9.46386
9.94496
10.5393
11.2558
12.0991
13.0679
14.1546
15.3439
16.6131
17.932
19.2649
20.5727
21.8161
22.9593
23.9722
24.833
25.5284
26.053
26.4087
26.6021
26.6428
26.5416
26.3088
25.9524
25.478
24.8874
24.1796
23.3509
22.3962
21.3112
20.0944
18.7501
17.2909
15.7398
14.1312
12.5099
10.9281
9.43955
8.09273
6.92358
5.95079
5.17493
4.58173
4.14766
3.84557
3.64878
3.53327
3.47848
3.4674
3.4863
3.52431
3.57298
3.6259
3.67826
3.72659
3.76853
3.80262
3.82816
3.84507
3.85374
3.85489
3.8495
3.83866
3.82354
3.80531
3.78511
3.764
3.74294
3.72273
3.70399
3.68713
3.67235
3.65965
3.64887
3.6397
3.63175
3.62456
3.61766
3.6106
3.60298
3.59447
3.58475
3.57372
3.56036
3.548
3.51786
6.14363
6.14861
6.1515
6.15266
6.15242
6.15125
6.14972
6.14872
6.14923
6.15242
6.15968
6.17275
6.19369
6.22481
6.26858
6.32745
6.40362
6.49883
6.61413
6.74971
6.90481
7.07769
7.26561
7.46491
7.67114
7.87922
8.08373
8.27919
8.46046
8.62298
8.76309
8.87817
8.96662
9.02784
9.06196
9.06964
9.05171
9.00879
8.94104
8.8478
8.72749
8.5776
8.39491
8.17587
7.91737
7.61757
7.27688
6.89886
6.49075
6.06343
5.63074
5.20805
4.81049
4.4511
4.13951
3.8812
3.67759
3.52667
3.42387
3.36301
3.33708
3.33894
3.36173
3.3992
3.44589
3.49711
3.54902
3.59851
3.6432
3.68137
3.71194
3.73441
3.74873
3.75526
3.75465
3.74774
3.73552
3.71902
3.69928
3.67735
3.65419
3.63069
3.60764
3.58565
3.56519
3.54654
3.52983
3.515
3.50191
3.49026
3.47972
3.4699
3.4604
3.45087
3.44095
3.43034
3.41889
3.40561
3.39356
3.36525
5.19205
5.19084
5.18821
5.18416
5.1787
5.17197
5.16415
5.15552
5.14636
5.13693
5.12749
5.11831
5.1097
5.10203
5.09572
5.09123
5.08905
5.08963
5.09334
5.10039
5.11081
5.12441
5.14074
5.15914
5.17874
5.19851
5.21732
5.23401
5.24742
5.25652
5.2604
5.2584
5.25004
5.23509
5.21351
5.18544
5.15108
5.11069
5.06446
5.01246
4.95453
4.89026
4.81901
4.73991
4.65201
4.55448
4.44684
4.32927
4.20287
4.06983
3.93344
3.79788
3.6679
3.5483
3.44339
3.3566
3.29012
3.2448
3.22022
3.21485
3.22634
3.25178
3.28802
3.33182
3.38008
3.4299
3.47871
3.52429
3.56487
3.59912
3.62617
3.6456
3.65739
3.66186
3.65956
3.65125
3.63778
3.62008
3.59909
3.57574
3.55091
3.52543
3.50001
3.47528
3.45172
3.42966
3.40931
3.39073
3.37387
3.35857
3.34459
3.33162
3.31937
3.30749
3.29569
3.28363
3.27117
3.25736
3.24505
3.21763
4.65855
4.65158
4.64378
4.63511
4.62558
4.61525
4.60417
4.59241
4.58005
4.56715
4.55377
4.53992
4.5256
4.51084
4.49562
4.47998
4.46396
4.44764
4.43109
4.4144
4.39762
4.38078
4.36387
4.3468
4.32944
4.31162
4.29312
4.27366
4.25299
4.23083
4.20695
4.18115
4.15329
4.12329
4.09113
4.05682
4.02047
3.98216
3.94203
3.9002
3.85676
3.81177
3.76523
3.71711
3.66732
3.61583
3.56266
3.50798
3.45221
3.3961
3.34073
3.28754
3.23827
3.19477
3.15887
3.13214
3.11578
3.11042
3.11611
3.13233
3.15801
3.19168
3.23157
3.27571
3.32204
3.36855
3.41331
3.4546
3.49099
3.52137
3.54501
3.56154
3.57092
3.57342
3.56953
3.55991
3.54531
3.52657
3.50453
3.48002
3.45383
3.42673
3.39938
3.37237
3.34618
3.32118
3.29762
3.27564
3.25528
3.23648
3.21909
3.20291
3.1877
3.17319
3.15911
3.14517
3.13122
3.11632
3.10324
3.07584
4.35316
4.34084
4.32817
4.31509
4.3016
4.28766
4.27329
4.25851
4.24335
4.22784
4.21198
4.19577
4.17917
4.16213
4.1446
4.12653
4.10785
4.08852
4.0685
4.0478
4.02639
4.00429
3.98152
3.95807
3.93397
3.9092
3.88375
3.8576
3.83072
3.80307
3.77461
3.74533
3.7152
3.68422
3.65242
3.61982
3.58648
3.55247
3.51788
3.48281
3.44737
3.41168
3.37588
3.34012
3.30454
3.26934
3.23473
3.201
3.16852
3.13777
3.10934
3.08396
3.06244
3.04565
3.03444
3.02958
3.03162
3.04089
3.0574
3.0808
3.11046
3.1454
3.18444
3.22615
3.269
3.3114
3.35181
3.38878
3.4211
3.44779
3.4682
3.48199
3.48911
3.48977
3.4844
3.47357
3.45797
3.43832
3.41538
3.38991
3.36263
3.33422
3.30531
3.27643
3.24806
3.22057
3.19423
3.16925
3.14572
3.12366
3.10301
3.08366
3.06544
3.04814
3.03154
3.01538
2.99953
2.98311
2.96884
2.94067
4.1812
4.16423
4.14718
4.13001
4.11268
4.09519
4.07754
4.05973
4.04176
4.02366
4.00542
3.98702
3.96845
3.94966
3.93061
3.91123
3.89148
3.87129
3.85061
3.82939
3.8076
3.78522
3.76223
3.73863
3.71444
3.68966
3.66431
3.6384
3.61197
3.58502
3.55758
3.52968
3.50134
3.47259
3.44348
3.41405
3.38434
3.35444
3.32441
3.29434
3.26434
3.23455
3.2051
3.17617
3.14796
3.1207
3.09464
3.07008
3.04738
3.02691
3.00911
2.99448
2.98351
2.97672
2.9746
2.97756
2.9859
2.99978
3.01913
3.04369
3.07296
3.1062
3.14246
3.18062
3.21941
3.25751
3.29359
3.32639
3.35485
3.37808
3.39548
3.40673
3.41175
3.41071
3.40398
3.39206
3.37556
3.35512
3.33143
3.30518
3.27701
3.24756
3.21738
3.187
3.15684
3.12727
3.09859
3.07101
3.04469
3.01969
2.99603
2.97366
2.95248
2.93234
2.9131
2.89451
2.8765
2.8582
2.84239
2.81277
4.08845
4.06785
4.04729
4.02676
4.00623
3.98569
3.96514
3.94458
3.92401
3.90346
3.88291
3.86236
3.84181
3.82123
3.8006
3.77988
3.75902
3.73797
3.7167
3.69515
3.6733
3.65109
3.62852
3.60557
3.58222
3.55848
3.53435
3.50985
3.485
3.45981
3.43431
3.40852
3.38249
3.35624
3.32982
3.30327
3.27664
3.24999
3.2234
3.19695
3.17073
3.14487
3.11951
3.09482
3.07097
3.04821
3.02677
3.00693
2.98899
2.97331
2.96022
2.95011
2.94335
2.94031
2.94133
2.94669
2.95656
2.97103
2.99002
3.01328
3.0404
3.07075
3.10354
3.13781
3.17246
3.20634
3.23827
3.26715
3.29199
3.31201
3.32663
3.33553
3.33862
3.33603
3.32806
3.31516
3.29785
3.27674
3.25243
3.22553
3.19666
3.16638
3.13521
3.10362
3.07202
3.04076
3.01014
2.98037
2.95164
2.92406
2.89769
2.87253
2.84855
2.82567
2.80376
2.78267
2.76233
2.74191
2.72433
2.69271
4.04146
4.01831
3.99524
3.97224
3.9493
3.92642
3.90359
3.88083
3.85814
3.83553
3.81302
3.7906
3.76828
3.74605
3.72389
3.70179
3.67973
3.65766
3.63557
3.61342
3.59118
3.56881
3.5463
3.52362
3.50076
3.47771
3.45446
3.43102
3.4074
3.38359
3.35963
3.33551
3.31128
3.28696
3.26258
3.23817
3.21378
3.18947
3.16529
3.14132
3.11766
3.09441
3.0717
3.04967
3.02852
3.00844
2.98964
2.97239
2.95696
2.94363
2.93271
2.92451
2.91934
2.9175
2.91924
2.92478
2.93426
2.94771
2.96506
2.98608
3.01042
3.03751
3.06668
3.09706
3.12771
3.15758
3.18562
3.21084
3.23234
3.24938
3.26143
3.26817
3.26949
3.26548
3.2564
3.24263
3.22463
3.20294
3.17812
3.15072
3.1213
3.09037
3.05842
3.02589
2.99315
2.96053
2.92832
2.89675
2.86601
2.83621
2.80747
2.77983
2.75329
2.72782
2.70336
2.67977
2.65706
2.63441
2.61492
2.58089
4.01935
3.99462
3.96996
3.94536
3.92082
3.89634
3.87194
3.84762
3.82339
3.79927
3.77527
3.7514
3.72766
3.70407
3.68062
3.65731
3.63413
3.61105
3.58808
3.56517
3.54232
3.5195
3.4967
3.47389
3.45107
3.42821
3.40532
3.38238
3.3594
3.33637
3.31331
3.29022
3.26711
3.24401
3.22093
3.19791
3.17498
3.15219
3.12958
3.10722
3.0852
3.06361
3.04256
3.0222
3.00267
2.98417
2.96689
2.95106
2.93691
2.92471
2.91471
2.90719
2.9024
2.9006
2.90201
2.9068
2.91507
2.92687
2.94211
2.96058
2.98197
3.00579
3.03141
3.05809
3.08495
3.11107
3.1355
3.15732
3.17572
3.19002
3.1997
3.20445
3.20415
3.19886
3.18877
3.17423
3.15564
3.13347
3.10824
3.08046
3.05062
3.01921
2.98667
2.95341
2.91978
2.8861
2.85263
2.8196
2.7872
2.75556
2.72481
2.69501
2.6662
2.63839
2.61156
2.58561
2.56058
2.53569
2.51424
2.47756
4.00973
3.98412
3.95855
3.93303
3.90754
3.88211
3.85674
3.83144
3.80622
3.7811
3.75609
3.73122
3.70649
3.68191
3.65749
3.63324
3.60915
3.58522
3.56145
3.53783
3.51433
3.49097
3.46771
3.44455
3.42149
3.3985
3.37558
3.35272
3.32993
3.3072
3.28452
3.26192
3.23938
3.21692
3.19456
3.17232
3.15023
3.12832
3.10663
3.08523
3.06419
3.04358
3.02352
3.00413
2.98554
2.96793
2.95146
2.93634
2.92278
2.911
2.90125
2.89375
2.88874
2.88643
2.88702
2.89064
2.89739
2.9073
2.92028
2.93617
2.95465
2.9753
2.99756
3.02075
3.04408
3.06671
3.08779
3.10647
3.12201
3.13377
3.14126
3.14419
3.14241
3.13594
3.12496
3.10973
3.09064
3.06809
3.04255
3.01448
2.98434
2.95259
2.91962
2.88581
2.85151
2.81701
2.78256
2.74838
2.71465
2.68152
2.6491
2.61748
2.58673
2.55687
2.52791
2.4998
2.47261
2.44557
2.42221
2.38278
4.00579
3.97975
3.95373
3.92772
3.90174
3.87579
3.84988
3.82403
3.79824
3.77253
3.74692
3.72142
3.69605
3.67082
3.64575
3.62084
3.5961
3.57153
3.54714
3.52292
3.49887
3.47499
3.45127
3.4277
3.40429
3.38101
3.35788
3.33488
3.31201
3.28927
3.26666
3.24418
3.22183
3.19962
3.17757
3.15568
3.13399
3.11252
3.09132
3.07042
3.0499
3.02982
3.01029
2.9914
2.9733
2.95611
2.94
2.92516
2.91176
2.90001
2.89012
2.88229
2.87673
2.87363
2.87316
2.87543
2.88055
2.88851
2.89925
2.9126
2.9283
2.94595
2.96505
2.98498
3.00502
3.02443
3.0424
3.05818
3.07107
3.08049
3.08597
3.08721
3.08406
3.07653
3.06474
3.04892
3.0294
3.00656
2.98079
2.95253
2.9222
2.89021
2.85694
2.82276
2.78798
2.75287
2.71767
2.68261
2.64784
2.61352
2.57976
2.54666
2.51429
2.48269
2.4519
2.42188
2.39275
2.36372
2.3386
2.29646
4.00419
3.97796
3.95172
3.92549
3.89927
3.87307
3.84689
3.82075
3.79466
3.76864
3.74269
3.71683
3.69108
3.66546
3.63997
3.61464
3.58946
3.56445
3.53961
3.51495
3.49046
3.46616
3.44204
3.4181
3.39434
3.37075
3.34734
3.3241
3.30103
3.27813
3.25541
3.23286
3.21048
3.18829
3.16629
3.14451
3.12294
3.10164
3.08062
3.05993
3.03963
3.01978
3.00048
2.9818
2.96388
2.94683
2.93081
2.91596
2.90247
2.8905
2.88024
2.87189
2.86561
2.86158
2.85995
2.86082
2.86427
2.87031
2.87887
2.88981
2.90287
2.91771
2.93385
2.95075
2.96775
2.98416
2.99926
3.01235
3.0228
3.03004
3.03365
3.03334
3.02894
3.02043
3.00792
2.99159
2.97172
2.94864
2.92272
2.89435
2.86392
2.8318
2.79836
2.76393
2.72882
2.69328
2.65755
2.62182
2.58627
2.55104
2.51623
2.48195
2.44828
2.41526
2.38294
2.3513
2.32049
2.28971
2.263
2.21834
4.00346
3.97714
3.95081
3.92448
3.89815
3.87183
3.84552
3.81924
3.793
3.76681
3.74068
3.71463
3.68867
3.66281
3.63708
3.61147
3.58601
3.5607
3.53555
3.51057
3.48577
3.46114
3.4367
3.41244
3.38838
3.3645
3.34081
3.31732
3.29401
3.27091
3.24799
3.22528
3.20278
3.18048
3.15841
3.13657
3.11498
3.09367
3.07266
3.05201
3.03175
3.01195
2.99269
2.97404
2.95612
2.93904
2.92292
2.90792
2.89417
2.88184
2.8711
2.86211
2.85503
2.85001
2.84719
2.84665
2.84847
2.85265
2.85913
2.86778
2.87836
2.89056
2.90395
2.91803
2.9322
2.94584
2.95828
2.96888
2.97706
2.98229
2.98417
2.98242
2.97687
2.96748
2.95432
2.93754
2.91738
2.89413
2.86813
2.83972
2.80926
2.77711
2.7436
2.70905
2.67373
2.63791
2.60181
2.56562
2.5295
2.49358
2.45799
2.42281
2.38812
2.35398
2.32042
2.28747
2.25526
2.22299
2.19494
2.14802
4.00303
3.97667
3.95029
3.92391
3.89752
3.87114
3.84477
3.81842
3.7921
3.76582
3.73959
3.71343
3.68734
3.66134
3.63545
3.60967
3.58401
3.5585
3.53313
3.50793
3.48288
3.45801
3.43332
3.4088
3.38448
3.36035
3.33642
3.31268
3.28914
3.26582
3.2427
3.2198
3.19711
3.17466
3.15245
3.13048
3.10879
3.08739
3.06631
3.04559
3.02528
3.00542
2.98609
2.96737
2.94934
2.93212
2.91581
2.90054
2.88646
2.87369
2.8624
2.85273
2.84481
2.83879
2.83478
2.83287
2.83311
2.83552
2.84002
2.84651
2.85477
2.86451
2.87534
2.88679
2.89835
2.90941
2.91938
2.92768
2.93375
2.93712
2.9374
2.93432
2.92771
2.91751
2.90376
2.88659
2.86619
2.84284
2.81681
2.78843
2.75802
2.72591
2.69242
2.65784
2.62244
2.58647
2.55014
2.51365
2.47713
2.44074
2.40458
2.36873
2.33328
2.29828
2.26378
2.22978
2.19647
2.16299
2.13384
2.08501
4.0027
3.97631
3.9499
3.92348
3.89706
3.87065
3.84424
3.81785
3.79148
3.76514
3.73885
3.71261
3.68644
3.66034
3.63434
3.60843
3.58264
3.55698
3.53145
3.50606
3.48083
3.45576
3.43086
3.40614
3.3816
3.35725
3.3331
3.30914
3.28539
3.26186
3.23854
3.21544
3.19257
3.16994
3.14756
3.12545
3.10361
3.08208
3.06088
3.04004
3.01961
2.99964
2.98019
2.96133
2.94314
2.92571
2.90916
2.89359
2.87912
2.86588
2.85401
2.84363
2.83488
2.82787
2.8227
2.81946
2.8182
2.81891
2.82156
2.82602
2.8321
2.83954
2.84798
2.85701
2.86612
2.8748
2.88248
2.88864
2.89276
2.8944
2.8932
2.88889
2.8813
2.87035
2.85608
2.83857
2.818
2.79458
2.76858
2.74029
2.70999
2.678
2.6446
2.61008
2.5747
2.53869
2.50226
2.4656
2.42885
2.39214
2.35559
2.31928
2.28329
2.24766
2.21246
2.17769
2.14353
2.10912
2.07912
2.02874
4.0024
3.97598
3.94955
3.92311
3.89667
3.87022
3.84378
3.81736
3.79095
3.76457
3.73822
3.71193
3.68569
3.65952
3.63342
3.60742
3.58152
3.55574
3.53007
3.50454
3.47916
3.45392
3.42885
3.40394
3.37922
3.35467
3.33032
3.30617
3.28223
3.25849
3.23498
3.21169
3.18864
3.16583
3.14328
3.121
3.09901
3.07733
3.05599
3.03501
3.01444
2.99433
2.97472
2.95569
2.93731
2.91965
2.90282
2.88692
2.87205
2.85832
2.84586
2.83479
2.82521
2.81723
2.81095
2.80644
2.80374
2.80285
2.80374
2.80629
2.81034
2.81563
2.82186
2.82862
2.83548
2.84194
2.8475
2.85167
2.85398
2.85402
2.85144
2.84599
2.8375
2.82588
2.81114
2.79334
2.77263
2.7492
2.72328
2.69512
2.66499
2.63318
2.59996
2.56558
2.53031
2.49436
2.45793
2.42121
2.38435
2.34748
2.31069
2.27409
2.23773
2.20169
2.166
2.13067
2.09591
2.06081
2.0302
1.97864
4.00211
3.97568
3.94923
3.92276
3.89629
3.86982
3.84335
3.8169
3.79045
3.76403
3.73765
3.7113
3.685
3.65876
3.6326
3.60651
3.58051
3.55462
3.52884
3.50318
3.47766
3.45228
3.42705
3.40199
3.37709
3.35237
3.32785
3.30351
3.27938
3.25547
3.23177
3.2083
3.18507
3.16209
3.13937
3.11693
3.09478
3.07294
3.05145
3.03032
3.0096
2.98932
2.96955
2.95033
2.93173
2.91384
2.89672
2.88047
2.86519
2.85098
2.83794
2.82617
2.81579
2.80688
2.79953
2.7938
2.78974
2.78734
2.78657
2.78734
2.78948
2.79278
2.79693
2.8016
2.80635
2.81076
2.81436
2.81669
2.81732
2.81587
2.81202
2.80552
2.7962
2.78396
2.76879
2.75075
2.72994
2.70653
2.68073
2.65276
2.62286
2.5913
2.55832
2.52417
2.48909
2.45328
2.41696
2.3803
2.34344
2.30651
2.26962
2.23286
2.1963
2.15999
2.12399
2.08831
2.05314
2.01758
1.98654
1.93416
4.00184
3.97539
3.94891
3.92243
3.89593
3.86944
3.84294
3.81645
3.78998
3.76352
3.73709
3.71069
3.68434
3.65804
3.63181
3.60564
3.57956
3.55357
3.52769
3.50192
3.47627
3.45076
3.42539
3.40018
3.37513
3.35025
3.32556
3.30105
3.27675
3.25266
3.22879
3.20515
3.18175
3.1586
3.13572
3.11311
3.0908
3.06881
3.04716
3.02588
3.005
2.98456
2.96461
2.9452
2.92638
2.90823
2.89082
2.87423
2.85854
2.84384
2.83023
2.8178
2.80663
2.79683
2.78845
2.78156
2.7762
2.77238
2.77005
2.76914
2.76951
2.77094
2.77318
2.77589
2.7787
2.78121
2.78299
2.78362
2.7827
2.77987
2.77484
2.76736
2.75726
2.74445
2.7289
2.71064
2.68977
2.66643
2.64079
2.61306
2.58346
2.55221
2.51954
2.4857
2.45089
2.41533
2.37921
2.34269
2.30593
2.26906
2.23218
2.19538
2.15874
2.12231
2.08615
2.05026
2.01486
1.97901
1.94772
1.89481
4.00158
3.97511
3.94861
3.92211
3.89559
3.86907
3.84254
3.81602
3.78952
3.76302
3.73655
3.71011
3.68371
3.65735
3.63105
3.60482
3.57865
3.55258
3.5266
3.50072
3.47496
3.44932
3.42383
3.39848
3.37328
3.34826
3.32341
3.29875
3.27429
3.25004
3.226
3.20219
3.17863
3.15532
3.13227
3.10951
3.08705
3.0649
3.04309
3.02166
3.00062
2.98001
2.95988
2.94027
2.92123
2.90283
2.88513
2.86819
2.8521
2.83693
2.82276
2.80967
2.79776
2.78708
2.77772
2.76973
2.76315
2.75797
2.75418
2.7517
2.75041
2.75011
2.75056
2.75146
2.75248
2.75324
2.75334
2.7524
2.75004
2.74593
2.73979
2.73139
2.72056
2.70721
2.6913
2.67285
2.65195
2.62871
2.60329
2.57586
2.54661
2.51575
2.4835
2.45005
2.41561
2.38039
2.34456
2.30829
2.27173
2.23502
2.19825
2.16152
2.12491
2.08847
2.05227
2.01631
1.9808
1.94482
1.91341
1.86021
4.00133
3.97484
3.94833
3.9218
3.89526
3.86871
3.84216
3.81561
3.78907
3.76254
3.73603
3.70955
3.6831
3.65669
3.63033
3.60402
3.57779
3.55163
3.52556
3.49958
3.47372
3.44797
3.42235
3.39688
3.37155
3.34639
3.32139
3.29659
3.27197
3.24757
3.22337
3.19941
3.17569
3.15222
3.12902
3.10611
3.08349
3.06119
3.03923
3.01764
2.99644
2.97567
2.95536
2.93555
2.91629
2.89764
2.87965
2.86237
2.84588
2.83024
2.81553
2.80182
2.78917
2.77767
2.76737
2.75832
2.75057
2.74413
2.73897
2.73502
2.73218
2.73027
2.72908
2.72833
2.7277
2.72684
2.72539
2.72299
2.71929
2.71397
2.70677
2.69747
2.68592
2.67203
2.65576