/*--------------------------------*- C++ -*----------------------------------*\
| =========                 |                                                 |
| \\      /  F ield         | OpenFOAM: The Open Source CFD Toolbox           |
|  \\    /   O peration     | Version:  2.1.1                                 |
|   \\  /    A nd           | Web:      www.OpenFOAM.org                      |
|    \\/     M anipulation  |                                                 |
\*---------------------------------------------------------------------------*/
FoamFile
{
    version     2.0;
    format      ascii;
    class       volScalarField;
    location    "0.105";
    object      k;
}
// * * * * * * * * * * * * * * * * * * * * * * * * * * * * * * * * * * * * * //

dimensions      [0 2 -2 0 0 0 0];

internalField   nonuniform List<scalar> 
6820
(
0.288909
0.351398
0.415005
0.477466
0.536861
0.59156
0.640378
0.682641
0.718145
0.747062
0.769838
0.787088
0.799514
0.807834
0.812739
0.814863
0.814768
0.812941
0.809793
0.805666
0.800841
0.795543
0.789953
0.784212
0.778431
0.772692
0.767056
0.76158
0.756231
0.751328
0.745414
0.745494
0.717802
0.265532
0.269396
0.270522
0.27134
0.272556
0.274211
0.276219
0.278466
0.280841
0.28326
0.285666
0.288028
0.290338
0.292599
0.294827
0.297039
0.299256
0.301496
0.303774
0.306103
0.308493
0.310949
0.313474
0.31607
0.318735
0.321469
0.324273
0.327152
0.330117
0.333222
0.33649
0.340359
0.344494
0.262038
0.264254
0.263597
0.261558
0.259002
0.25632
0.253628
0.250939
0.248241
0.245526
0.242796
0.240063
0.237347
0.23467
0.232053
0.229519
0.227086
0.224769
0.222581
0.22053
0.218623
0.216865
0.215255
0.213794
0.21248
0.21131
0.210281
0.209388
0.208627
0.208001
0.207494
0.207136
0.206854
0.259885
0.260272
0.259796
0.258535
0.256829
0.254891
0.252834
0.25071
0.248548
0.24636
0.244154
0.241938
0.239717
0.237499
0.235292
0.233103
0.23094
0.22881
0.226719
0.224673
0.222676
0.220735
0.21885
0.217026
0.215264
0.213566
0.211932
0.210362
0.208855
0.207412
0.206028
0.204708
0.203439
0.259299
0.258404
0.2576
0.256567
0.255295
0.25385
0.252293
0.250662
0.248985
0.247279
0.245553
0.243818
0.242078
0.240339
0.238606
0.236883
0.235174
0.233481
0.231809
0.230161
0.228538
0.226944
0.22538
0.223848
0.222349
0.220885
0.219457
0.218065
0.216709
0.21539
0.214108
0.212864
0.211658
0.259224
0.257848
0.256622
0.255437
0.254227
0.25297
0.251663
0.250313
0.24893
0.247524
0.246102
0.244673
0.24324
0.241808
0.240382
0.238963
0.237555
0.23616
0.234781
0.233418
0.232073
0.230748
0.229445
0.228163
0.226905
0.225671
0.224461
0.223277
0.222118
0.220984
0.219878
0.218798
0.217747
0.259217
0.257715
0.256309
0.25498
0.253698
0.252442
0.251196
0.249951
0.248705
0.247456
0.246206
0.244957
0.243712
0.242473
0.24124
0.240018
0.238806
0.237607
0.236422
0.235252
0.234097
0.23296
0.23184
0.230738
0.229654
0.22859
0.227546
0.226522
0.225518
0.224534
0.223572
0.222632
0.221714
0.259218
0.25769
0.256225
0.254822
0.253477
0.252181
0.250924
0.249697
0.248493
0.247307
0.246138
0.244983
0.243842
0.242713
0.241599
0.240498
0.239411
0.238338
0.237281
0.236239
0.235213
0.234202
0.233209
0.232232
0.231272
0.23033
0.229405
0.228497
0.227608
0.226736
0.225883
0.225048
0.224232
0.259218
0.257686
0.256207
0.25478
0.253405
0.25208
0.2508
0.249561
0.248357
0.247186
0.246044
0.244927
0.243833
0.24276
0.241708
0.240676
0.239661
0.238666
0.237688
0.236727
0.235784
0.234858
0.233949
0.233057
0.232182
0.231324
0.230483
0.229658
0.228851
0.22806
0.227285
0.226528
0.225787
0.259218
0.257686
0.256203
0.254769
0.253384
0.252045
0.250751
0.2495
0.248289
0.247115
0.245976
0.244868
0.24379
0.24274
0.241716
0.240716
0.239739
0.238785
0.237851
0.236938
0.236045
0.23517
0.234314
0.233477
0.232657
0.231855
0.231069
0.230301
0.22955
0.228814
0.228096
0.227393
0.226706
0.259218
0.257685
0.256202
0.254767
0.253378
0.252035
0.250735
0.249478
0.24826
0.247081
0.245939
0.244831
0.243756
0.242711
0.241696
0.240709
0.239748
0.238812
0.2379
0.237011
0.236144
0.235298
0.234472
0.233666
0.232879
0.232111
0.23136
0.230627
0.229912
0.229213
0.228531
0.227865
0.227214
0.259218
0.257685
0.256201
0.254766
0.253376
0.252031
0.250729
0.249469
0.248249
0.247067
0.245921
0.244811
0.243735
0.24269
0.241677
0.240693
0.239737
0.238808
0.237904
0.237025
0.23617
0.235337
0.234526
0.233737
0.232967
0.232217
0.231487
0.230774
0.230079
0.229402
0.228742
0.228098
0.22747
0.259218
0.257685
0.256201
0.254765
0.253375
0.25203
0.250727
0.249466
0.248244
0.24706
0.245913
0.244802
0.243724
0.242678
0.241664
0.24068
0.239725
0.238797
0.237896
0.23702
0.236169
0.235342
0.234538
0.233755
0.232993
0.232252
0.231531
0.230829
0.230145
0.229479
0.228831
0.228199
0.227584
0.259218
0.257685
0.256201
0.254764
0.253374
0.252029
0.250726
0.249464
0.248241
0.247057
0.245909
0.244796
0.243718
0.242671
0.241656
0.240672
0.239716
0.238788
0.237887
0.237012
0.236162
0.235336
0.234534
0.233754
0.232995
0.232258
0.23154
0.230842
0.230163
0.229503
0.22886
0.228234
0.227625
0.259218
0.257685
0.2562
0.254764
0.253374
0.252028
0.250724
0.249462
0.248239
0.247055
0.245906
0.244793
0.243714
0.242667
0.241651
0.240666
0.239709
0.238781
0.23788
0.237005
0.236155
0.235329
0.234527
0.233747
0.232989
0.232253
0.231536
0.23084
0.230163
0.229504
0.228863
0.22824
0.227633
0.259218
0.257685
0.2562
0.254764
0.253373
0.252027
0.250723
0.249461
0.248238
0.247053
0.245904
0.24479
0.243711
0.242663
0.241647
0.240661
0.239705
0.238776
0.237874
0.236999
0.236148
0.235322
0.23452
0.23374
0.232982
0.232245
0.231529
0.230833
0.230156
0.229497
0.228857
0.228234
0.227628
0.259218
0.257685
0.2562
0.254763
0.253373
0.252026
0.250722
0.24946
0.248236
0.247051
0.245902
0.244788
0.243708
0.24266
0.241644
0.240658
0.2397
0.238771
0.237869
0.236993
0.236142
0.235316
0.234513
0.233733
0.232975
0.232238
0.231521
0.230825
0.230147
0.229489
0.228848
0.228225
0.227619
0.259218
0.257684
0.2562
0.254763
0.253372
0.252026
0.250722
0.249459
0.248235
0.247049
0.2459
0.244786
0.243705
0.242657
0.241641
0.240654
0.239697
0.238767
0.237865
0.236988
0.236137
0.23531
0.234507
0.233726
0.232968
0.23223
0.231514
0.230817
0.230139
0.22948
0.228839
0.228216
0.227609
0.259218
0.257684
0.2562
0.254763
0.253372
0.252025
0.250721
0.249458
0.248234
0.247048
0.245899
0.244784
0.243703
0.242655
0.241638
0.240651
0.239693
0.238763
0.237861
0.236984
0.236132
0.235305
0.234502
0.233721
0.232962
0.232224
0.231506
0.230809
0.230131
0.229472
0.22883
0.228206
0.227599
0.259218
0.257684
0.2562
0.254762
0.253371
0.252025
0.25072
0.249457
0.248233
0.247047
0.245897
0.244782
0.243701
0.242653
0.241635
0.240648
0.23969
0.23876
0.237857
0.23698
0.236128
0.2353
0.234496
0.233715
0.232956
0.232217
0.2315
0.230802
0.230123
0.229463
0.228821
0.228197
0.227589
0.259218
0.257684
0.256199
0.254762
0.253371
0.252024
0.25072
0.249456
0.248232
0.247046
0.245896
0.244781
0.2437
0.242651
0.241633
0.240646
0.239687
0.238757
0.237853
0.236976
0.236124
0.235296
0.234491
0.23371
0.23295
0.232211
0.231493
0.230795
0.230116
0.229456
0.228813
0.228188
0.22758
0.259218
0.257684
0.256199
0.254762
0.253371
0.252024
0.250719
0.249456
0.248231
0.247045
0.245895
0.244779
0.243698
0.242649
0.241631
0.240643
0.239685
0.238754
0.23785
0.236972
0.23612
0.235292
0.234487
0.233705
0.232945
0.232206
0.231487
0.230789
0.230109
0.229448
0.228805
0.22818
0.227571
0.259218
0.257684
0.256199
0.254762
0.253371
0.252024
0.250719
0.249455
0.248231
0.247044
0.245894
0.244778
0.243697
0.242647
0.241629
0.240641
0.239682
0.238751
0.237847
0.236969
0.236116
0.235288
0.234483
0.2337
0.23294
0.2322
0.231481
0.230782
0.230102
0.229441
0.228798
0.228172
0.227563
0.259218
0.257684
0.256199
0.254762
0.253371
0.252023
0.250719
0.249455
0.24823
0.247043
0.245893
0.244777
0.243695
0.242646
0.241627
0.240639
0.23968
0.238749
0.237844
0.236966
0.236113
0.235284
0.234479
0.233696
0.232935
0.232195
0.231476
0.230777
0.230096
0.229435
0.228791
0.228165
0.227555
0.259218
0.257684
0.256199
0.254762
0.25337
0.252023
0.250718
0.249454
0.24823
0.247043
0.245892
0.244776
0.243694
0.242644
0.241626
0.240637
0.239678
0.238746
0.237842
0.236963
0.23611
0.235281
0.234475
0.233692
0.232931
0.232191
0.231471
0.230771
0.23009
0.229428
0.228784
0.228157
0.227547
0.259218
0.257684
0.256199
0.254762
0.25337
0.252023
0.250718
0.249454
0.248229
0.247042
0.245891
0.244775
0.243693
0.242643
0.241625
0.240636
0.239676
0.238744
0.23784
0.236961
0.236107
0.235278
0.234472
0.233688
0.232927
0.232186
0.231466
0.230766
0.230085
0.229422
0.228778
0.228151
0.22754
0.259218
0.257684
0.256199
0.254762
0.25337
0.252023
0.250718
0.249454
0.248229
0.247042
0.245891
0.244775
0.243692
0.242642
0.241623
0.240634
0.239675
0.238743
0.237838
0.236959
0.236105
0.235275
0.234468
0.233685
0.232923
0.232182
0.231462
0.230761
0.23008
0.229417
0.228772
0.228144
0.227534
0.259218
0.257684
0.256199
0.254762
0.25337
0.252023
0.250718
0.249454
0.248229
0.247041
0.24589
0.244774
0.243692
0.242641
0.241622
0.240633
0.239673
0.238741
0.237836
0.236957
0.236102
0.235273
0.234466
0.233682
0.23292
0.232179
0.231458
0.230757
0.230075
0.229412
0.228767
0.228139
0.227528
0.259218
0.257684
0.256199
0.254762
0.25337
0.252023
0.250718
0.249453
0.248228
0.247041
0.24589
0.244773
0.243691
0.242641
0.241621
0.240632
0.239672
0.23874
0.237834
0.236955
0.2361
0.23527
0.234463
0.233679
0.232917
0.232175
0.231455
0.230753
0.230071
0.229408
0.228762
0.228134
0.227522
0.259218
0.257684
0.256199
0.254762
0.25337
0.252023
0.250718
0.249454
0.248229
0.247041
0.24589
0.244774
0.243691
0.242641
0.241622
0.240632
0.239672
0.23874
0.237834
0.236954
0.2361
0.235269
0.234462
0.233678
0.232915
0.232173
0.231452
0.230751
0.230069
0.229405
0.228759
0.22813
0.227518
0.259218
0.257684
0.256199
0.254762
0.25337
0.252023
0.250718
0.249453
0.248228
0.247041
0.24589
0.244773
0.243691
0.24264
0.241621
0.240632
0.239671
0.238739
0.237833
0.236953
0.236099
0.235268
0.234461
0.233677
0.232914
0.232172
0.231451
0.230749
0.230066
0.229402
0.228756
0.228127
0.227515
0.259218
0.257684
0.256199
0.254762
0.253371
0.252024
0.25072
0.249456
0.248231
0.247044
0.245893
0.244777
0.243694
0.242644
0.241625
0.240635
0.239675
0.238742
0.237836
0.236956
0.236102
0.235271
0.234463
0.233679
0.232916
0.232173
0.231452
0.23075
0.230067
0.229402
0.228756
0.228126
0.227514
0.259218
0.257685
0.2562
0.254764
0.253373
0.252026
0.250721
0.249457
0.248232
0.247045
0.245895
0.244779
0.243696
0.242646
0.241627
0.240638
0.239678
0.238745
0.237839
0.23696
0.236105
0.235274
0.234466
0.233681
0.232918
0.232175
0.231453
0.23075
0.230067
0.229401
0.228754
0.228123
0.227509
0.259218
0.257685
0.256201
0.254766
0.253378
0.252033
0.250731
0.249469
0.248246
0.24706
0.24591
0.244794
0.243712
0.242662
0.241643
0.240653
0.239692
0.238759
0.237852
0.236971
0.236115
0.235282
0.234473
0.233686
0.23292
0.232175
0.23145
0.230745
0.230058
0.22939
0.228739
0.228105
0.227487
0.259219
0.257689
0.25621
0.254777
0.25339
0.252046
0.250744
0.249482
0.248259
0.247074
0.245924
0.244808
0.243726
0.242675
0.241654
0.240663
0.2397
0.238763
0.237853
0.236967
0.236106
0.235268
0.234453
0.233659
0.232886
0.232133
0.2314
0.230685
0.229989
0.229311
0.22865
0.228006
0.227377
0.25922
0.257694
0.256221
0.254799
0.253423
0.252089
0.250795
0.249538
0.248318
0.247131
0.245978
0.244857
0.243766
0.242705
0.241673
0.240668
0.239689
0.238737
0.237808
0.236904
0.236023
0.235164
0.234326
0.23351
0.232714
0.231937
0.23118
0.23044
0.229719
0.229016
0.228329
0.227659
0.227004
0.259229
0.257738
0.256292
0.254882
0.253509
0.252172
0.250871
0.249604
0.248368
0.247162
0.245985
0.244836
0.243715
0.24262
0.24155
0.240506
0.239487
0.238491
0.237519
0.23657
0.235643
0.234737
0.233853
0.232989
0.232145
0.231321
0.230516
0.229729
0.22896
0.228209
0.227475
0.226757
0.226056
0.259265
0.257822
0.256453
0.255125
0.253804
0.252482
0.251163
0.249853
0.24856
0.247288
0.246043
0.244825
0.243636
0.242476
0.241345
0.240243
0.239168
0.238121
0.237099
0.236102
0.235129
0.23418
0.233253
0.232349
0.231465
0.230602
0.22976
0.228936
0.228132
0.227346
0.226578
0.225828
0.225095
0.259599
0.258632
0.257578
0.256542
0.255588
0.254714
0.253906
0.253152
0.252446
0.251786
0.251169
0.250596
0.250065
0.249577
0.249129
0.248721
0.24835
0.248016
0.247717
0.24745
0.247214
0.247008
0.246829
0.246676
0.246548
0.246443
0.246359
0.246296
0.246252
0.246226
0.246218
0.246225
0.246248
0.266719
0.28057
0.294241
0.307622
0.320668
0.333362
0.345692
0.357648
0.369223
0.380411
0.391208
0.401615
0.411632
0.421263
0.430511
0.439383
0.447886
0.456028
0.463818
0.471264
0.478378
0.485169
0.491648
0.497825
0.503712
0.50932
0.514658
0.519738
0.52457
0.529165
0.533532
0.537681
0.541626
0.8432
1.01274
1.195
1.39212
1.59716
1.79505
1.97015
2.11128
2.21458
2.28306
2.32402
2.34608
2.35694
2.36204
2.36444
2.36553
2.36585
2.36576
2.36581
2.36668
2.36913
2.37373
2.38079
2.39033
2.4021
2.41564
2.4304
2.44572
2.46093
2.47535
2.48834
2.49928
2.50762
2.51283
2.51447
2.51211
2.50536
2.49384
2.47716
2.45487
2.42649
2.39145
2.34909
2.29869
2.23945
2.17053
2.0911
2.00038
1.89771
1.78268
1.65524
1.51588
1.36583
1.20737
1.04409
0.881204
0.725613
0.585413
0.468396
0.379549
0.318881
0.281675
0.261222
0.251526
0.248316
0.248844
0.251398
0.254917
0.258755
0.262523
0.266008
0.269106
0.271791
0.274083
0.27603
0.2777
0.279168
0.28051
0.2818
0.283101
0.284462
0.285913
0.287463
0.289104
0.290809
0.292537
0.294242
0.295876
0.297391
0.298745
0.299904
0.30084
0.301541
0.301998
0.302213
0.302195
0.301957
0.301482
0.300935
0.29942
0.352581
0.365651
0.386248
0.418189
0.465686
0.532574
0.621448
0.732639
0.86345
1.00807
1.15822
1.30457
1.43844
1.55346
1.6466
1.71819
1.77101
1.8091
1.83665
1.8572
1.87336
1.88684
1.89867
1.90943
1.91943
1.92885
1.93776
1.94611
1.95379
1.96057
1.96617
1.97025
1.97244
1.97237
1.96967
1.964
1.95501
1.94234
1.92563
1.90446
1.87837
1.84679
1.80913
1.7647
1.71277
1.65261
1.58354
1.50497
1.41656
1.31827
1.21056
1.09454
0.972215
0.846645
0.722122
0.604057
0.498436
0.410612
0.343656
0.297202
0.2679
0.251186
0.242932
0.240079
0.240551
0.242966
0.246409
0.250274
0.25417
0.257855
0.261194
0.264122
0.266631
0.268745
0.270514
0.272
0.273272
0.274403
0.275463
0.276514
0.277608
0.278784
0.28006
0.281438
0.282903
0.284424
0.285963
0.287474
0.288914
0.29024
0.291414
0.292408
0.2932
0.293781
0.294146
0.294297
0.294243
0.293964
0.293602
0.292393
0.206419
0.206122
0.206485
0.207961
0.211001
0.216228
0.224692
0.237772
0.257165
0.284763
0.322413
0.371532
0.432655
0.505046
0.586556
0.673814
0.762717
0.849108
0.929439
1.00124
1.0633
1.11554
1.15873
1.19408
1.22299
1.24673
1.26641
1.28283
1.29659
1.30806
1.31745
1.32483
1.3302
1.33348
1.33456
1.33326
1.3294
1.32274
1.31301
1.29987
1.28293
1.26172
1.23571
1.20433
1.16701
1.12318
1.07241
1.01441
0.949212
0.87722
0.799394
0.717356
0.633491
0.550941
0.473399
0.404615
0.347594
0.303776
0.272685
0.252371
0.240315
0.234179
0.232108
0.232731
0.235058
0.238376
0.242175
0.246097
0.249896
0.253415
0.256564
0.259303
0.26163
0.263572
0.265173
0.266489
0.267585
0.268526
0.269378
0.270201
0.27105
0.271965
0.272974
0.274088
0.275302
0.276596
0.277939
0.279295
0.280621
0.281876
0.283024
0.284031
0.284875
0.28554
0.286017
0.286302
0.2864
0.286289
0.286088
0.285154
0.202035
0.200548
0.199164
0.197881
0.196735
0.195792
0.195141
0.194931
0.195361
0.196712
0.199337
0.203672
0.210231
0.219585
0.232324
0.248978
0.269917
0.295239
0.32469
0.357638
0.393126
0.429989
0.467004
0.503037
0.537157
0.5687
0.597277
0.62275
0.645168
0.664703
0.681586
0.69606
0.708339
0.718591
0.726925
0.733389
0.737969
0.740589
0.741108
0.73932
0.734956
0.727686
0.717136
0.702905
0.684609
0.661919
0.634635
0.602748
0.566532
0.526611
0.484023
0.440226
0.397036
0.356438
0.320291
0.289974
0.266118
0.248574
0.23662
0.229272
0.225532
0.224511
0.22546
0.227768
0.230947
0.234608
0.238455
0.242265
0.245876
0.249181
0.252117
0.254656
0.2568
0.258574
0.260016
0.261177
0.262114
0.262885
0.263552
0.264171
0.264796
0.265469
0.266224
0.267079
0.268038
0.269093
0.270221
0.271391
0.272569
0.273716
0.274795
0.275774
0.276628
0.277336
0.277885
0.278268
0.278484
0.278509
0.278441
0.277748
0.210305
0.208808
0.207336
0.205877
0.204432
0.203015
0.201641
0.200333
0.199117
0.198034
0.197136
0.196492
0.19618
0.196295
0.196937
0.198217
0.20025
0.203147
0.207006
0.211905
0.217887
0.22495
0.23304
0.242045
0.251801
0.262105
0.272733
0.283458
0.294073
0.304402
0.314309
0.323695
0.332497
0.340678
0.348214
0.355082
0.361252
0.366671
0.37126
0.374904
0.377448
0.378702
0.378446
0.376446
0.372477
0.366356
0.357983
0.347378
0.334726
0.320398
0.304949
0.289089
0.273601
0.259247
0.246657
0.236249
0.228212
0.222527
0.219024
0.217446
0.217488
0.218833
0.221168
0.224202
0.227675
0.231365
0.235086
0.238691
0.242066
0.245133
0.247845
0.250182
0.252145
0.253756
0.255048
0.256065
0.256857
0.257478
0.25798
0.258417
0.25884
0.259293
0.259811
0.260418
0.261128
0.261938
0.262836
0.2638
0.264801
0.265806
0.266779
0.267691
0.268513
0.269223
0.269805
0.270248
0.270545
0.270673
0.27071
0.270219
0.216556
0.215206
0.213856
0.21251
0.211165
0.209821
0.20848
0.207148
0.205833
0.204546
0.2033
0.202112
0.201002
0.199995
0.199114
0.198389
0.197848
0.197517
0.197422
0.197583
0.198018
0.198737
0.199744
0.201037
0.202604
0.204423
0.206469
0.208707
0.211101
0.213613
0.216207
0.218849
0.22151
0.224167
0.226798
0.229386
0.231913
0.234355
0.236685
0.238859
0.240824
0.242508
0.243824
0.244673
0.244953
0.244565
0.243436
0.241531
0.23887
0.235541
0.231703
0.227572
0.223409
0.219483
0.216047
0.213311
0.21142
0.210457
0.210433
0.211303
0.212974
0.21532
0.218193
0.22144
0.224909
0.228458
0.231963
0.235316
0.238435
0.241258
0.243746
0.245883
0.247669
0.249123
0.250273
0.251156
0.251816
0.252301
0.252657
0.252934
0.253178
0.253433
0.253733
0.254109
0.254577
0.255145
0.255808
0.256553
0.257355
0.25819
0.259025
0.259832
0.260584
0.261257
0.261833
0.262297
0.262639
0.262835
0.262945
0.262614
0.220669
0.219484
0.218291
0.21709
0.215881
0.214662
0.213437
0.212209
0.210982
0.20976
0.20855
0.207357
0.20619
0.205057
0.203967
0.202933
0.201962
0.201068
0.20026
0.199547
0.198937
0.198437
0.198052
0.197782
0.197628
0.197587
0.197654
0.197821
0.19808
0.198423
0.198838
0.199317
0.199849
0.200426
0.201041
0.201687
0.202357
0.203045
0.203744
0.204443
0.205129
0.205784
0.206386
0.206907
0.207315
0.207577
0.207665
0.207557
0.207248
0.206753
0.206111
0.20539
0.204678
0.204079
0.203703
0.203653
0.204015
0.204849
0.206181
0.208006
0.210286
0.212957
0.215937
0.219132
0.222442
0.225767
0.229014
0.232103
0.234963
0.237546
0.239817
0.24176
0.243377
0.24468
0.245695
0.246453
0.246993
0.247354
0.247581
0.247716
0.247802
0.247879
0.247985
0.248147
0.24839
0.248724
0.249153
0.249671
0.250262
0.250905
0.251575
0.252247
0.252893
0.253493
0.254024
0.254471
0.254821
0.255049
0.2552
0.254985
0.223302
0.222243
0.221173
0.220091
0.219
0.217899
0.216792
0.215678
0.21456
0.213442
0.212326
0.211216
0.210117
0.209031
0.207963
0.20692
0.205904
0.204923
0.20398
0.203082
0.202232
0.201436
0.200696
0.200015
0.199394
0.198836
0.198339
0.197902
0.197524
0.1972
0.196929
0.196706
0.196527
0.196389
0.196288
0.196221
0.196184
0.196176
0.196194
0.196236
0.196298
0.196379
0.196474
0.196578
0.196687
0.196796
0.1969
0.196997
0.19709
0.19719
0.197315
0.197495
0.197768
0.198182
0.198787
0.199635
0.200767
0.202215
0.203994
0.2061
0.208509
0.21118
0.214057
0.217072
0.220152
0.223219
0.226199
0.229024
0.231635
0.233987
0.236052
0.237812
0.239267
0.240429
0.241316
0.241958
0.242386
0.242636
0.242747
0.242756
0.242703
0.242625
0.242556
0.242526
0.24256
0.242675
0.242878
0.24317
0.243542
0.243981
0.244466
0.244976
0.245488
0.24598
0.246433
0.246827
0.247149
0.247372
0.247534
0.247387
0.224943
0.223981
0.223009
0.222026
0.221033
0.220031
0.219019
0.218001
0.216977
0.21595
0.214923
0.213898
0.212878
0.211864
0.210861
0.20987
0.208894
0.207936
0.206999
0.206085
0.205197
0.204337
0.203509
0.202715
0.201956
0.201233
0.200548
0.199902
0.199294
0.198723
0.198189
0.197691
0.197227
0.196795
0.196394
0.196023
0.19568
0.195365
0.195076
0.194815
0.194581
0.194376
0.194201
0.194061
0.193957
0.193895
0.19388
0.193919
0.194021
0.194199
0.194469
0.19485
0.195367
0.196046
0.196914
0.198
0.199324
0.200902
0.20274
0.20483
0.207154
0.209678
0.212359
0.215143
0.217969
0.220773
0.223491
0.226063
0.228439
0.230576
0.232447
0.234036
0.23534
0.236368
0.237137
0.23767
0.237995
0.238144
0.238151
0.238049
0.237874
0.237659
0.237436
0.237235
0.237081
0.236993
0.236982
0.237056
0.237211
0.237439
0.237727
0.238057
0.23841
0.238767
0.239109
0.239417
0.239677
0.239862
0.240002
0.239876
0.225923
0.225032
0.224132
0.223222
0.222302
0.221374
0.220438
0.219495
0.218547
0.217596
0.216643
0.215691
0.214741
0.213795
0.212854
0.211922
0.210998
0.210086
0.209186
0.2083
0.20743
0.206577
0.205743
0.204929
0.204138
0.20337
0.202626
0.201907
0.201213
0.200546
0.199905
0.19929
0.1987
0.198136
0.197596
0.197082
0.196591
0.196125
0.195684
0.195269
0.194882
0.194527
0.194206
0.193925
0.193691
0.19351
0.193391
0.193344
0.193382
0.193517
0.193765
0.194142
0.194667
0.195358
0.196235
0.197313
0.198606
0.200123
0.201863
0.203818
0.20597
0.208292
0.210745
0.213284
0.215857
0.218406
0.220876
0.223213
0.225369
0.227306
0.228998
0.230428
0.231592
0.232496
0.233154
0.233586
0.233817
0.233874
0.233788
0.233588
0.233305
0.23297
0.232613
0.232261
0.231939
0.231667
0.231461
0.231328
0.231273
0.231292
0.231377
0.231515
0.231693
0.231893
0.232099
0.232293
0.23246
0.232575
0.232663
0.232512
0.226473
0.225631
0.224781
0.223923
0.223057
0.222184
0.221304
0.220418
0.219528
0.218633
0.217738
0.216841
0.215946
0.215054
0.214166
0.213283
0.212406
0.211537
0.210676
0.209825
0.208985
0.208156
0.20734
0.206537
0.205749
0.204977
0.204221
0.203482
0.202761
0.202058
0.201375
0.20071
0.200065
0.199439
0.198833
0.198247
0.197681
0.197136
0.196615
0.196117
0.195646
0.195206
0.194801
0.194436
0.194118
0.193857
0.19366
0.193539
0.193507
0.193575
0.193759
0.194074
0.194535
0.195157
0.195955
0.196942
0.198126
0.199512
0.2011
0.202879
0.204835
0.206942
0.209167
0.211468
0.213799
0.21611
0.218349
0.220467
0.22242
0.224173
0.225699
0.226982
0.228017
0.228807
0.229363
0.229702
0.229847
0.229821
0.22965
0.229363
0.228986
0.228547
0.228073
0.227589
0.22712
0.226685
0.226301
0.225978
0.225725
0.225543
0.225427
0.22537
0.225362
0.225391
0.22544
0.225497
0.225545
0.225561
0.225572
0.22535
0.226756
0.225945
0.225128
0.224305
0.223475
0.22264
0.221798
0.220952
0.220102
0.219249
0.218395
0.21754
0.216686
0.215833
0.214984
0.214139
0.213299
0.212464
0.211636
0.210815
0.210002
0.209198
0.208402
0.207617
0.206842
0.206078
0.205327
0.204588
0.203861
0.203149
0.20245
0.201766
0.201097
0.200442
0.199804
0.199182
0.198577
0.197991
0.197425
0.196881
0.196361
0.195871
0.195414
0.194996
0.194624
0.194307
0.194053
0.193873
0.193778
0.193782
0.193898
0.194138
0.194518
0.19505
0.195747
0.19662
0.197674
0.198915
0.200339
0.201939
0.2037
0.205599
0.207606
0.209685
0.211792
0.213882
0.215908
0.217825
0.219591
0.221174
0.222547
0.223695
0.22461
0.225294
0.225757
0.226011
0.226077
0.225976
0.22573
0.225365
0.224906
0.224376
0.223801
0.223204
0.222606
0.222028
0.221486
0.220994
0.220559
0.220187
0.219878
0.21963
0.219434
0.219283
0.219164
0.219065
0.218975
0.218868
0.218778
0.218446
0.226885
0.226092
0.225295
0.224493
0.223686
0.222874
0.222057
0.221237
0.220414
0.219589
0.218762
0.217935
0.217108
0.216284
0.215462
0.214643
0.213828
0.213018
0.212214
0.211415
0.210623
0.209837
0.209059
0.208289
0.207527
0.206774
0.20603
0.205296
0.204572
0.203859
0.203156
0.202465
0.201786
0.201119
0.200465
0.199825
0.1992
0.198591
0.197999
0.197428
0.19688
0.196359
0.195869
0.195416
0.195007
0.19465
0.194353
0.194127
0.193981
0.193929
0.193981
0.194152
0.194452
0.194895
0.195491
0.19625
0.197177
0.198275
0.199543
0.200973
0.20255
0.204256
0.206062
0.207934
0.209835
0.211723
0.213553
0.215284
0.216879
0.218305
0.219538
0.22056
0.221365
0.221952
0.222328
0.222506
0.2225
0.222331
0.222019
0.221585
0.221054
0.220445
0.219783
0.219088
0.218381
0.217679
0.216999
0.216356
0.215758
0.215214
0.214725
0.214293
0.213914
0.213582
0.21329
0.213027
0.212784
0.212536
0.212327
0.211849
0.226934
0.226151
0.225363
0.224573
0.223778
0.222979
0.222178
0.221373
0.220566
0.219757
0.218947
0.218138
0.217328
0.216521
0.215716
0.214913
0.214115
0.213321
0.212531
0.211747
0.210968
0.210195
0.209428
0.208669
0.207916
0.20717
0.206433
0.205703
0.204982
0.20427
0.203567
0.202873
0.20219
0.201517
0.200855
0.200206
0.199569
0.198947
0.198342
0.197754
0.197189
0.196648
0.196137
0.19566
0.195226
0.194839
0.19451
0.194246
0.194059
0.193959
0.193956
0.194064
0.194293
0.194654
0.195156
0.195809
0.196618
0.197584
0.198708
0.19998
0.201389
0.202917
0.204538
0.206223
0.207934
0.209635
0.211286
0.212847
0.214283
0.215564
0.216666
0.217573
0.218276
0.218774
0.219071
0.219177
0.219107
0.218877
0.218505
0.218012
0.217417
0.216741
0.216004
0.215226
0.214424
0.213617
0.212819
0.212044
0.211304
0.210605
0.209954
0.209352
0.208799
0.208293
0.207828
0.207397
0.206994
0.206595
0.206255
0.205604
0.226945
0.226166
0.225383
0.224598
0.223809
0.223018
0.222223
0.221427
0.220628
0.219828
0.219028
0.218227
0.217427
0.216629
0.215833
0.21504
0.21425
0.213464
0.212682
0.211905
0.211133
0.210366
0.209606
0.208851
0.208103
0.207361
0.206626
0.205899
0.205179
0.204467
0.203763
0.203068
0.202382
0.201705
0.201039
0.200383
0.19974
0.19911
0.198495
0.197897
0.19732
0.196767
0.196241
0.195748
0.195294
0.194886
0.194531
0.194238
0.194016
0.193875
0.193825
0.193878
0.194042
0.194329
0.194747
0.195304
0.196005
0.196851
0.197842
0.198971
0.200226
0.201592
0.203044
0.204555
0.206093
0.207623
0.209108
0.210511
0.211801
0.212948
0.213929
0.214728
0.215336
0.215751
0.215975
0.216017
0.215888
0.215603
0.215179
0.214633
0.213984
0.21325
0.212449
0.2116
0.210719
0.209822
0.208924
0.208037
0.207173
0.20634
0.205544
0.20479
0.204078
0.203408
0.202778
0.202183
0.20162
0.201065
0.200588
0.199744
0.226941
0.226163
0.225382
0.224599
0.223812
0.223024
0.222232
0.221439
0.220644
0.219848
0.219052
0.218256
0.21746
0.216665
0.215873
0.215083
0.214296
0.213513
0.212733
0.211958
0.211188
0.210423
0.209664
0.20891
0.208162
0.20742
0.206685
0.205957
0.205236
0.204522
0.203816
0.203118
0.202428
0.201748
0.201077
0.200417
0.199768
0.199132
0.19851
0.197906
0.19732
0.196757
0.196221
0.195715
0.195247
0.194821
0.194445
0.194128
0.193876
0.1937
0.193609
0.193613
0.19372
0.19394
0.194282
0.194752
0.195354
0.196091
0.196961
0.197958
0.199072
0.200288
0.201585
0.202938
0.204316
0.205688
0.207019
0.208277
0.20943
0.210452
0.21132
0.212019
0.212539
0.212876
0.213033
0.213015
0.212833
0.212499
0.212028
0.211436
0.21074
0.209957
0.209103
0.208194
0.207247
0.206275
0.205293
0.204312
0.203344
0.202396
0.201475
0.200586
0.199732
0.198914
0.198132
0.197382
0.196664
0.195955
0.195341
0.194294
0.226932
0.226154
0.225373
0.22459
0.223804
0.223016
0.222225
0.221433
0.220639
0.219845
0.219049
0.218254
0.217459
0.216665
0.215873
0.215083
0.214295
0.213511
0.212731
0.211954
0.211183
0.210415
0.209653
0.208897
0.208146
0.207401
0.206663
0.205931
0.205206
0.204489
0.203779
0.203076
0.202383
0.201697
0.201022
0.200357
0.199703
0.199061
0.198434
0.197823
0.19723
0.19666
0.196114
0.195599
0.195118
0.194678
0.194284
0.193945
0.193668
0.193461
0.193332
0.193292
0.193347
0.193507
0.193779
0.194169
0.194681
0.195317
0.196076
0.196952
0.197937
0.199016
0.20017
0.201376
0.202606
0.203831
0.20502
0.206142
0.207168
0.208072
0.208835
0.209439
0.209876
0.210142
0.210235
0.210162
0.209931
0.209553
0.209041
0.20841
0.207674
0.206849
0.205951
0.204993
0.203991
0.202958
0.201906
0.200848
0.199792
0.198747
0.19772
0.196716
0.195739
0.19479
0.193871
0.19298
0.192119
0.191264
0.190518
0.189267
0.226921
0.226143
0.225362
0.224578
0.223792
0.223003
0.222212
0.22142
0.220626
0.219831
0.219035
0.218239
0.217443
0.216648
0.215854
0.215062
0.214272
0.213485
0.212702
0.211922
0.211146
0.210375
0.209608
0.208847
0.208091
0.207342
0.206598
0.205861
0.20513
0.204407
0.203691
0.202983
0.202284
0.201593
0.200912
0.200241
0.199581
0.198934
0.198301
0.197684
0.197085
0.196507
0.195954
0.195429
0.194937
0.194483
0.194074
0.193715
0.193414
0.193179
0.193017
0.192935
0.192943
0.193047
0.193254
0.19357
0.193999
0.194542
0.195198
0.195963
0.196828
0.197779
0.198801
0.199871
0.200964
0.202053
0.203109
0.204103
0.20501
0.205804
0.206466
0.206982
0.207341
0.207537
0.207572
0.207448
0.207172
0.206755
0.206207
0.205542
0.204773
0.203914
0.202979
0.201981
0.200935
0.199852
0.198745
0.197623
0.196496
0.195372
0.194257
0.193156
0.192074
0.191013
0.189975
0.188959
0.187969
0.18698
0.186112
0.184666
0.226911
0.226132
0.22535
0.224565
0.223778
0.222989
0.222198
0.221404
0.220609
0.219813
0.219016
0.218218
0.217421
0.216624
0.215827
0.215032
0.21424
0.213449
0.212661
0.211877
0.211096
0.21032
0.209547
0.20878
0.208019
0.207262
0.206512
0.205769
0.205032
0.204302
0.203579
0.202865
0.202158
0.201461
0.200773
0.200096
0.19943
0.198777
0.198138
0.197514
0.196908
0.196323
0.195762
0.195228
0.194725
0.194259
0.193835
0.193458
0.193135
0.192873
0.192678
0.192559
0.192522
0.192574
0.192721
0.192968
0.193319
0.193776
0.194336
0.194997
0.19575
0.196583
0.197481
0.198424
0.199389
0.20035
0.201282
0.202156
0.20295
0.20364
0.204207
0.204638
0.204922
0.205053
0.205032
0.20486
0.204544
0.204091
0.203512
0.202818
0.202022
0.201136
0.200173
0.199145
0.198065
0.196943
0.195792
0.19462
0.193436
0.192247
0.191061
0.189881
0.188712
0.187557
0.186417
0.185294
0.184192
0.183084
0.182108
0.180481
0.226901
0.226121
0.225338
0.224553
0.223765
0.222975
0.222182
0.221388
0.220592
0.219794
0.218996
0.218196
0.217397
0.216597
0.215798
0.215
0.214204
0.213409
0.212617
0.211828
0.211042
0.21026
0.209482
0.208708
0.20794
0.207177
0.20642
0.205669
0.204925
0.204187
0.203458
0.202736
0.202022
0.201318
0.200623
0.199939
0.199267
0.198607
0.197961
0.19733
0.196718
0.196125
0.195555
0.195012
0.194499
0.194021
0.193581
0.193187
0.192843
0.192555
0.19233
0.192175
0.192096
0.192098
0.192189
0.192371
0.192649
0.193024
0.193495
0.194058
0.194707
0.195429
0.196212
0.197036
0.19788
0.198721
0.199534
0.200295
0.200981
0.201571
0.202048
0.202397
0.202609
0.202678
0.202603