/*--------------------------------*- C++ -*----------------------------------*\
| =========                 |                                                 |
| \\      /  F ield         | OpenFOAM: The Open Source CFD Toolbox           |
|  \\    /   O peration     | Version:  2.1.1                                 |
|   \\  /    A nd           | Web:      www.OpenFOAM.org                      |
|    \\/     M anipulation  |                                                 |
\*---------------------------------------------------------------------------*/
FoamFile
{
    version     2.0;
    format      ascii;
    class       volScalarField;
    location    "0.105";
    object      nut;
}
// * * * * * * * * * * * * * * * * * * * * * * * * * * * * * * * * * * * * * //

dimensions      [0 2 -1 0 0 0 0];

internalField   nonuniform List<scalar> 
6820
(
4.96025e-05
5.47044e-05
5.94497e-05
6.37668e-05
6.76167e-05
7.09778e-05
7.38484e-05
7.62464e-05
7.8204e-05
7.9763e-05
8.09697e-05
8.18719e-05
8.25156e-05
8.29439e-05
8.31953e-05
8.33039e-05
8.32991e-05
8.32056e-05
8.30444e-05
8.28325e-05
8.25841e-05
8.23106e-05
8.20209e-05
8.17223e-05
8.14205e-05
8.11199e-05
8.08235e-05
8.05346e-05
8.02513e-05
7.99907e-05
7.96753e-05
7.96797e-05
7.81858e-05
0.000540295
0.000304976
0.000219966
0.000171566
0.000140529
0.000119667
0.000105142
9.47588e-05
8.71944e-05
8.16128e-05
7.74637e-05
7.43735e-05
7.20816e-05
7.04019e-05
6.9199e-05
6.83726e-05
6.78472e-05
6.7565e-05
6.74814e-05
6.7561e-05
6.7776e-05
6.81035e-05
6.85252e-05
6.90255e-05
6.95916e-05
7.02124e-05
7.08781e-05
7.158e-05
7.23105e-05
7.30579e-05
7.38184e-05
7.45639e-05
7.52104e-05
0.00105857
0.000836084
0.000679232
0.000569607
0.000490046
0.000430109
0.000383694
0.000346849
0.00031695
0.000292236
0.000271492
0.000253855
0.000238699
0.000225556
0.00021407
0.000203965
0.000195024
0.000187072
0.000179971
0.000173604
0.000167876
0.000162709
0.000158036
0.0001538
0.000149952
0.000146453
0.000143265
0.000140358
0.000137706
0.000135288
0.000133068
0.000131088
0.00012906
0.00115953
0.00109653
0.00101166
0.000926408
0.000849798
0.000783603
0.000727044
0.00067871
0.000637185
0.000601246
0.000569891
0.000542317
0.000517883
0.000496081
0.000476503
0.000458821
0.000442769
0.000428128
0.000414719
0.000402391
0.000391018
0.000380493
0.000370724
0.000361633
0.000353153
0.000345225
0.000337801
0.000330835
0.000324295
0.000318148
0.000312382
0.000306967
0.000301944
0.00116966
0.00115863
0.00113363
0.00109757
0.00105569
0.0010122
0.00096967
0.000929413
0.000891972
0.000857472
0.000825822
0.000796832
0.000770274
0.000745918
0.00072354
0.000702939
0.000683931
0.000666352
0.000650059
0.000634923
0.000620832
0.000607686
0.000595396
0.000583885
0.000573082
0.000562926
0.000553362
0.00054434
0.000535817
0.000527755
0.000520123
0.000512895
0.000506053
0.00117006
0.00116839
0.00116306
0.00115261
0.00113713
0.00111768
0.00109554
0.00107192
0.00104773
0.00102361
0.00100002
0.000977214
0.000955354
0.000934518
0.000914733
0.000895993
0.000878271
0.000861525
0.000845708
0.000830769
0.000816656
0.000803317
0.000790702
0.000778765
0.00076746
0.000756745
0.00074658
0.000736928
0.000727755
0.000719031
0.000710728
0.000702825
0.0006953
0.00116996
0.00116938
0.00116821
0.00116569
0.00116123
0.00115458
0.00114584
0.00113528
0.00112329
0.00111025
0.00109651
0.00108237
0.00106806
0.00105377
0.00103964
0.00102578
0.00101225
0.000999104
0.000986377
0.000974088
0.000962245
0.00095085
0.000939899
0.000929382
0.00091929
0.000909608
0.000900322
0.000891417
0.000882878
0.000874689
0.000866838
0.000859314
0.000852104
0.00116994
0.0011694
0.00116883
0.00116803
0.00116674
0.00116472
0.0011618
0.00115791
0.00115305
0.00114729
0.00114075
0.00113356
0.00112584
0.00111773
0.00110933
0.00110075
0.00109206
0.00108335
0.00107466
0.00106605
0.00105755
0.00104919
0.001041
0.00103298
0.00102517
0.00101756
0.00101015
0.00100296
0.000995984
0.00098922
0.000982671
0.000976335
0.000970212
0.00116994
0.00116939
0.00116886
0.00116832
0.0011677
0.00116692
0.00116588
0.00116449
0.00116269
0.00116044
0.00115772
0.00115456
0.00115099
0.00114703
0.00114275
0.00113818
0.00113338
0.00112839
0.00112326
0.00111802
0.00111271
0.00110736
0.001102
0.00109665
0.00109133
0.00108606
0.00108085
0.00107571
0.00107065
0.00106569
0.00106082
0.00105606
0.00105141
0.00116994
0.00116938
0.00116885
0.00116833
0.00116782
0.00116729
0.00116671
0.00116605
0.00116526
0.00116432
0.00116319
0.00116186
0.00116031
0.00115854
0.00115655
0.00115437
0.00115199
0.00114945
0.00114675
0.00114391
0.00114096
0.00113792
0.0011348
0.00113161
0.00112838
0.00112512
0.00112183
0.00111855
0.00111526
0.00111199
0.00110874
0.00110551
0.00110233
0.00116994
0.00116938
0.00116884
0.00116832
0.00116782
0.00116732
0.00116683
0.00116634
0.00116582
0.00116527
0.00116467
0.001164
0.00116324
0.0011624
0.00116147
0.00116043
0.00115929
0.00115804
0.0011567
0.00115527
0.00115375
0.00115214
0.00115047
0.00114873
0.00114693
0.00114508
0.00114319
0.00114127
0.00113932
0.00113735
0.00113537
0.00113338
0.00113139
0.00116994
0.00116938
0.00116884
0.00116832
0.00116781
0.00116732
0.00116684
0.00116637
0.00116591
0.00116545
0.00116499
0.00116452
0.00116403
0.00116351
0.00116297
0.00116238
0.00116176
0.0011611
0.00116039
0.00115964
0.00115884
0.001158
0.00115711
0.00115618
0.00115521
0.00115421
0.00115317
0.0011521
0.001151
0.00114988
0.00114875
0.00114759
0.00114642
0.00116994
0.00116938
0.00116884
0.00116832
0.00116781
0.00116732
0.00116684
0.00116637
0.00116592
0.00116547
0.00116504
0.00116461
0.00116419
0.00116377
0.00116335
0.00116292
0.00116249
0.00116204
0.00116158
0.00116111
0.00116062
0.00116012
0.0011596
0.00115906
0.0011585
0.00115792
0.00115733
0.00115671
0.00115609
0.00115545
0.00115479
0.00115413
0.00115345
0.00116994
0.00116938
0.00116884
0.00116832
0.00116781
0.00116731
0.00116683
0.00116637
0.00116591
0.00116547
0.00116504
0.00116462
0.00116422
0.00116382
0.00116343
0.00116304
0.00116266
0.00116228
0.00116191
0.00116154
0.00116116
0.00116079
0.00116041
0.00116003
0.00115965
0.00115926
0.00115886
0.00115847
0.00115806
0.00115766
0.00115725
0.00115683
0.00115641
0.00116994
0.00116938
0.00116884
0.00116832
0.00116781
0.00116731
0.00116683
0.00116636
0.00116591
0.00116547
0.00116504
0.00116462
0.00116421
0.00116382
0.00116343
0.00116306
0.00116269
0.00116233
0.00116198
0.00116164
0.0011613
0.00116096
0.00116064
0.00116031
0.00115999
0.00115968
0.00115936
0.00115905
0.00115874
0.00115843
0.00115813
0.00115782
0.00115752
0.00116994
0.00116938
0.00116884
0.00116831
0.0011678
0.00116731
0.00116683
0.00116636
0.0011659
0.00116546
0.00116503
0.00116461
0.00116421
0.00116381
0.00116343
0.00116305
0.00116269
0.00116233
0.00116199
0.00116165
0.00116132
0.001161
0.00116068
0.00116038
0.00116008
0.00115978
0.0011595
0.00115922
0.00115894
0.00115867
0.0011584
0.00115814
0.00115788
0.00116994
0.00116938
0.00116884
0.00116831
0.0011678
0.00116731
0.00116683
0.00116636
0.0011659
0.00116546
0.00116503
0.00116461
0.0011642
0.00116381
0.00116342
0.00116305
0.00116268
0.00116233
0.00116198
0.00116164
0.00116132
0.001161
0.00116069
0.00116038
0.00116009
0.0011598
0.00115952
0.00115925
0.00115898
0.00115872
0.00115847
0.00115822
0.00115798
0.00116994
0.00116938
0.00116884
0.00116831
0.0011678
0.00116731
0.00116682
0.00116635
0.0011659
0.00116546
0.00116502
0.00116461
0.0011642
0.0011638
0.00116342
0.00116304
0.00116267
0.00116232
0.00116197
0.00116164
0.00116131
0.00116099
0.00116068
0.00116038
0.00116008
0.00115979
0.00115952
0.00115924
0.00115898
0.00115872
0.00115847
0.00115823
0.00115799
0.00116994
0.00116938
0.00116884
0.00116831
0.0011678
0.0011673
0.00116682
0.00116635
0.0011659
0.00116545
0.00116502
0.0011646
0.00116419
0.0011638
0.00116341
0.00116303
0.00116267
0.00116231
0.00116197
0.00116163
0.0011613
0.00116098
0.00116067
0.00116037
0.00116007
0.00115978
0.0011595
0.00115923
0.00115897
0.00115871
0.00115846
0.00115822
0.00115798
0.00116994
0.00116938
0.00116884
0.00116831
0.0011678
0.0011673
0.00116682
0.00116635
0.00116589
0.00116545
0.00116502
0.0011646
0.00116419
0.00116379
0.00116341
0.00116303
0.00116266
0.00116231
0.00116196
0.00116162
0.00116129
0.00116097
0.00116066
0.00116036
0.00116006
0.00115977
0.00115949
0.00115922
0.00115895
0.0011587
0.00115845
0.0011582
0.00115796
0.00116994
0.00116938
0.00116884
0.00116831
0.0011678
0.0011673
0.00116682
0.00116635
0.00116589
0.00116545
0.00116502
0.0011646
0.00116419
0.00116379
0.0011634
0.00116302
0.00116266
0.0011623
0.00116195
0.00116161
0.00116128
0.00116096
0.00116065
0.00116035
0.00116005
0.00115976
0.00115948
0.00115921
0.00115894
0.00115868
0.00115843
0.00115818
0.00115795
0.00116994
0.00116938
0.00116884
0.00116831
0.0011678
0.0011673
0.00116682
0.00116635
0.00116589
0.00116545
0.00116501
0.00116459
0.00116418
0.00116379
0.0011634
0.00116302
0.00116265
0.00116229
0.00116195
0.00116161
0.00116128
0.00116096
0.00116064
0.00116034
0.00116004
0.00115975
0.00115947
0.0011592
0.00115893
0.00115867
0.00115842
0.00115817
0.00115793
0.00116994
0.00116938
0.00116884
0.00116831
0.0011678
0.0011673
0.00116682
0.00116635
0.00116589
0.00116545
0.00116501
0.00116459
0.00116418
0.00116378
0.00116339
0.00116302
0.00116265
0.00116229
0.00116194
0.0011616
0.00116127
0.00116095
0.00116063
0.00116033
0.00116003
0.00115974
0.00115946
0.00115918
0.00115892
0.00115866
0.0011584
0.00115816
0.00115791
0.00116994
0.00116938
0.00116884
0.00116831
0.0011678
0.0011673
0.00116682
0.00116635
0.00116589
0.00116544
0.00116501
0.00116459
0.00116418
0.00116378
0.00116339
0.00116301
0.00116264
0.00116229
0.00116194
0.0011616
0.00116127
0.00116094
0.00116063
0.00116032
0.00116002
0.00115973
0.00115945
0.00115917
0.00115891
0.00115864
0.00115839
0.00115814
0.0011579
0.00116994
0.00116938
0.00116884
0.00116831
0.0011678
0.0011673
0.00116682
0.00116635
0.00116589
0.00116544
0.00116501
0.00116459
0.00116418
0.00116378
0.00116339
0.00116301
0.00116264
0.00116228
0.00116193
0.00116159
0.00116126
0.00116094
0.00116062
0.00116031
0.00116002
0.00115972
0.00115944
0.00115916
0.0011589
0.00115863
0.00115838
0.00115813
0.00115789
0.00116994
0.00116938
0.00116884
0.00116831
0.0011678
0.0011673
0.00116682
0.00116635
0.00116589
0.00116544
0.00116501
0.00116459
0.00116418
0.00116378
0.00116339
0.00116301
0.00116264
0.00116228
0.00116193
0.00116159
0.00116126
0.00116093
0.00116062
0.00116031
0.00116001
0.00115972
0.00115943
0.00115916
0.00115889
0.00115862
0.00115837
0.00115812
0.00115787
0.00116994
0.00116938
0.00116884
0.00116831
0.0011678
0.0011673
0.00116682
0.00116635
0.00116589
0.00116544
0.00116501
0.00116459
0.00116417
0.00116377
0.00116338
0.00116301
0.00116264
0.00116228
0.00116193
0.00116158
0.00116125
0.00116093
0.00116061
0.0011603
0.00116
0.00115971
0.00115943
0.00115915
0.00115888
0.00115861
0.00115836
0.00115811
0.00115786
0.00116994
0.00116938
0.00116884
0.00116831
0.0011678
0.0011673
0.00116682
0.00116635
0.00116589
0.00116544
0.00116501
0.00116458
0.00116417
0.00116377
0.00116338
0.001163
0.00116263
0.00116227
0.00116192
0.00116158
0.00116125
0.00116092
0.00116061
0.0011603
0.00116
0.0011597
0.00115942
0.00115914
0.00115887
0.0011586
0.00115835
0.0011581
0.00115785
0.00116994
0.00116938
0.00116884
0.00116831
0.0011678
0.0011673
0.00116682
0.00116634
0.00116589
0.00116544
0.00116501
0.00116458
0.00116417
0.00116377
0.00116338
0.001163
0.00116263
0.00116227
0.00116192
0.00116158
0.00116125
0.00116092
0.0011606
0.00116029
0.00115999
0.0011597
0.00115941
0.00115914
0.00115886
0.0011586
0.00115834
0.00115809
0.00115784
0.00116994
0.00116938
0.00116884
0.00116831
0.0011678
0.0011673
0.00116682
0.00116635
0.00116589
0.00116544
0.00116501
0.00116459
0.00116417
0.00116377
0.00116338
0.001163
0.00116263
0.00116227
0.00116192
0.00116158
0.00116124
0.00116092
0.0011606
0.00116029
0.00115999
0.0011597
0.00115941
0.00115913
0.00115886
0.00115859
0.00115833
0.00115808
0.00115783
0.00116994
0.00116938
0.00116884
0.00116831
0.0011678
0.0011673
0.00116682
0.00116635
0.00116589
0.00116544
0.00116501
0.00116459
0.00116418
0.00116377
0.00116338
0.00116301
0.00116264
0.00116227
0.00116192
0.00116158
0.00116125
0.00116092
0.0011606
0.00116029
0.00115999
0.0011597
0.00115941
0.00115913
0.00115885
0.00115859
0.00115832
0.00115807
0.00115782
0.00116994
0.00116938
0.00116884
0.00116831
0.0011678
0.00116731
0.00116682
0.00116635
0.0011659
0.00116545
0.00116502
0.0011646
0.00116418
0.00116378
0.00116339
0.00116301
0.00116264
0.00116228
0.00116193
0.00116158
0.00116125
0.00116092
0.0011606
0.00116028
0.00115998
0.00115968
0.00115938
0.0011591
0.00115882
0.00115854
0.00115827
0.00115801
0.00115775
0.00116994
0.00116938
0.00116884
0.00116832
0.00116781
0.00116731
0.00116683
0.00116636
0.0011659
0.00116546
0.00116502
0.0011646
0.00116419
0.00116379
0.0011634
0.00116301
0.00116263
0.00116226
0.0011619
0.00116155
0.0011612
0.00116085
0.00116052
0.00116018
0.00115985
0.00115953
0.00115921
0.00115889
0.00115858
0.00115827
0.00115797
0.00115766
0.00115737
0.00116994
0.00116938
0.00116884
0.00116833
0.00116782
0.00116733
0.00116685
0.00116639
0.00116593
0.00116548
0.00116503
0.00116459
0.00116416
0.00116373
0.00116331
0.00116288
0.00116246
0.00116204
0.00116161
0.00116119
0.00116076
0.00116033
0.0011599
0.00115946
0.00115902
0.00115858
0.00115814
0.00115769
0.00115724
0.00115678
0.00115632
0.00115586
0.0011554
0.00116994
0.00116939
0.00116886
0.00116835
0.00116784
0.00116733
0.00116683
0.00116632
0.00116581
0.00116528
0.00116473
0.00116417
0.00116358
0.00116297
0.00116233
0.00116166
0.00116097
0.00116024
0.00115949
0.00115871
0.0011579
0.00115707
0.00115621
0.00115532
0.00115442
0.00115349
0.00115255
0.00115159
0.00115061
0.00114962
0.00114862
0.00114761
0.00114659
0.00116995
0.0011694
0.00116886
0.00116828
0.00116765
0.00116694
0.00116613
0.00116519
0.00116414
0.00116295
0.00116163
0.00116018
0.0011586
0.0011569
0.00115508
0.00115316
0.00115113
0.00114902
0.00114683
0.00114457
0.00114224
0.00113986
0.00113744
0.00113497
0.00113248
0.00112997
0.00112744
0.0011249
0.00112235
0.00111981
0.00111726
0.00111473
0.00111221
0.00116996
0.00116916
0.00116786
0.00116595
0.00116344
0.00116031
0.00115658
0.00115229
0.0011475
0.00114226
0.00113663
0.00113069
0.00112449
0.00111809
0.00111153
0.00110488
0.00109816
0.00109141
0.00108466
0.00107793
0.00107126
0.00106465
0.00105812
0.00105168
0.00104535
0.00103913
0.00103303
0.00102706
0.00102121
0.00101549
0.0010099
0.00100444
0.000999112
0.00116831
0.00115866
0.00114501
0.00112846
0.00110973
0.00108952
0.00106849
0.00104716
0.0010259
0.00100499
0.00098461
0.000964886
0.000945888
0.000927651
0.000910189
0.000893497
0.000877559
0.000862351
0.000847846
0.000834012
0.000820818
0.000808233
0.000796223
0.000784759
0.00077381
0.000763349
0.000753349
0.000743785
0.000734632
0.000725868
0.000717471
0.000709423
0.000701701
0.00107567
0.000936194
0.000835601
0.000756857
0.000692039
0.000638269
0.000593343
0.000555432
0.000523098
0.000495235
0.000470997
0.00044973
0.000430928
0.000414193
0.000399208
0.000385719
0.000373519
0.00036244
0.000352338
0.000343098
0.000334619
0.000326816
0.000319618
0.000312961
0.000306791
0.000301062
0.000295731
0.000290762
0.000286124
0.000281786
0.000277725
0.000273916
0.000270339
0.000142979
0.000146644
0.000150174
0.000153551
0.000156773
0.000159846
0.000162775
0.000165566
0.000168224
0.000170754
0.00017316
0.000175448
0.000177623
0.000179689
0.00018165
0.000183513
0.00018528
0.000186956
0.000188546
0.000190054
0.000191483
0.000192837
0.00019412
0.000195336
0.000196488
0.000197578
0.000198611
0.000199589
0.000200515
0.000201391
0.00020222
0.000203005
0.000203748
9.08806e-05
0.000110805
0.000136839
0.000169678
0.000208297
0.000250312
0.000293025
0.000334269
0.000372935
0.000408997
0.000443145
0.000476302
0.000509236
0.000542332
0.000575628
0.000608988
0.00064232
0.000675701
0.000709394
0.000743776
0.000779236
0.000816091
0.000854546
0.000894696
0.000936547
0.000980041
0.00102507
0.0010715
0.00111915
0.00116781
0.00121724
0.00126716
0.0013173
0.00136736
0.00141703
0.00146599
0.00151391
0.00156041
0.00160506
0.00164736
0.00168669
0.00172236
0.00175351
0.00177919
0.0017983
0.00180963
0.00181192
0.00180384
0.00178408
0.00175147
0.00170501
0.00164412
0.00156879
0.00148002
0.00138025
0.00127415
0.00116954
0.00107812
0.00101502
0.000994859
0.00102334
0.00108944
0.00116986
0.00124457
0.00130572
0.00135428
0.00139384
0.0014275
0.0014572
0.00148404
0.00150863
0.00153136
0.00155257
0.00157255
0.00159161
0.00161006
0.00162822
0.00164637
0.00166474
0.00168352
0.00170279
0.00172252
0.00174258
0.00176277
0.00178279
0.00180235
0.00182115
0.0018389
0.00185539
0.00187042
0.00188388
0.0018957
0.00190589
0.00191449
0.00192158
0.00192729
0.00193172
0.00193512
0.00193724
0.00193946
7.64038e-05
7.85931e-05
8.2128e-05
8.78759e-05
9.68535e-05
0.000110089
0.000128448
0.000152394
0.000181805
0.000215902
0.000253344
0.00029246
0.000331603
0.000369492
0.000405439
0.000439374
0.000471689
0.000502991
0.000533886
0.000564831
0.000596108
0.000627861
0.00066017
0.000693111
0.000726781
0.00076129
0.00079674
0.0008332
0.000870678
0.000909125
0.000948429
0.00098843
0.00102893
0.0010697
0.00111049
0.00115103
0.00119103
0.00123014
0.00126799
0.00130409
0.00133791
0.00136878
0.00139592
0.00141845
0.00143537
0.00144558
0.00144794
0.00144131
0.00142466
0.00139713
0.00135824
0.00130811
0.00124776
0.00117963
0.00110807
0.00104005
0.000985321
0.000955451
0.000960129
0.00100101
0.00106778
0.00114299
0.00121247
0.00127052
0.00131769
0.00135673
0.00139026
0.00142003
0.00144707
0.00147191
0.00149489
0.00151626
0.00153622
0.00155503
0.00157296
0.00159026
0.00160723
0.00162414
0.00164123
0.0016587
0.00167668
0.00169521
0.00171423
0.00173359
0.00175307
0.0017724
0.00179128
0.00180942
0.00182657
0.00184249
0.00185704
0.00187009
0.0018816
0.0018916
0.00190012
0.00190726
0.00191309
0.00191787
0.00192123
0.00192517
0.000126959
0.000124778
0.000122521
0.000119995
0.000117434
0.00011522
0.000113606
0.000113077
0.000114359
0.000118341
0.000125903
0.000137739
0.00015422
0.000175307
0.000200535
0.000229065
0.000259825
0.000291694
0.000323695
0.000355129
0.000385635
0.000415157
0.000443867
0.000472052
0.000500033
0.000528097
0.00055647
0.00058531
0.000614712
0.00064472
0.000675337
0.000706528
0.000738226
0.000770334
0.00080272
0.000835218
0.000867623
0.000899681
0.000931083
0.000961447
0.000990307
0.00101711
0.00104119
0.0010618
0.00107811
0.00108924
0.00109432
0.00109257
0.0010834
0.0010666
0.0010425
0.00101231
0.000978419
0.000944784
0.000917115
0.000902567
0.000908286
0.000938469
0.000991086
0.0010574
0.00112607
0.00118861
0.0012417
0.00128586
0.00132318
0.00135572
0.00138494
0.00141172
0.00143653
0.0014596
0.0014811
0.00150116
0.00151996
0.00153767
0.00155452
0.00157075
0.00158661
0.00160234
0.0016182
0.00163438
0.00165105
0.0016683
0.00168614
0.00170449
0.00172319
0.00174201
0.00176068
0.00177891
0.00179644
0.00181302
0.00182842
0.00184252
0.00185522
0.0018665
0.00187637
0.00188488
0.00189209
0.00189821
0.00190281
0.0019085
0.000296444
0.000290261
0.000284002
0.000277534
0.000270764
0.000263633
0.000256161
0.000248133
0.000239441
0.000230022
0.000220077
0.000210095
0.000200822
0.000193141
0.000187904
0.000185787
0.00018721
0.000192317
0.000200999
0.000212944
0.000227692
0.000244707
0.000263443
0.000283402
0.000304179
0.000325481
0.000347134
0.000369061
0.000391265
0.000413792
0.00043671
0.000460081
0.000483954
0.000508346
0.000533242
0.000558592
0.000584301
0.000610234
0.000636198
0.000661946
0.000687164
0.000711467
0.000734406
0.00075548
0.000774158
0.000789931
0.000802378
0.000811264
0.000816672
0.000819158
0.000819936
0.000821041
0.000825394
0.00083662
0.000858401
0.000893272
0.000941186
0.00099879
0.00106033
0.00111992
0.00117358
0.00121996
0.00125963
0.00129405
0.0013247
0.00135268
0.00137866
0.00140299
0.00142585
0.0014473
0.0014674
0.00148623
0.00150391
0.00152058
0.00153642
0.00155165
0.00156647
0.00158111
0.00159579
0.00161073
0.00162611
0.00164206
0.00165863
0.00167583
0.00169353
0.00171159
0.00172977
0.0017478
0.00176542
0.00178236
0.00179838
0.0018133
0.001827
0.00183941
0.00185049
0.00186028
0.00186879
0.00187623
0.00188203
0.00188945
0.000498549
0.000490345
0.000482367
0.00047454
0.00046678
0.000458994
0.000451089
0.000442958
0.000434485
0.000425504
0.000415848
0.000405372
0.000393996
0.000381754
0.000368831
0.000355568
0.000342434
0.000329977
0.000318754
0.000309256
0.000301862
0.000296811
0.000294208
0.000294039
0.000296203
0.00030054
0.000306859
0.000314965
0.000324672
0.000335822
0.000348283
0.000361956
0.000376766
0.00039266
0.000409596
0.000427536
0.000446439
0.000466249
0.000486895
0.00050828
0.000530283
0.000552757
0.00057554
0.000598466
0.000621391
0.000644236
0.000667035
0.000689999
0.000713583
0.000738531
0.000765869
0.000796807
0.000832496
0.000873654
0.000920139
0.000970687
0.00102304
0.00107449
0.0011227
0.00116627
0.00120487
0.00123902
0.00126964
0.00129764
0.00132373
0.00134837
0.00137177
0.00139403
0.00141513
0.00143507
0.00145386
0.00147151
0.00148813
0.00150381
0.00151871
0.00153299
0.00154684
0.00156047
0.00157407
0.00158784
0.00160198
0.00161663
0.00163191
0.00164784
0.00166441
0.00168149
0.00169892
0.00171646
0.00173387
0.00175087
0.00176723
0.00178272
0.00179719
0.00181053
0.00182267
0.00183361
0.00184332
0.00185199
0.00185895
0.00186808
0.000687
0.000677915
0.000669122
0.000660597
0.000652289
0.000644134
0.000636087
0.000628088
0.000620088
0.000612039
0.000603892
0.000595592
0.000587079
0.000578299
0.000569217
0.000559823
0.000550149
0.000540278
0.000530347
0.000520543
0.000511091
0.000502234
0.000494218
0.000487271
0.00048159
0.000477332
0.000474614
0.00047351
0.000474057
0.000476258
0.000480093
0.000485522
0.000492495
0.000500959
0.000510857
0.00052214
0.000534763
0.000548689
0.00056389
0.000580352
0.000598071
0.000617061
0.000637351
0.000658994
0.000682064
0.000706667
0.000732939
0.000761046
0.000791172
0.000823489
0.000858101
0.000894963
0.000933799
0.000974039
0.00101482
0.00105512
0.00109389
0.00113032
0.00116399
0.00119488
0.00122329
0.00124969
0.00127457
0.00129831
0.00132116
0.00134322
0.00136449
0.00138492
0.00140443
0.00142298
0.00144052
0.00145706
0.00147266
0.00148741
0.00150141
0.00151482
0.00152778
0.00154046
0.00155306
0.00156575
0.00157872
0.00159213
0.00160611
0.00162075
0.00163606
0.00165201
0.00166847
0.00168527
0.00170218
0.00171895
0.00173533
0.00175111
0.00176609
0.00178013
0.00179314
0.00180506
0.00181583
0.00182563
0.00183365
0.00184442
0.000844089
0.00083524
0.000826602
0.000818172
0.000809935
0.000801859
0.000793934
0.000786137
0.000778454
0.000770876
0.000763407
0.000756054
0.000748825
0.000741732
0.000734783
0.000727987
0.000721352
0.000714896
0.000708642
0.000702632
0.000696922
0.000691585
0.000686711
0.000682401
0.000678761
0.000675898
0.000673914
0.000672903
0.000672945
0.000674106
0.00067643
0.000679949
0.000684673
0.0006906
0.000697719
0.000706011
0.000715452
0.00072602
0.000737698
0.000750475
0.000764355
0.000779355
0.00079551
0.000812871
0.000831498
0.000851458
0.000872807
0.00089558
0.000919768
0.000945299
0.000972019
0.000999678
0.00102794
0.00105637
0.00108455
0.00111205
0.00113856
0.00116392
0.00118811
0.00121125
0.00123354
0.00125518
0.00127633
0.0012971
0.00131749
0.00133746
0.00135691
0.00137572
0.00139379
0.00141105
0.00142742
0.00144292
0.00145757
0.00147142
0.00148458
0.00149716
0.00150929
0.00152112
0.00153279
0.00154449
0.00155637
0.0015686
0.00158133
0.00159467
0.0016087
0.00162341
0.00163874
0.00165457
0.00167071
0.00168696
0.00170308
0.00171885
0.00173405
0.00174854
0.00176217
0.00177486
0.00178653
0.00179731
0.00180628
0.00181859
0.000963334
0.000955651
0.000948057
0.000940564
0.000933175
0.000925889
0.000918704
0.000911616
0.000904629
0.000897752
0.000891002
0.000884403
0.000877984
0.000871778
0.00086582
0.000860142
0.000854778
0.000849755
0.000845101
0.00084084
0.000837001
0.000833612
0.000830704
0.000828317
0.000826488
0.000825262
0.000824682
0.000824791
0.000825632
0.000827241
0.000829648
0.000832877
0.000836941
0.000841846
0.000847593
0.000854174
0.000861579
0.000869796
0.00087881
0.000888611
0.000899192
0.000910552
0.000922697
0.000935638
0.000949393
0.000963976
0.000979394
0.000995641
0.00101268
0.00103046
0.00104887
0.00106778
0.00108703
0.00110645
0.00112587
0.00114518
0.00116429
0.00118318
0.00120189
0.00122048
0.00123902
0.00125755
0.0012761
0.00129463
0.00131305
0.00133126
0.00134911
0.00136649
0.00138325
0.00139931
0.00141462
0.00142913
0.00144288
0.0014559
0.00146827
0.00148007
0.00149143
0.00150245
0.00151328
0.00152406
0.00153495
0.00154609
0.00155764
0.00156973
0.00158246
0.00159588
0.00160997
0.00162467
0.00163984
0.00165532
0.00167089
0.00168634
0.00170148
0.00171612
0.00173011
0.00174334
0.00175569
0.00176727
0.00177703
0.00179073
0.00104612
0.00104014
0.00103415
0.00102816
0.00102218
0.00101622
0.00101029
0.00100438
0.000998527
0.000992729
0.00098701
0.000981396
0.000975917
0.000970606
0.000965501
0.000960637
0.000956052
0.000951782
0.000947858
0.000944311
0.000941167
0.000938452
0.000936186
0.000934392
0.000933089
0.000932295
0.000932029
0.000932307
0.000933144
0.000934554
0.000936547
0.00093913
0.000942306
0.000946073
0.000950429
0.000955367
0.000960877
0.00096695
0.000973575
0.000980744
0.000988449
0.000996684
0.00100545
0.00101474
0.00102457
0.00103494
0.00104585
0.0010573
0.00106926
0.00108172
0.00109465
0.00110799
0.0011217
0.00113574
0.00115005
0.00116463
0.00117947
0.00119457
0.00120996
0.00122565
0.00124167
0.00125798
0.00127454
0.00129126
0.00130803
0.00132471
0.00134117
0.00135725
0.00137283
0.00138781
0.00140212
0.00141573
0.00142863
0.00144087
0.00145249
0.00146357
0.0014742
0.00148449
0.00149454
0.00150449
0.00151446
0.0015246
0.00153506
0.00154597
0.00155744
0.00156957
0.00158237
0.00159583
0.00160987
0.00162436
0.00163914
0.001654
0.00166878
0.00168328
0.00169735
0.00171085
0.00172363
0.00173579
0.00174617
0.00176105
0.00109866
0.00109445
0.00109018
0.00108584
0.00108145
0.00107701
0.00107255
0.00106806
0.00106356
0.00105907
0.00105459
0.00105016
0.0010458
0.00104154
0.00103741
0.00103343
0.00102964
0.00102608
0.00102277
0.00101974
0.00101703
0.00101465
0.00101262
0.00101097
0.00100971
0.00100885
0.00100841
0.0010084
0.00100882
0.00100967
0.00101096
0.00101269
0.00101486
0.00101746
0.00102048
0.00102392
0.00102777
0.00103202
0.00103666
0.00104169
0.00104711
0.0010529
0.00105907
0.00106563
0.00107258
0.00107993
0.00108769
0.00109586
0.00110445
0.00111348
0.00112293
0.00113282
0.00114314
0.0011539
0.00116511
0.00117678
0.00118892
0.00120156
0.00121471
0.00122836
0.00124249
0.00125706
0.001272
0.00128721
0.00130256
0.00131791
0.00133313
0.00134805
0.00136256
0.00137656
0.00138996
0.00140273
0.00141486
0.00142636
0.00143728
0.00144768
0.00145764
0.00146724
0.00147657
0.00148576
0.0014949
0.00150413
0.00151359
0.0015234
0.0015337
0.00154457
0.00155608
0.00156826
0.00158106
0.00159441
0.00160818
0.00162223
0.00163637
0.00165045
0.00166431
0.00167779
0.00169073
0.00170324
0.00171401
0.00172981
0.00112906
0.00112635
0.00112356
0.00112069
0.00111774
0.00111472
0.00111164
0.0011085
0.00110533
0.00110211
0.00109889
0.00109566
0.00109244
0.00108927
0.00108615
0.00108312
0.00108019
0.0010774
0.00107477
0.00107232
0.00107008
0.00106806
0.00106629
0.00106479
0.00106357
0.00106264
0.00106202
0.00106171
0.00106172
0.00106205
0.00106271
0.00106369
0.00106499
0.00106662
0.00106856
0.0010708
0.00107335
0.0010762
0.00107934
0.00108277
0.00108649
0.0010905
0.0010948
0.00109941
0.00110433
0.00110958
0.00111518
0.00112114
0.00112748
0.00113423
0.00114141
0.00114905
0.00115716
0.00116578
0.00117493
0.00118463
0.00119492
0.0012058
0.00121728
0.00122936
0.001242
0.00125515
0.00126873
0.00128264
0.00129676
0.00131094
0.00132505
0.00133894
0.00135249
0.00136558
0.00137815
0.00139015
0.00140155
0.00141238
0.00142265
0.00143241
0.00144174
0.0014507
0.00145938
0.00146787
0.00147626
0.00148467
0.00149322
0.00150203
0.00151123
0.00152092
0.00153119
0.00154208
0.0015536
0.00156572
0.00157834
0.00159137
0.00160465
0.00161805
0.00163142
0.0016446
0.00165743
0.00167
0.00168094
0.00169734
0.00114504
0.00114342
0.00114172
0.00113995
0.0011381
0.00113619
0.00113421
0.00113218
0.00113009
0.00112796
0.00112579
0.0011236
0.0011214
0.0011192
0.00111701
0.00111486
0.00111276
0.00111073
0.00110879
0.00110695
0.00110523
0.00110365
0.00110223
0.00110098
0.00109991
0.00109904
0.00109838
0.00109794
0.00109772
0.00109772
0.00109796
0.00109844
0.00109915
0.00110009
0.00110126
0.00110267
0.0011043
0.00110616
0.00110824
0.00111054
0.00111308
0.00111585
0.00111886
0.00112212
0.00112565
0.00112947
0.0011336
0.00113807
0.0011429
0.00114812
0.00115377
0.00115988
0.00116648
0.00117361
0.00118131
0.0011896
0.00119852
0.00120807
0.00121826
0.00122908
0.00124051
0.00125247
0.0012649
0.00127769
0.00129073
0.00130388
0.001317
0.00132996
0.00134263
0.00135491
0.00136672
0.001378
0.00138874
0.00139893
0.00140859
0.00141777
0.00142651
0.00143488
0.00144295
0.0014508
0.00145851
0.00146617
0.0014739
0.00148181
0.00149001
0.00149862
0.00150771
0.00151737
0.00152762
0.00153846
0.00154986
0.00156173
0.00157398
0.00158648
0.00159911
0.00161173
0.00162417
0.00163653
0.00164738
0.00166403
0.00115265
0.0011517
0.00115069
0.00114964
0.00114853
0.00114737
0.00114616
0.0011449
0.00114359
0.00114225
0.00114087
0.00113947
0.00113804
0.00113661
0.00113517
0.00113374
0.00113233
0.00113095
0.00112961
0.00112832
0.00112711
0.00112597
0.00112492
0.00112398
0.00112315
0.00112245
0.00112188
0.00112145
0.00112118
0.00112105
0.00112109
0.00112129
0.00112165
0.00112219
0.00112289
0.00112376
0.00112481
0.00112602
0.00112742
0.00112899
0.00113074
0.00113269
0.00113484
0.00113721
0.00113982
0.00114269
0.00114584
0.0011493
0.00115311
0.00115729
0.0011619
0.00116695
0.0011725
0.00117857
0.00118522
0.00119247
0.00120034
0.00120886
0.00121803
0.00122783
0.00123824
0.0012492
0.00126064
0.00127246
0.00128455
0.00129678
0.00130902
0.00132114
0.00133302
0.00134455
0.00135566
0.00136629
0.00137641
0.00138601
0.00139511
0.00140374
0.00141194
0.00141976
0.00142727
0.00143453
0.00144161
0.00144861
0.00145561
0.00146271
0.00147001
0.00147762
0.00148564
0.00149414
0.00150318
0.00151277
0.00152291
0.00153355