/*--------------------------------*- C++ -*----------------------------------*\
| =========                 |                                                 |
| \\      /  F ield         | OpenFOAM: The Open Source CFD Toolbox           |
|  \\    /   O peration     | Version:  2.1.1                                 |
|   \\  /    A nd           | Web:      www.OpenFOAM.org                      |
|    \\/     M anipulation  |                                                 |
\*---------------------------------------------------------------------------*/
FoamFile
{
    version     2.0;
    format      ascii;
    class       volScalarField;
    location    "0.105";
    object      p;
}
// * * * * * * * * * * * * * * * * * * * * * * * * * * * * * * * * * * * * * //

dimensions      [0 2 -2 0 0 0 0];

internalField   nonuniform List<scalar> 
6820
(
-11.1543
-13.0007
-13.5759
-13.7042
-13.8117
-13.8916
-13.9468
-13.9941
-14.0376
-14.0777
-14.1153
-14.151
-14.1852
-14.218
-14.2495
-14.2799
-14.3094
-14.3379
-14.3658
-14.3929
-14.4196
-14.4458
-14.4716
-14.4971
-14.5223
-14.5471
-14.5712
-14.5945
-14.616
-14.6346
-14.6467
-14.6449
-14.6206
-15.1068
-14.5722
-14.15
-13.9604
-13.9363
-13.9482
-13.9692
-13.998
-14.0312
-14.0657
-14.1004
-14.135
-14.1688
-14.2019
-14.234
-14.2651
-14.2954
-14.3248
-14.3534
-14.3813
-14.4087
-14.4356
-14.4621
-14.4882
-14.514
-14.5395
-14.5647
-14.5896
-14.6139
-14.6394
-14.6644
-14.7134
-14.7761
-13.4642
-13.1605
-13.4474
-13.6928
-13.7984
-13.8744
-13.9342
-13.9844
-14.0294
-14.0706
-14.109
-14.1451
-14.1794
-14.2122
-14.2436
-14.2739
-14.3032
-14.3316
-14.3593
-14.3864
-14.413
-14.4391
-14.465
-14.4906
-14.516
-14.5413
-14.5665
-14.5918
-14.6172
-14.644
-14.6726
-14.7096
-14.7495
-13.9711
-14.0056
-14.0032
-13.9443
-13.9371
-13.9582
-13.9853
-14.015
-14.0468
-14.0793
-14.1117
-14.1437
-14.1752
-14.2061
-14.2363
-14.2658
-14.2946
-14.3228
-14.3505
-14.3776
-14.4044
-14.4308
-14.4569
-14.4829
-14.5087
-14.5346
-14.5605
-14.5869
-14.614
-14.6432
-14.6749
-14.7166
-14.7644
-13.8157
-13.7157
-13.7601
-13.8266
-13.8801
-13.9273
-13.9687
-14.007
-14.0438
-14.0792
-14.1134
-14.1465
-14.1785
-14.2096
-14.2397
-14.269
-14.2975
-14.3254
-14.3527
-14.3794
-14.4058
-14.4319
-14.4577
-14.4834
-14.5091
-14.5349
-14.561
-14.5877
-14.6154
-14.6451
-14.6776
-14.7163
-14.759
-13.8707
-13.8542
-13.8796
-13.903
-13.9259
-13.9558
-13.988
-14.0205
-14.0533
-14.0857
-14.1177
-14.1489
-14.1795
-14.2094
-14.2386
-14.2672
-14.2951
-14.3225
-14.3494
-14.3759
-14.402
-14.4279
-14.4537
-14.4794
-14.5051
-14.531
-14.5573
-14.5844
-14.6125
-14.6426
-14.675
-14.7118
-14.7516
-13.8687
-13.8477
-13.8638
-13.893
-13.9236
-13.9571
-13.9907
-14.0236
-14.0561
-14.0881
-14.1196
-14.1503
-14.1804
-14.2099
-14.2387
-14.2668
-14.2944
-14.3214
-14.348
-14.3742
-14.4001
-14.4258
-14.4514
-14.4769
-14.5026
-14.5285
-14.5548
-14.5818
-14.6099
-14.6396
-14.6712
-14.7056
-14.7419
-13.8827
-13.8751
-13.8907
-13.9156
-13.9413
-13.97
-14.0003
-14.0309
-14.0616
-14.0922
-14.1224
-14.1521
-14.1813
-14.21
-14.2381
-14.2657
-14.2927
-14.3193
-14.3455
-14.3714
-14.397
-14.4224
-14.4477
-14.4731
-14.4986
-14.5243
-14.5505
-14.5773
-14.6051
-14.6341
-14.6647
-14.697
-14.7304
-13.8955
-13.8917
-13.9041
-13.926
-13.9504
-13.9778
-14.0068
-14.0362
-14.0658
-14.0954
-14.1246
-14.1535
-14.182
-14.21
-14.2374
-14.2645
-14.291
-14.3172
-14.343
-14.3685
-14.3938
-14.4189
-14.444
-14.469
-14.4942
-14.5197
-14.5456
-14.572
-14.5993
-14.6275
-14.6568
-14.6871
-14.718
-13.9089
-13.9083
-13.9198
-13.9397
-13.9623
-13.9876
-14.0146
-14.0424
-14.0706
-14.0989
-14.1271
-14.155
-14.1826
-14.2099
-14.2367
-14.2631
-14.2891
-14.3148
-14.3401
-14.3652
-14.3901
-14.4149
-14.4396
-14.4643
-14.4892
-14.5143
-14.5397
-14.5656
-14.5922
-14.6194
-14.6474
-14.6759
-14.7047
-13.9221
-13.9232
-13.9338
-13.9516
-13.9726
-13.9962
-14.0217
-14.0481
-14.075
-14.1022
-14.1294
-14.1564
-14.1832
-14.2097
-14.2358
-14.2616
-14.287
-14.3122
-14.3371
-14.3617
-14.3862
-14.4105
-14.4348
-14.4591
-14.4835
-14.5082
-14.5331
-14.5583
-14.5841
-14.6103
-14.6369
-14.6639
-14.6908
-13.9351
-13.9372
-13.9471
-13.9634
-13.9828
-14.0049
-14.0288
-14.0539
-14.0795
-14.1055
-14.1317
-14.1577
-14.1837
-14.2094
-14.2348
-14.26
-14.2848
-14.3094
-14.3338
-14.3579
-14.3819
-14.4058
-14.4296
-14.4534
-14.4773
-14.5014
-14.5257
-14.5502
-14.575
-14.6002
-14.6256
-14.651
-14.6764
-13.9476
-13.9501
-13.9596
-13.9744
-13.9925
-14.0131
-14.0356
-14.0593
-14.0838
-14.1087
-14.1338
-14.159
-14.1841
-14.209
-14.2337
-14.2582
-14.2824
-14.3064
-14.3302
-14.3538
-14.3773
-14.4006
-14.4239
-14.4472
-14.4706
-14.494
-14.5175
-14.5413
-14.5652
-14.5892
-14.6134
-14.6375
-14.6615
-13.9596
-13.9623
-13.9712
-13.9849
-14.0017
-14.021
-14.0422
-14.0647
-14.0879
-14.1118
-14.1359
-14.1601
-14.1843
-14.2085
-14.2324
-14.2562
-14.2798
-14.3032
-14.3264
-14.3495
-14.3724
-14.3951
-14.4179
-14.4405
-14.4632
-14.486
-14.5087
-14.5316
-14.5546
-14.5776
-14.6005
-14.6234
-14.646
-13.9709
-13.9736
-13.982
-13.9947
-14.0104
-14.0285
-14.0484
-14.0697
-14.0919
-14.1146
-14.1378
-14.1611
-14.1845
-14.2078
-14.231
-14.2541
-14.2771
-14.2998
-14.3224
-14.3448
-14.3671
-14.3893
-14.4114
-14.4334
-14.4554
-14.4773
-14.4993
-14.5213
-14.5433
-14.5652
-14.587
-14.6087
-14.6301
-13.9815
-13.9841
-13.992
-14.0039
-14.0185
-14.0355
-14.0543
-14.0744
-14.0955
-14.1173
-14.1394
-14.1619
-14.1844
-14.2069
-14.2294
-14.2518
-14.274
-14.2961
-14.3181
-14.3399
-14.3615
-14.383
-14.4044
-14.4257
-14.447
-14.4682
-14.4893
-14.5104
-14.5313
-14.5522
-14.5729
-14.5934
-14.6136
-13.9913
-13.9938
-14.0013
-14.0124
-14.026
-14.042
-14.0597
-14.0788
-14.0989
-14.1196
-14.1409
-14.1624
-14.1841
-14.2059
-14.2276
-14.2492
-14.2708
-14.2922
-14.3135
-14.3346
-14.3555
-14.3764
-14.397
-14.4176
-14.4381
-14.4584
-14.4787
-14.4988
-14.5188
-14.5386
-14.5582
-14.5775
-14.5965
-14.0004
-14.0028
-14.0098
-14.0202
-14.033
-14.048
-14.0647
-14.0828
-14.1019
-14.1217
-14.1421
-14.1627
-14.1836
-14.2046
-14.2255
-14.2464
-14.2673
-14.288
-14.3085
-14.3289
-14.3492
-14.3693
-14.3893
-14.4091
-14.4287
-14.4482
-14.4676
-14.4867
-14.5057
-14.5244
-14.5429
-14.5611
-14.579
-14.0087
-14.011
-14.0176
-14.0273
-14.0393
-14.0534
-14.0692
-14.0864
-14.1046
-14.1235
-14.1429
-14.1628
-14.1828
-14.203
-14.2232
-14.2434
-14.2635
-14.2835
-14.3033
-14.323
-14.3425
-14.3619
-14.381
-14.4
-14.4189
-14.4375
-14.4559
-14.4741
-14.4921
-14.5098
-14.5272
-14.5442
-14.561
-14.0162
-14.0183
-14.0245
-14.0336
-14.0449
-14.0583
-14.0732
-14.0895
-14.1068
-14.1249
-14.1435
-14.1625
-14.1817
-14.2011
-14.2206
-14.24
-14.2594
-14.2786
-14.2977
-14.3167
-14.3355
-14.354
-14.3724
-14.3906
-14.4086
-14.4263
-14.4438
-14.461
-14.4779
-14.4946
-14.5109
-14.5269
-14.5425
-14.0228
-14.0248
-14.0307
-14.0393
-14.0499
-14.0625
-14.0767
-14.0921
-14.1086
-14.1258
-14.1436
-14.1618
-14.1803
-14.199
-14.2177
-14.2364
-14.255
-14.2735
-14.2919
-14.3101
-14.3281
-14.3459
-14.3634
-14.3808
-14.3978
-14.4147
-14.4312
-14.4474
-14.4634
-14.4789
-14.4942
-14.509
-14.5235
-14.0286
-14.0305
-14.036
-14.0441
-14.0542
-14.0661
-14.0795
-14.0942
-14.1099
-14.1263
-14.1434
-14.1608
-14.1786
-14.1965
-14.2144
-14.2324
-14.2503
-14.268
-14.2857
-14.3031
-14.3203
-14.3373
-14.3541
-14.3705
-14.3867
-14.4026
-14.4182
-14.4335
-14.4484
-14.4629
-14.4771
-14.4908
-14.5042
-14.0335
-14.0353
-14.0405
-14.0482
-14.0577
-14.0689
-14.0817
-14.0957
-14.1107
-14.1264
-14.1427
-14.1595
-14.1765
-14.1936
-14.2109
-14.2281
-14.2453
-14.2623
-14.2792
-14.2958
-14.3123
-14.3285
-14.3444
-14.36
-14.3753
-14.3903
-14.4049
-14.4191
-14.433
-14.4465
-14.4596
-14.4723
-14.4845
-14.0376
-14.0393
-14.0442
-14.0514
-14.0604
-14.0711
-14.0832
-14.0966
-14.1109
-14.1259
-14.1415
-14.1576
-14.1739
-14.1903
-14.2069
-14.2234
-14.2399
-14.2562
-14.2723
-14.2882
-14.3039
-14.3192
-14.3343
-14.3491
-14.3635
-14.3775
-14.3912
-14.4045
-14.4174
-14.4298
-14.4418
-14.4534
-14.4645
-14.0407
-14.0423
-14.0469
-14.0538
-14.0623
-14.0725
-14.0842
-14.0969
-14.1106
-14.125
-14.14
-14.1554
-14.171
-14.1869
-14.2027
-14.2185
-14.2343
-14.2499
-14.2653
-14.2804
-14.2953
-14.3098
-14.3241
-14.338
-14.3515
-14.3646
-14.3774
-14.3897
-14.4015
-14.413
-14.4239
-14.4344
-14.4444
-14.0428
-14.0444
-14.0487
-14.0552
-14.0633
-14.073
-14.0841
-14.0963
-14.1094
-14.1232
-14.1376
-14.1524
-14.1675
-14.1826
-14.1978
-14.213
-14.2281
-14.243
-14.2577
-14.2721
-14.2862
-14.3
-14.3134
-14.3265
-14.3391
-14.3514
-14.3632
-14.3745
-14.3854
-14.3958
-14.4057
-14.4152
-14.4241
-14.044
-14.0455
-14.0497
-14.056
-14.0637
-14.0731
-14.0838
-14.0956
-14.1082
-14.1216
-14.1354
-14.1496
-14.1641
-14.1787
-14.1932
-14.2078
-14.2222
-14.2364
-14.2503
-14.264
-14.2773
-14.2903
-14.3029
-14.3151
-14.3269
-14.3382
-14.3491
-14.3595
-14.3694
-14.3788
-14.3877
-14.3961
-14.404
-14.0442
-14.0455
-14.0493
-14.055
-14.0623
-14.0712
-14.0814
-14.0927
-14.1049
-14.1178
-14.1312
-14.145
-14.159
-14.1731
-14.1871
-14.2011
-14.2149
-14.2285
-14.2419
-14.2549
-14.2676
-14.2798
-14.2917
-14.3031
-14.3141
-14.3246
-14.3346
-14.3441
-14.3531
-14.3615
-14.3695
-14.3768
-14.3837
-14.0435
-14.0449
-14.0489
-14.0547
-14.0621
-14.0709
-14.0809
-14.0919
-14.1038
-14.1162
-14.1292
-14.1424
-14.1558
-14.1693
-14.1828
-14.1961
-14.2092
-14.2221
-14.2347
-14.247
-14.2589
-14.2704
-14.2814
-14.292
-14.3021
-14.3117
-14.3208
-14.3294
-14.3374
-14.3449
-14.3518
-14.3582
-14.364
-14.0412
-14.0418
-14.0445
-14.0493
-14.0558
-14.0641
-14.0737
-14.0846
-14.0963
-14.1087
-14.1215
-14.1346
-14.1479
-14.1612
-14.1744
-14.1875
-14.2003
-14.2128
-14.225
-14.2367
-14.2481
-14.259
-14.2695
-14.2794
-14.2888
-14.2977
-14.3061
-14.3139
-14.3211
-14.3277
-14.3338
-14.3393
-14.3442
-14.0395
-14.0419
-14.0462
-14.052
-14.059
-14.0673
-14.0768
-14.0872
-14.0983
-14.11
-14.1222
-14.1345
-14.147
-14.1595
-14.1719
-14.1841
-14.1961
-14.2078
-14.2191
-14.2301
-14.2406
-14.2507
-14.2602
-14.2693
-14.2778
-14.2858
-14.2933
-14.3001
-14.3064
-14.3121
-14.3172
-14.3217
-14.3257
-14.0315
-14.0294
-14.0295
-14.0329
-14.0391
-14.0476
-14.0577
-14.069
-14.0812
-14.0939
-14.107
-14.1201
-14.1333
-14.1463
-14.1592
-14.1717
-14.1839
-14.1957
-14.207
-14.2178
-14.2282
-14.238
-14.2472
-14.2559
-14.264
-14.2715
-14.2784
-14.2847
-14.2903
-14.2954
-14.2998
-14.3036
-14.3068
-14.0377
-14.0441
-14.0496
-14.0543
-14.0598
-14.0667
-14.075
-14.0843
-14.0944
-14.105
-14.1161
-14.1275
-14.139
-14.1504
-14.1617
-14.1728
-14.1837
-14.1942
-14.2043
-14.214
-14.2233
-14.232
-14.2402
-14.2479
-14.255
-14.2615
-14.2674
-14.2727
-14.2774
-14.2815
-14.285
-14.2878
-14.29
-14.006
-13.9926
-13.9876
-13.9922
-14.0017
-14.0136
-14.027
-14.0413
-14.056
-14.0708
-14.0855
-14.1
-14.1141
-14.1278
-14.141
-14.1536
-14.1657
-14.1773
-14.1882
-14.1986
-14.2082
-14.2173
-14.2257
-14.2334
-14.2405
-14.2469
-14.2526
-14.2577
-14.2621
-14.2658
-14.2688
-14.2712
-14.2729
-14.0586
-14.0787
-14.0825
-14.0774
-14.0749
-14.0767
-14.0813
-14.0877
-14.0953
-14.104
-14.1134
-14.1232
-14.1332
-14.1433
-14.1534
-14.1632
-14.1729
-14.1822
-14.1911
-14.1996
-14.2076
-14.2151
-14.222
-14.2284
-14.2342
-14.2394
-14.244
-14.248
-14.2513
-14.254
-14.256
-14.2574
-14.2582
-13.9357
-13.8863
-13.8744
-13.9005
-13.9276
-13.9511
-13.9741
-13.9964
-14.0175
-14.0373
-14.056
-14.0736
-14.0901
-14.1056
-14.1202
-14.1339
-14.1467
-14.1587
-14.1698
-14.1801
-14.1896
-14.1984
-14.2063
-14.2135
-14.22
-14.2256
-14.2306
-14.2347
-14.2382
-14.2409
-14.2429
-14.2441
-14.2447
-14.1832
-14.2179
-14.1866
-14.1434
-14.1142
-14.103
-14.0995
-14.0995
-14.1024
-14.1074
-14.1139
-14.1214
-14.1294
-14.1377
-14.1462
-14.1547
-14.163
-14.1711
-14.1788
-14.1861
-14.193
-14.1994
-14.2053
-14.2106
-14.2154
-14.2195
-14.223
-14.2259
-14.2282
-14.2298
-14.2308
-14.2312
-14.2309
-13.6909
-13.5711
-13.6333
-13.7347
-13.8081
-13.859
-13.9018
-13.9391
-13.9713
-13.9995
-14.0245
-14.0469
-14.0671
-14.0854
-14.1021
-14.1173
-14.1313
-14.1441
-14.1557
-14.1663
-14.176
-14.1847
-14.1925
-14.1994
-14.2055
-14.2107
-14.215
-14.2186
-14.2214
-14.2234
-14.2246
-14.2251
-14.2248
-14.9051
-14.566
-14.302
-14.1844
-14.134
-14.1081
-14.0923
-14.0852
-14.0844
-14.0873
-14.0926
-14.0995
-14.1073
-14.1157
-14.1244
-14.1331
-14.1416
-14.1499
-14.1578
-14.1654
-14.1724
-14.1789
-14.1848
-14.1901
-14.1948
-14.1989
-14.2023
-14.205
-14.2071
-14.2085
-14.2092
-14.2092
-14.2086
-12.4013
-13.1078
-13.512
-13.664
-13.7681
-13.8498
-13.9085
-13.9526
-13.988
-14.0172
-14.0417
-14.0628
-14.0813
-14.0978
-14.1127
-14.1261
-14.1384
-14.1495
-14.1597
-14.1689
-14.1772
-14.1846
-14.1913
-14.197
-14.202
-14.2062
-14.2096
-14.2123
-14.2141
-14.2153
-14.2156
-14.2153
-14.2142
-14.5152
-14.7328
-14.8873
-14.9684
-15.0115
-15.0396
-15.0696
-15.1151
-15.1843
-15.2775
-15.3921
-15.5238
-15.6655
-15.8119
-15.9568
-16.0945
-16.2207
-16.3318
-16.4253
-16.4996
-16.5539
-16.5881
-16.6022
-16.5968
-16.5723
-16.5291
-16.4675
-16.388
-16.2905
-16.1754
-16.0429
-15.8932
-15.7267
-15.5439
-15.3455
-15.132
-14.9043
-14.6633
-14.4098
-14.1448
-13.8689
-13.5828
-13.2869
-12.9812
-12.6657
-12.3398
-12.0027
-11.6531
-11.2896
-10.9105
-10.5136
-10.097
-9.65852
-9.1962
-8.70838
-8.19392
-7.65242
-7.08453
-6.49236
-5.87991
-5.25353
-4.62219
-3.99718
-3.39076
-2.81449
-2.27826
-1.79003
-1.35555
-0.977964
-0.657804
-0.393158
-0.18016
-0.0135917
0.1125
0.20427
0.267669
0.308171
0.330631
0.339224
0.33745
0.328176
0.313699
0.295818
0.27591
0.254999
0.233814
0.212869
0.192474
0.172849
0.154053
0.1362
0.119111
0.103071
0.0873445
0.0731708
0.0578474
0.0463378
0.0286847
0.0236326
-0.00492399
-15.1415
-15.2644
-15.1776
-15.0952
-15.0423
-15.003
-14.9949
-15.0161
-15.072
-15.1623
-15.2814
-15.4219
-15.5738
-15.7294
-15.8813
-16.0231
-16.1502
-16.2598
-16.3503
-16.4209
-16.4716
-16.5026
-16.5143
-16.5071
-16.4813
-16.4372
-16.3751
-16.2952
-16.1977
-16.0827
-15.9506
-15.8016
-15.6361
-15.4545
-15.2576
-15.0459
-14.8202
-14.5814
-14.3303
-14.0677
-13.7944
-13.5109
-13.2176
-12.9145
-12.6015
-12.278
-11.9432
-11.5958
-11.2345
-10.8573
-10.4624
-10.0478
-9.6112
-9.15084
-8.66506
-8.15278
-7.61375
-7.04902
-6.46124
-5.8551
-5.23758
-4.61782
-4.00628
-3.41366
-2.85008
-2.32468
-1.84508
-1.41685
-1.04315
-0.724636
-0.45967
-0.24474
-0.0750198
0.0550678
0.151341
0.21947
0.26472
0.291789
0.304748
0.307034
0.301479
0.290371
0.275515
0.258301
0.239778
0.220702
0.201611
0.182849
0.164658
0.147122
0.130375
0.114259
0.0990703
0.084105
0.0705749
0.055878
0.0448116
0.0278044
0.0228596
-0.00458181
-14.806
-14.7942
-14.8118
-14.8676
-14.921
-14.9626
-14.996
-15.0453
-15.1101
-15.1908
-15.2887
-15.4036
-15.5293
-15.6608
-15.7931
-15.9212
-16.0405
-16.1472
-16.2383
-16.3115
-16.3654
-16.3994
-16.4135
-16.4078
-16.3829
-16.3393
-16.2773
-16.1974
-16.1001
-15.9854
-15.8539
-15.7058
-15.5415
-15.3614
-15.1662
-14.9565
-14.733
-14.4966
-14.2479
-13.9879
-13.7171
-13.4361
-13.1452
-12.8444
-12.5336
-12.2122
-11.8792
-11.5336
-11.1738
-10.7981
-10.4046
-9.99109
-9.55572
-9.09659
-8.61227
-8.102
-7.56601
-7.00585
-6.42468
-5.82758
-5.22157
-4.6151
-4.01748
-3.43826
-2.88686
-2.37191
-1.90072
-1.47864
-1.10881
-0.792
-0.526807
-0.310054
-0.137286
-0.00329043
0.0974205
0.170244
0.220231
0.251921
0.269279
0.275672
0.273895
0.266222
0.25446
0.240013
0.223949
0.20705
0.18988
0.17281
0.156109
0.139883
0.124287
0.109186
0.0948834
0.080713
0.0678534
0.0538142
0.0432059
0.0268831
0.0220359
-0.00422851
-14.8666
-14.985
-15.0446
-15.0565
-15.0473
-15.0369
-15.0366
-15.0588
-15.105
-15.1771
-15.2704
-15.3793
-15.4996
-15.6253
-15.7504
-15.8696
-15.9787
-16.0745
-16.155
-16.2187
-16.265
-16.2934
-16.3039
-16.2964
-16.271
-16.2278
-16.1669
-16.0885
-15.9927
-15.8799
-15.7502
-15.6039
-15.4416
-15.2637
-15.0707
-14.8634
-14.6423
-14.4084
-14.1623
-13.9047
-13.6364
-13.3577
-13.0689
-12.7701
-12.461
-12.1411
-11.8094
-11.4649
-11.106
-10.7309
-10.338
-9.92518
-9.49068
-9.0329
-8.55075
-8.04382
-7.5127
-6.95927
-6.38697
-5.80089
-5.20754
-4.61459
-4.0305
-3.46419
-2.92454
-2.41976
-1.95679
-1.54081
-1.17486
-0.859814
-0.594496
-0.376037
-0.200334
-0.0625297
0.0425448
0.120016
0.174719
0.211036
0.232817
0.243359
0.245414
0.241239
0.232638
0.221028
0.207493
0.19284
0.177657
0.162341
0.147185
0.132322
0.117923
0.10388
0.0905012
0.0771603
0.065
0.0516489
0.0415191
0.0259117
0.02117
-0.00387522
-14.8199
-14.8618
-14.8681
-14.8772
-14.8995
-14.9356
-14.9776
-15.0295
-15.0925
-15.1676
-15.2562
-15.3563
-15.4647
-15.577
-15.6889
-15.7965
-15.8964
-15.9854
-16.0612
-16.1219
-16.1661
-16.193
-16.2021
-16.1934
-16.1668
-16.1225
-16.0609
-15.982
-15.8863
-15.7738
-15.6448
-15.4998
-15.339
-15.1628
-14.9719
-14.7667
-14.548
-14.3164
-14.0727
-13.8174
-13.5512
-13.2744
-12.9874
-12.6901
-12.3822
-12.0633
-11.7324
-11.3885
-11.03
-10.6556
-10.2633
-9.85154
-9.41865
-8.9633
-8.48465
-7.98259
-7.45799
-6.91294
-6.35086
-5.7765
-5.19586
-4.61605
-4.04501
-3.49118
-2.96295
-2.46809
-2.01322
-1.60326
-1.24121
-0.927992
-0.66265
-0.442603
-0.264083
-0.122573
-0.0132161
0.0688477
0.12824
0.169179
0.195401
0.210126
0.216061
0.21544
0.210065
0.201357
0.19042
0.178078
0.164945
0.151444
0.13789
0.12444
0.111286
0.0983431
0.0859247
0.0734478
0.062016
0.0493828
0.0397528
0.0248902
0.0202653
-0.00352522
-14.8044
-14.8617
-14.9079
-14.9469
-14.9786
-14.9977
-15.0161
-15.0491
-15.0989
-15.1632
-15.2416
-15.3316
-15.4299
-15.5324
-15.635
-15.7337
-15.8249
-15.9058
-15.974
-16.0278
-16.0661
-16.0882
-16.0937
-16.0824
-16.0543
-16.0094
-15.9476
-15.8692
-15.7742
-15.6627
-15.5352
-15.3916
-15.2326
-15.0584
-14.8695
-14.6665
-14.45
-14.2207
-13.9792
-13.726
-13.4618
-13.1868
-12.9013
-12.6053
-12.2986
-11.9805
-11.6503
-11.307
-10.9493
-10.5757
-10.1846
-9.77447
-9.34398
-8.89199
-8.41792
-7.92188
-7.40487
-6.86896
-6.31738
-5.7546
-5.18629
-4.61917
-4.06078
-3.51906
-3.00197
-2.51684
-2.06992
-1.66593
-1.30778
-0.99646
-0.731196
-0.50968
-0.328465
-0.183358
-0.0698065
0.0167875
0.0808321
0.126383
0.157057
0.175993
0.185851
0.188837
0.186746
0.181005
0.172729
0.162763
0.151744
0.140117
0.12822
0.116236
0.104372
0.092572
0.0811522
0.0695741
0.0589004
0.0470149
0.0379071
0.0238172
0.0193241
-0.00318211
-14.7865
-14.8329
-14.8656
-14.8884
-14.908
-14.9395
-14.9779
-15.0219
-15.0768
-15.1421
-15.2177
-15.3018
-15.3922
-15.4855
-15.5784
-15.6675
-15.7498
-15.8228
-15.8843
-15.9326
-15.9666
-15.9852
-15.9879
-15.9745
-15.9447
-15.8984
-15.8358
-15.7568
-15.6617
-15.5505
-15.4236
-15.2811
-15.1233
-14.9507
-14.7636
-14.5627
-14.3483
-14.1212
-13.8819
-13.6309
-13.3686
-13.0955
-12.8117
-12.5172
-12.2117
-11.8947
-11.5656
-11.2233
-10.8666
-10.4943
-10.1049
-9.69716
-9.26979
-8.82192
-8.35313
-7.86362
-7.35445
-6.82765
-6.28635
-5.73482
-5.17848
-4.6237
-4.07761
-3.54772
-3.04151
-2.56591
-2.12682
-1.72875
-1.3745
-1.06514
-0.800057
-0.577195
-0.393409
-0.24482
-0.127169
-0.0361142
0.0325395
0.0826835
0.117813
0.140984
0.154801
0.161442
0.162691
0.159976
0.154424
0.146897
0.138052
0.128358
0.118174
0.107706
0.0971804
0.0865653
0.076182
0.0655378
0.0556525
0.0445443
0.0359824
0.0226914
0.0183487
-0.00285012
-14.77
-14.8131
-14.8499
-14.883
-14.9168
-14.9464
-14.9806
-15.0205
-15.0697
-15.1287
-15.1968
-15.2727
-15.3541
-15.4383
-15.5221
-15.6026
-15.6768
-15.7425
-15.7975
-15.84
-15.869
-15.8835
-15.8829
-15.8668
-15.835
-15.7873
-15.7238
-15.6445
-15.5494
-15.4387
-15.3124
-15.171
-15.0145
-14.8434
-14.6581
-14.4591
-14.2467
-14.0217
-13.7844
-13.5355
-13.2752
-13.0039
-12.7218
-12.4288
-12.1246
-11.8089
-11.4809
-11.1399
-10.7846
-10.4139
-10.0267
-9.62161
-9.1977
-8.75419
-8.29081
-7.80786
-7.30646
-6.78861
-6.25736
-5.71684
-5.17219
-4.62947
-4.0954
-3.57707
-3.08152
-2.61525
-2.18387
-1.79165
-1.44131
-1.13397
-0.86916
-0.645072
-0.458843
-0.306891
-0.185241
-0.0898029
-0.0165913
0.0381199
0.0777021
0.105122
0.12293
0.13327
0.13791
0.138278
0.13551
0.130483
0.123872
0.116168
0.107752
0.0988511
0.0897095
0.0803222
0.0710136
0.0613384
0.052272
0.0419703
0.0339791
0.0215113
0.017342
-0.0025337
-14.7539
-14.7935
-14.8287
-14.8601
-14.8903
-14.9216
-14.9577
-14.9993
-15.0481
-15.1048
-15.1686
-15.2386
-15.3129
-15.3892
-15.4647
-15.537
-15.6035
-15.662
-15.7106
-15.7476
-15.7719
-15.7825
-15.7788
-15.7602
-15.7265
-15.6775
-15.6131
-15.5333
-15.4381
-15.3276
-15.202
-15.0614
-14.9062
-14.7366
-14.553
-14.3558
-14.1454
-13.9224
-13.6872
-13.4403
-13.182
-12.9125
-12.6321
-12.3407
-12.038
-11.7237
-11.3971
-11.0574
-10.7037
-10.3349
-9.94994
-9.54775
-9.12744
-8.68841
-8.23051
-7.75414
-7.26046
-6.75148
-6.23016
-5.70046
-5.16728
-4.63637
-4.11407
-3.60704
-3.12191
-2.6648
-2.241
-1.85456
-1.50814
-1.20287
-0.938429
-0.713235
-0.524692
-0.3695
-0.243958
-0.14422
-0.0665094
-0.00726445
0.0367597
0.0684394
0.0902634
0.10434
0.112418
0.115924
0.115996
0.113527
0.109209
0.103551
0.0969551
0.0896717
0.0819605
0.0738433
0.0656475
0.0569761
0.0487596
0.039293
0.0318982
0.020276
0.0163066
-0.00223743
-14.7379
-14.7749
-14.8094
-14.8418
-14.8739
-14.9071
-14.9431
-14.9835
-15.0296
-15.0821
-15.1405
-15.204
-15.271
-15.3395
-15.4071
-15.4716
-15.5308
-15.5824
-15.6248
-15.6564
-15.676
-15.6827
-15.6757
-15.6545
-15.6188
-15.5683
-15.5029
-15.4226
-15.3273
-15.217
-15.092
-14.9524
-14.7983
-14.6301
-14.4481
-14.2527
-14.0442
-13.8232
-13.59
-13.3451
-13.0887
-12.8211
-12.5424
-12.2526
-11.9515
-11.6387
-11.3136
-10.9755
-10.6235
-10.2568
-9.87432
-9.47518
-9.05864
-8.62423
-8.17191
-7.70219
-7.21625
-6.71609
-6.2046
-5.68557
-5.16367
-4.64434
-4.13355
-3.63759
-3.16265
-2.7145
-2.29814
-1.91742
-1.57491
-1.27176
-1.00779
-0.781608
-0.590881
-0.432575
-0.303252
-0.199306
-0.117161
-0.0534226
-0.00497397
0.0309681
0.0568282
0.0746739
0.0862342
0.0929262
0.0958937
0.0960387
0.0940679
0.0905113
0.0857884
0.0801714
0.073936
0.0671307
0.0600856
0.0524524
0.0451167
0.0365132
0.0297413
0.0189848
0.0152455
-0.00196597
-14.7218
-14.7566
-14.79
-14.822
-14.8539
-14.8868
-14.9223
-14.9616
-15.0056
-15.0547
-15.1086
-15.1665
-15.227
-15.2885
-15.3488
-15.4061
-15.4582
-15.5033
-15.5398
-15.5661
-15.5811
-15.5838
-15.5736
-15.5498
-15.512
-15.46
-15.3936
-15.3126
-15.2171
-15.107
-14.9825
-14.8437
-14.6907
-14.5238
-14.3433
-14.1496
-13.943
-13.7239
-13.4927
-13.2497
-12.9953
-12.7295
-12.4526
-12.1645
-11.865
-11.5538
-11.2303
-10.8939
-10.5439
-10.1794
-9.79962
-9.40373
-8.99114
-8.56151
-8.1149
-7.6519
-7.17374
-6.68238
-6.18063
-5.67213
-5.16132
-4.65333
-4.15381
-3.66865
-3.20367
-2.7643
-2.35524
-1.98017
-1.64155
-1.34057
-1.07716
-0.850114
-0.657332
-0.496042
-0.363054
-0.254994
-0.168488
-0.100304
-0.0474557
-0.00725487
0.0226552
0.0442984
0.0593787
0.0693034
0.0752165
0.0780286
0.0784597
0.0770572
0.074258
0.0703555
0.0656404
0.060188
0.0543309
0.0477699
0.0413456
0.0336322
0.0275103
0.0176375
0.0141615
-0.00172401
-14.7055
-14.7384
-14.7706
-14.8021
-14.8337
-14.8664
-14.9012
-14.939
-14.9805
-15.0261
-15.0754
-15.1277
-15.182
-15.2368
-15.2902
-15.3406
-15.386
-15.4249
-15.4556
-15.4767
-15.4872
-15.4861
-15.4726
-15.4461
-15.4062
-15.3526
-15.2851
-15.2034
-15.1076
-14.9976
-14.8735
-14.7354
-14.5834
-14.4177
-14.2387
-14.0466
-13.8418
-13.6246
-13.3952
-13.1542
-12.9016
-12.6377
-12.3626
-12.0762
-11.7784
-11.4689
-11.1471
-10.8127
-10.4648
-10.1027
-9.72581
-9.33337
-8.92491
-8.50021
-8.05945
-7.60325
-7.13289
-6.65031
-6.15821
-5.66009
-5.16017
-4.6633
-4.17479
-3.70017
-3.24493
-2.81414
-2.41225
-2.04274
-1.70801
-1.40924
-1.14647
-0.918675
-0.72397
-0.559825
-0.423292
-0.31122
-0.22043
-0.147856
-0.0906387
-0.0461893
-0.0122214
0.0132419
0.0318763
0.0450757
0.0539819
0.0595117
0.0623962
0.0631989
0.0623726
0.0602313
0.0570802
0.0530208
0.0483881
0.0429323
0.0374497
0.0306526
0.0252079
0.0162346
0.013058
-0.00151615
-14.6889
-14.72
-14.7509
-14.7815
-14.8124
-14.8443
-14.8779
-14.9139
-14.9528
-14.9949
-15.0399
-15.0872
-15.1357
-15.1842
-15.2312
-15.2751
-15.3142
-15.3471
-15.3722
-15.3884
-15.3944
-15.3895
-15.3727
-15.3435
-15.3015
-15.2462
-15.1774
-15.095
-14.9988
-14.8888
-14.765
-14.6275
-14.4764
-14.312
-14.1343
-13.9438
-13.7406
-13.5251
-13.2976
-13.0584
-12.8077
-12.5457
-12.2724
-11.9878
-11.6918
-11.384
-11.0642
-10.7318
-10.3862
-10.0268
-9.65292
-9.26411
-8.85996
-8.44036
-8.00555
-7.55624
-7.0937
-6.61985
-6.13732
-5.64943
-5.1602
-4.67421
-4.19645
-3.73213
-3.28637
-2.86397
-2.4691
-2.10508
-1.77421
-1.47769
-1.21565
-0.987214
-0.790716
-0.623847
-0.483892
-0.367913
-0.272925
-0.196021
-0.134473
-0.0857914
-0.0477637
-0.0184631
0.00375448
0.0202667
0.0322101
0.0405052
0.0458924
0.0489492
0.0501435
0.0498086
0.0482636
0.0456363
0.0422636
0.0379451
0.0334338
0.0275779
0.0228375
0.014777
0.0119383
-0.00134679
-14.672
-14.7014
-14.7309
-14.7605
-14.7903
-14.821
-14.8532
-14.8872
-14.9235
-14.9622
-15.003
-15.0454
-15.0884
-15.131
-15.1719
-15.2097
-15.2428
-15.27
-15.2898
-15.3011
-15.3028
-15.294
-15.274
-15.2421
-15.1978
-15.1408
-15.0708
-14.9875
-14.8908
-14.7807
-14.6572
-14.5202
-14.3699
-14.2065
-14.0301
-13.841
-13.6395
-13.4257
-13.2
-12.9626
-12.7137
-12.4535
-12.1821
-11.8993
-11.6052
-11.2994
-10.9816
-10.6513
-10.3082
-9.95159
-9.581
-9.196
-8.79633
-8.38197
-7.95322
-7.51086
-7.05616
-6.59101
-6.11793
-5.64012
-5.16137
-4.68601
-4.21875
-3.76446
-3.32796
-2.91374
-2.52575
-2.16713
-1.8401
-1.54586
-1.28461
-1.05565
-0.85749
-0.688031
-0.544778
-0.425004
-0.325907
-0.24474
-0.178904
-0.126014
-0.0839302
-0.0507806
-0.0249554
-0.00509646
0.00992471
0.0210297
0.0289662
0.0343239
0.0375844
0.0390995
0.0392015
0.0380439
0.0359655
0.0328153
0.0293039
0.0244127
0.0204033
0.0132666
0.0108061
-0.00122003
-14.6545
-14.6825
-14.7105
-14.7387
-14.7673
-14.7966
-14.8271
-14.859
-14.8925
-14.9278
-14.9646
-15.0023
-15.0402
-15.0773
-15.1124
-15.1444
-15.1719
-15.1935
-15.2082
-15.2148
-15.2123
-15.1997
-15.1765
-15.1418
-15.0953
-15.0365
-14.9651
-14.8809
-14.7837
-14.6734
-14.55
-14.4135
-14.2639
-14.1015
-13.9263
-13.7386
-13.5385
-13.3264
-13.1024
-12.8667
-12.6197
-12.3613
-12.0917
-11.8109
-11.5187
-11.2149
-10.8993
-10.5714
-10.2309
-9.87724
-9.51009
-9.12909
-8.73406
-8.32506
-7.90249
-7.46713
-7.02027
-6.56375
-6.10002
-5.63212
-5.16364
-4.69868
-4.24164
-3.79712
-3.36963
-2.9634
-2.58214
-2.22882
-1.9056
-1.61366
-1.3533
-1.12392
-0.924215
-0.752297
-0.605874
-0.482417
-0.379305
-0.293948
-0.223876
-0.166805
-0.120676
-0.083671
-0.0542185
-0.0309833
-0.0128476
0.0011088
0.0116383
0.0193414
0.0247117
0.0281186
0.0299068
0.0302551
0.0295041
0.0275516
0.0250676
0.021163
0.0179106
0.0117061
0.0096654
-0.00113945
-14.6367
-14.663
-14.6896
-14.7164
-14.7435
-14.7712
-14.7997
-14.8294
-14.8602
-14.8921
-14.925
-14.9582
-14.9912
-15.0231
-15.0529
-15.0793
-15.1014
-15.1179
-15.1276
-15.1296
-15.123
-15.1068
-15.0803
-15.0429
-14.9941
-14.9335
-14.8607
-14.7754
-14.6776
-14.567
-14.4437
-14.3075
-14.1586
-13.997
-13.8229
-13.6364
-13.4378
-13.2272
-13.0049
-12.771
-12.5257
-12.2692
-12.0015
-11.7226
-11.4324
-11.1307
-10.8174
-10.492
-10.1543
-9.80378
-9.44025
-9.06341
-8.67317
-8.26967
-7.85335
-7.42504
-6.98601
-6.53807
-6.08357
-5.6254
-5.16698
-4.71215
-4.26509
-3.83008
-3.41136
-3.01291
-2.63821
-2.29011
-1.97066
-1.68105
-1.42163
-1.19193
-0.99081
-0.816565
-0.6671
-0.540077
-0.43305
-0.34358
-0.269328
-0.208112
-0.157952
-0.117091
-0.0839965
-0.0573598
-0.0360765
-0.0192307
-0.00606717
0.00402317
0.0115447
0.0168831
0.0203949
0.0222836
0.0228914
0.0221645
0.0207338
0.0178362
0.0153654
0.0100994
0.00852041
-0.00110796
-14.6183
-14.6431
-14.6681
-14.6933
-14.7188
-14.7448
-14.7713
-14.7985
-14.8265
-14.8552
-14.8843
-14.9133
-14.9417
-14.9686
-14.9932
-15.0145
-15.0314
-15.0429
-15.048
-15.0456
-15.0349
-15.0151
-14.9854
-14.9453
-14.8942
-14.8317
-14.7574
-14.6711
-14.5726
-14.4617
-14.3383
-14.2024
-14.054
-13.8932
-13.72
-13.5348
-13.3375
-13.1284
-12.9076
-12.6755
-12.432
-12.1773
-11.9115
-11.6345
-11.3464
-11.047
-10.736
-10.4133
-10.0785
-9.7313
-9.37154
-8.99901
-8.6137
-8.21581
-7.80583
-7.3846
-6.95339
-6.51396
-6.06855
-5.61994
-5.17135
-4.72642
-4.28905
-3.86328
-3.45309
-3.0622
-2.69392
-2.35093
-2.03521
-1.74794
-1.48953
-1.25961
-1.0572
-0.880754
-0.728377
-0.597907
-0.487066
-0.393568
-0.315196
-0.249875
-0.195706
-0.150993
-0.114247
-0.0841878
-0.059728
-0.0399582
-0.0241228
-0.0116061
-0.00189438
0.00541318
0.0106838
0.0141455
0.0161416
0.0166666
0.0163132
0.0144414
0.0127751
0.00845137
0.00737576
-0.00112758
-14.5994
-14.6227
-14.6461
-14.6697
-14.6934
-14.7175
-14.7419
-14.7667
-14.7919
-14.8173
-14.8427
-14.8676
-14.8916
-14.9139
-14.9337
-14.95
-14.9621
-14.9688
-14.9694
-14.9627
-14.9481
-14.9248
-14.892
-14.8491
-14.7957
-14.7313
-14.6556
-14.5681
-14.4688
-14.3574
-14.2339
-14.0981
-13.9502
-13.7901
-13.6178
-13.4337
-13.2377
-13.03
-12.8108
-12.5802
-12.3385
-12.0856
-11.8217
-11.5468
-11.2609
-10.9637
-10.6553
-10.3353
-10.0035
-9.65986
-9.30402
-8.93596
-8.55571
-8.16353
-7.75994
-7.34581
-6.9224
-6.49139
-6.05495
-5.61571
-5.17673
-4.74143
-4.31348
-3.89669
-3.49477
-3.11125
-2.74921
-2.41123
-2.09919
-1.81428
-1.55693
-1.32689
-1.12329
-0.944782
-0.789623
-0.655826
-0.541279
-0.443838
-0.361414
-0.292034
-0.233882
-0.185326
-0.144923
-0.111426
-0.0837643
-0.0610395
-0.0424977
-0.0275183
-0.0155802
-0.00626834
0.000794105
0.00585929
0.00927132
0.0110724
0.0118184
0.010989
0.010148
0.00676829
0.00623628
-0.00119918
-14.5801
-14.6017
-14.6235
-14.6454
-14.6674
-14.6894
-14.7116
-14.7339
-14.7563
-14.7785
-14.8004
-14.8214
-14.8412
-14.8591
-14.8743
-14.886
-14.8934
-14.8956
-14.8918
-14.8811
-14.8627
-14.8359
-14.8
-14.7545
-14.6988
-14.6325
-14.5551
-14.4665
-14.3663
-14.2544
-14.1307
-13.995
-13.8474
-13.6879
-13.5165
-13.3333
-13.1385
-12.9321
-12.7144
-12.4855
-12.2454
-11.9944
-11.7324
-11.4596
-11.1758
-10.8811
-10.5752
-10.2581
-9.9296
-9.58952
-9.23776
-8.87429
-8.49921
-8.11283
-7.71571
-7.3087
-6.89304
-6.47036
-6.04275
-5.61269
-5.18308
-4.75715
-4.33836
-3.93027
-3.53638
-3.15999
-2.80404
-2.47096
-2.16255
-1.87999
-1.62375
-1.39368
-1.18902
-1.00857
-0.850755
-0.713755
-0.595609
-0.494316
-0.40791
-0.334522
-0.272419
-0.220035
-0.175976
-0.139027
-0.108143
-0.0824365
-0.0611571
-0.0436818
-0.0294839
-0.0181353
-0.00925055
-0.00255378
0.00229924
0.0053984
0.00726335
0.00749116
0.00749331
0.00505776
0.00510693
-0.00132224
-14.5602