/*--------------------------------*- C++ -*----------------------------------*\
| =========                 |                                                 |
| \\      /  F ield         | OpenFOAM: The Open Source CFD Toolbox           |
|  \\    /   O peration     | Version:  2.1.1                                 |
|   \\  /    A nd           | Web:      www.OpenFOAM.org                      |
|    \\/     M anipulation  |                                                 |
\*---------------------------------------------------------------------------*/
FoamFile
{
    version     2.0;
    format      ascii;
    class       surfaceScalarField;
    location    "0.105";
    object      phi;
}
// * * * * * * * * * * * * * * * * * * * * * * * * * * * * * * * * * * * * * //

dimensions      [0 3 -1 0 0 0 0];

internalField   nonuniform List<scalar> 
13452
(
6.89923e-05
-5.05078e-07
6.88138e-05
1.78578e-07
6.82026e-05
6.11134e-07
6.72555e-05
9.47082e-07
6.61794e-05
1.07613e-06
6.50884e-05
1.09101e-06
6.40243e-05
1.06413e-06
6.30043e-05
1.01994e-06
6.2037e-05
9.67385e-07
6.11256e-05
9.11375e-07
6.02713e-05
8.54322e-07
5.94736e-05
7.97677e-07
5.87312e-05
7.42383e-07
5.80421e-05
6.89104e-07
5.74038e-05
6.38286e-07
5.68136e-05
5.90208e-07
5.62686e-05
5.45023e-07
5.57658e-05
5.02788e-07
5.53023e-05
4.63483e-07
5.48753e-05
4.2704e-07
5.44819e-05
3.93361e-07
5.41196e-05
3.62333e-07
5.37857e-05
3.33849e-07
5.34779e-05
3.07827e-07
5.31937e-05
2.84247e-07
5.29305e-05
2.63198e-07
5.26855e-05
2.44978e-07
5.24551e-05
2.30425e-07
5.22341e-05
2.21e-07
5.2012e-05
2.22007e-07
5.17712e-05
2.40857e-07
5.14623e-05
3.08933e-07
5.03019e-07
5.09592e-05
7.0165e-05
-2.26094e-07
7.00412e-05
3.02367e-07
7.01818e-05
4.7046e-07
7.05092e-05
6.19686e-07
7.08599e-05
7.25484e-07
7.1159e-05
7.91903e-07
7.13839e-05
8.39191e-07
7.15364e-05
8.67494e-07
7.16243e-05
8.79507e-07
7.16564e-05
8.79206e-07
7.16412e-05
8.69541e-07
7.1586e-05
8.52838e-07
7.14975e-05
8.30903e-07
7.13814e-05
8.05201e-07
7.12428e-05
7.76906e-07
7.10861e-05
7.46956e-07
7.0915e-05
7.16098e-07
7.07329e-05
6.84917e-07
7.05425e-05
6.5387e-07
7.03462e-05
6.23304e-07
7.01461e-05
5.93486e-07
6.99438e-05
5.64625e-07
6.97408e-05
5.36889e-07
6.95381e-05
5.10437e-07
6.93369e-05
4.85457e-07
6.91379e-05
4.62184e-07
6.89418e-05
4.41075e-07
6.87496e-05
4.22683e-07
6.85619e-05
4.08658e-07
6.83843e-05
3.99664e-07
6.82225e-05
4.02672e-07
6.81268e-05
4.04634e-07
4.34448e-07
6.81953e-05
7.22817e-05
-5.12074e-08
7.23969e-05
1.87117e-07
7.25019e-05
3.65476e-07
7.25887e-05
5.32901e-07
7.26723e-05
6.41894e-07
7.27547e-05
7.095e-07
7.28412e-05
7.52607e-07
7.29285e-05
7.8027e-07
7.30123e-05
7.95664e-07
7.30902e-05
8.01338e-07
7.31605e-05
7.99246e-07
7.32224e-05
7.90959e-07
7.32755e-05
7.77755e-07
7.332e-05
7.6075e-07
7.3356e-05
7.40884e-07
7.3384e-05
7.18944e-07
7.34045e-05
6.95582e-07
7.34181e-05
6.7133e-07
7.34253e-05
6.46618e-07
7.34269e-05
6.21792e-07
7.34232e-05
5.97134e-07
7.3415e-05
5.72875e-07
7.34026e-05
5.49218e-07
7.33867e-05
5.26357e-07
7.33677e-05
5.04511e-07
7.33459e-05
4.83942e-07
7.33219e-05
4.65083e-07
7.32962e-05
4.4838e-07
7.32698e-05
4.35073e-07
7.32444e-05
4.25089e-07
7.32239e-05
4.23171e-07
7.32099e-05
4.1856e-07
4.39948e-07
7.32044e-05
7.45185e-05
-4.31132e-08
7.44883e-05
2.17342e-07
7.4477e-05
3.76783e-07
7.45168e-05
4.93116e-07
7.45773e-05
5.81329e-07
7.4644e-05
6.42807e-07
7.47103e-05
6.86329e-07
7.47746e-05
7.15946e-07
7.48367e-05
7.33611e-07
7.48963e-05
7.41689e-07
7.49534e-05
7.42204e-07
7.50076e-05
7.36713e-07
7.50589e-05
7.2646e-07
7.51072e-05
7.125e-07
7.51524e-05
6.9571e-07
7.51945e-05
6.76817e-07
7.52336e-05
6.56418e-07
7.527e-05
6.35006e-07
7.53036e-05
6.12981e-07
7.53347e-05
5.90672e-07
7.53635e-05
5.68346e-07
7.53902e-05
5.46227e-07
7.54149e-05
5.24516e-07
7.54378e-05
5.034e-07
7.54592e-05
4.83089e-07
7.54794e-05
4.63808e-07
7.54986e-05
4.45901e-07
7.55173e-05
4.29656e-07
7.55366e-05
4.15783e-07
7.55577e-05
4.03925e-07
7.55852e-05
3.95687e-07
7.56195e-05
3.84237e-07
3.74536e-07
7.5685e-05
7.66036e-05
9.16498e-09
7.66284e-05
1.92557e-07
7.6665e-05
3.40163e-07
7.67034e-05
4.54743e-07
7.6742e-05
5.42657e-07
7.67819e-05
6.02914e-07
7.68243e-05
6.43972e-07
7.68687e-05
6.7154e-07
7.69141e-05
6.88217e-07
7.69596e-05
6.96148e-07
7.70047e-05
6.97098e-07
7.7049e-05
6.92434e-07
7.70922e-05
6.83277e-07
7.71341e-05
6.70584e-07
7.71747e-05
6.55158e-07
7.72138e-05
6.37669e-07
7.72515e-05
6.18675e-07
7.72879e-05
5.98634e-07
7.7323e-05
5.77924e-07
7.73568e-05
5.56852e-07
7.73895e-05
5.35674e-07
7.74211e-05
5.14603e-07
7.74518e-05
4.93826e-07
7.74817e-05
4.73516e-07
7.75109e-05
4.53853e-07
7.75397e-05
4.35014e-07
7.75684e-05
4.17233e-07
7.75974e-05
4.0065e-07
7.76276e-05
3.85572e-07
7.766e-05
3.71464e-07
7.76971e-05
3.58619e-07
7.77388e-05
3.42523e-07
3.24772e-07
7.77886e-05
7.88312e-05
2.3869e-08
7.88389e-05
1.84821e-07
7.88573e-05
3.21829e-07
7.88864e-05
4.25631e-07
7.8923e-05
5.06008e-07
7.89626e-05
5.63359e-07
7.90032e-05
6.03397e-07
7.90441e-05
6.30635e-07
7.90849e-05
6.47364e-07
7.91255e-05
6.55555e-07
7.91657e-05
6.56927e-07
7.92053e-05
6.52833e-07
7.92442e-05
6.44368e-07
7.92823e-05
6.32454e-07
7.93196e-05
6.1786e-07
7.93561e-05
6.01225e-07
7.93917e-05
5.8308e-07
7.94264e-05
5.63861e-07
7.94604e-05
5.43929e-07
7.94937e-05
5.23576e-07
7.95263e-05
5.03045e-07
7.95584e-05
4.82538e-07
7.959e-05
4.62229e-07
7.96213e-05
4.4227e-07
7.96523e-05
4.22807e-07
7.96833e-05
4.03966e-07
7.97147e-05
3.85879e-07
7.97468e-05
3.68569e-07
7.97803e-05
3.52065e-07
7.9816e-05
3.35798e-07
7.98552e-05
3.19397e-07
7.98977e-05
3.00007e-07
2.77288e-07
7.99452e-05
8.10848e-05
3.76267e-08
8.10949e-05
1.74709e-07
8.11186e-05
2.98144e-07
8.11495e-05
3.94675e-07
8.11846e-05
4.70993e-07
8.1221e-05
5.26947e-07
8.12581e-05
5.66308e-07
8.12956e-05
5.93077e-07
8.13333e-05
6.09636e-07
8.1371e-05
6.17914e-07
8.14084e-05
6.19564e-07
8.14453e-05
6.15888e-07
8.14817e-05
6.07943e-07
8.15176e-05
5.96611e-07
8.15528e-05
5.82633e-07
8.15874e-05
5.6662e-07
8.16214e-05
5.49082e-07
8.16548e-05
5.30437e-07
8.16877e-05
5.11032e-07
8.17201e-05
4.91148e-07
8.17522e-05
4.71017e-07
8.17839e-05
4.50828e-07
8.18154e-05
4.30742e-07
8.18468e-05
4.10888e-07
8.18782e-05
3.91381e-07
8.19098e-05
3.723e-07
8.1942e-05
3.53697e-07
8.19751e-05
3.35513e-07
8.20095e-05
3.17625e-07
8.20458e-05
2.99494e-07
8.20847e-05
2.80562e-07
8.21256e-05
2.59034e-07
2.34276e-07
8.21686e-05
8.34101e-05
4.30332e-08
8.34202e-05
1.64644e-07
8.34412e-05
2.77093e-07
8.34691e-05
3.66845e-07
8.35018e-05
4.38254e-07
8.3537e-05
4.91727e-07
8.35734e-05
5.29952e-07
8.36102e-05
5.56232e-07
8.36471e-05
5.72744e-07
8.36838e-05
5.8124e-07
8.37201e-05
5.83255e-07
8.3756e-05
5.80039e-07
8.37913e-05
5.72612e-07
8.38261e-05
5.61831e-07
8.38603e-05
5.48411e-07
8.3894e-05
5.32944e-07
8.39271e-05
5.15923e-07
8.39598e-05
4.97753e-07
8.39921e-05
4.78769e-07
8.4024e-05
4.59242e-07
8.40556e-05
4.39393e-07
8.4087e-05
4.19403e-07
8.41184e-05
3.99415e-07
8.41497e-05
3.79543e-07
8.41812e-05
3.59871e-07
8.42131e-05
3.40441e-07
8.42455e-05
3.2125e-07
8.42788e-05
3.02196e-07
8.43134e-05
2.83085e-07
8.43494e-05
2.63454e-07
8.43872e-05
2.42762e-07
8.44264e-05
2.19893e-07
1.94325e-07
8.44663e-05
8.57964e-05
4.53807e-08
8.58064e-05
1.5466e-07
8.58268e-05
2.56644e-07
8.58539e-05
3.39788e-07
8.58856e-05
4.06558e-07
8.59198e-05
4.57518e-07
8.59552e-05
4.94513e-07
8.59913e-05
5.20191e-07
8.60275e-05
5.36531e-07
8.60636e-05
5.45146e-07
8.60994e-05
5.47462e-07
8.61347e-05
5.44664e-07
8.61696e-05
5.37727e-07
8.6204e-05
5.27469e-07
8.62378e-05
5.14577e-07
8.62711e-05
4.99624e-07
8.6304e-05
4.83084e-07
8.63364e-05
4.65348e-07
8.63684e-05
4.4674e-07
8.64001e-05
4.27521e-07
8.64316e-05
4.07904e-07
8.6463e-05
3.88058e-07
8.64943e-05
3.68114e-07
8.65256e-05
3.4817e-07
8.65572e-05
3.28286e-07
8.65892e-05
3.08482e-07
8.66217e-05
2.88721e-07
8.6655e-05
2.68885e-07
8.66893e-05
2.48769e-07
8.67248e-05
2.28e-07
8.67614e-05
2.0614e-07
8.67988e-05
1.82509e-07
1.56789e-07
8.68363e-05
8.82501e-05
4.52595e-08
8.82603e-05
1.44494e-07
8.82798e-05
2.37158e-07
8.83055e-05
3.14087e-07
8.83357e-05
3.76326e-07
8.83687e-05
4.24483e-07
8.84033e-05
4.59912e-07
8.84388e-05
4.84741e-07
8.84746e-05
5.00729e-07
8.85104e-05
5.09339e-07
8.8546e-05
5.11872e-07
8.85812e-05
5.09432e-07
8.8616e-05
5.02937e-07
8.86503e-05
4.93167e-07
8.86841e-05
4.80776e-07
8.87174e-05
4.66312e-07
8.87503e-05
4.5023e-07
8.87827e-05
4.32908e-07
8.88148e-05
4.14656e-07
8.88466e-05
3.95726e-07
8.88782e-05
3.76321e-07
8.89096e-05
3.566e-07
8.89411e-05
3.36685e-07
8.89726e-05
3.16659e-07
8.90043e-05
2.9657e-07
8.90364e-05
2.76419e-07
8.90689e-05
2.5616e-07
8.91021e-05
2.35676e-07
8.91361e-05
2.14785e-07
8.91709e-05
1.93203e-07
8.92064e-05
1.70612e-07
8.92423e-05
1.46612e-07
1.21057e-07
8.92781e-05
9.07728e-05
4.37618e-08
9.07829e-05
1.34359e-07
9.08015e-05
2.18577e-07
9.08261e-05
2.89494e-07
9.08552e-05
3.4728e-07
9.08872e-05
3.9249e-07
9.09209e-05
4.26147e-07
9.09557e-05
4.4994e-07
9.0991e-05
4.65405e-07
9.10265e-05
4.7386e-07
9.10619e-05
4.76484e-07
9.1097e-05
4.74298e-07
9.11318e-05
4.68166e-07
9.11662e-05
4.5882e-07
9.12001e-05
4.46879e-07
9.12335e-05
4.32865e-07
9.12665e-05
4.17212e-07
9.12992e-05
4.00281e-07
9.13314e-05
3.82368e-07
9.13635e-05
3.63716e-07
9.13953e-05
3.44516e-07
9.14269e-05
3.2492e-07
9.14586e-05
3.05039e-07
9.14903e-05
2.84949e-07
9.15222e-05
2.64687e-07
9.15543e-05
2.4425e-07
9.15869e-05
2.23591e-07
9.162e-05
2.02612e-07
9.16536e-05
1.81164e-07
9.16878e-05
1.59048e-07
9.17223e-05
1.36049e-07
9.1757e-05
1.11949e-07
8.67217e-08
9.17913e-05
9.3367e-05
4.14327e-08
9.33771e-05
1.24279e-07
9.33948e-05
2.00819e-07
9.34183e-05
2.65972e-07
9.34462e-05
3.19411e-07
9.34771e-05
3.61578e-07
9.351e-05
3.93272e-07
9.35441e-05
4.15838e-07
9.35789e-05
4.30603e-07
9.3614e-05
4.38745e-07
9.36492e-05
4.41327e-07
9.36842e-05
4.39286e-07
9.37189e-05
4.33424e-07
9.37533e-05
4.24426e-07
9.37873e-05
4.12874e-07
9.38209e-05
3.99261e-07
9.38541e-05
3.83999e-07
9.3887e-05
3.67431e-07
9.39195e-05
3.49839e-07
9.39518e-05
3.31453e-07
9.39838e-05
3.12456e-07
9.40158e-05
2.9299e-07
9.40477e-05
2.73161e-07
9.40796e-05
2.53037e-07
9.41116e-05
2.32652e-07
9.41438e-05
2.12005e-07
9.41764e-05
1.91057e-07
9.42093e-05
1.69733e-07
9.42425e-05
1.47925e-07
9.4276e-05
1.25501e-07
9.43098e-05
1.02332e-07
9.43434e-05
7.83145e-08
5.34924e-08
9.43766e-05
9.60349e-05
3.8654e-08
9.60448e-05
1.14341e-07
9.60618e-05
1.83835e-07
9.60843e-05
2.4345e-07
9.61111e-05
2.92629e-07
9.6141e-05
3.31693e-07
9.6173e-05
3.61278e-07
9.62063e-05
3.82458e-07
9.62406e-05
3.9637e-07
9.62753e-05
4.04054e-07
9.63101e-05
4.06466e-07
9.6345e-05
4.04459e-07
9.63796e-05
3.98771e-07
9.6414e-05
3.9004e-07
9.64481e-05
3.7881e-07
9.64818e-05
3.65544e-07
9.65152e-05
3.50631e-07
9.65482e-05
3.34394e-07
9.65809e-05
3.17101e-07
9.66134e-05
2.9897e-07
9.66457e-05
2.80174e-07
9.66778e-05
2.6085e-07
9.67099e-05
2.41094e-07
9.6742e-05
2.20975e-07
9.67741e-05
2.00525e-07
9.68063e-05
1.79749e-07
9.68388e-05
1.58623e-07
9.68714e-05
1.37095e-07
9.69042e-05
1.15095e-07
9.69372e-05
9.25456e-08
9.69701e-05
6.93827e-08
9.70029e-05
4.55703e-08
2.11934e-08
9.70352e-05
9.87787e-05
3.56538e-08
9.87885e-05
1.04598e-07
9.88047e-05
1.67558e-07
9.88263e-05
2.21856e-07
9.88521e-05
2.66868e-07
9.8881e-05
3.02799e-07
9.89121e-05
3.30163e-07
9.89447e-05
3.49821e-07
9.89784e-05
3.62739e-07
9.90126e-05
3.69832e-07
9.90471e-05
3.71953e-07
9.90817e-05
3.69871e-07
9.91162e-05
3.64265e-07
9.91505e-05
3.55723e-07
9.91846e-05
3.4475e-07
9.92183e-05
3.31778e-07
9.92518e-05
3.17171e-07
9.9285e-05
3.01234e-07
9.93178e-05
2.84221e-07
9.93505e-05
2.66335e-07
9.93829e-05
2.47743e-07
9.94152e-05
2.28573e-07
9.94474e-05
2.0892e-07
9.94795e-05
1.88848e-07
9.95116e-05
1.68396e-07
9.95438e-05
1.47574e-07
9.9576e-05
1.26375e-07
9.96084e-05
1.04769e-07
9.96407e-05
8.27196e-08
9.96731e-05
6.01909e-08
9.97053e-05
3.7163e-08
9.97372e-05
1.36422e-08
-1.02678e-08
9.97687e-05
0.000101601
3.25721e-08
0.00010161
9.50948e-08
0.000101626
1.51936e-07
0.000101647
2.01126e-07
0.000101672
2.42059e-07
0.000101699
2.74848e-07
0.00010173
2.99905e-07
0.000101762
3.17928e-07
0.000101795
3.2973e-07
0.000101828
3.36113e-07
0.000101862
3.3783e-07
0.000101897
3.35575e-07
0.000101931
3.29964e-07
0.000101965
3.21535e-07
0.000101999
3.10757e-07
0.000102033
2.98028e-07
0.000102066
2.8369e-07
0.0001021
2.68027e-07
0.000102133
2.51276e-07
0.000102165
2.33631e-07
0.000102198
2.1525e-07
0.00010223
1.96253e-07
0.000102262
1.76734e-07
0.000102294
1.56758e-07
0.000102326
1.36366e-07
0.000102358
1.15581e-07
0.00010239
9.44056e-08
0.000102422
7.28345e-08
0.000102454
5.08566e-08
0.000102486
2.84658e-08
0.000102517
5.67237e-09
0.000102549
-1.74929e-08
-4.09204e-08
0.000102579
0.000104503
2.94912e-08
0.000104513
8.58571e-08
0.000104528
1.36921e-07
0.000104548
1.81197e-07
0.000104572
2.18138e-07
0.000104599
2.4779e-07
0.000104628
2.70478e-07
0.000104659
2.86771e-07
0.000104692
2.97353e-07
0.000104725
3.02918e-07
0.000104759
3.04131e-07
0.000104792
3.01612e-07
0.000104827
2.95915e-07
0.000104861
2.87532e-07
0.000104894
2.76891e-07
0.000104928
2.64361e-07
0.000104961
2.50257e-07
0.000104995
2.34845e-07
0.000105028
2.18346e-07
0.00010506
2.00943e-07
0.000105093
1.82784e-07
0.000105125
1.63985e-07
0.000105157
1.44637e-07
0.000105189
1.24807e-07
0.000105221
1.04541e-07
0.000105253
8.38703e-08
0.000105284
6.28113e-08
0.000105316
4.13751e-08
0.000105347
1.95712e-08
0.000105378
-2.58497e-09
0.000105409
-2.50641e-08
0.000105439
-4.78221e-08
-7.07502e-08
0.000105469
0.000107489
2.64576e-08
0.000107498
7.68993e-08
0.000107512
1.22469e-07
0.000107532
1.6201e-07
0.000107555
1.95047e-07
0.000107581
2.21574e-07
0.00010761
2.4185e-07
0.00010764
2.56337e-07
0.000107672
2.65608e-07
0.000107704
2.70262e-07
0.000107738
2.70881e-07
0.000107771
2.68015e-07
0.000107805
2.6216e-07
0.000107839
2.53761e-07
0.000107872
2.43207e-07
0.000107906
2.30837e-07
0.000107939
2.1694e-07
0.000107972
2.01763e-07
0.000108005
1.8551e-07
0.000108038
1.68354e-07
0.00010807
1.50434e-07
0.000108102
1.31862e-07
0.000108134
1.12727e-07
0.000108166
9.30963e-08
0.000108197
7.3022e-08
0.000108229
5.25415e-08
0.00010826
3.16837e-08
0.000108291
1.04726e-08
0.000108321
-1.10673e-08
0.000108352
-3.2906e-08
0.000108382
-5.50027e-08
0.000108411
-7.73069e-08
-9.9714e-08
0.00010844
0.00011056
2.34957e-08
0.000110569
6.8225e-08
0.000110582
1.0854e-07
0.000110601
1.4351e-07
0.000110623
1.72726e-07
0.000110649
1.96151e-07
0.000110677
2.13986e-07
0.000110706
2.26605e-07
0.000110737
2.3449e-07
0.00011077
2.38152e-07
0.000110802
2.38099e-07
0.000110835
2.34812e-07
0.000110869
2.28735e-07
0.000110902
2.20265e-07
0.000110936
2.09755e-07
0.000110969
1.97512e-07
0.000111002
1.83801e-07
0.000111035
1.68848e-07
0.000111068
1.52842e-07
0.0001111
1.35945e-07
0.000111132
1.18286e-07
0.000111164
9.9975e-08
0.000111196
8.10971e-08
0.000111227
6.17217e-08
0.000111258
4.19039e-08
0.000111289
2.1688e-08
0.00011132
1.11136e-09
0.00011135
-1.97919e-08
0.00011138
-4.09869e-08
0.00011141
-6.24342e-08
0.000111439
-8.40865e-08
0.000111467
-1.05891e-07
-1.27749e-07
0.000111495
0.000113718
2.0617e-08
0.000113727
5.98304e-08
0.00011374
9.5097e-08
0.000113758
1.25645e-07
0.00011378
1.51121e-07
0.000113804
1.71471e-07
0.000113831
1.86846e-07
0.000113861
1.97552e-07
0.000113891
2.03988e-07
0.000113923
2.06589e-07
0.000113955
2.05795e-07
0.000113988
2.02025e-07
0.000114021
1.9567e-07
0.000114054
1.87084e-07
0.000114087
1.76582e-07
0.00011412
1.64441e-07
0.000114153
1.509e-07
0.000114186
1.36166e-07
0.000114218
1.20414e-07
0.00011425
1.03792e-07
0.000114282
8.64239e-08
0.000114314
6.8411e-08
0.000114345
4.98382e-08
0.000114376
3.0775e-08
0.000114407
1.12791e-08
0.000114437
-8.60035e-09
0.000114467
-2.88198e-08
0.000114496
-4.93379e-08
0.000114526
-7.0113e-08
0.000114554
-9.11001e-08
0.000114582
-1.12249e-07
0.00011461
-1.33507e-07
-1.5478e-07
0.000114637
0.000116967
1.78249e-08
0.000116975
5.17061e-08
0.000116988
8.21054e-08
0.000117006
1.08366e-07
0.000117026
1.30181e-07
0.00011705
1.47486e-07
0.000117077
1.60393e-07
0.000117105
1.69149e-07
0.000117135
1.74085e-07
0.000117166
1.75569e-07
0.000117198
1.73976e-07
0.00011723
1.69671e-07
0.000117263
1.62992e-07
0.000117296
1.54252e-07
0.000117329
1.43729e-07
0.000117362
1.31671e-07
0.000117394
1.18293e-07
0.000117427
1.03781e-07
0.000117459
8.82953e-08
0.00011749
7.19718e-08
0.000117522
5.49254e-08
0.000117553
3.72529e-08
0.000117584
1.9036e-08
0.000117614
3.43723e-10
0.000117644
-1.87648e-08
0.000117674
-3.82372e-08
0.000117703
-5.80259e-08
0.000117732
-7.80851e-08
0.00011776
-9.83689e-08
0.000117788
-1.18829e-07
0.000117815
-1.39416e-07
0.000117842
-1.60076e-07
-1.80724e-07
0.000117868
0.000120309
1.51186e-08
0.000120317
4.38388e-08
0.000120329
6.95315e-08
0.000120346
9.16255e-08
0.000120366
1.09853e-07
0.00012039
1.24145e-07
0.000120415
1.34581e-07
0.000120443
1.41362e-07
0.000120473
1.4476e-07
0.000120503
1.4508e-07
0.000120534
1.42643e-07
0.000120566
1.37759e-07
0.000120599
1.30719e-07
0.000120631
1.21796e-07
0.000120663
1.11233e-07
0.000120696
9.92477e-08
0.000120728
8.60315e-08
0.00012076
7.1751e-08
0.000120792
5.65503e-08
0.000120823
4.05534e-08
0.000120854
2.38664e-08
0.000120885
6.58024e-09
0.000120915
-1.12272e-08
0.000120945
-2.94882e-08
0.000120975
-4.81433e-08
0.000121003
-6.71388e-08
0.000121032
-8.64248e-08
0.00012106
-1.05953e-07
0.000121087
-1.25676e-07
0.000121114
-1.45544e-07
0.00012114
-1.65508e-07
0.000121165
-1.85517e-07
-2.0549e-07
0.00012119
0.000123746
1.24947e-08
0.000123753
3.62135e-08
0.000123766
5.73435e-08
0.000123782
7.5381e-08
0.000123802
9.00894e-08
0.000123824
1.01398e-07
0.00012385
1.09368e-07
0.000123877
1.14156e-07
0.000123906
1.15984e-07
0.000123936
1.15104e-07
0.000123966
1.11787e-07
0.000123998
1.06291e-07
0.00012403
9.88645e-08
0.000124062
8.97386e-08
0.000124094
7.91241e-08
0.000124126
6.72095e-08
0.000124158
5.41623e-08
0.000124189
4.01294e-08
0.000124221
2.52389e-08
0.000124252
9.6026e-09
0.000124282
-6.68271e-09
0.000124312
-2.35328e-08
0.000124342
-4.0874e-08
0.000124371
-5.86413e-08
0.0001244
-7.67761e-08
0.000124428
-9.52247e-08
0.000124455
-1.13937e-07
0.000124482
-1.32863e-07
0.000124509
-1.51955e-07
0.000124534
-1.71165e-07
0.000124559
-1.90443e-07
0.000124583
-2.09744e-07
-2.28989e-07
0.000124607
0.000127281
9.94806e-09
0.000127288
2.88132e-08
0.0001273
4.55087e-08
0.000127316
5.95871e-08
0.000127335
7.08362e-08
0.000127358
7.91932e-08
0.000127382
8.47013e-08
0.000127409
8.74841e-08
0.000127437
8.77211e-08
0.000127467
8.56147e-08
0.000127497
8.13943e-08
0.000127528
7.52658e-08
0.000127559
6.74344e-08
0.000127591
5.8096e-08
0.000127623
4.74277e-08
0.000127654
3.55902e-08
0.000127686
2.2727e-08
0.000127717
8.96512e-09
0.000127748
-5.58327e-09
0.000127778
-2.08194e-08
0.000127808
-3.6656e-08
0.000127838
-5.30162e-08
0.000127867
-6.98316e-08
0.000127895
-8.70406e-08
0.000127923
-1.04587e-07
0.00012795
-1.22418e-07
0.000127977
-1.40484e-07
0.000128003
-1.58736e-07
0.000128028
-1.77128e-07
0.000128052
-1.95612e-07
0.000128076
-2.1414e-07
0.000128099
-2.3267e-07
-2.51128e-07
0.000128121
0.000130917
7.47489e-09
0.000130925
2.16242e-08
0.000130936
3.40022e-08
0.000130951
4.42086e-08
0.00013097
5.20492e-08
0.000130992
5.74783e-08
0.000131016
6.05299e-08
0.000131042
6.12996e-08
0.00013107
5.99303e-08
0.000131099
5.65749e-08
0.000131129
5.14352e-08
0.00013116
4.46609e-08
0.000131191
3.64191e-08
0.000131222
2.68692e-08
0.000131253
1.61551e-08
0.000131284
4.41038e-09
0.000131315
-8.24469e-09
0.000131346
-2.17039e-08
0.000131376
-3.58712e-08
0.000131406
-5.06609e-08
0.000131435
-6.59961e-08
0.000131464
-8.18079e-08
0.000131492
-9.80341e-08
0.00013152
-1.14617e-07
0.000131547
-1.31504e-07
0.000131573
-1.48645e-07
0.000131599
-1.65992e-07
0.000131623
-1.83498e-07
0.000131647
-2.01118e-07
0.000131671
-2.18806e-07
0.000131693
-2.36518e-07
0.000131715
-2.54213e-07
-2.71822e-07
0.000131735
0.000134658
5.06618e-09
0.000134665
1.4623e-08
0.000134676
2.27818e-08
0.000134691
2.91898e-08
0.000134709
3.3663e-08
0.00013473
3.61864e-08
0.000134754
3.67876e-08
0.00013478
3.55413e-08
0.000134807
3.2555e-08
0.000134836
2.79437e-08
0.000134866
2.18937e-08
0.000134896
1.44653e-08
0.000134926
5.81529e-09
0.000134957
-3.93585e-09
0.000134988
-1.46805e-08
0.000135019
-2.63073e-08
0.000135049
-3.87233e-08
0.000135079
-5.18412e-08
0.000135109
-6.5582e-08
0.000135138
-7.98735e-08
0.000135167
-9.46498e-08
0.000135195
-1.09851e-07
0.000135222
-1.25421e-07
0.000135249
-1.41308e-07
0.000135275
-1.57464e-07
0.0001353
-1.73841e-07
0.000135325
-1.90394e-07
0.000135348
-2.0708e-07
0.000135371
-2.23854e-07
0.000135393
-2.40675e-07
0.000135414
-2.575e-07
0.000135434
-2.74292e-07
-2.90984e-07
0.000135453
0.000138505
2.73384e-09
0.000138511
7.82682e-09
0.000138522
1.18678e-08
0.000138537
1.45318e-08
0.000138555
1.56415e-08
0.000138576
1.52633e-08
0.000138599
1.34072e-08
0.000138625
1.01408e-08
0.000138652
5.53527e-09
0.00013868
-4.01765e-10
0.000138709
-7.31837e-09
0.000138739
-1.53913e-08
0.000138769
-2.44292e-08
0.0001388
-3.43605e-08
0.00013883
-4.51019e-08
0.00013886
-5.65742e-08
0.00013889
-6.87071e-08
0.00013892
-8.14343e-08
0.000138949
-9.46934e-08
0.000138978
-1.08426e-07
0.000139006
-1.22579e-07
0.000139033
-1.371e-07
0.000139059
-1.51943e-07
0.000139085
-1.6706e-07
0.00013911
-1.82408e-07
0.000139134
-1.97944e-07
0.000139157
-2.13626e-07
0.00013918
-2.29414e-07
0.000139201
-2.45268e-07
0.000139222
-2.61148e-07
0.000139241
-2.77015e-07
0.00013926
-2.92834e-07
-3.08543e-07
0.000139277
0.000142462
4.22334e-10
0.000142468
1.13502e-09
0.000142479
1.11667e-09
0.000142493
1.54139e-10
0.000142511
-2.10524e-09
0.000142532
-5.37541e-09
0.000142555
-9.68856e-09
0.00014258
-1.49849e-08
0.000142607
-2.12116e-08
0.000142635
-2.83223e-08
0.000142664
-3.62156e-08
0.000142693
-4.49063e-08
0.000142723
-5.43169e-08
0.000142753
-6.43967e-08
0.000142783
-7.50988e-08
0.000142813
-8.63745e-08
0.000142842
-9.81766e-08
0.000142871
-1.10459e-07
0.0001429
-1.23178e-07
0.000142928
-1.36288e-07
0.000142955
-1.49749e-07
0.000142981
-1.63519e-07
0.000143007
-1.77559e-07
0.000143032
-1.91829e-07
0.000143055
-2.06291e-07
0.000143078
-2.20907e-07
0.0001431
-2.3564e-07
0.000143122
-2.50452e-07
0.000143142
-2.65307e-07
0.000143161
-2.80169e-07
0.000143179
-2.95002e-07
0.000143195
-3.09773e-07
-3.24426e-07
0.000143211
0.000146531
-1.68926e-09
0.000146538
-5.16074e-09
0.000146548
-9.17197e-09
0.000146562
-1.39788e-08
0.00014658
-1.95913e-08
0.0001466
-2.58407e-08
0.000146623
-3.26696e-08
0.000146648
-4.00279e-08
0.000146675
-4.78807e-08
0.000146703
-5.62229e-08
0.000146731
-6.50189e-08
0.000146761
-7.42818e-08
0.000146791
-8.40042e-08
0.00014682
-9.41719e-08
0.00014685
-1.0477e-07
0.000146879
-1.1578e-07
0.000146908
-1.27179e-07
0.000146937
-1.38943e-07
0.000146965
-1.51043e-07
0.000146992
-1.63453e-07
0.000147018
-1.76141e-07
0.000147044
-1.89078e-07
0.000147069
-2.02232e-07
0.000147092
-2.15572e-07
0.000147115
-2.29064e-07
0.000147137
-2.42677e-07
0.000147158
-2.56378e-07
0.000147177
-2.70133e-07
0.000147196
-2.83911e-07
0.000147213
-2.97678e-07
0.00014723
-3.11402e-07
0.000147245
-3.25054e-07
-3.38582e-07
0.000147259
0.000150718
-4.0947e-09
0.000150725
-1.16788e-08
0.000150735
-1.95722e-08
0.000150749
-2.79987e-08
0.000150766
-3.68837e-08
0.000150787
-4.6046e-08
0.000150809
-5.53671e-08
0.000150834
-6.47826e-08
0.00015086
-7.42703e-08
0.000150888
-8.38458e-08
0.000150916
-9.35287e-08
0.000150946
-1.03362e-07
0.000150975
-1.1338e-07
0.000151004
-1.23608e-07
0.000151034
-1.34064e-07
0.000151063
-1.4476e-07
0.000151091
-1.557e-07
0.000151119
-1.66881e-07
0.000151146
-1.78294e-07
0.000151173
-1.89928e-07
0.000151198
-2.01766e-07
0.000151223
-2.13789e-07
0.000151247
-2.25974e-07
0.00015127
-2.38298e-07
0.000151291
-2.50735e-07
0.000151312
-2.63258e-07
0.000151331
-2.75841e-07
0.00015135
-2.88455e-07
0.000151367
-3.01071e-07
0.000151383
-3.1366e-07
0.000151398
-3.26193e-07
0.000151411
-3.38645e-07
-3.50966e-07
0.000151424
0.000155023
-5.36276e-09
0.000155028
-1.68608e-08
0.000155037
-2.89405e-08
0.000155051
-4.16005e-08
0.000155069
-5.43385e-08
0.000155089
-6.67878e-08
0.000155113
-7.87821e-08
0.000155138
-9.02888e-08
0.000155165
-1.01351e-07
0.000155193
-1.12051e-07
0.000155222
-1.2248e-07
0.000155252
-1.32734e-07
0.000155281
-1.42897e-07
0.000155311
-1.53039e-07
0.00015534
-1.63215e-07
0.000155369
-1.73469e-07
0.000155397
-1.83828e-07
0.000155424
-1.94312e-07
0.000155451
-2.0493e-07
0.000155477
-2.15685e-07
0.000155501
-2.26572e-07
0.000155525
-2.37582e-07
0.000155548
-2.48704e-07
0.000155569
-2.5992e-07
0.00015559
-2.71211e-07
0.000155609
-2.82557e-07
0.000155627
-2.93936e-07
0.000155644
-3.05325e-07
0.00015566
-3.16698e-07
0.000155674
-3.28031e-07
0.000155687
-3.39299e-07
0.000155699
-3.50481e-07
-3.61531e-07
0.00015571
0.000159454
-9.12174e-09
0.000159461
-2.3801e-08
0.000159471
-3.90164e-08
0.000159485
-5.48469e-08
0.000159501
-7.08239e-08
0.000159521
-8.63651e-08
0.000159543
-1.01093e-07
0.000159568
-1.14863e-07
0.000159594
-1.27698e-07
0.000159622
-1.39704e-07
0.00015965
-1.5102e-07
0.000159679
-1.61794e-07
0.000159708
-1.72162e-07
0.000159738
-1.82244e-07
0.000159767
-1.92135e-07
0.000159795
-2.01916e-07
0.000159823
-2.11644e-07
0.00015985
-2.21366e-07
0.000159876
-2.31112e-07
0.000159901
-2.40903e-07
0.000159925
-2.50748e-07
0.000159949
-2.60652e-07
0.00015997
-2.70612e-07
0.000159991
-2.80621e-07
0.000160011
-2.90667e-07
0.000160029
-3.00737e-07
0.000160046
-3.10815e-07
0.000160061
-3.20881e-07
0.000160075
-3.30917e-07
0.000160088
-3.40901e-07
0.0001601
-3.50813e-07
0.00016011
-3.60631e-07
-3.7032e-07
0.000160119
0.000164003
-6.45394e-09
0.000164005
-2.54405e-08
0.000164013
-4.68557e-08
0.000164027
-6.89731e-08
0.000164046
-9.00722e-08
0.000164069
-1.09406e-07
0.000164095
-1.26835e-07
0.000164123
-1.42478e-07
0.000164152
-1.56555e-07
0.000164181
-1.69313e-07
0.000164211
-1.80996e-07
0.000164241
-1.91829e-07
0.000164271
-2.02009e-07
0.0001643
-2.11696e-07
0.000164329
-2.21026e-07
0.000164358
-2.30101e-07
0.000164385
-2.39006e-07
0.000164411
-2.47801e-07
0.000164437
-2.56533e-07
0.000164461
-2.65234e-07
0.000164484
-2.73925e-07
0.000164506
-2.8262e-07
0.000164527
-2.91325e-07
0.000164546
-3.00038e-07
0.000164564
-3.08755e-07
0.000164581
-3.17469e-07
0.000164597
-3.26167e-07
0.000164611
-3.34837e-07
0.000164623
-3.43463e-07
0.000164634
-3.52029e-07
0.000164644
-3.60519e-07
0.000164652
-3.68916e-07
-3.77187e-07
0.000164659
0.000168701
-1.58237e-08
0.000168709
-3.33616e-08
0.000168717
-5.43203e-08
0.000168726
-7.8273e-08
0.000168739
-1.03223e-07
0.000168757
-1.26939e-07
0.000168778
-1.48272e-07
0.000168802
-1.67018e-07
0.000168829
-1.83402e-07
0.000168858
-1.9776e-07
0.000168887
-2.10441e-07
0.000168917
-2.21775e-07
0.000168947
-2.3205e-07
0.000168977
-2.41506e-07
0.000169006
-2.50342e-07
0.000169035
-2.58713e-07
0.000169063
-2.66743e-07
0.000169089
-2.74527e-07
0.000169115
-2.82136e-07
0.000169139
-2.89624e-07
0.000169163
-2.9703e-07
0.000169184
-3.04379e-07
0.000169205
-3.11689e-07
0.000169224
-3.1897e-07
0.000169241
-3.26224e-07
0.000169257
-3.33449e-07
0.000169271
-3.40642e-07
0.000169284
-3.47794e-07
0.000169296
-3.54894e-07
0.000169306
-3.6193e-07
0.000169314
-3.68889e-07
0.000169321
-3.75759e-07
-3.82511e-07
0.000169326
0.000173491
4.19193e-09
0.000173485
-2.69e-08
0.000173494
-6.3405e-08
0.000173515
-9.90092e-08
0.000173542
-1.30365e-07
0.000173572
-1.57103e-07
0.000173604
-1.7983e-07
0.000173636
-1.99132e-07
0.000173668
-2.15585e-07
0.0001737
-2.29695e-07
0.000173731
-2.41916e-07
0.000173762
-2.52638e-07
0.000173792
-2.62183e-07
0.000173822
-2.70808e-07
0.00017385
-2.78721e-07
0.000173877
-2.86087e-07
0.000173904
-2.93036e-07
0.000173929
-2.99669e-07
0.000173953
-3.06064e-07
0.000173975
-3.12281e-07
0.000173997
-3.18363e-07
0.000174017
-3.24343e-07
0.000174035
-3.30244e-07
0.000174052
-3.36079e-07
0.000174068
-3.41859e-07
0.000174082
-3.47587e-07
0.000174095
-3.53262e-07
0.000174106
-3.58881e-07
0.000174115
-3.64439e-07
0.000174123
-3.69927e-07
0.00017413
-3.75336e-07
0.000174135
-3.80657e-07
-3.85866e-07
0.000174138
0.000178498
-2.48692e-08
0.000178499
-2.87053e-08
0.000178488
-5.18794e-08
0.000178479
-9.01169e-08
0.000178481
-1.32219e-07
0.000178494
-1.69784e-07
0.000178514
-2.00573e-07
0.00017854
-2.25327e-07
0.00017857
-2.4536e-07
0.000178602
-2.61657e-07
0.000178635
-2.7502e-07
0.000178669
-2.86118e-07
0.000178702
-2.95477e-07
0.000178735
-3.03509e-07
0.000178767
-3.10533e-07
0.000178797
-3.16794e-07
0.000178827
-3.22479e-07
0.000178855
-3.2773e-07
0.000178881
-3.32655e-07
0.000178906
-3.37336e-07
0.00017893
-3.41832e-07
0.000178952
-3.46187e-07
0.000178972
-3.50435e-07
0.00017899
-3.54597e-07
0.000179007
-3.58688e-07
0.000179022
-3.62717e-07
0.000179036
-3.66689e-07
0.000179048
-3.70604e-07
0.000179058
-3.74461e-07
0.000179066
-3.78256e-07
0.000179073
-3.81983e-07
0.000179078
-3.85638e-07
-3.89203e-07
0.000179081
0.000183487
5.5882e-08
0.000183465
-6.70889e-09
0.0001835
-8.77239e-08
0.000183551
-1.40805e-07
0.000183601
-1.82189e-07
0.000183646
-2.14475e-07
0.000183686
-2.40408e-07
0.000183722
-2.61783e-07
0.000183756
-2.79317e-07
0.000183788
-2.93719e-07
0.000183819
-3.05656e-07
0.000183848
-3.15642e-07
0.000183877
-3.24077e-07
0.000183905
-3.31278e-07
0.000183932
-3.37498e-07
0.000183958
-3.42939e-07
0.000183983
-3.47758e-07
0.000184007
-3.5208e-07
0.000184031
-3.56003e-07
0.000184053
-3.59606e-07
0.000184074
-3.62947e-07
0.000184094
-3.66076e-07
0.000184113
-3.69028e-07
0.00018413
-3.71832e-07
0.000184146
-3.7451e-07
0.00018416
-3.77076e-07
0.000184173
-3.79542e-07
0.000184184
-3.81915e-07
0.000184194
-3.84201e-07
0.000184202
-3.86399e-07
0.000184209
-3.88509e-07
0.000184214
-3.90527e-07
-3.92446e-07
0.000184217
0.000188861
7.24601e-09
0.000188795
5.88923e-08
0.000188709
-1.2759e-09
0.000188644
-7.64919e-08
0.000188625
-1.63351e-07
0.000188638
-2.27109e-07
0.000188669
-2.71421e-07
0.00018871
-3.03086e-07
0.000188757
-3.26333e-07
0.000188807
-3.43742e-07
0.000188859
-3.56943e-07
0.00018891
-3.67059e-07
0.000188961
-3.7489e-07
0.000189011
-3.81005e-07
0.000189059
-3.85818e-07
0.000189106
-3.8963e-07
0.000189151
-3.92668e-07
0.000189194
-3.951e-07
0.000189235