/*--------------------------------*- C++ -*----------------------------------*\
| =========                 |                                                 |
| \\      /  F ield         | OpenFOAM: The Open Source CFD Toolbox           |
|  \\    /   O peration     | Version:  2.1.1                                 |
|   \\  /    A nd           | Web:      www.OpenFOAM.org                      |
|    \\/     M anipulation  |                                                 |
\*---------------------------------------------------------------------------*/
FoamFile
{
    version     2.0;
    format      ascii;
    class       volVectorField;
    location    "0.105";
    object      U;
}
// * * * * * * * * * * * * * * * * * * * * * * * * * * * * * * * * * * * * * //

dimensions      [0 1 -1 0 0 0 0];

internalField   nonuniform List<vector> 
6820
(
(8.34337 -0.360078 0)
(8.40112 -0.247163 0)
(8.35616 -0.115305 0)
(8.24794 -0.036575 0)
(8.11959 0.00598301 0)
(7.98628 0.027836 0)
(7.85431 0.0385969 0)
(7.72708 0.0432882 0)
(7.606 0.0445514 0)
(7.49161 0.0438432 0)
(7.38414 0.0420051 0)
(7.28363 0.0395412 0)
(7.18996 0.0367628 0)
(7.1029 0.0338651 0)
(7.0222 0.0309718 0)
(6.94752 0.0281603 0)
(6.87851 0.0254777 0)
(6.81483 0.0229508 0)
(6.75611 0.0205928 0)
(6.70199 0.0184082 0)
(6.65214 0.0163954 0)
(6.60623 0.0145499 0)
(6.56393 0.0128656 0)
(6.52495 0.0113374 0)
(6.48899 0.00996257 0)
(6.45575 0.00874536 0)
(6.42492 0.00770112 0)
(6.39609 0.00688003 0)
(6.36883 0.0063755 0)
(6.34224 0.00646404 0)
(6.31472 0.00796727 0)
(6.28361 0.0114684 0)
(6.23879 0.0302012 0)
(8.32139 0.166247 0)
(8.28709 0.18999 0)
(8.28545 0.132136 0)
(8.31743 0.0958177 0)
(8.36175 0.0749692 0)
(8.40184 0.0622959 0)
(8.43298 0.0548005 0)
(8.45512 0.0502631 0)
(8.46913 0.0473427 0)
(8.47602 0.0453258 0)
(8.47682 0.0438174 0)
(8.47248 0.0425798 0)
(8.46382 0.0414737 0)
(8.45157 0.040422 0)
(8.43638 0.039384 0)
(8.41881 0.0383406 0)
(8.39932 0.0372855 0)
(8.37835 0.0362193 0)
(8.35624 0.0351461 0)
(8.33331 0.0340722 0)
(8.30982 0.0330043 0)
(8.28597 0.0319499 0)
(8.26196 0.0309172 0)
(8.23793 0.0299162 0)
(8.21402 0.0289611 0)
(8.19033 0.0280732 0)
(8.16695 0.0272903 0)
(8.14392 0.0266817 0)
(8.1215 0.0263717 0)
(8.09944 0.0266922 0)
(8.08001 0.0280003 0)
(8.06044 0.0323917 0)
(8.0626 0.0396358 0)
(8.3225 -0.0608897 0)
(8.31399 -0.0832964 0)
(8.33054 -0.0541205 0)
(8.34439 -0.0203346 0)
(8.35331 0.00236111 0)
(8.36238 0.0164715 0)
(8.37217 0.0256935 0)
(8.38227 0.0318924 0)
(8.39219 0.0360915 0)
(8.40155 0.038936 0)
(8.41011 0.0408204 0)
(8.41773 0.0419884 0)
(8.42435 0.0426135 0)
(8.42996 0.0428268 0)
(8.43459 0.0427272 0)
(8.43826 0.0423907 0)
(8.44104 0.0418763 0)
(8.44299 0.04123 0)
(8.44417 0.0404882 0)
(8.44466 0.0396795 0)
(8.44453 0.038827 0)
(8.44383 0.0379498 0)
(8.44263 0.0370645 0)
(8.441 0.0361872 0)
(8.43898 0.0353359 0)
(8.43662 0.0345321 0)
(8.43398 0.0338139 0)
(8.4311 0.0332178 0)
(8.42809 0.032877 0)
(8.42501 0.0327394 0)
(8.42237 0.0334842 0)
(8.42004 0.0331401 0)
(8.41938 0.0358918 0)
(8.33365 0.0145569 0)
(8.32978 0.047677 0)
(8.32741 0.0539299 0)
(8.32878 0.0465061 0)
(8.3347 0.0409909 0)
(8.34229 0.0384677 0)
(8.34985 0.0376363 0)
(8.35715 0.0375684 0)
(8.36422 0.0377625 0)
(8.37104 0.0379981 0)
(8.37757 0.0381761 0)
(8.3838 0.0382552 0)
(8.3897 0.0382254 0)
(8.39527 0.0380896 0)
(8.4005 0.0378559 0)
(8.40538 0.0375347 0)
(8.40992 0.0371378 0)
(8.41414 0.036677 0)
(8.41805 0.0361638 0)
(8.42167 0.0356088 0)
(8.42501 0.035022 0)
(8.42811 0.0344133 0)
(8.43097 0.0337929 0)
(8.43363 0.0331721 0)
(8.43611 0.0325657 0)
(8.43842 0.0319924 0)
(8.44062 0.0314824 0)
(8.44271 0.0310704 0)
(8.44483 0.0308275 0)
(8.447 0.0307776 0)
(8.44971 0.0310741 0)
(8.45292 0.0313858 0)
(8.45813 0.0321745 0)
(8.3302 -0.00531813 0)
(8.32723 -0.00753024 0)
(8.33141 -0.00249808 0)
(8.33612 0.00796713 0)
(8.34024 0.0171206 0)
(8.34446 0.0233146 0)
(8.34893 0.0274731 0)
(8.35366 0.0304078 0)
(8.35856 0.0325199 0)
(8.36353 0.0340413 0)
(8.36846 0.0351169 0)
(8.37333 0.0358408 0)
(8.37809 0.0362792 0)
(8.38272 0.0364831 0)
(8.38721 0.0364943 0)
(8.39154 0.036348 0)
(8.39572 0.0360737 0)
(8.39975 0.0356962 0)
(8.40363 0.0352365 0)
(8.40737 0.0347122 0)
(8.41098 0.0341386 0)
(8.41448 0.033529 0)
(8.41786 0.0328962 0)
(8.42115 0.0322526 0)
(8.42436 0.0316128 0)
(8.42751 0.0309925 0)
(8.43062 0.0304149 0)
(8.43374 0.0298986 0)
(8.43694 0.0294857 0)
(8.4403 0.0291417 0)
(8.44405 0.0289449 0)
(8.44825 0.028415 0)
(8.45326 0.0277927 0)
(8.33239 0.00227501 0)
(8.33119 0.013281 0)
(8.33283 0.0203491 0)
(8.33556 0.0237152 0)
(8.33905 0.0258413 0)
(8.34315 0.0276199 0)
(8.34744 0.029265 0)
(8.35175 0.0307248 0)
(8.35608 0.0319184 0)
(8.36039 0.0328343 0)
(8.36466 0.0334941 0)
(8.36888 0.0339255 0)
(8.37304 0.0341566 0)
(8.37711 0.0342158 0)
(8.3811 0.0341293 0)
(8.38499 0.0339205 0)
(8.3888 0.0336096 0)
(8.39252 0.0332141 0)
(8.39615 0.0327494 0)
(8.39971 0.0322284 0)
(8.40319 0.0316628 0)
(8.4066 0.031063 0)
(8.40997 0.0304387 0)
(8.41328 0.0297998 0)
(8.41657 0.029157 0)
(8.41985 0.0285216 0)
(8.42314 0.0279073 0)
(8.42647 0.0273224 0)
(8.42993 0.0267795 0)
(8.43355 0.0262417 0)
(8.43749 0.0256938 0)
(8.44178 0.0248697 0)
(8.44654 0.0237591 0)
(8.33233 0.000860572 0)
(8.33153 0.00574757 0)
(8.33344 0.0107001 0)
(8.33651 0.015474 0)
(8.33995 0.0198314 0)
(8.34365 0.0233109 0)
(8.34745 0.0259587 0)
(8.35129 0.0279697 0)
(8.35516 0.0294802 0)
(8.35904 0.0305923 0)
(8.3629 0.0313826 0)
(8.36672 0.0319065 0)
(8.37049 0.0322069 0)
(8.37421 0.0323191 0)
(8.37786 0.0322732 0)
(8.38145 0.0320943 0)
(8.38497 0.0318041 0)
(8.38844 0.0314211 0)
(8.39184 0.0309609 0)
(8.3952 0.0304373 0)
(8.39851 0.0298616 0)
(8.40178 0.0292443 0)
(8.40502 0.0285945 0)
(8.40825 0.0279208 0)
(8.41147 0.0272315 0)
(8.41471 0.026534 0)
(8.41798 0.0258351 0)
(8.42132 0.0251343 0)
(8.42478 0.0244277 0)
(8.4284 0.0236735 0)
(8.43225 0.0228298 0)
(8.43634 0.0217157 0)
(8.44068 0.0202628 0)
(8.33272 0.00169773 0)
(8.33256 0.00725137 0)
(8.3342 0.0125177 0)
(8.33681 0.0167522 0)
(8.33988 0.0201698 0)
(8.34331 0.0228584 0)
(8.34691 0.024981 0)
(8.35058 0.0266706 0)
(8.35427 0.0279864 0)
(8.35795 0.0289744 0)
(8.3616 0.0296802 0)
(8.36521 0.0301434 0)
(8.36877 0.0303983 0)
(8.37227 0.0304752 0)
(8.37572 0.0304007 0)
(8.37911 0.0301976 0)
(8.38245 0.0298858 0)
(8.38573 0.0294821 0)
(8.38898 0.0290009 0)
(8.39218 0.0284545 0)
(8.39535 0.0278534 0)
(8.3985 0.0272064 0)
(8.40163 0.0265214 0)
(8.40476 0.0258051 0)
(8.40789 0.0250629 0)
(8.41105 0.0242985 0)
(8.41426 0.0235131 0)
(8.41754 0.0227004 0)
(8.42092 0.0218471 0)
(8.42443 0.0209142 0)
(8.42812 0.0198537 0)
(8.43197 0.0185499 0)
(8.43594 0.0169409 0)
(8.33284 0.00177413 0)
(8.33294 0.00641706 0)
(8.33446 0.0109013 0)
(8.33689 0.0147598 0)
(8.33979 0.0180924 0)
(8.34303 0.0208504 0)
(8.34644 0.02306 0)
(8.34992 0.0248039 0)
(8.35344 0.0261475 0)
(8.35695 0.0271483 0)
(8.36045 0.0278593 0)
(8.36391 0.0283242 0)
(8.36732 0.0285791 0)
(8.37069 0.0286546 0)
(8.374 0.0285771 0)
(8.37726 0.0283689 0)
(8.38047 0.0280493 0)
(8.38364 0.0276344 0)
(8.38676 0.0271382 0)
(8.38986 0.0265722 0)
(8.39293 0.0259462 0)
(8.39598 0.0252682 0)
(8.39902 0.0245449 0)
(8.40206 0.0237814 0)
(8.40511 0.0229811 0)
(8.40819 0.0221448 0)
(8.41132 0.0212701 0)
(8.41451 0.0203474 0)
(8.41779 0.0193598 0)
(8.42117 0.0182733 0)
(8.42467 0.017045 0)
(8.42828 0.0156002 0)
(8.43193 0.0138939 0)
(8.33294 0.00181421 0)
(8.33324 0.00608953 0)
(8.33465 0.0102668 0)
(8.33688 0.013897 0)
(8.33957 0.016996 0)
(8.34258 0.0195521 0)
(8.3458 0.0216053 0)
(8.34912 0.0232344 0)
(8.35249 0.024499 0)
(8.35588 0.0254467 0)
(8.35926 0.0261212 0)
(8.3626 0.0265598 0)
(8.36591 0.0267948 0)
(8.36917 0.0268541 0)
(8.37239 0.0267619 0)
(8.37556 0.0265392 0)
(8.37868 0.0262041 0)
(8.38176 0.0257716 0)
(8.38481 0.0252548 0)
(8.38782 0.0246644 0)
(8.39081 0.0240092 0)
(8.39379 0.0232965 0)
(8.39676 0.0225316 0)
(8.39972 0.0217183 0)
(8.40271 0.0208582 0)
(8.40571 0.0199503 0)
(8.40876 0.0189896 0)
(8.41186 0.0179656 0)
(8.41503 0.0168613 0)
(8.41828 0.0156485 0)
(8.4216 0.0142931 0)
(8.42498 0.0127477 0)
(8.42838 0.0109849 0)
(8.33299 0.0017758 0)
(8.33339 0.00565767 0)
(8.33471 0.00943062 0)
(8.33677 0.0127582 0)
(8.33927 0.0156312 0)
(8.34209 0.0180409 0)
(8.34513 0.0200042 0)
(8.3483 0.0215727 0)
(8.35152 0.022794 0)
(8.35478 0.0237097 0)
(8.35804 0.0243597 0)
(8.36128 0.0247793 0)
(8.36449 0.0249988 0)
(8.36767 0.0250448 0)
(8.3708 0.0249401 0)
(8.37389 0.0247046 0)
(8.37694 0.0243551 0)
(8.37995 0.023906 0)
(8.38293 0.0233693 0)
(8.38588 0.0227549 0)
(8.38881 0.022071 0)
(8.39172 0.0213238 0)
(8.39463 0.0205177 0)
(8.39753 0.0196554 0)
(8.40045 0.0187372 0)
(8.40338 0.0177609 0)
(8.40635 0.0167207 0)
(8.40936 0.0156062 0)
(8.41242 0.0144019 0)
(8.41553 0.0130859 0)
(8.41869 0.0116328 0)
(8.42188 0.010013 0)
(8.42505 0.00821202 0)
(8.33302 0.00169626 0)
(8.33347 0.00524879 0)
(8.33472 0.0086891 0)
(8.33661 0.0117603 0)
(8.33894 0.014426 0)
(8.34158 0.0166758 0)
(8.34445 0.0185194 0)
(8.34746 0.0199965 0)
(8.35054 0.0211487 0)
(8.35367 0.0220129 0)
(8.35681 0.0226241 0)
(8.35994 0.0230139 0)
(8.36306 0.0232099 0)
(8.36615 0.0232362 0)
(8.3692 0.023114 0)
(8.37222 0.0228615 0)
(8.3752 0.0224944 0)
(8.37815 0.022026 0)
(8.38106 0.0214673 0)
(8.38395 0.0208274 0)
(8.38682 0.0201136 0)
(8.38968 0.0193313 0)
(8.39252 0.0184841 0)
(8.39537 0.0175738 0)
(8.39822 0.0166 0)
(8.40109 0.0155598 0)
(8.40397 0.0144473 0)
(8.40689 0.0132531 0)
(8.40984 0.0119644 0)
(8.41282 0.0105645 0)
(8.41583 0.00903568 0)
(8.41884 0.00735987 0)
(8.42183 0.00553136 0)
(8.33303 0.00159261 0)
(8.3335 0.00484038 0)
(8.33468 0.00796648 0)
(8.33643 0.0107798 0)
(8.3386 0.0132352 0)
(8.34108 0.0153217 0)
(8.34378 0.0170438 0)
(8.34663 0.0184297 0)
(8.34958 0.0195126 0)
(8.35257 0.0203238 0)
(8.3556 0.0208939 0)
(8.35862 0.0212511 0)
(8.36164 0.0214205 0)
(8.36464 0.0214242 0)
(8.36761 0.0212817 0)
(8.37055 0.0210099 0)
(8.37346 0.0206232 0)
(8.37634 0.0201338 0)
(8.3792 0.019552 0)
(8.38202 0.0188859 0)
(8.38483 0.018142 0)
(8.38763 0.017325 0)
(8.39041 0.0164379 0)
(8.39319 0.0154818 0)
(8.39598 0.0144559 0)
(8.39877 0.0133571 0)
(8.40157 0.0121802 0)
(8.4044 0.010917 0)
(8.40724 0.00955753 0)
(8.41009 0.00808964 0)
(8.41295 0.00650143 0)
(8.41581 0.00478233 0)
(8.41864 0.00293188 0)
(8.33304 0.00147648 0)
(8.33351 0.00444014 0)
(8.33461 0.00727785 0)
(8.33625 0.00984725 0)
(8.33827 0.0121007 0)
(8.34059 0.0140248 0)
(8.34314 0.0156202 0)
(8.34584 0.016907 0)
(8.34864 0.017912 0)
(8.35151 0.018662 0)
(8.35442 0.0191836 0)
(8.35734 0.0195018 0)
(8.36026 0.019639 0)
(8.36316 0.0196155 0)
(8.36605 0.0194487 0)
(8.36891 0.0191542 0)
(8.37174 0.0187452 0)
(8.37455 0.0182327 0)
(8.37734 0.0176261 0)
(8.3801 0.0169327 0)
(8.38285 0.0161583 0)
(8.38557 0.0153071 0)
(8.38829 0.0143813 0)
(8.391 0.0133818 0)
(8.39371 0.0123076 0)
(8.39642 0.0111559 0)
(8.39914 0.00992208 0)
(8.40186 0.00859972 0)
(8.40459 0.00718114 0)
(8.40733 0.00565796 0)
(8.41005 0.0040226 0)
(8.41276 0.00226921 0)
(8.41544 0.000400347 0)
(8.33304 0.00135491 0)
(8.3335 0.00404892 0)
(8.33454 0.00661665 0)
(8.33606 0.00895075 0)
(8.33794 0.0110057 0)
(8.34012 0.0127664 0)
(8.34253 0.0142315 0)
(8.34509 0.0154146 0)
(8.34776 0.016337 0)
(8.3505 0.0170212 0)
(8.35329 0.0174898 0)
(8.3561 0.0177647 0)
(8.35892 0.0178659 0)
(8.36173 0.0178114 0)
(8.36452 0.0176173 0)
(8.3673 0.0172974 0)
(8.37006 0.0168638 0)
(8.3728 0.0163266 0)
(8.37551 0.0156941 0)
(8.3782 0.0149729 0)
(8.38087 0.0141683 0)
(8.38353 0.0132836 0)
(8.38618 0.0123211 0)
(8.38881 0.0112811 0)
(8.39144 0.0101629 0)
(8.39406 0.00896391 0)
(8.39669 0.00768051 0)
(8.39931 0.0063078 0)
(8.40193 0.00484022 0)
(8.40454 0.00327219 0)
(8.40713 0.00159917 0)
(8.4097 -0.000181709 0)
(8.41224 -0.00206639 0)
(8.33304 0.00123207 0)
(8.33348 0.00366824 0)
(8.33446 0.00598176 0)
(8.33588 0.00808996 0)
(8.33764 0.00995142 0)
(8.33969 0.0115501 0)
(8.34195 0.0128826 0)
(8.34438 0.0139582 0)
(8.34692 0.0147932 0)
(8.34954 0.0154064 0)
(8.35221 0.0158171 0)
(8.35492 0.0160441 0)
(8.35763 0.0161051 0)
(8.36035 0.0160161 0)
(8.36305 0.0157914 0)
(8.36575 0.0154436 0)
(8.36842 0.0149835 0)
(8.37108 0.01442 0)
(8.37372 0.0137607 0)
(8.37633 0.0130116 0)
(8.37893 0.0121772 0)
(8.38151 0.0112605 0)
(8.38408 0.0102633 0)
(8.38663 0.00918617 0)
(8.38917 0.00802829 0)
(8.39171 0.00678777 0)
(8.39423 0.00546177 0)
(8.39674 0.00404674 0)
(8.39925 0.00253889 0)
(8.40173 0.000934682 0)
(8.4042 -0.000768302 0)
(8.40664 -0.00257113 0)
(8.40904 -0.00446911 0)
(8.33304 0.00111039 0)
(8.33346 0.00329882 0)
(8.33438 0.00537105 0)
(8.3357 0.00726168 0)
(8.33735 0.008934 0)
(8.33928 0.0103717 0)
(8.34142 0.0115701 0)
(8.34372 0.0125349 0)
(8.34613 0.0132788 0)
(8.34864 0.0138169 0)
(8.3512 0.0141655 0)
(8.35379 0.0143408 0)
(8.35641 0.0143581 0)
(8.35903 0.0142316 0)
(8.36164 0.0139738 0)
(8.36425 0.013596 0)
(8.36684 0.0131077 0)
(8.36942 0.012517 0)
(8.37197 0.0118306 0)
(8.37451 0.0110537 0)
(8.37702 0.0101905 0)
(8.37952 0.00924352 0)
(8.38201 0.00821444 0)
(8.38447 0.00710371 0)
(8.38692 0.00591084 0)
(8.38936 0.00463444 0)
(8.39178 0.00327248 0)
(8.39419 0.00182253 0)
(8.39657 0.000282165 0)
(8.39894 -0.00135065 0)
(8.40127 -0.00307695 0)
(8.40358 -0.00489674 0)
(8.40585 -0.00680515 0)
(8.33304 0.000991206 0)
(8.33344 0.00294096 0)
(8.3343 0.00478285 0)
(8.33554 0.00646365 0)
(8.33709 0.00795125 0)
(8.3389 0.00922961 0)
(8.34092 0.010293 0)
(8.3431 0.0111449 0)
(8.3454 0.0117944 0)
(8.34779 0.012254 0)
(8.35024 0.0125369 0)
(8.35273 0.012657 0)
(8.35524 0.0126276 0)
(8.35777 0.0124607 0)
(8.36029 0.0121676 0)
(8.36281 0.011758 0)
(8.36532 0.0112403 0)
(8.36781 0.0106218 0)
(8.37028 0.00990831 0)
(8.37273 0.00910447 0)
(8.37516 0.0082138 0)
(8.37758 0.00723876 0)
(8.37997 0.00618076 0)
(8.38235 0.00504035 0)
(8.3847 0.00381727 0)
(8.38704 0.00251062 0)
(8.38935 0.00111908 0)
(8.39165 -0.000358883 0)
(8.39391 -0.00192467 0)
(8.39616 -0.00357925 0)
(8.39837 -0.00532277 0)
(8.40054 -0.00715465 0)
(8.40268 -0.00907008 0)
(8.33304 0.000875169 0)
(8.33341 0.00259462 0)
(8.33422 0.00421557 0)
(8.33538 0.00569357 0)
(8.33684 0.00700065 0)
(8.33855 0.00812142 0)
(8.34045 0.00904962 0)
(8.34252 0.00978666 0)
(8.34471 0.0103393 0)
(8.34699 0.0107172 0)
(8.34934 0.0109315 0)
(8.35173 0.0109935 0)
(8.35414 0.0109146 0)
(8.35657 0.0107052 0)
(8.35901 0.0103749 0)
(8.36143 0.00993215 0)
(8.36385 0.00938442 0)
(8.36626 0.00873791 0)
(8.36864 0.00799774 0)
(8.37101 0.007168 0)
(8.37335 0.00625177 0)
(8.37568 0.00525122 0)
(8.37798 0.00416767 0)
(8.38026 0.00300171 0)
(8.38252 0.00175335 0)
(8.38475 0.000422086 0)
(8.38696 -0.000992823 0)
(8.38914 -0.0024922 0)
(8.39129 -0.00407671 0)
(8.3934 -0.00574659 0)
(8.39549 -0.00750143 0)
(8.39753 -0.00934032 0)
(8.39954 -0.0112587 0)
(8.33303 0.000762546 0)
(8.33339 0.0022595 0)
(8.33415 0.00366773 0)
(8.33524 0.00494933 0)
(8.33661 0.00607994 0)
(8.33822 0.0070451 0)
(8.34003 0.00783824 0)
(8.34199 0.00845938 0)
(8.34407 0.00891323 0)
(8.34625 0.00920725 0)
(8.34849 0.00935036 0)
(8.35078 0.00935201 0)
(8.3531 0.00922154 0)
(8.35544 0.00896783 0)
(8.35778 0.00859903 0)
(8.36012 0.00812242 0)
(8.36245 0.00754432 0)
(8.36477 0.0068701 0)
(8.36707 0.00610418 0)
(8.36934 0.00525009 0)
(8.3716 0.00431053 0)
(8.37383 0.00328739 0)
(8.37604 0.00218193 0)
(8.37822 0.000994796 0)
(8.38038 -0.000273832 0)
(8.3825 -0.00162409 0)
(8.3846 -0.00305627 0)
(8.38666 -0.0045707 0)
(8.3887 -0.00616747 0)
(8.39069 -0.00784637 0)
(8.39265 -0.00960662 0)
(8.39456 -0.0114472 0)
(8.39643 -0.0133637 0)
(8.33303 0.00065337 0)
(8.33337 0.0019351 0)
(8.33408 0.00313788 0)
(8.33511 0.00422886 0)
(8.3364 0.00518675 0)
(8.33792 0.00599819 0)
(8.33963 0.00665655 0)
(8.3415 0.00716087 0)
(8.34348 0.00751427 0)
(8.34556 0.00772232 0)
(8.3477 0.00779213 0)
(8.3499 0.0077313 0)
(8.35212 0.00754747 0)
(8.35437 0.00724803 0)
(8.35662 0.00683978 0)
(8.35887 0.00632881 0)
(8.36111 0.00572045 0)
(8.36334 0.00501923 0)
(8.36555 0.00422889 0)
(8.36774 0.00335245 0)
(8.3699 0.00239219 0)
(8.37204 0.00134981 0)
(8.37415 0.000226443 0)
(8.37623 -0.000977235 0)
(8.37828 -0.00226088 0)
(8.3803 -0.00362437 0)
(8.38229 -0.00506769 0)
(8.38424 -0.00659075 0)
(8.38615 -0.00819331 0)
(8.38802 -0.00987481 0)
(8.38985 -0.0116343 0)
(8.39164 -0.0134707 0)
(8.39338 -0.0153799 0)
(8.33303 0.000547543 0)
(8.33334 0.00162087 0)
(8.33402 0.00262473 0)
(8.33499 0.00353045 0)
(8.33621 0.00431936 0)
(8.33765 0.00497935 0)
(8.33927 0.00550398 0)
(8.34104 0.00589154 0)
(8.34293 0.00614391 0)
(8.34492 0.0062651 0)
(8.34697 0.00626062 0)
(8.34907 0.00613635 0)
(8.35121 0.00589834 0)
(8.35336 0.00555258 0)
(8.35552 0.00510463 0)
(8.35769 0.00455947 0)
(8.35984 0.0039215 0)
(8.36198 0.00319444 0)
(8.3641 0.00238141 0)
(8.3662 0.0014849 0)
(8.36827 0.00050687 0)
(8.37031 -0.000551243 0)
(8.37232 -0.00168841 0)
(8.3743 -0.00290395 0)
(8.37625 -0.0041974 0)
(8.37816 -0.00556849 0)
(8.38003 -0.00701692 0)
(8.38187 -0.00854239 0)
(8.38366 -0.0101444 0)
(8.38541 -0.0118222 0)
(8.38711 -0.0135747 0)
(8.38876 -0.0154009 0)
(8.39037 -0.0172968 0)
(8.33303 0.000444891 0)
(8.33333 0.00131606 0)
(8.33396 0.00212671 0)
(8.33488 0.00285154 0)
(8.33603 0.00347409 0)
(8.33739 0.00398369 0)
(8.33894 0.00437436 0)
(8.34062 0.00464404 0)
(8.34243 0.00479369 0)
(8.34432 0.00482597 0)
(8.34629 0.00474524 0)
(8.3483 0.00455589 0)
(8.35035 0.00426257 0)
(8.35242 0.00386991 0)
(8.35449 0.00338221 0)
(8.35657 0.00280342 0)
(8.35863 0.00213702 0)
(8.36068 0.00138593 0)
(8.36271 0.000552642 0)
(8.36472 -0.000360851 0)
(8.3667 -0.00135297 0)
(8.36865 -0.00242252 0)
(8.37056 -0.00356862 0)
(8.37244 -0.0047906 0)
(8.37428 -0.00608799 0)
(8.37608 -0.00746037 0)
(8.37784 -0.00890733 0)
(8.37956 -0.0104284 0)
(8.38123 -0.0120229 0)
(8.38285 -0.01369 0)
(8.38443 -0.0154286 0)
(8.38596 -0.0172376 0)
(8.38743 -0.0191133 0)
(8.33303 0.000345239 0)
(8.33331 0.00102027 0)
(8.33391 0.00164346 0)
(8.33477 0.00219271 0)
(8.33587 0.00265352 0)
(8.33716 0.0030166 0)
(8.33863 0.00327642 0)
(8.34024 0.00343067 0)
(8.34196 0.00347954 0)
(8.34377 0.00342465 0)
(8.34566 0.00326926 0)
(8.34759 0.00301563 0)
(8.34955 0.00266746 0)
(8.35154 0.00222839 0)
(8.35353 0.00170158 0)
(8.35552 0.00109004 0)
(8.3575 0.000396379 0)
(8.35946 -0.00037716 0)
(8.3614 -0.00122868 0)
(8.36332 -0.00215665 0)
(8.3652 -0.00315984 0)
(8.36705 -0.00423729 0)
(8.36887 -0.00538825 0)
(8.37064 -0.00661215 0)
(8.37238 -0.00790848 0)
(8.37407 -0.00927679 0)
(8.37572 -0.0107166 0)
(8.37732 -0.0122272 0)
(8.37887 -0.0138081 0)
(8.38037 -0.0154582 0)
(8.38182 -0.0171765 0)
(8.38322 -0.0189619 0)
(8.38457 -0.0208109 0)
(8.33303 0.000248293 0)
(8.33329 0.000731927 0)
(8.33386 0.00117066 0)
(8.33468 0.00154455 0)
(8.33572 0.00184112 0)
(8.33695 0.00205394 0)
(8.33835 0.00217843 0)
(8.33989 0.00221235 0)
(8.34154 0.00215567 0)
(8.34328 0.00200799 0)
(8.34508 0.001775 0)
(8.34693 0.00145612 0)
(8.34882 0.00105311 0)
(8.35072 0.000568452 0)
(8.35263 4.41129e-06 0)
(8.35454 -0.000637192 0)
(8.35643 -0.00135468 0)
(8.35831 -0.00214653 0)
(8.36016 -0.0030115 0)
(8.36199 -0.00394856 0)
(8.36378 -0.00495687 0)
(8.36554 -0.00603576 0)
(8.36725 -0.0071847 0)
(8.36893 -0.0084032 0)
(8.37056 -0.00969083 0)
(8.37214 -0.0110471 0)
(8.37367 -0.0124716 0)
(8.37516 -0.0139636 0)
(8.37659 -0.0155223 0)
(8.37797 -0.017147 0)
(8.3793 -0.0188364 0)
(8.38057 -0.0205896 0)
(8.38179 -0.0224033 0)
(8.33302 0.000154271 0)
(8.33327 0.000453838 0)
(8.33381 0.000717653 0)
(8.33459 0.000929781 0)
(8.33558 0.0010754 0)
(8.33675 0.00115024 0)
(8.33809 0.00115082 0)
(8.33957 0.00107505 0)
(8.34115 0.000921846 0)
(8.34282 0.000692983 0)
(8.34455 0.000384177 0)
(8.34633 1.68742e-07 0)
(8.34815 -0.000457391 0)
(8.34997 -0.00098777 0)
(8.35181 -0.00158974 0)
(8.35363 -0.00226227 0)
(8.35545 -0.00300435 0)
(8.35724 -0.00381509 0)
(8.35901 -0.00469375 0)
(8.36075 -0.00563972 0)
(8.36245 -0.00665247 0)
(8.36411 -0.00773159 0)
(8.36573 -0.0088767 0)
(8.3673 -0.0100875 0)
(8.36883 -0.0113635 0)
(8.3703 -0.0127044 0)
(8.37173 -0.0141096 0)
(8.3731 -0.0155786 0)
(8.37441 -0.0171107 0)
(8.37567 -0.0187048 0)
(8.37688 -0.0203601 0)
(8.37802 -0.0220756 0)
(8.37911 -0.0238481 0)
(8.33302 6.14395e-05 0)
(8.33326 0.000173868 0)
(8.33378 0.000250027 0)
(8.33452 0.000273184 0)
(8.33546 0.000244704 0)
(8.33659 0.000158915 0)
(8.33788 1.3872e-05 0)
(8.33929 -0.000190217 0)
(8.34081 -0.000453882 0)
(8.34242 -0.00077592 0)
(8.34408 -0.00116197 0)
(8.3458 -0.0016088 0)
(8.34754 -0.00211637 0)
(8.34929 -0.0026856 0)
(8.35105 -0.00331684 0)
(8.3528 -0.00401014 0)
(8.35454 -0.00476555 0)
(8.35625 -0.00558314 0)
(8.35793 -0.0064629 0)
(8.35958 -0.00740483 0)
(8.36119 -0.00840887 0)
(8.36276 -0.00947496 0)
(8.36428 -0.010603 0)
(8.36576 -0.0117927 0)
(8.36718 -0.013044 0)
(8.36855 -0.0143565 0)
(8.36987 -0.0157297 0)
(8.37113 -0.017163 0)
(8.37233 -0.0186557 0)
(8.37347 -0.0202071 0)
(8.37456 -0.021816 0)
(8.37558 -0.0234816 0)
(8.37654 -0.0252008 0)
(8.33302 -2.47681e-05 0)
(8.33324 -7.25021e-05 0)
(8.33371 -0.000140058 0)
(8.33441 -0.000246163 0)
(8.33531 -0.000392758 0)
(8.3364 -0.000588318 0)
(8.33764 -0.000836378 0)
(8.33901 -0.00113745 0)
(8.34049 -0.00149143 0)
(8.34204 -0.0018997 0)
(8.34366 -0.00235839 0)
(8.34532 -0.00287012 0)
(8.347 -0.00343561 0)
(8.34869 -0.004055 0)
(8.35039 -0.00472858 0)
(8.35207 -0.00545671 0)
(8.35373 -0.00623979 0)
(8.35537 -0.00707819 0)
(8.35697 -0.00797225 0)
(8.35854 -0.00892228 0)
(8.36006 -0.00992853 0)
(8.36154 -0.0109912 0)
(8.36297 -0.0121104 0)
(8.36435 -0.0132861 0)
(8.36567 -0.0145182 0)
(8.36694 -0.0158067 0)
(8.36815 -0.017151 0)
(8.3693 -0.0185509 0)
(8.37039 -0.0200056 0)
(8.37141 -0.0215145 0)
(8.37238 -0.0230766 0)
(8.37328 -0.0246912 0)
(8.37412 -0.0263553 0)
(8.33303 -0.00012101 0)
(8.33325 -0.000385071 0)
(8.33372 -0.000693907 0)
(8.3344 -0.00104675 0)
(8.33527 -0.00143575 0)
(8.33631 -0.00184822 0)
(8.3375 -0.00227874 0)
(8.33882 -0.00272713 0)
(8.34024 -0.00319586 0)
(8.34174 -0.00368884 0)
(8.3433 -0.00421006 0)
(8.34489 -0.00476462 0)
(8.34651 -0.00535625 0)
(8.34814 -0.00598813 0)
(8.34977 -0.00666318 0)
(8.35138 -0.00738385 0)
(8.35297 -0.0081521 0)
(8.35453 -0.0089695 0)
(8.35606 -0.00983733 0)
(8.35755 -0.0107565 0)
(8.35899 -0.0117279 0)
(8.36038 -0.0127519 0)
(8.36172 -0.0138288 0)
(8.36301 -0.0149589 0)
(8.36424 -0.0161422 0)
(8.3654 -0.0173784 0)
(8.36651 -0.0186673 0)
(8.36756 -0.0200084 0)
(8.36854 -0.0214011 0)
(8.36946 -0.0228447 0)
(8.37031 -0.0243382 0)
(8.37109 -0.0258808 0)
(8.37181 -0.0274699 0)
(8.333 -0.000168962 0)
(8.33315 -0.000468997 0)
(8.33354 -0.00077193 0)
(8.33416 -0.00111568 0)
(8.335 -0.00151382 0)
(8.33603 -0.00196496 0)
(8.33722 -0.00246267 0)
(8.33855 -0.00299973 0)
(8.33997 -0.00357044 0)
(8.34146 -0.00417155 0)
(8.343 -0.00480131 0)
(8.34457 -0.00545978 0)
(8.34615 -0.00614799 0)
(8.34774 -0.00686745 0)
(8.34932 -0.00761999 0)
(8.35088 -0.00840753 0)
(8.35241 -0.00923191 0)
(8.3539 -0.0100949 0)
(8.35536 -0.0109981 0)
(8.35676 -0.0119428 0)
(8.35812 -0.0129304 0)
(8.35943 -0.0139617 0)
(8.36068 -0.0150377 0)
(8.36188 -0.0161588 0)
(8.36301 -0.0173256 0)
(8.36408 -0.0185381 0)
(8.36508 -0.0197966 0)
(8.36602 -0.0211007 0)
(8.3669 -0.0224502 0)
(8.36771 -0.0238447 0)
(8.36844 -0.0252835 0)
(8.36911 -0.0267661 0)
(8.36972 -0.0282899 0)
(8.33305 -0.000353701 0)
(8.33333 -0.00113683 0)
(8.33378 -0.00199984 0)
(8.33439 -0.00287689 0)
(8.33516 -0.00371235 0)
(8.33611 -0.00448564 0)
(8.33721 -0.00519859 0)
(8.33844 -0.00586233 0)
(8.33977 -0.00649101 0)
(8.34119 -0.00709893 0)
(8.34266 -0.00769907 0)
(8.34417 -0.00830284 0)
(8.3457 -0.00891975 0)
(8.34723 -0.00955741 0)
(8.34875 -0.0102219 0)
(8.35025 -0.010918 0)
(8.35173 -0.0116495 0)
(8.35316 -0.0124192 0)
(8.35455 -0.0132295 0)
(8.3559 -0.0140818 0)
(8.35719 -0.0149775 0)
(8.35843 -0.0159174 0)
(8.3596 -0.0169021 0)
(8.36072 -0.0179318 0)
(8.36177 -0.0190068 0)
(8.36275 -0.0201268 0)
(8.36367 -0.0212917 0)
(8.36452 -0.0225011 0)
(8.3653 -0.0237543 0)
(8.366 -0.0250507 0)
(8.36664 -0.0263894 0)
(8.36721 -0.0277698 0)
(8.3677 -0.0291894 0)
(8.33294 -0.000124148 0)
(8.33285 -0.000278711 0)
(8.33306 -0.000493638 0)
(8.33362 -0.000899237 0)
(8.33449 -0.00149944 0)
(8.33558 -0.00223935 0)
(8.33683 -0.0030624 0)
(8.33819 -0.00392813 0)
(8.33963 -0.00481134 0)
(8.34113 -0.00569761 0)
(8.34264 -0.00657989 0)
(8.34417 -0.00745625 0)
(8.3457 -0.00832792 0)
(8.34721 -0.00919794 0)
(8.34869 -0.0100702 0)
(8.35014 -0.0109491 0)
(8.35155 -0.0118387 0)
(8.35292 -0.012743 0)
(8.35424 -0.0136657 0)
(8.35551 -0.0146099 0)
(8.35671 -0.0155784 0)
(8.35786 -0.0165737 0)
(8.35895 -0.0175977 0)
(8.35997 -0.018652 0)
(8.36092 -0.019738 0)
(8.36181 -0.0208565 0)
(8.36262 -0.0220084 0)
(8.36337 -0.0231941 0)
(8.36404 -0.0244139 0)
(8.36464 -0.0256676 0)
(8.36517 -0.0269551 0)
(8.36563 -0.0282761 0)
(8.36602 -0.029629 0)
(8.33317 -0.000812826 0)
(8.33366 -0.00277737 0)
(8.33404 -0.00479675 0)
(8.33442 -0.00654181 0)
(8.33495 -0.00793666 0)
(8.33571 -0.00903496 0)
(8.33668 -0.0099106 0)
(8.33782 -0.0106273 0)
(8.3391 -0.0112368 0)
(8.34047 -0.0117796 0)
(8.34191 -0.0122863 0)
(8.34338 -0.0127799 0)
(8.34487 -0.0132769 0)
(8.34635 -0.0137892 0)
(8.34781 -0.0143251 0)
(8.34925 -0.0148906 0)
(8.35064 -0.0154896 0)
(8.35199 -0.0161251 0)
(8.35328 -0.0167987 0)
(8.35452 -0.0175116 0)
(8.35569 -0.0182645 0)
(8.3568 -0.0190577 0)
(8.35784 -0.0198912 0)
(8.35881 -0.0207648 0)
(8.35971 -0.0216783 0)
(8.36054 -0.0226311 0)
(8.36129 -0.0236227 0)
(8.36197 -0.0246525 0)
(8.36257 -0.0257196 0)
(8.3631 -0.0268234 0)
(8.36355 -0.0279629 0)
(8.36393 -0.0291373 0)
(8.36423 -0.0303445 0)
(8.33264 0.000545201 0)
(8.33175 0.00189584 0)
(8.33173 0.00268745 0)
(8.33253 0.00250619 0)
(8.33375 0.00158098 0)
(8.33515 0.000262947 0)
(8.33665 -0.00121828 0)
(8.33819 -0.00274019 0)
(8.33973 -0.00423702 0)
(8.34128 -0.00567374 0)
(8.3428 -0.00703574 0)
(8.3443 -0.00832126 0)
(8.34577 -0.00953554 0)
(8.3472 -0.0106872 0)
(8.34858 -0.0117862 0)
(8.34992 -0.0128427 0)
(8.35121 -0.0138663 0)
(8.35245 -0.014866 0)
(8.35363 -0.0158496 0)
(8.35475 -0.0168239 0)
(8.35581 -0.017795 0)
(8.3568 -0.0187679 0)
(8.35772 -0.0197468 0)
(8.35858 -0.0207354 0)
(8.35937 -0.0217366 0)
(8.36008 -0.0227529 0)
(8.36073 -0.0237862 0)
(8.3613 -0.024838 0)
(8.36179 -0.0259096 0)
(8.36221 -0.0270016 0)
(8.36256 -0.0281147 0)
(8.36283 -0.0292491 0)
(8.36303 -0.0304039 0)
(8.33357 -0.0019947 0)
(8.33463 -0.0070038 0)
(8.33434 -0.0118641 0)
(8.33363 -0.0150827 0)
(8.33338 -0.0169155 0)
(8.33375 -0.0179461 0)
(8.33457 -0.0184932 0)
(8.33569 -0.018751 0)
(8.33701 -0.0188544 0)
(8.33847 -0.0188908 0)
(8.34 -0.0189148 0)
(8.34156 -0.0189597 0)
(8.34312 -0.0190447 0)
(8.34467 -0.0191803 0)
(8.34618 -0.0193716 0)
(8.34764 -0.0196201 0)
(8.34905 -0.0199256 0)
(8.35039 -0.0202864 0)
(8.35167 -0.0207006 0)
(8.35287 -0.0211659 0)
(8.35401 -0.0216798 0)
(8.35507 -0.02224 0)
(8.35605 -0.0228444 0)
(8.35695 -0.023491 0)
(8.35778 -0.0241778 0)
(8.35852 -0.024903 0)
(8.35919 -0.0256651 0)
(8.35978 -0.0264625 0)
(8.36029 -0.0272938 0)
(8.36072 -0.0281576 0)
(8.36107 -0.0290526 0)
(8.36134 -0.029978 0)
(8.36153 -0.0309314 0)
(8.33162 0.00367096 0)
(8.32827 0.0101773 0)
(8.32844 0.0133016 0)
(8.33096 0.0132057 0)
(8.33348 0.0110839 0)
(8.3356 0.00818092 0)
(8.33749 0.0051225 0)
(8.33922 0.00214712 0)
(8.34081 -0.000633642 0)
(8.3423 -0.00317202 0)
(8.34372 -0.00546304 0)
(8.34509 -0.00752307 0)
(8.3464 -0.00937672 0)
(8.34768 -0.0110511 0)
(8.34893 -0.0125728 0)
(8.35013 -0.0139664 0)
(8.3513 -0.0152539 0)
(8.35243 -0.0164542 0)
(8.35351 -0.0175838 0)
(8.35455 -0.0186566 0)
(8.35553 -0.0196845 0)
(8.35646 -0.0206774 0)
(8.35734 -0.0216436 0)
(8.35815 -0.0225903 0)
(8.3589 -0.0235233 0)
(8.35959 -0.0244474 0)
(8.36021 -0.0253667 0)
(8.36076 -0.0262845 0)
(8.36124 -0.0272035 0)
(8.36164 -0.0281258 0)
(8.36198 -0.0290531 0)
(8.36224 -0.0299866 0)
(8.36242 -0.0309265 0)
(8.33429 -0.00645338 0)
(8.3346 -0.0207475 0)
(8.33067 -0.0300224 0)
(8.32662 -0.0340775 0)
(8.32467 -0.0350057 0)
(8.32473 -0.0344954 0)
(8.32585 -0.0333608 0)
(8.32751 -0.0319949 0)
(8.32949 -0.0306208 0)
(8.33166 -0.0293563 0)
(8.33391 -0.0282532 0)
(8.33619 -0.0273283 0)
(8.33845 -0.0265805 0)
(8.34067 -0.0259994 0)
(8.34284 -0.0255708 0)
(8.34494 -0.0252791 0)
(8.34696 -0.0251091 0)
(8.3489 -0.0250467 0)
(8.35076 -0.0250793 0)
(8.35253 -0.025196 0)
(8.3542 -0.0253869 0)
(8.35579 -0.0256438 0)
(8.35728 -0.0259595 0)
(8.35868 -0.0263279 0)
(8.35998 -0.0267438 0)
(8.36119 -0.0272026 0)
(8.3623 -0.0277007 0)
(8.36331 -0.0282345 0)
(8.36423 -0.0288013 0)
(8.36506 -0.0293987 0)
(8.36579 -0.0300244 0)
(8.36643 -0.0306769 0)
(8.36699 -0.0313536 0)
(8.32884 0.0225858 0)
(8.32235 0.0427436 0)
(8.32666 0.0439623 0)
(8.33327 0.0379939 0)
(8.33772 0.0306432 0)
(8.34048 0.0234737 0)
(8.34272 0.0168064 0)
(8.34483 0.0108244 0)
(8.34694 0.00558378 0)
(8.34912 0.0010368 0)
(8.35139 -0.00289635 0)
(8.35374 -0.00629745 0)
(8.35616 -0.00924424 0)
(8.35863 -0.0118073 0)
(8.36112 -0.0140482 0)
(8.36361 -0.0160195 0)
(8.36608 -0.0177654 0)
(8.36851 -0.0193233 0)
(8.37089 -0.0207244 0)
(8.37321 -0.0219949 0)
(8.37545 -0.0231564 0)
(8.37761 -0.0242273 0)
(8.37967 -0.0252228 0)
(8.38165 -0.0261557 0)
(8.38351 -0.0270366 0)
(8.38528 -0.0278747 0)
(8.38694 -0.0286775 0)
(8.38849 -0.0294514 0)
(8.38993 -0.0302019 0)
(8.39126 -0.0309334 0)
(8.39248 -0.0316501 0)
(8.39359 -0.0323547 0)
(8.39459 -0.0330511 0)
(8.32436 -0.0380392 0)
(8.29385 -0.0683504 0)
(8.27211 -0.071754 0)
(8.26663 -0.0686897 0)
(8.27352 -0.0643844 0)
(8.28614 -0.059588 0)
(8.30086 -0.0549318 0)
(8.31614 -0.0507826 0)
(8.33113 -0.0472025 0)
(8.34536 -0.0441668 0)
(8.35864 -0.041631 0)
(8.3709 -0.0395365 0)
(8.38216 -0.0378213 0)
(8.39246 -0.0364286 0)
(8.40184 -0.0353084 0)
(8.41039 -0.0344177 0)
(8.41816 -0.03372 0)
(8.42522 -0.0331847 0)
(8.43162 -0.0327865 0)
(8.43742 -0.0325042 0)
(8.44266 -0.0323203 0)
(8.44739 -0.0322204 0)
(8.45165 -0.0321925 0)
(8.45546 -0.0322267 0)
(8.45887 -0.0323146 0)
(8.46191 -0.0324494 0)
(8.46459 -0.0326251 0)
(8.46695 -0.0328368 0)
(8.46901 -0.0330803 0)
(8.47078 -0.033352 0)
(8.47228 -0.0336487 0)
(8.47354 -0.0339676 0)
(8.47457 -0.0343049 0)
(8.34002 0.156986 0)