/*--------------------------------*- C++ -*----------------------------------*\
| =========                 |                                                 |
| \\      /  F ield         | OpenFOAM: The Open Source CFD Toolbox           |
|  \\    /   O peration     | Version:  2.1.1                                 |
|   \\  /    A nd           | Web:      www.OpenFOAM.org                      |
|    \\/     M anipulation  |                                                 |
\*---------------------------------------------------------------------------*/
FoamFile
{
    version     2.0;
    format      ascii;
    class       volScalarField;
    location    "0.095";
    object      k;
}
// * * * * * * * * * * * * * * * * * * * * * * * * * * * * * * * * * * * * * //

dimensions      [0 2 -2 0 0 0 0];

internalField   nonuniform List<scalar> 
6820
(
0.288909
0.351398
0.415005
0.477466
0.536861
0.591559
0.640376
0.682636
0.718136
0.747048
0.769816
0.787057
0.799472
0.807778
0.812666
0.814771
0.814654
0.812802
0.809626
0.805468
0.800608
0.795272
0.789639
0.783851
0.778017
0.772222
0.766523
0.760978
0.755551
0.750563
0.744558
0.744518
0.716781
0.265532
0.269396
0.270522
0.27134
0.272557
0.274212
0.276221
0.27847
0.280848
0.28327
0.28568
0.288048
0.290363
0.292632
0.294868
0.297091
0.29932
0.301573
0.303868
0.306216
0.308628
0.311109
0.313663
0.316292
0.318996
0.321774
0.324629
0.327566
0.330598
0.33378
0.337137
0.341106
0.345368
0.262038
0.264254
0.263597
0.261558
0.259001
0.256319
0.253628
0.250939
0.248241
0.245526
0.242795
0.240063
0.237347
0.23467
0.232054
0.22952
0.227087
0.224771
0.222583
0.220534
0.218629
0.216872
0.215266
0.213808
0.212499
0.211334
0.210312
0.209427
0.208676
0.208063
0.207571
0.207231
0.206974
0.259885
0.260272
0.259796
0.258535
0.256829
0.254891
0.252833
0.25071
0.248548
0.246359
0.244153
0.241937
0.239716
0.237498
0.23529
0.233101
0.230937
0.228806
0.226714
0.224667
0.222669
0.220726
0.21884
0.217014
0.215251
0.21355
0.211913
0.21034
0.208831
0.207384
0.205997
0.204673
0.203399
0.259299
0.258404
0.2576
0.256567
0.255295
0.25385
0.252292
0.250662
0.248985
0.247278
0.245553
0.243817
0.242077
0.240338
0.238604
0.236881
0.235171
0.233478
0.231805
0.230155
0.228532
0.226936
0.225371
0.223837
0.222337
0.220871
0.21944
0.218045
0.216686
0.215364
0.214077
0.212828
0.211616
0.259224
0.257848
0.256623
0.255437
0.254227
0.25297
0.251663
0.250313
0.24893
0.247523
0.246102
0.244672
0.243239
0.241807
0.24038
0.238961
0.237553
0.236157
0.234777
0.233413
0.232068
0.230742
0.229437
0.228154
0.226895
0.225659
0.224447
0.22326
0.222098
0.220962
0.219851
0.218768
0.217712
0.259217
0.257715
0.256309
0.25498
0.253698
0.252442
0.251196
0.249951
0.248705
0.247456
0.246206
0.244957
0.243711
0.242471
0.241239
0.240016
0.238804
0.237605
0.236419
0.235248
0.234093
0.232954
0.231833
0.23073
0.229645
0.22858
0.227534
0.226507
0.225501
0.224515
0.22355
0.222605
0.221683
0.259218
0.25769
0.256225
0.254822
0.253477
0.252181
0.250924
0.249696
0.248492
0.247307
0.246138
0.244982
0.243841
0.242712
0.241597
0.240496
0.239409
0.238336
0.237278
0.236235
0.235208
0.234198
0.233203
0.232225
0.231264
0.230321
0.229394
0.228485
0.227593
0.226719
0.225864
0.225026
0.224206
0.259218
0.257686
0.256207
0.25478
0.253405
0.25208
0.2508
0.24956
0.248357
0.247186
0.246043
0.244926
0.243832
0.242759
0.241707
0.240674
0.23966
0.238663
0.237685
0.236724
0.23578
0.234854
0.233944
0.233051
0.232175
0.231316
0.230473
0.229647
0.228838
0.228045
0.227269
0.226509
0.225765
0.259218
0.257686
0.256203
0.254769
0.253384
0.252045
0.250751
0.2495
0.248289
0.247115
0.245975
0.244868
0.24379
0.242739
0.241715
0.240715
0.239738
0.238783
0.237849
0.236935
0.236041
0.235166
0.23431
0.233471
0.232651
0.231847
0.231061
0.230292
0.229539
0.228802
0.228081
0.227377
0.226687
0.259218
0.257686
0.256202
0.254767
0.253378
0.252035
0.250735
0.249477
0.24826
0.247081
0.245938
0.24483
0.243755
0.24271
0.241695
0.240708
0.239746
0.23881
0.237898
0.237008
0.23614
0.235294
0.234468
0.233661
0.232873
0.232104
0.231353
0.230619
0.229902
0.229202
0.228518
0.22785
0.227198
0.259218
0.257685
0.256201
0.254766
0.253376
0.252031
0.250729
0.249469
0.248249
0.247066
0.245921
0.244811
0.243734
0.24269
0.241676
0.240692
0.239735
0.238806
0.237902
0.237023
0.236167
0.235334
0.234523
0.233732
0.232962
0.232212
0.23148
0.230766
0.230071
0.229392
0.228731
0.228086
0.227456
0.259218
0.257685
0.256201
0.254765
0.253375
0.25203
0.250727
0.249466
0.248244
0.24706
0.245913
0.244801
0.243723
0.242678
0.241663
0.240679
0.239723
0.238795
0.237894
0.237018
0.236167
0.235339
0.234534
0.233751
0.232989
0.232247
0.231525
0.230822
0.230137
0.22947
0.228821
0.228188
0.227572
0.259218
0.257685
0.256201
0.254764
0.253374
0.252029
0.250726
0.249464
0.248241
0.247057
0.245909
0.244796
0.243717
0.242671
0.241656
0.240671
0.239715
0.238787
0.237885
0.23701
0.23616
0.235334
0.234531
0.23375
0.232991
0.232253
0.231535
0.230836
0.230156
0.229495
0.228851
0.228224
0.227614
0.259218
0.257685
0.2562
0.254764
0.253374
0.252028
0.250724
0.249462
0.248239
0.247054
0.245906
0.244793
0.243713
0.242666
0.24165
0.240665
0.239708
0.23878
0.237878
0.237003
0.236153
0.235326
0.234524
0.233744
0.232985
0.232248
0.231531
0.230834
0.230156
0.229497
0.228855
0.228231
0.227624
0.259218
0.257685
0.2562
0.254764
0.253373
0.252027
0.250723
0.249461
0.248238
0.247053
0.245904
0.24479
0.24371
0.242663
0.241647
0.240661
0.239704
0.238775
0.237873
0.236997
0.236146
0.23532
0.234517
0.233737
0.232978
0.232241
0.231525
0.230828
0.23015
0.229491
0.22885
0.228227
0.22762
0.259218
0.257685
0.2562
0.254763
0.253373
0.252026
0.250722
0.24946
0.248236
0.247051
0.245902
0.244788
0.243708
0.24266
0.241643
0.240657
0.2397
0.23877
0.237868
0.236992
0.236141
0.235314
0.234511
0.23373
0.232972
0.232234
0.231517
0.23082
0.230143
0.229484
0.228842
0.228219
0.227612
0.259218
0.257684
0.2562
0.254763
0.253372
0.252026
0.250722
0.249459
0.248235
0.247049
0.2459
0.244786
0.243705
0.242657
0.24164
0.240654
0.239696
0.238766
0.237864
0.236987
0.236136
0.235309
0.234505
0.233724
0.232965
0.232228
0.23151
0.230813
0.230135
0.229476
0.228834
0.22821
0.227603
0.259218
0.257684
0.2562
0.254763
0.253372
0.252025
0.250721
0.249458
0.248234
0.247048
0.245898
0.244784
0.243703
0.242655
0.241638
0.240651
0.239693
0.238763
0.23786
0.236983
0.236131
0.235304
0.2345
0.233719
0.232959
0.232221
0.231504
0.230806
0.230128
0.229468
0.228826
0.228202
0.227594
0.259218
0.257684
0.2562
0.254762
0.253371
0.252025
0.25072
0.249457
0.248233
0.247047
0.245897
0.244782
0.243701
0.242653
0.241635
0.240648
0.23969
0.238759
0.237856
0.236979
0.236127
0.235299
0.234495
0.233713
0.232954
0.232215
0.231498
0.2308
0.230121
0.229461
0.228818
0.228194
0.227586
0.259218
0.257684
0.256199
0.254762
0.253371
0.252024
0.25072
0.249456
0.248232
0.247046
0.245896
0.244781
0.243699
0.242651
0.241633
0.240645
0.239687
0.238756
0.237853
0.236975
0.236123
0.235295
0.23449
0.233709
0.232949
0.23221
0.231492
0.230793
0.230114
0.229453
0.228811
0.228186
0.227578
0.259218
0.257684
0.256199
0.254762
0.253371
0.252024
0.250719
0.249456
0.248231
0.247045
0.245895
0.244779
0.243698
0.242649
0.241631
0.240643
0.239684
0.238754
0.23785
0.236972
0.236119
0.235291
0.234486
0.233704
0.232944
0.232205
0.231486
0.230787
0.230108
0.229447
0.228804
0.228178
0.22757
0.259218
0.257684
0.256199
0.254762
0.253371
0.252024
0.250719
0.249455
0.248231
0.247044
0.245894
0.244778
0.243696
0.242647
0.241629
0.240641
0.239682
0.238751
0.237847
0.236969
0.236116
0.235287
0.234482
0.2337
0.232939
0.2322
0.231481
0.230782
0.230102
0.22944
0.228797
0.228171
0.227562
0.259218
0.257684
0.256199
0.254762
0.253371
0.252023
0.250719
0.249455
0.24823
0.247043
0.245893
0.244777
0.243695
0.242646
0.241627
0.240639
0.23968
0.238749
0.237844
0.236966
0.236113
0.235284
0.234478
0.233696
0.232935
0.232195
0.231476
0.230776
0.230096
0.229434
0.22879
0.228164
0.227555
0.259218
0.257684
0.256199
0.254762
0.25337
0.252023
0.250718
0.249454
0.24823
0.247043
0.245892
0.244776
0.243694
0.242644
0.241626
0.240637
0.239678
0.238746
0.237842
0.236963
0.23611
0.235281
0.234475
0.233692
0.232931
0.232191
0.231471
0.230771
0.23009
0.229428
0.228784
0.228158
0.227548
0.259218
0.257684
0.256199
0.254762
0.25337
0.252023
0.250718
0.249454
0.248229
0.247042
0.245891
0.244775
0.243693
0.242643
0.241625
0.240636
0.239676
0.238745
0.23784
0.236961
0.236107
0.235278
0.234472
0.233688
0.232927
0.232187
0.231467
0.230766
0.230085
0.229423
0.228779
0.228151
0.227541
0.259218
0.257684
0.256199
0.254762
0.25337
0.252023
0.250718
0.249454
0.248229
0.247042
0.245891
0.244775
0.243692
0.242642
0.241623
0.240635
0.239675
0.238743
0.237838
0.236959
0.236105
0.235275
0.234469
0.233685
0.232923
0.232183
0.231462
0.230762
0.230081
0.229418
0.228773
0.228146
0.227535
0.259218
0.257684
0.256199
0.254762
0.25337
0.252023
0.250718
0.249454
0.248229
0.247041
0.24589
0.244774
0.243692
0.242642
0.241623
0.240634
0.239674
0.238741
0.237836
0.236957
0.236103
0.235273
0.234466
0.233683
0.23292
0.232179
0.231459
0.230758
0.230077
0.229413
0.228768
0.22814
0.227529
0.259218
0.257684
0.256199
0.254762
0.25337
0.252023
0.250718
0.249453
0.248228
0.247041
0.24589
0.244774
0.243691
0.242641
0.241622
0.240632
0.239672
0.23874
0.237835
0.236955
0.236101
0.235271
0.234464
0.23368
0.232918
0.232176
0.231456
0.230755
0.230073
0.229409
0.228764
0.228136
0.227524
0.259218
0.257684
0.256199
0.254762
0.25337
0.252023
0.250718
0.249454
0.248229
0.247041
0.24589
0.244774
0.243691
0.242641
0.241622
0.240633
0.239672
0.23874
0.237834
0.236955
0.2361
0.23527
0.234463
0.233679
0.232916
0.232175
0.231454
0.230752
0.23007
0.229406
0.228761
0.228132
0.22752
0.259218
0.257684
0.256199
0.254762
0.25337
0.252023
0.250718
0.249453
0.248228
0.247041
0.24589
0.244773
0.243691
0.24264
0.241621
0.240632
0.239672
0.238739
0.237834
0.236954
0.2361
0.235269
0.234462
0.233678
0.232915
0.232173
0.231452
0.230751
0.230068
0.229404
0.228758
0.228129
0.227517
0.259218
0.257684
0.256199
0.254762
0.253371
0.252024
0.25072
0.249456
0.248231
0.247044
0.245893
0.244777
0.243695
0.242644
0.241625
0.240636
0.239675
0.238743
0.237837
0.236957
0.236102
0.235272
0.234464
0.23368
0.232917
0.232175
0.231453
0.230751
0.230069
0.229404
0.228758
0.228129
0.227516
0.259218
0.257685
0.2562
0.254764
0.253373
0.252026
0.250721
0.249457
0.248232
0.247045
0.245895
0.244779
0.243696
0.242646
0.241627
0.240638
0.239678
0.238746
0.23784
0.23696
0.236105
0.235275
0.234467
0.233682
0.232919
0.232177
0.231454
0.230752
0.230068
0.229403
0.228756
0.228126
0.227512
0.259218
0.257685
0.256201
0.254766
0.253378
0.252033
0.250731
0.249469
0.248246
0.24706
0.24591
0.244795
0.243712
0.242662
0.241643
0.240653
0.239692
0.238759
0.237853
0.236972
0.236115
0.235283
0.234474
0.233687
0.232921
0.232176
0.231452
0.230747
0.23006
0.229392
0.228741
0.228107
0.22749
0.259219
0.257689
0.25621
0.254777
0.25339
0.252046
0.250744
0.249482
0.248259
0.247074
0.245924
0.244808
0.243726
0.242675
0.241655
0.240663
0.2397
0.238764
0.237853
0.236968
0.236107
0.235269
0.234454
0.23366
0.232887
0.232134
0.231401
0.230687
0.229991
0.229313
0.228652
0.228008
0.22738
0.25922
0.257694
0.256221
0.254799
0.253423
0.252089
0.250795
0.249538
0.248318
0.247131
0.245978
0.244857
0.243766
0.242705
0.241673
0.240668
0.23969
0.238737
0.237809
0.236905
0.236024
0.235165
0.234328
0.233511
0.232715
0.231939
0.231182
0.230443
0.229722
0.229018
0.228332
0.227661
0.227007
0.259229
0.257738
0.256292
0.254882
0.253509
0.252172
0.250871
0.249604
0.248368
0.247162
0.245985
0.244836
0.243715
0.24262
0.241551
0.240507
0.239488
0.238492
0.23752
0.236571
0.235644
0.234739
0.233855
0.232991
0.232147
0.231323
0.230518
0.229731
0.228962
0.228211
0.227477
0.22676
0.226059
0.259265
0.257822
0.256453
0.255125
0.253804
0.252482
0.251163
0.249853
0.24856
0.247289
0.246043
0.244826
0.243637
0.242477
0.241347
0.240244
0.23917
0.238122
0.2371
0.236103
0.23513
0.234181
0.233254
0.232349
0.231465
0.230602
0.229759
0.228935
0.22813
0.227344
0.226576
0.225825
0.225091
0.259599
0.258632
0.257578
0.256542
0.255587
0.254714
0.253906
0.253152
0.252445
0.251784
0.251167
0.250593
0.250061
0.249572
0.249122
0.248712
0.24834
0.248004
0.247702
0.247433
0.247194
0.246984
0.246802
0.246646
0.246514
0.246405
0.246317
0.24625
0.246202
0.246172
0.246159
0.246163
0.246181
0.266719
0.280569
0.294241
0.307622
0.320668
0.333362
0.345692
0.357649
0.369223
0.380411
0.391209
0.401616
0.411634
0.421265
0.430515
0.439388
0.447892
0.456036
0.463827
0.471276
0.478392
0.485185
0.491667
0.497848
0.503739
0.509351
0.514694
0.519779
0.524616
0.529217
0.53359
0.537745
0.541697
0.841664
1.01254
1.20078
1.40853
1.6272
1.83949
2.02739
2.17819
2.2876
2.35906
2.40117
2.42392
2.43576
2.44253
2.44734
2.45138
2.45519
2.45937
2.46485
2.47273
2.48401
2.49937
2.51906
2.54293
2.57051
2.60112
2.63389
2.66785
2.70192
2.73495
2.76573
2.79301
2.81551
2.83192
2.84094
2.84123
2.83142
2.81009
2.7758
2.72705
2.66233
2.58015
2.47911
2.358
2.21593
2.05259
1.86848
1.66538
1.44692
1.21931
0.992057
0.778338
0.593622
0.451393
0.356697
0.303133
0.277803
0.268857
0.268541
0.27246
0.278194
0.284405
0.290355
0.295662
0.300155
0.303798
0.306634
0.308756
0.310279
0.311331
0.312037
0.312515
0.312873
0.313201
0.313567
0.314021
0.314589
0.315281
0.316086
0.316982
0.317936
0.31891
0.319863
0.320758
0.321562
0.322248
0.322799
0.323202
0.323451
0.323538
0.323456
0.323194
0.322733
0.322044
0.321087
0.319807
0.318152
0.315945
0.313626
0.308026
0.353606
0.367001
0.388388
0.422142
0.473103
0.54591
0.643985
0.768075
0.915243
1.07861
1.24811
1.41227
1.56045
1.68526
1.78389
1.85785
1.91162
1.95083
1.98072
2.00533
2.02733
2.0483
2.06913
2.09033
2.11222
2.13494
2.15845
2.1825
2.20656
2.22992
2.25163
2.27062
2.28571
2.29565
2.29915
2.29488
2.2815
2.25764
2.22191
2.17291
2.10931
2.02985
1.93349
1.81949
1.68766
1.53859
1.37407
1.19748
1.01439
0.832969
0.663879
0.518857
0.407352
0.332273
0.28859
0.266976
0.258787
0.258144
0.261534
0.266892
0.272984
0.279066
0.284699
0.289647
0.293805
0.297162
0.299761
0.301687
0.303042
0.303939
0.304493
0.304811
0.304993
0.305125
0.305278
0.305504
0.305837
0.306294
0.306875
0.307567
0.308346
0.309178
0.31003
0.310864
0.311648
0.312355
0.312961
0.313452
0.313815
0.31404
0.314116
0.314027
0.313753
0.313262
0.312516
0.311458
0.310038
0.308084
0.30601
0.300846
0.206565
0.206301
0.206719
0.2083
0.211639
0.217579
0.227356
0.24272
0.265916
0.299474
0.345672
0.406381
0.48217
0.571798
0.672531
0.779672
0.887591
0.990839
1.08513
1.16796
1.23866
1.29807
1.34794
1.39039
1.42739
1.46057
1.49108
1.51958
1.54633
1.57123
1.59387
1.61365
1.62976
1.64124
1.64704
1.64603
1.63702
1.61879
1.59015
1.54994
1.49711
1.43083
1.3506
1.25643
1.14904
1.03022
0.90307
0.772347
0.644512
0.527289
0.428302
0.352801
0.301556
0.270876
0.255025
0.248777
0.248397
0.251461
0.256406
0.262216
0.268218
0.273975
0.279215
0.283781
0.287607
0.290688
0.293066
0.294814
0.296022
0.296788
0.297213
0.297397
0.29743
0.297394
0.297358
0.297376
0.297488
0.297716
0.29807
0.298546
0.299127
0.299789
0.300503
0.301235
0.301955
0.302635
0.30325
0.303782
0.304215
0.304535
0.304728
0.304775
0.304653
0.30433
0.303768
0.302911
0.301708
0.299996
0.298158
0.293435
0.20199
0.200497
0.199103
0.197803
0.196629
0.195648
0.194962
0.194735
0.195227
0.196849
0.200176
0.205941
0.214973
0.228098
0.245957
0.26935
0.298872
0.334684
0.376369
0.422919
0.472854
0.524449
0.576
0.626049
0.673533
0.71782
0.758661
0.796077
0.830227
0.861279
0.889301
0.914201
0.93569
0.953285
0.966329
0.974029
0.975502
0.969825
0.956099
0.933515
0.901452
0.859584
0.808024
0.747486
0.679458
0.606356
0.53157
0.459301
0.394038
0.339622
0.298184
0.269593
0.251904
0.24248
0.238903
0.239296
0.242284
0.246866
0.252304
0.258061
0.263747
0.26909
0.273907
0.27809
0.281591
0.28441
0.286581
0.288166
0.289242
0.289894
0.290212
0.290283
0.290192
0.290013
0.289813
0.289646
0.289554
0.289566
0.289697
0.289952
0.290322
0.290793
0.291339
0.291934
0.29255
0.293159
0.293738
0.294265
0.294722
0.295094
0.295361
0.295504
0.295497
0.29531
0.294901
0.294217
0.29321
0.291722
0.290109
0.28582
0.210255
0.208744
0.207256
0.205778
0.204312
0.202868
0.201457
0.200098
0.198818
0.197666
0.19672
0.1961
0.195962
0.196526
0.197878
0.200145
0.203493
0.208107
0.214171
0.221846
0.231257
0.242459
0.255425
0.270037
0.286087
0.303298
0.321354
0.339923
0.358681
0.377316
0.395528
0.413008
0.429413
0.44435
0.45736
0.467913
0.475422
0.479277
0.478888
0.473756
0.463548
0.448194
0.42798
0.403621
0.376304
0.347637
0.319498
0.293747
0.271876
0.25473
0.242447
0.234621
0.230577
0.229579
0.230934
0.234025
0.238317
0.243353
0.248753
0.254209
0.259477
0.264374
0.26877
0.272584
0.275777
0.278347
0.280325
0.281758
0.282714
0.283265
0.283491
0.283469
0.283274
0.282975
0.282635
0.282306
0.282031
0.281843
0.281762
0.281799
0.281954
0.282219
0.282577
0.283007
0.283484
0.283985
0.284486
0.284965
0.285403
0.285781
0.286081
0.286279
0.28635
0.286261
0.285973
0.285433
0.284595
0.28331
0.281904
0.278038
0.216513
0.215155
0.213794
0.212433
0.211071
0.209706
0.208339
0.206976
0.205626
0.204298
0.203008
0.20178
0.20065
0.199664
0.198862
0.198281
0.197957
0.197927
0.198225
0.198883
0.19993
0.201392
0.203289
0.205633
0.208425
0.211659
0.215312
0.219354
0.223745
0.228433
0.233357
0.238443
0.243598
0.248708
0.253628
0.258184
0.262166
0.26534
0.267457
0.268286
0.267643
0.265437
0.261707
0.256647
0.250611
0.244078
0.237594
0.231687
0.226799
0.223233
0.221148
0.220571
0.221423
0.223551
0.226747
0.230778
0.2354
0.240376
0.245485
0.250533
0.255352
0.25981
0.263805
0.267271
0.270176
0.272515
0.274311
0.275604
0.276449
0.276911
0.277056
0.276955
0.276673
0.276274
0.275815
0.275346
0.274911
0.274542
0.274264
0.274094
0.274037
0.274091
0.274248
0.274492
0.274805
0.275165
0.275551
0.275942
0.27632
0.276664
0.276953
0.277166
0.277274
0.277247
0.277045
0.276617
0.27592
0.274812
0.273593
0.270128
0.220633
0.219439
0.218236
0.217022
0.215799
0.214566
0.213325
0.212079
0.210833
0.20959
0.208356
0.207138
0.205948
0.204797
0.203703
0.202679
0.201741
0.200905
0.200184
0.19959
0.199133
0.198822
0.198663
0.19866
0.198815
0.199127
0.199593
0.200208
0.200965
0.201853
0.202862
0.203976
0.205178
0.206446
0.207752
0.209061
0.210331
0.21151
0.212543
0.213368
0.213931
0.214193
0.214141
0.2138
0.213239
0.212572
0.211948
0.211533
0.211495
0.211979
0.213093
0.214896
0.217396
0.220551
0.224276
0.228458
0.232962
0.237644
0.242357
0.246965
0.251344
0.255386
0.259009
0.262156
0.264795
0.266921
0.268549
0.269712
0.270456
0.270836
0.27091
0.27074
0.270385
0.269903
0.269344
0.268757
0.268183
0.267654
0.267199
0.266835
0.266574
0.266422
0.266373
0.266419
0.266548
0.266742
0.266983
0.267253
0.267533
0.267804
0.268044
0.268231
0.268339
0.268335
0.268182
0.267832
0.267244
0.266285
0.265228
0.262137
0.223271
0.222206
0.221128
0.220038
0.218936
0.217825
0.216704
0.215578
0.214448
0.213317
0.212189
0.211067
0.209956
0.208861
0.207787
0.206741
0.20573
0.204761
0.203841
0.202978
0.202177
0.201443
0.200781
0.200194
0.199685
0.199255
0.198905
0.198635
0.198443
0.198328
0.198286
0.198316
0.198413
0.198573
0.198791
0.199061
0.199376
0.199728
0.200108
0.200508
0.20092
0.201342
0.201776
0.202238
0.202754
0.203369
0.204137
0.205126
0.206405
0.208041
0.210083
0.212562
0.215481
0.218817
0.222518
0.226512
0.230709
0.235006
0.239298
0.243476
0.24744
0.2511
0.254385
0.257241
0.259639
0.261569
0.263043
0.264086
0.264737
0.265042
0.265054
0.264825
0.264408
0.263855
0.263213
0.262526
0.261833
0.261166
0.260553
0.260014
0.259564
0.259213
0.258962
0.258807
0.258741
0.258752
0.258826
0.258947
0.259098
0.259261
0.259416
0.25954
0.259609
0.259591
0.259451
0.259145
0.258632
0.257791
0.256867
0.254118
0.224917
0.22395
0.222972
0.221982
0.220981
0.21997
0.21895
0.217923
0.216892
0.215858
0.214825
0.213796
0.212773
0.211758
0.210755
0.209767
0.208797
0.207848
0.206924
0.206028
0.205164
0.204336
0.203546
0.202797
0.202093
0.201436
0.200827
0.200268
0.199761
0.199306
0.198904
0.198557
0.198265
0.19803
0.197852
0.197734
0.197676
0.197683
0.197759
0.197907
0.198136
0.198455
0.198877
0.199418
0.200103
0.200956
0.202012
0.203305
0.204871
0.206742
0.20894
0.211477
0.214348
0.217533
0.220993
0.224671
0.228499
0.232398
0.23628
0.240056
0.24364
0.246954
0.249933
0.252527
0.254706
0.256459
0.257792
0.258726
0.259292
0.25953
0.259485
0.259204
0.258734
0.258122
0.257411
0.256641
0.255847
0.255062
0.254311
0.253617
0.252997
0.252461
0.252017
0.251665
0.251402
0.251222
0.251113
0.251064
0.251061
0.251088
0.251126
0.251155
0.25115
0.251083
0.250921
0.250622
0.25015
0.249394
0.248573
0.246125
0.225901
0.225006
0.224101
0.223185
0.22226
0.221326
0.220384
0.219436
0.218483
0.217528
0.216573
0.215621
0.214672
0.21373
0.212795
0.211871
0.210958
0.210058
0.209173
0.208306
0.207457
0.206629
0.205825
0.205046
0.204294
0.203572
0.202882
0.202226
0.201606
0.201025
0.200484
0.199988
0.199538
0.199137
0.198789
0.1985
0.198273
0.198115
0.198034
0.198039
0.198141
0.198353
0.198691
0.199172
0.199816
0.200646
0.201686
0.20296
0.204489
0.206292
0.20838
0.210759
0.213418
0.216339
0.219489
0.222822
0.22628
0.229798
0.2333
0.23671
0.239951
0.242953
0.245655
0.248013
0.249995
0.251587
0.252793
0.253627
0.254115
0.254293
0.254197
0.253872
0.253357
0.252696
0.251927
0.251087
0.25021
0.249324
0.248456
0.247627
0.246855
0.246153
0.24553
0.244991
0.244536
0.244164
0.243866
0.243636
0.243462
0.243331
0.243228
0.243132
0.243023
0.242875
0.242657
0.242332
0.241866
0.24116
0.240412
0.238219
0.226455
0.225609
0.224755
0.223893
0.223023
0.222145
0.221261
0.220372
0.219478
0.218583
0.217687
0.216793
0.215902
0.215016
0.214137
0.213265
0.212402
0.211548
0.210706
0.209876
0.209059
0.208256
0.207469
0.206699
0.205948
0.205218
0.204511
0.203828
0.203172
0.202546
0.201953
0.201395
0.200877
0.200402
0.199975
0.199602
0.199288
0.199041
0.198871
0.198786
0.198799
0.198923
0.199175
0.19957
0.200126
0.200865
0.201804
0.202962
0.204356
0.206
0.207899
0.210055
0.21246
0.215094
0.217931
0.22093
0.224042
0.227209
0.230367
0.233446
0.236379
0.2391
0.241555
0.243699
0.245503
0.24695
0.24804
0.248783
0.249202
0.249324
0.249185
0.24882
0.248267
0.247565
0.246749
0.245852
0.244905
0.243936
0.242969
0.242025
0.241121
0.240272
0.239488
0.238776
0.238141
0.237582
0.237097
0.236682
0.236328
0.236025
0.235761
0.23552
0.235282
0.235024
0.234721
0.234337
0.233846
0.233156
0.232448
0.230463
0.22674
0.225926
0.225106
0.22428
0.223447
0.222608
0.221764
0.220916
0.220064
0.219211
0.218358
0.217507
0.216658
0.215813
0.214974
0.214141
0.213316
0.212499
0.211691
0.210892
0.210104
0.209327
0.208562
0.207811
0.207074
0.206353
0.205649
0.204965
0.204302
0.203663
0.203051
0.202469
0.201921
0.201412
0.200945
0.200527
0.200165
0.199865
0.199637
0.199491
0.199439
0.199492
0.199666
0.199977
0.200441
0.201074
0.201895
0.202918
0.204157
0.205622
0.20732
0.209249
0.211402
0.213763
0.216306
0.218999
0.221796
0.224648
0.227496
0.230278
0.232933
0.235403
0.237634
0.239585
0.241226
0.242541
0.243525
0.244187
0.244542
0.244615
0.244437
0.244038
0.243454
0.242718
0.241863
0.240919
0.239915
0.238877
0.237828
0.236787
0.235771
0.234795
0.233869
0.233003
0.232203
0.23147
0.230806
0.230209
0.229674
0.229194
0.228759
0.228357
0.227971
0.227583
0.227169
0.2267
0.226152
0.225446
0.224748
0.222919
0.226871
0.226076
0.225277
0.224472
0.223662
0.222848
0.22203
0.221208
0.220385
0.21956
0.218735
0.217912
0.217092
0.216275
0.215463
0.214657
0.213857
0.213065
0.212281
0.211505
0.210738
0.209981
0.209235
0.208499
0.207776
0.207065
0.20637
0.205691
0.205029
0.204389
0.203772
0.20318
0.202619
0.202092
0.201604
0.201161
0.200768
0.200433
0.200165
0.199974
0.19987
0.199865
0.199973
0.200207
0.200584
0.201118
0.201824
0.202715
0.203805
0.2051
0.206607
0.208324
0.210245
0.212355
0.214633
0.217048
0.219563
0.222131
0.224701
0.227217
0.229623
0.231864
0.233892
0.235668
0.237162
0.238355
0.239243
0.239829
0.240127
0.240156
0.239943
0.239516
0.238905
0.238142
0.237255
0.236273
0.235224
0.23413
0.233013
0.231891
0.230782
0.229698
0.228651
0.22765
0.226702
0.225812
0.224983
0.224214
0.223503
0.222848
0.22224
0.22167
0.221125
0.220591
0.220048
0.219472
0.218842
0.218092
0.217373
0.215649
0.226921
0.226137
0.225348
0.224555
0.223758
0.222958
0.222155
0.22135
0.220543
0.219735
0.218928
0.218122
0.217319
0.216519
0.215724
0.214934
0.21415
0.213373
0.212603
0.211841
0.211088
0.210343
0.209607
0.208882
0.208168
0.207465
0.206776
0.206101
0.205443
0.204802
0.204183
0.203587
0.203019
0.202481
0.201979
0.201519
0.201105
0.200744
0.200446
0.200219
0.200073
0.200019
0.200069
0.200237
0.200536
0.200979
0.201581
0.202352
0.203304
0.204444
0.205777
0.207302
0.209012
0.210897
0.212936
0.215103
0.217364
0.219677
0.221997
0.224272
0.226452
0.228487
0.23033
0.231946
0.233304
0.234386
0.235185
0.235702
0.235946
0.235936
0.235693
0.235241
0.234609
0.233823
0.232911
0.2319
0.230814
0.229674
0.228503
0.227316
0.226129
0.224955
0.223806
0.22269
0.221615
0.220587
0.219609
0.218683
0.217809
0.216987
0.21621
0.215473
0.214767
0.214079
0.213395
0.212695
0.211964
0.211144
0.21038
0.208711
0.226934
0.226154
0.22537
0.224583
0.223793
0.223
0.222205
0.221408
0.22061
0.219811
0.219013
0.218217
0.217423
0.216632
0.215845
0.215063
0.214287
0.213517
0.212754
0.211999
0.211251
0.210511
0.209781
0.20906
0.20835
0.20765
0.206963
0.20629
0.205631
0.20499
0.204368
0.203768
0.203193
0.202647
0.202135
0.20166
0.201229
0.200848
0.200525
0.200268
0.200086
0.199989
0.199989
0.200098
0.200327
0.20069
0.201197
0.201859
0.202687
0.203687
0.204863
0.206215
0.207737
0.209419
0.211243
0.213186
0.215218
0.217301
0.219394
0.221452
0.223426
0.225271
0.226946
0.228414
0.229646
0.230626
0.231342
0.231794
0.231991
0.231944
0.231674
0.231201
0.230551
0.229748
0.228817
0.227782
0.226667
0.225493
0.224277
0.223038
0.221788
0.220542
0.219308
0.218096
0.216914
0.215767
0.21466
0.213595
0.212575
0.211599
0.210665
0.209769
0.208904
0.208063
0.207233
0.206401
0.205555
0.204646
0.203816
0.202158
0.226932
0.226153
0.225371
0.224586
0.223799
0.223009
0.222218
0.221424
0.22063
0.219836
0.219042
0.218249
0.217459
0.216671
0.215887
0.215108
0.214334
0.213566
0.212804
0.212049
0.211302
0.210562
0.209832
0.20911
0.208399
0.207698
0.207009
0.206333
0.205672
0.205027
0.204401
0.203795
0.203213
0.202659
0.202135
0.201648
0.201201
0.200802
0.200456
0.200172
0.199958
0.199824
0.199779
0.199835
0.200002
0.200291
0.200712
0.201277
0.201993
0.202866
0.2039
0.205095
0.206447
0.207945
0.209575
0.211315
0.213139
0.215014
0.216901
0.218759
0.220546
0.222218
0.223736
0.225067
0.226184
0.227067
0.227706
0.228098
0.228249
0.228169
0.227874
0.227383
0.226718
0.225902
0.224956
0.223905
0.222768
0.221566
0.220317
0.219036
0.217737
0.216432
0.21513
0.21384
0.212569
0.211323
0.210107
0.208923
0.207775
0.206664
0.205588
0.204546
0.203533
0.202544
0.201572
0.200605
0.199638
0.198629
0.197719
0.196032
0.226924
0.226145
0.225364
0.22458
0.223793
0.223004
0.222214
0.221422
0.220629
0.219835
0.219043
0.218251
0.21746
0.216673
0.215889
0.215108
0.214333
0.213562
0.212798
0.21204
0.21129
0.210547
0.209812
0.209087
0.208371
0.207665
0.206972
0.20629
0.205623
0.204972
0.204339
0.203726
0.203135
0.202571
0.202036
0.201536
0.201074
0.200657
0.20029
0.199981
0.199738
0.199569
0.199483
0.199489
0.199599
0.199821
0.200165
0.20064
0.201254
0.202012
0.202917
0.203969
0.205165
0.206496
0.207949
0.209505
0.211139
0.212823
0.214522
0.216197
0.21781
0.219322
0.220696
0.2219
0.222908
0.223701
0.224267
0.224602
0.22471
0.224599
0.224282
0.223775
0.223098
0.222271
0.221315
0.220251
0.219099
0.217877
0.216603
0.215291
0.213953
0.212602
0.211246
0.209894
0.208552
0.207225
0.205919
0.204637
0.203381
0.202153
0.200954
0.199783
0.198638
0.197514
0.196408
0.195312
0.194224
0.193109
0.192111
0.190365
0.226915
0.226136
0.225354
0.22457
0.223783
0.222994
0.222204
0.221411
0.220618
0.219825
0.219031
0.218238
0.217447
0.216657
0.215871
0.215088
0.214309
0.213534
0.212766
0.212003
0.211247
0.210498
0.209757
0.209025
0.208303
0.20759
0.206889
0.206201
0.205526
0.204867
0.204225
0.203602
0.203002
0.202426
0.20188
0.201365
0.200888
0.200453
0.200066
0.199733
0.199462
0.199259
0.199135
0.199096
0.199152
0.199312
0.199585
0.199977
0.200497
0.201148
0.201935
0.202856
0.20391
0.205087
0.206378
0.207764
0.209225
0.210733
0.212258
0.213765
0.215218
0.216582
0.217821
0.218906
0.219811
0.220518
0.221015
0.221296
0.221363
0.221222
0.220883
0.220362
0.219675
0.21884
0.217878
0.216806
0.215644
0.214409
0.213117
0.211781
0.210416
0.20903
0.207633
0.206232
0.204834
0.203444
0.202066
0.200704
0.19936
0.198036
0.196734
0.195453
0.194193
0.192951
0.191725
0.19051
0.189309
0.188089
0.187
0.185174
0.226906
0.226126
0.225344
0.224559
0.223772
0.222982
0.222191
0.221398
0.220604
0.21981
0.219015
0.21822
0.217427
0.216635
0.215845
0.215058
0.214275
0.213496
0.212722
0.211953
0.211191
0.210435
0.209687
0.208947
0.208217
0.207496
0.206787
0.206089
0.205405
0.204736
0.204085
0.203452
0.20284
0.202253
0.201693
0.201165
0.200672
0.200219
0.199811
0.199455
0.199156
0.198922
0.198761
0.198679
0.198685
0.198787
0.198992
0.199308
0.19974
0.200293
0.20097
0.20177
0.202692
0.203728
0.204869
0.206099
0.207399
0.208745
0.210109
0.21146
0.212765
0.21399
0.215103
0.216076
0.216884
0.21751
0.21794
0.218169
0.218195
0.218025
0.217666
0.217131
0.216436
0.215596
0.214629
0.213554
0.212387
0.211144
0.209841
0.208491
0.207106
0.205696
0.204269
0.202832
0.201392
0.199953
0.198519
0.197094
0.19568
0.19428
0.192894
0.191523
0.190166
0.188824
0.187495
0.186177
0.184873
0.183556
0.182382
0.180462
0.226897
0.226117
0.225334
0.224548
0.22376
0.22297
0.222178
0.221384
0.220589
0.219793
0.218997
0.2182
0.217404
0.21661
0.215816
0.215026
0.214238
0.213454
0.212674
0.2119
0.211131
0.210368
0.209612
0.208864
0.208125
0.207396
0.206677
0.20597
0.205277
0.204598
0.203935
0.203291
0.202668
0.202069
0.201495
0.200952
0.200443
0.199972
0.199544
0.199165
0.19884
0.198576
0.198378
0.198256
0.198214
0.198261
0.198404
0.198647
0.198997
0.199459
0.200033
0.200721
0.20152
0.202425
0.203426
0.204512
0.205663
0.206859
0.208074
0.209279
0.210445
0.211539
0.212534
0.2134
0.214116
0.214663
0.215028
0.215206
0.215193
0.214994
0.214615