/*--------------------------------*- C++ -*----------------------------------*\
| =========                 |                                                 |
| \\      /  F ield         | OpenFOAM: The Open Source CFD Toolbox           |
|  \\    /   O peration     | Version:  2.1.1                                 |
|   \\  /    A nd           | Web:      www.OpenFOAM.org                      |
|    \\/     M anipulation  |                                                 |
\*---------------------------------------------------------------------------*/
FoamFile
{
    version     2.0;
    format      ascii;
    class       volScalarField;
    location    "0.095";
    object      nut;
}
// * * * * * * * * * * * * * * * * * * * * * * * * * * * * * * * * * * * * * //

dimensions      [0 2 -1 0 0 0 0];

internalField   nonuniform List<scalar> 
6820
(
4.96025e-05
5.47044e-05
5.94497e-05
6.37668e-05
6.76167e-05
7.09777e-05
7.38483e-05
7.62461e-05
7.82035e-05
7.97622e-05
8.09686e-05
8.18703e-05
8.25134e-05
8.2941e-05
8.31916e-05
8.32993e-05
8.32933e-05
8.31986e-05
8.30359e-05
8.28225e-05
8.25723e-05
8.22967e-05
8.20048e-05
8.17037e-05
8.13992e-05
8.10955e-05
8.07958e-05
8.05031e-05
8.02157e-05
7.99505e-05
7.96302e-05
7.96281e-05
7.81309e-05
0.000540295
0.000304975
0.000219964
0.000171563
0.000140525
0.000119663
0.000105138
9.47538e-05
8.71894e-05
8.16077e-05
7.74587e-05
7.43686e-05
7.20769e-05
7.03976e-05
6.91952e-05
6.83695e-05
6.78448e-05
6.75636e-05
6.74811e-05
6.75621e-05
6.77786e-05
6.8108e-05
6.85317e-05
6.90344e-05
6.96032e-05
7.0227e-05
7.08961e-05
7.16017e-05
7.23366e-05
7.30886e-05
7.38546e-05
7.46064e-05
7.52603e-05
0.00105857
0.000836085
0.000679234
0.000569609
0.000490048
0.000430112
0.000383697
0.000346852
0.000316952
0.000292238
0.000271492
0.000253855
0.000238698
0.000225553
0.000214064
0.000203957
0.000195012
0.000187058
0.000179952
0.000173581
0.000167849
0.000162677
0.000157998
0.000153756
0.000149902
0.000146396
0.0001432
0.000140286
0.000137624
0.000135197
0.000132965
0.000130974
0.000128926
0.00115953
0.00109653
0.00101166
0.000926411
0.000849802
0.000783609
0.000727052
0.00067872
0.000637197
0.000601261
0.000569909
0.000542337
0.000517907
0.000496108
0.000476533
0.000458853
0.000442803
0.000428165
0.000414758
0.000402431
0.000391059
0.000380534
0.000370765
0.000361674
0.000353194
0.000345265
0.000337838
0.000330871
0.000324328
0.000318178
0.000312409
0.000306991
0.000301965
0.00116966
0.00115863
0.00113363
0.00109757
0.00105569
0.0010122
0.000969672
0.000929415
0.000891974
0.000857474
0.000825824
0.000796834
0.000770277
0.00074592
0.000723542
0.00070294
0.00068393
0.00066635
0.000650055
0.000634916
0.000620822
0.000607671
0.000595376
0.000583858
0.000573048
0.000562883
0.000553308
0.000544274
0.000535738
0.00052766
0.000520011
0.000512762
0.000505898
0.00117006
0.00116839
0.00116306
0.00115261
0.00113713
0.00111768
0.00109554
0.00107192
0.00104772
0.00102361
0.00100001
0.000977206
0.000955342
0.000934503
0.000914714
0.00089597
0.000878242
0.00086149
0.000845666
0.000830718
0.000816595
0.000803245
0.000790618
0.000778666
0.000767344
0.00075661
0.000746423
0.000736747
0.000727546
0.00071879
0.00071045
0.000702506
0.000694932
0.00116996
0.00116938
0.00116821
0.00116569
0.00116123
0.00115458
0.00114584
0.00113528
0.00112329
0.00111024
0.0010965
0.00108236
0.00106805
0.00105376
0.00103962
0.00102575
0.00101222
0.000999063
0.000986328
0.000974028
0.000962174
0.000950765
0.000939798
0.000929264
0.000919152
0.000909447
0.000900136
0.000891202
0.000882629
0.000874404
0.00086651
0.000858937
0.000851672
0.00116994
0.0011694
0.00116883
0.00116803
0.00116674
0.00116472
0.0011618
0.00115791
0.00115305
0.00114729
0.00114075
0.00113355
0.00112583
0.00111772
0.00110931
0.00110073
0.00109204
0.00108331
0.00107462
0.001066
0.00105749
0.00104912
0.00104091
0.00103288
0.00102505
0.00101742
0.00100999
0.00100277
0.000995762
0.000988964
0.000982376
0.000975996
0.000969822
0.00116994
0.00116939
0.00116886
0.00116832
0.0011677
0.00116692
0.00116588
0.00116449
0.00116269
0.00116043
0.00115772
0.00115456
0.00115098
0.00114702
0.00114274
0.00113817
0.00113336
0.00112837
0.00112323
0.00111799
0.00111267
0.00110731
0.00110194
0.00109658
0.00109125
0.00108596
0.00108073
0.00107556
0.00107048
0.00106549
0.00106059
0.0010558
0.00105111
0.00116994
0.00116938
0.00116885
0.00116833
0.00116782
0.00116729
0.00116671
0.00116605
0.00116526
0.00116432
0.00116319
0.00116186
0.0011603
0.00115853
0.00115655
0.00115436
0.00115198
0.00114943
0.00114673
0.00114389
0.00114094
0.00113789
0.00113476
0.00113156
0.00112832
0.00112505
0.00112175
0.00111845
0.00111515
0.00111185
0.00110858
0.00110533
0.00110212
0.00116994
0.00116938
0.00116884
0.00116832
0.00116782
0.00116732
0.00116683
0.00116634
0.00116582
0.00116527
0.00116467
0.00116399
0.00116324
0.0011624
0.00116146
0.00116042
0.00115928
0.00115804
0.00115669
0.00115526
0.00115373
0.00115213
0.00115045
0.0011487
0.0011469
0.00114504
0.00114314
0.00114121
0.00113925
0.00113727
0.00113527
0.00113326
0.00113125
0.00116994
0.00116938
0.00116884
0.00116832
0.00116781
0.00116732
0.00116684
0.00116637
0.00116591
0.00116545
0.00116499
0.00116452
0.00116402
0.00116351
0.00116296
0.00116238
0.00116176
0.0011611
0.00116039
0.00115963
0.00115883
0.00115799
0.0011571
0.00115616
0.00115519
0.00115418
0.00115314
0.00115206
0.00115096
0.00114983
0.00114869
0.00114752
0.00114634
0.00116994
0.00116938
0.00116884
0.00116832
0.00116781
0.00116732
0.00116684
0.00116637
0.00116592
0.00116547
0.00116504
0.00116461
0.00116419
0.00116377
0.00116335
0.00116292
0.00116248
0.00116204
0.00116158
0.00116111
0.00116062
0.00116011
0.00115959
0.00115904
0.00115848
0.0011579
0.00115731
0.00115669
0.00115606
0.00115542
0.00115476
0.00115408
0.0011534
0.00116994
0.00116938
0.00116884
0.00116832
0.00116781
0.00116731
0.00116683
0.00116637
0.00116591
0.00116547
0.00116504
0.00116462
0.00116421
0.00116382
0.00116342
0.00116304
0.00116266
0.00116228
0.00116191
0.00116153
0.00116116
0.00116078
0.0011604
0.00116002
0.00115963
0.00115924
0.00115885
0.00115845
0.00115804
0.00115763
0.00115722
0.0011568
0.00115638
0.00116994
0.00116938
0.00116884
0.00116832
0.00116781
0.00116731
0.00116683
0.00116636
0.00116591
0.00116547
0.00116504
0.00116462
0.00116421
0.00116382
0.00116343
0.00116305
0.00116269
0.00116233
0.00116198
0.00116163
0.00116129
0.00116096
0.00116063
0.00116031
0.00115998
0.00115967
0.00115935
0.00115904
0.00115872
0.00115841
0.00115811
0.0011578
0.00115749
0.00116994
0.00116938
0.00116884
0.00116831
0.0011678
0.00116731
0.00116683
0.00116636
0.0011659
0.00116546
0.00116503
0.00116461
0.00116421
0.00116381
0.00116343
0.00116305
0.00116269
0.00116233
0.00116198
0.00116165
0.00116132
0.00116099
0.00116068
0.00116037
0.00116007
0.00115978
0.00115949
0.0011592
0.00115893
0.00115865
0.00115838
0.00115812
0.00115786
0.00116994
0.00116938
0.00116884
0.00116831
0.0011678
0.00116731
0.00116683
0.00116636
0.0011659
0.00116546
0.00116503
0.00116461
0.0011642
0.00116381
0.00116342
0.00116304
0.00116268
0.00116232
0.00116198
0.00116164
0.00116131
0.00116099
0.00116068
0.00116038
0.00116008
0.00115979
0.00115951
0.00115924
0.00115897
0.00115871
0.00115845
0.0011582
0.00115796
0.00116994
0.00116938
0.00116884
0.00116831
0.0011678
0.00116731
0.00116682
0.00116635
0.0011659
0.00116546
0.00116502
0.00116461
0.0011642
0.0011638
0.00116341
0.00116304
0.00116267
0.00116232
0.00116197
0.00116163
0.0011613
0.00116098
0.00116067
0.00116037
0.00116007
0.00115979
0.00115951
0.00115924
0.00115897
0.00115871
0.00115846
0.00115821
0.00115798
0.00116994
0.00116938
0.00116884
0.00116831
0.0011678
0.0011673
0.00116682
0.00116635
0.0011659
0.00116545
0.00116502
0.0011646
0.00116419
0.0011638
0.00116341
0.00116303
0.00116267
0.00116231
0.00116196
0.00116163
0.0011613
0.00116098
0.00116066
0.00116036
0.00116007
0.00115978
0.0011595
0.00115922
0.00115896
0.0011587
0.00115845
0.0011582
0.00115797
0.00116994
0.00116938
0.00116884
0.00116831
0.0011678
0.0011673
0.00116682
0.00116635
0.00116589
0.00116545
0.00116502
0.0011646
0.00116419
0.00116379
0.0011634
0.00116303
0.00116266
0.0011623
0.00116196
0.00116162
0.00116129
0.00116097
0.00116066
0.00116035
0.00116006
0.00115977
0.00115949
0.00115921
0.00115895
0.00115869
0.00115844
0.00115819
0.00115795
0.00116994
0.00116938
0.00116884
0.00116831
0.0011678
0.0011673
0.00116682
0.00116635
0.00116589
0.00116545
0.00116502
0.0011646
0.00116419
0.00116379
0.0011634
0.00116302
0.00116266
0.0011623
0.00116195
0.00116161
0.00116128
0.00116096
0.00116065
0.00116034
0.00116005
0.00115976
0.00115948
0.0011592
0.00115894
0.00115868
0.00115842
0.00115818
0.00115794
0.00116994
0.00116938
0.00116884
0.00116831
0.0011678
0.0011673
0.00116682
0.00116635
0.00116589
0.00116545
0.00116501
0.00116459
0.00116418
0.00116379
0.0011634
0.00116302
0.00116265
0.00116229
0.00116195
0.00116161
0.00116128
0.00116095
0.00116064
0.00116034
0.00116004
0.00115975
0.00115947
0.00115919
0.00115892
0.00115866
0.00115841
0.00115816
0.00115792
0.00116994
0.00116938
0.00116884
0.00116831
0.0011678
0.0011673
0.00116682
0.00116635
0.00116589
0.00116545
0.00116501
0.00116459
0.00116418
0.00116378
0.00116339
0.00116302
0.00116265
0.00116229
0.00116194
0.0011616
0.00116127
0.00116095
0.00116063
0.00116033
0.00116003
0.00115974
0.00115946
0.00115918
0.00115891
0.00115865
0.0011584
0.00115815
0.00115791
0.00116994
0.00116938
0.00116884
0.00116831
0.0011678
0.0011673
0.00116682
0.00116635
0.00116589
0.00116544
0.00116501
0.00116459
0.00116418
0.00116378
0.00116339
0.00116301
0.00116264
0.00116229
0.00116194
0.0011616
0.00116126
0.00116094
0.00116063
0.00116032
0.00116002
0.00115973
0.00115945
0.00115917
0.0011589
0.00115864
0.00115839
0.00115814
0.0011579
0.00116994
0.00116938
0.00116884
0.00116831
0.0011678
0.0011673
0.00116682
0.00116635
0.00116589
0.00116544
0.00116501
0.00116459
0.00116418
0.00116378
0.00116339
0.00116301
0.00116264
0.00116228
0.00116193
0.00116159
0.00116126
0.00116094
0.00116062
0.00116031
0.00116002
0.00115972
0.00115944
0.00115916
0.00115889
0.00115863
0.00115838
0.00115813
0.00115789
0.00116994
0.00116938
0.00116884
0.00116831
0.0011678
0.0011673
0.00116682
0.00116635
0.00116589
0.00116544
0.00116501
0.00116459
0.00116418
0.00116378
0.00116339
0.00116301
0.00116264
0.00116228
0.00116193
0.00116159
0.00116126
0.00116093
0.00116062
0.00116031
0.00116001
0.00115972
0.00115943
0.00115916
0.00115889
0.00115862
0.00115837
0.00115812
0.00115787
0.00116994
0.00116938
0.00116884
0.00116831
0.0011678
0.0011673
0.00116682
0.00116635
0.00116589
0.00116544
0.00116501
0.00116459
0.00116417
0.00116377
0.00116338
0.00116301
0.00116264
0.00116228
0.00116193
0.00116158
0.00116125
0.00116093
0.00116061
0.0011603
0.00116
0.00115971
0.00115943
0.00115915
0.00115888
0.00115861
0.00115836
0.00115811
0.00115786
0.00116994
0.00116938
0.00116884
0.00116831
0.0011678
0.0011673
0.00116682
0.00116635
0.00116589
0.00116544
0.00116501
0.00116458
0.00116417
0.00116377
0.00116338
0.001163
0.00116263
0.00116227
0.00116192
0.00116158
0.00116125
0.00116092
0.00116061
0.0011603
0.00116
0.00115971
0.00115942
0.00115914
0.00115887
0.00115861
0.00115835
0.0011581
0.00115785
0.00116994
0.00116938
0.00116884
0.00116831
0.0011678
0.0011673
0.00116682
0.00116634
0.00116589
0.00116544
0.00116501
0.00116458
0.00116417
0.00116377
0.00116338
0.001163
0.00116263
0.00116227
0.00116192
0.00116158
0.00116125
0.00116092
0.0011606
0.0011603
0.00115999
0.0011597
0.00115942
0.00115914
0.00115886
0.0011586
0.00115834
0.00115809
0.00115784
0.00116994
0.00116938
0.00116884
0.00116831
0.0011678
0.0011673
0.00116682
0.00116635
0.00116589
0.00116544
0.00116501
0.00116459
0.00116417
0.00116377
0.00116338
0.001163
0.00116263
0.00116227
0.00116192
0.00116158
0.00116125
0.00116092
0.0011606
0.00116029
0.00115999
0.0011597
0.00115941
0.00115913
0.00115886
0.0011586
0.00115834
0.00115808
0.00115784
0.00116994
0.00116938
0.00116884
0.00116831
0.0011678
0.0011673
0.00116682
0.00116635
0.00116589
0.00116544
0.00116501
0.00116459
0.00116418
0.00116378
0.00116339
0.00116301
0.00116264
0.00116228
0.00116192
0.00116158
0.00116125
0.00116092
0.0011606
0.00116029
0.00115999
0.0011597
0.00115941
0.00115913
0.00115886
0.00115859
0.00115833
0.00115807
0.00115782
0.00116994
0.00116938
0.00116884
0.00116831
0.0011678
0.00116731
0.00116682
0.00116635
0.0011659
0.00116545
0.00116502
0.0011646
0.00116418
0.00116378
0.00116339
0.00116301
0.00116264
0.00116228
0.00116193
0.00116158
0.00116125
0.00116092
0.0011606
0.00116029
0.00115998
0.00115968
0.00115939
0.0011591
0.00115882
0.00115855
0.00115828
0.00115801
0.00115776
0.00116994
0.00116938
0.00116884
0.00116832
0.00116781
0.00116731
0.00116683
0.00116636
0.0011659
0.00116546
0.00116502
0.0011646
0.00116419
0.00116379
0.0011634
0.00116301
0.00116263
0.00116227
0.0011619
0.00116155
0.0011612
0.00116086
0.00116052
0.00116018
0.00115986
0.00115953
0.00115921
0.0011589
0.00115858
0.00115828
0.00115797
0.00115767
0.00115737
0.00116994
0.00116938
0.00116884
0.00116833
0.00116782
0.00116733
0.00116685
0.00116639
0.00116593
0.00116548
0.00116503
0.00116459
0.00116416
0.00116373
0.00116331
0.00116288
0.00116246
0.00116204
0.00116161
0.00116119
0.00116076
0.00116033
0.0011599
0.00115946
0.00115903
0.00115858
0.00115814
0.00115769
0.00115724
0.00115678
0.00115632
0.00115586
0.0011554
0.00116994
0.00116939
0.00116886
0.00116835
0.00116784
0.00116733
0.00116683
0.00116632
0.00116581
0.00116528
0.00116473
0.00116417
0.00116358
0.00116297
0.00116233
0.00116166
0.00116097
0.00116024
0.00115949
0.00115871
0.0011579
0.00115706
0.0011562
0.00115532
0.00115442
0.00115349
0.00115255
0.00115158
0.00115061
0.00114962
0.00114862
0.0011476
0.00114658
0.00116995
0.0011694
0.00116886
0.00116828
0.00116765
0.00116694
0.00116613
0.00116519
0.00116414
0.00116295
0.00116163
0.00116017
0.00115859
0.00115689
0.00115507
0.00115315
0.00115113
0.00114901
0.00114682
0.00114455
0.00114223
0.00113984
0.00113742
0.00113496
0.00113246
0.00112995
0.00112742
0.00112487
0.00112232
0.00111978
0.00111723
0.0011147
0.00111217
0.00116996
0.00116916
0.00116786
0.00116595
0.00116344
0.0011603
0.00115658
0.00115229
0.00114749
0.00114225
0.00113662
0.00113067
0.00112447
0.00111806
0.00111151
0.00110485
0.00109812
0.00109137
0.00108461
0.00107788
0.0010712
0.00106459
0.00105805
0.00105161
0.00104528
0.00103905
0.00103295
0.00102696
0.00102111
0.00101538
0.00100979
0.00100433
0.000998995
0.00116831
0.00115866
0.00114501
0.00112846
0.00110972
0.00108951
0.00106848
0.00104714
0.00102588
0.00100496
0.000984582
0.000964856
0.000945854
0.000927615
0.00091015
0.000893456
0.000877516
0.000862306
0.000847799
0.000833965
0.00082077
0.000808183
0.000796174
0.000784709
0.000773762
0.000763302
0.000753304
0.000743741
0.000734591
0.00072583
0.000717438
0.000709394
0.000701678
0.00107567
0.000936194
0.000835603
0.000756867
0.000692057
0.000638295
0.000593377
0.000555474
0.000523148
0.000495293
0.000471063
0.000449804
0.00043101
0.000414283
0.000399306
0.000385826
0.000373634
0.000362562
0.000352468
0.000343235
0.000334762
0.000326966
0.000319774
0.000313122
0.000306958
0.000301233
0.000295905
0.00029094
0.000286304
0.000281968
0.000277907
0.000274099
0.000270522
0.000142979
0.000146644
0.000150174
0.000153551
0.000156773
0.000159846
0.000162775
0.000165566
0.000168224
0.000170754
0.00017316
0.000175449
0.000177623
0.000179689
0.000181651
0.000183514
0.000185281
0.000186958
0.000188548
0.000190056
0.000191485
0.00019284
0.000194124
0.000195341
0.000196493
0.000197584
0.000198618
0.000199597
0.000200523
0.0002014
0.000202231
0.000203017
0.000203761
9.07916e-05
0.000111011
0.000138069
0.000172709
0.000213723
0.000258458
0.000303939
0.000347835
0.000389039
0.000427657
0.000464602
0.000501011
0.000537711
0.00057506
0.000612989
0.00065129
0.000689911
0.00072909
0.000769305
0.000811135
0.00085511
0.000901627
0.000950929
0.00100313
0.00105826
0.00111626
0.00117698
0.00124019
0.0013055
0.00137242
0.00144031
0.00150842
0.0015759
0.0016418
0.0017051
0.00176466
0.00181922
0.00186745
0.00190786
0.00193885
0.00195872
0.00196572
0.00195806
0.00193398
0.00189187
0.00183042
0.00174877
0.00164688
0.00152605
0.0013898
0.00124533
0.00110559
0.000991166
0.000928995
0.000941495
0.0010244
0.00113868
0.00124374
0.00132588
0.00138905
0.00143979
0.0014824
0.00151918
0.00155128
0.00157944
0.00160419
0.00162606
0.00164554
0.00166313
0.00167933
0.00169461
0.00170942
0.00172414
0.0017391
0.00175453
0.00177054
0.00178713
0.00180421
0.00182158
0.00183899
0.00185613
0.00187272
0.00188849
0.00190323
0.00191677
0.00192903
0.00193996
0.00194956
0.00195788
0.00196497
0.00197093
0.00197586
0.00197988
0.00198316
0.00198584
0.00198807
0.00198987
0.00199127
0.00199183
0.00199008
7.64694e-05
7.87072e-05
8.23606e-05
8.83793e-05
9.7919e-05
0.000112186
0.000132223
0.00015862
0.000191274
0.000229287
0.000271053
0.000314563
0.000357854
0.000399505
0.000438923
0.000476304
0.000512372
0.000548015
0.000583987
0.000620778
0.000658649
0.000697744
0.000738213
0.000780266
0.000824162
0.000870144
0.000918379
0.000968898
0.00102157
0.00107608
0.00113199
0.00118869
0.00124544
0.0013014
0.0013556
0.00140697
0.0014543
0.00149628
0.00153146
0.00155829
0.00157515
0.00158035
0.00157224
0.00154929
0.00151022
0.00145423
0.00138135
0.00129293
0.00119246
0.00108678
0.000987559
0.000912213
0.000881781
0.000911402
0.000994497
0.00110044
0.00119893
0.00127872
0.00134182
0.00139322
0.00143671
0.0014745
0.00150775
0.00153714
0.00156312
0.00158609
0.00160645
0.00162462
0.00164103
0.00165611
0.00167029
0.00168396
0.0016975
0.00171124
0.00172543
0.00174024
0.00175572
0.00177183
0.00178845
0.00180535
0.00182227
0.00183894
0.00185507
0.00187043
0.00188483
0.00189814
0.00191027
0.00192118
0.00193088
0.00193939
0.00194676
0.00195309
0.00195846
0.00196301
0.00196688
0.00197018
0.00197294
0.00197518
0.00197647
0.00197556
0.000126809
0.000124648
0.000122451
0.000120067
0.000117551
0.000115175
0.000113399
0.000112872
0.000114519
0.000119478
0.000128864
0.000143529
0.000163874
0.000189766
0.000220532
0.000255014
0.00029178
0.000329421
0.000366831
0.000403371
0.000438901
0.000473674
0.000508176
0.000542966
0.000578555
0.000615342
0.000653591
0.000693438
0.000734898
0.000777869
0.000822127
0.000867317
0.000912944
0.000958368
0.0010028
0.00104532
0.00108484
0.00112018
0.00115002
0.00117295
0.00118752
0.00119231
0.001186
0.00116756
0.00113646
0.00109301
0.00103885
0.000977646
0.000915935
0.00086391
0.000835169
0.000843525
0.000895119
0.000980198
0.00107677
0.00116589
0.00124021
0.00130074
0.00135101
0.00139407
0.0014319
0.00146558
0.00149568
0.00152257
0.00154652
0.00156783
0.0015868
0.00160378
0.00161912
0.00163318
0.00164636
0.001659
0.00167145
0.00168405
0.00169704
0.00171063
0.00172493
0.00173995
0.00175561
0.00177177
0.00178819
0.00180463
0.00182082
0.00183651
0.0018515
0.00186561
0.00187872
0.00189077
0.0019017
0.00191151
0.00192022
0.00192788
0.00193456
0.00194037
0.00194541
0.00194979
0.00195354
0.00195666
0.00195871
0.00195876
0.000296457
0.00029028
0.000284069
0.000277759
0.000271281
0.00026459
0.000257654
0.000250342
0.000242369
0.000233308
0.000222894
0.000211467
0.000200196
0.000190708
0.00018509
0.000184125
0.0001881
0.000196969
0.000210409
0.000227877
0.000248687
0.000272105
0.000297443
0.000324142
0.000351818
0.000380269
0.000409454
0.000439436
0.000470323
0.000502205
0.000535104
0.000568928
0.00060345
0.000638294
0.000672927
0.00070667
0.000738707
0.000768103
0.000793837
0.000814848
0.000830104
0.000838714
0.000840077
0.000834107
0.000821535
0.000804298
0.000785993
0.000772251
0.000770627
0.000789269
0.000833595
0.000902018
0.000984882
0.00106941
0.00114628
0.00121204
0.00126739
0.00131459
0.00135581
0.00139258
0.00142578
0.00145589
0.00148316
0.00150775
0.00152983
0.00154959
0.00156728
0.00158316
0.00159752
0.00161067
0.00162294
0.00163465
0.00164613
0.00165766
0.00166952
0.00168193
0.00169501
0.00170885
0.00172343
0.00173863
0.00175431
0.00177024
0.00178619
0.00180191
0.00181718
0.00183181
0.00184566
0.00185861
0.00187059
0.00188155
0.00189147
0.00190036
0.00190829
0.0019153
0.00192149
0.00192695
0.00193169
0.00193571
0.00193855
0.00193966
0.000498362
0.000490111
0.000482078
0.000474201
0.000466419
0.000458674
0.000450929
0.000443159
0.000435324
0.000427286
0.000418684
0.000408872
0.000397028
0.000382005
0.000365148
0.000347667
0.000330588
0.000314873
0.000301347
0.000290627
0.000283103
0.000278947
0.000278156
0.000280596
0.000286048
0.000294255
0.000304952
0.000317893
0.000332868
0.000349698
0.000368236
0.000388338
0.000409847
0.000432562
0.000456222
0.000480488
0.000504944
0.000529111
0.000552484
0.000574586
0.000595065
0.000613813
0.000631128
0.000647896
0.000665772
0.000687247
0.000715481
0.00075365
0.000803764
0.000865336
0.00093487
0.0010069
0.00107605
0.00113881
0.001194
0.00124216
0.00128461
0.00132266
0.00135731
0.00138915
0.00141851
0.00144553
0.00147027
0.00149277
0.00151314
0.00153148
0.00154798
0.00156284
0.0015763
0.00158863
0.00160009
0.00161097
0.00162156
0.00163213
0.00164294
0.00165421
0.00166611
0.00167874
0.00169214
0.00170626
0.00172099
0.00173616
0.00175158
0.00176702
0.00178227
0.00179713
0.00181143
0.00182503
0.00183782
0.00184973
0.0018607
0.0018707
0.00187976
0.00188791
0.0018952
0.00190171
0.00190742
0.00191235
0.001916
0.00191825
0.000686569
0.000677395
0.000668488
0.000659818
0.000651331
0.000642973
0.000634698
0.000626478
0.000618306
0.000610183
0.000602088
0.000593918
0.000585434
0.000576182
0.000566044
0.000554957
0.000542973
0.000530257
0.000517085
0.000503814
0.000490851
0.000478605
0.000467453
0.000457718
0.000449655
0.000443455
0.000439246
0.000437106
0.000437071
0.000439154
0.000443349
0.000449645
0.00045803
0.000468489
0.000481013
0.000495591
0.00051221
0.000530869
0.000551585
0.000574421
0.000599523
0.000627156
0.000657733
0.000691804
0.000729988
0.000772797
0.000820389
0.000872295
0.000927282
0.000983469
0.00103872
0.0010912
0.00113972
0.00118394
0.00122411
0.00126085
0.0012948
0.00132648
0.0013562
0.00138412
0.00141027
0.00143461
0.0014571
0.00147774
0.00149655
0.00151359
0.00152899
0.00154292
0.00155556
0.00156713
0.00157785
0.00158799
0.00159778
0.00160748
0.00161734
0.00162756
0.00163832
0.00164976
0.00166195
0.00167488
0.00168852
0.00170274
0.00171738
0.00173226
0.00174719
0.00176196
0.00177641
0.00179038
0.00180373
0.00181635
0.00182816
0.0018391
0.00184915
0.00185832
0.00186664
0.00187414
0.0018808
0.00188662
0.00189109
0.00189455
0.000843583
0.00083463
0.000825863
0.00081727
0.00080883
0.000800514
0.000792297
0.000784161
0.000776101
0.000768128
0.000760265
0.000752536
0.000744948
0.000737482
0.000730092
0.00072272
0.000715314
0.000707842
0.000700297
0.000692715
0.000685174
0.00067779
0.000670707
0.000664084
0.000658087
0.000652883
0.000648633
0.000645489
0.000643592
0.000643072
0.000644048
0.00064663
0.000650924
0.000657035
0.000665072
0.000675151
0.000687398
0.000701947
0.00071894
0.000738524
0.000760835
0.000785986
0.000814039
0.000844973
0.000878637
0.00091471
0.000952674
0.00099183
0.00103135
0.00107042
0.00110831
0.00114455
0.00117894
0.00121149
0.00124238
0.00127184
0.00130005
0.00132711
0.00135303
0.00137776
0.0014012
0.00142324
0.00144377
0.00146274
0.00148014
0.001496
0.00151041
0.00152347
0.00153535
0.00154622
0.00155628
0.00156574
0.00157482
0.00158375
0.00159274
0.00160199
0.0016117
0.001622
0.00163298
0.00164471
0.00165716
0.00167028
0.00168395
0.00169803
0.00171235
0.00172675
0.00174104
0.00175507
0.00176868
0.00178175
0.00179416
0.00180583
0.0018167
0.00182675
0.00183598
0.00184438
0.00185193
0.00185861
0.00186388
0.00186859
0.000962876
0.0009551
0.000947392
0.000939758
0.000932194
0.000924695
0.000917252
0.000909861
0.000902527
0.000895261
0.000888087
0.000881042
0.000874172
0.000867521
0.000861125
0.000855014
0.000849204
0.000843705
0.000838521
0.000833657
0.000829127
0.000824953
0.00082117
0.000817824
0.000814974
0.000812687
0.000811039
0.000810114
0.00081
0.000810791
0.00081258
0.000815464
0.000819535
0.000824888
0.000831617
0.000839813
0.000849569
0.000860975
0.000874113
0.000889053
0.000905842
0.000924496
0.000944979
0.000967197
0.000990982
0.00101609
0.00104222
0.00106903
0.00109614
0.00112326
0.00115013
0.00117659
0.00120258
0.00122808
0.00125311
0.00127769
0.00130179
0.00132534
0.00134824
0.00137035
0.0013915
0.00141154
0.00143036
0.00144786
0.00146401
0.0014788
0.00149229
0.00150456
0.00151574
0.00152598
0.00153543
0.00154428
0.00155272
0.00156094
0.00156916
0.00157754
0.00158628
0.00159551
0.00160534
0.00161587
0.0016271
0.00163903
0.00165159
0.00166467
0.00167816
0.00169191
0.00170575
0.00171954
0.00173312
0.00174634
0.00175908
0.00177124
0.00178271
0.00179345
0.00180343
0.00181262
0.00182096
0.00182845
0.00183448
0.00184046
0.00104577
0.00103971
0.00103363
0.00102753
0.00102142
0.0010153
0.00100917
0.00100304
0.000996921
0.000990824
0.000984775
0.000978805
0.000972952
0.000967257
0.000961767
0.000956527
0.00095158
0.000946962
0.000942705
0.000938834
0.000935372
0.000932337
0.00092975
0.00092763
0.000925999
0.000924884
0.000924315
0.000924328
0.000924963
0.000926266
0.000928288
0.000931084
0.000934708
0.000939217
0.00094467
0.000951122
0.000958627
0.000967236
0.000976993
0.000987932
0.00100007
0.00101342
0.00102794
0.0010436
0.00106029
0.00107793
0.00109638
0.00111549
0.00113514
0.0011552
0.00117557
0.00119618
0.00121697
0.00123791
0.00125895
0.00128001
0.00130099
0.00132178
0.00134221
0.00136212
0.00138132
0.00139965
0.00141697
0.00143318
0.0014482
0.00146204
0.0014747
0.00148625
0.00149679
0.00150644
0.00151533
0.00152362
0.00153148
0.00153908
0.0015466
0.0015542
0.00156206
0.00157031
0.00157907
0.00158844
0.00159848
0.00160919
0.00162055
0.00163251
0.00164498
0.00165785
0.00167098
0.00168424
0.00169749
0.00171057
0.00172336
0.00173572
0.00174755
0.00175876
0.0017693
0.00177911
0.00178812
0.00179632
0.00180304
0.00181026
0.00109842
0.00109415
0.00108981
0.0010854
0.00108091
0.00107637
0.00107177
0.00106713
0.00106245
0.00105775
0.00105306
0.00104838
0.00104376
0.00103923
0.00103481
0.00103056
0.0010265
0.00102268
0.00101913
0.00101588
0.00101297
0.00101042
0.00100825
0.00100648
0.00100513
0.00100423
0.00100378
0.00100381
0.00100434
0.00100539
0.00100699
0.00100917
0.00101195
0.00101537
0.00101946
0.00102426
0.0010298
0.0010361
0.00104321
0.00105113
0.00105991
0.00106953
0.00108001
0.00109134
0.00110349
0.00111643
0.00113012
0.00114452
0.00115958
0.00117525
0.00119151
0.00120831
0.00122559
0.00124332
0.00126141
0.00127979
0.00129831
0.00131685
0.00133524
0.00135329
0.00137083
0.00138768
0.0014037
0.00141876
0.00143279
0.00144576
0.00145767
0.00146857
0.00147852
0.00148763
0.00149601
0.00150379
0.00151113
0.00151816
0.00152506
0.00153196
0.00153903
0.00154639
0.00155418
0.00156247
0.00157136
0.00158087
0.00159102
0.00160178
0.00161311
0.00162493
0.00163714
0.00164962
0.00166226
0.00167491
0.00168744
0.00169973
0.00171163
0.00172307
0.00173394
0.00174418
0.0017537
0.00176248
0.00176978
0.00177818
0.0011289
0.00112616
0.00112333
0.0011204
0.00111739
0.0011143
0.00111114
0.00110791
0.00110462
0.00110128
0.00109792
0.00109454
0.00109116
0.00108782
0.00108453
0.00108132
0.00107822
0.00107526
0.00107247
0.00106988
0.00106752
0.0010654
0.00106356
0.00106201
0.00106079
0.00105989
0.00105935
0.00105917
0.00105938
0.00105999
0.00106102
0.00106249
0.00106442
0.00106682
0.00106972
0.00107315
0.00107712
0.00108167
0.00108681
0.00109258
0.00109899
0.00110606
0.00111382
0.00112227
0.00113144
0.00114132
0.00115192
0.00116324
0.00117528
0.00118802
0.00120145
0.00121556
0.0012303
0.00124562
0.00126145
0.00127769
0.00129423
0.00131092
0.0013276
0.00134408
0.00136019
0.00137576
0.00139063
0.00140468
0.00141783
0.00143002
0.00144125
0.00145155
0.00146096
0.00146958
0.00147749
0.00148481
0.00149166
0.00149819
0.00150452
0.00151081
0.00151717
0.00152374
0.00153064
0.00153795
0.00154577
0.00155414
0.00156309
0.00157265
0.00158277
0.00159343
0.00160456
0.00161608
0.00162787
0.00163983
0.00165183
0.00166375
0.00167545
0.00168683
0.00169779
0.00170824
0.00171806
0.00172725
0.001735
0.00174446
0.00114495
0.0011433
0.00114157
0.00113977
0.00113789
0.00113594
0.00113391
0.00113182
0.00112967
0.00112747
0.00112522
0.00112295
0.00112066
0.00111837
0.00111609
0.00111384
0.00111165
0.00110953
0.0011075
0.00110559
0.00110382
0.00110219
0.00110075
0.0010995
0.00109847
0.00109766
0.00109711
0.00109681
0.0010968
0.00109709
0.00109768
0.0010986
0.00109987
0.0011015
0.00110351
0.00110593
0.00110877
0.00111205
0.00111581
0.00112006
0.00112483
0.00113016
0.00113607
0.00114259
0.00114974
0.00115755
0.00116605
0.00117526
0.00118519
0.00119586
0.00120725
0.00121937
0.00123218
0.00124564
0.00125969
0.00127422
0.00128913
0.00130428
0.00131951
0.00133465
0.00134953
0.00136397
0.00137783
0.00139099
0.00140334
0.00141484
0.00142546
0.00143521
0.00144413
0.00145229
0.00145977
0.00146666
0.00147308
0.00147915
0.00148498
0.00149071
0.00149645
0.00150231
0.00150842
0.00151485
0.00152169
0.001529
0.00153683
0.0015452
0.00155412
0.00156358
0.00157354
0.00158395
0.00159472
0.00160577
0.001617
0.00162829
0.00163951
0.00165056
0.00166134
0.00167173
0.00168163
0.00169104
0.00169906
0.0017094
0.00115259
0.00115162
0.00115061
0.00114953
0.0011484
0.00114722
0.00114598
0.00114469
0.00114335
0.00114198
0.00114056
0.00113912
0.00113765
0.00113617
0.00113469
0.00113323
0.00113178
0.00113036
0.001129
0.0011277
0.00112647
0.00112534
0.00112431
0.0011234
0.00112264
0.00112202
0.00112156
0.00112129
0.00112122
0.00112135
0.00112171
0.00112231
0.00112316
0.0011243
0.00112572
0.00112746
0.00112954
0.00113197
0.00113479
0.00113802
0.00114169
0.00114583
0.00115049
0.00115568
0.00116146
0.00116785
0.00117489
0.00118261
0.00119104
0.00120019
0.00121007
0.00122069
0.00123201
0.00124401
0.00125662
0.00126976
0.00128332
0.00129718
0.00131117
0.00132516
0.00133896
0.00135242
0.00136538
0.00137773
0.00138937
0.00140024
0.00141029
0.00141955
0.00142802
0.00143576
0.00144284
0.00144935
0.00145537
0.00146102
0.00146641
0.00147163
0.00147682
0.00148206
0.00148746
0.0014931
0.00149907
0.00150542
0.00151221
0.00151948
0.00152724
0.00153551
0.00154427
0.00155349
0.00156313
0.00157312
0.00158338
0.00159381
0.00160431