/*--------------------------------*- C++ -*----------------------------------*\
| =========                 |                                                 |
| \\      /  F ield         | OpenFOAM: The Open Source CFD Toolbox           |
|  \\    /   O peration     | Version:  2.1.1                                 |
|   \\  /    A nd           | Web:      www.OpenFOAM.org                      |
|    \\/     M anipulation  |                                                 |
\*---------------------------------------------------------------------------*/
FoamFile
{
    version     2.0;
    format      ascii;
    class       volScalarField;
    location    "0.095";
    object      p;
}
// * * * * * * * * * * * * * * * * * * * * * * * * * * * * * * * * * * * * * //

dimensions      [0 2 -2 0 0 0 0];

internalField   nonuniform List<scalar> 
6820
(
-11.15
-12.9963
-13.5715
-13.6997
-13.8071
-13.8868
-13.9418
-13.989
-14.0322
-14.0721
-14.1093
-14.1448
-14.1786
-14.2109
-14.2419
-14.2718
-14.3007
-14.3285
-14.3556
-14.382
-14.4077
-14.4329
-14.4576
-14.4818
-14.5055
-14.5287
-14.551
-14.5723
-14.5915
-14.6075
-14.6167
-14.6114
-14.5844
-15.1025
-14.5679
-14.1456
-13.956
-13.9317
-13.9435
-13.9643
-13.9929
-14.0259
-14.0601
-14.0945
-14.1287
-14.1622
-14.1948
-14.2265
-14.2571
-14.2867
-14.3154
-14.3433
-14.3705
-14.3969
-14.4228
-14.4482
-14.4731
-14.4975
-14.5214
-14.5448
-14.5678
-14.5898
-14.6128
-14.635
-14.6808
-14.7393
-13.4599
-13.1562
-13.443
-13.6884
-13.7938
-13.8697
-13.9293
-13.9793
-14.0241
-14.065
-14.1031
-14.1389
-14.1728
-14.2052
-14.2361
-14.2659
-14.2946
-14.3224
-14.3493
-14.3756
-14.4013
-14.4265
-14.4512
-14.4756
-14.4997
-14.5234
-14.5469
-14.5703
-14.5936
-14.618
-14.6439
-14.678
-14.7147
-13.9668
-14.0013
-13.9988
-13.9399
-13.9325
-13.9535
-13.9804
-14.0099
-14.0415
-14.0737
-14.1058
-14.1375
-14.1687
-14.1991
-14.2289
-14.2579
-14.2861
-14.3137
-14.3406
-14.367
-14.3929
-14.4183
-14.4434
-14.4682
-14.4927
-14.5171
-14.5414
-14.566
-14.591
-14.6179
-14.6471
-14.686
-14.7302
-13.8114
-13.7114
-13.7558
-13.8221
-13.8755
-13.9226
-13.9638
-14.0019
-14.0385
-14.0737
-14.1076
-14.1403
-14.172
-14.2027
-14.2323
-14.2611
-14.2891
-14.3163
-14.3429
-14.3689
-14.3944
-14.4196
-14.4444
-14.469
-14.4934
-14.5178
-14.5423
-14.5673
-14.593
-14.6207
-14.6509
-14.687
-14.7268
-13.8664
-13.8499
-13.8752
-13.8986
-13.9213
-13.9511
-13.9832
-14.0155
-14.048
-14.0802
-14.1119
-14.1428
-14.1731
-14.2026
-14.2313
-14.2594
-14.2868
-14.3135
-14.3398
-14.3655
-14.3909
-14.4159
-14.4406
-14.4652
-14.4898
-14.5144
-14.5393
-14.5647
-14.591
-14.6192
-14.6495
-14.6839
-14.7211
-13.8645
-13.8434
-13.8595
-13.8886
-13.9191
-13.9525
-13.9859
-14.0186
-14.0509
-14.0827
-14.1138
-14.1443
-14.1741
-14.2031
-14.2315
-14.2591
-14.2862
-14.3126
-14.3386
-14.3641
-14.3892
-14.4141
-14.4387
-14.4632
-14.4877
-14.5124
-14.5374
-14.5629
-14.5894
-14.6174
-14.6471
-14.6795
-14.7135
-13.8785
-13.8708
-13.8864
-13.9112
-13.9368
-13.9654
-13.9956
-14.0259
-14.0564
-14.0868
-14.1167
-14.1462
-14.175
-14.2033
-14.231
-14.2581
-14.2847
-14.3107
-14.3363
-14.3615
-14.3864
-14.411
-14.4355
-14.4599
-14.4843
-14.5089
-14.5339
-14.5594
-14.5857
-14.6133
-14.6421
-14.6727
-14.7042
-13.8913
-13.8875
-13.8998
-13.9216
-13.946
-13.9733
-14.0021
-14.0314
-14.0607
-14.0901
-14.1191
-14.1477
-14.1758
-14.2034
-14.2305
-14.2571
-14.2832
-14.3088
-14.3341
-14.3589
-14.3835
-14.4079
-14.4322
-14.4564
-14.4806
-14.5051
-14.5299
-14.5552
-14.5812
-14.6081
-14.6359
-14.6648
-14.6943
-13.9047
-13.9041
-13.9156
-13.9354
-13.9579
-13.9831
-14.01
-14.0376
-14.0656
-14.0937
-14.1216
-14.1493
-14.1766
-14.2035
-14.2299
-14.2559
-14.2815
-14.3067
-14.3315
-14.356
-14.3803
-14.4043
-14.4283
-14.4523
-14.4763
-14.5005
-14.525
-14.5499
-14.5754
-14.6015
-14.6284
-14.6558
-14.6835
-13.918
-13.9191
-13.9297
-13.9474
-13.9683
-13.9918
-14.0171
-14.0434
-14.0701
-14.0971
-14.124
-14.1508
-14.1773
-14.2034
-14.2292
-14.2546
-14.2797
-14.3044
-14.3287
-14.3529
-14.3768
-14.4005
-14.4241
-14.4477
-14.4714
-14.4953
-14.5194
-14.5438
-14.5687
-14.594
-14.6198
-14.646
-14.6722
-13.9311
-13.9331
-13.943
-13.9592
-13.9786
-14.0005
-14.0243
-14.0492
-14.0747
-14.1005
-14.1264
-14.1523
-14.1779
-14.2033
-14.2284
-14.2532
-14.2777
-14.3019
-14.3258
-14.3495
-14.3729
-14.3963
-14.4195
-14.4428
-14.466
-14.4895
-14.5131
-14.5369
-14.5611
-14.5856
-14.6104
-14.6353
-14.6603
-13.9437
-13.9461
-13.9555
-13.9703
-13.9883
-14.0088
-14.0312
-14.0548
-14.0791
-14.1038
-14.1287
-14.1537
-14.1785
-14.2031
-14.2276
-14.2517
-14.2756
-14.2993
-14.3227
-14.3458
-14.3689
-14.3917
-14.4146
-14.4373
-14.4601
-14.483
-14.5061
-14.5293
-14.5527
-14.5764
-14.6002
-14.624
-14.6478
-13.9557
-13.9583
-13.9672
-13.9809
-13.9976
-14.0168
-14.0379
-14.0602
-14.0833
-14.107
-14.1309
-14.155
-14.179
-14.2028
-14.2266
-14.2501
-14.2734
-14.2964
-14.3193
-14.342
-14.3645
-14.3869
-14.4092
-14.4315
-14.4537
-14.4761
-14.4985
-14.521
-14.5436
-14.5664
-14.5892
-14.612
-14.6348
-13.967
-13.9697
-13.9781
-13.9908
-14.0064
-14.0243
-14.0442
-14.0654
-14.0874
-14.11
-14.133
-14.1561
-14.1793
-14.2024
-14.2254
-14.2483
-14.2709
-14.2934
-14.3157
-14.3378
-14.3598
-14.3816
-14.4034
-14.4251
-14.4468
-14.4685
-14.4902
-14.512
-14.5339
-14.5557
-14.5776
-14.5994
-14.6211
-13.9777
-13.9803
-13.9882
-14
-14.0146
-14.0315
-14.0502
-14.0702
-14.0912
-14.1128
-14.1348
-14.1571
-14.1794
-14.2018
-14.2241
-14.2462
-14.2683
-14.2901
-14.3118
-14.3334
-14.3548
-14.376
-14.3972
-14.4183
-14.4394
-14.4604
-14.4814
-14.5024
-14.5234
-14.5444
-14.5653
-14.5861
-14.6068
-13.9876
-13.9901
-13.9976
-14.0086
-14.0222
-14.0381
-14.0557
-14.0747
-14.0947
-14.1153
-14.1365
-14.1578
-14.1794
-14.201
-14.2225
-14.244
-14.2654
-14.2866
-14.3077
-14.3286
-14.3494
-14.37
-14.3906
-14.4111
-14.4314
-14.4517
-14.472
-14.4922
-14.5123
-14.5324
-14.5523
-14.5722
-14.5918
-13.9968
-13.9992
-14.0062
-14.0165
-14.0293
-14.0442
-14.0609
-14.0789
-14.0979
-14.1176
-14.1378
-14.1584
-14.1791
-14.2
-14.2208
-14.2416
-14.2622
-14.2828
-14.3032
-14.3235
-14.3437
-14.3637
-14.3836
-14.4033
-14.423
-14.4426
-14.462
-14.4814
-14.5006
-14.5197
-14.5387
-14.5575
-14.5762
-14.0052
-14.0074
-14.014
-14.0237
-14.0357
-14.0498
-14.0655
-14.0826
-14.1007
-14.1195
-14.1389
-14.1586
-14.1786
-14.1987
-14.2188
-14.2389
-14.2589
-14.2787
-14.2985
-14.3181
-14.3376
-14.3569
-14.3761
-14.3952
-14.4141
-14.4328
-14.4515
-14.47
-14.4883
-14.5065
-14.5245
-14.5423
-14.5599
-14.0128
-14.0149
-14.0211
-14.0302
-14.0415
-14.0547
-14.0697
-14.0859
-14.1031
-14.1211
-14.1397
-14.1586
-14.1778
-14.1971
-14.2165
-14.2359
-14.2552
-14.2744
-14.2935
-14.3124
-14.3312
-14.3498
-14.3683
-14.3866
-14.4047
-14.4226
-14.4404
-14.458
-14.4754
-14.4927
-14.5097
-14.5264
-14.543
-14.0195
-14.0215
-14.0274
-14.0359
-14.0466
-14.0591
-14.0732
-14.0887
-14.1051
-14.1223
-14.14
-14.1582
-14.1766
-14.1952
-14.2139
-14.2326
-14.2512
-14.2697
-14.2881
-14.3063
-14.3244
-14.3423
-14.36
-14.3775
-14.3949
-14.412
-14.4289
-14.4456
-14.462
-14.4783
-14.4943
-14.51
-14.5255
-14.0254
-14.0273
-14.0328
-14.0409
-14.0509
-14.0628
-14.0762
-14.0909
-14.1066
-14.123
-14.14
-14.1574
-14.1752
-14.193
-14.211
-14.229
-14.2469
-14.2647
-14.2824
-14.2999
-14.3173
-14.3344
-14.3514
-14.3681
-14.3846
-14.4008
-14.4169
-14.4326
-14.4481
-14.4634
-14.4783
-14.493
-14.5074
-14.0305
-14.0323
-14.0375
-14.0451
-14.0546
-14.0659
-14.0786
-14.0926
-14.1076
-14.1233
-14.1396
-14.1563
-14.1733
-14.1905
-14.2078
-14.2251
-14.2423
-14.2594
-14.2764
-14.2932
-14.3098
-14.3262
-14.3424
-14.3583
-14.3739
-14.3893
-14.4044
-14.4193
-14.4338
-14.448
-14.4619
-14.4755
-14.4888
-14.0346
-14.0363
-14.0412
-14.0484
-14.0575
-14.0682
-14.0803
-14.0937
-14.108
-14.123
-14.1386
-14.1547
-14.171
-14.1876
-14.2042
-14.2208
-14.2373
-14.2537
-14.27
-14.2861
-14.302
-14.3176
-14.333
-14.3481
-14.3629
-14.3774
-14.3916
-14.4055
-14.419
-14.4322
-14.4451
-14.4576
-14.4697
-14.0379
-14.0395
-14.0441
-14.051
-14.0596
-14.0698
-14.0814
-14.0942
-14.1079
-14.1223
-14.1374
-14.1528
-14.1685
-14.1844
-14.2003
-14.2163
-14.2321
-14.2479
-14.2634
-14.2788
-14.2939
-14.3088
-14.3234
-14.3376
-14.3516
-14.3652
-14.3785
-14.3914
-14.404
-14.4161
-14.4279
-14.4394
-14.4504
-14.0402
-14.0417
-14.0461
-14.0525
-14.0607
-14.0704
-14.0815
-14.0937
-14.1069
-14.1208
-14.1352
-14.1501
-14.1652
-14.1805
-14.1958
-14.2111
-14.2263
-14.2414
-14.2563
-14.271
-14.2854
-14.2995
-14.3133
-14.3267
-14.3398
-14.3526
-14.3649
-14.3769
-14.3885
-14.3997
-14.4104
-14.4208
-14.4307
-14.0415
-14.043
-14.0472
-14.0534
-14.0613
-14.0707
-14.0814
-14.0932
-14.1059
-14.1193
-14.1333
-14.1475
-14.1621
-14.1768
-14.1915
-14.2062
-14.2208
-14.2352
-14.2494
-14.2633
-14.277
-14.2903
-14.3033
-14.3159
-14.3282
-14.34
-14.3515
-14.3625
-14.3731
-14.3832
-14.3929
-14.4022
-14.411
-14.0418
-14.0431
-14.0469
-14.0526
-14.0599
-14.0689
-14.0792
-14.0905
-14.1028
-14.1158
-14.1293
-14.1431
-14.1573
-14.1715
-14.1857
-14.1999
-14.2139
-14.2278
-14.2413
-14.2547
-14.2676
-14.2803
-14.2925
-14.3044
-14.3158
-14.3269
-14.3374
-14.3476
-14.3572
-14.3664
-14.3751
-14.3833
-14.391
-14.0412
-14.0427
-14.0467
-14.0525
-14.0599
-14.0688
-14.0788
-14.0899
-14.1019
-14.1144
-14.1275
-14.1408
-14.1544
-14.168
-14.1817
-14.1952
-14.2086
-14.2217
-14.2346
-14.2472
-14.2594
-14.2712
-14.2827
-14.2937
-14.3043
-14.3144
-14.3241
-14.3333
-14.3419
-14.3501
-14.3578
-14.3649
-14.3715
-14.039
-14.0396
-14.0424
-14.0472
-14.0538
-14.0621
-14.0718
-14.0827
-14.0946
-14.1071
-14.12
-14.1333
-14.1467
-14.1602
-14.1736
-14.1868
-14.1999
-14.2127
-14.2252
-14.2373
-14.249
-14.2603
-14.2711
-14.2815
-14.2914
-14.3008
-14.3097
-14.3181
-14.3259
-14.3332
-14.3399
-14.3461
-14.3518
-14.0375
-14.04
-14.0443
-14.0501
-14.0572
-14.0655
-14.0751
-14.0856
-14.0968
-14.1086
-14.1209
-14.1334
-14.1461
-14.1587
-14.1713
-14.1838
-14.196
-14.208
-14.2197
-14.2309
-14.2418
-14.2522
-14.2622
-14.2717
-14.2807
-14.2892
-14.2972
-14.3046
-14.3114
-14.3177
-14.3235
-14.3286
-14.3332
-14.0295
-14.0275
-14.0276
-14.031
-14.0373
-14.0459
-14.0561
-14.0675
-14.0798
-14.0927
-14.1059
-14.1192
-14.1326
-14.1458
-14.1589
-14.1716
-14.1841
-14.1961
-14.2078
-14.219
-14.2297
-14.2398
-14.2495
-14.2586
-14.2671
-14.2751
-14.2825
-14.2893
-14.2955
-14.3011
-14.3061
-14.3105
-14.3142
-14.036
-14.0424
-14.048
-14.0528
-14.0583
-14.0653
-14.0736
-14.083
-14.0932
-14.104
-14.1153
-14.1268
-14.1384
-14.1501
-14.1617
-14.173
-14.1841
-14.195
-14.2054
-14.2154
-14.225
-14.2341
-14.2427
-14.2508
-14.2583
-14.2653
-14.2716
-14.2774
-14.2826
-14.2872
-14.2912
-14.2946
-14.2973
-14.0043
-13.9908
-13.9859
-13.9906
-14.0002
-14.0122
-14.0257
-14.0401
-14.0549
-14.0699
-14.0848
-14.0994
-14.1137
-14.1276
-14.1411
-14.154
-14.1664
-14.1783
-14.1895
-14.2002
-14.2102
-14.2196
-14.2284
-14.2365
-14.244
-14.2508
-14.257
-14.2625
-14.2673
-14.2715
-14.275
-14.2778
-14.28
-14.0571
-14.0772
-14.0812
-14.0762
-14.0736
-14.0755
-14.0802
-14.0866
-14.0944
-14.1033
-14.1128
-14.1228
-14.133
-14.1434
-14.1537
-14.1638
-14.1737
-14.1833
-14.1926
-14.2014
-14.2097
-14.2176
-14.2249
-14.2316
-14.2378
-14.2434
-14.2484
-14.2527
-14.2565
-14.2596
-14.262
-14.2639
-14.265
-13.9343
-13.8847
-13.8729
-13.899
-13.9262
-13.9499
-13.973
-13.9955
-14.0167
-14.0367
-14.0556
-14.0734
-14.0901
-14.1059
-14.1207
-14.1347
-14.1477
-14.16
-14.1714
-14.1821
-14.1919
-14.201
-14.2093
-14.2169
-14.2237
-14.2297
-14.235
-14.2395
-14.2433
-14.2464
-14.2488
-14.2504
-14.2512
-14.1819
-14.2166
-14.1854
-14.1423
-14.1132
-14.1019
-14.0986
-14.0987
-14.1017
-14.1069
-14.1136
-14.1212
-14.1295
-14.1381
-14.1468
-14.1555
-14.1641
-14.1725
-14.1805
-14.1882
-14.1954
-14.2021
-14.2083
-14.214
-14.2191
-14.2236
-14.2274
-14.2307
-14.2333
-14.2352
-14.2365
-14.2372
-14.2372
-13.6896
-13.5698
-13.632
-13.7334
-13.8069
-13.858
-13.9009
-13.9384
-13.9708
-13.9991
-14.0243
-14.0469
-14.0673
-14.0859
-14.1028
-14.1183
-14.1326
-14.1456
-14.1576
-14.1685
-14.1785
-14.1875
-14.1956
-14.2029
-14.2093
-14.2148
-14.2195
-14.2234
-14.2264
-14.2287
-14.2302
-14.2309
-14.2308
-14.9038
-14.5648
-14.3008
-14.1832
-14.1329
-14.1071
-14.0914
-14.0845
-14.0838
-14.0869
-14.0924
-14.0994
-14.1075
-14.1162
-14.1251
-14.134
-14.1428
-14.1514
-14.1597
-14.1675
-14.1748
-14.1817
-14.1879
-14.1935
-14.1986
-14.2029
-14.2066
-14.2097
-14.212
-14.2137
-14.2146
-14.2149
-14.2145
-12.4
-13.1066
-13.5108
-13.6629
-13.7671
-13.8489
-13.9078
-13.952
-13.9876
-14.017
-14.0416
-14.0629
-14.0817
-14.0985
-14.1136
-14.1273
-14.1398
-14.1513
-14.1617
-14.1712
-14.1799
-14.1876
-14.1945
-14.2006
-14.2059
-14.2104
-14.214
-14.2169
-14.2191
-14.2204
-14.221
-14.2208
-14.2199
-14.4714
-14.674
-14.8208
-14.8926
-14.924
-14.9444
-14.9743
-15.0301
-15.1193
-15.2404
-15.3895
-15.5598
-15.7419
-15.9296
-16.1159
-16.2914
-16.452
-16.5935
-16.7128
-16.8084
-16.88
-16.9279
-16.9533
-16.9575
-16.9418
-16.9077
-16.8565
-16.7892
-16.7069
-16.6104
-16.5004
-16.3775
-16.242
-16.0941
-15.9339
-15.7613
-15.5757
-15.3765
-15.1626
-14.9324
-14.6841
-14.4152
-14.1228
-13.8036
-13.4538
-13.0693
-12.6459
-12.1795
-11.6662
-11.1027
-10.4868
-9.81748
-9.09607
-8.32654
-7.5166
-6.67868
-5.83052
-4.99292
-4.18556
-3.42511
-2.72545
-2.09726
-1.54717
-1.07743
-0.6863
-0.368762
-0.117622
0.0754895
0.219253
0.322044
0.391552
0.434577
0.456969
0.463649
0.458668
0.445308
0.426179
0.403319
0.378286
0.352245
0.32604
0.300262
0.275302
0.251399
0.228689
0.207216
0.186979
0.167918
0.149992
0.133067
0.11717
0.101973
0.0878814
0.0737805
0.0617187
0.0472518
0.0392867
0.0195096
0.0248815
-0.0195546
-15.1025
-15.2125
-15.1109
-15.0147
-14.9493
-14.9045
-14.8945
-14.924
-15
-15.1178
-15.2715
-15.4551
-15.6483
-15.8454
-16.0386
-16.2166
-16.3761
-16.5138
-16.628
-16.7185
-16.7856
-16.8303
-16.8534
-16.8561
-16.8395
-16.8048
-16.7532
-16.6857
-16.6033
-16.5068
-16.397
-16.2744
-16.1394
-15.9921
-15.8326
-15.6606
-15.4757
-15.2771
-15.0637
-14.834
-14.586
-14.3172
-14.0249
-13.7056
-13.3556
-12.971
-12.5476
-12.0814
-11.5686
-11.0061
-10.3917
-9.725
-9.00798
-8.24591
-7.44798
-6.62788
-5.80254
-4.98943
-4.20509
-3.46482
-2.78194
-2.16678
-1.62579
-1.16141
-0.772262
-0.453925
-0.199843
-0.0022759
0.146907
0.255635
0.331249
0.380307
0.408486
0.420599
0.420638
0.411858
0.396864
0.377708
0.355973
0.332854
0.309228
0.28572
0.262756
0.240604
0.219429
0.1993
0.180239
0.162205
0.145175
0.129026
0.113804
0.0991823
0.085593
0.071902
0.0602203
0.0460207
0.0383751
0.0187314
0.0244355
-0.0198946
-14.7685
-14.7489
-14.7597
-14.8065
-14.8503
-14.8849
-14.9211
-14.9774
-15.057
-15.1619
-15.2893
-15.4322
-15.5953
-15.7626
-15.9351
-16.0991
-16.2519
-16.3886
-16.5055
-16.6003
-16.6717
-16.7198
-16.7451
-16.7489
-16.7326
-16.6977
-16.6457
-16.5778
-16.4951
-16.3985
-16.2887
-16.1662
-16.0313
-15.8843
-15.725
-15.5533
-15.3686
-15.1701
-14.9567
-14.7269
-14.4786
-14.2094
-13.9165
-13.5965
-13.2458
-12.8603
-12.4362
-11.9693
-11.4562
-10.8939
-10.2811
-9.61843
-8.90895
-8.15889
-7.37817
-6.57978
-5.77827
-4.98869
-4.22625
-3.50543
-2.83893
-2.23656
-1.70463
-1.24566
-0.858645
-0.539693
-0.282863
-0.0810137
0.0734502
0.188015
0.269681
0.324751
0.35873
0.376315
0.381431
0.3773
0.366521
0.351154
0.332804
0.312691
0.291727
0.270568
0.249672
0.229338
0.209759
0.19103
0.173194
0.156231
0.140137
0.1248
0.110282
0.0962647
0.0832011
0.0699467
0.0586591
0.0447595
0.0374238
0.0179854
0.0239325
-0.0200913
-14.8276
-14.9358
-14.9828
-14.9827
-14.9683
-14.9583
-14.9664
-15.0012
-15.0639
-15.1555
-15.2734
-15.4129
-15.5698
-15.7343
-15.8899
-16.0419
-16.181
-16.3034
-16.4071
-16.4909
-16.5542
-16.5972
-16.6202
-16.6237
-16.6084
-16.5753
-16.5253
-16.4592
-16.378
-16.2827
-16.1737
-16.0518
-15.9173
-15.7705
-15.6113
-15.4394
-15.2545
-15.0556
-14.8416
-14.6109
-14.3616
-14.0912
-13.7968
-13.4751
-13.1226
-12.7353
-12.3094
-11.8413
-11.328
-10.7675
-10.1592
-9.50432
-8.80649
-8.07245
-7.31167
-6.5356
-5.75708
-4.99
-4.24867
-3.54676
-2.89625
-2.30649
-1.78357
-1.33007
-0.945331
-0.62596
-0.366587
-0.160642
-0.00105157
0.119238
0.206885
0.267936
0.307716
0.330801
0.341043
0.341626
0.335137
0.32364
0.308758
0.291737
0.273516
0.254784
0.23603
0.217583
0.199663
0.18239
0.165831
0.149985
0.134867
0.120378
0.106599
0.0932149
0.0807026
0.0679119
0.0570358
0.0434677
0.0364413
0.017268
0.0233968
-0.0201499
-14.7842
-14.8221
-14.8258
-14.8338
-14.8566
-14.888
-14.9285
-14.9843
-15.0588
-15.1535
-15.267
-15.3953
-15.5351
-15.6794
-15.8225
-15.9615
-16.0905
-16.2059
-16.3051
-16.3861
-16.4476
-16.489
-16.5103
-16.5122
-16.4953
-16.4608
-16.4096
-16.3426
-16.2609
-16.165
-16.0558
-15.9336
-15.7988
-15.6515
-15.4916
-15.319
-15.133
-14.9329
-14.7173
-14.4849
-14.2335
-13.9607
-13.6639
-13.3398
-12.9849
-12.5958
-12.169
-11.7014
-11.1905
-10.6346
-10.0337
-9.38943
-8.70602
-7.98983
-7.24935
-6.49491
-5.73846
-4.99308
-4.2722
-3.58869
-2.95383
-2.37647
-1.86248
-1.41451
-1.0322
-0.7126
-0.450889
-0.241044
-0.0764891
0.0494013
0.142947
0.209935
0.255505
0.284108
0.299515
0.304868
0.302735
0.295183
0.283849
0.269999
0.254601
0.238372
0.221832
0.205339
0.189139
0.173379
0.158148
0.143466
0.129364
0.115762
0.102752
0.0900328
0.078097
0.0657967
0.055349
0.0421434
0.0354248
0.0165747
0.0228222
-0.0200785
-14.7705
-14.8225
-14.8613
-14.8913
-14.915
-14.9373
-14.9671
-15.0121
-15.0756
-15.1583
-15.259
-15.3744
-15.5013
-15.634
-15.7659
-15.8932
-16.0113
-16.1167
-16.2068
-16.2799
-16.3349
-16.3715
-16.3898
-16.3899
-16.3724
-16.338
-16.2873
-16.2211
-16.14
-16.0447
-15.9357
-15.8134
-15.6782
-15.5302
-15.3693
-15.1953
-15.0075
-14.8053
-14.5874
-14.3524
-14.0982
-13.8228
-13.5233
-13.1968
-12.8403
-12.4504
-12.0239
-11.5582
-11.0511
-10.5015
-9.90984
-9.27808
-8.6101
-7.91174
-7.19089
-6.45726
-5.72211
-4.99773
-4.29672
-3.63113
-3.01156
-2.44639
-1.94127
-1.49889
-1.11913
-0.799501
-0.535661
-0.322116
-0.15277
-0.0214136
0.077935
0.150805
0.202144
0.236272
0.256876
0.267046
0.269332
0.265795
0.258082
0.24748
0.234981
0.221331
0.207075
0.192603
0.178186
0.163995
0.150143
0.13667
0.123627
0.110947
0.098741
0.0867167
0.0753831
0.0636003
0.0535979
0.0407859
0.0343733
0.0159044
0.0222072
-0.0198804
-14.7554
-14.7984
-14.8284
-14.8512
-14.8753
-14.9054
-14.9447
-14.9967
-15.0631
-15.1446
-15.2404
-15.3482
-15.4646
-15.5853
-15.7052
-15.8208
-15.9284
-16.0247
-16.1073
-16.1744
-16.2248
-16.2579
-16.2734
-16.2713
-16.2522
-16.2164
-16.1647
-16.0976
-16.0159
-15.9201
-15.8107
-15.6879
-15.5522
-15.4034
-15.2416
-15.0663
-14.8771
-14.673
-14.4531
-14.2158
-13.9592
-13.6814
-13.3797
-13.0515
-12.6938
-12.3037
-11.8785
-11.4158
-10.9139
-10.372
-9.79056
-9.17158
-8.51876
-7.83767
-7.13579
-6.4223
-5.7078
-5.00381
-4.32211
-3.67397
-3.06935
-2.51617
-2.01984
-1.58309
-1.20603
-0.886553
-0.620797
-0.403756
-0.2298
-0.0931231
0.0119232
0.0906072
0.147684
0.187334
0.213156
0.228186
0.234944
0.235486
0.231465
0.224185
0.214659
0.203658
0.191757
0.179371
0.166798
0.154233
0.141812
0.129595
0.117652
0.105933
0.0945638
0.0832654
0.07256
0.0613221
0.0517822
0.0393945
0.033287
0.0152555
0.0215521
-0.0195601
-14.7417
-14.7821
-14.8161
-14.8465
-14.8775
-14.9113
-14.9511
-15.0006
-15.0624
-15.1371
-15.2243
-15.3219
-15.4272
-15.5364
-15.6453
-15.7504
-15.8482
-15.9358
-16.0107
-16.0713
-16.1162
-16.1449
-16.1568
-16.1522
-16.1312
-16.0941
-16.0415
-15.9739
-15.8918
-15.7956
-15.6857
-15.5624
-15.4259
-15.2762
-15.1132
-14.9365
-14.7456
-14.5397
-14.3177
-14.0782
-13.8195
-13.5396
-13.2362
-12.9068
-12.5487
-12.1593
-11.7362
-11.2773
-10.7811
-10.2471
-9.67586
-9.06942
-8.43139
-7.76712
-7.08371
-6.38981
-5.69538
-5.01119
-4.34827
-3.71714
-3.12713
-2.58571
-2.0981
-1.66701
-1.29278
-0.973646
-0.706185
-0.485859
-0.30748
-0.165638
-0.0550107
0.0294093
0.0921799
0.137341
0.168394
0.188316
0.199595
0.204274
0.20401
0.200121
0.193639
0.185358
0.17588
0.165645
0.154976
0.144093
0.133153
0.12224
0.111439
0.100719
0.0902196
0.0796783
0.0696273
0.0589615
0.0499018
0.0379687
0.0321659
0.0146262
0.0208583
-0.019124
-14.7285
-14.7663
-14.8
-14.8311
-14.8626
-14.8975
-14.9384
-14.9882
-15.0482
-15.1193
-15.2005
-15.2903
-15.3864
-15.4855
-15.5842
-15.6793
-15.7678
-15.8468
-15.9144
-15.9686
-16.0084
-16.0329
-16.0416
-16.0344
-16.0114
-15.9729
-15.9192
-15.8507
-15.7678
-15.6709
-15.5604
-15.4364
-15.2992
-15.1485
-14.9844
-14.8065
-14.6141
-14.4065
-14.1827
-13.9413
-13.6808
-13.3992
-13.0945
-12.7643
-12.4063
-12.018
-11.5973
-11.1424
-10.6522
-10.1261
-9.56509
-8.97107
-8.34759
-7.6998
-7.03442
-6.35962
-5.68471
-5.01979
-4.37512
-3.76055
-3.1848
-2.65494
-2.17596
-1.75057
-1.37929
-1.06067
-0.791717
-0.568317
-0.38571
-0.238865
-0.122784
-0.0327172
0.0356939
0.0863435
0.122632
0.147471
0.16331
0.17218
0.175734
0.1753
0.171929
0.166437
0.159447
0.151426
0.14272
0.133575
0.124168
0.114603
0.104987
0.0953034
0.0857082
0.0759552
0.0665849
0.0565186
0.0479567
0.0365081
0.0310104
0.014014
0.0201276
-0.01858
-14.7155
-14.7513
-14.7851
-14.8176
-14.8511
-14.8877
-14.9293
-14.9779
-15.035
-15.1011
-15.1757
-15.2575
-15.3445
-15.434
-15.5229
-15.6085
-15.6881
-15.759
-15.8194
-15.8674
-15.9019
-15.922
-15.9272
-15.9172
-15.8921
-15.8519
-15.7969
-15.7274
-15.6438
-15.5462
-15.435
-15.3103
-15.1723
-15.0207
-14.8555
-14.6763
-14.4825
-14.2734
-14.048
-13.805
-13.5429
-13.2599
-12.9542
-12.6236
-12.266
-11.8792
-11.4613
-11.0108
-10.5267
-10.0088
-9.45793
-8.87624
-8.26714
-7.63554
-6.9878
-6.33161
-5.67571
-5.02951
-4.40259
-3.80413
-3.24231
-2.72378
-2.25333
-1.83366
-1.46544
-1.14752
-0.877281
-0.651021
-0.464385
-0.312709
-0.19131
-0.0956958
-0.0217083
0.0343972
0.0759152
0.105687
0.126122
0.139228
0.146656
0.149739
0.149543
0.146903
0.142465
0.136719
0.130036
0.122682
0.114858
0.106688
0.0982973
0.0896881
0.0810306
0.072097
0.0634337
0.0539937
0.0459475
0.0350121
0.0298211
0.0134167
0.0193628
-0.0179378
-14.7024
-14.7366
-14.7699
-14.8028
-14.8368
-14.8736
-14.9148
-14.962
-15.0163
-15.0781
-15.1468
-15.2215
-15.3003
-15.3809
-15.4609
-15.5377
-15.6087
-15.6719
-15.7253
-15.7672
-15.7964
-15.8121
-15.8137
-15.8009
-15.7734
-15.7314
-15.675
-15.6044
-15.5198
-15.4214
-15.3094
-15.184
-15.045
-14.8926
-14.7263
-14.5459
-14.3509
-14.1404
-13.9135
-13.669
-13.4056
-13.1217
-12.8153
-12.4847
-12.1278
-11.7428
-11.3281
-10.8822
-10.4044
-9.89478
-9.35423
-8.78482
-8.18992
-7.57422
-6.94374
-6.30571
-5.66829
-5.04028
-4.4306
-3.84781
-3.29957
-2.79216
-2.33014
-1.9162
-1.55115
-1.2341
-0.962771
-0.733864
-0.543401
-0.387071
-0.260498
-0.159446
-0.0799559
-0.0184368
0.0282962
0.0630099
0.0880666
0.10545
0.1168
0.123457
0.126496
0.12677
0.124945
0.121534
0.116929
0.111419
0.105227
0.0984973
0.0913732
0.0838756
0.076189
0.0681053
0.060175
0.0513879
0.0438751
0.0334809
0.0285989
0.0128313
0.018567
-0.0172083
-14.689
-14.7218
-14.7545
-14.7874
-14.8215
-14.8582
-14.8987
-14.9441
-14.9954
-15.0528
-15.1159
-15.1837
-15.2547
-15.3271
-15.3986
-15.4669
-15.53
-15.5856
-15.6322
-15.6681
-15.6922
-15.7035
-15.7014
-15.6855
-15.6556
-15.6116
-15.5536
-15.4817
-15.396
-15.2967
-15.1838
-15.0575
-14.9176
-14.7642
-14.5969
-14.4154
-14.2191
-14.0074
-13.7792
-13.5336
-13.2691
-12.9844
-12.6777
-12.3474
-11.9916
-11.6088
-11.1975
-10.7565
-10.2854
-9.78415
-9.25391
-8.69673
-8.11586
-7.51578
-6.90217
-6.28182
-5.66238
-5.05202
-4.45908
-3.89153
-3.35653
-2.86
-2.40631
-1.99811
-1.63631
-1.32029
-1.04808
-0.816737
-0.622651
-0.461849
-0.330255
-0.223882
-0.138974
-0.0720931
-0.0201689
0.0194863
0.0491835
0.0708769
0.0861956
0.0964778
0.102808
0.106054
0.1069
0.105881
0.103408
0.0997944
0.0952825
0.0900369
0.0842195
0.07787
0.0711867
0.0639832
0.0568113
0.0487028
0.0417411
0.0319145
0.0273449
0.0122552
0.0177441
-0.016404
-14.6753
-14.7067
-14.7386
-14.771
-14.8047
-14.8407
-14.8799
-14.9234
-14.9715
-15.0246
-15.0823
-15.1437
-15.2076
-15.2722
-15.3358
-15.3962
-15.4516
-15.5002
-15.5401
-15.5702
-15.5891
-15.5959
-15.5901
-15.5711
-15.5386
-15.4925
-15.4327
-15.3594
-15.2724
-15.172
-15.0582
-14.9309
-14.7902
-14.6358
-14.4675
-14.2849
-14.0875
-13.8746
-13.6453
-13.3986
-13.1334
-12.8481
-12.5415
-12.2118
-11.8575
-11.4772
-11.0696
-10.6339
-10.1695
-9.67684
-9.15696
-8.61193
-8.04491
-7.46015
-6.86303
-6.2599
-5.65791
-5.06469
-4.48798
-3.93523
-3.41313
-2.92725
-2.48177
-2.07929
-1.72084
-1.406
-1.1331
-0.89953
-0.702026
-0.536939
-0.400482
-0.288915
-0.198682
-0.126501
-0.0694187
-0.0248306
0.00951839
0.0355491
0.0548742
0.0688284
0.0785018
0.0847744
0.0883477
0.0897741
0.0894874
0.0878192
0.0850335
0.0813147
0.076843
0.0716771
0.066029
0.0597347
0.0533462
0.0459412
0.0395477
0.0303137
0.0260607
0.0116854
0.0168984
-0.0155384
-14.661
-14.6912
-14.722
-14.7536
-14.7865
-14.8215
-14.8592
-14.9003
-14.9453
-14.9942
-15.0467
-15.1021
-15.1592
-15.2166
-15.2727
-15.3256
-15.3738
-15.4155
-15.4491
-15.4734
-15.4872
-15.4896
-15.48
-15.4577
-15.4225
-15.3741
-15.3125
-15.2376
-15.1493
-15.0477
-14.9328
-14.8045
-14.6628
-14.5074
-14.338
-14.1544
-13.956
-13.7421
-13.5119
-13.2644
-12.9986
-12.7131
-12.4068
-12.078
-11.7256
-11.3481
-10.9445
-10.5142
-10.0569
-9.57284
-9.06334
-8.53038
-7.977
-7.40727
-6.82624
-6.23987
-5.65483
-5.07822
-4.51726
-3.97887
-3.46931
-2.99385
-2.55645
-2.15969
-1.80466
-1.49113
-1.21773
-0.982136
-0.781419
-0.612236
-0.471081
-0.354454
-0.258997
-0.181586
-0.119387
-0.0698831
-0.0308787
-0.000490628
0.0228734
0.0405411
0.0536054
0.0629556
0.069308
0.0732324
0.0751814
0.0755067
0.074492
0.0723413
0.0692529
0.065305
0.0607226
0.0553656
0.0497843
0.0431066
0.037298
0.0286797
0.0247483
0.0111194
0.0160346
-0.014626
-14.6461
-14.6751
-14.7047
-14.7353
-14.767
-14.8006
-14.8365
-14.8752
-14.9169
-14.9617
-15.0093
-15.0589
-15.1096
-15.1603
-15.2093
-15.2552
-15.2965
-15.3316
-15.3591
-15.3778
-15.3866
-15.3846
-15.3711
-15.3455
-15.3075
-15.2567
-15.1931
-15.1164
-15.0267
-14.9238
-14.8077
-14.6783
-14.5356
-14.3792
-14.2089
-14.0243
-13.8249
-13.6101
-13.3791
-13.131
-12.8649
-12.5795
-12.2737
-11.9462
-11.5959
-11.2215
-10.8223
-10.3976
-9.94743
-9.47216
-8.97303
-8.45204
-7.91211
-7.35709
-6.79176
-6.22168
-5.65308
-5.09257
-4.54685
-4.02239
-3.52504
-3.05974
-2.6303
-2.23921
-1.88766
-1.57559
-1.30186
-1.06445
-0.860719
-0.687632
-0.541948
-0.4204
-0.319829
-0.237267
-0.170002
-0.115608
-0.0719526
-0.0371943
-0.00976492
0.0116524
0.0281503
0.0406252
0.0498055
0.0562766
0.0605092
0.0628735
0.0636726
0.0631296
0.0614607
0.0587636
0.0552763
0.0508835
0.0461321
0.040204
0.034996
0.0270146
0.0234105
0.0105546
0.0151579
-0.0136817
-14.6307
-14.6583
-14.6867
-14.7159
-14.7463
-14.7782
-14.8121
-14.8482
-14.8866
-14.9274
-14.9702
-15.0144
-15.0591
-15.1033
-15.1458
-15.185
-15.2197
-15.2486
-15.2702
-15.2834
-15.2873
-15.2809
-15.2635
-15.2345
-15.1936
-15.1404
-15.0746
-14.9961
-14.9047
-14.8005
-14.6831
-14.5526
-14.4088
-14.2514
-14.0801
-13.8945
-13.6943
-13.4787
-13.2471
-12.9987
-12.7324
-12.4474
-12.1424
-11.8165
-11.4685
-11.0976
-10.7029
-10.2841
-9.84124
-9.3748
-8.88602
-8.37688
-7.85018
-7.30957
-6.75953
-6.20528
-5.65261
-5.10768
-4.57673
-4.06576
-3.58026
-3.12489
-2.70325
-2.3178
-1.96978
-1.65929
-1.38539
-1.14635
-0.939817
-0.763018
-0.612976
-0.486655
-0.381086
-0.29346
-0.221188
-0.161937
-0.113643
-0.0745085
-0.042994
-0.0177966
0.00217288
0.017815
0.0298682
0.0389319
0.0454929
0.0499395
0.052593
0.0536954
0.0534802
0.0520653
0.0497007
0.0462974
0.0423973
0.0372396
0.0326469
0.0253213
0.0220504
0.00998917
0.0142736
-0.0127204
-14.6145
-14.6408
-14.6678
-14.6956
-14.7244
-14.7545
-14.7861
-14.8195
-14.8546
-14.8914
-14.9296
-14.9686
-15.0077
-15.0459
-15.0821
-15.1151
-15.1436
-15.1664
-15.1823
-15.1902
-15.1892
-15.1785
-15.1572
-15.1248
-15.0809
-15.0251
-14.9571
-14.8767
-14.7836
-14.6779
-14.5592
-14.4275
-14.2825
-14.1241
-13.9519
-13.7655
-13.5644
-13.3482
-13.1161
-12.8675
-12.6013
-12.3168
-12.013
-11.6889
-11.3436
-10.9763
-10.5865
-10.1738
-9.73831
-9.28074
-8.80229
-8.30487
-7.79117
-7.26465
-6.72951
-6.19062
-5.65339
-5.12353
-4.60685
-4.10895
-3.63495
-3.18924
-2.77526
-2.3954
-2.05094
-1.74213
-1.46823
-1.22775
-1.0186
-0.838283
-0.684059
-0.553115
-0.442671
-0.350075
-0.272863
-0.208798
-0.155884
-0.112375
-0.0767617
-0.0477596
-0.024286
-0.00543855
0.00952865
0.0212272
0.0301585
0.0367278
0.0412738
0.0440571
0.0453281
0.0452246
0.0440088
0.0416185
0.0385896
0.0342212
0.0302572
0.023604
0.0206722
0.00942195
0.0133875
-0.0117569
-14.5977
-14.6225
-14.648
-14.6742
-14.7013
-14.7294
-14.7587
-14.7892
-14.8211
-14.854
-14.8878
-14.9219
-14.9557
-14.9881
-15.0184
-15.0454
-15.068
-15.085
-15.0955
-15.0983
-15.0926
-15.0775
-15.0524
-15.0166
-14.9696
-14.9111
-14.8408
-14.7583
-14.6635
-14.5562
-14.4361
-14.3032
-14.1571
-13.9976
-13.8244
-13.6372
-13.4355
-13.2187
-12.9863
-12.7376
-12.4718
-12.1881
-11.8857
-11.5637
-11.2213
-10.8579
-10.4731
-10.0666
-9.63867
-9.19
-8.72182
-8.23599
-7.73506
-7.2223
-6.70165
-6.17767
-5.65537
-5.14008
-4.6372
-4.15193
-3.68907
-3.25276
-2.84627
-2.47193
-2.13107
-1.82402
-1.55027
-1.30853
-1.09696
-0.913314
-0.755084
-0.619672
-0.504483
-0.407019
-0.324941
-0.25611
-0.198604
-0.150729
-0.111011
-0.0781853
-0.0511802
-0.0290943
-0.0111763
0.00319541
0.0145356
0.023265
0.0297391
0.0342363
0.0370234
0.0382587
0.0382158
0.0368601
0.0347203
0.0311581
0.0278348
0.021868
0.0192808
0.00885263
0.0125054
-0.0108048
-14.5802
-14.6035
-14.6275
-14.652
-14.6772
-14.7032
-14.73
-14.7577
-14.7863
-14.8155
-14.845
-14.8744
-14.903
-14.9301
-14.9548
-14.9761
-14.9931
-15.0046
-15.0098
-15.0077
-14.9973
-14.978
-14.949
-14.9098
-14.8598
-14.7986
-14.7258
-14.6413
-14.5446
-14.4356
-14.3141
-14.1798
-14.0326
-13.8721
-13.698
-13.51
-13.3076
-13.0904
-12.8579
-12.6093
-12.344
-12.0613
-11.7605
-11.4408
-11.1016
-10.7423
-10.3627
-9.96259
-9.54231
-9.10258
-8.64461
-8.1702
-7.6818
-7.18248
-6.67593
-6.16638
-5.65853
-5.15731
-4.66774
-4.19467
-3.7426
-3.31541
-2.91624
-2.54735
-2.21008
-1.9049
-1.63142
-1.38859
-1.17479
-0.987998
-0.82594
-0.686217
-0.566416
-0.464192
-0.37733
-0.30379
-0.241727
-0.189501
-0.145678
-0.109017
-0.0784585
-0.053106
-0.032205
-0.0151258
-0.00134191
0.00958176
0.0180163
0.0242577
0.0285884
0.0311873
0.032339
0.0320374
0.0308027
0.0280616
0.0253889
0.02012
0.0178822
0.00828208
0.0116331
-0.00987643
-14.562
-14.5838