/*--------------------------------*- C++ -*----------------------------------*\
| =========                 |                                                 |
| \\      /  F ield         | OpenFOAM: The Open Source CFD Toolbox           |
|  \\    /   O peration     | Version:  2.1.1                                 |
|   \\  /    A nd           | Web:      www.OpenFOAM.org                      |
|    \\/     M anipulation  |                                                 |
\*---------------------------------------------------------------------------*/
FoamFile
{
    version     2.0;
    format      ascii;
    class       surfaceScalarField;
    location    "0.095";
    object      phi;
}
// * * * * * * * * * * * * * * * * * * * * * * * * * * * * * * * * * * * * * //

dimensions      [0 3 -1 0 0 0 0];

internalField   nonuniform List<scalar> 
13452
(
6.89923e-05
-5.05055e-07
6.88137e-05
1.78661e-07
6.82024e-05
6.11283e-07
6.72551e-05
9.47295e-07
6.61787e-05
1.07642e-06
6.50873e-05
1.09138e-06
6.40227e-05
1.06459e-06
6.30022e-05
1.02049e-06
6.20341e-05
9.68047e-07
6.1122e-05
9.12152e-07
6.02668e-05
8.55223e-07
5.94681e-05
7.98712e-07
5.87245e-05
7.43565e-07
5.80341e-05
6.90446e-07
5.73942e-05
6.39803e-07
5.68023e-05
5.91918e-07
5.62554e-05
5.46947e-07
5.57504e-05
5.04947e-07
5.52845e-05
4.65904e-07
5.48548e-05
4.29754e-07
5.44584e-05
3.96402e-07
5.40926e-05
3.65742e-07
5.3755e-05
3.37673e-07
5.34428e-05
3.12123e-07
5.31538e-05
2.89079e-07
5.28851e-05
2.68645e-07
5.2634e-05
2.51129e-07
5.23966e-05
2.37397e-07
5.21677e-05
2.289e-07
5.19366e-05
2.3105e-07
5.16856e-05
2.51032e-07
5.13649e-05
3.20691e-07
5.17813e-07
5.08471e-05
7.0165e-05
-2.26067e-07
7.00412e-05
3.02465e-07
7.01818e-05
4.70628e-07
7.05092e-05
6.19933e-07
7.08598e-05
7.25829e-07
7.11588e-05
7.92354e-07
7.13836e-05
8.39759e-07
7.15359e-05
8.68193e-07
7.16236e-05
8.8035e-07
7.16556e-05
8.80208e-07
7.16401e-05
8.70718e-07
7.15846e-05
8.54207e-07
7.14957e-05
8.32483e-07
7.13791e-05
8.07013e-07
7.12399e-05
7.78973e-07
7.10825e-05
7.49303e-07
7.09107e-05
7.18754e-07
7.07278e-05
6.87916e-07
7.05364e-05
6.57247e-07
7.03391e-05
6.27103e-07
7.01377e-05
5.97755e-07
6.9934e-05
5.69418e-07
6.97294e-05
5.42272e-07
6.95251e-05
5.16483e-07
6.93219e-05
4.92254e-07
6.91207e-05
4.69834e-07
6.89221e-05
4.49699e-07
6.87271e-05
4.32427e-07
6.85363e-05
4.1969e-07
6.83552e-05
4.12213e-07
6.81892e-05
4.16989e-07
6.80888e-05
4.21073e-07
4.53914e-07
6.81527e-05
7.22816e-05
-5.11656e-08
7.23968e-05
1.87257e-07
7.25018e-05
3.65709e-07
7.25884e-05
5.33256e-07
7.26719e-05
6.42364e-07
7.27542e-05
7.10102e-07
7.28406e-05
7.53356e-07
7.29276e-05
7.8118e-07
7.30112e-05
7.96752e-07
7.30888e-05
8.02622e-07
7.31587e-05
8.00746e-07
7.32202e-05
7.92697e-07
7.3273e-05
7.79754e-07
7.33169e-05
7.63037e-07
7.33524e-05
7.43489e-07
7.33798e-05
7.219e-07
7.33997e-05
6.98926e-07
7.34125e-05
6.75102e-07
7.34189e-05
6.50867e-07
7.34194e-05
6.26572e-07
7.34146e-05
6.02505e-07
7.34051e-05
5.78908e-07
7.33914e-05
5.55994e-07
7.33739e-05
5.33969e-07
7.33531e-05
5.13069e-07
7.33294e-05
4.93572e-07
7.33031e-05
4.75935e-07
7.32749e-05
4.60631e-07
7.32457e-05
4.4893e-07
7.32171e-05
4.40792e-07
7.31931e-05
4.41027e-07
7.31755e-05
4.38689e-07
4.62926e-07
7.31665e-05
7.45185e-05
-4.30533e-08
7.44882e-05
2.17535e-07
7.44769e-05
3.7709e-07
7.45165e-05
4.93578e-07
7.4577e-05
5.81944e-07
7.46435e-05
6.4359e-07
7.47095e-05
6.87294e-07
7.47736e-05
7.1711e-07
7.48354e-05
7.34993e-07
7.48947e-05
7.43311e-07
7.49513e-05
7.44089e-07
7.50051e-05
7.38886e-07
7.50559e-05
7.28949e-07
7.51036e-05
7.15337e-07
7.51482e-05
6.98931e-07
7.51896e-05
6.8046e-07
7.5228e-05
6.60529e-07
7.52635e-05
6.39634e-07
7.52962e-05
6.18183e-07
7.53263e-05
5.9651e-07
7.53539e-05
5.74893e-07
7.53792e-05
5.53567e-07
7.54025e-05
5.32743e-07
7.54238e-05
5.12625e-07
7.54434e-05
4.93438e-07
7.54616e-05
4.7543e-07
7.54785e-05
4.58967e-07
7.54948e-05
4.44368e-07
7.55114e-05
4.32379e-07
7.55295e-05
4.22678e-07
7.55535e-05
4.1695e-07
7.55839e-05
4.08328e-07
4.02248e-07
7.56446e-05
7.66036e-05
9.23629e-09
7.66283e-05
1.92802e-07
7.66648e-05
3.40563e-07
7.67031e-05
4.55322e-07
7.67416e-05
5.43425e-07
7.67813e-05
6.03885e-07
7.68234e-05
6.45164e-07
7.68676e-05
6.72972e-07
7.69127e-05
6.89911e-07
7.69578e-05
6.98128e-07
7.70025e-05
6.9939e-07
7.70464e-05
6.95068e-07
7.7089e-05
6.86286e-07
7.71303e-05
6.74004e-07
7.71703e-05
6.5903e-07
7.72087e-05
6.42039e-07
7.72456e-05
6.23594e-07
7.72811e-05
6.04159e-07
7.73151e-05
5.8412e-07
7.73479e-05
5.63793e-07
7.73793e-05
5.43443e-07
7.74096e-05
5.23293e-07
7.74388e-05
5.03546e-07
7.7467e-05
4.84391e-07
7.74944e-05
4.66025e-07
7.75212e-05
4.48649e-07
7.75477e-05
4.32521e-07
7.75742e-05
4.17815e-07
7.76017e-05
4.04875e-07
7.76312e-05
3.93204e-07
7.7665e-05
3.83167e-07
7.7703e-05
3.70251e-07
3.56255e-07
7.7749e-05
7.88312e-05
2.39598e-08
7.88389e-05
1.85115e-07
7.88571e-05
3.22316e-07
7.88861e-05
4.26332e-07
7.89226e-05
5.06934e-07
7.8962e-05
5.64526e-07
7.90023e-05
6.04825e-07
7.90429e-05
6.32344e-07
7.90835e-05
6.49379e-07
7.91237e-05
6.57903e-07
7.91634e-05
6.59639e-07
7.92026e-05
6.55942e-07
7.92409e-05
6.47911e-07
7.92785e-05
6.36473e-07
7.93151e-05
6.224e-07
7.93508e-05
6.06339e-07
7.93856e-05
5.88825e-07
7.94194e-05
5.70302e-07
7.94524e-05
5.51138e-07
7.94846e-05
5.31635e-07
7.9516e-05
5.12047e-07
7.95467e-05
4.92588e-07
7.95768e-05
4.73447e-07
7.96064e-05
4.54792e-07
7.96356e-05
4.3679e-07
7.96647e-05
4.19589e-07
7.96938e-05
4.0335e-07
7.97235e-05
3.88126e-07
7.97544e-05
3.73987e-07
7.97872e-05
3.60403e-07
7.98233e-05
3.47072e-07
7.98624e-05
3.31174e-07
3.12528e-07
7.99061e-05
8.10848e-05
3.77362e-08
8.10948e-05
1.75053e-07
8.11184e-05
2.9872e-07
8.11493e-05
3.95499e-07
8.11841e-05
4.72079e-07
8.12203e-05
5.28313e-07
8.12572e-05
5.67974e-07
8.12945e-05
5.95067e-07
8.13319e-05
6.11977e-07
8.13691e-05
6.20637e-07
8.14061e-05
6.22701e-07
8.14425e-05
6.19478e-07
8.14784e-05
6.12027e-07
8.15137e-05
6.01235e-07
8.15482e-05
5.87848e-07
8.15821e-05
5.72484e-07
8.16152e-05
5.55658e-07
8.16477e-05
5.37797e-07
8.16796e-05
5.19255e-07
8.17109e-05
5.00325e-07
8.17417e-05
4.81248e-07
8.17721e-05
4.62228e-07
8.18021e-05
4.43439e-07
8.18319e-05
4.2503e-07
8.18615e-05
4.07135e-07
8.18912e-05
3.89857e-07
8.19213e-05
3.73274e-07
8.19521e-05
3.57361e-07
8.1984e-05
3.42031e-07
8.20177e-05
3.26788e-07
8.20536e-05
3.11131e-07
8.20915e-05
2.93315e-07
2.72805e-07
8.21312e-05
8.34101e-05
4.31618e-08
8.34201e-05
1.6504e-07
8.34411e-05
2.77758e-07
8.34688e-05
3.67793e-07
8.35014e-05
4.39501e-07
8.35364e-05
4.93292e-07
8.35725e-05
5.31857e-07
8.36091e-05
5.58505e-07
8.36456e-05
5.75413e-07
8.36819e-05
5.84339e-07
8.37178e-05
5.86821e-07
8.37532e-05
5.84112e-07
8.3788e-05
5.77239e-07
8.38221e-05
5.67062e-07
8.38557e-05
5.54301e-07
8.38886e-05
5.39556e-07
8.3921e-05
5.23326e-07
8.39527e-05
5.06025e-07
8.3984e-05
4.87996e-07
8.40148e-05
4.69521e-07
8.40452e-05
4.50832e-07
8.40753e-05
4.32123e-07
8.41052e-05
4.13554e-07
8.4135e-05
3.95256e-07
8.41648e-05
3.77332e-07
8.41948e-05
3.59847e-07
8.42252e-05
3.42827e-07
8.42564e-05
3.26199e-07
8.42886e-05
3.09804e-07
8.43222e-05
2.93218e-07
8.43574e-05
2.75952e-07
8.43937e-05
2.56935e-07
2.35717e-07
8.44308e-05
8.57964e-05
4.5527e-08
8.58063e-05
1.55107e-07
8.58267e-05
2.57396e-07
8.58536e-05
3.40859e-07
8.58851e-05
4.07965e-07
8.59191e-05
4.59281e-07
8.59543e-05
4.96657e-07
8.59901e-05
5.22746e-07
8.6026e-05
5.39527e-07
8.60617e-05
5.4862e-07
8.60971e-05
5.51454e-07
8.6132e-05
5.49218e-07
8.61663e-05
5.42892e-07
8.62001e-05
5.333e-07
8.62332e-05
5.21135e-07
8.62658e-05
5.06975e-07
8.62978e-05
4.91302e-07
8.63294e-05
4.74517e-07
8.63604e-05
4.5695e-07
8.6391e-05
4.38875e-07
8.64214e-05
4.20516e-07
8.64514e-05
4.02055e-07
8.64813e-05
3.83639e-07
8.65112e-05
3.65383e-07
8.65412e-05
3.47366e-07
8.65714e-05
3.2963e-07
8.66021e-05
3.12164e-07
8.66334e-05
2.94877e-07
8.66656e-05
2.77595e-07
8.66988e-05
2.59981e-07
8.67331e-05
2.41637e-07
8.67682e-05
2.21925e-07
2.00569e-07
8.68033e-05
8.82501e-05
4.54232e-08
8.82602e-05
1.44993e-07
8.82796e-05
2.37997e-07
8.83052e-05
3.15279e-07
8.83353e-05
3.77891e-07
8.83681e-05
4.26443e-07
8.84025e-05
4.62293e-07
8.84376e-05
4.87573e-07
8.84731e-05
5.04047e-07
8.85086e-05
5.13182e-07
8.85437e-05
5.16283e-07
8.85785e-05
5.14458e-07
8.86128e-05
5.08631e-07
8.86465e-05
4.99587e-07
8.86796e-05
4.87986e-07
8.87122e-05
4.74383e-07
8.87443e-05
4.59241e-07
8.87758e-05
4.42945e-07
8.8807e-05
4.25815e-07
8.88377e-05
4.08114e-07
8.88682e-05
3.90056e-07
8.88984e-05
3.71813e-07
8.89286e-05
3.53522e-07
8.89587e-05
3.35283e-07
8.89889e-05
3.1716e-07
8.90193e-05
2.99176e-07
8.90502e-05
2.81307e-07
8.90816e-05
2.63461e-07
8.91137e-05
2.45483e-07
8.91466e-05
2.27117e-07
8.91801e-05
2.08078e-07
8.92141e-05
1.87996e-07
1.6675e-07
8.92479e-05
9.07728e-05
4.39425e-08
9.07829e-05
1.34908e-07
9.08014e-05
2.195e-07
9.08258e-05
2.90806e-07
9.08547e-05
3.49e-07
9.08865e-05
3.94642e-07
9.09201e-05
4.28759e-07
9.09546e-05
4.53044e-07
9.09896e-05
4.69039e-07
9.10247e-05
4.78064e-07
9.10597e-05
4.81304e-07
9.10944e-05
4.79784e-07
9.11286e-05
4.74374e-07
9.11624e-05
4.65811e-07
9.11957e-05
4.54721e-07
9.12284e-05
4.41631e-07
9.12607e-05
4.26985e-07
9.12925e-05
4.1115e-07
9.13239e-05
3.94433e-07
9.13549e-05
3.77085e-07
9.13856e-05
3.59311e-07
9.14162e-05
3.41273e-07
9.14466e-05
3.23097e-07
9.1477e-05
3.04874e-07
9.15075e-05
2.86656e-07
9.15382e-05
2.6846e-07
9.15693e-05
2.50258e-07
9.16008e-05
2.31972e-07
9.16328e-05
2.13476e-07
9.16653e-05
1.9459e-07
9.16983e-05
1.75127e-07
9.17314e-05
1.54886e-07
1.3385e-07
9.17643e-05
9.3367e-05
4.16299e-08
9.3377e-05
1.24876e-07
9.33947e-05
2.01825e-07
9.34181e-05
2.674e-07
9.34458e-05
3.21282e-07
9.34765e-05
3.63917e-07
9.35092e-05
3.96109e-07
9.3543e-05
4.19207e-07
9.35775e-05
4.34543e-07
9.36123e-05
4.43298e-07
9.3647e-05
4.46542e-07
9.36816e-05
4.45216e-07
9.37158e-05
4.40127e-07
9.37497e-05
4.31965e-07
9.37831e-05
4.21319e-07
9.3816e-05
4.0869e-07
9.38485e-05
3.94495e-07
9.38806e-05
3.79086e-07
9.39123e-05
3.62754e-07
9.39436e-05
3.45738e-07
9.39747e-05
3.28233e-07
9.40056e-05
3.10392e-07
9.40363e-05
2.92332e-07
9.40671e-05
2.74135e-07
9.40979e-05
2.55851e-07
9.41288e-05
2.37493e-07
9.41601e-05
2.19039e-07
9.41916e-05
2.00429e-07
9.42235e-05
1.81572e-07
9.42558e-05
1.62351e-07
9.42882e-05
1.42654e-07
9.43207e-05
1.22386e-07
1.01591e-07
9.4353e-05
9.60348e-05
3.88672e-08
9.60447e-05
1.14986e-07
9.60616e-05
1.8492e-07
9.60841e-05
2.4499e-07
9.61107e-05
2.94647e-07
9.61404e-05
3.34213e-07
9.61722e-05
3.64332e-07
9.62053e-05
3.86082e-07
9.62392e-05
4.00603e-07
9.62736e-05
4.08942e-07
9.63081e-05
4.12059e-07
9.63425e-05
4.10811e-07
9.63767e-05
4.05943e-07
9.64105e-05
3.98097e-07
9.6444e-05
3.87825e-07
9.64771e-05
3.75594e-07
9.65098e-05
3.61802e-07
9.65421e-05
3.46778e-07
9.65741e-05
3.308e-07
9.66057e-05
3.14094e-07
9.66371e-05
2.96844e-07
9.66683e-05
2.79194e-07
9.66994e-05
2.61255e-07
9.67304e-05
2.43105e-07
9.67615e-05
2.24789e-07
9.67926e-05
2.06324e-07
9.6824e-05
1.87699e-07
9.68555e-05
1.68873e-07
9.68873e-05
1.49788e-07
9.69193e-05
1.30376e-07
9.69514e-05
1.10579e-07
9.69834e-05
9.03666e-08
6.98129e-08
9.70152e-05
9.87787e-05
3.58822e-08
9.87884e-05
1.05289e-07
9.88046e-05
1.6872e-07
9.88261e-05
2.23504e-07
9.88517e-05
2.69025e-07
9.88804e-05
3.05492e-07
9.89113e-05
3.33424e-07
9.89437e-05
3.53687e-07
9.89771e-05
3.67252e-07
9.9011e-05
3.75038e-07
9.90452e-05
3.77903e-07
9.90793e-05
3.76622e-07
9.91134e-05
3.71878e-07
9.91472e-05
3.64265e-07
9.91808e-05
3.54293e-07
9.9214e-05
3.42402e-07
9.92468e-05
3.28961e-07
9.92793e-05
3.14284e-07
9.93115e-05
2.98629e-07
9.93433e-05
2.82212e-07
9.9375e-05
2.65204e-07
9.94064e-05
2.47745e-07
9.94378e-05
2.29936e-07
9.9469e-05
2.11855e-07
9.95002e-05
1.93546e-07
9.95315e-05
1.75033e-07
9.95629e-05
1.56312e-07
9.95944e-05
1.37366e-07
9.96261e-05
1.18163e-07
9.96578e-05
9.86712e-08
9.96895e-05
7.8871e-08
9.97211e-05
5.87664e-08
3.84461e-08
9.97524e-05
0.000101601
3.28149e-08
0.00010161
9.58293e-08
0.000101626
1.53171e-07
0.000101646
2.02877e-07
0.000101671
2.44348e-07
0.000101699
2.77704e-07
0.000101729
3.03361e-07
0.000101761
3.22022e-07
0.000101793
3.34505e-07
0.000101827
3.41615e-07
0.000101861
3.44113e-07
0.000101895
3.42696e-07
0.000101928
3.37984e-07
0.000101962
3.30522e-07
0.000101996
3.20783e-07
0.000102029
3.09173e-07
0.000102062
2.96038e-07
0.000102094
2.8167e-07
0.000102127
2.66311e-07
0.000102159
2.50164e-07
0.000102191
2.33392e-07
0.000102222
2.16125e-07
0.000102254
1.98462e-07
0.000102285
1.80476e-07
0.000102316
1.62217e-07
0.000102348
1.43711e-07
0.000102379
1.24968e-07
0.00010241
1.05986e-07
0.000102442
8.67566e-08
0.000102473
6.72724e-08
0.000102505
4.75396e-08
0.000102536
2.75814e-08
7.48929e-09
0.000102567
0.000104503
2.97475e-08
0.000104513
8.66321e-08
0.000104528
1.38223e-07
0.000104547
1.83043e-07
0.000104571
2.20551e-07
0.000104598
2.50798e-07
0.000104627
2.74115e-07
0.000104658
2.91076e-07
0.00010469
3.02369e-07
0.000104723
3.08693e-07
0.000104757
3.10719e-07
0.00010479
3.09068e-07
0.000104824
3.04303e-07
0.000104858
2.96919e-07
0.000104891
2.87349e-07
0.000104924
2.75967e-07
0.000104957
2.63095e-07
0.00010499
2.49003e-07
0.000105022
2.33918e-07
0.000105054
2.18029e-07
0.000105086
2.01489e-07
0.000105118
1.84422e-07
0.00010515
1.66924e-07
0.000105181
1.49065e-07
0.000105212
1.30898e-07
0.000105244
1.12456e-07
0.000105275
9.37583e-08
0.000105306
7.48165e-08
0.000105337
5.56382e-08
0.000105368
3.62346e-08
0.000105399
1.66269e-08
0.00010543
-3.15175e-09
-2.30127e-08
0.00010546
0.000107489
2.67263e-08
0.000107498
7.77116e-08
0.000107512
1.23833e-07
0.000107531
1.63944e-07
0.000107554
1.97572e-07
0.00010758
2.24721e-07
0.000107609
2.45653e-07
0.000107639
2.60834e-07
0.000107671
2.70843e-07
0.000107703
2.76283e-07
0.000107736
2.77741e-07
0.000107769
2.7577e-07
0.000107803
2.70873e-07
0.000107836
2.63498e-07
0.00010787
2.54039e-07
0.000107903
2.42839e-07
0.000107936
2.30192e-07
0.000107968
2.16348e-07
0.000108001
2.0152e-07
0.000108033
1.85881e-07
0.000108065
1.69577e-07
0.000108096
1.52724e-07
0.000108128
1.35414e-07
0.000108159
1.17718e-07
0.00010819
9.96892e-08
0.000108222
8.13663e-08
0.000108253
6.27775e-08
0.000108283
4.39446e-08
0.000108314
2.48872e-08
0.000108345
5.62791e-09
0.000108375
-1.38028e-08
0.000108405
-3.33681e-08
-5.29838e-08
0.000108435
0.00011056
2.37756e-08
0.000110568
6.90709e-08
0.000110582
1.0996e-07
0.000110601
1.45522e-07
0.000110623
1.75353e-07
0.000110648
1.99422e-07
0.000110676
2.17935e-07
0.000110706
2.31272e-07
0.000110736
2.39918e-07
0.000110768
2.44388e-07
0.000110801
2.45195e-07
0.000110834
2.42826e-07
0.000110867
2.37726e-07
0.0001109
2.30298e-07
0.000110933
2.20899e-07
0.000110966
2.09838e-07
0.000110999
1.97386e-07
0.000111032
1.8377e-07
0.000111064
1.69187e-07
0.000111096
1.53798e-07
0.000111128
1.37738e-07
0.00011116
1.21117e-07
0.000111191
1.04024e-07
0.000111222
8.65283e-08
0.000111253
6.86852e-08
0.000111284
5.05375e-08
0.000111315
3.21195e-08
0.000111345
1.34606e-08
0.000111375
-5.41131e-09
0.000111406
-2.44664e-08
0.000111435
-4.36695e-08
0.000111465
-6.29828e-08
-8.23273e-08
0.000111494
0.000113718
2.09066e-08
0.000113727
6.07057e-08
0.00011374
9.65662e-08
0.000113758
1.27725e-07
0.000113779
1.53837e-07
0.000113804
1.74851e-07
0.000113831
1.90923e-07
0.00011386
2.02365e-07
0.00011389
2.0958e-07
0.000113922
2.13007e-07
0.000113954
2.1309e-07
0.000113986
2.10252e-07
0.000114019
2.04888e-07
0.000114052
1.97355e-07
0.000114085
1.87971e-07
0.000114118
1.77015e-07
0.000114151
1.64732e-07
0.000114183
1.5133e-07
0.000114215
1.36986e-07
0.000114247
1.21851e-07
0.000114279
1.0605e-07
0.00011431
8.96851e-08
0.000114341
7.28417e-08
0.000114372
5.55883e-08
0.000114403
3.79807e-08
0.000114434
2.00645e-08
0.000114464
1.87847e-09
0.000114494
-1.65429e-08
0.000114524
-3.51665e-08
0.000114553
-5.39583e-08
0.000114582
-7.2881e-08
0.000114611
-9.18974e-08
-1.10933e-07
0.00011464
0.000116967
1.81228e-08
0.000116975
5.26061e-08
0.000116988
8.36157e-08
0.000117005
1.10503e-07
0.000117026
1.3297e-07
0.00011705
1.50955e-07
0.000117077
1.64574e-07
0.000117105
1.74081e-07
0.000117135
1.7981e-07
0.000117165
1.82132e-07
0.000117197
1.81427e-07
0.000117229
1.78062e-07
0.000117262
1.72381e-07
0.000117294
1.64697e-07
0.000117327
1.55291e-07
0.00011736
1.44414e-07
0.000117392
1.32283e-07
0.000117424
1.19086e-07
0.000117456
1.04984e-07
0.000117488
9.01133e-08
0.00011752
7.45901e-08
0.000117551
5.85104e-08
0.000117582
4.19543e-08
0.000117612
2.49885e-08
0.000117643
7.6685e-09
0.000117673
-9.95835e-09
0.000117702
-2.78508e-08
0.000117732
-4.59711e-08
0.000117761
-6.42833e-08
0.00011779
-8.2751e-08
0.000117818
-1.01337e-07
0.000117846
-1.20004e-07
-1.38683e-07
0.000117874
0.000120309
1.54231e-08
0.000120317
4.47583e-08
0.000120329
7.10743e-08
0.000120346
9.3808e-08
0.000120366
1.127e-07
0.000120389
1.27683e-07
0.000120415
1.38844e-07
0.000120443
1.46385e-07
0.000120472
1.50583e-07
0.000120502
1.5175e-07
0.000120534
1.50204e-07
0.000120565
1.46263e-07
0.000120598
1.40221e-07
0.00012063
1.32349e-07
0.000120662
1.22895e-07
0.000120695
1.12077e-07
0.000120727
1.00087e-07
0.000120759
8.70943e-08
0.000120791
7.32418e-08
0.000120822
5.86535e-08
0.000120853
4.34345e-08
0.000120884
2.7674e-08
0.000120915
1.14472e-08
0.000120945
-5.18217e-09
0.000120975
-2.21594e-08
0.000121004
-3.94371e-08
0.000121033
-5.69727e-08
0.000121062
-7.4727e-08
0.00012109
-9.26626e-08
0.000121118
-1.10742e-07
0.000121146
-1.28929e-07
0.000121173
-1.47188e-07
-1.65453e-07
0.0001212
0.000123746
1.28038e-08
0.000123753
3.7147e-08
0.000123766
5.89093e-08
0.000123782
7.75949e-08
0.000123802
9.29771e-08
0.000123824
1.04986e-07
0.000123849
1.13685e-07
0.000123877
1.19238e-07
0.000123905
1.2187e-07
0.000123935
1.21839e-07
0.000123966
1.1941e-07
0.000123997
1.14853e-07
0.000124029
1.08417e-07
0.000124061
1.00331e-07
0.000124093
9.08087e-08
0.000124125
8.00389e-08
0.000124157
6.81893e-08
0.000124189
5.54072e-08
0.00012422
4.18198e-08
0.000124251
2.75375e-08
0.000124282
1.26548e-08
0.000124313
-2.74677e-09
0.000124343
-1.85975e-08
0.000124372
-3.48372e-08
0.000124402
-5.14132e-08
0.00012443
-6.82788e-08
0.000124459
-8.53918e-08
0.000124487
-1.02713e-07
0.000124514
-1.20203e-07
0.000124541
-1.37828e-07
0.000124568
-1.55549e-07
0.000124594
-1.73334e-07
-1.91119e-07
0.00012462
0.000127281
1.02598e-08
0.000127288
2.97545e-08
0.0001273
4.70876e-08
0.000127316
6.18172e-08
0.000127335
7.37467e-08
0.000127357
8.28075e-08
0.000127382
8.90455e-08
0.000127409
9.25936e-08
0.000127437
9.36327e-08
0.000127466
9.23721e-08
0.000127497
8.90263e-08
0.000127528
8.38282e-08
0.000127559
7.69743e-08
0.000127591
6.86566e-08
0.000127623
5.90562e-08
0.000127654
4.83328e-08
0.000127686
3.66297e-08
0.000127717
2.40732e-08
0.000127748
1.0774e-08
0.000127779
-3.17143e-09
0.000127809
-1.76796e-08
0.000127839
-3.26768e-08
0.000127869
-4.80997e-08
0.000127898
-6.38922e-08
0.000127927
-8.00046e-08
0.000127955
-9.63921e-08
0.000127982
-1.13013e-07
0.000128009
-1.2983e-07
0.000128036
-1.46804e-07
0.000128062
-1.639e-07
0.000128088
-1.81084e-07
0.000128113
-1.98322e-07
-2.15555e-07
0.000128137
0.000130917
7.78717e-09
0.000130925
2.2567e-08
0.000130936
3.55829e-08
0.000130951
4.64381e-08
0.00013097
5.49647e-08
0.000130992
6.10965e-08
0.000131016
6.48718e-08
0.000131042
6.64005e-08
0.00013107
6.58251e-08
0.000131099
6.33117e-08
0.000131129
5.90217e-08
0.00013116
5.31656e-08
0.000131191
4.58808e-08
0.000131222
3.73252e-08
0.000131254
2.76477e-08
0.000131285
1.69785e-08
0.000131316
5.43786e-09
0.000131347
-6.86885e-09
0.000131378
-1.98485e-08
0.000131408
-3.34187e-08
0.000131438
-4.75066e-08
0.000131467
-6.20477e-08
0.000131496
-7.69851e-08
0.000131524
-9.22678e-08
0.000131552
-1.0785e-07
0.00013158
-1.23689e-07
0.000131606
-1.39745e-07
0.000131632
-1.55983e-07
0.000131658
-1.72365e-07
0.000131683
-1.88857e-07
0.000131707
-2.05425e-07
0.000131731
-2.2204e-07
-2.38643e-07
0.000131754
0.000134658
5.37693e-09
0.000134665
1.5561e-08
0.000134676
2.43535e-08
0.000134691
3.13979e-08
0.000134709
3.65624e-08
0.000134731
3.97827e-08
0.000134754
4.1098e-08
0.00013478
4.06001e-08
0.000134808
3.83977e-08
0.000134836
3.46143e-08
0.000134866
2.93649e-08
0.000134896
2.28597e-08
0.000134927
1.51325e-08
0.000134958
6.34081e-09
0.000134989
-3.40203e-09
0.00013502
-1.40013e-08
0.000135051
-2.53544e-08
0.000135081
-3.73799e-08
0.000135111
-5.00014e-08
0.000135141
-6.31507e-08
0.00013517
-7.67666e-08
0.000135199
-9.0794e-08
0.000135227
-1.05183e-07
0.000135255
-1.19889e-07
0.000135282
-1.34869e-07
0.000135308
-1.50085e-07
0.000135334
-1.655e-07
0.000135359
-1.8108e-07
0.000135384
-1.96789e-07
0.000135407
-2.12596e-07
0.00013543
-2.28468e-07
0.000135453
-2.44376e-07
-2.60264e-07
0.000135474
0.000138505
3.04033e-09
0.000138511
8.75278e-09
0.000138522
1.34142e-08
0.000138537
1.67014e-08
0.000138555
1.85216e-08
0.000138576
1.88097e-08
0.000138599
1.76455e-08
0.000138625
1.51068e-08
0.000138652
1.12723e-08
0.00013868
6.22214e-09
0.00013871
-7.43408e-11
0.00013874
-7.16278e-09
0.00013877
-1.53236e-08
0.000138801
-2.43306e-08
0.000138832
-3.41202e-08
0.000138862
-4.46154e-08
0.000138893
-5.57442e-08
0.000138923
-6.74444e-08
0.000138953
-7.96578e-08
0.000138982
-9.23307e-08
0.00013901
-1.05414e-07
0.000139038
-1.18862e-07
0.000139066
-1.32633e-07
0.000139093
-1.46687e-07
0.000139119
-1.60989e-07
0.000139144
-1.75502e-07
0.000139169
-1.90195e-07
0.000139193
-2.05033e-07
0.000139216
-2.19986e-07
0.000139238
-2.35022e-07
0.00013926
-2.50113e-07
0.000139281
-2.6523e-07
-2.80319e-07
0.000139301
0.000142462
7.24274e-10
0.000142468
2.05209e-09
0.000142479
2.63423e-09
0.000142494
2.19523e-09
0.000142511
7.51529e-10
0.000142532
-1.88246e-09
0.000142555
-5.53771e-09
0.00014258
-1.01271e-08
0.000142607
-1.5616e-08
0.000142635
-2.19507e-08
0.000142665
-2.9095e-08
0.000142694
-3.69288e-08
0.000142724
-4.54896e-08
0.000142755
-5.46943e-08
0.000142785
-6.44947e-08
0.000142815
-7.48478e-08
0.000142845
-8.57086e-08
0.000142875
-9.70344e-08
0.000142904
-1.08785e-07
0.000142933
-1.20921e-07
0.000142961
-1.33405e-07
0.000142988
-1.46204e-07
0.000143015
-1.59282e-07
0.000143041
-1.72607e-07
0.000143066
-1.86149e-07
0.00014309
-1.99876e-07
0.000143114
-2.1376e-07
0.000143136
-2.2777e-07
0.000143158
-2.41877e-07
0.000143179
-2.56055e-07
0.0001432
-2.70272e-07
0.000143219
-2.84506e-07
-2.98703e-07
0.000143237
0.000146531
-1.39584e-09
0.000146538
-4.27895e-09
0.000146548
-7.70216e-09
0.000146562
-1.1916e-08
0.00014658
-1.68606e-08
0.0001466
-2.24819e-08
0.000146624
-2.86611e-08
0.000146649
-3.53338e-08
0.000146676
-4.2478e-08
0.000146704
-5.00768e-08
0.000146733
-5.81338e-08
0.000146762
-6.66094e-08
0.000146793
-7.55223e-08
0.000146823
-8.48639e-08
0.000146853
-9.46167e-08
0.000146883
-1.04765e-07
0.000146912
-1.1529e-07
0.000146941
-1.26171e-07
0.00014697
-1.37384e-07
0.000146998
-1.48906e-07
0.000147025
-1.60712e-07
0.000147052
-1.72778e-07
0.000147078
-1.85079e-07
0.000147103
-1.97589e-07
0.000147127
-2.10282e-07
0.00014715
-2.23134e-07
0.000147172
-2.36118e-07
0.000147194
-2.49209e-07
0.000147214
-2.6238e-07
0.000147234
-2.75606e-07
0.000147253
-2.88861e-07
0.00014727
-3.02122e-07
-3.15341e-07
0.000147287
0.000150718
-3.82078e-09
0.000150725
-1.08349e-08
0.000150735
-1.81544e-08
0.000150749
-2.60092e-08
0.000150767
-3.42757e-08
0.000150787
-4.28188e-08
0.00015081
-5.15135e-08
0.000150835
-6.02792e-08
0.000150861
-6.90957e-08
0.000150889
-7.79755e-08
0.000150918
-8.69516e-08
0.000150948
-9.6048e-08
0.000150977
-1.05309e-07
0.000151007
-1.14765e-07
0.000151037
-1.24436e-07
0.000151067
-1.34335e-07
0.000151096
-1.44471e-07
0.000151124
-1.54844e-07
0.000151153
-1.65452e-07
0.00015118
-1.76286e-07
0.000151207
-1.87336e-07
0.000151232
-1.98587e-07
0.000151257
-2.10023e-07
0.000151281
-2.21628e-07
0.000151304
-2.33381e-07
0.000151327
-2.45263e-07
0.000151348
-2.57252e-07
0.000151368
-2.69327e-07
0.000151387
-2.81464e-07
0.000151405
-2.93642e-07
0.000151422
-3.05835e-07
0.000151438
-3.18023e-07
-3.30161e-07
0.000151453
0.000155023
-5.09099e-09
0.000155028
-1.60516e-08
0.000155038
-2.75939e-08
0.000155051
-3.97066e-08
0.000155069
-5.18691e-08
0.00015509
-6.37347e-08
0.000155113
-7.51352e-08
0.000155139
-8.60278e-08
0.000155166
-9.64564e-08
0.000155195
-1.06504e-07
0.000155224
-1.16266e-07
0.000155254
-1.25834e-07
0.000155284
-1.35295e-07
0.000155314
-1.44724e-07
0.000155344
-1.54178e-07
0.000155373
-1.63703e-07
0.000155402
-1.73331e-07
0.00015543
-1.83085e-07
0.000155458
-1.9298e-07
0.000155485
-2.03021e-07
0.00015551
-2.13212e-07
0.000155535
-2.23547e-07
0.000155559
-2.34021e-07
0.000155582
-2.44621e-07
0.000155604
-2.55336e-07
0.000155625
-2.66151e-07
0.000155645
-2.77049e-07
0.000155664
-2.88011e-07
0.000155681
-2.9902e-07
0.000155698
-3.10054e-07
0.000155713
-3.21095e-07
0.000155727
-3.32123e-07
-3.43096e-07
0.00015574
0.000159454
-8.88772e-09
0.000159461
-2.30456e-08
0.000159472
-3.77473e-08
0.000159485
-5.30559e-08
0.000159502
-6.84984e-08
0.000159521
-8.34974e-08
0.000159544
-9.76715e-08
0.000159569
-1.10872e-07
0.000159595
-1.2312e-07
0.000159623
-1.34523e-07
0.000159652
-1.45224e-07
0.000159682
-1.55367e-07
0.000159712
-1.65093e-07
0.000159741
-1.74524e-07
0.000159771
-1.83759e-07
0.0001598
-1.9288e-07
0.000159829
-2.01951e-07
0.000159857
-2.11021e-07
0.000159884
-2.20124e-07
0.00015991
-2.29287e-07
0.000159935
-2.38523e-07
0.00015996
-2.47844e-07
0.000159983
-2.5725e-07
0.000160005
-2.6674e-07
0.000160026
-2.76309e-07
0.000160046
-2.85947e-07
0.000160064
-2.95644e-07
0.000160082
-3.05384e-07
0.000160098
-3.15154e-07
0.000160113
-3.24937e-07
0.000160126
-3.34714e-07
0.000160139
-3.4447e-07
-3.54167e-07
0.00016015
0.000164003
-6.22821e-09
0.000164005
-2.47351e-08
0.000164013
-4.56955e-08
0.000164027
-6.7332e-08
0.000164047
-8.79378e-08
0.00016407
-1.06769e-07
0.000164096
-1.23684e-07
0.000164124
-1.38801e-07
0.000164153
-1.52339e-07
0.000164183
-1.64545e-07
0.000164214
-1.75665e-07
0.000164244
-1.85926e-07
0.000164275
-1.95524e-07
0.000164305
-2.04625e-07
0.000164334
-2.13366e-07
0.000164363
-2.21853e-07
0.000164392
-2.30174e-07
0.000164419
-2.38394e-07
0.000164445
-2.46563e-07
0.000164471
-2.54719e-07
0.000164495
-2.62887e-07
0.000164518
-2.71085e-07
0.000164541
-2.79323e-07
0.000164561
-2.87607e-07
0.000164581
-2.95935e-07
0.000164599
-3.04305e-07
0.000164616
-3.1271e-07
0.000164632
-3.2114e-07
0.000164647
-3.29584e-07
0.00016466
-3.3803e-07
0.000164671
-3.46462e-07
0.000164682
-3.54868e-07
-3.63215e-07
0.000164691
0.000168701
-1.56253e-08
0.000168709
-3.27098e-08
0.000168717
-5.3255e-08
0.000168726
-7.67519e-08
0.000168739
-1.01262e-07
0.000168757
-1.24536e-07
0.000168779
-1.45414e-07
0.000168804
-1.6369e-07
0.000168831
-1.79591e-07
0.00016886
-1.93456e-07
0.00016889
-2.05633e-07
0.000168921
-2.16456e-07
0.000168951
-2.26213e-07
0.000168982
-2.3515e-07
0.000169012
-2.43465e-07
0.000169041
-2.51319e-07
0.00016907
-2.58838e-07
0.000169098
-2.66122e-07
0.000169124
-2.73245e-07
0.00016915
-2.80266e-07
0.000169174
-2.87227e-07
0.000169197
-2.94159e-07
0.000169219
-3.01083e-07
0.000169239
-3.08013e-07
0.000169259
-3.14956e-07
0.000169276
-3.21915e-07
0.000169292
-3.28889e-07
0.000169307
-3.35873e-07
0.00016932
-3.42859e-07
0.000169332
-3.49838e-07
0.000169342
-3.56799e-07
0.000169351
-3.63731e-07
-3.70607e-07
0.000169359
0.000173491
4.41934e-09
0.000173485
-2.62735e-08
0.000173494
-6.2528e-08
0.000173515
-9.7707e-08
0.000173542
-1.28672e-07
0.000173573
-1.55001e-07
0.000173605
-1.77312e-07
0.000173637
-1.96191e-07
0.00017367
-2.12214e-07
0.000173702
-2.25887e-07
0.000173734
-2.37664e-07
0.000173766
-2.47938e-07
0.000173797
-2.57032e-07
0.000173827
-2.65204e-07
0.000173856
-2.72667e-07
0.000173884
-2.79588e-07
0.000173912
-2.86099e-07
0.000173938
-2.92306e-07
0.000173963
-2.9829e-07
0.000173987
-3.04114e-07
0.000174009
-3.09825e-07
0.00017403
-3.15461e-07
0.00017405
-3.21048e-07
0.000174069
-3.26604e-07
0.000174086
-3.32141e-07
0.000174102
-3.37667e-07
0.000174116
-3.43185e-07
0.000174129
-3.48693e-07
0.00017414
-3.5419e-07
0.00017415
-3.59668e-07
0.000174159
-3.6512e-07
0.000174165
-3.7054e-07
-3.75902e-07
0.000174171
0.000178498
-2.47342e-08
0.0001785
-2.82644e-08
0.000178488
-5.11479e-08
0.000178479
-8.88663e-08
0.000178481
-1.30692e-07
0.000178494
-1.67931e-07
0.000178515
-1.98391e-07
0.000178542
-2.22797e-07
0.000178572
-2.42468e-07
0.000178605
-2.58395e-07
0.000178639
-2.71383e-07
0.000178673
-2.82099e-07
0.000178707
-2.91074e-07
0.00017874
-2.98723e-07
0.000178773
-3.05366e-07
0.000178805
-3.11251e-07
0.000178835
-3.16568e-07
0.000178864
-3.21462e-07
0.000178892
-3.26045e-07
0.000178918
-3.30401e-07
0.000178943
-3.34594e-07
0.000178966
-3.38672e-07
0.000178988
-3.42668e-07
0.000179008
-3.46611e-07
0.000179026
-3.50516e-07
0.000179043
-3.54396e-07
0.000179058
-3.58258e-07
0.000179072
-3.62105e-07
0.000179083
-3.65938e-07
0.000179093
-3.69755e-07
0.000179102
-3.73551e-07
0.000179109
-3.77323e-07
-3.81051e-07
0.000179114
0.000183487
5.60358e-08
0.000183465
-6.26781e-09
0.0001835
-8.7011e-08
0.000183552
-1.3995e-07
0.000183602
-1.81015e-07
0.000183647
-2.13016e-07
0.000183687
-2.38647e-07
0.000183724
-2.59716e-07
0.000183759
-2.76942e-07
0.000183791
-2.91033e-07
0.000183823
-3.02656e-07
0.000183853
-3.12327e-07
0.000183882
-3.20446e-07
0.000183911
-3.27331e-07
0.000183939
-3.33239e-07
0.000183966
-3.38372e-07
0.000183992
-3.42892e-07
0.000184018
-3.46924e-07
0.000184042
-3.50571e-07
0.000184066
-3.53912e-07
0.000184088
-3.57012e-07
0.000184109
-3.59919e-07
0.000184129
-3.62675e-07
0.000184148
-3.65308e-07
0.000184165
-3.67845e-07
0.000184181
-3.70302e-07
0.000184196
-3.72693e-07
0.000184209
-3.75027e-07
0.00018422
-3.7731e-07
0.00018423
-3.79545e-07
0.000184238
-3.81732e-07
0.000184244
-3.83869e-07
-3.85945e-07
0.000184249
0.000188861
7.33288e-09
0.000188795
5.91805e-08
0.000188709
-8.08322e-10
0.000188645
-7.58169e-08
0.000188626
-1.62307e-07
0.000188639
-2.25918e-07
0.00018867
-2.70024e-07
0.000188712
-3.01473e-07
0.00018876
-3.2449e-07
0.00018881
-3.4166e-07
0.000188862
-3.54615e-07
0.000188914
-3.64483e-07
0.000188966
-3.72063e-07
0.000189017
-3.77928e-07
0.000189066
-3.82491e-07
0.000189114
-3.86059e-07
0.00018916
-3.88857e-07