/*--------------------------------*- C++ -*----------------------------------*\
| =========                 |                                                 |
| \\      /  F ield         | OpenFOAM: The Open Source CFD Toolbox           |
|  \\    /   O peration     | Version:  2.1.1                                 |
|   \\  /    A nd           | Web:      www.OpenFOAM.org                      |
|    \\/     M anipulation  |                                                 |
\*---------------------------------------------------------------------------*/
FoamFile
{
    version     2.0;
    format      ascii;
    class       volVectorField;
    location    "0.095";
    object      U;
}
// * * * * * * * * * * * * * * * * * * * * * * * * * * * * * * * * * * * * * //

dimensions      [0 1 -1 0 0 0 0];

internalField   nonuniform List<vector> 
6820
(
(8.34337 -0.360078 0)
(8.40111 -0.24716 0)
(8.35614 -0.115301 0)
(8.2479 -0.0365695 0)
(8.11952 0.00599128 0)
(7.98616 0.0278478 0)
(7.85415 0.0386125 0)
(7.72686 0.0433079 0)
(7.6057 0.0445755 0)
(7.49122 0.043872 0)
(7.38366 0.0420389 0)
(7.28303 0.0395807 0)
(7.18922 0.0368084 0)
(7.10201 0.0339177 0)
(7.02113 0.0310321 0)
(6.94626 0.0282293 0)
(6.87703 0.0255565 0)
(6.8131 0.0230408 0)
(6.7541 0.0206957 0)
(6.69968 0.0185257 0)
(6.64948 0.0165298 0)
(6.60317 0.0147037 0)
(6.56044 0.0130421 0)
(6.52096 0.0115402 0)
(6.48445 0.0101961 0)
(6.45059 0.00901503 0)
(6.41905 0.00801325 0)
(6.38944 0.00724268 0)
(6.36127 0.00679679 0)
(6.33366 0.00695794 0)
(6.30495 0.00854421 0)
(6.2726 0.0120988 0)
(6.22602 0.0312901 0)
(8.32139 0.166248 0)
(8.28709 0.189993 0)
(8.28545 0.132142 0)
(8.31742 0.0958293 0)
(8.36174 0.0749848 0)
(8.40182 0.0623155 0)
(8.43295 0.0548249 0)
(8.45508 0.0502933 0)
(8.46907 0.0473795 0)
(8.47593 0.0453702 0)
(8.4767 0.0438706 0)
(8.47232 0.0426427 0)
(8.46362 0.0415477 0)
(8.45133 0.0405085 0)
(8.43608 0.0394846 0)
(8.41843 0.0384572 0)
(8.39886 0.03742 0)
(8.3778 0.0363741 0)
(8.35559 0.035324 0)
(8.33254 0.0342763 0)
(8.3089 0.0332383 0)
(8.2849 0.032218 0)
(8.26072 0.0312245 0)
(8.2365 0.0302687 0)
(8.21237 0.0293658 0)
(8.18843 0.0285385 0)
(8.16477 0.0278263 0)
(8.14143 0.0273008 0)
(8.11867 0.0270873 0)
(8.09622 0.027527 0)
(8.07636 0.0289611 0)
(8.05621 0.03355 0)
(8.05793 0.0409421 0)
(8.3225 -0.0608885 0)
(8.31398 -0.083292 0)
(8.33053 -0.054113 0)
(8.34437 -0.0203234 0)
(8.35327 0.00237725 0)
(8.36233 0.0164933 0)
(8.3721 0.0257219 0)
(8.38218 0.0319282 0)
(8.39208 0.0361357 0)
(8.40141 0.0389897 0)
(8.40993 0.0408847 0)
(8.41751 0.0420648 0)
(8.42409 0.0427038 0)
(8.42965 0.0429326 0)
(8.43421 0.0428506 0)
(8.43782 0.0425341 0)
(8.44052 0.0420423 0)
(8.44239 0.0414217 0)
(8.44348 0.040709 0)
(8.44386 0.0399336 0)
(8.44361 0.0391191 0)
(8.44278 0.0382853 0)
(8.44143 0.0374499 0)
(8.43963 0.0366298 0)
(8.43741 0.0358447 0)
(8.43484 0.0351175 0)
(8.43196 0.0344885 0)
(8.42881 0.0339965 0)
(8.4255 0.0337782 0)
(8.42207 0.0337839 0)
(8.41905 0.0347051 0)
(8.41629 0.0345486 0)
(8.41523 0.0376039 0)
(8.33365 0.014559 0)
(8.32978 0.0476843 0)
(8.3274 0.0539434 0)
(8.32875 0.0465232 0)
(8.33467 0.0410141 0)
(8.34223 0.0384983 0)
(8.34977 0.0376751 0)
(8.35705 0.0376164 0)
(8.36409 0.037821 0)
(8.37087 0.0380683 0)
(8.37736 0.0382597 0)
(8.38354 0.0383539 0)
(8.3894 0.0383412 0)
(8.39491 0.0382247 0)
(8.40007 0.0380129 0)
(8.40488 0.0377165 0)
(8.40934 0.0373476 0)
(8.41347 0.0369188 0)
(8.41728 0.0364417 0)
(8.42078 0.0359279 0)
(8.424 0.0353882 0)
(8.42696 0.0348333 0)
(8.42967 0.0342746 0)
(8.43216 0.0337247 0)
(8.43445 0.0332001 0)
(8.43655 0.0327214 0)
(8.43851 0.0323213 0)
(8.44035 0.0320372 0)
(8.44217 0.0319438 0)
(8.44402 0.0320691 0)
(8.44637 0.032572 0)
(8.44917 0.0331172 0)
(8.45391 0.0341891 0)
(8.3302 -0.00531568 0)
(8.32722 -0.00752283 0)
(8.3314 -0.00248262 0)
(8.3361 0.00799023 0)
(8.3402 0.0171513 0)
(8.3444 0.0233538 0)
(8.34885 0.027522 0)
(8.35355 0.0304679 0)
(8.35843 0.0325925 0)
(8.36335 0.0341281 0)
(8.36825 0.0352198 0)
(8.37307 0.0359618 0)
(8.37778 0.0364206 0)
(8.38235 0.0366476 0)
(8.38677 0.0366848 0)
(8.39102 0.036568 0)
(8.39512 0.0363269 0)
(8.39906 0.0359872 0)
(8.40284 0.0355703 0)
(8.40646 0.0350948 0)
(8.40995 0.0345766 0)
(8.4133 0.0340303 0)
(8.41653 0.0334698 0)
(8.41965 0.0329092 0)
(8.42267 0.0323646 0)
(8.42561 0.0318542 0)
(8.4285 0.0314037 0)
(8.43136 0.0310347 0)
(8.43429 0.0307934 0)
(8.43733 0.0306493 0)
(8.44075 0.0306884 0)
(8.44457 0.0304318 0)
(8.44917 0.0301504 0)
(8.33239 0.00227871 0)
(8.33119 0.0132908 0)
(8.33282 0.0203659 0)
(8.33554 0.0237412 0)
(8.33901 0.0258773 0)
(8.3431 0.0276668 0)
(8.34736 0.029324 0)
(8.35165 0.0307973 0)
(8.35594 0.0320059 0)
(8.36022 0.0329387 0)
(8.36445 0.0336176 0)
(8.36862 0.0340703 0)
(8.37272 0.0343254 0)
(8.37673 0.0344117 0)
(8.38066 0.0343558 0)
(8.38448 0.0341814 0)
(8.3882 0.0339094 0)
(8.39183 0.033558 0)
(8.39536 0.0331431 0)
(8.3988 0.0326787 0)
(8.40216 0.0321773 0)
(8.40544 0.0316505 0)
(8.40865 0.0311096 0)
(8.4118 0.030566 0)
(8.41491 0.0300324 0)
(8.41798 0.0295225 0)
(8.42105 0.0290528 0)
(8.42415 0.0286348 0)
(8.42734 0.0282854 0)
(8.43067 0.0279721 0)
(8.43429 0.0276868 0)
(8.43824 0.0271672 0)
(8.44262 0.026418 0)
(8.33233 0.000865082 0)
(8.33152 0.00576149 0)
(8.33343 0.0107232 0)
(8.33649 0.0155071 0)
(8.33991 0.0198755 0)
(8.3436 0.0233673 0)
(8.34738 0.0260288 0)
(8.35119 0.0280553 0)
(8.35503 0.0295832 0)
(8.35887 0.0307148 0)
(8.36269 0.0315269 0)
(8.36646 0.0320755 0)
(8.37018 0.0324034 0)
(8.37384 0.0325468 0)
(8.37743 0.0325357 0)
(8.38094 0.0323962 0)
(8.38438 0.0321504 0)
(8.38776 0.0318174 0)
(8.39107 0.0314139 0)
(8.39431 0.0309543 0)
(8.3975 0.0304513 0)
(8.40064 0.0299164 0)
(8.40374 0.0293603 0)
(8.40681 0.0287934 0)
(8.40986 0.0282262 0)
(8.4129 0.0276683 0)
(8.41597 0.0271296 0)
(8.41908 0.0266129 0)
(8.4223 0.0261186 0)
(8.42565 0.0256097 0)
(8.42921 0.0250508 0)
(8.433 0.0242669 0)
(8.43701 0.0232026 0)
(8.33272 0.00170228 0)
(8.33256 0.00726601 0)
(8.33419 0.012543 0)
(8.33679 0.0167894 0)
(8.33984 0.0202201 0)
(8.34325 0.0229231 0)
(8.34684 0.0250617 0)
(8.35048 0.0267691 0)
(8.35414 0.0281048 0)
(8.35779 0.029115 0)
(8.3614 0.0298457 0)
(8.36496 0.0303367 0)
(8.36846 0.0306228 0)
(8.37191 0.0307348 0)
(8.37529 0.0306997 0)
(8.37861 0.0305409 0)
(8.38187 0.0302789 0)
(8.38507 0.0299313 0)
(8.38822 0.0295134 0)
(8.39132 0.0290384 0)
(8.39438 0.028518 0)
(8.3974 0.0279625 0)
(8.40039 0.0273812 0)
(8.40337 0.0267826 0)
(8.40634 0.0261744 0)
(8.40932 0.0255627 0)
(8.41234 0.0249517 0)
(8.41541 0.0243384 0)
(8.41856 0.0237139 0)
(8.42184 0.0230437 0)
(8.42527 0.0222858 0)
(8.42885 0.0213308 0)
(8.43254 0.0201258 0)
(8.33284 0.00177961 0)
(8.33294 0.00643427 0)
(8.33445 0.0109309 0)
(8.33687 0.0148027 0)
(8.33976 0.01815 0)
(8.34297 0.0209242 0)
(8.34636 0.0231517 0)
(8.34982 0.0249156 0)
(8.35331 0.0262814 0)
(8.35679 0.0273071 0)
(8.36025 0.0280459 0)
(8.36366 0.0285419 0)
(8.36703 0.0288316 0)
(8.37034 0.0289461 0)
(8.37359 0.0289123 0)
(8.37678 0.0287532 0)
(8.37992 0.0284886 0)
(8.383 0.0281357 0)
(8.38604 0.0277091 0)
(8.38903 0.0272215 0)
(8.39199 0.0266839 0)
(8.39492 0.0261058 0)
(8.39783 0.0254953 0)
(8.40073 0.0248595 0)
(8.40364 0.0242039 0)
(8.40655 0.0235319 0)
(8.40951 0.0228437 0)
(8.41251 0.0221334 0)
(8.41559 0.0213878 0)
(8.41876 0.0205774 0)
(8.42204 0.0196647 0)
(8.42542 0.0185808 0)
(8.42884 0.0172873 0)
(8.33294 0.00182038 0)
(8.33323 0.00610872 0)
(8.33464 0.0102997 0)
(8.33686 0.013945 0)
(8.33953 0.0170604 0)
(8.34253 0.0196346 0)
(8.34573 0.0217077 0)
(8.34903 0.023359 0)
(8.35237 0.0246483 0)
(8.35573 0.0256235 0)
(8.35907 0.0263286 0)
(8.36237 0.0268016 0)
(8.36563 0.0270748 0)
(8.36884 0.0271769 0)
(8.372 0.0271327 0)
(8.3751 0.0269637 0)
(8.37815 0.0266887 0)
(8.38116 0.0263237 0)
(8.38412 0.0258825 0)
(8.38704 0.0253771 0)
(8.38993 0.0248175 0)
(8.39279 0.0242123 0)
(8.39564 0.0235686 0)
(8.39848 0.0228919 0)
(8.40132 0.0221859 0)
(8.40418 0.0214521 0)
(8.40707 0.0206882 0)
(8.41001 0.019887 0)
(8.41301 0.0190348 0)
(8.41607 0.0181076 0)
(8.41921 0.0170759 0)
(8.4224 0.0158973 0)
(8.42561 0.0145492 0)
(8.33299 0.00178265 0)
(8.33338 0.00567894 0)
(8.3347 0.00946719 0)
(8.33675 0.0128114 0)
(8.33923 0.0157024 0)
(8.34204 0.018132 0)
(8.34507 0.0201173 0)
(8.34821 0.0217101 0)
(8.35141 0.0229584 0)
(8.35463 0.0239042 0)
(8.35786 0.0245877 0)
(8.36106 0.0250446 0)
(8.36422 0.0253058 0)
(8.36735 0.0253982 0)
(8.37043 0.0253455 0)
(8.37346 0.0251681 0)
(8.37644 0.0248835 0)
(8.37938 0.024507 0)
(8.38228 0.0240516 0)
(8.38514 0.0235283 0)
(8.38798 0.0229464 0)
(8.39079 0.0223136 0)
(8.39358 0.0216359 0)
(8.39637 0.0209178 0)
(8.39917 0.0201617 0)
(8.40197 0.0193675 0)
(8.40481 0.0185321 0)
(8.40767 0.0176479 0)
(8.41059 0.0167026 0)
(8.41355 0.0156778 0)
(8.41656 0.0145519 0)
(8.4196 0.0132993 0)
(8.42263 0.011909 0)
(8.33302 0.00170377 0)
(8.33347 0.00527208 0)
(8.33471 0.00872914 0)
(8.3366 0.0118184 0)
(8.33891 0.0145039 0)
(8.34154 0.0167753 0)
(8.34439 0.0186428 0)
(8.34737 0.0201463 0)
(8.35043 0.0213278 0)
(8.35353 0.0222245 0)
(8.35664 0.0228719 0)
(8.35973 0.023302 0)
(8.36281 0.0235428 0)
(8.36585 0.0236192 0)
(8.36885 0.0235527 0)
(8.37181 0.0233623 0)
(8.37473 0.0230646 0)
(8.37761 0.0226735 0)
(8.38046 0.0222012 0)
(8.38327 0.0216577 0)
(8.38605 0.0210517 0)
(8.38881 0.0203898 0)
(8.39156 0.0196772 0)
(8.39431 0.0189174 0)
(8.39705 0.0181119 0)
(8.39981 0.0172599 0)
(8.40258 0.0163578 0)
(8.40538 0.0153988 0)
(8.40821 0.0143727 0)
(8.41107 0.0132658 0)
(8.41396 0.0120634 0)
(8.41687 0.0107505 0)
(8.41976 0.00932355 0)
(8.33303 0.00160076 0)
(8.3335 0.00486564 0)
(8.33467 0.00800989 0)
(8.33642 0.0108428 0)
(8.33857 0.0133196 0)
(8.34104 0.0154294 0)
(8.34372 0.0171772 0)
(8.34655 0.0185916 0)
(8.34947 0.0197059 0)
(8.35244 0.020552 0)
(8.35544 0.0211609 0)
(8.35843 0.0215611 0)
(8.36141 0.0217784 0)
(8.36436 0.0218353 0)
(8.36728 0.021752 0)
(8.37017 0.0215461 0)
(8.37303 0.0212327 0)
(8.37585 0.020825 0)
(8.37864 0.0203339 0)
(8.38139 0.0197689 0)
(8.38413 0.0191376 0)
(8.38684 0.018446 0)
(8.38954 0.0176984 0)
(8.39224 0.0168976 0)
(8.39493 0.0160446 0)
(8.39763 0.0151381 0)
(8.40034 0.0141748 0)
(8.40306 0.013149 0)
(8.40581 0.0120526 0)
(8.40858 0.010876 0)
(8.41136 0.0096096 0)
(8.41415 0.0082449 0)
(8.41692 0.0067827 0)
(8.33304 0.00148526 0)
(8.33351 0.0044673 0)
(8.33461 0.00732451 0)
(8.33623 0.00991493 0)
(8.33824 0.0121913 0)
(8.34055 0.0141403 0)
(8.34308 0.0157632 0)
(8.34577 0.0170803 0)
(8.34855 0.0181188 0)
(8.35139 0.018906 0)
(8.35427 0.0194687 0)
(8.35716 0.0198325 0)
(8.36004 0.0200204 0)
(8.3629 0.020053 0)
(8.36575 0.0199487 0)
(8.36856 0.0197234 0)
(8.37135 0.0193912 0)
(8.3741 0.018964 0)
(8.37683 0.0184519 0)
(8.37953 0.0178636 0)
(8.38221 0.0172057 0)
(8.38487 0.0164836 0)
(8.38752 0.015701 0)
(8.39016 0.0148602 0)
(8.39279 0.0139616 0)
(8.39543 0.0130042 0)
(8.39807 0.011985 0)
(8.40072 0.0108994 0)
(8.40339 0.0097416 0)
(8.40606 0.00850485 0)
(8.40873 0.00718319 0)
(8.41141 0.00577222 0)
(8.41407 0.00427492 0)
(8.33304 0.00136427 0)
(8.3335 0.00407789 0)
(8.33453 0.00666641 0)
(8.33604 0.00902288 0)
(8.33792 0.0111021 0)
(8.34009 0.0128894 0)
(8.34248 0.0143836 0)
(8.34502 0.0155989 0)
(8.34767 0.0165567 0)
(8.35039 0.01728 0)
(8.35315 0.0177919 0)
(8.35593 0.0181148 0)
(8.35872 0.0182691 0)
(8.36149 0.0182735 0)
(8.36425 0.0181445 0)
(8.36699 0.0178968 0)
(8.36971 0.017543 0)
(8.37239 0.0170941 0)
(8.37506 0.0165592 0)
(8.3777 0.0159461 0)
(8.38031 0.0152608 0)
(8.38291 0.014508 0)
(8.3855 0.013691 0)
(8.38808 0.0128114 0)
(8.39065 0.0118699 0)
(8.39322 0.0108653 0)
(8.39579 0.00979526 0)
(8.39836 0.0086564 0)
(8.40093 0.00744447 0)
(8.40351 0.00615513 0)
(8.40608 0.00478484 0)
(8.40865 0.00333152 0)
(8.4112 0.0017991 0)
(8.33304 0.00124199 0)
(8.33348 0.00369892 0)
(8.33445 0.00603443 0)
(8.33586 0.00816628 0)
(8.33762 0.0100534 0)
(8.33965 0.0116801 0)
(8.34191 0.0130433 0)
(8.34432 0.0141526 0)
(8.34684 0.0150248 0)
(8.34944 0.015679 0)
(8.35209 0.016135 0)
(8.35477 0.016412 0)
(8.35745 0.0165283 0)
(8.36014 0.0165005 0)
(8.36281 0.0163433 0)
(8.36547 0.01607 0)
(8.36811 0.0156921 0)
(8.37073 0.0152193 0)
(8.37332 0.01466 0)
(8.37589 0.0140211 0)
(8.37845 0.0133079 0)
(8.38098 0.0125246 0)
(8.3835 0.0116739 0)
(8.38601 0.0107574 0)
(8.38851 0.00977559 0)
(8.39101 0.00872757 0)
(8.3935 0.00761162 0)
(8.39598 0.00642525 0)
(8.39847 0.00516558 0)
(8.40095 0.00382988 0)
(8.40342 0.00241622 0)
(8.40588 0.000923813 0)
(8.40832 -0.000643211 0)
(8.33304 0.00112083 0)
(8.33346 0.00333108 0)
(8.33437 0.00542642 0)
(8.33569 0.00734188 0)
(8.33733 0.00904111 0)
(8.33925 0.0105081 0)
(8.34137 0.0117386 0)
(8.34366 0.0127387 0)
(8.34606 0.0135213 0)
(8.34855 0.0141021 0)
(8.35109 0.0144977 0)
(8.35366 0.0147248 0)
(8.35625 0.0147993 0)
(8.35885 0.0147357 0)
(8.36143 0.0145474 0)
(8.36401 0.0142459 0)
(8.36657 0.0138417 0)
(8.36911 0.0133434 0)
(8.37163 0.0127585 0)
(8.37414 0.0120931 0)
(8.37662 0.0113519 0)
(8.37908 0.0105386 0)
(8.38153 0.00965571 0)
(8.38397 0.00870449 0)
(8.38639 0.00768537 0)
(8.38881 0.00659785 0)
(8.39122 0.0054407 0)
(8.39361 0.00421221 0)
(8.396 0.00291051 0)
(8.39838 0.00153396 0)
(8.40075 8.16375e-05 0)
(8.4031 -0.00144662 0)
(8.40543 -0.00304679 0)
(8.33304 0.00100211 0)
(8.33343 0.00297466 0)
(8.33429 0.00484068 0)
(8.33553 0.00654738 0)
(8.33707 0.00806301 0)
(8.33887 0.00937187 0)
(8.34088 0.0104686 0)
(8.34305 0.011357 0)
(8.34534 0.0120467 0)
(8.34771 0.0125502 0)
(8.35014 0.0128817 0)
(8.35262 0.0130551 0)
(8.35511 0.0130843 0)
(8.35761 0.0129819 0)
(8.36012 0.0127596 0)
(8.36261 0.0124278 0)
(8.36509 0.0119954 0)
(8.36756 0.0114703 0)
(8.37 0.010859 0)
(8.37243 0.0101668 0)
(8.37484 0.00939812 0)
(8.37723 0.00855594 0)
(8.3796 0.00764248 0)
(8.38196 0.00665898 0)
(8.38431 0.00560587 0)
(8.38664 0.00448288 0)
(8.38895 0.00328922 0)
(8.39126 0.00202378 0)
(8.39355 0.000685395 0)
(8.39582 -0.000726829 0)
(8.39808 -0.00221324 0)
(8.40033 -0.00377373 0)
(8.40255 -0.00540453 0)
(8.33304 0.000886492 0)
(8.33341 0.0026296 0)
(8.33421 0.00427558 0)
(8.33537 0.00578042 0)
(8.33683 0.00711653 0)
(8.33852 0.00826883 0)
(8.34042 0.00923143 0)
(8.34248 0.0100061 0)
(8.34466 0.0106 0)
(8.34693 0.0110231 0)
(8.34926 0.011287 0)
(8.35163 0.0114035 0)
(8.35403 0.0113843 0)
(8.35645 0.0112405 0)
(8.35886 0.0109819 0)
(8.36127 0.0106177 0)
(8.36367 0.0101558 0)
(8.36606 0.00960297 0)
(8.36843 0.00896492 0)
(8.37078 0.00824631 0)
(8.37311 0.00745084 0)
(8.37542 0.00658124 0)
(8.37772 0.00563942 0)
(8.37999 0.00462651 0)
(8.38225 0.00354295 0)
(8.38449 0.00238869 0)
(8.38672 0.00116325 0)
(8.38892 -0.000134018 0)
(8.39111 -0.00150379 0)
(8.39329 -0.00294651 0)
(8.39544 -0.0044622 0)
(8.39757 -0.00605067 0)
(8.39967 -0.00770846 0)
(8.33303 0.000774228 0)
(8.33339 0.00229558 0)
(8.33414 0.00372961 0)
(8.33523 0.00503886 0)
(8.3366 0.00619934 0)
(8.3382 0.0071969 0)
(8.34 0.00802531 0)
(8.34196 0.00868496 0)
(8.34403 0.00918094 0)
(8.3462 0.00952108 0)
(8.34843 0.00971465 0)
(8.35071 0.00977156 0)
(8.35302 0.00970158 0)
(8.35534 0.00951399 0)
(8.35767 0.00921738 0)
(8.36 0.0088195 0)
(8.36232 0.00832714 0)
(8.36462 0.00774615 0)
(8.36691 0.00708145 0)
(8.36918 0.00633704 0)
(8.37143 0.0055161 0)
(8.37366 0.00462098 0)
(8.37588 0.00365334 0)
(8.37807 0.00261418 0)
(8.38024 0.00150398 0)
(8.38239 0.000322813 0)
(8.38451 -0.000929551 0)
(8.38662 -0.00225346 0)
(8.38871 -0.00364927 0)
(8.39077 -0.00511714 0)
(8.39281 -0.00665695 0)
(8.39483 -0.0082685 0)
(8.39681 -0.0099486 0)
(8.33303 0.000665345 0)
(8.33336 0.00197209 0)
(8.33408 0.0032013 0)
(8.3351 0.00432057 0)
(8.33639 0.00530901 0)
(8.33791 0.00615354 0)
(8.33961 0.00684783 0)
(8.34147 0.00739132 0)
(8.34345 0.00778745 0)
(8.34552 0.00804222 0)
(8.34766 0.00816299 0)
(8.34984 0.00815785 0)
(8.35206 0.00803483 0)
(8.3543 0.00780165 0)
(8.35654 0.00746549 0)
(8.35879 0.00703288 0)
(8.36102 0.00650954 0)
(8.36325 0.0059004 0)
(8.36546 0.00520962 0)
(8.36765 0.00444057 0)
(8.36981 0.00359591 0)
(8.37196 0.00267764 0)
(8.37409 0.00168717 0)
(8.37619 0.000625373 0)
(8.37827 -0.000507276 0)
(8.38032 -0.00171064 0)
(8.38235 -0.00298478 0)
(8.38435 -0.00432985 0)
(8.38633 -0.00574601 0)
(8.38829 -0.00723325 0)
(8.39021 -0.00879139 0)
(8.39211 -0.0104203 0)
(8.39398 -0.0121169 0)
(8.33303 0.000559741 0)
(8.33334 0.00165853 0)
(8.33402 0.00268931 0)
(8.33498 0.00362378 0)
(8.3362 0.00444375 0)
(8.33764 0.00513733 0)
(8.33926 0.00569834 0)
(8.34102 0.00612551 0)
(8.34291 0.006421 0)
(8.34489 0.00658919 0)
(8.34694 0.00663575 0)
(8.34904 0.00656722 0)
(8.35117 0.00638994 0)
(8.35332 0.00611011 0)
(8.35548 0.00573366 0)
(8.35764 0.00526593 0)
(8.3598 0.00471164 0)
(8.36194 0.00407486 0)
(8.36406 0.00335899 0)
(8.36617 0.00256682 0)
(8.36826 0.00170052 0)
(8.37032 0.00076175 0)
(8.37235 -0.000248334 0)
(8.37436 -0.00132898 0)
(8.37635 -0.00247977 0)
(8.3783 -0.00370052 0)
(8.38023 -0.00499122 0)
(8.38213 -0.0063519 0)
(8.384 -0.00778258 0)
(8.38584 -0.00928319 0)
(8.38765 -0.0108535 0)
(8.38943 -0.0124935 0)
(8.39117 -0.0142003 0)
(8.33303 0.000457235 0)
(8.33332 0.00135417 0)
(8.33396 0.00219204 0)
(8.33487 0.00294591 0)
(8.33603 0.00359991 0)
(8.33739 0.00414337 0)
(8.33893 0.00457054 0)
(8.34061 0.0048799 0)
(8.34242 0.00507271 0)
(8.34431 0.00515209 0)
(8.34627 0.00512216 0)
(8.34829 0.00498825 0)
(8.35034 0.00475511 0)
(8.35241 0.00442756 0)
(8.35448 0.00401026 0)
(8.35656 0.0035074 0)
(8.35864 0.00292273 0)
(8.3607 0.00225946 0)
(8.36274 0.00152027 0)
(8.36476 0.000707331 0)
(8.36676 -0.000177636 0)
(8.36873 -0.00113336 0)
(8.37068 -0.00215892 0)
(8.3726 -0.00325375 0)
(8.37449 -0.00441749 0)
(8.37634 -0.00564998 0)
(8.37817 -0.00695118 0)
(8.37996 -0.00832105 0)
(8.38172 -0.00975957 0)
(8.38344 -0.0112666 0)
(8.38513 -0.012842 0)
(8.38679 -0.0144856 0)
(8.3884 -0.0161949 0)
(8.33303 0.000357646 0)
(8.33331 0.00105856 0)
(8.33391 0.00170909 0)
(8.33477 0.00228734 0)
(8.33587 0.0027798 0)
(8.33716 0.00317694 0)
(8.33863 0.0034734 0)
(8.34024 0.00366732 0)
(8.34196 0.00375911 0)
(8.34378 0.00375081 0)
(8.34566 0.00364523 0)
(8.3476 0.00344674 0)
(8.34956 0.00315789 0)
(8.35155 0.00278261 0)
(8.35355 0.00232464 0)
(8.35555 0.001787 0)
(8.35754 0.00117257 0)
(8.35952 0.000483783 0)
(8.36148 -0.000277354 0)
(8.36342 -0.00110921 0)
(8.36533 -0.0020105 0)
(8.36722 -0.00298029 0)
(8.36907 -0.00401794 0)
(8.3709 -0.00512301 0)
(8.37269 -0.00629526 0)
(8.37444 -0.00753458 0)
(8.37616 -0.0088409 0)
(8.37785 -0.0102142 0)
(8.37949 -0.0116544 0)
(8.3811 -0.0131614 0)
(8.38267 -0.0147351 0)
(8.3842 -0.0163752 0)
(8.38569 -0.0180794 0)
(8.33303 0.00026068 0)
(8.33329 0.000770178 0)
(8.33386 0.00123619 0)
(8.33468 0.0016391 0)
(8.33572 0.00196752 0)
(8.33696 0.00221358 0)
(8.33836 0.00237382 0)
(8.3399 0.00244702 0)
(8.34155 0.00243295 0)
(8.34329 0.00233274 0)
(8.3451 0.00214656 0)
(8.34696 0.00188175 0)
(8.34885 0.00153716 0)
(8.35077 0.00111483 0)
(8.35269 0.000617439 0)
(8.35461 4.72992e-05 0)
(8.35652 -0.000593865 0)
(8.35842 -0.0013045 0)
(8.3603 -0.00208328 0)
(8.36215 -0.00292915 0)
(8.36398 -0.00384133 0)
(8.36578 -0.00481925 0)
(8.36754 -0.00586253 0)
(8.36927 -0.00697095 0)
(8.37096 -0.0081444 0)
(8.37261 -0.00938285 0)
(8.37422 -0.0106863 0)
(8.3758 -0.0120547 0)
(8.37733 -0.013488 0)
(8.37882 -0.0149861 0)
(8.38027 -0.0165487 0)
(8.38167 -0.018176 0)
(8.38303 -0.0198653 0)
(8.33302 0.000166533 0)
(8.33327 0.000491625 0)
(8.33381 0.000782261 0)
(8.33459 0.00102156 0)
(8.33558 0.00120076 0)
(8.33676 0.00131018 0)
(8.3381 0.00134616 0)
(8.33958 0.00130827 0)
(8.34117 0.00119641 0)
(8.34284 0.00101071 0)
(8.34459 0.000754047 0)
(8.34638 0.000421348 0)
(8.3482 1.87995e-05 0)
(8.35004 -0.000451799 0)
(8.35189 -0.000989819 0)
(8.35374 -0.00159399 0)
(8.35558 -0.00226336 0)
(8.3574 -0.00299703 0)
(8.3592 -0.00379428 0)
(8.36097 -0.00465453 0)
(8.36271 -0.00557742 0)
(8.36441 -0.00656268 0)
(8.36609 -0.00761019 0)
(8.36772 -0.00871992 0)
(8.36931 -0.00989189 0)
(8.37086 -0.0111262 0)
(8.37237 -0.0124228 0)
(8.37383 -0.0137818 0)
(8.37525 -0.0152031 0)
(8.37663 -0.0166867 0)
(8.37795 -0.0182323 0)
(8.37923 -0.01984 0)
(8.38046 -0.0215074 0)
(8.33302 7.35923e-05 0)
(8.33326 0.000211463 0)
(8.33378 0.00031427 0)
(8.33453 0.000367332 0)
(8.33548 0.000365074 0)
(8.3366 0.000310145 0)
(8.33789 0.000200849 0)
(8.33931 3.48723e-05 0)
(8.34084 -0.00018787 0)
(8.34246 -0.000467635 0)
(8.34414 -0.000802659 0)
(8.34586 -0.00119975 0)
(8.34762 -0.00165427 0)
(8.34939 -0.00216602 0)
(8.35117 -0.00273585 0)
(8.35294 -0.00336405 0)
(8.3547 -0.00405058 0)
(8.35645 -0.00479548 0)
(8.35817 -0.00559887 0)
(8.35986 -0.00646083 0)
(8.36151 -0.00738151 0)
(8.36313 -0.00836108 0)
(8.36471 -0.0093997 0)
(8.36625 -0.0104976 0)
(8.36774 -0.0116549 0)
(8.36919 -0.0128719 0)
(8.3706 -0.0141485 0)
(8.37195 -0.015485 0)
(8.37326 -0.0168812 0)
(8.37451 -0.0183371 0)
(8.37572 -0.0198525 0)
(8.37687 -0.0214274 0)
(8.37797 -0.0230593 0)
(8.33302 -1.26982e-05 0)
(8.33324 -3.48337e-05 0)
(8.33371 -7.54432e-05 0)
(8.33441 -0.000151473 0)
(8.33532 -0.000271969 0)
(8.33641 -0.000437351 0)
(8.33766 -0.000650823 0)
(8.33904 -0.000914934 0)
(8.34053 -0.00122969 0)
(8.34209 -0.0015946 0)
(8.34372 -0.0020112 0)
(8.3454 -0.00247461 0)
(8.3471 -0.00298833 0)
(8.34881 -0.00355303 0)
(8.35053 -0.0041687 0)
(8.35224 -0.00483562 0)
(8.35393 -0.00555417 0)
(8.35561 -0.00632482 0)
(8.35725 -0.00714802 0)
(8.35886 -0.00802426 0)
(8.36043 -0.008954 0)
(8.36196 -0.00993774 0)
(8.36345 -0.0109759 0)
(8.3649 -0.0120689 0)
(8.3663 -0.0132172 0)
(8.36765 -0.014421 0)
(8.36894 -0.0156807 0)
(8.37019 -0.0169963 0)
(8.37138 -0.018368 0)
(8.37252 -0.0197957 0)
(8.37361 -0.0212793 0)
(8.37464 -0.0228189 0)
(8.37561 -0.0244121 0)
(8.33303 -0.00011003 0)
(8.33325 -0.000351362 0)
(8.33373 -0.000636344 0)
(8.33441 -0.000964959 0)
(8.33529 -0.00132333 0)
(8.33633 -0.00170417 0)
(8.33753 -0.00210241 0)
(8.33886 -0.00251619 0)
(8.34029 -0.00294762 0)
(8.3418 -0.00340055 0)
(8.34337 -0.00387938 0)
(8.34499 -0.00438775 0)
(8.34663 -0.00493048 0)
(8.34828 -0.00551079 0)
(8.34994 -0.00613132 0)
(8.35158 -0.00679459 0)
(8.35321 -0.00750265 0)
(8.35481 -0.0082572 0)
(8.35638 -0.00905966 0)
(8.35791 -0.00991121 0)
(8.35941 -0.0108128 0)
(8.36086 -0.0117654 0)
(8.36226 -0.0127696 0)
(8.36361 -0.0138259 0)
(8.36492 -0.014935 0)
(8.36617 -0.016097 0)
(8.36737 -0.0173124 0)
(8.36851 -0.0185812 0)
(8.36959 -0.0199034 0)
(8.37062 -0.021279 0)
(8.37159 -0.0227079 0)
(8.3725 -0.0241898 0)
(8.37335 -0.0257226 0)
(8.333 -0.00015731 0)
(8.33315 -0.000432915 0)
(8.33354 -0.000710643 0)
(8.33417 -0.00102822 0)
(8.33501 -0.00139861 0)
(8.33605 -0.00182137 0)
(8.33726 -0.002289 0)
(8.33859 -0.00279348 0)
(8.34002 -0.00332921 0)
(8.34153 -0.00389279 0)
(8.34309 -0.00448281 0)
(8.34468 -0.00509882 0)
(8.34629 -0.0057419 0)
(8.34791 -0.00641366 0)
(8.34951 -0.00711595 0)
(8.3511 -0.00785073 0)
(8.35267 -0.00862001 0)
(8.35421 -0.00942566 0)
(8.35571 -0.0102695 0)
(8.35717 -0.0111531 0)
(8.35858 -0.0120781 0)
(8.35995 -0.0130456 0)
(8.36127 -0.014057 0)
(8.36253 -0.0151133 0)
(8.36374 -0.0162153 0)
(8.36489 -0.0173637 0)
(8.36599 -0.0185592 0)
(8.36702 -0.0198022 0)
(8.368 -0.021093 0)
(8.36891 -0.0224317 0)
(8.36976 -0.0238184 0)
(8.37055 -0.025253 0)
(8.37128 -0.0267338 0)
(8.33305 -0.000344966 0)
(8.33333 -0.00110894 0)
(8.33378 -0.00195114 0)
(8.3344 -0.00280522 0)
(8.33518 -0.00361505 0)
(8.33613 -0.00436059 0)
(8.33724 -0.00504386 0)
(8.33849 -0.00567594 0)
(8.33984 -0.00627093 0)
(8.34127 -0.00684306 0)
(8.34277 -0.00740535 0)
(8.3443 -0.00796898 0)
(8.34585 -0.00854348 0)
(8.34741 -0.00913658 0)
(8.34897 -0.00975442 0)
(8.35051 -0.0104019 0)
(8.35202 -0.0110828 0)
(8.3535 -0.0118003 0)
(8.35494 -0.0125568 0)
(8.35633 -0.0133541 0)
(8.35768 -0.0141939 0)
(8.35898 -0.0150772 0)
(8.36022 -0.0160051 0)
(8.36141 -0.0169783 0)
(8.36254 -0.0179973 0)
(8.3636 -0.0190625 0)
(8.36461 -0.0201742 0)
(8.36555 -0.0213325 0)
(8.36642 -0.0225375 0)
(8.36723 -0.0237889 0)
(8.36798 -0.0250867 0)
(8.36866 -0.0264305 0)
(8.36927 -0.0278184 0)
(8.33294 -0.000112495 0)
(8.33285 -0.000244022 0)
(8.33306 -0.000436267 0)
(8.33364 -0.000818511 0)
(8.33451 -0.00139478 0)
(8.33561 -0.00211 0)
(8.33687 -0.00290707 0)
(8.33825 -0.00374506 0)
(8.33971 -0.0045986 0)
(8.34122 -0.00545317 0)
(8.34276 -0.00630171 0)
(8.34431 -0.00714224 0)
(8.34587 -0.00797604 0)
(8.34741 -0.00880623 0)
(8.34893 -0.00963683 0)
(8.35042 -0.0104722 0)
(8.35187 -0.0113168 0)
(8.35328 -0.0121748 0)
(8.35465 -0.0130499 0)
(8.35597 -0.0139457 0)
(8.35724 -0.0148653 0)
(8.35845 -0.0158113 0)
(8.3596 -0.0167862 0)
(8.36069 -0.017792 0)
(8.36172 -0.0188305 0)
(8.36269 -0.019903 0)
(8.36359 -0.0210108 0)
(8.36442 -0.0221548 0)
(8.36519 -0.0233358 0)
(8.36589 -0.0245543 0)
(8.36652 -0.0258105 0)
(8.36708 -0.0271048 0)
(8.36758 -0.0284358 0)
(8.33317 -0.000804391 0)
(8.33366 -0.00275223 0)
(8.33405 -0.00475599 0)
(8.33443 -0.0064822 0)
(8.33497 -0.00785562 0)
(8.33573 -0.00893041 0)
(8.33672 -0.00978071 0)
(8.33788 -0.0104704 0)
(8.33918 -0.0110513 0)
(8.34057 -0.0115638 0)
(8.34203 -0.0120388 0)
(8.34353 -0.012499 0)
(8.34505 -0.012961 0)
(8.34656 -0.0134368 0)
(8.34806 -0.0139348 0)
(8.34954 -0.014461 0)
(8.35098 -0.0150197 0)
(8.35237 -0.0156138 0)
(8.35372 -0.0162454 0)
(8.35501 -0.0169158 0)
(8.35624 -0.017626 0)
(8.35741 -0.0183766 0)
(8.35852 -0.019168 0)
(8.35956 -0.0200004 0)
(8.36054 -0.0208739 0)
(8.36144 -0.0217884 0)
(8.36228 -0.0227439 0)
(8.36304 -0.0237402 0)
(8.36373 -0.0247769 0)
(8.36435 -0.0258537 0)
(8.3649 -0.0269702 0)
(8.36538 -0.0281262 0)
(8.36578 -0.0293196 0)
(8.33263 0.000551571 0)
(8.33175 0.00191703 0)
(8.33173 0.00272844 0)
(8.33254 0.00257006 0)
(8.33377 0.00166542 0)
(8.33519 0.000367738 0)
(8.3367 -0.00109218 0)
(8.33826 -0.0025915 0)
(8.33983 -0.0040643 0)
(8.34139 -0.00547546 0)
(8.34294 -0.00681036 0)
(8.34447 -0.00806728 0)
(8.34597 -0.00925147 0)
(8.34743 -0.0103717 0)
(8.34885 -0.0114379 0)
(8.35024 -0.0124606 0)
(8.35157 -0.0134495 0)
(8.35285 -0.0144137 0)
(8.35409 -0.0153613 0)
(8.35526 -0.0162993 0)
(8.35638 -0.0172341 0)
(8.35743 -0.0181711 0)
(8.35842 -0.0191148 0)
(8.35935 -0.0200691 0)
(8.36021 -0.0210375 0)
(8.361 -0.0220227 0)
(8.36172 -0.0230271 0)
(8.36238 -0.0240527 0)
(8.36296 -0.0251009 0)
(8.36346 -0.026173 0)
(8.3639 -0.0272699 0)
(8.36426 -0.0283924 0)
(8.36456 -0.0295396 0)
(8.33358 -0.00198653 0)
(8.33464 -0.00697931 0)
(8.33436 -0.0118214 0)
(8.33365 -0.0150297 0)
(8.3334 -0.0168475 0)
(8.33378 -0.0178599 0)
(8.33461 -0.0183876 0)
(8.33575 -0.0186247 0)
(8.3371 -0.018706 0)
(8.33858 -0.0187193 0)
(8.34013 -0.018719 0)
(8.34173 -0.0187384 0)
(8.34332 -0.0187968 0)
(8.34491 -0.0189049 0)
(8.34645 -0.0190677 0)
(8.34796 -0.0192869 0)
(8.34941 -0.0195624 0)
(8.35081 -0.0198929 0)
(8.35214 -0.0202764 0)
(8.3534 -0.0207109 0)
(8.35459 -0.0211944 0)
(8.35571 -0.0217246 0)
(8.35676 -0.0222999 0)
(8.35773 -0.0229184 0)
(8.35863 -0.0235786 0)
(8.35945 -0.0242791 0)
(8.36019 -0.0250186 0)
(8.36086 -0.0257959 0)
(8.36144 -0.0266099 0)
(8.36195 -0.0274596 0)
(8.36239 -0.0283442 0)
(8.36274 -0.029263 0)
(8.36302 -0.030214 0)
(8.33162 0.00367603 0)
(8.32827 0.0101928 0)
(8.32843 0.0133262 0)
(8.33096 0.0132415 0)
(8.33351 0.0111365 0)
(8.33565 0.00824955 0)
(8.33755 0.00520714 0)
(8.3393 0.0022488 0)
(8.34091 -0.000513851 0)
(8.34243 -0.0030331 0)
(8.34388 -0.00530398 0)
(8.34527 -0.00734288 0)
(8.34662 -0.00917446 0)
(8.34794 -0.0108259 0)
(8.34922 -0.012324 0)
(8.35047 -0.0136933 0)
(8.35168 -0.014956 0)
(8.35286 -0.0161313 0)
(8.354 -0.0172356 0)
(8.35509 -0.0182833 0)
(8.35613 -0.0192863 0)
(8.35712 -0.0202549 0)
(8.35806 -0.0211976 0)
(8.35894 -0.0221218 0)
(8.35976 -0.0230337 0)
(8.36051 -0.0239382 0)
(8.3612 -0.0248399 0)
(8.36182 -0.0257423 0)
(8.36238 -0.0266484 0)
(8.36286 -0.0275607 0)
(8.36327 -0.028481 0)
(8.3636 -0.0294109 0)
(8.36386 -0.0303508 0)
(8.33429 -0.00644803 0)
(8.3346 -0.0207302 0)
(8.33068 -0.0299928 0)
(8.32664 -0.0340311 0)
(8.3247 -0.0349485 0)
(8.32476 -0.0344265 0)
(8.3259 -0.0332786 0)
(8.32758 -0.0318989 0)
(8.32958 -0.0305105 0)
(8.33177 -0.0292308 0)
(8.33405 -0.0281118 0)
(8.33636 -0.0271702 0)
(8.33866 -0.0264049 0)
(8.34092 -0.0258057 0)
(8.34313 -0.0253583 0)
(8.34527 -0.0250472 0)
(8.34734 -0.0248574 0)
(8.34933 -0.0247751 0)
(8.35123 -0.0247877 0)
(8.35305 -0.0248843 0)
(8.35479 -0.0250556 0)
(8.35643 -0.0252934 0)
(8.35798 -0.0255907 0)
(8.35944 -0.0259417 0)
(8.3608 -0.0263415 0)
(8.36207 -0.0267858 0)
(8.36325 -0.027271 0)
(8.36433 -0.027794 0)
(8.36532 -0.0283523 0)
(8.36621 -0.0289436 0)
(8.36701 -0.0295661 0)
(8.36772 -0.0302183 0)
(8.36834 -0.030898 0)
(8.32884 0.0225885 0)
(8.32235 0.0427517 0)
(8.32666 0.0439744 0)
(8.33328 0.0380103 0)
(8.33774 0.0306622 0)
(8.34053 0.0234994 0)
(8.34278 0.0168415 0)
(8.34491 0.0108699 0)
(8.34704 0.00564062 0)
(8.34924 0.00110583 0)
(8.35153 -0.0028144 0)
(8.35391 -0.00620193 0)
(8.35637 -0.00913459 0)
(8.35886 -0.011683 0)
(8.36138 -0.0139088 0)
(8.36391 -0.0158646 0)
(8.36641 -0.0175947 0)
(8.36888 -0.0191367 0)
(8.3713 -0.0205218 0)
(8.37366 -0.0217763 0)
(8.37595 -0.0229221 0)
(8.37815 -0.0239776 0)
(8.38026 -0.0249582 0)
(8.38228 -0.0258769 0)
(8.38419 -0.0267445 0)
(8.38601 -0.0275703 0)
(8.38771 -0.0283621 0)
(8.38931 -0.0291263 0)
(8.3908 -0.0298688 0)
(8.39218 -0.0305942 0)
(8.39345 -0.0313066 0)
(8.39461 -0.0320093 0)
(8.39565 -0.0327059 0)
(8.32436 -0.0380363 0)
(8.29385 -0.0683409 0)
(8.27212 -0.0717356 0)
(8.26664 -0.068661 0)
(8.27353 -0.0643428 0)
(8.28614 -0.0595365 0)
(8.30086 -0.054872 0)
(8.31614 -0.0507143 0)
(8.33113 -0.0471254 0)
(8.34536 -0.0440803 0)
(8.35864 -0.0415347 0)
(8.37091 -0.0394296 0)
(8.38217 -0.0377034 0)
(8.39247 -0.0362991 0)
(8.40186 -0.0351669 0)
(8.41041 -0.0342637 0)
(8.41819 -0.0335532 0)
(8.42525 -0.033005 0)
(8.43166 -0.0325937 0)
(8.43747 -0.0322985 0)
(8.44272 -0.032102 0)
(8.44746 -0.0319898 0)
(8.45173 -0.0319503 0)
(8.45556 -0.0319736 0)
(8.45899 -0.0320516 0)
(8.46204 -0.0321775 0)
(8.46475 -0.0323457 0)
(8.46713 -0.0325514 0)
(8.4692 -0.0327907 0)
(8.471 -0.03306 0)
(8.47253 -0.0333564 0)
(8.47382 -0.0336773 0)
(8.47488 -0.034019 0)
(8.34002 0.156987 0)
(8.38198 0.148993 0)
(8.40247 0.103365 0)