/*--------------------------------*- C++ -*----------------------------------*\
| =========                 |                                                 |
| \\      /  F ield         | OpenFOAM: The Open Source CFD Toolbox           |
|  \\    /   O peration     | Version:  2.1.1                                 |
|   \\  /    A nd           | Web:      www.OpenFOAM.org                      |
|    \\/     M anipulation  |                                                 |
\*---------------------------------------------------------------------------*/
FoamFile
{
    version     2.0;
    format      ascii;
    class       volScalarField;
    location    "0.02";
    object      nuSgs;
}
// * * * * * * * * * * * * * * * * * * * * * * * * * * * * * * * * * * * * * //

dimensions      [0 2 -1 0 0 0 0];

internalField   nonuniform List<scalar> 
6820
(
0.000556014
0.000457462
0.000368308
0.000306451
0.000269441
0.000244038
0.000225429
0.000211287
0.000199953
0.000190523
0.000182485
0.00017551
0.000169376
0.000163932
0.000159067
0.000154695
0.000150753
0.000147192
0.00014398
0.000141078
0.000138461
0.000136113
0.000134019
0.000132167
0.000130547
0.000129153
0.00012798
0.000127031
0.000126304
0.000125829
0.000125597
0.000125514
0.00012499
0.00010348
0.000170616
0.00022358
0.000239962
0.000235254
0.000224964
0.000213363
0.000202193
0.000192091
0.000183076
0.000175028
0.000167814
0.00016131
0.000155415
0.000150044
0.000145128
0.000140609
0.000136441
0.000132584
0.000129003
0.000125677
0.000122582
0.000119695
0.000116995
0.000114462
0.00011208
0.000109833
0.000107701
0.000105683
0.000103701
0.000101882
9.96871e-05
9.84456e-05
3.67766e-05
2.84951e-05
4.55173e-05
8.2088e-05
0.000107629
0.000123138
0.000131495
0.00013529
0.000136349
0.00013574
0.000134104
0.000131836
0.000129182
0.000126304
0.000123307
0.000120262
0.000117214
0.000114195
0.000111216
0.000108292
0.000105426
0.000102612
9.9854e-05
9.71475e-05
9.44888e-05
9.18726e-05
8.92919e-05
8.6735e-05
8.41914e-05
8.16232e-05
7.90271e-05
7.62134e-05
7.33406e-05
2.07353e-05
2.8703e-05
2.66093e-05
1.52053e-05
3.69984e-06
1.34752e-05
2.51136e-05
3.4729e-05
4.24216e-05
4.84667e-05
5.31402e-05
5.66865e-05
5.93074e-05
6.11644e-05
6.23876e-05
6.30863e-05
6.33496e-05
6.32501e-05
6.28472e-05
6.21915e-05
6.13134e-05
6.02358e-05
5.89807e-05
5.75736e-05
5.60323e-05
5.43706e-05
5.25995e-05
5.07247e-05
4.87504e-05
4.66683e-05
4.44812e-05
4.21805e-05
3.98543e-05
1.44138e-05
1.76084e-05
2.2627e-05
2.43202e-05
2.40098e-05
2.20794e-05
1.9274e-05
1.6136e-05
1.29003e-05
9.71767e-06
6.6962e-06
3.91014e-06
1.47523e-06
1.23637e-06
3.08732e-06
4.77611e-06
6.21073e-06
7.39044e-06
8.32719e-06
9.03336e-06
9.53578e-06
9.86068e-06
1.00174e-05
1.00228e-05
9.88861e-06
9.62454e-06
9.24006e-06
8.74281e-06
8.14105e-06
7.4393e-06
6.65152e-06
5.80021e-06
4.9408e-06
1.09105e-05
1.25233e-05
1.38597e-05
1.43614e-05
1.51277e-05
1.57435e-05
1.60977e-05
1.62871e-05
1.63188e-05
1.6201e-05
1.59603e-05
1.56229e-05
1.5214e-05
1.47555e-05
1.42649e-05
1.37601e-05
1.32565e-05
1.27669e-05
1.23e-05
1.18629e-05
1.14592e-05
1.10868e-05
1.07436e-05
1.04313e-05
1.01497e-05
9.89824e-06
9.67639e-06
9.4834e-06
9.31629e-06
9.17189e-06
9.03754e-06
8.89688e-06
8.7087e-06
8.23103e-06
9.45124e-06
1.02911e-05
1.00977e-05
9.90967e-06
9.72711e-06
9.53312e-06
9.43019e-06
9.40732e-06
9.42024e-06
9.44203e-06
9.45495e-06
9.4474e-06
9.41533e-06
9.35857e-06
9.27678e-06
9.17057e-06
9.04135e-06
8.89078e-06
8.72215e-06
8.54148e-06
8.3561e-06
8.16842e-06
7.9817e-06
7.797e-06
7.61501e-06
7.43614e-06
7.26047e-06
7.08633e-06
6.91095e-06
6.72565e-06
6.52012e-06
6.27131e-06
6.34338e-06
7.42917e-06
8.25973e-06
8.13522e-06
7.83331e-06
7.5012e-06
7.13096e-06
6.81414e-06
6.5693e-06
6.37519e-06
6.21851e-06
6.08993e-06
5.98048e-06
5.88329e-06
5.79376e-06
5.70875e-06
5.62602e-06
5.54416e-06
5.4626e-06
5.38066e-06
5.29917e-06
5.21825e-06
5.13812e-06
5.06e-06
4.9843e-06
4.91099e-06
4.83971e-06
4.76967e-06
4.69874e-06
4.62356e-06
4.53749e-06
4.43318e-06
4.29764e-06
4.97923e-06
5.87519e-06
6.58442e-06
6.59288e-06
6.43545e-06
6.23762e-06
5.96498e-06
5.69067e-06
5.4535e-06
5.24977e-06
5.07464e-06
4.92461e-06
4.79475e-06
4.68078e-06
4.57974e-06
4.48944e-06
4.4082e-06
4.33464e-06
4.2679e-06
4.20688e-06
4.15116e-06
4.09989e-06
4.05224e-06
4.00812e-06
3.96724e-06
3.92907e-06
3.89284e-06
3.85728e-06
3.82011e-06
3.77804e-06
3.7262e-06
3.65972e-06
3.57168e-06
3.97014e-06
4.71928e-06
5.34951e-06
5.43805e-06
5.34841e-06
5.2115e-06
5.00658e-06
4.78964e-06
4.59893e-06
4.4338e-06
4.28981e-06
4.16481e-06
4.05576e-06
3.95971e-06
3.87461e-06
3.79897e-06
3.73162e-06
3.67161e-06
3.61827e-06
3.57089e-06
3.52884e-06
3.49117e-06
3.45718e-06
3.42667e-06
3.39937e-06
3.37467e-06
3.35157e-06
3.32868e-06
3.30393e-06
3.27471e-06
3.23781e-06
3.1905e-06
3.12971e-06
3.2074e-06
3.84186e-06
4.4033e-06
4.53543e-06
4.49625e-06
4.41017e-06
4.26323e-06
4.09324e-06
3.93545e-06
3.79449e-06
3.6691e-06
3.55934e-06
3.46388e-06
3.38067e-06
3.30801e-06
3.24461e-06
3.18934e-06
3.14131e-06
3.09976e-06
3.06401e-06
3.03349e-06
3.00761e-06
2.98579e-06
2.96761e-06
2.95252e-06
2.93971e-06
2.92819e-06
2.91668e-06
2.90357e-06
2.88697e-06
2.865e-06
2.83648e-06
2.80061e-06
2.6179e-06
3.16146e-06
3.67126e-06
3.84002e-06
3.84798e-06
3.80179e-06
3.69572e-06
3.55899e-06
3.42521e-06
3.3031e-06
3.19338e-06
3.09691e-06
3.0132e-06
2.94081e-06
2.87843e-06
2.82495e-06
2.77944e-06
2.7411e-06
2.70919e-06
2.68312e-06
2.66229e-06
2.64607e-06
2.63381e-06
2.62494e-06
2.61889e-06
2.61494e-06
2.6122e-06
2.60964e-06
2.60608e-06
2.60031e-06
2.5914e-06
2.57916e-06
2.5641e-06
2.15207e-06
2.62592e-06
3.09696e-06
3.29146e-06
3.33564e-06
3.32066e-06
3.24899e-06
3.14371e-06
3.03425e-06
2.93091e-06
2.83581e-06
2.75074e-06
2.67629e-06
2.61189e-06
2.55677e-06
2.51016e-06
2.47135e-06
2.43963e-06
2.41434e-06
2.39488e-06
2.38063e-06
2.37099e-06
2.36538e-06
2.36325e-06
2.36401e-06
2.36699e-06
2.37141e-06
2.37644e-06
2.38126e-06
2.38517e-06
2.38783e-06
2.38956e-06
2.39156e-06
1.77632e-06
2.19785e-06
2.63945e-06
2.85366e-06
2.92882e-06
2.94121e-06
2.89821e-06
2.81888e-06
2.72907e-06
2.64047e-06
2.55688e-06
2.48093e-06
2.41401e-06
2.35615e-06
2.30693e-06
2.26587e-06
2.23236e-06
2.20581e-06
2.18562e-06
2.17124e-06
2.16208e-06
2.15757e-06
2.15715e-06
2.16025e-06
2.16629e-06
2.17467e-06
2.18475e-06
2.19591e-06
2.20765e-06
2.2196e-06
2.2318e-06
2.24476e-06
2.25999e-06
1.46722e-06
1.85112e-06
2.27097e-06
2.50066e-06
2.60116e-06
2.6359e-06
2.61584e-06
2.55808e-06
2.4855e-06
2.41024e-06
2.33716e-06
2.26941e-06
2.20889e-06
2.15619e-06
2.11131e-06
2.07402e-06
2.04396e-06
2.02069e-06
2.00372e-06
1.99255e-06
1.98666e-06
1.98553e-06
1.98863e-06
1.99543e-06
2.0054e-06
2.01803e-06
2.03279e-06
2.04923e-06
2.06701e-06
2.08596e-06
2.10629e-06
2.12846e-06
2.15412e-06
1.20817e-06
1.5671e-06
1.97145e-06
2.21347e-06
2.33496e-06
2.38882e-06
2.38812e-06
2.34868e-06
2.29073e-06
2.22646e-06
2.1616e-06
2.0999e-06
2.04382e-06
1.99447e-06
1.95224e-06
1.9172e-06
1.88919e-06
1.86791e-06
1.85296e-06
1.84392e-06
1.84033e-06
1.84169e-06
1.84751e-06
1.85729e-06
1.87055e-06
1.8868e-06
1.90561e-06
1.92662e-06
1.94958e-06
1.97445e-06
2.00144e-06
2.03091e-06
2.0645e-06
9.87263e-07
1.33254e-06
1.72669e-06
1.97879e-06
2.11764e-06
2.18759e-06
2.20279e-06
2.17827e-06
2.13233e-06
2.07701e-06
2.01873e-06
1.96173e-06
1.90887e-06
1.86167e-06
1.8209e-06
1.78687e-06
1.75964e-06
1.73906e-06
1.72489e-06
1.71677e-06
1.71434e-06
1.71714e-06
1.72472e-06
1.73663e-06
1.7524e-06
1.7716e-06
1.79383e-06
1.81878e-06
1.84624e-06
1.87617e-06
1.90873e-06
1.9441e-06
1.98385e-06
7.95944e-07
1.13818e-06
1.52665e-06
1.78702e-06
1.94012e-06
2.02361e-06
2.05197e-06
2.03974e-06
2.00365e-06
1.95544e-06
1.90201e-06
1.84802e-06
1.7967e-06
1.75001e-06
1.70908e-06
1.67453e-06
1.64664e-06
1.62547e-06
1.61091e-06
1.60272e-06
1.60059e-06
1.60414e-06
1.61293e-06
1.62653e-06
1.64447e-06
1.66632e-06
1.69168e-06
1.72023e-06
1.75174e-06
1.78611e-06
1.82341e-06
1.86362e-06
1.90826e-06
6.28421e-07
9.77998e-07
1.36439e-06
1.63149e-06
1.79613e-06
1.89082e-06
1.9299e-06
1.92746e-06
1.899e-06
1.85596e-06
1.80559e-06
1.75295e-06
1.70163e-06
1.65399e-06
1.61149e-06
1.57505e-06
1.54521e-06
1.52224e-06
1.50617e-06
1.49691e-06
1.49423e-06
1.49779e-06
1.5072e-06
1.522e-06
1.54173e-06
1.56592e-06
1.59414e-06
1.626e-06
1.66121e-06
1.69956e-06
1.74103e-06
1.78537e-06
1.83402e-06
4.8178e-07
8.48833e-07
1.23537e-06
1.50759e-06
1.68132e-06
1.78505e-06
1.83268e-06
1.83783e-06
1.81504e-06
1.77542e-06
1.72646e-06
1.67355e-06
1.62064e-06
1.57042e-06
1.52473e-06
1.48481e-06
1.45149e-06
1.42527e-06
1.40641e-06
1.39497e-06
1.39081e-06
1.39368e-06
1.40318e-06
1.41886e-06
1.44019e-06
1.46664e-06
1.49767e-06
1.53281e-06
1.57166e-06
1.61388e-06
1.65928e-06
1.70745e-06
1.75976e-06
3.57821e-07
7.50215e-07
1.137e-06
1.41245e-06
1.59291e-06
1.70364e-06
1.75781e-06
1.76849e-06
1.74943e-06
1.71139e-06
1.66204e-06
1.60708e-06
1.55075e-06
1.49614e-06
1.44543e-06
1.40023e-06
1.3617e-06
1.33063e-06
1.30755e-06
1.2927e-06
1.28612e-06
1.28761e-06
1.29678e-06
1.31313e-06
1.33605e-06
1.36486e-06
1.3989e-06
1.43754e-06
1.48021e-06
1.52641e-06
1.57581e-06
1.62777e-06
1.68357e-06
2.68715e-07
6.83917e-07
1.06809e-06
1.34441e-06
1.52929e-06
1.6451e-06
1.70396e-06
1.71836e-06
1.70132e-06
1.66331e-06
1.61208e-06
1.55356e-06
1.49227e-06
1.4316e-06
1.37413e-06
1.3218e-06
1.27613e-06
1.23831e-06
1.20918e-06
1.1893e-06
1.17891e-06
1.17795e-06
1.18607e-06
1.20269e-06
1.22706e-06
1.25834e-06
1.29565e-06
1.33813e-06
1.385e-06
1.43557e-06
1.48931e-06
1.54541e-06
1.60511e-06
2.43284e-07
6.52958e-07
1.02857e-06
1.30289e-06
1.48986e-06
1.60881e-06
1.67055e-06
1.68682e-06
1.66996e-06
1.63011e-06
1.57506e-06
1.51091e-06
1.44246e-06
1.37343e-06
1.30674e-06
1.24477e-06
1.18947e-06
1.14249e-06
1.10513e-06
1.07838e-06
1.06282e-06
1.0586e-06
1.0654e-06
1.08255e-06
1.10905e-06
1.14374e-06
1.1854e-06
1.23284e-06
1.285e-06
1.3409e-06
1.39982e-06
1.46072e-06
1.5247e-06
2.961e-07
6.59659e-07
1.01903e-06
1.28815e-06
1.47499e-06
1.59545e-06
1.65878e-06
1.67582e-06
1.65826e-06
1.61587e-06
1.55637e-06
1.48592e-06
1.40946e-06
1.3309e-06
1.25342e-06
1.17972e-06
1.11218e-06
1.05295e-06
1.00397e-06
9.66904e-07
9.42984e-07
9.32848e-07
9.36436e-07
9.52996e-07
9.81225e-07
1.01949e-06
1.06604e-06
1.11922e-06
1.17752e-06
1.23963e-06
1.30461e-06
1.37115e-06
1.44045e-06
4.00491e-07
7.03865e-07
1.04025e-06
1.30101e-06
1.4854e-06
1.60536e-06
1.66822e-06
1.68375e-06
1.66302e-06
1.61551e-06
1.54887e-06
1.46939e-06
1.38214e-06
1.29124e-06
1.20008e-06
1.11162e-06
1.02862e-06
9.5377e-07
8.89773e-07
8.39277e-07
8.04607e-07
7.87355e-07
7.87963e-07
8.05562e-07
8.38188e-07
8.83258e-07
9.38071e-07
1.00015e-06
1.06739e-06
1.13808e-06
1.21098e-06
1.28463e-06
1.36002e-06
5.3334e-07
7.8321e-07
1.09306e-06
1.34323e-06
1.52396e-06
1.64316e-06
1.70607e-06
1.72129e-06
1.69913e-06
1.64853e-06
1.57686e-06
1.49023e-06
1.39364e-06
1.29116e-06
1.18617e-06
1.08165e-06
9.80437e-07
8.85454e-07
7.99982e-07
7.27799e-07
6.73059e-07
6.3967e-07
6.30105e-07
6.44278e-07
6.79447e-07
7.31301e-07
7.95321e-07
8.67606e-07
9.45135e-07
1.02563e-06
1.1076e-06
1.18934e-06
1.27218e-06
6.87748e-07
8.95966e-07
1.17933e-06
1.41705e-06
1.59146e-06
1.70643e-06
1.76498e-06
1.77476e-06
1.74573e-06
1.68679e-06
1.60533e-06
1.50754e-06
1.39843e-06
1.282e-06
1.16148e-06
1.0396e-06
9.18868e-07
8.01915e-07
6.91929e-07
5.93289e-07
5.12323e-07
4.57513e-07
4.3722e-07
4.54185e-07
5.02681e-07
5.72849e-07
6.55973e-07
7.4606e-07
8.39338e-07
9.33405e-07
1.02688e-06
1.11828e-06
1.20884e-06
8.64008e-07
1.04059e-06
1.30019e-06
1.52674e-06
1.69793e-06
1.81425e-06
1.87603e-06
1.88908e-06
1.86214e-06
1.80332e-06
1.71956e-06
1.61692e-06
1.50041e-06
1.37411e-06
1.24124e-06
1.10441e-06
9.65758e-07
8.27174e-07
6.9055e-07
5.58261e-07
4.34196e-07
3.26462e-07
2.53589e-07
2.44447e-07
3.01005e-07
3.92766e-07
4.97928e-07
6.07149e-07
7.1645e-07
8.23837e-07
9.28452e-07
1.02899e-06
1.12764e-06
1.06805e-06
1.22334e-06
1.46358e-06
1.67616e-06
1.83552e-06
1.94025e-06
1.98993e-06
1.99084e-06
1.95246e-06
1.88325e-06
1.79015e-06
1.67898e-06
1.55449e-06
1.42039e-06
1.27957e-06
1.13428e-06
9.86269e-07
8.36921e-07
6.87325e-07
5.38371e-07
3.90829e-07
2.45499e-07
1.04253e-07
4.95951e-08
1.80335e-07
3.1332e-07
4.42979e-07
5.68587e-07
6.89773e-07
8.06225e-07
9.17844e-07
1.02408e-06
1.12645e-06
1.30451e-06
1.44085e-06
1.66742e-06
1.879e-06
2.04915e-06
2.17135e-06
2.23896e-06
2.25434e-06
2.22545e-06
2.16056e-06
2.06719e-06
1.95219e-06
1.82139e-06
1.67951e-06
1.53029e-06
1.3767e-06
1.2211e-06
1.06547e-06
9.11613e-07
7.61481e-07
6.17693e-07
4.84715e-07
3.71652e-07
2.97559e-07
2.88429e-07
3.4449e-07
4.37332e-07
5.44919e-07
6.56896e-07
7.68459e-07
8.77426e-07
9.81798e-07
1.08343e-06
1.59431e-06
1.72869e-06
1.94333e-06
2.12817e-06
2.26317e-06
2.35066e-06
2.38989e-06
2.38626e-06
2.34796e-06
2.28146e-06
2.19195e-06
2.08421e-06
1.96258e-06
1.83088e-06
1.69245e-06
1.55035e-06
1.4074e-06
1.26634e-06
1.13007e-06
1.00189e-06
8.85852e-07
7.87069e-07
7.11712e-07
6.66025e-07
6.53963e-07
6.74723e-07
7.22749e-07
7.90361e-07
8.70362e-07
9.57164e-07
1.04678e-06
1.13649e-06
1.22485e-06
1.92969e-06
2.04118e-06
2.26858e-06
2.50581e-06
2.71149e-06
2.8627e-06
2.94414e-06
2.95999e-06
2.92357e-06
2.84737e-06
2.74184e-06
2.6158e-06
2.47629e-06
2.32863e-06
2.17688e-06
2.02423e-06
1.87333e-06
1.72651e-06
1.58601e-06
1.45417e-06
1.33354e-06
1.22695e-06
1.13742e-06
1.06792e-06
1.02085e-06
9.97333e-07
9.96726e-07
1.01657e-06
1.05311e-06
1.10207e-06
1.15938e-06
1.22123e-06
1.28633e-06
2.4056e-06
2.55108e-06
2.72717e-06
2.84149e-06
2.92584e-06
3.00181e-06
3.05908e-06
3.08919e-06
3.08972e-06
3.05971e-06
3.00054e-06
2.91628e-06
2.81215e-06
2.69343e-06
2.56508e-06
2.43165e-06
2.2971e-06
2.16491e-06
2.03814e-06
1.91951e-06
1.81145e-06
1.71613e-06
1.63543e-06
1.57079e-06
1.5231e-06
1.49255e-06
1.47856e-06
1.47975e-06
1.49412e-06
1.51934e-06
1.55267e-06
1.59235e-06
1.63468e-06
2.8766e-06
2.97644e-06
3.34636e-06
3.73789e-06
4.02875e-06
4.19651e-06
4.2503e-06
4.2212e-06
4.13925e-06
4.02289e-06
3.88353e-06
3.72932e-06
3.56599e-06
3.39761e-06
3.2275e-06
3.05852e-06
2.89327e-06
2.73411e-06
2.58318e-06
2.44245e-06
2.31368e-06
2.19839e-06
2.09782e-06
2.01285e-06
1.94387e-06
1.89071e-06
1.85253e-06
1.82792e-06
1.81489e-06
1.81127e-06
1.81468e-06
1.82344e-06
1.83566e-06
3.9119e-06
4.00948e-06
3.90659e-06
3.81285e-06
3.90018e-06
4.09972e-06
4.28629e-06
4.40829e-06
4.46159e-06
4.45584e-06
4.40754e-06
4.33468e-06
4.25155e-06
4.16771e-06
4.08863e-06
4.01663e-06
3.95181e-06
3.89299e-06
3.83849e-06
3.78651e-06
3.7355e-06
3.6842e-06
3.63169e-06
3.57738e-06
3.52092e-06
3.46216e-06
3.4011e-06
3.33787e-06
3.27265e-06
3.20594e-06
3.13763e-06
3.07034e-06
2.99948e-06
4.36721e-06
4.93224e-06
5.8982e-06
6.36825e-06
6.47011e-06
6.43538e-06
6.41985e-06
6.52787e-06
6.78627e-06
7.15897e-06
7.59237e-06
8.03941e-06
8.46486e-06
8.84556e-06
9.16858e-06
9.42835e-06
9.6242e-06
9.75853e-06
9.83558e-06
9.86048e-06
9.83873e-06
9.77576e-06
9.67667e-06
9.54609e-06
9.38796e-06
9.20547e-06
9.00091e-06
8.77579e-06
8.53112e-06
8.26845e-06
7.99066e-06
7.70611e-06
7.41177e-06
7.55571e-06
5.81365e-06
4.6054e-06
6.20221e-06
8.93666e-06
1.16451e-05
1.39712e-05
1.5856e-05
1.7301e-05
1.83234e-05
1.89634e-05
1.92724e-05
1.93032e-05
1.91082e-05
1.87369e-05
1.82341e-05
1.76387e-05
1.69838e-05
1.62968e-05
1.55993e-05
1.49083e-05
1.42363e-05
1.35921e-05
1.2981e-05
1.24055e-05
1.18657e-05
1.13594e-05
1.08826e-05
1.04303e-05
9.99545e-06
9.57319e-06
9.1547e-06
8.72884e-06
8.57657e-06
1.47122e-05
1.88051e-05
2.1202e-05
2.22909e-05
2.18259e-05
1.99824e-05
1.7207e-05
1.39458e-05
1.0758e-05
8.53279e-06
8.37116e-06
1.02608e-05
1.31155e-05
1.61808e-05
1.91271e-05
2.18158e-05
2.419e-05
2.62322e-05
2.79451e-05
2.93428e-05
3.04454e-05
3.12764e-05
3.18606e-05
3.22235e-05
3.23918e-05
3.23944e-05
3.22656e-05
3.20423e-05
3.17701e-05
3.14652e-05
3.11729e-05
3.08825e-05
3.46274e-05
3.71899e-05
4.65989e-05
6.16744e-05
7.73057e-05
9.25979e-05
0.000106847
0.000119344
0.000129901
0.000138564
0.000145447
0.000150714
0.000154557
0.000157162
0.000158709
0.000159359
0.000159255
0.000158524
0.000157275
0.0001556
0.000153578
0.000151278
0.000148754
0.000146053
0.000143216
0.000140272
0.00013725
0.000134168
0.000131045
0.000127891
0.000124718
0.000121629
0.000118618
0.000608435
0.000582485
0.00055685
0.000530379
0.00050438
0.00047918
0.000454827
0.000431599
0.000409685
0.000389145
0.000370001
0.000352239
0.000335814
0.000320658
0.000306692
0.000293831
0.000281988
0.000271077
0.000261016
0.000251726
0.000243134
0.000235173
0.00022778
0.000220895
0.000214459
0.000208417
0.000202717
0.000197321
0.000192217
0.000187421
0.000182814
0.000178894
0.000175422
0.000112343
0.000115146
0.000120395
0.000117172
0.000110828
0.000102435
9.3592e-05
8.50496e-05
7.73044e-05
7.10481e-05
6.6715e-05
6.46875e-05
6.42436e-05
6.22584e-05
5.35109e-05
3.41025e-05
8.66045e-06
1.9067e-05
3.1692e-05
3.32136e-05
2.95019e-05
2.56565e-05
2.28775e-05
2.05733e-05
1.83837e-05
1.6333e-05
1.45181e-05
1.29782e-05
1.16928e-05
1.06074e-05
9.66292e-06
8.81648e-06
8.04612e-06
7.344e-06
6.70717e-06
6.13231e-06
5.61437e-06
5.14669e-06
4.7214e-06
4.33021e-06
3.96583e-06
3.62343e-06
3.30122e-06
2.9997e-06
2.72014e-06
2.46318e-06
2.2284e-06
2.01449e-06
1.81982e-06
1.64276e-06
1.48186e-06
1.33584e-06
1.20351e-06
1.08373e-06
9.75425e-07
8.77617e-07
7.89402e-07
7.09957e-07
6.38525e-07
5.74395e-07
5.16888e-07
4.65358e-07
4.19202e-07
3.77863e-07
3.40841e-07
3.07713e-07
2.78101e-07
2.51685e-07
2.28203e-07
2.07418e-07
1.89133e-07
1.7318e-07
1.59396e-07
1.476e-07
1.37643e-07
1.29327e-07
1.22459e-07
1.16846e-07
1.12311e-07
1.087e-07
1.05878e-07
1.0372e-07
1.02106e-07
1.0093e-07
1.00098e-07
9.95409e-08
9.9208e-08
9.90536e-08
9.90749e-08
9.92055e-08
9.95161e-08
9.97867e-08
1.00383e-07
1.0045e-07
1.01699e-07
1.00679e-07
1.04447e-07
9.89434e-08
1.11651e-07
9.74153e-08
0.00012491
0.000120931
0.000120547
0.000120239
0.000119141
0.000116638
0.000112958
0.00010829
0.00010277
9.65337e-05
8.91617e-05
7.99944e-05
6.74792e-05
4.97503e-05
2.62506e-05
1.70883e-06
2.11931e-05
3.2085e-05
3.33078e-05
3.00185e-05
2.65411e-05
2.39951e-05
2.18842e-05
1.98314e-05
1.78171e-05
1.59311e-05
1.42485e-05
1.28044e-05
1.15881e-05
1.05537e-05
9.64656e-06
8.82676e-06
8.07493e-06
7.38537e-06
6.7567e-06
6.1867e-06
5.67116e-06
5.20421e-06
4.77867e-06
4.38674e-06
4.02134e-06
3.67759e-06
3.3536e-06
3.04982e-06
2.7676e-06
2.50778e-06
2.27008e-06
2.0533e-06
1.85584e-06
1.67608e-06
1.51257e-06
1.36405e-06
1.22934e-06
1.10737e-06
9.97079e-07
8.97488e-07
8.07662e-07
7.26729e-07
6.53891e-07
5.88417e-07
5.29639e-07
4.76949e-07
4.29793e-07
3.87656e-07
3.50069e-07
3.166e-07
2.86851e-07
2.60466e-07
2.37127e-07
2.16536e-07
1.98431e-07
1.82572e-07
1.68745e-07
1.56744e-07
1.46396e-07
1.37502e-07
1.29897e-07
1.23425e-07
1.17952e-07
1.13352e-07
1.09513e-07
1.0633e-07
1.03707e-07
1.0156e-07
9.9822e-08
9.84202e-08
9.72995e-08
9.63915e-08
9.5661e-08
9.50617e-08
9.46842e-08
9.43446e-08
9.4439e-08
9.40831e-08
9.49944e-08
9.34672e-08
9.69177e-08
9.01503e-08
1.02727e-07
8.60034e-08
9.39249e-05
9.27307e-05
9.21552e-05
9.09711e-05
8.90639e-05
8.65023e-05
8.3399e-05
7.94494e-05
7.41383e-05
6.67777e-05
5.69143e-05
4.39588e-05
2.76646e-05
9.04983e-06
1.06972e-05
2.49803e-05
3.20422e-05
3.24895e-05
2.97527e-05
2.68231e-05
2.46081e-05
2.27697e-05
2.09581e-05
1.91069e-05
1.72758e-05
1.5544e-05
1.39824e-05
1.26317e-05
1.14863e-05
1.05039e-05
9.63407e-06
8.84065e-06
8.10732e-06
7.43046e-06
6.81012e-06
6.24511e-06
5.73203e-06
5.26577e-06
4.83986e-06
4.44702e-06
4.08039e-06
3.7351e-06
3.40911e-06
3.10286e-06
2.81776e-06
2.55483e-06
2.31396e-06
2.09406e-06
1.89357e-06
1.71089e-06
1.54459e-06
1.39339e-06
1.25612e-06
1.1317e-06
1.01908e-06
9.17299e-07
8.25447e-07
7.42669e-07
6.68169e-07
6.01207e-07
5.41101e-07
4.87226e-07
4.39016e-07
3.95955e-07
3.57576e-07
3.23444e-07
2.93167e-07
2.66385e-07
2.42772e-07
2.2202e-07
2.03845e-07
1.87987e-07
1.742e-07
1.62248e-07
1.51914e-07
1.43014e-07
1.35387e-07
1.28888e-07
1.23389e-07
1.1876e-07
1.14877e-07
1.11634e-07
1.08929e-07
1.06682e-07
1.04826e-07
1.03299e-07
1.02054e-07
1.0104e-07
1.0024e-07
9.95908e-08
9.91604e-08
9.87408e-08
9.87067e-08
9.81934e-08
9.89261e-08
9.72421e-08
1.00546e-07
9.36015e-08
1.06019e-07
8.89034e-08
5.00707e-05
4.823e-05
4.66997e-05
4.5017e-05
4.28837e-05
4.01312e-05
3.6688e-05
3.24134e-05
2.70741e-05
2.04491e-05
1.27828e-05
7.39526e-06
1.28842e-05
2.18283e-05
2.85903e-05
3.14006e-05
3.07468e-05
2.84928e-05
2.62851e-05
2.45997e-05
2.31522e-05
2.16582e-05
2.00571e-05
1.83952e-05
1.67359e-05
1.51497e-05
1.37066e-05
1.24493e-05
1.13749e-05
1.04452e-05
9.61376e-06
8.84808e-06
8.13461e-06
7.4717e-06
6.86077e-06
6.30165e-06
5.79176e-06
5.32675e-06
4.90087e-06
4.5074e-06
4.13975e-06
3.79307e-06
3.46523e-06
3.1566e-06
2.86869e-06
2.60268e-06
2.35865e-06
2.13562e-06
1.93208e-06
1.74646e-06
1.57733e-06
1.42343e-06
1.28361e-06
1.15676e-06
1.04185e-06
9.37901e-07
8.44011e-07
7.59324e-07
6.83049e-07
6.1445e-07
5.52847e-07
4.97613e-07
4.48178e-07
4.04018e-07
3.64656e-07
3.29655e-07
2.9861e-07
2.71153e-07
2.4695e-07
2.25686e-07
2.07075e-07
1.90853e-07
1.76774e-07
1.64607e-07
1.54136e-07
1.4517e-07
1.37521e-07
1.31026e-07
1.25534e-07
1.20909e-07
1.17025e-07
1.13775e-07
1.11067e-07
1.08819e-07
1.06962e-07
1.05434e-07
1.04189e-07
1.03177e-07
1.02385e-07
1.0174e-07
1.01306e-07
1.00865e-07
1.00805e-07
1.00246e-07
1.00963e-07
9.92176e-08
1.02554e-07
9.54447e-08
1.08018e-07
9.05552e-08
5.47259e-06
4.61315e-06
4.07678e-06
3.47262e-06
2.92306e-06
3.35819e-06
5.13556e-06
7.74402e-06
1.09253e-05
1.45749e-05
1.85222e-05
2.24126e-05
2.56782e-05
2.76891e-05
2.81308e-05
2.73347e-05
2.60735e-05
2.49466e-05
2.40153e-05
2.30502e-05
2.19057e-05
2.05949e-05
1.91785e-05
1.77005e-05
1.62043e-05
1.47553e-05
1.34252e-05
1.22586e-05
1.12546e-05
1.03778e-05
9.58561e-06
8.84871e-06
8.15617e-06
7.50824e-06
6.90769e-06
6.35531e-06
5.84934e-06
5.38617e-06
4.96074e-06
4.56693e-06
4.19849e-06
3.85061e-06
3.52109e-06
3.21023e-06
2.91964e-06
2.65064e-06
2.40352e-06
2.1774e-06
1.97084e-06
1.78229e-06
1.61032e-06
1.4537e-06
1.31127e-06
1.18195e-06
1.06471e-06
9.58584e-07
8.62651e-07
7.76066e-07
6.98033e-07
6.27814e-07
5.64727e-07
5.08142e-07
4.57484e-07
4.12227e-07
3.71885e-07
3.36018e-07
3.04215e-07
2.76104e-07
2.51342e-07
2.2961e-07
2.10613e-07
1.9408e-07
1.79759e-07
1.6741e-07
1.56813e-07
1.4776e-07
1.40064e-07
1.33553e-07
1.28068e-07
1.23466e-07
1.19618e-07
1.16412e-07
1.13751e-07
1.11551e-07
1.09744e-07
1.08266e-07
1.07071e-07
1.06105e-07
1.05353e-07
1.0474e-07
1.04334e-07
1.03913e-07
1.03883e-07
1.03336e-07
1.04089e-07
1.02316e-07
1.0571e-07
9.84461e-08
1.11256e-07
9.34534e-08
1.12649e-05
1.10178e-05
1.04995e-05
1.00675e-05
1.01302e-05
1.08498e-05
1.21385e-05
1.38226e-05
1.57259e-05
1.76754e-05
1.95052e-05
2.10502e-05
2.21726e-05
2.28214e-05
2.31014e-05
2.31957e-05
2.31761e-05
2.29601e-05
2.24534e-05
2.1664e-05
2.06742e-05
1.95551e-05
1.8335e-05
1.70305e-05
1.56825e-05
1.43608e-05
1.31387e-05
1.20606e-05
1.11262e-05
1.03026e-05
9.55023e-06
8.84302e-06
8.1724e-06
7.54043e-06
6.95116e-06
6.40637e-06
5.90503e-06
5.44426e-06
5.0197e-06
4.62585e-06
4.25683e-06
3.90793e-06
3.57689e-06
3.26396e-06
2.97077e-06
2.69887e-06
2.44868e-06
2.2195e-06
2.00993e-06
1.81844e-06
1.64363e-06
1.48427e-06
1.33923e-06
1.20742e-06
1.08783e-06
9.79482e-07
8.81476e-07
7.92957e-07
7.13134e-07
6.41265e-07
5.76666e-07
5.18705e-07
4.66801e-07
4.20422e-07
3.79076e-07
3.42315e-07
3.09724e-07
2.80923e-07
2.55564e-07
2.33322e-07
2.13898e-07
1.97011e-07
1.82404e-07
1.69827e-07
1.59057e-07
1.49881e-07
1.42105e-07
1.35546e-07
1.30041e-07
1.25439e-07
1.21606e-07
1.18426e-07
1.15799e-07
1.13638e-07
1.11869e-07
1.10426e-07
1.09262e-07
1.08323e-07
1.07597e-07
1.07008e-07
1.06627e-07
1.06221e-07
1.06208e-07
1.0565e-07
1.06416e-07
1.04585e-07
1.08026e-07
1.00571e-07
1.13627e-07
9.54238e-08
7.94381e-06
7.5854e-06
7.08259e-06
6.71657e-06
6.82446e-06
7.52486e-06
8.70889e-06
1.02081e-05
1.18807e-05
1.36145e-05
1.53171e-05
1.69087e-05
1.83301e-05
1.9545e-05
2.05088e-05
2.11529e-05
2.14223e-05
2.13224e-05
2.09191e-05
2.02957e-05
1.95107e-05
1.85885e-05
1.75394e-05
1.63839e-05
1.51697e-05
1.39676e-05
1.28491e-05
1.18568e-05
1.09908e-05
1.02202e-05
9.50818e-06
8.83139e-06
8.18355e-06
7.56839e-06
6.99127e-06
6.45483e-06
5.95881e-06
5.50098e-06
5.07772e-06
4.68411e-06
4.31472e-06
3.96497e-06
3.63256e-06
3.31768e-06
3.02203e-06
2.74729e-06
2.49409e-06
2.26187e-06
2.0493e-06
1.85489e-06
1.67723e-06
1.51512e-06
1.36743e-06
1.23311e-06
1.11115e-06
1.00056e-06
9.00457e-07
8.09979e-07
7.28334e-07
6.54786e-07
5.88646e-07
5.29281e-07
4.76106e-07
4.28583e-07
3.86217e-07
3.48551e-07
3.15166e-07
2.85679e-07
2.59734e-07
2.37e-07
2.17171e-07
1.99961e-07
1.85102e-07
1.72341e-07
1.61443e-07
1.5219e-07
1.44374e-07
1.3781e-07
1.32323e-07
1.27758e-07
1.23976e-07
1.20855e-07
1.18291e-07
1.16195e-07
1.14489e-07
1.13108e-07
1.12001e-07
1.11116e-07
1.10437e-07
1.09887e-07
1.09543e-07
1.09165e-07
1.09185e-07
1.08638e-07
1.09436e-07
1.07567e-07
1.11064e-07
1.03433e-07
1.16748e-07
9.81525e-08
5.49806e-06
5.33661e-06
5.12967e-06
5.0891e-06
5.44943e-06
6.26769e-06
7.4459e-06
8.86282e-06
1.04236e-05
1.2052e-05
1.3681e-05
1.52446e-05
1.66705e-05
1.78805e-05
1.88071e-05
1.94162e-05
1.97121e-05
1.97247e-05
1.94944e-05
1.90593e-05
1.84491e-05
1.76836e-05
1.67779e-05
1.57566e-05
1.46668e-05
1.35775e-05
1.25578e-05
1.16485e-05
1.08495e-05
1.01315e-05
9.4601e-06
8.81428e-06
8.18991e-06
7.59237e-06
7.02816e-06
6.50081e-06
6.01075e-06
5.55642e-06
5.13485e-06
4.74177e-06
4.3722e-06
4.02177e-06
3.68813e-06
3.37143e-06
3.07341e-06
2.79591e-06
2.53975e-06
2.30452e-06
2.08897e-06
1.89163e-06
1.71111e-06
1.54623e-06
1.39589e-06
1.25904e-06
1.13467e-06
1.02182e-06
9.19593e-07
8.27127e-07
7.43637e-07
6.68383e-07
6.00678e-07
5.39885e-07
4.85416e-07
4.36727e-07
3.93316e-07
3.54723e-07
3.20523e-07
2.90327e-07
2.63773e-07
2.40525e-07
2.2027e-07
2.02715e-07
1.87585e-07
1.74621e-07
1.63578e-07
1.54231e-07
1.46368e-07
1.39791e-07
1.34319e-07
1.29788e-07
1.26054e-07
1.22991e-07
1.20491e-07
1.18459e-07
1.16816e-07
1.15493e-07
1.14438e-07
1.13599e-07
1.12963e-07
1.12452e-07
1.12145e-07
1.11792e-07
1.11836e-07
1.11288e-07
1.12106e-07
1.10187e-07
1.1374e-07
1.05916e-07
1.195e-07
1.0047e-07
4.61828e-06
4.57228e-06
4.53463e-06
4.65257e-06
5.07829e-06
5.84826e-06
6.90083e-06
8.15432e-06
9.53766e-06
1.09877e-05
1.24442e-05
1.38461e-05
1.51319e-05
1.62461e-05
1.71446e-05
1.77969e-05
1.81891e-05
1.83269e-05
1.82322e-05
1.79344e-05
1.74601e-05
1.68276e-05
1.60503e-05
1.5151e-05
1.41758e-05
1.3192e-05
1.22661e-05
1.14369e-05
1.07035e-05
1.00376e-05
9.40667e-06
8.7922e-06
8.19189e-06
7.61263e-06
7.06204e-06
6.54446e-06
6.06097e-06
5.61063e-06
5.19114e-06
4.79887e-06
4.42931e-06
4.07833e-06
3.7436e-06
3.4252e-06
3.12492e-06
2.84472e-06
2.58565e-06
2.34743e-06
2.1289e-06
1.92864e-06
1.74526e-06
1.5776e-06
1.42458e-06
1.28518e-06
1.15839e-06
1.04325e-06
9.38866e-07
8.44384e-07
7.59018e-07
6.82028e-07
6.12729e-07
5.5048e-07
4.94689e-07
4.44808e-07
4.00331e-07
3.60793e-07
3.25765e-07
2.94851e-07
2.67687e-07
2.43928e-07
2.23255e-07
2.0537e-07
1.89989e-07
1.76846e-07
1.65689e-07
1.56282e-07
1.48403e-07
1.41845e-07
1.36418e-07
1.31951e-07
1.28294e-07
1.25314e-07
1.22899e-07
1.20951e-07
1.19389e-07
1.18142e-07
1.17159e-07
1.16384e-07
1.15806e-07
1.15343e-07
1.15079e-07
1.14759e-07
1.1484e-07
1.14304e-07
1.15157e-07
1.13198e-07
1.16815e-07
1.088e-07
1.22666e-07
1.03192e-07
4.08369e-06
4.10936e-06
4.1706e-06
4.36944e-06
4.8075e-06
5.51346e-06
6.44967e-06
7.55809e-06
8.78299e-06
1.00728e-05
1.1378e-05
1.26496e-05
1.38373e-05
1.48912e-05
1.57666e-05
1.64307e-05
1.68683e-05
1.70809e-05
1.70829e-05
1.68951e-05
1.65366e-05
1.60203e-05
1.53566e-05
1.45671e-05
1.36972e-05
1.28122e-05
1.19757e-05
1.12236e-05
1.0554e-05
9.93916e-06
9.34863e-06
8.7657e-06
8.18991e-06
7.62951e-06
7.09316e-06
6.58596e-06
6.1096e-06
5.66373e-06
5.24669e-06
4.85548e-06
4.48611e-06
4.1347e-06
3.79899e-06
3.47901e-06
3.17654e-06
2.89373e-06
2.63178e-06
2.39059e-06
2.1691e-06
1.96592e-06
1.77968e-06
1.60923e-06
1.45352e-06
1.31153e-06
1.18229e-06
1.06484e-06
9.58269e-07
8.61742e-07
7.7447e-07
6.95718e-07
6.24796e-07
5.61063e-07
5.03924e-07
4.52825e-07
4.07259e-07
3.66755e-07
3.3088e-07
2.99233e-07
2.71441e-07
2.47157e-07
2.26055e-07
2.0783e-07
1.92193e-07
1.78868e-07
1.67595e-07
1.58128e-07
1.50236e-07
1.43702e-07
1.38328e-07
1.33934e-07
1.3036e-07
1.27471e-07
1.25151e-07
1.23296e-07
1.21822e-07
1.20656e-07
1.19746e-07
1.19036e-07
1.18518e-07
1.18107e-07
1.17891e-07
1.17606e-07
1.17721e-07
1.17191e-07
1.18071e-07
1.16066e-07
1.19751e-07
1.11536e-07
1.25698e-07
1.0575e-07
3.69227e-06
3.77602e-06
3.90983e-06
4.16353e-06
4.60419e-06
5.25346e-06
6.08907e-06
7.07139e-06
8.15892e-06
9.31067e-06
1.04853e-05
1.16401e-05
1.27308e-05
1.37144e-05
1.45525e-05
1.52153e-05
1.56844e-05
1.5955e-05
1.60342e-05
1.59366e-05
1.56755e-05
1.52591e-05
1.46954e-05
1.40051e-05
1.32322e-05
1.24398e-05
1.1688e-05
1.10098e-05
1.0402e-05
9.83734e-06
9.28677e-06
8.73543e-06
8.18448e-06
7.64341e-06
7.12183e-06
6.62555e-06
6.15682e-06
5.71586e-06
5.3016e-06
4.91169e-06
4.54266e-06
4.19094e-06
3.85433e-06
3.53285e-06
3.2283e-06
2.94293e-06
2.67814e-06
2.434e-06
2.20956e-06
2.00346e-06
1.81435e-06
1.6411e-06
1.48268e-06
1.33809e-06
1.20637e-06
1.08657e-06
9.7779e-07
8.79188e-07
7.89981e-07
7.09435e-07
6.3686e-07
5.71613e-07
5.13096e-07
4.60753e-07
4.14073e-07
3.72583e-07
3.35844e-07
3.03451e-07
2.75025e-07
2.50214e-07
2.28686e-07
2.1013e-07
1.9425e-07
1.80761e-07
1.69396e-07
1.59896e-07
1.52019e-07
1.45539e-07
1.40245e-07
1.3595e-07
1.32487e-07
1.29713e-07
1.27506e-07
1.25761e-07
1.24392e-07
1.23323e-07
1.22502e-07
1.21872e-07
1.21424e-07
1.21073e-07
1.20911e-07
1.20666e-07
1.20822e-07
1.20309e-07
1.21228e-07
1.19184e-07
1.22944e-07
1.14525e-07
1.28997e-07
1.08557e-07
3.4146e-06
3.54121e-06
3.72257e-06
4.00588e-06
4.43635e-06
5.0318e-06
5.7809e-06
6.65717e-06
7.62911e-06
8.66315e-06
9.72411e-06
1.07754e-05
1.17792e-05
1.26978e-05
1.34964e-05
1.41464e-05
1.46293e-05
1.4938e-05
1.50757e-05
1.5051e-05
1.48716e-05
1.45414e-05
1.40661e-05
1.34653e-05
1.27818e-05
1.20761e-05
1.14045e-05
1.0797e-05
1.02489e-05
9.73313e-06
9.22193e-06
8.70207e-06