/*--------------------------------*- C++ -*----------------------------------*\
| =========                 |                                                 |
| \\      /  F ield         | OpenFOAM: The Open Source CFD Toolbox           |
|  \\    /   O peration     | Version:  2.1.1                                 |
|   \\  /    A nd           | Web:      www.OpenFOAM.org                      |
|    \\/     M anipulation  |                                                 |
\*---------------------------------------------------------------------------*/
FoamFile
{
    version     2.0;
    format      ascii;
    class       volScalarField;
    location    "0.02";
    object      p;
}
// * * * * * * * * * * * * * * * * * * * * * * * * * * * * * * * * * * * * * //

dimensions      [0 2 -2 0 0 0 0];

internalField   nonuniform List<scalar> 
6820
(
10.0939
-7.74433
-10.76
-10.9554
-11.1377
-11.0753
-11.0308
-11.0572
-11.1198
-11.2034
-11.2996
-11.403
-11.5113
-11.6233
-11.7385
-11.8567
-11.9774
-12.1013
-12.2277
-12.3571
-12.4892
-12.6238
-12.7614
-12.9022
-13.0465
-13.1948
-13.3475
-13.5051
-13.6693
-13.8379
-14.0231
-14.1929
-14.4554
3.41414
-7.5617
-10.4472
-10.7559
-11.0183
-11.0523
-11.0447
-11.0824
-11.1469
-11.2276
-11.3199
-11.4197
-11.525
-11.6346
-11.7481
-11.8649
-11.9849
-12.1075
-12.2333
-12.3626
-12.4944
-12.6286
-12.7659
-12.9065
-13.0505
-13.1985
-13.3509
-13.5081
-13.6713
-13.8397
-14.0208
-14.1973
-14.4382
0.70165
-6.12879
-9.42356
-10.1902
-10.6684
-10.8773
-10.9486
-11.019
-11.1028
-11.1958
-11.2966
-11.4028
-11.5129
-11.6261
-11.742
-11.8603
-11.9812
-12.1046
-12.2307
-12.3591
-12.4908
-12.6246
-12.7615
-12.9013
-13.0442
-13.1907
-13.3412
-13.4959
-13.6555
-13.8183
-13.9863
-14.1407
-14.2798
-1.28167
-5.89916
-8.99853
-9.86564
-10.347
-10.6343
-10.7753
-10.8894
-11.0038
-11.1168
-11.2301
-11.3445
-11.4604
-11.5777
-11.6968
-11.8177
-11.9404
-12.0649
-12.1916
-12.3201
-12.4514
-12.5828
-12.7181
-12.8561
-12.9968
-13.1404
-13.287
-13.4365
-13.5886
-13.741
-13.8919
-14.0268
-14.1346
-2.91483
-5.99705
-8.60366
-9.51446
-10.0309
-10.3967
-10.6069
-10.7595
-10.8972
-11.0256
-11.149
-11.2708
-11.392
-11.5129
-11.6343
-11.7565
-11.8797
-12.0042
-12.1301
-12.2572
-12.385
-12.5165
-12.6485
-12.7825
-12.9186
-13.0566
-13.1965
-13.3378
-13.4797
-13.6197
-13.7546
-13.8746
-13.9706
-4.13479
-6.1752
-8.34963
-9.30072
-9.83579
-10.2282
-10.4727
-10.6473
-10.8003
-10.9404
-11.0722
-11.1998
-11.3251
-11.4491
-11.5723
-11.6953
-11.8185
-11.9423
-12.0668
-12.1925
-12.3198
-12.4488
-12.5781
-12.7086
-12.8405
-12.9737
-13.1079
-13.2425
-13.3765
-13.5075
-13.6325
-13.7455
-13.841
-5.08246
-6.45848
-8.22875
-9.14207
-9.66422
-10.0642
-10.3381
-10.5375
-10.7076
-10.8602
-11.0007
-11.1343
-11.2637
-11.3904
-11.5153
-11.6393
-11.7628
-11.8864
-12.0102
-12.1346
-12.2596
-12.3854
-12.5115
-12.6384
-12.7661
-12.8944
-13.0231
-13.1514
-13.2784
-13.4021
-13.5204
-13.6294
-13.7263
-5.82502
-6.76112
-8.1737
-9.02197
-9.53209
-9.93306
-10.2251
-10.4409
-10.6221
-10.7831
-10.9301
-11.0684
-11.2012
-11.3302
-11.4567
-11.5815
-11.7051
-11.828
-11.9506
-12.0731
-12.1958
-12.3189
-12.4422
-12.5657
-12.6894
-12.8133
-12.937
-13.0598
-13.181
-13.2993
-13.413
-13.5201
-13.6196
-6.41343
-7.06085
-8.17965
-8.94723
-9.43437
-9.82303
-10.1207
-10.3472
-10.5374
-10.7062
-10.8595
-11.0026
-11.1388
-11.2703
-11.3982
-11.5237
-11.6474
-11.7698
-11.8914
-12.0124
-12.133
-12.2535
-12.3736
-12.4935
-12.6132
-12.7326
-12.8513
-12.9691
-13.0851
-13.1986
-13.3087
-13.4145
-13.5161
-6.88554
-7.34201
-8.22307
-8.90154
-9.35915
-9.73132
-10.0291
-10.2627
-10.4595
-10.6338
-10.7918
-10.9383
-11.0771
-11.2103
-11.3392
-11.4651
-11.5885
-11.7102
-11.8304
-11.9495
-12.0678
-12.1853
-12.3023
-12.4186
-12.5344
-12.6495
-12.7637
-12.8767
-12.9882
-13.0976
-13.2047
-13.3093
-13.4121
-7.26823
-7.5969
-8.29015
-8.88108
-9.30573
-9.65795
-9.94957
-10.1851
-10.3853
-10.5631
-10.7245
-10.874
-11.015
-11.1497
-11.2796
-11.4057
-11.5289
-11.6497
-11.7686
-11.8859
-12.0019
-12.1167
-12.2305
-12.3432
-12.455
-12.5659
-12.6756
-12.7841
-12.8911
-12.9966
-13.1006
-13.2034
-13.306
-7.58115
-7.82316
-8.37
-8.87895
-9.26814
-9.59822
-9.87993
-10.1142
-10.3158
-10.4958
-10.6596
-10.8112
-10.9537
-11.0895
-11.2199
-11.346
-11.4686
-11.5883
-11.7056
-11.8208
-11.9343
-12.0462
-12.1566
-12.2657
-12.3735
-12.48
-12.5853
-12.6893
-12.7921
-12.8936
-12.9942
-13.0945
-13.1956
-7.83863
-8.02086
-8.4545
-8.88983
-9.24329
-9.55063
-9.82001
-10.0502
-10.2509
-10.4314
-10.5963
-10.749
-10.8926
-11.029
-11.1596
-11.2854
-11.4073
-11.5258
-11.6415
-11.7546
-11.8655
-11.9744
-12.0815
-12.1869
-12.2907
-12.393
-12.4938
-12.5933
-12.6916
-12.7889
-12.8856
-12.9824
-13.0804
-8.05123
-8.19146
-8.53801
-8.90911
-9.22782
-9.51238
-9.76788
-9.99175
-10.1901
-10.3698
-10.5349
-10.6882
-10.8322
-10.9689
-11.0993
-11.2247
-11.3456
-11.4627
-11.5765
-11.6874
-11.7956
-11.9013
-12.0049
-12.1064
-12.2061
-12.3039
-12.4002
-12.495
-12.5885
-12.6812
-12.7734
-12.8658
-12.9594
-8.2268
-8.33696
-8.61661
-8.93286
-9.21889
-9.48137
-9.72244
-9.93863
-10.1332
-10.311
-10.4754
-10.6285
-10.7725
-10.9089
-11.0389
-11.1635
-11.2832
-11.3988
-11.5106
-11.619
-11.7244
-11.8269
-11.9269
-12.0245
-12.1199
-12.2133
-12.3048
-12.3947
-12.4833
-12.5708
-12.6579
-12.745
-12.8331
-8.37121
-8.45944
-8.68769
-8.95789
-9.21398
-9.45555
-9.68219
-9.88982
-10.0796
-10.2548
-10.4177
-10.5701
-10.7135
-10.8494
-10.9787
-11.1022
-11.2206
-11.3344
-11.4441
-11.5499
-11.6523
-11.7515
-11.8477
-11.9412
-12.0322
-12.1208
-12.2074
-12.2921
-12.3753
-12.4573
-12.5386
-12.6196
-12.7011
-8.48888
-8.56086
-8.74956
-8.98158
-9.21088
-9.43307
-9.64579
-9.84454
-10.029
-10.2009
-10.3618
-10.5129
-10.6555
-10.7905
-10.9188
-11.041
-11.1579
-11.2697
-11.3771
-11.4802
-11.5795
-11.6751
-11.7675
-11.8567
-11.9431
-12.0269
-12.1083
-12.1876
-12.265
-12.341
-12.416
-12.4902
-12.5643
-8.58315
-8.64293
-8.80113
-9.00186
-9.20767
-9.41227
-9.61193
-9.80186
-9.98063
-10.1489
-10.3074
-10.457
-10.5983
-10.7321
-10.8592
-10.98
-11.0951
-11.2049
-11.3098
-11.4101
-11.5061
-11.5981
-11.6864
-11.7712
-11.8528
-11.9315
-12.0074
-12.081
-12.1523
-12.2219
-12.2899
-12.3568
-12.4229
-8.65651
-8.70706
-8.84172
-9.01706
-9.20268
-9.39165
-9.57939
-9.76092
-9.93406
-10.0986
-10.2545
-10.4023
-10.5421
-10.6747
-10.8004
-10.9196
-11.0328
-11.1404
-11.2427
-11.34
-11.4326
-11.5208
-11.6049
-11.6852
-11.7618
-11.8352
-11.9055
-11.973
-12.038
-12.1007
-12.1614
-12.2205
-12.2781
-8.71082
-8.75434
-8.87086
-9.02583
-9.19445
-9.36985
-9.547
-9.72083
-9.88863
-10.0494
-10.2028
-10.3486
-10.487
-10.6181
-10.7423
-10.8598
-10.971
-11.0762
-11.1758
-11.2699
-11.359
-11.4432
-11.523
-11.5985
-11.67
-11.7378
-11.8022
-11.8634
-11.9217
-11.9773
-12.0304
-12.0813
-12.1302
-8.74737
-8.78555
-8.8882
-9.02707
-9.18171
-9.34566
-9.51373
-9.68079
-9.8438
-10.0012
-10.1522
-10.2962
-10.4331
-10.5628
-10.6854
-10.8012
-10.9104
-11.0132
-11.11
-11.2009
-11.2863
-11.3665
-11.4418
-11.5124
-11.5787
-11.6408
-11.6991
-11.7538
-11.8051
-11.8533
-11.8986
-11.9412
-11.9811
-8.76703
-8.80121
-8.89338
-9.01981
-9.16331
-9.31796
-9.47855
-9.63997
-9.79892
-9.95348
-10.1024
-10.2448
-10.3802
-10.5085
-10.6296
-10.7436
-10.8507
-10.951
-11.0448
-11.1324
-11.214
-11.29
-11.3606
-11.4261
-11.4869
-11.5431
-11.595
-11.643
-11.6872
-11.7279
-11.7652
-11.7993
-11.8302
-8.77023
-8.80149
-8.88599
-9.00318
-9.13822
-9.28576
-9.44063
-9.59777
-9.75368
-9.90612
-10.0535
-10.1947
-10.3291
-10.4563
-10.5761
-10.6885
-10.7935
-10.8914
-10.9824
-11.0666
-11.1445
-11.2162
-11.2821
-11.3424
-11.3976
-11.4478
-11.4933
-11.5344
-11.5714
-11.6044
-11.6336
-11.6592
-11.6811
-8.75706
-8.78631
-8.86553
-8.9763
-9.10544
-9.24804
-9.399
-9.55328
-9.70722
-9.85833
-10.0048
-10.1452
-10.2788
-10.405
-10.5236
-10.6343
-10.7374
-10.8327
-10.9207
-11.0015
-11.0753
-11.1426
-11.2036
-11.2586
-11.3079
-11.3519
-11.3908
-11.4249
-11.4545
-11.4797
-11.5008
-11.5179
-11.531
-8.7272
-8.75525
-8.83132
-8.93831
-9.0641
-9.20409
-9.35324
-9.50647
-9.65998
-9.81107
-9.95767
-10.0983
-10.2318
-10.3577
-10.4756
-10.5851
-10.6864
-10.7795
-10.8647
-10.9421
-11.0121
-11.0749
-11.131
-11.1806
-11.2241
-11.2619
-11.2941
-11.3212
-11.3433
-11.3608
-11.3737
-11.3824
-11.3867
-8.67993
-8.70752
-8.78242
-8.88811
-9.013
-9.15261
-9.30189
-9.45567
-9.61001
-9.76204
-9.90951
-10.0508
-10.1847
-10.3105
-10.4277
-10.5361
-10.6356
-10.7264
-10.8086
-10.8825
-10.9485
-11.0067
-11.0577
-11.1017
-11.1392
-11.1704
-11.1958
-11.2156
-11.2302
-11.2398
-11.2446
-11.2449
-11.2409
-8.61409
-8.64198
-8.71774
-8.82483
-8.95166
-9.09376
-9.24597
-9.4029
-9.56043
-9.71548
-9.86563
-10.0091
-10.1446
-10.2713
-10.3888
-10.4967
-10.595
-10.6839
-10.7635
-10.8341
-10.8961
-10.9499
-10.9958
-11.0343
-11.0657
-11.0905
-11.1091
-11.1217
-11.1287
-11.1305
-11.1273
-11.1193
-11.1067
-8.52793
-8.55687
-8.63548
-8.74645
-8.87764
-9.02441
-9.1814
-9.34301
-9.50492
-9.66393
-9.81749
-9.96371
-10.1013
-10.2292
-10.3472
-10.4547
-10.5519
-10.6388
-10.7157
-10.783
-10.8409
-10.8899
-10.9305
-10.9632
-10.9883
-11.0063
-11.0177
-11.0229
-11.0222
-11.016
-11.0047
-10.9885
-10.9678
-8.41913
-8.45015
-8.53438
-8.653
-8.7928
-8.94871
-9.11492
-9.28534
-9.45532
-9.62144
-9.78105
-9.93218
-10.0735
-10.2041
-10.3235
-10.4315
-10.5281
-10.6135
-10.6881
-10.7522
-10.8062
-10.8506
-10.8861
-10.9129
-10.9318
-10.9432
-10.9475
-10.9453
-10.9369
-10.9228
-10.9034
-10.879
-10.8498
-8.28425
-8.31809
-8.41004
-8.53859
-8.68877
-8.85522
-9.03183
-9.21212
-9.3912
-9.56546
-9.73212
-9.8891
-10.035
-10.1689
-10.2905
-10.3994
-10.4958
-10.5799
-10.6521
-10.7129
-10.7629
-10.8025
-10.8323
-10.853
-10.8651
-10.8693
-10.866
-10.8558
-10.8394
-10.817
-10.7893
-10.7567
-10.7196
-8.11927
-8.15839
-8.26396
-8.41033
-8.57945
-8.76485
-8.95946
-9.15598
-9.34919
-9.53545
-9.712
-9.87689
-10.0288
-10.1671
-10.2915
-10.4018
-10.4983
-10.5813
-10.6515
-10.7092
-10.7552
-10.7901
-10.8145
-10.8291
-10.8347
-10.8318
-10.821
-10.8031
-10.7785
-10.7479
-10.7117
-10.6705
-10.6245
-7.91686
-7.9607
-8.08022
-8.24375
-8.43045
-8.63419
-8.84742
-9.06183
-9.27154
-9.47256
-9.66188
-9.83739
-9.99782
-10.1425
-10.2712
-10.3841
-10.4815
-10.564
-10.6322
-10.6867
-10.7285
-10.7581
-10.7765
-10.7844
-10.7825
-10.7717
-10.7525
-10.7259
-10.6924
-10.6528
-10.6077
-10.5579
-10.5039
-7.67199
-7.73048
-7.8828
-8.08442
-8.30696
-8.54316
-8.78479
-9.02313
-9.25273
-9.47013
-9.67271
-9.85874
-10.0273
-10.1779
-10.3107
-10.4259
-10.5241
-10.6059
-10.6721
-10.7236
-10.7612
-10.7858
-10.7983
-10.7995
-10.7904
-10.7716
-10.7442
-10.7087
-10.6661
-10.6171
-10.5624
-10.5026
-10.4385
-7.36254
-7.42351
-7.59595
-7.82439
-8.0777
-8.34904
-8.62664
-8.89858
-9.15823
-9.40163
-9.62588
-9.82931
-10.0113
-10.1719
-10.3114
-10.4307
-10.5307
-10.6122
-10.6765
-10.7246
-10.7576
-10.7764
-10.7822
-10.7759
-10.7584
-10.7307
-10.6936
-10.6482
-10.5953
-10.536
-10.4711
-10.4017
-10.3287
-6.99891
-7.11526
-7.37349
-7.67355
-7.97851
-8.29108
-8.60231
-8.9014
-9.18363
-9.4461
-9.68633
-9.90293
-10.0955
-10.2641
-10.4094
-10.5322
-10.6336
-10.7148
-10.777
-10.8215
-10.8496
-10.8623
-10.861
-10.8466
-10.8202
-10.7829
-10.7355
-10.6792
-10.6148
-10.5434
-10.4659
-10.3834
-10.2971
-6.46846
-6.55876
-6.85495
-7.22316
-7.60943
-8.00609
-8.39241
-8.75431
-9.0879
-9.39098
-9.6622
-9.90181
-10.1109
-10.291
-10.4437
-10.5706
-10.6736
-10.7544
-10.8145
-10.8554
-10.8786
-10.8854
-10.8771
-10.8549
-10.8197
-10.7726
-10.7146
-10.6468
-10.5703
-10.4862
-10.3961
-10.3016
-10.2043
-5.97313
-6.29495
-6.7613
-7.17782
-7.5847
-8.00882
-8.42164
-8.80937
-9.1701
-9.49981
-9.7952
-10.0555
-10.2813
-10.4738
-10.6348
-10.7662
-10.8703
-10.9492
-11.0049
-11.0396
-11.0548
-11.0523
-11.0337
-11.0001
-10.9529
-10.893
-10.8214
-10.7389
-10.6462
-10.5443
-10.4342
-10.3181
-10.1983
-4.67132
-4.99287
-5.76492
-6.4628
-7.09665
-7.69938
-8.23873
-8.71418
-9.13578
-9.50704
-9.83099
-10.1115
-10.352
-10.5556
-10.7249
-10.8626
-10.9712
-11.0527
-11.1095
-11.1435
-11.1565
-11.1502
-11.1261
-11.0854
-11.0294
-10.9588
-10.8745
-10.777
-10.6671
-10.5457
-10.4139
-10.2751
-10.1283
-4.65964
-5.40483
-6.00994
-6.47774
-7.07845
-7.71227
-8.30225
-8.85052
-9.35042
-9.79097
-10.1707
-10.4928
-10.761
-10.9796
-11.1536
-11.2877
-11.3865
-11.4538
-11.4934
-11.5082
-11.5009
-11.4739
-11.4292
-11.3685
-11.2931
-11.204
-11.1014
-10.9845
-10.8506
-10.6974
-10.52
-10.3273
-10.1043
1.58749
-3.02071
-4.80646
-5.65913
-6.66327
-7.54103
-8.24247
-8.84995
-9.37936
-9.83061
-10.2122
-10.5319
-10.7956
-11.0092
-11.1782
-11.3075
-11.4018
-11.4648
-11.5003
-11.5112
-11.5001
-11.4692
-11.4206
-11.3558
-11.2762
-11.1828
-11.0761
-10.9562
-10.8232
-10.6759
-10.5192
-10.348
-10.1733
-14.3749
-14.4427
-13.807
-13.3069
-13.3029
-14.0101
-15.3244
-17.1822
-19.5392
-22.3186
-25.3745
-28.4521
-31.2074
-33.2437
-34.1539
-33.6899
-31.8568
-28.9381
-25.364
-21.5303
-17.7192
-14.1223
-10.8712
-8.03842
-5.63827
-3.64274
-2.00378
-0.668925
0.410541
1.27677
1.96543
2.50676
2.92643
3.24612
3.48391
3.65479
3.7711
3.84301
3.87888
3.88567
3.86916
3.8342
3.78485
3.72453
3.65606
3.58173
3.50342
3.42262
3.3405
3.25798
3.17578
3.09441
3.01427
2.93563
2.85864
2.78341
2.70997
2.63831
2.56838
2.5001
2.43338
2.3681
2.30415
2.2414
2.17973
2.119
2.05911
1.99992
1.94133
1.88323
1.8255
1.76806
1.71082
1.65368
1.59658
1.53943
1.48216
1.42472
1.36704
1.30907
1.25077
1.19208
1.13297
1.07339
1.01332
0.952705
0.891531
0.829768
0.767384
0.704367
0.640666
0.57631
0.511166
0.445449
0.378622
0.311771
0.242514
0.175846
0.101193
0.0409808
-14.462
-14.356
-13.788
-13.4436
-13.5797
-14.3013
-15.5581
-17.3212
-19.5407
-22.1085
-24.8482
-27.5303
-29.8346
-31.4154
-31.9516
-31.2916
-29.5185
-26.8912
-23.7293
-20.3207
-16.8915
-13.6146
-10.616
-7.97004
-5.69918
-3.78761
-2.19924
-0.891533
0.176708
1.04222
1.73692
2.28844
2.72069
3.05414
3.30611
3.49105
3.621
3.70592
3.75408
3.77237
3.76655
3.74147
3.70122
3.64923
3.58836
3.52096
3.44894
3.37384
3.29688
3.21902
3.14102
3.06343
2.98669
2.91109
2.83684
2.76405
2.69281
2.6231
2.55492
2.4882
2.42287
2.35882
2.29597
2.2342
2.17339
2.11343
2.05422
1.99563
1.93757
1.87994
1.82263
1.76555
1.70863
1.65178
1.59492
1.53799
1.48091
1.42364
1.3661
1.30826
1.25007
1.19148
1.13245
1.07294
1.01293
0.95237
0.891241
0.829516
0.767167
0.704179
0.6405
0.576165
0.511036
0.445338
0.378517
0.311688
0.242427
0.175802
0.101126
0.0409848
-14.2883
-14.2428
-13.9194
-13.7072
-13.8742
-14.5456
-15.7125
-17.3311
-19.332
-21.603
-23.9835
-26.2476
-28.1091
-29.2897
-29.5768
-28.8967
-27.3187
-25.0235
-22.245
-19.2111
-16.1188
-13.1294
-10.363
-7.89291
-5.74714
-3.91916
-2.38293
-1.10468
-0.0501088
0.812448
1.51127
2.07145
2.5151
2.86144
3.12694
3.3255
3.46879
3.56654
3.62689
3.65665
3.66155
3.64641
3.61534
3.57179
3.51864
3.4583
3.3927
3.32342
3.25174
3.17866
3.10497
3.03127
2.95803
2.88558
2.81415
2.7439
2.67492
2.60725
2.54088
2.47578
2.41189
2.34913
2.28743
2.22667
2.16677
2.10762
2.04911
1.99116
1.93366
1.87652
1.81964
1.76295
1.70637
1.64981
1.59322
1.53651
1.47964
1.42254
1.36516
1.30745
1.24937
1.19088
1.13194
1.07251
1.01256
0.952058
0.890978
0.829294
0.76698
0.704022
0.640369
0.576056
0.510943
0.445263
0.378451
0.311644
0.242381
0.175795
0.101103
0.0410182
-14.1807
-14.1771
-13.9964
-13.9023
-14.1342
-14.7858
-15.8459
-17.2729
-19.0046
-20.9391
-22.9261
-24.774
-26.2633
-27.1864
-27.3801
-26.767
-25.3849
-23.369
-20.905
-18.1869
-15.3905
-12.6618
-10.1106
-7.80691
-5.78203
-4.037
-2.55426
-1.30768
-0.269179
0.588179
1.2892
1.85645
2.31024
2.66851
2.94683
3.15849
3.31476
3.42511
3.49751
3.53867
3.55427
3.54911
3.52728
3.49225
3.44694
3.39375
3.33469
3.27136
3.20509
3.1369
3.06764
2.99794
2.9283
2.85909
2.79058
2.72295
2.65632
2.59075
2.52626
2.46284
2.40045
2.33903
2.27851
2.21881
2.15985
2.10154
2.04378
1.98648
1.92956
1.87293
1.81651
1.76022
1.70399
1.64774
1.59142
1.53495
1.47828
1.42136
1.36414
1.30657
1.24862
1.19023
1.13138
1.07203
1.01215
0.951705
0.890676
0.829036
0.766758
0.703831
0.640204
0.575915
0.51082
0.445158
0.378356
0.31157
0.242307
0.175756
0.101055
0.0410198
-14.0338
-14.0639
-14.0174
-14.0523
-14.3363
-14.9425
-15.8743
-17.1047
-18.5803
-20.2119
-21.8729
-23.4065
-24.6315
-25.3691
-25.4799
-24.9025
-23.6654
-21.8728
-19.6748
-17.2346
-14.7045
-12.2133
-9.86082
-7.71349
-5.80486
-4.1417
-2.71334
-1.5003
-0.480054
0.369971
1.07128
1.644
2.10663
2.47581
2.76617
2.99036
3.15919
3.28185
3.36611
3.41857
3.44483
3.44966
3.43712
3.41068
3.37328
3.32736
3.27494
3.21768
3.15692
3.09374
3.02901
2.96342
2.89749
2.83162
2.76611
2.70118
2.63698
2.57358
2.51104
2.44936
2.38852
2.32849
2.26921
2.21062
2.15264
2.0952
2.03821
1.9816
1.92528
1.86919
1.81325
1.75737
1.70151
1.64559
1.58955
1.53333
1.47688
1.42016
1.3631
1.30568
1.24785
1.18957
1.13082
1.07155
1.01174
0.951358
0.890382
0.828788
0.766549
0.703655
0.640056
0.575791
0.510714
0.445072
0.378281
0.311516
0.242256
0.175738
0.101032
0.0410353
-13.9239
-13.9951
-14.0397
-14.1539
-14.4597
-15.0218
-15.8494
-16.92
-18.185
-19.5662
-20.9543
-22.2145
-23.1964
-23.7574
-23.7881
-23.236
-22.1179
-20.5141
-18.5464
-16.3512
-14.0588
-11.7829
-9.61361
-7.61323
-5.81619
-4.23348
-2.8601
-1.68222
-0.682243
0.158402
0.858129
1.4347
1.90482
2.28383
2.58539
2.82147
3.00239
3.13703
3.23293
3.29655
3.3334
3.34818
3.34495
3.32715
3.29774
3.25917
3.21349
3.16239
3.10725
3.04919
2.9891
2.92772
2.86559
2.80315
2.74074
2.6786
2.6169
2.55575
2.49522
2.43534
2.37612
2.31753
2.25954
2.20209
2.14512
2.08859
2.0324
1.9765
1.92082
1.86529
1.80984
1.7544
1.69892
1.64333
1.58759
1.53163
1.47541
1.41888
1.362
1.30473
1.24704
1.18887
1.13022
1.07104
1.0113
0.950984
0.890063
0.828517
0.766318
0.703458
0.639888
0.575648
0.510592
0.44497
0.378191
0.311447
0.242191
0.175702
0.100996
0.0410324
-13.8228
-13.9223
-14.0223
-14.1889
-14.5084
-15.0313
-15.7655
-16.6918
-17.7684
-18.9279
-20.0776
-21.105
-21.8872
-22.3067
-22.2723
-21.7393
-20.7198
-19.2772
-17.5098
-15.5305
-13.4509
-11.3704
-9.36982
-7.50721
-5.8169
-4.31289
-2.99471
-1.8533
-0.875399
-0.0460498
0.650276
1.22908
1.70534
2.09306
2.40493
2.65221
2.84471
2.99093
3.0982
3.17279
3.22011
3.2448
3.25087
3.24174
3.22037
3.18922
3.15037
3.10552
3.0561
3.00326
2.94792
2.89084
2.83261
2.7737
2.71447
2.65519
2.59607
2.53724
2.47879
2.42078
2.36323
2.30613
2.24947
2.19321
2.1373
2.0817
2.02636
1.9712
1.91617
1.86122
1.80628
1.7513
1.69622
1.64099
1.58555
1.52987
1.47389
1.41757
1.36087
1.30376
1.2462
1.18816
1.1296
1.07051
1.01085
0.950606
0.889743
0.828246
0.76609
0.703266
0.639727
0.575513
0.510478
0.444876
0.378111
0.311388
0.242138
0.175677
0.100974
0.0410353
-13.7273
-13.8499
-13.9884
-14.1883
-14.5093
-14.9897
-15.637
-16.4356
-17.3489
-18.3187
-19.2659
-20.0958
-20.7065
-21.0019
-20.9088
-20.3906
-19.455
-18.1509
-16.5575
-14.7684
-12.8787
-10.9752
-9.12997
-7.39631
-5.80779
-4.38045
-3.11736
-2.01345
-1.05922
-0.242948
0.448233
1.02769
1.50871
1.90399
2.22524
2.48297
2.68647
2.84385
2.96217
3.04752
3.10517
3.13968
3.15501
3.15456
3.14126
3.11758
3.08563
3.04712
3.00351
2.95597
2.90547
2.85279
2.79855
2.74325
2.68729
2.63097
2.5745
2.51806
2.46176
2.40568
2.34985
2.29429
2.23901
2.18398
2.12917
2.07455
2.02006
1.96568
1.91134
1.85699
1.80258
1.74807
1.69341
1.63854
1.58343
1.52803
1.47229
1.41619
1.35968
1.30273
1.24532
1.1874
1.12896
1.06996
1.01038
0.950206
0.889404
0.827959
0.765847
0.703061
0.639553
0.575368
0.510354
0.444774
0.378023
0.31132
0.242079
0.175642
0.100946
0.0410275
-13.6314
-13.7691
-13.9296
-14.1456
-14.4584
-14.8964
-15.4653
-16.1508
-16.9209
-17.7254
-18.4975
-19.1584
-19.6243
-19.8171
-19.6767
-19.1721
-18.308
-17.123
-15.681
-14.0599
-12.3402
-10.5972
-8.89473
-7.2815
-5.78976
-4.43679
-3.22837
-2.16269
-1.2335
-0.431934
0.252451
0.831011
1.31542
1.7171
2.04676
2.31417
2.52804
2.69611
2.82511
2.92095
2.98875
3.03298
3.05751
3.06571
3.06049
3.04433
3.01933
2.98724
2.94951
2.90737
2.86179
2.81359
2.76343
2.71184
2.65923
2.60593
2.55219
2.49821
2.44412
2.39002
2.33597
2.28201
2.22815
2.17439
2.12072
2.06711
2.01353
1.95994
1.90631
1.85259
1.79874
1.74472
1.69049
1.636
1.58122
1.52611
1.47064
1.41476
1.35845
1.30168
1.24441
1.18663
1.12829
1.0694
1.0099
0.949798
0.889059
0.827668
0.765602
0.702856
0.639381
0.575225
0.510234
0.444677
0.377942
0.311258
0.242027
0.175613
0.100927
0.0410217
-13.532
-13.6789
-13.8512
-14.0724
-14.3711
-14.7671
-15.2636
-15.848
-16.4924
-17.1539
-17.7763
-18.2938
-18.6374
-18.7431
-18.562
-18.0685
-17.2657
-16.1837
-14.8743
-13.4016
-11.8339
-10.2361
-8.66468
-7.16368
-5.7637
-4.48258
-3.32812
-2.30114
-1.39813
-0.612714
0.0633311
0.639512
1.12597
1.53286
1.86994
2.1462
2.3698
2.54802
2.68731
2.79334
2.87108
2.92487
2.95851
2.97532
2.97818
2.96956
2.95155
2.92592
2.89415
2.85747
2.8169
2.77327
2.72727
2.67946
2.63027
2.58008
2.52914
2.47769
2.42588
2.37382
2.32161
2.26929
2.21691
2.16446
2.11196
2.0594
2.00675
1.95399
1.90109
1.84802
1.79475
1.74124
1.68745
1.63336
1.57893
1.52413
1.46892
1.41328
1.35717
1.30058
1.24346
1.18582
1.1276
1.0688
1.0094
0.949372
0.888698
0.827364
0.765346
0.702641
0.639201
0.575075
0.510109
0.444574
0.377856
0.311192
0.241973
0.175578
0.100906
0.0410094
-13.4275
-13.5778
-13.7533
-13.9709
-14.2498
-14.6035
-15.0335
-15.5278
-16.0621
-16.5999
-17.0939
-17.4894
-17.7298
-17.7628
-17.5486
-17.066
-16.3167
-15.3245
-14.1311
-12.7898
-11.358
-9.89169
-8.44035
-7.04376
-5.73052
-4.51855
-3.41707
-2.42899
-1.55304
-0.785069
-0.118785
0.453603
0.940782
1.35173
1.69521
1.97948
2.2121
2.39993
2.54907
2.66496
2.75238
2.81556
2.85819
2.88354
2.89445
2.89336
2.88237
2.86325
2.83749
2.80635
2.77085
2.73186
2.6901
2.64614
2.60046
2.55343
2.50537
2.45651
2.40703
2.35708
2.30676
2.25614
2.20527
2.15418
2.1029
2.05141
1.99972
1.94782
1.89568
1.84329
1.79061
1.73762
1.6843
1.63063
1.57655
1.52207
1.46714
1.41174
1.35585
1.29944
1.24249
1.18498
1.12689
1.0682
1.00889
0.948935
0.88833
0.827054
0.765087
0.702424
0.639021
0.574926
0.509986
0.444474
0.377774
0.31113
0.241924
0.175547
0.10089
0.0409977
-13.316
-13.4654
-13.638
-13.8458
-14.1018
-14.4145
-14.7834
-15.1974
-15.6354
-16.0663
-16.4503
-16.7424
-16.8958
-16.8681
-16.6268
-16.1543
-15.4517
-14.5377
-13.4462
-12.2212
-10.911
-9.5636
-8.22225
-6.92257
-5.6911
-4.54545
-3.49573
-2.54648
-1.69829
-0.948849
-0.293613
0.273654
0.760289
1.17413
1.523
1.81441
2.05534
2.25218
2.4107
2.53608
2.6329
2.70525
2.75673
2.79053
2.80943
2.81586
2.81189
2.79931
2.7796
2.75404
2.72368
2.6894
2.65194
2.61191
2.5698
2.52602
2.48089
2.43469
2.3876
2.33981
2.29143
2.24255
2.19324
2.14356
2.09352
2.04315
1.99246
1.94144
1.89008
1.83838
1.78632
1.73388
1.68105
1.62779
1.57409
1.51993
1.46529
1.41014
1.35447
1.29826
1.24148
1.18411
1.12615
1.06757
1.00835
0.948483
0.887948
0.826733
0.764818
0.7022
0.638835
0.574772
0.509859
0.444371
0.377691
0.311065
0.241874
0.175513
0.100873
0.0409817
-13.1973
-13.342
-13.507
-13.7006
-13.9313
-14.204
-14.5166
-14.859
-15.2126
-15.5511
-15.8413
-16.0457
-16.1263
-16.0483
-15.7853
-15.323
-14.6617
-13.8165
-12.8148
-11.6929
-10.4915
-9.25156
-8.0108
-6.80093
-5.64635
-4.56406
-3.56469
-2.65397
-1.83397
-1.10397
-0.460934
0.0999832
0.584866
1.00047
1.35373
1.6514
1.89989
2.10512
2.27252
2.40698
2.5129
2.59418
2.65434
2.69646
2.72328
2.73718
2.74023
2.73419
2.72057
2.70063
2.67546
2.64594
2.61285
2.57681
2.53833
2.49785
2.45573
2.41223
2.36761
2.32202
2.27563
2.22854
2.18084
2.13259
2.08384
2.03462
1.98495
1.93484
1.8843
1.83332
1.78189
1.73002
1.67768
1.62486
1.57155
1.51773
1.46339
1.4085
1.35306
1.29704
1.24043
1.18322
1.12539
1.06692
1.0078
0.94802
0.887559
0.826407
0.764546
0.701974
0.638648
0.574619
0.509734
0.444271
0.377611
0.311004
0.241828
0.175482
0.100861
0.0409665
-13.071
-13.208
-13.362
-13.5386
-13.7428
-13.9771
-14.2382
-14.5169
-14.7969
-15.0558
-15.2659
-15.3963
-15.4159
-15.2964
-15.0164
-14.5641
-13.9396
-13.155
-12.2325
-11.2021
-10.0981
-8.95526
-7.80639
-6.6796
-5.59713
-4.57516
-3.62454
-2.75183
-1.96027
-1.25044
-0.620588
-0.0671407
0.414852
0.831138
1.18779
1.49085
1.74614
1.95913
2.13487
2.27798
2.39264
2.48259
2.55122
2.60151
2.63615
2.65747
2.6675
2.66801
2.66048
2.6462
2.62625
2.60155
2.57287
2.54087
2.50609
2.46898
2.4299
2.38918
2.34705
2.30373
2.25938
2.21412
2.16807
2.1213
2.07387
2.02583
1.97721
1.92804
1.87833
1.82809
1.77732
1.72603
1.6742
1.62183
1.56892
1.51545
1.46142
1.4068
1.35159
1.29578
1.23935
1.1823
1.1246
1.06625
1.00724
0.947542
0.887157
0.82607
0.764265
0.701741
0.638456
0.574462
0.509607
0.444169
0.37753
0.310942
0.241782
0.175448
0.100848
0.0409474
-12.9375
-13.0646
-13.2051
-13.3626
-13.54
-13.7376
-13.9517
-14.1736
-14.3892
-14.5795
-14.7215
-14.7896
-14.7585
-14.6051
-14.3121
-13.8699
-13.2785
-12.5475
-11.6952
-10.7463
-9.72941
-8.67435
-7.60936
-6.55927
-5.54426
-4.57955
-3.67593
-2.84051
-2.07743
-1.38829
-0.772478
-0.227504
0.250543
0.666476
1.02555
1.33313
1.59446
1.81454
1.99808
2.14938
2.27241
2.37074
2.4476
2.50591
2.54824
2.57689
2.59386
2.60088
2.59944
2.59083
2.57613
2.55628
2.53207
2.50416
2.47312
2.43942
2.40346
2.36555
2.32598
2.28497
2.2427
2.19932
2.15495
2.10969
2.06361
2.01678
1.96925
1.92104
1.87219
1.82271
1.77262
1.72192
1.67062
1.61872
1.56622
1.51311
1.45939
1.40505
1.35009
1.29449
1.23825
1.18136
1.1238
1.06557
1.00666
0.947057
0.88675
0.825731
0.763983
0.701509
0.638266
0.574308
0.509483
0.444072
0.377455
0.310885
0.241743
0.175419
0.100841
0.0409308
-12.7972
-12.9126
-13.038
-13.1754
-13.3261
-13.4892
-13.6605
-13.8321
-13.9916
-14.1229
-14.207
-14.2229
-14.1497
-13.9688
-13.6663
-13.2343
-12.6727
-11.9895
-11.1994
-10.323
-9.38428
-8.40846
-7.41996
-6.4406
-5.48855
-4.57802
-3.71953
-2.92051
-2.18574
-1.51765
-0.916566
-0.380947
0.0921902
0.506799
0.867371
1.17861
1.44521
1.67173
1.86248
2.0215
2.15251
2.25889
2.34374
2.40986
2.45974
2.49561
2.51944
2.53294
2.53758
2.53464
2.52521
2.51024
2.49052
2.46674
2.43948
2.40924
2.37642
2.34138
2.30441
2.26575
2.2256
2.18414
2.14149
2.09777
2.05308
2.0075
1.96107
1.91385
1.86587
1.81717
1.76777
1.71769
1.66694
1.61552
1.56344
1.5107
1.45731
1.40325
1.34854
1.29316
1.23711
1.18038
1.12297
1.06487
1.00606
0.946555
0.886329
0.825379
0.763691
0.701268
0.638069
0.574148
0.509355
0.44397
0.377377
0.310825
0.241702
0.175386
0.100831
0.0409084
-12.6509
-12.7535
-12.8627
-12.9796
-13.1043
-13.235
-13.3674
-13.4943
-13.6049
-13.6857
-13.7208
-13.6929
-13.585
-13.3822
-13.0731
-12.6514
-12.117
-11.4765
-10.7418
-9.93013
-9.06145
-8.15721
-7.23841
-6.32416
-5.43076
-4.57133
-3.75602
-2.99235
-2.28555
-1.6387
-1.05287
-0.527363
-0.0600022
0.35238
0.713567
1.02764
1.29876
1.53104
1.72843
1.89467
2.03324
2.14733
2.23989
2.3136
2.37086
2.41383
2.44444
2.46435
2.47503
2.47775
2.47359
2.4635
2.4483
2.42868
2.40524
2.37849
2.34886
2.31673
2.28239
2.24612
2.20813
2.16861
2.12772
2.08558
2.04231
1.99799
1.95269
1.90648
1.85941
1.81151
1.76282
1.71337
1.66317
1.61224
1.56059
1.50824
1.45518
1.40142
1.34696
1.29181
1.23595
1.1794
1.12213
1.06416
1.00547
0.946053
0.88591
0.825032
0.763405
0.701035
0.637881
0.573998
0.509238
0.44388
0.37731
0.310776
0.241672
0.175363
0.100831
0.0408927
-12.4993
-12.5883
-12.6808
-12.7773
-12.8769
-12.9775
-13.0749
-13.1622
-13.2304
-13.2679
-13.2615
-13.1972
-13.061
-12.8409
-12.5276
-12.1163
-11.6069
-11.0046
-10.3195
-9.5656
-8.7598
-7.92022
-7.06489
-6.21051
-5.37161
-4.56024
-3.78608
-3.05659
-2.37726
-1.75166
-1.18148
-0.6667
-0.205877
0.203456
0.564428
0.880538
1.15544
1.39282
1.59627
1.76922
1.9149
2.03635
2.13632
2.21737
2.28182
2.33175
2.36903
2.39528
2.41195
2.42028
2.42138
2.41618
2.4055
2.39006
2.37046
2.34723
2.32082
2.29162
2.25995
2.2261
2.1903
2.15276
2.11366
2.07312
2.03129
1.98826
1.94412
1.89894
1.85278
1.8057
1.75774
1.70893
1.65929
1.60887
1.55767
1.5057
1.45298
1.39953
1.34533
1.29041
1.23476
1.17837
1.12126
1.06342
1.00484
0.945529
0.885471
0.824666
0.763103
0.700787
0.637679
0.573836
0.50911
0.443779
0.377235
0.310717
0.241634
0.175329
0.100822
0.0408653
-12.3439
-12.4188
-12.4945
-12.5708
-12.6467
-12.7195
-12.7851
-12.8375
-12.8688
-12.8693
-12.8281
-12.7335
-12.5744
-12.3408
-12.0256
-11.6247
-11.1382
-10.5704
-9.92961
-9.22753
-8.47823
-7.69708
-6.89953
-6.10012
-5.31177
-4.5455
-3.8104
-3.1138
-2.4613
-1.85682
-1.30252
-0.798956
-0.345324
0.0602207
0.420213
0.737608
1.01559
1.25741
1.46632
1.64546
1.79783
1.92624
2.03331
2.12145
2.19288
2.2496
2.29341
2.3259
2.34849
2.3624
2.36872
2.36839
2.36224
2.35098
2.33524
2.31555
2.29238
2.26614
2.23716
2.20576
2.17218
2.13665
2.09935
2.06045
2.02008
1.97836
1.93539
1.89126
1.84604
1.7998
1.75257
1.70442
1.65537
1.60545
1.5547
1.50314
1.45077
1.39762
1.3437
1.28901
1.23356
1.17736
1.1204
1.06269
1.00423
0.945019
0.885049
0.82432
0.762821
0.70056
0.6375
0.573697
0.509006
0.443703
0.377184
0.310683
0.241621
0.175317
0.100834
0.0408534
-12.185
-12.2457
-12.3047
-12.3617
-12.4151
-12.4623
-12.4995
-12.5212
-12.5207
-12.4897
-12.4192
-12.2997
-12.1221
-11.8786
-11.5631
-11.1726
-10.7073
-10.1708
-9.56981
-8.9142
-8.21573
-7.48739
-6.74241
-5.99343
-5.2519
-4.52781
-3.82968
-3.16458
-2.53814
-1.95449
-1.41616
-0.924181
-0.478281
-0.0771713
0.281144
0.599122
0.879494
1.12513
1.33893
1.52375
1.68234
1.81733
1.93116
2.02611
2.10428
2.1676
2.2178
2.25642
2.28484
2.30426
2.31576
2.32027
2.31863
2.31154
2.29965
2.28351
2.2636
2.24033
2.21406
2.18513
2.15378
2.12028
2.08481
2.04755
2.00866
1.96827
1.9265
1.88343
1.83916
1.79376
1.74729
1.6998
1.65134
1.60195
1.55166
1.5005
1.44849
1.39565
1.342
1.28755
1.23231
1.17629
1.1195
1.06193
1.00358
0.944474
0.884593
0.82394
0.762508
0.700304
0.637293
0.573531
0.508876
0.443601
0.37711
0.310623
0.241584
0.175278
0.100823
0.0408162
-12.0248
-12.0713
-12.114
-12.1524
-12.1848
-12.2086
-12.2203
-12.215
-12.1869
-12.1291
-12.0341
-11.8942
-11.702
-11.4511
-11.1368
-10.7568
-10.3112
-9.80293
-9.23787
-8.62404
-7.97134
-7.29077
-6.59361
-5.89084
-5.19258
-4.50786
-3.84459
-3.20954
-2.60828
-2.04504
-1.52263
-1.04247
-0.604729
-0.208608
0.14741
0.465325
0.747452
0.996288
1.21441
1.4044
1.56876
1.70992
1.83016
1.93163
2.01631
2.08602
2.14244
2.18706
2.2212
2.24605
2.26267
2.27198
2.27481
2.27188
2.26384
2.25124
2.23458
2.2143
2.19076
2.1643
2.13521
2.10374
2.07012
2.03453
1.99714
1.95809
1.91752
1.87554
1.83223
1.78768
1.74197
1.69516