/*--------------------------------*- C++ -*----------------------------------*\
| =========                 |                                                 |
| \\      /  F ield         | OpenFOAM: The Open Source CFD Toolbox           |
|  \\    /   O peration     | Version:  2.1.1                                 |
|   \\  /    A nd           | Web:      www.OpenFOAM.org                      |
|    \\/     M anipulation  |                                                 |
\*---------------------------------------------------------------------------*/
FoamFile
{
    version     2.0;
    format      ascii;
    class       surfaceScalarField;
    location    "0.02";
    object      phi;
}
// * * * * * * * * * * * * * * * * * * * * * * * * * * * * * * * * * * * * * //

dimensions      [0 3 -1 0 0 0 0];

internalField   nonuniform List<scalar> 
13452
(
4.60023e-05
2.24849e-05
2.96751e-05
1.63273e-05
2.12101e-05
8.46501e-06
1.73229e-05
3.88717e-06
1.56981e-05
1.62485e-06
1.49112e-05
7.86826e-07
1.44258e-05
4.85442e-07
1.40651e-05
3.60712e-07
1.37694e-05
2.95663e-07
1.35238e-05
2.45617e-07
1.33242e-05
1.99633e-07
1.31672e-05
1.56997e-07
1.30491e-05
1.18031e-07
1.29664e-05
8.27812e-08
1.29156e-05
5.0757e-08
1.28944e-05
2.12105e-08
1.29009e-05
-6.55004e-09
1.29329e-05
-3.19192e-08
1.29896e-05
-5.67352e-08
1.30703e-05
-8.07386e-08
1.31755e-05
-1.05141e-07
1.33059e-05
-1.3043e-07
1.34624e-05
-1.5647e-07
1.3646e-05
-1.83665e-07
1.38586e-05
-2.12535e-07
1.41021e-05
-2.43517e-07
1.43796e-05
-2.77538e-07
1.46944e-05
-3.14741e-07
1.50537e-05
-3.59371e-07
1.54589e-05
-4.05122e-07
1.59438e-05
-4.84909e-07
1.64563e-05
-5.12528e-07
-8.9203e-07
1.73483e-05
7.49156e-05
1.80133e-05
7.0426e-05
2.08169e-05
6.33556e-05
1.55354e-05
5.67278e-05
1.05149e-05
5.16454e-05
6.70729e-06
4.80313e-05
4.40094e-06
4.54603e-05
3.05643e-06
4.35913e-05
2.22969e-06
4.21924e-05
1.69463e-06
4.11147e-05
1.32326e-06
4.02673e-05
1.04709e-06
3.95933e-05
8.30996e-07
3.90561e-05
6.55183e-07
3.86313e-05
5.07537e-07
3.83021e-05
3.80028e-07
3.80562e-05
2.67099e-07
3.78847e-05
1.64902e-07
3.77823e-05
7.04798e-08
3.7745e-05
-1.94333e-08
3.7769e-05
-1.04724e-07
3.7852e-05
-1.88118e-07
3.79929e-05
-2.71379e-07
3.81912e-05
-3.54732e-07
3.84469e-05
-4.3936e-07
3.87608e-05
-5.26423e-07
3.91343e-05
-6.17022e-07
3.95696e-05
-7.12804e-07
4.007e-05
-8.15167e-07
4.06398e-05
-9.29206e-07
4.12886e-05
-1.05388e-06
4.20219e-05
-1.21825e-06
4.29072e-05
-1.39781e-06
-1.75604e-06
4.37712e-05
7.85215e-05
1.19483e-05
8.23394e-05
1.6999e-05
8.3009e-05
1.48658e-05
8.15152e-05
1.20087e-05
7.90249e-05
9.19758e-06
7.63818e-05
7.0441e-06
7.39174e-05
5.52078e-06
7.17355e-05
4.4116e-06
6.98499e-05
3.58024e-06
6.8237e-05
2.9362e-06
6.68645e-05
2.41956e-06
6.57017e-05
1.99377e-06
6.47217e-05
1.63525e-06
6.39015e-05
1.32773e-06
6.32222e-05
1.0593e-06
6.26683e-05
8.2099e-07
6.22271e-05
6.06053e-07
6.18885e-05
4.09123e-07
6.16432e-05
2.25915e-07
6.14859e-05
5.25424e-08
6.14131e-05
-1.15344e-07
6.14222e-05
-2.80475e-07
6.15092e-05
-4.41677e-07
6.16712e-05
-6.0139e-07
6.19062e-05
-7.61431e-07
6.22128e-05
-9.23633e-07
6.25903e-05
-1.09027e-06
6.30388e-05
-1.26371e-06
6.35583e-05
-1.44867e-06
6.41519e-05
-1.64751e-06
6.48104e-05
-1.87674e-06
6.55413e-05
-2.1287e-06
-2.45374e-06
6.6239e-05
7.81472e-05
8.32779e-06
8.19243e-05
1.32218e-05
8.46217e-05
1.21684e-05
8.62485e-05
1.03819e-05
8.69363e-05
8.50974e-06
8.70402e-05
6.94022e-06
8.68043e-05
5.75671e-06
8.63722e-05
4.84366e-06
8.58368e-05
4.11569e-06
8.52549e-05
3.51813e-06
8.46621e-05
3.01227e-06
8.40824e-05
2.57347e-06
8.3532e-05
2.18569e-06
8.30223e-05
1.83742e-06
8.25612e-05
1.52047e-06
8.21533e-05
1.22888e-06
8.18015e-05
9.57786e-07
8.15075e-05
7.03151e-07
8.1272e-05
4.6147e-07
8.10945e-05
2.29966e-07
8.09711e-05
8.09802e-09
8.09016e-05
-2.11031e-07
8.08844e-05
-4.24439e-07
8.09192e-05
-6.36157e-07
8.10053e-05
-8.47528e-07
8.11419e-05
-1.06025e-06
8.13279e-05
-1.27631e-06
8.1562e-05
-1.49783e-06
8.18417e-05
-1.72828e-06
8.21641e-05
-1.96994e-06
8.25178e-05
-2.23044e-06
8.28951e-05
-2.50598e-06
-2.80488e-06
8.32462e-05
7.89923e-05
5.99138e-06
8.15936e-05
1.06205e-05
8.35221e-05
1.02399e-05
8.49669e-05
8.9371e-06
8.59853e-05
7.49132e-06
8.67264e-05
6.1992e-06
8.7293e-05
5.19002e-06
8.77342e-05
4.40251e-06
8.80821e-05
3.76776e-06
8.83588e-05
3.24145e-06
8.85794e-05
2.79164e-06
8.8756e-05
2.39689e-06
8.88982e-05
2.04351e-06
8.90133e-05
1.72225e-06
8.91079e-05
1.42592e-06
8.9188e-05
1.14882e-06
8.9259e-05
8.86762e-07
8.93256e-05
6.36559e-07
8.93916e-05
3.95476e-07
8.94595e-05
1.62063e-07
8.95313e-05
-6.37549e-08
8.96059e-05
-2.85586e-07
8.96852e-05
-5.03769e-07
8.97699e-05
-7.20801e-07
8.98604e-05
-9.38074e-07
8.99571e-05
-1.15693e-06
9.00596e-05
-1.37886e-06
9.01672e-05
-1.60538e-06
9.02775e-05
-1.83857e-06
9.03871e-05
-2.07956e-06
9.04877e-05
-2.33102e-06
9.05703e-05
-2.58867e-06
-2.85007e-06
9.06155e-05
8.04638e-05
4.37345e-06
8.25082e-05
8.57617e-06
8.39973e-05
8.75072e-06
8.50604e-05
7.87403e-06
8.57869e-05
6.76484e-06
8.63048e-05
5.68127e-06
8.67152e-05
4.77963e-06
8.7065e-05
4.05271e-06
8.73771e-05
3.45563e-06
8.7663e-05
2.95561e-06
8.79273e-05
2.52731e-06
8.81724e-05
2.1518e-06
8.83999e-05
1.81594e-06
8.86117e-05
1.51052e-06
8.88088e-05
1.22876e-06
8.89922e-05
9.65437e-07
8.91625e-05
7.16496e-07
8.93203e-05
4.78751e-07
8.94662e-05
2.49553e-07
8.96016e-05
2.67254e-08
8.9729e-05
-1.91186e-07
8.98505e-05
-4.07054e-07
8.99675e-05
-6.208e-07
9.00805e-05
-8.33769e-07
9.01896e-05
-1.04717e-06
9.02947e-05
-1.26209e-06
9.03955e-05
-1.47966e-06
9.04911e-05
-1.70095e-06
9.05796e-05
-1.92709e-06
9.06584e-05
-2.15831e-06
9.07221e-05
-2.39475e-06
9.07655e-05
-2.6321e-06
-2.86571e-06
9.07812e-05
8.22348e-05
3.23719e-06
8.38971e-05
6.91389e-06
8.5188e-05
7.45983e-06
8.61261e-05
6.93596e-06
8.67734e-05
6.11744e-06
8.72201e-05
5.23459e-06
8.75538e-05
4.446e-06
8.78235e-05
3.78297e-06
8.80558e-05
3.22329e-06
8.8266e-05
2.74549e-06
8.84618e-05
2.33143e-06
8.86477e-05
1.96598e-06
8.88257e-05
1.63791e-06
8.89972e-05
1.33896e-06
8.91632e-05
1.06285e-06
8.93239e-05
8.04645e-07
8.948e-05
5.60452e-07
8.96316e-05
3.27129e-07
8.97791e-05
1.02026e-07
8.9923e-05
-1.17136e-07
9.0064e-05
-3.32148e-07
9.02019e-05
-5.44956e-07
9.03372e-05
-7.56152e-07
9.04702e-05
-9.66744e-07
9.06008e-05
-1.17779e-06
9.07289e-05
-1.39018e-06
9.0854e-05
-1.60476e-06
9.09752e-05
-1.82216e-06
9.1091e-05
-2.04285e-06
9.11991e-05
-2.26643e-06
9.12961e-05
-2.49179e-06
9.1379e-05
-2.71501e-06
-2.93135e-06
9.14447e-05
8.42172e-05
2.43552e-06
8.5553e-05
5.57812e-06
8.66781e-05
6.33476e-06
8.75397e-05
6.0743e-06
8.81711e-05
5.48604e-06
8.86251e-05
4.78057e-06
8.89671e-05
4.10405e-06
8.92406e-05
3.50942e-06
8.94714e-05
2.99252e-06
8.96754e-05
2.54148e-06
8.98622e-05
2.14463e-06
9.00373e-05
1.79085e-06
9.02042e-05
1.47102e-06
9.03651e-05
1.1781e-06
9.05214e-05
9.06536e-07
9.06742e-05
6.51859e-07
9.08242e-05
4.1046e-07
9.09719e-05
1.7937e-07
9.11178e-05
-4.387e-08
9.12621e-05
-2.61384e-07
9.14048e-05
-4.74896e-07
9.15459e-05
-6.86049e-07
9.16855e-05
-8.95743e-07
9.18236e-05
-1.10486e-06
9.19602e-05
-1.31431e-06
9.20948e-05
-1.52482e-06
9.2227e-05
-1.73699e-06
9.2356e-05
-1.95114e-06
9.24804e-05
-2.16723e-06
9.25985e-05
-2.38452e-06
9.27081e-05
-2.60143e-06
9.28077e-05
-2.81463e-06
-3.02013e-06
9.28965e-05
8.63726e-05
1.86168e-06
8.74435e-05
4.5072e-06
8.84177e-05
5.36051e-06
8.91991e-05
5.2929e-06
8.98009e-05
4.88431e-06
9.02536e-05
4.32788e-06
9.06044e-05
3.75325e-06
9.08897e-05
3.22403e-06
9.11323e-05
2.75001e-06
9.13465e-05
2.32726e-06
9.15416e-05
1.94947e-06
9.17235e-05
1.60903e-06
9.18956e-05
1.29886e-06
9.20606e-05
1.01313e-06
9.22201e-05
7.47038e-07
9.23753e-05
4.96617e-07
9.25272e-05
2.58583e-07
9.26764e-05
3.01941e-08
9.28233e-05
-1.9083e-07
9.29684e-05
-4.06437e-07
9.31117e-05
-6.18242e-07
9.32534e-05
-8.27689e-07
9.33934e-05
-1.03577e-06
9.35319e-05
-1.24332e-06
9.36687e-05
-1.4511e-06
9.38035e-05
-1.65967e-06
9.39359e-05
-1.86941e-06
9.40652e-05
-2.08041e-06
9.41903e-05
-2.29236e-06
9.43102e-05
-2.50438e-06
9.44236e-05
-2.71488e-06
9.45302e-05
-2.92117e-06
-3.12026e-06
9.46303e-05
8.8668e-05
1.44369e-06
8.95267e-05
3.64852e-06
9.03672e-05
4.52002e-06
9.10727e-05
4.58733e-06
9.16405e-05
4.31656e-06
9.20856e-05
3.88276e-06
9.244e-05
3.39887e-06
9.27328e-05
2.93125e-06
9.29834e-05
2.49933e-06
9.32052e-05
2.10549e-06
9.3407e-05
1.74771e-06
9.35945e-05
1.42151e-06
9.37716e-05
1.12181e-06
9.39407e-05
8.43969e-07
9.41038e-05
5.83976e-07
9.4262e-05
3.38379e-07
9.44164e-05
1.0423e-07
9.45675e-05
-1.20969e-07
9.4716e-05
-3.39324e-07
9.48622e-05
-5.52634e-07
9.50064e-05
-7.62415e-07
9.51487e-05
-9.69961e-07
9.52891e-05
-1.17623e-06
9.54278e-05
-1.38199e-06
9.55646e-05
-1.58786e-06
9.56992e-05
-1.79429e-06
9.58313e-05
-2.0015e-06
9.59603e-05
-2.20943e-06
9.60856e-05
-2.41767e-06
9.62066e-05
-2.62534e-06
9.63227e-05
-2.83105e-06
9.64343e-05
-3.03276e-06
-3.2284e-06
9.65425e-05
9.10817e-05
1.13331e-06
9.17722e-05
2.95802e-06
9.24962e-05
3.79597e-06
9.31325e-05
3.95106e-06
9.36652e-05
3.78386e-06
9.40986e-05
3.44934e-06
9.44528e-05
3.04466e-06
9.47503e-05
2.63384e-06
9.50074e-05
2.24218e-06
9.52359e-05
1.87697e-06
9.5444e-05
1.53962e-06
9.56372e-05
1.22832e-06
9.58192e-05
9.39763e-07
9.59927e-05
6.70476e-07
9.61595e-05
4.17203e-07
9.63209e-05
1.77002e-07
9.64779e-05
-5.27312e-08
9.66311e-05
-2.74241e-07
9.67813e-05
-4.89456e-07
9.69287e-05
-7.0003e-07
9.70736e-05
-9.07354e-07
9.72162e-05
-1.11259e-06
9.73566e-05
-1.31664e-06
9.74948e-05
-1.52021e-06
9.76308e-05
-1.72381e-06
9.77643e-05
-1.92781e-06
9.78951e-05
-2.13232e-06
9.80229e-05
-2.33722e-06
9.81473e-05
-2.54208e-06
9.82681e-05
-2.74612e-06
9.83853e-05
-2.94823e-06
9.84995e-05
-3.14696e-06
-3.34096e-06
9.86121e-05
9.36e-05
8.97996e-07
9.4158e-05
2.39997e-06
9.4781e-05
3.17295e-06
9.53535e-05
3.37856e-06
9.58508e-05
3.28654e-06
9.62699e-05
3.03033e-06
9.66216e-05
2.69292e-06
9.69222e-05
2.33319e-06
9.71851e-05
1.97932e-06
9.74201e-05
1.64201e-06
9.76344e-05
1.32528e-06
9.78333e-05
1.02941e-06
9.80204e-05
7.5268e-07
9.81982e-05
4.92641e-07
9.83687e-05
2.46762e-07
9.85331e-05
1.26017e-08
9.86924e-05
-2.121e-07
9.88475e-05
-4.29325e-07
9.89989e-05
-6.40823e-07
9.9147e-05
-8.48099e-07
9.9292e-05
-1.05242e-06
9.94343e-05
-1.25486e-06
9.95739e-05
-1.45623e-06
9.97108e-05
-1.65717e-06
9.98452e-05
-1.85813e-06
9.99767e-05
-2.05939e-06
0.000100105
-2.26101e-06
0.000100231
-2.46285e-06
0.000100354
-2.66453e-06
0.000100473
-2.86541e-06
0.000100589
-3.06468e-06
0.000100704
-3.26137e-06
-3.45466e-06
0.000100817
9.62143e-05
7.15789e-07
9.66685e-05
1.94579e-06
9.72047e-05
2.63667e-06
9.77193e-05
2.864e-06
9.81821e-05
2.82372e-06
9.85848e-05
2.62762e-06
9.89317e-05
2.34605e-06
9.92335e-05
2.03137e-06
9.95006e-05
1.71229e-06
9.97409e-05
1.40164e-06
9.99609e-05
1.10528e-06
0.000100165
8.25103e-07
0.000100357
5.60678e-07
0.000100539
3.10496e-07
0.000100713
7.26693e-08
0.000100881
-1.54781e-07
0.000101043
-3.73768e-07
0.000101199
-5.86043e-07
0.000101352
-7.9317e-07
0.0001015
-9.96512e-07
0.000101645
-1.19723e-06
0.000101786
-1.39627e-06
0.000101924
-1.5944e-06
0.000102059
-1.79218e-06
0.000102191
-1.99002e-06
0.00010232
-2.18814e-06
0.000102446
-2.38657e-06
0.000102568
-2.5852e-06
0.000102687
-2.78372e-06
0.000102803
-2.98165e-06
0.000102917
-3.17842e-06
0.000103029
-3.37345e-06
-3.56626e-06
0.000103141
9.89198e-05
5.71733e-07
9.92927e-05
1.57289e-06
9.97552e-05
2.17413e-06
0.000100218
2.40163e-06
0.000100647
2.39403e-06
0.000101032
2.24245e-06
0.000101373
2.00597e-06
0.000101674
1.73007e-06
0.000101944
1.44235e-06
0.000102189
1.15671e-06
0.000102414
8.80137e-07
0.000102623
6.15706e-07
0.00010282
3.63984e-07
0.000103006
1.24233e-07
0.000103184
-1.04871e-07
0.000103354
-3.24891e-07
0.000103518
-5.37434e-07
0.000103675
-7.44025e-07
0.000103828
-9.46055e-07
0.000103977
-1.14475e-06
0.000104121
-1.34116e-06
0.00010426
-1.53615e-06
0.000104396
-1.73042e-06
0.000104529
-1.92447e-06
0.000104657
-2.11865e-06
0.000104782
-2.31317e-06
0.000104904
-2.50806e-06
0.000105022
-2.70323e-06
0.000105137
-2.89844e-06
0.000105248
-3.09337e-06
0.000105358
-3.28765e-06
0.000105465
-3.48095e-06
-3.67302e-06
0.000105572
0.000101714
4.5553e-07
0.000102023
1.26353e-06
0.000102424
1.77373e-06
0.00010284
1.98578e-06
0.000103238
1.99544e-06
0.000103605
1.87516e-06
0.000103937
1.67399e-06
0.000104237
1.43071e-06
0.000104508
1.17078e-06
0.000104757
9.08219e-07
0.000104986
6.50628e-07
0.0001052
4.018e-07
0.000105401
1.63038e-07
0.000105591
-6.57902e-08
0.000105772
-2.85544e-07
0.000105944
-4.9743e-07
0.00010611
-7.02782e-07
0.000106269
-9.02923e-07
0.000106422
-1.09909e-06
0.000106569
-1.29237e-06
0.000106712
-1.48373e-06
0.00010685
-1.67396e-06
0.000106983
-1.86367e-06
0.000107112
-2.05333e-06
0.000107236
-2.24326e-06
0.000107357
-2.43364e-06
0.000107473
-2.62451e-06
0.000107586
-2.81582e-06
0.000107695
-3.0074e-06
0.000107801
-3.19903e-06
0.000107903
-3.3905e-06
0.000108004
-3.58165e-06
-3.77234e-06
0.000108103
0.000104596
3.59977e-07
0.000104856
1.00387e-06
0.000105204
1.42521e-06
0.000105579
1.61088e-06
0.000105949
1.62556e-06
0.000106299
1.52551e-06
0.000106622
1.35094e-06
0.000106918
1.13439e-06
0.00010719
8.98597e-07
0.000107441
6.57028e-07
0.000107675
4.17395e-07
0.000107892
1.83863e-07
0.000108097
-4.17931e-08
0.000108291
-2.59267e-07
0.000108474
-4.69057e-07
0.000108649
-6.72086e-07
0.000108816
-8.69463e-07
0.000108975
-1.06234e-06
0.000109128
-1.2518e-06
0.000109274
-1.43886e-06
0.000109415
-1.62436e-06
0.00010955
-1.80902e-06
0.00010968
-1.99342e-06
0.000109804
-2.17798e-06
0.000109924
-2.36299e-06
0.000110039
-2.54861e-06
0.000110149
-2.7349e-06
0.000110255
-2.92183e-06
0.000110357
-3.10929e-06
0.000110455
-3.29714e-06
0.00011055
-3.48525e-06
0.000110642
-3.67358e-06
-3.862e-06
0.000110732
0.000107566
2.79941e-07
0.000107787
7.83093e-07
0.000108092
1.11965e-06
0.000108432
1.2716e-06
0.000108776
1.28169e-06
0.000109108
1.19268e-06
0.000109422
1.03708e-06
0.000109715
8.41794e-07
0.000109987
6.26567e-07
0.00011024
4.03835e-07
0.000110476
1.81036e-07
0.000110698
-3.76057e-08
0.000110906
-2.50081e-07
0.000111103
-4.55809e-07
0.000111289
-6.55041e-07
0.000111465
-8.48488e-07
0.000111633
-1.03709e-06
0.000111792
-1.22185e-06
0.000111944
-1.40375e-06
0.000112089
-1.58369e-06
0.000112227
-1.76247e-06
0.000112359
-1.94073e-06
0.000112484
-2.11901e-06
0.000112604
-2.29768e-06
0.000112718
-2.47702e-06
0.000112827
-2.65718e-06
0.00011293
-2.83821e-06
0.000113028
-3.02012e-06
0.000113122
-3.20281e-06
0.000113211
-3.38621e-06
0.000113296
-3.57023e-06
0.000113377
-3.75486e-06
-3.93995e-06
0.000113455
0.000110625
2.11683e-07
0.000110815
5.92727e-07
0.000111086
8.49306e-07
0.000111395
9.62817e-07
0.000111715
9.60888e-07
0.000112033
8.754e-07
0.000112338
7.32203e-07
0.000112626
5.53212e-07
0.000112898
3.55172e-07
0.000113152
1.49152e-07
0.000113391
-5.79841e-08
0.000113616
-2.62205e-07
0.000113827
-4.61476e-07
0.000114027
-6.55095e-07
0.000114215
-8.43177e-07
0.000114392
-1.0263e-06
0.000114561
-1.20528e-06
0.00011472
-1.38103e-06
0.000114871
-1.55444e-06
0.000115013
-1.72635e-06
0.000115148
-1.89747e-06
0.000115276
-2.06843e-06
0.000115397
-2.23969e-06
0.000115511
-2.41162e-06
0.000115618
-2.58447e-06
0.000115719
-2.75838e-06
0.000115814
-2.9334e-06
0.000115904
-3.10952e-06
0.000115988
-3.2867e-06
0.000116066
-3.46485e-06
0.00011614
-3.6439e-06
0.000116209
-3.82384e-06
-4.00448e-06
0.000116273
0.000113775
1.52415e-07
0.000113941
4.26073e-07
0.000114183
6.07531e-07
0.000114466
6.79719e-07
0.000114767
6.60098e-07
0.00011507
5.71995e-07
0.000115367
4.35613e-07
0.000115652
2.6851e-07
0.000115922
8.45352e-08
0.000116178
-1.06794e-07
0.00011642
-2.99408e-07
0.000116647
-4.89678e-07
0.000116861
-6.75722e-07
0.000117063
-8.56863e-07
0.000117253
-1.03318e-06
0.000117432
-1.20521e-06
0.000117601
-1.37369e-06
0.000117759
-1.53948e-06
0.000117908
-1.70342e-06
0.000118048
-1.86629e-06
0.000118179
-2.02877e-06
0.000118302
-2.19144e-06
0.000118417
-2.35474e-06
0.000118525
-2.51901e-06
0.000118625
-2.68447e-06
0.000118718
-2.85125e-06
0.000118804
-3.0194e-06
0.000118883
-3.1889e-06
0.000118956
-3.3597e-06
0.000119023
-3.5317e-06
0.000119084
-3.70482e-06
0.000119139
-3.87901e-06
-4.05402e-06
0.000119188
0.000117017
9.9999e-08
0.000117165
2.77767e-07
0.000117384
3.88551e-07
0.000117646
4.17747e-07
0.00011793
3.76129e-07
0.000118222
2.80454e-07
0.000118511
1.46201e-07
0.000118792
-1.28489e-08
0.000119062
-1.85548e-07
0.00011932
-3.64023e-07
0.000119563
-5.4316e-07
0.000119794
-7.19893e-07
0.000120011
-8.92651e-07
0.000120215
-1.06091e-06
0.000120406
-1.22481e-06
0.000120586
-1.38491e-06
0.000120754
-1.54195e-06
0.000120911
-1.69678e-06
0.000121058
-1.8502e-06
0.000121195
-2.00297e-06
0.000121322
-2.15575e-06
0.00012144
-2.30909e-06
0.000121548
-2.46341e-06
0.000121648
-2.61902e-06
0.00012174
-2.77613e-06
0.000121823
-2.93484e-06
0.000121899
-3.09519e-06
0.000121968
-3.25715e-06
0.000122028
-3.42063e-06
0.000122082
-3.58553e-06
0.000122129
-3.75171e-06
0.000122169
-3.9191e-06
-4.08734e-06
0.000122203
0.000120353
5.27501e-08
0.000120488
1.43428e-07
0.000120689
1.8732e-07
0.000120934
1.72578e-07
0.000121204
1.05686e-07
0.000121486
-1.56056e-09
0.00012177
-1.37576e-07
0.000122049
-2.91844e-07
0.000122319
-4.55701e-07
0.000122578
-6.22932e-07
0.000122825
-7.89491e-07
0.000123058
-9.53003e-07
0.000123277
-1.11233e-06
0.000123484
-1.26722e-06
0.000123677
-1.41798e-06
0.000123857
-1.56525e-06
0.000124025
-1.70984e-06
0.000124181
-1.8526e-06
0.000124325
-1.99437e-06
0.000124458
-2.1359e-06
0.00012458
-2.27784e-06
0.000124692
-2.42072e-06
0.000124793
-2.56496e-06
0.000124885
-2.71084e-06
0.000124968
-2.85854e-06
0.000125041
-3.00817e-06
0.000125105
-3.15973e-06
0.000125161
-3.31315e-06
0.000125209
-3.46833e-06
0.000125249
-3.62512e-06
0.00012528
-3.78334e-06
0.000125304
-3.94285e-06
-4.1032e-06
0.00012532
0.000123787
9.28897e-09
0.000123911
1.9385e-08
0.000124099
-6.51522e-10
0.000124331
-5.9936e-08
0.000124591
-1.54642e-07
0.000124867
-2.76667e-07
0.000125147
-4.17641e-07
0.000125425
-5.6984e-07
0.000125696
-7.26879e-07
0.000125957
-8.84179e-07
0.000126206
-1.03884e-06
0.000126443
-1.18928e-06
0.000126665
-1.33491e-06
0.000126874
-1.47584e-06
0.000127069
-1.61262e-06
0.000127249
-1.74606e-06
0.000127417
-1.87707e-06
0.000127571
-2.00659e-06
0.000127712
-2.13549e-06
0.00012784
-2.26455e-06
0.000127957
-2.39443e-06
0.000128062
-2.52565e-06
0.000128156
-2.65863e-06
0.000128238
-2.79363e-06
0.000128311
-2.93084e-06
0.000128373
-3.07031e-06
0.000128425
-3.21202e-06
0.000128468
-3.35589e-06
0.000128501
-3.50176e-06
0.000128526
-3.64944e-06
0.000128541
-3.7987e-06
0.000128547
-3.94934e-06
-4.10083e-06
0.000128545
0.000127319
-3.15739e-08
0.000127436
-9.75556e-08
0.000127615
-1.79497e-07
0.000127839
-2.83866e-07
0.000128093
-4.08457e-07
0.000128364
-5.47891e-07
0.000128643
-6.96431e-07
0.000128922
-8.48777e-07
0.000129196
-1.00063e-06
0.00012946
-1.149e-06
0.000129714
-1.2922e-06
0.000129954
-1.42951e-06
0.00013018
-1.56098e-06
0.000130391
-1.68717e-06
0.000130588
-1.80898e-06
0.000130769
-1.92743e-06
0.000130936
-2.04362e-06
0.000131088
-2.15857e-06
0.000131225
-2.27326e-06
0.000131349
-2.38849e-06
0.00013146
-2.50496e-06
0.000131558
-2.62322e-06
0.000131643
-2.74366e-06
0.000131715
-2.86657e-06
0.000131777
-2.99208e-06
0.000131827
-3.12025e-06
0.000131866
-3.25102e-06
0.000131894
-3.38427e-06
0.000131912
-3.5198e-06
0.00013192
-3.65737e-06
0.000131918
-3.79668e-06
0.000131906
-3.93745e-06
-4.0791e-06
0.000131884
0.000130954
-7.08756e-08
0.000131067
-2.10286e-07
0.000131241
-3.53096e-07
0.00013146
-5.03281e-07
0.000131711
-6.59538e-07
0.000131982
-8.18526e-07
0.000132262
-9.76688e-07
0.000132544
-1.13087e-06
0.000132822
-1.27869e-06
0.000133092
-1.41876e-06
0.00013335
-1.5506e-06
0.000133595
-1.67444e-06
0.000133825
-1.79106e-06
0.00013404
-1.90156e-06
0.000134238
-2.00723e-06
0.00013442
-2.1094e-06
0.000134586
-2.20936e-06
0.000134735
-2.30831e-06
0.000134869
-2.40731e-06
0.000134988
-2.50726e-06
0.000135092
-2.6089e-06
0.000135182
-2.71279e-06
0.000135257
-2.81936e-06
0.00013532
-2.92887e-06
0.000135369
-3.04145e-06
0.000135406
-3.15713e-06
0.000135431
-3.27584e-06
0.000135444
-3.39739e-06
0.000135446
-3.52156e-06
0.000135436
-3.64805e-06
0.000135416
-3.7765e-06
0.000135385
-3.90659e-06
-4.03767e-06
0.000135344
0.000134694
-1.09617e-07
0.000134805
-3.21601e-07
0.000134977
-5.25365e-07
0.000135197
-7.22502e-07
0.000135449
-9.12167e-07
0.000135723
-1.09258e-06
0.000136009
-1.26204e-06
0.000136297
-1.41932e-06
0.000136582
-1.56387e-06
0.000136859
-1.69585e-06
0.000137125
-1.81606e-06
0.000137376
-1.92576e-06
0.000137612
-2.02652e-06
0.00013783
-2.12007e-06
0.000138031
-2.20816e-06
0.000138214
-2.29247e-06
0.000138379
-2.37457e-06
0.000138527
-2.45585e-06
0.000138657
-2.53751e-06
0.00013877
-2.62054e-06
0.000138867
-2.70574e-06
0.000138948
-2.79373e-06
0.000139014
-2.88494e-06
0.000139065
-2.97965e-06
0.000139101
-3.07797e-06
0.000139124
-3.17991e-06
0.000139133
-3.28536e-06
0.00013913
-3.39411e-06
0.000139114
-3.50589e-06
0.000139087
-3.62033e-06
0.000139047
-3.73702e-06
0.000138996
-3.85555e-06
-3.97521e-06
0.000138934
0.000138541
-1.488e-07
0.000138654
-4.34306e-07
0.000138829
-7.00293e-07
0.000139053
-9.46003e-07
0.000139311
-1.1708e-06
0.000139593
-1.37418e-06
0.000139887
-1.55612e-06
0.000140185
-1.71723e-06
0.00014048
-1.85873e-06
0.000140766
-1.98237e-06
0.00014104
-2.09027e-06
0.000141299
-2.1848e-06
0.000141541
-2.2684e-06
0.000141765
-2.34347e-06
0.000141969
-2.4123e-06
0.000142153
-2.47699e-06
0.000142318
-2.53942e-06
0.000142464
-2.60119e-06
0.00014259
-2.66368e-06
0.000142697
-2.72801e-06
0.000142786
-2.79506e-06
0.000142858
-2.86549e-06
0.000142913
-2.93977e-06
0.000142952
-3.01818e-06
0.000142974
-3.10084e-06
0.000142982
-3.18774e-06
0.000142976
-3.27873e-06
0.000142955
-3.37359e-06
0.000142921
-3.47197e-06
0.000142874
-3.57348e-06
0.000142815
-3.67765e-06
0.000142743
-3.78403e-06
-3.89186e-06
0.00014266
0.0001425
-1.89538e-07
0.000142617
-5.51555e-07
0.000142799
-8.82531e-07
0.000143033
-1.1793e-06
0.000143303
-1.44132e-06
0.000143598
-1.66924e-06
0.000143907
-1.8646e-06
0.000144219
-2.02982e-06
0.000144529
-2.16796e-06
0.000144829
-2.28242e-06
0.000145115
-2.37674e-06
0.000145385
-2.45447e-06
0.000145635
-2.51902e-06
0.000145866
-2.57357e-06
0.000146074
-2.621e-06
0.000146261
-2.66389e-06
0.000146426
-2.70445e-06
0.00014657
-2.74456e-06
0.000146692
-2.78579e-06
0.000146793
-2.8294e-06
0.000146874
-2.87636e-06
0.000146936
-2.92739e-06
0.00014698
-2.98301e-06
0.000147005
-3.0435e-06
0.000147013
-3.10899e-06
0.000147005
-3.17946e-06
0.000146981
-3.25473e-06
0.000146942
-3.33452e-06
0.000146888
-3.41847e-06
0.000146821
-3.50612e-06
0.00014674
-3.59693e-06
0.000146646
-3.69038e-06
-3.78559e-06
0.00014654
0.000146573
-2.33013e-07
0.000146698
-6.76695e-07
0.000146892
-1.07684e-06
0.000147141
-1.42774e-06
0.000147428
-1.72907e-06
0.000147742
-1.98274e-06
0.000148069
-2.19195e-06
0.000148401
-2.36105e-06
0.000148728
-2.49502e-06
0.000149044
-2.599e-06
0.000149345
-2.67805e-06
0.000149628
-2.737e-06
0.000149889
-2.7803e-06
0.000150128
-2.81198e-06
0.000150342
-2.83558e-06
0.000150533
-2.85419e-06
0.000150699
-2.87042e-06
0.00015084
-2.88645e-06
0.000150959
-2.90407e-06
0.000151054
-2.92469e-06
0.000151127
-2.94941e-06
0.000151179
-2.97902e-06
0.00015121
-3.01406e-06
0.000151221
-3.05488e-06
0.000151214
-3.10158e-06
0.000151188
-3.15414e-06
0.000151146
-3.21237e-06
0.000151087
-3.27596e-06
0.000151013
-3.3445e-06
0.000150925
-3.41749e-06
0.000150822
-3.49436e-06
0.000150706
-3.57455e-06
-3.65716e-06
0.000150578
0.000150764
-2.80964e-07
0.000150902
-8.14614e-07
0.000151115
-1.29058e-06
0.000151388
-1.70032e-06
0.000151703
-2.04389e-06
0.000152045
-2.32463e-06
0.0001524
-2.54764e-06
0.000152759
-2.71947e-06
0.000153111
-2.84733e-06
0.00015345
-2.93834e-06
0.000153772
-2.99928e-06
0.000154071
-3.0364e-06
0.000154346
-3.05531e-06
0.000154595
-3.06096e-06
0.000154817
-3.05762e-06
0.000155012
-3.04893e-06
0.000155179
-3.03792e-06
0.00015532
-3.02709e-06
0.000155434
-3.01844e-06
0.000155523
-3.01357e-06
0.000155587
-3.01367e-06
0.000155628
-3.01964e-06
0.000155646
-3.03205e-06
0.000155642
-3.05128e-06
0.000155618
-3.07744e-06
0.000155575
-3.11051e-06
0.000155513
-3.15027e-06
0.000155433
-3.1964e-06
0.000155337
-3.24842e-06
0.000155225
-3.3058e-06
0.000155099
-3.36787e-06
0.000154958
-3.43399e-06
-3.50312e-06
0.000154804
0.000155075
-3.34817e-07
0.00015523
-9.69513e-07
0.000155469
-1.52928e-06
0.000155772
-2.00281e-06
0.000156119
-2.39138e-06
0.000156495
-2.70033e-06
0.000156884
-2.937e-06
0.000157275
-3.1104e-06
0.000157658
-3.23016e-06
0.000158025
-3.30559e-06
0.000158371
-3.34533e-06
0.000158692
-3.35721e-06
0.000158985
-3.34814e-06
0.000159248
-3.3241e-06
0.00015948
-3.29016e-06
0.000159682
-3.25058e-06
0.000159853
-3.20885e-06
0.000159994
-3.16782e-06
0.000160105
-3.12975e-06
0.000160188
-3.09641e-06
0.000160243
-3.06912e-06
0.000160273
-3.04885e-06
0.000160277
-3.03624e-06
0.000160257
-3.03169e-06
0.000160215
-3.03534e-06
0.000160152
-3.04716e-06
0.000160068
-3.06693e-06
0.000159966
-3.0943e-06
0.000159847
-3.1288e-06
0.000159711
-3.16983e-06
0.00015956
-3.21672e-06
0.000159394
-3.2688e-06
-3.32499e-06
0.000159216
0.000159515
-3.98846e-07
0.000159698
-1.15247e-06
0.000159977
-1.80908e-06
0.000160329
-2.35398e-06
0.000160728
-2.79068e-06
0.000161155
-3.12757e-06
0.000161593
-3.37518e-06
0.000162029
-3.54605e-06
0.000162452
-3.65295e-06
0.000162854
-3.70774e-06
0.00016323
-3.72122e-06
0.000163576
-3.70294e-06
0.000163889
-3.66117e-06
0.000164167
-3.60295e-06
0.000164411
-3.53416e-06
0.00016462
-3.45967e-06
0.000164795
-3.38346e-06
0.000164936
-3.30869e-06
0.000165044
-3.23787e-06
0.000165121
-3.17293e-06
0.000165167
-3.11533e-06
0.000165184
-3.0661e-06
0.000165174
-3.02595e-06
0.000165137
-2.9953e-06
0.000165076
-2.97431e-06
0.000164992
-2.96295e-06
0.000164886
-2.96102e-06
0.00016476
-2.96813e-06
0.000164615
-2.98377e-06
0.000164453
-3.00731e-06
0.000164274
-3.03798e-06
0.00016408
-3.07501e-06
-3.11712e-06
0.000163872
0.00016408
-4.72845e-07
0.000164293
-1.36565e-06
0.000164616
-2.13221e-06
0.000165019
-2.7565e-06
0.000165475
-3.24646e-06
0.000165961
-3.61371e-06
0.000166458
-3.87209e-06
0.00016695
-4.03808e-06
0.000167425
-4.12812e-06
0.000167874
-4.15717e-06
0.000168292
-4.13861e-06
0.000168673
-4.08407e-06
0.000169015
-4.00348e-06
0.000169317
-3.90511e-06
0.000169579
-3.79577e-06
0.0001698
-3.68103e-06
0.000169982
-3.56532e-06
0.000170126
-3.45217e-06
0.000170232
-3.3443e-06
0.000170303
-3.24381e-06
0.00017034
-3.15225e-06
0.000170345
-3.0707e-06
0.000170318
-2.99992e-06
0.000170264
-2.94035e-06
0.000170181
-2.89217e-06
0.000170074
-2.85539e-06
0.000169943
-2.82979e-06
0.00016979
-2.81503e-06
0.000169616
-2.81062e-06
0.000169425
-2.81591e-06
0.000169217
-2.83014e-06
0.000168995
-2.85255e-06
-2.88175e-06
0.000168759
0.000168793
-5.74187e-07
0.000169073
-1.64508e-06
0.000169483
-2.54297e-06
0.00016998
-3.2527e-06
0.000170526
-3.79317e-06
0.000171096
-4.18339e-06
0.000171667
-4.44346e-06
0.000172225
-4.59552e-06
0.000172757
-4.66023e-06
0.000173255
-4.65572e-06
0.000173715
-4.59791e-06
0.000174131
-4.50045e-06
0.000174502
-4.37481e-06
0.000174828
-4.23045e-06
0.000175107
-4.07507e-06
0.000175341
-3.91489e-06
0.00017553
-3.75481e-06
0.000175677
-3.59868e-06
0.000175782
-3.44946e-06
0.000175848
-3.30937e-06
0.000175875
-3.18005e-06
0.000175867
-3.06265e-06
0.000175825
-2.95794e-06
0.000175751
-2.86639e-06
0.000175647
-2.78819e-06
0.000175515
-2.72336e-06
0.000175357
-2.67173e-06
0.000175175
-2.63295e-06
0.000174971
-2.60654e-06
0.000174747
-2.59186e-06
0.000174505
-2.58809e-06
0.000174247
-2.59433e-06
-2.60899e-06
0.000173974
0.000173621
-6.83998e-07
0.000173947
-1.9708e-06
0.000174429
-3.02549e-06
0.000175018
-3.84149e-06
0.000175672
-4.44718e-06
0.000176355
-4.86578e-06
0.000177036
-5.12487e-06
0.000177696
-5.25515e-06
0.000178319
-5.28362e-06
0.000178896
-5.23319e-06
0.000179422
-5.12346e-06
0.000179892
-4.97086e-06
0.000180306
-4.78877e-06
0.000180664
-4.58804e-06
0.000180966
-4.37732e-06
0.000181215
-4.16343e-06
0.000181412
-3.95165e-06
0.000181559
-3.74606e-06
0.000181659
-3.5497e-06
0.000181715
-3.36484e-06
0.000181728
-3.19309e-06
0.000181701
-3.03558e-06
0.000181636
-2.89302e-06
0.000181535
-2.76586e-06
0.000181401
-2.65431e-06
0.000181236
-2.55839e-06
0.000181043
-2.478e-06
0.000180823
-2.41291e-06
0.000180579
-2.36278e-06
0.000180314
-2.3271e-06
0.000180031
-2.30512e-06
0.000179733
-2.29607e-06
-2.2981e-06
0.000179422
0.000178681
-8.96209e-07
0.000179184
-2.47442e-06
0.000179849
-3.69039e-06
0.000180596
-4.5878e-06
0.000181381
-5.23269e-06
0.000182173
-5.65743e-06
0.000182946
-5.898e-06
0.000183683
-5.99251e-06
0.000184372
-5.97275e-06
0.000185005
-5.86557e-06
0.000185575
-5.69405e-06
0.000186082
-5.47723e-06
0.000186523
-5.23046e-06
0.000186901
-4.96594e-06
0.000187217
-4.69325e-06
0.000187474
-4.41977e-06
0.000187673
-4.15109e-06
0.000187818
-3.89141e-06
0.000187912
-3.64378e-06
0.000187958
-3.4104e-06
0.000187958
-3.19278e-06
0.000187914
-2.99192e-06
0.000187829
-2.80847e-06
0.000187706
-2.64275e-06
0.000187547
-2.49494e-06
0.000187354
-2.36503e-06
0.000187129
-2.25299e-06
0.000186874
-2.15868e-06
0.000186594
-2.08195e-06
0.000186289
-2.02253e-06
0.000185964
-1.97992e-06
0.000185621
-1.95348e-06
-1.94111e-06
0.000185264
0.000183744
-1.07325e-06
0.000184332
-3.06197e-06
0.000185158
-4.51627e-06
0.000186118
-5.5483e-06
0.000187131
-6.24525e-06
0.000188132
-6.65801e-06
0.000189085
-6.85193e-06
0.000189977
-6.88384e-06
0.000190798
-6.79419e-06
0.000191548
-6.61489e-06
0.000192225
-6.37178e-06
0.000192833
-6.08499e-06
0.000193373
-5.77018e-06
0.000193846
-5.43959e-06
0.000194256
-5.10265e-06
0.000194603
-4.76663e-06
0.000194889
-4.43705e-06
0.000195115
-4.11808e-06
0.000195284
-3.81281e-06
0.000195397
-3.52348e-06
0.000195456
-3.25167e-06
0.000195463
-2.99845e-06
0.000195419
-2.76454e-06
0.000195326
-2.55036e-06
0.000195188
-2.35621e-06
0.000195005
-2.18231e-06
0.000194781
-2.02891e-06
0.000194519
-1.89637e-06
0.000194222
-1.78517e-06
0.000193895
-1.69575e-06
0.000193544
-1.62842e-06
0.000193173
-1.58286e-06
-1.55749e-06
0.000192789