/*--------------------------------*- C++ -*----------------------------------*\
| =========                 |                                                 |
| \\      /  F ield         | OpenFOAM: The Open Source CFD Toolbox           |
|  \\    /   O peration     | Version:  2.1.1                                 |
|   \\  /    A nd           | Web:      www.OpenFOAM.org                      |
|    \\/     M anipulation  |                                                 |
\*---------------------------------------------------------------------------*/
FoamFile
{
    version     2.0;
    format      ascii;
    class       volVectorField;
    location    "0.02";
    object      U;
}
// * * * * * * * * * * * * * * * * * * * * * * * * * * * * * * * * * * * * * //

dimensions      [0 1 -1 0 0 0 0];

internalField   nonuniform List<vector> 
6820
(
(6.3762 0.503665 0)
(4.42531 0.286745 0)
(2.97601 0.0200462 0)
(2.23863 -0.0621366 0)
(1.97521 -0.0602826 0)
(1.8511 -0.0348992 0)
(1.77937 -0.0154813 0)
(1.73095 -0.00508751 0)
(1.69185 -0.000374192 0)
(1.65906 0.00113579 0)
(1.63207 0.00111026 0)
(1.61048 0.000486636 0)
(1.59384 -0.000303159 0)
(1.58172 -0.00106897 0)
(1.57366 -0.00173682 0)
(1.56933 -0.00226048 0)
(1.56849 -0.00272816 0)
(1.57085 -0.00328421 0)
(1.57625 -0.00365758 0)
(1.5846 -0.00389762 0)
(1.59588 -0.00415511 0)
(1.61017 -0.00446869 0)
(1.62758 -0.00481825 0)
(1.64821 -0.00519891 0)
(1.67224 -0.00561676 0)
(1.6999 -0.00608527 0)
(1.73145 -0.00664486 0)
(1.76744 -0.00729811 0)
(1.80787 -0.00824952 0)
(1.85529 -0.00909007 0)
(1.90497 -0.0119449 0)
(1.97774 -0.00879242 0)
(2.01208 -0.0473195 0)
(8.72022 0.959349 0)
(8.7656 1.01126 0)
(7.97176 0.678032 0)
(7.06137 0.392654 0)
(6.36423 0.200904 0)
(5.86257 0.101428 0)
(5.50624 0.0555171 0)
(5.25148 0.03453 0)
(5.06346 0.0247798 0)
(4.92011 0.0196259 0)
(4.80817 0.0162117 0)
(4.7194 0.0134765 0)
(4.64854 0.0110183 0)
(4.59217 0.0086706 0)
(4.54792 0.00634428 0)
(4.51415 0.00398684 0)
(4.48964 0.00158389 0)
(4.47352 -0.000949874 0)
(4.46532 -0.00360405 0)
(4.46459 -0.00646493 0)
(4.47094 -0.0094375 0)
(4.48417 -0.0126028 0)
(4.5042 -0.0159788 0)
(4.531 -0.0196486 0)
(4.56462 -0.0236885 0)
(4.60519 -0.0281636 0)
(4.65291 -0.0331848 0)
(4.70811 -0.038819 0)
(4.77116 -0.0454949 0)
(4.84306 -0.0528991 0)
(4.9239 -0.0637694 0)
(5.01868 -0.0744449 0)
(5.12384 -0.099839 0)
(8.5861 0.583104 0)
(9.33144 0.761172 0)
(9.61554 0.658137 0)
(9.50764 0.52375 0)
(9.24483 0.393482 0)
(8.93701 0.294881 0)
(8.63705 0.225254 0)
(8.36811 0.174949 0)
(8.13452 0.137956 0)
(7.93408 0.110078 0)
(7.76319 0.0883873 0)
(7.61812 0.0710087 0)
(7.4955 0.0567021 0)
(7.39248 0.0446141 0)
(7.30666 0.0341329 0)
(7.23608 0.024799 0)
(7.17911 0.0162669 0)
(7.13448 0.00829556 0)
(7.10109 0.000642095 0)
(7.07796 -0.00698305 0)
(7.06476 -0.0146247 0)
(7.06116 -0.0225275 0)
(7.06673 -0.0306638 0)
(7.08108 -0.0391277 0)
(7.10391 -0.0480428 0)
(7.13504 -0.0575434 0)
(7.17434 -0.0678045 0)
(7.22179 -0.0790207 0)
(7.27737 -0.0915995 0)
(7.34127 -0.105756 0)
(7.41335 -0.123202 0)
(7.49302 -0.143417 0)
(7.57877 -0.17456 0)
(8.44096 0.379323 0)
(8.94602 0.582859 0)
(9.35863 0.552393 0)
(9.58674 0.483758 0)
(9.70176 0.40258 0)
(9.73948 0.33208 0)
(9.72666 0.278116 0)
(9.68576 0.236343 0)
(9.62979 0.203087 0)
(9.56615 0.175733 0)
(9.49968 0.152402 0)
(9.43359 0.131935 0)
(9.37002 0.113603 0)
(9.31046 0.0968882 0)
(9.25599 0.081408 0)
(9.20727 0.0668821 0)
(9.1647 0.0530839 0)
(9.12854 0.0397995 0)
(9.09888 0.0268488 0)
(9.07582 0.0140687 0)
(9.05907 0.00116431 0)
(9.04826 -0.0118434 0)
(9.04339 -0.0251835 0)
(9.04436 -0.0389548 0)
(9.05111 -0.0532638 0)
(9.06355 -0.0682513 0)
(9.08159 -0.0841019 0)
(9.1051 -0.101025 0)
(9.13385 -0.119379 0)
(9.16758 -0.139443 0)
(9.20564 -0.162157 0)
(9.24669 -0.187408 0)
(9.28935 -0.216875 0)
(8.40216 0.279646 0)
(8.71918 0.479398 0)
(8.99935 0.459658 0)
(9.17508 0.401051 0)
(9.29977 0.337762 0)
(9.39337 0.283874 0)
(9.4627 0.243205 0)
(9.516 0.211734 0)
(9.55819 0.186116 0)
(9.59173 0.164422 0)
(9.61841 0.145364 0)
(9.63972 0.128124 0)
(9.65684 0.112185 0)
(9.67067 0.0971831 0)
(9.6819 0.0828348 0)
(9.69124 0.0689131 0)
(9.69932 0.0552337 0)
(9.70669 0.0416502 0)
(9.7138 0.0280195 0)
(9.72103 0.014242 0)
(9.72861 0.000248253 0)
(9.73655 -0.0138497 0)
(9.74489 -0.0283437 0)
(9.75377 -0.0433794 0)
(9.76328 -0.0590662 0)
(9.77345 -0.0755273 0)
(9.78429 -0.0929101 0)
(9.79574 -0.111377 0)
(9.80763 -0.131171 0)
(9.8197 -0.152482 0)
(9.83133 -0.175727 0)
(9.84159 -0.200695 0)
(9.84914 -0.2275 0)
(8.37749 0.201712 0)
(8.60156 0.38214 0)
(8.81641 0.388198 0)
(8.94796 0.352706 0)
(9.03443 0.30713 0)
(9.09782 0.26225 0)
(9.14536 0.224818 0)
(9.18428 0.19448 0)
(9.21877 0.169413 0)
(9.25023 0.148249 0)
(9.27922 0.129864 0)
(9.30609 0.113403 0)
(9.33103 0.0982791 0)
(9.35421 0.0840955 0)
(9.3758 0.0705491 0)
(9.3959 0.0573926 0)
(9.41458 0.0444315 0)
(9.4319 0.0315127 0)
(9.44795 0.0185017 0)
(9.46277 0.005328 0)
(9.47655 -0.00806082 0)
(9.48969 -0.0218531 0)
(9.50227 -0.0360812 0)
(9.51442 -0.0508551 0)
(9.52615 -0.0662827 0)
(9.53748 -0.0824696 0)
(9.54838 -0.0995354 0)
(9.55878 -0.117604 0)
(9.56856 -0.136829 0)
(9.57749 -0.15731 0)
(9.58515 -0.179183 0)
(9.59098 -0.202159 0)
(9.59431 -0.225922 0)
(8.3613 0.148298 0)
(8.52291 0.309804 0)
(8.69803 0.334322 0)
(8.81337 0.313576 0)
(8.88873 0.27903 0)
(8.94273 0.241383 0)
(8.98155 0.208102 0)
(9.01135 0.180364 0)
(9.03654 0.156978 0)
(9.05903 0.136872 0)
(9.07974 0.119175 0)
(9.09927 0.1032 0)
(9.11792 0.0884537 0)
(9.13585 0.0745768 0)
(9.15318 0.0612945 0)
(9.16995 0.0483925 0)
(9.18622 0.0356976 0)
(9.20202 0.0230637 0)
(9.21739 0.01036 0)
(9.23234 -0.00251496 0)
(9.24696 -0.0157417 0)
(9.26129 -0.0294502 0)
(9.27533 -0.0436622 0)
(9.28911 -0.0584543 0)
(9.30265 -0.0739116 0)
(9.31595 -0.0901196 0)
(9.32897 -0.107173 0)
(9.34165 -0.125167 0)
(9.35387 -0.144194 0)
(9.36543 -0.164288 0)
(9.37606 -0.18544 0)
(9.3854 -0.207361 0)
(9.39313 -0.229675 0)
(8.35117 0.110818 0)
(8.46758 0.249852 0)
(8.60871 0.283505 0)
(8.71096 0.274018 0)
(8.78148 0.250276 0)
(8.834 0.221284 0)
(8.87285 0.193446 0)
(8.90259 0.168844 0)
(8.92717 0.147183 0)
(8.94861 0.127959 0)
(8.96795 0.110689 0)
(8.98591 0.0949051 0)
(9.00293 0.0802206 0)
(9.01926 0.0663331 0)
(9.03507 0.0530004 0)
(9.05049 0.0400205 0)
(9.0656 0.0272212 0)
(9.08046 0.0144542 0)
(9.09512 0.00158666 0)
(9.10961 -0.0115186 0)
(9.12394 -0.0249443 0)
(9.13812 -0.0387897 0)
(9.15214 -0.0531139 0)
(9.16601 -0.0679949 0)
(9.17973 -0.0835201 0)
(9.19329 -0.0997718 0)
(9.20663 -0.116827 0)
(9.2197 -0.13475 0)
(9.23239 -0.153585 0)
(9.24455 -0.173321 0)
(9.25598 -0.193881 0)
(9.26648 -0.215002 0)
(9.27593 -0.236339 0)
(8.34488 0.0840967 0)
(8.42954 0.20183 0)
(8.54266 0.240487 0)
(8.63188 0.239813 0)
(8.6965 0.22416 0)
(8.74638 0.201529 0)
(8.78477 0.177743 0)
(8.81487 0.155618 0)
(8.83997 0.135562 0)
(8.86189 0.117401 0)
(8.8816 0.100851 0)
(8.89979 0.0855654 0)
(8.9169 0.0712258 0)
(8.93323 0.0575724 0)
(8.94895 0.0443899 0)
(8.96421 0.0314954 0)
(8.97911 0.0187338 0)
(8.99372 0.0059693 0)
(9.00809 -0.00691669 0)
(9.02226 -0.0200292 0)
(9.03626 -0.0334676 0)
(9.0501 -0.0473387 0)
(9.06378 -0.0617193 0)
(9.07731 -0.0766814 0)
(9.09068 -0.0922962 0)
(9.10387 -0.108627 0)
(9.11687 -0.125729 0)
(9.1296 -0.143643 0)
(9.14198 -0.162384 0)
(9.1539 -0.181917 0)
(9.16527 -0.202143 0)
(9.17596 -0.222842 0)
(9.186 -0.243741 0)
(8.34095 0.0648081 0)
(8.40322 0.163363 0)
(8.4937 0.203162 0)
(8.57083 0.208272 0)
(8.62952 0.198554 0)
(8.67636 0.181298 0)
(8.71369 0.161535 0)
(8.74365 0.142168 0)
(8.76885 0.123977 0)
(8.7909 0.107041 0)
(8.81074 0.0912701 0)
(8.82901 0.0764735 0)
(8.84615 0.062434 0)
(8.86244 0.0489542 0)
(8.87809 0.0358588 0)
(8.89324 0.0229915 0)
(8.90798 0.010213 0)
(8.92239 -0.00260233 0)
(8.93653 -0.0155665 0)
(8.95043 -0.0287846 0)
(8.96414 -0.0423527 0)
(8.97766 -0.0563584 0)
(8.99101 -0.0708702 0)
(9.00419 -0.0859512 0)
(9.0172 -0.101664 0)
(9.03002 -0.118065 0)
(9.04262 -0.135198 0)
(9.05496 -0.15309 0)
(9.06699 -0.171738 0)
(9.07863 -0.191102 0)
(9.08984 -0.211085 0)
(9.10059 -0.23152 0)
(9.11094 -0.252211 0)
(8.33847 0.05061 0)
(8.38485 0.132421 0)
(8.45729 0.170972 0)
(8.52362 0.179957 0)
(8.57665 0.174837 0)
(8.62033 0.161989 0)
(8.65621 0.145642 0)
(8.6857 0.128618 0)
(8.71077 0.112005 0)
(8.73284 0.0961282 0)
(8.75273 0.0810681 0)
(8.77105 0.066756 0)
(8.7882 0.0530515 0)
(8.80447 0.0398026 0)
(8.82005 0.0268632 0)
(8.83509 0.0140962 0)
(8.84969 0.00137493 0)
(8.86391 -0.0114159 0)
(8.87783 -0.0243814 0)
(8.89148 -0.037618 0)
(8.90489 -0.0512133 0)
(8.91809 -0.0652486 0)
(8.93108 -0.0797948 0)
(8.94387 -0.0949152 0)
(8.95646 -0.110667 0)
(8.96884 -0.127098 0)
(8.98098 -0.144241 0)
(8.99286 -0.162113 0)
(9.00444 -0.180705 0)
(9.01571 -0.19998 0)
(9.02663 -0.219858 0)
(9.03724 -0.240219 0)
(9.04761 -0.260935 0)
(8.33688 0.0399484 0)
(8.37192 0.107471 0)
(8.43006 0.143281 0)
(8.48685 0.154443 0)
(8.5345 0.152534 0)
(8.57498 0.143045 0)
(8.60922 0.129557 0)
(8.63804 0.114679 0)
(8.66289 0.0996394 0)
(8.68491 0.0849035 0)
(8.70484 0.0706553 0)
(8.72318 0.0569149 0)
(8.74034 0.0436096 0)
(8.75658 0.0306348 0)
(8.77209 0.0178779 0)
(8.787 0.00522524 0)
(8.80143 -0.00743238 0)
(8.81545 -0.0201984 0)
(8.82912 -0.0331687 0)
(8.84248 -0.0464326 0)
(8.85555 -0.0600725 0)
(8.86837 -0.0741638 0)
(8.88095 -0.088772 0)
(8.89329 -0.103954 0)
(8.9054 -0.119759 0)
(8.91727 -0.136227 0)
(8.92889 -0.153385 0)
(8.94024 -0.171248 0)
(8.95132 -0.189806 0)
(8.96211 -0.209029 0)
(8.97262 -0.228863 0)
(8.98291 -0.249229 0)
(8.99306 -0.270054 0)
(8.33584 0.0317734 0)
(8.36272 0.0872209 0)
(8.40958 0.119443 0)
(8.4581 0.131498 0)
(8.50074 0.131775 0)
(8.53808 0.124871 0)
(8.57054 0.113773 0)
(8.5985 0.100784 0)
(8.62296 0.0871564 0)
(8.64481 0.0734552 0)
(8.66468 0.0599506 0)
(8.683 0.0467415 0)
(8.70014 0.0338177 0)
(8.71632 0.0211178 0)
(8.73175 0.00855849 0)
(8.74654 -0.00395326 0)
(8.7608 -0.0165119 0)
(8.7746 -0.0292104 0)
(8.788 -0.0421369 0)
(8.80104 -0.0553743 0)
(8.81376 -0.0689994 0)
(8.82618 -0.0830818 0)
(8.8383 -0.0976834 0)
(8.85016 -0.112858 0)
(8.86174 -0.128652 0)
(8.87305 -0.145103 0)
(8.88409 -0.162236 0)
(8.89484 -0.180063 0)
(8.90532 -0.198581 0)
(8.91554 -0.217771 0)
(8.9255 -0.2376 0)
(8.93529 -0.258026 0)
(8.94496 -0.279012 0)
(8.33514 0.0253721 0)
(8.35608 0.0706578 0)
(8.3941 0.0989061 0)
(8.43553 0.110887 0)
(8.47358 0.112485 0)
(8.50788 0.107432 0)
(8.53849 0.0982076 0)
(8.56544 0.0868005 0)
(8.58938 0.074425 0)
(8.61097 0.0616962 0)
(8.63071 0.0489358 0)
(8.64897 0.0362921 0)
(8.66604 0.0237985 0)
(8.68216 0.0114266 0)
(8.69748 -0.000882709 0)
(8.71212 -0.013204 0)
(8.72618 -0.0256188 0)
(8.73974 -0.038209 0)
(8.75284 -0.0510548 0)
(8.76554 -0.0642325 0)
(8.77786 -0.0778131 0)
(8.78983 -0.0918615 0)
(8.80146 -0.106436 0)
(8.81278 -0.121586 0)
(8.82378 -0.137354 0)
(8.83448 -0.153775 0)
(8.84488 -0.170871 0)
(8.85499 -0.188658 0)
(8.8648 -0.207136 0)
(8.87435 -0.2263 0)
(8.88366 -0.246133 0)
(8.89279 -0.266621 0)
(8.9018 -0.287754 0)
(8.33466 0.0202566 0)
(8.35123 0.05698 0)
(8.38233 0.0811594 0)
(8.41776 0.0923616 0)
(8.45166 0.0945868 0)
(8.48311 0.0907894 0)
(8.51185 0.0830041 0)
(8.5377 0.0729136 0)
(8.56101 0.0616364 0)
(8.58225 0.049793 0)
(8.60178 0.0377303 0)
(8.61991 0.0256295 0)
(8.63688 0.0135589 0)
(8.65288 0.00151841 0)
(8.66806 -0.010529 0)
(8.68252 -0.0226407 0)
(8.69636 -0.0348851 0)
(8.70965 -0.0473348 0)
(8.72243 -0.0600624 0)
(8.73476 -0.0731381 0)
(8.74665 -0.086628 0)
(8.75815 -0.100593 0)
(8.76926 -0.115087 0)
(8.78001 -0.130158 0)
(8.7904 -0.145846 0)
(8.80045 -0.162185 0)
(8.81017 -0.179198 0)
(8.81956 -0.196903 0)
(8.82864 -0.215308 0)
(8.83744 -0.234416 0)
(8.84598 -0.254228 0)
(8.85432 -0.274746 0)
(8.8625 -0.295979 0)
(8.33432 0.016088 0)
(8.34765 0.0455602 0)
(8.37332 0.0657535 0)
(8.40374 0.0756843 0)
(8.43394 0.0779876 0)
(8.46274 0.0749388 0)
(8.48966 0.0681875 0)
(8.51437 0.0591336 0)
(8.53698 0.0487752 0)
(8.55778 0.0377112 0)
(8.57705 0.0262946 0)
(8.59499 0.0147243 0)
(8.61181 0.00309004 0)
(8.62767 -0.0085884 0)
(8.64268 -0.020332 0)
(8.65694 -0.0321855 0)
(8.67054 -0.0442077 0)
(8.68353 -0.0564631 0)
(8.69597 -0.0690182 0)
(8.70789 -0.0819382 0)
(8.71933 -0.0952848 0)
(8.73032 -0.109115 0)
(8.74088 -0.12348 0)
(8.75102 -0.138426 0)
(8.76076 -0.153991 0)
(8.77012 -0.170208 0)
(8.7791 -0.187101 0)
(8.78773 -0.204689 0)
(8.79602 -0.222988 0)
(8.80398 -0.242006 0)
(8.81167 -0.261755 0)
(8.8191 -0.282251 0)
(8.82633 -0.303507 0)
(8.33408 0.0126269 0)
(8.34497 0.035908 0)
(8.3664 0.0522937 0)
(8.39265 0.060623 0)
(8.41961 0.0625734 0)
(8.44601 0.0598551 0)
(8.47119 0.0537878 0)
(8.49475 0.0455197 0)
(8.51662 0.035917 0)
(8.53694 0.0255337 0)
(8.55589 0.0147106 0)
(8.5736 0.00364909 0)
(8.59024 -0.00755034 0)
(8.60591 -0.0188549 0)
(8.62072 -0.0302739 0)
(8.63475 -0.041842 0)
(8.64808 -0.0536094 0)
(8.66075 -0.0656339 0)
(8.67282 -0.0779762 0)
(8.68431 -0.0906969 0)
(8.69528 -0.103854 0)
(8.70573 -0.117501 0)
(8.71571 -0.131687 0)
(8.72521 -0.146455 0)
(8.73427 -0.161844 0)
(8.7429 -0.177884 0)
(8.75111 -0.194603 0)
(8.75892 -0.212021 0)
(8.76635 -0.230157 0)
(8.77343 -0.249026 0)
(8.78017 -0.268646 0)
(8.78661 -0.28904 0)
(8.79277 -0.310224 0)
(8.33389 0.0097007 0)
(8.34295 0.0276399 0)
(8.36106 0.0404377 0)
(8.38388 0.0469561 0)
(8.40805 0.0482222 0)
(8.43228 0.0454918 0)
(8.45586 0.0398042 0)
(8.4783 0.0320884 0)
(8.49941 0.0230781 0)
(8.51923 0.0132689 0)
(8.53782 0.00297738 0)
(8.55527 -0.00760258 0)
(8.57169 -0.0183681 0)
(8.58715 -0.0292801 0)
(8.60174 -0.0403409 0)
(8.61552 -0.0515791 0)
(8.62855 -0.0630392 0)
(8.64088 -0.0747745 0)
(8.65255 -0.0868418 0)
(8.6636 -0.0992984 0)
(8.67406 -0.112199 0)
(8.68396 -0.125597 0)
(8.69332 -0.139537 0)
(8.70216 -0.154063 0)
(8.7105 -0.16921 0)
(8.71836 -0.185011 0)
(8.72576 -0.201493 0)
(8.73271 -0.218678 0)
(8.73924 -0.236587 0)
(8.74536 -0.255239 0)
(8.7511 -0.274653 0)
(8.75648 -0.294856 0)
(8.7615 -0.31586 0)
(8.33375 0.0071821 0)
(8.34142 0.0204536 0)
(8.35693 0.0298906 0)
(8.37696 0.0344739 0)
(8.39874 0.0348039 0)
(8.42107 0.0317825 0)
(8.4432 0.0262157 0)
(8.46458 0.0188444 0)
(8.48496 0.0102767 0)
(8.50427 0.000941966 0)
(8.52249 -0.00887672 0)
(8.53966 -0.0190024 0)
(8.55584 -0.0293382 0)
(8.57107 -0.0398453 0)
(8.58542 -0.0505243 0)
(8.59893 -0.0614005 0)
(8.61165 -0.0725155 0)
(8.62362 -0.0839192 0)
(8.63488 -0.0956657 0)
(8.64546 -0.10781 0)
(8.65539 -0.120404 0)
(8.66471 -0.133498 0)
(8.67343 -0.147138 0)
(8.68158 -0.161364 0)
(8.68917 -0.176212 0)
(8.69624 -0.191714 0)
(8.70279 -0.207895 0)
(8.70885 -0.224781 0)
(8.71443 -0.242391 0)
(8.71955 -0.260746 0)
(8.72423 -0.279866 0)
(8.72849 -0.299777 0)
(8.73232 -0.320485 0)
(8.33365 0.00497479 0)
(8.34024 0.0141086 0)
(8.35374 0.0203966 0)
(8.37152 0.0229778 0)
(8.3913 0.0221823 0)
(8.41199 0.0186452 0)
(8.43284 0.0129817 0)
(8.45327 0.00577345 0)
(8.47296 -0.00248686 0)
(8.49177 -0.0114385 0)
(8.50963 -0.0208381 0)
(8.52651 -0.0305318 0)
(8.54244 -0.0404349 0)
(8.55744 -0.0505142 0)
(8.57153 -0.0607722 0)
(8.58475 -0.071235 0)
(8.59714 -0.0819433 0)
(8.60873 -0.0929467 0)
(8.61956 -0.104298 0)
(8.62966 -0.116051 0)
(8.63905 -0.128258 0)
(8.64776 -0.140967 0)
(8.65582 -0.154223 0)
(8.66325 -0.168066 0)
(8.67008 -0.182531 0)
(8.67632 -0.197649 0)
(8.68199 -0.213448 0)
(8.68712 -0.229949 0)
(8.69172 -0.247174 0)
(8.69581 -0.265141 0)
(8.6994 -0.28387 0)
(8.7025 -0.303381 0)
(8.70511 -0.323679 0)
(8.33357 0.00300403 0)
(8.33936 0.00841099 0)
(8.35129 0.0117351 0)
(8.36728 0.0122812 0)
(8.38543 0.0102173 0)
(8.40475 0.0059835 0)
(8.42449 3.9795e-05 0)
(8.44409 -0.00716467 0)
(8.46317 -0.0152412 0)
(8.48153 -0.0238975 0)
(8.49905 -0.0329341 0)
(8.51567 -0.0422253 0)
(8.53135 -0.051704 0)
(8.54611 -0.0613474 0)
(8.55995 -0.0711642 0)
(8.57288 -0.0811839 0)
(8.58494 -0.0914494 0)
(8.59615 -0.102011 0)
(8.60654 -0.112921 0)
(8.61613 -0.124234 0)
(8.62496 -0.136001 0)
(8.63305 -0.148269 0)
(8.64043 -0.161084 0)
(8.64713 -0.174483 0)
(8.65316 -0.188502 0)
(8.65855 -0.203171 0)
(8.66332 -0.218514 0)
(8.6675 -0.234555 0)
(8.67109 -0.251313 0)
(8.67411 -0.268804 0)
(8.67658 -0.287043 0)
(8.6785 -0.306049 0)
(8.67987 -0.325816 0)
(8.33351 0.00120881 0)
(8.33869 0.00319859 0)
(8.34944 0.00370872 0)
(8.36404 0.00220493 0)
(8.38089 -0.00123539 0)
(8.39909 -0.00631082 0)
(8.41793 -0.0126827 0)
(8.43683 -0.0200122 0)
(8.4554 -0.0280016 0)
(8.47337 -0.0364247 0)
(8.4906 -0.0451273 0)
(8.50697 -0.0540158 0)
(8.52243 -0.0630447 0)
(8.53696 -0.0722062 0)
(8.55054 -0.081519 0)
(8.56318 -0.0910197 0)
(8.5749 -0.100756 0)
(8.58572 -0.110781 0)
(8.59565 -0.121151 0)
(8.60473 -0.131921 0)
(8.61299 -0.143142 0)
(8.62045 -0.154865 0)
(8.62713 -0.167132 0)
(8.63307 -0.179983 0)
(8.63829 -0.193452 0)
(8.64281 -0.207567 0)
(8.64666 -0.222354 0)
(8.64986 -0.237834 0)
(8.65243 -0.254022 0)
(8.65437 -0.270933 0)
(8.65571 -0.288579 0)
(8.65644 -0.306971 0)
(8.65659 -0.326099 0)
(8.33347 -0.000459844 0)
(8.3382 -0.00166442 0)
(8.34808 -0.00385732 0)
(8.36165 -0.00742389 0)
(8.37752 -0.0123294 0)
(8.39486 -0.0183689 0)
(8.41302 -0.0252984 0)
(8.43139 -0.0328723 0)
(8.44956 -0.0408741 0)
(8.46725 -0.0491405 0)
(8.48425 -0.0575638 0)
(8.50044 -0.0660844 0)
(8.51572 -0.074682 0)
(8.53005 -0.0833663 0)
(8.54341 -0.0921685 0)
(8.55578 -0.101134 0)
(8.56717 -0.110318 0)
(8.5776 -0.119777 0)
(8.58708 -0.129571 0)
(8.59564 -0.139756 0)
(8.60332 -0.150387 0)
(8.61013 -0.161512 0)
(8.6161 -0.173177 0)
(8.62127 -0.18542 0)
(8.62566 -0.198275 0)
(8.6293 -0.211769 0)
(8.63221 -0.225926 0)
(8.63441 -0.240765 0)
(8.63593 -0.256299 0)
(8.63678 -0.27254 0)
(8.63698 -0.289493 0)
(8.63652 -0.307166 0)
(8.63543 -0.325542 0)
(8.33344 -0.00204584 0)
(8.33787 -0.00629986 0)
(8.34715 -0.0111268 0)
(8.35999 -0.0167741 0)
(8.37517 -0.0232168 0)
(8.39193 -0.0303127 0)
(8.40961 -0.0378906 0)
(8.42762 -0.0457802 0)
(8.44554 -0.0538359 0)
(8.46303 -0.0619538 0)
(8.47989 -0.0700732 0)
(8.49594 -0.0781719 0)
(8.51109 -0.0862584 0)
(8.52525 -0.094365 0)
(8.53839 -0.10254 0)
(8.5505 -0.110843 0)
(8.56157 -0.119337 0)
(8.57161 -0.128089 0)
(8.58064 -0.137162 0)
(8.58869 -0.146619 0)
(8.59578 -0.156515 0)
(8.60193 -0.166903 0)
(8.60719 -0.177828 0)
(8.61158 -0.189329 0)
(8.61513 -0.20144 0)
(8.61787 -0.214187 0)
(8.61983 -0.227594 0)
(8.62104 -0.241675 0)
(8.62151 -0.256443 0)
(8.62127 -0.271905 0)
(8.62033 -0.288062 0)
(8.61871 -0.304918 0)
(8.61641 -0.322447 0)
(8.33342 -0.00359082 0)
(8.33767 -0.0108234 0)
(8.34659 -0.0182631 0)
(8.35901 -0.0260288 0)
(8.3738 -0.0340883 0)
(8.39025 -0.0423424 0)
(8.4077 -0.0506785 0)
(8.42558 -0.0589922 0)
(8.44342 -0.0672026 0)
(8.46088 -0.0752618 0)
(8.47773 -0.083155 0)
(8.49376 -0.0908969 0)
(8.50885 -0.0985253 0)
(8.52291 -0.106095 0)
(8.5359 -0.113672 0)
(8.5478 -0.121329 0)
(8.55858 -0.129141 0)
(8.56826 -0.137181 0)
(8.57685 -0.145522 0)
(8.58438 -0.154227 0)
(8.59088 -0.163359 0)
(8.59638 -0.172971 0)
(8.60091 -0.183111 0)
(8.60451 -0.193818 0)
(8.60721 -0.205126 0)
(8.60904 -0.217063 0)
(8.61004 -0.229648 0)
(8.61023 -0.242896 0)
(8.60964 -0.256816 0)
(8.60829 -0.271411 0)
(8.60622 -0.28668 0)
(8.60341 -0.302618 0)
(8.59991 -0.319197 0)
(8.33341 -0.0051333 0)
(8.33759 -0.0153447 0)
(8.34638 -0.0254213 0)
(8.35866 -0.0353544 0)
(8.37335 -0.0450877 0)
(8.38975 -0.0545445 0)
(8.40721 -0.0636549 0)
(8.42515 -0.072371 0)
(8.44307 -0.0806724 0)
(8.46064 -0.0885686 0)
(8.47757 -0.0960957 0)
(8.49365 -0.103312 0)
(8.50875 -0.110291 0)
(8.52277 -0.117118 0)
(8.53565 -0.123883 0)
(8.54735 -0.130676 0)
(8.55787 -0.137586 0)
(8.5672 -0.1447 0)
(8.57537 -0.152095 0)
(8.5824 -0.159846 0)
(8.58831 -0.168016 0)
(8.59316 -0.176663 0)
(8.59696 -0.185837 0)
(8.59977 -0.195578 0)
(8.60161 -0.205922 0)
(8.60253 -0.216895 0)
(8.60256 -0.228516 0)
(8.60174 -0.240797 0)
(8.6001 -0.253746 0)
(8.59767 -0.267363 0)
(8.59447 -0.281642 0)
(8.59053 -0.296576 0)
(8.58588 -0.312131 0)
(8.33342 -0.00671501 0)
(8.33764 -0.0199865 0)
(8.34653 -0.0327927 0)
(8.35898 -0.0450043 0)
(8.3739 -0.0565423 0)
(8.39059 -0.0673512 0)
(8.4084 -0.0774016 0)
(8.42669 -0.0866967 0)
(8.44498 -0.0952702 0)
(8.46288 -0.103181 0)
(8.4801 -0.110511 0)
(8.49641 -0.117355 0)
(8.51166 -0.123821 0)
(8.52575 -0.13002 0)
(8.5386 -0.136065 0)
(8.55018 -0.142065 0)
(8.56048 -0.148127 0)
(8.5695 -0.154347 0)
(8.57727 -0.160815 0)
(8.5838 -0.167611 0)
(8.58914 -0.174808 0)
(8.59333 -0.182468 0)
(8.5964 -0.190643 0)
(8.5984 -0.199378 0)
(8.59937 -0.208709 0)
(8.59936 -0.218662 0)
(8.59841 -0.229256 0)
(8.59656 -0.240504 0)
(8.59385 -0.252409 0)
(8.59031 -0.26497 0)
(8.58598 -0.278176 0)
(8.58088 -0.292016 0)
(8.57503 -0.306451 0)
(8.33343 -0.00838101 0)
(8.33781 -0.0248704 0)
(8.34704 -0.0405316 0)
(8.35994 -0.055095 0)
(8.37538 -0.0684405 0)
(8.39263 -0.0805213 0)
(8.41101 -0.0913462 0)
(8.42987 -0.100978 0)
(8.4487 -0.109521 0)
(8.46708 -0.117103 0)
(8.48472 -0.123864 0)
(8.50137 -0.129955 0)
(8.51687 -0.135527 0)
(8.53111 -0.140726 0)
(8.54401 -0.145692 0)
(8.55553 -0.150558 0)
(8.56567 -0.155445 0)
(8.57443 -0.160463 0)
(8.58183 -0.165713 0)
(8.5879 -0.171281 0)
(8.59268 -0.177246 0)
(8.59622 -0.183674 0)
(8.59856 -0.190621 0)
(8.59976 -0.198133 0)
(8.59987 -0.206248 0)
(8.59893 -0.214993 0)
(8.597 -0.224388 0)
(8.59412 -0.234444 0)
(8.59035 -0.245164 0)
(8.58572 -0.256545 0)
(8.58028 -0.268575 0)
(8.57406 -0.281242 0)
(8.56712 -0.294501 0)
(8.33346 -0.0101888 0)
(8.33816 -0.0301828 0)
(8.34804 -0.0489834 0)
(8.36182 -0.0661993 0)
(8.37827 -0.0816951 0)
(8.3966 -0.0954408 0)
(8.41605 -0.107472 0)
(8.43594 -0.117889 0)
(8.4557 -0.12684 0)
(8.47491 -0.134501 0)
(8.49324 -0.141061 0)
(8.51045 -0.146713 0)
(8.52637 -0.151649 0)
(8.54089 -0.156054 0)
(8.55393 -0.160101 0)
(8.56546 -0.163949 0)
(8.57548 -0.167742 0)
(8.584 -0.171611 0)
(8.59105 -0.175669 0)
(8.59666 -0.180018 0)
(8.60089 -0.184744 0)
(8.60378 -0.189921 0)
(8.6054 -0.195611 0)
(8.60579 -0.201866 0)
(8.60501 -0.208724 0)
(8.60313 -0.216216 0)
(8.6002 -0.224363 0)
(8.59628 -0.233175 0)
(8.59141 -0.242655 0)
(8.58566 -0.252797 0)
(8.57907 -0.263585 0)
(8.57168 -0.275003 0)
(8.56353 -0.287001 0)
(8.3335 -0.0121993 0)
(8.33864 -0.036041 0)
(8.34941 -0.0581529 0)
(8.36434 -0.0779538 0)
(8.38203 -0.0952832 0)
(8.40165 -0.11016 0)
(8.4224 -0.122707 0)
(8.44353 -0.133134 0)
(8.46445 -0.141697 0)
(8.4847 -0.148661 0)
(8.50395 -0.154289 0)
(8.52193 -0.158833 0)
(8.53846 -0.162529 0)
(8.55343 -0.165597 0)
(8.56677 -0.168236 0)
(8.57845 -0.170623 0)
(8.58847 -0.172919 0)
(8.59685 -0.175266 0)
(8.60362 -0.177786 0)
(8.60883 -0.180589 0)
(8.61254 -0.183767 0)
(8.61481 -0.1874 0)
(8.6157 -0.191554 0)
(8.61528 -0.196285 0)
(8.61361 -0.201634 0)
(8.61076 -0.207636 0)
(8.60681 -0.214314 0)
(8.60181 -0.221681 0)
(8.59584 -0.229741 0)
(8.58896 -0.238489 0)
(8.58124 -0.247912 0)
(8.57272 -0.257994 0)
(8.56349 -0.268683 0)
(8.33358 -0.0145274 0)
(8.3395 -0.0429206 0)
(8.35184 -0.0691428 0)
(8.36879 -0.0924838 0)
(8.38868 -0.112767 0)
(8.41049 -0.129984 0)
(8.43331 -0.144236 0)
(8.45631 -0.155757 0)
(8.47887 -0.164858 0)
(8.50052 -0.171874 0)
(8.52093 -0.177144 0)
(8.53984 -0.180997 0)
(8.55709 -0.18374 0)
(8.57258 -0.185652 0)
(8.58626 -0.186984 0)
(8.59811 -0.187956 0)
(8.60814 -0.18876 0)
(8.61638 -0.189564 0)
(8.62288 -0.190511 0)
(8.6277 -0.191725 0)
(8.6309 -0.193309 0)
(8.63255 -0.19535 0)
(8.63272 -0.197924 0)
(8.63149 -0.201087 0)
(8.62893 -0.20489 0)
(8.62512 -0.209366 0)
(8.62014 -0.214543 0)
(8.61407 -0.220434 0)
(8.60697 -0.227044 0)
(8.59892 -0.234368 0)
(8.58999 -0.242388 0)
(8.58024 -0.251084 0)
(8.56974 -0.260397 0)
(8.33365 -0.0172363 0)
(8.34033 -0.0505974 0)
(8.35427 -0.0806197 0)
(8.37325 -0.106415 0)
(8.39536 -0.128015 0)
(8.41952 -0.145678 0)
(8.44472 -0.159746 0)
(8.47004 -0.170642 0)
(8.49475 -0.178808 0)
(8.51835 -0.184663 0)
(8.54045 -0.188601 0)
(8.56079 -0.190988 0)
(8.57921 -0.192157 0)
(8.59561 -0.192407 0)
(8.60994 -0.192003 0)
(8.62222 -0.191181 0)
(8.63246 -0.190146 0)
(8.64072 -0.189075 0)
(8.64707 -0.188125 0)
(8.65156 -0.187427 0)
(8.65429 -0.187093 0)
(8.65533 -0.187221 0)
(8.65477 -0.18789 0)
(8.6527 -0.189168 0)
(8.64921 -0.191108 0)
(8.64437 -0.193755 0)
(8.63829 -0.197139 0)
(8.63105 -0.201284 0)
(8.62274 -0.206199 0)
(8.61347 -0.211886 0)
(8.60331 -0.218333 0)
(8.59235 -0.225527 0)
(8.58071 -0.233406 0)
(8.33389 -0.0207119 0)
(8.34262 -0.0611598 0)
(8.3602 -0.0978264 0)
(8.38335 -0.129488 0)
(8.40949 -0.155927 0)
(8.43732 -0.177179 0)
(8.46575 -0.193554 0)
(8.49382 -0.205618 0)
(8.52086 -0.214008 0)
(8.54642 -0.219341 0)
(8.57015 -0.222197 0)
(8.59183 -0.223101 0)
(8.61132 -0.222511 0)
(8.62854 -0.220822 0)
(8.64349 -0.218372 0)
(8.65617 -0.215444 0)
(8.66662 -0.212278 0)
(8.67491 -0.209076 0)
(8.68112 -0.206006 0)
(8.68532 -0.20321 0)
(8.68762 -0.200806 0)
(8.68809 -0.198895 0)
(8.68684 -0.197561 0)
(8.68396 -0.196872 0)
(8.67955 -0.196888 0)
(8.6737 -0.197656 0)
(8.66652 -0.199213 0)
(8.6581 -0.201586 0)
(8.64854 -0.204789 0)
(8.63795 -0.208826 0)
(8.62642 -0.213683 0)
(8.61405 -0.219344 0)
(8.60091 -0.225736 0)
(8.33386 -0.0246911 0)
(8.34342 -0.0711443 0)
(8.36343 -0.110617 0)
(8.39002 -0.142833 0)
(8.4203 -0.168848 0)
(8.45273 -0.189311 0)
(8.48582 -0.204766 0)
(8.51826 -0.215855 0)
(8.54923 -0.223193 0)
(8.57818 -0.227352 0)
(8.60474 -0.228873 0)
(8.6287 -0.228261 0)
(8.64996 -0.225975 0)
(8.6685 -0.222423 0)
(8.68434 -0.217963 0)
(8.69756 -0.212907 0)
(8.70825 -0.207521 0)
(8.7165 -0.202032 0)
(8.72243 -0.19663 0)
(8.72615 -0.191476 0)
(8.72778 -0.186704 0)
(8.72743 -0.182428 0)
(8.7252 -0.178741 0)
(8.72121 -0.175724 0)
(8.71556 -0.173445 0)
(8.70837 -0.171962 0)
(8.69973 -0.171323 0)
(8.68978 -0.171567 0)
(8.67861 -0.172727 0)
(8.66638 -0.174823 0)
(8.6532 -0.177858 0)
(8.63921 -0.181834 0)
(8.62455 -0.186671 0)
(8.33496 -0.0315062 0)
(8.35118 -0.0931807 0)
(8.37993 -0.146795 0)
(8.4141 -0.190208 0)
(8.45019 -0.223757 0)
(8.48726 -0.248235 0)
(8.52408 -0.26494 0)
(8.55956 -0.275335 0)
(8.59299 -0.280691 0)
(8.62394 -0.282076 0)
(8.65209 -0.280395 0)
(8.67727 -0.276396 0)
(8.69942 -0.270685 0)
(8.71855 -0.263755 0)
(8.73474 -0.256009 0)
(8.74809 -0.247774 0)
(8.75871 -0.239316 0)
(8.76675 -0.230855 0)
(8.77232 -0.222572 0)
(8.77556 -0.214616 0)
(8.77659 -0.207112 0)
(8.77555 -0.200166 0)
(8.77254 -0.193868 0)
(8.76767 -0.188297 0)
(8.76106 -0.183525 0)
(8.75281 -0.179616 0)
(8.74302 -0.176628 0)
(8.73181 -0.174615 0)
(8.7193 -0.173624 0)
(8.70561 -0.173687 0)
(8.69087 -0.174815 0)
(8.67525 -0.177011 0)
(8.65887 -0.180184 0)
(8.33402 -0.0364299 0)
(8.34975 -0.099159 0)
(8.38341 -0.147962 0)
(8.42575 -0.187518 0)
(8.47126 -0.219771 0)
(8.51746 -0.244435 0)
(8.5622 -0.261939 0)
(8.60424 -0.273165 0)
(8.64318 -0.278953 0)
(8.67887 -0.280168 0)
(8.71127 -0.277691 0)
(8.74045 -0.272336 0)
(8.76649 -0.264814 0)
(8.78949 -0.255734 0)
(8.80953 -0.2456 0)
(8.82669 -0.234826 0)
(8.84105 -0.223741 0)
(8.85268 -0.21261 0)
(8.86166 -0.201644 0)
(8.86805 -0.191008 0)
(8.87195 -0.180837 0)
(8.87343 -0.171239 0)
(8.87257 -0.162304 0)
(8.86946 -0.154111 0)
(8.8642 -0.14673 0)
(8.85689 -0.140227 0)
(8.84764 -0.134673 0)
(8.83657 -0.130145 0)
(8.82384 -0.126727 0)
(8.80964 -0.12451 0)
(8.79419 -0.123574 0)
(8.77775 -0.123985 0)
(8.76055 -0.125663 0)
(8.33958 -0.0605012 0)
(8.37696 -0.16973 0)
(8.426 -0.247984 0)
(8.47551 -0.300831 0)
(8.52746 -0.335338 0)
(8.58328 -0.355845 0)
(8.64132 -0.366399 0)
(8.70015 -0.370048 0)
(8.75872 -0.368708 0)
(8.81585 -0.363674 0)
(8.87043 -0.355865 0)
(8.9216 -0.345938 0)
(8.96877 -0.334393 0)
(9.01149 -0.321627 0)
(9.04954 -0.307974 0)
(9.08282 -0.293717 0)
(9.11135 -0.279108 0)
(9.13521 -0.264366 0)
(9.15458 -0.249682 0)
(9.16965 -0.235225 0)
(9.18063 -0.221141 0)
(9.18775 -0.207559 0)
(9.19124 -0.194592 0)
(9.1913 -0.182347 0)
(9.18816 -0.170925 0)
(9.182 -0.160432 0)
(9.173 -0.150979 0)
(9.16135 -0.142693 0)
(9.14722 -0.135718 0)
(9.13084 -0.130196 0)
(9.11251 -0.126278 0)
(9.09263 -0.124047 0)
(9.07159 -0.123586 0)
(8.33759 -0.0464971 0)
(8.39342 -0.120783 0)
(8.49347 -0.184476 0)
(8.60786 -0.245722 0)
(8.72905 -0.297956 0)
(8.85149 -0.337949 0)
(8.96824 -0.366367 0)
(9.07516 -0.384058 0)
(9.17007 -0.392143 0)
(9.2518 -0.392187 0)
(9.32013 -0.385804 0)
(9.37558 -0.374454 0)
(9.41909 -0.35941 0)
(9.45183 -0.341741 0)
(9.47508 -0.322309 0)
(9.49013 -0.301802 0)
(9.49819 -0.280756 0)
(9.50037 -0.259583 0)
(9.49766 -0.238597 0)
(9.4909 -0.218031 0)
(9.48082 -0.198059 0)
(9.46801 -0.178809 0)
(9.45295 -0.160374 0)
(9.43603 -0.142821 0)
(9.41752 -0.126202 0)
(9.39762 -0.110563 0)
(9.37647 -0.0959762 0)
(9.35414 -0.0825578 0)
(9.33068 -0.0705489 0)
(9.30615 -0.0603337 0)
(9.28074 -0.0524595 0)
(9.2544 -0.04711 0)
(9.22778 -0.0451575 0)
(8.4092 -0.221164 0)
(8.63479 -0.427924 0)
(8.83282 -0.521814 0)
(8.97648 -0.581828 0)
(9.07024 -0.613739 0)
(9.11325 -0.623128 0)
(9.10998 -0.617561 0)
(9.07004 -0.601103 0)
(9.00246 -0.576589 0)
(8.91486 -0.546586 0)
(8.81389 -0.513162 0)
(8.70505 -0.477908 0)
(8.59268 -0.442052 0)
(8.48006 -0.406515 0)
(8.36968 -0.371955 0)
(8.26331 -0.338812 0)
(8.16216 -0.307359 0)
(8.06703 -0.277741 0)
(7.97838 -0.25001 0)
(7.89641 -0.224152 0)
(7.82115 -0.200113 0)
(7.75248 -0.177808 0)
(7.6902 -0.157138 0)
(7.63401 -0.137998 0)
(7.58357 -0.120274 0)
(7.53848 -0.103864 0)
(7.49821 -0.0886825 0)
(7.46203 -0.0746686 0)
(7.42913 -0.0618443 0)
(7.3982 -0.0503085 0)
(7.36859 -0.0402692 0)
(7.33895 -0.0314009 0)
(7.31036 -0.0269139 0)
(8.13712 -0.207049 0)
(7.848 -0.387717 0)
(7.38631 -0.438812 0)
(6.86188 -0.43912 0)
(6.36381 -0.40743 0)
(5.89513 -0.358032 0)
(5.45859 -0.303204 0)
(5.06167 -0.249342 0)
(4.70556 -0.199666 0)
(4.38839 -0.155792 0)
(4.10786 -0.118164 0)
(3.86122 -0.0865546 0)
(3.64534 -0.0604254 0)
(3.45712 -0.0390903 0)
(3.29361 -0.0218289 0)
(3.15205 -0.00796039 0)
(3.02994 0.00312269 0)
(2.92499 0.0119428 0)
(2.83519 0.0189374 0)
(2.75875 0.0244645 0)
(2.69408 0.0288126 0)
(2.6398 0.0322121 0)
(2.59466 0.0348532 0)
(2.5576 0.0369118 0)
(2.52767 0.038596 0)
(2.50409 0.0402065 0)
(2.48626 0.0421958 0)
(2.4738 0.0450984 0)
(2.4665 0.0492773 0)
(2.46454 0.0545852 0)
(2.46695 0.0599109 0)
(2.47395 0.0672994 0)
(2.48493 0.0606104 0)
(2.25857 -0.0815661 0)
(2.59498 -0.110659 0)
(2.81608 -0.0787616 0)