/*--------------------------------*- C++ -*----------------------------------*\
| =========                 |                                                 |
| \\      /  F ield         | OpenFOAM: The Open Source CFD Toolbox           |
|  \\    /   O peration     | Version:  2.1.1                                 |
|   \\  /    A nd           | Web:      www.OpenFOAM.org                      |
|    \\/     M anipulation  |                                                 |
\*---------------------------------------------------------------------------*/
FoamFile
{
    version     2.0;
    format      ascii;
    class       volScalarField;
    location    "0.035";
    object      nuSgs;
}
// * * * * * * * * * * * * * * * * * * * * * * * * * * * * * * * * * * * * * //

dimensions      [0 2 -1 0 0 0 0];

internalField   nonuniform List<scalar> 
6820
(
0.000556015
0.000457393
0.000368082
0.000306006
0.000268741
0.000243046
0.00022411
0.000209606
0.000197872
0.000188
0.000179475
0.000171965
0.000165247
0.000159164
0.000153602
0.000148474
0.000143713
0.000139267
0.000135094
0.000131158
0.000127432
0.000123891
0.000120515
0.000117288
0.000114194
0.000111222
0.000108362
0.000105609
0.000102952
0.000100417
9.79665e-05
9.55894e-05
9.30835e-05
0.000103502
0.000170677
0.000223673
0.000240041
0.000235276
0.0002249
0.000213188
0.000201885
0.000191634
0.000182453
0.000174222
0.000166809
0.00016009
0.000153962
0.000148339
0.000143154
0.000138347
0.000133871
0.000129686
0.000125757
0.000122055
0.000118556
0.00011524
0.000112087
0.000109082
0.000106211
0.000103463
0.000100821
9.82887e-05
9.58019e-05
9.34802e-05
9.08766e-05
8.92386e-05
3.67736e-05
2.84687e-05
4.56429e-05
8.23569e-05
0.000108028
0.000123651
0.000132104
0.000135979
0.000137103
0.000136546
0.000134952
0.000132717
0.000130091
0.00012724
0.00012427
0.000121252
0.000118234
0.000115249
0.000112315
0.000109448
0.000106654
0.000103939
0.000101305
9.87503e-05
9.62753e-05
9.38769e-05
9.1552e-05
8.92938e-05
8.70987e-05
8.49381e-05
8.28206e-05
8.05973e-05
7.84678e-05
2.07363e-05
2.86762e-05
2.65437e-05
1.50534e-05
3.63364e-06
1.39324e-05
2.58035e-05
3.56683e-05
4.36297e-05
4.99608e-05
5.49363e-05
5.87997e-05
6.17531e-05
6.39542e-05
6.55374e-05
6.66135e-05
6.72738e-05
6.75933e-05
6.76339e-05
6.74465e-05
6.7073e-05
6.65481e-05
6.59004e-05
6.51532e-05
6.4326e-05
6.3434e-05
6.24894e-05
6.14996e-05
6.04713e-05
5.93986e-05
5.82882e-05
5.7124e-05
5.59962e-05
1.44216e-05
1.75755e-05
2.25961e-05
2.42935e-05
2.39671e-05
2.19863e-05
1.90909e-05
1.58201e-05
1.24081e-05
9.0057e-06
5.72197e-06
2.64082e-06
6.83848e-07
3.06224e-06
5.46469e-06
7.64301e-06
9.59322e-06
1.13247e-05
1.28511e-05
1.41873e-05
1.53491e-05
1.63516e-05
1.72096e-05
1.79367e-05
1.85456e-05
1.90474e-05
1.94517e-05
1.97659e-05
1.99968e-05
2.01471e-05
2.02237e-05
2.02437e-05
2.0232e-05
1.09227e-05
1.24875e-05
1.38084e-05
1.43191e-05
1.51068e-05
1.57485e-05
1.61278e-05
1.63371e-05
1.63797e-05
1.62608e-05
1.60042e-05
1.56335e-05
1.51723e-05
1.46355e-05
1.40423e-05
1.34106e-05
1.27557e-05
1.20906e-05
1.14256e-05
1.07691e-05
1.01274e-05
9.50516e-06
8.90585e-06
8.33193e-06
7.78506e-06
7.2665e-06
6.77701e-06
6.31748e-06
5.88778e-06
5.48754e-06
5.11233e-06
4.7495e-06
4.3794e-06
8.24897e-06
9.41879e-06
1.02312e-05
1.00273e-05
9.83784e-06
9.66065e-06
9.47822e-06
9.39247e-06
9.39208e-06
9.43268e-06
9.48715e-06
9.53751e-06
9.57216e-06
9.58883e-06
9.58494e-06
9.5594e-06
9.51245e-06
9.4452e-06
9.35928e-06
9.25655e-06
9.13903e-06
9.00873e-06
8.86763e-06
8.71768e-06
8.56067e-06
8.39833e-06
8.23208e-06
8.06316e-06
7.89156e-06
7.71649e-06
7.5327e-06
7.33451e-06
7.10203e-06
6.3674e-06
7.40104e-06
8.19925e-06
8.05893e-06
7.7468e-06
7.40611e-06
7.0275e-06
6.70206e-06
6.44854e-06
6.24631e-06
6.08263e-06
5.94846e-06
5.83488e-06
5.73524e-06
5.64522e-06
5.56167e-06
5.48209e-06
5.40456e-06
5.32766e-06
5.25037e-06
5.17199e-06
5.09208e-06
5.01039e-06
4.92683e-06
4.84135e-06
4.75394e-06
4.66439e-06
4.57221e-06
4.47596e-06
4.37329e-06
4.2589e-06
4.12767e-06
3.96371e-06
5.00941e-06
5.85279e-06
6.52465e-06
6.51357e-06
6.34319e-06
6.13396e-06
5.8493e-06
5.56124e-06
5.30813e-06
5.08627e-06
4.89093e-06
4.71867e-06
4.56467e-06
4.42476e-06
4.29602e-06
4.17626e-06
4.06367e-06
3.95689e-06
3.85483e-06
3.75663e-06
3.66156e-06
3.569e-06
3.47841e-06
3.38926e-06
3.301e-06
3.21298e-06
3.12426e-06
3.03351e-06
2.93856e-06
2.83632e-06
2.72176e-06
2.59004e-06
2.42855e-06
4.00651e-06
4.70346e-06
5.29182e-06
5.35649e-06
5.25072e-06
5.10025e-06
4.88201e-06
4.65056e-06
4.44337e-06
4.25951e-06
4.09446e-06
3.94604e-06
3.81118e-06
3.68693e-06
3.57123e-06
3.46259e-06
3.3598e-06
3.26187e-06
3.16799e-06
3.07745e-06
2.98964e-06
2.90399e-06
2.81994e-06
2.7369e-06
2.6542e-06
2.57099e-06
2.48612e-06
2.39797e-06
2.30425e-06
2.20189e-06
2.0865e-06
1.95406e-06
1.79409e-06
3.24982e-06
3.83323e-06
4.34965e-06
4.45397e-06
4.3952e-06
4.29241e-06
4.12932e-06
3.94235e-06
3.76593e-06
3.60434e-06
3.4562e-06
3.32148e-06
3.19878e-06
3.08602e-06
2.98151e-06
2.88389e-06
2.79199e-06
2.70477e-06
2.62138e-06
2.54109e-06
2.46324e-06
2.3872e-06
2.31236e-06
2.23805e-06
2.16348e-06
2.08769e-06
2.00942e-06
1.92704e-06
1.83839e-06
1.74077e-06
1.63071e-06
1.50548e-06
1.35696e-06
2.66619e-06
3.16026e-06
3.62307e-06
3.76071e-06
3.74597e-06
3.68021e-06
3.55539e-06
3.39936e-06
3.24484e-06
3.10009e-06
2.96559e-06
2.84207e-06
2.72896e-06
2.62478e-06
2.52816e-06
2.43799e-06
2.35324e-06
2.27301e-06
2.19654e-06
2.12312e-06
2.05209e-06
1.9828e-06
1.91461e-06
1.84677e-06
1.77848e-06
1.70873e-06
1.63634e-06
1.5598e-06
1.47735e-06
1.38697e-06
1.28644e-06
1.1749e-06
1.04755e-06
2.20597e-06
2.63208e-06
3.05532e-06
3.21635e-06
3.23539e-06
3.19848e-06
3.10574e-06
2.97903e-06
2.84686e-06
2.71901e-06
2.59735e-06
2.4835e-06
2.37796e-06
2.28009e-06
2.18907e-06
2.10411e-06
2.02443e-06
1.94924e-06
1.87784e-06
1.80955e-06
1.74372e-06
1.67971e-06
1.61685e-06
1.55443e-06
1.49168e-06
1.4277e-06
1.36149e-06
1.29193e-06
1.21789e-06
1.13836e-06
1.05275e-06
9.62549e-07
8.67472e-07
1.83554e-06
2.21101e-06
2.60502e-06
2.78444e-06
2.83275e-06
2.8214e-06
2.75557e-06
2.65317e-06
2.53923e-06
2.42488e-06
2.31361e-06
2.20787e-06
2.10892e-06
2.0167e-06
1.93074e-06
1.85049e-06
1.77529e-06
1.7045e-06
1.63749e-06
1.57364e-06
1.51236e-06
1.45305e-06
1.39513e-06
1.33796e-06
1.28091e-06
1.2233e-06
1.16448e-06
1.10387e-06
1.04117e-06
9.76594e-07
9.11351e-07
8.49069e-07
7.93279e-07
1.53139e-06
1.87065e-06
2.244e-06
2.43865e-06
2.51148e-06
2.52151e-06
2.47757e-06
2.39574e-06
2.29815e-06
2.19642e-06
2.09506e-06
1.99707e-06
1.90418e-06
1.8169e-06
1.73514e-06
1.65863e-06
1.58697e-06
1.51965e-06
1.45618e-06
1.39604e-06
1.33872e-06
1.28371e-06
1.23054e-06
1.17871e-06
1.12778e-06
1.0774e-06
1.02733e-06
9.77602e-07
9.2875e-07
8.82032e-07
8.39975e-07
8.0697e-07
7.87724e-07
1.27684e-06
1.59211e-06
1.95174e-06
2.15954e-06
2.25351e-06
2.28257e-06
2.25776e-06
2.19402e-06
2.11097e-06
2.02028e-06
1.92738e-06
1.83584e-06
1.74793e-06
1.66467e-06
1.58636e-06
1.51299e-06
1.44435e-06
1.38009e-06
1.31984e-06
1.26317e-06
1.20969e-06
1.159e-06
1.11075e-06
1.06466e-06
1.02052e-06
9.78258e-07
9.38075e-07
9.00513e-07
8.66685e-07
8.38375e-07
8.18456e-07
8.10609e-07
8.18782e-07
1.0598e-06
1.36179e-06
1.71365e-06
1.93337e-06
2.04585e-06
2.09188e-06
2.0837e-06
2.0356e-06
1.96536e-06
1.88458e-06
1.79937e-06
1.7138e-06
1.63053e-06
1.55099e-06
1.47581e-06
1.40522e-06
1.33921e-06
1.27762e-06
1.22021e-06
1.16669e-06
1.11679e-06
1.07026e-06
1.02689e-06
9.86574e-07
9.4933e-07
9.1534e-07
8.85082e-07
8.59367e-07
8.39496e-07
8.27188e-07
8.24895e-07
8.34982e-07
8.60314e-07
8.71437e-07
1.17005e-06
1.51934e-06
1.75015e-06
1.87902e-06
1.94042e-06
1.94713e-06
1.91304e-06
1.85446e-06
1.78276e-06
1.70456e-06
1.62433e-06
1.54513e-06
1.46875e-06
1.39617e-06
1.32788e-06
1.2641e-06
1.20482e-06
1.14996e-06
1.09936e-06
1.05288e-06
1.01037e-06
9.71795e-07
9.37157e-07
9.06616e-07
8.80526e-07
8.59454e-07
8.44221e-07
8.3599e-07
8.36085e-07
8.46293e-07
8.67821e-07
9.02745e-07
7.05401e-07
1.01033e-06
1.36151e-06
1.60282e-06
1.74633e-06
1.82173e-06
1.8419e-06
1.82036e-06
1.7723e-06
1.70884e-06
1.63698e-06
1.56157e-06
1.486e-06
1.41242e-06
1.34209e-06
1.27575e-06
1.21381e-06
1.15643e-06
1.10367e-06
1.0555e-06
1.01188e-06
9.72803e-07
9.38291e-07
9.08455e-07
8.83533e-07
8.63881e-07
8.50023e-07
8.42637e-07
8.42601e-07
8.50775e-07
8.68353e-07
8.95722e-07
9.34513e-07
5.57569e-07
8.7881e-07
1.23537e-06
1.48653e-06
1.64311e-06
1.73129e-06
1.76371e-06
1.75354e-06
1.71512e-06
1.65929e-06
1.59331e-06
1.52237e-06
1.45015e-06
1.37908e-06
1.31071e-06
1.24602e-06
1.18559e-06
1.12977e-06
1.07873e-06
1.03255e-06
9.91311e-07
9.5505e-07
9.23861e-07
8.97884e-07
8.77342e-07
8.62536e-07
8.5387e-07
8.51813e-07
8.56941e-07
8.69732e-07
8.90939e-07
9.20476e-07
9.59678e-07
4.26662e-07
7.74198e-07
1.1381e-06
1.39818e-06
1.56633e-06
1.66606e-06
1.7096e-06
1.70973e-06
1.68002e-06
1.63108e-06
1.57034e-06
1.50324e-06
1.43373e-06
1.36451e-06
1.29741e-06
1.2336e-06
1.17387e-06
1.11869e-06
1.06837e-06
1.0231e-06
9.82993e-07
9.48167e-07
9.18731e-07
8.94819e-07
8.76606e-07
8.64308e-07
8.58187e-07
8.5852e-07
8.65642e-07
8.7975e-07
9.01298e-07
9.29886e-07
9.6671e-07
3.17116e-07
6.9783e-07
1.06858e-06
1.33614e-06
1.51427e-06
1.62438e-06
1.67803e-06
1.68754e-06
1.66589e-06
1.62342e-06
1.56766e-06
1.50427e-06
1.43742e-06
1.37005e-06
1.30418e-06
1.24119e-06
1.18199e-06
1.1272e-06
1.0772e-06
1.03226e-06
9.92556e-07
9.58216e-07
9.29356e-07
9.06088e-07
8.88533e-07
8.76821e-07
8.71097e-07
8.71493e-07
8.78172e-07
8.91166e-07
9.10743e-07
9.36414e-07
9.69204e-07
2.46785e-07
6.53096e-07
1.02696e-06
1.29989e-06
1.48625e-06
1.60539e-06
1.66794e-06
1.68564e-06
1.67088e-06
1.63374e-06
1.5818e-06
1.5209e-06
1.45542e-06
1.38853e-06
1.32246e-06
1.25876e-06
1.19853e-06
1.14248e-06
1.0911e-06
1.04472e-06
1.00354e-06
9.67728e-07
9.37378e-07
9.12579e-07
8.93404e-07
8.79917e-07
8.7218e-07
8.7023e-07
8.74122e-07
8.83783e-07
8.99361e-07
9.20265e-07
9.4749e-07
2.48571e-07
6.44146e-07
1.01433e-06
1.28994e-06
1.4828e-06
1.60986e-06
1.6806e-06
1.70607e-06
1.69812e-06
1.66656e-06
1.61895e-06
1.5612e-06
1.4978e-06
1.43206e-06
1.36636e-06
1.30238e-06
1.24132e-06
1.18397e-06
1.13091e-06
1.0825e-06
1.03898e-06
1.00054e-06
9.67286e-07
9.39289e-07
9.1661e-07
8.99286e-07
8.87348e-07
8.808e-07
8.79661e-07
8.83851e-07
8.9348e-07
9.08082e-07
9.28458e-07
3.25566e-07
6.73831e-07
1.03236e-06
1.30753e-06
1.50474e-06
1.63787e-06
1.71486e-06
1.7459e-06
1.74232e-06
1.71372e-06
1.66767e-06
1.61024e-06
1.54614e-06
1.47885e-06
1.41093e-06
1.34422e-06
1.28001e-06
1.21918e-06
1.16234e-06
1.10989e-06
1.06208e-06
1.01907e-06
9.80979e-07
9.47852e-07
9.19737e-07
8.96658e-07
8.78638e-07
8.65683e-07
8.57817e-07
8.54971e-07
8.57249e-07
8.64175e-07
8.76621e-07
4.48165e-07
7.42129e-07
1.08282e-06
1.35499e-06
1.55544e-06
1.69465e-06
1.77875e-06
1.81696e-06
1.81996e-06
1.79687e-06
1.75508e-06
1.70055e-06
1.63801e-06
1.57103e-06
1.50227e-06
1.43368e-06
1.36666e-06
1.30222e-06
1.24103e-06
1.18358e-06
1.13016e-06
1.08097e-06
1.03614e-06
9.95742e-07
9.59844e-07
9.28491e-07
9.01734e-07
8.79626e-07
8.62248e-07
8.49642e-07
8.41975e-07
8.39099e-07
8.41587e-07
5.99737e-07
8.48068e-07
1.16817e-06
1.43462e-06
1.63517e-06
1.77642e-06
1.86254e-06
1.90187e-06
1.90492e-06
1.88085e-06
1.83719e-06
1.78009e-06
1.71441e-06
1.64383e-06
1.57107e-06
1.49812e-06
1.42637e-06
1.35681e-06
1.2901e-06
1.22667e-06
1.16678e-06
1.11061e-06
1.05825e-06
1.00976e-06
9.65192e-07
9.24606e-07
8.88079e-07
8.55712e-07
8.27659e-07
8.04049e-07
7.85148e-07
7.70868e-07
7.62039e-07
7.76851e-07
9.90077e-07
1.29055e-06
1.55205e-06
1.75576e-06
1.90478e-06
2.00055e-06
2.04963e-06
2.0613e-06
2.04399e-06
2.00483e-06
1.9499e-06
1.8842e-06
1.81165e-06
1.73526e-06
1.65727e-06
1.57934e-06
1.50265e-06
1.428e-06
1.35593e-06
1.28679e-06
1.22077e-06
1.15798e-06
1.09849e-06
1.04232e-06
9.8953e-07
9.40183e-07
8.94396e-07
8.52351e-07
8.14298e-07
7.80575e-07
7.51616e-07
7.27696e-07
9.84104e-07
1.17354e-06
1.45711e-06
1.70923e-06
1.90599e-06
2.04825e-06
2.13671e-06
2.17841e-06
2.18341e-06
2.16046e-06
2.11666e-06
2.0579e-06
1.98885e-06
1.91313e-06
1.83343e-06
1.75178e-06
1.66966e-06
1.58814e-06
1.50795e-06
1.4296e-06
1.35338e-06
1.2795e-06
1.20805e-06
1.13908e-06
1.07259e-06
1.00862e-06
9.47204e-07
8.88431e-07
8.32465e-07
7.79525e-07
7.29962e-07
6.84154e-07
6.42707e-07
1.22554e-06
1.39502e-06
1.66792e-06
1.92413e-06
2.13681e-06
2.30104e-06
2.41111e-06
2.47017e-06
2.48679e-06
2.46959e-06
2.42628e-06
2.36374e-06
2.28772e-06
2.20277e-06
2.11234e-06
2.01901e-06
1.92465e-06
1.83056e-06
1.73761e-06
1.64638e-06
1.55719e-06
1.4702e-06
1.38549e-06
1.30302e-06
1.22277e-06
1.14468e-06
1.0687e-06
9.9483e-07
9.23122e-07
8.53727e-07
7.86781e-07
7.22997e-07
6.61519e-07
1.52193e-06
1.68855e-06
1.94992e-06
2.18116e-06
2.36121e-06
2.49357e-06
2.57791e-06
2.61996e-06
2.6282e-06
2.60926e-06
2.56836e-06
2.51018e-06
2.43885e-06
2.35783e-06
2.26994e-06
2.17751e-06
2.08238e-06
1.98594e-06
1.88926e-06
1.79308e-06
1.6979e-06
1.60405e-06
1.51171e-06
1.42092e-06
1.33171e-06
1.24402e-06
1.15781e-06
1.073e-06
9.89574e-07
9.075e-07
8.26728e-07
7.47498e-07
6.68806e-07
1.86513e-06
2.01031e-06
2.28889e-06
2.57644e-06
2.82866e-06
3.02402e-06
3.14837e-06
3.20672e-06
3.21292e-06
3.17963e-06
3.11724e-06
3.03436e-06
2.93767e-06
2.83207e-06
2.72101e-06
2.60697e-06
2.49167e-06
2.37629e-06
2.26163e-06
2.14821e-06
2.03637e-06
1.92628e-06
1.81805e-06
1.71167e-06
1.60713e-06
1.50437e-06
1.40333e-06
1.30398e-06
1.20629e-06
1.11032e-06
1.01596e-06
9.23909e-07
8.31726e-07
2.35031e-06
2.52777e-06
2.75143e-06
2.91493e-06
3.04734e-06
3.16901e-06
3.26854e-06
3.33762e-06
3.37453e-06
3.37886e-06
3.35232e-06
3.29902e-06
3.22398e-06
3.13205e-06
3.02762e-06
2.91442e-06
2.79548e-06
2.67317e-06
2.54926e-06
2.42505e-06
2.30145e-06
2.1791e-06
2.05836e-06
1.93948e-06
1.82256e-06
1.70765e-06
1.59476e-06
1.48392e-06
1.37517e-06
1.26864e-06
1.16438e-06
1.06311e-06
9.63059e-07
2.83122e-06
2.96906e-06
3.3927e-06
3.83101e-06
4.16232e-06
4.36717e-06
4.45546e-06
4.45846e-06
4.40626e-06
4.31717e-06
4.20246e-06
4.07019e-06
3.92591e-06
3.77347e-06
3.61585e-06
3.45546e-06
3.29434e-06
3.1341e-06
2.97606e-06
2.82121e-06
2.67026e-06
2.52369e-06
2.38176e-06
2.24456e-06
2.11208e-06
1.98421e-06
1.86084e-06
1.74183e-06
1.62712e-06
1.51682e-06
1.4109e-06
1.31065e-06
1.21325e-06
3.87743e-06
4.00487e-06
3.94728e-06
3.9016e-06
4.03087e-06
4.26251e-06
4.47316e-06
4.61384e-06
4.6817e-06
4.68672e-06
4.64539e-06
4.57574e-06
4.49234e-06
4.40528e-06
4.32084e-06
4.24226e-06
4.17066e-06
4.10576e-06
4.04663e-06
3.99203e-06
3.94073e-06
3.89161e-06
3.84372e-06
3.79629e-06
3.74873e-06
3.70056e-06
3.65144e-06
3.60112e-06
3.5495e-06
3.49672e-06
3.44302e-06
3.3903e-06
3.33652e-06
4.34486e-06
4.95272e-06
5.95992e-06
6.46225e-06
6.59162e-06
6.57748e-06
6.57258e-06
6.6809e-06
6.93234e-06
7.29614e-06
7.72382e-06
8.17189e-06
8.60704e-06
9.00689e-06
9.35862e-06
9.65633e-06
9.89877e-06
1.00877e-05
1.02264e-05
1.03195e-05
1.03715e-05
1.03872e-05
1.0371e-05
1.0327e-05
1.02589e-05
1.01698e-05
1.00624e-05
9.93883e-06
9.80094e-06
9.64998e-06
9.48783e-06
9.31695e-06
9.13822e-06
7.54169e-06
5.82577e-06
4.6607e-06
6.26475e-06
8.99163e-06
1.16946e-05
1.40185e-05
1.59037e-05
1.73497e-05
1.83714e-05
1.90058e-05
1.93008e-05
1.93061e-05
1.90707e-05
1.86411e-05
1.80596e-05
1.73635e-05
1.65846e-05
1.57493e-05
1.48796e-05
1.39928e-05
1.31026e-05
1.22195e-05
1.13513e-05
1.05037e-05
9.68023e-06
8.88301e-06
8.11244e-06
7.36834e-06
6.64726e-06
5.95002e-06
5.26514e-06
4.60629e-06
8.58247e-06
1.47413e-05
1.88456e-05
2.12472e-05
2.23352e-05
2.18641e-05
2.00108e-05
1.72288e-05
1.39874e-05
1.0909e-05
8.99817e-06
9.32852e-06
1.16603e-05
1.49077e-05
1.83852e-05
2.17894e-05
2.49881e-05
2.79242e-05
3.05777e-05
3.29474e-05
3.50432e-05
3.68804e-05
3.84773e-05
3.98532e-05
4.10273e-05
4.20183e-05
4.28444e-05
4.35231e-05
4.40716e-05
4.45113e-05
4.48577e-05
4.51692e-05
4.5435e-05
3.46334e-05
3.72163e-05
4.66522e-05
6.17681e-05
7.74619e-05
9.28454e-05
0.000107219
0.000119877
0.000130633
0.000139532
0.000146685
0.000152257
0.000156434
0.000159402
0.000161336
0.000162393
0.000162716
0.000162428
0.000161634
0.000160427
0.000158883
0.000157067
0.000155034
0.000152829
0.000150491
0.00014805
0.000145531
0.000142952
0.000140331
0.000137674
0.000134983
0.000132346
0.000129776
0.00060844
0.000582498
0.000556876
0.000530414
0.000504414
0.000479193
0.000454793
0.000431482
0.000409441
0.000388726
0.000369351
0.000351301
0.000334526
0.000318958
0.000304518
0.000291121
0.000278682
0.000267118
0.000256349
0.0002463
0.000236904
0.000228098
0.000219823
0.000212031
0.000204673
0.00019771
0.000191102
0.000184814
0.000178807
0.00017306
0.000167443
0.000162492
0.000157981
8.59271e-05
8.77387e-05
9.30224e-05
9.58103e-05
9.64058e-05
9.02958e-05
7.58376e-05
6.2029e-05
5.68772e-05
5.56291e-05
5.30446e-05
4.86566e-05
4.32734e-05
3.75598e-05
3.19025e-05
2.67351e-05
2.27206e-05
2.18017e-05
2.44872e-05
2.12939e-05
4.42828e-06
2.31408e-05
3.32505e-05
2.28169e-05
1.40587e-05
2.46221e-05
2.91612e-05
2.72033e-05
2.38622e-05
2.13741e-05
1.95825e-05
1.80317e-05
1.6564e-05
1.5174e-05
1.38722e-05
1.26583e-05
1.15294e-05
1.04837e-05
9.51868e-06
8.63027e-06
7.81408e-06
7.06603e-06
6.38166e-06
5.75426e-06
5.17424e-06
4.63202e-06
4.12364e-06
3.65466e-06
3.23813e-06
2.88624e-06
2.60125e-06
2.37226e-06
2.18012e-06
2.00625e-06
1.83933e-06
1.67708e-06
1.52334e-06
1.38332e-06
1.25962e-06
1.15086e-06
1.05275e-06
9.60492e-07
8.70869e-07
7.83183e-07
6.9882e-07
6.20047e-07
5.48769e-07
4.85859e-07
4.31145e-07
3.83799e-07
3.42803e-07
3.07243e-07
2.76411e-07
2.49756e-07
2.26817e-07
2.07239e-07
1.90466e-07
1.76297e-07
1.64306e-07
1.54168e-07
1.45605e-07
1.38379e-07
1.32317e-07
1.27286e-07
1.23186e-07
1.19932e-07
1.17448e-07
1.15632e-07
1.14404e-07
1.13611e-07
1.13256e-07
1.13031e-07
1.13357e-07
1.13193e-07
1.14617e-07
1.13307e-07
1.17979e-07
1.11048e-07
1.2645e-07
1.08842e-07
0.000112694
0.00010731
0.000105917
0.000107589
0.000111386
0.000115097
0.00011313
9.75057e-05
7.52095e-05
5.90406e-05
5.2269e-05
4.87634e-05
4.47883e-05
4.01296e-05
3.5465e-05
3.14395e-05
2.84464e-05
2.63064e-05
1.95332e-05
1.30651e-06
2.39159e-05
3.5667e-05
2.62627e-05
1.2072e-05
2.26372e-05
2.97682e-05
2.89825e-05
2.55829e-05
2.27532e-05
2.07991e-05
1.92294e-05
1.77725e-05
1.63763e-05
1.50491e-05
1.3797e-05
1.26213e-05
1.15229e-05
1.05015e-05
9.55484e-06
8.67938e-06
7.87149e-06
7.12806e-06
6.44561e-06
5.81829e-06
5.23712e-06
4.69269e-06
4.18087e-06
3.70724e-06
3.28545e-06
2.92887e-06
2.64086e-06
2.41074e-06
2.2186e-06
2.04459e-06
1.87643e-06
1.71154e-06
1.55414e-06
1.41009e-06
1.28269e-06
1.17094e-06
1.07067e-06
9.76889e-07
8.86092e-07
7.97302e-07
7.11745e-07
6.31663e-07
5.59036e-07
4.94837e-07
4.38953e-07
3.90587e-07
3.48706e-07
3.1238e-07
2.80886e-07
2.5366e-07
2.30215e-07
2.10117e-07
1.93029e-07
1.7849e-07
1.66178e-07
1.55795e-07
1.47061e-07
1.39731e-07
1.33593e-07
1.28477e-07
1.24234e-07
1.20738e-07
1.17897e-07
1.15617e-07
1.1384e-07
1.12453e-07
1.11494e-07
1.10676e-07
1.10428e-07
1.09712e-07
1.10608e-07
1.08734e-07
1.13012e-07
1.0522e-07
1.20722e-07
1.01404e-07
0.000101683
0.000100951
0.00010102
0.000102491
0.000105604
0.000109883
0.000114593
0.000116206
0.000107288
8.75048e-05
6.56097e-05
4.95875e-05
4.05918e-05
3.52877e-05
3.09219e-05
2.61181e-05
2.02174e-05
1.16229e-05
1.3617e-05
3.11537e-05
3.88137e-05
2.82003e-05
1.09649e-05
2.1046e-05
3.02605e-05
3.06568e-05
2.72985e-05
2.41029e-05
2.19356e-05
2.03363e-05
1.89069e-05
1.75277e-05
1.61978e-05
1.49288e-05
1.37251e-05
1.25892e-05
1.15227e-05
1.05261e-05
9.5978e-06
8.73514e-06
7.93551e-06
7.19673e-06
6.51618e-06
5.88883e-06
5.30629e-06
4.75932e-06
4.24365e-06
3.76485e-06
3.33718e-06
2.97529e-06
2.68372e-06
2.45219e-06
2.25999e-06
2.08593e-06
1.91659e-06
1.749e-06
1.58768e-06
1.43923e-06
1.30766e-06
1.19249e-06
1.08964e-06
9.94008e-07
9.01776e-07
8.1169e-07
7.2481e-07
6.43357e-07
5.6939e-07
5.03985e-07
4.47097e-07
3.97938e-07
3.5545e-07
3.18663e-07
2.86816e-07
2.59322e-07
2.35688e-07
2.15478e-07
1.98285e-07
1.83683e-07
1.71372e-07
1.61021e-07
1.52351e-07
1.45123e-07
1.39123e-07
1.34168e-07
1.30101e-07
1.26778e-07
1.24091e-07
1.21931e-07
1.20236e-07
1.1889e-07
1.1794e-07
1.17116e-07
1.16856e-07
1.16133e-07
1.17006e-07
1.15118e-07
1.19319e-07
1.11429e-07
1.26903e-07
1.07262e-07
7.32481e-05
7.3702e-05
7.49919e-05
7.78058e-05
8.23262e-05
8.79983e-05
9.41049e-05
0.000100348
0.000104915
0.000103324
9.30951e-05
7.71649e-05
6.06801e-05
4.69951e-05
3.70031e-05
3.09275e-05
3.10227e-05
3.73796e-05
4.42352e-05
4.22496e-05
2.70534e-05
8.69691e-06
2.12385e-05
3.13081e-05
3.22113e-05
2.88198e-05
2.53285e-05
2.29667e-05
2.13299e-05
1.99284e-05
1.85801e-05
1.7269e-05
1.60067e-05
1.47978e-05
1.36444e-05
1.25498e-05
1.15165e-05
1.05457e-05
9.63675e-06
8.78791e-06
7.9975e-06
7.26419e-06
6.58618e-06
5.95925e-06
5.37562e-06
4.82624e-06
4.30672e-06
3.8226e-06
3.38876e-06
3.02118e-06
2.72582e-06
2.49292e-06
2.30106e-06
2.12755e-06
1.95767e-06
1.78785e-06
1.62288e-06
1.47011e-06
1.33435e-06
1.21563e-06
1.11011e-06
1.01252e-06
9.1877e-07
8.27304e-07
7.39001e-07
6.56039e-07
5.80546e-07
5.13698e-07
4.55525e-07
4.05259e-07
3.61829e-07
3.24229e-07
2.91663e-07
2.6352e-07
2.39297e-07
2.18556e-07
2.00879e-07
1.85907e-07
1.73271e-07
1.62657e-07
1.53784e-07
1.46402e-07
1.40291e-07
1.35259e-07
1.31141e-07
1.27793e-07
1.25097e-07
1.22941e-07
1.21261e-07
1.19934e-07
1.19011e-07
1.18214e-07
1.17993e-07
1.17287e-07
1.1821e-07
1.16292e-07
1.20576e-07
1.12499e-07
1.28215e-07
1.0818e-07
2.71338e-05
2.83111e-05
3.0376e-05
3.37639e-05
3.85222e-05
4.45839e-05
5.17706e-05
5.97334e-05
6.81412e-05
7.59297e-05
8.0758e-05
8.0704e-05
7.6145e-05
6.93935e-05
6.28318e-05
5.83892e-05
5.52159e-05
4.96556e-05
3.77239e-05
1.8482e-05
7.58359e-06
2.43388e-05
3.30848e-05
3.34525e-05
2.99256e-05
2.63269e-05
2.38786e-05
2.22166e-05
2.08315e-05
1.95143e-05
1.82355e-05
1.70002e-05
1.58081e-05
1.46589e-05
1.35556e-05
1.25026e-05
1.15032e-05
1.0559e-05
9.67029e-06
8.83622e-06
8.05598e-06
7.32899e-06
6.65424e-06
6.02829e-06
5.44397e-06
4.8925e-06
4.36934e-06
3.88e-06
3.43995e-06
3.06652e-06
2.76721e-06
2.53295e-06
2.34167e-06
2.16914e-06
1.99916e-06
1.82745e-06
1.65898e-06
1.50184e-06
1.36169e-06
1.2392e-06
1.13075e-06
1.031e-06
9.35575e-07
8.42637e-07
7.52867e-07
6.68394e-07
5.91406e-07
5.23183e-07
4.63832e-07
4.12608e-07
3.6842e-07
3.30225e-07
2.9719e-07
2.68679e-07
2.44172e-07
2.23213e-07
2.05392e-07
1.90301e-07
1.77573e-07
1.66908e-07
1.58015e-07
1.50639e-07
1.44557e-07
1.39571e-07
1.35511e-07
1.3223e-07
1.29607e-07
1.27524e-07
1.25919e-07
1.24664e-07
1.23813e-07
1.2308e-07
1.22928e-07
1.22266e-07
1.2326e-07
1.21336e-07
1.25726e-07
1.17506e-07
1.33599e-07
1.13275e-07
5.28253e-06
4.76586e-06
3.87235e-06
2.71298e-06
3.27354e-06
6.81478e-06
1.1958e-05
1.8026e-05
2.45584e-05
3.12882e-05
3.78454e-05
4.33302e-05
4.66269e-05
4.7105e-05
4.48432e-05
3.97218e-05
3.04177e-05
1.65595e-05
7.67707e-07
1.78881e-05
3.0213e-05
3.5157e-05
3.40475e-05
3.03758e-05
2.69471e-05
2.45993e-05
2.29683e-05
2.16013e-05
2.0313e-05
1.90738e-05
1.78809e-05
1.67256e-05
1.56021e-05
1.45116e-05
1.34587e-05
1.2448e-05
1.14831e-05
1.05664e-05
9.69883e-06
8.88054e-06
8.1114e-06
7.39157e-06
6.72076e-06
6.0963e-06
5.51168e-06
4.95836e-06
4.43172e-06
3.93719e-06
3.4908e-06
3.11127e-06
2.80777e-06
2.5721e-06
2.38166e-06
2.21062e-06
2.0411e-06
1.86797e-06
1.69626e-06
1.53482e-06
1.39022e-06
1.26382e-06
1.15228e-06
1.05022e-06
9.53026e-07
8.58539e-07
7.67236e-07
6.81179e-07
6.02605e-07
5.32891e-07
4.72223e-07
4.19882e-07
3.74759e-07
3.35775e-07
3.02061e-07
2.72958e-07
2.47932e-07
2.2652e-07
2.08297e-07
1.92862e-07
1.79875e-07
1.69003e-07
1.59949e-07
1.52458e-07
1.46296e-07
1.41259e-07
1.37173e-07
1.3388e-07
1.31259e-07
1.29186e-07
1.27596e-07
1.26356e-07
1.25526e-07
1.24805e-07
1.24675e-07
1.24007e-07
1.25036e-07
1.23054e-07
1.27545e-07
1.1909e-07
1.3555e-07
1.14714e-07
9.12669e-06
8.89216e-06
8.2217e-06
6.93443e-06
5.0774e-06
3.42372e-06
4.60883e-06
8.25233e-06
1.23309e-05
1.57821e-05
1.79267e-05
1.85895e-05
1.80241e-05
1.65709e-05
1.45088e-05
1.32422e-05
1.61618e-05
2.32137e-05
3.06395e-05
3.52079e-05
3.57431e-05
3.32809e-05
2.9879e-05
2.7031e-05
2.50345e-05
2.35363e-05
2.22149e-05
2.09613e-05
1.97671e-05
1.86268e-05
1.75239e-05
1.64456e-05
1.5389e-05
1.43569e-05
1.33544e-05
1.23863e-05
1.14565e-05
1.0568e-05
9.72253e-06
8.92094e-06
8.1638e-06
7.45191e-06
6.7857e-06
6.16326e-06
5.57869e-06
5.0238e-06
4.49386e-06
3.99421e-06
3.54142e-06
3.15559e-06
2.84767e-06
2.61052e-06
2.42113e-06
2.252e-06
2.08348e-06
1.90935e-06
1.73466e-06
1.56896e-06
1.41978e-06
1.28925e-06
1.17439e-06
1.06981e-06
9.70656e-07
8.74488e-07
7.81561e-07
6.93858e-07
6.13661e-07
5.42441e-07
4.80467e-07
4.27051e-07
3.81069e-07
3.41401e-07
3.07143e-07
2.77606e-07
2.5224e-07
2.30568e-07
2.12159e-07
1.96605e-07
1.83539e-07
1.72624e-07
1.6357e-07
1.56102e-07
1.49989e-07
1.45018e-07
1.41009e-07
1.37801e-07
1.35267e-07
1.3328e-07
1.31774e-07
1.30613e-07
1.29859e-07
1.29201e-07
1.2914e-07
1.28512e-07
1.29612e-07
1.27618e-07
1.32228e-07
1.23604e-07
1.40485e-07
1.19272e-07
5.01049e-06
4.73781e-06
4.15675e-06
3.15265e-06
1.81438e-06
1.63433e-06
3.99006e-06
7.33584e-06
1.13298e-05
1.56479e-05
1.97677e-05
2.31533e-05
2.55947e-05
2.73252e-05
2.89798e-05
3.09903e-05
3.31025e-05
3.45793e-05
3.46709e-05
3.32402e-05
3.08935e-05
2.85133e-05
2.66044e-05
2.51303e-05
2.38481e-05
2.26166e-05
2.14243e-05
2.02921e-05
1.92175e-05
1.81805e-05
1.71638e-05
1.61599e-05
1.51691e-05
1.41952e-05
1.3243e-05
1.23177e-05
1.14236e-05
1.05641e-05
9.74165e-06
8.95766e-06
8.21336e-06
7.5102e-06
6.84925e-06
6.22931e-06
5.64517e-06
5.08895e-06
4.55588e-06
4.05119e-06
3.5919e-06
3.19954e-06
2.88692e-06
2.64817e-06
2.45996e-06
2.29319e-06
2.12622e-06
1.9516e-06
1.77422e-06
1.60436e-06
1.45055e-06
1.31572e-06
1.19734e-06
1.09005e-06
9.88793e-07
8.90834e-07
7.96204e-07
7.06789e-07
6.249e-07
5.52099e-07
4.88736e-07
4.34154e-07
3.87213e-07
3.46754e-07
3.11833e-07
2.81733e-07
2.55888e-07
2.3381e-07
2.15058e-07
1.99221e-07
1.85932e-07
1.74858e-07
1.65698e-07
1.58165e-07
1.5202e-07
1.47045e-07
1.43052e-07
1.39875e-07
1.3738e-07
1.35438e-07
1.33978e-07
1.32861e-07
1.32151e-07
1.31528e-07
1.3151e-07
1.30894e-07
1.32046e-07
1.30007e-07
1.34736e-07
1.25878e-07
1.43167e-07
1.2142e-07
2.95347e-06
2.61071e-06
2.01809e-06
1.10381e-06
5.48398e-07
2.12496e-06
4.21208e-06
6.65233e-06
9.43631e-06
1.25713e-05
1.59892e-05
1.94719e-05
2.27065e-05
2.54243e-05
2.75059e-05
2.89136e-05
2.96e-05
2.95214e-05
2.88206e-05
2.78021e-05
2.6754e-05
2.57775e-05
2.48127e-05
2.37913e-05
2.27197e-05
2.16496e-05
2.06191e-05
1.96326e-05
1.86761e-05
1.77346e-05
1.67997e-05
1.58686e-05
1.49431e-05
1.40268e-05
1.3125e-05
1.22428e-05
1.13849e-05
1.05551e-05
9.75649e-06
8.99094e-06
8.26032e-06
7.56663e-06
6.91157e-06
6.29463e-06
5.71125e-06
5.15393e-06
4.61788e-06
4.10821e-06
3.64239e-06
3.24329e-06
2.92569e-06
2.68515e-06
2.49825e-06
2.33423e-06
2.16934e-06
1.99472e-06
1.81498e-06
1.64106e-06
1.48253e-06
1.34322e-06
1.22108e-06
1.11085e-06
1.00729e-06
9.07378e-07
8.10926e-07
7.19712e-07
6.36064e-07
5.61633e-07
4.9685e-07
4.41097e-07
3.93217e-07
3.52012e-07
3.16494e-07
2.85918e-07
2.59699e-07
2.37339e-07
2.18386e-07
2.02422e-07
1.8907e-07
1.77981e-07
1.68838e-07
1.61366e-07
1.55303e-07
1.50426e-07
1.46541e-07
1.43477e-07
1.41095e-07
1.39262e-07
1.37907e-07
1.36885e-07
1.36266e-07
1.3572e-07
1.3578e-07
1.35213e-07
1.36445e-07
1.34397e-07
1.3926e-07
1.30216e-07
1.47963e-07
1.25767e-07
2.10869e-06
1.75636e-06
1.2207e-06
6.28801e-07
1.16981e-06
2.5924e-06
4.37597e-06
6.41832e-06
8.6446e-06
1.09943e-05
1.34258e-05
1.58892e-05
1.82812e-05
2.04568e-05
2.22344e-05
2.35402e-05
2.43784e-05
2.4824e-05
2.49677e-05
2.4863e-05
2.45302e-05
2.39878e-05
2.32762e-05
2.2456e-05
2.15876e-05
2.07117e-05
1.98449e-05
1.89885e-05
1.81375e-05
1.72865e-05
1.64318e-05
1.55727e-05
1.47115e-05
1.38525e-05
1.30009e-05
1.2162e-05
1.13408e-05
1.05415e-05
9.76742e-06
9.02113e-06
8.30498e-06
7.62149e-06
6.97292e-06
6.35944e-06
5.77715e-06
5.21894e-06
4.68005e-06
4.16548e-06
3.69306e-06
3.28701e-06
2.96412e-06
2.72157e-06
2.53601e-06
2.37508e-06
2.21282e-06
2.03871e-06
1.85696e-06
1.67913e-06
1.51583e-06
1.37186e-06
1.24573e-06
1.13234e-06
1.02627e-06
9.24259e-07
8.25873e-07
7.32774e-07
6.47297e-07
5.7117e-07
5.04904e-07
4.47916e-07
3.99033e-07
3.57015e-07
3.20829e-07
2.89698e-07
2.6302e-07
2.40284e-07
2.21032e-07
2.04838e-07
1.91316e-07
1.80117e-07
1.70918e-07
1.63433e-07
1.57391e-07
1.52559e-07
1.48738e-07
1.45747e-07
1.43444e-07
1.4169e-07
1.40413e-07
1.39464e-07
1.38917e-07
1.38428e-07
1.38551e-07
1.38013e-07
1.39313e-07
1.37233e-07
1.42235e-07
1.32956e-07
1.51154e-07
1.28392e-07
1.55246e-06
1.24927e-06
8.9193e-07
8.68566e-07
1.61789e-06
2.83789e-06
4.35885e-06
6.10844e-06
8.02135e-06
1.00274e-05
1.20586e-05
1.40547e-05
1.59622e-05
1.7721e-05
1.92696e-05
2.05624e-05
2.15758e-05
2.22871e-05
2.26883e-05
2.27968e-05
2.26527e-05
2.23055e-05
2.18053e-05
2.11991e-05
2.05272e-05
1.98188e-05
1.90911e-05
1.83513e-05
1.76007e-05
1.68377e-05
1.60615e-05
1.52729e-05
1.44751e-05
1.36728e-05
1.28713e-05
1.20759e-05
1.12919e-05
1.05237e-05
9.77488e-06
9.04863e-06
8.3477e-06
7.67511e-06
7.03363e-06
6.42406e-06
5.84314e-06
5.28423e-06
4.7426e-06
4.22318e-06
3.74411e-06
3.33091e-06
3.0024e-06
2.75757e-06
2.57333e-06
2.4158e-06
2.25666e-06
2.08359e-06
1.90021e-06
1.71862e-06
1.55052e-06
1.40171e-06
1.27136e-06
1.15453e-06
1.04572e-06
9.41421e-07
8.40957e-07
7.45868e-07
6.58482e-07
5.80597e-07
5.12805e-07
4.54557e-07
4.04668e-07
3.61853e-07
3.25034e-07
2.934e-07
2.66331e-07
2.43306e-07
2.23857e-07
2.07548e-07
1.93984e-07
1.82802e-07
1.73671e-07
1.66285e-07
1.6037e-07
1.55687e-07
1.52018e-07
1.49179e-07
1.47024e-07
1.45411e-07
1.44266e-07
1.43437e-07
1.43001e-07
1.42606e-07
1.42823e-07
1.42347e-07
1.43738e-07
1.41652e-07
1.46806e-07
1.37326e-07
1.56024e-07
1.32748e-07
1.19205e-06
9.98647e-07
9.12005e-07
1.20594e-06
1.93653e-06
2.98787e-06
4.28659e-06
5.78273e-06
7.42674e-06
9.16413e-06
1.09371e-05
1.26887e-05
1.43671e-05
1.59304e-05
1.73394e-05
1.85502e-05
1.95242e-05
2.02431e-05
2.07101e-05
2.09396e-05
2.09536e-05
2.07826e-05
2.04632e-05
2.00322e-05
1.95217e-05
1.89567e-05
1.83541e-05
1.77232e-05
1.70679e-05
1.63896e-05