/*--------------------------------*- C++ -*----------------------------------*\
| =========                 |                                                 |
| \\      /  F ield         | OpenFOAM: The Open Source CFD Toolbox           |
|  \\    /   O peration     | Version:  2.1.1                                 |
|   \\  /    A nd           | Web:      www.OpenFOAM.org                      |
|    \\/     M anipulation  |                                                 |
\*---------------------------------------------------------------------------*/
FoamFile
{
    version     2.0;
    format      ascii;
    class       volScalarField;
    location    "0.035";
    object      p;
}
// * * * * * * * * * * * * * * * * * * * * * * * * * * * * * * * * * * * * * //

dimensions      [0 2 -2 0 0 0 0];

internalField   nonuniform List<scalar> 
6820
(
10.0585
-7.77631
-10.7825
-10.967
-11.1361
-11.0578
-10.9947
-10.9991
-11.0364
-11.0914
-11.1556
-11.2234
-11.2925
-11.3616
-11.4298
-11.4969
-11.5624
-11.626
-11.6876
-11.747
-11.8039
-11.8584
-11.9103
-11.9597
-12.0066
-12.0512
-12.0936
-12.134
-12.1737
-12.2104
-12.2539
-12.2783
-12.3636
3.37704
-7.59546
-10.4717
-10.7691
-11.018
-11.0357
-11.0091
-11.0246
-11.0637
-11.1157
-11.1759
-11.2402
-11.3063
-11.373
-11.4395
-11.5053
-11.5699
-11.633
-11.6942
-11.7533
-11.8101
-11.8645
-11.9164
-11.9658
-12.0127
-12.0572
-12.0995
-12.1398
-12.179
-12.2161
-12.2573
-12.2885
-12.3627
0.66182
-6.16577
-9.45194
-10.2073
-10.6719
-10.8643
-10.9164
-10.9647
-11.0232
-11.0877
-11.1566
-11.2275
-11.2988
-11.3692
-11.4385
-11.5061
-11.572
-11.6358
-11.6975
-11.7569
-11.8139
-11.8684
-11.9202
-11.9695
-12.0162
-12.0603
-12.102
-12.1413
-12.1787
-12.2127
-12.2456
-12.2626
-12.2712
-1.32417
-5.93922
-9.03123
-9.88809
-10.3567
-10.6283
-10.7507
-10.8432
-10.9329
-11.0181
-11.1003
-11.1803
-11.2583
-11.3343
-11.4082
-11.4798
-11.5492
-11.6161
-11.6806
-11.7424
-11.8016
-11.858
-11.9117
-11.9624
-12.0104
-12.0553
-12.0974
-12.1363
-12.1718
-12.2021
-12.226
-12.2332
-12.2154
-2.96045
-6.04054
-8.64054
-9.54176
-10.0463
-10.3974
-10.5901
-10.7225
-10.8371
-10.9394
-11.0337
-11.1231
-11.2084
-11.29
-11.3686
-11.4443
-11.5172
-11.5872
-11.6543
-11.7186
-11.7799
-11.8383
-11.8937
-11.946
-11.9951
-12.0409
-12.0832
-12.1214
-12.1546
-12.1808
-12.1969
-12.1951
-12.165
-4.184
-6.22242
-8.39076
-9.33278
-9.85649
-10.2349
-10.4627
-10.6182
-10.7492
-10.8646
-10.9689
-11.0659
-11.1577
-11.2448
-11.3279
-11.4074
-11.4835
-11.5564
-11.6262
-11.6928
-11.7564
-11.8169
-11.8743
-11.9284
-11.9791
-12.0261
-12.0691
-12.1072
-12.1393
-12.1632
-12.1757
-12.1712
-12.1431
-5.13571
-6.50988
-8.27459
-9.17949
-9.69098
-10.0778
-10.336
-10.5172
-10.6665
-10.7957
-10.9102
-11.0149
-11.1126
-11.2045
-11.2916
-11.3745
-11.4536
-11.5292
-11.6014
-11.6703
-11.736
-11.7985
-11.8576
-11.9133
-11.9655
-12.0137
-12.0575
-12.0961
-12.1282
-12.1518
-12.164
-12.1606
-12.1366
-5.88281
-6.81719
-8.22467
-9.0651
-9.56518
-9.95375
-10.231
-10.4297
-10.5913
-10.7304
-10.853
-10.9642
-11.0672
-11.1638
-11.2549
-11.3414
-11.4237
-11.5021
-11.5769
-11.6483
-11.7162
-11.7807
-11.8418
-11.8993
-11.9532
-12.0031
-12.0484
-12.0883
-12.1216
-12.1467
-12.1611
-12.162
-12.1456
-6.47627
-7.12207
-8.23618
-8.9965
-9.47431
-9.85144
-10.1353
-10.3459
-10.5179
-10.6662
-10.7967
-10.9145
-11.0231
-11.1244
-11.2195
-11.3095
-11.3949
-11.4761
-11.5535
-11.6272
-11.6973
-11.764
-11.8271
-11.8867
-11.9425
-11.9943
-12.0415
-12.0835
-12.1192
-12.1474
-12.1662
-12.1737
-12.1676
-6.95394
-7.40891
-8.28566
-8.95747
-9.40645
-9.76795
-10.0529
-10.2717
-10.4516
-10.607
-10.7439
-10.8672
-10.9804
-11.0858
-11.1847
-11.2779
-11.3663
-11.4503
-11.5303
-11.6064
-11.6789
-11.7478
-11.8131
-11.8749
-11.9329
-11.987
-12.0368
-12.0816
-12.1208
-12.1533
-12.1781
-12.1941
-12.2
-7.34273
-7.67001
-8.35933
-8.94418
-9.36091
-9.70335
-9.98325
-10.2052
-10.3899
-10.5504
-10.6925
-10.8208
-10.9385
-11.0479
-11.1504
-11.247
-11.3385
-11.4253
-11.5079
-11.5865
-11.6613
-11.7326
-11.8002
-11.8644
-11.9249
-11.9817
-12.0344
-12.0827
-12.1261
-12.164
-12.1959
-12.2214
-12.2401
-7.66228
-7.90303
-8.44631
-8.94975
-9.33178
-9.65299
-9.92408
-10.1461
-10.3336
-10.498
-10.6443
-10.7768
-10.8984
-11.0115
-11.1173
-11.217
-11.3114
-11.4009
-11.4861
-11.5671
-11.6444
-11.718
-11.7882
-11.8548
-11.918
-11.9777
-12.0338
-12.0861
-12.1343
-12.1783
-12.2179
-12.2533
-12.285
-7.92695
-8.10804
-8.53848
-8.9689
-9.31595
-9.61537
-9.87526
-10.0944
-10.2827
-10.4492
-10.5986
-10.7345
-10.8596
-10.9759
-11.085
-11.1877
-11.2849
-11.3771
-11.4649
-11.5485
-11.6283
-11.7044
-11.7771
-11.8464
-11.9125
-11.9754
-12.0351
-12.0916
-12.1451
-12.1954
-12.243
-12.2883
-12.3323
-8.14728
-8.2865
-8.63023
-8.99701
-9.3101
-9.5877
-9.83489
-10.0491
-10.2365
-10.4041
-10.5557
-10.6944
-10.8225
-10.9419
-11.0538
-11.1594
-11.2593
-11.3542
-11.4445
-11.5306
-11.6129
-11.6915
-11.7668
-11.8389
-11.9079
-11.9741
-12.0377
-12.0986
-12.1573
-12.2141
-12.2694
-12.3241
-12.3794
-8.33111
-8.4404
-8.71762
-9.03017
-9.31136
-9.56788
-9.80184
-10.0098
-10.1951
-10.3626
-10.5156
-10.6564
-10.787
-10.9091
-11.0238
-11.1321
-11.2346
-11.3321
-11.4249
-11.5135
-11.5982
-11.6794
-11.7573
-11.8322
-11.9043
-11.9739
-12.0413
-12.1067
-12.1706
-12.2335
-12.2962
-12.3594
-12.4247
-8.48432
-8.57182
-8.79804
-9.06515
-9.31722
-9.55385
-9.77461
-9.97549
-10.1577
-10.3244
-10.4781
-10.6205
-10.7533
-10.8778
-10.995
-11.1058
-11.2109
-11.3109
-11.4062
-11.4972
-11.5844
-11.6681
-11.7486
-11.8262
-11.9013
-11.9742
-12.0453
-12.115
-12.1838
-12.2524
-12.3216
-12.3923
-12.4661
-8.6113
-8.6827
-8.86977
-9.09934
-9.32546
-9.54374
-9.75185
-9.94532
-10.1239
-10.2893
-10.4432
-10.5868
-10.7214
-10.848
-10.9676
-11.0808
-11.1883
-11.2907
-11.3884
-11.4818
-11.5714
-11.6575
-11.7406
-11.8209
-11.8989
-11.975
-12.0496
-12.1232
-12.1965
-12.2702
-12.345
-12.4221
-12.5027
-8.71537
-8.77472
-8.93171
-9.13062
-9.33411
-9.53586
-9.73219
-9.91836
-10.093
-10.2568
-10.4106
-10.5551
-10.6912
-10.8198
-10.9415
-11.057
-11.1668
-11.2715
-11.3715
-11.4672
-11.5591
-11.6476
-11.733
-11.8159
-11.8966
-11.9755
-12.0533
-12.1305
-12.2076
-12.2855
-12.365
-12.4471
-12.533
-8.79899
-8.84925
-8.98313
-9.15731
-9.34146
-9.52867
-9.71438
-9.89368
-10.0645
-10.2265
-10.38
-10.5253
-10.6628
-10.7932
-10.917
-11.0346
-11.1467
-11.2536
-11.3558
-11.4537
-11.5478
-11.6385
-11.7262
-11.8114
-11.8946
-11.9762
-12.0567
-12.1369
-12.2173
-12.2986
-12.3817
-12.4675
-12.557
-8.86396
-8.90735
-9.02353
-9.178
-9.34602
-9.52074
-9.69718
-9.87033
-10.0376
-10.198
-10.3512
-10.4971
-10.636
-10.7681
-10.8938
-11.0135
-11.1277
-11.2367
-11.341
-11.4409
-11.5371
-11.6298
-11.7195
-11.8068
-11.892
-11.9758
-12.0586
-12.1411
-12.2239
-12.3078
-12.3934
-12.4815
-12.5732
-8.91154
-8.94975
-9.05249
-9.19153
-9.34644
-9.51081
-9.67948
-9.84743
-10.0117
-10.1708
-10.3239
-10.4706
-10.6109
-10.7447
-10.8724
-10.9942
-11.1104
-11.2215
-11.3278
-11.4298
-11.5278
-11.6224
-11.7139
-11.803
-11.89
-11.9756
-12.0602
-12.1444
-12.229
-12.3144
-12.4015
-12.4908
-12.5832
-8.94252
-8.97689
-9.06959
-9.19686
-9.34149
-9.49765
-9.66017
-9.82404
-9.98601
-10.1443
-10.2976
-10.4453
-10.587
-10.7226
-10.8522
-10.976
-11.0942
-11.2072
-11.3153
-11.419
-11.5187
-11.6148
-11.7078
-11.7983
-11.8866
-11.9734
-12.0591
-12.1444
-12.2298
-12.3159
-12.4033
-12.4927
-12.5846
-8.95728
-8.98888
-9.07436
-9.19304
-9.33008
-9.4802
-9.63832
-9.79944
-9.96016
-10.1183
-10.2725
-10.4216
-10.5651
-10.7027
-10.8345
-10.9604
-11.0806
-11.1956
-11.3056
-11.4109
-11.5121
-11.6096
-11.7039
-11.7954
-11.8847
-11.9722
-12.0586
-12.1443
-12.2298
-12.3158
-12.4027
-12.491
-12.5813
-8.95579
-8.98556
-9.06618
-9.17908
-9.31107
-9.45731
-9.61281
-9.77258
-9.93308
-10.0919
-10.2474
-10.3982
-10.5437
-10.6835
-10.8173
-10.9453
-11.0675
-11.1842
-11.2957
-11.4025
-11.5049
-11.6034
-11.6984
-11.7905
-11.8802
-11.9679
-12.0542
-12.1395
-12.2244
-12.3093
-12.3947
-12.481
-12.5688
-8.93768
-8.96639
-9.04428
-9.15403
-9.2835
-9.42816
-9.58309
-9.74329
-9.90508
-10.0659
-10.2237
-10.3772
-10.5254
-10.6679
-10.8043
-10.9346
-11.059
-11.1776
-11.2908
-11.3989
-11.5024
-11.6017
-11.6973
-11.7897
-11.8794
-11.9668
-12.0525
-12.1369
-12.2205
-12.3036
-12.3868
-12.4703
-12.5545
-8.9021
-8.93048
-9.0076
-9.11667
-9.246
-9.39127
-9.54753
-9.70969
-9.87395
-10.0375
-10.1983
-10.3549
-10.5061
-10.6513
-10.7903
-10.923
-11.0493
-11.1696
-11.2841
-11.3933
-11.4975
-11.5972
-11.6929
-11.785
-11.8741
-11.9606
-12.0451
-12.1278
-12.2093
-12.29
-12.3701
-12.4501
-12.5302
-8.84777
-8.87659
-8.95495
-9.06597
-9.198
-9.34669
-9.50702
-9.67368
-9.84269
-10.0111
-10.1766
-10.3376
-10.493
-10.642
-10.7843
-10.9197
-11.0485
-11.1706
-11.2866
-11.3968
-11.5016
-11.6015
-11.697
-11.7886
-11.8767
-11.9619
-12.0446
-12.1251
-12.204
-12.2815
-12.358
-12.4337
-12.5089
-8.77284
-8.80282
-8.88437
-8.99978
-9.13684
-9.29106
-9.4572
-9.62977
-9.80461
-9.97864
-10.1495
-10.3154
-10.4751
-10.6281
-10.7737
-10.912
-11.043
-11.1669
-11.2841
-11.3949
-11.5
-11.5996
-11.6945
-11.785
-11.8716
-11.9548
-12.0351
-12.1129
-12.1885
-12.2623
-12.3346
-12.4057
-12.4758
-8.67482
-8.707
-8.79447
-8.91801
-9.06429
-9.22842
-9.40473
-9.58725
-9.77149
-9.95417
-10.1328
-10.3056
-10.4713
-10.6292
-10.779
-10.9206
-11.0541
-11.1799
-11.2983
-11.4097
-11.5148
-11.6139
-11.7077
-11.7967
-11.8814
-11.9622
-12.0396
-12.114
-12.1858
-12.2553
-12.3228
-12.3885
-12.4525
-8.55016
-8.58525
-8.68069
-8.81453
-8.97169
-9.147
-9.33452
-9.5279
-9.72239
-9.91457
-10.1018
-10.2822
-10.4546
-10.6181
-10.7726
-10.9178
-11.0541
-11.1818
-11.3013
-11.4132
-11.518
-11.6163
-11.7087
-11.7957
-11.8779
-11.9558
-12.0298
-12.1004
-12.1679
-12.2327
-12.2951
-12.3554
-12.4137
-8.3947
-8.43514
-8.54441
-8.69638
-8.8729
-9.0677
-9.27389
-9.48429
-9.69386
-9.89914
-10.0976
-10.2874
-10.4674
-10.6372
-10.7965
-10.9454
-11.0843
-11.2136
-11.3338
-11.4457
-11.5498
-11.6467
-11.7371
-11.8215
-11.9006
-11.9749
-12.0449
-12.1109
-12.1734
-12.2328
-12.2893
-12.3431
-12.3945
-8.20097
-8.24617
-8.36949
-8.5388
-8.73316
-8.94668
-9.17199
-9.40091
-9.62778
-9.8488
-10.0611
-10.2629
-10.453
-10.6309
-10.7967
-10.9504
-11.0927
-11.2241
-11.3454
-11.4573
-11.5605
-11.6558
-11.7439
-11.8254
-11.9011
-11.9715
-12.037
-12.0982
-12.1556
-12.2094
-12.2601
-12.308
-12.3533
-7.96381
-8.02369
-8.17989
-8.38738
-8.61771
-8.86385
-9.11777
-9.37091
-9.61803
-9.85589
-10.0821
-10.2951
-10.4942
-10.6791
-10.8501
-11.0076
-11.1522
-11.2848
-11.4061
-11.517
-11.6184
-11.7111
-11.7959
-11.8736
-11.9448
-12.0101
-12.0702
-12.1254
-12.1764
-12.2234
-12.2669
-12.3071
-12.3443
-7.66096
-7.72329
-7.89953
-8.1338
-8.39489
-8.67623
-8.96624
-9.2532
-9.5307
-9.79501
-10.0434
-10.2746
-10.488
-10.684
-10.8631
-11.0262
-11.1744
-11.3088
-11.4305
-11.5406
-11.6402
-11.7303
-11.8118
-11.8856
-11.9523
-12.0127
-12.0675
-12.1171
-12.162
-12.2028
-12.2398
-12.2736
-12.3044
-7.30283
-7.4205
-7.6824
-7.98804
-8.30045
-8.62262
-8.94581
-9.25946
-9.55906
-9.842
-10.106
-10.3501
-10.5739
-10.7779
-10.9628
-11.1297
-11.2797
-11.4143
-11.5347
-11.6423
-11.7382
-11.8237
-11.8998
-11.9674
-12.0274
-12.0806
-12.1277
-12.1692
-12.2057
-12.2376
-12.2655
-12.2898
-12.3109
-6.77652
-6.86803
-7.16766
-7.54119
-7.93462
-8.34056
-8.73851
-9.11462
-9.46525
-9.78849
-10.0833
-10.3501
-10.5904
-10.8058
-10.9983
-11.1698
-11.3221
-11.4572
-11.5767
-11.6823
-11.7753
-11.8572
-11.9291
-11.9921
-12.047
-12.0947
-12.1358
-12.171
-12.2008
-12.2257
-12.2462
-12.2631
-12.277
-6.28433
-6.6072
-7.07649
-7.49756
-7.9106
-8.34277
-8.7658
-9.16619
-9.54233
-9.89054
-10.2078
-10.4938
-10.7493
-10.9757
-11.1752
-11.35
-11.5024
-11.6349
-11.7496
-11.8487
-11.9338
-12.0068
-12.069
-12.1217
-12.1661
-12.2029
-12.2329
-12.2568
-12.2748
-12.2874
-12.2949
-12.2981
-12.297
-4.98411
-5.30657
-6.08122
-6.78322
-7.42274
-8.03293
-8.58175
-9.06891
-9.50474
-9.89305
-10.2372
-10.5415
-10.8096
-11.0451
-11.2509
-11.4299
-11.5849
-11.7184
-11.8327
-11.93
-12.0123
-12.0815
-12.139
-12.1863
-12.2245
-12.2545
-12.2772
-12.2929
-12.3018
-12.3042
-12.2992
-12.2881
-12.2664
-4.97356
-5.71937
-6.32619
-6.79651
-7.40053
-8.03868
-8.63429
-9.18986
-9.69914
-10.1516
-10.5463
-10.8868
-11.1772
-11.4225
-11.6278
-11.7984
-11.939
-12.054
-12.1473
-12.2221
-12.2814
-12.3276
-12.3628
-12.3887
-12.4067
-12.4179
-12.4232
-12.4229
-12.417
-12.4045
-12.3826
-12.3482
-12.2875
1.2742
-3.33428
-5.12078
-5.97478
-6.98096
-7.86172
-8.56751
-9.18112
-9.71891
-10.1813
-10.5772
-10.9149
-11.2008
-11.4411
-11.6418
-11.8081
-11.945
-12.0567
-12.147
-12.2193
-12.2762
-12.3203
-12.3535
-12.3777
-12.3943
-12.4044
-12.4092
-12.4094
-12.406
-12.3985
-12.3898
-12.3746
-12.3645
-12.2061
-12.4887
-12.1755
-11.2073
-9.63879
-7.99378
-6.8886
-6.88532
-8.21329
-11.0656
-15.3492
-20.7346
-26.7475
-32.8752
-38.6296
-43.5643
-47.2679
-49.4689
-50.0954
-49.3094
-47.3768
-44.4794
-40.744
-36.3883
-31.7579
-27.1896
-22.8897
-18.9302
-15.3245
-12.0822
-9.21648
-6.73291
-4.6219
-2.85994
-1.41453
-0.248744
0.675403
1.3945
1.94225
2.34873
2.64016
2.83894
2.96395
3.03087
3.05267
3.04
3.00165
2.94478
2.87518
2.79732
2.71454
2.6292
2.54297
2.45703
2.37224
2.28926
2.20861
2.13063
2.05553
1.98338
1.91415
1.84776
1.78409
1.72297
1.66424
1.60772
1.55323
1.50056
1.44952
1.39993
1.35159
1.30435
1.25804
1.2125
1.16761
1.12324
1.07926
1.03558
0.992106
0.948746
0.905421
0.862057
0.818588
0.774959
0.731117
0.687017
0.642615
0.597875
0.552758
0.507244
0.46128
0.414898
0.367947
0.320676
0.272465
0.224568
0.174213
0.127256
0.071223
0.0326609
-12.2864
-12.3244
-11.9312
-10.9832
-9.54865
-8.0615
-7.00057
-6.94665
-8.33138
-11.1751
-15.2522
-20.2662
-25.827
-31.4909
-36.816
-41.4007
-44.8781
-47.0351
-47.818
-47.2988
-45.579
-42.7739
-39.0777
-34.8217
-30.4011
-26.1182
-22.1096
-18.4055
-15.0117
-11.9414
-9.21132
-6.82997
-4.7915
-3.07711
-1.65931
-0.505826
0.417211
1.14302
1.70264
2.12415
2.43225
2.64833
2.79052
2.87407
2.91162
2.91368
2.88892
2.8445
2.78623
2.71864
2.64513
2.56815
2.48942
2.41017
2.33135
2.25367
2.17769
2.10383
2.03235
1.96337
1.89692
1.83295
1.77138
1.71209
1.65494
1.59979
1.54647
1.49481
1.44465
1.3958
1.34811
1.30142
1.25557
1.21044
1.16588
1.12179
1.07806
1.03459
0.991288
0.948073
0.904868
0.861603
0.818218
0.774656
0.730868
0.686813
0.642447
0.597734
0.552638
0.507141
0.461188
0.414816
0.367867
0.320603
0.272384
0.224504
0.174124
0.127214
0.0711254
0.0326702
-12.186
-12.1902
-11.8097
-10.8958
-9.56205
-8.20719
-7.34243
-7.4571
-8.81928
-11.5184
-15.4034
-20.1173
-25.2608
-30.456
-35.3361
-39.5577
-42.8315
-44.9658
-45.8216
-45.3598
-43.6308
-40.802
-37.1677
-33.1181
-29.0141
-25.0697
-21.3592
-17.8999
-14.7061
-11.7993
-9.20005
-6.91873
-4.95239
-3.28632
-1.89749
-0.75797
0.16228
0.893261
1.46344
1.8989
2.22287
2.45564
2.61463
2.71455
2.76773
2.78448
2.77337
2.74151
2.6947
2.63753
2.57346
2.505
2.43393
2.36156
2.28886
2.21663
2.14547
2.07587
2.00813
1.94244
1.87886
1.81741
1.75804
1.70065
1.64516
1.59144
1.53936
1.48877
1.43953
1.39148
1.34447
1.29836
1.25302
1.20831
1.16412
1.12035
1.07688
1.03362
0.99051
0.94745
0.904375
0.861218
0.817922
0.774434
0.730705
0.686698
0.642371
0.597689
0.552617
0.507138
0.461198
0.414836
0.367891
0.320633
0.272408
0.224542
0.17414
0.127273
0.0711319
0.0327624
-12.1424
-12.0567
-11.6582
-10.8493
-9.74909
-8.6768
-8.02927
-8.23416
-9.59066
-12.1621
-15.7853
-20.1637
-24.9346
-29.731
-34.2158
-38.1096
-41.1677
-43.1261
-43.7989
-43.1626
-41.3275
-38.5296
-35.1063
-31.4045
-27.6822
-24.0753
-20.6408
-17.4078
-14.4032
-11.6539
-9.18187
-6.99868
-5.10405
-3.48695
-2.12844
-1.00453
-0.0887614
0.645819
1.22519
1.67348
2.01243
2.26124
2.43655
2.55253
2.62118
2.65255
2.65509
2.63584
2.60061
2.554
2.49953
2.43976
2.37654
2.31121
2.24481
2.17818
2.11199
2.04678
1.98291
1.92062
1.86003
1.80119
1.7441
1.68869
1.63492
1.58269
1.5319
1.48242
1.43414
1.38691
1.34061
1.29511
1.25028
1.20602
1.16221
1.11875
1.07555
1.03253
0.989607
0.946709
0.903769
0.860724
0.817521
0.774109
0.730443
0.686487
0.642201
0.597551
0.552504
0.507045
0.461119
0.414767
0.367826
0.320576
0.272346
0.224494
0.174073
0.127244
0.0710605
0.0327727
-12.0871
-11.9612
-11.6178
-10.9836
-10.1518
-9.3663
-8.9555
-9.26446
-10.5492
-12.8984
-16.2065
-20.2172
-24.5962
-28.9992
-33.1058
-36.6386
-39.3182
-40.916
-41.3132
-40.5278
-38.7154
-36.1349
-33.0725
-29.7761
-26.4239
-23.1259
-19.946
-16.9269
-14.1037
-11.5062
-9.15731
-7.07007
-5.24652
-3.67891
-2.35191
-1.24515
-0.335485
0.401148
0.98834
1.4483
1.80131
2.06545
2.25657
2.38828
2.47217
2.51806
2.53423
2.52764
2.50406
2.46813
2.42339
2.37247
2.31724
2.25911
2.19917
2.13829
2.07722
2.01653
1.95665
1.89788
1.84038
1.78425
1.72951
1.67617
1.62419
1.57352
1.52407
1.47576
1.42848
1.38212
1.33657
1.29171
1.24743
1.20364
1.16023
1.11711
1.07421
1.03143
0.988712
0.945986
0.903191
0.860266
0.817163
0.773833
0.730235
0.686333
0.64209
0.597476
0.552456
0.507019
0.461108
0.414768
0.367833
0.320591
0.272357
0.224518
0.17408
0.127285
0.0710625
0.0328397
-12.0749
-11.9465
-11.6703
-11.2072
-10.6371
-10.1447
-9.97528
-10.3859
-11.5793
-13.6466
-16.5363
-20.0622
-23.9459
-27.8703
-31.5225
-34.5962
-36.8566
-38.1535
-38.4099
-37.6681
-36.0826
-33.8529
-31.1844
-28.263
-25.2381
-22.2173
-19.2732
-16.4567
-13.8071
-11.3557
-9.12622
-7.13279
-5.37965
-3.86192
-2.56752
-1.47936
-0.577387
0.159761
0.753384
1.22383
1.58993
1.86865
2.07501
2.22204
2.32092
2.38117
2.41091
2.41699
2.40513
2.37998
2.3451
2.30316
2.25608
2.20531
2.15197
2.09699
2.04118
1.98514
1.92939
1.87424
1.81993
1.7666
1.71431
1.66311
1.61299
1.56393
1.51588
1.46878
1.42255
1.37709
1.33231
1.28812
1.24441
1.20111
1.15811
1.11535
1.07274
1.03022
0.987715
0.945169
0.902523
0.859724
0.816725
0.773481
0.729953
0.686109
0.641912
0.597335
0.552344
0.506929
0.461035
0.414708
0.367779
0.320545
0.272308
0.224482
0.174029
0.127265
0.071011
0.0328482
-12.0792
-11.9659
-11.7551
-11.4322
-11.0636
-10.7916
-10.8047
-11.2979
-12.4243
-14.2527
-16.7459
-19.7647
-23.0911
-26.461
-29.5939
-32.2349
-34.1941
-35.3347
-35.6026
-35.026
-33.7069
-31.7956
-29.4577
-26.8513
-24.1119
-21.3438
-18.6211
-15.9975
-13.5139
-11.203
-9.08887
-7.18702
-5.50346
-4.03585
-2.77501
-1.70682
-0.814043
-0.0778838
0.520786
1.00052
1.37871
1.67121
1.8922
2.0541
2.16766
2.24209
2.2853
2.30403
2.30394
2.28963
2.26472
2.23188
2.19309
2.14982
2.10323
2.0543
2.00387
1.95262
1.9011
1.84969
1.79867
1.74823
1.69848
1.64948
1.60129
1.55391
1.50732
1.46148
1.41634
1.37182
1.32786
1.28436
1.24126
1.19847
1.15591
1.11352
1.07123
1.02898
0.986702
0.944347
0.901861
0.859196
0.816307
0.773155
0.729703
0.685919
0.641772
0.597234
0.552275
0.506884
0.461009
0.414695
0.367774
0.320549
0.272311
0.224496
0.174031
0.127294
0.0710116
0.0328959
-12.1037
-12.0177
-11.8689
-11.6582
-11.4423
-11.333
-11.476
-12.0201
-13.0811
-14.7093
-16.8725
-19.4585
-22.2927
-25.1619
-27.8472
-30.1423
-31.8678
-32.8939
-33.1672
-32.7038
-31.5821
-29.9212
-27.8564
-25.5228
-23.0405
-20.5058
-17.991
-15.5498
-13.2244
-11.048
-9.04543
-7.23286
-5.61797
-4.2006
-2.97414
-1.92716
-1.04504
-0.311329
0.291015
0.778817
1.16806
1.47351
1.70848
1.88476
2.01265
2.10104
2.15759
2.18892
2.20059
2.19719
2.18233
2.15871
2.12833
2.09268
2.05298
2.01023
1.96531
1.91898
1.87181
1.82425
1.77662
1.72916
1.68202
1.63532
1.58912
1.54348
1.4984
1.45387
1.40986
1.36632
1.32319
1.28042
1.23794
1.19568
1.15358
1.11158
1.06962
1.02764
0.985603
0.943446
0.901126
0.858599
0.815826
0.77277
0.729396
0.685676
0.64158
0.597085
0.552159
0.506794
0.460937
0.414639
0.367727
0.32051
0.272272
0.224467
0.173993
0.127279
0.0709749
0.0329014
-12.1437
-12.0892
-11.9982
-11.8811
-11.7863
-11.8015
-12.0386
-12.6108
-13.6059
-15.0614
-16.9505
-19.1824
-21.6155
-24.0766
-26.3848
-28.3609
-29.85
-30.7452
-30.9987
-30.6157
-29.6513
-28.1977
-26.3669
-24.2739
-22.0238
-19.704
-17.3829
-15.1138
-12.9389
-10.8913
-8.99624
-7.27056
-5.72329
-4.35613
-3.16474
-2.14012
-1.27
-0.540156
0.0645098
0.559162
0.958416
1.27594
1.52419
1.71433
1.85617
1.95824
2.02798
2.07182
2.09524
2.10277
2.09803
2.08371
2.06185
2.03396
2.00126
1.96482
1.92555
1.88424
1.84153
1.79792
1.75378
1.70939
1.66494
1.6206
1.57647
1.53262
1.4891
1.44593
1.40309
1.36057
1.31833
1.27631
1.23448
1.19278
1.15115
1.10956
1.06795
1.02627
0.984474
0.942526
0.900382
0.858002
0.815351
0.772396
0.729106
0.685455
0.641414
0.596963
0.552072
0.506735
0.460899
0.414617
0.367715
0.320508
0.272271
0.224476
0.173994
0.127299
0.0709766
0.0329348
-12.1956
-12.174
-12.1358
-12.0959
-12.0956
-12.2037
-12.5063
-13.0892
-14.0185
-15.3211
-16.9742
-18.9041
-20.9954
-23.105
-25.0788
-26.7705
-28.0534
-28.8329
-29.0598
-28.7321
-27.8909
-26.6101
-24.9816
-23.1015
-21.0607
-18.9378
-16.7971
-14.6899
-12.6576
-10.7332
-8.94165
-7.30042
-5.81957
-4.50245
-3.34669
-2.34543
-1.48859
-0.763969
-0.158303
0.341987
0.75019
1.07889
1.33971
1.54314
1.69849
1.81395
1.89667
1.95291
1.98803
2.00651
2.01192
2.00699
1.99374
1.9737
1.94814
1.91812
1.88461
1.84843
1.81029
1.77073
1.73017
1.68893
1.64726
1.60535
1.56334
1.52135
1.47945
1.43768
1.39606
1.35459
1.31325
1.27202
1.23086
1.18974
1.14861
1.10744
1.06618
1.0248
0.983268
0.941537
0.899574
0.857347
0.814823
0.771974
0.72877
0.685189
0.641206
0.596802
0.551948
0.50664
0.460827
0.414561
0.36767
0.320473
0.272238
0.224453
0.173965
0.127287
0.0709502
0.0329359
-12.2553
-12.2652
-12.2732
-12.2959
-12.3682
-12.5443
-12.8901
-13.4704
-14.334
-15.4996
-16.9471
-18.6161
-20.4123
-22.2176
-23.9052
-25.3525
-26.4505
-27.1174
-27.3093
-27.0207
-26.2812
-25.1478
-23.6946
-22.0024
-20.1498
-18.2072
-16.2338
-14.2785
-12.3812
-10.5742
-8.88214
-7.32279
-5.90706
-4.63965
-3.51992
-2.54293
-1.70053
-0.982412
-0.377025
0.127707
0.543794
0.88277
1.15541
1.37152
1.53993
1.66844
1.76391
1.83241
1.87915
1.90855
1.92415
1.92865
1.92408
1.912
1.89367
1.87018
1.84254
1.81161
1.77813
1.74271
1.70582
1.66781
1.62899
1.58957
1.54975
1.50967
1.46943
1.42911
1.38875
1.34837
1.30798
1.26756
1.2271
1.18657
1.14596
1.10523
1.06435
1.02329
0.982026
0.940523
0.898752
0.856685
0.814294
0.771556
0.728444
0.684939
0.641017
0.596662
0.551848
0.506571
0.460781
0.414534
0.367655
0.320469
0.272237
0.224461
0.173969
0.127304
0.0709556
0.0329598
-12.3189
-12.3578
-12.4052
-12.4779
-12.6049
-12.829
-13.2004
-13.7676
-14.5662
-15.6084
-16.8761
-18.3194
-19.8608
-21.4034
-22.842
-24.0737
-25.0069
-25.5722
-25.7291
-25.4685
-24.811
-23.8011
-22.4992
-20.9729
-19.2897
-17.5117
-15.6933
-13.88
-12.1102
-10.4148
-8.8182
-7.33808
-5.98604
-4.76788
-3.68444
-2.73247
-1.90557
-1.19517
-0.591287
-0.0832829
0.339631
0.687961
0.971639
1.19982
1.3808
1.52199
1.62995
1.71053
1.7688
1.80907
1.83485
1.84882
1.853
1.84895
1.83794
1.82108
1.7994
1.77381
1.74509
1.7139
1.68075
1.64605
1.61014
1.57329
1.53572
1.4976
1.45908
1.42025
1.38118
1.34193
1.3025
1.26292
1.22318
1.18328
1.1432
1.10292
1.06243
1.0217
0.980713
0.939444
0.89787
0.855969
0.813717
0.771094
0.728076
0.684649
0.640791
0.596487
0.551714
0.50647
0.460705
0.414477
0.367611
0.320436
0.272208
0.22444
0.173945
0.127292
0.0709356
0.0329552
-12.3836
-12.4478
-12.5281
-12.6395
-12.8065
-13.0625
-13.4457
-13.992
-14.7269
-15.6575
-16.7674
-18.0149
-19.3362
-20.6517
-21.8745
-22.9183
-23.7062
-24.1783
-24.2984
-24.0559
-23.465
-22.5601
-21.3897
-20.01
-18.4789
-16.8511
-15.1757
-13.495
-11.8452
-10.2558
-8.75041
-7.34679
-6.05686
-4.88734
-3.84031
-2.91398
-2.10353
-1.40196
-0.800755
-0.290612
0.138086
0.49485
0.788787
1.02839
1.22143
1.37489
1.49506
1.58751
1.65717
1.70826
1.7442
1.76765
1.78062
1.78466
1.78104
1.77089
1.75526
1.7351
1.71123
1.68434
1.65501
1.62369
1.59076
1.55653
1.52125
1.48515
1.44839
1.41109
1.37336
1.33526
1.29684
1.25812
1.21913
1.17987
1.14034
1.10054
1.06045
1.02006
0.979364
0.938341
0.896975
0.855247
0.81314
0.770638
0.72772
0.684376
0.640584
0.596334
0.551605
0.506395
0.460657
0.414449
0.367598
0.320434
0.272212
0.224451
0.173955
0.12731
0.0709473
0.0329738
-12.4461
-12.5319
-12.6385
-12.7793
-12.9742
-13.2494
-13.6336
-14.1534
-14.8263
-15.6557
-16.6265
-17.7037
-18.8346
-19.9538
-20.9892
-21.8689
-22.5282
-22.9161
-23.0005
-22.77
-22.2335
-21.4173
-20.3608
-19.1106
-17.716
-16.2248
-14.6811
-13.1239
-11.5866
-10.0976
-8.67938
-7.34944
-6.11994
-4.99831
-3.98764
-3.08744
-2.29429
-1.60256
-1.00513
-0.493938
-0.0604747
0.303811
0.607219
0.857585
1.06214
1.22747
1.35951
1.46361
1.54452
1.60632
1.65237
1.6853
1.70708
1.71926
1.72309
1.71973
1.71022
1.69556
1.6766
1.6541
1.62865
1.60077
1.57087
1.53931
1.50639
1.47234
1.43738
1.40165
1.36529
1.32838
1.29098
1.25316
1.21493
1.17634
1.13737
1.09805
1.05838
1.01834
0.977944
0.937173
0.896019
0.85447
0.812512
0.770133
0.727319
0.684059
0.640336
0.596142
0.551458
0.506285
0.460574
0.414387
0.367551
0.3204
0.272183
0.224429
0.173934
0.127294
0.0709301
0.0329612
-12.5046
-12.6081
-12.7351
-12.8969
-13.1099
-13.3942
-13.7714
-14.2606
-14.8737
-15.6112
-16.459
-17.3877
-18.3537
-19.3031
-20.1761
-20.9128
-21.459
-21.7714
-21.8214
-21.5977
-21.1054
-20.3649
-19.4074
-18.2716
-16.9993
-15.6323
-14.2097
-12.767
-11.3352
-9.94095
-8.60577
-7.34661
-6.17576
-5.10111
-4.12664
-3.25292
-2.47775
-1.7968
-1.20417
-0.692953
-0.255708
0.115204
0.427297
0.687756
0.903281
1.08003
1.22361
1.33911
1.43108
1.50348
1.55958
1.60195
1.63255
1.65289
1.66422
1.66769
1.66437
1.65527
1.64129
1.62322
1.60172
1.57733
1.55052
1.52168
1.49115
1.4592
1.42608
1.39196
1.357
1.3213
1.28496
1.24805
1.21062
1.1727
1.13432
1.0955
1.05626
1.01659
0.9765
0.935992
0.89506
0.853697
0.811895
0.769647
0.726941
0.683768
0.640118
0.595983
0.551346
0.506212
0.460529
0.414365
0.367545
0.320406
0.272197
0.224448
0.173955
0.127317
0.070952
0.0329787
-12.5568
-12.6742
-12.8161
-12.9921
-13.215
-13.5005
-13.8647
-14.3209
-14.8766
-15.5304
-16.2694
-17.0685
-17.8916
-18.6939
-19.4262
-20.0385
-20.4856
-20.7305
-20.7484
-20.5281
-20.0723
-19.3961
-18.5247
-17.49
-16.3273
-15.0729
-13.7613
-12.4247
-11.0916
-9.78657
-8.53026
-7.33895
-6.22484
-5.19616
-4.25755
-3.41051
-2.65392
-1.98455
-1.39765
-0.887385
-0.447298
-0.0706309
0.249374
0.519258
0.745194
0.932908
1.08767
1.21429
1.31713
1.39999
1.46604
1.51781
1.55721
1.58572
1.60458
1.61492
1.61784
1.61435
1.60539
1.59181
1.57429
1.55343
1.52975
1.50367
1.47557
1.44576
1.41451
1.38202
1.34849
1.31403
1.27877
1.2428
1.20617
1.16894
1.13116
1.09286
1.05405
1.01475
0.974979
0.934739
0.894033
0.85286
0.811217
0.769101
0.726504
0.683423
0.639847
0.595771
0.551183
0.506087
0.460436
0.414296
0.367493
0.320367
0.272166
0.224423
0.173933
0.127295
0.0709337
0.0329553
-12.6019
-12.7296
-12.8816
-13.0658
-13.2923
-13.5731
-13.9197
-14.3414
-14.8426
-15.4202
-16.0626
-16.7484
-17.4473
-18.1224
-18.7328
-19.2371
-19.5974
-19.7826
-19.7708
-19.5515
-19.1256
-18.5045
-17.7081
-16.7628
-15.6983
-14.5458
-13.3359
-12.0974
-10.8562
-9.63513
-8.45357
-7.32712
-6.26775
-5.28389
-4.3807
-3.56042
-2.82284
-2.16575
-1.58542
-1.07701
-0.634965
-0.253375
0.0737879
0.352439
0.588226
0.786444
0.952012
1.08947
1.20295
1.29611
1.37201
1.43311
1.48127
1.51794
1.54433
1.56157
1.57074
1.5729
1.56901
1.55994
1.54644
1.52915
1.50863
1.48534
1.45971
1.43206
1.40271
1.37189
1.3398
1.30661
1.27246
1.23743
1.20163
1.16512
1.12795
1.09017
1.05181
1.0129
0.973459
0.933496
0.893025
0.85205
0.810572
0.768595
0.726112
0.683125
0.639627
0.595614
0.551077
0.506018
0.4604
0.414286
0.367502
0.320389
0.272196
0.224457
0.173971
0.12733
0.0709709
0.0329757
-12.6384
-12.773
-12.9309
-13.1184
-13.3434
-13.6147
-13.9407
-14.3275
-14.777
-15.2855
-15.8421
-16.4286
-17.0197
-17.5847
-18.0896
-18.5004
-18.7851
-18.9175
-18.8788
-18.6592
-18.2582
-17.6843
-16.9535
-16.0872
-15.1106
-14.0504
-12.9334
-11.7853
-10.6296
-9.48732
-8.37644
-7.31183
-6.30514
-5.36485
-4.49647
-3.70287
-2.98463
-2.34041
-1.76739
-1.26164
-0.818463
-0.43274
-0.0991414
0.187635
0.432721
0.640981
0.816977
0.964964
1.08885
1.19213
1.27776
1.34809
1.40495
1.44975
1.48367
1.5078
1.52325
1.53106
1.53225
1.52772
1.51826
1.50456
1.48722
1.46674
1.44359
1.41813
1.39069
1.36155
1.33094
1.29903
1.26599
1.23193
1.19697
1.16118
1.12463
1.08738
1.04948
1.01096
0.971846
0.932165
0.891931
0.851156
0.809846
0.768008
0.725642
0.68275
0.63933
0.595382
0.550896
0.505877
0.460294
0.414206
0.367441
0.320339
0.27216
0.224425
0.173945
0.127297
0.070948
0.0329369
-12.6665
-12.805
-12.9652
-13.1521
-13.3714
-13.6299
-13.9334
-14.2854
-14.6863
-15.1319
-15.6123
-16.1117
-16.6089
-17.0785
-17.4923
-17.822
-18.041
-18.1271
-18.0642
-17.8433
-17.4632
-16.9301
-16.2566
-15.4604
-14.5624
-13.5857
-12.5536
-11.4888
-10.4124
-9.34382
-8.29961
-7.29383
-6.33768
-5.43959
-4.60531
-3.8382
-3.13948
-2.50859
-1.94351
-1.44114
-0.997591
-0.608466
-0.269115
0.0251736
0.279022
0.496864
0.682907
0.841112
0.975162
1.08837
1.18356
1.26303
1.32852
1.38139
1.4228
1.45382
1.47553
1.489
1.49527
1.49528
1.48986
1.47976
1.46561
1.44796
1.4273
1.40404
1.37854
1.3511
1.32197
1.29137
1.25945
1.22638
1.19227
1.15721
1.1213
1.0846
1.04717
1.00905
0.970277
0.930885
0.890896
0.850327
0.809191
0.767497
0.725251
0.682459
0.639121
0.595239
0.550806
0.505832
0.460281
0.414218
0.367473
0.320384
0.272216
0.224481
0.174009
0.12735
0.071007
0.0329635
-12.6848
-12.8246
-12.984
-13.1669
-13.3776
-13.6209
-13.9006
-14.2186
-14.5741
-14.9626
-15.3752
-15.7982
-16.2139
-16.6009
-16.9361
-17.1957
-17.3578
-17.4037
-17.3194
-17.097
-16.7346
-16.2369
-15.6138
-14.8797
-14.0522
-13.1509
-12.1961
-11.2079
-10.2051
-9.2053
-8.22385
-7.27388
-6.36609
-5.50874
-4.70774
-3.96679
-3.28765
-2.67042
-2.11381
-1.61545
-1.17219
-0.780332
-0.435861
-0.134637
0.127462
0.354443
0.550156
0.718267
0.86222
0.985147
1.08975
1.17821
1.25223
1.31311
1.36196
1.39982
1.42777
1.44688
1.45821
1.46274
1.46136
1.45484
1.44387
1.42904
1.41087
1.38981
1.36625
1.34051
1.31287
1.28357
1.25279
1.2207
1.18744
1.15313
1.11785
1.0817
1.04474
1.00702
0.968588
0.929487
0.889743
0.849382
0.808419
0.766871
0.724746
0.682054
0.638798
0.594984
0.550606
0.505676
0.460159
0.414123
0.3674
0.320325
0.27217
0.224437
0.173975
0.127301
0.070977
0.032903
-12.695
-12.8338
-12.9899
-13.1663
-13.366
-13.5924
-13.8478
-14.1329
-14.4461
-14.7828
-15.135
-15.4909
-15.8355
-16.151
-16.4182
-16.6174
-16.7304
-16.7413
-16.6382
-16.4142
-16.0671
-15.6003
-15.0215
-14.3426
-13.5782
-12.7451