/*--------------------------------*- C++ -*----------------------------------*\
| =========                 |                                                 |
| \\      /  F ield         | OpenFOAM: The Open Source CFD Toolbox           |
|  \\    /   O peration     | Version:  2.1.1                                 |
|   \\  /    A nd           | Web:      www.OpenFOAM.org                      |
|    \\/     M anipulation  |                                                 |
\*---------------------------------------------------------------------------*/
FoamFile
{
    version     2.0;
    format      ascii;
    class       surfaceScalarField;
    location    "0.035";
    object      phi;
}
// * * * * * * * * * * * * * * * * * * * * * * * * * * * * * * * * * * * * * //

dimensions      [0 3 -1 0 0 0 0];

internalField   nonuniform List<scalar> 
13452
(
4.59961e-05
2.24912e-05
2.9656e-05
1.63401e-05
2.11731e-05
8.48291e-06
1.72639e-05
3.90919e-06
1.56125e-05
1.65137e-06
1.47942e-05
8.18308e-07
1.42724e-05
5.21832e-07
1.38701e-05
4.02265e-07
1.35273e-05
3.42828e-07
1.32283e-05
2.98943e-07
1.29686e-05
2.59786e-07
1.27439e-05
2.24705e-07
1.25497e-05
1.94116e-07
1.23816e-05
1.68086e-07
1.22354e-05
1.4625e-07
1.21074e-05
1.2804e-07
1.19945e-05
1.12876e-07
1.18942e-05
1.00247e-07
1.18045e-05
8.97321e-08
1.17235e-05
8.09921e-08
1.16498e-05
7.37563e-08
1.1582e-05
6.78032e-08
1.1519e-05
6.29382e-08
1.146e-05
5.89865e-08
1.14043e-05
5.57255e-08
1.13513e-05
5.29996e-08
1.13011e-05
5.0201e-08
1.12534e-05
4.76853e-08
1.12114e-05
4.19925e-08
1.11716e-05
3.98041e-08
1.11579e-05
1.36989e-08
1.11218e-05
3.61285e-08
-1.99159e-07
1.1321e-05
7.49108e-05
1.80243e-05
7.04042e-05
2.08467e-05
6.33047e-05
1.55825e-05
5.66378e-05
1.05761e-05
5.15079e-05
6.78122e-06
4.78383e-05
4.48792e-06
4.52031e-05
3.15704e-06
4.32603e-05
2.34512e-06
4.17766e-05
1.82647e-06
4.06023e-05
1.47324e-06
3.9645e-05
1.21707e-06
3.88468e-05
1.02297e-06
3.81696e-05
8.71338e-07
3.75874e-05
7.50214e-07
3.70819e-05
6.51764e-07
3.66393e-05
5.70607e-07
3.62493e-05
5.02924e-07
3.59036e-05
4.45946e-07
3.55957e-05
3.97638e-07
3.53202e-05
3.56474e-07
3.50727e-05
3.21287e-07
3.48493e-05
2.9116e-07
3.46469e-05
2.6534e-07
3.44627e-05
2.43176e-07
3.42944e-05
2.2402e-07
3.41402e-05
2.07253e-07
3.39985e-05
1.91837e-07
3.3869e-05
1.77214e-07
3.37515e-05
1.59516e-07
3.36504e-05
1.40944e-07
3.35663e-05
9.77382e-08
3.35489e-05
5.35115e-08
-1.13409e-07
3.34632e-05
7.85206e-05
1.19603e-05
8.23311e-05
1.70362e-05
8.29821e-05
1.49314e-05
8.14557e-05
1.21026e-05
7.89185e-05
9.31838e-06
7.62151e-05
7.19132e-06
7.36776e-05
5.69453e-06
7.14098e-05
4.61291e-06
6.94253e-05
3.81097e-06
6.76998e-05
3.19877e-06
6.62e-05
2.71685e-06
6.4894e-05
2.32898e-06
6.37533e-05
2.01206e-06
6.27534e-05
1.75006e-06
6.18739e-05
1.53132e-06
6.10973e-05
1.34718e-06
6.04092e-05
1.19107e-06
5.97972e-05
1.0579e-06
5.92511e-05
9.43743e-07
5.87621e-05
8.45476e-07
5.83227e-05
7.6063e-07
5.79267e-05
6.87206e-07
5.75685e-05
6.23547e-07
5.72434e-05
5.68231e-07
5.69475e-05
5.19944e-07
5.66773e-05
4.77432e-07
5.643e-05
4.39136e-07
5.62036e-05
4.03615e-07
5.59959e-05
3.67265e-07
5.58078e-05
3.29063e-07
5.56306e-05
2.74945e-07
5.54729e-05
2.11192e-07
9.73244e-08
5.52621e-05
7.81461e-05
8.34083e-06
8.19209e-05
1.32614e-05
8.46142e-05
1.2238e-05
8.62322e-05
1.04845e-05
8.69032e-05
8.64741e-06
8.69795e-05
7.11503e-06
8.67035e-05
5.97051e-06
8.62178e-05
5.09867e-06
8.5614e-05
4.41471e-06
8.49483e-05
3.86446e-06
8.42556e-05
3.40962e-06
8.35586e-05
3.02593e-06
8.28734e-05
2.69729e-06
8.22107e-05
2.41271e-06
8.15772e-05
2.16488e-06
8.09763e-05
1.94802e-06
8.04099e-05
1.7575e-06
7.98782e-05
1.58959e-06
7.93807e-05
1.44124e-06
7.89162e-05
1.30996e-06
7.84832e-05
1.19367e-06
7.80798e-05
1.09059e-06
7.77041e-05
9.99207e-07
7.73542e-05
9.18135e-07
7.70281e-05
8.46054e-07
7.67239e-05
7.81638e-07
7.64397e-05
7.23309e-07
7.61739e-05
6.69417e-07
7.59242e-05
6.1705e-07
7.5689e-05
5.64232e-07
7.54601e-05
5.03865e-07
7.52345e-05
4.36729e-07
3.55869e-07
7.4976e-05
7.89907e-05
6.00597e-06
8.15882e-05
1.06639e-05
8.35124e-05
1.03139e-05
8.4953e-05
9.04385e-06
8.59674e-05
7.63305e-06
8.67036e-05
6.37878e-06
8.72636e-05
5.41054e-06
8.76949e-05
4.66739e-06
8.80287e-05
4.08091e-06
8.8286e-05
3.60715e-06
8.8481e-05
3.21459e-06
8.86248e-05
2.88213e-06
8.87253e-05
2.59684e-06
8.87885e-05
2.34953e-06
8.88205e-05
2.13282e-06
8.88271e-05
1.94147e-06
8.88129e-05
1.77163e-06
8.87823e-05
1.62029e-06
8.87384e-05
1.48507e-06
8.86843e-05
1.36408e-06
8.86222e-05
1.25573e-06
8.85541e-05
1.15871e-06
8.84814e-05
1.07188e-06
8.84054e-05
9.94198e-07
8.83268e-05
9.24655e-07
8.82462e-05
8.62223e-07
8.81638e-05
8.05694e-07
8.80794e-05
7.53786e-07
8.79919e-05
7.04614e-07
8.78993e-05
6.56794e-07
8.77955e-05
6.07629e-07
8.76737e-05
5.58585e-07
5.11773e-07
8.75178e-05
8.04623e-05
4.38956e-06
8.25021e-05
8.62417e-06
8.39844e-05
8.83154e-06
8.50391e-05
7.98922e-06
8.57561e-05
6.91604e-06
8.6264e-05
5.8708e-06
8.66643e-05
5.01031e-06
8.70038e-05
4.32782e-06
8.73058e-05
3.77898e-06
8.75815e-05
3.33147e-06
8.78357e-05
2.96035e-06
8.80708e-05
2.647e-06
8.8289e-05
2.37868e-06
8.84919e-05
2.14659e-06
8.86805e-05
1.94421e-06
8.88555e-05
1.76652e-06
8.90174e-05
1.6097e-06
8.9167e-05
1.47072e-06
8.93048e-05
1.34722e-06
8.94316e-05
1.23728e-06
8.9548e-05
1.13936e-06
8.96545e-05
1.05218e-06
8.97517e-05
9.74654e-07
8.98401e-05
9.05832e-07
8.99199e-05
8.44831e-07
8.99914e-05
7.90805e-07
9.00542e-05
7.42859e-07
9.01078e-05
7.00138e-07
9.01508e-05
6.61629e-07
9.01808e-05
6.26863e-07
9.01931e-05
5.95323e-07
9.01821e-05
5.69525e-07
5.51877e-07
9.0142e-05
8.22334e-05
3.25475e-06
8.38912e-05
6.96628e-06
8.51751e-05
7.54767e-06
8.61037e-05
7.06068e-06
8.67391e-05
6.28061e-06
8.71715e-05
5.43837e-06
8.74887e-05
4.69308e-06
8.77401e-05
4.07648e-06
8.79522e-05
3.56689e-06
8.81403e-05
3.1433e-06
8.83127e-05
2.78798e-06
8.84735e-05
2.48622e-06
8.86251e-05
2.22712e-06
8.87688e-05
2.00282e-06
8.89057e-05
1.80735e-06
8.90362e-05
1.63605e-06
8.91606e-05
1.48529e-06
8.92791e-05
1.3522e-06
8.93919e-05
1.23445e-06
8.9499e-05
1.13019e-06
8.96004e-05
1.0379e-06
8.96963e-05
9.56322e-07
8.97865e-05
8.84403e-07
8.98711e-05
8.21251e-07
8.99499e-05
7.66081e-07
9.00225e-05
7.18206e-07
9.00883e-05
6.76998e-07
9.01465e-05
6.4198e-07
9.01953e-05
6.12798e-07
9.02325e-05
5.89706e-07
9.02544e-05
5.7341e-07
9.02569e-05
5.67023e-07
5.73369e-07
9.02354e-05
8.42158e-05
2.4545e-06
8.55473e-05
5.63476e-06
8.66656e-05
6.42942e-06
8.75179e-05
6.20833e-06
8.81374e-05
5.66107e-06
8.85771e-05
4.99876e-06
8.8902e-05
4.36813e-06
8.91559e-05
3.82257e-06
8.93644e-05
3.35842e-06
8.95434e-05
2.96426e-06
8.97026e-05
2.62887e-06
8.98473e-05
2.3415e-06
8.9981e-05
2.0934e-06
9.01059e-05
1.8779e-06
9.02235e-05
1.68979e-06
9.03346e-05
1.52489e-06
9.04401e-05
1.37986e-06
9.05402e-05
1.25201e-06
9.06355e-05
1.13919e-06
9.07261e-05
1.03962e-06
9.08121e-05
9.51874e-07
9.08937e-05
8.74757e-07
9.09708e-05
8.07299e-07
9.10433e-05
7.48697e-07
9.11111e-05
6.98291e-07
9.11738e-05
6.55563e-07
9.12306e-05
6.20141e-07
9.12807e-05
5.91885e-07
9.13226e-05
5.70939e-07
9.13542e-05
5.5807e-07
9.13729e-05
5.54684e-07
9.13759e-05
5.64038e-07
5.89152e-07
9.13601e-05
8.63712e-05
1.88205e-06
8.7438e-05
4.56797e-06
8.84055e-05
5.46187e-06
8.91778e-05
5.43604e-06
8.9768e-05
5.07088e-06
9.02067e-05
4.56004e-06
9.05411e-05
4.03375e-06
9.08076e-05
3.55612e-06
9.10286e-05
3.13741e-06
9.12187e-05
2.77416e-06
9.1387e-05
2.46049e-06
9.15394e-05
2.18917e-06
9.16793e-05
1.9535e-06
9.18092e-05
1.74801e-06
9.19307e-05
1.56824e-06
9.20451e-05
1.41051e-06
9.21531e-05
1.27181e-06
9.22555e-05
1.14968e-06
9.23525e-05
1.04213e-06
9.24446e-05
9.47514e-07
9.2532e-05
8.64477e-07
9.26149e-05
7.91925e-07
9.26932e-05
7.2897e-07
9.2767e-05
6.74908e-07
9.28361e-05
6.29201e-07
9.29001e-05
5.91492e-07
9.29587e-05
5.61624e-07
9.30108e-05
5.39717e-07
9.30555e-05
5.26252e-07
9.30913e-05
5.22295e-07
9.31164e-05
5.29568e-07
9.31292e-05
5.51201e-07
5.90032e-07
9.31284e-05
8.86667e-05
1.46538e-06
8.95214e-05
3.71326e-06
9.03554e-05
4.62786e-06
9.10521e-05
4.73934e-06
9.16086e-05
4.51438e-06
9.20401e-05
4.12854e-06
9.23785e-05
3.69536e-06
9.26529e-05
3.28174e-06
9.28827e-05
2.90754e-06
9.30812e-05
2.57565e-06
9.32573e-05
2.28446e-06
9.34165e-05
2.02991e-06
9.35628e-05
1.80726e-06
9.36985e-05
1.61225e-06
9.38256e-05
1.4412e-06
9.39451e-05
1.29095e-06
9.40581e-05
1.15883e-06
9.41651e-05
1.04264e-06
9.42667e-05
9.40536e-07
9.43633e-05
8.50986e-07
9.4455e-05
7.72746e-07
9.45421e-05
7.04803e-07
9.46247e-05
6.4635e-07
9.47029e-05
5.96773e-07
9.47764e-05
5.55641e-07
9.48452e-05
5.22726e-07
9.49088e-05
4.98027e-07
9.49667e-05
4.81836e-07
9.50181e-05
4.74816e-07
9.50623e-05
4.78146e-07
9.50983e-05
4.93573e-07
9.51255e-05
5.23908e-07
5.71469e-07
9.51441e-05
9.10804e-05
1.15628e-06
9.17671e-05
3.02655e-06
9.2485e-05
3.91001e-06
9.31127e-05
4.11159e-06
9.36346e-05
3.99249e-06
9.4055e-05
3.7082e-06
9.43938e-05
3.35651e-06
9.46736e-05
3.00195e-06
9.49108e-05
2.67032e-06
9.51171e-05
2.36936e-06
9.53006e-05
2.10093e-06
9.54669e-05
1.86362e-06
9.56197e-05
1.65449e-06
9.57615e-05
1.47043e-06
9.58942e-05
1.3085e-06
9.60191e-05
1.16607e-06
9.61371e-05
1.04082e-06
9.6249e-05
9.30765e-07
9.63553e-05
8.34244e-07
9.64564e-05
7.49857e-07
9.65527e-05
6.76453e-07
9.66444e-05
6.13102e-07
9.67317e-05
5.59074e-07
9.68146e-05
5.13831e-07
9.68932e-05
4.77029e-07
9.69674e-05
4.48528e-07
9.7037e-05
4.28423e-07
9.71018e-05
4.1709e-07
9.71614e-05
4.15246e-07
9.72155e-05
4.24034e-07
9.7264e-05
4.45031e-07
9.73073e-05
4.80606e-07
5.32418e-07
9.73464e-05
9.35988e-05
9.22164e-07
9.41532e-05
2.47206e-06
9.47704e-05
3.29284e-06
9.53349e-05
3.54715e-06
9.5822e-05
3.50538e-06
9.62286e-05
3.30154e-06
9.65659e-05
3.01925e-06
9.68499e-05
2.71791e-06
9.70941e-05
2.42618e-06
9.73082e-05
2.15526e-06
9.74995e-05
1.90957e-06
9.76733e-05
1.68982e-06
9.78332e-05
1.49465e-06
9.79816e-05
1.32196e-06
9.81206e-05
1.16955e-06
9.82514e-05
1.03527e-06
9.83751e-05
9.17147e-07
9.84924e-05
8.13448e-07
9.86039e-05
7.22672e-07
9.87102e-05
6.43549e-07
9.88117e-05
5.75023e-07
9.89085e-05
5.16241e-07
9.90011e-05
4.66539e-07
9.90895e-05
4.25441e-07
9.91738e-05
3.92659e-07
9.92543e-05
3.68104e-07
9.93308e-05
3.51909e-07
9.94034e-05
3.44458e-07
9.94722e-05
3.46423e-07
9.95375e-05
3.58802e-07
9.95996e-05
3.8289e-07
9.96597e-05
4.20547e-07
4.72765e-07
9.97193e-05
9.62132e-05
7.41074e-07
9.6664e-05
2.0212e-06
9.71949e-05
2.762e-06
9.7702e-05
3.04006e-06
9.81553e-05
3.05203e-06
9.85466e-05
2.91028e-06
9.88801e-05
2.68576e-06
9.91666e-05
2.43138e-06
9.94164e-05
2.17635e-06
9.96377e-05
1.93398e-06
9.98367e-05
1.71053e-06
0.000100018
1.50833e-06
0.000100186
1.32729e-06
0.000100341
1.16627e-06
0.000100487
1.02369e-06
0.000100625
8.97864e-07
0.000100755
7.87147e-07
0.000100878
6.9003e-07
0.000100995
6.05177e-07
0.000101108
5.31437e-07
0.000101215
4.67842e-07
0.000101317
4.13607e-07
0.000101416
3.68122e-07
0.00010151
3.30954e-07
0.000101601
3.01843e-07
0.000101688
2.80716e-07
0.000101773
2.67695e-07
0.000101854
2.63111e-07
0.000101933
2.67518e-07
0.00010201
2.81707e-07
0.000102086
3.06636e-07
0.000102163
3.43648e-07
3.93141e-07
0.000102243
9.89188e-05
5.98039e-07
9.92886e-05
1.65132e-06
9.97462e-05
2.30442e-06
0.000100202
2.5845e-06
0.000100623
2.63094e-06
0.000100998
2.53546e-06
0.000101326
2.35775e-06
0.000101613
2.14384e-06
0.000101868
1.92182e-06
0.000102096
1.70605e-06
0.000102302
1.50397e-06
0.000102492
1.31904e-06
0.000102667
1.15219e-06
0.00010283
1.00303e-06
0.000102983
8.70549e-07
0.000103127
7.53455e-07
0.000103264
6.50402e-07
0.000103394
5.6009e-07
0.000103518
4.81335e-07
0.000103636
4.13094e-07
0.00010375
3.5448e-07
0.000103859
3.04764e-07
0.000103963
2.63377e-07
0.000104064
2.29905e-07
0.000104162
2.04099e-07
0.000104257
1.85866e-07
0.000104349
1.75278e-07
0.00010444
1.72572e-07
0.000104529
1.78144e-07
0.000104618
1.92542e-07
0.000104709
2.1638e-07
0.000104802
2.50518e-07
2.94859e-07
0.0001049
0.000101713
4.82746e-07
0.00010202
1.34464e-06
0.000102416
1.90841e-06
0.000102826
2.17468e-06
0.000103217
2.23995e-06
0.000103575
2.17727e-06
0.000103896
2.03633e-06
0.000104184
1.85643e-06
0.000104442
1.66354e-06
0.000104676
1.47214e-06
0.000104889
1.29026e-06
0.000105086
1.12209e-06
0.000105269
9.69291e-07
0.00010544
8.32063e-07
0.000105601
7.09847e-07
0.000105753
6.01705e-07
0.000105897
5.06539e-07
0.000106033
4.23237e-07
0.000106164
3.50747e-07
0.000106289
2.88122e-07
0.000106409
2.3454e-07
0.000106524
1.89318e-07
0.000106636
1.5191e-07
0.000106744
1.21909e-07
0.000106849
9.90517e-08
0.000106952
8.31989e-08
0.000107053
7.43502e-08
0.000107152
7.2623e-08
0.000107252
7.82367e-08
0.000107353
9.14938e-08
0.000107457
1.12689e-07
0.000107565
1.4226e-07
1.79743e-07
0.00010768
0.000104595
3.87979e-07
0.000104853
1.08729e-06
0.000105197
1.56365e-06
0.000105567
1.80493e-06
0.00010593
1.87651e-06
0.000106272
1.8353e-06
0.000106587
1.7221e-06
0.000106873
1.57002e-06
0.000107134
1.40226e-06
0.000107374
1.23278e-06
0.000107594
1.06969e-06
0.000107799
9.17563e-07
0.00010799
7.78515e-07
0.000108168
6.53178e-07
0.000108337
5.4134e-07
0.000108496
4.42332e-07
0.000108648
3.55264e-07
0.000108792
2.79174e-07
0.000108929
2.13122e-07
0.000109061
1.56239e-07
0.000109188
1.07756e-07
0.00010931
6.70201e-08
0.000109429
3.3495e-08
0.000109544
6.75838e-09
0.000109656
-1.34666e-08
0.000109767
-2.73926e-08
0.000109876
-3.51035e-08
0.000109986
-3.66117e-08
0.000110096
-3.18719e-08
0.000110208
-2.08084e-08
0.000110324
-3.40456e-09
0.000110446
2.04303e-08
4.9976e-08
0.000110576
0.000107565
3.08589e-07
0.000107784
8.68412e-07
0.000108087
1.26115e-06
0.000108422
1.4698e-06
0.000108761
1.53779e-06
0.000109087
1.50854e-06
0.000109394
1.41514e-06
0.000109679
1.28504e-06
0.000109943
1.13848e-06
0.000110188
9.88347e-07
0.000110415
8.42502e-07
0.000110627
7.05547e-07
0.000110825
5.79836e-07
0.000111012
4.66262e-07
0.000111189
3.64844e-07
0.000111356
2.75111e-07
0.000111515
1.96323e-07
0.000111667
1.27638e-07
0.000111811
6.81988e-08
0.00011195
1.71944e-08
0.000112084
-2.61075e-08
0.000112214
-6.23438e-08
0.000112339
-9.20504e-08
0.000112462
-1.15663e-07
0.000112582
-1.33519e-07
0.0001127
-1.45879e-07
0.000112818
-1.52925e-07
0.000112936
-1.54795e-07
0.000113056
-1.51603e-07
0.000113179
-1.43467e-07
0.000113306
-1.3059e-07
0.000113439
-1.13152e-07
-9.20159e-08
0.000113581
0.000110625
2.40825e-07
0.000110814
6.7948e-07
0.000111082
9.9311e-07
0.000111387
1.16408e-06
0.000111704
1.22073e-06
0.000112017
1.19556e-06
0.000112317
1.11502e-06
0.000112601
1.00154e-06
0.000112867
8.7238e-07
0.000113116
7.39038e-07
0.00011335
6.08794e-07
0.00011357
4.86048e-07
0.000113776
3.73172e-07
0.000113971
2.71164e-07
0.000114156
1.80169e-07
0.000114331
9.98293e-08
0.000114498
2.95045e-08
0.000114657
-3.15736e-08
0.00011481
-8.42059e-08
0.000114956
-1.29165e-07
0.000115097
-1.67165e-07
0.000115234
-1.98836e-07
0.000115366
-2.24727e-07
0.000115496
-2.45302e-07
0.000115623
-2.60945e-07
0.000115749
-2.71978e-07
0.000115875
-2.78677e-07
0.000116002
-2.81287e-07
0.00011613
-2.80057e-07
0.000116262
-2.7526e-07
0.000116399
-2.67263e-07
0.000116542
-2.56441e-07
-2.43718e-07
0.000116694
0.000113774
1.81884e-07
0.00011394
5.13757e-07
0.00011418
7.52788e-07
0.000114462
8.82862e-07
0.00011476
9.22126e-07
0.000115061
8.94527e-07
0.000115356
8.20845e-07
0.000115638
7.1917e-07
0.000115906
6.03828e-07
0.000116161
4.84776e-07
0.000116401
3.68482e-07
0.000116628
2.58939e-07
0.000116843
1.5835e-07
0.000117046
6.76775e-08
0.00011724
-1.29147e-08
0.000117423
-8.37493e-08
0.000117598
-1.45425e-07
0.000117765
-1.98675e-07
0.000117925
-2.44276e-07
0.000118079
-2.82986e-07
0.000118227
-3.15512e-07
0.000118371
-3.42495e-07
0.000118511
-3.64502e-07
0.000118648
-3.82026e-07
0.000118782
-3.95501e-07
0.000118915
-4.05309e-07
0.000119049
-4.11799e-07
0.000119183
-4.1531e-07
0.000119319
-4.16192e-07
0.000119458
-4.1483e-07
0.000119603
-4.11699e-07
0.000119754
-4.07292e-07
-4.02518e-07
0.000119912
0.000117017
1.29615e-07
0.000117165
3.65838e-07
0.000117383
5.34349e-07
0.000117644
6.21477e-07
0.000117928
6.3866e-07
0.000118219
6.03262e-07
0.000118509
5.31325e-07
0.000118791
4.37155e-07
0.000119062
3.3236e-07
0.000119322
2.25247e-07
0.000119569
1.21317e-07
0.000119804
2.39867e-08
0.000120027
-6.48578e-08
0.000120239
-1.4442e-07
0.000120441
-2.14617e-07
0.000120633
-2.75812e-07
0.000120816
-3.2862e-07
0.000120991
-3.73782e-07
0.000121159
-4.12079e-07
0.00012132
-4.44276e-07
0.000121476
-4.71093e-07
0.000121626
-4.93186e-07
0.000121773
-5.11147e-07
0.000121917
-5.25502e-07
0.000122058
-5.36726e-07
0.000122198
-5.45252e-07
0.000122337
-5.51489e-07
0.000122478
-5.55843e-07
0.000122621
-5.58735e-07
0.000122766
-5.60621e-07
0.000122917
-5.62032e-07
0.000123073
-5.63532e-07
-5.65963e-07
0.000123236
0.000120353
8.23185e-08
0.000120488
2.31306e-07
0.00012069
3.32684e-07
0.000120935
3.75515e-07
0.000121207
3.66918e-07
0.000121491
3.19284e-07
0.000121778
2.44734e-07
0.000122061
1.54305e-07
0.000122336
5.71048e-08
0.000122601
-4.02288e-08
0.000122856
-1.33275e-07
0.000123099
-2.19316e-07
0.000123331
-2.96917e-07
0.000123552
-3.65556e-07
0.000123763
-4.25327e-07
0.000123964
-4.76703e-07
0.000124156
-5.20371e-07
0.000124339
-5.57123e-07
0.000124515
-5.87775e-07
0.000124684
-6.13119e-07
0.000124847
-6.33902e-07
0.000125004
-6.50805e-07
0.000125157
-6.64446e-07
0.000125307
-6.75383e-07
0.000125455
-6.84125e-07
0.000125601
-6.91144e-07
0.000125746
-6.9689e-07
0.000125892
-7.01809e-07
0.00012604
-7.06361e-07
0.00012619
-7.11036e-07
0.000126344
-7.16375e-07
0.000126504
-7.2295e-07
-7.31496e-07
0.000126669
0.000123787
3.86039e-08
0.000123912
1.06449e-07
0.000124101
1.43238e-07
0.000124336
1.40743e-07
0.0001246
1.0338e-07
0.000124879
3.98279e-08
0.000125165
-4.10171e-08
0.00012545
-1.30938e-07
0.00012573
-2.23113e-07
0.000126002
-3.12559e-07
0.000126265
-3.96006e-07
0.000126517
-4.71544e-07
0.000126759
-5.38289e-07
0.000126989
-5.961e-07
0.000127209
-6.45328e-07
0.000127419
-6.86625e-07
0.00012762
-7.20803e-07
0.000127811
-7.48743e-07
0.000127995
-7.71323e-07
0.000128171
-7.89386e-07
0.000128341
-8.03715e-07
0.000128505
-8.15023e-07
0.000128665
-8.23956e-07
0.00012882
-8.31099e-07
0.000128973
-8.36985e-07
0.000129124
-8.42111e-07
0.000129274
-8.46948e-07
0.000129424
-8.51961e-07
0.000129576
-8.5762e-07
0.000129729
-8.64413e-07
0.000129886
-8.72864e-07
0.000130046
-8.83525e-07
-8.97011e-07
0.000130212
0.00012732
-2.71187e-09
0.000127438
-1.19514e-08
0.00012762
-3.81579e-08
0.000127847
-8.69854e-08
0.000128106
-1.55653e-07
0.000128384
-2.38241e-07
0.000128672
-3.28506e-07
0.000128962
-4.20681e-07
0.000129249
-5.10038e-07
0.000129529
-5.93212e-07
0.000129801
-6.68134e-07
0.000130064
-7.33779e-07
0.000130315
-7.89912e-07
0.000130556
-8.36857e-07
0.000130786
-8.753e-07
0.000131006
-9.06135e-07
0.000131215
-9.30351e-07
0.000131415
-9.48951e-07
0.000131607
-9.62909e-07
0.000131791
-9.73133e-07
0.000131967
-9.80454e-07
0.000132138
-9.85623e-07
0.000132303
-9.89313e-07
0.000132464
-9.92129e-07
0.000132622
-9.9462e-07
0.000132777
-9.9729e-07
0.000132931
-1.00062e-06
0.000133084
-1.00505e-06
0.000133237
-1.01106e-06
0.000133392
-1.01909e-06
0.000133549
-1.02962e-06
0.000133708
-1.04313e-06
-1.06009e-06
0.000133871
0.000130955
-4.27129e-08
0.00013107
-1.26821e-07
0.000131247
-2.15443e-07
0.000131472
-3.11796e-07
0.00013173
-4.14036e-07
0.00013201
-5.18315e-07
0.000132302
-6.20594e-07
0.000132599
-7.17275e-07
0.000132895
-8.05573e-07
0.000133185
-8.83714e-07
0.000133468
-9.50873e-07
0.000133741
-1.00698e-06
0.000134004
-1.05253e-06
0.000134255
-1.08839e-06
0.000134495
-1.11565e-06
0.000134725
-1.1355e-06
0.000134944
-1.14914e-06
0.000135152
-1.15776e-06
0.000135352
-1.16242e-06
0.000135543
-1.16413e-06
0.000135726
-1.16377e-06
0.000135903
-1.16214e-06
0.000136073
-1.15992e-06
0.000136239
-1.15775e-06
0.000136401
-1.15617e-06
0.000136559
-1.15567e-06
0.000136715
-1.15673e-06
0.00013687
-1.15978e-06
0.000137024
-1.16523e-06
0.000137178
-1.17349e-06
0.000137334
-1.18498e-06
0.000137491
-1.20011e-06
-1.21921e-06
0.00013765
0.000134695
-8.23799e-08
0.000134809
-2.40963e-07
0.000134986
-3.92557e-07
0.000135212
-5.38054e-07
0.000135474
-6.76113e-07
0.000135761
-8.04481e-07
0.000136061
-9.21006e-07
0.000136368
-1.02405e-06
0.000136675
-1.11266e-06
0.000136978
-1.18664e-06
0.000137273
-1.24646e-06
0.000137559
-1.29307e-06
0.000137835
-1.32777e-06
0.000138098
-1.35205e-06
0.00013835
-1.36746e-06
0.00013859
-1.37556e-06
0.000138819
-1.37782e-06
0.000139037
-1.37558e-06
0.000139244
-1.37009e-06
0.000139443
-1.36242e-06
0.000139632
-1.35352e-06
0.000139815
-1.34424e-06
0.00013999
-1.33528e-06
0.000140159
-1.32728e-06
0.000140324
-1.32078e-06
0.000140485
-1.31625e-06
0.000140642
-1.31413e-06
0.000140797
-1.31481e-06
0.00014095
-1.31864e-06
0.000141103
-1.32598e-06
0.000141255
-1.33713e-06
0.000141407
-1.35243e-06
-1.37203e-06
0.00014156
0.000138543
-1.22719e-07
0.000138659
-3.57198e-07
0.00013884
-5.73503e-07
0.000139072
-7.70251e-07
0.000139342
-9.46355e-07
0.000139639
-1.10089e-06
0.000139951
-1.2334e-06
0.000140271
-1.34412e-06
0.000140592
-1.43389e-06
0.00014091
-1.50413e-06
0.00014122
-1.55663e-06
0.00014152
-1.59344e-06
0.000141809
-1.61673e-06
0.000142086
-1.62869e-06
0.00014235
-1.63139e-06
0.000142601
-1.62678e-06
0.00014284
-1.61664e-06
0.000143067
-1.60253e-06
0.000143283
-1.58585e-06
0.000143488
-1.56779e-06
0.000143684
-1.54936e-06
0.000143871
-1.53145e-06
0.000144051
-1.51478e-06
0.000144223
-1.49998e-06
0.00014439
-1.48758e-06
0.000144552
-1.47802e-06
0.000144709
-1.47169e-06
0.000144863
-1.46893e-06
0.000145015
-1.47002e-06
0.000145164
-1.47524e-06
0.000145312
-1.48481e-06
0.000145458
-1.49899e-06
-1.5178e-06
0.000145604
0.000142501
-1.64847e-07
0.000142623
-4.78675e-07
0.000142812
-7.6293e-07
0.000143056
-1.01391e-06
0.00014334
-1.23066e-06
0.000143653
-1.41347e-06
0.000143983
-1.56348e-06
0.000144322
-1.68277e-06
0.000144662
-1.77405e-06
0.000144998
-1.84037e-06
0.000145326
-1.88496e-06
0.000145644
-1.91109e-06
0.000145949
-1.92187e-06
0.000146241
-1.92026e-06
0.000146518
-1.90891e-06
0.000146782
-1.89024e-06
0.000147031
-1.86633e-06
0.000147268
-1.83902e-06
0.000147492
-1.80985e-06
0.000147704
-1.78013e-06
0.000147906
-1.75096e-06
0.000148098
-1.72323e-06
0.00014828
-1.6977e-06
0.000148455
-1.67497e-06
0.000148623
-1.65555e-06
0.000148785
-1.63982e-06
0.000148942
-1.62813e-06
0.000149093
-1.62073e-06
0.000149241
-1.61784e-06
0.000149386
-1.61963e-06
0.000149527
-1.62622e-06
0.000149666
-1.63774e-06
-1.65408e-06
0.000149802
0.000146574
-2.09937e-07
0.000146704
-6.08719e-07
0.000146907
-9.65555e-07
0.000147167
-1.2743e-06
0.000147471
-1.53428e-06
0.000147805
-1.74709e-06
0.000148157
-1.91559e-06
0.000148518
-2.04381e-06
0.00014888
-2.1364e-06
0.000149238
-2.19819e-06
0.000149587
-2.23394e-06
0.000149924
-2.24815e-06
0.000150247
-2.24501e-06
0.000150555
-2.22829e-06
0.000150848
-2.2013e-06
0.000151124
-2.16694e-06
0.000151386
-2.12767e-06
0.000151632
-2.08558e-06
0.000151865
-2.04239e-06
0.000152084
-1.99955e-06
0.000152291
-1.95821e-06
0.000152488
-1.91932e-06
0.000152673
-1.88361e-06
0.00015285
-1.85167e-06
0.000153019
-1.82396e-06
0.00015318
-1.80083e-06
0.000153334
-1.78253e-06
0.000153483
-1.76925e-06
0.000153626
-1.76113e-06
0.000153764
-1.75825e-06
0.000153899
-1.76062e-06
0.000154029
-1.76831e-06
-1.78109e-06
0.000154156
0.000150765
-2.5972e-07
0.000150909
-7.52194e-07
0.000151132
-1.18871e-06
0.000151418
-1.56039e-06
0.000151751
-1.86701e-06
0.000152115
-2.11165e-06
0.000152499
-2.29913e-06
0.000152891
-2.43572e-06
0.000153283
-2.52831e-06
0.000153668
-2.58374e-06
0.000154043
-2.60848e-06
0.000154403
-2.60847e-06
0.000154747
-2.58905e-06
0.000155074
-2.55487e-06
0.000155383
-2.50997e-06
0.000155673
-2.45774e-06
0.000155947
-2.40104e-06
0.000156203
-2.34222e-06
0.000156444
-2.2832e-06
0.00015667
-2.22551e-06
0.000156882
-2.17039e-06
0.000157082
-2.11878e-06
0.00015727
-2.07142e-06
0.000157447
-2.02886e-06
0.000157614
-1.9915e-06
0.000157773
-1.95962e-06
0.000157924
-1.9334e-06
0.000158068
-1.91293e-06
0.000158205
-1.89825e-06
0.000158336
-1.88933e-06
0.000158461
-1.88607e-06
0.000158581
-1.8884e-06
-1.89595e-06
0.000158696
0.000155078
-3.156e-07
0.000155239
-9.13227e-07
0.000155488
-1.43779e-06
0.000155805
-1.87775e-06
0.000156172
-2.2342e-06
0.000156573
-2.5123e-06
0.000156993
-2.71913e-06
0.000157421
-2.86349e-06
0.000157847
-2.95472e-06
0.000158265
-3.00184e-06
0.00015867
-3.01321e-06
0.000159058
-2.99635e-06
0.000159427
-2.95787e-06
0.000159775
-2.90344e-06
0.000160103
-2.83785e-06
0.00016041
-2.76508e-06
0.000160698
-2.6884e-06
0.000160966
-2.61046e-06
0.000161216
-2.53336e-06
0.000161449
-2.45874e-06
0.000161667
-2.38789e-06
0.00016187
-2.32176e-06
0.000162059
-2.26106e-06
0.000162237
-2.20628e-06
0.000162403
-2.15776e-06
0.000162559
-2.11569e-06
0.000162706
-2.08016e-06
0.000162844
-2.05117e-06
0.000162975
-2.02867e-06
0.000163098
-2.01251e-06
0.000163214
-2.00253e-06
0.000163324
-1.99856e-06
-2.00015e-06
0.000163429
0.000159517
-3.81834e-07
0.000159706
-1.10285e-06
0.000159998
-1.72886e-06
0.000160365
-2.24506e-06
0.000160786
-2.65488e-06
0.00016124
-2.96655e-06
0.000161711
-3.19048e-06
0.000162187
-3.33898e-06
0.000162656
-3.4246e-06
0.000163114
-3.45897e-06
0.000163553
-3.45255e-06
0.000163971
-3.41462e-06
0.000164366
-3.3531e-06
0.000164738
-3.27472e-06
0.000165085
-3.18503e-06
0.000165408
-3.08859e-06
0.000165709
-2.98906e-06
0.000165988
-2.88936e-06
0.000166246
-2.79176e-06
0.000166486
-2.69799e-06
0.000166707
-2.60935e-06
0.000166912
-2.52679e-06
0.000167102
-2.45097e-06
0.000167278
-2.38231e-06
0.000167441
-2.32105e-06
0.000167593
-2.26729e-06
0.000167734
-2.22102e-06
0.000167865
-2.18214e-06
0.000167987
-2.15046e-06
0.0001681
-2.12575e-06
0.000168205
-2.10768e-06
0.000168302
-2.09596e-06
-2.08999e-06
0.000168392
0.000164082
-4.58161e-07
0.000164303
-1.32306e-06
0.000164638
-2.06388e-06
0.000165057
-2.66463e-06
0.000165536
-3.13325e-06
0.00016605
-3.48132e-06
0.000166583
-3.7226e-06
0.000167117
-3.87342e-06
0.000167642
-3.95002e-06
0.000168151
-3.96713e-06
0.000168636
-3.93785e-06
0.000169095
-3.87351e-06
0.000169525
-3.78367e-06
0.000169927
-3.67627e-06
0.0001703
-3.55774e-06
0.000170644
-3.43327e-06
0.000170962
-3.30695e-06
0.000171255
-3.18194e-06
0.000171524
-3.06065e-06
0.00017177
-2.94488e-06
0.000171997
-2.83592e-06
0.000172205
-2.73465e-06
0.000172396
-2.64164e-06
0.00017257
-2.55722e-06
0.000172731
-2.48151e-06
0.000172878
-2.41449e-06
0.000173013
-2.35604e-06
0.000173137
-2.30593e-06
0.00017325
-2.26388e-06
0.000173354
-2.22955e-06
0.000173449
-2.20253e-06
0.000173536
-2.18248e-06
-2.16866e-06
0.000173614
0.000168796
-5.61952e-07
0.000169082
-1.60984e-06
0.000169506
-2.48704e-06
0.000170019
-3.17855e-06
0.00017059
-3.7034e-06
0.000171189
-4.08067e-06
0.000171797
-4.33045e-06
0.000172398
-4.47482e-06
0.000172982
-4.53429e-06
0.000173542
-4.52679e-06
0.000174072
-4.46796e-06
0.00017457
-4.37116e-06
0.000175034
-4.24749e-06
0.000175463
-4.106e-06
0.00017586
-3.95399e-06
0.000176224
-3.79723e-06
0.000176557
-3.6402e-06
0.000176861
-3.4863e-06
0.000177139
-3.33807e-06
0.000177391
-3.19733e-06
0.000177621
-3.06533e-06
0.000177829
-2.94287e-06
0.000178018
-2.83042e-06
0.000178189
-2.72817e-06
0.000178343
-2.63611e-06
0.000178483
-2.55407e-06
0.000178608
-2.4818e-06
0.000178721
-2.41894e-06
0.000178823
-2.36507e-06
0.000178913
-2.31974e-06
0.000178993
-2.28241e-06
0.000179063
-2.25257e-06
-2.22933e-06
0.000179124
0.000173624
-6.74198e-07
0.000173957
-1.94294e-06
0.000174452
-2.98204e-06
0.000175058
-3.78527e-06
0.000175736
-4.38126e-06
0.000176449
-4.79337e-06
0.000177168
-5.04929e-06
0.000177873
-5.1797e-06
0.00017855
-5.21155e-06
0.000179191
-5.16755e-06
0.00017979
-5.06708e-06
0.000180345
-4.92623e-06
0.000180855
-4.75804e-06
0.000181322
-4.5729e-06
0.000181747
-4.379e-06
0.000182133
-4.18265e-06
0.000182481
-3.98865e-06
0.000182795
-3.80052e-06
0.000183078
-3.62078e-06
0.000183332
-3.45119e-06
0.000183559
-3.29284e-06
0.000183763
-3.14635e-06
0.000183945
-3.01201e-06
0.000184106
-2.88978e-06
0.000184249
-2.77947e-06
0.000184376
-2.68074e-06
0.000184487
-2.59314e-06
0.000184585
-2.51621e-06
0.000184669
-2.4494e-06
0.000184742
-2.39218e-06
0.000184803
-2.34396e-06
0.000184855
-2.30422e-06
-2.2719e-06
0.000184897
0.000178683
-8.88873e-07
0.000179194
-2.45385e-06
0.000179871
-3.65917e-06
0.000180635
-4.54906e-06
0.000181444
-5.18995e-06
0.000182265
-5.61449e-06
0.000183074
-5.8589e-06
0.000183856
-5.96135e-06
0.000184598
-5.9536e-06
0.000185293
-5.86237e-06
0.000185936
-5.71054e-06
0.000186527
-5.51685e-06
0.000187065
-5.29627e-06
0.000187553
-5.06057e-06
0.000187993
-4.81883e-06
0.000188388
-4.5779e-06
0.000188742
-4.34278e-06
0.000189059
-4.11707e-06
0.000189341
-3.90318e-06
0.000189593
-3.70268e-06
0.000189816
-3.51642e-06
0.000190015
-3.34476e-06
0.00019019
-3.18769e-06
0.000190345
-3.04491e-06
0.000190482
-2.91597e-06
0.000190601
-2.80029e-06
0.000190706
-2.69722e-06
0.000190795
-2.60612e-06
0.000190872
-2.52633e-06
0.000190937
-2.45723e-06
0.000190992
-2.3982e-06
0.000191036
-2.34868e-06
-2.30751e-06
0.000191072
0.000183747
-1.0682e-06
0.000184341
-3.04833e-06
0.000185179
-4.49679e-06
0.000186156
-5.52642e-06
0.000187191
-6.22493e-06
0.00018822
-6.64362e-06
0.00018921
-6.84822e-06
0.000190144
-6.89582e-06
0.000191018
-6.82706e-06
0.000191829
-6.67391e-06
0.000192581
-6.46214e-06
0.000193276
-6.21174e-06
0.000193917
-5.93806e-06
0.00019451
-5.65288e-06
0.000195056
-5.36512e-06
0.00019556
-5.0814e-06
0.000196023
-4.80656e-06
0.00019645
-4.54399e-06
0.000196843
-4.29597e-06
0.000197204
-4.06389e-06
0.000197536
-3.84847e-06
0.000197841
-3.6499e-06
0.000198122
-3.46799e-06
0.000198379
-3.30228e-06
0.000198615
-3.15211e-06
0.000198832
-3.01674e-06
0.00019903
-2.89539e-06
0.000199211
-2.78729e-06
0.000199376
-2.69179e-06
0.000199527
-2.60827e-06
0.000199666
-2.53648e-06
0.000199793
-2.47592e-06
-2.42658e-06
0.000199912
0.000189419
-1.67501e-06
0.00019041
-4.03982e-06
0.000191498
-5.58413e-06
0.000192664
-6.69247e-06
0.000193914
-7.4757e-06
0.000195228
-7.95747e-06
0.000196584
-8.2043e-06
0.000197959
-8.27045e-06
0.000199326
-8.1942e-06
0.000200662
-8.01001e-06
0.000201948
-7.74801e-06