/*--------------------------------*- C++ -*----------------------------------*\
| =========                 |                                                 |
| \\      /  F ield         | OpenFOAM: The Open Source CFD Toolbox           |
|  \\    /   O peration     | Version:  2.1.1                                 |
|   \\  /    A nd           | Web:      www.OpenFOAM.org                      |
|    \\/     M anipulation  |                                                 |
\*---------------------------------------------------------------------------*/
FoamFile
{
    version     2.0;
    format      ascii;
    class       volVectorField;
    location    "0.035";
    object      U;
}
// * * * * * * * * * * * * * * * * * * * * * * * * * * * * * * * * * * * * * //

dimensions      [0 1 -1 0 0 0 0];

internalField   nonuniform List<vector> 
6820
(
(6.37594 0.503769 0)
(4.42401 0.286906 0)
(2.97275 0.0202582 0)
(2.2329 -0.0618425 0)
(1.96659 -0.0598967 0)
(1.83893 -0.0344589 0)
(1.76309 -0.0150421 0)
(1.70995 -0.00466335 0)
(1.66546 4.61867e-05 0)
(1.62658 0.00156843 0)
(1.59272 0.00157149 0)
(1.56337 0.000991388 0)
(1.53802 0.000261169 0)
(1.51611 -0.00042984 0)
(1.49709 -0.00100804 0)
(1.4805 -0.00145674 0)
(1.46591 -0.0017849 0)
(1.45301 -0.00201031 0)
(1.4415 -0.0021517 0)
(1.43116 -0.00222575 0)
(1.42179 -0.00224656 0)
(1.41321 -0.00222576 0)
(1.40528 -0.00217325 0)
(1.39789 -0.00209738 0)
(1.39092 -0.00200791 0)
(1.38433 -0.00191027 0)
(1.37801 -0.00183048 0)
(1.37216 -0.00174223 0)
(1.36629 -0.00181357 0)
(1.36234 -0.00160494 0)
(1.35537 -0.00278561 0)
(1.36267 0.0011764 0)
(1.33375 -0.0254625 0)
(8.7202 0.959713 0)
(8.76447 1.01213 0)
(7.96783 0.679308 0)
(7.05329 0.394256 0)
(6.35104 0.202865 0)
(5.8433 0.103836 0)
(5.47992 0.0584284 0)
(5.21703 0.0380025 0)
(5.01968 0.0288792 0)
(4.86565 0.0244234 0)
(4.74154 0.0217873 0)
(4.63896 0.019921 0)
(4.55253 0.0184335 0)
(4.47861 0.0171627 0)
(4.4147 0.0160317 0)
(4.35893 0.0150033 0)
(4.30992 0.0140606 0)
(4.26659 0.0131965 0)
(4.22808 0.0124079 0)
(4.1937 0.0116941 0)
(4.16287 0.0110547 0)
(4.13511 0.0104892 0)
(4.11 0.00999563 0)
(4.0872 0.0095698 0)
(4.0664 0.00920049 0)
(4.04737 0.00887656 0)
(4.02989 0.00854594 0)
(4.01386 0.00821831 0)
(3.99917 0.00758136 0)
(3.98625 0.00704249 0)
(3.97465 0.00437126 0)
(3.96826 0.00294843 0)
(3.96361 -0.00937768 0)
(8.58611 0.583587 0)
(9.33119 0.762673 0)
(9.61393 0.660726 0)
(9.5031 0.527335 0)
(9.23571 0.397963 0)
(8.92172 0.30024 0)
(8.61408 0.231534 0)
(8.33601 0.182252 0)
(8.09182 0.146428 0)
(7.87925 0.11989 0)
(7.6946 0.0997295 0)
(7.53402 0.0840891 0)
(7.39399 0.0717596 0)
(7.27146 0.0619187 0)
(7.16385 0.0539741 0)
(7.06901 0.0474866 0)
(6.98511 0.0421306 0)
(6.91063 0.0376652 0)
(6.84427 0.0339115 0)
(6.78494 0.0307358 0)
(6.73172 0.028037 0)
(6.68383 0.0257375 0)
(6.64058 0.0237751 0)
(6.60139 0.0220977 0)
(6.56577 0.0206549 0)
(6.53329 0.0193954 0)
(6.50359 0.0182414 0)
(6.4764 0.0171198 0)
(6.45144 0.0157731 0)
(6.42868 0.0141625 0)
(6.40774 0.0109395 0)
(6.38842 0.00660557 0)
(6.36948 -0.00463936 0)
(8.44091 0.379809 0)
(8.9458 0.584399 0)
(9.35811 0.555233 0)
(9.58558 0.488069 0)
(9.69928 0.408466 0)
(9.73458 0.33964 0)
(9.71802 0.287445 0)
(9.67192 0.247558 0)
(9.60916 0.216349 0)
(9.53706 0.191241 0)
(9.46034 0.170395 0)
(9.38214 0.152692 0)
(9.30448 0.137423 0)
(9.22888 0.124105 0)
(9.15626 0.112419 0)
(9.08716 0.102131 0)
(9.02186 0.0930495 0)
(8.96045 0.0850172 0)
(8.90292 0.0779012 0)
(8.84916 0.0715906 0)
(8.79901 0.0659924 0)
(8.75228 0.0610272 0)
(8.70877 0.0566256 0)
(8.66824 0.052724 0)
(8.63049 0.0492585 0)
(8.59529 0.046161 0)
(8.56243 0.0433374 0)
(8.53172 0.0406858 0)
(8.50293 0.0379729 0)
(8.47585 0.0350561 0)
(8.45013 0.03117 0)
(8.42468 0.0263772 0)
(8.39943 0.0194236 0)
(8.40213 0.280195 0)
(8.71885 0.481072 0)
(8.99854 0.462607 0)
(9.17379 0.405456 0)
(9.29804 0.343813 0)
(9.3912 0.291783 0)
(9.45993 0.253188 0)
(9.51237 0.224031 0)
(9.55329 0.201001 0)
(9.58503 0.182202 0)
(9.6093 0.16638 0)
(9.62746 0.15275 0)
(9.64061 0.140835 0)
(9.64935 0.130304 0)
(9.65438 0.120911 0)
(9.65635 0.112472 0)
(9.65583 0.104848 0)
(9.6533 0.0979353 0)
(9.64918 0.0916516 0)
(9.64379 0.0859335 0)
(9.63742 0.08073 0)
(9.6303 0.0759992 0)
(9.62262 0.0717047 0)
(9.61451 0.0678116 0)
(9.60608 0.0642812 0)
(9.59742 0.0610673 0)
(9.58856 0.0581024 0)
(9.5795 0.0553022 0)
(9.57019 0.0525112 0)
(9.56045 0.0495954 0)
(9.54997 0.0462129 0)
(9.53785 0.042394 0)
(9.52353 0.037977 0)
(8.37747 0.202323 0)
(8.60124 0.384002 0)
(8.81547 0.391405 0)
(8.94619 0.35738 0)
(9.03169 0.313403 0)
(9.09405 0.270298 0)
(9.14052 0.234855 0)
(9.17836 0.206752 0)
(9.21177 0.184205 0)
(9.24215 0.165881 0)
(9.27007 0.150692 0)
(9.29588 0.137818 0)
(9.31978 0.126728 0)
(9.34201 0.117071 0)
(9.36269 0.108564 0)
(9.38189 0.100999 0)
(9.39968 0.0942246 0)
(9.41613 0.0881295 0)
(9.43131 0.0826291 0)
(9.44528 0.0776591 0)
(9.45812 0.0731691 0)
(9.46989 0.0691192 0)
(9.48065 0.0654761 0)
(9.49045 0.0622097 0)
(9.49934 0.0592888 0)
(9.50733 0.0566787 0)
(9.51443 0.0543321 0)
(9.52061 0.0521945 0)
(9.52576 0.0501809 0)
(9.52969 0.0482336 0)
(9.53205 0.0462601 0)
(9.53229 0.0444281 0)
(9.52975 0.0429961 0)
(8.36127 0.148967 0)
(8.52261 0.311843 0)
(8.69715 0.337822 0)
(8.81163 0.318665 0)
(8.88588 0.285847 0)
(8.93853 0.250099 0)
(8.97577 0.218918 0)
(9.00378 0.193512 0)
(9.02699 0.172724 0)
(9.0473 0.155521 0)
(9.06568 0.14107 0)
(9.08271 0.12872 0)
(9.09871 0.118014 0)
(9.11386 0.108631 0)
(9.12826 0.10034 0)
(9.14199 0.0929724 0)
(9.15508 0.086397 0)
(9.16756 0.0805104 0)
(9.17944 0.075231 0)
(9.19074 0.0704941 0)
(9.20145 0.0662487 0)
(9.21159 0.0624543 0)
(9.22116 0.0590781 0)
(9.23014 0.0560926 0)
(9.23854 0.0534728 0)
(9.24633 0.0511948 0)
(9.25346 0.0492325 0)
(9.25986 0.0475638 0)
(9.2654 0.0461641 0)
(9.26989 0.0450509 0)
(9.27302 0.0442628 0)
(9.27439 0.0440595 0)
(9.27356 0.0446852 0)
(8.35115 0.111544 0)
(8.4673 0.252068 0)
(8.60787 0.287296 0)
(8.70932 0.279511 0)
(8.77878 0.257611 0)
(8.82998 0.230631 0)
(8.86727 0.205011 0)
(8.89518 0.182864 0)
(8.91767 0.163935 0)
(8.93675 0.147753 0)
(8.95347 0.133877 0)
(8.96853 0.121875 0)
(8.98237 0.111402 0)
(8.99525 0.1022 0)
(9.00733 0.0940725 0)
(9.01874 0.0868575 0)
(9.02955 0.0804279 0)
(9.03981 0.0746833 0)
(9.04957 0.0695449 0)
(9.05885 0.0649515 0)
(9.06767 0.0608552 0)
(9.07604 0.0572192 0)
(9.08396 0.054015 0)
(9.09144 0.051221 0)
(9.09846 0.0488208 0)
(9.10499 0.0468037 0)
(9.11098 0.0451642 0)
(9.11635 0.0439092 0)
(9.12098 0.0430613 0)
(9.12471 0.0426908 0)
(9.1273 0.0429182 0)
(9.12845 0.0440372 0)
(9.12793 0.0463487 0)
(8.34486 0.0848787 0)
(8.42927 0.204215 0)
(8.54187 0.244555 0)
(8.63031 0.245691 0)
(8.69393 0.231995 0)
(8.74258 0.211503 0)
(8.77949 0.190072 0)
(8.80788 0.170551 0)
(8.83102 0.153382 0)
(8.85072 0.138429 0)
(8.86796 0.125444 0)
(8.88342 0.11412 0)
(8.89754 0.104179 0)
(8.9106 0.0954027 0)
(8.92278 0.0876177 0)
(8.93421 0.080685 0)
(8.945 0.0744945 0)
(8.95521 0.06896 0)
(8.96488 0.0640128 0)
(8.97406 0.0595992 0)
(8.98278 0.0556773 0)
(8.99104 0.0522156 0)
(8.99887 0.0491911 0)
(9.00626 0.0465892 0)
(9.01321 0.0444027 0)
(9.01968 0.042634 0)
(9.02565 0.0412964 0)
(9.03105 0.0404219 0)
(9.03578 0.040069 0)
(9.03973 0.0403454 0)
(9.04274 0.0414185 0)
(9.04461 0.0435946 0)
(9.04527 0.0471856 0)
(8.34093 0.0656439 0)
(8.40297 0.165913 0)
(8.49296 0.207506 0)
(8.56936 0.214535 0)
(8.6271 0.206889 0)
(8.67277 0.191888 0)
(8.70869 0.174597 0)
(8.73704 0.157956 0)
(8.76039 0.14278 0)
(8.78036 0.129186 0)
(8.79789 0.117123 0)
(8.81361 0.10644 0)
(8.82796 0.0969604 0)
(8.84123 0.0885303 0)
(8.8536 0.0810184 0)
(8.86522 0.0743132 0)
(8.87619 0.0683219 0)
(8.88656 0.062968 0)
(8.8964 0.0581899 0)
(8.90575 0.0539384 0)
(8.91464 0.0501759 0)
(8.92308 0.0468749 0)
(8.93109 0.0440172 0)
(8.93869 0.0415943 0)
(8.94585 0.0396073 0)
(8.95258 0.0380691 0)
(8.95884 0.037008 0)
(8.96459 0.0364739 0)
(8.96977 0.0365475 0)
(8.97431 0.0373563 0)
(8.97812 0.0390848 0)
(8.98111 0.042027 0)
(8.98331 0.046469 0)
(8.33845 0.0514976 0)
(8.38462 0.135129 0)
(8.4566 0.175579 0)
(8.52225 0.186588 0)
(8.5744 0.183648 0)
(8.61698 0.173168 0)
(8.65156 0.159414 0)
(8.67953 0.145242 0)
(8.70288 0.131778 0)
(8.72301 0.119386 0)
(8.74076 0.108183 0)
(8.75672 0.0981406 0)
(8.77129 0.0891601 0)
(8.78477 0.0811315 0)
(8.79733 0.0739525 0)
(8.80913 0.0675303 0)
(8.82027 0.0617847 0)
(8.83081 0.0566489 0)
(8.84081 0.0520686 0)
(8.85033 0.0480006 0)
(8.85938 0.0444124 0)
(8.86801 0.0412811 0)
(8.87622 0.0385936 0)
(8.88404 0.0363466 0)
(8.89145 0.0345479 0)
(8.89847 0.0332187 0)
(8.90508 0.0323971 0)
(8.91125 0.0321438 0)
(8.91697 0.0325499 0)
(8.9222 0.0337482 0)
(8.92691 0.0359196 0)
(8.93112 0.03933 0)
(8.93489 0.0442173 0)
(8.33686 0.0408852 0)
(8.37171 0.110328 0)
(8.42943 0.148139 0)
(8.4856 0.161427 0)
(8.53243 0.161803 0)
(8.5719 0.154791 0)
(8.60495 0.144008 0)
(8.63238 0.1321 0)
(8.65565 0.120329 0)
(8.67591 0.109202 0)
(8.69388 0.0989402 0)
(8.71008 0.0896046 0)
(8.7249 0.081164 0)
(8.73862 0.0735566 0)
(8.75141 0.0667137 0)
(8.76342 0.0605672 0)
(8.77476 0.0550546 0)
(8.7855 0.0501213 0)
(8.79571 0.0457218 0)
(8.80542 0.0418192 0)
(8.81469 0.0383857 0)
(8.82353 0.0354025 0)
(8.83198 0.0328604 0)
(8.84005 0.0307601 0)
(8.84776 0.0291139 0)
(8.85512 0.0279477 0)
(8.86212 0.0273047 0)
(8.86878 0.0272493 0)
(8.87509 0.0278733 0)
(8.88107 0.029303 0)
(8.88674 0.0317015 0)
(8.89217 0.0352956 0)
(8.89748 0.0402654 0)
(8.33582 0.0327563 0)
(8.36253 0.090218 0)
(8.40901 0.124535 0)
(8.45697 0.138811 0)
(8.49887 0.141471 0)
(8.5353 0.137144 0)
(8.56669 0.128855 0)
(8.59341 0.118942 0)
(8.61645 0.108696 0)
(8.63673 0.0987206 0)
(8.65486 0.089325 0)
(8.67128 0.0806483 0)
(8.68636 0.0727218 0)
(8.70033 0.0655265 0)
(8.71338 0.0590227 0)
(8.72565 0.0531626 0)
(8.73723 0.0478972 0)
(8.74821 0.0431812 0)
(8.75866 0.0389757 0)
(8.76861 0.0352486 0)
(8.77812 0.031976 0)
(8.78721 0.0291421 0)
(8.79593 0.0267403 0)
(8.8043 0.0247738 0)
(8.81233 0.0232572 0)
(8.82006 0.0222181 0)
(8.8275 0.0216998 0)
(8.83468 0.0217646 0)
(8.84162 0.0224975 0)
(8.84838 0.0240098 0)
(8.85501 0.0264383 0)
(8.86162 0.0299654 0)
(8.86836 0.0347136 0)
(8.33513 0.0263975 0)
(8.35591 0.0737836 0)
(8.3936 0.104214 0)
(8.43453 0.118504 0)
(8.47192 0.122574 0)
(8.50543 0.12019 0)
(8.53508 0.113868 0)
(8.56095 0.105634 0)
(8.58366 0.0967391 0)
(8.60388 0.0878375 0)
(8.62212 0.0792896 0)
(8.63875 0.071284 0)
(8.65407 0.0638954 0)
(8.6683 0.0571376 0)
(8.68161 0.0509951 0)
(8.69414 0.0454377 0)
(8.70599 0.0404299 0)
(8.71722 0.0359363 0)
(8.72791 0.0319249 0)
(8.73812 0.0283688 0)
(8.74789 0.0252477 0)
(8.75725 0.0225486 0)
(8.76625 0.0202666 0)
(8.77493 0.0184058 0)
(8.78331 0.0169809 0)
(8.79142 0.0160181 0)
(8.79931 0.0155574 0)
(8.80702 0.0156541 0)
(8.81459 0.0163807 0)
(8.8221 0.0178288 0)
(8.82964 0.0201045 0)
(8.83734 0.0233452 0)
(8.84535 0.0276207 0)
(8.33465 0.0213204 0)
(8.35109 0.0602219 0)
(8.38189 0.0866617 0)
(8.4169 0.100251 0)
(8.45023 0.105027 0)
(8.481 0.103979 0)
(8.50893 0.0991772 0)
(8.53386 0.0923421 0)
(8.55614 0.0846295 0)
(8.57623 0.0766983 0)
(8.59452 0.0689343 0)
(8.6113 0.0615591 0)
(8.62683 0.0546816 0)
(8.64131 0.0483439 0)
(8.65488 0.0425517 0)
(8.66767 0.0372911 0)
(8.67978 0.032538 0)
(8.69128 0.0282652 0)
(8.70223 0.0244463 0)
(8.7127 0.0210581 0)
(8.72274 0.0180826 0)
(8.73238 0.015508 0)
(8.74168 0.0133296 0)
(8.75067 0.0115506 0)
(8.7594 0.0101839 0)
(8.76791 0.00925163 0)
(8.77624 0.008787 0)
(8.78447 0.00883514 0)
(8.79264 0.00945305 0)
(8.80086 0.0107096 0)
(8.80922 0.01268 0)
(8.81788 0.0154585 0)
(8.82697 0.019071 0)
(8.33431 0.0171856 0)
(8.34753 0.0489037 0)
(8.37296 0.0714255 0)
(8.40302 0.0838117 0)
(8.43275 0.0887332 0)
(8.46099 0.0885009 0)
(8.48725 0.0848009 0)
(8.51121 0.0790698 0)
(8.53299 0.0723432 0)
(8.55289 0.0652578 0)
(8.57117 0.0582054 0)
(8.58808 0.0514243 0)
(8.6038 0.0450446 0)
(8.61851 0.0391275 0)
(8.63234 0.0336939 0)
(8.64539 0.0287414 0)
(8.65776 0.0242548 0)
(8.66952 0.0202129 0)
(8.68074 0.0165938 0)
(8.69148 0.0133772 0)
(8.70178 0.0105464 0)
(8.7117 0.00809001 0)
(8.72129 0.00600247 0)
(8.73059 0.00428527 0)
(8.73966 0.00294645 0)
(8.74854 0.00200298 0)
(8.7573 0.00147967 0)
(8.766 0.00140922 0)
(8.77472 0.0018316 0)
(8.78356 0.00279292 0)
(8.79263 0.00433896 0)
(8.80208 0.00652563 0)
(8.81205 0.00934368 0)
(8.33407 0.013753 0)
(8.34488 0.0393372 0)
(8.36611 0.0581078 0)
(8.39208 0.0689481 0)
(8.41868 0.0735713 0)
(8.44463 0.0737226 0)
(8.46932 0.0707581 0)
(8.49231 0.0658626 0)
(8.51356 0.0599392 0)
(8.53322 0.0535793 0)
(8.55147 0.047162 0)
(8.56847 0.0409277 0)
(8.58436 0.0350166 0)
(8.59928 0.0295019 0)
(8.61335 0.0244151 0)
(8.62665 0.0197625 0)
(8.63928 0.0155357 0)
(8.6513 0.0117185 0)
(8.66278 0.0082919 0)
(8.67378 0.00523733 0)
(8.68435 0.00253865 0)
(8.69454 0.000183546 0)
(8.70441 -0.00183551 0)
(8.71401 -0.00352044 0)
(8.72339 -0.00486824 0)
(8.73263 -0.00586909 0)
(8.74177 -0.00650797 0)
(8.7509 -0.00676519 0)
(8.76009 -0.00661774 0)
(8.76946 -0.00604097 0)
(8.77911 -0.00501503 0)
(8.78919 -0.00351642 0)
(8.79981 -0.00158035 0)
(8.33389 0.0108495 0)
(8.34288 0.0311368 0)
(8.36084 0.0463636 0)
(8.38346 0.0554351 0)
(8.40737 0.0594138 0)
(8.43129 0.0595903 0)
(8.45454 0.0570397 0)
(8.4766 0.0527272 0)
(8.49732 0.0474227 0)
(8.51673 0.0416587 0)
(8.53492 0.0357895 0)
(8.55197 0.0300472 0)
(8.56801 0.0245733 0)
(8.58314 0.019446 0)
(8.59743 0.0147027 0)
(8.61098 0.0103543 0)
(8.62386 0.00639605 0)
(8.63614 0.0028143 0)
(8.64787 -0.00040864 0)
(8.65912 -0.00329117 0)
(8.66994 -0.0058503 0)
(8.68039 -0.00810027 0)
(8.69052 -0.0100517 0)
(8.70039 -0.0117112 0)
(8.71006 -0.0130808 0)
(8.7196 -0.0141591 0)
(8.72907 -0.0149416 0)
(8.73856 -0.0154212 0)
(8.74814 -0.0155908 0)
(8.75793 -0.0154449 0)
(8.76801 -0.0149854 0)
(8.77854 -0.0142152 0)
(8.78959 -0.0131869 0)
(8.33375 0.00834721 0)
(8.34137 0.0239987 0)
(8.35679 0.0358945 0)
(8.3767 0.0430581 0)
(8.39833 0.0461244 0)
(8.42049 0.0460295 0)
(8.44244 0.0436146 0)
(8.46365 0.039656 0)
(8.48387 0.0347973 0)
(8.50303 0.029504 0)
(8.52114 0.0240958 0)
(8.53826 0.018787 0)
(8.55444 0.0137119 0)
(8.56975 0.00894717 0)
(8.58427 0.00453057 0)
(8.59806 0.000474353 0)
(8.61118 -0.00322519 0)
(8.6237 -0.00658116 0)
(8.63568 -0.0096113 0)
(8.64717 -0.0123348 0)
(8.65823 -0.0147705 0)
(8.66892 -0.0169351 0)
(8.67929 -0.0188429 0)
(8.6894 -0.0205053 0)
(8.69933 -0.0219309 0)
(8.70913 -0.0231262 0)
(8.71887 -0.0240961 0)
(8.72864 -0.0248454 0)
(8.73852 -0.0253811 0)
(8.74859 -0.0257134 0)
(8.75897 -0.0258614 0)
(8.76977 -0.0258478 0)
(8.78106 -0.0257358 0)
(8.33365 0.0061494 0)
(8.34022 0.0176809 0)
(8.35368 0.0264426 0)
(8.37142 0.0316151 0)
(8.39117 0.033562 0)
(8.41182 0.0329521 0)
(8.43266 0.0304344 0)
(8.45311 0.0266253 0)
(8.47288 0.0220523 0)
(8.49181 0.0171111 0)
(8.50987 0.0120809 0)
(8.52704 0.00715138 0)
(8.54336 0.00244374 0)
(8.55886 -0.00197236 0)
(8.57359 -0.006063 0)
(8.58761 -0.00981819 0)
(8.60096 -0.0132434 0)
(8.61372 -0.0163535 0)
(8.62592 -0.0191681 0)
(8.63763 -0.0217089 0)
(8.64891 -0.0239977 0)
(8.65981 -0.026055 0)
(8.67038 -0.0278995 0)
(8.6807 -0.0295481 0)
(8.69083 -0.031016 0)
(8.70083 -0.0323172 0)
(8.71077 -0.0334658 0)
(8.72074 -0.0344771 0)
(8.7308 -0.0353697 0)
(8.74105 -0.0361666 0)
(8.75157 -0.0368997 0)
(8.76247 -0.0376063 0)
(8.77381 -0.0383543 0)
(8.33357 0.00418052 0)
(8.33936 0.0119869 0)
(8.35132 0.017783 0)
(8.36735 0.0209141 0)
(8.38557 0.0215801 0)
(8.40499 0.0202532 0)
(8.4249 0.0174271 0)
(8.44472 0.0135839 0)
(8.46411 0.00914588 0)
(8.48287 0.00443914 0)
(8.5009 -0.000302382 0)
(8.51815 -0.00491836 0)
(8.53462 -0.00930683 0)
(8.55031 -0.0134101 0)
(8.56526 -0.0172022 0)
(8.57951 -0.0206787 0)
(8.5931 -0.0238492 0)
(8.60608 -0.0267321 0)
(8.6185 -0.0293504 0)
(8.63042 -0.0317289 0)
(8.6419 -0.0338931 0)
(8.65298 -0.0358673 0)
(8.66374 -0.0376748 0)
(8.67422 -0.0393378 0)
(8.6845 -0.0408772 0)
(8.69464 -0.0423142 0)
(8.70472 -0.0436704 0)
(8.71479 -0.0449697 0)
(8.72494 -0.0462395 0)
(8.73524 -0.0475121 0)
(8.74577 -0.0488281 0)
(8.75662 -0.0502337 0)
(8.76784 -0.0517966 0)
(8.33351 0.00238016 0)
(8.33872 0.00675515 0)
(8.34955 0.00971845 0)
(8.36427 0.010774 0)
(8.38131 0.0100305 0)
(8.39976 0.00782005 0)
(8.41893 0.00451349 0)
(8.43826 0.00048129 0)
(8.45737 -0.00394668 0)
(8.47602 -0.00851146 0)
(8.49406 -0.0130258 0)
(8.51142 -0.0173626 0)
(8.52804 -0.0214432 0)
(8.54394 -0.0252262 0)
(8.5591 -0.0286978 0)
(8.57358 -0.0318624 0)
(8.58739 -0.034737 0)
(8.60058 -0.0373458 0)
(8.6132 -0.0397171 0)
(8.6253 -0.0418807 0)
(8.63695 -0.0438669 0)
(8.64818 -0.0457048 0)
(8.65907 -0.0474228 0)
(8.66967 -0.0490484 0)
(8.68004 -0.0506085 0)
(8.69026 -0.0521302 0)
(8.70038 -0.0536417 0)
(8.71047 -0.0551736 0)
(8.7206 -0.05676 0)
(8.73084 -0.0584396 0)
(8.74126 -0.0602581 0)
(8.75192 -0.0622671 0)
(8.76287 -0.0645311 0)
(8.33347 0.000696409 0)
(8.33826 0.00184543 0)
(8.34827 0.00206875 0)
(8.36204 0.00101685 0)
(8.3782 -0.00124588 0)
(8.39594 -0.00448522 0)
(8.4146 -0.00842745 0)
(8.4336 -0.0127963 0)
(8.45255 -0.0173448 0)
(8.47119 -0.0218784 0)
(8.48932 -0.0262583 0)
(8.50683 -0.030393 0)
(8.52366 -0.0342305 0)
(8.53979 -0.037749 0)
(8.5552 -0.040949 0)
(8.56991 -0.0438461 0)
(8.58395 -0.0464658 0)
(8.59736 -0.0488394 0)
(8.61018 -0.0510013 0)
(8.62245 -0.0529866 0)
(8.63424 -0.0548302 0)
(8.6456 -0.0565664 0)
(8.65658 -0.058228 0)
(8.66726 -0.0598474 0)
(8.67767 -0.0614561 0)
(8.6879 -0.0630862 0)
(8.698 -0.0647708 0)
(8.70802 -0.0665451 0)
(8.71804 -0.0684473 0)
(8.72811 -0.0705196 0)
(8.73829 -0.0728095 0)
(8.74864 -0.0753698 0)
(8.75918 -0.0782588 0)
(8.33344 -0.000913119 0)
(8.33795 -0.00286353 0)
(8.34742 -0.00533074 0)
(8.36055 -0.00852825 0)
(8.37613 -0.0124042 0)
(8.39342 -0.0167891 0)
(8.41177 -0.0214832 0)
(8.43061 -0.0262874 0)
(8.44954 -0.0310275 0)
(8.46825 -0.0355697 0)
(8.48653 -0.0398238 0)
(8.50425 -0.0437373 0)
(8.52132 -0.0472888 0)
(8.5377 -0.0504806 0)
(8.55336 -0.0533321 0)
(8.5683 -0.0558742 0)
(8.58256 -0.0581444 0)
(8.59617 -0.0601839 0)
(8.60915 -0.0620353 0)
(8.62157 -0.0637407 0)
(8.63347 -0.065341 0)
(8.64492 -0.0668757 0)
(8.65595 -0.0683827 0)
(8.66664 -0.0698987 0)
(8.67704 -0.0714596 0)
(8.68721 -0.0731015 0)
(8.6972 -0.0748608 0)
(8.70708 -0.0767758 0)
(8.7169 -0.0788868 0)
(8.72671 -0.0812373 0)
(8.73656 -0.0838746 0)
(8.74649 -0.086851 0)
(8.75653 -0.0902171 0)
(8.33343 -0.00248926 0)
(8.33778 -0.00748699 0)
(8.34693 -0.0126435 0)
(8.35972 -0.0180463 0)
(8.37502 -0.0236388 0)
(8.39213 -0.0292966 0)
(8.41042 -0.0348809 0)
(8.42932 -0.040261 0)
(8.4484 -0.0453292 0)
(8.46734 -0.0500098 0)
(8.4859 -0.0542603 0)
(8.50393 -0.058067 0)
(8.52132 -0.0614393 0)
(8.53801 -0.0644039 0)
(8.55397 -0.0669996 0)
(8.56919 -0.0692727 0)
(8.58369 -0.0712731 0)
(8.5975 -0.0730524 0)
(8.61066 -0.0746613 0)
(8.62321 -0.0761491 0)
(8.63521 -0.0775627 0)
(8.6467 -0.0789467 0)
(8.65775 -0.0803437 0)
(8.66841 -0.0817943 0)
(8.67874 -0.0833377 0)
(8.68879 -0.0850127 0)
(8.69862 -0.086858 0)
(8.70827 -0.0889131 0)
(8.7178 -0.0912187 0)
(8.72726 -0.0938175 0)
(8.73668 -0.096754 0)
(8.74609 -0.100077 0)
(8.75552 -0.103828 0)
(8.33342 -0.00407335 0)
(8.33773 -0.012138 0)
(8.3468 -0.0200277 0)
(8.35952 -0.027706 0)
(8.37482 -0.0350946 0)
(8.39201 -0.042094 0)
(8.41046 -0.0486106 0)
(8.42961 -0.054572 0)
(8.44899 -0.059933 0)
(8.46827 -0.0646775 0)
(8.4872 -0.0688156 0)
(8.5056 -0.0723789 0)
(8.52336 -0.075415 0)
(8.54039 -0.0779817 0)
(8.55666 -0.080143 0)
(8.57216 -0.0819653 0)
(8.5869 -0.0835148 0)
(8.6009 -0.0848556 0)
(8.61421 -0.0860485 0)
(8.62687 -0.0871509 0)
(8.63893 -0.088216 0)
(8.65045 -0.0892935 0)
(8.66147 -0.0904299 0)
(8.67205 -0.0916689 0)
(8.68225 -0.0930522 0)
(8.69213 -0.09462 0)
(8.70172 -0.096412 0)
(8.71109 -0.0984672 0)
(8.72027 -0.100826 0)
(8.72931 -0.103528 0)
(8.73823 -0.106614 0)
(8.74708 -0.11013 0)
(8.75586 -0.114109 0)
(8.33343 -0.00570563 0)
(8.3378 -0.0169374 0)
(8.34702 -0.0276733 0)
(8.35998 -0.0377605 0)
(8.3756 -0.0471009 0)
(8.39321 -0.0556194 0)
(8.41215 -0.0632657 0)
(8.43183 -0.0700214 0)
(8.45178 -0.0758977 0)
(8.47163 -0.0809305 0)
(8.49112 -0.0851763 0)
(8.51006 -0.0887068 0)
(8.5283 -0.0916037 0)
(8.54577 -0.0939537 0)
(8.56242 -0.0958449 0)
(8.57825 -0.0973638 0)
(8.59325 -0.0985932 0)
(8.60747 -0.0996108 0)
(8.62093 -0.100489 0)
(8.63368 -0.101293 0)
(8.64578 -0.102085 0)
(8.65727 -0.102919 0)
(8.66822 -0.103846 0)
(8.67868 -0.104914 0)
(8.6887 -0.106166 0)
(8.69833 -0.107642 0)
(8.70763 -0.109384 0)
(8.71664 -0.111428 0)
(8.72539 -0.113813 0)
(8.73393 -0.116574 0)
(8.74228 -0.119749 0)
(8.75048 -0.123376 0)
(8.75851 -0.127478 0)
(8.33345 -0.00743138 0)
(8.33799 -0.022007 0)
(8.34759 -0.0357345 0)
(8.36107 -0.0483245 0)
(8.37729 -0.0596409 0)
(8.39556 -0.0696203 0)
(8.41521 -0.0782535 0)
(8.43562 -0.0855848 0)
(8.45629 -0.0916976 0)
(8.47684 -0.0966988 0)
(8.497 -0.100709 0)
(8.51655 -0.103854 0)
(8.53535 -0.106261 0)
(8.55331 -0.108055 0)
(8.5704 -0.109353 0)
(8.58658 -0.110263 0)
(8.60188 -0.110887 0)
(8.61632 -0.111315 0)
(8.62993 -0.11163 0)
(8.64278 -0.111905 0)
(8.6549 -0.112207 0)
(8.66636 -0.112594 0)
(8.67721 -0.11312 0)
(8.68751 -0.113833 0)
(8.69731 -0.114779 0)
(8.70667 -0.115996 0)
(8.71563 -0.117525 0)
(8.72423 -0.1194 0)
(8.73253 -0.121655 0)
(8.74054 -0.124325 0)
(8.74829 -0.127439 0)
(8.75582 -0.131031 0)
(8.76314 -0.135116 0)
(8.33348 -0.00930775 0)
(8.33836 -0.0275323 0)
(8.34865 -0.0445556 0)
(8.36306 -0.0599714 0)
(8.38038 -0.0736327 0)
(8.39982 -0.0854967 0)
(8.42066 -0.0955839 0)
(8.44224 -0.10398 0)
(8.46401 -0.110815 0)
(8.48559 -0.116246 0)
(8.50666 -0.120442 0)
(8.52702 -0.123576 0)
(8.54652 -0.125818 0)
(8.56508 -0.12733 0)
(8.58265 -0.128262 0)
(8.59922 -0.128752 0)
(8.61482 -0.128923 0)
(8.62947 -0.128886 0)
(8.64321 -0.128737 0)
(8.6561 -0.128561 0)
(8.6682 -0.128434 0)
(8.67957 -0.12842 0)
(8.69027 -0.128577 0)
(8.70035 -0.128955 0)
(8.70987 -0.1296 0)
(8.71888 -0.130551 0)
(8.72743 -0.131844 0)
(8.73557 -0.133514 0)
(8.74332 -0.135589 0)
(8.75073 -0.138097 0)
(8.75782 -0.141064 0)
(8.76461 -0.144514 0)
(8.7711 -0.148455 0)
(8.33352 -0.011395 0)
(8.33885 -0.0336283 0)
(8.35006 -0.0541358 0)
(8.36567 -0.0723265 0)
(8.38429 -0.0880318 0)
(8.4051 -0.101261 0)
(8.42733 -0.112128 0)
(8.45027 -0.12083 0)
(8.47334 -0.127608 0)
(8.49612 -0.132713 0)
(8.5183 -0.136391 0)
(8.53965 -0.138875 0)
(8.56002 -0.140383 0)
(8.57932 -0.141112 0)
(8.59751 -0.141239 0)
(8.61459 -0.140923 0)
(8.63057 -0.140301 0)
(8.64549 -0.139495 0)
(8.65942 -0.138609 0)
(8.6724 -0.137736 0)
(8.6845 -0.136954 0)
(8.69579 -0.13633 0)
(8.70633 -0.135924 0)
(8.71619 -0.135785 0)
(8.72541 -0.135959 0)
(8.73407 -0.136484 0)
(8.7422 -0.137393 0)
(8.74985 -0.138717 0)
(8.75706 -0.140481 0)
(8.76387 -0.142708 0)
(8.77031 -0.145417 0)
(8.7764 -0.148631 0)
(8.78216 -0.152345 0)
(8.3336 -0.0138073 0)
(8.33973 -0.040769 0)
(8.35253 -0.0655785 0)
(8.3702 -0.0875216 0)
(8.39106 -0.106419 0)
(8.41413 -0.122257 0)
(8.43851 -0.13513 0)
(8.46341 -0.145264 0)
(8.48823 -0.152957 0)
(8.51254 -0.158533 0)
(8.53603 -0.162314 0)
(8.55848 -0.164614 0)
(8.57977 -0.165722 0)
(8.59981 -0.165895 0)
(8.61859 -0.165363 0)
(8.63612 -0.164326 0)
(8.65242 -0.162954 0)
(8.66756 -0.161392 0)
(8.68159 -0.159763 0)
(8.69458 -0.158172 0)
(8.70661 -0.156704 0)
(8.71774 -0.155431 0)
(8.72804 -0.154414 0)
(8.73759 -0.153704 0)
(8.74645 -0.153343 0)
(8.75467 -0.153367 0)
(8.7623 -0.153805 0)
(8.7694 -0.154684 0)
(8.776 -0.156022 0)
(8.78213 -0.157838 0)
(8.78783 -0.160143 0)
(8.79313 -0.162951 0)
(8.79802 -0.16625 0)
(8.33367 -0.0166065 0)
(8.34057 -0.048724 0)
(8.35498 -0.0775339 0)
(8.3747 -0.10215 0)
(8.3978 -0.122607 0)
(8.42325 -0.139165 0)
(8.45007 -0.152162 0)
(8.47735 -0.16202 0)
(8.50441 -0.169175 0)
(8.53076 -0.174037 0)
(8.55607 -0.17699 0)
(8.5801 -0.178384 0)
(8.60273 -0.178537 0)
(8.62388 -0.177729 0)
(8.64355 -0.176206 0)
(8.66177 -0.17418 0)
(8.6786 -0.171835 0)
(8.69409 -0.169326 0)
(8.70834 -0.166784 0)
(8.72143 -0.16432 0)
(8.73344 -0.162024 0)
(8.74446 -0.159971 0)
(8.75458 -0.158225 0)
(8.76385 -0.156834 0)
(8.77236 -0.155842 0)
(8.78016 -0.155282 0)
(8.78732 -0.15518 0)
(8.79389 -0.155559 0)
(8.79991 -0.156436 0)
(8.80542 -0.157821 0)
(8.81046 -0.159723 0)
(8.81506 -0.162149 0)
(8.81926 -0.16508 0)
(8.33391 -0.0201774 0)
(8.34286 -0.059582 0)
(8.36092 -0.0952538 0)
(8.38482 -0.125978 0)
(8.41197 -0.151544 0)
(8.4411 -0.171992 0)
(8.47115 -0.187634 0)
(8.5012 -0.199036 0)
(8.5306 -0.206832 0)
(8.55894 -0.211635 0)
(8.58592 -0.214015 0)
(8.61135 -0.214486 0)
(8.63511 -0.213492 0)
(8.65719 -0.21141 0)
(8.67759 -0.208558 0)
(8.69636 -0.205198 0)
(8.71357 -0.201546 0)
(8.7293 -0.197779 0)
(8.74366 -0.194038 0)
(8.75673 -0.190438 0)
(8.76861 -0.187072 0)
(8.7794 -0.184011 0)
(8.78919 -0.181313 0)
(8.79806 -0.179025 0)
(8.80609 -0.177181 0)
(8.81335 -0.17581 0)
(8.81989 -0.174932 0)
(8.82578 -0.174564 0)
(8.83106 -0.174716 0)
(8.83578 -0.175394 0)
(8.83997 -0.1766 0)
(8.84368 -0.178334 0)
(8.8469 -0.180568 0)
(8.33387 -0.0242532 0)
(8.34365 -0.0698626 0)
(8.36413 -0.108552 0)
(8.39146 -0.140064 0)
(8.42273 -0.165469 0)
(8.45645 -0.185429 0)
(8.49116 -0.200501 0)
(8.52557 -0.211331 0)
(8.55891 -0.218542 0)
(8.59066 -0.222702 0)
(8.62049 -0.22435 0)
(8.64824 -0.223982 0)
(8.67384 -0.222046 0)
(8.69731 -0.218932 0)
(8.71871 -0.214982 0)
(8.73816 -0.210485 0)
(8.75576 -0.205682 0)
(8.77165 -0.200773 0)
(8.78595 -0.195919 0)
(8.79882 -0.19125 0)
(8.81035 -0.186868 0)
(8.82068 -0.182852 0)
(8.82991 -0.179263 0)
(8.83813 -0.176146 0)
(8.84544 -0.173537 0)
(8.85191 -0.171458 0)
(8.85761 -0.169928 0)
(8.86261 -0.168957 0)
(8.86696 -0.168553 0)
(8.87072 -0.168718 0)
(8.87393 -0.169448 0)
(8.87663 -0.17074 0)
(8.8789 -0.172555 0)
(8.33498 -0.0311675 0)
(8.3514 -0.0922068 0)
(8.38061 -0.145264 0)
(8.41547 -0.18822 0)
(8.45251 -0.221432 0)
(8.49079 -0.245708 0)
(8.52914 -0.262363 0)
(8.56649 -0.272871 0)
(8.60218 -0.278511 0)
(8.63581 -0.280356 0)
(8.66711 -0.279313 0)
(8.69594 -0.276124 0)
(8.7223 -0.271386 0)
(8.74624 -0.265579 0)
(8.76787 -0.259087 0)
(8.78734 -0.252216 0)
(8.8048 -0.245205 0)
(8.82043 -0.238247 0)
(8.83438 -0.231489 0)
(8.84682 -0.225046 0)
(8.85788 -0.219003 0)
(8.86771 -0.213427 0)
(8.87642 -0.208365 0)
(8.88412 -0.203849 0)
(8.89092 -0.199902 0)
(8.89688 -0.196541 0)
(8.90209 -0.193774 0)
(8.9066 -0.191608 0)
(8.91049 -0.190046 0)
(8.91379 -0.189089 0)
(8.91657 -0.188733 0)
(8.91887 -0.188976 0)
(8.92072 -0.189769 0)
(8.33403 -0.0361822 0)
(8.34996 -0.0984626 0)
(8.38403 -0.146909 0)
(8.42703 -0.186237 0)
(8.47341 -0.218423 0)
(8.52076 -0.24321 0)
(8.56695 -0.261052 0)
(8.61076 -0.272848 0)
(8.65184 -0.279451 0)
(8.6901 -0.281737 0)
(8.72557 -0.28059 0)
(8.75838 -0.276825 0)
(8.7887 -0.271149 0)
(8.81668 -0.264164 0)
(8.8425 -0.256362 0)
(8.8663 -0.248138 0)
(8.88823 -0.239801 0)
(8.90843 -0.231585 0)
(8.92701 -0.22367 0)
(8.9441 -0.216183 0)
(8.95982 -0.209217 0)
(8.97426 -0.202834 0)
(8.98753 -0.197074 0)
(8.99972 -0.191961 0)
(9.01091 -0.187504 0)
(9.02117 -0.183707 0)
(9.03057 -0.18057 0)
(9.03917 -0.178088 0)
(9.04703 -0.176262 0)
(9.0542 -0.175091 0)
(9.06075 -0.174583 0)
(9.06676 -0.174746 0)
(9.07232 -0.175544 0)
(8.3396 -0.0603465 0)
(8.37713 -0.169321 0)
(8.42653 -0.24742 0)
(8.47657 -0.30025 0)
(8.52926 -0.334904 0)
(8.58608 -0.355753 0)
(8.64541 -0.366884 0)
(8.70594 -0.371383 0)
(8.76671 -0.371203 0)
(8.82663 -0.367674 0)
(8.8847 -0.361741 0)
(8.94018 -0.354083 0)
(8.99254 -0.345205 0)
(9.04144 -0.335506 0)
(9.08673 -0.325308 0)
(9.12835 -0.314878 0)
(9.16638 -0.30444 0)
(9.20096 -0.294179 0)
(9.23228 -0.284245 0)
(9.26056 -0.274757 0)
(9.28604 -0.265806 0)
(9.30893 -0.257458 0)
(9.32947 -0.249759 0)
(9.34787 -0.242736 0)
(9.3643 -0.236406 0)
(9.37895 -0.230774 0)
(9.39197 -0.225841 0)
(9.40347 -0.221608 0)
(9.41358 -0.218084 0)
(9.42239 -0.215278 0)
(9.43001 -0.213253 0)
(9.43651 -0.212017 0)
(9.44209 -0.211749 0)
(8.33761 -0.0464104 0)
(8.39357 -0.120574 0)
(8.49392 -0.184264 0)
(8.60882 -0.245699 0)
(8.73077 -0.29839 0)
(8.85428 -0.33918 0)
(8.97245 -0.368804 0)
(9.08118 -0.388163 0)
(9.17829 -0.398417 0)
(9.26259 -0.40116 0)
(9.33382 -0.398021 0)
(9.39247 -0.390464 0)
(9.43939 -0.379755 0)
(9.47571 -0.366947 0)
(9.50264 -0.352882 0)
(9.52142 -0.33822 0)
(9.53319 -0.323463 0)
(9.53905 -0.308985 0)
(9.53993 -0.295055 0)
(9.53668 -0.281857 0)
(9.53 -0.269509 0)
(9.52052 -0.258082 0)
(9.50872 -0.247603 0)
(9.49504 -0.238073 0)
(9.47982 -0.229473 0)
(9.46333 -0.221766 0)
(9.44578 -0.21491 0)
(9.42732 -0.208858 0)
(9.40807 -0.20358 0)
(9.38803 -0.199053 0)
(9.36735 -0.195383 0)
(9.3457 -0.192531 0)
(9.32381 -0.191541 0)
(8.40921 -0.221152 0)
(8.63493 -0.42796 0)
(8.83321 -0.522046 0)
(8.97718 -0.582467 0)
(9.07123 -0.615041 0)
(9.11438 -0.625385 0)
(9.11097 -0.621087 0)
(9.07041 -0.606224 0)
(9.00157 -0.58363 0)
(8.91188 -0.555867 0)
(8.80779 -0.524989 0)
(8.69465 -0.492574 0)
(8.57661 -0.459841 0)
(8.45684 -0.427699 0)
(8.33768 -0.396793 0)
(8.2208 -0.367555 0)
(8.10735 -0.340244 0)
(7.99805 -0.314993 0)
(7.89332 -0.291837 0)
(7.79335 -0.270746 0)
(7.69818 -0.251643 0)
(7.6077 -0.23442 0)
(7.52174 -0.218953 0)
(7.44009 -0.205105 0)
(7.36249 -0.192734 0)
(7.28867 -0.181695 0)
(7.21836 -0.171837 0)
(7.15124 -0.163014 0)
(7.08701 -0.155052 0)
(7.02522 -0.147783 0)
(6.96549 -0.141114 0)
(6.90664 -0.134149 0)
(6.84919 -0.130605 0)
(8.13712 -0.207074 0)
(7.84797 -0.387831 0)
(7.38612 -0.43909 0)
(6.86129 -0.439645 0)
(6.36245 -0.408283 0)
(5.89247 -0.359288 0)
(5.45395 -0.304928 0)
(5.05425 -0.251589 0)
(4.69443 -0.202482 0)
(4.37249 -0.159215 0)
(4.08606 -0.12223 0)
(3.83229 -0.0912987 0)
(3.60799 -0.0658806 0)
(3.40999 -0.0452882 0)
(3.23529 -0.0288006 0)
(3.08109 -0.015737 0)
(2.94484 -0.00549016 0)
(2.82425 0.00246239 0)
(2.71729 0.0085593 0)
(2.62214 0.0131626 0)
(2.53724 0.0165679 0)
(2.4612 0.0190151 0)
(2.39282 0.0206991 0)
(2.33105 0.0217789 0)
(2.27501 0.0223903 0)
(2.22392 0.0226509 0)
(2.17711 0.0226906 0)
(2.13413 0.0226412 0)
(2.09439 0.0227435 0)
(2.05805 0.023333 0)
(2.02412 0.0247394 0)
(1.99476 0.0298766 0)
(1.96784 0.0240492 0)
(1.45807 -0.00797311 0)
(1.66985 -0.036909 0)
(1.71912 -0.110945 0)
(1.62882 -0.211758 0)
(1.42389 -0.267904 0)