/*--------------------------------*- C++ -*----------------------------------*\
| =========                 |                                                 |
| \\      /  F ield         | OpenFOAM: The Open Source CFD Toolbox           |
|  \\    /   O peration     | Version:  2.1.1                                 |
|   \\  /    A nd           | Web:      www.OpenFOAM.org                      |
|    \\/     M anipulation  |                                                 |
\*---------------------------------------------------------------------------*/
FoamFile
{
    version     2.0;
    format      ascii;
    class       volScalarField;
    location    "0.115";
    object      nuSgs;
}
// * * * * * * * * * * * * * * * * * * * * * * * * * * * * * * * * * * * * * //

dimensions      [0 2 -1 0 0 0 0];

internalField   nonuniform List<scalar> 
6820
(
0.000556015
0.00045742
0.000368166
0.000306163
0.000268977
0.000243367
0.00022452
0.000210108
0.000198472
0.000188705
0.000180291
0.000172901
0.000166311
0.000160368
0.000154959
0.000149998
0.000145421
0.000141177
0.000137228
0.000133541
0.000130092
0.000126861
0.000123832
0.000120993
0.00011834
0.000115866
0.000113568
0.000111454
0.000109525
0.000107826
0.000106334
0.000105045
0.00010347
0.000103494
0.000170656
0.000223643
0.000240019
0.000235273
0.000224922
0.000213239
0.000201967
0.000191747
0.000182596
0.000174396
0.000167013
0.000160323
0.000154224
0.000148631
0.000143475
0.000138698
0.000134253
0.000130098
0.000126201
0.000122532
0.000119065
0.000115782
0.000112664
0.000109695
0.000106859
0.000104149
0.000101547
9.90593e-05
9.66104e-05
9.43262e-05
9.17171e-05
8.99256e-05
3.67759e-05
2.84808e-05
4.56033e-05
8.22755e-05
0.000107915
0.000123516
0.000131955
0.000135823
0.000136943
0.000136387
0.000134794
0.000132562
0.000129939
0.000127089
0.000124118
0.000121098
0.000118075
0.000115081
0.000112135
0.000109251
0.000106436
0.000103693
0.000101025
9.84288e-05
9.59003e-05
9.34352e-05
9.10305e-05
8.86705e-05
8.63482e-05
8.40262e-05
8.17058e-05
7.91961e-05
7.66656e-05
2.0737e-05
2.86881e-05
2.65678e-05
1.51035e-05
3.66304e-06
1.38131e-05
2.56322e-05
3.54488e-05
4.33641e-05
4.96512e-05
5.45846e-05
5.84074e-05
6.1321e-05
6.34828e-05
6.50257e-05
6.60596e-05
6.66746e-05
6.69446e-05
6.69303e-05
6.66812e-05
6.62377e-05
6.5633e-05
6.48934e-05
6.40396e-05
6.30891e-05
6.20539e-05
6.09389e-05
5.97452e-05
5.84661e-05
5.70836e-05
5.55905e-05
5.39622e-05
5.22434e-05
1.44194e-05
1.75902e-05
2.26087e-05
2.43029e-05
2.39797e-05
2.20115e-05
1.91376e-05
1.58966e-05
1.25214e-05
9.16186e-06
5.92669e-06
2.90011e-06
6.78276e-07
2.72897e-06
5.05592e-06
7.16409e-06
9.0413e-06
1.06946e-05
1.2136e-05
1.33788e-05
1.44369e-05
1.53234e-05
1.60508e-05
1.66296e-05
1.70694e-05
1.73772e-05
1.75574e-05
1.7615e-05
1.75527e-05
1.73617e-05
1.7041e-05
1.66021e-05
1.60555e-05
1.09186e-05
1.25042e-05
1.38294e-05
1.43347e-05
1.51136e-05
1.57467e-05
1.61193e-05
1.63246e-05
1.63668e-05
1.6251e-05
1.60014e-05
1.56417e-05
1.51959e-05
1.46794e-05
1.41114e-05
1.35096e-05
1.28897e-05
1.22651e-05
1.16468e-05
1.10438e-05
1.04634e-05
9.91136e-06
9.39263e-06
8.91141e-06
8.47109e-06
8.07523e-06
7.72616e-06
7.42765e-06
7.17761e-06
6.97723e-06
6.82478e-06
6.70561e-06
6.61366e-06
8.2422e-06
9.43481e-06
1.02567e-05
1.0054e-05
9.86241e-06
9.68132e-06
9.49406e-06
9.40313e-06
9.39753e-06
9.43309e-06
9.48286e-06
9.52909e-06
9.56014e-06
9.57387e-06
9.5682e-06
9.54229e-06
9.4966e-06
9.43252e-06
9.35191e-06
9.25696e-06
9.15002e-06
9.03351e-06
8.90991e-06
8.78169e-06
8.65127e-06
8.52086e-06
8.39362e-06
8.27124e-06
8.15886e-06
8.0553e-06
7.95645e-06
7.85055e-06
7.72982e-06
6.35775e-06
7.41584e-06
8.22623e-06
8.08951e-06
7.77823e-06
7.43773e-06
7.05951e-06
6.73501e-06
6.48305e-06
6.28287e-06
6.12168e-06
5.9905e-06
5.88051e-06
5.78514e-06
5.70018e-06
5.62269e-06
5.5504e-06
5.48162e-06
5.41522e-06
5.35048e-06
5.28705e-06
5.22488e-06
5.16414e-06
5.10522e-06
5.04863e-06
4.9951e-06
4.94512e-06
4.89981e-06
4.85774e-06
4.81615e-06
4.77063e-06
4.71139e-06
4.632e-06
4.99674e-06
5.86565e-06
6.55251e-06
6.54681e-06
6.37844e-06
6.17047e-06
5.8874e-06
5.6018e-06
5.35218e-06
5.13485e-06
4.94507e-06
4.77947e-06
4.63328e-06
4.50243e-06
4.38417e-06
4.27645e-06
4.17772e-06
4.08682e-06
4.00298e-06
3.92565e-06
3.85445e-06
3.78916e-06
3.72966e-06
3.6759e-06
3.62777e-06
3.58509e-06
3.5472e-06
3.51289e-06
3.48007e-06
3.4451e-06
3.40313e-06
3.34607e-06
3.26899e-06
3.99069e-06
4.71384e-06
5.31992e-06
5.39211e-06
5.28979e-06
5.14147e-06
4.92532e-06
4.69662e-06
4.49318e-06
4.31417e-06
4.15512e-06
4.01392e-06
3.88758e-06
3.77325e-06
3.669e-06
3.57349e-06
3.48573e-06
3.40494e-06
3.33055e-06
3.26216e-06
3.19942e-06
3.14207e-06
3.08987e-06
3.04256e-06
2.99969e-06
2.96064e-06
2.92432e-06
2.88914e-06
2.8525e-06
2.8106e-06
2.75894e-06
2.69087e-06
2.60191e-06
3.23081e-06
3.8407e-06
4.37707e-06
4.49103e-06
4.43733e-06
4.33798e-06
4.17801e-06
3.99461e-06
3.82261e-06
3.66644e-06
3.5248e-06
3.39773e-06
3.28393e-06
3.18143e-06
3.08866e-06
3.00441e-06
2.92766e-06
2.85759e-06
2.79353e-06
2.73496e-06
2.68143e-06
2.63251e-06
2.58778e-06
2.5467e-06
2.50862e-06
2.47259e-06
2.43725e-06
2.40071e-06
2.36037e-06
2.31276e-06
2.25393e-06
2.17857e-06
2.08266e-06
2.64399e-06
3.16456e-06
3.64906e-06
3.79832e-06
3.79024e-06
3.72924e-06
3.60861e-06
3.45701e-06
3.30762e-06
3.16892e-06
3.04149e-06
2.92617e-06
2.82248e-06
2.72903e-06
2.64456e-06
2.56804e-06
2.49861e-06
2.4355e-06
2.37807e-06
2.32576e-06
2.27804e-06
2.23436e-06
2.19412e-06
2.15662e-06
2.12097e-06
2.08602e-06
2.05027e-06
2.01178e-06
1.9681e-06
1.91616e-06
1.85255e-06
1.77317e-06
1.67434e-06
2.18061e-06
2.63311e-06
3.07927e-06
3.25356e-06
3.28071e-06
3.24977e-06
3.16227e-06
3.04085e-06
2.91453e-06
2.79333e-06
2.67925e-06
2.57403e-06
2.47822e-06
2.39128e-06
2.31246e-06
2.24107e-06
2.17639e-06
2.11775e-06
2.06452e-06
2.01607e-06
1.9718e-06
1.93105e-06
1.89313e-06
1.85717e-06
1.82219e-06
1.78694e-06
1.74993e-06
1.70929e-06
1.66282e-06
1.60793e-06
1.54187e-06
1.46165e-06
1.36416e-06
1.80707e-06
2.2088e-06
2.62648e-06
2.82043e-06
2.87806e-06
2.87378e-06
2.81413e-06
2.7178e-06
2.6103e-06
2.50304e-06
2.39966e-06
2.30273e-06
2.21355e-06
2.13215e-06
2.0581e-06
1.99088e-06
1.92992e-06
1.87459e-06
1.82426e-06
1.7783e-06
1.73608e-06
1.6969e-06
1.65998e-06
1.62444e-06
1.58924e-06
1.55318e-06
1.51484e-06
1.47256e-06
1.42448e-06
1.36856e-06
1.30269e-06
1.22496e-06
1.13296e-06
1.4999e-06
1.86538e-06
2.26272e-06
2.47273e-06
2.55579e-06
2.57373e-06
2.53672e-06
2.46157e-06
2.37087e-06
2.27653e-06
2.1832e-06
2.09395e-06
2.01061e-06
1.93369e-06
1.86315e-06
1.79872e-06
1.73999e-06
1.68644e-06
1.63752e-06
1.59263e-06
1.55113e-06
1.51229e-06
1.47536e-06
1.43944e-06
1.40356e-06
1.36659e-06
1.32728e-06
1.28426e-06
1.23605e-06
1.18118e-06
1.11822e-06
1.04623e-06
9.63794e-07
1.24247e-06
1.58412e-06
1.96767e-06
2.1912e-06
2.29594e-06
2.33347e-06
2.31611e-06
2.25943e-06
2.1835e-06
2.10026e-06
2.01525e-06
1.93211e-06
1.85318e-06
1.77946e-06
1.71126e-06
1.64854e-06
1.59103e-06
1.53834e-06
1.48994e-06
1.44529e-06
1.40375e-06
1.36466e-06
1.32725e-06
1.29073e-06
1.25419e-06
1.21667e-06
1.17714e-06
1.13454e-06
1.08781e-06
1.03603e-06
9.78481e-07
9.15123e-07
8.45608e-07
1.02278e-06
1.35161e-06
1.72697e-06
1.96229e-06
2.08569e-06
2.1404e-06
2.13986e-06
2.09895e-06
2.03579e-06
1.96223e-06
1.88449e-06
1.80668e-06
1.73148e-06
1.66029e-06
1.59371e-06
1.53191e-06
1.47479e-06
1.42207e-06
1.37334e-06
1.3281e-06
1.28582e-06
1.24586e-06
1.20758e-06
1.17026e-06
1.13314e-06
1.09545e-06
1.0564e-06
1.01526e-06
9.71385e-07
9.24364e-07
8.74086e-07
8.21248e-07
7.66408e-07
8.32145e-07
1.1584e-06
1.53038e-06
1.7762e-06
1.91572e-06
1.98566e-06
1.99989e-06
1.97278e-06
1.92095e-06
1.85595e-06
1.78448e-06
1.71103e-06
1.63864e-06
1.56905e-06
1.50318e-06
1.44143e-06
1.38388e-06
1.33038e-06
1.28065e-06
1.23427e-06
1.19079e-06
1.14969e-06
1.1104e-06
1.07234e-06
1.03492e-06
9.97564e-07
9.59729e-07
9.20984e-07
8.81061e-07
8.39972e-07
7.98078e-07
7.56547e-07
7.16496e-07
6.64507e-07
9.98282e-07
1.37084e-06
1.62606e-06
1.77955e-06
1.86299e-06
1.8902e-06
1.87511e-06
1.83315e-06
1.77555e-06
1.70937e-06
1.63946e-06
1.56914e-06
1.50049e-06
1.43469e-06
1.37235e-06
1.31375e-06
1.25887e-06
1.20755e-06
1.15952e-06
1.11441e-06
1.07182e-06
1.03133e-06
9.92492e-07
9.54881e-07
9.18113e-07
8.81879e-07
8.46001e-07
8.10489e-07
7.75636e-07
7.42059e-07
7.11051e-07
6.83836e-07
5.16379e-07
8.67798e-07
1.2437e-06
1.50718e-06
1.67266e-06
1.76801e-06
1.80665e-06
1.8021e-06
1.76882e-06
1.71773e-06
1.65613e-06
1.5891e-06
1.52028e-06
1.45201e-06
1.38574e-06
1.3223e-06
1.26213e-06
1.20541e-06
1.15209e-06
1.10203e-06
1.05501e-06
1.01074e-06
9.68935e-07
9.29296e-07
8.91558e-07
8.5551e-07
8.2103e-07
7.88128e-07
7.56991e-07
7.28055e-07
7.02e-07
6.80014e-07
6.63141e-07
3.88085e-07
7.66184e-07
1.14632e-06
1.41659e-06
1.59215e-06
1.69787e-06
1.74653e-06
1.75115e-06
1.72537e-06
1.67982e-06
1.62188e-06
1.55694e-06
1.48884e-06
1.42021e-06
1.35273e-06
1.28747e-06
1.22506e-06
1.16583e-06
1.1099e-06
1.05726e-06
1.00782e-06
9.61436e-07
9.17943e-07
8.77186e-07
8.39034e-07
8.03414e-07
7.70328e-07
7.39892e-07
7.12356e-07
6.88153e-07
6.6785e-07
6.52352e-07
6.42375e-07
2.88218e-07
6.95144e-07
1.07762e-06
1.35271e-06
1.53642e-06
1.651e-06
1.7084e-06
1.72102e-06
1.70185e-06
1.66118e-06
1.60648e-06
1.54332e-06
1.47576e-06
1.40665e-06
1.3379e-06
1.27075e-06
1.20602e-06
1.1442e-06
1.08554e-06
1.03018e-06
9.78139e-07
9.29413e-07
8.83963e-07
8.41754e-07
8.02773e-07
7.6705e-07
7.3467e-07
7.05798e-07
6.80678e-07
6.59674e-07
6.43179e-07
6.31852e-07
6.26045e-07
2.42268e-07
6.5809e-07
1.03771e-06
1.31502e-06
1.50482e-06
1.62669e-06
1.6914e-06
1.71067e-06
1.69681e-06
1.6598e-06
1.60718e-06
1.54465e-06
1.47648e-06
1.40576e-06
1.33461e-06
1.26451e-06
1.19646e-06
1.13109e-06
1.06883e-06
1.00992e-06
9.54527e-07
9.02733e-07
8.54603e-07
8.10194e-07
7.69569e-07
7.32814e-07
7.00041e-07
6.71404e-07
6.47084e-07
6.27321e-07
6.12305e-07
6.02411e-07
5.97724e-07
2.76357e-07
6.58384e-07
1.0275e-06
1.304e-06
1.49788e-06
1.6257e-06
1.69682e-06
1.72213e-06
1.71335e-06
1.68015e-06
1.63e-06
1.56868e-06
1.50061e-06
1.42901e-06
1.3562e-06
1.28379e-06
1.21294e-06
1.14443e-06
1.0788e-06
1.01642e-06
9.5754e-07
9.0236e-07
8.51026e-07
8.03666e-07
7.60404e-07
7.21362e-07
6.86665e-07
6.56452e-07
6.30843e-07
6.09998e-07
5.93963e-07
5.83044e-07
5.77002e-07
3.72961e-07
6.97277e-07
1.04828e-06
1.32068e-06
1.51637e-06
1.64821e-06
1.72375e-06
1.75293e-06
1.74689e-06
1.71506e-06
1.66489e-06
1.60236e-06
1.53207e-06
1.45746e-06
1.38105e-06
1.30465e-06
1.22954e-06
1.15664e-06
1.08659e-06
1.01982e-06
9.56654e-07
8.97331e-07
8.42031e-07
7.90904e-07
7.44078e-07
7.01669e-07
6.63779e-07
6.30499e-07
6.01888e-07
5.78018e-07
5.58821e-07
5.44466e-07
5.34624e-07
5.04386e-07
7.73404e-07
1.10139e-06
1.36721e-06
1.56345e-06
1.69914e-06
1.77982e-06
1.81434e-06
1.81311e-06
1.78511e-06
1.7376e-06
1.67647e-06
1.60636e-06
1.53085e-06
1.45256e-06
1.37349e-06
1.29507e-06
1.21836e-06
1.1441e-06
1.07286e-06
1.00503e-06
9.40905e-07
8.80699e-07
8.24578e-07
7.72668e-07
7.25067e-07
6.81845e-07
6.43057e-07
6.0872e-07
5.78897e-07
5.53471e-07
5.32796e-07
5.16164e-07
6.60259e-07
8.85237e-07
1.18897e-06
1.4458e-06
1.63961e-06
1.77528e-06
1.85621e-06
1.89032e-06
1.88779e-06
1.8576e-06
1.80716e-06
1.74254e-06
1.66858e-06
1.58895e-06
1.50641e-06
1.42299e-06
1.34018e-06
1.25905e-06
1.18036e-06
1.10466e-06
1.03233e-06
9.63645e-07
8.98777e-07
8.37848e-07
7.80932e-07
7.28064e-07
6.79247e-07
6.34469e-07
5.93678e-07
5.56868e-07
5.23873e-07
4.94948e-07
4.69478e-07
8.39609e-07
1.03112e-06
1.3126e-06
1.5614e-06
1.75572e-06
1.89688e-06
1.9855e-06
2.02764e-06
2.03228e-06
2.00764e-06
1.96076e-06
1.89766e-06
1.82332e-06
1.74171e-06
1.65586e-06
1.56812e-06
1.48023e-06
1.39349e-06
1.30881e-06
1.22687e-06
1.14811e-06
1.07283e-06
1.00122e-06
9.33377e-07
8.69318e-07
8.09019e-07
7.52414e-07
6.99415e-07
6.49894e-07
6.03805e-07
5.60889e-07
5.21629e-07
4.84669e-07
1.04789e-06
1.21684e-06
1.47974e-06
1.7168e-06
1.90208e-06
2.03476e-06
2.11466e-06
2.14827e-06
2.14533e-06
2.11438e-06
2.06245e-06
1.99538e-06
1.91787e-06
1.8336e-06
1.74535e-06
1.65527e-06
1.56495e-06
1.4756e-06
1.38808e-06
1.30303e-06
1.22089e-06
1.14193e-06
1.06632e-06
9.94133e-07
9.25347e-07
8.59898e-07
7.97662e-07
7.38486e-07
6.8217e-07
6.28544e-07
5.77264e-07
5.28496e-07
4.81026e-07
1.28949e-06
1.43894e-06
1.68921e-06
1.92755e-06
2.12619e-06
2.27878e-06
2.37872e-06
2.42859e-06
2.43658e-06
2.41108e-06
2.35971e-06
2.28929e-06
2.2056e-06
2.11323e-06
2.01575e-06
1.91582e-06
1.81546e-06
1.71609e-06
1.61873e-06
1.52407e-06
1.43255e-06
1.34443e-06
1.25984e-06
1.1788e-06
1.10125e-06
1.02707e-06
9.56108e-07
8.88186e-07
8.23077e-07
7.60636e-07
7.00458e-07
6.4297e-07
5.8603e-07
1.58516e-06
1.7321e-06
1.97022e-06
2.18239e-06
2.34705e-06
2.46642e-06
2.53945e-06
2.57141e-06
2.57048e-06
2.54309e-06
2.49436e-06
2.42897e-06
2.35106e-06
2.26415e-06
2.17115e-06
2.0745e-06
1.97614e-06
1.87761e-06
1.78009e-06
1.68443e-06
1.59124e-06
1.50093e-06
1.41372e-06
1.32973e-06
1.24895e-06
1.17131e-06
1.0967e-06
1.02496e-06
9.55917e-07
8.89431e-07
8.25211e-07
7.6348e-07
7.02799e-07
1.92702e-06
2.05142e-06
2.30337e-06
2.56864e-06
2.80351e-06
2.98497e-06
3.09779e-06
3.14627e-06
3.14379e-06
3.1028e-06
3.03356e-06
2.94467e-06
2.84285e-06
2.73304e-06
2.61878e-06
2.50263e-06
2.38641e-06
2.27141e-06
2.15851e-06
2.04832e-06
1.94126e-06
1.83756e-06
1.73735e-06
1.64067e-06
1.54748e-06
1.4577e-06
1.37124e-06
1.28799e-06
1.20781e-06
1.13068e-06
1.05634e-06
9.85364e-07
9.15561e-07
2.40965e-06
2.56693e-06
2.76545e-06
2.9067e-06
3.02013e-06
3.12576e-06
3.21215e-06
3.2706e-06
3.29886e-06
3.29615e-06
3.26389e-06
3.20606e-06
3.12761e-06
3.0334e-06
2.92783e-06
2.81468e-06
2.69705e-06
2.57738e-06
2.45751e-06
2.33881e-06
2.22226e-06
2.10849e-06
1.99794e-06
1.89083e-06
1.78725e-06
1.68722e-06
1.5907e-06
1.49763e-06
1.40795e-06
1.3217e-06
1.23881e-06
1.15984e-06
1.08339e-06
2.88765e-06
3.00001e-06
3.39141e-06
3.80557e-06
4.1194e-06
4.31045e-06
4.38743e-06
4.38104e-06
4.32097e-06
4.22533e-06
4.10529e-06
3.96883e-06
3.82152e-06
3.66725e-06
3.50906e-06
3.34947e-06
3.19059e-06
3.03414e-06
2.88153e-06
2.73383e-06
2.59179e-06
2.45593e-06
2.32652e-06
2.20363e-06
2.0872e-06
1.97706e-06
1.87297e-06
1.77468e-06
1.68195e-06
1.59469e-06
1.51267e-06
1.43682e-06
1.36484e-06
3.92902e-06
4.03615e-06
3.95133e-06
3.87839e-06
3.9843e-06
4.19833e-06
4.39626e-06
4.52758e-06
4.58852e-06
4.58877e-06
4.54487e-06
4.47502e-06
4.39395e-06
4.31186e-06
4.23504e-06
4.16669e-06
4.10777e-06
4.05785e-06
4.0158e-06
3.98021e-06
3.94965e-06
3.92283e-06
3.89863e-06
3.87612e-06
3.85452e-06
3.83319e-06
3.81159e-06
3.78926e-06
3.7659e-06
3.7414e-06
3.71584e-06
3.69068e-06
3.66457e-06
4.38981e-06
4.96004e-06
5.93562e-06
6.4174e-06
6.52991e-06
6.50178e-06
6.4879e-06
6.59388e-06
6.84985e-06
7.22398e-06
7.66625e-06
8.13177e-06
8.58625e-06
9.00667e-06
9.37976e-06
9.69935e-06
9.96398e-06
1.01752e-05
1.03363e-05
1.04517e-05
1.05258e-05
1.05633e-05
1.05687e-05
1.0546e-05
1.04986e-05
1.04298e-05
1.03421e-05
1.02375e-05
1.01179e-05
9.98425e-06
9.83846e-06
9.68251e-06
9.51839e-06
7.58228e-06
5.84254e-06
4.62576e-06
6.20575e-06
8.93543e-06
1.16469e-05
1.39805e-05
1.58747e-05
1.73279e-05
1.83539e-05
1.89892e-05
1.92811e-05
1.92789e-05
1.90318e-05
1.85865e-05
1.79854e-05
1.72662e-05
1.64609e-05
1.55966e-05
1.46955e-05
1.37754e-05
1.28504e-05
1.19315e-05
1.10268e-05
1.01422e-05
9.28168e-06
8.44762e-06
7.64065e-06
6.86071e-06
6.10445e-06
5.37281e-06
4.65384e-06
3.96412e-06
8.58835e-06
1.47153e-05
1.88074e-05
2.12005e-05
2.22766e-05
2.17876e-05
1.99102e-05
1.71008e-05
1.38379e-05
1.07704e-05
8.95986e-06
9.48465e-06
1.19951e-05
1.53771e-05
1.89667e-05
2.24734e-05
2.577e-05
2.88018e-05
3.1549e-05
3.40107e-05
3.61966e-05
3.81216e-05
3.98037e-05
4.12618e-05
4.25149e-05
4.35812e-05
4.44785e-05
4.5224e-05
4.58345e-05
4.6331e-05
4.67289e-05
4.70867e-05
4.73935e-05
3.46661e-05
3.72403e-05
4.66943e-05
6.18476e-05
7.75884e-05
9.3026e-05
0.000107457
0.000120175
0.00013099
0.000139947
0.000147157
0.000152782
0.000157009
0.000160024
0.000162002
0.0001631
0.000163459
0.000163204
0.000162441
0.00016126
0.000159739
0.000157942
0.000155925
0.000153733
0.000151403
0.000148967
0.000146449
0.000143867
0.000141241
0.000138573
0.000135867
0.000133213
0.000130625
0.000608462
0.000582506
0.000556853
0.000530342
0.000504277
0.000478977
0.000454484
0.000431067
0.000408909
0.000388067
0.000368558
0.000350366
0.000333445
0.000317726
0.000303132
0.00028958
0.000276984
0.000265264
0.000254341
0.00024414
0.000234596
0.000225645
0.000217232
0.000209307
0.000201824
0.000194742
0.000188024
0.000181635
0.000175536
0.000169706
0.000164016
0.000158998
0.000154423
9.16875e-05
9.09737e-05
8.98491e-05
9.1774e-05
9.6402e-05
0.00010137
0.000101988
9.15457e-05
7.45012e-05
6.62081e-05
6.34613e-05
5.96637e-05
5.36416e-05
4.54155e-05
3.56426e-05
2.55299e-05
1.3248e-05
9.33222e-06
9.02047e-06
8.75552e-06
1.74671e-05
2.75597e-05
4.28693e-05
4.91618e-05
4.67284e-05
4.23082e-05
3.931e-05
3.76269e-05
3.82372e-05
4.02784e-05
4.31311e-05
4.76764e-05
4.62614e-05
4.05876e-05
3.61452e-05
3.35264e-05
3.11747e-05
2.80896e-05
2.3803e-05
1.84031e-05
1.2683e-05
8.6857e-06
9.36664e-06
1.26803e-05
1.52712e-05
2.09652e-05
3.38537e-05
4.35732e-05
4.37011e-05
3.71006e-05
2.96623e-05
2.44742e-05
2.14102e-05
1.94271e-05
1.77988e-05
1.62899e-05
1.49344e-05
1.38608e-05
1.32095e-05
1.29679e-05
1.32457e-05
1.4922e-05
1.85871e-05
2.72563e-05
4.32642e-05
5.5955e-05
5.78556e-05
5.13076e-05
4.09676e-05
2.95979e-05
1.8568e-05
8.38668e-06
5.27597e-06
1.80389e-05
3.44716e-05
4.93073e-05
5.58281e-05
5.17024e-05
4.08817e-05
2.94118e-05
2.09278e-05
1.56101e-05
1.2106e-05
9.45649e-06
7.33001e-06
5.62504e-06
4.27103e-06
3.20113e-06
2.36055e-06
1.70882e-06
1.21571e-06
8.60032e-07
6.28623e-07
5.13797e-07
4.88998e-07
4.97501e-07
5.18646e-07
4.86734e-07
5.11893e-07
3.9836e-07
0.000113611
0.00010919
0.000104882
0.000102732
0.000103711
0.000107641
0.000113094
0.000116995
0.000107676
8.5486e-05
6.86497e-05
6.08719e-05
5.42635e-05
4.56908e-05
3.60123e-05
2.55425e-05
1.6949e-05
1.15466e-05
3.83309e-06
1.57059e-05
1.76972e-05
3.29819e-05
4.63547e-05
4.81841e-05
4.41725e-05
4.01305e-05
3.76861e-05
3.62705e-05
3.62498e-05
3.84378e-05
4.08477e-05
4.58453e-05
4.77181e-05
4.28008e-05
3.68678e-05
3.32911e-05
3.07171e-05
2.75644e-05
2.33155e-05
1.81302e-05
1.27201e-05
8.95945e-06
9.35104e-06
1.14374e-05
1.34054e-05
2.39653e-05
3.87944e-05
4.61734e-05
4.34807e-05
3.57466e-05
2.85962e-05
2.39754e-05
2.12396e-05
1.93831e-05
1.78156e-05
1.63743e-05
1.50915e-05
1.40722e-05
1.34641e-05
1.32681e-05
1.34909e-05
1.49584e-05
1.84876e-05
2.61242e-05
4.19402e-05
5.66413e-05
6.04874e-05
5.45774e-05
4.39035e-05
3.17927e-05
1.98083e-05
8.28378e-06
4.45227e-06
1.93075e-05
3.68368e-05
5.17349e-05
5.72405e-05
5.18061e-05
4.02384e-05
2.88067e-05
2.07442e-05
1.57371e-05
1.23264e-05
9.67477e-06
7.5275e-06
5.79741e-06
4.41372e-06
3.31166e-06
2.43979e-06
1.76013e-06
1.24396e-06
8.71038e-07
6.29204e-07
5.1216e-07
4.92066e-07
5.07547e-07
5.34739e-07
5.07392e-07
5.36647e-07
4.24791e-07
9.87958e-05
9.74811e-05
9.54046e-05
9.41826e-05
9.50561e-05
9.82235e-05
0.000103048
0.000108901
0.000114236
0.000109373
9.03845e-05
6.92046e-05
5.45732e-05
4.42945e-05
3.46022e-05
2.4249e-05
1.5443e-05
1.38797e-05
2.09734e-05
1.58627e-05
2.20138e-05
4.07764e-05
4.80307e-05
4.58071e-05
4.13119e-05
3.79184e-05
3.58939e-05
3.47625e-05
3.43581e-05
3.5953e-05
3.84141e-05
4.27966e-05
4.78042e-05
4.59305e-05
3.92022e-05
3.35466e-05
3.00947e-05
2.6916e-05
2.28862e-05
1.8048e-05
1.3083e-05
9.59626e-06
8.76672e-06
8.38177e-06
1.44586e-05
3.06473e-05
4.4466e-05
4.80044e-05
4.24538e-05
3.40762e-05
2.75109e-05
2.35024e-05
2.10726e-05
1.93258e-05
1.78167e-05
1.64432e-05
1.52312e-05
1.42643e-05
1.36903e-05
1.35379e-05
1.37328e-05
1.49276e-05
1.82073e-05
2.48826e-05
3.99657e-05
5.66195e-05
6.30081e-05
5.83417e-05
4.7708e-05
3.51232e-05
2.26135e-05
1.13845e-05
8.7929e-06
2.24474e-05
4.03608e-05
5.4758e-05
5.87222e-05
5.16725e-05
3.93329e-05
2.80767e-05
2.05487e-05
1.58823e-05
1.25717e-05
9.92545e-06
7.75885e-06
5.99821e-06
4.57745e-06
3.43744e-06
2.53078e-06
1.82115e-06
1.27975e-06
8.85606e-07
6.27196e-07
5.02862e-07
4.86965e-07
5.11913e-07
5.48044e-07
5.27326e-07
5.62237e-07
4.52261e-07
6.73946e-05
6.65237e-05
6.53643e-05
6.50868e-05
6.66895e-05
7.05366e-05
7.64307e-05
8.34024e-05
9.10904e-05
9.82271e-05
9.84744e-05
8.77856e-05
7.098e-05
5.48587e-05
4.19053e-05
3.40415e-05
3.3073e-05
3.23841e-05
2.05075e-05
1.33244e-05
3.47846e-05
4.64088e-05
4.65119e-05
4.22065e-05
3.83108e-05
3.56803e-05
3.39953e-05
3.30831e-05
3.27012e-05
3.35787e-05
3.58448e-05
3.92592e-05
4.56131e-05
4.83954e-05
4.36867e-05
3.61239e-05
3.02402e-05
2.60989e-05
2.208e-05
1.75386e-05
1.28809e-05
8.86166e-06
4.93111e-06
6.91072e-06
2.24978e-05
3.97796e-05
4.94878e-05
4.83087e-05
4.0434e-05
3.21489e-05
2.64632e-05
2.30672e-05
2.08983e-05
1.92448e-05
1.78008e-05
1.64999e-05
1.53567e-05
1.44406e-05
1.38953e-05
1.3781e-05
1.39873e-05
1.49466e-05
1.78787e-05
2.36786e-05
3.744e-05
5.57354e-05
6.52635e-05
6.26185e-05
5.25364e-05
3.97942e-05
2.716e-05
1.69724e-05
1.55297e-05
2.77515e-05
4.52037e-05
5.82555e-05
5.99958e-05
5.10589e-05
3.80723e-05
2.725e-05
2.03862e-05
1.60637e-05
1.28438e-05
1.02042e-05
8.01789e-06
6.22165e-06
4.75697e-06
3.57268e-06
2.62632e-06
1.88335e-06
1.31504e-06
9.00209e-07
6.28172e-07
5.00319e-07
4.90545e-07
5.24459e-07
5.68174e-07
5.52995e-07
5.92877e-07
4.84019e-07
2.06962e-05
2.04178e-05
2.03383e-05
2.12846e-05
2.37685e-05
2.77383e-05
3.3047e-05
3.98406e-05
4.80014e-05
5.72222e-05
6.60961e-05
7.09715e-05
6.93147e-05
6.25428e-05
5.43044e-05
4.68334e-05
3.66965e-05
1.88472e-05
9.33512e-06
3.20691e-05
4.47473e-05
4.61643e-05
4.23355e-05
3.83345e-05
3.54725e-05
3.34363e-05
3.20133e-05
3.12534e-05
3.10442e-05
3.15119e-05
3.32595e-05
3.59008e-05
4.14212e-05
4.79532e-05
4.82894e-05
4.20721e-05
3.39566e-05
2.71311e-05
2.16615e-05
1.65728e-05
1.15263e-05
6.13485e-06
5.0538e-06
1.81151e-05
3.52648e-05
4.86519e-05
5.2243e-05
4.66667e-05
3.76507e-05
3.02103e-05
2.55264e-05
2.26674e-05
2.07042e-05
1.91346e-05
1.77621e-05
1.65325e-05
1.54524e-05
1.45852e-05
1.40642e-05
1.39766e-05
1.42061e-05
1.49815e-05
1.75061e-05
2.25711e-05
3.44907e-05
5.36881e-05
6.6752e-05
6.70665e-05
5.82969e-05
4.58843e-05
3.35473e-05
2.45416e-05
2.39324e-05
3.50375e-05
5.12136e-05
6.1955e-05
6.07944e-05
4.98273e-05
3.64544e-05
2.63625e-05
2.02527e-05
1.62595e-05
1.31282e-05
1.05023e-05
8.29765e-06
6.46193e-06
4.94882e-06
3.7173e-06
2.72994e-06
1.95327e-06
1.35741e-06
9.19853e-07
6.30034e-07
4.94742e-07
4.90787e-07
5.35724e-07
5.89251e-07
5.81372e-07
6.2742e-07
5.20588e-07
8.69952e-06
8.85847e-06
8.88754e-06
8.44365e-06
7.18924e-06
5.05477e-06
3.32416e-06
6.59277e-06
1.26626e-05
1.92413e-05
2.5416e-05
3.04695e-05
3.32108e-05
3.24498e-05
2.77982e-05
1.8197e-05
5.24142e-06
1.8345e-05
3.51895e-05
4.41808e-05
4.48203e-05
4.12989e-05
3.75976e-05
3.48827e-05
3.28237e-05
3.11947e-05
3.00253e-05
2.94055e-05
2.93581e-05
2.97328e-05
3.09192e-05
3.29516e-05
3.67272e-05
4.39609e-05
4.96169e-05
4.8633e-05
4.22311e-05
3.41084e-05
2.66099e-05
2.03733e-05
1.57433e-05
1.48323e-05
2.16e-05
3.47812e-05
4.79845e-05
5.44626e-05
5.17604e-05
4.32805e-05
3.45458e-05
2.84518e-05
2.47213e-05
2.22893e-05
2.04841e-05
1.89977e-05
1.77015e-05
1.654e-05
1.5519e-05
1.47008e-05
1.42021e-05
1.41277e-05
1.43846e-05
1.50299e-05
1.71083e-05
2.15541e-05
3.13738e-05
5.03301e-05
6.69134e-05
7.11728e-05
6.47562e-05
5.3395e-05
4.18034e-05
3.39212e-05
3.39512e-05
4.4067e-05
5.81069e-05
6.54598e-05
6.07757e-05
4.78289e-05
3.45066e-05
2.54748e-05
2.01647e-05
1.64751e-05
1.34329e-05
1.08263e-05
8.60086e-06
6.71956e-06
5.15218e-06
3.86892e-06
2.83713e-06
2.02373e-06
1.39767e-06
9.35725e-07
6.2857e-07
4.88987e-07
4.9466e-07
5.52177e-07
6.15727e-07
6.14962e-07
6.67129e-07
5.62138e-07
1.01195e-05
1.01253e-05
9.87149e-06
9.1058e-06
7.60743e-06
5.26087e-06
2.05946e-06
2.66034e-06
7.81141e-06
1.35294e-05
1.87411e-05
2.22797e-05
2.36695e-05
2.36088e-05
2.3947e-05
2.70747e-05
3.34435e-05
3.99308e-05
4.29436e-05
4.18589e-05
3.87679e-05
3.58526e-05
3.36833e-05
3.1903e-05
3.03116e-05
2.89972e-05
2.80742e-05
2.75889e-05
2.76184e-05
2.80457e-05
2.89078e-05
3.04103e-05
3.27934e-05
3.81213e-05
4.60241e-05
5.10588e-05
5.03257e-05
4.53658e-05
3.90886e-05
3.37887e-05
3.1278e-05
3.33788e-05
4.06199e-05
5.00433e-05
5.62209e-05
5.52978e-05
4.80586e-05
3.88929e-05
3.16248e-05
2.69961e-05
2.4035e-05
2.19093e-05
2.02321e-05
1.88356e-05
1.76176e-05
1.65207e-05
1.55567e-05
1.47883e-05
1.43111e-05
1.42354e-05
1.45126e-05
1.50799e-05
1.67194e-05
2.05784e-05
2.8399e-05
4.57607e-05
6.52133e-05
7.42043e-05
7.13726e-05
6.20285e-05
5.17095e-05
4.49371e-05
4.54168e-05
5.42915e-05
6.5201e-05
6.81092e-05
5.9525e-05
4.49803e-05
3.23375e-05
2.46606e-05
2.01286e-05
1.67114e-05
1.37633e-05
1.11793e-05
8.92903e-06
6.99629e-06
5.37026e-06
4.03269e-06
2.95502e-06
2.1038e-06
1.44635e-06
9.57606e-07
6.28901e-07
4.80734e-07
4.95537e-07
5.6727e-07
6.42686e-07
6.5046e-07
7.09898e-07
6.0742e-07
6.02942e-06
5.9486e-06
5.65584e-06
5.00226e-06
3.86093e-06
2.20718e-06
1.0017e-06
3.34057e-06
6.79979e-06
1.11381e-05
1.62557e-05
2.15704e-05
2.62786e-05
2.99669e-05
3.30589e-05
3.57798e-05
3.76524e-05
3.79767e-05
3.67634e-05
3.49006e-05
3.32221e-05
3.18455e-05
3.05229e-05
2.91675e-05
2.78985e-05
2.68659e-05
2.61568e-05
2.57925e-05
2.58426e-05
2.63112e-05
2.70828e-05
2.8249e-05
2.98413e-05
3.28774e-05
3.92641e-05
4.7169e-05
5.23447e-05
5.32782e-05
5.14004e-05
4.90805e-05
4.84998e-05
5.07472e-05
5.50365e-05
5.83467e-05
5.73142e-05
5.11294e-05
4.23585e-05
3.45517e-05
2.9245e-05
2.58401e-05
2.34109e-05
2.15007e-05
1.99469e-05
1.86487e-05
1.75084e-05
1.64748e-05
1.55683e-05
1.48498e-05
1.43936e-05
1.43021e-05
1.45813e-05
1.51114e-05
1.6376e-05
1.96082e-05
2.57982e-05
4.03666e-05
6.12533e-05
7.52016e-05
7.71644e-05
7.10131e-05
6.26578e-05
5.70993e-05
5.77625e-05
6.47979e-05
7.14794e-05
6.90902e-05
5.66702e-05
4.13259e-05
3.01202e-05
2.39746e-05
2.01426e-05
1.69747e-05
1.41274e-05
1.15653e-05
9.2836e-06
7.29301e-06
5.60372e-06
4.20836e-06
3.08136e-06
2.18856e-06
1.49573e-06
9.7687e-07
6.24803e-07
4.6974e-07
4.98262e-07
5.86661e-07
6.74798e-07
6.91221e-07
7.58124e-07
6.57768e-07
4.21109e-06
4.07837e-06
3.76302e-06
3.16848e-06
2.22269e-06
1.07931e-06
1.62597e-06
3.79892e-06
6.48333e-06
9.55867e-06
1.30391e-05
1.6902e-05
2.08763e-05
2.45255e-05
2.74282e-05
2.94365e-05
3.04608e-05
3.06907e-05
3.04763e-05
3.00551e-05
2.94522e-05
2.86278e-05
2.76268e-05
2.6574e-05
2.56011e-05
2.4809e-05
2.42666e-05
2.40042e-05
2.40696e-05
2.45225e-05
2.52824e-05
2.63177e-05
2.75791e-05
2.92719e-05
3.28433e-05
3.93762e-05
4.68686e-05
5.25047e-05
5.54641e-05
5.67341e-05
5.77154e-05
5.88759e-05
5.93047e-05
5.72391e-05
5.17325e-05
4.39701e-05
3.6512e-05
3.10606e-05
2.74686e-05
2.48777e-05
2.27827e-05
2.10504e-05
1.96318e-05
1.84371e-05
1.73741e-05
1.64062e-05
1.55588e-05
1.48879e-05
1.445e-05
1.43308e-05
1.45856e-05
1.50988e-05
1.60904e-05
1.86619e-05
2.36296e-05
3.48193e-05
5.50308e-05
7.32039e-05
8.07664e-05
7.90197e-05
7.3465e-05
6.93309e-05
6.98236e-05
7.41808e-05
7.55971e-05
6.75415e-05
5.20151e-05
3.71106e-05
2.80705e-05
2.34441e-05
2.02065e-05
1.72765e-05
1.45336e-05
1.19879e-05
9.6667e-06
7.61245e-06
5.85621e-06
4.40015e-06
3.22088e-06
2.28381e-06
1.55289e-06
1.00085e-06
6.21185e-07
4.55514e-07
4.98937e-07
6.06165e-07
7.08812e-07
7.35112e-07
8.10542e-07
7.12694e-07
3.30115e-06
3.12164e-06
2.77619e-06
2.19499e-06
1.32472e-06
4.64363e-07
1.71978e-06
3.6802e-06
5.98604e-06
8.55547e-06
1.13088e-05
1.41717e-05
1.70568e-05
1.97906e-05
2.21362e-05
2.39713e-05
2.53005e-05
2.6162e-05
2.65757e-05
2.65779e-05
2.62418e-05
2.56619e-05
2.49362e-05
2.41606e-05
2.34277e-05
2.2822e-05
2.24113e-05
2.22345e-05
2.23272e-05
2.27428e-05
2.34688e-05
2.44464e-05
2.56309e-05
2.68882e-05
2.86582e-05
3.22078e-05
3.79431e-05
4.43546e-05
4.96491e-05
5.31955e-05
5.50812e-05
5.52769e-05
5.334e-05
4.90023e-05
4.2946e-05
3.68022e-05
3.19715e-05
2.86142e-05
2.61023e-05
2.3965e-05
2.21086e-05
2.05623e-05
1.92909e-05
1.82014e-05
1.72181e-05
1.63201e-05
1.55326e-05
1.49038e-05
1.44788e-05
1.43237e-05
1.45256e-05
1.5019e-05
1.58412e-05
1.78017e-05
2.18013e-05
2.98684e-05
4.71699e-05
6.76425e-05
8.06955e-05
8.42311e-05
8.22938e-05
7.98421e-05
7.97758e-05
8.05911e-05
7.60888e-05
6.28288e-05
4.57367e-05
3.27956e-05
2.63659e-05
2.30619e-05
2.03259e-05
1.76308e-05
1.49894e-05
1.24502e-05
1.00811e-05
7.95766e-06
6.13041e-06
4.60932e-06
3.37309e-06
2.38665e-06
1.61279e-06
1.02323e-06
6.12217e-07
4.36052e-07
5.00468e-07
6.29819e-07
7.48318e-07
7.84851e-07
8.69206e-07
7.73444e-07
2.59876e-06
2.39388e-06
2.04049e-06
1.48552e-06
6.78764e-07
4.3184e-07
1.82595e-06
3.5167e-06
5.47237e-06
7.64669e-06
9.97218e-06
1.23624e-05
1.47241e-05
1.69598e-05
1.897e-05
2.06638e-05
2.19683e-05
2.28528e-05
2.33397e-05
2.34816e-05
2.33407e-05
2.29837e-05
2.24828e-05
2.1917e-05
2.1368e-05
2.09119e-05
2.06106e-05
2.05035e-05
2.06238e-05
2.10103e-05
2.16763e-05
2.25873e-05
2.37238e-05
2.49653e-05
2.62021e-05
2.78818e-05
3.07886e-05
3.49574e-05
3.93675e-05
4.28705e-05
4.47707e-05
4.47247e-05
4.26836e-05
3.91514e-05
3.51515e-05
3.16756e-05
2.90196e-05
2.68587e-05
2.48671e-05
2.30102e-05
2.13909e-05
2.0049e-05
1.89281e-05
1.79449e-05
1.70464e-05
1.6222e-05
1.54924e-05
1.48974e-05
1.44773e-05
1.42819e-05
1.44073e-05
1.48573e-05
1.55837e-05
1.70746e-05
2.02173e-05
2.5971e-05
3.89232e-05
5.87965e-05
7.58741e-05
8.47241e-05
8.68814e-05
8.63096e-05
8.53458e-05
8.20197e-05
7.17719e-05
5.49169e-05
3.85317e-05
2.89434e-05
2.50725e-05
2.28094e-05
2.05162e-05
1.80521e-05
1.55012e-05
1.29565e-05
1.05312e-05
8.33345e-06
6.43057e-06
4.83942e-06
3.54127e-06
2.50079e-06
1.67998e-06
1.04909e-06
6.01896e-07
4.11638e-07
5.01255e-07
6.55556e-07
7.91614e-07
8.39337e-07
9.33528e-07
8.39836e-07
2.05224e-06
1.83817e-06
1.49591e-06
9.90628e-07
3.30872e-07
7.43316e-07
1.92034e-06
3.35074e-06
5.00052e-06
6.83172e-06
8.792e-06
1.08144e-05
1.28223e-05
1.4736e-05
1.64711e-05
1.7951e-05
1.91269e-05
1.99848e-05
2.05272e-05
2.07743e-05
2.07694e-05
2.0569e-05
2.02342e-05
1.98307e-05
1.94274e-05
1.90905e-05
1.88761e-05
1.88226e-05
1.8963e-05