/*--------------------------------*- C++ -*----------------------------------*\
| =========                 |                                                 |
| \\      /  F ield         | OpenFOAM: The Open Source CFD Toolbox           |
|  \\    /   O peration     | Version:  2.1.1                                 |
|   \\  /    A nd           | Web:      www.OpenFOAM.org                      |
|    \\/     M anipulation  |                                                 |
\*---------------------------------------------------------------------------*/
FoamFile
{
    version     2.0;
    format      ascii;
    class       volScalarField;
    location    "0.115";
    object      p;
}
// * * * * * * * * * * * * * * * * * * * * * * * * * * * * * * * * * * * * * //

dimensions      [0 2 -2 0 0 0 0];

internalField   nonuniform List<scalar> 
6820
(
9.00947
-8.82695
-11.8374
-12.0272
-12.203
-12.133
-12.08
-12.0963
-12.1476
-12.2186
-12.301
-12.3894
-12.4816
-12.5766
-12.6737
-12.7729
-12.8741
-12.9773
-13.0828
-13.1908
-13.3016
-13.4155
-13.5335
-13.6557
-13.783
-13.9168
-14.0578
-14.2071
-14.3675
-14.5376
-14.7305
-14.9174
-15.1945
2.32862
-8.64541
-11.5258
-11.8287
-12.0844
-12.1105
-12.094
-12.1215
-12.1746
-12.2427
-12.321
-12.4058
-12.495
-12.5875
-12.6828
-12.7806
-12.8807
-12.9832
-13.0881
-13.1956
-13.3061
-13.4198
-13.537
-13.6587
-13.7852
-13.9189
-14.0591
-14.2074
-14.3661
-14.5351
-14.7231
-14.9143
-15.1722
-0.385515
-7.21448
-10.5047
-11.2655
-11.737
-11.9379
-12.0002
-12.0605
-12.1328
-12.2132
-12.3002
-12.3915
-12.4856
-12.5817
-12.6794
-12.7787
-12.8798
-12.9826
-13.0875
-13.1947
-13.3045
-13.4173
-13.5336
-13.654
-13.7797
-13.9096
-14.0469
-14.1916
-14.3448
-14.506
-14.6785
-14.8462
-15.0123
-2.3704
-6.9867
-10.0824
-10.9445
-11.4198
-11.6998
-11.8322
-11.9366
-12.04
-12.1408
-12.2407
-12.3407
-12.4411
-12.5421
-12.6437
-12.7463
-12.8499
-12.9547
-13.061
-13.1691
-13.2792
-13.3918
-13.5071
-13.6259
-13.7485
-13.8751
-14.0067
-14.1433
-14.2852
-14.4314
-14.58
-14.7178
-14.832
-4.00535
-7.08659
-9.69004
-10.5964
-11.1074
-11.4666
-11.6691
-11.813
-11.9409
-12.0583
-12.1698
-12.2785
-12.3855
-12.4912
-12.5966
-12.7019
-12.8075
-12.9136
-13.0205
-13.1285
-13.2379
-13.3489
-13.4619
-13.5772
-13.695
-13.8153
-13.9383
-14.0634
-14.1897
-14.3147
-14.4343
-14.5383
-14.611
-5.22732
-7.26685
-9.43849
-10.3855
-10.9156
-11.3018
-11.5392
-11.7058
-11.8497
-11.9798
-12.1006
-12.2163
-12.3288
-12.439
-12.5476
-12.6553
-12.7624
-12.8694
-12.9764
-13.0839
-13.1921
-13.3011
-13.4111
-13.5222
-13.6345
-13.7477
-13.8613
-13.9751
-14.0869
-14.193
-14.2888
-14.3661
-14.4131
-6.17721
-7.55245
-9.3203
-10.23
-10.7476
-11.1421
-11.4095
-11.6015
-11.7633
-11.9067
-12.0371
-12.1597
-12.2773
-12.3913
-12.5027
-12.6123
-12.7208
-12.8285
-12.9357
-13.0426
-13.1496
-13.2566
-13.3638
-13.4711
-13.5783
-13.685
-13.7906
-13.8938
-13.9921
-14.0821
-14.1591
-14.2166
-14.2448
-6.92222
-7.85763
-9.2681
-10.1131
-10.6191
-11.0151
-11.3012
-11.5104
-11.684
-11.8367
-11.9745
-12.1028
-12.2248
-12.3423
-12.4564
-12.5681
-12.6779
-12.7863
-12.8936
-12.9999
-13.1056
-13.2106
-13.3149
-13.4183
-13.5206
-13.621
-13.7186
-13.8119
-13.8987
-13.9756
-14.0384
-14.0816
-14.0978
-7.5133
-8.1601
-9.27705
-10.0418
-10.5253
-10.9095
-11.2019
-11.4224
-11.6059
-11.7672
-11.9123
-12.0463
-12.1728
-12.2938
-12.4106
-12.5241
-12.6351
-12.744
-12.8512
-12.9569
-13.0612
-13.1642
-13.2657
-13.3654
-13.4629
-13.5575
-13.6481
-13.7331
-13.8105
-13.8771
-13.9292
-13.9627
-13.9718
-7.98829
-8.44422
-9.32369
-9.99967
-10.4541
-10.8224
-11.1155
-11.3438
-11.5346
-11.7023
-11.8529
-11.9914
-12.1216
-12.2454
-12.3644
-12.4795
-12.5914
-12.7008
-12.8078
-12.9127
-13.0157
-13.1165
-13.2152
-13.3114
-13.4045
-13.4938
-13.5781
-13.6561
-13.7256
-13.7841
-13.8287
-13.8561
-13.8621
-8.37409
-8.70229
-9.39418
-9.98298
-10.4049
-10.7537
-11.0413
-11.2723
-11.4673
-11.6393
-11.7944
-11.9369
-12.0703
-12.1968
-12.3179
-12.4345
-12.5474
-12.6571
-12.764
-12.8681
-12.9697
-13.0686
-13.1646
-13.2575
-13.3466
-13.4312
-13.5102
-13.5823
-13.6457
-13.6985
-13.7381
-13.7624
-13.7684
-8.69033
-8.93195
-9.47765
-9.98482
-10.3717
-10.699
-10.9773
-11.2077
-11.4049
-11.58
-11.7384
-11.884
-12.0202
-12.1489
-12.2717
-12.3895
-12.5031
-12.613
-12.7195
-12.8229
-12.923
-13.02
-13.1136
-13.2034
-13.2889
-13.3694
-13.4439
-13.5113
-13.5701
-13.6188
-13.6556
-13.679
-13.687
-8.95134
-9.13325
-9.56597
-9.99987
-10.3515
-10.6565
-10.9232
-11.1502
-11.3474
-11.5238
-11.6843
-11.8323
-11.9705
-12.1011
-12.2254
-12.3443
-12.4585
-12.5685
-12.6747
-12.7773
-12.8762
-12.9714
-13.0627
-13.1498
-13.2321
-13.3092
-13.3801
-13.4438
-13.4994
-13.5456
-13.5812
-13.6052
-13.6167
-9.16766
-9.30765
-9.6535
-10.0235
-10.3408
-10.6236
-10.877
-11.0985
-11.2941
-11.4707
-11.6324
-11.782
-11.922
-12.0541
-12.1795
-12.2993
-12.414
-12.5241
-12.6299
-12.7316
-12.8293
-12.9228
-13.012
-13.0967
-13.1764
-13.2505
-13.3185
-13.3795
-13.4329
-13.4777
-13.5132
-13.539
-13.5547
-9.34713
-9.45713
-9.7363
-10.0518
-10.3369
-10.5982
-10.8378
-11.0523
-11.245
-11.4208
-11.5828
-11.7333
-11.8744
-12.0076
-12.134
-12.2544
-12.3695
-12.4796
-12.585
-12.686
-12.7825
-12.8745
-12.962
-13.0446
-13.122
-13.1938
-13.2595
-13.3186
-13.3706
-13.415
-13.4513
-13.4795
-13.4996
-9.49561
-9.58376
-9.81176
-10.0816
-10.3371
-10.5781
-10.8039
-11.0107
-11.1995
-11.3735
-11.5352
-11.6861
-11.828
-11.962
-12.0891
-12.2101
-12.3253
-12.4354
-12.5404
-12.6407
-12.7361
-12.8268
-12.9127
-12.9935
-13.069
-13.1389
-13.203
-13.2608
-13.312
-13.3565
-13.3941
-13.4249
-13.4494
-9.6175
-9.68948
-9.87815
-10.1101
-10.3394
-10.5615
-10.7741
-10.9727
-11.157
-11.3288
-11.4896
-11.6405
-11.7828
-11.9174
-12.045
-12.1663
-12.2818
-12.3917
-12.4964
-12.596
-12.6905
-12.78
-12.8645
-12.9438
-13.0178
-13.0863
-13.1491
-13.206
-13.257
-13.302
-13.341
-13.3746
-13.403
-9.71612
-9.77598
-9.93438
-10.1354
-10.3416
-10.5467
-10.7469
-10.9376
-11.1171
-11.2863
-11.4458
-11.5964
-11.7388
-11.8737
-12.0017
-12.1233
-12.2389
-12.3487
-12.453
-12.552
-12.6457
-12.7342
-12.8175
-12.8955
-12.9682
-13.0355
-13.0974
-13.1538
-13.2048
-13.2504
-13.291
-13.3269
-13.3588
-9.79392
-9.84463
-9.97972
-10.1557
-10.3422
-10.5322
-10.7212
-10.9042
-11.0791
-11.2455
-11.4037
-11.5537
-11.6961
-11.8313
-11.9596
-12.0814
-12.1971
-12.3068
-12.4108
-12.5093
-12.6023
-12.6899
-12.7721
-12.8491
-12.9208
-12.9873
-13.0485
-13.1045
-13.1556
-13.202
-13.2439
-13.2819
-13.3166
-9.85272
-9.89649
-10.0137
-10.1696
-10.3396
-10.5166
-10.6957
-10.8718
-11.0423
-11.2061
-11.3629
-11.5124
-11.6547
-11.79
-11.9186
-12.0406
-12.1563
-12.266
-12.3697
-12.4676
-12.56
-12.6468
-12.7282
-12.8042
-12.875
-12.9407
-13.0013
-13.0571
-13.1083
-13.1552
-13.1982
-13.2378
-13.2746
-9.8938
-9.93231
-10.0358
-10.1761
-10.3325
-10.4986
-10.6693
-10.8395
-11.0061
-11.1677
-11.3232
-11.4723
-11.6146
-11.7502
-11.8791
-12.0014
-12.1173
-12.2269
-12.3305
-12.4281
-12.5199
-12.6061
-12.6867
-12.762
-12.8321
-12.8971
-12.9573
-13.0129
-13.0641
-13.1114
-13.1551
-13.1958
-13.234
-9.91795
-9.95254
-10.0458
-10.174
-10.3197
-10.4771
-10.641
-10.8064
-10.9699
-11.1296
-11.2843
-11.4332
-11.5756
-11.7115
-11.8408
-11.9634
-12.0795
-12.1891
-12.2925
-12.3897
-12.481
-12.5666
-12.6465
-12.7211
-12.7904
-12.8548
-12.9144
-12.9696
-13.0207
-13.068
-13.1121
-13.1533
-13.1922
-9.92557
-9.95732
-10.0432
-10.1624
-10.3001
-10.4509
-10.6099
-10.7718
-10.9332
-11.0919
-11.2464
-11.3954
-11.5385
-11.675
-11.8049
-11.9281
-12.0446
-12.1544
-12.2578
-12.3549
-12.4458
-12.5309
-12.6102
-12.6841
-12.7528
-12.8165
-12.8756
-12.9304
-12.9811
-13.0283
-13.0723
-13.1135
-13.1525
-9.91669
-9.9465
-10.0273
-10.1404
-10.2726
-10.4191
-10.5748
-10.7346
-10.895
-11.0535
-11.2083
-11.358
-11.5018
-11.6392
-11.7699
-11.8937
-12.0106
-12.1206
-12.224
-12.3209
-12.4114
-12.4959
-12.5746
-12.6478
-12.7157
-12.7786
-12.8369
-12.891
-12.9411
-12.9877
-13.0312
-13.072
-13.1105
-9.89092
-9.9196
-9.99744
-10.1071
-10.2364
-10.3808
-10.5353
-10.6949
-10.8558
-11.0153
-11.1715
-11.3228
-11.4682
-11.6071
-11.7391
-11.864
-11.9816
-12.0922
-12.1959
-12.2927
-12.3831
-12.4671
-12.5453
-12.6177
-12.6849
-12.747
-12.8045
-12.8577
-12.907
-12.9527
-12.9953
-13.0351
-13.0725
-9.84748
-9.87576
-9.95262
-10.0613
-10.19
-10.3345
-10.4898
-10.6507
-10.8133
-10.9748
-11.1331
-11.2865
-11.4338
-11.5745
-11.7079
-11.8339
-11.9524
-12.0635
-12.1673
-12.2641
-12.3541
-12.4377
-12.5151
-12.5867
-12.6528
-12.7139
-12.7703
-12.8223
-12.8704
-12.9149
-12.9562
-12.9947
-13.0307
-9.78512
-9.81377
-9.89166
-10.002
-10.133
-10.2805
-10.4392
-10.604
-10.7706
-10.9362
-11.0983
-11.2552
-11.4058
-11.5491
-11.6848
-11.8126
-11.9325
-12.0445
-12.1488
-12.2457
-12.3355
-12.4186
-12.4953
-12.5661
-12.6312
-12.6911
-12.7462
-12.7969
-12.8435
-12.8864
-12.9261
-12.9627
-12.9967
-9.70204
-9.73178
-9.81267
-9.92707
-10.0628
-10.2153
-10.3794
-10.5494
-10.7212
-10.8917
-11.0583
-11.2193
-11.3735
-11.5199
-11.6581
-11.7878
-11.9091
-12.022
-12.1268
-12.2238
-12.3133
-12.3958
-12.4717
-12.5413
-12.6052
-12.6636
-12.7172
-12.7661
-12.811
-12.852
-12.8897
-12.9243
-12.9562
-9.59582
-9.62768
-9.71429
-9.83652
-9.98109
-10.1431
-10.3168
-10.4961
-10.6767
-10.8551
-11.0288
-11.1959
-11.3552
-11.5058
-11.6474
-11.7797
-11.9028
-12.017
-12.1224
-12.2195
-12.3088
-12.3906
-12.4655
-12.5339
-12.5962
-12.653
-12.7047
-12.7517
-12.7943
-12.8331
-12.8683
-12.9003
-12.9293
-9.46295
-9.49766
-9.59206
-9.72432
-9.87944
-10.0522
-10.2366
-10.4264
-10.6166
-10.8039
-10.9856
-11.1597
-11.325
-11.4806
-11.6261
-11.7616
-11.8869
-12.0025
-12.1088
-12.2061
-12.2951
-12.3761
-12.4499
-12.5168
-12.5774
-12.6323
-12.6818
-12.7265
-12.7668
-12.803
-12.8357
-12.865
-12.8914
-9.29935
-9.33933
-9.44736
-9.59747
-9.77158
-9.96339
-10.166
-10.3722
-10.577
-10.7768
-10.969
-11.1519
-11.3242
-11.4855
-11.6354
-11.7739
-11.9015
-12.0184
-12.1252
-12.2224
-12.3107
-12.3907
-12.4628
-12.5279
-12.5864
-12.6388
-12.6857
-12.7276
-12.7648
-12.7979
-12.8272
-12.853
-12.8756
-9.09762
-9.14231
-9.26424
-9.43146
-9.62313
-9.83331
-10.0546
-10.2789
-10.5005
-10.7155
-10.9211
-11.1155
-11.2974
-11.4664
-11.6223
-11.7653
-11.896
-12.015
-12.1227
-12.2201
-12.3078
-12.3866
-12.4572
-12.5202
-12.5764
-12.6262
-12.6703
-12.7092
-12.7434
-12.7733
-12.7994
-12.8222
-12.8418
-8.85266
-8.91195
-9.06653
-9.27164
-9.49891
-9.74129
-9.99076
-10.2388
-10.4801
-10.7115
-10.9305
-11.1356
-11.326
-11.5016
-11.6624
-11.8089
-11.9418
-12.0618
-12.1697
-12.2664
-12.3527
-12.4295
-12.4975
-12.5576
-12.6105
-12.6567
-12.697
-12.7318
-12.7618
-12.7873
-12.8088
-12.8268
-12.8414
-8.54238
-8.60409
-8.77861
-9.01029
-9.26805
-9.5453
-9.83048
-10.1119
-10.3832
-10.6405
-10.8813
-11.1042
-11.3086
-11.4949
-11.6636
-11.8157
-11.9521
-12.074
-12.1825
-12.2788
-12.3639
-12.4388
-12.5045
-12.5617
-12.6115
-12.6543
-12.691
-12.7222
-12.7483
-12.77
-12.7877
-12.802
-12.8132
-8.17712
-8.29404
-8.55396
-8.8567
-9.16543
-9.48311
-9.80104
-10.1087
-10.4016
-10.6772
-10.9332
-11.1685
-11.383
-11.577
-11.7513
-11.907
-12.0454
-12.1676
-12.2751
-12.3693
-12.4513
-12.5223
-12.5835
-12.6359
-12.6803
-12.7175
-12.7483
-12.7733
-12.7932
-12.8084
-12.8195
-12.8271
-12.8316
-7.64444
-7.73518
-8.03267
-8.40304
-8.79247
-9.19357
-9.58586
-9.95556
-10.2991
-10.6145
-10.9008
-11.1586
-11.3893
-11.5946
-11.7764
-11.9367
-12.0774
-12.2003
-12.3073
-12.4
-12.4798
-12.5481
-12.6062
-12.6551
-12.6958
-12.7291
-12.7558
-12.7765
-12.7918
-12.8023
-12.8086
-12.8113
-12.8113
-7.14614
-7.46818
-7.93512
-8.35267
-8.76126
-9.18811
-9.60502
-9.99854
-10.3671
-10.7072
-11.0157
-11.2923
-11.5378
-11.754
-11.9426
-12.1062
-12.2471
-12.3678
-12.4704
-12.557
-12.6296
-12.6899
-12.7394
-12.7793
-12.8109
-12.835
-12.8524
-12.8638
-12.8696
-12.8703
-12.8661
-12.8579
-12.8458
-5.84114
-6.16244
-6.93454
-7.63285
-8.26768
-8.87219
-9.4144
-9.89415
-10.3219
-10.7014
-11.0362
-11.3306
-11.5885
-11.8133
-12.0081
-12.1759
-12.3194
-12.4412
-12.5437
-12.6292
-12.6997
-12.757
-12.8028
-12.8386
-12.8655
-12.8846
-12.8967
-12.9021
-12.9013
-12.8943
-12.8803
-12.8607
-12.8306
-5.82684
-6.57138
-7.17469
-7.64011
-8.23829
-8.86969
-9.45775
-10.0051
-10.5055
-10.9485
-11.3333
-11.6635
-11.9432
-12.1775
-12.3717
-12.531
-12.6602
-12.7639
-12.8458
-12.9094
-12.9577
-12.9931
-13.0177
-13.0335
-13.0418
-13.0438
-13.0405
-13.0322
-13.019
-13
-12.9724
-12.9332
-12.8687
0.426668
-4.18103
-5.96398
-6.81305
-7.81332
-8.68718
-9.38527
-9.99051
-10.5193
-10.9722
-11.3582
-11.6857
-11.961
-12.1905
-12.3802
-12.5355
-12.6613
-12.762
-12.8414
-12.9028
-12.9491
-12.9828
-13.0061
-13.0206
-13.028
-13.0295
-13.0263
-13.019
-13.0088
-12.9952
-12.9811
-12.9613
-12.9475
-15.2322
-15.3842
-15.5423
-15.117
-13.7759
-11.6311
-9.22404
-7.37043
-6.78976
-7.85838
-10.802
-15.6848
-22.189
-29.5481
-36.6205
-42.2704
-45.6938
-46.5536
-44.7999
-40.7238
-34.6299
-26.932
-18.7096
-11.4095
-5.80135
-1.84235
0.780249
2.31502
2.86394
2.45164
0.990862
-1.76911
-5.97715
-11.512
-18.0294
-25.1422
-32.5306
-39.8653
-46.651
-52.2037
-55.8338
-57.1012
-55.8552
-52.2439
-46.5465
-39.1442
-30.856
-22.9651
-16.4802
-11.5971
-7.99695
-5.31109
-3.28852
-1.77792
-0.67725
0.098005
0.623605
0.9641
1.17017
1.27649
1.30049
1.2409
1.07491
0.752243
0.0604297
-1.72667
-5.73992
-12.6944
-22.1193
-32.2785
-40.7268
-45.3192
-44.9595
-39.4281
-30.0784
-19.7547
-11.3228
-5.921
-2.95299
-1.39375
-0.549106
-0.0704313
0.207866
0.37038
0.464172
0.516191
0.54147
0.548131
0.540591
0.521518
0.492765
0.456094
0.412787
0.364946
0.312334
0.259522
0.199423
0.150021
0.0733766
0.0534378
-15.2754
-15.336
-15.3612
-14.8315
-13.4578
-11.3818
-9.15164
-7.44684
-6.85374
-7.91071
-10.839
-15.4575
-21.428
-28.1035
-34.5099
-39.6375
-42.7887
-43.6587
-42.1264
-38.2718
-32.373
-25.0879
-17.6002
-11.0627
-5.98279
-2.31256
0.16574
1.63018
2.1633
1.77314
0.403081
-2.10926
-5.93544
-11.0448
-17.1785
-23.9604
-31.0247
-38.0043
-44.4168
-49.6407
-53.0558
-54.2571
-53.0723
-49.5995
-44.1085
-37.0594
-29.3335
-22.0996
-16.1543
-11.6026
-8.17036
-5.56093
-3.56979
-2.0671
-0.959916
-0.169045
0.376665
0.737985
0.962762
1.08389
1.11797
1.06299
0.8956
0.567184
-0.0899309
-1.70743
-5.34111
-11.7222
-20.483
-30.0096
-37.9856
-42.3481
-42.0541
-36.8993
-28.2008
-18.6572
-10.8979
-5.90422
-3.10298
-1.57719
-0.715865
-0.208392
0.0981594
0.285188
0.399368
0.467959
0.50647
0.523513
0.523951
0.510865
0.486468
0.452845
0.411529
0.36492
0.312919
0.260388
0.2002
0.150746
0.073743
0.0536979
-15.0947
-15.1446
-15.0721
-14.489
-13.1814
-11.2871
-9.27281
-7.76762
-7.37244
-8.45897
-11.2096
-15.5422
-21.024
-27.0119
-32.7
-37.2873
-40.1888
-41.0076
-39.485
-35.6578
-29.9614
-23.2519
-16.5943
-10.8038
-6.21872
-2.82669
-0.495233
0.89511
1.4077
1.04682
-0.238069
-2.54286
-6.01263
-10.6706
-16.3457
-22.7166
-29.4037
-36.0058
-42.0417
-46.9376
-50.133
-51.2485
-50.098
-46.7536
-41.5055
-34.8926
-27.8087
-21.2585
-15.8405
-11.6053
-8.336
-5.80488
-3.84912
-2.35799
-1.24703
-0.442536
0.121818
0.502902
0.745656
0.881069
0.924854
0.874547
0.706613
0.372768
-0.260243
-1.72582
-4.98473
-10.7641
-18.8043
-27.6382
-35.0964
-39.2095
-38.9848
-34.2386
-26.2458
-17.535
-10.4769
-5.89681
-3.25984
-1.76552
-0.886763
-0.350091
-0.0147693
0.197418
0.332643
0.41839
0.470599
0.498356
0.506992
0.500025
0.48005
0.449512
0.410222
0.364864
0.313497
0.261254
0.200993
0.151469
0.0741347
0.0539363
-14.8992
-14.9003
-14.7251
-14.1279
-12.967
-11.366
-9.70789
-8.50422
-8.24152
-9.32663
-11.9152
-15.8779
-20.8463
-26.2264
-31.2902
-35.3731
-37.9
-38.3842
-36.6191
-32.7959
-27.499
-21.5504
-15.741
-10.633
-6.49696
-3.37103
-1.18914
0.124123
0.612983
0.2823
-0.917232
-3.04162
-6.18407
-10.39
-15.5587
-21.4432
-27.688
-33.876
-39.5228
-44.0876
-47.057
-48.0666
-46.9344
-43.7346
-38.7997
-32.7219
-26.3397
-20.4669
-15.5434
-11.6029
-8.49126
-6.04133
-4.12549
-2.64964
-1.53763
-0.721646
-0.140333
0.259242
0.519105
0.668259
0.721418
0.675916
0.508121
0.169907
-0.44576
-1.7742
-4.66717
-9.82821
-17.1044
-25.1961
-32.1001
-35.9499
-35.8023
-31.4986
-24.2607
-16.4207
-10.0742
-5.90103
-3.42151
-1.95647
-1.06044
-0.494868
-0.130612
0.107255
0.264173
0.367698
0.434122
0.472994
0.490114
0.489448
0.473996
0.44657
0.409275
0.365103
0.314294
0.262262
0.201885
0.152229
0.0745657
0.0541514
-14.6435
-14.593
-14.3726
-13.8341
-12.893
-11.6503
-10.3852
-9.49493
-9.38898
-10.401
-12.7039
-16.2232
-20.6286
-25.3804
-29.8257
-33.2861
-35.2181
-35.274
-33.3858
-29.8422
-25.1947
-20.0718
-15.0394
-10.5332
-6.80624
-3.93668
-1.90558
-0.670991
-0.20739
-0.509687
-1.62173
-3.58254
-6.4353
-10.2147
-14.8631
-20.2022
-25.9308
-31.6476
-36.8738
-41.0923
-43.8255
-44.7138
-43.6093
-40.6083
-36.0816
-30.6241
-24.9638
-19.7328
-15.2621
-11.5948
-8.63629
-6.27034
-4.39856
-2.94153
-1.8313
-1.00612
-0.409665
0.00704722
0.283097
0.44545
0.507679
0.467159
0.300506
-0.0399542
-0.642708
-1.85037
-4.39569
-8.94
-15.4267
-22.7382
-29.0556
-32.6272
-32.5634
-28.7329
-22.2888
-15.3401
-9.69969
-5.91856
-3.58765
-2.14984
-1.23689
-0.642741
-0.249341
0.0147636
0.194034
0.315941
0.397063
0.447392
0.473208
0.478952
0.468056
0.443732
0.408412
0.365403
0.31514
0.263298
0.202802
0.152986
0.0750142
0.054338
-14.4223
-14.345
-14.1173
-13.6535
-12.9127
-11.9815
-11.0844
-10.5123
-10.5654
-11.4955
-13.4514
-16.4052
-20.1066
-24.1026
-27.7854
-30.552
-31.9915
-31.8705
-30.1764
-27.1521
-23.2156
-18.8382
-14.4709
-10.4897
-7.13677
-4.51307
-2.63201
-1.47739
-1.03943
-1.31616
-2.34176
-4.1485
-6.74832
-10.1458
-14.2959
-19.0666
-24.2183
-29.3971
-34.1524
-37.9929
-40.4415
-41.2462
-40.214
-37.4946
-33.467
-28.6739
-23.7093
-19.0602
-14.9951
-11.5798
-8.77062
-6.49148
-4.66771
-3.23294
-2.12737
-1.29539
-0.685715
-0.253322
0.0379192
0.212929
0.284031
0.248719
0.0842494
-0.255991
-0.848374
-1.95444
-4.18193
-8.1308
-13.8222
-20.3274
-26.0301
-29.3107
-29.3384
-26.0071
-20.3806
-14.3217
-9.3629
-5.94999
-3.75684
-2.34447
-1.41547
-0.793377
-0.370755
-0.0798899
0.122399
0.263315
0.359649
0.421812
0.456576
0.468875
0.4626
0.441375
0.407982
0.366052
0.316248
0.264506
0.203837
0.153793
0.0755077
0.0545057
-14.2363
-14.1464
-13.9296
-13.5388
-12.9603
-12.2686
-11.6365
-11.2867
-11.4505
-12.3193
-13.9927
-16.4337
-19.4428
-22.6597
-25.6129
-27.8443
-29.0011
-28.8812
-27.4599
-24.9167
-21.5732
-17.8094
-14.0054
-10.4879
-7.47961
-5.09106
-3.35804
-2.28443
-1.87268
-2.12577
-3.06834
-4.72693
-7.09962
-10.1638
-13.8651
-18.0914
-22.6496
-27.245
-31.4811
-34.9105
-37.1
-37.8142
-36.9132
-34.5475
-31.0639
-26.9189
-22.5833
-18.444
-14.7388
-11.5575
-8.89464
-6.70483
-4.93257
-3.52333
-2.4253
-1.58901
-0.968128
-0.521568
-0.216175
-0.0290576
0.0508
0.020993
-0.140109
-0.47748
-1.05956
-2.08248
-4.02986
-7.42377
-12.3381
-18.0294
-23.0999
-26.0808
-26.2068
-23.3907
-18.5849
-13.389
-9.06983
-5.99483
-3.92798
-2.53987
-1.59605
-0.946724
-0.494777
-0.17659
0.0494079
0.209969
0.322013
0.39635
0.440256
0.459186
0.45752
0.439339
0.407802
0.366881
0.31748
0.265784
0.204916
0.154604
0.0760152
0.0546413
-14.0804
-13.9912
-13.7986
-13.479
-13.0352
-12.5305
-12.0986
-11.9123
-12.1493
-12.9519
-14.3875
-16.4157
-18.8701
-21.4676
-23.8578
-25.6668
-26.5814
-26.4353
-25.2128
-23.0462
-20.1844
-16.937
-13.622
-10.5187
-7.82767
-5.66258
-4.07439
-3.08214
-2.69743
-2.92807
-3.79201
-5.30879
-7.47106
-10.2422
-13.5535
-17.2948
-21.2975
-25.3168
-29.0213
-32.0281
-33.9661
-34.6215
-33.8896
-31.8991
-28.9379
-25.3718
-21.5765
-17.8755
-14.4904
-11.5279
-9.00896
-6.91046
-5.19277
-3.81214
-2.72454
-1.88646
-1.25641
-0.797249
-0.478774
-0.280093
-0.191476
-0.215353
-0.371846
-0.703696
-1.27354
-2.22867
-3.93759
-6.8336
-11.0162
-15.9112
-20.3474
-23.0256
-23.254
-20.9543
-16.9461
-12.5602
-8.82327
-6.05168
-4.09991
-2.73553
-1.77843
-1.10266
-0.621276
-0.275174
-0.0247412
0.156128
0.284399
0.371264
0.424519
0.45017
0.453121
0.437929
0.408156
0.36813
0.319021
0.267264
0.206129
0.155471
0.0765683
0.0547573
-13.9511
-13.8696
-13.7066
-13.4529
-13.1206
-12.7643
-12.4876
-12.4233
-12.7061
-13.4416
-14.6757
-16.369
-18.3842
-20.4945
-22.4128
-23.8443
-24.5454
-24.3778
-23.3172
-21.4594
-19.0014
-16.1962
-13.3083
-10.5746
-8.17474
-6.22091
-4.77338
-3.86194
-3.50514
-3.71451
-4.5039
-5.88633
-7.851
-10.3575
-13.3299
-16.6554
-20.1765
-23.681
-26.8949
-29.5066
-31.2138
-31.827
-31.2589
-29.6068
-27.0948
-24.0126
-20.669
-17.3449
-14.248
-11.4921
-9.11449
-7.10862
-5.44807
-4.09897
-3.02459
-2.18722
-1.55009
-1.07991
-0.749432
-0.539721
-0.442254
-0.459601
-0.61016
-0.933854
-1.48838
-2.38673
-3.89882
-6.36551
-9.88733
-14.0325
-17.8524
-20.2329
-20.5624
-18.7604
-15.4979
-11.8447
-8.62213
-6.11847
-4.27182
-2.93141
-1.96271
-1.26123
-0.750192
-0.3755
-0.0998519
0.102016
0.247031
0.346751
0.409511
0.441908
0.44941
0.437094
0.408956
0.369697
0.320775
0.268867
0.207412
0.156351
0.0771356
0.0548381
-13.8429
-13.7742
-13.6433
-13.4497
-13.21
-12.9706
-12.8119
-12.8354
-13.1425
-13.8105
-14.869
-16.2803
-17.9308
-19.6359
-21.1709
-22.3022
-22.8325
-22.6427
-21.7093
-20.1069
-17.9914
-15.5672
-13.0527
-10.649
-8.51568
-6.76042
-5.44825
-4.6162
-4.28781
-4.47746
-5.19609
-6.45205
-8.23128
-10.4937
-13.1642
-16.1317
-19.2472
-22.3204
-25.1197
-27.3929
-28.8967
-29.4666
-29.0266
-27.645
-25.493
-22.8043
-19.8395
-16.845
-14.0112
-11.4513
-9.21219
-7.29958
-5.69834
-4.38344
-3.32498
-2.49076
-1.84862
-1.36902
-1.02761
-0.807366
-0.70086
-0.710868
-0.854079
-1.16703
-1.70266
-2.55058
-3.9032
-6.01327
-8.96462
-12.4349
-15.6799
-17.7772
-18.1995
-16.8541
-14.258
-11.2423
-8.46211
-6.19299
-4.44339
-3.12774
-2.14912
-1.4225
-0.881471
-0.477409
-0.175688
0.0479151
0.210208
0.323107
0.395521
0.434677
0.446658
0.437091
0.410433
0.37178
0.322898
0.270703
0.208841
0.15729
0.0777451
0.0548927
-13.7538
-13.7004
-13.601
-13.4601
-13.2958
-13.1469
-13.0763
-13.161
-13.4763
-14.0779
-14.9831
-16.157
-17.5055
-18.8819
-20.1032
-20.9861
-21.3714
-21.1624
-20.3378
-18.9528
-17.1297
-15.0337
-12.8457
-10.7364
-8.84621
-7.27645
-6.09347
-5.33861
-5.03876
-5.21039
-5.86218
-6.99933
-8.60537
-10.6409
-13.0359
-15.6861
-18.4534
-21.1664
-23.6247
-25.6177
-26.945
-27.4655
-27.115
-25.9399
-24.0743
-21.7113
-19.0725
-16.3723
-13.7812
-11.4073
-9.30306
-7.48374
-5.94356
-4.66527
-3.62528
-2.7966
-2.15149
-1.66404
-1.31272
-1.08238
-0.966571
-0.968236
-1.10252
-1.40218
-1.91529
-2.71513
-3.93803
-5.76049
-8.24022
-11.1323
-13.8667
-15.7046
-16.2044
-15.2538
-13.2247
-10.7436
-8.33678
-6.27337
-4.61492
-3.32523
-2.33813
-1.58669
-1.01512
-0.580757
-0.252
-0.0058691
0.174247
0.300626
0.38279
0.428654
0.444972
0.437962
0.412583
0.37434
0.325337
0.27272
0.210369
0.158249
0.0783709
0.0549068
-13.6791
-13.6419
-13.5721
-13.4765
-13.373
-13.2939
-13.2879
-13.4128
-13.7244
-14.2616
-15.0332
-16.0068
-17.105
-18.2092
-19.1749
-19.8554
-20.1247
-19.9029
-19.1699
-17.9678
-16.3935
-14.5808
-12.6789
-10.8319
-9.1629
-7.76535
-6.70462
-6.02406
-5.75246
-5.90761
-6.49678
-7.52267
-8.96765
-10.7931
-12.9342
-15.2959
-17.7535
-20.1538
-22.322
-24.0758
-25.2483
-25.7187
-25.4323
-24.4214
-22.7939
-20.7109
-18.3601
-15.926
-13.5592
-11.3614
-9.38804
-7.66153
-6.18377
-4.94425
-3.9251
-3.10425
-2.45816
-1.9644
-1.60413
-1.36404
-1.23856
-1.23072
-1.35428
-1.63816
-2.12527
-2.87676
-3.99072
-5.58428
-7.6875
-10.1076
-12.4111
-14.021
-14.5772
-13.9471
-12.3779
-10.3325
-8.23915
-6.35867
-4.78744
-3.52493
-2.53045
-1.75416
-1.15122
-0.685404
-0.328505
-0.0589758
0.139529
0.279677
0.371653
0.424142
0.44462
0.439942
0.415602
0.377539
0.328215
0.275004
0.212051
0.159261
0.0790312
0.054881
-13.6164
-13.5953
-13.5521
-13.4946
-13.4392
-13.4126
-13.4521
-13.6014
-13.9006
-14.3763
-15.0311
-15.836
-16.7265
-17.6079
-18.3652
-18.8816
-19.0565
-18.8254
-18.1709
-17.1252
-15.7646
-14.197
-12.5455
-10.9318
-9.46307
-8.22439
-7.27836
-6.66858
-6.42455
-6.56463
-7.0955
-8.01764
-9.31331
-10.9451
-12.853
-14.9511
-17.1276
-19.2473
-21.1578
-22.7004
-23.7356
-24.1595
-23.9236
-23.0513
-21.6298
-19.7931
-17.6993
-15.5061
-13.3465
-11.3149
-9.46807
-7.83351
-6.41914
-5.22028
-4.22418
-3.41333
-2.76815
-2.26952
-1.90117
-1.65154
-1.51593
-1.4973
-1.60814
-1.87374
-2.33159
-3.0331
-4.05074
-5.46003
-7.26766
-9.31617
-11.2725
-12.6907
-13.2799
-12.8943
-11.6847
-9.99036
-8.16326
-6.44915
-4.96269
-3.72833
-2.72702
-1.92541
-1.28992
-0.791226
-0.404891
-0.111006
0.106483
0.260654
0.362451
0.42141
0.445794
0.443151
0.419553
0.381393
0.331521
0.277528
0.213858
0.160298
0.0797091
0.054804
-13.5624
-13.5563
-13.5361
-13.5098
-13.4918
-13.5038
-13.5745
-13.7359
-14.0168
-14.4346
-14.9878
-15.6502
-16.369
-17.0677
-17.6553
-18.0388
-18.1387
-17.9032
-17.3171
-16.405
-15.2275
-13.8719
-12.4395
-11.0328
-9.74471
-8.65165
-7.81234
-7.26929
-7.0518
-7.17816
-7.65489
-8.48073
-9.63838
-11.0924
-12.7872
-14.6454
-16.5673
-18.4338
-20.1129
-21.468
-22.381
-22.7613
-22.5667
-21.8134
-20.5717
-18.9521
-17.0873
-15.1122
-13.1436
-11.2689
-9.54415
-8.00029
-6.64997
-5.49336
-4.52231
-3.72349
-3.08099
-2.57881
-2.20313
-1.94406
-1.79771
-1.76693
-1.86291
-2.10764
-2.53324
-3.18265
-4.11069
-5.36596
-6.93921
-8.69851
-10.383
-11.6485
-12.2458
-12.0387
-11.107
-9.69984
-8.10541
-6.5464
-5.14305
-3.93734
-2.92918
-2.10122
-1.43149
-0.89812
-0.480817
-0.161491
0.0756008
0.244022
0.355602
0.420811
0.448787
0.447825
0.424619
0.38604
0.335349
0.280351
0.215823
0.161369
0.0804088
0.0546646
-13.515
-13.5224
-13.5216
-13.5203
-13.5307
-13.5701
-13.6603
-13.8248
-14.0837
-14.4475
-14.9123
-15.4548
-16.0314
-16.5807
-17.0306
-17.3074
-17.3484
-17.1119
-16.5856
-15.7884
-14.7685
-13.5965
-12.3558
-11.1324
-10.0064
-9.04594
-8.3051
-7.82433
-7.632
-7.74591
-8.17254
-8.90929
-9.93979
-11.2308
-12.7317
-14.3725
-16.065
-17.7047
-19.1771
-20.3657
-21.1684
-21.5078
-21.3466
-20.6954
-19.6102
-18.1818
-16.5213
-14.7437
-12.9515
-11.2246
-9.61733
-8.16264
-6.87668
-5.76366
-4.81945
-4.03448
-3.39628
-2.89172
-2.50931
-2.24075
-2.08291
-2.0385
-2.11742
-2.33862
-2.72921
-3.32446
-4.16621
-5.28616
-6.66656
-8.1959
-9.66584
-10.8022
-11.3973
-11.3215
-10.6113
-9.4486
-8.0648
-6.6532
-5.33155
-4.15442
-3.13867
-2.28261
-1.57633
-1.006
-0.555906
-0.209897
0.047434
0.230307
0.351557
0.422711
0.453872
0.454151
0.430915
0.391536
0.339717
0.283466
0.217928
0.162457
0.0811226
0.054453
-13.4718
-13.4908
-13.5059
-13.5239
-13.5551
-13.613
-13.7141
-13.8752
-14.1099
-14.4242
-14.8123
-15.2538
-15.713
-16.1405
-16.4791
-16.6708
-16.6661
-16.4321
-15.9587
-15.2607
-14.3765
-13.3634
-12.29
-11.2283
-10.2472
-9.40669
-8.75595
-8.33271
-8.1639
-8.26646
-8.64682
-9.3015
-10.2152
-11.3574
-12.6819
-14.1263
-15.6126
-17.0494
-18.3375
-19.3775
-20.0813
-20.3826
-20.2484
-19.6848
-18.736
-17.4762
-15.9983
-14.4
-12.7708
-11.1831
-9.68874
-8.32142
-7.09983
-6.03146
-5.11564
-4.34616
-3.71366
-3.20773
-2.81902
-2.54076
-2.37052
-2.31091
-2.37051
-2.56552
-2.91851
-3.45787
-4.21524
-5.21126
-6.42503
-7.76284
-9.05596
-10.0825
-10.669
-10.6971
-10.175
-9.2308
-8.04313
-6.77325
-5.53188
-4.38268
-3.35777
-2.47095
-1.72499
-1.11482
-0.629722
-0.255637
0.0226241
0.220116
0.350844
0.427538
0.461385
0.462384
0.438623
0.398002
0.344696
0.286903
0.220177
0.163545
0.0818396
0.0541454
-13.4316
-13.4602
-13.4878
-13.5203
-13.566
-13.6355
-13.7409
-13.894
-14.1038
-14.3728
-14.6946
-15.0513
-15.4136
-15.7419
-15.991
-16.1153
-16.0759
-15.8471
-15.4206
-14.8084
-14.0414
-13.1658
-12.2382
-11.3189
-10.4666
-9.73387
-9.16489
-8.79424
-8.64706
-8.73919
-9.07684
-9.65625
-10.4632
-11.4698
-12.6344
-13.9017
-15.2028
-16.4583
-17.5823
-18.4899
-19.1052
-19.3715
-19.2591
-18.7708
-17.9411
-16.8306
-15.5162
-14.0809
-12.6024
-11.1456
-9.75955
-8.47759
-7.32014
-6.29723
-5.41109
-4.6585
-4.0329
-3.52639
-3.13162
-2.84327
-2.65957
-2.58303
-2.62105
-2.78726
-3.10021
-3.58237
-4.25705
-5.13714
-6.20145
-7.37228
-8.51267
-9.44449
-10.0227
-10.1414
-9.78825
-9.04554
-8.04347
-6.91094
-5.74855
-4.62606
-3.58939
-2.66799
-1.8782
-1.22456
-0.701778
-0.298031
0.00191227
0.214137
0.354048
0.435763
0.471679
0.472769
0.447899
0.405527
0.350323
0.290668
0.222562
0.164617
0.0825559
0.0537265
-13.3925
-13.4287
-13.4658
-13.5086
-13.5637
-13.6393
-13.7441
-13.8862
-14.0712
-14.2994
-14.564
-14.8497
-15.1323
-15.3803
-15.5579
-15.6293
-15.5643
-15.3427
-14.9582
-14.4206
-13.7547
-12.9981
-12.1973
-11.4027
-10.6644
-10.0279
-9.53245
-9.20938
-9.08175
-9.16418
-9.46246
-9.97305
-10.6826
-11.5661
-12.5863
-13.6942
-14.8295
-15.9232
-16.9013
-17.691
-18.2275
-18.4616
-18.367
-17.9438
-17.2186
-16.2404
-15.073
-13.786
-12.4469
-11.1134
-9.83098
-8.63224
-7.53847
-6.56156
-5.70616
-4.97162
-4.35389
-3.84736
-3.44655
-3.1475
-2.9491
-2.8538
-2.86791
-3.0028
-3.27348
-3.6974
-4.29131
-5.06246
-5.99077
-7.01289
-8.01917
-8.86943
-9.44259
-9.64452
-9.44707
-8.89348
-8.06946
-7.07147
-5.98709
-4.88943
-3.83717
-2.87594
-2.03691
-1.33518
-0.771553
-0.336274
-0.0138449
0.21316
0.361838
0.447917
0.485155
0.485593
0.458933
0.414216
0.356639
0.294755
0.225052
0.165629
0.0832466
0.0531645
-13.3543
-13.3962
-13.44
-13.4896
-13.5501
-13.6276
-13.7283
-13.8577
-14.0188
-14.2103
-14.4258
-14.6521
-14.8693
-15.0524
-15.173
-15.2034
-15.12
-14.9072
-14.5604
-14.0876
-13.5089
-12.8551
-12.1644
-11.4788
-10.8407
-10.2895
-9.85968
-9.57917
-9.46889
-9.54216
-9.80428
-10.252
-10.8732
-11.6452
-12.5353
-13.5002
-14.4873
-15.4369
-16.2855
-16.9707
-17.4369
-17.6419
-17.562
-17.1953
-16.5621
-15.7018
-14.6665
-13.515
-12.3049
-11.0875
-9.90431
-8.78659
-7.75584
-6.82527
-6.00142
-5.28582
-4.67667
-4.17043
-3.76335
-3.45277
-3.23824
-3.12219
-3.11002
-3.21112
-3.43745
-3.80233
-4.31749
-4.98626
-5.79057
-6.67994
-7.56847
-8.34817
-8.9194
-9.19947
-9.1483
-8.77554
-8.12537
-7.26109
-6.25429
-5.17889
-4.10569
-3.09756
-2.20224
-1.44674
-0.838405
-0.369414
-0.0236517
0.218091
0.37497
0.464591
0.502248
0.501155
0.471914
0.424175
0.363691
0.299168
0.227631
0.166551
0.083898
0.0524248
-13.3153
-13.3612
-13.4093
-13.4627
-13.5254
-13.6018
-13.6961
-13.8118
-13.9502
-14.1093
-14.2828
-14.4595
-14.6233
-14.7542
-14.8299
-14.8289
-14.7329
-14.5301
-14.2172
-13.8008
-13.2976
-12.7325
-12.137
-11.5462
-10.9959
-10.5198
-10.1479
-9.90503
-9.80983
-9.8743
-10.1032
-10.4938
-11.0348
-11.7064
-12.4795
-13.3164
-14.1714
-14.993
-15.7268
-16.3195
-16.7235
-16.9023
-16.8348
-16.5176
-15.9659