/*--------------------------------*- C++ -*----------------------------------*\
| =========                 |                                                 |
| \\      /  F ield         | OpenFOAM: The Open Source CFD Toolbox           |
|  \\    /   O peration     | Version:  2.1.1                                 |
|   \\  /    A nd           | Web:      www.OpenFOAM.org                      |
|    \\/     M anipulation  |                                                 |
\*---------------------------------------------------------------------------*/
FoamFile
{
    version     2.0;
    format      ascii;
    class       surfaceScalarField;
    location    "0.115";
    object      phi;
}
// * * * * * * * * * * * * * * * * * * * * * * * * * * * * * * * * * * * * * //

dimensions      [0 3 -1 0 0 0 0];

internalField   nonuniform List<scalar> 
13452
(
4.59985e-05
2.24888e-05
2.96631e-05
1.63354e-05
2.11865e-05
8.47663e-06
1.72846e-05
3.90187e-06
1.56416e-05
1.64302e-06
1.48327e-05
8.08873e-07
1.43213e-05
5.11388e-07
1.39306e-05
3.9076e-07
1.36004e-05
3.3013e-07
1.33155e-05
2.84876e-07
1.30714e-05
2.44127e-07
1.28642e-05
2.07196e-07
1.26898e-05
1.74457e-07
1.25438e-05
1.45931e-07
1.24226e-05
1.21205e-07
1.2323e-05
9.96503e-08
1.22424e-05
8.06111e-08
1.21789e-05
6.34905e-08
1.21311e-05
4.77679e-08
1.20981e-05
3.29912e-08
1.20794e-05
1.87192e-08
1.20751e-05
4.26001e-09
1.20851e-05
-9.97613e-09
1.21102e-05
-2.50394e-08
1.21517e-05
-4.15352e-08
1.2211e-05
-5.92793e-08
1.22911e-05
-8.01507e-08
1.23951e-05
-1.03996e-07
1.25309e-05
-1.35739e-07
1.27003e-05
-1.69421e-07
1.29365e-05
-2.36272e-07
1.32017e-05
-2.65148e-07
-6.02106e-07
1.38038e-05
7.49127e-05
1.802e-05
7.04123e-05
2.08358e-05
6.33227e-05
1.55663e-05
5.66682e-05
1.05564e-05
5.15522e-05
6.75901e-06
4.78977e-05
4.46337e-06
4.52789e-05
3.13019e-06
4.33539e-05
2.31576e-06
4.18898e-05
1.79426e-06
4.07369e-05
1.43777e-06
3.98031e-05
1.17786e-06
3.90309e-05
9.79467e-07
3.83824e-05
8.22892e-07
3.78323e-05
6.96061e-07
3.73625e-05
5.91032e-07
3.69598e-05
5.02284e-07
3.66146e-05
4.25831e-07
3.63194e-05
3.58711e-07
3.60685e-05
2.98659e-07
3.58576e-05
2.43878e-07
3.56835e-05
1.92867e-07
3.55434e-05
1.44282e-07
3.54363e-05
9.71957e-08
3.53611e-05
5.01715e-08
3.53186e-05
9.57787e-10
3.53088e-05
-4.95045e-08
3.53342e-05
-1.05553e-07
3.53982e-05
-1.67958e-07
3.55059e-05
-2.43469e-07
3.5668e-05
-3.31515e-07
3.58937e-05
-4.62012e-07
3.62461e-05
-6.17497e-07
-9.37466e-07
3.65814e-05
7.85211e-05
1.19555e-05
8.23347e-05
1.70221e-05
8.29927e-05
1.49083e-05
8.14772e-05
1.20719e-05
7.89545e-05
9.28168e-06
7.62684e-05
7.14957e-06
7.37503e-05
5.64828e-06
7.15038e-05
4.56226e-06
6.95423e-05
3.75569e-06
6.78417e-05
3.13837e-06
6.6369e-05
2.65065e-06
6.50923e-05
2.25615e-06
6.39836e-05
1.93158e-06
6.30189e-05
1.66074e-06
6.21781e-05
1.4318e-06
6.14445e-05
1.23588e-06
6.08042e-05
1.06616e-06
6.02457e-05
9.17265e-07
5.97594e-05
7.84904e-07
5.93377e-05
6.65562e-07
5.89743e-05
5.56282e-07
5.86641e-05
4.54461e-07
5.84034e-05
3.57885e-07
5.81894e-05
2.64203e-07
5.80195e-05
1.7087e-07
5.78938e-05
7.61611e-08
5.78126e-05
-2.43203e-08
5.77784e-05
-1.33788e-07
5.77936e-05
-2.58603e-07
5.78643e-05
-4.02227e-07
5.79868e-05
-5.84569e-07
5.81756e-05
-8.06214e-07
-1.11356e-06
5.83516e-05
7.81467e-05
8.33538e-06
8.1923e-05
1.32459e-05
8.46188e-05
1.22125e-05
8.62412e-05
1.04495e-05
8.69193e-05
8.6036e-06
8.70058e-05
7.06306e-06
8.67432e-05
5.91089e-06
8.62738e-05
5.03161e-06
8.56894e-05
4.34011e-06
8.50458e-05
3.78192e-06
8.4378e-05
3.31849e-06
8.37088e-05
2.92536e-06
8.30541e-05
2.58622e-06
8.24251e-05
2.28977e-06
8.18285e-05
2.02836e-06
8.12685e-05
1.79595e-06
8.07471e-05
1.58756e-06
8.02653e-05
1.39907e-06
7.98232e-05
1.227e-06
7.94204e-05
1.06831e-06
7.90564e-05
9.20314e-07
7.87304e-05
7.80516e-07
7.84417e-05
6.46592e-07
7.81897e-05
5.16106e-07
7.79742e-05
3.86418e-07
7.77954e-05
2.55007e-07
7.76527e-05
1.18335e-07
7.75464e-05
-2.74451e-08
7.74773e-05
-1.89567e-07
7.74467e-05
-3.71649e-07
7.74481e-05
-5.85911e-07
7.74788e-05
-8.36941e-07
-1.13265e-06
7.74979e-05
7.89915e-05
5.99971e-06
8.1591e-05
1.06463e-05
8.35178e-05
1.02857e-05
8.49615e-05
9.00575e-06
8.59796e-05
7.58558e-06
8.67204e-05
6.32222e-06
8.72863e-05
5.34503e-06
8.7725e-05
4.59285e-06
8.80681e-05
3.997e-06
8.83367e-05
3.51332e-06
8.85452e-05
3.11005e-06
8.87047e-05
2.76583e-06
8.88235e-05
2.46742e-06
8.89078e-05
2.20546e-06
8.89639e-05
1.9723e-06
8.89975e-05
1.76232e-06
8.90138e-05
1.57128e-06
8.90171e-05
1.39572e-06
8.90113e-05
1.23278e-06
8.89997e-05
1.07996e-06
8.8985e-05
9.35007e-07
8.89697e-05
7.95816e-07
8.89559e-05
6.6035e-07
8.89456e-05
5.26477e-07
8.89401e-05
3.91876e-07
8.89409e-05
2.54212e-07
8.89488e-05
1.10488e-07
8.89631e-05
-4.18131e-08
8.8981e-05
-2.07479e-07
8.90002e-05
-3.90797e-07
8.90127e-05
-5.98449e-07
8.90087e-05
-8.32971e-07
-1.09155e-06
8.89676e-05
8.04632e-05
4.38247e-06
8.25053e-05
8.60424e-06
8.39911e-05
8.79988e-06
8.50502e-05
7.94669e-06
8.57724e-05
6.86338e-06
8.62862e-05
5.80839e-06
8.66929e-05
4.93828e-06
8.70398e-05
4.24603e-06
8.73497e-05
3.68702e-06
8.76344e-05
3.2287e-06
8.78985e-05
2.84589e-06
8.81446e-05
2.51974e-06
8.83748e-05
2.23722e-06
8.8591e-05
1.98926e-06
8.87943e-05
1.76904e-06
8.89854e-05
1.57123e-06
8.91651e-05
1.39159e-06
8.93341e-05
1.22668e-06
8.94933e-05
1.07362e-06
8.96433e-05
9.29942e-07
8.97849e-05
7.9344e-07
8.99186e-05
6.62075e-07
9.0045e-05
5.33901e-07
9.01646e-05
4.06951e-07
9.02773e-05
2.79173e-07
9.0383e-05
1.4844e-07
9.04812e-05
1.23697e-08
9.0571e-05
-1.31621e-07
9.06506e-05
-2.87151e-07
9.07163e-05
-4.56478e-07
9.07601e-05
-6.42279e-07
9.07721e-05
-8.44937e-07
-1.0595e-06
9.07401e-05
8.22342e-05
3.24684e-06
8.38944e-05
6.94399e-06
8.5182e-05
7.51233e-06
8.61154e-05
7.01326e-06
8.67569e-05
6.2219e-06
8.71964e-05
5.36884e-06
8.75218e-05
4.61289e-06
8.77823e-05
3.98551e-06
8.80046e-05
3.46476e-06
8.82039e-05
3.02934e-06
8.83885e-05
2.66129e-06
8.85626e-05
2.34563e-06
8.87287e-05
2.07121e-06
8.88881e-05
1.82985e-06
8.90418e-05
1.61528e-06
8.91906e-05
1.42251e-06
8.93346e-05
1.24753e-06
8.94743e-05
1.08702e-06
8.96097e-05
9.38195e-07
8.9741e-05
7.98625e-07
8.98683e-05
6.66169e-07
8.99915e-05
5.38859e-07
9.01105e-05
4.14837e-07
9.02252e-05
2.92284e-07
9.0335e-05
1.69361e-07
9.04393e-05
4.41876e-08
9.0537e-05
-8.53069e-08
9.06264e-05
-2.21051e-07
9.07044e-05
-3.65121e-07
9.07665e-05
-5.1865e-07
9.08063e-05
-6.82017e-07
9.08151e-05
-8.53818e-07
-1.02827e-06
9.07839e-05
8.42166e-05
2.44576e-06
8.55505e-05
5.61012e-06
8.66724e-05
6.39039e-06
8.75297e-05
6.15599e-06
8.81554e-05
5.59624e-06
8.86023e-05
4.92194e-06
8.89357e-05
4.2795e-06
8.91992e-05
3.72201e-06
8.94184e-05
3.24554e-06
8.96094e-05
2.83839e-06
8.97816e-05
2.48907e-06
8.99406e-05
2.18656e-06
9.009e-05
1.92185e-06
9.02319e-05
1.68797e-06
9.03678e-05
1.47937e-06
9.04988e-05
1.29154e-06
9.06255e-05
1.12077e-06
9.07486e-05
9.63933e-07
9.08684e-05
8.18402e-07
9.09852e-05
6.81878e-07
9.1099e-05
5.52324e-07
9.121e-05
4.27893e-07
9.13179e-05
3.06868e-07
9.14226e-05
1.87616e-07
9.15234e-05
6.85491e-08
9.16195e-05
-5.18582e-08
9.17092e-05
-1.75091e-07
9.17906e-05
-3.02425e-07
9.18604e-05
-4.34897e-07
9.19144e-05
-5.7266e-07
9.19471e-05
-7.14739e-07
9.1952e-05
-8.58655e-07
-9.98537e-07
9.19222e-05
8.6372e-05
1.87248e-06
8.74412e-05
4.54096e-06
8.84124e-05
5.41911e-06
8.91897e-05
5.37874e-06
8.9786e-05
4.99991e-06
9.0232e-05
4.47595e-06
9.05748e-05
3.93674e-06
9.08507e-05
3.44606e-06
9.10823e-05
3.0139e-06
9.12842e-05
2.63652e-06
9.14655e-05
2.30775e-06
9.1632e-05
2.02011e-06
9.17872e-05
1.76661e-06
9.19337e-05
1.54146e-06
9.20732e-05
1.3399e-06
9.22068e-05
1.15791e-06
9.23355e-05
9.9209e-07
9.24599e-05
8.3959e-07
9.25803e-05
6.97945e-07
9.26972e-05
5.65011e-07
9.28106e-05
4.38891e-07
9.29206e-05
3.17883e-07
9.30271e-05
2.00437e-07
9.31295e-05
8.51299e-08
9.32274e-05
-2.93433e-08
9.33197e-05
-1.44148e-07
9.34049e-05
-2.60273e-07
9.34809e-05
-3.7841e-07
9.35448e-05
-4.98795e-07
9.3593e-05
-6.20843e-07
9.3621e-05
-7.42802e-07
9.3624e-05
-8.61624e-07
-9.71751e-07
9.35972e-05
8.86675e-05
1.45499e-06
8.95246e-05
3.68389e-06
9.03623e-05
4.58138e-06
9.10639e-05
4.67708e-06
9.16266e-05
4.43728e-06
9.20653e-05
4.0372e-06
9.24121e-05
3.59e-06
9.26959e-05
3.16225e-06
9.29362e-05
2.77354e-06
9.31463e-05
2.42644e-06
9.3335e-05
2.11908e-06
9.3508e-05
1.84711e-06
9.36691e-05
1.60552e-06
9.38208e-05
1.38973e-06
9.3965e-05
1.19575e-06
9.41028e-05
1.02009e-06
9.42351e-05
8.59728e-07
9.43627e-05
7.12053e-07
9.44858e-05
5.74798e-07
9.46048e-05
4.45983e-07
9.47199e-05
3.2386e-07
9.48309e-05
2.06883e-07
9.49376e-05
9.36789e-08
9.50397e-05
-1.69647e-08
9.51365e-05
-1.26086e-07
9.52268e-05
-2.34521e-07
9.53094e-05
-3.42847e-07
9.53823e-05
-4.51272e-07
9.5443e-05
-5.59477e-07
9.54885e-05
-6.66388e-07
9.55156e-05
-7.69874e-07
9.55207e-05
-8.66734e-07
-9.52028e-07
9.5501e-05
9.10812e-05
1.14506e-06
9.17703e-05
2.99486e-06
9.24918e-05
3.85985e-06
9.31245e-05
4.04442e-06
9.36524e-05
3.90932e-06
9.408e-05
3.60969e-06
9.44271e-05
3.24291e-06
9.47161e-05
2.87319e-06
9.49636e-05
2.52602e-06
9.51812e-05
2.20885e-06
9.5377e-05
1.92325e-06
9.55566e-05
1.66752e-06
9.57237e-05
1.43845e-06
9.58808e-05
1.23262e-06
9.60298e-05
1.0468e-06
9.61718e-05
8.78025e-07
9.63079e-05
7.2363e-07
9.64387e-05
5.81277e-07
9.65646e-05
4.48904e-07
9.66859e-05
3.24703e-07
9.68026e-05
2.07088e-07
9.69148e-05
9.46757e-08
9.70223e-05
-1.37297e-08
9.71244e-05
-1.19138e-07
9.72207e-05
-2.22339e-07
9.73101e-05
-3.23892e-07
9.73913e-05
-4.24046e-07
9.74626e-05
-5.22654e-07
9.75222e-05
-6.19041e-07
9.75677e-05
-7.11862e-07
9.75967e-05
-7.98894e-07
9.7607e-05
-8.77066e-07
-9.42198e-07
9.75972e-05
9.35996e-05
9.10144e-07
9.41563e-05
2.43809e-06
9.47771e-05
3.23907e-06
9.53464e-05
3.47514e-06
9.58395e-05
3.41625e-06
9.62531e-05
3.196e-06
9.65984e-05
2.8976e-06
9.68915e-05
2.58011e-06
9.71457e-05
2.27189e-06
9.73707e-05
1.98382e-06
9.75739e-05
1.72004e-06
9.77604e-05
1.48099e-06
9.79339e-05
1.26501e-06
9.80968e-05
1.06973e-06
9.82509e-05
8.92643e-07
9.83976e-05
7.31294e-07
9.85379e-05
5.83398e-07
9.86723e-05
4.46883e-07
9.88013e-05
3.19902e-07
9.89251e-05
2.00827e-07
9.9044e-05
8.8235e-08
9.91578e-05
-1.90977e-08
9.92662e-05
-1.22195e-07
9.9369e-05
-2.21875e-07
9.94654e-05
-3.18726e-07
9.95545e-05
-4.13076e-07
9.96354e-05
-5.04934e-07
9.97067e-05
-5.93918e-07
9.97668e-05
-6.79161e-07
9.98142e-05
-7.59233e-07
9.98473e-05
-8.32021e-07
9.9865e-05
-8.94777e-07
-9.44128e-07
9.9867e-05
9.6214e-05
7.2827e-07
9.6667e-05
1.98501e-06
9.72014e-05
2.7047e-06
9.77132e-05
2.96336e-06
9.81723e-05
2.95712e-06
9.85704e-05
2.79793e-06
9.89117e-05
2.55633e-06
9.92069e-05
2.28488e-06
9.94663e-05
2.01247e-06
9.9698e-05
1.7521e-06
9.99083e-05
1.50976e-06
0.000100102
1.28748e-06
0.000100282
1.08492e-06
0.000100451
9.00636e-07
0.000100611
7.3279e-07
0.000100763
5.79407e-07
0.000100908
4.38549e-07
0.000101046
3.08413e-07
0.000101179
1.8736e-07
0.000101306
7.39381e-08
0.000101427
-3.31158e-08
0.000101543
-1.3487e-07
0.000101653
-2.32193e-07
0.000101757
-3.2574e-07
0.000101854
-4.15931e-07
0.000101944
-5.02925e-07
0.000102025
-5.86567e-07
0.000102098
-6.66348e-07
0.00010216
-7.4134e-07
0.000102211
-8.10166e-07
0.00010225
-8.70945e-07
0.000102276
-9.21349e-07
-9.58778e-07
0.000102291
9.89195e-05
5.8448e-07
9.92915e-05
1.61298e-06
9.97525e-05
2.24373e-06
0.000100213
2.50328e-06
0.000100639
2.53047e-06
0.000101021
2.41658e-06
0.000101356
2.22088e-06
0.000101652
1.98904e-06
0.000101916
1.74884e-06
0.000102153
1.51432e-06
0.00010237
1.29264e-06
0.000102571
1.087e-06
0.000102758
8.98056e-07
0.000102933
7.25158e-07
0.000103099
5.67028e-07
0.000103256
4.22126e-07
0.000103406
2.88842e-07
0.000103549
1.6562e-07
0.000103685
5.10238e-08
0.000103815
-5.62293e-08
0.000103939
-1.57251e-07
0.000104057
-2.52969e-07
0.000104169
-3.44115e-07
0.000104275
-4.31212e-07
0.000104374
-5.14551e-07
0.000104465
-5.94174e-07
0.000104548
-6.69838e-07
0.000104623
-7.4099e-07
0.000104688
-8.06738e-07
0.000104744
-8.6585e-07
0.00010479
-9.16745e-07
0.000104826
-9.57557e-07
-9.86386e-07
0.000104853
0.000101714
4.68468e-07
0.000102022
1.30427e-06
0.000102422
1.8445e-06
0.000102836
2.08916e-06
0.000103232
2.13419e-06
0.000103596
2.0522e-06
0.000103925
1.89243e-06
0.00010422
1.69384e-06
0.000104487
1.48205e-06
0.00010473
1.27126e-06
0.000104953
1.06921e-06
0.000105161
8.79823e-07
0.000105354
7.04518e-07
0.000105536
5.43248e-07
0.000105708
3.95217e-07
0.000105871
2.59253e-07
0.000106026
1.34038e-07
0.000106173
1.82418e-08
0.000106313
-8.93871e-08
0.000106447
-1.89976e-07
0.000106574
-2.84502e-07
0.000106695
-3.73769e-07
0.000106809
-4.58395e-07
0.000106917
-5.388e-07
0.000107018
-6.15187e-07
0.000107111
-6.8753e-07
0.000107197
-7.55554e-07
0.000107274
-8.18731e-07
0.000107344
-8.76267e-07
0.000107405
-9.27128e-07
0.000107459
-9.70058e-07
0.000107505
-1.00364e-06
-1.02658e-06
0.000107545
0.000104596
3.73024e-07
0.000104855
1.04501e-06
0.000105203
1.49672e-06
0.000105577
1.71537e-06
0.000105945
1.76581e-06
0.000106293
1.70445e-06
0.000106614
1.57168e-06
0.000106907
1.40022e-06
0.000107176
1.21296e-06
0.000107424
1.02354e-06
0.000107653
8.3983e-07
0.000107867
6.66129e-07
0.000108067
5.0433e-07
0.000108256
3.54837e-07
0.000108434
2.17224e-07
0.000108602
9.06206e-08
0.000108762
-2.60511e-08
0.000108915
-1.33924e-07
0.000109059
-2.34088e-07
0.000109197
-3.27538e-07
0.000109327
-4.15131e-07
0.000109451
-4.9757e-07
0.000109568
-5.75383e-07
0.000109678
-6.48916e-07
0.000109781
-7.18318e-07
0.000109877
-7.83535e-07
0.000109966
-8.44309e-07
0.000110048
-9.00177e-07
0.000110122
-9.50485e-07
0.000110189
-9.94415e-07
0.00011025
-1.03103e-06
0.000110306
-1.05933e-06
-1.0785e-06
0.000110358
0.000107566
2.93009e-07
0.000107787
8.24353e-07
0.000108092
1.19141e-06
0.000108431
1.37651e-06
0.000108774
1.42254e-06
0.000109106
1.37239e-06
0.000109419
1.25875e-06
0.000109711
1.10868e-06
0.000109981
9.42109e-07
0.000110233
7.71629e-07
0.000110468
6.0484e-07
0.000110688
4.46108e-07
0.000110895
2.97568e-07
0.00011109
1.59908e-07
0.000111274
3.29642e-08
0.000111449
-8.39093e-08
0.000111614
-1.916e-07
0.000111772
-2.91081e-07
0.000111921
-3.83312e-07
0.000112062
-4.69173e-07
0.000112197
-5.49427e-07
0.000112324
-6.24696e-07
0.000112444
-6.95443e-07
0.000112557
-7.61965e-07
0.000112663
-8.24387e-07
0.000112762
-8.82662e-07
0.000112854
-9.36576e-07
0.00011294
-9.8576e-07
0.000113019
-1.02971e-06
0.000113093
-1.06783e-06
0.000113161
-1.09948e-06
0.000113226
-1.12399e-06
-1.14094e-06
0.000113288
0.000110625
2.24676e-07
0.000110816
6.3381e-07
0.000111086
9.2083e-07
0.000111395
1.06743e-06
0.000111717
1.10136e-06
0.000112034
1.05465e-06
0.00011234
9.53291e-07
0.000112629
8.19369e-07
0.000112901
6.69797e-07
0.000113157
5.1581e-07
0.000113398
3.64436e-07
0.000113624
2.19854e-07
0.000113837
8.42329e-08
0.000114039
-4.16083e-08
0.000114229
-1.57684e-07
0.00011441
-2.64491e-07
0.000114581
-3.62785e-07
0.000114744
-4.53422e-07
0.000114897
-5.37262e-07
0.000115043
-6.15098e-07
0.000115182
-6.87623e-07
0.000115312
-7.55398e-07
0.000115436
-8.18844e-07
0.000115552
-8.78234e-07
0.000115661
-9.33692e-07
0.000115764
-9.85199e-07
0.00011586
-1.0326e-06
0.00011595
-1.07564e-06
0.000116034
-1.11396e-06
0.000116113
-1.14717e-06
0.000116189
-1.17486e-06
0.000116261
-1.19668e-06
-1.21246e-06
0.000116333
0.000113775
1.6523e-07
0.000113942
4.6666e-07
0.000114185
6.78258e-07
0.000114469
7.83227e-07
0.000114771
7.9914e-07
0.000115076
7.49443e-07
0.000115375
6.54482e-07
0.000115662
5.31979e-07
0.000115936
3.9595e-07
0.000116196
2.5608e-07
0.000116442
1.18606e-07
0.000116674
-1.26891e-08
0.000116894
-1.3578e-07
0.000117103
-2.4986e-07
0.0001173
-3.54899e-07
0.000117487
-4.51327e-07
0.000117664
-5.39826e-07
0.000117832
-6.21179e-07
0.00011799
-6.9618e-07
0.000118141
-7.65565e-07
0.000118283
-8.29977e-07
0.000118418
-8.89942e-07
0.000118545
-9.45857e-07
0.000118665
-9.9799e-07
0.000118777
-1.04648e-06
0.000118884
-1.09135e-06
0.000118983
-1.13252e-06
0.000119078
-1.16983e-06
0.000119167
-1.20307e-06
0.000119252
-1.23201e-06
0.000119333
-1.25646e-06
0.000119413
-1.27627e-06
-1.29145e-06
0.000119492
0.000117017
1.12529e-07
0.000117166
3.17517e-07
0.000117387
4.57893e-07
0.00011765
5.193e-07
0.000117937
5.126e-07
0.000118232
4.54657e-07
0.000118525
3.61082e-07
0.000118811
2.45819e-07
0.000119087
1.20172e-07
0.000119351
-7.81198e-09
0.000119602
-1.32841e-07
0.000119841
-2.51696e-07
0.000120068
-3.62647e-07
0.000120284
-4.65031e-07
0.000120488
-5.58874e-07
0.000120681
-6.44614e-07
0.000120864
-7.22917e-07
0.000121037
-7.94542e-07
0.000121201
-8.60251e-07
0.000121357
-9.20752e-07
0.000121503
-9.76661e-07
0.000121642
-1.02849e-06
0.000121773
-1.07663e-06
0.000121896
-1.12135e-06
0.000122012
-1.16283e-06
0.000122122
-1.20113e-06
0.000122226
-1.23625e-06
0.000122324
-1.26811e-06
0.000122418
-1.29664e-06
0.000122507
-1.32173e-06
0.000122594
-1.34334e-06
0.000122679
-1.36149e-06
-1.37632e-06
0.000122764
0.000120354
6.4878e-08
0.000120489
1.81982e-07
0.000120692
2.54654e-07
0.00012094
2.7127e-07
0.000121215
2.38375e-07
0.000121502
1.67861e-07
0.000121791
7.14244e-08
0.000122077
-4.02518e-08
0.000122356
-1.58351e-07
0.000122624
-2.7648e-07
0.000122882
-3.90419e-07
0.000123128
-4.97627e-07
0.000123362
-5.96801e-07
0.000123585
-6.87533e-07
0.000123796
-7.69997e-07
0.000123996
-8.44717e-07
0.000124185
-9.12402e-07
0.000124365
-9.73831e-07
0.000124534
-1.02977e-06
0.000124694
-1.08093e-06
0.000124846
-1.12792e-06
0.000124988
-1.17125e-06
0.000125123
-1.21133e-06
0.00012525
-1.24844e-06
0.00012537
-1.2828e-06
0.000125483
-1.31451e-06
0.000125591
-1.34363e-06
0.000125693
-1.37017e-06
0.00012579
-1.39415e-06
0.000125884
-1.41556e-06
0.000125975
-1.43447e-06
0.000126065
-1.451e-06
-1.46533e-06
0.000126154
0.000123787
2.08934e-08
0.000123913
5.6366e-08
0.000124103
6.40169e-08
0.00012434
3.49421e-08
0.000124605
-2.70141e-08
0.000124887
-1.13664e-07
0.000125175
-2.1653e-07
0.000125462
-3.27737e-07
0.000125744
-4.40744e-07
0.000126019
-5.50799e-07
0.000126283
-6.54817e-07
0.000126537
-7.51039e-07
0.000126779
-8.38702e-07
0.000127009
-9.17752e-07
0.000127227
-9.88597e-07
0.000127435
-1.05192e-06
0.000127631
-1.10852e-06
0.000127816
-1.15924e-06
0.000127991
-1.2049e-06
0.000128156
-1.24622e-06
0.000128312
-1.28384e-06
0.000128459
-1.31828e-06
0.000128598
-1.34996e-06
0.000128729
-1.37921e-06
0.000128852
-1.40626e-06
0.000128969
-1.43126e-06
0.00012908
-1.45433e-06
0.000129185
-1.47554e-06
0.000129286
-1.49496e-06
0.000129383
-1.51267e-06
0.000129477
-1.5288e-06
0.00012957
-1.54354e-06
-1.55707e-06
0.000129662
0.00012732
-2.06094e-08
0.000127439
-6.25385e-08
0.000127621
-1.18163e-07
0.00012785
-1.93797e-07
0.00012811
-2.87224e-07
0.000128389
-3.93008e-07
0.000128678
-5.05312e-07
0.000128969
-6.187e-07
0.000129257
-7.28712e-07
0.000129539
-8.32196e-07
0.000129811
-9.27255e-07
0.000130073
-1.013e-06
0.000130323
-1.08929e-06
0.000130562
-1.15651e-06
0.000130789
-1.2154e-06
0.000131004
-1.26684e-06
0.000131207
-1.31181e-06
0.000131399
-1.35124e-06
0.00013158
-1.38602e-06
0.000131751
-1.41694e-06
0.000131912
-1.44465e-06
0.000132063
-1.46973e-06
0.000132206
-1.4926e-06
0.00013234
-1.51363e-06
0.000132467
-1.53308e-06
0.000132587
-1.55114e-06
0.000132701
-1.56796e-06
0.000132809
-1.58365e-06
0.000132912
-1.59833e-06
0.000133012
-1.61213e-06
0.000133108
-1.62518e-06
0.000133202
-1.63769e-06
-1.64983e-06
0.000133295
0.000130955
-6.06821e-08
0.00013107
-1.77636e-07
0.000131248
-2.958e-07
0.000131473
-4.19046e-07
0.000131732
-5.46082e-07
0.000132012
-6.73533e-07
0.000132305
-7.97756e-07
0.000132602
-9.15469e-07
0.000132897
-1.02414e-06
0.000133187
-1.1222e-06
0.000133469
-1.20896e-06
0.00013374
-1.28449e-06
0.000134
-1.34935e-06
0.000134248
-1.40445e-06
0.000134484
-1.45091e-06
0.000134707
-1.4899e-06
0.000134918
-1.52259e-06
0.000135116
-1.55006e-06
0.000135304
-1.57331e-06
0.00013548
-1.59318e-06
0.000135646
-1.6104e-06
0.000135801
-1.62557e-06
0.000135948
-1.63915e-06
0.000136086
-1.65154e-06
0.000136216
-1.66301e-06
0.000136338
-1.67379e-06
0.000136455
-1.68404e-06
0.000136565
-1.69392e-06
0.00013667
-1.70356e-06
0.000136771
-1.71308e-06
0.000136868
-1.72264e-06
0.000136963
-1.73244e-06
-1.74261e-06
0.000137056
0.000134695
-1.00324e-07
0.000134809
-2.91721e-07
0.000134986
-4.72812e-07
0.000135212
-6.45138e-07
0.000135474
-8.07894e-07
0.00013576
-9.59286e-07
0.000136059
-1.09754e-06
0.000136365
-1.22133e-06
0.000136671
-1.32994e-06
0.000136972
-1.42335e-06
0.000137265
-1.50216e-06
0.000137548
-1.56744e-06
0.000137819
-1.62053e-06
0.000138078
-1.66297e-06
0.000138323
-1.6963e-06
0.000138556
-1.72205e-06
0.000138775
-1.74163e-06
0.000138981
-1.75631e-06
0.000139175
-1.76721e-06
0.000139357
-1.77526e-06
0.000139528
-1.78126e-06
0.000139688
-1.78585e-06
0.000139838
-1.78954e-06
0.00013998
-1.79273e-06
0.000140112
-1.79573e-06
0.000140237
-1.79876e-06
0.000140355
-1.80202e-06
0.000140467
-1.80564e-06
0.000140573
-1.80976e-06
0.000140675
-1.8145e-06
0.000140772
-1.81998e-06
0.000140866
-1.82636e-06
-1.83369e-06
0.000140957
0.000138542
-1.40533e-07
0.000138658
-4.07595e-07
0.000138839
-6.53186e-07
0.00013907
-8.76547e-07
0.000139339
-1.07711e-06
0.000139634
-1.25441e-06
0.000139945
-1.40834e-06
0.000140263
-1.53942e-06
0.000140582
-1.64873e-06
0.000140897
-1.73783e-06
0.000141203
-1.80865e-06
0.000141499
-1.86332e-06
0.000141782
-1.90406e-06
0.000142053
-1.93305e-06
0.000142309
-1.95238e-06
0.000142551
-1.96395e-06
0.000142778
-1.96946e-06
0.000142992
-1.97039e-06
0.000143193
-1.968e-06
0.000143381
-1.96336e-06
0.000143557
-1.95732e-06
0.000143722
-1.95058e-06
0.000143876
-1.94368e-06
0.000144021
-1.93703e-06
0.000144156
-1.93095e-06
0.000144283
-1.92568e-06
0.000144402
-1.92139e-06
0.000144515
-1.91823e-06
0.000144621
-1.91629e-06
0.000144722
-1.91568e-06
0.000144819
-1.91649e-06
0.000144911
-1.91884e-06
-1.92272e-06
0.000145
0.000142501
-1.8242e-07
0.000142622
-5.28401e-07
0.00014281
-8.41549e-07
0.000143053
-1.11876e-06
0.000143335
-1.35961e-06
0.000143645
-1.56478e-06
0.000143973
-1.73579e-06
0.000144308
-1.87497e-06
0.000144645
-1.98523e-06
0.000144977
-2.06979e-06
0.0001453
-2.13199e-06
0.000145612
-2.17513e-06
0.00014591
-2.2024e-06
0.000146194
-2.21671e-06
0.000146462
-2.22073e-06
0.000146715
-2.2168e-06
0.000146953
-2.20695e-06
0.000147175
-2.1929e-06
0.000147383
-2.17608e-06
0.000147578
-2.15766e-06
0.000147759
-2.13858e-06
0.000147928
-2.11959e-06
0.000148085
-2.10125e-06
0.000148232
-2.08399e-06
0.00014837
-2.06812e-06
0.000148498
-2.05387e-06
0.000148618
-2.04139e-06
0.00014873
-2.03079e-06
0.000148836
-2.02214e-06
0.000148936
-2.0155e-06
0.00014903
-2.01088e-06
0.00014912
-2.00833e-06
-2.00776e-06
0.000149205
0.000146574
-2.27156e-07
0.000146703
-6.57454e-07
0.000146904
-1.04261e-06
0.000147162
-1.37707e-06
0.000147464
-1.66064e-06
0.000147794
-1.89531e-06
0.000148143
-2.08429e-06
0.000148499
-2.23185e-06
0.000148857
-2.34283e-06
0.000149209
-2.42219e-06
0.000149552
-2.47477e-06
0.000149882
-2.50516e-06
0.000150197
-2.51754e-06
0.000150496
-2.51567e-06
0.000150778
-2.50284e-06
0.000151044
-2.48188e-06
0.000151292
-2.45517e-06
0.000151524
-2.42471e-06
0.00015174
-2.3921e-06
0.000151941
-2.35865e-06
0.000152127
-2.32538e-06
0.000152301
-2.29307e-06
0.000152462
-2.26232e-06
0.000152611
-2.23355e-06
0.00015275
-2.20706e-06
0.00015288
-2.18305e-06
0.000153
-2.16165e-06
0.000153112
-2.14291e-06
0.000153217
-2.12688e-06
0.000153315
-2.11353e-06
0.000153407
-2.10285e-06
0.000153493
-2.09483e-06
-2.08931e-06
0.000153575
0.000150765
-2.76465e-07
0.000150907
-7.99601e-07
0.000151128
-1.26367e-06
0.000151411
-1.66038e-06
0.000151741
-1.98994e-06
0.000152101
-2.25582e-06
0.00015248
-2.46316e-06
0.000152867
-2.61846e-06
0.000153253
-2.72878e-06
0.000153632
-2.80108e-06
0.000153999
-2.8419e-06
0.000154351
-2.85723e-06
0.000154686
-2.85241e-06
0.000155002
-2.83207e-06
0.000155299
-2.80021e-06
0.000155578
-2.76015e-06
0.000155837
-2.71467e-06
0.000156079
-2.66603e-06
0.000156302
-2.61602e-06
0.00015651
-2.56607e-06
0.000156702
-2.51728e-06
0.000156879
-2.47044e-06
0.000157043
-2.42618e-06
0.000157194
-2.38489e-06
0.000157334
-2.34685e-06
0.000157463
-2.31223e-06
0.000157583
-2.28109e-06
0.000157693
-2.25344e-06
0.000157796
-2.22924e-06
0.000157891
-2.20842e-06
0.000157979
-2.19085e-06
0.00015806
-2.17644e-06
-2.1649e-06
0.000158136
0.000155077
-3.31755e-07
0.000155236
-9.58981e-07
0.000155483
-1.51017e-06
0.000155797
-1.97431e-06
0.00015616
-2.35293e-06
0.000156555
-2.65155e-06
0.00015697
-2.87755e-06
0.000157391
-3.03993e-06
0.000157811
-3.14819e-06
0.000158221
-3.21147e-06
0.000158617
-3.23817e-06
0.000158996
-3.23584e-06
0.000159355
-3.21109e-06
0.000159692
-3.16957e-06
0.000160008
-3.116e-06
0.000160302
-3.05432e-06
0.000160575
-2.9877e-06
0.000160828
-2.91869e-06
0.000161061
-2.84929e-06
0.000161276
-2.78103e-06
0.000161474
-2.71508e-06
0.000161656
-2.65226e-06
0.000161823
-2.59317e-06
0.000161976
-2.53819e-06
0.000162117
-2.48754e-06
0.000162246
-2.44134e-06
0.000162364
-2.39958e-06
0.000162473
-2.36221e-06
0.000162573
-2.32912e-06
0.000162665
-2.30015e-06
0.000162749
-2.27513e-06
0.000162826
-2.25391e-06
-2.23613e-06
0.000162898
0.000159516
-3.97266e-07
0.000159704
-1.14657e-06
0.000159992
-1.79806e-06
0.000160355
-2.33742e-06
0.00016077
-2.76848e-06
0.000161219
-3.09985e-06
0.000161683
-3.34217e-06
0.000162151
-3.50798e-06
0.000162613
-3.60993e-06
0.000163061
-3.65973e-06
0.000163491
-3.66793e-06
0.000163899
-3.64378e-06
0.000164283
-3.59523e-06
0.000164642
-3.52893e-06
0.000164977
-3.45041e-06
0.000165287
-3.36414e-06
0.000165573
-3.27371e-06
0.000165836
-3.18194e-06
0.000166078
-3.09099e-06
0.000166299
-3.00251e-06
0.000166502
-2.91768e-06
0.000166687
-2.83734e-06
0.000166856
-2.76205e-06
0.00016701
-2.69213e-06
0.00016715
-2.62776e-06
0.000167277
-2.56895e-06
0.000167394
-2.51565e-06
0.000167499
-2.46769e-06
0.000167595
-2.42488e-06
0.000167682
-2.38698e-06
0.00016776
-2.35369e-06
0.000167831
-2.32473e-06
-2.29963e-06
0.000167894
0.000164082
-4.72765e-07
0.000164299
-1.36446e-06
0.000164631
-2.12943e-06
0.000165046
-2.75217e-06
0.000165518
-3.24101e-06
0.000166026
-3.60785e-06
0.000166551
-3.86668e-06
0.000167077
-4.03401e-06
0.000167593
-4.1262e-06
0.000168091
-4.15806e-06
0.000168566
-4.14271e-06
0.000169014
-4.09148e-06
0.000169432
-4.01393e-06
0.000169821
-3.91793e-06
0.000170181
-3.80987e-06
0.000170512
-3.69486e-06
0.000170815
-3.5769e-06
0.000171092
-3.45908e-06
0.000171345
-3.34371e-06
0.000171575
-3.23248e-06
0.000171784
-3.12659e-06
0.000171973
-3.02683e-06
0.000172145
-2.93368e-06
0.0001723
-2.8474e-06
0.00017244
-2.76803e-06
0.000172567
-2.69552e-06
0.000172681
-2.62969e-06
0.000172783
-2.57029e-06
0.000172876
-2.51704e-06
0.000172958
-2.46962e-06
0.000173032
-2.42765e-06
0.000173098
-2.39081e-06
-2.35853e-06
0.000173157
0.000168795
-5.75545e-07
0.000169079
-1.64844e-06
0.000169497
-2.54823e-06
0.000170006
-3.26039e-06
0.000170569
-3.80431e-06
0.00017116
-4.19934e-06
0.000171759
-4.46579e-06
0.000172351
-4.6259e-06
0.000172925
-4.70026e-06
0.000173474
-4.70685e-06
0.000173993
-4.66135e-06
0.000174478
-4.5771e-06
0.00017493
-4.46516e-06
0.000175346
-4.33454e-06
0.000175729
-4.19249e-06
0.000176079
-4.04468e-06
0.000176397
-3.89552e-06
0.000176687
-3.74833e-06
0.000176948
-3.60555e-06
0.000177185
-3.46892e-06
0.000177398
-3.3396e-06
0.000177589
-3.21831e-06
0.000177761
-3.10544e-06
0.000177915
-3.00113e-06
0.000178052
-2.90529e-06
0.000178174
-2.81775e-06
0.000178283
-2.7382e-06
0.000178379
-2.66629e-06
0.000178463
-2.60161e-06
0.000178538
-2.54372e-06
0.000178602
-2.49215e-06
0.000178658
-2.44643e-06
-2.40581e-06
0.000178705
0.000173623
-6.86731e-07
0.000173953
-1.9785e-06
0.000174443
-3.03847e-06
0.000175043
-3.86085e-06
0.000175714
-4.4746e-06
0.000176418
-4.90334e-06
0.000177127
-5.17496e-06
0.000177821
-5.32026e-06
0.000178487
-5.36626e-06
0.000179116
-5.33571e-06
0.000179703
-5.24799e-06
0.000180245
-5.11917e-06
0.000180742
-4.96224e-06
0.000181195
-4.78756e-06
0.000181605
-4.60323e-06
0.000181976
-4.4155e-06
0.00018231
-4.22907e-06
0.000182609
-4.0474e-06
0.000182876
-3.87293e-06
0.000183115
-3.70731e-06
0.000183327
-3.55158e-06
0.000183515
-3.40628e-06
0.000183681
-3.27162e-06
0.000183827
-3.14753e-06
0.000183956
-3.03377e-06
0.000184068
-2.92995e-06
0.000184165
-2.83565e-06
0.000184249
-2.75036e-06
0.000184321
-2.67358e-06
0.000184382
-2.6048e-06
0.000184434
-2.54349e-06
0.000184477
-2.48917e-06
-2.44095e-06
0.000184512
0.000178682
-9.00043e-07
0.000179189
-2.48576e-06
0.000179861
-3.70997e-06
0.000180617
-4.61733e-06
0.000181417
-5.27456e-06
0.000182228
-5.71453e-06
0.000183027
-5.9736e-06
0.000183797
-6.09003e-06
0.000184526
-6.09564e-06
0.000185208
-6.01719e-06
0.000185837
-5.87755e-06
0.000186413
-5.69545e-06
0.000186937
-5.48581e-06
0.00018741
-5.26036e-06
0.000187835
-5.0281e-06
0.000188215
-4.7958e-06
0.000188554
-4.56839e-06
0.000188856
-4.34938e-06
0.000189124
-4.14111e-06
0.000189362
-3.94504e-06
0.000189572
-3.76197e-06
0.000189758
-3.59218e-06
0.000189922
-3.4356e-06
0.000190067
-3.29188e-06
0.000190193
-3.16052e-06
0.000190304
-3.04092e-06
0.000190401
-2.93242e-06
0.000190485
-2.83437e-06
0.000190558
-2.74614e-06
0.00019062
-2.66714e-06
0.000190673
-2.59681e-06
0.000190719
-2.53463e-06
-2.47964e-06
0.000190758
0.000183745
-1.07798e-06
0.000184336
-3.07627e-06
0.000185167
-4.54137e-06
0.000186136
-5.5865e-06
0.000187162
-6.29967e-06
0.000188179
-6.7324e-06
0.000189156
-6.9506e-06
0.000190078
-7.01148e-06
0.000190938
-6.95573e-06
0.000191736
-6.81533e-06
0.000192475
-6.61603e-06
0.000193157
-6.37775e-06
0.000193787
-6.11576e-06
0.000194368
-5.84175e-06
0.000194905
-5.56455e-06
0.0001954
-5.29066e-06
0.000195856
-5.02482e-06
0.000196277
-4.77032e-06
0.000196665
-4.52937e-06
0.000197023
-4.30325e-06
0.000197354
-4.09261e-06
0.000197659
-3.89756e-06
0.000197942
-3.71786e-06
0.000198203
-3.55297e-06
0.000198444
-3.40222e-06
0.000198668
-3.26481e-06
0.000198876
-3.13996e-06
0.000199068
-3.02688e-06
0.000199247
-2.92493e-06
0.000199414
-2.83351e-06
0.000199569
-2.75245e-06
0.000199716
-2.68125e-06
-2.62021e-06
0.000199856
0.000189417
-1.68318e-06
0.000190404
-4.06313e-06
0.000191484
-5.6216e-06
0.000192642
-6.74379e-06
0.000193883