/*--------------------------------*- C++ -*----------------------------------*\
| =========                 |                                                 |
| \\      /  F ield         | OpenFOAM: The Open Source CFD Toolbox           |
|  \\    /   O peration     | Version:  2.1.1                                 |
|   \\  /    A nd           | Web:      www.OpenFOAM.org                      |
|    \\/     M anipulation  |                                                 |
\*---------------------------------------------------------------------------*/
FoamFile
{
    version     2.0;
    format      ascii;
    class       volVectorField;
    location    "0.115";
    object      U;
}
// * * * * * * * * * * * * * * * * * * * * * * * * * * * * * * * * * * * * * //

dimensions      [0 1 -1 0 0 0 0];

internalField   nonuniform List<vector> 
6820
(
(6.37604 0.503729 0)
(4.4245 0.286845 0)
(2.97395 0.0201798 0)
(2.23495 -0.0619474 0)
(1.96958 -0.0600309 0)
(1.84301 -0.0346116 0)
(1.76837 -0.0151983 0)
(1.71656 -0.00482206 0)
(1.67354 -0.000121633 0)
(1.63629 0.00138334 0)
(1.60422 0.00136045 0)
(1.57689 0.000745419 0)
(1.55379 -2.96044e-05 0)
(1.5344 -0.000776389 0)
(1.51825 -0.00142223 0)
(1.50488 -0.00195157 0)
(1.49397 -0.00237495 0)
(1.48525 -0.00271219 0)
(1.4785 -0.00298414 0)
(1.47361 -0.00320901 0)
(1.47046 -0.00340028 0)
(1.46905 -0.00355657 0)
(1.46938 -0.0037768 0)
(1.47148 -0.00406983 0)
(1.47547 -0.00441046 0)
(1.48155 -0.00475799 0)
(1.48989 -0.005216 0)
(1.50108 -0.0057871 0)
(1.51504 -0.00670309 0)
(1.53454 -0.00756537 0)
(1.55483 -0.0103167 0)
(1.59617 -0.00820316 0)
(1.60447 -0.0425096 0)
(8.72022 0.959574 0)
(8.76492 1.01182 0)
(7.96927 0.678868 0)
(7.0561 0.393737 0)
(6.35541 0.202267 0)
(5.84939 0.103141 0)
(5.48787 0.0576275 0)
(5.227 0.0370853 0)
(5.03184 0.0278322 0)
(4.88023 0.0232307 0)
(4.75877 0.0204289 0)
(4.65911 0.0183722 0)
(4.5759 0.0166643 0)
(4.50557 0.0151375 0)
(4.44564 0.0137075 0)
(4.39433 0.0123279 0)
(4.35031 0.0109712 0)
(4.31259 0.00961811 0)
(4.2804 0.0082517 0)
(4.25318 0.00685473 0)
(4.23047 0.00540744 0)
(4.21193 0.0038936 0)
(4.19732 0.00223696 0)
(4.18652 0.000432966 0)
(4.17952 -0.00154291 0)
(4.17638 -0.00388558 0)
(4.17721 -0.00660854 0)
(4.18236 -0.0097925 0)
(4.19223 -0.0139505 0)
(4.20803 -0.0188036 0)
(4.22983 -0.0270723 0)
(4.26354 -0.0358681 0)
(4.30461 -0.0578448 0)
(8.58611 0.583396 0)
(9.33133 0.762117 0)
(9.61461 0.659833 0)
(9.50483 0.526185 0)
(9.23892 0.396625 0)
(8.92678 0.298746 0)
(8.62125 0.229887 0)
(8.34553 0.180436 0)
(8.10388 0.144412 0)
(7.89407 0.117636 0)
(7.7124 0.0971923 0)
(7.55505 0.0812177 0)
(7.41853 0.068493 0)
(7.29985 0.0581856 0)
(7.19648 0.0496936 0)
(7.10632 0.0425651 0)
(7.02762 0.0364577 0)
(6.95893 0.0311098 0)
(6.89905 0.0263179 0)
(6.84701 0.0219182 0)
(6.80199 0.0177728 0)
(6.76335 0.0137541 0)
(6.73059 0.00977223 0)
(6.70333 0.00570304 0)
(6.68128 0.00142962 0)
(6.66426 -0.00328326 0)
(6.65227 -0.00859154 0)
(6.64554 -0.0147052 0)
(6.64431 -0.0221744 0)
(6.64905 -0.0312535 0)
(6.66005 -0.0438286 0)
(6.6776 -0.0599273 0)
(6.70104 -0.0868117 0)
(8.44093 0.379609 0)
(8.94593 0.583805 0)
(9.35843 0.554214 0)
(9.58627 0.486634 0)
(9.70059 0.406646 0)
(9.73685 0.337462 0)
(9.72161 0.284928 0)
(9.67718 0.244708 0)
(9.61642 0.213153 0)
(9.54663 0.18767 0)
(9.47255 0.166403 0)
(9.39729 0.148221 0)
(9.32288 0.1324 0)
(9.25086 0.11844 0)
(9.18218 0.106 0)
(9.11742 0.0948239 0)
(9.05689 0.0846977 0)
(9.00077 0.075434 0)
(8.9491 0.0668665 0)
(8.90186 0.0588433 0)
(8.85899 0.0512223 0)
(8.82041 0.0438648 0)
(8.78604 0.036634 0)
(8.7558 0.0293728 0)
(8.72966 0.0218915 0)
(8.70757 0.0140414 0)
(8.6896 0.00551283 0)
(8.67563 -0.0040663 0)
(8.66575 -0.0151664 0)
(8.66012 -0.0282907 0)
(8.65864 -0.0446863 0)
(8.66036 -0.0649668 0)
(8.66503 -0.0906985 0)
(8.40215 0.279963 0)
(8.71902 0.480404 0)
(8.99897 0.461503 0)
(9.17453 0.403915 0)
(9.29914 0.341834 0)
(9.39274 0.28936 0)
(9.46203 0.250314 0)
(9.51519 0.22069 0)
(9.55702 0.197162 0)
(9.58987 0.177825 0)
(9.61548 0.161408 0)
(9.63522 0.147113 0)
(9.65021 0.134446 0)
(9.66109 0.123056 0)
(9.66857 0.112678 0)
(9.67331 0.103099 0)
(9.67591 0.0941521 0)
(9.67687 0.0856967 0)
(9.67665 0.0776095 0)
(9.67562 0.069777 0)
(9.67412 0.0620894 0)
(9.67243 0.0544341 0)
(9.67079 0.0466927 0)
(9.66943 0.0387275 0)
(9.66853 0.0303764 0)
(9.66824 0.021456 0)
(9.66868 0.0117119 0)
(9.66994 0.000835696 0)
(9.67174 -0.0115204 0)
(9.67382 -0.025874 0)
(9.67577 -0.0430264 0)
(9.67643 -0.0634308 0)
(9.67495 -0.0874243 0)
(8.37748 0.202058 0)
(8.60141 0.383239 0)
(8.81596 0.390166 0)
(8.94711 0.355681 0)
(9.03312 0.311255 0)
(9.09606 0.267698 0)
(9.14318 0.231784 0)
(9.18175 0.203183 0)
(9.21597 0.180096 0)
(9.24724 0.161178 0)
(9.27616 0.145327 0)
(9.30307 0.131708 0)
(9.32818 0.119771 0)
(9.35174 0.109144 0)
(9.37389 0.0995246 0)
(9.39472 0.0906778 0)
(9.4143 0.0824208 0)
(9.43271 0.0746051 0)
(9.45004 0.0671027 0)
(9.46636 0.0597977 0)
(9.48176 0.0525794 0)
(9.4963 0.0453359 0)
(9.51004 0.0379498 0)
(9.52303 0.0302895 0)
(9.53531 0.0222012 0)
(9.54686 0.0135159 0)
(9.55767 0.00401897 0)
(9.56758 -0.00650334 0)
(9.57661 -0.0183843 0)
(9.58442 -0.0319731 0)
(9.59044 -0.0476831 0)
(9.59362 -0.0657425 0)
(9.59306 -0.0858917 0)
(8.36128 0.148669 0)
(8.52278 0.310986 0)
(8.69762 0.336432 0)
(8.81255 0.316757 0)
(8.88736 0.283434 0)
(8.94069 0.247177 0)
(8.97872 0.215473 0)
(9.00762 0.189518 0)
(9.03182 0.168142 0)
(9.05323 0.150297 0)
(9.07281 0.135133 0)
(9.09115 0.121985 0)
(9.10858 0.110378 0)
(9.12527 0.0999679 0)
(9.14134 0.0905023 0)
(9.15687 0.0817837 0)
(9.17191 0.07365 0)
(9.18648 0.0659615 0)
(9.20061 0.058594 0)
(9.21431 0.0514331 0)
(9.2276 0.0443695 0)
(9.24047 0.0372943 0)
(9.25292 0.0300949 0)
(9.26494 0.0226497 0)
(9.27649 0.0148236 0)
(9.28751 0.00646544 0)
(9.2979 -0.00259595 0)
(9.30757 -0.0125712 0)
(9.31626 -0.0237273 0)
(9.32358 -0.036251 0)
(9.32901 -0.0503036 0)
(9.3317 -0.0659019 0)
(9.33094 -0.0826915 0)
(8.35116 0.111213 0)
(8.46746 0.251114 0)
(8.60834 0.285752 0)
(8.71022 0.277394 0)
(8.78023 0.254932 0)
(8.83211 0.22739 0)
(8.87018 0.201192 0)
(8.89899 0.178438 0)
(8.9225 0.158856 0)
(8.9427 0.141965 0)
(8.96067 0.127304 0)
(8.9771 0.114426 0)
(8.99244 0.102965 0)
(9.00694 0.0926436 0)
(9.02079 0.0832385 0)
(9.0341 0.0745623 0)
(9.04696 0.0664556 0)
(9.05943 0.0587811 0)
(9.07155 0.0514175 0)
(9.08337 0.044254 0)
(9.09488 0.0371855 0)
(9.10611 0.0301088 0)
(9.11705 0.0229189 0)
(9.12768 0.0155053 0)
(9.13796 0.007749 0)
(9.14782 -0.000478941 0)
(9.15715 -0.00932635 0)
(9.16575 -0.01894 0)
(9.17339 -0.0294582 0)
(9.17968 -0.0409626 0)
(9.18418 -0.0534703 0)
(9.18619 -0.0668694 0)
(9.18524 -0.0807252 0)
(8.34487 0.084515 0)
(8.42943 0.203166 0)
(8.54233 0.242858 0)
(8.63119 0.243366 0)
(8.69535 0.229053 0)
(8.74465 0.20794 0)
(8.78232 0.18587 0)
(8.81158 0.165678 0)
(8.83569 0.147791 0)
(8.85648 0.132059 0)
(8.87492 0.118217 0)
(8.8917 0.10594 0)
(8.90725 0.0949317 0)
(8.92185 0.0849502 0)
(8.93571 0.075798 0)
(8.94895 0.067308 0)
(8.96167 0.0593381 0)
(8.97394 0.0517653 0)
(8.98582 0.0444791 0)
(8.99734 0.0373777 0)
(9.00853 0.0303643 0)
(9.01938 0.0233445 0)
(9.0299 0.016224 0)
(9.04005 0.00890686 0)
(9.0498 0.00129403 0)
(9.05907 -0.00671444 0)
(9.06772 -0.0152184 0)
(9.0756 -0.0243041 0)
(9.08248 -0.0340393 0)
(9.08801 -0.0444361 0)
(9.09184 -0.055415 0)
(9.09344 -0.0667752 0)
(9.09251 -0.0780649 0)
(8.34094 0.0652473 0)
(8.40312 0.164768 0)
(8.4934 0.205654 0)
(8.57021 0.211999 0)
(8.62848 0.20368 0)
(8.67478 0.188002 0)
(8.71144 0.170016 0)
(8.74063 0.152647 0)
(8.76491 0.136694 0)
(8.78593 0.122258 0)
(8.8046 0.109271 0)
(8.82156 0.0975645 0)
(8.83726 0.0869417 0)
(8.85199 0.0772256 0)
(8.86592 0.0682604 0)
(8.87921 0.0599069 0)
(8.89195 0.0520404 0)
(8.90421 0.0445489 0)
(8.91604 0.0373301 0)
(8.92747 0.0302889 0)
(8.93852 0.023336 0)
(8.9492 0.0163853 0)
(8.95948 0.00935386 0)
(8.96936 0.0021602 0)
(8.97876 -0.00527446 0)
(8.98763 -0.0130223 0)
(8.99583 -0.0211468 0)
(9.00322 -0.0296924 0)
(9.00959 -0.0386697 0)
(9.01467 -0.0480288 0)
(9.0182 -0.0576275 0)
(9.01978 -0.0672172 0)
(9.01925 -0.0763625 0)
(8.33846 0.0510682 0)
(8.38477 0.133889 0)
(8.45702 0.173573 0)
(8.52308 0.183843 0)
(8.57573 0.180175 0)
(8.61892 0.168963 0)
(8.6542 0.154458 0)
(8.68298 0.1395 0)
(8.70723 0.125199 0)
(8.72835 0.111902 0)
(8.74718 0.0997113 0)
(8.76431 0.0885788 0)
(8.78015 0.078385 0)
(8.79499 0.0689985 0)
(8.809 0.060292 0)
(8.82234 0.0521453 0)
(8.83509 0.0444476 0)
(8.84733 0.0370976 0)
(8.8591 0.0300022 0)
(8.87045 0.0230755 0)
(8.88137 0.016237 0)
(8.89189 0.0094112 0)
(8.90198 0.0025269 0)
(8.91161 -0.0044817 0)
(8.92073 -0.0116736 0)
(8.92928 -0.0190975 0)
(8.93714 -0.026786 0)
(8.94419 -0.0347457 0)
(8.95025 -0.0429436 0)
(8.95513 -0.0512901 0)
(8.95862 -0.0596135 0)
(8.96045 -0.0676524 0)
(8.96059 -0.075013 0)
(8.33687 0.0404235 0)
(8.37185 0.108994 0)
(8.42983 0.145981 0)
(8.48638 0.158474 0)
(8.5337 0.158068 0)
(8.57375 0.15027 0)
(8.60747 0.138682 0)
(8.63567 0.125932 0)
(8.65979 0.113269 0)
(8.68098 0.101181 0)
(8.69996 0.0898731 0)
(8.71726 0.0793868 0)
(8.73326 0.0696712 0)
(8.74822 0.0606424 0)
(8.76234 0.0522077 0)
(8.77574 0.0442723 0)
(8.78853 0.0367441 0)
(8.80078 0.0295362 0)
(8.81253 0.0225669 0)
(8.82381 0.0157599 0)
(8.83464 0.00904446 0)
(8.84503 0.00235506 0)
(8.85495 -0.00436765 0)
(8.86439 -0.0111751 0)
(8.87329 -0.018109 0)
(8.8816 -0.0251972 0)
(8.88921 -0.0324474 0)
(8.89604 -0.0398396 0)
(8.90194 -0.0473142 0)
(8.90677 -0.0547604 0)
(8.91041 -0.0619981 0)
(8.91269 -0.0687744 0)
(8.91364 -0.0747488 0)
(8.33583 0.032263 0)
(8.36266 0.0887927 0)
(8.4094 0.122229 0)
(8.45771 0.135656 0)
(8.50007 0.137481 0)
(8.53705 0.132317 0)
(8.56907 0.12317 0)
(8.5965 0.112364 0)
(8.62034 0.101173 0)
(8.64149 0.0901833 0)
(8.66056 0.0796869 0)
(8.678 0.0698046 0)
(8.69415 0.060548 0)
(8.70925 0.0518767 0)
(8.7235 0.0437278 0)
(8.737 0.036028 0)
(8.74986 0.0287007 0)
(8.76214 0.0216704 0)
(8.77389 0.0148652 0)
(8.78515 0.00821773 0)
(8.79592 0.00166607 0)
(8.80621 -0.00484548 0)
(8.81601 -0.011365 0)
(8.8253 -0.0179314 0)
(8.83404 -0.0245716 0)
(8.84217 -0.0312967 0)
(8.84963 -0.0380967 0)
(8.85634 -0.0449337 0)
(8.86221 -0.0517332 0)
(8.86714 -0.0583767 0)
(8.87107 -0.0646909 0)
(8.8739 -0.0704464 0)
(8.87573 -0.0753617 0)
(8.33514 0.0258736 0)
(8.35603 0.0722697 0)
(8.39396 0.101765 0)
(8.43523 0.115154 0)
(8.47304 0.118338 0)
(8.50706 0.115067 0)
(8.53731 0.107838 0)
(8.56384 0.0986619 0)
(8.58728 0.0887734 0)
(8.60831 0.0788091 0)
(8.62741 0.0691125 0)
(8.64495 0.0598542 0)
(8.66124 0.0510897 0)
(8.67648 0.0428122 0)
(8.69085 0.0349839 0)
(8.70446 0.027551 0)
(8.71739 0.0204522 0)
(8.72972 0.0136245 0)
(8.74149 0.00700661 0)
(8.75273 0.000540673 0)
(8.76345 -0.00582601 0)
(8.77367 -0.0121396 0)
(8.78338 -0.0184381 0)
(8.79256 -0.0247496 0)
(8.80118 -0.031089 0)
(8.8092 -0.0374551 0)
(8.81658 -0.0438259 0)
(8.82326 -0.0501538 0)
(8.82918 -0.0563593 0)
(8.8343 -0.0623274 0)
(8.83859 -0.0679016 0)
(8.84204 -0.0728846 0)
(8.84474 -0.0770533 0)
(8.33466 0.0207672 0)
(8.3512 0.058623 0)
(8.38222 0.084075 0)
(8.41754 0.0967136 0)
(8.45127 0.100556 0)
(8.48251 0.0985735 0)
(8.51098 0.0928199 0)
(8.53652 0.0849982 0)
(8.55947 0.0762477 0)
(8.58028 0.0672107 0)
(8.59935 0.0582564 0)
(8.61695 0.0495887 0)
(8.63334 0.0412981 0)
(8.6487 0.0334071 0)
(8.66318 0.0259008 0)
(8.67689 0.0187432 0)
(8.68991 0.0118872 0)
(8.70229 0.00528084 0)
(8.71409 -0.00112778 0)
(8.72533 -0.00738807 0)
(8.73603 -0.0135447 0)
(8.7462 -0.0196357 0)
(8.75585 -0.025691 0)
(8.76495 -0.03173 0)
(8.7735 -0.0377589 0)
(8.78147 -0.0437686 0)
(8.78882 -0.0497305 0)
(8.79553 -0.0555938 0)
(8.80158 -0.0612816 0)
(8.80695 -0.0666894 0)
(8.81165 -0.0716832 0)
(8.8157 -0.0761016 0)
(8.81924 -0.079775 0)
(8.33432 0.0166046 0)
(8.34763 0.0472245 0)
(8.37326 0.0687089 0)
(8.4036 0.0800968 0)
(8.4337 0.0840398 0)
(8.46237 0.0828302 0)
(8.48912 0.0781364 0)
(8.51363 0.0713782 0)
(8.53601 0.0635746 0)
(8.55655 0.0553464 0)
(8.57553 0.047069 0)
(8.59315 0.0389637 0)
(8.60961 0.0311435 0)
(8.62508 0.023651 0)
(8.63967 0.0164882 0)
(8.65347 0.00963276 0)
(8.66657 0.00304876 0)
(8.67901 -0.00330611 0)
(8.69084 -0.00947555 0)
(8.70209 -0.0155014 0)
(8.71278 -0.0214213 0)
(8.72293 -0.0272665 0)
(8.73253 -0.03306 0)
(8.74159 -0.0388147 0)
(8.7501 -0.0445312 0)
(8.75804 -0.0501958 0)
(8.76542 -0.0557781 0)
(8.7722 -0.0612289 0)
(8.77841 -0.0664789 0)
(8.78405 -0.0714386 0)
(8.78915 -0.075999 0)
(8.79378 -0.0800343 0)
(8.79806 -0.0834221 0)
(8.33408 0.0131461 0)
(8.34497 0.037583 0)
(8.36638 0.05527 0)
(8.39261 0.0650685 0)
(8.41953 0.0686717 0)
(8.44587 0.0678063 0)
(8.47099 0.0638104 0)
(8.49447 0.0578522 0)
(8.51625 0.0508185 0)
(8.53648 0.0432851 0)
(8.55532 0.0356154 0)
(8.57293 0.0280339 0)
(8.58944 0.0206644 0)
(8.60499 0.0135634 0)
(8.61968 0.00674514 0)
(8.63357 0.000198435 0)
(8.64674 -0.00610315 0)
(8.65924 -0.0121937 0)
(8.67112 -0.0181097 0)
(8.68239 -0.0238866 0)
(8.69308 -0.0295563 0)
(8.70322 -0.0351445 0)
(8.7128 -0.0406693 0)
(8.72184 -0.0461393 0)
(8.73033 -0.0515522 0)
(8.73829 -0.0568929 0)
(8.74571 -0.0621322 0)
(8.7526 -0.0672267 0)
(8.75898 -0.0721174 0)
(8.76489 -0.0767319 0)
(8.77038 -0.0809861 0)
(8.77551 -0.0847875 0)
(8.78042 -0.0880528 0)
(8.33389 0.0102188 0)
(8.34296 0.0293138 0)
(8.36109 0.0434148 0)
(8.38393 0.0514047 0)
(8.40812 0.0543261 0)
(8.43238 0.0534506 0)
(8.456 0.0498358 0)
(8.47849 0.04443 0)
(8.49966 0.0379877 0)
(8.51956 0.0310261 0)
(8.53824 0.0238847 0)
(8.55581 0.0167805 0)
(8.57236 0.00984015 0)
(8.58798 0.00312684 0)
(8.60274 -0.00333755 0)
(8.61672 -0.0095571 0)
(8.62997 -0.0155516 0)
(8.64254 -0.0213494 0)
(8.65445 -0.0269818 0)
(8.66575 -0.0324796 0)
(8.67645 -0.0378704 0)
(8.68659 -0.0431762 0)
(8.69616 -0.048412 0)
(8.70519 -0.0535843 0)
(8.71369 -0.0586899 0)
(8.72168 -0.0637149 0)
(8.72916 -0.0686343 0)
(8.73616 -0.073412 0)
(8.74271 -0.0780012 0)
(8.74887 -0.0823468 0)
(8.75468 -0.0863881 0)
(8.76024 -0.0900616 0)
(8.76565 -0.0933156 0)
(8.33376 0.00769524 0)
(8.34144 0.022114 0)
(8.357 0.0328461 0)
(8.3771 0.0388929 0)
(8.39898 0.040869 0)
(8.42142 0.0396917 0)
(8.4437 0.0361847 0)
(8.46526 0.031108 0)
(8.48586 0.02509 0)
(8.50541 0.0185817 0)
(8.52393 0.0118893 0)
(8.54146 0.00521296 0)
(8.55803 -0.00132649 0)
(8.57371 -0.00766574 0)
(8.58856 -0.0137802 0)
(8.60262 -0.0196704 0)
(8.61595 -0.0253521 0)
(8.62857 -0.0308496 0)
(8.64054 -0.0361907 0)
(8.65187 -0.0414028 0)
(8.6626 -0.0465104 0)
(8.67274 -0.0515332 0)
(8.68232 -0.0564844 0)
(8.69136 -0.0613699 0)
(8.69988 -0.0661874 0)
(8.7079 -0.0709259 0)
(8.71544 -0.0755658 0)
(8.72255 -0.0800794 0)
(8.72925 -0.0844325 0)
(8.73561 -0.088586 0)
(8.74169 -0.0924994 0)
(8.74758 -0.0961338 0)
(8.75337 -0.0994616 0)
(8.33365 0.00547878 0)
(8.34028 0.0157421 0)
(8.35386 0.0233073 0)
(8.37175 0.0273324 0)
(8.3917 0.0281612 0)
(8.41259 0.0264436 0)
(8.4337 0.0228113 0)
(8.45444 0.017865 0)
(8.4745 0.0121176 0)
(8.49375 0.00595152 0)
(8.51212 -0.000367782 0)
(8.52959 -0.00666249 0)
(8.54618 -0.0128235 0)
(8.56193 -0.0187927 0)
(8.57685 -0.0245473 0)
(8.591 -0.0300876 0)
(8.6044 -0.0354285 0)
(8.6171 -0.0405928 0)
(8.62911 -0.0456068 0)
(8.64048 -0.0504963 0)
(8.65123 -0.0552849 0)
(8.66139 -0.0599915 0)
(8.67098 -0.0646295 0)
(8.68003 -0.0692057 0)
(8.68856 -0.0737202 0)
(8.69661 -0.0781661 0)
(8.70421 -0.0825303 0)
(8.7114 -0.086794 0)
(8.71822 -0.0909344 0)
(8.72473 -0.0949272 0)
(8.73101 -0.0987487 0)
(8.73712 -0.10238 0)
(8.74316 -0.105811 0)
(8.33357 0.0034943 0)
(8.33941 0.010003 0)
(8.35145 0.0145752 0)
(8.36761 0.0165337 0)
(8.38599 0.0160588 0)
(8.4056 0.0136043 0)
(8.42571 0.00964676 0)
(8.44576 0.00465322 0)
(8.46537 -0.000967778 0)
(8.48436 -0.00690264 0)
(8.5026 -0.0129298 0)
(8.52005 -0.0188996 0)
(8.53668 -0.0247205 0)
(8.5525 -0.0303446 0)
(8.56751 -0.0357548 0)
(8.58175 -0.0409547 0)
(8.59524 -0.0459606 0)
(8.60801 -0.050796 0)
(8.62009 -0.0554869 0)
(8.6315 -0.0600594 0)
(8.64228 -0.0645366 0)
(8.65246 -0.0689379 0)
(8.66207 -0.0732776 0)
(8.67113 -0.0775644 0)
(8.67968 -0.0818015 0)
(8.68775 -0.0859865 0)
(8.69539 -0.0901125 0)
(8.70263 -0.0941691 0)
(8.70953 -0.0981438 0)
(8.71615 -0.102024 0)
(8.72254 -0.1058 0)
(8.72877 -0.109467 0)
(8.73494 -0.113027 0)
(8.33352 0.00168119 0)
(8.33876 0.00473493 0)
(8.34965 0.00645278 0)
(8.36447 0.0063164 0)
(8.38162 0.00441493 0)
(8.4002 0.00106245 0)
(8.41952 -0.00338654 0)
(8.439 -0.00857618 0)
(8.45826 -0.0141896 0)
(8.47705 -0.0199797 0)
(8.49522 -0.0257694 0)
(8.51267 -0.0314416 0)
(8.52936 -0.0369266 0)
(8.54527 -0.0421911 0)
(8.56038 -0.0472278 0)
(8.57472 -0.052047 0)
(8.58829 -0.0566698 0)
(8.60114 -0.0611229 0)
(8.61327 -0.0654348 0)
(8.62473 -0.0696334 0)
(8.63554 -0.0737438 0)
(8.64574 -0.0777871 0)
(8.65535 -0.08178 0)
(8.66442 -0.085734 0)
(8.67297 -0.0896562 0)
(8.68105 -0.0935492 0)
(8.6887 -0.0974122 0)
(8.69597 -0.101242 0)
(8.7029 -0.105036 0)
(8.70955 -0.108789 0)
(8.71598 -0.112504 0)
(8.72225 -0.116186 0)
(8.72845 -0.119844 0)
(8.33347 -1.06866e-05 0)
(8.33828 -0.000199957 0)
(8.34834 -0.00123773 0)
(8.36217 -0.00349517 0)
(8.3784 -0.00692707 0)
(8.39622 -0.0113168 0)
(8.41496 -0.0164064 0)
(8.43405 -0.0219334 0)
(8.45308 -0.0276628 0)
(8.47177 -0.0334108 0)
(8.48994 -0.0390478 0)
(8.50746 -0.044491 0)
(8.52425 -0.0496953 0)
(8.54028 -0.0546453 0)
(8.55552 -0.0593461 0)
(8.56999 -0.0638171 0)
(8.58368 -0.0680857 0)
(8.59661 -0.0721832 0)
(8.60883 -0.0761417 0)
(8.62034 -0.0799919 0)
(8.63119 -0.0837613 0)
(8.6414 -0.0874735 0)
(8.65102 -0.0911479 0)
(8.66009 -0.0947992 0)
(8.66863 -0.0984382 0)
(8.6767 -0.102072 0)
(8.68433 -0.105706 0)
(8.69158 -0.109342 0)
(8.6985 -0.112985 0)
(8.70512 -0.116637 0)
(8.71152 -0.120308 0)
(8.71775 -0.124009 0)
(8.72386 -0.127753 0)
(8.33344 -0.0016252 0)
(8.33796 -0.00492374 0)
(8.34744 -0.00866088 0)
(8.3606 -0.0130712 0)
(8.37621 -0.0181215 0)
(8.39353 -0.0236593 0)
(8.41191 -0.0295 0)
(8.43077 -0.0354577 0)
(8.4497 -0.0413692 0)
(8.46839 -0.0471104 0)
(8.48663 -0.0525993 0)
(8.50427 -0.0577903 0)
(8.52121 -0.0626679 0)
(8.53739 -0.0672388 0)
(8.55278 -0.0715255 0)
(8.56738 -0.0755604 0)
(8.58119 -0.0793809 0)
(8.59422 -0.0830263 0)
(8.60651 -0.0865346 0)
(8.61807 -0.0899415 0)
(8.62895 -0.0932784 0)
(8.63918 -0.0965728 0)
(8.6488 -0.0998474 0)
(8.65784 -0.103121 0)
(8.66636 -0.106407 0)
(8.67439 -0.109719 0)
(8.68198 -0.113064 0)
(8.68917 -0.116452 0)
(8.69602 -0.11989 0)
(8.70257 -0.123388 0)
(8.70888 -0.126958 0)
(8.71498 -0.130617 0)
(8.72094 -0.134379 0)
(8.33343 -0.00320323 0)
(8.33778 -0.00955129 0)
(8.34693 -0.0159792 0)
(8.35971 -0.0225951 0)
(8.37499 -0.0293605 0)
(8.39208 -0.0361672 0)
(8.41034 -0.0428907 0)
(8.42919 -0.0494124 0)
(8.44821 -0.0556347 0)
(8.46705 -0.0614903 0)
(8.48549 -0.0669439 0)
(8.50335 -0.0719872 0)
(8.52052 -0.076634 0)
(8.53693 -0.080914 0)
(8.55253 -0.0848673 0)
(8.56731 -0.0885401 0)
(8.58128 -0.0919806 0)
(8.59443 -0.0952363 0)
(8.60681 -0.0983521 0)
(8.61844 -0.101369 0)
(8.62936 -0.104323 0)
(8.6396 -0.107247 0)
(8.6492 -0.110165 0)
(8.65822 -0.113101 0)
(8.66668 -0.116074 0)
(8.67465 -0.119097 0)
(8.68216 -0.122185 0)
(8.68926 -0.125348 0)
(8.69599 -0.1286 0)
(8.7024 -0.131952 0)
(8.70855 -0.135418 0)
(8.71445 -0.139017 0)
(8.72018 -0.142762 0)
(8.33342 -0.00478405 0)
(8.33771 -0.0141935 0)
(8.34676 -0.0233492 0)
(8.35944 -0.0322346 0)
(8.37468 -0.0407888 0)
(8.3918 -0.0489279 0)
(8.41017 -0.0565719 0)
(8.42921 -0.0636597 0)
(8.44845 -0.0701555 0)
(8.46757 -0.0760504 0)
(8.48631 -0.0813605 0)
(8.50447 -0.0861217 0)
(8.52192 -0.0903844 0)
(8.53859 -0.0942079 0)
(8.55443 -0.0976563 0)
(8.56942 -0.100794 0)
(8.58355 -0.103684 0)
(8.59685 -0.106385 0)
(8.60932 -0.108951 0)
(8.62102 -0.111429 0)
(8.63197 -0.113861 0)
(8.64221 -0.116282 0)
(8.6518 -0.118724 0)
(8.66076 -0.121212 0)
(8.66917 -0.123766 0)
(8.67704 -0.126406 0)
(8.68444 -0.129146 0)
(8.69141 -0.132 0)
(8.69799 -0.134983 0)
(8.70423 -0.138109 0)
(8.71017 -0.141391 0)
(8.71585 -0.14485 0)
(8.72131 -0.148495 0)
(8.33343 -0.006409 0)
(8.33777 -0.0189721 0)
(8.34695 -0.0309609 0)
(8.35983 -0.0422417 0)
(8.37536 -0.0527328 0)
(8.39284 -0.0623739 0)
(8.41164 -0.0711273 0)
(8.43116 -0.0789848 0)
(8.45091 -0.0859659 0)
(8.47053 -0.0921128 0)
(8.48976 -0.0974869 0)
(8.50837 -0.102163 0)
(8.52625 -0.106224 0)
(8.54329 -0.109758 0)
(8.55945 -0.112851 0)
(8.5747 -0.115587 0)
(8.58904 -0.118044 0)
(8.60249 -0.120294 0)
(8.61508 -0.122399 0)
(8.62684 -0.124417 0)
(8.63782 -0.126395 0)
(8.64806 -0.128375 0)
(8.6576 -0.130392 0)
(8.6665 -0.132475 0)
(8.6748 -0.134649 0)
(8.68255 -0.136934 0)
(8.6898 -0.139348 0)
(8.6966 -0.141906 0)
(8.70298 -0.144624 0)
(8.70899 -0.147515 0)
(8.71466 -0.150593 0)
(8.72003 -0.153874 0)
(8.72514 -0.157365 0)
(8.33344 -0.00812293 0)
(8.33796 -0.0240079 0)
(8.34748 -0.0389679 0)
(8.36085 -0.0527317 0)
(8.37694 -0.0651793 0)
(8.39505 -0.0762616 0)
(8.41451 -0.085981 0)
(8.43469 -0.0943914 0)
(8.45511 -0.101584 0)
(8.47538 -0.10767 0)
(8.4952 -0.112773 0)
(8.51438 -0.117023 0)
(8.53275 -0.120547 0)
(8.55024 -0.123468 0)
(8.56677 -0.125901 0)
(8.58234 -0.12795 0)
(8.59693 -0.129712 0)
(8.61058 -0.131269 0)
(8.62331 -0.132694 0)
(8.63516 -0.134051 0)
(8.64618 -0.135394 0)
(8.65642 -0.136767 0)
(8.66592 -0.138209 0)
(8.67475 -0.139751 0)
(8.68294 -0.14142 0)
(8.69056 -0.143236 0)
(8.69764 -0.145219 0)
(8.70424 -0.147385 0)
(8.7104 -0.149746 0)
(8.71615 -0.152318 0)
(8.72155 -0.155111 0)
(8.72662 -0.15814 0)
(8.7314 -0.161408 0)
(8.33347 -0.00998285 0)
(8.33831 -0.029486 0)
(8.3485 -0.0477126 0)
(8.36278 -0.0642735 0)
(8.37992 -0.0790366 0)
(8.39915 -0.0919719 0)
(8.41976 -0.103111 0)
(8.44106 -0.112548 0)
(8.46252 -0.12042 0)
(8.48375 -0.126888 0)
(8.50444 -0.132123 0)
(8.52436 -0.136301 0)
(8.54338 -0.13959 0)
(8.56141 -0.142152 0)
(8.57839 -0.144133 0)
(8.59431 -0.145665 0)
(8.60917 -0.146867 0)
(8.62301 -0.14784 0)
(8.63587 -0.148671 0)
(8.64779 -0.149436 0)
(8.65882 -0.150196 0)
(8.66902 -0.151004 0)
(8.67844 -0.151901 0)
(8.68714 -0.152924 0)
(8.69518 -0.154099 0)
(8.70261 -0.15545 0)
(8.70947 -0.156996 0)
(8.71582 -0.158753 0)
(8.7217 -0.160733 0)
(8.72715 -0.162947 0)
(8.7322 -0.165404 0)
(8.73688 -0.168115 0)
(8.74123 -0.171076 0)
(8.33352 -0.012049 0)
(8.33879 -0.0355219 0)
(8.34988 -0.0571971 0)
(8.36533 -0.0765005 0)
(8.38374 -0.0932781 0)
(8.40431 -0.107552 0)
(8.42626 -0.119444 0)
(8.44887 -0.129162 0)
(8.47158 -0.13695 0)
(8.49397 -0.143064 0)
(8.51572 -0.147749 0)
(8.53659 -0.151241 0)
(8.55644 -0.153755 0)
(8.57517 -0.155486 0)
(8.59274 -0.156607 0)
(8.60914 -0.15727 0)
(8.62438 -0.157607 0)
(8.63851 -0.157731 0)
(8.65156 -0.157738 0)
(8.6636 -0.157707 0)
(8.67468 -0.157706 0)
(8.68487 -0.157789 0)
(8.69424 -0.158002 0)
(8.70283 -0.158379 0)
(8.71072 -0.158951 0)
(8.71797 -0.15974 0)
(8.72461 -0.160764 0)
(8.73071 -0.162038 0)
(8.73631 -0.163573 0)
(8.74145 -0.165377 0)
(8.74618 -0.167457 0)
(8.75051 -0.16982 0)
(8.75452 -0.172459 0)
(8.3336 -0.0144352 0)
(8.33966 -0.0425872 0)
(8.35232 -0.0685171 0)
(8.36979 -0.0915265 0)
(8.39041 -0.111449 0)
(8.41319 -0.128282 0)
(8.43724 -0.142131 0)
(8.46177 -0.153227 0)
(8.48618 -0.161874 0)
(8.51005 -0.168399 0)
(8.53306 -0.173126 0)
(8.55499 -0.176368 0)
(8.57572 -0.17841 0)
(8.59516 -0.17951 0)
(8.6133 -0.179891 0)
(8.63013 -0.179746 0)
(8.64569 -0.179239 0)
(8.66004 -0.178507 0)
(8.67322 -0.177664 0)
(8.68532 -0.176802 0)
(8.69638 -0.175996 0)
(8.7065 -0.175307 0)
(8.71574 -0.174782 0)
(8.72416 -0.174458 0)
(8.73184 -0.174364 0)
(8.73883 -0.174522 0)
(8.74518 -0.174949 0)
(8.75096 -0.175656 0)
(8.75621 -0.176651 0)
(8.76098 -0.177941 0)
(8.76529 -0.179525 0)
(8.76919 -0.181408 0)
(8.7727 -0.183575 0)
(8.33366 -0.0172037 0)
(8.34048 -0.0504554 0)
(8.35475 -0.0803371 0)
(8.37424 -0.105978 0)
(8.39707 -0.127425 0)
(8.42221 -0.144949 0)
(8.44866 -0.158895 0)
(8.47553 -0.169693 0)
(8.50214 -0.17778 0)
(8.52802 -0.183569 0)
(8.55281 -0.187442 0)
(8.57629 -0.189752 0)
(8.59832 -0.190811 0)
(8.61886 -0.190897 0)
(8.63787 -0.190249 0)
(8.6554 -0.189075 0)
(8.6715 -0.187551 0)
(8.68623 -0.185823 0)
(8.69968 -0.184014 0)
(8.71193 -0.182223 0)
(8.72306 -0.180531 0)
(8.73317 -0.179 0)
(8.74233 -0.177682 0)
(8.75062 -0.176615 0)
(8.75811 -0.175827 0)
(8.76488 -0.17534 0)
(8.77098 -0.17517 0)
(8.77647 -0.175326 0)
(8.78141 -0.175815 0)
(8.78585 -0.176639 0)
(8.78982 -0.177796 0)
(8.79336 -0.179286 0)
(8.79655 -0.181088 0)
(8.3339 -0.0207378 0)
(8.34277 -0.0612056 0)
(8.36064 -0.0978794 0)
(8.38429 -0.129559 0)
(8.41113 -0.156046 0)
(8.4399 -0.177389 0)
(8.46954 -0.193912 0)
(8.49913 -0.206185 0)
(8.52805 -0.214845 0)
(8.55587 -0.220507 0)
(8.58229 -0.223742 0)
(8.60713 -0.225061 0)
(8.6303 -0.224906 0)
(8.65174 -0.223649 0)
(8.67148 -0.221603 0)
(8.68956 -0.219024 0)
(8.70606 -0.21612 0)
(8.72106 -0.213059 0)
(8.73465 -0.209975 0)
(8.74694 -0.206972 0)
(8.75802 -0.204131 0)
(8.768 -0.201515 0)
(8.77695 -0.199172 0)
(8.78498 -0.197134 0)
(8.79215 -0.195428 0)
(8.79855 -0.194069 0)
(8.80423 -0.19307 0)
(8.80927 -0.192436 0)
(8.81372 -0.192169 0)
(8.81763 -0.192268 0)
(8.82105 -0.192726 0)
(8.82401 -0.193539 0)
(8.82655 -0.194679 0)
(8.33387 -0.0247737 0)
(8.34355 -0.0713759 0)
(8.36384 -0.111009 0)
(8.3909 -0.143431 0)
(8.42183 -0.169721 0)
(8.45517 -0.190551 0)
(8.48943 -0.206482 0)
(8.52336 -0.218166 0)
(8.55617 -0.226227 0)
(8.58736 -0.231233 0)
(8.61661 -0.233722 0)
(8.64375 -0.23419 0)
(8.66871 -0.233079 0)
(8.69153 -0.230777 0)
(8.71225 -0.227619 0)
(8.731 -0.223888 0)
(8.74789 -0.219819 0)
(8.76306 -0.215602 0)
(8.77664 -0.211392 0)
(8.78876 -0.207308 0)
(8.79955 -0.203442 0)
(8.80913 -0.199865 0)
(8.81762 -0.196625 0)
(8.8251 -0.193759 0)
(8.83169 -0.191291 0)
(8.83745 -0.189236 0)
(8.84247 -0.187601 0)
(8.84682 -0.18639 0)
(8.85056 -0.185602 0)
(8.85374 -0.185233 0)
(8.85643 -0.185273 0)
(8.85867 -0.185715 0)
(8.86055 -0.186522 0)
(8.33497 -0.0316373 0)
(8.35128 -0.09357 0)
(8.38027 -0.147474 0)
(8.41482 -0.191243 0)
(8.45148 -0.225244 0)
(8.48933 -0.250297 0)
(8.52719 -0.267722 0)
(8.564 -0.278999 0)
(8.59912 -0.28541 0)
(8.63214 -0.288026 0)
(8.6628 -0.287754 0)
(8.69097 -0.285332 0)
(8.71665 -0.281354 0)
(8.7399 -0.276296 0)
(8.76083 -0.270536 0)
(8.7796 -0.264371 0)
(8.79637 -0.258038 0)
(8.81131 -0.251719 0)
(8.82459 -0.245554 0)
(8.83637 -0.239649 0)
(8.8468 -0.234083 0)
(8.85603 -0.228911 0)
(8.86418 -0.224171 0)
(8.87135 -0.219888 0)
(8.87766 -0.216077 0)
(8.8832 -0.212743 0)
(8.88803 -0.20989 0)
(8.89224 -0.207515 0)
(8.89588 -0.205616 0)
(8.89902 -0.204188 0)
(8.90171 -0.203225 0)
(8.90401 -0.20272 0)
(8.90596 -0.202629 0)
(8.33402 -0.0366048 0)
(8.34983 -0.0996933 0)
(8.38368 -0.148917 0)
(8.42634 -0.189009 0)
(8.47231 -0.221952 0)
(8.51918 -0.247492 0)
(8.56482 -0.266086 0)
(8.60806 -0.278634 0)
(8.64853 -0.285991 0)
(8.68619 -0.289033 0)
(8.72105 -0.288645 0)
(8.75328 -0.285641 0)
(8.78303 -0.280727 0)
(8.8105 -0.274499 0)
(8.83584 -0.267448 0)
(8.85922 -0.25996 0)
(8.88079 -0.252338 0)
(8.90068 -0.24481 0)
(8.91902 -0.237546 0)
(8.93594 -0.230665 0)
(8.95156 -0.224252 0)
(8.96598 -0.21836 0)
(8.97929 -0.21302 0)
(8.99161 -0.208245 0)
(9.00301 -0.204039 0)
(9.01356 -0.200397 0)
(9.02334 -0.197309 0)
(9.03241 -0.194765 0)
(9.04083 -0.192759 0)
(9.04865 -0.191286 0)
(9.05594 -0.190349 0)
(9.06278 -0.189953 0)
(9.06927 -0.190069 0)
(8.33959 -0.0607026 0)
(8.37699 -0.17036 0)
(8.42613 -0.249106 0)
(8.47581 -0.302556 0)
(8.52808 -0.337823 0)
(8.58447 -0.359296 0)
(8.64338 -0.371075 0)
(8.70352 -0.376252 0)
(8.76395 -0.376784 0)
(8.82359 -0.373999 0)
(8.88144 -0.36884 0)
(8.93675 -0.361978 0)
(8.98901 -0.353913 0)
(9.03786 -0.345037 0)
(9.08314 -0.335662 0)
(9.1248 -0.326048 0)
(9.16292 -0.316412 0)
(9.19762 -0.30693 0)
(9.22911 -0.297745 0)
(9.2576 -0.288967 0)
(9.28332 -0.280679 0)
(9.3065 -0.272939 0)
(9.32736 -0.265783 0)
(9.34611 -0.259232 0)
(9.36295 -0.253292 0)
(9.37804 -0.247961 0)
(9.39154 -0.243233 0)
(9.40358 -0.239099 0)
(9.41427 -0.235564 0)
(9.42371 -0.232632 0)
(9.432 -0.230361 0)
(9.43921 -0.228755 0)
(9.44556 -0.228013 0)
(8.33758 -0.0466831 0)
(8.39343 -0.121397 0)
(8.49359 -0.185677 0)
(8.60828 -0.247761 0)
(8.73002 -0.301155 0)
(8.8533 -0.342698 0)
(8.97121 -0.373114 0)
(9.07962 -0.393295 0)
(9.17632 -0.404396 0)
(9.26011 -0.408002 0)
(9.33073 -0.405736 0)
(9.38862 -0.399058 0)
(9.43465 -0.389229 0)
(9.46992 -0.377295 0)
(9.49567 -0.364092 0)
(9.51312 -0.350274 0)
(9.52344 -0.336339 0)
(9.52771 -0.322655 0)
(9.52689 -0.309482 0)
(9.52182 -0.297001 0)
(9.51322 -0.285321 0)
(9.50173 -0.274505 0)
(9.48785 -0.264575 0)
(9.47201 -0.255525 0)
(9.45459 -0.247326 0)
(9.43584 -0.239936 0)
(9.41602 -0.233302 0)
(9.39527 -0.227373 0)
(9.37372 -0.222107 0)
(9.3514 -0.217474 0)
(9.32844 -0.213569 0)
(9.30452 -0.210339 0)
(9.2804 -0.208861 0)
(8.40924 -0.221446 0)
(8.63495 -0.428781 0)
(8.83302 -0.523383 0)
(8.97654 -0.584327 0)
(9.06986 -0.617426 0)
(9.11199 -0.62829 0)
(9.10723 -0.624501 0)
(9.065 -0.610132 0)
(8.99416 -0.588014 0)
(8.90216 -0.560711 0)
(8.79547 -0.530279 0)
(8.67944 -0.498297 0)
(8.55825 -0.465985 0)
(8.43508 -0.434254 0)
(8.31229 -0.40375 0)
(8.19157 -0.374901 0)
(8.07407 -0.347966 0)
(7.96054 -0.323073 0)
(7.85142 -0.300254 0)
(7.74693 -0.279473 0)
(7.6471 -0.26065 0)
(7.55186 -0.243672 0)
(7.46106 -0.228408 0)
(7.3745 -0.214719 0)
(7.29196 -0.202454 0)
(7.21318 -0.191467 0)
(7.1379 -0.181598 0)
(7.06586 -0.172698 0)
(6.99676 -0.164582 0)
(6.93019 -0.157079 0)
(6.86578 -0.150081 0)
(6.80242 -0.142667 0)
(6.74055 -0.13864 0)
(8.13705 -0.207247 0)
(7.84745 -0.388275 0)
(7.38474 -0.43974 0)
(6.85873 -0.44045 0)
(6.35844 -0.409199 0)
(5.88676 -0.360284 0)
(5.4463 -0.305988 0)
(5.04447 -0.252706 0)
(4.68232 -0.203658 0)
(4.35788 -0.160457 0)
(4.0688 -0.123547 0)
(3.81221 -0.0927027 0)
(3.58494 -0.0673804 0)
(3.38385 -0.0468895 0)
(3.20592 -0.030505 0)
(3.04838 -0.0175419 0)
(2.90869 -0.00738924 0)
(2.78457 0.000478997 0)
(2.674 0.00650446 0)
(2.57519 0.0110518 0)
(2.48658 0.0144189 0)
(2.40682 0.0168475 0)
(2.33473 0.0185339 0)
(2.26927 0.0196384 0)
(2.20958 0.0202977 0)
(2.15492 0.0206298 0)
(2.10463 0.0207654 0)
(2.05828 0.020835 0)
(2.0153 0.0210845 0)
(1.9759 0.021844 0)
(1.93904 0.0234829 0)
(1.90709 0.0288559 0)
(1.87759 0.0235255 0)