/*--------------------------------*- C++ -*----------------------------------*\
| =========                 |                                                 |
| \\      /  F ield         | OpenFOAM: The Open Source CFD Toolbox           |
|  \\    /   O peration     | Version:  2.1.1                                 |
|   \\  /    A nd           | Web:      www.OpenFOAM.org                      |
|    \\/     M anipulation  |                                                 |
\*---------------------------------------------------------------------------*/
FoamFile
{
    version     2.0;
    format      ascii;
    class       volScalarField;
    location    "0.12";
    object      nuSgs;
}
// * * * * * * * * * * * * * * * * * * * * * * * * * * * * * * * * * * * * * //

dimensions      [0 2 -1 0 0 0 0];

internalField   nonuniform List<scalar> 
6820
(
0.000556014
0.000457433
0.00036821
0.000306251
0.000269116
0.000243561
0.000224773
0.000210424
0.000198853
0.000189153
0.000180812
0.000173498
0.00016699
0.000161134
0.000155819
0.000150961
0.000146494
0.000142372
0.000138554
0.000135009
0.000131714
0.000128648
0.0001258
0.000123154
0.000120698
0.000118426
0.00011633
0.00011441
0.000112653
0.00011108
0.000109652
0.000108275
0.000106807
0.00010349
0.000170644
0.000223624
0.000240003
0.00023527
0.000224937
0.000213275
0.000202026
0.00019183
0.000182703
0.000174527
0.000167166
0.000160498
0.000154421
0.000148849
0.000143715
0.00013896
0.000134538
0.000130408
0.000126537
0.000122896
0.000119464
0.000116218
0.000113142
0.000110222
0.000107448
0.000104814
0.000102303
9.99282e-05
9.7634e-05
9.55902e-05
9.33884e-05
9.26756e-05
3.6776e-05
2.84856e-05
4.55774e-05
8.22208e-05
0.000107836
0.000123418
0.000131845
0.000135705
0.000136823
0.000136268
0.000134679
0.000132451
0.000129833
0.000126986
0.000124018
0.000120998
0.000117974
0.000114976
0.000112025
0.000109133
0.000106309
0.000103555
0.000100872
9.82574e-05
9.57145e-05
9.3236e-05
9.08192e-05
8.84621e-05
8.61678e-05
8.39199e-05
8.17587e-05
7.95592e-05
7.76251e-05
2.07365e-05
2.86929e-05
2.65808e-05
1.51341e-05
3.67726e-06
1.37263e-05
2.55061e-05
3.52852e-05
4.31649e-05
4.9419e-05
5.4322e-05
5.81167e-05
6.10042e-05
6.31414e-05
6.46598e-05
6.56686e-05
6.62568e-05
6.64975e-05
6.64507e-05
6.61653e-05
6.56813e-05
6.50309e-05
6.42419e-05
6.33364e-05
6.23308e-05
6.12354e-05
6.00562e-05
5.88012e-05
5.74825e-05
5.61028e-05
5.46843e-05
5.32248e-05
5.18293e-05
1.44176e-05
1.75964e-05
2.26145e-05
2.43077e-05
2.3987e-05
2.20277e-05
1.91694e-05
1.59505e-05
1.26026e-05
9.27477e-06
6.07492e-06
3.08652e-06
7.51948e-07
2.49457e-06
4.76716e-06
6.82838e-06
8.65811e-06
1.02616e-05
1.16497e-05
1.28353e-05
1.38313e-05
1.46508e-05
1.53061e-05
1.58082e-05
1.61678e-05
1.63981e-05
1.65119e-05
1.6514e-05
1.64138e-05
1.62156e-05
1.59295e-05
1.55587e-05
1.5107e-05
1.09161e-05
1.2511e-05
1.38398e-05
1.43429e-05
1.51167e-05
1.57437e-05
1.61107e-05
1.6312e-05
1.63526e-05
1.6238e-05
1.59925e-05
1.56398e-05
1.52041e-05
1.47011e-05
1.41495e-05
1.3567e-05
1.29691e-05
1.23691e-05
1.1778e-05
1.12048e-05
1.06566e-05
1.01392e-05
9.65683e-06
9.21222e-06
8.80769e-06
8.44394e-06
8.11574e-06
7.82349e-06
7.56652e-06
7.34694e-06
7.1649e-06
7.02977e-06
6.95622e-06
8.23868e-06
9.44105e-06
1.02691e-05
1.00688e-05
9.87686e-06
9.69364e-06
9.50289e-06
9.40766e-06
9.39737e-06
9.42817e-06
9.47332e-06
9.5153e-06
9.54247e-06
9.5526e-06
9.54388e-06
9.51548e-06
9.46779e-06
9.40201e-06
9.3198e-06
9.22303e-06
9.1137e-06
8.99368e-06
8.86501e-06
8.7284e-06
8.58805e-06
8.44489e-06
8.3041e-06
8.16763e-06
8.03748e-06
7.91727e-06
7.81015e-06
7.72842e-06
7.6884e-06
6.35314e-06
7.42133e-06
8.23908e-06
8.10603e-06
7.7966e-06
7.45704e-06
7.07938e-06
6.75541e-06
6.50409e-06
6.30468e-06
6.14439e-06
6.0143e-06
5.90562e-06
5.81178e-06
5.72856e-06
5.653e-06
5.58279e-06
5.51619e-06
5.45193e-06
5.38914e-06
5.32724e-06
5.26599e-06
5.20525e-06
5.1458e-06
5.08738e-06
5.03169e-06
4.97997e-06
4.93319e-06
4.89331e-06
4.86384e-06
4.8489e-06
4.85772e-06
4.90411e-06
4.99101e-06
5.87009e-06
6.56554e-06
6.56454e-06
6.39886e-06
6.19263e-06
5.91107e-06
5.62715e-06
5.37964e-06
5.16493e-06
4.97831e-06
4.81643e-06
4.67453e-06
4.54853e-06
4.43568e-06
4.33391e-06
4.24165e-06
4.1577e-06
4.0812e-06
4.01154e-06
3.94825e-06
3.89107e-06
3.83972e-06
3.79437e-06
3.75454e-06
3.72087e-06
3.69385e-06
3.67404e-06
3.66299e-06
3.66357e-06
3.67928e-06
3.71577e-06
3.78347e-06
3.98383e-06
4.71706e-06
5.33284e-06
5.41094e-06
5.31226e-06
5.16639e-06
4.95219e-06
4.72546e-06
4.52435e-06
4.34819e-06
4.19258e-06
4.05545e-06
3.93383e-06
3.82488e-06
3.72665e-06
3.63782e-06
3.55733e-06
3.48443e-06
3.41852e-06
3.35915e-06
3.30601e-06
3.25887e-06
3.21761e-06
3.18215e-06
3.1526e-06
3.12918e-06
3.11214e-06
3.10211e-06
3.10036e-06
3.10895e-06
3.13037e-06
3.16727e-06
3.22685e-06
3.22282e-06
3.84255e-06
4.38946e-06
4.51047e-06
4.46144e-06
4.36548e-06
4.20826e-06
4.02749e-06
3.85836e-06
3.70547e-06
3.56762e-06
3.44491e-06
3.3361e-06
3.2392e-06
3.15267e-06
3.0753e-06
3.00609e-06
2.94422e-06
2.88904e-06
2.84007e-06
2.79694e-06
2.7594e-06
2.72729e-06
2.70056e-06
2.6792e-06
2.66334e-06
2.65329e-06
2.64958e-06
2.653e-06
2.66475e-06
2.68616e-06
2.71781e-06
2.76455e-06
2.63488e-06
3.16497e-06
3.66061e-06
3.8179e-06
3.81548e-06
3.75876e-06
3.64168e-06
3.49338e-06
3.34741e-06
3.21248e-06
3.0893e-06
2.97876e-06
2.88046e-06
2.79302e-06
2.71518e-06
2.64597e-06
2.5845e-06
2.53008e-06
2.48211e-06
2.44013e-06
2.40376e-06
2.37272e-06
2.34676e-06
2.32577e-06
2.30967e-06
2.29848e-06
2.29232e-06
2.29138e-06
2.29597e-06
2.30655e-06
2.32355e-06
2.34632e-06
2.37799e-06
2.1704e-06
2.63207e-06
3.0897e-06
3.27282e-06
3.30645e-06
3.28061e-06
3.1974e-06
3.07994e-06
2.9576e-06
2.84064e-06
2.73122e-06
2.63114e-06
2.54102e-06
2.46037e-06
2.38844e-06
2.32458e-06
2.26812e-06
2.21844e-06
2.17501e-06
2.13735e-06
2.10505e-06
2.07776e-06
2.0552e-06
2.03714e-06
2.0234e-06
2.01385e-06
2.00839e-06
2.00697e-06
2.00954e-06
2.01603e-06
2.02626e-06
2.03892e-06
2.05605e-06
1.79579e-06
2.20636e-06
2.63563e-06
2.83895e-06
2.90373e-06
2.90524e-06
2.85053e-06
2.75872e-06
2.65568e-06
2.55304e-06
2.45461e-06
2.36305e-06
2.27974e-06
2.20475e-06
2.13769e-06
2.07809e-06
2.02541e-06
1.97912e-06
1.93871e-06
1.90371e-06
1.87371e-06
1.84833e-06
1.82725e-06
1.81015e-06
1.79676e-06
1.78682e-06
1.78007e-06
1.77624e-06
1.77499e-06
1.77586e-06
1.77827e-06
1.78065e-06
1.78429e-06
1.48759e-06
1.86166e-06
2.27051e-06
2.49017e-06
2.58085e-06
2.60508e-06
2.57352e-06
2.50333e-06
2.41745e-06
2.328e-06
2.23982e-06
2.15607e-06
2.07864e-06
2.00811e-06
1.94448e-06
1.88753e-06
1.83691e-06
1.79221e-06
1.753e-06
1.71885e-06
1.68934e-06
1.66409e-06
1.64271e-06
1.62485e-06
1.61014e-06
1.59822e-06
1.58869e-06
1.58111e-06
1.57495e-06
1.56955e-06
1.56413e-06
1.5571e-06
1.54928e-06
1.2292e-06
1.5793e-06
1.97413e-06
2.20733e-06
2.31992e-06
2.36402e-06
2.35243e-06
2.30101e-06
2.23011e-06
2.15189e-06
2.07206e-06
1.99438e-06
1.92122e-06
1.85368e-06
1.79211e-06
1.73651e-06
1.68672e-06
1.6424e-06
1.60319e-06
1.56868e-06
1.53847e-06
1.51217e-06
1.48935e-06
1.46961e-06
1.45253e-06
1.43767e-06
1.42454e-06
1.41259e-06
1.4012e-06
1.3896e-06
1.37694e-06
1.36173e-06
1.34448e-06
1.00863e-06
1.34595e-06
1.73223e-06
1.97699e-06
2.10819e-06
2.16954e-06
2.17487e-06
2.13929e-06
2.08119e-06
2.01261e-06
1.93992e-06
1.86733e-06
1.79759e-06
1.73217e-06
1.67171e-06
1.61645e-06
1.56636e-06
1.52124e-06
1.48081e-06
1.44472e-06
1.4126e-06
1.38406e-06
1.35869e-06
1.33606e-06
1.31572e-06
1.29718e-06
1.27992e-06
1.26333e-06
1.24676e-06
1.22941e-06
1.21045e-06
1.18857e-06
1.16407e-06
8.17287e-07
1.1523e-06
1.53468e-06
1.78946e-06
1.93648e-06
2.01286e-06
2.03281e-06
2.0109e-06
1.96394e-06
1.90367e-06
1.83691e-06
1.76825e-06
1.70078e-06
1.63631e-06
1.57581e-06
1.51974e-06
1.46824e-06
1.42125e-06
1.37857e-06
1.33993e-06
1.30498e-06
1.27337e-06
1.24469e-06
1.21852e-06
1.19438e-06
1.1718e-06
1.15022e-06
1.12905e-06
1.10761e-06
1.08518e-06
1.06098e-06
1.03389e-06
1.00408e-06
6.49233e-07
9.92261e-07
1.37451e-06
1.63795e-06
1.79838e-06
1.88782e-06
1.92035e-06
1.91008e-06
1.87258e-06
1.81924e-06
1.75721e-06
1.69142e-06
1.62527e-06
1.56086e-06
1.49944e-06
1.44166e-06
1.38786e-06
1.33809e-06
1.29225e-06
1.25016e-06
1.21154e-06
1.17607e-06
1.14339e-06
1.1131e-06
1.08476e-06
1.0579e-06
1.03199e-06
1.00648e-06
9.80737e-07
9.54094e-07
9.25855e-07
8.95086e-07
8.61879e-07
5.01283e-07
8.62595e-07
1.24718e-06
1.51788e-06
1.68948e-06
1.79012e-06
1.83345e-06
1.8331e-06
1.80363e-06
1.7561e-06
1.69784e-06
1.63405e-06
1.56839e-06
1.50323e-06
1.44007e-06
1.37979e-06
1.32286e-06
1.2695e-06
1.21972e-06
1.17343e-06
1.13042e-06
1.09044e-06
1.05318e-06
1.0183e-06
9.85401e-07
9.54058e-07
9.23797e-07
8.94111e-07
8.64443e-07
8.34215e-07
8.02824e-07
7.69521e-07
7.3438e-07
3.74533e-07
7.62764e-07
1.15011e-06
1.42632e-06
1.60694e-06
1.71702e-06
1.7695e-06
1.77745e-06
1.75463e-06
1.71169e-06
1.65611e-06
1.59331e-06
1.52716e-06
1.46032e-06
1.39449e-06
1.33078e-06
1.26984e-06
1.21202e-06
1.15747e-06
1.1062e-06
1.05809e-06
1.01299e-06
9.70662e-07
9.30826e-07
8.93165e-07
8.57319e-07
8.22887e-07
7.89439e-07
7.56497e-07
7.23576e-07
6.90151e-07
6.55628e-07
6.20027e-07
2.79531e-07
6.94618e-07
1.08223e-06
1.36172e-06
1.5492e-06
1.667e-06
1.72712e-06
1.74202e-06
1.7247e-06
1.68551e-06
1.63195e-06
1.56961e-06
1.50257e-06
1.43369e-06
1.36488e-06
1.29741e-06
1.2321e-06
1.16944e-06
1.10969e-06
1.05297e-06
9.99281e-07
9.48536e-07
9.00604e-07
8.55299e-07
8.12393e-07
7.71621e-07
7.3268e-07
6.95239e-07
6.58921e-07
6.23357e-07
5.88119e-07
5.52784e-07
5.17385e-07
2.4414e-07
6.6147e-07
1.04361e-06
1.32355e-06
1.51564e-06
1.63938e-06
1.70555e-06
1.72585e-06
1.71261e-06
1.67582e-06
1.623e-06
1.55988e-06
1.49073e-06
1.41862e-06
1.34568e-06
1.27339e-06
1.20272e-06
1.13432e-06
1.06858e-06
1.00572e-06
9.45858e-07
8.89002e-07
8.35115e-07
7.84111e-07
7.35862e-07
6.90207e-07
6.46948e-07
6.05861e-07
5.66673e-07
5.2912e-07
4.92843e-07
4.57542e-07
4.23186e-07
2.89188e-07
6.66192e-07
1.03503e-06
1.31221e-06
1.50674e-06
1.63494e-06
1.70607e-06
1.731e-06
1.72142e-06
1.68699e-06
1.63514e-06
1.57166e-06
1.50095e-06
1.42621e-06
1.34973e-06
1.27313e-06
1.19754e-06
1.1237e-06
1.05214e-06
9.83179e-07
9.17024e-07
8.53795e-07
7.93548e-07
7.36296e-07
6.8202e-07
6.30673e-07
5.82177e-07
5.36443e-07
4.9333e-07
4.52731e-07
4.14409e-07
3.78315e-07
3.44345e-07
3.91504e-07
7.09288e-07
1.05754e-06
1.32865e-06
1.52327e-06
1.65389e-06
1.72794e-06
1.75529e-06
1.74704e-06
1.71256e-06
1.65929e-06
1.59316e-06
1.51874e-06
1.43946e-06
1.35779e-06
1.27553e-06
1.19393e-06
1.11388e-06
1.03598e-06
9.60641e-07
8.88145e-07
8.18674e-07
7.52351e-07
6.89258e-07
6.2945e-07
5.72962e-07
5.1981e-07
4.70004e-07
4.23511e-07
3.80335e-07
3.40318e-07
3.03558e-07
2.69834e-07
5.25487e-07
7.88821e-07
1.11222e-06
1.37484e-06
1.56821e-06
1.70096e-06
1.77851e-06
1.8096e-06
1.8046e-06
1.77244e-06
1.72033e-06
1.65412e-06
1.57843e-06
1.49678e-06
1.4118e-06
1.32543e-06
1.2391e-06
1.15383e-06
1.07038e-06
9.89255e-07
9.10854e-07
8.35444e-07
7.63229e-07
6.94362e-07
6.28962e-07
5.67134e-07
5.08962e-07
4.54536e-07
4.03912e-07
3.57232e-07
3.14424e-07
2.75995e-07
2.41216e-07
6.82608e-07
9.03095e-07
1.20104e-06
1.45295e-06
1.64218e-06
1.77329e-06
1.84956e-06
1.87884e-06
1.87122e-06
1.83563e-06
1.77942e-06
1.70861e-06
1.62801e-06
1.54125e-06
1.45109e-06
1.35953e-06
1.26807e-06
1.17778e-06
1.08945e-06
1.00364e-06
9.20758e-07
8.41128e-07
7.6498e-07
6.92506e-07
6.23862e-07
5.5919e-07
4.98614e-07
4.42262e-07
3.90223e-07
3.42657e-07
2.99497e-07
2.61242e-07
2.2692e-07
8.62573e-07
1.05049e-06
1.3253e-06
1.56753e-06
1.75547e-06
1.89028e-06
1.97258e-06
2.00835e-06
2.00653e-06
1.97529e-06
1.92159e-06
1.85142e-06
1.76975e-06
1.68048e-06
1.58669e-06
1.49069e-06
1.39427e-06
1.29876e-06
1.20513e-06
1.11412e-06
1.02628e-06
9.42007e-07
8.61624e-07
7.85373e-07
7.13454e-07
6.46039e-07
5.83267e-07
5.25273e-07
4.7213e-07
4.23985e-07
3.80666e-07
3.42786e-07
3.08392e-07
1.07106e-06
1.23696e-06
1.49262e-06
1.72184e-06
1.89932e-06
2.02428e-06
2.09657e-06
2.12268e-06
2.11228e-06
2.07389e-06
2.01448e-06
1.93985e-06
1.85472e-06
1.76272e-06
1.6667e-06
1.56881e-06
1.47074e-06
1.37375e-06
1.27882e-06
1.18672e-06
1.09803e-06
1.01319e-06
9.32571e-07
8.5645e-07
7.85051e-07
7.18544e-07
6.57048e-07
6.00642e-07
5.49317e-07
5.03062e-07
4.61584e-07
4.25124e-07
3.91896e-07
1.31256e-06
1.45908e-06
1.70123e-06
1.93009e-06
2.11914e-06
2.26238e-06
2.35339e-06
2.39474e-06
2.39458e-06
2.36124e-06
2.30225e-06
2.22442e-06
2.13349e-06
2.03407e-06
1.92974e-06
1.82324e-06
1.71663e-06
1.61147e-06
1.50887e-06
1.40968e-06
1.31449e-06
1.22376e-06
1.13778e-06
1.05677e-06
9.80873e-07
9.10165e-07
8.44654e-07
7.84305e-07
7.28985e-07
6.78592e-07
6.32684e-07
5.916e-07
5.52806e-07
1.60781e-06
1.75179e-06
1.98147e-06
2.1835e-06
2.33768e-06
2.44665e-06
2.50973e-06
2.53233e-06
2.52267e-06
2.48717e-06
2.4309e-06
2.35849e-06
2.27408e-06
2.18118e-06
2.08274e-06
1.98124e-06
1.87872e-06
1.77682e-06
1.67684e-06
1.57976e-06
1.48635e-06
1.39717e-06
1.31258e-06
1.23284e-06
1.15808e-06
1.08831e-06
1.02349e-06
9.63496e-07
9.08127e-07
8.57182e-07
8.10249e-07
7.67458e-07
7.26866e-07
1.94902e-06
2.06978e-06
2.31146e-06
2.56453e-06
2.78744e-06
2.95775e-06
3.06039e-06
3.09965e-06
3.08883e-06
3.04032e-06
2.96433e-06
2.86942e-06
2.76228e-06
2.64785e-06
2.5297e-06
2.41044e-06
2.29193e-06
2.17554e-06
2.06225e-06
1.95277e-06
1.84761e-06
1.74711e-06
1.65149e-06
1.56086e-06
1.47525e-06
1.3946e-06
1.31883e-06
1.24777e-06
1.18121e-06
1.11902e-06
1.06077e-06
1.00684e-06
9.54675e-07
2.43056e-06
2.5841e-06
2.773e-06
2.90222e-06
3.00283e-06
3.09599e-06
3.17118e-06
3.22003e-06
3.24023e-06
3.23078e-06
3.19293e-06
3.13053e-06
3.04842e-06
2.95142e-06
2.8439e-06
2.72968e-06
2.6119e-06
2.49304e-06
2.37502e-06
2.25927e-06
2.14681e-06
2.03835e-06
1.93435e-06
1.83503e-06
1.7405e-06
1.65073e-06
1.56561e-06
1.48497e-06
1.40863e-06
1.33647e-06
1.26821e-06
1.20427e-06
1.14272e-06
2.90739e-06
3.01351e-06
3.39138e-06
3.79192e-06
4.09354e-06
4.27355e-06
4.34071e-06
4.32579e-06
4.25847e-06
4.15679e-06
4.03185e-06
3.89156e-06
3.74142e-06
3.58529e-06
3.42618e-06
3.26663e-06
3.10877e-06
2.95437e-06
2.80487e-06
2.66135e-06
2.52461e-06
2.39516e-06
2.27323e-06
2.15888e-06
2.05196e-06
1.9522e-06
1.85924e-06
1.77265e-06
1.692e-06
1.61697e-06
1.54708e-06
1.48305e-06
1.42216e-06
3.94689e-06
4.04939e-06
3.95364e-06
3.8661e-06
3.95702e-06
4.15831e-06
4.34629e-06
4.46998e-06
4.5252e-06
4.52148e-06
4.47532e-06
4.40489e-06
4.32487e-06
4.24533e-06
4.17236e-06
4.10895e-06
4.0558e-06
4.01226e-06
3.97701e-06
3.94845e-06
3.92502e-06
3.90532e-06
3.88813e-06
3.87246e-06
3.85746e-06
3.84243e-06
3.82675e-06
3.8099e-06
3.79151e-06
3.7714e-06
3.74954e-06
3.72742e-06
3.70333e-06
4.40532e-06
4.96361e-06
5.92513e-06
6.39503e-06
6.49619e-06
6.4579e-06
6.43692e-06
6.54014e-06
6.79768e-06
7.17659e-06
7.6254e-06
8.09802e-06
8.5594e-06
8.98609e-06
9.36464e-06
9.68884e-06
9.95729e-06
1.01716e-05
1.03353e-05
1.04526e-05
1.05284e-05
1.05674e-05
1.05741e-05
1.05525e-05
1.05064e-05
1.04388e-05
1.03523e-05
1.0249e-05
1.01307e-05
9.99844e-06
9.85393e-06
9.69923e-06
9.53591e-06
7.59623e-06
5.84961e-06
4.61131e-06
6.1786e-06
8.90788e-06
1.16221e-05
1.3959e-05
1.58563e-05
1.73116e-05
1.83385e-05
1.89733e-05
1.92636e-05
1.92589e-05
1.90088e-05
1.85603e-05
1.79565e-05
1.72351e-05
1.64288e-05
1.55647e-05
1.46653e-05
1.37485e-05
1.28284e-05
1.19161e-05
1.10196e-05
1.01448e-05
9.29543e-06
8.47386e-06
7.68048e-06
6.91507e-06
6.174e-06
5.45792e-06
4.75454e-06
4.07902e-06
8.59088e-06
1.47064e-05
1.87925e-05
2.11805e-05
2.22502e-05
2.17522e-05
1.98633e-05
1.70402e-05
1.37633e-05
1.06879e-05
8.89258e-06
9.46344e-06
1.20174e-05
1.5426e-05
1.90294e-05
2.25415e-05
2.58373e-05
2.88633e-05
3.16004e-05
3.40484e-05
3.62174e-05
3.81228e-05
3.97831e-05
4.12176e-05
4.24457e-05
4.34861e-05
4.43569e-05
4.50758e-05
4.56599e-05
4.61308e-05
4.6504e-05
4.68387e-05
4.71244e-05
3.46784e-05
3.7251e-05
4.67112e-05
6.18771e-05
7.76327e-05
9.30856e-05
0.000107531
0.000120259
0.000131081
0.000140041
0.000147249
0.000152868
0.000157087
0.000160091
0.000162056
0.00016314
0.000163485
0.000163215
0.000162437
0.000161242
0.000159708
0.000157899
0.000155871
0.000153668
0.000151329
0.000148885
0.00014636
0.000143773
0.000141141
0.00013847
0.000135761
0.000133105
0.000130515
0.000608471
0.00058251
0.000556845
0.000530316
0.000504224
0.000478892
0.000454361
0.000430905
0.000408708
0.000387827
0.00036828
0.000350053
0.000333099
0.000317351
0.000302731
0.000289156
0.000276541
0.000264805
0.000253869
0.000243659
0.000234108
0.000225154
0.000216741
0.000208817
0.000201339
0.000194264
0.000187556
0.000181178
0.000175093
0.000169279
0.000163606
0.000158607
0.000154051
9.40104e-05
8.78499e-05
8.29343e-05
8.04377e-05
8.0405e-05
8.31534e-05
8.81306e-05
9.47461e-05
0.000102088
0.000108687
0.000111917
9.99957e-05
7.33009e-05
6.10719e-05
5.81483e-05
5.26716e-05
4.48631e-05
3.59972e-05
2.67137e-05
1.79166e-05
1.03301e-05
1.07591e-05
1.88348e-05
1.70897e-05
1.65679e-05
2.54598e-05
3.77704e-05
4.58571e-05
4.58462e-05
4.19839e-05
3.86073e-05
3.67855e-05
3.70928e-05
3.84906e-05
4.03042e-05
4.27822e-05
4.25721e-05
3.98598e-05
3.67069e-05
3.38229e-05
3.09078e-05
2.74133e-05
2.29623e-05
1.74832e-05
1.10242e-05
4.37496e-06
1.46174e-06
6.82751e-06
1.58998e-05
2.99338e-05
4.18382e-05
4.45613e-05
3.94097e-05
3.21881e-05
2.64992e-05
2.24659e-05
1.92953e-05
1.66953e-05
1.46918e-05
1.32666e-05
1.2279e-05
1.15916e-05
1.11537e-05
1.09428e-05
1.10963e-05
1.23508e-05
1.52887e-05
2.16077e-05
3.41926e-05
4.66499e-05
5.21241e-05
5.0696e-05
4.49888e-05
3.67209e-05
2.68348e-05
1.60969e-05
4.56746e-06
1.00208e-05
2.87279e-05
4.63837e-05
5.48738e-05
5.14225e-05
4.0408e-05
2.82425e-05
1.88826e-05
1.30375e-05
9.55987e-06
7.20828e-06
5.40851e-06
4.00847e-06
2.94222e-06
2.13265e-06
1.51155e-06
1.04385e-06
7.06443e-07
5.00018e-07
4.165e-07
4.06261e-07
5.13753e-07
4.82254e-07
0.000119187
0.000113868
0.000107098
0.000100574
9.47415e-05
9.04545e-05
8.88082e-05
9.00193e-05
9.32248e-05
9.7273e-05
0.000102477
0.00010859
9.88213e-05
7.1486e-05
5.61221e-05
5.26031e-05
4.70876e-05
3.88903e-05
3.00034e-05
2.19086e-05
1.59822e-05
1.82639e-05
1.80585e-05
1.03145e-05
1.58998e-05
2.74104e-05
4.05872e-05
4.61572e-05
4.41063e-05
4.00162e-05
3.71171e-05
3.55654e-05
3.5532e-05
3.70881e-05
3.87806e-05
4.14182e-05
4.25128e-05
4.02959e-05
3.68599e-05
3.35968e-05
3.03832e-05
2.67318e-05
2.22921e-05
1.69667e-05
1.09721e-05
5.40588e-06
2.00817e-06
8.19323e-06
2.08344e-05
3.61532e-05
4.53481e-05
4.46085e-05
3.79857e-05
3.10946e-05
2.60598e-05
2.2358e-05
1.93324e-05
1.68415e-05
1.49249e-05
1.35473e-05
1.2573e-05
1.18798e-05
1.14416e-05
1.12469e-05
1.13807e-05
1.25204e-05
1.53921e-05
2.11082e-05
3.33422e-05
4.69835e-05
5.38123e-05
5.29451e-05
4.71757e-05
3.85991e-05
2.83228e-05
1.73272e-05
6.66222e-06
1.27772e-05
3.22258e-05
4.99126e-05
5.70701e-05
5.19061e-05
3.98459e-05
2.75619e-05
1.86294e-05
1.31956e-05
9.84057e-06
7.43658e-06
5.56946e-06
4.13284e-06
3.04426e-06
2.2112e-06
1.56523e-06
1.07582e-06
7.20958e-07
5.02759e-07
4.14052e-07
4.08686e-07
5.21278e-07
5.00606e-07
0.000101229
0.000100446
9.70169e-05
9.12104e-05
8.41203e-05
7.73593e-05
7.27486e-05
7.14164e-05
7.30327e-05
7.64883e-05
8.0891e-05
8.74467e-05
9.55364e-05
8.92105e-05
6.6251e-05
4.92382e-05
4.42432e-05
4.00122e-05
3.38361e-05
2.70882e-05
2.24793e-05
1.91161e-05
7.65703e-06
7.74122e-06
1.68143e-05
3.18666e-05
4.36572e-05
4.55149e-05
4.18429e-05
3.79425e-05
3.5504e-05
3.4222e-05
3.38961e-05
3.51323e-05
3.69556e-05
3.95009e-05
4.19917e-05
4.10897e-05
3.75581e-05
3.37007e-05
3.00638e-05
2.62132e-05
2.17892e-05
1.66765e-05
1.12816e-05
6.37483e-06
4.17387e-06
1.3073e-05
2.84896e-05
4.24599e-05
4.74638e-05
4.34947e-05
3.61707e-05
2.99604e-05
2.55752e-05
2.21961e-05
1.93522e-05
1.69991e-05
1.51752e-05
1.38385e-05
1.28689e-05
1.21621e-05
1.1713e-05
1.15313e-05
1.16413e-05
1.26081e-05
1.53379e-05
2.05203e-05
3.20873e-05
4.68296e-05
5.5377e-05
5.54445e-05
4.98344e-05
4.11025e-05
3.06634e-05
1.99268e-05
1.128e-05
1.77424e-05
3.72128e-05
5.42186e-05
5.93853e-05
5.21647e-05
3.90509e-05
2.68126e-05
1.84442e-05
1.34301e-05
1.01572e-05
7.6866e-06
5.75791e-06
4.28803e-06
3.17178e-06
2.30712e-06
1.63021e-06
1.11473e-06
7.38254e-07
5.02961e-07
4.03523e-07
4.02725e-07
5.22583e-07
5.16513e-07
6.72509e-05
6.58879e-05
6.24455e-05
5.70187e-05
5.02547e-05
4.38293e-05
3.99979e-05
3.97264e-05
4.18215e-05
4.50888e-05
4.98105e-05
5.64746e-05
6.6846e-05
7.76421e-05
7.62748e-05
6.03609e-05
4.32192e-05
3.35978e-05
2.81032e-05
2.24216e-05
1.61606e-05
7.83364e-06
8.62204e-06
9.83931e-06
2.18555e-05
3.8599e-05
4.53358e-05
4.33739e-05
3.90728e-05
3.57794e-05
3.37778e-05
3.27032e-05
3.23327e-05
3.31139e-05
3.48777e-05
3.71833e-05
4.05135e-05
4.17834e-05
3.91976e-05
3.47991e-05
3.03823e-05
2.60975e-05
2.15721e-05
1.6676e-05
1.19108e-05
7.99713e-06
9.84939e-06
2.21433e-05
3.76531e-05
4.75076e-05
4.7602e-05
4.12513e-05
3.4134e-05
2.88697e-05
2.50884e-05
2.20048e-05
1.9354e-05
1.71511e-05
1.5424e-05
1.41272e-05
1.31601e-05
1.24384e-05
1.19731e-05
1.18039e-05
1.19149e-05
1.27081e-05
1.52015e-05
1.99117e-05
3.0497e-05
4.61145e-05
5.67625e-05
5.82654e-05
5.31135e-05
4.43837e-05
3.39752e-05
2.38646e-05
1.73138e-05
2.46972e-05
4.37276e-05
5.90556e-05
6.14242e-05
5.18784e-05
3.78993e-05
2.60388e-05
1.84082e-05
1.37771e-05
1.05152e-05
7.95548e-06
5.96893e-06
4.46706e-06
3.31637e-06
2.41144e-06
1.69727e-06
1.15269e-06
7.53951e-07
5.03224e-07
3.97082e-07
4.04267e-07
5.32318e-07
5.38932e-07
1.93407e-05
1.80485e-05
1.52603e-05
1.1097e-05
7.01841e-06
7.72273e-06
1.2187e-05
1.58229e-05
1.75174e-05
1.81575e-05
1.98131e-05
2.44128e-05
3.22264e-05
4.34992e-05
5.52538e-05
5.92945e-05
5.27375e-05
4.12458e-05
3.04433e-05
2.28652e-05
2.02693e-05
1.93831e-05
1.15426e-05
1.36105e-05
3.32233e-05
4.38638e-05
4.41107e-05
4.00068e-05
3.61768e-05
3.35961e-05
3.19258e-05
3.09829e-05
3.06849e-05
3.11692e-05
3.26606e-05
3.47042e-05
3.79594e-05
4.1266e-05
4.11762e-05
3.75355e-05
3.24963e-05
2.74427e-05
2.25701e-05
1.79435e-05
1.41953e-05
1.33141e-05
2.02692e-05
3.37884e-05
4.58039e-05
4.97353e-05
4.55737e-05
3.83131e-05
3.2163e-05
2.78669e-05
2.45901e-05
2.17816e-05
1.93354e-05
1.72891e-05
1.56568e-05
1.43952e-05
1.34268e-05
1.26888e-05
1.22029e-05
1.20358e-05
1.21603e-05
1.28165e-05
1.50097e-05
1.93046e-05
2.864e-05
4.46403e-05
5.76521e-05
6.12249e-05
5.70079e-05
4.85524e-05
3.84395e-05
2.92666e-05
2.47874e-05
3.33238e-05
5.13937e-05
6.39506e-05
6.28043e-05
5.08842e-05
3.64185e-05
2.53221e-05
1.85278e-05
1.41888e-05
1.08764e-05
8.22675e-06
6.19655e-06
4.66617e-06
3.47607e-06
2.52579e-06
1.77204e-06
1.19709e-06
7.74243e-07
5.04558e-07
3.87078e-07
4.02379e-07
5.40333e-07
5.6313e-07
9.45155e-06
1.05658e-05
1.23208e-05
1.43864e-05
1.63401e-05
1.76552e-05
1.77791e-05
1.63908e-05
1.35992e-05
1.01064e-05
7.62363e-06
9.77603e-06
1.57661e-05
2.1666e-05
2.68908e-05
3.30324e-05
3.75506e-05
3.74977e-05
3.38011e-05
2.90936e-05
2.21584e-05
9.27003e-06
1.13478e-05
3.11511e-05
4.25288e-05
4.3957e-05
4.02855e-05
3.62826e-05
3.34117e-05
3.14054e-05
3.00004e-05
2.91839e-05
2.89933e-05
2.9378e-05
3.05244e-05
3.22727e-05
3.48882e-05
3.89011e-05
4.17579e-05
4.09454e-05
3.70799e-05
3.20313e-05
2.71227e-05
2.32074e-05
2.15554e-05
2.46321e-05
3.37566e-05
4.45533e-05
5.03677e-05
4.85247e-05
4.19617e-05
3.52596e-05
3.0414e-05
2.69485e-05
2.4086e-05
2.15398e-05
1.93009e-05
1.74079e-05
1.58641e-05
1.4634e-05
1.36641e-05
1.29124e-05
1.24055e-05
1.22304e-05
1.23696e-05
1.29267e-05
1.4785e-05
1.86951e-05
2.66597e-05
4.23002e-05
5.76783e-05
6.40335e-05
6.14664e-05
5.37577e-05
4.42975e-05
3.62858e-05
3.38667e-05
4.34674e-05
5.97299e-05
6.83171e-05
6.3093e-05
4.90259e-05
3.46672e-05
2.47515e-05
1.88044e-05
1.46387e-05
1.12336e-05
8.50718e-06
6.44727e-06
4.88595e-06
3.64727e-06
2.64424e-06
1.84641e-06
1.23847e-06
7.89891e-07
5.00897e-07
3.75132e-07
4.03628e-07
5.54327e-07
5.92867e-07
1.04045e-05
1.1243e-05
1.23852e-05
1.35184e-05
1.42824e-05
1.43808e-05
1.3662e-05
1.22073e-05
1.03477e-05
8.67828e-06
8.06601e-06
9.28164e-06
1.30203e-05
1.8828e-05
2.36833e-05
2.48802e-05
2.3043e-05
2.01772e-05
1.67988e-05
1.22191e-05
1.09733e-05
2.15717e-05
3.46341e-05
4.231e-05
4.29022e-05
3.94822e-05
3.57078e-05
3.29122e-05
3.08477e-05
2.9236e-05
2.80687e-05
2.73953e-05
2.72836e-05
2.76748e-05
2.85758e-05
3.00101e-05
3.19679e-05
3.5304e-05
3.96538e-05
4.23255e-05
4.1843e-05
3.90544e-05
3.57013e-05
3.3433e-05
3.39378e-05
3.84492e-05
4.55068e-05
5.05371e-05
4.99438e-05
4.44654e-05
3.778e-05
3.25601e-05
2.89415e-05
2.61037e-05
2.35786e-05
2.12811e-05
1.92449e-05
1.74974e-05
1.60365e-05
1.48378e-05
1.38699e-05
1.31095e-05
1.25836e-05
1.23905e-05
1.25381e-05
1.30299e-05
1.45521e-05
1.8058e-05
2.4726e-05
3.91334e-05
5.64636e-05
6.6236e-05
6.62484e-05
6.0003e-05
5.16579e-05
4.50309e-05
4.46031e-05
5.46519e-05
6.78583e-05
7.13406e-05
6.18484e-05
4.62667e-05
3.28133e-05
2.44128e-05
1.91985e-05
1.5085e-05
1.1578e-05
8.80373e-06
6.72668e-06
5.12869e-06
3.83289e-06
2.77287e-06
1.92953e-06
1.2879e-06
8.1202e-07
5.0018e-07
3.61015e-07
4.02581e-07
5.67203e-07
6.23603e-07
6.74883e-06
7.39622e-06
8.22697e-06
9.04844e-06
9.64365e-06
9.85318e-06
9.62342e-06
9.04643e-06
8.37351e-06
7.99284e-06
8.36471e-06
9.67437e-06
1.18484e-05
1.54114e-05
2.07135e-05
2.60286e-05
2.91616e-05
2.98871e-05
2.98072e-05
3.11092e-05
3.46881e-05
3.90839e-05
4.1351e-05
4.02756e-05
3.72226e-05
3.41717e-05
3.18584e-05
3.00247e-05
2.84317e-05
2.71127e-05
2.61691e-05
2.56398e-05
2.55722e-05
2.59732e-05
2.6762e-05
2.7955e-05
2.94742e-05
3.17363e-05
3.55421e-05
3.99753e-05
4.29887e-05
4.38609e-05
4.34761e-05
4.34111e-05
4.4926e-05
4.80254e-05
5.05913e-05
4.98641e-05
4.53281e-05
3.92193e-05
3.4037e-05
3.04166e-05
2.76967e-05
2.52985e-05
2.30597e-05
2.10018e-05
1.91606e-05
1.75506e-05
1.617e-05
1.50066e-05
1.4047e-05
1.32836e-05
1.27412e-05
1.25196e-05
1.26619e-05
1.31151e-05
1.43381e-05
1.73788e-05
2.29648e-05
3.53541e-05
5.36708e-05
6.71496e-05
7.07572e-05
6.69431e-05
6.03346e-05
5.53544e-05
5.66074e-05
6.59319e-05
7.45918e-05
7.21529e-05
5.87677e-05
4.27506e-05
3.10824e-05
2.43215e-05
1.9636e-05
1.5496e-05
1.19167e-05
9.12974e-06
7.03972e-06
5.3936e-06
4.03059e-06
2.90834e-06
2.0165e-06
1.33848e-06
8.32311e-07
4.94869e-07
3.43259e-07
4.038e-07
5.85742e-07
6.5992e-07
5.24223e-06
5.74796e-06
6.36477e-06
6.96815e-06
7.41566e-06
7.60003e-06
7.48067e-06
7.12296e-06
6.73339e-06
6.65593e-06
7.24134e-06
8.63947e-06
1.07059e-05
1.32537e-05
1.65374e-05
2.08466e-05
2.55282e-05
2.94758e-05
3.24218e-05
3.46988e-05
3.6262e-05
3.65617e-05
3.54434e-05
3.35542e-05
3.17142e-05
3.01832e-05
2.87848e-05
2.74042e-05
2.61191e-05
2.50599e-05
2.43121e-05
2.39033e-05
2.38653e-05
2.42427e-05
2.498e-05
2.6037e-05
2.73446e-05
2.89111e-05
3.13648e-05
3.51664e-05
3.94305e-05
4.28688e-05
4.51178e-05
4.67724e-05
4.82218e-05
4.89773e-05
4.77971e-05
4.4127e-05
3.90993e-05
3.45305e-05
3.12129e-05
2.87496e-05
2.658e-05
2.44986e-05
2.25227e-05
2.06977e-05
1.90432e-05
1.75654e-05
1.62668e-05
1.51459e-05
1.42019e-05
1.34394e-05
1.28818e-05
1.26218e-05
1.27376e-05
1.31652e-05
1.4155e-05
1.66782e-05
2.14081e-05
3.13709e-05
4.91893e-05
6.59791e-05
7.39897e-05
7.37045e-05
6.95943e-05
6.65123e-05
6.8764e-05
7.57687e-05
7.84988e-05
6.99868e-05
5.38285e-05
3.88498e-05
2.96933e-05
2.44131e-05
2.00413e-05
1.58639e-05
1.22704e-05
9.49973e-06
7.39e-06
5.68126e-06
4.24298e-06
3.05571e-06
2.11423e-06
1.39826e-06
8.59271e-07
4.92084e-07
3.2277e-07
4.03837e-07
6.04788e-07
6.98334e-07
4.45599e-06
4.83441e-06
5.2715e-06
5.68338e-06
5.97187e-06
6.06225e-06
5.93183e-06
5.64475e-06
5.38441e-06
5.44636e-06
6.10738e-06
7.43674e-06
9.33059e-06
1.16115e-05
1.4133e-05
1.69461e-05
2.01047e-05
2.33249e-05
2.61146e-05
2.8135e-05
2.92375e-05
2.94974e-05
2.92121e-05
2.86646e-05
2.79554e-05
2.7067e-05
2.60236e-05
2.49322e-05
2.39197e-05
2.30846e-05
2.24923e-05
2.21773e-05
2.21702e-05
2.25146e-05
2.31998e-05
2.41712e-05
2.53873e-05
2.67193e-05
2.82843e-05
3.06038e-05
3.3853e-05
3.73854e-05
4.04002e-05
4.25149e-05
4.34922e-05
4.29081e-05
4.06041e-05
3.72033e-05
3.38457e-05
3.12198e-05
2.91859e-05
2.73374e-05
2.54933e-05
2.36814e-05
2.19642e-05
2.03667e-05
1.88926e-05
1.75461e-05
1.63344e-05
1.52635e-05
1.43407e-05
1.35801e-05
1.30059e-05
1.26986e-05
1.27625e-05
1.31614e-05
1.39912e-05
1.60093e-05
2.00086e-05
2.76741e-05
4.33401e-05
6.20974e-05
7.46561e-05
7.88018e-05
7.79416e-05
7.68835e-05
7.91064e-05
8.21617e-05
7.82012e-05
6.44747e-05
4.74504e-05
3.51113e-05
2.87345e-05
2.4565e-05
2.03718e-05
1.62139e-05
1.26702e-05
9.92638e-06
7.77899e-06
5.99131e-06
4.47047e-06
3.21488e-06
2.22086e-06
1.46307e-06
8.86739e-07
4.84968e-07
2.9634e-07
4.05741e-07
6.29635e-07
7.42817e-07
3.7981e-06
4.07586e-06
4.37777e-06
4.64512e-06
4.80994e-06
4.82214e-06
4.67366e-06
4.42936e-06
4.25927e-06
4.42383e-06
5.13221e-06
6.39496e-06
8.09439e-06
1.01085e-05
1.23194e-05
1.46199e-05
1.69491e-05
1.92438e-05
2.13196e-05
2.3004e-05
2.42281e-05
2.49932e-05
2.53258e-05
2.52685e-05
2.48809e-05
2.42444e-05
2.34586e-05
2.26268e-05
2.1842e-05
2.11837e-05
2.07153e-05
2.04769e-05
2.05006e-05
2.08213e-05
2.1446e-05
2.23385e-05
2.34709e-05
2.47609e-05
2.60825e-05
2.75389e-05
2.94059e-05
3.16538e-05
3.3843e-05
3.54255e-05
3.60265e-05
3.54493e-05
3.39551e-05
3.21412e-05
3.04788e-05
2.90057e-05
2.75347e-05
2.59771e-05
2.43877e-05
2.2846e-05
2.13869e-05
2.00108e-05
1.87138e-05
1.75008e-05
1.63815e-05
1.53662e-05
1.44676e-05
1.37065e-05
1.31111e-05
1.27494e-05
1.27367e-05
1.30872e-05
1.38136e-05
1.54187e-05
1.87235e-05
2.46021e-05
3.69488e-05
5.54529e-05
7.15766e-05
8.03646e-05
8.31885e-05
8.40237e-05
8.50992e-05
8.31001e-05
7.28464e-05
5.59657e-05
4.05404e-05
3.20441e-05
2.81158e-05
2.46751e-05
2.06466e-05
1.65991e-05
1.31476e-05
1.04179e-05
8.20754e-06
6.32587e-06
4.71699e-06
3.39071e-06
2.34143e-06
1.53807e-06
9.20455e-07
4.79288e-07
2.65237e-07
4.08133e-07
6.57347e-07
7.911e-07
3.24452e-06
3.44114e-06
3.63967e-06
3.79841e-06
3.87078e-06
3.82424e-06
3.66081e-06
3.44632e-06
3.34133e-06
3.57548e-06
4.29626e-06
5.47051e-06
6.98841e-06
8.75159e-06
1.06797e-05
1.26885e-05
1.46883e-05
1.65994e-05
1.83488e-05
1.98503e-05
2.10237e-05
2.18201e-05
2.22397e-05
2.23166e-05
2.21064e-05
2.16794e-05
2.11134e-05
2.04876e-05
1.98799e-05