/*--------------------------------*- C++ -*----------------------------------*\
| =========                 |                                                 |
| \\      /  F ield         | OpenFOAM: The Open Source CFD Toolbox           |
|  \\    /   O peration     | Version:  2.1.1                                 |
|   \\  /    A nd           | Web:      www.OpenFOAM.org                      |
|    \\/     M anipulation  |                                                 |
\*---------------------------------------------------------------------------*/
FoamFile
{
    version     2.0;
    format      ascii;
    class       volScalarField;
    location    "0.12";
    object      p;
}
// * * * * * * * * * * * * * * * * * * * * * * * * * * * * * * * * * * * * * //

dimensions      [0 2 -2 0 0 0 0];

internalField   nonuniform List<scalar> 
6820
(
7.99464
-9.8423
-12.8543
-13.0457
-13.2232
-13.1555
-13.105
-13.1244
-13.1794
-13.2546
-13.3417
-13.4354
-13.5333
-13.6344
-13.7381
-13.8443
-13.9527
-14.0633
-14.1761
-14.291
-14.4082
-14.5277
-14.6495
-14.7736
-14.9
-15.0285
-15.1589
-15.2907
-15.4242
-15.5551
-15.6918
-15.8012
-15.9677
1.31411
-9.66043
-12.5423
-12.8468
-13.1044
-13.1328
-13.119
-13.1497
-13.2064
-13.2787
-13.3617
-13.4518
-13.5466
-13.6453
-13.7472
-13.852
-13.9594
-14.0693
-14.1815
-14.2961
-14.4129
-14.5321
-14.6536
-14.7779
-14.9042
-15.0327
-15.1632
-15.2953
-15.4291
-15.5622
-15.7007
-15.8286
-16.0193
-1.39952
-8.2289
-11.5205
-12.283
-12.7564
-12.9597
-13.0246
-13.0881
-13.1641
-13.2487
-13.3404
-13.4369
-13.5367
-13.639
-13.7433
-13.8497
-13.958
-14.0683
-14.1806
-14.295
-14.4116
-14.5304
-14.6516
-14.7745
-14.9003
-15.0284
-15.1585
-15.2904
-15.4245
-15.559
-15.6985
-15.832
-15.9865
-3.38394
-8.00058
-11.0974
-11.961
-12.4381
-12.7204
-12.8556
-12.963
-13.0701
-13.1751
-13.2796
-13.3847
-13.4906
-13.5976
-13.7057
-13.8151
-13.9258
-14.0379
-14.1516
-14.2669
-14.3839
-14.5027
-14.6233
-14.7458
-14.8703
-14.9968
-15.1249
-15.2556
-15.3889
-15.5244
-15.6655
-15.8099
-15.975
-5.01835
-8.09988
-10.7043
-11.6121
-12.1248
-12.4862
-12.6913
-12.8382
-12.9696
-13.091
-13.2068
-13.3204
-13.4327
-13.5442
-13.6557
-13.7676
-13.88
-13.9931
-14.1071
-14.2222
-14.3384
-14.4559
-14.5748
-14.6951
-14.8169
-14.94
-15.0647
-15.1914
-15.3208
-15.4534
-15.5926
-15.7396
-15.9079
-6.23972
-8.27952
-10.4521
-11.4004
-11.9322
-12.3206
-12.5605
-12.73
-12.8772
-13.0111
-13.1361
-13.2564
-13.374
-13.4896
-13.6041
-13.7179
-13.8315
-13.9451
-14.059
-14.1734
-14.2883
-14.404
-14.5205
-14.6378
-14.7562
-14.8764
-14.9981
-15.121
-15.2464
-15.3753
-15.5107
-15.6553
-15.8197
-7.18894
-8.56443
-10.3331
-11.244
-11.7633
-12.1598
-12.4297
-12.6245
-12.7894
-12.9365
-13.071
-13.198
-13.3205
-13.4397
-13.5567
-13.6723
-13.787
-13.9012
-14.015
-14.1289
-14.2428
-14.3569
-14.4715
-14.5865
-14.7023
-14.8187
-14.9362
-15.0547
-15.1752
-15.299
-15.4282
-15.5655
-15.7172
-7.93321
-8.86885
-10.2801
-11.1263
-11.6339
-12.0318
-12.3202
-12.532
-12.7088
-12.8649
-13.0066
-13.1392
-13.2658
-13.3883
-13.5078
-13.6252
-13.741
-13.8556
-13.9695
-14.0826
-14.1954
-14.3079
-14.4202
-14.5325
-14.6448
-14.7574
-14.8705
-14.9844
-15.0997
-15.2173
-15.3388
-15.4659
-15.6017
-8.52347
-9.17049
-10.2882
-11.054
-11.539
-11.925
-12.2196
-12.4428
-12.6292
-12.7938
-12.9425
-13.0806
-13.2116
-13.3374
-13.4593
-13.5783
-13.695
-13.8101
-13.9237
-14.0362
-14.1478
-14.2586
-14.3687
-14.4783
-14.5875
-14.6964
-14.8052
-14.9141
-15.0234
-15.1338
-15.2462
-15.3612
-15.4798
-8.99757
-9.45371
-10.3338
-11.0109
-11.4667
-11.8367
-12.1319
-12.3627
-12.5563
-12.7271
-12.8812
-13.0237
-13.158
-13.2864
-13.4102
-13.5305
-13.648
-13.7633
-13.8766
-13.9883
-14.0986
-14.2076
-14.3154
-14.4221
-14.5279
-14.6327
-14.7368
-14.8402
-14.9431
-15.0458
-15.1484
-15.2511
-15.353
-9.38239
-9.71079
-10.4033
-10.9931
-11.4163
-11.7668
-12.0564
-12.2897
-12.4873
-12.6623
-12.8207
-12.9668
-13.1042
-13.2351
-13.3608
-13.4823
-13.6006
-13.716
-13.829
-13.9398
-14.0487
-14.1558
-14.2613
-14.3651
-14.4675
-14.5683
-14.6677
-14.7655
-14.8619
-14.9567
-15.0496
-15.1402
-15.2269
-9.69756
-9.93937
-10.4857
-10.9938
-11.3819
-11.7107
-11.9908
-12.2234
-12.4231
-12.601
-12.7625
-12.9116
-13.0515
-13.1843
-13.3114
-13.4339
-13.5526
-13.668
-13.7804
-13.8903
-13.9977
-14.1029
-14.2059
-14.3067
-14.4055
-14.5022
-14.5967
-14.6889
-14.7786
-14.8656
-14.9492
-15.0286
-15.102
-9.95742
-10.1395
-10.5728
-11.0075
-11.3603
-11.6668
-11.9351
-12.1642
-12.3637
-12.5428
-12.7061
-12.8573
-12.999
-13.1334
-13.2618
-13.3851
-13.5041
-13.6193
-13.7312
-13.84
-13.9459
-14.0491
-14.1496
-14.2475
-14.3428
-14.4354
-14.5251
-14.6118
-14.6951
-14.7747
-14.8497
-14.9193
-14.9815
-10.1725
-10.3127
-10.659
-11.0298
-11.3482
-11.6323
-11.8873
-12.1106
-12.3084
-12.4875
-12.6518
-12.8044
-12.9475
-13.0831
-13.2124
-13.3362
-13.4554
-13.5704
-13.6815
-13.7892
-13.8935
-13.9946
-14.0926
-14.1875
-14.2792
-14.3677
-14.4528
-14.5341
-14.6114
-14.6841
-14.7514
-14.8124
-14.8654
-10.3506
-10.4608
-10.7404
-11.0567
-11.3427
-11.6052
-11.8463
-12.0625
-12.2572
-12.4351
-12.5996
-12.7528
-12.8969
-13.0333
-13.1631
-13.2873
-13.4065
-13.5211
-13.6315
-13.7379
-13.8406
-13.9397
-14.0352
-14.1271
-14.2154
-14.3
-14.3805
-14.4569
-14.5286
-14.5952
-14.6558
-14.7096
-14.7552
-10.4977
-10.586
-10.8144
-11.0849
-11.3413
-11.5833
-11.8105
-12.0188
-12.2094
-12.3854
-12.5493
-12.7027
-12.8472
-12.9841
-13.1143
-13.2387
-13.3577
-13.4718
-13.5813
-13.6865
-13.7875
-13.8845
-13.9775
-14.0665
-14.1515
-14.2322
-14.3086
-14.3803
-14.4469
-14.508
-14.5628
-14.6108
-14.6506
-10.6181
-10.6902
-10.8792
-11.1118
-11.3418
-11.5649
-11.7787
-11.9787
-12.1646
-12.3381
-12.5008
-12.6539
-12.7985
-12.9356
-13.066
-13.1903
-13.3091
-13.4226
-13.5312
-13.6351
-13.7345
-13.8295
-13.92
-14.0063
-14.088
-14.1652
-14.2377
-14.3051
-14.3673
-14.4236
-14.4736
-14.5168
-14.5523
-10.715
-10.775
-10.9338
-11.1353
-11.3422
-11.5481
-11.7494
-11.9412
-12.1221
-12.2928
-12.454
-12.6065
-12.7509
-12.888
-13.0184
-13.1426
-13.2609
-13.3738
-13.4814
-13.584
-13.6817
-13.7747
-13.8629
-13.9464
-14.0252
-14.099
-14.1679
-14.2315
-14.2896
-14.3418
-14.3878
-14.4272
-14.4594
-10.7911
-10.8419
-10.9773
-11.1537
-11.3408
-11.5315
-11.7214
-11.9054
-12.0815
-12.2492
-12.4087
-12.5604
-12.7044
-12.8414
-12.9717
-13.0956
-13.2135
-13.3257
-13.4324
-13.5337
-13.6298
-13.7209
-13.8068
-13.8878
-13.9637
-14.0345
-14.1001
-14.1603
-14.2149
-14.2636
-14.3064
-14.3428
-14.3725
-10.8481
-10.892
-11.0094
-11.1657
-11.3361
-11.5137
-11.6936
-11.8705
-12.0419
-12.2068
-12.3646
-12.5154
-12.659
-12.7957
-12.9258
-13.0495
-13.1669
-13.2784
-13.3841
-13.4841
-13.5786
-13.6678
-13.7516
-13.8301
-13.9034
-13.9713
-14.0339
-14.091
-14.1425
-14.1883
-14.2283
-14.2623
-14.2901
-10.8873
-10.9259
-11.0296
-11.1701
-11.3269
-11.4935
-11.6647
-11.8355
-12.0029
-12.1652
-12.3216
-12.4715
-12.6148
-12.7514
-12.8814
-13.0048
-13.1218
-13.2327
-13.3374
-13.4363
-13.5293
-13.6167
-13.6985
-13.7748
-13.8456
-13.911
-13.9708
-14.0252
-14.0741
-14.1174
-14.1551
-14.1872
-14.2136
-10.9095
-10.9441
-11.0375
-11.1659
-11.3118
-11.4695
-11.6339
-11.7997
-11.9636
-12.1239
-12.2791
-12.4285
-12.5716
-12.7081
-12.8379
-12.9611
-13.0778
-13.1879
-13.2918
-13.3895
-13.4811
-13.5667
-13.6466
-13.7207
-13.7892
-13.8521
-13.9095
-13.9614
-14.0079
-14.0489
-14.0846
-14.1151
-14.1403
-10.915
-10.9468
-11.0327
-11.1521
-11.2899
-11.4409
-11.6001
-11.7622
-11.9238
-12.0828
-12.2375
-12.3868
-12.53
-12.6667
-12.7968
-12.92
-13.0364
-13.1462
-13.2493
-13.3459
-13.4362
-13.5204
-13.5985
-13.6707
-13.7371
-13.7978
-13.8529
-13.9026
-13.947
-13.9861
-14.02
-14.049
-14.0732
-10.904
-10.9338
-11.0146
-11.1278
-11.26
-11.4065
-11.5623
-11.7221
-11.8825
-12.041
-12.1957
-12.3453
-12.4889
-12.6261
-12.7564
-12.8797
-12.996
-13.1052
-13.2076
-13.3032
-13.3923
-13.4749
-13.5512
-13.6215
-13.6859
-13.7445
-13.7975
-13.845
-13.8874
-13.9246
-13.9569
-13.9845
-14.0077
-10.876
-10.9047
-10.9825
-11.0921
-11.2213
-11.3656
-11.52
-11.6794
-11.84
-11.9993
-12.155
-12.3059
-12.4508
-12.589
-12.7201
-12.844
-12.9605
-13.0696
-13.1716
-13.2664
-13.3544
-13.4357
-13.5105
-13.579
-13.6415
-13.6982
-13.7492
-13.7949
-13.8353
-13.8708
-13.9015
-13.9278
-13.9498
-10.8303
-10.8586
-10.9353
-11.0439
-11.1724
-11.3167
-11.4716
-11.6321
-11.7943
-11.9552
-12.1128
-12.2654
-12.4118
-12.5513
-12.6835
-12.808
-12.9247
-13.0338
-13.1353
-13.2293
-13.3162
-13.3962
-13.4694
-13.5362
-13.5968
-13.6515
-13.7005
-13.7442
-13.7827
-13.8164
-13.8455
-13.8703
-13.8911
-10.7657
-10.7943
-10.872
-10.9821
-11.1128
-11.2599
-11.4182
-11.5823
-11.7482
-11.913
-12.0741
-12.2299
-12.3791
-12.521
-12.6549
-12.7807
-12.8983
-13.0077
-13.109
-13.2026
-13.2886
-13.3674
-13.4392
-13.5043
-13.5632
-13.616
-13.6631
-13.7048
-13.7414
-13.7732
-13.8006
-13.8238
-13.843
-10.6803
-10.7099
-10.7906
-10.9047
-11.04
-11.192
-11.3554
-11.5246
-11.6955
-11.8649
-12.0303
-12.1899
-12.3423
-12.4868
-12.6228
-12.7501
-12.8686
-12.9784
-13.0797
-13.1727
-13.2579
-13.3354
-13.4057
-13.4692
-13.5261
-13.577
-13.622
-13.6617
-13.6962
-13.7261
-13.7516
-13.773
-13.7908
-10.5717
-10.6035
-10.6898
-10.8116
-10.9557
-11.117
-11.2899
-11.4683
-11.6477
-11.8247
-11.9969
-12.1622
-12.3195
-12.4678
-12.6068
-12.7363
-12.8561
-12.9667
-13.0681
-13.1608
-13.2451
-13.3214
-13.3903
-13.452
-13.507
-13.5558
-13.5987
-13.6361
-13.6685
-13.6961
-13.7194
-13.7387
-13.7542
-10.4365
-10.4711
-10.5652
-10.697
-10.8515
-11.0234
-11.2069
-11.3955
-11.5844
-11.7701
-11.95
-12.122
-12.285
-12.4379
-12.5806
-12.7127
-12.8344
-12.946
-13.0478
-13.1402
-13.2238
-13.2989
-13.3662
-13.4261
-13.4791
-13.5256
-13.5662
-13.6013
-13.6312
-13.6565
-13.6776
-13.6947
-13.7084
-10.2706
-10.3104
-10.4181
-10.5676
-10.741
-10.9319
-11.1334
-11.3382
-11.5414
-11.7394
-11.9296
-12.1101
-12.2799
-12.4382
-12.5848
-12.7197
-12.8433
-12.9558
-13.0578
-13.1498
-13.2323
-13.306
-13.3714
-13.4292
-13.4798
-13.5237
-13.5616
-13.5939
-13.621
-13.6434
-13.6615
-13.6756
-13.6861
-10.0666
-10.1111
-10.2326
-10.3992
-10.5901
-10.7993
-11.0193
-11.2421
-11.4619
-11.675
-11.8783
-12.0701
-12.2491
-12.4148
-12.5671
-12.7063
-12.8327
-12.9469
-13.0495
-13.1413
-13.223
-13.2953
-13.3589
-13.4144
-13.4625
-13.5038
-13.5389
-13.5682
-13.5924
-13.6119
-13.6272
-13.6388
-13.6469
-9.81939
-9.87851
-10.0326
-10.237
-10.4634
-10.7046
-10.9527
-11.199
-11.4384
-11.6676
-11.8841
-12.0864
-12.2738
-12.4459
-12.6029
-12.7452
-12.8735
-12.9885
-13.0911
-13.1819
-13.262
-13.3321
-13.393
-13.4455
-13.4903
-13.528
-13.5593
-13.5848
-13.605
-13.6204
-13.6315
-13.6387
-13.6424
-9.507
-9.56856
-9.74259
-9.97352
-10.2303
-10.5063
-10.79
-11.0696
-11.3388
-11.5938
-11.8319
-12.0517
-12.2529
-12.4354
-12.6001
-12.7478
-12.8794
-12.9961
-13.0991
-13.1894
-13.268
-13.3361
-13.3946
-13.4442
-13.4859
-13.5203
-13.5481
-13.57
-13.5866
-13.5984
-13.606
-13.61
-13.6108
-9.13972
-9.25643
-9.51579
-9.8177
-10.1254
-10.4417
-10.758
-11.0638
-11.3545
-11.6276
-11.8807
-12.1129
-12.3239
-12.5141
-12.6842
-12.8353
-12.9687
-13.0856
-13.1875
-13.2755
-13.351
-13.4152
-13.4692
-13.5139
-13.5503
-13.5792
-13.6013
-13.6173
-13.6279
-13.6336
-13.635
-13.6326
-13.627
-8.60524
-8.69579
-8.99269
-9.36217
-9.75046
-10.1501
-10.5407
-10.9084
-11.2496
-11.5623
-11.8457
-12.1002
-12.3272
-12.5285
-12.706
-12.8615
-12.9972
-13.1147
-13.216
-13.3025
-13.3758
-13.4372
-13.4881
-13.5294
-13.5622
-13.5873
-13.6055
-13.6174
-13.6236
-13.6248
-13.6215
-13.6146
-13.6048
-8.10518
-8.42702
-8.89333
-9.30992
-9.71728
-10.1426
-10.5578
-10.9492
-11.3155
-11.6528
-11.9582
-12.2315
-12.4733
-12.6853
-12.8696
-13.0284
-13.1642
-13.2793
-13.3761
-13.4566
-13.5227
-13.5762
-13.6186
-13.6511
-13.675
-13.6911
-13.7002
-13.7031
-13.7002
-13.6919
-13.6786
-13.6611
-13.6395
-6.79879
-7.11979
-7.89124
-8.58857
-9.22216
-9.82508
-10.3654
-10.8429
-11.2681
-11.6447
-11.9764
-12.2673
-12.5214
-12.742
-12.9324
-13.0954
-13.2338
-13.3502
-13.447
-13.5265
-13.5907
-13.6414
-13.6804
-13.709
-13.7285
-13.7399
-13.744
-13.7413
-13.732
-13.7164
-13.6936
-13.6649
-13.6256
-6.78345
-7.52765
-8.12997
-8.59402
-9.19064
-9.82029
-10.4064
-10.9515
-11.4494
-11.8897
-12.2714
-12.5982
-12.8742
-13.1044
-13.2941
-13.4486
-13.5729
-13.6712
-13.7476
-13.8054
-13.8475
-13.8766
-13.8947
-13.9037
-13.9049
-13.8996
-13.8888
-13.8727
-13.8515
-13.8242
-13.7881
-13.7401
-13.6666
-0.527921
-5.13547
-6.91744
-7.76524
-8.76405
-9.63622
-10.3324
-10.9355
-11.4619
-11.912
-12.295
-12.619
-12.8906
-13.1161
-13.3014
-13.4519
-13.5727
-13.668
-13.7418
-13.7973
-13.8376
-13.8649
-13.8815
-13.8892
-13.8895
-13.8836
-13.8728
-13.8576
-13.8394
-13.8175
-13.7949
-13.7663
-13.7437
-15.8167
-16.4881
-17.931
-19.6706
-21.1112
-21.379
-19.813
-16.4298
-12.0483
-7.91545
-5.07884
-4.14362
-5.22246
-8.13094
-12.6031
-18.4358
-25.1988
-32.1545
-38.4157
-43.1511
-45.6913
-45.723
-43.2741
-38.8229
-32.8502
-25.7052
-18.0719
-11.1407
-5.76165
-1.99281
0.474974
1.91588
2.45611
2.1255
0.825911
-1.6394
-5.39763
-10.3903
-16.3802
-23.0475
-30.0425
-36.9296
-43.1261
-47.9873
-50.9101
-51.5065
-49.5505
-45.2298
-39.0372
-31.7356
-24.3444
-17.821
-12.6205
-8.69196
-5.78292
-3.64999
-2.10415
-0.997761
-0.215796
0.326495
0.689021
0.91513
1.03799
1.0833
1.06673
0.991951
0.846294
0.593862
0.106811
-1.0963
-3.93034
-9.28819
-17.3324
-27.0242
-36.1302
-42.0828
-43.1402
-38.75
-29.9937
-19.8587
-11.465
-6.06186
-3.05728
-1.44504
-0.563159
-0.0732256
0.200842
0.355
0.439651
0.480615
0.491691
0.481267
0.454073
0.414882
0.364027
0.309288
0.240666
0.18535
0.0902416
0.0715305
-16.0827
-16.6606
-17.9764
-19.5556
-20.7714
-20.8465
-19.2381
-16.0147
-11.9253
-8.07974
-5.4654
-4.6269
-5.59964
-8.27491
-12.4747
-17.8432
-23.9801
-30.2842
-35.9817
-40.3101
-42.6587
-42.7716
-40.6672
-36.6442
-31.0351
-24.2562
-17.1553
-10.8374
-5.92722
-2.42211
-0.0807308
1.303
1.82811
1.51331
0.287445
-1.99718
-5.4718
-10.1205
-15.7479
-22.0436
-28.6456
-35.1204
-40.9199
-45.4487
-48.1548
-48.6829
-46.8132
-42.7118
-36.8696
-30.0693
-23.2805
-17.3088
-12.4944
-8.78637
-5.98777
-3.90346
-2.37211
-1.26124
-0.46507
0.0956445
0.477933
0.723608
0.864656
0.92575
0.921907
0.855976
0.714506
0.462417
-0.00566144
-1.11083
-3.70441
-8.65257
-16.1462
-25.2155
-33.7557
-39.3422
-40.3394
-36.2306
-28.0794
-18.7243
-11.024
-6.04251
-3.20725
-1.62717
-0.727701
-0.208846
0.0935882
0.272566
0.377851
0.435412
0.459514
0.45911
0.439423
0.405718
0.358656
0.306517
0.239377
0.18506
0.0902703
0.0715986
-16.1318
-16.7517
-17.9184
-19.2218
-20.1217
-19.994
-18.424
-15.5212
-11.9445
-8.60853
-6.29849
-5.48585
-6.37343
-8.83935
-12.666
-17.5672
-23.0923
-28.705
-33.7792
-37.6557
-39.8072
-39.9937
-38.1663
-34.4528
-29.1295
-22.7584
-16.2783
-10.6
-6.14505
-2.895
-0.681496
0.641144
1.14809
0.85298
-0.302548
-2.42335
-5.62157
-9.90737
-15.1327
-21.0177
-27.2021
-33.2543
-38.6539
-42.8505
-45.3402
-45.7891
-43.9932
-40.118
-34.6674
-28.4232
-22.2596
-16.825
-12.375
-8.87681
-6.18733
-4.15386
-2.63962
-1.52653
-0.717966
-0.140199
0.26085
0.525381
0.684157
0.760695
0.769291
0.712167
0.575361
0.323864
-0.130831
-1.14811
-3.50248
-8.01981
-14.921
-23.3213
-31.2597
-36.4617
-37.3991
-33.5951
-26.0969
-17.569
-10.5835
-6.02361
-3.35412
-1.80619
-0.891
-0.34474
-0.0145723
0.189164
0.315256
0.38964
0.426968
0.436728
0.424633
0.396469
0.353237
0.303711
0.23807
0.184744
0.0902875
0.071648
-16.2019
-16.7652
-17.6785
-18.6444
-19.2227
-18.9413
-17.517
-15.0732
-12.1333
-9.39971
-7.48671
-6.78783
-7.50171
-9.67097
-13.111
-17.516
-22.4751
-27.4639
-31.9272
-35.3489
-37.3062
-37.5042
-35.7781
-32.1986
-27.1325
-21.2776
-15.4922
-10.4395
-6.40716
-3.3995
-1.31561
-0.0577666
0.42864
0.155002
-0.929516
-2.89879
-5.83307
-9.75244
-14.5494
-19.9871
-25.725
-31.3408
-36.3379
-40.2039
-42.4747
-42.8353
-41.1134
-37.4943
-32.4934
-26.8501
-21.3071
-16.3748
-12.2607
-8.96085
-6.37988
-4.40007
-2.906
-1.79322
-0.974222
-0.38086
0.0378977
0.320532
0.496537
0.588222
0.60909
0.560844
0.428982
0.178611
-0.265809
-1.20271
-3.32054
-7.39261
-13.6683
-21.3627
-28.6729
-33.48
-34.3633
-30.8925
-24.0925
-16.4249
-10.1573
-6.00698
-3.49574
-1.97994
-1.05174
-0.480223
-0.123264
0.105056
0.25211
0.343569
0.394368
0.414486
0.410119
0.387559
0.348165
0.301214
0.237022
0.1846
0.0904115
0.07173
-16.1431
-16.5972
-17.2597
-17.9134
-18.2277
-17.8743
-16.6719
-14.7243
-12.4189
-10.2801
-8.7793
-8.23481
-8.82808
-10.6479
-13.6338
-17.5382
-21.9594
-26.4085
-30.3716
-33.4056
-35.0986
-35.1058
-33.2812
-29.7916
-25.107
-19.8989
-14.8236
-10.3487
-6.70268
-3.92712
-1.9746
-0.784067
-0.319379
-0.571406
-1.58272
-3.40894
-6.09814
-9.66354
-14.0241
-18.9857
-24.2445
-29.4017
-33.9867
-37.5185
-39.5662
-39.8408
-38.2177
-34.907
-30.4111
-25.3837
-20.4297
-15.9565
-12.1507
-9.03949
-6.56646
-4.64257
-3.17131
-2.06128
-1.23386
-0.626437
-0.191073
0.108889
0.301622
0.408163
0.441124
0.401865
0.275533
0.0274736
-0.408459
-1.27318
-3.16261
-6.78642
-12.417
-19.3792
-26.0411
-30.4446
-31.281
-28.172
-22.1076
-15.3174
-9.7549
-5.99471
-3.63266
-2.14903
-1.21044
-0.615518
-0.232467
0.0203717
0.188553
0.297299
0.361746
0.392334
0.395746
0.378794
0.343224
0.298813
0.23604
0.184485
0.0905293
0.0718172
-16.0424
-16.4022
-16.8702
-17.2916
-17.4307
-17.061
-16.0619
-14.5133
-12.7029
-11.027
-9.86841
-9.49809
-10.0543
-11.5987
-14.1147
-17.4546
-21.304
-25.2163
-28.7074
-31.3041
-32.6028
-32.3604
-30.5256
-27.3256
-23.2074
-18.6988
-14.2803
-10.3169
-7.02195
-4.46856
-2.64763
-1.52604
-1.08328
-1.31439
-2.25233
-3.94135
-6.40595
-9.64224
-13.5793
-18.0554
-22.8094
-27.4814
-31.6369
-34.8256
-36.6528
-36.8657
-35.3898
-32.4437
-28.4809
-24.0471
-19.6287
-15.5668
-12.0435
-9.11236
-6.7468
-4.88099
-3.43524
-2.33051
-1.49678
-0.876868
-0.426017
-0.109498
0.0994647
0.220619
0.265595
0.23546
0.115285
-0.129067
-0.557387
-1.36006
-3.03697
-6.22281
-11.2025
-17.4163
-23.4151
-27.4107
-28.2122
-25.4939
-20.191
-14.2738
-9.38585
-5.98834
-3.76477
-2.31334
-1.36701
-0.750448
-0.341958
-0.0646564
0.124826
0.251084
0.329381
0.370584
0.381854
0.37053
0.338758
0.29682
0.235387
0.184599
0.0907712
0.0719801
-15.9142
-16.1953
-16.5225
-16.7845
-16.8121
-16.4467
-15.611
-14.3717
-12.9464
-11.638
-10.7461
-10.4952
-11.0134
-12.3507
-14.4766
-17.2673
-20.4836
-23.7683
-26.6873
-28.7895
-29.7778
-29.4618
-27.8326
-25.0866
-21.5743
-17.6992
-13.8457
-10.3294
-7.35568
-5.01522
-3.32492
-2.27337
-1.85287
-2.06354
-2.92941
-4.48539
-6.7419
-9.67858
-13.223
-17.2315
-21.4793
-25.6523
-29.3647
-32.2071
-33.8313
-34.0221
-32.7399
-30.1853
-26.7389
-22.8425
-18.8962
-15.2009
-11.9381
-9.17988
-6.92127
-5.11539
-3.69774
-2.60085
-1.76294
-1.13214
-0.666936
-0.334638
-0.109937
0.0256042
0.0825876
0.0617997
-0.0514496
-0.290498
-0.710738
-1.46128
-2.94726
-5.71876
-10.059
-15.5227
-20.8533
-24.4432
-25.2254
-22.9226
-18.3894
-13.3168
-9.05655
-5.98905
-3.89287
-2.4738
-1.52206
-0.885241
-0.451697
-0.149864
0.0611276
0.205109
0.29741
0.349304
0.368437
0.362695
0.334645
0.295089
0.234913
0.184816
0.0910264
0.0721813
-15.7709
-15.9892
-16.2148
-16.3664
-16.3244
-15.9798
-15.2853
-14.2969
-13.1798
-12.1655
-11.4891
-11.3343
-11.812
-12.9631
-14.7546
-17.0721
-19.7117
-22.3834
-24.7424
-26.4467
-27.238
-26.9443
-25.5545
-23.222
-20.2186
-16.8684
-13.4949
-10.3741
-7.69625
-5.55907
-3.99726
-3.01632
-2.61868
-2.80918
-3.60522
-5.03276
-7.09376
-9.75779
-12.9479
-16.5291
-20.3014
-23.9929
-27.2717
-29.7834
-31.2321
-31.432
-30.358
-28.1752
-25.1885
-21.7571
-18.2216
-14.8547
-11.8342
-9.24247
-7.09005
-5.34576
-3.95872
-2.8722
-2.03224
-1.39217
-0.913741
-0.566425
-0.326459
-0.176706
-0.107613
-0.11874
-0.224224
-0.456264
-0.866842
-1.57353
-2.8936
-5.28677
-9.01898
-13.7502
-18.4211
-21.6158
-22.3966
-20.5243
-16.7456
-12.4639
-8.77073
-5.99761
-4.01801
-2.63145
-1.67615
-1.02
-0.561552
-0.235026
-0.00228182
0.159649
0.266118
0.32879
0.355799
0.355592
0.331181
0.293894
0.234853
0.185326
0.091423
0.0724985
-15.6211
-15.7877
-15.9386
-16.0147
-15.9325
-15.6182
-15.0444
-14.2587
-13.388
-12.61
-12.1085
-12.0317
-12.4725
-13.4642
-14.9751
-16.9044
-19.0788
-21.2596
-23.1765
-24.5549
-25.1659
-24.871
-23.6645
-21.6615
-19.0735
-16.1653
-13.2091
-10.4424
-8.03721
-6.09318
-4.65695
-3.74663
-3.37257
-3.54343
-4.27188
-5.57636
-7.45257
-9.86563
-12.7373
-15.9388
-19.2877
-22.5457
-25.4305
-27.6453
-28.9436
-29.1596
-28.2713
-26.4061
-23.8064
-20.7706
-17.5946
-14.5255
-11.7321
-9.30085
-7.25354
-5.57226
-4.21819
-3.1445
-2.30459
-1.65684
-1.16633
-0.804752
-0.549968
-0.386146
-0.304744
-0.305738
-0.402516
-0.625755
-1.02438
-1.6932
-2.87341
-4.934
-8.10955
-12.1487
-16.1858
-19.006
-19.8021
-18.359
-15.2917
-11.724
-8.52877
-6.01448
-4.14174
-2.78776
-1.83009
-1.15496
-0.671468
-0.319946
-0.0651492
0.114965
0.235736
0.309211
0.344042
0.349255
0.328338
0.293165
0.235112
0.186035
0.0918656
0.0728942
-15.4694
-15.5951
-15.693
-15.72
-15.6187
-15.34
-14.8701
-14.2496
-13.5768
-12.9879
-12.6261
-12.6094
-13.0139
-13.8665
-15.1389
-16.7442
-18.5369
-20.3209
-21.8715
-22.9647
-23.4188
-23.1242
-22.0677
-20.3352
-18.096
-15.5678
-12.9774
-10.5279
-8.37331
-6.61185
-5.29737
-4.45697
-4.10694
-4.25897
-4.92226
-6.10952
-7.81138
-9.99118
-12.5733
-15.4369
-18.4156
-21.2983
-23.8434
-25.8015
-26.9636
-27.1859
-26.4445
-24.8371
-22.56
-19.8647
-17.0087
-14.2126
-11.6327
-9.35578
-7.41222
-5.79507
-4.47619
-3.41769
-2.57988
-1.92604
-1.42457
-1.04946
-0.780263
-0.602449
-0.508428
-0.49864
-0.585667
-0.79825
-1.18227
-1.81651
-2.88118
-4.66015
-7.3471
-10.7583
-14.2078
-16.6847
-17.5077
-16.4707
-14.044
-11.0967
-8.32823
-6.04002
-4.26592
-2.94427
-1.98462
-1.29033
-0.781347
-0.404389
-0.127174
0.0713786
0.206588
0.290881
0.333465
0.343966
0.326378
0.29314
0.235896
0.187112
0.0924696
0.0734442
-15.3216
-15.4155
-15.476
-15.4724
-15.3654
-15.1237
-14.7423
-14.2558
-13.7406
-13.3014
-13.0491
-13.0774
-13.4471
-14.1789
-15.2472
-16.5781
-18.0499
-19.5012
-20.7473
-21.609
-21.9378
-21.6411
-20.7056
-19.1996
-17.2586
-15.0594
-12.7904
-10.6248
-8.70009
-7.11029
-5.91293
-5.14105
-4.81523
-4.94923
-5.55031
-6.62634
-8.16442
-10.127
-12.4428
-15.001
-17.6513
-20.2069
-22.4586
-24.1915
-25.2287
-25.4463
-24.8195
-23.4247
-21.4234
-19.0283
-16.4611
-13.9163
-11.5368
-9.40813
-7.56665
-6.01453
-4.73283
-3.69176
-2.85802
-2.19964
-1.68832
-1.30039
-1.01712
-0.825315
-0.71826
-0.696845
-0.772904
-0.972924
-1.33956
-1.94007
-2.90928
-4.45725
-6.73334
-9.60053
-12.5288
-14.7019
-15.5551
-14.8784
-13.0004
-10.5734
-8.16467
-6.07471
-4.39263
-3.10259
-2.14053
-1.42635
-0.891133
-0.488131
-0.188042
0.0292319
0.178989
0.274067
0.324266
0.339847
0.325357
0.293819
0.237163
0.1885
0.0931628
0.0741178
-15.1788
-15.2487
-15.284
-15.263
-15.1597
-14.9547
-14.6486
-14.2709
-13.8812
-13.56
-13.393
-13.4533
-13.7886
-14.4144
-15.3078
-16.4061
-17.6082
-18.7815
-19.7758
-20.4451
-20.668
-20.3699
-19.5388
-18.2267
-16.5414
-14.627
-12.6401
-10.7286
-9.014
-7.58466
-6.49901
-5.79362
-5.49188
-5.60888
-6.15093
-7.12187
-8.50668
-10.2676
-12.338
-14.6171
-16.9706
-19.2339
-21.2244
-22.7568
-23.6799
-23.8875
-23.3549
-22.1425
-20.3834
-18.2562
-15.9506
-13.6371
-11.4455
-9.45877
-7.71748
-6.231
-4.98828
-3.96672
-3.13897
-2.47756
-1.95745
-1.55735
-1.26029
-1.05437
-0.933743
-0.899672
-0.963334
-1.14883
-1.49529
-2.06122
-2.94941
-4.31132
-6.25457
-8.67223
-11.1596
-13.0729
-13.9499
-13.5713
-12.1411
-10.1391
-8.03301
-6.1194
-4.52402
-3.26424
-2.29857
-1.56325
-1.00077
-0.570926
-0.247401
-0.0110727
0.153332
0.259133
0.316767
0.337185
0.325523
0.295417
0.239094
0.190346
0.0940431
0.0749821
-15.0439
-15.0961
-15.115
-15.0858
-14.9916
-14.8212
-14.5784
-14.2884
-13.9978
-13.7683
-13.6659
-13.7472
-14.0491
-14.5822
-15.3262
-16.2282
-17.2043
-18.1459
-18.9311
-19.4415
-19.5788
-19.282
-18.5395
-17.392
-15.9258
-14.2584
-12.5197
-10.8353
-9.31221
-8.03197
-7.05201
-6.4105
-6.13244
-6.23361
-6.71994
-7.59204
-8.83388
-10.4083
-12.2533
-14.2776
-16.3614
-18.3605
-20.1159
-21.469
-22.2889
-22.4846
-22.0321
-20.9786
-19.4333
-17.5452
-15.4762
-13.3751
-11.3596
-9.50864
-7.86545
-6.44499
-5.24282
-4.24271
-3.42276
-2.75976
-2.23187
-1.82017
-1.50946
-1.28919
-1.15432
-1.10639
-1.15599
-1.3249
-1.64844
-2.17792
-2.99397
-4.20531
-5.88484
-7.94488
-10.0752
-11.7738
-12.6605
-12.5121
-11.4341
-9.77658
-7.92888
-6.1755
-4.66233
-3.43073
-2.45955
-1.70141
-1.11028
-0.652531
-0.304864
-0.0491068
0.130034
0.24644
0.311256
0.336184
0.327005
0.297999
0.241698
0.19263
0.0950645
0.0760158
-14.9167
-14.9562
-14.9654
-14.9341
-14.8519
-14.7132
-14.5236
-14.3041
-14.0912
-13.9325
-13.8783
-13.9718
-14.2411
-14.6928
-15.309
-16.0452
-16.8321
-17.581
-18.1933
-18.5729
-18.6404
-18.3463
-17.6803
-16.6742
-15.397
-13.9442
-12.4237
-10.9419
-9.59258
-8.45005
-7.56927
-6.98853
-6.73345
-6.81999
-7.25398
-8.03357
-9.14253
-10.5451
-12.1838
-13.9763
-15.8163
-17.5776
-19.122
-20.3145
-21.041
-21.2235
-20.8388
-19.9236
-18.5664
-16.8915
-15.0364
-13.1306
-11.2798
-9.55873
-8.01143
-6.65712
-5.49686
-4.51998
-3.70951
-3.04626
-2.5115
-2.08866
-1.76433
-1.5293
-1.37933
-1.3162
-1.34988
-1.49999
-1.79794
-2.28864
-3.037
-4.12253
-5.5925
-7.37264
-9.22127
-10.7448
-11.626
-11.6469
-10.8437
-9.47033
-7.84976
-6.24504
-4.80987
-3.60371
-2.62453
-1.84134
-1.21972
-0.732704
-0.359984
-0.0843753
0.109584
0.236425
0.308104
0.337153
0.330056
0.301767
0.245138
0.195476
0.0963059
0.0772722
-14.7981
-14.829
-14.833
-14.8036
-14.7348
-14.6243
-14.4786
-14.3151
-14.1627
-14.0576
-14.038
-14.1366
-14.374
-14.7546
-15.2617
-15.8582
-16.4872
-17.0764
-17.546
-17.8186
-17.8303
-17.5409
-16.9414
-16.0568
-14.9424
-13.676
-12.3472
-11.0459
-9.85357
-8.83744
-8.04898
-7.52548
-7.29241
-7.36549
-7.75052
-8.44394
-9.42982
-10.6744
-12.1247
-13.707
-15.3272
-16.8751
-18.231
-19.2793
-19.9211
-20.0896
-19.7625
-18.9674
-17.776
-16.2914
-14.6298
-12.9037
-11.2072
-9.61011
-8.15636
-6.86814
-5.75095
-4.79889
-3.99944
-3.33716
-2.7963
-2.36264
-2.02455
-1.77417
-1.60806
-1.52821
-1.54394
-1.67289
-1.94268
-2.39219
-3.07453
-4.04961
-5.34774
-6.90546
-8.5309
-9.90967
-10.7748
-10.9207
-10.3387
-9.2096
-7.79544
-6.33069
-4.96925
-3.78526
-2.79494
-1.9838
-1.32926
-0.811176
-0.412286
-0.11632
0.0925197
0.229557
0.307689
0.340375
0.334868
0.306838
0.249466
0.198898
0.0977468
0.0787385
-14.6873
-14.7127
-14.7147
-14.6895
-14.634
-14.5481
-14.4383
-14.3192
-14.2132
-14.1479
-14.1522
-14.2505
-14.4578
-14.7757
-15.1898
-15.6689
-16.1662
-16.6234
-16.9759
-17.1615
-17.129
-16.8458
-16.3045
-15.5248
-14.5512
-13.4469
-12.2862
-11.1451
-10.0942
-9.1933
-8.49008
-8.01997
-7.80768
-7.86839
-8.20771
-8.82131
-9.69365
-10.7933
-12.0721
-13.4641
-14.8864
-16.2429
-17.4304
-18.3495
-18.9152
-19.0694
-18.7912
-18.1007
-17.0558
-15.7413
-14.2553
-12.6945
-11.1426
-9.66392
-8.30135
-7.07899
-6.00581
-5.07998
-4.29293
-3.63267
-3.08633
-2.64197
-2.28979
-2.02326
-1.83976
-1.74149
-1.73712
-1.84244
-2.08153
-2.48767
-3.10436
-3.97792
-5.1282
-6.50164
-7.94362
-9.20002
-10.045
-10.2906
-9.89866
-8.98949
-7.76768
-6.43578
-5.14379
-3.97811
-2.97267
-2.12976
-1.43913
-0.887634
-0.461232
-0.144308
0.0794552
0.226372
0.310456
0.346202
0.341715
0.313418
0.254833
0.203
0.0994473
0.0804514
-14.5845
-14.6066
-14.6087
-14.5889
-14.5459
-14.481
-14.4003
-14.3157
-14.2447
-14.2083
-14.2281
-14.322
-14.5005
-14.7635
-15.0983
-15.4789
-15.867
-16.2153
-16.4721
-16.5876
-16.5205
-16.2451
-15.7551
-15.0662
-14.2142
-13.2508
-12.2375
-11.2382
-10.3138
-9.51737
-8.8922
-8.4714
-8.27843
-8.32771
-8.62454
-9.1645
-9.93252
-10.8998
-12.0228
-13.2429
-14.4874
-15.6726
-16.7097
-17.5134
-18.0105
-18.1507
-17.9142
-17.3153
-16.4001
-15.2381
-13.9115
-12.5032
-11.087
-9.72139
-8.44762
-7.29074
-6.26235
-5.36397
-4.5905
-3.93313
-3.3817
-2.92657
-2.55972
-2.27599
-2.07362
-1.95503
-1.92827
-2.00742
-2.21336
-2.57423
-3.12548
-3.90324
-4.92102
-6.13475
-7.4195
-8.57132
-9.39919
-9.73361
-9.51425
-8.80936
-7.76951
-6.56453
-5.33772
-4.18582
-3.16016
-2.28048
-1.5496
-0.961772
-0.506194
-0.167615
0.0710781
0.227465
0.316881
0.354994
0.350847
0.321664
0.261325
0.207816
0.101407
0.0824038
-14.4886
-14.5089
-14.5124
-14.4982
-14.4665
-14.4191
-14.3615
-14.3034
-14.2583
-14.2422
-14.2709
-14.3574
-14.5089
-14.724
-14.9914
-15.2895
-15.5873
-15.8464
-16.0254
-16.0847
-15.9913
-15.7248
-15.2802
-14.6701
-13.9234
-13.0824
-12.1979
-11.3238
-10.5122
-9.80982
-9.25554
-8.8798
-8.7045
-8.74317
-9.0007
-9.47289
-10.1454
-10.9922
-11.9741
-13.0393
-14.1242
-15.1563
-16.0595
-16.7602
-17.196
-17.3228
-17.1222
-16.6037
-15.8037
-14.7788
-13.5974
-12.3301
-11.0413
-9.78382
-8.59654
-7.50469
-6.5217
-5.65181
-4.89289
-4.23904
-3.68269
-3.21642
-2.83404
-2.53181
-2.30881
-2.1678
-2.11625
-2.16666
-2.33705
-2.65106
-3.13735
-3.82418
-4.72109
-5.7931
-6.94093
-8.00417
-8.82126
-9.23965
-9.18185
-8.67025
-7.80485
-6.72224
-5.55646
-4.41289
-3.36042
-2.43751
-1.66097
-1.03323
-0.546444
-0.185414
0.0681713
0.233506
0.327503
0.367163
0.362569
0.331791
0.269084
0.213432
0.103668
0.0846169
-14.3996
-14.4191
-14.4246
-14.416
-14.394
-14.3609
-14.3212
-14.283
-14.2566
-14.2539
-14.2866
-14.3638
-14.49
-14.6632
-14.8735
-15.1029
-15.326
-15.5122
-15.6285
-15.6431
-15.5302
-15.2735
-14.8693
-14.3276
-13.6721
-12.9373
-12.1652
-11.4011
-10.6895
-10.0712
-9.58077
-9.24578
-9.0864
-9.1151
-9.33642
-9.74639
-10.3318
-11.0691
-11.9236
-12.8495
-13.7916
-14.6873
-15.4713
-16.0806
-16.4615
-16.576
-16.4065
-15.9591
-15.2619
-14.3607
-13.312
-12.1754
-11.0065
-9.85261
-8.74965
-7.72234
-6.78525
-5.94469
-5.20109
-4.55113
-3.98973
-3.51164
-3.11254
-2.79015
-2.54449
-2.3787
-2.29981
-2.31891
-2.45145
-2.71719
-3.13929
-3.73992
-4.52636
-5.47227
-6.50103
-7.48945
-8.30202
-8.8021
-8.89887
-8.57376
-7.87864
-6.91561
-5.80677
-4.66484
-3.57708
-2.6026
-1.77365
-1.10156
-0.581123
-0.19675
0.0716245
0.245246
0.342912
0.383144
0.377182
0.343987
0.27822
0.219893
0.106238
0.0870841
-14.3158
-14.3352
-14.3429
-14.3392
-14.3254
-14.3034
-14.2775
-14.2538
-14.2403
-14.2459
-14.2788
-14.3455
-14.4485
-14.5853
-14.7472
-14.9194
-15.0813
-15.2084
-15.2743
-15.254
-15.1271
-14.8809
-14.5127
-14.0307
-13.4541
-12.8113
-12.1371
-11.4693
-10.846
-10.3024
-9.86893
-9.5704
-9.42506
-9.44431
-9.63228
-9.98536
-10.4916
-11.1298
-11.8695
-12.6706
-13.4851
-14.2595