/*--------------------------------*- C++ -*----------------------------------*\
| =========                 |                                                 |
| \\      /  F ield         | OpenFOAM: The Open Source CFD Toolbox           |
|  \\    /   O peration     | Version:  2.1.1                                 |
|   \\  /    A nd           | Web:      www.OpenFOAM.org                      |
|    \\/     M anipulation  |                                                 |
\*---------------------------------------------------------------------------*/
FoamFile
{
    version     2.0;
    format      ascii;
    class       surfaceScalarField;
    location    "0.12";
    object      phi;
}
// * * * * * * * * * * * * * * * * * * * * * * * * * * * * * * * * * * * * * //

dimensions      [0 3 -1 0 0 0 0];

internalField   nonuniform List<scalar> 
13452
(
4.59997e-05
2.24876e-05
2.96668e-05
1.63328e-05
2.11938e-05
8.47308e-06
1.72962e-05
3.89753e-06
1.56583e-05
1.6379e-06
1.48554e-05
8.02968e-07
1.43506e-05
5.04791e-07
1.39671e-05
3.83483e-07
1.3645e-05
3.22127e-07
1.33689e-05
2.76063e-07
1.31345e-05
2.34387e-07
1.29381e-05
1.96388e-07
1.27757e-05
1.62421e-07
1.26432e-05
1.32493e-07
1.2537e-05
1.06186e-07
1.24542e-05
8.28592e-08
1.23923e-05
6.18511e-08
1.23497e-05
4.25839e-08
1.23253e-05
2.44502e-08
1.23184e-05
6.90338e-09
1.23283e-05
-9.93386e-09
1.2355e-05
-2.6667e-08
1.23986e-05
-4.36688e-08
1.24595e-05
-6.08066e-08
1.25382e-05
-7.87649e-08
1.26356e-05
-9.73512e-08
1.27527e-05
-1.17157e-07
1.28899e-05
-1.37143e-07
1.30494e-05
-1.59568e-07
1.32237e-05
-1.74229e-07
1.34268e-05
-2.03167e-07
1.3568e-05
-1.41197e-07
-3.15059e-07
1.38831e-05
7.49136e-05
1.80179e-05
7.04166e-05
2.08299e-05
6.33329e-05
1.55568e-05
5.66862e-05
1.05442e-05
5.15794e-05
6.7447e-06
4.79351e-05
4.44722e-06
4.53275e-05
3.1124e-06
4.34146e-05
2.29636e-06
4.19636e-05
1.77314e-06
4.08249e-05
1.41475e-06
3.99066e-05
1.15268e-06
3.91512e-05
9.51813e-07
3.85213e-05
7.92387e-07
3.79915e-05
6.62277e-07
3.75442e-05
5.53498e-07
3.71665e-05
4.60486e-07
3.68492e-05
3.7922e-07
3.6585e-05
3.06718e-07
3.63688e-05
2.40668e-07
3.61964e-05
1.79338e-07
3.6065e-05
1.21488e-07
3.59726e-05
6.56882e-08
3.59185e-05
1.04363e-08
3.59014e-05
-4.37127e-08
3.59212e-05
-9.86142e-08
3.59781e-05
-1.54211e-07
3.60727e-05
-2.11756e-07
3.62062e-05
-2.70654e-07
3.63794e-05
-3.32717e-07
3.65959e-05
-3.90746e-07
3.68537e-05
-4.61009e-07
3.72074e-05
-4.94876e-07
-6.06275e-07
3.74986e-05
7.85212e-05
1.19532e-05
8.23362e-05
1.70148e-05
8.29979e-05
1.48951e-05
8.1489e-05
1.20531e-05
7.89757e-05
9.25805e-06
7.6301e-05
7.12189e-06
7.37962e-05
5.61719e-06
7.15644e-05
4.52815e-06
6.96189e-05
3.71867e-06
6.79353e-05
3.09833e-06
6.64807e-05
2.6073e-06
6.52235e-05
2.20906e-06
6.41357e-05
1.88015e-06
6.31937e-05
1.60429e-06
6.23777e-05
1.36955e-06
6.16712e-05
1.16698e-06
6.10607e-05
9.89667e-07
6.05352e-05
8.32212e-07
6.00856e-05
6.90282e-07
5.97046e-05
5.60386e-07
5.93863e-05
4.3975e-07
5.91261e-05
3.25863e-07
5.892e-05
2.1659e-07
5.87655e-05
1.10717e-07
5.86612e-05
5.68867e-09
5.86072e-05
-1.00171e-07
5.8603e-05
-2.07564e-07
5.86486e-05
-3.16223e-07
5.87435e-05
-4.27597e-07
5.88909e-05
-5.38198e-07
5.90849e-05
-6.55049e-07
5.93454e-05
-7.55369e-07
-8.70798e-07
5.961e-05
7.81468e-05
8.33302e-06
8.19234e-05
1.32382e-05
8.462e-05
1.21986e-05
8.62442e-05
1.04289e-05
8.69259e-05
8.57633e-06
8.70184e-05
7.02947e-06
8.67641e-05
5.87147e-06
8.63054e-05
4.98681e-06
8.57339e-05
4.29018e-06
8.51053e-05
3.72692e-06
8.44544e-05
3.25827e-06
8.38038e-05
2.85957e-06
8.31696e-05
2.51438e-06
8.25627e-05
2.21116e-06
8.19902e-05
1.94207e-06
8.14563e-05
1.70092e-06
8.09633e-05
1.48264e-06
8.05125e-05
1.283e-06
8.01043e-05
1.09847e-06
7.97387e-05
9.2604e-07
7.94153e-05
7.63146e-07
7.91337e-05
6.07447e-07
7.88935e-05
4.56832e-07
7.86944e-05
3.09733e-07
7.85358e-05
1.64311e-07
7.84164e-05
1.92395e-08
7.83369e-05
-1.28082e-07
7.82978e-05
-2.77124e-07
7.82998e-05
-4.29571e-07
7.83457e-05
-5.8411e-07
7.84344e-05
-7.43772e-07
7.85793e-05
-9.002e-07
-1.06202e-06
7.87705e-05
7.89918e-05
5.99711e-06
8.1592e-05
1.0638e-05
8.35196e-05
1.0271e-05
8.49642e-05
8.98421e-06
8.59834e-05
7.55714e-06
8.67259e-05
6.28692e-06
8.72944e-05
5.303e-06
8.7737e-05
4.54425e-06
8.80853e-05
3.94188e-06
8.83606e-05
3.45161e-06
8.85773e-05
3.04153e-06
8.87468e-05
2.69009e-06
8.88773e-05
2.38384e-06
8.89752e-05
2.11329e-06
8.90466e-05
1.87066e-06
8.90974e-05
1.65019e-06
8.91326e-05
1.44745e-06
8.91567e-05
1.2589e-06
8.91735e-05
1.0816e-06
8.91865e-05
9.1304e-07
8.91986e-05
7.5108e-07
8.92123e-05
5.93778e-07
8.92297e-05
4.39384e-07
8.92529e-05
2.8651e-07
8.92835e-05
1.33749e-07
8.93217e-05
-1.89347e-08
8.93671e-05
-1.73481e-07
8.94208e-05
-3.30811e-07
8.94839e-05
-4.92717e-07
8.95591e-05
-6.59274e-07
8.96479e-05
-8.32589e-07
8.97583e-05
-1.01067e-06
-1.19985e-06
8.98962e-05
8.04634e-05
4.37964e-06
8.25063e-05
8.59508e-06
8.39936e-05
8.78377e-06
8.50545e-05
7.92327e-06
8.5779e-05
6.83262e-06
8.62956e-05
5.77034e-06
8.67056e-05
4.89305e-06
8.70561e-05
4.19369e-06
8.73704e-05
3.62757e-06
8.76601e-05
3.16198e-06
8.793e-05
2.77163e-06
8.81825e-05
2.4375e-06
8.842e-05
2.14642e-06
8.86441e-05
1.88912e-06
8.88561e-05
1.65867e-06
8.90567e-05
1.44958e-06
8.92467e-05
1.25752e-06
8.94266e-05
1.07894e-06
8.95973e-05
9.10923e-07
8.97593e-05
7.50984e-07
8.99134e-05
5.97013e-07
9.00601e-05
4.47128e-07
9.01997e-05
2.99715e-07
9.0333e-05
1.5328e-07
9.04604e-05
6.32428e-09
9.0583e-05
-1.41565e-07
9.07026e-05
-2.93031e-07
9.082e-05
-4.48276e-07
9.09361e-05
-6.08748e-07
9.10522e-05
-7.75374e-07
9.11701e-05
-9.50487e-07
9.12949e-05
-1.1355e-06
-1.33742e-06
9.14325e-05
8.22344e-05
3.24378e-06
8.38955e-05
6.93401e-06
8.51845e-05
7.49475e-06
8.61201e-05
6.98767e-06
8.67645e-05
6.18822e-06
8.72077e-05
5.3271e-06
8.75376e-05
4.56319e-06
8.78034e-05
3.92793e-06
8.80317e-05
3.39928e-06
8.82378e-05
2.95584e-06
8.843e-05
2.57948e-06
8.86124e-05
2.25509e-06
8.87874e-05
1.97135e-06
8.89566e-05
1.71993e-06
8.91209e-05
1.49442e-06
8.92808e-05
1.28969e-06
8.94367e-05
1.10161e-06
8.95888e-05
9.26793e-07
8.97374e-05
7.6238e-07
8.98824e-05
6.0595e-07
9.0024e-05
4.55414e-07
9.01622e-05
3.08921e-07
9.02971e-05
1.6482e-07
9.04288e-05
2.1582e-08
9.05575e-05
-1.22332e-07
9.06839e-05
-2.67996e-07
9.0808e-05
-4.17106e-07
9.09302e-05
-5.70487e-07
9.10509e-05
-7.29513e-07
9.11712e-05
-8.95668e-07
9.12923e-05
-1.07152e-06
9.14168e-05
-1.26e-06
-1.46728e-06
9.15466e-05
8.42168e-05
2.44247e-06
8.55515e-05
5.59931e-06
8.6675e-05
6.37134e-06
8.75344e-05
6.12821e-06
8.81631e-05
5.55956e-06
8.86138e-05
4.87637e-06
8.89519e-05
4.22509e-06
8.9221e-05
3.65883e-06
8.94467e-05
3.17357e-06
8.9645e-05
2.7575e-06
8.98255e-05
2.399e-06
8.99937e-05
2.0869e-06
9.01531e-05
1.81201e-06
9.03058e-05
1.56723e-06
9.04533e-05
1.34685e-06
9.05968e-05
1.14624e-06
9.07368e-05
9.61549e-07
9.0874e-05
7.89591e-07
9.10088e-05
6.27653e-07
9.11413e-05
4.73412e-07
9.12719e-05
3.24848e-07
9.14006e-05
1.80183e-07
9.15277e-05
3.77788e-08
9.1653e-05
-1.03779e-07
9.17766e-05
-2.45952e-07
9.18986e-05
-3.89944e-07
9.20187e-05
-5.3719e-07
9.2137e-05
-6.88841e-07
9.22538e-05
-8.46301e-07
9.23694e-05
-1.01128e-06
9.24842e-05
-1.18631e-06
9.25989e-05
-1.37468e-06
-1.58102e-06
9.27126e-05
8.63722e-05
1.86895e-06
8.74422e-05
4.52934e-06
8.8415e-05
5.39857e-06
8.91944e-05
5.34875e-06
8.97938e-05
4.96024e-06
9.02436e-05
4.42655e-06
9.0591e-05
3.87765e-06
9.08725e-05
3.37732e-06
9.11106e-05
2.93549e-06
9.13198e-05
2.54832e-06
9.15093e-05
2.2095e-06
9.16848e-05
1.91141e-06
9.18499e-05
1.64689e-06
9.20071e-05
1.41002e-06
9.21581e-05
1.19587e-06
9.2304e-05
1.00028e-06
9.24458e-05
8.19752e-07
9.25841e-05
6.51318e-07
9.27193e-05
4.92436e-07
9.28518e-05
3.40906e-07
9.29819e-05
1.94807e-07
9.31096e-05
5.24351e-08
9.32352e-05
-8.77488e-08
9.33585e-05
-2.27116e-07
9.34796e-05
-3.67024e-07
9.35983e-05
-5.08675e-07
9.37145e-05
-6.53368e-07
9.3828e-05
-8.0233e-07
9.39386e-05
-9.56938e-07
9.40462e-05
-1.11885e-06
9.41501e-05
-1.29027e-06
9.42496e-05
-1.47412e-06
-1.67332e-06
9.43419e-05
8.86677e-05
1.45123e-06
8.95256e-05
3.67146e-06
9.03648e-05
4.55936e-06
9.10687e-05
4.64487e-06
9.16343e-05
4.39459e-06
9.20769e-05
3.98395e-06
9.24284e-05
3.52622e-06
9.27177e-05
3.08797e-06
9.29645e-05
2.68874e-06
9.31818e-05
2.33102e-06
9.33785e-05
2.01279e-06
9.35603e-05
1.72957e-06
9.3731e-05
1.47618e-06
9.38932e-05
1.24789e-06
9.40485e-05
1.04057e-06
9.41981e-05
8.50584e-07
9.43431e-05
6.74775e-07
9.4484e-05
5.10421e-07
9.46213e-05
3.55159e-07
9.47553e-05
2.06922e-07
9.48862e-05
6.38925e-08
9.50142e-05
-7.55442e-08
9.51393e-05
-2.1284e-07
9.52615e-05
-3.493e-07
9.53806e-05
-4.86175e-07
9.54966e-05
-6.24618e-07
9.5609e-05
-7.65804e-07
9.57175e-05
-9.10881e-07
9.58217e-05
-1.06109e-06
9.59207e-05
-1.21785e-06
9.60133e-05
-1.38288e-06
9.60975e-05
-1.55836e-06
-1.74576e-06
9.617e-05
9.10815e-05
1.14108e-06
9.17713e-05
2.98162e-06
9.24943e-05
3.83635e-06
9.31292e-05
4.00999e-06
9.36602e-05
3.86362e-06
9.40915e-05
3.55262e-06
9.44432e-05
3.17447e-06
9.47378e-05
2.79343e-06
9.49916e-05
2.43493e-06
9.52163e-05
2.10634e-06
9.542e-05
1.80909e-06
9.56082e-05
1.54136e-06
9.57846e-05
1.29976e-06
9.59518e-05
1.08074e-06
9.61114e-05
8.80889e-07
9.62649e-05
6.97109e-07
9.64131e-05
5.26605e-07
9.65566e-05
3.66904e-07
9.66959e-05
2.15829e-07
9.68314e-05
7.14591e-08
9.69632e-05
-6.79087e-08
9.70914e-05
-2.03783e-07
9.72161e-05
-3.37519e-07
9.73372e-05
-4.70338e-07
9.74544e-05
-6.03382e-07
9.75674e-05
-7.37702e-07
9.7676e-05
-8.74323e-07
9.77793e-05
-1.01424e-06
9.78767e-05
-1.15847e-06
9.7967e-05
-1.30811e-06
9.80484e-05
-1.46431e-06
9.81185e-05
-1.62845e-06
-1.80082e-06
9.81735e-05
9.35998e-05
9.05946e-07
9.41573e-05
2.42407e-06
9.47796e-05
3.21412e-06
9.5351e-05
3.43854e-06
9.5847e-05
3.3676e-06
9.62645e-05
3.13518e-06
9.66143e-05
2.82461e-06
9.69128e-05
2.495e-06
9.7173e-05
2.17467e-06
9.7405e-05
1.87442e-06
9.76158e-05
1.59828e-06
9.78106e-05
1.34653e-06
9.7993e-05
1.11736e-06
9.81655e-05
9.08241e-07
9.83299e-05
7.16516e-07
9.84874e-05
5.3958e-07
9.8639e-05
3.74999e-07
9.87853e-05
2.20564e-07
9.89269e-05
7.42924e-08
9.90639e-05
-6.55847e-08
9.91967e-05
-2.00639e-07
9.93251e-05
-3.32267e-07
9.94493e-05
-4.6172e-07
9.95691e-05
-5.90114e-07
9.96842e-05
-7.18468e-07
9.97942e-05
-8.47706e-07
9.98986e-05
-9.78688e-07
9.99965e-05
-1.11222e-06
0.000100087
-1.24904e-06
0.000100169
-1.38989e-06
0.00010024
-1.53538e-06
0.000100298
-1.68616e-06
-1.84167e-06
0.000100339
9.62142e-05
7.23858e-07
9.6668e-05
1.97023e-06
9.72038e-05
2.67835e-06
9.77177e-05
2.92463e-06
9.81797e-05
2.9056e-06
9.85814e-05
2.73346e-06
9.89271e-05
2.47893e-06
9.92275e-05
2.19461e-06
9.94928e-05
1.90935e-06
9.97311e-05
1.63611e-06
9.99487e-05
1.38073e-06
0.00010015
1.14512e-06
0.000100339
9.2878e-07
0.000100517
7.30111e-07
0.000100686
5.47108e-07
0.000100848
3.77645e-07
0.000101003
2.19635e-07
0.000101153
7.11231e-08
0.000101297
-6.96777e-08
0.000101436
-2.04378e-07
0.000101569
-3.34415e-07
0.000101698
-4.6107e-07
0.000101822
-5.85476e-07
0.000101941
-7.08636e-07
0.000102054
-8.31437e-07
0.00010216
-9.5466e-07
0.000102261
-1.07899e-06
0.000102354
-1.20501e-06
0.000102438
-1.33321e-06
0.000102512
-1.46395e-06
0.000102574
-1.5974e-06
0.000102621
-1.73361e-06
-1.87147e-06
0.000102651
9.89197e-05
5.79862e-07
9.92925e-05
1.59747e-06
9.97548e-05
2.21603e-06
0.000100217
2.46252e-06
0.000100646
2.47619e-06
0.000101031
2.34863e-06
0.000101371
2.13927e-06
0.000101672
1.89385e-06
0.000101941
1.64013e-06
0.000102185
1.3921e-06
0.000102409
1.15679e-06
0.000102617
9.37262e-07
0.000102811
7.34031e-07
0.000102995
5.4628e-07
0.00010317
3.72572e-07
0.000103336
2.11211e-07
0.000103495
6.0429e-08
0.000103648
-8.14834e-08
0.000103794
-2.16121e-07
0.000103935
-3.44937e-07
0.00010407
-4.69236e-07
0.000104199
-5.90174e-07
0.000104322
-7.08766e-07
0.000104439
-8.25892e-07
0.00010455
-9.42305e-07
0.000104654
-1.05864e-06
0.000104751
-1.17539e-06
0.000104839
-1.29296e-06
0.000104917
-1.41157e-06
0.000104984
-1.53129e-06
0.000105039
-1.65191e-06
0.000105078
-1.77308e-06
-1.89339e-06
0.0001051
0.000101714
4.63653e-07
0.000102023
1.28806e-06
0.000102424
1.81551e-06
0.00010284
2.04646e-06
0.000103239
2.07731e-06
0.000103606
1.98097e-06
0.000103939
1.80686e-06
0.000104239
1.59404e-06
0.000104511
1.36812e-06
0.00010476
1.14325e-06
0.000104989
9.27045e-07
0.000105203
7.23308e-07
0.000105404
5.33298e-07
0.000105593
3.56811e-07
0.000105773
1.92892e-07
0.000105944
4.02124e-08
0.000106107
-1.02706e-07
0.000106263
-2.37348e-07
0.000106412
-3.65128e-07
0.000106555
-4.87349e-07
0.000106691
-6.05182e-07
0.00010682
-7.19662e-07
0.000106943
-8.31684e-07
0.000107059
-9.42005e-07
0.000107168
-1.05125e-06
0.000107269
-1.1599e-06
0.000107362
-1.26831e-06
0.000107446
-1.37666e-06
0.000107519
-1.485e-06
0.000107581
-1.59314e-06
0.00010763
-1.70063e-06
0.000107664
-1.80683e-06
-1.91024e-06
0.00010768
0.000104596
3.68024e-07
0.000104856
1.02814e-06
0.000105205
1.46652e-06
0.000105581
1.67087e-06
0.000105951
1.7065e-06
0.000106302
1.63016e-06
0.000106627
1.48244e-06
0.000106924
1.29617e-06
0.000107198
1.09424e-06
0.000107451
8.90253e-07
0.000107686
6.91958e-07
0.000107906
5.03528e-07
0.000108113
3.26707e-07
0.000108308
1.61743e-07
0.000108493
8.05373e-09
0.000108668
-1.35389e-07
0.000108835
-2.69816e-07
0.000108995
-3.96515e-07
0.000109146
-5.16739e-07
0.00010929
-6.31649e-07
0.000109428
-7.42292e-07
0.000109557
-8.49586e-07
0.00010968
-9.54309e-07
0.000109795
-1.0571e-06
0.000109902
-1.15847e-06
0.000110001
-1.25876e-06
0.000110091
-1.35818e-06
0.000110171
-1.45678e-06
0.000110241
-1.55442e-06
0.000110298
-1.65075e-06
0.000110343
-1.74518e-06
0.000110373
-1.83694e-06
-1.92452e-06
0.000110387
0.000107566
2.87837e-07
0.000107787
8.06887e-07
0.000108094
1.16012e-06
0.000108434
1.33037e-06
0.00010878
1.36101e-06
0.000109115
1.29532e-06
0.000109431
1.16619e-06
0.000109726
1.00081e-06
0.000110001
8.19115e-07
0.000110258
6.3366e-07
0.000110498
4.51942e-07
0.000110723
2.78202e-07
0.000110936
1.14431e-07
0.000111136
-3.88359e-08
0.000111326
-1.81916e-07
0.000111506
-3.15606e-07
0.000111678
-4.40943e-07
0.00011184
-5.59049e-07
0.000111994
-6.71033e-07
0.000112141
-7.77934e-07
0.000112279
-8.80684e-07
0.00011241
-9.80092e-07
0.000112532
-1.07683e-06
0.000112646
-1.17144e-06
0.000112752
-1.2643e-06
0.000112849
-1.35566e-06
0.000112937
-1.44562e-06
0.000113014
-1.5341e-06
0.00011308
-1.62084e-06
0.000113135
-1.70542e-06
0.000113177
-1.78715e-06
0.000113205
-1.86523e-06
-1.93828e-06
0.000113219
0.000110625
2.19349e-07
0.000110816
6.15801e-07
0.000111088
8.8854e-07
0.000111399
1.0198e-06
0.000111722
1.03787e-06
0.000112042
9.75119e-07
0.00011235
8.57812e-07
0.000112643
7.08155e-07
0.000112919
5.43091e-07
0.000113179
3.73818e-07
0.000113424
2.07271e-07
0.000113654
4.75087e-08
0.000113872
-1.03439e-07
0.000114078
-2.44901e-07
0.000114273
-3.77036e-07
0.000114458
-5.00488e-07
0.000114633
-6.16152e-07
0.000114799
-7.25022e-07
0.000114956
-8.28093e-07
0.000115105
-9.26298e-07
0.000115245
-1.02047e-06
0.000115376
-1.11132e-06
0.000115498
-1.19944e-06
0.000115612
-1.28526e-06
0.000115717
-1.36908e-06
0.000115812
-1.45106e-06
0.000115898
-1.53121e-06
0.000115973
-1.60937e-06
0.000116038
-1.68522e-06
0.00011609
-1.75828e-06
0.000116131
-1.82789e-06
0.000116159
-1.89325e-06
-1.95315e-06
0.000116174
0.000113775
1.59767e-07
0.000113943
4.48176e-07
0.000114186
6.45105e-07
0.000114472
7.34325e-07
0.000114776
7.33942e-07
0.000115083
6.67807e-07
0.000115384
5.56524e-07
0.000115674
4.17957e-07
0.000115951
2.66162e-07
0.000116214
1.10797e-07
0.000116464
-4.19905e-08
0.0001167
-1.88527e-07
0.000116923
-3.26922e-07
0.000117135
-4.56508e-07
0.000117335
-5.77393e-07
0.000117525
-6.90143e-07
0.000117704
-7.95568e-07
0.000117874
-8.94574e-07
0.000118034
-9.88072e-07
0.000118184
-1.07691e-06
0.000118326
-1.16184e-06
0.000118458
-1.24351e-06
0.000118581
-1.32241e-06
0.000118694
-1.39891e-06
0.000118799
-1.47324e-06
0.000118893
-1.54549e-06
0.000118977
-1.6156e-06
0.000119051
-1.68338e-06
0.000119115
-1.74847e-06
0.000119167
-1.81041e-06
0.000119207
-1.86855e-06
0.000119236
-1.92219e-06
-1.97029e-06
0.000119254
0.000117017
1.0695e-07
0.000117167
2.98635e-07
0.000117388
4.24022e-07
0.000117653
4.6934e-07
0.000117941
4.46009e-07
0.000118237
3.71313e-07
0.000118533
2.61137e-07
0.000118821
1.29577e-07
0.000119099
-1.20103e-08
0.000119366
-1.55591e-07
0.00011962
-2.95965e-07
0.000119861
-4.30009e-07
0.00012009
-5.56121e-07
0.000120307
-6.73768e-07
0.000120513
-7.83105e-07
0.000120708
-8.84694e-07
0.000120891
-9.79316e-07
0.000121065
-1.06783e-06
0.000121228
-1.15111e-06
0.000121381
-1.22992e-06
0.000121524
-1.30498e-06
0.000121657
-1.37686e-06
0.000121781
-1.44599e-06
0.000121895
-1.5127e-06
0.000121999
-1.57716e-06
0.000122092
-1.63941e-06
0.000122176
-1.69936e-06
0.00012225
-1.75679e-06
0.000122313
-1.81137e-06
0.000122365
-1.86265e-06
0.000122406
-1.91006e-06
0.000122437
-1.95299e-06
-1.9906e-06
0.000122457
0.000120354
5.92077e-08
0.00012049
1.62787e-07
0.000120693
2.20222e-07
0.000120942
2.20495e-07
0.000121218
1.70726e-07
0.000121506
8.32411e-08
0.000121797
-2.99756e-08
0.000122084
-1.58074e-07
0.000122365
-2.92177e-07
0.000122635
-4.25903e-07
0.000122894
-5.55103e-07
0.000123141
-6.77329e-07
0.000123377
-7.91399e-07
0.0001236
-8.97024e-07
0.000123811
-9.94496e-07
0.000124011
-1.08445e-06
0.000124199
-1.16769e-06
0.000124377
-1.24509e-06
0.000124543
-1.31747e-06
0.000124699
-1.38562e-06
0.000124844
-1.45018e-06
0.000124979
-1.51168e-06
0.000125103
-1.57054e-06
0.000125218
-1.62703e-06
0.000125322
-1.68129e-06
0.000125416
-1.73333e-06
0.000125499
-1.78305e-06
0.000125573
-1.83025e-06
0.000125636
-1.87459e-06
0.000125689
-1.9157e-06
0.000125732
-1.95307e-06
0.000125765
-1.98621e-06
-2.01443e-06
0.000125789
0.000123787
1.51575e-08
0.000123913
3.69494e-08
0.000124104
2.91983e-08
0.000124341
-1.63822e-08
0.000124607
-9.53571e-08
0.000124889
-1.99092e-07
0.000125178
-3.18808e-07
0.000125467
-4.46456e-07
0.00012575
-5.75423e-07
0.000126025
-7.00958e-07
0.00012629
-8.20039e-07
0.000126543
-9.30995e-07
0.000126785
-1.03317e-06
0.000127015
-1.12662e-06
0.000127232
-1.21186e-06
0.000127437
-1.28966e-06
0.000127631
-1.36092e-06
0.000127812
-1.42654e-06
0.000127982
-1.48738e-06
0.000128141
-1.54419e-06
0.000128288
-1.59764e-06
0.000128425
-1.64822e-06
0.00012855
-1.69632e-06
0.000128666
-1.7422e-06
0.00012877
-1.78597e-06
0.000128865
-1.82764e-06
0.000128949
-1.86712e-06
0.000129023
-1.9042e-06
0.000129087
-1.93862e-06
0.000129141
-1.97003e-06
0.000129186
-1.99803e-06
0.000129222
-2.02224e-06
-2.0421e-06
0.00012925
0.00012732
-2.63858e-08
0.000127439
-8.20768e-08
0.000127621
-1.53181e-07
0.00012785
-2.45385e-07
0.000128111
-3.5587e-07
0.000128391
-4.78742e-07
0.00012868
-6.07854e-07
0.000128971
-7.37588e-07
0.000129259
-8.63399e-07
0.00012954
-9.82134e-07
0.000129812
-1.09194e-06
0.000130073
-1.19202e-06
0.000130322
-1.28232e-06
0.000130559
-1.36334e-06
0.000130783
-1.43588e-06
0.000130994
-1.50094e-06
0.000131193
-1.55954e-06
0.000131379
-1.61268e-06
0.000131553
-1.66125e-06
0.000131715
-1.70606e-06
0.000131865
-1.74775e-06
0.000132003
-1.78683e-06
0.000132131
-1.82369e-06
0.000132247
-1.85857e-06
0.000132353
-1.89157e-06
0.000132448
-1.92273e-06
0.000132533
-1.95195e-06
0.000132607
-1.97905e-06
0.000132673
-2.00382e-06
0.000132729
-2.02595e-06
0.000132776
-2.04513e-06
0.000132814
-2.06106e-06
-2.07328e-06
0.000132846
0.000130955
-6.64672e-08
0.00013107
-1.97187e-07
0.000131248
-3.30817e-07
0.000131473
-4.70593e-07
0.000131732
-6.14615e-07
0.000132012
-7.59043e-07
0.000132304
-8.99918e-07
0.0001326
-1.03376e-06
0.000132895
-1.15796e-06
0.000133184
-1.27093e-06
0.000133464
-1.37202e-06
0.000133733
-1.46137e-06
0.00013399
-1.53963e-06
0.000134235
-1.60781e-06
0.000134466
-1.66709e-06
0.000134684
-1.71873e-06
0.000134888
-1.76393e-06
0.000135079
-1.80382e-06
0.000135257
-1.83938e-06
0.000135423
-1.87147e-06
0.000135576
-1.90075e-06
0.000135717
-1.92777e-06
0.000135846
-1.9529e-06
0.000135964
-1.97639e-06
0.000136071
-1.99837e-06
0.000136167
-2.01886e-06
0.000136253
-2.03779e-06
0.000136329
-2.05503e-06
0.000136395
-2.07038e-06
0.000136453
-2.0836e-06
0.000136502
-2.09445e-06
0.000136544
-2.10271e-06
-2.10802e-06
0.000136578
0.000134695
-1.06085e-07
0.000134809
-3.1117e-07
0.000134986
-5.07616e-07
0.000135211
-6.96324e-07
0.000135473
-8.75877e-07
0.000135757
-1.04402e-06
0.000136056
-1.19865e-06
0.000136361
-1.33824e-06
0.000136665
-1.46198e-06
0.000136964
-1.56984e-06
0.000137254
-1.66246e-06
0.000137534
-1.74094e-06
0.000137801
-1.80673e-06
0.000138054
-1.86143e-06
0.000138294
-1.90666e-06
0.000138519
-1.944e-06
0.00013873
-1.9749e-06
0.000138927
-2.00065e-06
0.00013911
-2.02234e-06
0.000139279
-2.0409e-06
0.000139436
-2.05705e-06
0.000139579
-2.07136e-06
0.000139711
-2.08423e-06
0.00013983
-2.09592e-06
0.000139938
-2.10657e-06
0.000140036
-2.11621e-06
0.000140123
-2.12479e-06
0.0001402
-2.13221e-06
0.000140268
-2.13829e-06
0.000140327
-2.14286e-06
0.000140378
-2.14569e-06
0.000140422
-2.14663e-06
-2.14534e-06
0.00014046
0.000138542
-1.46237e-07
0.000138658
-4.26824e-07
0.000138838
-6.87554e-07
0.000139069
-9.27036e-07
0.000139337
-1.1441e-06
0.000139631
-1.33778e-06
0.00013994
-1.50769e-06
0.000140256
-1.65413e-06
0.000140572
-1.77807e-06
0.000140883
-1.88106e-06
0.000141186
-1.96504e-06
0.000141477
-2.03221e-06
0.000141755
-2.08485e-06
0.000142019
-2.12522e-06
0.000142267
-2.15545e-06
0.000142501
-2.17749e-06
0.000142719
-2.19307e-06
0.000142922
-2.20368e-06
0.00014311
-2.21056e-06
0.000143284
-2.21473e-06
0.000143444
-2.21697e-06
0.000143591
-2.2179e-06
0.000143724
-2.21794e-06
0.000143846
-2.21737e-06
0.000143956
-2.21634e-06
0.000144054
-2.2149e-06
0.000144143
-2.21303e-06
0.000144221
-2.21062e-06
0.00014429
-2.20754e-06
0.000144351
-2.20364e-06
0.000144404
-2.19874e-06
0.00014445
-2.19273e-06
-2.18532e-06
0.00014449
0.000142501
-1.8803e-07
0.000142621
-5.47281e-07
0.000142809
-8.75249e-07
0.00014305
-1.16821e-06
0.000143331
-1.42512e-06
0.00014364
-1.64621e-06
0.000143965
-1.83267e-06
0.000144297
-1.98664e-06
0.00014463
-2.11092e-06
0.000144958
-2.2087e-06
0.000145276
-2.28333e-06
0.000145582
-2.33818e-06
0.000145874
-2.37647e-06
0.00014615
-2.4012e-06
0.000146409
-2.41508e-06
0.000146652
-2.42047e-06
0.000146879
-2.41943e-06
0.000147089
-2.41368e-06
0.000147283
-2.40461e-06
0.000147461
-2.39336e-06
0.000147625
-2.38079e-06
0.000147775
-2.36755e-06
0.000147911
-2.3541e-06
0.000148034
-2.34073e-06
0.000148146
-2.32762e-06
0.000148245
-2.31481e-06
0.000148335
-2.30229e-06
0.000148414
-2.28996e-06
0.000148484
-2.27771e-06
0.000148546
-2.26538e-06
0.0001486
-2.25281e-06
0.000148647
-2.23988e-06
-2.22629e-06
0.000148688
0.000146574
-2.32636e-07
0.000146703
-6.75858e-07
0.000146903
-1.07541e-06
0.00014716
-1.42512e-06
0.000147459
-1.7242e-06
0.000147787
-1.9742e-06
0.000148132
-2.178e-06
0.000148485
-2.33967e-06
0.000148838
-2.46395e-06
0.000149185
-2.55576e-06
0.000149522
-2.61996e-06
0.000149845
-2.66117e-06
0.000150152
-2.68364e-06
0.000150442
-2.69118e-06
0.000150714
-2.68711e-06
0.000150968
-2.6743e-06
0.000151203
-2.65514e-06
0.000151421
-2.63161e-06
0.000151622
-2.6053e-06
0.000151806
-2.57746e-06
0.000151974
-2.54904e-06
0.000152128
-2.52074e-06
0.000152267
-2.49304e-06
0.000152392
-2.46625e-06
0.000152505
-2.44055e-06
0.000152606
-2.416e-06
0.000152696
-2.39256e-06
0.000152777
-2.37015e-06
0.000152848
-2.34866e-06
0.00015291
-2.32792e-06
0.000152965
-2.30778e-06
0.000153013
-2.28815e-06
-2.26871e-06
0.000153056
0.000150765
-2.81776e-07
0.000150906
-8.17393e-07
0.000151126
-1.29532e-06
0.000151408
-1.70666e-06
0.000151735
-2.05106e-06
0.000152092
-2.33155e-06
0.000152467
-2.55295e-06
0.000152849
-2.72157e-06
0.000153229
-2.84437e-06
0.000153602
-2.92827e-06
0.000153962
-2.97982e-06
0.000154306
-3.00504e-06
0.000154631
-3.00932e-06
0.000154937
-2.99735e-06
0.000155223
-2.97314e-06
0.000155489
-2.94007e-06
0.000155735
-2.9009e-06
0.000155961
-2.85789e-06
0.000156169
-2.81281e-06
0.000156358
-2.76703e-06
0.000156531
-2.72158e-06
0.000156687
-2.6772e-06
0.000156829
-2.63439e-06
0.000156956
-2.59348e-06
0.00015707
-2.55461e-06
0.000157172
-2.51785e-06
0.000157262
-2.48315e-06
0.000157343
-2.4504e-06
0.000157413
-2.41946e-06
0.000157476
-2.39015e-06
0.00015753
-2.36227e-06
0.000157578
-2.33568e-06
-2.31001e-06
0.000157619
0.000155077
-3.36861e-07
0.000155235
-9.76035e-07
0.00015548
-1.54044e-06
0.000155792
-2.01849e-06
0.000156152
-2.41116e-06
0.000156544
-2.72355e-06
0.000156954
-2.96275e-06
0.00015737
-3.13755e-06
0.000157783
-3.25738e-06
0.000158186
-3.33131e-06
0.000158574
-3.36776e-06
0.000158943
-3.37433e-06
0.000159292
-3.35765e-06
0.000159618
-3.32342e-06
0.000159921
-3.27641e-06
0.000160202
-3.22056e-06
0.00016046
-3.15906e-06
0.000160696
-3.09445e-06
0.000160912
-3.0287e-06
0.000161108
-2.9633e-06
0.000161286
-2.89936e-06
0.000161447
-2.83765e-06
0.000161591
-2.77868e-06
0.00016172
-2.72275e-06
0.000161836
-2.67e-06
0.000161938
-2.62046e-06
0.000162029
-2.57404e-06
0.000162109
-2.53062e-06
0.00016218
-2.49e-06
0.000162242
-2.452e-06
0.000162296
-2.41638e-06
0.000162343
-2.383e-06
-2.35145e-06
0.000162385
0.000159516
-4.02121e-07
0.000159703
-1.16274e-06
0.000159989
-1.82668e-06
0.000160349
-2.3791e-06
0.000160762
-2.82331e-06
0.000161206
-3.1675e-06
0.000161665
-3.42205e-06
0.000162127
-3.59929e-06
0.000162581
-3.7118e-06
0.000163021
-3.77126e-06
0.000163441
-3.7882e-06
0.000163839
-3.77191e-06
0.000164212
-3.73038e-06
0.000164559
-3.67031e-06
0.000164879
-3.59725e-06
0.000165175
-3.5157e-06
0.000165445
-3.42927e-06
0.000165691
-3.34075e-06
0.000165915
-3.25229e-06
0.000166117
-3.16551e-06
0.000166299
-3.08154e-06
0.000166463
-3.00118e-06
0.000166609
-2.92492e-06
0.000166739
-2.85303e-06
0.000166855
-2.78561e-06
0.000166957
-2.72263e-06
0.000167047
-2.66396e-06
0.000167126
-2.60942e-06
0.000167194
-2.55876e-06
0.000167254
-2.51172e-06
0.000167306
-2.468e-06
0.00016735
-2.42734e-06
-2.38925e-06
0.000167388
0.000164081
-4.77343e-07
0.000164298
-1.37963e-06
0.000164628
-2.15621e-06
0.00016504
-2.79107e-06
0.000165508
-3.29203e-06
0.000166012
-3.67064e-06
0.00016653
-3.94061e-06
0.000167049
-4.1183e-06
0.000167557
-4.21996e-06
0.000168046
-4.26038e-06
0.000168511
-4.25268e-06
0.000168947
-4.20824e-06
0.000169354
-4.13664e-06
0.000169729
-4.0458e-06
0.000170074
-3.94214e-06
0.000170389
-3.83079e-06
0.000170675
-3.71577e-06
0.000170935
-3.60015e-06
0.000171169
-3.48624e-06
0.000171379
-3.3757e-06
0.000171567
-3.26971e-06
0.000171735
-3.16901e-06
0.000171884
-3.07404e-06
0.000172016
-2.98502e-06
0.000172132
-2.90196e-06
0.000172235
-2.82476e-06
0.000172324
-2.75322e-06
0.000172402
-2.68707e-06
0.000172469
-2.62602e-06
0.000172527
-2.56974e-06
0.000172577
-2.51789e-06
0.00017262
-2.47018e-06
-2.42604e-06
0.000172656
0.000168794
-5.79783e-07
0.000169077
-1.66244e-06
0.000169494
-2.57287e-06
0.000169999
-3.29608e-06
0.000170558
-3.85101e-06
0.000171144
-4.25667e-06
0.000171736
-4.53312e-06
0.00017232
-4.70243e-06
0.000172886
-4.78513e-06
0.000173424
-4.79917e-06
0.000173932
-4.76023e-06
0.000174405
-4.68167e-06
0.000174843
-4.57461e-06
0.000175246
-4.4481e-06
0.000175613
-4.3094e-06
0.000175946
-4.16423e-06
0.000176247
-4.01701e-06
0.000176518
-3.87107e-06
0.000176761
-3.72884e-06
0.000176977
-3.59203e-06
0.000177169
-3.46181e-06
0.000177339
-3.33887e-06
0.000177489
-3.22356e-06
0.00017762
-3.116e-06
0.000177734
-3.01609e-06
0.000177833
-2.92364e-06
0.000177918
-2.83833e-06
0.000177991
-2.75981e-06
0.000178052
-2.68769e-06
0.000178104
-2.62155e-06
0.000178147
-2.56093e-06
0.000178182
-2.50544e-06
-2.45435e-06
0.000178211
0.000173622
-6.90632e-07
0.000173951
-1.99127e-06
0.000174439
-3.06084e-06
0.000175036
-3.89311e-06
0.000175702
-4.51665e-06
0.0001764
-4.95477e-06
0.000177102
-5.23513e-06
0.000177788
-5.38839e-06
0.000178444
-5.4415e-06
0.000179062
-5.4172e-06
0.000179637
-5.33487e-06
0.000180166
-5.21061e-06
0.000180649
-5.05747e-06
0.000181086
-4.88583e-06
0.000181481
-4.70385e-06
0.000181834
-4.51781e-06
0.00018215
-4.33241e-06
0.00018243
-4.15114e-06
0.000182677
-3.97643e-06
0.000182895
-3.80994e-06
0.000183086
-3.65269e-06
0.000183253
-3.50523e-06
0.000183397
-3.36774e-06
0.000183521
-3.24015e-06
0.000183627
-3.12221e-06
0.000183717
-3.01354e-06
0.000183792
-2.91371e-06
0.000183855
-2.82225e-06
0.000183906
-2.73867e-06
0.000183947
-2.6625e-06
0.000183979
-2.59325e-06
0.000184004
-2.5305e-06
-2.4734e-06
0.000184023
0.000178681
-9.03501e-07
0.000179187
-2.49709e-06
0.000179856
-3.72975e-06
0.000180609
-4.64577e-06
0.000181404
-5.31151e-06
0.000182208
-5.75955e-06
0.000182999
-6.02603e-06
0.00018376
-6.14912e-06
0.000184479
-6.16055e-06
0.000185149
-6.0871e-06
0.000185766
-5.95165e-06
0.000186328
-5.77297e-06
0.000186837
-5.56605e-06
0.000187294
-5.34264e-06
0.000187701
-5.1118e-06
0.000188064
-4.88033e-06
0.000188385
-4.65318e-06
0.000188667
-4.43387e-06
0.000188916
-4.22474e-06
0.000189133
-4.02727e-06
0.000189323
-3.84225e-06
0.000189487
-3.66995e-06
0.00018963
-3.51031e-06
0.000189753
-3.36298e-06
0.000189858
-3.22746e-06
0.000189948
-3.10317e-06
0.000190023
-2.98947e-06
0.000190087
-2.88573e-06
0.00019014
-2.79136e-06
0.000190183
-2.70581e-06
0.000190218
-2.62858e-06
0.000190247
-2.55919e-06
-2.49673e-06
0.00019027
0.000183745
-1.08102e-06
0.000184334
-3.0861e-06
0.000185163
-4.5584e-06
0.000186128
-5.61083e-06
0.000187147
-6.33107e-06
0.000188158
-6.77044e-06
0.000189127
-6.99471e-06
0.000190039
-7.06099e-06
0.000190888
-7.00992e-06
0.000191674
-6.87347e-06
0.0001924
-6.67739e-06
0.000193069
-6.44163e-06
0.000193684
-6.18149e-06
0.00019425
-5.90869e-06
0.000194771
-5.63208e-06
0.000195248
-5.35819e-06
0.000195687
-5.09178e-06
0.000196089
-4.83619e-06
0.000196458
-4.5936e-06
0.000196796
-4.36535e-06
0.000197106
-4.15208e-06
0.00019739
-3.95391e-06
0.00019765
-3.77061e-06
0.000197889
-3.60168e-06
0.000198108
-3.44645e-06
0.000198309
-3.30418e-06
0.000198494
-3.17408e-06
0.000198663
-3.05543e-06
0.00019882
-2.94764e-06
0.000198964
-2.85015e-06
0.000199098
-2.76287e-06
0.000199224
-2.68537e-06
-2.61797e-06
0.000199346
0.000189417
-1.68573e-06
0.000190402
-4.07127e-06
0.000191479
-5.63567e-06
0.000192632
-6.76399e-06