/*--------------------------------*- C++ -*----------------------------------*\
| =========                 |                                                 |
| \\      /  F ield         | OpenFOAM: The Open Source CFD Toolbox           |
|  \\    /   O peration     | Version:  2.1.1                                 |
|   \\  /    A nd           | Web:      www.OpenFOAM.org                      |
|    \\/     M anipulation  |                                                 |
\*---------------------------------------------------------------------------*/
FoamFile
{
    version     2.0;
    format      ascii;
    class       volVectorField;
    location    "0.12";
    object      U;
}
// * * * * * * * * * * * * * * * * * * * * * * * * * * * * * * * * * * * * * //

dimensions      [0 1 -1 0 0 0 0];

internalField   nonuniform List<vector> 
6820
(
(6.37609 0.503709 0)
(4.42475 0.286814 0)
(2.97459 0.020139 0)
(2.23608 -0.0620045 0)
(1.97128 -0.0601066 0)
(1.84538 -0.0346993 0)
(1.77151 -0.0152876 0)
(1.72054 -0.00491111 0)
(1.67845 -0.000213638 0)
(1.64221 0.0012838 0)
(1.61127 0.00124842 0)
(1.58518 0.000615986 0)
(1.56346 -0.000181437 0)
(1.54562 -0.000955567 0)
(1.53119 -0.00163308 0)
(1.51975 -0.00219742 0)
(1.511 -0.00265781 0)
(1.50468 -0.00303063 0)
(1.50061 -0.00333517 0)
(1.49871 -0.00356151 0)
(1.4989 -0.00384408 0)
(1.50111 -0.00413961 0)
(1.50537 -0.00443986 0)
(1.5117 -0.00466034 0)
(1.52015 -0.00489694 0)
(1.53084 -0.00517511 0)
(1.5438 -0.00551115 0)
(1.55936 -0.0058435 0)
(1.57699 -0.00627326 0)
(1.59858 -0.00618166 0)
(1.61798 -0.00703298 0)
(1.65196 0.000375774 0)
(1.63734 -0.0252207 0)
(8.72022 0.959504 0)
(8.76513 1.01164 0)
(7.97005 0.678613 0)
(7.05772 0.393421 0)
(6.35804 0.201892 0)
(5.85318 0.102697 0)
(5.49292 0.057112 0)
(5.23343 0.0364942 0)
(5.03977 0.0271591 0)
(4.88976 0.0224674 0)
(4.77005 0.0195648 0)
(4.6723 0.0173939 0)
(4.59117 0.0155555 0)
(4.52312 0.0138794 0)
(4.46572 0.0122787 0)
(4.4172 0.0107034 0)
(4.3763 0.00912293 0)
(4.34205 0.00751685 0)
(4.31374 0.00586359 0)
(4.29083 0.00415858 0)
(4.2729 0.00235279 0)
(4.25968 0.000435825 0)
(4.25102 -0.00156063 0)
(4.2468 -0.0038092 0)
(4.24695 -0.00620433 0)
(4.25144 -0.00875085 0)
(4.26034 -0.0115291 0)
(4.27379 -0.0144762 0)
(4.29181 -0.0178062 0)
(4.31494 -0.0207663 0)
(4.34237 -0.0250526 0)
(4.37836 -0.0248509 0)
(4.41833 -0.0303583 0)
(8.58611 0.583305 0)
(9.33136 0.76182 0)
(9.61492 0.659311 0)
(9.50573 0.525468 0)
(9.24074 0.395753 0)
(8.92981 0.297748 0)
(8.62572 0.228779 0)
(8.35162 0.179219 0)
(8.11173 0.143076 0)
(7.90381 0.116161 0)
(7.72417 0.0955548 0)
(7.56897 0.0793865 0)
(7.43477 0.066431 0)
(7.31858 0.05585 0)
(7.21793 0.0470378 0)
(7.13074 0.039538 0)
(7.0553 0.0330031 0)
(6.99021 0.0271663 0)
(6.93433 0.0218189 0)
(6.88671 0.0167903 0)
(6.8466 0.0119671 0)
(6.81343 0.00722711 0)
(6.78668 0.00247788 0)
(6.76598 -0.00243318 0)
(6.75106 -0.0075806 0)
(6.74194 -0.012985 0)
(6.73856 -0.0187798 0)
(6.74092 -0.0249458 0)
(6.74894 -0.0315777 0)
(6.76283 -0.0383573 0)
(6.78243 -0.0460283 0)
(6.80828 -0.0523948 0)
(6.84042 -0.06244 0)
(8.44094 0.37952 0)
(8.94596 0.583505 0)
(9.35851 0.553646 0)
(9.58647 0.485769 0)
(9.70107 0.405488 0)
(9.73786 0.336026 0)
(9.72341 0.283238 0)
(9.68004 0.242782 0)
(9.62061 0.210997 0)
(9.55238 0.18528 0)
(9.48008 0.163764 0)
(9.40681 0.145301 0)
(9.3346 0.129163 0)
(9.26495 0.114835 0)
(9.19885 0.101963 0)
(9.13688 0.0902802 0)
(9.07939 0.0795632 0)
(9.02659 0.0696164 0)
(8.97853 0.0602653 0)
(8.93525 0.0513562 0)
(8.89672 0.0427481 0)
(8.86288 0.0343024 0)
(8.8337 0.0258761 0)
(8.80911 0.0174034 0)
(8.78914 0.00872125 0)
(8.77358 -0.000330779 0)
(8.76241 -0.009855 0)
(8.75574 -0.0199153 0)
(8.75361 -0.0306196 0)
(8.75622 -0.041831 0)
(8.7637 -0.0538818 0)
(8.77642 -0.0657923 0)
(8.79584 -0.0784536 0)
(8.40215 0.279864 0)
(8.71907 0.480083 0)
(8.99911 0.460917 0)
(9.17477 0.403029 0)
(9.29949 0.340628 0)
(9.39322 0.287822 0)
(9.46275 0.248442 0)
(9.51625 0.218481 0)
(9.55856 0.194611 0)
(9.59205 0.174918 0)
(9.61847 0.158124 0)
(9.6392 0.14342 0)
(9.65537 0.130299 0)
(9.66763 0.118402 0)
(9.67668 0.107449 0)
(9.68318 0.0972149 0)
(9.68773 0.0875205 0)
(9.69084 0.0782126 0)
(9.69298 0.0691575 0)
(9.69452 0.0602345 0)
(9.69581 0.0513339 0)
(9.69714 0.0423469 0)
(9.69877 0.033171 0)
(9.70093 0.0237098 0)
(9.70381 0.0138441 0)
(9.70758 0.00350845 0)
(9.7121 -0.00733614 0)
(9.71745 -0.018837 0)
(9.72375 -0.031139 0)
(9.73122 -0.0442484 0)
(9.74004 -0.0583656 0)
(9.75075 -0.0731948 0)
(9.76403 -0.0893337 0)
(8.37748 0.201949 0)
(8.60147 0.382883 0)
(8.81613 0.389528 0)
(8.94746 0.354735 0)
(9.03369 0.309988 0)
(9.0969 0.266099 0)
(9.14433 0.229842 0)
(9.18326 0.200886 0)
(9.21791 0.177426 0)
(9.24967 0.158113 0)
(9.27915 0.141836 0)
(9.30671 0.127752 0)
(9.33255 0.115296 0)
(9.35691 0.104088 0)
(9.37994 0.0938157 0)
(9.40173 0.0842325 0)
(9.42236 0.0751434 0)
(9.44189 0.0663885 0)
(9.4604 0.0578305 0)
(9.47797 0.0493469 0)
(9.49467 0.0408262 0)
(9.51055 0.0321605 0)
(9.52567 0.0232454 0)
(9.54008 0.0139845 0)
(9.55386 0.00430274 0)
(9.567 -0.00589022 0)
(9.57978 -0.0166753 0)
(9.5923 -0.0281688 0)
(9.60461 -0.0405133 0)
(9.61686 -0.0537938 0)
(9.62915 -0.0682172 0)
(9.64194 -0.0838468 0)
(9.65547 -0.101257 0)
(8.36129 0.148552 0)
(8.52283 0.310597 0)
(8.69779 0.335733 0)
(8.8129 0.315719 0)
(8.88798 0.282037 0)
(8.94164 0.24541 0)
(8.98009 0.213325 0)
(9.00949 0.186978 0)
(9.03427 0.165194 0)
(9.05634 0.146918 0)
(9.07665 0.131293 0)
(9.09581 0.117644 0)
(9.11413 0.105485 0)
(9.13179 0.0944637 0)
(9.1489 0.0843144 0)
(9.16554 0.0748287 0)
(9.18176 0.0658335 0)
(9.19758 0.0571793 0)
(9.21303 0.0487336 0)
(9.22811 0.040376 0)
(9.24284 0.031996 0)
(9.25722 0.0234871 0)
(9.27125 0.0147507 0)
(9.28495 0.0056829 0)
(9.2983 -0.00378932 0)
(9.3114 -0.0138315 0)
(9.32427 -0.0245719 0)
(9.33693 -0.0360897 0)
(9.3494 -0.0485097 0)
(9.36177 -0.061964 0)
(9.37412 -0.076691 0)
(9.38672 -0.0929412 0)
(9.39964 -0.111341 0)
(8.35117 0.111087 0)
(8.46751 0.250692 0)
(8.6085 0.284991 0)
(8.71056 0.276262 0)
(8.78083 0.253407 0)
(8.83304 0.225457 0)
(8.87155 0.198837 0)
(8.90087 0.175647 0)
(8.92498 0.155611 0)
(8.94587 0.13824 0)
(8.96462 0.123066 0)
(8.98192 0.109632 0)
(8.99821 0.0975637 0)
(9.01376 0.0865701 0)
(9.02873 0.0764183 0)
(9.04324 0.0669098 0)
(9.05739 0.0578741 0)
(9.07123 0.0491637 0)
(9.0848 0.0406479 0)
(9.09815 0.0322087 0)
(9.11128 0.0237365 0)
(9.12424 0.0151277 0)
(9.13701 0.00627847 0)
(9.14962 -0.00291011 0)
(9.16206 -0.0125655 0)
(9.17432 -0.0227678 0)
(9.18642 -0.0336344 0)
(9.19833 -0.0452702 0)
(9.21007 -0.0578135 0)
(9.22168 -0.0714322 0)
(9.23318 -0.0863789 0)
(9.24465 -0.102981 0)
(9.25603 -0.121762 0)
(8.34488 0.0843795 0)
(8.42948 0.202711 0)
(8.54248 0.242037 0)
(8.63153 0.242142 0)
(8.69594 0.2274 0)
(8.74557 0.205837 0)
(8.78365 0.183301 0)
(8.81341 0.162625 0)
(8.8381 0.144235 0)
(8.85956 0.127971 0)
(8.87875 0.113565 0)
(8.89636 0.10068 0)
(8.91283 0.0890093 0)
(8.92843 0.0783021 0)
(8.94337 0.0683488 0)
(8.95776 0.058971 0)
(8.97172 0.0500152 0)
(8.98531 0.0413473 0)
(8.99858 0.0328471 0)
(9.01158 0.0244038 0)
(9.02432 0.0159137 0)
(9.03684 0.00727761 0)
(9.04914 -0.00160275 0)
(9.06123 -0.0108232 0)
(9.0731 -0.0204808 0)
(9.08475 -0.0306737 0)
(9.09616 -0.0415242 0)
(9.10732 -0.0531505 0)
(9.11821 -0.065693 0)
(9.12882 -0.0793241 0)
(9.13911 -0.0942813 0)
(9.14902 -0.110882 0)
(9.1584 -0.129515 0)
(8.34094 0.0651027 0)
(8.40317 0.164279 0)
(8.49355 0.20477 0)
(8.57054 0.210679 0)
(8.62905 0.201894 0)
(8.67568 0.185728 0)
(8.71274 0.167235 0)
(8.74241 0.149339 0)
(8.76726 0.132837 0)
(8.78892 0.117823 0)
(8.80831 0.104223 0)
(8.82607 0.0918584 0)
(8.84264 0.0805221 0)
(8.85831 0.0700265 0)
(8.87326 0.0602043 0)
(8.88763 0.0509048 0)
(8.90153 0.0419917 0)
(8.91502 0.0333415 0)
(8.92814 0.0248406 0)
(8.94094 0.0163834 0)
(8.95345 0.00787021 0)
(8.96567 -0.000794572 0)
(8.97762 -0.00970442 0)
(8.9893 -0.01895 0)
(9.00069 -0.0286289 0)
(9.0118 -0.0388397 0)
(9.02259 -0.0496896 0)
(9.03304 -0.0612899 0)
(9.0431 -0.0737704 0)
(9.05271 -0.0872891 0)
(9.0618 -0.102047 0)
(9.07019 -0.118309 0)
(9.0777 -0.136325 0)
(8.33846 0.0509146 0)
(8.38481 0.133368 0)
(8.45717 0.172629 0)
(8.52339 0.182429 0)
(8.57628 0.178259 0)
(8.61978 0.166519 0)
(8.65545 0.151465 0)
(8.6847 0.135936 0)
(8.70948 0.121041 0)
(8.73122 0.10712 0)
(8.75074 0.0942679 0)
(8.76863 0.0824286 0)
(8.78529 0.0714726 0)
(8.80102 0.0612572 0)
(8.81599 0.0516439 0)
(8.83034 0.0425007 0)
(8.84417 0.0337044 0)
(8.85755 0.0251416 0)
(8.87052 0.0167067 0)
(8.88313 0.00830124 0)
(8.8954 -0.000168464 0)
(8.90733 -0.00879219 0)
(8.91894 -0.0176576 0)
(8.93023 -0.026851 0)
(8.94117 -0.0364615 0)
(8.95175 -0.0465782 0)
(8.96194 -0.0572972 0)
(8.97168 -0.0687214 0)
(8.98092 -0.080966 0)
(8.98956 -0.0941645 0)
(8.99749 -0.108472 0)
(9.0045 -0.124083 0)
(9.01036 -0.141127 0)
(8.33687 0.0402611 0)
(8.37189 0.108441 0)
(8.42997 0.144976 0)
(8.48668 0.156967 0)
(8.53423 0.156023 0)
(8.57457 0.147658 0)
(8.60866 0.13548 0)
(8.63731 0.122118 0)
(8.66194 0.108817 0)
(8.68371 0.096061 0)
(8.70334 0.0840478 0)
(8.72135 0.0728103 0)
(8.73812 0.0622875 0)
(8.75391 0.0523843 0)
(8.76891 0.0429964 0)
(8.78326 0.0340169 0)
(8.79704 0.0253412 0)
(8.81032 0.0168691 0)
(8.82316 0.00850548 0)
(8.83559 0.000159586 0)
(8.84763 -0.00825539 0)
(8.85929 -0.0168228 0)
(8.87057 -0.0256239 0)
(8.88146 -0.0347384 0)
(8.89195 -0.0442466 0)
(8.90201 -0.0542293 0)
(8.91159 -0.0647706 0)
(8.92064 -0.0759578 0)
(8.92908 -0.0878834 0)
(8.93681 -0.100648 0)
(8.94368 -0.114356 0)
(8.94948 -0.12913 0)
(8.954 -0.145003 0)
(8.33584 0.0320919 0)
(8.3627 0.0882077 0)
(8.40953 0.121164 0)
(8.45799 0.134058 0)
(8.50057 0.13531 0)
(8.53783 0.129541 0)
(8.5702 0.119766 0)
(8.59805 0.108306 0)
(8.62236 0.0964364 0)
(8.64406 0.0847371 0)
(8.66373 0.0734938 0)
(8.68182 0.0628185 0)
(8.69868 0.0527129 0)
(8.71455 0.0431256 0)
(8.7296 0.0339822 0)
(8.74395 0.0251969 0)
(8.75771 0.0166801 0)
(8.77092 0.00834289 0)
(8.78365 9.85912e-05 0)
(8.79591 -0.00813602 0)
(8.80774 -0.0164408 0)
(8.81913 -0.0248923 0)
(8.83009 -0.0335648 0)
(8.84061 -0.0425303 0)
(8.85067 -0.0518597 0)
(8.86022 -0.0616225 0)
(8.86923 -0.0718879 0)
(8.87763 -0.0827249 0)
(8.88534 -0.0942016 0)
(8.89224 -0.106386 0)
(8.8982 -0.119335 0)
(8.903 -0.13311 0)
(8.90646 -0.147675 0)
(8.33514 0.0256942 0)
(8.35607 0.0716543 0)
(8.39408 0.100643 0)
(8.43549 0.113468 0)
(8.47351 0.116044 0)
(8.50779 0.112133 0)
(8.53836 0.104238 0)
(8.56528 0.0943702 0)
(8.58916 0.0837643 0)
(8.61069 0.0730522 0)
(8.63034 0.0625709 0)
(8.64848 0.0524823 0)
(8.66541 0.0428322 0)
(8.68134 0.0336027 0)
(8.69643 0.0247446 0)
(8.7108 0.0161914 0)
(8.72452 0.00786859 0)
(8.73766 -0.000300854 0)
(8.75027 -0.00839359 0)
(8.76238 -0.0164842 0)
(8.77399 -0.0246448 0)
(8.78513 -0.0329443 0)
(8.79578 -0.041449 0)
(8.80594 -0.0502221 0)
(8.81557 -0.0593241 0)
(8.82465 -0.0688123 0)
(8.83312 -0.0787411 0)
(8.84092 -0.0891606 0)
(8.84796 -0.100115 0)
(8.85414 -0.11164 0)
(8.85933 -0.123756 0)
(8.86333 -0.13647 0)
(8.86602 -0.149702 0)
(8.33466 0.0205798 0)
(8.35124 0.0579786 0)
(8.38234 0.082898 0)
(8.41779 0.094943 0)
(8.4517 0.0981459 0)
(8.48318 0.0954895 0)
(8.51195 0.0890343 0)
(8.53784 0.0804858 0)
(8.56119 0.0709827 0)
(8.58246 0.0611633 0)
(8.60202 0.0513901 0)
(8.62016 0.0418591 0)
(8.63712 0.032651 0)
(8.65309 0.0237776 0)
(8.66821 0.0152124 0)
(8.68257 0.00690694 0)
(8.69626 -0.00119918 0)
(8.70934 -0.00917195 0)
(8.72184 -0.0170788 0)
(8.73379 -0.0249862 0)
(8.7452 -0.032959 0)
(8.75609 -0.0410586 0)
(8.76645 -0.0493432 0)
(8.77626 -0.0578672 0)
(8.7855 -0.0666807 0)
(8.79413 -0.0758288 0)
(8.80212 -0.0853511 0)
(8.80938 -0.0952797 0)
(8.81585 -0.105637 0)
(8.82143 -0.116433 0)
(8.82601 -0.127655 0)
(8.82942 -0.139276 0)
(8.83157 -0.151187 0)
(8.33432 0.0164095 0)
(8.34766 0.0465526 0)
(8.37336 0.0674801 0)
(8.40383 0.0782469 0)
(8.43409 0.0815205 0)
(8.46298 0.0796054 0)
(8.49 0.0741777 0)
(8.51482 0.0666605 0)
(8.53756 0.0580726 0)
(8.55851 0.049031 0)
(8.57792 0.0399053 0)
(8.59601 0.0309088 0)
(8.61298 0.022145 0)
(8.62897 0.0136462 0)
(8.64409 0.00540284 0)
(8.65845 -0.00261959 0)
(8.67211 -0.0104701 0)
(8.68511 -0.0182048 0)
(8.6975 -0.0258829 0)
(8.70929 -0.0335632 0)
(8.72051 -0.0413029 0)
(8.73116 -0.0491559 0)
(8.74124 -0.0571722 0)
(8.75073 -0.0653972 0)
(8.7596 -0.0738709 0)
(8.76783 -0.0826267 0)
(8.77537 -0.0916905 0)
(8.78217 -0.101079 0)
(8.78816 -0.110795 0)
(8.79325 -0.120829 0)
(8.79735 -0.131146 0)
(8.80035 -0.141695 0)
(8.80219 -0.152356 0)
(8.33408 0.0129439 0)
(8.345 0.0368855 0)
(8.36647 0.0539933 0)
(8.39281 0.0631451 0)
(8.41988 0.0660515 0)
(8.44641 0.0644521 0)
(8.47177 0.0596934 0)
(8.49552 0.0529476 0)
(8.51762 0.0451018 0)
(8.5382 0.0367288 0)
(8.55742 0.0281863 0)
(8.57543 0.0196912 0)
(8.59236 0.0113584 0)
(8.60835 0.00323397 0)
(8.62347 -0.00467868 0)
(8.63781 -0.0124026 0)
(8.65142 -0.0199767 0)
(8.66435 -0.0274485 0)
(8.67663 -0.0348691 0)
(8.68828 -0.0422903 0)
(8.69931 -0.049762 0)
(8.70974 -0.0573309 0)
(8.71956 -0.0650393 0)
(8.72874 -0.0729242 0)
(8.73729 -0.0810162 0)
(8.74516 -0.0893384 0)
(8.75232 -0.0979046 0)
(8.75872 -0.106718 0)
(8.76432 -0.115769 0)
(8.76903 -0.125032 0)
(8.7728 -0.134457 0)
(8.77554 -0.143982 0)
(8.77722 -0.153484 0)
(8.33389 0.0100102 0)
(8.34299 0.0285931 0)
(8.36117 0.0420944 0)
(8.3841 0.0494148 0)
(8.40842 0.0516149 0)
(8.43285 0.04998 0)
(8.45668 0.0455772 0)
(8.4794 0.0393593 0)
(8.50084 0.0320817 0)
(8.52103 0.024259 0)
(8.54002 0.0162256 0)
(8.55792 0.00819136 0)
(8.57481 0.000274285 0)
(8.59077 -0.00747214 0)
(8.60588 -0.0150365 0)
(8.6202 -0.0224339 0)
(8.63376 -0.0296962 0)
(8.64661 -0.0368642 0)
(8.65879 -0.0439828 0)
(8.6703 -0.0510975 0)
(8.68116 -0.058252 0)
(8.69137 -0.0654866 0)
(8.70095 -0.0728368 0)
(8.70986 -0.0803321 0)
(8.71811 -0.0879948 0)
(8.72566 -0.0958392 0)
(8.7325 -0.10387 0)
(8.73857 -0.11208 0)
(8.74385 -0.120449 0)
(8.74828 -0.128943 0)
(8.75183 -0.137505 0)
(8.75443 -0.146067 0)
(8.75608 -0.154513 0)
(8.33376 0.00748079 0)
(8.34146 0.0213725 0)
(8.35707 0.0314872 0)
(8.37725 0.0368445 0)
(8.39923 0.0380779 0)
(8.42182 0.0361198 0)
(8.44426 0.0318036 0)
(8.46602 0.0258947 0)
(8.48683 0.019023 0)
(8.50662 0.0116378 0)
(8.52539 0.00404002 0)
(8.54317 -0.00357646 0)
(8.56 -0.0110988 0)
(8.57593 -0.0184729 0)
(8.59102 -0.0256839 0)
(8.6053 -0.0327426 0)
(8.61882 -0.0396758 0)
(8.63161 -0.0465192 0)
(8.64368 -0.0533125 0)
(8.65506 -0.0600959 0)
(8.66576 -0.0669076 0)
(8.67578 -0.073782 0)
(8.68514 -0.0807485 0)
(8.69381 -0.0878302 0)
(8.7018 -0.0950424 0)
(8.70909 -0.102392 0)
(8.71565 -0.109877 0)
(8.72146 -0.117483 0)
(8.7265 -0.125185 0)
(8.73074 -0.132941 0)
(8.73415 -0.140695 0)
(8.7367 -0.148379 0)
(8.73842 -0.155888 0)
(8.33365 0.00525931 0)
(8.3403 0.0149829 0)
(8.35391 0.0219154 0)
(8.37187 0.0252343 0)
(8.39191 0.0253029 0)
(8.41291 0.022787 0)
(8.43415 0.0183287 0)
(8.45504 0.0125351 0)
(8.47527 0.00592092 0)
(8.49469 -0.00113312 0)
(8.51324 -0.00836499 0)
(8.53089 -0.0156033 0)
(8.54766 -0.0227463 0)
(8.56356 -0.0297444 0)
(8.57863 -0.0365836 0)
(8.59288 -0.0432737 0)
(8.60636 -0.0498392 0)
(8.61907 -0.056313 0)
(8.63105 -0.0627314 0)
(8.64231 -0.0691309 0)
(8.65286 -0.0755457 0)
(8.66271 -0.0820059 0)
(8.67187 -0.0885361 0)
(8.68033 -0.0951544 0)
(8.68809 -0.101871 0)
(8.69514 -0.108689 0)
(8.70148 -0.115599 0)
(8.70708 -0.122584 0)
(8.71195 -0.129616 0)
(8.71605 -0.136652 0)
(8.7194 -0.143639 0)
(8.72197 -0.150514 0)
(8.72381 -0.157185 0)
(8.33358 0.00327073 0)
(8.33942 0.00922938 0)
(8.3515 0.0131568 0)
(8.3677 0.0143959 0)
(8.38615 0.0131473 0)
(8.40584 0.00988138 0)
(8.42605 0.00508616 0)
(8.44619 -0.000764806 0)
(8.46592 -0.00726007 0)
(8.48502 -0.0140873 0)
(8.50338 -0.0210277 0)
(8.52093 -0.0279374 0)
(8.53765 -0.0347316 0)
(8.55354 -0.04137 0)
(8.56859 -0.0478434 0)
(8.58283 -0.0541636 0)
(8.59627 -0.0603555 0)
(8.60893 -0.0664507 0)
(8.62084 -0.0724835 0)
(8.63199 -0.0784879 0)
(8.64241 -0.084495 0)
(8.65211 -0.0905312 0)
(8.6611 -0.0966177 0)
(8.66937 -0.102769 0)
(8.67694 -0.10899 0)
(8.6838 -0.115282 0)
(8.68996 -0.121633 0)
(8.69541 -0.128023 0)
(8.70014 -0.134424 0)
(8.70417 -0.140796 0)
(8.7075 -0.147089 0)
(8.71013 -0.153247 0)
(8.71212 -0.159194 0)
(8.33352 0.00145434 0)
(8.33877 0.00395023 0)
(8.34968 0.00501456 0)
(8.36453 0.00414943 0)
(8.38172 0.00146524 0)
(8.40035 -0.00270682 0)
(8.41973 -0.00800026 0)
(8.43928 -0.0140519 0)
(8.45859 -0.0205416 0)
(8.47744 -0.0272222 0)
(8.49565 -0.0339199 0)
(8.51313 -0.0405222 0)
(8.52983 -0.0469651 0)
(8.54571 -0.0532221 0)
(8.56076 -0.0592929 0)
(8.57499 -0.065195 0)
(8.58841 -0.0709562 0)
(8.60103 -0.0766098 0)
(8.61286 -0.0821905 0)
(8.62392 -0.0877316 0)
(8.63422 -0.0932629 0)
(8.64379 -0.0988092 0)
(8.65262 -0.104389 0)
(8.66073 -0.110016 0)
(8.66814 -0.115693 0)
(8.67484 -0.121417 0)
(8.68085 -0.127178 0)
(8.68617 -0.132956 0)
(8.69081 -0.138723 0)
(8.6948 -0.144444 0)
(8.69814 -0.150076 0)
(8.70086 -0.155571 0)
(8.70301 -0.160866 0)
(8.33347 -0.000239586 0)
(8.33829 -0.000991603 0)
(8.34835 -0.00268817 0)
(8.3622 -0.00567945 0)
(8.37845 -0.00989846 0)
(8.39629 -0.0151109 0)
(8.41505 -0.0210461 0)
(8.43416 -0.0274337 0)
(8.45319 -0.0340347 0)
(8.47188 -0.0406651 0)
(8.49002 -0.0471973 0)
(8.50749 -0.0535525 0)
(8.52421 -0.0596908 0)
(8.54013 -0.0656023 0)
(8.55522 -0.0712983 0)
(8.56947 -0.0768039 0)
(8.58289 -0.082152 0)
(8.59549 -0.0873786 0)
(8.60728 -0.09252 0)
(8.61827 -0.0976098 0)
(8.62848 -0.102678 0)
(8.63793 -0.107747 0)
(8.64664 -0.112837 0)
(8.65462 -0.117957 0)
(8.66188 -0.123112 0)
(8.66845 -0.128298 0)
(8.67434 -0.133505 0)
(8.67957 -0.138714 0)
(8.68415 -0.143902 0)
(8.68811 -0.149037 0)
(8.69148 -0.154083 0)
(8.69428 -0.159002 0)
(8.69658 -0.16374 0)
(8.33344 -0.00185494 0)
(8.33796 -0.00571804 0)
(8.34745 -0.0101155 0)
(8.3606 -0.0152603 0)
(8.37621 -0.0210971 0)
(8.39352 -0.0274554 0)
(8.41188 -0.0341374 0)
(8.43071 -0.0409488 0)
(8.44959 -0.047722 0)
(8.46822 -0.0543318 0)
(8.48637 -0.0606978 0)
(8.50389 -0.0667776 0)
(8.52067 -0.0725598 0)
(8.53666 -0.0780562 0)
(8.55181 -0.0832939 0)
(8.5661 -0.0883099 0)
(8.57954 -0.0931456 0)
(8.59213 -0.0978433 0)
(8.60388 -0.102443 0)
(8.61482 -0.106982 0)
(8.62495 -0.11149 0)
(8.6343 -0.115992 0)
(8.6429 -0.120507 0)
(8.65076 -0.125046 0)
(8.65791 -0.129613 0)
(8.66436 -0.134206 0)
(8.67015 -0.138816 0)
(8.6753 -0.143427 0)
(8.67983 -0.148018 0)
(8.68378 -0.152565 0)
(8.68718 -0.157036 0)
(8.69006 -0.161403 0)
(8.69249 -0.165623 0)
(8.33343 -0.00343274 0)
(8.33777 -0.0103439 0)
(8.34691 -0.0174294 0)
(8.35968 -0.0247758 0)
(8.37493 -0.0323218 0)
(8.39198 -0.0399409 0)
(8.41019 -0.0474951 0)
(8.42897 -0.0548567 0)
(8.44788 -0.0619231 0)
(8.4666 -0.0686257 0)
(8.48489 -0.0749296 0)
(8.50256 -0.0808294 0)
(8.5195 -0.0863421 0)
(8.53563 -0.0915014 0)
(8.55091 -0.0963513 0)
(8.5653 -0.100941 0)
(8.5788 -0.105322 0)
(8.59142 -0.109543 0)
(8.60317 -0.113649 0)
(8.61407 -0.11768 0)
(8.62415 -0.12167 0)
(8.63343 -0.125646 0)
(8.64193 -0.129628 0)
(8.64969 -0.133627 0)
(8.65673 -0.13765 0)
(8.66309 -0.141696 0)
(8.66879 -0.145759 0)
(8.67386 -0.149826 0)
(8.67835 -0.153881 0)
(8.68228 -0.157903 0)
(8.68569 -0.161869 0)
(8.68862 -0.165756 0)
(8.69114 -0.169528 0)
(8.33342 -0.00501194 0)
(8.3377 -0.0149796 0)
(8.34673 -0.024786 0)
(8.35938 -0.0343929 0)
(8.37457 -0.0437167 0)
(8.39162 -0.0526549 0)
(8.4099 -0.0611139 0)
(8.42882 -0.0690231 0)
(8.44792 -0.0763414 0)
(8.46686 -0.0830578 0)
(8.48538 -0.0891884 0)
(8.50328 -0.0947711 0)
(8.52044 -0.0998588 0)
(8.53676 -0.104514 0)
(8.55219 -0.108803 0)
(8.56671 -0.112793 0)
(8.5803 -0.116548 0)
(8.59297 -0.120126 0)
(8.60474 -0.123582 0)
(8.61563 -0.126958 0)
(8.62567 -0.130294 0)
(8.63489 -0.133618 0)
(8.64331 -0.136952 0)
(8.65098 -0.140311 0)
(8.65793 -0.143702 0)
(8.6642 -0.147127 0)
(8.66982 -0.150581 0)
(8.67483 -0.154056 0)
(8.67926 -0.157538 0)
(8.68316 -0.161012 0)
(8.68658 -0.16446 0)
(8.68955 -0.167866 0)
(8.69214 -0.1712 0)
(8.33343 -0.00663389 0)
(8.33776 -0.0197466 0)
(8.34691 -0.0323748 0)
(8.35974 -0.0443629 0)
(8.37519 -0.0556066 0)
(8.39258 -0.0660267 0)
(8.41125 -0.0755716 0)
(8.43061 -0.0842234 0)
(8.45016 -0.0919958 0)
(8.46956 -0.0989286 0)
(8.48851 -0.105083 0)
(8.50681 -0.110534 0)
(8.52432 -0.115368 0)
(8.54094 -0.119675 0)
(8.55662 -0.123542 0)
(8.57132 -0.127054 0)
(8.58505 -0.130291 0)
(8.59782 -0.133323 0)
(8.60963 -0.136211 0)
(8.62053 -0.139007 0)
(8.63054 -0.141755 0)
(8.6397 -0.144488 0)
(8.64806 -0.147232 0)
(8.65564 -0.150006 0)
(8.6625 -0.152818 0)
(8.66867 -0.155674 0)
(8.67419 -0.158573 0)
(8.67912 -0.161508 0)
(8.68348 -0.164472 0)
(8.68733 -0.167452 0)
(8.69071 -0.170433 0)
(8.69366 -0.173406 0)
(8.69624 -0.176344 0)
(8.33344 -0.00834337 0)
(8.33794 -0.0247657 0)
(8.34743 -0.0403493 0)
(8.36073 -0.0548015 0)
(8.37673 -0.0679801 0)
(8.39471 -0.0798172 0)
(8.41401 -0.0903015 0)
(8.434 -0.0994771 0)
(8.45417 -0.107429 0)
(8.47416 -0.114265 0)
(8.49366 -0.120109 0)
(8.51246 -0.12509 0)
(8.53041 -0.129337 0)
(8.54741 -0.132975 0)
(8.56341 -0.136118 0)
(8.57837 -0.138873 0)
(8.59229 -0.141333 0)
(8.60519 -0.143582 0)
(8.61709 -0.145688 0)
(8.62803 -0.147712 0)
(8.63804 -0.149699 0)
(8.64717 -0.151687 0)
(8.65547 -0.153706 0)
(8.66299 -0.155774 0)
(8.66976 -0.157904 0)
(8.67584 -0.160103 0)
(8.68127 -0.162372 0)
(8.68611 -0.164708 0)
(8.6904 -0.167106 0)
(8.69419 -0.169555 0)
(8.69752 -0.172047 0)
(8.70044 -0.174573 0)
(8.70302 -0.177112 0)
(8.33347 -0.0101973 0)
(8.33829 -0.0302217 0)
(8.34844 -0.0490511 0)
(8.36264 -0.0662754 0)
(8.37966 -0.0817401 0)
(8.39874 -0.0953969 0)
(8.41915 -0.107263 0)
(8.44021 -0.117424 0)
(8.46139 -0.12601 0)
(8.48229 -0.133179 0)
(8.5026 -0.139101 0)
(8.5221 -0.143951 0)
(8.54064 -0.147901 0)
(8.55813 -0.15111 0)
(8.57451 -0.153726 0)
(8.58977 -0.155883 0)
(8.60392 -0.157695 0)
(8.61696 -0.159264 0)
(8.62895 -0.160672 0)
(8.63992 -0.16199 0)
(8.64993 -0.163273 0)
(8.65901 -0.164566 0)
(8.66724 -0.165901 0)
(8.67465 -0.167302 0)
(8.68131 -0.168787 0)
(8.68727 -0.170362 0)
(8.69258 -0.172034 0)
(8.6973 -0.173801 0)
(8.70146 -0.175658 0)
(8.70513 -0.177601 0)
(8.70835 -0.17962 0)
(8.71116 -0.181709 0)
(8.71362 -0.183847 0)
(8.33351 -0.012256 0)
(8.33877 -0.0362303 0)
(8.34981 -0.0584838 0)
(8.36516 -0.0784222 0)
(8.38344 -0.0958701 0)
(8.40383 -0.110832 0)
(8.42555 -0.123416 0)
(8.4479 -0.13382 0)
(8.47029 -0.142282 0)
(8.49231 -0.149053 0)
(8.51364 -0.154379 0)
(8.53404 -0.158493 0)
(8.55336 -0.161611 0)
(8.5715 -0.163928 0)
(8.58843 -0.165617 0)
(8.60412 -0.16683 0)
(8.6186 -0.167698 0)
(8.63189 -0.16833 0)
(8.64405 -0.168818 0)
(8.65512 -0.169238 0)
(8.66516 -0.169649 0)
(8.67424 -0.170101 0)
(8.68242 -0.170627 0)
(8.68976 -0.171255 0)
(8.69633 -0.172003 0)
(8.70217 -0.172881 0)
(8.70736 -0.173896 0)
(8.71195 -0.175047 0)
(8.71599 -0.176334 0)
(8.71954 -0.177751 0)
(8.72265 -0.179292 0)
(8.72536 -0.180953 0)
(8.72775 -0.182711 0)
(8.3336 -0.0146332 0)
(8.33963 -0.0432622 0)
(8.35223 -0.0697396 0)
(8.36959 -0.0933467 0)
(8.39006 -0.113897 0)
(8.41263 -0.13137 0)
(8.43643 -0.145858 0)
(8.46066 -0.157584 0)
(8.48472 -0.166846 0)
(8.50817 -0.173966 0)
(8.53072 -0.179268 0)
(8.55214 -0.183063 0)
(8.5723 -0.185638 0)
(8.59112 -0.18725 0)
(8.60858 -0.188121 0)
(8.62467 -0.188445 0)
(8.63944 -0.188382 0)
(8.65293 -0.188068 0)
(8.6652 -0.187613 0)
(8.67631 -0.187104 0)
(8.68635 -0.18661 0)
(8.69537 -0.186185 0)
(8.70345 -0.185868 0)
(8.71066 -0.185689 0)
(8.71708 -0.185667 0)
(8.72275 -0.185813 0)
(8.72776 -0.186135 0)
(8.73216 -0.186634 0)
(8.73601 -0.187308 0)
(8.73935 -0.188153 0)
(8.74225 -0.18916 0)
(8.74475 -0.190325 0)
(8.7469 -0.191625 0)
(8.33366 -0.0173912 0)
(8.34046 -0.051093 0)
(8.35465 -0.0814899 0)
(8.37403 -0.107693 0)
(8.39669 -0.129729 0)
(8.4216 -0.147853 0)
(8.44779 -0.162398 0)
(8.47433 -0.173781 0)
(8.50055 -0.182436 0)
(8.52599 -0.188772 0)
(8.55028 -0.193168 0)
(8.57321 -0.195975 0)
(8.59465 -0.197507 0)
(8.61452 -0.198039 0)
(8.63282 -0.197813 0)
(8.64959 -0.197035 0)
(8.66486 -0.195877 0)
(8.67872 -0.194486 0)
(8.69124 -0.19298 0)
(8.70251 -0.191453 0)
(8.71261 -0.189981 0)
(8.72164 -0.188621 0)
(8.72967 -0.187418 0)
(8.7368 -0.186401 0)
(8.7431 -0.185594 0)
(8.74863 -0.185009 0)
(8.75348 -0.184654 0)
(8.75771 -0.184531 0)
(8.76138 -0.184638 0)
(8.76455 -0.184973 0)
(8.76728 -0.185526 0)
(8.76962 -0.186294 0)
(8.77165 -0.187249 0)
(8.3339 -0.020913 0)
(8.34273 -0.0617976 0)
(8.36053 -0.0989442 0)
(8.38404 -0.131135 0)
(8.4107 -0.158153 0)
(8.43922 -0.180033 0)
(8.46857 -0.197086 0)
(8.49781 -0.209875 0)
(8.52631 -0.219031 0)
(8.55367 -0.225167 0)
(8.57957 -0.228851 0)
(8.60384 -0.230594 0)
(8.62637 -0.230837 0)
(8.64713 -0.229953 0)
(8.66614 -0.228253 0)
(8.68344 -0.225992 0)
(8.6991 -0.223378 0)
(8.71322 -0.220574 0)
(8.72588 -0.217713 0)
(8.7372 -0.214895 0)
(8.74727 -0.212197 0)
(8.75619 -0.209676 0)
(8.76406 -0.207375 0)
(8.77098 -0.205322 0)
(8.77701 -0.203536 0)
(8.78226 -0.202028 0)
(8.78679 -0.200804 0)
(8.79067 -0.199865 0)
(8.79398 -0.199207 0)
(8.79677 -0.198826 0)
(8.7991 -0.198712 0)
(8.80103 -0.198858 0)
(8.8026 -0.199234 0)
(8.33386 -0.0249359 0)
(8.34352 -0.0719224 0)
(8.36373 -0.111992 0)
(8.39065 -0.144884 0)
(8.42139 -0.171664 0)
(8.45447 -0.192987 0)
(8.48842 -0.209403 0)
(8.52198 -0.221556 0)
(8.55436 -0.230061 0)
(8.58506 -0.235487 0)
(8.61376 -0.238367 0)
(8.64029 -0.239197 0)
(8.6646 -0.238418 0)
(8.6867 -0.236421 0)
(8.70667 -0.233539 0)
(8.72461 -0.230054 0)
(8.74065 -0.2262 0)
(8.75493 -0.222167 0)
(8.76757 -0.218105 0)
(8.77873 -0.214131 0)
(8.78852 -0.210334 0)
(8.79707 -0.206779 0)
(8.80451 -0.203514 0)
(8.81093 -0.200569 0)
(8.81644 -0.197964 0)
(8.82113 -0.195711 0)
(8.82509 -0.193812 0)
(8.82838 -0.192269 0)
(8.83109 -0.191078 0)
(8.83328 -0.190234 0)
(8.83503 -0.189724 0)
(8.83639 -0.189543 0)
(8.83745 -0.189652 0)
(8.33497 -0.0317831 0)
(8.35124 -0.0940566 0)
(8.38013 -0.148341 0)
(8.41454 -0.192516 0)
(8.45099 -0.226935 0)
(8.48857 -0.252402 0)
(8.5261 -0.270232 0)
(8.56252 -0.281896 0)
(8.59719 -0.288671 0)
(8.6297 -0.291627 0)
(8.65979 -0.291668 0)
(8.68734 -0.289532 0)
(8.71234 -0.285814 0)
(8.73486 -0.280987 0)
(8.75503 -0.275429 0)
(8.77299 -0.26944 0)
(8.78891 -0.263253 0)
(8.80296 -0.25705 0)
(8.81533 -0.25097 0)
(8.82617 -0.245116 0)
(8.83564 -0.239565 0)
(8.84388 -0.234369 0)
(8.85103 -0.229564 0)
(8.8572 -0.225172 0)
(8.86251 -0.221205 0)
(8.86704 -0.217667 0)
(8.87089 -0.214558 0)
(8.87412 -0.211875 0)
(8.87682 -0.209615 0)
(8.87905 -0.207772 0)
(8.88087 -0.206341 0)
(8.88235 -0.205316 0)
(8.88355 -0.204654 0)
(8.33402 -0.0367356 0)
(8.34979 -0.100128 0)
(8.38354 -0.149692 0)
(8.42605 -0.190148 0)
(8.4718 -0.223465 0)
(8.51839 -0.249375 0)
(8.56368 -0.268322 0)
(8.60651 -0.281199 0)
(8.64652 -0.288858 0)
(8.68366 -0.292174 0)
(8.71797 -0.292031 0)
(8.7496 -0.289244 0)
(8.77872 -0.28452 0)
(8.8055 -0.278457 0)
(8.83013 -0.271544 0)
(8.85276 -0.264169 0)
(8.87354 -0.256633 0)
(8.8926 -0.249162 0)
(8.91008 -0.241925 0)
(8.92611 -0.235039 0)
(8.94079 -0.228587 0)
(8.95425 -0.222619 0)
(8.96658 -0.217164 0)
(8.97789 -0.212234 0)
(8.98826 -0.20783 0)
(8.99778 -0.203945 0)
(9.00652 -0.200571 0)
(9.01455 -0.197696 0)
(9.02193 -0.195314 0)
(9.02874 -0.193423 0)
(9.03505 -0.192027 0)
(9.04094 -0.191134 0)
(9.04652 -0.190717 0)
(8.33959 -0.0608138 0)
(8.37695 -0.170725 0)
(8.42598 -0.249743 0)
(8.4755 -0.303472 0)
(8.52757 -0.339021 0)
(8.58371 -0.360771 0)
(8.64235 -0.372819 0)
(8.70218 -0.378255 0)
(8.76226 -0.379031 0)
(8.82151 -0.376468 0)
(8.87892 -0.371507 0)
(8.93374 -0.364816 0)
(8.98543 -0.356892 0)
(9.03367 -0.348125 0)
(9.07826 -0.338828 0)
(9.11917 -0.329259 0)
(9.15647 -0.319634 0)
(9.1903 -0.310131 0)
(9.22086 -0.300891 0)
(9.24837 -0.292024 0)
(9.27306 -0.283614 0)
(9.29518 -0.275717 0)
(9.31495 -0.268369 0)
(9.33259 -0.261592 0)
(9.34831 -0.255391 0)
(9.36229 -0.249766 0)
(9.37468 -0.244711 0)
(9.38562 -0.24022 0)
(9.39525 -0.2363 0)
(9.40365 -0.232957 0)
(9.41096 -0.230255 0)
(9.41725 -0.228203 0)
(9.42274 -0.227002 0)
(8.33758 -0.046767 0)
(8.39338 -0.121681 0)
(8.49348 -0.186203 0)
(8.60809 -0.248562 0)
(8.72971 -0.302248 0)
(8.85283 -0.344079 0)
(8.97052 -0.374765 0)
(9.07864 -0.395183 0)
(9.17495 -0.406478 0)
(9.25826 -0.410232 0)
(9.32829 -0.408067 0)
(9.3855 -0.401445 0)
(9.43077 -0.391631 0)
(9.46522 -0.379674 0)
(9.49009 -0.366415 0)
(9.50663 -0.352512 0)
(9.51601 -0.338463 0)
(9.51933 -0.324641 0)
(9.51757 -0.311307 0)
(9.51158 -0.298641 0)
(9.5021 -0.286755 0)
(9.48976 -0.275712 0)
(9.47508 -0.265534 0)
(9.45851 -0.256215 0)
(9.4404 -0.247727 0)
(9.42106 -0.240031 0)
(9.4007 -0.233075 0)
(9.3795 -0.226809 0)
(9.35759 -0.221195 0)
(9.33499 -0.216208 0)
(9.31184 -0.211946 0)
(9.28782 -0.208364 0)
(9.26369 -0.206542 0)
(8.40926 -0.221546 0)
(8.63498 -0.429079 0)
(8.83299 -0.523887 0)
(8.97633 -0.585037 0)
(9.06935 -0.618322 0)
(9.11104 -0.629339 0)
(9.1057 -0.625663 0)
(9.06278 -0.611361 0)
(8.99116 -0.58927 0)
(8.8983 -0.561958 0)
(8.79072 -0.531489 0)
(8.67377 -0.499449 0)
(8.55168 -0.467066 0)
(8.42764 -0.435259 0)
(8.30403 -0.404676 0)
(8.18254 -0.375749 0)
(8.06435 -0.348738 0)
(7.95022 -0.323771 0)
(7.84058 -0.300881 0)
(7.73565 -0.28003 0)
(7.63548 -0.261136 0)
(7.53999 -0.244085 0)
(7.44905 -0.228745 0)
(7.36243 -0.214974 0)
(7.27993 -0.202622 0)
(7.20128 -0.19154 0)
(7.12622 -0.181569 0)
(7.05448 -0.172559 0)
(6.98576 -0.164327 0)
(6.91965 -0.156703 0)
(6.85576 -0.149579 0)
(6.79298 -0.142039 0)
(6.73173 -0.137882 0)
(8.13702 -0.207311 0)
(7.84726 -0.388443 0)
(7.38423 -0.439988 0)
(6.85777 -0.440748 0)
(6.35694 -0.409515 0)
(5.88464 -0.360593 0)
(5.44354 -0.306272 0)
(5.04104 -0.252958 0)
(4.67824 -0.203878 0)
(4.35317 -0.160654 0)
(4.06348 -0.123733 0)
(3.80633 -0.0928921 0)
(3.57853 -0.0675869 0)
(3.37693 -0.0471249 0)
(3.19853 -0.0307785 0)
(3.04054 -0.0178598 0)
(2.90043 -0.007755 0)
(2.77589 6.4462e-05 0)
(2.66493 0.00604288 0)
(2.56574 0.0105473 0)
(2.47678 0.0138779 0)
(2.39668 0.0162783 0)
(2.32427 0.0179469 0)
(2.25852 0.0190453 0)
(2.19857 0.0197116 0)
(2.14368 0.0200647 0)
(2.0932 0.0202363 0)
(2.04671 0.0203576 0)
(2.00364 0.0206759 0)
(1.96421 0.021523 0)
(1.92737 0.0232739 0)
(1.89551 0.0287842 0)