/*--------------------------------*- C++ -*----------------------------------*\
| =========                 |                                                 |
| \\      /  F ield         | OpenFOAM: The Open Source CFD Toolbox           |
|  \\    /   O peration     | Version:  2.1.1                                 |
|   \\  /    A nd           | Web:      www.OpenFOAM.org                      |
|    \\/     M anipulation  |                                                 |
\*---------------------------------------------------------------------------*/
FoamFile
{
    version     2.0;
    format      ascii;
    class       volScalarField;
    location    "0.12";
    object      epsilon;
}
// * * * * * * * * * * * * * * * * * * * * * * * * * * * * * * * * * * * * * //

dimensions      [0 2 -3 0 0 0 0];

internalField   nonuniform List<scalar> 
6820
(
151.448
203.151
260.735
321.761
383.63
443.729
499.775
550.058
593.523
629.73
658.747
681.014
697.206
708.12
714.583
717.39
717.271
714.867
710.728
705.314
699
692.089
684.824
677.391
669.935
662.564
655.354
648.378
641.59
635.396
627.94
628.117
593.325
11.7448
21.4171
29.9429
38.6223
47.5762
56.5506
65.3086
73.6487
81.4091
88.481
94.8098
100.388
105.247
109.442
113.044
116.132
118.782
121.067
123.053
124.796
126.345
127.741
129.019
130.206
131.326
132.398
133.441
134.477
135.529
136.664
137.905
139.68
141.815
5.8378
7.51683
9.2067
10.8094
12.32
13.7476
15.0887
16.3395
17.4985
18.5653
19.5419
20.4317
21.24
21.9734
22.6389
23.2443
23.7971
24.3047
24.774
25.2112
25.6221
26.0117
26.3842
26.7434
27.0926
27.4344
27.771
28.1045
28.4364
28.7692
29.1044
29.4397
29.8182
5.24229
5.56004
6.00444
6.49349
6.98575
7.46201
7.91317
8.33494
8.72564
9.08511
9.41411
9.71398
9.98641
10.2333
10.4567
10.6586
10.841
11.0059
11.155
11.2902
11.4131
11.5252
11.6279
11.7223
11.8098
11.8911
11.9672
12.0388
12.1064
12.1703
12.2301
12.2867
12.3366
5.17349
5.18677
5.26821
5.39776
5.55639
5.7297
5.90782
6.08432
6.25517
6.41794
6.57125
6.71438
6.84711
6.96949
7.08181
7.18446
7.27795
7.36283
7.43967
7.50907
7.57161
7.62787
7.67839
7.7237
7.76431
7.80067
7.83321
7.86234
7.88839
7.91171
7.93252
7.9511
7.96751
5.16878
5.12131
5.09602
5.09481
5.11536
5.15307
5.20299
5.26075
5.32291
5.38691
5.45087
5.51345
5.57376
5.63116
5.68528
5.73588
5.78287
5.82624
5.86605
5.9024
5.93542
5.96529
5.99217
6.01625
6.03772
6.05676
6.07357
6.08832
6.10119
6.11235
6.12196
6.13013
6.13706
5.16887
5.11169
5.06116
5.01963
4.9884
4.96755
4.95615
4.95279
4.95586
4.96385
4.97541
4.98942
5.00497
5.02136
5.038
5.05447
5.07045
5.0857
5.10005
5.11338
5.12563
5.13676
5.14675
5.15562
5.16338
5.17009
5.17577
5.1805
5.18432
5.18729
5.18949
5.19095
5.19175
5.16902
5.11062
5.05514
5.00339
4.95619
4.91414
4.87747
4.84611
4.81972
4.79781
4.77979
4.76509
4.75314
4.74345
4.73555
4.72908
4.7237
4.71913
4.71516
4.71159
4.70828
4.70511
4.70199
4.69884
4.6956
4.69224
4.68873
4.68505
4.68119
4.67715
4.67293
4.66853
4.66396
5.16904
5.11054
5.05431
5.00049
4.94927
4.9009
4.85559
4.81346
4.77456
4.73882
4.70611
4.67623
4.64896
4.62405
4.60125
4.58032
4.56104
4.54321
4.52664
4.51116
4.49664
4.48293
4.46994
4.45756
4.44572
4.43434
4.42337
4.41275
4.40245
4.39243
4.38266
4.37312
4.36377
5.16904
5.11054
5.0542
5.00002
4.94796
4.89803
4.85027
4.80472
4.76139
4.72029
4.6814
4.64467
4.61003
4.57738
4.54661
4.51761
4.49027
4.46444
4.44003
4.41692
4.395
4.37417
4.35435
4.33544
4.31737
4.30008
4.2835
4.26757
4.25225
4.2375
4.22326
4.20951
4.1962
5.16904
5.11053
5.05418
4.99994
4.94773
4.89747
4.84913
4.80265
4.758
4.71515
4.67407
4.63472
4.59706
4.56105
4.52663
4.49374
4.46232
4.43231
4.40362
4.37619
4.34996
4.32485
4.30081
4.27777
4.25567
4.23445
4.21407
4.19448
4.17562
4.15747
4.13997
4.1231
4.10681
5.16904
5.11052
5.05417
4.99991
4.94767
4.89735
4.84888
4.80219
4.7572
4.71385
4.67211
4.6319
4.59319
4.55594
4.52008
4.48558
4.4524
4.42047
4.38976
4.36022
4.33179
4.30444
4.27812
4.25277
4.22837
4.20485
4.1822
4.16035
4.13929
4.11896
4.09935
4.08041
4.06212
5.16904
5.11052
5.05416
4.99989
4.94764
4.89731
4.84881
4.80206
4.75699
4.71352
4.6716
4.63115
4.59212
4.55446
4.51811
4.48304
4.44918
4.41651
4.38497
4.35453
4.32513
4.29675
4.26935
4.24289
4.21733
4.19263
4.16877
4.14572
4.12343
4.10189
4.08105
4.0609
4.04141
5.16903
5.11051
5.05415
4.99988
4.94762
4.89728
4.84877
4.802
4.75691
4.71341
4.67143
4.63092
4.5918
4.55402
4.51752
4.48226
4.44819
4.41525
4.38341
4.35263
4.32286
4.29407
4.26622
4.23928
4.21321
4.18798
4.16356
4.13993
4.11705
4.09489
4.07344
4.05266
4.03253
5.16903
5.11051
5.05414
4.99987
4.9476
4.89725
4.84873
4.80196
4.75685
4.71334
4.67135
4.63081
4.59166
4.55384
4.5173
4.48199
4.44784
4.41482
4.38288
4.35198
4.32208
4.29314
4.26512
4.238
4.21173
4.18628
4.16164
4.13776
4.11462
4.09219
4.07045
4.04938
4.02894
5.16903
5.11051
5.05413
4.99986
4.94758
4.89723
4.8487
4.80192
4.75681
4.71328
4.67128
4.63073
4.59157
4.55373
4.51717
4.48184
4.44767
4.41462
4.38264
4.3517
4.32176
4.29276
4.26469
4.23749
4.21115
4.18562
4.16088
4.13691
4.11366
4.09112
4.06926
4.04806
4.02749
5.16903
5.1105
5.05413
4.99985
4.94757
4.89721
4.84868
4.80189
4.75676
4.71323
4.67122
4.63066
4.59149
4.55364
4.51707
4.48172
4.44754
4.41447
4.38248
4.35153
4.32156
4.29254
4.26444
4.23722
4.21085
4.18529
4.16051
4.13649
4.1132
4.09062
4.06871
4.04745
4.02683
5.16903
5.1105
5.05412
4.99984
4.94756
4.89719
4.84865
4.80186
4.75673
4.71319
4.67116
4.63059
4.59141
4.55356
4.51698
4.48162
4.44742
4.41435
4.38235
4.35138
4.3214
4.29237
4.26425
4.23702
4.21063
4.18505
4.16026
4.13622
4.1129
4.09029
4.06836
4.04708
4.02642
5.16903
5.1105
5.05412
4.99983
4.94755
4.89718
4.84863
4.80183
4.75669
4.71314
4.67111
4.63054
4.59135
4.55349
4.5169
4.48153
4.44732
4.41424
4.38223
4.35125
4.32125
4.29221
4.26409
4.23684
4.21043
4.18484
4.16004
4.13598
4.11265
4.09003
4.06807
4.04677
4.0261
5.16903
5.1105
5.05411
4.99982
4.94754
4.89716
4.84861
4.80181
4.75666
4.71311
4.67107
4.63049
4.59129
4.55342
4.51682
4.48144
4.44723
4.41413
4.38211
4.35112
4.32112
4.29207
4.26393
4.23667
4.21025
4.18465
4.15983
4.13576
4.11242
4.08978
4.06781
4.0465
4.0258
5.16903
5.1105
5.05411
4.99982
4.94753
4.89715
4.8486
4.80179
4.75664
4.71307
4.67103
4.63044
4.59123
4.55336
4.51675
4.48136
4.44714
4.41403
4.382
4.351
4.32099
4.29193
4.26378
4.23651
4.21009
4.18447
4.15964
4.13556
4.1122
4.08955
4.06757
4.04624
4.02553
5.16903
5.11049
5.05411
4.99981
4.94752
4.89714
4.84858
4.80177
4.75661
4.71305
4.671
4.6304
4.59118
4.5533
4.51668
4.48129
4.44706
4.41395
4.38191
4.3509
4.32088
4.2918
4.26365
4.23636
4.20993
4.1843
4.15946
4.13536
4.112
4.08933
4.06733
4.04599
4.02527
5.16903
5.11049
5.05411
4.99981
4.94752
4.89713
4.84857
4.80175
4.75659
4.71302
4.67096
4.63036
4.59114
4.55325
4.51663
4.48122
4.44698
4.41386
4.38181
4.3508
4.32077
4.29168
4.26352
4.23622
4.20978
4.18414
4.15928
4.13518
4.1118
4.08912
4.06711
4.04575
4.02502
5.16903
5.11049
5.0541
4.99981
4.94751
4.89712
4.84856
4.80174
4.75657
4.713
4.67094
4.63032
4.5911
4.5532
4.51657
4.48116
4.44692
4.41379
4.38173
4.3507
4.32066
4.29157
4.2634
4.23609
4.20963
4.18399
4.15912
4.135
4.11161
4.08892
4.0669
4.04553
4.02478
5.16903
5.11049
5.0541
4.9998
4.94751
4.89712
4.84855
4.80172
4.75656
4.71298
4.67091
4.63029
4.59106
4.55316
4.51652
4.48111
4.44685
4.41372
4.38165
4.35062
4.32057
4.29147
4.26328
4.23597
4.2095
4.18385
4.15897
4.13484
4.11144
4.08873
4.0667
4.04532
4.02455
5.16903
5.11049
5.0541
4.9998
4.9475
4.89711
4.84854
4.80171
4.75654
4.71296
4.67089
4.63027
4.59103
4.55312
4.51648
4.48106
4.4468
4.41366
4.38159
4.35054
4.32049
4.29138
4.26318
4.23586
4.20938
4.18372
4.15883
4.13469
4.11128
4.08856
4.06652
4.04512
4.02435
5.16903
5.11049
5.0541
4.9998
4.9475
4.89711
4.84854
4.8017
4.75653
4.71294
4.67087
4.63024
4.591
4.55309
4.51644
4.48101
4.44675
4.4136
4.38152
4.35047
4.32041
4.29129
4.26309
4.23576
4.20927
4.18359
4.1587
4.13455
4.11113
4.0884
4.06634
4.04494
4.02415
5.16903
5.11049
5.0541
4.9998
4.9475
4.8971
4.84853
4.8017
4.75652
4.71293
4.67086
4.63023
4.59099
4.55307
4.51642
4.48098
4.44671
4.41356
4.38147
4.35042
4.32035
4.29122
4.26301
4.23567
4.20918
4.18349
4.15858
4.13443
4.11099
4.08826
4.06619
4.04477
4.02398
5.16903
5.11049
5.0541
4.9998
4.9475
4.8971
4.84853
4.80169
4.75651
4.71292
4.67084
4.63021
4.59096
4.55304
4.51638
4.48094
4.44667
4.41351
4.38142
4.35036
4.32028
4.29115
4.26293
4.23559
4.20908
4.18339
4.15848
4.13431
4.11087
4.08812
4.06605
4.04462
4.02382
5.16903
5.11049
5.0541
4.9998
4.9475
4.89711
4.84853
4.8017
4.75652
4.71293
4.67085
4.63022
4.59097
4.55305
4.51639
4.48094
4.44666
4.4135
4.3814
4.35034
4.32025
4.29112
4.26289
4.23554
4.20903
4.18333
4.15841
4.13424
4.11078
4.08803
4.06595
4.04451
4.0237
5.16903
5.11049
5.0541
4.9998
4.9475
4.8971
4.84853
4.80169
4.75651
4.71291
4.67083
4.63019
4.59094
4.55302
4.51636
4.48091
4.44663
4.41347
4.38137
4.3503
4.32022
4.29108
4.26285
4.2355
4.20899
4.18328
4.15836
4.13418
4.11073
4.08797
4.06589
4.04445
4.02363
5.16903
5.11049
5.0541
4.99981
4.94752
4.89714
4.84858
4.80176
4.75659
4.713
4.67093
4.6303
4.59105
4.55312
4.51646
4.48102
4.44674
4.41357
4.38147
4.3504
4.32032
4.29118
4.26296
4.23561
4.2091
4.1834
4.15848
4.13432
4.11087
4.08813
4.06605
4.04463
4.02383
5.16903
5.11051
5.05414
4.99985
4.94756
4.89718
4.84861
4.80178
4.75661
4.71302
4.67095
4.63033
4.59109
4.55318
4.51655
4.48112
4.44687
4.41374
4.38168
4.35065
4.32061
4.29153
4.26335
4.23606
4.20962
4.18399
4.15915
4.13506
4.1117
4.08904
4.06706
4.04573
4.02503
5.16903
5.1105
5.05415
4.99992
4.9477
4.89739
4.8489
4.80214
4.75703
4.71351
4.67151
4.63096
4.59181
4.55399
4.51747
4.48217
4.44807
4.4151
4.38323
4.35241
4.3226
4.29376
4.26586
4.23886
4.21272
4.18741
4.16291
4.13917
4.11618
4.0939
4.07231
4.05138
4.03109
5.16905
5.11063
5.05441
5.00026
4.9481
4.89786
4.84948
4.80288
4.75802
4.71482
4.67323
4.63317
4.59461
4.55747
4.5217
4.48725
4.45407
4.4221
4.39129
4.36159
4.33297
4.30536
4.27874
4.25306
4.22828
4.20435
4.18126
4.15895
4.1374
4.11657
4.09643
4.07697
4.05813
5.16908
5.11079
5.05488
5.00136
4.95017
4.9012
4.8544
4.80972
4.76709
4.72647
4.68778
4.65095
4.6159
4.58254
4.55078
4.52054
4.49174
4.46429
4.43811
4.41313
4.38927
4.36648
4.34467
4.3238
4.30381
4.28464
4.26625
4.24859
4.23162
4.21529
4.19958
4.18445
4.16986
5.16939
5.11359
5.06202
5.01464
4.97148
4.93247
4.89744
4.86611
4.83817
4.81329
4.79115
4.77146
4.75391
4.73826
4.72428
4.71174
4.70047
4.69031
4.6811
4.67272
4.66506
4.65802
4.65151
4.64546
4.6398
4.63448
4.62945
4.62466
4.62008
4.61568
4.61142
4.60729
4.60327
5.17808
5.16329
5.16947
5.19111
5.22425
5.26585
5.31353
5.36539
5.42003
5.47635
5.53352
5.59087
5.64792
5.70426
5.75961
5.81374
5.8665
5.91778
5.96748
6.01558
6.06204
6.10685
6.15003
6.1916
6.23159
6.27002
6.30695
6.34241
6.37645
6.40913
6.44049
6.47058
6.49947
5.63861
6.43047
7.14598
7.82605
8.4955
9.14834
9.77867
10.3842
10.9646
11.521
12.0547
12.5672
13.0601
13.5348
13.9926
14.4347
14.8619
15.2752
15.6753
16.063
16.4389
16.8034
17.1572
17.5007
17.8342
18.1583
18.4733
18.7796
19.0774
19.3672
19.6492
19.9236
20.191
44.7794
48.3124
51.8864
55.4657
59.0311
62.5709
66.0743
69.5317
72.9342
76.2741
79.5446
82.7396
85.8544
88.8849
91.828
94.6813
97.4429
100.112
102.688
105.171
107.561
109.859
112.067
114.186
116.217
118.163
120.025
121.806
123.509
125.134
126.686
128.166
129.579
705.221
835.156
939.797
1023.95
1091.71
1141.37
1169.54
1174.26
1156.8
1121.35
1073.7
1019.78
964.448
911.032
861.293
815.803
774.419
736.69
702.131
670.347
641.051
614.034
589.112
566.098
544.777
524.915
506.263
488.573
471.611
455.168
439.063
423.144
407.292
391.418
375.462
359.393
343.204
326.916
310.571
294.234
277.984
261.914
246.125
230.718
215.79
201.429
187.706
174.673
162.359
150.769
139.886
129.669
120.06
110.986
102.364
94.1087
86.1364
78.3737
70.7634
63.271
55.8904
48.6492
41.6112
34.8763
28.575
22.855
17.8593
13.6954
10.4049
7.94681
6.20764
5.03464
4.27471
3.79958
3.51342
3.34936
3.26236
3.22274
3.21117
3.21529
3.22736
3.24271
3.25869
3.27401
3.28823
3.30153
3.31439
3.32749
3.34155
3.35718
3.37484
3.39469
3.41659
3.44007
3.46433
3.48836
3.51108
3.53117
3.54807
3.56201
146.34
153.031
163.24
178.278
199.433
227.591
262.946
304.742
351.173
399.49
446.349
488.341
522.581
547.197
561.579
566.316
562.883
553.204
539.244
522.716
504.932
486.786
468.809
451.267
434.253
417.762
401.74
386.114
370.808
355.749
340.87
326.113
311.434
296.8
282.197
267.626
253.108
238.682
224.403
210.338
196.566
183.17
170.234
157.838
146.049
134.925
124.501
114.795
105.805
97.5066
89.859
82.8049
76.275
70.192
64.4753
59.0457
53.8305
48.7693
43.8188
38.9577
34.1905
29.5495
25.0943
20.9069
17.0822
13.7121
10.8663
8.57426
6.81669
5.53112
4.63013
4.02227
3.62693
3.3802
3.23453
3.1558
3.12003
3.11074
3.11675
3.13072
3.14791
3.16547
3.18182
3.19625
3.20867
3.21943
3.2291
3.23841
3.24812
3.25894
3.27144
3.28593
3.30248
3.32082
3.34037
3.36031
3.37971
3.39736
3.41259
3.42615
30.1801
30.613
31.2773
32.3815
33.9928
36.2431
39.4228
43.8949
50.0644
58.3319
69.0243
82.3098
98.1153
116.073
135.518
155.55
175.141
193.277
209.097
221.988
231.638
238.022
241.344
241.963
240.304
236.801
231.844
225.762
218.814
211.198
203.061
194.515
185.645
176.525
167.223
157.808
148.349
138.92
129.598
120.459
111.582
103.039
94.8957
87.2074
80.0166
73.3507
67.2212
61.6239
56.5397
51.9364
47.7711
43.9927
40.5449
37.3686
34.4052
31.5994
28.903
26.2775
23.6979
21.1553
18.6583
16.2333
13.9216
11.7737
9.84111
8.16588
6.77173
5.65931
4.80765
4.18087
3.73691
3.43467
3.23827
3.1184
3.05218
3.02228
3.01589
3.02375
3.03936
3.05829
3.07763
3.09559
3.11123
3.12421
3.1346
3.14281
3.14944
3.15522
3.16093
3.16729
3.17493
3.18431
3.19563
3.20882
3.22351
3.23905
3.2547
3.26938
3.28241
3.29459
12.3919
12.4686
12.5664
12.6937
12.8661
13.0764
13.3446
13.7035
14.1968
14.878
15.81
17.0633
18.7131
20.8351
23.4978
26.7518
30.6161
35.0644
40.0153
45.3311
50.8257
56.2823
61.4756
66.1952
70.2648
73.5548
75.9874
77.5345
78.2107
78.0638
77.165
75.5991
73.4584
70.8369
67.8274
64.5197
60.9991
57.3462
53.6359
49.9369
46.3105
42.8096
39.4781
36.3497
33.4478
30.7854
28.3658
26.1836
24.2261
22.4746
20.9064
19.4954
18.2139
17.0339
15.9275
14.8692
13.8364
12.8119
11.7849
10.7527
9.72154
8.70581
7.72658
6.80828
5.97459
5.24426
4.62812
4.12798
3.73761
3.44509
3.23547
3.0931
3.00316
2.95254
2.93026
2.92739
2.937
2.95381
2.97397
2.99475
3.01431
3.03152
3.04579
3.05697
3.06523
3.07097
3.07478
3.07736
3.07943
3.08174
3.08493
3.08954
3.09588
3.10405
3.11386
3.12486
3.13645
3.14774
3.15811
3.16803
7.98435
8.00262
8.0205
8.03818
8.05762
8.08064
8.10823
8.14377
8.19206
8.25934
8.35324
8.48263
8.65741
8.88811
9.18532
9.55904
10.0178
10.5677
11.2114
11.9472
12.7679
13.6607
14.6065
15.5803
16.5518
17.4874
18.3525
19.1134
19.7406
20.2105
20.5073
20.6232
20.559
20.3232
19.9305
19.4009
18.7578
18.0263
17.232
16.3997
15.5524
14.7102
13.89
13.1054
12.3662
11.6786
11.046
10.4686
9.94454
9.47002
9.03967
8.64697
8.28452
7.94427
7.61789
7.29712
6.97434
6.64331
6.29987
5.94277
5.57412
5.1995
4.82742
4.4683
4.13289
3.83074
3.56887
3.35109
3.17793
3.04708
2.95417
2.89359
2.8593
2.84533
2.84627
2.85741
2.87489
2.8956
2.91717
2.93784
2.95642
2.97214
2.98463
2.99383
2.99994
3.00333
3.00455
3.00423
3.00306
3.00174
3.00091
3.00115
3.00287
3.00626
3.01131
3.01774
3.02513
3.03271
3.04008
3.04695
6.14337
6.14831
6.15108
6.15201
6.1515
6.14979
6.14725
6.14449
6.1423
6.14169
6.14385
6.15019
6.16235
6.18211
6.2114
6.2521
6.30594
6.37427
6.45792
6.55703
6.67094
6.79807
6.93596
7.08122
7.22963
7.37623
7.5156
7.64205
7.75002
7.83436
7.89073
7.91588
7.90785
7.86609
7.79145
7.68608
7.55321
7.3969
7.22175
7.0326
6.83425
6.63128
6.42778
6.22733
6.03281
5.84647
5.66982
5.50377
5.34859
5.20401
5.06925
4.94309
4.82389
4.70965
4.59809
4.48674
4.37309
4.2549
4.13045
3.99887
3.86049
3.71698
3.57133
3.42757
3.29034
3.16422
3.05316
2.95999
2.88617
2.83177
2.79562
2.77568
2.76931
2.77367
2.78592
2.80345
2.82397
2.84555
2.86663
2.88603
2.9029
2.9167
2.92718
2.93431
2.93829
2.93946
2.9383
2.93538
2.93133
2.9268
2.9224
2.91872
2.9162
2.91514
2.91566
2.91763
2.92078
2.92448
2.9286
2.93179
5.19177
5.19052
5.18783
5.18367
5.17805
5.17094
5.16251
5.153
5.14265
5.13165
5.12023
5.10862
5.09708
5.08594
5.07554
5.06628
5.05855
5.05274
5.04914
5.04796
5.04923
5.05279
5.05826
5.06504
5.07232
5.07909
5.0842
5.08642
5.08447
5.07714
5.06335
5.04223
5.01314
4.97577
4.93011
4.87647
4.81547
4.74793
4.67491
4.59756
4.51708
4.43468
4.35151
4.2686
4.18685
4.10701
4.02964
3.95513
3.88371
3.81544
3.7502
3.68775
3.6277
3.56952
3.51258
3.45613
3.39942
3.34169
3.28235
3.22105
3.15784
3.09327
3.02843
2.96491
2.90464
2.84969
2.80196
2.763
2.73375
2.71451
2.70492
2.70409
2.71073
2.7233
2.74017
2.75975
2.78055
2.80126
2.82078
2.83825
2.85302
2.86467
2.87303
2.87808
2.87998
2.87906
2.87572
2.87047
2.86387
2.85651
2.84897
2.8418
2.83549
2.83037
2.82666
2.82437
2.82336
2.82313
2.82388
2.82288
4.65835
4.65135
4.64352
4.63477
4.62513
4.61461
4.60322
4.591
4.57799
4.56426
4.54982
4.53472
4.51897
4.50257
4.48556
4.46796
4.44984
4.43126
4.4123
4.39302
4.3735
4.35374
4.33374
4.31342
4.29267
4.27128
4.24904
4.22567
4.20086
4.17433
4.14579
4.11499
4.08177
4.046
4.00767
3.96687
3.92374
3.87854
3.83157
3.78318
3.73376
3.6837
3.63337
3.58313
3.53329
3.4841
3.43577
3.38847
3.34229
3.29728
3.25345
3.21076
3.16915
3.12851
3.08871
3.04961
3.01105
2.9729
2.93506
2.89755
2.86051
2.82426
2.78933
2.75644
2.72646
2.70034
2.67896
2.66305
2.65307
2.64916
2.65109
2.65835
2.67015
2.68552
2.70338
2.72263
2.74221
2.76112
2.77853
2.79374
2.80624
2.81568
2.8219
2.82489
2.82481
2.82191
2.81657
2.80922
2.80036
2.79052
2.78023
2.77001
2.76033
2.75157
2.744
2.73772
2.73274
2.72863
2.72598
2.72047
4.35307
4.34073
4.32804
4.31494
4.30138
4.28733
4.27278
4.25774
4.24222
4.22623
4.20976
4.19282
4.17536
4.15737
4.13879
4.11959
4.09974
4.07922
4.05799
4.03607
4.01345
3.99014
3.96616
3.94152
3.9162
3.89022
3.86354
3.83615
3.80798
3.77902
3.7492
3.7185
3.68689
3.65436
3.62095
3.58668
3.55164
3.51591
3.47961
3.44287
3.40582
3.36859
3.33132
3.29412
3.25709
3.22033
3.18389
3.14783
3.11219
3.077
3.04228
3.00806
2.97435
2.9412
2.90864
2.87673
2.84553
2.81516
2.78573
2.75742
2.73045
2.70513
2.6818
2.66092
2.64294
2.62834
2.61757
2.61094
2.60866
2.6107
2.61686
2.62673
2.63972
2.65512
2.6721
2.68981
2.7074
2.72408
2.73913
2.75198
2.76217
2.7694
2.77354
2.77456
2.77259
2.76785
2.76067
2.75143
2.74056
2.72854
2.71586
2.70298
2.69035
2.67837
2.66733
2.65741
2.64871
2.64087
2.6349
2.6247
4.18119
4.16422
4.14717
4.12998
4.11263
4.09509
4.07735
4.0594
4.04124
4.02285
4.00424
3.98539
3.96626
3.94684
3.92709
3.90696
3.8864
3.86539
3.84388
3.82184
3.79925
3.77609
3.75237
3.72808
3.70323
3.67783
3.6519
3.62545
3.59851
3.57109
3.54321
3.51489
3.48616
3.45706
3.4276
3.39783
3.3678
3.33755
3.30713
3.27659
3.24599
3.21535
3.18474
3.15416
3.12365
3.09321
3.06287
3.03263
3.0025
2.97249
2.94264
2.91297
2.88354
2.85443
2.82574
2.79759
2.77013
2.74354
2.71802
2.6938
2.67116
2.65037
2.63175
2.61562
2.60231
2.5921
2.58524
2.5819
2.58212
2.58583
2.5928
2.60268
2.61496
2.62904
2.64425
2.65986
2.67515
2.68943
2.70207
2.71256
2.7205
2.72562
2.72776
2.72691
2.72316
2.71672
2.70785
2.6969
2.68425
2.67033
2.65555
2.64037
2.62519
2.61039
2.59629
2.58309
2.57098
2.55965
2.55053
2.5356
4.08849
4.0679
4.04735
4.02682
4.00629
3.98573
3.96514
3.94451
3.92383
3.90311
3.88233
3.86149
3.84058
3.81957
3.79844
3.77716
3.7557
3.73403
3.7121
3.6899
3.66739
3.64455
3.62137
3.59783
3.57395
3.54972
3.52514
3.50025
3.47505
3.44958
3.42384
3.39788
3.37173
3.3454
3.31894
3.29236
3.2657
3.23899
3.21225
3.18549
3.15873
3.13198
3.10524
3.07849
3.05174
3.02496
2.99816
2.97131
2.94442
2.91749
2.89056
2.86366
2.83685
2.81023
2.78391
2.75803
2.73276
2.7083
2.68488
2.66274
2.64215
2.62339
2.60674
2.59246
2.58083
2.57206
2.56631
2.56368
2.56416
2.56765
2.57392
2.58264
2.59336
2.60556
2.61863
2.63193
2.64483
2.6567
2.66699
2.67521
2.68101
2.68411
2.68437
2.68177
2.67638
2.66837
2.65796
2.64547
2.63124
2.61564
2.59905
2.58188
2.5645
2.54726
2.53049
2.5144
2.49924
2.48469
2.47264
2.45312
4.04152
4.01839
3.99534
3.97235
3.94942
3.92654
3.9037
3.88091
3.85815
3.83545
3.81278
3.79017
3.76759
3.74505
3.72253
3.70001
3.67748
3.65491
3.63228
3.60957
3.58676
3.56382
3.54075
3.51753
3.49416
3.47063
3.44694
3.42311
3.39914
3.37505
3.35085
3.32656
3.30221
3.27781
3.25338
3.22894
3.20449
3.18007
3.15566
3.13127
3.10689
3.08252
3.05814
3.03373
3.00926
2.98471
2.96007
2.93531
2.91043
2.88544
2.86035
2.83522
2.81011
2.78511
2.76033
2.73592
2.71205
2.68892
2.66674
2.64576
2.62623
2.60842
2.59258
2.57896
2.56778
2.55922
2.55342
2.55043
2.55023
2.55271
2.55766
2.56475
2.5736
2.5837
2.59454
2.60552
2.61606
2.6256
2.63364
2.63971
2.64349
2.64471
2.64323
2.63901
2.6321
2.62264
2.61085
2.59698
2.58134
2.56427
2.54612
2.52723
2.50796
2.48864
2.46956
2.45096
2.43311
2.41568
2.40097
2.37709
4.01943
3.99472
3.97007
3.94548
3.92096
3.89649
3.87209
3.84775
3.82349
3.7993
3.7752
3.75119
3.72727
3.70345
3.67972
3.65608
3.63252
3.60903
3.5856
3.56221
3.53886
3.51553
3.4922
3.46888
3.44556
3.42222
3.39888
3.37552
3.35216
3.3288
3.30546
3.28213
3.25884
3.23558
3.21237
3.18921
3.1661
3.14305
3.12005
3.09709
3.07415
3.05122
3.02826
3.00526
2.98218
2.959
2.93568
2.91223
2.88861
2.86485
2.84097
2.817
2.793
2.76908
2.74533
2.72191
2.69896
2.67668
2.65528
2.63499
2.61603
2.59866
2.58312
2.56962
2.55836
2.54952
2.54318
2.53941
2.53818
2.53936
2.54276
2.54808
2.55497
2.56298
2.5716
2.58033
2.58861
2.59594
2.60185
2.60591
2.6078
2.60727
2.60418
2.59847
2.59018
2.57941
2.56637
2.55127
2.53439
2.51604
2.49652
2.47617
2.45529
2.43419
2.41315
2.39238
2.3722
2.35223
2.33517
2.30726
4.0098
3.98421
3.95866
3.93314
3.90768
3.88226
3.85689
3.83158
3.80633
3.78117
3.75609
3.73111
3.70623
3.68147
3.65683
3.63231
3.60791
3.58363
3.55947
3.53543
3.51149
3.48766
3.46392
3.44028
3.41673
3.39327
3.3699
3.34661
3.32342
3.30031
3.2773
3.25439
3.23159
3.20888
3.18628
3.16379
3.14139
3.11907
3.09684
3.07466
3.05252
3.03039
3.00825
2.98606
2.96379
2.94141
2.91889
2.89623
2.8734
2.85042
2.82731
2.8041
2.78085
2.75766
2.73461
2.71185
2.68953
2.66782
2.64692
2.62703
2.60838
2.5912
2.57569
2.56207
2.55051
2.54116
2.53411
2.5294
2.527
2.5268
2.52862
2.53218
2.53714
2.54311
2.54962
2.55619
2.56234
2.56759
2.57149
2.57367
2.57381
2.57166
2.56709
2.56002
2.55047
2.53853
2.52437
2.50818
2.49021
2.47075
2.45006
2.42846
2.40621
2.3836
2.3609
2.33831
2.31613
2.29396
2.27485
2.2433
4.00585
3.97983
3.95381
3.92782
3.90185
3.87591
3.85001
3.82415
3.79834
3.77259
3.74692
3.72133
3.69585
3.67047
3.6452
3.62007
3.59506
3.57019
3.54546
3.52088
3.49643
3.47213
3.44797
3.42395
3.40008
3.37635
3.35277
3.32933
3.30604
3.2829
3.25992
3.23708
3.2144
3.19186
3.16948
3.14723
3.12511
3.10311
3.08121
3.05939
3.03763
3.0159
2.99416
2.97238
2.95054
2.92861
2.90655
2.88435
2.862
2.8395
2.81688
2.79417
2.77142
2.74872
2.72616
2.70385
2.68196
2.66063
2.64004
2.6204
2.6019
2.58475
2.56915
2.55528
2.54331
2.53337
2.52554
2.51985
2.51628
2.51471
2.51497
2.51682
2.51994
2.52396
2.52846
2.53301
2.53715
2.54045
2.54249
2.54291
2.54142
2.53779
2.53185
2.52354
2.51285
2.49987
2.48471
2.46756
2.44865
2.42822
2.40654
2.38387
2.36047
2.3366
2.31251
2.28837
2.26452
2.24047
2.21961
2.18486
4.00424
3.97802
3.95179
3.92557
3.89935
3.87316
3.84698
3.82083
3.79473
3.76866
3.74266
3.71673
3.69088
3.66513
3.63948
3.61395
3.58854
3.56327
3.53813
3.51314
3.48831
3.46362
3.4391
3.41474
3.39054
3.36652
3.34267
3.319
3.2955
3.27219
3.24906
3.22611
3.20335
3.18077
3.15836
3.13611
3.11403
3.09208
3.07026
3.04853
3.02688
3.00528
2.9837
2.96209
2.94045
2.91872
2.89689
2.87495
2.85287
2.83067
2.80836
2.78597
2.76356
2.74119
2.71896
2.69698
2.67538
2.6543
2.63393
2.61442
2.59597
2.57877
2.563
2.54882
2.5364
2.52583
2.51721
2.51055
2.50582
2.50292
2.5017
2.50191
2.50328
2.50547
2.50808
2.51072
2.51298
2.51445
2.51475
2.51355
2.51055
2.50554
2.49836
2.48892
2.47721
2.46329
2.44726
2.42928
2.40955
2.3883
2.36577
2.3422
2.31784
2.29292
2.26767
2.24226
2.21701
2.19138
2.16906
2.13154
4.0035
3.97719
3.95086
3.92453
3.89821
3.87189
3.84558
3.81929
3.79303
3.7668
3.74063
3.71451
3.68846
3.66249
3.63661
3.61083
3.58517
3.55962
3.53421
3.50894
3.48381
3.45884
3.43403
3.40938
3.38491
3.36062
3.33651
3.31258
3.28885
3.26532
3.24199
3.21885
3.19591
3.17317
3.15062
3.12825
3.10606
3.08402
3.06213
3.04035
3.01866
2.99704
2.97546
2.95388
2.93228
2.91063
2.8889
2.86708
2.84515
2.82312
2.801
2.77882
2.75664
2.73451
2.71251
2.69075
2.66936
2.64846
2.62821
2.60877
2.59031
2.573
2.55702
2.54251
2.5296
2.51841
2.50901
2.5014
2.49556
2.4914
2.48875
2.48743
2.48714
2.48759
2.48843
2.48929
2.48978
2.48954
2.48822
2.4855
2.48111
2.47484
2.46652
2.45606
2.44344
2.42868
2.41189
2.39319
2.37277
2.35083
2.32759
2.30328
2.27812
2.25234
2.22613
2.19967
2.17327
2.14633
2.1228
2.08294
4.00306
3.9767
3.95032
3.92394
3.89756
3.87117
3.8448
3.81843
3.79209
3.76578
3.73951
3.71328
3.68711
3.66101
3.63499
3.60906
3.58322
3.5575
3.5319
3.50643
3.48109
3.4559
3.43087
3.40599
3.38129
3.35676
3.33242
3.30827
3.28431
3.26055
3.237
3.21365
3.1905
3.16756
3.14482
3.12227
3.09991
3.07772
3.05567
3.03376
3.01196
2.99025
2.96859
2.94696
2.92532
2.90366
2.88195
2.86017
2.83831
2.81638
2.79438
2.77234
2.75031
2.72835
2.70652
2.68492
2.66367
2.64289
2.62271
2.60329
2.58478
2.56734
2.55111
2.53625
2.52287
2.51107
2.5009
2.49238
2.48548
2.48011
2.47613
2.47334
2.4715
2.47032
2.46949
2.46867
2.46751
2.46568
2.46285
2.45872
2.45305
2.4456
2.43624
2.42486
2.41142
2.39594
2.37848
2.35918
2.33818
2.31567
2.29185
2.26693
2.24113
2.21464
2.18766
2.16034
2.13301
2.10501
2.08049
2.03869
4.00271
3.97632
3.94992
3.9235
3.89708
3.87066
3.84424
3.81783
3.79144
3.76507
3.73873
3.71244
3.68619
3.66
3.63388
3.60784
3.58189
3.55604
3.5303
3.50467
3.47917
3.45382
3.4286
3.40354
3.37865
3.35392
3.32938
3.30502
3.28085
3.25688
3.23311
3.20955
3.1862
3.16305
3.14011
3.11736
3.0948
3.07242
3.05021
3.02813
3.00619
2.98434
2.96256
2.94083
2.91912
2.89741
2.87567
2.85389
2.83206
2.81018
2.78825
2.76631
2.74439
2.72254
2.70083
2.67936
2.6582
2.63749
2.61735
2.59792
2.57933
2.56173
2.54525
2.53003
2.51618
2.50378
2.49288
2.48349
2.47558
2.46906
2.46381
2.45965
2.45634
2.45364
2.45124
2.44885
2.44615
2.44283
2.43859
2.43315
2.42628
2.41777
2.40746
2.39524
2.38108
2.36496
2.34694
2.32713
2.30566
2.28269
2.25841
2.23301
2.2067
2.17965
2.15206
2.12406
2.09597
2.06711
2.04181
1.99843
4.0024
3.97599
3.94955
3.92311
3.89666
3.87021
3.84376
3.81731
3.79088
3.76447
3.73809
3.71174
3.68543
3.65917
3.63298
3.60685
3.58081
3.55485
3.52899
3.50325
3.47762
3.45212
3.42675
3.40154
3.37647
3.35158
3.32685
3.3023
3.27795
3.25378
3.22982
3.20606
3.1825
3.15915
3.13601
3.11306
3.09031
3.06774
3.04534
3.0231
3.00098
2.97899
2.95708
2.93524
2.91343
2.89165
2.86986
2.84806
2.82622
2.80436
2.78248
2.7606
2.73876
2.71699
2.69538
2.67398
2.6529
2.63223
2.6121
2.59262
2.57393
2.55616
2.53943
2.52385
2.50954
2.49655
2.48495
2.47473
2.46586
2.45826
2.45181
2.44635
2.44167
2.43752
2.43366
2.4298
2.42565
2.42094
2.41539
2.40874
2.40076
2.39126
2.38008
2.36712
2.35231
2.33564
2.31716
2.29693
2.27509
2.25177
2.22715
2.20139
2.17469
2.14721
2.11915
2.09062
2.06196
2.03242
2.0065
1.96186
4.00211
3.97567
3.94922
3.92275
3.89627
3.86979
3.84331
3.81683
3.79037
3.76392
3.73749
3.71109
3.68473
3.65842
3.63216
3.60596
3.57983
3.55378
3.52783
3.50197
3.47623
3.4506
3.42511
3.39975
3.37454
3.34949
3.3246
3.29988
3.27535
3.25101
3.22686
3.20291
3.17916
3.15562
3.13228
3.10915
3.08621
3.06345
3.04087
3.01845
2.99618
2.97403
2.95199
2.93002
2.90812
2.88625
2.86441
2.84256
2.82071
2.79885
2.777
2.75516
2.73337
2.71167
2.69011
2.66877
2.64773
2.62709
2.60694
2.5874
2.5686
2.55064
2.53364
2.51772
2.50295
2.4894
2.47712
2.46611
2.45633
2.44771
2.44014
2.43345
2.42747
2.42198
2.41674
2.4115
2.40601
2.39999
2.39321
2.38542
2.37642
2.366
2.35403
2.34039
2.32502
2.30789
2.28902
2.26849
2.24638
2.22282
2.19796
2.17196
2.14499
2.11722
2.08882
2.0599
2.03079
2.00074
1.97435
1.92872
4.00183
3.97537
3.94889
3.9224
3.8959
3.86939
3.84288
3.81638
3.78988
3.76339
3.73692
3.71048
3.68407
3.6577
3.63138
3.60511
3.57891
3.55278
3.52674
3.50079
3.47494
3.4492
3.42358
3.3981
3.37275
3.34755
3.32252
3.29765
3.27295
3.24844
3.22412
3.19999
3.17607
3.15235
3.12883
3.10551
3.08238
3.05945
3.0367
3.01411
2.99168
2.96939
2.94721
2.92512
2.90312
2.88116
2.85925
2.83736
2.81548
2.79361
2.77177
2.74995
2.72819
2.70653
2.68502
2.66372
2.6427
2.62205
2.60187
2.58226
2.56332
2.54517
2.52791
2.51164
2.49643
2.48234
2.46942
2.45765
2.44701
2.43743
2.42879
2.42096
2.41377
2.40702
2.40049
2.39395
2.38719
2.37995
2.372
2.36314
2.35317
2.3419
2.32919
2.31495
2.29908
2.28157
2.26242
2.24167
2.2194
2.19571
2.17074
2.14462
2.11751
2.08956
2.06094
2.03176
2.00235
1.97193
1.9452
1.89883
4.00156
3.97508
3.94858
3.92207
3.89555
3.86901
3.84247
3.81594
3.78941
3.76288
3.73638
3.70989
3.68344
3.65701
3.63064
3.60431
3.57804
3.55183
3.52571
3.49967
3.47372
3.44788
3.42215
3.39654
3.37107
3.34574
3.32056
3.29555
3.2707
3.24604
3.22155
3.19726
3.17317
3.14928
3.12558
3.10209
3.0788
3.0557
3.03278
3.01003
2.98745
2.96501
2.9427
2.9205
2.89839
2.87635
2.85436
2.83242
2.81051
2.78863
2.76678
2.74497
2.72323
2.7016
2.68011
2.65882
2.63781
2.61714
2.59691
2.5772
2.55813
2.53978
2.52225
2.50564
2.49
2.4754
2.46186
2.44939
2.43794
2.42745
2.41782
2.40892
2.40059
2.39265
2.3849
2.37714
2.36916
2.36075
2.35169
2.3418
2.33089
2.31881
2.30542
2.29062
2.27433
2.25652
2.23718
2.21633
2.19401
2.17032
2.14536
2.11926
2.09214
2.06415
2.03546
2.00616
1.97658
1.94592
1.91898
1.87209
4.00131
3.97481
3.94829
3.92176
3.89521
3.86865
3.84208
3.81552
3.78895
3.7624
3.73585
3.70933
3.68283
3.65636
3.62992
3.60354
3.5772
3.55093
3.52473
3.4986
3.47256
3.44662
3.42079
3.39508
3.36949
3.34404
3.31873
3.29358
3.26859
3.24378
3.21915
3.1947
3.17045
3.1464
3.12254
3.09889
3.07543
3.05217
3.02909
3.0062
2.98347
2.96089
2.93846
2.91614
2.89393
2.8718
2.84975
2.82775
2.8058
2.78389
2.76203
2.74022
2.71849
2.69687
2.67538
2.6541
2.63307
2.61236
2.59207
2.57226
2.55304
2.53449
2.5167
2.49975
2.48371
2.46862
2.45451
2.44137
2.42917
2.41784
2.40728
2.39738
2.38797
2.3789
2.36999
2.36104