/*--------------------------------*- C++ -*----------------------------------*\
| =========                 |                                                 |
| \\      /  F ield         | OpenFOAM: The Open Source CFD Toolbox           |
|  \\    /   O peration     | Version:  2.1.1                                 |
|   \\  /    A nd           | Web:      www.OpenFOAM.org                      |
|    \\/     M anipulation  |                                                 |
\*---------------------------------------------------------------------------*/
FoamFile
{
    version     2.0;
    format      ascii;
    class       volScalarField;
    location    "0.12";
    object      k;
}
// * * * * * * * * * * * * * * * * * * * * * * * * * * * * * * * * * * * * * //

dimensions      [0 2 -2 0 0 0 0];

internalField   nonuniform List<scalar> 
6820
(
0.288909
0.351398
0.415005
0.477466
0.536861
0.59156
0.640378
0.682641
0.718145
0.747062
0.769838
0.78709
0.799517
0.807839
0.812747
0.814874
0.814784
0.812962
0.809821
0.805703
0.800887
0.7956
0.790022
0.784296
0.778529
0.772808
0.767192
0.761738
0.756412
0.751536
0.745645
0.745785
0.717984
0.265532
0.269396
0.270522
0.27134
0.272556
0.274211
0.276218
0.278465
0.280841
0.283259
0.285664
0.288025
0.290333
0.292593
0.294818
0.297028
0.299241
0.301476
0.303749
0.306072
0.308454
0.310901
0.313416
0.315999
0.318651
0.321369
0.324155
0.327014
0.329957
0.333038
0.336277
0.340128
0.344202
0.262038
0.264254
0.263597
0.261558
0.259002
0.25632
0.253628
0.250939
0.248241
0.245526
0.242795
0.240063
0.237347
0.234669
0.232053
0.229519
0.227085
0.224768
0.222579
0.220528
0.218621
0.216861
0.215251
0.213789
0.212473
0.211302
0.21027
0.209374
0.20861
0.207981
0.20747
0.207107
0.206822
0.259885
0.260272
0.259796
0.258535
0.256829
0.254891
0.252834
0.25071
0.248548
0.24636
0.244154
0.241938
0.239717
0.237499
0.235292
0.233103
0.23094
0.22881
0.226719
0.224673
0.222677
0.220735
0.218851
0.217028
0.215266
0.213568
0.211935
0.210365
0.208859
0.207416
0.206034
0.204714
0.203445
0.259299
0.258404
0.2576
0.256567
0.255295
0.25385
0.252292
0.250662
0.248985
0.247279
0.245553
0.243818
0.242078
0.240339
0.238606
0.236883
0.235174
0.233482
0.23181
0.230161
0.228539
0.226945
0.225381
0.223849
0.222351
0.220888
0.21946
0.218069
0.216714
0.215396
0.214115
0.212872
0.211667
0.259224
0.257848
0.256622
0.255437
0.254227
0.25297
0.251663
0.250313
0.24893
0.247524
0.246102
0.244673
0.24324
0.241808
0.240382
0.238963
0.237556
0.236161
0.234781
0.233418
0.232074
0.230749
0.229446
0.228165
0.226907
0.225673
0.224464
0.22328
0.222122
0.220989
0.219884
0.218805
0.217755
0.259217
0.257715
0.256309
0.25498
0.253698
0.252442
0.251196
0.249951
0.248705
0.247456
0.246206
0.244957
0.243712
0.242473
0.241241
0.240018
0.238807
0.237608
0.236422
0.235252
0.234098
0.232961
0.231841
0.230739
0.229656
0.228592
0.227549
0.226525
0.225521
0.224539
0.223577
0.222638
0.221721
0.259218
0.25769
0.256225
0.254822
0.253477
0.252181
0.250924
0.249697
0.248493
0.247307
0.246138
0.244983
0.243842
0.242713
0.241599
0.240498
0.239411
0.238338
0.237281
0.236239
0.235213
0.234203
0.23321
0.232233
0.231274
0.230332
0.229407
0.2285
0.227611
0.22674
0.225887
0.225053
0.224238
0.259218
0.257686
0.256207
0.25478
0.253405
0.25208
0.2508
0.24956
0.248357
0.247186
0.246044
0.244927
0.243833
0.24276
0.241708
0.240676
0.239662
0.238666
0.237688
0.236727
0.235784
0.234859
0.23395
0.233058
0.232184
0.231326
0.230485
0.229661
0.228853
0.228063
0.227289
0.226533
0.225793
0.259218
0.257686
0.256203
0.254769
0.253384
0.252045
0.250751
0.2495
0.248289
0.247115
0.245976
0.244868
0.24379
0.24274
0.241716
0.240716
0.23974
0.238785
0.237852
0.236938
0.236045
0.235171
0.234315
0.233478
0.232658
0.231856
0.231071
0.230303
0.229552
0.228817
0.228099
0.227397
0.226711
0.259218
0.257685
0.256202
0.254767
0.253378
0.252035
0.250735
0.249478
0.24826
0.247081
0.245939
0.244831
0.243756
0.242711
0.241696
0.240709
0.239748
0.238812
0.2379
0.237011
0.236144
0.235298
0.234473
0.233667
0.23288
0.232112
0.231362
0.230629
0.229914
0.229216
0.228534
0.227868
0.227218
0.259218
0.257685
0.256201
0.254766
0.253376
0.252031
0.250729
0.249469
0.248249
0.247067
0.245921
0.244811
0.243735
0.24269
0.241677
0.240693
0.239737
0.238808
0.237904
0.237025
0.23617
0.235338
0.234527
0.233737
0.232968
0.232219
0.231488
0.230776
0.230081
0.229405
0.228745
0.228101
0.227474
0.259218
0.257685
0.256201
0.254765
0.253375
0.25203
0.250727
0.249466
0.248244
0.24706
0.245913
0.244802
0.243724
0.242678
0.241664
0.24068
0.239725
0.238797
0.237896
0.237021
0.23617
0.235343
0.234538
0.233756
0.232994
0.232253
0.231532
0.23083
0.230147
0.229481
0.228833
0.228202
0.227587
0.259218
0.257685
0.256201
0.254764
0.253374
0.252029
0.250726
0.249464
0.248241
0.247057
0.245909
0.244796
0.243718
0.242671
0.241656
0.240672
0.239716
0.238788
0.237887
0.237012
0.236163
0.235337
0.234534
0.233754
0.232996
0.232258
0.231541
0.230843
0.230165
0.229504
0.228862
0.228236
0.227628
0.259218
0.257685
0.2562
0.254764
0.253374
0.252028
0.250724
0.249462
0.248239
0.247055
0.245906
0.244793
0.243714
0.242667
0.241651
0.240666
0.23971
0.238781
0.23788
0.237005
0.236155
0.235329
0.234527
0.233747
0.23299
0.232253
0.231537
0.230841
0.230164
0.229505
0.228865
0.228242
0.227635
0.259218
0.257685
0.2562
0.254764
0.253373
0.252027
0.250723
0.249461
0.248238
0.247053
0.245904
0.24479
0.243711
0.242663
0.241647
0.240661
0.239705
0.238776
0.237874
0.236999
0.236148
0.235322
0.23452
0.23374
0.232982
0.232246
0.23153
0.230834
0.230157
0.229499
0.228858
0.228236
0.22763
0.259218
0.257685
0.2562
0.254763
0.253373
0.252026
0.250722
0.24946
0.248236
0.247051
0.245902
0.244788
0.243708
0.24266
0.241644
0.240658
0.2397
0.238771
0.237869
0.236993
0.236143
0.235316
0.234513
0.233733
0.232975
0.232238
0.231522
0.230825
0.230148
0.22949
0.228849
0.228226
0.22762
0.259218
0.257684
0.2562
0.254763
0.253372
0.252026
0.250722
0.249459
0.248235
0.247049
0.2459
0.244786
0.243705
0.242657
0.241641
0.240654
0.239697
0.238767
0.237865
0.236988
0.236137
0.235311
0.234507
0.233727
0.232968
0.232231
0.231514
0.230817
0.23014
0.229481
0.22884
0.228216
0.22761
0.259218
0.257684
0.2562
0.254763
0.253372
0.252025
0.250721
0.249458
0.248234
0.247048
0.245899
0.244784
0.243703
0.242655
0.241638
0.240651
0.239693
0.238763
0.237861
0.236984
0.236132
0.235305
0.234502
0.233721
0.232962
0.232224
0.231507
0.230809
0.230131
0.229472
0.228831
0.228207
0.2276
0.259218
0.257684
0.2562
0.254762
0.253371
0.252025
0.25072
0.249457
0.248233
0.247047
0.245897
0.244782
0.243701
0.242653
0.241635
0.240648
0.23969
0.23876
0.237857
0.23698
0.236128
0.2353
0.234496
0.233715
0.232956
0.232217
0.2315
0.230802
0.230123
0.229464
0.228822
0.228197
0.22759
0.259218
0.257684
0.256199
0.254762
0.253371
0.252024
0.25072
0.249456
0.248232
0.247046
0.245896
0.244781
0.2437
0.242651
0.241633
0.240646
0.239687
0.238757
0.237853
0.236976
0.236124
0.235296
0.234491
0.23371
0.23295
0.232211
0.231493
0.230795
0.230116
0.229456
0.228813
0.228188
0.22758
0.259218
0.257684
0.256199
0.254762
0.253371
0.252024
0.250719
0.249456
0.248231
0.247045
0.245895
0.244779
0.243698
0.242649
0.241631
0.240643
0.239685
0.238754
0.23785
0.236972
0.23612
0.235292
0.234487
0.233705
0.232945
0.232206
0.231487
0.230788
0.230109
0.229448
0.228805
0.22818
0.227571
0.259218
0.257684
0.256199
0.254762
0.253371
0.252024
0.250719
0.249455
0.248231
0.247044
0.245894
0.244778
0.243697
0.242647
0.241629
0.240641
0.239682
0.238751
0.237847
0.236969
0.236116
0.235288
0.234483
0.2337
0.232939
0.2322
0.231481
0.230782
0.230102
0.229441
0.228798
0.228172
0.227562
0.259218
0.257684
0.256199
0.254762
0.253371
0.252023
0.250719
0.249455
0.24823
0.247043
0.245893
0.244777
0.243695
0.242646
0.241627
0.240639
0.23968
0.238749
0.237844
0.236966
0.236113
0.235284
0.234479
0.233696
0.232935
0.232195
0.231476
0.230776
0.230096
0.229434
0.22879
0.228164
0.227554
0.259218
0.257684
0.256199
0.254762
0.25337
0.252023
0.250718
0.249454
0.24823
0.247043
0.245892
0.244776
0.243694
0.242644
0.241626
0.240637
0.239678
0.238746
0.237842
0.236963
0.23611
0.235281
0.234475
0.233692
0.23293
0.23219
0.231471
0.230771
0.23009
0.229428
0.228784
0.228157
0.227547
0.259218
0.257684
0.256199
0.254762
0.25337
0.252023
0.250718
0.249454
0.248229
0.247042
0.245891
0.244775
0.243693
0.242643
0.241625
0.240636
0.239676
0.238744
0.23784
0.236961
0.236107
0.235278
0.234471
0.233688
0.232926
0.232186
0.231466
0.230766
0.230084
0.229422
0.228777
0.22815
0.227539
0.259218
0.257684
0.256199
0.254762
0.25337
0.252023
0.250718
0.249454
0.248229
0.247042
0.245891
0.244775
0.243692
0.242642
0.241623
0.240634
0.239674
0.238742
0.237837
0.236958
0.236104
0.235275
0.234468
0.233685
0.232923
0.232182
0.231461
0.230761
0.230079
0.229416
0.228771
0.228144
0.227533
0.259218
0.257684
0.256199
0.254762
0.25337
0.252023
0.250718
0.249454
0.248229
0.247041
0.24589
0.244774
0.243692
0.242641
0.241622
0.240633
0.239673
0.238741
0.237836
0.236957
0.236102
0.235272
0.234466
0.233682
0.232919
0.232178
0.231458
0.230757
0.230075
0.229412
0.228766
0.228138
0.227527
0.259218
0.257684
0.256199
0.254762
0.25337
0.252023
0.250718
0.249453
0.248228
0.247041
0.24589
0.244773
0.243691
0.24264
0.241621
0.240632
0.239672
0.23874
0.237834
0.236955
0.2361
0.23527
0.234463
0.233679
0.232916
0.232175
0.231454
0.230753
0.230071
0.229407
0.228761
0.228133
0.227521
0.259218
0.257684
0.256199
0.254762
0.25337
0.252023
0.250718
0.249454
0.248229
0.247041
0.24589
0.244774
0.243691
0.242641
0.241622
0.240632
0.239672
0.238739
0.237834
0.236954
0.2361
0.235269
0.234462
0.233678
0.232915
0.232173
0.231452
0.23075
0.230068
0.229404
0.228758
0.228129
0.227517
0.259218
0.257684
0.256199
0.254762
0.25337
0.252023
0.250718
0.249453
0.248228
0.247041
0.24589
0.244773
0.243691
0.24264
0.241621
0.240632
0.239671
0.238739
0.237833
0.236953
0.236099
0.235268
0.234461
0.233676
0.232913
0.232172
0.23145
0.230749
0.230066
0.229402
0.228755
0.228126
0.227514
0.259218
0.257684
0.256199
0.254762
0.253371
0.252024
0.25072
0.249456
0.248231
0.247044
0.245893
0.244777
0.243694
0.242644
0.241625
0.240635
0.239675
0.238742
0.237836
0.236956
0.236102
0.235271
0.234463
0.233678
0.232915
0.232173
0.231451
0.230749
0.230066
0.229402
0.228755
0.228126
0.227513
0.259218
0.257685
0.2562
0.254764
0.253373
0.252026
0.250721
0.249457
0.248232
0.247045
0.245895
0.244779
0.243696
0.242646
0.241627
0.240638
0.239678
0.238745
0.237839
0.23696
0.236105
0.235274
0.234466
0.233681
0.232917
0.232175
0.231453
0.23075
0.230066
0.229401
0.228753
0.228123
0.227509
0.259218
0.257685
0.256201
0.254766
0.253378
0.252033
0.250731
0.249469
0.248246
0.24706
0.24591
0.244794
0.243712
0.242662
0.241643
0.240653
0.239692
0.238759
0.237852
0.236971
0.236114
0.235282
0.234473
0.233685
0.23292
0.232175
0.23145
0.230744
0.230058
0.229389
0.228738
0.228104
0.227486
0.259219
0.257689
0.25621
0.254777
0.25339
0.252046
0.250744
0.249482
0.248259
0.247074
0.245924
0.244808
0.243726
0.242675
0.241654
0.240663
0.2397
0.238763
0.237853
0.236967
0.236106
0.235268
0.234452
0.233659
0.232885
0.232133
0.231399
0.230685
0.229989
0.229311
0.22865
0.228005
0.227377
0.25922
0.257694
0.256221
0.254799
0.253423
0.252089
0.250795
0.249538
0.248318
0.247131
0.245978
0.244857
0.243766
0.242705
0.241673
0.240668
0.239689
0.238737
0.237808
0.236904
0.236023
0.235164
0.234326
0.23351
0.232714
0.231937
0.23118
0.230441
0.229719
0.229016
0.228329
0.227659
0.227004
0.259229
0.257738
0.256292
0.254882
0.253509
0.252172
0.250871
0.249604
0.248368
0.247162
0.245985
0.244836
0.243715
0.24262
0.24155
0.240506
0.239487
0.238491
0.237519
0.23657
0.235643
0.234738
0.233853
0.232989
0.232146
0.231322
0.230516
0.22973
0.228961
0.22821
0.227476
0.226759
0.226058
0.259265
0.257822
0.256453
0.255125
0.253804
0.252482
0.251163
0.249853
0.24856
0.247288
0.246043
0.244825
0.243636
0.242476
0.241346
0.240243
0.239169
0.238121
0.237099
0.236103
0.23513
0.234181
0.233255
0.232351
0.231468
0.230605
0.229763
0.22894
0.228136
0.227351
0.226584
0.225835
0.225102
0.259599
0.258632
0.257578
0.256542
0.255588
0.254714
0.253906
0.253152
0.252446
0.251786
0.251169
0.250596
0.250066
0.249577
0.24913
0.248722
0.248352
0.248018
0.247719
0.247453
0.247217
0.247012
0.246833
0.246681
0.246554
0.24645
0.246367
0.246305
0.246262
0.246237
0.246229
0.246238
0.246261
0.266719
0.28057
0.294241
0.307622
0.320668
0.333362
0.345692
0.357648
0.369223
0.380411
0.391208
0.401615
0.411632
0.421263
0.430511
0.439384
0.447887
0.456028
0.463818
0.471264
0.478378
0.485168
0.491647
0.497824
0.50371
0.509317
0.514655
0.519734
0.524565
0.529158
0.533525
0.537672
0.541615
0.844197
1.01313
1.18987
1.37641
1.56771
1.75115
1.91318
2.04395
2.14
2.20387
2.242
2.26211
2.2712
2.27439
2.27472
2.27366
2.27178
2.26931
2.26651
2.26379
2.26159
2.26034
2.26028
2.26145
2.26367
2.26658
2.26968
2.27238
2.27404
2.274
2.27164
2.26636
2.25763
2.245
2.2281
2.20669
2.18062
2.14989
2.11461
2.07503
2.03151
1.98454
1.93468
1.88256
1.82886
1.77422
1.71925
1.66448
1.61032
1.55703
1.50468
1.45317
1.40221
1.35134
1.29993
1.24725
1.19251
1.13492
1.07379
1.0086
0.939108
0.865468
0.78831
0.708846
0.628918
0.55096
0.477815
0.412347
0.356873
0.312597
0.279351
0.255825
0.240122
0.230306
0.224714
0.222046
0.221336
0.22189
0.223222
0.225001
0.227006
0.229105
0.23122
0.233322
0.235409
0.237498
0.239616
0.241794
0.244057
0.246418
0.248878
0.25142
0.254012
0.256604
0.25914
0.261555
0.26379
0.26579
0.267466
0.269275
0.352373
0.365382
0.38554
0.416231
0.461092
0.5233
0.604851
0.705737
0.823435
0.95292
1.08725
1.2187
1.34008
1.44599
1.53356
1.60249
1.65451
1.69256
1.71991
1.73953
1.75378
1.7643
1.77215
1.77793
1.78191
1.78421
1.7848
1.78359
1.78038
1.77494
1.767
1.75624
1.74239
1.72519
1.70444
1.68003
1.65193
1.62023
1.58514
1.54696
1.5061
1.46306
1.41842
1.37278
1.32676
1.28093
1.23581
1.19182
1.14927
1.10829
1.06888
1.03087
0.993918
0.957551
0.921177
0.884123
0.84569
0.805221
0.76217
0.716191
0.667226
0.615587
0.562025
0.507757
0.454425
0.403945
0.358242
0.318886
0.286769
0.261953
0.243795
0.231236
0.223113
0.218345
0.216029
0.215439
0.216018
0.217346
0.219121
0.221126
0.223221
0.225315
0.227364
0.229351
0.231285
0.233189
0.235094
0.237035
0.239042
0.241136
0.243329
0.245613
0.247965
0.250349
0.252715
0.255005
0.257162
0.259134
0.260814
0.262734
0.206391
0.206093
0.20644
0.207861
0.210711
0.215549
0.223257
0.234978
0.252067
0.276
0.308194
0.349731
0.401035
0.461611
0.529936
0.603568
0.679449
0.754346
0.825306
0.890022
0.947026
0.995701
1.03613
1.0689
1.09482
1.11476
1.12954
1.13978
1.14597
1.14843
1.14736
1.14287
1.13503
1.1239
1.10954
1.09206
1.07162
1.04846
1.02286
0.995203
0.965903
0.93544
0.904314
0.873031
0.842073
0.811873
0.782789
0.755087
0.72892
0.704329
0.681232
0.659429
0.638614
0.618386
0.598271
0.577756
0.556323
0.533509
0.508954
0.482475
0.454119
0.424215
0.393391
0.362548
0.332768
0.305172
0.280728
0.260092
0.243515
0.230873
0.22177
0.215667
0.211995
0.210213
0.209845
0.21049
0.211821
0.213582
0.215579
0.217672
0.219765
0.2218
0.223748
0.225604
0.227379
0.229099
0.230795
0.232505
0.234261
0.236092
0.238013
0.240029
0.242127
0.244279
0.246446
0.248578
0.250619
0.252525
0.254175
0.256154
0.202041
0.200551
0.199164
0.197881
0.196743
0.195779
0.195078
0.194768
0.195019
0.196053
0.198146
0.201631
0.20689
0.214342
0.224414
0.237489
0.253848
0.273593
0.296588
0.32243
0.350458
0.379817
0.409545
0.438677
0.466333
0.491785
0.514487
0.534082
0.550376
0.563312
0.572929
0.579333
0.582677
0.583142
0.580934
0.576278
0.569425
0.560647
0.550244
0.538534
0.525853
0.512539
0.498929
0.485336
0.47204
0.459275
0.44722
0.435989
0.425635
0.416141
0.407431
0.399368
0.391763
0.384377
0.376939
0.369153
0.360727
0.351398
0.34097
0.329349
0.316577
0.302857
0.288544
0.274126
0.260159
0.247195
0.235696
0.225981
0.218201
0.212348
0.208291
0.205819
0.204681
0.204611
0.20536
0.206698
0.208429
0.210394
0.212466
0.21455
0.216582
0.21852
0.220347
0.222061
0.223675
0.225215
0.226712
0.228202
0.229718
0.231292
0.232947
0.234692
0.236526
0.238431
0.240376
0.242319
0.244214
0.246017
0.247602
0.249586
0.210315
0.20882
0.207351
0.205897
0.204459
0.203049
0.201681
0.200374
0.199151
0.198048
0.197107
0.196383
0.195938
0.195843
0.196176
0.197021
0.19846
0.200573
0.20343
0.207082
0.211554
0.216835
0.222873
0.22957
0.236783
0.244333
0.25201
0.259595
0.266867
0.273627
0.2797
0.284953
0.289291
0.292664
0.295061
0.296508
0.297062
0.296807
0.295846
0.294297
0.292284
0.289935
0.287372
0.28471
0.282048
0.279468
0.277034
0.274786
0.272744
0.270905
0.269245
0.267717
0.266254
0.264765
0.263144
0.261268
0.259009
0.256245
0.252879
0.248854
0.244175
0.23892
0.233242
0.227359
0.221534
0.216038
0.211119
0.206974
0.203728
0.201433
0.200072
0.199571
0.19982
0.200685
0.202026
0.20371
0.205614
0.207633
0.209682
0.211694
0.213623
0.21544
0.217131
0.218698
0.220154
0.221522
0.22283
0.224112
0.225403
0.226733
0.22813
0.229609
0.231177
0.232824
0.234531
0.236263
0.237981
0.239649
0.241136
0.243072
0.216566
0.215219
0.213872
0.21253
0.211191
0.209856
0.208526
0.207205
0.2059
0.204621
0.203379
0.202189
0.201067
0.200032
0.199106
0.198311
0.197669
0.197202
0.19693
0.19687
0.197033
0.197427
0.198053
0.198904
0.199965
0.201214
0.202619
0.204143
0.205742
0.207371
0.208982
0.210533
0.211984
0.213302
0.214462
0.215451
0.216261
0.216894
0.21736
0.217673
0.217853
0.217922
0.217905
0.217824
0.217701
0.217556
0.217406
0.217261
0.21713
0.217014
0.216909
0.216803
0.216677
0.216506
0.216253
0.215876
0.215326
0.214554
0.213518
0.212186
0.210553
0.208643
0.206515
0.204263
0.202008
0.199883
0.198023
0.196543
0.195528
0.195027
0.195049
0.195567
0.196526
0.197854
0.199467
0.201279
0.203211
0.205189
0.207153
0.209053
0.210854
0.212533
0.214082
0.215501
0.216802
0.218005
0.219136
0.220225
0.221306
0.222408
0.22356
0.224783
0.226088
0.227476
0.228934
0.230438
0.231956
0.23346
0.23482
0.236656
0.220679
0.219496
0.218307
0.217111
0.215907
0.214695
0.213477
0.212257
0.211039
0.209825
0.208622
0.207435
0.206269
0.205134
0.204035
0.202983
0.201987
0.201055
0.200197
0.199421
0.198734
0.198141
0.197646
0.197251
0.196954
0.196754
0.196643
0.196614
0.196657
0.196761
0.196913
0.197101
0.197311
0.197532
0.197753
0.197966
0.198163
0.198339
0.198491
0.198618
0.198718
0.198793
0.198845
0.198875
0.198886
0.198879
0.198857
0.19882
0.198769
0.198705
0.198626
0.198529
0.19841
0.198263
0.198078
0.197845
0.197548
0.197173
0.196708
0.196142
0.195477
0.194725
0.193913
0.193085
0.192299
0.191623
0.191126
0.190871
0.190906
0.191261
0.191944
0.192941
0.194218
0.195729
0.19742
0.19923
0.201102
0.202982
0.204824
0.206588
0.208247
0.209783
0.211186
0.212458
0.213609
0.214656
0.215621
0.216531
0.217417
0.218309
0.219233
0.220213
0.221265
0.222396
0.223602
0.224868
0.226169
0.227484
0.228691
0.23038
0.22331
0.222254
0.221187
0.220109
0.219022
0.217928
0.216826
0.215718
0.214607
0.213494
0.212383
0.211275
0.210176
0.209088
0.208016
0.206963
0.205934
0.204935
0.203969
0.203041
0.202156
0.201318
0.20053
0.199796
0.199116
0.198493
0.197925
0.197412
0.196953
0.196543
0.19618
0.19586
0.195577
0.195327
0.195105
0.194906
0.194726
0.19456
0.194405
0.194257
0.194111
0.193966
0.193818
0.193665
0.193502
0.193329
0.193143
0.192941
0.192722
0.192486
0.192231
0.191958
0.191667
0.191358
0.191033
0.190691
0.190334
0.189962
0.189578
0.189185
0.18879
0.188407
0.188054
0.187758
0.187548
0.187463
0.187538
0.187806
0.188293
0.189013
0.189967
0.191143
0.192516
0.194051
0.195707
0.19744
0.199203
0.200954
0.202655
0.204273
0.205784
0.207173
0.208432
0.20956
0.210567
0.211466
0.212276
0.213022
0.213729
0.214427
0.21514
0.215894
0.216707
0.217591
0.218548
0.219571
0.220645
0.221753
0.222787
0.224285
0.22495
0.22399
0.223021
0.222041
0.221052
0.220054
0.219046
0.218032
0.217012
0.215989
0.214964
0.213939
0.212917
0.2119
0.21089
0.20989
0.208902
0.207929
0.206973
0.206038
0.205125
0.204239
0.203381
0.202554
0.20176
0.201001
0.200278
0.199592
0.198944
0.198334
0.19776
0.197222
0.196718
0.196247
0.195805
0.195391
0.195001
0.194633
0.194282
0.193946
0.193622
0.193304
0.19299
0.192675
0.192356
0.192029
0.191691
0.191338
0.190969
0.190583
0.19018
0.189759
0.189324
0.188877
0.188423
0.187966
0.187514
0.187074
0.186654
0.186265
0.185919
0.185629
0.185412
0.185288
0.185278
0.185402
0.185683
0.186139
0.18678
0.187613
0.188633
0.189828
0.191177
0.192649
0.194211
0.195826
0.197456
0.199063
0.200615
0.202084
0.203448
0.204692
0.20581
0.2068
0.207669
0.208428
0.209095
0.209688
0.210233
0.210754
0.211275
0.211821
0.212411
0.21306
0.213777
0.21456
0.215401
0.216292
0.217138
0.218408
0.22593
0.22504
0.224142
0.223234
0.222318
0.221393
0.22046
0.21952
0.218575
0.217625
0.216672
0.215719
0.214765
0.213814
0.212865
0.211923
0.210987
0.210059
0.209142
0.208236
0.207345
0.206469
0.20561
0.204771
0.203953
0.203158
0.202386
0.201641
0.200922
0.200231
0.199567
0.198931
0.198323
0.197742
0.197186
0.196655
0.196147
0.195659
0.195189
0.194734
0.194291
0.193857
0.193427
0.192997
0.192565
0.192127
0.191678
0.191217
0.190741
0.19025
0.189743
0.189221
0.188686
0.188144
0.187599
0.187059
0.186531
0.186026
0.185554
0.185129
0.184764
0.184474
0.184274
0.184181
0.184212
0.184381
0.184703
0.185188
0.185842
0.186665
0.187651
0.188785
0.190049
0.191415
0.192855
0.194334
0.195819
0.197279
0.198682
0.200004
0.201224
0.20233
0.203312
0.204171
0.204909
0.205538
0.20607
0.206524
0.20692
0.20728
0.207627
0.207984
0.208369
0.208801
0.20929
0.209841
0.210452
0.211119
0.211769
0.212782
0.226479
0.225638
0.224789
0.223933
0.22307
0.222199
0.221321
0.220437
0.219548
0.218654
0.217758
0.216859
0.21596
0.215061
0.214165
0.213271
0.212382
0.211497
0.21062
0.20975
0.208889
0.208039
0.2072
0.206374
0.205562
0.204766
0.203987
0.203226
0.202484
0.201762
0.201062
0.200382
0.199724
0.199088
0.198473
0.197877
0.197301
0.196742
0.196198
0.195668
0.195148
0.194636
0.194128
0.19362
0.19311
0.192595
0.19207
0.191535
0.190986
0.190423
0.189847
0.189258
0.188659
0.188055
0.187451
0.186854
0.186274
0.18572
0.185205
0.184741
0.184343
0.184025
0.183801
0.183687
0.183697
0.183844
0.184137
0.184584
0.185188
0.185946
0.186851
0.187888
0.189041
0.190283
0.191589
0.192927
0.194268
0.195581
0.19684
0.198021
0.199104
0.200077
0.200931
0.201665
0.202281
0.202787
0.203196
0.203522
0.203782
0.203997
0.204188
0.204373
0.204573
0.204805
0.205083
0.205414
0.205802
0.206248
0.206699
0.207434
0.226761
0.225951
0.225135
0.224313
0.223485
0.222651
0.221812
0.220967
0.220117
0.219264
0.218408
0.217551
0.216692
0.215833
0.214976
0.21412
0.213267
0.212418
0.211574
0.210735
0.209902
0.209077
0.20826
0.207452
0.206655
0.205869
0.205096
0.204336
0.20359
0.20286
0.202145
0.201447
0.200766
0.200102
0.199454
0.198823
0.198207
0.197605
0.197016
0.196438
0.195868
0.195304
0.194743
0.194183
0.193621
0.193053
0.192477
0.191891
0.191293
0.190684
0.190062
0.18943
0.18879
0.188146
0.187505
0.186873
0.186258
0.185671
0.185124
0.184629
0.184198
0.183847
0.18359
0.183439
0.183408
0.183508
0.183746
0.18413
0.184659
0.185331
0.186138
0.187067
0.188099
0.189214
0.190384
0.191584
0.192784
0.193957
0.195078
0.196124
0.197078
0.197926
0.198659
0.199276
0.199778
0.200171
0.200465
0.200673
0.200811
0.200895
0.200945
0.200977
0.201011
0.201063
0.201148
0.201275
0.201453
0.201684
0.201938
0.202386
0.226889
0.226097
0.225301
0.2245
0.223694
0.222883
0.222068
0.221248
0.220425
0.219599
0.218771
0.217941
0.21711
0.216279
0.215449
0.21462
0.213794
0.21297
0.21215
0.211334
0.210524
0.209719
0.20892
0.208129
0.207345
0.206571
0.205806
0.205051
0.204308
0.203577
0.202858
0.202152
0.20146
0.200781
0.200116
0.199464
0.198824
0.198195
0.197577
0.196968
0.196366
0.195768
0.195173
0.194577
0.193979
0.193376
0.192766
0.192146
0.191517
0.190877
0.190226
0.189567
0.188902
0.188234
0.18757
0.186916
0.18628
0.185672
0.185102
0.184583
0.184127
0.183747
0.183456
0.183266
0.18319
0.183237
0.183415
0.183728
0.184177
0.184759
0.185465
0.186283
0.187197
0.188185
0.189225
0.190291
0.191357
0.192397
0.193387
0.194307
0.195138
0.195869
0.19649
0.196998
0.197393
0.197681
0.19787
0.197971
0.197998
0.197965
0.197888
0.197785
0.197671
0.197562
0.197473
0.197415
0.197397
0.197425
0.197492
0.197649
0.226937
0.226154
0.225368
0.224578
0.223784
0.222987
0.222186
0.221381
0.220574
0.219764
0.218953
0.21814
0.217326
0.216513
0.2157
0.214889
0.21408
0.213273
0.212469
0.211669
0.210873
0.210081
0.209295
0.208515
0.207742
0.206976
0.206218
0.205468
0.204728
0.203998
0.203278
0.202568
0.20187
0.201183
0.200506
0.199841
0.199186
0.198541
0.197904
0.197274
0.19665
0.196029
0.195411
0.194791
0.19417
0.193543
0.192911
0.19227
0.19162
0.190961
0.190293
0.189617
0.188937
0.188256
0.187579
0.186913
0.186265
0.185643
0.185059
0.184523
0.184046
0.183642
0.183321
0.183096
0.182977
0.182973
0.183091
0.183335
0.183705
0.184198
0.184806
0.185518
0.186318
0.187186
0.188102
0.189041
0.18998
0.190894
0.191761
0.192562
0.193279
0.193899
0.194415
0.194822
0.195119
0.195311
0.195403
0.195407
0.195333
0.195195
0.195007
0.194783
0.194539
0.194288
0.194044
0.19382
0.193626
0.193466
0.193358
0.193232
0.226948
0.226169
0.225387
0.224602
0.223814
0.223023
0.222229
0.221432
0.220633
0.219832
0.21903
0.218227
0.217423
0.216619
0.215817
0.215015
0.214215
0.213417
0.212622
0.211831
0.211043
0.210259
0.20948
0.208707
0.207939
0.207178
0.206423
0.205676
0.204937
0.204206
0.203485
0.202772
0.202069
0.201376
0.200692
0.200017
0.199352
0.198694
0.198044
0.1974
0.19676
0.196124
0.195489
0.194854
0.194216
0.193575
0.192927
0.192272
0.19161
0.19094
0.190262
0.189578
0.18889
0.188202
0.187519
0.186847
0.186192
0.185563
0.18497
0.184421
0.183929
0.183504
0.183158
0.182901
0.182743
0.182692
0.182755
0.182934
0.183229
0.183638
0.184154
0.184765
0.185457
0.186212
0.18701
0.18783
0.188649
0.189445
0.190196
0.190884
0.191494
0.192011
0.192429
0.192742
0.192948
0.193051
0.193056
0.192972
0.192808
0.192576
0.192289
0.19196
0.191601
0.191226
0.190848
0.190476
0.190125
0.189794
0.189527
0.189132
0.226943
0.226166
0.225385
0.224602
0.223816
0.223027
0.222236
0.221443
0.220648
0.219851
0.219052
0.218253
0.217454
0.216654
0.215856
0.215058
0.214262
0.213469
0.212677
0.211889
0.211104
0.210324
0.209547
0.208775
0.208009
0.207249
0.206494
0.205747
0.205006
0.204274
0.203549
0.202832
0.202125
0.201425
0.200734
0.200052
0.199377
0.19871
0.19805
0.197395
0.196744
0.196096
0.19545
0.194803
0.194154
0.193502
0.192845
0.192181
0.191511
0.190834
0.190151
0.189463
0.188773
0.188083
0.187398
0.186723
0.186066
0.185433
0.184834
0.184277
0.183773
0.183331
0.182963
0.182678
0.182485
0.18239
0.182401
0.182519
0.182745
0.183076
0.183504
0.184021
0.184611
0.18526
0.185948
0.186655
0.187361
0.188044
0.188686
0.189269
0.189777
0.190199
0.190525
0.19075
0.190873
0.190895
0.190821
0.190657
0.190413
0.190099
0.189725
0.189303
0.188846
0.188363
0.187867
0.187368
0.186879
0.186396
0.185986
0.185343
0.226933
0.226156
0.225375
0.224592
0.223807
0.223018
0.222228
0.221435
0.220641
0.219845
0.219048
0.21825
0.217452
0.216653
0.215855
0.215059
0.214263
0.21347
0.212679
0.21189
0.211105
0.210323
0.209546
0.208773
0.208004
0.207242
0.206485
0.205734
0.20499
0.204254
0.203524
0.202802
0.202089
0.201383
0.200685
0.199995
0.199312
0.198636
0.197967
0.197302
0.196642
0.195985
0.195329
0.194674
0.194017
0.193357
0.192693
0.192024
0.19135
0.190669
0.189984
0.189295
0.188603
0.187914
0.187229
0.186555
0.185897
0.185263
0.18466
0.184097
0.183583
0.183128
0.18274
0.182429
0.182203
0.182069
0.182032
0.182094
0.182255
0.182512
0.182859
0.183286
0.183781
0.184329
0.184912
0.185513
0.186112
0.186689
0.187228
0.18771
0.188123
0.188454
0.188694
0.188839
0.188885
0.188833
0.188687
0.188453
0.188138
0.187752
0.187303
0.186802
0.186258
0.185683
0.185087
0.184478
0.183869
0.183255
0.18272
0.181851
0.226922
0.226144
0.225363
0.224579
0.223793
0.223005
0.222214
0.221421
0.220626
0.21983
0.219032
0.218233
0.217434
0.216635
0.215836
0.215038
0.214241
0.213446
0.212653
0.211862
0.211074
0.210289
0.209509
0.208732
0.20796
0.207193
0.206431
0.205676
0.204927
0.204184
0.203449
0.202721
0.202
0.201287
0.200582
0.199883
0.199193
0.198508
0.19783
0.197157
0.196488
0.195823
0.195159
0.194496
0.193833
0.193167
0.192498
0.191825
0.191148
0.190465
0.189779
0.18909
0.1884
0.187712
0.187029
0.186356
0.185699
0.185065
0.184459
0.183891
0.183368
0.1829
0.182495
0.182161
0.181905
0.181734
0.181651
0.18166
0.18176
0.181948
0.182218
0.182561
0.182966
0.183418
0.183902
0.184402
0.184898
0.185375
0.185815
0.186203
0.186525
0.18677
0.18693
0.186999
0.186975
0.186857
0.186647
0.186351
0.185975
0.185526
0.185013
0.184444
0.183828
0.183175
0.182494
0.181791
0.181081
0.180353
0.179711
0.178643
0.226911
0.226132
0.225351
0.224566
0.223779
0.22299
0.222198
0.221404
0.220608
0.219811
0.219012
0.218212
0.217412
0.216611
0.21581
0.21501
0.21421
0.213412
0.212615
0.211821
0.211029
0.210241
0.209455
0.208674
0.207897
0.207124
0.206357
0.205596
0.20484
0.204091
0.203348
0.202613
0.201885
0.201164
0.20045
0.199744
0.199045
0.198352
0.197665
0.196984
0.196307
0.195634
0.194963
0.194293
0.193624
0.192953
0.192279
0.191603
0.190923
0.19024
0.189554
0.188865
0.188177
0.18749
0.186809
0.186138
0.185483
0.184848
0.18424
0.183667
0.183137
0.182657
0.182235
0.181878
0.181594
0.181388
0.181263
0.181222
0.181264
0.181386
0.181583
0.181846
0.182164
0.182525
0.182915
0.183317
0.183716
0.184095
0.184441
0.184738
0.184974
0.185138
0.185223
0.185223
0.185135
0.184957
0.184692
0.184342
0.183914
0.183413
0.182846
0.182221
0.181545
0.180827
0.180074
0.179293
0.178498
0.177673
0.17694
0.175698
0.226901
0.226121
0.225338
0.224553
0.223765
0.222975
0.222182
0.221387
0.22059
0.219791
0.218991
0.218189
0.217387
0.216584
0.215781
0.214978
0.214176
0.213374
0.212574
0.211776
0.21098
0.210186
0.209396
0.208609
0.207827
0.207048
0.206275
0.205507
0.204744
0.203988
0.203238
0.202495
0.201759
0.20103
0.200308
0.199593
0.198885
0.198184
0.197489
0.1968
0.196115
0.195434
0.194756
0.19408
0.193404
0.192728
0.192051
0.191372
0.19069
0.190006
0.189319
0.188631
0.187944
0.187259
0.18658
0.185911
0.185256
0.18462
0.18401
0.183433
0.182894
0.182403
0.181965
0.181587
0.181275
0.181035
0.18087
0.180781
0.180767
0.180826
0.180953
0.181138
0.181374
0.181647