/*--------------------------------*- C++ -*----------------------------------*\
| =========                 |                                                 |
| \\      /  F ield         | OpenFOAM: The Open Source CFD Toolbox           |
|  \\    /   O peration     | Version:  2.1.1                                 |
|   \\  /    A nd           | Web:      www.OpenFOAM.org                      |
|    \\/     M anipulation  |                                                 |
\*---------------------------------------------------------------------------*/
FoamFile
{
    version     2.0;
    format      ascii;
    class       volScalarField;
    location    "0.12";
    object      nut;
}
// * * * * * * * * * * * * * * * * * * * * * * * * * * * * * * * * * * * * * //

dimensions      [0 2 -1 0 0 0 0];

internalField   nonuniform List<scalar> 
6820
(
4.96025e-05
5.47044e-05
5.94497e-05
6.37668e-05
6.76167e-05
7.09778e-05
7.38484e-05
7.62464e-05
7.8204e-05
7.97629e-05
8.09697e-05
8.18719e-05
8.25157e-05
8.29441e-05
8.31956e-05
8.33044e-05
8.32998e-05
8.32066e-05
8.30457e-05
8.28343e-05
8.25864e-05
8.23133e-05
8.20243e-05
8.17264e-05
8.14254e-05
8.11257e-05
8.08304e-05
8.05425e-05
8.02605e-05
8.00014e-05
7.96872e-05
7.96947e-05
7.8195e-05
0.000540295
0.000304976
0.000219966
0.000171566
0.000140529
0.000119667
0.000105142
9.47588e-05
8.71946e-05
8.16131e-05
7.74641e-05
7.4374e-05
7.2082e-05
7.04023e-05
6.91994e-05
6.83729e-05
6.78473e-05
6.75648e-05
6.74808e-05
6.756e-05
6.77744e-05
6.81012e-05
6.8522e-05
6.90213e-05
6.95861e-05
7.02054e-05
7.08695e-05
7.15694e-05
7.22977e-05
7.30424e-05
7.37999e-05
7.45405e-05
7.51875e-05
0.00105857
0.000836084
0.000679233
0.000569608
0.000490046
0.000430109
0.000383695
0.000346849
0.00031695
0.000292236
0.000271492
0.000253856
0.0002387
0.000225558
0.000214072
0.000203968
0.000195027
0.000187077
0.000179976
0.00017361
0.000167884
0.000162719
0.000158047
0.000153813
0.000149968
0.000146471
0.000143286
0.000140383
0.000137734
0.00013532
0.000133105
0.000131129
0.000129109
0.00115953
0.00109653
0.00101166
0.000926408
0.000849798
0.000783604
0.000727045
0.00067871
0.000637185
0.000601246
0.000569891
0.000542316
0.000517881
0.000496079
0.0004765
0.000458817
0.000442764
0.000428122
0.000414713
0.000402384
0.00039101
0.000380485
0.000370715
0.000361625
0.000353145
0.000345218
0.000337794
0.00033083
0.000324292
0.000318147
0.000312384
0.000306975
0.000301954
0.00116966
0.00115863
0.00113363
0.00109757
0.00105569
0.0010122
0.00096967
0.000929413
0.000891972
0.000857472
0.000825821
0.000796831
0.000770273
0.000745916
0.000723539
0.000702937
0.000683929
0.00066635
0.000650057
0.000634922
0.000620831
0.000607686
0.000595397
0.000583886
0.000573085
0.000562931
0.000553369
0.00054435
0.00053583
0.000527772
0.000520145
0.000512922
0.000506086
0.00117006
0.00116839
0.00116306
0.00115261
0.00113713
0.00111768
0.00109554
0.00107192
0.00104773
0.00102361
0.00100002
0.000977214
0.000955354
0.000934518
0.000914733
0.000895994
0.000878273
0.000861528
0.000845712
0.000830774
0.000816663
0.000803326
0.000790714
0.00077878
0.000767479
0.000756768
0.000746608
0.000736962
0.000727796
0.00071908
0.000710785
0.000702892
0.000695377
0.00116996
0.00116938
0.00116821
0.00116569
0.00116123
0.00115458
0.00114584
0.00113528
0.00112329
0.00111025
0.00109651
0.00108237
0.00106806
0.00105377
0.00103965
0.00102578
0.00101225
0.000999108
0.000986383
0.000974096
0.000962255
0.000950863
0.000939915
0.000929402
0.000919314
0.000909638
0.000900358
0.00089146
0.000882929
0.00087475
0.000866909
0.000859397
0.0008522
0.00116994
0.0011694
0.00116883
0.00116803
0.00116674
0.00116472
0.0011618
0.00115791
0.00115305
0.00114729
0.00114075
0.00113356
0.00112584
0.00111773
0.00110933
0.00110075
0.00109206
0.00108335
0.00107466
0.00106605
0.00105756
0.0010492
0.00104101
0.001033
0.00102519
0.00101758
0.00101019
0.001003
0.000996031
0.000989277
0.000982737
0.000976413
0.000970303
0.00116994
0.00116939
0.00116886
0.00116832
0.0011677
0.00116692
0.00116588
0.00116449
0.00116269
0.00116044
0.00115772
0.00115456
0.00115099
0.00114703
0.00114275
0.00113818
0.00113338
0.00112839
0.00112326
0.00111802
0.00111272
0.00110737
0.00110201
0.00109667
0.00109135
0.00108608
0.00108087
0.00107574
0.00107069
0.00106573
0.00106087
0.00105612
0.00105148
0.00116994
0.00116938
0.00116885
0.00116833
0.00116782
0.00116729
0.00116671
0.00116605
0.00116526
0.00116432
0.00116319
0.00116186
0.00116031
0.00115854
0.00115655
0.00115437
0.00115199
0.00114945
0.00114675
0.00114391
0.00114097
0.00113792
0.0011348
0.00113162
0.00112839
0.00112513
0.00112185
0.00111857
0.00111528
0.00111202
0.00110877
0.00110556
0.00110238
0.00116994
0.00116938
0.00116884
0.00116832
0.00116782
0.00116732
0.00116683
0.00116634
0.00116582
0.00116527
0.00116467
0.001164
0.00116324
0.0011624
0.00116147
0.00116043
0.00115929
0.00115804
0.0011567
0.00115527
0.00115375
0.00115215
0.00115047
0.00114873
0.00114694
0.00114509
0.0011432
0.00114128
0.00113934
0.00113737
0.00113539
0.00113341
0.00113142
0.00116994
0.00116938
0.00116884
0.00116832
0.00116781
0.00116732
0.00116684
0.00116637
0.00116591
0.00116545
0.00116499
0.00116452
0.00116403
0.00116351
0.00116297
0.00116238
0.00116177
0.0011611
0.0011604
0.00115964
0.00115884
0.001158
0.00115711
0.00115618
0.00115522
0.00115421
0.00115317
0.00115211
0.00115101
0.0011499
0.00114876
0.00114761
0.00114645
0.00116994
0.00116938
0.00116884
0.00116832
0.00116781
0.00116732
0.00116684
0.00116637
0.00116592
0.00116547
0.00116504
0.00116461
0.00116419
0.00116377
0.00116335
0.00116292
0.00116249
0.00116204
0.00116158
0.00116111
0.00116062
0.00116012
0.0011596
0.00115906
0.0011585
0.00115792
0.00115733
0.00115672
0.00115609
0.00115546
0.0011548
0.00115414
0.00115347
0.00116994
0.00116938
0.00116884
0.00116832
0.00116781
0.00116731
0.00116683
0.00116637
0.00116591
0.00116547
0.00116504
0.00116462
0.00116422
0.00116382
0.00116343
0.00116304
0.00116266
0.00116228
0.00116191
0.00116154
0.00116116
0.00116079
0.00116041
0.00116003
0.00115965
0.00115926
0.00115887
0.00115847
0.00115807
0.00115766
0.00115725
0.00115684
0.00115642
0.00116994
0.00116938
0.00116884
0.00116832
0.00116781
0.00116731
0.00116683
0.00116636
0.00116591
0.00116547
0.00116504
0.00116462
0.00116421
0.00116382
0.00116343
0.00116306
0.00116269
0.00116233
0.00116198
0.00116164
0.0011613
0.00116097
0.00116064
0.00116031
0.00115999
0.00115968
0.00115936
0.00115905
0.00115874
0.00115844
0.00115813
0.00115783
0.00115753
0.00116994
0.00116938
0.00116884
0.00116831
0.0011678
0.00116731
0.00116683
0.00116636
0.0011659
0.00116546
0.00116503
0.00116461
0.00116421
0.00116381
0.00116343
0.00116305
0.00116269
0.00116233
0.00116199
0.00116165
0.00116132
0.001161
0.00116069
0.00116038
0.00116008
0.00115979
0.0011595
0.00115922
0.00115894
0.00115867
0.00115841
0.00115814
0.00115789
0.00116994
0.00116938
0.00116884
0.00116831
0.0011678
0.00116731
0.00116683
0.00116636
0.0011659
0.00116546
0.00116503
0.00116461
0.0011642
0.00116381
0.00116342
0.00116305
0.00116268
0.00116233
0.00116198
0.00116164
0.00116132
0.001161
0.00116069
0.00116038
0.00116009
0.0011598
0.00115952
0.00115925
0.00115898
0.00115872
0.00115847
0.00115822
0.00115798
0.00116994
0.00116938
0.00116884
0.00116831
0.0011678
0.00116731
0.00116682
0.00116635
0.0011659
0.00116546
0.00116502
0.00116461
0.0011642
0.0011638
0.00116342
0.00116304
0.00116267
0.00116232
0.00116197
0.00116164
0.00116131
0.00116099
0.00116068
0.00116038
0.00116008
0.0011598
0.00115952
0.00115925
0.00115898
0.00115872
0.00115847
0.00115823
0.00115799
0.00116994
0.00116938
0.00116884
0.00116831
0.0011678
0.0011673
0.00116682
0.00116635
0.0011659
0.00116545
0.00116502
0.0011646
0.00116419
0.0011638
0.00116341
0.00116303
0.00116267
0.00116231
0.00116197
0.00116163
0.0011613
0.00116098
0.00116067
0.00116037
0.00116007
0.00115978
0.0011595
0.00115923
0.00115897
0.00115871
0.00115846
0.00115822
0.00115798
0.00116994
0.00116938
0.00116884
0.00116831
0.0011678
0.0011673
0.00116682
0.00116635
0.00116589
0.00116545
0.00116502
0.0011646
0.00116419
0.00116379
0.00116341
0.00116303
0.00116266
0.00116231
0.00116196
0.00116162
0.00116129
0.00116097
0.00116066
0.00116036
0.00116006
0.00115977
0.00115949
0.00115922
0.00115896
0.0011587
0.00115845
0.0011582
0.00115796
0.00116994
0.00116938
0.00116884
0.00116831
0.0011678
0.0011673
0.00116682
0.00116635
0.00116589
0.00116545
0.00116502
0.0011646
0.00116419
0.00116379
0.0011634
0.00116302
0.00116266
0.0011623
0.00116195
0.00116161
0.00116128
0.00116096
0.00116065
0.00116035
0.00116005
0.00115976
0.00115948
0.00115921
0.00115894
0.00115868
0.00115843
0.00115819
0.00115795
0.00116994
0.00116938
0.00116884
0.00116831
0.0011678
0.0011673
0.00116682
0.00116635
0.00116589
0.00116545
0.00116501
0.00116459
0.00116418
0.00116379
0.0011634
0.00116302
0.00116265
0.00116229
0.00116195
0.00116161
0.00116128
0.00116096
0.00116064
0.00116034
0.00116004
0.00115975
0.00115947
0.0011592
0.00115893
0.00115867
0.00115842
0.00115817
0.00115793
0.00116994
0.00116938
0.00116884
0.00116831
0.0011678
0.0011673
0.00116682
0.00116635
0.00116589
0.00116545
0.00116501
0.00116459
0.00116418
0.00116378
0.00116339
0.00116302
0.00116265
0.00116229
0.00116194
0.0011616
0.00116127
0.00116095
0.00116063
0.00116033
0.00116003
0.00115974
0.00115946
0.00115918
0.00115892
0.00115866
0.0011584
0.00115815
0.00115791
0.00116994
0.00116938
0.00116884
0.00116831
0.0011678
0.0011673
0.00116682
0.00116635
0.00116589
0.00116544
0.00116501
0.00116459
0.00116418
0.00116378
0.00116339
0.00116301
0.00116264
0.00116229
0.00116194
0.0011616
0.00116126
0.00116094
0.00116063
0.00116032
0.00116002
0.00115973
0.00115945
0.00115917
0.00115891
0.00115864
0.00115839
0.00115814
0.0011579
0.00116994
0.00116938
0.00116884
0.00116831
0.0011678
0.0011673
0.00116682
0.00116635
0.00116589
0.00116544
0.00116501
0.00116459
0.00116418
0.00116378
0.00116339
0.00116301
0.00116264
0.00116228
0.00116193
0.00116159
0.00116126
0.00116094
0.00116062
0.00116031
0.00116002
0.00115972
0.00115944
0.00115916
0.00115889
0.00115863
0.00115838
0.00115813
0.00115789
0.00116994
0.00116938
0.00116884
0.00116831
0.0011678
0.0011673
0.00116682
0.00116635
0.00116589
0.00116544
0.00116501
0.00116459
0.00116418
0.00116378
0.00116339
0.00116301
0.00116264
0.00116228
0.00116193
0.00116159
0.00116125
0.00116093
0.00116062
0.00116031
0.00116001
0.00115972
0.00115943
0.00115915
0.00115888
0.00115862
0.00115837
0.00115812
0.00115787
0.00116994
0.00116938
0.00116884
0.00116831
0.0011678
0.0011673
0.00116682
0.00116635
0.00116589
0.00116544
0.00116501
0.00116459
0.00116417
0.00116377
0.00116338
0.00116301
0.00116264
0.00116228
0.00116192
0.00116158
0.00116125
0.00116093
0.00116061
0.0011603
0.00116
0.00115971
0.00115942
0.00115915
0.00115888
0.00115861
0.00115835
0.0011581
0.00115786
0.00116994
0.00116938
0.00116884
0.00116831
0.0011678
0.0011673
0.00116682
0.00116635
0.00116589
0.00116544
0.00116501
0.00116458
0.00116417
0.00116377
0.00116338
0.001163
0.00116263
0.00116227
0.00116192
0.00116158
0.00116125
0.00116092
0.00116061
0.0011603
0.00116
0.0011597
0.00115942
0.00115914
0.00115887
0.0011586
0.00115835
0.00115809
0.00115785
0.00116994
0.00116938
0.00116884
0.00116831
0.0011678
0.0011673
0.00116682
0.00116634
0.00116589
0.00116544
0.00116501
0.00116458
0.00116417
0.00116377
0.00116338
0.001163
0.00116263
0.00116227
0.00116192
0.00116158
0.00116124
0.00116092
0.0011606
0.00116029
0.00115999
0.0011597
0.00115941
0.00115913
0.00115886
0.0011586
0.00115834
0.00115809
0.00115784
0.00116994
0.00116938
0.00116884
0.00116831
0.0011678
0.0011673
0.00116682
0.00116635
0.00116589
0.00116544
0.00116501
0.00116459
0.00116417
0.00116377
0.00116338
0.001163
0.00116263
0.00116227
0.00116192
0.00116158
0.00116124
0.00116092
0.0011606
0.00116029
0.00115999
0.0011597
0.00115941
0.00115913
0.00115886
0.00115859
0.00115833
0.00115808
0.00115783
0.00116994
0.00116938
0.00116884
0.00116831
0.0011678
0.0011673
0.00116682
0.00116635
0.00116589
0.00116544
0.00116501
0.00116459
0.00116418
0.00116377
0.00116338
0.00116301
0.00116263
0.00116227
0.00116192
0.00116158
0.00116125
0.00116092
0.0011606
0.00116029
0.00115999
0.0011597
0.00115941
0.00115913
0.00115885
0.00115858
0.00115832
0.00115807
0.00115782
0.00116994
0.00116938
0.00116884
0.00116831
0.0011678
0.00116731
0.00116682
0.00116635
0.0011659
0.00116545
0.00116502
0.0011646
0.00116418
0.00116378
0.00116339
0.00116301
0.00116264
0.00116228
0.00116193
0.00116158
0.00116125
0.00116092
0.0011606
0.00116028
0.00115998
0.00115968
0.00115938
0.0011591
0.00115882
0.00115854
0.00115827
0.00115801
0.00115775
0.00116994
0.00116938
0.00116884
0.00116832
0.00116781
0.00116731
0.00116683
0.00116636
0.0011659
0.00116546
0.00116502
0.0011646
0.00116419
0.00116379
0.0011634
0.00116301
0.00116263
0.00116226
0.0011619
0.00116155
0.0011612
0.00116085
0.00116052
0.00116018
0.00115985
0.00115953
0.00115921
0.00115889
0.00115858
0.00115827
0.00115797
0.00115766
0.00115736
0.00116994
0.00116938
0.00116884
0.00116833
0.00116782
0.00116733
0.00116685
0.00116639
0.00116593
0.00116548
0.00116503
0.00116459
0.00116416
0.00116373
0.00116331
0.00116288
0.00116246
0.00116204
0.00116161
0.00116119
0.00116076
0.00116033
0.0011599
0.00115946
0.00115902
0.00115858
0.00115814
0.00115769
0.00115724
0.00115678
0.00115632
0.00115586
0.0011554
0.00116994
0.00116939
0.00116886
0.00116835
0.00116784
0.00116733
0.00116683
0.00116632
0.00116581
0.00116528
0.00116473
0.00116417
0.00116358
0.00116297
0.00116233
0.00116166
0.00116097
0.00116024
0.00115949
0.00115871
0.0011579
0.00115707
0.00115621
0.00115532
0.00115442
0.0011535
0.00115255
0.00115159
0.00115062
0.00114963
0.00114862
0.00114761
0.00114659
0.00116995
0.0011694
0.00116886
0.00116828
0.00116765
0.00116694
0.00116613
0.00116519
0.00116414
0.00116295
0.00116163
0.00116018
0.0011586
0.0011569
0.00115508
0.00115316
0.00115113
0.00114902
0.00114683
0.00114457
0.00114224
0.00113986
0.00113744
0.00113498
0.00113249
0.00112997
0.00112744
0.0011249
0.00112236
0.00111981
0.00111727
0.00111474
0.00111222
0.00116996
0.00116916
0.00116786
0.00116595
0.00116344
0.00116031
0.00115658
0.00115229
0.0011475
0.00114226
0.00113663
0.00113069
0.00112449
0.00111809
0.00111153
0.00110488
0.00109816
0.00109141
0.00108466
0.00107793
0.00107126
0.00106465
0.00105812
0.00105169
0.00104536
0.00103914
0.00103304
0.00102706
0.00102121
0.00101549
0.0010099
0.00100444
0.000999114
0.00116831
0.00115866
0.00114501
0.00112846
0.00110973
0.00108952
0.00106849
0.00104715
0.00102589
0.00100498
0.000984605
0.000964881
0.000945882
0.000927645
0.000910183
0.00089349
0.000877551
0.000862343
0.000847837
0.000834002
0.000820807
0.00080822
0.000796209
0.000784742
0.000773792
0.000763329
0.000753326
0.000743758
0.000734602
0.000725834
0.000717434
0.000709382
0.000701655
0.00107567
0.000936194
0.000835601
0.00075686
0.000692043
0.000638274
0.000593348
0.000555437
0.000523102
0.000495238
0.000470998
0.00044973
0.000430926
0.000414189
0.000399203
0.000385712
0.00037351
0.000362429
0.000352326
0.000343083
0.000334602
0.000326798
0.000319598
0.00031294
0.000306769
0.000301039
0.000295707
0.000290738
0.000286099
0.000281762
0.000277701
0.000273894
0.000270318
0.000142979
0.000146644
0.000150174
0.000153551
0.000156773
0.000159846
0.000162775
0.000165566
0.000168224
0.000170754
0.00017316
0.000175448
0.000177623
0.000179689
0.00018165
0.000183513
0.00018528
0.000186956
0.000188546
0.000190054
0.000191483
0.000192837
0.00019412
0.000195336
0.000196487
0.000197578
0.00019861
0.000199588
0.000200514
0.00020139
0.000202219
0.000203003
0.000203746
9.09504e-05
0.000110612
0.000135583
0.000166517
0.000202614
0.000241805
0.00028167
0.000320198
0.000356296
0.000389831
0.000421336
0.000451612
0.000481366
0.000511019
0.000540687
0.000570308
0.000599791
0.000629138
0.000658478
0.000688041
0.000718089
0.000748853
0.00078049
0.000813062
0.000846544
0.000880839
0.000915793
0.00095121
0.000986857
0.00102247
0.00105778
0.00109248
0.00112627
0.00115887
0.00119
0.00121943
0.00124696
0.00127245
0.00129581
0.00131704
0.00133617
0.00135333
0.00136869
0.00138249
0.00139499
0.00140648
0.00141724
0.0014275
0.00143745
0.00144718
0.00145665
0.00146567
0.0014739
0.00148081
0.0014857
0.00148771
0.00148586
0.00147911
0.00146646
0.00144701
0.00142016
0.0013857
0.00134408
0.00129663
0.00124579
0.00119537
0.00115053
0.00111736
0.00110162
0.00110667
0.0011314
0.00116993
0.00121394
0.00125637
0.00129352
0.00132485
0.00135149
0.00137497
0.00139655
0.00141707
0.00143705
0.0014568
0.00147656
0.0014965
0.00151679
0.00153761
0.00155909
0.00158131
0.00160426
0.00162784
0.00165182
0.00167588
0.00169964
0.00172267
0.00174458
0.00176501
0.00178368
0.00180054
0.00181463
0.00183206
7.63633e-05
7.85159e-05
8.19511e-05
8.74607e-05
9.59448e-05
0.00010829
0.00012522
0.000147094
0.000173772
0.000204573
0.000238357
0.000273724
0.000309278
0.000343899
0.000376907
0.000408106
0.000437688
0.000466066
0.000493706
0.000521003
0.000548223
0.000575507
0.000602907
0.000630429
0.000658067
0.00068581
0.000713638
0.000741508
0.000769341
0.000797018
0.000824376
0.000851223
0.000877342
0.000902512
0.000926521
0.000949179
0.000970332
0.000989871
0.00100774
0.00102396
0.00103858
0.00105175
0.00106367
0.00107458
0.00108474
0.00109446
0.00110401
0.00111364
0.00112352
0.00113375
0.0011443
0.00115503
0.00116563
0.00117565
0.0011845
0.00119146
0.00119574
0.00119654
0.00119312
0.00118497
0.00117188
0.00115417
0.00113287
0.00110985
0.00108798
0.00107098
0.00106295
0.00106738
0.00108576
0.00111654
0.00115531
0.00119642
0.00123524
0.00126937
0.00129853
0.00132368
0.00134605
0.00136674
0.00138646
0.00140566
0.00142458
0.00144339
0.00146221
0.00148117
0.00150042
0.00152013
0.00154044
0.00156148
0.00158328
0.0016058
0.00162889
0.00165229
0.00167565
0.0016986
0.00172072
0.00174165
0.00176107
0.00177889
0.00179399
0.0018133
0.000127029
0.000124872
0.000122631
0.000120085
0.000117552
0.000115375
0.00011379
0.000113209
0.000114221
0.000117531
0.000123848
0.000133739
0.000147526
0.000165221
0.000186506
0.000210778
0.00023723
0.000264973
0.000293173
0.000321155
0.000348463
0.000374873
0.000400348
0.000424979
0.000448915
0.000472307
0.000495275
0.000517884
0.000540148
0.000562031
0.000583462
0.000604343
0.000624563
0.000644007
0.000662567
0.000680151
0.000696694
0.000712165
0.000726577
0.00073999
0.000752515
0.000764315
0.000775594
0.000786589
0.000797557
0.00080875
0.000820401
0.000832697
0.000845765
0.000859652
0.000874314
0.000889606
0.000905281
0.00092099
0.000936301
0.000950718
0.000963728
0.000974858
0.00098376
0.000990314
0.00099474
0.000997719
0.00100047
0.00100475
0.0010127
0.00102643
0.00104741
0.0010758
0.0011101
0.00114742
0.0011845
0.00121878
0.00124905
0.00127535
0.00129847
0.00131938
0.00133896
0.00135777
0.00137617
0.00139434
0.00141235
0.00143029
0.0014482
0.00146621
0.00148444
0.00150304
0.00152217
0.00154197
0.00156253
0.00158386
0.00160587
0.00162838
0.00165109
0.00167368
0.00169574
0.00171691
0.00173685
0.00175545
0.0017714
0.00179244
0.000296473
0.000290321
0.000284087
0.000277628
0.000270767
0.000263806
0.000256658
0.000249141
0.000241105
0.000232512
0.000223502
0.000214434
0.000205861
0.000198455
0.000192892
0.000189748
0.000189426
0.000192126
0.000197845
0.000206403
0.000217486
0.000230685
0.000245552
0.000261641
0.000278547
0.000295925
0.000313509
0.000331103
0.000348575
0.00036584
0.000382845
0.00039956
0.000415965
0.000432048
0.000447806
0.000463249
0.000478401
0.000493307
0.00050804
0.000522694
0.000537392
0.000552275
0.000567497
0.000583211
0.000599559
0.000616656
0.000634585
0.000653379
0.000673029
0.000693474
0.000714613
0.000736305
0.000758376
0.000780629
0.000802853
0.000824837
0.000846399
0.000867416
0.00088787
0.000907895
0.000927828
0.000948217
0.000969793
0.000993356
0.00101956
0.00104866
0.00108029
0.0011134
0.00114647
0.00117798
0.00120683
0.0012326
0.0012555
0.00127616
0.00129529
0.00131351
0.00133124
0.00134874
0.00136611
0.00138337
0.00140055
0.00141764
0.00143468
0.00145176
0.00146898
0.00148649
0.00150445
0.00152301
0.00154228
0.00156232
0.00158311
0.00160453
0.00162636
0.00164831
0.00167003
0.00169117
0.00171137
0.00173051
0.00174712
0.00176968
0.000498591
0.000490404
0.000482451
0.000474661
0.000466927
0.000459198
0.00045149
0.000443709
0.000435728
0.000427403
0.000418594
0.000409185
0.000399108
0.000388373
0.000377087
0.000365471
0.000353846
0.000342615
0.000332209
0.000323045
0.000315475
0.000309761
0.000306062
0.000304437
0.00030486
0.000307242
0.000311447
0.000317319
0.000324693
0.000333412
0.000343337
0.000354351
0.000366362
0.000379307
0.000393141
0.000407842
0.000423404
0.00043983
0.000457129
0.000475309
0.000494373
0.00051431
0.000535091
0.000556667
0.000578965
0.000601888
0.000625325
0.00064915
0.000673239
0.000697472
0.000721748
0.000745987
0.000770134
0.000794164
0.000818079
0.000841908
0.000865704
0.00088955
0.000913558
0.000937871
0.000962653
0.000988068
0.00101424
0.00104118
0.00106873
0.00109653
0.001124
0.0011505
0.00117544
0.00119845
0.00121949
0.0012388
0.00125678
0.00127391
0.00129057
0.00130706
0.00132351
0.00133998
0.00135645
0.00137287
0.00138922
0.00140548
0.00142166
0.00143782
0.00145407
0.00147052
0.00148734
0.00150467
0.00152264
0.00154135
0.00156082
0.00158101
0.00160175
0.00162283
0.00164394
0.00166477
0.00168494
0.00170437
0.0017214
0.00174521
0.000687092
0.000678029
0.000669267
0.000660791
0.000652547
0.000644504
0.000636624
0.000628866
0.000621191
0.000613557
0.000605918
0.000598229
0.000590441
0.000582512
0.00057441
0.00056612
0.000557659
0.000549079
0.000540472
0.000531976
0.000523761
0.000516025
0.000508978
0.00050283
0.000497778
0.000493996
0.00049163
0.000490794
0.000491569
0.000494007
0.000498132
0.000503947
0.000511434
0.000520561
0.000531284
0.000543544
0.000557272
0.000572385
0.000588787
0.000606367
0.000624998
0.000644539
0.000664837
0.000685726
0.000707038
0.000728604
0.000750265
0.000771876
0.000793313
0.000814482
0.000835321
0.000855803
0.000875936
0.000895763
0.000915354
0.000934802
0.000954216
0.000973706
0.000993374
0.0010133
0.00103353
0.00105404
0.00107477
0.00109556
0.00111619
0.0011364
0.00115591
0.00117454
0.00119217
0.00120886
0.00122476
0.00124012
0.0012552
0.00127022
0.00128533
0.00130061
0.00131606
0.00133164
0.00134726
0.00136286
0.00137839
0.00139381
0.00140914
0.00142441
0.00143971
0.00145515
0.00147087
0.00148701
0.0015037
0.00152108
0.00153919
0.00155804
0.00157754
0.00159754
0.0016178
0.00163803
0.00165789
0.00167733
0.00169453
0.00171928
0.000844204
0.000835382
0.000826781
0.000818406
0.000810235
0.000802265
0.000794484
0.000786878
0.000779435
0.00077215
0.000765024
0.000758058
0.00075126
0.000744637
0.000738194
0.000731938
0.000725878
0.000720025
0.0007144
0.000709037
0.00070398
0.000699292
0.000695051
0.000691347
0.000688283
0.000685965
0.000684503
0.000684005
0.000684569
0.000686282
0.000689215
0.000693421
0.000698933
0.000705761
0.000713894
0.000723299
0.000733921
0.000745684
0.000758493
0.000772237
0.000786791
0.000802017
0.000817772
0.000833909
0.000850281
0.000866752
0.000883195
0.000899499
0.000915575
0.000931356
0.000946802
0.000961896
0.00097665
0.000991097
0.00100529
0.0010193
0.0010332
0.00104706
0.00106096
0.00107495
0.00108904
0.00110323
0.00111748
0.00113169
0.00114579
0.00115969
0.00117333
0.0011867
0.00119984
0.00121284
0.00122585
0.00123899
0.00125237
0.00126607
0.00128011
0.00129444
0.00130902
0.00132375
0.00133855
0.00135333
0.00136804
0.00138263
0.00139712
0.00141152
0.00142591
0.00144038
0.00145505
0.00147005
0.00148552
0.00150158
0.00151833
0.0015358
0.00155396
0.00157273
0.00159192
0.00161131
0.00163059
0.00164974
0.00166685
0.00169216
0.000963444
0.000955787
0.000948229
0.000940783
0.000933457
0.000926258
0.000919186
0.000912242
0.00090543
0.000898761
0.000892248
0.00088591
0.000879772
0.000873859
0.000868198
0.000862816
0.00085774
0.000852994
0.000848603
0.000844591
0.000840983
0.00083781
0.000835103
0.000832901
0.000831245
0.000830181
0.000829761
0.000830034
0.000831052
0.00083286
0.0008355
0.000839004
0.000843392
0.000848674
0.000854843
0.000861878
0.000869741
0.000878381
0.00088773
0.000897711
0.000908234
0.000919202
0.000930513
0.000942065
0.000953755
0.000965489
0.000977179
0.000988751
0.00100014
0.00101131
0.00102222
0.00103287
0.00104326
0.00105341
0.00106336
0.00107315
0.00108282
0.00109244
0.00110205
0.00111169
0.00112139
0.00113118
0.00114106
0.00115104
0.0011611
0.00117127
0.00118156
0.00119202
0.00120272
0.00121372
0.00122511
0.00123693
0.00124922
0.00126196
0.00127512
0.00128862
0.00130237
0.00131629
0.00133027
0.00134424
0.00135813
0.00137191
0.00138557
0.00139913
0.00141265
0.00142619
0.00143987
0.0014538
0.00146811
0.00148291
0.00149832
0.00151441
0.00153118
0.00154861
0.00156657
0.00158491
0.00160336
0.00162196
0.0016387
0.00166418
0.00104621
0.00104025
0.00103429
0.00102834
0.00102241
0.00101651
0.00101066
0.00100486
0.000999121
0.000993464
0.000987904
0.000982464
0.000977167
0.000972043
0.000967122
0.000962434
0.000958011
0.000953882
0.000950077
0.000946624
0.000943548
0.000940874
0.000938627
0.00093683
0.000935508
0.000934683
0.00093438
0.000934621
0.000935429
0.000936822
0.000938817
0.000941426
0.000944652
0.000948496
0.000952945
0.000957982
0.000963578
0.000969695
0.000976286
0.000983298
0.00099067
0.000998336
0.00100623
0.00101427
0.00102241
0.00103057
0.00103869
0.00104673
0.00105464
0.00106239
0.00106997
0.00107736
0.00108458
0.00109163
0.00109855
0.00110536
0.00111211
0.00111883
0.00112559
0.00113241
0.00113934
0.00114643
0.0011537
0.0011612
0.00116897
0.00117704
0.00118547
0.00119431
0.00120361
0.00121342
0.00122377
0.00123466
0.0012461
0.00125803
0.0012704
0.00128311
0.00129607
0.00130919
0.00132238
0.00133555
0.00134864
0.00136163
0.00137449
0.00138724
0.00139991
0.00141258
0.00142532
0.00143825
0.00145146
0.00146508
0.00147922
0.00149395
0.00150934
0.00152537
0.00154201
0.00155913
0.00157654
0.00159433
0.00161046
0.00163569
0.00109873
0.00109453
0.00109028
0.00108596
0.00108161
0.00107722
0.00107281
0.00106839
0.00106397
0.00105956
0.00105519
0.00105087
0.00104662
0.00104247
0.00103844
0.00103457
0.00103087
0.00102738
0.00102413
0.00102114
0.00101843
0.00101603
0.00101397
0.00101227
0.00101093
0.00100999
0.00100945
0.00100934
0.00100966
0.00101042
0.00101163
0.00101329
0.00101541
0.00101796
0.00102095
0.00102436
0.00102816
0.00103232
0.00103682
0.00104161
0.00104665
0.0010519
0.00105731
0.00106283
0.00106841
0.00107401
0.00107959
0.00108512
0.00109056
0.0010959
0.00110112
0.00110622
0.00111121
0.0011161
0.00112091
0.00112568
0.00113043
0.00113521
0.00114007
0.00114506
0.00115021
0.0011556
0.00116125
0.00116724
0.0011736
0.00118039
0.00118766
0.00119545
0.0012038
0.00121275
0.00122229
0.00123242
0.0012431
0.00125429
0.0012659
0.00127785
0.00129005
0.0013024
0.00131481
0.00132721
0.00133954
0.00135175
0.00136384
0.00137581
0.00138769
0.00139953
0.00141139
0.00142337
0.00143557
0.00144809
0.00146102
0.00147447
0.0014885
0.00150315
0.0015184
0.00153421
0.00155042
0.00156718
0.00158248
0.00160706
0.0011291
0.00112641
0.00112363
0.00112077
0.00111785
0.00111486
0.00111181
0.00110871
0.00110558
0.00110242
0.00109925
0.00109608
0.00109293
0.00108982
0.00108676
0.00108378
0.0010809
0.00107814
0.00107553
0.00107308
0.00107082
0.00106878
0.00106696
0.00106539
0.00106409
0.00106307
0.00106235
0.00106194
0.00106185
0.00106208
0.00106264
0.00106354
0.00106476
0.00106631
0.00106818
0.00107035
0.00107281
0.00107554
0.00107851
0.0010817
0.00108507
0.0010886
0.00109225
0.00109599
0.00109978
0.0011036
0.00110741
0.00111119
0.00111493
0.00111859
0.00112219
0.00112572
0.00112918
0.00113258
0.00113596
0.00113933
0.00114273
0.00114621
0.0011498
0.00115356
0.00115755
0.0011618
0.00116638
0.00117135
0.00117676
0.00118266
0.00118909
0.0011961
0.00120371
0.00121194
0.00122078
0.00123021
0.00124019
0.00125067
0.00126156
0.00127278
0.00128424
0.00129585
0.00130752
0.00131918
0.00133078
0.00134226
0.00135361
0.00136484
0.00137596
0.00138701
0.00139805
0.00140916
0.00142041
0.00143191
0.00144373
0.00145597
0.00146871
0.00148201
0.00149588
0.00151032
0.00152523
0.00154081
0.00155509
0.00157864
0.00114507
0.00114345
0.00114176
0.00114
0.00113817
0.00113627
0.00113432
0.00113231
0.00113024
0.00112814
0.001126
0.00112384
0.00112167
0.00111949
0.00111733
0.0011152
0.00111312
0.00111109
0.00110914
0.00110728
0.00110554
0.00110392
0.00110245
0.00110114
0.0011
0.00109905
0.0010983
0.00109777
0.00109746
0.00109737
0.00109753
0.00109792
0.00109855
0.00109941
0.00110051
0.00110183
0.00110337
0.0011051
0.00110702
0.0011091
0.00111133
0.00111367
0.00111612
0.00111864
0.00112121
0.00112381
0.00112641
0.00112901
0.00113158
0.00113412
0.00113661
0.00113907
0.0011415
0.00114391
0.00114632
0.00114876
0.00115126
0.00115387
0.00115661
0.00115955
0.00116274
0.00116622
0.00117006
0.00117431
0.00117902
0.00118425
0.00119003
0.0011964
0.00120338
0.00121098
0.00121919
0.00122798
0.00123731
0.00124711
0.00125732
0.00126785
0.00127861
0.00128951
0.00130048
0.00131144
0.00132233
0.00133312
0.00134377
0.00135429
0.00136469
0.00137501
0.00138528
0.00139557
0.00140596
0.00141651
0.00142731
0.00143844
0.00144998
0.00146199
0.00147452
0.0014876
0.00150116
0.00151546
0.00152859
0.0015508
0.00115267
0.00115172
0.00115072
0.00114967
0.00114857
0.00114742
0.00114622
0.00114497
0.00114368
0.00114235
0.00114099
0.00113959
0.00113818
0.00113675
0.00113531
0.00113388
0.00113246
0.00113107
0.00112971
0.0011284
0.00112715
0.00112597
0.00112487
0.00112387
0.00112298
0.0011222
0.00112156
0.00112105
0.0011207
0.0011205
0.00112046
0.00112058
0.00112088
0.00112134
0.00112197
0.00112276
0.00112371
0.00112481
0.00112604
0.00112741
0.00112888
0.00113045
0.0011321
0.00113382
0.00113558
0.00113737
0.00113918
0.00114099
0.00114279
0.00114458
0.00114635
0.00114811
0.00114985
0.00115161
0.00115339
0.00115522
0.00115712
0.00115915
0.00116133
0.00116372
0.00116636
0.00116932
0.00117263
0.00117636
0.00118055
0.00118526
0.00119052
0.00119636
0.0012028
0.00120984
0.00121747
0.00122567
0.00123439
0.00124357
0.00125313
0.001263
0.0012731
0.00128334
0.00129365
0.00130394
0.00131418
0.0013243
0.00133429
0.00134415
0.00135387
0.00136349
0.00137304
0.00138258
0.00139216