/*--------------------------------*- C++ -*----------------------------------*\
| =========                 |                                                 |
| \\      /  F ield         | OpenFOAM: The Open Source CFD Toolbox           |
|  \\    /   O peration     | Version:  2.1.1                                 |
|   \\  /    A nd           | Web:      www.OpenFOAM.org                      |
|    \\/     M anipulation  |                                                 |
\*---------------------------------------------------------------------------*/
FoamFile
{
    version     2.0;
    format      ascii;
    class       volScalarField;
    location    "0.12";
    object      p;
}
// * * * * * * * * * * * * * * * * * * * * * * * * * * * * * * * * * * * * * //

dimensions      [0 2 -2 0 0 0 0];

internalField   nonuniform List<scalar> 
6820
(
-11.1473
-12.9937
-13.569
-13.6972
-13.8047
-13.8845
-13.9397
-13.987
-14.0304
-14.0704
-14.1079
-14.1436
-14.1777
-14.2104
-14.2418
-14.2721
-14.3014
-14.3298
-14.3575
-14.3845
-14.411
-14.4371
-14.4628
-14.4881
-14.5131
-14.5377
-14.5617
-14.5848
-14.606
-14.6244
-14.6359
-14.634
-14.6082
-15.0998
-14.5653
-14.1431
-13.9535
-13.9293
-13.9411
-13.9621
-13.9908
-14.024
-14.0584
-14.0931
-14.1275
-14.1613
-14.1942
-14.2262
-14.2572
-14.2874
-14.3166
-14.3451
-14.3729
-14.4001
-14.4269
-14.4532
-14.4791
-14.5048
-14.5301
-14.5551
-14.5798
-14.6038
-14.6291
-14.6538
-14.7019
-14.764
-13.4573
-13.1536
-13.4405
-13.6858
-13.7914
-13.8674
-13.9271
-13.9772
-14.0222
-14.0633
-14.1016
-14.1377
-14.1719
-14.2046
-14.2359
-14.266
-14.2952
-14.3235
-14.351
-14.378
-14.4044
-14.4304
-14.4561
-14.4815
-14.5068
-14.5319
-14.5569
-14.582
-14.6072
-14.6338
-14.6622
-14.6989
-14.739
-13.9642
-13.9987
-13.9962
-13.9374
-13.9301
-13.9511
-13.9782
-14.0079
-14.0396
-14.072
-14.1043
-14.1363
-14.1677
-14.1985
-14.2285
-14.2579
-14.2866
-14.3147
-14.3422
-14.3692
-14.3958
-14.422
-14.448
-14.4738
-14.4995
-14.5252
-14.5509
-14.5771
-14.604
-14.6331
-14.6646
-14.7062
-14.7542
-13.8087
-13.7087
-13.7532
-13.8196
-13.8731
-13.9202
-13.9616
-13.9998
-14.0366
-14.072
-14.1061
-14.139
-14.171
-14.2019
-14.232
-14.2611
-14.2895
-14.3172
-14.3444
-14.371
-14.3972
-14.4231
-14.4488
-14.4743
-14.4999
-14.5255
-14.5514
-14.5779
-14.6055
-14.6351
-14.6675
-14.7062
-14.7493
-13.8638
-13.8472
-13.8726
-13.8961
-13.9189
-13.9487
-13.9809
-14.0134
-14.0461
-14.0785
-14.1103
-14.1415
-14.172
-14.2018
-14.2309
-14.2593
-14.2871
-14.3143
-14.3411
-14.3674
-14.3934
-14.4192
-14.4448
-14.4703
-14.4958
-14.5216
-14.5477
-14.5746
-14.6026
-14.6326
-14.665
-14.7018
-14.742
-13.8618
-13.8408
-13.8569
-13.886
-13.9166
-13.9501
-13.9836
-14.0164
-14.0489
-14.0809
-14.1122
-14.1429
-14.1729
-14.2022
-14.2309
-14.2589
-14.2864
-14.3133
-14.3397
-14.3658
-14.3916
-14.4171
-14.4425
-14.4678
-14.4933
-14.519
-14.5452
-14.572
-14.6
-14.6296
-14.6612
-14.6957
-14.7323
-13.8758
-13.8682
-13.8838
-13.9086
-13.9343
-13.963
-13.9932
-14.0237
-14.0544
-14.0849
-14.115
-14.1447
-14.1738
-14.2024
-14.2304
-14.2578
-14.2847
-14.3112
-14.3372
-14.363
-14.3884
-14.4137
-14.4388
-14.464
-14.4893
-14.5148
-14.5408
-14.5675
-14.5952
-14.6242
-14.6547
-14.687
-14.7206
-13.8886
-13.8848
-13.8972
-13.919
-13.9434
-13.9708
-13.9998
-14.0291
-14.0587
-14.0881
-14.1173
-14.1461
-14.1745
-14.2023
-14.2297
-14.2566
-14.2831
-14.3091
-14.3347
-14.3601
-14.3852
-14.4102
-14.435
-14.4599
-14.485
-14.5102
-14.5359
-14.5622
-14.5893
-14.6174
-14.6466
-14.6769
-14.7079
-13.902
-13.9014
-13.9129
-13.9327
-13.9553
-13.9806
-14.0076
-14.0353
-14.0634
-14.0917
-14.1198
-14.1476
-14.1751
-14.2023
-14.229
-14.2553
-14.2812
-14.3067
-14.3319
-14.3568
-14.3816
-14.4061
-14.4307
-14.4552
-14.4799
-14.5048
-14.53
-14.5558
-14.5822
-14.6093
-14.6371
-14.6656
-14.6943
-13.9153
-13.9164
-13.9269
-13.9447
-13.9656
-13.9892
-14.0147
-14.041
-14.0679
-14.095
-14.1221
-14.149
-14.1757
-14.2021
-14.2281
-14.2538
-14.2791
-14.3041
-14.3288
-14.3533
-14.3776
-14.4018
-14.4259
-14.45
-14.4743
-14.4987
-14.5234
-14.5485
-14.574
-14.6
-14.6265
-14.6533
-14.6801
-13.9283
-13.9303
-13.9403
-13.9565
-13.9759
-13.9979
-14.0218
-14.0468
-14.0724
-14.0983
-14.1244
-14.1504
-14.1762
-14.2018
-14.2272
-14.2522
-14.2769
-14.3014
-14.3256
-14.3496
-14.3734
-14.3971
-14.4207
-14.4443
-14.468
-14.4919
-14.5159
-14.5402
-14.5649
-14.5898
-14.6149
-14.6402
-14.6653
-13.9408
-13.9433
-13.9527
-13.9676
-13.9856
-14.0062
-14.0287
-14.0523
-14.0767
-14.1016
-14.1266
-14.1517
-14.1767
-14.2015
-14.2261
-14.2505
-14.2746
-14.2984
-14.3221
-14.3455
-14.3688
-14.392
-14.4151
-14.4382
-14.4613
-14.4845
-14.5078
-14.5313
-14.5549
-14.5787
-14.6026
-14.6264
-14.65
-13.9528
-13.9554
-13.9643
-13.978
-13.9948
-14.0141
-14.0352
-14.0577
-14.0809
-14.1046
-14.1287
-14.1528
-14.177
-14.201
-14.2249
-14.2486
-14.272
-14.2953
-14.3183
-14.3412
-14.3639
-14.3865
-14.409
-14.4315
-14.454
-14.4765
-14.499
-14.5216
-14.5442
-14.5669
-14.5895
-14.612
-14.6342
-13.9641
-13.9668
-13.9752
-13.9879
-14.0035
-14.0216
-14.0415
-14.0627
-14.0848
-14.1075
-14.1306
-14.1538
-14.1771
-14.2004
-14.2235
-14.2465
-14.2693
-14.2919
-14.3143
-14.3366
-14.3587
-14.3807
-14.4026
-14.4244
-14.4461
-14.4679
-14.4896
-14.5112
-14.5329
-14.5545
-14.5759
-14.5971
-14.618
-13.9747
-13.9773
-13.9852
-13.9971
-14.0117
-14.0286
-14.0474
-14.0675
-14.0885
-14.1102
-14.1323
-14.1547
-14.1771
-14.1996
-14.222
-14.2442
-14.2663
-14.2883
-14.3101
-14.3317
-14.3532
-14.3745
-14.3957
-14.4168
-14.4378
-14.4587
-14.4796
-14.5003
-14.5209
-14.5414
-14.5617
-14.5817
-14.6013
-13.9846
-13.9871
-13.9946
-14.0056
-14.0193
-14.0352
-14.0529
-14.0719
-14.0919
-14.1126
-14.1338
-14.1553
-14.1769
-14.1986
-14.2202
-14.2417
-14.2631
-14.2844
-14.3055
-14.3265
-14.3473
-14.3679
-14.3884
-14.4088
-14.429
-14.4491
-14.469
-14.4888
-14.5084
-14.5278
-14.547
-14.5658
-14.5842
-13.9937
-13.9961
-14.0031
-14.0134
-14.0262
-14.0412
-14.0579
-14.076
-14.095
-14.1148
-14.135
-14.1556
-14.1764
-14.1973
-14.2182
-14.239
-14.2597
-14.2803
-14.3007
-14.321
-14.341
-14.361
-14.3807
-14.4003
-14.4197
-14.4389
-14.4579
-14.4768
-14.4954
-14.5137
-14.5317
-14.5494
-14.5667
-14.002
-14.0043
-14.0109
-14.0206
-14.0326
-14.0467
-14.0625
-14.0796
-14.0977
-14.1166
-14.136
-14.1557
-14.1757
-14.1958
-14.2159
-14.236
-14.256
-14.2759
-14.2956
-14.3151
-14.3345
-14.3536
-14.3726
-14.3914
-14.41
-14.4283
-14.4464
-14.4643
-14.4819
-14.4991
-14.5161
-14.5326
-14.5488
-14.0095
-14.0117
-14.0179
-14.027
-14.0383
-14.0516
-14.0665
-14.0827
-14.1
-14.118
-14.1366
-14.1555
-14.1747
-14.194
-14.2134
-14.2327
-14.252
-14.2711
-14.2901
-14.3089
-14.3275
-14.3459
-14.3641
-14.3821
-14.3998
-14.4173
-14.4344
-14.4513
-14.4679
-14.4841
-14.5
-14.5154
-14.5305
-14.0162
-14.0182
-14.0241
-14.0326
-14.0433
-14.0558
-14.07
-14.0854
-14.1018
-14.119
-14.1368
-14.155
-14.1734
-14.192
-14.2106
-14.2292
-14.2477
-14.2661
-14.2844
-14.3024
-14.3203
-14.3379
-14.3553
-14.3724
-14.3893
-14.4058
-14.4221
-14.438
-14.4536
-14.4687
-14.4835
-14.4979
-14.5118
-14.0221
-14.024
-14.0295
-14.0375
-14.0476
-14.0595
-14.0729
-14.0875
-14.1032
-14.1196
-14.1366
-14.154
-14.1717
-14.1895
-14.2074
-14.2253
-14.2431
-14.2608
-14.2783
-14.2956
-14.3127
-14.3295
-14.3461
-14.3624
-14.3784
-14.394
-14.4093
-14.4243
-14.4389
-14.453
-14.4668
-14.4801
-14.4929
-14.027
-14.0288
-14.034
-14.0416
-14.0511
-14.0624
-14.0752
-14.0891
-14.1041
-14.1198
-14.1361
-14.1527
-14.1697
-14.1868
-14.204
-14.2212
-14.2382
-14.2552
-14.272
-14.2885
-14.3048
-14.3209
-14.3366
-14.3521
-14.3672
-14.3819
-14.3963
-14.4103
-14.4239
-14.437
-14.4497
-14.462
-14.4738
-14.0311
-14.0328
-14.0377
-14.0449
-14.0539
-14.0646
-14.0767
-14.0901
-14.1043
-14.1194
-14.1349
-14.1509
-14.1672
-14.1836
-14.2001
-14.2166
-14.233
-14.2492
-14.2653
-14.2811
-14.2966
-14.3119
-14.3268
-14.3414
-14.3557
-14.3695
-14.383
-14.396
-14.4086
-14.4208
-14.4325
-14.4437
-14.4544
-14.0343
-14.0359
-14.0405
-14.0474
-14.0559
-14.0661
-14.0777
-14.0905
-14.1041
-14.1186
-14.1335
-14.1489
-14.1645
-14.1803
-14.1961
-14.2119
-14.2276
-14.2431
-14.2584
-14.2735
-14.2883
-14.3027
-14.3169
-14.3306
-14.344
-14.357
-14.3695
-14.3816
-14.3933
-14.4045
-14.4151
-14.4253
-14.435
-14.0365
-14.038
-14.0424
-14.0488
-14.0569
-14.0666
-14.0777
-14.0899
-14.103
-14.1168
-14.1312
-14.146
-14.161
-14.1762
-14.1914
-14.2065
-14.2216
-14.2364
-14.251
-14.2654
-14.2795
-14.2932
-14.3065
-14.3195
-14.332
-14.3441
-14.3558
-14.367
-14.3777
-14.3879
-14.3976
-14.4068
-14.4155
-14.0377
-14.0392
-14.0434
-14.0496
-14.0575
-14.0668
-14.0775
-14.0893
-14.1019
-14.1153
-14.1291
-14.1433
-14.1578
-14.1723
-14.1869
-14.2014
-14.2158
-14.23
-14.2439
-14.2575
-14.2709
-14.2838
-14.2964
-14.3085
-14.3202
-14.3314
-14.3422
-14.3525
-14.3623
-14.3716
-14.3803
-14.3885
-14.3962
-14.0379
-14.0392
-14.043
-14.0487
-14.0561
-14.065
-14.0752
-14.0865
-14.0987
-14.1116
-14.125
-14.1388
-14.1528
-14.1669
-14.181
-14.1949
-14.2088
-14.2224
-14.2357
-14.2487
-14.2614
-14.2736
-14.2855
-14.2969
-14.3078
-14.3182
-14.3282
-14.3376
-14.3466
-14.3549
-14.3628
-14.3701
-14.3768
-14.0373
-14.0387
-14.0427
-14.0485
-14.0559
-14.0647
-14.0747
-14.0858
-14.0976
-14.1101
-14.1231
-14.1363
-14.1498
-14.1633
-14.1767
-14.1901
-14.2033
-14.2162
-14.2288
-14.2411
-14.253
-14.2645
-14.2756
-14.2862
-14.2963
-14.3059
-14.315
-14.3235
-14.3316
-14.339
-14.346
-14.3523
-14.3581
-14.035
-14.0356
-14.0384
-14.0431
-14.0497
-14.058
-14.0677
-14.0785
-14.0903
-14.1027
-14.1155
-14.1287
-14.142
-14.1553
-14.1686
-14.1816
-14.1945
-14.2071
-14.2193
-14.2311
-14.2425
-14.2535
-14.264
-14.274
-14.2835
-14.2924
-14.3008
-14.3086
-14.3159
-14.3226
-14.3287
-14.3343
-14.3393
-14.0334
-14.0359
-14.0402
-14.0459
-14.053
-14.0613
-14.0708
-14.0812
-14.0924
-14.1041
-14.1163
-14.1287
-14.1412
-14.1538
-14.1662
-14.1785
-14.1906
-14.2023
-14.2137
-14.2247
-14.2353
-14.2455
-14.2551
-14.2643
-14.2729
-14.281
-14.2886
-14.2955
-14.3019
-14.3078
-14.313
-14.3177
-14.3217
-14.0254
-14.0233
-14.0235
-14.0268
-14.0331
-14.0416
-14.0518
-14.0631
-14.0753
-14.0881
-14.1012
-14.1144
-14.1277
-14.1408
-14.1537
-14.1663
-14.1785
-14.1904
-14.2018
-14.2128
-14.2232
-14.2331
-14.2425
-14.2513
-14.2596
-14.2672
-14.2743
-14.2807
-14.2866
-14.2918
-14.2964
-14.3004
-14.3038
-14.0317
-14.0381
-14.0437
-14.0484
-14.0539
-14.0609
-14.0691
-14.0785
-14.0886
-14.0993
-14.1105
-14.1219
-14.1334
-14.145
-14.1564
-14.1676
-14.1786
-14.1892
-14.1994
-14.2093
-14.2186
-14.2275
-14.2359
-14.2437
-14.251
-14.2577
-14.2638
-14.2694
-14.2743
-14.2786
-14.2824
-14.2855
-14.288
-14.0001
-13.9866
-13.9817
-13.9863
-13.9958
-14.0078
-14.0212
-14.0355
-14.0503
-14.0652
-14.08
-14.0945
-14.1087
-14.1225
-14.1358
-14.1486
-14.1608
-14.1725
-14.1836
-14.194
-14.2039
-14.2131
-14.2217
-14.2297
-14.237
-14.2436
-14.2496
-14.255
-14.2596
-14.2637
-14.267
-14.2698
-14.2718
-14.0527
-14.0728
-14.0767
-14.0717
-14.0691
-14.0709
-14.0756
-14.082
-14.0897
-14.0985
-14.1079
-14.1178
-14.1279
-14.1382
-14.1483
-14.1583
-14.1681
-14.1776
-14.1867
-14.1953
-14.2036
-14.2113
-14.2184
-14.2251
-14.2311
-14.2366
-14.2415
-14.2458
-14.2494
-14.2525
-14.255
-14.2568
-14.258
-13.9299
-13.8804
-13.8685
-13.8947
-13.9218
-13.9453
-13.9684
-13.9908
-14.0119
-14.0318
-14.0506
-14.0683
-14.0849
-14.1006
-14.1153
-14.1291
-14.1421
-14.1542
-14.1656
-14.1761
-14.1858
-14.1948
-14.203
-14.2105
-14.2172
-14.2232
-14.2285
-14.2331
-14.2369
-14.24
-14.2425
-14.2442
-14.2453
-14.1774
-14.2121
-14.1809
-14.1377
-14.1085
-14.0973
-14.0939
-14.094
-14.0969
-14.1021
-14.1087
-14.1162
-14.1243
-14.1328
-14.1414
-14.1501
-14.1586
-14.1668
-14.1748
-14.1823
-14.1895
-14.1961
-14.2023
-14.2079
-14.213
-14.2175
-14.2214
-14.2247
-14.2274
-14.2295
-14.231
-14.2318
-14.2321
-13.6851
-13.5654
-13.6276
-13.7289
-13.8024
-13.8533
-13.8962
-13.9336
-13.9659
-13.9942
-14.0192
-14.0417
-14.0621
-14.0805
-14.0974
-14.1128
-14.1269
-14.1399
-14.1518
-14.1627
-14.1726
-14.1816
-14.1897
-14.1969
-14.2033
-14.2089
-14.2137
-14.2177
-14.221
-14.2235
-14.2253
-14.2263
-14.2266
-14.8993
-14.5603
-14.2963
-14.1787
-14.1283
-14.1025
-14.0867
-14.0797
-14.079
-14.082
-14.0874
-14.0944
-14.1024
-14.1109
-14.1197
-14.1286
-14.1374
-14.1459
-14.154
-14.1618
-14.1691
-14.1759
-14.1822
-14.1878
-14.1929
-14.1973
-14.2012
-14.2043
-14.2069
-14.2088
-14.2101
-14.2107
-14.2107
-12.3955
-13.1021
-13.5063
-13.6583
-13.7624
-13.8442
-13.903
-13.9471
-13.9826
-14.0119
-14.0365
-14.0577
-14.0764
-14.093
-14.1081
-14.1217
-14.1341
-14.1455
-14.1559
-14.1654
-14.174
-14.1817
-14.1887
-14.1948
-14.2002
-14.2048
-14.2087
-14.2118
-14.2142
-14.2159
-14.2169
-14.2171
-14.2167
-14.5051
-14.7357
-14.8891
-14.9759
-15.0294
-15.066
-15.0987
-15.1389
-15.194
-15.2653
-15.3511
-15.449
-15.555
-15.6648
-15.7744
-15.8798
-15.9779
-16.0664
-16.1433
-16.2074
-16.2578
-16.294
-16.3158
-16.3231
-16.3158
-16.2935
-16.2559
-16.2024
-16.1325
-16.0453
-15.94
-15.8159
-15.6719
-15.5076
-15.3222
-15.1154
-14.8868
-14.6366
-14.3649
-14.0725
-13.7601
-13.4291
-13.0811
-12.7179
-12.3418
-11.9552
-11.5605
-11.1603
-10.7573
-10.3536
-9.95173
-9.55341
-9.16025
-8.77339
-8.39353
-8.02091
-7.65532
-7.29615
-6.94238
-6.59273
-6.24569
-5.89964
-5.55296
-5.20419
-4.85209
-4.49587
-4.13528
-3.77079
-3.40377
-3.03653
-2.67245
-2.31582
-1.97162
-1.64496
-1.34063
-1.06263
-0.813955
-0.59641
-0.410565
-0.25578
-0.130358
-0.0317809
0.0430083
0.0973273
0.134513
0.157733
0.169868
0.173423
0.170543
0.162936
0.152055
0.138825
0.124302
0.108488
0.0928074
0.0753951
0.0603983
0.0400946
0.0295367
-0.000584815
-15.1216
-15.2531
-15.1784
-15.1061
-15.0636
-15.0323
-15.0258
-15.0419
-15.0853
-15.1547
-15.2452
-15.3515
-15.4674
-15.5866
-15.7039
-15.8146
-15.9155
-16.0043
-16.0798
-16.1414
-16.1889
-16.2222
-16.2415
-16.2466
-16.2374
-16.2135
-16.1746
-16.12
-16.0491
-15.9611
-15.8553
-15.7308
-15.5869
-15.4229
-15.2383
-15.0327
-14.8058
-14.5577
-14.2887
-13.9993
-13.6906
-13.3636
-13.0201
-12.6618
-12.2908
-11.9094
-11.5201
-11.1253
-10.7274
-10.3289
-9.93171
-9.53781
-9.14868
-8.76542
-8.38871
-8.01881
-7.65551
-7.29823
-6.94599
-6.59756
-6.25147
-5.90616
-5.56008
-5.21181
-4.86022
-4.50461
-4.14489
-3.78169
-3.41656
-3.05196
-2.69133
-2.33884
-1.99913
-1.67684
-1.37634
-1.10135
-0.854695
-0.638155
-0.45233
-0.296677
-0.169638
-0.0688599
0.00854428
0.0657304
0.105896
0.132095
0.147121
0.153422
0.153102
0.147852
0.139122
0.127838
0.115077
0.100845
0.0866309
0.0704991
0.0568277
0.0374598
0.0284434
-0.00159413
-14.7964
-14.7927
-14.8145
-14.8734
-14.9343
-14.9815
-15.0158
-15.0578
-15.1103
-15.1742
-15.2499
-15.3364
-15.431
-15.5304
-15.631
-15.7294
-15.8226
-15.9078
-15.9827
-16.0456
-16.0952
-16.1308
-16.1519
-16.1582
-16.1495
-16.1256
-16.0862
-16.0309
-15.9593
-15.8707
-15.7644
-15.6398
-15.4961
-15.3327
-15.1492
-14.9451
-14.7202
-14.4747
-14.2088
-13.923
-13.6183
-13.2959
-12.9573
-12.6042
-12.2387
-11.8629
-11.4792
-11.09
-10.6975
-10.3041
-9.91171
-9.52219
-9.13697
-8.75712
-8.38334
-8.01585
-7.65451
-7.29875
-6.94765
-6.60003
-6.25451
-5.90959
-5.56383
-5.21592
-4.86486
-4.51012
-4.15174
-3.79053
-3.42814
-3.06708
-2.71065
-2.36278
-2.0277
-1.70972
-1.41291
-1.14078
-0.896069
-0.680495
-0.494687
-0.338185
-0.209557
-0.106607
-0.0266097
0.0334323
0.0765789
0.105769
0.123712
0.132792
0.135076
0.132232
0.125705
0.116421
0.105478
0.0928835
0.0801858
0.0653867
0.0530841
0.0347046
0.0272527
-0.00263078
-14.8559
-14.977
-15.0422
-15.0608
-15.0558
-15.0449
-15.0428
-15.0652
-15.1038
-15.1576
-15.2271
-15.3096
-15.4011
-15.4972
-15.5935
-15.6863
-15.7724
-15.8495
-15.916
-15.9709
-16.0133
-16.0429
-16.0594
-16.0623
-16.0513
-16.0259
-15.9858
-15.9302
-15.8585
-15.77
-15.6642
-15.5401
-15.3973
-15.2352
-15.0532
-14.8511
-14.6287
-14.3861
-14.1236
-13.8418
-13.5415
-13.224
-12.8905
-12.543
-12.1832
-11.8132
-11.4354
-11.0519
-10.665
-10.2768
-9.88933
-9.50424
-9.12295
-8.7465
-8.37556
-8.01039
-7.65086
-7.29646
-6.94634
-6.59941
-6.25436
-5.90985
-5.56452
-5.21722
-4.86711
-4.51377
-4.1574
-3.7989
-3.43993
-3.08293
-2.73101
-2.3878
-2.05726
-1.74344
-1.45017
-1.18081
-0.937984
-0.723361
-0.537583
-0.380262
-0.250083
-0.144996
-0.0624355
0.000444211
0.0465663
0.0787566
0.0996368
0.111528
0.116456
0.116064
0.111791
0.104562
0.0954917
0.0845887
0.0734607
0.0600461
0.0491585
0.0318165
0.0259643
-0.00370593
-14.8107
-14.8559
-14.8658
-14.8767
-14.9038
-14.9463
-14.9892
-15.0301
-15.0793
-15.1387
-15.208
-15.2856
-15.3688
-15.4549
-15.5411
-15.6245
-15.7029
-15.7741
-15.8362
-15.888
-15.9281
-15.9558
-15.9704
-15.9714
-15.9584
-15.931
-15.8888
-15.8313
-15.758
-15.6683
-15.5615
-15.4371
-15.2944
-15.1328
-14.952
-14.7516
-14.5315
-14.2918
-14.0327
-13.7549
-13.4591
-13.1465
-12.8185
-12.4766
-12.1227
-11.7588
-11.387
-11.0095
-10.6283
-10.2456
-9.86322
-9.48273
-9.10553
-8.73262
-8.36465
-8.00192
-7.64431
-7.29138
-6.94237
-6.59626
-6.2519
-5.90804
-5.56349
-5.21722
-4.86852
-4.51711
-4.16328
-3.80795
-3.45273
-3.09994
-2.75249
-2.41382
-2.08766
-1.77784
-1.488
-1.22135
-0.98037
-0.766696
-0.580968
-0.42286
-0.29117
-0.183985
-0.0988932
-0.033197
0.0158921
0.0510871
0.0749213
0.0896514
0.0972597
0.0993645
0.097393
0.09227
0.0851263
0.0759686
0.0664618
0.0544826
0.045056
0.0288003
0.0245845
-0.00481579
-14.7954
-14.8547
-14.9039
-14.9467
-14.9784
-14.9917
-15.0114
-15.0413
-15.0814
-15.1319
-15.1923
-15.2612
-15.3363
-15.4149
-15.494
-15.5708
-15.6427
-15.7075
-15.7636
-15.8094
-15.8442
-15.8671
-15.8775
-15.875
-15.8591
-15.8294
-15.7854
-15.7265
-15.6522
-15.5617
-15.4546
-15.3301
-15.1877
-15.0269
-14.8473
-14.6486
-14.4308
-14.1938
-13.9382
-13.6643
-13.373
-13.0653
-12.7426
-12.4064
-12.0585
-11.7006
-11.335
-10.9635
-10.5883
-10.2112
-9.83402
-9.45833
-9.0854
-8.71623
-8.35145
-7.99135
-7.63588
-7.28465
-6.93698
-6.59198
-6.24859
-5.9057
-5.56226
-5.21737
-4.87044
-4.52128
-4.17022
-3.81818
-3.46673
-3.11806
-2.77496
-2.44067
-2.11875
-1.81282
-1.52633
-1.26232
-1.02318
-0.810455
-0.624801
-0.465944
-0.332785
-0.223544
-0.135955
-0.0674667
-0.0154227
0.0227781
0.0495799
0.0671736
0.0774965
0.082139
0.0825164
0.0795496
0.0743837
0.067024
0.0591894
0.0486964
0.0407767
0.0256563
0.0231159
-0.00596018
-14.7774
-14.8252
-14.8596
-14.8832
-14.9057
-14.9392
-14.9726
-15.0105
-15.055
-15.1067
-15.1657
-15.231
-15.3008
-15.3728
-15.4447
-15.5142
-15.579
-15.6374
-15.6878
-15.7287
-15.7592
-15.7784
-15.7857
-15.7803
-15.7618
-15.7298
-15.6836
-15.6229
-15.5469
-15.4552
-15.3472
-15.2222
-15.0798
-14.9196
-14.741
-14.544
-14.3284
-14.0943
-13.842
-13.572
-13.2852
-12.9826
-12.6653
-12.3348
-11.9929
-11.6413
-11.2819
-10.9165
-10.5473
-10.1758
-9.80397
-9.43314
-9.06457
-8.69921
-8.33771
-7.98037
-7.62716
-7.27777
-6.93161
-6.58789
-6.24565
-5.90393
-5.56179
-5.21845
-4.87342
-4.52659
-4.17832
-3.82953
-3.48176
-3.13711
-2.79823
-2.46822
-2.15043
-1.84829
-1.56509
-1.30369
-1.06636
-0.854601
-0.669046
-0.509478
-0.374893
-0.263639
-0.173592
-0.10234
-0.0473565
-0.00615234
0.0236276
0.0441066
0.0571753
0.0643945
0.0671655
0.0664036
0.063266
0.057756
0.051644
0.0426878
0.0363208
0.0223848
0.0215608
-0.00714003
-14.7606
-14.8046
-14.8425
-14.8772
-14.9084
-14.9383
-14.9685
-15.0028
-15.0432
-15.0902
-15.1436
-15.2026
-15.2655
-15.3305
-15.3955
-15.4583
-15.5168
-15.5692
-15.6141
-15.65
-15.676
-15.6911
-15.6946
-15.686
-15.6646
-15.6301
-15.5818
-15.5192
-15.4418
-15.3491
-15.2404
-15.1151
-14.9729
-14.8133
-14.6359
-14.4405
-14.2272
-13.9959
-13.747
-13.481
-13.1987
-12.9009
-12.589
-12.2643
-11.9283
-11.5828
-11.2294
-10.8702
-10.5067
-10.1409
-9.77426
-9.40822
-9.04396
-8.68241
-8.32419
-7.96962
-7.61873
-7.27126
-6.92669
-6.58434
-6.24337
-5.90291
-5.56216
-5.22044
-4.87735
-4.53286
-4.18736
-3.84179
-3.49764
-3.15692
-2.82218
-2.49635
-2.18261
-1.88421
-1.60424
-1.34542
-1.10989
-0.899097
-0.713666
-0.553425
-0.41746
-0.30424
-0.211774
-0.137789
-0.0798851
-0.0356834
-0.00291855
0.0204645
0.0363077
0.0461402
0.0513475
0.0528374
0.0517771
0.0481675
0.0438275
0.0364581
0.0316896
0.0189865
0.0199222
-0.0083565
-14.7441
-14.7841
-14.8197
-14.8508
-14.8811
-14.9111
-14.9432
-14.9788
-15.0191
-15.0645
-15.1148
-15.1695
-15.2272
-15.2864
-15.3451
-15.4016
-15.4539
-15.5006
-15.54
-15.571
-15.5926
-15.6038
-15.6039
-15.5922
-15.5682
-15.5313
-15.4809
-15.4166
-15.3379
-15.244
-15.1346
-15.0092
-14.8671
-14.7082
-14.532
-14.3383
-14.1272
-13.8987
-13.6532
-13.3912
-13.1132
-12.8204
-12.5138
-12.1946
-11.8644
-11.5248
-11.1775
-10.8241
-10.4665
-10.1061
-9.74461
-9.38329
-9.0233
-8.66553
-8.3106
-7.95884
-7.61032
-7.26484
-6.92196
-6.58107
-6.24146
-5.90238
-5.5631
-5.22307
-4.88199
-4.53987
-4.19716
-3.8548
-3.51422
-3.17739
-2.84673
-2.52502
-2.21526
-1.92053
-1.64374
-1.38746
-1.15373
-0.943906
-0.758624
-0.597749
-0.460449
-0.345309
-0.250467
-0.173784
-0.112982
-0.0657922
-0.0300388
-0.00373616
0.0149072
0.0273873
0.0350711
0.0388581
0.0399227
0.038263
0.0357437
0.0300101
0.0268858
0.015463
0.018204
-0.0096109
-14.7275
-14.7646
-14.7991
-14.8311
-14.8622
-14.8931
-14.9251
-14.9597
-14.9979
-15.0402
-15.0865
-15.1363
-15.1885
-15.2417
-15.2944
-15.3447
-15.3912
-15.4323
-15.4665
-15.4928
-15.51
-15.5172
-15.5138
-15.499
-15.4723
-15.433
-15.3806
-15.3146
-15.2345
-15.1397
-15.0297
-14.904
-14.7623
-14.604
-14.4291
-14.2372
-14.0283
-13.8027
-13.5605
-13.3023
-13.0287
-12.7407
-12.4392
-12.1255
-11.801
-11.4672
-11.1257
-10.7781
-10.4261
-10.0711
-9.71466
-9.35801
-9.00226
-8.64826
-8.29664
-7.94774
-7.60166
-7.25825
-6.91715
-6.57785
-6.23972
-5.90211
-5.56442
-5.22619
-4.88718
-4.54749
-4.20761
-3.86846
-3.53145
-3.19848
-2.87184
-2.55418
-2.24835
-1.95723
-1.68357
-1.42979
-1.19783
-0.988991
-0.803882
-0.64241
-0.503823
-0.386811
-0.289639
-0.210293
-0.146619
-0.096454
-0.0577118
-0.0284773
-0.00701089
0.00814836
0.0183472
0.0244745
0.02771
0.0280483
0.0273972
0.0233477
0.0219129
0.0118168
0.0164102
-0.0109047
-14.7109
-14.7454
-14.7784
-14.8096
-14.84
-14.8705
-14.902
-14.9357
-14.9723
-15.0121
-15.0551
-15.1006
-15.148
-15.1958
-15.2428
-15.2875
-15.3284
-15.3641
-15.3933
-15.4149
-15.4278
-15.4312
-15.4243
-15.4065
-15.377
-15.3354
-15.281
-15.2134
-15.1319
-15.0362
-14.9256
-14.7998
-14.6583
-14.5008
-14.3271
-14.1369
-13.9303
-13.7075
-13.4686
-13.2142
-12.9449
-12.6615
-12.365
-12.0567
-11.7377
-11.4096
-11.0739
-10.7319
-10.3854
-10.0357
-9.68423
-9.3322
-8.98066
-8.63045
-8.28216
-7.93617
-7.5926
-7.25136
-6.91216
-6.57456
-6.23803
-5.90203
-5.56604
-5.2297
-4.89287
-4.55568
-4.21865
-3.88273
-3.54929
-3.22014
-2.89748
-2.58382
-2.28184
-1.99426
-1.72368
-1.47238
-1.24217
-1.03432
-0.849402
-0.687371
-0.547542
-0.428709
-0.329253
-0.247285
-0.180767
-0.127643
-0.0859148
-0.0537392
-0.0294295
-0.011562
0.00118788
0.00969702
0.0151478
0.0175309
0.0187943
0.0164762
0.0167754
0.00805095
0.0145456
-0.0122394
-14.694
-14.7264
-14.7579
-14.7883
-14.8182
-14.8481
-14.879
-14.9114
-14.946
-14.9831
-15.0226
-15.064
-15.1065
-15.1492
-15.1909
-15.2301
-15.2656
-15.2961
-15.3205
-15.3375
-15.3463
-15.3459
-15.3356
-15.3147
-15.2825
-15.2386
-15.1822
-15.1129
-15.0301
-14.9335
-14.8224
-14.6964
-14.5552
-14.3985
-14.226
-14.0376
-13.8332
-13.6131
-13.3775
-13.1268
-12.8616
-12.5828
-12.2913
-11.9881
-11.6746
-11.352
-11.0218
-10.6855
-10.3443
-9.99982
-9.65326
-9.3058
-8.95845
-8.61202
-8.2671
-7.92407
-7.5831
-7.24412
-6.90693
-6.57116
-6.23637
-5.9021
-5.56794
-5.2336
-4.89902
-4.56439
-4.23028
-3.8976
-3.56772
-3.24236
-2.92363
-2.6139
-2.3157
-2.03161
-1.76405
-1.51518
-1.28672
-1.07984
-0.895146
-0.732592
-0.59157
-0.470965
-0.369275
-0.284725
-0.215395
-0.15933
-0.114623
-0.0795
-0.05233
-0.0317275
-0.0163927
-0.00546226
0.00224652
0.00671971
0.0099427
0.00940196
0.0114792
0.00416962
0.0126155
-0.0136163
-14.677
-14.7074
-14.7374
-14.7666
-14.7955
-14.8246
-14.8543
-14.8852
-14.9178
-14.9522
-14.9884
-15.0258
-15.064
-15.1018
-15.1384
-15.1725
-15.2029
-15.2284
-15.2481
-15.2607
-15.2654
-15.2613
-15.2476
-15.2237
-15.1888
-15.1425
-15.0842
-15.0133
-14.9292
-14.8317
-14.72
-14.594
-14.4531
-14.2971
-14.1258
-13.9391
-13.737
-13.5195
-13.2871
-13.04
-12.7789
-12.5046
-12.2178
-11.9198
-11.6115
-11.2944
-10.9696
-10.6387
-10.3028
-9.96342
-9.62171
-9.27878
-8.9356
-8.59296
-8.25145
-7.91145
-7.57314
-7.23654
-6.90147
-6.56766
-6.23473
-5.90232
-5.57009
-5.23787
-4.90563
-4.57363
-4.24246
-3.91305
-3.5867
-3.2651
-2.95025
-2.64438
-2.34991
-2.06923
-1.80464
-1.55816
-1.33142
-1.12553
-0.941074
-0.778035
-0.635865
-0.513541
-0.409665
-0.322579
-0.25047
-0.191487
-0.14381
-0.105736
-0.0756916
-0.0523301
-0.0343788
-0.0209895
-0.0109817
-0.0043747
0.000851505
0.0021329
0.00603102
0.000177898
0.0106257
-0.0150366
-14.6596
-14.6882
-14.7166
-14.7446
-14.7724
-14.8003
-14.8287
-14.8579
-14.8884
-14.9201
-14.953
-14.9867
-15.0205
-15.0538
-15.0856
-15.1147
-15.1403
-15.1611
-15.1761
-15.1845
-15.1852
-15.1774
-15.1604
-15.1335
-15.096
-15.0474
-14.9871
-14.9146
-14.8293
-14.7308
-14.6187
-14.4925
-14.352
-14.1968
-14.0267
-13.8416
-13.6417
-13.4268
-13.1975
-12.9539
-12.6968
-12.4268
-12.1448
-11.8516
-11.5485
-11.2366
-10.9172
-10.5915
-10.2609
-9.92652
-9.58958
-9.25114
-8.91212
-8.57328
-8.2352
-7.89829
-7.56274
-7.22861
-6.89578
-6.56404
-6.2331
-5.90267
-5.57251
-5.24249
-4.91268
-4.58338
-4.25519
-3.92905
-3.60623
-3.28835
-2.97731
-2.67525
-2.38442
-2.10709
-1.84541
-1.60129
-1.37624
-1.17134
-0.987145
-0.823656
-0.680386
-0.556396
-0.450387
-0.36081
-0.28596
-0.224083
-0.173447
-0.132423
-0.099492
-0.0733499
-0.0527528
-0.0368691
-0.0245232
-0.0157401
-0.00846867
-0.00532174
0.000438923
-0.00391813
0.00858243
-0.016501
-14.6418
-14.6688
-14.6956
-14.7222
-14.7487
-14.7752
-14.8021
-14.8295
-14.8577
-14.8868
-14.9165
-14.9465
-14.9763
-15.0053
-15.0324
-15.0569
-15.0778
-15.0941
-15.1048
-15.1089
-15.1057
-15.0944
-15.0741
-15.0443
-15.0042
-14.9533
-14.8911
-14.8169
-14.7304
-14.631
-14.5184
-14.3921
-14.2519
-14.0974
-13.9285
-13.7452
-13.5473
-13.335
-13.1087
-12.8686
-12.6153
-12.3496
-12.072
-11.7837
-11.4856
-11.1789
-10.8647
-10.5441
-10.2186
-9.88913
-9.5569
-9.2229
-8.88802
-8.55298
-8.21838
-7.88461
-7.5519
-7.22033
-6.88986
-6.56031
-6.23149
-5.90317
-5.57518
-5.24747
-4.92017
-4.59362
-4.26844
-3.94557
-3.62626
-3.31206
-3.00478
-2.70645
-2.4192
-2.14515
-1.88633
-1.64451
-1.42115
-1.21724
-1.03332
-0.869416
-0.725094
-0.59949
-0.491401
-0.399381
-0.321828
-0.257085
-0.203506
-0.159534
-0.123707
-0.0947652
-0.0714951
-0.0530835
-0.0383624
-0.0273628
-0.0180057
-0.0129513
-0.00528806
-0.00811127
0.0064923
-0.0180093
-14.6237
-14.6491
-14.6743
-14.6994
-14.7244
-14.7494
-14.7746
-14.8001
-14.8261
-14.8524
-14.879
-14.9055
-14.9315
-14.9563
-14.9791
-14.9992
-15.0156
-15.0275
-15.0339
-15.0341
-15.0271
-15.0123
-14.9888
-14.9561
-14.9134
-14.8603
-14.7961
-14.7204
-14.6326
-14.5324
-14.4193
-14.2929
-14.153
-13.9992
-13.8315
-13.6497
-13.4539
-13.2442
-13.0207
-12.784
-12.5345
-12.2728
-11.9997
-11.7161
-11.4229
-11.1211
-10.8119
-10.4965
-10.1759
-9.85128
-9.52368
-9.19408
-8.86331
-8.53209
-8.20099
-7.87042
-7.54063
-7.21173
-6.88371
-6.55648
-6.2299
-5.9038
-5.57809
-5.25279
-4.92807
-4.60432
-4.28219
-3.9626
-3.64677
-3.3362
-3.03262
-2.73795
-2.4542
-2.18336
-1.92734
-1.6878
-1.46609
-1.26317
-1.07955
-0.91527
-0.769945
-0.642782
-0.532668
-0.438253
-0.358039
-0.29046
-0.233955
-0.18704
-0.148311
-0.116552
-0.0905845
-0.0696136
-0.0524819
-0.039227
-0.027746
-0.0207436
-0.0111398
-0.0123932
0.00436194
-0.0195608
-14.6052
-14.629
-14.6527
-14.6762
-14.6997
-14.723
-14.7464
-14.7699
-14.7935
-14.8172
-14.8407
-14.8639
-14.8861
-14.9069
-14.9257
-14.9415
-14.9537
-14.9614
-14.9638
-14.96
-14.9494
-14.9312
-14.9046
-14.869
-14.8238
-14.7684
-14.7024
-14.6251
-14.5361
-14.435
-14.3214
-14.1949
-14.0553
-13.9023
-13.7357
-13.5555
-13.3616
-13.1543
-12.9337
-12.7003
-12.4544
-12.1967
-11.9279
-11.6488
-11.3603
-11.0634
-10.7591
-10.4486
-10.1329
-9.81299
-9.48996
-9.16471
-8.83803
-8.51063
-8.18307
-7.85574
-7.52894
-7.2028
-6.87735
-6.55256
-6.22832
-5.90456
-5.58124
-5.25844
-4.93637
-4.61547
-4.2964
-3.98008
-3.66771
-3.36073
-3.06079
-2.76971
-2.48938
-2.22169
-1.9684
-1.73109
-1.51102
-1.30909
-1.12579
-0.961178
-0.814899
-0.686231
-0.574146
-0.47739
-0.394556
-0.324173
-0.264762
-0.214911
-0.173275
-0.138686
-0.109998
-0.0864382
-0.0668627
-0.0513156
-0.0376743
-0.028685
-0.0171053
-0.0167543
0.00219803
-0.0211531
-14.5863
-14.6085
-14.6306
-14.6526
-14.6744
-14.696
-14.7175
-14.7389
-14.7602
-14.7812
-14.8018
-14.8216
-14.8404
-14.8574
-14.8722
-14.884
-14.8921
-14.8958
-14.8943
-14.8868
-14.8727
-14.8511
-14.8214
-14.7831
-14.7354
-14.6779
-14.6099
-14.5311
-14.441
-14.339
-14.2249
-14.0983
-13.959
-13.8066
-13.6411
-13.4624
-13.2705
-13.0655
-12.8477
-12.6174
-12.3751
-12.1212
-11.8565
-11.5818
-11.2979
-11.0057
-10.7062
-10.4005
-10.0895
-9.7743
-9.45577
-9.13482
-8.81221
-8.48863
-8.16463
-7.84061
-7.51686
-7.19357
-6.8708
-6.54854
-6.22677
-5.90546
-5.58463
-5.2644
-4.94505
-4.62704
-4.31104
-3.99799
-3.68905
-3.3856
-3.08924
-2.80167
-2.5247
-2.26008
-2.00948
-1.77436
-1.55591
-1.35497
-1.17201
-1.0071
-0.859911
-0.729794
-0.615796
-0.51675
-0.431341
-0.358188
-0.295894
-0.243116
-0.198572
-0.161139
-0.12971
-0.103534
-0.0814838
-0.0636093
-0.0477738
-0.0367603
-0.0231723
-0.0211836
7.17107e-06
-0.0227828
-14.5671
-14.5877
-14.6082
-14.6286
-14.6487
-14.6685
-14.6881
-14.7073
-14.7262
-14.7446
-14.7623
-14.779
-14.7943
-14.8078
-14.8188
-14.8267
-14.831
-14.8309
-14.8256
-14.8145
-14.7969
-14.7721
-14.7395
-14.6985
-14.6484
-14.5887
-14.5189
-14.4386
-14.3472
-14.2445
-14.1299
-14.0032
-13.8641
-13.7124
-13.5479
-13.3707
-13.1807
-12.978
-12.7628
-12.5356
-12.2966
-12.0464
-11.7858
-11.5153
-11.2358
-10.9482
-10.6534
-10.3523
-10.046
-9.73528
-9.42116
-9.10445
-8.78589
-8.46613
-8.1457
-7.82503
-7.50442
-7.18406
-6.86405
-6.54445
-6.22525
-5.90649
-5.58824
-5.27066
-4.95409
-4.639
-4.3261
-4.0163
-3.71074
-3.41077
-3.11791
-2.83379
-2.56009
-2.29848
-2.05051
-1.81754
-1.60069
-1.40075
-1.21815
-1.05298
-0.90494
-0.773431
-0.657577
-0.556294
-0.468357
-0.392469
-0.327314
-0.271621
-0.224169
-0.183883
-0.149694
-0.120877
-0.0963223
-0.076087
-0.0580262
-0.0449525
-0.0293277
-0.0256684
-0.00220419
-0.024444