/*--------------------------------*- C++ -*----------------------------------*\
| =========                 |                                                 |
| \\      /  F ield         | OpenFOAM: The Open Source CFD Toolbox           |
|  \\    /   O peration     | Version:  2.1.1                                 |
|   \\  /    A nd           | Web:      www.OpenFOAM.org                      |
|    \\/     M anipulation  |                                                 |
\*---------------------------------------------------------------------------*/
FoamFile
{
    version     2.0;
    format      ascii;
    class       surfaceScalarField;
    location    "0.12";
    object      phi;
}
// * * * * * * * * * * * * * * * * * * * * * * * * * * * * * * * * * * * * * //

dimensions      [0 3 -1 0 0 0 0];

internalField   nonuniform List<scalar> 
13452
(
6.89923e-05
-5.05072e-07
6.88137e-05
1.78594e-07
6.82026e-05
6.11157e-07
6.72555e-05
9.47106e-07
6.61793e-05
1.07615e-06
6.50883e-05
1.09102e-06
6.40242e-05
1.06413e-06
6.30043e-05
1.01992e-06
6.20369e-05
9.67344e-07
6.11256e-05
9.11307e-07
6.02714e-05
8.54223e-07
5.94738e-05
7.9754e-07
5.87316e-05
7.42205e-07
5.80428e-05
6.88879e-07
5.74048e-05
6.38008e-07
5.68149e-05
5.89872e-07
5.62703e-05
5.44623e-07
5.57679e-05
5.02317e-07
5.5305e-05
4.62933e-07
5.48786e-05
4.26404e-07
5.4486e-05
3.9263e-07
5.41245e-05
3.61497e-07
5.37916e-05
3.329e-07
5.34848e-05
3.06755e-07
5.32018e-05
2.83044e-07
5.29399e-05
2.61858e-07
5.26964e-05
2.435e-07
5.24676e-05
2.28809e-07
5.22483e-05
2.19289e-07
5.20282e-05
2.20151e-07
5.17891e-05
2.39063e-07
5.1482e-05
3.07059e-07
4.97748e-07
5.09843e-05
7.0165e-05
-2.26086e-07
7.00412e-05
3.02392e-07
7.01818e-05
4.70496e-07
7.05092e-05
6.1973e-07
7.08598e-05
7.25533e-07
7.11589e-05
7.91952e-07
7.13838e-05
8.39233e-07
7.15362e-05
8.67525e-07
7.1624e-05
8.7952e-07
7.16561e-05
8.79196e-07
7.16408e-05
8.695e-07
7.15856e-05
8.5276e-07
7.1497e-05
8.3078e-07
7.13809e-05
8.05026e-07
7.12422e-05
7.76671e-07
7.10855e-05
7.46653e-07
7.09144e-05
7.15717e-07
7.07322e-05
6.8445e-07
7.05419e-05
6.53305e-07
7.03456e-05
6.22631e-07
7.01456e-05
5.92694e-07
6.99434e-05
5.637e-07
6.97404e-05
5.3582e-07
6.9538e-05
5.09212e-07
6.9337e-05
4.84063e-07
6.91382e-05
4.60613e-07
6.89424e-05
4.39325e-07
6.87504e-05
4.20758e-07
6.85631e-05
4.06586e-07
6.83858e-05
3.97501e-07
6.82243e-05
4.00545e-07
6.81282e-05
4.03142e-07
4.33606e-07
6.81924e-05
7.22816e-05
-5.11951e-08
7.23969e-05
1.87153e-07
7.25019e-05
3.65528e-07
7.25886e-05
5.32969e-07
7.26722e-05
6.41969e-07
7.27546e-05
7.09577e-07
7.28411e-05
7.52681e-07
7.29283e-05
7.80334e-07
7.30121e-05
7.95712e-07
7.30899e-05
8.01363e-07
7.31602e-05
7.99241e-07
7.3222e-05
7.90916e-07
7.32752e-05
7.77667e-07
7.33196e-05
7.60607e-07
7.33556e-05
7.40678e-07
7.33836e-05
7.18665e-07
7.3404e-05
6.95219e-07
7.34176e-05
6.70871e-07
7.34249e-05
6.46051e-07
7.34264e-05
6.21104e-07
7.34228e-05
5.96311e-07
7.34146e-05
5.71901e-07
7.34023e-05
5.48078e-07
7.33865e-05
5.25035e-07
7.33676e-05
5.02994e-07
7.3346e-05
4.82218e-07
7.33222e-05
4.63146e-07
7.32967e-05
4.46236e-07
7.32705e-05
4.32744e-07
7.32454e-05
4.22648e-07
7.32252e-05
4.20672e-07
7.32119e-05
4.16472e-07
4.37684e-07
7.32078e-05
7.45185e-05
-4.30958e-08
7.44883e-05
2.17392e-07
7.4477e-05
3.76852e-07
7.45167e-05
4.93206e-07
7.45773e-05
5.8143e-07
7.46439e-05
6.42913e-07
7.47102e-05
6.86432e-07
7.47745e-05
7.1604e-07
7.48365e-05
7.33688e-07
7.48961e-05
7.41742e-07
7.49531e-05
7.42225e-07
7.50074e-05
7.36694e-07
7.50586e-05
7.2639e-07
7.51069e-05
7.12371e-07
7.5152e-05
6.95512e-07
7.51942e-05
6.76538e-07
7.52333e-05
6.56046e-07
7.52697e-05
6.34528e-07
7.53033e-05
6.12384e-07
7.53345e-05
5.89939e-07
7.53634e-05
5.67461e-07
7.53901e-05
5.45173e-07
7.54149e-05
5.23274e-07
7.5438e-05
5.01953e-07
7.54595e-05
4.81419e-07
7.54799e-05
4.61902e-07
7.54993e-05
4.43747e-07
7.55182e-05
4.27254e-07
7.55378e-05
4.13146e-07
7.55594e-05
4.01108e-07
7.55873e-05
3.92735e-07
7.56224e-05
3.81435e-07
3.7177e-07
7.56883e-05
7.66036e-05
9.18599e-09
7.66283e-05
1.9262e-07
7.66649e-05
3.40253e-07
7.67033e-05
4.54856e-07
7.67419e-05
5.42785e-07
7.67818e-05
6.03048e-07
7.68241e-05
6.44105e-07
7.68685e-05
6.71663e-07
7.69139e-05
6.88323e-07
7.69594e-05
6.96227e-07
7.70045e-05
6.97142e-07
7.70487e-05
6.92434e-07
7.70919e-05
6.83222e-07
7.71338e-05
6.70463e-07
7.71744e-05
6.5496e-07
7.72135e-05
6.37382e-07
7.72513e-05
6.18285e-07
7.72877e-05
5.98127e-07
7.73228e-05
5.77283e-07
7.73567e-05
5.56061e-07
7.73894e-05
5.34713e-07
7.74211e-05
5.13453e-07
7.74519e-05
4.92466e-07
7.7482e-05
4.71925e-07
7.75114e-05
4.52009e-07
7.75404e-05
4.32899e-07
7.75693e-05
4.1483e-07
7.75986e-05
3.97949e-07
7.76292e-05
3.82571e-07
7.76621e-05
3.68188e-07
7.76997e-05
3.55077e-07
7.77423e-05
3.38844e-07
3.20815e-07
7.77933e-05
7.88312e-05
2.38956e-08
7.88389e-05
1.84897e-07
7.88572e-05
3.2194e-07
7.88863e-05
4.25769e-07
7.8923e-05
5.06163e-07
7.89625e-05
5.63523e-07
7.9003e-05
6.0356e-07
7.90439e-05
6.30788e-07
7.90847e-05
6.47497e-07
7.91253e-05
6.5566e-07
7.91654e-05
6.56993e-07
7.9205e-05
6.52851e-07
7.92439e-05
6.44326e-07
7.9282e-05
6.3234e-07
7.93193e-05
6.17661e-07
7.93558e-05
6.00928e-07
7.93914e-05
5.82669e-07
7.94262e-05
5.63321e-07
7.94603e-05
5.43241e-07
7.94936e-05
5.22722e-07
7.95263e-05
5.02004e-07
7.95585e-05
4.81288e-07
7.95902e-05
4.60745e-07
7.96216e-05
4.40528e-07
7.96528e-05
4.20782e-07
7.96841e-05
4.01632e-07
7.97157e-05
3.83212e-07
7.97481e-05
3.65547e-07
7.9782e-05
3.48669e-07
7.98182e-05
3.32018e-07
7.9858e-05
3.15203e-07
7.99015e-05
2.9541e-07
2.72131e-07
7.99502e-05
8.10848e-05
3.76589e-08
8.10949e-05
1.74798e-07
8.11185e-05
2.98275e-07
8.11495e-05
3.94838e-07
8.11845e-05
4.71177e-07
8.12208e-05
5.27141e-07
8.12579e-05
5.66501e-07
8.12954e-05
5.9326e-07
8.13331e-05
6.09798e-07
8.13707e-05
6.18046e-07
8.14081e-05
6.19653e-07
8.1445e-05
6.15925e-07
8.14814e-05
6.07914e-07
8.15173e-05
5.96504e-07
8.15525e-05
5.82433e-07
8.15871e-05
5.66313e-07
8.16211e-05
5.48651e-07
8.16546e-05
5.29865e-07
8.16875e-05
5.10299e-07
8.172e-05
4.90233e-07
8.17521e-05
4.69897e-07
8.17839e-05
4.49479e-07
8.18155e-05
4.29135e-07
8.18471e-05
4.08997e-07
8.18787e-05
3.89175e-07
8.19106e-05
3.69747e-07
8.1943e-05
3.50764e-07
8.19764e-05
3.32166e-07
8.20112e-05
3.13825e-07
8.2048e-05
2.95201e-07
8.20875e-05
2.75711e-07
8.21294e-05
2.53558e-07
2.27994e-07
8.21735e-05
8.34101e-05
4.30711e-08
8.34202e-05
1.64747e-07
8.34412e-05
2.77246e-07
8.3469e-05
3.67034e-07
8.35017e-05
4.38467e-07
8.35369e-05
4.91952e-07
8.35732e-05
5.30177e-07
8.361e-05
5.56447e-07
8.36469e-05
5.72937e-07
8.36836e-05
5.814e-07
8.37198e-05
5.83369e-07
8.37557e-05
5.80096e-07
8.3791e-05
5.72598e-07
8.38258e-05
5.61733e-07
8.386e-05
5.48212e-07
8.38937e-05
5.32629e-07
8.39268e-05
5.15474e-07
8.39595e-05
4.97152e-07
8.39919e-05
4.77994e-07
8.40238e-05
4.5827e-07
8.40555e-05
4.382e-07
8.4087e-05
4.1796e-07
8.41185e-05
3.97694e-07
8.415e-05
3.77511e-07
8.41816e-05
3.57492e-07
8.42137e-05
3.37678e-07
8.42464e-05
3.18062e-07
8.428e-05
2.98536e-07
8.4315e-05
2.78897e-07
8.43515e-05
2.58674e-07
8.43899e-05
2.37297e-07
8.44298e-05
2.13629e-07
1.87062e-07
8.44708e-05
8.57964e-05
4.54241e-08
8.58063e-05
1.54777e-07
8.58268e-05
2.56818e-07
8.58538e-05
3.40003e-07
8.58855e-05
4.06801e-07
8.59196e-05
4.57775e-07
8.59551e-05
4.94771e-07
8.59911e-05
5.20439e-07
8.60272e-05
5.36756e-07
8.60633e-05
5.45335e-07
8.60991e-05
5.47604e-07
8.61344e-05
5.44744e-07
8.61693e-05
5.37731e-07
8.62036e-05
5.27382e-07
8.62375e-05
5.14384e-07
8.62708e-05
4.99307e-07
8.63036e-05
4.82623e-07
8.63361e-05
4.64724e-07
8.63681e-05
4.4593e-07
8.63999e-05
4.26501e-07
8.64315e-05
4.06646e-07
8.64629e-05
3.86532e-07
8.64943e-05
3.66289e-07
8.65258e-05
3.46009e-07
8.65575e-05
3.25752e-07
8.65897e-05
3.05529e-07
8.66224e-05
2.85301e-07
8.6656e-05
2.6494e-07
8.66907e-05
2.44231e-07
8.67266e-05
2.22787e-07
8.67637e-05
2.00141e-07
8.68018e-05
1.75585e-07
1.48741e-07
8.68401e-05
8.82501e-05
4.53084e-08
8.82603e-05
1.44626e-07
8.82797e-05
2.37353e-07
8.83054e-05
3.14329e-07
8.83356e-05
3.76599e-07
8.83686e-05
4.24774e-07
8.84032e-05
4.60205e-07
8.84386e-05
4.85023e-07
8.84744e-05
5.00987e-07
8.85101e-05
5.09561e-07
8.85457e-05
5.12043e-07
8.85809e-05
5.09537e-07
8.86157e-05
5.02963e-07
8.865e-05
4.93096e-07
8.86837e-05
4.80592e-07
8.87171e-05
4.65996e-07
8.87499e-05
4.49763e-07
8.87824e-05
4.32268e-07
8.88145e-05
4.1382e-07
8.88463e-05
3.94667e-07
8.8878e-05
3.7501e-07
8.89095e-05
3.55007e-07
8.8941e-05
3.34774e-07
8.89726e-05
3.14392e-07
8.90045e-05
2.93903e-07
8.90367e-05
2.73304e-07
8.90694e-05
2.52542e-07
8.91029e-05
2.31491e-07
8.91372e-05
2.09955e-07
8.91723e-05
1.87635e-07
8.92083e-05
1.64187e-07
8.92447e-05
1.39183e-07
1.12434e-07
8.9281e-05
9.07728e-05
4.38162e-08
9.07829e-05
1.34505e-07
9.08015e-05
2.18794e-07
9.0826e-05
2.89763e-07
9.08551e-05
3.47585e-07
9.0887e-05
3.92814e-07
9.09208e-05
4.26476e-07
9.09555e-05
4.50258e-07
9.09908e-05
4.657e-07
9.10262e-05
4.74115e-07
9.10616e-05
4.76687e-07
9.10967e-05
4.74433e-07
9.11315e-05
4.68217e-07
9.11658e-05
4.5877e-07
9.11997e-05
4.46711e-07
9.12331e-05
4.32559e-07
9.12661e-05
4.16748e-07
9.12987e-05
3.99636e-07
9.1331e-05
3.81518e-07
9.13631e-05
3.62632e-07
9.13949e-05
3.4317e-07
9.14267e-05
3.23278e-07
9.14584e-05
3.03065e-07
9.14902e-05
2.82601e-07
9.15221e-05
2.6192e-07
9.15544e-05
2.41012e-07
9.15871e-05
2.19823e-07
9.16204e-05
1.98245e-07
9.16542e-05
1.76117e-07
9.16886e-05
1.53221e-07
9.17235e-05
1.29325e-07
9.17585e-05
1.04184e-07
7.77404e-08
9.17932e-05
9.3367e-05
4.14926e-08
9.3377e-05
1.24439e-07
9.33948e-05
2.01058e-07
9.34183e-05
2.66269e-07
9.34461e-05
3.19747e-07
9.3477e-05
3.61937e-07
9.35098e-05
3.93637e-07
9.35439e-05
4.16194e-07
9.35787e-05
4.30935e-07
9.36137e-05
4.39037e-07
9.36489e-05
4.41565e-07
9.36838e-05
4.39454e-07
9.37185e-05
4.33505e-07
9.37529e-05
4.24403e-07
9.37869e-05
4.12729e-07
9.38205e-05
3.98974e-07
9.38537e-05
3.83548e-07
9.38865e-05
3.66793e-07
9.39191e-05
3.48988e-07
9.39513e-05
3.30361e-07
9.39834e-05
3.11093e-07
9.40154e-05
2.91322e-07
9.40473e-05
2.7115e-07
9.40792e-05
2.5064e-07
9.41113e-05
2.29823e-07
9.41436e-05
2.0869e-07
9.41763e-05
1.87196e-07
9.42093e-05
1.65254e-07
9.42426e-05
1.42747e-07
9.42763e-05
1.19526e-07
9.43102e-05
9.54488e-08
9.4344e-05
7.03881e-08
4.43698e-08
9.43774e-05
9.60349e-05
3.87194e-08
9.60448e-05
1.14516e-07
9.60617e-05
1.84096e-07
9.60842e-05
2.43774e-07
9.6111e-05
2.92998e-07
9.61408e-05
3.32087e-07
9.61728e-05
3.6168e-07
9.62061e-05
3.82853e-07
9.62403e-05
3.96741e-07
9.6275e-05
4.04386e-07
9.63098e-05
4.06743e-07
9.63446e-05
4.04663e-07
9.63792e-05
3.98887e-07
9.64136e-05
3.9005e-07
9.64476e-05
3.78695e-07
9.64813e-05
3.65284e-07
9.65146e-05
3.50203e-07
9.65477e-05
3.33775e-07
9.65804e-05
3.16265e-07
9.66128e-05
2.97889e-07
9.66451e-05
2.78817e-07
9.66773e-05
2.59181e-07
9.67093e-05
2.39077e-07
9.67414e-05
2.18567e-07
9.67736e-05
1.97679e-07
9.68058e-05
1.76411e-07
9.68383e-05
1.54732e-07
9.6871e-05
1.32583e-07
9.69038e-05
1.09882e-07
9.69368e-05
8.65417e-08
9.69698e-05
6.24836e-08
9.70025e-05
3.76581e-08
1.2138e-08
9.70347e-05
9.87787e-05
3.57246e-08
9.87884e-05
1.04788e-07
9.88047e-05
1.67841e-07
9.88263e-05
2.22208e-07
9.8852e-05
2.67269e-07
9.88809e-05
3.03229e-07
9.89119e-05
3.30604e-07
9.89445e-05
3.50257e-07
9.89781e-05
3.63152e-07
9.90123e-05
3.70206e-07
9.90468e-05
3.72271e-07
9.90813e-05
3.70118e-07
9.91158e-05
3.64422e-07
9.91501e-05
3.55772e-07
9.91841e-05
3.44672e-07
9.92178e-05
3.31553e-07
9.92512e-05
3.16778e-07
9.92844e-05
3.00649e-07
9.93172e-05
2.83417e-07
9.93498e-05
2.65285e-07
9.93822e-05
2.46415e-07
9.94145e-05
2.26934e-07
9.94466e-05
2.06931e-07
9.94787e-05
1.86469e-07
9.95108e-05
1.6558e-07
9.95429e-05
1.4427e-07
9.95752e-05
1.22524e-07
9.96074e-05
1.00307e-07
9.96397e-05
7.75731e-08
9.9672e-05
5.42778e-08
9.97041e-05
3.03921e-08
9.97358e-05
5.91332e-09
-1.90611e-08
9.9767e-05
0.000101601
3.26483e-08
0.00010161
9.5299e-08
0.000101626
1.52241e-07
0.000101647
2.01506e-07
0.000101671
2.42492e-07
0.000101699
2.75315e-07
0.00010173
3.00385e-07
0.000101761
3.18404e-07
0.000101794
3.30186e-07
0.000101828
3.36531e-07
0.000101862
3.38193e-07
0.000101896
3.35867e-07
0.000101931
3.30167e-07
0.000101965
3.21631e-07
0.000101999
3.10726e-07
0.000102032
2.97851e-07
0.000102066
2.83344e-07
0.000102099
2.6749e-07
0.000102132
2.50522e-07
0.000102165
2.32633e-07
0.000102197
2.13977e-07
0.000102229
1.94673e-07
0.000102261
1.7481e-07
0.000102293
1.54451e-07
0.000102325
1.33633e-07
0.000102357
1.12372e-07
0.000102389
9.06676e-08
0.000102421
6.85084e-08
0.000102453
4.58773e-08
0.000102484
2.27622e-08
0.000102515
-8.32421e-10
0.000102546
-2.48804e-08
-4.92741e-08
0.000102576
0.000104503
2.95727e-08
0.000104513
8.60754e-08
0.000104528
1.37247e-07
0.000104548
1.81605e-07
0.000104571
2.18605e-07
0.000104599
2.48293e-07
0.000104628
2.70998e-07
0.000104659
2.8729e-07
0.000104691
2.97853e-07
0.000104724
3.03382e-07
0.000104758
3.04543e-07
0.000104792
3.01953e-07
0.000104826
2.96169e-07
0.00010486
2.8768e-07
0.000104894
2.76915e-07
0.000104927
2.64242e-07
0.000104961
2.49973e-07
0.000104994
2.34373e-07
0.000105027
2.17661e-07
0.000105059
2.0002e-07
0.000105092
1.81593e-07
0.000105124
1.62496e-07
0.000105156
1.42816e-07
0.000105188
1.22617e-07
0.000105219
1.01942e-07
0.000105251
8.08178e-08
0.000105282
5.9258e-08
0.000105314
3.72692e-08
0.000105345
1.48572e-08
0.000105375
-7.96634e-09
0.000105406
-3.11746e-08
0.000105436
-5.47249e-08
-7.85074e-08
0.000105465
0.000107489
2.65441e-08
0.000107498
7.71314e-08
0.000107512
1.22816e-07
0.000107532
1.62445e-07
0.000107555
1.95545e-07
0.000107581
2.22114e-07
0.000107609
2.4241e-07
0.00010764
2.56899e-07
0.000107671
2.66154e-07
0.000107704
2.70775e-07
0.000107737
2.71344e-07
0.000107771
2.6841e-07
0.000107805
2.6247e-07
0.000107838
2.53969e-07
0.000107872
2.43295e-07
0.000107905
2.30785e-07
0.000107939
2.16729e-07
0.000107972
2.0137e-07
0.000108004
1.84913e-07
0.000108037
1.67528e-07
0.000108069
1.49352e-07
0.000108101
1.30496e-07
0.000108133
1.11046e-07
0.000108164
9.10671e-08
0.000108196
7.06088e-08
0.000108227
4.97061e-08
0.000108258
2.83851e-08
0.000108288
6.66751e-09
0.000108319
-1.54242e-08
0.000108348
-3.78615e-08
0.000108378
-6.06036e-08
0.000108407
-8.35991e-08
-1.0674e-07
0.000108435
0.00011056
2.35871e-08
0.000110568
6.84704e-08
0.000110582
1.08907e-07
0.000110601
1.43972e-07
0.000110623
1.73256e-07
0.000110649
1.96727e-07
0.000110676
2.14586e-07
0.000110706
2.27211e-07
0.000110737
2.35083e-07
0.000110769
2.38715e-07
0.000110802
2.38615e-07
0.000110835
2.35264e-07
0.000110868
2.29107e-07
0.000110902
2.2054e-07
0.000110935
2.09915e-07
0.000110968
1.97539e-07
0.000111002
1.83676e-07
0.000111034
1.6855e-07
0.000111067
1.52351e-07
0.000111099
1.35238e-07
0.000111131
1.1734e-07
0.000111163
9.87632e-08
0.000111194
7.95928e-08
0.000111226
5.98962e-08
0.000111256
3.97266e-08
0.000111287
1.91268e-08
0.000111317
-1.86709e-09
0.000111347
-2.32221e-08
0.000111377
-4.49036e-08
0.000111406
-6.68719e-08
0.000111434
-8.9078e-08
0.000111462
-1.11466e-07
-1.33934e-07
0.000111489
0.000113718
2.0713e-08
0.000113727
6.00885e-08
0.00011374
9.5484e-08
0.000113758
1.26131e-07
0.00011378
1.51682e-07
0.000113804
1.72082e-07
0.000113831
1.87486e-07
0.00011386
1.98201e-07
0.000113891
2.04628e-07
0.000113922
2.07204e-07
0.000113955
2.06367e-07
0.000113987
2.02538e-07
0.00011402
1.96108e-07
0.000114053
1.87431e-07
0.000114086
1.76822e-07
0.000114119
1.64556e-07
0.000114152
1.50873e-07
0.000114185
1.35979e-07
0.000114217
1.20048e-07
0.000114249
1.03227e-07
0.000114281
8.56381e-08
0.000114312
6.73831e-08
0.000114343
4.85453e-08
0.000114374
2.91931e-08
0.000114404
9.38345e-09
0.000114434
-1.08351e-08
0.000114464
-3.14192e-08
0.000114493
-5.23276e-08
0.000114522
-7.35174e-08
0.00011455
-9.4942e-08
0.000114577
-1.16548e-07
0.000114604
-1.38279e-07
-1.60037e-07
0.00011463
0.000116967
1.79253e-08
0.000116975
5.19759e-08
0.000116988
8.25106e-08
0.000117005
1.08876e-07
0.000117026
1.3077e-07
0.00011705
1.4813e-07
0.000117077
1.6107e-07
0.000117105
1.69841e-07
0.000117135
1.74773e-07
0.000117166
1.76236e-07
0.000117198
1.74606e-07
0.00011723
1.70247e-07
0.000117263
1.635e-07
0.000117295
1.54676e-07
0.000117328
1.44055e-07
0.000117361
1.31883e-07
0.000117393
1.18375e-07
0.000117426
1.03717e-07
0.000117458
8.80695e-08
0.000117489
7.15666e-08
0.000117521
5.43232e-08
0.000117551
3.64358e-08
0.000117582
1.79855e-08
0.000117612
-9.58864e-10
0.000117642
-2.03382e-08
0.000117671
-4.01e-08
0.0001177
-6.0196e-08
0.000117728
-8.05791e-08
0.000117756
-1.01202e-07
0.000117783
-1.22013e-07
0.000117809
-1.42958e-07
0.000117835
-1.63982e-07
-1.84991e-07
0.00011786
0.000120309
1.52229e-08
0.000120317
4.41193e-08
0.000120329
6.99535e-08
0.000120346
9.21579e-08
0.000120366
1.1047e-07
0.000120389
1.24821e-07
0.000120415
1.35296e-07
0.000120443
1.42095e-07
0.000120472
1.45494e-07
0.000120503
1.45798e-07
0.000120534
1.4333e-07
0.000120566
1.38399e-07
0.000120598
1.313e-07
0.00012063
1.22302e-07
0.000120663
1.11651e-07
0.000120695
9.95639e-08
0.000120727
8.62323e-08
0.000120759
7.18227e-08
0.000120791
5.64791e-08
0.000120822
4.03254e-08
0.000120853
2.34677e-08
0.000120883
5.997e-09
0.000120913
-1.20087e-08
0.000120943
-3.04813e-08
0.000120972
-4.93608e-08
0.000121
-6.85925e-08
0.000121028
-8.8125e-08
0.000121056
-1.07908e-07
0.000121082
-1.27892e-07
0.000121108
-1.48024e-07
0.000121134
-1.68249e-07
0.000121158
-1.88513e-07
-2.08731e-07
0.000121182
0.000123746
1.26023e-08
0.000123753
3.65035e-08
0.000123766
5.77804e-08
0.000123782
7.5933e-08
0.000123802
9.07309e-08
0.000123824
1.02105e-07
0.000123849
1.10117e-07
0.000123877
1.14928e-07
0.000123905
1.16762e-07
0.000123935
1.15873e-07
0.000123966
1.12532e-07
0.000123997
1.06997e-07
0.000124029
9.95187e-08
0.000124061
9.03287e-08
0.000124093
7.96379e-08
0.000124125
6.76354e-08
0.000124157
5.44888e-08
0.000124188
4.03454e-08
0.00012422
2.53336e-08
0.00012425
9.56533e-09
0.000124281
-6.86205e-09
0.00012431
-2.38638e-08
0.00012434
-4.13657e-08
0.000124369
-5.93017e-08
0.000124397
-7.76121e-08
0.000124425
-9.62416e-08
0.000124452
-1.15138e-07
0.000124478
-1.34249e-07
0.000124504
-1.53525e-07
0.000124528
-1.72912e-07
0.000124553
-1.92358e-07
0.000124576
-2.11811e-07
-2.3119e-07
0.000124598
0.000127281
1.00586e-08
0.000127288
2.91112e-08
0.0001273
4.59584e-08
0.000127316
6.01557e-08
0.000127335
7.15e-08
0.000127357
7.99265e-08
0.000127382
8.54817e-08
0.000127409
8.82933e-08
0.000127437
8.85422e-08
0.000127466
8.6433e-08
0.000127497
8.21946e-08
0.000127528
7.60356e-08
0.000127559
6.81623e-08
0.000127591
5.87712e-08
0.000127622
4.80396e-08
0.000127654
3.61291e-08
0.000127685
2.3184e-08
0.000127716
9.33162e-09
0.000127747
-5.31506e-09
0.000127777
-2.06566e-08
0.000127807
-3.6605e-08
0.000127836
-5.30824e-08
0.000127865
-7.00193e-08
0.000127893
-8.73527e-08
0.00012792
-1.05025e-07
0.000127947
-1.22981e-07
0.000127973
-1.41169e-07
0.000127998
-1.59538e-07
0.000128023
-1.78037e-07
0.000128046
-1.96616e-07
0.000128069
-2.15222e-07
0.000128091
-2.33809e-07
-2.52299e-07
0.000128112
0.000130917
7.58763e-09
0.000130925
2.19285e-08
0.000130936
3.4462e-08
0.000130951
4.47898e-08
0.00013097
5.27324e-08
0.000130992
5.82351e-08
0.000131016
6.13378e-08
0.000131042
6.21413e-08
0.00013107
6.07898e-08
0.000131099
5.74391e-08
0.000131129
5.22883e-08
0.000131159
4.54923e-08
0.00013119
3.72189e-08
0.000131221
2.76283e-08
0.000131253
1.68645e-08
0.000131284
5.06295e-09
0.000131315
-7.65582e-09
0.000131345
-2.11844e-08
0.000131375
-3.5426e-08
0.000131405
-5.02936e-08
0.000131434
-6.57094e-08
0.000131462
-8.16033e-08
0.00013149
-9.79113e-08
0.000131518
-1.14574e-07
0.000131544
-1.31538e-07
0.00013157
-1.48749e-07
0.000131595
-1.66158e-07
0.000131619
-1.83714e-07
0.000131642
-2.01369e-07
0.000131665
-2.19075e-07
0.000131686
-2.36782e-07
0.000131707
-2.54446e-07
-2.71995e-07
0.000131727
0.000134658
5.18058e-09
0.000134665
1.49322e-08
0.000134676
2.32493e-08
0.000134691
2.9778e-08
0.000134709
3.43618e-08
0.00013473
3.6962e-08
0.000134754
3.76185e-08
0.00013478
3.64111e-08
0.000134807
3.34487e-08
0.000134836
2.88495e-08
0.000134865
2.27936e-08
0.000134895
1.53539e-08
0.000134926
6.68286e-09
0.000134957
-3.0956e-09
0.000134987
-1.38764e-08
0.000135018
-2.55437e-08
0.000135048
-3.80045e-08
0.000135078
-5.11704e-08
0.000135108
-6.49609e-08
0.000135137
-7.93027e-08
0.000135165
-9.41285e-08
0.000135193
-1.09377e-07
0.00013522
-1.24989e-07
0.000135247
-1.40913e-07
0.000135272
-1.57097e-07
0.000135297
-1.73492e-07
0.000135321
-1.9005e-07
0.000135344
-2.06723e-07
0.000135366
-2.23467e-07
0.000135387
-2.40234e-07
0.000135407
-2.56979e-07
0.000135426
-2.73661e-07
-2.90212e-07
0.000135445
0.000138505
2.84881e-09
0.000138511
8.13837e-09
0.000138522
1.23373e-08
0.000138537
1.51217e-08
0.000138555
1.6358e-08
0.000138576
1.60509e-08
0.000138599
1.42538e-08
0.000138625
1.10302e-08
0.000138652
6.45431e-09
0.00013868
5.46208e-10
0.000138709
-6.37887e-09
0.000138739
-1.44517e-08
0.000138769
-2.35e-08
0.000138799
-3.3447e-08
0.00013883
-4.42092e-08
0.00013886
-5.57055e-08
0.00013889
-6.78645e-08
0.000138919
-8.06181e-08
0.000138948
-9.39028e-08
0.000138976
-1.07659e-07
0.000139004
-1.21831e-07
0.000139031
-1.36365e-07
0.000139057
-1.51213e-07
0.000139083
-1.66325e-07
0.000139107
-1.81656e-07
0.000139131
-1.97161e-07
0.000139154
-2.12795e-07
0.000139176
-2.28515e-07
0.000139196
-2.44277e-07
0.000139216
-2.6004e-07
0.000139235
-2.75761e-07
0.000139253
-2.91402e-07
-3.069e-07
0.000139269
0.000142462
5.38475e-10
0.000142468
1.45242e-09
0.000142479
1.59107e-09
0.000142493
7.09298e-10
0.000142511
-1.36454e-09
0.000142532
-4.57951e-09
0.000142555
-8.82867e-09
0.00014258
-1.4079e-08
0.000142607
-2.02713e-08
0.000142635
-2.7357e-08
0.000142663
-3.52403e-08
0.000142693
-4.39239e-08
0.000142723
-5.33338e-08
0.000142753
-6.34175e-08
0.000142783
-7.41265e-08
0.000142812
-8.54103e-08
0.000142842
-9.72203e-08
0.000142871
-1.09509e-07
0.000142899
-1.2223e-07
0.000142927
-1.35338e-07
0.000142954
-1.48789e-07
0.00014298
-1.62541e-07
0.000143005
-1.76551e-07
0.00014303
-1.90778e-07
0.000143053
-2.05182e-07
0.000143076
-2.19722e-07
0.000143097
-2.34359e-07
0.000143118
-2.49053e-07
0.000143137
-2.63764e-07
0.000143156
-2.78454e-07
0.000143173
-2.93085e-07
0.000143189
-3.0762e-07
-3.22004e-07
0.000143204
0.000146531
-1.57536e-09
0.000146538
-4.85233e-09
0.000146548
-8.70598e-09
0.000146562
-1.33893e-08
0.00014658
-1.88751e-08
0.0001466
-2.50479e-08
0.000146623
-3.18112e-08
0.000146648
-3.91172e-08
0.000146675
-4.69305e-08
0.000146703
-5.52421e-08
0.000146731
-6.40184e-08
0.000146761
-7.32669e-08
0.00014679
-8.29791e-08
0.00014682
-9.31393e-08
0.00014685
-1.03731e-07
0.000146879
-1.14734e-07
0.000146908
-1.26124e-07
0.000146936
-1.37874e-07
0.000146964
-1.49956e-07
0.000146991
-1.62339e-07
0.000147017
-1.74991e-07
0.000147043
-1.87881e-07
0.000147067
-2.00974e-07
0.000147091
-2.14237e-07
0.000147113
-2.27635e-07
0.000147134
-2.41133e-07
0.000147155
-2.54697e-07
0.000147174
-2.68291e-07
0.000147192
-2.81881e-07
0.000147209
-2.9543e-07
0.000147225
-3.08906e-07
0.00014724
-3.22276e-07
-3.35489e-07
0.000147253
0.000150718
-3.98509e-09
0.000150725
-1.13766e-08
0.000150735
-1.91114e-08
0.000150749
-2.74146e-08
0.000150766
-3.61843e-08
0.000150787
-4.52608e-08
0.000150809
-5.45147e-08
0.000150834
-6.38756e-08
0.00015086
-7.33202e-08
0.000150888
-8.28612e-08
0.000150917
-9.25174e-08
0.000150946
-1.02329e-07
0.000150975
-1.12328e-07
0.000151004
-1.22537e-07
0.000151034
-1.32975e-07
0.000151062
-1.4365e-07
0.000151091
-1.54565e-07
0.000151119
-1.65715e-07
0.000151146
-1.77091e-07
0.000151172
-1.88678e-07
0.000151198
-2.00456e-07
0.000151222
-2.12407e-07
0.000151246
-2.24504e-07
0.000151268
-2.36722e-07
0.00015129
-2.49034e-07
0.00015131
-2.61411e-07
0.000151329
-2.73824e-07
0.000151347
-2.86242e-07
0.000151364
-2.98634e-07
0.000151379
-3.1097e-07
0.000151394
-3.23219e-07
0.000151407
-3.35354e-07
-3.47327e-07
0.000151419
0.000155023
-5.254e-09
0.000155028
-1.65673e-08
0.000155037
-2.84952e-08
0.000155051
-4.10307e-08
0.000155069
-5.36598e-08
0.000155089
-6.60229e-08
0.000155113
-7.79483e-08
0.000155138
-8.93981e-08
0.000155165
-1.00413e-07
0.000155194
-1.11074e-07
0.000155223
-1.21471e-07
0.000155252
-1.31696e-07
0.000155281
-1.41832e-07
0.000155311
-1.51947e-07
0.00015534
-1.62095e-07
0.000155369
-1.72316e-07
0.000155397
-1.82637e-07
0.000155424
-1.93076e-07
0.000155451
-2.0364e-07
0.000155476
-2.14329e-07
0.000155501
-2.25138e-07
0.000155525
-2.36056e-07
0.000155547
-2.47068e-07
0.000155569
-2.58155e-07
0.000155589
-2.69298e-07
0.000155608
-2.80473e-07
0.000155626
-2.91656e-07
0.000155642
-3.02823e-07
0.000155658
-3.13946e-07
0.000155672
-3.25001e-07
0.000155684
-3.35961e-07
0.000155696
-3.46802e-07
-3.57482e-07
0.000155706
0.000159454
-9.02355e-09
0.000159461
-2.35194e-08
0.000159471
-3.85865e-08
0.000159485
-5.42949e-08
0.000159501
-7.01695e-08
0.000159521
-8.56277e-08
0.000159543
-1.00287e-07
0.000159568
-1.14001e-07
0.000159594
-1.26787e-07
0.000159622
-1.38752e-07
0.00015965
-1.50031e-07
0.000159679
-1.60771e-07
0.000159709
-1.71106e-07
0.000159738
-1.81153e-07
0.000159767
-1.91007e-07
0.000159795
-2.00746e-07
0.000159823
-2.10426e-07
0.00015985
-2.20091e-07
0.000159876
-2.29771e-07
0.000159901
-2.39482e-07
0.000159925
-2.49235e-07
0.000159948
-2.5903e-07
0.00015997
-2.68864e-07
0.000159991
-2.78728e-07
0.00016001
-2.88609e-07
0.000160028
-2.98491e-07
0.000160045
-3.08355e-07
0.00016006
-3.18183e-07
0.000160074
-3.27954e-07
0.000160087
-3.37644e-07
0.000160098
-3.47233e-07
0.000160108
-3.567e-07
-3.66008e-07
0.000160117
0.000164003
-6.36047e-09
0.000164005
-2.51751e-08
0.000164013
-4.64561e-08
0.000164027
-6.84561e-08
0.000164046
-8.94565e-08
0.00016407
-1.08709e-07
0.000164095
-1.2607e-07
0.000164123
-1.41656e-07
0.000164152
-1.55684e-07
0.000164181
-1.68399e-07
0.000164212
-1.80043e-07
0.000164242
-1.90838e-07
0.000164271
-2.0098e-07
0.000164301
-2.10629e-07
0.00016433
-2.19915e-07
0.000164358
-2.28942e-07
0.000164385
-2.37791e-07
0.000164412
-2.46521e-07
0.000164437
-2.55177e-07
0.000164462
-2.63791e-07
0.000164485
-2.7238e-07
0.000164507
-2.80957e-07
0.000164527
-2.89526e-07
0.000164547
-2.98084e-07
0.000164565
-3.06627e-07
0.000164581
-3.15142e-07
0.000164597
-3.2362e-07
0.00016461
-3.32044e-07
0.000164623
-3.40398e-07
0.000164634
-3.48667e-07
0.000164643
-3.56831e-07
0.000164652
-3.64876e-07
-3.72769e-07
0.000164658
0.000168701
-1.57368e-08
0.000168709
-3.31103e-08
0.000168717
-5.3947e-08
0.000168726
-7.77867e-08
0.000168739
-1.02648e-07
0.000168757
-1.26292e-07
0.000168778
-1.47563e-07
0.000168803
-1.66255e-07
0.00016883
-1.82591e-07
0.000168858
-1.96905e-07
0.000168888
-2.09546e-07
0.000168918
-2.2084e-07
0.000168948
-2.31075e-07
0.000168978
-2.40489e-07
0.000169007
-2.49278e-07
0.000169036
-2.57597e-07
0.000169063
-2.65567e-07
0.00016909
-2.73281e-07
0.000169116
-2.80811e-07
0.00016914
-2.88207e-07
0.000169163
-2.95506e-07
0.000169185
-3.02734e-07
0.000169206
-3.09905e-07
0.000169224
-3.17028e-07
0.000169242
-3.24105e-07
0.000169258
-3.31133e-07
0.000169272
-3.38105e-07
0.000169285
-3.45013e-07
0.000169297
-3.51845e-07
0.000169307
-3.5859e-07
0.000169315
-3.65232e-07
0.000169322
-3.71759e-07
-3.78146e-07
0.000169327
0.000173491
4.2854e-09
0.000173485
-2.6661e-08
0.000173494
-6.30951e-08
0.000173515
-9.85845e-08
0.000173542
-1.29857e-07
0.000173572
-1.56521e-07
0.000173604
-1.79187e-07
0.000173636
-1.98436e-07
0.000173668
-2.14843e-07
0.0001737
-2.28911e-07
0.000173732
-2.41093e-07
0.000173763
-2.51777e-07
0.000173793
-2.61281e-07
0.000173822
-2.69864e-07
0.000173851
-2.77731e-07
0.000173878
-2.85044e-07
0.000173905
-2.91934e-07
0.00017393
-2.98498e-07
0.000173954
-3.04814e-07
0.000173977
-3.10939e-07
0.000173998
-3.16917e-07
0.000174018
-3.22778e-07
0.000174037
-3.28543e-07
0.000174054
-3.34226e-07
0.00017407
-3.39835e-07
0.000174084
-3.45372e-07
0.000174097
-3.50837e-07
0.000174108
-3.56224e-07
0.000174117
-3.61528e-07
0.000174126
-3.6674e-07
0.000174132
-3.71851e-07
0.000174137
-3.76852e-07
-3.8172e-07
0.000174141
0.000178498
-2.48065e-08
0.0001785
-2.85261e-08
0.000178488
-5.16107e-08
0.000178479
-8.97014e-08
0.000178481
-1.31755e-07
0.000178494
-1.69265e-07
0.000178515
-2.00008e-07
0.000178541
-2.24719e-07
0.000178571
-2.44711e-07
0.000178603
-2.6097e-07
0.000178636
-2.74297e-07
0.00017867
-2.85358e-07
0.000178703
-2.94679e-07
0.000178736
-3.02671e-07
0.000178768
-3.09651e-07
0.000178799
-3.15862e-07
0.000178828
-3.2149e-07
0.000178856
-3.26676e-07
0.000178883
-3.31527e-07
0.000178908
-3.36123e-07
0.000178932
-3.40521e-07
0.000178954
-3.44767e-07
0.000178974
-3.48889e-07
0.000178993
-3.52911e-07
0.00017901
-3.56845e-07
0.000179025
-3.60699e-07
0.000179039
-3.64479e-07
0.000179051
-3.68182e-07
0.000179061
-3.71809e-07
0.00017907
-3.75354e-07
0.000179077
-3.78812e-07
0.000179082
-3.82179e-07
-3.85437e-07
0.000179086
0.000183487
5.59467e-08
0.000183465
-6.53759e-09
0.000183501
-8.7467e-08
0.000183551
-1.40518e-07
0.000183601
-1.81824e-07
0.000183646
-2.14056e-07
0.000183686
-2.3994e-07
0.000183723
-2.61272e-07
0.000183757
-2.78769e-07
0.000183789
-2.93137e-07
0.00018382
-3.05043e-07
0.000183849
-3.14998e-07
0.000183878
-3.23401e-07
0.000183906
-3.30567e-07
0.000183933
-3.3675e-07
0.000183959
-3.42148e-07
0.000183985
-3.46918e-07
0.000184009
-3.51185e-07
0.000184033
-3.55045e-07
0.000184055
-3.58574e-07
0.000184077
-3.61833e-07
0.000184097
-3.64867e-07
0.000184115
-3.67712e-07
0.000184133
-3.70396e-07
0.000184149
-3.72938e-07
0.000184164
-3.75355e-07
0.000184177
-3.77656e-07
0.000184189
-3.79849e-07
0.000184199
-3.81937e-07
0.000184207
-3.83921e-07
0.000184214
-3.85801e-07
0.00018422
-3.87573e-07
-3.8923e-07
0.000184223
0.000188861
7.28661e-09
0.000188795
5.90094e-08
0.000188709
-1.10119e-09
0.000188644
-7.62633e-08
0.000188626
-1.63026e-07
0.000188638
-2.26768e-07
0.000188669
-2.71051e-07
0.000188711
-3.02689e-07
0.000188758
-3.2591e-07
0.000188808
-3.43294e-07
0.00018886
-3.5647e-07
0.000188911
-3.66563e-07
0.000188962
-3.7437e-07
0.000189012
-3.80459e-07
0.000189061
-3.85243e-07
0.000189107
-3.89024e-07
0.000189152
-3.92026e-07
0.000189196