/*--------------------------------*- C++ -*----------------------------------*\
| =========                 |                                                 |
| \\      /  F ield         | OpenFOAM: The Open Source CFD Toolbox           |
|  \\    /   O peration     | Version:  2.1.1                                 |
|   \\  /    A nd           | Web:      www.OpenFOAM.org                      |
|    \\/     M anipulation  |                                                 |
\*---------------------------------------------------------------------------*/
FoamFile
{
    version     2.0;
    format      ascii;
    class       volVectorField;
    location    "0.12";
    object      U;
}
// * * * * * * * * * * * * * * * * * * * * * * * * * * * * * * * * * * * * * //

dimensions      [0 1 -1 0 0 0 0];

internalField   nonuniform List<vector> 
6820
(
(8.34337 -0.360078 0)
(8.40112 -0.247163 0)
(8.35616 -0.115305 0)
(8.24793 -0.0365747 0)
(8.11958 0.00598313 0)
(7.98626 0.0278358 0)
(7.8543 0.0385961 0)
(7.72707 0.0432866 0)
(7.60599 0.0445487 0)
(7.49161 0.0438392 0)
(7.38415 0.0419995 0)
(7.28365 0.0395339 0)
(7.19 0.0367534 0)
(7.10297 0.0338535 0)
(7.02229 0.0309576 0)
(6.94765 0.0281432 0)
(6.87869 0.0254573 0)
(6.81506 0.0229267 0)
(6.7564 0.0205646 0)
(6.70236 0.0183752 0)
(6.65259 0.0163572 0)
(6.60677 0.0145057 0)
(6.56458 0.0128148 0)
(6.52572 0.0112792 0)
(6.4899 0.00989616 0)
(6.45681 0.00867003 0)
(6.42615 0.00761646 0)
(6.39752 0.00678541 0)
(6.37045 0.0062728 0)
(6.34407 0.00635119 0)
(6.31682 0.00784212 0)
(6.28584 0.011404 0)
(6.2415 0.0294873 0)
(8.32139 0.166247 0)
(8.28709 0.189991 0)
(8.28545 0.132137 0)
(8.31743 0.0958195 0)
(8.36175 0.0749709 0)
(8.40183 0.0622974 0)
(8.43296 0.0548014 0)
(8.4551 0.0502634 0)
(8.46911 0.0473419 0)
(8.47599 0.0453237 0)
(8.47678 0.0438136 0)
(8.47243 0.0425739 0)
(8.46376 0.0414653 0)
(8.45151 0.0404106 0)
(8.43632 0.0393692 0)
(8.41874 0.0383217 0)
(8.39925 0.037262 0)
(8.37827 0.0361903 0)
(8.35617 0.0351111 0)
(8.33324 0.0340302 0)
(8.30975 0.0329544 0)
(8.28591 0.031891 0)
(8.26192 0.0308482 0)
(8.23791 0.0298361 0)
(8.21402 0.0288687 0)
(8.19034 0.0279675 0)
(8.16699 0.0271708 0)
(8.144 0.0265478 0)
(8.12162 0.0262262 0)
(8.09961 0.0265325 0)
(8.08019 0.0278505 0)
(8.06071 0.0322204 0)
(8.06254 0.0395573 0)
(8.3225 -0.0608894 0)
(8.31399 -0.0832953 0)
(8.33054 -0.0541188 0)
(8.34438 -0.0203324 0)
(8.3533 0.00236372 0)
(8.36237 0.0164743 0)
(8.37216 0.0256963 0)
(8.38225 0.0318948 0)
(8.39217 0.0360933 0)
(8.40153 0.0389368 0)
(8.41008 0.0408198 0)
(8.41769 0.0419859 0)
(8.42431 0.0426088 0)
(8.42992 0.0428193 0)
(8.43454 0.0427163 0)
(8.43821 0.0423758 0)
(8.44099 0.0418565 0)
(8.44293 0.0412047 0)
(8.44412 0.0404563 0)
(8.44461 0.0396401 0)
(8.44448 0.038779 0)
(8.44378 0.037892 0)
(8.4426 0.0369957 0)
(8.44097 0.0361058 0)
(8.43896 0.0352407 0)
(8.43662 0.0344219 0)
(8.434 0.0336877 0)
(8.43114 0.0330754 0)
(8.42816 0.0327192 0)
(8.42511 0.0325728 0)
(8.4225 0.0333082 0)
(8.42024 0.0330247 0)
(8.41964 0.0357659 0)
(8.33365 0.0145575 0)
(8.32978 0.0476789 0)
(8.32741 0.0539329 0)
(8.32877 0.0465094 0)
(8.3347 0.0409946 0)
(8.34228 0.0384717 0)
(8.34983 0.0376402 0)
(8.35713 0.037572 0)
(8.3642 0.0377654 0)
(8.37101 0.0379999 0)
(8.37754 0.0381764 0)
(8.38377 0.0382536 0)
(8.38967 0.0382213 0)
(8.39524 0.0380824 0)
(8.40046 0.0378449 0)
(8.40534 0.0375192 0)
(8.40989 0.037117 0)
(8.41411 0.03665 0)
(8.41802 0.0361295 0)
(8.42164 0.035566 0)
(8.42499 0.0349694 0)
(8.42809 0.0343495 0)
(8.43097 0.0337164 0)
(8.43364 0.0330812 0)
(8.43613 0.0324588 0)
(8.43847 0.0318679 0)
(8.44068 0.0313391 0)
(8.44281 0.0309077 0)
(8.44495 0.0306462 0)
(8.44717 0.0305813 0)
(8.44991 0.0308687 0)
(8.45319 0.0311926 0)
(8.45846 0.0319845 0)
(8.3302 -0.00531741 0)
(8.32723 -0.00752831 0)
(8.3314 -0.00249459 0)
(8.33611 0.00797164 0)
(8.34023 0.0171257 0)
(8.34445 0.02332 0)
(8.34892 0.0274785 0)
(8.35364 0.0304129 0)
(8.35854 0.0325242 0)
(8.3635 0.0340445 0)
(8.36844 0.0351186 0)
(8.3733 0.0358404 0)
(8.37806 0.0362761 0)
(8.38269 0.0364766 0)
(8.38718 0.0364838 0)
(8.39151 0.0363326 0)
(8.39569 0.0360525 0)
(8.39972 0.0356681 0)
(8.40361 0.0352004 0)
(8.40735 0.0346667 0)
(8.41097 0.0340823 0)
(8.41447 0.0334603 0)
(8.41787 0.0328133 0)
(8.42117 0.0321538 0)
(8.4244 0.0314959 0)
(8.42757 0.0308558 0)
(8.43071 0.0302567 0)
(8.43386 0.0297176 0)
(8.43709 0.0292815 0)
(8.4405 0.0289165 0)
(8.4443 0.0286997 0)
(8.44858 0.0281658 0)
(8.45369 0.0275293 0)
(8.33239 0.00227609 0)
(8.33119 0.0132835 0)
(8.33282 0.0203529 0)
(8.33556 0.0237203 0)
(8.33904 0.0258473 0)
(8.34314 0.0276264 0)
(8.34743 0.0292716 0)
(8.35174 0.0307312 0)
(8.35606 0.031924 0)
(8.36037 0.0328387 0)
(8.36464 0.0334969 0)
(8.36885 0.0339259 0)
(8.37301 0.0341541 0)
(8.37708 0.0342096 0)
(8.38106 0.0341186 0)
(8.38496 0.0339044 0)
(8.38877 0.033587 0)
(8.39249 0.033184 0)
(8.39613 0.0327104 0)
(8.39969 0.032179 0)
(8.40318 0.0316014 0)
(8.4066 0.0309877 0)
(8.40998 0.0303475 0)
(8.41331 0.0296906 0)
(8.41661 0.0290276 0)
(8.41991 0.0283695 0)
(8.42323 0.0277302 0)
(8.4266 0.0271182 0)
(8.43008 0.0265463 0)
(8.43375 0.0259788 0)
(8.43775 0.0253995 0)
(8.44213 0.0245472 0)
(8.44699 0.0233959 0)
(8.33233 0.00086189 0)
(8.33153 0.00575115 0)
(8.33344 0.0107053 0)
(8.33651 0.0154805 0)
(8.33994 0.0198388 0)
(8.34364 0.0233189 0)
(8.34744 0.0259668 0)
(8.35127 0.0279774 0)
(8.35514 0.0294872 0)
(8.35902 0.030598 0)
(8.36288 0.0313864 0)
(8.36669 0.0319079 0)
(8.37046 0.032205 0)
(8.37418 0.0323133 0)
(8.37783 0.0322625 0)
(8.38142 0.0320777 0)
(8.38494 0.0317805 0)
(8.38841 0.0313891 0)
(8.39182 0.0309193 0)
(8.39518 0.0303842 0)
(8.3985 0.0297954 0)
(8.40178 0.0291628 0)
(8.40503 0.0284956 0)
(8.40828 0.0278019 0)
(8.41152 0.0270901 0)
(8.41477 0.0263671 0)
(8.41807 0.0256397 0)
(8.42144 0.0249072 0)
(8.42493 0.0241654 0)
(8.4286 0.0233727 0)
(8.4325 0.0224853 0)
(8.43668 0.0213229 0)
(8.44112 0.0198063 0)
(8.33272 0.00169907 0)
(8.33256 0.00725518 0)
(8.3342 0.0125235 0)
(8.33681 0.0167596 0)
(8.33987 0.0201784 0)
(8.3433 0.0228676 0)
(8.3469 0.0249904 0)
(8.35057 0.0266797 0)
(8.35425 0.0279948 0)
(8.35793 0.0289814 0)
(8.36158 0.0296852 0)
(8.36518 0.0301457 0)
(8.36874 0.0303972 0)
(8.37224 0.0304698 0)
(8.37568 0.0303899 0)
(8.37908 0.0301805 0)
(8.38241 0.029861 0)
(8.3857 0.0294483 0)
(8.38895 0.0289565 0)
(8.39216 0.0283978 0)
(8.39534 0.0277823 0)
(8.39849 0.0271188 0)
(8.40164 0.0264148 0)
(8.40478 0.0256765 0)
(8.40793 0.0249094 0)
(8.41111 0.0241167 0)
(8.41433 0.0232991 0)
(8.41764 0.0224501 0)
(8.42106 0.0215554 0)
(8.42461 0.0205755 0)
(8.42835 0.0194599 0)
(8.43227 0.0180912 0)
(8.43633 0.0163994 0)
(8.33284 0.00177575 0)
(8.33294 0.00642154 0)
(8.33445 0.0109081 0)
(8.33689 0.0147683 0)
(8.33979 0.0181023 0)
(8.34301 0.0208611 0)
(8.34642 0.0230709 0)
(8.3499 0.0248146 0)
(8.35342 0.0261573 0)
(8.35693 0.0271567 0)
(8.36042 0.0278656 0)
(8.36388 0.0283277 0)
(8.36729 0.0285788 0)
(8.37065 0.0286497 0)
(8.37396 0.0285665 0)
(8.37722 0.0283515 0)
(8.38044 0.0280237 0)
(8.38361 0.0275992 0)
(8.38674 0.0270916 0)
(8.38984 0.0265123 0)
(8.39291 0.0258709 0)
(8.39596 0.0251751 0)
(8.39901 0.0244312 0)
(8.40207 0.023644 0)
(8.40513 0.0228166 0)
(8.40823 0.0219493 0)
(8.41138 0.021039 0)
(8.41459 0.0200755 0)
(8.4179 0.019041 0)
(8.42132 0.0179 0)
(8.42487 0.016607 0)
(8.42853 0.0150848 0)
(8.43226 0.0132816 0)
(8.33294 0.00181605 0)
(8.33324 0.00609457 0)
(8.33465 0.0102744 0)
(8.33688 0.0139067 0)
(8.33956 0.0170072 0)
(8.34257 0.0195642 0)
(8.34578 0.0216178 0)
(8.3491 0.0232466 0)
(8.35247 0.0245104 0)
(8.35586 0.0254566 0)
(8.35923 0.0261288 0)
(8.36257 0.0265645 0)
(8.36588 0.0267955 0)
(8.36914 0.0268499 0)
(8.37236 0.0267517 0)
(8.37552 0.0265218 0)
(8.37865 0.0261779 0)
(8.38173 0.0257352 0)
(8.38478 0.0252063 0)
(8.38779 0.0246018 0)
(8.39079 0.0239303 0)
(8.39377 0.0231985 0)
(8.39674 0.0224117 0)
(8.39972 0.0215731 0)
(8.40271 0.020684 0)
(8.40574 0.0197425 0)
(8.4088 0.0187433 0)
(8.41192 0.0176748 0)
(8.41512 0.0165188 0)
(8.41839 0.0152454 0)
(8.42175 0.0138182 0)
(8.42518 0.0121866 0)
(8.42862 0.0103184 0)
(8.33299 0.00177786 0)
(8.33339 0.0056633 0)
(8.33471 0.00943916 0)
(8.33676 0.0127691 0)
(8.33926 0.0156437 0)
(8.34208 0.0180545 0)
(8.34512 0.0200183 0)
(8.34828 0.0215866 0)
(8.3515 0.022807 0)
(8.35476 0.0237212 0)
(8.35801 0.0243689 0)
(8.36125 0.0247853 0)
(8.36446 0.0250007 0)
(8.36763 0.0250415 0)
(8.37076 0.0249306 0)
(8.37385 0.0246874 0)
(8.3769 0.0243289 0)
(8.37991 0.023869 0)
(8.38289 0.0233196 0)
(8.38585 0.0226905 0)
(8.38878 0.0219894 0)
(8.39169 0.0212221 0)
(8.3946 0.020393 0)
(8.39751 0.019504 0)
(8.40044 0.0185551 0)
(8.40339 0.0175434 0)
(8.40637 0.0164622 0)
(8.40939 0.0153002 0)
(8.41247 0.0140406 0)
(8.4156 0.0126598 0)
(8.41879 0.0111301 0)
(8.422 0.009419 0)
(8.42521 0.00750842 0)
(8.33302 0.00169853 0)
(8.33347 0.00525501 0)
(8.33471 0.00869855 0)
(8.33661 0.0117723 0)
(8.33893 0.0144399 0)
(8.34157 0.0166909 0)
(8.34444 0.0185351 0)
(8.34744 0.0200121 0)
(8.35052 0.0211635 0)
(8.35364 0.0220261 0)
(8.35678 0.0226349 0)
(8.35991 0.0230215 0)
(8.36303 0.0232132 0)
(8.36611 0.0232342 0)
(8.36916 0.0231054 0)
(8.37218 0.0228451 0)
(8.37516 0.0224686 0)
(8.3781 0.0219889 0)
(8.38102 0.0214171 0)
(8.38391 0.0207619 0)
(8.38678 0.0200303 0)
(8.38964 0.0192273 0)
(8.39249 0.0183561 0)
(8.39533 0.0174182 0)
(8.39819 0.0164124 0)
(8.40106 0.0153353 0)
(8.40396 0.0141801 0)
(8.40689 0.0129365 0)
(8.40985 0.0115902 0)
(8.41284 0.0101231 0)
(8.41586 0.0085154 0)
(8.41889 0.00674656 0)
(8.42189 0.0048081 0)
(8.33303 0.0015951 0)
(8.3335 0.0048472 0)
(8.33467 0.00797685 0)
(8.33643 0.010793 0)
(8.33859 0.0132505 0)
(8.34107 0.0153384 0)
(8.34377 0.0170612 0)
(8.34662 0.0184471 0)
(8.34956 0.0195292 0)
(8.35255 0.0203389 0)
(8.35557 0.0209066 0)
(8.35859 0.0212605 0)
(8.36161 0.0214255 0)
(8.3646 0.0214238 0)
(8.36757 0.0212746 0)
(8.37051 0.0209947 0)
(8.37342 0.0205984 0)
(8.3763 0.0200976 0)
(8.37915 0.0195023 0)
(8.38198 0.0188205 0)
(8.38478 0.0180583 0)
(8.38758 0.0172201 0)
(8.39036 0.0163085 0)
(8.39314 0.0153241 0)
(8.39593 0.0142655 0)
(8.39872 0.0131291 0)
(8.40153 0.0119086 0)
(8.40436 0.0105951 0)
(8.4072 0.00917728 0)
(8.41006 0.00764161 0)
(8.41292 0.0059745 0)
(8.41578 0.00416343 0)
(8.4186 0.00220595 0)
(8.33304 0.00147919 0)
(8.33351 0.00444755 0)
(8.33461 0.00728913 0)
(8.33624 0.00986161 0)
(8.33826 0.0121174 0)
(8.34058 0.014043 0)
(8.34312 0.0156393 0)
(8.34582 0.0169262 0)
(8.34862 0.0179305 0)
(8.35149 0.018679 0)
(8.35439 0.0191983 0)
(8.35731 0.0195131 0)
(8.36022 0.019646 0)
(8.36312 0.0196169 0)
(8.36601 0.0194435 0)
(8.36886 0.0191408 0)
(8.3717 0.018722 0)
(8.3745 0.0181979 0)
(8.37729 0.0175777 0)
(8.38005 0.0168685 0)
(8.38279 0.0160757 0)
(8.38551 0.0152031 0)
(8.38823 0.0142526 0)
(8.39094 0.0132247 0)
(8.39364 0.0121177 0)
(8.39635 0.0109282 0)
(8.39907 0.00965087 0)
(8.40179 0.00827839 0)
(8.40451 0.00680204 0)
(8.40724 0.00521225 0)
(8.40996 0.00350007 0)
(8.41265 0.00165822 0)
(8.41531 -0.000312132 0)
(8.33304 0.00135783 0)
(8.3335 0.00405692 0)
(8.33454 0.00662884 0)
(8.33605 0.00896629 0)
(8.33794 0.0110238 0)
(8.34011 0.0127863 0)
(8.34251 0.0142523 0)
(8.34507 0.0154357 0)
(8.34774 0.0163575 0)
(8.35048 0.0170403 0)
(8.35326 0.0175066 0)
(8.35607 0.0177782 0)
(8.35888 0.0178751 0)
(8.36169 0.0178152 0)
(8.36448 0.0176143 0)
(8.36726 0.0172863 0)
(8.37001 0.0168429 0)
(8.37274 0.0162942 0)
(8.37545 0.0156481 0)
(8.37814 0.0149112 0)
(8.38081 0.0140882 0)
(8.38346 0.0131824 0)
(8.3861 0.0121954 0)
(8.38873 0.0111273 0)
(8.39135 0.00997668 0)
(8.39397 0.0087406 0)
(8.39658 0.00741463 0)
(8.3992 0.00599313 0)
(8.4018 0.00446969 0)
(8.40439 0.00283777 0)
(8.40697 0.00109184 0)
(8.40952 -0.000771999 0)
(8.41202 -0.00275055 0)
(8.33304 0.0012352 0)
(8.33348 0.00367682 0)
(8.33445 0.00599485 0)
(8.33587 0.00810668 0)
(8.33763 0.00997092 0)
(8.33968 0.0115716 0)
(8.34194 0.0129053 0)
(8.34436 0.0139812 0)
(8.3469 0.0148158 0)
(8.34952 0.0154277 0)
(8.35219 0.0158361 0)
(8.35489 0.01606 0)
(8.3576 0.0161168 0)
(8.36031 0.0160224 0)
(8.36301 0.0157912 0)
(8.3657 0.0154354 0)
(8.36837 0.0149656 0)
(8.37102 0.0143908 0)
(8.37365 0.0137183 0)
(8.37626 0.0129537 0)
(8.37886 0.0121013 0)
(8.38143 0.0111639 0)
(8.38399 0.010143 0)
(8.38653 0.00903852 0)
(8.38906 0.00784935 0)
(8.39159 0.00657309 0)
(8.3941 0.00520631 0)
(8.3966 0.00374485 0)
(8.39908 0.00218423 0)
(8.40154 0.000520243 0)
(8.40398 -0.00125025 0)
(8.40638 -0.00312895 0)
(8.40874 -0.00511163 0)
(8.33304 0.00111373 0)
(8.33346 0.00330797 0)
(8.33437 0.00538503 0)
(8.3357 0.00727955 0)
(8.33735 0.0089549 0)
(8.33927 0.0103948 0)
(8.3414 0.0115945 0)
(8.3437 0.0125599 0)
(8.34612 0.0133035 0)
(8.34861 0.0138405 0)
(8.35117 0.0141871 0)
(8.35376 0.0143593 0)
(8.35637 0.0143726 0)
(8.35899 0.0142409 0)
(8.3616 0.0139767 0)
(8.3642 0.0135912 0)
(8.36679 0.0130936 0)
(8.36936 0.0124919 0)
(8.3719 0.0117927 0)
(8.37443 0.011001 0)
(8.37694 0.0101205 0)
(8.37943 0.00915371 0)
(8.3819 0.00810188 0)
(8.38436 0.00696516 0)
(8.3868 0.00574266 0)
(8.38922 0.00443257 0)
(8.39162 0.00303243 0)
(8.394 0.00153933 0)
(8.39637 -4.96491e-05 0)
(8.3987 -0.00173701 0)
(8.401 -0.0035242 0)
(8.40326 -0.00541157 0)
(8.40548 -0.00739443 0)
(8.33304 0.000994743 0)
(8.33344 0.00295066 0)
(8.33429 0.00479769 0)
(8.33553 0.00648266 0)
(8.33708 0.00797354 0)
(8.33889 0.0092543 0)
(8.34091 0.0103193 0)
(8.34308 0.0111719 0)
(8.34538 0.0118214 0)
(8.34777 0.0122799 0)
(8.35021 0.012561 0)
(8.3527 0.0126784 0)
(8.35521 0.0126451 0)
(8.35773 0.0124734 0)
(8.36025 0.0121742 0)
(8.36276 0.0117572 0)
(8.36526 0.0112307 0)
(8.36774 0.0106018 0)
(8.37021 0.00987617 0)
(8.37265 0.00905824 0)
(8.37508 0.00815134 0)
(8.37748 0.00715766 0)
(8.37986 0.00607838 0)
(8.38222 0.00491377 0)
(8.38456 0.00366325 0)
(8.38688 0.00232561 0)
(8.38917 0.000899201 0)
(8.39144 -0.000617839 0)
(8.39367 -0.00222723 0)
(8.39588 -0.00393021 0)
(8.39805 -0.00572712 0)
(8.40017 -0.00761746 0)
(8.40225 -0.00959639 0)
(8.33304 0.000878895 0)
(8.33341 0.00260485 0)
(8.33422 0.00423124 0)
(8.33538 0.00571368 0)
(8.33683 0.00702428 0)
(8.33854 0.00814769 0)
(8.34044 0.00907768 0)
(8.34251 0.00981568 0)
(8.34469 0.0103685 0)
(8.34697 0.0107457 0)
(8.34931 0.0109583 0)
(8.3517 0.0110178 0)
(8.35411 0.0109354 0)
(8.35653 0.0107215 0)
(8.35896 0.0103855 0)
(8.36138 0.00993596 0)
(8.3638 0.00938002 0)
(8.36619 0.00872384 0)
(8.36857 0.0079724 0)
(8.37093 0.00712962 0)
(8.37326 0.00619841 0)
(8.37557 0.00518075 0)
(8.37786 0.00407776 0)
(8.38012 0.00288983 0)
(8.38236 0.00161671 0)
(8.38457 0.000257702 0)
(8.38675 -0.00118816 0)
(8.3889 -0.0027219 0)
(8.39102 -0.00434433 0)
(8.3931 -0.0060558 0)
(8.39513 -0.00785589 0)
(8.39712 -0.00974361 0)
(8.39906 -0.0117142 0)
(8.33303 0.00076645 0)
(8.33339 0.00227022 0)
(8.33415 0.00368418 0)
(8.33524 0.00497048 0)
(8.33661 0.00610486 0)
(8.33821 0.0070729 0)
(8.34002 0.00786806 0)
(8.34198 0.00849039 0)
(8.34406 0.00894462 0)
(8.34623 0.00923818 0)
(8.34847 0.00937999 0)
(8.35075 0.00937946 0)
(8.35307 0.00924589 0)
(8.3554 0.0089881 0)
(8.35774 0.00861419 0)
(8.36007 0.00813133 0)
(8.36239 0.00754577 0)
(8.3647 0.00686277 0)
(8.36699 0.00608664 0)
(8.36926 0.00522078 0)
(8.3715 0.00426776 0)
(8.37372 0.00322934 0)
(8.37591 0.00210662 0)
(8.37807 0.000900094 0)
(8.38021 -0.000390185 0)
(8.38231 -0.00176449 0)
(8.38438 -0.00322324 0)
(8.38641 -0.00476681 0)
(8.3884 -0.00639535 0)
(8.39036 -0.00810857 0)
(8.39226 -0.0099056 0)
(8.39412 -0.0117851 0)
(8.39593 -0.0137425 0)
(8.33303 0.000657437 0)
(8.33337 0.00194629 0)
(8.33408 0.00315505 0)
(8.33511 0.00425099 0)
(8.3364 0.0052129 0)
(8.33791 0.00602746 0)
(8.33962 0.00668808 0)
(8.34148 0.00719384 0)
(8.34347 0.00754787 0)
(8.34554 0.00775577 0)
(8.34768 0.00782461 0)
(8.34987 0.00776198 0)
(8.35209 0.0075755 0)
(8.35433 0.00727251 0)
(8.35658 0.00685976 0)
(8.35882 0.00634327 0)
(8.36106 0.00572833 0)
(8.36327 0.00501936 0)
(8.36547 0.00422005 0)
(8.36765 0.00333331 0)
(8.3698 0.00236134 0)
(8.37193 0.00130575 0)
(8.37402 0.000167577 0)
(8.37608 -0.00105258 0)
(8.37811 -0.00235445 0)
(8.3801 -0.00373795 0)
(8.38206 -0.00520308 0)
(8.38397 -0.00674975 0)
(8.38584 -0.00837761 0)
(8.38767 -0.010086 0)
(8.38945 -0.0118736 0)
(8.39117 -0.0137392 0)
(8.39285 -0.0156782 0)
(8.33303 0.000551755 0)
(8.33334 0.00163246 0)
(8.33402 0.00264257 0)
(8.33499 0.00355346 0)
(8.3362 0.00434664 0)
(8.33764 0.00500999 0)
(8.33926 0.00553711 0)
(8.34103 0.00592638 0)
(8.34292 0.00617968 0)
(8.3449 0.00630104 0)
(8.34695 0.00629595 0)
(8.34905 0.0061703 0)
(8.35118 0.00593015 0)
(8.35333 0.00558143 0)
(8.35548 0.00512968 0)
(8.35764 0.00457984 0)
(8.35978 0.00393626 0)
(8.36191 0.00320264 0)
(8.36402 0.00238202 0)
(8.36611 0.00147685 0)
(8.36817 0.000489043 0)
(8.37019 -0.000580006 0)
(8.37219 -0.0017293 0)
(8.37415 -0.00295818 0)
(8.37607 -0.00426619 0)
(8.37795 -0.00565301 0)
(8.3798 -0.00711832 0)
(8.38159 -0.00866166 0)
(8.38334 -0.0102824 0)
(8.38505 -0.0119795 0)
(8.3867 -0.0137517 0)
(8.38829 -0.0155975 0)
(8.38984 -0.0175125 0)
(8.33303 0.000449228 0)
(8.33332 0.00132801 0)
(8.33396 0.00214513 0)
(8.33487 0.00287534 0)
(8.33603 0.00350242 0)
(8.33739 0.00401562 0)
(8.33893 0.00440901 0)
(8.34061 0.00468065 0)
(8.34242 0.00483153 0)
(8.34431 0.00486434 0)
(8.34627 0.0047834 0)
(8.34828 0.00459314 0)
(8.35032 0.00429821 0)
(8.35239 0.00390324 0)
(8.35446 0.00341251 0)
(8.35652 0.00282996 0)
(8.35858 0.00215902 0)
(8.36062 0.00140264 0)
(8.36264 0.000563266 0)
(8.36464 -0.000357118 0)
(8.3666 -0.00135694 0)
(8.36853 -0.002435 0)
(8.37043 -0.00359039 0)
(8.37228 -0.00482243 0)
(8.3741 -0.00613057 0)
(8.37587 -0.0075143 0)
(8.3776 -0.00897309 0)
(8.37928 -0.0105063 0)
(8.38091 -0.012113 0)
(8.38249 -0.0137921 0)
(8.38402 -0.0155421 0)
(8.38549 -0.0173615 0)
(8.3869 -0.0192463 0)
(8.33303 0.000349677 0)
(8.33331 0.00103251 0)
(8.33391 0.00166234 0)
(8.33477 0.00221708 0)
(8.33586 0.00268266 0)
(8.33716 0.00304958 0)
(8.33862 0.00331239 0)
(8.34023 0.00346889 0)
(8.34195 0.0035193 0)
(8.34376 0.00346527 0)
(8.34564 0.00331004 0)
(8.34757 0.00305602 0)
(8.34953 0.00270685 0)
(8.35151 0.0022662 0)
(8.35349 0.00173718 0)
(8.35548 0.00112284 0)
(8.35745 0.000425797 0)
(8.3594 -0.000351689 0)
(8.36133 -0.00120772 0)
(8.36324 -0.00214072 0)
(8.36511 -0.00314945 0)
(8.36694 -0.00423289 0)
(8.36874 -0.00539025 0)
(8.37049 -0.00662085 0)
(8.37221 -0.00792409 0)
(8.37387 -0.00929935 0)
(8.37549 -0.010746 0)
(8.37705 -0.0122631 0)
(8.37856 -0.0138499 0)
(8.38002 -0.0155049 0)
(8.38142 -0.0172268 0)
(8.38277 -0.0190142 0)
(8.38405 -0.020863 0)
(8.33303 0.000252809 0)
(8.33329 0.000744409 0)
(8.33386 0.00118995 0)
(8.33468 0.00156957 0)
(8.33572 0.00187129 0)
(8.33695 0.00208795 0)
(8.33835 0.00221553 0)
(8.33988 0.00225196 0)
(8.34153 0.00219716 0)
(8.34327 0.00205095 0)
(8.34507 0.00181846 0)
(8.34692 0.0014996 0)
(8.3488 0.00109617 0)
(8.3507 0.000610593 0)
(8.3526 4.52067e-05 0)
(8.3545 -0.000598175 0)
(8.35639 -0.00131785 0)
(8.35826 -0.00211226 0)
(8.3601 -0.0029801 0)
(8.36191 -0.0039203 0)
(8.36369 -0.00493196 0)
(8.36543 -0.00601433 0)
(8.36713 -0.00716675 0)
(8.36878 -0.00838863 0)
(8.37039 -0.00967938 0)
(8.37195 -0.0110384 0)
(8.37345 -0.0124648 0)
(8.37491 -0.0139579 0)
(8.3763 -0.0155166 0)
(8.37764 -0.0171396 0)
(8.37892 -0.0188255 0)
(8.38014 -0.0205728 0)
(8.3813 -0.0223778 0)
(8.33302 0.000158825 0)
(8.33327 0.000466388 0)
(8.33381 0.000736992 0)
(8.33459 0.000954105 0)
(8.33558 0.00110583 0)
(8.33675 0.00118508 0)
(8.33809 0.00118899 0)
(8.33956 0.00111585 0)
(8.34114 0.000964701 0)
(8.34281 0.000737133 0)
(8.34454 0.00042964 0)
(8.34632 4.6367e-05 0)
(8.34813 -0.000410974 0)
(8.34995 -0.000941538 0)
(8.35178 -0.00154398 0)
(8.3536 -0.00221727 0)
(8.35541 -0.00296035 0)
(8.3572 -0.00377225 0)
(8.35896 -0.00465217 0)
(8.36068 -0.0055994 0)
(8.36237 -0.00661334 0)
(8.36401 -0.00769344 0)
(8.36562 -0.00883921 0)
(8.36717 -0.0100501 0)
(8.36867 -0.0113257 0)
(8.37013 -0.0126652 0)
(8.37152 -0.0140679 0)
(8.37286 -0.015533 0)
(8.37415 -0.0170594 0)
(8.37537 -0.0186459 0)
(8.37653 -0.0202911 0)
(8.37763 -0.0219937 0)
(8.37867 -0.0237501 0)
(8.33302 6.60718e-05 0)
(8.33326 0.000186781 0)
(8.33378 0.000270073 0)
(8.33452 0.000300248 0)
(8.33546 0.000275198 0)
(8.33659 0.000193425 0)
(8.33788 5.21641e-05 0)
(8.33929 -0.000148908 0)
(8.34081 -0.000410147 0)
(8.34241 -0.000730477 0)
(8.34408 -0.00111473 0)
(8.34579 -0.00156028 0)
(8.34753 -0.00206702 0)
(8.34928 -0.00263564 0)
(8.35103 -0.00326651 0)
(8.35278 -0.00395957 0)
(8.35451 -0.00471481 0)
(8.35621 -0.00553219 0)
(8.35789 -0.00641164 0)
(8.35953 -0.00735303 0)
(8.36113 -0.00835618 0)
(8.36268 -0.00942089 0)
(8.36419 -0.0105469 0)
(8.36565 -0.0117338 0)
(8.36705 -0.0129812 0)
(8.3684 -0.0142885 0)
(8.36969 -0.0156551 0)
(8.37092 -0.0170799 0)
(8.37209 -0.0185622 0)
(8.3732 -0.0201005 0)
(8.37425 -0.0216936 0)
(8.37523 -0.0233402 0)
(8.37615 -0.025037 0)
(8.33302 -2.01072e-05 0)
(8.33324 -5.94112e-05 0)
(8.33371 -0.000119648 0)
(8.33441 -0.000218563 0)
(8.33531 -0.000361578 0)
(8.3364 -0.000553045 0)
(8.33764 -0.000797256 0)
(8.33901 -0.00109516 0)
(8.34049 -0.00144646 0)
(8.34204 -0.00185228 0)
(8.34366 -0.00230926 0)
(8.34531 -0.0028195 0)
(8.34699 -0.00338366 0)
(8.34869 -0.00400183 0)
(8.35038 -0.00467426 0)
(8.35205 -0.00540122 0)
(8.35371 -0.00618302 0)
(8.35534 -0.00701994 0)
(8.35694 -0.00791221 0)
(8.35849 -0.00886001 0)
(8.36001 -0.00986344 0)
(8.36148 -0.0109225 0)
(8.36289 -0.0120372 0)
(8.36425 -0.0132074 0)
(8.36556 -0.0144326 0)
(8.36681 -0.0157126 0)
(8.368 -0.0170466 0)
(8.36912 -0.018434 0)
(8.37019 -0.0198739 0)
(8.37118 -0.0213652 0)
(8.37212 -0.0229067 0)
(8.37298 -0.0244972 0)
(8.37379 -0.0261337 0)
(8.33303 -0.000116667 0)
(8.33325 -0.000373087 0)
(8.33372 -0.000675358 0)
(8.33441 -0.00102324 0)
(8.33527 -0.00140598 0)
(8.33632 -0.00181367 0)
(8.33751 -0.00224032 0)
(8.33883 -0.00268534 0)
(8.34024 -0.00315112 0)
(8.34174 -0.00364153 0)
(8.3433 -0.0041605 0)
(8.34489 -0.00471297 0)
(8.34651 -0.00530263 0)
(8.34814 -0.0059326 0)
(8.34976 -0.00660573 0)
(8.35137 -0.00732434 0)
(8.35296 -0.00809029 0)
(8.35452 -0.00890505 0)
(8.35604 -0.00976974 0)
(8.35752 -0.0106852 0)
(8.35895 -0.011652 0)
(8.36034 -0.0126705 0)
(8.36167 -0.0137408 0)
(8.36294 -0.014863 0)
(8.36415 -0.0160367 0)
(8.36531 -0.0172616 0)
(8.3664 -0.0185371 0)
(8.36742 -0.0198624 0)
(8.36838 -0.0212368 0)
(8.36927 -0.022659 0)
(8.3701 -0.024128 0)
(8.37086 -0.0256425 0)
(8.37155 -0.0271997 0)
(8.333 -0.000164341 0)
(8.33315 -0.000456109 0)
(8.33354 -0.000751994 0)
(8.33416 -0.00108977 0)
(8.335 -0.00148263 0)
(8.33603 -0.00192959 0)
(8.33723 -0.00242369 0)
(8.33855 -0.00295749 0)
(8.33997 -0.00352527 0)
(8.34146 -0.00412372 0)
(8.343 -0.00475103 0)
(8.34458 -0.00540717 0)
(8.34616 -0.00609306 0)
(8.34775 -0.00681016 0)
(8.34932 -0.00756018 0)
(8.35088 -0.00834494 0)
(8.35241 -0.00916617 0)
(8.3539 -0.0100255 0)
(8.35535 -0.0109244 0)
(8.35675 -0.0118641 0)
(8.35811 -0.0128457 0)
(8.35941 -0.0138699 0)
(8.36065 -0.0149374 0)
(8.36183 -0.0160486 0)
(8.36295 -0.0172037 0)
(8.36401 -0.0184026 0)
(8.365 -0.0196451 0)
(8.36593 -0.0209309 0)
(8.36679 -0.0222593 0)
(8.36758 -0.0236297 0)
(8.3683 -0.025041 0)
(8.36895 -0.0264924 0)
(8.36953 -0.0279815 0)
(8.33305 -0.000350071 0)
(8.33333 -0.00112642 0)
(8.33378 -0.00198332 0)
(8.33439 -0.00285483 0)
(8.33517 -0.00368507 0)
(8.33611 -0.00445369 0)
(8.33721 -0.0051625 0)
(8.33844 -0.00582254 0)
(8.33978 -0.00644787 0)
(8.3412 -0.00705273 0)
(8.34267 -0.00765 0)
(8.34419 -0.00825099 0)
(8.34571 -0.00886511 0)
(8.34724 -0.00949987 0)
(8.34877 -0.0101613 0)
(8.35027 -0.0108539 0)
(8.35174 -0.0115815 0)
(8.35317 -0.0123468 0)
(8.35456 -0.0131518 0)
(8.3559 -0.0139981 0)
(8.35719 -0.0148866 0)
(8.35842 -0.0158182 0)
(8.35959 -0.016793 0)
(8.3607 -0.0178114 0)
(8.36175 -0.018873 0)
(8.36272 -0.0199777 0)
(8.36363 -0.021125 0)
(8.36447 -0.0223141 0)
(8.36524 -0.0235443 0)
(8.36593 -0.0248146 0)
(8.36656 -0.0261239 0)
(8.36711 -0.0274713 0)
(8.36759 -0.0288543 0)
(8.33294 -0.000119379 0)
(8.33285 -0.000265882 0)
(8.33306 -0.000474255 0)
(8.33363 -0.0008743 0)
(8.33449 -0.00146981 0)
(8.33558 -0.00220577 0)
(8.33684 -0.00302537 0)
(8.3382 -0.00388796 0)
(8.33965 -0.00476823 0)
(8.34114 -0.00565171 0)
(8.34266 -0.00653124 0)
(8.34419 -0.00740482 0)
(8.34572 -0.00827361 0)
(8.34723 -0.00914053 0)
(8.34871 -0.0100094 0)
(8.35017 -0.0108844 0)
(8.35158 -0.0117697 0)
(8.35295 -0.012669 0)
(8.35426 -0.0135858 0)
(8.35553 -0.0145232 0)
(8.35674 -0.0154838 0)
(8.35788 -0.0164698 0)
(8.35896 -0.017483 0)
(8.35998 -0.0185249 0)
(8.36093 -0.0195966 0)
(8.36181 -0.0206987 0)
(8.36263 -0.0218319 0)
(8.36337 -0.0229963 0)
(8.36403 -0.024192 0)
(8.36463 -0.0254186 0)
(8.36516 -0.0266759 0)
(8.36561 -0.0279632 0)
(8.36599 -0.0292788 0)
(8.33317 -0.000809232 0)
(8.33366 -0.00276768 0)
(8.33405 -0.00478238 0)
(8.33442 -0.00652267 0)
(8.33495 -0.00791292 0)
(8.33571 -0.00900693 0)
(8.33669 -0.00987864 0)
(8.33783 -0.0105917 0)
(8.33912 -0.0111979 0)
(8.34049 -0.0117375 0)
(8.34193 -0.0122412 0)
(8.34341 -0.0127317 0)
(8.3449 -0.0132255 0)
(8.34638 -0.0137344 0)
(8.34785 -0.0142666 0)
(8.34928 -0.014828 0)
(8.35068 -0.0154224 0)
(8.35203 -0.0160524 0)
(8.35332 -0.0167198 0)
(8.35456 -0.0174256 0)
(8.35573 -0.0181701 0)
(8.35684 -0.0189536 0)
(8.35789 -0.019776 0)
(8.35886 -0.0206368 0)
(8.35976 -0.0215355 0)
(8.36059 -0.0224715 0)
(8.36134 -0.0234441 0)
(8.36202 -0.0244523 0)
(8.36262 -0.0254953 0)
(8.36315 -0.026572 0)
(8.3636 -0.0276813 0)
(8.36398 -0.0288223 0)
(8.36429 -0.0299929 0)
(8.33263 0.000547912 0)
(8.33175 0.00190397 0)
(8.33173 0.00270183 0)
(8.33253 0.00252677 0)
(8.33376 0.00160606 0)
(8.33516 0.000291665 0)
(8.33666 -0.00118633 0)
(8.3382 -0.00270527 0)
(8.33976 -0.00419928 0)
(8.3413 -0.00563324 0)
(8.34283 -0.00699246 0)
(8.34433 -0.00827513 0)
(8.3458 -0.00948636 0)
(8.34723 -0.0106347 0)
(8.34862 -0.01173 0)
(8.34997 -0.0127823 0)
(8.35126 -0.0138013 0)
(8.3525 -0.0147955 0)
(8.35368 -0.0157728 0)
(8.35481 -0.0167399 0)
(8.35587 -0.0177026 0)
(8.35687 -0.0186658 0)
(8.35779 -0.0196336 0)
(8.35866 -0.0206095 0)
(8.35945 -0.0215962 0)
(8.36017 -0.022596 0)
(8.36082 -0.0236107 0)
(8.36139 -0.0246416 0)
(8.36189 -0.0256897 0)
(8.36232 -0.0267557 0)
(8.36268 -0.0278399 0)
(8.36296 -0.0289424 0)
(8.36317 -0.0300623 0)
(8.33357 -0.00199122 0)
(8.33464 -0.0069943 0)
(8.33435 -0.011849 0)
(8.33363 -0.0150654 0)
(8.33339 -0.0168953 0)
(8.33376 -0.0179225 0)
(8.33458 -0.0184666 0)
(8.3357 -0.0187215 0)
(8.33703 -0.0188221 0)
(8.33849 -0.0188558 0)
(8.34003 -0.0188772 0)
(8.34159 -0.0189193 0)
(8.34316 -0.0190014 0)
(8.34471 -0.0191339 0)
(8.34623 -0.0193217 0)
(8.34769 -0.0195663 0)
(8.34911 -0.0198673 0)
(8.35045 -0.020223 0)
(8.35174 -0.0206312 0)
(8.35295 -0.0210896 0)
(8.35409 -0.0215956 0)
(8.35516 -0.0221467 0)
(8.35614 -0.0227407 0)
(8.35706 -0.0233753 0)
(8.35789 -0.0240484 0)
(8.35865 -0.0247582 0)
(8.35932 -0.0255029 0)
(8.35992 -0.0262807 0)
(8.36044 -0.0270901 0)
(8.36088 -0.0279296 0)
(8.36125 -0.0287978 0)
(8.36153 -0.0296936 0)
(8.36174 -0.0306148 0)
(8.33162 0.00367327 0)
(8.32827 0.0101837 0)
(8.32844 0.013311 0)
(8.33096 0.0132183 0)
(8.33349 0.0111008 0)
(8.33562 0.00820131 0)
(8.33751 0.00514579 0)
(8.33924 0.00217314 0)
(8.34084 -0.000605014 0)
(8.34234 -0.00314085 0)
(8.34376 -0.00542933 0)
(8.34513 -0.00748674 0)
(8.34645 -0.00933763 0)
(8.34774 -0.011009 0)
(8.34898 -0.0125275 0)
(8.3502 -0.0139174 0)
(8.35137 -0.0152007 0)
(8.35251 -0.0163963 0)
(8.3536 -0.0175204 0)
(8.35464 -0.018587 0)
(8.35564 -0.0196077 0)
(8.35658 -0.0205924 0)
(8.35746 -0.0215493 0)
(8.35829 -0.0224853 0)
(8.35905 -0.0234061 0)
(8.35975 -0.0243165 0)
(8.36038 -0.0252205 0)
(8.36094 -0.026121 0)
(8.36144 -0.0270209 0)
(8.36186 -0.027922 0)
(8.36222 -0.0288259 0)
(8.3625 -0.0297336 0)
(8.36271 -0.0306456 0)
(8.33429 -0.00645112 0)
(8.3346 -0.0207409 0)
(8.33067 -0.0300121 0)
(8.32662 -0.0340628 0)
(8.32468 -0.0349891 0)
(8.32474 -0.034477 0)
(8.32587 -0.0333406 0)
(8.32753 -0.031973 0)
(8.32952 -0.0305974 0)
(8.33169 -0.0293313 0)
(8.33395 -0.0282266 0)
(8.33623 -0.0273001 0)
(8.3385 -0.0265504 0)
(8.34073 -0.0259674 0)
(8.3429 -0.0255364 0)
(8.34501 -0.0252421 0)
(8.34704 -0.0250689 0)
(8.34899 -0.0250029 0)
(8.35086 -0.0250314 0)
(8.35264 -0.0251431 0)
(8.35433 -0.0253283 0)
(8.35592 -0.0255786 0)
(8.35743 -0.0258866 0)
(8.35884 -0.0262463 0)
(8.36016 -0.0266521 0)
(8.36138 -0.0270997 0)
(8.36251 -0.0275849 0)
(8.36355 -0.0281043 0)
(8.36449 -0.028655 0)
(8.36534 -0.0292344 0)
(8.3661 -0.0298403 0)
(8.36677 -0.030471 0)
(8.36736 -0.031124 0)
(8.32884 0.0225871 0)
(8.32235 0.0427472 0)
(8.32666 0.0439676 0)
(8.33327 0.0380007 0)
(8.33773 0.0306509 0)
(8.3405 0.0234832 0)
(8.34273 0.0168183 0)
(8.34485 0.0108385 0)
(8.34697 0.00559995 0)
(8.34915 0.00105503 0)
(8.35143 -0.00287612 0)
(8.35379 -0.00627528 0)
(8.35622 -0.00922013 0)
(8.3587 -0.0117812 0)
(8.3612 -0.0140201 0)
(8.3637 -0.0159891 0)
(8.36618 -0.0177325 0)
(8.36862 -0.0192877 0)
(8.37102 -0.0206858 0)
(8.37335 -0.0219527 0)
(8.3756 -0.0231102 0)
(8.37778 -0.0241765 0)
(8.37986 -0.0251667 0)
(8.38185 -0.0260936 0)
(8.38375 -0.0269677 0)
(8.38554 -0.027798 0)
(8.38722 -0.0285921 0)
(8.3888 -0.0293561 0)
(8.39027 -0.0300955 0)
(8.39163 -0.0308146 0)
(8.39289 -0.0315176 0)
(8.39404 -0.0322071 0)
(8.39508 -0.032887 0)
(8.32436 -0.0380381 0)
(8.29385 -0.0683471 0)
(8.27211 -0.0717482 0)
(8.26664 -0.0686816 0)
(8.27353 -0.0643739 0)
(8.28615 -0.0595765 0)
(8.30088 -0.0549202 0)
(8.31616 -0.0507712 0)
(8.33116 -0.0471915 0)
(8.3454 -0.0441563 0)
(8.35869 -0.0416211 0)
(8.37097 -0.0395271 0)
(8.38224 -0.0378125 0)
(8.39255 -0.0364204 0)
(8.40195 -0.0353008 0)
(8.41052 -0.0344105 0)
(8.41831 -0.033713 0)
(8.42539 -0.0331777 0)
(8.43182 -0.0327793 0)
(8.43764 -0.0324963 0)
(8.44291 -0.0323115 0)
(8.44767 -0.0322101 0)
(8.45195 -0.0321802 0)
(8.4558 -0.0322118 0)
(8.45925 -0.0322963 0)
(8.46232 -0.0324268 0)
(8.46504 -0.0325974 0)
(8.46744 -0.032803 0)
(8.46953 -0.0330394 0)
(8.47135 -0.0333027 0)
(8.4729 -0.0335898 0)
(8.4742 -0.0338976 0)
(8.47528 -0.0342224 0)
(8.34002 0.156986 0)