/*--------------------------------*- C++ -*----------------------------------*\
| =========                 |                                                 |
| \\      /  F ield         | OpenFOAM: The Open Source CFD Toolbox           |
|  \\    /   O peration     | Version:  2.1.1                                 |
|   \\  /    A nd           | Web:      www.OpenFOAM.org                      |
|    \\/     M anipulation  |                                                 |
\*---------------------------------------------------------------------------*/
FoamFile
{
    version     2.0;
    format      ascii;
    class       volScalarField;
    location    "0.01";
    object      k;
}
// * * * * * * * * * * * * * * * * * * * * * * * * * * * * * * * * * * * * * //

dimensions      [0 2 -2 0 0 0 0];

internalField   nonuniform List<scalar> 
6820
(
0.288908
0.351392
0.414999
0.477477
0.536929
0.591757
0.640817
0.683482
0.719596
0.749386
0.773351
0.792167
0.8066
0.817447
0.825499
0.831498
0.83612
0.83999
0.843477
0.846648
0.849591
0.852323
0.854836
0.857123
0.859205
0.861133
0.862989
0.864875
0.866887
0.869167
0.871456
0.875608
0.87039
0.265527
0.269387
0.270508
0.271297
0.272443
0.273966
0.275765
0.277704
0.279651
0.281492
0.283132
0.284495
0.285512
0.286123
0.286273
0.285918
0.285045
0.28371
0.282111
0.280508
0.279109
0.278033
0.277349
0.277077
0.277152
0.27742
0.277661
0.277635
0.277136
0.276023
0.274259
0.271618
0.268814
0.262041
0.264271
0.263635
0.261609
0.259062
0.256386
0.253696
0.251004
0.248298
0.245572
0.242826
0.240075
0.237333
0.234619
0.231943
0.229311
0.226728
0.224213
0.221825
0.219684
0.217852
0.216472
0.215695
0.215595
0.216132
0.217146
0.218389
0.219587
0.220495
0.220972
0.220943
0.220527
0.219797
0.259882
0.260262
0.25978
0.258519
0.256823
0.254902
0.252862
0.25076
0.248622
0.246462
0.24429
0.242116
0.239948
0.237792
0.235648
0.233513
0.231389
0.229303
0.227319
0.225544
0.224131
0.223243
0.222999
0.223435
0.224471
0.22592
0.227526
0.22902
0.230186
0.23091
0.231198
0.231151
0.231057
0.259299
0.258404
0.257597
0.256567
0.2553
0.253864
0.252319
0.250707
0.249053
0.247375
0.245687
0.243998
0.242315
0.240642
0.238975
0.237308
0.235646
0.234024
0.232521
0.231264
0.230413
0.230124
0.230497
0.231536
0.233129
0.235061
0.23706
0.238861
0.240263
0.241174
0.241635
0.241769
0.24187
0.259224
0.257844
0.256615
0.25543
0.254225
0.252977
0.251683
0.25035
0.24899
0.247613
0.24623
0.244849
0.243476
0.242113
0.240753
0.239393
0.238041
0.236741
0.235581
0.2347
0.234262
0.23442
0.23526
0.236762
0.23879
0.241109
0.243436
0.245503
0.247119
0.248204
0.248814
0.249089
0.249304
0.259216
0.257714
0.256309
0.254982
0.253705
0.252456
0.25122
0.249991
0.248765
0.247544
0.246331
0.24513
0.243943
0.24277
0.241602
0.240436
0.239284
0.238195
0.237266
0.236642
0.236494
0.23697
0.238146
0.239986
0.242338
0.244951
0.247534
0.249818
0.251614
0.252846
0.253574
0.253948
0.254225
0.259218
0.257689
0.256224
0.254823
0.253483
0.252195
0.250949
0.249737
0.248553
0.247395
0.246261
0.245152
0.244068
0.243003
0.24195
0.240904
0.239878
0.238923
0.238144
0.237691
0.237737
0.238429
0.239837
0.241916
0.244501
0.247333
0.250113
0.252567
0.254504
0.25585
0.256657
0.25708
0.25736
0.259218
0.257685
0.256206
0.254782
0.253412
0.252094
0.250825
0.249601
0.248418
0.247274
0.246165
0.245093
0.244055
0.243044
0.242051
0.24107
0.240115
0.239239
0.23855
0.238201
0.238368
0.239198
0.240758
0.242999
0.245749
0.248741
0.251669
0.254255
0.256301
0.257727
0.258578
0.259005
0.259237
0.259218
0.257685
0.256202
0.254771
0.25339
0.252059
0.250776
0.24954
0.248349
0.247201
0.246095
0.245031
0.244008
0.243017
0.24205
0.241099
0.240179
0.239343
0.2387
0.238406
0.238639
0.239548
0.2412
0.243544
0.246404
0.249508
0.252546
0.25523
0.257355
0.258831
0.259695
0.260089
0.260234
0.259218
0.257685
0.256202
0.254768
0.253384
0.252048
0.250759
0.249516
0.248318
0.247164
0.246054
0.244989
0.243966
0.24298
0.24202
0.24108
0.240172
0.239351
0.238726
0.238454
0.238714
0.239659
0.241358
0.243761
0.246691
0.249872
0.252986
0.255739
0.257917
0.259418
0.260268
0.260602
0.260632
0.259218
0.257685
0.256201
0.254767
0.253382
0.252044
0.250752
0.249506
0.248304
0.247145
0.246032
0.244963
0.243938
0.24295
0.241989
0.24105
0.240144
0.239324
0.2387
0.23843
0.238694
0.239649
0.241366
0.243797
0.246766
0.249994
0.253159
0.255957
0.258163
0.259665
0.26048
0.260735
0.260631
0.259218
0.257684
0.256201
0.254767
0.253381
0.252042
0.250748
0.2495
0.248296
0.247135
0.246018
0.244946
0.243918
0.242927
0.241963
0.241021
0.240112
0.239288
0.238657
0.238378
0.238635
0.239583
0.241301
0.243741
0.246729
0.249985
0.253178
0.255999
0.258211
0.259695
0.260457
0.260616
0.260369
0.259218
0.257684
0.256201
0.254766
0.25338
0.25204
0.250746
0.249496
0.24829
0.247127
0.246008
0.244934
0.243902
0.242908
0.241941
0.240995
0.240081
0.239251
0.23861
0.238319
0.238561
0.239497
0.241206
0.243645
0.246639
0.249906
0.253112
0.255937
0.258138
0.259586
0.260278
0.26033
0.259934
0.259218
0.257684
0.256201
0.254766
0.253379
0.252039
0.250744
0.249493
0.248286
0.247121
0.246
0.244923
0.243888
0.242891
0.241921
0.240971
0.240052
0.239214
0.238563
0.238258
0.238485
0.239405
0.241101
0.243533
0.246525
0.249794
0.252998
0.255814
0.257988
0.259384
0.259994
0.259931
0.259385
0.259218
0.257684
0.256201
0.254766
0.253378
0.252037
0.250742
0.24949
0.248281
0.247115
0.245992
0.244912
0.243875
0.242875
0.241902
0.240947
0.240023
0.239177
0.238516
0.238198
0.238409
0.239314
0.240997
0.243418
0.246404
0.249666
0.25286
0.255653
0.257787
0.25912
0.259639
0.259455
0.25876
0.259218
0.257685
0.256201
0.254766
0.253378
0.252036
0.25074
0.249487
0.248277
0.24711
0.245985
0.244903
0.243863
0.24286
0.241883
0.240924
0.239994
0.239142
0.23847
0.23814
0.238336
0.239226
0.240895
0.243306
0.246282
0.249532
0.252708
0.255471
0.257555
0.258815
0.259236
0.258929
0.258086
0.259218
0.257685
0.256201
0.254766
0.253378
0.252036
0.250739
0.249485
0.248274
0.247105
0.245978
0.244894
0.243851
0.242845
0.241864
0.240902
0.239966
0.239106
0.238426
0.238083
0.238266
0.239143
0.240799
0.243199
0.246163
0.249399
0.252552
0.255276
0.257304
0.258485
0.258804
0.258373
0.257387
0.259218
0.257685
0.256201
0.254766
0.253377
0.252035
0.250737
0.249483
0.248271
0.2471
0.245971
0.244885
0.24384
0.24283
0.241847
0.24088
0.239939
0.239072
0.238382
0.238029
0.2382
0.239064
0.240709
0.243097
0.24605
0.249269
0.252394
0.255077
0.257043
0.258141
0.258357
0.257804
0.256682
0.259218
0.257685
0.256201
0.254766
0.253377
0.252035
0.250736
0.249481
0.248268
0.247096
0.245965
0.244877
0.243829
0.242817
0.241829
0.240859
0.239913
0.239039
0.238341
0.237977
0.238137
0.23899
0.240625
0.243003
0.245943
0.249144
0.25224
0.254878
0.256781
0.257795
0.257908
0.257237
0.255987
0.259218
0.257685
0.256201
0.254766
0.253377
0.252034
0.250735
0.249479
0.248265
0.247092
0.24596
0.244869
0.243819
0.242804
0.241813
0.240838
0.239887
0.239007
0.238301
0.237928
0.238078
0.238921
0.240546
0.242915
0.245844
0.249026
0.252092
0.254684
0.256523
0.257454
0.257468
0.256685
0.255314
0.259218
0.257685
0.256201
0.254766
0.253377
0.252034
0.250734
0.249478
0.248262
0.247088
0.245954
0.244862
0.243809
0.242791
0.241797
0.240818
0.239862
0.238976
0.238262
0.237881
0.238022
0.238856
0.240474
0.242834
0.245751
0.248915
0.251952
0.254499
0.256274
0.257125
0.257044
0.256157
0.254676
0.259218
0.257685
0.256202
0.254766
0.253377
0.252033
0.250734
0.249476
0.24826
0.247084
0.245949
0.244855
0.2438
0.242779
0.241782
0.240799
0.239839
0.238947
0.238226
0.237837
0.23797
0.238796
0.240407
0.24276
0.245666
0.248812
0.25182
0.254323
0.256039
0.256814
0.256645
0.25566
0.254079
0.259218
0.257685
0.256202
0.254766
0.253377
0.252033
0.250733
0.249475
0.248258
0.247081
0.245944
0.244848
0.243791
0.242768
0.241768
0.240782
0.239817
0.238919
0.238192
0.237795
0.237921
0.23874
0.240344
0.24269
0.245587
0.248716
0.251697
0.254159
0.255818
0.256524
0.256273
0.255201
0.253529
0.259218
0.257686
0.256202
0.254766
0.253377
0.252033
0.250732
0.249474
0.248256
0.247078
0.24594
0.244842
0.243783
0.242758
0.241755
0.240765
0.239796
0.238893
0.23816
0.237756
0.237875
0.238688
0.240286
0.242626
0.245513
0.248627
0.251582
0.254007
0.255615
0.256256
0.255933
0.254782
0.253031
0.259218
0.257686
0.256202
0.254766
0.253377
0.252033
0.250731
0.249472
0.248254
0.247075
0.245936
0.244836
0.243775
0.242748
0.241742
0.240749
0.239776
0.238869
0.23813
0.23772
0.237832
0.238639
0.240232
0.242565
0.245443
0.248543
0.251476
0.253867
0.255429
0.256014
0.255626
0.254406
0.252586
0.259218
0.257686
0.256202
0.254766
0.253377
0.252032
0.250731
0.249471
0.248252
0.247072
0.245932
0.244831
0.243768
0.242738
0.24173
0.240734
0.239758
0.238846
0.238102
0.237686
0.237792
0.238593
0.24018
0.242507
0.245378
0.248465
0.251377
0.253738
0.255261
0.255797
0.255352
0.254074
0.252194
0.259218
0.257686
0.256202
0.254766
0.253377
0.252032
0.25073
0.24947
0.24825
0.247069
0.245928
0.244826
0.243761
0.242729
0.241719
0.240721
0.239741
0.238825
0.238076
0.237654
0.237754
0.238549
0.24013
0.242452
0.245315
0.24839
0.251285
0.253621
0.25511
0.255604
0.255112
0.253784
0.251854
0.259218
0.257686
0.256202
0.254766
0.253377
0.252031
0.250729
0.249469
0.248248
0.247067
0.245924
0.244821
0.243755
0.242721
0.241709
0.240708
0.239725
0.238805
0.238052
0.237624
0.237718
0.238508
0.240083
0.242398
0.245254
0.248319
0.251199
0.253514
0.254974
0.255435
0.254904
0.253534
0.251563
0.259218
0.257686
0.256202
0.254766
0.253376
0.252031
0.250728
0.249467
0.248246
0.247064
0.245921
0.244816
0.243749
0.242713
0.241699
0.240696
0.239711
0.238788
0.238029
0.237597
0.237685
0.238468
0.240037
0.242347
0.245195
0.248252
0.25112
0.253417
0.254855
0.255288
0.254726
0.253323
0.251319
0.259218
0.257686
0.256202
0.254766
0.253377
0.252031
0.250729
0.249467
0.248246
0.247063
0.245919
0.244813
0.243744
0.242708
0.241692
0.240687
0.239699
0.238773
0.238011
0.237573
0.237655
0.238432
0.239994
0.242297
0.245139
0.248187
0.251045
0.253328
0.254749
0.25516
0.254575
0.253146
0.251116
0.259218
0.257685
0.256201
0.254765
0.253375
0.25203
0.250727
0.249466
0.248244
0.247061
0.245916
0.244809
0.24374
0.242702
0.241685
0.240678
0.239688
0.23876
0.237994
0.237552
0.237629
0.238399
0.239955
0.242252
0.245087
0.248128
0.250976
0.253249
0.254656
0.25505
0.254446
0.252997
0.250947
0.259219
0.257686
0.256204
0.254769
0.25338
0.252035
0.250733
0.249471
0.24825
0.247066
0.245921
0.244814
0.243743
0.242705
0.241686
0.240678
0.239687
0.238756
0.237987
0.23754
0.23761
0.238373
0.239921
0.242209
0.245034
0.248066
0.250904
0.253166
0.25456
0.254941
0.254323
0.25286
0.250796
0.259218
0.257685
0.256202
0.254768
0.25338
0.252036
0.250735
0.249475
0.248254
0.247071
0.245926
0.244819
0.243748
0.242709
0.24169
0.240681
0.239688
0.238755
0.237982
0.23753
0.237593
0.238347
0.239883
0.242157
0.244968
0.247985
0.250807
0.253053
0.254433
0.254801
0.254171
0.252698
0.250625
0.259219
0.257692
0.256216
0.254788
0.253404
0.252063
0.250764
0.249505
0.248285
0.247102
0.245957
0.244849
0.243778
0.242736
0.241714
0.240701
0.239703
0.238762
0.237979
0.237512
0.237555
0.238281
0.239784
0.242021
0.244793
0.247772
0.250561
0.25278
0.25414
0.254497
0.253863
0.252392
0.250325
0.259219
0.257693
0.25622
0.2548
0.253426
0.252094
0.250801
0.249546
0.248327
0.247143
0.245993
0.244878
0.243797
0.242743
0.241706
0.240676
0.239658
0.238693
0.237879
0.237371
0.237359
0.238019
0.239444
0.241597
0.244287
0.247193
0.249925
0.252106
0.253449
0.253804
0.253179
0.251722
0.24967
0.259231
0.257746
0.256307
0.254903
0.253534
0.252201
0.250902
0.249634
0.248395
0.247185
0.246005
0.244853
0.24373
0.242632
0.241549
0.240472
0.239402
0.238378
0.23749
0.236884
0.236745
0.237247
0.238491
0.240455
0.24297
0.245733
0.248371
0.250511
0.251858
0.252249
0.251675
0.250267
0.248249
0.259263
0.257818
0.256444
0.255111
0.253784
0.252452
0.251119
0.249793
0.248481
0.247192
0.245932
0.244706
0.243518
0.242366
0.241243
0.24014
0.239052
0.238003
0.237064
0.236359
0.236054
0.236323
0.237287
0.238961
0.241222
0.243811
0.246375
0.248537
0.249976
0.250493
0.250038
0.248716
0.246732
0.259604
0.258646
0.257592
0.256561
0.255619
0.254765
0.253988
0.25328
0.252641
0.252072
0.251578
0.251165
0.250838
0.250597
0.25044
0.250352
0.250319
0.25034
0.250441
0.250696
0.251223
0.252163
0.253639
0.255701
0.258289
0.261213
0.264176
0.266833
0.268861
0.270036
0.270277
0.269654
0.268343
0.266719
0.28057
0.294246
0.307629
0.320673
0.333361
0.345681
0.357619
0.369165
0.380311
0.391051
0.401382
0.411301
0.420805
0.429891
0.438554
0.446792
0.454617
0.462059
0.469153
0.475923
0.482351
0.488354
0.493781
0.498439
0.502135
0.504725
0.50615
0.506454
0.505775
0.504316
0.502317
0.499972
0.924553
1.06181
1.33783
1.69974
1.96645
1.96015
1.61327
1.04423
0.588411
0.510675
0.68807
0.906536
1.10412
1.25955
1.3713
1.44255
1.47485
1.469
1.42645
1.35001
1.24459
1.11783
0.980183
0.843524
0.718642
0.612595
0.527622
0.462063
0.41233
0.374628
0.345811
0.323533
0.306089
0.292239
0.281091
0.272014
0.264562
0.258415
0.25333
0.24912
0.245636
0.242758
0.240385
0.238435
0.236839
0.235539
0.234484
0.233634
0.232953
0.232412
0.231985
0.231652
0.231395
0.2312
0.231054
0.230948
0.230874
0.230824
0.230793
0.230777
0.230772
0.230775
0.230784
0.230797
0.230812
0.230829
0.230847
0.230864
0.230881
0.230897
0.230911
0.230925
0.230937
0.230948
0.230957
0.230965
0.230971
0.230977
0.230981
0.230984
0.230987
0.230988
0.230989
0.230989
0.230988
0.230986
0.230984
0.230982
0.230979
0.230976
0.230973
0.230969
0.230966
0.230962
0.230958
0.230953
0.230949
0.230942
0.230951
0.230873
0.2605
0.258225
0.268523
0.292773
0.319477
0.319808
0.288459
0.295392
0.387472
0.526026
0.685368
0.850524
1.00057
1.1239
1.21762
1.28122
1.31399
1.31531
1.2853
1.22544
1.13922
1.03278
0.914942
0.796036
0.685743
0.590738
0.513566
0.453245
0.406903
0.37134
0.34386
0.322428
0.305545
0.292095
0.281249
0.272405
0.265131
0.259111
0.254112
0.249952
0.246489
0.243605
0.241209
0.239222
0.237578
0.236223
0.235111
0.234201
0.233461
0.232862
0.23238
0.231995
0.23169
0.23145
0.231262
0.231118
0.231009
0.230928
0.230869
0.230827
0.230799
0.230781
0.230771
0.230767
0.230767
0.230771
0.230776
0.230783
0.23079
0.230797
0.230804
0.230811
0.230816
0.230822
0.230826
0.23083
0.230833
0.230835
0.230836
0.230836
0.230836
0.230836
0.230834
0.230833
0.23083
0.230828
0.230825
0.230821
0.230818
0.230814
0.23081
0.230806
0.230801
0.230797
0.230792
0.230787
0.230783
0.230776
0.230785
0.230707
0.21846
0.21812
0.220316
0.22563
0.234778
0.251377
0.284359
0.340781
0.423831
0.532567
0.657497
0.784326
0.900845
0.99969
1.07769
1.13339
1.16537
1.17223
1.15308
1.10817
1.03965
0.952167
0.852935
0.750801
0.654349
0.569839
0.500062
0.44467
0.401501
0.367949
0.341739
0.321125
0.304791
0.291731
0.281181
0.272569
0.265477
0.259599
0.254703
0.250615
0.247195
0.244331
0.241935
0.239932
0.238261
0.236869
0.235713
0.234756
0.233966
0.233317
0.232786
0.232352
0.232
0.231716
0.231487
0.231305
0.231159
0.231045
0.230955
0.230885
0.230832
0.230791
0.23076
0.230737
0.23072
0.230708
0.230699
0.230693
0.230689
0.230686
0.230684
0.230682
0.230681
0.23068
0.230678
0.230677
0.230675
0.230673
0.230671
0.230668
0.230665
0.230662
0.230658
0.230654
0.23065
0.230646
0.230642
0.230637
0.230633
0.230628
0.230623
0.230618
0.230613
0.230608
0.230603
0.230597
0.230593
0.230585
0.230594
0.230515
0.230775
0.230924
0.233075
0.23945
0.252721
0.27601
0.312599
0.365362
0.43591
0.522789
0.620058
0.718779
0.810321
0.889228
0.953154
1.00084
1.03086
1.04146
1.03106
0.998949
0.946077
0.875714
0.793572
0.707058
0.623671
0.549182
0.486524
0.435902
0.395824
0.364249
0.339312
0.31953
0.303757
0.291095
0.280844
0.272466
0.265562
0.259833
0.255055
0.251056
0.2477
0.244879
0.242506
0.24051
0.238833
0.237425
0.236244
0.235256
0.234432
0.233745
0.233174
0.232701
0.23231
0.231987
0.231722
0.231504
0.231325
0.23118
0.231061
0.230964
0.230886
0.230822
0.23077
0.230728
0.230694
0.230666
0.230643
0.230623
0.230607
0.230594
0.230582
0.230572
0.230563
0.230555
0.230547
0.23054
0.230533
0.230527
0.230521
0.230514
0.230508
0.230502
0.230496
0.23049
0.230485
0.230479
0.230473
0.230467
0.230461
0.230455
0.230449
0.230444
0.230438
0.230432
0.230427
0.230421
0.230416
0.230408
0.230416
0.230337
0.241987
0.242837
0.246274
0.254328
0.26871
0.291353
0.32465
0.370751
0.430164
0.500947
0.578562
0.656514
0.728744
0.791599
0.843575
0.883847
0.911246
0.924055
0.920366
0.898796
0.859334
0.804036
0.737245
0.66501
0.593763
0.528729
0.47288
0.42688
0.389831
0.360226
0.336578
0.317651
0.302458
0.290205
0.280255
0.272111
0.265394
0.259816
0.255162
0.251261
0.247982
0.245219
0.242887
0.240917
0.239253
0.237847
0.236661
0.23566
0.234816
0.234106
0.23351
0.233009
0.232589
0.232237
0.231943
0.231697
0.231492
0.23132
0.231177
0.231057
0.230956
0.230872
0.230802
0.230742
0.230692
0.23065
0.230613
0.230582
0.230555
0.230532
0.230511
0.230493
0.230476
0.230462
0.230448
0.230436
0.230424
0.230414
0.230404
0.230394
0.230385
0.230376
0.230368
0.23036
0.230352
0.230345
0.230338
0.23033
0.230323
0.230317
0.23031
0.230303
0.230297
0.230291
0.230285
0.230278
0.230273
0.230265
0.230272
0.230193
0.249675
0.250863
0.254373
0.262132
0.275887
0.297179
0.327352
0.367242
0.416743
0.474261
0.536301
0.598131
0.655496
0.705861
0.748237
0.782147
0.806768
0.820618
0.821778
0.808521
0.780151
0.737731
0.684396
0.624948
0.564783
0.508546
0.459151
0.417608
0.383536
0.3559
0.333562
0.315517
0.300926
0.289094
0.279451
0.27154
0.265007
0.259579
0.255047
0.251246
0.248049
0.245351
0.24307
0.241139
0.239502
0.238113
0.236935
0.235936
0.235089
0.23437
0.233761
0.233245
0.232808
0.232438
0.232125
0.23186
0.231635
0.231444
0.231282
0.231145
0.231028
0.230928
0.230843
0.23077
0.230707
0.230652
0.230605
0.230564
0.230528
0.230496
0.230468
0.230443
0.23042
0.2304
0.230381
0.230365
0.230349
0.230335
0.230322
0.230309
0.230298
0.230287
0.230277
0.230267
0.230257
0.230249
0.23024
0.230232
0.230224
0.230216
0.230209
0.230202
0.230195
0.230188
0.230181
0.230175
0.230169
0.23016
0.230168
0.230088
0.254732
0.256142
0.2597
0.267006
0.279456
0.298186
0.324131
0.357766
0.398702
0.445406
0.495152
0.544539
0.590555
0.631384
0.666318
0.695063
0.717061
0.731136
0.735565
0.72856
0.709024
0.677276
0.635431
0.587179
0.536944
0.488763
0.445413
0.408141
0.376982
0.351311
0.330305
0.313169
0.299202
0.287807
0.278477
0.2708
0.264449
0.259166
0.254752
0.251049
0.247932
0.245301
0.243074
0.241187
0.239584
0.238222
0.237063
0.236076
0.235236
0.23452
0.23391
0.233389
0.232946
0.232567
0.232244
0.231968
0.231732
0.23153
0.231357
0.231208
0.23108
0.230969
0.230874
0.230791
0.230719
0.230656
0.230601
0.230553
0.23051
0.230472
0.230439
0.230408
0.230381
0.230357
0.230335
0.230315
0.230296
0.230279
0.230263
0.230249
0.230236
0.230223
0.230211
0.2302
0.230189
0.230179
0.23017
0.230161
0.230152
0.230144
0.230136
0.230128
0.230121
0.230114
0.230107
0.2301
0.230094
0.230085
0.230092
0.230012
0.257874
0.259271
0.262554
0.269018
0.279821
0.295864
0.317768
0.345713
0.379213
0.41698
0.456959
0.496697
0.534039
0.567628
0.596879
0.621543
0.641214
0.654991
0.661436
0.6589
0.646129
0.62294
0.590645
0.551972
0.510457
0.469536
0.431775
0.398555
0.370228
0.34651
0.32685
0.310645
0.297325
0.286382
0.277376
0.269937
0.263765
0.258624
0.254323
0.250713
0.247673
0.245107
0.242934
0.241091
0.239525
0.238193
0.237057
0.236089
0.235263
0.234557
0.233953
0.233436
0.232994
0.232614
0.232289
0.23201
0.231769
0.231562
0.231383
0.231229
0.231095
0.230979
0.230878
0.230789
0.230712
0.230644
0.230584
0.230532
0.230485
0.230443
0.230406
0.230373
0.230343
0.230316
0.230291
0.230269
0.230248
0.23023
0.230212
0.230196
0.230182
0.230168
0.230155
0.230143
0.230132
0.230121
0.230111
0.230101
0.230092
0.230084
0.230075
0.230067
0.23006
0.230052
0.230045
0.230038
0.230032
0.230022
0.23003
0.22995
0.259653
0.260864
0.263709
0.269229
0.278352
0.291776
0.309925
0.332854
0.360103
0.390636
0.422916
0.455179
0.485857
0.513903
0.538783
0.560224
0.577879
0.591049
0.598586
0.599075
0.591286
0.574747
0.550174
0.51951
0.485505
0.451017
0.418353
0.388937
0.363339
0.341546
0.323238
0.307981
0.295327
0.284854
0.276182
0.268987
0.262998
0.257997
0.253806
0.250285
0.247318
0.244812
0.242689
0.240889
0.239359
0.238057
0.236947
0.235999
0.23519
0.234497
0.233904
0.233396
0.23296
0.232585
0.232262
0.231984
0.231744
0.231537
0.231358
0.231202
0.231066
0.230948
0.230845
0.230755
0.230675
0.230605
0.230543
0.230489
0.23044
0.230396
0.230357
0.230323
0.230291
0.230263
0.230237
0.230213
0.230192
0.230172
0.230154
0.230138
0.230122
0.230108
0.230094
0.230082
0.23007
0.230059
0.230049
0.230039
0.230029
0.230021
0.230012
0.230004
0.229996
0.229988
0.229981
0.229974
0.229967
0.229958
0.229966
0.229885
0.260481
0.26139
0.263697
0.268247
0.275787
0.286861
0.301764
0.32048
0.342611
0.367358
0.39359
0.420032
0.44553
0.469248
0.490682
0.50952
0.525423
0.537823
0.545815
0.548237
0.543984
0.532464
0.513985
0.489874
0.462218
0.433342
0.405265
0.379376
0.356382
0.33647
0.319507
0.305208
0.293235
0.283247
0.274922
0.267979
0.262177
0.257317
0.253236
0.249802
0.246904
0.244455
0.24238
0.240619
0.239123
0.237849
0.236764
0.235837
0.235045
0.234368
0.233787
0.233289
0.232862
0.232494
0.232177
0.231904
0.231668
0.231463
0.231286
0.231131
0.230997
0.23088
0.230777
0.230687
0.230607
0.230537
0.230475
0.23042
0.230371
0.230327
0.230288
0.230253
0.230221
0.230192
0.230166
0.230142
0.23012
0.230101
0.230082
0.230065
0.23005
0.230035
0.230022
0.230009
0.229997
0.229986
0.229975
0.229965
0.229956
0.229947
0.229938
0.22993
0.229922
0.229914
0.229907
0.2299
0.229893
0.229884
0.229891
0.229811
0.260668
0.261219
0.262956
0.266585
0.272716
0.281773
0.293961
0.309234
0.327264
0.347442
0.368936
0.390818
0.412223
0.432475
0.451105
0.467769
0.482124
0.493681
0.501715
0.505294
0.503477
0.495656
0.481887
0.463042
0.440668
0.416616
0.392614
0.369959
0.349423
0.331329
0.315692
0.302353
0.291072
0.28158
0.273614
0.266932
0.261323
0.256608
0.252638
0.24929
0.24646
0.244066
0.242036
0.240313
0.238849
0.237602
0.236539
0.235632
0.234857
0.234194
0.233627
0.23314
0.232722
0.232362
0.232052
0.231785
0.231554
0.231354
0.23118
0.231029
0.230898
0.230783
0.230682
0.230593
0.230515
0.230446
0.230385
0.230331
0.230283
0.23024
0.230201
0.230166
0.230134
0.230106
0.23008
0.230056
0.230035
0.230015
0.229997
0.22998
0.229964
0.22995
0.229936
0.229924
0.229912
0.229901
0.22989
0.22988
0.229871
0.229862
0.229853
0.229845
0.229837
0.229829
0.229822
0.229815
0.229808
0.229799
0.229806
0.229726
0.260438
0.260613
0.261793
0.264588
0.269506
0.276882
0.286859
0.299375
0.314159
0.330745
0.348515
0.366787
0.384904
0.402315
0.418592
0.433384
0.446343
0.457034
0.46486
0.469072
0.468891
0.463753
0.453574
0.438904
0.420868
0.400916
0.380492
0.360768
0.342525
0.32617
0.311827
0.29944
0.288855
0.279869
0.272271
0.265859
0.260449
0.255884
0.252027
0.248766
0.246006
0.243666
0.24168
0.239993
0.238558
0.237337
0.236295
0.235407
0.234648
0.233999
0.233444
0.232968
0.232559
0.232208
0.231906
0.231645
0.23142
0.231225
0.231056
0.230909
0.230781
0.230669
0.230571
0.230484
0.230409
0.230342
0.230282
0.230229
0.230182
0.23014
0.230102
0.230068
0.230038
0.23001
0.229985
0.229961
0.22994
0.229921
0.229903
0.229887
0.229871
0.229857
0.229844
0.229831
0.229819
0.229808
0.229798
0.229788
0.229779
0.22977
0.229761
0.229753
0.229745
0.229737
0.22973
0.229722
0.229716
0.229707
0.229714
0.229633
0.259942
0.259749
0.26041
0.262473
0.266368
0.272367
0.280567
0.290893
0.303117
0.316874
0.3317
0.347083
0.362518
0.377558
0.391819
0.404962
0.416648
0.426479
0.433952
0.438456
0.439352
0.436143
0.428678
0.417289
0.402784
0.386282
0.368969
0.351874
0.335747
0.321037
0.307944
0.296493
0.2866
0.278125
0.270903
0.264767
0.259564
0.255152
0.251413
0.248242
0.245551
0.243266
0.241324
0.239673
0.238267
0.23707
0.236049
0.235179
0.234435
0.233799
0.233256
0.23279
0.23239
0.232047
0.231752
0.231498
0.231279
0.231089
0.230924
0.230782
0.230657
0.230549
0.230454
0.23037
0.230297
0.230232
0.230175
0.230124
0.230078
0.230037
0.230001
0.229968
0.229938
0.229911
0.229887
0.229864
0.229844
0.229825
0.229807
0.229791
0.229776
0.229762
0.229749
0.229737
0.229725
0.229714
0.229704
0.229694
0.229685
0.229676
0.229667
0.229659
0.229651
0.229644
0.229636
0.229629
0.229622
0.229613
0.22962
0.22954
0.259278
0.258736
0.258931
0.26036
0.263405
0.268285
0.275061
0.28365
0.293849
0.305366
0.317842
0.330887
0.344111
0.357147
0.369661
0.381338
0.391856
0.400852
0.407891
0.412468
0.414057
0.41223
0.406812
0.397992
0.386346
0.372727
0.358096
0.343337
0.329142
0.315972
0.304073
0.293532
0.284323
0.276359
0.269516
0.263664
0.258671
0.254419
0.2508
0.247721
0.245101
0.242872
0.240975
0.239359
0.237983
0.23681
0.235809
0.234955
0.234227
0.233604
0.233071
0.232615
0.232225
0.231889
0.231601
0.231353
0.23114
0.230955
0.230795
0.230657
0.230536
0.230431
0.230339
0.230258
0.230187
0.230125
0.230069
0.23002
0.229976
0.229937
0.229902
0.22987
0.229841
0.229815
0.229791
0.22977
0.22975
0.229731
0.229714
0.229699
0.229684
0.22967
0.229658
0.229646
0.229634
0.229623
0.229613
0.229604
0.229594
0.229585
0.229577
0.229569
0.229561
0.229553
0.229546
0.229539
0.229532
0.229523
0.22953
0.229449
0.258507
0.257644
0.257423
0.258313
0.260653
0.264625
0.270261
0.277464
0.286052
0.295779
0.306362
0.317499
0.328884
0.340217
0.351211
0.36158
0.371027
0.379223
0.38579
0.390301
0.392319
0.39148
0.387607
0.380799
0.37146
0.360239
0.347904
0.335203
0.322756
0.311012
0.300244
0.290579
0.282039
0.274581
0.268119
0.262553
0.257775
0.253686
0.25019
0.247206
0.24466
0.242488
0.240636
0.239056
0.237709
0.23656
0.235579
0.234742
0.234028
0.233417
0.232896
0.232449
0.232067
0.231739
0.231458
0.231216
0.231008
0.230828
0.230673
0.230538
0.230421
0.23032
0.230231
0.230153
0.230084
0.230024
0.229971
0.229923
0.229881
0.229843
0.229809
0.229778
0.229751
0.229725
0.229703
0.229682
0.229662
0.229644
0.229628
0.229613
0.229598
0.229585
0.229572
0.229561
0.229549
0.229539
0.229529
0.229519
0.22951
0.229501
0.229493
0.229485
0.229477
0.229469
0.229462
0.229455
0.229448
0.229439
0.229446
0.229365
0.25767
0.256514
0.255929
0.25636
0.258118
0.261353
0.266069
0.272161
0.279456
0.287741
0.296787
0.306353
0.316198
0.326078
0.335747
0.344952
0.353423
0.360865
0.366946
0.371302
0.373568
0.373434
0.37073
0.365497
0.35802
0.348786
0.338407
0.327505
0.316627
0.306192
0.296483
0.287653
0.279762
0.272801
0.266718
0.261439
0.256879
0.252955
0.249586
0.246698
0.244227
0.242114
0.240308
0.238765
0.237447
0.236322
0.235361
0.234541
0.233841
0.233242
0.232731
0.232294
0.231919
0.231599
0.231324
0.231088
0.230885
0.23071
0.230559
0.230428
0.230315
0.230217
0.230131
0.230055
0.229989
0.229931
0.229879
0.229834
0.229793
0.229757
0.229724
0.229694
0.229668
0.229643
0.229621
0.229601
0.229582
0.229565
0.229549
0.229534
0.22952
0.229507
0.229495
0.229483
0.229472
0.229462
0.229452
0.229443
0.229433
0.229425
0.229416
0.229408
0.2294
0.229393
0.229386
0.229378
0.229372
0.229362
0.22937
0.229288
0.256797
0.255375
0.254473
0.254517
0.255793
0.258426
0.262397
0.267592
0.273841
0.280954
0.288739
0.297004
0.305555
0.314193
0.322709
0.33088
0.338467
0.345205
0.350805
0.354954
0.357342
0.357705
0.355885
0.351889
0.345913
0.338324
0.329603
0.320265
0.310782
0.30154
0.292813
0.284774
0.277507
0.27103
0.26532
0.260326
0.255985
0.252228
0.248987
0.246198
0.243803
0.241749
0.23999
0.238484
0.237196
0.236096
0.235155
0.234351
0.233665
0.233078
0.232577
0.232149
0.231783
0.231469
0.2312
0.23097
0.230772
0.230602
0.230455
0.230328
0.230218
0.230122
0.230039
0.229966
0.229903
0.229846
0.229797
0.229753
0.229714
0.229678
0.229647
0.229619
0.229593
0.229569
0.229548
0.229528
0.22951
0.229493
0.229478
0.229463
0.22945
0.229437
0.229425
0.229414
0.229403
0.229393
0.229383
0.229374
0.229365
0.229356
0.229348
0.22934
0.229332
0.229324
0.229317
0.22931
0.229303
0.229294
0.229301
0.22922
0.255913
0.254252
0.253073
0.252789
0.253667
0.255806
0.259172
0.263635
0.269031
0.275183
0.281928
0.289108
0.296567
0.304141
0.311654
0.318912
0.325702
0.331792
0.336926
0.340837
0.34326
0.343969
0.342819
0.339794
0.335029
0.328798
0.321479
0.313492
0.305244
0.297078
0.289257
0.281959
0.275285
0.269276
0.263931
0.259219
0.255096
0.251506
0.248395
0.245706
0.243388
0.241395
0.239683
0.238215
0.236957
0.23588
0.23496
0.234173
0.2335
0.232925
0.232434
0.232014
0.231656
0.231349
0.231086
0.230861
0.230668
0.230502
0.230359
0.230236
0.230129
0.230036
0.229956
0.229885
0.229824
0.22977
0.229722
0.229679
0.229642
0.229608
0.229577
0.22955
0.229525
0.229503
0.229482
0.229463
0.229445
0.229429
0.229414
0.2294
0.229387
0.229374
0.229362
0.229351
0.229341
0.229331
0.229321
0.229312
0.229303
0.229294
0.229286
0.229278
0.22927
0.229263
0.229255
0.229248
0.229242
0.229232
0.22924
0.229158
0.255035
0.253161
0.251743
0.251182
0.251729
0.253463
0.25633
0.260194
0.264887
0.270247
0.276128
0.282399
0.288933
0.295595
0.302235
0.308687
0.314764
0.320261
0.324955
0.328614
0.331012
0.331954
0.331309
0.329048
0.325259
0.320149
0.314011
0.307189
0.300025
0.292825
0.285832
0.279223
0.27311
0.26755
0.262558
0.258123
0.254215
0.250793
0.24781
0.245222
0.242982
0.24105
0.239386
0.237955
0.236728
0.235676
0.234775
0.234004
0.233345
0.232782
0.232301
0.23189
0.231538
0.231238
0.230981
0.230761
0.230573
0.230411
0.230272
0.230152
0.230048
0.229958
0.22988
0.229812
0.229752
0.2297
0.229654
0.229613
0.229577
0.229544
0.229515
0.229488
0.229464
0.229443
0.229423
0.229404
0.229387
0.229371
0.229357
0.229343
0.22933
0.229318
0.229306
0.229295
0.229285
0.229275
0.229265
0.229256
0.229247
0.229239
0.229231
0.229223
0.229215
0.229207
0.2292
0.229193
0.229186
0.229177
0.229184
0.229103
0.254182
0.252117
0.250492
0.249699
0.249969
0.251368
0.253824
0.257192
0.261303
0.266003
0.271161
0.276667
0.282415
0.288293
0.294176
0.299919
0.30536
0.310319
0.314601
0.318006
0.320339
0.321431
0.321165
0.319504
0.316503
0.312315
0.307171
0.301348
0.295133
0.288793
0.282553
0.276581
0.270993
0.265859
0.261208
0.257043
0.253346
0.250088
0.247235
0.244746
0.242585
0.240714
0.239098
0.237706
0.236509
0.235481
0.2346
0.233846
0.2332
0.232648
0.232177
0.231774
0.23143
0.231135
0.230884
0.230669
0.230485
0.230327
0.230191
0.230075
0.229974