/*--------------------------------*- C++ -*----------------------------------*\
| =========                 |                                                 |
| \\      /  F ield         | OpenFOAM: The Open Source CFD Toolbox           |
|  \\    /   O peration     | Version:  2.1.1                                 |
|   \\  /    A nd           | Web:      www.OpenFOAM.org                      |
|    \\/     M anipulation  |                                                 |
\*---------------------------------------------------------------------------*/
FoamFile
{
    version     2.0;
    format      ascii;
    class       volScalarField;
    location    "0.01";
    object      nut;
}
// * * * * * * * * * * * * * * * * * * * * * * * * * * * * * * * * * * * * * //

dimensions      [0 2 -1 0 0 0 0];

internalField   nonuniform List<scalar> 
6820
(
4.96024e-05
5.4704e-05
5.94492e-05
6.37675e-05
6.76209e-05
7.09894e-05
7.38734e-05
7.62926e-05
7.82818e-05
7.98849e-05
8.1151e-05
8.21306e-05
8.28731e-05
8.34251e-05
8.38301e-05
8.41276e-05
8.43522e-05
8.45361e-05
8.47014e-05
8.48517e-05
8.49927e-05
8.51257e-05
8.52504e-05
8.53661e-05
8.54732e-05
8.55732e-05
8.56693e-05
8.57658e-05
8.58667e-05
8.59789e-05
8.60889e-05
8.62914e-05
8.60192e-05
0.000540268
0.000305195
0.000220362
0.000172089
0.000141154
0.00012037
0.000105908
9.55731e-05
8.80473e-05
8.24961e-05
7.83707e-05
7.52986e-05
7.30188e-05
7.13427e-05
7.01273e-05
6.92586e-05
6.8641e-05
6.81881e-05
6.78157e-05
6.74663e-05
6.7133e-05
6.68582e-05
6.66982e-05
6.66925e-05
6.6848e-05
6.71379e-05
6.75093e-05
6.79015e-05
6.82602e-05
6.85717e-05
6.87993e-05
6.918e-05
6.91641e-05
0.00105863
0.000835912
0.000678939
0.000569254
0.000489638
0.000429664
0.000383233
0.000346396
0.000316536
0.000291893
0.000271258
0.000253774
0.000238816
0.000225921
0.00021473
0.000204961
0.000196385
0.000188848
0.000182175
0.000176095
0.000171145
0.000167491
0.000165063
0.000163767
0.000163483
0.000164066
0.000165347
0.000167173
0.000169423
0.000172091
0.000175153
0.000179117
0.000183498
0.00115955
0.00109645
0.00101142
0.000925983
0.000849173
0.00078274
0.000725898
0.000677231
0.000635328
0.00059897
0.000567166
0.000539121
0.000514205
0.000491921
0.000471879
0.000453781
0.000437431
0.000422612
0.000409401
0.000398106
0.000388789
0.000381485
0.000376157
0.000372691
0.000370904
0.000370575
0.000371486
0.000373468
0.000376431
0.000380431
0.000385586
0.000392363
0.000400843
0.00116967
0.00115861
0.00113357
0.00109747
0.00105555
0.00101204
0.000969495
0.000929222
0.000891768
0.000857261
0.000825614
0.000796644
0.000770126
0.000745827
0.000723537
0.000703056
0.000684263
0.00066726
0.000652122
0.000638992
0.000628006
0.000619236
0.000612649
0.000608109
0.000605402
0.000604289
0.000604557
0.000606072
0.00060881
0.000612892
0.000618548
0.000626185
0.000636141
0.00117006
0.00116838
0.00116303
0.00115258
0.00113712
0.00111772
0.00109568
0.0010722
0.00104821
0.00102436
0.0010011
0.000978696
0.000957313
0.00093702
0.000917826
0.000899783
0.000882986
0.00086758
0.000853774
0.000841803
0.000831858
0.000824029
0.000818267
0.000814396
0.000812166
0.000811314
0.000811625
0.000812984
0.000815405
0.00081905
0.000824208
0.000831264
0.000840642
0.00116996
0.00116938
0.00116821
0.00116568
0.00116123
0.00115463
0.00114596
0.00113554
0.00112374
0.00111097
0.00109759
0.00108391
0.00107015
0.0010565
0.00104309
0.0010301
0.00101771
0.00100619
0.000995888
0.000987127
0.000980162
0.000975089
0.000971824
0.000970132
0.000969695
0.000970194
0.000971379
0.000973123
0.000975448
0.000978538
0.000982721
0.000988398
0.000996032
0.00116994
0.0011694
0.00116882
0.00116802
0.00116675
0.00116475
0.00116188
0.00115806
0.00115333
0.00114776
0.00114148
0.00113464
0.00112735
0.00111975
0.00111194
0.00110408
0.0010964
0.00108924
0.001083
0.00107808
0.00107477
0.00107318
0.00107315
0.00107437
0.00107641
0.00107887
0.00108144
0.00108394
0.00108639
0.001089
0.00109211
0.00109618
0.0011017
0.00116994
0.00116939
0.00116886
0.00116832
0.00116771
0.00116695
0.00116594
0.0011646
0.00116287
0.00116073
0.00115819
0.00115526
0.00115197
0.00114835
0.00114444
0.00114036
0.0011363
0.00113262
0.00112976
0.00112814
0.00112809
0.00112967
0.00113268
0.0011367
0.0011412
0.00114567
0.0011497
0.00115307
0.00115579
0.00115806
0.00116026
0.00116288
0.00116647
0.00116994
0.00116938
0.00116885
0.00116833
0.00116783
0.00116732
0.00116677
0.00116614
0.00116541
0.00116455
0.00116353
0.00116235
0.00116099
0.00115943
0.00115766
0.00115575
0.00115389
0.00115241
0.00115176
0.00115239
0.00115462
0.00115852
0.00116381
0.00117001
0.00117647
0.00118258
0.00118785
0.00119201
0.00119503
0.0011971
0.00119864
0.00120016
0.00120224
0.00116994
0.00116938
0.00116884
0.00116833
0.00116783
0.00116735
0.00116689
0.00116643
0.00116596
0.00116547
0.00116496
0.00116441
0.0011638
0.0011631
0.00116228
0.0011614
0.00116062
0.00116027
0.0011608
0.00116268
0.00116623
0.00117151
0.00117823
0.00118583
0.0011936
0.00120084
0.001207
0.00121175
0.00121503
0.00121702
0.00121813
0.00121889
0.0012199
0.00116994
0.00116938
0.00116884
0.00116832
0.00116782
0.00116735
0.00116689
0.00116646
0.00116604
0.00116564
0.00116526
0.0011649
0.00116453
0.00116412
0.00116365
0.00116317
0.00116282
0.00116295
0.001164
0.00116644
0.00117062
0.00117658
0.00118404
0.00119241
0.00120092
0.00120884
0.00121556
0.0012207
0.00122416
0.00122612
0.00122695
0.00122719
0.00122745
0.00116994
0.00116938
0.00116884
0.00116832
0.00116782
0.00116734
0.00116688
0.00116645
0.00116604
0.00116565
0.0011653
0.00116498
0.00116467
0.00116434
0.00116398
0.00116362
0.00116342
0.0011637
0.00116492
0.00116756
0.00117196
0.0011782
0.00118597
0.00119468
0.00120356
0.00121184
0.00121886
0.00122422
0.00122779
0.0012297
0.00123033
0.00123021
0.00122992
0.00116994
0.00116938
0.00116884
0.00116832
0.00116782
0.00116734
0.00116688
0.00116644
0.00116603
0.00116564
0.00116529
0.00116497
0.00116467
0.00116436
0.00116402
0.00116368
0.00116351
0.00116383
0.00116508
0.00116775
0.00117219
0.00117849
0.00118635
0.00119519
0.00120422
0.00121265
0.00121982
0.00122529
0.00122889
0.00123074
0.0012312
0.00123077
0.00123004
0.00116994
0.00116938
0.00116884
0.00116832
0.00116782
0.00116734
0.00116687
0.00116643
0.00116602
0.00116563
0.00116527
0.00116495
0.00116464
0.00116433
0.00116399
0.00116365
0.00116348
0.00116378
0.00116501
0.00116765
0.00117206
0.00117834
0.0011862
0.00119505
0.00120412
0.00121261
0.00121984
0.00122533
0.00122892
0.00123068
0.00123095
0.00123024
0.00122911
0.00116994
0.00116938
0.00116884
0.00116832
0.00116782
0.00116733
0.00116687
0.00116643
0.00116601
0.00116561
0.00116525
0.00116492
0.00116462
0.0011643
0.00116395
0.00116361
0.00116342
0.0011637
0.00116489
0.00116749
0.00117185
0.00117807
0.00118589
0.00119472
0.00120378
0.00121227
0.0012195
0.00122497
0.00122849
0.00123014
0.00123021
0.00122922
0.00122773
0.00116994
0.00116938
0.00116884
0.00116832
0.00116782
0.00116733
0.00116687
0.00116642
0.001166
0.0011656
0.00116524
0.0011649
0.00116459
0.00116426
0.00116391
0.00116356
0.00116335
0.00116361
0.00116477
0.00116732
0.00117162
0.00117778
0.00118555
0.00119434
0.00120337
0.00121183
0.00121903
0.00122445
0.00122788
0.00122938
0.00122925
0.00122798
0.00122614
0.00116994
0.00116938
0.00116884
0.00116832
0.00116781
0.00116733
0.00116686
0.00116642
0.00116599
0.00116559
0.00116522
0.00116488
0.00116456
0.00116423
0.00116387
0.00116351
0.00116329
0.00116352
0.00116465
0.00116715
0.00117141
0.00117751
0.00118522
0.00119396
0.00120295
0.00121137
0.00121851
0.00122386
0.00122718
0.00122852
0.00122817
0.00122663
0.00122445
0.00116994
0.00116938
0.00116884
0.00116832
0.00116781
0.00116733
0.00116686
0.00116641
0.00116598
0.00116558
0.00116521
0.00116487
0.00116454
0.0011642
0.00116383
0.00116346
0.00116323
0.00116344
0.00116454
0.001167
0.0011712
0.00117725
0.00118491
0.0011936
0.00120254
0.00121091
0.00121799
0.00122325
0.00122644
0.00122761
0.00122704
0.00122523
0.00122274
0.00116994
0.00116938
0.00116884
0.00116832
0.00116781
0.00116733
0.00116686
0.00116641
0.00116598
0.00116557
0.0011652
0.00116485
0.00116452
0.00116417
0.0011638
0.00116341
0.00116317
0.00116336
0.00116443
0.00116685
0.00117101
0.00117702
0.00118462
0.00119326
0.00120215
0.00121047
0.00121747
0.00122263
0.00122569
0.00122668
0.0012259
0.00122382
0.00122103
0.00116994
0.00116938
0.00116884
0.00116832
0.00116781
0.00116733
0.00116686
0.00116641
0.00116597
0.00116557
0.00116518
0.00116483
0.0011645
0.00116415
0.00116376
0.00116337
0.00116312
0.00116329
0.00116433
0.00116672
0.00117084
0.0011768
0.00118435
0.00119294
0.00120178
0.00121004
0.00121696
0.00122202
0.00122494
0.00122576
0.00122477
0.00122245
0.00121938
0.00116994
0.00116938
0.00116884
0.00116832
0.00116782
0.00116733
0.00116686
0.0011664
0.00116597
0.00116556
0.00116517
0.00116482
0.00116448
0.00116412
0.00116373
0.00116333
0.00116306
0.00116322
0.00116424
0.0011666
0.00117068
0.00117659
0.00118411
0.00119265
0.00120144
0.00120963
0.00121648
0.00122144
0.00122423
0.00122487
0.00122368
0.00122113
0.00121781
0.00116994
0.00116938
0.00116884
0.00116832
0.00116782
0.00116733
0.00116686
0.0011664
0.00116597
0.00116555
0.00116516
0.0011648
0.00116446
0.0011641
0.0011637
0.00116329
0.00116301
0.00116315
0.00116415
0.00116648
0.00117053
0.00117641
0.00118388
0.00119238
0.00120112
0.00120926
0.00121603
0.00122088
0.00122354
0.00122403
0.00122265
0.00121989
0.00121635
0.00116994
0.00116938
0.00116884
0.00116832
0.00116782
0.00116733
0.00116685
0.0011664
0.00116596
0.00116555
0.00116516
0.00116479
0.00116444
0.00116408
0.00116367
0.00116326
0.00116297
0.00116309
0.00116407
0.00116637
0.00117039
0.00117623
0.00118367
0.00119213
0.00120082
0.0012089
0.0012156
0.00122036
0.0012229
0.00122325
0.0012217
0.00121875
0.001215
0.00116994
0.00116938
0.00116884
0.00116832
0.00116782
0.00116733
0.00116685
0.0011664
0.00116596
0.00116554
0.00116515
0.00116478
0.00116443
0.00116405
0.00116365
0.00116322
0.00116293
0.00116304
0.00116399
0.00116628
0.00117026
0.00117607
0.00118348
0.0011919
0.00120055
0.00120857
0.0012152
0.00121988
0.00122231
0.00122253
0.00122083
0.00121771
0.00121379
0.00116994
0.00116938
0.00116884
0.00116832
0.00116782
0.00116733
0.00116685
0.0011664
0.00116596
0.00116554
0.00116514
0.00116477
0.00116441
0.00116404
0.00116362
0.00116319
0.00116289
0.00116299
0.00116393
0.00116618
0.00117014
0.00117593
0.00118329
0.00119168
0.00120029
0.00120827
0.00121484
0.00121944
0.00122178
0.00122188
0.00122005
0.00121679
0.00121271
0.00116994
0.00116938
0.00116884
0.00116832
0.00116782
0.00116733
0.00116685
0.00116639
0.00116595
0.00116553
0.00116513
0.00116476
0.0011644
0.00116402
0.0011636
0.00116317
0.00116285
0.00116294
0.00116386
0.0011661
0.00117003
0.00117579
0.00118312
0.00119147
0.00120004
0.00120798
0.0012145
0.00121904
0.0012213
0.0012213
0.00121936
0.00121598
0.00121177
0.00116994
0.00116938
0.00116884
0.00116832
0.00116782
0.00116733
0.00116685
0.00116639
0.00116595
0.00116553
0.00116513
0.00116475
0.00116438
0.001164
0.00116358
0.00116314
0.00116282
0.0011629
0.0011638
0.00116602
0.00116993
0.00117565
0.00118296
0.00119128
0.00119982
0.00120771
0.0012142
0.00121868
0.00122088
0.0012208
0.00121876
0.00121528
0.00121096
0.00116994
0.00116938
0.00116884
0.00116832
0.00116782
0.00116733
0.00116685
0.00116639
0.00116595
0.00116552
0.00116512
0.00116474
0.00116437
0.00116399
0.00116356
0.00116312
0.00116279
0.00116286
0.00116375
0.00116595
0.00116983
0.00117553
0.0011828
0.00119109
0.0011996
0.00120747
0.00121391
0.00121836
0.0012205
0.00122037
0.00121826
0.00121469
0.00121028
0.00116994
0.00116938
0.00116884
0.00116832
0.00116782
0.00116732
0.00116685
0.00116639
0.00116594
0.00116552
0.00116512
0.00116473
0.00116436
0.00116398
0.00116355
0.0011631
0.00116276
0.00116282
0.0011637
0.00116588
0.00116974
0.00117541
0.00118265
0.00119091
0.0011994
0.00120724
0.00121366
0.00121807
0.00122018
0.00122
0.00121784
0.00121421
0.00120972
0.00116994
0.00116938
0.00116884
0.00116832
0.00116782
0.00116733
0.00116685
0.00116639
0.00116594
0.00116552
0.00116511
0.00116473
0.00116436
0.00116397
0.00116353
0.00116308
0.00116274
0.00116279
0.00116366
0.00116582
0.00116966
0.0011753
0.00118252
0.00119075
0.0011992
0.00120702
0.00121343
0.00121782
0.0012199
0.00121969
0.00121749
0.00121381
0.00120927
0.00116994
0.00116938
0.00116884
0.00116832
0.00116782
0.00116733
0.00116685
0.00116639
0.00116594
0.00116552
0.00116511
0.00116473
0.00116435
0.00116396
0.00116353
0.00116307
0.00116273
0.00116277
0.00116363
0.00116577
0.00116959
0.0011752
0.00118238
0.00119059
0.00119902
0.00120682
0.0012132
0.00121758
0.00121965
0.00121942
0.00121719
0.00121348
0.0012089
0.00116994
0.00116938
0.00116885
0.00116833
0.00116783
0.00116734
0.00116686
0.0011664
0.00116596
0.00116553
0.00116513
0.00116474
0.00116436
0.00116397
0.00116353
0.00116307
0.00116272
0.00116276
0.00116359
0.00116571
0.00116949
0.00117506
0.0011822
0.00119036
0.00119874
0.00120651
0.00121286
0.00121722
0.00121927
0.00121902
0.00121679
0.00121307
0.00120848
0.00116994
0.00116938
0.00116885
0.00116833
0.00116783
0.00116735
0.00116688
0.00116642
0.00116598
0.00116555
0.00116513
0.00116474
0.00116435
0.00116394
0.00116348
0.00116299
0.0011626
0.00116259
0.00116337
0.00116541
0.00116909
0.00117454
0.00118155
0.00118956
0.0011978
0.00120544
0.00121169
0.00121597
0.00121798
0.00121773
0.00121551
0.00121183
0.00120731
0.00116994
0.0011694
0.00116888
0.00116837
0.00116788
0.00116738
0.0011669
0.00116641
0.00116592
0.00116542
0.00116493
0.00116443
0.00116391
0.00116335
0.00116271
0.00116203
0.00116141
0.00116114
0.00116161
0.0011633
0.00116656
0.00117153
0.00117801
0.00118549
0.00119322
0.0012004
0.00120628
0.00121031
0.00121219
0.00121192
0.0012098
0.00120631
0.00120204
0.00116995
0.0011694
0.00116886
0.00116831
0.0011677
0.00116703
0.00116627
0.00116542
0.00116446
0.00116339
0.00116223
0.00116096
0.00115959
0.00115809
0.00115645
0.0011547
0.00115296
0.00115149
0.00115067
0.00115095
0.00115269
0.00115603
0.00116081
0.0011666
0.00117276
0.00117858
0.00118339
0.00118668
0.00118817
0.00118786
0.00118599
0.00118302
0.00117947
0.00116996
0.00116918
0.00116793
0.00116615
0.0011638
0.00116089
0.00115745
0.00115351
0.00114912
0.00114435
0.00113927
0.00113395
0.00112843
0.00112275
0.00111693
0.00111104
0.0011052
0.00109964
0.0010947
0.00109076
0.00108815
0.00108705
0.0010874
0.00108893
0.00109121
0.00109369
0.00109586
0.00109728
0.00109769
0.00109702
0.00109544
0.00109327
0.0010909
0.00116829
0.00115879
0.00114562
0.00112954
0.00111135
0.00109171
0.00107125
0.00105049
0.00102977
0.00100937
0.000989458
0.000970153
0.000951509
0.000933539
0.000916228
0.000899559
0.000883544
0.000868257
0.000853857
0.000840582
0.000828715
0.000818523
0.000810191
0.00080376
0.000799093
0.000795871
0.00079363
0.000791841
0.000790014
0.000787788
0.000784987
0.000781611
0.000777842
0.00107568
0.000935959
0.000835085
0.000755061
0.000688883
0.000633764
0.000587504
0.000548262
0.00051459
0.00048538
0.000459786
0.000437161
0.000417009
0.000398948
0.000382673
0.000367939
0.00035455
0.000342372
0.000331344
0.000321509
0.000313
0.000306017
0.000300749
0.000297293
0.000295576
0.000295319
0.000296055
0.000297202
0.000298172
0.000298484
0.000297847
0.00029619
0.000293658
0.000142979
0.000146644
0.000150176
0.000153553
0.000156774
0.000159846
0.000162773
0.00016556
0.000168211
0.000170732
0.000173126
0.000175398
0.000177552
0.000179592
0.000181522
0.000183343
0.000185058
0.000186672
0.000188191
0.000189625
0.000190983
0.000192268
0.000193472
0.000194574
0.000195542
0.000196339
0.000196934
0.00019731
0.000197464
0.000197416
0.000197197
0.000196851
0.000196416
9.24949e-05
0.000112541
0.0001611
0.000239169
0.000320722
0.000365263
0.000342888
0.000264479
0.000231842
0.000619748
0.00157288
0.0020519
0.0024309
0.002748
0.00298407
0.00313991
0.00321961
0.00322769
0.0031707
0.00305829
0.00290326
0.00272093
0.00252786
0.00233916
0.00216475
0.0020068
0.00186264
0.00173163
0.00161773
0.00152494
0.00145304
0.00139808
0.00135525
0.00132085
0.00129268
0.00126943
0.00125024
0.0012344
0.00122133
0.00121054
0.00120163
0.0011943
0.00118827
0.00118333
0.0011793
0.00117603
0.00117337
0.00117123
0.00116952
0.00116815
0.00116708
0.00116623
0.00116558
0.00116509
0.00116471
0.00116444
0.00116425
0.00116412
0.00116404
0.001164
0.00116399
0.001164
0.00116402
0.00116406
0.00116411
0.00116416
0.00116421
0.00116426
0.00116431
0.00116436
0.00116441
0.00116446
0.0011645
0.00116454
0.00116457
0.00116461
0.00116464
0.00116467
0.00116469
0.00116471
0.00116474
0.00116475
0.00116477
0.00116478
0.0011648
0.00116481
0.00116482
0.00116483
0.00116484
0.00116484
0.00116485
0.00116486
0.00116486
0.00116486
0.00116487
0.00116487
0.00116487
0.00116488
0.00116488
0.00116486
7.15765e-05
7.54072e-05
7.9621e-05
8.7632e-05
0.000102871
0.000126992
0.000188218
0.000453027
0.000926243
0.0012168
0.00156997
0.00196816
0.00232908
0.00261933
0.00283515
0.00298073
0.00305997
0.00307609
0.00303347
0.00293911
0.00280324
0.00263887
0.00246074
0.00228304
0.00211616
0.00196447
0.00182787
0.00170626
0.00160171
0.0015161
0.00144862
0.00139602
0.00135448
0.00132092
0.00129339
0.00127064
0.00125179
0.00123617
0.0012232
0.00121244
0.00120351
0.00119611
0.00118999
0.00118494
0.00118079
0.00117739
0.00117461
0.00117235
0.00117052
0.00116905
0.00116787
0.00116693
0.0011662
0.00116562
0.00116517
0.00116484
0.00116458
0.0011644
0.00116427
0.00116418
0.00116413
0.0011641
0.00116409
0.0011641
0.00116411
0.00116414
0.00116417
0.0011642
0.00116424
0.00116427
0.0011643
0.00116434
0.00116437
0.0011644
0.00116442
0.00116445
0.00116447
0.00116449
0.00116451
0.00116453
0.00116455
0.00116456
0.00116458
0.00116459
0.0011646
0.00116461
0.00116461
0.00116462
0.00116463
0.00116463
0.00116464
0.00116464
0.00116465
0.00116465
0.00116465
0.00116466
0.00116466
0.00116466
0.00116466
0.00116464
0.000192824
0.000206569
0.000222718
0.000244941
0.000283655
0.00035676
0.000480843
0.000670132
0.000946711
0.00128832
0.00164496
0.00197995
0.00227164
0.00250971
0.00269237
0.00282089
0.00289614
0.00291851
0.00288951
0.00281325
0.00269717
0.0025519
0.00239032
0.0022256
0.0020684
0.00192469
0.00179625
0.00168342
0.00158704
0.00150762
0.00144405
0.00139365
0.00135338
0.00132069
0.00129383
0.0012716
0.00125314
0.00123777
0.00122496
0.00121428
0.00120536
0.00119793
0.00119174
0.0011866
0.00118235
0.00117883
0.00117594
0.00117356
0.00117161
0.00117003
0.00116874
0.00116771
0.00116688
0.00116621
0.00116569
0.00116528
0.00116496
0.00116471
0.00116452
0.00116439
0.00116429
0.00116422
0.00116417
0.00116414
0.00116413
0.00116412
0.00116413
0.00116414
0.00116415
0.00116417
0.00116419
0.0011642
0.00116422
0.00116424
0.00116426
0.00116427
0.00116429
0.0011643
0.00116431
0.00116433
0.00116434
0.00116435
0.00116436
0.00116436
0.00116437
0.00116438
0.00116438
0.00116439
0.00116439
0.0011644
0.0011644
0.0011644
0.0011644
0.00116441
0.00116441
0.00116441
0.00116441
0.00116442
0.00116441
0.0011644
0.000414633
0.000434962
0.00046147
0.000499718
0.000559035
0.000650843
0.000785389
0.000968185
0.0011972
0.00145936
0.00173119
0.00198838
0.00221451
0.00240263
0.00255158
0.00266124
0.00273037
0.00275707
0.00274026
0.00268131
0.00258498
0.00245951
0.00231584
0.00216597
0.00202046
0.00188627
0.00176648
0.00166193
0.00157283
0.00149892
0.00143892
0.00139066
0.0013517
0.00131993
0.00129376
0.00127208
0.00125404
0.00123899
0.00122639
0.00121584
0.00120699
0.00119957
0.00119336
0.00118817
0.00118384
0.00118024
0.00117724
0.00117476
0.00117271
0.00117102
0.00116963
0.0011685
0.00116757
0.00116682
0.00116622
0.00116573
0.00116534
0.00116503
0.00116478
0.00116459
0.00116444
0.00116433
0.00116424
0.00116417
0.00116413
0.00116409
0.00116407
0.00116406
0.00116405
0.00116404
0.00116404
0.00116404
0.00116405
0.00116405
0.00116406
0.00116406
0.00116407
0.00116408
0.00116408
0.00116409
0.00116409
0.0011641
0.0011641
0.00116411
0.00116411
0.00116411
0.00116412
0.00116412
0.00116412
0.00116412
0.00116412
0.00116413
0.00116413
0.00116413
0.00116413
0.00116413
0.00116413
0.00116413
0.00116413
0.00116411
0.000651319
0.000674072
0.000705411
0.000750174
0.000814159
0.000903928
0.00102546
0.00118093
0.00136577
0.001569
0.00177575
0.0019711
0.00214451
0.00229152
0.00241132
0.00250336
0.00256565
0.00259504
0.00258867
0.00254567
0.00246839
0.00236277
0.00223779
0.00210411
0.00197183
0.00184837
0.00173768
0.00164108
0.00155863
0.00148972
0.00143308
0.00138694
0.00134934
0.00131851
0.00129307
0.00127197
0.00125437
0.00123966
0.00122732
0.00121696
0.00120823
0.00120089
0.00119471
0.00118951
0.00118514
0.00118148
0.00117842
0.00117586
0.00117372
0.00117195
0.00117047
0.00116925
0.00116824
0.00116741
0.00116673
0.00116617
0.00116571
0.00116534
0.00116503
0.00116479
0.00116459
0.00116443
0.0011643
0.0011642
0.00116412
0.00116405
0.001164
0.00116396
0.00116393
0.0011639
0.00116389
0.00116387
0.00116386
0.00116385
0.00116385
0.00116384
0.00116384
0.00116383
0.00116383
0.00116383
0.00116383
0.00116383
0.00116383
0.00116383
0.00116383
0.00116383
0.00116383
0.00116383
0.00116383
0.00116383
0.00116383
0.00116383
0.00116383
0.00116383
0.00116383
0.00116383
0.00116383
0.00116383
0.00116382
0.00116381
0.000854794
0.00087616
0.000905902
0.000948261
0.00100759
0.00108762
0.00119075
0.00131675
0.00146186
0.00161855
0.0017768
0.00192656
0.00206079
0.00217646
0.00227306
0.00235013
0.00240573
0.00243644
0.00243851
0.00240954
0.0023499
0.00226342
0.0021572
0.0020404
0.00192233
0.00181045
0.00170919
0.00162037
0.00154415
0.00147989
0.00142648
0.00138246
0.00134626
0.00131643
0.00129174
0.00127122
0.00125409
0.00123975
0.00122769
0.00121755
0.00120899
0.00120176
0.00119565
0.00119049
0.00118614
0.00118247
0.00117937
0.00117677
0.00117458
0.00117274
0.0011712
0.00116991
0.00116883
0.00116794
0.00116719
0.00116657
0.00116605
0.00116562
0.00116526
0.00116497
0.00116473
0.00116452
0.00116436
0.00116422
0.0011641
0.00116401
0.00116393
0.00116387
0.00116381
0.00116377
0.00116373
0.0011637
0.00116368
0.00116365
0.00116364
0.00116362
0.00116361
0.0011636
0.00116359
0.00116358
0.00116357
0.00116357
0.00116356
0.00116356
0.00116355
0.00116355
0.00116355
0.00116354
0.00116354
0.00116354
0.00116354
0.00116353
0.00116353
0.00116353
0.00116353
0.00116353
0.00116353
0.00116353
0.00116352
0.0011635
0.00100774
0.00102581
0.00105142
0.00108787
0.00113813
0.0012044
0.00128788
0.00138793
0.00150144
0.00162298
0.00174559
0.00186233
0.00196819
0.00206087
0.0021399
0.00220496
0.0022545
0.00228542
0.00229386
0.0022766
0.00223259
0.00216387
0.00207571
0.00197575
0.00187227
0.00177238
0.00168074
0.00159955
0.00152927
0.00146944
0.00141917
0.00137728
0.00134255
0.00131375
0.00128982
0.00126989
0.00125323
0.00123926
0.00122751
0.0012176
0.00120923
0.00120215
0.00119615
0.00119107
0.00118676
0.00118312
0.00118003
0.00117741
0.0011752
0.00117333
0.00117175
0.00117042
0.0011693
0.00116835
0.00116756
0.00116689
0.00116633
0.00116585
0.00116545
0.00116512
0.00116484
0.0011646
0.0011644
0.00116423
0.00116409
0.00116397
0.00116387
0.00116378
0.00116371
0.00116364
0.00116359
0.00116355
0.00116351
0.00116347
0.00116344
0.00116342
0.0011634
0.00116338
0.00116336
0.00116335
0.00116334
0.00116333
0.00116332
0.00116331
0.0011633
0.00116329
0.00116329
0.00116328
0.00116328
0.00116327
0.00116327
0.00116327
0.00116327
0.00116326
0.00116326
0.00116326
0.00116326
0.00116326
0.00116325
0.00116323
0.00111049
0.00112458
0.00114504
0.00117443
0.00121499
0.00126819
0.00133463
0.00141361
0.00150275
0.00159814
0.00169482
0.00178778
0.00187324
0.00194927
0.00201532
0.00207107
0.00211536
0.00214568
0.00215854
0.00215051
0.00211968
0.00206672
0.00199527
0.00191141
0.00182227
0.00173434
0.00165228
0.00157856
0.00151401
0.00145845
0.00141125
0.00137153
0.0013383
0.00131057
0.00128743
0.0012681
0.00125191
0.0012383
0.00122685
0.00121718
0.00120901
0.00120208
0.00119621
0.00119123
0.001187
0.0011834
0.00118035
0.00117775
0.00117555
0.00117367
0.00117208
0.00117073
0.00116959
0.00116862
0.00116779
0.00116709
0.0011665
0.001166
0.00116557
0.00116521
0.0011649
0.00116463
0.00116441
0.00116422
0.00116405
0.00116391
0.00116379
0.00116369
0.0011636
0.00116353
0.00116346
0.0011634
0.00116335
0.00116331
0.00116327
0.00116324
0.00116321
0.00116319
0.00116316
0.00116315
0.00116313
0.00116311
0.0011631
0.00116309
0.00116308
0.00116307
0.00116306
0.00116306
0.00116305
0.00116304
0.00116304
0.00116303
0.00116303
0.00116303
0.00116302
0.00116302
0.00116302
0.00116302
0.00116301
0.00116299
0.00117257
0.00118296
0.00119869
0.00122172
0.00125375
0.00129588
0.00134851
0.00141109
0.00148185
0.00155791
0.00163563
0.00171126
0.00178188
0.00184576
0.0019022
0.00195081
0.00199067
0.00201985
0.00203545
0.00203426
0.00201402
0.00197442
0.00191777
0.00184869
0.00177307
0.00169666
0.00162389
0.00155743
0.00149842
0.00144701
0.00140284
0.0013653
0.00133362
0.00130701
0.00128468
0.00126596
0.00125022
0.00123699
0.00122582
0.00121639
0.00120841
0.00120164
0.0011959
0.00119103
0.00118688
0.00118335
0.00118035
0.00117779
0.00117561
0.00117376
0.00117218
0.00117083
0.00116968
0.0011687
0.00116787
0.00116716
0.00116655
0.00116603
0.00116559
0.00116521
0.00116488
0.0011646
0.00116436
0.00116416
0.00116398
0.00116383
0.0011637
0.00116358
0.00116348
0.0011634
0.00116332
0.00116326
0.0011632
0.00116315
0.00116311
0.00116307
0.00116303
0.001163
0.00116298
0.00116296
0.00116294
0.00116292
0.0011629
0.00116289
0.00116288
0.00116287
0.00116286
0.00116285
0.00116284
0.00116283
0.00116283
0.00116282
0.00116282
0.00116281
0.00116281
0.00116281
0.0011628
0.0011628
0.0011628
0.00116277
0.00120619
0.0012136
0.00122547
0.00124337
0.00126861
0.00130205
0.00134401
0.00139408
0.00145097
0.00151257
0.00157613
0.00163884
0.00169833
0.00175307
0.00180221
0.00184525
0.00188139
0.00190913
0.00192616
0.00192973
0.00191757
0.00188882
0.00184474
0.00178869
0.00172537
0.00165971
0.00159576
0.00153626
0.00148259
0.00143521
0.00139405
0.00135871
0.00132862
0.00130315
0.00128167
0.00126356
0.0012483
0.00123542
0.00122454
0.00121534
0.00120754
0.00120093
0.00119532
0.00119055
0.00118649
0.00118303
0.00118009
0.00117758
0.00117544
0.00117361
0.00117205
0.00117072
0.00116959
0.00116862
0.00116778
0.00116707
0.00116646
0.00116594
0.00116549
0.00116511
0.00116478
0.00116449
0.00116425
0.00116403
0.00116385
0.00116369
0.00116355
0.00116343
0.00116333
0.00116324
0.00116316
0.00116309
0.00116303
0.00116297
0.00116293
0.00116288
0.00116285
0.00116282
0.00116279
0.00116276
0.00116274
0.00116272
0.0011627
0.00116269
0.00116268
0.00116266
0.00116265
0.00116264
0.00116264
0.00116263
0.00116262
0.00116262
0.00116261
0.00116261
0.0011626
0.0011626
0.00116259
0.00116259
0.00116259
0.00116256
0.00122227
0.00122742
0.00123636
0.00125033
0.00127037
0.00129717
0.00133097
0.00137152
0.00141786
0.00146843
0.00152117
0.00157391
0.00162475
0.00167229
0.00171565
0.00175418
0.00178713
0.00181329
0.00183084
0.00183752
0.00183126
0.00181098
0.0017772
0.00173225
0.00167977
0.00162384
0.0015681
0.00151517
0.00146662
0.00142317
0.00138497
0.00135183
0.00132336
0.00129908
0.00127846
0.001261
0.00124622
0.0012337
0.00122311
0.00121413
0.00120651
0.00120005
0.00119455
0.00118988
0.00118591
0.00118252
0.00117964
0.00117718
0.00117508
0.00117329
0.00117176
0.00117045
0.00116934
0.00116838
0.00116756
0.00116686
0.00116626
0.00116574
0.0011653
0.00116492
0.00116459
0.0011643
0.00116405
0.00116384
0.00116366
0.0011635
0.00116336
0.00116324
0.00116313
0.00116304
0.00116296
0.00116288
0.00116282
0.00116277
0.00116272
0.00116268
0.00116264
0.00116261
0.00116258
0.00116255
0.00116253
0.00116251
0.00116249
0.00116248
0.00116246
0.00116245
0.00116244
0.00116243
0.00116242
0.00116241
0.00116241
0.0011624
0.00116239
0.00116239
0.00116238
0.00116238
0.00116238
0.00116238
0.00116237
0.00116234
0.00122869
0.00123216
0.00123887
0.00124985
0.00126592
0.00128763
0.00131519
0.00134841
0.00138661
0.00142861
0.00147286
0.00151768
0.00156153
0.00160317
0.0016417
0.00167641
0.00170656
0.0017311
0.00174857
0.00175715
0.00175506
0.00174119
0.00171561
0.00167987
0.00163669
0.00158938
0.0015411
0.00149431
0.00145064
0.00141099
0.00137569
0.00134474
0.00131791
0.00129484
0.00127512
0.00125832
0.00124403
0.0012319
0.00122159
0.00121283
0.00120539
0.00119907
0.00119369
0.00118912
0.00118522
0.0011819
0.00117908
0.00117667
0.00117461
0.00117286
0.00117136
0.00117008
0.00116898
0.00116805
0.00116725
0.00116656
0.00116597
0.00116546
0.00116503
0.00116465
0.00116433
0.00116405
0.00116381
0.0011636
0.00116341
0.00116326
0.00116312
0.001163
0.00116289
0.0011628
0.00116272
0.00116265
0.00116259
0.00116254
0.00116249
0.00116245
0.00116241
0.00116238
0.00116235
0.00116232
0.0011623
0.00116228
0.00116226
0.00116225
0.00116223
0.00116222
0.00116221
0.0011622
0.00116219
0.00116218
0.00116218
0.00116217
0.00116216
0.00116216
0.00116215
0.00116215
0.00116215
0.00116214
0.00116214
0.00116211
0.00123031
0.00123248
0.00123745
0.00124609
0.00125907
0.00127682
0.00129952
0.00132702
0.00135884
0.00139407
0.00143153
0.00146991
0.00150795
0.00154458
0.00157894
0.00161029
0.00163788
0.0016608
0.00167781
0.00168746
0.00168826
0.00167915
0.00165998
0.00163171
0.00159637
0.00155657
0.00151497
0.00147383
0.00143476
0.00139875
0.00136628
0.0013375
0.00131231
0.00129048
0.00127168
0.00125556
0.00124179
0.00123004
0.00122003
0.0012115
0.00120424
0.00119806
0.00119279
0.00118831
0.00118449
0.00118124
0.00117847
0.0011761
0.00117409
0.00117237
0.0011709
0.00116965
0.00116858
0.00116766
0.00116688
0.0011662
0.00116563
0.00116513
0.00116471
0.00116434
0.00116403
0.00116376
0.00116352
0.00116332
0.00116314
0.00116299
0.00116286
0.00116274
0.00116264
0.00116255
0.00116247
0.0011624
0.00116234
0.00116229
0.00116224
0.0011622
0.00116217
0.00116213
0.00116211
0.00116208
0.00116206
0.00116204
0.00116202
0.00116201
0.00116199
0.00116198
0.00116197
0.00116196
0.00116195
0.00116194
0.00116194
0.00116193
0.00116192
0.00116192
0.00116191
0.00116191
0.00116191
0.0011619
0.0011619
0.00116187
0.00122973
0.00123084
0.00123439
0.00124115
0.00125166
0.00126626
0.00128511
0.0013081
0.00133483
0.00136463
0.00139657
0.00142963
0.00146276
0.00149507
0.00152573
0.00155405
0.00157928
0.00160057
0.00161691
0.00162707
0.00162982
0.00162423
0.00161001
0.00158775
0.00155892