/*--------------------------------*- C++ -*----------------------------------*\
| =========                 |                                                 |
| \\      /  F ield         | OpenFOAM: The Open Source CFD Toolbox           |
|  \\    /   O peration     | Version:  2.1.1                                 |
|   \\  /    A nd           | Web:      www.OpenFOAM.org                      |
|    \\/     M anipulation  |                                                 |
\*---------------------------------------------------------------------------*/
FoamFile
{
    version     2.0;
    format      ascii;
    class       volScalarField;
    location    "0.01";
    object      p;
}
// * * * * * * * * * * * * * * * * * * * * * * * * * * * * * * * * * * * * * //

dimensions      [0 2 -2 0 0 0 0];

internalField   nonuniform List<scalar> 
6820
(
-7.60199
-9.45203
-10.0368
-10.1805
-10.3069
-10.4107
-10.4946
-10.5755
-10.6576
-10.7416
-10.8286
-10.9194
-11.0145
-11.1139
-11.2178
-11.3262
-11.4394
-11.5582
-11.685
-11.8226
-11.9772
-12.1469
-12.3332
-12.5378
-12.7631
-13.0123
-13.2891
-13.5993
-13.9492
-14.3523
-14.8197
-15.3942
-16.0968
-11.5532
-11.0218
-10.6108
-10.4351
-10.429
-10.4641
-10.5133
-10.5751
-10.6462
-10.7236
-10.8066
-10.8949
-10.9881
-11.0863
-11.1895
-11.2982
-11.4129
-11.5356
-11.6681
-11.8128
-11.9688
-12.1387
-12.3245
-12.5285
-12.7527
-13.0004
-13.275
-13.582
-13.9265
-14.322
-14.7683
-15.3236
-15.8894
-9.91
-9.60961
-9.90585
-10.1632
-10.2905
-10.3903
-10.478
-10.5609
-10.6435
-10.7273
-10.8136
-10.9032
-10.9967
-11.0945
-11.197
-11.3048
-11.4187
-11.5399
-11.6691
-11.8086
-11.9611
-12.1284
-12.3114
-12.5119
-12.7322
-12.975
-13.2437
-13.5429
-13.8764
-14.2539
-14.6734
-15.1644
-15.649
-10.4153
-10.4537
-10.4642
-10.4185
-10.4281
-10.4718
-10.5265
-10.5884
-10.6573
-10.7319
-10.8114
-10.896
-10.9855
-11.0801
-11.1801
-11.2859
-11.3976
-11.5189
-11.6483
-11.7898
-11.9428
-12.1093
-12.2907
-12.4888
-12.7057
-12.944
-13.2063
-13.4965
-13.8174
-14.1756
-14.567
-15.0098
-15.4433
-10.257
-10.1578
-10.2108
-10.2945
-10.367
-10.4375
-10.5066
-10.5769
-10.6504
-10.7275
-10.8083
-10.8933
-10.9828
-11.0771
-11.1766
-11.2819
-11.3944
-11.5125
-11.6407
-11.7793
-11.929
-12.0918
-12.269
-12.4621
-12.6731
-12.904
-13.1571
-13.4352
-13.7403
-14.0762
-14.4391
-14.8373
-15.234
-10.3104
-10.299
-10.3326
-10.3697
-10.4101
-10.4623
-10.5215
-10.5854
-10.6542
-10.7276
-10.8053
-10.8875
-10.9745
-11.0664
-11.1637
-11.2668
-11.3766
-11.4936
-11.6199
-11.7562
-11.9035
-12.0631
-12.2362
-12.4242
-12.6287
-12.8513
-13.094
-13.3586
-13.6464
-13.9593
-14.2941
-14.6539
-15.0175
-10.3024
-10.2846
-10.3096
-10.3533
-10.402
-10.4578
-10.518
-10.5817
-10.6496
-10.7217
-10.798
-10.8787
-10.964
-11.0542
-11.1496
-11.2509
-11.3588
-11.4738
-11.5974
-11.7304
-11.8737
-12.0286
-12.196
-12.3772
-12.5735
-12.7861
-13.0164
-13.2657
-13.5344
-13.8234
-14.13
-14.4548
-14.7856
-10.3127
-10.3084
-10.3328
-10.3712
-10.4142
-10.4644
-10.5205
-10.5811
-10.6462
-10.7157
-10.7896
-10.8679
-10.9508
-11.0386
-11.1316
-11.2303
-11.3354
-11.4475
-11.5676
-11.6967
-11.8355
-11.9849
-12.1459
-12.3193
-12.5063
-12.7077
-12.9244
-13.1571
-13.4059
-13.6706
-13.9493
-14.2411
-14.5391
-10.3195
-10.3187
-10.3396
-10.3747
-10.416
-10.4643
-10.5184
-10.577
-10.6399
-10.7072
-10.7788
-10.8547
-10.9351
-11.0202
-11.1105
-11.2063
-11.3082
-11.4168
-11.533
-11.6573
-11.7907
-11.9337
-12.0872
-12.2518
-12.4283
-12.6172
-12.8192
-13.0343
-13.2623
-13.5027
-13.7536
-14.0137
-14.2787
-10.3262
-10.3286
-10.3485
-10.3809
-10.4198
-10.4653
-10.5165
-10.5724
-10.6327
-10.6974
-10.7663
-10.8394
-10.917
-10.9992
-11.0863
-11.1787
-11.2769
-11.3814
-11.4928
-11.6119
-11.739
-11.8749
-12.02
-12.1749
-12.34
-12.5156
-12.7019
-12.8988
-13.1057
-13.3217
-13.5452
-13.7747
-14.0069
-10.3318
-10.3357
-10.3543
-10.3842
-10.4208
-10.4638
-10.5124
-10.5658
-10.6235
-10.6855
-10.7516
-10.8219
-10.8964
-10.9753
-11.059
-11.1476
-11.2416
-11.3415
-11.4477
-11.5608
-11.6811
-11.809
-11.9451
-12.0894
-12.2424
-12.4039
-12.574
-12.7522
-12.9378
-13.1298
-13.3264
-13.5261
-13.7263
-10.3361
-10.3407
-10.3584
-10.3862
-10.4206
-10.4611
-10.5071
-10.5578
-10.6128
-10.6719
-10.7351
-10.8022
-10.8734
-10.9488
-11.0285
-11.113
-11.2024
-11.2972
-11.3977
-11.5042
-11.617
-11.7365
-11.8628
-11.996
-12.1362
-12.2832
-12.4367
-12.5961
-12.7605
-12.9288
-13.0993
-13.2704
-13.4396
-10.3388
-10.3438
-10.3605
-10.3863
-10.4185
-10.4566
-10.5
-10.548
-10.6002
-10.6563
-10.7163
-10.7801
-10.8478
-10.9193
-10.995
-11.0749
-11.1593
-11.2485
-11.3428
-11.4422
-11.5471
-11.6576
-11.7736
-11.8953
-12.0223
-12.1545
-12.2913
-12.4319
-12.5754
-12.7206
-12.8659
-13.0097
-13.1495
-10.3398
-10.3449
-10.3606
-10.3846
-10.4147
-10.4504
-10.4912
-10.5364
-10.5857
-10.6387
-10.6954
-10.7557
-10.8196
-10.8871
-10.9582
-11.0333
-11.1124
-11.1956
-11.2831
-11.3751
-11.4716
-11.5727
-11.6781
-11.7878
-11.9014
-12.0186
-12.1387
-12.2608
-12.3839
-12.5069
-12.628
-12.7459
-12.8581
-10.3391
-10.344
-10.3588
-10.3811
-10.4091
-10.4424
-10.4806
-10.523
-10.5692
-10.6191
-10.6723
-10.7289
-10.7887
-10.8519
-10.9183
-10.9882
-11.0616
-11.1385
-11.219
-11.3031
-11.3909
-11.4821
-11.5767
-11.6742
-11.7743
-11.8765
-11.9801
-12.0841
-12.1876
-12.2892
-12.3875
-12.481
-12.5675
-10.3365
-10.3411
-10.355
-10.3756
-10.4016
-10.4326
-10.4681
-10.5077
-10.5508
-10.5973
-10.6469
-10.6996
-10.7552
-10.8138
-10.8753
-10.9397
-11.007
-11.0773
-11.1505
-11.2265
-11.3052
-11.3864
-11.4699
-11.5552
-11.6418
-11.7292
-11.8166
-11.9031
-11.9876
-12.069
-12.1458
-12.2167
-12.2796
-10.332
-10.3363
-10.3492
-10.3682
-10.3922
-10.4209
-10.4537
-10.4903
-10.5303
-10.5733
-10.6192
-10.6678
-10.7191
-10.7729
-10.8291
-10.8878
-10.9489
-11.0123
-11.0778
-11.1455
-11.215
-11.286
-11.3583
-11.4314
-11.5047
-11.5776
-11.6493
-11.719
-11.7855
-11.8478
-11.9045
-11.9546
-11.996
-10.3256
-10.3296
-10.3414
-10.3589
-10.3809
-10.4072
-10.4374
-10.471
-10.5077
-10.5472
-10.5892
-10.6336
-10.6803
-10.7291
-10.78
-10.8328
-10.8873
-10.9436
-11.0014
-11.0605
-11.1207
-11.1815
-11.2427
-11.3037
-11.3639
-11.4227
-11.4793
-11.5329
-11.5824
-11.6268
-11.6651
-11.696
-11.7179
-10.3172
-10.3208
-10.3316
-10.3476
-10.3676
-10.3916
-10.4191
-10.4497
-10.483
-10.5189
-10.557
-10.5971
-10.639
-10.6827
-10.728
-10.7747
-10.8226
-10.8716
-10.9215
-10.972
-11.0228
-11.0735
-11.1236
-11.1727
-11.2202
-11.2654
-11.3076
-11.3459
-11.3795
-11.4075
-11.4286
-11.4422
-11.4467
-10.3068
-10.3102
-10.3199
-10.3343
-10.3524
-10.374
-10.3988
-10.4264
-10.4564
-10.4885
-10.5225
-10.5582
-10.5953
-10.6338
-10.6733
-10.7138
-10.755
-10.7966
-10.8386
-10.8804
-10.9218
-10.9625
-11.0018
-11.0394
-11.0746
-11.1068
-11.1353
-11.1593
-11.1781
-11.1908
-11.1964
-11.1943
-11.1832
-10.2945
-10.2975
-10.3063
-10.3191
-10.3353
-10.3545
-10.3766
-10.4011
-10.4277
-10.456
-10.4859
-10.5171
-10.5493
-10.5824
-10.6162
-10.6503
-10.6847
-10.719
-10.753
-10.7862
-10.8184
-10.8492
-10.878
-10.9044
-10.9279
-10.9477
-10.9633
-10.974
-10.9791
-10.9778
-10.9694
-10.9533
-10.9283
-10.2803
-10.283
-10.2907
-10.302
-10.3162
-10.3332
-10.3525
-10.3739
-10.3971
-10.4216
-10.4473
-10.4739
-10.5012
-10.5289
-10.5568
-10.5846
-10.6122
-10.6391
-10.6652
-10.69
-10.7132
-10.7343
-10.753
-10.7687
-10.7809
-10.7891
-10.7926
-10.791
-10.7835
-10.7695
-10.7485
-10.7198
-10.6827
-10.2643
-10.2666
-10.2733
-10.2831
-10.2954
-10.31
-10.3267
-10.345
-10.3646
-10.3853
-10.4068
-10.4289
-10.4511
-10.4734
-10.4955
-10.517
-10.5378
-10.5575
-10.5758
-10.5923
-10.6067
-10.6185
-10.6275
-10.633
-10.6346
-10.6319
-10.6242
-10.6112
-10.5922
-10.5668
-10.5344
-10.4947
-10.447
-10.2465
-10.2484
-10.2541
-10.2624
-10.2728
-10.2851
-10.299
-10.3143
-10.3305
-10.3473
-10.3647
-10.3821
-10.3994
-10.4163
-10.4326
-10.4479
-10.462
-10.4745
-10.4852
-10.4937
-10.4996
-10.5026
-10.5022
-10.4981
-10.4898
-10.4769
-10.4589
-10.4354
-10.406
-10.3703
-10.3278
-10.2784
-10.2214
-10.2269
-10.2285
-10.2332
-10.24
-10.2485
-10.2586
-10.2698
-10.282
-10.2948
-10.3079
-10.3211
-10.334
-10.3464
-10.358
-10.3685
-10.3777
-10.3852
-10.3908
-10.3941
-10.3948
-10.3926
-10.3871
-10.378
-10.3648
-10.3473
-10.3249
-10.2975
-10.2645
-10.2257
-10.1808
-10.1295
-10.0715
-10.0066
-10.2058
-10.2071
-10.2107
-10.2161
-10.2227
-10.2305
-10.2391
-10.2482
-10.2577
-10.267
-10.2761
-10.2845
-10.2921
-10.2985
-10.3034
-10.3066
-10.3078
-10.3067
-10.3029
-10.2962
-10.2863
-10.2728
-10.2554
-10.2338
-10.2077
-10.1768
-10.1407
-10.0992
-10.052
-9.99891
-9.93974
-9.87439
-9.80258
-10.1832
-10.1841
-10.1868
-10.1907
-10.1956
-10.2012
-10.2073
-10.2136
-10.2197
-10.2255
-10.2305
-10.2346
-10.2375
-10.2388
-10.2383
-10.2357
-10.2308
-10.2232
-10.2127
-10.1989
-10.1817
-10.1607
-10.1356
-10.1062
-10.0722
-10.0333
-9.98939
-9.94018
-9.8855
-9.82521
-9.7592
-9.68745
-9.60979
-10.1592
-10.1598
-10.1615
-10.1639
-10.1669
-10.1703
-10.1738
-10.1772
-10.1801
-10.1823
-10.1835
-10.1834
-10.1817
-10.1781
-10.1725
-10.1644
-10.1537
-10.14
-10.1231
-10.1028
-10.0788
-10.0508
-10.0187
-9.9821
-9.94093
-9.89495
-9.84399
-9.78793
-9.72664
-9.66006
-9.58813
-9.5109
-9.42829
-10.1342
-10.1345
-10.1353
-10.1366
-10.1381
-10.1396
-10.1409
-10.1417
-10.1416
-10.1405
-10.138
-10.1338
-10.1277
-10.1194
-10.1087
-10.0954
-10.079
-10.0595
-10.0366
-10.01
-9.97962
-9.94513
-9.90638
-9.86321
-9.81545
-9.76299
-9.7057
-9.6435
-9.57635
-9.50424
-9.42717
-9.34525
-9.25846
-10.1081
-10.1078
-10.1072
-10.1066
-10.1059
-10.1051
-10.1039
-10.102
-10.0991
-10.0948
-10.0889
-10.081
-10.071
-10.0585
-10.0433
-10.0251
-10.0038
-9.97907
-9.95074
-9.9186
-9.88248
-9.84221
-9.79764
-9.74865
-9.69512
-9.63699
-9.57418
-9.50669
-9.4345
-9.35767
-9.27626
-9.1904
-9.10017
-10.0818
-10.0819
-10.0813
-10.0804
-10.0791
-10.0771
-10.0741
-10.0698
-10.0641
-10.0567
-10.0472
-10.0356
-10.0214
-10.0045
-9.98461
-9.96159
-9.9352
-9.90524
-9.87154
-9.83393
-9.79227
-9.74642
-9.69629
-9.64179
-9.58286
-9.51948
-9.45163
-9.37933
-9.30265
-9.22165
-9.13646
-9.04724
-8.9541
-10.0537
-10.051
-10.0466
-10.0421
-10.038
-10.0338
-10.0288
-10.0227
-10.0151
-10.0056
-9.99388
-9.97963
-9.96262
-9.94262
-9.9194
-9.89278
-9.86257
-9.82862
-9.79076
-9.74887
-9.70284
-9.65258
-9.59802
-9.53912
-9.47585
-9.40823
-9.33628
-9.26008
-9.17972
-9.09534
-9.00708
-8.91514
-8.8197
-10.0307
-10.0335
-10.0331
-10.0304
-10.0263
-10.0206
-10.0133
-10.0042
-9.99311
-9.97979
-9.96399
-9.94548
-9.92404
-9.89949
-9.87162
-9.84025
-9.80522
-9.76639
-9.72361
-9.67679
-9.62585
-9.57071
-9.51136
-9.44779
-9.38003
-9.30811
-9.23213
-9.15219
-9.0684
-8.98094
-8.88996
-8.79569
-8.69832
-9.99122
-9.97905
-9.96694
-9.95954
-9.9548
-9.95013
-9.94435
-9.93687
-9.92716
-9.91481
-9.8995
-9.88098
-9.85907
-9.8336
-9.80442
-9.77141
-9.73447
-9.6935
-9.64841
-9.59913
-9.54563
-9.48786
-9.42582
-9.35951
-9.28897
-9.2143
-9.13558
-9.05298
-8.96665
-8.87683
-8.78372
-8.68759
-8.5887
-10.0069
-10.0194
-10.0168
-10.0063
-9.99446
-9.9822
-9.96879
-9.95373
-9.93666
-9.91725
-9.89523
-9.87034
-9.84234
-9.81104
-9.77624
-9.73779
-9.69555
-9.64939
-9.59921
-9.54495
-9.48656
-9.42406
-9.35746
-9.28683
-9.21228
-9.13392
-9.05191
-8.9664
-8.87758
-8.78565
-8.69083
-8.59332
-8.49336
-9.88609
-9.83928
-9.82662
-9.83344
-9.84062
-9.84417
-9.84442
-9.84126
-9.83418
-9.8229
-9.80739
-9.78761
-9.76357
-9.73527
-9.70271
-9.66591
-9.62485
-9.57954
-9.52998
-9.47615
-9.41802
-9.35558
-9.2888
-9.2177
-9.14231
-9.06277
-8.97922
-8.89192
-8.80115
-8.70724
-8.61053
-8.51137
-8.4101
-10.105
-10.1331
-10.087
-10.0321
-9.99862
-9.97396
-9.95021
-9.92624
-9.90153
-9.87532
-9.84695
-9.81598
-9.78206
-9.74493
-9.70435
-9.66012
-9.6121
-9.56014
-9.50416
-9.4441
-9.37995
-9.31179
-9.23972
-9.1639
-9.08453
-9.00183
-8.91601
-8.82726
-8.73576
-8.64168
-8.54519
-8.44643
-8.34566
-9.61021
-9.48998
-9.54692
-9.64388
-9.68924
-9.71443
-9.73313
-9.74316
-9.7447
-9.73909
-9.72713
-9.70929
-9.68601
-9.65765
-9.62447
-9.58673
-9.54459
-9.49819
-9.4476
-9.39281
-9.33375
-9.27026
-9.20217
-9.1293
-9.05162
-8.96923
-8.88238
-8.79152
-8.6972
-8.59999
-8.50052
-8.39927
-8.29686
-10.8125
-10.4696
-10.199
-10.0654
-10.0068
-9.96366
-9.92543
-9.89245
-9.86198
-9.8315
-9.79974
-9.76591
-9.7294
-9.68976
-9.64665
-9.59982
-9.54908
-9.49427
-9.43532
-9.37225
-9.30522
-9.23452
-9.16053
-9.08368
-9.0043
-8.92263
-8.8387
-8.7524
-8.66352
-8.57186
-8.47733
-8.37984
-8.27995
-8.30346
-9.00676
-9.39897
-9.53833
-9.6221
-9.68308
-9.7174
-9.73296
-9.73632
-9.72992
-9.7154
-9.69421
-9.66735
-9.6355
-9.59924
-9.55902
-9.51519
-9.468
-9.41755
-9.36371
-9.30609
-9.24406
-9.17682
-9.10359
-9.0239
-8.93767
-8.84541
-8.74806
-8.64687
-8.54319
-8.43814
-8.33275
-8.22709
-17.0729
-14.9814
-16.5018
-19.6892
-23.0759
-26.2301
-28.6264
-29.7787
-29.4879
-27.7991
-24.8194
-21.2337
-17.7935
-14.7904
-12.209
-9.97869
-8.06433
-6.43457
-5.05391
-3.89152
-2.92039
-2.11621
-1.45705
-0.923
-0.495569
-0.156984
0.110171
0.321687
0.489552
0.621533
0.722987
0.798562
0.852666
0.889289
0.911833
0.923101
0.925383
0.920564
0.910197
0.895565
0.877721
0.857527
0.835685
0.812762
0.789213
0.765399
0.741605
0.718051
0.694904
0.672287
0.650287
0.628964
0.608352
0.588467
0.569311
0.550873
0.533132
0.516061
0.49963
0.483801
0.468538
0.453801
0.439551
0.425747
0.41235
0.399324
0.38663
0.374234
0.362103
0.350204
0.338507
0.326985
0.31561
0.304358
0.293207
0.282135
0.271122
0.260151
0.249204
0.238268
0.227326
0.216367
0.205379
0.19435
0.183271
0.172133
0.160927
0.149645
0.138281
0.126827
0.115278
0.103628
0.0918688
0.0800009
0.0680076
0.0559059
0.0436422
0.0313077
0.0186779
0.00620742
-17.0119
-16.4364
-17.3289
-19.5411
-22.0564
-24.4383
-26.2613
-27.162
-26.9224
-25.4797
-22.988
-20.0141
-17.0171
-14.2835
-11.886
-9.792
-7.97773
-6.41984
-5.09022
-3.96305
-3.01498
-2.22457
-1.57214
-1.0395
-0.609476
-0.265448
0.0087883
0.227808
0.40281
0.541402
0.649088
0.730633
0.790454
0.832498
0.860123
0.876112
0.882755
0.881945
0.87525
0.863972
0.849185
0.831772
0.812454
0.791821
0.770346
0.748411
0.726316
0.7043
0.682541
0.66118
0.640314
0.620015
0.600327
0.581276
0.562873
0.545111
0.527982
0.511461
0.495524
0.480141
0.465277
0.4509
0.436971
0.423457
0.410319
0.397524
0.385038
0.372826
0.36086
0.349108
0.337541
0.326136
0.314864
0.303704
0.292634
0.281633
0.270683
0.259769
0.248871
0.237978
0.227074
0.21615
0.20519
0.194187
0.18313
0.172011
0.160823
0.149557
0.138204
0.126762
0.115223
0.103582
0.0918299
0.0799684
0.0679807
0.0558831
0.0436252
0.0312928
0.018669
0.00619183
-16.3686
-16.2066
-16.91
-18.7483
-20.8767
-22.8514
-24.3726
-25.1142
-24.8096
-23.4936
-21.4214
-18.8707
-16.2308
-13.7669
-11.5582
-9.60101
-7.88689
-6.40127
-5.12326
-4.03205
-3.10789
-2.33209
-1.68714
-1.15649
-0.724318
-0.375209
-0.0942317
0.132
0.313964
0.459111
0.573053
0.660629
0.726242
0.773789
0.806586
0.827394
0.8385
0.841804
0.838889
0.831072
0.819445
0.804911
0.788213
0.769959
0.750643
0.730664
0.710341
0.689927
0.669619
0.649569
0.629888
0.610658
0.591937
0.573757
0.55614
0.539088
0.522596
0.506651
0.491232
0.476314
0.461869
0.447867
0.434275
0.421062
0.408195
0.395642
0.383372
0.371355
0.359561
0.347962
0.336532
0.325248
0.314084
0.30302
0.292035
0.281109
0.270226
0.25937
0.248523
0.237675
0.226812
0.215922
0.204993
0.194017
0.182984
0.171885
0.160715
0.149464
0.138125
0.126695
0.115166
0.103533
0.0917894
0.0799346
0.0679533
0.0558605
0.0436086
0.0312775
0.0186631
0.00617683
-16.0499
-16.3335
-17.0705
-18.5236
-20.1695
-21.6633
-22.7682
-23.2436
-22.9275
-21.7905
-19.9929
-17.7865
-15.4718
-13.2583
-11.2308
-9.40754
-7.79243
-6.37888
-5.15275
-4.09804
-3.19849
-2.43806
-1.80129
-1.27325
-0.83947
-0.485789
-0.198541
0.0345303
0.22323
0.374841
0.495027
0.588662
0.660114
0.713225
0.751266
0.776975
0.792634
0.800148
0.801109
0.796851
0.788481
0.776922
0.762935
0.747147
0.730071
0.712126
0.693647
0.674904
0.656107
0.637425
0.618981
0.600869
0.583157
0.565889
0.549094
0.532783
0.516959
0.501616
0.486738
0.472307
0.4583
0.444691
0.431452
0.418555
0.405971
0.393672
0.381629
0.369813
0.3582
0.346762
0.335476
0.324319
0.313268
0.302304
0.291408
0.280561
0.269747
0.258952
0.248159
0.237359
0.226537
0.215684
0.204787
0.193839
0.18283
0.171754
0.160601
0.149367
0.138043
0.126624
0.115106
0.103483
0.0917473
0.0798995
0.0679249
0.0558372
0.0435919
0.0312623
0.0186609
0.00616242
-15.7495
-16.1547
-16.8047
-17.9367
-19.2406
-20.4222
-21.2755
-21.6022
-21.265
-20.2545
-18.698
-16.7886
-14.7528
-12.7638
-10.9067
-9.21264
-7.69435
-6.35215
-5.17793
-4.16013
-3.28581
-2.54148
-1.91363
-1.38893
-0.954241
-0.596652
-0.303734
-0.0642838
0.130866
0.288798
0.415171
0.514853
0.592162
0.650873
0.694211
0.724888
0.745176
0.756983
0.76191
0.7613
0.756278
0.747784
0.736595
0.723358
0.708604
0.692769
0.676206
0.6592
0.641979
0.624722
0.607568
0.590623
0.573966
0.55765
0.541714
0.526179
0.511054
0.49634
0.48203
0.468109
0.45456
0.441363
0.428493
0.415928
0.403641
0.391607
0.379801
0.368198
0.356774
0.345504
0.334368
0.323345
0.312413
0.301553
0.29075
0.279986
0.269244
0.258514
0.247778
0.237027
0.226249
0.215434
0.204571
0.193653
0.18267
0.171615
0.160483
0.149265
0.137956
0.126551
0.115044
0.10343
0.0917035
0.0798631
0.0678956
0.0558132
0.0435751
0.031247
0.0186624
0.00614877
-15.4727
-15.9325
-16.5454
-17.4602
-18.4811
-19.3791
-19.9899
-20.1658
-19.8056
-18.9001
-17.5396
-15.873
-14.0749
-12.2863
-10.5876
-9.01671
-7.59236
-6.32047
-5.19803
-4.21751
-3.36905
-2.64157
-2.02344
-1.50288
-1.06808
-0.707354
-0.409447
-0.164143
0.037119
0.201182
0.333644
0.439328
0.52248
0.586805
0.635473
0.671168
0.696149
0.712321
0.721291
0.724412
0.722823
0.717478
0.709171
0.698567
0.686214
0.672564
0.657989
0.642788
0.627205
0.611433
0.595624
0.579896
0.564339
0.549019
0.533981
0.519257
0.504864
0.490809
0.477092
0.463705
0.450636
0.437871
0.425389
0.413171
0.401195
0.38944
0.377883
0.366502
0.355276
0.344184
0.333206
0.322322
0.311514
0.300765
0.29006
0.279382
0.268717
0.258054
0.247378
0.236679
0.225947
0.215172
0.204345
0.193457
0.182501
0.171471
0.160359
0.149159
0.137865
0.126474
0.114979
0.103375
0.0916577
0.0798252
0.067865
0.0557883
0.0435582
0.0312318
0.0186669
0.00613606
-15.1913
-15.6447
-16.1917
-16.918
-17.7043
-18.3802
-18.8115
-18.882
-18.5122
-17.6943
-16.496
-15.0322
-13.4376
-11.8273
-10.2745
-8.81992
-7.48615
-6.28324
-5.21234
-4.26943
-3.44747
-2.73761
-2.13007
-1.61453
-1.1805
-0.817474
-0.51532
-0.264735
-0.0577473
0.11221
0.250621
0.362223
0.451176
0.521103
0.575116
0.615862
0.645584
0.666182
0.679264
0.686191
0.688113
0.685995
0.68065
0.672757
0.662881
0.65149
0.638972
0.625644
0.611761
0.597533
0.583124
0.568665
0.554256
0.539974
0.525875
0.511998
0.49837
0.485006
0.47191
0.459083
0.446518
0.434204
0.422128
0.410275
0.398626
0.387163
0.375867
0.36472
0.353703
0.342796
0.331983
0.321247
0.31057
0.299937
0.289334
0.278747
0.268163
0.25757
0.246957
0.236313
0.225629
0.214897
0.204107
0.193251
0.182324
0.171318
0.160228
0.149047
0.13777
0.126393
0.11491
0.103318
0.0916098
0.0797855
0.0678333
0.0557625
0.0435408
0.0312164
0.0186737
0.00612442
-14.8996
-15.3202
-15.7987
-16.3774
-16.9783
-17.4747
-17.7592
-17.7424
-17.3644
-16.6184
-15.5542
-14.2596
-12.8394
-11.387
-9.96783
-8.62247
-7.37556
-6.24003
-5.22028
-4.31525
-3.52041
-2.829
-2.23293
-1.72335
-1.29102
-0.926601
-0.620984
-0.365731
-0.153447
0.022123
0.166299
0.2837
0.378379
0.45387
0.51322
0.559034
0.593532
0.618603
0.635856
0.646654
0.652155
0.653338
0.651029
0.645921
0.638594
0.629534
0.619143
0.607751
0.595632
0.583006
0.570052
0.556912
0.543699
0.5305
0.517381
0.50439
0.491561
0.478918
0.466472
0.454231
0.442193
0.430354
0.418704
0.407232
0.395926
0.384769
0.373749
0.362847
0.352048
0.341337
0.330698
0.320116
0.309576
0.299065
0.288571
0.278079
0.267579
0.257061
0.246514
0.235928
0.225295
0.214607
0.203856
0.193035
0.182138
0.171158
0.16009
0.14893
0.13767
0.126308
0.114838
0.103257
0.0915596
0.079744
0.0678001
0.0557357
0.043523
0.0312009
0.0186815
0.00611396
-14.5957
-14.97
-15.3771
-15.8325
-16.2824
-16.6341
-16.8031
-16.7199
-16.3386
-15.6533
-14.7009
-13.5487
-12.2782
-10.9656
-9.6682
-8.42483
-7.26074
-6.1907
-5.22151
-4.35453
-3.58739
-2.91522
-2.33155
-1.8289
-1.39924
-1.03434
-0.726072
-0.466793
-0.249681
-0.0688238
0.0808919
0.203936
0.304237
0.385229
0.449885
0.500764
0.540056
0.569635
0.591104
0.605829
0.614972
0.619522
0.620316
0.618062
0.613354
0.606692
0.598493
0.589102
0.578806
0.56784
0.556396
0.544627
0.532658
0.520586
0.508487
0.496419
0.484425
0.472535
0.46077
0.449141
0.437655
0.426312
0.415108
0.404037
0.39309
0.382255
0.371522
0.360878
0.350309
0.339803
0.329347
0.318927
0.308532
0.298149
0.287767
0.277376
0.266965
0.256526
0.246047
0.235522
0.224943
0.214302
0.203592
0.192807
0.181942
0.170989
0.159946
0.148806
0.137565
0.126219
0.114763
0.103194
0.0915069
0.0797005
0.0677653
0.0557077
0.0435044
0.0311851
0.0186891
0.00610476
-14.2816
-14.6047
-14.9423
-15.2951
-15.6236
-15.8593
-15.9365
-15.8015
-15.4193
-14.7849
-13.9259
-12.8937
-11.7522
-10.5632
-9.37641
-8.2278
-7.14226
-6.13551
-5.21604
-4.3871
-3.64813
-2.99596
-2.42557
-1.93081
-1.5048
-1.14034
-0.830226
-0.567582
-0.346142
-0.160361
-0.00536938
0.123127
0.228914
0.315316
0.385226
0.441147
0.485234
0.519341
0.545061
0.563757
0.576595
0.58457
0.58853
0.589194
0.587169
0.582969
0.577025
0.569696
0.561282
0.552033
0.542151
0.531803
0.521124
0.510224
0.499187
0.48808
0.476956
0.465852
0.454796
0.443807
0.432898
0.422074
0.411336
0.400684
0.390113
0.379616
0.369185
0.35881
0.348483
0.338192
0.327927
0.317677
0.307434
0.297185
0.286923
0.276638
0.26632
0.255963
0.245557
0.235096
0.224573
0.213981
0.203315
0.192568
0.181735
0.170812
0.159794
0.148676
0.137454
0.126125
0.114683
0.103127
0.0914515
0.0796549
0.0677289
0.0556786
0.0434851
0.0311691
0.0186954
0.00609682
-13.9602
-14.2314
-14.5036
-14.7699
-14.9998
-15.1424
-15.1471
-14.9723
-14.5915
-14.0006
-13.2202
-12.2899
-11.2598
-10.1801
-9.09341
-8.03246
-7.02102
-6.07507
-5.2042
-4.41305
-3.70257
-3.07102
-2.51475
-2.0288
-1.60737
-1.24426
-0.933103
-0.667763
-0.442519
-0.252212
-0.0922431
0.0414801
0.152589
0.244285
0.319372
0.380292
0.429158
0.467799
0.497791
0.520492
0.537068
0.548518
0.555699
0.559338
0.560056
0.558378
0.554748
0.549539
0.543065
0.535585
0.527317
0.51844
0.509098
0.499412
0.489478
0.47937
0.46915
0.458864
0.448548
0.438226
0.427918
0.417636
0.407386
0.397172
0.386994
0.376849
0.366734
0.356642
0.346567
0.336501
0.326437
0.316366
0.306281
0.296174
0.286037
0.275862
0.265642
0.255371
0.245042
0.234648
0.224184
0.213644
0.203023
0.192316
0.181518
0.170626
0.159634
0.148539
0.137338
0.126026
0.1146
0.103058
0.0913935
0.0796071
0.0676908
0.0556482
0.0434647
0.0311528
0.0186998
0.00609011
-13.6346
-13.8559
-14.0681
-14.2613
-14.411
-14.479
-14.4265
-14.2215
-13.8438
-13.2903
-12.5766
-11.7332
-10.7996
-9.81648
-8.82019
-7.84
-6.8981
-6.01023
-5.18655
-4.43269
-3.75082
-3.1404
-2.59897
-2.12266
-1.7067
-1.34579
-1.03438
-0.767008
-0.5385
-0.344092
-0.179478
-0.0407826
0.0754532
0.172301
0.252468
0.318324
0.371935
0.415098
0.449369
0.476097
0.496444
0.511411
0.521859
0.528526
0.53204
0.532939
0.531679
0.528645
0.524163
0.518506
0.511902
0.504542
0.496582
0.488153
0.47936
0.470289
0.461008
0.451572
0.442024
0.432397
0.422715
0.412997
0.403256
0.393499
0.383731
0.373955
0.364169
0.354372
0.344561
0.33473
0.324876
0.314992
0.305074
0.295114
0.285108
0.275049
0.264932
0.254752
0.244502
0.234179
0.223776
0.213291
0.202717
0.192052
0.181291
0.17043
0.159466
0.148396
0.137216
0.125922
0.114513
0.102984
0.0913327
0.0795571
0.067651
0.0556165
0.0434434
0.031136
0.0187017
0.00608452
-13.3078
-13.4824
-13.6406
-13.7717
-13.856
-13.8643
-13.7669
-13.5393
-13.1662
-12.6454
-11.9887
-11.2199
-10.37
-9.4724
-8.55763
-7.65157
-6.77463
-5.94193
-5.16378
-4.44649
-3.79312
-3.20416
-2.67815
-2.21224
-1.80256
-1.44465
-1.13374
-0.864999
-0.633777
-0.435717
-0.266814
-0.123431
-0.00228777
0.0995454
0.18467
0.255378
0.313681
0.361339
0.399884
0.430648
0.454788
0.473304
0.487059
0.496796
0.503155
0.506681
0.507841
0.507033
0.504593
0.500807
0.495915
0.490118
0.483584
0.476453
0.46884
0.460841
0.452532
0.443978
0.435227
0.426321
0.41729
0.408159
0.398946
0.389665
0.380324
0.370931
0.36149
0.352001
0.342464
0.33288
0.323245
0.313556
0.303811
0.294006
0.284136
0.274199
0.264189
0.254103
0.243937
0.233687
0.22335
0.212921
0.202397
0.191776
0.181053
0.170226
0.159291
0.148246
0.137088
0.125814
0.114421
0.102908
0.0912692
0.079505
0.0676095
0.0555836
0.0434209
0.0311189
0.0187011
0.00607993
-12.9824
-13.1141
-13.2242
-13.3028
-13.3336
-13.2942
-13.1618
-12.9178
-12.5506
-12.0586
-11.4511
-10.7466
-9.96981
-9.1478
-8.3064
-7.4682
-6.65169
-5.87109
-5.13663
-4.45496
-3.82979
-3.26244
-2.75232
-2.29743
-1.89475
-1.5406
-1.2309
-0.961431
-0.72805
-0.5268
-0.353989
-0.206225
-0.0804198
0.0262083
0.116147
0.191603
0.254528
0.306637
0.349433
0.38423
0.412174
0.43426
0.451352
0.464197
0.47344
0.479637
0.483264
0.484728
0.484378
0.482509
0.479373
0.475181
0.470114
0.46432
0.457925
0.451032
0.443729
0.436086
0.428161
0.420002
0.411646
0.403123
0.394459
0.385672
0.376776
0.367781
0.358697
0.349528
0.340279
0.33095
0.321543
0.312058
0.302494
0.292849
0.283122
0.273311
0.263413
0.253426
0.243347
0.233174
0.222904
0.212535
0.202063
0.191487
0.180804
0.170012
0.159108
0.148089
0.136954
0.125701
0.114326
0.102828
0.091203
0.0794506
0.0675662
0.0555494
0.0433973
0.0311014
0.0186979
0.00607619
-12.6605
-12.7534
-12.8214
-12.8554
-12.8426
-12.7652
-12.6058
-12.3502
-11.9898
-11.5236
-10.9589
-10.3102
-9.59736
-8.84236
-8.06694
-7.29069
-6.53018
-5.7986
-5.10582
-4.45863
-3.86119
-3.31543
-2.82151
-2.37816
-1.98313
-1.63341
-1.32559
-1.05602
-0.821026
-0.617058
-0.440737
-0.28892
-0.15872
-0.047509
0.0470786
0.12716
0.194618
0.251117
0.298128
0.336941
0.368686
0.394353
0.414802
0.430783
0.442946
0.451851
0.457984
0.461762
0.463543
0.463633
0.462295
0.45975
0.456188
0.451768
0.446625
0.440873
0.434606
0.427904
0.420832
0.413444
0.405786
0.397894
0.389799
0.381523
0.373087
0.364507
0.355794
0.346957
0.338005
0.328942
0.319772
0.310499
0.301123
0.291645
0.282067
0.272387
0.262605
0.252721
0.242733
0.232639
0.22244
0.212132
0.201715
0.191187
0.180545
0.169789
0.158917
0.147926
0.136816
0.125583
0.114227
0.102745
0.0911341
0.0793942
0.0675213
0.0555141
0.0433726
0.0310834
0.0186926
0.00607314
-12.3441
-12.4023
-12.4334
-12.4301
-12.3815
-12.2739
-12.0938
-11.8306
-11.4779
-11.035
-10.5078
-9.90787
-9.25115
-8.55561
-7.83949
-7.11967
-6.41089
-5.72522
-5.07201
-4.45803
-3.88767
-3.36335
-2.8858
-2.45441
-2.06755
-1.72289
-1.41757
-1.14848
-0.912424
-0.706215
-0.526792
-0.371268
-0.236958
-0.121396
-0.0223437
0.0622195
0.134102
0.194916
0.246089
0.288886
0.324419
0.353667
0.377484
0.39662
0.411727
0.423371
0.432045
0.438173
0.442122
0.44421
0.444706
0.443845
0.441824
0.438813
0.434956
0.430375
0.425175
0.419441
0.413247
0.406656
0.399718
0.392477
0.384969
0.377222
0.369263
0.36111
0.352781
0.344289
0.335645
0.326858
0.317934
0.308879
0.299699
0.290395
0.28097
0.271427
0.261766
0.251988
0.242094
0.232084
0.221957
0.211714
0.201353
0.190874
0.180276
0.169558
0.158718
0.147757
0.136671
0.125461
0.114123
0.102658
0.0910626
0.0793357
0.0674747
0.0554776
0.0433468
0.031065
0.0186853
0.00607066
-12.0347
-12.0621
-12.0614
-12.0266
-11.9489
-11.8175
-11.622
-11.3542
-11.0096
-10.5879
-10.0939
-9.53686
-8.9296
-8.28692
-7.62407
-6.9556
-6.29447
-5.65164
-5.03585
-4.45366
-3.90961
-3.40642
-2.94529
-2.52615
-2.14793
-1.80885
-1.50661
-1.23858
-1.00198
-0.794
-0.611892
-0.453018
-0.314899
-0.195236
-0.0919209
-0.00303667
0.0731463
0.13818
0.193448
0.240184
0.279479
0.312294
0.33948
0.361781
0.379849
0.394255
0.405496
0.414004
0.420155
0.424272
0.426638
0.427493
0.427046
0.425476
0.422936
0.419556
0.415449
0.410709
0.405419
0.399646
0.39345
0.38688
0.379976
0.372776
0.365308
0.357597
0.349665
0.341528
0.333202
0.3247
0.31603
0.307203
0.298224
0.289099
0.279834
0.270432
0.260896
0.251229
0.241432
0.231508
0.221457
0.211281
0.200978
0.19055
0.179997
0.169318
0.158513
0.147581
0.136522
0.125334
0.114017
0.102569
0.0909887
0.0792753
0.0674266
0.0554401
0.04332
0.0310463
0.0186763
0.00606863
-11.7336
-11.7339
-11.7059
-11.6447
-11.5435
-11.3934
-11.1865
-10.9167
-10.5806
-10.1784
-9.71389
-9.19469
-8.63119
-8.03556
-7.4206
-6.79877
-6.18143
-5.57844
-4.99788
-4.44602
-3.92738
-3.44491
-3.00013
-2.59342
-2.2242
-1.89118
-1.59253
-1.32607
-1.08943
-0.880153
-0.695777
-0.533917
-0.392303
-0.268804
-0.161445
-0.0684176
0.0119242
0.0810676
0.140349
0.190964
0.233979
0.270339
0.300882
0.326347
0.347384
0.364567
0.378396
0.389308
0.397685
0.403861
0.408125
0.410726
0.411882
0.411782
0.410585
0.408433
0.405445
0.401724
0.39736
0.392427
0.386992
0.38111
0.374829
0.36819
0.361227
0.353972
0.346448
0.338678
0.330681
0.322472
0.314064
0.30547
0.2967
0.287761
0.27866
0.269404
0.259997
0.250444
0.240748
0.230913
0.22094
0.210832
0.20059
0.190215
0.179708
0.16907
0.1583
0.147399
0.136367
0.125203
0.113906
0.102477
0.0909125
0.079213
0.0673771
0.0554016
0.0432923
0.0310273
0.018666
0.00606695
-11.4419
-11.4186
-11.3672
-11.2841
-11.1638
-10.9992
-10.7842
-10.5143
-10.1871
-9.80274
-9.36468
-8.87907
-8.35441
-7.80075
-7.22885
-6.64936
-6.0722
-5.50616
-4.95865
-4.43558
-3.94137
-3.47907
-3.05046
-2.65627
-2.29633
-1.96975
-1.67515
-1.41076
-1.17456
-0.964427
-0.778195
-0.613719
-0.468932
-0.341871
-0.230701
-0.133724
-0.0493801
0.0237482
0.0869448
0.141366
0.188047
0.227915
0.261792
0.29041
0.314416
0.334382
0.35081
0.364142
0.374767
0.383023
0.389208
0.39358
0.396365
0.397758
0.397931
0.39703
0.395184
0.392503
0.389085
0.385012
0.380357
0.37518
0.369537
0.363474
0.35703
0.350241
0.343137
0.335744
0.328084
0.320177
0.312039
0.303686
0.29513
0.286381
0.27745
0.268344
0.25907
0.249635
0.240043
0.2303
0.220408
0.21037
0.20019
0.18987
0.179411
0.168814
0.158081
0.147212
0.136208
0.125068
0.113793
0.102382
0.0908341
0.0791492
0.0673263
0.0553622
0.0432637
0.031008
0.0186547
0.00606556
-11.1604
-11.1165
-11.0453
-10.9441
-10.8084
-10.6328
-10.4124
-10.1439
-9.82554
-9.45783
-9.04358
-8.58792
-8.09784
-7.58171
-7.04855
-6.50746
-5.96708
-5.43523
-4.91863
-4.42277
-3.95194
-3.50919
-3.09648
-2.7148
-2.36431
-2.0445
-1.75435
-1.49245