/*--------------------------------*- C++ -*----------------------------------*\
| =========                 |                                                 |
| \\      /  F ield         | OpenFOAM: The Open Source CFD Toolbox           |
|  \\    /   O peration     | Version:  2.1.1                                 |
|   \\  /    A nd           | Web:      www.OpenFOAM.org                      |
|    \\/     M anipulation  |                                                 |
\*---------------------------------------------------------------------------*/
FoamFile
{
    version     2.0;
    format      ascii;
    class       surfaceScalarField;
    location    "0.01";
    object      phi;
}
// * * * * * * * * * * * * * * * * * * * * * * * * * * * * * * * * * * * * * //

dimensions      [0 3 -1 0 0 0 0];

internalField   nonuniform List<scalar> 
13452
(
6.89961e-05
-5.08833e-07
6.88311e-05
1.64981e-07
6.8244e-05
5.87125e-07
6.73311e-05
9.12883e-07
6.63015e-05
1.02965e-06
6.52702e-05
1.03129e-06
6.42809e-05
9.89287e-07
6.3353e-05
9.27837e-07
6.24977e-05
8.55349e-07
6.17217e-05
7.75978e-07
6.10304e-05
6.91306e-07
6.04284e-05
6.01976e-07
5.99201e-05
5.08377e-07
5.95088e-05
4.11293e-07
5.91963e-05
3.12452e-07
5.89814e-05
2.14963e-07
5.88579e-05
1.23482e-07
5.88105e-05
4.73916e-08
5.88164e-05
-5.88398e-09
5.88613e-05
-4.49761e-08
5.89395e-05
-7.81979e-08
5.90513e-05
-1.11779e-07
5.91984e-05
-1.47054e-07
5.93835e-05
-1.85179e-07
5.96105e-05
-2.26994e-07
5.98841e-05
-2.73523e-07
6.02104e-05
-3.2636e-07
6.05982e-05
-3.87822e-07
6.10601e-05
-4.61857e-07
6.16157e-05
-5.55616e-07
6.22889e-05
-6.73161e-07
6.31852e-05
-8.96307e-07
-9.73774e-07
6.4159e-05
7.01657e-05
-2.30632e-07
7.00445e-05
2.86266e-07
7.01884e-05
4.4316e-07
7.05216e-05
5.7974e-07
7.0881e-05
6.70195e-07
7.11924e-05
7.19944e-07
7.14332e-05
7.48413e-07
7.16055e-05
7.55605e-07
7.17171e-05
7.43728e-07
7.17769e-05
7.16183e-07
7.17928e-05
6.75393e-07
7.17716e-05
6.23203e-07
7.17189e-05
5.61087e-07
7.16396e-05
4.90574e-07
7.15385e-05
4.13526e-07
7.14213e-05
3.32226e-07
7.12954e-05
2.49339e-07
7.11738e-05
1.68964e-07
7.10759e-05
9.20124e-08
7.1013e-05
1.79086e-08
7.09872e-05
-5.23386e-08
7.0999e-05
-1.2358e-07
7.1049e-05
-1.97102e-07
7.11387e-05
-2.74802e-07
7.12704e-05
-3.5876e-07
7.14487e-05
-4.51761e-07
7.16795e-05
-5.57227e-07
7.19719e-05
-6.80172e-07
7.23359e-05
-8.25857e-07
7.27884e-05
-1.00818e-06
7.3346e-05
-1.23068e-06
7.40269e-05
-1.57727e-06
-1.92662e-06
7.49798e-05
7.22841e-05
-5.82059e-08
7.24062e-05
1.64151e-07
7.25218e-05
3.27549e-07
7.2626e-05
4.75577e-07
7.27297e-05
5.66463e-07
7.28364e-05
6.13227e-07
7.29515e-05
6.33395e-07
7.30716e-05
6.35438e-07
7.31932e-05
6.222e-07
7.33136e-05
5.95776e-07
7.34313e-05
5.57666e-07
7.35454e-05
5.09055e-07
7.36556e-05
4.50963e-07
7.37616e-05
3.84543e-07
7.38639e-05
3.11207e-07
7.39636e-05
2.32505e-07
7.40629e-05
1.50089e-07
7.41641e-05
6.77221e-08
7.4272e-05
-1.58364e-08
7.43917e-05
-1.01779e-07
7.45276e-05
-1.88298e-07
7.46816e-05
-2.77591e-07
7.48551e-05
-3.70572e-07
7.50497e-05
-4.69429e-07
7.52683e-05
-5.77289e-07
7.55149e-05
-6.98381e-07
7.57954e-05
-8.37763e-07
7.61175e-05
-1.00227e-06
7.64901e-05
-1.19848e-06
7.69234e-05
-1.44147e-06
7.74269e-05
-1.73415e-06
7.79913e-05
-2.14163e-06
-2.56751e-06
7.86322e-05
7.45216e-05
-5.31754e-08
7.45004e-05
1.85377e-07
7.4501e-05
3.26882e-07
7.45581e-05
4.18552e-07
7.46418e-05
4.82718e-07
7.47372e-05
5.17835e-07
7.48377e-05
5.32846e-07
7.4942e-05
5.31213e-07
7.50498e-05
5.14393e-07
7.51613e-05
4.84288e-07
7.52764e-05
4.42492e-07
7.53953e-05
3.90206e-07
7.55178e-05
3.28448e-07
7.56441e-05
2.5828e-07
7.57744e-05
1.80915e-07
7.59094e-05
9.74969e-08
7.60517e-05
7.80134e-09
7.62016e-05
-8.2209e-08
7.63626e-05
-1.7683e-07
7.65355e-05
-2.74684e-07
7.67225e-05
-3.75287e-07
7.69247e-05
-4.79826e-07
7.71437e-05
-5.89577e-07
7.73813e-05
-7.06969e-07
7.76398e-05
-8.35809e-07
7.79227e-05
-9.81324e-07
7.82347e-05
-1.14974e-06
7.85813e-05
-1.34886e-06
7.8969e-05
-1.58621e-06
7.94027e-05
-1.87516e-06
7.98886e-05
-2.22006e-06
8.04078e-05
-2.66078e-06
-3.14345e-06
8.09837e-05
7.66054e-05
-2.72247e-09
7.66387e-05
1.52041e-07
7.66907e-05
2.74912e-07
7.67483e-05
3.60977e-07
7.68115e-05
4.1949e-07
7.68814e-05
4.4795e-07
7.69596e-05
4.54596e-07
7.70461e-05
4.4474e-07
7.714e-05
4.205e-07
7.72407e-05
3.83551e-07
7.7348e-05
3.3523e-07
7.74617e-05
2.76554e-07
7.75817e-05
2.08401e-07
7.77083e-05
1.31647e-07
7.7842e-05
4.72234e-08
7.79836e-05
-4.4105e-08
7.81332e-05
-1.41795e-07
7.82943e-05
-2.43261e-07
7.84674e-05
-3.49988e-07
7.86542e-05
-4.61402e-07
7.8856e-05
-5.77101e-07
7.90739e-05
-6.97799e-07
7.93093e-05
-8.24913e-07
7.95635e-05
-9.61205e-07
7.98388e-05
-1.11106e-06
8.01378e-05
-1.2804e-06
8.04643e-05
-1.4762e-06
8.08221e-05
-1.70665e-06
8.12154e-05
-1.97955e-06
8.16463e-05
-2.30607e-06
8.21172e-05
-2.69089e-06
8.26137e-05
-3.15725e-06
-3.67512e-06
8.31453e-05
7.88347e-05
8.49607e-09
7.88501e-05
1.36608e-07
7.88826e-05
2.42492e-07
7.89312e-05
3.12306e-07
7.89934e-05
3.57345e-07
7.90642e-05
3.77111e-07
7.91421e-05
3.76749e-07
7.92265e-05
3.60303e-07
7.93174e-05
3.29548e-07
7.9415e-05
2.85975e-07
7.95194e-05
2.30874e-07
7.96307e-05
1.65243e-07
7.97492e-05
8.99069e-08
7.98752e-05
5.58241e-09
8.00095e-05
-8.69864e-08
8.01526e-05
-1.87265e-07
8.03056e-05
-2.94828e-07
8.04706e-05
-4.08213e-07
8.06485e-05
-5.27857e-07
8.08405e-05
-6.53435e-07
8.10479e-05
-7.8453e-07
8.12718e-05
-9.21704e-07
8.15134e-05
-1.06653e-06
8.17743e-05
-1.22206e-06
8.20563e-05
-1.39306e-06
8.23618e-05
-1.58587e-06
8.26934e-05
-1.80779e-06
8.30537e-05
-2.06697e-06
8.34452e-05
-2.37103e-06
8.38681e-05
-2.72904e-06
8.43227e-05
-3.14549e-06
8.47989e-05
-3.6334e-06
-4.17667e-06
8.53004e-05
8.10878e-05
1.92216e-08
8.11064e-05
1.18056e-07
8.11447e-05
2.04171e-07
8.11957e-05
2.61352e-07
8.12564e-05
2.9661e-07
8.13244e-05
3.09083e-07
8.13993e-05
3.01891e-07
8.1481e-05
2.78542e-07
8.15697e-05
2.40894e-07
8.16653e-05
1.90374e-07
8.1768e-05
1.28189e-07
8.1878e-05
5.52596e-08
8.19955e-05
-2.76792e-08
8.21212e-05
-1.20028e-07
8.22554e-05
-2.21266e-07
8.23992e-05
-3.31026e-07
8.25534e-05
-4.49027e-07
8.27196e-05
-5.74402e-07
8.28989e-05
-7.07168e-07
8.30925e-05
-8.47004e-07
8.33015e-05
-9.93555e-07
8.35271e-05
-1.14733e-06
8.37706e-05
-1.30999e-06
8.40333e-05
-1.4848e-06
8.4317e-05
-1.67674e-06
8.46234e-05
-1.89229e-06
8.49544e-05
-2.13878e-06
8.53115e-05
-2.42403e-06
8.56956e-05
-2.75518e-06
8.61061e-05
-3.13953e-06
8.65417e-05
-3.58103e-06
8.69952e-05
-4.08691e-06
-4.64852e-06
8.7467e-05
8.34133e-05
2.14941e-08
8.34318e-05
9.94951e-08
8.34673e-05
1.68744e-07
8.35151e-05
2.13532e-07
8.35737e-05
2.38006e-07
8.36408e-05
2.41973e-07
8.37153e-05
2.27429e-07
8.37967e-05
1.97119e-07
8.38849e-05
1.5266e-07
8.398e-05
9.52767e-08
8.40822e-05
2.60359e-08
8.41916e-05
-5.42321e-08
8.43088e-05
-1.44878e-07
8.44342e-05
-2.45417e-07
8.45685e-05
-3.55498e-07
8.47124e-05
-4.74911e-07
8.48668e-05
-6.03498e-07
8.50332e-05
-7.40748e-07
8.52125e-05
-8.86494e-07
8.54059e-05
-1.04039e-06
8.56145e-05
-1.20214e-06
8.58394e-05
-1.37226e-06
8.60819e-05
-1.55249e-06
8.63433e-05
-1.7462e-06
8.66249e-05
-1.9584e-06
8.69282e-05
-2.1955e-06
8.7254e-05
-2.46464e-06
8.76031e-05
-2.77308e-06
8.79752e-05
-3.12731e-06
8.83689e-05
-3.53321e-06
8.87819e-05
-3.99403e-06
8.92087e-05
-4.51371e-06
-5.08736e-06
8.96475e-05
8.57993e-05
2.09187e-08
8.58178e-05
8.09758e-08
8.58527e-05
1.33903e-07
8.58998e-05
1.66422e-07
8.59573e-05
1.80456e-07
8.60234e-05
1.75927e-07
8.60968e-05
1.53954e-07
8.61774e-05
1.16573e-07
8.62649e-05
6.51789e-08
8.63593e-05
8.33568e-10
8.64609e-05
-7.55288e-08
8.65698e-05
-1.63183e-07
8.66865e-05
-2.61578e-07
8.68115e-05
-3.70347e-07
8.69452e-05
-4.89279e-07
8.70886e-05
-6.18297e-07
8.72425e-05
-7.57357e-07
8.74079e-05
-9.06168e-07
8.75859e-05
-1.0645e-06
8.77775e-05
-1.23201e-06
8.79839e-05
-1.40847e-06
8.8206e-05
-1.59442e-06
8.84452e-05
-1.79164e-06
8.87024e-05
-2.00347e-06
8.89789e-05
-2.23484e-06
8.92753e-05
-2.49192e-06
8.95921e-05
-2.78141e-06
8.99289e-05
-3.10995e-06
9.02849e-05
-3.48325e-06
9.06577e-05
-3.906e-06
9.10444e-05
-4.38074e-06
9.14402e-05
-4.90947e-06
-5.48898e-06
9.18418e-05
8.8253e-05
1.78777e-08
8.82717e-05
6.23073e-08
8.83054e-05
1.00194e-07
8.8351e-05
1.20857e-07
8.84068e-05
1.24598e-07
8.84715e-05
1.11321e-07
8.85438e-05
8.16296e-08
8.86234e-05
3.6994e-08
8.871e-05
-2.14399e-08
8.88036e-05
-9.27882e-08
8.89043e-05
-1.76275e-07
8.90124e-05
-2.71289e-07
8.91283e-05
-3.77388e-07
8.92522e-05
-4.9431e-07
8.93849e-05
-6.21962e-07
8.9527e-05
-7.60381e-07
8.96792e-05
-9.09613e-07
8.98426e-05
-1.06952e-06
9.0018e-05
-1.23987e-06
9.02063e-05
-1.42036e-06
9.04087e-05
-1.61082e-06
9.06261e-05
-1.81181e-06
9.08595e-05
-2.02511e-06
9.111e-05
-2.25396e-06
9.13782e-05
-2.50306e-06
9.16645e-05
-2.77816e-06
9.19685e-05
-3.08545e-06
9.22894e-05
-3.43081e-06
9.26253e-05
-3.81918e-06
9.29735e-05
-4.2542e-06
9.33304e-05
-4.73768e-06
9.36914e-05
-5.27039e-06
-5.84967e-06
9.40521e-05
9.07757e-05
1.35247e-08
9.07942e-05
4.37667e-08
9.08268e-05
6.75908e-08
9.0871e-05
7.66589e-08
9.09253e-05
7.02696e-08
9.09884e-05
4.82036e-08
9.10594e-05
1.0701e-08
9.11376e-05
-4.12482e-08
9.12229e-05
-1.06756e-07
9.13153e-05
-1.8511e-07
9.14147e-05
-2.75687e-07
9.15214e-05
-3.77989e-07
9.16357e-05
-4.91676e-07
9.17579e-05
-6.16583e-07
9.18887e-05
-7.52715e-07
9.20285e-05
-9.00193e-07
9.2178e-05
-1.05915e-06
9.2338e-05
-1.22954e-06
9.25094e-05
-1.41118e-06
9.26928e-05
-1.60381e-06
9.28893e-05
-1.80734e-06
9.30999e-05
-2.02235e-06
9.33253e-05
-2.25055e-06
9.35664e-05
-2.49501e-06
9.38234e-05
-2.76008e-06
9.40963e-05
-3.05104e-06
9.43842e-05
-3.37338e-06
9.46856e-05
-3.73225e-06
9.49982e-05
-4.13173e-06
9.53186e-05
-4.57458e-06
9.56428e-05
-5.06188e-06
9.59659e-05
-5.59351e-06
-6.16683e-06
9.62831e-05
9.33698e-05
8.40161e-09
9.33881e-05
2.54232e-08
9.34196e-05
3.60886e-08
9.34624e-05
3.3919e-08
9.3515e-05
1.76287e-08
9.35764e-05
-1.3183e-08
9.36456e-05
-5.85339e-08
9.37222e-05
-1.17817e-07
9.38058e-05
-1.90384e-07
9.38964e-05
-2.75688e-07
9.3994e-05
-3.7325e-07
9.40987e-05
-4.82688e-07
9.42107e-05
-6.03758e-07
9.43305e-05
-7.3638e-07
9.44585e-05
-8.80633e-07
9.4595e-05
-1.0367e-06
9.47406e-05
-1.20478e-06
9.4896e-05
-1.3849e-06
9.50617e-05
-1.57695e-06
9.52386e-05
-1.78072e-06
9.54275e-05
-1.99618e-06
9.56291e-05
-2.22394e-06
9.58441e-05
-2.46561e-06
9.60731e-05
-2.72402e-06
9.63162e-05
-3.0031e-06
9.65727e-05
-3.30755e-06
9.68414e-05
-3.64215e-06
9.71204e-05
-4.01122e-06
9.74067e-05
-4.41803e-06
9.76966e-05
-4.86451e-06
9.79858e-05
-5.35107e-06
9.82692e-05
-5.87685e-06
-6.43901e-06
9.85414e-05
9.60376e-05
2.90661e-09
9.60556e-05
7.42617e-09
9.60859e-05
5.72184e-09
9.61272e-05
-7.3118e-09
9.61781e-05
-3.32548e-08
9.62376e-05
-7.26924e-08
9.63049e-05
-1.25839e-07
9.63794e-05
-1.92393e-07
9.6461e-05
-2.71924e-07
9.65493e-05
-3.64048e-07
9.66445e-05
-4.68417e-07
9.67466e-05
-5.84759e-07
9.68557e-05
-7.12918e-07
9.69723e-05
-8.52884e-07
9.70964e-05
-1.00479e-06
9.72286e-05
-1.16887e-06
9.73691e-05
-1.34534e-06
9.75185e-05
-1.53431e-06
9.76773e-05
-1.73572e-06
9.7846e-05
-1.94944e-06
9.80254e-05
-2.17551e-06
9.8216e-05
-2.41454e-06
9.84184e-05
-2.66803e-06
9.86329e-05
-2.93852e-06
9.88593e-05
-3.2295e-06
9.90967e-05
-3.54499e-06
9.93436e-05
-3.88904e-06
9.95975e-05
-4.26513e-06
9.98552e-05
-4.67571e-06
0.000100113
-5.12195e-06
0.000100365
-5.60361e-06
0.000100608
-6.11928e-06
-6.66579e-06
0.000100834
9.87813e-05
-2.71676e-09
9.87989e-05
-1.0112e-08
9.88281e-05
-2.34828e-08
9.88677e-05
-4.69682e-08
9.89168e-05
-8.22692e-08
9.89742e-05
-1.30138e-07
9.90393e-05
-1.90948e-07
9.91116e-05
-2.64637e-07
9.91906e-05
-3.50972e-07
9.92763e-05
-4.49715e-07
9.93685e-05
-5.60639e-07
9.94673e-05
-6.83573e-07
9.95728e-05
-8.18437e-07
9.96852e-05
-9.65277e-07
9.98047e-05
-1.12426e-06
9.99315e-05
-1.29565e-06
0.000100066
-1.47968e-06
0.000100208
-1.67649e-06
0.000100358
-1.88608e-06
0.000100517
-2.10841e-06
0.000100685
-2.34359e-06
0.000100863
-2.59224e-06
0.000101051
-2.85573e-06
0.000101249
-3.13629e-06
0.000101456
-3.43692e-06
0.000101672
-3.76098e-06
0.000101895
-4.11172e-06
0.000102121
-4.4918e-06
0.000102348
-4.90288e-06
0.000102572
-5.34539e-06
0.000102787
-5.81851e-06
0.000102988
-6.32035e-06
-6.8475e-06
0.00010317
0.000101603
-8.30928e-09
0.00010162
-2.70831e-08
0.000101648
-5.14746e-08
0.000101686
-8.49688e-08
0.000101733
-1.29292e-07
0.000101789
-1.85333e-07
0.000101851
-2.53598e-07
0.000101921
-3.34214e-07
0.000101997
-4.27119e-07
0.000102079
-5.32204e-07
0.000102168
-6.49354e-07
0.000102263
-7.78484e-07
0.000102364
-9.19581e-07
0.000102472
-1.07273e-06
0.000102585
-1.23812e-06
0.000102706
-1.41601e-06
0.000102833
-1.60664e-06
0.000102966
-1.81018e-06
0.000103107
-2.02667e-06
0.000103255
-2.25615e-06
0.00010341
-2.49882e-06
0.000103573
-2.7553e-06
0.000103744
-3.02683e-06
0.000103923
-3.31535e-06
0.00010411
-3.62335e-06
0.000104302
-3.9535e-06
0.000104499
-4.30828e-06
0.000104697
-4.68952e-06
0.000104892
-5.0981e-06
0.00010508
-5.53379e-06
0.000105257
-5.99525e-06
0.000105417
-6.48018e-06
-6.98503e-06
0.000105554
0.000104506
-1.37676e-08
0.000104522
-4.33929e-08
0.000104549
-7.81931e-08
0.000104585
-1.21222e-07
0.00010463
-1.74185e-07
0.000104683
-2.38077e-07
0.000104743
-3.13515e-07
0.000104809
-4.00776e-07
0.000104882
-4.99941e-07
0.000104961
-6.11018e-07
0.000105046
-7.33986e-07
0.000105136
-8.68836e-07
0.000105232
-1.01561e-06
0.000105334
-1.17441e-06
0.000105441
-1.34545e-06
0.000105554
-1.52894e-06
0.000105672
-1.72514e-06
0.000105796
-1.93419e-06
0.000105926
-2.1562e-06
0.000106061
-2.39129e-06
0.000106202
-2.63972e-06
0.000106349
-2.90215e-06
0.000106502
-3.1797e-06
0.00010666
-3.47401e-06
0.000106824
-3.78707e-06
0.000106991
-4.1209e-06
0.00010716
-4.47718e-06
0.000107328
-4.85695e-06
0.00010749
-5.26036e-06
0.000107643
-5.68655e-06
0.000107781
-6.13373e-06
0.0001079
-6.59928e-06
-7.07959e-06
0.000107995
0.000107491
-1.90223e-08
0.000107507
-5.89559e-08
0.000107532
-1.03564e-07
0.000107567
-1.55621e-07
0.000107609
-2.16794e-07
0.000107659
-2.88155e-07
0.000107716
-3.70413e-07
0.000107779
-4.63964e-07
0.000107848
-5.69007e-07
0.000107923
-6.85649e-07
0.000108003
-8.1395e-07
0.000108088
-9.53963e-07
0.000108178
-1.10577e-06
0.000108273
-1.26949e-06
0.000108373
-1.44531e-06
0.000108478
-1.63344e-06
0.000108587
-1.83407e-06
0.0001087
-2.04737e-06
0.000108817
-2.27346e-06
0.000108938
-2.51254e-06
0.000109064
-2.76497e-06
0.000109193
-3.03141e-06
0.000109326
-3.31291e-06
0.000109463
-3.61084e-06
0.000109603
-3.92669e-06
0.000109743
-4.26185e-06
0.000109884
-4.61724e-06
0.00011002
-4.99315e-06
0.000110148
-5.38902e-06
0.000110265
-5.80343e-06
0.000110366
-6.23418e-06
0.000110445
-6.67846e-06
-7.13267e-06
0.000110498
0.000110562
-2.40242e-08
0.000110577
-7.36935e-08
0.000110601
-1.27505e-07
0.000110633
-1.88048e-07
0.000110673
-2.56952e-07
0.00011072
-3.35342e-07
0.000110774
-4.23998e-07
0.000110833
-5.23411e-07
0.000110898
-6.33876e-07
0.000110968
-7.55581e-07
0.000111043
-8.88654e-07
0.000111122
-1.0332e-06
0.000111206
-1.18931e-06
0.000111293
-1.35714e-06
0.000111385
-1.53682e-06
0.00011148
-1.72853e-06
0.000111578
-1.93241e-06
0.000111679
-2.14862e-06
0.000111783
-2.3773e-06
0.00011189
-2.61873e-06
0.000111998
-2.87335e-06
0.000112108
-3.14188e-06
0.000112221
-3.42528e-06
0.000112335
-3.72467e-06
0.000112449
-4.0411e-06
0.000112562
-4.37535e-06
0.000112673
-4.72764e-06
0.000112777
-5.09751e-06
0.000112872
-5.48376e-06
0.000112953
-5.88448e-06
0.000113016
-6.29713e-06
0.000113056
-6.71876e-06
-7.14587e-06
0.000113069
0.00011372
-2.8736e-08
0.000113734
-8.75318e-08
0.000113756
-1.49923e-07
0.000113787
-2.18377e-07
0.000113824
-2.94483e-07
0.000113868
-3.79401e-07
0.000113918
-4.73967e-07
0.000113974
-5.78745e-07
0.000114034
-6.94104e-07
0.000114099
-8.20298e-07
0.000114167
-9.57506e-07
0.00011424
-1.10587e-06
0.000114316
-1.26551e-06
0.000114396
-1.43654e-06
0.000114478
-1.61909e-06
0.000114563
-1.81327e-06
0.00011465
-2.01917e-06
0.000114738
-2.23691e-06
0.000114827
-2.46668e-06
0.000114917
-2.70881e-06
0.000115008
-2.96383e-06
0.000115098
-3.23253e-06
0.000115189
-3.51581e-06
0.000115279
-3.81458e-06
0.000115367
-4.12947e-06
0.000115453
-4.4607e-06
0.000115533
-4.80783e-06
0.000115605
-5.16972e-06
0.000115666
-5.54458e-06
0.000115711
-5.93004e-06
0.000115738
-6.32332e-06
0.00011574
-6.72137e-06
-7.12089e-06
0.000115715
0.000116969
-3.31275e-08
0.000116982
-1.004e-07
0.000117002
-1.70721e-07
0.00011703
-2.46469e-07
0.000117065
-3.29199e-07
0.000117106
-4.20088e-07
0.000117152
-5.20013e-07
0.000117203
-6.2959e-07
0.000117258
-7.49245e-07
0.000117317
-8.79283e-07
0.000117379
-1.01992e-06
0.000117445
-1.17133e-06
0.000117513
-1.33362e-06
0.000117583
-1.50692e-06
0.000117655
-1.69128e-06
0.000117729
-1.88677e-06
0.000117803
-2.09342e-06
0.000117878
-2.31132e-06
0.000117952
-2.54065e-06
0.000118025
-2.78184e-06
0.000118096
-3.03552e-06
0.000118166
-3.30252e-06
0.000118234
-3.58374e-06
0.0001183
-3.87987e-06
0.000118361
-4.19122e-06
0.000118418
-4.51746e-06
0.000118468
-4.85755e-06
0.000118508
-5.20973e-06
0.000118535
-5.57168e-06
0.000118546
-5.94065e-06
0.000118536
-6.31363e-06
0.000118502
-6.68759e-06
-7.05943e-06
0.000118441
0.00012031
-3.71719e-08
0.000120322
-1.12228e-07
0.000120341
-1.89796e-07
0.000120367
-2.72183e-07
0.000120398
-3.60909e-07
0.000120435
-4.57157e-07
0.000120477
-5.61828e-07
0.000120523
-6.75573e-07
0.000120573
-7.98863e-07
0.000120626
-9.32034e-07
0.000120681
-1.07533e-06
0.000120739
-1.22894e-06
0.000120798
-1.39297e-06
0.000120859
-1.56752e-06
0.00012092
-1.75261e-06
0.000120981
-1.94822e-06
0.000121042
-2.15433e-06
0.000121102
-2.37098e-06
0.00012116
-2.59839e-06
0.000121215
-2.83705e-06
0.000121267
-3.08767e-06
0.000121316
-3.3512e-06
0.00012136
-3.62848e-06
0.000121401
-3.9201e-06
0.000121435
-4.22601e-06
0.000121463
-4.54543e-06
0.000121483
-4.87677e-06
0.000121491
-5.21773e-06
0.000121484
-5.5655e-06
0.000121461
-5.917e-06
0.000121416
-6.26909e-06
0.000121347
-6.61875e-06
-6.96318e-06
0.000121251
0.000123747
-4.08446e-08
0.000123758
-1.22949e-07
0.000123775
-2.07043e-07
0.000123798
-2.95372e-07
0.000123827
-3.89419e-07
0.00012386
-4.9036e-07
0.000123897
-5.99106e-07
0.000123938
-7.16331e-07
0.000123981
-8.42529e-07
0.000124027
-9.78062e-07
0.000124075
-1.12319e-06
0.000124124
-1.2781e-06
0.000124174
-1.4429e-06
0.000124225
-1.61765e-06
0.000124274
-1.80233e-06
0.000124323
-1.99685e-06
0.00012437
-2.20112e-06
0.000124414
-2.41516e-06
0.000124455
-2.6392e-06
0.000124491
-2.87377e-06
0.000124523
-3.11972e-06
0.00012455
-3.37806e-06
0.000124571
-3.64966e-06
0.000124586
-3.93498e-06
0.000124594
-4.2337e-06
0.000124593
-4.54463e-06
0.000124582
-4.86569e-06
0.000124559
-5.19409e-06
0.00012452
-5.52663e-06
0.000124463
-5.85994e-06
0.000124384
-6.19079e-06
0.000124282
-6.51625e-06
-6.83378e-06
0.000124152
0.000127282
-4.4122e-08
0.000127291
-1.32495e-07
0.000127307
-2.22356e-07
0.000127327
-3.15889e-07
0.000127352
-4.14538e-07
0.000127381
-5.19457e-07
0.000127414
-6.31555e-07
0.000127449
-7.51514e-07
0.000127486
-8.79841e-07
0.000127525
-1.01691e-06
0.000127565
-1.16298e-06
0.000127605
-1.31825e-06
0.000127645
-1.48281e-06
0.000127684
-1.65668e-06
0.000127722
-1.8398e-06
0.000127757
-2.032e-06
0.000127789
-2.23316e-06
0.000127817
-2.44324e-06
0.00012784
-2.66248e-06
0.000127858
-2.8915e-06
0.000127869
-3.13124e-06
0.000127874
-3.38279e-06
0.000127871
-3.64708e-06
0.000127861
-3.92443e-06
0.000127842
-4.21434e-06
0.000127812
-4.51524e-06
0.000127771
-4.82464e-06
0.000127716
-5.13934e-06
0.000127646
-5.45578e-06
0.000127556
-5.77038e-06
0.000127445
-6.07987e-06
0.00012731
-6.38141e-06
-6.67278e-06
0.000127149
0.000130918
-4.69811e-08
0.000130926
-1.40798e-07
0.000130939
-2.35628e-07
0.000130957
-3.33589e-07
0.000130979
-4.36078e-07
0.000131003
-5.44215e-07
0.000131031
-6.58894e-07
0.00013106
-7.80793e-07
0.000131091
-9.10419e-07
0.000131122
-1.04815e-06
0.000131153
-1.19425e-06
0.000131184
-1.34889e-06
0.000131213
-1.51216e-06
0.00013124
-1.68405e-06
0.000131265
-1.86444e-06
0.000131286
-2.05312e-06
0.000131303
-2.24989e-06
0.000131314
-2.4547e-06
0.00013132
-2.66781e-06
0.000131318
-2.88988e-06
0.000131309
-3.12197e-06
0.000131291
-3.36526e-06
0.000131265
-3.6207e-06
0.000131229
-3.88857e-06
0.000131183
-4.16816e-06
0.000131125
-4.45764e-06
0.000131055
-4.75415e-06
0.00013097
-5.05414e-06
0.000130867
-5.35377e-06
0.000130746
-5.64931e-06
0.000130604
-5.93748e-06
0.000130438
-6.21559e-06
-6.48167e-06
0.000130247
0.000134658
-4.94e-08
0.000134665
-1.47795e-07
0.000134676
-2.46758e-07
0.00013469
-3.48337e-07
0.000134708
-4.53869e-07
0.000134728
-5.64426e-07
0.00013475
-6.80874e-07
0.000134773
-8.03874e-07
0.000134797
-9.33925e-07
0.00013482
-1.0714e-06
0.000134843
-1.21656e-06
0.000134863
-1.36956e-06
0.000134882
-1.53048e-06
0.000134897
-1.69927e-06
0.000134908
-1.87577e-06
0.000134915
-2.05973e-06
0.000134916
-2.25089e-06
0.00013491
-2.44918e-06
0.000134897
-2.65487e-06
0.000134876
-2.86869e-06
0.000134846
-3.09179e-06
0.000134806
-3.32544e-06
0.000134756
-3.57064e-06
0.000134695
-3.82763e-06
0.000134622
-4.09554e-06
0.000134537
-4.37232e-06
0.000134438
-4.65482e-06
0.000134323
-4.93923e-06
0.000134191
-5.22148e-06
0.000134039
-5.49777e-06
0.000133866
-5.7648e-06
0.000133671
-6.02004e-06
-6.26183e-06
0.000133451
0.000138504
-5.13524e-08
0.00013851
-1.53412e-07
0.000138519
-2.55633e-07
0.00013853
-3.59987e-07
0.000138544
-4.67734e-07
0.00013856
-5.79884e-07
0.000138576
-6.9726e-07
0.000138593
-8.20494e-07
0.000138609
-9.50071e-07
0.000138624
-1.08635e-06
0.000138637
-1.22958e-06
0.000138647
-1.37991e-06
0.000138654
-1.5374e-06
0.000138657
-1.70198e-06
0.000138654
-1.87344e-06
0.000138646
-2.05149e-06
0.000138631
-2.23585e-06
0.000138608
-2.42642e-06
0.000138577
-2.62349e-06
0.000138536
-2.82786e-06
0.000138485
-3.04074e-06
0.000138423
-3.2635e-06
0.00013835
-3.49718e-06
0.000138264
-3.74199e-06
0.000138166
-3.99698e-06
0.000138053
-4.25989e-06
0.000137926
-4.52739e-06
0.000137782
-4.79545e-06
0.00013762
-5.05987e-06
0.000137439
-5.31677e-06
0.000137237
-5.56294e-06
0.000137013
-5.796e-06
-6.01455e-06
0.000136766
0.000142461
-5.28256e-08
0.000142465
-1.57604e-07
0.000142471
-2.6219e-07
0.00014248
-3.6846e-07
0.00014249
-4.77575e-07
0.0001425
-5.90461e-07
0.000142511
-7.07884e-07
0.000142521
-8.30444e-07
0.000142529
-9.58604e-07
0.000142536
-1.09271e-06
0.000142539
-1.233e-06
0.000142539
-1.37961e-06
0.000142534
-1.53259e-06
0.000142524
-1.69184e-06
0.000142508
-1.85713e-06
0.000142484
-2.02815e-06
0.000142453
-2.20457e-06
0.000142413
-2.3863e-06
0.000142363
-2.57364e-06
0.000142303
-2.76744e-06
0.000142231
-2.96898e-06
0.000142147
-3.1797e-06
0.000142051
-3.40069e-06
0.000141941
-3.63216e-06
0.000141817
-3.87307e-06
0.000141678
-4.12107e-06
0.000141523
-4.37266e-06
0.000141352
-4.6237e-06
0.000141162
-4.8699e-06
0.000140952
-5.10739e-06
0.000140722
-5.33304e-06
0.000140471
-5.54463e-06
-5.74103e-06
0.000140197
0.00014653
-5.37517e-08
0.000146533
-1.60219e-07
0.000146537
-2.6622e-07
0.000146542
-3.73535e-07
0.000146548
-4.83185e-07
0.000146553
-5.9598e-07
0.000146558
-7.12605e-07
0.000146561
-8.3361e-07
0.000146562
-9.59426e-07
0.000146559
-1.09038e-06
0.000146553
-1.22672e-06
0.000146542
-1.36856e-06
0.000146526
-1.51595e-06
0.000146502
-1.66877e-06
0.000146472
-1.82678e-06
0.000146434
-1.98965e-06
0.000146386
-2.15705e-06
0.000146329
-2.32886e-06
0.00014626
-2.50543e-06
0.000146181
-2.68762e-06
0.000146088
-2.8768e-06
0.000145983
-3.07444e-06
0.000145864
-3.28168e-06
0.000145731
-3.49872e-06
0.000145582
-3.72451e-06
0.000145418
-3.95661e-06
0.000145236
-4.19148e-06
0.000145038
-4.42489e-06
0.00014482
-4.65256e-06
0.000144584
-4.87066e-06
0.000144327
-5.07617e-06
0.000144049
-5.26705e-06
-5.44238e-06
0.000143751
0.000150716
-5.42312e-08
0.000150717
-1.61393e-07
0.000150719
-2.679e-07
0.000150721
-3.75377e-07
0.000150722
-4.84656e-07
0.000150723
-5.96423e-07
0.000150721
-7.11293e-07
0.000150718
-8.2977e-07
0.00015071
-9.52258e-07
0.000150699
-1.07907e-06
0.000150683
-1.21043e-06
0.000150661
-1.34648e-06
0.000150632
-1.48722e-06
0.000150596
-1.63256e-06
0.000150551
-1.78224e-06
0.000150498
-1.93592e-06
0.000150434
-2.09327e-06
0.000150359
-2.25419e-06
0.000150273
-2.41903e-06
0.000150174
-2.5887e-06
0.000150062
-2.76458e-06
0.000149935
-2.94821e-06
0.000149794
-3.14073e-06
0.000149638
-3.34238e-06
0.000149466
-3.55209e-06
0.000149276
-3.76742e-06
0.00014907
-3.9848e-06
0.000148845
-4.20005e-06
0.000148601
-4.40893e-06
0.000148338
-4.60769e-06
0.000148056
-4.79346e-06
0.000147753
-4.96437e-06
-5.1197e-06
0.00014743
0.000155021
-5.37557e-08
0.00015502
-1.6032e-07
0.000155019
-2.66382e-07
0.000155017
-3.7336e-07
0.000155014
-4.81708e-07
0.000155009
-5.91851e-07
0.000155002
-7.04265e-07
0.000154992
-8.19391e-07
0.000154977
-9.37623e-07
0.000154957
-1.05929e-06
0.000154931
-1.18463e-06
0.000154899
-1.31378e-06
0.000154858
-1.44679e-06
0.000154809
-1.58355e-06
0.000154751
-1.72383e-06
0.000154682
-1.86727e-06
0.000154602
-2.01358e-06
0.000154511
-2.16265e-06
0.000154407
-2.31485e-06
0.000154289
-2.47111e-06
0.000154157
-2.63283e-06
0.000154011
-2.80156e-06
0.000153848
-2.97847e-06
0.00015367
-3.16381e-06
0.000153474
-3.35654e-06
0.000153261
-3.55427e-06
0.00015303
-3.75349e-06
0.00015278
-3.9501e-06
0.000152511
-4.13996e-06
0.000152223
-4.31948e-06
0.000151915
-4.48593e-06
0.000151588
-4.6376e-06
-4.77395e-06
0.000151243
0.000159451
-5.36865e-08
0.000159449
-1.58622e-07
0.000159446
-2.63104e-07
0.00015944
-3.68283e-07
0.000159433
-4.74386e-07
0.000159423
-5.817e-07
0.000159409
-6.90589e-07
0.000159391
-8.014e-07
0.000159368
-9.14467e-07
0.000159339
-1.03009e-06
0.000159303
-1.14852e-06
0.000159259
-1.26989e-06
0.000159206
-1.39425e-06
0.000159144
-1.52152e-06
0.000159072
-1.65147e-06
0.000158989
-1.78378e-06
0.000158893
-1.91816e-06
0.000158785
-2.05453e-06
0.000158663
-2.19329e-06
0.000158528
-2.33536e-06
0.000158377
-2.48215e-06
0.000158211
-2.63521e-06
0.000158028
-2.79572e-06
0.000157828
-2.96395e-06
0.00015761
-3.13893e-06
0.000157375
-3.31833e-06
0.00015712
-3.49879e-06
0.000156846
-3.67634e-06
0.000156553
-3.84701e-06
0.000156241
-4.00738e-06
0.00015591
-4.15487e-06
0.00015556
-4.28797e-06
-4.40626e-06
0.000155193
0.000164002
-4.93986e-08
0.000163995
-1.5131e-07
0.000163986
-2.54615e-07
0.000163977
-3.59186e-07
0.000163966
-4.63851e-07
0.000163953
-5.68423e-07
0.000163936
-6.73249e-07
0.000163913
-7.78793e-07
0.000163884
-8.85517e-07
0.000163848
-9.93826e-07
0.000163803
-1.10403e-06
0.00016375
-1.21634e-06
0.000163686
-1.33083e-06
0.000163612
-1.44743e-06
0.000163527
-1.56597e-06
0.000163429
-1.68612e-06
0.000163319
-1.80763e-06
0.000163195
-1.93043e-06
0.000163056
-2.0549e-06
0.000162903
-2.18198e-06
0.000162734
-2.31305e-06
0.000162548
-2.44964e-06
0.000162345
-2.59294e-06
0.000162125
-2.74326e-06
0.000161885
-2.89971e-06
0.000161627
-3.06013e-06
0.00016135
-3.22131e-06
0.000161053
-3.37947e-06
0.000160737
-3.53087e-06
0.000160402
-3.67225e-06
0.000160048
-3.80123e-06
0.000159676
-3.91642e-06
-4.01754e-06
0.000159288
0.000168695
-5.2913e-08
0.000168692
-1.4796e-07
0.000168683
-2.45488e-07
0.000168669
-3.45043e-07
0.00016865
-4.45525e-07
0.000168628
-5.46032e-07
0.000168601
-6.46249e-07
0.000168568
-7.46281e-07
0.000168529
-8.46471e-07
0.000168483
-9.47217e-07
0.000168428
-1.04886e-06
0.000168363
-1.15165e-06
0.000168288
-1.25572e-06
0.000168201
-1.36104e-06
0.000168103
-1.46747e-06
0.000167992
-1.57475e-06
0.000167867
-1.68264e-06
0.000167727
-1.79113e-06
0.000167573
-1.90061e-06
0.000167403
-2.012e-06
0.000167217
-2.12667e-06
0.000167013
-2.24614e-06
0.000166792
-2.3716e-06
0.000166552
-2.50342e-06
0.000166293
-2.64082e-06
0.000166015
-2.7818e-06
0.000165717
-2.92335e-06
0.000165399
-3.06192e-06
0.000165062
-3.19397e-06
0.000164707
-3.31647e-06
0.000164333
-3.42719e-06
0.000163941
-3.52491e-06
-3.60944e-06
0.000163533
0.000173491
-3.29865e-08
0.000173471
-1.27281e-07
0.000173455
-2.29882e-07
0.000173443
-3.3317e-07
0.000173431
-4.32911e-07
0.000173414
-5.29067e-07
0.00017339
-6.22685e-07
0.000173358
-7.1465e-07
0.000173318
-8.05692e-07
0.000173267
-8.96427e-07
0.000173205
-9.8733e-07
0.000173132
-1.07872e-06
0.000173047
-1.17076e-06
0.00017295
-1.26345e-06
0.000172839
-1.35664e-06
0.000172714
-1.45009e-06
0.000172575
-1.54354e-06
0.000172421
-1.63696e-06
0.000172251
-1.73071e-06
0.000172065
-1.82567e-06
0.000171861
-1.92317e-06
0.00017164
-2.02472e-06
0.0001714
-2.13157e-06
0.000171141
-2.2442e-06
0.000170862
-2.36199e-06
0.000170563
-2.48315e-06
0.000170245
-2.60488e-06
0.000169907
-2.72387e-06
0.00016955
-2.83677e-06
0.000169174
-2.9407e-06
0.00016878
-3.03359e-06
0.00016837
-3.11435e-06
-3.18288e-06
0.000167943
0.000178486
-5.03321e-08
0.000178476
-1.16919e-07
0.000178449
-2.03014e-07
0.000178415
-2.9918e-07
0.000178379
-3.97197e-07
0.000178342
-4.92009e-07
0.000178302
-5.82447e-07
0.000178256
-6.69149e-07
0.000178204
-7.53132e-07
0.000178142
-8.3528e-07
0.000178071
-9.16282e-07
0.000177989
-9.96642e-07
0.000177895
-1.07667e-06
0.000177788
-1.15648e-06
0.000177668
-1.23601e-06
0.000177533
-1.31506e-06
0.000177382
-1.39343e-06
0.000177217
-1.47113e-06
0.000177035
-1.54855e-06
0.000176835
-1.62658e-06
0.000176619
-1.70659e-06
0.000176384
-1.79011e-06
0.000176131
-1.87843e-06
0.000175859
-1.97207e-06
0.000175568
-2.07052e-06
0.000175256
-2.17207e-06
0.000174926
-2.27406e-06
0.000174575
-2.37332e-06
0.000174205
-2.46668e-06
0.000173816
-2.55145e-06
0.000173408
-2.62581e-06
0.000172982
-2.68887e-06
-2.74073e-06
0.00017254
0.00018349
2.66045e-08
0.000183461
-8.70923e-08
0.000183457
-1.99593e-07
0.000183462
-3.03496e-07
0.000183459
-3.94467e-07
0.000183444
-4.77212e-07
0.000183417
-5.5496e-07
0.000183376
-6.28856e-07
0.000183323
-6.99976e-07
0.000183257
-7.69245e-07
0.000183178
-8.37339e-07
0.000183086
-9.04698e-07
0.000182981
-9.71558e-07
0.000182863
-1.03796e-06
0.00018273
-1.10378e-06
0.000182584
-1.16874e-06
0.000182423
-1.23256e-06
0.000182247
-1.29516e-06
0.000182055
-1.35681e-06
0.000181847
-1.41834e-06
0.000181622
-1.48105e-06
0.000181378
-1.5465e-06
0.000181116
-1.61601e-06
0.000180834
-1.69024e-06
0.000180532
-1.76878e-06
0.00018021
-1.85006e-06
0.000179867
-1.93158e-06