/*--------------------------------*- C++ -*----------------------------------*\
| =========                 |                                                 |
| \\      /  F ield         | OpenFOAM: The Open Source CFD Toolbox           |
|  \\    /   O peration     | Version:  2.1.1                                 |
|   \\  /    A nd           | Web:      www.OpenFOAM.org                      |
|    \\/     M anipulation  |                                                 |
\*---------------------------------------------------------------------------*/
FoamFile
{
    version     2.0;
    format      ascii;
    class       volVectorField;
    location    "0.01";
    object      U;
}
// * * * * * * * * * * * * * * * * * * * * * * * * * * * * * * * * * * * * * //

dimensions      [0 1 -1 0 0 0 0];

internalField   nonuniform List<vector> 
6820
(
(8.34335 -0.360163 0)
(8.40208 -0.247613 0)
(8.3594 -0.115862 0)
(8.25469 -0.0374295 0)
(8.1312 0.00468467 0)
(8.00429 0.0259645 0)
(7.88045 0.0360573 0)
(7.76329 0.0399962 0)
(7.65452 0.0403891 0)
(7.55505 0.0386388 0)
(7.46558 0.0355267 0)
(7.3867 0.0314884 0)
(7.31897 0.0267691 0)
(7.26287 0.0215267 0)
(7.21875 0.0159111 0)
(7.1867 0.0101208 0)
(7.16633 0.00444388 0)
(7.15657 -0.000524725 0)
(7.15474 -0.00398085 0)
(7.15798 -0.00593411 0)
(7.16551 -0.00728052 0)
(7.17703 -0.00848516 0)
(7.19268 -0.00973788 0)
(7.21278 -0.0111128 0)
(7.23771 -0.0126415 0)
(7.26798 -0.0143564 0)
(7.30426 -0.0163235 0)
(7.34734 -0.0186513 0)
(7.39872 -0.021523 0)
(7.4596 -0.0254985 0)
(7.53451 -0.0296713 0)
(7.62282 -0.0443561 0)
(7.75189 -0.0267006 0)
(8.32145 0.166068 0)
(8.28728 0.189385 0)
(8.28597 0.131174 0)
(8.31848 0.0939306 0)
(8.36363 0.072438 0)
(8.40495 0.0591176 0)
(8.43775 0.0508379 0)
(8.462 0.0453458 0)
(8.47858 0.0412642 0)
(8.48851 0.0378468 0)
(8.4928 0.0346599 0)
(8.49233 0.0314208 0)
(8.48782 0.0279545 0)
(8.4799 0.0241765 0)
(8.4691 0.0200894 0)
(8.45602 0.0157878 0)
(8.4414 0.0114542 0)
(8.42624 0.00747561 0)
(8.41263 0.00409539 0)
(8.40301 0.00117534 0)
(8.39773 -0.00188628 0)
(8.39686 -0.00521631 0)
(8.40047 -0.0088932 0)
(8.40866 -0.0130215 0)
(8.42164 -0.0177137 0)
(8.4398 -0.0231194 0)
(8.46379 -0.0294435 0)
(8.49434 -0.0369853 0)
(8.53305 -0.0461783 0)
(8.5801 -0.0577987 0)
(8.6412 -0.0728963 0)
(8.7087 -0.095998 0)
(8.81206 -0.123454 0)
(8.32255 -0.0610983 0)
(8.31454 -0.0840262 0)
(8.33208 -0.0553117 0)
(8.34752 -0.0221105 0)
(8.35864 -0.00019792 0)
(8.37027 0.0130069 0)
(8.38307 0.0211985 0)
(8.39669 0.0262202 0)
(8.41067 0.0290718 0)
(8.42464 0.0303724 0)
(8.43836 0.0304799 0)
(8.45171 0.0295988 0)
(8.46462 0.027873 0)
(8.47705 0.0254168 0)
(8.48902 0.0223333 0)
(8.50059 0.0187175 0)
(8.51197 0.0146395 0)
(8.5234 0.0102946 0)
(8.53529 0.00554127 0)
(8.5482 0.000460247 0)
(8.5628 -0.00491292 0)
(8.57943 -0.0105353 0)
(8.59822 -0.0165016 0)
(8.61932 -0.0229882 0)
(8.64298 -0.030218 0)
(8.66956 -0.03849 0)
(8.69969 -0.0481728 0)
(8.73404 -0.0597996 0)
(8.77384 -0.0739049 0)
(8.81948 -0.0918646 0)
(8.87403 -0.113886 0)
(8.9331 -0.14707 0)
(9.00796 -0.181548 0)
(8.3337 0.0142054 0)
(8.33047 0.0464666 0)
(8.32931 0.0516895 0)
(8.33228 0.0437105 0)
(8.34044 0.0372449 0)
(8.35092 0.0335696 0)
(8.36201 0.0314484 0)
(8.37345 0.0299225 0)
(8.3853 0.0284539 0)
(8.39756 0.0267822 0)
(8.41023 0.0247683 0)
(8.42331 0.0223349 0)
(8.4368 0.0194432 0)
(8.45071 0.0160786 0)
(8.46504 0.0122553 0)
(8.47983 0.00800247 0)
(8.49528 0.00344437 0)
(8.51156 -0.00155436 0)
(8.52888 -0.00674542 0)
(8.54749 -0.0121315 0)
(8.56757 -0.0178608 0)
(8.58928 -0.0240828 0)
(8.61279 -0.0309116 0)
(8.63824 -0.0385144 0)
(8.66589 -0.0471542 0)
(8.69604 -0.0572101 0)
(8.72915 -0.0691606 0)
(8.76575 -0.0836437 0)
(8.80669 -0.10134 0)
(8.85221 -0.123486 0)
(8.90403 -0.150734 0)
(8.95935 -0.187112 0)
(9.02296 -0.228177 0)
(8.3302 -0.00573063 0)
(8.3277 -0.00871348 0)
(8.33319 -0.00500083 0)
(8.33983 0.00423096 0)
(8.3463 0.0121911 0)
(8.35347 0.0170532 0)
(8.36151 0.0196934 0)
(8.37047 0.0208942 0)
(8.38028 0.0210311 0)
(8.39087 0.0203066 0)
(8.40218 0.0188337 0)
(8.41418 0.016676 0)
(8.42688 0.0138705 0)
(8.44028 0.0104472 0)
(8.45441 0.00643718 0)
(8.46935 0.00187826 0)
(8.48514 -0.00313439 0)
(8.50196 -0.00876406 0)
(8.52008 -0.0148765 0)
(8.5396 -0.0215408 0)
(8.56067 -0.0287398 0)
(8.58345 -0.0365223 0)
(8.60805 -0.0449869 0)
(8.6346 -0.0543371 0)
(8.66331 -0.0648996 0)
(8.69442 -0.0771309 0)
(8.72831 -0.0915954 0)
(8.76536 -0.109005 0)
(8.8061 -0.130101 0)
(8.8507 -0.156025 0)
(8.89995 -0.187417 0)
(8.95223 -0.226958 0)
(9.00932 -0.271996 0)
(8.33247 0.00166064 0)
(8.33182 0.0116703 0)
(8.33458 0.0176351 0)
(8.33911 0.019543 0)
(8.34497 0.0200828 0)
(8.35207 0.0201389 0)
(8.35997 0.0198928 0)
(8.36854 0.0192529 0)
(8.3778 0.0180958 0)
(8.38776 0.0163689 0)
(8.39842 0.0140541 0)
(8.40981 0.0111415 0)
(8.42195 0.00762464 0)
(8.43485 0.00350366 0)
(8.44858 -0.00122475 0)
(8.46322 -0.00655111 0)
(8.47883 -0.0125026 0)
(8.49558 -0.0189592 0)
(8.51366 -0.0260061 0)
(8.53317 -0.0336628 0)
(8.55424 -0.0419291 0)
(8.577 -0.0508822 0)
(8.60155 -0.0606599 0)
(8.62805 -0.0714986 0)
(8.65667 -0.083763 0)
(8.68764 -0.0979537 0)
(8.72122 -0.114684 0)
(8.75768 -0.134687 0)
(8.79736 -0.158726 0)
(8.84031 -0.187785 0)
(8.88683 -0.222522 0)
(8.93595 -0.264582 0)
(8.9882 -0.312705 0)
(8.33239 0.000121454 0)
(8.33212 0.00342903 0)
(8.3352 0.00689222 0)
(8.34007 0.0100895 0)
(8.34585 0.0127411 0)
(8.35249 0.0143134 0)
(8.35984 0.0148203 0)
(8.36788 0.0144312 0)
(8.37663 0.0132495 0)
(8.38609 0.0113407 0)
(8.39627 0.00874393 0)
(8.40719 0.00547709 0)
(8.41887 0.00154678 0)
(8.43134 -0.00304588 0)
(8.44467 -0.0083072 0)
(8.45893 -0.0142459 0)
(8.4742 -0.0208794 0)
(8.49062 -0.028181 0)
(8.50834 -0.0362033 0)
(8.52746 -0.0449611 0)
(8.5481 -0.0544668 0)
(8.5704 -0.0647875 0)
(8.59445 -0.0760641 0)
(8.62041 -0.0885509 0)
(8.64843 -0.10264 0)
(8.67868 -0.11886 0)
(8.71137 -0.137848 0)
(8.74667 -0.160338 0)
(8.78472 -0.187075 0)
(8.82553 -0.218914 0)
(8.8691 -0.256475 0)
(8.9148 -0.300826 0)
(8.96265 -0.351447 0)
(8.33278 0.000941416 0)
(8.33315 0.00485569 0)
(8.33592 0.00841241 0)
(8.34026 0.0107493 0)
(8.34561 0.0120986 0)
(8.35191 0.0125283 0)
(8.35901 0.0121636 0)
(8.36679 0.0110974 0)
(8.37526 0.00934624 0)
(8.38442 0.00691266 0)
(8.39426 0.0037998 0)
(8.40482 5.6024e-06 0)
(8.41613 -0.00447763 0)
(8.42823 -0.00966301 0)
(8.44117 -0.015568 0)
(8.45504 -0.0222174 0)
(8.46991 -0.0296396 0)
(8.4859 -0.0378385 0)
(8.50313 -0.0468485 0)
(8.52171 -0.0566894 0)
(8.54175 -0.0673836 0)
(8.56337 -0.0790054 0)
(8.58668 -0.0917124 0)
(8.6118 -0.105778 0)
(8.63888 -0.121612 0)
(8.66805 -0.139754 0)
(8.69944 -0.160842 0)
(8.73312 -0.185586 0)
(8.76915 -0.214695 0)
(8.80742 -0.248909 0)
(8.8478 -0.288798 0)
(8.88981 -0.335089 0)
(8.93325 -0.38765 0)
(8.33289 0.000854592 0)
(8.33349 0.00357465 0)
(8.33611 0.0060709 0)
(8.34023 0.00779681 0)
(8.34535 0.00882496 0)
(8.35138 0.00906323 0)
(8.35817 0.00849173 0)
(8.36566 0.00715268 0)
(8.37381 0.0050695 0)
(8.38264 0.00225638 0)
(8.39215 -0.00127808 0)
(8.40236 -0.00553438 0)
(8.41331 -0.0105227 0)
(8.42503 -0.016262 0)
(8.43757 -0.0227789 0)
(8.451 -0.0301086 0)
(8.46541 -0.03829 0)
(8.48088 -0.0473469 0)
(8.49753 -0.057313 0)
(8.51545 -0.068214 0)
(8.53474 -0.0800819 0)
(8.55551 -0.0929979 0)
(8.57788 -0.107128 0)
(8.60195 -0.122753 0)
(8.62783 -0.140288 0)
(8.65562 -0.160267 0)
(8.68538 -0.183314 0)
(8.71712 -0.2101 0)
(8.75079 -0.241284 0)
(8.78622 -0.277508 0)
(8.8232 -0.319282 0)
(8.86128 -0.367134 0)
(8.90016 -0.421104 0)
(8.33298 0.000783856 0)
(8.33377 0.00292768 0)
(8.33626 0.00488415 0)
(8.3401 0.00613054 0)
(8.34492 0.00664641 0)
(8.35063 0.00638234 0)
(8.35711 0.00533478 0)
(8.36429 0.00353941 0)
(8.37214 0.0010105 0)
(8.38064 -0.00225131 0)
(8.38981 -0.00625023 0)
(8.39966 -0.0109971 0)
(8.41022 -0.0165107 0)
(8.42153 -0.0228185 0)
(8.43362 -0.0299572 0)
(8.44657 -0.0379721 0)
(8.46045 -0.0469109 0)
(8.47532 -0.0568116 0)
(8.49128 -0.067711 0)
(8.50843 -0.0796404 0)
(8.52684 -0.0926408 0)
(8.54663 -0.106801 0)
(8.56788 -0.122293 0)
(8.5907 -0.139401 0)
(8.61517 -0.158536 0)
(8.64133 -0.180215 0)
(8.6692 -0.20503 0)
(8.69872 -0.233607 0)
(8.72977 -0.266546 0)
(8.76213 -0.304403 0)
(8.79552 -0.347619 0)
(8.82951 -0.396595 0)
(8.86374 -0.451426 0)
(8.33303 0.000630433 0)
(8.3339 0.00214666 0)
(8.33625 0.00344962 0)
(8.33985 0.00413894 0)
(8.3444 0.00416313 0)
(8.34981 0.00347052 0)
(8.35598 0.00203001 0)
(8.36283 -0.000154174 0)
(8.37034 -0.0030825 0)
(8.37849 -0.00676263 0)
(8.38729 -0.011205 0)
(8.39674 -0.0164262 0)
(8.40687 -0.0224506 0)
(8.41772 -0.0293123 0)
(8.42932 -0.0370557 0)
(8.44172 -0.0457337 0)
(8.45498 -0.0554019 0)
(8.46916 -0.0661086 0)
(8.48435 -0.0778966 0)
(8.5006 -0.0908041 0)
(8.51802 -0.104881 0)
(8.53667 -0.120222 0)
(8.55666 -0.137004 0)
(8.57805 -0.155506 0)
(8.6009 -0.176123 0)
(8.62522 -0.199347 0)
(8.65098 -0.22573 0)
(8.67807 -0.25584 0)
(8.70631 -0.290216 0)
(8.73543 -0.329334 0)
(8.76512 -0.373566 0)
(8.79494 -0.423216 0)
(8.8245 -0.478373 0)
(8.33306 0.0004387 0)
(8.33396 0.00140019 0)
(8.33618 0.00213472 0)
(8.33956 0.00232201 0)
(8.34384 0.00187789 0)
(8.34894 0.000745024 0)
(8.35478 -0.00111639 0)
(8.3613 -0.00371627 0)
(8.36845 -0.00706363 0)
(8.37622 -0.0111734 0)
(8.38461 -0.0160636 0)
(8.39363 -0.0217578 0)
(8.4033 -0.0282871 0)
(8.41363 -0.0356922 0)
(8.42467 -0.044024 0)
(8.43646 -0.0533419 0)
(8.44903 -0.0637083 0)
(8.46245 -0.0751795 0)
(8.47676 -0.0878048 0)
(8.49203 -0.10163 0)
(8.50832 -0.116713 0)
(8.52572 -0.133154 0)
(8.5443 -0.151129 0)
(8.5641 -0.170909 0)
(8.58516 -0.192868 0)
(8.60746 -0.217461 0)
(8.63093 -0.245193 0)
(8.65542 -0.276572 0)
(8.68071 -0.312068 0)
(8.70651 -0.352083 0)
(8.73246 -0.39692 0)
(8.75812 -0.446802 0)
(8.78309 -0.501779 0)
(8.33307 0.000225534 0)
(8.33396 0.000659774 0)
(8.33607 0.000847848 0)
(8.33922 0.000534982 0)
(8.34324 -0.000375014 0)
(8.34804 -0.00194329 0)
(8.35356 -0.00421735 0)
(8.35972 -0.00722125 0)
(8.36649 -0.010975 0)
(8.37386 -0.0155015 0)
(8.38182 -0.0208261 0)
(8.39037 -0.0269783 0)
(8.39953 -0.0339951 0)
(8.40931 -0.0419222 0)
(8.41974 -0.0508156 0)
(8.43085 -0.0607397 0)
(8.44267 -0.0717615 0)
(8.45524 -0.0839438 0)
(8.46859 -0.0973422 0)
(8.48278 -0.11201 0)
(8.49786 -0.128013 0)
(8.51389 -0.145456 0)
(8.53093 -0.164512 0)
(8.54901 -0.185439 0)
(8.56814 -0.208582 0)
(8.58829 -0.234357 0)
(8.60934 -0.263214 0)
(8.63112 -0.295598 0)
(8.65339 -0.33191 0)
(8.67583 -0.372477 0)
(8.69807 -0.417535 0)
(8.71965 -0.467234 0)
(8.74019 -0.521578 0)
(8.33307 3.27737e-06 0)
(8.33394 -6.26782e-05 0)
(8.33592 -0.000387078 0)
(8.33886 -0.00117766 0)
(8.34262 -0.00253612 0)
(8.34712 -0.00452918 0)
(8.3523 -0.0072103 0)
(8.35811 -0.0106141 0)
(8.36449 -0.0147689 0)
(8.37144 -0.0197045 0)
(8.37894 -0.0254522 0)
(8.38699 -0.0320474 0)
(8.39561 -0.0395317 0)
(8.40479 -0.0479557 0)
(8.41456 -0.0573788 0)
(8.42494 -0.0678689 0)
(8.43595 -0.0794963 0)
(8.4476 -0.0923282 0)
(8.45993 -0.106426 0)
(8.47296 -0.121851 0)
(8.48674 -0.138675 0)
(8.50131 -0.157007 0)
(8.51671 -0.177016 0)
(8.53297 -0.198942 0)
(8.55007 -0.223102 0)
(8.56796 -0.249863 0)
(8.5865 -0.27962 0)
(8.60552 -0.312752 0)
(8.62474 -0.349587 0)
(8.64384 -0.390385 0)
(8.66245 -0.435313 0)
(8.68009 -0.484457 0)
(8.69643 -0.537771 0)
(8.33307 -0.000220358 0)
(8.3339 -0.000764167 0)
(8.33575 -0.00157386 0)
(8.33849 -0.00282444 0)
(8.342 -0.00461789 0)
(8.3462 -0.00702495 0)
(8.35104 -0.0101036 0)
(8.35647 -0.0138965 0)
(8.36245 -0.0184396 0)
(8.36896 -0.0237689 0)
(8.37598 -0.0299214 0)
(8.3835 -0.0369375 0)
(8.39154 -0.0448629 0)
(8.40009 -0.0537515 0)
(8.40916 -0.0636652 0)
(8.41876 -0.0746735 0)
(8.4289 -0.0868485 0)
(8.43958 -0.10026 0)
(8.45083 -0.114976 0)
(8.46264 -0.131061 0)
(8.47505 -0.148596 0)
(8.4881 -0.167693 0)
(8.50179 -0.188513 0)
(8.51615 -0.211282 0)
(8.53116 -0.236279 0)
(8.54673 -0.263829 0)
(8.56273 -0.294263 0)
(8.57896 -0.327893 0)
(8.59516 -0.364981 0)
(8.61098 -0.405714 0)
(8.62607 -0.450198 0)
(8.63997 -0.49846 0)
(8.65235 -0.550409 0)
(8.33307 -0.000440379 0)
(8.33385 -0.00144045 0)
(8.33558 -0.00270896 0)
(8.33812 -0.00439858 0)
(8.34136 -0.00660926 0)
(8.34527 -0.00941498 0)
(8.34977 -0.0128774 0)
(8.35482 -0.0170455 0)
(8.36038 -0.0219614 0)
(8.36643 -0.0276665 0)
(8.37294 -0.0342023 0)
(8.37992 -0.0416133 0)
(8.38735 -0.0499489 0)
(8.39523 -0.0592647 0)
(8.40356 -0.0696242 0)
(8.41234 -0.0810968 0)
(8.42157 -0.0937549 0)
(8.43123 -0.10767 0)
(8.44134 -0.122913 0)
(8.45189 -0.139555 0)
(8.46289 -0.157683 0)
(8.47435 -0.17741 0)
(8.4863 -0.198893 0)
(8.49872 -0.222337 0)
(8.51159 -0.247991 0)
(8.52483 -0.276129 0)
(8.53829 -0.307022 0)
(8.55176 -0.340916 0)
(8.56499 -0.378002 0)
(8.57764 -0.418405 0)
(8.58936 -0.462169 0)
(8.59972 -0.509269 0)
(8.60841 -0.55958 0)
(8.33307 -0.000653489 0)
(8.3338 -0.00208799 0)
(8.33539 -0.00378981 0)
(8.33773 -0.00589664 0)
(8.34073 -0.00850549 0)
(8.34433 -0.0116924 0)
(8.34849 -0.0155219 0)
(8.35315 -0.0200476 0)
(8.35828 -0.0253168 0)
(8.36385 -0.0313749 0)
(8.36985 -0.0382678 0)
(8.37625 -0.0460429 0)
(8.38304 -0.054752 0)
(8.39022 -0.0644522 0)
(8.39778 -0.0752065 0)
(8.40571 -0.0870835 0)
(8.41398 -0.100154 0)
(8.42259 -0.11449 0)
(8.43153 -0.130164 0)
(8.44077 -0.147253 0)
(8.45032 -0.165848 0)
(8.46018 -0.186065 0)
(8.47036 -0.208056 0)
(8.48083 -0.232008 0)
(8.49157 -0.258134 0)
(8.50248 -0.286662 0)
(8.51342 -0.317804 0)
(8.52419 -0.351739 0)
(8.53454 -0.388592 0)
(8.54415 -0.428426 0)
(8.55267 -0.471232 0)
(8.55972 -0.516939 0)
(8.56501 -0.565393 0)
(8.33306 -0.000857412 0)
(8.33374 -0.0027035 0)
(8.3352 -0.00481308 0)
(8.33735 -0.00731368 0)
(8.34009 -0.0102992 0)
(8.34339 -0.0138467 0)
(8.3472 -0.0180229 0)
(8.35147 -0.0228849 0)
(8.35616 -0.0284838 0)
(8.36124 -0.0348686 0)
(8.3667 -0.0420879 0)
(8.3725 -0.0501918 0)
(8.37864 -0.0592332 0)
(8.38509 -0.0692695 0)
(8.39185 -0.0803628 0)
(8.39888 -0.0925788 0)
(8.40618 -0.105986 0)
(8.4137 -0.120655 0)
(8.42144 -0.13666 0)
(8.42936 -0.15408 0)
(8.43744 -0.173014 0)
(8.44569 -0.193579 0)
(8.45409 -0.21592 0)
(8.46263 -0.240208 0)
(8.47125 -0.266625 0)
(8.47987 -0.29535 0)
(8.48836 -0.326539 0)
(8.49651 -0.360307 0)
(8.50409 -0.396717 0)
(8.5108 -0.435773 0)
(8.51633 -0.477417 0)
(8.52029 -0.521543 0)
(8.52246 -0.567973 0)
(8.33306 -0.00105048 0)
(8.33367 -0.00328392 0)
(8.33501 -0.00577513 0)
(8.33696 -0.00864451 0)
(8.33946 -0.0119829 0)
(8.34246 -0.0158679 0)
(8.34591 -0.0203674 0)
(8.34978 -0.0255408 0)
(8.35402 -0.0314422 0)
(8.3586 -0.038123 0)
(8.3635 -0.0456339 0)
(8.36869 -0.0540265 0)
(8.37415 -0.0633543 0)
(8.37985 -0.0736739 0)
(8.38578 -0.0850451 0)
(8.39191 -0.0975303 0)
(8.3982 -0.111194 0)
(8.40462 -0.126105 0)
(8.41114 -0.142336 0)
(8.41772 -0.159972 0)
(8.42434 -0.179113 0)
(8.43098 -0.19988 0)
(8.43762 -0.222415 0)
(8.44424 -0.24687 0)
(8.4508 -0.273399 0)
(8.45719 -0.302135 0)
(8.46331 -0.33318 0)
(8.46895 -0.366589 0)
(8.47389 -0.402366 0)
(8.47787 -0.440461 0)
(8.48059 -0.480774 0)
(8.48171 -0.523167 0)
(8.48103 -0.567452 0)
(8.33305 -0.00123139 0)
(8.33361 -0.00382635 0)
(8.33482 -0.006672 0)
(8.33658 -0.00988349 0)
(8.33882 -0.0135488 0)
(8.34152 -0.0177452 0)
(8.34462 -0.0225411 0)
(8.34808 -0.0279976 0)
(8.35186 -0.0341705 0)
(8.35593 -0.0411127 0)
(8.36026 -0.0488763 0)
(8.36482 -0.0575134 0)
(8.36958 -0.0670772 0)
(8.37452 -0.0776227 0)
(8.37961 -0.0892066 0)
(8.38481 -0.101887 0)
(8.39008 -0.115724 0)
(8.39539 -0.130782 0)
(8.40068 -0.147134 0)
(8.40593 -0.164867 0)
(8.41109 -0.184085 0)
(8.41614 -0.204912 0)
(8.42106 -0.227485 0)
(8.42582 -0.251942 0)
(8.43037 -0.278409 0)
(8.43462 -0.306978 0)
(8.43846 -0.3377 0)
(8.44171 -0.370573 0)
(8.44417 -0.405547 0)
(8.44558 -0.442523 0)
(8.44569 -0.481366 0)
(8.44421 -0.521911 0)
(8.44093 -0.563966 0)
(8.33305 -0.00139902 0)
(8.33355 -0.00432794 0)
(8.33462 -0.00749954 0)
(8.33619 -0.0110247 0)
(8.33819 -0.0149887 0)
(8.34058 -0.0194677 0)
(8.34332 -0.0245304 0)
(8.34637 -0.0302384 0)
(8.34969 -0.0366482 0)
(8.35324 -0.0438137 0)
(8.35699 -0.0517872 0)
(8.36091 -0.0606206 0)
(8.36497 -0.0703662 0)
(8.36913 -0.0810765 0)
(8.37337 -0.0928044 0)
(8.37763 -0.105603 0)
(8.38188 -0.119527 0)
(8.38606 -0.134636 0)
(8.39014 -0.151003 0)
(8.39406 -0.168715 0)
(8.39779 -0.18788 0)
(8.40129 -0.208626 0)
(8.40453 -0.231087 0)
(8.40749 -0.255387 0)
(8.41011 -0.281626 0)
(8.41231 -0.309859 0)
(8.41399 -0.34009 0)
(8.41498 -0.372265 0)
(8.4151 -0.406284 0)
(8.41414 -0.442007 0)
(8.41185 -0.479266 0)
(8.40797 -0.517878 0)
(8.40236 -0.55765 0)
(8.33304 -0.00155235 0)
(8.33348 -0.00478592 0)
(8.33443 -0.00825339 0)
(8.33581 -0.0120619 0)
(8.33756 -0.016294 0)
(8.33964 -0.0210244 0)
(8.34202 -0.026321 0)
(8.34466 -0.0322452 0)
(8.34751 -0.0388538 0)
(8.35054 -0.0462006 0)
(8.35371 -0.0543374 0)
(8.35698 -0.0633152 0)
(8.36033 -0.0731845 0)
(8.36371 -0.083995 0)
(8.36708 -0.095795 0)
(8.37041 -0.108632 0)
(8.37363 -0.122555 0)
(8.37671 -0.13762 0)
(8.37958 -0.153895 0)
(8.38221 -0.17147 0)
(8.38453 -0.190458 0)
(8.38652 -0.210987 0)
(8.38815 -0.233189 0)
(8.38938 -0.257179 0)
(8.39016 -0.283033 0)
(8.39042 -0.310771 0)
(8.39006 -0.340355 0)
(8.38893 -0.371684 0)
(8.38688 -0.404615 0)
(8.38371 -0.438969 0)
(8.37921 -0.474554 0)
(8.37317 -0.511174 0)
(8.36545 -0.548637 0)
(8.33304 -0.00169045 0)
(8.33342 -0.00519754 0)
(8.33424 -0.00892923 0)
(8.33543 -0.012989 0)
(8.33693 -0.0174567 0)
(8.33871 -0.022405 0)
(8.34073 -0.0279004 0)
(8.34296 -0.0340035 0)
(8.34534 -0.0407703 0)
(8.34784 -0.0482537 0)
(8.35043 -0.0565045 0)
(8.35305 -0.0655722 0)
(8.35568 -0.0755048 0)
(8.35828 -0.0863484 0)
(8.36079 -0.0981467 0)
(8.36318 -0.110941 0)
(8.3654 -0.124775 0)
(8.36738 -0.139698 0)
(8.36908 -0.155777 0)
(8.37043 -0.173103 0)
(8.3714 -0.191791 0)
(8.37194 -0.211972 0)
(8.37203 -0.233777 0)
(8.37161 -0.257311 0)
(8.37065 -0.28263 0)
(8.36908 -0.309724 0)
(8.36681 -0.338516 0)
(8.36372 -0.368865 0)
(8.35965 -0.400589 0)
(8.35445 -0.433478 0)
(8.34794 -0.467318 0)
(8.33993 -0.501905 0)
(8.33033 -0.537054 0)
(8.33303 -0.00181237 0)
(8.33335 -0.00556005 0)
(8.33405 -0.00952244 0)
(8.33505 -0.0137994 0)
(8.3363 -0.0184675 0)
(8.33778 -0.0235968 0)
(8.33945 -0.0292521 0)
(8.34126 -0.0354923 0)
(8.34318 -0.0423721 0)
(8.34516 -0.0499431 0)
(8.34715 -0.0582545 0)
(8.34914 -0.0673535 0)
(8.35106 -0.0772854 0)
(8.35287 -0.0880924 0)
(8.35454 -0.0998132 0)
(8.35601 -0.112484 0)
(8.35723 -0.12614 0)
(8.35814 -0.140827 0)
(8.35869 -0.15661 0)
(8.35883 -0.173578 0)
(8.35849 -0.19185 0)
(8.35765 -0.211559 0)
(8.35626 -0.232836 0)
(8.3543 -0.255778 0)
(8.3517 -0.280421 0)
(8.34843 -0.306732 0)
(8.34438 -0.3346 0)
(8.33946 -0.363848 0)
(8.33354 -0.39426 0)
(8.32649 -0.425602 0)
(8.31815 -0.457644 0)
(8.30837 -0.490176 0)
(8.29707 -0.523022 0)
(8.33303 -0.00191725 0)
(8.33329 -0.00587093 0)
(8.33386 -0.0100293 0)
(8.33467 -0.0144886 0)
(8.33569 -0.019322 0)
(8.33687 -0.0245965 0)
(8.33818 -0.030374 0)
(8.33959 -0.0367111 0)
(8.34104 -0.0436602 0)
(8.3425 -0.0512709 0)
(8.34392 -0.0595899 0)
(8.34526 -0.0686618 0)
(8.34648 -0.0785287 0)
(8.34753 -0.0892289 0)
(8.34836 -0.100796 0)
(8.34893 -0.11326 0)
(8.34918 -0.12665 0)
(8.34906 -0.141008 0)
(8.3485 -0.156394 0)
(8.34746 -0.172899 0)
(8.34589 -0.190643 0)
(8.34373 -0.209762 0)
(8.34097 -0.230386 0)
(8.33755 -0.252603 0)
(8.33343 -0.27644 0)
(8.32857 -0.301836 0)
(8.32288 -0.328655 0)
(8.31628 -0.35669 0)
(8.30867 -0.385697 0)
(8.29992 -0.415422 0)
(8.28993 -0.445623 0)
(8.27856 -0.47609 0)
(8.26576 -0.506656 0)
(8.33302 -0.0020041 0)
(8.33323 -0.00612686 0)
(8.33367 -0.0104434 0)
(8.3343 -0.0150454 0)
(8.33507 -0.020002 0)
(8.33596 -0.0253764 0)
(8.33693 -0.0312277 0)
(8.33793 -0.0376102 0)
(8.33893 -0.0445743 0)
(8.33988 -0.0521671 0)
(8.34073 -0.0604331 0)
(8.34145 -0.0694138 0)
(8.34198 -0.0791479 0)
(8.34228 -0.0896693 0)
(8.34231 -0.101007 0)
(8.342 -0.113184 0)
(8.34132 -0.126225 0)
(8.3402 -0.140166 0)
(8.33858 -0.155065 0)
(8.33643 -0.171011 0)
(8.33368 -0.188126 0)
(8.33029 -0.206547 0)
(8.32623 -0.226405 0)
(8.32146 -0.247781 0)
(8.31593 -0.27069 0)
(8.30961 -0.295054 0)
(8.30241 -0.320711 0)
(8.29428 -0.347433 0)
(8.28512 -0.374954 0)
(8.27485 -0.403005 0)
(8.26336 -0.431336 0)
(8.25057 -0.459738 0)
(8.23643 -0.488058 0)
(8.33302 -0.00207225 0)
(8.33317 -0.00632737 0)
(8.33349 -0.0107679 0)
(8.33394 -0.0154818 0)
(8.33448 -0.0205334 0)
(8.33508 -0.0259802 0)
(8.33571 -0.0318764 0)
(8.33633 -0.0382717 0)
(8.33688 -0.0452124 0)
(8.33733 -0.0527424 0)
(8.33762 -0.0609032 0)
(8.33773 -0.0697334 0)
(8.33759 -0.0792681 0)
(8.33717 -0.0895377 0)
(8.33641 -0.100566 0)
(8.33526 -0.112373 0)
(8.33368 -0.124976 0)
(8.33161 -0.138408 0)
(8.32899 -0.152722 0)
(8.32578 -0.168009 0)
(8.32193 -0.18439 0)
(8.3174 -0.202005 0)
(8.31214 -0.22098 0)
(8.30612 -0.241397 0)
(8.2993 -0.263257 0)
(8.29163 -0.28647 0)
(8.28307 -0.310855 0)
(8.27354 -0.336167 0)
(8.26298 -0.362125 0)
(8.25133 -0.388447 0)
(8.2385 -0.414883 0)
(8.22444 -0.441226 0)
(8.20912 -0.467337 0)
(8.33301 -0.00211976 0)
(8.3331 -0.00646192 0)
(8.33329 -0.0109747 0)
(8.33356 -0.0157403 0)
(8.33387 -0.0208182 0)
(8.3342 -0.0262634 0)
(8.3345 -0.0321283 0)
(8.33473 -0.0384608 0)
(8.33486 -0.0453051 0)
(8.33483 -0.0527023 0)
(8.3346 -0.0606903 0)
(8.33412 -0.069304 0)
(8.33334 -0.0785742 0)
(8.33223 -0.0885266 0)
(8.33072 -0.0991802 0)
(8.32878 -0.110549 0)
(8.32635 -0.122646 0)
(8.32338 -0.135498 0)
(8.31982 -0.149158 0)
(8.31563 -0.163712 0)
(8.31075 -0.179282 0)
(8.30515 -0.196008 0)
(8.29879 -0.214015 0)
(8.29162 -0.233378 0)
(8.28362 -0.254094 0)
(8.27474 -0.27606 0)
(8.26492 -0.299083 0)
(8.25414 -0.322907 0)
(8.24232 -0.347238 0)
(8.22943 -0.371793 0)
(8.21541 -0.39632 0)
(8.20022 -0.42062 0)
(8.18386 -0.444565 0)
(8.33301 -0.0021487 0)
(8.33305 -0.00655279 0)
(8.33313 -0.0111347 0)
(8.33323 -0.0159702 0)
(8.33333 -0.0211045 0)
(8.3334 -0.0265777 0)
(8.33338 -0.0324302 0)
(8.33325 -0.0387022 0)
(8.33296 -0.0454332 0)
(8.33246 -0.0526616 0)
(8.33171 -0.0604237 0)
(8.33066 -0.0687529 0)
(8.32927 -0.0776786 0)
(8.32749 -0.0872242 0)
(8.32527 -0.0974061 0)
(8.32257 -0.108234 0)
(8.31934 -0.11972 0)
(8.31553 -0.131886 0)
(8.31109 -0.144782 0)
(8.30598 -0.158492 0)
(8.30016 -0.173139 0)
(8.29358 -0.18886 0)
(8.28621 -0.205778 0)
(8.278 -0.223967 0)
(8.26893 -0.243417 0)
(8.25895 -0.264018 0)
(8.24802 -0.285572 0)
(8.2361 -0.307813 0)
(8.22317 -0.330445 0)
(8.20918 -0.353184 0)
(8.1941 -0.375781 0)
(8.17792 -0.398046 0)
(8.16065 -0.419864 0)
(8.33299 -0.0021456 0)
(8.33295 -0.00651127 0)
(8.33288 -0.0110149 0)
(8.33279 -0.015736 0)
(8.33266 -0.0207289 0)
(8.33247 -0.0260429 0)
(8.33217 -0.0317221 0)
(8.33172 -0.0378043 0)
(8.33106 -0.0443235 0)
(8.33015 -0.051311 0)
(8.32893 -0.0587959 0)
(8.32738 -0.0668044 0)
(8.32542 -0.0753591 0)
(8.32303 -0.0844773 0)
(8.32016 -0.0941696 0)
(8.31676 -0.104441 0)
(8.31279 -0.115298 0)
(8.3082 -0.12676 0)
(8.30295 -0.138872 0)
(8.297 -0.151717 0)
(8.29032 -0.165414 0)
(8.28285 -0.180097 0)
(8.27456 -0.195887 0)
(8.26541 -0.212854 0)
(8.25537 -0.230982 0)
(8.2444 -0.250161 0)
(8.23247 -0.270187 0)
(8.21954 -0.290795 0)
(8.20561 -0.31169 0)
(8.19064 -0.332592 0)
(8.17463 -0.353261 0)
(8.15759 -0.373516 0)
(8.13952 -0.393255 0)
(8.33301 -0.00215037 0)
(8.33297 -0.00660309 0)
(8.33285 -0.0112779 0)
(8.33263 -0.0161956 0)
(8.33231 -0.0213432 0)
(8.33186 -0.0267279 0)
(8.33125 -0.0323773 0)
(8.33044 -0.0383286 0)
(8.32937 -0.0446215 0)
(8.32802 -0.0512954 0)
(8.32633 -0.0583864 0)
(8.32425 -0.0659267 0)
(8.32174 -0.0739427 0)
(8.31876 -0.0824538 0)
(8.31527 -0.091471 0)
(8.31121 -0.100999 0)
(8.30654 -0.111043 0)
(8.30124 -0.121618 0)
(8.29525 -0.132769 0)
(8.28854 -0.144574 0)
(8.28107 -0.157149 0)
(8.2728 -0.170625 0)
(8.26369 -0.18512 0)
(8.25371 -0.200701 0)
(8.24282 -0.217352 0)
(8.23098 -0.234961 0)
(8.21817 -0.253329 0)
(8.20437 -0.272193 0)
(8.18956 -0.291266 0)
(8.17376 -0.310274 0)
(8.15695 -0.328985 0)
(8.13917 -0.34723 0)
(8.12042 -0.364917 0)
(8.33294 -0.00200118 0)
(8.33264 -0.00596555 0)
(8.33221 -0.0100407 0)
(8.33176 -0.0143699 0)
(8.33127 -0.0190151 0)
(8.33069 -0.0240008 0)
(8.32993 -0.0293352 0)
(8.32893 -0.0350237 0)
(8.32763 -0.0410754 0)
(8.32599 -0.0475033 0)
(8.32395 -0.0543223 0)
(8.32147 -0.0615476 0)
(8.31852 -0.0691928 0)
(8.31504 -0.0772675 0)
(8.31099 -0.085776 0)
(8.30635 -0.0947179 0)
(8.30108 -0.104095 0)
(8.29513 -0.11392 0)
(8.28847 -0.124235 0)
(8.28107 -0.135115 0)
(8.2729 -0.14667 0)
(8.2639 -0.159028 0)
(8.25405 -0.172301 0)
(8.2433 -0.186551 0)
(8.23163 -0.201762 0)
(8.219 -0.217826 0)
(8.2054 -0.234548 0)
(8.19082 -0.251675 0)
(8.17525 -0.268931 0)
(8.1587 -0.286056 0)
(8.1412 -0.30283 0)
(8.12278 -0.319099 0)
(8.10346 -0.334783 0)
(8.3331 -0.00224903 0)
(8.33317 -0.00710405 0)
(8.33286 -0.0122486 0)
(8.33227 -0.0174525 0)
(8.33146 -0.0226061 0)
(8.33046 -0.0277363 0)
(8.32925 -0.0329169 0)
(8.32779 -0.0382224 0)
(8.32604 -0.0437194 0)
(8.32394 -0.0494651 0)
(8.32144 -0.0555067 0)
(8.31849 -0.0618809 0)
(8.31505 -0.0686147 0)
(8.31108 -0.0757248 0)
(8.30652 -0.0832183 0)
(8.30135 -0.0910946 0)
(8.29553 -0.0993524 0)
(8.28901 -0.108001 0)
(8.28177 -0.117077 0)
(8.27378 -0.126647 0)
(8.26499 -0.136817 0)
(8.25537 -0.147708 0)
(8.24489 -0.159429 0)
(8.23351 -0.172045 0)
(8.22121 -0.185542 0)
(8.20795 -0.19982 0)
(8.19372 -0.214694 0)
(8.17852 -0.229923 0)
(8.16236 -0.245242 0)
(8.14525 -0.260402 0)
(8.12722 -0.275194 0)
(8.10831 -0.289472 0)
(8.08855 -0.303163 0)
(8.33269 -0.00104057 0)
(8.33157 -0.00307398 0)
(8.33061 -0.00567563 0)
(8.32998 -0.00915021 0)
(8.32945 -0.0133665 0)
(8.32879 -0.0181105 0)
(8.32783 -0.0232359 0)
(8.32653 -0.0286619 0)
(8.3248 -0.0343485 0)
(8.32262 -0.0402794 0)
(8.31993 -0.0464526 0)
(8.31671 -0.0528739 0)
(8.31293 -0.0595522 0)
(8.30856 -0.0664947 0)
(8.30356 -0.0737046 0)
(8.29792 -0.0811813 0)
(8.2916 -0.088926 0)
(8.28457 -0.0969516 0)
(8.2768 -0.105295 0)
(8.26826 -0.114025 0)
(8.25891 -0.123243 0)
(8.24872 -0.133063 0)
(8.23765 -0.143591 0)
(8.22567 -0.154885 0)
(8.21276 -0.166934 0)
(8.1989 -0.179642 0)
(8.18409 -0.192835 0)
(8.16832 -0.206289 0)
(8.15163 -0.219755 0)
(8.13402 -0.233004 0)
(8.11555 -0.245847 0)
(8.09623 -0.258155 0)
(8.07611 -0.269869 0)
(8.33341 -0.0032526 0)
(8.33383 -0.0108078 0)
(8.33292 -0.0178659 0)
(8.33134 -0.0236649 0)
(8.32966 -0.028473 0)
(8.32798 -0.0327221 0)
(8.3262 -0.0367078 0)
(8.32423 -0.0406209 0)
(8.32196 -0.0445989 0)
(8.31932 -0.04874 0)
(8.31625 -0.0531094 0)
(8.31269 -0.0577479 0)
(8.30859 -0.0626782 0)
(8.30391 -0.0679086 0)
(8.29861 -0.073435 0)
(8.29265 -0.0792447 0)
(8.28601 -0.0853232 0)
(8.27865 -0.0916659 0)
(8.27053 -0.0982924 0)
(8.26164 -0.105257 0)
(8.25195 -0.11265 0)
(8.24143 -0.120584 0)
(8.23005 -0.129168 0)
(8.2178 -0.138474 0)
(8.20465 -0.148504 0)
(8.19059 -0.15918 0)
(8.17561 -0.17034 0)
(8.15971 -0.181767 0)
(8.14289 -0.193221 0)
(8.12516 -0.204472 0)
(8.10655 -0.21533 0)
(8.08709 -0.225667 0)
(8.06682 -0.235427 0)
(8.33169 0.00274181 0)
(8.32847 0.00741409 0)
(8.32767 0.0082418 0)
(8.32806 0.00537832 0)
(8.32826 0.000645827 0)
(8.32788 -0.00483074 0)
(8.32692 -0.0106113 0)
(8.32539 -0.0165011 0)
(8.32327 -0.0224017 0)
(8.32057 -0.0282769 0)
(8.31728 -0.0341281 0)
(8.31341 -0.0399744 0)
(8.30894 -0.0458392 0)
(8.30387 -0.0517439 0)
(8.29819 -0.0577044 0)
(8.29187 -0.0637309 0)
(8.28491 -0.0698328 0)
(8.27728 -0.0760285 0)
(8.26894 -0.0823574 0)
(8.25988 -0.0888874 0)
(8.25004 -0.0957141 0)
(8.23941 -0.102946 0)
(8.22793 -0.11068 0)
(8.21559 -0.118969 0)
(8.20236 -0.1278 0)
(8.18821 -0.137081 0)
(8.17313 -0.146652 0)
(8.15713 -0.156307 0)
(8.14019 -0.16583 0)
(8.12233 -0.175024 0)
(8.10357 -0.183743 0)
(8.08396 -0.191903 0)
(8.06354 -0.199487 0)
(8.33417 -0.00748368 0)
(8.33356 -0.0239204 0)
(8.32827 -0.0356395 0)
(8.32323 -0.0413014 0)
(8.32019 -0.0440731 0)
(8.31823 -0.0457479 0)
(8.31655 -0.0469314 0)
(8.31484 -0.0480049 0)
(8.31292 -0.0492242 0)
(8.31067 -0.0507181 0)
(8.308 -0.0525428 0)
(8.30484 -0.0547169 0)
(8.30115 -0.0572346 0)
(8.29689 -0.0600736 0)
(8.29204 -0.0631982 0)
(8.28657 -0.0665642 0)
(8.28046 -0.0701257 0)
(8.27369 -0.0738476 0)
(8.26626 -0.0777218 0)
(8.25816 -0.0817806 0)
(8.24939 -0.0861014 0)
(8.23995 -0.0907959 0)
(8.22981 -0.0959823 0)
(8.21892 -0.101748 0)
(8.20722 -0.108115 0)
(8.1946 -0.115016 0)
(8.18094 -0.122301 0)
(8.16615 -0.129758 0)
(8.15017 -0.137156 0)
(8.13297 -0.144284 0)
(8.11459 -0.150981 0)
(8.09512 -0.15716 0)
(8.07467 -0.1628 0)
(8.32886 0.022103 0)
(8.32207 0.0412923 0)
(8.32585 0.0418626 0)
(8.33084 0.0350355 0)
(8.33241 0.0264946 0)
(8.33234 0.0178163 0)
(8.33174 0.00944211 0)
(8.33075 0.00159976 0)
(8.32941 -0.00564637 0)
(8.3278 -0.0123399 0)
(8.32593 -0.0185602 0)
(8.32381 -0.0243909 0)
(8.32141 -0.0299112 0)
(8.31873 -0.0351894 0)
(8.31574 -0.0402798 0)
(8.31243 -0.045225 0)
(8.30879 -0.0500644 0)
(8.3048 -0.0548454 0)
(8.3004 -0.0596321 0)
(8.29554 -0.0645042 0)
(8.29008 -0.0695426 0)
(8.28384 -0.0748032 0)
(8.27659 -0.08029 0)
(8.26805 -0.0859392 0)
(8.25799 -0.0916221 0)
(8.24621 -0.0971693 0)
(8.23264 -0.102407 0)
(8.21731 -0.107198 0)
(8.20036 -0.111467 0)
(8.18205 -0.115212 0)
(8.16264 -0.1185 0)
(8.14246 -0.121446 0)
(8.12174 -0.124167 0)
(8.32427 -0.0385724 0)
(8.29339 -0.0700636 0)
(8.27029 -0.0749293 0)
(8.26485 -0.0738441 0)
(8.2723 -0.0712327 0)
(8.28517 -0.0678322 0)
(8.29993 -0.064556 0)
(8.31515 -0.0618803 0)
(8.33 -0.0598979 0)
(8.34403 -0.0586039 0)
(8.35704 -0.0579634 0)
(8.36896 -0.0579138 0)
(8.37976 -0.0583776 0)
(8.38944 -0.0592709 0)
(8.39798 -0.0605057 0)
(8.40533 -0.0619904 0)
(8.41143 -0.0636294 0)
(8.41616 -0.0653238 0)
(8.41931 -0.0669721 0)
(8.42064 -0.0684776 0)
(8.41981 -0.0697608 0)
(8.41645 -0.0707779 0)
(8.41021 -0.0715374 0)
(8.40085 -0.0721082 0)
(8.38833 -0.0726128 0)
(8.37282 -0.073204 0)
(8.35473 -0.0740324 0)
(8.33468 -0.0752141 0)
(8.31337 -0.0768096 0)
(8.29148 -0.0788153 0)
(8.26959 -0.081177 0)
(8.24815 -0.0837927 0)
(8.22728 -0.0865751 0)
(8.34002 0.156812 0)
(8.3813 0.148555 0)
(8.40091 0.102307 0)
(8.3947 0.0629857 0)
(8.37426 0.033285 0)
(8.3461 0.0115363 0)
(8.31292 -0.00443714 0)
(8.27658 -0.0164805 0)
(8.2382 -0.0258349 0)
(8.19836 -0.0333185 0)
(8.15736 -0.0394864 0)
(8.11536 -0.0447092 0)
(8.07248 -0.049226 0)