/*--------------------------------*- C++ -*----------------------------------*\
| =========                 |                                                 |
| \\      /  F ield         | OpenFOAM: The Open Source CFD Toolbox           |
|  \\    /   O peration     | Version:  2.1.1                                 |
|   \\  /    A nd           | Web:      www.OpenFOAM.org                      |
|    \\/     M anipulation  |                                                 |
\*---------------------------------------------------------------------------*/
FoamFile
{
    version     2.0;
    format      ascii;
    class       volScalarField;
    location    "0.1";
    object      nuSgs;
}
// * * * * * * * * * * * * * * * * * * * * * * * * * * * * * * * * * * * * * //

dimensions      [0 2 -1 0 0 0 0];

internalField   nonuniform List<scalar> 
6820
(
0.000556015
0.000457436
0.000368216
0.000306258
0.000269119
0.000243555
0.000224753
0.000210383
0.000198786
0.000189054
0.000180673
0.000173313
0.000166753
0.000160838
0.000155458
0.000150529
0.000145986
0.000141782
0.000137878
0.000134243
0.000130852
0.000127686
0.000124731
0.000121973
0.000119401
0.000117004
0.000114774
0.000112705
0.000110784
0.000109026
0.000107391
0.000105801
0.000103793
0.000103489
0.000170643
0.000223625
0.000240006
0.000235273
0.000224937
0.000213269
0.00020201
0.000191798
0.00018265
0.000174447
0.000167055
0.000160349
0.000154228
0.000148607
0.000143417
0.000138601
0.000134113
0.000129912
0.000125966
0.000122245
0.000118727
0.000115394
0.000112226
0.00010921
0.000106335
0.000103593
0.000100971
9.84812e-05
9.60695e-05
9.38919e-05
9.15581e-05
9.05567e-05
3.67769e-05
2.8488e-05
4.5579e-05
8.22266e-05
0.00010785
0.000123444
0.000131885
0.00013576
0.000136894
0.000136354
0.000134779
0.000132564
0.000129957
0.00012712
0.00012416
0.000121146
0.000118125
0.000115129
0.000112177
0.000109283
0.000106455
0.000103698
0.000101011
9.83961e-05
9.58512e-05
9.33765e-05
9.09692e-05
8.86262e-05
8.63529e-05
8.41356e-05
8.20092e-05
7.98627e-05
7.79146e-05
2.07372e-05
2.8695e-05
2.65824e-05
1.51338e-05
3.68457e-06
1.37507e-05
2.55498e-05
3.53563e-05
4.32712e-05
4.95684e-05
5.45219e-05
5.83741e-05
6.13255e-05
6.35318e-05
6.51243e-05
6.62113e-05
6.68813e-05
6.72069e-05
6.72475e-05
6.7052e-05
6.66602e-05
6.61047e-05
6.54123e-05
6.46065e-05
6.3706e-05
6.2725e-05
6.1676e-05
6.05658e-05
5.9406e-05
5.82025e-05
5.69805e-05
5.57519e-05
5.46263e-05
1.44179e-05
1.7599e-05
2.26163e-05
2.43082e-05
2.39861e-05
2.20236e-05
1.91589e-05
1.59285e-05
1.25629e-05
9.20996e-06
5.97729e-06
2.95289e-06
7.70799e-07
2.76608e-06
5.11711e-06
7.26523e-06
9.19191e-06
1.0902e-05
1.24059e-05
1.37157e-05
1.48442e-05
1.5804e-05
1.6607e-05
1.72648e-05
1.77878e-05
1.81863e-05
1.84704e-05
1.86526e-05
1.87427e-05
1.87489e-05
1.86838e-05
1.85682e-05
1.84023e-05
1.0916e-05
1.25143e-05
1.38427e-05
1.43443e-05
1.5117e-05
1.57441e-05
1.61123e-05
1.63157e-05
1.63585e-05
1.62458e-05
1.60012e-05
1.56477e-05
1.52083e-05
1.4698e-05
1.41346e-05
1.35354e-05
1.29156e-05
1.2288e-05
1.16636e-05
1.10511e-05
1.04577e-05
9.88934e-06
9.3505e-06
8.84451e-06
8.37386e-06
7.93969e-06
7.54201e-06
7.17858e-06
6.84728e-06
6.54765e-06
6.27917e-06
6.04195e-06
5.8585e-06
8.23811e-06
9.44473e-06
1.02732e-05
1.00715e-05
9.87798e-06
9.69354e-06
9.50237e-06
9.4078e-06
9.39951e-06
9.43385e-06
9.48428e-06
9.53338e-06
9.56977e-06
9.59138e-06
9.59612e-06
9.58301e-06
9.55223e-06
9.50477e-06
9.44204e-06
9.36569e-06
9.27744e-06
9.17907e-06
9.07222e-06
8.9585e-06
8.83877e-06
8.71554e-06
8.58877e-06
8.46299e-06
8.34043e-06
8.22341e-06
8.11531e-06
8.02434e-06
7.97263e-06
6.35196e-06
7.42514e-06
8.24401e-06
8.1101e-06
7.79929e-06
7.45832e-06
7.07942e-06
6.75455e-06
6.50277e-06
6.30345e-06
6.14392e-06
6.01538e-06
5.90917e-06
5.81885e-06
5.74033e-06
5.67072e-06
5.60774e-06
5.54963e-06
5.4951e-06
5.44317e-06
5.39316e-06
5.34462e-06
5.2973e-06
5.25112e-06
5.20626e-06
5.16322e-06
5.12371e-06
5.08857e-06
5.05901e-06
5.03837e-06
5.03184e-06
5.04799e-06
5.10668e-06
4.98914e-06
5.87383e-06
6.57119e-06
6.56978e-06
6.40305e-06
6.19569e-06
5.91313e-06
5.62844e-06
5.38039e-06
5.16539e-06
4.97873e-06
4.81711e-06
4.6758e-06
4.55077e-06
4.4393e-06
4.33936e-06
4.24937e-06
4.16817e-06
4.09488e-06
4.02889e-06
3.96971e-06
3.91703e-06
3.87067e-06
3.83047e-06
3.79677e-06
3.76943e-06
3.74899e-06
3.73662e-06
3.73414e-06
3.74479e-06
3.77349e-06
3.82679e-06
3.92109e-06
3.98121e-06
4.72055e-06
5.33905e-06
5.41728e-06
5.31794e-06
5.17128e-06
4.95639e-06
4.72923e-06
4.52797e-06
4.35196e-06
4.19682e-06
4.06047e-06
3.93997e-06
3.83247e-06
3.73607e-06
3.64942e-06
3.57153e-06
3.50161e-06
3.43911e-06
3.38359e-06
3.33476e-06
3.29245e-06
3.25657e-06
3.22719e-06
3.20442e-06
3.18877e-06
3.18098e-06
3.18222e-06
3.19419e-06
3.2197e-06
3.26286e-06
3.3278e-06
3.42758e-06
3.21939e-06
3.84563e-06
4.39601e-06
4.51772e-06
4.46848e-06
4.37208e-06
4.2145e-06
4.03361e-06
3.86467e-06
3.71229e-06
3.57528e-06
3.45377e-06
3.34651e-06
3.25156e-06
3.1674e-06
3.09286e-06
3.02694e-06
2.96886e-06
2.91801e-06
2.87396e-06
2.83641e-06
2.80517e-06
2.78022e-06
2.76162e-06
2.74965e-06
2.74477e-06
2.74769e-06
2.75948e-06
2.78172e-06
2.81665e-06
2.86735e-06
2.93585e-06
3.03267e-06
2.63062e-06
3.16751e-06
3.66726e-06
3.82584e-06
3.82366e-06
3.76693e-06
3.64988e-06
3.50183e-06
3.35643e-06
3.22237e-06
3.10041e-06
2.99145e-06
2.8951e-06
2.81e-06
2.73494e-06
2.66895e-06
2.61122e-06
2.56107e-06
2.51797e-06
2.48153e-06
2.45149e-06
2.42766e-06
2.41e-06
2.39858e-06
2.39363e-06
2.39557e-06
2.40501e-06
2.42288e-06
2.45037e-06
2.48902e-06
2.54088e-06
2.60641e-06
2.69434e-06
2.16528e-06
2.63398e-06
3.09624e-06
3.28117e-06
3.31551e-06
3.29008e-06
3.20731e-06
3.09049e-06
2.96909e-06
2.85339e-06
2.74557e-06
2.64745e-06
2.55967e-06
2.48175e-06
2.41299e-06
2.35277e-06
2.30048e-06
2.25557e-06
2.21756e-06
2.18609e-06
2.16088e-06
2.14174e-06
2.12859e-06
2.12147e-06
2.12054e-06
2.1261e-06
2.13862e-06
2.15873e-06
2.18725e-06
2.22512e-06
2.27361e-06
2.33223e-06
2.40848e-06
1.78981e-06
2.2076e-06
2.64187e-06
2.84745e-06
2.91336e-06
2.91568e-06
2.86181e-06
2.77104e-06
2.66932e-06
2.56833e-06
2.47188e-06
2.38267e-06
2.30208e-06
2.2302e-06
2.16669e-06
2.11113e-06
2.06303e-06
2.02193e-06
1.98741e-06
1.95914e-06
1.93684e-06
1.92032e-06
1.90949e-06
1.90433e-06
1.90492e-06
1.91145e-06
1.92422e-06
1.94361e-06
1.97011e-06
2.0042e-06
2.04659e-06
2.0962e-06
2.15964e-06
1.48077e-06
1.86221e-06
2.2763e-06
2.49856e-06
2.5907e-06
2.6161e-06
2.58573e-06
2.51694e-06
2.43274e-06
2.34528e-06
2.25942e-06
2.17835e-06
2.10395e-06
2.03685e-06
1.97708e-06
1.92447e-06
1.87874e-06
1.83956e-06
1.80661e-06
1.77959e-06
1.75826e-06
1.74242e-06
1.73193e-06
1.72674e-06
1.72684e-06
1.73231e-06
1.74326e-06
1.75989e-06
1.78238e-06
1.81089e-06
1.84574e-06
1.88559e-06
1.93634e-06
1.22156e-06
1.5792e-06
1.97936e-06
2.21537e-06
2.32966e-06
2.3752e-06
2.36509e-06
2.31537e-06
2.24644e-06
2.17049e-06
2.09326e-06
2.01851e-06
1.94863e-06
1.88475e-06
1.82725e-06
1.77621e-06
1.7315e-06
1.69291e-06
1.66017e-06
1.63303e-06
1.61124e-06
1.59462e-06
1.58298e-06
1.57623e-06
1.57428e-06
1.5771e-06
1.58468e-06
1.59704e-06
1.61417e-06
1.636e-06
1.66264e-06
1.69263e-06
1.73136e-06
1.00024e-06
1.34528e-06
1.73684e-06
1.98446e-06
2.11751e-06
2.18047e-06
2.18748e-06
2.15379e-06
2.09786e-06
2.03174e-06
1.96182e-06
1.8923e-06
1.82598e-06
1.76432e-06
1.70802e-06
1.65737e-06
1.61241e-06
1.57306e-06
1.53913e-06
1.51042e-06
1.48674e-06
1.46788e-06
1.45369e-06
1.444e-06
1.43868e-06
1.43763e-06
1.44073e-06
1.44789e-06
1.45895e-06
1.47373e-06
1.49219e-06
1.51287e-06
1.54072e-06
8.08272e-07
1.15121e-06
1.53864e-06
1.79619e-06
1.94507e-06
2.02312e-06
2.04483e-06
2.0249e-06
1.98019e-06
1.92244e-06
1.85849e-06
1.79292e-06
1.72885e-06
1.66811e-06
1.6117e-06
1.56014e-06
1.51366e-06
1.47228e-06
1.43593e-06
1.40446e-06
1.3777e-06
1.35547e-06
1.3376e-06
1.32391e-06
1.31423e-06
1.30839e-06
1.30622e-06
1.30753e-06
1.31212e-06
1.31971e-06
1.33021e-06
1.34223e-06
1.36036e-06
6.39817e-07
9.90962e-07
1.37786e-06
1.64381e-06
1.80598e-06
1.89702e-06
1.93127e-06
1.92293e-06
1.88762e-06
1.83672e-06
1.77739e-06
1.71455e-06
1.65161e-06
1.59072e-06
1.53314e-06
1.47959e-06
1.43048e-06
1.38595e-06
1.34602e-06
1.31063e-06
1.27966e-06
1.25298e-06
1.23041e-06
1.2118e-06
1.19695e-06
1.18568e-06
1.17778e-06
1.17303e-06
1.17119e-06
1.17196e-06
1.17523e-06
1.1797e-06
1.18958e-06
4.91914e-07
8.61387e-07
1.24996e-06
1.52276e-06
1.69586e-06
1.79791e-06
1.84278e-06
1.84417e-06
1.81668e-06
1.77134e-06
1.71549e-06
1.65433e-06
1.59151e-06
1.52946e-06
1.46967e-06
1.4131e-06
1.36029e-06
1.31154e-06
1.26697e-06
1.22661e-06
1.1904e-06
1.15824e-06
1.13001e-06
1.10557e-06
1.08475e-06
1.06735e-06
1.05318e-06
1.04201e-06
1.0336e-06
1.02768e-06
1.02412e-06
1.02177e-06
1.02454e-06
3.66228e-07
7.62045e-07
1.15239e-06
1.43016e-06
1.6119e-06
1.72306e-06
1.77676e-06
1.78613e-06
1.7649e-06
1.72375e-06
1.67012e-06
1.60943e-06
1.54556e-06
1.48119e-06
1.41806e-06
1.35731e-06
1.29967e-06
1.24557e-06
1.19526e-06
1.14885e-06
1.10638e-06
1.06782e-06
1.03311e-06
1.00215e-06
9.74823e-07
9.50987e-07
9.30467e-07
9.1308e-07
8.98605e-07
8.86799e-07
8.7757e-07
8.69847e-07
8.67233e-07
2.74667e-07
6.94823e-07
1.08411e-06
1.36444e-06
1.55255e-06
1.671e-06
1.7319e-06
1.74773e-06
1.73148e-06
1.69349e-06
1.64123e-06
1.58028e-06
1.51474e-06
1.44746e-06
1.38039e-06
1.31485e-06
1.25172e-06
1.19154e-06
1.13468e-06
1.08134e-06
1.03165e-06
9.85654e-07
9.43377e-07
9.04801e-07
8.69884e-07
8.38563e-07
8.10744e-07
7.86324e-07
7.65159e-07
7.4709e-07
7.32081e-07
7.19202e-07
7.1185e-07
2.46289e-07
6.62958e-07
1.04513e-06
1.32509e-06
1.51721e-06
1.64106e-06
1.70746e-06
1.72809e-06
1.71525e-06
1.67892e-06
1.62659e-06
1.56398e-06
1.49535e-06
1.42379e-06
1.35145e-06
1.27984e-06
1.20998e-06
1.14258e-06
1.07809e-06
1.01683e-06
9.5902e-07
9.04793e-07
8.54261e-07
8.07509e-07
7.64601e-07
7.25595e-07
6.90524e-07
6.59416e-07
6.32254e-07
6.09006e-07
5.89706e-07
5.73579e-07
5.63732e-07
2.9782e-07
6.69108e-07
1.03622e-06
1.31249e-06
1.50638e-06
1.63404e-06
1.70474e-06
1.72928e-06
1.71932e-06
1.68446e-06
1.63213e-06
1.5681e-06
1.49676e-06
1.42132e-06
1.34407e-06
1.26666e-06
1.19022e-06
1.11555e-06
1.04321e-06
9.73573e-07
9.06928e-07
8.43488e-07
7.8343e-07
7.2692e-07
6.74128e-07
6.25242e-07
5.80464e-07
5.40036e-07
5.0419e-07
4.732e-07
4.47368e-07
4.26302e-07
4.13094e-07
4.03207e-07
7.13446e-07
1.05834e-06
1.32758e-06
1.5208e-06
1.65019e-06
1.72309e-06
1.74927e-06
1.73976e-06
1.70391e-06
1.64913e-06
1.58132e-06
1.50507e-06
1.42376e-06
1.3399e-06
1.25526e-06
1.17112e-06
1.08835e-06
1.00759e-06
9.29249e-07
8.5365e-07
7.81028e-07
7.11583e-07
6.45513e-07
5.83037e-07
5.2443e-07
4.70038e-07
4.2034e-07
3.75916e-07
3.37576e-07
3.06237e-07
2.82395e-07
2.69457e-07
5.38335e-07
7.93796e-07
1.11249e-06
1.37226e-06
1.56345e-06
1.69423e-06
1.76984e-06
1.79891e-06
1.79174e-06
1.75721e-06
1.70251e-06
1.63348e-06
1.55472e-06
1.46975e-06
1.38119e-06
1.29096e-06
1.20046e-06
1.1107e-06
1.0224e-06
9.36039e-07
8.51979e-07
7.70458e-07
6.9165e-07
6.15692e-07
5.42702e-07
4.72811e-07
4.06179e-07
3.43068e-07
2.83847e-07
2.29346e-07
1.80872e-07
1.41305e-07
1.18004e-07
6.95721e-07
9.08394e-07
1.20059e-06
1.44873e-06
1.63499e-06
1.7634e-06
1.83697e-06
1.86342e-06
1.85275e-06
1.81386e-06
1.75405e-06
1.67936e-06
1.59457e-06
1.50333e-06
1.40837e-06
1.31168e-06
1.21474e-06
1.11857e-06
1.02393e-06
9.31326e-07
8.4112e-07
7.53564e-07
6.68832e-07
5.8705e-07
5.08312e-07
4.32693e-07
3.60251e-07
2.91069e-07
2.25185e-07
1.62888e-07
1.04334e-07
5.31372e-08
3.11562e-08
8.7543e-07
1.0556e-06
1.32383e-06
1.56141e-06
1.7456e-06
1.87698e-06
1.95585e-06
1.98805e-06
1.98241e-06
1.94709e-06
1.88903e-06
1.81423e-06
1.72765e-06
1.63323e-06
1.53402e-06
1.43234e-06
1.32997e-06
1.2282e-06
1.128e-06
1.03008e-06
9.34973e-07
8.43084e-07
7.54755e-07
6.70294e-07
5.90021e-07
5.14311e-07
4.43649e-07
3.78754e-07
3.20614e-07
2.70933e-07
2.31588e-07
2.06374e-07
1.93746e-07
1.08326e-06
1.24146e-06
1.48991e-06
1.71375e-06
1.88682e-06
2.0077e-06
2.07594e-06
2.09783e-06
2.08296e-06
2.03983e-06
1.97541e-06
1.89554e-06
1.80496e-06
1.70737e-06
1.60562e-06
1.50191e-06
1.39793e-06
1.29498e-06
1.19407e-06
1.09601e-06
1.00146e-06
9.11002e-07
8.25159e-07
7.44463e-07
6.69478e-07
6.00841e-07
5.39269e-07
4.8559e-07
4.40629e-07
4.05264e-07
3.79755e-07
3.6493e-07
3.57324e-07
1.32376e-06
1.4625e-06
1.69682e-06
1.91958e-06
2.10365e-06
2.24236e-06
2.32895e-06
2.36581e-06
2.36098e-06
2.32278e-06
2.25877e-06
2.17579e-06
2.07967e-06
1.97505e-06
1.86557e-06
1.75402e-06
1.64253e-06
1.53268e-06
1.4257e-06
1.32249e-06
1.22379e-06
1.13017e-06
1.04216e-06
9.60219e-07
8.84772e-07
8.16237e-07
7.54989e-07
7.01366e-07
6.55555e-07
6.17723e-07
5.87441e-07
5.65227e-07
5.47237e-07
1.61768e-06
1.75388e-06
1.97545e-06
2.17097e-06
2.31972e-06
2.42375e-06
2.48204e-06
2.49988e-06
2.48537e-06
2.44497e-06
2.38378e-06
2.30653e-06
2.21741e-06
2.12003e-06
2.01741e-06
1.9121e-06
1.80621e-06
1.70147e-06
1.59925e-06
1.50068e-06
1.40662e-06
1.31779e-06
1.23474e-06
1.1579e-06
1.08759e-06
1.02403e-06
9.67317e-07
9.17456e-07
8.74296e-07
8.37646e-07
8.06938e-07
7.82409e-07
7.60841e-07
1.95725e-06
2.06994e-06
2.30295e-06
2.54923e-06
2.7668e-06
2.93248e-06
3.03077e-06
3.06575e-06
3.05066e-06
2.99789e-06
2.91773e-06
2.81881e-06
2.70793e-06
2.59011e-06
2.469e-06
2.34727e-06
2.22687e-06
2.10922e-06
1.99538e-06
1.88613e-06
1.78207e-06
1.68366e-06
1.59121e-06
1.50495e-06
1.42502e-06
1.35146e-06
1.28424e-06
1.22324e-06
1.16825e-06
1.11909e-06
1.07517e-06
1.03696e-06
1.00087e-06
2.43686e-06
2.58264e-06
2.76316e-06
2.88548e-06
2.98046e-06
3.06891e-06
3.14003e-06
3.18522e-06
3.20202e-06
3.18939e-06
3.14863e-06
3.08365e-06
2.9994e-06
2.90076e-06
2.79222e-06
2.67766e-06
2.56028e-06
2.44263e-06
2.32667e-06
2.21387e-06
2.1053e-06
2.00172e-06
1.9036e-06
1.81122e-06
1.7247e-06
1.644e-06
1.569e-06
1.49949e-06
1.43521e-06
1.37596e-06
1.3213e-06
1.27172e-06
1.22425e-06
2.9115e-06
3.0092e-06
3.3786e-06
3.77337e-06
4.07077e-06
4.24729e-06
4.31141e-06
4.29376e-06
4.22402e-06
4.1203e-06
3.99375e-06
3.85235e-06
3.70167e-06
3.5456e-06
3.38718e-06
3.22894e-06
3.073e-06
2.92113e-06
2.77472e-06
2.63483e-06
2.50224e-06
2.3774e-06
2.26055e-06
2.15168e-06
2.05063e-06
1.95707e-06
1.87058e-06
1.79066e-06
1.71678e-06
1.64853e-06
1.58528e-06
1.52779e-06
1.47252e-06
3.94873e-06
4.04413e-06
3.94064e-06
3.84708e-06
3.93434e-06
4.13385e-06
4.32103e-06
4.44434e-06
4.49946e-06
4.49584e-06
4.44992e-06
4.37974e-06
4.29979e-06
4.21991e-06
4.14594e-06
4.08062e-06
4.02447e-06
3.9767e-06
3.9359e-06
3.90045e-06
3.86884e-06
3.83972e-06
3.812e-06
3.7848e-06
3.75742e-06
3.72929e-06
3.69996e-06
3.66905e-06
3.6363e-06
3.60169e-06
3.56523e-06
3.52872e-06
3.48971e-06
4.40466e-06
4.95539e-06
5.91165e-06
6.37837e-06
6.47784e-06
6.43938e-06
6.41928e-06
6.52338e-06
6.78051e-06
7.15662e-06
7.5996e-06
8.06323e-06
8.51264e-06
8.92476e-06
9.28657e-06
9.59235e-06
9.84116e-06
1.00351e-05
1.0178e-05
1.02747e-05
1.03303e-05
1.03497e-05
1.03377e-05
1.02987e-05
1.02365e-05
1.01544e-05
1.0055e-05
9.94049e-06
9.81276e-06
9.67294e-06
9.52268e-06
9.36448e-06
9.19862e-06
7.59358e-06
5.84183e-06
4.60123e-06
6.17275e-06
8.9035e-06
1.16158e-05
1.39486e-05
1.58404e-05
1.72901e-05
1.83124e-05
1.89448e-05
1.92361e-05
1.9237e-05
1.89975e-05
1.85656e-05
1.79845e-05
1.72923e-05
1.65216e-05
1.56994e-05
1.48478e-05
1.39845e-05
1.3123e-05
1.22739e-05
1.14447e-05
1.06406e-05
9.86495e-06
9.11935e-06
8.40371e-06
7.7173e-06
7.05603e-06
6.41995e-06
5.79694e-06
5.19808e-06
8.58742e-06
1.47007e-05
1.87857e-05
2.11739e-05
2.22462e-05
2.17537e-05
1.9873e-05
1.70581e-05
1.37808e-05
1.06727e-05
8.77078e-06
9.17913e-06
1.15936e-05
1.48843e-05
1.83723e-05
2.17639e-05
2.49329e-05
2.78258e-05
3.04249e-05
3.27311e-05
3.47558e-05
3.65157e-05
3.80305e-05
3.93207e-05
4.04067e-05
4.13084e-05
4.20448e-05
4.26346e-05
4.30958e-05
4.3451e-05
4.37164e-05
4.39513e-05
4.41458e-05
3.4669e-05
3.72344e-05
4.66808e-05
6.18246e-05
7.75492e-05
9.2961e-05
0.000107355
0.000120024
0.000130779
0.000139665
0.000146795
0.000152334
0.000156472
0.000159395
0.000161281
0.00016229
0.000162564
0.000162228
0.00016139
0.00016014
0.000158557
0.000156706
0.000154642
0.00015241
0.000150047
0.000147585
0.000145048
0.000142454
0.000139821
0.000137154
0.000134454
0.000131812
0.000129236
0.000608464
0.000582502
0.000556839
0.000530318
0.000504242
0.000478937
0.000454446
0.000431043
0.000408912
0.000388113
0.000368662
0.000350545
0.000333713
0.000318098
0.00030362
0.000290195
0.000277738
0.000266164
0.000255393
0.000245351
0.000235968
0.000227183
0.000218937
0.000211179
0.000203863
0.000196948
0.000190394
0.000184167
0.000178227
0.000172552
0.000167011
0.000162143
0.000157722
8.98968e-05
8.1244e-05
7.28295e-05
6.72488e-05
6.4964e-05
6.58332e-05
6.86712e-05
7.15775e-05
7.30292e-05
7.27304e-05
7.19178e-05
7.24602e-05
7.50983e-05
7.93345e-05
8.53692e-05
9.59137e-05
9.81144e-05
7.31887e-05
5.68957e-05
5.81647e-05
5.92638e-05
5.78863e-05
5.34123e-05
4.59957e-05
3.69719e-05
2.7805e-05
1.93125e-05
1.16578e-05
5.8652e-06
6.0306e-06
1.20134e-05
1.83076e-05
1.47519e-05
3.87682e-06
7.3068e-06
1.85063e-05
3.4749e-05
4.0737e-05
3.72761e-05
3.12804e-05
2.64995e-05
2.33115e-05
2.12001e-05
1.98103e-05
1.89725e-05
1.87875e-05
1.94522e-05
2.02709e-05
2.28124e-05
3.02674e-05
4.07333e-05
5.54631e-05
6.53816e-05
6.22854e-05
5.11312e-05
3.8605e-05
2.77376e-05
1.87364e-05
1.11578e-05
3.80921e-06
1.24959e-05
3.21611e-05
4.84761e-05
5.26644e-05
4.61491e-05
3.65151e-05
2.88896e-05
2.37215e-05
1.99118e-05
1.68141e-05
1.41959e-05
1.19463e-05
9.98861e-06
8.2707e-06
6.76247e-06
5.44783e-06
4.31579e-06
3.35461e-06
2.55018e-06
1.8875e-06
1.35269e-06
9.35223e-07
6.2884e-07
4.3008e-07
3.30187e-07
2.99323e-07
2.98051e-07
3.06077e-07
3.20811e-07
3.43279e-07
3.70484e-07
3.94789e-07
4.08254e-07
4.03745e-07
3.80702e-07
3.36862e-07
2.85701e-07
2.16056e-07
1.80676e-07
9.84861e-08
0.000116505
0.000111536
0.000103864
9.73102e-05
9.2814e-05
9.00764e-05
8.75242e-05
8.34609e-05
7.71028e-05
6.92418e-05
6.25093e-05
5.96762e-05
6.0934e-05
6.47279e-05
7.02635e-05
8.01321e-05
9.52529e-05
9.11645e-05
6.42067e-05
5.62128e-05
5.7721e-05
5.68182e-05
5.30711e-05
4.66914e-05
3.85382e-05
2.98728e-05
2.16512e-05
1.44792e-05
9.9919e-06
9.62562e-06
1.46547e-05
1.91361e-05
1.1318e-05
4.30563e-06
8.08597e-06
2.21491e-05
3.77457e-05
4.13e-05
3.66629e-05
3.07579e-05
2.63553e-05
2.34241e-05
2.14452e-05
2.01276e-05
1.93585e-05
1.9164e-05
1.98345e-05
2.08799e-05
2.29257e-05
2.94563e-05
3.94854e-05
5.34087e-05
6.54933e-05
6.52613e-05
5.53188e-05
4.26218e-05
3.09652e-05
2.11537e-05
1.33183e-05
8.94607e-06
2.00095e-05
3.93335e-05
5.26665e-05
5.32015e-05
4.48291e-05
3.52494e-05
2.82389e-05
2.3462e-05
1.98497e-05
1.68837e-05
1.43607e-05
1.21668e-05
1.02274e-05
8.50018e-06
6.96684e-06
5.62048e-06
4.45574e-06
3.4637e-06
2.6314e-06
1.9442e-06
1.38865e-06
9.54466e-07
6.35512e-07
4.29534e-07
3.29456e-07
3.03325e-07
3.07129e-07
3.19027e-07
3.36458e-07
3.60369e-07
3.87668e-07
4.10943e-07
4.22672e-07
4.16079e-07
3.90769e-07
3.44571e-07
2.90814e-07
2.19874e-07
1.79482e-07
1.12208e-07
0.000101923
0.000102443
0.00010054
9.72214e-05
9.2973e-05
8.78074e-05
8.10352e-05
7.18716e-05
6.04953e-05
4.90654e-05
4.16434e-05
4.04705e-05
4.29185e-05
4.63775e-05
5.12685e-05
5.98034e-05
7.62683e-05
9.15177e-05
7.86445e-05
5.68442e-05
5.46872e-05
5.50436e-05
5.20984e-05
4.66822e-05
3.95875e-05
3.17829e-05
2.4194e-05
1.77488e-05
1.3848e-05
1.28803e-05
1.75318e-05
1.86644e-05
5.65051e-06
7.78652e-06
9.11295e-06
2.70045e-05
4.06239e-05
4.13828e-05
3.5808e-05
3.01754e-05
2.61898e-05
2.3507e-05
2.16499e-05
2.03964e-05
1.96855e-05
1.95045e-05
2.01184e-05
2.13416e-05
2.3125e-05
2.84854e-05
3.78849e-05
5.07226e-05
6.43647e-05
6.76015e-05
5.97769e-05
4.74953e-05
3.53997e-05
2.5203e-05
1.78203e-05
1.6571e-05
2.91902e-05
4.68306e-05
5.60119e-05
5.27693e-05
4.30156e-05
3.38481e-05
2.75431e-05
2.3188e-05
1.98101e-05
1.69964e-05
1.45695e-05
1.24229e-05
1.04924e-05
8.74922e-06
7.18694e-06
5.8068e-06
4.60815e-06
3.58444e-06
2.72376e-06
2.01167e-06
1.43415e-06
9.80439e-07
6.44754e-07
4.265e-07
3.22304e-07
3.00323e-07
3.10541e-07
3.278e-07
3.48984e-07
3.74989e-07
4.02877e-07
4.25624e-07
4.36228e-07
4.28395e-07
4.02009e-07
3.54965e-07
3.00426e-07
2.30323e-07
1.86948e-07
1.35242e-07
7.16749e-05
7.17806e-05
7.02811e-05
6.74333e-05
6.31662e-05
5.70737e-05
4.87379e-05
3.82048e-05
2.71628e-05
2.05859e-05
2.25442e-05
2.73208e-05
3.01735e-05
3.12801e-05
3.3071e-05
3.86439e-05
5.17581e-05
7.37467e-05
8.40807e-05
6.63624e-05
5.18085e-05
5.19058e-05
5.06485e-05
4.61416e-05
3.99461e-05
3.30955e-05
2.63173e-05
2.06635e-05
1.68191e-05
1.60231e-05
2.02005e-05
1.5262e-05
2.61798e-06
1.04269e-05
1.21729e-05
3.28327e-05
4.28474e-05
4.07555e-05
3.4694e-05
2.95427e-05
2.59903e-05
2.35357e-05
2.17921e-05
2.0604e-05
1.99449e-05
1.97959e-05
2.03373e-05
2.16558e-05
2.34172e-05
2.76634e-05
3.60979e-05
4.76781e-05
6.1904e-05
6.88722e-05
6.42527e-05
5.32807e-05
4.13271e-05
3.12513e-05
2.49073e-05
2.6619e-05
3.98026e-05
5.39724e-05
5.79157e-05
5.11285e-05
4.07277e-05
3.238e-05
2.68434e-05
2.29121e-05
1.97829e-05
1.71329e-05
1.48052e-05
1.27038e-05
1.07792e-05
9.01798e-06
7.4254e-06
6.01026e-06
4.77607e-06
3.71856e-06
2.82691e-06
2.08717e-06
1.48556e-06
1.01144e-06
6.59164e-07
4.29425e-07
3.22171e-07
3.05051e-07
3.21755e-07
3.44115e-07
3.68616e-07
3.962e-07
4.24166e-07
4.45926e-07
4.55012e-07
4.45609e-07
4.17866e-07
3.69897e-07
3.14699e-07
2.46419e-07
2.00715e-07
1.64652e-07
2.4388e-05
2.43599e-05
2.31319e-05
2.06462e-05
1.68433e-05
1.16129e-05
5.27251e-06
5.22242e-06
1.32187e-05
2.05708e-05
2.53341e-05
2.69314e-05
2.60099e-05
2.39823e-05
2.25733e-05
2.38792e-05
3.09646e-05
4.78595e-05
7.06712e-05
7.45218e-05
5.6701e-05
4.73863e-05
4.77327e-05
4.5378e-05
4.0163e-05
3.39838e-05
2.78858e-05
2.28847e-05
1.91263e-05
1.97737e-05
2.06472e-05
6.80917e-06
1.18521e-05
9.47835e-06
1.90761e-05
3.87259e-05
4.387e-05
3.94378e-05
3.34372e-05
2.8895e-05
2.57503e-05
2.3498e-05
2.18614e-05
2.07404e-05
2.01251e-05
2.0011e-05
2.04879e-05
2.17843e-05
2.36296e-05
2.70422e-05
3.42332e-05
4.44967e-05
5.81316e-05
6.83592e-05
6.79436e-05
5.95465e-05
4.87307e-05
3.94831e-05
3.46883e-05
3.8587e-05
5.04097e-05
5.93313e-05
5.77536e-05
4.83524e-05
3.81878e-05
3.0927e-05
2.61458e-05
2.26319e-05
1.97639e-05
1.72854e-05
1.50573e-05
1.29988e-05
1.10785e-05
9.29888e-06
7.67614e-06
6.22572e-06
4.95511e-06
3.86248e-06
2.93854e-06
2.1701e-06
1.54336e-06
1.04739e-06
6.76482e-07
4.3247e-07
3.19609e-07
3.06981e-07
3.31089e-07
3.59674e-07
3.88542e-07
4.18625e-07
4.47451e-07
4.68863e-07
4.76917e-07
4.66321e-07
4.37587e-07
3.89326e-07
3.34409e-07
2.69632e-07
2.23017e-07
2.01439e-07
7.74932e-06
8.51436e-06
9.96309e-06
1.18303e-05
1.39981e-05
1.6494e-05
1.92762e-05
2.2065e-05
2.43268e-05
2.55001e-05
2.53525e-05
2.41742e-05
2.25661e-05
2.10689e-05
2.00779e-05
1.9817e-05
2.22011e-05
2.93317e-05
4.61762e-05
6.56328e-05
6.51638e-05
4.94018e-05
4.21533e-05
4.21807e-05
3.99784e-05
3.53333e-05
3.01891e-05
2.57299e-05
2.27414e-05
2.26496e-05
1.38831e-05
9.25018e-06
1.75331e-05
6.25483e-06
2.89783e-05
4.33381e-05
4.33674e-05
3.75937e-05
3.21448e-05
2.82493e-05
2.54632e-05
2.33886e-05
2.18553e-05
2.0803e-05
2.0227e-05
2.01401e-05
2.05766e-05
2.17686e-05
2.36739e-05
2.65842e-05
3.24455e-05
4.13487e-05
5.34364e-05
6.55798e-05
6.97663e-05
6.53135e-05
5.69572e-05
4.93785e-05
4.63422e-05
5.08926e-05
5.91282e-05
6.17651e-05
5.53961e-05
4.47554e-05
3.56019e-05
2.95352e-05
2.54643e-05
2.23583e-05
1.97573e-05
1.74531e-05
1.5324e-05
1.33081e-05
1.13931e-05
9.59636e-06
7.94395e-06
6.45749e-06
5.14865e-06
4.01839e-06
3.05931e-06
2.25914e-06
1.60452e-06
1.08461e-06
6.93778e-07
4.35116e-07
3.17925e-07
3.12256e-07
3.45401e-07
3.80963e-07
4.14451e-07
4.47056e-07
4.76705e-07
4.97749e-07
5.04782e-07
4.93052e-07
4.63465e-07
4.15234e-07
3.61035e-07
3.00403e-07
2.53475e-07
2.43634e-07
1.07528e-05
1.16e-05
1.28817e-05
1.43715e-05
1.586e-05
1.72458e-05
1.84559e-05
1.94002e-05
1.99832e-05
2.01728e-05
2.00746e-05
1.98979e-05
1.98312e-05
1.99323e-05
2.02608e-05
2.08406e-05
2.16099e-05
2.47567e-05
3.02385e-05
4.39109e-05
5.88517e-05
5.72359e-05
4.39166e-05
3.57039e-05
3.44038e-05
3.30205e-05
3.01494e-05
2.62943e-05
2.2632e-05
1.50333e-05
9.90684e-06
2.28587e-05
1.31355e-05
1.64807e-05
3.8812e-05
4.53185e-05
4.14235e-05
3.55225e-05
3.09177e-05
2.76092e-05
2.51187e-05
2.32032e-05
2.17725e-05
2.07899e-05
2.02515e-05
2.01794e-05
2.05928e-05
2.16536e-05
2.35159e-05
2.61721e-05
3.08693e-05
3.8357e-05
4.84669e-05
6.06362e-05
6.86526e-05
6.8957e-05
6.42858e-05
5.91582e-05
5.76052e-05
6.08822e-05
6.39321e-05
6.0607e-05
5.11753e-05
4.08077e-05
3.31628e-05
2.82396e-05
2.48061e-05
2.20917e-05
1.97594e-05
1.76314e-05
1.56031e-05
1.36325e-05
1.17259e-05
9.91401e-06
8.23205e-06
6.70812e-06
5.35863e-06
4.18799e-06
3.1911e-06
2.35689e-06
1.67242e-06
1.12666e-06
7.13753e-07
4.3778e-07
3.14144e-07
3.15943e-07
3.59419e-07
4.03043e-07
4.41991e-07
4.77773e-07
5.08777e-07
5.29921e-07
5.3638e-07
5.24001e-07
4.94128e-07
4.46639e-07
3.93967e-07
3.38083e-07
2.91752e-07
2.91066e-07
7.04978e-06
7.79014e-06
8.82928e-06
1.00259e-05
1.12366e-05
1.2389e-05
1.3453e-05
1.44128e-05
1.52568e-05
1.59792e-05
1.65934e-05
1.71418e-05
1.77059e-05
1.83644e-05
1.91847e-05
2.04258e-05
2.18291e-05
2.37375e-05
2.76498e-05
3.09309e-05
3.96936e-05
5.07247e-05
5.07173e-05
4.09592e-05
3.08035e-05
2.47351e-05
2.07376e-05
1.59148e-05
1.14294e-05
1.72106e-05
2.85116e-05
2.19573e-05
5.58583e-06
3.23087e-05
4.49977e-05
4.42293e-05
3.86307e-05
3.35343e-05
2.97941e-05
2.69537e-05
2.47054e-05
2.29404e-05
2.16135e-05
2.07001e-05
2.01981e-05
2.01305e-05
2.05221e-05
2.14653e-05
2.31822e-05
2.56811e-05
2.9531e-05
3.56327e-05
4.38104e-05
5.43732e-05
6.42131e-05
6.87912e-05
6.82755e-05
6.59648e-05
6.51976e-05
6.58096e-05
6.36604e-05
5.62052e-05
4.59346e-05
3.70049e-05
3.09762e-05
2.70355e-05
2.41625e-05
2.18266e-05
1.97656e-05
1.7818e-05
1.58954e-05
1.39756e-05
1.20815e-05
1.02562e-05
8.54397e-06
6.98024e-06
5.58694e-06
4.3725e-06
3.33438e-06
2.46277e-06
1.74538e-06
1.17111e-06
7.3393e-07
4.38962e-07
3.09184e-07
3.21417e-07
3.77374e-07
4.30176e-07
4.75123e-07
5.14281e-07
5.46666e-07
5.67872e-07
5.7375e-07
5.60799e-07
5.30833e-07
4.84384e-07
4.33538e-07
3.82282e-07
3.36731e-07
3.42834e-07
5.48942e-06
6.12694e-06
6.97916e-06
7.95981e-06
8.9768e-06
9.98353e-06
1.09628e-05
1.19017e-05
1.27801e-05
1.35763e-05
1.42863e-05
1.49407e-05
1.56098e-05
1.63902e-05
1.73494e-05
1.86425e-05
2.04877e-05
2.25404e-05
2.58257e-05
3.01692e-05
3.12708e-05
3.40886e-05
4.11132e-05
4.39e-05
4.02958e-05
3.41114e-05
2.88335e-05
2.68206e-05
3.05256e-05
3.42299e-05
2.53435e-05
6.20748e-07
2.7556e-05
4.36109e-05
4.57006e-05
4.09879e-05
3.57709e-05
3.18007e-05
2.87468e-05
2.6256e-05
2.42192e-05
2.26027e-05
2.13801e-05
2.05346e-05
2.00671e-05
1.99983e-05
2.03587e-05
2.12062e-05
2.27287e-05
2.50402e-05
2.83326e-05
3.32472e-05
3.9769e-05
4.80571e-05
5.73598e-05
6.42855e-05
6.71197e-05
6.72296e-05
6.65648e-05
6.44656e-05
5.88153e-05
4.98808e-05
4.06708e-05
3.36726e-05
2.90497e-05
2.58951e-05
2.35199e-05
2.15569e-05
1.97728e-05
1.80133e-05
1.62048e-05
1.43429e-05
1.24655e-05
1.06274e-05
8.88318e-06
7.2765e-06
5.83566e-06
4.57363e-06
3.49072e-06
2.57856e-06
1.82546e-06
1.22019e-06
7.56297e-07
4.39518e-07
3.01825e-07
3.26426e-07
3.96714e-07
4.59873e-07
5.11603e-07
5.54669e-07
5.88816e-07
6.10401e-07
6.16015e-07
6.02847e-07
5.73205e-07
5.2826e-07
4.7968e-07
4.33056e-07
3.88699e-07
3.99968e-07
4.81177e-06
5.35177e-06
6.04653e-06
6.84469e-06
7.68585e-06
8.5332e-06
9.36817e-06
1.01776e-05
1.09494e-05
1.16756e-05
1.2362e-05
1.3038e-05
1.37573e-05
1.45936e-05
1.56234e-05
1.69102e-05
1.86107e-05
2.07783e-05
2.33744e-05
2.77195e-05
3.22743e-05
3.23279e-05
2.98412e-05
3.04993e-05
3.30541e-05
3.42313e-05
3.38223e-05
3.31438e-05
2.99723e-05
1.82756e-05
5.29348e-06
2.83179e-05
4.31956e-05
4.61391e-05
4.22266e-05
3.7256e-05
3.33523e-05
3.02996e-05
2.77119e-05
2.54991e-05
2.36634e-05
2.21947e-05
2.10753e-05
2.02954e-05
1.98593e-05
1.97861e-05
2.01052e-05
2.08656e-05
2.21985e-05
2.426e-05
2.71458e-05
3.11606e-05
3.63641e-05
4.26221e-05
4.99708e-05
5.68439e-05
6.11768e-05
6.26458e-05
6.17906e-05
5.81616e-05
5.14768e-05
4.33396e-05
3.61165e-05
3.08847e-05
2.73106e-05
2.4776e-05
2.28645e-05
2.12785e-05
1.97814e-05
1.82212e-05
1.65375e-05
1.47409e-05
1.28832e-05
1.10321e-05
9.25324e-06
7.59971e-06
6.10701e-06
4.79312e-06
3.66122e-06
2.7047e-06
1.91232e-06
1.27288e-06
7.79314e-07
4.37755e-07
2.91434e-07
3.32529e-07
4.19751e-07
4.94566e-07
5.53755e-07
6.01047e-07
6.37072e-07
6.59061e-07
6.64417e-07
6.51071e-07
6.21835e-07
5.78481e-07
5.32173e-07
4.89764e-07
4.46467e-07
4.61613e-07
4.25957e-06
4.7172e-06
5.28752e-06
5.93789e-06
6.62705e-06
7.32696e-06
8.0236e-06
8.70993e-06
9.38215e-06
1.00409e-05
1.06969e-05
1.13771e-05
1.21244e-05
1.29908e-05
1.40374e-05
1.5329e-05
1.69072e-05
1.88736e-05
2.11797e-05
2.41718e-05
2.8972e-05
3.3791e-05
3.47107e-05
3.12491e-05
2.63017e-05
2.22972e-05
1.93719e-05
1.58873e-05
1.29588e-05
2.11225e-05
3.52675e-05
4.45258e-05
4.58162e-05
4.21447e-05
3.76902e-05
3.41841e-05
3.13904e-05
2.88979e-05
2.6644e-05
2.46854e-05
2.30465e-05
2.1722e-05
2.07026e-05
1.99855e-05
1.95776e-05
1.94972e-05
1.97695e-05
2.04391e-05
2.16027e-05
2.33905e-05
2.59049e-05
2.92546e-05
3.34551e-05
3.82559e-05
4.35946e-05
4.89686e-05
5.2996e-05
5.46698e-05
5.36975e-05
4.9964e-05
4.41076e-05
3.78028e-05
3.24772e-05
2.85063e-05
2.56583e-05
2.3646e-05
2.21907e-05
2.09922e-05
1.97957e-05
1.84486e-05
1.69011e-05
1.51766e-05
1.33409e-05
1.14754e-05
9.65841e-06
7.95344e-06
6.40393e-06
5.03328e-06
3.84777e-06
2.84276e-06
2.00746e-06
1.3306e-06
8.04268e-07
4.34263e-07
2.77252e-07
3.3907e-07
4.45683e-07
5.33446e-07
6.00883e-07
6.52891e-07
6.91106e-07
7.13723e-07
7.19032e-07
7.05739e-07
6.77173e-07
6.35661e-07
5.91828e-07
5.53458e-07
5.11525e-07
5.29545e-07
3.77878e-06
4.16287e-06
4.62919e-06
5.15703e-06
5.71977e-06
6.29807e-06
6.88174e-06
7.46667e-06
8.05335e-06
8.64799e-06
9.26521e-06
9.93056e-06
1.0679e-05
1.15505e-05
1.25889e-05
1.38474e-05
1.53496e-05
1.71293e-05
1.92095e-05
2.15391e-05
2.46208e-05
2.92185e-05
3.41186e-05
3.68846e-05
3.67172e-05
3.48544e-05
3.32079e-05
3.38173e-05
3.75432e-05
4.2548e-05
4.52688e-05