/*--------------------------------*- C++ -*----------------------------------*\
| =========                 |                                                 |
| \\      /  F ield         | OpenFOAM: The Open Source CFD Toolbox           |
|  \\    /   O peration     | Version:  2.1.1                                 |
|   \\  /    A nd           | Web:      www.OpenFOAM.org                      |
|    \\/     M anipulation  |                                                 |
\*---------------------------------------------------------------------------*/
FoamFile
{
    version     2.0;
    format      ascii;
    class       volScalarField;
    location    "0.1";
    object      p;
}
// * * * * * * * * * * * * * * * * * * * * * * * * * * * * * * * * * * * * * //

dimensions      [0 2 -2 0 0 0 0];

internalField   nonuniform List<scalar> 
6820
(
7.73624
-10.101
-13.1138
-13.3064
-13.4857
-13.4202
-13.3726
-13.3956
-13.4548
-13.5352
-13.6283
-13.729
-13.8351
-13.9455
-14.0599
-14.1781
-14.3001
-14.4259
-14.5557
-14.6895
-14.8275
-14.9701
-15.117
-15.2688
-15.4256
-15.5873
-15.7541
-15.9258
-16.1031
-16.2826
-16.4732
-16.6447
-16.8808
1.05579
-9.91906
-12.8018
-13.1075
-13.3668
-13.3975
-13.3865
-13.4207
-13.4817
-13.5591
-13.6481
-13.7451
-13.8481
-13.9561
-14.0686
-14.1854
-14.3063
-14.4313
-14.5605
-14.694
-14.8316
-14.9735
-15.1203
-15.2718
-15.4286
-15.5902
-15.757
-15.9288
-16.106
-16.2871
-16.4784
-16.6664
-16.9203
-1.65772
-8.48742
-11.7798
-12.5436
-13.0188
-13.2243
-13.2921
-13.3591
-13.4394
-13.529
-13.6266
-13.7301
-13.838
-13.9495
-14.0643
-14.1826
-14.3044
-14.4298
-14.5589
-14.692
-14.8291
-14.9706
-15.1168
-15.2677
-15.423
-15.5838
-15.7501
-15.9215
-16.0987
-16.2805
-16.4711
-16.6598
-16.8667
-3.64197
-8.25893
-11.3566
-12.2216
-12.7006
-12.9852
-13.1232
-13.2343
-13.3456
-13.4556
-13.566
-13.678
-13.7919
-13.9081
-14.0267
-14.148
-14.272
-14.3991
-14.5295
-14.6633
-14.8008
-14.9423
-15.0879
-15.238
-15.3926
-15.5521
-15.7167
-15.8867
-16.0631
-16.2458
-16.4377
-16.6364
-16.8527
-5.27617
-8.35802
-10.9634
-11.8725
-12.3872
-12.751
-12.9591
-13.1096
-13.2453
-13.3719
-13.4937
-13.6143
-13.7346
-13.8554
-13.9773
-14.1009
-14.2266
-14.3546
-14.4852
-14.6187
-14.7553
-14.8954
-15.0391
-15.1869
-15.3389
-15.4955
-15.657
-15.8237
-15.9972
-16.1781
-16.3696
-16.5732
-16.7985
-6.49726
-8.53739
-10.7109
-11.6606
-12.1943
-12.5851
-12.828
-13.0012
-13.1528
-13.2918
-13.4228
-13.5501
-13.6757
-13.8005
-13.9253
-14.0509
-14.1777
-14.306
-14.4364
-14.569
-14.7042
-14.8423
-14.9835
-15.1283
-15.2768
-15.4294
-15.5871
-15.7506
-15.9208
-16.099
-16.2884
-16.4927
-16.7217
-7.44613
-8.82195
-10.5916
-11.5039
-12.0251
-12.424
-12.6969
-12.8953
-13.0647
-13.2168
-13.3573
-13.4913
-13.6216
-13.7499
-13.8771
-14.0042
-14.1318
-14.2604
-14.3904
-14.5222
-14.6559
-14.792
-14.9308
-15.0726
-15.2177
-15.3669
-15.5206
-15.6795
-15.8447
-16.0179
-16.2023
-16.4013
-16.6228
-8.18998
-9.12595
-10.5381
-11.3857
-11.8952
-12.2955
-12.587
-12.8024
-12.9834
-13.1446
-13.2922
-13.4315
-13.566
-13.6973
-13.8268
-13.9555
-14.0839
-14.2127
-14.3423
-14.473
-14.6052
-14.7391
-14.8752
-15.0138
-15.1552
-15.2998
-15.4485
-15.6019
-15.7612
-15.9279
-16.1047
-16.2945
-16.5026
-8.77974
-9.42709
-10.5457
-11.3129
-11.7997
-12.1882
-12.4857
-12.7124
-12.9031
-13.0726
-13.2271
-13.3718
-13.5104
-13.6448
-13.7764
-13.9064
-14.0354
-14.1642
-14.2931
-14.4225
-14.5529
-14.6845
-14.8176
-14.9526
-15.0898
-15.2298
-15.3731
-15.5204
-15.6727
-15.8313
-15.9981
-16.175
-16.3654
-9.25325
-9.70971
-10.5907
-11.2691
-11.7268
-12.0991
-12.3972
-12.6314
-12.8292
-13.0048
-13.1645
-13.3133
-13.455
-13.5917
-13.7249
-13.8558
-13.9852
-14.1137
-14.2417
-14.3697
-14.498
-14.6269
-14.7568
-14.888
-15.0207
-15.1555
-15.2927
-15.433
-15.5771
-15.726
-15.8809
-16.0429
-16.2136
-9.63738
-9.96609
-10.6595
-11.2506
-11.6756
-12.0283
-12.3207
-12.5573
-12.7589
-12.9386
-13.1023
-13.2546
-13.3991
-13.5379
-13.6726
-13.8043
-13.9338
-14.0618
-14.1888
-14.3152
-14.4412
-14.5673
-14.6937
-14.8207
-14.9486
-15.0776
-15.2083
-15.3409
-15.476
-15.6142
-15.7561
-15.902
-16.0521
-9.95176
-10.1939
-10.741
-11.2504
-11.6402
-11.9711
-12.254
-12.4898
-12.6933
-12.8756
-13.0423
-13.1972
-13.3438
-13.4842
-13.6198
-13.7519
-13.8813
-14.0085
-14.1342
-14.2587
-14.3822
-14.5052
-14.6278
-14.7503
-14.8729
-14.9959
-15.1195
-15.2439
-15.3694
-15.4962
-15.6243
-15.7536
-15.8835
-10.2107
-10.3931
-10.8272
-11.2631
-11.6175
-11.926
-12.1969
-12.429
-12.6321
-12.8154
-12.9836
-13.1403
-13.2884
-13.4299
-13.5662
-13.6985
-13.8275
-13.9538
-14.078
-14.2004
-14.3213
-14.4409
-14.5596
-14.6774
-14.7945
-14.911
-15.0272
-15.143
-15.2585
-15.3735
-15.4877
-15.6007
-15.7112
-10.4248
-10.5652
-10.9123
-11.2843
-11.6041
-11.8902
-12.1476
-12.3738
-12.5749
-12.7578
-12.9267
-13.0844
-13.2335
-13.3757
-13.5123
-13.6445
-13.7728
-13.898
-14.0205
-14.1405
-14.2585
-14.3746
-14.489
-14.6019
-14.7132
-14.8232
-14.9317
-15.0387
-15.1439
-15.2472
-15.3479
-15.4451
-15.5376
-10.6018
-10.7122
-10.9925
-11.3098
-11.5973
-11.8615
-12.1048
-12.3237
-12.5214
-12.703
-12.8716
-13.0296
-13.179
-13.3214
-13.458
-13.5897
-13.7172
-13.8411
-13.9616
-14.0792
-14.1941
-14.3066
-14.4166
-14.5244
-14.6298
-14.733
-14.8338
-14.9319
-15.0272
-15.119
-15.2066
-15.2892
-15.3651
-10.7476
-10.8361
-11.0652
-11.3366
-11.5943
-11.838
-12.0672
-12.2778
-12.4712
-12.6505
-12.8181
-12.9757
-13.125
-13.2673
-13.4036
-13.5347
-13.6611
-13.7833
-13.9018
-14.0168
-14.1285
-14.2371
-14.3426
-14.4451
-14.5446
-14.641
-14.7341
-14.8235
-14.909
-14.9898
-15.0652
-15.1343
-15.1956
-10.8666
-10.9389
-11.1286
-11.362
-11.5931
-11.8176
-12.0332
-12.2353
-12.4237
-12.6001
-12.7661
-12.9229
-13.0717
-13.2136
-13.3492
-13.4794
-13.6045
-13.725
-13.8413
-13.9535
-14.0619
-14.1666
-14.2676
-14.3649
-14.4584
-14.5481
-14.6336
-14.7147
-14.7908
-14.8614
-14.9256
-14.9825
-15.0308
-10.9621
-11.0223
-11.1815
-11.3838
-11.5917
-11.7988
-12.0016
-12.1953
-12.3783
-12.5515
-12.7155
-12.8711
-13.0191
-13.1602
-13.295
-13.424
-13.5477
-13.6664
-13.7803
-13.8897
-13.9947
-14.0954
-14.1918
-14.2839
-14.3715
-14.4546
-14.5329
-14.6059
-14.6732
-14.7343
-14.7883
-14.8345
-14.8716
-11.0367
-11.0876
-11.2234
-11.4004
-11.5883
-11.7801
-11.9712
-12.1567
-12.3345
-12.5042
-12.6661
-12.8203
-12.9672
-13.1074
-13.2412
-13.369
-13.4912
-13.6079
-13.7194
-13.826
-13.9275
-14.0243
-14.1162
-14.2031
-14.2851
-14.3619
-14.4332
-14.4987
-14.558
-14.6104
-14.6554
-14.6922
-14.7198
-11.092
-11.1359
-11.2537
-11.4105
-11.5815
-11.7599
-11.9407
-12.1188
-12.2915
-12.4579
-12.6176
-12.7702
-12.9161
-13.0552
-13.1879
-13.3144
-13.4349
-13.5496
-13.6587
-13.7623
-13.8604
-13.9532
-14.0406
-14.1226
-14.1991
-14.2698
-14.3346
-14.3931
-14.4449
-14.4896
-14.5266
-14.5553
-14.5749
-11.1293
-11.168
-11.2719
-11.4128
-11.57
-11.7371
-11.9091
-12.0807
-12.2489
-12.4123
-12.5699
-12.7211
-12.8659
-13.004
-13.1357
-13.2609
-13.3798
-13.4925
-13.5992
-13.6999
-13.7947
-13.8837
-13.9669
-14.0441
-14.1154
-14.1805
-14.2392
-14.2913
-14.3365
-14.3743
-14.4044
-14.4263
-14.4392
-11.1496
-11.1843
-11.2779
-11.4064
-11.5526
-11.7106
-11.8753
-12.0415
-12.206
-12.3668
-12.5226
-12.6726
-12.8164
-12.9536
-13.0841
-13.208
-13.3253
-13.436
-13.5402
-13.6381
-13.7296
-13.8149
-13.8939
-13.9665
-14.0328
-14.0926
-14.1457
-14.192
-14.2311
-14.2629
-14.287
-14.303
-14.3106
-11.1532
-11.185
-11.271
-11.3903
-11.5282
-11.6793
-11.8384
-12.0006
-12.1623
-12.3213
-12.4759
-12.6252
-12.7683
-12.9049
-13.0346
-13.1574
-13.2733
-13.3822
-13.4843
-13.5795
-13.668
-13.7498
-13.8249
-13.8933
-13.955
-14.0099
-14.058
-14.099
-14.1329
-14.1594
-14.1784
-14.1896
-14.1928
-11.1402
-11.17
-11.2507
-11.3637
-11.4958
-11.6421
-11.7975
-11.957
-12.117
-12.2749
-12.429
-12.5779
-12.7206
-12.8567
-12.9857
-13.1075
-13.222
-13.3291
-13.429
-13.5216
-13.6071
-13.6854
-13.7568
-13.8211
-13.8785
-13.9289
-13.9722
-14.0085
-14.0376
-14.0595
-14.074
-14.0813
-14.0809
-11.1102
-11.1388
-11.2164
-11.3257
-11.4545
-11.5983
-11.752
-11.9107
-12.0704
-12.2286
-12.3832
-12.5326
-12.6758
-12.8121
-12.941
-13.0622
-13.1758
-13.2815
-13.3795
-13.4699
-13.5526
-13.628
-13.6959
-13.7566
-13.81
-13.8563
-13.8955
-13.9275
-13.9525
-13.9705
-13.9813
-13.9852
-13.9819
-11.0624
-11.0905
-11.167
-11.275
-11.403
-11.5465
-11.7005
-11.8599
-12.0207
-12.18
-12.3358
-12.4862
-12.6302
-12.7669
-12.8958
-13.0167
-13.1293
-13.2337
-13.3299
-13.418
-13.4981
-13.5704
-13.6351
-13.6922
-13.7419
-13.7843
-13.8195
-13.8477
-13.8689
-13.8833
-13.8909
-13.8919
-13.8864
-10.9957
-11.0241
-11.1014
-11.2109
-11.3409
-11.4869
-11.6439
-11.8065
-11.9706
-12.1332
-12.2919
-12.4449
-12.591
-12.7292
-12.859
-12.9802
-13.0925
-13.1961
-13.2909
-13.3772
-13.455
-13.5247
-13.5864
-13.6403
-13.6866
-13.7256
-13.7573
-13.7821
-13.8
-13.8112
-13.816
-13.8145
-13.8068
-10.9082
-10.9377
-11.0179
-11.1312
-11.2655
-11.4162
-11.578
-11.7454
-11.914
-12.0808
-12.2431
-12.3992
-12.5478
-12.6878
-12.8188
-12.9405
-13.0527
-13.1556
-13.2491
-13.3336
-13.4093
-13.4763
-13.5351
-13.5859
-13.629
-13.6645
-13.6929
-13.7143
-13.7291
-13.7374
-13.7396
-13.7359
-13.7266
-10.7977
-10.8293
-10.915
-11.0359
-11.1788
-11.3386
-11.5095
-11.6857
-11.8625
-12.0364
-12.205
-12.3663
-12.519
-12.6621
-12.7953
-12.9183
-13.031
-13.1335
-13.2262
-13.3092
-13.3829
-13.4476
-13.5038
-13.5516
-13.5916
-13.6241
-13.6493
-13.6677
-13.6795
-13.685
-13.6847
-13.6788
-13.6674
-10.6606
-10.695
-10.7884
-10.9191
-11.0723
-11.2425
-11.4238
-11.6098
-11.7956
-11.9778
-12.1536
-12.321
-12.4787
-12.6257
-12.7618
-12.8866
-13.0002
-13.1029
-13.1949
-13.2766
-13.3485
-13.4109
-13.4645
-13.5095
-13.5464
-13.5757
-13.5978
-13.6131
-13.6219
-13.6248
-13.622
-13.6141
-13.6013
-10.493
-10.5326
-10.6395
-10.7879
-10.9598
-11.1487
-11.3478
-11.5498
-11.7496
-11.9437
-12.1293
-12.3047
-12.4686
-12.6204
-12.7598
-12.8867
-13.0014
-13.1042
-13.1955
-13.2759
-13.346
-13.4061
-13.457
-13.499
-13.5329
-13.559
-13.5778
-13.5899
-13.5956
-13.5955
-13.5899
-13.5793
-13.564
-10.2875
-10.3317
-10.4524
-10.6178
-10.807
-11.0141
-11.2315
-11.4512
-11.6673
-11.876
-12.0744
-12.2605
-12.4331
-12.5917
-12.7362
-12.8666
-12.9834
-13.087
-13.1783
-13.2577
-13.3261
-13.384
-13.4323
-13.4714
-13.5021
-13.525
-13.5405
-13.5494
-13.552
-13.549
-13.5408
-13.528
-13.511
-10.039
-10.0978
-10.2511
-10.4542
-10.6788
-10.9178
-11.1632
-11.4063
-11.6417
-11.8663
-12.0776
-12.2739
-12.4544
-12.619
-12.7676
-12.9006
-13.0188
-13.1227
-13.2132
-13.2911
-13.3573
-13.4125
-13.4575
-13.4931
-13.5201
-13.539
-13.5505
-13.5553
-13.554
-13.547
-13.5349
-13.5183
-13.4975
-9.72554
-9.78678
-9.95994
-10.1895
-10.4445
-10.7182
-10.999
-11.2752
-11.5402
-11.7904
-12.0229
-12.2364
-12.4303
-12.6049
-12.7607
-12.8986
-13.0195
-13.1246
-13.2149
-13.2917
-13.3559
-13.4085
-13.4506
-13.4829
-13.5063
-13.5216
-13.5294
-13.5306
-13.5256
-13.5151
-13.4998
-13.4804
-13.4573
-9.35747
-9.47388
-9.73241
-10.033
-10.339
-10.653
-10.9665
-11.2688
-11.5553
-11.8235
-12.071
-12.2966
-12.5002
-12.6821
-12.843
-12.984
-13.1063
-13.2112
-13.3001
-13.3742
-13.4349
-13.4833
-13.5205
-13.5476
-13.5655
-13.5751
-13.5771
-13.5724
-13.5614
-13.545
-13.5238
-13.4983
-13.4693
-8.8225
-8.91276
-9.20886
-9.57709
-9.96365
-10.3611
-10.7488
-11.1129
-11.4499
-11.7576
-12.0352
-12.283
-12.5024
-12.6952
-12.8632
-13.0084
-13.1327
-13.2379
-13.3258
-13.3981
-13.4562
-13.5015
-13.5353
-13.5588
-13.5728
-13.5784
-13.5763
-13.5673
-13.552
-13.5312
-13.5055
-13.4758
-13.443
-8.32224
-8.64383
-9.10947
-9.52503
-9.93093
-10.3543
-10.7668
-11.155
-11.5172
-11.8496
-12.1493
-12.4159
-12.6501
-12.8535
-13.0281
-13.1763
-13.3005
-13.403
-13.4863
-13.5523
-13.6031
-13.6402
-13.6654
-13.6799
-13.685
-13.6815
-13.6704
-13.6524
-13.628
-13.5979
-13.5622
-13.5221
-13.4779
-7.01601
-7.33684
-8.10769
-8.80404
-9.43621
-10.0372
-10.575
-11.0494
-11.4707
-11.8428
-12.1689
-12.4534
-12.7001
-12.9123
-13.0932
-13.2458
-13.3727
-13.4766
-13.56
-13.6251
-13.6739
-13.7084
-13.7303
-13.7409
-13.7416
-13.7335
-13.7173
-13.6937
-13.663
-13.6254
-13.5803
-13.5293
-13.4679
-7.00075
-7.74489
-8.34708
-8.81086
-9.40693
-10.0356
-10.6202
-11.1632
-11.6582
-12.0946
-12.4714
-12.7922
-13.0612
-13.2833
-13.4638
-13.608
-13.7209
-13.8068
-13.8698
-13.9132
-13.9401
-13.9529
-13.9539
-13.9448
-13.9272
-13.9022
-13.8709
-13.8336
-13.7904
-13.7404
-13.6807
-13.6087
-13.5099
-0.746607
-5.3541
-7.13625
-7.98408
-8.98261
-9.85411
-10.549
-11.1501
-11.6736
-12.1199
-12.498
-12.816
-13.0804
-13.2976
-13.4734
-13.6133
-13.7224
-13.805
-13.865
-13.9058
-13.9303
-13.941
-13.9401
-13.9294
-13.9105
-13.8846
-13.853
-13.8164
-13.776
-13.7314
-13.6855
-13.6333
-13.5864
-16.8425
-17.3129
-18.6769
-20.3235
-22.0788
-23.7985
-25.3919
-26.6594
-27.1389
-26.1449
-23.1616
-18.3248
-12.4773
-6.70227
-1.84283
1.60295
3.43626
3.77642
2.72599
0.199022
-3.93675
-9.97896
-17.9349
-27.2376
-36.8541
-45.6982
-52.9306
-58.0195
-60.7088
-61.071
-59.3321
-56.0668
-51.9971
-47.2335
-41.1621
-33.4999
-25.407
-18.5143
-13.319
-9.48145
-6.58704
-4.36472
-2.64401
-1.30609
-0.262331
0.553408
1.18375
1.65814
1.97199
2.04392
1.7612
0.687667
-2.27518
-8.17838
-16.889
-26.8791
-36.1976
-43.2007
-46.7804
-46.4405
-42.0454
-34.4725
-25.6629
-17.7746
-11.8458
-7.72373
-4.89383
-2.94719
-1.61698
-0.721485
-0.130687
0.249402
0.486428
0.628489
0.709092
0.750949
0.76885
0.771984
0.765704
0.752894
0.73496
0.712535
0.685916
0.655344
0.621149
0.583803
0.543903
0.502108
0.459063
0.415378
0.371545
0.328047
0.285115
0.243306
0.20227
0.16332
0.123973
0.0892826
0.0481865
0.0226593
-17.0834
-17.4827
-18.7315
-20.3197
-22.0093
-23.6188
-25.0319
-26.0354
-26.1902
-24.9171
-21.8595
-17.2424
-11.8367
-6.54202
-2.02592
1.30713
3.17883
3.51348
2.49474
-0.00311322
-4.02011
-9.73644
-17.1565
-25.7971
-34.768
-43.0946
-49.9822
-54.9085
-57.6114
-58.1472
-56.7309
-53.9021
-50.2281
-45.6565
-39.654
-32.179
-24.52
-18.0921
-13.2069
-9.53246
-6.71673
-4.53013
-2.82213
-1.48392
-0.433173
0.392086
1.0313
1.50902
1.82197
1.8965
1.61285
0.623667
-2.03007
-7.35135
-15.3171
-24.5999
-33.3614
-39.995
-43.3902
-43.0824
-38.9885
-32.0418
-24.0862
-16.9929
-11.5925
-7.74505
-5.03716
-3.1362
-1.81449
-0.908998
-0.299368
0.103066
0.363
0.526915
0.627473
0.686963
0.720013
0.735827
0.73989
0.73529
0.723687
0.705994
0.682775
0.654551
0.621888
0.585462
0.546043
0.504426
0.461365
0.417566
0.373574
0.329915
0.286819
0.244878
0.20366
0.164589
0.12491
0.0901739
0.0483381
0.023392
-17.0671
-17.6068
-18.7869
-20.2614
-21.7579
-23.1651
-24.326
-25.007
-24.8244
-23.3466
-20.3748
-16.1711
-11.3776
-6.69214
-2.62814
0.495075
2.40355
2.8616
1.88182
-0.498599
-4.34567
-9.71393
-16.5826
-24.548
-32.8445
-40.6089
-47.1057
-51.8344
-54.5293
-55.2259
-54.1305
-51.7256
-48.3878
-43.95
-37.9986
-30.7696
-23.6111
-17.666
-13.0888
-9.57742
-6.84415
-4.69821
-3.00752
-1.67296
-0.618674
0.212688
0.857658
1.33609
1.64399
1.71644
1.42987
0.500607
-1.87764
-6.62844
-13.8139
-22.3194
-30.4546
-36.6715
-39.868
-39.6111
-35.8772
-29.6267
-22.5571
-16.2444
-11.348
-7.76366
-5.17642
-3.32337
-2.01251
-1.09861
-0.470978
-0.0464637
0.236485
0.42259
0.543551
0.621152
0.669808
0.698695
0.713409
0.717245
0.71213
0.699279
0.679546
0.653723
0.62262
0.587125
0.548185
0.50674
0.46366
0.419737
0.375575
0.331747
0.288484
0.246407
0.205008
0.165823
0.125828
0.0910647
0.0484954
0.02416
-17.1412
-17.706
-18.7085
-19.9599
-21.2301
-22.3772
-23.2363
-23.5901
-23.1424
-21.604
-18.8831
-15.2168
-11.0967
-7.05125
-3.48488
-0.65525
1.20395
1.7988
0.945087
-1.29079
-4.90217
-9.90408
-16.2143
-23.4983
-31.1086
-38.286
-44.3606
-48.8626
-51.5243
-52.3656
-51.5804
-49.5551
-46.4644
-42.0963
-36.2061
-29.3122
-22.7089
-17.2443
-12.9644
-9.61473
-6.96842
-4.86854
-3.19983
-1.87293
-0.818611
0.0154777
0.662939
1.13955
1.43907
1.50532
1.21369
0.326102
-1.80921
-6.01189
-12.4044
-20.0823
-27.5339
-33.2949
-36.2849
-36.1068
-32.7961
-27.2967
-21.113
-15.5401
-11.1126
-7.77739
-5.30991
-3.50771
-2.21048
-1.28997
-0.645285
-0.199037
0.10699
0.315604
0.457419
0.553625
0.618361
0.660746
0.686472
0.699039
0.700641
0.69278
0.676614
0.653221
0.623673
0.58908
0.550575
0.509253
0.466105
0.422015
0.377647
0.333622
0.29017
0.247941
0.206351
0.167044
0.126728
0.0919369
0.0486249
0.0249329
-17.1065
-17.6326
-18.4592
-19.469
-20.4737
-21.3359
-21.9106
-22.0164
-21.435
-19.9724
-17.5809
-14.4441
-10.9314
-7.45726
-4.36418
-1.88871
-0.204436
0.438578
-0.234662
-2.29714
-5.65822
-10.2837
-16.0508
-22.6599
-29.5828
-36.1641
-41.7985
-46.0483
-48.6456
-49.6122
-49.1101
-47.3795
-44.4358
-40.0798
-34.3002
-27.844
-21.8296
-16.8306
-12.8349
-9.64572
-7.09049
-5.04164
-3.39943
-2.08422
-1.0335
-0.200043
0.446595
0.918939
1.20759
1.26405
0.96727
0.110405
-1.81804
-5.51401
-11.1329
-17.9602
-24.6845
-29.9537
-32.7329
-32.6645
-29.8295
-25.1048
-19.7734
-14.8834
-10.887
-7.78732
-5.43856
-3.68965
-2.40851
-1.48311
-0.822341
-0.354714
-0.0255231
0.205959
0.369119
0.484453
0.565761
0.622064
0.659134
0.68067
0.689143
0.686366
0.673817
0.652872
0.624869
0.591154
0.553053
0.511822
0.468576
0.424295
0.379702
0.335465
0.291814
0.24943
0.20765
0.168225
0.127596
0.0927933
0.0487436
0.0257322
-17.0311
-17.5067
-18.176
-18.9639
-19.731
-20.3575
-20.7176
-20.662
-20.0234
-18.6645
-16.5607
-13.8568
-10.839
-7.84116
-5.15705
-3.02222
-1.58323
-1.00827
-1.55953
-3.41471
-6.5332
-10.7995
-16.0653
-22.0386
-28.2834
-34.2616
-39.4423
-43.4178
-45.9299
-47.0008
-46.7234
-45.1721
-42.2649
-37.8947
-32.3294
-26.4099
-20.989
-16.4275
-12.7007
-9.67067
-7.21047
-5.21739
-3.60613
-2.30662
-1.26312
-0.433556
0.209111
0.674779
0.951052
0.994838
0.692969
-0.138522
-1.89673
-5.14371
-10.039
-16.0257
-22
-26.752
-29.3103
-29.3944
-27.0639
-23.0974
-18.5517
-14.2755
-10.6705
-7.79324
-5.56229
-3.86908
-2.60651
-1.67799
-1.00214
-0.513492
-0.161028
0.0937129
0.278744
0.41376
0.512154
0.582814
0.63158
0.662351
0.677882
0.680301
0.671419
0.652924
0.626437
0.59355
0.555795
0.514595
0.471194
0.426672
0.381813
0.337334
0.293465
0.250909
0.208932
0.169385
0.128443
0.0936333
0.0488407
0.0265388
-16.9145
-17.3323
-17.8749
-18.4905
-19.0728
-19.5169
-19.7138
-19.5405
-18.8709
-17.6103
-15.7505
-13.408
-10.8072
-8.21855
-5.89192
-4.04526
-2.83042
-2.37935
-2.88996
-4.55263
-7.4146
-11.3568
-16.1804
-21.5989
-27.2222
-32.6089
-37.3215
-41.0003
-43.4224
-44.569
-44.4078
-42.8807
-39.9027
-35.5684
-30.3655
-25.0479
-20.1947
-16.0354
-12.5627
-9.69057
-7.32883
-5.39582
-3.81973
-2.53987
-1.50721
-0.684728
-0.0489449
0.407719
0.670685
0.700227
0.393467
-0.413831
-2.03186
-4.89428
-9.14074
-14.3354
-19.5707
-23.8027
-26.1656
-26.4013
-24.5657
-21.2983
-17.4488
-13.7133
-10.4625
-7.79583
-5.68179
-4.04638
-2.8047
-1.87478
-1.18483
-0.675466
-0.299566
-0.0211147
0.18637
0.341666
0.457687
0.543152
0.603952
0.64419
0.666917
0.674598
0.669395
0.653324
0.628304
0.596184
0.55871
0.51748
0.473873
0.429068
0.383913
0.339171
0.29507
0.252339
0.210164
0.170502
0.129254
0.0944533
0.0489229
0.0273672
-16.7701
-17.1331
-17.5728
-18.0485
-18.478
-18.7731
-18.8424
-18.5873
-17.9125
-16.7523
-15.1085
-13.0765
-10.8353
-8.6046
-6.59667
-5.00215
-3.97194
-3.63536
-4.1379
-5.6384
-8.22262
-11.8361
-16.2723
-21.2269
-26.3343
-31.2072
-35.481
-38.8654
-41.1816
-42.2941
-42.054
-40.3814
-37.3285
-33.1868
-28.4883
-23.7831
-19.4484
-15.6543
-12.4218
-9.7063
-7.44577
-5.57669
-4.03978
-2.78341
-1.76511
-0.952772
-0.326476
0.119148
0.368293
0.38335
0.0722384
-0.709889
-2.20869
-4.7484
-8.4346
-12.9193
-17.4655
-21.2005
-23.3791
-23.7583
-22.3689
-19.7096
-16.4571
-13.1924
-10.2625
-7.79582
-5.7977
-4.22196
-3.00336
-2.07372
-1.37058
-0.840756
-0.44118
-0.138489
0.0920966
0.268322
0.402546
0.503281
0.576465
0.626405
0.65647
0.669474
0.667951
0.654262
0.63064
0.599205
0.561927
0.520586
0.4767
0.431552
0.386055
0.341017
0.296662
0.253743
0.211365
0.171587
0.130037
0.0952523
0.0489825
0.0281985
-16.604
-16.9127
-17.2638
-17.6239
-17.9295
-18.1075
-18.0819
-17.7737
-17.1112
-16.0498
-14.5983
-12.8365
-10.9078
-8.99144
-7.26725
-5.90197
-5.033
-4.78695
-5.28181
-6.63799
-8.93892
-12.1774
-16.2086
-20.7465
-25.4291
-29.8902
-33.8003
-36.9074
-38.9986
-39.8812
-39.4077
-37.5938
-34.6351
-30.8847
-26.7588
-22.6228
-18.7469
-15.2837
-12.2795
-9.71883
-7.5615
-5.75969
-4.26571
-3.03651
-2.03594
-1.23665
-0.622162
-0.189218
0.0458109
0.0473073
-0.266781
-1.02201
-2.41472
-4.68398
-7.89834
-11.7726
-15.7088
-18.9914
-20.9944
-21.4875
-20.4682
-18.3137
-15.5633
-12.7081
-10.0704
-7.79437
-5.91099
-4.39649
-3.203
-2.27519
-1.5597
-1.00956
-0.585964
-0.258404
-0.00397946
0.193891
0.346935
0.463426
0.549334
0.60919
0.646693
0.66504
0.667156
0.655771
0.633448
0.602591
0.565406
0.523862
0.47962
0.434071
0.38819
0.342827
0.298204
0.25509
0.212512
0.172624
0.130782
0.096031
0.0490289
0.0290508
-16.4222
-16.6803
-16.9569
-17.2234
-17.4296
-17.5159
-17.4199
-17.0795
-16.4416
-15.4768
-14.1981
-12.6721
-11.0153
-9.37438
-7.90157
-6.74205
-6.01717
-5.84294
-6.32315
-7.54737
-9.57839
-12.4194
-15.9785
-20.0389
-24.2795
-28.3431
-31.9021
-34.6789
-36.4377
-37.0321
-36.4092
-34.6688
-32.0314
-28.7792
-25.1994
-21.5598
-18.0856
-14.9244
-12.1374
-9.72902
-7.67607
-5.94437
-4.49677
-3.29818
-2.31853
-1.53499
-0.934332
-0.515242
-0.294269
-0.304752
-0.619486
-1.34576
-2.64034
-4.67885
-7.49815
-10.8593
-14.2748
-17.1597
-18.9932
-19.5593
-18.8286
-17.0824
-14.7531
-12.2567
-9.88694
-7.79286
-6.02278
-4.57082
-3.4043
-2.47976
-1.7526
-1.18216
-0.734054
-0.38086
-0.101749
0.118566
0.291101
0.423854
0.522831
0.592806
0.637829
0.661515
0.667205
0.658019
0.63687
0.606461
0.569243
0.527384
0.482693
0.436666
0.390345
0.344621
0.299706
0.256388
0.213607
0.173614
0.131485
0.0967787
0.0490474
0.0298966
-16.2309
-16.4426
-16.6556
-16.8455
-16.9724
-16.988
-16.8422
-16.4867
-15.8824
-15.0107
-13.8868
-12.567
-11.1469
-9.74697
-8.49573
-7.51836
-6.92266
-6.81001
-7.27029
-8.37369
-10.1612
-12.628
-15.6997
-19.2132
-22.9141
-26.4894
-29.6235
-32.0254
-33.4956
-33.9561
-33.406
-31.9305
-29.6961
-26.9109
-23.7972
-20.5806
-17.4612
-14.5775
-11.9971
-9.73757
-7.78947
-6.13021
-4.73206
-3.56729
-2.6115
-1.84616
-1.26105
-0.856584
-0.649169
-0.669681
-0.981998
-1.67686
-2.8784
-4.71477
-7.19946
-10.1294
-13.1046
-15.6443
-17.3142
-17.9156
-17.4036
-15.9878
-14.015
-11.8361
-9.71319
-7.79284
-6.1344
-4.74603
-3.60814
-2.68814
-1.94986
-1.35894
-0.885653
-0.505891
-0.201101
0.0425607
0.23532
0.38487
0.497258
0.577527
0.630114
0.659089
0.668239
0.661102
0.640963
0.610839
0.573439
0.531135
0.48589
0.439307
0.392492
0.346371
0.301148
0.25762
0.214642
0.174554
0.132152
0.0975092
0.0490596
0.0307666
-16.0339
-16.2041
-16.3636
-16.4918
-16.5567
-16.5196
-16.3405
-15.9823
-15.4169
-14.6336
-13.6484
-12.5095
-11.2955
-10.106
-9.04915
-8.23198
-7.74934
-7.68918
-8.12741
-9.1206
-10.6949
-12.8354
-15.4719
-18.4658
-21.6127
-24.6589
-27.3366
-29.4103
-30.7189
-31.1744
-30.762
-29.5455
-27.653
-25.2502
-22.5255
-19.6748
-16.8726
-14.2446
-11.8598
-9.74506
-7.90158
-6.31658
-4.97057
-3.84252
-2.91325
-2.16826
-1.60012
-1.21068
-1.0159
-1.0442
-1.35074
-2.01148
-3.12351
-4.77878
-6.97455
-9.53689
-12.136
-14.374
-15.888
-16.4978
-16.1527
-15.0078
-13.341
-11.4453
-9.55046
-7.79596
-6.24734
-4.92343
-3.81567
-2.9013
-2.15221
-1.54042
-1.04104
-0.633555
-0.301917
-0.0338766
0.179917
0.346831
0.472974
0.563683
0.623843
0.658014
0.670468
0.665191
0.645861
0.615826
0.578067
0.535166
0.489242
0.442009
0.394632
0.348072
0.302519
0.258773
0.2156
0.175425
0.13276
0.0981938
0.0490338
0.0316157
-15.8354
-15.9689
-16.0838
-16.1625
-16.1795
-16.1039
-15.9044
-15.5529
-15.0297
-14.3296
-13.4687
-12.4884
-11.4538
-10.4473
-9.56007
-8.88275
-8.49796
-8.48142
-8.89666
-9.78895
-11.1758
-13.0372
-15.3068
-17.8647
-20.54
-23.1272
-25.4137
-27.2123
-28.3756
-28.8041
-28.485
-27.4663
-25.8451
-23.758
-21.3664
-18.837
-16.3196
-13.9267
-11.7265
-9.75192
-8.01226
-6.50281
-5.21121
-4.1224
-3.22203
-2.49925
-1.94915
-1.5748
-1.39143
-1.42501
-1.72235
-2.34625
-3.37152
-4.86217
-6.80427
-9.04829
-11.3212
-13.293
-14.6605
-15.2623
-15.0465
-14.1275
-12.7258
-11.0837
-9.40006
-7.80393
-6.36331
-5.10461
-4.02832
-3.12046
-2.36063
-1.72726
-1.20058
-0.763953
-0.404073
-0.110466
0.125265
0.310148
0.450379
0.551646
0.619338
0.658554
0.674097
0.670435
0.651665
0.621485
0.583158
0.539485
0.492745
0.44476
0.396753
0.349715
0.303814
0.259848
0.21649
0.176244
0.133335
0.0988678
0.0490123
0.0324967
-15.6381
-15.7397
-15.8178
-15.8575
-15.8383
-15.7361
-15.5265
-15.1886
-14.709
-14.0864
-13.3367
-12.4952
-11.6165
-10.7688
-10.0285
-9.47233
-9.17119
-9.18963
-9.58063
-10.3801
-11.5996
-13.218
-15.1753
-17.3682
-19.654
-21.8628
-23.8197
-25.3634
-26.3697
-26.7549
-26.4979
-25.6305
-24.2304
-22.4118
-20.3093
-18.0632
-15.8015
-13.6245
-11.598
-9.7585
-8.12131
-6.68816
-5.45279
-4.40539
-3.53596
-2.83693
-2.30564
-1.94616
-1.77272
-1.80891
-2.09367
-2.67822
-3.61914
-4.95885
-6.67582
-8.64121
-10.6286
-12.3641
-13.5955
-14.1792
-14.0651
-13.3359
-12.1652
-10.7511
-9.26322
-7.81858
-6.48428
-5.29149
-4.24786
-3.34716
-2.57635
-1.92035
-1.36478
-0.897227
-0.507439
-0.186883
0.0717985
0.275301
0.42994
0.541846
0.616971
0.66102
0.679374
0.677023
0.658511
0.627907
0.588766
0.544116
0.496398
0.447542
0.398827
0.351264
0.304993
0.260805
0.217271
0.176967
0.13383
0.0994762
0.0489383
0.0333381
-15.4446
-15.5192
-15.5672
-15.5765
-15.531
-15.4114
-15.1994
-14.8798
-14.4437
-13.8928
-13.2422
-12.5222
-11.7785
-11.068
-10.4544
-10.0021
-9.77163
-9.81746
-10.1834
-10.8976
-11.967
-13.3709
-15.0561
-16.9344
-18.8863
-20.7704
-22.44
-23.7588
-24.6227
-24.9584
-24.7422
-23.997
-22.7844
-21.1968
-19.3458
-17.3494
-15.3173
-13.3383
-11.4749
-9.76511
-8.2285
-6.87189
-5.6941
-4.68989
-3.85306
-3.17902
-2.66702
-2.3219
-2.15679
-2.19287
-2.46182
-3.00488
-3.86367
-5.06426
-6.58013
-8.30008
-10.0362
-11.5616
-12.6673
-13.2269
-13.193
-12.6241
-11.6553
-10.4467
-9.1411
-7.84182
-6.61246
-5.48635
-4.47648
-3.58335
-2.80094
-2.12077
-1.53425
-1.03358
-0.611876
-0.262762
0.0200217
0.242831
0.412196
0.534773
0.617164
0.665755
0.686566
0.685155
0.666542
0.635186
0.59495
0.549093
0.500221
0.450368
0.400862
0.352729
0.306073
0.261667
0.217974
0.177635
0.134297
0.100083
0.048883
0.0342238
-15.2567
-15.3085
-15.3325
-15.3187
-15.2546
-15.1252
-14.9167
-14.6183
-14.2249
-13.7398
-13.1771
-12.5632
-11.9362
-11.3434
-10.8381
-10.4741
-10.3025
-10.3688
-10.7089
-11.3448
-12.28
-13.4945
-14.9416
-16.5463
-18.2084
-19.8101
-21.2289
-22.3513
-23.0875
-23.3745
-23.1885
-22.5442
-21.4897
-20.1001
-18.4678
-16.6918
-14.8658
-13.0684
-11.3577
-9.77198
-8.3336
-7.05328
-5.93396
-4.97429
-4.17138
-3.52323
-3.03072
-2.69924
-2.54077
-2.57396
-2.82422
-3.32403
-4.10299
-5.17485
-6.51024
-8.01316
-9.52767
-10.866
-11.8563
-12.388
-12.417
-11.984
-11.1924
-10.17
-9.03486
-7.87576
-6.7504
-5.69194
-4.71688
-3.83146
-3.03637
-2.32995
-1.70982
-1.17329
-0.717238
-0.337667
-0.029483
0.213373
0.397769
0.530988
0.620394
0.673144
0.69597
0.695045
0.675899
0.643402
0.601738
0.554403
0.504171
0.453174
0.402786
0.354033
0.306978
0.262359
0.218526
0.178176
0.134659
0.100602
0.0487579
0.0350481
-15.0763
-15.1093
-15.1143
-15.0836
-15.0071
-14.8736
-14.6728
-14.3974
-14.0449
-13.6196
-13.1348
-12.613
-12.0864
-11.5943
-11.181
-10.8914
-10.768
-10.8487
-11.1627
-11.7268
-12.5421
-13.5898
-14.8292
-16.1963
-17.6073
-18.9645
-20.1652
-21.1157
-21.7379
-21.9776
-21.812
-21.25
-20.329
-19.1096
-17.6679
-16.0866
-14.4459
-12.8148
-11.2468
-9.77928
-8.43639
-7.23161
-6.17119
-5.25699
-4.48896
-3.86729
-3.39422
-3.07551
-2.92193
-2.94954
-3.17861
-3.63388
-4.33538
-5.28783
-6.46066
-7.77103
-9.08958
-10.2612
-11.1458
-11.6471
-11.7255
-11.408
-10.7728
-9.92029
-8.9456
-7.92262
-6.90104
-5.91154
-4.97237
-4.09452
-3.28514
-2.54966
-1.8925
-1.31671
-0.823373
-0.411096
-0.076048
0.187669
0.387375
0.531132
0.627203
0.683626
0.707927
0.706946
0.686765
0.652684
0.609218
0.560109
0.508293
0.455999
0.404632
0.355214
0.307749
0.26293
0.218986
0.178657
0.134997
0.101131
0.0486687
0.0359332
-14.9038
-14.9216
-14.9121
-14.8693
-14.7855
-14.6522
-14.4621
-14.2103
-13.8963
-13.5252
-13.1088
-12.6669
-12.2262
-11.8196
-11.4839
-11.256
-11.1714
-11.2611
-11.5487
-12.0471
-12.7553
-13.6563
-14.7144
-15.8756
-17.0696
-18.2153
-19.2275
-20.0264
-20.5469
-20.7421
-20.5903
-20.0961
-19.2881
-18.2151
-16.9395
-15.5306
-14.0564
-12.5774
-11.1423
-9.78718
-8.53666
-7.40623
-6.40469
-5.53649
-4.80394
-4.20904
-3.75515
-3.44819
-3.29777
-3.31738
-3.52312
-3.93295
-4.55949
-5.40099
-6.42688
-7.56583
-8.71061
-9.73381
-10.5212
-10.991
-11.1078
-10.889
-10.3929
-9.6966
-8.87442
-7.98488
-7.06779
-6.14912
-5.24706
-4.37634
-3.55038
-2.78213
-2.0836
-1.46431
-0.930088
-0.482477
-0.118874
0.166583
0.381841
0.535935
0.638196
0.697677
0.722785
0.721097
0.699278
0.663085
0.617377
0.566144
0.512485
0.458718
0.406272
0.356143
0.308265
0.263268
0.219249
0.178974
0.135206
0.101547
0.048492
0.0367338
-14.741
-14.7466
-14.7263
-14.6754
-14.5882
-14.4583
-14.2806
-14.0524
-13.7743
-13.4516
-13.0953
-12.7221
-12.3547
-12.0203
-11.7493
-11.5722
-11.5181
-11.6124
-11.8738
-12.3119
-12.9248
-13.6966
-14.5968
-15.5795
-16.586
-17.5487
-18.3967
-19.0639
-19.4945
-19.6481
-19.5049
-19.0663
-18.3542
-17.4073
-16.2769
-15.0205
-13.6959
-12.356
-11.0446
-9.7958
-8.63423
-7.57658
-6.63347
-5.81141
-5.11458
-4.54648
-4.11131
-3.815
-3.66607
-3.67559
-3.85616
-4.22005
-4.77426
-5.51252
-6.40517
-7.391
-8.3811
-9.27187
-9.97009
-10.4077
-10.5543
-10.4205
-10.0491
-9.49791
-8.82235
-8.06524
-7.25466
-6.40952
-5.54606
-4.68172
-3.83605
-3.03021
-2.28476
-1.61668
-1.03721
-0.551133
-0.157015
0.151128
0.382126
0.54624
0.654074
0.715851
0.740972
0.737814
0.71367
0.674774
0.626338
0.572602
0.516822
0.461398
0.407765
0.35688
0.308589
0.263443
0.219394
0.179222
0.135397
0.101985
0.0483691
0.0376136
-14.5872
-14.5833
-14.5552
-14.4994
-14.4117
-14.2874
-14.1231
-13.9176
-13.6724
-13.3928
-13.0887
-12.7744
-12.469
-12.1951
-11.9775
-11.8414
-11.8107
-11.9056
-12.1411
-12.5241
-13.0519
-13.7103
-14.4729
-15.301
-16.1456
-16.9505
-17.6569
-18.2095
-18.561
-18.6768
-18.5388
-18.1463
-17.5157
-16.6779
-15.6744
-14.5532
-13.3632
-12.1502
-10.9537
-9.80525
-8.72899
-7.74217
-6.85666
-6.0805
-5.41933
-4.8778
-4.46072
-4.17394