/*--------------------------------*- C++ -*----------------------------------*\
| =========                 |                                                 |
| \\      /  F ield         | OpenFOAM: The Open Source CFD Toolbox           |
|  \\    /   O peration     | Version:  2.1.1                                 |
|   \\  /    A nd           | Web:      www.OpenFOAM.org                      |
|    \\/     M anipulation  |                                                 |
\*---------------------------------------------------------------------------*/
FoamFile
{
    version     2.0;
    format      ascii;
    class       surfaceScalarField;
    location    "0.1";
    object      phi;
}
// * * * * * * * * * * * * * * * * * * * * * * * * * * * * * * * * * * * * * //

dimensions      [0 3 -1 0 0 0 0];

internalField   nonuniform List<scalar> 
13452
(
4.59999e-05
2.24874e-05
2.96674e-05
1.63325e-05
2.11946e-05
8.47284e-06
1.7297e-05
3.89752e-06
1.56588e-05
1.6382e-06
1.48552e-05
8.03646e-07
1.43493e-05
5.05893e-07
1.39643e-05
3.85034e-07
1.36401e-05
3.24144e-07
1.33616e-05
2.78558e-07
1.31242e-05
2.3737e-07
1.29243e-05
1.99868e-07
1.27579e-05
1.66405e-07
1.26209e-05
1.36985e-07
1.25098e-05
1.11179e-07
1.24214e-05
8.83438e-08
1.23536e-05
6.78199e-08
1.23046e-05
4.90125e-08
1.22731e-05
3.14609e-08
1.22586e-05
1.45336e-08
1.22608e-05
-2.17654e-09
1.22787e-05
-1.79524e-08
1.23129e-05
-3.42108e-08
1.23636e-05
-5.07015e-08
1.2431e-05
-6.73526e-08
1.25154e-05
-8.44428e-08
1.26175e-05
-1.02127e-07
1.27369e-05
-1.19355e-07
1.28751e-05
-1.38198e-07
1.30239e-05
-1.48827e-07
1.3196e-05
-1.72064e-07
1.3306e-05
-1.10055e-07
-2.60056e-07
1.35661e-05
7.49139e-05
1.80175e-05
7.04173e-05
2.08291e-05
6.33337e-05
1.55564e-05
5.66865e-05
1.05447e-05
5.15783e-05
6.74637e-06
4.79316e-05
4.45036e-06
4.53203e-05
3.11722e-06
4.34023e-05
2.30307e-06
4.19445e-05
1.78194e-06
4.07972e-05
1.42583e-06
3.98683e-05
1.16623e-06
3.91002e-05
9.67963e-07
3.84554e-05
8.11261e-07
3.79084e-05
6.83967e-07
3.74415e-05
5.78067e-07
3.70419e-05
4.87978e-07
3.67e-05
4.09672e-07
3.64089e-05
3.40171e-07
3.61631e-05
2.7723e-07
3.59586e-05
2.19033e-07
3.5792e-05
1.64374e-07
3.56618e-05
1.12325e-07
3.5566e-05
6.15967e-08
3.5504e-05
1.12934e-08
3.54748e-05
-3.81713e-08
3.54783e-05
-8.79288e-08
3.55141e-05
-1.38e-07
3.55825e-05
-1.87703e-07
3.56828e-05
-2.38535e-07
3.58174e-05
-2.83416e-07
3.59828e-05
-3.37448e-07
3.62313e-05
-3.5858e-07
-4.47428e-07
3.64187e-05
7.85214e-05
1.19526e-05
8.23369e-05
1.70136e-05
8.29991e-05
1.48942e-05
8.14903e-05
1.20535e-05
7.89762e-05
9.26052e-06
7.62994e-05
7.1271e-06
7.37909e-05
5.62569e-06
7.15536e-05
4.54042e-06
6.96004e-05
3.73515e-06
6.79068e-05
3.11945e-06
6.64396e-05
2.63343e-06
6.5167e-05
2.24052e-06
6.4061e-05
1.91723e-06
6.30978e-05
1.64722e-06
6.22574e-05
1.4185e-06
6.15233e-05
1.22208e-06
6.08819e-05
1.05104e-06
6.03221e-05
8.99963e-07
5.98348e-05
7.64558e-07
5.94124e-05
6.41361e-07
5.90492e-05
5.27603e-07
5.87404e-05
4.21156e-07
5.8482e-05
3.19944e-07
5.82709e-05
2.22431e-07
5.8105e-05
1.27689e-07
5.79829e-05
3.41987e-08
5.79038e-05
-5.89388e-08
5.78675e-05
-1.5139e-07
5.78726e-05
-2.43628e-07
5.79206e-05
-3.31423e-07
5.80034e-05
-4.20253e-07
5.81343e-05
-4.89406e-07
-5.57684e-07
5.82445e-05
7.8147e-05
8.33222e-06
8.19241e-05
1.32365e-05
8.46215e-05
1.21969e-05
8.62468e-05
1.04282e-05
8.69296e-05
8.57767e-06
8.70229e-05
7.03384e-06
8.67688e-05
5.8798e-06
8.63092e-05
4.99998e-06
8.57353e-05
4.30904e-06
8.51025e-05
3.75226e-06
8.44451e-05
3.29081e-06
8.37857e-05
2.89994e-06
8.31399e-05
2.56305e-06
8.25186e-05
2.26855e-06
8.19285e-05
2.00852e-06
8.13739e-05
1.7767e-06
8.0857e-05
1.56794e-06
8.0379e-05
1.37799e-06
7.99402e-05
1.20333e-06
7.95406e-05
1.04094e-06
7.91799e-05
8.88341e-07
7.88576e-05
7.43428e-07
7.85733e-05
6.04242e-07
7.83266e-05
4.69174e-07
7.81172e-05
3.37081e-07
7.79446e-05
2.06806e-07
7.78082e-05
7.74363e-08
7.77083e-05
-5.14669e-08
7.7645e-05
-1.80349e-07
7.76203e-05
-3.06729e-07
7.76318e-05
-4.31684e-07
7.76888e-05
-5.46471e-07
-6.49217e-07
7.77804e-05
7.8992e-05
5.9961e-06
8.15927e-05
1.06358e-05
8.35211e-05
1.02685e-05
8.4967e-05
8.98229e-06
8.59879e-05
7.55675e-06
8.67328e-05
6.28895e-06
8.73043e-05
5.30836e-06
8.77504e-05
4.55382e-06
8.81029e-05
3.95657e-06
8.83829e-05
3.47229e-06
8.86046e-05
3.06904e-06
8.87793e-05
2.72525e-06
8.89149e-05
2.42742e-06
8.90176e-05
2.16594e-06
8.90932e-05
1.9329e-06
8.91474e-05
1.72245e-06
8.91852e-05
1.53012e-06
8.92109e-05
1.35228e-06
8.92283e-05
1.18596e-06
8.92406e-05
1.02866e-06
8.92507e-05
8.78247e-07
8.92612e-05
7.32923e-07
8.92744e-05
5.91054e-07
8.92923e-05
4.51258e-07
8.93169e-05
3.12503e-07
8.93499e-05
1.73761e-07
8.93924e-05
3.49722e-08
8.94449e-05
-1.03969e-07
8.95083e-05
-2.43744e-07
8.95854e-05
-3.83843e-07
8.96781e-05
-5.24403e-07
8.97939e-05
-6.62265e-07
-7.95537e-07
8.99402e-05
8.04636e-05
4.3784e-06
8.25072e-05
8.59225e-06
8.39953e-05
8.78034e-06
8.50574e-05
7.92017e-06
8.57835e-05
6.83068e-06
8.6302e-05
5.77037e-06
8.67146e-05
4.8958e-06
8.70685e-05
4.1999e-06
8.73871e-05
3.63795e-06
8.76822e-05
3.17727e-06
8.79587e-05
2.79249e-06
8.82194e-05
2.46458e-06
8.84665e-05
2.18031e-06
8.87021e-05
1.93037e-06
8.89272e-05
1.70774e-06
8.91428e-05
1.50687e-06
8.93496e-05
1.32335e-06
8.95483e-05
1.15358e-06
8.97396e-05
9.94602e-07
8.99244e-05
8.4392e-07
9.01032e-05
6.99418e-07
9.02768e-05
5.59295e-07
9.04459e-05
4.21955e-07
9.06111e-05
2.86041e-07
9.07732e-05
1.50438e-07
9.09327e-05
1.4287e-08
9.10908e-05
-1.23117e-07
9.12496e-05
-2.62819e-07
9.14111e-05
-4.05269e-07
9.15778e-05
-5.50524e-07
9.17527e-05
-6.99334e-07
9.19424e-05
-8.51953e-07
-1.0106e-06
9.21575e-05
8.22346e-05
3.2423e-06
8.38963e-05
6.93055e-06
8.51863e-05
7.49037e-06
8.61232e-05
6.98332e-06
8.67691e-05
6.18474e-06
8.72142e-05
5.32524e-06
8.75464e-05
4.56365e-06
8.78149e-05
3.93135e-06
8.80466e-05
3.40629e-06
8.82568e-05
2.96704e-06
8.84539e-05
2.59543e-06
8.86422e-05
2.27631e-06
8.88242e-05
1.99829e-06
8.90015e-05
1.75302e-06
8.91753e-05
1.534e-06
8.93461e-05
1.33606e-06
8.95144e-05
1.15499e-06
8.96807e-05
9.87348e-07
8.9845e-05
8.30247e-07
9.00077e-05
6.81241e-07
9.01689e-05
5.38234e-07
9.03288e-05
3.99419e-07
9.04875e-05
2.63196e-07
9.06454e-05
1.2817e-07
9.08027e-05
-6.91231e-09
9.09603e-05
-1.43313e-07
9.11191e-05
-2.81915e-07
9.128e-05
-4.23689e-07
9.14443e-05
-5.69538e-07
9.16141e-05
-7.20341e-07
9.17924e-05
-8.77679e-07
9.19843e-05
-1.04383e-06
-1.22261e-06
9.21963e-05
8.42171e-05
2.44074e-06
8.55525e-05
5.5952e-06
8.66769e-05
6.36596e-06
8.75376e-05
6.12255e-06
8.81679e-05
5.55446e-06
8.86206e-05
4.87255e-06
8.8961e-05
4.22321e-06
8.92329e-05
3.65948e-06
8.94619e-05
3.17732e-06
8.96641e-05
2.76486e-06
8.9849e-05
2.41046e-06
9.00224e-05
2.1029e-06
9.01878e-05
1.83295e-06
9.03474e-05
1.59343e-06
9.05028e-05
1.3786e-06
9.06551e-05
1.18375e-06
9.08051e-05
1.00498e-06
9.09534e-05
8.3902e-07
9.11006e-05
6.83125e-07
9.12469e-05
5.34931e-07
9.13927e-05
3.92396e-07
9.15384e-05
2.53734e-07
9.16842e-05
1.17364e-07
9.18306e-05
-1.81709e-08
9.19778e-05
-1.54125e-07
9.21262e-05
-2.91712e-07
9.22764e-05
-4.32096e-07
9.24291e-05
-5.76461e-07
9.25857e-05
-7.26067e-07
9.27477e-05
-8.82367e-07
9.29175e-05
-1.04753e-06
9.30986e-05
-1.22486e-06
-1.41841e-06
9.32944e-05
8.63725e-05
1.86697e-06
8.74431e-05
4.52455e-06
8.84169e-05
5.39217e-06
8.91978e-05
5.34173e-06
8.97988e-05
4.95345e-06
9.02506e-05
4.4207e-06
9.06005e-05
3.87335e-06
9.08849e-05
3.37511e-06
9.11263e-05
2.93587e-06
9.13394e-05
2.55174e-06
9.15335e-05
2.21639e-06
9.17143e-05
1.92213e-06
9.18854e-05
1.66178e-06
9.20495e-05
1.42935e-06
9.22082e-05
1.21986e-06
9.23629e-05
1.02908e-06
9.25145e-05
8.53437e-07
9.26636e-05
6.89905e-07
9.28108e-05
5.35874e-07
9.29567e-05
3.89089e-07
9.31015e-05
2.47573e-07
9.32456e-05
1.09585e-07
9.33894e-05
-2.64406e-08
9.35332e-05
-1.61924e-07
9.36772e-05
-2.98162e-07
9.3822e-05
-4.36439e-07
9.39679e-05
-5.78023e-07
9.41157e-05
-7.24231e-07
9.42661e-05
-8.76547e-07
9.44205e-05
-1.03676e-06
9.45803e-05
-1.20726e-06
9.47471e-05
-1.39166e-06
-1.59335e-06
9.4922e-05
8.8668e-05
1.44899e-06
8.95266e-05
3.66597e-06
9.03668e-05
4.55189e-06
9.10721e-05
4.63646e-06
9.16395e-05
4.38608e-06
9.20842e-05
3.97603e-06
9.2438e-05
3.51946e-06
9.27303e-05
3.08286e-06
9.29804e-05
2.68573e-06
9.32017e-05
2.33048e-06
9.3403e-05
2.01509e-06
9.35901e-05
1.73502e-06
9.37668e-05
1.48504e-06
9.39358e-05
1.26038e-06
9.40988e-05
1.05684e-06
9.42572e-05
8.70718e-07
9.44118e-05
6.98787e-07
9.45635e-05
5.38246e-07
9.47127e-05
3.86653e-07
9.48599e-05
2.4186e-07
9.50056e-05
1.0197e-07
9.51498e-05
-3.4713e-08
9.52931e-05
-1.69721e-07
9.54357e-05
-3.04458e-07
9.55777e-05
-4.40241e-07
9.57197e-05
-5.7837e-07
9.58618e-05
-7.20157e-07
9.60046e-05
-8.66994e-07
9.61485e-05
-1.02045e-06
9.62941e-05
-1.18241e-06
9.64421e-05
-1.35521e-06
9.65926e-05
-1.54222e-06
-1.74592e-06
9.67452e-05
9.10817e-05
1.13858e-06
9.17723e-05
2.97543e-06
9.24964e-05
3.82781e-06
9.31326e-05
4.00016e-06
9.36654e-05
3.85337e-06
9.40988e-05
3.5426e-06
9.4453e-05
3.16524e-06
9.47505e-05
2.78541e-06
9.50077e-05
2.42852e-06
9.52363e-05
2.10186e-06
9.54445e-05
1.80684e-06
9.5638e-05
1.54158e-06
9.58203e-05
1.30268e-06
9.59942e-05
1.0865e-06
9.61615e-05
8.89594e-07
9.63234e-05
7.0878e-07
9.6481e-05
5.41187e-07
9.6635e-05
3.84255e-07
9.67859e-05
2.3571e-07
9.69343e-05
9.35288e-08
9.70803e-05
-4.41005e-08
9.72244e-05
-1.78808e-07
9.73668e-05
-3.12076e-07
9.75076e-05
-4.45284e-07
9.76471e-05
-5.79736e-07
9.77855e-05
-7.16715e-07
9.79228e-05
-8.57527e-07
9.80594e-05
-1.00355e-06
9.81952e-05
-1.15631e-06
9.83304e-05
-1.3176e-06
9.84647e-05
-1.48947e-06
9.85973e-05
-1.6748e-06
-1.87509e-06
9.87264e-05
9.36001e-05
9.03172e-07
9.41583e-05
2.41717e-06
9.47816e-05
3.2045e-06
9.53545e-05
3.4273e-06
9.58523e-05
3.3556e-06
9.62718e-05
3.12308e-06
9.66241e-05
2.81291e-06
9.69254e-05
2.48409e-06
9.71891e-05
2.16489e-06
9.74249e-05
1.86605e-06
9.76402e-05
1.59155e-06
9.78401e-05
1.34164e-06
9.80283e-05
1.11447e-06
9.82074e-05
9.07454e-07
9.83791e-05
7.17872e-07
9.85448e-05
5.43045e-07
9.87055e-05
3.80455e-07
9.8862e-05
2.27793e-07
9.90148e-05
8.29658e-08
9.91642e-05
-5.59199e-08
9.93107e-05
-1.90574e-07
9.94544e-05
-3.22548e-07
9.95956e-05
-4.53269e-07
9.97344e-05
-5.84062e-07
9.98708e-05
-7.16189e-07
0.000100005
-8.50881e-07
0.000100137
-9.8938e-07
0.000100266
-1.13298e-06
0.000100393
-1.28306e-06
0.000100517
-1.4412e-06
0.000100636
-1.60906e-06
0.00010075
-1.7889e-06
-1.98133e-06
0.000100857
9.62144e-05
7.20823e-07
9.6669e-05
1.96263e-06
9.72058e-05
2.66766e-06
9.77211e-05
2.912e-06
9.81848e-05
2.89188e-06
9.85886e-05
2.7193e-06
9.89367e-05
2.46479e-06
9.924e-05
2.18086e-06
9.95086e-05
1.89628e-06
9.97507e-05
1.62394e-06
9.99726e-05
1.36965e-06
0.000100179
1.13527e-06
0.000100373
9.20271e-07
0.000100558
7.22999e-07
0.000100734
5.41386e-07
0.000100904
3.73228e-07
0.000101068
2.16347e-07
0.000101227
6.86774e-08
0.000101382
-7.16923e-08
0.000101532
-2.06516e-07
0.000101679
-3.37394e-07
0.000101822
-4.65794e-07
0.000101962
-5.93065e-07
0.000102099
-7.20461e-07
0.000102232
-8.49171e-07
0.000102361
-9.80338e-07
0.000102487
-1.1151e-06
0.000102608
-1.2546e-06
0.000102725
-1.40003e-06
0.000102837
-1.55264e-06
0.000102941
-1.71368e-06
0.000103037
-1.88479e-06
-2.06582e-06
0.000103122
9.892e-05
5.76571e-07
9.92934e-05
1.58919e-06
9.97568e-05
2.2043e-06
0.00010022
2.44852e-06
0.000100651
2.46079e-06
0.000101038
2.33246e-06
0.00010138
2.12278e-06
0.000101684
1.87736e-06
0.000101956
1.62388e-06
0.000102204
1.37627e-06
0.000102432
1.14152e-06
0.000102645
9.22659e-07
0.000102845
7.20157e-07
0.000103034
5.33147e-07
0.000103216
3.60132e-07
0.00010339
1.99333e-07
0.000103557
4.88858e-08
0.000103719
-9.3037e-08
0.000103875
-2.28167e-07
0.000104027
-3.58118e-07
0.000104174
-4.84377e-07
0.000104316
-6.08311e-07
0.000104454
-7.31179e-07
0.000104588
-8.54145e-07
0.000104717
-9.783e-07
0.000104842
-1.10467e-06
0.000104961
-1.23426e-06
0.000105074
-1.36802e-06
0.000105181
-1.50691e-06
0.00010528
-1.65186e-06
0.00010537
-1.80369e-06
0.000105449
-1.96345e-06
-2.13043e-06
0.000105514
0.000101714
4.60118e-07
0.000102024
1.27914e-06
0.000102426
1.80278e-06
0.000102843
2.03116e-06
0.000103244
2.06031e-06
0.000103613
1.96288e-06
0.000103948
1.78812e-06
0.00010425
1.57493e-06
0.000104525
1.34886e-06
0.000104778
1.12396e-06
0.000105011
9.0783e-07
0.00010523
7.04233e-07
0.000105436
5.14389e-07
0.000105631
3.38047e-07
0.000105817
1.74187e-07
0.000105994
2.13983e-08
0.000106165
-1.21897e-07
0.00010633
-2.57307e-07
0.000106488
-3.86393e-07
0.00010664
-5.10629e-07
0.000106787
-6.31385e-07
0.000106929
-7.49922e-07
0.000107065
-8.67397e-07
0.000107196
-9.84869e-07
0.000107321
-1.10331e-06
0.00010744
-1.22363e-06
0.000107552
-1.34664e-06
0.000107657
-1.47313e-06
0.000107754
-1.60378e-06
0.000107842
-1.73922e-06
0.000107918
-1.87987e-06
0.000107981
-2.0263e-06
-2.1774e-06
0.000108028
0.000104596
3.64259e-07
0.000104857
1.0186e-06
0.000105207
1.45286e-06
0.000105584
1.65434e-06
0.000105956
1.688e-06
0.000106308
1.61029e-06
0.000106635
1.46161e-06
0.000106935
1.27464e-06
0.000107212
1.07218e-06
0.000107468
8.67761e-07
0.000107707
6.69102e-07
0.000107931
4.8034e-07
0.000108142
3.03183e-07
0.000108342
1.37833e-07
0.000108533
-1.63567e-08
0.000108715
-1.60492e-07
0.000108889
-2.9591e-07
0.000109055
-4.24024e-07
0.000109215
-5.46237e-07
0.000109368
-6.63892e-07
0.000109515
-7.78238e-07
0.000109656
-8.90427e-07
0.00010979
-1.00151e-06
0.000109917
-1.11242e-06
0.000110038
-1.22403e-06
0.000110152
-1.33707e-06
0.000110257
-1.45222e-06
0.000110354
-1.57004e-06
0.000110441
-1.69099e-06
0.000110518
-1.81541e-06
0.000110581
-1.94339e-06
0.00011063
-2.07512e-06
-2.20922e-06
0.000110662
0.000107566
2.83861e-07
0.000107788
7.96783e-07
0.000108095
1.1456e-06
0.000108437
1.31272e-06
0.000108784
1.34114e-06
0.00010912
1.27383e-06
0.000109439
1.14347e-06
0.000109736
9.77086e-07
0.000110014
7.94531e-07
0.000110273
6.08291e-07
0.000110517
4.25825e-07
0.000110746
2.51342e-07
0.000110962
8.68001e-08
0.000111167
-6.73075e-08
0.000111362
-2.11359e-07
0.000111548
-3.4623e-07
0.000111725
-4.7306e-07
0.000111894
-5.931e-07
0.000112055
-7.07612e-07
0.000112209
-8.17811e-07
0.000112356
-9.24836e-07
0.000112495
-1.02973e-06
0.000112627
-1.13343e-06
0.000112751
-1.23675e-06
0.000112868
-1.34044e-06
0.000112976
-1.44509e-06
0.000113075
-1.5512e-06
0.000113164
-1.65916e-06
0.000113242
-1.76921e-06
0.000113308
-1.88144e-06
0.000113361
-1.9957e-06
0.000113397
-2.11188e-06
-2.22844e-06
0.000113416
0.000110626
2.15185e-07
0.000110817
6.05197e-07
0.000111089
8.73265e-07
0.000111401
1.00117e-06
0.000111725
1.01679e-06
0.000112047
9.52202e-07
0.000112357
8.33431e-07
0.000112652
6.82524e-07
0.00011293
5.16325e-07
0.000113192
3.45967e-07
0.00011344
1.7835e-07
0.000113673
1.75036e-08
0.000113895
-1.3457e-07
0.000114105
-2.7724e-07
0.000114304
-4.10721e-07
0.000114494
-5.35732e-07
0.000114674
-6.5327e-07
0.000114845
-7.64452e-07
0.000115008
-8.70423e-07
0.000115162
-9.72288e-07
0.000115309
-1.07108e-06
0.000115447
-1.16774e-06
0.000115576
-1.26309e-06
0.000115697
-1.35785e-06
0.00011581
-1.45261e-06
0.000115912
-1.54785e-06
0.000116005
-1.64392e-06
0.000116087
-1.74104e-06
0.000116157
-1.83925e-06
0.000116214
-1.93848e-06
0.000116257
-2.03838e-06
0.000116284
-2.13863e-06
-2.23768e-06
0.000116293
0.000113775
1.55443e-07
0.000113943
4.37148e-07
0.000114187
6.2919e-07
0.000114474
7.14862e-07
0.000114779
7.11862e-07
0.000115087
6.43712e-07
0.00011539
5.3078e-07
0.000115681
3.90762e-07
0.00011596
2.37613e-07
0.000116225
8.09279e-08
0.000116477
-7.31799e-08
0.000116715
-2.21062e-07
0.000116942
-3.60851e-07
0.000117156
-4.91915e-07
0.00011736
-6.14414e-07
0.000117553
-7.28983e-07
0.000117736
-8.36528e-07
0.00011791
-9.38072e-07
0.000118074
-1.03467e-06
0.000118229
-1.12733e-06
0.000118375
-1.217e-06
0.000118512
-1.30451e-06
0.00011864
-1.3906e-06
0.000118758
-1.47587e-06
0.000118866
-1.5608e-06
0.000118964
-1.64575e-06
0.000119051
-1.73094e-06
0.000119126
-1.81643e-06
0.000119189
-1.90216e-06
0.000119238
-1.98788e-06
0.000119273
-2.07312e-06
0.000119292
-2.15746e-06
-2.23934e-06
0.000119294
0.000117017
1.02497e-07
0.000117167
2.87271e-07
0.000117389
4.07605e-07
0.000117654
4.49236e-07
0.000117943
4.2316e-07
0.00011824
3.46324e-07
0.000118537
2.34367e-07
0.000118826
1.01216e-07
0.000119106
-4.18755e-08
0.000119374
-1.86939e-07
0.000119629
-3.28804e-07
0.000119873
-4.64367e-07
0.000120104
-5.92046e-07
0.000120323
-7.11337e-07
0.000120531
-8.22438e-07
0.000120728
-9.25978e-07
0.000120915
-1.02282e-06
0.000121091
-1.11394e-06
0.000121256
-1.20033e-06
0.000121412
-1.28292e-06
0.000121557
-1.36259e-06
0.000121693
-1.44008e-06
0.000121818
-1.51605e-06
0.000121934
-1.59099e-06
0.000122038
-1.66529e-06
0.000122131
-1.73921e-06
0.000122213
-1.81284e-06
0.000122283
-1.88616e-06
0.00012234
-1.95898e-06
0.000122383
-2.03097e-06
0.000122411
-2.1016e-06
0.000122424
-2.17036e-06
-2.23579e-06
0.000122421
0.000120354
5.46631e-08
0.00012049
1.51186e-07
0.000120694
2.03462e-07
0.000120943
1.99963e-07
0.000121219
1.47376e-07
0.000121508
5.76842e-08
0.0001218
-5.73822e-08
0.000122088
-1.87146e-07
0.000122369
-3.22833e-07
0.00012264
-4.58124e-07
0.0001229
-5.88897e-07
0.000123148
-7.12721e-07
0.000123385
-8.28426e-07
0.000123609
-9.35748e-07
0.000123822
-1.03501e-06
0.000124023
-1.12692e-06
0.000124212
-1.21234e-06
0.000124391
-1.29224e-06
0.000124558
-1.36758e-06
0.000124714
-1.43925e-06
0.00012486
-1.50806e-06
0.000124994
-1.5747e-06
0.000125118
-1.63973e-06
0.000125231
-1.70358e-06
0.000125332
-1.76656e-06
0.000125421
-1.82883e-06
0.000125499
-1.89041e-06
0.000125564
-1.95118e-06
0.000125616
-2.0109e-06
0.000125654
-2.06917e-06
0.000125678
-2.12543e-06
0.000125687
-2.17917e-06
-2.22901e-06
0.00012568
0.000123787
1.05628e-08
0.000123913
2.5227e-08
0.000124104
1.22734e-08
0.000124341
-3.71022e-08
0.000124608
-1.18905e-07
0.00012489
-2.24851e-07
0.000125179
-3.46418e-07
0.000125468
-4.75729e-07
0.000125751
-6.06277e-07
0.000126027
-7.33371e-07
0.000126292
-8.54012e-07
0.000126546
-9.66541e-07
0.000126787
-1.07031e-06
0.000127017
-1.16539e-06
0.000127234
-1.25233e-06
0.000127439
-1.33194e-06
0.000127632
-1.40518e-06
0.000127813
-1.47305e-06
0.000127982
-1.53649e-06
0.000128139
-1.59639e-06
0.000128285
-1.65352e-06
0.000128418
-1.7085e-06
0.000128541
-1.76186e-06
0.000128651
-1.81395e-06
0.000128749
-1.86502e-06
0.000128836
-1.91516e-06
0.00012891
-1.96432e-06
0.000128971
-2.01236e-06
0.000129019
-2.05896e-06
0.000129053
-2.10373e-06
0.000129074
-2.14611e-06
0.00012908
-2.18559e-06
-2.22095e-06
0.000129072
0.00012732
-3.09884e-08
0.000127439
-9.37958e-08
0.000127621
-1.70073e-07
0.00012785
-2.66027e-07
0.000128111
-3.79282e-07
0.00012839
-5.04298e-07
0.000128679
-6.35186e-07
0.00012897
-7.66501e-07
0.000129257
-8.93804e-07
0.000129538
-1.014e-06
0.000129809
-1.12526e-06
0.000130069
-1.22677e-06
0.000130318
-1.31851e-06
0.000130553
-1.40097e-06
0.000130776
-1.47499e-06
0.000130985
-1.54158e-06
0.000131182
-1.60183e-06
0.000131366
-1.6568e-06
0.000131537
-1.70748e-06
0.000131695
-1.75474e-06
0.000131841
-1.79935e-06
0.000131974
-1.84191e-06
0.000132095
-1.88289e-06
0.000132204
-1.92262e-06
0.0001323
-1.96127e-06
0.000132384
-1.9989e-06
0.000132455
-2.03543e-06
0.000132514
-2.07067e-06
0.000132559
-2.10429e-06
0.000132591
-2.1359e-06
0.00013261
-2.16496e-06
0.000132615
-2.191e-06
-2.2129e-06
0.000132607
0.000130955
-7.10271e-08
0.00013107
-2.08765e-07
0.000131247
-3.47461e-07
0.000131472
-4.90867e-07
0.00013173
-6.37528e-07
0.00013201
-7.83956e-07
0.000132301
-9.2645e-07
0.000132596
-1.06171e-06
0.00013289
-1.18721e-06
0.000133177
-1.30143e-06
0.000133456
-1.40376e-06
0.000133723
-1.4943e-06
0.000133979
-1.57372e-06
0.000134221
-1.64303e-06
0.000134449
-1.70343e-06
0.000134664
-1.75618e-06
0.000134864
-1.80255e-06
0.000135051
-1.84371e-06
0.000135225
-1.88072e-06
0.000135384
-1.91448e-06
0.000135531
-1.94576e-06
0.000135664
-1.97516e-06
0.000135784
-2.00312e-06
0.000135892
-2.02993e-06
0.000135986
-2.05575e-06
0.000136068
-2.0806e-06
0.000136137
-2.10438e-06
0.000136193
-2.12687e-06
0.000136236
-2.14777e-06
0.000136267
-2.16669e-06
0.000136285
-2.18313e-06
0.000136291
-2.19669e-06
-2.2064e-06
0.000136284
0.000134695
-1.10549e-07
0.000134808
-3.22463e-07
0.000134985
-5.23783e-07
0.00013521
-7.15921e-07
0.00013547
-8.97901e-07
0.000135754
-1.06782e-06
0.000136051
-1.22382e-06
0.000136354
-1.36456e-06
0.000136656
-1.48933e-06
0.000136953
-1.59815e-06
0.000137241
-1.69166e-06
0.000137518
-1.77098e-06
0.000137781
-1.83754e-06
0.000138031
-1.89293e-06
0.000138267
-1.9388e-06
0.000138487
-1.97672e-06
0.000138693
-2.00818e-06
0.000138884
-2.03451e-06
0.00013906
-2.05685e-06
0.000139221
-2.07618e-06
0.000139369
-2.09329e-06
0.000139503
-2.10877e-06
0.000139623
-2.12307e-06
0.000139729
-2.13646e-06
0.000139822
-2.14907e-06
0.000139903
-2.16092e-06
0.00013997
-2.17189e-06
0.000140025
-2.18177e-06
0.000140068
-2.19025e-06
0.000140098
-2.19697e-06
0.000140116
-2.20148e-06
0.000140123
-2.2034e-06
-2.20186e-06
0.000140118
0.000138542
-1.5055e-07
0.000138657
-4.37676e-07
0.000138837
-7.03001e-07
0.000139066
-9.45629e-07
0.000139333
-1.16482e-06
0.000139625
-1.35997e-06
0.000139933
-1.53092e-06
0.000140246
-1.67815e-06
0.00014056
-1.80273e-06
0.000140868
-1.90626e-06
0.000141167
-1.99069e-06
0.000141454
-2.05821e-06
0.000141727
-2.1111e-06
0.000141986
-2.1516e-06
0.000142229
-2.18186e-06
0.000142456
-2.20382e-06
0.000142667
-2.21923e-06
0.000142862
-2.22962e-06
0.000143042
-2.23625e-06
0.000143206
-2.24018e-06
0.000143355
-2.24223e-06
0.000143489
-2.24305e-06
0.000143609
-2.24306e-06
0.000143715
-2.24254e-06
0.000143808
-2.24162e-06
0.000143887
-2.2403e-06
0.000143954
-2.23846e-06
0.000144008
-2.2359e-06
0.00014405
-2.23232e-06
0.00014408
-2.22741e-06
0.0001441
-2.22075e-06
0.000144108
-2.21204e-06
-2.2005e-06
0.000144107
0.000142501
-1.92133e-07
0.000142621
-5.57535e-07
0.000142807
-8.89726e-07
0.000143047
-1.18546e-06
0.000143327
-1.44412e-06
0.000143633
-1.66627e-06
0.000143955
-1.85336e-06
0.000144285
-2.00766e-06
0.000144614
-2.13209e-06
0.000144938
-2.22988e-06
0.000145251
-2.3044e-06
0.000145552
-2.35901e-06
0.000145838
-2.39692e-06
0.000146108
-2.42112e-06
0.00014636
-2.43429e-06
0.000146595
-2.43884e-06
0.000146813
-2.4368e-06
0.000147013
-2.42992e-06
0.000147196
-2.41962e-06
0.000147363
-2.40706e-06
0.000147514
-2.39311e-06
0.000147649
-2.37845e-06
0.00014777
-2.36352e-06
0.000147876
-2.34861e-06
0.000147968
-2.33382e-06
0.000148047
-2.31917e-06
0.000148113
-2.30453e-06
0.000148167
-2.2897e-06
0.000148209
-2.27442e-06
0.00014824
-2.25835e-06
0.00014826
-2.24114e-06
0.000148271
-2.22248e-06
-2.20166e-06
0.000148272
0.000146574
-2.36472e-07
0.000146701
-6.85351e-07
0.0001469
-1.08866e-06
0.000147156
-1.44069e-06
0.000147453
-1.74106e-06
0.000147778
-1.99162e-06
0.00014812
-2.19551e-06
0.000148469
-2.35695e-06
0.000148818
-2.48077e-06
0.00014916
-2.57196e-06
0.000149491
-2.63537e-06
0.000149808
-2.67562e-06
0.000150108
-2.69695e-06
0.00015039
-2.70316e-06
0.000150653
-2.69756e-06
0.000150897
-2.68302e-06
0.000151122
-2.66194e-06
0.000151329
-2.63631e-06
0.000151517
-2.60772e-06
0.000151687
-2.57745e-06
0.000151841
-2.54645e-06
0.000151978
-2.51542e-06
0.000152099
-2.48484e-06
0.000152205
-2.45499e-06
0.000152297
-2.42598e-06
0.000152376
-2.39781e-06
0.000152442
-2.37036e-06
0.000152496
-2.34345e-06
0.000152538
-2.3168e-06
0.00015257
-2.29012e-06
0.000152592
-2.26307e-06
0.000152605
-2.23541e-06
-2.20649e-06
0.000152609
0.000150764
-2.85286e-07
0.000150905
-8.25967e-07
0.000151124
-1.3071e-06
0.000151403
-1.72021e-06
0.000151727
-2.06534e-06
0.000152082
-2.34582e-06
0.000152453
-2.5667e-06
0.00015283
-2.73443e-06
0.000153206
-2.85607e-06
0.000153572
-2.93859e-06
0.000153925
-2.98856e-06
0.000154262
-3.01199e-06
0.000154579
-3.01427e-06
0.000154876
-3.00008e-06
0.000155152
-2.97341e-06
0.000155406
-2.93765e-06
0.00015564
-2.89557e-06
0.000155853
-2.84941e-06
0.000156046
-2.80098e-06
0.000156221
-2.75164e-06
0.000156377
-2.70243e-06
0.000156515
-2.65408e-06
0.000156637
-2.60707e-06
0.000156744
-2.5617e-06
0.000156836
-2.51808e-06
0.000156915
-2.47618e-06
0.00015698
-2.43589e-06
0.000157034
-2.39699e-06
0.000157076
-2.35923e-06
0.000157108
-2.32229e-06
0.000157131
-2.28584e-06
0.000157145
-2.24961e-06
-2.21294e-06
0.000157152
0.000155076
-3.39989e-07
0.000155234
-9.83536e-07
0.000155477
-1.5505e-06
0.000155787
-2.0297e-06
0.000156144
-2.42245e-06
0.000156532
-2.73416e-06
0.000156938
-2.97211e-06
0.000157348
-3.14526e-06
0.000157756
-3.2631e-06
0.000158152
-3.33478e-06
0.000158532
-3.36874e-06
0.000158892
-3.37257e-06
0.000159231
-3.35291e-06
0.000159546
-3.31545e-06
0.000159838
-3.26495e-06
0.000160106
-3.20536e-06
0.00016035
-3.13988e-06
0.000160572
-3.07105e-06
0.000160772
-3.00084e-06
0.000160951
-2.93076e-06
0.00016111
-2.86191e-06
0.000161251
-2.79506e-06
0.000161375
-2.73069e-06
0.000161482
-2.66909e-06
0.000161574
-2.61035e-06
0.000161653
-2.55442e-06
0.000161718
-2.50116e-06
0.000161771
-2.45036e-06
0.000161814
-2.40172e-06
0.000161846
-2.35496e-06
0.00016187
-2.30973e-06
0.000161887
-2.2658e-06
-2.22252e-06
0.000161896
0.000159515
-4.04818e-07
0.000159701
-1.16904e-06
0.000159985
-1.83483e-06
0.000160343
-2.38769e-06
0.000160752
-2.83127e-06
0.000161192
-3.17403e-06
0.000161646
-3.42653e-06
0.000162102
-3.60126e-06
0.00016255
-3.71088e-06
0.000162982
-3.76711e-06
0.000163394
-3.78054e-06
0.000163782
-3.76045e-06
0.000164144
-3.71485e-06
0.000164479
-3.65045e-06
0.000164787
-3.57278e-06
0.000165068
-3.48638e-06
0.000165323
-3.39484e-06
0.000165553
-3.30098e-06
0.000165759
-3.20697e-06
0.000165943
-3.1144e-06
0.000166105
-3.02444e-06
0.000166248
-2.93786e-06
0.000166372
-2.85514e-06
0.00016648
-2.77654e-06
0.000166572
-2.70211e-06
0.000166649
-2.63177e-06
0.000166713
-2.56535e-06
0.000166765
-2.50258e-06
0.000166807
-2.44314e-06
0.000166838
-2.3867e-06
0.000166862
-2.33286e-06
0.000166877
-2.28132e-06
-2.23137e-06
0.000166886
0.000164081
-4.79561e-07
0.000164296
-1.38459e-06
0.000164624
-2.16223e-06
0.000165033
-2.79676e-06
0.000165498
-3.29631e-06
0.000165997
-3.67264e-06
0.00016651
-3.93968e-06
0.000167022
-4.11388e-06
0.000167523
-4.21161e-06
0.000168004
-4.24772e-06
0.000168458
-4.23536e-06
0.000168884
-4.18594e-06
0.000169278
-4.10908e-06
0.00016964
-4.01268e-06
0.000169971
-3.90321e-06
0.00017027
-3.78581e-06
0.00017054
-3.66451e-06
0.000170781
-3.54241e-06
0.000170996
-3.42182e-06
0.000171186
-3.30443e-06
0.000171353
-3.19141e-06
0.000171499
-3.08351e-06
0.000171625
-2.98117e-06
0.000171733
-2.88457e-06
0.000171825
-2.79372e-06
0.000171901
-2.70848e-06
0.000171964
-2.62859e-06
0.000172016
-2.55375e-06
0.000172056
-2.4836e-06
0.000172087
-2.41777e-06
0.00017211
-2.35584e-06
0.000172126
-2.29751e-06
-2.24205e-06
0.000172137
0.000168794
-5.81495e-07
0.000169075
-1.666e-06
0.00016949
-2.57667e-06
0.000169992
-3.29876e-06
0.000170547
-3.85144e-06
0.000171128
-4.25395e-06
0.000171715
-4.52649e-06
0.000172292
-4.69128e-06
0.00017285
-4.76892e-06
0.000173379
-4.77744e-06
0.000173876
-4.73257e-06
0.000174338
-4.64774e-06
0.000174763
-4.53409e-06
0.000175151
-4.40071e-06
0.000175503
-4.2549e-06
0.00017582
-4.10241e-06
0.000176103
-3.94769e-06
0.000176354
-3.7941e-06
0.000176577
-3.64409e-06
0.000176772
-3.4994e-06
0.000176942
-3.3612e-06
0.000177088
-3.2302e-06
0.000177214
-3.10676e-06
0.00017732
-2.99097e-06
0.000177409
-2.88274e-06
0.000177483
-2.78183e-06
0.000177542
-2.68792e-06
0.000177589
-2.60061e-06
0.000177625
-2.51949e-06
0.000177651
-2.44408e-06
0.000177669
-2.3739e-06
0.00017768
-2.30853e-06
-2.2471e-06
0.000177685
0.000173622
-6.91808e-07
0.000173949
-1.99336e-06
0.000174435
-3.0623e-06
0.000175028
-3.8926e-06
0.00017569
-4.51301e-06
0.000176383
-4.94702e-06
0.000177079
-5.22243e-06
0.000177758
-5.37003e-06
0.000178406
-5.41686e-06
0.000179014
-5.38575e-06
0.000179578
-5.29614e-06
0.000180094
-5.16424e-06
0.000180563
-5.00313e-06
0.000180986
-4.82326e-06
0.000181364
-4.63284e-06
0.000181699
-4.43821e-06
0.000181996
-4.24412e-06
0.000182256
-4.05409e-06
0.000182482
-3.8706e-06
0.000182678
-3.69532e-06
0.000182846
-3.5293e-06
0.000182989
-3.37311e-06
0.000183109
-3.22693e-06
0.000183209
-3.0907e-06
0.000183291
-2.96417e-06
0.000183356
-2.84695e-06
0.000183406
-2.7386e-06
0.000183444
-2.63862e-06
0.000183471
-2.54652e-06
0.000183489
-2.46179e-06
0.000183499
-2.38392e-06
0.000183503
-2.31249e-06
-2.24653e-06
0.000183503
0.000178681
-9.04159e-07
0.000179185
-2.49776e-06
0.000179852
-3.72899e-06
0.000180602
-4.64224e-06
0.000181393
-5.30399e-06
0.000182193
-5.74698e-06
0.000182978
-6.00747e-06
0.000183731
-6.12373e-06
0.000184442
-6.12762e-06
0.000185102
-6.04601e-06
0.000185708
-5.90189e-06
0.000186258
-5.71411e-06
0.000186753
-5.49774e-06
0.000187194
-5.26464e-06
0.000187585
-5.02391e-06
0.000187929
-4.78244e-06
0.00018823
-4.54523e-06
0.000188492
-4.31585e-06
0.000188718
-4.0967e-06
0.000188912
-3.88928e-06
0.000189077
-3.69443e-06
0.000189217
-3.51244e-06
0.000189333
-3.34325e-06
0.000189429
-3.18656e-06
0.000189507
-3.04187e-06
0.000189568
-2.9086e-06
0.000189616
-2.78613e-06
0.000189651
-2.67381e-06
0.000189675
-2.57106e-06
0.000189691
-2.47731e-06
0.000189699
-2.39205e-06
0.000189701
-2.3148e-06
-2.24453e-06
0.000189699
0.000183744
-1.08117e-06
0.000184332
-3.08539e-06
0.000185159
-4.55548e-06
0.000186121
-5.60436e-06
0.000187136
-6.31981e-06
0.000188143
-6.75322e-06
0.000189106
-6.97042e-06
0.000190011
-7.02859e-06
0.000190851
-6.96845e-06
0.000191627
-6.82205e-06
0.000192341
-6.61525e-06
0.000192995
-6.3681e-06
0.000193593
-6.09602e-06
0.000194139
-5.81087e-06
0.000194637
-5.5216e-06
0.000195089
-5.23489e-06
0.0001955
-4.95559e-06
0.000195871
-4.68712e-06
0.000196206
-4.43177e-06
0.000196508
-4.19092e-06
0.000196779
-3.96529e-06
0.000197021
-3.75507e-06
0.000197238
-3.56005e-06
0.000197431
-3.37978e-06
0.000197603
-3.21363e-06
0.000197755
-3.06088e-06
0.00019789
-2.9208e-06
0.000198009
-2.79268e-06
0.000198114
-2.67594e-06
0.000198206
-2.57006e-06
0.000198289
-2.47492e-06
0.000198365
-2.39012e-06
-2.31579e-06
0.000198436
0.000189416
-1.68544e-06
0.0001904
-4.06949e-06
0.000191476
-5.63108e-06
0.000192627
-6.75511e-06