/*--------------------------------*- C++ -*----------------------------------*\
| =========                 |                                                 |
| \\      /  F ield         | OpenFOAM: The Open Source CFD Toolbox           |
|  \\    /   O peration     | Version:  2.1.1                                 |
|   \\  /    A nd           | Web:      www.OpenFOAM.org                      |
|    \\/     M anipulation  |                                                 |
\*---------------------------------------------------------------------------*/
FoamFile
{
    version     2.0;
    format      ascii;
    class       volVectorField;
    location    "0.1";
    object      U;
}
// * * * * * * * * * * * * * * * * * * * * * * * * * * * * * * * * * * * * * //

dimensions      [0 1 -1 0 0 0 0];

internalField   nonuniform List<vector> 
6820
(
(6.3761 0.503706 0)
(4.4248 0.286808 0)
(2.97468 0.0201332 0)
(2.23619 -0.0620103 0)
(1.97137 -0.0601124 0)
(1.84542 -0.0347069 0)
(1.77143 -0.0153002 0)
(1.7203 -0.00493192 0)
(1.678 -0.000245466 0)
(1.64149 0.00123836 0)
(1.61022 0.00118675 0)
(1.58373 0.000535517 0)
(1.56156 -0.00028276 0)
(1.54321 -0.00107907 0)
(1.5282 -0.00177983 0)
(1.51612 -0.00236868 0)
(1.50667 -0.00285523 0)
(1.4996 -0.00325796 0)
(1.49472 -0.00359256 0)
(1.49191 -0.00387651 0)
(1.49118 -0.00407039 0)
(1.4924 -0.00443058 0)
(1.49555 -0.00474089 0)
(1.5007 -0.00504668 0)
(1.50786 -0.00533742 0)
(1.51708 -0.00562502 0)
(1.52837 -0.00594206 0)
(1.54194 -0.00624903 0)
(1.55725 -0.00665198 0)
(1.57594 -0.0065558 0)
(1.59216 -0.00733555 0)
(1.62163 -0.000388387 0)
(1.60463 -0.0230842 0)
(8.72023 0.959491 0)
(8.76518 1.01162 0)
(7.97015 0.678602 0)
(7.05781 0.39343 0)
(6.35803 0.201929 0)
(5.85295 0.102771 0)
(5.49233 0.0572305 0)
(5.23232 0.0366647 0)
(5.03796 0.027389 0)
(4.88705 0.0227635 0)
(4.76621 0.0199338 0)
(4.66709 0.0178418 0)
(4.58433 0.0160877 0)
(4.5144 0.0144998 0)
(4.45482 0.0129896 0)
(4.40385 0.011507 0)
(4.36019 0.0100215 0)
(4.3229 0.00851206 0)
(4.29125 0.00696397 0)
(4.2647 0.00535433 0)
(4.24281 0.00369923 0)
(4.22528 0.00189884 0)
(4.21192 6.23989e-06 0)
(4.20259 -0.00198377 0)
(4.19719 -0.00415387 0)
(4.19566 -0.00646518 0)
(4.19796 -0.00891837 0)
(4.20412 -0.0114351 0)
(4.21403 -0.0141897 0)
(4.22804 -0.0164495 0)
(4.24529 -0.0198198 0)
(4.26942 -0.0190006 0)
(4.297 -0.023374 0)
(8.58611 0.583283 0)
(9.3314 0.76178 0)
(9.61502 0.659288 0)
(9.50588 0.525497 0)
(9.24087 0.395862 0)
(8.92978 0.297956 0)
(8.62538 0.229105 0)
(8.35075 0.179681 0)
(8.11011 0.143693 0)
(7.90118 0.116953 0)
(7.72024 0.0965406 0)
(7.56345 0.0805858 0)
(7.42733 0.0678635 0)
(7.30888 0.0575359 0)
(7.20561 0.0489958 0)
(7.11543 0.0417855 0)
(7.03663 0.0355575 0)
(6.9678 0.0300463 0)
(6.90777 0.025046 0)
(6.85562 0.020393 0)
(6.81056 0.0159476 0)
(6.772 0.0116475 0)
(6.73945 0.00737502 0)
(6.71251 0.0030603 0)
(6.69086 -0.00140477 0)
(6.67429 -0.00604527 0)
(6.6627 -0.0109017 0)
(6.65607 -0.0159496 0)
(6.65426 -0.0212446 0)
(6.65732 -0.0264278 0)
(6.66491 -0.0321094 0)
(6.67704 -0.0364349 0)
(6.6932 -0.0432106 0)
(8.44094 0.379492 0)
(8.94599 0.583446 0)
(9.35862 0.553593 0)
(9.58669 0.485767 0)
(9.70142 0.405585 0)
(9.73833 0.336268 0)
(9.72395 0.283669 0)
(9.68055 0.243443 0)
(9.62095 0.21193 0)
(9.55236 0.186526 0)
(9.47947 0.16536 0)
(9.40536 0.147287 0)
(9.332 0.13157 0)
(9.26091 0.117692 0)
(9.19303 0.105299 0)
(9.12893 0.0941244 0)
(9.06896 0.0839419 0)
(9.01329 0.0745566 0)
(8.96201 0.0657975 0)
(8.91512 0.0575115 0)
(8.87261 0.0495689 0)
(8.83441 0.0418484 0)
(8.80049 0.0342275 0)
(8.77079 0.0266036 0)
(8.74527 0.0189193 0)
(8.72391 0.0110798 0)
(8.70663 0.00299073 0)
(8.69339 -0.00539039 0)
(8.68422 -0.0140902 0)
(8.67925 -0.0228961 0)
(8.67855 -0.0319766 0)
(8.68204 -0.040324 0)
(8.69132 -0.0479372 0)
(8.40216 0.279829 0)
(8.71911 0.480003 0)
(8.99923 0.460828 0)
(9.175 0.402972 0)
(9.29987 0.340647 0)
(9.39383 0.287965 0)
(9.46364 0.248759 0)
(9.51749 0.219026 0)
(9.56023 0.195442 0)
(9.59421 0.176094 0)
(9.62116 0.159704 0)
(9.64245 0.145463 0)
(9.65918 0.132865 0)
(9.67198 0.121544 0)
(9.68152 0.111217 0)
(9.68845 0.101658 0)
(9.69334 0.0926829 0)
(9.69669 0.0841382 0)
(9.69894 0.0758906 0)
(9.70047 0.0678221 0)
(9.70162 0.0598259 0)
(9.70267 0.0518075 0)
(9.7039 0.0436733 0)
(9.70553 0.0353385 0)
(9.70779 0.0267319 0)
(9.71086 0.0177716 0)
(9.71496 0.0084182 0)
(9.72011 -0.00132989 0)
(9.72635 -0.0115113 0)
(9.73392 -0.0220681 0)
(9.74308 -0.0330192 0)
(9.75421 -0.0439634 0)
(9.7684 -0.0547041 0)
(8.37749 0.201905 0)
(8.60151 0.38278 0)
(8.81626 0.389404 0)
(8.94769 0.354629 0)
(9.03407 0.309936 0)
(9.09746 0.266139 0)
(9.14513 0.230014 0)
(9.18437 0.201232 0)
(9.21942 0.177991 0)
(9.25169 0.158944 0)
(9.2818 0.142983 0)
(9.31013 0.129265 0)
(9.3369 0.117228 0)
(9.36238 0.106493 0)
(9.38671 0.0967432 0)
(9.40998 0.0877305 0)
(9.43228 0.0792589 0)
(9.45369 0.0711673 0)
(9.47429 0.0633183 0)
(9.49415 0.0555905 0)
(9.51335 0.0478746 0)
(9.53196 0.0400712 0)
(9.55005 0.0320833 0)
(9.56771 0.0238208 0)
(9.58498 0.0152068 0)
(9.60198 0.00617389 0)
(9.6187 -0.00332866 0)
(9.63539 -0.013317 0)
(9.65228 -0.0238631 0)
(9.66957 -0.0349815 0)
(9.68752 -0.0467198 0)
(9.70667 -0.0590081 0)
(9.72764 -0.0718785 0)
(8.36129 0.148498 0)
(8.52288 0.31047 0)
(8.69792 0.335572 0)
(8.81314 0.315561 0)
(8.88836 0.28192 0)
(8.94221 0.24537 0)
(8.98086 0.213399 0)
(9.01052 0.187201 0)
(9.03561 0.165605 0)
(9.05806 0.147555 0)
(9.07884 0.132196 0)
(9.09854 0.118853 0)
(9.11751 0.107038 0)
(9.13595 0.0963965 0)
(9.15396 0.0866634 0)
(9.17165 0.0776279 0)
(9.18907 0.0691152 0)
(9.20625 0.0609742 0)
(9.22323 0.0530715 0)
(9.24003 0.0452872 0)
(9.25666 0.0375115 0)
(9.27315 0.0296435 0)
(9.28952 0.0215864 0)
(9.30578 0.0132506 0)
(9.32197 0.00454887 0)
(9.33812 -0.00459097 0)
(9.35436 -0.0142586 0)
(9.37076 -0.0245527 0)
(9.38743 -0.0355622 0)
(9.40454 -0.0473501 0)
(9.42233 -0.0600362 0)
(9.44127 -0.0737705 0)
(9.46172 -0.0888785 0)
(8.35117 0.111023 0)
(8.46756 0.250539 0)
(8.60863 0.284789 0)
(8.71081 0.27605 0)
(8.78122 0.253221 0)
(8.83362 0.225331 0)
(8.87233 0.198805 0)
(8.90191 0.175741 0)
(8.92632 0.155864 0)
(8.94757 0.138685 0)
(8.96673 0.123737 0)
(8.98451 0.110563 0)
(9.00136 0.0987873 0)
(9.01755 0.0881192 0)
(9.03325 0.078324 0)
(9.04859 0.0692012 0)
(9.06368 0.0605783 0)
(9.07857 0.052306 0)
(9.09331 0.0442524 0)
(9.10796 0.0362987 0)
(9.12255 0.0283357 0)
(9.1371 0.0202618 0)
(9.15166 0.0119791 0)
(9.16624 0.00339205 0)
(9.1809 -0.00559458 0)
(9.19565 -0.0150776 0)
(9.21055 -0.0251582 0)
(9.22566 -0.0359345 0)
(9.24108 -0.0475096 0)
(9.25695 -0.0600079 0)
(9.27346 -0.073622 0)
(9.29093 -0.0886409 0)
(9.30957 -0.105468 0)
(8.34488 0.0843058 0)
(8.42953 0.20253 0)
(8.54261 0.241793 0)
(8.63178 0.241873 0)
(8.69634 0.227142 0)
(8.74614 0.205623 0)
(8.78444 0.183161 0)
(8.81445 0.16259 0)
(8.83945 0.144333 0)
(8.86125 0.128233 0)
(8.88086 0.114019 0)
(8.89895 0.101356 0)
(8.91596 0.0899356 0)
(8.93219 0.0795049 0)
(8.94784 0.0698527 0)
(8.96303 0.0607978 0)
(8.97788 0.0521842 0)
(8.99247 0.0438751 0)
(9.00685 0.0357472 0)
(9.02107 0.0276874 0)
(9.03518 0.0195899 0)
(9.04921 0.0113541 0)
(9.06318 0.00288224 0)
(9.07714 -0.00592289 0)
(9.09111 -0.015157 0)
(9.10512 -0.0249189 0)
(9.11922 -0.0353132 0)
(9.13347 -0.0464566 0)
(9.14793 -0.0584878 0)
(9.16271 -0.0715769 0)
(9.17792 -0.085958 0)
(9.19376 -0.101977 0)
(9.21027 -0.120028 0)
(8.34095 0.0650187 0)
(8.40322 0.164071 0)
(8.49369 0.204483 0)
(8.57079 0.210352 0)
(8.62945 0.201563 0)
(8.67625 0.185423 0)
(8.71353 0.166985 0)
(8.74344 0.149169 0)
(8.76859 0.132774 0)
(8.7906 0.117891 0)
(8.81039 0.104447 0)
(8.82861 0.0922617 0)
(8.84571 0.0811282 0)
(8.86199 0.0708568 0)
(8.87763 0.0612785 0)
(8.89277 0.0522397 0)
(8.90753 0.0436013 0)
(8.92198 0.035236 0)
(8.93618 0.0270266 0)
(8.95016 0.0188633 0)
(8.96398 0.0106423 0)
(8.97766 0.00226379 0)
(8.99123 -0.00637029 0)
(9.00472 -0.0153565 0)
(9.01815 -0.024793 0)
(9.03156 -0.0347857 0)
(9.04496 -0.0454498 0)
(9.0584 -0.0569143 0)
(9.07193 -0.0693306 0)
(9.08559 -0.082884 0)
(9.09943 -0.0978158 0)
(9.11353 -0.114474 0)
(9.12782 -0.133189 0)
(8.33847 0.0508202 0)
(8.38486 0.13313 0)
(8.4573 0.172296 0)
(8.52363 0.182043 0)
(8.57667 0.177852 0)
(8.62034 0.166122 0)
(8.65623 0.151103 0)
(8.68572 0.135632 0)
(8.71079 0.120817 0)
(8.73286 0.106998 0)
(8.75277 0.0942677 0)
(8.77111 0.0825702 0)
(8.78828 0.0717742 0)
(8.80459 0.0617357 0)
(8.82021 0.0523134 0)
(8.8353 0.0433723 0)
(8.84994 0.0347852 0)
(8.86423 0.0264339 0)
(8.87822 0.0182078 0)
(8.89195 0.0100022 0)
(8.90546 0.00171667 0)
(8.91877 -0.00674617 0)
(8.93192 -0.0154825 0)
(8.94491 -0.0245894 0)
(8.95777 -0.0341669 0)
(8.97052 -0.0443216 0)
(8.98318 -0.0551698 0)
(8.99575 -0.066842 0)
(9.00825 -0.0794916 0)
(9.0207 -0.0933049 0)
(9.03307 -0.108512 0)
(9.04534 -0.125431 0)
(9.05739 -0.144313 0)
(8.33688 0.0401561 0)
(8.37194 0.108175 0)
(8.4301 0.144599 0)
(8.48692 0.156521 0)
(8.53461 0.15554 0)
(8.57512 0.147168 0)
(8.60942 0.135006 0)
(8.6383 0.121679 0)
(8.66321 0.108433 0)
(8.6853 0.0957488 0)
(8.7053 0.0838237 0)
(8.72374 0.0726895 0)
(8.74099 0.0622837 0)
(8.75734 0.0525096 0)
(8.77296 0.0432599 0)
(8.78799 0.0344244 0)
(8.80254 0.0258938 0)
(8.81669 0.0175628 0)
(8.83048 0.0093296 0)
(8.84395 0.00109584 0)
(8.85715 -0.0072343 0)
(8.8701 -0.0157548 0)
(8.88282 -0.0245592 0)
(8.89531 -0.0337428 0)
(8.90759 -0.043404 0)
(8.91967 -0.0536475 0)
(8.93154 -0.0645876 0)
(8.94321 -0.0763521 0)
(8.95465 -0.0890882 0)
(8.96583 -0.102969 0)
(8.97671 -0.118197 0)
(8.98717 -0.135042 0)
(8.99706 -0.15367 0)
(8.33584 0.0319765 0)
(8.36274 0.0879133 0)
(8.40965 0.120743 0)
(8.45822 0.133552 0)
(8.50093 0.134752 0)
(8.53835 0.128959 0)
(8.57092 0.11918 0)
(8.599 0.107735 0)
(8.62358 0.0958947 0)
(8.64558 0.0842388 0)
(8.6656 0.0730515 0)
(8.6841 0.0624436 0)
(8.70142 0.0524152 0)
(8.7178 0.0429129 0)
(8.73343 0.0338593 0)
(8.74843 0.0251645 0)
(8.76291 0.0167338 0)
(8.77692 0.00847181 0)
(8.79052 0.000284067 0)
(8.80376 -0.00792214 0)
(8.81666 -0.0162378 0)
(8.82924 -0.0247532 0)
(8.84152 -0.0335585 0)
(8.85351 -0.0427456 0)
(8.8652 -0.0524093 0)
(8.87659 -0.0626496 0)
(8.88767 -0.0735744 0)
(8.89841 -0.0853023 0)
(8.90878 -0.0979655 0)
(8.91871 -0.111715 0)
(8.92812 -0.126716 0)
(8.93686 -0.143182 0)
(8.94476 -0.161206 0)
(8.33515 0.0255685 0)
(8.35611 0.0713318 0)
(8.39419 0.100177 0)
(8.43571 0.112902 0)
(8.47385 0.115412 0)
(8.50829 0.11146 0)
(8.53904 0.103543 0)
(8.56618 0.0936693 0)
(8.59031 0.0830692 0)
(8.61212 0.0723734 0)
(8.6321 0.0619172 0)
(8.65062 0.0518615 0)
(8.66798 0.0422502 0)
(8.68439 0.0330634 0)
(8.70002 0.0242482 0)
(8.71498 0.0157342 0)
(8.72936 0.00744094 0)
(8.74323 -0.000715703 0)
(8.75665 -0.00882124 0)
(8.76964 -0.0169611 0)
(8.78223 -0.0252203 0)
(8.79444 -0.0336836 0)
(8.80628 -0.0424363 0)
(8.81775 -0.0515647 0)
(8.82884 -0.0611573 0)
(8.83954 -0.0713065 0)
(8.84982 -0.0821103 0)
(8.85965 -0.0936732 0)
(8.86896 -0.106109 0)
(8.87768 -0.11954 0)
(8.88571 -0.134093 0)
(8.89286 -0.149927 0)
(8.89899 -0.16707 0)
(8.33467 0.0204441 0)
(8.35127 0.057629 0)
(8.38244 0.0823901 0)
(8.41799 0.0943208 0)
(8.45202 0.0974427 0)
(8.48364 0.0947296 0)
(8.51258 0.0882353 0)
(8.53868 0.0796606 0)
(8.56225 0.0701407 0)
(8.58379 0.0603119 0)
(8.60365 0.0505352 0)
(8.62214 0.0410051 0)
(8.63949 0.0318005 0)
(8.65589 0.0229309 0)
(8.6715 0.0143663 0)
(8.6864 0.00605366 0)
(8.70069 -0.00207362 0)
(8.71442 -0.0100894 0)
(8.72764 -0.0180709 0)
(8.74038 -0.0260967 0)
(8.75266 -0.0342461 0)
(8.7645 -0.0425981 0)
(8.7759 -0.051232 0)
(8.78685 -0.0602278 0)
(8.79734 -0.0696661 0)
(8.80736 -0.0796299 0)
(8.81686 -0.0902046 0)
(8.8258 -0.101479 0)
(8.8341 -0.113543 0)
(8.84169 -0.126492 0)
(8.84844 -0.140415 0)
(8.85418 -0.155418 0)
(8.85877 -0.171478 0)
(8.33433 0.0162644 0)
(8.3477 0.0461772 0)
(8.37346 0.066932 0)
(8.40401 0.0775709 0)
(8.43438 0.0807497 0)
(8.4634 0.0787633 0)
(8.49058 0.0732803 0)
(8.51558 0.0657184 0)
(8.53853 0.0570928 0)
(8.55971 0.0480182 0)
(8.57939 0.0388625 0)
(8.5978 0.0298375 0)
(8.61511 0.021045 0)
(8.63149 0.0125146 0)
(8.64705 0.00423334 0)
(8.66188 -0.00383818 0)
(8.67606 -0.0117554 0)
(8.68964 -0.0195828 0)
(8.70265 -0.02739 0)
(8.71513 -0.0352486 0)
(8.7271 -0.0432312 0)
(8.73856 -0.0514104 0)
(8.74951 -0.0598584 0)
(8.75995 -0.0686472 0)
(8.76986 -0.0778483 0)
(8.77921 -0.0875335 0)
(8.78796 -0.0977739 0)
(8.79605 -0.10864 0)
(8.80342 -0.120202 0)
(8.80996 -0.132524 0)
(8.81557 -0.145661 0)
(8.82009 -0.159677 0)
(8.82339 -0.174509 0)
(8.33408 0.0127901 0)
(8.34503 0.0364862 0)
(8.36656 0.0534079 0)
(8.39297 0.0624193 0)
(8.42014 0.0652182 0)
(8.44679 0.0635341 0)
(8.47228 0.0587053 0)
(8.49619 0.0518981 0)
(8.51847 0.0439959 0)
(8.53926 0.0355687 0)
(8.55871 0.0269726 0)
(8.57699 0.0184228 0)
(8.59423 0.0100326 0)
(8.61055 0.00184568 0)
(8.62604 -0.00613827 0)
(8.64079 -0.0139472 0)
(8.65485 -0.0216266 0)
(8.66827 -0.0292326 0)
(8.68107 -0.0368272 0)
(8.69329 -0.0444753 0)
(8.70494 -0.0522426 0)
(8.71603 -0.0601949 0)
(8.72655 -0.0683971 0)
(8.73649 -0.0769126 0)
(8.74583 -0.0858033 0)
(8.75454 -0.0951287 0)
(8.76258 -0.104946 0)
(8.76989 -0.115308 0)
(8.7764 -0.126263 0)
(8.78202 -0.13785 0)
(8.78665 -0.150094 0)
(8.79013 -0.163024 0)
(8.79238 -0.17655 0)
(8.3339 0.00984835 0)
(8.34301 0.0281721 0)
(8.36124 0.0414753 0)
(8.38425 0.0486441 0)
(8.40865 0.0507257 0)
(8.43317 0.0489944 0)
(8.45712 0.0445084 0)
(8.47997 0.0382146 0)
(8.50157 0.030864 0)
(8.52193 0.0229688 0)
(8.54112 0.0148614 0)
(8.55925 0.00675026 0)
(8.57638 -0.00124831 0)
(8.59262 -0.00908323 0)
(8.60804 -0.0167465 0)
(8.62269 -0.0242583 0)
(8.63661 -0.0316569 0)
(8.64986 -0.0389917 0)
(8.66245 -0.0463184 0)
(8.67441 -0.0536956 0)
(8.68574 -0.0611827 0)
(8.69646 -0.0688388 0)
(8.70655 -0.0767211 0)
(8.71601 -0.0848844 0)
(8.72481 -0.0933804 0)
(8.73292 -0.102257 0)
(8.74031 -0.111557 0)
(8.74691 -0.121317 0)
(8.75266 -0.131566 0)
(8.75747 -0.142322 0)
(8.76126 -0.153585 0)
(8.7639 -0.165356 0)
(8.76533 -0.177528 0)
(8.33376 0.00731202 0)
(8.34148 0.0209327 0)
(8.35713 0.030839 0)
(8.37737 0.0360351 0)
(8.39941 0.0371407 0)
(8.42208 0.0350763 0)
(8.44462 0.0306661 0)
(8.46648 0.0246693 0)
(8.48742 0.0177112 0)
(8.50735 0.0102383 0)
(8.52627 0.00254998 0)
(8.54422 -0.0051615 0)
(8.56125 -0.0127848 0)
(8.5774 -0.0202679 0)
(8.59272 -0.0275993 0)
(8.60726 -0.0347947 0)
(8.62105 -0.0418871 0)
(8.63412 -0.0489206 0)
(8.6465 -0.0559452 0)
(8.6582 -0.0630139 0)
(8.66923 -0.0701798 0)
(8.67959 -0.0774953 0)
(8.68928 -0.0850099 0)
(8.69829 -0.09277 0)
(8.70658 -0.100817 0)
(8.71415 -0.109189 0)
(8.72094 -0.117914 0)
(8.72691 -0.127015 0)
(8.732 -0.136504 0)
(8.73613 -0.146381 0)
(8.73925 -0.156628 0)
(8.74123 -0.167225 0)
(8.74204 -0.178058 0)
(8.33366 0.00508477 0)
(8.34032 0.0145275 0)
(8.35396 0.0212433 0)
(8.37196 0.0243936 0)
(8.39205 0.0243271 0)
(8.41311 0.0216972 0)
(8.43441 0.0171368 0)
(8.45538 0.011246 0)
(8.4757 0.00453522 0)
(8.49522 -0.0026177 0)
(8.51388 -0.00995241 0)
(8.53166 -0.0172987 0)
(8.54856 -0.0245563 0)
(8.56461 -0.0316775 0)
(8.57984 -0.0386514 0)
(8.59426 -0.0454919 0)
(8.60791 -0.0522297 0)
(8.62081 -0.0589053 0)
(8.63298 -0.0655648 0)
(8.64443 -0.0722566 0)
(8.65516 -0.0790287 0)
(8.66518 -0.0859273 0)
(8.67448 -0.0929954 0)
(8.68306 -0.100271 0)
(8.69089 -0.107788 0)
(8.69795 -0.115573 0)
(8.70421 -0.123643 0)
(8.70963 -0.13201 0)
(8.71416 -0.140671 0)
(8.71773 -0.149614 0)
(8.72031 -0.158806 0)
(8.72179 -0.168217 0)
(8.72218 -0.177726 0)
(8.33358 0.00309182 0)
(8.33943 0.00876238 0)
(8.35153 0.0124671 0)
(8.36776 0.0135323 0)
(8.38624 0.0121437 0)
(8.40597 0.00875893 0)
(8.42622 0.00385623 0)
(8.44641 -0.00209771 0)
(8.46619 -0.00869614 0)
(8.48535 -0.0156294 0)
(8.50377 -0.0226802 0)
(8.52139 -0.029706 0)
(8.53819 -0.0366229 0)
(8.55415 -0.0433921 0)
(8.56928 -0.0500074 0)
(8.58361 -0.0564844 0)
(8.59713 -0.0628531 0)
(8.60987 -0.0691523 0)
(8.62184 -0.0754253 0)
(8.63304 -0.0817166 0)
(8.6435 -0.0880696 0)
(8.6532 -0.0945251 0)
(8.66215 -0.10112 0)
(8.67034 -0.107885 0)
(8.67776 -0.114845 0)
(8.68438 -0.122019 0)
(8.69018 -0.129416 0)
(8.69513 -0.137034 0)
(8.6992 -0.144864 0)
(8.70233 -0.152881 0)
(8.7045 -0.161047 0)
(8.70564 -0.16932 0)
(8.70575 -0.177584 0)
(8.33352 0.00127241 0)
(8.33877 0.00347574 0)
(8.34969 0.00431407 0)
(8.36456 0.00327259 0)
(8.38176 0.000446249 0)
(8.40041 -0.00384664 0)
(8.4198 -0.00924954 0)
(8.43936 -0.0154063 0)
(8.45869 -0.0220013 0)
(8.47755 -0.0287902 0)
(8.49577 -0.0356006 0)
(8.51327 -0.0423208 0)
(8.52997 -0.0488875 0)
(8.54586 -0.0552754 0)
(8.56091 -0.0614864 0)
(8.57513 -0.067541 0)
(8.58853 -0.0734718 0)
(8.60112 -0.0793183 0)
(8.61289 -0.0851227 0)
(8.62387 -0.0909275 0)
(8.63407 -0.0967732 0)
(8.64347 -0.102696 0)
(8.65209 -0.108729 0)
(8.65993 -0.114896 0)
(8.66697 -0.121217 0)
(8.6732 -0.127702 0)
(8.6786 -0.134354 0)
(8.68316 -0.141164 0)
(8.68685 -0.148115 0)
(8.68964 -0.155178 0)
(8.69151 -0.162307 0)
(8.69243 -0.169459 0)
(8.69241 -0.176524 0)
(8.33347 -0.00042265 0)
(8.33829 -0.00146855 0)
(8.34835 -0.0033915 0)
(8.3622 -0.00655878 0)
(8.37844 -0.010919 0)
(8.39627 -0.016251 0)
(8.41502 -0.022294 0)
(8.4341 -0.0287849 0)
(8.45311 -0.0354892 0)
(8.47176 -0.0422255 0)
(8.48987 -0.0488674 0)
(8.50729 -0.0553366 0)
(8.52395 -0.0615938 0)
(8.5398 -0.0676298 0)
(8.55481 -0.0734575 0)
(8.56897 -0.0791047 0)
(8.58227 -0.0846079 0)
(8.59473 -0.0900084 0)
(8.60634 -0.0953489 0)
(8.61712 -0.100671 0)
(8.62708 -0.106011 0)
(8.63623 -0.111405 0)
(8.64456 -0.116879 0)
(8.65209 -0.122454 0)
(8.6588 -0.128145 0)
(8.6647 -0.133956 0)
(8.66977 -0.139884 0)
(8.67402 -0.145917 0)
(8.67742 -0.152032 0)
(8.67996 -0.158197 0)
(8.68164 -0.164365 0)
(8.68243 -0.170492 0)
(8.68238 -0.176474 0)
(8.33344 -0.00203712 0)
(8.33796 -0.00619198 0)
(8.34743 -0.010813 0)
(8.36057 -0.0161302 0)
(8.37614 -0.0221041 0)
(8.39342 -0.0285769 0)
(8.41173 -0.0353611 0)
(8.43051 -0.0422694 0)
(8.44932 -0.0491386 0)
(8.46787 -0.0558459 0)
(8.48593 -0.0623119 0)
(8.50334 -0.0684944 0)
(8.52 -0.0743822 0)
(8.53584 -0.079987 0)
(8.55083 -0.0853371 0)
(8.56493 -0.0904713 0)
(8.57816 -0.0954338 0)
(8.5905 -0.100271 0)
(8.60196 -0.105028 0)
(8.61256 -0.109747 0)
(8.62231 -0.114465 0)
(8.63121 -0.119215 0)
(8.63928 -0.124022 0)
(8.64652 -0.128903 0)
(8.65295 -0.13387 0)
(8.65856 -0.138923 0)
(8.66335 -0.144056 0)
(8.66734 -0.149254 0)
(8.67052 -0.154491 0)
(8.67288 -0.159735 0)
(8.67445 -0.164941 0)
(8.6752 -0.170067 0)
(8.6752 -0.175017 0)
(8.33343 -0.00361224 0)
(8.33776 -0.0108094 0)
(8.34688 -0.0181121 0)
(8.35961 -0.0256238 0)
(8.37482 -0.0332989 0)
(8.3918 -0.0410238 0)
(8.40993 -0.0486704 0)
(8.42862 -0.0561181 0)
(8.44743 -0.0632686 0)
(8.46602 -0.0700554 0)
(8.48416 -0.0764446 0)
(8.50167 -0.0824306 0)
(8.51842 -0.0880303 0)
(8.53433 -0.0932772 0)
(8.54936 -0.0982156 0)
(8.56347 -0.102896 0)
(8.57667 -0.107372 0)
(8.58894 -0.111694 0)
(8.60029 -0.115912 0)
(8.61075 -0.120071 0)
(8.62031 -0.124208 0)
(8.62901 -0.128355 0)
(8.63686 -0.132536 0)
(8.64387 -0.136767 0)
(8.65005 -0.141057 0)
(8.65543 -0.145405 0)
(8.66 -0.149804 0)
(8.66379 -0.154236 0)
(8.66681 -0.158677 0)
(8.66906 -0.163094 0)
(8.67056 -0.167446 0)
(8.67133 -0.171693 0)
(8.67142 -0.175749 0)
(8.33342 -0.00518651 0)
(8.33769 -0.0154302 0)
(8.34668 -0.0254437 0)
(8.35927 -0.0352053 0)
(8.37439 -0.0446464 0)
(8.39136 -0.0536774 0)
(8.40953 -0.0622143 0)
(8.42832 -0.0701933 0)
(8.44727 -0.0775773 0)
(8.46604 -0.0843573 0)
(8.48436 -0.09055 0)
(8.50204 -0.0961928 0)
(8.51894 -0.101338 0)
(8.53497 -0.106047 0)
(8.55007 -0.110387 0)
(8.56423 -0.114425 0)
(8.57741 -0.118225 0)
(8.58964 -0.121849 0)
(8.6009 -0.125351 0)
(8.61123 -0.12878 0)
(8.62065 -0.132176 0)
(8.62916 -0.13557 0)
(8.63681 -0.138987 0)
(8.64361 -0.142442 0)
(8.64959 -0.145943 0)
(8.65476 -0.149488 0)
(8.65915 -0.153069 0)
(8.66278 -0.156669 0)
(8.66567 -0.160265 0)
(8.66785 -0.163827 0)
(8.66934 -0.167315 0)
(8.67017 -0.170697 0)
(8.6704 -0.173896 0)
(8.33342 -0.00680131 0)
(8.33774 -0.0201762 0)
(8.34684 -0.0329975 0)
(8.3596 -0.0451256 0)
(8.37497 -0.056471 0)
(8.39224 -0.0669669 0)
(8.41078 -0.076571 0)
(8.42997 -0.0852721 0)
(8.44934 -0.0930877 0)
(8.46851 -0.10006 0)
(8.48721 -0.106249 0)
(8.50523 -0.111732 0)
(8.52242 -0.116592 0)
(8.53868 -0.120918 0)
(8.55396 -0.124798 0)
(8.56822 -0.128317 0)
(8.58147 -0.131553 0)
(8.59369 -0.134578 0)
(8.60491 -0.137454 0)
(8.61515 -0.140237 0)
(8.62445 -0.142969 0)
(8.63282 -0.145686 0)
(8.6403 -0.148413 0)
(8.64692 -0.151168 0)
(8.65271 -0.153958 0)
(8.65771 -0.156783 0)
(8.66195 -0.159636 0)
(8.66545 -0.162501 0)
(8.66825 -0.165357 0)
(8.67038 -0.168177 0)
(8.67188 -0.170927 0)
(8.67277 -0.173577 0)
(8.67312 -0.176059 0)
(8.33344 -0.00850132 0)
(8.33791 -0.0251677 0)
(8.34734 -0.0409264 0)
(8.36056 -0.0555 0)
(8.37645 -0.0687602 0)
(8.3943 -0.0806511 0)
(8.41343 -0.0911701 0)
(8.43322 -0.100367 0)
(8.45317 -0.108331 0)
(8.47289 -0.115172 0)
(8.49209 -0.121014 0)
(8.51055 -0.125984 0)
(8.52812 -0.13021 0)
(8.54469 -0.133815 0)
(8.56021 -0.136915 0)
(8.57465 -0.139613 0)
(8.588 -0.142004 0)
(8.60027 -0.14417 0)
(8.61148 -0.146182 0)
(8.62167 -0.148097 0)
(8.63088 -0.149965 0)
(8.63913 -0.151822 0)
(8.64646 -0.153694 0)
(8.65293 -0.155601 0)
(8.65857 -0.15755 0)
(8.66342 -0.159542 0)
(8.66753 -0.161572 0)
(8.67092 -0.163624 0)
(8.67365 -0.165682 0)
(8.67575 -0.167721 0)
(8.67727 -0.169711 0)
(8.67824 -0.171628 0)
(8.67876 -0.173412 0)
(8.33347 -0.0103435 0)
(8.33826 -0.0305895 0)
(8.34834 -0.0495722 0)
(8.36244 -0.0668955 0)
(8.37933 -0.0824183 0)
(8.39826 -0.0961034 0)
(8.41848 -0.107977 0)
(8.43931 -0.11813 0)
(8.46023 -0.126695 0)
(8.48083 -0.133834 0)
(8.50079 -0.139715 0)
(8.5199 -0.144514 0)
(8.538 -0.1484 0)
(8.555 -0.151531 0)
(8.57085 -0.154056 0)
(8.58552 -0.156104 0)
(8.59902 -0.157792 0)
(8.61137 -0.159219 0)
(8.6226 -0.160468 0)
(8.63275 -0.161609 0)
(8.64188 -0.162696 0)
(8.65001 -0.163774 0)
(8.65722 -0.164872 0)
(8.66354 -0.166011 0)
(8.66903 -0.167204 0)
(8.67373 -0.168452 0)
(8.6777 -0.169751 0)
(8.68099 -0.171091 0)
(8.68363 -0.172455 0)
(8.68568 -0.173823 0)
(8.6872 -0.175169 0)
(8.6882 -0.176471 0)
(8.68878 -0.177677 0)
(8.33351 -0.0123881 0)
(8.33873 -0.0365575 0)
(8.34969 -0.0589384 0)
(8.36493 -0.0789491 0)
(8.38307 -0.0964264 0)
(8.40328 -0.111385 0)
(8.42479 -0.123941 0)
(8.44688 -0.134296 0)
(8.46898 -0.142694 0)
(8.49065 -0.149384 0)
(8.51159 -0.154614 0)
(8.53155 -0.158616 0)
(8.55037 -0.161604 0)
(8.56797 -0.163773 0)
(8.58429 -0.165294 0)
(8.59933 -0.166318 0)
(8.61309 -0.166973 0)
(8.62561 -0.167369 0)
(8.63693 -0.167599 0)
(8.64711 -0.167735 0)
(8.6562 -0.167837 0)
(8.66427 -0.167952 0)
(8.67137 -0.168112 0)
(8.67757 -0.168339 0)
(8.68293 -0.168648 0)
(8.6875 -0.169043 0)
(8.69134 -0.169521 0)
(8.69452 -0.170075 0)
(8.69709 -0.170691 0)
(8.6991 -0.171352 0)
(8.70061 -0.172037 0)
(8.70167 -0.172729 0)
(8.70237 -0.173378 0)
(8.33359 -0.0147491 0)
(8.33959 -0.043543 0)
(8.3521 -0.0701187 0)
(8.36935 -0.0937689 0)
(8.38966 -0.114318 0)
(8.41204 -0.131755 0)
(8.43561 -0.14618 0)
(8.45956 -0.15782 0)
(8.48329 -0.166976 0)
(8.50638 -0.173972 0)
(8.5285 -0.179132 0)
(8.54944 -0.182767 0)
(8.56906 -0.185161 0)
(8.58729 -0.186571 0)
(8.6041 -0.187219 0)
(8.61949 -0.187296 0)
(8.63349 -0.186963 0)
(8.64615 -0.186353 0)
(8.65754 -0.185576 0)
(8.66771 -0.184719 0)
(8.67674 -0.183849 0)
(8.68471 -0.183018 0)
(8.69168 -0.182264 0)
(8.69773 -0.18161 0)
(8.70292 -0.181073 0)
(8.70733 -0.180659 0)
(8.71101 -0.180367 0)
(8.71404 -0.180191 0)
(8.71648 -0.180118 0)
(8.71838 -0.180135 0)
(8.7198 -0.18022 0)
(8.7208 -0.180359 0)
(8.72144 -0.180506 0)
(8.33365 -0.017489 0)
(8.34041 -0.0513219 0)
(8.35451 -0.0817842 0)
(8.37376 -0.107996 0)
(8.39626 -0.129994 0)
(8.42097 -0.148039 0)
(8.4469 -0.162473 0)
(8.47314 -0.173716 0)
(8.49902 -0.182204 0)
(8.52404 -0.188347 0)
(8.54788 -0.192527 0)
(8.57029 -0.195092 0)
(8.59114 -0.196356 0)
(8.61037 -0.196595 0)
(8.62797 -0.196049 0)
(8.64397 -0.194922 0)
(8.65842 -0.193388 0)
(8.67139 -0.191591 0)
(8.68297 -0.18965 0)
(8.69324 -0.187657 0)
(8.70229 -0.185689 0)
(8.71022 -0.1838 0)
(8.71711 -0.182031 0)
(8.72304 -0.180412 0)
(8.72809 -0.17896 0)
(8.73236 -0.177684 0)
(8.7359 -0.176585 0)
(8.73879 -0.17566 0)
(8.7411 -0.174899 0)
(8.74291 -0.174291 0)
(8.74427 -0.173817 0)
(8.74524 -0.173467 0)
(8.74593 -0.173194 0)
(8.3339 -0.0209911 0)
(8.34268 -0.0619708 0)
(8.36039 -0.0991487 0)
(8.38378 -0.131314 0)
(8.41026 -0.15826 0)
(8.43858 -0.180026 0)
(8.46766 -0.196929 0)
(8.4966 -0.209536 0)
(8.52474 -0.218481 0)
(8.55168 -0.224377 0)
(8.57711 -0.227793 0)
(8.60083 -0.229241 0)
(8.62276 -0.22916 0)
(8.64285 -0.227925 0)
(8.66112 -0.225846 0)
(8.67762 -0.223178 0)
(8.69242 -0.220127 0)
(8.70561 -0.21686 0)
(8.7173 -0.213507 0)
(8.72759 -0.210168 0)
(8.73658 -0.20692 0)
(8.74438 -0.20382 0)
(8.75108 -0.200907 0)
(8.7568 -0.198209 0)
(8.7616 -0.195741 0)
(8.7656 -0.193511 0)
(8.76886 -0.19152 0)
(8.77147 -0.189765 0)
(8.7735 -0.188237 0)
(8.77502 -0.186925 0)
(8.7761 -0.185811 0)
(8.7768 -0.184885 0)
(8.7772 -0.184101 0)
(8.33386 -0.0249932 0)
(8.34347 -0.0720365 0)
(8.36359 -0.112099 0)
(8.39037 -0.144927 0)
(8.42094 -0.171587 0)
(8.4538 -0.192743 0)
(8.48749 -0.208946 0)
(8.52073 -0.220844 0)
(8.55273 -0.229057 0)
(8.583 -0.234151 0)
(8.6112 -0.236665 0)
(8.63717 -0.237094 0)
(8.66085 -0.235881 0)
(8.68225 -0.233417 0)
(8.70146 -0.230035 0)
(8.71858 -0.226021 0)
(8.73374 -0.221607 0)
(8.74707 -0.216985 0)
(8.75873 -0.212305 0)
(8.76885 -0.207685 0)
(8.77756 -0.203215 0)
(8.78501 -0.198958 0)
(8.7913 -0.194962 0)
(8.79656 -0.191256 0)
(8.80089 -0.18786 0)
(8.80439 -0.184781 0)
(8.80715 -0.182023 0)
(8.80927 -0.179581 0)
(8.81081 -0.17745 0)
(8.81187 -0.175619 0)
(8.81252 -0.174074 0)
(8.81283 -0.172807 0)
(8.81292 -0.171765 0)
(8.33496 -0.0318193 0)
(8.35119 -0.0941116 0)
(8.38 -0.148355 0)
(8.41428 -0.192432 0)
(8.45057 -0.2267 0)
(8.48795 -0.251968 0)
(8.52524 -0.26955 0)
(8.56136 -0.280923 0)
(8.59567 -0.287363 0)
(8.62776 -0.289944 0)
(8.65737 -0.28957 0)
(8.68437 -0.286982 0)
(8.70875 -0.282776 0)
(8.73059 -0.277428 0)
(8.75 -0.271318 0)
(8.76714 -0.264748 0)
(8.78217 -0.257954 0)
(8.79528 -0.251118 0)
(8.80664 -0.244381 0)
(8.81641 -0.237849 0)
(8.82477 -0.231598 0)
(8.83185 -0.225681 0)
(8.83779 -0.220136 0)
(8.84272 -0.214983 0)
(8.84675 -0.210234 0)
(8.84998 -0.205894 0)
(8.85251 -0.20196 0)
(8.85443 -0.19843 0)
(8.85581 -0.195297 0)
(8.85672 -0.192555 0)
(8.85726 -0.190195 0)
(8.85749 -0.18821 0)
(8.85749 -0.186548 0)
(8.33401 -0.0367516 0)
(8.34975 -0.100127 0)
(8.38342 -0.149613 0)
(8.42581 -0.189927 0)
(8.47141 -0.223037 0)
(8.51781 -0.248679 0)
(8.56287 -0.267299 0)
(8.60541 -0.279794 0)
(8.64508 -0.287018 0)
(8.68179 -0.289848 0)
(8.71559 -0.289174 0)
(8.7466 -0.285811 0)
(8.775 -0.28047 0)
(8.80095 -0.27375 0)
(8.82462 -0.266144 0)
(8.84616 -0.25804 0)
(8.86572 -0.249743 0)
(8.88344 -0.241482 0)
(8.89945 -0.233426 0)
(8.91387 -0.225695 0)
(8.92685 -0.218373 0)
(8.93848 -0.211511 0)
(8.94889 -0.205141 0)
(8.95817 -0.199276 0)
(8.96644 -0.193918 0)
(8.97378 -0.189063 0)
(8.98027 -0.184702 0)
(8.98601 -0.180826 0)
(8.99107 -0.17743 0)
(8.99554 -0.174511 0)
(8.99951 -0.172076 0)
(9.00307 -0.170132 0)
(9.00637 -0.168644 0)
(8.33958 -0.0608092 0)
(8.37691 -0.170667 0)
(8.42588 -0.249579 0)
(8.47532 -0.303151 0)
(8.52726 -0.338486 0)
(8.58322 -0.359962 0)
(8.64159 -0.371672 0)
(8.70105 -0.376698 0)
(8.76062 -0.376989 0)
(8.81921 -0.373866 0)
(8.87579 -0.368268 0)
(8.9296 -0.360866 0)
(8.9801 -0.352164 0)
(9.02697 -0.342554 0)
(9.07001 -0.332357 0)
(9.10921 -0.321839 0)
(9.14465 -0.311222 0)
(9.17649 -0.30069 0)
(9.20494 -0.290389 0)
(9.23023 -0.280437 0)
(9.25263 -0.270919 0)
(9.27239 -0.2619 0)
(9.28976 -0.253419 0)
(9.30497 -0.245501 0)
(9.31825 -0.238158 0)
(9.32978 -0.231392 0)
(9.33976 -0.225203 0)
(9.34834 -0.219589 0)
(9.35566 -0.214561 0)
(9.36184 -0.210129 0)
(9.36702 -0.206358 0)
(9.37131 -0.20326 0)
(9.37494 -0.20102 0)
(8.33758 -0.0467547 0)
(8.39335 -0.121602 0)
(8.49338 -0.185987 0)
(8.60785 -0.248118 0)
(8.72926 -0.301474 0)
(8.85208 -0.342863 0)
(8.96938 -0.372992 0)
(9.07702 -0.392739 0)
(9.1728 -0.403256 0)
(9.25553 -0.406134 0)
(9.32497 -0.403008 0)
(9.38162 -0.395351 0)
(9.42637 -0.384442 0)
(9.46038 -0.371345 0)
(9.48492 -0.356913 0)
(9.50126 -0.341813 0)
(9.51061 -0.326555 0)
(9.51407 -0.311517 0)
(9.51263 -0.296968 0)
(9.50717 -0.283093 0)
(9.49843 -0.27001 0)
(9.48705 -0.257783 0)
(9.47355 -0.246441 0)
(9.45838 -0.235981 0)
(9.4419 -0.226382 0)
(9.4244 -0.217607 0)
(9.40611 -0.209612 0)
(9.38719 -0.202353 0)
(9.36777 -0.195803 0)
(9.34787 -0.189942 0)
(9.32764 -0.184886 0)
(9.30676 -0.180608 0)
(9.28599 -0.178151 0)
(8.40924 -0.221495 0)
(8.63491 -0.428895 0)
(8.83285 -0.523507 0)
(8.97617 -0.584383 0)
(9.06924 -0.617317 0)
(9.11111 -0.627911 0)
(9.10614 -0.623744 0)
(9.06381 -0.608898 0)
(8.99305 -0.586219 0)
(8.90136 -0.55829 0)
(8.79528 -0.527187 0)
(8.6802 -0.494508 0)
(8.56035 -0.461491 0)
(8.43893 -0.42906 0)
(8.31832 -0.397873 0)
(8.20023 -0.368365 0)
(8.08581 -0.340799 0)
(7.97581 -0.315305 0)
(7.87065 -0.291915 0)
(7.77054 -0.270592 0)
(7.67551 -0.251253 0)
(7.58545 -0.233783 0)
(7.5002 -0.218048 0)
(7.41954 -0.203908 0)
(7.3432 -0.191211 0)
(7.27091 -0.179811 0)
(7.20239 -0.16955 0)
(7.13732 -0.16028 0)
(7.07539 -0.151826 0)
(7.01614 -0.144022 0)
(6.95917 -0.136775 0)
(6.90328 -0.129201 0)
(6.84899 -0.124992 0)
(8.13704 -0.207264 0)
(7.84738 -0.388298 0)
(7.3846 -0.439731 0)
(6.85856 -0.440367 0)
(6.35833 -0.409005 0)
(5.88688 -0.359952 0)
(5.44686 -0.305503 0)
(5.04571 -0.252067 0)
(4.68453 -0.202872 0)
(4.36135 -0.159545 0)
(4.0738 -0.122532 0)
(3.81905 -0.0916115 0)
(3.59387 -0.0662407 0)
(3.39511 -0.0457273 0)
(3.21974 -0.0293432 0)
(3.06495 -0.0163989 0)
(2.92817 -0.00627806 0)
(2.80711 0.00155098 0)
(2.69972 0.00753573 0)
(2.6042 0.0120465 0)
(2.51897 0.0153862 0)
(2.44268 0.0178013 0)
(2.37412 0.019492 0)
(2.31227 0.0206217 0)
(2.25626 0.0213297 0)
(2.20533 0.0217365 0)
(2.15885 0.0219744 0)
(2.11635 0.0221776 0)
(2.0773 0.0225899 0)
(2.04186 0.0235519 0)
(2.00906 0.0253987 0)
(1.98109 0.0310601 0)
(1.95585 0.025797 0)
(1.73736 -0.0088308 0)
(2.0583 0.120056 0)