/*--------------------------------*- C++ -*----------------------------------*\
| =========                 |                                                 |
| \\      /  F ield         | OpenFOAM: The Open Source CFD Toolbox           |
|  \\    /   O peration     | Version:  2.1.1                                 |
|   \\  /    A nd           | Web:      www.OpenFOAM.org                      |
|    \\/     M anipulation  |                                                 |
\*---------------------------------------------------------------------------*/
FoamFile
{
    version     2.0;
    format      ascii;
    class       volScalarField;
    location    "0.15";
    object      epsilon;
}
// * * * * * * * * * * * * * * * * * * * * * * * * * * * * * * * * * * * * * //

dimensions      [0 2 -3 0 0 0 0];

internalField   nonuniform List<scalar> 
6820
(
151.448
203.151
260.735
321.761
383.629
443.726
499.768
550.044
593.501
629.695
658.696
680.942
697.11
707.997
714.428
717.2
717.042
714.597
710.413
704.95
698.584
691.619
684.296
676.801
669.278
661.836
654.551
647.494
640.617
634.33
626.756
626.876
591.644
11.7448
21.4173
29.9437
38.6241
47.5795
56.556
65.3167
73.6603
81.4247
88.5012
94.8352
100.419
105.284
109.486
113.096
116.192
118.852
121.147
123.144
124.899
126.462
127.874
129.169
130.376
131.518
132.615
133.688
134.758
135.851
137.035
138.33
140.2
142.341
5.83781
7.51679
9.2066
10.8093
12.3198
13.7473
15.0883
16.3391
17.498
18.5649
19.5415
20.4315
21.24
21.9736
22.6395
23.2454
23.7988
24.3072
24.7773
25.2157
25.6279
26.0189
26.3933
26.7546
27.1062
27.4508
27.7907
28.1281
28.4645
28.8027
29.1447
29.4875
29.8788
5.2423
5.56004
6.00443
6.49346
6.98569
7.46189
7.91299
8.33467
8.72526
9.08461
9.41347
9.71319
9.98545
10.2322
10.4554
10.6571
10.8393
11.0039
11.1529
11.2879
11.4105
11.5224
11.6248
11.719
11.8062
11.8873
11.9631
12.0344
12.1015
12.165
12.2243
12.28
12.3294
5.17349
5.18677
5.26821
5.39776
5.55637
5.72968
5.90779
6.08428
6.25512
6.41787
6.57116
6.71428
6.84698
6.96934
7.08163
7.18426
7.27772
7.36257
7.43939
7.50876
7.57127
7.6275
7.678
7.72329
7.76388
7.80022
7.83275
7.86185
7.88789
7.91118
7.93195
7.95047
7.9668
5.16878
5.12131
5.09602
5.09482
5.11536
5.15307
5.20299
5.26075
5.32292
5.38692
5.45089
5.51348
5.5738
5.63122
5.68535
5.73597
5.78299
5.82639
5.86623
5.90261
5.93567
5.96558
5.99252
6.01666
6.03819
6.05731
6.07421
6.08905
6.10203
6.11331
6.12306
6.13139
6.13849
5.16887
5.11169
5.06116
5.01963
4.9884
4.96754
4.95615
4.95279
4.95587
4.96386
4.97542
4.98944
5.00501
5.02141
5.03807
5.05456
5.07057
5.08584
5.10023
5.1136
5.12589
5.13706
5.14711
5.15603
5.16386
5.17064
5.1764
5.18122
5.18514
5.18823
5.19055
5.19215
5.19311
5.16902
5.11063
5.05514
5.00339
4.95619
4.91413
4.87746
4.8461
4.81972
4.7978
4.77979
4.76509
4.75315
4.74346
4.73558
4.72912
4.72375
4.7192
4.71525
4.7117
4.70842
4.70529
4.7022
4.69909
4.69589
4.69258
4.68913
4.68551
4.68172
4.67775
4.67362
4.66931
4.66485
5.16904
5.11054
5.05431
5.00049
4.94927
4.9009
4.85558
4.81345
4.77455
4.73881
4.70609
4.67622
4.64894
4.62403
4.60123
4.58031
4.56104
4.54321
4.52665
4.51118
4.49667
4.48298
4.47
4.45764
4.44582
4.43447
4.42353
4.41295
4.40268
4.39271
4.38298
4.37349
4.36421
5.16904
5.11054
5.0542
5.00002
4.94795
4.89803
4.85027
4.80471
4.76137
4.72027
4.68138
4.64464
4.61
4.57734
4.54657
4.51757
4.49022
4.4644
4.43999
4.41687
4.39495
4.37413
4.35431
4.3354
4.31734
4.30006
4.28349
4.26757
4.25226
4.23752
4.2233
4.20957
4.19629
5.16904
5.11053
5.05418
4.99994
4.94772
4.89747
4.84913
4.80264
4.75799
4.71513
4.67404
4.63469
4.59703
4.56101
4.52658
4.49369
4.46226
4.43224
4.40354
4.37611
4.34987
4.32476
4.30071
4.27766
4.25555
4.23433
4.21394
4.19434
4.17549
4.15733
4.13983
4.12296
4.10667
5.16904
5.11052
5.05417
4.99991
4.94767
4.89735
4.84888
4.80218
4.75719
4.71384
4.67209
4.63188
4.59316
4.55589
4.52003
4.48553
4.45233
4.42039
4.38967
4.36012
4.33168
4.30432
4.27798
4.25263
4.22821
4.20468
4.18201
4.16015
4.13907
4.11873
4.0991
4.08015
4.06184
5.16904
5.11052
5.05416
4.99989
4.94764
4.89731
4.8488
4.80206
4.75698
4.71351
4.67158
4.63112
4.59209
4.55442
4.51807
4.48298
4.44912
4.41643
4.38488
4.35442
4.32502
4.29663
4.26921
4.24273
4.21715
4.19244
4.16856
4.14549
4.12318
4.10161
4.08076
4.06059
4.04107
5.16903
5.11051
5.05415
4.99988
4.94762
4.89728
4.84876
4.802
4.7569
4.71339
4.67141
4.63089
4.59177
4.55398
4.51748
4.48221
4.44813
4.41518
4.38333
4.35253
4.32275
4.29395
4.26608
4.23912
4.21303
4.18779
4.16335
4.13969
4.11679
4.09461
4.07313
4.05233
4.03217
5.16903
5.11051
5.05414
4.99987
4.9476
4.89725
4.84873
4.80195
4.75684
4.71333
4.67133
4.63079
4.59163
4.55381
4.51726
4.48194
4.44778
4.41475
4.3828
4.35189
4.32198
4.29302
4.26499
4.23785
4.21156
4.1861
4.16143
4.13753
4.11437
4.09192
4.07015
4.04905
4.02859
5.16903
5.11051
5.05413
4.99986
4.94758
4.89723
4.8487
4.80192
4.7568
4.71327
4.67126
4.63071
4.59154
4.5537
4.51714
4.48179
4.44761
4.41455
4.38257
4.35162
4.32166
4.29265
4.26456
4.23735
4.21099
4.18545
4.16069
4.13669
4.11343
4.09087
4.06898
4.04776
4.02716
5.16903
5.1105
5.05413
4.99985
4.94757
4.89721
4.84867
4.80188
4.75676
4.71322
4.6712
4.63064
4.59146
4.55361
4.51704
4.48168
4.44749
4.41442
4.38242
4.35145
4.32147
4.29244
4.26433
4.23709
4.2107
4.18513
4.16034
4.1363
4.11299
4.09038
4.06845
4.04717
4.02652
5.16903
5.1105
5.05412
4.99984
4.94756
4.89719
4.84865
4.80185
4.75672
4.71318
4.67115
4.63058
4.59139
4.55354
4.51695
4.48158
4.44738
4.4143
4.38229
4.35131
4.32132
4.29228
4.26415
4.2369
4.2105
4.18491
4.1601
4.13604
4.11271
4.09008
4.06812
4.04682
4.02614
5.16903
5.1105
5.05412
4.99983
4.94755
4.89718
4.84863
4.80183
4.75669
4.71314
4.67111
4.63052
4.59133
4.55346
4.51687
4.48149
4.44728
4.41419
4.38217
4.35118
4.32118
4.29213
4.264
4.23673
4.21032
4.18471
4.15989
4.13582
4.11248
4.08983
4.06786
4.04654
4.02584
5.16903
5.1105
5.05412
4.99982
4.94754
4.89716
4.84861
4.8018
4.75666
4.7131
4.67106
4.63047
4.59127
4.5534
4.5168
4.48141
4.44719
4.41409
4.38207
4.35107
4.32106
4.292
4.26385
4.23658
4.21015
4.18454
4.1597
4.13562
4.11227
4.08961
4.06763
4.04629
4.02558
5.16903
5.1105
5.05411
4.99982
4.94753
4.89715
4.8486
4.80178
4.75663
4.71307
4.67102
4.63043
4.59122
4.55334
4.51673
4.48134
4.44711
4.414
4.38197
4.35096
4.32094
4.29187
4.26371
4.23643
4.21
4.18437
4.15953
4.13544
4.11207
4.0894
4.0674
4.04606
4.02533
5.16903
5.11049
5.05411
4.99981
4.94752
4.89714
4.84858
4.80177
4.75661
4.71304
4.67099
4.63039
4.59117
4.55329
4.51667
4.48127
4.44703
4.41392
4.38187
4.35086
4.32083
4.29175
4.26359
4.2363
4.20985
4.18422
4.15936
4.13526
4.11188
4.0892
4.06719
4.04583
4.0251
5.16903
5.11049
5.05411
4.99981
4.94752
4.89713
4.84857
4.80175
4.75659
4.71302
4.67096
4.63035
4.59113
4.55324
4.51661
4.48121
4.44696
4.41384
4.38179
4.35077
4.32073
4.29164
4.26347
4.23617
4.20972
4.18407
4.15921
4.13509
4.1117
4.08901
4.06699
4.04562
4.02487
5.16903
5.11049
5.0541
4.99981
4.94751
4.89712
4.84856
4.80174
4.75657
4.71299
4.67093
4.63032
4.59109
4.55319
4.51656
4.48115
4.4469
4.41377
4.38171
4.35068
4.32064
4.29154
4.26336
4.23605
4.20959
4.18394
4.15906
4.13494
4.11154
4.08884
4.06681
4.04543
4.02466
5.16903
5.11049
5.0541
4.9998
4.94751
4.89712
4.84855
4.80172
4.75656
4.71298
4.67091
4.63029
4.59106
4.55316
4.51652
4.4811
4.44685
4.41371
4.38164
4.3506
4.32055
4.29145
4.26326
4.23594
4.20947
4.18381
4.15893
4.13479
4.11138
4.08867
4.06663
4.04524
4.02447
5.16903
5.11049
5.0541
4.9998
4.9475
4.89711
4.84854
4.80171
4.75654
4.71296
4.67089
4.63027
4.59103
4.55312
4.51648
4.48106
4.4468
4.41365
4.38158
4.35054
4.32048
4.29137
4.26317
4.23585
4.20937
4.18369
4.1588
4.13466
4.11124
4.08852
4.06647
4.04507
4.02429
5.16903
5.11049
5.0541
4.9998
4.9475
4.89711
4.84854
4.8017
4.75653
4.71294
4.67087
4.63025
4.59101
4.55309
4.51645
4.48101
4.44675
4.4136
4.38152
4.35047
4.32041
4.29129
4.26309
4.23575
4.20927
4.18359
4.15869
4.13454
4.11111
4.08838
4.06632
4.04491
4.02412
5.16903
5.11049
5.0541
4.9998
4.9475
4.89711
4.84853
4.8017
4.75653
4.71294
4.67086
4.63023
4.59099
4.55307
4.51642
4.48099
4.44672
4.41356
4.38148
4.35042
4.32035
4.29123
4.26302
4.23568
4.20918
4.1835
4.15859
4.13443
4.111
4.08826
4.06619
4.04477
4.02397
5.16903
5.11049
5.0541
4.9998
4.9475
4.8971
4.84853
4.80169
4.75651
4.71292
4.67084
4.63021
4.59096
4.55304
4.51639
4.48095
4.44668
4.41352
4.38143
4.35037
4.3203
4.29117
4.26295
4.23561
4.2091
4.18341
4.1585
4.13433
4.11089
4.08815
4.06607
4.04464
4.02383
5.16903
5.11049
5.0541
4.9998
4.9475
4.89711
4.84854
4.8017
4.75653
4.71294
4.67086
4.63023
4.59098
4.55306
4.5164
4.48096
4.44668
4.41352
4.38142
4.35036
4.32028
4.29114
4.26292
4.23557
4.20906
4.18336
4.15844
4.13427
4.11082
4.08807
4.06599
4.04455
4.02374
5.16903
5.11049
5.0541
4.9998
4.9475
4.8971
4.84853
4.80169
4.75651
4.71291
4.67083
4.6302
4.59095
4.55303
4.51637
4.48093
4.44665
4.41349
4.38139
4.35033
4.32025
4.29111
4.26289
4.23554
4.20903
4.18333
4.15841
4.13424
4.11079
4.08803
4.06595
4.04451
4.02369
5.16903
5.11049
5.0541
4.99981
4.94752
4.89714
4.84858
4.80176
4.75659
4.71301
4.67094
4.63031
4.59106
4.55314
4.51648
4.48104
4.44676
4.4136
4.3815
4.35044
4.32036
4.29122
4.263
4.23566
4.20915
4.18346
4.15855
4.13438
4.11094
4.0882
4.06613
4.04471
4.02391
5.16903
5.11051
5.05414
4.99985
4.94756
4.89718
4.84861
4.80178
4.75661
4.71303
4.67096
4.63034
4.5911
4.5532
4.51656
4.48115
4.4469
4.41377
4.38171
4.35069
4.32065
4.29157
4.26341
4.23612
4.20969
4.18406
4.15922
4.13514
4.11179
4.08913
4.06716
4.04583
4.02513
5.16903
5.1105
5.05415
4.99992
4.9477
4.89739
4.8489
4.80214
4.75704
4.71352
4.67152
4.63097
4.59182
4.55401
4.51749
4.4822
4.4481
4.41514
4.38327
4.35246
4.32265
4.29382
4.26593
4.23893
4.2128
4.1875
4.163
4.13927
4.11629
4.09401
4.07243
4.05151
4.03122
5.16905
5.11063
5.0544
5.00025
4.94809
4.89785
4.84947
4.80288
4.75802
4.71483
4.67323
4.63319
4.59463
4.55749
4.52173
4.48729
4.45411
4.42215
4.39135
4.36166
4.33305
4.30545
4.27884
4.25317
4.22839
4.20448
4.18139
4.1591
4.13755
4.11674
4.09661
4.07715
4.05833
5.16908
5.11079
5.05488
5.00137
4.95017
4.90121
4.85441
4.80973
4.76711
4.7265
4.68782
4.651
4.61596
4.58261
4.55086
4.52064
4.49185
4.46442
4.43826
4.41329
4.38946
4.36668
4.3449
4.32405
4.30408
4.28494
4.26657
4.24894
4.23199
4.21569
4.20001
4.1849
4.17033
5.16939
5.11358
5.06201
5.01464
4.97149
4.93249
4.89748
4.86616
4.83825
4.8134
4.7913
4.77164
4.75413
4.73853
4.72459
4.71211
4.70089
4.69078
4.68164
4.67332
4.66573
4.65876
4.65233
4.64636
4.6408
4.63557
4.63063
4.62595
4.62147
4.61718
4.61305
4.60904
4.60514
5.17808
5.16328
5.1695
5.19119
5.22437
5.26602
5.31375
5.36568
5.42038
5.47677
5.53401
5.59143
5.64855
5.70497
5.76039
5.81461
5.86745
5.91881
5.9686
6.01679
6.06333
6.10824
6.15152
6.19319
6.23327
6.27181
6.30884
6.3444
6.37855
6.41133
6.44279
6.47299
6.50198
5.63861
6.43045
7.14591
7.82576
8.49491
9.14737
9.77724
10.3822
10.9621
11.5177
12.0506
12.5622
13.054
13.5276
13.9841
14.4247
14.8503
15.2618
15.6601
16.0457
16.4193
16.7815
17.1327
17.4734
17.804
18.125
18.4367
18.7394
19.0335
19.3194
19.5973
19.8675
20.1304
44.7794
48.3124
51.8864
55.4656
59.0311
62.5709
66.0744
69.5318
72.9345
76.2746
79.5453
82.7407
85.8559
88.8869
91.8306
94.6847
97.4472
100.117
102.695
105.179
107.571
109.871
112.081
114.202
116.235
118.184
120.049
121.834
123.54
125.169
126.725
128.21
129.627
704.953
837.447
942.059
1022.47
1084.01
1126.82
1149.12
1149.93
1130.71
1095.41
1049.24
997.502
944.577
893.477
845.843
802.242
762.566
726.394
693.243
662.695
634.442
608.264
583.995
561.484
540.575
521.095
502.858
485.672
469.347
453.7
438.566
423.795
409.255
394.829
380.417
365.933
351.307
336.48
321.413
306.079
290.471
274.599
258.493
242.204
225.8
209.371
193.024
176.88
161.073
145.744
131.032
117.075
103.994
91.8945
80.8548
70.9243
62.1204
54.4289
47.807
42.188
37.4885
33.6153
30.4724
27.967
26.013
24.5341
23.4636
22.7438
22.3242
22.1588
22.2035
22.4132
22.7402
23.1328
23.536
23.8926
24.1457
24.2422
24.1357
23.7898
23.1801
22.2966
21.1441
19.743
18.129
16.352
14.4748
12.5694
10.7122
8.9766
7.42497
6.09995
5.0192
4.1755
3.54248
3.0831
2.75942
2.53447
2.38866
2.25675
147.291
154.314
164.726
179.715
200.167
226.742
259.589
297.992
340.323
384.214
426.854
465.411
497.483
521.457
536.7
543.525
542.988
536.572
525.88
512.393
497.319
481.543
465.645
449.958
434.64
419.736
405.23
391.075
377.211
363.579
350.117
336.765
323.467
310.17
296.825
283.389
269.831
256.13
242.276
228.277
214.153
199.943
185.702
171.499
157.422
143.567
130.044
116.969
104.456
92.6183
81.5585
71.3622
62.0941
53.7928
46.4689
40.105
34.6577
30.0623
26.2393
23.1008
20.5573
18.5235
16.9217
15.6849
14.7569
14.092
13.6543
13.4154
13.3524
13.4458
13.6767
14.0244
14.4643
14.966
15.4925
16.0012
16.4455
16.7781
16.9542
16.9362
16.6964
16.2201
15.5072
14.5732
13.4488
12.1785
10.8185
9.43208
8.08419
6.83422
5.72873
4.79581
4.04313
3.46042
3.02553
2.71065
2.48919
2.33522
2.23624
2.14693
30.2511
30.6773
31.3259
32.3802
34.0264
36.344
39.4876
43.7663
49.5178
57.0761
66.7169
78.5973
92.6966
108.775
126.366
144.805
163.301
181.025
197.21
211.235
222.688
231.375
237.312
240.674
241.743
240.848
238.322
234.467
229.541
223.747
217.241
210.137
202.52
194.449
185.976
177.14
167.984
158.551
148.888
139.053
129.107
119.123
109.181
99.3674
89.7742
80.4953
71.6235
63.2464
55.4417
48.273
41.7862
36.0062
30.936
26.5568
22.8308
19.7049
17.1158
14.9957
13.2768
11.896
10.7966
9.93047
9.25792
8.74726
8.37404
8.11998
7.97194
7.92085
7.96059
8.08682
8.29554
8.58155
8.93659
9.3476
9.79532
10.2536
10.6901
11.068
11.3491
11.4979
11.4854
11.2927
10.9134
10.3557
9.64161
8.80608
7.89404
6.95597
6.04226
5.19708
4.45304
3.82807
3.32547
2.93677
2.64648
2.43592
2.28783
2.18472
2.11926
2.06029
12.3821
12.4529
12.5422
12.6559
12.8083
13.0202
13.3075
13.6809
14.1733
14.8298
15.7038
16.8565
18.3546
20.268
22.6651
25.6057
29.131
33.2524
37.9403
43.118
48.6613
54.4051
60.1567
65.713
70.8781
75.4796
79.3796
82.4808
84.7276
86.102
86.6179
86.3128
85.2413
83.4687
81.066
78.1077
74.6696
70.8284
66.6613
62.2464
57.6626
52.9885
48.3023
43.6799
39.1932
34.9077
30.8802
27.1565
23.7695
20.7385
18.0685
15.7515
13.7686
12.0923
10.6902
9.52758
8.57026
7.78637
7.14758
6.62956
6.21205
5.87858
5.61615
5.41474
5.26695
5.16764
5.11358
5.1032
5.13624
5.21335
5.33557
5.50357
5.71666
5.97156
6.26109
6.573
6.88943
7.18724
7.43958
7.61859
7.69879
7.66066
7.49376
7.19876
6.78806
6.28485
5.72059
5.13109
4.55187
4.01347
3.53792
3.13714
2.8135
2.56199
2.37329
2.23585
2.1392
2.07178
2.0298
1.99195
7.98339
8.00106
8.01804
8.0346
8.05211
8.07323
8.10206
8.14028
8.19097
8.25918
8.35142
8.47549
8.64037
8.85599
9.13296
9.4822
9.91439
10.4393
11.0651
11.7974
12.6379
13.5841
14.6278
15.754
16.941
18.16
19.3764
20.551
21.6426
22.6107
23.4179
24.0324
24.43
24.5952
24.5216
24.212
23.6775
22.9371
22.0159
20.9442
19.7554
18.4848
17.1681
15.8392
14.5295
13.2659
12.0706
10.96
9.94476
9.03031
8.21728
7.50252
6.88016
6.34259
5.88129
5.48756
5.15297
4.86971
4.63077
4.43005
4.26233
4.12329
4.00949
3.91827
3.84775
3.79676
3.76484
3.75217
3.75953
3.7882
3.83977
3.91587
4.01771
4.14548
4.2975
4.46936
4.65317
4.83713
5.00589
5.1417
5.22653
5.24462
5.18524
5.0448
4.82792
4.54725
4.22178
3.87408
3.52696
3.20028
2.90864
2.66041
2.45809
2.29951
2.17977
2.09212
2.03059
1.98756
1.9616
1.93796
6.14507
6.15037
6.15351
6.15479
6.15448
6.15294
6.15081
6.14861
6.14703
6.14694
6.14944
6.15585
6.16773
6.18685
6.21521
6.25488
6.30798
6.37653
6.46227
6.56657
6.69027
6.83352
6.99571
7.17527
7.36965
7.57519
7.78714
7.99972
8.20624
8.39935
8.57141
8.7148
8.82243
8.88815
8.90714
8.87624
8.79419
8.66174
8.48156
8.25812
7.99741
7.70651
7.39319
7.06548
6.73117
6.39749
6.07079
5.75634
5.45824
5.17941
4.92169
4.68594
4.47219
4.27987
4.10795
3.95506
3.81967
3.7002
3.59506
3.50277
3.42196
3.35147
3.29032
3.23778
3.19335
3.15682
3.12824
3.10797
3.09664
3.09519
3.10474
3.12656
3.16183
3.21141
3.27536
3.35252
3.43992
3.53237
3.62234
3.70026
3.75546
3.77761
3.7585
3.69364
3.58346
3.43351
3.25372
3.05686
2.85641
2.66456
2.49073
2.34078
2.21713
2.11925
2.04485
1.99011
1.95187
1.925
1.90959
1.89507
5.19335
5.1924
5.19004
5.18625
5.18102
5.17438
5.16646
5.15739
5.1474
5.13672
5.12557
5.11422
5.10297
5.09218
5.08226
5.0737
5.067
5.06271
5.06133
5.06333
5.06907
5.07875
5.0924
5.10982
5.13057
5.15394
5.17896
5.2044
5.2288
5.25054
5.26785
5.27895
5.28208
5.27562
5.2582
5.22874
5.18658
5.13144
5.06356
4.98359
4.89261
4.79207
4.68368
4.56937
4.45113
4.33095
4.21072
4.09217
3.97678
3.86577
3.76011
3.66044
3.56718
3.48049
3.40033
3.3265
3.25867
3.19644
3.13935
3.08692
3.03869
2.99426
2.95326
2.91544
2.88063
2.84878
2.82
2.79452
2.77273
2.75518
2.74257
2.73571
2.73542
2.74245
2.75726
2.77978
2.8091
2.84319
2.87873
2.91108
2.93467
2.94362
2.93273
2.89845
2.83976
2.75856
2.65945
2.549
2.43465
2.32347
2.22124
2.13187
2.05731
1.99771
1.95214
1.91845
1.89509
1.8785
1.86971
1.86067
4.65939
4.65259
4.64501
4.63656
4.62724
4.61704
4.606
4.59412
4.58141
4.56793
4.5537
4.53878
4.52321
4.50704
4.49035
4.47322
4.45576
4.4381
4.42038
4.40275
4.38535
4.36831
4.35169
4.33554
4.31982
4.30442
4.28915
4.27375
4.25788
4.2411
4.22298
4.20301
4.18069
4.15554
4.12715
4.09516
4.05932
4.0195
3.97572
3.9281
3.87693
3.8226
3.76563
3.7066
3.64614
3.58493
3.52361
3.4628
3.40308
3.3449
3.28868
3.23469
3.18312
3.13407
3.08753
3.04343
3.00162
2.96193
2.92412
2.88798
2.85327
2.81978
2.78732
2.75576
2.72501
2.69505
2.66593
2.63778
2.61082
2.58537
2.56183
2.54069
2.52248
2.50774
2.49691
2.49023
2.48759
2.48835
2.49118
2.49406
2.49434
2.48901
2.47516
2.45053
2.41402
2.36602
2.30845
2.24447
2.17792
2.11268
2.0521
1.99858
1.9535
1.91714
1.88919
1.86839
1.8541
1.84371
1.8388
1.83269
4.35359
4.34136
4.32881
4.31587
4.30251
4.28869
4.27438
4.25956
4.24425
4.22843
4.2121
4.19525
4.17788
4.15997
4.14151
4.12248
4.10289
4.08274
4.06204
4.04083
4.01913
3.99699
3.97445
3.95153
3.92826
3.90464
3.88066
3.8563
3.83147
3.80611
3.7801
3.75334
3.72568
3.69702
3.66723
3.63623
3.60394
3.57033
3.53544
3.4993
3.46204
3.4238
3.38478
3.34521
3.30532
3.26537
3.22562
3.18631
3.14765
3.10983
3.07299
3.03722
3.00256
2.96903
2.93658
2.90511
2.87453
2.84468
2.81542
2.78657
2.758
2.72954
2.70107
2.6725
2.64375
2.61481
2.58569
2.55646
2.52725
2.49825
2.46968
2.44186
2.41511
2.3898
2.36629
2.34486
2.32566
2.3086
2.29329
2.27897
2.26451
2.24855
2.22962
2.20649
2.17839
2.14528
2.10788
2.0676
2.02634
1.9861
1.94869
1.91548
1.88732
1.86442
1.84671
1.83337
1.82426
1.8173
1.81442
1.80951
4.18131
4.1644
4.14742
4.13032
4.11309
4.09567
4.07806
4.06024
4.04218
4.02389
4.00533
3.9865
3.96738
3.94793
3.92813
3.90796
3.8874
3.86641
3.84498
3.8231
3.80075
3.77795
3.75468
3.73096
3.70681
3.68222
3.65722
3.63181
3.606
3.57979
3.55317
3.52614
3.49868
3.47079
3.44247
3.4137
3.3845
3.35488
3.32489
3.29457
3.26398
3.23321
3.20235
3.1715
3.14077
3.11026
3.08009
3.05034
3.02109
2.9924
2.9643
2.93679
2.90987
2.88348
2.85754
2.83197
2.80666
2.78147
2.75628
2.73096
2.70538
2.67943
2.65299
2.626
2.59839
2.57014
2.54126
2.51178
2.48179
2.4514
2.42077
2.39008
2.35958
2.32951
2.30013
2.27172
2.24447
2.21851
2.19382
2.17023
2.14736
2.12469
2.1016
2.07752
2.05204
2.02507
1.99687
1.96805
1.93948
1.91215
1.88698
1.86466
1.84568
1.8301
1.81794
1.80857
1.80211
1.79678
1.79473
1.78988
4.08835
4.06777
4.04725
4.02675
4.00626
3.98576
3.96523
3.94465
3.92401
3.9033
3.88251
3.86163
3.84064
3.81952
3.79824
3.7768
3.75516
3.73329
3.71119
3.68881
3.66615
3.6432
3.61993
3.59636
3.57247
3.54827
3.52377
3.49897
3.47389
3.44854
3.42295
3.39712
3.37107
3.34484
3.31843
3.29188
3.26522
3.23848
3.2117
3.18492
3.1582
3.13158
3.10512
3.07886
3.05287
3.0272
3.00187
2.97692
2.95238
2.92823
2.90448
2.88108
2.85799
2.83513
2.81244
2.7898
2.76711
2.74426
2.72113
2.69761
2.67358
2.64895
2.62362
2.59754
2.57065
2.54294
2.51439
2.48504
2.45495
2.42419
2.39289
2.36119
2.32926
2.29728
2.26548
2.23407
2.20325
2.17321
2.14408
2.11592
2.0887
2.0623
2.03655
2.01126
1.98628
1.96158
1.93727
1.91362
1.89103
1.86995
1.8508
1.83392
1.81952
1.80757
1.79809
1.79055
1.78517
1.78034
1.77836
1.77289
4.04123
4.01809
3.99502
3.97203
3.9491
3.92623
3.90339
3.88059
3.85782
3.83508
3.81236
3.78965
3.76694
3.74422
3.72149
3.69872
3.67591
3.65302
3.63005
3.60698
3.5838
3.56048
3.53702
3.51342
3.48965
3.46573
3.44166
3.41743
3.39306
3.36857
3.34396
3.31925
3.29447
3.26964
3.24478
3.21993
3.19511
3.17036
3.14572
3.1212
3.09686
3.07273
3.04884
3.02521
3.00189
2.97888
2.95619
2.93384
2.9118
2.89006
2.86859
2.84733
2.82623
2.8052
2.78417
2.76304
2.7417
2.72006
2.698
2.67542
2.65223
2.62833
2.60366
2.57814
2.55175
2.52445
2.49625
2.46718
2.43727
2.4066
2.37527
2.3434
2.31112
2.27859
2.24599
2.21352
2.18136
2.1497
2.11872
2.08858
2.05937
2.03116
2.004
1.97787
1.9528
1.92882
1.906
1.88449
1.86447
1.84613
1.82967
1.81519
1.80279
1.79236
1.78389
1.77691
1.77169
1.7667
1.76434
1.75785
4.01907
3.99432
3.96964
3.94503
3.92048
3.89599
3.87156
3.84718
3.82286
3.7986
3.7744
3.75026
3.72618
3.70214
3.67816
3.65423
3.63032
3.60645
3.58259
3.55875
3.5349
3.51104
3.48717
3.46327
3.43935
3.41539
3.39141
3.3674
3.34337
3.31933
3.2953
3.27128
3.24729
3.22335
3.19949
3.17572
3.15207
3.12857
3.10524
3.08212
3.05921
3.03655
3.01416
2.99206
2.97024
2.94873
2.9275
2.90656
2.88588
2.86543
2.84516
2.82502
2.80495
2.78486
2.76468
2.74432
2.72367
2.70264
2.68114
2.65907
2.63633
2.61286
2.58857
2.56343
2.53739
2.51044
2.48257
2.45381
2.4242
2.3938
2.36271
2.33102
2.29887
2.26639
2.23374
2.2011
2.16864
2.13654
2.105
2.07418
2.04425
2.01534
1.98757
1.96103
1.93582
1.91201
1.88969
1.86894
1.84986
1.83254
1.81705
1.80341
1.79162
1.78155
1.77319
1.76606
1.76048
1.75494
1.75197
1.74427
4.00942
3.98379
3.95819
3.93264
3.90713
3.88167
3.85625
3.83088
3.80556
3.7803
3.7551
3.72997
3.70491
3.67992
3.65501
3.63017
3.60541
3.58072
3.5561
3.53155
3.50706
3.48264
3.45827
3.43396
3.40971
3.38552
3.36138
3.33731
3.31331
3.28939
3.26555
3.24181
3.21818
3.19468
3.17132
3.14812
3.1251
3.10228
3.07968
3.05731
3.03519
3.01334
2.99177
2.97048
2.94947
2.92875
2.90829
2.88808
2.86809
2.84828
2.82861
2.80902
2.78944
2.7698
2.75002
2.73001
2.70969
2.68895
2.66772
2.6459
2.62341
2.60018
2.57615
2.55126
2.52549
2.49882
2.47125
2.4428
2.41352
2.38346
2.3527
2.32135
2.28952
2.25734
2.22496
2.19253
2.16023
2.12823
2.09671
2.06585
2.03581
2.00676
1.97885
1.9522
1.92693
1.90315
1.88094
1.86037
1.84151
1.8244
1.80907
1.79548
1.78362
1.77333
1.76458
1.75696
1.75074
1.74448
1.74077
1.73177
4.00547
3.97941
3.95335
3.92731
3.9013
3.8753
3.84934
3.8234
3.79751
3.77166
3.74586
3.72011
3.69444
3.66883
3.64329
3.61784
3.59247
3.56719
3.542
3.5169
3.49189
3.46698
3.44217
3.41746
3.39285
3.36834
3.34395
3.31968
3.29553
3.27151
3.24763
3.22391
3.20035
3.17697
3.15377
3.13078
3.10801
3.08548
3.06318
3.04115
3.01939
2.9979
2.9767
2.95577
2.93513
2.91475
2.89463
2.87473
2.85503
2.83549
2.81605
2.79666
2.77727
2.75778
2.73814
2.71826
2.69805
2.67742
2.6563
2.63459
2.61222
2.58913
2.56526
2.54056
2.515
2.48857
2.46127
2.43312
2.40416
2.37445
2.34407
2.3131
2.28166
2.24988
2.21789
2.18583
2.15388
2.12219
2.09095
2.06031
2.03045
2.00152
1.9737
1.9471
1.92186
1.89808
1.87585
1.85525
1.83631
1.81906
1.80352
1.78963
1.77737
1.76658
1.75723
1.74893
1.74195
1.73489
1.73042
1.72012
4.00388
3.97762
3.95135
3.92508
3.89881
3.87256
3.84632
3.8201
3.7939
3.76773
3.7416
3.71551
3.68948
3.6635
3.63759
3.61176
3.586
3.56033
3.53475
3.50927
3.48388
3.4586
3.43344
3.40839
3.38347
3.35867
3.33401
3.3095
3.28514
3.26094
3.23691
3.21306
3.18941
3.16597
3.14274
3.11974
3.09699
3.07448
3.05225
3.03028
3.0086
2.9872
2.96608
2.94525
2.92469
2.90439
2.88433
2.86449
2.84483
2.82532
2.8059
2.78652
2.76712
2.74763
2.72797
2.70807
2.68785
2.66722
2.64611
2.62443
2.60212
2.57911
2.55534
2.53078
2.5054
2.47917
2.45212
2.42425
2.3956
2.36624
2.33622
2.30565
2.27463
2.24326
2.2117
2.18007
2.14853
2.11724
2.08636
2.05606
2.02649
1.99781
1.97017
1.9437
1.91853
1.89476
1.87248
1.85175
1.83262
1.8151
1.7992
1.78486
1.77206
1.76065
1.75062
1.74157
1.73381
1.72593
1.72068
1.70914
4.00317
3.97681
3.95045
3.92407
3.8977
3.87132
3.84495
3.81858
3.79223
3.7659
3.7396
3.71333
3.68711
3.66093
3.6348
3.60874
3.58275
3.55684
3.53101
3.50527
3.47963
3.4541
3.42868
3.40338
3.3782
3.35317
3.32827
3.30354
3.27896
3.25456
3.23035
3.20633
3.18252
3.15892
3.13556
3.11244
3.08958
3.06698
3.04465
3.0226
3.00083
2.97936
2.95817
2.93726
2.91662
2.89624
2.87609
2.85616
2.8364
2.81678
2.79726
2.77776
2.75825
2.73865
2.71889
2.6989
2.67859
2.6579
2.63674
2.61505
2.59275
2.56978
2.54609
2.52164
2.4964
2.47037
2.44354
2.41593
2.38758
2.35855
2.3289
2.29871
2.2681
2.23716
2.20603
2.17483
2.14373
2.11285
2.08237
2.05243
2.02318
1.99478
1.96736
1.94106
1.91598
1.89223
1.86988
1.84901
1.82964
1.81179
1.79547
1.78064
1.76726
1.75519
1.74445
1.73464
1.72609
1.7174
1.71141
1.69868
4.00275
3.97636
3.94994
3.92352
3.89708
3.87065
3.84421
3.81777
3.79135
3.76493
3.73854
3.71217
3.68584
3.65955
3.6333
3.60711
3.58097
3.55491
3.52892
3.50302
3.47721
3.4515
3.4259
3.40041
3.37505
3.34982
3.32474
3.29981
3.27505
3.25046
3.22606
3.20186
3.17787
3.1541
3.13057
3.10728
3.08425
3.06149
3.039
3.01679
2.99486
2.97322
2.95187
2.9308
2.90999
2.88944
2.86912
2.84901
2.82908
2.80928
2.78958
2.76991
2.75023
2.73047
2.71056
2.69043
2.67001
2.64921
2.62798
2.60624
2.58393
2.56098
2.53734
2.51299
2.48788
2.46202
2.4354
2.40804
2.37998
2.35126
2.32196
2.29215
2.26192
2.2314
2.20069
2.16992
2.13924
2.10878
2.07869
2.04911
2.0202
1.99208
1.96489
1.93875
1.91376
1.89003
1.86762
1.84659
1.82697
1.80879
1.79204
1.77669
1.76271
1.74999
1.73854
1.72799
1.71866
1.7092
1.7025
1.68866
4.00243
3.97601
3.94957
3.92311
3.89665
3.87017
3.8437
3.81722
3.79075
3.76429
3.73784
3.71141
3.68501
3.65865
3.63232
3.60604
3.57982
3.55366
3.52756
3.50155
3.47562
3.44978
3.42404
3.39841
3.37291
3.34753
3.32229
3.2972
3.27228
3.24752
3.22295
3.19858
3.17442
3.15047
3.12676
3.10329
3.08008
3.05713
3.03445
3.01205
2.98993
2.96809
2.94654
2.92526
2.90424
2.88348
2.86295
2.84263
2.82248
2.80247
2.78256
2.76269
2.74281
2.72286
2.70277
2.68249
2.66192
2.64102
2.6197
2.5979
2.57556
2.55261
2.52902
2.50475
2.47977
2.45406
2.42764
2.40051
2.37272
2.34431
2.31533
2.28588
2.25604
2.22591
2.19561
2.16526
2.13499
2.10493
2.07522
2.046
2.0174
1.98955
1.96258
1.9366
1.9117
1.88798
1.86549
1.8443
1.82443
1.80591
1.78873
1.77287
1.7583
1.74494
1.73278
1.72151
1.71144
1.70123
1.69386
1.679
4.00215
3.97571
3.94924
3.92276
3.89627
3.86977
3.84326
3.81676
3.79025
3.76375
3.73727
3.7108
3.68435
3.65794
3.63155
3.60521
3.57892
3.55268
3.52651
3.5004
3.47438
3.44844
3.4226
3.39686
3.37123
3.34573
3.32036
3.29513
3.27006
3.24516
3.22044
3.19591
3.17158
3.14747
3.12358
3.09993
3.07654
3.0534
3.03052
3.00792
2.9856
2.96355
2.94178
2.92029
2.89905
2.87807
2.85731
2.83676
2.81638
2.79615
2.77601
2.75592
2.73584
2.71569
2.69542
2.67497
2.65426
2.63324
2.61182
2.58996
2.56758
2.54464
2.52108
2.49688
2.47201
2.44646
2.42022
2.39332
2.36578
2.33766
2.309
2.2799
2.25042
2.22067
2.19076
2.16081
2.13093
2.10125
2.0719
2.04302
2.01472
1.98714
1.96038
1.93454
1.90972
1.886
1.86343
1.84207
1.82195
1.80308
1.78547
1.7691
1.75396
1.73995
1.72712
1.71513
1.70434
1.69343
1.68541
1.6696
4.00189
3.97543
3.94894
3.92244
3.89592
3.8694
3.84287
3.81633
3.7898
3.76327
3.73675
3.71024
3.68376
3.6573
3.63087
3.60447
3.57812
3.55182
3.52558
3.4994
3.4733
3.44727
3.42134
3.3955
3.36977
3.34416
3.31867
3.29333
3.26813
3.2431
3.21823
3.19356
3.16908
3.1448
3.12075
3.09693
3.07336
3.05003
3.02697
3.00417
2.98165
2.95939
2.93741
2.9157
2.89424
2.87303
2.85204
2.83126
2.81066
2.7902
2.76984
2.74953
2.72924
2.7089
2.68845
2.66783
2.64698
2.62583
2.60432
2.58239
2.55997
2.53703
2.5135
2.48937
2.4646
2.43919
2.41313
2.38644
2.35915
2.3313
2.30295
2.27418
2.24505
2.21567
2.18614
2.15656
2.12705
2.09774
2.06874
2.04018
2.01217
1.98483
1.95826
1.93255
1.9078
1.88406
1.86141
1.83987
1.81949
1.80027
1.78223
1.76535
1.74963
1.73498
1.72147
1.70879
1.6973
1.6857
1.67708
1.6604
4.00164
3.97516
3.94865
3.92213
3.8956
3.86905
3.84249
3.81593
3.78937
3.76281
3.73626
3.70972
3.6832
3.6567
3.63022
3.60378
3.57738
3.55102
3.52472
3.49847
3.4723
3.44619
3.42018
3.39425
3.36843
3.34272
3.31713
3.29167
3.26636
3.2412
3.2162
3.19139
3.16677
3.14235
3.11814
3.09416
3.07041
3.04691
3.02367
3.00068
2.97796
2.9555
2.93332
2.91139
2.88972
2.86829
2.84708
2.82608
2.80525
2.78456
2.76399
2.74347
2.72298
2.70244
2.68182
2.66104
2.64004
2.61878
2.59717
2.57517
2.55272
2.52977
2.50628
2.48221
2.45754
2.43226
2.40637
2.37988
2.35283
2.32525
2.29719
2.26873
2.23994
2.21091
2.18174
2.15252
2.12338
2.09442
2.06575
2.03749
2.00975
1.98263
1.95624
1.93065
1.90594
1.88218
1.85942
1.8377
1.81704
1.79746
1.77897
1.76156
1.74525
1.72996
1.71576
1.70238
1.6902
1.67794
1.66874
1.6513
4.0014
3.97491
3.94838
3.92184
3.89528
3.86872
3.84214
3.81555
3.78896
3.76238
3.7358
3.70922
3.68266
3.65612
3.62961
3.60312
3.57667
3.55026
3.5239
3.49759
3.47135
3.44518
3.41908
3.39308
3.36717
3.34136
3.31567
3.29011
3.26469
3.23941
3.2143
3.18936
3.1646
3.14004
3.11569
3.09155
3.06765
3.04398
3.02056
2.99739
2.97449
2.95184
2.92945
2.90732
2.88544
2.8638
2.84238
2.82116
2.80012
2.77923
2.75844
2.73773
2.71703
2.69631
2.67552
2.65458
2.63345
2.61207
2.59038
2.56831
2.54583
2.52287
2.49941
2.4754
2.45082
2.42567
2.39995
2.37366
2.34683
2.31951
2.29174
2.26359
2.23513
2.20644
2.17761
2.14875
2.11995
2.09132
2.06296
2.03499
2.0075
1.98059
1.95435
1.92886
1.90418
1.88038
1.85749
1.83555
1.81459
1.79462
1.77566
1.75769
1.74075
1.72479
1.70987
1.69578
1.68291
1.67002
1.66028
1.64221
4.00118
3.97467
3.94813
3.92157
3.89499
3.8684
3.8418
3.81519
3.78858
3.76196
3.73535
3.70875
3.68216
3.65558
3.62902
3.60249
3.576
3.54954
3.52312
3.49676
3.47045
3.44421
3.41805
3.39196
3.36597
3.34008
3.3143
3.28864
3.26312
3.23773
3.2125
3.18744
3.16256
3.13786
3.11337
3.08909
3.06504
3.04121
3.01763
2.99429
2.97121
2.94838
2.9258
2.90348
2.88141
2.85956
2.83794
2.81652
2.79527
2.77418
2.75319
2.73228
2.7114
2.69051
2.66955
2.64847
2.62721
2.60572
2.58394
2.56182
2.5393
2.51635
2.49291
2.46897
2.44449
2.41947
2.39391
2.36781
2.34122
2.31415
2.28666
2.25881
2.23066
2.2023
2.17382
2.14529
2.11682
2.08851
2.06046
2.03276
2.0055