/*--------------------------------*- C++ -*----------------------------------*\
| =========                 |                                                 |
| \\      /  F ield         | OpenFOAM: The Open Source CFD Toolbox           |
|  \\    /   O peration     | Version:  2.1.1                                 |
|   \\  /    A nd           | Web:      www.OpenFOAM.org                      |
|    \\/     M anipulation  |                                                 |
\*---------------------------------------------------------------------------*/
FoamFile
{
    version     2.0;
    format      ascii;
    class       volScalarField;
    location    "0.15";
    object      k;
}
// * * * * * * * * * * * * * * * * * * * * * * * * * * * * * * * * * * * * * //

dimensions      [0 2 -2 0 0 0 0];

internalField   nonuniform List<scalar> 
6820
(
0.288909
0.351398
0.415005
0.477466
0.53686
0.591557
0.640372
0.68263
0.718127
0.747034
0.769798
0.787034
0.799444
0.807745
0.812629
0.81473
0.81461
0.812757
0.809581
0.805426
0.80057
0.79524
0.789616
0.783839
0.77802
0.772242
0.766564
0.761044
0.755646
0.750694
0.744706
0.744801
0.716626
0.265532
0.269396
0.270523
0.27134
0.272558
0.274214
0.276224
0.278474
0.280853
0.283276
0.285687
0.288055
0.29037
0.292639
0.294874
0.297094
0.29932
0.301569
0.303858
0.306199
0.308602
0.311071
0.313611
0.316223
0.318907
0.321662
0.324489
0.327396
0.330395
0.333542
0.336855
0.34082
0.344936
0.262038
0.264253
0.263596
0.261557
0.259001
0.256319
0.253627
0.250938
0.24824
0.245525
0.242794
0.240062
0.237346
0.234668
0.232052
0.229518
0.227085
0.224768
0.22258
0.22053
0.218625
0.216867
0.215259
0.213801
0.212489
0.211323
0.210297
0.209409
0.208655
0.208037
0.207542
0.207198
0.206944
0.259885
0.260272
0.259797
0.258535
0.256829
0.254891
0.252833
0.25071
0.248547
0.246359
0.244153
0.241936
0.239715
0.237496
0.235289
0.233099
0.230935
0.228803
0.226711
0.224664
0.222666
0.220723
0.218837
0.217011
0.215247
0.213547
0.21191
0.210338
0.208828
0.207382
0.205995
0.204671
0.203397
0.259299
0.258404
0.2576
0.256567
0.255295
0.25385
0.252292
0.250662
0.248985
0.247278
0.245552
0.243816
0.242076
0.240337
0.238603
0.236879
0.235169
0.233476
0.231803
0.230153
0.22853
0.226934
0.225368
0.223835
0.222335
0.220869
0.219439
0.218044
0.216686
0.215364
0.214078
0.21283
0.211619
0.259224
0.257848
0.256623
0.255437
0.254227
0.25297
0.251663
0.250313
0.248929
0.247523
0.246101
0.244671
0.243238
0.241806
0.240379
0.23896
0.237552
0.236156
0.234775
0.233411
0.232066
0.23074
0.229435
0.228153
0.226893
0.225657
0.224446
0.223259
0.222098
0.220962
0.219853
0.21877
0.217716
0.259217
0.257715
0.256309
0.25498
0.253698
0.252442
0.251196
0.249951
0.248704
0.247455
0.246205
0.244956
0.243711
0.242471
0.241238
0.240015
0.238803
0.237603
0.236417
0.235246
0.234091
0.232953
0.231831
0.230728
0.229644
0.228579
0.227533
0.226507
0.225501
0.224516
0.223551
0.222608
0.221687
0.259218
0.25769
0.256225
0.254822
0.253477
0.252181
0.250924
0.249696
0.248492
0.247307
0.246137
0.244982
0.24384
0.242712
0.241597
0.240495
0.239408
0.238335
0.237277
0.236234
0.235207
0.234196
0.233202
0.232224
0.231263
0.23032
0.229393
0.228485
0.227593
0.22672
0.225865
0.225028
0.22421
0.259218
0.257686
0.256207
0.25478
0.253405
0.25208
0.2508
0.24956
0.248357
0.247186
0.246043
0.244925
0.243831
0.242759
0.241706
0.240673
0.239659
0.238662
0.237684
0.236723
0.235779
0.234852
0.233943
0.23305
0.232174
0.231315
0.230473
0.229647
0.228838
0.228046
0.22727
0.226511
0.225769
0.259218
0.257686
0.256203
0.254769
0.253384
0.252045
0.250751
0.2495
0.248289
0.247115
0.245975
0.244867
0.243789
0.242739
0.241714
0.240714
0.239737
0.238782
0.237848
0.236934
0.23604
0.235165
0.234309
0.23347
0.23265
0.231846
0.23106
0.230291
0.229538
0.228802
0.228082
0.227378
0.22669
0.259218
0.257686
0.256202
0.254767
0.253378
0.252035
0.250735
0.249477
0.24826
0.247081
0.245938
0.24483
0.243754
0.24271
0.241694
0.240707
0.239745
0.238809
0.237897
0.237007
0.236139
0.235293
0.234466
0.23366
0.232872
0.232103
0.231352
0.230618
0.229902
0.229202
0.228519
0.227851
0.2272
0.259218
0.257685
0.256201
0.254766
0.253376
0.252031
0.250729
0.249469
0.248248
0.247066
0.245921
0.24481
0.243734
0.242689
0.241675
0.240691
0.239734
0.238805
0.237901
0.237022
0.236166
0.235333
0.234521
0.233731
0.232961
0.23221
0.231479
0.230765
0.23007
0.229392
0.228731
0.228086
0.227457
0.259218
0.257685
0.256201
0.254765
0.253375
0.25203
0.250727
0.249465
0.248244
0.24706
0.245913
0.244801
0.243723
0.242677
0.241663
0.240678
0.239722
0.238794
0.237893
0.237017
0.236166
0.235338
0.234533
0.23375
0.232987
0.232246
0.231524
0.230821
0.230136
0.22947
0.22882
0.228188
0.227572
0.259218
0.257685
0.256201
0.254764
0.253374
0.252028
0.250725
0.249463
0.248241
0.247056
0.245908
0.244796
0.243717
0.24267
0.241655
0.24067
0.239714
0.238786
0.237884
0.237009
0.236159
0.235332
0.234529
0.233749
0.232989
0.232251
0.231533
0.230835
0.230155
0.229494
0.22885
0.228223
0.227613
0.259218
0.257685
0.2562
0.254764
0.253374
0.252028
0.250724
0.249462
0.248239
0.247054
0.245906
0.244792
0.243713
0.242666
0.24165
0.240664
0.239708
0.238779
0.237877
0.237002
0.236151
0.235325
0.234522
0.233742
0.232984
0.232247
0.23153
0.230833
0.230155
0.229495
0.228854
0.22823
0.227622
0.259218
0.257685
0.2562
0.254764
0.253373
0.252027
0.250723
0.249461
0.248238
0.247052
0.245903
0.24479
0.24371
0.242662
0.241646
0.24066
0.239703
0.238774
0.237872
0.236996
0.236145
0.235318
0.234515
0.233735
0.232977
0.232239
0.231523
0.230826
0.230148
0.229489
0.228848
0.228225
0.227618
0.259218
0.257685
0.2562
0.254763
0.253373
0.252026
0.250722
0.24946
0.248236
0.247051
0.245902
0.244787
0.243707
0.242659
0.241643
0.240656
0.239699
0.238769
0.237867
0.236991
0.236139
0.235313
0.234509
0.233729
0.23297
0.232232
0.231515
0.230818
0.23014
0.229481
0.22884
0.228216
0.227609
0.259218
0.257684
0.2562
0.254763
0.253372
0.252026
0.250722
0.249459
0.248235
0.247049
0.2459
0.244785
0.243705
0.242657
0.24164
0.240653
0.239695
0.238765
0.237863
0.236986
0.236135
0.235307
0.234504
0.233723
0.232963
0.232226
0.231508
0.230811
0.230132
0.229473
0.228831
0.228207
0.2276
0.259218
0.257684
0.2562
0.254763
0.253372
0.252025
0.250721
0.249458
0.248234
0.247048
0.245898
0.244784
0.243703
0.242654
0.241637
0.24065
0.239692
0.238762
0.237859
0.236982
0.23613
0.235302
0.234498
0.233717
0.232958
0.232219
0.231502
0.230804
0.230125
0.229465
0.228823
0.228198
0.22759
0.259218
0.257684
0.2562
0.254763
0.253371
0.252025
0.25072
0.249457
0.248233
0.247047
0.245897
0.244782
0.243701
0.242652
0.241635
0.240647
0.239689
0.238759
0.237855
0.236978
0.236126
0.235298
0.234494
0.233712
0.232952
0.232213
0.231495
0.230797
0.230118
0.229457
0.228815
0.22819
0.227581
0.259218
0.257684
0.256199
0.254762
0.253371
0.252024
0.25072
0.249456
0.248232
0.247046
0.245896
0.244781
0.243699
0.24265
0.241632
0.240645
0.239686
0.238756
0.237852
0.236974
0.236122
0.235294
0.234489
0.233707
0.232947
0.232208
0.231489
0.230791
0.230111
0.22945
0.228807
0.228182
0.227573
0.259218
0.257684
0.256199
0.254762
0.253371
0.252024
0.250719
0.249456
0.248231
0.247045
0.245894
0.244779
0.243698
0.242648
0.24163
0.240643
0.239684
0.238753
0.237849
0.236971
0.236118
0.23529
0.234485
0.233702
0.232942
0.232203
0.231484
0.230785
0.230105
0.229443
0.2288
0.228174
0.227565
0.259218
0.257684
0.256199
0.254762
0.253371
0.252024
0.250719
0.249455
0.248231
0.247044
0.245894
0.244778
0.243696
0.242647
0.241629
0.240641
0.239681
0.23875
0.237846
0.236968
0.236115
0.235286
0.234481
0.233698
0.232937
0.232198
0.231478
0.230779
0.230099
0.229437
0.228793
0.228167
0.227557
0.259218
0.257684
0.256199
0.254762
0.253371
0.252023
0.250719
0.249455
0.24823
0.247043
0.245893
0.244777
0.243695
0.242645
0.241627
0.240639
0.239679
0.238748
0.237844
0.236965
0.236112
0.235283
0.234477
0.233694
0.232933
0.232193
0.231473
0.230774
0.230093
0.229431
0.228787
0.22816
0.22755
0.259218
0.257684
0.256199
0.254762
0.25337
0.252023
0.250718
0.249454
0.24823
0.247043
0.245892
0.244776
0.243694
0.242644
0.241626
0.240637
0.239678
0.238746
0.237841
0.236963
0.236109
0.23528
0.234474
0.233691
0.232929
0.232189
0.231469
0.230769
0.230088
0.229425
0.228781
0.228154
0.227543
0.259218
0.257684
0.256199
0.254762
0.25337
0.252023
0.250718
0.249454
0.248229
0.247042
0.245891
0.244775
0.243693
0.242643
0.241624
0.240636
0.239676
0.238744
0.237839
0.23696
0.236107
0.235277
0.234471
0.233687
0.232926
0.232185
0.231465
0.230764
0.230083
0.22942
0.228775
0.228148
0.227537
0.259218
0.257684
0.256199
0.254762
0.25337
0.252023
0.250718
0.249454
0.248229
0.247042
0.245891
0.244775
0.243692
0.242642
0.241623
0.240634
0.239674
0.238742
0.237837
0.236958
0.236104
0.235275
0.234468
0.233684
0.232922
0.232181
0.231461
0.23076
0.230079
0.229415
0.22877
0.228142
0.227531
0.259218
0.257684
0.256199
0.254762
0.25337
0.252023
0.250718
0.249454
0.248229
0.247041
0.24589
0.244774
0.243692
0.242642
0.241623
0.240634
0.239673
0.238741
0.237836
0.236957
0.236103
0.235273
0.234466
0.233682
0.23292
0.232178
0.231458
0.230757
0.230075
0.229411
0.228766
0.228138
0.227526
0.259218
0.257684
0.256199
0.254762
0.25337
0.252023
0.250718
0.249453
0.248228
0.247041
0.24589
0.244774
0.243691
0.242641
0.241622
0.240632
0.239672
0.23874
0.237835
0.236955
0.236101
0.235271
0.234464
0.233679
0.232917
0.232176
0.231455
0.230753
0.230071
0.229408
0.228762
0.228133
0.227522
0.259218
0.257684
0.256199
0.254762
0.25337
0.252023
0.250718
0.249454
0.248229
0.247041
0.24589
0.244774
0.243691
0.242641
0.241622
0.240633
0.239672
0.23874
0.237834
0.236955
0.2361
0.23527
0.234463
0.233678
0.232916
0.232174
0.231453
0.230751
0.230069
0.229405
0.228759
0.22813
0.227518
0.259218
0.257684
0.256199
0.254762
0.25337
0.252023
0.250718
0.249453
0.248228
0.247041
0.24589
0.244774
0.243691
0.242641
0.241621
0.240632
0.239672
0.238739
0.237834
0.236954
0.2361
0.235269
0.234462
0.233678
0.232915
0.232173
0.231452
0.23075
0.230068
0.229403
0.228757
0.228128
0.227516
0.259218
0.257684
0.256199
0.254762
0.253371
0.252024
0.25072
0.249456
0.248231
0.247044
0.245893
0.244777
0.243695
0.242644
0.241625
0.240636
0.239676
0.238743
0.237837
0.236957
0.236103
0.235272
0.234465
0.23368
0.232917
0.232175
0.231453
0.230751
0.230069
0.229404
0.228757
0.228128
0.227515
0.259218
0.257685
0.2562
0.254764
0.253373
0.252026
0.250721
0.249457
0.248232
0.247045
0.245895
0.244779
0.243697
0.242647
0.241628
0.240639
0.239678
0.238746
0.23784
0.236961
0.236106
0.235275
0.234468
0.233683
0.232919
0.232177
0.231455
0.230752
0.230069
0.229403
0.228756
0.228126
0.227512
0.259218
0.257685
0.256201
0.254766
0.253378
0.252033
0.250731
0.249469
0.248246
0.24706
0.24591
0.244795
0.243713
0.242662
0.241643
0.240654
0.239693
0.23876
0.237853
0.236972
0.236116
0.235284
0.234474
0.233687
0.232922
0.232177
0.231453
0.230747
0.230061
0.229392
0.228741
0.228108
0.22749
0.259219
0.257689
0.25621
0.254777
0.25339
0.252046
0.250743
0.249482
0.248259
0.247074
0.245924
0.244809
0.243726
0.242675
0.241655
0.240664
0.2397
0.238764
0.237854
0.236969
0.236108
0.23527
0.234455
0.233661
0.232888
0.232136
0.231403
0.230689
0.229993
0.229315
0.228654
0.22801
0.227382
0.25922
0.257694
0.256221
0.254799
0.253423
0.252089
0.250795
0.249539
0.248318
0.247131
0.245978
0.244857
0.243767
0.242706
0.241674
0.240669
0.239691
0.238738
0.23781
0.236906
0.236025
0.235166
0.234329
0.233513
0.232717
0.231941
0.231184
0.230445
0.229725
0.229021
0.228335
0.227665
0.227011
0.259229
0.257738
0.256292
0.254882
0.253508
0.252172
0.250871
0.249603
0.248368
0.247162
0.245985
0.244837
0.243715
0.242621
0.241552
0.240508
0.239489
0.238494
0.237522
0.236573
0.235647
0.234742
0.233858
0.232995
0.232152
0.231328
0.230524
0.229738
0.22897
0.228219
0.227486
0.22677
0.22607
0.259265
0.257822
0.256453
0.255125
0.253804
0.252483
0.251164
0.249854
0.248561
0.24729
0.246045
0.244827
0.243639
0.242479
0.241349
0.240247
0.239173
0.238125
0.237104
0.236108
0.235135
0.234187
0.233261
0.232357
0.231474
0.230612
0.22977
0.228947
0.228144
0.227359
0.226592
0.225843
0.225111
0.259599
0.258632
0.257578
0.256541
0.255587
0.254714
0.253905
0.253151
0.252444
0.251782
0.251164
0.25059
0.250057
0.249567
0.249116
0.248705
0.248331
0.247993
0.247689
0.247418
0.247176
0.246964
0.246779
0.246619
0.246483
0.24637
0.246277
0.246205
0.246151
0.246114
0.246094
0.246089
0.246098
0.266719
0.280569
0.294241
0.307622
0.320668
0.333362
0.345692
0.357649
0.369224
0.380412
0.391211
0.401619
0.411637
0.421269
0.43052
0.439394
0.4479
0.456045
0.463838
0.471288
0.478406
0.485202
0.491687
0.49787
0.503763
0.509378
0.514724
0.519812
0.524653
0.529257
0.533634
0.537793
0.541749
0.84419
1.01366
1.18531
1.36073
1.53725
1.70508
1.85296
1.97245
2.06039
2.11897
2.15389
2.17213
2.1801
2.1826
2.1826
2.18156
2.17999
2.17802
2.17575
2.17335
2.17111
2.16937
2.16837
2.16826
2.16901
2.17046
2.17232
2.17423
2.17577
2.17645
2.17579
2.17329
2.16845
2.16077
2.14975
2.13493
2.11586
2.09214
2.06338
2.0293
1.98966
1.94431
1.8932
1.83641
1.77414
1.70671
1.63462
1.55851
1.47915
1.39748
1.31454
1.23145
1.14942
1.06962
0.993203
0.921203
0.854505
0.7938
0.739555
0.692012
0.651205
0.616989
0.589089
0.567144
0.550756
0.539518
0.533036
0.530928
0.532812
0.538287
0.546895
0.558096
0.571236
0.585542
0.600119
0.613979
0.626081
0.635382
0.640898
0.64176
0.637268
0.626934
0.610522
0.588079
0.559959
0.526843
0.489738
0.449966
0.409107
0.368888
0.331017
0.296962
0.267743
0.2438
0.225022
0.210861
0.200607
0.193379
0.188726
0.184984
0.353576
0.366931
0.387136
0.41723
0.460179
0.518617
0.594219
0.686877
0.794294
0.912135
1.03454
1.15505
1.26763
1.36763
1.45235
1.52113
1.57501
1.61615
1.64713
1.67051
1.6884
1.70241
1.7136
1.72263
1.72985
1.73543
1.7394
1.74171
1.74227
1.74092
1.73745
1.73161
1.7231
1.7116
1.69677
1.6783
1.65587
1.62919
1.59806
1.56229
1.5218
1.4766
1.4268
1.37261
1.3144
1.25265
1.18796
1.1211
1.05291
0.984342
0.916403
0.850116
0.786473
0.726383
0.670621
0.619788
0.574283
0.534292
0.499805
0.470645
0.446512
0.427035
0.411822
0.400491
0.392703
0.388177
0.386685
0.388049
0.392118
0.398744
0.407744
0.418864
0.431742
0.445882
0.460637
0.475217
0.488728
0.500212
0.508719
0.513376
0.51345
0.508414
0.497989
0.482187
0.461336
0.43609
0.407416
0.37656
0.344961
0.314122
0.285432
0.259987
0.238452
0.221018
0.207487
0.197376
0.190142
0.185117
0.181983
0.179674
0.206565
0.206319
0.206708
0.208133
0.211038
0.215868
0.223278
0.234258
0.249966
0.271646
0.300494
0.337458
0.38301
0.436945
0.498278
0.565282
0.63566
0.706831
0.776254
0.841725
0.901596
0.95486
1.00113
1.0405
1.07342
1.10048
1.12233
1.13952
1.15253
1.16165
1.1671
1.16896
1.16724
1.16189
1.15284
1.14
1.12329
1.10265
1.07809
1.04964
1.01741
0.981608
0.942513
0.900513
0.856092
0.809831
0.762398
0.714525
0.666989
0.620573
0.576027
0.53403
0.495146
0.459795
0.428235
0.400555
0.376695
0.356471
0.339615
0.325813
0.314744
0.306103
0.299628
0.295103
0.292366
0.29131
0.291874
0.294039
0.29781
0.303206
0.310231
0.318844
0.328928
0.340255
0.352452
0.364996
0.377217
0.38833
0.397498
0.403897
0.406796
0.405631
0.400069
0.390049
0.375818
0.35793
0.337228
0.314782
0.291795
0.269467
0.248848
0.230709
0.215472
0.203215
0.193764
0.186754
0.181811
0.17845
0.176457
0.175211
0.201984
0.200477
0.19907
0.197765
0.196597
0.195633
0.194948
0.19463
0.19482
0.195709
0.197534
0.200581
0.205184
0.211712
0.220559
0.232107
0.246687
0.26452
0.285667
0.309976
0.33707
0.366358
0.397082
0.428382
0.459378
0.489238
0.517238
0.542785
0.565439
0.584892
0.600955
0.613527
0.622572
0.628097
0.63014
0.628764
0.624055
0.616128
0.605134
0.591265
0.574764
0.555926
0.535105
0.512707
0.489183
0.465019
0.440715
0.416765
0.39363
0.371718
0.351355
0.332779
0.316127
0.301443
0.288688
0.277762
0.268523
0.260807
0.254448
0.249289
0.245192
0.242041
0.239746
0.238246
0.237505
0.237514
0.23829
0.239872
0.242316
0.245691
0.250067
0.255495
0.261987
0.269491
0.277856
0.28681
0.295945
0.304726
0.312521
0.318651
0.322469
0.32343
0.321164
0.315534
0.306668
0.294965
0.281068
0.265802
0.25008
0.23479
0.220683
0.208292
0.197902
0.189565
0.183167
0.178466
0.175224
0.173094
0.171943
0.171466
0.210258
0.208748
0.207263
0.205794
0.204343
0.202921
0.201545
0.200232
0.199001
0.197882
0.196913
0.196138
0.195614
0.195403
0.195579
0.19622
0.197411
0.199239
0.201791
0.205146
0.209371
0.214508
0.22057
0.227529
0.23531
0.243789
0.252795
0.262111
0.271494
0.280681
0.289406
0.297417
0.304486
0.310417
0.315056
0.318293
0.320065
0.320357
0.319199
0.316664
0.312868
0.307961
0.302124
0.29556
0.288482
0.281108
0.273645
0.26628
0.259176
0.25246
0.246226
0.240534
0.235411
0.23086
0.226865
0.223395
0.220412
0.217873
0.215737
0.213965
0.212526
0.211394
0.210553
0.209996
0.209729
0.209768
0.210142
0.210893
0.212072
0.213742
0.215971
0.218822
0.222345
0.226557
0.231425
0.236841
0.242604
0.248411
0.253862
0.258491
0.261809
0.263367
0.262821
0.259989
0.254892
0.247761
0.239021
0.229239
0.219046
0.209059
0.199797
0.191633
0.184776
0.179281
0.175095
0.172066
0.170054
0.168814
0.168265
0.168326
0.216519
0.215165
0.21381
0.212457
0.211108
0.209762
0.208423
0.207094
0.205781
0.204491
0.203236
0.202027
0.200878
0.199807
0.198832
0.197974
0.197256
0.196699
0.196327
0.19616
0.196218
0.196518
0.197072
0.197887
0.198963
0.200292
0.201857
0.203631
0.205574
0.207639
0.209771
0.211906
0.213977
0.215919
0.217668
0.219165
0.220363
0.221225
0.221729
0.221867
0.221646
0.221086
0.220219
0.219088
0.217743
0.216235
0.214617
0.212942
0.211254
0.209593
0.207991
0.206474
0.205057
0.20375
0.202557
0.201478
0.200506
0.199636
0.19886
0.198169
0.197557
0.197021
0.19656
0.196178
0.195884
0.195694
0.19563
0.195722
0.196007
0.196528
0.197335
0.19848
0.200008
0.201954
0.204327
0.207098
0.210183
0.213432
0.216628
0.219492
0.221708
0.222961
0.222984
0.221604
0.218777
0.214608
0.209339
0.203321
0.196958
0.190656
0.184765
0.179545
0.175156
0.171653
0.169022
0.16717
0.166025
0.165406
0.165274
0.16569
0.22064
0.219451
0.218255
0.217051
0.21584
0.214622
0.213398
0.212171
0.210944
0.20972
0.208505
0.207301
0.206115
0.204953
0.203822
0.20273
0.201684
0.200695
0.199771
0.198922
0.198155
0.197479
0.1969
0.196423
0.196052
0.195787
0.195627
0.195568
0.195601
0.195719
0.195907
0.196151
0.196434
0.196738
0.197045
0.197336
0.197594
0.197804
0.197953
0.198032
0.198036
0.197961
0.19781
0.197586
0.197299
0.196957
0.19657
0.196152
0.195711
0.19526
0.194806
0.194356
0.193914
0.193484
0.193066
0.192659
0.192259
0.191863
0.191467
0.191067
0.19066
0.190245
0.189821
0.189392
0.188963
0.188544
0.188149
0.187796
0.187511
0.187321
0.187259
0.187362
0.187665
0.188201
0.18899
0.190033
0.191304
0.192738
0.194227
0.195621
0.196738
0.197381
0.197371
0.196574
0.194929
0.192468
0.189314
0.185665
0.181767
0.177871
0.174208
0.170954
0.168226
0.166074
0.164503
0.163455
0.162898
0.162697
0.162839
0.163469
0.223278
0.222217
0.221145
0.220063
0.218971
0.21787
0.216763
0.215649
0.214531
0.213408
0.212285
0.211162
0.210044
0.208932
0.207831
0.206743
0.205674
0.204626
0.203606
0.202617
0.201664
0.200752
0.199886
0.199069
0.198304
0.197594
0.196941
0.196346
0.195807
0.195324
0.194893
0.194512
0.194175
0.193878
0.193615
0.193379
0.193164
0.192964
0.192775
0.192591
0.192407
0.192222
0.192033
0.191838
0.191639
0.191434
0.191224
0.191012
0.190796
0.190579
0.19036
0.190137
0.189911
0.189677
0.189433
0.189174
0.188897
0.188596
0.188266
0.187904
0.187504
0.187064
0.186584
0.186063
0.185503
0.184911
0.184293
0.183661
0.183029
0.182416
0.181843
0.181335
0.180917
0.180615
0.18045
0.180435
0.180567
0.180825
0.181163
0.181506
0.181758
0.181809
0.181549
0.180888
0.179776
0.178211
0.176251
0.174001
0.171601
0.169204
0.166952
0.164963
0.163316
0.162049
0.161174
0.160653
0.160477
0.160541
0.160849
0.161587
0.224923
0.223959
0.222986
0.222002
0.221009
0.220006
0.218995
0.217975
0.216948
0.215916
0.21488
0.213841
0.212802
0.211763
0.210727
0.209695
0.208671
0.207656
0.206652
0.205663
0.204691
0.203739
0.20281
0.201907
0.201033
0.20019
0.199381
0.198606
0.197868
0.197168
0.196505
0.195881
0.195293
0.194742
0.194226
0.193743
0.193291
0.192868
0.192473
0.192102
0.191753
0.191426
0.191118
0.190826
0.190551
0.190289
0.19004
0.189802
0.189572
0.189348
0.189127
0.188905
0.188679
0.188444
0.188194
0.187925
0.187631
0.187306
0.186944
0.186541
0.186092
0.185592
0.18504
0.184434
0.183773
0.183061
0.182301
0.181499
0.180664
0.179808
0.178944
0.178089
0.177262
0.17648
0.175763
0.175125
0.174575
0.174112
0.173719
0.173368
0.173013
0.172597
0.17206
0.17135
0.170431
0.169296
0.167967
0.166499
0.164969
0.163464
0.162071
0.160862
0.159889
0.159176
0.158737
0.158542
0.158597
0.158813
0.159208
0.159978
0.225906
0.225013
0.224112
0.223201
0.222281
0.221353
0.220416
0.219471
0.21852
0.217562
0.2166
0.215633
0.214664
0.213693
0.212721
0.21175
0.210782
0.209816
0.208856
0.207903
0.206959
0.206025
0.205104
0.204197
0.203306
0.202435
0.201583
0.200755
0.19995
0.199171
0.198419
0.197696
0.197001
0.196336
0.195701
0.195096
0.194521
0.193975
0.193458
0.192969
0.192508
0.192073
0.191663
0.191276
0.190912
0.190569
0.190243
0.189933
0.189637
0.18935
0.189068
0.188789
0.188506
0.188215
0.18791
0.187586
0.187236
0.186855
0.186437
0.185976
0.185467
0.184907
0.184291
0.183617
0.182885
0.182093
0.181245
0.180343
0.179393
0.178402
0.177379
0.176336
0.175285
0.174241
0.173218
0.172231
0.171291
0.170406
0.169575
0.168792
0.16804
0.167295
0.166529
0.165715
0.164834
0.163878
0.162859
0.161803
0.160751
0.159751
0.158855
0.158102
0.157526
0.15714
0.156955
0.156945
0.157123
0.157411
0.157839
0.158584
0.226458
0.225614
0.224763
0.223905
0.223038
0.222164
0.221283
0.220394
0.2195
0.218599
0.217693
0.216784
0.21587
0.214954
0.214036
0.213118
0.212199
0.211282
0.210367
0.209455
0.208547
0.207645
0.206751
0.205864
0.204988
0.204124
0.203273
0.202437
0.201618
0.200816
0.200034
0.199273
0.198534
0.197819
0.197128
0.196462
0.195821
0.195207
0.194619
0.194057
0.193522
0.193012
0.192528
0.192068
0.19163
0.191214
0.190817
0.190437
0.190071
0.189715
0.189367
0.189021
0.188673
0.188319
0.187951
0.187566
0.187157
0.186717
0.186243
0.185727
0.185165
0.184553
0.183887
0.183163
0.182381
0.181538
0.180636
0.179677
0.178664
0.177602
0.176496
0.175357
0.174192
0.173012
0.171831
0.17066
0.16951
0.168393
0.167314
0.166279
0.165286
0.164328
0.163398
0.162484
0.16158
0.160683
0.159799
0.158942
0.158134
0.157401
0.156771
0.156267
0.155906
0.155695
0.155641
0.15572
0.155948
0.156253
0.156674
0.15736
0.226742
0.22593
0.225112
0.224287
0.223457
0.22262
0.221777
0.220928
0.220074
0.219214
0.21835
0.217482
0.216611
0.215737
0.214861
0.213983
0.213105
0.212226
0.211349
0.210472
0.209598
0.208728
0.207862
0.207001
0.206147
0.2053
0.204463
0.203636
0.202821
0.202019
0.201231
0.200459
0.199705
0.198968
0.198252
0.197555
0.196881
0.196228
0.195598
0.194992
0.194409
0.193849
0.193312
0.192797
0.192304
0.191831
0.191376
0.190938
0.190513
0.190098
0.189691
0.189286
0.18888
0.188468
0.188045
0.187605
0.187143
0.186653
0.18613
0.185569
0.184964
0.184311
0.183607
0.182848
0.182032
0.181157
0.180224
0.179234
0.178189
0.177091
0.175947
0.174763
0.173545
0.172303
0.171046
0.169786
0.168533
0.167297
0.16609
0.164919
0.16379
0.162707
0.161671
0.160682
0.159742
0.15885
0.158014
0.157241
0.156544
0.155937
0.155435
0.155049
0.154789
0.154655
0.154653
0.154758
0.154988
0.155274
0.155664
0.156267
0.226872
0.226078
0.22528
0.224476
0.223668
0.222854
0.222036
0.221213
0.220385
0.219553
0.218717
0.217878
0.217036
0.216192
0.215345
0.214497
0.213648
0.212798
0.211949
0.2111
0.210253
0.209408
0.208566
0.207727
0.206893
0.206064
0.205243
0.204428
0.203623
0.202828
0.202043
0.201271
0.200513
0.199769
0.199042
0.198331
0.197638
0.196964
0.196309
0.195674
0.19506
0.194466
0.193893
0.193339
0.192805
0.192289
0.19179
0.191305
0.190834
0.190372
0.189916
0.189464
0.18901
0.188551
0.188082
0.187597
0.187092
0.186561
0.186
0.185402
0.184764
0.184081
0.183349
0.182566
0.181728
0.180834
0.179884
0.178878
0.177818
0.176707
0.175549
0.174348
0.173111
0.171845
0.17056
0.169264
0.167967
0.16668
0.165413
0.164176
0.162979
0.161829
0.160733
0.159696
0.158723
0.157819
0.156991
0.156244
0.155586
0.155027
0.154572
0.154228
0.154
0.153885
0.153884
0.153976
0.154178
0.154423
0.154765
0.155272
0.226921
0.226137
0.225349
0.224556
0.22376
0.22296
0.222156
0.221348
0.220536
0.219721
0.218903
0.218082
0.217259
0.216433
0.215606
0.214777
0.213948
0.213118
0.212288
0.211459
0.21063
0.209803
0.208978
0.208156
0.207338
0.206523
0.205714
0.204911
0.204115
0.203327
0.202548
0.201779
0.201021
0.200276
0.199543
0.198825
0.198122
0.197435
0.196764
0.196111
0.195476
0.194858
0.194259
0.193678
0.193114
0.192566
0.192033
0.191513
0.191005
0.190506
0.190013
0.189523
0.189032
0.188535
0.18803
0.18751
0.186971
0.186408
0.185817
0.185192
0.184529
0.183824
0.183072
0.182272
0.181421
0.180516
0.179558
0.178547
0.177483
0.17637
0.17521
0.174009
0.172771
0.171503
0.170213
0.168909
0.167601
0.166298
0.165011
0.163749
0.162523
0.161343
0.160217
0.159153
0.158158
0.15724
0.156403
0.155655
0.155002
0.154448
0.153998
0.153654
0.153418
0.153285
0.153257
0.153313
0.153468
0.153659
0.153946
0.154351
0.226933
0.226153
0.225369
0.224582
0.223792
0.222998
0.222201
0.221401
0.220598
0.219792
0.218984
0.218173
0.21736
0.216545
0.21573
0.214913
0.214095
0.213277
0.212459
0.211641
0.210824
0.210009
0.209195
0.208384
0.207575
0.206771
0.20597
0.205175
0.204386
0.203603
0.202828
0.202061
0.201304
0.200557
0.199822
0.199099
0.198389
0.197693
0.197012
0.196346
0.195696
0.195062
0.194444
0.193841
0.193254
0.192682
0.192124
0.191578
0.191042
0.190514
0.189992
0.189472
0.188951
0.188425
0.187891
0.187344
0.186779
0.186191
0.185577
0.184931
0.18425
0.183529
0.182765
0.181954
0.181095
0.180185
0.179225
0.178213
0.177152
0.176044
0.17489
0.173696
0.172467
0.171207
0.169926
0.168629
0.167326
0.166026
0.164739
0.163474
0.162242
0.161053
0.159916
0.158839
0.157832
0.1569
0.156052
0.155292
0.154626
0.154058
0.15359
0.153223
0.152958
0.15279
0.152719
0.152725
0.152824
0.152954
0.153182
0.153484
0.22693
0.22615
0.225368
0.224583
0.223795
0.223004
0.22221
0.221414
0.220614
0.219813
0.219009
0.218203
0.217395
0.216586
0.215775
0.214964
0.214152
0.21334
0.212528
0.211717
0.210906
0.210097
0.209289
0.208483
0.20768
0.20688
0.206085
0.205293
0.204507
0.203727
0.202953
0.202187
0.20143
0.200682
0.199943
0.199216
0.198501
0.197798
0.197108
0.196432
0.19577
0.195122
0.194489
0.193871
0.193266
0.192675
0.192096
0.191529
0.190971
0.19042
0.189875
0.189332
0.188788
0.188239
0.187682
0.187113
0.186528
0.185921
0.18529
0.184629
0.183934
0.183201
0.182428
0.181611
0.180748
0.179837
0.178878
0.17787
0.176816
0.175715
0.174572
0.17339
0.172173
0.170928
0.16966
0.168378
0.167089
0.165801
0.164524
0.163268
0.162042
0.160855
0.159717
0.158637
0.157623
0.156682
0.155821
0.155046
0.15436
0.153768
0.153271
0.152871
0.152566
0.152351
0.152229
0.152179
0.152219
0.152285
0.152452
0.152654
0.226921
0.226142
0.22536
0.224575
0.223787
0.222997
0.222204
0.221408
0.22061
0.219809
0.219007
0.218203
0.217397
0.216589
0.215781
0.214972
0.214162
0.213352
0.212542
0.211733
0.210924
0.210117
0.209311
0.208507
0.207706
0.206907
0.206112
0.205322
0.204536
0.203755
0.202981
0.202214
0.201454
0.200703
0.199961
0.199229
0.198508
0.197798
0.1971
0.196415
0.195742
0.195084
0.194438
0.193806
0.193187
0.19258
0.191985
0.1914
0.190824
0.190255
0.189691
0.189128
0.188565
0.187998
0.187423
0.186837
0.186235
0.185613
0.184968
0.184295
0.18359
0.182849
0.18207
0.181249
0.180385
0.179476
0.17852
0.177518
0.176472
0.175381
0.17425
0.173082
0.171881
0.170652
0.169402
0.168137
0.166865
0.165594
0.164332
0.163089
0.161873
0.160695
0.159561
0.158482
0.157465
0.156517
0.155644
0.154852
0.154144
0.153525
0.152995
0.152554
0.152204
0.15194
0.151762
0.151653
0.151631
0.151633
0.151742
0.151848
0.226911
0.226131
0.225349
0.224563
0.223775
0.222984
0.222191
0.221395
0.220597
0.219796
0.218994
0.218189
0.217384
0.216576
0.215768
0.214958
0.214149
0.213338
0.212528
0.211719
0.210909
0.210101
0.209295
0.20849
0.207688
0.206888
0.206092
0.205299
0.204511
0.203729
0.202952
0.202181
0.201418
0.200662
0.199915
0.199177
0.19845
0.197733
0.197027
0.196333
0.195651
0.194982
0.194325
0.193681
0.193049
0.192428
0.191819
0.191219
0.190627
0.190043
0.189462
0.188884
0.188305
0.187722
0.187132
0.186531
0.185916
0.185282
0.184625
0.183942
0.18323
0.182483
0.1817
0.180878
0.180014
0.179107
0.178156
0.177161
0.176124
0.175045
0.173927
0.172773
0.171588
0.170376
0.169144
0.167897
0.166644
0.16539
0.164145
0.162917
0.161715
0.160546
0.15942
0.158344
0.157325
0.15637
0.155485
0.154676
0.153945
0.153295
0.152729
0.152247
0.151849
0.151532
0.151297
0.151129
0.151045
0.150986
0.151037
0.151055
0.226901
0.226121
0.225338
0.224551
0.223763
0.222971
0.222177
0.22138
0.220581
0.21978
0.218977
0.218171
0.217365
0.216556
0.215747
0.214936
0.214125
0.213313
0.212502
0.21169
0.210879
0.210069
0.20926
0.208453
0.207648
0.206846
0.206047
0.205251
0.20446
0.203673
0.202892
0.202117
0.201348
0.200587
0.199834
0.19909
0.198356
0.197631
0.196917
0.196215
0.195524
0.194844
0.194177
0.193521
0.192877
0.192244
0.191621
0.191008
0.190403
0.189804
0.189209
0.188616
0.188023
0.187427
0.186823
0.18621
0.185583
0.184938
0.184273
0.183582
0.182863
0.182112
0.181326
0.180503
0.17964
0.178736
0.177791
0.176804
0.175775
0.174708
0.173603
0.172464
0.171294
0.1701
0.168885
0.167657
0.166421
0.165186
0.163957
0.162745
0.161555
0.160397
0.159277
0.158203
0.157183
0.156221
0.155324
0.154495
0.153739
0.153058
0.152455
0.151929
0.151482
0.151111
0.15082
0.150593
0.150449
0.15033
0.150328
0.150264
0.226891
0.226111
0.225327
0.22454
0.22375
0.222958
0.222163
0.221365
0.220565
0.219763
0.218958
0.218152
0.217344
0.216534
0.215723
0.214911
0.214098
0.213284
0.21247
0.211657
0.210843
0.21003
0.209219
0.208408
0.2076
0.206794
0.205991
0.205191
0.204396
0.203604
0.202818
0.202038
0.201264
0.200497
0.199737
0.198986
0.198244
0.197512
0.19679
0.196078
0.195378
0.194689
0.194011
0.193344
0.192689
0.192044
0.191409
0.190783
0.190165
0.189553
0.188945
0.18834
0.187734
0.187124
0.186509
0.185884
0.185247
0.184593
0.183919
0.183221
0.182497
0.181742
0.180954
0.18013
0.179269
0.178369
0.177429
0.176449
0.17543
0.174373
0.173281