/*--------------------------------*- C++ -*----------------------------------*\
| =========                 |                                                 |
| \\      /  F ield         | OpenFOAM: The Open Source CFD Toolbox           |
|  \\    /   O peration     | Version:  2.1.1                                 |
|   \\  /    A nd           | Web:      www.OpenFOAM.org                      |
|    \\/     M anipulation  |                                                 |
\*---------------------------------------------------------------------------*/
FoamFile
{
    version     2.0;
    format      ascii;
    class       volScalarField;
    location    "0.15";
    object      nut;
}
// * * * * * * * * * * * * * * * * * * * * * * * * * * * * * * * * * * * * * //

dimensions      [0 2 -1 0 0 0 0];

internalField   nonuniform List<scalar> 
6820
(
4.96025e-05
5.47044e-05
5.94497e-05
6.37667e-05
6.76166e-05
7.09776e-05
7.38481e-05
7.62457e-05
7.8203e-05
7.97615e-05
8.09676e-05
8.1869e-05
8.25119e-05
8.29392e-05
8.31896e-05
8.3297e-05
8.32909e-05
8.31961e-05
8.30334e-05
8.282e-05
8.25699e-05
8.22946e-05
8.20031e-05
8.17026e-05
8.13987e-05
8.10959e-05
8.07972e-05
8.05057e-05
8.02197e-05
7.99563e-05
7.96368e-05
7.96419e-05
7.81209e-05
0.000540295
0.000304972
0.00021996
0.000171559
0.000140521
0.000119658
0.000105133
9.47496e-05
8.71855e-05
8.16043e-05
7.74557e-05
7.4366e-05
7.20747e-05
7.03958e-05
6.91937e-05
6.83681e-05
6.78436e-05
6.75624e-05
6.74797e-05
6.75604e-05
6.77764e-05
6.8105e-05
6.85278e-05
6.90292e-05
6.95963e-05
7.0218e-05
7.08846e-05
7.15871e-05
7.2318e-05
7.30654e-05
7.38261e-05
7.45668e-05
7.52295e-05
0.00105857
0.000836087
0.000679237
0.000569613
0.000490052
0.000430116
0.000383701
0.000346856
0.000316956
0.000292241
0.000271495
0.000253857
0.000238699
0.000225554
0.000214065
0.000203957
0.000195013
0.000187058
0.000179954
0.000173583
0.000167853
0.000162682
0.000158006
0.000153766
0.000149916
0.000146413
0.000143222
0.000140312
0.000137657
0.000135236
0.000133013
0.000131032
0.000128998
0.00115953
0.00109653
0.00101167
0.000926415
0.000849807
0.000783616
0.00072706
0.00067873
0.000637208
0.000601273
0.000569922
0.000542351
0.000517921
0.000496121
0.000476545
0.000458865
0.000442814
0.000428174
0.000414765
0.000402436
0.000391062
0.000380536
0.000370765
0.000361672
0.00035319
0.000345261
0.000337834
0.000330867
0.000324326
0.00031818
0.000312416
0.000307012
0.00030199
0.00116966
0.00115863
0.00113363
0.00109757
0.00105569
0.0010122
0.000969673
0.000929415
0.000891975
0.000857474
0.000825824
0.000796833
0.000770275
0.000745917
0.000723538
0.000702935
0.000683924
0.000666343
0.000650046
0.000634906
0.00062081
0.000607658
0.000595361
0.000583843
0.000573032
0.000562867
0.000553292
0.00054426
0.000535725
0.00052765
0.000520004
0.00051276
0.000505902
0.00117006
0.00116839
0.00116306
0.00115261
0.00113713
0.00111767
0.00109554
0.00107192
0.00104772
0.00102361
0.00100001
0.000977198
0.000955333
0.000934491
0.000914701
0.000895955
0.000878225
0.000861471
0.000845646
0.000830697
0.000816573
0.000803222
0.000790595
0.000778644
0.000767323
0.000756591
0.000746408
0.000736735
0.00072754
0.00071879
0.000710457
0.000702522
0.000694959
0.00116996
0.00116938
0.00116821
0.00116569
0.00116123
0.00115458
0.00114584
0.00113528
0.00112328
0.00111024
0.0010965
0.00108235
0.00106804
0.00105374
0.00103961
0.00102574
0.0010122
0.000999043
0.000986307
0.000974006
0.000962151
0.000950742
0.000939775
0.000929242
0.000919132
0.000909431
0.000900123
0.000891195
0.000882629
0.000874412
0.000866529
0.000858969
0.00085172
0.00116994
0.0011694
0.00116883
0.00116803
0.00116674
0.00116472
0.0011618
0.00115791
0.00115305
0.00114729
0.00114074
0.00113355
0.00112583
0.00111771
0.00110931
0.00110072
0.00109202
0.0010833
0.0010746
0.00106598
0.00105747
0.0010491
0.00104089
0.00103287
0.00102503
0.0010174
0.00100998
0.00100277
0.000995765
0.000988975
0.000982397
0.000976031
0.000969873
0.00116994
0.00116939
0.00116886
0.00116832
0.0011677
0.00116692
0.00116588
0.00116449
0.00116269
0.00116043
0.00115772
0.00115456
0.00115098
0.00114702
0.00114273
0.00113816
0.00113335
0.00112836
0.00112322
0.00111798
0.00111266
0.0011073
0.00110193
0.00109657
0.00109123
0.00108595
0.00108072
0.00107556
0.00107049
0.0010655
0.00106061
0.00105583
0.00105115
0.00116994
0.00116938
0.00116885
0.00116833
0.00116782
0.00116729
0.00116671
0.00116605
0.00116526
0.00116432
0.00116319
0.00116185
0.0011603
0.00115853
0.00115654
0.00115436
0.00115198
0.00114943
0.00114672
0.00114389
0.00114093
0.00113788
0.00113475
0.00113156
0.00112832
0.00112504
0.00112175
0.00111845
0.00111515
0.00111186
0.00110859
0.00110536
0.00110215
0.00116994
0.00116938
0.00116884
0.00116832
0.00116782
0.00116732
0.00116683
0.00116634
0.00116582
0.00116527
0.00116466
0.00116399
0.00116324
0.0011624
0.00116146
0.00116042
0.00115928
0.00115803
0.00115669
0.00115525
0.00115373
0.00115212
0.00115044
0.00114869
0.00114689
0.00114504
0.00114314
0.00114121
0.00113925
0.00113727
0.00113528
0.00113328
0.00113127
0.00116994
0.00116938
0.00116884
0.00116832
0.00116781
0.00116732
0.00116684
0.00116637
0.00116591
0.00116545
0.00116499
0.00116451
0.00116402
0.00116351
0.00116296
0.00116238
0.00116176
0.00116109
0.00116039
0.00115963
0.00115883
0.00115798
0.00115709
0.00115616
0.00115519
0.00115418
0.00115313
0.00115206
0.00115096
0.00114983
0.00114869
0.00114753
0.00114635
0.00116994
0.00116938
0.00116884
0.00116832
0.00116781
0.00116732
0.00116684
0.00116637
0.00116592
0.00116547
0.00116504
0.00116461
0.00116419
0.00116377
0.00116335
0.00116292
0.00116248
0.00116204
0.00116158
0.0011611
0.00116061
0.00116011
0.00115958
0.00115904
0.00115848
0.0011579
0.0011573
0.00115669
0.00115606
0.00115542
0.00115476
0.00115409
0.00115341
0.00116994
0.00116938
0.00116884
0.00116832
0.00116781
0.00116731
0.00116683
0.00116637
0.00116591
0.00116547
0.00116504
0.00116462
0.00116421
0.00116381
0.00116342
0.00116304
0.00116266
0.00116228
0.0011619
0.00116153
0.00116115
0.00116078
0.0011604
0.00116002
0.00115963
0.00115924
0.00115885
0.00115845
0.00115804
0.00115763
0.00115722
0.0011568
0.00115638
0.00116994
0.00116938
0.00116884
0.00116832
0.00116781
0.00116731
0.00116683
0.00116636
0.00116591
0.00116547
0.00116504
0.00116462
0.00116421
0.00116382
0.00116343
0.00116305
0.00116269
0.00116233
0.00116197
0.00116163
0.00116129
0.00116096
0.00116063
0.0011603
0.00115998
0.00115966
0.00115935
0.00115903
0.00115872
0.00115841
0.0011581
0.0011578
0.00115749
0.00116994
0.00116938
0.00116884
0.00116831
0.0011678
0.00116731
0.00116683
0.00116636
0.0011659
0.00116546
0.00116503
0.00116461
0.00116421
0.00116381
0.00116342
0.00116305
0.00116268
0.00116233
0.00116198
0.00116164
0.00116131
0.00116099
0.00116068
0.00116037
0.00116007
0.00115977
0.00115948
0.0011592
0.00115892
0.00115865
0.00115838
0.00115812
0.00115786
0.00116994
0.00116938
0.00116884
0.00116831
0.0011678
0.00116731
0.00116683
0.00116636
0.0011659
0.00116546
0.00116503
0.00116461
0.0011642
0.0011638
0.00116342
0.00116304
0.00116268
0.00116232
0.00116198
0.00116164
0.00116131
0.00116099
0.00116068
0.00116037
0.00116008
0.00115979
0.00115951
0.00115923
0.00115897
0.0011587
0.00115845
0.0011582
0.00115796
0.00116994
0.00116938
0.00116884
0.00116831
0.0011678
0.00116731
0.00116682
0.00116635
0.0011659
0.00116546
0.00116502
0.0011646
0.0011642
0.0011638
0.00116341
0.00116304
0.00116267
0.00116231
0.00116197
0.00116163
0.0011613
0.00116098
0.00116067
0.00116037
0.00116007
0.00115978
0.0011595
0.00115923
0.00115896
0.00115871
0.00115845
0.00115821
0.00115797
0.00116994
0.00116938
0.00116884
0.00116831
0.0011678
0.0011673
0.00116682
0.00116635
0.0011659
0.00116545
0.00116502
0.0011646
0.00116419
0.00116379
0.00116341
0.00116303
0.00116267
0.00116231
0.00116196
0.00116162
0.00116129
0.00116097
0.00116066
0.00116036
0.00116006
0.00115977
0.00115949
0.00115922
0.00115895
0.0011587
0.00115844
0.0011582
0.00115796
0.00116994
0.00116938
0.00116884
0.00116831
0.0011678
0.0011673
0.00116682
0.00116635
0.00116589
0.00116545
0.00116502
0.0011646
0.00116419
0.00116379
0.0011634
0.00116303
0.00116266
0.0011623
0.00116195
0.00116162
0.00116129
0.00116097
0.00116065
0.00116035
0.00116005
0.00115976
0.00115948
0.00115921
0.00115894
0.00115868
0.00115843
0.00115818
0.00115794
0.00116994
0.00116938
0.00116884
0.00116831
0.0011678
0.0011673
0.00116682
0.00116635
0.00116589
0.00116545
0.00116502
0.0011646
0.00116419
0.00116379
0.0011634
0.00116302
0.00116266
0.0011623
0.00116195
0.00116161
0.00116128
0.00116096
0.00116064
0.00116034
0.00116004
0.00115975
0.00115947
0.0011592
0.00115893
0.00115867
0.00115842
0.00115817
0.00115793
0.00116994
0.00116938
0.00116884
0.00116831
0.0011678
0.0011673
0.00116682
0.00116635
0.00116589
0.00116545
0.00116501
0.00116459
0.00116418
0.00116378
0.0011634
0.00116302
0.00116265
0.00116229
0.00116194
0.0011616
0.00116127
0.00116095
0.00116064
0.00116033
0.00116003
0.00115974
0.00115946
0.00115919
0.00115892
0.00115866
0.0011584
0.00115815
0.00115791
0.00116994
0.00116938
0.00116884
0.00116831
0.0011678
0.0011673
0.00116682
0.00116635
0.00116589
0.00116545
0.00116501
0.00116459
0.00116418
0.00116378
0.00116339
0.00116302
0.00116265
0.00116229
0.00116194
0.0011616
0.00116127
0.00116094
0.00116063
0.00116032
0.00116003
0.00115974
0.00115945
0.00115918
0.00115891
0.00115865
0.00115839
0.00115814
0.0011579
0.00116994
0.00116938
0.00116884
0.00116831
0.0011678
0.0011673
0.00116682
0.00116635
0.00116589
0.00116544
0.00116501
0.00116459
0.00116418
0.00116378
0.00116339
0.00116301
0.00116264
0.00116228
0.00116193
0.00116159
0.00116126
0.00116094
0.00116062
0.00116032
0.00116002
0.00115973
0.00115944
0.00115917
0.0011589
0.00115863
0.00115838
0.00115813
0.00115789
0.00116994
0.00116938
0.00116884
0.00116831
0.0011678
0.0011673
0.00116682
0.00116635
0.00116589
0.00116544
0.00116501
0.00116459
0.00116418
0.00116378
0.00116339
0.00116301
0.00116264
0.00116228
0.00116193
0.00116159
0.00116126
0.00116093
0.00116062
0.00116031
0.00116001
0.00115972
0.00115944
0.00115916
0.00115889
0.00115863
0.00115837
0.00115812
0.00115787
0.00116994
0.00116938
0.00116884
0.00116831
0.0011678
0.0011673
0.00116682
0.00116635
0.00116589
0.00116544
0.00116501
0.00116459
0.00116418
0.00116378
0.00116339
0.00116301
0.00116264
0.00116228
0.00116193
0.00116159
0.00116125
0.00116093
0.00116061
0.00116031
0.00116001
0.00115971
0.00115943
0.00115915
0.00115888
0.00115862
0.00115836
0.00115811
0.00115786
0.00116994
0.00116938
0.00116884
0.00116831
0.0011678
0.0011673
0.00116682
0.00116635
0.00116589
0.00116544
0.00116501
0.00116459
0.00116417
0.00116377
0.00116338
0.001163
0.00116264
0.00116228
0.00116192
0.00116158
0.00116125
0.00116093
0.00116061
0.0011603
0.00116
0.00115971
0.00115942
0.00115914
0.00115887
0.00115861
0.00115835
0.0011581
0.00115785
0.00116994
0.00116938
0.00116884
0.00116831
0.0011678
0.0011673
0.00116682
0.00116635
0.00116589
0.00116544
0.00116501
0.00116458
0.00116417
0.00116377
0.00116338
0.001163
0.00116263
0.00116227
0.00116192
0.00116158
0.00116125
0.00116092
0.00116061
0.0011603
0.00116
0.0011597
0.00115942
0.00115914
0.00115887
0.0011586
0.00115834
0.00115809
0.00115784
0.00116994
0.00116938
0.00116884
0.00116831
0.0011678
0.0011673
0.00116682
0.00116634
0.00116589
0.00116544
0.00116501
0.00116458
0.00116417
0.00116377
0.00116338
0.001163
0.00116263
0.00116227
0.00116192
0.00116158
0.00116124
0.00116092
0.0011606
0.00116029
0.00115999
0.0011597
0.00115941
0.00115913
0.00115886
0.0011586
0.00115834
0.00115808
0.00115784
0.00116994
0.00116938
0.00116884
0.00116831
0.0011678
0.0011673
0.00116682
0.00116635
0.00116589
0.00116544
0.00116501
0.00116459
0.00116417
0.00116377
0.00116338
0.001163
0.00116263
0.00116227
0.00116192
0.00116158
0.00116124
0.00116092
0.0011606
0.00116029
0.00115999
0.0011597
0.00115941
0.00115913
0.00115886
0.00115859
0.00115833
0.00115808
0.00115783
0.00116994
0.00116938
0.00116884
0.00116831
0.0011678
0.0011673
0.00116682
0.00116635
0.00116589
0.00116544
0.00116501
0.00116459
0.00116418
0.00116378
0.00116339
0.00116301
0.00116264
0.00116228
0.00116192
0.00116158
0.00116125
0.00116092
0.0011606
0.00116029
0.00115999
0.0011597
0.00115941
0.00115913
0.00115885
0.00115859
0.00115832
0.00115807
0.00115782
0.00116994
0.00116938
0.00116884
0.00116831
0.0011678
0.00116731
0.00116682
0.00116635
0.0011659
0.00116545
0.00116502
0.0011646
0.00116418
0.00116378
0.00116339
0.00116301
0.00116264
0.00116228
0.00116193
0.00116158
0.00116125
0.00116092
0.0011606
0.00116029
0.00115998
0.00115968
0.00115939
0.0011591
0.00115882
0.00115854
0.00115827
0.00115801
0.00115775
0.00116994
0.00116938
0.00116884
0.00116831
0.00116781
0.00116731
0.00116683
0.00116636
0.0011659
0.00116546
0.00116502
0.0011646
0.00116419
0.00116379
0.0011634
0.00116301
0.00116263
0.00116227
0.0011619
0.00116155
0.0011612
0.00116086
0.00116052
0.00116018
0.00115986
0.00115953
0.00115921
0.0011589
0.00115858
0.00115827
0.00115797
0.00115766
0.00115737
0.00116994
0.00116938
0.00116884
0.00116833
0.00116782
0.00116733
0.00116685
0.00116638
0.00116593
0.00116548
0.00116503
0.00116459
0.00116416
0.00116373
0.00116331
0.00116288
0.00116246
0.00116204
0.00116161
0.00116119
0.00116076
0.00116033
0.0011599
0.00115946
0.00115902
0.00115858
0.00115814
0.00115769
0.00115724
0.00115678
0.00115632
0.00115586
0.0011554
0.00116994
0.00116939
0.00116886
0.00116835
0.00116784
0.00116733
0.00116683
0.00116632
0.00116581
0.00116528
0.00116473
0.00116417
0.00116358
0.00116297
0.00116233
0.00116166
0.00116097
0.00116024
0.00115949
0.00115871
0.0011579
0.00115706
0.0011562
0.00115532
0.00115441
0.00115349
0.00115254
0.00115158
0.00115061
0.00114962
0.00114862
0.00114761
0.00114659
0.00116995
0.0011694
0.00116886
0.00116828
0.00116765
0.00116694
0.00116612
0.00116519
0.00116413
0.00116294
0.00116162
0.00116017
0.00115859
0.00115689
0.00115507
0.00115314
0.00115112
0.001149
0.00114681
0.00114454
0.00114221
0.00113983
0.00113741
0.00113494
0.00113245
0.00112993
0.0011274
0.00112486
0.00112231
0.00111976
0.00111722
0.00111468
0.00111216
0.00116996
0.00116916
0.00116786
0.00116595
0.00116343
0.0011603
0.00115657
0.00115228
0.00114748
0.00114223
0.0011366
0.00113065
0.00112444
0.00111803
0.00111147
0.00110481
0.00109808
0.00109132
0.00108456
0.00107782
0.00107114
0.00106452
0.00105798
0.00105153
0.00104519
0.00103895
0.00103284
0.00102685
0.00102098
0.00101524
0.00100964
0.00100416
0.000998814
0.00116831
0.00115866
0.00114501
0.00112845
0.0011097
0.00108949
0.00106845
0.00104711
0.00102584
0.00100492
0.000984535
0.000964804
0.000945797
0.000927553
0.000910084
0.000893385
0.000877439
0.000862224
0.000847711
0.000833869
0.000820668
0.000808073
0.000796055
0.000784582
0.000773625
0.000763155
0.000753146
0.000743572
0.00073441
0.000725636
0.00071723
0.000709172
0.000701441
0.00107567
0.000936195
0.000835608
0.000756886
0.000692088
0.000638338
0.000593429
0.000555535
0.000523215
0.000495367
0.000471142
0.000449888
0.000431099
0.000414377
0.000399404
0.000385928
0.000373741
0.000362673
0.000352584
0.000343356
0.000334889
0.0003271
0.000319914
0.00031327
0.000307113
0.000301397
0.00029608
0.000291125
0.0002865
0.000282177
0.00027813
0.000274337
0.000270775
0.000142979
0.000146644
0.000150174
0.000153551
0.000156773
0.000159846
0.000162776
0.000165567
0.000168224
0.000170754
0.000173161
0.000175449
0.000177624
0.00017969
0.000181652
0.000183515
0.000185283
0.00018696
0.00018855
0.000190059
0.000191489
0.000192844
0.000194128
0.000195345
0.000196498
0.00019759
0.000198624
0.000199603
0.00020053
0.000201408
0.00020224
0.000203026
0.000203772
9.09836e-05
0.000110426
0.000134222
0.00016298
0.0001962
0.000232209
0.000268913
0.000304499
0.000337899
0.000368907
0.000397938
0.000425697
0.000452854
0.000479854
0.000506877
0.000533912
0.000560883
0.000587753
0.000614574
0.000641485
0.000668676
0.000696333
0.000724605
0.000753576
0.000783265
0.00081363
0.000844588
0.000876016
0.000907764
0.000939658
0.000971496
0.00100305
0.00103407
0.00106427
0.00109335
0.00112101
0.00114692
0.00117075
0.00119217
0.00121088
0.00122658
0.00123901
0.00124792
0.00125315
0.00125456
0.00125212
0.00124585
0.00123589
0.00122249
0.00120599
0.00118689
0.00116578
0.00114338
0.0011205
0.00109802
0.00107686
0.00105788
0.00104192
0.00102966
0.0010216
0.00101808
0.0010192
0.00102494
0.0010351
0.00104947
0.00106779
0.00108984
0.00111545
0.0011445
0.00117686
0.00121235
0.00125071
0.00129146
0.00133392
0.00137716
0.00141999
0.00146104
0.00149879
0.00153165
0.00155811
0.00157678
0.00158652
0.00158655
0.00157652
0.00155662
0.00152768
0.00149127
0.00144973
0.00140617
0.00136433
0.00132815
0.00130112
0.00128541
0.00128115
0.00128642
0.00129792
0.00131255
0.00132793
0.00134199
0.00136468
7.6389e-05
7.85246e-05
8.18855e-05
8.71788e-05
9.52146e-05
0.000106759
0.000122419
0.000142493
0.000166845
0.000194889
0.000225663
0.000257994
0.000290704
0.000322821
0.000353714
0.000383136
0.000411168
0.000438102
0.000464316
0.000490159
0.000515892
0.000541669
0.000567551
0.000593545
0.000619628
0.000645773
0.000671951
0.000698129
0.000724253
0.000750245
0.000775991
0.000801338
0.000826098
0.000850051
0.000872951
0.000894536
0.000914535
0.00093267
0.000948672
0.000962285
0.000973275
0.00098144
0.000986624
0.000988727
0.00098772
0.000983658
0.000976691
0.000967079
0.000955196
0.000941538
0.000926716
0.000911446
0.00089652
0.000882775
0.000871033
0.000862047
0.000856437
0.00085463
0.000856825
0.000862983
0.000872854
0.000886029
0.000902019
0.000920331
0.000940541
0.000962341
0.000985569
0.00101021
0.00103637
0.00106425
0.00109405
0.00112591
0.00115983
0.00119558
0.00123265
0.00127021
0.00130716
0.00134217
0.00137379
0.00140055
0.00142108
0.00143425
0.00143929
0.00143588
0.00142428
0.0014054
0.00138086
0.00135301
0.00132479
0.00129942
0.00127994
0.00126848
0.00126569
0.00127048
0.00128063
0.00129347
0.00130719
0.00132072
0.00133286
0.0013533
0.000126944
0.000124883
0.000122759
0.000120405
0.0001178
0.000115395
0.000113624
0.000112847
0.000113564
0.000116358
0.000121808
0.000130399
0.000142429
0.000157967
0.000176831
0.000198605
0.000222692
0.000248391
0.000274993
0.000301867
0.000328526
0.000354654
0.000380103
0.000404853
0.000428969
0.000452548
0.000475683
0.000498433
0.000520815
0.000542798
0.000564311
0.000585248
0.000605474
0.000624838
0.000643168
0.000660288
0.000676014
0.000690166
0.000702573
0.000713086
0.000721583
0.000727985
0.000732269
0.000734478
0.000734737
0.000733266
0.000730382
0.00072651
0.000722177
0.000717999
0.000714654
0.000712848
0.000713256
0.000716467
0.000722912
0.000732813
0.000746148
0.000762651
0.000781848
0.000803121
0.000825792
0.000849198
0.000872758
0.000896017
0.000918674
0.000940586
0.000961767
0.00098238
0.00100271
0.00102316
0.00104416
0.00106619
0.00108962
0.00111468
0.00114136
0.00116934
0.00119796
0.00122624
0.001253
0.00127692
0.00129673
0.00131132
0.00131993
0.00132221
0.0013184
0.00130935
0.00129656
0.00128205
0.00126823
0.00125746
0.00125156
0.00125138
0.00125652
0.00126557
0.00127679
0.0012886
0.00130035
0.00131184
0.00132233
0.00134102
0.000296539
0.000290469
0.000284367
0.00027813
0.000271585
0.000264549
0.000257031
0.0002492
0.000241012
0.00023245
0.000223625
0.00021481
0.000206434
0.000199032
0.000193168
0.000189358
0.000188009
0.000189382
0.00019358
0.000200557
0.000210135
0.000222031
0.000235895
0.000251335
0.00026796
0.0002854
0.000303329
0.000321474
0.000339617
0.000357586
0.000375248
0.000392495
0.000409233
0.000425375
0.000440836
0.000455537
0.000469401
0.000482367
0.000494393
0.000505467
0.000515617
0.000524923
0.000533523
0.000541625
0.000549508
0.000557522
0.00056608
0.00057564
0.000586677
0.000599641
0.000614912
0.000632748
0.000653245
0.000676305
0.00070164
0.000728796
0.000757201
0.000786222
0.000815232
0.000843654
0.000871003
0.000896904
0.000921099
0.000943442
0.000963891
0.000982493
0.000999378
0.00101475
0.00102887
0.00104209
0.00105481
0.00106749
0.00108059
0.00109457
0.00110977
0.00112633
0.00114415
0.00116279
0.00118155
0.0011995
0.00121562
0.00122896
0.00123879
0.00124474
0.00124691
0.00124592
0.00124287
0.00123922
0.00123655
0.00123618
0.00123889
0.00124467
0.00125285
0.00126235
0.00127229
0.00128207
0.00129175
0.00130156
0.00131086
0.00132837
0.000498379
0.000490161
0.000482188
0.0004744
0.000466716
0.000459038
0.000451223
0.00044327
0.000435129
0.000426697
0.000417858
0.000408508
0.000398574
0.000388034
0.000376943
0.000365443
0.000353768
0.00034223
0.000331198
0.000321059
0.000312177
0.000304859
0.000299336
0.000295751
0.000294162
0.000294548
0.000296828
0.000300872
0.000306516
0.000313584
0.000321893
0.000331267
0.000341549
0.000352599
0.000364307
0.000376588
0.00038939
0.000402693
0.000416513
0.000430901
0.000445943
0.000461762
0.000478511
0.000496363
0.000515504
0.000536109
0.000558327
0.000582252
0.000607907
0.000635221
0.000664023
0.000694045
0.000724931
0.000756265
0.0007876
0.000818486
0.000848506
0.000877295
0.000904559
0.00093008
0.000953718
0.0009754
0.000995118
0.00101291
0.00102885
0.00104306
0.00105566
0.0010668
0.00107665
0.0010854
0.00109327
0.00110052
0.00110743
0.00111436
0.00112163
0.00112957
0.00113839
0.00114814
0.00115867
0.00116957
0.00118032
0.00119028
0.00119893
0.0012059
0.00121114
0.00121496
0.00121793
0.00122081
0.00122437
0.00122911
0.00123517
0.00124232
0.00125008
0.00125799
0.00126585
0.00127364
0.00128173
0.00129044
0.00129903
0.00131583
0.00068661
0.000677463
0.000668611
0.00066004
0.000651717
0.000643597
0.000635625
0.000627768
0.000619992
0.000612256
0.000604516
0.000596721
0.000588818
0.000580754
0.000572477
0.00056395
0.000555151
0.000546088
0.000536805
0.000527381
0.000517937
0.00050863
0.000499643
0.000491177
0.000483438
0.000476626
0.000470928
0.000466503
0.000463484
0.000461972
0.000462041
0.000463735
0.000467078
0.000472078
0.000478731
0.00048703
0.000496962
0.000508518
0.00052169
0.000536473
0.000552856
0.000570829
0.000590364
0.00061142
0.000633927
0.000657785
0.000682853
0.000708954
0.000735866
0.000763334
0.000791077
0.000818797
0.000846196
0.000872986
0.000898906
0.000923728
0.000947267
0.000969384
0.000989986
0.00100902
0.00102648
0.00104239
0.0010568
0.00106978
0.00108142
0.00109182
0.00110107
0.00110929
0.00111659
0.00112306
0.00112882
0.00113399
0.00113867
0.00114302
0.00114719
0.00115139
0.00115581
0.00116063
0.00116596
0.00117178
0.00117799
0.00118436
0.00119063
0.00119658
0.00120211
0.00120725
0.00121217
0.00121711
0.00122228
0.00122777
0.00123354
0.00123945
0.00124538
0.0012513
0.00125738
0.00126381
0.00127097
0.00127912
0.0012874
0.00130379
0.000843653
0.000834738
0.000826034
0.000817545
0.000809266
0.000801185
0.000793288
0.000785568
0.000778014
0.000770615
0.000763364
0.000756253
0.000749274
0.000742419
0.000735679
0.000729042
0.000722497
0.000716034
0.000709649
0.000703348
0.000697146
0.000691077
0.000685189
0.000679551
0.000674248
0.000669378
0.000665056
0.000661403
0.000658543
0.000656603
0.000655703
0.000655955
0.000657461
0.000660306
0.000664561
0.00067028
0.000677499
0.000686234
0.000696484
0.000708227
0.000721421
0.000736001
0.000751882
0.000768954
0.000787085
0.000806122
0.00082589
0.0008462
0.000866849
0.00088763
0.000908334
0.000928759
0.000948719
0.000968043
0.000986585
0.00100423
0.00102088
0.00103647
0.00105097
0.00106436
0.00107666
0.00108788
0.00109807
0.00110729
0.0011156
0.00112307
0.00112978
0.00113582
0.00114127
0.00114621
0.00115072
0.00115487
0.00115874
0.00116238
0.00116585
0.00116921
0.00117253
0.0011759
0.0011794
0.0011831
0.00118702
0.00119116
0.00119547
0.00119985
0.00120424
0.00120859
0.00121288
0.00121712
0.00122133
0.00122551
0.00122965
0.00123379
0.00123803
0.00124255
0.00124761
0.0012534
0.00126022
0.00126821
0.0012764
0.00129254
0.000962953
0.000955216
0.000947569
0.000940025
0.000932595
0.000925284
0.000918098
0.000911039
0.000904111
0.000897318
0.000890668
0.000884173
0.000877842
0.000871691
0.00086573
0.000859974
0.000854433
0.000849117
0.000844038
0.000839205
0.00083463
0.000830328
0.00082632
0.00082263
0.000819293
0.00081635
0.00081385
0.000811849
0.000810411
0.000809605
0.0008095
0.000810168
0.000811677
0.000814091
0.000817464
0.000821842
0.000827258
0.000833728
0.000841256
0.000849826
0.000859404
0.00086994
0.000881364
0.00089359
0.000906515
0.000920023
0.000933989
0.000948276
0.000962746
0.000977259
0.000991679
0.00100588
0.00101974
0.00103315
0.00104602
0.00105829
0.00106988
0.00108077
0.00109092
0.00110032
0.00110897
0.00111689
0.0011241
0.00113063
0.00113652
0.00114183
0.0011466
0.0011509
0.0011548
0.00115837
0.00116168
0.0011648
0.00116781
0.00117076
0.00117369
0.00117663
0.00117961
0.00118263
0.0011857
0.00118882
0.00119199
0.00119522
0.00119847
0.00120172
0.00120494
0.00120808
0.00121111
0.00121404
0.00121686
0.00121963
0.00122245
0.00122544
0.00122881
0.00123276
0.00123752
0.00124323
0.00125007
0.00125811
0.00126632
0.00128223
0.00104583
0.00103981
0.00103378
0.00102775
0.00102174
0.00101575
0.0010098
0.0010039
0.000998055
0.000992281
0.00098659
0.000980998
0.000975522
0.00097018
0.000964993
0.000959979
0.000955161
0.000950557
0.000946187
0.00094207
0.000938224
0.000934668
0.00093142
0.000928501
0.000925932
0.000923736
0.000921939
0.000920572
0.000919664
0.000919249
0.000919364
0.000920043
0.000921321
0.000923231
0.000925803
0.000929059
0.000933016
0.000937682
0.000943056
0.000949125
0.000955865
0.000963242
0.000971209
0.000979707
0.000988669
0.00099802
0.00100768
0.00101755
0.00102755
0.00103759
0.00104758
0.00105744
0.00106708
0.00107644
0.00108546
0.00109408
0.00110226
0.00110997
0.00111718
0.00112388
0.00113006
0.00113573
0.00114088
0.00114553
0.00114971
0.00115344
0.00115676
0.00115972
0.00116235
0.00116473
0.00116691
0.00116896
0.00117094
0.00117293
0.00117497
0.00117712
0.0011794
0.00118182
0.00118435
0.00118698
0.00118966
0.00119236
0.00119502
0.0011976
0.00120007
0.0012024
0.0012046
0.0012067
0.00120874
0.00121084
0.00121315
0.00121583
0.00121908
0.00122308
0.001228
0.00123391
0.00124092
0.00124907
0.00125729
0.00127292
0.00109846
0.00109423
0.00108992
0.00108555
0.00108114
0.00107668
0.0010722
0.00106769
0.00106318
0.00105868
0.00105419
0.00104974
0.00104534
0.00104101
0.00103676
0.00103262
0.0010286
0.00102474
0.00102104
0.00101754
0.00101424
0.00101118
0.00100836
0.00100582
0.00100356
0.00100162
0.001
0.000998735
0.000997837
0.000997329
0.000997229
0.000997558
0.000998334
0.000999572
0.00100129
0.00100349
0.00100619
0.00100938
0.00101307
0.00101723
0.00102186
0.00102693
0.0010324
0.00103825
0.00104442
0.00105087
0.00105754
0.00106438
0.00107133
0.00107833
0.00108532
0.00109225
0.00109905
0.00110569
0.00111212
0.00111829
0.00112417
0.00112974
0.00113496
0.00113983
0.00114432
0.00114844
0.00115216
0.00115551
0.00115849
0.00116111
0.00116339
0.00116535
0.00116704
0.00116849
0.00116975
0.00117087
0.00117192
0.00117294
0.00117402
0.0011752
0.00117652
0.00117801
0.00117969
0.00118152
0.00118349
0.00118553
0.00118761
0.00118966
0.00119165
0.00119356
0.00119541
0.00119723
0.00119912
0.00120118
0.00120358
0.00120647
0.00121001
0.00121434
0.00121958
0.00122575
0.00123293
0.00124113
0.00124931
0.00126456
0.00112893
0.00112621
0.0011234
0.0011205
0.00111754
0.0011145
0.0011114
0.00110824
0.00110505
0.00110181
0.00109855
0.00109528
0.001092
0.00108874
0.00108551
0.00108233
0.0010792
0.00107616
0.00107321
0.00107038
0.00106768
0.00106513
0.00106276
0.00106058
0.0010586
0.00105685
0.00105535
0.0010541
0.00105313
0.00105246
0.00105208
0.00105203
0.00105232
0.00105294
0.00105391
0.00105525
0.00105694
0.00105899
0.0010614
0.00106415
0.00106724
0.00107065
0.00107436
0.00107835
0.00108258
0.00108703
0.00109165
0.00109642
0.00110129
0.00110622
0.00111117
0.00111611
0.001121
0.00112579
0.00113045
0.00113495
0.00113927
0.00114337
0.00114723
0.00115084
0.00115417
0.00115721
0.00115996
0.0011624
0.00116454
0.00116639
0.00116794
0.00116922
0.00117024
0.00117103
0.00117163
0.00117207
0.00117241
0.00117269
0.00117297
0.0011733
0.00117373
0.00117432
0.00117508
0.00117603
0.00117717
0.00117846
0.00117989
0.0011814
0.00118298
0.00118462
0.00118632
0.00118813
0.00119013
0.00119242
0.00119513
0.00119838
0.0012023
0.00120697
0.00121249
0.00121884
0.00122609
0.00123424
0.00124228
0.00125704
0.00114496
0.00114333
0.00114162
0.00113983
0.00113797
0.00113604
0.00113405
0.001132
0.00112989
0.00112773
0.00112553
0.00112329
0.00112103
0.00111874
0.00111645
0.00111417
0.0011119
0.00110966
0.00110746
0.00110532
0.00110325
0.00110127
0.00109939
0.00109763
0.00109601
0.00109453
0.00109321
0.00109207
0.00109113
0.00109039
0.00108986
0.00108957
0.00108951
0.00108971
0.00109016
0.00109087
0.00109185
0.00109309
0.0010946
0.00109636
0.00109838
0.00110064
0.00110313
0.00110583
0.00110873
0.0011118
0.00111503
0.00111838
0.00112183
0.00112536
0.00112893
0.00113251
0.00113608
0.00113961
0.00114306
0.00114642
0.00114966
0.00115275
0.00115567
0.0011584
0.00116093
0.00116323
0.0011653
0.00116712
0.00116869
0.00117
0.00117106
0.00117188
0.00117246
0.00117282
0.00117299
0.00117299
0.00117285
0.00117263
0.00117236
0.00117209
0.00117188
0.00117177
0.00117181
0.00117202
0.00117242
0.00117303
0.00117384
0.00117485
0.00117603
0.00117741
0.00117899
0.00118081
0.00118293
0.00118544
0.00118841
0.00119195
0.00119613
0.00120101
0.00120667
0.00121306
0.00122025
0.00122823
0.00123605
0.00125024
0.0011526
0.00115164
0.00115063
0.00114956
0.00114844
0.00114727
0.00114605
0.00114477
0.00114345
0.00114208
0.00114067
0.00113922
0.00113774
0.00113623
0.0011347
0.00113316
0.0011316
0.00113005
0.00112852
0.001127
0.00112551
0.00112407
0.00112268
0.00112135
0.0011201
0.00111894
0.00111789
0.00111694
0.00111612
0.00111544
0.0011149
0.00111452
0.00111431
0.00111428
0.00111442
0.00111476
0.00111529
0.00111601
0.00111693
0.00111805
0.00111936
0.00112085
0.00112253
0.00112438
0.00112639
0.00112854
0.00113083
0.00113323
0.00113573
0.0011383
0.00114093
0.0011436
0.00114627
0.00114894
0.00115157
0.00115414
0.00115664
0.00115904
0.00116131
0.00116344
0.00116541
0.0011672
0.0011688
0.0011702
0.00117138
0.00117234
0.00117308
0.00117359
0.00117389
0.00117399
0.00117389
0.00117362
0.00117321
0.00117269
0.0011721
0.00117147
0.00117085
0.0011703
0.00116985
0.00116954
0.00116943
0.00116952
0.00116985
0.00117043
0.00117127
0.00117239