/*--------------------------------*- C++ -*----------------------------------*\
| =========                 |                                                 |
| \\      /  F ield         | OpenFOAM: The Open Source CFD Toolbox           |
|  \\    /   O peration     | Version:  2.1.1                                 |
|   \\  /    A nd           | Web:      www.OpenFOAM.org                      |
|    \\/     M anipulation  |                                                 |
\*---------------------------------------------------------------------------*/
FoamFile
{
    version     2.0;
    format      ascii;
    class       volScalarField;
    location    "0.15";
    object      p;
}
// * * * * * * * * * * * * * * * * * * * * * * * * * * * * * * * * * * * * * //

dimensions      [0 2 -2 0 0 0 0];

internalField   nonuniform List<scalar> 
6820
(
-10.8205
-12.6668
-13.2419
-13.3698
-13.4771
-13.5565
-13.6112
-13.658
-13.7008
-13.7402
-13.7769
-13.8117
-13.8449
-13.8765
-13.9068
-13.9359
-13.9638
-13.9908
-14.0168
-14.0421
-14.0667
-14.0907
-14.114
-14.1369
-14.1591
-14.1807
-14.2014
-14.2208
-14.2378
-14.2516
-14.2578
-14.2502
-14.2165
-14.773
-14.2384
-13.816
-13.6261
-13.6017
-13.6132
-13.6337
-13.6619
-13.6944
-13.7282
-13.7621
-13.7957
-13.8286
-13.8605
-13.8913
-13.9211
-13.9499
-13.9777
-14.0045
-14.0306
-14.0559
-14.0806
-14.1046
-14.1281
-14.1511
-14.1735
-14.1952
-14.2163
-14.2363
-14.2571
-14.2767
-14.3179
-14.3722
-13.1304
-12.8267
-13.1134
-13.3586
-13.4638
-13.5394
-13.5987
-13.6483
-13.6927
-13.7332
-13.7707
-13.8059
-13.8392
-13.8709
-13.9011
-13.93
-13.9578
-13.9846
-14.0106
-14.0358
-14.0603
-14.0843
-14.1077
-14.1307
-14.1533
-14.1756
-14.1974
-14.219
-14.2404
-14.2628
-14.2865
-14.3181
-14.354
-13.6374
-13.6718
-13.6691
-13.6101
-13.6025
-13.6232
-13.6498
-13.679
-13.7102
-13.7419
-13.7735
-13.8046
-13.8351
-13.8648
-13.8938
-13.922
-13.9493
-13.976
-14.0019
-14.0272
-14.0519
-14.0761
-14.0999
-14.1233
-14.1464
-14.1693
-14.192
-14.2149
-14.2381
-14.2633
-14.2906
-14.3274
-14.3708
-13.482
-13.382
-13.4262
-13.4924
-13.5456
-13.5923
-13.6333
-13.671
-13.7071
-13.7419
-13.7753
-13.8074
-13.8384
-13.8684
-13.8973
-13.9253
-13.9524
-13.9787
-14.0042
-14.0292
-14.0536
-14.0775
-14.101
-14.1242
-14.1473
-14.1702
-14.1931
-14.2165
-14.2406
-14.2667
-14.2953
-14.33
-14.3696
-13.537
-13.5204
-13.5457
-13.5689
-13.5914
-13.6209
-13.6527
-13.6846
-13.7167
-13.7485
-13.7796
-13.81
-13.8396
-13.8684
-13.8964
-13.9236
-13.9502
-13.976
-14.0012
-14.0259
-14.0501
-14.0739
-14.0974
-14.1207
-14.1438
-14.167
-14.1903
-14.2142
-14.2391
-14.2657
-14.2947
-14.3281
-14.3651
-13.5351
-13.5141
-13.53
-13.5589
-13.5892
-13.6223
-13.6555
-13.6878
-13.7196
-13.751
-13.7816
-13.8115
-13.8407
-13.869
-13.8966
-13.9235
-13.9497
-13.9752
-14.0002
-14.0246
-14.0486
-14.0723
-14.0957
-14.1189
-14.142
-14.1652
-14.1887
-14.2128
-14.2379
-14.2644
-14.293
-14.3245
-14.3583
-13.5492
-13.5415
-13.557
-13.5816
-13.607
-13.6354
-13.6652
-13.6952
-13.7253
-13.7552
-13.7846
-13.8135
-13.8418
-13.8694
-13.8963
-13.9226
-13.9483
-13.9735
-13.9981
-14.0222
-14.046
-14.0694
-14.0927
-14.1158
-14.1388
-14.162
-14.1856
-14.2096
-14.2346
-14.2608
-14.2885
-14.3182
-14.3493
-13.5621
-13.5582
-13.5705
-13.5921
-13.6163
-13.6433
-13.6719
-13.7007
-13.7297
-13.7586
-13.7871
-13.8151
-13.8427
-13.8696
-13.896
-13.9218
-13.947
-13.9718
-13.996
-14.0199
-14.0434
-14.0666
-14.0896
-14.1125
-14.1355
-14.1585
-14.1819
-14.2058
-14.2304
-14.256
-14.2827
-14.3106
-14.3393
-13.5756
-13.575
-13.5864
-13.606
-13.6283
-13.6532
-13.6798
-13.7071
-13.7347
-13.7623
-13.7898
-13.8169
-13.8436
-13.8698
-13.8956
-13.9208
-13.9456
-13.9698
-13.9937
-14.0172
-14.0404
-14.0633
-14.0861
-14.1088
-14.1315
-14.1543
-14.1774
-14.2009
-14.225
-14.2498
-14.2754
-14.3017
-14.3283
-13.589
-13.59
-13.6005
-13.6181
-13.6387
-13.662
-13.6871
-13.713
-13.7394
-13.7659
-13.7924
-13.8186
-13.8445
-13.87
-13.8951
-13.9198
-13.944
-13.9678
-13.9913
-14.0144
-14.0372
-14.0598
-14.0823
-14.1046
-14.127
-14.1495
-14.1722
-14.1953
-14.2187
-14.2426
-14.267
-14.2918
-14.3167
-13.6021
-13.6041
-13.614
-13.63
-13.6492
-13.6709
-13.6944
-13.719
-13.7441
-13.7695
-13.7949
-13.8203
-13.8454
-13.8701
-13.8946
-13.9186
-13.9423
-13.9657
-13.9886
-14.0113
-14.0338
-14.056
-14.0781
-14.1001
-14.1221
-14.1442
-14.1664
-14.1888
-14.2115
-14.2345
-14.2578
-14.2812
-14.3046
-13.6148
-13.6173
-13.6266
-13.6413
-13.6591
-13.6793
-13.7015
-13.7247
-13.7487
-13.773
-13.7975
-13.8219
-13.8462
-13.8702
-13.894
-13.9174
-13.9406
-13.9634
-13.9859
-14.0081
-14.0301
-14.0519
-14.0736
-14.0952
-14.1167
-14.1383
-14.1599
-14.1817
-14.2036
-14.2257
-14.2479
-14.27
-14.292
-13.627
-13.6296
-13.6384
-13.6519
-13.6685
-13.6875
-13.7083
-13.7303
-13.7531
-13.7764
-13.7999
-13.8234
-13.8469
-13.8702
-13.8933
-13.9161
-13.9387
-13.9609
-13.9829
-14.0047
-14.0262
-14.0476
-14.0687
-14.0898
-14.1109
-14.1319
-14.1529
-14.1739
-14.195
-14.2162
-14.2373
-14.2582
-14.279
-13.6385
-13.6411
-13.6494
-13.662
-13.6774
-13.6952
-13.7148
-13.7357
-13.7574
-13.7796
-13.8022
-13.8249
-13.8475
-13.8701
-13.8925
-13.9147
-13.9366
-13.9583
-13.9798
-14.001
-14.0221
-14.0429
-14.0636
-14.0841
-14.1046
-14.125
-14.1453
-14.1656
-14.1859
-14.2061
-14.2262
-14.246
-14.2656
-13.6493
-13.6519
-13.6597
-13.6714
-13.6858
-13.7025
-13.721
-13.7408
-13.7614
-13.7827
-13.8043
-13.8262
-13.848
-13.8699
-13.8916
-13.9131
-13.9345
-13.9556
-13.9765
-13.9972
-14.0176
-14.0379
-14.0581
-14.078
-14.0979
-14.1176
-14.1373
-14.1568
-14.1762
-14.1955
-14.2145
-14.2333
-14.2518
-13.6594
-13.6619
-13.6693
-13.6802
-13.6937
-13.7093
-13.7268
-13.7455
-13.7652
-13.7855
-13.8063
-13.8273
-13.8484
-13.8695
-13.8905
-13.9114
-13.9321
-13.9526
-13.9729
-13.993
-14.013
-14.0327
-14.0522
-14.0716
-14.0908
-14.1098
-14.1287
-14.1475
-14.166
-14.1844
-14.2025
-14.2203
-14.2377
-13.6688
-13.6712
-13.6781
-13.6883
-13.7009
-13.7157
-13.7322
-13.75
-13.7687
-13.7881
-13.808
-13.8282
-13.8485
-13.8689
-13.8892
-13.9094
-13.9295
-13.9494
-13.9691
-13.9887
-14.008
-14.0271
-14.046
-14.0648
-14.0833
-14.1016
-14.1198
-14.1377
-14.1554
-14.1729
-14.19
-14.2068
-14.2233
-13.6774
-13.6796
-13.6861
-13.6957
-13.7076
-13.7215
-13.7371
-13.754
-13.7718
-13.7904
-13.8094
-13.8288
-13.8484
-13.8681
-13.8877
-13.9073
-13.9267
-13.946
-13.9651
-13.984
-14.0027
-14.0212
-14.0395
-14.0576
-14.0754
-14.093
-14.1104
-14.1276
-14.1444
-14.161
-14.1772
-14.1931
-14.2085
-13.6852
-13.6873
-13.6934
-13.7024
-13.7136
-13.7268
-13.7415
-13.7576
-13.7746
-13.7923
-13.8106
-13.8292
-13.8481
-13.867
-13.886
-13.9049
-13.9237
-13.9424
-13.9609
-13.9792
-13.9972
-14.0151
-14.0327
-14.0501
-14.0672
-14.0841
-14.1007
-14.117
-14.133
-14.1487
-14.164
-14.179
-14.1935
-13.6922
-13.6942
-13.7
-13.7084
-13.719
-13.7314
-13.7454
-13.7607
-13.7769
-13.7939
-13.8114
-13.8293
-13.8475
-13.8657
-13.884
-13.9023
-13.9205
-13.9385
-13.9563
-13.974
-13.9914
-14.0086
-14.0256
-14.0423
-14.0587
-14.0748
-14.0907
-14.1062
-14.1214
-14.1362
-14.1506
-14.1646
-14.1782
-13.6984
-13.7002
-13.7057
-13.7137
-13.7237
-13.7354
-13.7488
-13.7633
-13.7788
-13.795
-13.8119
-13.8291
-13.8465
-13.8641
-13.8818
-13.8994
-13.9169
-13.9343
-13.9516
-13.9686
-13.9854
-14.0019
-14.0182
-14.0342
-14.0499
-14.0653
-14.0803
-14.095
-14.1094
-14.1233
-14.1369
-14.1501
-14.1628
-13.7037
-13.7055
-13.7106
-13.7182
-13.7276
-13.7388
-13.7515
-13.7654
-13.7802
-13.7958
-13.8119
-13.8285
-13.8453
-13.8622
-13.8793
-13.8963
-13.9132
-13.9299
-13.9465
-13.9629
-13.9791
-13.995
-14.0106
-14.0258
-14.0408
-14.0555
-14.0697
-14.0837
-14.0972
-14.1103
-14.123
-14.1353
-14.1471
-13.7081
-13.7098
-13.7147
-13.7219
-13.7308
-13.7415
-13.7536
-13.7668
-13.781
-13.796
-13.8115
-13.8274
-13.8436
-13.86
-13.8764
-13.8928
-13.9091
-13.9252
-13.9412
-13.957
-13.9725
-13.9877
-14.0026
-14.0172
-14.0315
-14.0454
-14.0589
-14.072
-14.0848
-14.0971
-14.1089
-14.1204
-14.1313
-13.7116
-13.7132
-13.7179
-13.7247
-13.7333
-13.7435
-13.755
-13.7678
-13.7814
-13.7958
-13.8108
-13.8261
-13.8417
-13.8575
-13.8733
-13.8891
-13.9048
-13.9204
-13.9358
-13.9509
-13.9658
-13.9803
-13.9946
-14.0085
-14.022
-14.0352
-14.048
-14.0603
-14.0723
-14.0838
-14.0948
-14.1054
-14.1155
-13.7142
-13.7158
-13.7201
-13.7266
-13.7347
-13.7444
-13.7555
-13.7677
-13.7809
-13.7948
-13.8092
-13.824
-13.8391
-13.8543
-13.8696
-13.8849
-13.9
-13.915
-13.9298
-13.9443
-13.9586
-13.9725
-13.9861
-13.9994
-14.0122
-14.0247
-14.0368
-14.0484
-14.0596
-14.0703
-14.0805
-14.0903
-14.0996
-13.7159
-13.7174
-13.7216
-13.7278
-13.7357
-13.7451
-13.7559
-13.7677
-13.7804
-13.7939
-13.8078
-13.8222
-13.8367
-13.8514
-13.8662
-13.8809
-13.8955
-13.9099
-13.9241
-13.938
-13.9517
-13.965
-13.9779
-13.9905
-14.0027
-14.0144
-14.0257
-14.0366
-14.047
-14.057
-14.0665
-14.0755
-14.084
-13.7165
-13.7178
-13.7216
-13.7274
-13.7348
-13.7437
-13.754
-13.7655
-13.7778
-13.7909
-13.8045
-13.8184
-13.8326
-13.8469
-13.8613
-13.8755
-13.8897
-13.9036
-13.9173
-13.9308
-13.9439
-13.9566
-13.969
-13.9809
-13.9925
-14.0036
-14.0143
-14.0245
-14.0342
-14.0434
-14.0522
-14.0604
-14.0682
-13.7163
-13.7178
-13.7218
-13.7277
-13.7351
-13.744
-13.7542
-13.7654
-13.7774
-13.7901
-13.8033
-13.8168
-13.8305
-13.8443
-13.8581
-13.8718
-13.8854
-13.8988
-13.9119
-13.9247
-13.9372
-13.9493
-13.961
-13.9723
-13.9832
-13.9936
-14.0035
-14.013
-14.022
-14.0305
-14.0385
-14.046
-14.053
-13.7143
-13.715
-13.7178
-13.7226
-13.7293
-13.7377
-13.7475
-13.7586
-13.7706
-13.7833
-13.7964
-13.8099
-13.8235
-13.8373
-13.8509
-13.8645
-13.8778
-13.891
-13.9038
-13.9162
-13.9283
-13.94
-13.9513
-13.9622
-13.9725
-13.9824
-13.9918
-14.0007
-14.0091
-14.017
-14.0244
-14.0313
-14.0376
-13.7133
-13.7158
-13.7202
-13.726
-13.7332
-13.7416
-13.7513
-13.762
-13.7734
-13.7855
-13.798
-13.8107
-13.8237
-13.8367
-13.8496
-13.8625
-13.8751
-13.8875
-13.8996
-13.9114
-13.9228
-13.9338
-13.9443
-13.9545
-13.9641
-13.9733
-13.982
-13.9902
-13.9979
-14.005
-14.0117
-14.0178
-14.0234
-13.7054
-13.7033
-13.7035
-13.707
-13.7135
-13.7222
-13.7327
-13.7443
-13.7569
-13.77
-13.7835
-13.7972
-13.8109
-13.8245
-13.838
-13.8513
-13.8642
-13.8768
-13.889
-13.9008
-13.9122
-13.9231
-13.9335
-13.9434
-13.9528
-13.9617
-13.97
-13.9778
-13.9851
-13.9918
-13.998
-14.0036
-14.0087
-13.7126
-13.719
-13.7246
-13.7295
-13.7351
-13.7422
-13.7507
-13.7603
-13.7708
-13.7819
-13.7935
-13.8055
-13.8175
-13.8296
-13.8417
-13.8536
-13.8653
-13.8768
-13.8879
-13.8987
-13.9091
-13.9191
-13.9286
-13.9376
-13.9462
-13.9542
-13.9618
-13.9688
-13.9753
-13.9812
-13.9867
-13.9916
-13.996
-13.6807
-13.6672
-13.6622
-13.6672
-13.677
-13.6892
-13.703
-13.7177
-13.7329
-13.7483
-13.7635
-13.7787
-13.7935
-13.8079
-13.8219
-13.8355
-13.8486
-13.8612
-13.8733
-13.8848
-13.8958
-13.9062
-13.916
-13.9253
-13.934
-13.9421
-13.9496
-13.9565
-13.9629
-13.9687
-13.9739
-13.9786
-13.9826
-13.7341
-13.7543
-13.7585
-13.7537
-13.7511
-13.7532
-13.7581
-13.7648
-13.773
-13.7822
-13.7922
-13.8026
-13.8134
-13.8244
-13.8353
-13.8462
-13.8569
-13.8673
-13.8774
-13.8872
-13.8966
-13.9056
-13.9141
-13.9222
-13.9297
-13.9368
-13.9433
-13.9493
-13.9548
-13.9597
-13.9641
-13.968
-13.9713
-13.6113
-13.5617
-13.5499
-13.5759
-13.6036
-13.6276
-13.6511
-13.6738
-13.6955
-13.716
-13.7353
-13.7537
-13.771
-13.7875
-13.803
-13.8178
-13.8317
-13.8449
-13.8574
-13.8691
-13.8801
-13.8904
-13.9001
-13.9091
-13.9174
-13.925
-13.9321
-13.9384
-13.9442
-13.9493
-13.9538
-13.9577
-13.9609
-13.8592
-13.8941
-13.863
-13.8202
-13.7913
-13.7802
-13.777
-13.7775
-13.7809
-13.7866
-13.7938
-13.802
-13.8109
-13.8202
-13.8297
-13.8393
-13.8488
-13.8582
-13.8673
-13.8761
-13.8846
-13.8927
-13.9003
-13.9075
-13.9142
-13.9205
-13.9262
-13.9314
-13.9361
-13.9402
-13.9438
-13.947
-13.9496
-13.367
-13.2472
-13.3095
-13.4109
-13.4847
-13.5362
-13.5795
-13.6174
-13.6502
-13.6791
-13.7048
-13.7281
-13.7492
-13.7685
-13.7863
-13.8027
-13.8179
-13.832
-13.8452
-13.8573
-13.8686
-13.8791
-13.8888
-13.8976
-13.9058
-13.9132
-13.9199
-13.9259
-13.9312
-13.9358
-13.9398
-13.9431
-13.9458
-14.5814
-14.2424
-13.9786
-13.8613
-13.8111
-13.7855
-13.7702
-13.7636
-13.7634
-13.767
-13.7731
-13.7808
-13.7896
-13.799
-13.8087
-13.8186
-13.8285
-13.8381
-13.8476
-13.8567
-13.8654
-13.8737
-13.8815
-13.8888
-13.8957
-13.9019
-13.9077
-13.9129
-13.9175
-13.9216
-13.9252
-13.9281
-13.9306
-12.0777
-12.7843
-13.1887
-13.3409
-13.4454
-13.5275
-13.5867
-13.6313
-13.6674
-13.6973
-13.7225
-13.7445
-13.764
-13.7816
-13.7976
-13.8123
-13.8259
-13.8385
-13.8502
-13.861
-13.8711
-13.8804
-13.889
-13.8968
-13.904
-13.9105
-13.9164
-13.9216
-13.9261
-13.9301
-13.9334
-13.9361
-13.9381
-14.1082
-14.3507
-14.4909
-14.5802
-14.6419
-14.686
-14.7221
-14.7586
-14.8003
-14.8496
-14.9062
-14.9691
-15.0372
-15.1085
-15.1809
-15.2528
-15.3223
-15.3882
-15.4493
-15.5047
-15.5538
-15.596
-15.631
-15.6584
-15.6777
-15.6887
-15.6906
-15.6828
-15.6647
-15.6352
-15.5934
-15.5383
-15.4688
-15.3838
-15.2823
-15.163
-15.0251
-14.8674
-14.6892
-14.4895
-14.2677
-14.0232
-13.7557
-13.4648
-13.1509
-12.814
-12.4549
-12.0746
-11.6743
-11.2556
-10.8205
-10.3713
-9.91061
-9.44119
-8.96611
-8.48859
-8.0119
-7.53935
-7.0742
-6.61956
-6.17838
-5.7533
-5.34669
-4.96051
-4.59634
-4.25535
-3.93827
-3.64542
-3.37672
-3.13175
-2.9097
-2.70951
-2.52981
-2.36903
-2.22538
-2.09695
-1.98169
-1.8775
-1.78224
-1.69378
-1.61006
-1.52911
-1.44914
-1.36854
-1.28595
-1.20036
-1.11109
-1.01791
-0.920999
-0.821104
-0.719269
-0.617373
-0.516715
-0.42095
-0.328781
-0.250104
-0.167855
-0.125322
-0.0230007
-0.0921774
-14.7068
-14.8427
-14.7791
-14.712
-14.6816
-14.6589
-14.6549
-14.6674
-14.6967
-14.7442
-14.8059
-14.878
-14.9567
-15.0383
-15.1198
-15.1985
-15.2724
-15.3404
-15.4016
-15.4558
-15.5028
-15.5427
-15.5753
-15.6004
-15.6177
-15.6268
-15.627
-15.6176
-15.5979
-15.567
-15.5238
-15.4673
-15.3966
-15.3106
-15.2081
-15.0882
-14.9498
-14.792
-14.614
-14.4148
-14.1939
-13.9508
-13.685
-13.3964
-13.0852
-12.7516
-12.3963
-12.0203
-11.6248
-11.2114
-10.7819
-10.3387
-9.88424
-9.42122
-8.95262
-8.48154
-8.01118
-7.54476
-7.08545
-6.63629
-6.20015
-5.77963
-5.37701
-4.99423
-4.63282
-4.29393
-3.9783
-3.68624
-3.41772
-3.17233
-2.94935
-2.74776
-2.56628
-2.40342
-2.25749
-2.12664
-2.0089
-1.90223
-1.80455
-1.71377
-1.62786
-1.5449
-1.46308
-1.38082
-1.29679
-1.20995
-1.11964
-1.02562
-0.928059
-0.827712
-0.725558
-0.62354
-0.52272
-0.427096
-0.334418
-0.256266
-0.171728
-0.131692
-0.0211804
-0.102183
-14.409
-14.4142
-14.4368
-14.4891
-14.5453
-14.5952
-14.634
-14.6722
-14.7132
-14.7593
-14.8108
-14.8681
-14.9304
-14.9964
-15.0644
-15.1328
-15.2
-15.2645
-15.3249
-15.38
-15.429
-15.4709
-15.5052
-15.5315
-15.5493
-15.5581
-15.5576
-15.5471
-15.5259
-15.4934
-15.4486
-15.3907
-15.3187
-15.2314
-15.128
-15.0074
-14.8687
-14.7108
-14.533
-14.3345
-14.1147
-13.8731
-13.6093
-13.3233
-13.015
-12.685
-12.3337
-11.9622
-11.5716
-11.1636
-10.7399
-10.3027
-9.85448
-9.39791
-8.93586
-8.47136
-8.00752
-7.54748
-7.09432
-6.651
-6.22028
-5.80469
-5.40645
-5.02743
-4.66913
-4.33267
-4.01877
-3.72777
-3.45965
-3.21404
-2.99028
-2.78739
-2.60419
-2.43925
-2.29097
-2.15758
-2.0372
-1.92787
-1.82756
-1.73425
-1.64595
-1.56076
-1.47692
-1.39285
-1.30723
-1.21904
-1.12763
-1.03274
-0.934548
-0.833804
-0.731426
-0.629411
-0.528569
-0.433207
-0.340126
-0.262511
-0.175803
-0.138026
-0.0199016
-0.111463
-14.4643
-14.5781
-14.6399
-14.6589
-14.6663
-14.6703
-14.6701
-14.6778
-14.705
-14.7424
-14.7893
-14.8449
-14.9069
-14.9727
-15.0397
-15.1058
-15.1691
-15.2282
-15.2823
-15.3307
-15.373
-15.4088
-15.4379
-15.4599
-15.4742
-15.4805
-15.4779
-15.4658
-15.4434
-15.4098
-15.364
-15.3052
-15.2323
-15.1443
-15.0403
-14.9192
-14.7803
-14.6225
-14.4452
-14.2475
-14.0289
-13.7889
-13.5272
-13.2437
-12.9385
-12.612
-12.2648
-11.8978
-11.5123
-11.1097
-10.6919
-10.261
-9.81941
-9.36966
-8.91459
-8.45713
-8.00029
-7.54711
-7.10056
-6.66351
-6.23863
-5.82836
-5.43484
-5.05989
-4.70497
-4.37117
-4.05922
-3.76947
-3.50192
-3.25625
-3.03184
-2.82779
-2.64296
-2.476
-2.32538
-2.18943
-2.06635
-1.95423
-1.85115
-1.75514
-1.66427
-1.57669
-1.49065
-1.40463
-1.31732
-1.22771
-1.13514
-1.03939
-0.94061
-0.839549
-0.737057
-0.635162
-0.534412
-0.439386
-0.345965
-0.268855
-0.180071
-0.144308
-0.01912
-0.120029
-14.4274
-14.4746
-14.49
-14.5044
-14.5297
-14.559
-14.5944
-14.6382
-14.6784
-14.7218
-14.7708
-14.8248
-14.8822
-14.9418
-15.0021
-15.0618
-15.1197
-15.1746
-15.2257
-15.2719
-15.3125
-15.3468
-15.3742
-15.3942
-15.4063
-15.4099
-15.4044
-15.3893
-15.3639
-15.3274
-15.2789
-15.2177
-15.1426
-15.0529
-14.9475
-14.8254
-14.6858
-14.5278
-14.3506
-14.1535
-13.936
-13.6976
-13.438
-13.1572
-12.8552
-12.5324
-12.1896
-11.8274
-11.4473
-11.0506
-10.6391
-10.2149
-9.78034
-9.33786
-8.89021
-8.44022
-7.99081
-7.5449
-7.10536
-6.67493
-6.25619
-5.85149
-5.4629
-5.09218
-4.74077
-4.40974
-4.09982
-3.81138
-3.54447
-3.29879
-3.07379
-2.86862
-2.68221
-2.51327
-2.36036
-2.22185
-2.09604
-1.9811
-1.87517
-1.77636
-1.6828
-1.59269
-1.50436
-1.41628
-1.32719
-1.2361
-1.14237
-1.04579
-0.946464
-0.845166
-0.742651
-0.64096
-0.540367
-0.445697
-0.35196
-0.275287
-0.184517
-0.150504
-0.0188033
-0.127869
-14.4149
-14.4711
-14.5163
-14.5535
-14.5854
-14.6135
-14.6309
-14.6491
-14.679
-14.7154
-14.7577
-14.8055
-14.8576
-14.9125
-14.9686
-15.0244
-15.0783
-15.1292
-15.1759
-15.2177
-15.2539
-15.2839
-15.3073
-15.3235
-15.3322
-15.3327
-15.3245
-15.3069
-15.2791
-15.2404
-15.1899
-15.1267
-15.0498
-14.9585
-14.8517
-14.7286
-14.5882
-14.4298
-14.2527
-14.0561
-13.8396
-13.6028
-13.3453
-13.0671
-12.7684
-12.4495
-12.1111
-11.754
-11.3794
-10.9889
-10.584
-10.1669
-9.73964
-9.30479
-8.86492
-8.42275
-7.98106
-7.54266
-7.1103
-6.68662
-6.27411
-5.87502
-5.49138
-5.1249
-4.77699
-4.44872
-4.14082
-3.85369
-3.58741
-3.34172
-3.11613
-2.90984
-2.72185
-2.55094
-2.39573
-2.25467
-2.12612
-2.00834
-1.89952
-1.79785
-1.70154
-1.60884
-1.51812
-1.42792
-1.33701
-1.24443
-1.14954
-1.05214
-0.952333
-0.850853
-0.74837
-0.646916
-0.546498
-0.452162
-0.358104
-0.281786
-0.189119
-0.156587
-0.0189203
-0.134989
-14.4005
-14.4463
-14.4809
-14.5067
-14.53
-14.5522
-14.5842
-14.6165
-14.6521
-14.6911
-14.7339
-14.7805
-14.83
-14.8813
-14.9331
-14.9842
-15.0335
-15.0799
-15.1225
-15.1605
-15.1933
-15.2201
-15.2405
-15.2538
-15.2596
-15.2572
-15.2461
-15.2255
-15.1949
-15.1534
-15.1002
-15.0346
-14.9556
-14.8624
-14.7541
-14.6297
-14.4886
-14.3298
-14.1528
-13.9568
-13.7414
-13.5061
-13.2509
-12.9755
-12.6803
-12.3654
-12.0317
-11.6799
-11.3113
-10.9271
-10.5291
-10.1192
-9.6996
-9.27252
-8.84052
-8.40619
-7.97221
-7.54129
-7.11605
-6.69904
-6.29267
-5.89912
-5.52036
-5.15806
-4.81361
-4.48807
-4.18217
-3.89633
-3.63067
-3.38498
-3.15879
-2.95139
-2.76183
-2.58895
-2.43144
-2.28783
-2.15654
-2.03589
-1.92417
-1.81963
-1.72053
-1.6252
-1.53207
-1.43973
-1.34698
-1.25289
-1.15686
-1.05866
-0.958391
-0.856751
-0.754309
-0.653083
-0.55282
-0.458772
-0.364379
-0.288326
-0.193854
-0.162536
-0.0194376
-0.14141
-14.3867
-14.4284
-14.4644
-14.4959
-14.5262
-14.5566
-14.582
-14.6104
-14.6418
-14.6769
-14.7159
-14.7583
-14.8034
-14.8502
-14.8976
-14.9444
-14.9895
-15.0319
-15.0706
-15.1048
-15.1339
-15.1572
-15.1741
-15.184
-15.1865
-15.181
-15.1669
-15.1435
-15.1102
-15.0661
-15.0106
-14.9427
-14.8617
-14.7668
-14.657
-14.5315
-14.3896
-14.2305
-14.0536
-13.8582
-13.644
-13.4105
-13.1575
-12.8851
-12.5934
-12.2827
-11.9538
-11.6073
-11.2446
-10.8668
-10.4757
-10.073
-9.66089
-9.24148
-8.81722
-8.39061
-7.96421
-7.54062
-7.12238
-6.71193
-6.3116
-5.92351
-5.54956
-5.19139
-4.85036
-4.52752
-4.22361
-3.93907
-3.67404
-3.42836
-3.20161
-2.99312
-2.80201
-2.62719
-2.4674
-2.32126
-2.18724
-2.06375
-1.94913
-1.84171
-1.73982
-1.64186
-1.54631
-1.45181
-1.35722
-1.26163
-1.16445
-1.06547
-0.964727
-0.862915
-0.760493
-0.659459
-0.559316
-0.4655
-0.370758
-0.294881
-0.198704
-0.168338
-0.0203207
-0.147161
-14.3731
-14.4108
-14.4448
-14.4748
-14.5027
-14.5299
-14.5572
-14.587
-14.6191
-14.6539
-14.6915
-14.7317
-14.7739
-14.8172
-14.8608
-14.9036
-14.9446
-14.983
-15.0178
-15.0483
-15.0737
-15.0936
-15.1072
-15.1141
-15.1136
-15.1051
-15.0881
-15.062
-15.0259
-14.9793
-14.9214
-14.8514
-14.7684
-14.6718
-14.5606
-14.4341
-14.2915
-14.1322
-13.9555
-13.7608
-13.5478
-13.3161
-13.0655
-12.7961
-12.5079
-12.2015
-11.8773
-11.5362
-11.1793
-10.8079
-10.4235
-10.028
-9.62319
-9.21132
-8.79467
-8.37564
-7.9567
-7.54033
-7.12896
-6.72497
-6.3306
-5.94789
-5.57869
-5.22462
-4.88698
-4.56684
-4.26492
-3.9817
-3.71733
-3.47169
-3.2444
-3.03487
-2.84225
-2.66552
-2.50349
-2.35485
-2.21813
-2.09182
-1.97433
-1.86406
-1.7594
-1.65882
-1.56086
-1.46422
-1.36778
-1.2707
-1.17236
-1.07258
-0.971355
-0.869343
-0.766908
-0.666021
-0.56596
-0.472321
-0.37722
-0.301436
-0.203651
-0.173985
-0.0215356
-0.152281
-14.3593
-14.3941
-14.4267
-14.4566
-14.4852
-14.5132
-14.5412
-14.5701
-14.6007
-14.6335
-14.6685
-14.7056
-14.7443
-14.7839
-14.8236
-14.8624
-14.8995
-14.9339
-14.9649
-14.9918
-15.0137
-15.0301
-15.0405
-15.0441
-15.0406
-15.0291
-15.0093
-14.9804
-14.9418
-14.8927
-14.8325
-14.7604
-14.6756
-14.5773
-14.4649
-14.3374
-14.1943
-14.0348
-13.8584
-13.6646
-13.4529
-13.223
-12.9748
-12.7084
-12.4238
-12.1215
-11.802
-11.4662
-11.1151
-10.75
-10.3723
-9.98373
-9.58619
-9.18174
-8.77259
-8.36102
-7.94941
-7.54014
-7.13556
-6.73794
-6.34945
-5.97207
-5.60759
-5.25757
-4.92332
-4.60587
-4.30597
-4.02408
-3.76039
-3.51482
-3.28705
-3.0765
-2.88242
-2.70383
-2.53961
-2.3885
-2.24913
-2.12003
-1.99971
-1.88661
-1.77921
-1.67603
-1.57568
-1.47691
-1.37865
-1.28006
-1.18057
-1.07998
-0.978248
-0.876007
-0.773523
-0.672741
-0.572728
-0.479216
-0.383751
-0.307978
-0.208685
-0.179475
-0.0230492
-0.156811
-14.3455
-14.3778
-14.4087
-14.4378
-14.4658
-14.4931
-14.5205
-14.5487
-14.5784
-14.6097
-14.6428
-14.6774
-14.7131
-14.7494
-14.7855
-14.8206
-14.8538
-14.8845
-14.9118
-14.935
-14.9535
-14.9666
-14.9737
-14.9742
-14.9676
-14.9533
-14.9306
-14.8991
-14.8579
-14.8064
-14.744
-14.6699
-14.5833
-14.4835
-14.3698
-14.2415
-14.0979
-13.9383
-13.7623
-13.5693
-13.3589
-13.1309
-12.8852
-12.6217
-12.3407
-12.0426
-11.7278
-11.3972
-11.0519
-10.6929
-10.3218
-9.94011
-9.54971
-9.15257
-8.75079
-8.34657
-7.94218
-7.53992
-7.14203
-6.75071
-6.36803
-5.99592
-5.63612
-5.29015
-4.95927
-4.64452
-4.34664
-4.0661
-3.80313
-3.55767
-3.32945
-3.11794
-2.92244
-2.74203
-2.57566
-2.42214
-2.28015
-2.14832
-2.0252
-1.90931
-1.7992
-1.69345
-1.59074
-1.48986
-1.38978
-1.2897
-1.18905
-1.08763
-0.985376
-0.882879
-0.780316
-0.679603
-0.579607
-0.486177
-0.390344
-0.314504
-0.213797
-0.184811
-0.0248294
-0.160799
-14.3314
-14.3617
-14.3911
-14.4192
-14.4465
-14.4734
-14.5003
-14.5277
-14.5561
-14.5857
-14.6166
-14.6486
-14.6813
-14.7143
-14.7468
-14.7783
-14.8079
-14.8349
-14.8586
-14.8783
-14.8933
-14.903
-14.9069
-14.9043
-14.8947
-14.8775
-14.8521
-14.8179
-14.7743
-14.7205
-14.6559
-14.5798
-14.4915
-14.3903
-14.2754
-14.1463
-14.0023
-13.8427
-13.6671
-13.4749
-13.266
-13.0399
-12.7966
-12.5361
-12.2587
-11.9646
-11.6545
-11.3291
-10.9894
-10.6365
-10.2719
-9.89701
-9.51366
-9.12371
-8.72919
-8.33221
-7.93494
-7.53958
-7.14829
-6.76319
-6.38626
-6.01938
-5.66422
-5.32226
-4.99476
-4.6827
-4.38686
-4.1077
-3.84548
-3.60017
-3.37154
-3.15912
-2.96224
-2.78006
-2.6116
-2.45571
-2.31116
-2.17663
-2.05075
-1.93211
-1.81933
-1.71105
-1.606
-1.50302
-1.40114
-1.29958
-1.19777
-1.09551
-0.992723
-0.889946
-0.787278
-0.686598
-0.586593
-0.4932
-0.396996
-0.321014
-0.218982
-0.190001
-0.0268456
-0.164294
-14.3172
-14.3456
-14.3735
-14.4005
-14.4269
-14.453
-14.479
-14.5053
-14.5324
-14.5603
-14.5891
-14.6185
-14.6484
-14.6783
-14.7075
-14.7355
-14.7616
-14.785
-14.8052
-14.8214
-14.8331
-14.8396
-14.8403
-14.8346
-14.8221
-14.8021
-14.7739
-14.7371
-14.691
-14.6349
-14.5682
-14.4903
-14.4003
-14.2977
-14.1818
-14.0519
-13.9075
-13.7479
-13.5728
-13.3816
-13.174
-12.9498
-12.709
-12.4515
-12.1776
-11.8876
-11.5821
-11.2619
-10.9277
-10.5809
-10.2226
-9.85442
-9.47798
-9.09512
-8.70774
-8.31789
-7.92763
-7.53908
-7.1543
-6.77533
-6.4041
-6.04238
-5.69183
-5.35386
-5.02971
-4.72036
-4.42656
-4.14881
-3.88737
-3.64226
-3.41326
-3.19997
-3.00177
-2.81788
-2.64736
-2.48916
-2.3421
-2.20492
-2.07633
-1.95499
-1.83957
-1.72879
-1.62143
-1.51639
-1.41272
-1.30968
-1.20672
-1.10363
-1.00028
-0.897205
-0.794406
-0.693727
-0.593687
-0.500288
-0.403709
-0.327511
-0.224234
-0.195053
-0.0290685
-0.167344
-14.3026
-14.3294
-14.3558
-14.3817
-14.4071
-14.4322
-14.4572
-14.4823
-14.508
-14.5341
-14.5608
-14.5878
-14.6149
-14.6418
-14.6678
-14.6924
-14.715
-14.735
-14.7518
-14.7646
-14.773
-14.7762
-14.7738
-14.7652
-14.7497
-14.7269
-14.6961
-14.6567
-14.6082
-14.5499
-14.4811
-14.4013
-14.3098
-14.2058
-14.0889
-13.9584
-13.8136
-13.6541
-13.4794
-13.2892
-13.0831
-12.8608
-12.6225
-12.368
-12.0976
-11.8116
-11.5107
-11.1955
-10.8668
-10.5259
-10.1739
-9.81229
-9.44267
-9.06677
-8.68643
-8.30358
-7.92023
-7.53837
-7.16002
-6.7871
-6.42148
-6.06488
-5.71888
-5.38489
-5.06408
-4.75743
-4.4657
-4.18938
-3.92875
-3.68386
-3.45455
-3.24044
-3.04097
-2.85542
-2.68291
-2.52245
-2.37293
-2.23316
-2.10191
-1.97791
-1.8599
-1.74666
-1.63703
-1.52995
-1.42452
-1.32001
-1.2159
-1.11196
-1.00805
-0.904655
-0.801703
-0.700992
-0.600892
-0.507444
-0.410486
-0.334001
-0.229551
-0.199981
-0.0314702
-0.169998
-14.2879
-14.3131
-14.3381
-14.3627
-14.387
-14.4109
-14.4348
-14.4586
-14.4827
-14.5071
-14.5316
-14.5563
-14.5807
-14.6047
-14.6276
-14.649
-14.6683
-14.685
-14.6984
-14.7079
-14.713
-14.7131
-14.7076
-14.696
-14.6777
-14.6521
-14.6186
-14.5768
-14.5259
-14.4654
-14.3947
-14.3131
-14.22
-14.1148
-13.9969
-13.8657
-13.7207
-13.5613
-13.3872
-13.1979
-12.9932
-12.7729
-12.537
-12.2855
-12.0186
-11.7366
-11.4402
-11.1299
-10.8067
-10.4716
-10.1258
-9.77065
-9.40772
-9.03866
-8.66522
-8.28927
-7.9127
-7.53744
-7.1654
-6.79845
-6.43837
-6.08682
-5.74535
-5.41528
-5.0978
-4.79386
-4.5042
-4.22933
-3.96954
-3.72493
-3.49534
-3.28046
-3.07978
-2.89263
-2.71819
-2.55553
-2.4036
-2.2613
-2.12744
-2.00084
-1.88029
-1.76463
-1.65276
-1.54368
-1.43651
-1.33056
-1.2253
-1.12052
-1.01604
-0.912299
-0.80917
-0.708397
-0.608212
-0.514674
-0.417328
-0.34049
-0.234928
-0.204796
-0.0340246
-0.172304
-14.2728
-14.2966
-14.3202
-14.3436
-14.3666
-14.3893
-14.4119
-14.4343
-14.4568
-14.4793
-14.5018
-14.5241
-14.546
-14.5671
-14.587
-14.6053
-14.6214
-14.6348
-14.645
-14.6513
-14.6533
-14.6503
-14.6418
-14.6272
-14.6061
-14.5778
-14.5417
-14.4974
-14.4443
-14.3816
-14.309
-14.2257
-14.1311
-14.0247
-13.9058
-13.7741
-13.6288
-13.4696
-13.296
-13.1077
-12.9045
-12.6862
-12.4527
-12.2041
-11.9406
-11.6626
-11.3706
-11.0653
-10.7474
-10.418
-10.0783
-9.72949
-9.37313
-9.01079
-8.64413
-8.27494
-7.90503
-7.53625
-7.17043
-6.80935
-6.45473
-6.10818
-5.77117
-5.44501
-5.13084
-4.82959
-4.54201
-4.26861
-4.0097
-3.76539
-3.53558
-3.31999
-3.11815
-2.92946
-2.75315
-2.58834
-2.43408
-2.28929
-2.15289
-2.02374
-1.9007
-1.78268
-1.66862
-1.55756
-1.44868
-1.3413
-1.23492
-1.12929
-1.02422
-0.920132
-0.816806
-0.715942
-0.615647
-0.52198
-0.42424
-0.346983
-0.240363
-0.209512
-0.0367074
-0.174308
-14.2575
-14.2799
-14.3022
-14.3242
-14.3459
-14.3673
-14.3885
-14.4095
-14.4303
-14.451
-14.4714
-14.4914
-14.5107
-14.5291
-14.5462
-14.5614
-14.5745
-14.5848
-14.5918
-14.595
-14.5938
-14.5878
-14.5763
-14.5589
-14.535
-14.504
-14.4655
-14.4188
-14.3634
-14.2987
-14.2241
-14.1391
-14.0431
-13.9355
-13.8159
-13.6835
-13.5381
-13.379
-13.206
-13.0188
-12.817
-12.6007
-12.3696
-12.1239
-11.8639
-11.5898
-11.3021
-11.0016
-10.6889
-10.3652
-10.0314
-9.68884
-9.33892
-8.98316
-8.62315
-8.26059
-7.89722
-7.5348
-7.17508
-6.81978
-6.47054
-6.12891
-5.79631
-5.47401
-5.16313
-4.86457
-4.57907
-4.30716
-4.04916
-3.8052
-3.57521
-3.35896
-3.15602
-2.96584
-2.78772
-2.62084
-2.4643
-2.31711
-2.17822
-2.04658
-1.92111
-1.80077
-1.68456
-1.57157
-1.46101
-1.35223
-1.24473
-1.13826
-1.03261
-0.92815
-0.824608
-0.723627
-0.623199
-0.529366
-0.431222
-0.353487
-0.245853
-0.214145
-0.0394959
-0.176054
-14.2419
-14.263
-14.2839
-14.3045
-14.3249
-14.345
-14.3648
-14.3842
-14.4034
-14.4222
-14.4405
-14.4582
-14.4751
-14.4908
-14.5051
-14.5175
-14.5275
-14.5348
-14.5387
-14.5389
-14.5347
-14.5257
-14.5114
-14.4911
-14.4645
-14.431
-14.3899
-14.3409
-14.2833
-14.2166
-14.1402
-14.0536
-13.9562
-13.8475
-13.727
-13.5942
-13.4486
-13.2898
-13.1174
-12.9312
-12.7309
-12.5165
-12.2878
-12.045
-11.7883
-11.518
-11.2347
-10.9389
-10.6314
-10.3131
-9.98517
-9.64872
-9.30511
-8.95579
-8.60229
-8.24623
-7.88926
-7.53307
-7.17934
-6.82971
-6.48576
-6.14898
-5.82073
-5.50225
-5.19462
-4.89874
-4.61534
-4.34493
-4.08786
-3.84428
-3.61416
-3.3973
-3.19332
-3.00172
-2.82186
-2.65297
-2.49422
-2.34468
-2.20338
-2.06931
-1.94147
-1.81886
-1.70056
-1.58568
-1.47348
-1.36332
-1.25471
-1.14741
-1.04118
-0.936343
-0.832569
-0.731447
-0.630867
-0.536835
-0.438279
-0.360012
-0.251396
-0.218712
-0.0423694
-0.177586
-14.226
-14.2458
-14.2654
-14.2847
-14.3037
-14.3224
-14.3407
-14.3585
-14.376
-14.3929
-14.4092
-14.4247
-14.4392
-14.4523
-14.4639
-14.4735
-14.4806
-14.485
-14.4859
-14.4831
-14.4761
-14.4642
-14.447
-14.424
-14.3948
-14.3587
-14.3152
-14.2639
-14.2042
-14.1355
-14.0573
-13.9692
-13.8705
-13.7607
-13.6395
-13.5062
-13.3604
-13.2019
-13.0301
-12.845
-12.6462
-12.4337
-12.2074
-11.9674
-11.714
-11.4475
-11.1684
-10.8772
-10.5748
-10.2619
-9.93966
-9.60917
-9.27173
-8.9287
-8.58156
-8.23185
-7.88115
-7.53106
-7.1832
-6.83913
-6.50037
-6.16835
-5.84439
-5.52968
-5.22528
-4.93206
-4.65074
-4.38185
-4.12574
-3.88258
-3.65237
-3.43495
-3.22999
-3.03704
-2.85549
-2.68467
-2.52378
-2.37196
-2.22831
-2.09188
-1.96173
-1.83692
-1.71657
-1.59986
-1.48605
-1.37454
-1.26486
-1.15674
-1.04992
-0.944698
-0.840682
-0.739399
-0.63865
-0.544388
-0.445412
-0.366565
-0.256994
-0.223229
-0.0453084
-0.178946
-14.2099
-14.2284
-14.2466
-14.2646
-14.2822
-14.2995
-14.3163
-14.3326
-14.3483
-14.3633
-14.3776
-14.3909
-14.403
-14.4137
-14.4227
-14.4295
-14.4339
-14.4354
-14.4335
-14.4279
-14.4179
-14.4033
-14.3833
-14.3577
-14.3259
-14.2873
-14.2415
-14.1879
-14.1261
-14.0555
-13.9757