/*--------------------------------*- C++ -*----------------------------------*\
| =========                 |                                                 |
| \\      /  F ield         | OpenFOAM: The Open Source CFD Toolbox           |
|  \\    /   O peration     | Version:  2.1.1                                 |
|   \\  /    A nd           | Web:      www.OpenFOAM.org                      |
|    \\/     M anipulation  |                                                 |
\*---------------------------------------------------------------------------*/
FoamFile
{
    version     2.0;
    format      ascii;
    class       surfaceScalarField;
    location    "0.15";
    object      phi;
}
// * * * * * * * * * * * * * * * * * * * * * * * * * * * * * * * * * * * * * //

dimensions      [0 3 -1 0 0 0 0];

internalField   nonuniform List<scalar> 
13452
(
6.89923e-05
-5.05015e-07
6.88135e-05
1.78794e-07
6.8202e-05
6.11496e-07
6.72544e-05
9.47567e-07
6.61777e-05
1.07675e-06
6.50859e-05
1.09175e-06
6.40209e-05
1.06499e-06
6.3e-05
1.02092e-06
6.20315e-05
9.68482e-07
6.11189e-05
9.12587e-07
6.02633e-05
8.55648e-07
5.94642e-05
7.99117e-07
5.87202e-05
7.4394e-07
5.80295e-05
6.9078e-07
5.73894e-05
6.40086e-07
5.67972e-05
5.92138e-07
5.62501e-05
5.47091e-07
5.57451e-05
5.05003e-07
5.52793e-05
4.65857e-07
5.48497e-05
4.2959e-07
5.44536e-05
3.96105e-07
5.40883e-05
3.65296e-07
5.37512e-05
3.37065e-07
5.34399e-05
3.11341e-07
5.31518e-05
2.88121e-07
5.28843e-05
2.67516e-07
5.26344e-05
2.49864e-07
5.23984e-05
2.36032e-07
5.21707e-05
2.27625e-07
5.1941e-05
2.29765e-07
5.16905e-05
2.50428e-07
5.13701e-05
3.20459e-07
5.06612e-07
5.08635e-05
7.01649e-05
-2.26015e-07
7.00411e-05
3.02638e-07
7.01817e-05
4.70902e-07
7.0509e-05
6.20306e-07
7.08594e-05
7.26303e-07
7.11582e-05
7.92918e-07
7.13828e-05
8.40405e-07
7.15348e-05
8.68908e-07
7.16222e-05
8.81124e-07
7.16537e-05
8.81031e-07
7.16378e-05
8.71577e-07
7.15818e-05
8.5509e-07
7.14924e-05
8.33376e-07
7.13753e-05
8.07904e-07
7.12355e-05
7.79847e-07
7.10775e-05
7.50145e-07
7.09051e-05
7.19547e-07
7.07214e-05
6.88642e-07
7.05294e-05
6.57888e-07
7.03313e-05
6.27639e-07
7.01293e-05
5.98166e-07
6.99249e-05
5.69685e-07
6.97196e-05
5.42376e-07
6.95145e-05
5.16411e-07
6.93106e-05
4.91999e-07
6.91087e-05
4.69405e-07
6.89095e-05
4.4913e-07
6.87137e-05
4.31789e-07
6.85222e-05
4.19142e-07
6.83399e-05
4.12034e-07
6.81727e-05
4.17704e-07
6.80682e-05
4.24923e-07
4.61155e-07
6.81137e-05
7.22816e-05
-5.10849e-08
7.23967e-05
1.87506e-07
7.25015e-05
3.66098e-07
7.2588e-05
5.33805e-07
7.26713e-05
6.43038e-07
7.27533e-05
7.10899e-07
7.28395e-05
7.54265e-07
7.29262e-05
7.82193e-07
7.30094e-05
7.97857e-07
7.30867e-05
8.03809e-07
7.31562e-05
8.02003e-07
7.32173e-05
7.94011e-07
7.32696e-05
7.81113e-07
7.33131e-05
7.64426e-07
7.3348e-05
7.44894e-07
7.33749e-05
7.23304e-07
7.33941e-05
7.00311e-07
7.34063e-05
6.7645e-07
7.3412e-05
6.52156e-07
7.34119e-05
6.2778e-07
7.34064e-05
6.0361e-07
7.33962e-05
5.79886e-07
7.33818e-05
5.56825e-07
7.33636e-05
5.34636e-07
7.3342e-05
5.13565e-07
7.33175e-05
4.93906e-07
7.32905e-05
4.76142e-07
7.32615e-05
4.60795e-07
7.32314e-05
4.49201e-07
7.32019e-05
4.41515e-07
7.31771e-05
4.42502e-07
7.31594e-05
4.42617e-07
4.67474e-07
7.31531e-05
7.45185e-05
-4.29385e-08
7.44881e-05
2.17882e-07
7.44766e-05
3.77605e-07
7.45161e-05
4.94299e-07
7.45763e-05
5.82836e-07
7.46426e-05
6.44644e-07
7.47083e-05
6.88495e-07
7.47721e-05
7.18447e-07
7.48335e-05
7.36453e-07
7.48924e-05
7.44882e-07
7.49486e-05
7.45759e-07
7.5002e-05
7.40643e-07
7.50524e-05
7.30778e-07
7.50996e-05
7.17225e-07
7.51436e-05
7.00861e-07
7.51845e-05
6.82415e-07
7.52223e-05
6.62488e-07
7.52572e-05
6.41577e-07
7.52892e-05
6.20088e-07
7.53187e-05
5.98353e-07
7.53456e-05
5.76648e-07
7.53703e-05
5.55208e-07
7.53929e-05
5.34248e-07
7.54135e-05
5.13973e-07
7.54325e-05
4.94618e-07
7.545e-05
4.76445e-07
7.54663e-05
4.59847e-07
7.54819e-05
4.45187e-07
7.54978e-05
4.33265e-07
7.55154e-05
4.2392e-07
7.55391e-05
4.1883e-07
7.55697e-05
4.11961e-07
4.07483e-07
7.56297e-05
7.66035e-05
9.37417e-09
7.66282e-05
1.93241e-07
7.66646e-05
3.41234e-07
7.67026e-05
4.56231e-07
7.67409e-05
5.44545e-07
7.67804e-05
6.05204e-07
7.68222e-05
6.46666e-07
7.6866e-05
6.74644e-07
7.69107e-05
6.91738e-07
7.69555e-05
7.00097e-07
7.69998e-05
7.01487e-07
7.70431e-05
6.9728e-07
7.70853e-05
6.88598e-07
7.71261e-05
6.76401e-07
7.71655e-05
6.61494e-07
7.72034e-05
6.44551e-07
7.72397e-05
6.26133e-07
7.72746e-05
6.06703e-07
7.7308e-05
5.86643e-07
7.73401e-05
5.66269e-07
7.73709e-05
5.45843e-07
7.74005e-05
5.2559e-07
7.74291e-05
5.05711e-07
7.74566e-05
4.86398e-07
7.74834e-05
4.67856e-07
7.75096e-05
4.50299e-07
7.75354e-05
4.34004e-07
7.75614e-05
4.19178e-07
7.75885e-05
4.06203e-07
7.76177e-05
3.94688e-07
7.76516e-05
3.84966e-07
7.76906e-05
3.72944e-07
3.59525e-07
7.77385e-05
7.88312e-05
2.41347e-08
7.88388e-05
1.8564e-07
7.88569e-05
3.23135e-07
7.88857e-05
4.27434e-07
7.89219e-05
5.08292e-07
7.8961e-05
5.66121e-07
7.9001e-05
6.06638e-07
7.90413e-05
6.34361e-07
7.90815e-05
6.51583e-07
7.91213e-05
6.6028e-07
7.91606e-05
6.62174e-07
7.91992e-05
6.5862e-07
7.92371e-05
6.50717e-07
7.92741e-05
6.39389e-07
7.93102e-05
6.25409e-07
7.93454e-05
6.09419e-07
7.93795e-05
5.91955e-07
7.94128e-05
5.73456e-07
7.94451e-05
5.5429e-07
7.94766e-05
5.34755e-07
7.95074e-05
5.15103e-07
7.95374e-05
4.95548e-07
7.95669e-05
4.76276e-07
7.95958e-05
4.5746e-07
7.96244e-05
4.39267e-07
7.96528e-05
4.21856e-07
7.96814e-05
4.05396e-07
7.97107e-05
3.89965e-07
7.97412e-05
3.75645e-07
7.97739e-05
3.6196e-07
7.98104e-05
3.48555e-07
7.98505e-05
3.32766e-07
3.13863e-07
7.98962e-05
8.10847e-05
3.79476e-08
8.10947e-05
1.75671e-07
8.11181e-05
2.9969e-07
8.11488e-05
3.96798e-07
8.11834e-05
4.73678e-07
8.12193e-05
5.30188e-07
8.12559e-05
5.70105e-07
8.12928e-05
5.97436e-07
8.13298e-05
6.14567e-07
8.13667e-05
6.23432e-07
8.14031e-05
6.25685e-07
8.14391e-05
6.22634e-07
8.14745e-05
6.15338e-07
8.15092e-05
6.04685e-07
8.15432e-05
5.91415e-07
8.15765e-05
5.76147e-07
8.1609e-05
5.59393e-07
8.16409e-05
5.41578e-07
8.16722e-05
5.23052e-07
8.17028e-05
5.04105e-07
8.17329e-05
4.84977e-07
8.17626e-05
4.65867e-07
8.17919e-05
4.46949e-07
8.1821e-05
4.28371e-07
8.185e-05
4.10266e-07
8.18791e-05
3.92739e-07
8.19087e-05
3.75873e-07
8.1939e-05
3.59647e-07
8.19707e-05
3.4397e-07
8.20043e-05
3.28354e-07
8.20406e-05
3.12231e-07
8.20795e-05
2.93858e-07
2.72328e-07
8.2121e-05
8.34101e-05
4.34102e-08
8.342e-05
1.65752e-07
8.34408e-05
2.78879e-07
8.34683e-05
3.69291e-07
8.35006e-05
4.41344e-07
8.35354e-05
4.95453e-07
8.35712e-05
5.34313e-07
8.36074e-05
5.61234e-07
8.36435e-05
5.78397e-07
8.36794e-05
5.8756e-07
8.37148e-05
5.90262e-07
8.37497e-05
5.87756e-07
8.3784e-05
5.81068e-07
8.38176e-05
5.71056e-07
8.38506e-05
5.5844e-07
8.38829e-05
5.43817e-07
8.39146e-05
5.27683e-07
8.39458e-05
5.1045e-07
8.39764e-05
4.92457e-07
8.40065e-05
4.73982e-07
8.40362e-05
4.55255e-07
8.40656e-05
4.36466e-07
8.40948e-05
4.17769e-07
8.41239e-05
3.99293e-07
8.4153e-05
3.81138e-07
8.41824e-05
3.63366e-07
8.42122e-05
3.45995e-07
8.42429e-05
3.28946e-07
8.42749e-05
3.1204e-07
8.43084e-05
2.94831e-07
8.43439e-05
2.76748e-07
8.43811e-05
2.56656e-07
2.33833e-07
8.44196e-05
8.57963e-05
4.58106e-08
8.58062e-05
1.55915e-07
8.58264e-05
2.58671e-07
8.58531e-05
3.4256e-07
8.58844e-05
4.10056e-07
8.59181e-05
4.61732e-07
8.5953e-05
4.99441e-07
8.59884e-05
5.2584e-07
8.60239e-05
5.42911e-07
8.60591e-05
5.52275e-07
8.6094e-05
5.55362e-07
8.61284e-05
5.5336e-07
8.61623e-05
5.47249e-07
8.61955e-05
5.37852e-07
8.6228e-05
5.2586e-07
8.626e-05
5.11849e-07
8.62914e-05
4.96299e-07
8.63222e-05
4.79605e-07
8.63526e-05
4.62097e-07
8.63825e-05
4.44042e-07
8.64121e-05
4.2566e-07
8.64415e-05
4.07129e-07
8.64707e-05
3.8859e-07
8.64998e-05
3.70151e-07
8.6529e-05
3.51887e-07
8.65586e-05
3.33826e-07
8.65886e-05
3.15948e-07
8.66194e-05
2.98142e-07
8.66513e-05
2.80206e-07
8.66843e-05
2.61759e-07
8.67188e-05
2.42323e-07
8.67543e-05
2.21165e-07
1.97811e-07
8.67903e-05
8.82501e-05
4.57419e-08
8.82601e-05
1.45897e-07
8.82793e-05
2.39425e-07
8.83047e-05
3.17184e-07
8.83345e-05
3.80232e-07
8.83671e-05
4.29186e-07
8.84011e-05
4.65409e-07
8.84359e-05
4.91037e-07
8.8471e-05
5.07837e-07
8.8506e-05
5.17278e-07
8.85407e-05
5.20665e-07
8.85749e-05
5.19106e-07
8.86087e-05
5.13527e-07
8.86418e-05
5.04709e-07
8.86744e-05
4.93312e-07
8.87063e-05
4.79887e-07
8.87377e-05
4.64895e-07
8.87686e-05
4.48719e-07
8.8799e-05
4.31672e-07
8.88291e-05
4.14014e-07
8.88588e-05
3.95953e-07
8.88882e-05
3.77655e-07
8.89176e-05
3.5925e-07
8.89469e-05
3.40829e-07
8.89763e-05
3.22446e-07
8.90061e-05
3.04112e-07
8.90362e-05
2.85783e-07
8.9067e-05
2.67344e-07
8.90986e-05
2.48601e-07
8.91311e-05
2.29252e-07
8.91645e-05
2.0893e-07
8.91985e-05
1.87174e-07
1.63714e-07
8.92326e-05
9.07728e-05
4.42959e-08
9.07827e-05
1.35908e-07
9.08011e-05
2.21081e-07
9.08254e-05
2.92914e-07
9.0854e-05
3.51591e-07
9.08855e-05
3.97678e-07
9.09187e-05
4.32209e-07
9.09529e-05
4.56881e-07
9.09875e-05
4.73239e-07
9.10221e-05
4.82605e-07
9.10566e-05
4.86166e-07
9.10908e-05
4.84947e-07
9.11245e-05
4.79817e-07
9.11577e-05
4.71513e-07
9.11903e-05
4.60659e-07
9.12225e-05
4.4778e-07
9.1254e-05
4.33315e-07
9.12851e-05
4.1763e-07
9.13158e-05
4.01025e-07
9.1346e-05
3.83748e-07
9.1376e-05
3.65995e-07
9.14057e-05
3.47923e-07
9.14353e-05
3.29649e-07
9.14649e-05
3.11253e-07
9.14946e-05
2.92777e-07
9.15245e-05
2.74218e-07
9.15547e-05
2.5553e-07
9.15855e-05
2.36604e-07
9.16168e-05
2.17278e-07
9.16487e-05
1.97322e-07
9.16812e-05
1.76477e-07
9.17139e-05
1.54462e-07
1.31154e-07
9.17464e-05
9.33669e-05
4.20176e-08
9.33769e-05
1.25973e-07
9.33944e-05
2.03558e-07
9.34176e-05
2.69712e-07
9.34451e-05
3.24123e-07
9.34755e-05
3.67247e-07
9.35078e-05
3.99894e-07
9.35413e-05
4.23417e-07
9.35754e-05
4.39154e-07
9.36097e-05
4.48287e-07
9.36439e-05
4.51888e-07
9.3678e-05
4.50898e-07
9.37117e-05
4.46124e-07
9.37449e-05
4.38257e-07
9.37777e-05
4.27882e-07
9.381e-05
4.15498e-07
9.38418e-05
4.01519e-07
9.38731e-05
3.86294e-07
9.39041e-05
3.70107e-07
9.39346e-05
3.53194e-07
9.39649e-05
3.35742e-07
9.39949e-05
3.17895e-07
9.40248e-05
2.99762e-07
9.40546e-05
2.81414e-07
9.40845e-05
2.62886e-07
9.41146e-05
2.44173e-07
9.41449e-05
2.25231e-07
9.41755e-05
2.05972e-07
9.42065e-05
1.86269e-07
9.42379e-05
1.65957e-07
9.42695e-05
1.44867e-07
9.43011e-05
1.22838e-07
9.98407e-08
9.43324e-05
9.60348e-05
3.92886e-08
9.60446e-05
1.16178e-07
9.60614e-05
1.86805e-07
9.60836e-05
2.47504e-07
9.611e-05
2.97736e-07
9.61394e-05
3.37834e-07
9.61708e-05
3.68449e-07
9.62036e-05
3.90665e-07
9.62371e-05
4.05625e-07
9.6271e-05
4.1438e-07
9.6305e-05
4.17891e-07
9.63389e-05
4.17016e-07
9.63725e-05
4.125e-07
9.64058e-05
4.04986e-07
9.64386e-05
3.95022e-07
9.64711e-05
3.83074e-07
9.6503e-05
3.69536e-07
9.65346e-05
3.54734e-07
9.65658e-05
3.38941e-07
9.65966e-05
3.22376e-07
9.66271e-05
3.05216e-07
9.66574e-05
2.87598e-07
9.66876e-05
2.69622e-07
9.67176e-05
2.51355e-07
9.67477e-05
2.32827e-07
9.67778e-05
2.14038e-07
9.68081e-05
1.94953e-07
9.68385e-05
1.75507e-07
9.68692e-05
1.55608e-07
9.69e-05
1.35149e-07
9.69309e-05
1.14027e-07
9.69615e-05
9.21622e-08
6.95814e-08
9.69918e-05
9.87787e-05
3.63367e-08
9.87883e-05
1.06575e-07
9.88043e-05
1.70753e-07
9.88256e-05
2.26216e-07
9.8851e-05
2.72359e-07
9.88794e-05
3.09402e-07
9.891e-05
3.37871e-07
9.8942e-05
3.5864e-07
9.8975e-05
3.72683e-07
9.90084e-05
3.80923e-07
9.90421e-05
3.84219e-07
9.90758e-05
3.8335e-07
9.91093e-05
3.78997e-07
9.91425e-05
3.71754e-07
9.91754e-05
3.62131e-07
9.92079e-05
3.50563e-07
9.924e-05
3.37419e-07
9.92717e-05
3.23007e-07
9.93031e-05
3.0758e-07
9.93341e-05
2.91349e-07
9.93649e-05
2.74478e-07
9.93954e-05
2.57098e-07
9.94257e-05
2.39301e-07
9.94559e-05
2.21152e-07
9.9486e-05
2.02683e-07
9.95162e-05
1.83899e-07
9.95464e-05
1.64779e-07
9.95766e-05
1.45279e-07
9.96068e-05
1.25343e-07
9.96371e-05
1.04906e-07
9.96672e-05
8.39167e-08
9.9697e-05
6.23461e-08
4.02544e-08
9.97263e-05
0.000101601
3.33019e-08
0.00010161
9.72066e-08
0.000101626
1.55349e-07
0.000101646
2.05783e-07
0.00010167
2.47923e-07
0.000101698
2.81898e-07
0.000101728
3.08133e-07
0.000101759
3.27339e-07
0.000101791
3.40339e-07
0.000101824
3.47942e-07
0.000101858
3.50911e-07
0.000101891
3.49944e-07
0.000101924
3.45664e-07
0.000101957
3.38614e-07
0.00010199
3.29266e-07
0.000102023
3.18024e-07
0.000102055
3.05231e-07
0.000102087
2.91174e-07
0.000102118
2.76094e-07
0.00010215
2.60185e-07
0.00010218
2.43605e-07
0.000102211
2.26475e-07
0.000102241
2.08885e-07
0.000102272
1.90897e-07
0.000102302
1.72548e-07
0.000102332
1.5385e-07
0.000102362
1.34796e-07
0.000102392
1.15364e-07
0.000102422
9.5525e-08
0.000102451
7.52489e-08
0.000102481
5.45201e-08
0.00010251
3.33425e-08
1.17935e-08
0.000102538
0.000104503
3.02657e-08
0.000104513
8.80982e-08
0.000104527
1.40542e-07
0.000104547
1.86138e-07
0.000104571
2.24359e-07
0.000104597
2.55267e-07
0.000104626
2.79204e-07
0.000104657
2.9675e-07
0.000104688
3.08599e-07
0.000104721
3.15455e-07
0.000104754
3.17991e-07
0.000104787
3.16832e-07
0.00010482
3.12539e-07
0.000104853
3.0561e-07
0.000104886
2.96476e-07
0.000104918
2.85509e-07
0.000104951
2.73029e-07
0.000104982
2.59301e-07
0.000105014
2.4455e-07
0.000105045
2.28959e-07
0.000105076
2.12674e-07
0.000105107
1.95813e-07
0.000105137
1.78461e-07
0.000105167
1.60683e-07
0.000105198
1.42516e-07
0.000105227
1.23984e-07
0.000105257
1.05091e-07
0.000105287
8.58349e-08
0.000105316
6.62081e-08
0.000105345
4.62071e-08
0.000105374
2.58408e-08
0.000105402
5.13325e-09
-1.58303e-08
0.000105429
0.000107489
2.72744e-08
0.000107498
7.92627e-08
0.000107512
1.26288e-07
0.000107531
1.67221e-07
0.000107554
2.01605e-07
0.00010758
2.29457e-07
0.000107608
2.51048e-07
0.000107638
2.66853e-07
0.000107669
2.77457e-07
0.000107701
2.83468e-07
0.000107733
2.85477e-07
0.000107766
2.84039e-07
0.000107799
2.79657e-07
0.000107832
2.72782e-07
0.000107864
2.63806e-07
0.000107897
2.5307e-07
0.000107929
2.40868e-07
0.000107961
2.27447e-07
0.000107992
2.13014e-07
0.000108024
1.97739e-07
0.000108055
1.81762e-07
0.000108085
1.65193e-07
0.000108116
1.48117e-07
0.000108146
1.30596e-07
0.000108175
1.12676e-07
0.000108205
9.43855e-08
0.000108234
7.57424e-08
0.000108263
5.67585e-08
0.000108292
3.74442e-08
0.000108321
1.78142e-08
0.000108349
-2.10611e-09
0.000108376
-2.22802e-08
-4.26212e-08
0.000108403
0.00011056
2.43519e-08
0.000110568
7.07025e-08
0.000110582
1.12543e-07
0.0001106
1.48971e-07
0.000110622
1.796e-07
0.000110647
2.04412e-07
0.000110675
2.23623e-07
0.000110704
2.37623e-07
0.000110735
2.46902e-07
0.000110766
2.51982e-07
0.000110798
2.5338e-07
0.000110831
2.51585e-07
0.000110863
2.47044e-07
0.000110896
2.40162e-07
0.000110928
2.31295e-07
0.000110961
2.20752e-07
0.000110993
2.08801e-07
0.000111025
1.95669e-07
0.000111056
1.81547e-07
0.000111087
1.66594e-07
0.000111118
1.50941e-07
0.000111148
1.34692e-07
0.000111179
1.17931e-07
0.000111209
1.0072e-07
0.000111238
8.31093e-08
0.000111267
6.5134e-08
0.000111296
4.68221e-08
0.000111325
2.81973e-08
0.000111353
9.28266e-09
0.000111381
-9.89408e-09
0.000111408
-2.92971e-08
0.000111435
-4.88832e-08
-6.85667e-08
0.00011146
0.000113718
2.15093e-08
0.000113727
6.24124e-08
0.00011374
9.92685e-08
0.000113758
1.31336e-07
0.000113779
1.58284e-07
0.000113803
1.80079e-07
0.00011383
1.96887e-07
0.000113859
2.09029e-07
0.000113888
2.16915e-07
0.000113919
2.20991e-07
0.000113951
2.21703e-07
0.000113983
2.19481e-07
0.000114016
2.1472e-07
0.000114048
2.0778e-07
0.00011408
1.98978e-07
0.000114112
1.88596e-07
0.000114144
1.76873e-07
0.000114176
1.64019e-07
0.000114207
1.50208e-07
0.000114238
1.35587e-07
0.000114269
1.20279e-07
0.000114299
1.04382e-07
0.000114329
8.79777e-08
0.000114359
7.11298e-08
0.000114388
5.38901e-08
0.000114417
3.63003e-08
0.000114445
1.83956e-08
0.000114473
2.08982e-10
0.000114501
-1.82286e-08
0.000114528
-3.68796e-08
0.000114554
-5.57026e-08
0.00011458
-7.46512e-08
-9.36426e-08
0.000114605
0.000116967
1.87495e-08
0.000116975
5.43812e-08
0.000116988
8.64274e-08
0.000117005
1.14261e-07
0.000117026
1.37602e-07
0.000117049
1.56403e-07
0.000117076
1.70794e-07
0.000117103
1.81036e-07
0.000117133
1.87472e-07
0.000117163
1.9048e-07
0.000117195
1.90444e-07
0.000117226
1.87735e-07
0.000117258
1.82701e-07
0.000117291
1.75657e-07
0.000117323
1.66886e-07
0.000117355
1.56637e-07
0.000117386
1.45128e-07
0.000117418
1.32546e-07
0.000117449
1.1905e-07
0.00011748
1.04777e-07
0.00011751
8.98385e-08
0.00011754
7.43289e-08
0.00011757
5.8326e-08
0.000117599
4.18942e-08
0.000117628
2.50868e-08
0.000117656
7.94966e-09
0.000117684
-9.4766e-09
0.000117712
-2.71535e-08
0.000117738
-4.50427e-08
0.000117765
-6.31029e-08
0.00011779
-8.12887e-08
0.000117815
-9.95532e-08
-1.17817e-07
0.000117839
0.000120309
1.6071e-08
0.000120316
4.65944e-08
0.000120329
7.39834e-08
0.000120345
9.76979e-08
0.000120366
1.17497e-07
0.000120389
1.33329e-07
0.000120414
1.45294e-07
0.000120442
1.53604e-07
0.000120471
1.58543e-07
0.000120501
1.6043e-07
0.000120531
1.59592e-07
0.000120563
1.56347e-07
0.000120595
1.50994e-07
0.000120626
1.4381e-07
0.000120658
1.35041e-07
0.00012069
1.24908e-07
0.000120721
1.13603e-07
0.000120753
1.01293e-07
0.000120784
8.81241e-08
0.000120814
7.42176e-08
0.000120844
5.96785e-08
0.000120874
4.45941e-08
0.000120903
2.90391e-08
0.000120932
1.3077e-08
0.000120961
-3.2381e-09
0.000120988
-1.98581e-08
0.000121016
-3.67389e-08
0.000121042
-5.38383e-08
0.000121068
-7.11142e-08
0.000121094
-8.8523e-08
0.000121119
-1.06018e-07
0.000121143
-1.23553e-07
-1.41053e-07
0.000121166
0.000123746
1.34698e-08
0.000123753
3.9035e-08
0.000123765
6.19018e-08
0.000123782
8.15979e-08
0.000123801
9.79155e-08
0.000123824
1.10804e-07
0.000123849
1.20338e-07
0.000123875
1.26689e-07
0.000123904
1.30093e-07
0.000123934
1.30815e-07
0.000123964
1.2913e-07
0.000123995
1.25307e-07
0.000124026
1.19601e-07
0.000124058
1.12248e-07
0.00012409
1.03461e-07
0.000124121
9.34326e-08
0.000124152
8.2329e-08
0.000124183
7.02993e-08
0.000124214
5.74722e-08
0.000124244
4.39577e-08
0.000124274
2.98509e-08
0.000124303
1.52324e-08
0.000124332
1.73268e-10
0.000124361
-1.52643e-08
0.000124388
-3.1028e-08
0.000124416
-4.70682e-08
0.000124442
-6.33394e-08
0.000124468
-7.97974e-08
0.000124493
-9.63987e-08
0.000124518
-1.13099e-07
0.000124542
-1.29851e-07
0.000124565
-1.46612e-07
-1.6331e-07
0.000124587
0.000127281
1.09404e-08
0.000127288
3.16845e-08
0.0001273
5.01475e-08
0.000127316
6.59121e-08
0.000127335
7.88004e-08
0.000127357
8.87653e-08
0.000127381
9.58662e-08
0.000127408
1.0024e-07
0.000127436
1.02077e-07
0.000127465
1.016e-07
0.000127495
9.90339e-08
0.000127526
9.46009e-08
0.000127557
8.85149e-08
0.000127588
8.09744e-08
0.00012762
7.21583e-08
0.000127651
6.22313e-08
0.000127682
5.1334e-08
0.000127713
3.95972e-08
0.000127743
2.71331e-08
0.000127773
1.40396e-08
0.000127802
4.03487e-10
0.000127831
-1.37064e-08
0.00012786
-2.82191e-08
0.000127887
-4.30784e-08
0.000127915
-5.82318e-08
0.000127941
-7.3631e-08
0.000127967
-8.92305e-08
0.000127992
-1.04986e-07
0.000128017
-1.20853e-07
0.00012804
-1.36789e-07
0.000128063
-1.52749e-07
0.000128085
-1.68689e-07
-1.84545e-07
0.000128107
0.000130917
8.4783e-09
0.000130925
2.45276e-08
0.000130936
3.86922e-08
0.000130951
5.06002e-08
0.00013097
6.01021e-08
0.000130992
6.71601e-08
0.000131016
7.18241e-08
0.000131042
7.41996e-08
0.000131069
7.44435e-08
0.000131098
7.27381e-08
0.000131128
6.92641e-08
0.000131158
6.41987e-08
0.000131189
5.77158e-08
0.00013122
4.99779e-08
0.000131251
4.11306e-08
0.000131282
3.131e-08
0.000131313
2.06289e-08
0.000131343
9.20675e-09
0.000131373
-2.86555e-09
0.000131403
-1.55024e-08
0.000131432
-2.86298e-08
0.00013146
-4.21813e-08
0.000131488
-5.60959e-08
0.000131515
-7.03201e-08
0.000131542
-8.48044e-08
0.000131568
-9.95022e-08
0.000131593
-1.14369e-07
0.000131617
-1.29362e-07
0.000131641
-1.44438e-07
0.000131664
-1.59556e-07
0.000131686
-1.74672e-07
0.000131707
-1.89747e-07
-2.04719e-07
0.000131727
0.000134658
6.07395e-09
0.000134665
1.75395e-08
0.000134676
2.74924e-08
0.000134691
3.56008e-08
0.000134709
4.17471e-08
0.00013473
4.59092e-08
0.000134754
4.81371e-08
0.00013478
4.85045e-08
0.000134807
4.71372e-08
0.000134836
4.41848e-08
0.000134865
3.97848e-08
0.000134895
3.40732e-08
0.000134926
2.71868e-08
0.000134956
1.92497e-08
0.000134987
1.03735e-08
0.000135018
6.83661e-10
0.000135048
-9.76903e-09
0.000135078
-2.08503e-08
0.000135108
-3.24991e-08
0.000135137
-4.46413e-08
0.000135166
-5.72131e-08
0.000135194
-7.01572e-08
0.000135221
-8.34201e-08
0.000135248
-9.69524e-08
0.000135273
-1.10708e-07
0.000135299
-1.24644e-07
0.000135323
-1.38718e-07
0.000135346
-1.52889e-07
0.000135369
-1.67117e-07
0.000135391
-1.81362e-07
0.000135412
-1.95583e-07
0.000135432
-2.09745e-07
-2.2379e-07
0.000135451
0.000138505
3.73901e-09
0.000138511
1.07359e-08
0.000138522
1.65599e-08
0.000138537
2.0911e-08
0.000138555
2.37108e-08
0.000138576
2.49667e-08
0.000138599
2.47337e-08
0.000138625
2.30539e-08
0.000138652
2.00497e-08
0.00013868
1.58407e-08
0.00013871
1.05099e-08
0.000138739
4.14541e-09
0.00013877
-3.14318e-09
0.0001388
-1.1258e-08
0.000138831
-2.01412e-08
0.000138861
-2.97016e-08
0.000138891
-3.98743e-08
0.000138921
-5.05804e-08
0.00013895
-6.1762e-08
0.000138979
-7.33623e-08
0.000139007
-8.53283e-08
0.000139035
-9.7611e-08
0.000139061
-1.10164e-07
0.000139087
-1.22945e-07
0.000139113
-1.35912e-07
0.000139137
-1.49024e-07
0.00013916
-1.62245e-07
0.000139183
-1.75535e-07
0.000139205
-1.88857e-07
0.000139226
-2.02174e-07
0.000139245
-2.15451e-07
0.000139264
-2.28652e-07
-2.41726e-07
0.000139282
0.000142462
1.41621e-09
0.000142468
4.02545e-09
0.000142479
5.77303e-09
0.000142494
6.39479e-09
0.000142511
5.85745e-09
0.000142532
4.21185e-09
0.000142555
1.57248e-09
0.000142581
-2.15362e-09
0.000142607
-6.83114e-09
0.000142636
-1.23146e-08
0.000142665
-1.85848e-08
0.000142694
-2.5585e-08
0.000142725
-3.32597e-08
0.000142755
-4.15558e-08
0.000142785
-5.04273e-08
0.000142815
-5.98183e-08
0.000142845
-6.96839e-08
0.000142874
-7.99751e-08
0.000142903
-9.06469e-08
0.000142932
-1.01657e-07
0.000142959
-1.12964e-07
0.000142986
-1.24528e-07
0.000143012
-1.36313e-07
0.000143038
-1.48281e-07
0.000143062
-1.60397e-07
0.000143086
-1.72625e-07
0.000143108
-1.8493e-07
0.00014313
-1.97279e-07
0.000143151
-2.09638e-07
0.000143171
-2.21972e-07
0.00014319
-2.34249e-07
0.000143207
-2.46437e-07
-2.58491e-07
0.000143224
0.000146531
-7.0772e-10
0.000146538
-2.33588e-09
0.000146548
-4.62287e-09
0.000146562
-7.7907e-09
0.00014658
-1.17637e-08
0.000146601
-1.64256e-08
0.000146624
-2.16803e-08
0.000146649
-2.74914e-08
0.000146676
-3.379e-08
0.000146704
-4.0532e-08
0.000146734
-4.77154e-08
0.000146763
-5.53287e-08
0.000146793
-6.33564e-08
0.000146824
-7.17817e-08
0.000146854
-8.05888e-08
0.000146884
-8.97561e-08
0.000146913
-9.92613e-08
0.000146942
-1.09078e-07
0.000146971
-1.19177e-07
0.000146999
-1.29533e-07
0.000147026
-1.40117e-07
0.000147052
-1.50898e-07
0.000147078
-1.61849e-07
0.000147103
-1.72939e-07
0.000147126
-1.84138e-07
0.000147149
-1.95417e-07
0.000147171
-2.06744e-07
0.000147192
-2.18092e-07
0.000147211
-2.29428e-07
0.00014723
-2.40724e-07
0.000147248
-2.51949e-07
0.000147265
-2.63078e-07
-2.74067e-07
0.00014728
0.000150718
-3.17123e-09
0.000150725
-8.94701e-09
0.000150735
-1.51426e-08
0.000150749
-2.19634e-08
0.000150767
-2.92741e-08
0.000150787
-3.68983e-08
0.00015081
-4.46942e-08
0.000150836
-5.25972e-08
0.000150862
-6.05722e-08
0.00015089
-6.86086e-08
0.000150919
-7.67284e-08
0.000150949
-8.49617e-08
0.000150979
-9.33358e-08
0.000151009
-1.01874e-07
0.000151039
-1.10593e-07
0.000151069
-1.19503e-07
0.000151098
-1.28607e-07
0.000151127
-1.37901e-07
0.000151155
-1.47376e-07
0.000151183
-1.57021e-07
0.000151209
-1.6682e-07
0.000151235
-1.76755e-07
0.00015126
-1.86806e-07
0.000151284
-1.96951e-07
0.000151307
-2.07167e-07
0.000151329
-2.1743e-07
0.00015135
-2.27715e-07
0.00015137
-2.37996e-07
0.000151389
-2.48248e-07
0.000151407
-2.58445e-07
0.000151423
-2.6856e-07
0.000151439
-2.78571e-07
-2.88439e-07
0.000151453
0.000155023
-4.44002e-09
0.000155028
-1.42198e-08
0.000155038
-2.46964e-08
0.000155052
-3.58178e-08
0.000155069
-4.70467e-08
0.00015509
-5.80171e-08
0.000155114
-6.8549e-08
0.00015514
-7.8601e-08
0.000155168
-8.82035e-08
0.000155197
-9.7422e-08
0.000155226
-1.06344e-07
0.000155256
-1.15058e-07
0.000155287
-1.23643e-07
0.000155317
-1.32164e-07
0.000155347
-1.40675e-07
0.000155377
-1.49216e-07
0.000155406
-1.57815e-07
0.000155435
-1.6649e-07
0.000155463
-1.7525e-07
0.00015549
-1.84099e-07
0.000155516
-1.93032e-07
0.000155541
-2.02042e-07
0.000155565
-2.11118e-07
0.000155589
-2.20246e-07
0.000155611
-2.2941e-07
0.000155632
-2.3859e-07
0.000155652
-2.47767e-07
0.000155671
-2.56921e-07
0.000155689
-2.6603e-07
0.000155706
-2.75073e-07
0.000155721
-2.84028e-07
0.000155735
-2.92875e-07
-3.0158e-07
0.000155748
0.000159454
-8.31362e-09
0.000159462
-2.1304e-08
0.000159472
-3.49701e-08
0.000159485
-4.93196e-08
0.000159502
-6.38707e-08
0.000159522
-7.8026e-08
0.000159545
-9.1381e-08
0.00015957
-1.03779e-07
0.000159597
-1.15233e-07
0.000159626
-1.25837e-07
0.000159655
-1.35726e-07
0.000159685
-1.45042e-07
0.000159715
-1.53915e-07
0.000159746
-1.6246e-07
0.000159776
-1.70773e-07
0.000159805
-1.78931e-07
0.000159835
-1.86992e-07
0.000159863
-1.95e-07
0.000159891
-2.02985e-07
0.000159918
-2.1097e-07
0.000159944
-2.18964e-07
0.000159969
-2.26973e-07
0.000159992
-2.34997e-07
0.000160015
-2.43029e-07
0.000160037
-2.5106e-07
0.000160057
-2.5908e-07
0.000160077
-2.67074e-07
0.000160095
-2.75026e-07
0.000160112
-2.8292e-07
0.000160127
-2.90739e-07
0.000160142
-2.98464e-07
0.000160155
-3.06078e-07
-3.13553e-07
0.000160167
0.000164003
-5.67688e-09
0.000164005
-2.30958e-08
0.000164013
-4.31273e-08
0.000164028
-6.38619e-08
0.000164048
-8.36193e-08
0.000164071
-1.01646e-07
0.000164098
-1.1778e-07
0.000164126
-1.32131e-07
0.000164156
-1.44911e-07
0.000164186
-1.56358e-07
0.000164217
-1.66706e-07
0.000164248
-1.76175e-07
0.000164279
-1.84958e-07
0.00016431
-1.93213e-07
0.00016434
-2.01069e-07
0.00016437
-2.08631e-07
0.000164399
-2.1598e-07
0.000164427
-2.23176e-07
0.000164455
-2.30265e-07
0.000164481
-2.37282e-07
0.000164506
-2.44247e-07
0.00016453
-2.51174e-07
0.000164554
-2.58072e-07
0.000164575
-2.64941e-07
0.000164596
-2.71778e-07
0.000164616
-2.78579e-07
0.000164634
-2.85334e-07
0.000164651
-2.92033e-07
0.000164667
-2.98663e-07
0.000164681
-3.05212e-07
0.000164694
-3.11665e-07
0.000164706
-3.18011e-07
-3.24223e-07
0.000164717
0.000168701
-1.51241e-08
0.000168709
-3.1167e-08
0.000168717
-5.08645e-08
0.000168727
-7.34953e-08
0.00016874
-9.72438e-08
0.000168758
-1.19803e-07
0.000168781
-1.39976e-07
0.000168806
-1.57554e-07
0.000168834
-1.72756e-07
0.000168863
-1.85913e-07
0.000168894
-1.9737e-07
0.000168925
-2.07452e-07
0.000168957
-2.16444e-07
0.000168988
-2.24584e-07
0.000169019
-2.32066e-07
0.00016905
-2.39047e-07
0.000169079
-2.45648e-07
0.000169108
-2.51963e-07
0.000169136
-2.58065e-07
0.000169163
-2.64007e-07
0.000169188
-2.69828e-07
0.000169213
-2.75555e-07
0.000169236
-2.81208e-07
0.000169258
-2.86797e-07
0.000169278
-2.92327e-07
0.000169297
-2.97799e-07
0.000169315
-3.0321e-07
0.000169332
-3.08555e-07
0.000169347
-3.13826e-07
0.000169361
-3.19015e-07
0.000169373
-3.24111e-07
0.000169384
-3.29104e-07
-3.33975e-07
0.000169394
0.000173491
4.98186e-09
0.000173485
-2.47926e-08
0.000173495
-6.05498e-08
0.000173516
-9.48852e-08
0.000173544
-1.2515e-07
0.000173575
-1.50789e-07
0.000173607
-1.72434e-07
0.00017364
-1.90665e-07
0.000173674
-2.06045e-07
0.000173707
-2.19072e-07
0.00017374
-2.30192e-07
0.000173772
-2.39792e-07
0.000173804
-2.48188e-07
0.000173835
-2.55634e-07
0.000173865
-2.62337e-07
0.000173894
-2.68459e-07
0.000173923
-2.74129e-07
0.00017395
-2.79447e-07
0.000173977
-2.84492e-07
0.000174002
-2.89324e-07
0.000174026
-2.93986e-07
0.000174049
-2.98512e-07
0.000174071
-3.02927e-07
0.000174091
-3.07246e-07
0.000174111
-3.11481e-07
0.000174128
-3.15636e-07
0.000174145
-3.19714e-07
0.00017416
-3.23714e-07
0.000174174
-3.27632e-07
0.000174186
-3.31464e-07
0.000174197
-3.35203e-07
0.000174207
-3.38844e-07
-3.42368e-07
0.000174216
0.000178498
-2.43787e-08
0.0001785
-2.71877e-08
0.000178489
-4.94594e-08
0.00017848
-8.61092e-08
0.000178483
-1.27477e-07
0.000178496
-1.64179e-07
0.000178518
-1.94119e-07
0.000178545
-2.17986e-07
0.000178576
-2.37105e-07
0.00017861
-2.52469e-07
0.000178644
-2.64879e-07
0.00017868
-2.75e-07
0.000178715
-2.83357e-07
0.000178749
-2.90361e-07
0.000178783
-2.96328e-07
0.000178816
-3.01502e-07
0.000178848
-3.0607e-07
0.000178879
-3.10173e-07
0.000178909
-3.1392e-07
0.000178937
-3.17391e-07
0.000178963
-3.20647e-07
0.000178988
-3.23735e-07
0.000179012
-3.26686e-07
0.000179035
-3.29524e-07
0.000179055
-3.32266e-07
0.000179075
-3.34923e-07
0.000179092
-3.37501e-07
0.000179109
-3.40003e-07
0.000179123
-3.4243e-07
0.000179137
-3.44781e-07
0.000179149
-3.47054e-07
0.000179159
-3.49245e-07
-3.51344e-07
0.000179168
0.000183487
5.64222e-08
0.000183465
-5.21066e-09
0.000183501
-8.53712e-08
0.000183552
-1.3806e-07
0.000183604
-1.78514e-07
0.000183649
-2.10017e-07
0.00018369
-2.35142e-07
0.000183728
-2.55716e-07
0.000183763
-2.72461e-07
0.000183797
-2.8607e-07
0.000183829
-2.97204e-07
0.000183861
-3.06372e-07
0.000183891
-3.13969e-07
0.000183921
-3.20311e-07
0.000183951
-3.2565e-07
0.000183979
-3.30183e-07
0.000184007
-3.34069e-07
0.000184035
-3.37432e-07
0.000184061
-3.4037e-07
0.000184087
-3.4296e-07
0.000184111
-3.45264e-07
0.000184135
-3.4733e-07
0.000184157
-3.49195e-07
0.000184179
-3.50889e-07
0.000184199
-3.52434e-07
0.000184218
-3.53848e-07
0.000184235
-3.55144e-07
0.000184252
-3.5633e-07
0.000184267
-3.57414e-07
0.00018428
-3.58397e-07
0.000184293
-3.59282e-07
0.000184303
-3.60068e-07
-3.60752e-07
0.000184313
0.000188861
7.5639e-09
0.000188796
5.98886e-08
0.00018871
2.88579e-10
0.000188646
-7.43111e-08
0.000188628
-1.6007e-07
0.000188641
-2.23462e-07
0.000188673
-2.67238e-07
0.000188716
-2.98346e-07
0.000188765
-3.21004e-07
0.000188816
-3.37799e-07
0.000188869
-3.5037e-07
0.000188923
-3.59839e-07
0.000188976
-3.67005e-07
0.000189028
-3.72436e-07
0.000189079
-3.76545e-07
0.000189128
-3.79633e-07
0.000189176
-3.81927e-07
0.000189222
-3.83593e-07
0.000189267