/*--------------------------------*- C++ -*----------------------------------*\
| =========                 |                                                 |
| \\      /  F ield         | OpenFOAM: The Open Source CFD Toolbox           |
|  \\    /   O peration     | Version:  2.1.1                                 |
|   \\  /    A nd           | Web:      www.OpenFOAM.org                      |
|    \\/     M anipulation  |                                                 |
\*---------------------------------------------------------------------------*/
FoamFile
{
    version     2.0;
    format      ascii;
    class       volVectorField;
    location    "0.15";
    object      U;
}
// * * * * * * * * * * * * * * * * * * * * * * * * * * * * * * * * * * * * * //

dimensions      [0 1 -1 0 0 0 0];

internalField   nonuniform List<vector> 
6820
(
(8.34337 -0.360077 0)
(8.4011 -0.247156 0)
(8.35611 -0.115297 0)
(8.24784 -0.0365635 0)
(8.11942 0.00599906 0)
(7.98602 0.0278573 0)
(7.85396 0.0386235 0)
(7.72662 0.0433196 0)
(7.60541 0.0445872 0)
(7.49088 0.0438831 0)
(7.38326 0.042049 0)
(7.28258 0.0395891 0)
(7.18872 0.0368147 0)
(7.10147 0.0339213 0)
(7.02056 0.0310325 0)
(6.94565 0.028226 0)
(6.8764 0.0255488 0)
(6.81246 0.0230279 0)
(6.75346 0.0206767 0)
(6.69904 0.0184998 0)
(6.64887 0.0164959 0)
(6.60261 0.0146609 0)
(6.55994 0.0129891 0)
(6.52055 0.0114759 0)
(6.48414 0.0101198 0)
(6.45041 0.00892632 0)
(6.41902 0.00791324 0)
(6.38956 0.00713238 0)
(6.36156 0.00668581 0)
(6.33409 0.00684432 0)
(6.30561 0.00842221 0)
(6.27303 0.0122167 0)
(6.22721 0.0292829 0)
(8.32139 0.16625 0)
(8.28709 0.19 0)
(8.28544 0.132151 0)
(8.31741 0.0958455 0)
(8.36171 0.0750046 0)
(8.40177 0.0623379 0)
(8.43287 0.0548498 0)
(8.45497 0.0503205 0)
(8.46892 0.0474087 0)
(8.47574 0.0454012 0)
(8.47646 0.0439027 0)
(8.47203 0.0426756 0)
(8.46327 0.0415807 0)
(8.45091 0.040541 0)
(8.43559 0.0395157 0)
(8.41787 0.0384859 0)
(8.39823 0.0374455 0)
(8.37709 0.0363951 0)
(8.3548 0.0353394 0)
(8.33167 0.0342847 0)
(8.30795 0.0332381 0)
(8.28387 0.0322078 0)
(8.2596 0.0312027 0)
(8.23529 0.030234 0)
(8.21108 0.0293173 0)
(8.18705 0.0284761 0)
(8.16332 0.0277521 0)
(8.1399 0.027218 0)
(8.11704 0.0270107 0)
(8.09451 0.0274562 0)
(8.07442 0.0289814 0)
(8.05428 0.0335788 0)
(8.05454 0.0413464 0)
(8.3225 -0.0608861 0)
(8.31398 -0.0832839 0)
(8.33051 -0.0541005 0)
(8.34434 -0.0203059 0)
(8.35322 0.00240058 0)
(8.36225 0.0165224 0)
(8.37199 0.0257564 0)
(8.38203 0.0319677 0)
(8.3919 0.03618 0)
(8.40119 0.0390384 0)
(8.40967 0.0409373 0)
(8.4172 0.0421209 0)
(8.42372 0.0427627 0)
(8.42923 0.0429938 0)
(8.43374 0.0429133 0)
(8.43728 0.0425975 0)
(8.43992 0.0421054 0)
(8.44171 0.0414834 0)
(8.44273 0.0407682 0)
(8.44304 0.0399887 0)
(8.44271 0.0391687 0)
(8.44179 0.0383278 0)
(8.44037 0.0374837 0)
(8.43848 0.0366536 0)
(8.43618 0.0358575 0)
(8.43352 0.0351195 0)
(8.43055 0.0344815 0)
(8.42731 0.0339863 0)
(8.4239 0.0337741 0)
(8.42038 0.0338181 0)
(8.41724 0.0347872 0)
(8.41447 0.0349298 0)
(8.41338 0.0380772 0)
(8.33365 0.014563 0)
(8.32977 0.0476972 0)
(8.32738 0.0539658 0)
(8.32872 0.0465499 0)
(8.33461 0.0410476 0)
(8.34215 0.038539 0)
(8.34966 0.0377227 0)
(8.3569 0.0376706 0)
(8.3639 0.0378815 0)
(8.37064 0.0381348 0)
(8.37709 0.0383318 0)
(8.38322 0.0384312 0)
(8.38902 0.0384232 0)
(8.39448 0.0383109 0)
(8.39958 0.0381024 0)
(8.40433 0.0378087 0)
(8.40873 0.0374415 0)
(8.41279 0.0370131 0)
(8.41653 0.0365353 0)
(8.41997 0.0360193 0)
(8.42312 0.0354757 0)
(8.426 0.0349152 0)
(8.42864 0.0343491 0)
(8.43105 0.0337904 0)
(8.43326 0.0332559 0)
(8.43529 0.0327673 0)
(8.43717 0.0323593 0)
(8.43894 0.0320727 0)
(8.44069 0.0319879 0)
(8.44248 0.0321446 0)
(8.44476 0.032711 0)
(8.44757 0.033406 0)
(8.45227 0.034614 0)
(8.3302 -0.00531094 0)
(8.32722 -0.00750949 0)
(8.33138 -0.00245671 0)
(8.33606 0.00802637 0)
(8.34014 0.017196 0)
(8.34431 0.0234069 0)
(8.34873 0.0275835 0)
(8.3534 0.0305375 0)
(8.35823 0.0326702 0)
(8.36312 0.0342137 0)
(8.36797 0.0353128 0)
(8.37274 0.036062 0)
(8.3774 0.0365274 0)
(8.38192 0.0367604 0)
(8.38628 0.0368031 0)
(8.39048 0.0366909 0)
(8.39451 0.0364535 0)
(8.39838 0.0361162 0)
(8.4021 0.0357005 0)
(8.40566 0.0352245 0)
(8.40907 0.0347043 0)
(8.41236 0.034154 0)
(8.41551 0.0335877 0)
(8.41856 0.0330196 0)
(8.42151 0.0324662 0)
(8.42438 0.0319465 0)
(8.4272 0.0314878 0)
(8.43 0.0311149 0)
(8.43287 0.0308773 0)
(8.43588 0.0307557 0)
(8.43927 0.0308343 0)
(8.44315 0.0306872 0)
(8.44787 0.0305021 0)
(8.33238 0.00228582 0)
(8.33118 0.0133086 0)
(8.3328 0.0203942 0)
(8.3355 0.0237819 0)
(8.33895 0.0259299 0)
(8.34301 0.0277307 0)
(8.34724 0.0293987 0)
(8.3515 0.0308824 0)
(8.35575 0.032101 0)
(8.35999 0.0330435 0)
(8.36417 0.0337318 0)
(8.3683 0.0341936 0)
(8.37234 0.0344573 0)
(8.3763 0.0345515 0)
(8.38017 0.034503 0)
(8.38393 0.0343351 0)
(8.3876 0.0340686 0)
(8.39116 0.0337215 0)
(8.39462 0.0333095 0)
(8.398 0.0328464 0)
(8.40129 0.0323444 0)
(8.4045 0.031815 0)
(8.40764 0.0312693 0)
(8.41072 0.0307188 0)
(8.41376 0.0301764 0)
(8.41676 0.0296563 0)
(8.41977 0.0291762 0)
(8.42281 0.0287495 0)
(8.42595 0.0283952 0)
(8.42927 0.0280867 0)
(8.43289 0.027814 0)
(8.43691 0.0273341 0)
(8.44143 0.0266003 0)
(8.33232 0.000873743 0)
(8.33152 0.00578639 0)
(8.33341 0.0107621 0)
(8.33645 0.0155592 0)
(8.33985 0.0199402 0)
(8.34351 0.0234444 0)
(8.34726 0.0261183 0)
(8.35104 0.0281568 0)
(8.35484 0.0296965 0)
(8.35864 0.0308396 0)
(8.36241 0.0316631 0)
(8.36614 0.0322226 0)
(8.36981 0.032561 0)
(8.37341 0.0327143 0)
(8.37694 0.0327126 0)
(8.3804 0.0325816 0)
(8.38378 0.0323432 0)
(8.38709 0.0320165 0)
(8.39033 0.0316178 0)
(8.39351 0.0311611 0)
(8.39663 0.0306591 0)
(8.3997 0.0301229 0)
(8.40273 0.0295631 0)
(8.40573 0.0289898 0)
(8.40871 0.0284136 0)
(8.41169 0.0278442 0)
(8.4147 0.0272919 0)
(8.41776 0.0267603 0)
(8.42093 0.0262501 0)
(8.42426 0.0257264 0)
(8.42784 0.0251491 0)
(8.4317 0.0243477 0)
(8.43585 0.0232319 0)
(8.33272 0.0017111 0)
(8.33255 0.00729237 0)
(8.33417 0.0125857 0)
(8.33676 0.0168481 0)
(8.33978 0.0202944 0)
(8.34317 0.0230123 0)
(8.34672 0.0251654 0)
(8.35033 0.0268869 0)
(8.35395 0.0282365 0)
(8.35756 0.0292603 0)
(8.36112 0.0300041 0)
(8.36464 0.0305081 0)
(8.36809 0.0308068 0)
(8.37148 0.0309308 0)
(8.37481 0.0309069 0)
(8.37807 0.0307587 0)
(8.38127 0.0305061 0)
(8.38441 0.0301668 0)
(8.38749 0.0297555 0)
(8.39052 0.0292854 0)
(8.39351 0.0287676 0)
(8.39646 0.0282122 0)
(8.39939 0.0276281 0)
(8.40229 0.0270235 0)
(8.4052 0.0264059 0)
(8.40811 0.0257809 0)
(8.41107 0.0251525 0)
(8.41408 0.0245174 0)
(8.4172 0.0238653 0)
(8.42046 0.0231607 0)
(8.4239 0.0223555 0)
(8.42753 0.0213359 0)
(8.43133 0.0200231 0)
(8.33284 0.00179022 0)
(8.33293 0.00646531 0)
(8.33443 0.0109808 0)
(8.33684 0.0148708 0)
(8.3397 0.0182355 0)
(8.34289 0.0210265 0)
(8.34625 0.0232704 0)
(8.34967 0.0250503 0)
(8.35312 0.0264319 0)
(8.35657 0.0274732 0)
(8.35998 0.0282272 0)
(8.36335 0.0287382 0)
(8.36666 0.0290425 0)
(8.36992 0.0291711 0)
(8.37311 0.0291507 0)
(8.37625 0.0290043 0)
(8.37932 0.0287513 0)
(8.38234 0.0284087 0)
(8.38532 0.0279908 0)
(8.38824 0.02751 0)
(8.39113 0.0269768 0)
(8.39399 0.0264003 0)
(8.39683 0.0257882 0)
(8.39966 0.025147 0)
(8.40249 0.0244816 0)
(8.40534 0.0237946 0)
(8.40823 0.0230854 0)
(8.41118 0.0223466 0)
(8.41421 0.0215628 0)
(8.41736 0.0207012 0)
(8.42064 0.0197171 0)
(8.42404 0.0185336 0)
(8.42752 0.0170925 0)
(8.33294 0.00183235 0)
(8.33323 0.00614346 0)
(8.33462 0.0103558 0)
(8.33683 0.0140214 0)
(8.33948 0.0171564 0)
(8.34245 0.0197495 0)
(8.34562 0.0218412 0)
(8.34888 0.0235106 0)
(8.35219 0.0248178 0)
(8.35551 0.0258107 0)
(8.3588 0.0265332 0)
(8.36206 0.0270232 0)
(8.36527 0.0273132 0)
(8.36843 0.0274316 0)
(8.37153 0.0274031 0)
(8.37458 0.027249 0)
(8.37757 0.0269878 0)
(8.38051 0.0266354 0)
(8.3834 0.0262052 0)
(8.38625 0.0257087 0)
(8.38907 0.0251556 0)
(8.39186 0.0245538 0)
(8.39464 0.0239098 0)
(8.39741 0.0232285 0)
(8.40018 0.0225128 0)
(8.40297 0.0217629 0)
(8.40579 0.0209751 0)
(8.40866 0.0201401 0)
(8.4116 0.0192411 0)
(8.41463 0.0182497 0)
(8.41774 0.0171292 0)
(8.42093 0.0158279 0)
(8.42416 0.0143078 0)
(8.33299 0.00179601 0)
(8.33338 0.00571764 0)
(8.33469 0.00952967 0)
(8.33671 0.0128965 0)
(8.33918 0.0158093 0)
(8.34196 0.01826 0)
(8.34496 0.0202659 0)
(8.34807 0.021879 0)
(8.35123 0.0231472 0)
(8.35442 0.0241128 0)
(8.3576 0.0248158 0)
(8.36075 0.025292 0)
(8.36387 0.0255721 0)
(8.36694 0.0256832 0)
(8.36997 0.0256485 0)
(8.37294 0.0254884 0)
(8.37586 0.0252201 0)
(8.37874 0.0248587 0)
(8.38157 0.0244167 0)
(8.38437 0.0239047 0)
(8.38713 0.0233315 0)
(8.38987 0.0227043 0)
(8.39259 0.0220283 0)
(8.3953 0.021307 0)
(8.39802 0.0205419 0)
(8.40075 0.0197314 0)
(8.40351 0.0188706 0)
(8.4063 0.0179492 0)
(8.40915 0.0169517 0)
(8.41205 0.0158547 0)
(8.41501 0.0146298 0)
(8.41801 0.0132426 0)
(8.42101 0.0116701 0)
(8.33302 0.00171849 0)
(8.33346 0.00531468 0)
(8.33469 0.00879793 0)
(8.33656 0.0119122 0)
(8.33886 0.0146216 0)
(8.34146 0.0169163 0)
(8.34428 0.0188065 0)
(8.34723 0.0203325 0)
(8.35026 0.021536 0)
(8.35332 0.0224547 0)
(8.35638 0.0231238 0)
(8.35944 0.0235755 0)
(8.36246 0.0238376 0)
(8.36545 0.023935 0)
(8.3684 0.023889 0)
(8.3713 0.0237186 0)
(8.37416 0.0234397 0)
(8.37698 0.0230664 0)
(8.37976 0.0226102 0)
(8.3825 0.0220808 0)
(8.38521 0.0214862 0)
(8.3879 0.0208324 0)
(8.39057 0.020124 0)
(8.39324 0.0193632 0)
(8.3959 0.0185504 0)
(8.39857 0.0176831 0)
(8.40126 0.0167559 0)
(8.40398 0.0157591 0)
(8.40673 0.0146789 0)
(8.40951 0.0134972 0)
(8.41233 0.0121928 0)
(8.41515 0.0107434 0)
(8.41797 0.00913628 0)
(8.33303 0.00161684 0)
(8.3335 0.00491214 0)
(8.33465 0.008085 0)
(8.33639 0.0109451 0)
(8.33852 0.0134481 0)
(8.34096 0.0155834 0)
(8.34362 0.0173561 0)
(8.34642 0.0187949 0)
(8.34931 0.0199335 0)
(8.35224 0.0208038 0)
(8.35519 0.0214367 0)
(8.35814 0.0218609 0)
(8.36107 0.0221019 0)
(8.36398 0.0221824 0)
(8.36685 0.0221223 0)
(8.36968 0.021939 0)
(8.37247 0.0216474 0)
(8.37523 0.0212603 0)
(8.37795 0.0207884 0)
(8.38064 0.0202405 0)
(8.3833 0.0196238 0)
(8.38594 0.0189435 0)
(8.38856 0.0182032 0)
(8.39117 0.0174045 0)
(8.39378 0.016547 0)
(8.39639 0.015628 0)
(8.399 0.0146419 0)
(8.40164 0.0135805 0)
(8.40429 0.0124322 0)
(8.40696 0.0111833 0)
(8.40964 0.0098189 0)
(8.41231 0.00832454 0)
(8.41496 0.00669437 0)
(8.33304 0.00150267 0)
(8.3335 0.00451763 0)
(8.33459 0.00740583 0)
(8.3362 0.0100258 0)
(8.33819 0.0123305 0)
(8.34048 0.0143071 0)
(8.34298 0.0159571 0)
(8.34564 0.0173009 0)
(8.34839 0.0183659 0)
(8.3512 0.0191794 0)
(8.35403 0.0197685 0)
(8.35688 0.0201587 0)
(8.35971 0.0203729 0)
(8.36253 0.0204316 0)
(8.36532 0.0203532 0)
(8.36808 0.0201535 0)
(8.37081 0.0198461 0)
(8.3735 0.0194428 0)
(8.37616 0.0189533 0)
(8.37879 0.0183856 0)
(8.3814 0.017746 0)
(8.38398 0.0170391 0)
(8.38654 0.0162677 0)
(8.3891 0.015433 0)
(8.39164 0.0145343 0)
(8.39418 0.0135687 0)
(8.39673 0.0125314 0)
(8.39927 0.0114154 0)
(8.40182 0.0102117 0)
(8.40438 0.00891021 0)
(8.40693 0.00750071 0)
(8.40946 0.00597427 0)
(8.41196 0.00432926 0)
(8.33304 0.00138298 0)
(8.33349 0.00413199 0)
(8.33452 0.00675383 0)
(8.33601 0.00914206 0)
(8.33787 0.0112519 0)
(8.34002 0.0130689 0)
(8.34238 0.0145923 0)
(8.3449 0.0158364 0)
(8.34752 0.0168229 0)
(8.3502 0.0175749 0)
(8.35293 0.0181156 0)
(8.35567 0.0184673 0)
(8.35841 0.0186505 0)
(8.36114 0.0186838 0)
(8.36384 0.0185837 0)
(8.36653 0.0183645 0)
(8.36918 0.0180389 0)
(8.37181 0.0176174 0)
(8.3744 0.0171088 0)
(8.37697 0.0165203 0)
(8.37952 0.0158576 0)
(8.38204 0.0151245 0)
(8.38454 0.0143235 0)
(8.38703 0.0134553 0)
(8.3895 0.0125192 0)
(8.39197 0.0115127 0)
(8.39443 0.0104316 0)
(8.39689 0.00927037 0)
(8.39934 0.00802229 0)
(8.40178 0.0066802 0)
(8.4042 0.00523746 0)
(8.4066 0.00368878 0)
(8.40896 0.00203512 0)
(8.33304 0.00126196 0)
(8.33348 0.00375668 0)
(8.33444 0.0061278 0)
(8.33583 0.00829361 0)
(8.33757 0.0102134 0)
(8.33959 0.011872 0)
(8.34182 0.0132665 0)
(8.3442 0.0144069 0)
(8.3467 0.01531 0)
(8.34926 0.0159952 0)
(8.35188 0.0164823 0)
(8.35451 0.0167907 0)
(8.35716 0.0169386 0)
(8.3598 0.0169425 0)
(8.36242 0.0168172 0)
(8.36503 0.0165758 0)
(8.36761 0.0162295 0)
(8.37016 0.0157879 0)
(8.37269 0.015259 0)
(8.37519 0.0146491 0)
(8.37767 0.0139633 0)
(8.38013 0.0132049 0)
(8.38256 0.012376 0)
(8.38498 0.0114773 0)
(8.38738 0.0105079 0)
(8.38977 0.00946601 0)
(8.39214 0.00834818 0)
(8.39451 0.00715024 0)
(8.39685 0.00586738 0)
(8.39918 0.00449475 0)
(8.40149 0.00302831 0)
(8.40376 0.00146523 0)
(8.40598 -0.000192075 0)
(8.33304 0.00114202 0)
(8.33345 0.00339237 0)
(8.33436 0.00552553 0)
(8.33566 0.00747707 0)
(8.33729 0.0092111 0)
(8.33919 0.0107121 0)
(8.34129 0.0119759 0)
(8.34355 0.0130092 0)
(8.34593 0.0138249 0)
(8.34838 0.014439 0)
(8.35089 0.0148682 0)
(8.35342 0.0151292 0)
(8.35597 0.015238 0)
(8.35852 0.0152092 0)
(8.36106 0.0150559 0)
(8.36359 0.0147898 0)
(8.36609 0.0144209 0)
(8.36857 0.0139579 0)
(8.37103 0.0134077 0)
(8.37346 0.0127763 0)
(8.37587 0.0120678 0)
(8.37826 0.0112854 0)
(8.38062 0.0104309 0)
(8.38296 0.00950481 0)
(8.38529 0.00850665 0)
(8.38759 0.00743487 0)
(8.38987 0.00628704 0)
(8.39214 0.00506015 0)
(8.39438 0.00375094 0)
(8.3966 0.00235636 0)
(8.39879 0.000874197 0)
(8.40093 -0.000696772 0)
(8.40304 -0.00235329 0)
(8.33304 0.00102446 0)
(8.33343 0.00303932 0)
(8.33428 0.00494527 0)
(8.3355 0.00669009 0)
(8.33703 0.00824254 0)
(8.33882 0.00958735 0)
(8.3408 0.0107196 0)
(8.34295 0.0116432 0)
(8.34521 0.0123682 0)
(8.34755 0.0129073 0)
(8.34996 0.0132747 0)
(8.35239 0.0134847 0)
(8.35485 0.013551 0)
(8.35731 0.0134863 0)
(8.35977 0.0133024 0)
(8.36221 0.0130094 0)
(8.36464 0.0126163 0)
(8.36705 0.0121307 0)
(8.36943 0.011559 0)
(8.37179 0.0109061 0)
(8.37412 0.010176 0)
(8.37644 0.00937128 0)
(8.37872 0.00849365 0)
(8.38099 0.00754371 0)
(8.38323 0.00652119 0)
(8.38544 0.00542503 0)
(8.38764 0.00425358 0)
(8.3898 0.00300485 0)
(8.39194 0.0016768 0)
(8.39405 0.00026774 0)
(8.39612 -0.00122328 0)
(8.39815 -0.00279641 0)
(8.40013 -0.00444798 0)
(8.33303 0.000909926 0)
(8.33341 0.00269743 0)
(8.3342 0.00438532 0)
(8.33535 0.00593022 0)
(8.33679 0.00730506 0)
(8.33847 0.00849525 0)
(8.34035 0.00949527 0)
(8.34239 0.0103072 0)
(8.34454 0.0109385 0)
(8.34678 0.0113995 0)
(8.34909 0.0117018 0)
(8.35143 0.0118574 0)
(8.35379 0.0118781 0)
(8.35616 0.011775 0)
(8.35854 0.0115581 0)
(8.3609 0.0112365 0)
(8.36325 0.010818 0)
(8.36558 0.0103092 0)
(8.36789 0.00971575 0)
(8.37017 0.00904205 0)
(8.37243 0.00829152 0)
(8.37467 0.00746656 0)
(8.37688 0.00656869 0)
(8.37906 0.0055986 0)
(8.38121 0.00455627 0)
(8.38334 0.00344109 0)
(8.38544 0.00225208 0)
(8.38751 0.000988085 0)
(8.38954 -0.00035196 0)
(8.39154 -0.00176879 0)
(8.3935 -0.00326247 0)
(8.39541 -0.00483248 0)
(8.39727 -0.00647497 0)
(8.33303 0.000798663 0)
(8.33338 0.00236633 0)
(8.33413 0.00384411 0)
(8.33522 0.00519522 0)
(8.33657 0.00639622 0)
(8.33816 0.00743349 0)
(8.33994 0.00830121 0)
(8.34187 0.0090001 0)
(8.34393 0.00953555 0)
(8.34607 0.00991568 0)
(8.34827 0.01015 0)
(8.35052 0.0102485 0)
(8.3528 0.0102212 0)
(8.35509 0.0100775 0)
(8.35738 0.00982593 0)
(8.35966 0.00947438 0)
(8.36193 0.00902959 0)
(8.36418 0.00849736 0)
(8.36641 0.00788252 0)
(8.36862 0.00718895 0)
(8.3708 0.00641966 0)
(8.37296 0.00557679 0)
(8.37509 0.00466177 0)
(8.37719 0.00367535 0)
(8.37925 0.00261775 0)
(8.38129 0.00148878 0)
(8.38329 0.000287991 0)
(8.38526 -0.000985124 0)
(8.38719 -0.0023309 0)
(8.38908 -0.00374939 0)
(8.39093 -0.00524005 0)
(8.39273 -0.00680193 0)
(8.39448 -0.00843118 0)
(8.33303 0.000690681 0)
(8.33336 0.00204547 0)
(8.33407 0.0033201 0)
(8.33509 0.00448288 0)
(8.33637 0.00551348 0)
(8.33787 0.0063994 0)
(8.33956 0.00713477 0)
(8.3414 0.00771933 0)
(8.34336 0.00815687 0)
(8.34541 0.00845369 0)
(8.34752 0.00861747 0)
(8.34968 0.0086564 0)
(8.35187 0.00857876 0)
(8.35407 0.00839245 0)
(8.35628 0.00810475 0)
(8.35848 0.00772225 0)
(8.36068 0.00725071 0)
(8.36285 0.0066951 0)
(8.36501 0.00605958 0)
(8.36714 0.00534748 0)
(8.36924 0.00456142 0)
(8.37132 0.00370331 0)
(8.37336 0.00277449 0)
(8.37537 0.00177579 0)
(8.37735 0.000707593 0)
(8.3793 -0.000429965 0)
(8.3812 -0.0016369 0)
(8.38307 -0.0029132 0)
(8.3849 -0.00425873 0)
(8.38669 -0.00567302 0)
(8.38842 -0.00715514 0)
(8.39011 -0.00870389 0)
(8.39175 -0.0103155 0)
(8.33303 0.00058586 0)
(8.33334 0.00173421 0)
(8.33401 0.00281188 0)
(8.33497 0.0037913 0)
(8.33618 0.0046549 0)
(8.3376 0.0053914 0)
(8.33921 0.0059951 0)
(8.34096 0.00646504 0)
(8.34283 0.00680375 0)
(8.3448 0.00701597 0)
(8.34682 0.00710771 0)
(8.3489 0.00708557 0)
(8.351 0.00695624 0)
(8.35313 0.00672623 0)
(8.35525 0.00640155 0)
(8.35738 0.00598769 0)
(8.35949 0.00548944 0)
(8.36159 0.00491095 0)
(8.36367 0.00425576 0)
(8.36572 0.0035267 0)
(8.36774 0.00272608 0)
(8.36974 0.00185548 0)
(8.3717 0.000916213 0)
(8.37363 -9.08788e-05 0)
(8.37552 -0.00116523 0)
(8.37737 -0.00230646 0)
(8.37918 -0.00351427 0)
(8.38095 -0.00478831 0)
(8.38268 -0.00612805 0)
(8.38436 -0.0075327 0)
(8.38599 -0.00900109 0)
(8.38757 -0.0105319 0)
(8.3891 -0.0121214 0)
(8.33303 0.000484004 0)
(8.33332 0.00143176 0)
(8.33395 0.00231775 0)
(8.33486 0.00311778 0)
(8.33601 0.00381665 0)
(8.33736 0.00440439 0)
(8.33889 0.00487573 0)
(8.34057 0.00522933 0)
(8.34236 0.00546686 0)
(8.34423 0.005592 0)
(8.34618 0.00560934 0)
(8.34817 0.00552399 0)
(8.3502 0.00534125 0)
(8.35224 0.0050663 0)
(8.3543 0.00470392 0)
(8.35634 0.00425851 0)
(8.35838 0.00373389 0)
(8.3604 0.0031336 0)
(8.3624 0.00246044 0)
(8.36438 0.00171675 0)
(8.36632 0.00090433 0)
(8.36823 2.47913e-05 0)
(8.37011 -0.000920811 0)
(8.37195 -0.00193169 0)
(8.37375 -0.00300716 0)
(8.37551 -0.00414666 0)
(8.37723 -0.00534969 0)
(8.3789 -0.00661562 0)
(8.38053 -0.0079437 0)
(8.38211 -0.00933294 0)
(8.38363 -0.010782 0)
(8.3851 -0.0122896 0)
(8.38652 -0.013852 0)
(8.33303 0.000384916 0)
(8.33331 0.00113765 0)
(8.3339 0.00183726 0)
(8.33477 0.00246265 0)
(8.33585 0.0030009 0)
(8.33714 0.00344339 0)
(8.3386 0.00378537 0)
(8.3402 0.00402503 0)
(8.34192 0.00416309 0)
(8.34372 0.00420212 0)
(8.34559 0.00414551 0)
(8.34751 0.0039971 0)
(8.34946 0.00376096 0)
(8.35143 0.00344105 0)
(8.35341 0.00304097 0)
(8.35538 0.00256447 0)
(8.35734 0.00201395 0)
(8.35929 0.00139247 0)
(8.36121 0.000702379 0)
(8.36311 -5.44604e-05 0)
(8.36497 -0.000876573 0)
(8.3668 -0.00176257 0)
(8.3686 -0.00271156 0)
(8.37035 -0.00372274 0)
(8.37207 -0.00479541 0)
(8.37374 -0.00592893 0)
(8.37536 -0.00712263 0)
(8.37694 -0.00837576 0)
(8.37846 -0.0096874 0)
(8.37994 -0.0110564 0)
(8.38136 -0.0124815 0)
(8.38273 -0.0139613 0)
(8.38405 -0.0154923 0)
(8.33303 0.000288278 0)
(8.33329 0.000850216 0)
(8.33386 0.00136591 0)
(8.33468 0.0018166 0)
(8.33572 0.00219158 0)
(8.33695 0.00248413 0)
(8.33834 0.00269068 0)
(8.33988 0.00280983 0)
(8.34152 0.00284275 0)
(8.34326 0.00279143 0)
(8.34506 0.00265775 0)
(8.3469 0.00244406 0)
(8.34878 0.00215334 0)
(8.35068 0.00178849 0)
(8.35259 0.00135176 0)
(8.35449 0.000845157 0)
(8.35638 0.000271727 0)
(8.35825 -0.000367185 0)
(8.3601 -0.00107005 0)
(8.36192 -0.00183542 0)
(8.36371 -0.00266202 0)
(8.36546 -0.00354903 0)
(8.36717 -0.00449556 0)
(8.36884 -0.00550086 0)
(8.37047 -0.00656427 0)
(8.37205 -0.00768513 0)
(8.37358 -0.0088627 0)
(8.37506 -0.0100962 0)
(8.37649 -0.0113845 0)
(8.37787 -0.0127266 0)
(8.37919 -0.0141211 0)
(8.38046 -0.0155666 0)
(8.38167 -0.0170599 0)
(8.33302 0.000194288 0)
(8.33327 0.000572277 0)
(8.33381 0.000913049 0)
(8.33459 0.00120032 0)
(8.33558 0.0014252 0)
(8.33676 0.00158184 0)
(8.3381 0.00166748 0)
(8.33957 0.0016779 0)
(8.34116 0.00161303 0)
(8.34283 0.00147579 0)
(8.34457 0.00126778 0)
(8.34635 0.000990575 0)
(8.34817 0.000645561 0)
(8.35 0.000234213 0)
(8.35184 -0.000241173 0)
(8.35368 -0.000779316 0)
(8.3555 -0.00137797 0)
(8.3573 -0.00203643 0)
(8.35908 -0.00275369 0)
(8.36082 -0.00352867 0)
(8.36253 -0.00436053 0)
(8.3642 -0.00524855 0)
(8.36584 -0.00619207 0)
(8.36742 -0.00719047 0)
(8.36896 -0.00824313 0)
(8.37046 -0.00934941 0)
(8.3719 -0.0105086 0)
(8.37329 -0.0117197 0)
(8.37462 -0.012982 0)
(8.3759 -0.0142941 0)
(8.37713 -0.0156549 0)
(8.3783 -0.0170629 0)
(8.37941 -0.0185153 0)
(8.33302 0.00010119 0)
(8.33326 0.000291388 0)
(8.33378 0.000444049 0)
(8.33453 0.000545623 0)
(8.33548 0.000592017 0)
(8.33661 0.000582371 0)
(8.3379 0.000515864 0)
(8.33932 0.000396315 0)
(8.34085 0.000223525 0)
(8.34247 -5.1358e-06 0)
(8.34414 -0.000289653 0)
(8.34587 -0.000629479 0)
(8.34762 -0.00102471 0)
(8.34939 -0.00147533 0)
(8.35117 -0.0019805 0)
(8.35294 -0.00253957 0)
(8.35469 -0.00315292 0)
(8.35642 -0.00381982 0)
(8.35813 -0.00453976 0)
(8.3598 -0.00531241 0)
(8.36144 -0.0061374 0)
(8.36304 -0.00701435 0)
(8.36459 -0.00794286 0)
(8.3661 -0.00892248 0)
(8.36755 -0.00995269 0)
(8.36896 -0.0110329 0)
(8.37032 -0.0121624 0)
(8.37162 -0.0133404 0)
(8.37286 -0.0145659 0)
(8.37405 -0.0158378 0)
(8.37518 -0.0171549 0)
(8.37625 -0.0185159 0)
(8.37726 -0.0199179 0)
(8.33302 1.54225e-05 0)
(8.33324 4.73637e-05 0)
(8.33372 5.84047e-05 0)
(8.33442 3.19646e-05 0)
(8.33533 -3.95934e-05 0)
(8.33642 -0.000159913 0)
(8.33768 -0.000331187 0)
(8.33906 -0.000549675 0)
(8.34056 -0.000814893 0)
(8.34213 -0.0011288 0)
(8.34377 -0.00149088 0)
(8.34544 -0.00190051 0)
(8.34715 -0.00235712 0)
(8.34887 -0.00286032 0)
(8.35059 -0.00341039 0)
(8.3523 -0.00400734 0)
(8.35399 -0.00465117 0)
(8.35566 -0.0053417 0)
(8.3573 -0.00607891 0)
(8.35891 -0.00686283 0)
(8.36047 -0.00769338 0)
(8.362 -0.00857044 0)
(8.36347 -0.00949381 0)
(8.3649 -0.0104633 0)
(8.36628 -0.0114784 0)
(8.3676 -0.0125388 0)
(8.36887 -0.0136439 0)
(8.37008 -0.014793 0)
(8.37124 -0.0159852 0)
(8.37233 -0.0172196 0)
(8.37337 -0.0184951 0)
(8.37435 -0.0198105 0)
(8.37527 -0.0211633 0)
(8.33303 -8.40378e-05 0)
(8.33326 -0.000275965 0)
(8.33373 -0.00051403 0)
(8.33442 -0.000797095 0)
(8.3353 -0.00111125 0)
(8.33636 -0.00144558 0)
(8.33756 -0.00179425 0)
(8.3389 -0.00215921 0)
(8.34034 -0.00254246 0)
(8.34186 -0.0029454 0)
(8.34344 -0.0033716 0)
(8.34507 -0.00382501 0)
(8.34672 -0.00430911 0)
(8.34838 -0.00482692 0)
(8.35005 -0.00538101 0)
(8.3517 -0.00597329 0)
(8.35334 -0.00660533 0)
(8.35495 -0.00727832 0)
(8.35652 -0.00799313 0)
(8.35807 -0.00875039 0)
(8.35956 -0.00955047 0)
(8.36102 -0.0103936 0)
(8.36242 -0.0112798 0)
(8.36378 -0.012209 0)
(8.36508 -0.0131808 0)
(8.36633 -0.014195 0)
(8.36751 -0.0152509 0)
(8.36865 -0.0163478 0)
(8.36972 -0.0174849 0)
(8.37073 -0.0186612 0)
(8.37168 -0.0198757 0)
(8.37256 -0.0211272 0)
(8.37339 -0.0224133 0)
(8.333 -0.000129464 0)
(8.33315 -0.000351882 0)
(8.33355 -0.000580062 0)
(8.33418 -0.000850835 0)
(8.33503 -0.00117617 0)
(8.33608 -0.00155441 0)
(8.3373 -0.00197773 0)
(8.33865 -0.00243772 0)
(8.3401 -0.00292742 0)
(8.34162 -0.00344252 0)
(8.34319 -0.00398131 0)
(8.3448 -0.00454342 0)
(8.34643 -0.00512927 0)
(8.34806 -0.00573989 0)
(8.34968 -0.0063767 0)
(8.35129 -0.0070412 0)
(8.35288 -0.00773489 0)
(8.35443 -0.00845916 0)
(8.35595 -0.00921523 0)
(8.35743 -0.0100042 0)
(8.35887 -0.0108269 0)
(8.36025 -0.0116842 0)
(8.36158 -0.0125765 0)
(8.36286 -0.0135041 0)
(8.36409 -0.0144672 0)
(8.36526 -0.0154659 0)
(8.36637 -0.0164999 0)
(8.36741 -0.0175688 0)
(8.3684 -0.0186721 0)
(8.36933 -0.0198093 0)
(8.37019 -0.0209794 0)
(8.37099 -0.0221818 0)
(8.37173 -0.0234142 0)
(8.33306 -0.000323757 0)
(8.33334 -0.00104505 0)
(8.3338 -0.00184507 0)
(8.33442 -0.0026562 0)
(8.33521 -0.00342248 0)
(8.33617 -0.00412378 0)
(8.3373 -0.00476179 0)
(8.33856 -0.00534766 0)
(8.33993 -0.00589533 0)
(8.34138 -0.00641847 0)
(8.3429 -0.00692956 0)
(8.34445 -0.00743938 0)
(8.34603 -0.00795686 0)
(8.34761 -0.00848918 0)
(8.3492 -0.00904201 0)
(8.35076 -0.00961976 0)
(8.3523 -0.0102258 0)
(8.35381 -0.0108625 0)
(8.35528 -0.0115319 0)
(8.35671 -0.0122352 0)
(8.35809 -0.0129734 0)
(8.35942 -0.013747 0)
(8.3607 -0.0145564 0)
(8.36192 -0.0154014 0)
(8.36308 -0.0162822 0)
(8.36418 -0.0171982 0)
(8.36522 -0.018149 0)
(8.3662 -0.0191341 0)
(8.36712 -0.0201526 0)
(8.36797 -0.0212038 0)
(8.36875 -0.0222867 0)
(8.36948 -0.0234004 0)
(8.37013 -0.0245427 0)
(8.33294 -8.39102e-05 0)
(8.33285 -0.000163897 0)
(8.33308 -0.000310364 0)
(8.33366 -0.000649475 0)
(8.33455 -0.00118523 0)
(8.33566 -0.00186119 0)
(8.33695 -0.00261875 0)
(8.33835 -0.00341628 0)
(8.33983 -0.00422779 0)
(8.34136 -0.00503811 0)
(8.34293 -0.00583972 0)
(8.34451 -0.00663025 0)
(8.34609 -0.00741055 0)
(8.34766 -0.0081833 0)
(8.34922 -0.00895207 0)
(8.35074 -0.0097208 0)
(8.35224 -0.0104934 0)
(8.35369 -0.0112734 0)
(8.3551 -0.0120643 0)
(8.35646 -0.012869 0)
(8.35777 -0.0136899 0)
(8.35903 -0.0145292 0)
(8.36023 -0.0153886 0)
(8.36138 -0.0162696 0)
(8.36246 -0.0171732 0)
(8.36348 -0.0181002 0)
(8.36444 -0.0190511 0)
(8.36534 -0.0200262 0)
(8.36617 -0.0210257 0)
(8.36694 -0.0220493 0)
(8.36764 -0.0230967 0)
(8.36828 -0.0241676 0)
(8.36886 -0.0252606 0)
(8.33317 -0.000783108 0)
(8.33367 -0.00269269 0)
(8.33406 -0.00466442 0)
(8.33445 -0.00635468 0)
(8.335 -0.00769001 0)
(8.33578 -0.00872539 0)
(8.33679 -0.00953516 0)
(8.33798 -0.0101833 0)
(8.3393 -0.0107214 0)
(8.34073 -0.0111895 0)
(8.34222 -0.011618 0)
(8.34375 -0.0120291 0)
(8.34531 -0.0124391 0)
(8.34687 -0.0128593 0)
(8.34841 -0.0132977 0)
(8.34993 -0.0137599 0)
(8.35141 -0.0142496 0)
(8.35286 -0.0147691 0)
(8.35426 -0.01532 0)
(8.35561 -0.0159031 0)
(8.3569 -0.0165188 0)
(8.35813 -0.0171671 0)
(8.35931 -0.0178479 0)
(8.36042 -0.0185607 0)
(8.36147 -0.0193051 0)
(8.36245 -0.0200803 0)
(8.36337 -0.0208856 0)
(8.36422 -0.0217203 0)
(8.365 -0.0225834 0)
(8.36572 -0.0234741 0)
(8.36637 -0.0243914 0)
(8.36695 -0.0253345 0)
(8.36746 -0.0263015 0)
(8.33263 0.00056722 0)
(8.33174 0.00196635 0)
(8.33174 0.00281994 0)
(8.33257 0.00270717 0)
(8.33383 0.00183973 0)
(8.33527 0.000576228 0)
(8.33681 -0.000849504 0)
(8.33839 -0.00231378 0)
(8.33999 -0.0037501 0)
(8.34159 -0.00512284 0)
(8.34317 -0.00641692 0)
(8.34474 -0.00763023 0)
(8.34628 -0.00876765 0)
(8.34779 -0.00983748 0)
(8.34926 -0.0108494 0)
(8.3507 -0.0118133 0)
(8.35209 -0.0127387 0)
(8.35343 -0.013634 0)
(8.35473 -0.0145069 0)
(8.35597 -0.015364 0)
(8.35716 -0.0162111 0)
(8.35829 -0.017053 0)
(8.35937 -0.0178938 0)
(8.36038 -0.0187369 0)
(8.36133 -0.0195851 0)
(8.36222 -0.0204407 0)
(8.36305 -0.0213054 0)
(8.36381 -0.0221808 0)
(8.3645 -0.0230678 0)
(8.36513 -0.0239671 0)
(8.3657 -0.0248793 0)
(8.3662 -0.0258046 0)
(8.36664 -0.0267422 0)
(8.33358 -0.00196584 0)
(8.33466 -0.00692049 0)
(8.3344 -0.011724 0)
(8.33369 -0.0149142 0)
(8.33345 -0.0167057 0)
(8.33385 -0.0176872 0)
(8.33471 -0.0181831 0)
(8.33588 -0.0183874 0)
(8.33726 -0.0184345 0)
(8.33878 -0.018412 0)
(8.34038 -0.018374 0)
(8.34202 -0.0183535 0)
(8.34366 -0.0183693 0)
(8.3453 -0.0184316 0)
(8.34691 -0.0185451 0)
(8.34848 -0.0187111 0)
(8.34999 -0.0189291 0)
(8.35146 -0.0191971 0)
(8.35286 -0.019513 0)
(8.35421 -0.0198741 0)
(8.35549 -0.020278 0)
(8.3567 -0.0207219 0)
(8.35784 -0.0212037 0)
(8.35892 -0.0217211 0)
(8.35992 -0.022272 0)
(8.36086 -0.0228546 0)
(8.36173 -0.023467 0)
(8.36252 -0.0241076 0)
(8.36325 -0.024775 0)
(8.3639 -0.0254676 0)
(8.36449 -0.0261843 0)
(8.36501 -0.026924 0)
(8.36546 -0.0276849 0)
(8.33162 0.00368924 0)
(8.32827 0.0102308 0)
(8.32843 0.0133839 0)
(8.33098 0.0133216 0)
(8.33356 0.0112498 0)
(8.33574 0.00839227 0)
(8.33768 0.00537754 0)
(8.33946 0.00244771 0)
(8.34111 -0.000285292 0)
(8.34267 -0.00277353 0)
(8.34416 -0.00501168 0)
(8.34561 -0.00701579 0)
(8.34701 -0.00881021 0)
(8.34839 -0.0104218 0)
(8.34973 -0.011877 0)
(8.35105 -0.0132 0)
(8.35234 -0.0144126 0)
(8.35359 -0.0155336 0)
(8.35481 -0.0165793 0)
(8.35599 -0.0175633 0)
(8.35713 -0.0184973 0)
(8.35823 -0.0193911 0)
(8.35928 -0.0202529 0)
(8.36027 -0.0210896 0)
(8.36122 -0.0219069 0)
(8.3621 -0.0227096 0)
(8.36293 -0.0235015 0)
(8.36371 -0.024286 0)
(8.36442 -0.0250657 0)
(8.36507 -0.0258425 0)
(8.36565 -0.0266182 0)
(8.36618 -0.0273939 0)
(8.36664 -0.0281701 0)
(8.3343 -0.00643454 0)
(8.33462 -0.0206893 0)
(8.33072 -0.0299258 0)
(8.3267 -0.0339306 0)
(8.32477 -0.0348299 0)
(8.32485 -0.0342886 0)
(8.32602 -0.0331196 0)
(8.32773 -0.0317187 0)
(8.32977 -0.0303083 0)
(8.33201 -0.0290055 0)
(8.33434 -0.0278617 0)
(8.33671 -0.0268935 0)
(8.33906 -0.0260994 0)
(8.34139 -0.0254689 0)
(8.34366 -0.0249874 0)
(8.34588 -0.0246392 0)
(8.34803 -0.024409 0)
(8.35011 -0.0242825 0)
(8.35211 -0.0242469 0)
(8.35403 -0.0242911 0)
(8.35586 -0.0244052 0)
(8.35762 -0.0245808 0)
(8.35929 -0.0248105 0)
(8.36088 -0.0250882 0)
(8.36238 -0.0254086 0)
(8.36379 -0.025767 0)
(8.36512 -0.0261596 0)
(8.36637 -0.0265829 0)
(8.36753 -0.0270341 0)
(8.36861 -0.0275106 0)
(8.36961 -0.0280104 0)
(8.37052 -0.0285317 0)
(8.37136 -0.0290726 0)
(8.32884 0.0225958 0)
(8.32235 0.0427725 0)
(8.32668 0.044005 0)
(8.3333 0.0380508 0)
(8.3378 0.0307083 0)
(8.34062 0.0235595 0)
(8.34291 0.0169199 0)
(8.34508 0.0109678 0)
(8.34725 0.00575885 0)
(8.3495 0.00124548 0)
(8.35184 -0.00265238 0)
(8.35427 -0.0060165 0)
(8.35678 -0.00892453 0)
(8.35934 -0.0114469 0)
(8.36193 -0.0136451 0)
(8.36453 -0.0155713 0)
(8.36712 -0.0172699 0)
(8.36968 -0.0187778 0)
(8.37219 -0.0201263 0)
(8.37465 -0.0213412 0)
(8.37704 -0.0224442 0)
(8.37936 -0.0234535 0)
(8.3816 -0.024384 0)
(8.38375 -0.0252486 0)
(8.38581 -0.0260578 0)
(8.38778 -0.0268205 0)
(8.38965 -0.0275443 0)
(8.39142 -0.0282353 0)
(8.39309 -0.0288992 0)
(8.39466 -0.0295401 0)
(8.39613 -0.0301624 0)
(8.3975 -0.0307686 0)
(8.39877 -0.0313631 0)
(8.32436 -0.0380292 0)
(8.29386 -0.0683191 0)
(8.27215 -0.071696 0)
(8.26668 -0.068602 0)
(8.27357 -0.0642613 0)
(8.28618 -0.059441 0)
(8.30092 -0.0547664 0)
(8.31622 -0.0505995 0)
(8.33123 -0.0470012 0)
(8.34549 -0.0439464 0)
(8.35881 -0.0413902 0)
(8.37112 -0.0392734 0)
(8.38243 -0.0375342 0)
(8.39278 -0.0361155 0)
(8.40223 -0.0349672 0)
(8.41085 -0.0340462 0)
(8.4187 -0.0333158 0)
(8.42584 -0.0327455 0)
(8.43234 -0.0323097 0)
(8.43823 -0.0319873 0)
(8.44358 -0.0317607 0)
(8.44843 -0.0316155 0)
(8.45281 -0.0315394 0)
(8.45676 -0.0315226 0)
(8.46031 -0.0315566 0)
(8.4635 -0.0316344 0)
(8.46634 -0.0317501 0)
(8.46887 -0.0318986 0)
(8.4711 -0.0320758 0)
(8.47305 -0.0322778 0)
(8.47475 -0.0325014 0)
(8.47621 -0.0327436 0)
(8.47746 -0.0330008 0)
(8.34002 0.156989 0)
(8.38199 0.148998 0)
(8.40249 0.103378 0)
(8.3994 0.0644992 0)