/*--------------------------------*- C++ -*----------------------------------*\
| =========                 |                                                 |
| \\      /  F ield         | OpenFOAM: The Open Source CFD Toolbox           |
|  \\    /   O peration     | Version:  2.1.1                                 |
|   \\  /    A nd           | Web:      www.OpenFOAM.org                      |
|    \\/     M anipulation  |                                                 |
\*---------------------------------------------------------------------------*/
FoamFile
{
    version     2.0;
    format      ascii;
    class       volScalarField;
    location    "0.145";
    object      epsilon;
}
// * * * * * * * * * * * * * * * * * * * * * * * * * * * * * * * * * * * * * //

dimensions      [0 2 -3 0 0 0 0];

internalField   nonuniform List<scalar> 
6820
(
151.448
203.151
260.735
321.761
383.629
443.727
499.769
550.047
593.504
629.701
658.705
680.955
697.128
708.019
714.456
717.235
717.084
714.647
710.471
705.018
698.662
691.708
684.396
676.913
669.404
661.976
654.706
647.665
640.806
634.537
626.986
627.121
591.958
11.7448
21.4173
29.9435
38.6238
47.5789
56.5551
65.3153
73.6583
81.4219
88.4976
94.8306
100.414
105.277
109.478
113.087
116.181
118.839
121.132
123.126
124.879
126.439
127.848
129.14
130.343
131.48
132.572
133.639
134.702
135.787
136.962
138.247
140.099
142.237
5.83781
7.5168
9.20662
10.8093
12.3198
13.7474
15.0884
16.3392
17.4981
18.565
19.5416
20.4315
21.24
21.9735
22.6394
23.2452
23.7985
24.3067
24.7767
25.2148
25.6267
26.0174
26.3914
26.7523
27.1034
27.4474
27.7866
28.1232
28.4587
28.7958
29.1365
29.4777
29.8666
5.2423
5.56004
6.00443
6.49346
6.9857
7.46191
7.91302
8.33471
8.72533
9.0847
9.41358
9.71333
9.98562
10.2324
10.4556
10.6574
10.8396
11.0043
11.1533
11.2883
11.411
11.5229
11.6253
11.7196
11.8068
11.888
11.9638
12.0352
12.1024
12.1659
12.2253
12.2811
12.3306
5.17349
5.18677
5.26821
5.39776
5.55638
5.72968
5.90779
6.08429
6.25513
6.41789
6.57118
6.71429
6.847
6.96937
7.08166
7.18429
7.27776
7.36262
7.43944
7.50882
7.57134
7.62757
7.67808
7.72337
7.76396
7.8003
7.83283
7.86194
7.88799
7.91128
7.93206
7.95058
7.96693
5.16878
5.12131
5.09602
5.09482
5.11536
5.15307
5.20299
5.26075
5.32292
5.38692
5.45088
5.51348
5.57379
5.63121
5.68534
5.73596
5.78297
5.82636
5.86619
5.90257
5.93563
5.96553
5.99245
6.01658
6.03811
6.05721
6.07409
6.08892
6.10188
6.11313
6.12286
6.13116
6.13823
5.16887
5.11169
5.06116
5.01963
4.9884
4.96754
4.95615
4.95279
4.95587
4.96385
4.97542
4.98944
5.00501
5.0214
5.03806
5.05455
5.07055
5.08582
5.10019
5.11356
5.12584
5.13701
5.14704
5.15595
5.16377
5.17053
5.17629
5.18108
5.18499
5.18805
5.19035
5.19192
5.19286
5.16902
5.11063
5.05514
5.00339
4.95619
4.91413
4.87746
4.8461
4.81972
4.7978
4.77979
4.76509
4.75315
4.74346
4.73557
4.72911
4.72374
4.71919
4.71523
4.71168
4.7084
4.70526
4.70216
4.69904
4.69584
4.69252
4.68905
4.68542
4.68162
4.67764
4.67349
4.66916
4.66468
5.16904
5.11054
5.05431
5.00049
4.94927
4.9009
4.85558
4.81345
4.77455
4.73881
4.7061
4.67622
4.64895
4.62403
4.60123
4.58031
4.56104
4.54321
4.52665
4.51118
4.49666
4.48297
4.46999
4.45763
4.4458
4.43445
4.4235
4.41291
4.40264
4.39265
4.38292
4.37342
4.36413
5.16904
5.11054
5.0542
5.00002
4.94795
4.89803
4.85027
4.80471
4.76138
4.72027
4.68138
4.64465
4.61
4.57735
4.54658
4.51758
4.49023
4.46441
4.43999
4.41688
4.39496
4.37414
4.35431
4.33541
4.31735
4.30006
4.28349
4.26757
4.25226
4.23752
4.22329
4.20956
4.19627
5.16904
5.11053
5.05418
4.99994
4.94772
4.89747
4.84913
4.80264
4.75799
4.71514
4.67405
4.63469
4.59703
4.56102
4.52659
4.4937
4.46227
4.43225
4.40355
4.37612
4.34988
4.32477
4.30073
4.27768
4.25557
4.23435
4.21397
4.19437
4.17551
4.15735
4.13986
4.12299
4.1067
5.16904
5.11052
5.05417
4.99991
4.94767
4.89735
4.84888
4.80218
4.75719
4.71384
4.67209
4.63188
4.59317
4.5559
4.52004
4.48554
4.45234
4.42041
4.38969
4.36014
4.3317
4.30434
4.27801
4.25265
4.22824
4.20471
4.18204
4.16019
4.13911
4.11878
4.09915
4.0802
4.06189
5.16904
5.11052
5.05416
4.99989
4.94764
4.89731
4.84881
4.80206
4.75698
4.71351
4.67158
4.63113
4.59209
4.55442
4.51807
4.48299
4.44913
4.41645
4.3849
4.35444
4.32504
4.29665
4.26923
4.24276
4.21718
4.19247
4.1686
4.14553
4.12323
4.10166
4.08081
4.06065
4.04113
5.16903
5.11051
5.05415
4.99988
4.94762
4.89728
4.84876
4.802
4.7569
4.7134
4.67142
4.6309
4.59177
4.55399
4.51749
4.48222
4.44814
4.41519
4.38334
4.35255
4.32277
4.29397
4.26611
4.23915
4.21307
4.18782
4.16339
4.13974
4.11684
4.09467
4.07319
4.05239
4.03224
5.16903
5.11051
5.05414
4.99987
4.9476
4.89725
4.84873
4.80195
4.75685
4.71333
4.67133
4.63079
4.59164
4.55382
4.51727
4.48194
4.44779
4.41476
4.38282
4.35191
4.322
4.29304
4.26502
4.23788
4.21159
4.18613
4.16147
4.13757
4.11441
4.09197
4.07021
4.04911
4.02866
5.16903
5.11051
5.05413
4.99986
4.94758
4.89723
4.8487
4.80192
4.7568
4.71327
4.67127
4.63071
4.59154
4.55371
4.51714
4.4818
4.44762
4.41457
4.38258
4.35163
4.32168
4.29267
4.26458
4.23738
4.21102
4.18548
4.16073
4.13673
4.11347
4.09091
4.06903
4.04781
4.02722
5.16903
5.1105
5.05413
4.99985
4.94757
4.89721
4.84867
4.80188
4.75676
4.71322
4.67121
4.63064
4.59147
4.55362
4.51704
4.48169
4.4475
4.41443
4.38243
4.35146
4.32149
4.29246
4.26435
4.23712
4.21073
4.18516
4.16037
4.13633
4.11303
4.09042
4.0685
4.04722
4.02658
5.16903
5.1105
5.05412
4.99984
4.94756
4.89719
4.84865
4.80185
4.75672
4.71318
4.67115
4.63058
4.5914
4.55354
4.51696
4.48159
4.44739
4.41431
4.3823
4.35132
4.32133
4.2923
4.26417
4.23692
4.21052
4.18493
4.16012
4.13607
4.11274
4.09012
4.06817
4.04687
4.02619
5.16903
5.1105
5.05412
4.99983
4.94755
4.89718
4.84863
4.80183
4.75669
4.71314
4.67111
4.63053
4.59133
4.55347
4.51687
4.4815
4.44729
4.4142
4.38218
4.35119
4.3212
4.29215
4.26401
4.23675
4.21034
4.18474
4.15992
4.13585
4.11251
4.08987
4.0679
4.04658
4.02589
5.16903
5.1105
5.05412
4.99982
4.94754
4.89716
4.84861
4.8018
4.75666
4.7131
4.67106
4.63048
4.59128
4.5534
4.5168
4.48142
4.4472
4.4141
4.38207
4.35108
4.32107
4.29201
4.26386
4.2366
4.21017
4.18456
4.15973
4.13565
4.1123
4.08964
4.06766
4.04633
4.02562
5.16903
5.1105
5.05411
4.99982
4.94753
4.89715
4.8486
4.80178
4.75663
4.71307
4.67103
4.63043
4.59122
4.55334
4.51673
4.48134
4.44711
4.41401
4.38197
4.35097
4.32095
4.29188
4.26373
4.23645
4.21001
4.18439
4.15955
4.13546
4.11209
4.08943
4.06743
4.04609
4.02537
5.16903
5.11049
5.05411
4.99981
4.94752
4.89714
4.84858
4.80177
4.75661
4.71304
4.67099
4.63039
4.59118
4.55329
4.51667
4.48127
4.44704
4.41392
4.38188
4.35087
4.32084
4.29176
4.2636
4.23631
4.20986
4.18423
4.15938
4.13528
4.1119
4.08922
4.06722
4.04586
4.02513
5.16903
5.11049
5.05411
4.99981
4.94752
4.89713
4.84857
4.80175
4.75659
4.71302
4.67096
4.63035
4.59113
4.55324
4.51662
4.48121
4.44697
4.41384
4.38179
4.35077
4.32074
4.29165
4.26348
4.23618
4.20973
4.18408
4.15922
4.13511
4.11172
4.08903
4.06701
4.04565
4.0249
5.16903
5.11049
5.0541
4.99981
4.94751
4.89712
4.84856
4.80174
4.75657
4.713
4.67093
4.63032
4.5911
4.5532
4.51657
4.48115
4.4469
4.41377
4.38172
4.35069
4.32064
4.29155
4.26337
4.23606
4.2096
4.18394
4.15907
4.13495
4.11155
4.08885
4.06682
4.04544
4.02468
5.16903
5.11049
5.0541
4.9998
4.94751
4.89712
4.84855
4.80172
4.75656
4.71298
4.67091
4.63029
4.59106
4.55316
4.51652
4.4811
4.44685
4.41371
4.38164
4.35061
4.32056
4.29145
4.26326
4.23595
4.20948
4.18381
4.15893
4.1348
4.11139
4.08868
4.06664
4.04525
4.02448
5.16903
5.11049
5.0541
4.9998
4.9475
4.89711
4.84854
4.80171
4.75654
4.71296
4.67089
4.63027
4.59103
4.55312
4.51648
4.48106
4.4468
4.41365
4.38158
4.35054
4.32048
4.29137
4.26317
4.23585
4.20937
4.1837
4.15881
4.13467
4.11125
4.08853
4.06648
4.04508
4.0243
5.16903
5.11049
5.0541
4.9998
4.9475
4.89711
4.84854
4.8017
4.75653
4.71294
4.67087
4.63025
4.59101
4.55309
4.51644
4.48101
4.44675
4.4136
4.38152
4.35047
4.32041
4.29129
4.26309
4.23575
4.20927
4.18359
4.15869
4.13454
4.11111
4.08838
4.06632
4.04491
4.02412
5.16903
5.11049
5.0541
4.9998
4.9475
4.89711
4.84853
4.8017
4.75653
4.71294
4.67086
4.63023
4.59099
4.55307
4.51642
4.48099
4.44672
4.41356
4.38148
4.35042
4.32035
4.29123
4.26302
4.23568
4.20918
4.1835
4.15859
4.13443
4.111
4.08826
4.06619
4.04477
4.02397
5.16903
5.11049
5.0541
4.9998
4.9475
4.8971
4.84853
4.80169
4.75651
4.71292
4.67084
4.63021
4.59096
4.55304
4.51639
4.48095
4.44668
4.41352
4.38143
4.35037
4.32029
4.29116
4.26295
4.2356
4.2091
4.18341
4.15849
4.13433
4.11089
4.08814
4.06606
4.04464
4.02383
5.16903
5.11049
5.0541
4.9998
4.9475
4.89711
4.84853
4.8017
4.75653
4.71293
4.67086
4.63023
4.59098
4.55305
4.5164
4.48095
4.44668
4.41351
4.38142
4.35035
4.32027
4.29114
4.26291
4.23557
4.20906
4.18336
4.15844
4.13426
4.11082
4.08806
4.06598
4.04454
4.02373
5.16903
5.11049
5.0541
4.9998
4.9475
4.8971
4.84853
4.80169
4.75651
4.71291
4.67083
4.6302
4.59095
4.55303
4.51637
4.48093
4.44665
4.41348
4.38139
4.35032
4.32024
4.29111
4.26288
4.23553
4.20902
4.18332
4.1584
4.13422
4.11077
4.08802
4.06593
4.0445
4.02368
5.16903
5.11049
5.0541
4.99981
4.94752
4.89714
4.84858
4.80176
4.75659
4.71301
4.67093
4.63031
4.59106
4.55314
4.51648
4.48103
4.44676
4.41359
4.3815
4.35043
4.32035
4.29122
4.26299
4.23565
4.20914
4.18345
4.15853
4.13437
4.11093
4.08819
4.06612
4.04469
4.02389
5.16903
5.11051
5.05414
4.99985
4.94756
4.89718
4.84861
4.80178
4.75661
4.71302
4.67096
4.63034
4.5911
4.5532
4.51656
4.48114
4.44689
4.41376
4.3817
4.35068
4.32065
4.29157
4.2634
4.23611
4.20967
4.18405
4.15921
4.13513
4.11177
4.08912
4.06714
4.04581
4.02511
5.16903
5.1105
5.05415
4.99992
4.9477
4.89739
4.8489
4.80214
4.75704
4.71352
4.67152
4.63097
4.59182
4.55401
4.51749
4.4822
4.44809
4.41513
4.38326
4.35245
4.32264
4.29381
4.26591
4.23892
4.21278
4.18748
4.16298
4.13925
4.11626
4.09399
4.0724
4.05148
4.03119
5.16905
5.11063
5.0544
5.00025
4.94809
4.89786
4.84947
4.80288
4.75802
4.71482
4.67323
4.63319
4.59462
4.55749
4.52173
4.48728
4.4541
4.42214
4.39134
4.36165
4.33303
4.30544
4.27882
4.25315
4.22837
4.20446
4.18137
4.15907
4.13752
4.1167
4.09658
4.07712
4.05829
5.16908
5.11079
5.05488
5.00137
4.95017
4.9012
4.85441
4.80973
4.76711
4.72649
4.68781
4.65099
4.61595
4.58259
4.55085
4.52062
4.49183
4.46439
4.43823
4.41326
4.38942
4.36664
4.34486
4.32401
4.30403
4.28488
4.26651
4.24887
4.23192
4.21562
4.19993
4.18481
4.17024
5.16939
5.11358
5.06201
5.01464
4.97149
4.93249
4.89747
4.86615
4.83823
4.81338
4.79127
4.77161
4.75409
4.73848
4.72453
4.71204
4.70082
4.6907
4.68154
4.67322
4.66561
4.65863
4.65218
4.6462
4.64061
4.63537
4.63042
4.62571
4.62122
4.61691
4.61275
4.60872
4.6048
5.17808
5.16328
5.1695
5.19117
5.22435
5.26599
5.31371
5.36563
5.42032
5.4767
5.53392
5.59134
5.64844
5.70484
5.76026
5.81446
5.86729
5.91863
5.96841
6.01658
6.06311
6.10801
6.15127
6.19292
6.23299
6.27151
6.30852
6.34407
6.37821
6.41097
6.44242
6.4726
6.50158
5.63861
6.43045
7.14592
7.82581
8.49501
9.14754
9.77749
10.3825
10.9625
11.5183
12.0513
12.5631
13.0551
13.5289
13.9857
14.4265
14.8524
15.2643
15.6629
16.049
16.423
16.7856
17.1373
17.4786
17.8098
18.1314
18.4437
18.7471
19.042
19.3286
19.6073
19.8784
20.1422
44.7794
48.3124
51.8864
55.4656
59.0311
62.5709
66.0744
69.5318
72.9345
76.2745
79.5451
82.7405
85.8556
88.8866
91.8302
94.6841
97.4465
100.116
102.693
105.177
107.569
109.869
112.078
114.199
116.232
118.18
120.045
121.829
123.534
125.163
126.718
128.202
129.618
705.072
837.176
941.705
1022.53
1084.78
1128.41
1151.42
1152.7
1133.7
1098.38
1052.04
1000.04
946.814
895.421
847.512
803.658
763.75
727.366
694.021
663.301
634.9
608.596
584.219
561.615
540.618
521.049
502.711
485.405
468.933
453.108
437.758
422.729
407.887
393.115
378.312
363.396
348.299
332.971
317.38
301.51
285.368
268.98
252.393
235.674
218.915
202.221
185.719
169.544
153.843
138.761
124.438
111.003
98.5646
87.204
76.974
67.8938
59.951
53.1036
47.286
42.4152
38.398
35.1378
32.5399
30.5151
28.9814
27.8643
27.0957
26.6113
26.3491
26.247
26.242
26.2698
26.2663
26.1694
25.9225
25.4773
24.797
23.859
22.657
21.2018
19.522
17.6632
15.6865
13.6652
11.6795
9.80896
8.12325
6.67262
5.48115
4.5456
3.84062
3.32802
2.96633
2.71737
2.54982
2.43924
2.36846
2.32389
2.29926
2.28458
147.12
154.088
164.454
179.428
199.915
226.647
259.758
298.51
341.251
385.568
428.592
467.433
499.641
523.586
538.641
545.155
544.227
537.389
526.28
512.402
496.975
480.881
464.696
448.744
433.175
418.028
403.281
388.882
374.768
360.874
347.136
333.49
319.878
306.245
292.545
278.739
264.799
250.71
236.475
222.11
207.649
193.144
178.665
164.298
150.141
136.305
122.909
110.073
97.9126
86.5347
76.0292
66.4643
57.882
50.2956
43.6898
38.0228
33.2315
29.2374
25.9534
23.2904
21.1629
19.4927
18.2113
17.2602
16.5904
16.1609
15.9364
15.8845
15.9738
16.1706
16.438
16.7345
17.0144
17.2298
17.3333
17.2813
17.0385
16.5808
15.8983
14.9975
13.9012
12.6485
11.2921
9.89416
8.52096
7.23485
6.08663
5.10902
4.31388
3.69399
3.2287
2.89081
2.65242
2.48852
2.37872
2.30692
2.26195
2.23441
2.22055
2.21437
30.2367
30.6634
31.3148
32.372
34.0287
36.3239
39.457
43.7401
49.5174
57.1273
66.8477
78.8332
93.0541
109.254
126.944
145.435
163.913
181.532
197.52
211.263
222.362
230.646
236.154
239.082
239.726
238.426
235.52
231.31
226.049
219.938
213.129
205.732
197.831
189.486
180.748
171.661
162.27
152.626
142.783
132.805
122.765
112.743
102.827
93.1115
83.6925
74.6663
66.1239
58.1469
50.803
44.1416
38.1913
32.9582
28.4261
24.5595
21.3068
18.606
16.3898
14.591
13.1461
11.9981
11.0985
10.4067
9.89031
9.52384
9.28769
9.16674
9.14892
9.22366
9.38015
9.60561
9.88362
10.1929
10.5066
10.7931
11.0176
11.1451
11.1441
10.9903
10.6704
10.1841
9.54541
8.78223
7.93388
7.04714
6.17071
5.34901
4.61647
3.99386
3.48771
3.09256
2.79511
2.57845
2.42538
2.32034
2.25055
2.20562
2.17845
2.16252
2.15587
2.15485
12.3837
12.4554
12.5461
12.6618
12.8174
13.0338
13.3172
13.6857
14.1742
14.8284
15.7025
16.8581
18.362
20.2833
22.6891
25.6365
29.1624
33.2721
37.929
43.0485
48.4991
54.11
59.6858
65.024
69.9331
74.2477
77.8392
80.6205
82.5459
83.6062
83.8225
83.2384
81.9126
79.9137
77.3157
74.1955
70.6314
66.7028
62.4898
58.0732
53.5337
48.9518
44.4056
39.9696
35.7123
31.6937
27.9629
24.5564
21.4965
18.7916
16.4365
14.4146
12.7005
11.2632
10.0691
9.08461
8.27826
7.62185
7.09112
6.66577
6.32935
6.06884
5.87423
5.7381
5.65516
5.62182
5.63566
5.69485
5.79743
5.94035
6.11844
6.32335
6.54265
6.75948
6.953
7.09988
7.17674
7.16322
7.04523
6.81761
6.48563
6.06512
5.58075
5.06298
4.54373
4.05199
3.61012
3.23178
2.92185
2.67806
2.49332
2.35817
2.26264
2.19744
2.15476
2.12798
2.11273
2.10444
2.10238
2.10411
7.98356
8.00132
8.01844
8.0352
8.053
8.07467
8.10378
8.1414
8.19122
8.25845
8.34973
8.47292
8.63699
8.85181
9.12781
9.47556
9.90521
10.4258
11.0443
11.765
12.5882
13.5094
14.5184
15.5986
16.7267
17.8729
19.0024
20.0768
21.0567
21.9041
22.5853
23.0726
23.3462
23.3948
23.2164
22.8174
22.2125
21.4229
20.4758
19.4021
18.2353
17.0099
15.7593
14.515
13.3046
12.1512
11.0724
10.0805
9.18229
8.37996
7.67169
7.05276
6.51654
6.05531
5.66096
5.32556
5.04166
4.80256
4.60238
4.43612
4.29966
4.18973
4.10386
4.04034
3.99811
3.97671
3.97616
3.99674
4.03876
4.10213
4.18584
4.28739
4.40207
4.52249
4.63838
4.73699
4.80421
4.82633
4.79223
4.69555
4.53619
4.32092
4.06267
3.77862
3.48757
3.20709
2.95121
2.72912
2.54496
2.39859
2.28687
2.20486
2.14708
2.10808
2.0832
2.06827
2.06066
2.05709
2.05772
2.06049
6.14475
6.15
6.15307
6.15427
6.1539
6.15236
6.15017
6.14786
6.14609
6.14575
6.14793
6.15397
6.16539
6.18397
6.21165
6.25046
6.30242
6.36941
6.45301
6.55436
6.67403
6.81187
6.96689
7.13721
7.3199
7.51101
7.70558
7.89769
8.08072
8.24757
8.39103
8.50415
8.58069
8.6155
8.60488
8.54683
8.44122
8.28977
8.09597
7.86487
7.6027
7.31653
7.01381
6.70198
6.38806
6.07835
5.77822
5.49196
5.22274
4.97269
4.74296
4.53389
4.34518
4.17601
4.02524
3.89152
3.77341
3.66948
3.57836
3.49882
3.42979
3.37044
3.32013
3.27849
3.24539
3.22095
3.2055
3.19954
3.20362
3.21821
3.24343
3.2788
3.32282
3.37265
3.42388
3.47046
3.50513
3.52014
3.50847
3.46511
3.3882
3.27972
3.14537
2.99378
2.83502
2.67908
2.53436
2.40684
2.29974
2.21379
2.14782
2.0994
2.06557
2.0432
2.02956
2.02197
2.01896
2.01803
2.02
2.02261
5.19305
5.19205
5.18963
5.18577
5.18046
5.17376
5.16572
5.15655
5.14645
5.13564
5.12435
5.11283
5.10137
5.09031
5.08007
5.0711
5.06388
5.05893
5.05672
5.05766
5.06204
5.07002
5.08153
5.09631
5.11384
5.13334
5.15378
5.1739
5.19224
5.2072
5.2171
5.22027
5.21511
5.20024
5.1745
5.13709
5.08763
5.02613
4.95305
4.86926
4.776
4.67481
4.56742
4.4557
4.34154
4.22675
4.11303
4.00185
3.89446
3.79184
3.6947
3.60349
3.51844
3.43955
3.36668
3.29956
3.23782
3.18105
3.12884
3.08076
3.03647
2.99567
2.95816
2.92384
2.89273
2.86497
2.84081
2.82061
2.8048
2.79382
2.78799
2.78742
2.79181
2.80022
2.81095
2.82143
2.8283
2.82769
2.81576
2.78939
2.74685
2.68827
2.61585
2.53351
2.4463
2.35954
2.27798
2.20526
2.14358
2.09375
2.05543
2.02744
2.00821
1.99591
1.98895
1.98559
1.98504
1.9853
1.98767
1.98933
4.65919
4.65236
4.64473
4.63623
4.62684
4.61659
4.60547
4.59351
4.58073
4.56716
4.55285
4.53783
4.52214
4.50585
4.48899
4.47166
4.45396
4.43599
4.41789
4.3998
4.38183
4.3641
4.34666
4.32952
4.31264
4.29588
4.27904
4.26184
4.24394
4.22494
4.20438
4.1818
4.15676
4.12883
4.09765
4.06296
4.02459
3.9825
3.93677
3.88764
3.83543
3.7806
3.72367
3.66525
3.60595
3.5464
3.4872
3.42888
3.37193
3.31673
3.26357
3.21264
3.16404
3.11777
3.07378
3.03193
2.99205
2.95393
2.91736
2.88214
2.84808
2.81502
2.78287
2.75158
2.72116
2.6917
2.66337
2.63639
2.61105
2.58767
2.56655
2.54793
2.5319
2.51829
2.50656
2.49578
2.48455
2.47114
2.45371
2.43058
2.40062
2.36357
2.32014
2.27202
2.22159
2.17151
2.12433
2.08208
2.04609
2.01697
1.99462
1.97846
1.96762
1.96101
1.95769
1.95645
1.95691
1.9574
1.95954
1.95975
4.35349
4.34124
4.32867
4.3157
4.3023
4.28844
4.27408
4.25921
4.24384
4.22797
4.21158
4.19468
4.17725
4.15927
4.14073
4.1216
4.10189
4.08159
4.06072
4.0393
4.01735
3.9949
3.972
3.94866
3.92491
3.90075
3.87615
3.85109
3.8255
3.7993
3.7724
3.74468
3.71604
3.68638
3.6556
3.62363
3.59045
3.55605
3.52048
3.48384
3.44626
3.40791
3.369
3.32975
3.2904
3.2512
3.21236
3.17411
3.13661
3.1
3.06436
3.02974
2.99613
2.9635
2.93174
2.90076
2.8704
2.84053
2.81098
2.78161
2.75229
2.72291
2.69339
2.66371
2.63386
2.6039
2.57393
2.54409
2.51458
2.48564
2.45749
2.43039
2.40453
2.38
2.35677
2.33459
2.31301
2.29139
2.26896
2.24497
2.21886
2.19038
2.15978
2.12773
2.09533
2.06382
2.03449
2.00837
1.98621
1.96831
1.95464
1.94486
1.93845
1.9347
1.93302
1.93253
1.93308
1.93317
1.93467
1.93314
4.18129
4.16436
4.14737
4.13026
4.113
4.09557
4.07793
4.06008
4.04199
4.02367
4.00509
3.98623
3.96707
3.94759
3.92776
3.90755
3.88694
3.86589
3.84439
3.82242
3.79997
3.77704
3.75363
3.72974
3.70539
3.68059
3.65535
3.62967
3.60358
3.57706
3.55012
3.52275
3.49496
3.46674
3.4381
3.40904
3.37959
3.34978
3.31965
3.28926
3.2587
3.22804
3.19738
3.16682
3.13646
3.10641
3.07674
3.04753
3.01883
2.99066
2.96302
2.9359
2.90923
2.88294
2.85693
2.83108
2.80528
2.77938
2.75327
2.72681
2.69992
2.67249
2.64446
2.61582
2.58655
2.55669
2.52632
2.49553
2.46448
2.43333
2.40229
2.37157
2.34136
2.31187
2.28321
2.25545
2.22855
2.20236
2.17668
2.15127
2.12591
2.10054
2.07524
2.05033
2.02627
2.00363
1.98302
1.96492
1.94967
1.93739
1.92802
1.9213
1.91687
1.91422
1.91296
1.91237
1.91243
1.91173
1.91236
1.90895
4.08838
4.0678
4.04727
4.02677
4.00627
3.98576
3.96521
3.94462
3.92397
3.90325
3.88245
3.86156
3.84057
3.81944
3.79816
3.77672
3.75507
3.7332
3.71108
3.68868
3.666
3.64302
3.61972
3.5961
3.57216
3.5479
3.52333
3.49846
3.47331
3.44789
3.42222
3.39632
3.37021
3.34393
3.31749
3.29094
3.26429
3.2376
3.21091
3.18426
3.15771
3.1313
3.10508
3.07911
3.05343
3.02808
3.00308
2.97845
2.95418
2.93025
2.90663
2.88326
2.86007
2.83697
2.81385
2.7906
2.76712
2.74327
2.71896
2.69407
2.66851
2.64221
2.61513
2.58722
2.55851
2.529
2.49877
2.46789
2.43649
2.40472
2.37273
2.34072
2.30888
2.27742
2.24652
2.21634
2.18702
2.15864
2.13123
2.10481
2.07939
2.055
2.03173
2.00973
1.98925
1.97052
1.95381
1.93932
1.92716
1.91733
1.90973
1.90413
1.90025
1.89767
1.89609
1.89489
1.89413
1.89243
1.89207
1.88674
4.04129
4.01814
3.99508
3.97209
3.94917
3.92629
3.90345
3.88066
3.85789
3.83515
3.81243
3.78972
3.76702
3.74432
3.7216
3.69885
3.67606
3.6532
3.63025
3.60721
3.58405
3.56076
3.53732
3.51374
3.49
3.4661
3.44205
3.41786
3.39352
3.36906
3.3445
3.31985
3.29513
3.27038
3.24562
3.22089
3.19621
3.17161
3.14714
3.12283
3.09872
3.07483
3.05119
3.02783
3.00477
2.98202
2.95957
2.93741
2.91551
2.89384
2.87234
2.85094
2.82957
2.80813
2.78653
2.76465
2.74239
2.71965
2.69632
2.67231
2.64754
2.62195
2.59549
2.56815
2.53993
2.51084
2.48096
2.45034
2.41911
2.38739
2.35533
2.32309
2.29087
2.25887
2.22727
2.19628
2.16609
2.13685
2.10872
2.08181
2.05624
2.03211
2.00953
1.98861
1.96947
1.95224
1.93701
1.92386
1.91278
1.9037
1.8965
1.89095
1.88681
1.88371
1.88141
1.87933
1.87758
1.87479
1.8734
1.8662
4.01913
3.99439
3.96972
3.94512
3.92057
3.89609
3.87166
3.84729
3.82298
3.79873
3.77455
3.75042
3.72635
3.70235
3.67839
3.65449
3.63062
3.60679
3.58298
3.55918
3.53539
3.51159
3.48777
3.46394
3.44008
3.4162
3.39229
3.36836
3.34443
3.32048
3.29655
3.27265
3.24879
3.22499
3.20128
3.17768
3.15422
3.13092
3.10781
3.08491
3.06225
3.03984
3.01769
2.99583
2.97424
2.95294
2.93189
2.91107
2.89045
2.86999
2.84961
2.82925
2.80883
2.78826
2.76744
2.74628
2.72468
2.70253
2.67975
2.65625
2.63197
2.60684
2.58083
2.55393
2.52613
2.49746
2.46798
2.43776
2.40689
2.37549
2.34372
2.31171
2.27966
2.24774
2.21615
2.1851
2.15477
2.12537
2.09707
2.07005
2.04443
2.02037
1.99798
1.97736
1.95859
1.94175
1.92687
1.91396
1.90295
1.89376
1.88625
1.8802
1.87539
1.87148
1.86826
1.86518
1.86238
1.85847
1.85605
1.84706
4.00949
3.98387
3.95828
3.93274
3.90724
3.88178
3.85637
3.83101
3.8057
3.78046
3.75528
3.73017
3.70513
3.68018
3.6553
3.6305
3.60578
3.58114
3.55658
3.53209
3.50767
3.48332
3.45904
3.43481
3.41065
3.38656
3.36252
3.33856
3.31468
3.29088
3.26718
3.24359
3.22012
3.19678
3.17361
3.1506
3.12779
3.10518
3.08281
3.06067
3.03879
3.01718
2.99584
2.97477
2.95397
2.93341
2.91309
2.89296
2.87299
2.85312
2.83329
2.81344
2.79348
2.77333
2.75289
2.73209
2.71081
2.68898
2.6665
2.64331
2.61933
2.59452
2.56885
2.54229
2.51486
2.48658
2.4575
2.42769
2.39725
2.36628
2.33492
2.30332
2.27164
2.24007
2.20879
2.17799
2.14787
2.11862
2.09044
2.06348
2.03793
2.0139
1.99154
1.97092
1.95213
1.93521
1.92017
1.90699
1.8956
1.8859
1.87774
1.87093
1.86526
1.86041
1.85618
1.85207
1.8482
1.84321
1.8398
1.82913
4.00554
3.97948
3.95344
3.92741
3.9014
3.87542
3.84946
3.82354
3.79766
3.77183
3.74605
3.72033
3.69468
3.6691
3.64361
3.6182
3.59288
3.56765
3.54252
3.51749
3.49255
3.46772
3.443
3.41838
3.39387
3.36948
3.3452
3.32105
3.29703
3.27316
3.24943
3.22587
3.20248
3.17928
3.15628
3.13349
3.11093
3.08861
3.06654
3.04474
3.0232
3.00194
2.98096
2.96024
2.93977
2.91954
2.89952
2.87968
2.85997
2.84034
2.82072
2.80106
2.78127
2.76128
2.74099
2.72033
2.69919
2.67751
2.65519
2.63217
2.6084
2.58381
2.55839
2.53212
2.50501
2.47708
2.44838
2.41898
2.38897
2.35845
2.32755
2.29641
2.26519
2.23405
2.20318
2.17276
2.14297
2.11401
2.08605
2.05927
2.03383
2.00985
1.98746
1.96675
1.94778
1.93059
1.91519
1.90153
1.88956
1.87918
1.87024
1.86257
1.85596
1.85013
1.84489
1.83975
1.83486
1.82883
1.82449
1.81226
4.00395
3.97769
3.95143
3.92517
3.89892
3.87267
3.84644
3.82023
3.79405
3.7679
3.74179
3.71573
3.68972
3.66378
3.63791
3.61211
3.58641
3.56079
3.53527
3.50985
3.48454
3.45935
3.43427
3.40932
3.3845
3.35981
3.33528
3.31089
3.28667
3.26261
3.23874
3.21506
3.19158
3.16832
3.14528
3.12249
3.09994
3.07765
3.05564
3.03389
3.01243
2.99124
2.97033
2.94968
2.92928
2.90911
2.88914
2.86934
2.84966
2.83004
2.81044
2.79078
2.77099
2.751
2.73072
2.71007
2.68896
2.66732
2.64508
2.62217
2.59852
2.57411
2.54889
2.52287
2.49604
2.46843
2.44009
2.41108
2.38148
2.3514
2.32096
2.29028
2.25952
2.22885
2.19841
2.16841
2.139
2.11036
2.08268
2.0561
2.03078
2.00686
1.98443
1.96359
1.94439
1.92687
1.91102
1.89682
1.88421
1.87308
1.86332
1.85476
1.84721
1.84041
1.83419
1.82806
1.82219
1.81519
1.80998
1.79632
4.00323
3.97688
3.95052
3.92416
3.89779
3.87142
3.84506
3.81871
3.79238
3.76607
3.73978
3.71354
3.68734
3.66119
3.6351
3.60908
3.58314
3.55728
3.5315
3.50583
3.48026
3.45481
3.42948
3.40427
3.3792
3.35427
3.3295
3.30488
3.28045
3.25619
3.23213
3.20827
3.18463
3.16122
3.13805
3.11512
3.09246
3.07007
3.04795
3.02611
3.00456
2.98328
2.96228
2.94154
2.92106
2.90079
2.88072
2.86082
2.84103
2.82131
2.8016
2.78183
2.76194
2.74186
2.7215
2.70079
2.67965
2.65801
2.63579
2.61293
2.58938
2.56509
2.54005
2.51424
2.48766
2.46035
2.43234
2.4037
2.3745
2.34484
2.31484
2.28461
2.25431
2.22409
2.19409
2.16449
2.13546
2.10716
2.07975
2.05338
2.0282
2.00432
1.98185
1.96087
1.94142
1.92355
1.90724
1.89248
1.87921
1.86734
1.85676
1.84732
1.83885
1.83111
1.82394
1.81689
1.8101
1.80219
1.79618
1.78123
4.00281
3.97642
3.95001
3.92359
3.89717
3.87074
3.84431
3.81789
3.79148
3.76508
3.73871
3.71237
3.68606
3.65979
3.63358
3.60742
3.58133
3.55532
3.52939
3.50354
3.4778
3.45216
3.42664
3.40125
3.37598
3.35086
3.32589
3.30108
3.27645
3.252
3.22775
3.20371
3.17988
3.15629
3.13294
3.10984
3.087
3.06444
3.04215
3.02014
2.99842
2.97697
2.9558
2.93488
2.91422
2.89377
2.87353
2.85344
2.83347
2.81357
2.79369
2.77376
2.75372
2.7335
2.71302
2.69222
2.67101
2.64932
2.62709
2.60426
2.58077
2.5566
2.5317
2.50608
2.47974
2.4527
2.425
2.39671
2.36788
2.33863
2.30904
2.27925
2.24939
2.2196
2.19002
2.16082
2.13216
2.10418
2.07703
2.05087
2.02581
2.00197
1.97945
1.95832
1.93863
1.9204
1.90364
1.88832
1.8744
1.8618
1.85042
1.84013
1.83078
1.82214
1.81407
1.80613
1.79849
1.78974
1.783
1.76689
4.00249
3.97607
3.94963
3.92318
3.89672
3.87026
3.84379
3.81733
3.79087
3.76442
3.73799
3.71159
3.68521
3.65887
3.63258
3.60633
3.58015
3.55403
3.52799
3.50203
3.47616
3.45039
3.42473
3.39918
3.37377
3.34849
3.32336
3.29839
3.27358
3.24896
3.22453
3.20031
3.1763
3.15252
3.12899
3.1057
3.08267
3.05991
3.03742
3.01521
2.99328
2.97163
2.95024
2.92912
2.90823
2.88757
2.86711
2.8468
2.82662
2.80651
2.78643
2.76631
2.74609
2.72571
2.70509
2.68417
2.66287
2.64112
2.61887
2.59605
2.57261
2.54853
2.52377
2.49832
2.4722
2.44541
2.41801
2.39004
2.36157
2.33269
2.30351
2.27413
2.24469
2.21531
2.18613
2.15731
2.12899
2.10131
2.07442
2.04844
2.0235
1.9997
1.97713
1.95584
1.9359
1.91732
1.90011
1.88425
1.86969
1.85638
1.84423
1.83312
1.82292
1.81343
1.80451
1.79574
1.7873
1.77778
1.77038
1.75324
4.0022
3.97576
3.9493
3.92283
3.89634
3.86985
3.84335
3.81685
3.79036
3.76388
3.73741
3.71096
3.68453
3.65814
3.63178
3.60547
3.57922
3.55302
3.52689
3.50084
3.47487
3.449
3.42322
3.39756
3.37202
3.34661
3.32134
3.29622
3.27127
3.24649
3.2219
3.19751
3.17333
3.14938
3.12566
3.10218
3.07896
3.056
3.03331
3.01089
2.98875
2.96687
2.94526
2.92391
2.9028
2.88191
2.86121
2.84068
2.82027
2.79994
2.77965
2.75933
2.73892
2.71837
2.6976
2.67655
2.65516
2.63334
2.61105
2.58824
2.56484
2.54084
2.5162
2.49092
2.46499
2.43845
2.41132
2.38366
2.35553
2.32701
2.29821
2.26922
2.24017
2.21119
2.18239
2.15393
2.12593
2.09854
2.07188
2.04608
2.02124
1.99746
1.97482
1.95339
1.9332
1.91427
1.89662
1.88022
1.86505
1.85105
1.83815
1.82624
1.81523
1.80491
1.79518
1.78563
1.77645
1.76623
1.75824
1.7402
4.00193
3.97547
3.94899
3.92249
3.89599
3.86947
3.84295
3.81642
3.7899
3.76338
3.73688
3.71039
3.68392
3.65748
3.63107
3.60471
3.57839
3.55213
3.52593
3.4998
3.47374
3.44778
3.42191
3.39614
3.37049
3.34496
3.31957
3.29432
3.26924
3.24432
3.21958
3.19504
3.1707
3.14657
3.12268
3.09902
3.07561
3.05246
3.02957
3.00694
2.98459
2.9625
2.94067
2.91909
2.89775
2.87663
2.85571
2.83494
2.81431
2.79376
2.77325
2.75273
2.73214
2.71142
2.6905
2.66932
2.64783
2.62594
2.60362
2.5808
2.55744
2.53351
2.50898
2.48385
2.45811
2.4318
2.40493
2.37756
2.34975
2.32157
2.29313
2.26452
2.23584
2.20722
2.17879
2.15066
2.12297
2.09585
2.06941
2.04376
2.01901
1.99525
1.97254
1.95095
1.93051
1.91124
1.89315
1.87623
1.86045
1.84577
1.83213
1.81945
1.80764
1.79652
1.78602
1.77573
1.76586
1.75501
1.74649
1.72769
4.00167
3.9752
3.9487
3.92218
3.89565
3.86911
3.84256
3.81601
3.78946
3.76291
3.73637
3.70985
3.68334
3.65686
3.63041
3.60399
3.57762
3.55129
3.52503
3.49882
3.4727
3.44665
3.42069
3.39483
3.36908
3.34344
3.31794
3.29258
3.26736
3.24231
3.21744
3.19275
3.16826
3.14398
3.11992
3.09609
3.0725
3.04917
3.02608
3.00326
2.9807
2.9584
2.93636
2.91457
2.89301
2.87166
2.85051
2.82953
2.80867
2.78791
2.7672
2.74648
2.7257
2.70482
2.68375
2.66245
2.64086
2.61891
2.59654
2.57372
2.55039
2.52653
2.5021
2.47711
2.45155
2.42545
2.39883
2.37173
2.34423
2.31638
2.28828
2.26002
2.2317
2.20343
2.17534
2.14753
2.12013
2.09326
2.06702
2.04152
2.01685
1.99309
1.9703
1.94854
1.92785
1.90823
1.8897
1.87225
1.85586
1.8405
1.82613
1.81267
1.80007
1.78817
1.77691
1.76592
1.75543
1.744
1.73503
1.71564
4.00143
3.97494
3.94842
3.92188
3.89533
3.86877
3.84219
3.81562
3.78904
3.76246
3.73589
3.70933
3.68279
3.65626
3.62977
3.60331
3.57688
3.5505
3.52417
3.49791
3.47171
3.44558
3.41954
3.39359
3.36775
3.34202
3.31641
3.29094
3.26561
3.24044
3.21543
3.19061
3.16597
3.14154
3.11733
3.09334
3.06958
3.04607
3.02281
2.9998
2.97704
2.95454
2.9323
2.91029
2.88852
2.86696
2.8456
2.8244
2.80334
2.78237
2.76146
2.74055
2.7196
2.69856
2.67735
2.65594
2.63424
2.61223
2.58982
2.56699
2.54369
2.51989
2.49557
2.47071
2.44532
2.41942
2.39303
2.3662
2.33899
2.31145
2.28368
2.25576
2.22778
2.19985
2.17208
2.14458
2.11745
2.09081
2.06476
2.03939
2.01478
1.99101
1.96813
1.9462
1.92523
1.90525
1.88626
1.86827
1.85125
1.83519
1.82005
1.8058
1.7924
1.77971
1.76772
1.75606
1.74499
1.73308
1.72375
1.70396
4.0012
3.97469
3.94815
3.9216
3.89503
3.86844
3.84185
3.81524
3.78864
3.76203
3.73543
3.70884
3.68226
3.6557
3.62916
3.60265
3.57618
3.54975
3.52336
3.49703
3.47077
3.44457
3.41845
3.39243
3.3665
3.34067
3.31497
3.28939
3.26395
3.23866
3.21354
3.18858
3.16382
3.13925
3.11489
3.09074
3.06683
3.04315
3.01972
2.99653
2.97359
2.9509
2.92846
2.90626
2.88429
2.86253
2.84096
2.81956
2.79829
2.77713
2.75603
2.73495
2.71383
2.69264
2.6713
2.64977
2.62799
2.60591
2.58347
2.56064
2.53736
2.51362
2.4894
2.46467
2.43945
2.41374
2.38758
2.36101
2.33408
2.30684
2.27939
2.25179
2.22414