/*--------------------------------*- C++ -*----------------------------------*\
| =========                 |                                                 |
| \\      /  F ield         | OpenFOAM: The Open Source CFD Toolbox           |
|  \\    /   O peration     | Version:  2.1.1                                 |
|   \\  /    A nd           | Web:      www.OpenFOAM.org                      |
|    \\/     M anipulation  |                                                 |
\*---------------------------------------------------------------------------*/
FoamFile
{
    version     2.0;
    format      ascii;
    class       volScalarField;
    location    "0.145";
    object      k;
}
// * * * * * * * * * * * * * * * * * * * * * * * * * * * * * * * * * * * * * //

dimensions      [0 2 -2 0 0 0 0];

internalField   nonuniform List<scalar> 
6820
(
0.288909
0.351398
0.415005
0.477466
0.53686
0.591558
0.640373
0.682632
0.71813
0.747039
0.769805
0.787044
0.799457
0.807762
0.81265
0.814756
0.814642
0.812795
0.809626
0.805477
0.800629
0.795308
0.789693
0.783926
0.778118
0.772351
0.766685
0.761178
0.755794
0.750857
0.744888
0.744995
0.716879
0.265532
0.269396
0.270523
0.27134
0.272558
0.274213
0.276223
0.278472
0.280851
0.283273
0.285683
0.288049
0.290363
0.29263
0.294863
0.297082
0.299305
0.301551
0.303837
0.306174
0.308572
0.311037
0.313572
0.316179
0.318856
0.321603
0.324422
0.327319
0.330306
0.333441
0.336738
0.340682
0.344788
0.262038
0.264254
0.263596
0.261557
0.259001
0.256319
0.253627
0.250939
0.248241
0.245525
0.242795
0.240062
0.237346
0.234668
0.232052
0.229518
0.227085
0.224768
0.22258
0.22053
0.218624
0.216866
0.215257
0.213798
0.212486
0.211318
0.210291
0.209402
0.208646
0.208026
0.207527
0.20718
0.20692
0.259885
0.260272
0.259797
0.258535
0.256829
0.254891
0.252833
0.25071
0.248547
0.246359
0.244153
0.241936
0.239715
0.237497
0.235289
0.2331
0.230936
0.228805
0.226713
0.224665
0.222668
0.220725
0.218839
0.217014
0.215251
0.213551
0.211915
0.210343
0.208834
0.207388
0.206002
0.204679
0.203406
0.259299
0.258404
0.2576
0.256567
0.255295
0.25385
0.252292
0.250662
0.248985
0.247278
0.245552
0.243816
0.242076
0.240337
0.238604
0.23688
0.23517
0.233477
0.231804
0.230155
0.228531
0.226936
0.225371
0.223838
0.222338
0.220873
0.219443
0.218049
0.216691
0.21537
0.214085
0.212837
0.211627
0.259224
0.257848
0.256623
0.255437
0.254227
0.25297
0.251663
0.250313
0.24893
0.247523
0.246102
0.244672
0.243238
0.241807
0.24038
0.238961
0.237552
0.236157
0.234776
0.233413
0.232067
0.230742
0.229437
0.228155
0.226896
0.22566
0.224449
0.223263
0.222102
0.220967
0.219859
0.218777
0.217723
0.259217
0.257715
0.256309
0.25498
0.253698
0.252442
0.251196
0.249951
0.248704
0.247455
0.246205
0.244956
0.243711
0.242471
0.241239
0.240016
0.238804
0.237604
0.236418
0.235247
0.234092
0.232954
0.231833
0.23073
0.229646
0.228581
0.227536
0.22651
0.225505
0.22452
0.223556
0.222614
0.221694
0.259218
0.25769
0.256225
0.254822
0.253477
0.252181
0.250924
0.249696
0.248492
0.247307
0.246137
0.244982
0.24384
0.242712
0.241597
0.240496
0.239408
0.238335
0.237277
0.236235
0.235208
0.234197
0.233203
0.232226
0.231265
0.230322
0.229396
0.228487
0.227597
0.226724
0.225869
0.225033
0.224215
0.259218
0.257686
0.256207
0.25478
0.253405
0.25208
0.2508
0.24956
0.248357
0.247186
0.246043
0.244926
0.243832
0.242759
0.241707
0.240674
0.239659
0.238663
0.237685
0.236724
0.23578
0.234853
0.233944
0.233052
0.232176
0.231317
0.230475
0.22965
0.228841
0.228049
0.227274
0.226515
0.225773
0.259218
0.257686
0.256203
0.254769
0.253384
0.252045
0.250751
0.2495
0.248289
0.247115
0.245975
0.244867
0.243789
0.242739
0.241714
0.240714
0.239737
0.238782
0.237848
0.236935
0.236041
0.235166
0.23431
0.233472
0.232651
0.231848
0.231062
0.230293
0.229541
0.228805
0.228085
0.227382
0.226694
0.259218
0.257686
0.256202
0.254767
0.253378
0.252035
0.250735
0.249477
0.24826
0.247081
0.245938
0.24483
0.243755
0.24271
0.241695
0.240707
0.239746
0.23881
0.237897
0.237008
0.23614
0.235294
0.234468
0.233661
0.232874
0.232105
0.231354
0.23062
0.229904
0.229204
0.228521
0.227854
0.227203
0.259218
0.257685
0.256201
0.254766
0.253376
0.252031
0.250729
0.249469
0.248248
0.247066
0.245921
0.24481
0.243734
0.242689
0.241676
0.240691
0.239735
0.238805
0.237901
0.237022
0.236167
0.235334
0.234522
0.233732
0.232962
0.232212
0.23148
0.230767
0.230072
0.229394
0.228733
0.228089
0.22746
0.259218
0.257685
0.256201
0.254765
0.253375
0.25203
0.250727
0.249465
0.248244
0.24706
0.245913
0.244801
0.243723
0.242677
0.241663
0.240678
0.239723
0.238795
0.237894
0.237018
0.236166
0.235339
0.234534
0.233751
0.232989
0.232247
0.231525
0.230822
0.230138
0.229472
0.228823
0.228191
0.227575
0.259218
0.257685
0.256201
0.254764
0.253374
0.252028
0.250725
0.249463
0.248241
0.247057
0.245909
0.244796
0.243717
0.24267
0.241655
0.24067
0.239714
0.238786
0.237885
0.23701
0.236159
0.235333
0.23453
0.23375
0.232991
0.232253
0.231535
0.230836
0.230157
0.229496
0.228852
0.228226
0.227616
0.259218
0.257685
0.2562
0.254764
0.253374
0.252028
0.250724
0.249462
0.248239
0.247054
0.245906
0.244792
0.243713
0.242666
0.24165
0.240664
0.239708
0.238779
0.237878
0.237002
0.236152
0.235326
0.234523
0.233743
0.232985
0.232248
0.231531
0.230834
0.230156
0.229497
0.228856
0.228232
0.227625
0.259218
0.257685
0.2562
0.254764
0.253373
0.252027
0.250723
0.249461
0.248238
0.247052
0.245904
0.24479
0.24371
0.242662
0.241646
0.24066
0.239703
0.238774
0.237872
0.236996
0.236146
0.235319
0.234516
0.233736
0.232978
0.232241
0.231524
0.230827
0.23015
0.229491
0.22885
0.228227
0.22762
0.259218
0.257685
0.2562
0.254763
0.253373
0.252026
0.250722
0.24946
0.248236
0.247051
0.245902
0.244788
0.243707
0.242659
0.241643
0.240656
0.239699
0.23877
0.237867
0.236991
0.23614
0.235313
0.23451
0.233729
0.232971
0.232233
0.231516
0.23082
0.230142
0.229483
0.228842
0.228218
0.227611
0.259218
0.257684
0.2562
0.254763
0.253372
0.252026
0.250722
0.249459
0.248235
0.247049
0.2459
0.244786
0.243705
0.242657
0.24164
0.240653
0.239695
0.238766
0.237863
0.236986
0.236135
0.235308
0.234504
0.233723
0.232964
0.232227
0.231509
0.230812
0.230134
0.229474
0.228833
0.228209
0.227602
0.259218
0.257684
0.2562
0.254763
0.253372
0.252025
0.250721
0.249458
0.248234
0.247048
0.245898
0.244784
0.243703
0.242654
0.241637
0.24065
0.239692
0.238762
0.237859
0.236982
0.23613
0.235303
0.234499
0.233718
0.232958
0.23222
0.231502
0.230805
0.230126
0.229466
0.228824
0.2282
0.227592
0.259218
0.257684
0.2562
0.254762
0.253371
0.252025
0.25072
0.249457
0.248233
0.247047
0.245897
0.244782
0.243701
0.242652
0.241635
0.240647
0.239689
0.238759
0.237856
0.236978
0.236126
0.235298
0.234494
0.233712
0.232953
0.232214
0.231496
0.230798
0.230119
0.229458
0.228816
0.228191
0.227583
0.259218
0.257684
0.256199
0.254762
0.253371
0.252024
0.25072
0.249456
0.248232
0.247046
0.245896
0.244781
0.243699
0.24265
0.241633
0.240645
0.239686
0.238756
0.237852
0.236975
0.236122
0.235294
0.234489
0.233707
0.232947
0.232208
0.23149
0.230791
0.230112
0.229451
0.228808
0.228183
0.227574
0.259218
0.257684
0.256199
0.254762
0.253371
0.252024
0.250719
0.249456
0.248231
0.247045
0.245895
0.244779
0.243698
0.242649
0.241631
0.240643
0.239684
0.238753
0.237849
0.236971
0.236119
0.23529
0.234485
0.233703
0.232942
0.232203
0.231484
0.230785
0.230105
0.229444
0.228801
0.228175
0.227566
0.259218
0.257684
0.256199
0.254762
0.253371
0.252024
0.250719
0.249455
0.248231
0.247044
0.245894
0.244778
0.243696
0.242647
0.241629
0.240641
0.239682
0.23875
0.237846
0.236968
0.236115
0.235286
0.234481
0.233698
0.232938
0.232198
0.231479
0.230779
0.230099
0.229438
0.228794
0.228168
0.227558
0.259218
0.257684
0.256199
0.254762
0.253371
0.252023
0.250719
0.249455
0.24823
0.247043
0.245893
0.244777
0.243695
0.242646
0.241627
0.240639
0.23968
0.238748
0.237844
0.236965
0.236112
0.235283
0.234477
0.233694
0.232933
0.232193
0.231474
0.230774
0.230094
0.229431
0.228787
0.228161
0.227551
0.259218
0.257684
0.256199
0.254762
0.25337
0.252023
0.250718
0.249454
0.24823
0.247043
0.245892
0.244776
0.243694
0.242644
0.241626
0.240637
0.239678
0.238746
0.237841
0.236963
0.236109
0.23528
0.234474
0.233691
0.232929
0.232189
0.231469
0.230769
0.230088
0.229426
0.228781
0.228154
0.227544
0.259218
0.257684
0.256199
0.254762
0.25337
0.252023
0.250718
0.249454
0.248229
0.247042
0.245891
0.244775
0.243693
0.242643
0.241624
0.240636
0.239676
0.238744
0.237839
0.23696
0.236107
0.235277
0.234471
0.233687
0.232926
0.232185
0.231465
0.230765
0.230083
0.22942
0.228776
0.228148
0.227537
0.259218
0.257684
0.256199
0.254762
0.25337
0.252023
0.250718
0.249454
0.248229
0.247042
0.245891
0.244775
0.243692
0.242642
0.241623
0.240634
0.239674
0.238742
0.237837
0.236958
0.236104
0.235275
0.234468
0.233684
0.232922
0.232181
0.231461
0.23076
0.230079
0.229416
0.22877
0.228142
0.227531
0.259218
0.257684
0.256199
0.254762
0.25337
0.252023
0.250718
0.249454
0.248229
0.247041
0.24589
0.244774
0.243692
0.242642
0.241623
0.240634
0.239673
0.238741
0.237836
0.236957
0.236102
0.235272
0.234466
0.233682
0.23292
0.232178
0.231458
0.230757
0.230075
0.229411
0.228766
0.228138
0.227526
0.259218
0.257684
0.256199
0.254762
0.25337
0.252023
0.250718
0.249453
0.248228
0.247041
0.24589
0.244774
0.243691
0.242641
0.241622
0.240632
0.239672
0.23874
0.237834
0.236955
0.236101
0.23527
0.234464
0.233679
0.232917
0.232176
0.231455
0.230753
0.230071
0.229407
0.228762
0.228133
0.227521
0.259218
0.257684
0.256199
0.254762
0.25337
0.252023
0.250718
0.249454
0.248229
0.247041
0.24589
0.244774
0.243691
0.242641
0.241622
0.240633
0.239672
0.23874
0.237834
0.236955
0.2361
0.23527
0.234463
0.233678
0.232916
0.232174
0.231453
0.230751
0.230069
0.229405
0.228759
0.22813
0.227518
0.259218
0.257684
0.256199
0.254762
0.25337
0.252023
0.250718
0.249453
0.248228
0.247041
0.24589
0.244774
0.243691
0.242641
0.241621
0.240632
0.239672
0.238739
0.237834
0.236954
0.236099
0.235269
0.234462
0.233677
0.232915
0.232173
0.231451
0.23075
0.230067
0.229403
0.228757
0.228128
0.227515
0.259218
0.257684
0.256199
0.254762
0.253371
0.252024
0.25072
0.249456
0.248231
0.247044
0.245893
0.244777
0.243695
0.242644
0.241625
0.240636
0.239675
0.238743
0.237837
0.236957
0.236102
0.235272
0.234464
0.23368
0.232917
0.232175
0.231453
0.230751
0.230068
0.229404
0.228757
0.228127
0.227515
0.259218
0.257685
0.2562
0.254764
0.253373
0.252026
0.250721
0.249457
0.248232
0.247045
0.245895
0.244779
0.243697
0.242646
0.241627
0.240638
0.239678
0.238746
0.23784
0.236961
0.236106
0.235275
0.234467
0.233682
0.232919
0.232177
0.231454
0.230752
0.230068
0.229403
0.228755
0.228125
0.227511
0.259218
0.257685
0.256201
0.254766
0.253378
0.252033
0.250731
0.249469
0.248246
0.24706
0.24591
0.244795
0.243713
0.242662
0.241643
0.240654
0.239693
0.238759
0.237853
0.236972
0.236116
0.235283
0.234474
0.233687
0.232922
0.232177
0.231452
0.230747
0.23006
0.229392
0.228741
0.228107
0.227489
0.259219
0.257689
0.25621
0.254777
0.25339
0.252046
0.250744
0.249482
0.248259
0.247074
0.245924
0.244809
0.243726
0.242675
0.241655
0.240664
0.2397
0.238764
0.237854
0.236969
0.236107
0.23527
0.234454
0.23366
0.232888
0.232135
0.231402
0.230688
0.229992
0.229314
0.228653
0.228009
0.227381
0.25922
0.257694
0.256221
0.254799
0.253423
0.252089
0.250795
0.249539
0.248318
0.247131
0.245978
0.244857
0.243767
0.242706
0.241673
0.240669
0.23969
0.238738
0.23781
0.236906
0.236025
0.235166
0.234329
0.233512
0.232717
0.23194
0.231183
0.230444
0.229724
0.22902
0.228334
0.227664
0.22701
0.259229
0.257738
0.256292
0.254882
0.253509
0.252172
0.250871
0.249603
0.248368
0.247162
0.245985
0.244837
0.243715
0.24262
0.241551
0.240508
0.239489
0.238493
0.237522
0.236573
0.235646
0.234741
0.233857
0.232994
0.232151
0.231327
0.230522
0.229736
0.228968
0.228218
0.227484
0.226768
0.226068
0.259265
0.257822
0.256453
0.255125
0.253804
0.252483
0.251163
0.249854
0.248561
0.24729
0.246044
0.244827
0.243638
0.242479
0.241348
0.240246
0.239172
0.238125
0.237103
0.236107
0.235135
0.234186
0.23326
0.232356
0.231473
0.230611
0.229769
0.228946
0.228143
0.227358
0.226591
0.225842
0.22511
0.259599
0.258632
0.257578
0.256541
0.255587
0.254714
0.253905
0.253151
0.252444
0.251783
0.251165
0.250591
0.250059
0.249569
0.249119
0.248708
0.248335
0.247998
0.247695
0.247424
0.247184
0.246973
0.246789
0.246631
0.246497
0.246385
0.246295
0.246224
0.246172
0.246138
0.24612
0.246118
0.24613
0.266719
0.280569
0.294241
0.307622
0.320668
0.333362
0.345692
0.357649
0.369224
0.380412
0.39121
0.401618
0.411636
0.421268
0.430518
0.439392
0.447897
0.456042
0.463834
0.471284
0.478401
0.485196
0.491679
0.497862
0.503754
0.509367
0.514711
0.519797
0.524636
0.529238
0.533613
0.53777
0.541724
0.844255
1.0136
1.1858
1.36257
1.54089
1.71061
1.8602
1.98102
2.06987
2.12902
2.16423
2.18256
2.19052
2.19293
2.19277
2.19152
2.18971
2.18748
2.18494
2.18229
2.17984
2.17792
2.1768
2.17657
2.17722
2.17853
2.1802
2.18182
2.18293
2.18301
2.18155
2.17799
2.17182
2.1625
2.14952
2.13241
2.11071
2.08404
2.05205
2.01448
1.97115
1.92201
1.86709
1.80657
1.7408
1.67024
1.59553
1.51748
1.43702
1.3552
1.27318
1.19216
1.11335
1.03791
0.966889
0.901179
0.841483
0.78828
0.741828
0.702174
0.66919
0.642612
0.622078
0.607166
0.597416
0.592337
0.591403
0.594036
0.599584
0.6073
0.616335
0.625739
0.634484
0.641502
0.645735
0.646196
0.64203
0.632569
0.617385
0.596336
0.5696
0.537702
0.501526
0.462304
0.42157
0.381058
0.342534
0.30757
0.277322
0.252365
0.232689
0.217819
0.207027
0.199505
0.194514
0.191412
0.189727
0.189054
0.18909
0.190337
0.353352
0.366645
0.386815
0.416953
0.460069
0.518908
0.595158
0.688692
0.797179
0.916197
1.03977
1.16128
1.2746
1.375
1.45977
1.5283
1.5817
1.62221
1.6525
1.67514
1.6923
1.70557
1.71602
1.72429
1.73074
1.73551
1.73863
1.74003
1.73959
1.73712
1.7324
1.72514
1.71502
1.7017
1.68483
1.6641
1.63918
1.60984
1.57586
1.53714
1.49366
1.44549
1.39284
1.33605
1.27559
1.21208
1.14624
1.07896
1.01117
0.943905
0.878189
0.81503
0.755351
0.699944
0.649425
0.604213
0.56452
0.530363
0.501597
0.477955
0.459099
0.444659
0.434269
0.427589
0.424309
0.424146
0.426823
0.432043
0.439457
0.448628
0.45901
0.469928
0.480592
0.490118
0.497577
0.502061
0.502748
0.498975
0.490302
0.476563
0.45791
0.434832
0.408158
0.379022
0.348791
0.318937
0.290863
0.265721
0.244258
0.22676
0.213103
0.202881
0.19555
0.190536
0.187326
0.185468
0.184636
0.184536
0.184934
0.186444
0.206532
0.206277
0.206658
0.208075
0.210981
0.215784
0.2232
0.234232
0.250055
0.27193
0.301068
0.338418
0.384437
0.438877
0.50069
0.568069
0.63864
0.709758
0.778848
0.843706
0.902712
0.95491
0.999965
1.03803
1.06959
1.09527
1.11571
1.13148
1.14303
1.15066
1.15456
1.15479
1.15136
1.14422
1.13329
1.11849
1.09976
1.07707
1.05045
1.01999
0.985878
0.948372
0.907844
0.864764
0.819704
0.773323
0.726354
0.679576
0.633777
0.589717
0.548088
0.509471
0.474303
0.442865
0.415272
0.391488
0.371358
0.354639
0.341043
0.330271
0.322039
0.316099
0.312247
0.310325
0.310219
0.311846
0.315138
0.320021
0.326392
0.33408
0.342824
0.352243
0.361828
0.370945
0.378872
0.384844
0.388127
0.388089
0.384277
0.376482
0.364774
0.349536
0.331444
0.311427
0.290576
0.270021
0.25079
0.233673
0.219145
0.207364
0.198221
0.191436
0.186645
0.183466
0.181556
0.180599
0.18038
0.18068
0.181322
0.182972
0.201994
0.20049
0.199086
0.197785
0.196621
0.195663
0.194973
0.19465
0.194839
0.195734
0.197576
0.200653
0.2053
0.21189
0.220811
0.23244
0.247092
0.264969
0.286098
0.310296
0.337148
0.366033
0.396168
0.426687
0.456712
0.485432
0.512147
0.536298
0.557475
0.575401
0.589913
0.600928
0.608428
0.612433
0.612997
0.610199
0.604146
0.594981
0.582883
0.568083
0.550861
0.531557
0.510563
0.488318
0.465301
0.442008
0.418931
0.396537
0.37524
0.35538
0.337209
0.320882
0.306461
0.293925
0.28319
0.274131
0.266599
0.26044
0.255509
0.251678
0.248842
0.246922
0.245864
0.24564
0.246245
0.24769
0.249999
0.253196
0.257291
0.26226
0.268022
0.274417
0.281184
0.287952
0.294249
0.299526
0.303213
0.304779
0.303801
0.300035
0.293461
0.284305
0.273034
0.260309
0.246906
0.233619
0.221153
0.210042
0.200609
0.192969
0.187072
0.182749
0.179778
0.177913
0.17693
0.176612
0.176816
0.177384
0.178179
0.179877
0.210268
0.208761
0.207279
0.205813
0.204365
0.202946
0.201572
0.20026
0.19903
0.197913
0.196946
0.196175
0.195657
0.195455
0.195642
0.196295
0.197499
0.199336
0.20189
0.205234
0.209425
0.214496
0.220447
0.227238
0.234782
0.242944
0.251544
0.260365
0.269165
0.277689
0.285685
0.292917
0.299179
0.304296
0.308139
0.310623
0.311708
0.311401
0.309753
0.306858
0.302845
0.297877
0.292141
0.285837
0.279174
0.272352
0.265558
0.258954
0.252673
0.246814
0.241443
0.236597
0.232287
0.228503
0.225221
0.222411
0.220036
0.21806
0.216452
0.215185
0.214239
0.213606
0.213284
0.213285
0.21363
0.214348
0.215478
0.21706
0.21913
0.221711
0.224799
0.228348
0.232249
0.236325
0.240315
0.243893
0.246685
0.248311
0.24844
0.246845
0.243441
0.238324
0.231757
0.22415
0.216001
0.207825
0.200089
0.193153
0.18725
0.182478
0.178832
0.176224
0.174521
0.17357
0.173227
0.173343
0.173827
0.174558
0.175434
0.177112
0.216528
0.215175
0.213821
0.21247
0.211124
0.20978
0.208443
0.207117
0.205806
0.204519
0.203266
0.20206
0.200915
0.199848
0.19888
0.198029
0.197318
0.19677
0.196406
0.196246
0.196308
0.196607
0.197153
0.19795
0.198996
0.200279
0.201778
0.203463
0.205295
0.207224
0.209194
0.211145
0.213014
0.214739
0.216264
0.217538
0.218522
0.219188
0.219523
0.219525
0.219208
0.218597
0.217726
0.216639
0.215382
0.214005
0.212554
0.211075
0.209605
0.208177
0.206816
0.20554
0.204359
0.20328
0.202302
0.201423
0.200637
0.19994
0.199326
0.19879
0.198334
0.197959
0.197673
0.19749
0.197427
0.197511
0.197769
0.198235
0.198943
0.19992
0.201185
0.202735
0.204536
0.206514
0.208546
0.21046
0.212043
0.213064
0.2133
0.212579
0.210807
0.207999
0.204281
0.199878
0.195083
0.190212
0.185561
0.18137
0.177805
0.174949
0.172816
0.171364
0.170518
0.170181
0.170262
0.170656
0.171307
0.172122
0.173027
0.174632
0.220647
0.21946
0.218264
0.217062
0.215853
0.214637
0.213414
0.212189
0.210964
0.209743
0.20853
0.20733
0.206147
0.20499
0.203864
0.202777
0.201739
0.200758
0.199843
0.199002
0.198245
0.197578
0.197008
0.196538
0.196172
0.195909
0.195747
0.195681
0.195702
0.195801
0.195965
0.196178
0.196424
0.196686
0.196947
0.197189
0.197398
0.197561
0.197668
0.197711
0.197686
0.197594
0.197437
0.19722
0.196952
0.196641
0.196297
0.195929
0.195548
0.195159
0.194771
0.194385
0.194006
0.193632
0.193263
0.192896
0.192527
0.192154
0.191773
0.191383
0.190982
0.190574
0.190164
0.189759
0.189373
0.18902
0.188721
0.1885
0.188379
0.188385
0.188537
0.188848
0.189313
0.18991
0.190586
0.191262
0.191829
0.192159
0.192122
0.191605
0.190534
0.188895
0.186737
0.184176
0.181373
0.178512
0.175774
0.173313
0.17124
0.16962
0.16847
0.167771
0.16748
0.167534
0.167877
0.168433
0.169169
0.170009
0.170902
0.172399
0.223284
0.222224
0.221153
0.220072
0.218981
0.217882
0.216776
0.215664
0.214547
0.213427
0.212305
0.211186
0.210071
0.208963
0.207867
0.206785
0.205721
0.204681
0.203669
0.202689
0.201746
0.200845
0.199989
0.199183
0.19843
0.197731
0.197089
0.196503
0.195973
0.195497
0.195073
0.194696
0.194362
0.194066
0.193803
0.193565
0.193349
0.193148
0.192958
0.192774
0.192592
0.192412
0.19223
0.192046
0.19186
0.191671
0.191479
0.191286
0.19109
0.190891
0.190687
0.190476
0.190255
0.19002
0.189767
0.18949
0.189185
0.188847
0.188472
0.188057
0.187599
0.187099
0.186557
0.18598
0.185372
0.184745
0.184111
0.183484
0.182884
0.182327
0.181832
0.181414
0.181081
0.180833
0.180653
0.180511
0.180356
0.180127
0.179755
0.179175
0.178339
0.17723
0.175865
0.174298
0.172616
0.170922
0.169321
0.167906
0.16675
0.165895
0.165356
0.165123
0.16517
0.165456
0.165943
0.166576
0.167337
0.168159
0.169012
0.170378
0.224928
0.223965
0.222993
0.22201
0.221017
0.220016
0.219005
0.217987
0.216962
0.215931
0.214897
0.213861
0.212825
0.21179
0.210758
0.209731
0.208712
0.207704
0.206707
0.205726
0.204763
0.203821
0.202903
0.202011
0.201149
0.200318
0.199521
0.19876
0.198036
0.197349
0.1967
0.196089
0.195514
0.194977
0.194473
0.194003
0.193564
0.193154
0.192772
0.192414
0.19208
0.191766
0.191472
0.191195
0.190934
0.190686
0.19045
0.190222
0.19
0.18978
0.189558
0.18933
0.18909
0.188833
0.188553
0.188244
0.1879
0.187515
0.187085
0.186604
0.186071
0.185482
0.184838
0.18414
0.183392
0.182599
0.181769
0.180913
0.180043
0.179172
0.178315
0.177486
0.176697
0.175957
0.175265
0.174616
0.173993
0.17337
0.172717
0.172002
0.1712
0.170299
0.169305
0.168244
0.167161
0.166112
0.165155
0.164344
0.163723
0.163316
0.163133
0.163168
0.163402
0.163806
0.164356
0.165006
0.165748
0.166523
0.167316
0.168536
0.22591
0.225019
0.224118
0.223208
0.222289
0.221361
0.220425
0.219481
0.218531
0.217575
0.216615
0.21565
0.214684
0.213716
0.212748
0.211781
0.210817
0.209858
0.208904
0.207959
0.207022
0.206097
0.205185
0.204288
0.203409
0.202549
0.20171
0.200894
0.200103
0.199338
0.198601
0.197893
0.197214
0.196565
0.195947
0.195358
0.1948
0.194271
0.193772
0.1933
0.192856
0.192438
0.192045
0.191675
0.191325
0.190995
0.19068
0.190378
0.190085
0.189797
0.189509
0.189217
0.188914
0.188594
0.188251
0.18788
0.187473
0.187026
0.186531
0.185986
0.185385
0.184726
0.184008
0.183231
0.182395
0.181505
0.180566
0.179584
0.178569
0.177531
0.17648
0.175431
0.174394
0.173381
0.1724
0.171456
0.170549
0.169673
0.168819
0.167977
0.167138
0.166296
0.165457
0.164633
0.163849
0.163133
0.162518
0.162032
0.1617
0.161534
0.161539
0.161708
0.162027
0.162473
0.163028
0.163655
0.164351
0.165059
0.16578
0.166848
0.226462
0.225619
0.224768
0.22391
0.223044
0.222171
0.221291
0.220403
0.219509
0.21861
0.217706
0.216798
0.215887
0.214974
0.214059
0.213145
0.212231
0.211318
0.210408
0.209503
0.208602
0.207708
0.206821
0.205944
0.205078
0.204224
0.203384
0.20256
0.201753
0.200965
0.200197
0.199451
0.198728
0.198028
0.197354
0.196704
0.196081
0.195485
0.194915
0.194371
0.193854
0.193362
0.192894
0.19245
0.192026
0.191623
0.191235
0.190861
0.190498
0.19014
0.189783
0.189422
0.189052
0.188667
0.188261
0.187828
0.187361
0.186854
0.186304
0.185704
0.18505
0.18434
0.18357
0.182742
0.181854
0.180909
0.179911
0.178864
0.177775
0.176653
0.175506
0.174346
0.173184
0.17203
0.170897
0.169793
0.168726
0.167701
0.166719
0.165783
0.164893
0.164051
0.163262
0.162535
0.161884
0.161323
0.160871
0.160542
0.160347
0.160292
0.160377
0.160594
0.160931
0.161369
0.161893
0.162471
0.163102
0.163733
0.164375
0.165289
0.226745
0.225934
0.225116
0.224292
0.223462
0.222626
0.221784
0.220936
0.220082
0.219224
0.218362
0.217495
0.216626
0.215754
0.214881
0.214007
0.213132
0.212258
0.211385
0.210514
0.209646
0.208782
0.207924
0.207071
0.206225
0.205388
0.20456
0.203744
0.20294
0.20215
0.201376
0.200617
0.199877
0.199156
0.198454
0.197774
0.197116
0.19648
0.195868
0.195279
0.194712
0.194169
0.193648
0.193149
0.192669
0.192207
0.191761
0.191328
0.190905
0.190487
0.190071
0.189651
0.189223
0.188782
0.18832
0.187834
0.187316
0.186762
0.186166
0.185524
0.18483
0.184083
0.18328
0.18242
0.181502
0.180527
0.179499
0.178422
0.1773
0.17614
0.174952
0.173743
0.172524
0.171306
0.1701
0.168918
0.16777
0.166664
0.16561
0.164614
0.163683
0.162822
0.162039
0.16134
0.160735
0.160234
0.159844
0.159573
0.159426
0.159404
0.159503
0.159715
0.16003
0.160428
0.160899
0.161411
0.161968
0.162515
0.163076
0.163839
0.226875
0.226082
0.225284
0.224481
0.223673
0.22286
0.222042
0.22122
0.220393
0.219562
0.218728
0.21789
0.21705
0.216207
0.215363
0.214518
0.213672
0.212826
0.211981
0.211137
0.210295
0.209456
0.20862
0.207788
0.206962
0.206142
0.205329
0.204524
0.203729
0.202944
0.202171
0.201412
0.200666
0.199936
0.199223
0.198527
0.197849
0.19719
0.196551
0.195933
0.195334
0.194756
0.194197
0.193658
0.193136
0.192631
0.192139
0.19166
0.191189
0.190723
0.190259
0.189792
0.189318
0.18883
0.188325
0.187796
0.187239
0.186647
0.186017
0.185343
0.184622
0.18385
0.183025
0.182145
0.181211
0.180223
0.179182
0.178094
0.176961
0.17579
0.174589
0.173364
0.172126
0.170886
0.169653
0.168439
0.167255
0.166113
0.165022
0.163993
0.163034
0.162154
0.161361
0.160661
0.160061
0.159569
0.159188
0.158923
0.158774
0.15874
0.158816
0.158992
0.159259
0.159601
0.160005
0.160444
0.160922
0.161383
0.161864
0.162481
0.226924
0.22614
0.225352
0.224561
0.223765
0.222965
0.222162
0.221354
0.220544
0.219729
0.218912
0.218093
0.217271
0.216447
0.215622
0.214796
0.213969
0.213143
0.212317
0.211491
0.210667
0.209846
0.209026
0.208211
0.207399
0.206592
0.205791
0.204996
0.204209
0.203431
0.202662
0.201904
0.201158
0.200425
0.199705
0.199
0.198311
0.197638
0.196982
0.196344
0.195723
0.19512
0.194535
0.193966
0.193413
0.192875
0.192349
0.191834
0.191327
0.190824
0.190323
0.189819
0.189308
0.188785
0.188245
0.187684
0.187096
0.186476
0.18582
0.185124
0.184383
0.183595
0.182756
0.181866
0.180925
0.179932
0.17889
0.177802
0.176671
0.175502
0.174303
0.173081
0.171845
0.170603
0.169367
0.168146
0.166954
0.1658
0.164695
0.163651
0.162677
0.161782
0.160975
0.160262
0.15965
0.159144
0.158746
0.158459
0.158282
0.158212
0.158244
0.158368
0.158575
0.158849
0.159182
0.159544
0.159942
0.160317
0.16072
0.1612
0.226936
0.226156
0.225372
0.224586
0.223796
0.223003
0.222207
0.221407
0.220605
0.2198
0.218992
0.218183
0.217371
0.216558
0.215744
0.214929
0.214114
0.213299
0.212484
0.211671
0.210858
0.210047
0.209238
0.208433
0.20763
0.206832
0.206039
0.205251
0.20447
0.203696
0.20293
0.202174
0.201427
0.200692
0.199968
0.199258
0.19856
0.197878
0.19721
0.196557
0.19592
0.195299
0.194694
0.194103
0.193527
0.192963
0.192411
0.191869
0.191334
0.190803
0.190272
0.18974
0.1892
0.18865
0.188084
0.187498
0.186886
0.186246
0.185571
0.184859
0.184105
0.183306
0.182461
0.181567
0.180624
0.179633
0.178595
0.177512
0.17639
0.175231
0.174043
0.172832
0.171607
0.170376
0.169149
0.167936
0.166747
0.165595
0.16449
0.163441
0.16246
0.161556
0.160736
0.160007
0.159376
0.158846
0.15842
0.158098
0.157881
0.157763
0.15774
0.157803
0.157944
0.158148
0.158405
0.158691
0.159009
0.159304
0.159632
0.159983
0.226932
0.226153
0.225371
0.224587
0.223799
0.223009
0.222215
0.221419
0.22062
0.21982
0.219017
0.218212
0.217405
0.216598
0.215789
0.21498
0.21417
0.213361
0.212552
0.211744
0.210937
0.210131
0.209328
0.208527
0.20773
0.206936
0.206146
0.205362
0.204583
0.203811
0.203046
0.202289
0.201542
0.200804
0.200076
0.19936
0.198657
0.197966
0.197288
0.196624
0.195975
0.195339
0.194718
0.19411
0.193515
0.192932
0.192359
0.191796
0.191238
0.190684
0.190131
0.189576
0.189014
0.188442
0.187856
0.187251
0.186622
0.185966
0.185278
0.184555
0.183792
0.182987
0.182139
0.181244
0.180304
0.179318
0.178287
0.177215
0.176104
0.174959
0.173786
0.172591
0.171382
0.170167
0.168955
0.167755
0.166578
0.165435
0.164335
0.163289
0.162306
0.161395
0.160564
0.15982
0.159167
0.15861
0.15815
0.157789
0.157525
0.157354
0.157272
0.157272
0.157344
0.157476
0.157659
0.157869
0.158112
0.158329
0.158587
0.15882
0.226923
0.226144
0.225363
0.224578
0.223791
0.223001
0.222208
0.221413
0.220615
0.219816
0.219014
0.218211
0.217406
0.2166
0.215793
0.214986
0.214178
0.213371
0.212564
0.211757
0.210952
0.210148
0.209346
0.208547
0.207751
0.206958
0.206169
0.205384
0.204605
0.203832
0.203066
0.202307
0.201556
0.200814
0.200082
0.199361
0.19865
0.197952
0.197265
0.196592
0.195931
0.195283
0.194649
0.194026
0.193416
0.192817
0.192227
0.191645
0.19107
0.190498
0.189926
0.189353
0.188773
0.188184
0.187581
0.186961
0.186319
0.185651
0.184953
0.184222
0.183454
0.182646
0.181797
0.180905
0.179969
0.17899
0.177969
0.176908
0.175811
0.174682
0.173526
0.172349
0.171157
0.16996
0.168766
0.167582
0.16642
0.165289
0.164198
0.163157
0.162174
0.161259
0.160418
0.159658
0.158984
0.158398
0.157904
0.1575
0.157188
0.156962
0.15682
0.156754
0.156758
0.156818
0.156929
0.157067
0.157237
0.157382
0.157575
0.157702
0.226913
0.226134
0.225351
0.224566
0.223779
0.222988
0.222195
0.2214
0.220602
0.219802
0.219001
0.218197
0.217392
0.216586
0.215779
0.214971
0.214163
0.213355
0.212548
0.211741
0.210935
0.21013
0.209327
0.208527
0.207729
0.206934
0.206143
0.205357
0.204575
0.203799
0.203029
0.202267
0.201511
0.200765
0.200027
0.199299
0.198582
0.197875
0.19718
0.196497
0.195826
0.195167
0.19452
0.193885
0.193261
0.192648
0.192043
0.191446
0.190855
0.190267
0.18968
0.189091
0.188497
0.187893
0.187277
0.186645
0.185992
0.185314
0.184609
0.183872
0.183101
0.182292
0.181444
0.180555
0.179625
0.178654
0.177644
0.176596
0.175513
0.1744
0.173261
0.172102
0.170929
0.169751
0.168574
0.167408
0.166261
0.165143
0.164062
0.163026
0.162045
0.161127
0.160276
0.159501
0.158804
0.158189
0.157659
0.157213
0.156851
0.15657
0.156367
0.156236
0.156172
0.156163
0.156204
0.156272
0.156375
0.156453
0.156588
0.156619
0.226903
0.226123
0.22534
0.224554
0.223766
0.222974
0.222181
0.221384
0.220586
0.219785
0.218983
0.218178
0.217373
0.216565
0.215757
0.214948
0.214139
0.213329
0.212519
0.21171
0.210902
0.210095
0.20929
0.208487
0.207686
0.206888
0.206094
0.205304
0.204518
0.203738
0.202963
0.202195
0.201435
0.200682
0.199938
0.199203
0.198478
0.197763
0.197059
0.196367
0.195686
0.195016
0.194358
0.193711
0.193075
0.192448
0.19183
0.19122
0.190615
0.190013
0.189412
0.188809
0.188202
0.187586
0.186958
0.186315
0.185653
0.184968
0.184257
0.183516
0.182742
0.181933
0.181087
0.180202
0.179279
0.178317
0.177317
0.176281
0.175213
0.174115
0.172993
0.171852
0.170698
0.169538
0.168379
0.16723
0.166097
0.164991
0.163919
0.162889
0.161909
0.160986
0.160126
0.159334
0.158615
0.15797
0.157403
0.156913
0.156501
0.156164
0.1559
0.155706
0.155575
0.155499
0.155473
0.155477
0.155518
0.155535
0.155617
0.155566
0.226893
0.226112
0.225329
0.224542
0.223753
0.222961
0.222166
0.221369
0.220569
0.219768
0.218964
0.218158
0.217351
0.216542
0.215733
0.214922
0.21411
0.213298
0.212487
0.211675
0.210864
0.210054
0.209246
0.208439
0.207634
0.206833
0.206034
0.205239
0.204449
0.203664
0.202884
0.20211
0.201344
0.200584
0.199833
0.199091
0.198358
0.197635
0.196922
0.19622
0.195529
0.194849
0.19418
0.193521
0.192873
0.192235
0.191604
0.190981
0.190363
0.189749
0.189135
0.18852
0.187901
0.187274
0.186636
0.185983
0.185313
0.184621
0.183905
0.18316
0.182384
0.181576
0.180732
0.179852
0.178935
0.177981
0.176991
0.175968
0.174913
0.173831
0.172725
0.171601
0.170464
0.169321
0.168179