/*--------------------------------*- C++ -*----------------------------------*\
| =========                 |                                                 |
| \\      /  F ield         | OpenFOAM: The Open Source CFD Toolbox           |
|  \\    /   O peration     | Version:  2.1.1                                 |
|   \\  /    A nd           | Web:      www.OpenFOAM.org                      |
|    \\/     M anipulation  |                                                 |
\*---------------------------------------------------------------------------*/
FoamFile
{
    version     2.0;
    format      ascii;
    class       volScalarField;
    location    "0.145";
    object      nut;
}
// * * * * * * * * * * * * * * * * * * * * * * * * * * * * * * * * * * * * * //

dimensions      [0 2 -1 0 0 0 0];

internalField   nonuniform List<scalar> 
6820
(
4.96025e-05
5.47044e-05
5.94497e-05
6.37667e-05
6.76166e-05
7.09776e-05
7.38481e-05
7.62459e-05
7.82032e-05
7.97617e-05
8.0968e-05
8.18695e-05
8.25126e-05
8.29401e-05
8.31907e-05
8.32984e-05
8.32925e-05
8.3198e-05
8.30357e-05
8.28227e-05
8.2573e-05
8.22981e-05
8.20071e-05
8.17071e-05
8.14038e-05
8.11016e-05
8.08036e-05
8.05128e-05
8.02275e-05
7.9965e-05
7.96465e-05
7.96522e-05
7.81346e-05
0.000540295
0.000304973
0.000219961
0.00017156
0.000140522
0.00011966
0.000105135
9.47512e-05
8.71871e-05
8.16058e-05
7.74572e-05
7.43675e-05
7.20761e-05
7.0397e-05
6.91947e-05
6.8369e-05
6.78442e-05
6.75628e-05
6.74798e-05
6.75602e-05
6.77758e-05
6.81041e-05
6.85264e-05
6.90274e-05
6.9594e-05
7.02151e-05
7.08811e-05
7.15829e-05
7.23132e-05
7.30598e-05
7.38198e-05
7.456e-05
7.52199e-05
0.00105857
0.000836086
0.000679237
0.000569612
0.000490051
0.000430115
0.0003837
0.000346855
0.000316955
0.00029224
0.000271495
0.000253857
0.000238699
0.000225555
0.000214066
0.000203959
0.000195016
0.000187062
0.000179958
0.000173589
0.000167859
0.00016269
0.000158014
0.000153776
0.000149927
0.000146425
0.000143235
0.000140327
0.000137672
0.000135253
0.000133032
0.000131052
0.000129022
0.00115953
0.00109653
0.00101167
0.000926413
0.000849806
0.000783613
0.000727058
0.000678726
0.000637204
0.000601269
0.000569917
0.000542345
0.000517914
0.000496114
0.000476537
0.000458856
0.000442805
0.000428164
0.000414755
0.000402427
0.000391053
0.000380526
0.000370756
0.000361663
0.000353182
0.000345253
0.000337827
0.000330861
0.00032432
0.000318175
0.000312411
0.000307007
0.000301985
0.00116966
0.00115863
0.00113363
0.00109757
0.00105569
0.0010122
0.000969672
0.000929415
0.000891974
0.000857474
0.000825824
0.000796833
0.000770275
0.000745917
0.000723538
0.000702935
0.000683925
0.000666344
0.000650048
0.000634908
0.000620813
0.000607662
0.000595367
0.00058385
0.000573041
0.000562878
0.000553306
0.000544276
0.000535744
0.000527673
0.00052003
0.00051279
0.000505936
0.00117006
0.00116839
0.00116306
0.00115261
0.00113713
0.00111768
0.00109554
0.00107192
0.00104772
0.00102361
0.00100001
0.000977201
0.000955336
0.000934496
0.000914707
0.000895962
0.000878234
0.000861482
0.000845658
0.000830711
0.000816589
0.000803241
0.000790617
0.000778669
0.000767352
0.000756624
0.000746445
0.000736777
0.000727587
0.000718844
0.000710518
0.00070259
0.000695037
0.00116996
0.00116938
0.00116821
0.00116569
0.00116123
0.00115458
0.00114584
0.00113528
0.00112329
0.00111024
0.0010965
0.00108235
0.00106804
0.00105375
0.00103962
0.00102574
0.00101221
0.000999055
0.00098632
0.000974022
0.00096217
0.000950764
0.000939801
0.000929272
0.000919166
0.000909469
0.000900167
0.000891244
0.000882685
0.000874475
0.0008666
0.000859049
0.00085181
0.00116994
0.0011694
0.00116883
0.00116803
0.00116674
0.00116472
0.0011618
0.00115791
0.00115305
0.00114729
0.00114075
0.00113355
0.00112583
0.00111771
0.00110931
0.00110072
0.00109203
0.00108331
0.00107461
0.00106599
0.00105748
0.00104912
0.00104091
0.00103289
0.00102506
0.00101744
0.00101002
0.00100281
0.000995815
0.000989032
0.000982461
0.000976102
0.000969954
0.00116994
0.00116939
0.00116886
0.00116832
0.0011677
0.00116692
0.00116588
0.00116449
0.00116269
0.00116043
0.00115772
0.00115456
0.00115098
0.00114702
0.00114273
0.00113816
0.00113336
0.00112837
0.00112323
0.00111798
0.00111267
0.00110731
0.00110195
0.00109659
0.00109126
0.00108597
0.00108075
0.00107559
0.00107052
0.00106554
0.00106066
0.00105588
0.00105121
0.00116994
0.00116938
0.00116885
0.00116833
0.00116782
0.00116729
0.00116671
0.00116605
0.00116526
0.00116432
0.00116319
0.00116185
0.0011603
0.00115853
0.00115655
0.00115436
0.00115198
0.00114943
0.00114673
0.00114389
0.00114094
0.00113789
0.00113476
0.00113157
0.00112833
0.00112506
0.00112177
0.00111847
0.00111517
0.00111189
0.00110863
0.00110539
0.0011022
0.00116994
0.00116938
0.00116884
0.00116832
0.00116782
0.00116732
0.00116683
0.00116634
0.00116582
0.00116527
0.00116466
0.00116399
0.00116324
0.0011624
0.00116146
0.00116042
0.00115928
0.00115804
0.00115669
0.00115526
0.00115373
0.00115213
0.00115045
0.0011487
0.0011469
0.00114505
0.00114315
0.00114122
0.00113927
0.00113729
0.0011353
0.0011333
0.0011313
0.00116994
0.00116938
0.00116884
0.00116832
0.00116781
0.00116732
0.00116684
0.00116637
0.00116591
0.00116545
0.00116499
0.00116451
0.00116402
0.00116351
0.00116296
0.00116238
0.00116176
0.0011611
0.00116039
0.00115963
0.00115883
0.00115799
0.0011571
0.00115616
0.00115519
0.00115418
0.00115314
0.00115207
0.00115097
0.00114985
0.0011487
0.00114754
0.00114637
0.00116994
0.00116938
0.00116884
0.00116832
0.00116781
0.00116732
0.00116684
0.00116637
0.00116592
0.00116547
0.00116504
0.00116461
0.00116419
0.00116377
0.00116335
0.00116292
0.00116248
0.00116204
0.00116158
0.00116111
0.00116062
0.00116011
0.00115959
0.00115904
0.00115848
0.0011579
0.00115731
0.00115669
0.00115607
0.00115542
0.00115477
0.0011541
0.00115342
0.00116994
0.00116938
0.00116884
0.00116832
0.00116781
0.00116731
0.00116683
0.00116637
0.00116591
0.00116547
0.00116504
0.00116462
0.00116421
0.00116381
0.00116342
0.00116304
0.00116266
0.00116228
0.0011619
0.00116153
0.00116116
0.00116078
0.0011604
0.00116002
0.00115963
0.00115924
0.00115885
0.00115845
0.00115805
0.00115764
0.00115722
0.00115681
0.00115639
0.00116994
0.00116938
0.00116884
0.00116832
0.00116781
0.00116731
0.00116683
0.00116636
0.00116591
0.00116547
0.00116504
0.00116462
0.00116421
0.00116382
0.00116343
0.00116305
0.00116269
0.00116233
0.00116198
0.00116163
0.00116129
0.00116096
0.00116063
0.0011603
0.00115998
0.00115967
0.00115935
0.00115904
0.00115873
0.00115842
0.00115811
0.0011578
0.0011575
0.00116994
0.00116938
0.00116884
0.00116831
0.0011678
0.00116731
0.00116683
0.00116636
0.0011659
0.00116546
0.00116503
0.00116461
0.00116421
0.00116381
0.00116342
0.00116305
0.00116268
0.00116233
0.00116198
0.00116164
0.00116131
0.00116099
0.00116068
0.00116037
0.00116007
0.00115977
0.00115949
0.0011592
0.00115893
0.00115865
0.00115839
0.00115812
0.00115786
0.00116994
0.00116938
0.00116884
0.00116831
0.0011678
0.00116731
0.00116683
0.00116636
0.0011659
0.00116546
0.00116503
0.00116461
0.0011642
0.0011638
0.00116342
0.00116304
0.00116268
0.00116232
0.00116198
0.00116164
0.00116131
0.00116099
0.00116068
0.00116038
0.00116008
0.00115979
0.00115951
0.00115924
0.00115897
0.00115871
0.00115845
0.0011582
0.00115796
0.00116994
0.00116938
0.00116884
0.00116831
0.0011678
0.00116731
0.00116682
0.00116635
0.0011659
0.00116546
0.00116502
0.0011646
0.0011642
0.0011638
0.00116341
0.00116304
0.00116267
0.00116232
0.00116197
0.00116163
0.0011613
0.00116098
0.00116067
0.00116037
0.00116007
0.00115979
0.00115951
0.00115923
0.00115897
0.00115871
0.00115846
0.00115821
0.00115797
0.00116994
0.00116938
0.00116884
0.00116831
0.0011678
0.0011673
0.00116682
0.00116635
0.0011659
0.00116545
0.00116502
0.0011646
0.00116419
0.0011638
0.00116341
0.00116303
0.00116267
0.00116231
0.00116196
0.00116162
0.00116129
0.00116097
0.00116066
0.00116036
0.00116006
0.00115978
0.0011595
0.00115922
0.00115896
0.0011587
0.00115845
0.0011582
0.00115796
0.00116994
0.00116938
0.00116884
0.00116831
0.0011678
0.0011673
0.00116682
0.00116635
0.00116589
0.00116545
0.00116502
0.0011646
0.00116419
0.00116379
0.0011634
0.00116303
0.00116266
0.0011623
0.00116196
0.00116162
0.00116129
0.00116097
0.00116065
0.00116035
0.00116005
0.00115976
0.00115948
0.00115921
0.00115894
0.00115868
0.00115843
0.00115819
0.00115795
0.00116994
0.00116938
0.00116884
0.00116831
0.0011678
0.0011673
0.00116682
0.00116635
0.00116589
0.00116545
0.00116502
0.0011646
0.00116419
0.00116379
0.0011634
0.00116302
0.00116266
0.0011623
0.00116195
0.00116161
0.00116128
0.00116096
0.00116065
0.00116034
0.00116004
0.00115975
0.00115947
0.0011592
0.00115893
0.00115867
0.00115842
0.00115817
0.00115793
0.00116994
0.00116938
0.00116884
0.00116831
0.0011678
0.0011673
0.00116682
0.00116635
0.00116589
0.00116545
0.00116501
0.00116459
0.00116418
0.00116378
0.0011634
0.00116302
0.00116265
0.00116229
0.00116194
0.0011616
0.00116127
0.00116095
0.00116064
0.00116033
0.00116004
0.00115975
0.00115946
0.00115919
0.00115892
0.00115866
0.00115841
0.00115816
0.00115792
0.00116994
0.00116938
0.00116884
0.00116831
0.0011678
0.0011673
0.00116682
0.00116635
0.00116589
0.00116545
0.00116501
0.00116459
0.00116418
0.00116378
0.00116339
0.00116302
0.00116265
0.00116229
0.00116194
0.0011616
0.00116127
0.00116095
0.00116063
0.00116033
0.00116003
0.00115974
0.00115945
0.00115918
0.00115891
0.00115865
0.00115839
0.00115814
0.0011579
0.00116994
0.00116938
0.00116884
0.00116831
0.0011678
0.0011673
0.00116682
0.00116635
0.00116589
0.00116544
0.00116501
0.00116459
0.00116418
0.00116378
0.00116339
0.00116301
0.00116264
0.00116228
0.00116194
0.00116159
0.00116126
0.00116094
0.00116062
0.00116032
0.00116002
0.00115973
0.00115944
0.00115917
0.0011589
0.00115864
0.00115838
0.00115813
0.00115789
0.00116994
0.00116938
0.00116884
0.00116831
0.0011678
0.0011673
0.00116682
0.00116635
0.00116589
0.00116544
0.00116501
0.00116459
0.00116418
0.00116378
0.00116339
0.00116301
0.00116264
0.00116228
0.00116193
0.00116159
0.00116126
0.00116093
0.00116062
0.00116031
0.00116001
0.00115972
0.00115944
0.00115916
0.00115889
0.00115863
0.00115837
0.00115812
0.00115788
0.00116994
0.00116938
0.00116884
0.00116831
0.0011678
0.0011673
0.00116682
0.00116635
0.00116589
0.00116544
0.00116501
0.00116459
0.00116418
0.00116378
0.00116339
0.00116301
0.00116264
0.00116228
0.00116193
0.00116159
0.00116125
0.00116093
0.00116061
0.00116031
0.00116001
0.00115971
0.00115943
0.00115915
0.00115888
0.00115862
0.00115836
0.00115811
0.00115786
0.00116994
0.00116938
0.00116884
0.00116831
0.0011678
0.0011673
0.00116682
0.00116635
0.00116589
0.00116544
0.00116501
0.00116459
0.00116417
0.00116377
0.00116338
0.001163
0.00116264
0.00116228
0.00116192
0.00116158
0.00116125
0.00116093
0.00116061
0.0011603
0.00116
0.00115971
0.00115942
0.00115914
0.00115887
0.00115861
0.00115835
0.0011581
0.00115785
0.00116994
0.00116938
0.00116884
0.00116831
0.0011678
0.0011673
0.00116682
0.00116635
0.00116589
0.00116544
0.00116501
0.00116458
0.00116417
0.00116377
0.00116338
0.001163
0.00116263
0.00116227
0.00116192
0.00116158
0.00116125
0.00116092
0.00116061
0.0011603
0.00116
0.0011597
0.00115942
0.00115914
0.00115887
0.0011586
0.00115834
0.00115809
0.00115785
0.00116994
0.00116938
0.00116884
0.00116831
0.0011678
0.0011673
0.00116682
0.00116634
0.00116589
0.00116544
0.00116501
0.00116458
0.00116417
0.00116377
0.00116338
0.001163
0.00116263
0.00116227
0.00116192
0.00116158
0.00116124
0.00116092
0.0011606
0.00116029
0.00115999
0.0011597
0.00115941
0.00115913
0.00115886
0.0011586
0.00115834
0.00115808
0.00115784
0.00116994
0.00116938
0.00116884
0.00116831
0.0011678
0.0011673
0.00116682
0.00116635
0.00116589
0.00116544
0.00116501
0.00116459
0.00116417
0.00116377
0.00116338
0.001163
0.00116263
0.00116227
0.00116192
0.00116158
0.00116124
0.00116092
0.0011606
0.00116029
0.00115999
0.0011597
0.00115941
0.00115913
0.00115886
0.00115859
0.00115833
0.00115808
0.00115783
0.00116994
0.00116938
0.00116884
0.00116831
0.0011678
0.0011673
0.00116682
0.00116635
0.00116589
0.00116544
0.00116501
0.00116459
0.00116418
0.00116378
0.00116339
0.00116301
0.00116264
0.00116227
0.00116192
0.00116158
0.00116125
0.00116092
0.0011606
0.00116029
0.00115999
0.0011597
0.00115941
0.00115913
0.00115885
0.00115859
0.00115832
0.00115807
0.00115782
0.00116994
0.00116938
0.00116884
0.00116831
0.0011678
0.00116731
0.00116682
0.00116635
0.0011659
0.00116545
0.00116502
0.0011646
0.00116418
0.00116378
0.00116339
0.00116301
0.00116264
0.00116228
0.00116193
0.00116158
0.00116125
0.00116092
0.0011606
0.00116028
0.00115998
0.00115968
0.00115939
0.0011591
0.00115882
0.00115854
0.00115827
0.00115801
0.00115775
0.00116994
0.00116938
0.00116884
0.00116831
0.00116781
0.00116731
0.00116683
0.00116636
0.0011659
0.00116546
0.00116502
0.0011646
0.00116419
0.00116379
0.0011634
0.00116301
0.00116263
0.00116227
0.0011619
0.00116155
0.0011612
0.00116086
0.00116052
0.00116018
0.00115986
0.00115953
0.00115921
0.0011589
0.00115858
0.00115827
0.00115797
0.00115766
0.00115736
0.00116994
0.00116938
0.00116884
0.00116833
0.00116782
0.00116733
0.00116685
0.00116639
0.00116593
0.00116548
0.00116503
0.00116459
0.00116416
0.00116373
0.00116331
0.00116288
0.00116246
0.00116204
0.00116161
0.00116119
0.00116076
0.00116033
0.0011599
0.00115946
0.00115902
0.00115858
0.00115814
0.00115769
0.00115724
0.00115678
0.00115632
0.00115586
0.0011554
0.00116994
0.00116939
0.00116886
0.00116835
0.00116784
0.00116733
0.00116683
0.00116632
0.00116581
0.00116528
0.00116473
0.00116417
0.00116358
0.00116297
0.00116233
0.00116166
0.00116097
0.00116024
0.00115949
0.00115871
0.0011579
0.00115706
0.0011562
0.00115532
0.00115442
0.00115349
0.00115255
0.00115159
0.00115061
0.00114962
0.00114862
0.00114761
0.00114659
0.00116995
0.0011694
0.00116886
0.00116828
0.00116765
0.00116694
0.00116612
0.00116519
0.00116413
0.00116294
0.00116162
0.00116017
0.00115859
0.00115689
0.00115507
0.00115314
0.00115112
0.00114901
0.00114681
0.00114455
0.00114222
0.00113984
0.00113741
0.00113495
0.00113246
0.00112994
0.00112741
0.00112487
0.00112232
0.00111977
0.00111723
0.00111469
0.00111217
0.00116996
0.00116916
0.00116786
0.00116595
0.00116343
0.0011603
0.00115657
0.00115228
0.00114748
0.00114223
0.00113661
0.00113066
0.00112445
0.00111804
0.00111148
0.00110482
0.00109809
0.00109133
0.00108458
0.00107784
0.00107116
0.00106454
0.001058
0.00105156
0.00104522
0.00103899
0.00103288
0.00102689
0.00102102
0.00101529
0.00100969
0.00100421
0.00099887
0.00116831
0.00115866
0.00114501
0.00112845
0.00110971
0.0010895
0.00106846
0.00104711
0.00102585
0.00100493
0.000984547
0.000964817
0.000945812
0.00092757
0.000910101
0.000893403
0.000877459
0.000862244
0.000847733
0.000833892
0.000820692
0.000808099
0.000796082
0.00078461
0.000773654
0.000763185
0.000753177
0.000743604
0.000734443
0.00072567
0.000717265
0.000709208
0.000701477
0.00107567
0.000936195
0.000835606
0.000756881
0.00069208
0.000638327
0.000593415
0.000555517
0.000523195
0.000495344
0.000471116
0.00044986
0.000431068
0.000414342
0.000399367
0.000385888
0.000373698
0.000362628
0.000352536
0.000343305
0.000334835
0.000327043
0.000319854
0.000313207
0.000307048
0.000301329
0.000296009
0.000291051
0.000286423
0.000282097
0.000278048
0.000274252
0.000270687
0.000142979
0.000146644
0.000150174
0.000153551
0.000156773
0.000159846
0.000162776
0.000165567
0.000168224
0.000170754
0.000173161
0.000175449
0.000177624
0.00017969
0.000181652
0.000183515
0.000185282
0.000186959
0.00018855
0.000190058
0.000191487
0.000192843
0.000194127
0.000195343
0.000196496
0.000197588
0.000198621
0.0001996
0.000200527
0.000201405
0.000202236
0.000203022
0.000203767
9.09821e-05
0.000110447
0.000134386
0.000163414
0.000196989
0.000233388
0.000270476
0.00030641
0.00034012
0.000371406
0.000400697
0.000428707
0.000456111
0.000483352
0.000510605
0.000537853
0.000565022
0.000592078
0.000619082
0.000646183
0.000673576
0.000701454
0.000729965
0.00075919
0.00078914
0.000819768
0.000850976
0.000882628
0.000914558
0.000946573
0.000978449
0.00100994
0.00104076
0.00107062
0.0010992
0.00112617
0.0011512
0.00117394
0.00119409
0.00121134
0.0012254
0.00123604
0.00124307
0.00124635
0.00124584
0.00124157
0.00123367
0.00122238
0.00120806
0.0011912
0.00117238
0.00115233
0.00113185
0.0011118
0.00109308
0.00107655
0.00106301
0.00105312
0.00104741
0.00104619
0.00104962
0.00105771
0.00107033
0.00108728
0.00110835
0.00113326
0.00116174
0.00119345
0.00122794
0.00126465
0.0013028
0.00134144
0.00137939
0.00141529
0.00144768
0.00147509
0.00149608
0.0015094
0.00151409
0.00150956
0.00149575
0.00147318
0.00144312
0.0014076
0.00136949
0.0013323
0.00129993
0.00127595
0.00126281
0.00126098
0.0012688
0.00128307
0.0013004
0.00131826
0.00133547
0.00135184
0.00136785
0.0013842
0.00139956
0.00142719
7.63809e-05
7.85172e-05
8.18853e-05
8.7202e-05
9.52893e-05
0.000106924
0.000122726
0.000142999
0.000167602
0.000195938
0.000227023
0.000259657
0.00029264
0.000324983
0.000356051
0.000385601
0.000413723
0.000440725
0.00046699
0.000492873
0.000518635
0.00054443
0.000570317
0.000596303
0.000622365
0.000648475
0.000674603
0.000700707
0.000726726
0.00075257
0.000778108
0.00080317
0.000827551
0.000851015
0.0008733
0.000894134
0.000913234
0.000930323
0.000945134
0.000957421
0.000966972
0.000973617
0.000977246
0.000977815
0.000975367
0.000970041
0.000962083
0.000951856
0.000939842
0.000926635
0.000912931
0.0008995
0.00088715
0.000876675
0.000868802
0.000864129
0.000863079
0.000865864
0.000872485
0.000882756
0.000896359
0.000912905
0.00093201
0.000953345
0.000976673
0.00100186
0.00102884
0.0010576
0.0010881
0.00112018
0.00115355
0.00118766
0.00122174
0.00125476
0.00128553
0.00131274
0.00133509
0.00135144
0.00136087
0.0013629
0.00135753
0.00134538
0.00132778
0.00130675
0.00128495
0.00126538
0.00125096
0.00124382
0.00124472
0.00125279
0.00126589
0.00128147
0.00129752
0.00131297
0.00132769
0.00134198
0.00135642
0.00137164
0.00138617
0.00141282
0.000126965
0.000124889
0.000122743
0.000120368
0.000117729
0.000115369
0.000113634
0.00011289
0.000113646
0.000116497
0.000122035
0.000130749
0.000142941
0.000158668
0.000177733
0.000199699
0.000223945
0.000249752
0.000276399
0.00030325
0.000329823
0.000355812
0.000381081
0.00040562
0.000429502
0.000452826
0.000475684
0.000498133
0.000520183
0.000541798
0.0005629
0.000583373
0.000603077
0.00062185
0.000639518
0.000655898
0.000670807
0.00068407
0.000695528
0.000705051
0.000712547
0.000717977
0.000721368
0.000722827
0.000722552
0.000720841
0.000718094
0.000714812
0.000711584
0.000709059
0.000707911
0.00070879
0.000712257
0.000718732
0.000728434
0.000741358
0.000757275
0.000775766
0.00079628
0.000818218
0.000840998
0.000864121
0.000887213
0.000910048
0.000932551
0.00095479
0.000976952
0.000999303
0.00102214
0.00104573
0.00107021
0.00109555
0.00112146
0.00114741
0.00117258
0.001196
0.00121659
0.00123337
0.00124552
0.00125259
0.00125457
0.00125205
0.00124617
0.00123863
0.00123148
0.00122678
0.00122618
0.00123045
0.00123927
0.00125138
0.00126515
0.00127917
0.00129269
0.00130558
0.00131817
0.0013309
0.00134422
0.00135863
0.00137254
0.00139828
0.00029653
0.000290448
0.000284325
0.000278055
0.000271458
0.000264356
0.000256908
0.000249162
0.000241044
0.000232532
0.000223738
0.000214943
0.000206587
0.000199216
0.000193405
0.000189673
0.000188425
0.000189912
0.000194223
0.000201296
0.000210936
0.000222846
0.000236663
0.000251992
0.000268439
0.000285638
0.000303272
0.000321077
0.000338842
0.000356407
0.000373644
0.000390449
0.000406733
0.000422414
0.000437412
0.000451656
0.000465082
0.000477644
0.000489324
0.000500138
0.000510152
0.000519486
0.000528327
0.000536931
0.000545623
0.000554791
0.000564865
0.000576296
0.000589511
0.000604875
0.000622634
0.000642884
0.000665536
0.000690323
0.000716817
0.00074448
0.000772716
0.000800933
0.000828588
0.000855226
0.000880501
0.000904182
0.000926151
0.000946398
0.00096501
0.000982161
0.000998103
0.00101315
0.00102768
0.00104206
0.00105668
0.00107181
0.0010876
0.001104
0.00112072
0.00113726
0.00115295
0.00116709
0.00117903
0.00118838
0.00119506
0.00119942
0.00120222
0.00120452
0.00120752
0.00121225
0.00121929
0.00122861
0.00123961
0.00125141
0.00126322
0.00127462
0.00128559
0.00129641
0.00130751
0.00131921
0.00133181
0.00134566
0.00135908
0.00138397
0.000498418
0.000490206
0.000482238
0.000474451
0.000466764
0.000459068
0.00045125
0.000443335
0.000435244
0.000426867
0.000418083
0.000408786
0.000398906
0.000388423
0.000377398
0.000365981
0.000354411
0.00034301
0.00033215
0.000322217
0.000313571
0.00030651
0.000301254
0.000297933
0.000296594
0.000297206
0.000299682
0.000303888
0.000309663
0.000316835
0.00032523
0.000334685
0.000345055
0.000356218
0.00036808
0.000380578
0.000393678
0.000407383
0.000421729
0.000436786
0.000452658
0.000469479
0.000487404
0.000506597
0.000527217
0.000549397
0.000573219
0.000598698
0.000625762
0.000654244
0.000683883
0.000714337
0.000745203
0.000776048
0.000806439
0.000835969
0.000864283
0.000891093
0.000916187
0.000939426
0.000960742
0.000980125
0.000997622
0.00101332
0.00102733
0.00103982
0.00105096
0.00106095
0.00107003
0.00107847
0.00108655
0.00109457
0.00110279
0.00111143
0.00112057
0.00113016
0.00114
0.00114979
0.00115918
0.00116789
0.00117582
0.00118304
0.00118986
0.0011967
0.00120401
0.00121208
0.00122093
0.00123034
0.00123995
0.00124942
0.00125861
0.00126762
0.00127671
0.0012862
0.00129642
0.00130752
0.00131968
0.00133311
0.00134612
0.00137014
0.000686699
0.000677568
0.000668733
0.00066018
0.000651876
0.00064377
0.000635816
0.000627984
0.000620239
0.000612539
0.000604842
0.0005971
0.000589259
0.000581268
0.000573081
0.000564661
0.000555993
0.000547093
0.000538007
0.000528825
0.000519672
0.00051071
0.000502123
0.000494114
0.000486885
0.000480634
0.000475538
0.000471753
0.000469406
0.000468592
0.000469381
0.000471816
0.000475922
0.000481709
0.000489176
0.000498318
0.000509128
0.000521596
0.000535713
0.000551466
0.000568837
0.000587794
0.000608289
0.00063025
0.000653572
0.000678115
0.0007037
0.000730108
0.000757089
0.000784363
0.000811638
0.000838616
0.000865015
0.000890573
0.000915062
0.000938296
0.000960133
0.000980477
0.000999274
0.00101651
0.00103221
0.00104642
0.00105921
0.00107068
0.00108091
0.00109003
0.00109815
0.00110539
0.00111188
0.00111774
0.00112313
0.0011282
0.00113312
0.00113808
0.00114322
0.00114867
0.00115448
0.00116065
0.0011671
0.00117372
0.00118044
0.00118722
0.00119406
0.00120103
0.00120816
0.00121543
0.00122277
0.00123006
0.00123723
0.00124431
0.00125145
0.00125889
0.00126691
0.00127572
0.00128551
0.00129631
0.00130818
0.00132126
0.00133388
0.001357
0.000843756
0.000834859
0.000826174
0.000817708
0.000809453
0.000801393
0.000793522
0.00078583
0.000778306
0.000770942
0.00076373
0.000756665
0.000749742
0.000742955
0.000736297
0.00072976
0.000723335
0.000717016
0.000710804
0.000704707
0.000698748
0.000692964
0.000687408
0.000682151
0.000677282
0.000672902
0.000669126
0.000666072
0.000663866
0.000662628
0.000662475
0.000663513
0.000665836
0.000669525
0.00067464
0.000681226
0.00068931
0.000698898
0.000709974
0.000722503
0.000736428
0.000751667
0.000768117
0.00078565
0.000804116
0.000823346
0.000843152
0.000863336
0.00088369
0.000904005
0.000924081
0.000943726
0.000962769
0.00098106
0.000998476
0.00101492
0.00103033
0.00104465
0.00105788
0.00107001
0.00108108
0.00109113
0.00110021
0.00110839
0.00111576
0.00112238
0.00112835
0.00113376
0.00113869
0.00114324
0.00114748
0.0011515
0.00115537
0.00115917
0.00116298
0.00116689
0.00117097
0.00117526
0.00117978
0.00118453
0.00118947
0.00119457
0.00119976
0.001205
0.00121026
0.00121548
0.00122067
0.00122587
0.00123116
0.00123672
0.00124275
0.00124947
0.00125707
0.00126564
0.00127526
0.00128589
0.00129753
0.00131027
0.00132248
0.00134464
0.000963045
0.000955324
0.000947694
0.00094017
0.000932761
0.000925474
0.000918313
0.000911282
0.000904382
0.000897622
0.000891009
0.000884555
0.000878275
0.000872182
0.000866291
0.000860618
0.000855177
0.00084998
0.000845039
0.000840367
0.00083598
0.000831894
0.000828132
0.000824722
0.000821699
0.000819108
0.000816997
0.000815424
0.000814453
0.00081415
0.000814582
0.000815818
0.000817922
0.000820949
0.000824949
0.000829957
0.000835998
0.000843078
0.000851189
0.000860304
0.000870377
0.000881345
0.000893128
0.000905628
0.000918733
0.000932321
0.000946258
0.000960407
0.000974629
0.000988786
0.00100275
0.00101639
0.00102961
0.00104231
0.00105441
0.00106585
0.00107659
0.00108659
0.00109584
0.00110435
0.00111212
0.00111918
0.00112557
0.00113134
0.00113652
0.0011412
0.00114543
0.00114929
0.00115286
0.0011562
0.0011594
0.00116251
0.00116558
0.00116867
0.00117181
0.00117501
0.0011783
0.00118169
0.00118517
0.00118874
0.00119237
0.00119605
0.00119974
0.00120342
0.0012071
0.00121081
0.00121462
0.00121866
0.00122307
0.00122804
0.00123374
0.00124031
0.00124785
0.0012564
0.00126596
0.00127644
0.00128782
0.00130018
0.00131197
0.00133312
0.0010459
0.0010399
0.00103388
0.00102786
0.00102187
0.0010159
0.00100997
0.00100409
0.000998274
0.000992528
0.000986869
0.000981314
0.00097588
0.000970587
0.000965458
0.000960512
0.000955773
0.000951263
0.000947001
0.000943008
0.000939304
0.00093591
0.000932844
0.000930129
0.000927786
0.000925839
0.000924316
0.000923245
0.000922657
0.000922586
0.000923065
0.000924127
0.000925805
0.000928127
0.000931118
0.000934796
0.000939171
0.000944244
0.000950007
0.00095644
0.00096351
0.000971175
0.000979382
0.000988064
0.000997149
0.00100656
0.0010162
0.00102599
0.00103583
0.00104564
0.00105533
0.00106482
0.00107403
0.00108291
0.0010914
0.00109944
0.00110701
0.00111408
0.00112063
0.00112665
0.00113215
0.00113714
0.00114163
0.00114565
0.00114924
0.00115243
0.00115528
0.00115785
0.00116019
0.00116237
0.00116446
0.00116652
0.00116862
0.00117078
0.00117305
0.00117544
0.00117795
0.00118057
0.00118327
0.00118603
0.00118883
0.00119164
0.00119446
0.00119731
0.00120022
0.00120329
0.00120662
0.00121034
0.00121461
0.00121957
0.00122535
0.00123203
0.00123966
0.00124822
0.00125769
0.00126798
0.00127906
0.00129099
0.0013023
0.00132241
0.00109851
0.00109428
0.00108999
0.00108563
0.00108123
0.00107679
0.00107232
0.00106783
0.00106334
0.00105886
0.0010544
0.00104998
0.00104561
0.00104132
0.00103712
0.00103303
0.00102908
0.00102528
0.00102167
0.00101826
0.00101507
0.00101212
0.00100944
0.00100705
0.00100496
0.00100319
0.00100177
0.00100071
0.00100004
0.000999767
0.000999919
0.00100051
0.00100156
0.00100308
0.00100508
0.00100756
0.00101054
0.00101401
0.00101796
0.00102237
0.00102723
0.00103249
0.00103814
0.00104412
0.00105038
0.00105688
0.00106356
0.00107036
0.00107721
0.00108406
0.00109086
0.00109754
0.00110406
0.00111036
0.0011164
0.00112215
0.00112758
0.00113265
0.00113736
0.00114169
0.00114562
0.00114917
0.00115234
0.00115513
0.00115758
0.00115969
0.00116152
0.0011631
0.00116448
0.0011657
0.00116683
0.00116794
0.00116906
0.00117026
0.00117158
0.00117305
0.00117468
0.00117646
0.0011784
0.00118046
0.00118262
0.00118488
0.00118725
0.00118975
0.00119243
0.00119538
0.00119871
0.00120254
0.00120698
0.00121214
0.00121811
0.00122492
0.0012326
0.00124111
0.00125043
0.00126046
0.00127116
0.00128262
0.00129342
0.00131247
0.00112897
0.00112625
0.00112344
0.00112056
0.0011176
0.00111457
0.00111148
0.00110834
0.00110516
0.00110194
0.0010987
0.00109545
0.0010922
0.00108897
0.00108577
0.00108262
0.00107954
0.00107655
0.00107366
0.0010709
0.00106828
0.00106583
0.00106355
0.00106148
0.00105962
0.001058
0.00105663
0.00105554
0.00105473
0.00105422
0.00105403
0.00105416
0.00105464
0.00105546
0.00105663
0.00105816
0.00106005
0.0010623
0.00106489
0.00106782
0.00107108
0.00107463
0.00107847
0.00108256
0.00108687
0.00109136
0.001096
0.00110075
0.00110557
0.00111041
0.00111524
0.00112001
0.00112468
0.00112923
0.00113361
0.00113779
0.00114175
0.00114546
0.0011489
0.00115206
0.00115492
0.00115748
0.00115973
0.00116167
0.00116333
0.0011647
0.00116582
0.0011667
0.0011674
0.00116793
0.00116837
0.00116874
0.00116911
0.00116953
0.00117004
0.0011707
0.00117153
0.00117255
0.00117377
0.0011752
0.00117683
0.00117866
0.00118073
0.00118304
0.00118566
0.00118866
0.00119211
0.0011961
0.00120073
0.00120606
0.00121214
0.001219
0.00122663
0.00123499
0.00124406
0.00125375
0.00126402
0.00127495
0.00128522
0.00130322
0.00114498
0.00114335
0.00114164
0.00113986
0.00113801
0.00113609
0.00113411
0.00113206
0.00112996
0.00112781
0.00112563
0.0011234
0.00112116
0.00111889
0.00111663
0.00111437
0.00111214
0.00110993
0.00110778
0.00110569
0.00110368
0.00110176
0.00109996
0.00109827
0.00109673
0.00109534
0.00109413
0.0010931
0.00109227
0.00109165
0.00109125
0.00109109
0.00109118
0.00109151
0.00109211
0.00109297
0.00109409
0.00109547
0.00109712
0.00109901
0.00110115
0.00110353
0.00110612
0.00110891
0.00111187
0.00111499
0.00111824
0.0011216
0.00112502
0.00112849
0.00113198
0.00113544
0.00113886
0.0011422
0.00114544
0.00114855
0.0011515
0.00115427
0.00115684
0.00115919
0.00116131
0.00116318
0.00116481
0.00116618
0.0011673
0.00116818
0.00116882
0.00116926
0.00116951
0.0011696
0.00116957
0.00116947
0.00116934
0.00116922
0.00116918
0.00116925
0.00116948
0.00116991
0.00117057
0.00117148
0.00117266
0.00117414
0.00117594
0.00117809
0.00118064
0.00118363
0.00118714
0.00119121
0.00119591
0.00120128
0.00120734
0.0012141
0.00122156
0.00122967
0.00123841
0.00124769
0.00125749
0.00126787
0.0012776
0.00129455
0.00115261
0.00115165
0.00115065
0.00114958
0.00114847
0.0011473
0.00114608
0.00114481
0.0011435
0.00114214
0.00114074
0.0011393
0.00113783
0.00113633
0.00113482
0.00113329
0.00113177
0.00113024
0.00112874
0.00112725
0.00112581
0.00112441
0.00112307
0.0011218
0.00112061
0.00111952
0.00111853
0.00111766
0.00111693
0.00111633
0.00111589
0.00111561
0.0011155
0.00111557
0.00111583
0.00111627
0.00111691
0.00111774
0.00111877
0.00111999
0.0011214
0.00112298
0.00112475
0.00112667
0.00112874
0.00113094
0.00113325
0.00113567
0.00113816
0.0011407
0.00114327
0.00114585
0.00114842
0.00115094
0.0011534
0.00115577
0.00115803
0.00116016
0.00116213
0.00116393
0.00116554
0.00116695
0.00116816
0.00116915
0.00116992
0.00117047
0.00117082
0.00117098
0.00117096
0.00117079
0.00117049
0.00117011
0.00116968
0.00116925
0.00116887
0.00116857
0.00116842
0.00116846
0.00116873
0.00116927
0.00117011
0.0011713
0.00117286
0.00117484
0.00117726