/*--------------------------------*- C++ -*----------------------------------*\
| =========                 |                                                 |
| \\      /  F ield         | OpenFOAM: The Open Source CFD Toolbox           |
|  \\    /   O peration     | Version:  2.1.1                                 |
|   \\  /    A nd           | Web:      www.OpenFOAM.org                      |
|    \\/     M anipulation  |                                                 |
\*---------------------------------------------------------------------------*/
FoamFile
{
    version     2.0;
    format      ascii;
    class       volScalarField;
    location    "0.145";
    object      p;
}
// * * * * * * * * * * * * * * * * * * * * * * * * * * * * * * * * * * * * * //

dimensions      [0 2 -2 0 0 0 0];

internalField   nonuniform List<scalar> 
6820
(
-10.9405
-12.7869
-13.362
-13.49
-13.5973
-13.6768
-13.7315
-13.7784
-13.8213
-13.8608
-13.8976
-13.9326
-13.9659
-13.9977
-14.0282
-14.0575
-14.0856
-14.1128
-14.1392
-14.1647
-14.1896
-14.214
-14.2377
-14.261
-14.2837
-14.3058
-14.327
-14.347
-14.3648
-14.3793
-14.3863
-14.3796
-14.3472
-14.893
-14.3584
-13.9361
-13.7463
-13.7219
-13.7334
-13.754
-13.7823
-13.8149
-13.8488
-13.8828
-13.9166
-13.9496
-13.9817
-14.0127
-14.0427
-14.0717
-14.0997
-14.1269
-14.1532
-14.1788
-14.2038
-14.2283
-14.2522
-14.2756
-14.2985
-14.3207
-14.3424
-14.3631
-14.3846
-14.4051
-14.4474
-14.503
-13.2505
-12.9468
-13.2335
-13.4787
-13.584
-13.6596
-13.719
-13.7687
-13.8132
-13.8538
-13.8914
-13.9268
-13.9602
-13.992
-14.0224
-14.0516
-14.0796
-14.1067
-14.1329
-14.1584
-14.1832
-14.2075
-14.2313
-14.2548
-14.2778
-14.3005
-14.3229
-14.3451
-14.3671
-14.3901
-14.4147
-14.4471
-14.4837
-13.7574
-13.7918
-13.7892
-13.7302
-13.7227
-13.7434
-13.7701
-13.7994
-13.8306
-13.8625
-13.8942
-13.9254
-13.9561
-13.986
-14.0152
-14.0435
-14.0711
-14.098
-14.1242
-14.1497
-14.1748
-14.1993
-14.2235
-14.2473
-14.2708
-14.2942
-14.3174
-14.3408
-14.3647
-14.3904
-14.4185
-14.4561
-14.5002
-13.602
-13.502
-13.5463
-13.6125
-13.6657
-13.7125
-13.7536
-13.7914
-13.8276
-13.8625
-13.896
-13.9282
-13.9594
-13.9896
-14.0187
-14.0468
-14.0741
-14.1007
-14.1265
-14.1517
-14.1764
-14.2007
-14.2245
-14.2482
-14.2716
-14.2949
-14.3184
-14.3423
-14.367
-14.3936
-14.4229
-14.4583
-14.4985
-13.657
-13.6404
-13.6657
-13.689
-13.7116
-13.7411
-13.773
-13.805
-13.8372
-13.869
-13.9003
-13.9308
-13.9605
-13.9895
-14.0177
-14.0451
-14.0719
-14.0979
-14.1234
-14.1484
-14.1729
-14.197
-14.2209
-14.2445
-14.268
-14.2916
-14.3155
-14.3399
-14.3652
-14.3924
-14.422
-14.456
-14.4935
-13.6552
-13.6341
-13.6501
-13.679
-13.7093
-13.7425
-13.7757
-13.8081
-13.8401
-13.8715
-13.9023
-13.9323
-13.9616
-13.9901
-14.0179
-14.045
-14.0714
-14.0971
-14.1223
-14.147
-14.1714
-14.1953
-14.219
-14.2426
-14.2661
-14.2898
-14.3137
-14.3383
-14.3638
-14.3909
-14.42
-14.4519
-14.4862
-13.6692
-13.6615
-13.677
-13.7017
-13.7272
-13.7556
-13.7854
-13.8155
-13.8457
-13.8757
-13.9053
-13.9343
-13.9627
-13.9904
-14.0176
-14.0441
-14.07
-14.0953
-14.1202
-14.1446
-14.1686
-14.1924
-14.2159
-14.2393
-14.2628
-14.2864
-14.3103
-14.3348
-14.3602
-14.3869
-14.4151
-14.4452
-14.4768
-13.6821
-13.6782
-13.6905
-13.7122
-13.7364
-13.7634
-13.7921
-13.821
-13.8501
-13.8791
-13.9077
-13.9359
-13.9635
-13.9906
-14.0172
-14.0432
-14.0686
-14.0935
-14.118
-14.1421
-14.1659
-14.1894
-14.2127
-14.236
-14.2593
-14.2827
-14.3065
-14.3308
-14.3558
-14.3818
-14.4089
-14.4372
-14.4663
-13.6955
-13.695
-13.7064
-13.726
-13.7483
-13.7733
-13.8
-13.8274
-13.855
-13.8828
-13.9103
-13.9376
-13.9644
-13.9908
-14.0167
-14.0421
-14.067
-14.0915
-14.1156
-14.1394
-14.1628
-14.186
-14.2091
-14.2321
-14.2551
-14.2783
-14.3017
-14.3256
-14.3501
-14.3753
-14.4012
-14.4279
-14.4549
-13.7089
-13.71
-13.7205
-13.7381
-13.7588
-13.7821
-13.8072
-13.8332
-13.8597
-13.8863
-13.9129
-13.9392
-13.9653
-13.9909
-14.0162
-14.041
-14.0654
-14.0894
-14.1131
-14.1364
-14.1595
-14.1824
-14.2051
-14.2278
-14.2504
-14.2733
-14.2963
-14.3197
-14.3435
-14.3677
-14.3925
-14.4176
-14.4429
-13.7221
-13.7241
-13.7339
-13.75
-13.7692
-13.791
-13.8146
-13.8392
-13.8644
-13.8899
-13.9154
-13.9409
-13.9661
-13.991
-14.0156
-14.0398
-14.0637
-14.0872
-14.1104
-14.1333
-14.1559
-14.1784
-14.2007
-14.223
-14.2453
-14.2677
-14.2902
-14.3129
-14.3359
-14.3593
-14.3829
-14.4066
-14.4302
-13.7347
-13.7372
-13.7465
-13.7612
-13.7791
-13.7994
-13.8216
-13.8449
-13.8689
-13.8933
-13.9179
-13.9424
-13.9668
-13.991
-14.0149
-14.0385
-14.0618
-14.0848
-14.1075
-14.1299
-14.1521
-14.1741
-14.196
-14.2179
-14.2397
-14.2615
-14.2834
-14.3055
-14.3277
-14.3501
-14.3725
-14.3949
-14.4172
-13.7469
-13.7495
-13.7583
-13.7719
-13.7885
-13.8075
-13.8284
-13.8505
-13.8733
-13.8967
-13.9203
-13.9439
-13.9675
-13.9909
-14.0141
-14.0371
-14.0598
-14.0822
-14.1044
-14.1263
-14.148
-14.1696
-14.191
-14.2123
-14.2336
-14.2548
-14.2761
-14.2974
-14.3188
-14.3402
-14.3615
-14.3827
-14.4037
-13.7583
-13.761
-13.7693
-13.7819
-13.7973
-13.8152
-13.8348
-13.8558
-13.8775
-13.8998
-13.9225
-13.9453
-13.968
-13.9907
-14.0132
-14.0356
-14.0576
-14.0795
-14.1011
-14.1225
-14.1437
-14.1647
-14.1856
-14.2064
-14.227
-14.2476
-14.2682
-14.2888
-14.3092
-14.3297
-14.3499
-14.37
-14.3898
-13.7691
-13.7717
-13.7796
-13.7913
-13.8057
-13.8224
-13.841
-13.8608
-13.8815
-13.9028
-13.9246
-13.9465
-13.9684
-13.9904
-14.0122
-14.0339
-14.0553
-14.0766
-14.0976
-14.1185
-14.1391
-14.1596
-14.1799
-14.2
-14.2201
-14.24
-14.2598
-14.2796
-14.2992
-14.3186
-14.3379
-14.3569
-14.3755
-13.7792
-13.7817
-13.7891
-13.8
-13.8135
-13.8292
-13.8467
-13.8655
-13.8852
-13.9056
-13.9264
-13.9475
-13.9687
-13.9899
-14.011
-14.032
-14.0528
-14.0735
-14.0939
-14.1142
-14.1342
-14.1541
-14.1738
-14.1933
-14.2127
-14.2319
-14.251
-14.2699
-14.2886
-14.3071
-14.3254
-14.3433
-14.3609
-13.7885
-13.7909
-13.7978
-13.8081
-13.8207
-13.8355
-13.852
-13.8699
-13.8886
-13.9081
-13.9281
-13.9483
-13.9687
-13.9892
-14.0096
-14.0299
-14.0501
-14.0701
-14.09
-14.1096
-14.129
-14.1483
-14.1673
-14.1862
-14.2049
-14.2234
-14.2417
-14.2597
-14.2776
-14.2952
-14.3124
-14.3294
-14.3459
-13.7971
-13.7993
-13.8058
-13.8154
-13.8273
-13.8413
-13.8569
-13.8738
-13.8917
-13.9103
-13.9294
-13.9489
-13.9685
-13.9883
-14.008
-14.0276
-14.0472
-14.0665
-14.0858
-14.1048
-14.1236
-14.1422
-14.1606
-14.1787
-14.1967
-14.2144
-14.2319
-14.2492
-14.2661
-14.2828
-14.2991
-14.3151
-14.3307
-13.8048
-13.8069
-13.8131
-13.8221
-13.8333
-13.8465
-13.8613
-13.8773
-13.8944
-13.9122
-13.9305
-13.9492
-13.9681
-13.9871
-14.0061
-14.0251
-14.044
-14.0627
-14.0813
-14.0997
-14.1178
-14.1358
-14.1535
-14.171
-14.1882
-14.2051
-14.2218
-14.2382
-14.2543
-14.2701
-14.2855
-14.3005
-14.3151
-13.8118
-13.8138
-13.8196
-13.8281
-13.8386
-13.8511
-13.8651
-13.8804
-13.8966
-13.9137
-13.9312
-13.9492
-13.9673
-13.9857
-14.004
-14.0223
-14.0406
-14.0586
-14.0766
-14.0943
-14.1118
-14.1291
-14.1461
-14.1628
-14.1793
-14.1955
-14.2114
-14.227
-14.2422
-14.2571
-14.2716
-14.2856
-14.2993
-13.8179
-13.8198
-13.8252
-13.8332
-13.8432
-13.855
-13.8683
-13.8829
-13.8984
-13.9147
-13.9316
-13.9488
-13.9663
-13.9839
-14.0016
-14.0193
-14.0368
-14.0543
-14.0716
-14.0886
-14.1055
-14.1221
-14.1384
-14.1544
-14.1702
-14.1856
-14.2007
-14.2154
-14.2298
-14.2438
-14.2573
-14.2705
-14.2832
-13.8231
-13.8249
-13.8301
-13.8377
-13.8471
-13.8583
-13.871
-13.8849
-13.8998
-13.9154
-13.9315
-13.9481
-13.9649
-13.9819
-13.9989
-14.016
-14.0329
-14.0497
-14.0663
-14.0827
-14.0989
-14.1148
-14.1304
-14.1457
-14.1607
-14.1754
-14.1897
-14.2036
-14.2171
-14.2302
-14.2429
-14.2552
-14.267
-13.8275
-13.8292
-13.8341
-13.8413
-13.8502
-13.8609
-13.873
-13.8863
-13.9005
-13.9154
-13.931
-13.9469
-13.9631
-13.9795
-13.9959
-14.0123
-14.0286
-14.0448
-14.0608
-14.0765
-14.092
-14.1073
-14.1222
-14.1368
-14.151
-14.1649
-14.1784
-14.1915
-14.2042
-14.2165
-14.2283
-14.2397
-14.2506
-13.831
-13.8326
-13.8372
-13.8441
-13.8526
-13.8628
-13.8744
-13.8871
-13.9008
-13.9152
-13.9301
-13.9455
-13.9611
-13.9769
-13.9927
-14.0085
-14.0242
-14.0397
-14.0551
-14.0702
-14.085
-14.0996
-14.1138
-14.1277
-14.1412
-14.1543
-14.1671
-14.1794
-14.1913
-14.2027
-14.2137
-14.2242
-14.2342
-13.8335
-13.835
-13.8394
-13.8459
-13.854
-13.8637
-13.8748
-13.887
-13.9001
-13.914
-13.9284
-13.9432
-13.9583
-13.9735
-13.9888
-14.004
-14.0192
-14.0341
-14.0489
-14.0634
-14.0776
-14.0915
-14.1051
-14.1183
-14.1311
-14.1435
-14.1554
-14.167
-14.1781
-14.1887
-14.1989
-14.2086
-14.2178
-13.8351
-13.8366
-13.8408
-13.847
-13.8549
-13.8643
-13.8751
-13.8869
-13.8996
-13.913
-13.9269
-13.9413
-13.9558
-13.9705
-13.9852
-13.9999
-14.0144
-14.0288
-14.043
-14.0568
-14.0704
-14.0837
-14.0965
-14.109
-14.1211
-14.1328
-14.144
-14.1548
-14.1651
-14.1749
-14.1843
-14.1931
-14.2015
-13.8356
-13.8369
-13.8407
-13.8465
-13.8539
-13.8628
-13.873
-13.8846
-13.8969
-13.9099
-13.9235
-13.9374
-13.9515
-13.9658
-13.9801
-13.9943
-14.0084
-14.0223
-14.036
-14.0493
-14.0623
-14.075
-14.0873
-14.0991
-14.1106
-14.1216
-14.1321
-14.1422
-14.1518
-14.1609
-14.1695
-14.1776
-14.1851
-13.8353
-13.8368
-13.8409
-13.8467
-13.8542
-13.863
-13.8732
-13.8844
-13.8964
-13.909
-13.9221
-13.9356
-13.9493
-13.963
-13.9768
-13.9904
-14.0039
-14.0172
-14.0303
-14.043
-14.0554
-14.0674
-14.079
-14.0902
-14.1009
-14.1112
-14.121
-14.1303
-14.1391
-14.1475
-14.1553
-14.1626
-14.1694
-13.8334
-13.834
-13.8368
-13.8416
-13.8482
-13.8566
-13.8665
-13.8775
-13.8894
-13.9021
-13.9152
-13.9286
-13.9422
-13.9558
-13.9694
-13.9829
-13.9962
-14.0092
-14.0219
-14.0343
-14.0463
-14.0578
-14.069
-14.0797
-14.0899
-14.0996
-14.1089
-14.1176
-14.1258
-14.1335
-14.1407
-14.1473
-14.1534
-13.8322
-13.8347
-13.8391
-13.8449
-13.852
-13.8605
-13.8701
-13.8808
-13.8922
-13.9042
-13.9166
-13.9293
-13.9422
-13.9551
-13.968
-13.9807
-13.9932
-14.0055
-14.0175
-14.0292
-14.0404
-14.0513
-14.0617
-14.0717
-14.0812
-14.0902
-14.0987
-14.1066
-14.1141
-14.1211
-14.1275
-14.1334
-14.1387
-13.8243
-13.8222
-13.8224
-13.8259
-13.8323
-13.841
-13.8514
-13.863
-13.8755
-13.8886
-13.902
-13.9156
-13.9293
-13.9428
-13.9562
-13.9693
-13.9822
-13.9947
-14.0067
-14.0184
-14.0296
-14.0403
-14.0506
-14.0603
-14.0695
-14.0782
-14.0863
-14.0939
-14.1009
-14.1074
-14.1133
-14.1187
-14.1235
-13.8313
-13.8377
-13.8434
-13.8482
-13.8538
-13.8609
-13.8694
-13.8789
-13.8893
-13.9004
-13.9119
-13.9238
-13.9357
-13.9478
-13.9597
-13.9715
-13.9831
-13.9944
-14.0054
-14.016
-14.0263
-14.036
-14.0454
-14.0542
-14.0625
-14.0704
-14.0777
-14.0845
-14.0907
-14.0964
-14.1016
-14.1062
-14.1102
-13.7995
-13.786
-13.7811
-13.7859
-13.7957
-13.8079
-13.8216
-13.8363
-13.8514
-13.8666
-13.8819
-13.8969
-13.9116
-13.9259
-13.9398
-13.9533
-13.9662
-13.9787
-13.9906
-14.0019
-14.0127
-14.0229
-14.0325
-14.0416
-14.05
-14.0579
-14.0652
-14.0719
-14.078
-14.0835
-14.0884
-14.0927
-14.0964
-13.8528
-13.873
-13.8771
-13.8723
-13.8697
-13.8717
-13.8766
-13.8833
-13.8913
-13.9005
-13.9104
-13.9207
-13.9314
-13.9422
-13.9531
-13.9638
-13.9743
-13.9846
-13.9946
-14.0042
-14.0134
-14.0221
-14.0304
-14.0382
-14.0456
-14.0523
-14.0586
-14.0643
-14.0695
-14.0741
-14.0782
-14.0817
-14.0847
-13.7299
-13.6804
-13.6686
-13.6946
-13.7222
-13.7461
-13.7695
-13.7922
-13.8138
-13.8342
-13.8535
-13.8717
-13.8889
-13.9052
-13.9207
-13.9353
-13.949
-13.9621
-13.9743
-13.9858
-13.9967
-14.0068
-14.0162
-14.0249
-14.033
-14.0403
-14.0471
-14.0531
-14.0586
-14.0634
-14.0675
-14.0711
-14.074
-13.9778
-14.0126
-13.9816
-13.9387
-13.9098
-13.8986
-13.8954
-13.8958
-13.8992
-13.9048
-13.9119
-13.9199
-13.9287
-13.9379
-13.9472
-13.9567
-13.966
-13.9752
-13.9841
-13.9927
-14.001
-14.0088
-14.0162
-14.0232
-14.0296
-14.0356
-14.041
-14.0459
-14.0503
-14.0541
-14.0573
-14.0601
-14.0623
-13.4856
-13.3658
-13.4281
-13.5295
-13.6032
-13.6546
-13.6979
-13.7357
-13.7684
-13.7972
-13.8228
-13.8459
-13.8669
-13.8861
-13.9037
-13.9199
-13.935
-13.9489
-13.9618
-13.9738
-13.9849
-13.9951
-14.0045
-14.0131
-14.021
-14.0281
-14.0344
-14.0401
-14.0451
-14.0494
-14.053
-14.056
-14.0582
-14.6999
-14.361
-14.0971
-13.9798
-13.9295
-13.9039
-13.8885
-13.8819
-13.8816
-13.8851
-13.891
-13.8986
-13.9073
-13.9165
-13.9261
-13.9359
-13.9455
-13.955
-13.9642
-13.9731
-13.9816
-13.9896
-13.9972
-14.0043
-14.0108
-14.0168
-14.0222
-14.0271
-14.0314
-14.0351
-14.0383
-14.0409
-14.0429
-12.1963
-12.9028
-13.3072
-13.4594
-13.5638
-13.6459
-13.705
-13.7495
-13.7855
-13.8153
-13.8404
-13.8623
-13.8816
-13.8991
-13.9149
-13.9294
-13.9428
-13.9552
-13.9667
-13.9773
-13.9871
-13.9962
-14.0045
-14.0121
-14.019
-14.0252
-14.0307
-14.0356
-14.0398
-14.0433
-14.0463
-14.0486
-14.0502
-14.2398
-14.4811
-14.6234
-14.7125
-14.7732
-14.8166
-14.8526
-14.8895
-14.9331
-14.9852
-15.0454
-15.1127
-15.1854
-15.2613
-15.3382
-15.4141
-15.487
-15.5555
-15.6184
-15.6749
-15.7241
-15.7656
-15.799
-15.8241
-15.8403
-15.8474
-15.8448
-15.8319
-15.8078
-15.7717
-15.7227
-15.6597
-15.5816
-15.4872
-15.3756
-15.2455
-15.096
-14.926
-14.7346
-14.5211
-14.2847
-14.025
-13.7417
-13.4348
-13.1044
-12.7511
-12.3759
-11.9799
-11.5649
-11.1327
-10.6858
-10.2267
-9.75852
-9.28432
-8.80747
-8.3314
-7.85956
-7.39533
-6.94193
-6.50235
-6.07929
-5.67509
-5.29168
-4.93052
-4.59266
-4.27863
-3.98857
-3.72213
-3.4786
-3.25689
-3.05559
-2.87304
-2.70731
-2.55634
-2.41793
-2.28981
-2.16973
-2.05546
-1.94489
-1.83608
-1.72733
-1.6172
-1.50463
-1.38896
-1.27
-1.14806
-1.02397
-0.899099
-0.775234
-0.654609
-0.539516
-0.432581
-0.335422
-0.250913
-0.177406
-0.121443
-0.0686034
-0.0500463
0.00969003
-0.0574737
-14.841
-14.9765
-14.9116
-14.8447
-14.8123
-14.7887
-14.7847
-14.7975
-14.8288
-14.8792
-14.9444
-15.0207
-15.1039
-15.1901
-15.2758
-15.3583
-15.4354
-15.5058
-15.5687
-15.6238
-15.6709
-15.71
-15.741
-15.7638
-15.778
-15.7832
-15.7789
-15.7644
-15.7388
-15.7013
-15.6509
-15.5866
-15.5073
-15.412
-15.2995
-15.1689
-15.0191
-14.8491
-14.6581
-14.4454
-14.2102
-13.9521
-13.671
-13.3667
-13.0395
-12.69
-12.319
-11.9279
-11.5181
-11.0917
-10.6509
-10.1983
-9.73666
-9.26914
-8.79895
-8.32943
-7.86391
-7.40568
-6.95788
-6.52343
-6.10495
-5.70471
-5.3246
-4.96607
-4.63012
-4.31733
-4.02782
-3.76132
-3.51716
-3.29433
-3.09151
-2.90711
-2.73931
-2.58612
-2.44541
-2.315
-2.19268
-2.07626
-1.96369
-1.85304
-1.74263
-1.63106
-1.51727
-1.40061
-1.28089
-1.15844
-1.03408
-0.90916
-0.785445
-0.665129
-0.550384
-0.443778
-0.346648
-0.262048
-0.187615
-0.13117
-0.0756094
-0.0575875
0.00909932
-0.064785
-14.5392
-14.5434
-14.566
-14.619
-14.6763
-14.7271
-14.7649
-14.8033
-14.8462
-14.8946
-14.9491
-15.01
-15.0763
-15.1463
-15.2182
-15.2902
-15.3605
-15.4274
-15.4895
-15.5455
-15.5944
-15.6356
-15.6683
-15.6922
-15.7069
-15.7119
-15.7069
-15.6912
-15.6642
-15.6252
-15.5733
-15.5076
-15.427
-15.3306
-15.2174
-15.0862
-14.9362
-14.7663
-14.5759
-14.364
-14.1302
-13.8741
-13.5953
-13.2939
-12.9702
-12.6247
-12.2583
-11.8722
-11.4679
-11.0473
-10.6127
-10.1666
-9.71164
-9.25091
-8.78754
-8.32476
-7.86582
-7.41392
-6.97207
-6.54312
-6.12959
-5.73369
-5.35726
-5.00169
-4.66797
-4.35669
-4.06798
-3.80161
-3.55696
-3.33309
-3.12876
-2.94247
-2.7725
-2.61694
-2.47376
-2.34085
-2.21606
-2.09728
-1.9825
-1.86982
-1.7576
-1.64446
-1.52936
-1.41166
-1.2912
-1.1683
-1.04378
-0.918961
-0.795568
-0.675722
-0.561447
-0.455236
-0.358152
-0.273438
-0.198059
-0.141072
-0.0828266
-0.0651726
0.00814435
-0.0717655
-14.5951
-14.7101
-14.7726
-14.792
-14.7992
-14.8007
-14.7985
-14.8086
-14.838
-14.8775
-14.9271
-14.9861
-15.0516
-15.121
-15.1916
-15.2609
-15.3269
-15.3881
-15.4437
-15.4928
-15.5351
-15.5702
-15.5978
-15.6175
-15.6288
-15.6313
-15.6244
-15.6072
-15.579
-15.5389
-15.4861
-15.4195
-15.3382
-15.2411
-15.1274
-14.9959
-14.8459
-14.6763
-14.4865
-14.2758
-14.0435
-13.7893
-13.513
-13.2146
-12.8944
-12.553
-12.1911
-11.8101
-11.4115
-10.997
-10.5689
-10.1295
-9.68161
-9.22809
-8.77199
-8.31643
-7.86454
-7.41941
-6.98396
-6.56091
-6.15272
-5.76151
-5.38906
-5.03674
-4.70552
-4.39597
-4.10826
-3.8422
-3.59722
-3.37244
-3.16669
-2.97856
-2.80641
-2.64843
-2.50268
-2.36714
-2.23974
-2.11844
-2.00128
-1.88643
-1.77227
-1.65747
-1.54101
-1.42229
-1.30113
-1.17787
-1.05331
-0.92875
-0.805813
-0.686538
-0.572785
-0.466977
-0.369921
-0.285056
-0.208708
-0.151123
-0.0902332
-0.0727935
0.00686199
-0.0784377
-14.5569
-14.604
-14.619
-14.6329
-14.6579
-14.6878
-14.7275
-14.7707
-14.8112
-14.8566
-14.9083
-14.9651
-15.0257
-15.0885
-15.1519
-15.2145
-15.2748
-15.3316
-15.3839
-15.4307
-15.4712
-15.5047
-15.5306
-15.5483
-15.5574
-15.5573
-15.5475
-15.5274
-15.4963
-15.4534
-15.398
-15.3291
-15.2458
-15.1472
-15.0322
-14.8999
-14.7494
-14.5798
-14.3904
-14.1806
-13.9497
-13.6975
-13.4237
-13.1284
-12.812
-12.4748
-12.1179
-11.7424
-11.3497
-10.9417
-10.5204
-10.0883
-9.64787
-9.20199
-8.75357
-8.30564
-7.86121
-7.42322
-6.9945
-6.57765
-6.17505
-5.78874
-5.42045
-5.07152
-4.74291
-4.4352
-4.14859
-3.88291
-3.63767
-3.41204
-3.20494
-3.01501
-2.8407
-2.68031
-2.53196
-2.39373
-2.26364
-2.13972
-2.02008
-1.90296
-1.78681
-1.6703
-1.55248
-1.43276
-1.31098
-1.18745
-1.06296
-0.938744
-0.816333
-0.69766
-0.584425
-0.47899
-0.381926
-0.296864
-0.219529
-0.161289
-0.0978013
-0.0804202
0.00528408
-0.0847878
-14.544
-14.6008
-14.6466
-14.6847
-14.7176
-14.7451
-14.759
-14.7808
-14.812
-14.85
-14.8946
-14.945
-14.9999
-15.0577
-15.1165
-15.1748
-15.2308
-15.2833
-15.3311
-15.3733
-15.4092
-15.4383
-15.4601
-15.4741
-15.4798
-15.4767
-15.4642
-15.4416
-15.4082
-15.3633
-15.3059
-15.2352
-15.1502
-15.0501
-14.9339
-14.8007
-14.6497
-14.48
-14.291
-14.082
-13.8525
-13.6022
-13.331
-13.0389
-12.7262
-12.3935
-12.0416
-11.6717
-11.2853
-10.884
-10.4699
-10.0453
-9.61273
-9.17483
-8.73443
-8.29441
-7.85765
-7.42699
-7.00513
-6.59457
-6.19761
-5.81624
-5.45212
-5.10658
-4.78057
-4.4747
-4.18918
-3.9239
-3.6784
-3.45193
-3.24347
-3.05175
-2.87529
-2.71247
-2.56152
-2.42058
-2.28776
-2.16118
-2.03903
-1.91962
-1.80143
-1.68322
-1.56405
-1.44336
-1.32101
-1.19728
-1.07291
-0.949074
-0.827196
-0.709105
-0.596354
-0.491246
-0.394133
-0.30883
-0.230494
-0.171547
-0.105513
-0.0880352
0.00343243
-0.0908169
-14.5289
-14.5752
-14.61
-14.6357
-14.6586
-14.6821
-14.7153
-14.7482
-14.7848
-14.8254
-14.8702
-14.9191
-14.9711
-15.0248
-15.079
-15.1323
-15.1834
-15.2312
-15.2746
-15.3129
-15.3453
-15.3712
-15.3899
-15.4009
-15.4037
-15.3977
-15.3823
-15.3569
-15.3207
-15.2731
-15.2132
-15.1402
-15.0533
-14.9514
-14.8339
-14.6997
-14.5481
-14.3783
-14.1897
-13.9816
-13.7536
-13.5054
-13.2368
-12.9481
-12.6394
-12.3113
-11.9648
-11.6008
-11.2208
-10.8265
-10.4199
-10.003
-9.57838
-9.14853
-8.71616
-8.28404
-7.85492
-7.43151
-7.01642
-6.61208
-6.22068
-5.84416
-5.48416
-5.14196
-4.81853
-4.51448
-4.23004
-3.96514
-3.71939
-3.49209
-3.28229
-3.08878
-2.91019
-2.74496
-2.5914
-2.44775
-2.3122
-2.18296
-2.05829
-1.93656
-1.81635
-1.69644
-1.57595
-1.45432
-1.33141
-1.20749
-1.08325
-0.959781
-0.838404
-0.720852
-0.608535
-0.503706
-0.406509
-0.320927
-0.241582
-0.181877
-0.113354
-0.0956258
0.0013286
-0.0965319
-14.5147
-14.5568
-14.5932
-14.6251
-14.6562
-14.6855
-14.7126
-14.7415
-14.774
-14.8106
-14.8514
-14.8958
-14.9431
-14.9921
-15.0416
-15.0902
-15.1369
-15.1804
-15.2198
-15.2541
-15.2827
-15.3049
-15.3201
-15.3277
-15.3273
-15.3182
-15.2998
-15.2716
-15.2329
-15.1828
-15.1206
-15.0455
-14.9567
-14.8533
-14.7344
-14.5994
-14.4473
-14.2775
-14.0893
-13.8821
-13.6557
-13.4097
-13.1439
-12.8586
-12.554
-12.2307
-11.8895
-11.5314
-11.1579
-10.7706
-10.3713
-9.96206
-9.54527
-9.12334
-8.69887
-8.2745
-7.85286
-7.43658
-7.02815
-6.62991
-6.24398
-5.87225
-5.5163
-5.17742
-4.85654
-4.55429
-4.27095
-4.00646
-3.76048
-3.53238
-3.32126
-3.12601
-2.94531
-2.7777
-2.62156
-2.47523
-2.33698
-2.2051
-2.07792
-1.9539
-1.83167
-1.71008
-1.58826
-1.4657
-1.34224
-1.21813
-1.09399
-0.970844
-0.849924
-0.732861
-0.620934
-0.516342
-0.419029
-0.333134
-0.252775
-0.192264
-0.12131
-0.103182
-0.00100569
-0.101943
-14.5005
-14.5387
-14.573
-14.6033
-14.6313
-14.6592
-14.6874
-14.7178
-14.7509
-14.7871
-14.8263
-14.8682
-14.9122
-14.9575
-15.0028
-15.0472
-15.0895
-15.1287
-15.164
-15.1944
-15.2193
-15.238
-15.2499
-15.2544
-15.2509
-15.2389
-15.2178
-15.1869
-15.1455
-15.093
-15.0285
-14.9514
-14.8608
-14.7559
-14.6358
-14.5
-14.3475
-14.1777
-13.99
-13.784
-13.5592
-13.3154
-13.0525
-12.7706
-12.4701
-12.1516
-11.8157
-11.4635
-11.0964
-10.7159
-10.3238
-9.92214
-9.51304
-9.0989
-8.68218
-8.26541
-7.85113
-7.44185
-7.03996
-6.64773
-6.26719
-5.90019
-5.54827
-5.21267
-4.89435
-4.59392
-4.31168
-4.04763
-3.80147
-3.57261
-3.36023
-3.16328
-2.98053
-2.81058
-2.65192
-2.50295
-2.36204
-2.22755
-2.0979
-1.97162
-1.84739
-1.72413
-1.601
-1.47751
-1.35348
-1.22915
-1.10507
-0.982222
-0.861715
-0.745099
-0.633521
-0.529128
-0.431675
-0.345436
-0.264061
-0.202697
-0.129371
-0.110696
-0.00354898
-0.107063
-14.4863
-14.5215
-14.5544
-14.5847
-14.6137
-14.6422
-14.6707
-14.7004
-14.7319
-14.7659
-14.8023
-14.8409
-14.8813
-14.9225
-14.9636
-15.0038
-15.0419
-15.077
-15.1083
-15.1349
-15.1562
-15.1714
-15.1799
-15.1812
-15.1747
-15.1597
-15.1358
-15.1022
-15.0583
-15.0034
-14.9368
-14.8577
-14.7654
-14.6591
-14.538
-14.4014
-14.2486
-14.079
-13.8919
-13.6871
-13.4639
-13.2224
-12.9624
-12.684
-12.3876
-12.0737
-11.7431
-11.3967
-11.036
-10.6622
-10.2772
-9.88292
-9.48139
-9.07489
-8.66578
-8.25649
-7.84945
-7.44706
-7.05163
-6.66532
-6.29012
-5.9278
-5.57987
-5.24756
-4.93179
-4.63319
-4.3521
-4.08852
-3.84221
-3.61264
-3.39906
-3.20047
-3.01572
-2.8435
-2.68237
-2.53082
-2.38729
-2.25024
-2.11816
-1.98965
-1.86346
-1.73854
-1.61412
-1.48968
-1.36508
-1.2405
-1.11648
-0.993878
-0.873749
-0.757542
-0.64628
-0.542053
-0.444437
-0.357824
-0.275433
-0.213168
-0.137526
-0.118163
-0.00628032
-0.111908
-14.4719
-14.5047
-14.5359
-14.5654
-14.5937
-14.6216
-14.6495
-14.6784
-14.709
-14.7413
-14.7756
-14.8115
-14.8486
-14.8862
-14.9236
-14.9597
-14.9938
-15.025
-15.0524
-15.0753
-15.0929
-15.1047
-15.1099
-15.108
-15.0985
-15.0807
-15.054
-15.0178
-14.9714
-14.9142
-14.8455
-14.7646
-14.6706
-14.563
-14.4409
-14.3036
-14.1506
-13.9812
-13.7948
-13.5911
-13.3698
-13.1305
-12.8734
-12.5985
-12.3061
-11.9969
-11.6715
-11.3309
-10.9763
-10.6093
-10.2313
-9.84421
-9.45012
-9.05114
-8.64952
-8.24759
-7.84768
-7.45208
-7.06301
-6.68255
-6.31264
-5.95496
-5.611
-5.28196
-4.96875
-4.67201
-4.39209
-4.12903
-3.88262
-3.6524
-3.43766
-3.23749
-3.05081
-2.87637
-2.71283
-2.55875
-2.41266
-2.2731
-2.13863
-2.00793
-1.87981
-1.75327
-1.62755
-1.50218
-1.377
-1.25217
-1.12816
-1.00579
-0.88601
-0.770178
-0.659201
-0.555109
-0.457307
-0.370291
-0.286883
-0.223671
-0.145767
-0.125581
-0.00917949
-0.116493
-14.4574
-14.488
-14.5177
-14.5463
-14.5739
-14.6013
-14.6287
-14.6568
-14.6859
-14.7165
-14.7484
-14.7814
-14.8153
-14.8494
-14.883
-14.9153
-14.9455
-14.9728
-14.9964
-15.0156
-15.0297
-15.0381
-15.04
-15.0351
-15.0225
-15.0018
-14.9724
-14.9336
-14.8849
-14.8255
-14.7547
-14.6719
-14.5765
-14.4675
-14.3445
-14.2067
-14.0535
-13.8843
-13.6987
-13.4962
-13.2766
-13.0397
-12.7854
-12.514
-12.2257
-11.9211
-11.6008
-11.2659
-10.9175
-10.5569
-10.1858
-9.80593
-9.41915
-9.02756
-8.63331
-8.23862
-7.84572
-7.45681
-7.07402
-6.69936
-6.33466
-5.9816
-5.64159
-5.31581
-5.00517
-4.71031
-4.43159
-4.16908
-3.92263
-3.69181
-3.47598
-3.2743
-3.08574
-2.90915
-2.74326
-2.58671
-2.43812
-2.2961
-2.15929
-2.02644
-1.89642
-1.76827
-1.64129
-1.515
-1.38923
-1.26413
-1.14012
-1.01796
-0.898491
-0.783004
-0.67228
-0.568293
-0.470283
-0.382834
-0.298407
-0.234202
-0.154085
-0.132947
-0.0122271
-0.120839
-14.4426
-14.4714
-14.4996
-14.527
-14.5538
-14.5802
-14.6067
-14.6337
-14.6614
-14.6901
-14.7197
-14.7502
-14.781
-14.8117
-14.8418
-14.8704
-14.8968
-14.9204
-14.9404
-14.956
-14.9666
-14.9716
-14.9704
-14.9623
-14.9468
-14.9233
-14.8912
-14.8499
-14.7988
-14.7372
-14.6644
-14.5799
-14.4829
-14.3728
-14.2489
-14.1106
-13.9572
-13.7884
-13.6035
-13.4023
-13.1845
-12.9499
-12.6985
-12.4305
-12.1463
-11.8462
-11.531
-11.2017
-10.8593
-10.5052
-10.1409
-9.76801
-9.38843
-9.0041
-8.6171
-8.22953
-7.84354
-7.46122
-7.08462
-6.71566
-6.35614
-6.00764
-5.67156
-5.34904
-5.04098
-4.74801
-4.47053
-4.20863
-3.96218
-3.73082
-3.51396
-3.31082
-3.12046
-2.94179
-2.77361
-2.61466
-2.46363
-2.31921
-2.18011
-2.04516
-1.91327
-1.78355
-1.65531
-1.5281
-1.40176
-1.27638
-1.15236
-1.03037
-0.911191
-0.796016
-0.685517
-0.581602
-0.483364
-0.395452
-0.310003
-0.244759
-0.162475
-0.140263
-0.0154051
-0.124963
-14.4276
-14.4547
-14.4814
-14.5076
-14.5333
-14.5588
-14.5842
-14.6099
-14.6361
-14.6629
-14.6903
-14.7181
-14.746
-14.7735
-14.8001
-14.8252
-14.848
-14.868
-14.8843
-14.8964
-14.9037
-14.9054
-14.9009
-14.8898
-14.8714
-14.8451
-14.8104
-14.7666
-14.7131
-14.6494
-14.5748
-14.4885
-14.3901
-14.2789
-14.1541
-14.0153
-13.8619
-13.6934
-13.5094
-13.3095
-13.0935
-12.8612
-12.6127
-12.3481
-12.0678
-11.7723
-11.4621
-11.1383
-10.8019
-10.4541
-10.0964
-9.73046
-9.35793
-8.98074
-8.60085
-8.22029
-7.84108
-7.46525
-7.09475
-6.73144
-6.37702
-6.03305
-5.70087
-5.38159
-5.07612
-4.78507
-4.50885
-4.2476
-4.00121
-3.76937
-3.55155
-3.34702
-3.15492
-2.97424
-2.80385
-2.64257
-2.48916
-2.34239
-2.20107
-2.06405
-1.93034
-1.79908
-1.66961
-1.5415
-1.41457
-1.28892
-1.16486
-1.04303
-0.924108
-0.809215
-0.69891
-0.595038
-0.496547
-0.408143
-0.321668
-0.255341
-0.170931
-0.14753
-0.0186964
-0.128885
-14.4123
-14.4378
-14.4631
-14.488
-14.5126
-14.5369
-14.5611
-14.5854
-14.61
-14.6348
-14.66
-14.6852
-14.7103
-14.7347
-14.758
-14.7797
-14.799
-14.8155
-14.8283
-14.837
-14.8409
-14.8394
-14.8318
-14.8177
-14.7964
-14.7674
-14.7301
-14.6838
-14.6281
-14.5623
-14.4858
-14.3979
-14.2981
-14.1858
-14.0603
-13.9211
-13.7677
-13.5996
-13.4164
-13.2178
-13.0036
-12.7736
-12.528
-12.2668
-11.9904
-11.6993
-11.3941
-11.0757
-10.7452
-10.4036
-10.0525
-9.69325
-9.32766
-8.95747
-8.58456
-8.21086
-7.83833
-7.46888
-7.10439
-6.74663
-6.39726
-6.05777
-5.72946
-5.41342
-5.11054
-4.82143
-4.54651
-4.28595
-4.03967
-3.80741
-3.58869
-3.38285
-3.18909
-3.00646
-2.83393
-2.67039
-2.51467
-2.36563
-2.22213
-2.08311
-1.94762
-1.81485
-1.68418
-1.55518
-1.42767
-1.30173
-1.17762
-1.05592
-0.937239
-0.822597
-0.712458
-0.608598
-0.509834
-0.420908
-0.333402
-0.265948
-0.179448
-0.154752
-0.0220856
-0.132623
-14.3968
-14.4208
-14.4446
-14.4682
-14.4915
-14.5145
-14.5374
-14.5602
-14.5831
-14.606
-14.629
-14.6517
-14.674
-14.6954
-14.7156
-14.7339
-14.7499
-14.763
-14.7725
-14.7778
-14.7785
-14.7737
-14.7631
-14.7461
-14.722
-14.6902
-14.6504
-14.6017
-14.5438
-14.476
-14.3976
-14.3082
-14.2071
-14.0937
-13.9675
-13.8279
-13.6745
-13.5068
-13.3245
-13.1273
-12.9149
-12.6873
-12.4445
-12.1866
-11.9141
-11.6274
-11.3271
-11.014
-10.6892
-10.3537
-10.009
-9.6564
-9.2976
-8.93427
-8.56821
-8.20125
-7.83526
-7.47208
-7.11349
-6.76121
-6.41683
-6.08177
-5.75729
-5.44448
-5.14418
-4.85703
-4.58345
-4.32361
-4.0775
-3.84488
-3.62533
-3.41825
-3.2229
-3.03841
-2.86382
-2.69808
-2.54013
-2.38888
-2.24326
-2.10229
-1.96507
-1.83084
-1.69899
-1.56912
-1.44104
-1.3148
-1.19064
-1.06905
-0.950577
-0.836159
-0.726158
-0.62228
-0.523222
-0.433746
-0.345205
-0.276582
-0.188022
-0.161933
-0.0255591
-0.136197
-14.3809
-14.4035
-14.4259
-14.4482
-14.4701
-14.4918
-14.5132
-14.5345
-14.5556
-14.5766
-14.5973
-14.6176
-14.6372
-14.6557
-14.6729
-14.688
-14.7008
-14.7106
-14.7168
-14.7189
-14.7164
-14.7085
-14.6949
-14.675
-14.6481
-14.6137
-14.5714
-14.5204
-14.4603
-14.3905
-14.3104
-14.2194
-14.117
-14.0027
-13.8758
-13.7359
-13.5826
-13.4154
-13.2339
-13.038
-12.8274
-12.6021
-12.3621
-12.1076
-11.839
-11.5565
-11.261
-10.9532
-10.634
-10.3045
-9.966
-9.61992
-9.26776
-8.91115
-8.55179
-8.19143
-7.83186
-7.47483
-7.12205
-6.77516
-6.43568
-6.10499
-5.78433
-5.47472
-5.17701
-4.89183
-4.61961
-4.36054
-4.11465
-3.88173
-3.66141
-3.45316
-3.2563
-3.07003
-2.89345
-2.7256
-2.56549
-2.4121
-2.26444
-2.12158
-1.98268
-1.84701
-1.71402
-1.5833
-1.45466
-1.32813
-1.20389
-1.0824
-0.964115
-0.849894
-0.740005
-0.636085
-0.536713
-0.44666
-0.357078
-0.287247
-0.196654
-0.169078
-0.0291047
-0.139625
-14.3647
-14.3859
-14.407
-14.4278
-14.4484
-14.4687
-14.4886
-14.5083
-14.5276
-14.5466
-14.5652
-14.583
-14.6
-14.6158
-14.6299
-14.6421
-14.6517
-14.6583
-14.6614
-14.6603
-14.6547
-14.6438
-14.6273
-14.6045
-14.5749
-14.538
-14.4932
-14.4399
-14.3777
-14.306
-14.2242
-14.1317
-14.0281
-13.9128
-13.7853
-13.6452
-13.4919
-13.3252
-13.1447
-12.9501
-12.7413
-12.5183
-12.2811
-12.0299
-11.765
-11.4868
-11.196
-10.8932
-10.5795
-10.2559
-9.92356
-9.58383
-9.23816
-8.88812
-8.53531
-8.18141
-7.82812
-7.47712
-7.13003
-6.78843
-6.45378
-6.12742
-5.81051
-5.50409
-5.20896
-4.92577
-4.65493
-4.39668
-4.15106
-3.9179
-3.69689
-3.48754
-3.28925
-3.10127
-2.92278
-2.75291
-2.59071
-2.43525
-2.28561
-2.14092
-2.00039
-1.86334
-1.72924
-1.59769
-1.46851
-1.34168
-1.21737
-1.09596
-0.977841
-0.863795
-0.753997
-0.650009
-0.550306
-0.459653
-0.369025
-0.297948
-0.205343
-0.176197
-0.0327119
-0.142925
-14.3483
-14.3682
-14.3878
-14.4073
-14.4264
-14.4452
-14.4636
-14.4816
-14.4992
-14.5162
-14.5326
-14.5481
-14.5625
-14.5756
-14.5869
-14.5961
-14.6027
-14.6063
-14.6063
-14.6022
-14.5935
-14.5797
-14.5603
-14.5348
-14.5025
-14.4631
-14.4159
-14.3604
-14.2961
-14.2225
-14.1391
-14.0452
-13.9404
-13.8243
-13.6962
-13.5558
-13.4027
-13.2365
-13.0569
-12.8637
-12.6567
-12.436
-12.2015
-11.9535
-11.6923
-11.4182
-11.132
-10.8343
-10.526
-10.2081
-9.88169
-9.54815
-9.20883
-8.86518
-8.51878
-8.17119
-7.82404
-7.47893
-7.13743
-6.80102
-6.47112
-6.149
-5.83582
-5.53255
-5.24
-4.9588
-4.68937
-4.43198
-4.18667
-3.95333
-3.7317
-3.52133
-3.32168
-3.13207
-2.95177
-2.77994
-2.61573
-2.45828
-2.30673
-2.16028
-2.01818
-1.87979
-1.74461
-1.61226
-1.48255
-1.35544
-1.23105
-1.10971
-0.991742
-0.877853
-0.768127
-0.664052
-0.564005
-0.47273
-0.381052
-0.308693
-0.214093
-0.183297
-0.0363721
-0.146115
-14.3316
-14.3501
-14.3685
-14.3865
-14.4042
-14.4215
-14.4383
-14.4546
-14.4704
-14.4854
-14.4997
-14.5129
-14.5249
-14.5353
-14.5439
-14.5503
-14.554
-14.5546
-14.5516
-14.5446
-14.533
-14.5163
-14.4941
-14.4659
-14.4311
-14.3891