/*--------------------------------*- C++ -*----------------------------------*\
| =========                 |                                                 |
| \\      /  F ield         | OpenFOAM: The Open Source CFD Toolbox           |
|  \\    /   O peration     | Version:  2.1.1                                 |
|   \\  /    A nd           | Web:      www.OpenFOAM.org                      |
|    \\/     M anipulation  |                                                 |
\*---------------------------------------------------------------------------*/
FoamFile
{
    version     2.0;
    format      ascii;
    class       surfaceScalarField;
    location    "0.145";
    object      phi;
}
// * * * * * * * * * * * * * * * * * * * * * * * * * * * * * * * * * * * * * //

dimensions      [0 3 -1 0 0 0 0];

internalField   nonuniform List<scalar> 
13452
(
6.89923e-05
-5.05024e-07
6.88135e-05
1.7876e-07
6.82021e-05
6.11438e-07
6.72546e-05
9.47488e-07
6.6178e-05
1.07665e-06
6.50863e-05
1.09162e-06
6.40215e-05
1.06484e-06
6.30008e-05
1.02074e-06
6.20325e-05
9.68278e-07
6.11201e-05
9.12356e-07
6.02647e-05
8.55389e-07
5.94659e-05
7.98828e-07
5.87223e-05
7.4362e-07
5.80319e-05
6.90428e-07
5.73922e-05
6.39699e-07
5.68004e-05
5.91714e-07
5.62538e-05
5.46627e-07
5.57493e-05
5.04496e-07
5.5284e-05
4.65304e-07
5.4855e-05
4.28985e-07
5.44596e-05
3.95444e-07
5.4095e-05
3.64573e-07
5.37587e-05
3.36271e-07
5.34483e-05
3.10468e-07
5.31611e-05
2.87156e-07
5.28947e-05
2.66444e-07
5.2646e-05
2.48664e-07
5.24113e-05
2.3468e-07
5.21853e-05
2.26079e-07
5.19573e-05
2.27999e-07
5.17089e-05
2.48375e-07
5.13908e-05
3.18068e-07
5.04846e-07
5.0886e-05
7.0165e-05
-2.26026e-07
7.00411e-05
3.02596e-07
7.01817e-05
4.70834e-07
7.0509e-05
6.20208e-07
7.08595e-05
7.26172e-07
7.11583e-05
7.92752e-07
7.1383e-05
8.40202e-07
7.15351e-05
8.68667e-07
7.16225e-05
8.80842e-07
7.16541e-05
8.80706e-07
7.16383e-05
8.71207e-07
7.15825e-05
8.54673e-07
7.14932e-05
8.3291e-07
7.13762e-05
8.07384e-07
7.12367e-05
7.7927e-07
7.10789e-05
7.49508e-07
7.09066e-05
7.18846e-07
7.07233e-05
6.87872e-07
7.05315e-05
6.57044e-07
7.03338e-05
6.26713e-07
7.01321e-05
5.97153e-07
6.99281e-05
5.68574e-07
6.97232e-05
5.41158e-07
6.95186e-05
5.15073e-07
6.93152e-05
4.90524e-07
6.91139e-05
4.67774e-07
6.89152e-05
4.47316e-07
6.87202e-05
4.29757e-07
6.85294e-05
4.16845e-07
6.8348e-05
4.094e-07
6.81817e-05
4.14632e-07
6.80787e-05
4.21116e-07
4.56436e-07
6.81271e-05
7.22816e-05
-5.11033e-08
7.23968e-05
1.87447e-07
7.25016e-05
3.66002e-07
7.25881e-05
5.33663e-07
7.26715e-05
6.42856e-07
7.27535e-05
7.10672e-07
7.28397e-05
7.53992e-07
7.29265e-05
7.8187e-07
7.30099e-05
7.97483e-07
7.30872e-05
8.0338e-07
7.31569e-05
8.01516e-07
7.32181e-05
7.93463e-07
7.32705e-05
7.805e-07
7.33142e-05
7.63744e-07
7.33493e-05
7.44138e-07
7.33763e-05
7.22469e-07
7.33958e-05
6.99391e-07
7.34082e-05
6.75439e-07
7.34142e-05
6.51046e-07
7.34144e-05
6.26563e-07
7.34093e-05
6.02276e-07
7.33994e-05
5.78425e-07
7.33853e-05
5.55222e-07
7.33675e-05
5.32876e-07
7.33464e-05
5.11627e-07
7.33224e-05
4.91765e-07
7.3296e-05
4.73767e-07
7.32676e-05
4.58143e-07
7.32382e-05
4.46218e-07
7.32095e-05
4.3812e-07
7.31855e-05
4.38608e-07
7.31686e-05
4.38018e-07
4.62248e-07
7.31628e-05
7.45185e-05
-4.29648e-08
7.44881e-05
2.17799e-07
7.44767e-05
3.77478e-07
7.45162e-05
4.94114e-07
7.45765e-05
5.82597e-07
7.46428e-05
6.44348e-07
7.47086e-05
6.8814e-07
7.47725e-05
7.1803e-07
7.4834e-05
7.35972e-07
7.4893e-05
7.44334e-07
7.49494e-05
7.45139e-07
7.50029e-05
7.39947e-07
7.50534e-05
7.30002e-07
7.51008e-05
7.16363e-07
7.5145e-05
6.99907e-07
7.51862e-05
6.81363e-07
7.52242e-05
6.61331e-07
7.52593e-05
6.40308e-07
7.52917e-05
6.18697e-07
7.53214e-05
5.9683e-07
7.53487e-05
5.74981e-07
7.53738e-05
5.53385e-07
7.53967e-05
5.32252e-07
7.54178e-05
5.11785e-07
7.54372e-05
4.92215e-07
7.54552e-05
4.738e-07
7.5472e-05
4.56922e-07
7.54882e-05
4.41938e-07
7.55048e-05
4.29634e-07
7.55231e-05
4.19825e-07
7.55476e-05
4.14178e-07
7.5579e-05
4.06576e-07
4.01242e-07
7.564e-05
7.66035e-05
9.34276e-09
7.66282e-05
1.93137e-07
7.66646e-05
3.41069e-07
7.67027e-05
4.55998e-07
7.67411e-05
5.44245e-07
7.67806e-05
6.04835e-07
7.68225e-05
6.46226e-07
7.68664e-05
6.74129e-07
7.69112e-05
6.91145e-07
7.69562e-05
6.99422e-07
7.70006e-05
7.00726e-07
7.70441e-05
6.96428e-07
7.70864e-05
6.87649e-07
7.71275e-05
6.75349e-07
7.7167e-05
6.60332e-07
7.72051e-05
6.43272e-07
7.72417e-05
6.24729e-07
7.72769e-05
6.05164e-07
7.73106e-05
5.8496e-07
7.7343e-05
5.64429e-07
7.73741e-05
5.43833e-07
7.74041e-05
5.23394e-07
7.74331e-05
5.03312e-07
7.74611e-05
4.83774e-07
7.74883e-05
4.64983e-07
7.7515e-05
4.47145e-07
7.75414e-05
4.30532e-07
7.7568e-05
4.15341e-07
7.75957e-05
4.01943e-07
7.76255e-05
3.89931e-07
7.76601e-05
3.79624e-07
7.76998e-05
3.66889e-07
3.52683e-07
7.77483e-05
7.88312e-05
2.40948e-08
7.88388e-05
1.85516e-07
7.88569e-05
3.22933e-07
7.88858e-05
4.27152e-07
7.89221e-05
5.07929e-07
7.89612e-05
5.65676e-07
7.90014e-05
6.06109e-07
7.90417e-05
6.33744e-07
7.9082e-05
6.50874e-07
7.9122e-05
6.59475e-07
7.91614e-05
6.61268e-07
7.92002e-05
6.57607e-07
7.92383e-05
6.49591e-07
7.92755e-05
6.38143e-07
7.93118e-05
6.24034e-07
7.93472e-05
6.07908e-07
7.93816e-05
5.90297e-07
7.94151e-05
5.71643e-07
7.94478e-05
5.52308e-07
7.94796e-05
5.32592e-07
7.95107e-05
5.12744e-07
7.95411e-05
4.92975e-07
7.9571e-05
4.73471e-07
7.96003e-05
4.54398e-07
7.96294e-05
4.35923e-07
7.96583e-05
4.18197e-07
7.96875e-05
4.01385e-07
7.97173e-05
3.85555e-07
7.97484e-05
3.70781e-07
7.97818e-05
3.56575e-07
7.98188e-05
3.42575e-07
7.98596e-05
3.26094e-07
3.06429e-07
7.99059e-05
8.10847e-05
3.78994e-08
8.10947e-05
1.75525e-07
8.11182e-05
2.99452e-07
8.11489e-05
3.96466e-07
8.11836e-05
4.73252e-07
8.12196e-05
5.29667e-07
8.12562e-05
5.69485e-07
8.12932e-05
5.96715e-07
8.13304e-05
6.1374e-07
8.13674e-05
6.22494e-07
8.1404e-05
6.24631e-07
8.14401e-05
6.21457e-07
8.14757e-05
6.14031e-07
8.15106e-05
6.0324e-07
8.15448e-05
5.89824e-07
8.15783e-05
5.74399e-07
8.16111e-05
5.57479e-07
8.16433e-05
5.39485e-07
8.16748e-05
5.20769e-07
8.17058e-05
5.01616e-07
8.17363e-05
4.82265e-07
8.17664e-05
4.62916e-07
8.17961e-05
4.43737e-07
8.18256e-05
4.24874e-07
8.18551e-05
4.06456e-07
8.18847e-05
3.88585e-07
8.19147e-05
3.71336e-07
8.19456e-05
3.54684e-07
8.19779e-05
3.38531e-07
8.20121e-05
3.2238e-07
8.2049e-05
3.0566e-07
8.20884e-05
2.86619e-07
2.6437e-07
8.21305e-05
8.34101e-05
4.33536e-08
8.342e-05
1.65583e-07
8.34409e-05
2.78604e-07
8.34684e-05
3.68909e-07
8.35008e-05
4.40854e-07
8.35356e-05
4.94854e-07
8.35715e-05
5.33602e-07
8.36078e-05
5.60408e-07
8.36441e-05
5.77451e-07
8.36801e-05
5.86488e-07
8.37157e-05
5.89058e-07
8.37507e-05
5.86413e-07
8.37852e-05
5.79578e-07
8.3819e-05
5.69411e-07
8.38522e-05
5.56629e-07
8.38848e-05
5.41831e-07
8.39168e-05
5.2551e-07
8.39482e-05
5.08078e-07
8.39791e-05
4.89871e-07
8.40095e-05
4.71167e-07
8.40396e-05
4.52193e-07
8.40694e-05
4.33138e-07
8.40989e-05
4.14154e-07
8.41285e-05
3.95366e-07
8.4158e-05
3.76871e-07
8.41879e-05
3.58727e-07
8.42183e-05
3.40949e-07
8.42495e-05
3.23452e-07
8.4282e-05
3.06053e-07
8.43161e-05
2.88301e-07
8.43521e-05
2.69625e-07
8.43898e-05
2.48889e-07
2.25384e-07
8.44288e-05
8.57963e-05
4.57461e-08
8.58062e-05
1.55724e-07
8.58264e-05
2.58358e-07
8.58532e-05
3.42127e-07
8.58846e-05
4.09502e-07
8.59184e-05
4.61055e-07
8.59533e-05
4.98639e-07
8.59888e-05
5.24909e-07
8.60244e-05
5.41845e-07
8.60599e-05
5.51068e-07
8.60949e-05
5.54007e-07
8.61295e-05
5.5185e-07
8.61635e-05
5.45576e-07
8.61969e-05
5.36006e-07
8.62297e-05
5.2383e-07
8.62619e-05
5.09625e-07
8.62935e-05
4.93867e-07
8.63247e-05
4.76953e-07
8.63553e-05
4.59209e-07
8.63856e-05
4.40902e-07
8.64155e-05
4.2225e-07
8.64452e-05
4.03429e-07
8.64748e-05
3.84577e-07
8.65044e-05
3.65802e-07
8.65341e-05
3.47173e-07
8.65641e-05
3.28717e-07
8.65946e-05
3.10411e-07
8.66259e-05
2.9214e-07
8.66583e-05
2.737e-07
8.66919e-05
2.54707e-07
8.67268e-05
2.34685e-07
8.67628e-05
2.12903e-07
1.88901e-07
8.67993e-05
8.82501e-05
4.56695e-08
8.82601e-05
1.45684e-07
8.82794e-05
2.39075e-07
8.83048e-05
3.167e-07
8.83347e-05
3.79613e-07
8.83673e-05
4.28431e-07
8.84015e-05
4.64516e-07
8.84364e-05
4.9e-07
8.84716e-05
5.06651e-07
8.85067e-05
5.15936e-07
8.85415e-05
5.19161e-07
8.8576e-05
5.17431e-07
8.86099e-05
5.11671e-07
8.86432e-05
5.02663e-07
8.8676e-05
4.91064e-07
8.87082e-05
4.77425e-07
8.87398e-05
4.62207e-07
8.8771e-05
4.45789e-07
8.88017e-05
4.28486e-07
8.88321e-05
4.10554e-07
8.88621e-05
3.922e-07
8.8892e-05
3.7359e-07
8.89217e-05
3.54849e-07
8.89514e-05
3.36068e-07
8.89813e-05
3.173e-07
8.90115e-05
2.98551e-07
8.90421e-05
2.79776e-07
8.90734e-05
2.60859e-07
8.91055e-05
2.41604e-07
8.91385e-05
2.21709e-07
8.91724e-05
2.00809e-07
8.92068e-05
1.78448e-07
1.54367e-07
8.92413e-05
9.07728e-05
4.42158e-08
9.07828e-05
1.35673e-07
9.08012e-05
2.20695e-07
9.08255e-05
2.9238e-07
9.08542e-05
3.5091e-07
9.08858e-05
3.96847e-07
9.09191e-05
4.31225e-07
9.09533e-05
4.55739e-07
9.0988e-05
4.71934e-07
9.10228e-05
4.8113e-07
9.10575e-05
4.84512e-07
9.10918e-05
4.83107e-07
9.11257e-05
4.77781e-07
9.11591e-05
4.69269e-07
9.1192e-05
4.58196e-07
9.12243e-05
4.45084e-07
9.12561e-05
4.30374e-07
9.12875e-05
4.14428e-07
9.13184e-05
3.97546e-07
9.1349e-05
3.79974e-07
9.13793e-05
3.61908e-07
9.14094e-05
3.43502e-07
9.14394e-05
3.24872e-07
9.14693e-05
3.06097e-07
9.14994e-05
2.87215e-07
9.15298e-05
2.68225e-07
9.15605e-05
2.49077e-07
9.15916e-05
2.29663e-07
9.16234e-05
2.0982e-07
9.16558e-05
1.89319e-07
9.16887e-05
1.67904e-07
9.17219e-05
1.45301e-07
1.21393e-07
9.17548e-05
9.33669e-05
4.19299e-08
9.33769e-05
1.25716e-07
9.33945e-05
2.03137e-07
9.34177e-05
2.69129e-07
9.34452e-05
3.23379e-07
9.34757e-05
3.66339e-07
9.35081e-05
3.9882e-07
9.35417e-05
4.22172e-07
9.35759e-05
4.37732e-07
9.36104e-05
4.4668e-07
9.36448e-05
4.50088e-07
9.3679e-05
4.48896e-07
9.37129e-05
4.4391e-07
9.37463e-05
4.35818e-07
9.37793e-05
4.25208e-07
9.38118e-05
4.12573e-07
9.38439e-05
3.98331e-07
9.38755e-05
3.82825e-07
9.39067e-05
3.66343e-07
9.39375e-05
3.49116e-07
9.39681e-05
3.31331e-07
9.39985e-05
3.13131e-07
9.40287e-05
2.94623e-07
9.40589e-05
2.75878e-07
9.40892e-05
2.56929e-07
9.41197e-05
2.37771e-07
9.41504e-05
2.18358e-07
9.41815e-05
1.98603e-07
9.42129e-05
1.78378e-07
9.42447e-05
1.57524e-07
9.42767e-05
1.35873e-07
9.43088e-05
1.13268e-07
8.96896e-08
9.43405e-05
9.60348e-05
3.91936e-08
9.60446e-05
1.15899e-07
9.60614e-05
1.86348e-07
9.60837e-05
2.46872e-07
9.61101e-05
2.9693e-07
9.61396e-05
3.36852e-07
9.61712e-05
3.67288e-07
9.6204e-05
3.89319e-07
9.62376e-05
4.04088e-07
9.62717e-05
4.12645e-07
9.63058e-05
4.15948e-07
9.63399e-05
4.14856e-07
9.63737e-05
4.10113e-07
9.64071e-05
4.02358e-07
9.64402e-05
3.92141e-07
9.64728e-05
3.79927e-07
9.65051e-05
3.66108e-07
9.65369e-05
3.51009e-07
9.65683e-05
3.34902e-07
9.65994e-05
3.18005e-07
9.66303e-05
3.00495e-07
9.66609e-05
2.82506e-07
9.66914e-05
2.6414e-07
9.67218e-05
2.4546e-07
9.67522e-05
2.26497e-07
9.67827e-05
2.07251e-07
9.68134e-05
1.87686e-07
9.68443e-05
1.67738e-07
9.68753e-05
1.47317e-07
9.69065e-05
1.26318e-07
9.69378e-05
1.04642e-07
9.69688e-05
8.2212e-08
5.90638e-08
9.69995e-05
9.87787e-05
3.62346e-08
9.87883e-05
1.06275e-07
9.88044e-05
1.70262e-07
9.88257e-05
2.25538e-07
9.88512e-05
2.71493e-07
9.88797e-05
3.08348e-07
9.89103e-05
3.36624e-07
9.89425e-05
3.57196e-07
9.89755e-05
3.71035e-07
9.90091e-05
3.79063e-07
9.90429e-05
3.82138e-07
9.90767e-05
3.81038e-07
9.91104e-05
3.76442e-07
9.91438e-05
3.68944e-07
9.91769e-05
3.59053e-07
9.92096e-05
3.47203e-07
9.9242e-05
3.33762e-07
9.92739e-05
3.19036e-07
9.93056e-05
3.03279e-07
9.93369e-05
2.867e-07
9.93679e-05
2.69463e-07
9.93987e-05
2.51696e-07
9.94294e-05
2.33495e-07
9.94599e-05
2.1492e-07
9.94904e-05
1.96005e-07
9.95209e-05
1.76754e-07
9.95514e-05
1.57147e-07
9.9582e-05
1.37142e-07
9.96127e-05
1.16682e-07
9.96433e-05
9.57085e-08
9.96737e-05
7.41711e-08
9.97039e-05
5.20452e-08
2.93969e-08
9.97336e-05
0.000101601
3.31928e-08
0.00010161
9.68866e-08
0.000101626
1.54825e-07
0.000101646
2.05059e-07
0.000101671
2.46999e-07
0.000101698
2.80773e-07
0.000101728
3.06804e-07
0.000101759
3.25801e-07
0.000101792
3.38584e-07
0.000101825
3.45962e-07
0.000101858
3.48697e-07
0.000101892
3.47485e-07
0.000101925
3.42948e-07
0.000101959
3.35629e-07
0.000101992
3.25999e-07
0.000102025
3.1446e-07
0.000102057
3.01355e-07
0.000102089
2.8697e-07
0.000102121
2.71545e-07
0.000102152
2.55274e-07
0.000102183
2.38313e-07
0.000102214
2.20784e-07
0.000102245
2.02776e-07
0.000102276
1.84352e-07
0.000102306
1.65548e-07
0.000102336
1.46375e-07
0.000102367
1.2683e-07
0.000102397
1.0689e-07
0.000102427
8.65288e-08
0.000102457
6.57188e-08
0.000102487
4.44476e-08
0.000102516
2.27224e-08
6.25631e-10
0.000102545
0.000104503
3.015e-08
0.000104513
8.77589e-08
0.000104527
1.39987e-07
0.000104547
1.85371e-07
0.000104571
2.23381e-07
0.000104597
2.54077e-07
0.000104626
2.77798e-07
0.000104657
2.95122e-07
0.000104689
3.06742e-07
0.000104722
3.13361e-07
0.000104755
3.15651e-07
0.000104788
3.14234e-07
0.000104821
3.09673e-07
0.000104854
3.02461e-07
0.000104887
2.93031e-07
0.00010492
2.81754e-07
0.000104952
2.68948e-07
0.000104984
2.54879e-07
0.000105016
2.3977e-07
0.000105048
2.23804e-07
0.000105079
2.07127e-07
0.00010511
1.89855e-07
0.000105141
1.72076e-07
0.000105171
1.53852e-07
0.000105201
1.35223e-07
0.000105232
1.16211e-07
0.000105262
9.68232e-08
0.000105291
7.70583e-08
0.000105321
5.69108e-08
0.00010535
3.63795e-08
0.000105379
1.54762e-08
0.000105408
-5.77208e-09
-2.7276e-08
0.000105436
0.000107489
2.71525e-08
0.000107498
7.89052e-08
0.000107512
1.25703e-07
0.000107531
1.66413e-07
0.000107554
2.00575e-07
0.00010758
2.28204e-07
0.000107608
2.49568e-07
0.000107638
2.65141e-07
0.000107669
2.75505e-07
0.000107701
2.81268e-07
0.000107734
2.83019e-07
0.000107767
2.81311e-07
0.0001078
2.76649e-07
0.000107833
2.69479e-07
0.000107866
2.60196e-07
0.000107898
2.49138e-07
0.000107931
2.36599e-07
0.000107963
2.22825e-07
0.000107994
2.08022e-07
0.000108026
1.92362e-07
0.000108057
1.75982e-07
0.000108088
1.58994e-07
0.000108119
1.41481e-07
0.000108149
1.23509e-07
0.000108179
1.05121e-07
0.000108209
8.6347e-08
0.000108238
6.72075e-08
0.000108268
4.77152e-08
0.000108297
2.78824e-08
0.000108325
7.72615e-09
0.000108354
-1.27257e-08
0.000108381
-3.3434e-08
-5.43084e-08
0.000108408
0.00011056
2.42243e-08
0.000110568
7.03282e-08
0.000110582
1.11931e-07
0.0001106
1.48126e-07
0.000110622
1.78522e-07
0.000110648
2.03101e-07
0.000110675
2.22075e-07
0.000110704
2.35832e-07
0.000110735
2.44861e-07
0.000110767
2.49683e-07
0.000110799
2.50813e-07
0.000110831
2.48738e-07
0.000110864
2.43906e-07
0.000110897
2.3672e-07
0.00011093
2.27534e-07
0.000110962
2.16659e-07
0.000110994
2.0436e-07
0.000111026
1.90865e-07
0.000111058
1.76364e-07
0.000111089
1.61017e-07
0.00011112
1.44953e-07
0.000111151
1.28278e-07
0.000111181
1.11075e-07
0.000111211
9.34072e-08
0.000111241
7.53249e-08
0.000111271
5.6865e-08
0.0001113
3.80567e-08
0.000111329
1.89251e-08
0.000111357
-5.04621e-10
0.000111385
-2.0203e-08
0.000111412
-4.01317e-08
0.000111439
-6.02455e-08
-8.04555e-08
0.000111465
0.000113718
2.13765e-08
0.000113727
6.20227e-08
0.00011374
9.86312e-08
0.000113758
1.30455e-07
0.000113779
1.57163e-07
0.000113803
1.78715e-07
0.00011383
1.95278e-07
0.000113859
2.07167e-07
0.000113889
2.14794e-07
0.00011392
2.18602e-07
0.000113952
2.19038e-07
0.000113984
2.16527e-07
0.000114016
2.11466e-07
0.000114049
2.04212e-07
0.000114081
1.95083e-07
0.000114114
1.84359e-07
0.000114146
1.72281e-07
0.000114178
1.59055e-07
0.000114209
1.44858e-07
0.00011424
1.29836e-07
0.000114271
1.14111e-07
0.000114302
9.77829e-08
0.000114332
8.09325e-08
0.000114361
6.36249e-08
0.000114391
4.59125e-08
0.00011442
2.78382e-08
0.000114449
9.43876e-09
0.000114477
-9.25209e-09
0.000114504
-2.82e-08
0.000114532
-4.73673e-08
0.000114558
-6.67096e-08
0.000114584
-8.61789e-08
-1.05689e-07
0.000114609
0.000116967
1.8612e-08
0.000116975
5.3978e-08
0.000116988
8.57679e-08
0.000117005
1.13351e-07
0.000117026
1.36442e-07
0.00011705
1.54993e-07
0.000117076
1.6913e-07
0.000117104
1.79112e-07
0.000117133
1.85281e-07
0.000117164
1.88013e-07
0.000117195
1.87692e-07
0.000117227
1.84687e-07
0.000117259
1.79345e-07
0.000117291
1.7198e-07
0.000117324
1.62875e-07
0.000117356
1.52277e-07
0.000117388
1.40406e-07
0.000117419
1.27446e-07
0.00011745
1.13559e-07
0.000117481
9.88797e-08
0.000117512
8.35206e-08
0.000117542
6.75766e-08
0.000117572
5.11259e-08
0.000117601
3.42335e-08
0.00011763
1.6954e-08
0.000117659
-6.65752e-10
0.000117687
-1.85837e-08
0.000117714
-3.67601e-08
0.000117741
-5.51545e-08
0.000117768
-7.37243e-08
0.000117793
-9.24222e-08
0.000117818
-1.112e-07
-1.29975e-07
0.000117843
0.000120309
1.59295e-08
0.000120317
4.61794e-08
0.000120329
7.33049e-08
0.000120346
9.67613e-08
0.000120366
1.16304e-07
0.000120389
1.3188e-07
0.000120414
1.43584e-07
0.000120442
1.51627e-07
0.000120471
1.56292e-07
0.000120501
1.57898e-07
0.000120532
1.56768e-07
0.000120563
1.5322e-07
0.000120595
1.47554e-07
0.000120627
1.40043e-07
0.000120659
1.30934e-07
0.000120691
1.20447e-07
0.000120722
1.08775e-07
0.000120754
9.60845e-08
0.000120785
8.252e-08
0.000120816
6.82047e-08
0.000120846
5.32428e-08
0.000120876
3.77231e-08
0.000120905
2.17205e-08
0.000120934
5.29915e-09
0.000120962
-1.14856e-08
0.00012099
-2.85846e-08
0.000121018
-4.59523e-08
0.000121045
-6.35452e-08
0.000121071
-8.13196e-08
0.000121096
-9.92303e-08
0.000121121
-1.17229e-07
0.000121145
-1.35268e-07
-1.5327e-07
0.000121168
0.000123746
1.33251e-08
0.000123753
3.86106e-08
0.000123765
6.1208e-08
0.000123782
8.06402e-08
0.000123801
9.66966e-08
0.000123824
1.09322e-07
0.000123849
1.18592e-07
0.000123876
1.2467e-07
0.000123904
1.27794e-07
0.000123934
1.2823e-07
0.000123964
1.26249e-07
0.000123995
1.22118e-07
0.000124027
1.16094e-07
0.000124059
1.08411e-07
0.00012409
9.92809e-08
0.000124122
8.8895e-08
0.000124153
7.7422e-08
0.000124184
6.50094e-08
0.000124215
5.17857e-08
0.000124245
3.78615e-08
0.000124275
2.33321e-08
0.000124305
8.27986e-09
0.000124334
-7.22432e-09
0.000124362
-2.31184e-08
0.00012439
-3.93473e-08
0.000124417
-5.5861e-08
0.000124444
-7.26125e-08
0.00012447
-8.95566e-08
0.000124495
-1.06648e-07
0.00012452
-1.23841e-07
0.000124544
-1.41087e-07
0.000124567
-1.58342e-07
-1.75531e-07
0.000124589
0.000127281
1.07933e-08
0.000127288
3.1253e-08
0.0001273
4.94422e-08
0.000127316
6.49388e-08
0.000127335
7.75621e-08
0.000127357
8.72611e-08
0.000127382
9.40949e-08
0.000127408
9.81898e-08
0.000127436
9.97444e-08
0.000127465
9.89776e-08
0.000127495
9.61121e-08
0.000127526
9.13676e-08
0.000127557
8.49631e-08
0.000127589
7.70908e-08
0.00012762
6.79295e-08
0.000127651
5.76429e-08
0.000127682
4.63758e-08
0.000127713
3.42563e-08
0.000127743
2.13969e-08
0.000127773
7.89551e-09
0.000127803
-6.1622e-09
0.000127832
-2.07011e-08
0.00012786
-3.5655e-08
0.000127888
-5.09648e-08
0.000127915
-6.65771e-08
0.000127942
-8.24425e-08
0.000127968
-9.8514e-08
0.000127993
-1.14746e-07
0.000128018
-1.31094e-07
0.000128041
-1.47512e-07
0.000128064
-1.63954e-07
0.000128086
-1.80377e-07
-1.96712e-07
0.000128107
0.000130917
8.3297e-09
0.000130925
2.40917e-08
0.000130936
3.79797e-08
0.000130951
4.96172e-08
0.00013097
5.88524e-08
0.000130992
6.56429e-08
0.000131016
7.00403e-08
0.000131042
7.21301e-08
0.000131069
7.20893e-08
0.000131098
7.00945e-08
0.000131128
6.63207e-08
0.000131158
6.09402e-08
0.000131189
5.41405e-08
0.00013122
4.60706e-08
0.000131251
3.6878e-08
0.000131282
2.66984e-08
0.000131313
1.56523e-08
0.000131343
3.84836e-09
0.000131373
-8.61634e-09
0.000131403
-2.16579e-08
0.000131432
-3.52004e-08
0.000131461
-4.91766e-08
0.000131488
-6.35258e-08
0.000131516
-7.81932e-08
0.000131542
-9.31279e-08
0.000131568
-1.08282e-07
0.000131593
-1.23611e-07
0.000131617
-1.3907e-07
0.000131641
-1.54615e-07
0.000131664
-1.70202e-07
0.000131685
-1.85788e-07
0.000131706
-2.01332e-07
-2.1677e-07
0.000131727
0.000134658
5.92495e-09
0.000134665
1.71023e-08
0.000134676
2.67774e-08
0.000134691
3.46143e-08
0.000134709
4.04932e-08
0.00013473
4.43881e-08
0.000134754
4.63571e-08
0.00013478
4.64292e-08
0.000134807
4.4778e-08
0.000134836
4.15368e-08
0.000134865
3.68361e-08
0.000134895
3.08089e-08
0.000134926
2.36176e-08
0.000134956
1.53475e-08
0.000134987
6.13008e-09
0.000135018
-3.92805e-09
0.000135048
-1.47332e-08
0.000135078
-2.61922e-08
0.000135108
-3.82275e-08
0.000135137
-5.07677e-08
0.000135166
-6.37479e-08
0.000135193
-7.71092e-08
0.000135221
-9.07977e-08
0.000135247
-1.04763e-07
0.000135273
-1.18959e-07
0.000135298
-1.33341e-07
0.000135322
-1.47864e-07
0.000135346
-1.62488e-07
0.000135368
-1.77171e-07
0.00013539
-1.91871e-07
0.000135411
-2.06548e-07
0.000135431
-2.21163e-07
-2.35659e-07
0.00013545
0.000138505
3.59041e-09
0.000138511
1.03001e-08
0.000138522
1.58476e-08
0.000138537
1.99287e-08
0.000138555
2.24632e-08
0.000138576
2.34578e-08
0.000138599
2.2972e-08
0.000138625
2.09732e-08
0.000138652
1.77056e-08
0.00013868
1.32151e-08
0.000138709
7.58798e-09
0.000138739
8.75692e-10
0.00013877
-6.67731e-09
0.0001388
-1.51327e-08
0.000138831
-2.43521e-08
0.000138861
-3.42632e-08
0.000138891
-4.47915e-08
0.000138921
-5.58674e-08
0.00013895
-6.74291e-08
0.000138979
-7.9419e-08
0.000139007
-9.17837e-08
0.000139034
-1.04473e-07
0.000139061
-1.17441e-07
0.000139086
-1.30643e-07
0.000139112
-1.44037e-07
0.000139136
-1.57582e-07
0.000139159
-1.71238e-07
0.000139182
-1.84966e-07
0.000139203
-1.98728e-07
0.000139224
-2.12485e-07
0.000139243
-2.262e-07
0.000139262
-2.39838e-07
-2.53345e-07
0.00013928
0.000142462
1.27048e-09
0.000142468
3.59507e-09
0.000142479
5.0674e-09
0.000142494
5.4193e-09
0.000142511
4.61164e-09
0.000142532
2.71517e-09
0.000142555
-8.73461e-11
0.00014258
-4.24959e-09
0.000142607
-9.14906e-09
0.000142635
-1.49165e-08
0.000142664
-2.14753e-08
0.000142694
-2.87796e-08
0.000142724
-3.67505e-08
0.000142754
-4.53702e-08
0.000142785
-5.45722e-08
0.000142815
-6.43047e-08
0.000142844
-7.45199e-08
0.000142874
-8.51706e-08
0.000142903
-9.62115e-08
0.000142931
-1.076e-07
0.000142958
-1.19293e-07
0.000142985
-1.31252e-07
0.000143011
-1.43438e-07
0.000143036
-1.55814e-07
0.00014306
-1.68341e-07
0.000143084
-1.80986e-07
0.000143106
-1.93711e-07
0.000143128
-2.06481e-07
0.000143148
-2.19261e-07
0.000143168
-2.32018e-07
0.000143186
-2.44715e-07
0.000143204
-2.57322e-07
-2.6979e-07
0.00014322
0.000146531
-8.52523e-10
0.000146538
-2.7575e-09
0.000146548
-5.31062e-09
0.000146562
-8.73901e-09
0.00014658
-1.29686e-08
0.000146601
-1.78835e-08
0.000146624
-2.33854e-08
0.000146649
-2.95012e-08
0.000146676
-3.60535e-08
0.000146704
-4.30692e-08
0.000146733
-5.05368e-08
0.000146763
-5.84471e-08
0.000146793
-6.67725e-08
0.000146823
-7.55074e-08
0.000146853
-8.46347e-08
0.000146883
-9.41318e-08
0.000146912
-1.03975e-07
0.000146941
-1.14139e-07
0.00014697
-1.24596e-07
0.000146997
-1.35317e-07
0.000147024
-1.46273e-07
0.000147051
-1.57434e-07
0.000147076
-1.6877e-07
0.0001471
-1.8025e-07
0.000147124
-1.91845e-07
0.000147146
-2.03522e-07
0.000147168
-2.15251e-07
0.000147188
-2.27e-07
0.000147208
-2.38739e-07
0.000147226
-2.50437e-07
0.000147244
-2.62063e-07
0.00014726
-2.7359e-07
-2.84973e-07
0.000147275
0.000150718
-3.30606e-09
0.000150725
-9.35364e-09
0.000150735
-1.58107e-08
0.000150749
-2.28864e-08
0.000150767
-3.04468e-08
0.000150787
-3.83191e-08
0.00015081
-4.63535e-08
0.000150835
-5.45288e-08
0.000150862
-6.27667e-08
0.00015089
-7.10684e-08
0.000150919
-7.94622e-08
0.000150948
-8.79784e-08
0.000150978
-9.66403e-08
0.000151008
-1.05476e-07
0.000151038
-1.14504e-07
0.000151068
-1.23731e-07
0.000151097
-1.3316e-07
0.000151126
-1.42787e-07
0.000151154
-1.52603e-07
0.000151181
-1.62597e-07
0.000151207
-1.72752e-07
0.000151233
-1.83049e-07
0.000151258
-1.93467e-07
0.000151281
-2.03985e-07
0.000151304
-2.14576e-07
0.000151326
-2.25218e-07
0.000151346
-2.35883e-07
0.000151366
-2.46546e-07
0.000151384
-2.57179e-07
0.000151402
-2.67757e-07
0.000151418
-2.78251e-07
0.000151433
-2.88637e-07
-2.98876e-07
0.000151447
0.000155023
-4.57559e-09
0.000155028
-1.46128e-08
0.000155038
-2.53349e-08
0.000155051
-3.66978e-08
0.000155069
-4.81659e-08
0.00015509
-5.93754e-08
0.000155114
-7.01458e-08
0.00015514
-8.04508e-08
0.000155168
-9.03047e-08
0.000155196
-9.97771e-08
0.000155226
-1.08961e-07
0.000155256
-1.17945e-07
0.000155286
-1.26806e-07
0.000155316
-1.35612e-07
0.000155346
-1.44416e-07
0.000155375
-1.53258e-07
0.000155404
-1.62166e-07
0.000155433
-1.71157e-07
0.00015546
-1.80241e-07
0.000155487
-1.8942e-07
0.000155513
-1.9869e-07
0.000155538
-2.08042e-07
0.000155562
-2.17466e-07
0.000155585
-2.26944e-07
0.000155607
-2.36462e-07
0.000155628
-2.45998e-07
0.000155647
-2.55533e-07
0.000155666
-2.65046e-07
0.000155683
-2.74513e-07
0.000155699
-2.83912e-07
0.000155714
-2.93222e-07
0.000155728
-3.02421e-07
-3.11473e-07
0.000155741
0.000159454
-8.43102e-09
0.000159462
-2.16745e-08
0.000159472
-3.55779e-08
0.000159485
-5.01595e-08
0.000159502
-6.49372e-08
0.000159522
-7.93171e-08
0.000159545
-9.28971e-08
0.00015957
-1.05528e-07
0.000159597
-1.17218e-07
0.000159625
-1.28064e-07
0.000159654
-1.382e-07
0.000159684
-1.47769e-07
0.000159714
-1.56903e-07
0.000159744
-1.65716e-07
0.000159774
-1.74305e-07
0.000159804
-1.82746e-07
0.000159833
-1.91097e-07
0.000159861
-1.99402e-07
0.000159888
-2.07692e-07
0.000159915
-2.15985e-07
0.00015994
-2.24295e-07
0.000159965
-2.32624e-07
0.000159988
-2.40972e-07
0.000160011
-2.49331e-07
0.000160032
-2.57693e-07
0.000160052
-2.66045e-07
0.000160071
-2.74371e-07
0.000160089
-2.82657e-07
0.000160105
-2.90884e-07
0.00016012
-2.99033e-07
0.000160134
-3.07087e-07
0.000160147
-3.15027e-07
-3.22824e-07
0.000160158
0.000164003
-5.79014e-09
0.000164005
-2.34434e-08
0.000164013
-4.36862e-08
0.000164028
-6.46364e-08
0.000164047
-8.46069e-08
0.000164071
-1.02845e-07
0.000164097
-1.19192e-07
0.000164126
-1.33761e-07
0.000164155
-1.46762e-07
0.000164185
-1.58433e-07
0.000164216
-1.69011e-07
0.000164247
-1.78717e-07
0.000164278
-1.87742e-07
0.000164309
-1.96246e-07
0.000164339
-2.04358e-07
0.000164368
-2.12182e-07
0.000164397
-2.19799e-07
0.000164425
-2.2727e-07
0.000164452
-2.34641e-07
0.000164478
-2.41943e-07
0.000164502
-2.49198e-07
0.000164526
-2.56421e-07
0.000164549
-2.63617e-07
0.00016457
-2.70788e-07
0.000164591
-2.7793e-07
0.00016461
-2.85036e-07
0.000164627
-2.92097e-07
0.000164644
-2.99101e-07
0.000164659
-3.06037e-07
0.000164673
-3.12889e-07
0.000164685
-3.19644e-07
0.000164697
-3.26288e-07
-3.32795e-07
0.000164707
0.000168701
-1.52252e-08
0.000168709
-3.1492e-08
0.000168717
-5.13823e-08
0.000168727
-7.42194e-08
0.00016874
-9.81588e-08
0.000168758
-1.20905e-07
0.00016878
-1.4127e-07
0.000168806
-1.59043e-07
0.000168833
-1.74445e-07
0.000168863
-1.87807e-07
0.000168893
-1.99474e-07
0.000168924
-2.09772e-07
0.000168955
-2.18985e-07
0.000168986
-2.27353e-07
0.000169017
-2.35069e-07
0.000169047
-2.42289e-07
0.000169077
-2.49135e-07
0.000169105
-2.55701e-07
0.000169132
-2.62058e-07
0.000169159
-2.6826e-07
0.000169184
-2.74346e-07
0.000169208
-2.80342e-07
0.00016923
-2.86265e-07
0.000169252
-2.92128e-07
0.000169272
-2.97933e-07
0.00016929
-3.03682e-07
0.000169308
-3.0937e-07
0.000169324
-3.14992e-07
0.000169338
-3.20539e-07
0.000169351
-3.26002e-07
0.000169363
-3.3137e-07
0.000169373
-3.36632e-07
-3.41769e-07
0.000169382
0.000173491
4.8653e-09
0.000173485
-2.51058e-08
0.000173494
-6.09766e-08
0.000173516
-9.55085e-08
0.000173544
-1.25946e-07
0.000173574
-1.51763e-07
0.000173607
-1.73585e-07
0.00017364
-1.91995e-07
0.000173673
-2.07556e-07
0.000173706
-2.20767e-07
0.000173738
-2.32076e-07
0.00017377
-2.41869e-07
0.000173802
-2.50462e-07
0.000173833
-2.58111e-07
0.000173863
-2.65022e-07
0.000173892
-2.71357e-07
0.00017392
-2.77245e-07
0.000173947
-2.82787e-07
0.000173973
-2.8806e-07
0.000173998
-2.93123e-07
0.000174021
-2.9802e-07
0.000174044
-3.02785e-07
0.000174065
-3.07441e-07
0.000174085
-3.12003e-07
0.000174103
-3.16482e-07
0.000174121
-3.20883e-07
0.000174136
-3.25207e-07
0.000174151
-3.29452e-07
0.000174164
-3.33616e-07
0.000174176
-3.37691e-07
0.000174186
-3.41672e-07
0.000174195
-3.4555e-07
-3.4931e-07
0.000174202
0.000178498
-2.44492e-08
0.0001785
-2.74105e-08
0.000178489
-4.98195e-08
0.00017848
-8.67161e-08
0.000178482
-1.28201e-07
0.000178496
-1.65043e-07
0.000178517
-1.95124e-07
0.000178544
-2.19138e-07
0.000178575
-2.38411e-07
0.000178608
-2.53934e-07
0.000178643
-2.66507e-07
0.000178678
-2.76794e-07
0.000178713
-2.85323e-07
0.000178747
-2.92504e-07
0.000178781
-2.98652e-07
0.000178813
-3.04012e-07
0.000178845
-3.08769e-07
0.000178875
-3.13067e-07
0.000178904
-3.17011e-07
0.000178932
-3.20683e-07
0.000178958
-3.24144e-07
0.000178982
-3.27439e-07
0.000179006
-3.30599e-07
0.000179027
-3.33648e-07
0.000179047
-3.36603e-07
0.000179066
-3.39473e-07
0.000179083
-3.42264e-07
0.000179099
-3.44979e-07
0.000179113
-3.47618e-07
0.000179125
-3.5018e-07
0.000179136
-3.52661e-07
0.000179146
-3.55059e-07
-3.57361e-07
0.000179154
0.000183487
5.63428e-08
0.000183465
-5.4328e-09
0.000183501
-8.57236e-08
0.000183552
-1.38474e-07
0.000183603
-1.79074e-07
0.000183649
-2.10702e-07
0.00018369
-2.3596e-07
0.000183727
-2.56667e-07
0.000183762
-2.73544e-07
0.000183796
-2.87288e-07
0.000183828
-2.98558e-07
0.000183859
-3.07867e-07
0.000183889
-3.15608e-07
0.000183919
-3.22097e-07
0.000183948
-3.27587e-07
0.000183976
-3.32275e-07
0.000184003
-3.3632e-07
0.00018403
-3.39845e-07
0.000184056
-3.42948e-07
0.000184081
-3.45707e-07
0.000184105
-3.48182e-07
0.000184128
-3.50421e-07
0.00018415
-3.52462e-07
0.000184171
-3.54333e-07
0.00018419
-3.56056e-07
0.000184208
-3.57649e-07
0.000184225
-3.59123e-07
0.000184241
-3.60489e-07
0.000184255
-3.6175e-07
0.000184268
-3.62911e-07
0.000184279
-3.63972e-07
0.000184289
-3.64931e-07
-3.65786e-07
0.000184297
0.000188861
7.51812e-09
0.000188796
5.97419e-08
0.00018871
5.57275e-11
0.000188646
-7.46401e-08
0.000188627
-1.60571e-07
0.000188641
-2.24024e-07
0.000188673
-2.67889e-07
0.000188715
-2.9909e-07
0.000188763
-3.21847e-07
0.000188815
-3.38747e-07
0.000188868
-3.51425e-07
0.000188921
-3.61006e-07
0.000188974
-3.68286e-07
0.000189025
-3.73835e-07
0.000189076
-3.78065e-07
0.000189125
-3.81279e-07
0.000189172
-3.837e-07
0.000189218