/*--------------------------------*- C++ -*----------------------------------*\
| =========                 |                                                 |
| \\      /  F ield         | OpenFOAM: The Open Source CFD Toolbox           |
|  \\    /   O peration     | Version:  2.1.1                                 |
|   \\  /    A nd           | Web:      www.OpenFOAM.org                      |
|    \\/     M anipulation  |                                                 |
\*---------------------------------------------------------------------------*/
FoamFile
{
    version     2.0;
    format      ascii;
    class       volVectorField;
    location    "0.145";
    object      U;
}
// * * * * * * * * * * * * * * * * * * * * * * * * * * * * * * * * * * * * * //

dimensions      [0 1 -1 0 0 0 0];

internalField   nonuniform List<vector> 
6820
(
(8.34337 -0.360077 0)
(8.40111 -0.247157 0)
(8.35612 -0.115298 0)
(8.24785 -0.0365655 0)
(8.11945 0.00599626 0)
(7.98606 0.0278535 0)
(7.85402 0.0386186 0)
(7.7267 0.0433136 0)
(7.60551 0.0445802 0)
(7.49101 0.043875 0)
(7.38342 0.0420398 0)
(7.28277 0.0395788 0)
(7.18895 0.0368031 0)
(7.10174 0.0339084 0)
(7.02087 0.0310182 0)
(6.94601 0.0282101 0)
(6.87682 0.0255311 0)
(6.81293 0.0230083 0)
(6.754 0.0206549 0)
(6.69965 0.0184755 0)
(6.64956 0.0164689 0)
(6.60338 0.0146306 0)
(6.5608 0.0129551 0)
(6.52152 0.0114376 0)
(6.48522 0.0100764 0)
(6.4516 0.00887679 0)
(6.42035 0.00785627 0)
(6.39105 0.00706633 0)
(6.36323 0.00660815 0)
(6.33595 0.00675267 0)
(6.3077 0.00831557 0)
(6.2754 0.0120741 0)
(6.22986 0.0292821 0)
(8.32139 0.166249 0)
(8.28709 0.189998 0)
(8.28544 0.132149 0)
(8.31741 0.0958411 0)
(8.36172 0.0749988 0)
(8.40178 0.0623309 0)
(8.43288 0.0548413 0)
(8.45499 0.0503104 0)
(8.46895 0.0473969 0)
(8.47578 0.0453873 0)
(8.47652 0.0438867 0)
(8.4721 0.0426572 0)
(8.46335 0.0415597 0)
(8.45101 0.0405171 0)
(8.43572 0.0394887 0)
(8.41802 0.0384556 0)
(8.39841 0.0374114 0)
(8.37729 0.036357 0)
(8.35503 0.0352968 0)
(8.33194 0.034237 0)
(8.30826 0.0331849 0)
(8.28422 0.0321482 0)
(8.26 0.031136 0)
(8.23575 0.0301591 0)
(8.21159 0.029233 0)
(8.18763 0.0283807 0)
(8.16396 0.0276434 0)
(8.14062 0.0270934 0)
(8.11785 0.0268661 0)
(8.09541 0.0272874 0)
(8.07544 0.0287784 0)
(8.05542 0.0333373 0)
(8.05592 0.0410391 0)
(8.3225 -0.0608866 0)
(8.31398 -0.0832858 0)
(8.33052 -0.0541036 0)
(8.34434 -0.0203104 0)
(8.35323 0.00239429 0)
(8.36227 0.0165141 0)
(8.37202 0.025746 0)
(8.38207 0.0319551 0)
(8.39195 0.0361649 0)
(8.40125 0.0390206 0)
(8.40974 0.0409166 0)
(8.41728 0.0420969 0)
(8.42383 0.0427352 0)
(8.42935 0.0429625 0)
(8.43387 0.0428779 0)
(8.43744 0.0425574 0)
(8.4401 0.0420603 0)
(8.44192 0.0414327 0)
(8.44297 0.0407112 0)
(8.44331 0.0399249 0)
(8.44301 0.0390972 0)
(8.44214 0.0382477 0)
(8.44075 0.0373938 0)
(8.43891 0.0365527 0)
(8.43666 0.0357439 0)
(8.43406 0.0349912 0)
(8.43115 0.0343358 0)
(8.42797 0.0338197 0)
(8.42465 0.0335823 0)
(8.4212 0.0335936 0)
(8.41816 0.0345229 0)
(8.41548 0.0345971 0)
(8.41448 0.0376763 0)
(8.33365 0.0145621 0)
(8.32977 0.0476941 0)
(8.32738 0.0539603 0)
(8.32873 0.046543 0)
(8.33462 0.0410386 0)
(8.34217 0.0385275 0)
(8.34969 0.0377085 0)
(8.35694 0.0376535 0)
(8.36395 0.0378613 0)
(8.3707 0.0381112 0)
(8.37716 0.0383045 0)
(8.38331 0.0383998 0)
(8.38914 0.0383874 0)
(8.39461 0.0382702 0)
(8.39974 0.0380564 0)
(8.40451 0.0377567 0)
(8.40893 0.0373831 0)
(8.41302 0.0369476 0)
(8.41679 0.0364618 0)
(8.42026 0.035937 0)
(8.42344 0.0353836 0)
(8.42637 0.0348121 0)
(8.42905 0.0342336 0)
(8.43151 0.0336609 0)
(8.43377 0.0331103 0)
(8.43585 0.0326032 0)
(8.43779 0.0321735 0)
(8.43962 0.0318612 0)
(8.44144 0.0317454 0)
(8.4433 0.0318638 0)
(8.44566 0.0323828 0)
(8.44856 0.033016 0)
(8.45336 0.0341543 0)
(8.3302 -0.00531202 0)
(8.32722 -0.00751265 0)
(8.33138 -0.0024631 0)
(8.33607 0.00801709 0)
(8.34015 0.017184 0)
(8.34434 0.023392 0)
(8.34876 0.0275654 0)
(8.35344 0.030516 0)
(8.35829 0.0326449 0)
(8.36319 0.0341842 0)
(8.36805 0.0352788 0)
(8.37284 0.036023 0)
(8.37751 0.036483 0)
(8.38205 0.0367101 0)
(8.38643 0.0367463 0)
(8.39066 0.0366269 0)
(8.39472 0.0363816 0)
(8.39862 0.0360357 0)
(8.40236 0.0356104 0)
(8.40595 0.0351238 0)
(8.40941 0.0345917 0)
(8.41273 0.0340283 0)
(8.41593 0.0334472 0)
(8.41902 0.0328624 0)
(8.42202 0.03229 0)
(8.42494 0.0317486 0)
(8.42782 0.0312647 0)
(8.43068 0.0308622 0)
(8.43361 0.0305896 0)
(8.43669 0.0304257 0)
(8.44016 0.0304534 0)
(8.44411 0.0302412 0)
(8.44891 0.0299799 0)
(8.33239 0.0022842 0)
(8.33118 0.0133044 0)
(8.3328 0.0203872 0)
(8.33551 0.0237715 0)
(8.33897 0.0259158 0)
(8.34303 0.0277129 0)
(8.34727 0.0293768 0)
(8.35154 0.0308562 0)
(8.3558 0.0320703 0)
(8.36005 0.0330078 0)
(8.36425 0.0336907 0)
(8.36839 0.0341465 0)
(8.37246 0.0344038 0)
(8.37644 0.034491 0)
(8.38032 0.0344347 0)
(8.38411 0.0342584 0)
(8.3878 0.0339826 0)
(8.39139 0.0336252 0)
(8.39489 0.0332019 0)
(8.39829 0.0327263 0)
(8.40162 0.0322104 0)
(8.40487 0.0316656 0)
(8.40805 0.0311026 0)
(8.41117 0.0305327 0)
(8.41426 0.0299684 0)
(8.41732 0.0294233 0)
(8.42038 0.0289146 0)
(8.42348 0.0284548 0)
(8.42668 0.028062 0)
(8.43006 0.027708 0)
(8.43376 0.0273819 0)
(8.43784 0.0268378 0)
(8.44243 0.0260316 0)
(8.33232 0.000871766 0)
(8.33152 0.00578048 0)
(8.33341 0.0107525 0)
(8.33646 0.0155459 0)
(8.33987 0.019923 0)
(8.34353 0.0234229 0)
(8.34729 0.0260922 0)
(8.35108 0.0281258 0)
(8.35489 0.0296602 0)
(8.35871 0.0307976 0)
(8.36249 0.0316147 0)
(8.36624 0.0321673 0)
(8.36992 0.0324983 0)
(8.37354 0.0326434 0)
(8.3771 0.0326328 0)
(8.38058 0.032492 0)
(8.38398 0.0322429 0)
(8.38732 0.0319043 0)
(8.39059 0.0314926 0)
(8.3938 0.0310216 0)
(8.39696 0.0305037 0)
(8.40007 0.0299499 0)
(8.40314 0.0293705 0)
(8.40618 0.0287753 0)
(8.40921 0.0281743 0)
(8.41223 0.0275772 0)
(8.41529 0.0269933 0)
(8.41841 0.0264257 0)
(8.42164 0.0258742 0)
(8.42503 0.0253027 0)
(8.42867 0.0246707 0)
(8.43259 0.0238058 0)
(8.43679 0.0226193 0)
(8.33272 0.00170909 0)
(8.33255 0.00728613 0)
(8.33417 0.0125752 0)
(8.33676 0.0168331 0)
(8.3398 0.0202746 0)
(8.34319 0.0229876 0)
(8.34675 0.0251353 0)
(8.35037 0.0268512 0)
(8.354 0.0281946 0)
(8.35762 0.0292117 0)
(8.3612 0.0299484 0)
(8.36473 0.0304446 0)
(8.3682 0.0307347 0)
(8.37162 0.0308494 0)
(8.37496 0.0308154 0)
(8.37825 0.030656 0)
(8.38147 0.0303913 0)
(8.38464 0.0300385 0)
(8.38775 0.0296125 0)
(8.39081 0.0291262 0)
(8.39383 0.0285906 0)
(8.39682 0.0280155 0)
(8.39978 0.0274095 0)
(8.40273 0.0267806 0)
(8.40568 0.0261357 0)
(8.40864 0.0254803 0)
(8.41164 0.0248176 0)
(8.41471 0.024144 0)
(8.41789 0.0234483 0)
(8.4212 0.0226943 0)
(8.42469 0.0218336 0)
(8.42838 0.0207515 0)
(8.43223 0.0193704 0)
(8.33284 0.00178781 0)
(8.33293 0.00645796 0)
(8.33443 0.0109686 0)
(8.33685 0.0148534 0)
(8.33972 0.0182128 0)
(8.34291 0.0209982 0)
(8.34628 0.0232361 0)
(8.34971 0.0250097 0)
(8.35317 0.0263844 0)
(8.35663 0.0274181 0)
(8.36006 0.0281641 0)
(8.36344 0.0286663 0)
(8.36677 0.028961 0)
(8.37004 0.0290791 0)
(8.37326 0.0290474 0)
(8.37642 0.0288884 0)
(8.37952 0.0286219 0)
(8.38256 0.0282643 0)
(8.38556 0.0278301 0)
(8.38852 0.0273313 0)
(8.39144 0.0267784 0)
(8.39434 0.0261801 0)
(8.39721 0.025544 0)
(8.40008 0.0248761 0)
(8.40296 0.0241812 0)
(8.40585 0.0234614 0)
(8.40879 0.0227157 0)
(8.41178 0.0219362 0)
(8.41487 0.021107 0)
(8.41807 0.0201948 0)
(8.42139 0.0191547 0)
(8.42484 0.0179097 0)
(8.42838 0.0164021 0)
(8.33294 0.00182963 0)
(8.33323 0.00613526 0)
(8.33463 0.010342 0)
(8.33684 0.0140019 0)
(8.33949 0.017131 0)
(8.34247 0.0197178 0)
(8.34565 0.0218028 0)
(8.34892 0.0234651 0)
(8.35224 0.0247646 0)
(8.35557 0.0257491 0)
(8.35887 0.0264626 0)
(8.36215 0.0269429 0)
(8.36538 0.0272222 0)
(8.36855 0.027329 0)
(8.37167 0.0272879 0)
(8.37474 0.0271201 0)
(8.37775 0.0268439 0)
(8.38072 0.026475 0)
(8.38364 0.0260268 0)
(8.38652 0.0255106 0)
(8.38937 0.0249359 0)
(8.3922 0.0243104 0)
(8.39501 0.0236404 0)
(8.39781 0.0229304 0)
(8.40062 0.022183 0)
(8.40345 0.0213982 0)
(8.40632 0.0205719 0)
(8.40924 0.0196943 0)
(8.41223 0.0187484 0)
(8.4153 0.0177056 0)
(8.41846 0.0165288 0)
(8.42169 0.0151667 0)
(8.42496 0.0135818 0)
(8.33299 0.00179298 0)
(8.33338 0.00570852 0)
(8.33469 0.0095144 0)
(8.33672 0.0128749 0)
(8.33919 0.0157811 0)
(8.34198 0.0182249 0)
(8.34499 0.0202234 0)
(8.3481 0.0218286 0)
(8.35128 0.0230883 0)
(8.35448 0.0240447 0)
(8.35767 0.0247378 0)
(8.36084 0.0252033 0)
(8.36397 0.0254718 0)
(8.36706 0.0255702 0)
(8.3701 0.0255217 0)
(8.3731 0.0253465 0)
(8.37604 0.0250618 0)
(8.37894 0.0246825 0)
(8.3818 0.0242209 0)
(8.38462 0.0236876 0)
(8.38742 0.0230911 0)
(8.39019 0.0224383 0)
(8.39294 0.0217343 0)
(8.39569 0.0209825 0)
(8.39844 0.0201838 0)
(8.40121 0.0193365 0)
(8.40401 0.0184354 0)
(8.40685 0.01747 0)
(8.40974 0.0164244 0)
(8.41268 0.0152752 0)
(8.41568 0.0139939 0)
(8.41872 0.0125465 0)
(8.42177 0.0109104 0)
(8.33302 0.00171516 0)
(8.33346 0.00530467 0)
(8.33469 0.00878118 0)
(8.33657 0.0118885 0)
(8.33887 0.0145907 0)
(8.34148 0.0168778 0)
(8.34431 0.0187599 0)
(8.34727 0.0202772 0)
(8.3503 0.0214715 0)
(8.35337 0.0223802 0)
(8.35645 0.0230386 0)
(8.35952 0.0234785 0)
(8.36256 0.023728 0)
(8.36557 0.0238116 0)
(8.36853 0.0237507 0)
(8.37146 0.0235639 0)
(8.37434 0.0232674 0)
(8.37718 0.0228747 0)
(8.37998 0.0223974 0)
(8.38275 0.0218452 0)
(8.38549 0.0212255 0)
(8.3882 0.0205446 0)
(8.39091 0.0198064 0)
(8.3936 0.0190132 0)
(8.3963 0.0181651 0)
(8.39901 0.0172594 0)
(8.40174 0.0162904 0)
(8.40449 0.0152482 0)
(8.40728 0.0141191 0)
(8.4101 0.0128845 0)
(8.41296 0.0115238 0)
(8.41582 0.0100145 0)
(8.41867 0.00834462 0)
(8.33303 0.00161321 0)
(8.3335 0.00490124 0)
(8.33466 0.00806676 0)
(8.33639 0.0109193 0)
(8.33853 0.0134145 0)
(8.34098 0.0155415 0)
(8.34365 0.0173055 0)
(8.34645 0.018735 0)
(8.34935 0.0198636 0)
(8.35229 0.0207231 0)
(8.35526 0.0213443 0)
(8.35822 0.0217559 0)
(8.36116 0.0219832 0)
(8.36408 0.0220489 0)
(8.36697 0.0219727 0)
(8.36982 0.0217719 0)
(8.37264 0.0214613 0)
(8.37542 0.0210535 0)
(8.37816 0.0205592 0)
(8.38087 0.019987 0)
(8.38356 0.0193438 0)
(8.38622 0.0186346 0)
(8.38887 0.017863 0)
(8.39151 0.0170304 0)
(8.39415 0.0161361 0)
(8.3968 0.0151771 0)
(8.39945 0.014148 0)
(8.40212 0.0130401 0)
(8.40481 0.011842 0)
(8.40751 0.0105399 0)
(8.41022 0.00911893 0)
(8.41293 0.00756498 0)
(8.41561 0.00587261 0)
(8.33304 0.00149875 0)
(8.3335 0.00450587 0)
(8.33459 0.00738616 0)
(8.33621 0.00999797 0)
(8.3382 0.0122943 0)
(8.3405 0.014262 0)
(8.34301 0.0159026 0)
(8.34567 0.0172363 0)
(8.34843 0.0182906 0)
(8.35125 0.0190925 0)
(8.3541 0.0196692 0)
(8.35695 0.0200458 0)
(8.3598 0.0202454 0)
(8.36263 0.0202884 0)
(8.36544 0.0201928 0)
(8.36822 0.0199744 0)
(8.37096 0.0196468 0)
(8.37368 0.0192216 0)
(8.37636 0.0187083 0)
(8.37901 0.0181149 0)
(8.38164 0.0174474 0)
(8.38425 0.0167102 0)
(8.38684 0.0159061 0)
(8.38942 0.0150361 0)
(8.39199 0.0140992 0)
(8.39456 0.0130925 0)
(8.39714 0.012011 0)
(8.39972 0.0108477 0)
(8.4023 0.00959347 0)
(8.40488 0.00823831 0)
(8.40746 0.00677216 0)
(8.41002 0.00518627 0)
(8.41255 0.00347941 0)
(8.33304 0.00137878 0)
(8.3335 0.00411939 0)
(8.33452 0.00673277 0)
(8.33602 0.0091123 0)
(8.33788 0.0112131 0)
(8.34004 0.0130207 0)
(8.3424 0.014534 0)
(8.34493 0.0157674 0)
(8.34755 0.0167425 0)
(8.35025 0.0174822 0)
(8.35298 0.0180096 0)
(8.35574 0.0183469 0)
(8.35849 0.0185146 0)
(8.36123 0.0185311 0)
(8.36395 0.0184128 0)
(8.36665 0.018174 0)
(8.36933 0.017827 0)
(8.37197 0.0173824 0)
(8.37459 0.0168489 0)
(8.37718 0.0162334 0)
(8.37974 0.0155415 0)
(8.38229 0.0147768 0)
(8.38481 0.0139418 0)
(8.38733 0.0130371 0)
(8.38983 0.0120617 0)
(8.39232 0.011013 0)
(8.39481 0.00988679 0)
(8.39729 0.00867748 0)
(8.39977 0.00737835 0)
(8.40224 0.00598228 0)
(8.40469 0.00448277 0)
(8.40712 0.00287472 0)
(8.4095 0.0011594 0)
(8.33304 0.0012575 0)
(8.33348 0.00374328 0)
(8.33444 0.0061054 0)
(8.33584 0.00826197 0)
(8.33758 0.0101722 0)
(8.3396 0.0118207 0)
(8.34184 0.0132046 0)
(8.34423 0.0143336 0)
(8.34673 0.0152246 0)
(8.34931 0.0158968 0)
(8.35193 0.0163698 0)
(8.35458 0.0166631 0)
(8.35723 0.0167946 0)
(8.35989 0.0167808 0)
(8.36252 0.0166365 0)
(8.36514 0.0163744 0)
(8.36774 0.0160058 0)
(8.37031 0.01554 0)
(8.37286 0.014985 0)
(8.37538 0.014347 0)
(8.37788 0.0136308 0)
(8.38035 0.0128398 0)
(8.38281 0.0119758 0)
(8.38525 0.0110395 0)
(8.38768 0.0100298 0)
(8.39009 0.00894486 0)
(8.39249 0.00778118 0)
(8.39487 0.00653456 0)
(8.39724 0.00520021 0)
(8.3996 0.00377336 0)
(8.40192 0.00225006 0)
(8.40422 0.000627644 0)
(8.40647 -0.0010912 0)
(8.33304 0.0011373 0)
(8.33346 0.00337822 0)
(8.33436 0.00550186 0)
(8.33567 0.00744365 0)
(8.3373 0.00916756 0)
(8.3392 0.0106579 0)
(8.34131 0.0119105 0)
(8.34358 0.0129319 0)
(8.34596 0.0137349 0)
(8.34842 0.0143352 0)
(8.35094 0.0147497 0)
(8.35348 0.0149948 0)
(8.35604 0.0150865 0)
(8.3586 0.0150392 0)
(8.36115 0.0148659 0)
(8.36369 0.0145782 0)
(8.36621 0.0141861 0)
(8.36871 0.0136979 0)
(8.37118 0.0131207 0)
(8.37363 0.0124602 0)
(8.37606 0.0117204 0)
(8.37846 0.0109044 0)
(8.38084 0.0100138 0)
(8.38321 0.00904925 0)
(8.38555 0.00800999 0)
(8.38787 0.00689445 0)
(8.39018 0.00570019 0)
(8.39246 0.00442416 0)
(8.39473 0.00306316 0)
(8.39697 0.00161418 0)
(8.39917 7.51137e-05 0)
(8.40134 -0.00155513 0)
(8.40346 -0.00327308 0)
(8.33304 0.0010195 0)
(8.33343 0.00302446 0)
(8.33428 0.00492041 0)
(8.33551 0.006655 0)
(8.33704 0.00819684 0)
(8.33883 0.00953053 0)
(8.34082 0.010651 0)
(8.34297 0.0115621 0)
(8.34524 0.0122737 0)
(8.34759 0.0127986 0)
(8.35 0.0131506 0)
(8.35245 0.013344 0)
(8.35491 0.0133924 0)
(8.35738 0.0133086 0)
(8.35985 0.0131039 0)
(8.36231 0.0127885 0)
(8.36475 0.0123713 0)
(8.36717 0.0118598 0)
(8.36956 0.0112602 0)
(8.37194 0.0105773 0)
(8.37429 0.00981505 0)
(8.37662 0.00897593 0)
(8.37892 0.00806152 0)
(8.3812 0.00707236 0)
(8.38346 0.00600811 0)
(8.38569 0.00486766 0)
(8.3879 0.00364934 0)
(8.39009 0.00235117 0)
(8.39224 0.000971141 0)
(8.39437 -0.000492387 0)
(8.39645 -0.00204027 0)
(8.3985 -0.00367257 0)
(8.4005 -0.00538543 0)
(8.33303 0.000904749 0)
(8.33341 0.00268191 0)
(8.33421 0.00435937 0)
(8.33536 0.0058936 0)
(8.3368 0.00725737 0)
(8.33848 0.00843597 0)
(8.34037 0.00942376 0)
(8.34241 0.0102227 0)
(8.34457 0.0108401 0)
(8.34682 0.0112862 0)
(8.34912 0.0115725 0)
(8.35147 0.0117109 0)
(8.35385 0.0117132 0)
(8.35623 0.0115902 0)
(8.35861 0.0113519 0)
(8.36098 0.0110072 0)
(8.36334 0.0105639 0)
(8.36569 0.0100285 0)
(8.36801 0.0094064 0)
(8.3703 0.00870204 0)
(8.37258 0.00791868 0)
(8.37482 0.00705867 0)
(8.37705 0.00612343 0)
(8.37924 0.00511359 0)
(8.38141 0.00402907 0)
(8.38355 0.00286924 0)
(8.38567 0.00163311 0)
(8.38775 0.000319527 0)
(8.3898 -0.00107256 0)
(8.39181 -0.00254382 0)
(8.39378 -0.00409424 0)
(8.3957 -0.00572322 0)
(8.39758 -0.00742676 0)
(8.33303 0.000793288 0)
(8.33338 0.00235021 0)
(8.33414 0.00381718 0)
(8.33522 0.00515722 0)
(8.33658 0.00634675 0)
(8.33817 0.00737202 0)
(8.33995 0.00822707 0)
(8.34189 0.00891249 0)
(8.34395 0.00943359 0)
(8.3461 0.00979836 0)
(8.34831 0.0100162 0)
(8.35056 0.010097 0)
(8.35284 0.0100507 0)
(8.35514 0.0098865 0)
(8.35744 0.00961298 0)
(8.35973 0.00923778 0)
(8.36201 0.00876759 0)
(8.36427 0.00820812 0)
(8.36651 0.0075641 0)
(8.36873 0.00683931 0)
(8.37092 0.00603668 0)
(8.37309 0.00515828 0)
(8.37523 0.00420547 0)
(8.37734 0.00317895 0)
(8.37942 0.00207889 0)
(8.38146 0.000905084 0)
(8.38348 -0.000342927 0)
(8.38546 -0.00166563 0)
(8.3874 -0.00306335 0)
(8.3893 -0.00453608 0)
(8.39115 -0.00608322 0)
(8.39296 -0.00770376 0)
(8.39472 -0.00939369 0)
(8.33303 0.000685135 0)
(8.33336 0.00202884 0)
(8.33407 0.00329231 0)
(8.33509 0.00444367 0)
(8.33637 0.00546246 0)
(8.33788 0.00633602 0)
(8.33957 0.00705836 0)
(8.34141 0.00762905 0)
(8.34338 0.00805181 0)
(8.34543 0.00833287 0)
(8.34755 0.00847975 0)
(8.34971 0.00850055 0)
(8.35191 0.00840345 0)
(8.35412 0.00819623 0)
(8.35633 0.00788607 0)
(8.35854 0.00747946 0)
(8.36074 0.00698208 0)
(8.36292 0.00639881 0)
(8.36509 0.00573369 0)
(8.36722 0.00498998 0)
(8.36934 0.00417023 0)
(8.37142 0.0032763 0)
(8.37347 0.00230945 0)
(8.37549 0.00127046 0)
(8.37748 0.000159704 0)
(8.37943 -0.0010227 0)
(8.38135 -0.00227678 0)
(8.38322 -0.00360252 0)
(8.38506 -0.00499973 0)
(8.38685 -0.00646792 0)
(8.38859 -0.00800609 0)
(8.39029 -0.00961302 0)
(8.39193 -0.0112848 0)
(8.33303 0.000580171 0)
(8.33334 0.00171715 0)
(8.33401 0.00278337 0)
(8.33497 0.00375109 0)
(8.33618 0.0046026 0)
(8.33761 0.00532644 0)
(8.33922 0.00591682 0)
(8.34098 0.00637256 0)
(8.34285 0.00669616 0)
(8.34481 0.00689228 0)
(8.34684 0.00696679 0)
(8.34892 0.00692615 0)
(8.35103 0.00677706 0)
(8.35316 0.00652582 0)
(8.35529 0.00617834 0)
(8.35742 0.00574001 0)
(8.35954 0.00521557 0)
(8.36165 0.00460911 0)
(8.36373 0.00392406 0)
(8.36579 0.00316317 0)
(8.36782 0.00232864 0)
(8.36981 0.0014221 0)
(8.37178 0.000444759 0)
(8.37371 -0.000602582 0)
(8.37561 -0.00171938 0)
(8.37747 -0.00290529 0)
(8.37928 -0.00415998 0)
(8.38106 -0.0054831 0)
(8.38279 -0.00687408 0)
(8.38447 -0.00833211 0)
(8.3861 -0.00985598 0)
(8.38768 -0.0114443 0)
(8.38921 -0.0130933 0)
(8.33303 0.000478203 0)
(8.33332 0.00141437 0)
(8.33395 0.00228869 0)
(8.33487 0.0030768 0)
(8.33601 0.00376336 0)
(8.33737 0.00433822 0)
(8.3389 0.00479603 0)
(8.34057 0.0051351 0)
(8.34237 0.00535727 0)
(8.34425 0.00546609 0)
(8.34619 0.00546599 0)
(8.34819 0.00536185 0)
(8.35022 0.00515909 0)
(8.35227 0.00486268 0)
(8.35432 0.00447732 0)
(8.35637 0.00400731 0)
(8.35841 0.00345646 0)
(8.36044 0.00282808 0)
(8.36244 0.00212495 0)
(8.36442 0.00134935 0)
(8.36637 0.000503102 0)
(8.36828 -0.000412367 0)
(8.37016 -0.00139598 0)
(8.372 -0.00244693 0)
(8.37381 -0.00356458 0)
(8.37557 -0.00474839 0)
(8.37729 -0.00599785 0)
(8.37896 -0.00731233 0)
(8.38059 -0.00869103 0)
(8.38216 -0.0101329 0)
(8.38369 -0.0116367 0)
(8.38516 -0.0132009 0)
(8.38657 -0.0148219 0)
(8.33303 0.000379037 0)
(8.33331 0.00112001 0)
(8.3339 0.0018078 0)
(8.33477 0.0024211 0)
(8.33586 0.00294691 0)
(8.33715 0.0033764 0)
(8.33861 0.00370488 0)
(8.34021 0.0039298 0)
(8.34192 0.00405229 0)
(8.34373 0.00407481 0)
(8.3456 0.00400059 0)
(8.34752 0.00383334 0)
(8.34947 0.0035773 0)
(8.35144 0.00323578 0)
(8.35342 0.00281252 0)
(8.3554 0.00231103 0)
(8.35736 0.00173423 0)
(8.35931 0.00108476 0)
(8.36123 0.000364819 0)
(8.36313 -0.00042376 0)
(8.36499 -0.00127948 0)
(8.36683 -0.00220114 0)
(8.36862 -0.00318779 0)
(8.37037 -0.00423864 0)
(8.37209 -0.00535302 0)
(8.37375 -0.00653028 0)
(8.37538 -0.00776976 0)
(8.37695 -0.00907068 0)
(8.37847 -0.0104321 0)
(8.37994 -0.0118529 0)
(8.38136 -0.0133317 0)
(8.38272 -0.0148671 0)
(8.38403 -0.0164555 0)
(8.33303 0.000282362 0)
(8.33329 0.000832481 0)
(8.33386 0.00133629 0)
(8.33468 0.00177485 0)
(8.33572 0.0021373 0)
(8.33695 0.00241674 0)
(8.33834 0.00260954 0)
(8.33988 0.0027135 0)
(8.34152 0.00273119 0)
(8.34326 0.00266355 0)
(8.34506 0.00251222 0)
(8.34691 0.0022789 0)
(8.34879 0.00196859 0)
(8.35068 0.00158251 0)
(8.35259 0.00112282 0)
(8.35449 0.000592003 0)
(8.35638 -7.75442e-06 0)
(8.35825 -0.000674692 0)
(8.3601 -0.00140726 0)
(8.36192 -0.0022041 0)
(8.3637 -0.00306409 0)
(8.36545 -0.00398629 0)
(8.36716 -0.00496992 0)
(8.36883 -0.00601428 0)
(8.37045 -0.00711871 0)
(8.37202 -0.00828253 0)
(8.37355 -0.00950501 0)
(8.37503 -0.0107853 0)
(8.37645 -0.0121224 0)
(8.37782 -0.0135151 0)
(8.37913 -0.0149621 0)
(8.38039 -0.0164619 0)
(8.38159 -0.0180112 0)
(8.33302 0.000188367 0)
(8.33327 0.000554478 0)
(8.33381 0.000883288 0)
(8.33459 0.00115839 0)
(8.33558 0.00137092 0)
(8.33676 0.0015149 0)
(8.3381 0.00158863 0)
(8.33957 0.00158227 0)
(8.34116 0.00150138 0)
(8.34283 0.00134796 0)
(8.34456 0.00112264 0)
(8.34635 0.000827687 0)
(8.34816 0.000461929 0)
(8.34999 2.89856e-05 0)
(8.35183 -0.000469152 0)
(8.35366 -0.00103124 0)
(8.35548 -0.00165592 0)
(8.35728 -0.00234204 0)
(8.35905 -0.00308853 0)
(8.36079 -0.00389448 0)
(8.3625 -0.0047591 0)
(8.36417 -0.00568168 0)
(8.36579 -0.00666159 0)
(8.36737 -0.00769824 0)
(8.36891 -0.00879102 0)
(8.37039 -0.00993927 0)
(8.37183 -0.0111422 0)
(8.37321 -0.0123991 0)
(8.37453 -0.0137088 0)
(8.3758 -0.0150702 0)
(8.37701 -0.016482 0)
(8.37817 -0.0179428 0)
(8.37926 -0.0194496 0)
(8.33302 9.53666e-05 0)
(8.33326 0.00027397 0)
(8.33378 0.000414928 0)
(8.33453 0.000504417 0)
(8.33548 0.000537973 0)
(8.33661 0.000514825 0)
(8.3379 0.000432613 0)
(8.33931 0.000301863 0)
(8.34084 0.00011448 0)
(8.34246 -0.000130616 0)
(8.34413 -0.000432488 0)
(8.34586 -0.000789922 0)
(8.34761 -0.00120573 0)
(8.34937 -0.00167777 0)
(8.35114 -0.0022054 0)
(8.35291 -0.00278868 0)
(8.35466 -0.00342743 0)
(8.35639 -0.00412123 0)
(8.35809 -0.00486974 0)
(8.35975 -0.00567264 0)
(8.36138 -0.00652961 0)
(8.36297 -0.00744026 0)
(8.36452 -0.00840423 0)
(8.36601 -0.00942107 0)
(8.36746 -0.0104903 0)
(8.36886 -0.0116112 0)
(8.3702 -0.0127833 0)
(8.37149 -0.0140055 0)
(8.37272 -0.015277 0)
(8.37389 -0.0165966 0)
(8.375 -0.017963 0)
(8.37606 -0.019375 0)
(8.37705 -0.0208295 0)
(8.33302 9.44454e-06 0)
(8.33324 2.93244e-05 0)
(8.33371 2.82236e-05 0)
(8.33442 -1.05e-05 0)
(8.33533 -9.48093e-05 0)
(8.33641 -0.000228351 0)
(8.33767 -0.000415017 0)
(8.33906 -0.000644325 0)
(8.34055 -0.000923664 0)
(8.34212 -0.00125366 0)
(8.34375 -0.00163268 0)
(8.34542 -0.00206104 0)
(8.34712 -0.00253633 0)
(8.34883 -0.00305973 0)
(8.35055 -0.00363154 0)
(8.35225 -0.00425166 0)
(8.35394 -0.00492006 0)
(8.3556 -0.00563675 0)
(8.35724 -0.00640175 0)
(8.35883 -0.00721504 0)
(8.36039 -0.00807658 0)
(8.3619 -0.00898627 0)
(8.36337 -0.00994394 0)
(8.36478 -0.0109493 0)
(8.36615 -0.0120021 0)
(8.36746 -0.0131019 0)
(8.36871 -0.0142479 0)
(8.36991 -0.0154396 0)
(8.37105 -0.0166761 0)
(8.37212 -0.0179563 0)
(8.37314 -0.0192791 0)
(8.3741 -0.0206434 0)
(8.37499 -0.0220466 0)
(8.33303 -8.94829e-05 0)
(8.33326 -0.000292276 0)
(8.33373 -0.000541259 0)
(8.33442 -0.000835531 0)
(8.3353 -0.0011612 0)
(8.33635 -0.00150746 0)
(8.33755 -0.00186737 0)
(8.33889 -0.00224836 0)
(8.34032 -0.00264696 0)
(8.34184 -0.00306543 0)
(8.34342 -0.00350812 0)
(8.34504 -0.00397909 0)
(8.34668 -0.0044817 0)
(8.34834 -0.00501948 0)
(8.35 -0.00559488 0)
(8.35164 -0.00620978 0)
(8.35327 -0.00686579 0)
(8.35487 -0.00756415 0)
(8.35644 -0.00830578 0)
(8.35797 -0.00909134 0)
(8.35946 -0.00992125 0)
(8.3609 -0.0107958 0)
(8.36229 -0.0117149 0)
(8.36363 -0.0126786 0)
(8.36491 -0.0136865 0)
(8.36614 -0.0147383 0)
(8.36731 -0.0158334 0)
(8.36843 -0.016971 0)
(8.36948 -0.0181504 0)
(8.37047 -0.0193705 0)
(8.37139 -0.0206301 0)
(8.37226 -0.0219283 0)
(8.37306 -0.0232624 0)
(8.333 -0.000135287 0)
(8.33315 -0.000369356 0)
(8.33354 -0.000608996 0)
(8.33417 -0.000891201 0)
(8.33503 -0.00122811 0)
(8.33608 -0.00161827 0)
(8.33729 -0.00205402 0)
(8.33863 -0.00252752 0)
(8.34007 -0.00303072 0)
(8.34159 -0.00356024 0)
(8.34316 -0.00411461 0)
(8.34476 -0.00469346 0)
(8.34638 -0.00529707 0)
(8.34801 -0.00592661 0)
(8.34962 -0.00658356 0)
(8.35122 -0.00726947 0)
(8.3528 -0.00798589 0)
(8.35434 -0.00873424 0)
(8.35585 -0.00951581 0)
(8.35731 -0.0103317 0)
(8.35873 -0.0111828 0)
(8.3601 -0.0120699 0)
(8.36142 -0.0129935 0)
(8.36268 -0.0139539 0)
(8.36389 -0.0149513 0)
(8.36504 -0.0159856 0)
(8.36612 -0.0170567 0)
(8.36715 -0.0181642 0)
(8.36811 -0.0193075 0)
(8.36901 -0.0204861 0)
(8.36985 -0.0216989 0)
(8.37062 -0.0229453 0)
(8.37133 -0.0242231 0)
(8.33306 -0.000328106 0)
(8.33334 -0.00105861 0)
(8.33379 -0.00186826 0)
(8.33441 -0.00268969 0)
(8.3352 -0.00346688 0)
(8.33616 -0.0041797 0)
(8.33728 -0.00482972 0)
(8.33854 -0.00542863 0)
(8.3399 -0.00599006 0)
(8.34135 -0.00652768 0)
(8.34286 -0.00705407 0)
(8.34441 -0.00758009 0)
(8.34597 -0.0081147 0)
(8.34755 -0.0086652 0)
(8.34912 -0.00923735 0)
(8.35068 -0.00983559 0)
(8.3522 -0.0104633 0)
(8.3537 -0.011123 0)
(8.35516 -0.0118166 0)
(8.35657 -0.0125454 0)
(8.35793 -0.0133105 0)
(8.35925 -0.0141122 0)
(8.3605 -0.0149511 0)
(8.3617 -0.0158271 0)
(8.36284 -0.01674 0)
(8.36392 -0.0176896 0)
(8.36494 -0.0186753 0)
(8.36589 -0.0196966 0)
(8.36678 -0.0207527 0)
(8.36761 -0.0218427 0)
(8.36836 -0.0229656 0)
(8.36905 -0.0241205 0)
(8.36968 -0.0253052 0)
(8.33294 -8.98352e-05 0)
(8.33285 -0.000181001 0)
(8.33307 -0.00033794 0)
(8.33365 -0.000687436 0)
(8.33454 -0.00123343 0)
(8.33565 -0.00191975 0)
(8.33693 -0.00268809 0)
(8.33832 -0.00349713 0)
(8.3398 -0.00432079 0)
(8.34132 -0.00514399 0)
(8.34288 -0.00595934 0)
(8.34445 -0.00676458 0)
(8.34603 -0.00756058 0)
(8.34759 -0.00835005 0)
(8.34913 -0.00913664 0)
(8.35064 -0.00992428 0)
(8.35212 -0.0107169 0)
(8.35356 -0.0115182 0)
(8.35495 -0.0123316 0)
(8.3563 -0.0131599 0)
(8.35759 -0.0140057 0)
(8.35883 -0.0148711 0)
(8.36001 -0.015758 0)
(8.36113 -0.0166676 0)
(8.36219 -0.017601 0)
(8.36319 -0.0185591 0)
(8.36412 -0.0195424 0)
(8.36499 -0.0205511 0)
(8.3658 -0.0215852 0)
(8.36653 -0.0226447 0)
(8.3672 -0.0237292 0)
(8.36781 -0.0248382 0)
(8.36835 -0.0259703 0)
(8.33317 -0.000787478 0)
(8.33366 -0.00270526 0)
(8.33406 -0.00468424 0)
(8.33445 -0.006383 0)
(8.33499 -0.00772773 0)
(8.33577 -0.00877321 0)
(8.33677 -0.00959369 0)
(8.33795 -0.0102532 0)
(8.33927 -0.0108032 0)
(8.34069 -0.0112839 0)
(8.34217 -0.0117257 0)
(8.34369 -0.0121509 0)
(8.34524 -0.0125757 0)
(8.34678 -0.0130117 0)
(8.34831 -0.0134668 0)
(8.34982 -0.0139466 0)
(8.35129 -0.0144549 0)
(8.35272 -0.0149942 0)
(8.3541 -0.0155658 0)
(8.35542 -0.0161708 0)
(8.3567 -0.0168094 0)
(8.35791 -0.0174818 0)
(8.35906 -0.0181878 0)
(8.36015 -0.018927 0)
(8.36117 -0.0196987 0)
(8.36212 -0.0205025 0)
(8.36301 -0.0213374 0)
(8.36383 -0.0222028 0)
(8.36458 -0.0230978 0)
(8.36527 -0.0240213 0)
(8.36588 -0.0249724 0)
(8.36642 -0.0259503 0)
(8.3669 -0.026953 0)
(8.33263 0.000564059 0)
(8.33174 0.00195604 0)
(8.33174 0.00280023 0)
(8.33257 0.00267683 0)
(8.33381 0.00180026 0)
(8.33525 0.000527965 0)
(8.33678 -0.000906858 0)
(8.33836 -0.00238072 0)
(8.33995 -0.0038272 0)
(8.34154 -0.00521074 0)
(8.34311 -0.00651633 0)
(8.34467 -0.00774192 0)
(8.3462 -0.00889243 0)
(8.34769 -0.0099762 0)
(8.34915 -0.011003 0)
(8.35057 -0.0119826 0)
(8.35195 -0.0129246 0)
(8.35327 -0.0138375 0)
(8.35455 -0.014729 0)
(8.35577 -0.0156057 0)
(8.35694 -0.0164734 0)
(8.35804 -0.0173369 0)
(8.35909 -0.0182003 0)
(8.36008 -0.0190669 0)
(8.361 -0.0199397 0)
(8.36186 -0.0208209 0)
(8.36266 -0.0217122 0)
(8.36338 -0.022615 0)
(8.36405 -0.0235305 0)
(8.36464 -0.0244592 0)
(8.36517 -0.0254017 0)
(8.36563 -0.0263581 0)
(8.36603 -0.0273277 0)
(8.33358 -0.00197008 0)
(8.33465 -0.00693291 0)
(8.33439 -0.0117451 0)
(8.33368 -0.0149398 0)
(8.33344 -0.0167379 0)
(8.33383 -0.0177273 0)
(8.33469 -0.0182316 0)
(8.33585 -0.0184446 0)
(8.33722 -0.0185012 0)
(8.33873 -0.0184886 0)
(8.34032 -0.0184611 0)
(8.34194 -0.0184516 0)
(8.34358 -0.0184792 0)
(8.3452 -0.018554 0)
(8.34679 -0.0186807 0)
(8.34834 -0.0188607 0)
(8.34984 -0.0190934 0)
(8.35129 -0.0193771 0)
(8.35267 -0.0197094 0)
(8.35399 -0.0200879 0)
(8.35524 -0.0205099 0)
(8.35643 -0.020973 0)
(8.35755 -0.0214747 0)
(8.35859 -0.022013 0)
(8.35957 -0.0225856 0)
(8.36047 -0.0231907 0)
(8.36131 -0.0238265 0)
(8.36207 -0.0244914 0)
(8.36276 -0.0251839 0)
(8.36338 -0.0259025 0)
(8.36392 -0.0266459 0)
(8.3644 -0.027413 0)
(8.36481 -0.028202 0)
(8.33162 0.00368661 0)
(8.32827 0.010223 0)
(8.32843 0.0133718 0)
(8.33097 0.0133044 0)
(8.33355 0.0112248 0)
(8.33572 0.00836003 0)
(8.33765 0.00533822 0)
(8.33942 0.00240092 0)
(8.34107 -0.000340006 0)
(8.34261 -0.00283662 0)
(8.34409 -0.00508366 0)
(8.34552 -0.00709719 0)
(8.34692 -0.00890163 0)
(8.34827 -0.0105238 0)
(8.3496 -0.0119902 0)
(8.3509 -0.0133252 0)
(8.35217 -0.0145504 0)
(8.3534 -0.0156847 0)
(8.3546 -0.0167443 0)
(8.35576 -0.017743 0)
(8.35687 -0.0186924 0)
(8.35794 -0.0196024 0)
(8.35896 -0.0204811 0)
(8.35993 -0.0213355 0)
(8.36084 -0.0221712 0)
(8.36169 -0.022993 0)
(8.36249 -0.0238048 0)
(8.36323 -0.0246098 0)
(8.3639 -0.0254107 0)
(8.36451 -0.0262094 0)
(8.36506 -0.0270077 0)
(8.36554 -0.0278066 0)
(8.36595 -0.0286067 0)
(8.33429 -0.00643731 0)
(8.33461 -0.020698 0)
(8.33071 -0.0299404 0)
(8.32669 -0.0339531 0)
(8.32476 -0.034857 0)
(8.32483 -0.0343208 0)
(8.32599 -0.0331575 0)
(8.3277 -0.0317624 0)
(8.32973 -0.0303582 0)
(8.33196 -0.0290619 0)
(8.33427 -0.027925 0)
(8.33662 -0.0269642 0)
(8.33897 -0.0261781 0)
(8.34127 -0.025556 0)
(8.34353 -0.0250836 0)
(8.34573 -0.024745 0)
(8.34786 -0.024525 0)
(8.34991 -0.0244093 0)
(8.35189 -0.0243852 0)
(8.35379 -0.0244415 0)
(8.3556 -0.0245683 0)
(8.35733 -0.0247573 0)
(8.35897 -0.025001 0)
(8.36052 -0.0252934 0)
(8.36199 -0.025629 0)
(8.36338 -0.0260034 0)
(8.36467 -0.0264124 0)
(8.36588 -0.0268529 0)
(8.367 -0.0273217 0)
(8.36804 -0.0278165 0)
(8.369 -0.0283351 0)
(8.36987 -0.0288758 0)
(8.37067 -0.0294364 0)
(8.32884 0.0225944 0)
(8.32235 0.0427683 0)
(8.32667 0.0439989 0)
(8.3333 0.0380425 0)
(8.33779 0.0306988 0)
(8.3406 0.0235468 0)
(8.34288 0.0169029 0)
(8.34504 0.0109459 0)
(8.3472 0.00573187 0)
(8.34944 0.00121298 0)
(8.35177 -0.00269073 0)
(8.35419 -0.00606103 0)
(8.35669 -0.00897558 0)
(8.35923 -0.0115049 0)
(8.36181 -0.0137102 0)
(8.36439 -0.0156441 0)
(8.36696 -0.0173507 0)
(8.3695 -0.0188671 0)
(8.37199 -0.0202245 0)
(8.37443 -0.0214487 0)
(8.3768 -0.0225615 0)
(8.37909 -0.023581 0)
(8.3813 -0.0245222 0)
(8.38343 -0.025398 0)
(8.38546 -0.0262188 0)
(8.3874 -0.0269937 0)
(8.38923 -0.02773 0)
(8.39097 -0.0284341 0)
(8.39261 -0.0291115 0)
(8.39415 -0.0297664 0)
(8.39558 -0.0304031 0)
(8.39691 -0.0310242 0)
(8.39814 -0.0316339 0)
(8.32436 -0.0380307 0)
(8.29386 -0.0683238 0)
(8.27214 -0.0717049 0)
(8.26667 -0.0686156 0)
(8.27356 -0.0642807 0)
(8.28618 -0.0594644 0)
(8.30091 -0.0547931 0)
(8.31621 -0.0506294 0)
(8.33122 -0.0470345 0)
(8.34548 -0.0439833 0)
(8.35879 -0.041431 0)
(8.3711 -0.0393185 0)
(8.3824 -0.0375838 0)
(8.39275 -0.0361701 0)
(8.40219 -0.0350271 0)
(8.4108 -0.0341118 0)
(8.41864 -0.0333875 0)
(8.42578 -0.0328237 0)
(8.43226 -0.0323949 0)
(8.43815 -0.0320799 0)
(8.44349 -0.0318611 0)
(8.44832 -0.031724 0)
(8.45269 -0.0316566 0)
(8.45662 -0.0316488 0)
(8.46016 -0.0316922 0)
(8.46333 -0.0317798 0)
(8.46615 -0.0319057 0)
(8.46866 -0.0320649 0)
(8.47087 -0.032253 0)
(8.4728 -0.0324664 0)
(8.47448 -0.0327017 0)
(8.47592 -0.032956 0)
(8.47714 -0.0332257 0)
(8.34002 0.156989 0)
(8.38199 0.148997 0)