/*--------------------------------*- C++ -*----------------------------------*\
| =========                 |                                                 |
| \\      /  F ield         | OpenFOAM: The Open Source CFD Toolbox           |
|  \\    /   O peration     | Version:  2.1.1                                 |
|   \\  /    A nd           | Web:      www.OpenFOAM.org                      |
|    \\/     M anipulation  |                                                 |
\*---------------------------------------------------------------------------*/
FoamFile
{
    version     2.0;
    format      ascii;
    class       volScalarField;
    location    "0.145";
    object      nuSgs;
}
// * * * * * * * * * * * * * * * * * * * * * * * * * * * * * * * * * * * * * //

dimensions      [0 2 -1 0 0 0 0];

internalField   nonuniform List<scalar> 
6820
(
0.000556015
0.000457405
0.000368121
0.000306084
0.000268864
0.000243218
0.000224336
0.000209889
0.000198214
0.000188405
0.000179945
0.000172501
0.000165851
0.000159838
0.000154347
0.000149291
0.000144603
0.000140229
0.000136127
0.000132261
0.000128601
0.000125123
0.000121804
0.000118624
0.000115566
0.000112612
0.000109747
0.000106959
0.000104226
0.00010156
9.89027e-05
9.62437e-05
9.30557e-05
0.000103498
0.000170666
0.000223656
0.000240027
0.000235273
0.000224913
0.000213221
0.000201942
0.000191716
0.000182561
0.000174357
0.00016697
0.000160278
0.000154175
0.000148578
0.000143416
0.000138633
0.000134179
0.000130014
0.000126104
0.00012242
0.000118938
0.000115637
0.000112499
0.000109508
0.000106651
0.000103917
0.00010129
9.87753e-05
9.6309e-05
9.4017e-05
9.14684e-05
8.9836e-05
3.67739e-05
2.8473e-05
4.56204e-05
8.23088e-05
0.000107957
0.000123561
0.000132001
0.000135866
0.000136984
0.000136427
0.000134834
0.000132603
0.000129984
0.00012714
0.000124178
0.000121169
0.00011816
0.000115184
0.00011226
0.000109402
0.000106618
0.000103914
0.000101291
9.87504e-05
9.62925e-05
9.3916e-05
9.162e-05
8.9401e-05
8.72602e-05
8.51753e-05
8.31682e-05
8.11006e-05
7.9193e-05
2.0736e-05
2.86806e-05
2.6555e-05
1.50799e-05
3.64351e-06
1.38529e-05
2.56857e-05
3.55121e-05
4.34351e-05
4.97291e-05
5.46695e-05
5.85007e-05
6.14252e-05
6.3601e-05
6.51625e-05
6.62204e-05
6.68659e-05
6.71742e-05
6.7207e-05
6.70156e-05
6.66422e-05
6.61221e-05
6.54846e-05
6.47545e-05
6.39528e-05
6.30973e-05
6.22037e-05
6.12844e-05
6.03527e-05
5.94132e-05
5.84841e-05
5.75832e-05
5.68042e-05
1.44202e-05
1.7581e-05
2.26011e-05
2.42974e-05
2.39732e-05
2.20005e-05
1.91195e-05
1.58697e-05
1.24844e-05
9.11376e-06
5.86568e-06
2.82224e-06
6.4006e-07
2.81662e-06
5.17287e-06
7.31103e-06
9.22405e-06
1.09214e-05
1.2417e-05
1.37267e-05
1.48668e-05
1.58535e-05
1.67029e-05
1.74304e-05
1.80507e-05
1.8578e-05
1.9026e-05
1.94077e-05
1.97369e-05
2.00275e-05
2.0297e-05
2.05884e-05
2.09292e-05
1.09206e-05
1.24936e-05
1.38172e-05
1.43259e-05
1.5109e-05
1.5745e-05
1.61187e-05
1.63233e-05
1.6363e-05
1.62432e-05
1.59883e-05
1.56217e-05
1.51675e-05
1.46406e-05
1.40598e-05
1.34423e-05
1.28031e-05
1.21545e-05
1.15064e-05
1.08663e-05
1.02398e-05
9.63072e-06
9.04134e-06
8.47278e-06
7.925e-06
7.39706e-06
6.88697e-06
6.39189e-06
5.90731e-06
5.42613e-06
4.93853e-06
4.41818e-06
3.85101e-06
8.24589e-06
9.4244e-06
1.02418e-05
1.00395e-05
9.84958e-06
9.67031e-06
9.48436e-06
9.39393e-06
9.3879e-06
9.42212e-06
9.46964e-06
9.51271e-06
9.53973e-06
9.54859e-06
9.53705e-06
9.50413e-06
9.45013e-06
9.37614e-06
9.28368e-06
9.17446e-06
9.05023e-06
8.91264e-06
8.76323e-06
8.60333e-06
8.43404e-06
8.25619e-06
8.07016e-06
7.87593e-06
7.67246e-06
7.45754e-06
7.22694e-06
6.97536e-06
6.69496e-06
6.36331e-06
7.40602e-06
8.21016e-06
8.07253e-06
7.76166e-06
7.42149e-06
7.04298e-06
6.71736e-06
6.4634e-06
6.26039e-06
6.09553e-06
5.95978e-06
5.84422e-06
5.74219e-06
5.64932e-06
5.56249e-06
5.47917e-06
5.39742e-06
5.31572e-06
5.23293e-06
5.1482e-06
5.06083e-06
4.97031e-06
4.87616e-06
4.77796e-06
4.67526e-06
4.56749e-06
4.4539e-06
4.33336e-06
4.20439e-06
4.06507e-06
3.91603e-06
3.75508e-06
5.00429e-06
5.85691e-06
6.53574e-06
6.52816e-06
6.35963e-06
6.15152e-06
5.86772e-06
5.5805e-06
5.32833e-06
5.10752e-06
4.91331e-06
4.74225e-06
4.58949e-06
4.4508e-06
4.32324e-06
4.20455e-06
4.09287e-06
3.98673e-06
3.88497e-06
3.78658e-06
3.69068e-06
3.5965e-06
3.50329e-06
3.41036e-06
3.31704e-06
3.22263e-06
3.12642e-06
3.02766e-06
2.92561e-06
2.81979e-06
2.71036e-06
2.60093e-06
2.4943e-06
4.00032e-06
4.70656e-06
5.3029e-06
5.37203e-06
5.26885e-06
5.12004e-06
4.90298e-06
4.6726e-06
4.46655e-06
4.28398e-06
4.12039e-06
3.9736e-06
3.84055e-06
3.71825e-06
3.60462e-06
3.49812e-06
3.3975e-06
3.30173e-06
3.20993e-06
3.12134e-06
3.03527e-06
2.95111e-06
2.8683e-06
2.78633e-06
2.70472e-06
2.62307e-06
2.54104e-06
2.45846e-06
2.37548e-06
2.29292e-06
2.21282e-06
2.14038e-06
2.08077e-06
3.24256e-06
3.83518e-06
4.36039e-06
4.47012e-06
4.41479e-06
4.31441e-06
4.15319e-06
3.96789e-06
3.79315e-06
3.63336e-06
3.48717e-06
3.35456e-06
3.23416e-06
3.12389e-06
3.02204e-06
2.92726e-06
2.83836e-06
2.75431e-06
2.67426e-06
2.5975e-06
2.5234e-06
2.45145e-06
2.38122e-06
2.31236e-06
2.24463e-06
2.17791e-06
2.11229e-06
2.04819e-06
1.98654e-06
1.92915e-06
1.87915e-06
1.84204e-06
1.82337e-06
2.65786e-06
3.16099e-06
3.63321e-06
3.77715e-06
3.76669e-06
3.70413e-06
3.58189e-06
3.42818e-06
3.27596e-06
3.13361e-06
3.00169e-06
2.88096e-06
2.7709e-06
2.67004e-06
2.57702e-06
2.49073e-06
2.41019e-06
2.33455e-06
2.26308e-06
2.19519e-06
2.13036e-06
2.0682e-06
2.0084e-06
1.95077e-06
1.89529e-06
1.84211e-06
1.79169e-06
1.7449e-06
1.70319e-06
1.66882e-06
1.64519e-06
1.63699e-06
1.64901e-06
2.19657e-06
2.63157e-06
3.06466e-06
3.23274e-06
3.25682e-06
3.22385e-06
3.13442e-06
3.01071e-06
2.88151e-06
2.75672e-06
2.63832e-06
2.52798e-06
2.42625e-06
2.33253e-06
2.24603e-06
2.166e-06
2.09173e-06
2.02253e-06
1.9578e-06
1.89703e-06
1.83983e-06
1.78589e-06
1.73504e-06
1.68723e-06
1.64264e-06
1.60163e-06
1.56492e-06
1.53361e-06
1.50933e-06
1.49431e-06
1.49157e-06
1.50445e-06
1.53661e-06
1.82507e-06
2.20929e-06
2.61342e-06
2.80047e-06
2.85449e-06
2.84778e-06
2.78594e-06
2.68721e-06
2.57687e-06
2.46621e-06
2.35883e-06
2.25727e-06
2.16283e-06
2.07553e-06
1.99496e-06
1.92062e-06
1.85197e-06
1.78848e-06
1.72968e-06
1.67518e-06
1.62468e-06
1.578e-06
1.5351e-06
1.49606e-06
1.46117e-06
1.43095e-06
1.40619e-06
1.38802e-06
1.37796e-06
1.37785e-06
1.39003e-06
1.41652e-06
1.45994e-06
1.51988e-06
1.8678e-06
2.25138e-06
2.45408e-06
2.53314e-06
2.54837e-06
2.50903e-06
2.43147e-06
2.33807e-06
2.24062e-06
2.14375e-06
2.05054e-06
1.96282e-06
1.88115e-06
1.80553e-06
1.73577e-06
1.67159e-06
1.61264e-06
1.55859e-06
1.50919e-06
1.46425e-06
1.42367e-06
1.38749e-06
1.35588e-06
1.32918e-06
1.30791e-06
1.29284e-06
1.28494e-06
1.28544e-06
1.29567e-06
1.31723e-06
1.35109e-06
1.39916e-06
1.26431e-06
1.58826e-06
1.95812e-06
2.17417e-06
2.27473e-06
2.30942e-06
2.2897e-06
2.23073e-06
2.15236e-06
2.06643e-06
1.9785e-06
1.89223e-06
1.80998e-06
1.73285e-06
1.66123e-06
1.59521e-06
1.53469e-06
1.47951e-06
1.42945e-06
1.38435e-06
1.3441e-06
1.30867e-06
1.27813e-06
1.25267e-06
1.23262e-06
1.21844e-06
1.21076e-06
1.2103e-06
1.21794e-06
1.23451e-06
1.261e-06
1.29767e-06
1.34595e-06
1.04631e-06
1.35715e-06
1.71913e-06
1.9471e-06
2.06633e-06
2.11824e-06
2.11546e-06
2.07248e-06
2.00727e-06
1.93159e-06
1.85168e-06
1.77169e-06
1.69438e-06
1.62126e-06
1.55304e-06
1.49007e-06
1.43245e-06
1.38016e-06
1.33313e-06
1.29127e-06
1.25454e-06
1.22295e-06
1.1966e-06
1.17564e-06
1.16034e-06
1.15104e-06
1.14819e-06
1.15226e-06
1.16378e-06
1.1832e-06
1.21102e-06
1.24709e-06
1.2925e-06
8.57082e-07
1.16491e-06
1.52408e-06
1.76296e-06
1.89853e-06
1.96587e-06
1.97811e-06
1.94929e-06
1.8959e-06
1.82945e-06
1.75666e-06
1.68209e-06
1.60889e-06
1.53892e-06
1.47324e-06
1.41244e-06
1.35683e-06
1.30652e-06
1.26155e-06
1.22192e-06
1.18761e-06
1.15867e-06
1.13514e-06
1.11715e-06
1.10487e-06
1.09849e-06
1.09828e-06
1.10449e-06
1.11736e-06
1.13705e-06
1.16376e-06
1.19706e-06
1.23786e-06
6.90385e-07
1.00513e-06
1.3658e-06
1.61475e-06
1.76472e-06
1.84592e-06
1.87152e-06
1.85519e-06
1.81226e-06
1.75396e-06
1.68738e-06
1.61745e-06
1.54762e-06
1.48011e-06
1.41624e-06
1.35683e-06
1.30236e-06
1.25306e-06
1.20907e-06
1.17046e-06
1.13724e-06
1.10944e-06
1.08711e-06
1.07029e-06
1.05907e-06
1.05353e-06
1.05377e-06
1.05985e-06
1.07183e-06
1.08965e-06
1.11331e-06
1.14225e-06
1.17722e-06
5.42306e-07
8.74145e-07
1.23957e-06
1.49773e-06
1.6603e-06
1.75391e-06
1.79144e-06
1.78621e-06
1.75262e-06
1.70161e-06
1.64052e-06
1.57458e-06
1.50751e-06
1.44181e-06
1.37905e-06
1.32027e-06
1.2661e-06
1.2169e-06
1.1729e-06
1.1342e-06
1.10086e-06
1.07291e-06
1.05034e-06
1.03316e-06
1.02138e-06
1.01497e-06
1.0139e-06
1.01813e-06
1.02756e-06
1.04202e-06
1.06139e-06
1.08507e-06
1.11371e-06
4.12113e-07
7.70923e-07
1.14264e-06
1.40885e-06
1.58229e-06
1.68689e-06
1.73503e-06
1.73957e-06
1.71417e-06
1.66947e-06
1.61295e-06
1.55008e-06
1.48485e-06
1.41998e-06
1.3573e-06
1.29804e-06
1.24297e-06
1.19258e-06
1.14718e-06
1.10692e-06
1.07189e-06
1.04213e-06
1.01761e-06
9.98304e-07
9.84162e-07
9.75103e-07
9.71025e-07
9.71792e-07
9.77236e-07
9.87123e-07
1.00124e-06
1.019e-06
1.04094e-06
3.05645e-07
6.96974e-07
1.07394e-06
1.3465e-06
1.52904e-06
1.64323e-06
1.70075e-06
1.71395e-06
1.69583e-06
1.65676e-06
1.60428e-06
1.54407e-06
1.4803e-06
1.41591e-06
1.35292e-06
1.29269e-06
1.23615e-06
1.18388e-06
1.13625e-06
1.09346e-06
1.05564e-06
1.02282e-06
9.94997e-07
9.72123e-07
9.54123e-07
9.40893e-07
9.32302e-07
9.28186e-07
9.28351e-07
9.32557e-07
9.40572e-07
9.51902e-07
9.66966e-07
2.43787e-07
6.55757e-07
1.03362e-06
1.31016e-06
1.49987e-06
1.62214e-06
1.68764e-06
1.70812e-06
1.69593e-06
1.66117e-06
1.61141e-06
1.55246e-06
1.4887e-06
1.42326e-06
1.35838e-06
1.29558e-06
1.23591e-06
1.18008e-06
1.12851e-06
1.08149e-06
1.03916e-06
1.00158e-06
9.68766e-07
9.40675e-07
9.1724e-07
8.98363e-07
8.83921e-07
8.73761e-07
8.677e-07
8.65516e-07
8.66976e-07
8.71624e-07
8.79803e-07
2.58273e-07
6.51131e-07
1.02268e-06
1.30034e-06
1.4953e-06
1.62437e-06
1.69696e-06
1.72408e-06
1.71754e-06
1.68711e-06
1.6403e-06
1.583e-06
1.51968e-06
1.45362e-06
1.38714e-06
1.32192e-06
1.25908e-06
1.19942e-06
1.14343e-06
1.09144e-06
1.04365e-06
1.00016e-06
9.61e-07
9.26184e-07
8.95679e-07
8.69435e-07
8.47381e-07
8.29429e-07
8.15465e-07
8.05357e-07
7.98939e-07
7.95945e-07
7.96603e-07
3.43737e-07
6.85232e-07
1.04258e-06
1.31815e-06
1.51612e-06
1.65003e-06
1.72768e-06
1.75918e-06
1.75579e-06
1.72703e-06
1.68044e-06
1.62204e-06
1.55648e-06
1.4872e-06
1.41673e-06
1.34684e-06
1.27879e-06
1.21343e-06
1.15132e-06
1.09281e-06
1.03811e-06
9.87351e-07
9.4059e-07
8.97857e-07
8.59163e-07
8.24512e-07
7.93904e-07
7.67337e-07
7.44793e-07
7.26244e-07
7.11613e-07
7.00716e-07
6.93805e-07
4.70374e-07
7.57428e-07
1.09491e-06
1.36582e-06
1.56558e-06
1.70417e-06
1.78757e-06
1.82484e-06
1.82657e-06
1.80182e-06
1.75792e-06
1.70077e-06
1.63505e-06
1.56429e-06
1.49109e-06
1.41738e-06
1.34451e-06
1.27344e-06
1.20483e-06
1.13909e-06
1.07651e-06
1.01724e-06
9.61404e-07
9.09054e-07
8.60247e-07
8.15041e-07
7.73506e-07
7.3574e-07
7.01849e-07
6.71991e-07
6.46259e-07
6.24852e-07
6.07894e-07
6.24138e-07
8.66465e-07
1.18195e-06
1.44559e-06
1.64403e-06
1.78334e-06
1.86745e-06
1.90458e-06
1.90509e-06
1.87808e-06
1.831e-06
1.76994e-06
1.6997e-06
1.62393e-06
1.5453e-06
1.46575e-06
1.38666e-06
1.30898e-06
1.23334e-06
1.16015e-06
1.08966e-06
1.02201e-06
9.57303e-07
8.95583e-07
8.36905e-07
7.81338e-07
7.28984e-07
6.79999e-07
6.34579e-07
5.93002e-07
5.55535e-07
5.22551e-07
4.94483e-07
8.02641e-07
1.0107e-06
1.30553e-06
1.56272e-06
1.76276e-06
1.90827e-06
2.00048e-06
2.04581e-06
2.05344e-06
2.03172e-06
1.9877e-06
1.92743e-06
1.85586e-06
1.77687e-06
1.69343e-06
1.60776e-06
1.5215e-06
1.43581e-06
1.35147e-06
1.26902e-06
1.18878e-06
1.11095e-06
1.03564e-06
9.62877e-07
8.92704e-07
8.25143e-07
7.60242e-07
6.98097e-07
6.38846e-07
5.82764e-07
5.30085e-07
4.81556e-07
4.37076e-07
1.01084e-06
1.19569e-06
1.47294e-06
1.71957e-06
1.91141e-06
2.04893e-06
2.13263e-06
2.16942e-06
2.16924e-06
2.14078e-06
2.09108e-06
2.02598e-06
1.95014e-06
1.86715e-06
1.77971e-06
1.68984e-06
1.59902e-06
1.50833e-06
1.41853e-06
1.33012e-06
1.24345e-06
1.15872e-06
1.07604e-06
9.95486e-07
9.17062e-07
8.40776e-07
7.6663e-07
6.9464e-07
6.24831e-07
5.57282e-07
4.9201e-07
4.29325e-07
3.68934e-07
1.25294e-06
1.41801e-06
1.68366e-06
1.93279e-06
2.13882e-06
2.29666e-06
2.40047e-06
2.45326e-06
2.46353e-06
2.43982e-06
2.38979e-06
2.32027e-06
2.23699e-06
2.1445e-06
2.04625e-06
1.94484e-06
1.84217e-06
1.73957e-06
1.63797e-06
1.53797e-06
1.43997e-06
1.3442e-06
1.25077e-06
1.15975e-06
1.07113e-06
9.84921e-07
9.01101e-07
8.19675e-07
7.40637e-07
6.64068e-07
5.89869e-07
5.1858e-07
4.48642e-07
1.54966e-06
1.71189e-06
1.96565e-06
2.18913e-06
2.36164e-06
2.48655e-06
2.5635e-06
2.59819e-06
2.59908e-06
2.5728e-06
2.52452e-06
2.45893e-06
2.38018e-06
2.29173e-06
2.19644e-06
2.09667e-06
1.99431e-06
1.89084e-06
1.7874e-06
1.68482e-06
1.58371e-06
1.48451e-06
1.38751e-06
1.29292e-06
1.20086e-06
1.11146e-06
1.02479e-06
9.40971e-07
8.60104e-07
7.82359e-07
7.0784e-07
6.37042e-07
5.69229e-07
1.893e-06
2.03314e-06
2.30218e-06
2.57978e-06
2.82271e-06
3.00939e-06
3.12554e-06
3.17601e-06
3.17454e-06
3.13376e-06
3.06403e-06
2.97395e-06
2.87026e-06
2.75785e-06
2.64025e-06
2.51998e-06
2.39884e-06
2.2781e-06
2.15863e-06
2.04109e-06
1.9259e-06
1.8134e-06
1.70381e-06
1.5973e-06
1.49399e-06
1.39401e-06
1.29747e-06
1.20453e-06
1.11532e-06
1.0301e-06
9.48963e-07
8.72674e-07
7.99593e-07
2.37777e-06
2.55014e-06
2.76482e-06
2.91836e-06
3.04047e-06
3.15186e-06
3.24163e-06
3.30168e-06
3.33025e-06
3.32686e-06
3.29312e-06
3.23309e-06
3.15177e-06
3.05402e-06
2.94424e-06
2.82623e-06
2.70309e-06
2.57727e-06
2.45067e-06
2.32471e-06
2.20044e-06
2.07863e-06
1.95982e-06
1.84439e-06
1.73263e-06
1.62475e-06
1.52091e-06
1.4213e-06
1.32611e-06
1.23559e-06
1.14996e-06
1.06992e-06
9.94434e-07
2.85822e-06
2.98818e-06
3.39839e-06
3.82455e-06
4.14543e-06
4.34069e-06
4.41992e-06
4.41435e-06
4.354e-06
4.25719e-06
4.13521e-06
3.99612e-06
3.84554e-06
3.68739e-06
3.52472e-06
3.36007e-06
3.19558e-06
3.03303e-06
2.87388e-06
2.71927e-06
2.57007e-06
2.42691e-06
2.29019e-06
2.16015e-06
2.03691e-06
1.92046e-06
1.81077e-06
1.70776e-06
1.61137e-06
1.52166e-06
1.43853e-06
1.3629e-06
1.29267e-06
3.90297e-06
4.02443e-06
3.95592e-06
3.89655e-06
4.01161e-06
4.23051e-06
4.43034e-06
4.56173e-06
4.62152e-06
4.61967e-06
4.57286e-06
4.49937e-06
4.41402e-06
4.3271e-06
4.24499e-06
4.17101e-06
4.1062e-06
4.05024e-06
4.00206e-06
3.96032e-06
3.92367e-06
3.89088e-06
3.86089e-06
3.83285e-06
3.80603e-06
3.77986e-06
3.75386e-06
3.72762e-06
3.70088e-06
3.67354e-06
3.64567e-06
3.61873e-06
3.59128e-06
4.36815e-06
4.96069e-06
5.95276e-06
6.44357e-06
6.56177e-06
6.53669e-06
6.52302e-06
6.62663e-06
6.87836e-06
7.24729e-06
7.68405e-06
8.14411e-06
8.59327e-06
9.00849e-06
9.37643e-06
9.69083e-06
9.9502e-06
1.0156e-05
1.03117e-05
1.04215e-05
1.049e-05
1.0522e-05
1.0522e-05
1.04939e-05
1.04416e-05
1.03681e-05
1.02762e-05
1.01679e-05
1.00451e-05
9.90889e-06
9.76116e-06
9.60391e-06
9.43896e-06
7.56367e-06
5.83849e-06
4.6463e-06
6.23378e-06
8.9602e-06
1.16676e-05
1.39977e-05
1.58891e-05
1.73402e-05
1.83649e-05
1.89992e-05
1.92906e-05
1.92883e-05
1.90413e-05
1.85963e-05
1.79959e-05
1.72776e-05
1.64737e-05
1.56113e-05
1.47126e-05
1.37956e-05
1.28746e-05
1.19604e-05
1.10615e-05
1.01837e-05
9.33112e-06
8.5062e-06
7.70959e-06
6.94131e-06
6.19797e-06
5.48052e-06
4.77691e-06
4.10229e-06
8.58727e-06
1.47307e-05
1.88285e-05
2.12245e-05
2.23039e-05
2.18191e-05
1.99473e-05
1.71439e-05
1.38858e-05
1.08174e-05
8.98903e-06
9.47713e-06
1.19543e-05
1.5313e-05
1.88844e-05
2.23749e-05
2.56559e-05
2.86718e-05
3.14023e-05
3.38465e-05
3.60137e-05
3.79188e-05
3.95799e-05
4.10157e-05
4.22454e-05
4.32872e-05
4.4159e-05
4.48781e-05
4.54614e-05
4.59303e-05
4.63e-05
4.66295e-05
4.69078e-05
3.4655e-05
3.72374e-05
4.66892e-05
6.18343e-05
7.75659e-05
9.29942e-05
0.000107417
0.000120127
0.000130936
0.000139886
0.000147088
0.000152706
0.000156925
0.000159931
0.000161899
0.000162986
0.000163335
0.000163069
0.000162294
0.000161101
0.000159569
0.000157762
0.000155735
0.000153533
0.000151196
0.000148752
0.000146228
0.000143642
0.000141012
0.000138342
0.000135635
0.000132982
0.000130395
0.000608455
0.000582507
0.000556867
0.000530376
0.000504332
0.000479056
0.000454587
0.000431195
0.000409063
0.000388247
0.000368764
0.000350599
0.000333704
0.000318013
0.000303447
0.000289922
0.000277355
0.000265663
0.000254768
0.000244595
0.000235077
0.000226153
0.000217765
0.000209863
0.000202402
0.000195342
0.000188643
0.000182272
0.00017619
0.000170375
0.000164698
0.000159693
0.00015513
8.30916e-05
7.73645e-05
7.18773e-05
6.85036e-05
6.65812e-05
6.57968e-05
6.53138e-05
6.44016e-05
6.23122e-05
5.80356e-05
5.10198e-05
4.26633e-05
3.94728e-05
4.52335e-05
5.28262e-05
5.21569e-05
4.59719e-05
4.67113e-05
5.03341e-05
4.97601e-05
4.64379e-05
4.44112e-05
4.91404e-05
5.01214e-05
4.41852e-05
4.20012e-05
3.83584e-05
3.16451e-05
2.57706e-05
2.20629e-05
1.92303e-05
1.59236e-05
1.17979e-05
4.82584e-06
8.70522e-06
2.49856e-05
3.26628e-05
2.77725e-05
2.24233e-05
2.14089e-05
2.2152e-05
2.70242e-05
2.9747e-05
2.80936e-05
2.46853e-05
2.15388e-05
1.90185e-05
1.70379e-05
1.55742e-05
1.46589e-05
1.42546e-05
1.40965e-05
1.44938e-05
1.68696e-05
2.20498e-05
3.58991e-05
5.39903e-05
6.15112e-05
5.57664e-05
4.36532e-05
3.1424e-05
2.10743e-05
1.25017e-05
5.45781e-06
3.28077e-06
9.79433e-06
2.16219e-05
3.75247e-05
4.97388e-05
5.15817e-05
4.44782e-05
3.47006e-05
2.67682e-05
2.14262e-05
1.77376e-05
1.49198e-05
1.26185e-05
1.07065e-05
9.14582e-06
7.93323e-06
7.07462e-06
6.56394e-06
6.41473e-06
6.68173e-06
7.43831e-06
8.98903e-06
1.24418e-05
1.97597e-05
3.13222e-05
4.29703e-05
4.89677e-05
4.71084e-05
3.86037e-05
2.59108e-05
1.20786e-05
1.65496e-05
3.39751e-05
4.34703e-05
5.2279e-05
3.50036e-05
0.000114567
0.000111181
0.000106819
0.000102469
9.80426e-05
9.35899e-05
8.88494e-05
8.33474e-05
7.67424e-05
6.90399e-05
6.06291e-05
5.44577e-05
5.47935e-05
5.84738e-05
5.55207e-05
4.26014e-05
3.48882e-05
4.07146e-05
4.4315e-05
4.20593e-05
3.84508e-05
3.59353e-05
3.82536e-05
4.31366e-05
4.19598e-05
3.84359e-05
3.74946e-05
3.37282e-05
2.75479e-05
2.20713e-05
1.78839e-05
1.38955e-05
8.84004e-06
5.88823e-06
1.91909e-05
3.11112e-05
3.07909e-05
2.32306e-05
2.09547e-05
2.06762e-05
2.40711e-05
2.91375e-05
2.99952e-05
2.73762e-05
2.40535e-05
2.12165e-05
1.89128e-05
1.70862e-05
1.57414e-05
1.4899e-05
1.45581e-05
1.44744e-05
1.47544e-05
1.69075e-05
2.17388e-05
3.41254e-05
5.33189e-05
6.35432e-05
5.94005e-05
4.73514e-05
3.43308e-05
2.30489e-05
1.36303e-05
5.58685e-06
1.56369e-06
9.88153e-06
2.31847e-05
4.0004e-05
5.17741e-05
5.233e-05
4.42576e-05
3.43197e-05
2.6671e-05
2.15866e-05
1.80147e-05
1.52295e-05
1.29229e-05
1.09868e-05
9.3895e-06
8.13086e-06
7.22837e-06
6.69376e-06
6.53541e-06
6.79009e-06
7.52199e-06
9.00926e-06
1.23013e-05
1.936e-05
3.09035e-05
4.31529e-05
5.01722e-05
4.92201e-05
4.13243e-05
2.93708e-05
1.8147e-05
2.22641e-05
3.74626e-05
4.56238e-05
5.29857e-05
3.52113e-05
0.00010352
0.00010468
0.000105584
0.000106631
0.000107367
0.000107059
0.000104966
0.000100622
9.40445e-05
8.58045e-05
7.75372e-05
7.14854e-05
6.66007e-05
5.75636e-05
4.0466e-05
2.54817e-05
3.18463e-05
4.04014e-05
4.09515e-05
3.72076e-05
3.39355e-05
3.21982e-05
3.27078e-05
3.57857e-05
3.77102e-05
3.55266e-05
3.39286e-05
3.36821e-05
3.07566e-05
2.56684e-05
2.04588e-05
1.60502e-05
1.37769e-05
1.90529e-05
2.90371e-05
3.19711e-05
2.48321e-05
1.94636e-05
1.95564e-05
2.15638e-05
2.72903e-05
3.07078e-05
2.95999e-05
2.64538e-05
2.33926e-05
2.08686e-05
1.87827e-05
1.71156e-05
1.58877e-05
1.51118e-05
1.48156e-05
1.48101e-05
1.50282e-05
1.684e-05
2.13369e-05
3.20796e-05
5.17545e-05
6.50139e-05
6.31738e-05
5.1653e-05
3.80439e-05
2.59007e-05
1.57481e-05
7.36627e-06
3.45223e-06
1.10869e-05
2.56698e-05
4.31561e-05
5.40169e-05
5.29139e-05
4.37893e-05
3.37941e-05
2.65269e-05
2.17409e-05
1.83024e-05
1.55572e-05
1.32468e-05
1.1284e-05
9.64668e-06
8.33844e-06
7.37806e-06
6.79086e-06
6.60607e-06
6.86022e-06
7.59218e-06
9.02572e-06
1.21346e-05
1.88671e-05
3.0288e-05
4.3117e-05
5.13127e-05
5.15668e-05
4.46577e-05
3.38522e-05
2.47263e-05
2.83902e-05
4.13624e-05
4.78627e-05
5.35265e-05
3.53632e-05
7.53182e-05
7.73891e-05
7.96645e-05
8.24432e-05
8.56356e-05
8.87945e-05
9.10575e-05
9.13444e-05
8.87923e-05
8.32432e-05
7.52968e-05
6.46382e-05
4.9943e-05
3.04718e-05
1.52888e-05
2.62073e-05
3.75201e-05
3.99689e-05
3.71085e-05
3.34946e-05
3.12995e-05
3.06408e-05
3.06351e-05
3.24704e-05
3.34985e-05
3.27341e-05
3.04284e-05
2.97916e-05
3.03313e-05
2.92631e-05
2.68147e-05
2.47357e-05
2.53389e-05
2.94008e-05
3.13246e-05
2.53918e-05
1.76622e-05
1.72866e-05
1.9548e-05
2.51981e-05
3.04416e-05
3.11238e-05
2.85672e-05
2.54221e-05
2.27522e-05
2.05254e-05
1.86418e-05
1.71265e-05
1.60111e-05
1.5301e-05
1.50407e-05
1.51103e-05
1.53275e-05
1.68027e-05
2.09849e-05
3.00274e-05
4.93075e-05
6.57475e-05
6.70306e-05
5.66654e-05
4.27374e-05
2.97984e-05
1.89736e-05
1.05944e-05
7.26034e-06
1.39317e-05
2.94295e-05
4.70305e-05
5.62671e-05
5.30935e-05
4.29528e-05
3.31132e-05
2.63513e-05
2.18958e-05
1.86002e-05
1.59013e-05
1.35897e-05
1.15994e-05
9.91821e-06
8.55694e-06
7.53806e-06
6.88934e-06
6.65609e-06
6.89542e-06
7.63766e-06
9.03805e-06
1.1962e-05
1.83139e-05
2.94965e-05
4.28483e-05
5.23439e-05
5.40828e-05
4.84908e-05
3.90919e-05
3.17787e-05
3.50211e-05
4.55786e-05
4.99885e-05
5.37473e-05
3.53384e-05
2.88722e-05
3.11449e-05
3.38132e-05
3.69755e-05
4.05279e-05
4.41682e-05
4.73463e-05
4.91984e-05
4.86326e-05
4.46502e-05
3.62512e-05
2.31807e-05
6.74124e-06
1.26676e-05
2.79179e-05
3.66673e-05
3.83146e-05
3.57841e-05
3.26575e-05
3.05888e-05
2.94743e-05
2.92947e-05
2.93967e-05
3.05736e-05
3.21161e-05
3.09984e-05
2.84845e-05
2.5997e-05
2.5306e-05
2.61688e-05
2.69259e-05
2.74698e-05
2.82713e-05
2.77563e-05
2.26739e-05
1.5128e-05
1.38992e-05
1.73168e-05
2.35353e-05
2.98816e-05
3.20522e-05
3.02787e-05
2.71958e-05
2.44292e-05
2.21502e-05
2.01786e-05
1.84811e-05
1.71101e-05
1.61003e-05
1.54532e-05
1.52183e-05
1.53499e-05
1.56061e-05
1.67618e-05
2.05899e-05
2.81549e-05
4.59632e-05
6.52955e-05
7.05519e-05
6.22188e-05
4.84418e-05
3.48783e-05
2.34813e-05
1.52154e-05
1.22837e-05
1.85884e-05
3.46062e-05
5.15135e-05
5.82874e-05
5.271e-05
4.17197e-05
3.22905e-05
2.61388e-05
2.20364e-05
1.88951e-05
1.62501e-05
1.39401e-05
1.19207e-05
1.01912e-05
8.77058e-06
7.68733e-06
6.9735e-06
6.68383e-06
6.89663e-06
7.65039e-06
9.037e-06
1.17858e-05
1.77089e-05
2.85008e-05
4.22299e-05
5.30655e-05
5.65335e-05
5.25886e-05
4.48311e-05
3.90777e-05
4.16868e-05
4.96704e-05
5.17387e-05
5.35241e-05
3.51146e-05
4.17987e-06
3.22275e-06
2.4622e-06
2.73635e-06
4.36028e-06
6.60199e-06
8.84524e-06
1.05528e-05
1.13368e-05
1.15739e-05
1.35409e-05
1.90413e-05
2.64062e-05
3.25637e-05
3.54393e-05
3.49494e-05
3.26634e-05
3.03713e-05
2.88134e-05
2.78479e-05
2.72012e-05
2.70325e-05
2.74711e-05
2.82556e-05
3.04994e-05
3.14228e-05
2.89676e-05
2.52856e-05
2.21272e-05
2.03209e-05
1.97908e-05
1.97639e-05
1.90363e-05
1.595e-05
1.12269e-05
1.05656e-05
1.52984e-05
2.27859e-05
2.98061e-05
3.27953e-05
3.16183e-05
2.8645e-05
2.58101e-05
2.35326e-05
2.15819e-05
1.98295e-05
1.83043e-05
1.70675e-05
1.61538e-05
1.55665e-05
1.53502e-05
1.55252e-05
1.58531e-05
1.67544e-05
2.01149e-05
2.65813e-05
4.19325e-05
6.32591e-05
7.31815e-05
6.80142e-05
5.51557e-05
4.13232e-05
2.95178e-05
2.13675e-05
1.87524e-05
2.5242e-05
4.13169e-05
5.63973e-05
5.97584e-05
5.15861e-05
4.00802e-05
3.13584e-05
2.59039e-05
2.217e-05
1.91923e-05
1.6608e-05
1.43017e-05
1.22508e-05
1.04675e-05
8.97966e-06
7.82265e-06
7.036e-06
6.68355e-06
6.86204e-06
7.62655e-06
9.01747e-06
1.16113e-05
1.70763e-05
2.73128e-05
4.11903e-05
5.33055e-05
5.86908e-05
5.66933e-05
5.07419e-05
4.62752e-05
4.80217e-05
5.33009e-05
5.28835e-05
5.27449e-05
3.46487e-05
8.54153e-06
8.44685e-06
8.47004e-06
8.74743e-06
9.50117e-06
1.09355e-05
1.30944e-05
1.58327e-05
1.89372e-05
2.2256e-05
2.55332e-05
2.8312e-05
3.00047e-05
3.02896e-05
2.94468e-05
2.82035e-05
2.71321e-05
2.63005e-05
2.55471e-05
2.48624e-05
2.4381e-05
2.42518e-05
2.4759e-05
2.56803e-05
2.74595e-05
3.02804e-05
3.09717e-05
2.82544e-05
2.40221e-05
2.00243e-05
1.6761e-05
1.40924e-05
1.17382e-05
9.78945e-06
1.06148e-05
1.60769e-05
2.40173e-05
3.08291e-05
3.37341e-05
3.26823e-05
2.97388e-05
2.68479e-05
2.45951e-05
2.27378e-05
2.10401e-05
1.94762e-05
1.81088e-05
1.69946e-05
1.61675e-05
1.5637e-05
1.54375e-05
1.56336e-05
1.60463e-05
1.67907e-05
1.95737e-05
2.52762e-05
3.76528e-05
5.94176e-05
7.42495e-05
7.35363e-05
6.27088e-05
4.92193e-05
3.72833e-05
2.92631e-05
2.69943e-05
3.39619e-05
4.93298e-05
6.11528e-05
6.02253e-05
4.9576e-05
3.80863e-05
3.03671e-05
2.56602e-05
2.23002e-05
1.94944e-05
1.69771e-05
1.4676e-05
1.2591e-05
1.07486e-05
9.18637e-06
7.9459e-06
7.07464e-06
6.64909e-06
6.78572e-06
7.56044e-06
8.97342e-06
1.14412e-05
1.64426e-05
2.59723e-05
3.97021e-05
5.29075e-05
6.02826e-05
6.04413e-05
5.63801e-05
5.29341e-05
5.35581e-05
5.60414e-05
5.31503e-05
5.13062e-05
3.39417e-05
4.8086e-06
4.83724e-06
5.05331e-06
5.59207e-06
6.60384e-06
8.18193e-06
1.03071e-05
1.28515e-05
1.55983e-05
1.82553e-05
2.05696e-05
2.22679e-05
2.32532e-05
2.3666e-05
2.37691e-05
2.37155e-05
2.34867e-05
2.30466e-05
2.2476e-05
2.19483e-05
2.16427e-05
2.16651e-05
2.21225e-05
2.30753e-05
2.4425e-05
2.68957e-05
2.99549e-05
3.10859e-05
2.93781e-05
2.60021e-05
2.24446e-05
1.94758e-05
1.77471e-05
1.8421e-05
2.23465e-05
2.82124e-05
3.31175e-05
3.48752e-05
3.34342e-05
3.04237e-05
2.75146e-05
2.53073e-05
2.35764e-05
2.20092e-05
2.05073e-05
1.91125e-05
1.78904e-05
1.68885e-05
1.61396e-05
1.56623e-05
1.5481e-05
1.56774e-05
1.61655e-05
1.68571e-05
1.90372e-05
2.4097e-05
3.36662e-05
5.38439e-05
7.29944e-05
7.7919e-05
7.05723e-05
5.83981e-05
4.6833e-05
3.90677e-05
3.72428e-05
4.45908e-05
5.79949e-05
6.49623e-05
5.92018e-05
4.66335e-05
3.58465e-05
2.93668e-05
2.54184e-05
2.24313e-05
1.98046e-05
1.73601e-05
1.50654e-05
1.29432e-05
1.10357e-05
9.39056e-06
8.05595e-06
7.08805e-06
6.57797e-06
6.6643e-06
7.44786e-06
8.89982e-06
1.12768e-05
1.5833e-05
2.4537e-05
3.77736e-05
5.17285e-05
6.09957e-05
6.33898e-05
6.12217e-05
5.85215e-05
5.77939e-05
5.74874e-05
5.23042e-05
4.91608e-05
3.30362e-05
3.22104e-06
3.32133e-06
3.62139e-06
4.20719e-06
5.14654e-06
6.46613e-06
8.14364e-06
1.01123e-05
1.2247e-05
1.4372e-05
1.63071e-05
1.79174e-05
1.91362e-05
1.99554e-05
2.0405e-05
2.05351e-05
2.04046e-05
2.00915e-05
1.97081e-05
1.9385e-05
1.92404e-05
1.93819e-05
1.98481e-05
2.07008e-05
2.18777e-05
2.35273e-05
2.62198e-05
2.93533e-05
3.13379e-05
3.1553e-05
3.06427e-05
2.97377e-05
2.97068e-05
3.11268e-05
3.35521e-05
3.5474e-05
3.55017e-05
3.3503e-05
3.05242e-05
2.77528e-05
2.56659e-05
2.408e-05
2.26765e-05
2.13055e-05
1.99724e-05
1.87349e-05
1.76465e-05
1.67471e-05
1.607e-05
1.56415e-05
1.54811e-05
1.56631e-05
1.61962e-05
1.6916e-05
1.85872e-05
2.29162e-05
3.03859e-05
4.70938e-05
6.87986e-05
7.99688e-05
7.77163e-05
6.82367e-05
5.7863e-05
5.06589e-05
4.93631e-05
5.64109e-05
6.60623e-05
6.67469e-05
5.62977e-05
4.28824e-05
3.3522e-05
2.84043e-05
2.51875e-05
2.25676e-05
2.01268e-05
1.77608e-05
1.54734e-05
1.33109e-05
1.13319e-05
9.59513e-06
8.1548e-06
7.07599e-06
6.46756e-06
6.49441e-06
7.28562e-06
8.793e-06
1.112e-05
1.52723e-05
2.30841e-05
3.54758e-05
4.96937e-05
6.05458e-05
6.50791e-05
6.46951e-05
6.24614e-05
6.0228e-05
5.72658e-05
5.01638e-05
4.63492e-05
3.20358e-05
2.74839e-06
2.92149e-06
3.27539e-06
3.86011e-06
4.70974e-06
5.83425e-06
7.21404e-06
8.79984e-06
1.05139e-05
1.22533e-05
1.3893e-05
1.53012e-05
1.63839e-05
1.71171e-05
1.75399e-05
1.77111e-05
1.76811e-05
1.75059e-05
1.72713e-05
1.70854e-05
1.70465e-05
1.72485e-05
1.7745e-05
1.85435e-05
1.96428e-05
2.09641e-05
2.27136e-05
2.52275e-05
2.8143e-05
3.06368e-05
3.23236e-05
3.34767e-05
3.44195e-05
3.51575e-05
3.52955e-05
3.43548e-05
3.23298e-05
2.9803e-05
2.74768e-05
2.56665e-05
2.42625e-05
2.30263e-05
2.18145e-05
2.06043e-05
1.94313e-05
1.83412e-05
1.73755e-05
1.65708e-05
1.59603e-05
1.55752e-05
1.54362e-05
1.5598e-05
1.61342e-05
1.69186e-05
1.82605e-05
2.17364e-05
2.78442e-05
4.02331e-05
6.159e-05
7.83911e-05
8.25516e-05
7.74122e-05
6.93751e-05
6.32509e-05
6.24166e-05
6.78034e-05
7.16957e-05
6.54338e-05
5.14492e-05
3.86546e-05
3.12849e-05
2.75092e-05
2.49718e-05
2.27128e-05
2.04657e-05
1.81839e-05
1.59047e-05
1.36983e-05
1.16408e-05
9.80207e-06
8.24293e-06
7.03783e-06
6.31588e-06
6.27374e-06
7.07213e-06
8.65051e-06
1.09726e-05
1.47821e-05
2.16997e-05
3.29485e-05
4.68442e-05
5.87503e-05
6.51071e-05
6.62576e-05
6.42213e-05
6.04363e-05
5.5104e-05
4.6668e-05
4.3051e-05
3.10917e-05
2.468e-06
2.69301e-06
3.07276e-06
3.6351e-06
4.39807e-06
5.36529e-06
6.52043e-06
7.82705e-06
9.22728e-06
1.06394e-05
1.19652e-05
1.31151e-05
1.40314e-05
1.46924e-05
1.51065e-05
1.5302e-05
1.53209e-05
1.52205e-05
1.50778e-05
1.49834e-05
1.50209e-05
1.52641e-05
1.5769e-05
1.65417e-05
1.75742e-05
1.88188e-05
2.02082e-05
2.18642e-05
2.39336e-05
2.62236e-05
2.83423e-05
3.00105e-05
3.10982e-05
3.1445e-05
3.09743e-05
2.97918e-05
2.82245e-05
2.66553e-05
2.52946e-05
2.41326e-05
2.3065e-05
2.20133e-05
2.09553e-05
1.99035e-05
1.88846e-05
1.7931e-05
1.70782e-05
1.63613e-05
1.58127e-05
1.54651e-05
1.53442e-05
1.54871e-05
1.59885e-05
1.6822e-05
1.8019e-05
2.06801e-05
2.57599e-05
3.44364e-05
5.22657e-05
7.23122e-05
8.3135e-05
8.37869e-05
7.93703e-05
7.49776e-05
7.42312e-05
7.61287e-05
7.28248e-05
6.04358e-05
4.5122e-05
3.44303e-05
2.92649e-05
2.66891e-05
2.47713e-05
2.28715e-05
2.08275e-05
1.8636e-05
1.63656e-05
1.41114e-05
1.19676e-05
1.00157e-05
8.32337e-06
6.97416e-06
6.12042e-06
5.99904e-06
6.80639e-06
8.47065e-06
1.08346e-05
1.43799e-05
2.04641e-05
3.03853e-05
4.33643e-05
5.56068e-05
6.32381e-05
6.55234e-05
6.34349e-05
5.81578e-05
5.08953e-05
4.19461e-05
3.96102e-05
3.03584e-05
2.27695e-06
2.52683e-06
2.90345e-06
3.4219e-06
4.09224e-06
4.91571e-06
5.87946e-06
6.95493e-06
8.09754e-06
9.24886e-06
1.03405e-05
1.13035e-05
1.20834e-05
1.26535e-05
1.3019e-05
1.32064e-05
1.32523e-05
1.32029e-05
1.31215e-05
1.30856e-05
1.31701e-05
1.34382e-05
1.39364e-05
1.46769e-05
1.56444e-05
1.68163e-05
1.81268e-05
1.95115e-05
2.09872e-05