/*--------------------------------*- C++ -*----------------------------------*\
| =========                 |                                                 |
| \\      /  F ield         | OpenFOAM: The Open Source CFD Toolbox           |
|  \\    /   O peration     | Version:  2.1.1                                 |
|   \\  /    A nd           | Web:      www.OpenFOAM.org                      |
|    \\/     M anipulation  |                                                 |
\*---------------------------------------------------------------------------*/
FoamFile
{
    version     2.0;
    format      ascii;
    class       volScalarField;
    location    "0.145";
    object      p;
}
// * * * * * * * * * * * * * * * * * * * * * * * * * * * * * * * * * * * * * //

dimensions      [0 2 -2 0 0 0 0];

internalField   nonuniform List<scalar> 
6820
(
13.5334
-4.30197
-7.30966
-7.49575
-7.66667
-7.59054
-7.52992
-7.53714
-7.57772
-7.63633
-7.70438
-7.77651
-7.85015
-7.92403
-7.99739
-8.06973
-8.14065
-8.2098
-8.27684
-8.34147
-8.40339
-8.46228
-8.51785
-8.56979
-8.6178
-8.66158
-8.7009
-8.73524
-8.76531
-8.78806
-8.8128
-8.81222
-8.86838
6.85219
-4.12083
-6.99847
-7.29756
-7.54841
-7.56833
-7.54424
-7.56263
-7.60496
-7.66064
-7.72476
-7.7933
-7.86396
-7.93552
-8.00716
-8.07825
-8.1483
-8.21686
-8.28353
-8.34796
-8.40979
-8.4687
-8.52436
-8.57646
-8.62468
-8.6687
-8.70829
-8.74298
-8.77309
-8.7968
-8.81987
-8.82712
-8.87337
4.13742
-2.69059
-5.9781
-6.7351
-7.20166
-7.39638
-7.45108
-7.50231
-7.56408
-7.63218
-7.70504
-7.78028
-7.85607
-7.93143
-8.00578
-8.07878
-8.15016
-8.21964
-8.28697
-8.35188
-8.41411
-8.47337
-8.5294
-8.58191
-8.63063
-8.67524
-8.7155
-8.75093
-8.78158
-8.8055
-8.82446
-8.82438
-8.80809
2.15187
-2.46354
-5.55668
-6.41508
-6.88551
-7.15939
-7.28435
-7.37982
-7.47283
-7.56166
-7.64776
-7.73205
-7.81461
-7.89547
-7.9745
-8.05154
-8.12646
-8.19913
-8.26937
-8.33699
-8.40181
-8.46361
-8.52218
-8.57731
-8.62876
-8.67631
-8.7197
-8.75854
-8.79253
-8.82008
-8.84024
-8.84485
-8.82555
0.516091
-2.56431
-5.16533
-6.068
-6.57427
-6.92751
-7.12276
-7.258
-7.37579
-7.48162
-7.57975
-7.67339
-7.76327
-7.84979
-7.93353
-8.01465
-8.09317
-8.16906
-8.24226
-8.31269
-8.38026
-8.44485
-8.50636
-8.56466
-8.61963
-8.67113
-8.71901
-8.76299
-8.80274
-8.83712
-8.86478
-8.88172
-8.88129
-0.706875
-2.7456
-4.91488
-5.85831
-6.38374
-6.7642
-6.99453
-7.15277
-7.2869
-7.40578
-7.51384
-7.61507
-7.71127
-7.80324
-7.89146
-7.97636
-8.0582
-8.13711
-8.21318
-8.28642
-8.35684
-8.42442
-8.48915
-8.55102
-8.61002
-8.66613
-8.71937
-8.76964
-8.81687
-8.86058
-8.90037
-8.93518
-8.96523
-1.65794
-3.03239
-4.79799
-5.7042
-6.21735
-6.60616
-6.8668
-7.05071
-7.2031
-7.33575
-7.45398
-7.56281
-7.66495
-7.76165
-7.85383
-7.94219
-8.02714
-8.10893
-8.18772
-8.26361
-8.3367
-8.40706
-8.47475
-8.53987
-8.60251
-8.66278
-8.72084
-8.77681
-8.8309
-8.88321
-8.93412
-8.98419
-9.03576
-2.40432
-3.33896
-4.74727
-5.58897
-6.09066
-6.4812
-6.76074
-6.96212
-7.12679
-7.26925
-7.39546
-7.51071
-7.61818
-7.7195
-7.81574
-7.9077
-7.9959
-8.08066
-8.16226
-8.2409
-8.31674
-8.38995
-8.46069
-8.52914
-8.59549
-8.66001
-8.72297
-8.78472
-8.84573
-8.90655
-8.96819
-9.03201
-9.10124
-2.99697
-3.64303
-4.75792
-5.51946
-5.99881
-6.37785
-6.66396
-6.87714
-7.0521
-7.20368
-7.33782
-7.45962
-7.57255
-7.67852
-7.77878
-7.87426
-7.96561
-8.05331
-8.13769
-8.21905
-8.29763
-8.37368
-8.44743
-8.51916
-8.58916
-8.65778
-8.72547
-8.79275
-8.8603
-8.92902
-9.00027
-9.0758
-9.15901
-3.47375
-3.92897
-4.80647
-5.47944
-5.92991
-6.29324
-6.58041
-6.80176
-6.98454
-7.14313
-7.28353
-7.41072
-7.52828
-7.63831
-7.74221
-7.84099
-7.9354
-8.02595
-8.11308
-8.19714
-8.27844
-8.3573
-8.43403
-8.50898
-8.58253
-8.65515
-8.72738
-8.7999
-8.87356
-8.94945
-9.02912
-9.11442
-9.20861
-3.86156
-4.18909
-4.87912
-5.46507
-5.88324
-6.22745
-6.50948
-6.73392
-6.92139
-7.08502
-7.23059
-7.36263
-7.48458
-7.5986
-7.70612
-7.8082
-7.90565
-7.99907
-8.08894
-8.17568
-8.25968
-8.3413
-8.42093
-8.49899
-8.57594
-8.65231
-8.72875
-8.80603
-8.8851
-8.96713
-9.05373
-9.14669
-9.24893
-4.18004
-4.42102
-4.96498
-5.46949
-5.85288
-6.17581
-6.44894
-6.67331
-6.86357
-7.03092
-7.18067
-7.31681
-7.44259
-7.56015
-7.67095
-7.77607
-7.87637
-7.9725
-8.06499
-8.1543
-8.24088
-8.32514
-8.40753
-8.48851
-8.56861
-8.64843
-8.72865
-8.8101
-8.89379
-8.98089
-9.07294
-9.17157
-9.27931
-4.44353
-4.62485
-5.05595
-5.48738
-5.83575
-6.1368
-6.39865
-6.6201
-6.81099
-6.98042
-7.13311
-7.27254
-7.40162
-7.52239
-7.63626
-7.74431
-7.84739
-7.94617
-8.04122
-8.13306
-8.22214
-8.30894
-8.39394
-8.47765
-8.56064
-8.64353
-8.72705
-8.81204
-8.89948
-8.99051
-9.08652
-9.18894
-9.29988
-4.66258
-4.80202
-5.14638
-5.51413
-5.82847
-6.10762
-6.3567
-6.57313
-6.76303
-6.93339
-7.08818
-7.23029
-7.36224
-7.4859
-7.60258
-7.71334
-7.81902
-7.9203
-8.01777
-8.11196
-8.20338
-8.29252
-8.3799
-8.46605
-8.55156
-8.63708
-8.72333
-8.81112
-8.9014
-8.99521
-9.09376
-9.19825
-9.31041
-4.84503
-4.95453
-5.23235
-5.54581
-5.82819
-6.08619
-6.32194
-6.53201
-6.71965
-6.88989
-7.04589
-7.19
-7.32431
-7.45047
-7.56969
-7.68296
-7.79107
-7.89471
-7.99448
-8.0909
-8.18451
-8.27582
-8.36536
-8.45367
-8.54135
-8.62904
-8.71744
-8.80734
-8.89957
-8.99507
-9.09488
-9.19995
-9.31165
-4.99674
-5.08444
-5.31123
-5.5792
-5.8324
-6.07043
-6.29288
-6.49573
-6.68016
-6.84948
-7.00603
-7.15162
-7.2879
-7.41627
-7.53781
-7.65339
-7.76378
-7.86962
-7.97151
-8.06999
-8.16558
-8.2588
-8.3502
-8.44032
-8.52974
-8.61909
-8.70903
-8.80027
-8.89357
-8.98972
-9.08959
-9.19393
-9.30376
-5.12212
-5.1937
-5.3813
-5.61168
-5.83886
-6.05846
-6.26815
-6.46348
-6.64413
-6.81197
-6.96857
-7.11518
-7.25307
-7.38335
-7.50696
-7.62465
-7.73713
-7.84501
-7.94886
-8.04921
-8.14658
-8.24149
-8.33447
-8.42607
-8.51683
-8.60735
-8.69824
-8.79014
-8.88372
-8.97963
-9.07856
-9.18108
-9.28792
-5.22445
-5.28398
-5.44147
-5.64114
-5.84561
-6.04859
-6.24639
-6.43428
-6.61088
-6.7769
-6.93318
-7.08049
-7.21971
-7.35168
-7.47715
-7.59678
-7.71118
-7.82093
-7.92655
-8.02856
-8.12746
-8.22378
-8.31802
-8.41069
-8.50234
-8.59351
-8.68475
-8.77663
-8.86972
-8.96455
-9.06165
-9.16144
-9.26444
-5.30622
-5.35665
-5.49099
-5.66587
-5.85093
-6.03926
-6.22633
-6.40721
-6.5798
-6.7439
-6.89969
-7.04751
-7.18788
-7.32137
-7.44856
-7.56998
-7.68616
-7.79762
-7.90485
-8.00833
-8.10856
-8.20603
-8.30123
-8.39465
-8.48678
-8.57814
-8.66922
-8.7605
-8.85246
-8.94553
-9.04012
-9.13649
-9.23499
-5.36921
-5.41276
-5.52936
-5.68447
-5.85331
-6.02906
-6.20673
-6.38132
-6.55019
-6.71245
-6.86774
-7.01598
-7.15738
-7.29227
-7.42103
-7.54409
-7.66189
-7.77487
-7.8835
-7.98822
-8.08951
-8.18782
-8.28363
-8.37739
-8.46958
-8.56064
-8.65101
-8.74112
-8.83135
-8.92206
-9.01352
-9.10594
-9.1995
-5.41469
-5.45304
-5.55616
-5.69577
-5.85142
-6.0167
-6.18648
-6.35571
-6.52142
-6.68215
-6.83712
-6.98589
-7.12837
-7.26466
-7.39499
-7.51965
-7.639
-7.75343
-7.86333
-7.96915
-8.0713
-8.17023
-8.26639
-8.36019
-8.45208
-8.54246
-8.63172
-8.72021
-8.80827
-8.89616
-8.98409
-9.07217
-9.16051
-5.44344
-5.47794
-5.57098
-5.69874
-5.84403
-6.00099
-6.16448
-6.32946
-6.49271
-6.6524
-6.80733
-6.95677
-7.10038
-7.23807
-7.36989
-7.49605
-7.6168
-7.73248
-7.84344
-7.95009
-8.05282
-8.15205
-8.2482
-8.34166
-8.43284
-8.5221
-8.60979
-8.69622
-8.78166
-8.86632
-8.95036
-9.03385
-9.11682
-5.45585
-5.48756
-5.57333
-5.69243
-5.83003
-5.98083
-6.13977
-6.30184
-6.46364
-6.62302
-6.77848
-6.92903
-7.07411
-7.21344
-7.34694
-7.47471
-7.59693
-7.71388
-7.82587
-7.93327
-8.03646
-8.13583
-8.23176
-8.32465
-8.41485
-8.50271
-8.58853
-8.6726
-8.75514
-8.83633
-8.91627
-8.99501
-9.07254
-5.4519
-5.48174
-5.5626
-5.67586
-5.8083
-5.9551
-6.11127
-6.27181
-6.43319
-6.593
-6.74951
-6.90151
-7.04825
-7.18929
-7.32447
-7.45377
-7.57731
-7.69534
-7.80813
-7.91601
-8.01936
-8.11853
-8.21391
-8.30585
-8.3947
-8.48078
-8.56438
-8.64574
-8.72507
-8.80252
-8.87819
-8.95213
-9.0243
-5.43119
-5.45996
-5.53804
-5.64806
-5.77788
-5.92297
-6.07842
-6.23921
-6.40166
-6.56316
-6.72176
-6.87607
-7.02517
-7.1685
-7.30579
-7.43695
-7.56206
-7.68132
-7.79497
-7.90335
-8.00681
-8.10569
-8.20037
-8.2912
-8.37852
-8.46263
-8.5438
-8.62227
-8.69823
-8.77183
-8.84315
-8.91222
-8.97902
-5.3929
-5.42133
-5.49858
-5.60783
-5.73741
-5.88298
-6.0396
-6.20217
-6.36687
-6.53094
-6.69227
-6.84931
-7.00103
-7.14678
-7.28619
-7.41916
-7.54571
-7.66601
-7.78031
-7.88892
-7.99219
-8.09048
-8.18414
-8.27353
-8.35898
-8.4408
-8.51925
-8.59457
-8.66695
-8.73655
-8.80345
-8.86775
-8.92944
-5.33576
-5.36461
-5.44304
-5.55416
-5.68631
-5.83517
-5.99568
-6.16255
-6.33179
-6.50042
-6.66617
-6.82736
-6.98286
-7.13194
-7.27421
-7.40951
-7.53787
-7.65947
-7.77455
-7.88345
-7.98652
-8.08413
-8.17666
-8.26447
-8.3479
-8.42726
-8.50284
-8.57488
-8.64358
-8.70909
-8.77153
-8.83098
-8.88743
-5.25791
-5.28791
-5.36947
-5.48489
-5.62197
-5.77621
-5.94238
-6.11498
-6.28983
-6.46386
-6.63465
-6.80045
-6.96005
-7.11268
-7.25791
-7.39559
-7.52573
-7.64853
-7.76425
-7.87324
-7.97588
-8.07257
-8.1637
-8.24964
-8.33078
-8.40743
-8.4799
-8.54846
-8.61332
-8.67468
-8.73269
-8.78749
-8.83914
-5.1569
-5.18906
-5.27648
-5.39993
-5.5461
-5.71011
-5.88626
-6.0686
-6.25261
-6.43501
-6.61331
-6.78566
-6.95085
-7.10813
-7.25711
-7.39769
-7.52994
-7.6541
-7.7705
-7.87954
-7.98164
-8.07724
-8.16677
-8.25066
-8.32929
-8.40302
-8.47219
-8.53708
-8.59794
-8.65499
-8.7084
-8.7583
-8.80474
-5.02917
-5.06423
-5.15955
-5.29321
-5.45016
-5.62521
-5.81242
-6.00543
-6.1995
-6.39119
-6.57787
-6.75761
-6.92916
-7.09176
-7.24505
-7.38895
-7.5236
-7.64931
-7.76647
-7.87554
-7.97701
-8.07137
-8.15912
-8.24073
-8.31664
-8.38725
-8.45293
-8.51402
-8.57081
-8.62357
-8.67251
-8.71788
-8.7598
-4.87059
-4.91097
-5.02004
-5.17172
-5.34787
-5.54223
-5.7479
-5.95772
-6.16662
-6.37115
-6.56872
-6.75754
-6.9365
-7.105
-7.26283
-7.41006
-7.54697
-7.67397
-7.79155
-7.90029
-8.00073
-8.09346
-8.17903
-8.25795
-8.33073
-8.39782
-8.45963
-8.51652
-8.56884
-8.61688
-8.66087
-8.70105
-8.73753
-4.67371
-4.71883
-4.84189
-5.01083
-5.20472
-5.41767
-5.64231
-5.87047
-6.09648
-6.31653
-6.5278
-6.72837
-6.91711
-7.09354
-7.25755
-7.40938
-7.54946
-7.67837
-7.79677
-7.90536
-8.00484
-8.0959
-8.17919
-8.25532
-8.32485
-8.38832
-8.44619
-8.49889
-8.54682
-8.59033
-8.62975
-8.66542
-8.69755
-4.43338
-4.49313
-4.64896
-4.85594
-5.08561
-5.33098
-5.584
-5.83615
-6.08216
-6.3188
-6.54367
-6.75522
-6.9527
-7.13589
-7.30493
-7.46025
-7.60248
-7.73235
-7.85066
-7.95824
-8.05591
-8.14444
-8.22459
-8.29706
-8.36247
-8.42143
-8.47445
-8.52201
-8.56456
-8.60249
-8.63615
-8.66585
-8.69184
-4.12743
-4.18961
-4.36545
-4.5991
-4.85942
-5.13983
-5.42878
-5.71455
-5.99073
-6.2536
-6.50049
-6.72996
-6.94159
-7.13561
-7.31259
-7.47341
-7.6191
-7.75074
-7.86944
-7.97628
-8.07229
-8.15843
-8.23558
-8.30457
-8.3661
-8.42085
-8.4694
-8.51229
-8.55002
-8.58307
-8.61186
-8.63688
-8.65849
-3.76618
-3.88364
-4.14497
-4.44981
-4.76123
-5.08224
-5.40411
-5.71631
-6.01434
-6.2956
-6.55785
-6.79996
-7.02176
-7.22359
-7.40622
-7.57066
-7.71815
-7.84997
-7.96744
-8.07183
-8.16436
-8.24618
-8.31833
-8.38174
-8.43725
-8.48562
-8.5275
-8.56349
-8.59411
-8.61986
-8.64122
-8.65865
-8.67266
-3.237
-3.32828
-3.62725
-3.99983
-4.3921
-4.79669
-5.1931
-5.56752
-5.91634
-6.23763
-6.53036
-6.79505
-7.03311
-7.24624
-7.43632
-7.60529
-7.75504
-7.8874
-8.00409
-8.10669
-8.19667
-8.27533
-8.34384
-8.40326
-8.45448
-8.4983
-8.53538
-8.56634
-8.5917
-8.61199
-8.62773
-8.63963
-8.6484
-2.74191
-3.06451
-3.53297
-3.95283
-4.36438
-4.79485
-5.21602
-5.61443
-5.98848
-6.33452
-6.64957
-6.9332
-7.18627
-7.41027
-7.60723
-7.77944
-7.92929
-8.05913
-8.17116
-8.26745
-8.34986
-8.42005
-8.47949
-8.52943
-8.57095
-8.60496
-8.63218
-8.6532
-8.66844
-8.67832
-8.68303
-8.6834
-8.67953
-1.43927
-1.76125
-2.53496
-3.23564
-3.87355
-4.48183
-5.02848
-5.51329
-5.94662
-6.33232
-6.67378
-6.97531
-7.24075
-7.47343
-7.67649
-7.85282
-8.00513
-8.13597
-8.24772
-8.34257
-8.42254
-8.48944
-8.54487
-8.59023
-8.62668
-8.65522
-8.67655
-8.69118
-8.69927
-8.70095
-8.69538
-8.68385
-8.66164
-1.42686
-2.17208
-2.77725
-3.24532
-3.84679
-4.48215
-5.07481
-5.62734
-6.13355
-6.58293
-6.97457
-7.31198
-7.59937
-7.84162
-8.04401
-8.21175
-8.34967
-8.46213
-8.55301
-8.62569
-8.68306
-8.72763
-8.76148
-8.78638
-8.80379
-8.81484
-8.82039
-8.82086
-8.81618
-8.80541
-8.78578
-8.75421
-8.69699
4.82452
0.216365
-1.56834
-2.41998
-3.4235
-4.30133
-5.00406
-5.61457
-6.14923
-6.60848
-7.00134
-7.33606
-7.61904
-7.85651
-8.05441
-8.21813
-8.35253
-8.46194
-8.55016
-8.62051
-8.67584
-8.71859
-8.75086
-8.7744
-8.79071
-8.80101
-8.80641
-8.80758
-8.80565
-8.80008
-8.79371
-8.78123
-8.77443
-8.67125
-8.55289
-8.58978
-8.59774
-8.70822
-9.10268
-10.0785
-11.9858
-15.109
-19.441
-24.421
-28.8856
-31.6225
-32.1173
-30.3741
-26.2517
-19.5761
-11.3026
-3.49502
2.26298
5.57433
6.66598
5.67696
2.78407
-1.7044
-7.44598
-13.9813
-20.7925
-27.4033
-33.4447
-38.6164
-42.5904
-44.93
-45.209
-43.1331
-38.9618
-33.5546
-27.9082
-22.5482
-17.522
-12.7549
-8.32015
-4.43834
-1.27873
1.15519
2.97195
4.30415
5.26751
5.95312
6.42769
6.73675
6.90897
6.95702
6.88052
6.65533
6.23744
5.27215
2.81268
-2.33493
-10.4872
-20.5985
-30.9421
-39.5535
-44.7835
-45.7686
-42.2426
-34.4011
-23.9189
-13.7725
-6.26653
-1.58687
1.19443
2.89555
3.97281
4.66216
5.09809
5.36653
5.52535
5.61305
5.65418
5.66288
5.64521
5.60117
5.52487
5.40236
5.209
4.90423
4.40352
3.49336
1.60916
-2.17093
-8.32594
-15.8833
-22.4722
-25.2801
-23.3423
-17.1111
-10.6681
-3.40882
-2.73484
-8.75158
-8.58241
-8.57283
-8.57266
-8.71147
-9.18595
-10.2591
-12.2135
-15.2486
-19.2974
-23.8271
-27.8359
-30.2752
-30.5792
-28.6497
-24.4449
-18.1196
-10.7275
-3.94421
1.07409
4.02666
5.05274
4.27813
1.74886
-2.26578
-7.42989
-13.3557
-19.5998
-25.7371
-31.3948
-36.2392
-39.9249
-42.037
-42.223
-40.3014
-36.5798
-31.794
-26.6923
-21.681
-16.8649
-12.2812
-8.06268
-4.39854
-1.40217
0.938564
2.7153
4.03917
5.01089
5.71252
6.2056
6.53278
6.72134
6.78325
6.71762
6.49793
6.08732
5.20944
3.00052
-1.69551
-9.28239
-18.8445
-28.7137
-36.9766
-42.0307
-43.0261
-39.7021
-32.2668
-22.3974
-12.9363
-5.96565
-1.58114
1.08096
2.74989
3.82962
4.53379
4.98842
5.27609
5.45302
5.55684
5.61164
5.63136
5.62206
5.58376
5.51065
5.38898
5.19426
4.88697
4.38823
3.50695
1.73972
-1.75252
-7.42838
-14.4179
-20.5412
-23.1933
-21.5003
-15.7965
-9.96625
-3.08115
-2.77608
-8.70164
-8.61531
-8.63835
-8.70158
-8.91083
-9.45289
-10.5712
-12.5113
-15.4084
-19.1358
-23.1897
-26.6782
-28.6632
-28.622
-26.4731
-22.3336
-16.5855
-10.1934
-4.40376
-0.0575983
2.57324
3.51682
2.88857
0.702868
-2.86018
-7.50188
-12.8614
-18.5354
-24.1443
-29.3455
-33.8065
-37.1749
-39.0702
-39.2192
-37.5306
-34.2957
-30.083
-25.4469
-20.7422
-16.1451
-11.7824
-7.8081
-4.36612
-1.528
0.722377
2.45835
3.77161
4.74933
5.46499
5.97505
6.31927
6.5233
6.5986
6.54382
6.33149
5.92467
5.11572
3.14183
-1.09042
-8.05883
-16.9985
-26.3296
-34.2023
-39.0603
-40.062
-36.9516
-29.9662
-20.7788
-12.0645
-5.65908
-1.57738
0.964264
2.60031
3.68185
4.40054
4.87406
5.18144
5.37712
5.49771
5.5668
5.59807
5.59765
5.5656
5.49618
5.37588
5.18054
4.87173
4.37577
3.52231
1.86782
-1.34076
-6.53518
-12.9476
-18.5984
-21.0962
-19.6529
-14.4867
-9.26766
-2.77255
-2.79706
-8.77433
-8.74492
-8.78512
-8.89682
-9.17789
-9.79521
-10.9472
-12.8168
-15.4787
-18.7817
-22.2447
-25.0836
-26.5251
-26.1476
-23.9424
-20.1402
-15.1682
-9.77783
-4.87183
-1.10935
1.23251
2.10159
1.57073
-0.327733
-3.4728
-7.62265
-12.453
-17.5887
-22.6729
-27.3891
-31.4303
-34.4695
-36.1828
-36.3572
-34.9404
-32.1539
-28.41
-24.1509
-19.73
-15.3847
-11.2851
-7.57036
-4.34375
-1.6545
0.508844
2.20271
3.50253
4.48351
5.211
5.73638
6.09646
6.31511
6.40317
6.35904
6.15553
5.75214
4.99817
3.24547
-0.517472
-6.82432
-15.0754
-23.8088
-31.2526
-35.8969
-36.9035
-34.0245
-27.5398
-19.1016
-11.1818
-5.35583
-1.57627
0.84581
2.44798
3.53006
4.26265
4.75511
5.08267
5.29774
5.43581
5.51989
5.56336
5.57241
5.54708
5.48187
5.3636
5.16854
4.85938
4.36738
3.54157
1.99599
-0.935627
-5.6537
-11.491
-16.6726
-19.0224
-17.8323
-13.2057
-8.58533
-2.48775
-2.79737
-8.87286
-8.89481
-8.98477
-9.16825
-9.52148
-10.1754
-11.2835
-12.9767
-15.2861
-18.0383
-20.7982
-22.9644
-23.9451
-23.4299
-21.4385
-18.1799
-14.0074
-9.4938
-5.3333
-2.07819
-0.00705686
0.789585
0.337645
-1.31855
-4.08291
-7.76471
-12.093
-16.7305
-21.3346
-25.5979
-29.2368
-31.9717
-33.5393
-33.756
-32.5667
-30.1199
-26.7308
-22.7935
-18.6682
-14.616
-10.8062
-7.35125
-4.32888
-1.78031
0.298108
1.94841
3.23216
4.21375
4.95079
5.48968
5.8643
6.09663
6.19681
6.16313
5.96961
5.57151
4.86073
3.31164
0.0107068
-5.60863
-13.1159
-21.1949
-28.1686
-32.5767
-33.5842
-30.9584
-25.0282
-17.4007
-10.3081
-5.06331
-1.57984
0.724869
2.29237
3.37379
4.11976
4.63129
4.97957
5.21474
5.37104
5.47082
5.52713
5.54626
5.52826
5.46785
5.3523
5.15847
4.85022
4.36353
3.56525
2.1236
-0.542482
-4.79861
-10.0734
-14.7958
-17.0039
-16.0654
-11.9708
-7.92806
-2.22862
-2.77864
-9.00245
-9.07647
-9.21725
-9.45521
-9.85112
-10.5031
-11.5195
-12.9815
-14.8839
-17.0719
-19.2171
-20.8605
-21.5609
-21.0692
-19.3695
-16.6194
-13.1156
-9.31911
-5.78534
-2.97818
-1.16092
-0.439564
-0.818827
-2.26318
-4.68398
-7.92562
-11.7679
-15.926
-20.0859
-23.9482
-27.2407
-29.7177
-31.1546
-31.3792
-30.3279
-28.1131
-25.012
-21.3927
-17.5984
-13.8715
-10.3583
-7.15174
-4.31991
-1.90427
0.0909952
1.69622
2.96122
3.94062
4.68482
5.23532
5.62305
5.86812
5.97975
5.95625
5.77346
5.38366
4.70539
3.33442
0.471826
-4.45383
-11.1733
-18.5422
-25.0008
-29.1467
-30.1529
-27.8079
-22.487
-15.7196
-9.46591
-4.7885
-1.589
0.601739
2.13366
3.21304
3.97177
4.50251
4.87209
5.12813
5.30349
5.41977
5.48966
5.51953
5.50944
5.45444
5.34232
5.15067
4.84462
4.36455
3.59334
2.24902
-0.167507
-3.98405
-8.71784
-12.9975
-15.0719
-14.3797
-10.8
-7.30481
-1.99661
-2.74285
-9.10306
-9.21212
-9.388
-9.66116
-10.0797
-10.714
-11.6368
-12.8933
-14.4632
-16.2239
-17.913
-19.1708
-19.66
-19.1779
-17.7043
-15.3669
-12.4127
-9.21515
-6.21918
-3.80996
-2.22715
-1.58382
-1.9011
-3.15723
-5.27231
-8.11025
-11.4875
-15.1693
-18.8873
-22.3656
-25.3432
-27.5809
-28.8714
-29.0596
-28.0929
-26.0792
-23.2741
-20.0056
-16.5701
-13.174
-9.94442
-6.96865
-4.31436
-2.02542
-0.112133
1.4465
2.69015
3.66463
4.41352
4.97364
5.37299
5.6298
5.75224
5.73859
5.56695
5.18887
4.53632
3.31403
0.851647
-3.39742
-9.30365
-15.9143
-21.8132
-25.6703
-26.6747
-24.6412
-19.9797
-14.102
-8.67464
-4.53653
-1.60448
0.476225
1.97152
3.04743
3.81838
4.36854
4.76006
5.03784
5.23315
5.36679
5.45103
5.49234
5.49084
5.44191
5.33398
5.14552
4.843
4.3709
3.62634
2.37197
0.185731
-3.22061
-7.44406
-11.3047
-13.2547
-12.7984
-9.70727
-6.722
-1.79161
-2.69292
-9.19268
-9.33102
-9.53411
-9.82896
-10.2532
-10.8577
-11.6906
-12.7749
-14.0804
-15.4934
-16.8064
-17.7493
-18.0676
-17.6016
-16.3268
-14.3424
-11.8532
-9.16285
-6.62898
-4.57035
-3.20089
-2.63441
-2.90288
-3.99279
-5.83778
-8.31537
-11.2656
-14.4889
-17.7589
-20.8359
-23.482
-25.464
-26.5929
-26.7401
-25.8711
-24.0863
-21.6054
-18.7006
-15.6166
-12.5303
-9.56152
-6.7986
-4.31076
-2.14331
-0.310923
1.19973
2.41954
3.38634
4.13745
4.70517
5.11457
5.38208
5.51476
5.51062
5.35036
4.98692
4.35777
3.25496
1.14373
-2.47095
-7.5656
-13.3858
-18.6861
-22.2288
-23.2329
-21.5418
-17.5766
-12.5904
-7.95012
-4.31058
-1.6265
0.348212
1.80564
2.87664
3.6593
4.22918
4.64339
4.94384
5.16011
5.31206
5.41152
5.46504
5.47281
5.43064
5.32767
5.14341
4.84577
4.38304
3.66479
2.49272
0.515263
-2.51604
-6.26803
-9.73968
-11.5753
-11.3399
-8.7028
-6.1842
-1.61244
-2.6324
-9.26857
-9.4276
-9.64753
-9.95133
-10.3681
-10.9334
-11.6773
-12.6067
-13.685
-14.8167
-15.8397
-16.5464
-16.7401
-16.2946
-15.1884
-13.5025
-11.4064
-9.14605
-7.00866
-5.25769
-4.08132
-3.58856
-3.8186
-4.76324
-6.36919
-8.52905
-11.1
-13.9073
-16.7537
-19.4316
-21.7331
-23.4554
-24.4363
-24.561
-23.8058
-22.2544
-20.0836
-17.5123
-14.7438
-11.9357
-9.20433
-6.63885
-4.30817
-2.25766
-0.50516
0.956263
2.14986
3.10632
3.85719
4.43048
4.84836
5.12548
5.26786
5.27298
5.12417
4.77745
4.17284
3.164
1.34819
-1.69742
-6.01505
-11.0377
-15.7127
-18.92
-19.9277
-18.6033
-15.3476
-11.2198
-7.30198
-4.11158
-1.65501
0.217292
1.63547
2.70015
3.49413
4.08412
4.52188
4.84611
5.08445
5.25574
5.37138
5.43789
5.45569
5.42103
5.32382
5.14475
4.85335
4.40141
3.70925
2.61196
0.820683
-1.8746
-5.2001
-8.31768
-10.0496
-10.0159
-7.7921
-5.69345
-1.45679
-2.56538
-9.33161
-9.50513
-9.73499
-10.0396
-10.4405
-10.9618
-11.6205
-12.4134
-13.3039
-14.21
-15.0021
-15.5211
-15.6179
-15.1961
-14.2387
-12.8103
-11.049
-9.15359
-7.35609
-5.87405
-4.8709
-4.44778
-4.64722
-5.46549
-6.85969
-8.73818
-10.9751
-13.4162
-15.8878
-18.2075
-20.1959
-21.6842
-22.5302
-22.634
-21.9777
-20.627
-18.7207
-16.435
-13.9414
-11.3824
-8.86902
-6.48809
-4.30634
-2.36844
-0.694701
0.71644
1.88162
2.82521
3.57342
4.15027
4.57504
4.86068
5.01224
5.02655
4.88924
4.56049
3.98327
3.04963
1.47268
-1.08583
-4.69536
-8.94743
-12.9917
-15.853
-16.8685
-15.9195
-13.3523
-10.0123
-6.73295
-3.93849
-1.68991
0.0828122
1.46024
2.51736
3.32237
3.93301
4.39537
4.7446
5.00629
5.19809
5.33095
5.41131
5.43992
5.41353
5.3229
5.15003
4.86619
4.42646
3.76038
2.73088
1.10342
-1.29642
-4.24406
-7.04565
-8.68458
-8.83068
-6.97581
-5.24958
-1.32157
-2.49624
-9.38111
-9.56323
-9.79626
-10.0943
-10.4728
-10.9472
-11.5255
-12.1986
-12.9309
-13.6533
-14.2636
-14.6401
-14.6691
-14.2765
-13.4494
-12.2404
-10.7622
-9.17608
-7.66945
-6.4214
-5.57232
-5.21379
-5.38874
-6.09725
-7.30458
-8.93324
-10.8742
-12.9927
-15.1364
-17.1453
-18.8636
-20.1444
-20.8659
-20.9454
-20.3662
-19.1786
-17.4918
-15.4498
-13.1987
-10.8656
-8.55386
-6.34582
-4.30521
-2.47568
-0.879458
0.480543
1.61532
2.54363
3.28687
3.86528
4.29542
4.58848
4.74871
4.77232
4.64664
4.33665
3.78961
2.92026
1.53129
-0.6287
-3.62755
-7.17474
-10.6133
-13.1334
-14.1577
-13.5682
-11.6282
-8.97366
-6.23893
-3.7889
-1.73134
-0.056246
1.27898
2.32744
3.14341
3.77542
4.26361
4.6393
4.92577
5.13936
5.29058
5.38572
5.42598
5.40865
5.32543
5.15973
4.88472
4.45865
3.81884
2.85106
1.36645
-0.777727
-3.39692
-5.92177
-7.47831
-7.78116
-6.24999
-4.85044
-1.20329
-2.42939
-9.41713
-9.60311
-9.83422
-10.1208
-10.4734
-10.9011
-11.4056
-11.9747
-12.5754
-13.15
-13.6175
-13.8843
-13.8643
-13.502
-12.7887
-11.7675
-10.5301
-9.20663
-7.94852
-6.90307
-6.18982
-5.89017
-6.04547
-6.65851
-7.70123
-9.10847
-10.7863
-12.6181
-14.4712
-16.2059
-17.6853
-18.7821
-19.3922
-19.4465
-18.9277
-17.8742
-16.3738
-14.5445
-12.5102
-10.3833
-8.2581
-6.21184
-4.30481
-2.57945
-1.0594
0.24883
1.35142
2.26224
2.99831
3.57637
4.01039
4.30985
4.47824
4.5114
4.39773
4.10705
3.59213
2.78232
1.54144
-0.304057
-2.80417
-5.74611
-8.63801
-10.8393
-11.8666
-11.5912
-10.1816
-8.09295
-5.81079
-3.66002
-1.77994
-0.20126
1.09045
2.12938
2.95642
3.61079
4.12631
4.53017
4.84307
5.07989
5.25073
5.36167
5.41444
5.40697
5.33198
5.17439
4.90942
4.49838
3.8853
2.97427
1.61391
-0.311561
-2.64964
-4.93927
-6.42041
-6.85756
-5.60705
-4.49258
-1.09863
-2.36898
-9.44026
-9.62612
-9.85116
-10.1226
-10.447
-10.829
-11.2664
-11.7453
-12.2362
-12.6913
-13.0467
-13.2308
-13.1785
-12.8486
-12.2355
-11.3751
-10.3415
-9.24012
-8.19352
-7.32247
-6.72788
-6.48096
-6.62008
-7.15022
-8.04835
-9.26006
-10.7047
-12.2817
-13.876
-15.3664
-16.6331
-17.5667
-18.0774
-18.1057
-17.6348
-16.6946
-15.355
-13.7129
-11.8731
-9.93395
-7.9811
-6.08592
-4.30521
-2.67991
-1.23453
0.0215132
1.09039
1.9817
2.70855
3.28445
3.72094
4.02585
4.20194
4.24492
4.14399
3.8732
3.39155
2.63971
1.52008
-0.0809155
-2.19062
-4.64419
-7.0753
-8.99541
-10.0111
-9.98087
-8.9872
-7.34639
-5.43707
-3.54972
-1.83704
-0.353981
0.893122
1.92188
2.76038
3.43841
3.98311
4.41716
4.7584
5.0201
5.2119
5.33972
5.4059
5.40912
5.34318
5.19459
4.94076
4.54607
3.96035
3.10227
1.85051
0.111226
-1.98853
-4.07667
-5.494
-6.04539
-5.0371
-4.17205
-1.00487
-2.31855
-9.45081
-9.63342
-9.84936
-10.1033
-10.399
-10.7378
-11.115
-11.5167
-11.9167
-12.276
-12.5441
-12.6662
-12.5935
-12.2956
-11.7702
-11.0467
-10.1858
-9.27225
-8.40524
-7.68354
-7.19172
-6.99127
-7.11681
-7.57478
-8.34603
-9.38541
-10.6241
-11.9755
-13.3404
-14.6139
-15.6921
-16.4805
-16.9014
-16.9038
-16.4719
-15.6277
-14.4273
-12.9501
-11.2844
-9.51613
-7.72213
-5.96794
-4.30657
-2.77726
-1.40493
-0.201239
0.832654
1.70265
2.4184
2.99046
3.42812
3.73766
3.92109
3.97417
3.8869
3.63687
3.18928
2.49474
1.48051
0.0730604
-1.73547
-3.81152
-5.87633
-7.55947
-8.54368
-8.6825
-7.99621
-6.70485
-5.10746
-3.45735
-1.90459
-0.516536
0.685071
1.70329
2.55398
3.25738
3.83355
4.3002
4.67201
4.96049
5.1747
5.32057
5.40109
5.4158
5.35968
5.22092
4.97921
4.60207
4.04445
3.23664
2.08094
0.500635
-1.39763
-3.31643
-4.67855
-5.32775
-4.52968
-3.88536
-0.920463
-2.28082
-9.44997
-9.62688
-9.83155
-10.0667
-10.334
-10.6324
-10.9561
-11.2917
-11.6167
-11.8991
-12.0994
-12.1758
-12.0919
-11.8258
-11.3771
-10.7707
-10.0556
-9.30033
-8.58506
-7.99039
-7.5867
-7.42645
-7.54025
-7.93508
-8.59534
-9.48321
-10.5404
-11.6927
-12.855
-13.9366
-14.8479
-15.5071
-15.8476
-15.8252
-15.4246
-14.6622
-13.5826
-12.2507
-10.7411
-9.12826
-7.48061
-5.85785
-4.30914
-2.87179
-1.57073
-0.419311
0.578587
1.42573
2.12869
2.6954
3.13305
3.44649
3.63703
3.70055
3.62794
3.39985
2.9871
2.34934
1.43141
0.18457
-1.38625
-3.17052
-4.95017
-6.43676
-7.37168
-7.61506
-7.15388
-6.14273
-4.81543
-3.38379
-1.98508
-0.69148
0.463909
1.47151
2.33556
3.06659
3.67706
4.17921
4.58415
4.90161
5.13985
5.30501
5.4008
5.42776
5.38218
5.254
5.02527
4.66668
4.13792
3.37861
2.30938
0.86624
-0.86073
-2.6372
-3.95278
-4.68792
-4.07546
-3.63039
-0.845236
-2.25769
-9.43836
-9.60775
-9.79976
-10.0157
-10.2555
-10.517
-10.7937
-11.0733
-11.3366
-11.5578
-11.706
-11.7493
-11.6609
-11.4251
-11.0434
-10.5364
-9.94412
-9.32189
-8.73434
-8.24707
-7.91825
-7.7922
-7.89547
-8.235
-8.79807
-9.55306
-10.4508
-11.428
-12.4117
-13.3239
-14.0877
-14.6327
-14.9015
-14.8556
-14.4805
-13.788
-12.8136
-11.6102
-10.2406
-8.76901
-7.25607
-5.75571
-4.31321
-2.9638
-1.73211
-0.632643
0.328526
1.15152
1.84025
2.40026
2.83688
3.15363
3.35118
3.42556
3.36858
3.16378
2.78682
2.20539
1.37794
0.271592
-1.10214
-2.65092
-4.20078
-5.51992
-6.39618
-6.70463
-6.41874
-5.64444
-4.55849
-3.3309
-2.08138
-0.881893
0.226652
1.2239
2.10303
2.8646
3.51288
4.05405
4.49519
4.84408
5.10816
5.29391
5.4059
5.44584
5.41144
5.29448
5.07942
4.74019
4.24094
3.52893
2.53899
1.21608
-0.363607
-2.01976
-3.29764
-4.11178
-3.66773
-3.40682
-0.780353
-2.25051
-9.41753
-9.57815
-9.7567
-9.95345
-10.1674
-10.3954
-10.6312
-10.8635
-11.0763
-11.2488
-11.357
-11.3769
-11.2887
-11.0816
-10.758
-10.3355
-9.8465
-9.33563
-8.85499
-8.45783
-8.19194
-8.09435
-8.18778
-8.47866
-8.95675
-9.59552
-10.3535
-11.1771
-12.0039
-12.7673
-13.4013
-13.8455
-14.0505
-13.9828
-13.6287
-12.9964
-12.1138
-11.0243
-9.78031
-8.43712
-7.04807
-5.6616
-4.31912
-3.05369
-1.88931
-0.841239
0.0827427
0.88056
1.55384
2.10604
2.54078
2.86039
3.06497
3.15075
3.1104
2.93018
2.59005
2.06453
1.32305
0.343966
-0.858345
-2.20666
-3.56081
-4.7331
-5.55191
-5.90837
-5.76936
-5.20261
-4.33607
-3.30085
-2.19681
-1.09152
-0.0304268
0.957104
1.85372
2.6496
3.34007
3.92449
4.40553
4.78862
5.08055
5.28827
5.41739
5.47095
5.44824
5.343
5.14215
4.82285
4.35354
3.68795
2.77189
1.55625
0.104669
-1.44911
-2.69853
-3.58942
-3.30309
-3.21612
-0.728104
-2.26065
-9.38814
-9.53917
-9.70398
-9.88215
-10.072
-10.2701
-10.4704
-10.663
-10.8347
-10.9688
-11.0467
-11.0505
-10.9657
-10.7852
-10.512
-10.1609
-9.75829
-9.34022
-8.9486
-8.62648
-8.41289
-8.3385
-8.42243
-8.67042
-9.07411
-9.61136
-10.2473
-10.9365
-11.626
-12.2591
-12.7793
-13.135
-13.2837
-13.1962
-12.8596
-12.2794
-11.4774
-10.4889
-9.35784
-8.13139
-6.85626
-5.57566
-4.32728
-3.14188
-2.04263
-1.04517
-0.158566
0.613331
1.27021
1.81368
2.24588
2.56808
2.77984
2.87765
2.85497
2.70059
2.39821
1.92815
1.26853
0.406124
-0.643537
-1.81625
-2.99957
-4.04337
-4.8108
-5.2067
-5.19444
-4.81243
-4.1478
-3.29602
-2.33527
-1.32496
-0.311987
0.666912
1.58427
2.41929
3.15745
3.79029
4.31559
4.73609
5.05812
5.28924
5.43634
5.50404
5.49341
5.40022
5.21391
4.91488
4.47567
3.85563
3.00907
1.89069
0.551475
-0.915185
-2.14601
-3.11532
-2.981
-3.06115
-0.691793
-2.29001
-9.35213
-9.49314
-9.64432
-9.80479
-9.97255
-10.1441
-10.3138
-10.4733
-10.6115
-10.7153
-10.7705
-10.7636
-10.6842
-10.5279
-10.298
-10.007
-9.67647
-9.33536
-9.01737
-8.75718
-8.58651
-8.53049
-8.60504
-8.81503
-9.15364
-9.60236
-10.1319
-10.704
-11.2738
-11.7932
-12.2141
-12.4925
-12.5918
-12.4865
-12.1649
-11.63
-10.899
-10.0005
-8.97099
-7.85071
-6.68029
-5.49807
-4.3381
-3.22885
-2.19245
-1.24461
-0.395293
0.350217
0.989989
1.52408
1.95329
2.27797
2.49722
2.60777
2.60385
2.4765
2.21269
1.79754
1.21589
0.460676
-0.452447
-1.47067
-2.5049
-3.43661
-4.15734
-4.58582
-4.68446
-4.46933
-3.9934
-3.31922
-2.50146
-1.58788
-0.623887
0.347964
1.29039
2.1708
2.96344
3.65116
4.22581
4.68748
5.04209
5.29809
5.46396
5.54618
5.54781
5.46681
5.2952
5.01654
4.60733
4.03186
3.25096
2.22153
0.981323
-0.411877
-1.63457
-2.68672
-2.70275
-2.94594
-0.676
-2.34137
-9.30974
-9.44058
-9.5785
-9.72239
-9.87011
-10.0183
-10.1618
-10.2936
-10.4048
-10.4849
-10.5231
-10.5095
-10.4368
-10.3022
-10.1093
-9.86873
-9.59794
-9.32028
-9.06276
-8.85322
-8.71725
-8.67532
-8.74045
-8.9167
-9.19837
-9.57003
-10.0071
-10.4775
-10.9433
-11.364
-11.6986
-11.9098
-11.9661
-11.8454
-11.5369
-11.042
-10.3738
-9.55565
-8.61766
-7.59401
-6.51986
-5.429
-4.35205
-3.31514
-2.33921
-1.4398
-0.627435
0.0914971
0.713744
1.23804
1.66403
1.99127
2.21845
2.34255
2.35854
2.25934
2.03478
1.67391
1.16668
0.510257
-0.280348
-1.16233
-2.06577
-2.89876
-3.57686
-4.03289
-4.23044
-4.16892
-3.87284
-3.3738
-2.70112
-1.88735
-0.973522
-0.00652759
0.966696
1.90049
2.75626
3.50666
4.13678
4.64397
5.0339
5.31628
5.50157
5.59847
5.61229
5.54338
5.38636
5.12798
4.74844
4.21642
3.49778
2.5499
1.39731
0.0652867
-1.1601
-2.30207
-2.47106
-2.87609
-0.687225
-2.4186
-9.26358
-9.38435
-9.50958
-9.63808
-9.76773
-9.89539
-10.0166
-10.1254
-10.2146
-10.2761
-10.3018
-10.2842
-10.2184
-10.1031
-9.94159
-9.74293
-9.52135
-9.2956
-9.08728
-8.91866
-8.81028