/*--------------------------------*- C++ -*----------------------------------*\
| =========                 |                                                 |
| \\      /  F ield         | OpenFOAM: The Open Source CFD Toolbox           |
|  \\    /   O peration     | Version:  2.1.1                                 |
|   \\  /    A nd           | Web:      www.OpenFOAM.org                      |
|    \\/     M anipulation  |                                                 |
\*---------------------------------------------------------------------------*/
FoamFile
{
    version     2.0;
    format      ascii;
    class       surfaceScalarField;
    location    "0.145";
    object      phi;
}
// * * * * * * * * * * * * * * * * * * * * * * * * * * * * * * * * * * * * * //

dimensions      [0 3 -1 0 0 0 0];

internalField   nonuniform List<scalar> 
13452
(
4.59972e-05
2.24901e-05
2.96593e-05
1.63379e-05
2.11795e-05
8.47979e-06
1.72741e-05
3.90538e-06
1.56272e-05
1.64687e-06
1.48141e-05
8.13117e-07
1.42981e-05
5.16038e-07
1.39022e-05
3.95914e-07
1.35662e-05
3.35935e-07
1.32747e-05
2.91506e-07
1.30229e-05
2.5179e-07
1.28068e-05
2.16129e-07
1.26219e-05
1.8494e-07
1.24636e-05
1.58293e-07
1.23277e-05
1.35836e-07
1.22107e-05
1.17018e-07
1.21095e-05
1.01277e-07
1.20213e-05
8.81311e-08
1.19441e-05
7.71981e-08
1.18759e-05
6.81947e-08
1.1815e-05
6.09239e-08
1.17597e-05
5.52633e-08
1.17086e-05
5.11501e-08
1.166e-05
4.85835e-08
1.16124e-05
4.75754e-08
1.15642e-05
4.82755e-08
1.15137e-05
5.04957e-08
1.14585e-05
5.5141e-08
1.1399e-05
5.9516e-08
1.13275e-05
7.15242e-08
1.12614e-05
6.61057e-08
1.11443e-05
1.17043e-07
-6.4586e-08
1.12089e-05
7.49116e-05
1.80224e-05
7.0408e-05
2.08415e-05
6.33136e-05
1.55742e-05
5.66536e-05
1.05653e-05
5.1532e-05
6.76847e-06
4.78718e-05
4.47334e-06
4.52471e-05
3.1408e-06
4.33157e-05
2.32731e-06
4.18445e-05
1.80711e-06
4.06836e-05
1.45237e-06
3.97407e-05
1.19471e-06
3.89577e-05
9.99137e-07
3.82966e-05
8.46053e-07
3.77314e-05
7.23498e-07
3.72436e-05
6.23659e-07
3.68194e-05
5.41184e-07
3.64484e-05
4.72291e-07
3.61222e-05
4.14267e-07
3.58343e-05
3.65155e-07
3.55789e-05
3.23544e-07
3.53514e-05
2.8842e-07
3.51476e-05
2.59079e-07
3.49637e-05
2.35049e-07
3.47962e-05
2.16059e-07
3.46419e-05
2.01968e-07
3.44973e-05
1.92833e-07
3.43593e-05
1.88531e-07
3.42246e-05
1.8976e-07
3.40898e-05
1.94326e-07
3.39542e-05
2.07191e-07
3.38125e-05
2.07806e-07
3.37053e-05
2.24174e-07
1.54107e-07
3.34866e-05
7.85207e-05
1.19583e-05
8.23324e-05
1.70297e-05
8.29867e-05
1.49198e-05
8.14661e-05
1.2086e-05
7.89371e-05
9.2974e-06
7.62441e-05
7.16635e-06
7.37189e-05
5.66604e-06
7.14649e-05
4.58127e-06
6.94956e-05
3.77646e-06
6.77864e-05
3.16157e-06
6.6304e-05
2.6771e-06
6.50163e-05
2.28681e-06
6.38948e-05
1.96755e-06
6.2915e-05
1.70329e-06
6.20563e-05
1.48241e-06
6.13012e-05
1.29629e-06
6.06351e-05
1.13838e-06
6.00456e-05
1.00371e-06
5.95224e-05
8.8843e-07
5.90563e-05
7.89614e-07
5.86397e-05
7.05013e-07
5.82658e-05
6.32939e-07
5.79287e-05
5.72155e-07
5.7623e-05
5.21798e-07
5.73436e-05
4.81306e-07
5.70861e-05
4.5042e-07
5.68457e-05
4.28926e-07
5.66182e-05
4.17195e-07
5.63984e-05
4.14121e-07
5.61835e-05
4.22175e-07
5.59588e-05
4.32483e-07
5.57256e-05
4.57354e-07
4.76248e-07
5.54035e-05
7.81462e-05
8.33867e-06
8.19214e-05
1.32546e-05
8.46153e-05
1.22259e-05
8.62348e-05
1.04665e-05
8.69088e-05
8.62346e-06
8.699e-05
7.08517e-06
8.6721e-05
5.935e-06
8.62444e-05
5.05783e-06
8.56521e-05
4.36885e-06
8.49997e-05
3.81388e-06
8.43222e-05
3.35461e-06
8.36423e-05
2.96679e-06
8.29754e-05
2.63435e-06
8.23325e-05
2.34625e-06
8.17198e-05
2.09514e-06
8.11408e-05
1.8753e-06
8.0597e-05
1.68215e-06
8.00887e-05
1.51204e-06
7.9615e-05
1.36208e-06
7.91747e-05
1.22995e-06
7.87658e-05
1.11385e-06
7.83864e-05
1.01238e-06
7.8034e-05
9.24519e-07
7.77063e-05
8.4957e-07
7.74005e-05
7.87111e-07
7.71139e-05
7.37013e-07
7.68435e-05
6.99295e-07
7.65863e-05
6.74416e-07
7.6338e-05
6.62365e-07
7.60953e-05
6.64925e-07
7.5847e-05
6.80787e-07
7.55877e-05
7.16579e-07
7.81491e-07
7.52825e-05
7.8991e-05
6.00357e-06
8.15891e-05
1.06565e-05
8.35139e-05
1.0301e-05
8.49553e-05
9.02518e-06
8.59704e-05
7.60838e-06
8.67076e-05
6.34796e-06
8.7269e-05
5.37356e-06
8.77025e-05
4.6243e-06
8.80396e-05
4.0318e-06
8.83013e-05
3.55215e-06
8.85021e-05
3.15385e-06
8.86531e-05
2.81582e-06
8.87623e-05
2.5251e-06
8.88359e-05
2.27261e-06
8.88801e-05
2.05103e-06
8.89002e-05
1.85515e-06
8.89012e-05
1.68116e-06
8.8887e-05
1.52619e-06
8.88611e-05
1.38799e-06
8.88262e-05
1.26488e-06
8.87845e-05
1.15556e-06
8.87378e-05
1.0591e-06
8.86874e-05
9.74894e-07
8.86344e-05
9.0259e-07
8.85794e-05
8.42098e-07
8.85228e-05
7.93587e-07
8.84647e-05
7.57426e-07
8.84047e-05
7.3436e-07
8.83419e-05
7.25228e-07
8.82748e-05
7.31953e-07
8.81989e-05
7.56739e-07
8.81101e-05
8.05413e-07
8.8994e-07
8.80016e-05
8.04626e-05
4.38691e-06
8.25031e-05
8.61599e-06
8.39866e-05
8.81749e-06
8.50428e-05
7.96903e-06
8.57616e-05
6.8896e-06
8.62715e-05
5.83804e-06
8.66738e-05
4.97121e-06
8.70157e-05
4.2824e-06
8.73203e-05
3.72728e-06
8.75989e-05
3.27354e-06
8.78565e-05
2.89626e-06
8.80954e-05
2.57686e-06
8.83179e-05
2.30258e-06
8.85259e-05
2.06465e-06
8.87203e-05
1.85661e-06
8.8902e-05
1.67349e-06
8.90716e-05
1.51153e-06
8.923e-05
1.36784e-06
8.93778e-05
1.24017e-06
8.95158e-05
1.12682e-06
8.96449e-05
1.02652e-06
8.97656e-05
9.38347e-07
8.98788e-05
8.61689e-07
8.99852e-05
7.96209e-07
9.00855e-05
7.41821e-07
9.01804e-05
6.98693e-07
9.02706e-05
6.67227e-07
9.03568e-05
6.48168e-07
9.04395e-05
6.42548e-07
9.05192e-05
6.522e-07
9.05963e-05
6.79707e-07
9.06718e-05
7.29842e-07
8.08805e-07
9.0753e-05
8.22336e-05
3.25187e-06
8.38922e-05
6.95734e-06
8.51774e-05
7.53234e-06
8.61077e-05
7.0387e-06
8.67455e-05
6.25186e-06
8.71807e-05
5.40278e-06
8.75013e-05
4.65063e-06
8.77565e-05
4.02719e-06
8.7973e-05
3.5108e-06
8.81661e-05
3.08045e-06
8.83439e-05
2.71844e-06
8.85107e-05
2.41004e-06
8.86689e-05
2.14438e-06
8.88199e-05
1.91361e-06
8.89648e-05
1.71178e-06
8.9104e-05
1.53429e-06
8.92379e-05
1.37757e-06
8.93669e-05
1.23884e-06
8.94912e-05
1.11592e-06
8.96109e-05
1.00711e-06
8.97263e-05
9.11145e-07
8.98376e-05
8.27068e-07
8.9945e-05
7.5423e-07
9.0049e-05
6.92246e-07
9.01498e-05
6.40968e-07
9.0248e-05
6.0049e-07
9.03441e-05
5.71136e-07
9.04387e-05
5.53537e-07
9.05327e-05
5.48627e-07
9.06269e-05
5.57926e-07
9.07232e-05
5.83491e-07
9.08242e-05
6.28783e-07
6.96319e-07
9.09367e-05
8.4216e-05
2.45138e-06
8.55483e-05
5.62506e-06
8.66678e-05
6.41282e-06
8.7522e-05
6.18455e-06
8.81439e-05
5.62993e-06
8.85865e-05
4.96018e-06
8.89151e-05
4.32206e-06
8.91733e-05
3.769e-06
8.93867e-05
3.29737e-06
8.95714e-05
2.89576e-06
8.97369e-05
2.55293e-06
8.98888e-05
2.25816e-06
9.00304e-05
2.00271e-06
9.01641e-05
1.7799e-06
9.02914e-05
1.58455e-06
9.04131e-05
1.41252e-06
9.05302e-05
1.26052e-06
9.06431e-05
1.12595e-06
9.07522e-05
1.00676e-06
9.0858e-05
9.01313e-07
9.09608e-05
8.08374e-07
9.10609e-05
7.27006e-07
9.11585e-05
6.56547e-07
9.12542e-05
5.96578e-07
9.13483e-05
5.469e-07
9.14412e-05
5.07531e-07
9.15337e-05
4.78699e-07
9.16263e-05
4.60878e-07
9.17202e-05
4.54795e-07
9.18165e-05
4.61555e-07
9.19175e-05
4.82533e-07
9.20264e-05
5.19856e-07
5.74021e-07
9.21487e-05
8.63714e-05
1.87869e-06
8.7439e-05
4.55751e-06
8.84078e-05
5.44397e-06
8.9182e-05
5.41041e-06
8.97746e-05
5.03731e-06
9.02163e-05
4.51843e-06
9.05544e-05
3.98402e-06
9.08252e-05
3.49822e-06
9.10512e-05
3.07133e-06
9.12471e-05
2.69989e-06
9.1422e-05
2.37801e-06
9.15817e-05
2.09849e-06
9.17298e-05
1.85462e-06
9.18687e-05
1.64092e-06
9.20003e-05
1.45296e-06
9.21258e-05
1.28708e-06
9.2246e-05
1.14031e-06
9.23617e-05
1.01026e-06
9.24734e-05
8.9501e-07
9.25817e-05
7.93013e-07
9.2687e-05
7.03071e-07
9.27898e-05
6.24264e-07
9.28904e-05
5.55915e-07
9.29894e-05
4.97568e-07
9.30873e-05
4.48962e-07
9.31848e-05
4.10018e-07
9.32827e-05
3.80833e-07
9.33819e-05
3.61683e-07
9.34837e-05
3.53009e-07
9.35898e-05
3.55453e-07
9.37026e-05
3.69699e-07
9.38258e-05
3.96735e-07
4.35864e-07
9.39639e-05
8.86669e-05
1.46179e-06
8.95224e-05
3.70203e-06
9.03577e-05
4.60865e-06
9.10563e-05
4.71183e-06
9.16153e-05
4.47833e-06
9.20499e-05
4.08382e-06
9.2392e-05
3.64188e-06
9.26708e-05
3.21941e-06
9.29058e-05
2.83632e-06
9.31102e-05
2.4955e-06
9.32929e-05
2.19534e-06
9.34596e-05
1.93177e-06
9.36142e-05
1.70006e-06
9.37592e-05
1.49594e-06
9.38964e-05
1.31572e-06
9.40272e-05
1.15628e-06
9.41526e-05
1.01495e-06
9.42733e-05
8.89578e-07
9.43899e-05
7.78354e-07
9.45031e-05
6.79828e-07
9.46133e-05
5.92834e-07
9.47211e-05
5.16457e-07
9.4827e-05
4.50001e-07
9.49317e-05
3.92959e-07
9.50356e-05
3.4499e-07
9.51397e-05
3.05904e-07
9.52449e-05
2.75637e-07
9.53524e-05
2.5424e-07
9.54635e-05
2.41843e-07
9.55804e-05
2.38636e-07
9.57054e-05
2.44685e-07
9.5842e-05
2.60091e-07
2.83429e-07
9.59945e-05
9.10807e-05
1.15244e-06
9.17681e-05
3.01455e-06
9.24873e-05
3.88947e-06
9.3117e-05
4.08217e-06
9.36414e-05
3.95393e-06
9.40648e-05
3.66034e-06
9.44075e-05
3.29921e-06
9.46918e-05
2.93512e-06
9.49342e-05
2.59388e-06
9.51465e-05
2.28324e-06
9.53368e-05
2.00506e-06
9.55106e-05
1.7579e-06
9.56719e-05
1.53885e-06
9.58231e-05
1.34474e-06
9.59661e-05
1.17267e-06
9.61024e-05
1.01996e-06
9.62331e-05
8.84328e-07
9.63588e-05
7.63787e-07
9.64805e-05
6.56687e-07
9.65987e-05
5.61652e-07
9.6714e-05
4.77554e-07
9.68269e-05
4.03481e-07
9.69382e-05
3.38712e-07
9.70485e-05
2.82683e-07
9.71585e-05
2.34968e-07
9.72692e-05
1.95253e-07
9.73815e-05
1.63307e-07
9.74968e-05
1.38957e-07
9.76166e-05
1.2203e-07
9.77429e-05
1.12318e-07
9.78782e-05
1.09395e-07
9.80256e-05
1.12713e-07
1.20454e-07
9.81886e-05
9.3599e-05
9.18087e-07
9.41543e-05
2.4593e-06
9.47727e-05
3.27098e-06
9.53391e-05
3.51582e-06
9.58287e-05
3.4643e-06
9.62385e-05
3.25052e-06
9.65796e-05
2.95812e-06
9.68682e-05
2.64655e-06
9.71176e-05
2.34449e-06
9.73377e-05
2.06313e-06
9.75359e-05
1.8069e-06
9.77173e-05
1.57649e-06
9.78856e-05
1.3705e-06
9.80435e-05
1.18685e-06
9.81929e-05
1.02329e-06
9.83352e-05
8.77653e-07
9.84716e-05
7.47959e-07
9.86029e-05
6.32448e-07
9.873e-05
5.29602e-07
9.88535e-05
4.38124e-07
9.89742e-05
3.56923e-07
9.90926e-05
2.8509e-07
9.92094e-05
2.21873e-07
9.93254e-05
1.66652e-07
9.94415e-05
1.18913e-07
9.95585e-05
7.82195e-08
9.96776e-05
4.41804e-08
9.98002e-05
1.64122e-08
9.99277e-05
-5.51346e-09
0.000100062
-2.21296e-08
0.000100206
-3.42184e-08
0.000100361
-4.27599e-08
-4.97299e-08
0.000100531
9.62134e-05
7.36758e-07
9.6665e-05
2.00768e-06
9.71972e-05
2.73882e-06
9.77062e-05
3.00683e-06
9.8162e-05
3.00844e-06
9.85565e-05
2.8561e-06
9.88938e-05
2.6208e-06
9.91848e-05
2.35551e-06
9.94399e-05
2.08943e-06
9.96671e-05
1.83587e-06
9.9873e-05
1.60109e-06
0.000100062
1.3874e-06
0.000100238
1.19469e-06
0.000100403
1.02178e-06
0.000100559
8.67053e-07
0.000100708
7.28797e-07
0.000100851
6.05323e-07
0.000100988
4.95077e-07
0.000101121
3.96668e-07
0.00010125
3.08876e-07
0.000101376
2.30645e-07
0.0001015
1.61067e-07
0.000101623
9.93609e-08
0.000101745
4.48513e-08
0.000101867
-3.05935e-09
0.00010199
-4.49176e-08
0.000102115
-8.12546e-08
0.000102244
-1.12626e-07
0.000102379
-1.39669e-07
0.00010252
-1.6315e-07
0.000102669
-1.84085e-07
0.00010283
-2.03707e-07
-2.23975e-07
0.000103005
9.8919e-05
5.93487e-07
9.92896e-05
1.63705e-06
9.97485e-05
2.27994e-06
0.000100206
2.54939e-06
0.00010063
2.58486e-06
0.000101007
2.47816e-06
0.000101339
2.28902e-06
0.000101631
2.0635e-06
0.000101891
1.82972e-06
0.000102125
1.60203e-06
0.000102338
1.38785e-06
0.000102535
1.19063e-06
0.000102718
1.01126e-06
0.000102891
8.49304e-07
0.000103054
7.03708e-07
0.00010321
5.73134e-07
0.000103359
4.56171e-07
0.000103503
3.5145e-07
0.000103642
2.577e-07
0.000103777
1.73773e-07
0.000103909
9.86451e-08
0.000104038
3.14098e-08
0.000104166
-2.87388e-08
0.000104294
-8.25243e-08
0.000104421
-1.30614e-07
0.00010455
-1.73648e-07
0.000104681
-2.12272e-07
0.000104816
-2.47175e-07
0.000104955
-2.79139e-07
0.000105101
-3.09081e-07
0.000105255
-3.3814e-07
0.000105419
-3.67659e-07
-3.99472e-07
0.000105595
0.000101713
4.77961e-07
0.000102021
1.32964e-06
0.000102418
1.88265e-06
0.00010283
2.13772e-06
0.000103223
2.19143e-06
0.000103584
2.11691e-06
0.000103909
1.96388e-06
0.000104201
1.77171e-06
0.000104465
1.56637e-06
0.000104704
1.36234e-06
0.000104925
1.16763e-06
0.000105129
9.86385e-07
0.00010532
8.20245e-07
0.0001055
6.69354e-07
0.00010567
5.33099e-07
0.000105833
4.10472e-07
0.000105989
3.00301e-07
0.000106139
2.01378e-07
0.000106284
1.12542e-07
0.000106425
3.27069e-08
0.000106563
-3.91208e-08
0.000106698
-1.03844e-07
0.000106832
-1.62287e-07
0.000106964
-2.15212e-07
0.000107097
-2.63344e-07
0.000107231
-3.07393e-07
0.000107367
-3.48087e-07
0.000107506
-3.86202e-07
0.000107649
-4.22609e-07
0.000107798
-4.58296e-07
0.000107955
-4.94436e-07
0.000108119
-5.32374e-07
-5.73738e-07
0.000108294
0.000104595
3.82967e-07
0.000104853
1.07157e-06
0.000105199
1.53665e-06
0.000105571
1.76617e-06
0.000105937
1.82562e-06
0.000106282
1.77195e-06
0.0001066
1.64607e-06
0.00010689
1.48107e-06
0.000107156
1.3002e-06
0.000107401
1.1174e-06
0.000107628
9.4077e-07
0.00010784
7.74832e-07
0.000108038
6.21669e-07
0.000108226
4.81854e-07
0.000108404
3.55107e-07
0.000108574
2.40682e-07
0.000108736
1.37596e-07
0.000108893
4.47776e-08
0.000109044
-3.88453e-08
0.000109191
-1.14302e-07
0.000109335
-1.82557e-07
0.000109475
-2.44509e-07
0.000109614
-3.00994e-07
0.000109752
-3.52803e-07
0.000109889
-4.00696e-07
0.000110027
-4.45431e-07
0.000110167
-4.87784e-07
0.000110309
-5.28577e-07
0.000110455
-5.68712e-07
0.000110606
-6.09188e-07
0.000110763
-6.51139e-07
0.000110926
-6.95837e-07
-7.44668e-07
0.000111097
0.000107566
3.03356e-07
0.000107785
8.51987e-07
0.000108089
1.23295e-06
0.000108426
1.42931e-06
0.000108767
1.48461e-06
0.000109096
1.44234e-06
0.000109407
1.33565e-06
0.000109696
1.19203e-06
0.000109964
1.03174e-06
0.000110214
8.67645e-07
0.000110447
7.07591e-07
0.000110666
5.56142e-07
0.000110872
4.15603e-07
0.000111067
2.86801e-07
0.000111252
1.69686e-07
0.000111429
6.36949e-08
0.000111599
-3.20117e-08
0.000111762
-1.184e-07
0.00011192
-1.96469e-07
0.000112073
-2.67204e-07
0.000112222
-3.31544e-07
0.000112368
-3.9038e-07
0.000112511
-4.44554e-07
0.000112653
-4.94868e-07
0.000112795
-5.42105e-07
0.000112936
-5.87041e-07
0.000113079
-6.30469e-07
0.000113224
-6.73219e-07
0.000113371
-7.16178e-07
0.000113522
-7.60303e-07
0.000113678
-8.06641e-07
0.000113838
-8.56334e-07
-9.10509e-07
0.000114004
0.000110625
2.3538e-07
0.000110814
6.62388e-07
0.000111084
9.63761e-07
0.000111391
1.12195e-06
0.00011171
1.16538e-06
0.000112026
1.12665e-06
0.000112329
1.03227e-06
0.000112617
9.04709e-07
0.000112887
7.61228e-07
0.000113141
6.13332e-07
0.000113381
4.68272e-07
0.000113607
3.3041e-07
0.00011382
2.02063e-07
0.000114023
8.41624e-08
0.000114216
-2.32245e-08
0.0001144
-1.20549e-07
0.000114576
-2.08559e-07
0.000114746
-2.8815e-07
0.00011491
-3.60271e-07
0.000115069
-4.25872e-07
0.000115223
-4.85873e-07
0.000115374
-5.41155e-07
0.000115522
-5.92556e-07
0.000115668
-6.40881e-07
0.000115813
-6.86912e-07
0.000115957
-7.31422e-07
0.000116102
-7.75195e-07
0.000116247
-8.19031e-07
0.000116395
-8.63769e-07
0.000116545
-9.10287e-07
0.000116698
-9.59511e-07
0.000116854
-1.01243e-06
-1.06991e-06
0.000117013
0.000113775
1.76236e-07
0.000113941
4.96034e-07
0.000114182
7.22359e-07
0.000114465
8.39175e-07
0.000114766
8.64738e-07
0.000115069
8.23083e-07
0.000115367
7.35053e-07
0.000115653
6.18774e-07
0.000115925
4.8859e-07
0.000116184
3.54451e-07
0.00011643
2.22801e-07
0.000116662
9.75936e-08
0.000116883
-1.90237e-08
0.000117094
-1.26156e-07
0.000117294
-2.23719e-07
0.000117486
-3.12131e-07
0.000117669
-3.92097e-07
0.000117846
-4.6448e-07
0.000118016
-5.30201e-07
0.00011818
-5.90187e-07
0.000118339
-6.45346e-07
0.000118495
-6.96544e-07
0.000118647
-7.44611e-07
0.000118796
-7.90339e-07
0.000118944
-8.34497e-07
0.00011909
-8.77834e-07
0.000119236
-9.21096e-07
0.000119382
-9.65033e-07
0.000119529
-1.01041e-06
0.000119677
-1.05799e-06
0.000119826
-1.10857e-06
0.000119976
-1.16296e-06
-1.22178e-06
0.000120128
0.000117017
1.23777e-07
0.000117165
3.47528e-07
0.000117385
5.02917e-07
0.000117648
5.76358e-07
0.000117933
5.79397e-07
0.000118227
5.29493e-07
0.000118519
4.42751e-07
0.000118804
3.33516e-07
0.000119079
2.13415e-07
0.000119343
9.07511e-08
0.000119595
-2.89989e-08
0.000119835
-1.42455e-07
0.000120064
-2.47788e-07
0.000120282
-3.44266e-07
0.00012049
-4.31886e-07
0.000120689
-5.111e-07
0.000120879
-5.82629e-07
0.000121062
-6.47335e-07
0.000121238
-7.06135e-07
0.000121408
-7.59951e-07
0.000121572
-8.09677e-07
0.000121732
-8.5617e-07
0.000121887
-9.00244e-07
0.00012204
-9.42669e-07
0.000122189
-9.84185e-07
0.000122337
-1.0255e-06
0.000122483
-1.06731e-06
0.000122629
-1.11029e-06
0.000122773
-1.1551e-06
0.000122918
-1.20241e-06
0.000123062
-1.25285e-06
0.000123206
-1.30707e-06
-1.36548e-06
0.00012335
0.000120353
7.63053e-08
0.000120489
2.12457e-07
0.000120691
3.0034e-07
0.000120938
3.29098e-07
0.000121212
3.05967e-07
0.000121498
2.43432e-07
0.000121787
1.53679e-07
0.000122073
4.77879e-08
0.000122351
-6.51106e-08
0.00012262
-1.78382e-07
0.000122879
-2.87625e-07
0.000123127
-3.90159e-07
0.000123363
-4.84599e-07
0.00012359
-5.70486e-07
0.000123806
-6.47988e-07
0.000124012
-7.17662e-07
0.00012421
-7.80292e-07
0.000124399
-8.36777e-07
0.000124581
-8.88054e-07
0.000124757
-9.35052e-07
0.000124925
-9.78665e-07
0.000125089
-1.01974e-06
0.000125248
-1.05906e-06
0.000125403
-1.09738e-06
0.000125554
-1.13539e-06
0.000125702
-1.17376e-06
0.000125848
-1.21309e-06
0.000125992
-1.254e-06
0.000126133
-1.29703e-06
0.000126274
-1.34273e-06
0.000126413
-1.39159e-06
0.00012655
-1.44407e-06
-1.50041e-06
0.000126684
0.000123787
3.24313e-08
0.000123912
8.71215e-08
0.000124103
1.10086e-07
0.000124339
9.31861e-08
0.000124604
4.09538e-08
0.000124885
-3.78353e-08
0.000125173
-1.34215e-07
0.00012546
-2.39922e-07
0.000125743
-3.48112e-07
0.000126019
-4.53798e-07
0.000126285
-5.53727e-07
0.000126541
-6.4602e-07
0.000126786
-7.2984e-07
0.000127021
-8.05101e-07
0.000127245
-8.7222e-07
0.000127459
-9.31922e-07
0.000127664
-9.85106e-07
0.00012786
-1.03274e-06
0.000128048
-1.07581e-06
0.000128228
-1.11526e-06
0.000128401
-1.15199e-06
0.000128568
-1.18685e-06
0.00012873
-1.22058e-06
0.000128886
-1.25392e-06
0.000129039
-1.2875e-06
0.000129187
-1.32192e-06
0.000129331
-1.35774e-06
0.000129473
-1.39544e-06
0.000129611
-1.4355e-06
0.000129747
-1.47832e-06
0.000129879
-1.52424e-06
0.000130009
-1.57361e-06
-1.62651e-06
0.000130135
0.00012732
-9.02961e-09
0.000127439
-3.16949e-08
0.000127621
-7.2001e-08
0.00012785
-1.35508e-07
0.00012811
-2.19317e-07
0.000128389
-3.17409e-07
0.000128679
-4.23466e-07
0.00012897
-5.31674e-07
0.00012926
-6.37276e-07
0.000129543
-7.36899e-07
0.000129817
-8.28486e-07
0.000130082
-9.11039e-07
0.000130337
-9.84358e-07
0.000130581
-1.04882e-06
0.000130814
-1.10516e-06
0.000131036
-1.15433e-06
0.000131248
-1.19739e-06
0.000131451
-1.23543e-06
0.000131645
-1.26948e-06
0.00013183
-1.30054e-06
0.000132008
-1.32952e-06
0.000132178
-1.35725e-06
0.000132342
-1.38447e-06
0.0001325
-1.41186e-06
0.000132652
-1.44001e-06
0.0001328
-1.46945e-06
0.000132943
-1.50065e-06
0.000133081
-1.53403e-06
0.000133216
-1.56992e-06
0.000133346
-1.60862e-06
0.000133472
-1.65036e-06
0.000133594
-1.69533e-06
-1.74346e-06
0.000133711
0.000130955
-4.91394e-08
0.00013107
-1.46905e-07
0.000131248
-2.49846e-07
0.000131474
-3.61091e-07
0.000131733
-4.78677e-07
0.000132014
-5.98653e-07
0.000132308
-7.16907e-07
0.000132606
-8.29784e-07
0.000132903
-9.3447e-07
0.000133195
-1.02917e-06
0.00013348
-1.11308e-06
0.000133755
-1.18613e-06
0.000134019
-1.24886e-06
0.000134273
-1.30216e-06
0.000134515
-1.34716e-06
0.000134746
-1.38511e-06
0.000134965
-1.41727e-06
0.000135175
-1.44484e-06
0.000135374
-1.46897e-06
0.000135564
-1.4907e-06
0.000135746
-1.51097e-06
0.000135919
-1.53059e-06
0.000136085
-1.5503e-06
0.000136244
-1.57073e-06
0.000136396
-1.59242e-06
0.000136543
-1.61582e-06
0.000136683
-1.64133e-06
0.000136819
-1.66927e-06
0.000136949
-1.69988e-06
0.000137073
-1.73335e-06
0.000137193
-1.7698e-06
0.000137307
-1.8093e-06
-1.8517e-06
0.000137415
0.000134695
-8.88948e-08
0.000134809
-2.61308e-07
0.000134987
-4.27374e-07
0.000135214
-5.87906e-07
0.000135476
-7.41439e-07
0.000135763
-8.85619e-07
0.000136065
-1.01821e-06
0.000136372
-1.13753e-06
0.000136681
-1.24257e-06
0.000136984
-1.33313e-06
0.000137281
-1.40967e-06
0.000137568
-1.47315e-06
0.000137844
-1.52488e-06
0.000138108
-1.56639e-06
0.00013836
-1.59925e-06
0.0001386
-1.62506e-06
0.000138828
-1.64529e-06
0.000139045
-1.66135e-06
0.00013925
-1.67448e-06
0.000139445
-1.68579e-06
0.000139631
-1.69624e-06
0.000139807
-1.70667e-06
0.000139974
-1.71778e-06
0.000140134
-1.73015e-06
0.000140286
-1.74428e-06
0.00014043
-1.76056e-06
0.000140568
-1.77929e-06
0.0001407
-1.8007e-06
0.000140825
-1.82495e-06
0.000140944
-1.85213e-06
0.000141056
-1.88223e-06
0.000141162
-1.91524e-06
-1.95089e-06
0.000141261
0.000138543
-1.29297e-07
0.000138659
-3.77711e-07
0.00013884
-6.08576e-07
0.000139073
-8.20427e-07
0.000139343
-1.01206e-06
0.00013964
-1.18244e-06
0.000139953
-1.33103e-06
0.000140273
-1.458e-06
0.000140595
-1.56417e-06
0.000140913
-1.6509e-06
0.000141223
-1.71998e-06
0.000141523
-1.77347e-06
0.000141812
-1.81355e-06
0.000142088
-1.84239e-06
0.000142351
-1.86211e-06
0.000142601
-1.87465e-06
0.000142837
-1.88181e-06
0.000143061
-1.88516e-06
0.000143273
-1.88609e-06
0.000143473
-1.88578e-06
0.000143662
-1.88523e-06
0.00014384
-1.88529e-06
0.000144009
-1.88664e-06
0.000144169
-1.88983e-06
0.00014432
-1.89529e-06
0.000144462
-1.90335e-06
0.000144597
-1.91423e-06
0.000144725
-1.92809e-06
0.000144845
-1.94499e-06
0.000144958
-1.96493e-06
0.000145063
-1.98783e-06
0.000145162
-2.01362e-06
-2.04195e-06
0.000145253
0.000142501
-1.71456e-07
0.000142623
-4.99257e-07
0.000142812
-7.98082e-07
0.000143056
-1.06415e-06
0.000143341
-1.2964e-06
0.000143653
-1.49499e-06
0.000143983
-1.661e-06
0.000144321
-1.79644e-06
0.000144661
-1.90396e-06
0.000144997
-1.98658e-06
0.000145324
-2.04753e-06
0.000145641
-2.09003e-06
0.000145945
-2.11723e-06
0.000146234
-2.13204e-06
0.000146509
-2.13716e-06
0.00014677
-2.13496e-06
0.000147015
-2.12754e-06
0.000147247
-2.11671e-06
0.000147465
-2.10399e-06
0.00014767
-2.09067e-06
0.000147862
-2.07778e-06
0.000148043
-2.06617e-06
0.000148213
-2.05652e-06
0.000148373
-2.04932e-06
0.000148522
-2.04496e-06
0.000148663
-2.04369e-06
0.000148794
-2.04567e-06
0.000148917
-2.05096e-06
0.000149031
-2.05955e-06
0.000149138
-2.07136e-06
0.000149236
-2.08621e-06
0.000149327
-2.10394e-06
-2.12413e-06
0.000149409
0.000146574
-2.16545e-07
0.000146704
-6.29264e-07
0.000146907
-1.0006e-06
0.000147167
-1.32435e-06
0.00014747
-1.5997e-06
0.000147804
-1.82815e-06
0.000148155
-2.01249e-06
0.000148515
-2.15666e-06
0.000148877
-2.26526e-06
0.000149233
-2.34308e-06
0.00014958
-2.39484e-06
0.000149915
-2.42503e-06
0.000150236
-2.43784e-06
0.000150541
-2.43698e-06
0.00015083
-2.42579e-06
0.000151102
-2.40712e-06
0.000151358
-2.38341e-06
0.000151598
-2.35672e-06
0.000151822
-2.32874e-06
0.000152033
-2.30084e-06
0.000152229
-2.27413e-06
0.000152412
-2.24945e-06
0.000152583
-2.22745e-06
0.000152742
-2.2086e-06
0.000152891
-2.19322e-06
0.000153028
-2.18151e-06
0.000153156
-2.17355e-06
0.000153275
-2.16932e-06
0.000153384
-2.16875e-06
0.000153484
-2.17166e-06
0.000153576
-2.17785e-06
0.000153659
-2.18708e-06
-2.19892e-06
0.000153734
0.000150765
-2.66288e-07
0.000150909
-7.72578e-07
0.000151132
-1.22344e-06
0.000151417
-1.60993e-06
0.000151749
-1.93171e-06
0.000152113
-2.19175e-06
0.000152495
-2.3948e-06
0.000152885
-2.54704e-06
0.000153276
-2.65531e-06
0.000153659
-2.7264e-06
0.000154031
-2.76673e-06
0.000154388
-2.78223e-06
0.000154728
-2.77818e-06
0.000155051
-2.75924e-06
0.000155354
-2.72938e-06
0.000155639
-2.69199e-06
0.000155905
-2.64986e-06
0.000156154
-2.60531e-06
0.000156385
-2.56019e-06
0.000156601
-2.51597e-06
0.0001568
-2.4738e-06
0.000156985
-2.43453e-06
0.000157157
-2.39878e-06
0.000157315
-2.36697e-06
0.000157461
-2.33938e-06
0.000157596
-2.31611e-06
0.000157719
-2.29719e-06
0.000157833
-2.28251e-06
0.000157936
-2.27192e-06
0.000158029
-2.26517e-06
0.000158113
-2.26197e-06
0.000158188
-2.26201e-06
-2.26477e-06
0.000158254
0.000155077
-3.22091e-07
0.000155238
-9.33332e-07
0.000155487
-1.472e-06
0.000155803
-1.9265e-06
0.000156169
-2.29781e-06
0.000156569
-2.59099e-06
0.000156987
-2.81305e-06
0.000157413
-2.97268e-06
0.000157836
-3.07917e-06
0.000158252
-3.1415e-06
0.000158653
-3.16797e-06
0.000159037
-3.16605e-06
0.000159401
-3.14232e-06
0.000159744
-3.1024e-06
0.000160066
-3.05105e-06
0.000160366
-2.99221e-06
0.000160645
-2.92908e-06
0.000160904
-2.86424e-06
0.000161143
-2.79974e-06
0.000161365
-2.73713e-06
0.000161568
-2.6776e-06
0.000161756
-2.622e-06
0.000161928
-2.57093e-06
0.000162086
-2.52475e-06
0.00016223
-2.48364e-06
0.000162362
-2.44767e-06
0.000162481
-2.41676e-06
0.000162589
-2.39075e-06
0.000162687
-2.36939e-06
0.000162774
-2.3524e-06
0.000162852
-2.33942e-06
0.00016292
-2.33011e-06
-2.32393e-06
0.000162979
0.000159517
-3.88195e-07
0.000159706
-1.12251e-06
0.000159996
-1.76228e-06
0.000160362
-2.29263e-06
0.000160781
-2.71689e-06
0.000161234
-3.04323e-06
0.000161703
-3.28194e-06
0.000162175
-3.44526e-06
0.000162642
-3.54567e-06
0.000163095
-3.59472e-06
0.00016353
-3.60284e-06
0.000163943
-3.57923e-06
0.000164332
-3.5318e-06
0.000164697
-3.46718e-06
0.000165037
-3.39091e-06
0.000165352
-3.30747e-06
0.000165644
-3.22046e-06
0.000165912
-3.13273e-06
0.000166159
-3.04647e-06
0.000166385
-2.96332e-06
0.000166592
-2.88449e-06
0.000166781
-2.81081e-06
0.000166953
-2.74282e-06
0.000167109
-2.68083e-06
0.00016725
-2.62494e-06
0.000167377
-2.57513e-06
0.000167492
-2.53123e-06
0.000167594
-2.493e-06
0.000167685
-2.46011e-06
0.000167765
-2.43219e-06
0.000167834
-2.4088e-06
0.000167893
-2.3895e-06
-2.37364e-06
0.000167943
0.000164082
-4.64357e-07
0.000164302
-1.34217e-06
0.000164636
-2.0963e-06
0.000165054
-2.71073e-06
0.00016553
-3.19332e-06
0.000166043
-3.55555e-06
0.000166572
-3.81109e-06
0.000167103
-3.97619e-06
0.000167624
-4.06701e-06
0.000168128
-4.09822e-06
0.000168608
-4.08285e-06
0.000169061
-4.03218e-06
0.000169485
-3.95571e-06
0.000169879
-3.86131e-06
0.000170243
-3.75536e-06
0.000170579
-3.64299e-06
0.000170886
-3.52819e-06
0.000171168
-3.41408e-06
0.000171424
-3.30296e-06
0.000171658
-3.19655e-06
0.000171869
-3.09603e-06
0.00017206
-3.00217e-06
0.000172233
-2.91544e-06
0.000172388
-2.83605e-06
0.000172527
-2.764e-06
0.000172651
-2.69915e-06
0.000172761
-2.64125e-06
0.000172858
-2.58997e-06
0.000172943
-2.5449e-06
0.000173017
-2.50561e-06
0.000173079
-2.47161e-06
0.000173132
-2.44243e-06
-2.41739e-06
0.000173176
0.000168795
-5.67894e-07
0.000169081
-1.62814e-06
0.000169503
-2.51807e-06
0.000170015
-3.22267e-06
0.000170583
-3.7609e-06
0.000171179
-4.15174e-06
0.000171783
-4.4152e-06
0.00017238
-4.57326e-06
0.000172959
-4.64637e-06
0.000173513
-4.65236e-06
0.000174037
-4.60681e-06
0.000174528
-4.52302e-06
0.000174985
-4.412e-06
0.000175406
-4.28276e-06
0.000175793
-4.14253e-06
0.000176147
-3.99699e-06
0.00017647
-3.85056e-06
0.000176762
-3.70656e-06
0.000177026
-3.56744e-06
0.000177265
-3.43492e-06
0.000177479
-3.31016e-06
0.000177671
-3.19387e-06
0.000177842
-3.0864e-06
0.000177993
-2.98783e-06
0.000178127
-2.89806e-06
0.000178245
-2.81681e-06
0.000178348
-2.74372e-06
0.000178436
-2.67836e-06
0.000178511
-2.62021e-06
0.000178574
-2.56876e-06
0.000178626
-2.52342e-06
0.000178667
-2.48361e-06
-2.44851e-06
0.000178699
0.000173623
-6.79876e-07
0.000173955
-1.96034e-06
0.000174449
-3.01151e-06
0.000175053
-3.82715e-06
0.000175728
-4.43582e-06
0.000176437
-4.86081e-06
0.000177152
-5.12973e-06
0.000177852
-5.27316e-06
0.000178523
-5.31797e-06
0.000179158
-5.28677e-06
0.00017975
-5.19888e-06
0.000180297
-5.07031e-06
0.000180799
-4.91402e-06
0.000181257
-4.74034e-06
0.000181672
-4.55739e-06
0.000182046
-4.37141e-06
0.000182383
-4.1871e-06
0.000182684
-4.00793e-06
0.000182953
-3.83634e-06
0.000183192
-3.67398e-06
0.000183404
-3.52185e-06
0.00018359
-3.38051e-06
0.000183754
-3.25011e-06
0.000183897
-3.13055e-06
0.00018402
-3.02153e-06
0.000184126
-2.92263e-06
0.000184216
-2.83333e-06
0.00018429
-2.75308e-06
0.000184351
-2.68129e-06
0.0001844
-2.61739e-06
0.000184437
-2.56076e-06
0.000184465
-2.51085e-06
-2.4667e-06
0.000184483
0.000178683
-8.94115e-07
0.000179192
-2.46999e-06
0.000179867
-3.68652e-06
0.000180628
-4.588e-06
0.000181433
-5.24077e-06
0.00018225
-5.67744e-06
0.000183054
-5.93409e-06
0.00018383
-6.0488e-06
0.000184565
-6.05324e-06
0.000185252
-5.97406e-06
0.000185888
-5.83404e-06
0.000186469
-5.65188e-06
0.000186998
-5.44246e-06
0.000187475
-5.21751e-06
0.000187903
-4.98603e-06
0.000188287
-4.75479e-06
0.000188628
-4.52873e-06
0.000188932
-4.31137e-06
0.000189201
-4.10505e-06
0.000189438
-3.91122e-06
0.000189647
-3.73068e-06
0.00018983
-3.56369e-06
0.00018999
-3.41013e-06
0.000190129
-3.26964e-06
0.000190249
-3.14168e-06
0.000190352
-3.02557e-06
0.000190439
-2.92063e-06
0.000190512
-2.82614e-06
0.000190573
-2.74141e-06
0.000190621
-2.66578e-06
0.000190659
-2.59866e-06
0.000190687
-2.53945e-06
-2.48714e-06
0.000190708
0.000183746
-1.07299e-06
0.000184339
-3.06303e-06
0.000185175
-4.5217e-06
0.000186148
-5.5619e-06
0.000187179
-6.27131e-06
0.000188203
-6.70118e-06
0.000189186
-6.91721e-06
0.000190113
-6.97643e-06
0.00019098
-6.9194e-06
0.000191784
-6.77801e-06
0.000192527
-6.57796e-06
0.000193215
-6.33913e-06
0.000193849
-6.07678e-06
0.000194434
-5.8026e-06
0.000194974
-5.5254e-06
0.00019547
-5.25171e-06
0.000195928
-4.98628e-06
0.000196349
-4.7324e-06
0.000196736
-4.49228e-06
0.000197092
-4.26721e-06
0.000197419
-4.05781e-06
0.00019772
-3.86419e-06
0.000197996
-3.68608e-06
0.000198249
-3.52292e-06
0.000198481
-3.37398e-06
0.000198694
-3.23845e-06
0.000198889
-3.11548e-06
0.000199067
-3.00426e-06
0.00019923
-2.90409e-06
0.000199378
-2.81433e-06
0.000199515
-2.73477e-06
0.00019964
-2.6649e-06
-2.60494e-06
0.000199758
0.000189418
-1.67921e-06
0.000190408
-4.05262e-06
0.000191492
-5.60595e-06
0.000192654
-6.72404e-06
0.000193901
-7.51785e-06
0.00019521
-8.01096e-06
0.000196563
-8.2698e-06
0.000197935
-8.34841e-06
0.0001993
-8.28488e-06
0.000200636
-8.11347e-06