/*--------------------------------*- C++ -*----------------------------------*\
| =========                 |                                                 |
| \\      /  F ield         | OpenFOAM: The Open Source CFD Toolbox           |
|  \\    /   O peration     | Version:  2.1.1                                 |
|   \\  /    A nd           | Web:      www.OpenFOAM.org                      |
|    \\/     M anipulation  |                                                 |
\*---------------------------------------------------------------------------*/
FoamFile
{
    version     2.0;
    format      ascii;
    class       volVectorField;
    location    "0.145";
    object      U;
}
// * * * * * * * * * * * * * * * * * * * * * * * * * * * * * * * * * * * * * //

dimensions      [0 1 -1 0 0 0 0];

internalField   nonuniform List<vector> 
6820
(
(6.37599 0.503751 0)
(4.42423 0.286878 0)
(2.97331 0.0202225 0)
(2.2339 -0.0618916 0)
(1.96808 -0.0599605 0)
(1.84102 -0.0345309 0)
(1.76584 -0.0151126 0)
(1.71344 -0.00472997 0)
(1.66976 -1.84672e-05 0)
(1.63175 0.00150294 0)
(1.59883 0.00150208 0)
(1.57049 0.000914998 0)
(1.54622 0.00017461 0)
(1.52546 -0.000529756 0)
(1.50767 -0.00112395 0)
(1.49238 -0.00159041 0)
(1.47917 -0.00193709 0)
(1.46771 -0.00218064 0)
(1.45771 -0.0023384 0)
(1.44891 -0.00242531 0)
(1.4411 -0.00245309 0)
(1.43408 -0.0024303 0)
(1.42765 -0.0023628 0)
(1.42162 -0.00225349 0)
(1.41582 -0.0021046 0)
(1.41005 -0.00191171 0)
(1.40406 -0.00168643 0)
(1.39781 -0.00138505 0)
(1.39053 -0.00114653 0)
(1.38374 -0.000498321 0)
(1.37189 -0.0010217 0)
(1.37146 0.00384992 0)
(1.3305 -0.0199924 0)
(8.72021 0.95965 0)
(8.76466 1.01198 0)
(7.96851 0.679084 0)
(7.05471 0.393978 0)
(6.35336 0.202532 0)
(5.84668 0.103439 0)
(5.48447 0.0579665 0)
(5.22287 0.0374741 0)
(5.02693 0.0282831 0)
(4.87443 0.0237586 0)
(4.75197 0.0210527 0)
(4.65115 0.0191151 0)
(4.56656 0.0175548 0)
(4.49461 0.0162105 0)
(4.43274 0.0150057 0)
(4.37911 0.0139038 0)
(4.33231 0.0128889 0)
(4.29127 0.0119561 0)
(4.2551 0.0111062 0)
(4.2231 0.0103439 0)
(4.19465 0.0096771 0)
(4.16924 0.00911656 0)
(4.1464 0.00867608 0)
(4.12571 0.00837335 0)
(4.10676 0.00822735 0)
(4.08917 0.00826815 0)
(4.07254 0.00850098 0)
(4.05652 0.00901564 0)
(4.04063 0.00960803 0)
(4.02484 0.0108682 0)
(4.00796 0.0107912 0)
(3.9933 0.0130627 0)
(3.97553 0.00766785 0)
(8.58611 0.583506 0)
(9.33123 0.762411 0)
(9.6142 0.660269 0)
(9.50389 0.526703 0)
(9.2373 0.397185 0)
(8.9244 0.299335 0)
(8.61806 0.230513 0)
(8.3415 0.181119 0)
(8.09898 0.145182 0)
(7.88822 0.118527 0)
(7.70552 0.0982448 0)
(7.547 0.082478 0)
(7.40912 0.070016 0)
(7.28885 0.0600367 0)
(7.1836 0.0519505 0)
(7.09119 0.0453213 0)
(7.0098 0.0398268 0)
(6.93788 0.0352309 0)
(6.87413 0.0313614 0)
(6.81744 0.0280946 0)
(6.76686 0.0253432 0)
(6.72156 0.023049 0)
(6.68082 0.0211766 0)
(6.64398 0.0197109 0)
(6.61045 0.0186525 0)
(6.5797 0.0180197 0)
(6.55118 0.0178309 0)
(6.52439 0.0181476 0)
(6.4988 0.0188982 0)
(6.47391 0.0203304 0)
(6.44898 0.0214806 0)
(6.42264 0.0234422 0)
(6.39384 0.0217452 0)
(8.44092 0.379729 0)
(8.94583 0.584134 0)
(9.35818 0.554736 0)
(9.58576 0.487311 0)
(9.69968 0.407442 0)
(9.73541 0.338351 0)
(9.71952 0.285903 0)
(9.67432 0.245776 0)
(9.61271 0.214338 0)
(9.54199 0.189011 0)
(9.46688 0.167952 0)
(9.39049 0.150042 0)
(9.31481 0.134572 0)
(9.24135 0.121056 0)
(9.171 0.109175 0)
(9.10429 0.0986959 0)
(9.04147 0.0894307 0)
(8.98264 0.081227 0)
(8.92775 0.0739609 0)
(8.87668 0.0675345 0)
(8.82924 0.0618728 0)
(8.78522 0.0569224 0)
(8.74436 0.0526495 0)
(8.70639 0.0490399 0)
(8.67103 0.046097 0)
(8.63798 0.0438447 0)
(8.60691 0.0423157 0)
(8.5775 0.0415807 0)
(8.54935 0.0416504 0)
(8.52199 0.0427126 0)
(8.49491 0.0445224 0)
(8.46646 0.047696 0)
(8.43711 0.0526681 0)
(8.40213 0.280104 0)
(8.7189 0.480786 0)
(8.99867 0.462094 0)
(9.174 0.404686 0)
(9.29832 0.342761 0)
(9.39156 0.29043 0)
(9.46042 0.251522 0)
(9.51305 0.222045 0)
(9.55427 0.198689 0)
(9.58642 0.179564 0)
(9.61124 0.163413 0)
(9.63009 0.149455 0)
(9.64411 0.137214 0)
(9.6539 0.126362 0)
(9.66015 0.116655 0)
(9.66352 0.107911 0)
(9.66456 0.0999963 0)
(9.66375 0.0928131 0)
(9.66149 0.0862894 0)
(9.65813 0.0803756 0)
(9.65391 0.0750413 0)
(9.64906 0.0702734 0)
(9.64376 0.0660753 0)
(9.63812 0.0624668 0)
(9.63223 0.0594842 0)
(9.62616 0.0571825 0)
(9.61993 0.0556318 0)
(9.61352 0.0549327 0)
(9.60688 0.0551857 0)
(9.59986 0.05659 0)
(9.59226 0.059305 0)
(9.5833 0.0639003 0)
(9.57331 0.0713663 0)
(8.37747 0.202223 0)
(8.60129 0.383684 0)
(8.81563 0.390848 0)
(8.9465 0.356563 0)
(9.03217 0.312309 0)
(9.09473 0.268914 0)
(9.14141 0.233164 0)
(9.17949 0.204743 0)
(9.21316 0.181863 0)
(9.24382 0.163195 0)
(9.27207 0.147652 0)
(9.29826 0.134414 0)
(9.32259 0.12295 0)
(9.34531 0.11291 0)
(9.36656 0.104018 0)
(9.38642 0.0960666 0)
(9.40497 0.0889114 0)
(9.42229 0.0824477 0)
(9.43845 0.0766014 0)
(9.45355 0.0713225 0)
(9.46765 0.0665815 0)
(9.48083 0.0623666 0)
(9.49318 0.058683 0)
(9.50477 0.0555529 0)
(9.51567 0.0530154 0)
(9.52597 0.0511289 0)
(9.53574 0.0499709 0)
(9.54504 0.0496491 0)
(9.55395 0.0502964 0)
(9.56252 0.0521218 0)
(9.5708 0.0554147 0)
(9.57883 0.0606972 0)
(9.58691 0.0688656 0)
(8.36127 0.148857 0)
(8.52266 0.311495 0)
(8.6973 0.337212 0)
(8.81194 0.317771 0)
(8.8864 0.284651 0)
(8.93932 0.248586 0)
(8.97687 0.217073 0)
(9.00525 0.191324 0)
(9.02888 0.170182 0)
(9.04968 0.152613 0)
(9.06858 0.137785 0)
(9.0862 0.125048 0)
(9.10285 0.113944 0)
(9.11872 0.104154 0)
(9.1339 0.0954483 0)
(9.14848 0.08766 0)
(9.16251 0.0806623 0)
(9.17602 0.0743582 0)
(9.18902 0.068675 0)
(9.20155 0.0635609 0)
(9.21363 0.0589828 0)
(9.22527 0.0549246 0)
(9.2365 0.0513863 0)
(9.24736 0.0483842 0)
(9.25787 0.0459508 0)
(9.26809 0.0441369 0)
(9.27805 0.0430125 0)
(9.28784 0.0426753 0)
(9.2975 0.0432521 0)
(9.30714 0.0449312 0)
(9.31688 0.0479645 0)
(9.32695 0.0527701 0)
(9.33769 0.0597664 0)
(8.35115 0.111425 0)
(8.46735 0.251689 0)
(8.60802 0.286633 0)
(8.70962 0.27854 0)
(8.77929 0.256313 0)
(8.83076 0.228989 0)
(8.86838 0.20301 0)
(8.89668 0.180489 0)
(8.91963 0.161171 0)
(8.93924 0.144587 0)
(8.95656 0.130294 0)
(8.97229 0.11786 0)
(8.98689 0.106941 0)
(9.0006 0.097279 0)
(9.01361 0.088677 0)
(9.02602 0.0809771 0)
(9.03794 0.0740551 0)
(9.04941 0.0678157 0)
(9.06049 0.0621879 0)
(9.07122 0.0571211 0)
(9.08163 0.0525825 0)
(9.09176 0.0485557 0)
(9.10163 0.045039 0)
(9.11128 0.042046 0)
(9.12075 0.0396051 0)
(9.13008 0.0377614 0)
(9.13932 0.0365777 0)
(9.14855 0.0361406 0)
(9.15784 0.0365631 0)
(9.1673 0.0380019 0)
(9.1771 0.0406559 0)
(9.18751 0.0448194 0)
(9.19886 0.0506939 0)
(8.34486 0.08475 0)
(8.42932 0.203806 0)
(8.54202 0.24384 0)
(8.63061 0.244643 0)
(8.69444 0.230594 0)
(8.74335 0.209728 0)
(8.78058 0.187904 0)
(8.80936 0.167973 0)
(8.83295 0.150377 0)
(8.85318 0.134979 0)
(8.87102 0.121532 0)
(8.88715 0.109729 0)
(8.90202 0.0992907 0)
(8.91592 0.0899992 0)
(8.92902 0.0816816 0)
(8.94148 0.0742001 0)
(8.95339 0.0674469 0)
(8.96483 0.0613392 0)
(8.97587 0.0558142 0)
(8.98654 0.0508263 0)
(8.99691 0.0463449 0)
(9.007 0.0423534 0)
(9.01687 0.0388486 0)
(9.02655 0.0358403 0)
(9.0361 0.0333516 0)
(9.04558 0.0314195 0)
(9.05505 0.0300963 0)
(9.06459 0.0294525 0)
(9.07432 0.0295782 0)
(9.08437 0.0305906 0)
(9.09493 0.032626 0)
(9.10632 0.0358681 0)
(9.11883 0.0403763 0)
(8.34093 0.0655058 0)
(8.40302 0.165472 0)
(8.49311 0.206736 0)
(8.56965 0.213408 0)
(8.6276 0.205381 0)
(8.67353 0.189977 0)
(8.70978 0.172262 0)
(8.73851 0.155177 0)
(8.76231 0.139538 0)
(8.7828 0.125459 0)
(8.80092 0.112891 0)
(8.8173 0.101682 0)
(8.8324 0.0916536 0)
(8.84649 0.0826512 0)
(8.85978 0.0745434 0)
(8.87241 0.0672191 0)
(8.88449 0.0605865 0)
(8.89609 0.0545713 0)
(8.90728 0.0491152 0)
(8.91812 0.0441743 0)
(8.92866 0.0397179 0)
(8.93895 0.035728 0)
(8.94902 0.032198 0)
(8.95895 0.0291328 0)
(8.96878 0.0265485 0)
(8.97859 0.0244723 0)
(8.98845 0.0229429 0)
(8.99846 0.0220113 0)
(9.00874 0.0217402 0)
(9.01946 0.022205 0)
(9.0308 0.0234815 0)
(9.04309 0.0256606 0)
(9.05658 0.028709 0)
(8.33845 0.0513499 0)
(8.38467 0.134657 0)
(8.45674 0.174754 0)
(8.52254 0.185381 0)
(8.57489 0.182032 0)
(8.61773 0.171118 0)
(8.65262 0.156907 0)
(8.68098 0.142256 0)
(8.70477 0.12829 0)
(8.72542 0.115371 0)
(8.74375 0.103617 0)
(8.76036 0.0929997 0)
(8.77567 0.0834167 0)
(8.78996 0.0747579 0)
(8.80343 0.0669196 0)
(8.81623 0.0598084 0)
(8.82846 0.0533436 0)
(8.84022 0.0474586 0)
(8.85156 0.0420998 0)
(8.86256 0.037226 0)
(8.87326 0.032807 0)
(8.88373 0.028823 0)
(8.89401 0.025264 0)
(8.90416 0.0221292 0)
(8.91426 0.0194264 0)
(8.92437 0.0171714 0)
(8.93458 0.0153875 0)
(8.94499 0.0141045 0)
(8.95575 0.0133562 0)
(8.967 0.0131775 0)
(8.97894 0.0135912 0)
(8.99185 0.0146151 0)
(9.00596 0.0161547 0)
(8.33686 0.040728 0)
(8.37176 0.109825 0)
(8.42956 0.147259 0)
(8.48588 0.160139 0)
(8.53291 0.160077 0)
(8.57263 0.152601 0)
(8.60599 0.141328 0)
(8.6338 0.128904 0)
(8.6575 0.116593 0)
(8.67826 0.104898 0)
(8.6968 0.0940409 0)
(8.71364 0.0840811 0)
(8.72918 0.0749852 0)
(8.74369 0.0666893 0)
(8.75737 0.0591228 0)
(8.77036 0.0522155 0)
(8.78278 0.0459028 0)
(8.79471 0.0401284 0)
(8.80623 0.0348449 0)
(8.8174 0.0300137 0)
(8.82828 0.0256047 0)
(8.83893 0.0215961 0)
(8.84942 0.0179738 0)
(8.85979 0.0147305 0)
(8.87013 0.0118651 0)
(8.88051 0.00938149 0)
(8.89102 0.00728717 0)
(8.90178 0.00559104 0)
(8.9129 0.00429945 0)
(8.92455 0.00341259 0)
(8.9369 0.00291074 0)
(8.9502 0.00275745 0)
(8.96461 0.00282185 0)
(8.33582 0.0325896 0)
(8.36257 0.0896843 0)
(8.40914 0.1236 0)
(8.45724 0.137442 0)
(8.49933 0.139636 0)
(8.53601 0.134814 0)
(8.56769 0.126001 0)
(8.59477 0.115537 0)
(8.61824 0.104711 0)
(8.63901 0.0941263 0)
(8.65769 0.0840902 0)
(8.67474 0.0747399 0)
(8.6905 0.0661042 0)
(8.70525 0.0581615 0)
(8.71916 0.0508693 0)
(8.73237 0.0441762 0)
(8.74499 0.0380298 0)
(8.75713 0.0323811 0)
(8.76884 0.0271865 0)
(8.7802 0.0224088 0)
(8.79127 0.0180171 0)
(8.80212 0.013987 0)
(8.8128 0.0102997 0)
(8.82338 0.00694119 0)
(8.83394 0.00390119 0)
(8.84455 0.0011717 0)
(8.85531 -0.00125506 0)
(8.86632 -0.00338935 0)
(8.87771 -0.00524857 0)
(8.88961 -0.00686125 0)
(8.90217 -0.00827912 0)
(8.91562 -0.00957616 0)
(8.93007 -0.0109014 0)
(8.33513 0.0262213 0)
(8.35595 0.0732192 0)
(8.39372 0.103225 0)
(8.43479 0.117055 0)
(8.47236 0.12063 0)
(8.50611 0.117721 0)
(8.53605 0.110842 0)
(8.56227 0.10202 0)
(8.58538 0.0925076 0)
(8.60607 0.0829552 0)
(8.62484 0.0737222 0)
(8.64206 0.0649948 0)
(8.65805 0.0568446 0)
(8.67302 0.0492821 0)
(8.68715 0.0422875 0)
(8.70058 0.0358265 0)
(8.71342 0.0298582 0)
(8.72575 0.0243414 0)
(8.73766 0.0192371 0)
(8.74921 0.0145098 0)
(8.76046 0.0101285 0)
(8.77148 0.0060663 0)
(8.78234 0.00229981 0)
(8.7931 -0.0011914 0)
(8.80383 -0.0044262 0)
(8.81462 -0.00742354 0)
(8.82555 -0.0102047 0)
(8.83673 -0.0127963 0)
(8.84825 -0.0152345 0)
(8.86026 -0.0175698 0)
(8.87287 -0.019876 0)
(8.88626 -0.0222505 0)
(8.9005 -0.0248469 0)
(8.33465 0.0211349 0)
(8.35113 0.0596273 0)
(8.38201 0.0856191 0)
(8.41714 0.0987229 0)
(8.45065 0.102977 0)
(8.48164 0.101373 0)
(8.50985 0.0959817 0)
(8.53512 0.0885245 0)
(8.55778 0.080156 0)
(8.57831 0.0715335 0)
(8.5971 0.0630409 0)
(8.61445 0.0548966 0)
(8.63061 0.0472062 0)
(8.64579 0.0400075 0)
(8.66014 0.0333013 0)
(8.67378 0.0270682 0)
(8.68683 0.0212777 0)
(8.69936 0.0158946 0)
(8.71145 0.0108835 0)
(8.72317 0.00620985 0)
(8.73459 0.00184142 0)
(8.74577 -0.00225162 0)
(8.75678 -0.00609714 0)
(8.76768 -0.00972177 0)
(8.77855 -0.0131522 0)
(8.78946 -0.0164171 0)
(8.80049 -0.0195493 0)
(8.81174 -0.0225884 0)
(8.8233 -0.0255854 0)
(8.83527 -0.0286053 0)
(8.84777 -0.0317352 0)
(8.86091 -0.0350843 0)
(8.87476 -0.0388014 0)
(8.33431 0.0169909 0)
(8.34757 0.0482795 0)
(8.37307 0.0703305 0)
(8.40325 0.0822057 0)
(8.43315 0.0865783 0)
(8.46161 0.0857607 0)
(8.48813 0.0814399 0)
(8.5124 0.0750528 0)
(8.53454 0.0676338 0)
(8.55485 0.0598181 0)
(8.57361 0.051995 0)
(8.59105 0.0443997 0)
(8.60736 0.0371581 0)
(8.62272 0.0303266 0)
(8.63727 0.0239204 0)
(8.65112 0.0179306 0)
(8.66435 0.012334 0)
(8.67707 0.00710057 0)
(8.68933 0.00219692 0)
(8.70122 -0.0024108 0)
(8.71278 -0.00675597 0)
(8.7241 -0.0108711 0)
(8.73522 -0.0147879 0)
(8.74622 -0.0185386 0)
(8.75717 -0.0221565 0)
(8.76813 -0.0256783 0)
(8.77918 -0.0291455 0)
(8.79041 -0.0326075 0)
(8.80189 -0.0361247 0)
(8.81371 -0.0397708 0)
(8.82595 -0.0436385 0)
(8.8387 -0.0478406 0)
(8.85199 -0.0525139 0)
(8.33407 0.0135494 0)
(8.34491 0.0386842 0)
(8.36622 0.056962 0)
(8.3923 0.0672672 0)
(8.41905 0.0713152 0)
(8.44521 0.0708531 0)
(8.47014 0.0672376 0)
(8.49342 0.0616535 0)
(8.51501 0.0550031 0)
(8.53506 0.0478759 0)
(8.55374 0.0406483 0)
(8.57123 0.0335571 0)
(8.58766 0.0267381 0)
(8.60319 0.020259 0)
(8.61791 0.0141451 0)
(8.63194 0.00839541 0)
(8.64536 0.00299258 0)
(8.65825 -0.00208995 0)
(8.67067 -0.00688362 0)
(8.68269 -0.0114221 0)
(8.69438 -0.0157401 0)
(8.70579 -0.0198724 0)
(8.717 -0.0238545 0)
(8.72806 -0.0277232 0)
(8.73903 -0.0315172 0)
(8.74998 -0.035279 0)
(8.76099 -0.0390566 0)
(8.77211 -0.0429055 0)
(8.78341 -0.0468911 0)
(8.79497 -0.0510909 0)
(8.80684 -0.0555974 0)
(8.81908 -0.0605197 0)
(8.8317 -0.065979 0)
(8.33389 0.0106373 0)
(8.34291 0.0304561 0)
(8.36094 0.0451691 0)
(8.38367 0.0536824 0)
(8.40772 0.0570611 0)
(8.43183 0.0565972 0)
(8.45529 0.053367 0)
(8.47762 0.0483353 0)
(8.49865 0.0422712 0)
(8.51842 0.0357052 0)
(8.537 0.0289888 0)
(8.55451 0.0223501 0)
(8.57104 0.0159259 0)
(8.58671 0.00978878 0)
(8.6016 0.00396908 0)
(8.61579 -0.00153009 0)
(8.62938 -0.00672298 0)
(8.64241 -0.0116345 0)
(8.65497 -0.0162955 0)
(8.66711 -0.0207403 0)
(8.67889 -0.0250053 0)
(8.69038 -0.0291278 0)
(8.70163 -0.0331464 0)
(8.71269 -0.0371014 0)
(8.72364 -0.0410357 0)
(8.73452 -0.0449959 0)
(8.74541 -0.0490338 0)
(8.75634 -0.053208 0)
(8.76739 -0.0575853 0)
(8.77859 -0.0622426 0)
(8.78999 -0.0672679 0)
(8.80163 -0.0727626 0)
(8.81351 -0.07883 0)
(8.33375 0.00812677 0)
(8.3414 0.0232917 0)
(8.35688 0.0346537 0)
(8.37689 0.0412375 0)
(8.39865 0.0436804 0)
(8.42097 0.0429202 0)
(8.44313 0.0397989 0)
(8.46458 0.0350929 0)
(8.48508 0.0294446 0)
(8.50456 0.0233178 0)
(8.52303 0.017029 0)
(8.54055 0.0107884 0)
(8.55716 0.00472559 0)
(8.57296 -0.00108884 0)
(8.588 -0.00662423 0)
(8.60235 -0.0118766 0)
(8.61608 -0.0168594 0)
(8.62925 -0.0215971 0)
(8.64193 -0.026121 0)
(8.65416 -0.0304663 0)
(8.66602 -0.0346709 0)
(8.67754 -0.038774 0)
(8.68879 -0.0428166 0)
(8.69983 -0.0468416 0)
(8.7107 -0.0508941 0)
(8.72146 -0.0550232 0)
(8.73216 -0.0592819 0)
(8.74284 -0.0637291 0)
(8.75356 -0.0684302 0)
(8.76433 -0.0734581 0)
(8.7752 -0.078893 0)
(8.78618 -0.0848256 0)
(8.79725 -0.0913405 0)
(8.33365 0.00592115 0)
(8.34025 0.016949 0)
(8.35377 0.0251584 0)
(8.37159 0.0297311 0)
(8.39145 0.031033 0)
(8.41226 0.0297349 0)
(8.43328 0.0264865 0)
(8.45395 0.0219044 0)
(8.47396 0.0165149 0)
(8.49317 0.010712 0)
(8.51154 0.0047714 0)
(8.52906 -0.00112088 0)
(8.54576 -0.00684883 0)
(8.56167 -0.0123488 0)
(8.57685 -0.017594 0)
(8.59134 -0.0225827 0)
(8.6052 -0.0273301 0)
(8.61849 -0.0318624 0)
(8.63126 -0.0362125 0)
(8.64357 -0.0404174 0)
(8.65546 -0.0445169 0)
(8.66699 -0.0485525 0)
(8.67821 -0.0525669 0)
(8.68917 -0.056605 0)
(8.69992 -0.0607135 0)
(8.7105 -0.0649419 0)
(8.72096 -0.0693431 0)
(8.73133 -0.0739742 0)
(8.74165 -0.078897 0)
(8.75195 -0.0841781 0)
(8.76223 -0.0898886 0)
(8.77251 -0.0961068 0)
(8.78276 -0.1029 0)
(8.33357 0.00394504 0)
(8.33939 0.0112322 0)
(8.35139 0.0164592 0)
(8.3675 0.0189723 0)
(8.38582 0.0189739 0)
(8.40538 0.0169383 0)
(8.42544 0.01336 0)
(8.44545 0.00872124 0)
(8.46505 0.0034435 0)
(8.48405 -0.00214916 0)
(8.50235 -0.0078257 0)
(8.51989 -0.0134298 0)
(8.53667 -0.0188643 0)
(8.55271 -0.0240775 0)
(8.56802 -0.0290502 0)
(8.58265 -0.0337861 0)
(8.59664 -0.0383042 0)
(8.61004 -0.0426334 0)
(8.62289 -0.046809 0)
(8.63525 -0.0508702 0)
(8.64715 -0.0548585 0)
(8.65866 -0.0588169 0)
(8.66982 -0.0627893 0)
(8.68067 -0.0668213 0)
(8.69125 -0.0709596 0)
(8.70162 -0.075253 0)
(8.71179 -0.0797523 0)
(8.72181 -0.0845111 0)
(8.7317 -0.0895856 0)
(8.74148 -0.095035 0)
(8.75114 -0.10092 0)
(8.76069 -0.107306 0)
(8.77011 -0.114243 0)
(8.33351 0.00213784 0)
(8.33874 0.00597943 0)
(8.34961 0.0083586 0)
(8.3644 0.00878019 0)
(8.38152 0.00735544 0)
(8.40008 0.00441849 0)
(8.41939 0.000341287 0)
(8.43888 -0.00450552 0)
(8.45816 -0.00979291 0)
(8.47701 -0.0152637 0)
(8.49527 -0.0207335 0)
(8.51286 -0.0260789 0)
(8.52974 -0.0312258 0)
(8.5459 -0.0361388 0)
(8.56135 -0.0408102 0)
(8.57611 -0.0452522 0)
(8.59022 -0.0494901 0)
(8.6037 -0.0535579 0)
(8.61662 -0.057495 0)
(8.629 -0.0613437 0)
(8.64089 -0.0651478 0)
(8.65235 -0.0689522 0)
(8.6634 -0.0728021 0)
(8.67411 -0.0767433 0)
(8.68449 -0.080822 0)
(8.69459 -0.0850852 0)
(8.70445 -0.089581 0)
(8.71408 -0.0943584 0)
(8.7235 -0.0994674 0)
(8.73273 -0.104959 0)
(8.74176 -0.110883 0)
(8.7506 -0.117293 0)
(8.75921 -0.124225 0)
(8.33347 0.000448781 0)
(8.33828 0.00105192 0)
(8.34833 0.000677918 0)
(8.36215 -0.00102164 0)
(8.37838 -0.0039798 0)
(8.39621 -0.00796023 0)
(8.41498 -0.012688 0)
(8.4341 -0.0178865 0)
(8.45319 -0.0233093 0)
(8.47198 -0.0287635 0)
(8.49028 -0.0341125 0)
(8.50797 -0.0392686 0)
(8.52499 -0.0441837 0)
(8.54131 -0.0488413 0)
(8.55691 -0.0532477 0)
(8.57182 -0.057425 0)
(8.58604 -0.0614065 0)
(8.59962 -0.0652318 0)
(8.61259 -0.0689445 0)
(8.62499 -0.0725902 0)
(8.63686 -0.076215 0)
(8.64824 -0.0798649 0)
(8.65918 -0.0835857 0)
(8.66971 -0.0874228 0)
(8.67986 -0.0914208 0)
(8.68968 -0.0956242 0)
(8.69918 -0.100077 0)
(8.70839 -0.104824 0)
(8.71733 -0.109907 0)
(8.726 -0.115369 0)
(8.73439 -0.121251 0)
(8.74251 -0.127592 0)
(8.75033 -0.134417 0)
(8.33345 -0.00116576 0)
(8.33797 -0.00367242 0)
(8.34746 -0.00674763 0)
(8.36063 -0.0106038 0)
(8.37627 -0.0151864 0)
(8.39363 -0.0203238 0)
(8.41206 -0.0258149 0)
(8.43099 -0.0314602 0)
(8.45002 -0.0370858 0)
(8.46884 -0.0425592 0)
(8.48724 -0.0477925 0)
(8.50508 -0.0527361 0)
(8.52227 -0.0573725 0)
(8.53876 -0.0617082 0)
(8.55453 -0.0657678 0)
(8.56958 -0.0695878 0)
(8.58392 -0.0732119 0)
(8.59758 -0.0766883 0)
(8.61059 -0.0800668 0)
(8.62299 -0.0833973 0)
(8.63481 -0.0867292 0)
(8.64609 -0.0901103 0)
(8.65688 -0.0935868 0)
(8.66721 -0.0972036 0)
(8.67711 -0.101004 0)
(8.68661 -0.105028 0)
(8.69575 -0.109318 0)
(8.70453 -0.113911 0)
(8.71297 -0.118843 0)
(8.72107 -0.124149 0)
(8.72885 -0.129861 0)
(8.73628 -0.136008 0)
(8.74336 -0.142603 0)
(8.33343 -0.00274657 0)
(8.33779 -0.00830856 0)
(8.34697 -0.0140809 0)
(8.35979 -0.0201502 0)
(8.37512 -0.026457 0)
(8.39228 -0.0328747 0)
(8.41062 -0.0392629 0)
(8.42958 -0.04549 0)
(8.44872 -0.0514484 0)
(8.46772 -0.0570632 0)
(8.48635 -0.0622937 0)
(8.50444 -0.0671285 0)
(8.52189 -0.0715802 0)
(8.53862 -0.075679 0)
(8.5546 -0.0794679 0)
(8.56983 -0.0829975 0)
(8.58431 -0.0863228 0)
(8.59806 -0.0895003 0)
(8.61111 -0.0925862 0)
(8.6235 -0.0956349 0)
(8.63527 -0.0986989 0)
(8.64644 -0.101828 0)
(8.65707 -0.105068 0)
(8.66717 -0.108464 0)
(8.6768 -0.112056 0)
(8.68598 -0.115883 0)
(8.69472 -0.119981 0)
(8.70305 -0.124384 0)
(8.71099 -0.12912 0)
(8.71854 -0.134217 0)
(8.72569 -0.139697 0)
(8.73245 -0.145582 0)
(8.73881 -0.151874 0)
(8.33342 -0.00433351 0)
(8.33773 -0.0129681 0)
(8.34682 -0.0214789 0)
(8.35956 -0.0298287 0)
(8.37488 -0.0379362 0)
(8.39209 -0.0456998 0)
(8.41057 -0.0530241 0)
(8.42974 -0.0598358 0)
(8.44914 -0.0660895 0)
(8.46845 -0.0717696 0)
(8.48739 -0.0768875 0)
(8.5058 -0.0814766 0)
(8.52354 -0.0855867 0)
(8.54055 -0.0892785 0)
(8.55677 -0.0926188 0)
(8.57219 -0.0956772 0)
(8.58681 -0.0985233 0)
(8.60066 -0.101224 0)
(8.61375 -0.103844 0)
(8.62613 -0.106443 0)
(8.63782 -0.109077 0)
(8.64888 -0.111796 0)
(8.65932 -0.114649 0)
(8.6692 -0.117677 0)
(8.67854 -0.12092 0)
(8.68738 -0.124412 0)
(8.69573 -0.128186 0)
(8.70362 -0.132269 0)
(8.71106 -0.136684 0)
(8.71807 -0.141453 0)
(8.72464 -0.14659 0)
(8.73078 -0.152109 0)
(8.73649 -0.158006 0)
(8.33343 -0.0059677 0)
(8.3378 -0.0177724 0)
(8.34703 -0.0291316 0)
(8.36 -0.0398914 0)
(8.37562 -0.0499509 0)
(8.39322 -0.0592323 0)
(8.41216 -0.0676835 0)
(8.43183 -0.0752847 0)
(8.45176 -0.0820462 0)
(8.47159 -0.0880043 0)
(8.49105 -0.0932159 0)
(8.50993 -0.0977539 0)
(8.52809 -0.101702 0)
(8.54547 -0.105147 0)
(8.56199 -0.108181 0)
(8.57766 -0.110892 0)
(8.59246 -0.113363 0)
(8.60641 -0.115675 0)
(8.61956 -0.117901 0)
(8.63192 -0.120106 0)
(8.64353 -0.122352 0)
(8.65445 -0.124693 0)
(8.6647 -0.127177 0)
(8.67433 -0.129846 0)
(8.68337 -0.132737 0)
(8.69184 -0.135883 0)
(8.69979 -0.139312 0)
(8.70723 -0.143047 0)
(8.71417 -0.147106 0)
(8.72063 -0.151504 0)
(8.72663 -0.156249 0)
(8.73215 -0.161349 0)
(8.7372 -0.166792 0)
(8.33345 -0.00769407 0)
(8.33799 -0.0228427 0)
(8.34759 -0.0371925 0)
(8.36105 -0.0504532 0)
(8.37726 -0.0624863 0)
(8.39551 -0.0732257 0)
(8.41513 -0.0826603 0)
(8.4355 -0.090833 0)
(8.45611 -0.0978262 0)
(8.4766 -0.103746 0)
(8.49667 -0.108713 0)
(8.51612 -0.112855 0)
(8.53479 -0.116298 0)
(8.5526 -0.119168 0)
(8.56949 -0.121583 0)
(8.58544 -0.123651 0)
(8.60046 -0.125475 0)
(8.61455 -0.127143 0)
(8.62777 -0.128739 0)
(8.64013 -0.130334 0)
(8.65168 -0.131991 0)
(8.66247 -0.133766 0)
(8.67253 -0.135706 0)
(8.68192 -0.137853 0)
(8.69066 -0.140242 0)
(8.69879 -0.142901 0)
(8.70634 -0.145855 0)
(8.71334 -0.149122 0)
(8.71981 -0.152716 0)
(8.72576 -0.156645 0)
(8.73122 -0.160915 0)
(8.73619 -0.165526 0)
(8.74068 -0.170464 0)
(8.33348 -0.00956964 0)
(8.33836 -0.028364 0)
(8.34863 -0.0460045 0)
(8.36302 -0.0620841 0)
(8.3803 -0.0764529 0)
(8.3997 -0.0890652 0)
(8.42048 -0.0999392 0)
(8.44198 -0.109159 0)
(8.46366 -0.116853 0)
(8.48513 -0.123178 0)
(8.50607 -0.128301 0)
(8.52627 -0.132395 0)
(8.54558 -0.135632 0)
(8.56392 -0.138172 0)
(8.58123 -0.140166 0)
(8.5975 -0.14175 0)
(8.61274 -0.143047 0)
(8.62698 -0.144164 0)
(8.64024 -0.145197 0)
(8.65258 -0.146227 0)
(8.66404 -0.147324 0)
(8.67467 -0.148547 0)
(8.68452 -0.149946 0)
(8.69363 -0.151563 0)
(8.70204 -0.153431 0)
(8.70979 -0.155577 0)
(8.71693 -0.158022 0)
(8.72347 -0.16078 0)
(8.72945 -0.163862 0)
(8.73489 -0.167271 0)
(8.7398 -0.171006 0)
(8.74419 -0.175065 0)
(8.74809 -0.179427 0)
(8.33352 -0.0116546 0)
(8.33884 -0.0344513 0)
(8.35003 -0.0555683 0)
(8.3656 -0.0744143 0)
(8.38417 -0.0908183 0)
(8.40492 -0.104788 0)
(8.42707 -0.116432 0)
(8.4499 -0.125949 0)
(8.47284 -0.133577 0)
(8.49548 -0.139565 0)
(8.51748 -0.144156 0)
(8.53863 -0.147585 0)
(8.55877 -0.150067 0)
(8.5778 -0.151799 0)
(8.59568 -0.152956 0)
(8.6124 -0.153693 0)
(8.62797 -0.154148 0)
(8.64243 -0.154437 0)
(8.65582 -0.154663 0)
(8.66819 -0.154911 0)
(8.6796 -0.155253 0)
(8.69011 -0.15575 0)
(8.69977 -0.156451 0)
(8.70863 -0.157397 0)
(8.71674 -0.158619 0)
(8.72415 -0.160141 0)
(8.73089 -0.161981 0)
(8.73701 -0.16415 0)
(8.74253 -0.166654 0)
(8.74749 -0.169494 0)
(8.75192 -0.172665 0)
(8.75582 -0.176163 0)
(8.75925 -0.179961 0)
(8.3336 -0.0140628 0)
(8.33972 -0.041577 0)
(8.35249 -0.0669819 0)
(8.3701 -0.0895629 0)
(8.39089 -0.109138 0)
(8.41386 -0.12569 0)
(8.43813 -0.139312 0)
(8.46289 -0.150228 0)
(8.48755 -0.158733 0)
(8.51167 -0.165149 0)
(8.53494 -0.169799 0)
(8.55714 -0.172993 0)
(8.57815 -0.175018 0)
(8.59787 -0.176131 0)
(8.61629 -0.176559 0)
(8.63341 -0.176499 0)
(8.64926 -0.176117 0)
(8.66388 -0.175554 0)
(8.67734 -0.174929 0)
(8.68969 -0.174338 0)
(8.70099 -0.173861 0)
(8.71132 -0.173561 0)
(8.72074 -0.173489 0)
(8.7293 -0.173684 0)
(8.73706 -0.174176 0)
(8.74407 -0.174986 0)
(8.75039 -0.176128 0)
(8.75604 -0.17761 0)
(8.76108 -0.179435 0)
(8.76553 -0.181598 0)
(8.76943 -0.184092 0)
(8.77279 -0.186906 0)
(8.77564 -0.190013 0)
(8.33366 -0.0168562 0)
(8.34055 -0.0495128 0)
(8.35493 -0.0789042 0)
(8.37458 -0.104145 0)
(8.3976 -0.125267 0)
(8.42294 -0.142528 0)
(8.44962 -0.156264 0)
(8.47673 -0.166894 0)
(8.5036 -0.17485 0)
(8.52973 -0.180541 0)
(8.55479 -0.184348 0)
(8.57854 -0.186619 0)
(8.60084 -0.187668 0)
(8.62164 -0.187774 0)
(8.64091 -0.187178 0)
(8.65869 -0.18609 0)
(8.67503 -0.184689 0)
(8.68998 -0.183125 0)
(8.70363 -0.181523 0)
(8.71606 -0.179985 0)
(8.72734 -0.178596 0)
(8.73757 -0.17742 0)
(8.7468 -0.17651 0)
(8.75512 -0.175904 0)
(8.76258 -0.175631 0)
(8.76926 -0.17571 0)
(8.77519 -0.176154 0)
(8.78044 -0.176968 0)
(8.78505 -0.178151 0)
(8.78907 -0.179698 0)
(8.79252 -0.181598 0)
(8.79545 -0.183839 0)
(8.79791 -0.186389 0)
(8.33391 -0.0204187 0)
(8.34284 -0.0603412 0)
(8.36084 -0.0965678 0)
(8.38466 -0.127884 0)
(8.41169 -0.154078 0)
(8.44068 -0.175187 0)
(8.47057 -0.191522 0)
(8.50041 -0.203645 0)
(8.52959 -0.212189 0)
(8.55767 -0.217764 0)
(8.58436 -0.220939 0)
(8.60947 -0.222223 0)
(8.63288 -0.222057 0)
(8.65457 -0.220818 0)
(8.67454 -0.218817 0)
(8.69284 -0.216312 0)
(8.70954 -0.213516 0)
(8.72471 -0.210597 0)
(8.73845 -0.207691 0)
(8.75085 -0.204907 0)
(8.76201 -0.202326 0)
(8.77202 -0.200012 0)
(8.78096 -0.198013 0)
(8.78892 -0.196363 0)
(8.79597 -0.195086 0)
(8.80217 -0.194195 0)
(8.8076 -0.193699 0)
(8.8123 -0.193598 0)
(8.81634 -0.193889 0)
(8.81975 -0.194563 0)
(8.82258 -0.195607 0)
(8.82487 -0.197006 0)
(8.82666 -0.198723 0)
(8.33387 -0.0244848 0)
(8.34363 -0.070592 0)
(8.36405 -0.109818 0)
(8.39128 -0.141906 0)
(8.42243 -0.167926 0)
(8.45599 -0.188538 0)
(8.49051 -0.204294 0)
(8.5247 -0.215839 0)
(8.55778 -0.22379 0)
(8.58924 -0.228714 0)
(8.61876 -0.231144 0)
(8.64615 -0.231575 0)
(8.67136 -0.230448 0)
(8.6944 -0.228154 0)
(8.71534 -0.225027 0)
(8.73427 -0.221353 0)
(8.75132 -0.217368 0)
(8.76662 -0.213264 0)
(8.78029 -0.209197 0)
(8.79246 -0.205289 0)
(8.80327 -0.201633 0)
(8.81281 -0.198298 0)
(8.8212 -0.195335 0)
(8.82855 -0.19278 0)
(8.83492 -0.190653 0)
(8.84041 -0.188967 0)
(8.84509 -0.187727 0)
(8.84903 -0.186931 0)
(8.85228 -0.186573 0)
(8.8549 -0.186643 0)
(8.85696 -0.187125 0)
(8.85849 -0.188004 0)
(8.85958 -0.189235 0)
(8.33498 -0.031384 0)
(8.35136 -0.0928848 0)
(8.38049 -0.146435 0)
(8.41523 -0.189917 0)
(8.45211 -0.223688 0)
(8.4902 -0.248553 0)
(8.52833 -0.265826 0)
(8.56541 -0.27698 0)
(8.60081 -0.283291 0)
(8.6341 -0.285828 0)
(8.66503 -0.285495 0)
(8.69346 -0.283029 0)
(8.71938 -0.279024 0)
(8.74284 -0.273956 0)
(8.76397 -0.268203 0)
(8.7829 -0.262066 0)
(8.79979 -0.255782 0)
(8.81482 -0.249533 0)
(8.82815 -0.243463 0)
(8.83993 -0.237677 0)
(8.85032 -0.232256 0)
(8.85944 -0.227254 0)
(8.86743 -0.22271 0)
(8.8744 -0.218648 0)
(8.88043 -0.21508 0)
(8.88563 -0.21201 0)
(8.89005 -0.209438 0)
(8.89379 -0.207358 0)
(8.89688 -0.205765 0)
(8.89941 -0.204648 0)
(8.90141 -0.203995 0)
(8.90295 -0.203796 0)
(8.90408 -0.204 0)
(8.33403 -0.0363848 0)
(8.34991 -0.0990969 0)
(8.38391 -0.14801 0)
(8.42676 -0.187847 0)
(8.47297 -0.220581 0)
(8.5201 -0.245952 0)
(8.56602 -0.264407 0)
(8.60953 -0.276841 0)
(8.65029 -0.284103 0)
(8.68821 -0.287066 0)
(8.72333 -0.28661 0)
(8.75579 -0.283549 0)
(8.78576 -0.278588 0)
(8.81341 -0.272324 0)
(8.83891 -0.265249 0)
(8.86241 -0.25775 0)
(8.88405 -0.250132 0)
(8.90396 -0.242624 0)
(8.92229 -0.235397 0)
(8.93914 -0.228574 0)
(8.95462 -0.222236 0)
(8.96885 -0.216439 0)
(8.98192 -0.211212 0)
(8.99391 -0.206567 0)
(9.00492 -0.202507 0)
(9.01501 -0.199022 0)
(9.02425 -0.196102 0)
(9.03271 -0.193733 0)
(9.04043 -0.191903 0)
(9.04749 -0.190605 0)
(9.05393 -0.189838 0)
(9.05985 -0.189601 0)
(9.06534 -0.189862 0)
(8.3396 -0.0605262 0)
(8.37708 -0.169882 0)
(8.42637 -0.248384 0)
(8.47625 -0.301638 0)
(8.52875 -0.336744 0)
(8.58538 -0.358081 0)
(8.64454 -0.369741 0)
(8.70493 -0.374811 0)
(8.76561 -0.375246 0)
(8.82548 -0.37237 0)
(8.88354 -0.367126 0)
(8.93905 -0.360184 0)
(8.99148 -0.352044 0)
(9.04047 -0.343097 0)
(9.08586 -0.333657 0)
(9.12758 -0.323984 0)
(9.16572 -0.314295 0)
(9.20039 -0.304768 0)
(9.23179 -0.295545 0)
(9.26013 -0.286738 0)
(9.28563 -0.27843 0)
(9.30854 -0.270678 0)
(9.32906 -0.263519 0)
(9.34741 -0.256971 0)
(9.36377 -0.25104 0)
(9.37832 -0.245721 0)
(9.39122 -0.241007 0)
(9.40258 -0.236886 0)
(9.41253 -0.233361 0)
(9.42116 -0.230433 0)
(9.42858 -0.228158 0)
(9.43488 -0.226538 0)
(9.44025 -0.225765 0)
(8.3376 -0.0465515 0)
(8.39351 -0.121032 0)
(8.4938 -0.185104 0)
(8.60865 -0.247002 0)
(8.73057 -0.300233 0)
(8.85406 -0.341635 0)
(8.97221 -0.371929 0)
(9.08088 -0.392002 0)
(9.17786 -0.403003 0)
(9.26194 -0.406513 0)
(9.33285 -0.40415 0)
(9.39102 -0.397372 0)
(9.43733 -0.387438 0)
(9.47288 -0.375394 0)
(9.49888 -0.362077 0)
(9.51655 -0.348142 0)
(9.52708 -0.334089 0)
(9.53154 -0.320287 0)
(9.53088 -0.307 0)
(9.52595 -0.294407 0)
(9.51748 -0.282622 0)
(9.50609 -0.271705 0)
(9.4923 -0.261681 0)
(9.47655 -0.252541 0)
(9.45919 -0.244256 0)
(9.44052 -0.236782 0)
(9.42075 -0.230067 0)
(9.40006 -0.224056 0)
(9.37858 -0.218706 0)
(9.35632 -0.213987 0)
(9.33345 -0.209994 0)
(9.30963 -0.206675 0)
(9.28562 -0.205101 0)
(8.40924 -0.221326 0)
(8.63498 -0.428473 0)
(8.83319 -0.522928 0)
(8.97694 -0.583757 0)
(9.07057 -0.616766 0)
(9.11307 -0.627561 0)
(9.10874 -0.623716 0)
(9.06698 -0.609297 0)
(8.99664 -0.587128 0)
(8.90517 -0.559769 0)
(8.79902 -0.529272 0)
(8.68355 -0.497215 0)
(8.56293 -0.464819 0)
(8.44034 -0.432996 0)
(8.31815 -0.402394 0)
(8.19806 -0.373445 0)
(8.08121 -0.34641 0)
(7.96836 -0.321422 0)
(7.85994 -0.298515 0)
(7.75618 -0.277656 0)
(7.65712 -0.258766 0)
(7.56268 -0.241735 0)
(7.47271 -0.226431 0)
(7.38702 -0.212715 0)
(7.30538 -0.200438 0)
(7.22753 -0.18945 0)
(7.15323 -0.179594 0)
(7.08219 -0.170716 0)
(7.01413 -0.162633 0)
(6.94863 -0.155174 0)
(6.88532 -0.148229 0)
(6.8231 -0.140884 0)
(6.76239 -0.13692 0)
(8.13708 -0.207186 0)
(7.84764 -0.388133 0)
(7.38523 -0.439555 0)
(6.85958 -0.440246 0)
(6.35969 -0.408991 0)
(5.88843 -0.360077 0)
(5.44842 -0.305778 0)
(5.04705 -0.252485 0)
(4.68538 -0.203416 0)
(4.36144 -0.160186 0)
(4.07289 -0.123241 0)
(3.81686 -0.0923575 0)
(3.59019 -0.0669957 0)
(3.38973 -0.0464684 0)
(3.21247 -0.0300537 0)
(3.05563 -0.0170692 0)
(2.91667 -0.00690582 0)
(2.7933 0.00096086 0)
(2.6835 0.00697158 0)
(2.58546 0.0114905 0)
(2.49763 0.0148155 0)
(2.41863 0.0171887 0)
(2.34726 0.0188072 0)
(2.28252 0.0198325 0)
(2.2235 0.0204029 0)
(2.16948 0.0206381 0)
(2.11978 0.0206709 0)
(2.07397 0.0206344 0)
(2.03148 0.0207762 0)
(1.99252 0.0214303 0)
(1.95606 0.0229622 0)
(1.92443 0.0282432 0)
(1.89525 0.0227864 0)
(1.42144 -0.0223962 0)
(1.56257 0.0106956 0)
(1.74349 0.0485124 0)