/*--------------------------------*- C++ -*----------------------------------*\
| =========                 |                                                 |
| \\      /  F ield         | OpenFOAM: The Open Source CFD Toolbox           |
|  \\    /   O peration     | Version:  2.1.1                                 |
|   \\  /    A nd           | Web:      www.OpenFOAM.org                      |
|    \\/     M anipulation  |                                                 |
\*---------------------------------------------------------------------------*/
FoamFile
{
    version     2.0;
    format      ascii;
    class       volScalarField;
    location    "0.155";
    object      nuSgs;
}
// * * * * * * * * * * * * * * * * * * * * * * * * * * * * * * * * * * * * * //

dimensions      [0 2 -1 0 0 0 0];

internalField   nonuniform List<scalar> 
6820
(
0.000556015
0.000457389
0.000368067
0.000305973
0.000268685
0.000242961
0.000223991
0.000209448
0.00019767
0.000187751
0.000179175
0.000171611
0.000164836
0.000158695
0.000153075
0.000147889
0.000143072
0.000138573
0.000134351
0.000130374
0.000126616
0.000123055
0.000119673
0.000116456
0.000113394
0.000110477
0.0001077
0.000105061
0.00010255
0.000100195
9.79617e-05
9.58147e-05
9.36115e-05
0.000103504
0.000170682
0.000223681
0.00024005
0.000235279
0.000224894
0.000213167
0.000201846
0.000191573
0.000182365
0.000174105
0.000166658
0.000159902
0.000153734
0.000148069
0.000142837
0.000137981
0.000133454
0.000129214
0.000125228
0.000121467
0.000117907
0.000114527
0.00011131
0.000108239
0.000105303
0.00010249
9.97851e-05
9.71954e-05
9.46587e-05
9.23243e-05
8.97649e-05
8.83404e-05
3.6774e-05
2.84681e-05
4.56545e-05
8.23833e-05
0.000108071
0.00012371
0.00013218
0.000136069
0.000137204
0.000136656
0.000135069
0.000132838
0.000130213
0.00012736
0.000124386
0.000121363
0.000118337
0.000115341
0.000112395
0.000109512
0.000106701
0.000103964
0.000101306
9.87236e-05
9.62171e-05
9.37834e-05
9.14195e-05
8.91193e-05
8.6883e-05
8.46869e-05
8.2552e-05
8.03436e-05
7.83234e-05
2.07369e-05
2.86755e-05
2.65396e-05
1.50409e-05
3.63469e-06
1.39861e-05
2.58879e-05
3.57889e-05
4.37909e-05
5.01663e-05
5.51886e-05
5.9101e-05
6.21038e-05
6.43544e-05
6.59867e-05
6.7111e-05
6.7818e-05
6.81823e-05
6.82651e-05
6.81166e-05
6.77782e-05
6.72838e-05
6.66611e-05
6.59326e-05
6.51168e-05
6.42281e-05
6.32784e-05
6.22749e-05
6.12258e-05
6.01272e-05
5.89905e-05
5.78077e-05
5.66588e-05
1.44224e-05
1.75746e-05
2.25949e-05
2.42922e-05
2.39639e-05
2.19775e-05
1.90711e-05
1.57832e-05
1.23473e-05
8.9142e-06
5.59341e-06
2.47333e-06
8.28441e-07
3.34338e-06
5.80934e-06
8.05345e-06
1.00722e-05
1.18742e-05
1.34721e-05
1.48796e-05
1.61113e-05
1.7181e-05
1.81019e-05
1.88862e-05
1.95449e-05
2.00873e-05
2.05217e-05
2.08538e-05
2.10893e-05
2.12296e-05
2.12786e-05
2.12451e-05
2.11275e-05
1.09237e-05
1.24868e-05
1.38062e-05
1.4317e-05
1.51064e-05
1.57511e-05
1.61343e-05
1.63476e-05
1.63938e-05
1.62772e-05
1.60211e-05
1.56488e-05
1.51827e-05
1.46377e-05
1.4033e-05
1.33863e-05
1.27134e-05
1.20275e-05
1.13395e-05
1.06583e-05
9.99077e-06
9.34263e-06
8.71825e-06
8.12119e-06
7.55432e-06
7.02022e-06
6.52109e-06
6.05949e-06
5.63721e-06
5.25717e-06
4.92017e-06
4.62393e-06
4.37111e-06
8.25002e-06
9.41842e-06
1.02289e-05
1.00235e-05
9.83347e-06
9.65673e-06
9.47606e-06
9.39353e-06
9.39787e-06
9.44476e-06
9.50709e-06
9.56676e-06
9.61251e-06
9.6418e-06
9.65186e-06
9.64148e-06
9.61082e-06
9.56096e-06
9.4935e-06
9.41035e-06
9.31358e-06
9.20534e-06
9.08776e-06
8.963e-06
8.83315e-06
8.70033e-06
8.56651e-06
8.43383e-06
8.30382e-06
8.17871e-06
8.05892e-06
7.94727e-06
7.8487e-06
6.36855e-06
7.40101e-06
8.19733e-06
8.05539e-06
7.74199e-06
7.40036e-06
7.02122e-06
6.69576e-06
6.44283e-06
6.24193e-06
6.08046e-06
5.94952e-06
5.8403e-06
5.74633e-06
5.66343e-06
5.58859e-06
5.51942e-06
5.45414e-06
5.39146e-06
5.33051e-06
5.27076e-06
5.21194e-06
5.15401e-06
5.09712e-06
5.04154e-06
4.9877e-06
4.93603e-06
4.88713e-06
4.84131e-06
4.79926e-06
4.76089e-06
4.72763e-06
4.70237e-06
5.01063e-06
5.85307e-06
6.52304e-06
6.51027e-06
6.33855e-06
6.12827e-06
5.84286e-06
5.55432e-06
5.30102e-06
5.07929e-06
4.88447e-06
4.71321e-06
4.56079e-06
4.42316e-06
4.29757e-06
4.18194e-06
4.07466e-06
3.97455e-06
3.88074e-06
3.79259e-06
3.70965e-06
3.6316e-06
3.55824e-06
3.48946e-06
3.42525e-06
3.36564e-06
3.31068e-06
3.26046e-06
3.2149e-06
3.17408e-06
3.1377e-06
3.10609e-06
3.0815e-06
4.00778e-06
4.704e-06
5.29048e-06
5.35335e-06
5.24612e-06
5.09456e-06
4.87557e-06
4.64371e-06
4.43644e-06
4.25282e-06
4.08841e-06
3.94107e-06
3.80781e-06
3.68577e-06
3.57304e-06
3.46823e-06
3.37031e-06
3.27847e-06
3.19208e-06
3.11067e-06
3.03389e-06
2.96146e-06
2.8932e-06
2.82897e-06
2.76864e-06
2.71212e-06
2.65925e-06
2.60984e-06
2.56355e-06
2.51999e-06
2.47853e-06
2.43837e-06
2.40051e-06
3.25111e-06
3.83398e-06
4.34858e-06
4.451e-06
4.39063e-06
4.28658e-06
4.12257e-06
3.93502e-06
3.75838e-06
3.59695e-06
3.44937e-06
3.31568e-06
3.19455e-06
3.08402e-06
2.98248e-06
2.88872e-06
2.80167e-06
2.72048e-06
2.64447e-06
2.57311e-06
2.50597e-06
2.4427e-06
2.38302e-06
2.32664e-06
2.27329e-06
2.22267e-06
2.17439e-06
2.12798e-06
2.08279e-06
2.03802e-06
1.99263e-06
1.94517e-06
1.89539e-06
2.66749e-06
3.16119e-06
3.62222e-06
3.75788e-06
3.7414e-06
3.67422e-06
3.5483e-06
3.39153e-06
3.23661e-06
3.09182e-06
2.95767e-06
2.83494e-06
2.72314e-06
2.62086e-06
2.52685e-06
2.44007e-06
2.35963e-06
2.28479e-06
2.2149e-06
2.14945e-06
2.08796e-06
2.03003e-06
1.97524e-06
1.9232e-06
1.87348e-06
1.82559e-06
1.77893e-06
1.73278e-06
1.68626e-06
1.63827e-06
1.58747e-06
1.53212e-06
1.47104e-06
2.20728e-06
2.63314e-06
3.05465e-06
3.21363e-06
3.23082e-06
3.19231e-06
3.09829e-06
2.97063e-06
2.83783e-06
2.70968e-06
2.58809e-06
2.4747e-06
2.37008e-06
2.27367e-06
2.18471e-06
2.1025e-06
2.02635e-06
1.9556e-06
1.88964e-06
1.82792e-06
1.76993e-06
1.71518e-06
1.66316e-06
1.61337e-06
1.56525e-06
1.51814e-06
1.47129e-06
1.42382e-06
1.37466e-06
1.32252e-06
1.26589e-06
1.20298e-06
1.13184e-06
1.83685e-06
2.21216e-06
2.60448e-06
2.7818e-06
2.82812e-06
2.81502e-06
2.74771e-06
2.64413e-06
2.52931e-06
2.41437e-06
2.30283e-06
2.19718e-06
2.09868e-06
2.00735e-06
1.92276e-06
1.84441e-06
1.77173e-06
1.70411e-06
1.64099e-06
1.58183e-06
1.52608e-06
1.47321e-06
1.42266e-06
1.37384e-06
1.32609e-06
1.27867e-06
1.23071e-06
1.18123e-06
1.12907e-06
1.07287e-06
1.01103e-06
9.41918e-07
8.62967e-07
1.53272e-06
1.87185e-06
2.24353e-06
2.43603e-06
2.50678e-06
2.5149e-06
2.46928e-06
2.38601e-06
2.28725e-06
2.18459e-06
2.08256e-06
1.98416e-06
1.89114e-06
1.80403e-06
1.72277e-06
1.64711e-06
1.57666e-06
1.51095e-06
1.44947e-06
1.3917e-06
1.3371e-06
1.28509e-06
1.23509e-06
1.18645e-06
1.13846e-06
1.09032e-06
1.04113e-06
9.89884e-07
9.35406e-07
8.76397e-07
8.11305e-07
7.3877e-07
6.55846e-07
1.2782e-06
1.59334e-06
1.95128e-06
2.15691e-06
2.2487e-06
2.2757e-06
2.24902e-06
2.18359e-06
2.09905e-06
2.00706e-06
1.91303e-06
1.82052e-06
1.73181e-06
1.6479e-06
1.56908e-06
1.49534e-06
1.42641e-06
1.36194e-06
1.30146e-06
1.24448e-06
1.19046e-06
1.13884e-06
1.089e-06
1.04029e-06
9.92003e-07
9.43345e-07
8.9346e-07
8.41403e-07
7.86139e-07
7.26577e-07
6.61452e-07
5.90006e-07
5.09681e-07
1.0612e-06
1.363e-06
1.71315e-06
1.93067e-06
2.0409e-06
2.08475e-06
2.07451e-06
2.02449e-06
1.95245e-06
1.86998e-06
1.78316e-06
1.69602e-06
1.61122e-06
1.53013e-06
1.45333e-06
1.38102e-06
1.3131e-06
1.24933e-06
1.18932e-06
1.13264e-06
1.07879e-06
1.02724e-06
9.77428e-07
9.28726e-07
8.80482e-07
8.32006e-07
7.82572e-07
7.31435e-07
6.77858e-07
6.21209e-07
5.60901e-07
4.97353e-07
4.29826e-07
8.729e-07
1.17119e-06
1.51871e-06
1.74732e-06
1.8739e-06
1.93304e-06
1.93755e-06
1.90132e-06
1.84066e-06
1.76689e-06
1.68661e-06
1.60423e-06
1.52276e-06
1.44393e-06
1.36864e-06
1.2973e-06
1.22998e-06
1.16657e-06
1.10678e-06
1.05025e-06
9.96562e-07
9.45233e-07
8.95765e-07
8.47633e-07
8.00306e-07
7.53261e-07
7.0601e-07
6.58143e-07
6.09404e-07
5.59859e-07
5.09953e-07
4.61584e-07
4.16391e-07
7.06928e-07
1.01132e-06
1.36068e-06
1.59978e-06
1.74101e-06
1.81412e-06
1.83199e-06
1.80814e-06
1.75776e-06
1.69192e-06
1.61757e-06
1.5395e-06
1.46101e-06
1.38417e-06
1.31014e-06
1.23954e-06
1.17263e-06
1.1094e-06
1.0497e-06
9.93269e-07
9.3977e-07
8.88836e-07
8.40077e-07
7.93112e-07
7.47584e-07
7.03196e-07
6.59758e-07
6.17256e-07
5.75948e-07
5.36545e-07
5.00286e-07
4.69702e-07
4.47074e-07
5.59143e-07
8.79535e-07
1.23423e-06
1.48324e-06
1.6376e-06
1.72348e-06
1.75357e-06
1.74102e-06
1.70012e-06
1.64169e-06
1.57293e-06
1.49893e-06
1.42329e-06
1.34834e-06
1.27551e-06
1.20564e-06
1.13916e-06
1.07621e-06
1.01678e-06
9.60712e-07
9.07793e-07
8.57776e-07
8.10411e-07
7.65477e-07
7.22809e-07
6.82345e-07
6.44173e-07
6.08598e-07
5.76218e-07
5.48031e-07
5.25422e-07
5.10513e-07
5.04937e-07
4.2819e-07
7.74488e-07
1.13653e-06
1.39457e-06
1.56058e-06
1.65811e-06
1.69936e-06
1.69711e-06
1.6649e-06
1.61327e-06
1.5496e-06
1.47923e-06
1.40603e-06
1.33258e-06
1.26059e-06
1.19109e-06
1.12471e-06
1.06175e-06
1.00234e-06
9.4645e-07
8.93999e-07
8.44871e-07
7.9895e-07
7.56162e-07
7.16504e-07
6.80079e-07
6.47139e-07
6.18114e-07
5.93658e-07
5.74652e-07
5.62159e-07
5.57476e-07
5.61584e-07
3.18332e-07
6.97458e-07
1.06644e-06
1.33212e-06
1.50829e-06
1.61636e-06
1.66787e-06
1.67513e-06
1.65107e-06
1.60599e-06
1.54736e-06
1.48074e-06
1.41023e-06
1.33865e-06
1.26791e-06
1.19924e-06
1.13344e-06
1.07096e-06
1.01206e-06
9.56848e-07
9.05347e-07
8.57559e-07
8.13487e-07
7.73166e-07
7.36694e-07
7.04251e-07
6.76123e-07
6.52711e-07
6.34526e-07
6.22175e-07
6.16298e-07
6.17587e-07
6.26474e-07
2.46954e-07
6.51806e-07
1.02411e-06
1.29539e-06
1.48004e-06
1.59738e-06
1.65804e-06
1.67372e-06
1.65679e-06
1.6173e-06
1.56276e-06
1.49893e-06
1.43011e-06
1.35938e-06
1.28886e-06
1.22001e-06
1.15381e-06
1.09087e-06
1.03158e-06
9.76162e-07
9.24757e-07
8.7745e-07
8.34314e-07
7.9544e-07
7.60952e-07
7.31023e-07
7.05879e-07
6.85796e-07
6.71087e-07
6.62064e-07
6.59033e-07
6.62187e-07
6.71821e-07
2.46968e-07
6.41803e-07
1.01075e-06
1.28498e-06
1.47639e-06
1.60195e-06
1.67115e-06
1.69502e-06
1.68537e-06
1.65196e-06
1.60229e-06
1.54222e-06
1.47618e-06
1.40742e-06
1.33823e-06
1.27024e-06
1.20456e-06
1.14193e-06
1.08285e-06
1.02765e-06
9.76539e-07
9.29677e-07
8.87183e-07
8.49169e-07
8.15754e-07
7.87064e-07
7.63239e-07
7.44424e-07
7.30759e-07
7.22357e-07
7.19301e-07
7.21637e-07
7.29335e-07
3.22544e-07
6.70311e-07
1.02793e-06
1.30207e-06
1.49821e-06
1.63027e-06
1.70617e-06
1.73611e-06
1.73139e-06
1.70156e-06
1.65418e-06
1.59527e-06
1.52947e-06
1.46026e-06
1.39014e-06
1.32092e-06
1.25385e-06
1.18979e-06
1.12934e-06
1.07287e-06
1.02065e-06
9.72848e-07
9.29585e-07
8.90949e-07
8.57008e-07
8.27816e-07
8.03416e-07
7.83827e-07
7.6905e-07
7.59032e-07
7.53714e-07
7.5289e-07
7.56643e-07
4.44285e-07
7.37506e-07
1.07753e-06
1.34904e-06
1.54888e-06
1.68754e-06
1.77118e-06
1.80899e-06
1.81163e-06
1.78823e-06
1.74613e-06
1.6913e-06
1.62843e-06
1.56107e-06
1.49187e-06
1.42278e-06
1.35522e-06
1.29017e-06
1.22835e-06
1.17025e-06
1.11618e-06
1.06637e-06
1.02096e-06
9.80038e-07
9.43641e-07
9.11782e-07
8.84439e-07
8.61563e-07
8.43077e-07
8.28878e-07
8.18825e-07
8.12832e-07
8.10577e-07
5.95201e-07
8.42501e-07
1.16211e-06
1.42825e-06
1.62867e-06
1.76994e-06
1.85624e-06
1.89591e-06
1.89943e-06
1.876e-06
1.83311e-06
1.77694e-06
1.71234e-06
1.64301e-06
1.5717e-06
1.50041e-06
1.43057e-06
1.36322e-06
1.29904e-06
1.23851e-06
1.18195e-06
1.12954e-06
1.08138e-06
1.03753e-06
9.97967e-07
9.62657e-07
9.3152e-07
9.04446e-07
8.81303e-07
8.61913e-07
8.46102e-07
8.336e-07
8.24369e-07
7.71732e-07
9.83742e-07
1.28388e-06
1.5455e-06
1.74967e-06
1.89944e-06
1.99625e-06
2.04663e-06
2.05988e-06
2.04441e-06
2.00737e-06
1.95485e-06
1.89188e-06
1.82241e-06
1.74949e-06
1.67541e-06
1.6019e-06
1.53018e-06
1.46113e-06
1.39535e-06
1.33323e-06
1.27502e-06
1.22083e-06
1.17072e-06
1.12466e-06
1.08258e-06
1.04438e-06
1.00993e-06
9.79079e-07
9.51675e-07
9.27509e-07
9.06588e-07
8.88243e-07
9.78436e-07
1.16659e-06
1.44996e-06
1.70258e-06
1.90031e-06
2.04396e-06
2.13421e-06
2.17808e-06
2.18563e-06
2.16565e-06
2.12525e-06
2.07033e-06
2.00563e-06
1.93479e-06
1.86058e-06
1.78508e-06
1.70986e-06
1.63606e-06
1.56448e-06
1.49571e-06
1.43013e-06
1.36797e-06
1.30937e-06
1.25437e-06
1.20293e-06
1.15501e-06
1.11048e-06
1.06921e-06
1.03106e-06
9.9583e-07
9.63343e-07
9.33402e-07
9.05792e-07
1.21934e-06
1.3876e-06
1.66062e-06
1.91793e-06
2.13239e-06
2.29895e-06
2.41183e-06
2.47413e-06
2.49443e-06
2.48137e-06
2.44269e-06
2.3853e-06
2.31502e-06
2.23643e-06
2.15307e-06
2.0676e-06
1.98196e-06
1.89754e-06
1.81531e-06
1.7359e-06
1.65972e-06
1.58701e-06
1.51785e-06
1.45226e-06
1.39019e-06
1.33153e-06
1.27617e-06
1.22396e-06
1.17475e-06
1.12842e-06
1.08475e-06
1.04392e-06
1.00478e-06
1.51527e-06
1.68081e-06
1.94251e-06
2.17518e-06
2.35747e-06
2.49281e-06
2.58077e-06
2.62703e-06
2.64002e-06
2.62638e-06
2.59133e-06
2.53959e-06
2.47533e-06
2.40206e-06
2.3227e-06
2.23963e-06
2.15476e-06
2.06961e-06
1.98529e-06
1.90263e-06
1.82222e-06
1.74442e-06
1.66947e-06
1.59744e-06
1.52837e-06
1.46219e-06
1.39881e-06
1.33812e-06
1.28001e-06
1.22433e-06
1.17093e-06
1.11976e-06
1.07028e-06
1.85804e-06
2.00247e-06
2.28217e-06
2.57219e-06
2.82768e-06
3.02693e-06
3.15569e-06
3.21897e-06
3.23059e-06
3.20326e-06
3.14738e-06
3.07159e-06
2.98264e-06
2.88544e-06
2.78354e-06
2.67947e-06
2.57503e-06
2.47147e-06
2.36967e-06
2.27021e-06
2.17348e-06
2.07971e-06
1.98901e-06
1.90143e-06
1.81693e-06
1.73545e-06
1.65689e-06
1.58117e-06
1.50819e-06
1.43795e-06
1.37027e-06
1.3056e-06
1.24226e-06
2.34293e-06
2.51992e-06
2.74473e-06
2.9108e-06
3.04701e-06
3.17348e-06
3.27848e-06
3.35351e-06
3.39674e-06
3.40778e-06
3.38836e-06
3.34265e-06
3.27572e-06
3.19251e-06
3.09746e-06
2.99438e-06
2.88634e-06
2.77579e-06
2.66453e-06
2.55391e-06
2.44488e-06
2.33805e-06
2.23383e-06
2.13241e-06
2.03388e-06
1.93823e-06
1.84541e-06
1.75536e-06
1.66804e-06
1.58345e-06
1.50155e-06
1.4227e-06
1.34595e-06
2.8236e-06
2.96195e-06
3.38859e-06
3.8308e-06
4.16644e-06
4.37616e-06
4.46986e-06
4.47879e-06
4.43299e-06
4.35078e-06
4.24342e-06
4.11897e-06
3.98301e-06
3.83943e-06
3.69122e-06
3.54084e-06
3.39034e-06
3.24137e-06
3.09525e-06
2.95298e-06
2.81526e-06
2.68254e-06
2.55504e-06
2.43281e-06
2.31576e-06
2.20368e-06
2.09634e-06
1.9935e-06
1.89496e-06
1.80069e-06
1.71057e-06
1.62555e-06
1.5435e-06
3.86989e-06
3.99764e-06
3.94238e-06
3.90113e-06
4.03632e-06
4.27439e-06
4.4915e-06
4.63866e-06
4.71305e-06
4.72462e-06
4.68979e-06
4.62647e-06
4.54914e-06
4.4678e-06
4.38871e-06
4.31516e-06
4.2483e-06
4.18796e-06
4.13332e-06
4.08323e-06
4.03654e-06
3.99221e-06
3.94931e-06
3.90711e-06
3.86497e-06
3.82239e-06
3.77896e-06
3.73437e-06
3.68845e-06
3.64124e-06
3.59302e-06
3.54534e-06
3.49726e-06
4.33764e-06
4.94896e-06
5.96064e-06
6.46724e-06
6.60163e-06
6.59322e-06
6.59389e-06
6.70663e-06
6.9607e-06
7.32523e-06
7.75212e-06
8.19837e-06
8.6312e-06
9.02867e-06
9.37831e-06
9.67451e-06
9.91621e-06
1.01053e-05
1.02453e-05
1.03406e-05
1.03959e-05
1.04161e-05
1.04053e-05
1.03677e-05
1.03069e-05
1.02257e-05
1.01269e-05
1.00123e-05
9.88367e-06
9.74219e-06
9.58969e-06
9.42828e-06
9.25997e-06
7.53461e-06
5.82066e-06
4.66431e-06
6.27519e-06
9.00341e-06
1.17058e-05
1.40284e-05
1.59122e-05
1.73575e-05
1.83794e-05
1.90156e-05
1.93141e-05
1.93247e-05
1.90962e-05
1.86753e-05
1.81041e-05
1.74193e-05
1.66526e-05
1.58302e-05
1.49736e-05
1.40999e-05
1.32226e-05
1.23518e-05
1.14952e-05
1.06581e-05
9.84384e-06
9.05444e-06
8.29007e-06
7.55039e-06
6.83188e-06
6.13547e-06
5.4499e-06
4.79243e-06
8.58051e-06
1.47439e-05
1.88504e-05
2.12545e-05
2.23463e-05
2.18811e-05
2.00361e-05
1.72639e-05
1.40315e-05
1.09538e-05
9.01833e-06
9.29364e-06
1.15721e-05
1.47803e-05
1.82278e-05
2.16075e-05
2.4786e-05
2.77058e-05
3.03467e-05
3.2708e-05
3.47992e-05
3.6636e-05
3.82367e-05
3.96205e-05
4.08068e-05
4.18142e-05
4.26607e-05
4.33638e-05
4.39405e-05
4.44121e-05
4.47938e-05
4.51437e-05
4.54507e-05
3.46255e-05
3.72075e-05
4.66369e-05
6.17414e-05
7.74204e-05
9.27864e-05
0.000107141
0.00011978
0.000130518
0.0001394
0.000146539
0.000152099
0.000156268
0.000159232
0.000161164
0.000162224
0.000162553
0.000162273
0.00016149
0.000160296
0.000158767
0.000156969
0.000154954
0.000152769
0.000150452
0.000148031
0.000145534
0.000142976
0.000140378
0.000137742
0.000135072
0.000132457
0.000129906
0.000608434
0.000582495
0.000556878
0.000530426
0.000504442
0.000479243
0.00045487
0.000431591
0.000409586
0.000388911
0.000369578
0.000351571
0.00033484
0.000319317
0.000304921
0.000291567
0.00027917
0.000267646
0.000256916
0.000246904
0.000237543
0.000228769
0.000220526
0.000212762
0.000205432
0.000198494
0.00019191
0.000185645
0.000179659
0.000173932
0.000168335
0.000163404
0.000158914
8.3379e-05
7.85467e-05
7.59336e-05
7.56671e-05
7.8535e-05
8.5313e-05
9.50273e-05
0.000103545
0.000104156
8.78303e-05
7.55232e-05
7.43689e-05
7.37236e-05
7.01756e-05
6.35346e-05
5.60433e-05
5.06896e-05
4.79892e-05
4.62817e-05
4.32176e-05
3.9159e-05
3.89011e-05
4.25059e-05
4.58857e-05
4.59058e-05
4.4909e-05
4.24808e-05
3.74099e-05
3.15763e-05
2.74589e-05
2.61401e-05
2.68654e-05
2.77996e-05
2.79078e-05
2.67449e-05
2.43128e-05
2.11814e-05
1.84488e-05
1.75715e-05
1.9667e-05
2.39657e-05
2.82692e-05
3.07847e-05
3.10132e-05
2.94844e-05
2.70286e-05
2.4324e-05
2.17961e-05
1.96349e-05
1.7852e-05
1.63686e-05
1.50926e-05
1.39545e-05
1.2911e-05
1.19407e-05
1.10374e-05
1.02091e-05
9.50261e-06
9.00886e-06
8.77428e-06
8.81665e-06
9.56963e-06
1.16952e-05
1.61532e-05
2.6821e-05
3.99788e-05
4.77126e-05
4.86943e-05
4.56604e-05
4.02777e-05
3.29873e-05
2.45625e-05
1.59277e-05
8.55608e-06
1.03117e-05
2.21227e-05
3.73204e-05
5.00313e-05
5.41625e-05
4.86127e-05
3.75578e-05
2.63018e-05
1.79818e-05
1.29938e-05
1.02501e-05
8.67252e-06
7.66274e-06
6.97324e-06
6.58169e-06
6.57701e-06
7.10126e-06
8.26604e-06
1.03492e-05
1.42062e-05
2.12753e-05
3.21109e-05
4.12475e-05
4.6068e-05
3.65409e-05
2.88581e-05
0.000112468
0.000107397
0.000102235
9.74099e-05
9.41504e-05
9.44835e-05
9.92579e-05
0.000107512
0.000117285
0.000118779
9.68719e-05
8.13444e-05
7.59417e-05
7.04779e-05
6.31935e-05
5.54112e-05
4.94702e-05
4.57799e-05
4.21908e-05
3.51458e-05
3.09362e-05
3.4377e-05
4.05834e-05
4.1859e-05
3.99124e-05
3.95089e-05
3.74775e-05
3.2564e-05
2.73891e-05
2.42009e-05
2.33318e-05
2.44049e-05
2.63395e-05
2.78649e-05
2.8376e-05
2.78316e-05
2.66952e-05
2.58252e-05
2.60868e-05
2.77005e-05
2.98953e-05
3.14626e-05
3.16662e-05
3.05087e-05
2.84243e-05
2.59309e-05
2.34461e-05
2.12125e-05
1.93021e-05
1.76816e-05
1.62848e-05
1.50525e-05
1.39419e-05
1.29249e-05
1.19856e-05
1.112e-05
1.03359e-05
9.67383e-06
9.2244e-06
9.04003e-06
9.10717e-06
9.78374e-06
1.18674e-05
1.59788e-05
2.6033e-05
4.00541e-05
4.91962e-05
5.08287e-05
4.77019e-05
4.19633e-05
3.42638e-05
2.52346e-05
1.55457e-05
5.85546e-06
8.0362e-06
2.21906e-05
3.88123e-05
5.18978e-05
5.53479e-05
4.87875e-05
3.71235e-05
2.58609e-05
1.78725e-05
1.31737e-05
1.05329e-05
8.94563e-06
7.88217e-06
7.12624e-06
6.68617e-06
6.65946e-06
7.16817e-06
8.31521e-06
1.03743e-05
1.41718e-05
2.10854e-05
3.18859e-05
4.16422e-05
4.69296e-05
4.0591e-05
2.6841e-05
0.000101839
0.000100966
9.84828e-05
9.50633e-05
9.22294e-05
9.19428e-05
9.52697e-05
0.000101826
0.000110023
0.000120325
0.000119725
9.78576e-05
8.00705e-05
7.06392e-05
6.12762e-05
5.16926e-05
4.39247e-05
3.82319e-05
3.0934e-05
2.30218e-05
2.46656e-05
3.32551e-05
3.82088e-05
3.55579e-05
3.50186e-05
3.6713e-05
3.45336e-05
2.95745e-05
2.51771e-05
2.27606e-05
2.20008e-05
2.24877e-05
2.42026e-05
2.64856e-05
2.84164e-05
2.95372e-05
2.99832e-05
3.02176e-05
3.06785e-05
3.14029e-05
3.19748e-05
3.18802e-05
3.0898e-05
2.91599e-05
2.69855e-05
2.47053e-05
2.25517e-05
2.06291e-05
1.89468e-05
1.74714e-05
1.61632e-05
1.49889e-05
1.39229e-05
1.29458e-05
1.20449e-05
1.12188e-05
1.04767e-05
9.85431e-06
9.43868e-06
9.29545e-06
9.38918e-06
9.96601e-06
1.19117e-05
1.57432e-05
2.49755e-05
3.96466e-05
5.04623e-05
5.31075e-05
5.00624e-05
4.40263e-05
3.5984e-05
2.65114e-05
1.61501e-05
5.1731e-06
7.45115e-06
2.33825e-05
4.12241e-05
5.43311e-05
5.66787e-05
4.88362e-05
3.65138e-05
2.53372e-05
1.77756e-05
1.33894e-05
1.08418e-05
9.23579e-06
8.11147e-06
7.27681e-06
6.76284e-06
6.69336e-06
7.19216e-06
8.34148e-06
1.03783e-05
1.40908e-05
2.08101e-05
3.15062e-05
4.18845e-05
4.7684e-05
4.46774e-05
2.62615e-05
7.40892e-05
7.38943e-05
7.265e-05
7.07799e-05
6.93858e-05
7.00995e-05
7.40824e-05
8.15049e-05
9.11322e-05
0.000101867
0.000113363
0.00011194
9.28588e-05
7.39725e-05
6.10863e-05
4.9514e-05
3.87204e-05
2.88818e-05
1.89493e-05
1.69541e-05
2.59123e-05
3.38388e-05
3.16589e-05
2.91759e-05
3.40282e-05
3.58021e-05
3.22431e-05
2.73639e-05
2.39263e-05
2.21134e-05
2.12975e-05
2.11386e-05
2.18367e-05
2.35922e-05
2.59332e-05
2.81194e-05
2.97273e-05
3.07643e-05
3.1369e-05
3.15838e-05
3.13036e-05
3.0434e-05
2.90271e-05
2.72624e-05
2.53509e-05
2.34592e-05
2.16825e-05
2.00553e-05
1.85777e-05
1.72379e-05
1.60218e-05
1.49152e-05
1.39032e-05
1.29722e-05
1.21128e-05
1.13258e-05
1.06235e-05
1.00384e-05
9.65152e-06
9.54316e-06
9.67681e-06
1.01786e-05
1.19161e-05
1.54959e-05
2.37368e-05
3.87218e-05
5.14566e-05
5.55908e-05
5.28941e-05
4.66231e-05
3.82624e-05
2.8462e-05
1.78544e-05
7.63579e-06
9.67743e-06
2.60765e-05
4.46866e-05
5.72093e-05
5.79013e-05
4.85425e-05
3.56458e-05
2.47628e-05
1.77484e-05
1.36713e-05
1.11868e-05
9.5444e-06
8.34814e-06
7.42953e-06
6.83693e-06
6.71156e-06
7.1892e-06
8.34579e-06
1.037e-05
1.39889e-05
2.04816e-05
3.10001e-05
4.19755e-05
4.83295e-05
4.87115e-05
2.72484e-05
2.8016e-05
2.81696e-05
2.77088e-05
2.71094e-05
2.74605e-05
3.00161e-05
3.52179e-05
4.27785e-05
5.26904e-05
6.47937e-05
7.93753e-05
9.32328e-05
9.51359e-05
8.25733e-05
6.59898e-05
5.17925e-05
3.99696e-05
2.96578e-05
2.41223e-05
2.72908e-05
3.17472e-05
2.76439e-05
2.27232e-05
3.03464e-05
3.6226e-05
3.46975e-05
2.98219e-05
2.55766e-05
2.29383e-05
2.13376e-05
2.03287e-05
1.98183e-05
1.98618e-05
2.06749e-05
2.23087e-05
2.43936e-05
2.63735e-05
2.78795e-05
2.87525e-05
2.89829e-05
2.86268e-05
2.77907e-05
2.66171e-05
2.52465e-05
2.37885e-05
2.23168e-05
2.0877e-05
1.94973e-05
1.81959e-05
1.69833e-05
1.58631e-05
1.48313e-05
1.38793e-05
1.29973e-05
1.21791e-05
1.14289e-05
1.07625e-05
1.02106e-05
9.84692e-06
9.76286e-06
9.93564e-06
1.03966e-05
1.18994e-05
1.52386e-05
2.24035e-05
3.71664e-05
5.19039e-05
5.81e-05
5.61903e-05
4.98386e-05
4.1207e-05
3.12125e-05
2.08044e-05
1.21768e-05
1.43771e-05
3.05472e-05
4.92661e-05
6.03953e-05
5.883e-05
4.77993e-05
3.45155e-05
2.41743e-05
1.77956e-05
1.3997e-05
1.15469e-05
9.85626e-06
8.57873e-06
7.56843e-06
6.89345e-06
6.70888e-06
7.16072e-06
8.3266e-06
1.03483e-05
1.3873e-05
2.01064e-05
3.03503e-05
4.18359e-05
4.87772e-05
5.24749e-05
2.9688e-05
5.60737e-06
5.86766e-06
6.42284e-06
7.16024e-06
7.95643e-06
8.68841e-06
9.57957e-06
1.16056e-05
1.65967e-05
2.53659e-05
3.71238e-05
5.13761e-05
6.48221e-05
7.04466e-05
6.62156e-05
5.69701e-05
4.7398e-05
4.00823e-05
3.6345e-05
3.19263e-05
2.16978e-05
1.5703e-05
2.79257e-05
3.66803e-05
3.6676e-05
3.20107e-05
2.72001e-05
2.3844e-05
2.15797e-05
1.9921e-05
1.87562e-05
1.81318e-05
1.80513e-05
1.84872e-05
1.94514e-05
2.08656e-05
2.24687e-05
2.39184e-05
2.49509e-05
2.54585e-05
2.54654e-05
2.50665e-05
2.43706e-05
2.34679e-05
2.24252e-05
2.12941e-05
2.01203e-05
1.89448e-05
1.78019e-05
1.67146e-05
1.5694e-05
1.47412e-05
1.38512e-05
1.30183e-05
1.22402e-05
1.15243e-05
1.08903e-05
1.03685e-05
1.00236e-05
9.9539e-06
1.01604e-05
1.06072e-05
1.18752e-05
1.4952e-05
2.10907e-05
3.49666e-05
5.15167e-05
6.03716e-05
5.99036e-05
5.38065e-05
4.50367e-05
3.50109e-05
2.51419e-05
1.81125e-05
2.10624e-05
3.69881e-05
5.49174e-05
6.36206e-05
5.91882e-05
4.64742e-05
3.31438e-05
2.36393e-05
1.79421e-05
1.43677e-05
1.19235e-05
1.0173e-05
8.8025e-06
7.68909e-06
6.92396e-06
6.67693e-06
7.10243e-06
8.28153e-06
1.03121e-05
1.37498e-05
1.97015e-05
2.95649e-05
4.14137e-05
4.89615e-05
5.58006e-05
3.33081e-05
1.04464e-05
1.09035e-05
1.14177e-05
1.17542e-05
1.16132e-05
1.07018e-05
8.84932e-06
6.1114e-06
4.77373e-06
9.38022e-06
1.69889e-05
2.48004e-05
3.17988e-05
3.77977e-05
4.10578e-05
4.02463e-05
3.61536e-05
3.02665e-05
2.10271e-05
6.76165e-06
1.39525e-05
3.00786e-05
3.83141e-05
3.81432e-05
3.34816e-05
2.84401e-05
2.46656e-05
2.19202e-05
1.97434e-05
1.80265e-05
1.68387e-05
1.62359e-05
1.62025e-05
1.66532e-05
1.74713e-05
1.8553e-05
1.97724e-05
2.09626e-05
2.19501e-05
2.26144e-05
2.2915e-05
2.28749e-05
2.25456e-05
2.19821e-05
2.12351e-05
2.03545e-05
1.93912e-05
1.83931e-05
1.73995e-05
1.64361e-05
1.55162e-05
1.46431e-05
1.38153e-05
1.3031e-05
1.2292e-05
1.16088e-05
1.10043e-05
1.05097e-05
1.01802e-05
1.01155e-05
1.03465e-05
1.08e-05
1.18594e-05
1.46149e-05
1.989e-05
3.22305e-05
5.00349e-05
6.20389e-05
6.38807e-05
5.86296e-05
4.99988e-05
4.01424e-05
3.10299e-05
2.55407e-05
2.96661e-05
4.52852e-05
6.12668e-05
6.6393e-05
5.86312e-05
4.44831e-05
3.16245e-05
2.3239e-05
1.81927e-05
1.47728e-05
1.23139e-05
1.0495e-05
9.02103e-06
7.79446e-06
6.92865e-06
6.61009e-06
7.00641e-06
8.20427e-06
1.02582e-05
1.36228e-05
1.92853e-05
2.86683e-05
4.06762e-05
4.88012e-05
5.84967e-05
3.763e-05
6.30005e-06
6.60074e-06
6.91044e-06
7.08125e-06
6.94892e-06
6.41815e-06
5.58541e-06
4.99321e-06
5.65696e-06
8.43122e-06
1.36022e-05
2.04435e-05
2.65431e-05
2.93079e-05
2.82955e-05
2.47822e-05
2.03597e-05
1.67447e-05
1.88402e-05
2.78975e-05
3.68193e-05
4.05157e-05
3.85968e-05
3.37861e-05
2.89505e-05
2.52051e-05
2.22927e-05
1.9821e-05
1.7715e-05
1.60648e-05
1.49589e-05
1.4427e-05
1.44347e-05
1.49047e-05
1.57264e-05
1.67644e-05
1.7885e-05
1.89639e-05
1.98923e-05
2.05892e-05
2.10113e-05
2.1152e-05
2.1031e-05
2.06809e-05
2.01409e-05
1.94558e-05
1.86738e-05
1.78399e-05
1.69902e-05
1.61487e-05
1.53284e-05
1.45346e-05
1.37688e-05
1.3033e-05
1.23328e-05
1.16815e-05
1.11039e-05
1.0633e-05
1.03162e-05
1.02477e-05
1.04901e-05
1.09636e-05
1.18653e-05
1.42331e-05
1.88297e-05
2.91887e-05
4.7259e-05
6.25765e-05
6.7721e-05
6.42268e-05
5.62617e-05
4.68884e-05
3.87089e-05
3.47762e-05
4.02239e-05
5.50064e-05
6.76033e-05
6.8043e-05
5.68126e-05
4.18341e-05
3.01116e-05
2.30326e-05
1.85311e-05
1.52024e-05
1.27195e-05
1.08241e-05
9.23377e-06
7.88209e-06
6.90423e-06
6.50445e-06
6.86822e-06
8.09045e-06
1.01837e-05
1.34944e-05
1.88756e-05
2.7695e-05
3.96094e-05
4.81936e-05
6.03351e-05
4.20443e-05
4.11061e-06
4.26717e-06
4.40937e-06
4.45498e-06
4.34494e-06
4.12705e-06
4.10052e-06
4.79983e-06
6.48479e-06
8.99698e-06
1.23488e-05
1.70136e-05
2.30852e-05
2.91229e-05
3.32061e-05
3.49139e-05
3.54225e-05
3.66771e-05
3.90046e-05
4.0799e-05
4.01991e-05
3.70005e-05
3.26277e-05
2.85723e-05
2.53064e-05
2.25554e-05
2.00443e-05
1.7756e-05
1.58e-05
1.42807e-05
1.32634e-05
1.27745e-05
1.27932e-05
1.32485e-05
1.40384e-05
1.5045e-05
1.61413e-05
1.72058e-05
1.81397e-05
1.88749e-05
1.93747e-05
1.96301e-05
1.96519e-05
1.94625e-05
1.90929e-05
1.85805e-05
1.79659e-05
1.72875e-05
1.65759e-05
1.58525e-05
1.51297e-05
1.44145e-05
1.3711e-05
1.30242e-05
1.2363e-05
1.17425e-05
1.11893e-05
1.07382e-05
1.04312e-05
1.03521e-05
1.05893e-05
1.10852e-05
1.18917e-05
1.38453e-05
1.78733e-05
2.61759e-05
4.31825e-05
6.13761e-05
7.07082e-05
7.01783e-05
6.37569e-05
5.53886e-05
4.83656e-05
4.60177e-05
5.24468e-05
6.52207e-05
7.28265e-05
6.77848e-05
5.34916e-05
3.87019e-05
2.88059e-05
2.30362e-05
1.89274e-05
1.56519e-05
1.31453e-05
1.11639e-05
9.44387e-06
7.95507e-06
6.85089e-06
6.35615e-06
6.68274e-06
7.93602e-06
1.00861e-05
1.33671e-05
1.84907e-05
2.66936e-05
3.82462e-05
4.70543e-05
6.11025e-05
4.58832e-05
3.16136e-06
3.21241e-06
3.22817e-06
3.16225e-06
3.00668e-06
2.88564e-06
3.1577e-06
4.20591e-06
6.05184e-06
8.51671e-06
1.14248e-05
1.47306e-05
1.86593e-05
2.3336e-05
2.81415e-05
3.21022e-05
3.4779e-05
3.63148e-05
3.66503e-05
3.55161e-05
3.31342e-05
3.02233e-05
2.74303e-05
2.4923e-05
2.25556e-05
2.02175e-05
1.79498e-05
1.58671e-05
1.40774e-05
1.26643e-05
1.16969e-05
1.12221e-05
1.12397e-05
1.16883e-05
1.24617e-05
1.34391e-05
1.45049e-05
1.55542e-05
1.64992e-05
1.72758e-05
1.78481e-05
1.8204e-05
1.83494e-05
1.83012e-05
1.80844e-05
1.77297e-05
1.72703e-05
1.67376e-05
1.61572e-05
1.55474e-05
1.49202e-05
1.42833e-05
1.36427e-05
1.30057e-05
1.23833e-05
1.17927e-05
1.12609e-05
1.08247e-05
1.05238e-05
1.04289e-05
1.06438e-05
1.11529e-05
1.19203e-05
1.35051e-05
1.69669e-05
2.35137e-05
3.81269e-05
5.79385e-05
7.18385e-05
7.55682e-05
7.19165e-05
6.5344e-05
5.9807e-05
5.89203e-05
6.53534e-05
7.44012e-05
7.55503e-05
6.49064e-05
4.86955e-05
3.54593e-05
2.78724e-05
2.32057e-05
1.93526e-05
1.61268e-05
1.35993e-05
1.15184e-05
9.65407e-06
8.01364e-06
6.76634e-06
6.16104e-06
6.44661e-06
7.73932e-06
9.96402e-06
1.32428e-05
1.81477e-05
2.57206e-05
3.66809e-05
4.53641e-05
6.06633e-05
4.84958e-05
2.45619e-06
2.43192e-06
2.35823e-06
2.21156e-06
2.02302e-06
1.99295e-06
2.49943e-06
3.70092e-06
5.47716e-06
7.70455e-06
1.02846e-05
1.30993e-05
1.60507e-05
1.91388e-05
2.23207e-05
2.52853e-05
2.75866e-05
2.88545e-05
2.90864e-05
2.8461e-05
2.72754e-05
2.57677e-05
2.4053e-05
2.2168e-05
2.01496e-05
1.80745e-05
1.60439e-05
1.41557e-05
1.24978e-05
1.11557e-05
1.02161e-05
9.74756e-06
9.76639e-06
1.0217e-05
1.09902e-05
1.19609e-05
1.3014e-05
1.40531e-05
1.50024e-05
1.58078e-05
1.64365e-05
1.68751e-05
1.71255e-05
1.72003e-05
1.71191e-05
1.69065e-05
1.65889e-05
1.61914e-05
1.57349e-05
1.52348e-05
1.47016e-05
1.4143e-05
1.35659e-05
1.29789e-05
1.23948e-05
1.18323e-05
1.13189e-05
1.08921e-05
1.05922e-05
1.04782e-05
1.06554e-05
1.11581e-05
1.19213e-05
1.32443e-05
1.61063e-05
2.13493e-05
3.27725e-05
5.21627e-05
7.00259e-05
7.89441e-05
7.9417e-05
7.56427e-05
7.19945e-05
7.21413e-05
7.70313e-05
8.04802e-05
7.43624e-05
5.90584e-05
4.28828e-05
3.26026e-05
2.73496e-05
2.34659e-05
1.97992e-05
1.66438e-05
1.40914e-05
1.18925e-05
9.869e-06
8.06135e-06
6.6508e-06
5.9151e-06
6.15593e-06
7.49975e-06
9.81723e-06
1.31222e-05
1.78609e-05
2.4829e-05
3.5063e-05
4.32189e-05
5.90459e-05
4.94144e-05
1.86396e-06
1.78172e-06
1.64303e-06
1.44502e-06
1.27097e-06
1.41448e-06
2.14237e-06
3.37852e-06
5.00867e-06
6.96666e-06
9.19681e-06
1.16251e-05
1.414e-05
1.66174e-05
1.89522e-05
2.10313e-05
2.26882e-05
2.37869e-05
2.43023e-05
2.42525e-05
2.36809e-05
2.26678e-05
2.13134e-05
1.97147e-05
1.79599e-05
1.6133e-05
1.43158e-05
1.25891e-05