/*--------------------------------*- C++ -*----------------------------------*\
| =========                 |                                                 |
| \\      /  F ield         | OpenFOAM: The Open Source CFD Toolbox           |
|  \\    /   O peration     | Version:  2.1.1                                 |
|   \\  /    A nd           | Web:      www.OpenFOAM.org                      |
|    \\/     M anipulation  |                                                 |
\*---------------------------------------------------------------------------*/
FoamFile
{
    version     2.0;
    format      ascii;
    class       volScalarField;
    location    "0.155";
    object      p;
}
// * * * * * * * * * * * * * * * * * * * * * * * * * * * * * * * * * * * * * //

dimensions      [0 2 -2 0 0 0 0];

internalField   nonuniform List<scalar> 
6820
(
19.9896
2.15483
-0.851154
-1.03564
-1.20488
-1.12701
-1.06462
-1.06999
-1.10872
-1.16558
-1.23209
-1.30301
-1.37593
-1.44971
-1.52379
-1.59788
-1.67182
-1.74553
-1.81903
-1.89237
-1.96568
-2.03912
-2.11294
-2.18743
-2.26296
-2.33991
-2.41885
-2.50001
-2.58488
-2.67132
-2.76893
-2.8492
-2.99432
13.308
2.33558
-0.540405
-0.837799
-1.08689
-1.10494
-1.07896
-1.09543
-1.13584
-1.18971
-1.25224
-1.31952
-1.3894
-1.46082
-1.53311
-1.60588
-1.67886
-1.75188
-1.82488
-1.89785
-1.97087
-2.04409
-2.11771
-2.19202
-2.26735
-2.3441
-2.42282
-2.50384
-2.58841
-2.67478
-2.77116
-2.86297
-3.0091
10.5927
3.76509
0.479047
-0.276231
-0.74096
-0.933704
-0.986415
-1.03564
-1.09544
-1.16169
-1.2329
-1.3068
-1.38171
-1.45677
-1.5316
-1.60604
-1.68007
-1.75368
-1.82692
-1.89987
-1.97267
-2.04549
-2.11856
-2.19216
-2.26662
-2.3423
-2.4197
-2.49909
-2.58145
-2.6657
-2.7563
-2.84076
-2.93605
8.60656
3.9915
0.899498
0.0425625
-0.426237
-0.698257
-0.821246
-0.91469
-1.00567
-1.09255
-1.17688
-1.25971
-1.34125
-1.42166
-1.50093
-1.5791
-1.65625
-1.73249
-1.80792
-1.88266
-1.95686
-2.03071
-2.10441
-2.17822
-2.25243
-2.32732
-2.40329
-2.48053
-2.55963
-2.63989
-2.72292
-2.80292
-2.8838
6.97016
3.89004
1.29
0.388638
-0.116153
-0.467698
-0.66113
-0.79449
-0.910399
-1.01439
-1.11084
-1.20299
-1.2917
-1.37755
-1.46122
-1.54304
-1.62318
-1.70181
-1.77911
-1.85524
-1.93037
-2.00466
-2.07832
-2.15155
-2.22454
-2.29748
-2.37057
-2.44385
-2.51748
-2.59079
-2.664
-2.73391
-2.80035
5.74651
3.70804
1.53963
0.597437
0.0734262
-0.305404
-0.533963
-0.690371
-0.82265
-0.939706
-1.04605
-1.14578
-1.24077
-1.33188
-1.41974
-1.50491
-1.58776
-1.6686
-1.74763
-1.82507
-1.90107
-1.97578
-2.04936
-2.12191
-2.19354
-2.26429
-2.33415
-2.40298
-2.47057
-2.53619
-2.59947
-2.6586
-2.71422
4.7947
3.42048
1.65565
0.750569
0.238752
-0.14851
-0.407435
-0.589552
-0.740087
-0.870893
-0.98735
-1.09454
-1.19524
-1.29079
-1.3822
-1.47027
-1.55551
-1.63825
-1.71877
-1.79725
-1.87387
-1.94877
-2.02203
-2.09371
-2.16384
-2.23234
-2.29906
-2.36369
-2.42579
-2.48455
-2.53912
-2.58795
-2.63011
4.04749
3.11306
1.70546
0.864829
0.364418
-0.0246228
-0.302478
-0.502074
-0.664883
-0.805455
-0.929808
-1.04328
-1.14912
-1.249
-1.34408
-1.43521
-1.52296
-1.60772
-1.68979
-1.76941
-1.84674
-1.92189
-1.99494
-2.06589
-2.13468
-2.20115
-2.26503
-2.32587
-2.38305
-2.43563
-2.48245
-2.52187
-2.55194
3.45395
2.80809
1.69386
0.933323
0.4552
0.0776126
-0.206855
-0.41826
-0.59134
-0.740986
-0.87316
-0.993023
-1.10408
-1.20828
-1.30691
-1.40093
-1.49103
-1.57767
-1.66119
-1.74184
-1.81979
-1.89513
-1.96791
-2.03808
-2.10554
-2.17004
-2.23122
-2.28855
-2.34127
-2.38835
-2.42842
-2.45976
-2.47974
2.9762
2.52118
1.64429
0.972283
0.523002
0.161081
-0.124454
-0.344023
-0.524887
-0.681455
-0.819783
-0.944847
-1.06027
-1.16819
-1.26998
-1.36668
-1.45902
-1.54748
-1.63243
-1.71412
-1.79271
-1.86829
-1.94088
-2.01041
-2.07671
-2.13951
-2.19837
-2.2527
-2.30168
-2.34424
-2.37892
-2.404
-2.41672
2.58734
2.26001
1.57057
0.985534
0.56852
0.225706
-0.0547065
-0.277355
-0.462871
-0.624403
-0.767775
-0.897499
-1.01705
-1.12857
-1.23349
-1.33285
-1.42739
-1.51766
-1.60402
-1.68673
-1.76598
-1.84183
-1.9143
-1.98328
-2.04859
-2.10992
-2.16682
-2.21868
-2.26466
-2.30371
-2.33441
-2.35519
-2.36343
2.26772
2.02693
1.48355
0.979935
0.597673
0.276125
0.00460431
-0.217943
-0.406204
-0.571369
-0.718766
-0.852398
-0.975495
-1.09018
-1.19788
-1.29964
-1.39622
-1.48817
-1.57588
-1.6596
-1.73952
-1.8157
-1.88814
-1.95674
-2.02131
-2.08152
-2.13694
-2.18696
-2.2308
-2.26748
-2.29573
-2.31419
-2.32064
2.00301
1.82188
1.39135
0.960789
0.613538
0.313856
0.0536177
-0.165985
-0.354817
-0.521972
-0.672174
-0.808892
-0.935015
-1.05254
-1.16283
-1.26689
-1.36546
-1.45909
-1.54816
-1.63293
-1.71359
-1.7902
-1.86276
-1.93118
-1.99527
-2.05473
-2.10915
-2.15799
-2.20054
-2.23596
-2.26319
-2.28112
-2.28804
1.78264
1.64339
1.29959
0.932698
0.619465
0.34167
0.0942209
-0.120339
-0.308129
-0.476122
-0.628275
-0.767475
-0.896197
-1.01625
-1.12889
-1.23508
-1.33552
-1.43074
-1.52113
-1.60695
-1.68837
-1.76549
-1.83831
-1.90674
-1.97064
-2.02973
-2.08365
-2.13196
-2.17405
-2.20927
-2.23676
-2.25575
-2.26499
1.59877
1.48947
1.2122
0.899586
0.618295
0.361656
0.127538
-0.0806251
-0.266097
-0.433885
-0.587124
-0.72813
-0.858958
-0.981183
-1.09594
-1.2041
-1.30633
-1.40311
-1.49483
-1.58174
-1.66403
-1.74179
-1.81504
-1.88374
-1.94775
-2.00687
-2.06082
-2.10922
-2.15165
-2.18759
-2.21646
-2.23777
-2.25072
1.44554
1.35803
1.13179
0.864655
0.61254
0.375876
0.15506
-0.045863
-0.228071
-0.394859
-0.548531
-0.690846
-0.823421
-0.947566
-1.06426
-1.17427
-1.2782
-1.37651
-1.46955
-1.55758
-1.64079
-1.7193
-1.79314
-1.8623
-1.9267
-1.9862
-2.04061
-2.08966
-2.13307
-2.17051
-2.20163
-2.22619
-2.2438
1.31853
1.24713
1.06007
0.830521
0.604426
0.386183
0.178137
-0.0152458
-0.193633
-0.35888
-0.512493
-0.655696
-0.789689
-0.915507
-1.03396
-1.14571
-1.25127
-1.35108
-1.44546
-1.53467
-1.6189
-1.69829
-1.7729
-1.84276
-1.90785
-1.9681
-2.0234
-2.07361
-2.11858
-2.15815
-2.19218
-2.22066
-2.2435
1.21443
1.15509
0.998143
0.79929
0.595896
0.394266
0.198104
0.0121681
-0.162143
-0.325518
-0.47874
-0.622536
-0.757711
-0.885025
-1.00511
-1.11851
-1.22566
-1.32695
-1.42267
-1.5131
-1.59841
-1.67877
-1.75428
-1.82502
-1.89101
-1.95227
-2.00877
-2.06048
-2.10739
-2.1495
-2.18683
-2.21956
-2.24782
1.13078
1.08054
0.946723
0.772654
0.588653
0.40166
0.216226
0.0372897
-0.133004
-0.294426
-0.447122
-0.591364
-0.727595
-0.856312
-0.97797
-1.09298
-1.20172
-1.30451
-1.40164
-1.49335
-1.57985
-1.66132
-1.73791
-1.80972
-1.87685
-1.93938
-1.99738
-2.05092
-2.10009
-2.14502
-2.1859
-2.223
-2.25665
1.06576
1.0224
0.906319
0.752001
0.584198
0.409765
0.233705
0.06105
-0.105539
-0.265125
-0.417306
-0.561951
-0.699179
-0.82924
-0.952417
-1.06901
-1.1793
-1.28358
-1.3821
-1.47512
-1.56284
-1.64547
-1.72319
-1.79616
-1.86453
-1.92845
-1.98807
-2.04355
-2.09508
-2.14289
-2.18727
-2.2286
-2.26732
1.01812
0.979949
0.877334
0.73849
0.583857
0.419852
0.251651
0.0843159
-0.0791401
-0.237244
-0.389139
-0.534341
-0.672681
-0.804182
-0.92897
-1.04723
-1.15917
-1.26504
-1.36507
-1.4595
-1.54857
-1.63249
-1.71149
-1.78577
-1.85554
-1.92101
-1.98239
-2.03993
-2.09389
-2.14458
-2.19236
-2.23768
-2.28101
0.987054
0.952739
0.86018
0.733147
0.588839
0.433114
0.271153
0.108004
-0.0530686
-0.210185
-0.362116
-0.508075
-0.647644
-0.78065
-0.907075
-1.027
-1.14058
-1.24801
-1.34951
-1.44532
-1.5357
-1.62088
-1.70112
-1.77667
-1.8478
-1.91475
-1.97782
-2.0373
-2.09351
-2.14683
-2.19768
-2.24651
-2.29388
0.972174
0.940637
0.855332
0.736924
0.600249
0.450618
0.293131
0.132815
-0.0268998
-0.183819
-0.336409
-0.483627
-0.624837
-0.759696
-0.888055
-1.00991
-1.12535
-1.23454
-1.3377
-1.43505
-1.52688
-1.61345
-1.69505
-1.77198
-1.84452
-1.91301
-1.97776
-2.03913
-2.09748
-2.15322
-2.20679
-2.25865
-2.30934
0.97351
0.943814
0.863379
0.750775
0.619191
0.473492
0.318685
0.159786
0.000370022
-0.157128
-0.310932
-0.459789
-0.602888
-0.739744
-0.870106
-0.993898
-1.11117
-1.22206
-1.32678
-1.42558
-1.51873
-1.60655
-1.68936
-1.76748
-1.84125
-1.91104
-1.97721
-2.04014
-2.10024
-2.15794
-2.2137
-2.26799
-2.32133
0.991425
0.962797
0.885108
0.775672
0.646641
0.50255
0.348341
0.189055
0.0284021
-0.130982
-0.287111
-0.43855
-0.584333
-0.723858
-0.856788
-0.982989
-1.10248
-1.21539
-1.32193
-1.42237
-1.51701
-1.6062
-1.69028
-1.76962
-1.84461
-1.91563
-1.98309
-2.0474
-2.10899
-2.16828
-2.22574
-2.2818
-2.33696
1.02676
0.998457
0.92155
0.812818
0.683927
0.53925
0.383739
0.222516
0.0594178
-0.102757
-0.261866
-0.416337
-0.565097
-0.707459
-0.843028
-0.971636
-1.09329
-1.20811
-1.31633
-1.41823
-1.51416
-1.60447
-1.68956
-1.76983
-1.8457
-1.91758
-1.98592
-2.05114
-2.11369
-2.17401
-2.23255
-2.28977
-2.34614
1.08079
1.05205
0.973905
0.863216
0.731641
0.583535
0.42396
0.258222
0.0903506
-0.0766713
-0.24054
-0.399556
-0.552553
-0.698784
-0.837824
-0.969499
-1.09382
-1.21094
-1.32112
-1.42468
-1.52199
-1.61347
-1.69956
-1.78068
-1.8573
-1.92986
-1.99883
-2.06464
-2.12775
-2.18861
-2.24763
-2.30524
-2.36184
1.15537
1.12546
1.04412
0.929034
0.792417
0.63878
0.47337
0.301701
0.127964
-0.0447341
-0.213985
-0.378002
-0.535562
-0.685884
-0.828529
-0.963325
-1.0903
-1.20965
-1.32165
-1.42667
-1.52514
-1.61752
-1.70426
-1.78586
-1.86281
-1.93559
-2.00467
-2.07053
-2.13363
-2.19443
-2.25335
-2.31083
-2.36728
1.25296
1.22085
1.13358
1.01035
0.864487
0.700894
0.525262
0.343581
0.160365
-0.0210929
-0.198271
-0.369331
-0.533046
-0.688666
-0.835803
-0.97435
-1.10441
-1.22623
-1.34018
-1.4467
-1.54626
-1.63939
-1.7266
-1.80844
-1.88541
-1.95804
-2.02683
-2.09226
-2.1548
-2.21489
-2.27295
-2.32936
-2.38445
1.37712
1.3421
1.24685
1.1133
0.956518
0.781707
0.594815
0.402205
0.208636
0.0175511
-0.16841
-0.347328
-0.517943
-0.679509
-0.831671
-0.974372
-1.10778
-1.23223
-1.34816
-1.45608
-1.55656
-1.65018
-1.73753
-1.81919
-1.89574
-1.96773
-2.0357
-2.10016
-2.16159
-2.22046
-2.27721
-2.33227
-2.38599
1.53202
1.49164
1.38253
1.2308
1.05461
0.860229
0.654574
0.444816
0.236024
0.031661
-0.165696
-0.354249
-0.532897
-0.701065
-0.858562
-1.00549
-1.14214
-1.269
-1.3866
-1.49557
-1.59655
-1.6902
-1.77719
-1.85813
-1.93367
-2.00438
-2.07084
-2.13357
-2.19307
-2.24979
-2.30416
-2.35655
-2.40727
1.72513
1.67998
1.5568
1.38769
1.1936
0.980441
0.755579
0.527186
0.300945
0.0806604
-0.130848
-0.331666
-0.520702
-0.697467
-0.8619
-1.01426
-1.15503
-1.28484
-1.40441
-1.5145
-1.6159
-1.70939
-1.79571
-1.87559
-1.94972
-2.01874
-2.08327
-2.14386
-2.20106
-2.25536
-2.30723
-2.35712
-2.40539
1.96161
1.90175
1.74565
1.53828
1.30814
1.06224
0.808634
0.555862
0.30918
0.0718268
-0.153806
-0.36619
-0.564592
-0.748817
-0.91905
-1.07576
-1.21961
-1.3514
-1.47199
-1.58227
-1.68314
-1.77548
-1.86012
-1.93786
-2.00945
-2.07559
-2.13692
-2.19404
-2.24751
-2.29782
-2.34545
-2.39078
-2.43417
2.26372
2.20143
2.02524
1.79106
1.53007
1.24889
0.959064
0.672323
0.395071
0.131042
-0.117115
-0.347978
-0.561157
-0.756885
-0.935796
-1.0988
-1.24697
-1.38146
-1.50343
-1.61403
-1.71437
-1.8055
-1.88837
-1.96391
-2.03292
-2.09617
-2.15435
-2.2081
-2.25801
-2.30463
-2.34851
-2.39017
-2.43006
2.62107
2.50339
2.24148
1.93583
1.62342
1.30127
0.978112
0.664507
0.364945
0.082043
-0.181994
-0.426058
-0.64999
-0.854183
-1.03943
-1.2068
-1.35757
-1.49308
-1.61471
-1.7238
-1.82163
-1.90943
-1.9883
-2.05928
-2.12327
-2.18112
-2.23357
-2.28128
-2.32488
-2.36491
-2.40194
-2.43646
-2.46904
3.14661
3.05508
2.7554
2.38178
1.98826
1.58222
1.18416
0.807904
0.457101
0.133642
-0.161422
-0.428644
-0.669455
-0.885588
-1.07895
-1.25152
-1.40527
-1.54205
-1.66365
-1.77172
-1.86776
-1.95317
-2.02918
-2.09691
-2.15732
-2.21128
-2.25954
-2.30276
-2.34155
-2.37649
-2.40816
-2.43732
-2.46472
3.63798
3.31506
2.84564
2.42435
2.01108
1.57864
1.15533
0.75464
0.378157
0.0295305
-0.288278
-0.57488
-0.831168
-1.05867
-1.25945
-1.43585
-1.5903
-1.72519
-1.8428
-1.94521
-2.03436
-2.11195
-2.17949
-2.23832
-2.28956
-2.33416
-2.3729
-2.40642
-2.4352
-2.45969
-2.48015
-2.49743
-2.5117
4.93746
4.61488
3.84003
3.13778
2.49795
1.88738
1.33811
0.850421
0.413982
0.0249525
-0.320059
-0.625353
-0.894772
-1.1317
-1.33931
-1.52053
-1.67812
-1.81468
-1.93262
-2.03419
-2.12144
-2.19621
-2.26014
-2.31466
-2.36099
-2.40012
-2.43283
-2.45966
-2.48081
-2.49649
-2.50593
-2.51053
-2.50577
4.94744
4.20147
3.59418
3.12322
2.51851
1.87962
1.28326
0.726924
0.21683
-0.236528
-0.632256
-0.973914
-1.26576
-1.51272
-1.72012
-1.8932
-2.03682
-2.15538
-2.25279
-2.33245
-2.3973
-2.44984
-2.49221
-2.52617
-2.5532
-2.57446
-2.5908
-2.60268
-2.60998
-2.61182
-2.60536
-2.58773
-2.5449
11.1939
6.58536
4.79831
3.9436
2.93669
2.05513
1.34854
0.734112
0.195475
-0.267806
-0.664771
-1.00374
-1.29113
-1.53324
-1.73606
-1.90502
-2.04503
-2.16044
-2.25511
-2.33236
-2.39509
-2.44576
-2.48649
-2.51905
-2.54497
-2.56548
-2.58172
-2.59437
-2.60458
-2.61188
-2.619
-2.62098
-2.62912
-2.89555
-3.31171
-3.9805
-4.62948
-4.7614
-3.686
-1.15609
2.44042
6.0938
8.5976
9.25952
7.55719
3.11919
-4.02726
-13.1568
-22.7545
-31.0891
-37.1746
-40.6827
-41.1368
-38.3301
-33.1286
-26.7371
-19.5818
-12.0277
-5.15706
-0.139084
2.62841
3.41161
2.64359
0.693582
-2.16084
-5.67315
-9.5962
-13.6643
-17.5612
-20.9215
-23.3646
-24.581
-24.4017
-22.86
-20.1609
-16.6176
-12.5876
-8.42267
-4.4222
-0.792923
2.36198
5.01994
7.20539
8.96442
10.3503
11.4165
12.2133
12.787
13.1796
13.4283
13.5656
13.6192
13.6109
13.5556
13.4583
13.3155
13.1099
12.7962
12.127
10.4493
6.86005
0.726798
-7.8933
-17.9838
-27.4661
-34.002
-35.9384
-32.7235
-24.7835
-14.2309
-4.05074
3.4443
7.88543
10.2098
11.4077
12.0669
12.4705
12.7494
12.9618
13.1336
13.2795
13.4089
13.5295
13.6393
13.736
13.7865
13.7734
13.5616
13.0132
11.4392
8.39558
3.29179
-0.570918
-3.03289
-3.35543
-3.9462
-4.47179
-4.4208
-3.204
-0.630821
2.87061
6.37912
8.83784
9.52737
7.74482
3.34735
-3.56209
-12.3237
-21.5356
-29.5886
-35.5019
-38.859
-39.2926
-36.7192
-31.9257
-25.8807
-19.0314
-11.9203
-5.62041
-1.07721
1.46826
2.26759
1.67306
-0.010923
-2.53031
-5.66041
-9.16731
-12.8037
-16.2826
-19.2769
-21.449
-22.5226
-22.3494
-20.9553
-18.5154
-15.3016
-11.627
-7.80148
-4.09217
-0.689894
2.30183
4.85051
6.96815
8.68971
10.0597
11.125
11.9312
12.5209
12.9333
13.2037
13.3628
13.4369
13.447
13.4072
13.3221
13.1874
12.9856
12.6791
12.0588
10.5196
7.18648
1.41961
-6.74229
-16.318
-25.329
-31.5523
-33.4147
-30.3882
-22.8764
-12.9251
-3.38712
3.60485
7.77346
10.0078
11.2046
11.8896
12.3213
12.6233
12.8526
13.0355
13.1871
13.3176
13.4344
13.5358
13.6191
13.6516
13.6162
13.3813
12.8336
11.309
8.48716
3.52118
0.0530166
-2.99443
-3.32245
-3.80695
-4.14612
-3.91199
-2.63634
-0.177347
3.09635
6.34715
8.586
9.10223
7.38069
3.11113
-3.43318
-11.6027
-20.2054
-27.8047
-33.4274
-36.5941
-37.0422
-34.774
-30.4133
-24.7253
-18.2442
-11.6757
-6.00573
-1.93901
0.395378
1.20564
0.764564
-0.679056
-2.8957
-5.67665
-8.80092
-12.0361
-15.122
-17.7695
-19.6836
-20.621
-20.4525
-19.1946
-16.9936
-14.0821
-10.7325
-7.21791
-3.77785
-0.58892
2.24618
4.68741
6.73654
8.41886
9.77095
10.8335
11.6474
12.2517
12.683
12.9741
13.1545
13.2488
13.2769
13.2523
13.1792
13.0527
12.8554
12.5531
11.9729
10.5677
7.50503
2.14222
-5.51082
-14.5218
-23.0219
-28.91
-30.6946
-27.8682
-20.8234
-11.5325
-2.69265
3.76609
7.65489
9.79985
10.9965
11.7078
12.1679
12.4933
12.7397
12.9338
13.0912
13.2227
13.3356
13.4285
13.4982
13.5125
13.4548
13.1958
12.6468
11.1657
8.55869
3.72615
0.667991
-2.97677
-3.22997
-3.55054
-3.6934
-3.31475
-2.06426
0.14703
2.9937
5.79343
7.74516
8.11573
6.40402
2.42299
-3.64078
-11.1047
-18.9133
-25.8667
-31.0662
-34.0358
-34.5637
-32.6091
-28.621
-23.2787
-17.2571
-11.3376
-6.32895
-2.71786
-0.579802
0.232317
-0.0784577
-1.30736
-3.25076
-5.71282
-8.48788
-11.3574
-14.0846
-16.4142
-18.0893
-18.8988
-18.7299
-17.591
-15.6018
-12.9601
-9.90252
-6.67024
-3.47824
-0.489605
2.19519
4.53085
6.51093
8.15238
9.4846
10.5425
11.3624
11.9799
12.4288
12.7399
12.9408
13.0549
13.1008
13.0911
13.03
12.9118
12.719
12.4195
11.8737
10.5996
7.81915
2.89365
-4.20448
-12.6069
-20.5646
-26.1021
-27.8092
-25.1977
-18.6603
-10.0855
-1.98849
3.92019
7.53007
9.5887
10.7857
11.5227
12.0107
12.3595
12.6232
12.8286
12.992
13.1245
13.2335
13.3177
13.3737
13.3696
13.2896
13.0063
12.4545
11.0119
8.6114
3.90893
1.26387
-2.87787
-3.04457
-3.21164
-3.19489
-2.74267
-1.62004
0.216093
2.52125
4.78365
6.35197
6.59521
4.99409
1.36132
-4.10876
-10.8228
-17.8164
-24.0474
-28.7547
-31.5174
-32.0628
-30.2631
-26.526
-21.5698
-16.143
-10.9542
-6.59625
-3.40615
-1.45508
-0.656093
-0.861025
-1.90074
-3.59568
-5.76467
-8.21928
-10.7569
-13.1613
-15.2042
-16.6614
-17.3515
-17.1754
-16.1356
-14.3301
-11.9268
-9.13105
-6.15545
-3.19258
-0.392378
2.14816
4.38033
6.29112
7.89033
9.20086
10.2522
11.0764
11.7057
12.1711
12.5012
12.7219
12.8552
12.9184
12.9234
12.8742
12.7644
12.5767
12.2797
11.7629
10.6146
8.12185
3.65837
-2.84683
-10.6037
-17.9918
-23.1643
-24.7921
-22.4112
-16.4212
-8.6129
-1.292
4.06107
7.39845
9.37482
10.5723
11.3342
11.8498
12.222
12.5031
12.72
12.8895
13.023
13.128
13.2033
13.2456
13.2231
13.121
12.8132
12.2572
10.8474
8.64217
4.06471
1.82541
-2.77615
-2.86572
-2.91657
-2.79514
-2.32843
-1.36868
0.097652
1.87001
3.5585
4.6833
4.76126
3.3408
0.165933
-4.64154
-10.5643
-16.7649
-22.3187
-26.5343
-28.9593
-29.3141
-27.5477
-24.1095
-19.7082
-15.0149
-10.5761
-6.81849
-4.00914
-2.23794
-1.4655
-1.58482
-2.45677
-3.92499
-5.82505
-7.98448
-10.2184
-12.3293
-14.1128
-15.3736
-15.9542
-15.767
-14.8103
-13.1647
-10.9727
-8.41248
-5.67097
-2.92021
-0.297408
2.10477
4.2357
6.07719
7.63295
8.92009
9.9631
10.7899
11.4294
11.91
12.2581
12.4978
12.6497
12.73
12.7495
12.712
12.6109
12.4288
12.1344
11.6405
10.6076
8.39844
4.4112
-1.47065
-8.54944
-15.343
-20.1369
-21.686
-19.5547
-14.1516
-7.1513
-0.623353
4.18272
7.26036
9.15962
10.3574
11.143
11.6855
12.081
12.3797
12.6083
12.7839
12.9185
13.0194
13.0858
13.1142
13.0733
12.9493
12.6168
12.0551
10.6716
8.6479
4.18906
2.3393
-2.66935
-2.70355
-2.6805
-2.50428
-2.05683
-1.24682
-0.0854736
1.26177
2.49371
3.23931
3.12373
1.81241
-0.906908
-4.99011
-10.0546
-15.4092
-20.2483
-23.8887
-25.8856
-26.0667
-24.4987
-21.5868
-17.907
-13.9813
-10.23
-6.99925
-4.53158
-2.93339
-2.19732
-2.24748
-2.97085
-4.23276
-5.88636
-7.77482
-9.72914
-11.5714
-13.1198
-14.2029
-14.6832
-14.4828
-13.5972
-12.0923
-10.0892
-7.74203
-5.21481
-2.66081
-0.205111
2.06449
4.09659
5.869
7.3803
8.64245
9.67537
10.5031
11.1514
11.6458
12.0109
12.2688
12.4387
12.5356
12.5693
12.5434
12.4513
12.2754
11.9846
11.5086
10.577
8.63784
5.12795
-0.110925
-6.48587
-12.6643
-17.0692
-18.5425
-16.6824
-11.9025
-5.73839
-0.000903445
4.28068
7.11618
8.94383
10.1413
10.9491
11.5178
11.9365
12.2529
12.4934
12.6754
12.811
12.908
12.9653
12.9798
12.9205
12.7748
12.4176
11.8487
10.4852
8.62733
4.27981
2.79466
-2.57325
-2.57169
-2.50532
-2.30623
-1.89581
-1.22138
-0.306115
0.714482
1.60336
2.0653
1.80575
0.57817
-1.75841
-5.16195
-9.34856
-13.7911
-17.8359
-20.8881
-22.5875
-22.8102
-21.6234
-19.3212
-16.3356
-13.0813
-9.9138
-7.13819
-4.97786
-3.54433
-2.85057
-2.84505
-3.43745
-4.51304
-5.94183
-7.58217
-9.28131
-10.8792
-12.2141
-13.1357
-13.5237
-13.3089
-12.4845
-11.1042
-9.27066
-7.11661
-4.78577
-2.41434
-0.115928
2.02683
3.96265
5.66642
7.13243
8.36815
9.38929
10.2163
10.8717
11.3788
11.7597
12.035
12.2222
12.3353
12.3832
12.3689
12.2859
12.1169
11.8311
11.3694
10.5236
8.83217
5.7854
1.19364
-4.46249
-10.0114
-14.0204
-15.4243
-13.8588
-9.73138
-4.4126
0.559229
4.35199
6.96655
8.72801
9.92413
10.7527
11.347
11.7888
12.1231
12.3757
12.5643
12.7011
12.7939
12.8422
12.8426
12.7649
12.5978
12.2163
11.639
10.2892
8.58014
4.33574
3.18316
-2.48698
-2.46253
-2.37348
-2.17345
-1.81223
-1.26237
-0.553863
0.201448
0.817457
1.06411
0.712346
-0.423632
-2.43841
-5.28061
-8.71881
-12.3494
-15.6753
-18.2494
-19.7682
-20.0789
-19.2193
-17.4123
-14.9886
-12.2863
-9.61215
-7.2335
-5.35031
-4.07174
-3.42407
-3.37487
-3.85313
-4.76192
-5.98707
-7.40177
-8.86887
-10.2449
-11.3865
-12.1616
-12.4651
-12.2354
-11.4638
-10.194
-8.51252
-6.53367
-4.38283
-2.18076
-0.0303207
1.99123
3.83346
5.46922
6.88931
8.09727
9.10506
9.92968
10.5909
11.1092
11.5049
11.7966
12.0006
12.1295
12.1913
12.1886
12.1151
11.9538
11.6746
11.2256
10.4497
8.97654
6.36238
2.40221
-2.53535
-7.44936
-11.0608
-12.4052
-11.1568
-7.69773
-3.20831
1.04563
4.39566
6.81205
8.5121
9.7056
10.5535
11.173
11.638
11.9904
12.2555
12.4508
12.5889
12.6776
12.7167
12.7031
12.6071
12.419
12.0133
11.4265
10.0848
8.50709
4.35695
3.5003
-2.41474
-2.37851
-2.28284
-2.09696
-1.79062
-1.35314
-0.81726
-0.274815
0.127612
0.210998
-0.201497
-1.24902
-2.99508
-5.38838
-8.24065
-11.2371
-13.9972
-16.1646
-17.4882
-17.8265
-17.2035
-15.7811
-13.8106
-11.5686
-9.31713
-7.2864
-5.65222
-4.51816
-3.91889
-3.83658
-4.21625
-4.97669
-6.01847
-7.229
-8.48586
-9.66123
-10.6283
-11.2712
-11.4977
-11.2529
-10.5271
-9.35547
-7.81072
-5.99086
-4.00506
-1.96008
0.0512467
1.95713
3.70857
5.27713
6.65084
7.8299
8.82284
9.64355
10.309
10.8373
11.2466
11.554
11.7741
11.9184
11.994
12.003
11.9393
11.7866
11.5156
11.0794
10.3594
9.07058
6.84365
3.4769
-0.762961
-5.05026
-8.27057
-9.56887
-8.65339
-5.85704
-2.1517
1.45276
4.41249
6.65296
8.2955
9.48513
10.3514
10.9957
11.4841
11.8552
12.1331
12.3354
12.4748
12.5595
12.5893
12.5617
12.4475
12.2386
11.8094
11.2123
9.87394
8.41017
4.34526
3.74602
-2.35669
-2.31682
-2.22517
-2.06223
-1.81173
-1.47376
-1.08105
-0.709369
-0.474033
-0.513299
-0.962247
-1.92425
-3.44133
-5.46572
-7.8452
-10.3326
-12.6296
-14.4513
-15.5894
-15.9346
-15.4882
-14.3671
-12.7671
-10.9135
-9.02564
-7.29923
-5.88769
-4.88735
-4.33749
-4.23105
-4.52625
-5.15564
-6.03334
-7.06016
-8.12752
-9.12213
-9.93212
-10.4558
-10.6125
-10.3532
-9.66741
-8.58317
-7.16145
-5.48599
-3.65157
-1.75231
0.128308
1.92392
3.58744
5.0898
6.41688
7.56602
8.54275
9.35808
10.0263
10.5633
10.9853
11.3074
11.5429
11.7023
11.7917
11.8126
11.7592
11.616
11.3549
10.9327
10.2579
9.11891
7.22305
4.38908
0.800613
-2.88736
-5.7341
-7.00048
-6.41968
-4.25208
-1.2563
1.78165
4.40457
6.48901
8.07698
9.26175
10.1457
10.8151
11.3275
11.7177
12.0089
12.2186
12.3594
12.44
12.4605
12.4189
12.2865
12.0573
11.6051
10.9973
9.65868
8.29243
4.3042
3.92474
-2.31305
-2.2758
-2.19545
-2.06071
-1.86466
-1.61369
-1.33894
-1.10271
-0.995523
-1.12374
-1.58969
-2.46916
-3.78855
-5.50442
-7.4936
-9.56161
-11.4745
-13.0062
-13.9878
-14.324
-14.0097
-13.1309
-11.8386
-10.3131
-8.73674
-7.27517
-6.0616
-5.18396
-4.68324
-4.56014
-4.78355
-5.29794
-6.02972
-6.89215
-7.78957
-8.62205
-9.29126
-9.70812
-9.80188
-9.52891
-8.87825
-7.87209
-6.56124
-5.01705
-3.32156
-1.55747
0.200387
1.89101
3.46955
4.90686
6.18721
7.30559
8.26488
9.07343
9.74311
10.2876
10.7211
11.0571
11.3076
11.4817
11.5848
11.618
11.5755
11.4427
11.1932
10.7869
10.1507
9.13023
7.50502
5.1256
2.11613
-1.0231
-3.52649
-4.77209
-4.50736
-2.90415
-0.520639
2.039
4.37443
6.31914
7.85475
9.03426
9.93604
10.631
11.1681
11.5784
11.8835
12.1007
12.2432
12.3197
12.3309
12.2753
12.1249
11.8756
11.4012
10.7824
9.44127
8.15771
4.23888
4.04467
-2.28272
-2.25245
-2.1878
-2.08323
-1.93788
-1.76172
-1.58327
-1.45355
-1.44345
-1.63428
-2.10278
-2.90364
-4.05213
-5.50936
-7.17568
-8.8979
-10.4926
-11.7806
-12.6253
-12.9462
-12.7339
-12.0499
-11.0104
-9.76008
-8.44926
-7.21739
-6.17898
-5.41303
-4.96019
-4.8265
-4.98938
-5.40355
-6.00637
-6.72258
-7.46842
-8.15621
-8.69979
-9.02131
-9.05878
-8.77333
-8.15387
-7.21767
-6.00694
-4.58222
-3.01428
-1.37561
0.267003
1.85775
3.3543
4.72784
5.96155
7.04848
7.98921
8.78972
9.45957
10.0103
10.4544
10.8036
11.0684
11.257
11.374
11.4199
11.3889
11.2676
11.0314
10.6433
10.0424
9.11571
7.70381
5.69302
3.1702
0.507226
-1.69475
-2.92445
-2.93498
-1.80767
0.0707897
2.23506
4.3241
6.14141
7.62657
8.80125
9.72165
10.4433
11.0064
11.4376
11.7574
11.9826
12.1269
12.1993
12.2011
12.1315
11.9631
11.6942
11.1983
10.5686
9.22395
8.01018
4.15558
4.11622
-2.26433
-2.24396
-2.19744
-2.12307
-2.02378
-1.91113
-1.81053
-1.76351
-1.82535
-2.05784
-2.51797
-3.24453
-4.24502
-5.48503
-6.88394
-8.32096
-9.65197
-10.7361
-11.4624
-11.7635
-11.6277
-11.0993
-10.2677
-9.24799
-8.16312
-7.12955
-6.24514
-5.57997
-5.17293
-5.03348
-5.14576
-5.47313
-5.96271
-6.54964
-7.16103
-7.72037
-8.15246
-8.38939
-8.37691
-8.08044
-7.48898
-6.61576
-5.49562
-4.17978
-2.72906
-1.20678
0.327668
1.8235
3.24105
4.55222
5.73953
6.79449
7.7157
8.507
9.17585
9.73185
10.1855
10.5472
10.826
11.0289
11.1598
11.2188
11.2003
11.0917
10.8706
10.5029
9.93671
9.08682
7.84028
6.11658
3.98123
1.70874
-0.240276
-1.45176
-1.68122
-0.931989
0.542747
2.38067
4.25416
5.95301
7.38987
8.56109
9.50169
10.2518
10.8423
11.2958
11.6311
11.865
12.0111
12.0794
12.0718
11.9881
11.802
11.5136
10.9973
10.3567
9.00877
7.85388
4.06119
4.1501
-2.25637
-2.24763
-2.22005
-2.17445
-2.11588
-2.05625
-2.01772
-2.03388
-2.14763
-2.4056
-2.84963
-3.50662
-4.37877
-5.43594
-6.61293
-7.81434
-8.92684
-9.84002
-10.4642
-10.7434
-10.6652
-10.2613
-9.59989
-8.77224
-7.87844
-7.01516
-6.26533
-5.69035
-5.3264
-5.18493
-5.25524
-5.50794
-5.89872
-6.37203
-6.86489
-7.31084
-7.64455
-7.80691
-7.75055
-7.44475
-6.87876
-6.06249
-5.02457
-3.80812
-2.46524
-1.05103
0.381892
1.78757
3.1291
4.3794
5.5207
6.54333
7.44421
8.22528
8.89207
9.4523
9.91479
10.2883
10.5807
10.7979
10.9429
11.0157
11.0107
10.9161
10.7117
10.3667
9.83619
9.05328
7.93715
6.43345
4.59523
2.6282
0.88482
-0.301776
-0.69132
-0.230804
0.922309
2.48429
4.16335
5.75042
7.14175
8.31184
9.27508
10.056
10.6763
11.1537
11.5056
11.7486
11.8969
11.961
11.9438
11.846
11.6422
11.3346
10.7987
10.1474
8.7975
7.69222
3.9623
4.1556
-2.25679
-2.26043
-2.25148
-2.2323
-2.20896
-2.19291
-2.20313
-2.26657
-2.41633
-2.68735
-3.10992
-3.70221
-4.46288
-5.36578
-6.35819
-7.36466
-8.29634
-9.06646
-9.60284
-9.85949
-9.82407
-9.51902
-8.99643
-8.3283
-7.59551
-6.87773
-6.24476
-5.74978
-5.42578
-5.28506
-5.32082
-5.50972
-5.81483
-6.18895
-6.57794
-6.92444
-7.17188
-7.26902
-7.17455
-6.86126
-6.31877
-5.55432
-4.59126
-3.46574
-2.22222
-0.908448
0.429171
1.74925
3.01771
4.20872
5.30453
6.29461
7.1745
7.94447
8.60827
9.17189
9.64251
10.0274
10.3331
10.5646
10.7242
10.8114
10.8209
10.7418
10.5559
10.2358
9.74247
9.02194
8.01411
6.68261
5.07178
3.3395
1.76044
0.606895
0.105882
0.344441
1.23188
2.5501
4.04855
5.52954
6.87882
8.05109
9.04041
9.85558
10.5084
11.0119
11.3817
11.6344
11.785
11.8449
11.818
11.7059
11.4844
11.1578
10.6034
9.9415
8.59152
7.52778
3.86397
4.13967
-2.26428
-2.28033
-2.28893
-2.29329
-2.29976
-2.31888
-2.36663
-2.46448
-2.63779
-2.9125
-3.31024
-3.84276
-4.50657
-5.27908
-6.11771
-6.96267
-7.74455
-8.39484
-8.85588
-9.09014
-9.08602
-8.85923
-8.44935
-7.91291
-7.31491
-6.72065
-6.18842
-5.76381
-5.4763
-5.33829
-5.34585
-5.48057
-5.7119
-5.99997
-6.29856
-6.5584
-6.73075
-6.77134
-6.64424
-6.3254
-5.80495
-5.08795
-4.19332
-3.15123
-1.99942
-0.779099
0.46899
1.70779
2.90607
4.03942
5.09037
6.04784
6.90624
7.6644
8.32445
8.89077
9.36896
9.7649
10.0839
10.3299
10.5045
10.6069
10.6321
10.57
10.4043
10.111
9.65658
8.99672
8.0849
6.89579
5.46621
3.91967
2.47573
1.35906
0.776084
0.831188
1.48434
2.57768
3.90521
5.28543
6.59682
7.77564
8.79581
9.64972
10.3389
10.8711
11.2604
11.5236
11.6766
11.7321
11.6952
11.5686
11.3297
10.9841
10.4122
9.73952
8.39195
7.36236
3.76885
4.107
-2.27642
-2.30432
-2.32885
-2.35359
-2.38471
-2.4316
-2.5075
-2.6294
-2.81657
-3.08806
-3.45905
-3.9367
-4.51624
-5.17836
-5.8886
-6.59969
-7.2573
-7.80736
-8.204
-8.41674
-8.43506
-8.26979
-7.95093
-7.52269
-7.03699
-6.54699
-6.10101
-5.73775
-5.48316
-5.34914
-5.33384
-5.42285
-5.59107
-5.80502
-6.02548
-6.21037
-6.31789
-6.30993
-6.15537
-5.833
-5.33355
-4.66033
-3.82856
-2.86325
-1.79629
-0.663078
0.500816
1.66242
2.7933
3.87063
4.87746
5.8024
6.63898
7.38478
8.0405
8.609
9.09441
9.50123
9.83356
10.0944
10.2846
10.4032
10.4453
10.4018
10.2581
9.99334
9.57919
8.97927
8.15671
7.09272
5.81676
4.42663
3.09727
2.0137
1.35918
1.24798
1.68321
2.5636
3.72759
5.01193
6.29024
7.48146
8.53892
9.43769
10.1679
10.7321
11.1428
11.4173
11.573
11.6238
11.5766
11.4351
11.1786
10.8142
10.2257
9.54209
8.19971
7.19715
3.6788
4.05997
-2.29273
-2.3315
-2.37008
-2.41202
-2.46304
-2.53128
-2.62762
-2.76533
-2.95894
-3.22228
-3.56574
-3.99325
-4.49946
-5.06789
-5.67067
-6.2705
-6.82474
-7.29078
-7.63228
-7.82458
-7.85839
-7.74104
-7.49519
-7.15522
-6.76242
-6.35975
-5.98701
-5.67674
-5.45142
-5.32214
-5.28844
-5.33914
-5.45373
-5.60429
-5.75773
-5.87831
-5.93038
-5.88127
-5.7041
-5.38027
-4.90112
-4.26863
-3.4949
-2.60053
-1.61232
-0.560492
0.524094
1.61229
2.67844
3.7014
4.66491
5.55753
6.37213
7.10522
7.75622
8.32659
8.81905
9.23679
9.58273
9.85889
10.0656
10.2014
10.2618
10.2383
10.1183
9.8838
9.51089
8.97004
8.23187
7.28163
6.14158
4.88777
3.655
2.59534
1.87039
1.60082
1.82778
2.50298
3.50849
4.70125
5.95219
7.16355
8.26686
9.21847
9.99589
10.596
11.0304
11.3171
11.4755
11.5213
11.4632
11.3064
11.0322
10.6487
10.0449
9.34984
8.01584
7.03307
3.59633
3.99975
-2.31031
-2.35875
-2.40927
-2.46527
-2.53184
-2.61593
-2.72632
-2.87331
-3.06774
-3.3195
-3.63549
-4.01741
-4.45977
-4.94861
-5.46143
-5.96873
-6.43695
-6.83261
-7.12699
-7.30021
-7.34421
-7.26386
-7.07618
-6.80781
-6.49137
-6.1614
-5.85039
-5.58547
-5.38587
-5.26164
-5.21324
-5.23205
-5.3014
-5.39817
-5.49459
-5.56051
-5.56565
-5.48216
-5.28692
-4.96368
-4.50447
-3.9102
-3.19039
-2.36188
-1.44703
-0.471465
0.538237
1.55653
2.56045
3.53063
4.45169
5.31232
6.10493
6.82516
7.47128
8.04344
8.54305
8.97198
9.33203
9.62426
9.84836
10.0026
10.0826
10.0808
9.9862
9.78336
9.45241
8.96942
8.3109
7.46464
6.44576
5.31045
4.15883
3.11433
2.31766
1.89327
1.91648
2.38966
3.23885
4.34362
5.57414
6.81577
7.97632
8.99087
9.82309
10.4641
10.9246
11.2245
11.3855
11.4257
11.3561
11.1833
10.8912
10.4885
9.87031
9.1633
7.84132
6.87114
3.52307
3.92744
-2.33005
-2.38679
-2.44718
-2.51432
-2.59263
-2.68792
-2.80721
-2.95841
-3.14949
-3.38741
-3.67654
-4.01712
-4.40376
-4.82472
-5.26185
-5.69176
-6.08807
-6.42451
-6.6784
-6.83378
-6.88376
-6.83146
-6.68962
-6.47877
-6.22453
-5.95449
-5.69501
-5.46848
-5.29116
-5.17194
-5.11185
-5.10427
-5.13575
-5.18722
-5.23558
-5.25548
-5.22141
-5.10972
-4.90064
-4.58004
-4.14064
-3.58257
-2.91319
-2.14616
-1.29997
-0.396146
0.542624
1.49417
2.43817
3.35708
4.23657