/*--------------------------------*- C++ -*----------------------------------*\
| =========                 |                                                 |
| \\      /  F ield         | OpenFOAM: The Open Source CFD Toolbox           |
|  \\    /   O peration     | Version:  2.1.1                                 |
|   \\  /    A nd           | Web:      www.OpenFOAM.org                      |
|    \\/     M anipulation  |                                                 |
\*---------------------------------------------------------------------------*/
FoamFile
{
    version     2.0;
    format      ascii;
    class       surfaceScalarField;
    location    "0.155";
    object      phi;
}
// * * * * * * * * * * * * * * * * * * * * * * * * * * * * * * * * * * * * * //

dimensions      [0 3 -1 0 0 0 0];

internalField   nonuniform List<scalar> 
13452
(
4.59957e-05
2.24915e-05
2.96548e-05
1.6341e-05
2.11705e-05
8.48422e-06
1.72596e-05
3.91095e-06
1.5606e-05
1.65364e-06
1.47848e-05
8.21119e-07
1.42597e-05
5.25144e-07
1.38537e-05
4.06039e-07
1.35066e-05
3.47022e-07
1.32031e-05
3.03506e-07
1.29385e-05
2.64662e-07
1.27086e-05
2.29824e-07
1.25093e-05
1.99391e-07
1.23359e-05
1.73402e-07
1.21844e-05
1.51457e-07
1.20514e-05
1.3295e-07
1.19342e-05
1.17258e-07
1.18304e-05
1.0382e-07
1.17382e-05
9.21566e-08
1.16563e-05
8.18658e-08
1.15837e-05
7.26038e-08
1.15197e-05
6.40707e-08
1.14637e-05
5.59872e-08
1.14156e-05
4.80958e-08
1.13755e-05
4.00941e-08
1.13437e-05
3.17891e-08
1.13211e-05
2.25626e-08
1.13082e-05
1.29103e-08
1.13093e-05
-1.02882e-09
1.13184e-05
-9.13135e-09
1.13562e-05
-3.77733e-08
1.13623e-05
-6.13956e-09
-2.10197e-07
1.15725e-05
7.49106e-05
1.80249e-05
7.04029e-05
2.08487e-05
6.3301e-05
1.55861e-05
5.66305e-05
1.05814e-05
5.14959e-05
6.78828e-06
4.78202e-05
4.49675e-06
4.51777e-05
3.16763e-06
4.32263e-05
2.35747e-06
4.17328e-05
1.84058e-06
4.05472e-05
1.48907e-06
3.95773e-05
1.23455e-06
3.87651e-05
1.04199e-06
3.80728e-05
8.9176e-07
3.74743e-05
7.71823e-07
3.69515e-05
6.74277e-07
3.64908e-05
5.93657e-07
3.6082e-05
5.26045e-07
3.57173e-05
4.68563e-07
3.53904e-05
4.19043e-07
3.50965e-05
3.75812e-07
3.48315e-05
3.37538e-07
3.45925e-05
3.03121e-07
3.43769e-05
2.7161e-07
3.41828e-05
2.42149e-07
3.4009e-05
2.13891e-07
3.38547e-05
1.86065e-07
3.37198e-05
1.57536e-07
3.36047e-05
1.27916e-07
3.351e-05
9.37024e-08
3.34413e-05
5.96164e-08
3.33994e-05
4.07057e-09
3.34329e-05
-3.96497e-08
-1.79354e-07
3.34021e-05
7.85206e-05
1.19609e-05
8.23308e-05
1.70385e-05
8.29807e-05
1.49362e-05
8.14516e-05
1.21105e-05
7.89101e-05
9.32983e-06
7.62004e-05
7.20639e-06
7.36548e-05
5.71326e-06
7.1377e-05
4.63529e-06
6.93806e-05
3.83697e-06
6.76413e-05
3.22832e-06
6.6126e-05
2.74983e-06
6.48028e-05
2.36525e-06
6.36431e-05
2.05141e-06
6.26228e-05
1.79219e-06
6.17212e-05
1.57584e-06
6.09213e-05
1.39358e-06
6.02087e-05
1.23867e-06
5.95714e-05
1.10587e-06
5.89994e-05
9.9102e-07
5.84844e-05
8.90794e-07
5.80195e-05
8.02454e-07
5.75989e-05
7.23712e-07
5.72179e-05
6.52595e-07
5.68727e-05
5.87353e-07
5.65603e-05
5.2634e-07
5.62783e-05
4.68013e-07
5.60252e-05
4.10596e-07
5.58005e-05
3.52702e-07
5.56031e-05
2.91044e-07
5.54365e-05
2.26281e-07
5.52938e-05
1.4669e-07
5.51902e-05
6.39852e-08
-5.44687e-08
5.50653e-05
7.81461e-05
8.34136e-06
8.1921e-05
1.32635e-05
8.46146e-05
1.22426e-05
8.62327e-05
1.04925e-05
8.6903e-05
8.65945e-06
8.69777e-05
7.13176e-06
8.66986e-05
5.99234e-06
8.6208e-05
5.12586e-06
8.55976e-05
4.44744e-06
8.49231e-05
3.90279e-06
8.42194e-05
3.45353e-06
8.35094e-05
3.07523e-06
8.28091e-05
2.75169e-06
8.21295e-05
2.47183e-06
8.14771e-05
2.2282e-06
8.08558e-05
2.01486e-06
8.02675e-05
1.82698e-06
7.97128e-05
1.66059e-06
7.91914e-05
1.51241e-06
7.87026e-05
1.37964e-06
7.82452e-05
1.25986e-06
7.7818e-05
1.15092e-06
7.74197e-05
1.05089e-06
7.70491e-05
9.57956e-07
7.67051e-05
8.70331e-07
7.63868e-05
7.86259e-07
7.60936e-05
7.03777e-07
7.58253e-05
6.21028e-07
7.55813e-05
5.35066e-07
7.5363e-05
4.44566e-07
7.51665e-05
3.43194e-07
7.49977e-05
2.32781e-07
1.07745e-07
7.48355e-05
7.89907e-05
6.0065e-06
8.15882e-05
1.0666e-05
8.35126e-05
1.03183e-05
8.49538e-05
9.0513e-06
8.5969e-05
7.64423e-06
8.67064e-05
6.39432e-06
8.72678e-05
5.43098e-06
8.77005e-05
4.69314e-06
8.80357e-05
4.11229e-06
8.82941e-05
3.64441e-06
8.84898e-05
3.25782e-06
8.86336e-05
2.93137e-06
8.87333e-05
2.65198e-06
8.87949e-05
2.41026e-06
8.88245e-05
2.19862e-06
8.88277e-05
2.01166e-06
8.88094e-05
1.84526e-06
8.87738e-05
1.69617e-06
8.87245e-05
1.56171e-06
8.86646e-05
1.43962e-06
8.85965e-05
1.32793e-06
8.85225e-05
1.2249e-06
8.84445e-05
1.12891e-06
8.83641e-05
1.03839e-06
8.82826e-05
9.51795e-07
8.82013e-05
8.6752e-07
8.81213e-05
7.83793e-07
8.80435e-05
6.98813e-07
8.79684e-05
6.1017e-07
8.78969e-05
5.1606e-07
8.78272e-05
4.12905e-07
8.77597e-05
3.00288e-07
1.76847e-07
8.76906e-05
8.04624e-05
4.39006e-06
8.25021e-05
8.62625e-06
8.39844e-05
8.83592e-06
8.50391e-05
7.9966e-06
8.57564e-05
6.927e-06
8.62648e-05
5.88587e-06
8.66659e-05
5.02993e-06
8.70067e-05
4.35233e-06
8.73103e-05
3.80865e-06
8.75883e-05
3.36647e-06
8.78454e-05
3.00074e-06
8.8084e-05
2.69272e-06
8.83064e-05
2.42956e-06
8.85144e-05
2.20229e-06
8.87088e-05
2.00422e-06
8.88903e-05
1.83013e-06
8.90596e-05
1.67594e-06
8.92175e-05
1.53836e-06
8.93645e-05
1.41471e-06
8.95013e-05
1.30273e-06
8.96288e-05
1.20049e-06
8.97474e-05
1.10626e-06
8.98579e-05
1.01847e-06
8.99606e-05
9.35627e-07
9.00561e-05
8.56266e-07
9.01448e-05
7.78912e-07
9.02266e-05
7.01978e-07
9.03015e-05
6.23855e-07
9.03691e-05
5.42604e-07
9.04286e-05
4.56566e-07
9.04782e-05
3.63303e-07
9.05168e-05
2.61649e-07
1.49114e-07
9.05446e-05
8.22334e-05
3.25523e-06
8.38913e-05
6.96834e-06
8.51752e-05
7.55204e-06
8.61037e-05
7.06808e-06
8.67391e-05
6.29163e-06
8.71714e-05
5.4535e-06
8.74886e-05
4.71273e-06
8.774e-05
4.10095e-06
8.79523e-05
3.59638e-06
8.81408e-05
3.17792e-06
8.83138e-05
2.82773e-06
8.84756e-05
2.53095e-06
8.86286e-05
2.27658e-06
8.87743e-05
2.05659e-06
8.89137e-05
1.86482e-06
8.90474e-05
1.69643e-06
8.91758e-05
1.54753e-06
8.92992e-05
1.41498e-06
8.94177e-05
1.29616e-06
8.95316e-05
1.18887e-06
8.96409e-05
1.0912e-06
8.97457e-05
1.00146e-06
8.98461e-05
9.18114e-07
8.99419e-05
8.39734e-07
9.00333e-05
7.64939e-07
9.01198e-05
6.92368e-07
9.02012e-05
6.20624e-07
9.02767e-05
5.48314e-07
9.03454e-05
4.73896e-07
9.0406e-05
3.95994e-07
9.04564e-05
3.12895e-07
9.04946e-05
2.23465e-07
1.25927e-07
9.05178e-05
8.42158e-05
2.45494e-06
8.55474e-05
5.63678e-06
8.66657e-05
6.43378e-06
8.7518e-05
6.21575e-06
8.81375e-05
5.67214e-06
8.8577e-05
5.01401e-06
8.89017e-05
4.38795e-06
8.91554e-05
3.84725e-06
8.93637e-05
3.38816e-06
8.95424e-05
2.99914e-06
8.97013e-05
2.66883e-06
8.98459e-05
2.38638e-06
8.99796e-05
2.14288e-06
9.01047e-05
1.93151e-06
9.02226e-05
1.74687e-06
9.03345e-05
1.58456e-06
9.0441e-05
1.44102e-06
9.05427e-05
1.31329e-06
9.064e-05
1.1989e-06
9.07331e-05
1.09575e-06
9.08223e-05
1.00201e-06
9.09076e-05
9.16079e-07
9.09893e-05
8.36497e-07
9.10671e-05
7.61924e-07
9.11409e-05
6.91093e-07
9.12105e-05
6.22788e-07
9.12753e-05
5.55809e-07
9.13346e-05
4.88999e-07
9.13873e-05
4.2118e-07
9.1432e-05
3.51315e-07
9.14666e-05
2.78291e-07
9.14888e-05
2.01314e-07
1.19603e-07
9.14951e-05
8.63712e-05
1.88246e-06
8.7438e-05
4.56995e-06
8.84056e-05
5.4662e-06
8.91779e-05
5.44347e-06
8.9768e-05
5.08202e-06
9.02066e-05
4.57542e-06
9.05408e-05
4.05377e-06
9.0807e-05
3.58106e-06
9.10277e-05
3.16746e-06
9.12174e-05
2.80939e-06
9.13854e-05
2.50082e-06
9.15374e-05
2.23442e-06
9.1677e-05
2.00332e-06
9.18066e-05
1.80189e-06
9.1928e-05
1.62548e-06
9.20423e-05
1.47021e-06
9.21505e-05
1.33282e-06
9.22532e-05
1.21061e-06
9.23508e-05
1.10126e-06
9.24438e-05
1.00281e-06
9.25323e-05
9.13526e-07
9.26164e-05
8.31906e-07
9.26964e-05
7.5659e-07
9.27719e-05
6.86346e-07
9.2843e-05
6.20038e-07
9.29092e-05
5.5661e-07
9.29699e-05
4.9507e-07
9.30244e-05
4.34515e-07
9.30715e-05
3.74111e-07
9.31096e-05
3.1319e-07
9.31367e-05
2.51198e-07
9.31501e-05
1.87863e-07
1.23423e-07
9.31463e-05
8.86667e-05
1.46576e-06
8.95215e-05
3.71519e-06
9.03555e-05
4.63217e-06
9.10522e-05
4.7468e-06
9.16086e-05
4.52562e-06
9.20399e-05
4.14409e-06
9.2378e-05
3.71564e-06
9.2652e-05
3.30703e-06
9.28815e-05
2.93803e-06
9.30795e-05
2.61138e-06
9.32549e-05
2.32536e-06
9.34136e-05
2.07576e-06
9.35592e-05
1.85771e-06
9.36943e-05
1.66676e-06
9.38208e-05
1.49906e-06
9.39398e-05
1.35123e-06
9.40522e-05
1.22039e-06
9.41587e-05
1.10407e-06
9.42598e-05
1.00014e-06
9.43559e-05
9.0675e-07
9.44471e-05
8.22307e-07
9.45336e-05
7.45399e-07
9.46154e-05
6.74777e-07
9.46924e-05
6.09328e-07
9.47644e-05
5.48053e-07
9.4831e-05
4.90065e-07
9.48915e-05
4.34581e-07
9.4945e-05
3.80946e-07
9.49905e-05
3.28645e-07
9.50263e-05
2.77372e-07
9.50505e-05
2.27061e-07
9.50603e-05
1.77969e-07
1.31057e-07
9.50527e-05
9.10804e-05
1.15662e-06
9.17672e-05
3.02844e-06
9.24851e-05
3.91431e-06
9.31128e-05
4.1191e-06
9.36345e-05
4.00386e-06
9.40546e-05
3.72399e-06
9.43932e-05
3.37712e-06
9.46725e-05
3.02769e-06
9.49091e-05
2.70137e-06
9.51148e-05
2.40577e-06
9.52975e-05
2.14262e-06
9.54629e-05
1.91036e-06
9.56147e-05
1.70592e-06
9.57554e-05
1.52601e-06
9.5887e-05
1.36753e-06
9.60106e-05
1.22762e-06
9.61272e-05
1.10376e-06
9.62376e-05
9.93717e-07
9.63421e-05
8.95562e-07
9.64413e-05
8.07597e-07
9.65353e-05
7.28343e-07
9.66242e-05
6.56505e-07
9.6708e-05
5.90948e-07
9.67866e-05
5.30683e-07
9.68598e-05
4.74854e-07
9.69272e-05
4.22735e-07
9.6988e-05
3.73742e-07
9.70415e-05
3.2745e-07
9.70865e-05
2.83626e-07
9.71216e-05
2.42278e-07
9.71449e-05
2.03726e-07
9.71542e-05
1.68662e-07
1.3846e-07
9.71468e-05
9.35988e-05
9.22478e-07
9.41533e-05
2.47392e-06
9.47705e-05
3.29715e-06
9.53348e-05
3.55473e-06
9.58218e-05
3.51692e-06
9.62282e-05
3.31761e-06
9.6565e-05
3.04028e-06
9.68485e-05
2.7442e-06
9.70919e-05
2.45793e-06
9.73052e-05
2.19252e-06
9.74955e-05
1.95227e-06
9.76681e-05
1.73774e-06
9.78266e-05
1.54742e-06
9.79736e-05
1.37907e-06
9.81108e-05
1.2303e-06
9.82397e-05
1.09877e-06
9.83611e-05
9.82315e-07
9.84759e-05
8.78963e-07
9.85844e-05
7.86971e-07
9.86872e-05
7.04797e-07
9.87845e-05
6.31093e-07
9.88763e-05
5.6468e-07
9.89627e-05
5.04542e-07
9.90436e-05
4.49812e-07
9.91187e-05
3.99769e-07
9.91876e-05
3.53842e-07
9.92497e-05
3.11623e-07
9.93043e-05
2.72887e-07
9.93503e-05
2.37628e-07
9.93864e-05
2.06101e-07
9.94113e-05
1.78898e-07
9.94229e-05
1.57e-07
1.41933e-07
9.94194e-05
9.62132e-05
7.41364e-07
9.66641e-05
2.02303e-06
9.71949e-05
2.76633e-06
9.77019e-05
3.04775e-06
9.8155e-05
3.06379e-06
9.85459e-05
2.92669e-06
9.88789e-05
2.70728e-06
9.91648e-05
2.45834e-06
9.94138e-05
2.20894e-06
9.96341e-05
1.97227e-06
9.98319e-05
1.75446e-06
0.000100012
1.5577e-06
0.000100178
1.38177e-06
0.000100331
1.22535e-06
0.000100475
1.08672e-06
0.00010061
9.64008e-07
0.000100737
8.55385e-07
0.000100856
7.59138e-07
0.00010097
6.73709e-07
0.000101077
5.97712e-07
0.000101178
5.29925e-07
0.000101273
4.69288e-07
0.000101363
4.14899e-07
0.000101447
3.66009e-07
0.000101524
3.22022e-07
0.000101596
2.82502e-07
0.00010166
2.47191e-07
0.000101717
2.16021e-07
0.000101766
1.89156e-07
0.000101805
1.67019e-07
0.000101833
1.50354e-07
0.00010185
1.40286e-07
1.38289e-07
0.000101854
9.89188e-05
5.98311e-07
9.92887e-05
1.65314e-06
9.97462e-05
2.30879e-06
0.000100202
2.59233e-06
0.000100622
2.64296e-06
0.000100997
2.55228e-06
0.000101324
2.37984e-06
0.000101611
2.17155e-06
0.000101865
1.95537e-06
0.000102091
1.74554e-06
0.000102297
1.54935e-06
0.000102484
1.37014e-06
0.000102657
1.20871e-06
0.000102818
1.06452e-06
0.000102968
9.36396e-07
0.000103109
8.22908e-07
0.000103242
7.22533e-07
0.000103368
6.33795e-07
0.000103486
5.5532e-07
0.000103598
4.85868e-07
0.000103703
4.24345e-07
0.000103803
3.69803e-07
0.000103896
3.21448e-07
0.000103984
2.78638e-07
0.000104065
2.40886e-07
0.000104139
2.0787e-07
0.000104207
1.79445e-07
0.000104268
1.55661e-07
0.00010432
1.36786e-07
0.000104364
1.23335e-07
0.000104398
1.161e-07
0.000104422
1.16218e-07
1.24981e-07
0.000104435
0.000101713
4.83008e-07
0.00010202
1.34648e-06
0.000102416
1.91286e-06
0.000102825
2.18268e-06
0.000103216
2.25227e-06
0.000103574
2.19456e-06
0.000103894
2.05908e-06
0.000104181
1.88501e-06
0.000104438
1.6982e-06
0.000104671
1.513e-06
0.000104883
1.33731e-06
0.000105078
1.1752e-06
0.000105258
1.02819e-06
0.000105426
8.96372e-07
0.000105584
7.79036e-07
0.000105732
6.75109e-07
0.000105871
5.83349e-07
0.000106002
5.02495e-07
0.000106126
4.31341e-07
0.000106243
3.68785e-07
0.000106354
3.13848e-07
0.000106458
2.65688e-07
0.000106556
2.23607e-07
0.000106647
1.87054e-07
0.000106732
1.55634e-07
0.000106811
1.29111e-07
0.000106883
1.07421e-07
0.000106948
9.06842e-08
0.000107006
7.92199e-08
0.000107055
7.35609e-08
0.000107097
7.44692e-08
0.00010713
8.29932e-08
1.00172e-07
0.000107155
0.000104595
3.88239e-07
0.000104852
1.08916e-06
0.000105197
1.56822e-06
0.000105567
1.81316e-06
0.00010593
1.88921e-06
0.000106271
1.85313e-06
0.000106585
1.7456e-06
0.00010687
1.59958e-06
0.00010713
1.43817e-06
0.000107368
1.27518e-06
0.000107587
1.11862e-06
0.000107789
9.7293e-07
0.000107977
8.40123e-07
0.000108153
7.2071e-07
0.000108317
6.1436e-07
0.000108472
5.20288e-07
0.000108618
4.37484e-07
0.000108756
3.64869e-07
0.000108886
3.01388e-07
0.000109008
2.46058e-07
0.000109124
1.98006e-07
0.000109233
1.5648e-07
0.000109336
1.20865e-07
0.000109432
9.06872e-08
0.000109522
6.56186e-08
0.000109606
4.54853e-08
0.000109683
3.02711e-08
0.000109754
2.01245e-08
0.000109818
1.5368e-08
0.000109875
1.64985e-08
0.000109925
2.41855e-08
0.000109969
3.93243e-08
6.26703e-08
0.000110006
0.000107565
3.08859e-07
0.000107784
8.70345e-07
0.000108087
1.26588e-06
0.000108421
1.4783e-06
0.00010876
1.55092e-06
0.000109086
1.52699e-06
0.000109392
1.43947e-06
0.000109676
1.31568e-06
0.000109938
1.17575e-06
0.000110181
1.03244e-06
0.000110406
8.93491e-07
0.000110616
7.63409e-07
0.000110811
6.4444e-07
0.000110995
5.37374e-07
0.000111167
4.42135e-07
0.000111329
3.58152e-07
0.000111482
2.846e-07
0.000111626
2.20547e-07
0.000111763
1.6506e-07
0.000111891
1.17259e-07
0.000112013
7.63589e-08
0.000112128
4.16834e-08
0.000112236
1.26843e-08
0.000112338
-1.10539e-08
0.000112433
-2.98129e-08
0.000112522
-4.37296e-08
0.000112605
-5.28025e-08
0.000112682
-5.68871e-08
0.000112754
-5.56965e-08
0.000112819
-4.88077e-08
0.000112879
-3.568e-08
0.000112934
-1.5602e-08
1.19104e-08
0.000112984
0.000110625
2.41115e-07
0.000110813
6.81503e-07
0.000111081
9.98027e-07
0.000111387
1.17292e-06
0.000111703
1.23435e-06
0.000112016
1.2147e-06
0.000112315
1.14027e-06
0.000112597
1.03337e-06
0.000112862
9.11133e-07
0.000113109
7.84958e-07
0.000113341
6.62015e-07
0.000113557
5.46611e-07
0.000113761
4.41022e-07
0.000113952
3.46162e-07
0.000114132
2.621e-07
0.000114302
1.88405e-07
0.000114462
1.24375e-07
0.000114613
6.91886e-08
0.000114756
2.20036e-08
0.000114892
-1.79794e-08
0.00011502
-5.14784e-08
0.00011514
-7.91094e-08
0.000115254
-1.01371e-07
0.000115362
-1.18642e-07
0.000115463
-1.31171e-07
0.000115559
-1.39087e-07
0.000115648
-1.4239e-07
0.000115732
-1.40968e-07
0.000115811
-1.34594e-07
0.000115885
-1.22942e-07
0.000115955
-1.05616e-07
0.000116022
-8.20997e-08
-5.21595e-08
0.000116086
0.000113774
1.82206e-07
0.00011394
5.159e-07
0.00011418
7.57941e-07
0.000114461
8.92077e-07
0.000114759
9.36303e-07
0.000115059
9.14424e-07
0.000115352
8.47088e-07
0.000115634
7.52262e-07
0.000115901
6.44162e-07
0.000116153
5.3264e-07
0.000116391
4.24072e-07
0.000116615
3.22362e-07
0.000116826
2.29638e-07
0.000117026
1.46795e-07
0.000117214
7.39369e-08
0.000117392
1.06959e-08
0.00011756
-4.35642e-08
0.000117718
-8.95985e-08
0.000117869
-1.28188e-07
0.000118011
-1.60079e-07
0.000118145
-1.85942e-07
0.000118272
-2.06352e-07
0.000118393
-2.21776e-07
0.000118507
-2.32569e-07
0.000118615
-2.38972e-07
0.000118717
-2.41114e-07
0.000118813
-2.39023e-07
0.000118905
-2.32631e-07
0.000118992
-2.21786e-07
0.000119075
-2.06268e-07
0.000119156
-1.85825e-07
0.000119234
-1.6012e-07
-1.2912e-07
0.000119311
0.000117017
1.29982e-07
0.000117164
3.68134e-07
0.000117382
5.39783e-07
0.000117643
6.31125e-07
0.000117926
6.53447e-07
0.000118217
6.23977e-07
0.000118505
5.58625e-07
0.000118786
4.71581e-07
0.000119056
3.74347e-07
0.000119313
2.75137e-07
0.000119558
1.79366e-07
0.00011979
9.03779e-08
0.00012001
9.99401e-09
0.000120217
-6.10359e-08
0.000120414
-1.22671e-07
0.0001206
-1.75296e-07
0.000120776
-2.19537e-07
0.000120942
-2.56129e-07
0.0001211
-2.85826e-07
0.000121249
-3.09347e-07
0.000121391
-3.27337e-07
0.000121525
-3.4035e-07
0.000121652
-3.48835e-07
0.000121772
-3.53141e-07
0.000121887
-3.53511e-07
0.000121996
-3.50094e-07
0.0001221
-3.42952e-07
0.000122199
-3.3207e-07
0.000122295
-3.17376e-07
0.000122387
-2.98756e-07
0.000122478
-2.76087e-07
0.000122567
-2.49199e-07
-2.18216e-07
0.000122656
0.000120353
8.27424e-08
0.000120488
2.33784e-07
0.000120689
3.3844e-07
0.000120934
3.85643e-07
0.000121206
3.82366e-07
0.000121489
3.40865e-07
0.000121774
2.73136e-07
0.000122056
1.90108e-07
0.000122329
1.00787e-07
0.000122593
1.17256e-08
0.000122845
-7.27287e-08
0.000123085
-1.49921e-07
0.000123313
-2.18463e-07
0.00012353
-2.77868e-07
0.000123736
-3.28248e-07
0.000123931
-3.7008e-07
0.000124115
-4.04038e-07
0.00012429
-4.3088e-07
0.000124455
-4.51371e-07
0.000124612
-4.66227e-07
0.000124761
-4.7609e-07
0.000124902
-4.81509e-07
0.000125036
-4.82934e-07
0.000125164
-4.80718e-07
0.000125285
-4.75118e-07
0.000125402
-4.66309e-07
0.000125513
-4.54391e-07
0.00012562
-4.39408e-07
0.000125724
-4.2136e-07
0.000125826
-4.00224e-07
0.000125926
-3.75985e-07
0.000126025
-3.48597e-07
-3.18281e-07
0.000126125
0.000123787
3.90979e-08
0.000123911
1.09137e-07
0.000124101
1.49353e-07
0.000124335
1.51392e-07
0.000124598
1.19528e-07
0.000124876
6.23094e-08
0.000125161
-1.14878e-08
0.000125445
-9.3743e-08
0.000125723
-1.77733e-07
0.000125993
-2.58549e-07
0.000126254
-3.32986e-07
0.000126503
-3.99181e-07
0.000126741
-4.56289e-07
0.000126967
-5.04184e-07
0.000127182
-5.43218e-07
0.000127386
-5.74029e-07
0.000127579
-5.97395e-07
0.000127763
-6.14142e-07
0.000127936
-6.25075e-07
0.000128101
-6.30938e-07
0.000128257
-6.32388e-07
0.000128406
-6.29987e-07
0.000128547
-6.24196e-07
0.000128682
-6.15382e-07
0.00012881
-6.03825e-07
0.000128934
-5.89726e-07
0.000129053
-5.73227e-07
0.000129168
-5.54422e-07
0.00012928
-5.33375e-07
0.00012939
-5.10139e-07
0.000129498
-4.84783e-07
0.000129607
-4.57371e-07
-4.28187e-07
0.000129717
0.00012732
-2.13068e-09
0.000127438
-9.01888e-09
0.000127619
-3.16425e-08
0.000127846
-7.57804e-08
0.000128104
-1.38783e-07
0.000128382
-2.14852e-07
0.000128668
-2.97854e-07
0.000128956
-3.82118e-07
0.000129242
-4.63004e-07
0.00012952
-5.37217e-07
0.00012979
-6.02741e-07
0.000130049
-6.58589e-07
0.000130298
-7.04547e-07
0.000130534
-7.40941e-07
0.00013076
-7.68445e-07
0.000130974
-7.87921e-07
0.000131176
-8.00304e-07
0.000131369
-8.06532e-07
0.000131551
-8.07483e-07
0.000131724
-8.03954e-07
0.000131889
-7.96638e-07
0.000132045
-7.86122e-07
0.000132193
-7.72889e-07
0.000132335
-7.57328e-07
0.000132471
-7.3974e-07
0.000132602
-7.20356e-07
0.000132728
-6.99352e-07
0.00013285
-6.76862e-07
0.00013297
-6.52999e-07
0.000133088
-6.27868e-07
0.000133205
-6.01591e-07
0.000133321
-5.74283e-07
-5.4624e-07
0.00013344
0.000130955
-4.20479e-08
0.000131069
-1.23641e-07
0.000131246
-2.08526e-07
0.000131471
-3.0003e-07
0.000131728
-3.9644e-07
0.000132007
-4.94023e-07
0.000132298
-5.88847e-07
0.000132594
-6.77404e-07
0.000132888
-7.56983e-07
0.000133176
-8.25872e-07
0.000133457
-8.83287e-07
0.000133727
-9.2919e-07
0.000133987
-9.64082e-07
0.000134235
-9.88823e-07
0.000134471
-1.00448e-06
0.000134695
-1.01219e-06
0.000134908
-1.01311e-06
0.00013511
-1.00831e-06
0.000135301
-9.98785e-07
0.000135482
-9.854e-07
0.000135655
-9.689e-07
0.000135819
-9.49911e-07
0.000135975
-9.28943e-07
0.000136124
-9.06409e-07
0.000136267
-8.82635e-07
0.000136404
-8.57874e-07
0.000136537
-8.32329e-07
0.000136666
-8.06163e-07
0.000136793
-7.79521e-07
0.000136918
-7.52543e-07
0.000137041
-7.25383e-07
0.000137165
-6.98203e-07
-6.71296e-07
0.00013729
0.000134695
-8.16168e-08
0.000134809
-2.37512e-07
0.000134985
-3.85215e-07
0.000135211
-5.2572e-07
0.000135472
-6.57805e-07
0.000135758
-7.79331e-07
0.000136057
-8.88243e-07
0.000136363
-9.82983e-07
0.000136668
-1.06268e-06
0.00013697
-1.12717e-06
0.000137263
-1.17697e-06
0.000137547
-1.21304e-06
0.00013782
-1.23669e-06
0.00013808
-1.24938e-06
0.000138328
-1.25264e-06
0.000138564
-1.24796e-06
0.000138788
-1.23674e-06
0.000139
-1.22025e-06
0.000139201
-1.19959e-06
0.000139391
-1.17575e-06
0.000139572
-1.14951e-06
0.000139743
-1.12157e-06
0.000139907
-1.09245e-06
0.000140063
-1.0626e-06
0.000140213
-1.03235e-06
0.000140357
-1.00199e-06
0.000140496
-9.71721e-07
0.000140632
-9.41725e-07
0.000140764
-9.12157e-07
0.000140895
-8.83162e-07
0.000141024
-8.54895e-07
0.000141154
-8.27506e-07
-8.0123e-07
0.000141284
0.000138542
-1.21852e-07
0.000138658
-3.53467e-07
0.000138839
-5.65736e-07
0.000139071
-7.57364e-07
0.00013934
-9.27376e-07
0.000139636
-1.07495e-06
0.000139947
-1.19973e-06
0.000140266
-1.30202e-06
0.000140586
-1.38273e-06
0.000140902
-1.44331e-06
0.000141211
-1.48558e-06
0.00014151
-1.51161e-06
0.000141797
-1.52356e-06
0.000142071
-1.52358e-06
0.000142332
-1.51371e-06
0.00014258
-1.49585e-06
0.000142815
-1.47168e-06
0.000143037
-1.44268e-06
0.000143248
-1.41014e-06
0.000143447
-1.37511e-06
0.000143636
-1.33849e-06
0.000143815
-1.301e-06
0.000143986
-1.26321e-06
0.000144149
-1.22559e-06
0.000144305
-1.18848e-06
0.000144455
-1.15218e-06
0.000144601
-1.11688e-06
0.000144742
-1.08278e-06
0.00014488
-1.05001e-06
0.000145015
-1.01873e-06
0.000145149
-9.89065e-07
0.000145283
-9.61175e-07
-9.35244e-07
0.000145417
0.000142501
-1.63872e-07
0.000142622
-4.74665e-07
0.000142811
-7.54751e-07
0.000143055
-1.0005e-06
0.000143338
-1.21108e-06
0.00014365
-1.38686e-06
0.00014398
-1.52908e-06
0.000144317
-1.63987e-06
0.000144657
-1.72201e-06
0.000144992
-1.77858e-06
0.000145319
-1.81285e-06
0.000145636
-1.82806e-06
0.000145939
-1.82734e-06
0.000146229
-1.81358e-06
0.000146505
-1.78943e-06
0.000146767
-1.75722e-06
0.000147014
-1.71895e-06
0.000147248
-1.67637e-06
0.000147468
-1.63091e-06
0.000147677
-1.58378e-06
0.000147874
-1.53593e-06
0.000148062
-1.48814e-06
0.000148239
-1.44101e-06
0.000148409
-1.39502e-06
0.000148571
-1.35051e-06
0.000148726
-1.30777e-06
0.000148877
-1.267e-06
0.000149022
-1.22834e-06
0.000149164
-1.19194e-06
0.000149303
-1.15788e-06
0.00014944
-1.12626e-06
0.000149576
-1.09718e-06
-1.07071e-06
0.000149712
0.000146574
-2.08854e-07
0.000146704
-6.04439e-07
0.000146906
-9.5699e-07
0.000147166
-1.26043e-06
0.000147469
-1.5142e-06
0.000147802
-1.71994e-06
0.000148154
-1.88064e-06
0.000148515
-2.00037e-06
0.000148876
-2.08382e-06
0.000149234
-2.13588e-06
0.000149582
-2.16129e-06
0.000149919
-2.16458e-06
0.000150241
-2.14992e-06
0.000150549
-2.12103e-06
0.00015084
-2.08118e-06
0.000151116
-2.0332e-06
0.000151377
-1.97948e-06
0.000151623
-1.92202e-06
0.000151854
-1.86245e-06
0.000152072
-1.80209e-06
0.000152278
-1.74199e-06
0.000152473
-1.68297e-06
0.000152658
-1.62567e-06
0.000152833
-1.57056e-06
0.000153001
-1.51798e-06
0.000153161
-1.46819e-06
0.000153316
-1.42136e-06
0.000153465
-1.37762e-06
0.00015361
-1.33704e-06
0.000153752
-1.2997e-06
0.000153891
-1.26564e-06
0.000154029
-1.23491e-06
-1.20754e-06
0.000154166
0.000150765
-2.58534e-07
0.000150909
-7.47665e-07
0.000151131
-1.17981e-06
0.000151417
-1.54615e-06
0.000151749
-1.84656e-06
0.000152114
-2.08418e-06
0.000152497
-2.26392e-06
0.000152889
-2.39209e-06
0.000153281
-2.47565e-06
0.000153666
-2.52146e-06
0.000154041
-2.53599e-06
0.000154401
-2.5252e-06
0.000154746
-2.49439e-06
0.000155073
-2.44819e-06
0.000155382
-2.39058e-06
0.000155674
-2.3249e-06
0.000155949
-2.25393e-06
0.000156207
-2.17994e-06
0.000156449
-2.10475e-06
0.000156677
-2.02981e-06
0.000156891
-1.95625e-06
0.000157093
-1.88492e-06
0.000157284
-1.81646e-06
0.000157464
-1.75134e-06
0.000157636
-1.68987e-06
0.0001578
-1.63228e-06
0.000157958
-1.57869e-06
0.000158109
-1.52916e-06
0.000158256
-1.48373e-06
0.000158399
-1.44238e-06
0.000158538
-1.40507e-06
0.000158675
-1.37177e-06
-1.34234e-06
0.00015881
0.000155077
-3.14317e-07
0.000155238
-9.08478e-07
0.000155487
-1.42862e-06
0.000155804
-1.86324e-06
0.000156171
-2.21352e-06
0.000156572
-2.4847e-06
0.000156992
-2.68392e-06
0.00015742
-2.82003e-06
0.000157846
-2.90242e-06
0.000158265
-2.94015e-06
0.000158671
-2.94158e-06
0.00015906
-2.91423e-06
0.00015943
-2.86468e-06
0.00015978
-2.79857e-06
0.00016011
-2.72065e-06
0.00016042
-2.63485e-06
0.000160711
-2.54435e-06
0.000160983
-2.45174e-06
0.000161237
-2.35904e-06
0.000161475
-2.26781e-06
0.000161698
-2.17924e-06
0.000161907
-2.09422e-06
0.000162104
-2.01339e-06
0.00016229
-1.93716e-06
0.000162466
-1.86582e-06
0.000162633
-1.79953e-06
0.000162793
-1.73836e-06
0.000162946
-1.6823e-06
0.000163093
-1.63132e-06
0.000163236
-1.58532e-06
0.000163376
-1.5442e-06
0.000163512
-1.50788e-06
-1.47613e-06
0.000163645
0.000159517
-3.8047e-07
0.000159706
-1.09793e-06
0.000159997
-1.71951e-06
0.000160364
-2.23044e-06
0.000160785
-2.6342e-06
0.000161239
-2.93912e-06
0.000161711
-3.15565e-06
0.000162187
-3.29617e-06
0.000162658
-3.37327e-06
0.000163117
-3.39859e-06
0.000163558
-3.38263e-06
0.000163978
-3.33464e-06
0.000164376
-3.26255e-06
0.00016475
-3.17304e-06
0.000165101
-3.07162e-06
0.000165429
-2.96281e-06
0.000165735
-2.8502e-06
0.00016602
-2.73664e-06
0.000166285
-2.62434e-06
0.000166532
-2.51496e-06
0.000166763
-2.40973e-06
0.000166978
-2.30954e-06
0.00016718
-2.21498e-06
0.000167369
-2.12645e-06
0.000167547
-2.04415e-06
0.000167716
-1.96816e-06
0.000167876
-1.89847e-06
0.000168029
-1.83499e-06
0.000168175
-1.77758e-06
0.000168316
-1.72606e-06
0.000168452
-1.68019e-06
0.000168584
-1.63977e-06
-1.60441e-06
0.000168712
0.000164082
-4.56728e-07
0.000164302
-1.31803e-06
0.000164637
-2.05444e-06
0.000165057
-2.65001e-06
0.000165536
-3.11275e-06
0.000166051
-3.4543e-06
0.000166584
-3.68848e-06
0.000167119
-3.83168e-06
0.000167646
-3.90017e-06
0.000168156
-3.90873e-06
0.000168644
-3.87044e-06
0.000169106
-3.79666e-06
0.00016954
-3.69693e-06
0.000169946
-3.57915e-06
0.000170325
-3.44974e-06
0.000170676
-3.31382e-06
0.000171001
-3.17543e-06
0.000171302
-3.03768e-06
0.00017158
-2.90293e-06
0.000171838
-2.77292e-06
0.000172077
-2.64886e-06
0.0001723
-2.53162e-06
0.000172506
-2.42171e-06
0.000172699
-2.31943e-06
0.00017288
-2.22489e-06
0.00017305
-2.13807e-06
0.00017321
-2.05886e-06
0.000173362
-1.98706e-06
0.000173507
-1.92244e-06
0.000173646
-1.86473e-06
0.000173779
-1.81361e-06
0.000173908
-1.7688e-06
-1.72982e-06
0.000174034
0.000168796
-5.60484e-07
0.000169082
-1.60478e-06
0.000169506
-2.47767e-06
0.00017002
-3.16418e-06
0.00017059
-3.68339e-06
0.00017119
-4.05445e-06
0.0001718
-4.29751e-06
0.000172403
-4.4347e-06
0.000172989
-4.48658e-06
0.000173551
-4.4711e-06
0.000174085
-4.40395e-06
0.000174587
-4.29847e-06
0.000175055
-4.16575e-06
0.000175491
-4.01484e-06
0.000175894
-3.853e-06
0.000176267
-3.68596e-06
0.000176609
-3.51815e-06
0.000176925
-3.35293e-06
0.000177214
-3.1928e-06
0.000177481
-3.03951e-06
0.000177726
-2.89429e-06
0.000177953
-2.7579e-06
0.000178162
-2.63077e-06
0.000178355
-2.51307e-06
0.000178535
-2.4048e-06
0.000178703
-2.3058e-06
0.00017886
-2.21583e-06
0.000179008
-2.13456e-06
0.000179147
-2.06165e-06
0.000179279
-1.99669e-06
0.000179404
-1.93924e-06
0.000179524
-1.88886e-06
-1.84488e-06
0.000179639
0.000173624
-6.72702e-07
0.000173957
-1.93789e-06
0.000174452
-2.97283e-06
0.000175059
-3.77129e-06
0.000175737
-4.36194e-06
0.000176451
-4.76822e-06
0.000177172
-5.01788e-06
0.000177879
-5.14166e-06
0.000178559
-5.16656e-06
0.000179203
-5.11532e-06
0.000179806
-5.00735e-06
0.000180366
-4.85877e-06
0.000180883
-4.68259e-06
0.000181358
-4.48921e-06
0.000181791
-4.28678e-06
0.000182187
-4.0816e-06
0.000182547
-3.87841e-06
0.000182875
-3.68069e-06
0.000183173
-3.49095e-06
0.000183445
-3.31087e-06
0.000183692
-3.14152e-06
0.000183917
-2.98352e-06
0.000184124
-2.83709e-06
0.000184313
-2.70222e-06
0.000184487
-2.5787e-06
0.000184647
-2.4662e-06
0.000184796
-2.36431e-06
0.000184934
-2.27259e-06
0.000185063
-2.19055e-06
0.000185184
-2.11772e-06
0.000185298
-2.05359e-06
0.000185407
-1.99768e-06
-1.94915e-06
0.000185511
0.000178683
-8.87416e-07
0.000179194
-2.44899e-06
0.000179872
-3.65036e-06
0.000180636
-4.53578e-06
0.000181446
-5.1717e-06
0.000182269
-5.59087e-06
0.00018308
-5.82955e-06
0.000183865
-5.926e-06
0.00018461
-5.91203e-06
0.000185309
-5.81443e-06
0.000185958
-5.65607e-06
0.000186555
-5.45573e-06
0.000187101
-5.22838e-06
0.000187597
-4.98578e-06
0.000188048
-4.73699e-06
0.000188455
-4.48883e-06
0.000188823
-4.24628e-06
0.000189155
-4.01288e-06
0.000189455
-3.79105e-06
0.000189726
-3.58229e-06
0.000189972
-3.38745e-06
0.000190196
-3.20685e-06
0.000190399
-3.04047e-06
0.000190585
-2.88801e-06
0.000190755
-2.74901e-06
0.000190912
-2.6229e-06
0.000191057
-2.50907e-06
0.000191191
-2.40689e-06
0.000191316
-2.31576e-06
0.000191433
-2.23509e-06
0.000191544
-2.16435e-06
0.00019165
-2.10301e-06
-2.05009e-06
0.000191751
0.000183747
-1.06679e-06
0.000184342
-3.04372e-06
0.00018518
-4.48854e-06
0.000186158
-5.51407e-06
0.000187194
-6.20809e-06
0.000188225
-6.62195e-06
0.000189217
-6.82143e-06
0.000190155
-6.86367e-06
0.000191032
-6.78939e-06
0.000191849
-6.63058e-06
0.000192606
-6.41309e-06
0.000193307
-6.15692e-06
0.000193956
-5.87745e-06
0.000194557
-5.58649e-06
0.000195112
-5.29294e-06
0.000195627
-5.00344e-06
0.000196104
-4.7228e-06
0.000196545
-4.4544e-06
0.000196955
-4.20049e-06
0.000197335
-3.96245e-06
0.000197688
-3.74096e-06
0.000198018
-3.53619e-06
0.000198325
-3.34794e-06
0.000198613
-3.17574e-06
0.000198883
-3.01893e-06
0.000199137
-2.87677e-06
0.000199376
-2.74849e-06
0.000199602
-2.63335e-06
0.000199817
-2.53072e-06
0.000200022
-2.44002e-06
0.000200219
-2.36104e-06
0.000200409
-2.29331e-06
-2.23696e-06
0.000200596
0.000189419
-1.67372e-06
0.000190411
-4.03567e-06
0.000191499
-5.5767e-06
0.000192666
-6.68126e-06
0.000193918
-7.46018e-06
0.000195233
-7.93721e-06
0.000196591
-8.17893e-06
0.000197967
-8.23974e-06
0.000199336
-8.15807e-06
0.000200674
-7.96848e-06
0.000201962
-7.70122e-06
0.000203186