/*--------------------------------*- C++ -*----------------------------------*\
| =========                 |                                                 |
| \\      /  F ield         | OpenFOAM: The Open Source CFD Toolbox           |
|  \\    /   O peration     | Version:  2.1.1                                 |
|   \\  /    A nd           | Web:      www.OpenFOAM.org                      |
|    \\/     M anipulation  |                                                 |
\*---------------------------------------------------------------------------*/
FoamFile
{
    version     2.0;
    format      ascii;
    class       volVectorField;
    location    "0.155";
    object      U;
}
// * * * * * * * * * * * * * * * * * * * * * * * * * * * * * * * * * * * * * //

dimensions      [0 1 -1 0 0 0 0];

internalField   nonuniform List<vector> 
6820
(
(6.37593 0.503775 0)
(4.42393 0.286915 0)
(2.97254 0.0202711 0)
(2.2325 -0.0618239 0)
(1.96595 -0.0598719 0)
(1.83798 -0.0344322 0)
(1.76176 -0.0150203 0)
(1.70819 -0.00465005 0)
(1.66322 4.94399e-05 0)
(1.62381 0.00156022 0)
(1.58937 0.00155011 0)
(1.55941 0.000954784 0)
(1.53343 0.000207169 0)
(1.51087 -0.000503694 0)
(1.4912 -0.00110511 0)
(1.47399 -0.0015817 0)
(1.45883 -0.00194396 0)
(1.44543 -0.00221134 0)
(1.43355 -0.00240439 0)
(1.423 -0.00254186 0)
(1.41362 -0.00264012 0)
(1.40532 -0.00271332 0)
(1.39802 -0.00277407 0)
(1.39169 -0.00283322 0)
(1.38631 -0.00290274 0)
(1.38193 -0.00298775 0)
(1.37855 -0.00311088 0)
(1.37647 -0.00322778 0)
(1.37528 -0.00345596 0)
(1.37709 -0.00340925 0)
(1.37619 -0.00470321 0)
(1.39011 0.000774964 0)
(1.36434 -0.0255201 0)
(8.72021 0.959735 0)
(8.76441 1.01219 0)
(7.96757 0.679406 0)
(7.05268 0.394392 0)
(6.34993 0.203044 0)
(5.84156 0.104066 0)
(5.47739 0.0587141 0)
(5.21357 0.0383456 0)
(5.01512 0.0292811 0)
(4.85984 0.0248838 0)
(4.73432 0.0223045 0)
(4.63018 0.0204917 0)
(4.54202 0.0190517 0)
(4.46625 0.0178189 0)
(4.40034 0.0167128 0)
(4.34247 0.0156922 0)
(4.29127 0.0147356 0)
(4.2457 0.0138298 0)
(4.20493 0.0129647 0)
(4.16832 0.012131 0)
(4.13535 0.0113183 0)
(4.10561 0.0105148 0)
(4.07876 0.00970529 0)
(4.05457 0.00887182 0)
(4.03283 0.00798851 0)
(4.01343 0.00703243 0)
(3.9963 0.00594238 0)
(3.9815 0.00473918 0)
(3.96898 0.00314624 0)
(3.95934 0.0016534 0)
(3.95205 -0.00174068 0)
(3.95148 -0.00268101 0)
(3.95296 -0.0116579 0)
(8.58612 0.583612 0)
(9.3312 0.762771 0)
(9.61387 0.660926 0)
(9.50284 0.527651 0)
(9.23504 0.398399 0)
(8.92045 0.3008 0)
(8.61198 0.232218 0)
(8.33287 0.183065 0)
(8.08741 0.147374 0)
(7.87337 0.120973 0)
(7.68705 0.100952 0)
(7.52459 0.0854515 0)
(7.38247 0.0732611 0)
(7.25767 0.0635549 0)
(7.14762 0.055734 0)
(7.05016 0.0493519 0)
(6.96351 0.0440739 0)
(6.88615 0.0396488 0)
(6.81683 0.0358851 0)
(6.75451 0.0326341 0)
(6.69832 0.0297772 0)
(6.64752 0.0272162 0)
(6.60152 0.0248659 0)
(6.55984 0.0226484 0)
(6.52208 0.020486 0)
(6.48794 0.0183013 0)
(6.45719 0.0159932 0)
(6.42971 0.0134832 0)
(6.4054 0.0105213 0)
(6.38442 0.00723347 0)
(6.36663 0.00247292 0)
(6.35228 -0.0026689 0)
(6.34096 -0.0130724 0)
(8.44091 0.379831 0)
(8.94581 0.584487 0)
(9.35814 0.555432 0)
(9.58564 0.488422 0)
(9.69932 0.409009 0)
(9.7345 0.3404 0)
(9.71769 0.288441 0)
(9.67115 0.248803 0)
(9.60776 0.217853 0)
(9.53479 0.193011 0)
(9.45697 0.172435 0)
(9.37743 0.155001 0)
(9.2982 0.139994 0)
(9.22081 0.126925 0)
(9.14619 0.115473 0)
(9.07489 0.105393 0)
(9.00722 0.0964831 0)
(8.94329 0.0885709 0)
(8.88312 0.0815068 0)
(8.82665 0.0751595 0)
(8.77377 0.0694113 0)
(8.72433 0.0641543 0)
(8.6782 0.0592865 0)
(8.63523 0.0547076 0)
(8.59529 0.0503137 0)
(8.55827 0.0459962 0)
(8.52409 0.0416223 0)
(8.49269 0.0370653 0)
(8.46403 0.0320852 0)
(8.43814 0.0266041 0)
(8.41503 0.0199613 0)
(8.39437 0.0124416 0)
(8.37711 0.0032456 0)
(8.40213 0.280216 0)
(8.71885 0.481157 0)
(8.99855 0.46279 0)
(9.17383 0.405779 0)
(9.29816 0.344314 0)
(9.39143 0.292503 0)
(9.46031 0.254162 0)
(9.5129 0.22529 0)
(9.55398 0.202573 0)
(9.58586 0.184112 0)
(9.61022 0.168645 0)
(9.62844 0.155384 0)
(9.64155 0.143845 0)
(9.65017 0.133686 0)
(9.65498 0.124651 0)
(9.65663 0.116544 0)
(9.6557 0.109213 0)
(9.65268 0.102534 0)
(9.64798 0.0964058 0)
(9.64198 0.0907386 0)
(9.63496 0.0854521 0)
(9.62718 0.0804697 0)
(9.61888 0.0757149 0)
(9.61023 0.0711074 0)
(9.60139 0.0665581 0)
(9.59252 0.0619668 0)
(9.58372 0.0572098 0)
(9.57512 0.0521509 0)
(9.56679 0.0465856 0)
(9.5588 0.0403545 0)
(9.55117 0.0330746 0)
(9.5437 0.0246982 0)
(9.53657 0.0148789 0)
(8.37747 0.202344 0)
(8.60125 0.384087 0)
(8.81547 0.391586 0)
(8.94619 0.357691 0)
(9.03171 0.313874 0)
(9.0941 0.270961 0)
(9.14064 0.235738 0)
(9.17858 0.207883 0)
(9.21215 0.185609 0)
(9.24274 0.167581 0)
(9.27093 0.152705 0)
(9.29707 0.140159 0)
(9.32137 0.129407 0)
(9.3441 0.120087 0)
(9.36535 0.111906 0)
(9.3852 0.104643 0)
(9.40373 0.0981301 0)
(9.421 0.0922384 0)
(9.4371 0.0868603 0)
(9.45209 0.0819042 0)
(9.46604 0.077288 0)
(9.47904 0.0729342 0)
(9.49113 0.0687662 0)
(9.50239 0.0647046 0)
(9.51286 0.0606623 0)
(9.52259 0.0565422 0)
(9.53159 0.0522282 0)
(9.53989 0.047591 0)
(9.54744 0.0424582 0)
(9.55418 0.0366705 0)
(9.55999 0.0299767 0)
(9.56473 0.0222555 0)
(9.56818 0.0133183 0)
(8.36127 0.148986 0)
(8.52262 0.311927 0)
(8.69715 0.338003 0)
(8.81163 0.318978 0)
(8.88588 0.286324 0)
(8.93853 0.250768 0)
(8.97576 0.219807 0)
(9.00377 0.194643 0)
(9.02698 0.174118 0)
(9.04733 0.157195 0)
(9.06575 0.143036 0)
(9.08286 0.130985 0)
(9.09899 0.120576 0)
(9.11431 0.11148 0)
(9.12893 0.103457 0)
(9.14296 0.0963257 0)
(9.15642 0.0899382 0)
(9.16935 0.0841727 0)
(9.18178 0.0789249 0)
(9.19372 0.0741036 0)
(9.20518 0.0696264 0)
(9.21618 0.0654159 0)
(9.22672 0.0613969 0)
(9.23681 0.0574928 0)
(9.24643 0.053622 0)
(9.25558 0.0496961 0)
(9.26422 0.0456137 0)
(9.2723 0.0412639 0)
(9.27974 0.0365101 0)
(9.28643 0.0312203 0)
(9.29218 0.0252119 0)
(9.29681 0.0183577 0)
(9.30003 0.0104248 0)
(8.35115 0.111562 0)
(8.46731 0.252151 0)
(8.60788 0.287478 0)
(8.70932 0.279825 0)
(8.77878 0.25809 0)
(8.82998 0.231304 0)
(8.86726 0.205903 0)
(8.89515 0.183999 0)
(8.91761 0.16533 0)
(8.93666 0.149425 0)
(8.95336 0.135836 0)
(8.9684 0.124125 0)
(8.98223 0.113939 0)
(8.99511 0.105013 0)
(9.00722 0.0971386 0)
(9.01868 0.0901405 0)
(9.02958 0.0838752 0)
(9.03997 0.0782232 0)
(9.0499 0.0730831 0)
(9.0594 0.0683666 0)
(9.06851 0.0639945 0)
(9.07723 0.059893 0)
(9.08557 0.0559905 0)
(9.09353 0.0522158 0)
(9.10112 0.0484944 0)
(9.10829 0.0447475 0)
(9.11502 0.0408882 0)
(9.12124 0.0368235 0)
(9.12687 0.0324473 0)
(9.13177 0.0276546 0)
(9.13579 0.0223182 0)
(9.13869 0.016331 0)
(9.14022 0.00955608 0)
(8.34486 0.0848956 0)
(8.42928 0.204296 0)
(8.54188 0.244736 0)
(8.63032 0.246005 0)
(8.69394 0.232476 0)
(8.74258 0.21218 0)
(8.77947 0.190973 0)
(8.80784 0.171698 0)
(8.83095 0.154795 0)
(8.85062 0.140122 0)
(8.86783 0.127426 0)
(8.88325 0.116394 0)
(8.89733 0.106739 0)
(8.91036 0.0982338 0)
(8.92252 0.0906934 0)
(8.93394 0.0839649 0)
(8.94474 0.0779223 0)
(8.95496 0.0724599 0)
(8.96468 0.0674862 0)
(8.97393 0.0629208 0)
(8.98274 0.0586904 0)
(8.99113 0.0547267 0)
(8.9991 0.0509645 0)
(9.00665 0.047339 0)
(9.01378 0.0437852 0)
(9.02045 0.0402357 0)
(9.02663 0.0366204 0)
(9.03225 0.032867 0)
(9.03722 0.0288994 0)
(9.0414 0.0246464 0)
(9.04462 0.0200331 0)
(9.04665 0.0150005 0)
(9.04725 0.00950964 0)
(8.34093 0.0656595 0)
(8.40298 0.165992 0)
(8.49297 0.207685 0)
(8.56937 0.214851 0)
(8.6271 0.207374 0)
(8.67276 0.192572 0)
(8.70867 0.175508 0)
(8.73698 0.159116 0)
(8.76029 0.144209 0)
(8.78022 0.130896 0)
(8.7977 0.119123 0)
(8.81336 0.108731 0)
(8.82766 0.0995364 0)
(8.84086 0.091375 0)
(8.85318 0.0841044 0)
(8.86474 0.0775996 0)
(8.87565 0.0717514 0)
(8.88598 0.0664645 0)
(8.89578 0.0616547 0)
(8.90508 0.0572468 0)
(8.91392 0.0531726 0)
(8.92231 0.0493692 0)
(8.93026 0.0457771 0)
(8.93776 0.0423395 0)
(8.94481 0.0390007 0)
(8.95136 0.0357061 0)
(8.95738 0.0324021 0)
(8.96278 0.029038 0)
(8.96749 0.0255662 0)
(8.97137 0.0219494 0)
(8.97426 0.018161 0)
(8.97592 0.0141959 0)
(8.97616 0.0101003 0)
(8.33845 0.0515119 0)
(8.38463 0.135206 0)
(8.45661 0.175758 0)
(8.52226 0.186905 0)
(8.5744 0.184138 0)
(8.61696 0.173861 0)
(8.65152 0.160338 0)
(8.67945 0.146421 0)
(8.70275 0.133231 0)
(8.72283 0.121125 0)
(8.74051 0.110218 0)
(8.75639 0.100473 0)
(8.77088 0.0917819 0)
(8.78426 0.0840263 0)
(8.79672 0.0770922 0)
(8.80841 0.0708734 0)
(8.81942 0.0652739 0)
(8.82983 0.0602085 0)
(8.83969 0.0556012 0)
(8.84904 0.051384 0)
(8.8579 0.0474954 0)
(8.86629 0.043879 0)
(8.87422 0.0404825 0)
(8.88169 0.0372576 0)
(8.88867 0.034159 0)
(8.89513 0.0311452 0)
(8.90103 0.0281794 0)
(8.9063 0.0252313 0)
(8.91085 0.0222806 0)
(8.91457 0.0193216 0)
(8.9173 0.01637 0)
(8.91884 0.0134702 0)
(8.91905 0.0107273 0)
(8.33686 0.0408983 0)
(8.37172 0.110404 0)
(8.42944 0.148317 0)
(8.4856 0.161746 0)
(8.53243 0.162299 0)
(8.57187 0.155495 0)
(8.60489 0.14495 0)
(8.63229 0.133302 0)
(8.6555 0.121812 0)
(8.67569 0.110978 0)
(8.69357 0.101019 0)
(8.70968 0.0919873 0)
(8.72439 0.0838436 0)
(8.73797 0.076517 0)
(8.75062 0.0699278 0)
(8.76247 0.063995 0)
(8.77362 0.0586411 0)
(8.78415 0.0537943 0)
(8.79411 0.0493887 0)
(8.80354 0.0453644 0)
(8.81247 0.0416668 0)
(8.8209 0.0382464 0)
(8.82886 0.0350585 0)
(8.83633 0.0320631 0)
(8.8433 0.0292253 0)
(8.84974 0.0265162 0)
(8.8556 0.0239144 0)
(8.86083 0.0214086 0)
(8.86534 0.0190016 0)
(8.86904 0.0167147 0)
(8.87181 0.0145962 0)
(8.87346 0.0127285 0)
(8.87392 0.01125 0)
(8.33582 0.0327683 0)
(8.36253 0.0902926 0)
(8.40902 0.124714 0)
(8.45697 0.139134 0)
(8.49886 0.141975 0)
(8.53526 0.137862 0)
(8.56661 0.129816 0)
(8.59328 0.120172 0)
(8.61626 0.110215 0)
(8.63646 0.100543 0)
(8.65449 0.0914597 0)
(8.6708 0.0830981 0)
(8.68574 0.0754811 0)
(8.69956 0.0685808 0)
(8.71243 0.0623471 0)
(8.72448 0.0567199 0)
(8.73582 0.0516362 0)
(8.74651 0.0470349 0)
(8.75662 0.0428585 0)
(8.76617 0.039054 0)
(8.77521 0.0355735 0)
(8.78373 0.0323741 0)
(8.79176 0.0294184 0)
(8.79929 0.0266745 0)
(8.80631 0.0241172 0)
(8.81279 0.0217292 0)
(8.81869 0.0195026 0)
(8.82397 0.0174422 0)
(8.82857 0.015569 0)
(8.83239 0.0139254 0)
(8.83536 0.0125819 0)
(8.83734 0.0116452 0)
(8.83829 0.0112661 0)
(8.33513 0.0264087 0)
(8.35591 0.0738576 0)
(8.3936 0.104394 0)
(8.43452 0.118833 0)
(8.4719 0.123088 0)
(8.50538 0.120925 0)
(8.535 0.114853 0)
(8.56081 0.106896 0)
(8.58344 0.0983004 0)
(8.60357 0.0897135 0)
(8.6217 0.0814907 0)
(8.6382 0.0738141 0)
(8.65335 0.066751 0)
(8.6674 0.0603066 0)
(8.6805 0.0544558 0)
(8.69277 0.0491574 0)
(8.70431 0.0443633 0)
(8.71519 0.0400237 0)
(8.72546 0.0360905 0)
(8.73517 0.0325186 0)
(8.74434 0.0292673 0)
(8.75299 0.0263007 0)
(8.76113 0.0235885 0)
(8.76876 0.0211066 0)
(8.77587 0.0188387 0)
(8.78245 0.0167773 0)
(8.78847 0.0149259 0)
(8.79388 0.0133016 0)
(8.79866 0.011939 0)
(8.80272 0.0108939 0)
(8.80604 0.0102494 0)
(8.8085 0.0101234 0)
(8.81013 0.0106625 0)
(8.33465 0.021331 0)
(8.35109 0.0602959 0)
(8.38189 0.0868447 0)
(8.41689 0.100586 0)
(8.4502 0.105554 0)
(8.48093 0.104733 0)
(8.50882 0.100191 0)
(8.53369 0.0936426 0)
(8.55588 0.0862398 0)
(8.57588 0.0786362 0)
(8.59404 0.0712123 0)
(8.61067 0.0641834 0)
(8.62603 0.0576517 0)
(8.64029 0.0516512 0)
(8.65361 0.0461791 0)
(8.66611 0.0412118 0)
(8.67786 0.036714 0)
(8.68895 0.0326464 0)
(8.69941 0.0289687 0)
(8.70929 0.0256428 0)
(8.71862 0.0226341 0)
(8.72742 0.0199127 0)
(8.7357 0.0174543 0)
(8.74347 0.0152418 0)
(8.75073 0.0132658 0)
(8.75746 0.0115265 0)
(8.76365 0.010036 0)
(8.76928 0.00881973 0)
(8.77432 0.00792051 0)
(8.77873 0.00740099 0)
(8.78249 0.00734794 0)
(8.78556 0.00787918 0)
(8.78797 0.00912665 0)
(8.33431 0.0171959 0)
(8.34753 0.0489787 0)
(8.37295 0.0716124 0)
(8.403 0.0841553 0)
(8.43271 0.0892748 0)
(8.46092 0.0892778 0)
(8.48712 0.0858464 0)
(8.51102 0.0804132 0)
(8.53271 0.0740092 0)
(8.55249 0.0672663 0)
(8.57065 0.0605712 0)
(8.58739 0.0541566 0)
(8.60291 0.0481463 0)
(8.61739 0.0425947 0)
(8.63094 0.037515 0)
(8.64366 0.0328966 0)
(8.65563 0.028715 0)
(8.66693 0.0249393 0)
(8.67759 0.0215365 0)
(8.68766 0.0184747 0)
(8.69716 0.015725 0)
(8.70614 0.0132629 0)
(8.71459 0.0110696 0)
(8.72253 0.0091336 0)
(8.72996 0.00745109 0)
(8.73689 0.00602814 0)
(8.7433 0.00488209 0)
(8.74919 0.00404345 0)
(8.75456 0.00355825 0)
(8.75938 0.0034901 0)
(8.76367 0.0039224 0)
(8.7674 0.00496455 0)
(8.77065 0.00672742 0)
(8.33407 0.0137634 0)
(8.34487 0.0394142 0)
(8.3661 0.0583002 0)
(8.39205 0.0693023 0)
(8.41863 0.0741301 0)
(8.44454 0.0745252 0)
(8.46917 0.0718394 0)
(8.49209 0.0672536 0)
(8.51324 0.0616667 0)
(8.53279 0.0556657 0)
(8.55089 0.0496251 0)
(8.56771 0.04378 0)
(8.58339 0.0382654 0)
(8.59806 0.0331485 0)
(8.61183 0.0284547 0)
(8.62477 0.0241835 0)
(8.63697 0.0203194 0)
(8.64848 0.0168385 0)
(8.65936 0.0137141 0)
(8.66963 0.0109194 0)
(8.67933 0.0084302 0)
(8.68849 0.00622659 0)
(8.69714 0.00429401 0)
(8.70527 0.0026247 0)
(8.71292 0.00121897 0)
(8.72007 8.62166e-05 0)
(8.72675 -0.000753595 0)
(8.73296 -0.00126863 0)
(8.7387 -0.00141362 0)
(8.74398 -0.00112875 0)
(8.74883 -0.000339181 0)
(8.75327 0.00105074 0)
(8.75737 0.00312797 0)
(8.33389 0.0108605 0)
(8.34288 0.0312169 0)
(8.36083 0.0465633 0)
(8.38343 0.0558023 0)
(8.40731 0.0599929 0)
(8.43119 0.0604219 0)
(8.45437 0.0581608 0)
(8.47636 0.0541708 0)
(8.49698 0.0492179 0)
(8.51626 0.0438307 0)
(8.53429 0.0383593 0)
(8.55117 0.0330313 0)
(8.56699 0.0279839 0)
(8.58184 0.0232905 0)
(8.59582 0.0189836 0)
(8.60899 0.0150692 0)
(8.62142 0.0115376 0)
(8.63315 0.00836998 0)
(8.64424 0.00554388 0)
(8.65472 0.00303649 0)
(8.66463 0.000826981 0)
(8.674 -0.00110153 0)
(8.68284 -0.00276061 0)
(8.6912 -0.00415549 0)
(8.69907 -0.00528379 0)
(8.70648 -0.00613483 0)
(8.71345 -0.00668854 0)
(8.71999 -0.00691462 0)
(8.72613 -0.00677181 0)
(8.73189 -0.00620753 0)
(8.73731 -0.00515862 0)
(8.74243 -0.00354649 0)
(8.74735 -0.00130797 0)
(8.33375 0.00835929 0)
(8.34136 0.0240831 0)
(8.35678 0.0361029 0)
(8.37666 0.0434401 0)
(8.39826 0.046726 0)
(8.42037 0.046893 0)
(8.44226 0.0447788 0)
(8.46338 0.041156 0)
(8.4835 0.0366648 0)
(8.50253 0.0317671 0)
(8.52049 0.0267792 0)
(8.53742 0.0219115 0)
(8.55337 0.0172949 0)
(8.56841 0.0130027 0)
(8.58259 0.0090692 0)
(8.59599 0.00550339 0)
(8.60865 0.00229871 0)
(8.62061 -0.000560397 0)
(8.63193 -0.00309357 0)
(8.64263 -0.00532098 0)
(8.65276 -0.00726108 0)
(8.66234 -0.00892871 0)
(8.67141 -0.0103338 0)
(8.67999 -0.0114802 0)
(8.68811 -0.0123653 0)
(8.6958 -0.0129788 0)
(8.70307 -0.0133024 0)
(8.70996 -0.0133097 0)
(8.71651 -0.0129655 0)
(8.72275 -0.0122267 0)
(8.72873 -0.0110434 0)
(8.7345 -0.00935478 0)
(8.74017 -0.00711958 0)
(8.33365 0.00616301 0)
(8.34022 0.0177708 0)
(8.35366 0.026662 0)
(8.37137 0.0320148 0)
(8.39108 0.0341893 0)
(8.41169 0.033851 0)
(8.43246 0.0316455 0)
(8.45283 0.0281861 0)
(8.47249 0.023997 0)
(8.49129 0.019471 0)
(8.50919 0.0148843 0)
(8.52617 0.0104241 0)
(8.54226 0.00620895 0)
(8.55748 0.0023062 0)
(8.57188 -0.00125203 0)
(8.5855 -0.00445717 0)
(8.59839 -0.00731547 0)
(8.61058 -0.00984177 0)
(8.62213 -0.0120548 0)
(8.63305 -0.013974 0)
(8.6434 -0.015617 0)
(8.65321 -0.0169981 0)
(8.6625 -0.0181271 0)
(8.67131 -0.0190084 0)
(8.67968 -0.0196403 0)
(8.68764 -0.0200148 0)
(8.69522 -0.0201172 0)
(8.70245 -0.0199264 0)
(8.70939 -0.019415 0)
(8.71608 -0.0185502 0)
(8.72257 -0.0172957 0)
(8.72894 -0.0156085 0)
(8.73527 -0.0134666 0)
(8.33357 0.00419615 0)
(8.33935 0.0120835 0)
(8.35129 0.0180147 0)
(8.36729 0.0213328 0)
(8.38548 0.0222346 0)
(8.40485 0.0211891 0)
(8.42469 0.0186868 0)
(8.44443 0.015207 0)
(8.46371 0.0111695 0)
(8.48234 0.00689774 0)
(8.50021 0.00262342 0)
(8.51727 -0.00149503 0)
(8.53351 -0.00535708 0)
(8.54893 -0.00890612 0)
(8.56356 -0.0121165 0)
(8.57742 -0.0149836 0)
(8.59055 -0.0175157 0)
(8.60299 -0.0197291 0)
(8.61477 -0.021643 0)
(8.62593 -0.0232774 0)
(8.63651 -0.0246502 0)
(8.64654 -0.0257763 0)
(8.65607 -0.0266662 0)
(8.66512 -0.0273257 0)
(8.67374 -0.0277552 0)
(8.68197 -0.0279497 0)
(8.68985 -0.0278992 0)
(8.69741 -0.0275887 0)
(8.70472 -0.0269989 0)
(8.71182 -0.0261073 0)
(8.71878 -0.0248904 0)
(8.72566 -0.0233208 0)
(8.73255 -0.0213917 0)
(8.33351 0.00239841 0)
(8.33871 0.00685995 0)
(8.34952 0.00996456 0)
(8.36422 0.0112144 0)
(8.38121 0.010715 0)
(8.3996 0.00879567 0)
(8.41871 0.00582455 0)
(8.43796 0.00216942 0)
(8.45696 -0.00184189 0)
(8.47549 -0.0059522 0)
(8.49338 -0.00997579 0)
(8.51055 -0.0137865 0)
(8.52696 -0.0173063 0)
(8.54259 -0.0204936 0)
(8.55745 -0.0233333 0)
(8.57155 -0.0258283 0)
(8.58493 -0.0279923 0)
(8.5976 -0.0298453 0)
(8.60962 -0.0314097 0)
(8.62101 -0.0327077 0)
(8.63181 -0.0337596 0)
(8.64206 -0.0345822 0)
(8.65181 -0.0351882 0)
(8.66109 -0.0355862 0)
(8.66995 -0.0357798 0)
(8.67843 -0.0357682 0)
(8.68658 -0.0355465 0)
(8.69444 -0.0351064 0)
(8.70207 -0.0344368 0)
(8.70953 -0.033525 0)
(8.71688 -0.032359 0)
(8.72419 -0.0309253 0)
(8.73153 -0.0292292 0)
(8.33347 0.00071745 0)
(8.33825 0.0019593 0)
(8.34824 0.00233063 0)
(8.36198 0.00147999 0)
(8.3781 -0.000530724 0)
(8.39578 -0.00346978 0)
(8.41437 -0.00706563 0)
(8.4333 -0.0110444 0)
(8.45215 -0.0151607 0)
(8.47066 -0.0192216 0)
(8.48865 -0.0230889 0)
(8.506 -0.0266716 0)
(8.52263 -0.029917 0)
(8.53852 -0.032802 0)
(8.55364 -0.0353248 0)
(8.56802 -0.0374977 0)
(8.58166 -0.0393417 0)
(8.5946 -0.0408819 0)
(8.60686 -0.0421451 0)
(8.61849 -0.0431569 0)
(8.62952 -0.0439402 0)
(8.64 -0.0445148 0)
(8.64997 -0.0448963 0)
(8.65948 -0.0450963 0)
(8.66856 -0.0451221 0)
(8.67728 -0.0449774 0)
(8.68567 -0.0446627 0)
(8.6938 -0.0441758 0)
(8.70171 -0.043513 0)
(8.70946 -0.0426704 0)
(8.71713 -0.0416452 0)
(8.72476 -0.0404347 0)
(8.73244 -0.0390524 0)
(8.33344 -0.000888677 0)
(8.33794 -0.00273965 0)
(8.34739 -0.00505215 0)
(8.36049 -0.00804127 0)
(8.37603 -0.0116574 0)
(8.39326 -0.0157331 0)
(8.41155 -0.0200708 0)
(8.43032 -0.024473 0)
(8.44915 -0.0287665 0)
(8.46775 -0.0328186 0)
(8.48591 -0.036539 0)
(8.50348 -0.0398749 0)
(8.52037 -0.0428035 0)
(8.53653 -0.0453246 0)
(8.55194 -0.0474542 0)
(8.56659 -0.0492187 0)
(8.5805 -0.0506495 0)
(8.59369 -0.0517806 0)
(8.6062 -0.0526451 0)
(8.61805 -0.0532743 0)
(8.6293 -0.0536956 0)
(8.63999 -0.0539331 0)
(8.65016 -0.0540061 0)
(8.65986 -0.0539302 0)
(8.66914 -0.0537169 0)
(8.67806 -0.0533744 0)
(8.68665 -0.0529084 0)
(8.69499 -0.0523225 0)
(8.70312 -0.0516199 0)
(8.7111 -0.0508034 0)
(8.71899 -0.0498785 0)
(8.72686 -0.048851 0)
(8.73477 -0.0477399 0)
(8.33343 -0.00246085 0)
(8.33777 -0.00735233 0)
(8.3469 -0.0123476 0)
(8.35966 -0.0175351 0)
(8.37492 -0.0228604 0)
(8.39198 -0.0282012 0)
(8.41021 -0.0334204 0)
(8.42904 -0.0383886 0)
(8.44804 -0.0429989 0)
(8.46689 -0.0471759 0)
(8.48534 -0.0508766 0)
(8.50325 -0.0540861 0)
(8.52049 -0.0568117 0)
(8.537 -0.0590772 0)
(8.55275 -0.0609168 0)
(8.56772 -0.0623714 0)
(8.58194 -0.063484 0)
(8.59541 -0.0642976 0)
(8.60818 -0.0648527 0)
(8.62027 -0.0651866 0)
(8.63174 -0.0653322 0)
(8.64264 -0.0653179 0)
(8.653 -0.0651678 0)
(8.66288 -0.0649015 0)
(8.67233 -0.0645348 0)
(8.68141 -0.0640805 0)
(8.69017 -0.0635491 0)
(8.69867 -0.0629493 0)
(8.70696 -0.0622895 0)
(8.71509 -0.0615782 0)
(8.72312 -0.060826 0)
(8.73112 -0.0600443 0)
(8.73913 -0.0592544 0)
(8.33342 -0.00404098 0)
(8.33771 -0.0119923 0)
(8.34677 -0.0197143 0)
(8.35946 -0.0271712 0)
(8.37472 -0.0342863 0)
(8.39186 -0.040962 0)
(8.41027 -0.0471059 0)
(8.42935 -0.0526466 0)
(8.44867 -0.0575392 0)
(8.46787 -0.0617673 0)
(8.48672 -0.0653401 0)
(8.50502 -0.0682874 0)
(8.52266 -0.070654 0)
(8.53955 -0.0724938 0)
(8.55566 -0.0738659 0)
(8.57098 -0.0748304 0)
(8.5855 -0.0754456 0)
(8.59926 -0.0757666 0)
(8.61228 -0.0758435 0)
(8.6246 -0.075721 0)
(8.63628 -0.0754382 0)
(8.64735 -0.0750286 0)
(8.65787 -0.0745207 0)
(8.6679 -0.0739382 0)
(8.67749 -0.0733008 0)
(8.68669 -0.0726253 0)
(8.69557 -0.071926 0)
(8.70417 -0.0712155 0)
(8.71254 -0.0705064 0)
(8.72076 -0.0698113 0)
(8.72886 -0.0691445 0)
(8.7369 -0.068522 0)
(8.74494 -0.0679653 0)
(8.33343 -0.00566902 0)
(8.33779 -0.0167801 0)
(8.34699 -0.0273421 0)
(8.35992 -0.0372025 0)
(8.37551 -0.0462646 0)
(8.39308 -0.054455 0)
(8.41198 -0.0617244 0)
(8.43161 -0.0680551 0)
(8.45151 -0.0734583 0)
(8.47131 -0.0779695 0)
(8.49075 -0.0816436 0)
(8.50961 -0.0845503 0)
(8.52778 -0.0867679 0)
(8.54516 -0.0883788 0)
(8.56172 -0.0894658 0)
(8.57743 -0.0901085 0)
(8.59231 -0.0903816 0)
(8.60637 -0.0903532 0)
(8.61966 -0.0900846 0)
(8.63221 -0.0896295 0)
(8.64408 -0.0890346 0)
(8.65531 -0.0883397 0)
(8.66598 -0.0875786 0)
(8.67612 -0.0867799 0)
(8.6858 -0.0859675 0)
(8.69508 -0.0851618 0)
(8.70401 -0.0843807 0)
(8.71265 -0.0836401 0)
(8.72104 -0.0829552 0)
(8.72925 -0.0823411 0)
(8.73732 -0.0818135 0)
(8.7453 -0.0813892 0)
(8.75323 -0.081088 0)
(8.33345 -0.00739048 0)
(8.33798 -0.0218385 0)
(8.34756 -0.0353868 0)
(8.36101 -0.0477456 0)
(8.37721 -0.0587801 0)
(8.39545 -0.068428 0)
(8.41507 -0.0766806 0)
(8.43544 -0.0835829 0)
(8.45608 -0.0892179 0)
(8.4766 -0.0936915 0)
(8.49673 -0.0971223 0)
(8.51625 -0.0996344 0)
(8.53502 -0.101352 0)
(8.55295 -0.102393 0)
(8.57 -0.102871 0)
(8.58615 -0.102886 0)
(8.6014 -0.102532 0)
(8.61579 -0.10189 0)
(8.62935 -0.101031 0)
(8.64214 -0.100017 0)
(8.65419 -0.0989006 0)
(8.66558 -0.0977268 0)
(8.67636 -0.0965333 0)
(8.68659 -0.0953519 0)
(8.69633 -0.0942093 0)
(8.70564 -0.0931285 0)
(8.71458 -0.0921294 0)
(8.7232 -0.0912299 0)
(8.73156 -0.0904467 0)
(8.73971 -0.0897962 0)
(8.7477 -0.0892947 0)
(8.75557 -0.0889604 0)
(8.76337 -0.0888095 0)
(8.33348 -0.00926264 0)
(8.33835 -0.0273532 0)
(8.34862 -0.0441928 0)
(8.36302 -0.0593749 0)
(8.38031 -0.0727536 0)
(8.39973 -0.084287 0)
(8.42056 -0.0939964 0)
(8.44212 -0.101967 0)
(8.46389 -0.108331 0)
(8.48546 -0.113241 0)
(8.50654 -0.116866 0)
(8.52691 -0.119376 0)
(8.54643 -0.120937 0)
(8.56502 -0.121706 0)
(8.58262 -0.121829 0)
(8.59924 -0.121435 0)
(8.61489 -0.120641 0)
(8.6296 -0.119546 0)
(8.64342 -0.118237 0)
(8.65641 -0.116789 0)
(8.66862 -0.115264 0)
(8.68011 -0.113714 0)
(8.69095 -0.112182 0)
(8.70121 -0.110705 0)
(8.71095 -0.109312 0)
(8.72023 -0.108029 0)
(8.7291 -0.106877 0)
(8.73763 -0.105876 0)
(8.74586 -0.105041 0)
(8.75385 -0.104389 0)
(8.76164 -0.103935 0)
(8.76927 -0.103694 0)
(8.77677 -0.103677 0)
(8.33352 -0.0113459 0)
(8.33884 -0.0334395 0)
(8.35004 -0.0537599 0)
(8.36563 -0.0717153 0)
(8.38424 -0.0871375 0)
(8.40504 -0.100037 0)
(8.42727 -0.110527 0)
(8.4502 -0.118806 0)
(8.47329 -0.125114 0)
(8.4961 -0.129701 0)
(8.51832 -0.132811 0)
(8.53972 -0.134674 0)
(8.56016 -0.135505 0)
(8.57954 -0.135497 0)
(8.59784 -0.134821 0)
(8.61504 -0.133628 0)
(8.63118 -0.132048 0)
(8.64628 -0.130196 0)
(8.66041 -0.128165 0)
(8.67363 -0.126038 0)
(8.68601 -0.12388 0)
(8.69761 -0.12175 0)
(8.70852 -0.119692 0)
(8.71879 -0.117746 0)
(8.7285 -0.115943 0)
(8.73771 -0.11431 0)
(8.74649 -0.112869 0)
(8.75488 -0.111639 0)
(8.76295 -0.110636 0)
(8.77075 -0.109875 0)
(8.77832 -0.10937 0)
(8.78571 -0.109135 0)
(8.79296 -0.109176 0)
(8.3336 -0.0137547 0)
(8.33972 -0.0405725 0)
(8.35251 -0.0651938 0)
(8.37017 -0.0869037 0)
(8.39103 -0.105524 0)
(8.4141 -0.12104 0)
(8.4385 -0.133549 0)
(8.46343 -0.143276 0)
(8.48829 -0.150518 0)
(8.51266 -0.155597 0)
(8.53622 -0.158837 0)
(8.55878 -0.160546 0)
(8.58019 -0.161009 0)
(8.60038 -0.160481 0)
(8.61934 -0.159186 0)
(8.63708 -0.157317 0)
(8.65364 -0.155037 0)
(8.66906 -0.152485 0)
(8.68343 -0.149774 0)
(8.69681 -0.146998 0)
(8.70927 -0.144235 0)
(8.72091 -0.141547 0)
(8.73179 -0.138983 0)
(8.74199 -0.136585 0)
(8.75158 -0.134384 0)
(8.76063 -0.132408 0)
(8.76921 -0.130676 0)
(8.77737 -0.129208 0)
(8.78517 -0.128015 0)
(8.79266 -0.127112 0)
(8.79988 -0.126506 0)
(8.80688 -0.126207 0)
(8.81367 -0.126216 0)
(8.33366 -0.0165508 0)
(8.34056 -0.0485211 0)
(8.35497 -0.0771421 0)
(8.37468 -0.101526 0)
(8.39779 -0.121709 0)
(8.42325 -0.137949 0)
(8.4501 -0.150588 0)
(8.47743 -0.160046 0)
(8.50455 -0.166759 0)
(8.53099 -0.171137 0)
(8.55641 -0.173562 0)
(8.58058 -0.174384 0)
(8.60338 -0.173915 0)
(8.62475 -0.172432 0)
(8.64467 -0.170176 0)
(8.66319 -0.167356 0)
(8.68036 -0.164146 0)
(8.69625 -0.160697 0)
(8.71096 -0.157131 0)
(8.72458 -0.15355 0)
(8.73719 -0.150037 0)
(8.74889 -0.146658 0)
(8.75977 -0.143469 0)
(8.7699 -0.14051 0)
(8.77938 -0.137816 0)
(8.78828 -0.135413 0)
(8.79665 -0.133322 0)
(8.80458 -0.131559 0)
(8.81211 -0.130137 0)
(8.8193 -0.129065 0)
(8.82621 -0.12835 0)
(8.83286 -0.127999 0)
(8.83933 -0.128004 0)
(8.33391 -0.0201197 0)
(8.34286 -0.0593768 0)
(8.36091 -0.0948639 0)
(8.38482 -0.125365 0)
(8.41199 -0.150671 0)
(8.44115 -0.17082 0)
(8.47125 -0.186128 0)
(8.50137 -0.197159 0)
(8.53086 -0.204548 0)
(8.55932 -0.208906 0)
(8.58645 -0.210804 0)
(8.61206 -0.210751 0)
(8.63605 -0.209191 0)
(8.6584 -0.206497 0)
(8.67912 -0.202982 0)
(8.69826 -0.198905 0)
(8.7159 -0.194476 0)
(8.73214 -0.189864 0)
(8.74706 -0.185207 0)
(8.76079 -0.180612 0)
(8.77342 -0.176164 0)
(8.78505 -0.171929 0)
(8.79578 -0.167957 0)
(8.80571 -0.164289 0)
(8.81492 -0.160953 0)
(8.82349 -0.157973 0)
(8.8315 -0.155365 0)
(8.839 -0.153141 0)
(8.84607 -0.151311 0)
(8.85276 -0.14988 0)
(8.85911 -0.148849 0)
(8.86518 -0.148221 0)
(8.87098 -0.147978 0)
(8.33387 -0.024194 0)
(8.34365 -0.0696557 0)
(8.36413 -0.108163 0)
(8.39147 -0.139456 0)
(8.42276 -0.164605 0)
(8.45653 -0.184274 0)
(8.4913 -0.199021 0)
(8.5258 -0.209492 0)
(8.55925 -0.216312 0)
(8.59114 -0.220049 0)
(8.62117 -0.221241 0)
(8.64914 -0.220385 0)
(8.67502 -0.217923 0)
(8.69881 -0.214247 0)
(8.72061 -0.209693 0)
(8.7405 -0.204547 0)
(8.75863 -0.199045 0)
(8.77513 -0.193382 0)
(8.79013 -0.187715 0)
(8.80378 -0.182167 0)
(8.81621 -0.176835 0)
(8.82754 -0.171793 0)
(8.83789 -0.167096 0)
(8.84736 -0.162785 0)
(8.85606 -0.158889 0)
(8.86407 -0.155431 0)
(8.87148 -0.152423 0)
(8.87834 -0.149877 0)
(8.88474 -0.147797 0)
(8.89073 -0.146187 0)
(8.89637 -0.145044 0)
(8.90171 -0.144368 0)
(8.90683 -0.144131 0)
(8.33498 -0.0311089 0)
(8.35141 -0.0920063 0)
(8.38062 -0.144893 0)
(8.41551 -0.187647 0)
(8.45259 -0.220628 0)
(8.49093 -0.244644 0)
(8.52937 -0.26101 0)
(8.56682 -0.271202 0)
(8.60266 -0.2765 0)
(8.63646 -0.277977 0)
(8.66798 -0.27654 0)
(8.69708 -0.272931 0)
(8.72376 -0.267747 0)
(8.74808 -0.261465 0)
(8.77016 -0.254467 0)
(8.79015 -0.247057 0)
(8.80822 -0.239471 0)
(8.82453 -0.231896 0)
(8.83925 -0.224477 0)
(8.85257 -0.217324 0)
(8.86462 -0.210519 0)
(8.87554 -0.204123 0)
(8.88548 -0.198179 0)
(8.89454 -0.192717 0)
(8.90284 -0.187757 0)
(8.91045 -0.183313 0)
(8.91748 -0.179391 0)
(8.92398 -0.175998 0)
(8.93002 -0.173136 0)
(8.93567 -0.170808 0)
(8.94099 -0.169012 0)
(8.94602 -0.167748 0)
(8.95082 -0.166979 0)
(8.33403 -0.0361244 0)
(8.34996 -0.0982676 0)
(8.38406 -0.146549 0)
(8.42708 -0.185682 0)
(8.47352 -0.217643 0)
(8.52094 -0.242178 0)
(8.56723 -0.259744 0)
(8.61117 -0.271243 0)
(8.65241 -0.277532 0)
(8.69087 -0.279485 0)
(8.72657 -0.27799 0)
(8.75964 -0.273859 0)
(8.79026 -0.2678 0)
(8.8186 -0.260413 0)
(8.84483 -0.252188 0)
(8.8691 -0.243519 0)
(8.89157 -0.234709 0)
(8.91238 -0.225994 0)
(8.93167 -0.217547 0)
(8.94957 -0.209495 0)
(8.9662 -0.201926 0)
(8.98167 -0.194901 0)
(8.99611 -0.188455 0)
(9.0096 -0.182611 0)
(9.02224 -0.177377 0)
(9.03411 -0.172754 0)
(9.04529 -0.168742 0)
(9.05585 -0.165336 0)
(9.06586 -0.162537 0)
(9.07538 -0.160347 0)
(9.08447 -0.158776 0)
(9.09324 -0.157832 0)
(9.10176 -0.157493 0)
(8.3396 -0.0602923 0)
(8.37714 -0.169141 0)
(8.42657 -0.247096 0)
(8.47666 -0.299762 0)
(8.5294 -0.334232 0)
(8.58628 -0.354876 0)
(8.64568 -0.365778 0)
(8.70627 -0.370025 0)
(8.7671 -0.369572 0)
(8.82709 -0.365749 0)
(8.88525 -0.359506 0)
(8.94084 -0.351522 0)
(8.99335 -0.342308 0)
(9.04246 -0.332263 0)
(9.08801 -0.321711 0)
(9.12998 -0.310921 0)
(9.16846 -0.300115 0)
(9.20359 -0.289479 0)
(9.23559 -0.279161 0)
(9.26468 -0.26928 0)
(9.29111 -0.259924 0)
(9.31511 -0.251157 0)
(9.33692 -0.243025 0)
(9.35676 -0.235553 0)
(9.37483 -0.228756 0)
(9.39129 -0.222638 0)
(9.40632 -0.217202 0)
(9.42004 -0.212447 0)
(9.43257 -0.208384 0)
(9.44402 -0.205023 0)
(9.45448 -0.202427 0)
(9.46405 -0.200605 0)
(9.47292 -0.199746 0)
(8.33761 -0.0463667 0)
(8.39359 -0.120423 0)
(8.49395 -0.183974 0)
(8.60885 -0.245231 0)
(8.73079 -0.297705 0)
(8.85429 -0.338246 0)
(8.97247 -0.367595 0)
(9.08123 -0.386662 0)
(9.17842 -0.396617 0)
(9.26285 -0.399061 0)
(9.33431 -0.395631 0)
(9.39327 -0.387796 0)
(9.44061 -0.376826 0)
(9.47746 -0.363775 0)
(9.50504 -0.349486 0)
(9.52458 -0.33462 0)
(9.53725 -0.319678 0)
(9.54411 -0.305031 0)
(9.54613 -0.290947 0)
(9.54412 -0.277607 0)
(9.53882 -0.265128 0)
(9.53081 -0.253576 0)
(9.52061 -0.242978 0)
(9.50864 -0.233333 0)
(9.49523 -0.224618 0)
(9.48065 -0.216798 0)
(9.46512 -0.209827 0)
(9.44878 -0.20366 0)
(9.43174 -0.198265 0)
(9.41402 -0.19362 0)
(9.39573 -0.189831 0)
(9.37657 -0.186858 0)
(9.35725 -0.185751 0)
(8.4092 -0.221092 0)
(8.6349 -0.427779 0)
(8.83319 -0.521724 0)
(8.97723 -0.581983 0)
(9.07142 -0.614382 0)
(9.11482 -0.624544 0)
(9.11176 -0.620067 0)
(9.07167 -0.605037 0)
(9.00342 -0.582292 0)
(8.91445 -0.554398 0)
(8.81119 -0.523413 0)
(8.69897 -0.490914 0)
(8.58196 -0.458118 0)
(8.46328 -0.425932 0)
(8.34529 -0.394998 0)
(8.22962 -0.365744 0)
(8.11742 -0.338427 0)
(8.00939 -0.313175 0)
(7.90594 -0.290023 0)
(7.80726 -0.268936 0)
(7.71337 -0.249835 0)
(7.62415 -0.232612 0)
(7.53945 -0.217138 0)
(7.45902 -0.203277 0)
(7.38261 -0.190884 0)
(7.30995 -0.179815 0)
(7.24076 -0.169916 0)
(7.17472 -0.161042 0)
(7.11152 -0.153018 0)
(7.05072 -0.145678 0)
(6.99193 -0.138929 0)
(6.93398 -0.131874 0)
(6.87736 -0.128236 0)
(8.13714 -0.207033 0)
(7.84809 -0.38772 0)
(7.38644 -0.438914 0)
(6.86192 -0.439413 0)
(6.36348 -0.408007 0)
(5.89399 -0.358981 0)
(5.45605 -0.304602 0)
(5.057 -0.251255 0)
(4.69788 -0.202148 0)
(4.37669 -0.158886 0)
(4.09104 -0.121906 0)
(3.83807 -0.0909777 0)
(3.61458 -0.0655574 0)
(3.4174 -0.0449559 0)
(3.24352 -0.0284509 0)
(3.09014 -0.0153605 0)
(2.9547 -0.0050765 0)
(2.83493 0.00292432 0)
(2.72878 0.00908125 0)
(2.63445 0.0137569 0)
(2.55037 0.0172477 0)
(2.47516 0.0197938 0)
(2.40762 0.0215909 0)
(2.34673 0.0227985 0)
(2.29158 0.0235529 0)
(2.24142 0.0239721 0)
(2.19558 0.0241862 0)
(2.15361 0.0243269 0)
(2.11493 0.024634 0)
(2.07971 0.0254415 0)
(2.04694 0.0270696 0)
(2.0188 0.0324368 0)
(1.99318 0.0267967 0)