/*--------------------------------*- C++ -*----------------------------------*\
| =========                 |                                                 |
| \\      /  F ield         | OpenFOAM: The Open Source CFD Toolbox           |
|  \\    /   O peration     | Version:  2.1.1                                 |
|   \\  /    A nd           | Web:      www.OpenFOAM.org                      |
|    \\/     M anipulation  |                                                 |
\*---------------------------------------------------------------------------*/
FoamFile
{
    version     2.0;
    format      ascii;
    class       volScalarField;
    location    "0.075";
    object      epsilon;
}
// * * * * * * * * * * * * * * * * * * * * * * * * * * * * * * * * * * * * * //

dimensions      [0 2 -3 0 0 0 0];

internalField   nonuniform List<scalar> 
6820
(
151.448
203.151
260.735
321.761
383.627
443.72
499.754
550.018
593.453
629.619
658.579
680.774
696.878
707.685
714.023
716.687
716.404
713.816
709.471
703.827
697.259
690.068
682.492
674.716
666.879
659.087
651.41
643.914
636.545
629.698
621.525
620.79
585.411
11.7448
21.4177
29.9452
38.6275
47.586
56.5672
65.3345
73.6867
81.4619
88.5519
94.9019
100.505
105.393
109.621
113.261
116.393
119.094
121.438
123.491
125.312
126.952
128.454
129.854
131.183
132.469
133.734
135.004
136.307
137.673
139.179
140.859
143.159
145.9
5.83781
7.51673
9.20643
10.809
12.3193
13.7468
15.0876
16.3383
17.4972
18.5642
19.541
20.4313
21.2404
21.9749
22.6421
23.2496
23.8052
24.3164
24.7902
25.2331
25.6511
26.0492
26.4323
26.8044
27.1691
27.5297
27.8891
28.2503
28.616
28.9899
29.3778
29.7735
30.2482
5.2423
5.56004
6.00441
6.4934
6.98556
7.46166
7.91261
8.3341
8.72444
9.08348
9.41197
9.71125
9.983
10.2291
10.4517
10.6526
10.834
10.9977
11.1457
11.2796
11.401
11.5116
11.6125
11.7052
11.7907
11.8699
11.9436
12.0126
12.0772
12.1378
12.1939
12.2459
12.2905
5.17349
5.18677
5.2682
5.39775
5.55635
5.72964
5.90773
6.0842
6.255
6.41772
6.57095
6.714
6.84663
6.9689
7.08109
7.18361
7.27695
7.36168
7.43835
7.50757
7.56993
7.62599
7.67631
7.72141
7.76179
7.79792
7.83021
7.85907
7.88484
7.90782
7.9282
7.94626
7.96185
5.16878
5.12132
5.09603
5.09482
5.11536
5.15308
5.20299
5.26076
5.32294
5.38695
5.45093
5.51355
5.57389
5.63135
5.68553
5.73621
5.7833
5.82678
5.86672
5.90323
5.93645
5.96655
5.9937
6.0181
6.03994
6.05943
6.07676
6.09211
6.10569
6.11768
6.12825
6.13755
6.14574
5.16887
5.11169
5.06116
5.01963
4.9884
4.96754
4.95615
4.95279
4.95587
4.96388
4.97546
4.9895
5.00511
5.02154
5.03825
5.05481
5.0709
5.08627
5.10077
5.11428
5.12673
5.13809
5.14836
5.15756
5.1657
5.17284
5.17904
5.18435
5.18886
5.19263
5.19575
5.19828
5.2003
5.16902
5.11063
5.05514
5.00339
4.95619
4.91413
4.87746
4.84609
4.8197
4.79779
4.77978
4.76509
4.75317
4.7435
4.73565
4.72922
4.7239
4.71942
4.71554
4.71209
4.70891
4.70591
4.70297
4.70004
4.69707
4.69401
4.69085
4.68758
4.6842
4.68072
4.67714
4.67348
4.66976
5.16904
5.11054
5.05431
5.00049
4.94927
4.9009
4.85557
4.81344
4.77453
4.73878
4.70606
4.67618
4.64891
4.624
4.6012
4.58029
4.56104
4.54323
4.5267
4.51128
4.49681
4.48319
4.47029
4.45804
4.44633
4.43513
4.42435
4.41398
4.40395
4.39426
4.38487
4.37577
4.36694
5.16904
5.11054
5.0542
5.00002
4.94795
4.89802
4.85026
4.80469
4.76135
4.72024
4.68134
4.64459
4.60993
4.57727
4.54649
4.51748
4.49012
4.4643
4.43989
4.41678
4.39487
4.37406
4.35426
4.33539
4.31737
4.30014
4.28364
4.26782
4.25263
4.23802
4.22397
4.21044
4.1974
5.16904
5.11053
5.05418
4.99994
4.94772
4.89747
4.84912
4.80263
4.75797
4.7151
4.674
4.63463
4.59696
4.56092
4.52648
4.49357
4.46212
4.43208
4.40336
4.37591
4.34965
4.32452
4.30046
4.2774
4.25529
4.23407
4.21369
4.19411
4.17528
4.15716
4.13972
4.12293
4.10674
5.16904
5.11053
5.05417
4.99991
4.94767
4.89735
4.84887
4.80217
4.75717
4.71381
4.67205
4.63182
4.59309
4.55581
4.51993
4.4854
4.45218
4.42022
4.38947
4.35989
4.33142
4.30402
4.27765
4.25226
4.22781
4.20425
4.18155
4.15967
4.13857
4.11821
4.09858
4.07963
4.06134
5.16904
5.11052
5.05416
4.9999
4.94764
4.8973
4.8488
4.80204
4.75696
4.71348
4.67154
4.63107
4.59202
4.55434
4.51797
4.48286
4.44897
4.41626
4.38468
4.35419
4.32475
4.29632
4.26887
4.24234
4.21672
4.19197
4.16805
4.14492
4.12258
4.10097
4.08008
4.05988
4.04035
5.16904
5.11052
5.05415
4.99988
4.94762
4.89727
4.84876
4.80199
4.75688
4.71337
4.67138
4.63085
4.59171
4.55391
4.51739
4.4821
4.448
4.41502
4.38315
4.35232
4.3225
4.29366
4.26576
4.23876
4.21263
4.18734
4.16285
4.13915
4.1162
4.09398
4.07246
4.05162
4.03143
5.16903
5.11051
5.05414
4.99987
4.9476
4.89725
4.84873
4.80195
4.75683
4.71331
4.6713
4.63075
4.59158
4.55375
4.51719
4.48184
4.44767
4.41462
4.38264
4.3517
4.32176
4.29277
4.26471
4.23753
4.2112
4.1857
4.16099
4.13705
4.11385
4.09136
4.06956
4.04844
4.02795
5.16903
5.11051
5.05414
4.99986
4.94758
4.89723
4.8487
4.80191
4.75679
4.71326
4.67124
4.63068
4.5915
4.55365
4.51707
4.48171
4.44752
4.41444
4.38243
4.35146
4.32148
4.29244
4.26432
4.23708
4.21069
4.18512
4.16033
4.1363
4.113
4.09041
4.06851
4.04727
4.02666
5.16903
5.11051
5.05413
4.99985
4.94757
4.89721
4.84867
4.80188
4.75675
4.71321
4.67119
4.63061
4.59143
4.55357
4.51698
4.48161
4.44741
4.41432
4.38231
4.35132
4.32132
4.29227
4.26413
4.23688
4.21046
4.18486
4.16005
4.13599
4.11266
4.09004
4.0681
4.04682
4.02617
5.16903
5.1105
5.05412
4.99984
4.94756
4.89719
4.84865
4.80185
4.75672
4.71317
4.67114
4.63056
4.59137
4.5535
4.51691
4.48153
4.44732
4.41422
4.3822
4.35121
4.3212
4.29215
4.264
4.23674
4.21032
4.18471
4.15988
4.13582
4.11248
4.08985
4.06789
4.0466
4.02594
5.16903
5.1105
5.05412
4.99983
4.94755
4.89718
4.84863
4.80183
4.75668
4.71313
4.6711
4.63051
4.59131
4.55344
4.51684
4.48145
4.44724
4.41413
4.38211
4.35111
4.3211
4.29204
4.26389
4.23662
4.21019
4.18458
4.15975
4.13568
4.11234
4.0897
4.06775
4.04645
4.02578
5.16903
5.1105
5.05412
4.99983
4.94754
4.89716
4.84861
4.8018
4.75666
4.7131
4.67106
4.63046
4.59126
4.55338
4.51677
4.48138
4.44716
4.41405
4.38202
4.35102
4.321
4.29194
4.26378
4.23651
4.21008
4.18446
4.15963
4.13556
4.11221
4.08957
4.06761
4.04631
4.02563
5.16903
5.1105
5.05411
4.99982
4.94753
4.89715
4.8486
4.80178
4.75663
4.71307
4.67102
4.63042
4.59121
4.55333
4.51672
4.48132
4.44709
4.41398
4.38194
4.35093
4.32091
4.29184
4.26368
4.23641
4.20997
4.18435
4.15952
4.13544
4.11209
4.08945
4.06748
4.04617
4.02549
5.16903
5.11049
5.05411
4.99982
4.94752
4.89714
4.84858
4.80177
4.75661
4.71304
4.67099
4.63039
4.59117
4.55328
4.51666
4.48126
4.44703
4.41391
4.38187
4.35085
4.32083
4.29175
4.26359
4.23631
4.20987
4.18425
4.15941
4.13533
4.11197
4.08932
4.06735
4.04603
4.02535
5.16903
5.11049
5.05411
4.99981
4.94752
4.89713
4.84857
4.80175
4.75659
4.71302
4.67096
4.63036
4.59113
4.55324
4.51662
4.48121
4.44697
4.41385
4.3818
4.35078
4.32075
4.29167
4.2635
4.23622
4.20977
4.18414
4.1593
4.13521
4.11185
4.08919
4.06722
4.04589
4.0252
5.16903
5.11049
5.05411
4.99981
4.94751
4.89713
4.84856
4.80174
4.75658
4.713
4.67094
4.63033
4.5911
4.5532
4.51658
4.48116
4.44692
4.41379
4.38174
4.35071
4.32068
4.29159
4.26342
4.23613
4.20968
4.18405
4.1592
4.1351
4.11173
4.08907
4.06708
4.04575
4.02505
5.16903
5.11049
5.0541
4.99981
4.94751
4.89712
4.84855
4.80173
4.75656
4.71298
4.67092
4.6303
4.59107
4.55317
4.51654
4.48112
4.44687
4.41374
4.38168
4.35065
4.32061
4.29152
4.26334
4.23604
4.20959
4.18395
4.15909
4.13499
4.11162
4.08895
4.06695
4.04561
4.0249
5.16903
5.11049
5.0541
4.9998
4.9475
4.89711
4.84855
4.80172
4.75655
4.71297
4.6709
4.63028
4.59105
4.55314
4.51651
4.48109
4.44683
4.4137
4.38163
4.3506
4.32055
4.29146
4.26327
4.23597
4.20951
4.18386
4.159
4.13489
4.11151
4.08882
4.06682
4.04547
4.02474
5.16903
5.11049
5.0541
4.9998
4.9475
4.89711
4.84854
4.80171
4.75654
4.71295
4.67088
4.63026
4.59102
4.55311
4.51647
4.48105
4.44679
4.41365
4.38158
4.35054
4.32049
4.29139
4.2632
4.23589
4.20943
4.18377
4.1589
4.13478
4.11139
4.0887
4.06669
4.04533
4.02459
5.16903
5.11049
5.0541
4.9998
4.9475
4.89711
4.84854
4.8017
4.75653
4.71295
4.67087
4.63025
4.59101
4.5531
4.51645
4.48103
4.44677
4.41362
4.38155
4.3505
4.32045
4.29134
4.26315
4.23583
4.20936
4.1837
4.15882
4.13469
4.11129
4.08859
4.06657
4.0452
4.02445
5.16903
5.11049
5.0541
4.9998
4.9475
4.8971
4.84853
4.80169
4.75652
4.71293
4.67085
4.63023
4.59099
4.55307
4.51642
4.48099
4.44673
4.41358
4.38151
4.35046
4.3204
4.29129
4.26309
4.23577
4.20929
4.18362
4.15873
4.1346
4.11119
4.08848
4.06645
4.04507
4.02431
5.16903
5.11049
5.0541
4.9998
4.9475
4.89711
4.84854
4.80171
4.75653
4.71295
4.67087
4.63025
4.591
4.55309
4.51644
4.48101
4.44674
4.41358
4.3815
4.35045
4.32039
4.29127
4.26307
4.23574
4.20925
4.18358
4.15868
4.13454
4.11113
4.08841
4.06636
4.04497
4.0242
5.16903
5.11049
5.0541
4.9998
4.9475
4.8971
4.84853
4.80169
4.75652
4.71292
4.67085
4.63022
4.59098
4.55306
4.51641
4.48098
4.44671
4.41356
4.38148
4.35042
4.32036
4.29124
4.26303
4.2357
4.20922
4.18354
4.15864
4.1345
4.11108
4.08836
4.06631
4.04491
4.02413
5.16903
5.11049
5.0541
4.99981
4.94752
4.89714
4.84859
4.80177
4.7566
4.71302
4.67095
4.63033
4.59109
4.55317
4.51652
4.48109
4.44682
4.41367
4.38159
4.35054
4.32047
4.29136
4.26315
4.23583
4.20934
4.18367
4.15878
4.13464
4.11123
4.08852
4.06648
4.04509
4.02433
5.16903
5.11051
5.05413
4.99985
4.94756
4.89718
4.84861
4.80178
4.75661
4.71303
4.67097
4.63035
4.59113
4.55323
4.5166
4.48119
4.44695
4.41384
4.38179
4.35078
4.32077
4.2917
4.26355
4.23629
4.20987
4.18426
4.15945
4.13539
4.11206
4.08943
4.06748
4.04618
4.02552
5.16903
5.1105
5.05415
4.99992
4.9477
4.89739
4.8489
4.80215
4.75705
4.71353
4.67154
4.631
4.59185
4.55405
4.51754
4.48226
4.44817
4.41522
4.38336
4.35256
4.32277
4.29396
4.26608
4.2391
4.21299
4.18771
4.16323
4.13952
4.11656
4.09431
4.07275
4.05185
4.03159
5.16905
5.11063
5.0544
5.00025
4.94809
4.89785
4.84947
4.80288
4.75802
4.71483
4.67325
4.63321
4.59465
4.55753
4.52178
4.48735
4.45419
4.42224
4.39145
4.36178
4.33319
4.30561
4.27902
4.25337
4.22861
4.20472
4.18165
4.15937
4.13785
4.11706
4.09695
4.07752
4.05871
5.16908
5.11079
5.05488
5.00137
4.95017
4.90121
4.85442
4.80975
4.76714
4.72654
4.68787
4.65107
4.61604
4.58271
4.55099
4.52079
4.49202
4.46461
4.43848
4.41355
4.38974
4.36699
4.34523
4.32441
4.30447
4.28535
4.267
4.24939
4.23246
4.21617
4.2005
4.1854
4.17084
5.16939
5.11358
5.062
5.01464
4.9715
4.93252
4.89752
4.86624
4.83836
4.81355
4.79149
4.77188
4.75443
4.73888
4.725
4.71258
4.70143
4.69138
4.6823
4.67404
4.6665
4.65958
4.65319
4.64725
4.6417
4.63648
4.63153
4.62682
4.62231
4.61795
4.61373
4.60961
4.60557
5.17809
5.16328
5.16954
5.19127
5.22451
5.26623
5.31404
5.36604
5.42083
5.4773
5.53461
5.59212
5.6493
5.70579
5.76127
5.81552
5.86839
5.91976
5.96954
6.0177
6.06419
6.10901
6.15217
6.19369
6.23358
6.27189
6.30865
6.3439
6.37769
6.41006
6.44107
6.47076
6.4992
5.6386
6.43042
7.14584
7.82542
8.49417
9.14611
9.77535
10.3795
10.9585
11.5131
12.0448
12.5551
13.0455
13.5175
13.9723
14.4111
14.8349
15.2447
15.6411
16.025
16.397
16.7578
17.1078
17.4477
17.7779
18.0989
18.4112
18.7152
19.0113
19.3
19.5817
19.8567
20.1254
44.7794
48.3124
51.8864
55.4656
59.0311
62.5709
66.0744
69.532
72.9348
76.2752
79.5462
82.742
85.8578
88.8896
91.8343
94.6895
97.4534
100.125
102.704
105.191
107.585
109.888
112.101
114.225
116.262
118.215
120.084
121.873
123.584
125.218
126.779
128.268
129.69
695.153
828.121
950.066
1064.91
1170.18
1254.49
1303.07
1307.4
1268.68
1197.7
1110.72
1021.82
939.458
866.848
804.042
749.982
703.723
664.465
631.513
604.251
581.967
563.836
548.999
536.635
525.998
516.403
507.195
497.729
487.362
475.454
461.372
444.498
424.238
400.034
371.405
338.01
299.756
256.969
210.63
162.666
116.145
75.0942
43.4325
23.0633
12.554
8.2398
6.82652
6.53415
6.63403
6.8525
7.0834
7.28285
7.43322
7.53
7.57582
7.57711
7.54184
7.47817
7.39364
7.29478
7.18707
7.07492
6.96182
6.85049
6.74299
6.64087
6.5453
6.45708
6.37676
6.30464
6.24077
6.18494
6.13673
6.09547
6.06023
6.02985
6.00284
5.9774
5.95137
5.92226
5.88727
5.84348
5.78795
5.71802
5.63149
5.52682
5.40326
5.26072
5.0996
4.92045
4.72367
4.50931
4.2772
4.02727
3.76037
3.47885
3.18834
2.89218
2.62663
2.24408
151.362
159.945
173.632
195.82
230.065
279.562
346.748
430.408
524.597
618.992
701.186
760.689
792.319
797.269
781.519
752.928
718.539
683.235
650.164
620.49
594.18
570.773
549.777
530.745
513.232
496.738
480.687
464.457
447.414
428.937
408.438
385.381
359.292
329.807
296.726
260.11
220.426
178.717
136.777
97.2044
63.1085
37.2199
20.574
11.7785
7.95561
6.5656
6.18868
6.20952
6.38009
6.59421
6.80131
6.97611
7.10713
7.1913
7.23082
7.23089
7.1981
7.13931
7.061
6.96887
6.86779
6.76174
6.65394
6.54691
6.44265
6.34268
6.24817
6.15999
6.07878
6.00496
5.9387
5.87999
5.82857
5.78397
5.74547
5.71214
5.68272
5.65568
5.62915
5.60089
5.56841
5.52902
5.47997
5.4187
5.34298
5.2512
5.14235
5.01608
4.87249
4.71185
4.53432
4.33981
4.12798
3.89861
3.6523
3.39103
3.11985
2.84158
2.591
2.22588
30.7093
31.2068
31.8853
33.019
35.0492
38.8091
45.7713
58.0377
77.9476
107.379
146.978
195.645
250.448
307.063
360.634
406.758
442.386
466.39
478.231
479.73
473.778
463.228
450.234
436.078
421.307
405.985
389.918
372.803
354.301
334.076
311.82
287.278
260.299
230.895
199.326
166.197
132.561
99.9691
70.3822
45.8307
27.7627
16.3266
10.2001
7.38101
6.2392
5.86245
5.83057
5.95433
6.14123
6.34141
6.52639
6.6802
6.79507
6.86893
6.90357
6.9032
6.87325
6.81946
6.74738
6.66199
6.56757
6.46773
6.36541
6.26297
6.1623
6.06487
5.97185
5.88414
5.80244
5.72723
5.65881
5.5973
5.5426
5.49442
5.45224
5.41535
5.38275
5.35317
5.325
5.29635
5.26501
5.22856
5.18449
5.13037
5.06403
4.98376
4.8884
4.77733
4.65037
4.5075
4.34866
4.17358
3.98175
3.77281
3.54703
3.306
3.05418
2.79379
2.55813
2.21008
12.3387
12.3971
12.4493
12.4748
12.4464
12.3387
12.165
12.0619
12.3957
13.8007
17.1032
23.2026
32.9088
46.7159
64.5992
85.934
109.607
134.154
158.802
182.087
202.369
218.398
229.542
235.761
237.437
235.142
229.447
220.818
209.579
195.946
180.085
162.187
142.536
121.582
99.9923
78.6752
58.745
41.3835
27.576
17.7694
11.6463
8.27248
6.58927
5.81916
5.52404
5.48087
5.57224
5.7308
5.91496
6.09793
6.26244
6.39793
6.49898
6.56411
6.59477
6.59436
6.56729
6.51838
6.45234
6.37349
6.28562
6.19196
6.09521
5.99754
5.90074
5.80622
5.71512
5.62834
5.5466
5.47045
5.40025
5.33624
5.27843
5.22669
5.18071
5.13995
5.10366
5.07083
5.04015
5.01003
4.97858
4.94369
4.90311
4.85459
4.79607
4.72582
4.64253
4.54539
4.43394
4.30789
4.16697
4.01068
3.83839
3.64949
3.444
3.22305
2.99047
2.74788
2.52705
2.19586
7.97732
7.99311
8.0068
8.01622
8.01624
7.99581
7.93432
7.80215
7.5737
7.25675
6.92837
6.7618
7.0123
7.94216
9.75541
12.586
16.4941
21.4316
27.2506
33.8226
40.9825
48.4392
55.7814
62.5293
68.2039
72.3915
74.7878
75.2183
73.6385
70.1245
64.8635
58.1487
50.3771
42.0429
33.7136
25.9763
19.3468
14.1555
10.4603
8.05705
6.60521
5.78048
5.35088
5.17079
5.14927
5.22686
5.36272
5.52768
5.7004
5.86523
6.01102
6.13047
6.2196
6.27729
6.30465
6.30437
6.28006
6.23574
6.17539
6.10276
6.02119
5.93356
5.84233
5.74951
5.65676
5.56544
5.47663
5.39122
5.30994
5.23334
5.16186
5.09577
5.03522
4.98018
4.9305
4.88582
4.84561
4.80911
4.77528
4.74285
4.71025
4.67569
4.6372
4.59279
4.54053
4.47873
4.40602
4.3214
4.22419
4.11386
3.98989
3.85161
3.69817
3.52878
3.34315
3.14194
2.92836
2.70337
2.49727
2.18274
6.15378
6.16134
6.16773
6.17338
6.1784
6.18229
6.18305
6.17564
6.15031
6.09296
5.99029
5.84149
5.67238
5.53812
5.511
5.66642
6.06922
6.77157
7.7452
8.87465
10.1148
11.432
12.7851
14.1192
15.3641
16.4366
17.2476
17.7135
17.7687
17.3788
16.5513
15.3416
13.8501
12.2111
10.5712
9.0619
7.77492
6.75085
5.98559
5.44878
5.10156
4.90602
4.82834
4.83956
4.91524
5.03484
5.18099
5.339
5.49657
5.64371
5.7727
5.87818
5.95706
6.00839
6.03298
6.03295
6.01122
5.97112
5.91604
5.84922
5.77359
5.69174
5.60588
5.51788
5.42927
5.34134
5.25512
5.17147
5.0911
5.01457
4.94233
4.8747
4.81189
4.75398
4.70091
4.65251
4.6084
4.56807
4.53073
4.4954
4.46083
4.42555
4.38793
4.34622
4.2987
4.24378
4.18007
4.10648
4.02213
3.92627
3.81814
3.69688
3.56146
3.41086
3.24448
3.06251
2.86755
2.65988
2.4683
2.17025
5.20198
5.20312
5.2036
5.20379
5.2041
5.20494
5.2065
5.20855
5.21
5.20832
5.1991
5.17677
5.13717
5.08162
5.01998
4.97113
4.95917
5.01272
5.13597
5.31688
5.54156
5.79515
6.06238
6.3276
6.5747
6.78736
6.94966
7.04727
7.06902
7.0087
6.86668
6.65089
6.37661
6.06497
5.74014
5.42593
5.14279
4.90585
4.72424
4.60154
4.5369
4.52614
4.56279
4.63893
4.74583
4.87444
5.01577
5.1612
5.30277
5.43347
5.5476
5.64096
5.71104
5.75695
5.77923
5.77951
5.76015
5.72391
5.67367
5.61222
5.54214
5.46574
5.38503
5.30173
5.21726
5.13282
5.0494
4.96782
4.88876
4.81278
4.74031
4.6717
4.6072
4.54694
4.49097
4.43921
4.39146
4.34738
4.30642
4.26786
4.23075
4.19396
4.15615
4.11589
4.07169
4.02212
3.96585
3.90173
3.82876
3.74598
3.65245
3.54709
3.42868
3.29597
3.14805
2.98468
2.8078
2.61705
2.43974
2.158
4.66532
4.66
4.65444
4.6488
4.64334
4.63834
4.63409
4.63082
4.62856
4.6271
4.62569
4.62294
4.61688
4.60549
4.58777
4.56493
4.54085
4.52276
4.51605
4.5239
4.5467
4.58253
4.6278
4.6779
4.72772
4.7721
4.80618
4.82574
4.82758
4.80986
4.77241
4.71689
4.64681
4.56733
4.48481
4.40621
4.33839
4.28752
4.25847
4.2545
4.27712
4.3261
4.39964
4.49454
4.60656
4.73064
4.86121
4.99246
5.11866
5.23456
5.33564
5.41852
5.48103
5.52231
5.54265
5.54328
5.52609
5.49337
5.44754
5.39102
5.32608
5.25479
5.17897
5.10018
5.01977
4.93886
4.85837
4.77909
4.70167
4.62664
4.55443
4.48539
4.41978
4.35777
4.29946
4.24486
4.19389
4.14635
4.1019
4.06004
4.02009
3.98122
3.94241
3.90253
3.86038
3.81473
3.76437
3.70816
3.64503
3.57388
3.49358
3.40285
3.30028
3.18441
3.054
2.9084
2.74893
2.57461
2.41123
2.1456
4.35695
4.34566
4.33437
4.32319
4.31228
4.30182
4.29201
4.28301
4.27497
4.26792
4.2618
4.25634
4.25104
4.24514
4.23779
4.22829
4.21645
4.20299
4.18916
4.17635
4.1658
4.1582
4.15367
4.1517
4.15133
4.15128
4.15015
4.14667
4.13979
4.12893
4.11403
4.09573
4.07531
4.05471
4.03643
4.02329
4.01829
4.02425
4.04362
4.07823
4.12907
4.19622
4.27879
4.37495
4.48202
4.5966
4.71472
4.83206
4.9442
5.04696
5.13667
5.21046
5.26642
5.3037
5.32239
5.32338
5.30817
5.27863
5.23682
5.18481
5.12462
5.05809
4.98686
4.91239
4.83591
4.75849
4.681
4.60417
4.52864
4.4549
4.38338
4.3144
4.24823
4.18506
4.12502
4.06818
4.01454
3.964
3.91638
3.87136
3.82851
3.78726
3.74688
3.70656
3.66537
3.62234
3.57645
3.52663
3.4718
3.41076
3.34223
3.26476
3.17675
3.07651
2.96253
2.83374
2.69088
2.53237
2.3825
2.13276
4.18277
4.16639
4.15015
4.13412
4.11841
4.10313
4.08841
4.07441
4.06124
4.04899
4.0377
4.02732
4.01775
4.00876
4.00003
3.99116
3.9818
3.97169
3.9608
3.94928
3.93741
3.92554
3.91399
3.90299
3.89264
3.88294
3.87379
3.86508
3.85674
3.84883
3.8416
3.83554
3.83144
3.83036
3.83359
3.84263
3.85903
3.88432
3.91983
3.96654
4.02499
4.09515
4.17635
4.26725
4.36587
4.46962
4.57544
4.6799
4.77945
4.87064
4.95041
5.01628
5.06655
5.10033
5.11757
5.11889
5.10545
5.07879
5.04062
4.99275
4.93693
4.87481
4.80789
4.73751
4.66482
4.5908
4.51631
4.44203
4.36855
4.29637
4.22588
4.15739
4.09117
4.0274
3.96624
3.90778
3.85206
3.79908
3.74875
3.70092
3.65533
3.61162
3.56936
3.528
3.48692
3.44542
3.4027
3.35784
3.30979
3.25734
3.19908
3.13341
3.05857
2.97265
2.87387
2.76079
2.63362
2.4902
2.35336
2.11923
4.08858
4.06827
4.04815
4.02827
4.00871
3.98955
3.9709
3.95287
3.93556
3.91907
3.90346
3.88875
3.87495
3.862
3.84978
3.83816
3.82695
3.81596
3.80503
3.79406
3.78303
3.77198
3.76102
3.75029
3.73998
3.73027
3.72138
3.71352
3.70696
3.70202
3.69909
3.69869
3.70145
3.70814
3.71962
3.73684
3.76078
3.79235
3.83237
3.88139
3.9397
4.00714
4.08313
4.16657
4.25587
4.34894
4.44328
4.53611
4.62447
4.70548
4.77653
4.83545
4.88069
4.91138
4.92732
4.92891
4.91704
4.89294
4.85807
4.81396
4.76216
4.70413
4.64124
4.57472
4.50564
4.43493
4.36339
4.29169
4.22039
4.14995
4.08076
4.01311
3.94727
3.8834
3.82167
3.76218
3.70501
3.65019
3.59772
3.54754
3.49953
3.45352
3.40929
3.36655
3.32497
3.28411
3.24344
3.20223
3.15956
3.1142
3.06471
3.00935
2.94621
2.8732
2.78831
2.68974
2.57722
2.44809
2.32369
2.10483
4.04079
4.01775
3.9949
3.97226
3.94991
3.9279
3.90633
3.88528
3.86486
3.84514
3.82621
3.80812
3.7909
3.77457
3.7591
3.74445
3.73056
3.71734
3.70471
3.6926
3.68096
3.66978
3.65909
3.64896
3.63951
3.63092
3.62338
3.61715
3.61254
3.60989
3.60961
3.61219
3.61816
3.62814
3.64278
3.66277
3.6888
3.7215
3.76138
3.80881
3.8639
3.92644
3.99592
4.07137
4.15148
4.23452
4.3184
4.40079
4.47923
4.55125
4.6146
4.66737
4.70813
4.73603
4.75076
4.75254
4.74203
4.72021
4.6883
4.64761
4.59949
4.54524
4.48611
4.42322
4.35758
4.29005
4.2214
4.15227
4.0832
4.01464
3.94694
3.88041
3.81528
3.75174
3.68992
3.62995
3.5719
3.51585
3.46182
3.40982
3.35985
3.31185
3.26577
3.22154
3.17908
3.13822
3.09869
3.06002
3.02141
2.98175
2.93955
2.89302
2.8401
2.77855
2.70614
2.6208
2.52181
2.40605
2.29345
2.08945
4.01835
3.99364
3.96907
3.94468
3.9205
3.89661
3.87308
3.84998
3.82739
3.80541
3.7841
3.76354
3.74377
3.72485
3.70679
3.68961
3.67328
3.65781
3.64316
3.62932
3.61628
3.60405
3.59266
3.58218
3.57269
3.56435
3.55731
3.55181
3.54811
3.54652
3.54741
3.55118
3.5583
3.56925
3.58456
3.60476
3.63036
3.66181
3.69949
3.74361
3.79421
3.85107
3.9137
3.9813
4.05272
4.12651
4.20092
4.27398
4.34358
4.40762
4.46412
4.5114
4.54813
4.57347
4.58703
4.58891
4.57955
4.55975
4.53048
4.49288
4.44812
4.39736
4.34172
4.28224
4.21985
4.15537
4.08953
4.02294
3.95612
3.8895
3.82344
3.75823
3.69409
3.6312
3.5697
3.5097
3.4513
3.39456
3.33954
3.2863
3.23487
3.1853
3.13764
3.09201
3.04851
3.00723
2.96817
2.9311
2.89544
2.86019
2.82391
2.78476
2.74058
2.68901
2.62766
2.5542
2.46756
2.36421
2.26269
2.07305
4.00867
3.98306
3.95754
3.93214
3.90691
3.88191
3.85718
3.8328
3.80884
3.78538
3.76249
3.74024
3.7187
3.69793
3.67796
3.65883
3.64057
3.6232
3.60673
3.5912
3.57661
3.56301
3.55045
3.539
3.52876
3.51984
3.51242
3.50667
3.50283
3.50118
3.50201
3.50567
3.51254
3.52302
3.53753
3.55649
3.5803
3.60929
3.64372
3.68376
3.72936
3.78033
3.83622
3.89633
3.95968
4.02503
4.09088
4.15557
4.21728
4.27418
4.32455
4.36688
4.39994
4.4229
4.43533
4.43719
4.42879
4.41073
4.38382
4.349
4.3073
4.25974
4.20735
4.15106
4.09174
4.03017
3.96703
3.90292
3.83834
3.77371
3.70937
3.64561
3.58266
3.52068
3.45981
3.40017
3.34184
3.2849
3.22941
3.17545
3.12308
3.0724
3.02355
2.97674
2.93224
2.89034
2.8513
2.81512
2.78147
2.74952
2.71789
2.68476
2.64791
2.60489
2.55316
2.49023
2.4147
2.32272
2.2315
2.05566
4.00482
3.97878
3.95279
3.92689
3.90112
3.87552
3.85013
3.82502
3.80026
3.7759
3.75203
3.7287
3.70598
3.68393
3.66261
3.64207
3.62235
3.6035
3.58555
3.56855
3.55255
3.53759
3.52375
3.51111
3.49976
3.48983
3.48147
3.47485
3.47018
3.46768
3.46762
3.4703
3.47602
3.48513
3.49796
3.51484
3.53609
3.56197
3.59268
3.6283
3.6688
3.71396
3.7634
3.81649
3.8724
3.93006
3.9882
4.04535
4.09998
4.15047
4.19531
4.23313
4.26281
4.28354
4.29485
4.29659
4.28896
4.2724
4.24756
4.21524
4.17631
4.1317
4.0823
4.02899
3.97256
3.91375
3.85321
3.79151
3.72913
3.66649
3.60392
3.54171
3.48007
3.41919
3.3592
3.3002
3.24229
3.18554
3.13003
3.07582
3.023
2.97169
2.92205
2.87438
2.82905
2.78652
2.74723
2.71145
2.67908
2.64948
2.6214
2.59306
2.56222
2.52637
2.48289
2.42913
2.36346
2.28179
2.20005
2.03736
4.00339
3.97716
3.95097
3.92484
3.89881
3.87292
3.84719
3.8217
3.79648
3.7716
3.74713
3.72311
3.69963
3.67673
3.65448
3.63293
3.61213
3.59215
3.57303
3.55483
3.5376
3.52142
3.50636
3.49251
3.47997
3.46885
3.45931
3.4515
3.44561
3.44184
3.44043
3.44162
3.44568
3.4529
3.46356
3.47792
3.49624
3.51873
3.54553
3.5767
3.61219
3.65179
3.69516
3.74175
3.79085
3.84152
3.89266
3.94303
3.99126
4.03596
4.07578
4.10949
4.13604
4.15465
4.16483
4.16636
4.15932
4.14404
4.12101
4.09092
4.0545
4.01257
3.96594
3.9154
3.86169
3.80549
3.74743
3.68805
3.62782
3.56715
3.50636
3.44575
3.38552
3.32587
3.26692
3.20879
3.15156
3.09532
3.04013
2.98607
2.93321
2.88169
2.83168
2.78351
2.7376
2.69454
2.65493
2.61925
2.58762
2.55963
2.53417
2.50955
2.48353
2.45358
2.41703
2.37114
2.31412
2.24168
2.16856
2.01828
4.00284
3.97654
3.95027
3.92405
3.89791
3.87187
3.84598
3.82027
3.7948
3.76961
3.74476
3.72031
3.69631
3.67283
3.64992
3.62763
3.60603
3.58518
3.56513
3.54594
3.52769
3.51043
3.49427
3.47927
3.46556
3.45324
3.44244
3.43333
3.42607
3.42084
3.41785
3.41733
3.41949
3.42459
3.43286
3.44453
3.45981
3.47885
3.50178
3.52862
3.55931
3.59368
3.63141
3.67202
3.71488
3.7592
3.80401
3.84823
3.89067
3.93011
3.96535
3.99527
4.01891
4.0355
4.04455
4.04578
4.03918
4.02496
4.00352
3.9754
3.94125
3.90177
3.85769
3.80971
3.75854
3.70481
3.64911
3.59196
3.53381
3.47507
3.41606
3.35706
3.2983
3.23995
3.18216
3.12504
3.06869
3.01319
2.95859
2.90498
2.85243
2.80106
2.75106
2.70273
2.65654
2.61313
2.57324
2.5375
2.50627
2.47933
2.45576
2.43395
2.41172
2.38654
2.35571
2.31648
2.26691
2.20264
2.13728
1.99861
4.00259
3.97626
3.94996
3.92369
3.8975
3.87139
3.8454
3.81958
3.79394
3.76856
3.74346
3.7187
3.69434
3.67043
3.64702
3.62417
3.60194
3.58039
3.55958
3.53957
3.52044
3.50225
3.48509
3.46905
3.45423
3.44074
3.42872
3.4183
3.40964
3.4029
3.39828
3.39598
3.39618
3.3991
3.40496
3.41393
3.42619
3.44188
3.46107
3.4838
3.51
3.5395
3.57202
3.60714
3.64431
3.68284
3.7219
3.76054
3.79772
3.83237
3.86341
3.88983
3.91074
3.92541
3.93333
3.93417
3.92787
3.91453
3.89446
3.8681
3.83598
3.79873
3.75698
3.71139
3.66259
3.61119
3.55772
3.5027
3.44656
3.3897
3.33244
3.27505
3.21777
3.16078
3.10422
3.04822
2.99287
2.93826
2.88446
2.83152
2.77954
2.72861
2.67892
2.63074
2.58456
2.54103
2.50096
2.46515
2.43411
2.40784
2.38559
2.36587
2.34656
2.32517
2.299
2.2653
2.22207
2.16493
2.10647
1.97856
4.00242
3.97608
3.94976
3.92347
3.89724
3.87109
3.84504
3.81912
3.79338
3.76784
3.74256
3.71757
3.69292
3.66867
3.64486
3.62156
3.59881
3.57668
3.55523
3.53452
3.51461
3.49559
3.47754
3.46055
3.4447
3.43012
3.41692
3.40524
3.39522
3.38701
3.38079
3.37673
3.375
3.3758
3.3793
3.38566
3.39503
3.40753
3.42321
3.44209
3.4641
3.4891
3.51682
3.54692
3.5789
3.61216
3.64598
3.67954
3.71193
3.74219
3.76937
3.79255
3.8109
3.82373
3.83051
3.83091
3.82478
3.81217
3.79328
3.76846
3.73817
3.70294
3.66334
3.61995
3.57336
3.52413
3.47278
3.41979
3.36558
3.31054
3.25498
3.19919
3.14339
3.08778
3.03249
2.97767
2.92341
2.8698
2.81691
2.76482
2.71359
2.66332
2.61416
2.5664
2.52046
2.47703
2.43695
2.4011
2.37017
2.34432
2.32298
2.30479
2.28772
2.2693
2.24687
2.21771
2.17982
2.12883
2.07642
1.95839
4.00227
3.97592
3.94958
3.92328
3.89702
3.87083
3.84473
3.81874
3.7929
3.76724
3.7418
3.71661
3.69173
3.66719
3.64305
3.61936
3.59617
3.57354
3.55152
3.53019
3.5096
3.48984
3.47098
3.45311
3.43632
3.42072
3.40642
3.39355
3.38223
3.37262
3.36487
3.35912
3.35555
3.35432
3.35558
3.35947
3.36612
3.37562
3.38801
3.40332
3.42146
3.44231
3.46564
3.49113
3.51837
3.54682
3.57587
3.6048
3.63281
3.65905
3.68267
3.70284
3.71879
3.72985
3.73551
3.73541
3.72935
3.71731
3.69944
3.67598
3.64733
3.61393
3.57629
3.53493
3.4904
3.44322
3.39387
3.3428
3.29045
3.23716
3.18326
3.12904
3.0747
3.02046
2.96647
2.91286
2.85973
2.80719
2.75531
2.70415
2.65379
2.60433
2.55589
2.50872
2.46324
2.42009
2.38015
2.34435
2.3135
2.28793
2.26722
2.25017
2.2348
2.21869
2.19925
2.17378
2.14032
2.09458
2.04742
1.93836
4.00212
3.97576
3.94941
3.92308
3.8968
3.87057
3.84442
3.81837
3.79244
3.76667
3.74109
3.71574
3.69065
3.66586
3.64143
3.61739
3.59381
3.57073
3.54822
3.52633
3.50513
3.48469
3.46509
3.44642
3.42876
3.41221
3.39689
3.3829
3.37037
3.35944
3.35023
3.34291
3.3376
3.33446
3.33361
3.33519
3.33929
3.346
3.35536
3.36735
3.38192
3.39896
3.41825
3.43953
3.46243
3.4865
3.51119
3.53588
3.55987
3.58242
3.60276
3.62013
3.63382
3.6432
3.64776
3.64712
3.64104
3.62946
3.61245
3.59019
3.563
3.53126
3.49542
3.45594
3.41333
3.36806
3.32059
3.27136
3.22078
3.16918
3.1169
3.0642
3.01131
2.95843
2.90573
2.85334
2.80138
2.74994
2.6991
2.64895
2.59954
2.55097
2.50335
2.45691
2.41203
2.36933
2.32965
2.29399
2.26324
2.23787
2.21763
2.20142
2.18736
2.17308
2.15601
2.13352
2.1037
2.06239
2.01974
1.91874
4.00196
3.97559
3.94922
3.92287
3.89656
3.8703
3.8441
3.81799
3.79198
3.76611
3.74041
3.7149
3.68962
3.66461
3.63992
3.61558
3.59164
3.56817
3.5452
3.52281
3.50105
3.48
3.45973
3.44032
3.42186
3.40443
3.38815
3.37313
3.35947
3.3473
3.33675
3.32794
3.32101
3.31608
3.31328
3.3127
3.31444
3.31856
3.3251
3.33404
3.34533
3.35886
3.37446
3.39188
3.41081
3.43086
3.45157
3.47238
3.49269
3.51184
3.52914
3.54391
3.55548
3.56326
3.56674
3.56553
3.55937
3.54814
3.53186
3.51066
3.48478
3.45455
3.42035
3.38261
3.34178
3.29831
3.25262
3.20514
3.15625
3.10629
3.05557
3.00436
2.95289
2.90137
2.84995
2.79879
2.74799
2.69767
2.6479
2.59878
2.55036
2.50274
2.45601
2.41038
2.36619
2.32403
2.28473
2.24928
2.21867
2.19347
2.17357
2.15801
2.14498
2.13216
2.11699
2.09692
2.07009
2.03248
1.99365
1.8998
4.00181
3.97542
3.94903
3.92266
3.89632
3.87001
3.84377
3.8176
3.79152
3.76555
3.73973
3.71408
3.68864
3.66343
3.6385
3.61388
3.58963
3.5658
3.54243
3.51958
3.49732
3.4757
3.45482
3.43473
3.41552
3.39729
3.38013
3.36414
3.34943
3.33611
3.3243
3.31412
3.30568
3.2991
3.29447
3.2919
3.29145
3.29319
3.29712
3.30325
3.31152
3.32183
3.33403
3.34792
3.36321
3.37959
3.39664
3.41389
3.43081
3.44683
3.46133
3.47368
3.48326
3.48952
3.49196
3.49018
3.48389
3.47294
3.45728
3.43701
3.4123
3.38343
3.35074
3.31461
3.27544
3.23365
3.18966
3.14385
3.09658
3.04821
2.99901
2.94927
2.89921
2.84902
2.79889
2.74895
2.69932
2.65012
2.60144
2.55336
2.50595
2.45929
2.41348
2.3687
2.32526
2.28371
2.24484
2.20967
2.17921
2.15415
2.13452
2.11947
2.10728
2.09564
2.08204
2.06394
2.03954
2.00502
1.9694
1.88184
4.00164
3.97524
3.94883
3.92243
3.89606
3.86972
3.84343
3.8172
3.79105
3.765
3.73907
3.71329
3.68769
3.6623
3.63715
3.61229
3.58776
3.56359
3.53986
3.5166
3.49387
3.47175
3.4503
3.42959
3.4097
3.39073
3.37275
3.35588
3.34019
3.32581
3.31284
3.30138
3.29154
3.28342
3.27711
3.27269
3.27023
3.26976
3.2713
3.27484
3.28033
3.28768
3.29677
3.30741
3.31937
3.33237
3.34606
3.36004
3.37386
3.38699
3.39889
3.409
3.41674
3.42157
3.42301
3.42066
3.41421
3.40346
3.38834
3.36888
3.34522
3.31759
3.28627
3.25162
3.21401
3.17382
3.13144
3.08724
3.04156
2.99474
2.94705
2.89876
2.8501
2.80126
2.75241
2.7037
2.65525
2.60718
2.55958
2.51254
2.46614
2.42045
2.37557