/*--------------------------------*- C++ -*----------------------------------*\
| =========                 |                                                 |
| \\      /  F ield         | OpenFOAM: The Open Source CFD Toolbox           |
|  \\    /   O peration     | Version:  2.1.1                                 |
|   \\  /    A nd           | Web:      www.OpenFOAM.org                      |
|    \\/     M anipulation  |                                                 |
\*---------------------------------------------------------------------------*/
FoamFile
{
    version     2.0;
    format      ascii;
    class       volScalarField;
    location    "0.075";
    object      k;
}
// * * * * * * * * * * * * * * * * * * * * * * * * * * * * * * * * * * * * * //

dimensions      [0 2 -2 0 0 0 0];

internalField   nonuniform List<scalar> 
6820
(
0.288909
0.351398
0.415005
0.477466
0.536858
0.591552
0.640361
0.682608
0.718089
0.746974
0.769708
0.786905
0.799267
0.807509
0.812324
0.814343
0.814129
0.812167
0.808869
0.804574
0.799561
0.794054
0.788232
0.782234
0.776166
0.770109
0.764119
0.758246
0.752452
0.747048
0.740571
0.739989
0.711604
0.265533
0.269397
0.270523
0.271342
0.272561
0.27422
0.276236
0.278493
0.280883
0.28332
0.285748
0.288137
0.290479
0.292779
0.295053
0.297319
0.299599
0.301912
0.304276
0.306706
0.309212
0.311804
0.314488
0.317268
0.320148
0.323133
0.326229
0.329452
0.332821
0.336402
0.340232
0.344779
0.349668
0.262038
0.264253
0.263595
0.261556
0.258999
0.256317
0.253626
0.250937
0.248239
0.245524
0.242793
0.240061
0.237345
0.234668
0.232053
0.22952
0.227089
0.224775
0.22259
0.220546
0.218648
0.216901
0.215306
0.213865
0.212575
0.211437
0.210447
0.209605
0.208907
0.208361
0.207955
0.207725
0.207624
0.259885
0.260272
0.259797
0.258536
0.256829
0.254891
0.252833
0.250709
0.248545
0.246356
0.24415
0.241932
0.239709
0.237489
0.235279
0.233087
0.23092
0.228785
0.226688
0.224636
0.222632
0.220682
0.218787
0.216952
0.215178
0.213465
0.211815
0.210227
0.2087
0.207235
0.205827
0.204479
0.203178
0.259299
0.258404
0.2576
0.256567
0.255295
0.25385
0.252292
0.250661
0.248983
0.247276
0.245549
0.243812
0.242071
0.24033
0.238595
0.236869
0.235157
0.233461
0.231784
0.23013
0.228501
0.226899
0.225327
0.223785
0.222275
0.220798
0.219355
0.217945
0.216569
0.215227
0.213917
0.212641
0.211397
0.259225
0.257848
0.256623
0.255437
0.254227
0.25297
0.251663
0.250312
0.248928
0.247521
0.246099
0.244668
0.243234
0.241801
0.240372
0.238951
0.237541
0.236143
0.234759
0.233391
0.232042
0.230711
0.2294
0.228111
0.226844
0.225599
0.224377
0.223178
0.222003
0.220851
0.219722
0.218617
0.217536
0.259217
0.257715
0.256309
0.25498
0.253698
0.252442
0.251196
0.249951
0.248703
0.247454
0.246203
0.244954
0.243707
0.242466
0.241232
0.240008
0.238794
0.237592
0.236403
0.235229
0.234071
0.232928
0.231802
0.230693
0.229603
0.22853
0.227476
0.22644
0.225423
0.224424
0.223445
0.222484
0.221542
0.259218
0.25769
0.256225
0.254822
0.253477
0.252181
0.250923
0.249696
0.248491
0.247305
0.246135
0.24498
0.243837
0.242708
0.241591
0.240488
0.239399
0.238325
0.237264
0.236219
0.235189
0.234175
0.233177
0.232195
0.231229
0.230279
0.229346
0.228429
0.227529
0.226645
0.225778
0.224927
0.224093
0.259218
0.257686
0.256207
0.25478
0.253405
0.25208
0.250799
0.24956
0.248356
0.247184
0.246041
0.244923
0.243828
0.242755
0.241701
0.240667
0.239651
0.238654
0.237673
0.23671
0.235764
0.234834
0.233921
0.233025
0.232145
0.231281
0.230433
0.229601
0.228785
0.227984
0.227199
0.22643
0.225675
0.259218
0.257686
0.256203
0.254769
0.253384
0.252045
0.250751
0.2495
0.248288
0.247113
0.245973
0.244865
0.243786
0.242735
0.24171
0.240709
0.23973
0.238774
0.237838
0.236923
0.236026
0.235149
0.23429
0.233448
0.232624
0.231817
0.231026
0.230252
0.229494
0.228751
0.228024
0.227312
0.226615
0.259218
0.257686
0.256202
0.254767
0.253378
0.252035
0.250735
0.249477
0.248259
0.24708
0.245936
0.244828
0.243752
0.242706
0.24169
0.240702
0.239739
0.238802
0.237888
0.236997
0.236127
0.235278
0.23445
0.233641
0.23285
0.232078
0.231323
0.230585
0.229864
0.229159
0.22847
0.227797
0.227139
0.259218
0.257685
0.256201
0.254766
0.253376
0.252031
0.250729
0.249469
0.248248
0.247065
0.245919
0.244808
0.243731
0.242686
0.241671
0.240686
0.239729
0.238798
0.237893
0.237012
0.236155
0.23532
0.234506
0.233714
0.232941
0.232188
0.231453
0.230737
0.230038
0.229356
0.228691
0.228041
0.227408
0.259218
0.257685
0.256201
0.254765
0.253375
0.252029
0.250727
0.249465
0.248243
0.247059
0.245911
0.244799
0.24372
0.242674
0.241659
0.240674
0.239717
0.238788
0.237886
0.237009
0.236156
0.235326
0.234519
0.233734
0.23297
0.232226
0.231502
0.230796
0.230109
0.229439
0.228787
0.228151
0.227532
0.259218
0.257685
0.256201
0.254764
0.253374
0.252028
0.250725
0.249463
0.248241
0.247056
0.245907
0.244794
0.243715
0.242668
0.241652
0.240666
0.239709
0.23878
0.237878
0.237001
0.23615
0.235322
0.234517
0.233735
0.232974
0.232234
0.231514
0.230813
0.230131
0.229468
0.228822
0.228193
0.227581
0.259218
0.257685
0.256201
0.254764
0.253374
0.252028
0.250724
0.249462
0.248239
0.247054
0.245905
0.244791
0.243711
0.242664
0.241647
0.240661
0.239704
0.238774
0.237872
0.236995
0.236144
0.235316
0.234512
0.233731
0.232971
0.232232
0.231514
0.230815
0.230135
0.229474
0.228831
0.228205
0.227597
0.259218
0.257685
0.2562
0.254764
0.253373
0.252027
0.250723
0.249461
0.248237
0.247052
0.245903
0.244789
0.243708
0.24266
0.241644
0.240657
0.239699
0.23877
0.237867
0.23699
0.236138
0.235311
0.234507
0.233725
0.232966
0.232227
0.231509
0.230811
0.230132
0.229472
0.22883
0.228206
0.227599
0.259218
0.257685
0.2562
0.254763
0.253373
0.252026
0.250722
0.249459
0.248236
0.24705
0.245901
0.244787
0.243706
0.242658
0.241641
0.240654
0.239696
0.238766
0.237863
0.236986
0.236134
0.235306
0.234502
0.233721
0.232961
0.232223
0.231505
0.230807
0.230128
0.229468
0.228827
0.228203
0.227596
0.259218
0.257685
0.2562
0.254763
0.253372
0.252026
0.250722
0.249459
0.248235
0.247049
0.245899
0.244785
0.243704
0.242656
0.241638
0.240651
0.239693
0.238763
0.23786
0.236982
0.23613
0.235303
0.234498
0.233717
0.232957
0.232218
0.2315
0.230802
0.230124
0.229464
0.228822
0.228199
0.227592
0.259218
0.257684
0.2562
0.254763
0.253372
0.252025
0.250721
0.249458
0.248234
0.247048
0.245898
0.244783
0.243702
0.242653
0.241636
0.240649
0.23969
0.23876
0.237857
0.236979
0.236127
0.235299
0.234494
0.233713
0.232953
0.232214
0.231496
0.230798
0.23012
0.22946
0.228818
0.228194
0.227587
0.259218
0.257684
0.2562
0.254763
0.253371
0.252025
0.25072
0.249457
0.248233
0.247047
0.245897
0.244782
0.2437
0.242652
0.241634
0.240646
0.239688
0.238757
0.237854
0.236976
0.236124
0.235296
0.234491
0.233709
0.232949
0.232211
0.231492
0.230794
0.230116
0.229456
0.228814
0.22819
0.227583
0.259218
0.257684
0.256199
0.254762
0.253371
0.252024
0.25072
0.249456
0.248232
0.247046
0.245896
0.24478
0.243699
0.24265
0.241632
0.240644
0.239686
0.238755
0.237851
0.236973
0.236121
0.235293
0.234488
0.233706
0.232946
0.232207
0.231489
0.23079
0.230112
0.229451
0.228809
0.228185
0.227578
0.259218
0.257684
0.256199
0.254762
0.253371
0.252024
0.250719
0.249456
0.248231
0.247045
0.245894
0.244779
0.243698
0.242648
0.24163
0.240642
0.239684
0.238753
0.237849
0.236971
0.236118
0.23529
0.234485
0.233703
0.232942
0.232203
0.231485
0.230787
0.230108
0.229447
0.228805
0.228181
0.227573
0.259218
0.257684
0.256199
0.254762
0.253371
0.252024
0.250719
0.249455
0.248231
0.247044
0.245894
0.244778
0.243696
0.242647
0.241629
0.240641
0.239682
0.238751
0.237846
0.236968
0.236116
0.235287
0.234482
0.2337
0.232939
0.2322
0.231481
0.230783
0.230104
0.229443
0.228801
0.228176
0.227568
0.259218
0.257684
0.256199
0.254762
0.253371
0.252023
0.250719
0.249455
0.24823
0.247043
0.245893
0.244777
0.243695
0.242646
0.241627
0.240639
0.23968
0.238749
0.237844
0.236966
0.236113
0.235284
0.234479
0.233697
0.232936
0.232197
0.231478
0.230779
0.2301
0.229439
0.228796
0.228171
0.227563
0.259218
0.257684
0.256199
0.254762
0.25337
0.252023
0.250718
0.249454
0.24823
0.247043
0.245892
0.244776
0.243694
0.242645
0.241626
0.240638
0.239678
0.238747
0.237843
0.236964
0.236111
0.235282
0.234477
0.233694
0.232933
0.232194
0.231475
0.230776
0.230096
0.229435
0.228792
0.228166
0.227558
0.259218
0.257684
0.256199
0.254762
0.25337
0.252023
0.250718
0.249454
0.248229
0.247042
0.245892
0.244776
0.243694
0.242644
0.241625
0.240637
0.239677
0.238746
0.237841
0.236962
0.236109
0.23528
0.234474
0.233691
0.23293
0.232191
0.231471
0.230772
0.230092
0.229431
0.228787
0.228162
0.227553
0.259218
0.257684
0.256199
0.254762
0.25337
0.252023
0.250718
0.249454
0.248229
0.247042
0.245891
0.244775
0.243693
0.242643
0.241624
0.240635
0.239676
0.238744
0.237839
0.236961
0.236107
0.235278
0.234472
0.233689
0.232928
0.232188
0.231468
0.230769
0.230088
0.229427
0.228783
0.228157
0.227548
0.259218
0.257684
0.256199
0.254762
0.25337
0.252023
0.250718
0.249454
0.248229
0.247042
0.245891
0.244775
0.243692
0.242642
0.241624
0.240635
0.239675
0.238743
0.237838
0.236959
0.236106
0.235276
0.23447
0.233687
0.232925
0.232185
0.231465
0.230766
0.230085
0.229423
0.228779
0.228152
0.227543
0.259218
0.257684
0.256199
0.254762
0.25337
0.252023
0.250718
0.249453
0.248228
0.247041
0.24589
0.244774
0.243692
0.242642
0.241623
0.240634
0.239674
0.238742
0.237837
0.236958
0.236104
0.235275
0.234468
0.233685
0.232923
0.232183
0.231463
0.230763
0.230082
0.229419
0.228775
0.228148
0.227538
0.259218
0.257684
0.256199
0.254762
0.25337
0.252023
0.250718
0.249454
0.248229
0.247042
0.245891
0.244775
0.243692
0.242642
0.241623
0.240634
0.239674
0.238742
0.237837
0.236958
0.236104
0.235274
0.234468
0.233684
0.232922
0.232181
0.231461
0.230761
0.230079
0.229417
0.228772
0.228145
0.227534
0.259218
0.257684
0.256199
0.254762
0.25337
0.252023
0.250718
0.249454
0.248229
0.247041
0.24589
0.244774
0.243692
0.242642
0.241623
0.240634
0.239674
0.238742
0.237837
0.236957
0.236103
0.235273
0.234467
0.233683
0.232921
0.23218
0.23146
0.230759
0.230077
0.229414
0.228769
0.228142
0.227531
0.259218
0.257684
0.256199
0.254762
0.253371
0.252024
0.25072
0.249456
0.248232
0.247045
0.245894
0.244778
0.243696
0.242646
0.241627
0.240638
0.239678
0.238745
0.23784
0.236961
0.236106
0.235276
0.23447
0.233685
0.232923
0.232182
0.231461
0.23076
0.230078
0.229415
0.228769
0.228141
0.227529
0.259218
0.257685
0.2562
0.254763
0.253372
0.252026
0.250721
0.249457
0.248233
0.247046
0.245895
0.244779
0.243697
0.242647
0.241629
0.24064
0.23968
0.238748
0.237843
0.236964
0.236109
0.235279
0.234472
0.233688
0.232925
0.232184
0.231462
0.23076
0.230078
0.229413
0.228767
0.228137
0.227525
0.259218
0.257685
0.256201
0.254766
0.253378
0.252034
0.250731
0.24947
0.248246
0.247061
0.245911
0.244795
0.243713
0.242664
0.241645
0.240655
0.239695
0.238762
0.237856
0.236975
0.23612
0.235288
0.234479
0.233693
0.232928
0.232184
0.23146
0.230755
0.230069
0.229401
0.228751
0.228118
0.227502
0.259219
0.257689
0.25621
0.254777
0.253389
0.252045
0.250743
0.249482
0.248259
0.247074
0.245924
0.244809
0.243727
0.242676
0.241656
0.240665
0.239702
0.238766
0.237856
0.236972
0.236111
0.235274
0.234459
0.233666
0.232893
0.232141
0.231409
0.230695
0.23
0.229323
0.228663
0.228019
0.227392
0.25922
0.257694
0.256221
0.254799
0.253423
0.252089
0.250795
0.249539
0.248318
0.247132
0.245979
0.244858
0.243768
0.242707
0.241675
0.240671
0.239693
0.23874
0.237813
0.236909
0.236029
0.23517
0.234334
0.233518
0.232722
0.231947
0.23119
0.230452
0.229731
0.229028
0.228342
0.227673
0.227019
0.259229
0.257738
0.256292
0.254882
0.253508
0.252172
0.250871
0.249603
0.248367
0.247162
0.245986
0.244837
0.243716
0.242622
0.241553
0.24051
0.239491
0.238497
0.237525
0.236577
0.23565
0.234746
0.233862
0.232999
0.232156
0.231332
0.230527
0.229741
0.228972
0.228221
0.227487
0.22677
0.226068
0.259265
0.257822
0.256453
0.255125
0.253805
0.252484
0.251165
0.249856
0.248563
0.247292
0.246047
0.24483
0.243642
0.242483
0.241353
0.240251
0.239176
0.238129
0.237107
0.23611
0.235137
0.234187
0.23326
0.232355
0.231471
0.230607
0.229763
0.228939
0.228133
0.227346
0.226576
0.225824
0.225089
0.259599
0.258632
0.257578
0.256541
0.255587
0.254713
0.253904
0.253148
0.252441
0.251778
0.251158
0.250581
0.250046
0.249553
0.249099
0.248684
0.248306
0.247964
0.247656
0.24738
0.247135
0.246918
0.24673
0.246568
0.24643
0.246316
0.246225
0.246155
0.246106
0.246077
0.246067
0.246075
0.2461
0.266719
0.280569
0.294241
0.307622
0.320667
0.333362
0.345693
0.357649
0.369225
0.380414
0.391214
0.401623
0.411643
0.421278
0.430531
0.439409
0.447919
0.456068
0.463867
0.471324
0.478449
0.485252
0.491745
0.497938
0.503842
0.509467
0.514824
0.519924
0.524777
0.529394
0.533784
0.537956
0.541925
0.836056
1.01435
1.22507
1.46896
1.73235
1.99003
2.21315
2.38165
2.49037
2.54902
2.57608
2.58856
2.59689
2.60532
2.61498
2.62664
2.64188
2.6625
2.68994
2.72487
2.76705
2.81543
2.86834
2.92374
2.97916
3.03177
3.07841
3.11562
3.13978
3.14712
3.13382
3.09601
3.02985
2.93154
2.79755
2.62483
2.41136
2.15699
1.86487
1.5437
1.21069
0.89378
0.628788
0.445395
0.347351
0.310498
0.305465
0.313847
0.326943
0.340815
0.353616
0.364489
0.373115
0.379496
0.38382
0.386373
0.387475
0.38744
0.386554
0.385065
0.383181
0.381075
0.378884
0.376717
0.374657
0.372765
0.371087
0.36965
0.368469
0.367547
0.366876
0.36644
0.366214
0.366168
0.366265
0.366463
0.366714
0.366961
0.367137
0.367167
0.366961
0.366415
0.365411
0.363818
0.361491
0.358282
0.354044
0.348641
0.341958
0.333904
0.32442
0.313478
0.301091
0.287327
0.272327
0.256325
0.239707
0.222731
0.207361
0.185312
0.35912
0.374762
0.400459
0.443079
0.510938
0.612753
0.756049
0.942204
1.16342
1.40242
1.63601
1.84234
2.00776
2.12969
2.21465
2.27356
2.31712
2.35318
2.38705
2.42107
2.45593
2.4917
2.52817
2.56462
2.59967
2.63118
2.65637
2.67205
2.67473
2.66079
2.62656
2.56839
2.48282
2.36669
2.21751
2.03391
1.81648
1.56901
1.30019
1.02561
0.768425
0.55594
0.408892
0.328449
0.29633
0.290637
0.297091
0.308544
0.32152
0.334203
0.345596
0.355191
0.362794
0.368427
0.372251
0.374503
0.375451
0.375361
0.374479
0.373024
0.371179
0.369102
0.366917
0.364729
0.362617
0.360646
0.358861
0.357296
0.355972
0.354898
0.354074
0.35349
0.353129
0.352966
0.352968
0.3531
0.353316
0.353564
0.353783
0.353902
0.353835
0.353486
0.35274
0.35147
0.349534
0.346782
0.343066
0.338247
0.332205
0.324844
0.316101
0.305944
0.294379
0.281466
0.267333
0.252194
0.236413
0.220224
0.205526
0.184291
0.207416
0.207423
0.208227
0.210517
0.215382
0.224763
0.241949
0.27175
0.320162
0.393329
0.495759
0.628294
0.786717
0.961933
1.14179
1.31384
1.46821
1.59949
1.70443
1.78599
1.84988
1.90171
1.94541
1.98285
2.0142
2.03843
2.05375
2.05792
2.04832
2.02216
1.97653
1.90867
1.81619
1.69743
1.552
1.38148
1.1904
0.987316
0.785576
0.602628
0.456242
0.35722
0.303103
0.28095
0.277051
0.282462
0.292357
0.304098
0.316121
0.327457
0.337506
0.345942
0.352638
0.357619
0.361015
0.363018
0.36385
0.363734
0.362881
0.361481
0.359697
0.35767
0.355515
0.353328
0.351187
0.349153
0.347277
0.345593
0.344127
0.342896
0.341905
0.341152
0.340625
0.340306
0.34017
0.340185
0.340313
0.340506
0.34071
0.340859
0.340875
0.340667
0.340128
0.339135
0.337549
0.335224
0.332009
0.327762
0.322359
0.3157
0.307714
0.298364
0.287649
0.275618
0.262385
0.248142
0.233224
0.217842
0.203829
0.183402
0.201733
0.200188
0.198713
0.197272
0.195864
0.194552
0.193544
0.193365
0.195086
0.200388
0.211385
0.230476
0.260293
0.303385
0.361561
0.435084
0.522303
0.619669
0.724192
0.830285
0.931687
1.02335
1.1022
1.16705
1.2179
1.25519
1.27915
1.28947
1.28527
1.26526
1.22807
1.17256
1.09824
1.00577
0.897485
0.777931
0.654212
0.535788
0.433099
0.354642
0.303449
0.275958
0.265089
0.264406
0.26968
0.27835
0.288767
0.299785
0.310586
0.32059
0.329408
0.336813
0.342712
0.347125
0.350153
0.351949
0.352692
0.352571
0.351764
0.350435
0.348728
0.346768
0.344662
0.342498
0.340348
0.338274
0.336324
0.334536
0.33294
0.331555
0.330394
0.329459
0.328747
0.328245
0.327936
0.327795
0.327788
0.327876
0.32801
0.328133
0.328174
0.328051
0.327663
0.326895
0.325614
0.323677
0.320933
0.317238
0.312464
0.306505
0.299283
0.290754
0.280909
0.269783
0.257474
0.244151
0.23012
0.215561
0.202243
0.182623
0.209988
0.208403
0.206822
0.205236
0.203635
0.202002
0.200317
0.198576
0.196834
0.195272
0.194236
0.194251
0.195996
0.200177
0.207438
0.218394
0.233628
0.25354
0.27836
0.308383
0.343441
0.382599
0.424168
0.465918
0.505394
0.540211
0.568263
0.587814
0.597531
0.596492
0.584243
0.560922
0.527447
0.485718
0.438733
0.39049
0.345497
0.307835
0.280017
0.262334
0.253299
0.250806
0.253014
0.258539
0.266319
0.275497
0.285359
0.295309
0.304861
0.313636
0.321361
0.327864
0.333073
0.336995
0.339706
0.341327
0.342004
0.34189
0.341139
0.339889
0.338269
0.33639
0.334348
0.332223
0.330085
0.32799
0.325987
0.324115
0.322404
0.320877
0.319551
0.318434
0.317528
0.316828
0.316323
0.315993
0.315814
0.315754
0.315771
0.315815
0.315826
0.31573
0.315436
0.314839
0.313812
0.312216
0.309905
0.306733
0.302568
0.297297
0.290837
0.283133
0.274168
0.263962
0.252594
0.240208
0.227079
0.213357
0.200743
0.181928
0.216302
0.214896
0.213479
0.212049
0.210603
0.209137
0.207649
0.206135
0.204589
0.203014
0.201443
0.199965
0.19875
0.198015
0.197969
0.198793
0.200649
0.2037
0.207924
0.213088
0.219201
0.226291
0.234318
0.243118
0.252376
0.26162
0.270252
0.277596
0.282988
0.285862
0.285864
0.28294
0.277402
0.269934
0.261522
0.253278
0.246224
0.241097
0.238269
0.237818
0.23963
0.243488
0.249096
0.256108
0.264146
0.272822
0.28175
0.290568
0.298955
0.30664
0.313415
0.319144
0.323759
0.327261
0.329703
0.331178
0.331803
0.331706
0.331014
0.329848
0.328321
0.326529
0.32456
0.322489
0.320378
0.318282
0.316247
0.31431
0.312503
0.310852
0.309374
0.308084
0.306987
0.306084
0.305369
0.304832
0.304454
0.304211
0.30407
0.30399
0.30392
0.303796
0.30354
0.303055
0.302226
0.300921
0.298998
0.296311
0.292725
0.288122
0.28241
0.275526
0.26744
0.258159
0.247739
0.236299
0.224082
0.211204
0.199301
0.181292
0.220465
0.219235
0.217989
0.216728
0.215456
0.214175
0.212886
0.21159
0.210287
0.208979
0.207665
0.206355
0.205079
0.203891
0.202869
0.202104
0.201678
0.201674
0.202084
0.202853
0.203935
0.205297
0.206909
0.208733
0.210723
0.212812
0.214914
0.21693
0.218754
0.22029
0.221473
0.222286
0.222776
0.223061
0.223317
0.223767
0.224644
0.226167
0.228516
0.231815
0.236119
0.24141
0.247604
0.254552
0.26206
0.269897
0.277816
0.285569
0.292919
0.299659
0.305621
0.310689
0.3148
0.317945
0.320159
0.321513
0.3221
0.322024
0.321394
0.320313
0.318878
0.317178
0.315289
0.31328
0.31121
0.309129
0.307079
0.305098
0.303218
0.301462
0.299852
0.298403
0.297126
0.296025
0.2951
0.294348
0.293755
0.293306
0.292976
0.292734
0.292538
0.292337
0.292064
0.291634
0.290945
0.289875
0.288286
0.286038
0.282993
0.279027
0.274041
0.267962
0.260745
0.252381
0.242907
0.232415
0.221111
0.209082
0.197892
0.180692
0.223139
0.222048
0.220942
0.219823
0.218693
0.217557
0.216417
0.21528
0.214149
0.213028
0.211918
0.210824
0.209748
0.208702
0.207706
0.206788
0.205986
0.205339
0.204873
0.204595
0.204501
0.204581
0.204821
0.205207
0.205725
0.206361
0.2071
0.207928
0.208833
0.209808
0.210853
0.211981
0.213221
0.21462
0.216242
0.218169
0.220491
0.2233
0.226677
0.23068
0.235337
0.240637
0.246526
0.252908
0.259653
0.266599
0.273568
0.28037
0.286821
0.292753
0.298025
0.302532
0.306216
0.309058
0.311081
0.312335
0.312895
0.312845
0.312276
0.311279
0.309936
0.308327
0.306522
0.304582
0.302562
0.300508
0.298461
0.296455
0.294521
0.292683
0.290962
0.289376
0.287936
0.286651
0.285525
0.284559
0.283747
0.28308
0.282542
0.282109
0.281752
0.28143
0.28109
0.280661
0.280055
0.27916
0.27785
0.275988
0.273436
0.270068
0.265775
0.260472
0.254103
0.246641
0.238101
0.228546
0.218151
0.206969
0.196493
0.180104
0.224813
0.223828
0.222831
0.221823
0.220807
0.219788
0.218768
0.217753
0.216748
0.215756
0.214782
0.21383
0.212902
0.212003
0.211137
0.210314
0.209546
0.208848
0.208236
0.207725
0.207323
0.207039
0.206873
0.206829
0.206906
0.207104
0.207427
0.207877
0.20846
0.209188
0.210073
0.211138
0.212408
0.213919
0.215711
0.217833
0.220333
0.223261
0.226658
0.230551
0.234949
0.239835
0.245165
0.250864
0.256834
0.262951
0.269075
0.275054
0.280738
0.285983
0.290669
0.294702
0.298023
0.30061
0.30247
0.303643
0.304184
0.304162
0.303654
0.302737
0.301485
0.299967
0.298246
0.296379
0.294415
0.292399
0.290367
0.288353
0.286385
0.284486
0.282678
0.280976
0.279396
0.277947
0.276637
0.27547
0.274445
0.273559
0.272803
0.272164
0.27162
0.271143
0.270694
0.270216
0.269635
0.268857
0.267766
0.266232
0.26412
0.2613
0.257657
0.253094
0.247541
0.240954
0.233326
0.224692
0.215194
0.20485
0.195085
0.179508
0.225819
0.224912
0.223995
0.22307
0.222139
0.221206
0.220275
0.21935
0.218435
0.217536
0.216657
0.215802
0.214973
0.214173
0.213407
0.212677
0.211989
0.211349
0.210764
0.210245
0.209798
0.209433
0.209158
0.20898
0.208906
0.208944
0.209102
0.209391
0.209822
0.210409
0.211169
0.212125
0.2133
0.214723
0.216426
0.218442
0.220805
0.223546
0.22669
0.230251
0.23423
0.238608
0.243348
0.24839
0.253654
0.25904
0.264434
0.269709
0.274739
0.279402
0.28359
0.28722
0.290232
0.2926
0.294324
0.295428
0.295956
0.295964
0.295516
0.294676
0.29351
0.29208
0.290444
0.288651
0.286749
0.284778
0.282773
0.280764
0.278779
0.276839
0.274965
0.273173
0.271478
0.269889
0.268417
0.267067
0.265845
0.26475
0.26378
0.262928
0.262183
0.261528
0.260936
0.260366
0.259762
0.259043
0.25811
0.256843
0.255111
0.252784
0.249738
0.245869
0.24109
0.235341
0.228593
0.220854
0.212231
0.202712
0.19365
0.178887
0.226389
0.225536
0.224676
0.22381
0.22294
0.222069
0.221202
0.220341
0.219491
0.218656
0.217841
0.217049
0.216284
0.215548
0.214845
0.214177
0.213547
0.21296
0.212419
0.211929
0.211498
0.211132
0.210838
0.210624
0.210501
0.210476
0.210561
0.210767
0.211108
0.211599
0.212258
0.213104
0.21416
0.21545
0.216999
0.218834
0.220981
0.223461
0.226292
0.229483
0.23303
0.236918
0.241114
0.245568
0.250215
0.25497
0.259739
0.264415
0.268889
0.273056
0.27682
0.280103
0.282849
0.285029
0.286635
0.287681
0.288201
0.288238
0.287845
0.287079
0.285997
0.284652
0.283098
0.281381
0.279543
0.277622
0.275652
0.27366
0.271672
0.26971
0.267791
0.265931
0.264144
0.262442
0.260833
0.259327
0.257928
0.256642
0.25547
0.254412
0.253464
0.252619
0.251861
0.251167
0.250495
0.249784
0.248951
0.247888
0.246474
0.244577
0.242071
0.238839
0.234784
0.229827
0.223916
0.217036
0.209261
0.200547
0.192176
0.178225
0.226687
0.225869
0.225046
0.224219
0.22339
0.222562
0.221737
0.220919
0.220111
0.219319
0.218545
0.217793
0.217066
0.216368
0.215702
0.215069
0.214473
0.213917
0.213403
0.212936
0.21252
0.212162
0.211866
0.211641
0.211495
0.211438
0.21148
0.211632
0.211908
0.212323
0.212894
0.213637
0.214574
0.215725
0.217111
0.218755
0.220677
0.222894
0.225419
0.228259
0.231409
0.234856
0.238571
0.242514
0.246627
0.250842
0.255077
0.259241
0.263239
0.26698
0.270378
0.273361
0.275876
0.277891
0.279393
0.280388
0.280901
0.280966
0.280626
0.27993
0.278926
0.277664
0.276189
0.274547
0.272775
0.270909
0.268979
0.267014
0.265035
0.263065
0.261118
0.259212
0.257358
0.255567
0.253848
0.252212
0.250664
0.249211
0.247858
0.246609
0.245466
0.24443
0.243497
0.242655
0.241882
0.241135
0.240347
0.239429
0.238267
0.236736
0.234704
0.232049
0.228658
0.224437
0.219314
0.213249
0.206286
0.198351
0.190654
0.17751
0.226828
0.226031
0.225231
0.224428
0.223624
0.222822
0.222023
0.221232
0.22045
0.219683
0.218932
0.218202
0.217496
0.216816
0.216166
0.215549
0.214967
0.214422
0.213918
0.213457
0.213045
0.212685
0.212383
0.212145
0.211979
0.211894
0.211898
0.212004
0.212223
0.21257
0.213058
0.213705
0.214528
0.215545
0.216775
0.218236
0.219946
0.221919
0.224164
0.226687
0.229485
0.232543
0.23584
0.239339
0.242993
0.246743
0.250518
0.25424
0.257828
0.2612
0.264279
0.266999
0.26931
0.271178
0.272586
0.273536
0.274042
0.274132
0.273841
0.273208
0.272279
0.271094
0.269698
0.268128
0.266423
0.264613
0.26273
0.260797
0.258838
0.256871
0.254913
0.252978
0.251077
0.249221
0.247419
0.24568
0.244011
0.242419
0.24091
0.239493
0.238173
0.236956
0.235848
0.234849
0.233953
0.233134
0.232346
0.231516
0.230544
0.229311
0.227687
0.22554
0.222747
0.2192
0.214808
0.209507
0.203313
0.196125
0.18908
0.176733
0.226887
0.226101
0.225313
0.224523
0.223734
0.222946
0.222162
0.221385
0.220617
0.219862
0.219122
0.218401
0.217702
0.217028
0.216381
0.215764
0.215181
0.214633
0.214124
0.213657
0.213235
0.212862
0.212544
0.212285
0.212093
0.211976
0.211942
0.212001
0.212164
0.212443
0.212853
0.213408
0.214122
0.215013
0.216097
0.21739
0.218905
0.220656
0.22265
0.224891
0.227376
0.230094
0.233025
0.236138
0.239394
0.24274
0.246116
0.249455
0.252684
0.255732
0.258529
0.261016
0.263144
0.264879
0.266201
0.267107
0.267606
0.267717
0.267469
0.266896
0.266035
0.264924
0.263602
0.262104
0.260464
0.258713
0.256878
0.254984
0.253051
0.251099
0.249142
0.247193
0.245264
0.243364
0.241502
0.239686
0.237923
0.23622
0.234585
0.233026
0.231552
0.230173
0.228901
0.227747
0.226715
0.225801
0.224975
0.224185
0.223345
0.222346
0.22106
0.219351
0.217087
0.214145
0.21042
0.205825
0.200351
0.193871
0.187453
0.175889
0.226907
0.226126
0.225344
0.224561
0.223779
0.222998
0.222221
0.22145
0.220688
0.219936
0.219199
0.218479
0.217778
0.2171
0.216447
0.215822
0.215228
0.214667
0.214143
0.213659
0.213217
0.212822
0.212479
0.212192
0.211968
0.211813
0.211736
0.211745
0.211851
0.212064
0.212397
0.212862
0.213474
0.214247
0.215195
0.216331
0.217669
0.219218
0.220986
0.222975
0.225184
0.227601
0.230211
0.232986
0.235891
0.238883
0.241909
0.24491
0.247823
0.250583
0.25313
0.255407
0.257368
0.25898
0.260222
0.261085
0.261573
0.261702
0.261492
0.260973
0.260175
0.259134
0.257882
0.256453
0.254877
0.253185
0.251401
0.249548
0.247648
0.245718
0.243771
0.241821
0.239879
0.237953
0.236052
0.234182
0.23235
0.230565
0.228832
0.22716
0.22556
0.224043
0.222625
0.221326
0.22016
0.219137
0.218247
0.217456
0.216697
0.215872
0.214857
0.213515
0.211708
0.209301
0.206173
0.202222
0.197415
0.1916
0.185777
0.174978
0.22691
0.226132
0.225353
0.224573
0.223793
0.223015
0.22224
0.221471
0.220709
0.219957
0.219217
0.218492
0.217784
0.217097
0.216433
0.215794
0.215184
0.214605
0.21406
0.213552
0.213084
0.212661
0.212287
0.211966
0.211704
0.211507
0.211383
0.21134
0.211387
0.211533
0.21179
0.212169
0.212683
0.213344
0.214165
0.215157
0.216332
0.217698
0.219261
0.221025
0.222986
0.225135
0.227459
0.229934
0.23253
0.235208
0.237923
0.240623
0.243253
0.245755
0.248074
0.25016
0.251968
0.253466
0.25463
0.255451
0.255927
0.256068
0.255891
0.255419
0.254679
0.253702
0.252516
0.251153
0.249641
0.248006
0.246274
0.244466
0.242602
0.240699
0.238772
0.236831
0.234888
0.232951
0.231027
0.229123
0.227246
0.225402
0.223598
0.221841
0.220143
0.218515
0.216976
0.215549
0.214258
0.213124
0.212155
0.211334
0.210613
0.209907
0.2091
0.208059
0.206637
0.204692
0.202092
0.198718
0.194518
0.18932
0.184057
0.173999
0.226908
0.226131
0.225352
0.224573
0.223794
0.223017
0.222242
0.221472
0.220708
0.219952
0.219207
0.218475
0.217758
0.21706
0.216381
0.215726
0.215097
0.214497
0.213928
0.213393
0.212897
0.212442
0.212033
0.211675
0.211372
0.211131
0.210958
0.210861
0.210848
0.210928
0.21111
0.211406
0.211826
0.212381
0.213082
0.21394
0.214965
0.216163
0.217541
0.219099
0.220837
0.222746
0.224813
0.227019
0.229337
0.231734
0.234169
0.236599
0.238973
0.241242
0.243354
0.245263
0.246928
0.248318
0.249408
0.250185
0.250646
0.250795
0.250645
0.250216
0.249528
0.248609
0.247486
0.246185
0.244733
0.243155
0.241475
0.239713
0.237889
0.236018
0.234115
0.232191
0.230257
0.22832
0.226388
0.224467
0.222563
0.220682
0.21883
0.217015
0.215245
0.213534
0.211899
0.210367
0.208966
0.207727
0.206673
0.205803
0.205087
0.204455
0.203802
0.202996
0.201892
0.200338
0.198195
0.195331
0.191678
0.187047
0.182305
0.172959
0.226904
0.226127
0.225349
0.22457
0.22379
0.223012
0.222236
0.221464
0.220697
0.219937
0.219186
0.218446
0.217719
0.217009
0.216316
0.215644
0.214995
0.214373
0.213779
0.213218
0.212692
0.212204
0.21176
0.211363
0.211019
0.210733
0.21051
0.210359
0.210287
0.210301
0.210411
0.210626
0.210956
0.21141
0.212
0.212732
0.213617
0.214661
0.215868
0.217239
0.218773
0.220464
0.222299
0.224261
0.226328
0.228471
0.230654
0.232838
0.234979
0.237033
0.238955
0.2407
0.242233
0.243519
0.244537
0.24527
0.245712
0.245865
0.245737
0.245343
0.244702
0.243837
0.24277
0.241528
0.240133
0.238611
0.236982
0.235267
0.233484
0.231649
0.229775
0.227874
0.225956
0.224029
0.2221
0.220175
0.21826
0.216359
0.21448
0.212627
0.21081
0.209041
0.207336
0.205722
0.204231
0.202901
0.201763
0.200835
0.200101
0.199507
0.19896
0.198334
0.197483
0.196254
0.194499
0.192079
0.188911
0.184793
0.180532
0.171864
0.2269
0.226123
0.225344
0.224564
0.223784
0.223005
0.222227
0.221453
0.220682
0.219918
0.21916
0.218413
0.217677
0.216954
0.216248
0.21556
0.214892
0.214249
0.213631
0.213043
0.212488
0.211969
0.21149
0.211056
0.21067
0.21034
0.210069
0.209865
0.209734
0.209685
0.209725
0.209863
0.210107
0.210466
0.21095
0.211566
0.212321
0.213221
0.21427
0.21547
0.216818
0.218308
0.219931
0.221672
0.22351
0.225421
0.227373
0.229332
0.231261
0.233118
0.234863
0.236456
0.237862
0.23905
0.239997
0.240685
0.241105
0.241257
0.241146
0.240782
0.240182
0.239364
0.23835
0.237162
0.235823
0.234353
0.232775
0.231106
0.229366
0.227568
0.225727
0.223854
0.221959
0.220049
0.218132
0.216213
0.214298
0.212393
0.210502
0.20863
0.206787
0.204981
0.203229
0.201556
0.199996
0.19859
0.197378
0.196388
0.195621
0.19504
0.194561
0.194067
0.193414
0.192448
0.191017
0.188976
0.186232
0.182574
0.17875
0.170722
0.226895
0.226118
0.225339
0.224558
0.223777
0.222997
0.222217
0.22144
0.220666
0.219897
0.219134
0.218379
0.217634
0.216901
0.216182
0.215478
0.214794
0.21413
0.213491
0.212878
0.212295
0.211746
0.211234
0.210764
0.210339
0.209966
0.209649
0.209394
0.209208
0.209098
0.209071
0.209135
0.209298
0.209568
0.209952
0.210458
0.211092
0.21186
0.212763
0.213804
0.21498
0.216287
0.217716
0.219253
0.220882
0.22258
0.224321
0.226074
0.227806
0.22948
0.231061
0.232511
0.233798
0.234892
0.235768
0.23641
0.236806
0.236953
0.236853
0.236514
0.235949
0.235173
0.234207
0.233069
0.23178
0.230361
0.228831
0.22721
0.225512