/*--------------------------------*- C++ -*----------------------------------*\
| =========                 |                                                 |
| \\      /  F ield         | OpenFOAM: The Open Source CFD Toolbox           |
|  \\    /   O peration     | Version:  2.1.1                                 |
|   \\  /    A nd           | Web:      www.OpenFOAM.org                      |
|    \\/     M anipulation  |                                                 |
\*---------------------------------------------------------------------------*/
FoamFile
{
    version     2.0;
    format      ascii;
    class       volScalarField;
    location    "0.075";
    object      nut;
}
// * * * * * * * * * * * * * * * * * * * * * * * * * * * * * * * * * * * * * //

dimensions      [0 2 -1 0 0 0 0];

internalField   nonuniform List<scalar> 
6820
(
4.96025e-05
5.47044e-05
5.94497e-05
6.37667e-05
6.76165e-05
7.09773e-05
7.38474e-05
7.62445e-05
7.8201e-05
7.97583e-05
8.09629e-05
8.18624e-05
8.25029e-05
8.29273e-05
8.31741e-05
8.32775e-05
8.32666e-05
8.31663e-05
8.29973e-05
8.27767e-05
8.25185e-05
8.22339e-05
8.1932e-05
8.16198e-05
8.13027e-05
8.0985e-05
8.06696e-05
8.03591e-05
8.00517e-05
7.9764e-05
7.94177e-05
7.93868e-05
7.78499e-05
0.000540296
0.000304967
0.00021995
0.000171545
0.000140505
0.00011964
0.000105114
9.47291e-05
8.71644e-05
8.15829e-05
7.74344e-05
7.43452e-05
7.20548e-05
7.03771e-05
6.91767e-05
6.83533e-05
6.78315e-05
6.75537e-05
6.74751e-05
6.75606e-05
6.77823e-05
6.81176e-05
6.85481e-05
6.90584e-05
6.96356e-05
7.02687e-05
7.09483e-05
7.16653e-05
7.24129e-05
7.31786e-05
7.39622e-05
7.47317e-05
7.54222e-05
0.00105857
0.000836091
0.000679245
0.000569622
0.000490063
0.000430127
0.000383713
0.000346867
0.000316966
0.000292249
0.0002715
0.000253857
0.000238693
0.00022554
0.000214042
0.000203924
0.000194967
0.000186998
0.000179877
0.000173488
0.000167737
0.000162543
0.000157841
0.000153573
0.00014969
0.000146151
0.000142921
0.000139966
0.000137259
0.00013478
0.000132484
0.000130433
0.000128262
0.00115953
0.00109653
0.00101167
0.000926426
0.000849824
0.000783639
0.000727091
0.00067877
0.00063726
0.000601337
0.000569998
0.000542441
0.000518025
0.000496239
0.000476678
0.000459011
0.000442973
0.000428346
0.000414949
0.000402632
0.000391268
0.00038075
0.000370988
0.000361903
0.000353427
0.000345503
0.00033808
0.000331118
0.000324581
0.00031844
0.000312683
0.000307291
0.000302291
0.00116966
0.00115863
0.00113363
0.00109757
0.00105569
0.00101221
0.000969678
0.000929422
0.000891982
0.000857482
0.000825833
0.000796843
0.000770285
0.000745926
0.000723545
0.000702939
0.000683924
0.000666335
0.000650029
0.000634876
0.000620764
0.000607593
0.000595272
0.000583724
0.000572878
0.000562671
0.000553047
0.000543957
0.000535355
0.000527203
0.000519469
0.000512124
0.000505156
0.00117006
0.00116839
0.00116306
0.00115261
0.00113713
0.00111767
0.00109554
0.00107191
0.00104771
0.00102359
0.000999982
0.000977162
0.000955284
0.000934428
0.00091462
0.000895853
0.000878099
0.000861316
0.000845456
0.000830466
0.000816295
0.000802889
0.000790198
0.000778173
0.000766766
0.000755934
0.000745635
0.00073583
0.00072648
0.000717551
0.000709012
0.000700836
0.000692995
0.00116996
0.00116938
0.00116821
0.00116569
0.00116123
0.00115458
0.00114584
0.00113527
0.00112327
0.00111022
0.00109647
0.00108231
0.00106799
0.00105368
0.00103952
0.00102562
0.00101205
0.000998863
0.000986085
0.000973736
0.000961824
0.00095035
0.000939307
0.000928687
0.000918475
0.000908656
0.000899214
0.00089013
0.000881385
0.00087296
0.000864838
0.000857001
0.000849431
0.00116994
0.0011694
0.00116883
0.00116803
0.00116674
0.00116472
0.0011618
0.0011579
0.00115304
0.00114728
0.00114073
0.00113352
0.00112579
0.00111766
0.00110924
0.00110063
0.00109191
0.00108316
0.00107443
0.00106576
0.0010572
0.00104877
0.0010405
0.00103239
0.00102447
0.00101673
0.00100919
0.00100184
0.000994672
0.000987696
0.000980903
0.000974288
0.000967845
0.00116994
0.00116939
0.00116886
0.00116832
0.0011677
0.00116692
0.00116588
0.00116449
0.00116268
0.00116043
0.00115771
0.00115454
0.00115096
0.00114699
0.00114269
0.00113811
0.00113329
0.00112827
0.00112311
0.00111783
0.00111248
0.00110708
0.00110166
0.00109623
0.00109083
0.00108546
0.00108014
0.00107488
0.00106968
0.00106455
0.00105949
0.00105452
0.00104962
0.00116994
0.00116938
0.00116885
0.00116833
0.00116782
0.00116729
0.00116671
0.00116605
0.00116526
0.00116432
0.00116319
0.00116185
0.00116029
0.00115852
0.00115652
0.00115433
0.00115194
0.00114938
0.00114666
0.0011438
0.00114082
0.00113774
0.00113458
0.00113135
0.00112806
0.00112474
0.00112138
0.00111801
0.00111462
0.00111123
0.00110785
0.00110448
0.00110113
0.00116994
0.00116938
0.00116884
0.00116832
0.00116782
0.00116732
0.00116683
0.00116634
0.00116582
0.00116527
0.00116466
0.00116399
0.00116324
0.00116239
0.00116145
0.0011604
0.00115926
0.001158
0.00115665
0.0011552
0.00115367
0.00115204
0.00115034
0.00114857
0.00114674
0.00114486
0.00114292
0.00114095
0.00113894
0.0011369
0.00113483
0.00113275
0.00113065
0.00116994
0.00116938
0.00116884
0.00116832
0.00116781
0.00116732
0.00116684
0.00116637
0.00116591
0.00116545
0.00116499
0.00116451
0.00116402
0.0011635
0.00116295
0.00116237
0.00116174
0.00116108
0.00116036
0.0011596
0.00115879
0.00115794
0.00115704
0.00115609
0.0011551
0.00115407
0.00115301
0.00115191
0.00115078
0.00114962
0.00114843
0.00114723
0.001146
0.00116994
0.00116938
0.00116884
0.00116832
0.00116781
0.00116732
0.00116684
0.00116637
0.00116591
0.00116547
0.00116504
0.00116461
0.00116419
0.00116376
0.00116334
0.00116291
0.00116247
0.00116202
0.00116156
0.00116108
0.00116059
0.00116008
0.00115955
0.00115899
0.00115842
0.00115783
0.00115723
0.0011566
0.00115595
0.00115529
0.00115461
0.00115392
0.00115321
0.00116994
0.00116938
0.00116884
0.00116832
0.00116781
0.00116731
0.00116683
0.00116636
0.00116591
0.00116547
0.00116504
0.00116462
0.00116421
0.00116381
0.00116342
0.00116303
0.00116265
0.00116227
0.00116189
0.00116151
0.00116113
0.00116075
0.00116037
0.00115998
0.00115959
0.0011592
0.00115879
0.00115839
0.00115797
0.00115755
0.00115713
0.0011567
0.00115626
0.00116994
0.00116938
0.00116884
0.00116832
0.00116781
0.00116731
0.00116683
0.00116636
0.00116591
0.00116546
0.00116503
0.00116462
0.00116421
0.00116381
0.00116342
0.00116305
0.00116268
0.00116232
0.00116196
0.00116161
0.00116127
0.00116094
0.0011606
0.00116028
0.00115995
0.00115963
0.00115931
0.00115899
0.00115867
0.00115836
0.00115804
0.00115773
0.00115742
0.00116994
0.00116938
0.00116884
0.00116831
0.0011678
0.00116731
0.00116683
0.00116636
0.0011659
0.00116546
0.00116503
0.00116461
0.0011642
0.00116381
0.00116342
0.00116304
0.00116268
0.00116232
0.00116197
0.00116163
0.0011613
0.00116097
0.00116066
0.00116035
0.00116004
0.00115974
0.00115945
0.00115916
0.00115888
0.00115861
0.00115833
0.00115807
0.00115781
0.00116994
0.00116938
0.00116884
0.00116831
0.0011678
0.00116731
0.00116683
0.00116636
0.0011659
0.00116546
0.00116503
0.00116461
0.0011642
0.0011638
0.00116341
0.00116304
0.00116267
0.00116231
0.00116197
0.00116163
0.0011613
0.00116098
0.00116066
0.00116036
0.00116006
0.00115977
0.00115948
0.00115921
0.00115894
0.00115867
0.00115842
0.00115816
0.00115792
0.00116994
0.00116938
0.00116884
0.00116831
0.0011678
0.00116731
0.00116682
0.00116635
0.0011659
0.00116545
0.00116502
0.0011646
0.00116419
0.0011638
0.00116341
0.00116303
0.00116267
0.00116231
0.00116196
0.00116162
0.00116129
0.00116097
0.00116066
0.00116035
0.00116006
0.00115977
0.00115948
0.00115921
0.00115894
0.00115868
0.00115843
0.00115819
0.00115795
0.00116994
0.00116938
0.00116884
0.00116831
0.0011678
0.00116731
0.00116682
0.00116635
0.0011659
0.00116545
0.00116502
0.0011646
0.00116419
0.00116379
0.00116341
0.00116303
0.00116266
0.0011623
0.00116196
0.00116162
0.00116129
0.00116097
0.00116065
0.00116035
0.00116005
0.00115976
0.00115948
0.00115921
0.00115894
0.00115868
0.00115843
0.00115819
0.00115795
0.00116994
0.00116938
0.00116884
0.00116831
0.0011678
0.0011673
0.00116682
0.00116635
0.00116589
0.00116545
0.00116502
0.0011646
0.00116419
0.00116379
0.0011634
0.00116302
0.00116266
0.0011623
0.00116195
0.00116161
0.00116128
0.00116096
0.00116065
0.00116034
0.00116004
0.00115976
0.00115947
0.0011592
0.00115893
0.00115868
0.00115842
0.00115818
0.00115794
0.00116994
0.00116938
0.00116884
0.00116831
0.0011678
0.0011673
0.00116682
0.00116635
0.00116589
0.00116545
0.00116502
0.0011646
0.00116419
0.00116379
0.0011634
0.00116302
0.00116265
0.0011623
0.00116195
0.00116161
0.00116128
0.00116095
0.00116064
0.00116034
0.00116004
0.00115975
0.00115947
0.00115919
0.00115893
0.00115867
0.00115842
0.00115817
0.00115794
0.00116994
0.00116938
0.00116884
0.00116831
0.0011678
0.0011673
0.00116682
0.00116635
0.00116589
0.00116545
0.00116501
0.00116459
0.00116418
0.00116378
0.0011634
0.00116302
0.00116265
0.00116229
0.00116194
0.0011616
0.00116127
0.00116095
0.00116064
0.00116033
0.00116003
0.00115974
0.00115946
0.00115919
0.00115892
0.00115866
0.00115841
0.00115817
0.00115793
0.00116994
0.00116938
0.00116884
0.00116831
0.0011678
0.0011673
0.00116682
0.00116635
0.00116589
0.00116545
0.00116501
0.00116459
0.00116418
0.00116378
0.00116339
0.00116302
0.00116265
0.00116229
0.00116194
0.0011616
0.00116127
0.00116095
0.00116063
0.00116033
0.00116003
0.00115974
0.00115946
0.00115918
0.00115892
0.00115866
0.0011584
0.00115816
0.00115792
0.00116994
0.00116938
0.00116884
0.00116831
0.0011678
0.0011673
0.00116682
0.00116635
0.00116589
0.00116544
0.00116501
0.00116459
0.00116418
0.00116378
0.00116339
0.00116301
0.00116264
0.00116229
0.00116194
0.0011616
0.00116126
0.00116094
0.00116063
0.00116032
0.00116002
0.00115973
0.00115945
0.00115918
0.00115891
0.00115865
0.0011584
0.00115815
0.00115791
0.00116994
0.00116938
0.00116884
0.00116831
0.0011678
0.0011673
0.00116682
0.00116635
0.00116589
0.00116544
0.00116501
0.00116459
0.00116418
0.00116378
0.00116339
0.00116301
0.00116264
0.00116228
0.00116193
0.00116159
0.00116126
0.00116094
0.00116062
0.00116032
0.00116002
0.00115973
0.00115945
0.00115917
0.0011589
0.00115864
0.00115839
0.00115814
0.0011579
0.00116994
0.00116938
0.00116884
0.00116831
0.0011678
0.0011673
0.00116682
0.00116635
0.00116589
0.00116544
0.00116501
0.00116459
0.00116418
0.00116378
0.00116339
0.00116301
0.00116264
0.00116228
0.00116193
0.00116159
0.00116126
0.00116093
0.00116062
0.00116031
0.00116001
0.00115972
0.00115944
0.00115916
0.0011589
0.00115864
0.00115838
0.00115813
0.00115789
0.00116994
0.00116938
0.00116884
0.00116831
0.0011678
0.0011673
0.00116682
0.00116635
0.00116589
0.00116544
0.00116501
0.00116459
0.00116418
0.00116378
0.00116339
0.00116301
0.00116264
0.00116228
0.00116193
0.00116159
0.00116125
0.00116093
0.00116062
0.00116031
0.00116001
0.00115972
0.00115944
0.00115916
0.00115889
0.00115863
0.00115837
0.00115813
0.00115788
0.00116994
0.00116938
0.00116884
0.00116831
0.0011678
0.0011673
0.00116682
0.00116635
0.00116589
0.00116544
0.00116501
0.00116459
0.00116417
0.00116377
0.00116338
0.00116301
0.00116264
0.00116228
0.00116193
0.00116158
0.00116125
0.00116093
0.00116061
0.00116031
0.00116001
0.00115971
0.00115943
0.00115915
0.00115888
0.00115862
0.00115837
0.00115812
0.00115788
0.00116994
0.00116938
0.00116884
0.00116831
0.0011678
0.0011673
0.00116682
0.00116634
0.00116589
0.00116544
0.00116501
0.00116458
0.00116417
0.00116377
0.00116338
0.001163
0.00116264
0.00116228
0.00116192
0.00116158
0.00116125
0.00116093
0.00116061
0.0011603
0.00116
0.00115971
0.00115943
0.00115915
0.00115888
0.00115862
0.00115836
0.00115811
0.00115787
0.00116994
0.00116938
0.00116884
0.00116831
0.0011678
0.0011673
0.00116682
0.00116635
0.00116589
0.00116544
0.00116501
0.00116459
0.00116418
0.00116378
0.00116339
0.00116301
0.00116264
0.00116228
0.00116193
0.00116158
0.00116125
0.00116093
0.00116061
0.0011603
0.00116
0.00115971
0.00115942
0.00115915
0.00115888
0.00115861
0.00115835
0.0011581
0.00115786
0.00116994
0.00116938
0.00116884
0.00116831
0.0011678
0.0011673
0.00116682
0.00116635
0.00116589
0.00116544
0.00116501
0.00116459
0.00116418
0.00116378
0.00116339
0.00116301
0.00116264
0.00116228
0.00116193
0.00116159
0.00116125
0.00116093
0.00116061
0.0011603
0.00116
0.00115971
0.00115942
0.00115914
0.00115887
0.0011586
0.00115835
0.00115809
0.00115785
0.00116994
0.00116938
0.00116884
0.00116831
0.0011678
0.00116731
0.00116682
0.00116635
0.0011659
0.00116545
0.00116502
0.0011646
0.00116419
0.00116379
0.0011634
0.00116302
0.00116265
0.00116228
0.00116193
0.00116159
0.00116125
0.00116093
0.00116061
0.00116029
0.00115999
0.00115969
0.0011594
0.00115911
0.00115883
0.00115856
0.00115829
0.00115803
0.00115778
0.00116994
0.00116938
0.00116884
0.00116831
0.0011678
0.00116731
0.00116683
0.00116636
0.0011659
0.00116546
0.00116503
0.0011646
0.00116419
0.00116379
0.0011634
0.00116301
0.00116264
0.00116227
0.00116191
0.00116155
0.0011612
0.00116086
0.00116052
0.00116019
0.00115986
0.00115954
0.00115922
0.00115891
0.0011586
0.00115829
0.00115798
0.00115768
0.00115739
0.00116994
0.00116938
0.00116884
0.00116833
0.00116782
0.00116733
0.00116685
0.00116639
0.00116593
0.00116548
0.00116503
0.00116459
0.00116416
0.00116373
0.00116331
0.00116288
0.00116246
0.00116204
0.00116162
0.00116119
0.00116076
0.00116033
0.0011599
0.00115947
0.00115903
0.00115859
0.00115814
0.00115769
0.00115724
0.00115679
0.00115633
0.00115587
0.00115541
0.00116994
0.00116939
0.00116886
0.00116835
0.00116784
0.00116733
0.00116683
0.00116632
0.00116581
0.00116528
0.00116473
0.00116417
0.00116358
0.00116297
0.00116233
0.00116166
0.00116096
0.00116024
0.00115948
0.0011587
0.00115789
0.00115706
0.0011562
0.00115531
0.00115441
0.00115348
0.00115254
0.00115158
0.0011506
0.00114961
0.00114861
0.0011476
0.00114658
0.00116995
0.0011694
0.00116886
0.00116828
0.00116765
0.00116694
0.00116612
0.00116519
0.00116413
0.00116294
0.00116161
0.00116016
0.00115858
0.00115687
0.00115505
0.00115312
0.00115109
0.00114897
0.00114678
0.00114451
0.00114218
0.00113979
0.00113736
0.0011349
0.0011324
0.00112988
0.00112735
0.0011248
0.00112225
0.0011197
0.00111716
0.00111462
0.0011121
0.00116996
0.00116916
0.00116786
0.00116595
0.00116343
0.00116029
0.00115655
0.00115226
0.00114745
0.0011422
0.00113656
0.0011306
0.00112438
0.00111796
0.00111139
0.00110472
0.00109797
0.0010912
0.00108443
0.00107769
0.001071
0.00106437
0.00105782
0.00105137
0.00104502
0.00103878
0.00103267
0.00102668
0.00102082
0.00101509
0.00100949
0.00100403
0.000998707
0.00116831
0.00115866
0.001145
0.00112843
0.00110968
0.00108945
0.0010684
0.00104705
0.00102577
0.00100484
0.000984449
0.00096471
0.000945697
0.000927448
0.000909974
0.000893271
0.000877324
0.000862108
0.000847597
0.000833759
0.000820563
0.000807976
0.000795968
0.000784508
0.000773565
0.000763113
0.000753125
0.000743574
0.000734438
0.000725694
0.000717321
0.000709299
0.000701606
0.00107567
0.000936197
0.000835614
0.000756917
0.000692145
0.000638421
0.000593538
0.000555667
0.000523372
0.000495547
0.000471344
0.000450112
0.000431344
0.00041464
0.000399686
0.000386225
0.000374052
0.000362996
0.000352916
0.000343694
0.000335231
0.000327441
0.000320252
0.000313601
0.000307433
0.000301701
0.000296365
0.000291386
0.000286732
0.000282376
0.000278291
0.000274455
0.000270845
0.000142979
0.000146644
0.000150174
0.000153551
0.000156773
0.000159846
0.000162776
0.000165567
0.000168225
0.000170755
0.000173161
0.00017545
0.000177625
0.000179692
0.000181655
0.000183518
0.000185286
0.000186964
0.000188556
0.000190066
0.000191497
0.000192854
0.00019414
0.000195358
0.000196513
0.000197607
0.000198643
0.000199624
0.000200554
0.000201434
0.000202268
0.000203057
0.000203804
9.04967e-05
0.000111821
0.00014217
0.000182368
0.000230813
0.000284116
0.000338296
0.000390475
0.000439965
0.000488249
0.000537719
0.00059018
0.000646059
0.000704728
0.000765421
0.000827928
0.000892621
0.000960174
0.0010312
0.0011059
0.00118408
0.00126525
0.00134876
0.00143364
0.00151861
0.00160194
0.00168159
0.00175525
0.00182049
0.00187482
0.00191575
0.00194079
0.00194749
0.00193347
0.00189649
0.00183449
0.00174581
0.00162951
0.001486
0.00131848
0.00113581
0.000957409
0.000819287
0.000774127
0.00086496
0.00105304
0.00123017
0.00135672
0.00145013
0.00152556
0.00158878
0.00164176
0.00168559
0.00172132
0.00175012
0.00177318
0.00179165
0.00180657
0.00181888
0.00182935
0.00183865
0.00184732
0.00185581
0.00186445
0.00187351
0.00188317
0.0018935
0.00190453
0.00191621
0.00192844
0.00194108
0.00195394
0.00196687
0.00197968
0.00199225
0.00200446
0.00201624
0.00202754
0.00203837
0.00204872
0.00205858
0.00206784
0.00207626
0.00208337
0.00208841
0.00209034
0.00208785
0.00207947
0.00206372
0.0020393
0.0020053
0.00196131
0.00190756
0.00184495
0.00177499
0.00169976
0.00162196
0.00154375
0.00147332
0.00137724
7.66841e-05
7.90283e-05
8.31244e-05
9.02294e-05
0.000102124
0.000120875
0.000148364
0.000185632
0.000232216
0.000285967
0.000343541
0.000401582
0.000457897
0.000512001
0.000564822
0.000617876
0.000672494
0.000729427
0.000788756
0.000850206
0.0009136
0.000978973
0.00104633
0.00111533
0.00118513
0.00125434
0.00132117
0.00138352
0.00143911
0.00148549
0.00152016
0.00154055
0.00154413
0.0015285
0.00149149
0.00143136
0.00134723
0.00123973
0.00111236
0.000973911
0.000842088
0.00074735
0.000731377
0.000824302
0.00099339
0.0011579
0.00128358
0.00137981
0.00145825
0.0015244
0.00158048
0.00162762
0.00166674
0.00169878
0.00172475
0.00174567
0.00176251
0.00177617
0.00178744
0.00179702
0.00180548
0.00181333
0.00182096
0.00182872
0.00183686
0.00184557
0.00185499
0.00186517
0.0018761
0.00188773
0.00189993
0.00191258
0.00192552
0.00193857
0.00195159
0.00196444
0.00197703
0.00198927
0.00200113
0.00201257
0.00202354
0.00203394
0.0020435
0.00205175
0.00205796
0.00206109
0.00205985
0.00205279
0.00203846
0.00201559
0.00198327
0.00194113
0.00188938
0.00182887
0.00176109
0.00168804
0.00161233
0.00153607
0.00146726
0.00137325
0.000126083
0.000124082
0.000122385
0.000120796
0.00011912
0.000117155
0.000115106
0.000114518
0.000118353
0.000129669
0.000150498
0.000181593
0.000222414
0.000271209
0.000325347
0.000381936
0.000438546
0.000493691
0.000546719
0.00059842
0.000650062
0.000702644
0.000756528
0.000811445
0.000866663
0.000921135
0.000973567
0.0010224
0.00106578
0.00110161
0.00112758
0.00114131
0.00114049
0.00112308
0.00108758
0.0010335
0.00096208
0.000877585
0.000789144
0.000713155
0.000674795
0.000703426
0.000810623
0.000962462
0.00110722
0.00122485
0.00131935
0.00139777
0.00146452
0.00152182
0.00157084
0.00161235
0.00164705
0.00167569
0.0016991
0.0017181
0.0017335
0.00174606
0.00175645
0.00176526
0.00177301
0.00178014
0.00178703
0.00179398
0.00180126
0.00180906
0.00181754
0.00182679
0.00183683
0.00184766
0.00185921
0.00187137
0.001884
0.00189697
0.00191011
0.0019233
0.0019364
0.00194932
0.00196197
0.00197431
0.00198625
0.00199766
0.00200827
0.00201762
0.00202498
0.00202934
0.00202943
0.00202383
0.00201111
0.00199002
0.00195966
0.00191967
0.00187023
0.00181215
0.00174685
0.00167625
0.00160286
0.00152873
0.00146168
0.00136976
0.000296842
0.000290936
0.000285464
0.000280764
0.000277402
0.000276087
0.000277134
0.000278987
0.000276327
0.00026187
0.000235131
0.000206044
0.000185291
0.000177324
0.000182128
0.000198255
0.000224
0.000257607
0.000297231
0.000340737
0.000386046
0.00043156
0.000476326
0.000519934
0.000562233
0.000603022
0.000641805
0.000677687
0.000709382
0.000735306
0.000753726
0.000762949
0.000761569
0.000748803
0.000724988
0.000692288
0.000655706
0.000624311
0.00061219
0.000637018
0.000711583
0.000828501
0.000959815
0.00108124
0.0011849
0.00127226
0.00134681
0.00141139
0.00146776
0.00151691
0.00155943
0.0015958
0.00162651
0.00165211
0.00167324
0.00169055
0.0017047
0.00171631
0.00172595
0.00173412
0.00174128
0.00174781
0.00175405
0.00176029
0.00176678
0.00177373
0.00178129
0.00178957
0.00179865
0.00180856
0.00181925
0.00183067
0.00184273
0.00185529
0.00186824
0.00188143
0.00189473
0.00190802
0.00192121
0.0019342
0.00194691
0.00195917
0.00197072
0.0019811
0.00198959
0.00199521
0.00199671
0.0019927
0.00198177
0.00196269
0.00193458
0.00189703
0.00185022
0.0017949
0.00173239
0.00166454
0.00159372
0.00152191
0.00145672
0.00136693
0.000497477
0.00048903
0.000480816
0.000472914
0.00046556
0.000459293
0.000455166
0.000454865
0.000460399
0.000472912
0.000490084
0.000502235
0.000493036
0.000454078
0.000396983
0.000341064
0.000297827
0.000269948
0.000255906
0.000253056
0.000259029
0.000271978
0.000290288
0.000312448
0.000337049
0.000362813
0.000388607
0.000413427
0.000436374
0.000456649
0.000473619
0.000486975
0.000497012
0.000505032
0.000513853
0.000528304
0.000555291
0.000602496
0.000674632
0.000768733
0.000874223
0.000979386
0.00107673
0.00116342
0.00123966
0.00130688
0.0013666
0.00141988
0.00146737
0.00150942
0.00154625
0.00157811
0.00160531
0.00162823
0.00164736
0.00166319
0.00167626
0.00168705
0.00169605
0.00170369
0.00171035
0.00171638
0.00172208
0.00172771
0.00173351
0.00173966
0.00174635
0.00175369
0.00176179
0.00177068
0.00178039
0.0017909
0.00180214
0.00181403
0.00182647
0.00183933
0.0018525
0.00186585
0.00187926
0.00189264
0.00190588
0.00191879
0.00193112
0.00194241
0.00195197
0.00195884
0.0019618
0.00195948
0.0019505
0.00193364
0.00190801
0.00187319
0.00182931
0.00177705
0.00171764
0.0016528
0.00158479
0.00151548
0.0014523
0.0013647
0.000684261
0.000674568
0.000665008
0.000655528
0.000646092
0.000636729
0.000627624
0.000619245
0.000612504
0.000608789
0.000609676
0.000616068
0.000626746
0.0006372
0.000640037
0.000627675
0.000597016
0.000551487
0.000502365
0.000460478
0.00042753
0.000403141
0.000386503
0.000376761
0.000373103
0.000374777
0.000381109
0.00039153
0.000405622
0.000423191
0.000444354
0.000469637
0.000500044
0.000537036
0.000582281
0.000637115
0.000701792
0.000774937
0.000853636
0.000934182
0.00101303
0.0010876
0.00115659
0.00121978
0.00127758
0.0013305
0.00137897
0.00142324
0.0014634
0.00149946
0.00153145
0.00155945
0.00158363
0.00160425
0.00162164
0.0016362
0.00164832
0.00165841
0.00166688
0.00167407
0.00168032
0.00168594
0.00169118
0.00169629
0.00170148
0.00170693
0.00171282
0.00171927
0.00172639
0.00173426
0.00174293
0.00175239
0.00176265
0.00177364
0.0017853
0.00179753
0.00181024
0.00182331
0.00183663
0.00185009
0.00186357
0.00187689
0.0018898
0.00190184
0.00191236
0.00192042
0.00192484
0.00192428
0.00191737
0.0019029
0.00187997
0.00184813
0.00180746
0.00175854
0.0017025
0.00164093
0.00157595
0.00150934
0.00144831
0.00136298
0.00084092
0.00083138
0.000821877
0.00081237
0.000802813
0.000793164
0.00078341
0.000773598
0.000763891
0.000754655
0.000746516
0.000740312
0.000736822
0.000736271
0.00073786
0.000739495
0.000738163
0.000730246
0.000715624
0.000696542
0.000675453
0.000654553
0.000635559
0.000619708
0.000607842
0.000600528
0.000598149
0.000600981
0.000609248
0.000623153
0.000642891
0.000668633
0.000700473
0.000738345
0.000781926
0.000830541
0.000883145
0.000938394
0.00099482
0.00105105
0.00110597
0.00115885
0.00120928
0.00125713
0.00130236
0.00134497
0.0013849
0.00142204
0.00145625
0.00148737
0.00151532
0.00154007
0.0015617
0.00158035
0.00159626
0.00160971
0.00162102
0.00163052
0.00163853
0.00164534
0.00165126
0.00165653
0.00166139
0.00166606
0.00167073
0.00167558
0.00168075
0.00168638
0.00169259
0.00169946
0.00170706
0.00171543
0.00172459
0.00173452
0.00174519
0.00175654
0.0017685
0.00178097
0.00179387
0.00180708
0.00182049
0.00183394
0.00184717
0.00185975
0.00187107
0.00188022
0.00188606
0.00188727
0.0018825
0.00187055
0.0018505
0.00182186
0.00178462
0.00173929
0.00168687
0.00162881
0.0015671
0.00150336
0.00144462
0.00136166
0.000960531
0.000952246
0.000943911
0.000935507
0.000927006
0.000918384
0.000909624
0.000900726
0.00089172
0.000882685
0.000873783
0.000865291
0.000857608
0.000851177
0.000846325
0.000843062
0.000840967
0.000839041
0.000836472
0.000832756
0.000827822
0.000821992
0.000815864
0.000810172
0.000805685
0.000803132
0.000803159
0.000806314
0.000813041
0.000823672
0.000838427
0.000857397
0.000880538
0.000907651
0.000938379
0.000972219
0.00100855
0.00104668
0.00108593
0.00112568
0.00116539
0.00120468
0.00124323
0.00128081
0.0013172
0.0013522
0.00138557
0.00141707
0.00144647
0.00147355
0.00149817
0.00152022
0.0015397
0.00155669
0.00157135
0.00158386
0.00159449
0.00160348
0.00161109
0.0016176
0.00162323
0.00162821
0.00163276
0.00163707
0.0016413
0.00164562
0.00165016
0.00165507
0.00166044
0.00166637
0.00167294
0.00168022
0.00168823
0.00169701
0.00170654
0.00171682
0.00172778
0.00173938
0.00175155
0.00176419
0.00177722
0.00179047
0.00180373
0.00181661
0.00182851
0.00183859
0.00184574
0.00184869
0.0018461
0.00183675
0.0018197
0.00179441
0.0017608
0.00171927
0.00167069
0.00161636
0.0015581
0.00149741
0.00144111
0.00136063
0.001044
0.00103757
0.00103102
0.00102435
0.00101756
0.00101064
0.00100357
0.000996372
0.00098905
0.000981639
0.000974196
0.000966815
0.00095964
0.000952869
0.000946743
0.000941486
0.000937245
0.000933995
0.0009316
0.00092987
0.000928627
0.000927768
0.000927298
0.000927339
0.000928111
0.000929907
0.000933057
0.000937896
0.000944737
0.000953844
0.000965421
0.000979587
0.000996378
0.00101573
0.00103751
0.00106147
0.00108733
0.00111477
0.00114344
0.00117302
0.0012032
0.0012337
0.00126426
0.00129463
0.00132457
0.00135381
0.00138208
0.00140912
0.00143465
0.00145845
0.00148033
0.00150014
0.00151784
0.00153345
0.00154704
0.00155877
0.00156881
0.00157736
0.00158465
0.00159089
0.00159629
0.00160104
0.00160533
0.00160932
0.00161319
0.00161705
0.00162106
0.00162532
0.00162995
0.00163503
0.00164065
0.00164688
0.00165377
0.00166137
0.00166969
0.00167876
0.00168856
0.00169907
0.00171024
0.00172202
0.00173435
0.00174709
0.00176007
0.00177294
0.00178517
0.00179596
0.00180427
0.00180885
0.00180839
0.00180166
0.00178768
0.00176585
0.00173602
0.00169845
0.00165389
0.00160347
0.00154884
0.00149137
0.00143765
0.00135979
0.00109724
0.00109272
0.00108807
0.00108328
0.00107836
0.00107331
0.00106812
0.0010628
0.00105738
0.00105186
0.0010463
0.00104072
0.0010352
0.00102982
0.0010247
0.00101997
0.00101576
0.0010122
0.00100938
0.00100734
0.00100609
0.00100562
0.00100594
0.00100706
0.00100902
0.00101191
0.00101584
0.00102094
0.00102736
0.00103524
0.0010447
0.00105584
0.00106871
0.00108333
0.00109965
0.0011176
0.00113705
0.00115787
0.00117989
0.00120291
0.00122677
0.00125125
0.00127615
0.00130126
0.00132634
0.00135116
0.00137544
0.00139893
0.00142137
0.0014425
0.00146213
0.00148009
0.00149631
0.00151075
0.00152345
0.00153451
0.00154406
0.00155225
0.00155926
0.00156528
0.00157048
0.00157503
0.00157911
0.00158285
0.0015864
0.00158989
0.00159343
0.00159715
0.00160112
0.00160545
0.00161021
0.00161547
0.0016213
0.00162775
0.00163487
0.00164268
0.00165122
0.00166049
0.00167047
0.00168115
0.00169249
0.00170442
0.0017168
0.00172935
0.00174161
0.00175285
0.00176209
0.00176814
0.0017697
0.00176554
0.00175464
0.00173633
0.00171035
0.00167686
0.00163644
0.00159008
0.00153924
0.00148513
0.00143413
0.00135901
0.00112819
0.00112529
0.00112227
0.00111913
0.00111587
0.00111249
0.001109
0.0011054
0.00110171
0.00109795
0.00109414
0.0010903
0.00108648
0.00108273
0.00107909
0.00107564
0.00107245
0.00106963
0.00106726
0.00106542
0.00106418
0.0010636
0.00106373
0.00106462
0.0010663
0.00106882
0.00107224
0.00107662
0.00108202
0.00108851
0.00109617
0.00110504
0.00111519
0.00112662
0.00113936
0.00115337
0.00116862
0.00118506
0.00120258
0.00122111
0.00124052
0.00126068
0.00128143
0.00130259
0.00132397
0.00134536
0.00136651
0.00138718
0.00140711
0.00142607
0.00144386
0.00146029
0.00147527
0.00148873
0.00150068
0.00151117
0.0015203
0.00152818
0.00153496
0.00154079
0.00154583
0.00155022
0.00155411
0.00155764
0.00156093
0.0015641
0.00156726
0.0015705
0.00157391
0.00157759
0.00158159
0.00158599
0.00159085
0.00159623
0.00160219
0.00160878
0.00161603
0.00162399
0.00163266
0.00164207
0.00165222
0.00166308
0.00167457
0.00168648
0.00169845
0.00170984
0.00171974
0.00172704
0.00173044
0.00172873
0.00172083
0.00170601
0.0016839
0.00165454
0.00161835
0.00157614
0.00152921
0.00147859
0.00143041
0.00135819
0.00114454
0.00114281
0.00114099
0.00113907
0.00113706
0.00113497
0.00113279
0.00113054
0.00112822
0.00112585
0.00112345
0.00112103
0.00111862
0.00111625
0.00111395
0.00111176
0.00110972
0.00110789
0.00110634
0.00110512
0.00110429
0.00110392
0.00110406
0.00110478
0.00110612
0.00110813
0.00111088
0.00111439
0.00111873
0.00112394
0.00113008
0.00113717
0.00114527
0.0011544
0.00116459
0.00117584
0.00118815
0.00120149
0.00121584
0.00123114
0.00124732
0.00126429
0.00128193
0.00130009
0.00131863
0.00133733
0.00135601
0.00137441
0.00139233
0.00140951
0.00142577
0.00144093
0.00145486
0.0014675
0.0014788
0.0014888
0.00149757
0.00150518
0.00151176
0.00151744
0.00152234
0.00152659
0.00153034
0.00153369
0.00153676
0.00153966
0.00154249
0.00154534
0.00154828
0.00155139
0.00155474
0.00155838
0.00156239
0.00156682
0.00157172
0.00157715
0.00158316
0.00158981
0.00159714
0.00160519
0.00161401
0.00162361
0.00163397
0.00164497
0.00165634
0.00166755
0.00167781
0.00168606
0.00169107
0.00169161
0.00168657
0.00167514
0.00165684
0.00163159
0.00159965
0.00156165
0.00151869
0.00147166
0.00142641
0.00135723
0.00115237
0.00115136
0.00115029
0.00114917
0.00114799
0.00114675
0.00114547
0.00114414
0.00114278
0.00114139
0.00113998
0.00113858
0.00113719
0.00113584
0.00113454
0.00113333
0.00113222
0.00113125
0.00113047
0.0011299
0.0011296
0.0011296
0.00112996
0.00113074
0.00113196
0.0011337
0.00113599
0.00113889
0.00114244
0.00114668
0.00115167
0.00115744
0.00116404
0.00117149
0.00117984
0.0011891
0.00119929
0.00121041
0.00122246
0.0012354
0.00124919
0.00126377
0.00127906
0.00129493
0.00131125
0.00132785
0.00134454
0.00136113
0.00137739
0.00139311
0.00140809
0.00142217
0.00143521
0.00144712
0.00145787
0.00146745
0.00147589
0.00148327
0.00148968
0.00149522
0.00150001
0.00150415
0.00150777
0.00151097
0.00151387
0.00151655
0.0015191
0.00152161
0.00152415
0.00152679
0.00152958
0.00153259
0.00153585
0.00153944
0.0015434
0.00154779
0.00155266
0.00155808
0.00156411
0.0015708
0.00157823
0.00158645
0.00159552
0.00160539
0.00161589
0.00162662
0.0016369
0.00164578
0.0016521
0.00165462
0.00165222
0.001644
0.00162939
0.00160816
0.00158042
0.00154662
0.00150767
0.00146427
0.00142204
0.00135602