/*--------------------------------*- C++ -*----------------------------------*\
| =========                 |                                                 |
| \\      /  F ield         | OpenFOAM: The Open Source CFD Toolbox           |
|  \\    /   O peration     | Version:  2.1.1                                 |
|   \\  /    A nd           | Web:      www.OpenFOAM.org                      |
|    \\/     M anipulation  |                                                 |
\*---------------------------------------------------------------------------*/
FoamFile
{
    version     2.0;
    format      ascii;
    class       volScalarField;
    location    "0.075";
    object      p;
}
// * * * * * * * * * * * * * * * * * * * * * * * * * * * * * * * * * * * * * //

dimensions      [0 2 -2 0 0 0 0];

internalField   nonuniform List<scalar> 
6820
(
-11.1644
-13.0106
-13.5855
-13.713
-13.8198
-13.8986
-13.9526
-13.9985
-14.0403
-14.0784
-14.1138
-14.1471
-14.1785
-14.2081
-14.2361
-14.2625
-14.2875
-14.3111
-14.3334
-14.3544
-14.3741
-14.3925
-14.4096
-14.4252
-14.4393
-14.4515
-14.4614
-14.4684
-14.4713
-14.4686
-14.4565
-14.4259
-14.3732
-15.1169
-14.5822
-14.1596
-13.9694
-13.9445
-13.9553
-13.9751
-14.0025
-14.034
-14.0666
-14.0992
-14.1312
-14.1623
-14.1923
-14.2209
-14.2481
-14.274
-14.2985
-14.3217
-14.3435
-14.3641
-14.3833
-14.4012
-14.4177
-14.4327
-14.446
-14.4574
-14.4666
-14.473
-14.4781
-14.4794
-14.5005
-14.5268
-13.4744
-13.1706
-13.457
-13.7019
-13.8066
-13.8816
-13.9402
-13.9889
-14.0323
-14.0716
-14.1078
-14.1415
-14.1731
-14.2028
-14.2308
-14.2572
-14.2822
-14.3058
-14.3281
-14.3492
-14.3691
-14.3877
-14.4052
-14.4215
-14.4363
-14.4498
-14.4616
-14.4718
-14.4802
-14.4877
-14.4944
-14.5069
-14.5205
-13.9814
-14.0157
-14.0127
-13.9533
-13.9453
-13.9655
-13.9914
-14.0197
-14.0499
-14.0805
-14.1107
-14.1403
-14.1692
-14.197
-14.2238
-14.2495
-14.2741
-14.2976
-14.32
-14.3413
-14.3615
-14.3807
-14.3987
-14.4156
-14.4314
-14.4459
-14.4592
-14.4713
-14.4824
-14.4937
-14.5052
-14.5243
-14.5454
-13.826
-13.726
-13.7701
-13.8358
-13.8885
-13.9347
-13.9749
-14.0118
-14.047
-14.0806
-14.1127
-14.1434
-14.1727
-14.2008
-14.2276
-14.2532
-14.2776
-14.3009
-14.323
-14.3441
-14.3642
-14.3832
-14.4012
-14.4183
-14.4343
-14.4494
-14.4635
-14.4769
-14.4898
-14.5032
-14.5175
-14.5363
-14.5572
-13.8811
-13.8644
-13.8895
-13.9123
-13.9344
-13.9634
-13.9944
-14.0256
-14.0567
-14.0874
-14.1172
-14.1462
-14.1742
-14.2012
-14.2271
-14.2521
-14.276
-14.2989
-14.3209
-14.3419
-14.362
-14.3812
-14.3995
-14.417
-14.4336
-14.4495
-14.4648
-14.4796
-14.4943
-14.5097
-14.5261
-14.5456
-14.5669
-13.8794
-13.8582
-13.874
-13.9025
-13.9324
-13.9649
-13.9974
-14.0289
-14.0599
-14.0901
-14.1196
-14.1481
-14.1757
-14.2023
-14.2279
-14.2526
-14.2763
-14.2991
-14.3209
-14.3419
-14.3621
-14.3814
-14.4
-14.4178
-14.435
-14.4516
-14.4678
-14.4839
-14.5
-14.5168
-14.5347
-14.5546
-14.5758
-13.8936
-13.8858
-13.901
-13.9253
-13.9503
-13.9782
-14.0073
-14.0366
-14.0658
-14.0946
-14.1229
-14.1505
-14.1773
-14.2032
-14.2283
-14.2525
-14.2759
-14.2984
-14.3201
-14.341
-14.3612
-14.3807
-14.3996
-14.4178
-14.4355
-14.4529
-14.47
-14.4871
-14.5044
-14.5225
-14.5415
-14.562
-14.5837
-13.9066
-13.9027
-13.9147
-13.936
-13.9598
-13.9863
-14.0142
-14.0424
-14.0705
-14.0984
-14.1258
-14.1526
-14.1787
-14.2041
-14.2287
-14.2526
-14.2756
-14.2979
-14.3195
-14.3404
-14.3607
-14.3803
-14.3994
-14.4181
-14.4363
-14.4543
-14.4722
-14.4902
-14.5086
-14.5277
-14.5477
-14.5688
-14.591
-13.9202
-13.9196
-13.9308
-13.9501
-13.972
-13.9964
-14.0224
-14.049
-14.0758
-14.1025
-14.129
-14.1549
-14.1803
-14.2051
-14.2292
-14.2526
-14.2753
-14.2974
-14.3189
-14.3397
-14.36
-14.3798
-14.3991
-14.4181
-14.4368
-14.4554
-14.474
-14.4929
-14.5121
-14.5321
-14.5529
-14.5747
-14.5975
-13.9339
-13.9348
-13.9451
-13.9624
-13.9827
-14.0055
-14.03
-14.0553
-14.0809
-14.1066
-14.1321
-14.1572
-14.1819
-14.2061
-14.2297
-14.2527
-14.2751
-14.297
-14.3183
-14.339
-14.3593
-14.3792
-14.3988
-14.4181
-14.4372
-14.4563
-14.4755
-14.4951
-14.5151
-14.5357
-14.5572
-14.5797
-14.6032
-13.9472
-13.9491
-13.9588
-13.9746
-13.9934
-14.0147
-14.0377
-14.0616
-14.0861
-14.1107
-14.1352
-14.1596
-14.1836
-14.2071
-14.2302
-14.2528
-14.2749
-14.2965
-14.3176
-14.3383
-14.3586
-14.3786
-14.3983
-14.4179
-14.4373
-14.4569
-14.4766
-14.4967
-14.5173
-14.5386
-14.5607
-14.5837
-14.6078
-13.9602
-13.9625
-13.9717
-13.9861
-14.0036
-14.0235
-14.0451
-14.0678
-14.0911
-14.1147
-14.1384
-14.1619
-14.1852
-14.2082
-14.2308
-14.2529
-14.2747
-14.296
-14.317
-14.3375
-14.3578
-14.3778
-14.3977
-14.4174
-14.4372
-14.4571
-14.4772
-14.4978
-14.5188
-14.5406
-14.5632
-14.5867
-14.6112
-13.9726
-13.9751
-13.9838
-13.9971
-14.0134
-14.032
-14.0524
-14.0739
-14.0961
-14.1187
-14.1415
-14.1643
-14.1869
-14.2092
-14.2313
-14.2531
-14.2744
-14.2955
-14.3162
-14.3367
-14.3569
-14.3769
-14.3969
-14.4168
-14.4367
-14.4569
-14.4773
-14.4982
-14.5196
-14.5417
-14.5646
-14.5885
-14.6133
-13.9844
-13.987
-13.9951
-14.0075
-14.0226
-14.0401
-14.0593
-14.0797
-14.1009
-14.1226
-14.1445
-14.1665
-14.1885
-14.2103
-14.2318
-14.2531
-14.2742
-14.2949
-14.3154
-14.3357
-14.3558
-14.3758
-14.3958
-14.4157
-14.4358
-14.4561
-14.4768
-14.4979
-14.5195
-14.5418
-14.5649
-14.5889
-14.614
-13.9955
-13.9981
-14.0058
-14.0173
-14.0314
-14.0478
-14.066
-14.0854
-14.1056
-14.1264
-14.1475
-14.1687
-14.19
-14.2112
-14.2322
-14.2531
-14.2738
-14.2942
-14.3145
-14.3346
-14.3546
-14.3745
-14.3944
-14.4144
-14.4345
-14.4549
-14.4756
-14.4968
-14.5185
-14.5409
-14.564
-14.588
-14.613
-14.006
-14.0084
-14.0157
-14.0264
-14.0397
-14.0551
-14.0723
-14.0907
-14.11
-14.1299
-14.1503
-14.1708
-14.1914
-14.212
-14.2326
-14.253
-14.2733
-14.2934
-14.3134
-14.3332
-14.353
-14.3728
-14.3926
-14.4125
-14.4326
-14.453
-14.4737
-14.4948
-14.5165
-14.5388
-14.5619
-14.5857
-14.6105
-14.0157
-14.018
-14.0249
-14.0349
-14.0474
-14.062
-14.0782
-14.0957
-14.1142
-14.1333
-14.1528
-14.1727
-14.1927
-14.2127
-14.2327
-14.2527
-14.2726
-14.2923
-14.312
-14.3316
-14.3512
-14.3708
-14.3905
-14.4102
-14.4302
-14.4504
-14.471
-14.492
-14.5135
-14.5356
-14.5584
-14.5818
-14.6062
-14.0247
-14.0269
-14.0333
-14.0428
-14.0546
-14.0683
-14.0837
-14.1004
-14.118
-14.1364
-14.1552
-14.1744
-14.1938
-14.2132
-14.2327
-14.2522
-14.2717
-14.2911
-14.3104
-14.3298
-14.3491
-14.3684
-14.3878
-14.4074
-14.4271
-14.4471
-14.4675
-14.4882
-14.5094
-14.5311
-14.5535
-14.5765
-14.6002
-14.0329
-14.035
-14.0411
-14.05
-14.0611
-14.0741
-14.0887
-14.1046
-14.1215
-14.1391
-14.1573
-14.1758
-14.1946
-14.2135
-14.2325
-14.2515
-14.2706
-14.2896
-14.3086
-14.3275
-14.3465
-14.3656
-14.3847
-14.404
-14.4234
-14.4431
-14.4631
-14.4834
-14.5042
-14.5254
-14.5472
-14.5695
-14.5925
-14.0403
-14.0423
-14.0481
-14.0565
-14.067
-14.0793
-14.0933
-14.1085
-14.1246
-14.1416
-14.1591
-14.177
-14.1952
-14.2135
-14.232
-14.2506
-14.2692
-14.2878
-14.3064
-14.325
-14.3436
-14.3623
-14.381
-14.3999
-14.419
-14.4383
-14.4578
-14.4777
-14.4979
-14.5185
-14.5395
-14.5611
-14.5832
-14.0469
-14.0488
-14.0543
-14.0622
-14.0722
-14.0839
-14.0972
-14.1118
-14.1273
-14.1436
-14.1604
-14.1778
-14.1954
-14.2133
-14.2313
-14.2493
-14.2675
-14.2856
-14.3038
-14.322
-14.3402
-14.3585
-14.3768
-14.3953
-14.4139
-14.4326
-14.4516
-14.4709
-14.4904
-14.5103
-14.5305
-14.5511
-14.5722
-14.0527
-14.0545
-14.0597
-14.0672
-14.0767
-14.0879
-14.1006
-14.1146
-14.1295
-14.1452
-14.1615
-14.1782
-14.1953
-14.2127
-14.2302
-14.2478
-14.2654
-14.2831
-14.3009
-14.3186
-14.3364
-14.3542
-14.372
-14.39
-14.408
-14.4262
-14.4446
-14.4631
-14.4819
-14.5009
-14.5202
-14.5398
-14.5596
-14.0576
-14.0593
-14.0642
-14.0714
-14.0805
-14.0912
-14.1033
-14.1167
-14.1311
-14.1462
-14.162
-14.1782
-14.1948
-14.2116
-14.2287
-14.2458
-14.263
-14.2802
-14.2975
-14.3147
-14.332
-14.3493
-14.3666
-14.384
-14.4014
-14.419
-14.4366
-14.4544
-14.4723
-14.4903
-14.5086
-14.527
-14.5457
-14.0617
-14.0633
-14.068
-14.0749
-14.0835
-14.0938
-14.1055
-14.1184
-14.1323
-14.1469
-14.1622
-14.1779
-14.194
-14.2104
-14.2269
-14.2436
-14.2603
-14.277
-14.2938
-14.3105
-14.3273
-14.344
-14.3607
-14.3775
-14.3942
-14.411
-14.4279
-14.4448
-14.4617
-14.4788
-14.4959
-14.5131
-14.5304
-14.0648
-14.0663
-14.0707
-14.0773
-14.0855
-14.0954
-14.1066
-14.1191
-14.1325
-14.1467
-14.1615
-14.1768
-14.1924
-14.2083
-14.2244
-14.2406
-14.2569
-14.2731
-14.2894
-14.3056
-14.3218
-14.338
-14.3541
-14.3701
-14.3862
-14.4022
-14.4182
-14.4342
-14.4501
-14.4661
-14.4821
-14.498
-14.5139
-14.0669
-14.0684
-14.0727
-14.0791
-14.0871
-14.0967
-14.1077
-14.1198
-14.1328
-14.1466
-14.161
-14.1759
-14.1911
-14.2065
-14.2222
-14.2379
-14.2536
-14.2694
-14.2851
-14.3007
-14.3163
-14.3318
-14.3473
-14.3626
-14.3778
-14.393
-14.4081
-14.4231
-14.438
-14.4528
-14.4675
-14.4821
-14.4966
-14.068
-14.0693
-14.0731
-14.079
-14.0866
-14.0958
-14.1064
-14.1181
-14.1308
-14.1443
-14.1584
-14.173
-14.1879
-14.203
-14.2183
-14.2336
-14.2489
-14.2642
-14.2794
-14.2946
-14.3096
-14.3245
-14.3393
-14.3539
-14.3684
-14.3827
-14.3969
-14.4109
-14.4247
-14.4384
-14.4518
-14.4651
-14.4781
-14.0684
-14.07
-14.0742
-14.0802
-14.0877
-14.0968
-14.1072
-14.1188
-14.1312
-14.1444
-14.1581
-14.1722
-14.1867
-14.2013
-14.216
-14.2308
-14.2456
-14.2603
-14.2749
-14.2894
-14.3038
-14.318
-14.332
-14.3458
-14.3594
-14.3727
-14.3859
-14.3988
-14.4115
-14.4239
-14.4361
-14.4479
-14.4595
-14.0668
-14.0674
-14.0703
-14.0752
-14.0821
-14.0908
-14.101
-14.1125
-14.1249
-14.1381
-14.1519
-14.166
-14.1804
-14.195
-14.2096
-14.2243
-14.2388
-14.2533
-14.2675
-14.2816
-14.2955
-14.3092
-14.3226
-14.3357
-14.3486
-14.3611
-14.3734
-14.3853
-14.397
-14.4083
-14.4192
-14.4297
-14.4399
-14.0665
-14.0691
-14.0736
-14.0796
-14.0869
-14.0956
-14.1056
-14.1166
-14.1285
-14.1411
-14.1541
-14.1676
-14.1813
-14.1951
-14.209
-14.2229
-14.2367
-14.2504
-14.2639
-14.2772
-14.2903
-14.3031
-14.3156
-14.3278
-14.3396
-14.3512
-14.3623
-14.3731
-14.3836
-14.3936
-14.4032
-14.4123
-14.421
-14.0586
-14.0565
-14.0568
-14.0605
-14.0673
-14.0763
-14.0872
-14.0993
-14.1123
-14.126
-14.1402
-14.1546
-14.1691
-14.1836
-14.198
-14.2123
-14.2263
-14.2401
-14.2537
-14.2669
-14.2798
-14.2923
-14.3044
-14.3161
-14.3274
-14.3383
-14.3488
-14.3587
-14.3682
-14.3772
-14.3857
-14.3937
-14.4012
-14.0668
-14.0733
-14.079
-14.0841
-14.0899
-14.0972
-14.106
-14.116
-14.127
-14.1386
-14.1509
-14.1634
-14.1763
-14.1892
-14.2022
-14.2151
-14.2278
-14.2404
-14.2528
-14.2648
-14.2766
-14.2879
-14.2989
-14.3095
-14.3197
-14.3294
-14.3387
-14.3474
-14.3556
-14.3633
-14.3705
-14.3771
-14.3831
-14.0347
-14.0211
-14.0161
-14.0214
-14.0315
-14.0442
-14.0584
-14.0736
-14.0893
-14.1053
-14.1212
-14.137
-14.1526
-14.1678
-14.1827
-14.1973
-14.2113
-14.225
-14.2381
-14.2508
-14.2629
-14.2746
-14.2857
-14.2962
-14.3062
-14.3156
-14.3244
-14.3327
-14.3402
-14.3472
-14.3535
-14.3592
-14.3642
-14.0889
-14.1093
-14.1139
-14.1094
-14.1067
-14.109
-14.1142
-14.1214
-14.13
-14.1397
-14.1503
-14.1614
-14.1729
-14.1846
-14.1964
-14.2081
-14.2197
-14.2311
-14.2422
-14.253
-14.2634
-14.2734
-14.283
-14.292
-14.3006
-14.3086
-14.3161
-14.3229
-14.3292
-14.3348
-14.3398
-14.3441
-14.3477
-13.966
-13.9164
-13.9046
-13.9304
-13.9588
-13.9833
-14.0072
-14.0305
-14.0527
-14.0738
-14.0938
-14.1128
-14.1308
-14.148
-14.1644
-14.1799
-14.1947
-14.2087
-14.222
-14.2346
-14.2465
-14.2576
-14.2681
-14.2778
-14.2868
-14.2951
-14.3026
-14.3095
-14.3155
-14.3208
-14.3253
-14.3291
-14.3321
-14.2145
-14.2495
-14.2187
-14.1763
-14.1476
-14.1365
-14.1337
-14.1346
-14.1384
-14.1446
-14.1524
-14.1613
-14.1708
-14.1808
-14.191
-14.2014
-14.2116
-14.2218
-14.2317
-14.2412
-14.2504
-14.2592
-14.2675
-14.2752
-14.2824
-14.289
-14.295
-14.3004
-14.3051
-14.309
-14.3123
-14.3149
-14.3167
-13.7223
-13.6025
-13.6649
-13.7664
-13.8404
-13.8925
-13.9363
-13.9747
-14.0081
-14.0375
-14.0638
-14.0877
-14.1094
-14.1294
-14.1479
-14.165
-14.1809
-14.1957
-14.2094
-14.2222
-14.234
-14.245
-14.255
-14.2642
-14.2725
-14.28
-14.2866
-14.2924
-14.2973
-14.3013
-14.3044
-14.3067
-14.3081
-14.9369
-14.598
-14.3343
-14.2174
-14.1672
-14.142
-14.127
-14.1209
-14.1211
-14.1253
-14.1319
-14.1402
-14.1496
-14.1597
-14.1701
-14.1807
-14.1912
-14.2015
-14.2115
-14.2212
-14.2305
-14.2392
-14.2474
-14.255
-14.2619
-14.2682
-14.2738
-14.2787
-14.2828
-14.2862
-14.2888
-14.2906
-14.2916
-12.4333
-13.1399
-13.5446
-13.697
-13.8018
-13.8843
-13.9439
-13.9889
-14.0255
-14.0559
-14.0818
-14.1043
-14.1244
-14.1426
-14.1592
-14.1745
-14.1887
-14.2018
-14.214
-14.2252
-14.2356
-14.2452
-14.2539
-14.2617
-14.2687
-14.2749
-14.2802
-14.2847
-14.2883
-14.291
-14.2928
-14.2938
-14.2938
-14.2142
-14.3391
-14.4162
-14.4326
-14.4423
-14.4758
-14.5667
-14.7293
-14.9636
-15.2543
-15.5968
-15.9727
-16.3669
-16.7643
-17.1523
-17.5201
-17.8607
-18.1682
-18.4401
-18.6767
-18.8797
-19.0514
-19.1939
-19.3096
-19.4001
-19.4667
-19.5101
-19.5301
-19.5259
-19.4956
-19.4364
-19.3445
-19.2149
-19.0415
-18.817
-18.5328
-18.1794
-17.7462
-17.2223
-16.5966
-15.8592
-15.0026
-14.0238
-12.9272
-11.7256
-10.4449
-9.12624
-7.81295
-6.54098
-5.34201
-4.24389
-3.26654
-2.41999
-1.70494
-1.1148
-0.638178
-0.261364
0.0299745
0.249624
0.410198
0.522851
0.59721
0.64143
0.662316
0.665472
0.655455
0.635927
0.609794
0.57933
0.546289
0.512001
0.477451
0.443354
0.410212
0.37836
0.348012
0.319291
0.292254
0.266911
0.243243
0.221215
0.20078
0.181892
0.164502
0.148558
0.133999
0.12075
0.108725
0.0977916
0.0878451
0.0786311
0.0701364
0.0617905
0.0541758
0.0455744
0.0390984
0.0281261
0.0258462
0.00596572
0.0204003
-14.8468
-14.8919
-14.7346
-14.59
-14.488
-14.4525
-14.4933
-14.6223
-14.8379
-15.1288
-15.48
-15.8686
-16.2735
-16.6761
-17.0617
-17.4213
-17.7492
-18.0438
-18.306
-18.5357
-18.7344
-18.9032
-19.0438
-19.1576
-19.2461
-19.3106
-19.3517
-19.3692
-19.3621
-19.3283
-19.2649
-19.1679
-19.0324
-18.852
-18.6196
-18.3266
-17.9636
-17.5206
-16.9868
-16.352
-15.607
-14.7463
-13.77
-12.6856
-11.5103
-10.2731
-9.00815
-7.74775
-6.52386
-5.36755
-4.30516
-3.35539
-2.52805
-1.82453
-1.23945
-0.762892
-0.382499
-0.0851283
0.142065
0.310985
0.432268
0.515181
0.567639
0.596295
0.606667
0.603271
0.589762
0.569061
0.54347
0.51478
0.484362
0.453247
0.42219
0.391733
0.362251
0.333991
0.307105
0.281679
0.257746
0.235309
0.214348
0.194834
0.176736
0.160016
0.144635
0.130548
0.117693
0.106002
0.0953587
0.0856716
0.0767051
0.0684447
0.0603505
0.0529549
0.044648
0.0382894
0.0277897
0.0251554
0.006635
0.0186097
-14.5514
-14.491
-14.4512
-14.4496
-14.4637
-14.506
-14.5934
-14.735
-14.932
-15.1806
-15.4761
-15.8086
-16.166
-16.5354
-16.9033
-17.2577
-17.5884
-17.8909
-18.1579
-18.3893
-18.5858
-18.7502
-18.8853
-18.9939
-19.0778
-19.1382
-19.1754
-19.1888
-19.1772
-19.1385
-19.0694
-18.966
-18.8232
-18.6347
-18.3931
-18.0903
-17.7168
-17.2627
-16.7179
-16.0733
-15.3223
-14.4631
-13.4987
-12.4386
-11.3016
-10.1125
-8.89776
-7.68626
-6.50858
-5.39378
-4.36625
-3.44355
-2.6353
-1.94349
-1.36385
-0.887791
-0.50426
-0.201243
0.0331882
0.210228
0.339995
0.431383
0.492056
0.528503
0.546145
0.54945
0.542057
0.526894
0.506288
0.482063
0.455629
0.428057
0.400143
0.37247
0.345449
0.319361
0.294389
0.270645
0.248187
0.227038
0.207199
0.188656
0.171391
0.15538
0.140598
0.127014
0.11458
0.103244
0.0929067
0.0834904
0.074778
0.0667538
0.0589119
0.0517289
0.0437164
0.0374605
0.0274466
0.0244246
0.00731305
0.0167673
-14.6107
-14.6686
-14.6722
-14.648
-14.6294
-14.6418
-14.7015
-14.8175
-14.9928
-15.2241
-15.5035
-15.8176
-16.1513
-16.4908
-16.8251
-17.1456
-17.4463
-17.7219
-17.9707
-18.1925
-18.3867
-18.5527
-18.6907
-18.8013
-18.8855
-18.9443
-18.9782
-18.9871
-18.97
-18.9248
-18.8487
-18.7374
-18.5857
-18.3875
-18.1352
-17.8207
-17.4349
-16.9688
-16.4144
-15.7654
-15.018
-14.1709
-13.2279
-12.2
-11.1042
-9.9605
-8.79278
-7.62823
-6.49528
-5.42067
-4.42703
-3.53085
-2.74155
-2.06161
-1.48778
-1.01267
-0.626461
-0.318203
-0.0768664
0.108045
0.246124
0.345887
0.414732
0.458974
0.483927
0.493999
0.492808
0.483282
0.467768
0.448118
0.425778
0.401856
0.377191
0.3524
0.327932
0.304102
0.281123
0.259135
0.23822
0.218423
0.199762
0.182241
0.165857
0.150599
0.136455
0.123406
0.111423
0.100465
0.0904518
0.0813176
0.0728655
0.0650778
0.0574855
0.0505072
0.0427852
0.0366182
0.0270951
0.0236627
0.00798549
0.0148917
-14.5926
-14.6058
-14.5885
-14.5794
-14.5951
-14.6416
-14.7269
-14.857
-15.0337
-15.2543
-15.5129
-15.8
-16.1051
-16.4184
-16.7308
-17.0337
-17.3199
-17.5841
-17.8225
-18.0325
-18.2141
-18.3677
-18.4944
-18.5956
-18.6723
-18.7249
-18.7534
-18.7569
-18.7338
-18.6818
-18.5977
-18.4772
-18.3154
-18.106
-17.8422
-17.5166
-17.1216
-16.65
-16.0948
-15.4503
-14.7129
-13.8831
-12.9663
-11.9727
-10.9163
-9.8157
-8.69311
-7.57381
-6.48395
-5.44816
-4.4874
-3.61716
-2.84662
-2.17869
-1.61101
-1.13731
-0.748871
-0.435791
-0.187899
0.00461267
0.15081
0.258823
0.335775
0.387797
0.420083
0.436975
0.442059
0.438259
0.427934
0.412962
0.394819
0.374652
0.353334
0.331522
0.309698
0.288211
0.267304
0.247145
0.227839
0.209455
0.192029
0.175582
0.160125
0.145663
0.132194
0.119716
0.108211
0.0976557
0.0879847
0.0791452
0.070961
0.0634121
0.0560689
0.0492897
0.0418554
0.0357664
0.0267376
0.0228773
0.00865
0.0129985
-14.5973
-14.6251
-14.6406
-14.6568
-14.684
-14.7321
-14.8116
-14.9299
-15.0896
-15.2895
-15.5248
-15.7875
-16.0681
-16.3573
-16.6458
-16.9256
-17.1902
-17.435
-17.6573
-17.8549
-18.0271
-18.1738
-18.2948
-18.3905
-18.4611
-18.5066
-18.527
-18.5214
-18.4887
-18.4265
-18.3318
-18.2007
-18.0283
-17.809
-17.5365
-17.204
-16.8045
-16.331
-15.7774
-15.1393
-14.4149
-13.6056
-12.7163
-11.7557
-10.7371
-9.67787
-8.5987
-7.5229
-6.47449
-5.47613
-4.54723
-3.70234
-2.95036
-2.29456
-1.73336
-1.26149
-0.871288
-0.553814
-0.299733
-0.0999122
0.054188
0.170305
0.255281
0.315048
0.354675
0.378426
0.389846
0.391851
0.386804
0.376605
0.362759
0.346445
0.328572
0.309831
0.29074
0.27168
0.252924
0.234666
0.217038
0.200128
0.183994
0.168673
0.154191
0.140567
0.127813
0.115939
0.104942
0.0948134
0.0855037
0.0769726
0.0690648
0.061758
0.0546643
0.0480794
0.0409301
0.0349091
0.0263757
0.0220744
0.00930288
0.0111008
-14.603
-14.6301
-14.6487
-14.669
-14.7029
-14.7588
-14.8439
-14.9628
-15.1173
-15.3057
-15.5242
-15.7662
-16.0242
-16.2902
-16.5565
-16.8158
-17.0621
-17.2912
-17.4997
-17.6852
-17.8463
-17.9825
-18.0938
-18.1803
-18.2422
-18.2796
-18.292
-18.2785
-18.2374
-18.1665
-18.0627
-17.9223
-17.7407
-17.5127
-17.2323
-16.8935
-16.4899
-16.0157
-15.466
-14.8373
-14.1281
-13.3398
-12.477
-11.5483
-10.5662
-9.54675
-8.50933
-7.47531
-6.46672
-5.50444
-4.6064
-3.78626
-3.05263
-2.40906
-1.85464
-1.38503
-0.993512
-0.672079
-0.412188
-0.205369
-0.0436015
0.0804545
0.173349
0.240811
0.28777
0.318403
0.336211
0.344087
0.3444
0.339063
0.329607
0.31724
0.302905
0.287327
0.271056
0.254505
0.237978
0.221694
0.20581
0.190437
0.175652
0.161509
0.14805
0.135308
0.123308
0.112073
0.101614
0.0919372
0.0830087
0.0748002
0.0671781
0.0601175
0.0532739
0.0468796
0.040012
0.0340507
0.0260111
0.0212601
0.00994029
0.0092108
-14.6102
-14.6396
-14.6668
-14.698
-14.7413
-14.803
-14.8888
-15.0032
-15.1479
-15.3221
-15.5226
-15.7442
-15.9804
-16.2242
-16.4689
-16.7079
-16.9358
-17.1482
-17.3419
-17.5144
-17.6641
-17.7904
-17.8928
-17.9711
-18.0252
-18.0547
-18.0589
-18.0368
-17.9868
-17.9066
-17.7935
-17.6439
-17.4535
-17.2174
-16.9305
-16.5871
-16.1816
-15.709
-15.1648
-14.5462
-13.8522
-13.0844
-12.2476
-11.3499
-10.403
-9.42201
-8.42472
-7.4308
-6.4605
-5.53297
-4.6648
-3.8688
-3.15329
-2.52202
-1.97468
-1.50772
-1.11535
-0.790394
-0.525085
-0.311592
-0.142411
-0.0106016
0.0900895
0.165177
0.219441
0.256968
0.2812
0.295006
0.30075
0.300357
0.295378
0.287048
0.27634
0.264012
0.250647
0.236686
0.222463
0.208224
0.194152
0.180377
0.166998
0.154086
0.141699
0.129882
0.118676
0.108115
0.098226
0.089026
0.0804993
0.0726285
0.0653021
0.0584924
0.0519002
0.0456932
0.039104
0.0331951
0.0256452
0.0204404
0.0105588
0.00733975
-14.6178
-14.6492
-14.6812
-14.7181
-14.7661
-14.8307
-14.9166
-15.0274
-15.1644
-15.3269
-15.5123
-15.716
-15.9327
-16.1563
-16.3809
-16.6008
-16.8108
-17.0071
-17.1863
-17.346
-17.4843
-17.6004
-17.6934
-17.7628
-17.8084
-17.8295
-17.8254
-17.7949
-17.7365
-17.6478
-17.5262
-17.3683
-17.1701
-16.9273
-16.6349
-16.2879
-15.8815
-15.4111
-14.873
-14.2649
-13.5863
-12.8389
-12.0276
-11.16
-10.2473
-9.3033
-8.34458
-7.38918
-6.45564
-5.56158
-4.72232
-3.94988
-3.25224
-2.63332
-2.09331
-1.6294
-1.23661
-0.908568
-0.638238
-0.41841
-0.242088
-0.102728
0.00561816
0.0882435
0.149773
0.194188
0.22487
0.244653
0.255891
0.260516
0.260093
0.255884
0.248889
0.239895
0.229516
0.218224
0.20638
0.194257
0.182061
0.169947
0.15803
0.146402
0.135134
0.124287
0.113914
0.104064
0.0947752
0.0860788
0.0779749
0.0704575
0.0634375
0.0568843
0.0505452
0.0445231
0.0382087
0.0323465
0.0252796
0.0196208
0.0111555
0.0054977
-14.6251
-14.6583
-14.6943
-14.736
-14.7881
-14.8549
-14.9403
-15.0468
-15.1759
-15.3269
-15.4975
-15.6843
-15.8826
-16.0871
-16.2927
-16.4943
-16.6872
-16.8676
-17.0324
-17.1791
-17.3059
-17.4114
-17.4948
-17.5554
-17.5926
-17.6055
-17.5933
-17.5547
-17.488
-17.3912
-17.2615
-17.0959
-16.8907
-16.6418
-16.3448
-15.9953
-15.5888
-15.1215
-14.5902
-13.993
-13.3299
-12.6029
-11.8165
-10.9783
-10.0986
-9.19033
-8.26867
-7.35023
-6.452
-5.59016
-4.77889
-4.02939
-3.34936
-2.74281
-2.21037
-1.74988
-1.3571
-1.02641
-0.751466
-0.525652
-0.342473
-0.195783
-0.0799411
0.0101181
0.0788557
0.130141
0.167283
0.193079
0.209865
0.219572
0.22378
0.22377
0.220568
0.214989
0.207675
0.199127
0.189734
0.179795
0.16954
0.159146
0.148748
0.138454
0.128354
0.118521
0.109022
0.0999177
0.0912607
0.0830945
0.0754351
0.0682874
0.061585
0.0552946
0.0492106
0.0433722
0.0373286
0.0315085
0.0249161
0.0188068
0.0117282
0.00369333
-14.6316
-14.6665
-14.7052
-14.7501
-14.8046
-14.8722
-14.9559
-15.058
-15.1793
-15.3196
-15.4768
-15.648
-15.8292
-16.016
-16.2037
-16.3879
-16.5643
-16.7294
-16.8802
-17.0141
-17.1292
-17.2242
-17.298
-17.3495
-17.378
-17.3827
-17.3623
-17.3157
-17.2412
-17.1366
-16.9995
-16.8269
-16.6154
-16.3613
-16.0606
-15.7093
-15.3036
-14.84
-14.316
-13.7302
-13.0828
-12.3759
-11.6141
-10.8045
-9.9567
-9.08281
-8.19676
-7.31379
-6.44946
-5.61864
-4.83441
-4.10727
-3.44457
-2.8504
-2.32574
-1.86901
-1.47665
-1.14375
-0.864585
-0.633142
-0.443404
-0.28962
-0.166458
-0.0690855
0.00678678
0.0649084
0.10851
0.140343
0.162719
0.177566
0.186472
0.190733
0.191399
0.18931
0.185136
0.179405
0.172533
0.164845
0.156593
0.147976
0.139152
0.130244
0.121358
0.112582
0.103997
0.0956749
0.0876812
0.0800722
0.0728792
0.0661182
0.059745
0.0537245
0.0478983
0.0422427
0.0364661
0.0306848
0.0245563
0.0180031
0.012275
0.00193386
-14.637
-14.6732
-14.7139
-14.7608
-14.8166
-14.8841
-14.9657
-15.063
-15.1768
-15.3068
-15.4514
-15.608
-15.7732
-15.9433
-16.1142
-16.2818
-16.4424
-16.5926
-16.7296
-16.8508
-16.9544
-17.0388
-17.1027
-17.1451
-17.165
-17.1614
-17.1331
-17.0787
-16.9965
-16.8846
-16.7404
-16.5614
-16.3443
-16.0857
-15.7821
-15.4299
-15.0257
-14.5666
-14.0505
-13.4763
-12.8446
-12.1577
-11.42
-10.6382
-9.8213
-8.9805
-8.12865
-7.27969
-6.44791
-5.64692
-4.88884
-4.18345
-3.5378
-2.95597
-2.43928
-1.98664
-1.5951
-1.26039
-0.977415
-0.740705
-0.544716
-0.384088
-0.253795
-0.149246
-0.0663278
-0.00141764
0.0486298
0.086511
0.114511
0.134546
0.148208
0.156806
0.161409
0.162881
0.161918
0.159074
0.154789
0.149415
0.143227
0.136445
0.129246
0.121774
0.114148
0.106473
0.0988398
0.0913351
0.0840362
0.0770114
0.0703071
0.0639499
0.0579183
0.052175
0.0466098
0.0411371
0.0356235
0.0298787
0.0242021
0.0172142
0.0127953
0.000224937
-14.6411
-14.6781
-14.72
-14.768
-14.8242
-14.8908
-14.9696
-15.0619
-15.1684
-15.2887
-15.4214
-15.5643
-15.7147
-15.8691
-16.0241
-16.176
-16.3214
-16.4572
-16.5807
-16.6894
-16.7815
-16.8553
-16.9094
-16.9426
-16.9539
-16.942
-16.9058
-16.8438
-16.7543
-16.6353
-16.4847
-16.2998
-16.0777
-15.8154
-15.5096
-15.1572
-14.7552
-14.3012
-13.7934
-13.2312
-12.6154
-11.9482
-11.234
-10.4792
-9.69214
-8.88319
-8.06414
-7.24781
-6.44724
-5.67496
-4.94213
-4.25791
-3.62899
-3.05945
-2.55088
-2.10261
-1.71227
-1.37616
-1.08978
-0.848164
-0.646241
-0.479028
-0.34181
-0.230235
-0.140375
-0.0687384
-0.0122733
0.0316568
0.0653022
0.0905639
0.109032
0.122026
0.130631
0.135731
0.138045
0.138152
0.136519
0.133519
0.129452
0.12456
0.119038
0.113049
0.106728
0.100194
0.0935512
0.0868987
0.0803256
0.0739119
0.0677185
0.0617827
0.0561052
0.0506474
0.0453465
0.0400576
0.034803
0.0290936
0.0238554
0.016444
0.0132887
-0.00142948
-14.6436
-14.6811
-14.7235
-14.7719
-14.8277
-14.8927
-14.9683
-15.0555
-15.1548
-15.2658
-15.3873
-15.5174
-15.6538
-15.7935
-15.9334
-16.0704
-16.2012
-16.3231
-16.4335
-16.53
-16.6107
-16.6739
-16.7182
-16.7423
-16.7449
-16.7249
-16.6809
-16.6114
-16.5149
-16.3893
-16.2327
-16.0424
-15.816
-15.5505
-15.2432
-14.8913
-14.4922
-14.0438
-13.5447
-12.9948
-12.3947
-11.747
-11.0558
-10.3272
-9.56898
-8.79065
-8.00309
-7.21802
-6.4474
-5.70271
-4.99426
-4.33059
-3.71808
-3.16077
-2.66043
-2.21681
-1.82802
-1.4909
-1.2015
-0.955345
-0.747808
-0.57428
-0.430353
-0.311919
-0.215234
-0.136947
-0.0741054
-0.0241383
0.0151637
0.045681
0.0689982
0.0864394
0.0991022
0.10789
0.113544
0.116665
0.117743
0.117176
0.115285
0.112334
0.108538
0.104077
0.0991032
0.0937494
0.0881343
0.0823675
0.0765505
0.0707741
0.0651139
0.0596171
0.0543065
0.0491426
0.0441101
0.0390064
0.0340069
0.0283324
0.0235183
0.0156959
0.013756
-0.00302718
-14.6443
-14.682
-14.7245
-14.7725
-14.8272
-14.8901
-14.9621
-15.0441
-15.1364
-15.2384
-15.3493
-15.4675
-15.5908
-15.7166
-15.8424
-15.9651
-16.082
-16.1905
-16.2881
-16.3726
-16.4421
-16.4949
-16.5294
-16.5444
-16.5384
-16.5103
-16.4586
-16.382
-16.2787
-16.1469
-15.9846
-15.7896
-15.5593
-15.2914
-14.9833
-14.6324
-14.2367
-13.7944
-13.3045
-12.7668
-12.1825
-11.554
-10.8853
-10.1821
-9.45163
-8.70272
-7.94534
-7.19023
-6.44832
-5.73015
-5.04522
-4.40151
-3.80506
-3.25987
-2.76786
-2.32912
-1.9422
-1.60445
-1.3124
-1.06207
-0.849244
-0.66968
-0.519271
-0.394154
-0.290776
-0.205929
-0.136765
-0.0807853
-0.0358268
-3.50181e-05
0.0281641
0.0500961
0.0668682
0.0793996
0.0884491
0.0946409
0.0984868
0.100406
0.100744
0.0997823
0.097758
0.0948683
0.0912822
0.0871465
0.0825935
0.0777446
0.0727127
0.0675994
0.062494
0.0574537
0.0525231
0.047662
0.042902
0.0379854
0.0332373
0.027598
0.0231933
0.014973
0.014199
-0.00456779
-14.6433
-14.6808
-14.7227
-14.7698
-14.823
-14.8833
-14.9515
-15.0282
-15.1135
-15.2071
-15.308
-15.4148
-15.5258
-15.6386
-15.7509
-15.8601
-15.9637
-16.0593
-16.1445
-16.2173
-16.2758
-16.3183
-16.3431
-16.3491
-16.3346
-16.2986
-16.2394
-16.1558
-16.046
-15.9083
-15.7408
-15.5415
-15.308
-15.0382
-14.7298
-14.3806
-13.9888
-13.553
-13.0725
-12.5473
-11.9787
-11.369
-10.7222
-10.0436
-9.33988
-8.61924
-7.89079
-7.16436
-6.44997
-5.75726
-5.09501
-4.47065
-3.88991
-3.3567
-2.87308
-2.43942
-2.05467
-1.71664
-1.42232
-1.16817
-0.950376
-0.765058
-0.608404
-0.476793
-0.366865
-0.275562
-0.200142
-0.138187
-0.0875831
-0.0465085
-0.0134034
0.0130546
0.0339792
0.0503021
0.0627992
0.072114
0.0787793
0.0832361
0.0858498
0.0869245
0.0867152
0.0854373
0.0832764
0.0803941
0.0769358
0.0730349
0.0688159
0.06439
0.0598605
0.055294
0.0507562
0.0462071
0.041724
0.0369971
0.0324968
0.0268934
0.022883
0.0142776
0.0146204
-0.00605285
-14.6404
-14.6772
-14.7183
-14.7641
-14.8153
-14.8727
-14.9369
-15.0082
-15.0867
-15.1721
-15.2635
-15.3596
-15.4589
-15.5595
-15.6591
-15.7555
-15.8464
-15.9295
-16.0028
-16.0642
-16.1119
-16.1443
-16.1596
-16.1566
-16.1339
-16.09
-16.0235
-15.9331
-15.8171
-15.6739
-15.5017
-15.2985
-15.0624
-14.7912
-14.483
-14.136
-13.7486
-13.3197
-12.8488
-12.3361
-11.783
-11.1918
-10.5663
-9.91149
-9.23357
-8.54005
-7.83932
-7.14035
-6.45231
-5.78404
-5.14364
-4.53802
-3.97261
-3.45123
-2.97603
-2.54763
-2.16532
-1.82734
-1.53109
-1.27346
-1.05103
-0.860243
-0.697586
-0.559681
-0.44336
-0.345714
-0.264119
-0.196236
-0.140011
-0.0936556
-0.0556306
-0.0246199
0.000492699
0.0206488
0.0366385
0.0491233
0.0586553
0.0656958
0.0706306
0.0737838
0.0754294
0.0758009
0.0751001
0.0735036
0.0711703
0.0682454
0.0648649
0.0611498
0.0572162
0.05314
0.0490079
0.0447799
0.0405784
0.0360439
0.031788
0.0262215
0.0225905
0.013612
0.0150241
-0.00748594
-14.6355
-14.6715
-14.7114
-14.7554
-14.8043
-14.8584
-14.9184
-14.9844
-15.0563
-15.1338
-15.2161
-15.3022
-15.3905
-15.4794
-15.567
-15.6512
-15.73
-15.8013
-15.863
-15.9134
-15.9506
-15.973
-15.979
-15.9673
-15.9363
-15.8848
-15.8113
-15.7143
-15.5925
-15.4441
-15.2675
-15.0609
-14.8225
-14.5505
-14.2431
-13.8987
-13.5161
-13.0944
-12.6332
-12.1331
-11.5953
-11.0223
-10.4175
-9.78565
-9.13254
-8.46505
-7.79085
-7.11816
-6.45534
-5.81052
-5.19114
-4.60365
-4.05318
-3.54344
-3.07665
-2.65365
-2.27403
-1.9364
-1.63856
-1.37779
-1.15103
-0.95506
-0.78665
-0.642657
-0.520108
-0.416247
-0.328568
-0.254819
-0.193007
-0.141384
-0.098435
-0.0628544
-0.0335265
-0.00950313
0.010018
0.0257139
0.0381545
0.0478204
0.0551168
0.0603873
0.0639244
0.0659795
0.0667707
0.0664896
0.065309
0.0633856
0.0608669
0.0578841
0.054565
0.0509951
0.0472808
0.043383
0.0394678
0.0351288
0.031114
0.0255853
0.0223193
0.0129779
0.0154153
-0.00887275
-14.6287
-14.6636
-14.7019
-14.7439
-14.7901
-14.8409
-14.8965
-14.9571
-15.0226
-15.0925
-15.1662
-15.2427
-15.3206
-15.3986
-15.4748
-15.5475
-15.6147
-15.6746
-15.7252
-15.7649
-15.7919
-15.8046
-15.8016
-15.7812
-15.7423
-15.6833
-15.6029
-15.4997
-15.3723
-15.2191
-15.0385
-14.829
-14.5888
-14.3164
-14.0102
-13.6689
-13.2914
-12.877
-12.4258
-11.9382
-11.4155
-10.8602
-10.2755
-9.6659
-9.03665
-8.39411
-7.74531
-7.09775
-6.45907
-5.83671
-5.23755
-4.66757
-4.13163
-3.63332
-3.17491
-2.75741
-2.38069
-2.04368
-1.74456
-1.48097
-1.2502
-1.04933
-0.875422
-0.725554
-0.596952
-0.487014
-0.393354
-0.313812
-0.246458
-0.189593
-0.141726
-0.101567
-0.0680059
-0.040089
-0.017005
0.00193665
0.0173223
0.0296501
0.0393441
0.0467663
0.0522277
0.055997
0.0583089
0.0593698
0.0593663
0.0584673
0.0568316
0.0546002
0.0519127
0.0488636
0.0455787
0.0420199
0.0383956
0.0342551
0.0304784
0.0249883
0.0220735
0.0123769
0.0158005