/*--------------------------------*- C++ -*----------------------------------*\
| =========                 |                                                 |
| \\      /  F ield         | OpenFOAM: The Open Source CFD Toolbox           |
|  \\    /   O peration     | Version:  2.1.1                                 |
|   \\  /    A nd           | Web:      www.OpenFOAM.org                      |
|    \\/     M anipulation  |                                                 |
\*---------------------------------------------------------------------------*/
FoamFile
{
    version     2.0;
    format      ascii;
    class       surfaceScalarField;
    location    "0.075";
    object      phi;
}
// * * * * * * * * * * * * * * * * * * * * * * * * * * * * * * * * * * * * * //

dimensions      [0 3 -1 0 0 0 0];

internalField   nonuniform List<scalar> 
13452
(
6.89922e-05
-5.0492e-07
6.8813e-05
1.79142e-07
6.82009e-05
6.12115e-07
6.72525e-05
9.48452e-07
6.61745e-05
1.07795e-06
6.50812e-05
1.0933e-06
6.40143e-05
1.06692e-06
6.2991e-05
1.02326e-06
6.20198e-05
9.71286e-07
6.11039e-05
9.15897e-07
6.02443e-05
8.59518e-07
5.94407e-05
8.03607e-07
5.86916e-05
7.49121e-07
5.79949e-05
6.96734e-07
5.7348e-05
6.46906e-07
5.6748e-05
5.99935e-07
5.6192e-05
5.55994e-07
5.56769e-05
5.15161e-07
5.51994e-05
4.77445e-07
5.47566e-05
4.42814e-07
5.43454e-05
4.11206e-07
5.39629e-05
3.8256e-07
5.3606e-05
3.56829e-07
5.3272e-05
3.34006e-07
5.29579e-05
3.14163e-07
5.26604e-05
2.9751e-07
5.23759e-05
2.84485e-07
5.20997e-05
2.76136e-07
5.18257e-05
2.74056e-07
5.15416e-05
2.84075e-07
5.12289e-05
3.12751e-07
5.08352e-05
3.93687e-07
6.00704e-07
5.02345e-05
7.01649e-05
-2.25901e-07
7.0041e-05
3.03045e-07
7.01815e-05
4.71604e-07
7.05086e-05
6.21341e-07
7.08589e-05
7.27747e-07
7.11573e-05
7.94809e-07
7.13815e-05
8.42801e-07
7.15329e-05
8.71868e-07
7.16194e-05
8.84715e-07
7.165e-05
8.85327e-07
7.16329e-05
8.76663e-07
7.15754e-05
8.6106e-07
7.14842e-05
8.40336e-07
7.13649e-05
8.15973e-07
7.12227e-05
7.89163e-07
7.10618e-05
7.60866e-07
7.08859e-05
7.31854e-07
7.06983e-05
7.02745e-07
7.05017e-05
6.74029e-07
7.02984e-05
6.461e-07
7.00904e-05
6.19278e-07
6.98791e-05
5.93833e-07
6.96659e-05
5.70014e-07
6.94518e-05
5.48076e-07
6.92377e-05
5.28326e-07
6.9024e-05
5.11153e-07
6.88113e-05
4.97202e-07
6.86002e-05
4.8729e-07
6.83909e-05
4.83359e-07
6.81883e-05
4.86666e-07
6.79963e-05
5.04674e-07
6.78636e-05
5.26402e-07
5.83552e-07
6.78808e-05
7.22815e-05
-5.09095e-08
7.23965e-05
1.88088e-07
7.2501e-05
3.67072e-07
7.25871e-05
5.35285e-07
7.26698e-05
6.45007e-07
7.27512e-05
7.13433e-07
7.28366e-05
7.57426e-07
7.29224e-05
7.86056e-07
7.30046e-05
8.02506e-07
7.30806e-05
8.09335e-07
7.31487e-05
8.08511e-07
7.32082e-05
8.0162e-07
7.32586e-05
7.89956e-07
7.32999e-05
7.74657e-07
7.33324e-05
7.56686e-07
7.33564e-05
7.36858e-07
7.33724e-05
7.15857e-07
7.33809e-05
6.94253e-07
7.33824e-05
6.72523e-07
7.33774e-05
6.51067e-07
7.33664e-05
6.30231e-07
7.335e-05
6.10326e-07
7.33283e-05
5.91651e-07
7.33019e-05
5.74515e-07
7.32709e-05
5.59285e-07
7.32357e-05
5.464e-07
7.31963e-05
5.36524e-07
7.31532e-05
5.30394e-07
7.3107e-05
5.29618e-07
7.3059e-05
5.34603e-07
7.3013e-05
5.50765e-07
7.29719e-05
5.67507e-07
6.14838e-07
7.29406e-05
7.45184e-05
-4.26876e-08
7.44878e-05
2.18688e-07
7.4476e-05
3.78886e-07
7.4515e-05
4.96226e-07
7.45746e-05
5.85409e-07
7.46401e-05
6.47933e-07
7.4705e-05
6.92569e-07
7.47677e-05
7.23389e-07
7.48278e-05
7.4236e-07
7.48853e-05
7.51863e-07
7.49399e-05
7.53939e-07
7.49913e-05
7.50162e-07
7.50395e-05
7.41798e-07
7.50842e-05
7.29928e-07
7.51254e-05
7.15456e-07
7.51631e-05
6.99141e-07
7.51974e-05
6.81621e-07
7.52282e-05
6.63433e-07
7.52557e-05
6.45031e-07
7.528e-05
6.26806e-07
7.53011e-05
6.091e-07
7.53192e-05
5.9223e-07
7.53343e-05
5.76503e-07
7.53466e-05
5.62242e-07
7.53561e-05
5.49816e-07
7.53628e-05
5.39653e-07
7.5367e-05
5.32344e-07
7.53689e-05
5.28491e-07
7.53693e-05
5.29204e-07
7.53693e-05
5.34612e-07
7.5373e-05
5.47064e-07
7.53802e-05
5.60341e-07
5.81748e-07
7.54133e-05
7.66035e-05
9.67304e-09
7.66279e-05
1.94263e-07
7.66639e-05
3.42903e-07
7.67015e-05
4.58651e-07
7.67391e-05
5.47756e-07
7.67778e-05
6.09281e-07
7.68187e-05
6.51694e-07
7.68613e-05
6.80718e-07
7.69047e-05
6.9897e-07
7.6948e-05
7.08612e-07
7.69905e-05
7.11431e-07
7.70318e-05
7.08815e-07
7.70717e-05
7.0191e-07
7.71099e-05
6.91703e-07
7.71464e-05
6.79028e-07
7.71809e-05
6.64595e-07
7.72135e-05
6.49005e-07
7.72442e-05
6.32767e-07
7.72729e-05
6.1632e-07
7.72997e-05
6.00041e-07
7.73245e-05
5.8427e-07
7.73474e-05
5.6932e-07
7.73684e-05
5.55498e-07
7.73875e-05
5.43121e-07
7.74048e-05
5.32541e-07
7.74203e-05
5.24151e-07
7.74342e-05
5.18441e-07
7.74468e-05
5.15871e-07
7.74589e-05
5.17149e-07
7.74713e-05
5.22209e-07
7.74864e-05
5.32004e-07
7.75041e-05
5.42598e-07
5.56684e-07
7.75292e-05
7.88311e-05
2.45147e-08
7.88385e-05
1.8686e-07
7.88562e-05
3.25162e-07
7.88845e-05
4.30355e-07
7.89201e-05
5.1216e-07
7.89584e-05
5.71015e-07
7.89974e-05
6.12651e-07
7.90365e-05
6.416e-07
7.90753e-05
6.60175e-07
7.91136e-05
6.70368e-07
7.91511e-05
6.73922e-07
7.91877e-05
6.72214e-07
7.92232e-05
6.66368e-07
7.92576e-05
6.57339e-07
7.92907e-05
6.45931e-07
7.93225e-05
6.32827e-07
7.93529e-05
6.18607e-07
7.93819e-05
6.03763e-07
7.94095e-05
5.8872e-07
7.94357e-05
5.73849e-07
7.94604e-05
5.59484e-07
7.94838e-05
5.45932e-07
7.95058e-05
5.33494e-07
7.95265e-05
5.22473e-07
7.95458e-05
5.13194e-07
7.9564e-05
5.06001e-07
7.95811e-05
5.01283e-07
7.95976e-05
4.99375e-07
7.96141e-05
5.00687e-07
7.96312e-05
5.05088e-07
7.96504e-05
5.12781e-07
7.96716e-05
5.2146e-07
5.316e-07
7.96967e-05
8.10847e-05
3.84047e-08
8.10944e-05
1.77101e-07
8.11175e-05
3.02085e-07
8.11476e-05
4.00228e-07
8.11816e-05
4.78208e-07
8.12167e-05
5.35903e-07
8.12522e-05
5.7711e-07
8.1288e-05
6.05851e-07
8.13236e-05
6.24532e-07
8.13589e-05
6.35107e-07
8.13936e-05
6.39252e-07
8.14275e-05
6.38301e-07
8.14605e-05
6.33339e-07
8.14925e-05
6.25288e-07
8.15236e-05
6.14926e-07
8.15535e-05
6.02911e-07
8.15823e-05
5.89806e-07
8.16099e-05
5.7609e-07
8.16365e-05
5.62179e-07
8.16619e-05
5.48435e-07
8.16862e-05
5.35186e-07
8.17094e-05
5.22732e-07
8.17315e-05
5.11362e-07
8.17526e-05
5.01361e-07
8.17728e-05
4.93019e-07
8.17922e-05
4.8663e-07
8.1811e-05
4.82494e-07
8.18295e-05
4.80846e-07
8.18483e-05
4.81906e-07
8.18678e-05
4.85525e-07
8.1889e-05
4.91615e-07
8.19116e-05
4.98846e-07
5.07087e-07
8.19361e-05
8.341e-05
4.39456e-08
8.34197e-05
1.67392e-07
8.34402e-05
2.81634e-07
8.34672e-05
3.73226e-07
8.34988e-05
4.46534e-07
8.35327e-05
5.0199e-07
8.35675e-05
5.4231e-07
8.36026e-05
5.70825e-07
8.36374e-05
5.89734e-07
8.36717e-05
6.00818e-07
8.37053e-05
6.05641e-07
8.37381e-05
6.05484e-07
8.377e-05
6.01401e-07
8.3801e-05
5.94288e-07
8.3831e-05
5.84902e-07
8.38601e-05
5.73886e-07
8.38881e-05
5.61787e-07
8.39151e-05
5.49075e-07
8.39411e-05
5.36156e-07
8.39662e-05
5.23386e-07
8.39903e-05
5.11083e-07
8.40135e-05
4.99539e-07
8.40358e-05
4.89028e-07
8.40574e-05
4.79813e-07
8.40782e-05
4.72151e-07
8.40986e-05
4.66286e-07
8.41186e-05
4.62445e-07
8.41387e-05
4.6079e-07
8.41592e-05
4.61427e-07
8.41805e-05
4.6422e-07
8.42031e-05
4.68999e-07
8.42269e-05
4.75008e-07
4.82021e-07
8.4252e-05
8.57963e-05
4.64184e-08
8.58059e-05
1.57766e-07
8.58257e-05
2.61782e-07
8.5852e-05
3.46997e-07
8.58826e-05
4.15899e-07
8.59155e-05
4.69082e-07
8.59494e-05
5.0842e-07
8.59836e-05
5.36592e-07
8.60178e-05
5.55602e-07
8.60515e-05
5.67094e-07
8.60846e-05
5.72525e-07
8.6117e-05
5.73113e-07
8.61485e-05
5.69869e-07
8.61791e-05
5.63655e-07
8.62088e-05
5.552e-07
8.62376e-05
5.45129e-07
8.62654e-05
5.33974e-07
8.62923e-05
5.22192e-07
8.63183e-05
5.1018e-07
8.63434e-05
4.98283e-07
8.63676e-05
4.86811e-07
8.63911e-05
4.76044e-07
8.64139e-05
4.66238e-07
8.64361e-05
4.57633e-07
8.64578e-05
4.50454e-07
8.64792e-05
4.44901e-07
8.65005e-05
4.41147e-07
8.6522e-05
4.393e-07
8.6544e-05
4.39404e-07
8.65669e-05
4.41347e-07
8.65909e-05
4.44966e-07
8.66161e-05
4.49834e-07
4.55772e-07
8.66423e-05
8.825e-05
4.64204e-08
8.82598e-05
1.47954e-07
8.82787e-05
2.42885e-07
8.83036e-05
3.22112e-07
8.83328e-05
3.86715e-07
8.83645e-05
4.37332e-07
8.83976e-05
4.75349e-07
8.84313e-05
5.02924e-07
8.8465e-05
5.21849e-07
8.84985e-05
5.33618e-07
8.85315e-05
5.39564e-07
8.85637e-05
5.40825e-07
8.85953e-05
5.38361e-07
8.86259e-05
5.32992e-07
8.86557e-05
5.25418e-07
8.86846e-05
5.16241e-07
8.87126e-05
5.05975e-07
8.87397e-05
4.95062e-07
8.8766e-05
4.83886e-07
8.87915e-05
4.72782e-07
8.88163e-05
4.62048e-07
8.88404e-05
4.51948e-07
8.88639e-05
4.42721e-07
8.88869e-05
4.34584e-07
8.89097e-05
4.27731e-07
8.89322e-05
4.22326e-07
8.89549e-05
4.18499e-07
8.89779e-05
4.16323e-07
8.90015e-05
4.15811e-07
8.90259e-05
4.16874e-07
8.90515e-05
4.19379e-07
8.90783e-05
4.23087e-07
4.27871e-07
8.91062e-05
9.07727e-05
4.50425e-08
9.07825e-05
1.38167e-07
9.08005e-05
2.2488e-07
9.08243e-05
2.98321e-07
9.08523e-05
3.58697e-07
9.0883e-05
4.06597e-07
9.09153e-05
4.4308e-07
9.09483e-05
4.69867e-07
9.09817e-05
4.88528e-07
9.10149e-05
5.00411e-07
9.10477e-05
5.06732e-07
9.108e-05
5.0855e-07
9.11116e-05
5.06765e-07
9.11424e-05
5.02154e-07
9.11725e-05
4.95385e-07
9.12017e-05
4.8703e-07
9.12301e-05
4.77583e-07
9.12576e-05
4.67468e-07
9.12845e-05
4.57054e-07
9.13106e-05
4.46662e-07
9.13361e-05
4.36575e-07
9.1361e-05
4.2704e-07
9.13854e-05
4.18279e-07
9.14095e-05
4.10484e-07
9.14334e-05
4.03823e-07
9.14573e-05
3.98429e-07
9.14814e-05
3.94401e-07
9.1506e-05
3.91787e-07
9.15312e-05
3.90583e-07
9.15573e-05
3.90723e-07
9.15846e-05
3.92103e-07
9.16131e-05
3.94579e-07
3.98064e-07
9.16429e-05
9.33669e-05
4.28295e-08
9.33766e-05
1.28426e-07
9.33938e-05
2.07684e-07
9.34165e-05
2.75579e-07
9.34434e-05
3.31828e-07
9.34731e-05
3.76909e-07
9.35045e-05
4.11658e-07
9.35369e-05
4.37455e-07
9.35698e-05
4.55662e-07
9.36027e-05
4.67489e-07
9.36354e-05
4.74037e-07
9.36677e-05
4.7628e-07
9.36994e-05
4.7506e-07
9.37304e-05
4.71105e-07
9.37608e-05
4.65045e-07
9.37904e-05
4.57425e-07
9.38193e-05
4.48712e-07
9.38474e-05
4.39312e-07
9.38749e-05
4.29576e-07
9.39017e-05
4.19807e-07
9.3928e-05
4.10272e-07
9.39539e-05
4.01201e-07
9.39794e-05
3.92796e-07
9.40046e-05
3.85227e-07
9.40298e-05
3.78637e-07
9.40551e-05
3.73136e-07
9.40807e-05
3.68796e-07
9.41068e-05
3.65649e-07
9.41337e-05
3.63685e-07
9.41616e-05
3.62847e-07
9.41907e-05
3.63055e-07
9.4221e-05
3.64213e-07
3.66246e-07
9.42529e-05
9.60348e-05
4.01628e-08
9.60444e-05
1.18817e-07
9.60608e-05
1.91242e-07
9.60826e-05
2.5381e-07
9.61084e-05
3.0601e-07
9.61371e-05
3.48202e-07
9.61677e-05
3.81061e-07
9.61995e-05
4.05697e-07
9.62318e-05
4.23282e-07
9.62644e-05
4.34891e-07
9.62969e-05
4.41519e-07
9.63292e-05
4.44053e-07
9.6361e-05
4.43274e-07
9.63922e-05
4.39862e-07
9.64228e-05
4.34408e-07
9.64528e-05
4.27423e-07
9.64822e-05
4.1935e-07
9.65109e-05
4.10572e-07
9.65391e-05
4.01421e-07
9.65667e-05
3.92181e-07
9.65939e-05
3.831e-07
9.66207e-05
3.7439e-07
9.66473e-05
3.66234e-07
9.66737e-05
3.58781e-07
9.67002e-05
3.52152e-07
9.67269e-05
3.46436e-07
9.6754e-05
3.41687e-07
9.67817e-05
3.37924e-07
9.68103e-05
3.35131e-07
9.68399e-05
3.33259e-07
9.68707e-05
3.32239e-07
9.69029e-05
3.31995e-07
3.32455e-07
9.69367e-05
9.87786e-05
3.72694e-08
9.8788e-05
1.0939e-07
9.88038e-05
1.75484e-07
9.88247e-05
2.32936e-07
9.88495e-05
2.8117e-07
9.88773e-05
3.20432e-07
9.89071e-05
3.51275e-07
9.89382e-05
3.74599e-07
9.89701e-05
3.91405e-07
9.90023e-05
4.02644e-07
9.90346e-05
4.09205e-07
9.90668e-05
4.11897e-07
9.90986e-05
4.11437e-07
9.913e-05
4.08452e-07
9.91609e-05
4.03495e-07
9.91913e-05
3.97044e-07
9.92211e-05
3.89513e-07
9.92505e-05
3.81262e-07
9.92793e-05
3.72598e-07
9.93077e-05
3.6379e-07
9.93357e-05
3.55064e-07
9.93635e-05
3.46616e-07
9.93911e-05
3.38606e-07
9.94187e-05
3.31166e-07
9.94465e-05
3.24398e-07
9.94745e-05
3.18373e-07
9.95031e-05
3.1313e-07
9.95323e-05
3.08678e-07
9.95625e-05
3.04995e-07
9.95937e-05
3.02037e-07
9.96262e-05
2.99739e-07
9.96602e-05
2.9803e-07
2.96835e-07
9.96958e-05
0.000101601
3.42889e-08
0.00010161
1.00185e-07
0.000101625
1.60353e-07
0.000101645
2.12887e-07
0.000101669
2.57229e-07
0.000101696
2.93538e-07
0.000101725
3.22265e-07
0.000101755
3.44146e-07
0.000101787
3.60032e-07
0.000101819
3.70758e-07
0.000101851
3.77117e-07
0.000101883
3.79838e-07
0.000101915
3.79574e-07
0.000101946
3.76904e-07
0.000101977
3.72337e-07
0.000102008
3.66317e-07
0.000102038
3.59229e-07
0.000102068
3.51407e-07
0.000102098
3.43137e-07
0.000102127
3.34666e-07
0.000102156
3.26201e-07
0.000102184
3.17918e-07
0.000102213
3.0996e-07
0.000102242
3.02442e-07
0.000102271
2.95447e-07
0.0001023
2.89032e-07
0.00010233
2.83223e-07
0.000102361
2.78021e-07
0.000102392
2.73401e-07
0.000102425
2.69316e-07
0.000102459
2.65705e-07
0.000102495
2.62495e-07
2.5961e-07
0.000102532
0.000104503
3.13023e-08
0.000104512
9.12256e-08
0.000104527
1.45795e-07
0.000104546
1.93591e-07
0.000104569
2.34116e-07
0.000104595
2.6746e-07
0.000104624
2.93991e-07
0.000104654
3.14316e-07
0.000104684
3.29155e-07
0.000104716
3.39237e-07
0.000104748
3.45264e-07
0.00010478
3.47889e-07
0.000104812
3.47705e-07
0.000104843
3.45238e-07
0.000104875
3.40956e-07
0.000104906
3.35268e-07
0.000104936
3.28527e-07
0.000104967
3.21041e-07
0.000104997
3.13074e-07
0.000105027
3.0485e-07
0.000105056
2.96557e-07
0.000105086
2.88354e-07
0.000105115
2.80365e-07
0.000105145
2.72688e-07
0.000105175
2.65392e-07
0.000105206
2.58521e-07
0.000105237
2.52091e-07
0.000105269
2.46096e-07
0.000105302
2.40506e-07
0.000105336
2.35275e-07
0.000105371
2.30338e-07
0.000105408
2.25624e-07
2.21055e-07
0.000105447
0.000107489
2.83552e-08
0.000107498
8.25231e-08
0.000107512
1.31762e-07
0.00010753
1.74983e-07
0.000107553
2.1176e-07
0.000107578
2.42136e-07
0.000107606
2.66408e-07
0.000107635
2.85078e-07
0.000107665
2.98756e-07
0.000107696
3.08073e-07
0.000107728
3.13648e-07
0.00010776
3.1606e-07
0.000107792
3.15844e-07
0.000107823
3.13474e-07
0.000107855
3.09377e-07
0.000107886
3.03923e-07
0.000107917
2.97438e-07
0.000107948
2.902e-07
0.000107979
2.8245e-07
0.000108009
2.74391e-07
0.00010804
2.66193e-07
0.00010807
2.57993e-07
0.000108101
2.49901e-07
0.000108131
2.41999e-07
0.000108162
2.34345e-07
0.000108194
2.2697e-07
0.000108226
2.19882e-07
0.000108259
2.13069e-07
0.000108293
2.06498e-07
0.000108328
2.00121e-07
0.000108365
1.93875e-07
0.000108403
1.87685e-07
1.8148e-07
0.000108442
0.00011056
2.5471e-08
0.000110568
7.4078e-08
0.000110582
1.18208e-07
0.0001106
1.57e-07
0.000110621
1.90096e-07
0.000110646
2.17505e-07
0.000110673
2.39467e-07
0.000110702
2.56398e-07
0.000110732
2.68812e-07
0.000110762
2.77254e-07
0.000110794
2.82264e-07
0.000110826
2.84355e-07
0.000110857
2.84e-07
0.000110889
2.81628e-07
0.000110921
2.77619e-07
0.000110953
2.72311e-07
0.000110984
2.65995e-07
0.000111015
2.58924e-07
0.000111046
2.51315e-07
0.000111077
2.43348e-07
0.000111108
2.35174e-07
0.00011114
2.26914e-07
0.000111171
2.18662e-07
0.000111202
2.10487e-07
0.000111234
2.02434e-07
0.000111267
1.94524e-07
0.0001113
1.86761e-07
0.000111334
1.79125e-07
0.000111369
1.71583e-07
0.000111405
1.64087e-07
0.000111442
1.56574e-07
0.000111481
1.48971e-07
1.41213e-07
0.000111521
0.000113718
2.266e-08
0.000113726
6.58831e-08
0.00011374
1.05092e-07
0.000113757
1.39584e-07
0.000113778
1.69058e-07
0.000113802
1.93505e-07
0.000113828
2.13117e-07
0.000113857
2.28236e-07
0.000113886
2.39295e-07
0.000113917
2.46762e-07
0.000113948
2.51105e-07
0.000113979
2.52772e-07
0.000114011
2.52181e-07
0.000114043
2.49712e-07
0.000114075
2.45704e-07
0.000114107
2.40457e-07
0.000114139
2.34233e-07
0.00011417
2.27257e-07
0.000114202
2.1972e-07
0.000114233
2.11784e-07
0.000114265
2.03578e-07
0.000114297
1.95209e-07
0.000114329
1.86755e-07
0.000114361
1.78273e-07
0.000114393
1.69797e-07
0.000114427
1.61343e-07
0.000114461
1.52906e-07
0.000114495
1.44466e-07
0.000114531
1.35988e-07
0.000114567
1.27423e-07
0.000114605
1.18712e-07
0.000114644
1.09786e-07
1.0059e-07
0.000114685
0.000116967
1.99246e-08
0.000116975
5.79256e-08
0.000116988
9.23721e-08
0.000117005
1.22676e-07
0.000117025
1.48585e-07
0.000117049
1.70077e-07
0.000117074
1.87303e-07
0.000117102
2.00547e-07
0.000117131
2.10172e-07
0.000117161
2.16575e-07
0.000117192
2.20157e-07
0.000117224
2.21308e-07
0.000117256
2.20391e-07
0.000117288
2.1774e-07
0.00011732
2.13652e-07
0.000117352
2.08393e-07
0.000117384
2.02192e-07
0.000117416
1.95247e-07
0.000117448
1.87726e-07
0.00011748
1.79769e-07
0.000117512
1.7149e-07
0.000117544
1.62976e-07
0.000117577
1.54294e-07
0.000117609
1.45489e-07
0.000117643
1.36588e-07
0.000117676
1.27599e-07
0.000117711
1.18512e-07
0.000117746
1.09307e-07
0.000117782
9.99479e-08
0.000117819
9.03892e-08
0.000117857
8.0576e-08
0.000117896
7.04445e-08
5.99501e-08
0.000117937
0.000120309
1.72629e-08
0.000120316
5.01893e-08
0.000120329
8.00107e-08
0.000120345
1.06225e-07
0.000120365
1.28617e-07
0.000120388
1.4716e-07
0.000120413
1.61972e-07
0.000120441
1.73286e-07
0.000120469
1.81405e-07
0.000120499
1.86663e-07
0.00012053
1.89402e-07
0.000120562
1.89954e-07
0.000120593
1.88631e-07
0.000120625
1.85722e-07
0.000120657
1.81484e-07
0.00012069
1.76148e-07
0.000120722
1.69911e-07
0.000120754
1.62946e-07
0.000120787
1.55397e-07
0.000120819
1.47384e-07
0.000120851
1.39001e-07
0.000120884
1.30323e-07
0.000120917
1.21405e-07
0.00012095
1.1228e-07
0.000120984
1.02969e-07
0.000121018
9.3473e-08
0.000121053
8.37818e-08
0.000121088
7.38724e-08
0.000121124
6.37113e-08
0.000121162
5.32564e-08
0.0001212
4.24584e-08
0.000121239
3.12605e-08
1.96304e-08
0.000121279
0.000123746
1.46704e-08
0.000123753
4.26562e-08
0.000123765
6.79706e-08
0.000123781
9.01776e-08
0.000123801
1.09096e-07
0.000123823
1.24694e-07
0.000123848
1.37066e-07
0.000123875
1.46403e-07
0.000123904
1.52953e-07
0.000123933
1.56996e-07
0.000123964
1.58818e-07
0.000123995
1.58698e-07
0.000124027
1.569e-07
0.000124059
1.53668e-07
0.000124091
1.4922e-07
0.000124124
1.43753e-07
0.000124156
1.37435e-07
0.000124189
1.30411e-07
0.000124221
1.22803e-07
0.000124254
1.14711e-07
0.000124287
1.06212e-07
0.00012432
9.73685e-08
0.000124353
8.82217e-08
0.000124386
7.87985e-08
0.00012442
6.9111e-08
0.000124454
5.91579e-08
0.000124489
4.89266e-08
0.000124525
3.83946e-08
0.000124561
2.75308e-08
0.000124598
1.62979e-08
0.000124636
4.65291e-09
0.000124674
-7.45295e-09
-2.00395e-08
0.000124714
0.000127281
1.21411e-08
0.000127288
3.53062e-08
0.0001273
5.62143e-08
0.000127316
7.4483e-08
0.000127335
8.99602e-08
0.000127357
1.02617e-07
0.000127382
1.12525e-07
0.000127408
1.19841e-07
0.000127436
1.24769e-07
0.000127466
1.27536e-07
0.000127496
1.28378e-07
0.000127527
1.27525e-07
0.000127559
1.25194e-07
0.000127591
1.21585e-07
0.000127624
1.1688e-07
0.000127656
1.11242e-07
0.000127689
1.0481e-07
0.000127721
9.77008e-08
0.000127754
9.00181e-08
0.000127787
8.18402e-08
0.00012782
7.32292e-08
0.000127853
6.42337e-08
0.000127887
5.48852e-08
0.00012792
4.52024e-08
0.000127954
3.51922e-08
0.000127988
2.48503e-08
0.000128023
1.41631e-08
0.000128058
3.10947e-09
0.000128094
-8.33853e-09
0.000128131
-2.02129e-08
0.000128168
-3.25494e-08
0.000128206
-4.53885e-08
-5.87378e-08
0.000128245
0.000130917
9.6708e-09
0.000130925
2.81244e-08
0.000130936
4.47135e-08
0.000130951
5.90994e-08
0.00013097
7.11598e-08
0.000130992
8.08699e-08
0.000131016
8.82881e-08
0.000131043
9.3542e-08
0.00013107
9.6797e-08
0.0001311
9.82355e-08
0.00013113
9.80453e-08
0.000131161
9.64084e-08
0.000131193
9.3499e-08
0.000131225
8.94703e-08
0.000131257
8.44741e-08
0.00013129
7.86396e-08
0.000131323
7.20756e-08
0.000131356
6.48719e-08
0.000131389
5.71148e-08
0.000131421
4.88615e-08
0.000131455
4.01592e-08
0.000131488
3.10439e-08
0.000131521
2.15377e-08
0.000131555
1.16538e-08
0.000131588
1.39322e-09
0.000131623
-9.25029e-09
0.000131657
-2.02907e-08
0.000131692
-3.17472e-08
0.000131727
-4.36437e-08
0.000131763
-5.60068e-08
0.000131799
-6.88651e-08
0.000131836
-8.22505e-08
-9.61597e-08
0.000131874
0.000134658
7.24822e-09
0.000134665
2.1083e-08
0.000134676
3.34195e-08
0.000134691
4.396e-08
0.00013471
5.26198e-08
0.000134731
5.93789e-08
0.000134755
6.42846e-08
0.000134781
6.74427e-08
0.000134809
6.89847e-08
0.000134838
6.90517e-08
0.000134868
6.77871e-08
0.000134899
6.5329e-08
0.000134931
6.18105e-08
0.000134963
5.7336e-08
0.000134996
5.2028e-08
0.000135028
4.59826e-08
0.000135061
3.928e-08
0.000135094
3.19878e-08
0.000135127
2.41755e-08
0.00013516
1.58691e-08
0.000135193
7.11174e-09
0.000135226
-2.07117e-09
0.000135259
-1.16742e-08
0.000135293
-2.16842e-08
0.000135326
-3.21059e-08
0.00013536
-4.29469e-08
0.000135394
-5.42208e-08
0.000135428
-6.59448e-08
0.000135463
-7.81387e-08
0.000135497
-9.08237e-08
0.000135533
-1.04021e-07
0.000135568
-1.17755e-07
-1.32011e-07
0.000135604
0.000138505
4.89171e-09
0.000138511
1.42082e-08
0.000138523
2.23547e-08
0.000138537
2.90647e-08
0.000138556
3.43081e-08
0.000138577
3.80793e-08
0.000138601
4.04283e-08
0.000138627
4.14461e-08
0.000138655
4.12336e-08
0.000138684
3.9893e-08
0.000138714
3.75252e-08
0.000138745
3.4227e-08
0.000138777
3.00742e-08
0.000138809
2.51327e-08
0.000138842
1.952e-08
0.000138874
1.32798e-08
0.000138907
6.45864e-09
0.00013894
-9.20186e-10
0.000138973
-8.73722e-09
0.000139006
-1.70488e-08
0.000139039
-2.58031e-08
0.000139072
-3.49919e-08
0.000139105
-4.46086e-08
0.000139138
-5.46511e-08
0.000139171
-6.51261e-08
0.000139204
-7.60435e-08
0.000139237
-8.74157e-08
0.00013927
-9.92575e-08
0.000139304
-1.11585e-07
0.000139337
-1.24414e-07
0.000139371
-1.37759e-07
0.000139405
-1.51637e-07
-1.66026e-07
0.000139439
0.000142462
2.5224e-09
0.000142468
7.38275e-09
0.000142479
1.13699e-08
0.000142494
1.42796e-08
0.000142512
1.6137e-08
0.000142534
1.69141e-08
0.000142557
1.66812e-08
0.000142583
1.55269e-08
0.000142611
1.35259e-08
0.00014264
1.07453e-08
0.00014267
7.24259e-09
0.000142701
3.10219e-09
0.000142733
-1.64849e-09
0.000142765
-7.09177e-09
0.000142798
-1.30109e-08
0.000142831
-1.94455e-08
0.000142864
-2.63606e-08
0.000142896
-3.37382e-08
0.000142929
-4.15531e-08
0.000142962
-4.98099e-08
0.000142995
-5.84932e-08
0.000143027
-6.75998e-08
0.00014306
-7.71335e-08
0.000143092
-8.70995e-08
0.000143125
-9.75061e-08
0.000143157
-1.08364e-07
0.000143189
-1.19685e-07
0.000143221
-1.31482e-07
0.000143254
-1.43767e-07
0.000143286
-1.56551e-07
0.000143318
-1.69843e-07
0.00014335
-1.83653e-07
-1.97952e-07
0.000143382
0.000146531
4.02744e-10
0.000146538
9.58712e-10
0.000146548
7.57592e-10
0.000146563
-3.30034e-10
0.000146581
-1.98484e-09
0.000146602
-4.31213e-09
0.000146626
-7.20819e-09
0.000146652
-1.05883e-08
0.00014668
-1.44045e-08
0.00014671
-1.86284e-08
0.00014674
-2.32462e-08
0.000146772
-2.82513e-08
0.000146804
-3.36542e-08
0.000146836
-3.94647e-08
0.000146869
-4.56401e-08
0.000146901
-5.22011e-08
0.000146934
-5.91501e-08
0.000146967
-6.64897e-08
0.000147
-7.4214e-08
0.000147032
-8.23311e-08
0.000147064
-9.08481e-08
0.000147097
-9.97708e-08
0.000147129
-1.09109e-07
0.00014716
-1.18872e-07
0.000147192
-1.29072e-07
0.000147223
-1.39721e-07
0.000147254
-1.50829e-07
0.000147285
-1.62408e-07
0.000147316
-1.74466e-07
0.000147346
-1.87011e-07
0.000147377
-2.00047e-07
0.000147407
-2.13579e-07
-2.27572e-07
0.000147436
0.000150718
-2.1917e-09
0.000150725
-5.89579e-09
0.000150736
-1.0034e-08
0.00015075
-1.47671e-08
0.000150768
-1.99203e-08
0.000150789
-2.53731e-08
0.000150813
-3.09788e-08
0.000150839
-3.66394e-08
0.000150867
-4.23223e-08
0.000150896
-4.80353e-08
0.000150927
-5.38069e-08
0.000150958
-5.96773e-08
0.000150991
-6.56847e-08
0.000151023
-7.18846e-08
0.000151056
-7.83002e-08
0.000151088
-8.49606e-08
0.000151121
-9.18949e-08
0.000151154
-9.91278e-08
0.000151186
-1.06679e-07
0.000151218
-1.14569e-07
0.00015125
-1.22818e-07
0.000151282
-1.31442e-07
0.000151313
-1.40457e-07
0.000151344
-1.49879e-07
0.000151375
-1.59723e-07
0.000151405
-1.69999e-07
0.000151435
-1.80722e-07
0.000151465
-1.91898e-07
0.000151494
-2.03536e-07
0.000151522
-2.15638e-07
0.000151551
-2.28205e-07
0.000151578
-2.41237e-07
-2.54696e-07
0.000151605
0.000155023
-3.46091e-09
0.000155028
-1.13159e-08
0.000155038
-1.98924e-08
0.000155052
-2.90879e-08
0.000155071
-3.83282e-08
0.000155093
-4.72712e-08
0.000155118
-5.57494e-08
0.000155145
-6.37154e-08
0.000155174
-7.12069e-08
0.000155204
-7.83032e-08
0.000155235
-8.50994e-08
0.000155267
-9.16957e-08
0.0001553
-9.81854e-08
0.000155332
-1.04658e-07
0.000155365
-1.11178e-07
0.000155398
-1.17809e-07
0.000155431
-1.24605e-07
0.000155463
-1.31611e-07
0.000155495
-1.38867e-07
0.000155527
-1.46406e-07
0.000155559
-1.54257e-07
0.00015559
-1.62445e-07
0.00015562
-1.70994e-07
0.00015565
-1.79922e-07
0.00015568
-1.89247e-07
0.000155709
-1.98983e-07
0.000155737
-2.09141e-07
0.000155765
-2.19728e-07
0.000155792
-2.30751e-07
0.000155819
-2.4221e-07
0.000155845
-2.54104e-07
0.00015587
-2.66429e-07
-2.79145e-07
0.000155894
0.000159455
-7.49701e-09
0.000159462
-1.86353e-08
0.000159473
-3.049e-08
0.000159486
-4.30133e-08
0.000159504
-5.57252e-08
0.000159525
-6.80338e-08
0.000159548
-7.95269e-08
0.000159575
-9.0043e-08
0.000159603
-9.95994e-08
0.000159633
-1.08304e-07
0.000159664
-1.16301e-07
0.000159696
-1.23748e-07
0.000159729
-1.30791e-07
0.000159762
-1.37567e-07
0.000159795
-1.4419e-07
0.000159828
-1.50759e-07
0.000159861
-1.57358e-07
0.000159893
-1.64058e-07
0.000159925
-1.70917e-07
0.000159957
-1.77986e-07
0.000159988
-1.85307e-07
0.000160018
-1.92915e-07
0.000160048
-2.00839e-07
0.000160077
-2.09106e-07
0.000160106
-2.17735e-07
0.000160133
-2.26742e-07
0.00016016
-2.36139e-07
0.000160187
-2.45935e-07
0.000160212
-2.56133e-07
0.000160237
-2.66733e-07
0.00016026
-2.7773e-07
0.000160283
-2.89119e-07
-3.00861e-07
0.000160305
0.000164003
-4.86966e-09
0.000164005
-2.06366e-08
0.000164014
-3.90881e-08
0.000164029
-5.81667e-08
0.00016405
-7.62465e-08
0.000164074
-9.2587e-08
0.000164102
-1.07022e-07
0.000164131
-1.19667e-07
0.000164163
-1.30744e-07
0.000164195
-1.40499e-07
0.000164228
-1.49181e-07
0.000164261
-1.57024e-07
0.000164294
-1.64234e-07
0.000164328
-1.70989e-07
0.000164361
-1.77441e-07
0.000164394
-1.83713e-07
0.000164427
-1.89911e-07
0.000164459
-1.96122e-07
0.00016449
-2.02418e-07
0.000164521
-2.08859e-07
0.000164551
-2.15496e-07
0.000164581
-2.2237e-07
0.000164609
-2.29516e-07
0.000164637
-2.36962e-07
0.000164664
-2.4473e-07
0.00016469
-2.52838e-07
0.000164715
-2.61299e-07
0.00016474
-2.70121e-07
0.000164763
-2.79308e-07
0.000164785
-2.88858e-07
0.000164806
-2.98768e-07
0.000164826
-3.09031e-07
-3.19609e-07
0.000164845
0.000168701
-1.44511e-08
0.00016871
-2.89075e-08
0.000168718
-4.71817e-08
0.000168728
-6.82544e-08
0.000168742
-9.05342e-08
0.000168761
-1.1164e-07
0.000168784
-1.30343e-07
0.000168811
-1.46439e-07
0.000168841
-1.60162e-07
0.000168872
-1.71854e-07
0.000168905
-1.81876e-07
0.000168938
-1.90569e-07
0.000168972
-1.98233e-07
0.000169006
-2.05126e-07
0.00016904
-2.11462e-07
0.000169074
-2.17419e-07
0.000169107
-2.23142e-07
0.00016914
-2.28747e-07
0.000169172
-2.34332e-07
0.000169203
-2.39976e-07
0.000169233
-2.45743e-07
0.000169263
-2.51684e-07
0.000169291
-2.57843e-07
0.000169318
-2.64252e-07
0.000169344
-2.70939e-07
0.000169369
-2.77924e-07
0.000169393
-2.85221e-07
0.000169416
-2.92839e-07
0.000169438
-3.00783e-07
0.000169458
-3.09051e-07
0.000169477
-3.17639e-07
0.000169494
-3.2654e-07
-3.35719e-07
0.00016951
0.000173491
5.77692e-09
0.000173485
-2.26324e-08
0.000173495
-5.75786e-08
0.000173517
-9.04729e-08
0.000173546
-1.19442e-07
0.000173578
-1.4375e-07
0.000173612
-1.64065e-07
0.000173647
-1.80986e-07
0.000173682
-1.95074e-07
0.000173717
-2.0684e-07
0.000173751
-2.16741e-07
0.000173786
-2.25174e-07
0.00017382
-2.32472e-07
0.000173854
-2.38906e-07
0.000173887
-2.44699e-07
0.00017392
-2.50035e-07
0.000173952
-2.55062e-07
0.000173983
-2.59904e-07
0.000174013
-2.64658e-07
0.000174043
-2.69408e-07
0.000174071
-2.7422e-07
0.000174099
-2.7915e-07
0.000174125
-2.8424e-07
0.00017415
-2.89529e-07
0.000174175
-2.95042e-07
0.000174197
-3.00803e-07
0.000174219
-3.06827e-07
0.000174239
-3.13124e-07
0.000174258
-3.19699e-07
0.000174276
-3.26554e-07
0.000174292
-3.33683e-07
0.000174306
-3.41083e-07
-3.4872e-07
0.000174319
0.000178498
-2.39324e-08
0.000178501
-2.57082e-08
0.000178491
-4.70076e-08
0.000178482
-8.18589e-08
0.000178485
-1.22359e-07
0.000178499
-1.58028e-07
0.000178522
-1.86952e-07
0.000178551
-2.0977e-07
0.000178584
-2.27836e-07
0.000178619
-2.42168e-07
0.000178656
-2.53581e-07
0.000178694
-2.62753e-07
0.000178731
-2.70227e-07
0.000178769
-2.76428e-07
0.000178806
-2.8169e-07
0.000178842
-2.86276e-07
0.000178877
-2.9039e-07
0.000178912
-2.94194e-07
0.000178945
-2.97814e-07
0.000178977
-3.01352e-07
0.000179007
-3.04887e-07
0.000179037
-3.08482e-07
0.000179065
-3.12189e-07
0.000179091
-3.16047e-07
0.000179116
-3.20086e-07
0.00017914
-3.24331e-07
0.000179162
-3.28799e-07
0.000179182
-3.335e-07
0.000179201
-3.38441e-07
0.000179218
-3.43625e-07
0.000179233
-3.49048e-07
0.000179247
-3.54709e-07
-3.60578e-07
0.000179259
0.000183487
5.69454e-08
0.000183465
-3.72413e-09
0.000183501
-8.29813e-08
0.000183554
-1.35224e-07
0.000183606
-1.74643e-07
0.000183653
-2.05242e-07
0.000183696
-2.29431e-07
0.000183735
-2.49087e-07
0.000183772
-2.64949e-07
0.000183808
-2.7771e-07
0.000183842
-2.88036e-07
0.000183876
-2.96448e-07
0.000183909
-3.03351e-07
0.000183942
-3.09074e-07
0.000183974
-3.13882e-07
0.000184006
-3.1799e-07
0.000184037
-3.2157e-07
0.000184067
-3.24762e-07
0.000184097
-3.27682e-07
0.000184126
-3.30423e-07
0.000184155
-3.33062e-07
0.000184182
-3.35663e-07
0.000184208
-3.38278e-07
0.000184233
-3.40948e-07
0.000184256
-3.4371e-07
0.000184279
-3.46589e-07
0.000184299
-3.49608e-07
0.000184319
-3.52782e-07
0.000184336
-3.56122e-07
0.000184352
-3.59634e-07
0.000184367
-3.63319e-07
0.000184379
-3.67176e-07
-3.71186e-07
0.00018439
0.000188861
7.8466e-09
0.000188796
6.08408e-08
0.000188712
1.83229e-09
0.000188649
-7.20823e-08
0.00018863
-1.56626e-07
0.000188645
-2.19586e-07
0.000188678
-2.6275e-07
0.000188722
-2.93233e-07
0.000188773
-3.15251e-07
0.000188826
-3.31413e-07
0.000188882
-3.43373e-07
0.000188937
-3.52268e-07
0.000188993
-3.58907e-07
0.000189048
-3.6387e-07
0.000189102
-3.67585e-07
0.000189154
-3.70364e-07
0.000189205
-3.72448e-07
0.000189254
-3.74017e-07
0.000189302
-3.75213e-07
0.000189347
-3.76149e-07
0.000189391
-3.76912e-07
0.000189433