/*--------------------------------*- C++ -*----------------------------------*\
| =========                 |                                                 |
| \\      /  F ield         | OpenFOAM: The Open Source CFD Toolbox           |
|  \\    /   O peration     | Version:  2.1.1                                 |
|   \\  /    A nd           | Web:      www.OpenFOAM.org                      |
|    \\/     M anipulation  |                                                 |
\*---------------------------------------------------------------------------*/
FoamFile
{
    version     2.0;
    format      ascii;
    class       volVectorField;
    location    "0.075";
    object      U;
}
// * * * * * * * * * * * * * * * * * * * * * * * * * * * * * * * * * * * * * //

dimensions      [0 1 -1 0 0 0 0];

internalField   nonuniform List<vector> 
6820
(
(8.34337 -0.360075 0)
(8.40108 -0.247145 0)
(8.35603 -0.115282 0)
(8.24766 -0.0365408 0)
(8.11912 0.00603339 0)
(7.98556 0.0279061 0)
(7.85329 0.0386885 0)
(7.72568 0.043402 0)
(7.60416 0.0446883 0)
(7.48926 0.0440048 0)
(7.38121 0.0421934 0)
(7.28002 0.0397591 0)
(7.18558 0.0370135 0)
(7.09766 0.0341529 0)
(7.01596 0.0313019 0)
(6.94017 0.0285389 0)
(6.86991 0.0259122 0)
(6.80482 0.0234503 0)
(6.7445 0.0211681 0)
(6.68859 0.0190722 0)
(6.6367 0.0171639 0)
(6.58848 0.0154417 0)
(6.54357 0.0139038 0)
(6.50161 0.01255 0)
(6.46226 0.011384 0)
(6.42513 0.0104184 0)
(6.38984 0.00967844 0)
(6.35587 0.00922873 0)
(6.32263 0.00917312 0)
(6.28912 0.00982297 0)
(6.2534 0.0119698 0)
(6.21317 0.0161538 0)
(6.1563 0.0362684 0)
(8.32138 0.166254 0)
(8.28708 0.190015 0)
(8.28543 0.132176 0)
(8.31738 0.0958936 0)
(8.36166 0.0750696 0)
(8.40169 0.0624202 0)
(8.43274 0.0549526 0)
(8.45478 0.0504479 0)
(8.46865 0.0475651 0)
(8.47536 0.0455913 0)
(8.47596 0.0441318 0)
(8.47136 0.0429495 0)
(8.46241 0.0419061 0)
(8.44983 0.0409256 0)
(8.43424 0.0399684 0)
(8.4162 0.0390173 0)
(8.39618 0.0380676 0)
(8.37461 0.0371224 0)
(8.35182 0.0361887 0)
(8.32811 0.0352759 0)
(8.30373 0.0343953 0)
(8.27889 0.0335591 0)
(8.25375 0.0327822 0)
(8.22845 0.0320825 0)
(8.2031 0.0314841 0)
(8.17778 0.0310211 0)
(8.15256 0.0307474 0)
(8.12744 0.0307548 0)
(8.10265 0.0311886 0)
(8.07784 0.0324385 0)
(8.05526 0.0348334 0)
(8.03164 0.0407548 0)
(8.02933 0.0495622 0)
(8.3225 -0.0608808 0)
(8.31396 -0.0832654 0)
(8.33047 -0.0540694 0)
(8.34426 -0.020259 0)
(8.35308 0.00246828 0)
(8.36205 0.0166144 0)
(8.37171 0.0258763 0)
(8.38166 0.0321197 0)
(8.39141 0.0363687 0)
(8.40057 0.0392691 0)
(8.40889 0.0412163 0)
(8.41625 0.0424554 0)
(8.42257 0.0431612 0)
(8.42785 0.0434662 0)
(8.43209 0.043471 0)
(8.43533 0.0432538 0)
(8.43762 0.042876 0)
(8.43902 0.0423865 0)
(8.43958 0.0418253 0)
(8.43937 0.0412253 0)
(8.43845 0.0406147 0)
(8.43686 0.040019 0)
(8.43466 0.0394627 0)
(8.43189 0.0389713 0)
(8.42858 0.0385752 0)
(8.42477 0.0383111 0)
(8.42048 0.0382366 0)
(8.41573 0.0384139 0)
(8.4106 0.0390101 0)
(8.40508 0.0400178 0)
(8.39971 0.0421971 0)
(8.39424 0.0436439 0)
(8.39058 0.0489424 0)
(8.33365 0.0145718 0)
(8.32975 0.0477274 0)
(8.32733 0.054022 0)
(8.32863 0.0466215 0)
(8.33446 0.0411449 0)
(8.34192 0.0386676 0)
(8.34934 0.0378865 0)
(8.35647 0.0378745 0)
(8.36334 0.0381312 0)
(8.36993 0.0384371 0)
(8.3762 0.0386947 0)
(8.38214 0.0388637 0)
(8.38771 0.0389358 0)
(8.39291 0.0389158 0)
(8.39772 0.0388139 0)
(8.40214 0.0386431 0)
(8.40616 0.0384182 0)
(8.4098 0.0381549 0)
(8.41306 0.0378686 0)
(8.41595 0.0375755 0)
(8.41849 0.037292 0)
(8.42068 0.0370355 0)
(8.42254 0.0368257 0)
(8.42407 0.0366856 0)
(8.42528 0.0366445 0)
(8.42619 0.0367393 0)
(8.4268 0.037023 0)
(8.42712 0.0375595 0)
(8.42725 0.0384576 0)
(8.42719 0.039789 0)
(8.4274 0.041774 0)
(8.42777 0.0441212 0)
(8.42976 0.0474291 0)
(8.3302 -0.00530064 0)
(8.32721 -0.00747852 0)
(8.33133 -0.00239222 0)
(8.33596 0.00812282 0)
(8.33998 0.0173245 0)
(8.34408 0.0235717 0)
(8.34841 0.0277901 0)
(8.35296 0.0307924 0)
(8.35766 0.0329805 0)
(8.36239 0.0345874 0)
(8.36707 0.0357594 0)
(8.37163 0.0365921 0)
(8.37606 0.0371534 0)
(8.38031 0.0374967 0)
(8.38437 0.0376663 0)
(8.38823 0.0377004 0)
(8.39188 0.0376321 0)
(8.39532 0.0374904 0)
(8.39855 0.0373012 0)
(8.40157 0.0370883 0)
(8.40437 0.036874 0)
(8.40697 0.0366805 0)
(8.40936 0.036531 0)
(8.41154 0.0364509 0)
(8.41352 0.0364707 0)
(8.4153 0.0366258 0)
(8.41689 0.0369641 0)
(8.41832 0.0375348 0)
(8.41965 0.0384196 0)
(8.42093 0.0396324 0)
(8.42241 0.0413206 0)
(8.4241 0.0430766 0)
(8.42644 0.0453011 0)
(8.33238 0.00230126 0)
(8.33116 0.0133497 0)
(8.33275 0.0204642 0)
(8.33541 0.0238901 0)
(8.3388 0.0260802 0)
(8.34278 0.0279276 0)
(8.34692 0.0296475 0)
(8.35106 0.0311897 0)
(8.35518 0.0324747 0)
(8.35926 0.0334926 0)
(8.36327 0.0342671 0)
(8.36719 0.0348273 0)
(8.37101 0.0352039 0)
(8.37471 0.0354276 0)
(8.37827 0.0355278 0)
(8.3817 0.035531 0)
(8.38499 0.0354617 0)
(8.38813 0.0353421 0)
(8.39112 0.0351931 0)
(8.39397 0.0350345 0)
(8.39666 0.0348858 0)
(8.39921 0.0347671 0)
(8.40161 0.0346998 0)
(8.40386 0.0347077 0)
(8.40597 0.0348187 0)
(8.40795 0.0350647 0)
(8.40981 0.0354854 0)
(8.41158 0.0361204 0)
(8.41331 0.037022 0)
(8.41505 0.0382003 0)
(8.41696 0.0397032 0)
(8.41905 0.0413278 0)
(8.4215 0.0431576 0)
(8.33232 0.00089254 0)
(8.3315 0.00584424 0)
(8.33337 0.0108584 0)
(8.33636 0.0156973 0)
(8.3397 0.0201243 0)
(8.34329 0.0236805 0)
(8.34694 0.0264135 0)
(8.35061 0.0285192 0)
(8.35428 0.0301353 0)
(8.35793 0.0313654 0)
(8.36153 0.032288 0)
(8.36506 0.0329607 0)
(8.3685 0.0334285 0)
(8.37185 0.03373 0)
(8.37509 0.0338981 0)
(8.37822 0.033962 0)
(8.38124 0.0339478 0)
(8.38414 0.0338791 0)
(8.38692 0.0337779 0)
(8.38959 0.033665 0)
(8.39215 0.0335606 0)
(8.39459 0.0334852 0)
(8.39692 0.0334602 0)
(8.39914 0.033509 0)
(8.40126 0.0336576 0)
(8.40329 0.0339345 0)
(8.40524 0.0343723 0)
(8.40715 0.0350015 0)
(8.40905 0.035856 0)
(8.411 0.0369384 0)
(8.41308 0.0382624 0)
(8.41532 0.0397068 0)
(8.41775 0.0412778 0)
(8.33272 0.00173011 0)
(8.33254 0.00735319 0)
(8.33413 0.0126908 0)
(8.33667 0.0170028 0)
(8.33964 0.0205041 0)
(8.34295 0.0232832 0)
(8.34642 0.0255048 0)
(8.34992 0.0273033 0)
(8.35341 0.02874 0)
(8.35687 0.0298626 0)
(8.36026 0.0307188 0)
(8.36359 0.0313507 0)
(8.36682 0.0317953 0)
(8.36997 0.032086 0)
(8.37302 0.0322528 0)
(8.37597 0.032323 0)
(8.37882 0.0323209 0)
(8.38157 0.0322693 0)
(8.38422 0.0321889 0)
(8.38677 0.0320999 0)
(8.38922 0.0320217 0)
(8.39158 0.031974 0)
(8.39386 0.0319771 0)
(8.39605 0.0320527 0)
(8.39816 0.0322242 0)
(8.40022 0.0325162 0)
(8.40223 0.032955 0)
(8.40423 0.0335637 0)
(8.40624 0.0343641 0)
(8.40831 0.0353572 0)
(8.4105 0.0365425 0)
(8.41282 0.0378548 0)
(8.41527 0.039284 0)
(8.33284 0.00181302 0)
(8.33292 0.00653664 0)
(8.33439 0.0111033 0)
(8.33676 0.0150491 0)
(8.33956 0.0184752 0)
(8.34268 0.0213345 0)
(8.34595 0.023655 0)
(8.34927 0.0255212 0)
(8.3526 0.0270002 0)
(8.3559 0.0281517 0)
(8.35916 0.029031 0)
(8.36234 0.0296842 0)
(8.36544 0.0301504 0)
(8.36846 0.0304636 0)
(8.3714 0.0306539 0)
(8.37424 0.0307481 0)
(8.37698 0.0307707 0)
(8.37964 0.0307436 0)
(8.38221 0.0306877 0)
(8.38469 0.0306224 0)
(8.38708 0.0305669 0)
(8.3894 0.0305402 0)
(8.39165 0.0305616 0)
(8.39383 0.0306511 0)
(8.39596 0.0308295 0)
(8.39805 0.031118 0)
(8.40011 0.0315375 0)
(8.40218 0.0321059 0)
(8.40429 0.0328375 0)
(8.40646 0.0337331 0)
(8.40873 0.034789 0)
(8.41112 0.0359716 0)
(8.41362 0.0372716 0)
(8.33294 0.00185792 0)
(8.33321 0.00622278 0)
(8.33459 0.0104921 0)
(8.33675 0.0142199 0)
(8.33934 0.0174235 0)
(8.34225 0.0200928 0)
(8.34533 0.0222696 0)
(8.3485 0.0240345 0)
(8.35169 0.0254493 0)
(8.35488 0.0265638 0)
(8.35802 0.0274239 0)
(8.3611 0.02807 0)
(8.36412 0.0285374 0)
(8.36705 0.0288574 0)
(8.36991 0.0290585 0)
(8.37268 0.0291662 0)
(8.37536 0.0292038 0)
(8.37797 0.0291927 0)
(8.38049 0.0291527 0)
(8.38293 0.0291029 0)
(8.38531 0.0290614 0)
(8.38761 0.0290462 0)
(8.38986 0.0290754 0)
(8.39205 0.0291671 0)
(8.39421 0.0293395 0)
(8.39634 0.0296105 0)
(8.39847 0.029997 0)
(8.40062 0.0305126 0)
(8.40281 0.0311673 0)
(8.40508 0.0319623 0)
(8.40743 0.0328946 0)
(8.4099 0.0339483 0)
(8.41248 0.035119 0)
(8.33299 0.00182434 0)
(8.33337 0.00580534 0)
(8.33465 0.00968046 0)
(8.33664 0.0131159 0)
(8.33905 0.0161041 0)
(8.34178 0.0186383 0)
(8.34469 0.0207373 0)
(8.34771 0.0224547 0)
(8.35076 0.0238403 0)
(8.35382 0.0249382 0)
(8.35686 0.0257907 0)
(8.35985 0.0264361 0)
(8.36279 0.0269081 0)
(8.36566 0.0272368 0)
(8.36845 0.0274493 0)
(8.37117 0.0275702 0)
(8.37382 0.0276219 0)
(8.37638 0.0276247 0)
(8.37888 0.027598 0)
(8.38131 0.0275597 0)
(8.38368 0.0275271 0)
(8.38599 0.0275172 0)
(8.38825 0.0275464 0)
(8.39048 0.0276309 0)
(8.39268 0.0277868 0)
(8.39487 0.0280288 0)
(8.39707 0.0283706 0)
(8.39929 0.0288228 0)
(8.40157 0.0293926 0)
(8.40392 0.0300815 0)
(8.40637 0.0308881 0)
(8.40893 0.0318054 0)
(8.4116 0.0328321 0)
(8.33301 0.00174948 0)
(8.33345 0.00541043 0)
(8.33466 0.0089625 0)
(8.33649 0.0121514 0)
(8.33874 0.0149428 0)
(8.34129 0.0173281 0)
(8.34403 0.0193192 0)
(8.3469 0.020958 0)
(8.34982 0.0222881 0)
(8.35276 0.0233493 0)
(8.3557 0.0241791 0)
(8.3586 0.0248122 0)
(8.36146 0.0252795 0)
(8.36426 0.025609 0)
(8.367 0.0258261 0)
(8.36968 0.025954 0)
(8.37229 0.0260137 0)
(8.37483 0.0260246 0)
(8.37732 0.026005 0)
(8.37974 0.0259717 0)
(8.38211 0.025941 0)
(8.38443 0.0259285 0)
(8.38672 0.025949 0)
(8.38898 0.0260169 0)
(8.39123 0.0261459 0)
(8.39348 0.0263484 0)
(8.39575 0.0266352 0)
(8.39805 0.0270145 0)
(8.40041 0.0274917 0)
(8.40285 0.0280684 0)
(8.40539 0.0287438 0)
(8.40804 0.0295153 0)
(8.4108 0.0303824 0)
(8.33303 0.00165036 0)
(8.33349 0.00501562 0)
(8.33462 0.00826284 0)
(8.33632 0.0112035 0)
(8.33841 0.0137947 0)
(8.3408 0.0160274 0)
(8.34339 0.0179083 0)
(8.34611 0.0194679 0)
(8.3489 0.0207417 0)
(8.35173 0.0217639 0)
(8.35456 0.0225677 0)
(8.35737 0.0231844 0)
(8.36015 0.0236425 0)
(8.36289 0.0239682 0)
(8.36558 0.0241851 0)
(8.36821 0.0243149 0)
(8.37078 0.0243775 0)
(8.37331 0.0243912 0)
(8.37577 0.024373 0)
(8.37819 0.0243386 0)
(8.38057 0.0243031 0)
(8.38291 0.0242805 0)
(8.38522 0.0242842 0)
(8.38752 0.0243267 0)
(8.38981 0.0244197 0)
(8.39212 0.0245731 0)
(8.39445 0.0247957 0)
(8.39682 0.0250935 0)
(8.39926 0.0254706 0)
(8.40177 0.025928 0)
(8.40439 0.0264653 0)
(8.40712 0.027081 0)
(8.40998 0.027774 0)
(8.33304 0.00153859 0)
(8.33349 0.00462847 0)
(8.33456 0.00759625 0)
(8.33614 0.0103023 0)
(8.33809 0.0127011 0)
(8.34033 0.0147814 0)
(8.34277 0.0165464 0)
(8.34536 0.0180183 0)
(8.34802 0.0192265 0)
(8.35073 0.0202004 0)
(8.35346 0.0209696 0)
(8.35619 0.0215621 0)
(8.35889 0.0220039 0)
(8.36156 0.022319 0)
(8.36419 0.0225293 0)
(8.36678 0.0226549 0)
(8.36932 0.0227143 0)
(8.37181 0.0227245 0)
(8.37426 0.0227011 0)
(8.37667 0.0226588 0)
(8.37905 0.0226112 0)
(8.3814 0.0225709 0)
(8.38374 0.0225496 0)
(8.38607 0.0225582 0)
(8.3884 0.0226063 0)
(8.39075 0.0227019 0)
(8.39313 0.0228517 0)
(8.39557 0.0230601 0)
(8.39807 0.0233299 0)
(8.40065 0.0236613 0)
(8.40333 0.0240534 0)
(8.40613 0.0245044 0)
(8.40906 0.025012 0)
(8.33304 0.00142115 0)
(8.33349 0.00424973 0)
(8.33449 0.00695604 0)
(8.33596 0.00943549 0)
(8.33778 0.0116449 0)
(8.33988 0.0135715 0)
(8.34219 0.0152161 0)
(8.34464 0.016595 0)
(8.34719 0.0177318 0)
(8.34979 0.0186517 0)
(8.35242 0.0193805 0)
(8.35505 0.0199429 0)
(8.35768 0.0203626 0)
(8.36028 0.0206613 0)
(8.36285 0.0208591 0)
(8.36539 0.0209747 0)
(8.3679 0.0210249 0)
(8.37036 0.0210255 0)
(8.37279 0.0209907 0)
(8.3752 0.020934 0)
(8.37757 0.0208673 0)
(8.37993 0.0208021 0)
(8.38228 0.0207483 0)
(8.38463 0.0207151 0)
(8.38699 0.0207103 0)
(8.38938 0.0207403 0)
(8.3918 0.0208098 0)
(8.39428 0.020922 0)
(8.39683 0.0210781 0)
(8.39947 0.0212775 0)
(8.4022 0.0215185 0)
(8.40505 0.0217981 0)
(8.40802 0.0221127 0)
(8.33304 0.0013022 0)
(8.33347 0.00388077 0)
(8.33441 0.00634085 0)
(8.33579 0.0086026 0)
(8.33749 0.010627 0)
(8.33947 0.0124003 0)
(8.34165 0.0139216 0)
(8.34398 0.0152026 0)
(8.34641 0.0162622 0)
(8.3489 0.0171218 0)
(8.35144 0.0178037 0)
(8.35398 0.0183297 0)
(8.35653 0.018721 0)
(8.35907 0.0189972 0)
(8.36158 0.0191767 0)
(8.36407 0.0192763 0)
(8.36653 0.0193114 0)
(8.36897 0.0192963 0)
(8.37138 0.019244 0)
(8.37376 0.0191663 0)
(8.37613 0.0190741 0)
(8.37849 0.0189771 0)
(8.38085 0.0188838 0)
(8.38321 0.0188017 0)
(8.38559 0.0187371 0)
(8.388 0.0186947 0)
(8.39046 0.0186777 0)
(8.39297 0.0186879 0)
(8.39555 0.0187252 0)
(8.39821 0.0187881 0)
(8.40098 0.0188737 0)
(8.40386 0.018978 0)
(8.40685 0.0190961 0)
(8.33304 0.00118412 0)
(8.33345 0.00352221 0)
(8.33434 0.00574835 0)
(8.33562 0.00780006 0)
(8.33722 0.00964306 0)
(8.33908 0.0112634 0)
(8.34115 0.0126589 0)
(8.34336 0.0138378 0)
(8.34568 0.0148152 0)
(8.34807 0.0156089 0)
(8.35051 0.0162381 0)
(8.35298 0.016722 0)
(8.35545 0.0170792 0)
(8.35792 0.0173274 0)
(8.36037 0.0174828 0)
(8.36281 0.0175607 0)
(8.36523 0.0175751 0)
(8.36764 0.0175387 0)
(8.37002 0.017463 0)
(8.37238 0.0173586 0)
(8.37474 0.0172347 0)
(8.37709 0.0170998 0)
(8.37945 0.0169609 0)
(8.38182 0.0168239 0)
(8.38421 0.0166937 0)
(8.38663 0.0165734 0)
(8.3891 0.0164651 0)
(8.39162 0.016369 0)
(8.39422 0.016284 0)
(8.3969 0.0162077 0)
(8.39967 0.0161361 0)
(8.40255 0.0160641 0)
(8.40555 0.0159858 0)
(8.33304 0.0010682 0)
(8.33342 0.0031742 0)
(8.33426 0.00517667 0)
(8.33547 0.00702533 0)
(8.33697 0.00869055 0)
(8.33873 0.0101587 0)
(8.34069 0.0114265 0)
(8.34279 0.0124999 0)
(8.34501 0.0133905 0)
(8.3473 0.0141133 0)
(8.34965 0.0146845 0)
(8.35204 0.0151208 0)
(8.35443 0.0154384 0)
(8.35684 0.015653 0)
(8.35923 0.015779 0)
(8.36162 0.0158299 0)
(8.364 0.0158182 0)
(8.36636 0.0157551 0)
(8.36872 0.0156507 0)
(8.37106 0.0155141 0)
(8.3734 0.0153533 0)
(8.37573 0.0151752 0)
(8.37808 0.0149854 0)
(8.38044 0.0147887 0)
(8.38283 0.0145882 0)
(8.38525 0.0143861 0)
(8.38772 0.0141829 0)
(8.39025 0.013978 0)
(8.39284 0.0137692 0)
(8.39551 0.0135531 0)
(8.39827 0.0133249 0)
(8.40113 0.0130784 0)
(8.4041 0.0128075 0)
(8.33303 0.000955051 0)
(8.3334 0.00283659 0)
(8.33419 0.00462398 0)
(8.33533 0.00627578 0)
(8.33675 0.0077665 0)
(8.3384 0.00908317 0)
(8.34026 0.0102219 0)
(8.34227 0.0111866 0)
(8.34439 0.0119865 0)
(8.34659 0.0126337 0)
(8.34886 0.013142 0)
(8.35116 0.0135255 0)
(8.35348 0.0137984 0)
(8.35582 0.0139742 0)
(8.35816 0.0140658 0)
(8.3605 0.0140847 0)
(8.36283 0.014042 0)
(8.36515 0.0139473 0)
(8.36747 0.0138094 0)
(8.36979 0.013636 0)
(8.3721 0.0134337 0)
(8.37442 0.013208 0)
(8.37674 0.0129633 0)
(8.37909 0.012703 0)
(8.38147 0.0124292 0)
(8.38388 0.0121426 0)
(8.38633 0.0118429 0)
(8.38884 0.0115284 0)
(8.39141 0.0111961 0)
(8.39405 0.0108418 0)
(8.39678 0.01046 0)
(8.3996 0.010044 0)
(8.40252 0.00958727 0)
(8.33303 0.000844903 0)
(8.33338 0.00250892 0)
(8.33412 0.00408858 0)
(8.33519 0.00554899 0)
(8.33654 0.00686826 0)
(8.33811 0.00803434 0)
(8.33987 0.00904299 0)
(8.34178 0.0098966 0)
(8.34381 0.0106023 0)
(8.34593 0.0111698 0)
(8.34812 0.0116107 0)
(8.35034 0.011937 0)
(8.3526 0.0121605 0)
(8.35487 0.012293 0)
(8.35716 0.0123455 0)
(8.35944 0.012328 0)
(8.36172 0.0122499 0)
(8.36401 0.0121194 0)
(8.36629 0.0119438 0)
(8.36856 0.0117296 0)
(8.37085 0.0114821 0)
(8.37314 0.0112054 0)
(8.37544 0.0109029 0)
(8.37776 0.0105766 0)
(8.38011 0.0102275 0)
(8.38249 0.00985547 0)
(8.38492 0.0094592 0)
(8.38739 0.00903615 0)
(8.38993 0.00858265 0)
(8.39253 0.00809392 0)
(8.3952 0.00756402 0)
(8.39796 0.00698583 0)
(8.40081 0.00635303 0)
(8.33303 0.000737742 0)
(8.33336 0.00219059 0)
(8.33406 0.00356881 0)
(8.33507 0.00484255 0)
(8.33634 0.00599301 0)
(8.33784 0.00700917 0)
(8.33952 0.00788665 0)
(8.34134 0.00862675 0)
(8.34329 0.00923487 0)
(8.34533 0.00971891 0)
(8.34743 0.0100882 0)
(8.34959 0.0103527 0)
(8.35178 0.0105225 0)
(8.35399 0.0106073 0)
(8.35621 0.0106165 0)
(8.35844 0.0105585 0)
(8.36068 0.0104411 0)
(8.36292 0.0102711 0)
(8.36515 0.0100546 0)
(8.3674 0.00979661 0)
(8.36964 0.0095011 0)
(8.3719 0.00917122 0)
(8.37416 0.00880906 0)
(8.37645 0.00841569 0)
(8.37876 0.00799113 0)
(8.38111 0.00753434 0)
(8.38349 0.00704323 0)
(8.38592 0.00651463 0)
(8.3884 0.00594435 0)
(8.39094 0.00532722 0)
(8.39354 0.00465705 0)
(8.39622 0.00392661 0)
(8.39897 0.0031299 0)
(8.33303 0.000633428 0)
(8.33334 0.0018809 0)
(8.33401 0.00306318 0)
(8.33496 0.00415453 0)
(8.33617 0.00513881 0)
(8.33759 0.00600614 0)
(8.33919 0.00675217 0)
(8.34094 0.0073774 0)
(8.34281 0.00788578 0)
(8.34477 0.0082835 0)
(8.34681 0.00857803 0)
(8.34889 0.00877746 0)
(8.35102 0.00889004 0)
(8.35317 0.00892376 0)
(8.35533 0.00888622 0)
(8.35751 0.00878442 0)
(8.3597 0.00862463 0)
(8.36189 0.00841232 0)
(8.36408 0.0081522 0)
(8.36628 0.00784806 0)
(8.36848 0.00750278 0)
(8.37069 0.00711839 0)
(8.37292 0.00669596 0)
(8.37516 0.00623563 0)
(8.37743 0.00573659 0)
(8.37972 0.00519707 0)
(8.38205 0.00461435 0)
(8.38441 0.00398479 0)
(8.38683 0.00330384 0)
(8.38929 0.00256611 0)
(8.3918 0.00176538 0)
(8.39438 0.000894464 0)
(8.39701 -5.21049e-05 0)
(8.33303 0.000531747 0)
(8.33332 0.00157898 0)
(8.33395 0.00256982 0)
(8.33486 0.0034818 0)
(8.33601 0.00430114 0)
(8.33737 0.00501916 0)
(8.3389 0.00563183 0)
(8.34058 0.00613922 0)
(8.34238 0.00654429 0)
(8.34427 0.0068518 0)
(8.34623 0.0070676 0)
(8.34825 0.00719806 0)
(8.35031 0.00724972 0)
(8.35241 0.00722882 0)
(8.35452 0.00714147 0)
(8.35664 0.00699317 0)
(8.35877 0.00678873 0)
(8.36091 0.00653221 0)
(8.36306 0.00622712 0)
(8.36521 0.00587603 0)
(8.36736 0.00548074 0)
(8.36952 0.00504225 0)
(8.3717 0.00456072 0)
(8.37389 0.0040355 0)
(8.3761 0.00346505 0)
(8.37833 0.00284699 0)
(8.38059 0.00217813 0)
(8.38288 0.00145448 0)
(8.38521 0.0006713 0)
(8.38758 -0.000176863 0)
(8.38999 -0.00109613 0)
(8.39245 -0.00209341 0)
(8.39496 -0.00317357 0)
(8.33303 0.000432498 0)
(8.33331 0.00128443 0)
(8.33391 0.00208855 0)
(8.33477 0.00282545 0)
(8.33587 0.0034836 0)
(8.33716 0.00405536 0)
(8.33863 0.00453682 0)
(8.34025 0.00492756 0)
(8.34198 0.00522958 0)
(8.34381 0.00544637 0)
(8.34571 0.00558234 0)
(8.34767 0.00564228 0)
(8.34967 0.00563123 0)
(8.3517 0.00555373 0)
(8.35376 0.00541436 0)
(8.35583 0.00521726 0)
(8.35791 0.00496597 0)
(8.36 0.0046634 0)
(8.36209 0.00431193 0)
(8.36418 0.00391289 0)
(8.36629 0.00346714 0)
(8.36839 0.00297497 0)
(8.37051 0.00243556 0)
(8.37264 0.00184759 0)
(8.37478 0.00120899 0)
(8.37694 0.000516913 0)
(8.37912 -0.000232181 0)
(8.38133 -0.00104249 0)
(8.38356 -0.00191884 0)
(8.38582 -0.0028666 0)
(8.38812 -0.00389166 0)
(8.39045 -0.00500057 0)
(8.39281 -0.00619753 0)
(8.33303 0.000335322 0)
(8.33329 0.000995175 0)
(8.33386 0.0016136 0)
(8.33469 0.00217338 0)
(8.33574 0.00266556 0)
(8.33698 0.00308452 0)
(8.3384 0.00342759 0)
(8.33995 0.00369467 0)
(8.34163 0.00388724 0)
(8.34339 0.00400774 0)
(8.34524 0.00405921 0)
(8.34714 0.00404491 0)
(8.34908 0.00396808 0)
(8.35106 0.00383183 0)
(8.35306 0.00363986 0)
(8.35508 0.00339445 0)
(8.3571 0.00309745 0)
(8.35914 0.00274999 0)
(8.36117 0.00235459 0)
(8.36321 0.00191095 0)
(8.36526 0.00141873 0)
(8.3673 0.000877271 0)
(8.36935 0.000285465 0)
(8.37141 -0.00035875 0)
(8.37348 -0.00105801 0)
(8.37556 -0.0018155 0)
(8.37765 -0.00263494 0)
(8.37976 -0.00352065 0)
(8.38188 -0.00447739 0)
(8.38403 -0.00551036 0)
(8.38619 -0.0066251 0)
(8.38838 -0.00782769 0)
(8.39059 -0.00912163 0)
(8.33302 0.000240599 0)
(8.33328 0.00071551 0)
(8.33382 0.00115836 0)
(8.33461 0.00155445 0)
(8.33561 0.00189582 0)
(8.33681 0.00217601 0)
(8.33817 0.00239219 0)
(8.33968 0.00254429 0)
(8.3413 0.00263342 0)
(8.34302 0.00266123 0)
(8.34481 0.00262994 0)
(8.34666 0.00254174 0)
(8.34855 0.00239905 0)
(8.35048 0.00220123 0)
(8.35243 0.00195202 0)
(8.35439 0.00165354 0)
(8.35636 0.00130656 0)
(8.35834 0.000912132 0)
(8.36032 0.000468744 0)
(8.3623 -2.29377e-05 0)
(8.36428 -0.000563516 0)
(8.36626 -0.00115471 0)
(8.36824 -0.00179833 0)
(8.37022 -0.00249691 0)
(8.37221 -0.00325347 0)
(8.3742 -0.00407145 0)
(8.37619 -0.00495474 0)
(8.37819 -0.00590763 0)
(8.3802 -0.00693479 0)
(8.38222 -0.00804116 0)
(8.38424 -0.0092319 0)
(8.38628 -0.0105126 0)
(8.38832 -0.0118862 0)
(8.33302 0.000145738 0)
(8.33327 0.00042775 0)
(8.33379 0.000674768 0)
(8.33456 0.00087584 0)
(8.33552 0.00103322 0)
(8.33668 0.00114505 0)
(8.338 0.00120992 0)
(8.33946 0.00122815 0)
(8.34103 0.00120038 0)
(8.3427 0.00112709 0)
(8.34444 0.00100841 0)
(8.34624 0.00084484 0)
(8.34808 0.000636382 0)
(8.34995 0.000386106 0)
(8.35185 9.12492e-05 0)
(8.35376 -0.00024892 0)
(8.35568 -0.000634377 0)
(8.3576 -0.00106499 0)
(8.35952 -0.00154339 0)
(8.36143 -0.00206974 0)
(8.36335 -0.00264543 0)
(8.36526 -0.00327267 0)
(8.36716 -0.00395412 0)
(8.36906 -0.00469256 0)
(8.37096 -0.0054912 0)
(8.37285 -0.00635364 0)
(8.37474 -0.0072838 0)
(8.37663 -0.00828591 0)
(8.37851 -0.00936439 0)
(8.38039 -0.0105239 0)
(8.38227 -0.0117691 0)
(8.38415 -0.013105 0)
(8.38602 -0.0145338 0)
(8.33302 6.1325e-05 0)
(8.33324 0.000190139 0)
(8.33372 0.000304646 0)
(8.33445 0.00038677 0)
(8.33538 0.000423409 0)
(8.33651 0.000415093 0)
(8.33779 0.000364207 0)
(8.33922 0.000272023 0)
(8.34076 0.000139713 0)
(8.3424 -3.1664e-05 0)
(8.3441 -0.00024163 0)
(8.34586 -0.000489716 0)
(8.34767 -0.000776213 0)
(8.3495 -0.00109838 0)
(8.35135 -0.00145953 0)
(8.35321 -0.00186118 0)
(8.35508 -0.00230389 0)
(8.35694 -0.00278939 0)
(8.3588 -0.00331798 0)
(8.36066 -0.00389236 0)
(8.3625 -0.00451502 0)
(8.36434 -0.00518844 0)
(8.36616 -0.00591543 0)
(8.36798 -0.00669916 0)
(8.36978 -0.00754309 0)
(8.37157 -0.00845097 0)
(8.37334 -0.00942674 0)
(8.37511 -0.0104745 0)
(8.37686 -0.0115985 0)
(8.3786 -0.0128031 0)
(8.38033 -0.0140926 0)
(8.38204 -0.0154716 0)
(8.38373 -0.0169417 0)
(8.33303 -4.40732e-05 0)
(8.33327 -0.000152302 0)
(8.33376 -0.000300069 0)
(8.33447 -0.000485433 0)
(8.33536 -0.000699795 0)
(8.33644 -0.000929342 0)
(8.33769 -0.00116652 0)
(8.33907 -0.00141036 0)
(8.34057 -0.00166293 0)
(8.34216 -0.00192766 0)
(8.34382 -0.00220837 0)
(8.34554 -0.00250917 0)
(8.34729 -0.00283369 0)
(8.34908 -0.00318806 0)
(8.35088 -0.00357374 0)
(8.35269 -0.0039931 0)
(8.3545 -0.00444909 0)
(8.35631 -0.00494464 0)
(8.35811 -0.00548243 0)
(8.3599 -0.0060655 0)
(8.36168 -0.0066967 0)
(8.36344 -0.00737897 0)
(8.36518 -0.00811553 0)
(8.3669 -0.00890975 0)
(8.36861 -0.00976512 0)
(8.37029 -0.0106853 0)
(8.37196 -0.011674 0)
(8.3736 -0.0127352 0)
(8.37522 -0.0138726 0)
(8.37681 -0.0150902 0)
(8.37838 -0.0163918 0)
(8.37993 -0.0177813 0)
(8.38144 -0.0192598 0)
(8.333 -8.69891e-05 0)
(8.33316 -0.000221678 0)
(8.33356 -0.000362124 0)
(8.33421 -0.00054386 0)
(8.3351 -0.000773143 0)
(8.33619 -0.00104914 0)
(8.33745 -0.00136494 0)
(8.33885 -0.0017117 0)
(8.34036 -0.00208261 0)
(8.34195 -0.00247349 0)
(8.34361 -0.00288241 0)
(8.34532 -0.0033092 0)
(8.34705 -0.00375493 0)
(8.34881 -0.00422141 0)
(8.35058 -0.00471039 0)
(8.35235 -0.00522482 0)
(8.35411 -0.00576801 0)
(8.35586 -0.00634315 0)
(8.3576 -0.00695339 0)
(8.35932 -0.00760215 0)
(8.36102 -0.00829294 0)
(8.3627 -0.00902935 0)
(8.36436 -0.00981505 0)
(8.36599 -0.0106538 0)
(8.36759 -0.0115494 0)
(8.36916 -0.0125057 0)
(8.3707 -0.0135267 0)
(8.37222 -0.014616 0)
(8.3737 -0.0157777 0)
(8.37514 -0.0170153 0)
(8.37655 -0.0183324 0)
(8.37793 -0.0197327 0)
(8.37926 -0.021217 0)
(8.33306 -0.000292573 0)
(8.33335 -0.000945966 0)
(8.33382 -0.00167187 0)
(8.33446 -0.00240049 0)
(8.33528 -0.00307677 0)
(8.33628 -0.00368263 0)
(8.33745 -0.00422026 0)
(8.33876 -0.00470046 0)
(8.3402 -0.00513718 0)
(8.34173 -0.00554452 0)
(8.34333 -0.00593541 0)
(8.34499 -0.00632126 0)
(8.34668 -0.00671168 0)
(8.3484 -0.00711497 0)
(8.35012 -0.00753791 0)
(8.35185 -0.00798612 0)
(8.35357 -0.00846449 0)
(8.35527 -0.00897733 0)
(8.35696 -0.00952856 0)
(8.35862 -0.0101219 0)
(8.36026 -0.0107607 0)
(8.36187 -0.0114486 0)
(8.36344 -0.0121888 0)
(8.36499 -0.0129846 0)
(8.36649 -0.0138395 0)
(8.36796 -0.0147566 0)
(8.3694 -0.0157394 0)
(8.37079 -0.016791 0)
(8.37214 -0.0179145 0)
(8.37344 -0.0191131 0)
(8.3747 -0.0203895 0)
(8.37591 -0.0217468 0)
(8.37707 -0.0231852 0)
(8.33294 -4.31442e-05 0)
(8.33286 -4.19176e-05 0)
(8.33309 -0.000109758 0)
(8.33371 -0.000368949 0)
(8.33463 -0.000823791 0)
(8.33579 -0.00141656 0)
(8.33712 -0.00208707 0)
(8.33858 -0.00279312 0)
(8.34013 -0.00350881 0)
(8.34175 -0.00421935 0)
(8.3434 -0.00491765 0)
(8.34509 -0.005602 0)
(8.34679 -0.00627409 0)
(8.34849 -0.00693766 0)
(8.35018 -0.00759745 0)
(8.35187 -0.0082588 0)
(8.35353 -0.0089273 0)
(8.35517 -0.00960855 0)
(8.35679 -0.010308 0)
(8.35838 -0.0110309 0)
(8.35993 -0.0117823 0)
(8.36144 -0.0125671 0)
(8.36292 -0.01339 0)
(8.36436 -0.0142555 0)
(8.36575 -0.0151679 0)
(8.3671 -0.0161314 0)
(8.3684 -0.0171499 0)
(8.36966 -0.0182271 0)
(8.37086 -0.0193666 0)
(8.37201 -0.0205717 0)
(8.37311 -0.0218453 0)
(8.37415 -0.0231906 0)
(8.37514 -0.0246079 0)
(8.33317 -0.000753286 0)
(8.33368 -0.00260367 0)
(8.33408 -0.00452129 0)
(8.33449 -0.00614666 0)
(8.33507 -0.00740902 0)
(8.33589 -0.00836558 0)
(8.33695 -0.00909203 0)
(8.33819 -0.00965333 0)
(8.33959 -0.0101016 0)
(8.3411 -0.0104773 0)
(8.34269 -0.0108115 0)
(8.34433 -0.0111273 0)
(8.346 -0.0114414 0)
(8.34769 -0.0117666 0)
(8.34937 -0.0121118 0)
(8.35105 -0.0124841 0)
(8.35271 -0.0128888 0)
(8.35433 -0.0133301 0)
(8.35593 -0.0138116 0)
(8.35749 -0.0143362 0)
(8.359 -0.0149069 0)
(8.36048 -0.0155262 0)
(8.3619 -0.0161967 0)
(8.36327 -0.0169207 0)
(8.3646 -0.0177009 0)
(8.36586 -0.0185394 0)
(8.36708 -0.0194388 0)
(8.36823 -0.0204011 0)
(8.36932 -0.0214288 0)
(8.37035 -0.0225237 0)
(8.37132 -0.0236877 0)
(8.37222 -0.024923 0)
(8.37305 -0.026229 0)
(8.33263 0.000588051 0)
(8.33174 0.0020356 0)
(8.33175 0.0029562 0)
(8.33262 0.00292156 0)
(8.33392 0.00212271 0)
(8.33541 0.000925857 0)
(8.33701 -0.000431152 0)
(8.33866 -0.00182414 0)
(8.34033 -0.00318664 0)
(8.34201 -0.00448335 0)
(8.34369 -0.00569973 0)
(8.34536 -0.00683445 0)
(8.34701 -0.00789329 0)
(8.34865 -0.00888568 0)
(8.35026 -0.00982256 0)
(8.35184 -0.0107152 0)
(8.35339 -0.0115747 0)
(8.35491 -0.0124114 0)
(8.35638 -0.0132348 0)
(8.35782 -0.0140537 0)
(8.35921 -0.014876 0)
(8.36056 -0.0157091 0)
(8.36185 -0.0165594 0)
(8.36309 -0.017433 0)
(8.36428 -0.0183352 0)
(8.36541 -0.0192712 0)
(8.36648 -0.0202453 0)
(8.36748 -0.0212617 0)
(8.36843 -0.0223241 0)
(8.3693 -0.0234357 0)
(8.37011 -0.0245994 0)
(8.37084 -0.025818 0)
(8.37151 -0.0270919 0)
(8.33358 -0.0019373 0)
(8.33469 -0.00683475 0)
(8.33446 -0.0115746 0)
(8.33377 -0.0147311 0)
(8.33354 -0.0164732 0)
(8.33397 -0.0173958 0)
(8.33488 -0.0178303 0)
(8.33611 -0.0179708 0)
(8.33757 -0.0179524 0)
(8.33917 -0.0178633 0)
(8.34087 -0.0177582 0)
(8.34261 -0.0176707 0)
(8.34438 -0.0176207 0)
(8.34614 -0.0176192 0)
(8.34788 -0.0176721 0)
(8.34959 -0.0177821 0)
(8.35127 -0.0179499 0)
(8.35289 -0.0181754 0)
(8.35447 -0.0184581 0)
(8.35599 -0.0187973 0)
(8.35745 -0.0191926 0)
(8.35885 -0.0196434 0)
(8.36019 -0.0201498 0)
(8.36146 -0.0207117 0)
(8.36267 -0.0213294 0)
(8.3638 -0.0220035 0)
(8.36487 -0.0227346 0)
(8.36586 -0.0235232 0)
(8.36677 -0.0243701 0)
(8.36761 -0.0252761 0)
(8.36837 -0.026242 0)
(8.36904 -0.0272686 0)
(8.36964 -0.0283548 0)
(8.33162 0.00370584 0)
(8.32827 0.010281 0)
(8.32842 0.0134628 0)
(8.331 0.0134355 0)
(8.33365 0.0114191 0)
(8.33589 0.00861327 0)
(8.33789 0.00564883 0)
(8.33974 0.00277111 0)
(8.34147 9.1712e-05 0)
(8.34311 -0.00234207 0)
(8.3447 -0.00452544 0)
(8.34624 -0.00647511 0)
(8.34776 -0.00821624 0)
(8.34925 -0.00977664 0)
(8.35072 -0.0111837 0)
(8.35217 -0.0124631 0)
(8.3536 -0.0136376 0)
(8.355 -0.0147276 0)
(8.35638 -0.0157508 0)
(8.35772 -0.0167227 0)
(8.35902 -0.0176565 0)
(8.36027 -0.018564 0)
(8.36148 -0.0194551 0)
(8.36264 -0.0203388 0)
(8.36375 -0.0212227 0)
(8.36479 -0.0221135 0)
(8.36577 -0.0230172 0)
(8.36668 -0.0239388 0)
(8.36752 -0.0248829 0)
(8.36828 -0.0258534 0)
(8.36897 -0.0268536 0)
(8.36958 -0.0278864 0)
(8.37011 -0.0289529 0)
(8.3343 -0.00641641 0)
(8.33463 -0.0206307 0)
(8.33077 -0.0298247 0)
(8.32678 -0.0337721 0)
(8.32488 -0.0346368 0)
(8.32498 -0.0340587 0)
(8.32619 -0.0328493 0)
(8.32797 -0.0314081 0)
(8.33009 -0.0299575 0)
(8.33241 -0.028614 0)
(8.33483 -0.0274298 0)
(8.33729 -0.0264218 0)
(8.33976 -0.0255891 0)
(8.3422 -0.024922 0)
(8.3446 -0.024407 0)
(8.34694 -0.0240291 0)
(8.34922 -0.0237744 0)
(8.35143 -0.0236298 0)
(8.35357 -0.0235839 0)
(8.35563 -0.0236271 0)
(8.3576 -0.023751 0)
(8.3595 -0.0239487 0)
(8.36131 -0.0242148 0)
(8.36302 -0.0245445 0)
(8.36465 -0.0249344 0)
(8.36618 -0.0253815 0)
(8.36762 -0.0258836 0)
(8.36896 -0.0264388 0)
(8.3702 -0.0270459 0)
(8.37134 -0.0277037 0)
(8.37238 -0.0284115 0)
(8.37332 -0.029169 0)
(8.37416 -0.0299742 0)
(8.32884 0.0226044 0)
(8.32235 0.0427984 0)
(8.32669 0.0440428 0)
(8.33333 0.0381013 0)
(8.33788 0.0307655 0)
(8.34077 0.0236376 0)
(8.34311 0.0170269 0)
(8.34534 0.011106 0)
(8.34758 0.00593014 0)
(8.3499 0.001451 0)
(8.35231 -0.00241219 0)
(8.35483 -0.00574191 0)
(8.35742 -0.00861641 0)
(8.36007 -0.0111068 0)
(8.36276 -0.0132752 0)
(8.36545 -0.0151748 0)
(8.36814 -0.0168505 0)
(8.37079 -0.0183405 0)
(8.37341 -0.0196768 0)
(8.37597 -0.0208864 0)
(8.37846 -0.0219922 0)
(8.38087 -0.0230133 0)
(8.3832 -0.0239662 0)
(8.38543 -0.0248647 0)
(8.38756 -0.0257208 0)
(8.38959 -0.0265447 0)
(8.39152 -0.0273451 0)
(8.39333 -0.0281297 0)
(8.39503 -0.028905 0)
(8.39661 -0.0296768 0)
(8.39807 -0.0304501 0)
(8.39942 -0.0312289 0)
(8.40065 -0.0320174 0)
(8.32436 -0.0380193 0)
(8.29387 -0.068287 0)
(8.27218 -0.0716344 0)
(8.26672 -0.0685059 0)
(8.27359 -0.0641228 0)
(8.2862 -0.0592716 0)
(8.30094 -0.0545722 0)
(8.31623 -0.0503813 0)
(8.33125 -0.0467594 0)
(8.34552 -0.0436813 0)
(8.35885 -0.0411021 0)
(8.37117 -0.0389629 0)
(8.3825 -0.0372021 0)
(8.39287 -0.0357634 0)
(8.40234 -0.0345973 0)
(8.41099 -0.0336614 0)
(8.41887 -0.03292 0)
(8.42605 -0.0323434 0)
(8.43259 -0.0319072 0)
(8.43854 -0.0315911 0)
(8.44394 -0.0313788 0)
(8.44884 -0.0312569 0)
(8.45329 -0.0312144 0)
(8.4573 -0.0312425 0)
(8.46093 -0.0313341 0)
(8.46419 -0.0314833 0)
(8.46712 -0.0316852 0)
(8.46973 -0.0319362 0)
(8.47205 -0.0322331 0)
(8.4741 -0.0325732 0)
(8.47589 -0.0329544 0)
(8.47745 -0.0333747 0)
(8.47879 -0.0338312 0)
(8.34002 0.156992 0)
(8.382 0.149005 0)
(8.40251 0.103398 0)
(8.39948 0.0645206 0)
(8.38357 0.0358802 0)
(8.36093 0.0155174 0)
(8.33444 0.00109298 0)
(8.30604 -0.00924377 0)