/*--------------------------------*- C++ -*----------------------------------*\
| =========                 |                                                 |
| \\      /  F ield         | OpenFOAM: The Open Source CFD Toolbox           |
|  \\    /   O peration     | Version:  2.1.1                                 |
|   \\  /    A nd           | Web:      www.OpenFOAM.org                      |
|    \\/     M anipulation  |                                                 |
\*---------------------------------------------------------------------------*/
FoamFile
{
    version     2.0;
    format      ascii;
    class       volScalarField;
    location    "0.19";
    object      epsilon;
}
// * * * * * * * * * * * * * * * * * * * * * * * * * * * * * * * * * * * * * //

dimensions      [0 2 -3 0 0 0 0];

internalField   nonuniform List<scalar> 
6820
(
151.448
203.151
260.735
321.761
383.628
443.723
499.761
550.032
593.48
629.662
658.647
680.874
697.018
707.877
714.276
717.012
716.814
714.325
710.094
704.579
698.159
691.135
683.748
676.185
668.591
661.072
653.704
646.558
639.586
633.198
625.503
625.548
589.94
11.7448
21.4175
29.9444
38.6257
47.5825
56.561
65.3243
73.6712
81.4395
88.5207
94.86
100.45
105.322
109.531
113.149
116.255
118.924
121.23
123.239
125.009
126.587
128.017
129.332
130.56
131.726
132.851
133.955
135.062
136.196
137.43
138.778
140.73
142.891
5.83781
7.51676
9.20651
10.8091
12.3196
13.7471
15.088
16.3388
17.4977
18.5646
19.5413
20.4313
21.2401
21.974
22.6404
23.2468
23.8009
24.3101
24.7813
25.2209
25.6346
26.0275
26.4039
26.7677
27.1221
27.47
27.8137
28.1555
28.4971
28.8413
29.1909
29.5419
29.9467
5.2423
5.56004
6.00442
6.49343
6.98563
7.46179
7.91282
8.33442
8.72492
9.08415
9.41288
9.71245
9.98455
10.2311
10.4541
10.6556
10.8376
11.002
11.1508
11.2856
11.408
11.5196
11.6218
11.7159
11.8028
11.8837
11.9593
12.0303
12.0972
12.1604
12.2194
12.2745
12.3236
5.17349
5.18677
5.26821
5.39775
5.55636
5.72966
5.90776
6.08424
6.25507
6.41781
6.57108
6.71417
6.84685
6.96919
7.08145
7.18405
7.27748
7.3623
7.43909
7.50844
7.57093
7.62713
7.67761
7.72288
7.76344
7.79976
7.83227
7.86137
7.88739
7.91066
7.93141
7.94988
7.96614
5.16878
5.12131
5.09603
5.09482
5.11536
5.15307
5.20299
5.26075
5.32293
5.38693
5.4509
5.51351
5.57384
5.63127
5.68542
5.73606
5.7831
5.82652
5.86639
5.90281
5.93591
5.96587
5.99286
6.01706
6.03866
6.05785
6.07483
6.08977
6.10285
6.11425
6.12413
6.13261
6.13988
5.16887
5.11169
5.06115
5.01963
4.9884
4.96754
4.95615
4.95279
4.95587
4.96386
4.97544
4.98947
5.00505
5.02146
5.03813
5.05465
5.07068
5.08599
5.1004
5.11381
5.12614
5.13736
5.14746
5.15644
5.16434
5.17119
5.17704
5.18194
5.18596
5.18916
5.19161
5.19335
5.19446
5.16902
5.11063
5.05514
5.00339
4.95619
4.91413
4.87746
4.8461
4.81971
4.7978
4.77978
4.76509
4.75315
4.74347
4.7356
4.72915
4.7238
4.71927
4.71534
4.71182
4.70857
4.70546
4.70241
4.69934
4.69619
4.69293
4.68953
4.68598
4.68225
4.67837
4.67432
4.67011
4.66575
5.16904
5.11054
5.05431
5.00049
4.94927
4.9009
4.85558
4.81345
4.77454
4.73879
4.70608
4.6762
4.64893
4.62402
4.60122
4.5803
4.56103
4.54321
4.52666
4.5112
4.4967
4.48302
4.47007
4.45773
4.44594
4.43461
4.4237
4.41316
4.40293
4.393
4.38332
4.37389
4.36466
5.16904
5.11054
5.0542
5.00002
4.94795
4.89803
4.85026
4.8047
4.76136
4.72026
4.68136
4.64462
4.60997
4.57731
4.54654
4.51753
4.49018
4.46435
4.43994
4.41683
4.39491
4.37409
4.35427
4.33537
4.31732
4.30004
4.28348
4.26758
4.25229
4.23756
4.22336
4.20966
4.1964
5.16904
5.11053
5.05418
4.99994
4.94772
4.89747
4.84912
4.80263
4.75798
4.71512
4.67402
4.63466
4.597
4.56097
4.52654
4.49364
4.4622
4.43217
4.40347
4.37603
4.34978
4.32466
4.30061
4.27755
4.25544
4.23421
4.21382
4.19422
4.17536
4.1572
4.1397
4.12283
4.10654
5.16904
5.11053
5.05417
4.99991
4.94767
4.89735
4.84887
4.80217
4.75717
4.71382
4.67207
4.63185
4.59313
4.55586
4.51999
4.48547
4.45226
4.42032
4.38959
4.36002
4.33158
4.3042
4.27785
4.25249
4.22805
4.20451
4.18183
4.15996
4.13886
4.11851
4.09887
4.0799
4.06157
5.16904
5.11052
5.05416
4.99989
4.94764
4.8973
4.8488
4.80205
4.75697
4.7135
4.67156
4.6311
4.59206
4.55438
4.51802
4.48293
4.44906
4.41636
4.3848
4.35433
4.32491
4.2965
4.26907
4.24258
4.21698
4.19225
4.16836
4.14526
4.12294
4.10135
4.08047
4.06028
4.04073
5.16904
5.11052
5.05415
4.99988
4.94762
4.89727
4.84876
4.80199
4.75689
4.71338
4.6714
4.63087
4.59174
4.55395
4.51744
4.48216
4.44807
4.41511
4.38325
4.35244
4.32264
4.29383
4.26594
4.23897
4.21286
4.1876
4.16314
4.13947
4.11654
4.09434
4.07284
4.05201
4.03182
5.16903
5.11051
5.05414
4.99987
4.9476
4.89725
4.84873
4.80195
4.75684
4.71332
4.67131
4.63077
4.59161
4.55378
4.51722
4.48189
4.44773
4.41469
4.38273
4.3518
4.32188
4.29291
4.26486
4.2377
4.2114
4.18592
4.16123
4.13731
4.11412
4.09165
4.06986
4.04874
4.02825
5.16903
5.11051
5.05414
4.99986
4.94758
4.89723
4.8487
4.80191
4.75679
4.71326
4.67125
4.63069
4.59152
4.55367
4.5171
4.48175
4.44756
4.41449
4.3825
4.35154
4.32157
4.29255
4.26444
4.23722
4.21084
4.18528
4.16051
4.13649
4.1132
4.09062
4.06871
4.04746
4.02684
5.16903
5.1105
5.05413
4.99985
4.94757
4.89721
4.84867
4.80188
4.75675
4.71321
4.67119
4.63062
4.59144
4.55359
4.51701
4.48164
4.44744
4.41436
4.38236
4.35138
4.32139
4.29235
4.26422
4.23697
4.21057
4.18497
4.16016
4.13611
4.11278
4.09015
4.0682
4.0469
4.02622
5.16903
5.1105
5.05412
4.99984
4.94756
4.89719
4.84865
4.80185
4.75672
4.71317
4.67114
4.63057
4.59138
4.55351
4.51692
4.48155
4.44734
4.41425
4.38223
4.35124
4.32124
4.29219
4.26405
4.23679
4.21037
4.18477
4.15994
4.13587
4.11252
4.08987
4.0679
4.04657
4.02587
5.16903
5.1105
5.05412
4.99983
4.94755
4.89718
4.84863
4.80182
4.75668
4.71313
4.6711
4.63051
4.59131
4.55345
4.51685
4.48146
4.44725
4.41415
4.38212
4.35113
4.32112
4.29206
4.26391
4.23664
4.21021
4.18459
4.15975
4.13567
4.11231
4.08965
4.06766
4.04632
4.0256
5.16903
5.1105
5.05412
4.99983
4.94754
4.89716
4.84861
4.8018
4.75666
4.7131
4.67106
4.63046
4.59126
4.55338
4.51678
4.48139
4.44716
4.41406
4.38202
4.35102
4.321
4.29193
4.26377
4.23649
4.21006
4.18443
4.15958
4.13549
4.11212
4.08945
4.06745
4.04609
4.02536
5.16903
5.1105
5.05411
4.99982
4.94753
4.89715
4.8486
4.80178
4.75663
4.71307
4.67102
4.63042
4.59121
4.55333
4.51671
4.48132
4.44708
4.41397
4.38193
4.35092
4.32089
4.29181
4.26365
4.23636
4.20991
4.18428
4.15942
4.13532
4.11194
4.08926
4.06725
4.04589
4.02514
5.16903
5.11049
5.05411
4.99981
4.94752
4.89714
4.84858
4.80176
4.75661
4.71304
4.67099
4.63038
4.59117
4.55328
4.51666
4.48125
4.44701
4.41389
4.38184
4.35082
4.32079
4.29171
4.26353
4.23624
4.20978
4.18414
4.15928
4.13516
4.11177
4.08908
4.06706
4.04569
4.02494
5.16903
5.11049
5.05411
4.99981
4.94752
4.89713
4.84857
4.80175
4.75659
4.71301
4.67096
4.63035
4.59113
4.55323
4.5166
4.48119
4.44695
4.41382
4.38177
4.35074
4.3207
4.29161
4.26343
4.23612
4.20966
4.18401
4.15914
4.13502
4.11162
4.08892
4.06689
4.04551
4.02475
5.16903
5.11049
5.05411
4.99981
4.94751
4.89712
4.84856
4.80174
4.75657
4.71299
4.67093
4.63032
4.59109
4.55319
4.51656
4.48114
4.44689
4.41376
4.3817
4.35066
4.32062
4.29152
4.26333
4.23602
4.20955
4.18389
4.15901
4.13488
4.11147
4.08876
4.06673
4.04533
4.02456
5.16903
5.11049
5.0541
4.9998
4.94751
4.89712
4.84855
4.80172
4.75656
4.71297
4.67091
4.63029
4.59106
4.55315
4.51652
4.48109
4.44684
4.4137
4.38163
4.35059
4.32054
4.29143
4.26324
4.23592
4.20944
4.18378
4.15889
4.13475
4.11134
4.08862
4.06657
4.04517
4.0244
5.16903
5.11049
5.0541
4.9998
4.9475
4.89711
4.84854
4.80171
4.75654
4.71296
4.67089
4.63027
4.59103
4.55312
4.51648
4.48106
4.44679
4.41365
4.38158
4.35053
4.32047
4.29136
4.26316
4.23584
4.20935
4.18368
4.15878
4.13464
4.11122
4.08849
4.06644
4.04503
4.02424
5.16903
5.11049
5.0541
4.9998
4.9475
4.89711
4.84854
4.8017
4.75653
4.71294
4.67087
4.63025
4.59101
4.55309
4.51645
4.48102
4.44675
4.4136
4.38152
4.35047
4.32041
4.29129
4.26309
4.23575
4.20927
4.18359
4.15868
4.13453
4.1111
4.08837
4.06631
4.04489
4.0241
5.16903
5.11049
5.0541
4.9998
4.9475
4.89711
4.84853
4.8017
4.75653
4.71294
4.67086
4.63024
4.59099
4.55308
4.51643
4.48099
4.44672
4.41357
4.38149
4.35043
4.32036
4.29124
4.26303
4.23569
4.2092
4.18351
4.1586
4.13444
4.11101
4.08827
4.0662
4.04478
4.02398
5.16903
5.11049
5.0541
4.9998
4.9475
4.8971
4.84853
4.80169
4.75651
4.71292
4.67084
4.63021
4.59097
4.55305
4.5164
4.48096
4.44669
4.41353
4.38145
4.35039
4.32031
4.29119
4.26297
4.23563
4.20913
4.18344
4.15853
4.13436
4.11092
4.08818
4.0661
4.04467
4.02387
5.16903
5.11049
5.0541
4.9998
4.9475
4.89711
4.84854
4.8017
4.75653
4.71294
4.67086
4.63023
4.59099
4.55306
4.51641
4.48097
4.44669
4.41353
4.38144
4.35038
4.3203
4.29117
4.26295
4.23561
4.2091
4.1834
4.15849
4.13432
4.11087
4.08812
4.06604
4.04461
4.02379
5.16903
5.11049
5.0541
4.9998
4.9475
4.8971
4.84853
4.80169
4.75651
4.71292
4.67084
4.63021
4.59096
4.55304
4.51638
4.48095
4.44667
4.41351
4.38142
4.35036
4.32028
4.29115
4.26293
4.23558
4.20908
4.18338
4.15846
4.1343
4.11085
4.0881
4.06602
4.04459
4.02377
5.16903
5.11049
5.0541
4.99981
4.94752
4.89714
4.84859
4.80176
4.7566
4.71301
4.67094
4.63032
4.59107
4.55315
4.5165
4.48106
4.44678
4.41362
4.38153
4.35047
4.3204
4.29127
4.26305
4.23571
4.20921
4.18352
4.15862
4.13446
4.11103
4.08829
4.06622
4.04481
4.02401
5.16903
5.11051
5.05414
4.99985
4.94756
4.89718
4.84861
4.80178
4.75661
4.71303
4.67096
4.63034
4.59111
4.55321
4.51658
4.48117
4.44692
4.4138
4.38175
4.35073
4.3207
4.29163
4.26347
4.23619
4.20976
4.18414
4.15931
4.13523
4.11188
4.08924
4.06727
4.04595
4.02526
5.16903
5.1105
5.05415
4.99992
4.9477
4.89739
4.8489
4.80214
4.75704
4.71353
4.67153
4.63098
4.59184
4.55403
4.51751
4.48223
4.44813
4.41518
4.38331
4.35251
4.32271
4.29389
4.266
4.23901
4.21288
4.18759
4.1631
4.13938
4.1164
4.09414
4.07256
4.05165
4.03137
5.16905
5.11063
5.0544
5.00025
4.94809
4.89785
4.84947
4.80288
4.75802
4.71483
4.67324
4.6332
4.59464
4.55752
4.52176
4.48733
4.45416
4.4222
4.39141
4.36173
4.33313
4.30554
4.27894
4.25328
4.22852
4.20462
4.18154
4.15926
4.13773
4.11692
4.09681
4.07736
4.05855
5.16908
5.11079
5.05488
5.00137
4.95017
4.90121
4.85442
4.80974
4.76713
4.72652
4.68785
4.65104
4.61601
4.58267
4.55094
4.52073
4.49196
4.46454
4.4384
4.41346
4.38965
4.36689
4.34513
4.32431
4.30437
4.28525
4.26691
4.2493
4.23239
4.21612
4.20046
4.18539
4.17086
5.16939
5.11358
5.06201
5.01464
4.9715
4.93251
4.89751
4.86622
4.83833
4.81351
4.79144
4.77181
4.75434
4.73878
4.72489
4.71246
4.7013
4.69125
4.68217
4.67392
4.6664
4.65951
4.65316
4.64728
4.6418
4.63667
4.63183
4.62725
4.62289
4.61872
4.61471
4.61083
4.60706
5.17809
5.16328
5.16953
5.19125
5.22447
5.26617
5.31396
5.36594
5.42071
5.47716
5.53446
5.59195
5.64914
5.70563
5.76113
5.81542
5.86833
5.91977
5.96964
6.01791
6.06454
6.10953
6.15289
6.19464
6.23481
6.27342
6.31053
6.34618
6.3804
6.41326
6.44479
6.47505
6.50411
5.63861
6.43043
7.14585
7.82551
8.49438
9.14647
9.77591
10.3804
10.9596
11.5145
12.0465
12.5572
13.048
13.5203
13.9754
14.4144
14.8383
15.248
15.6441
16.0274
16.3986
16.758
17.1062
17.4438
17.771
18.0883
18.3961
18.6947
18.9845
19.2657
19.5388
19.8039
20.0614
44.7794
48.3124
51.8864
55.4656
59.0311
62.5709
66.0744
69.532
72.9348
76.275
79.5459
82.7416
85.8572
88.8888
91.8331
94.6879
97.4514
100.123
102.701
105.187
107.58
109.882
112.094
114.218
116.254
118.205
120.074
121.862
123.572
125.206
126.766
128.256
129.678
704.338
838.536
943.6
1021.84
1079.36
1117.85
1136.47
1134.99
1115.04
1080.29
1035.52
985.623
934.653
885.422
839.481
797.38
759.023
723.998
691.826
662.085
634.464
608.752
584.806
562.513
541.764
522.438
504.402
487.511
471.618
456.582
442.27
428.561
415.345
402.526
390.012
377.722
365.58
353.516
341.469
329.382
317.211
304.918
292.48
279.882
267.124
254.217
241.18
228.048
214.861
201.671
188.539
175.53
162.718
150.18
137.993
126.237
114.984
104.302
94.2482
84.8687
76.1958
68.2475
61.0272
54.5247
48.7171
43.571
39.0448
35.0907
31.6578
28.694
26.1482
23.9713
22.118
20.5471
19.2218
18.1098
17.1834
16.4188
15.7957
15.2972
14.9092
14.6199
14.4194
14.2994
14.2527
14.2731
14.3548
14.492
14.6791
14.9098
15.1773
15.4736
15.7898
16.1159
16.4406
16.7511
17.0351
17.2752
17.4652
17.5924
148.137
155.641
166.256
181.227
201.301
226.965
258.312
294.735
334.817
376.462
417.183
454.465
486.132
510.657
527.325
536.243
538.184
534.36
526.16
514.935
501.841
487.774
473.358
458.978
444.847
431.054
417.621
404.538
391.778
379.311
367.11
355.143
343.379
331.78
320.31
308.929
297.595
286.27
274.921
263.518
252.04
240.477
228.825
217.094
205.304
193.481
181.664
169.897
158.231
146.722
135.432
124.423
113.761
103.509
93.7302
84.4801
75.8079
67.7522
60.3401
53.5855
47.4888
42.0375
37.2075
32.9646
29.2672
26.0686
23.3194
20.97
18.972
17.2802
15.853
14.6537
13.6497
12.8132
12.1206
11.552
11.0911
10.7244
10.4411
10.2324
10.0913
10.0124
9.99147
10.0252
10.1109
10.2464
10.4297
10.6585
10.9303
11.2418
11.5887
11.9656
12.3655
12.7798
13.1982
13.6086
13.998
14.3519
14.647
14.955
30.3295
30.7593
31.3992
32.4401
34.0505
36.4153
39.6182
43.8557
49.4408
56.6957
65.8953
77.2206
90.7109
106.225
123.423
141.781
160.628
179.212
196.785
212.679
226.374
237.543
246.06
251.979
255.491
256.877
256.456
254.544
251.425
247.339
242.477
236.984
230.969
224.508
217.66
210.467
202.96
195.169
187.117
178.829
170.333
161.659
152.844
143.928
134.958
125.986
117.066
108.255
99.6116
91.1928
83.0549
75.2514
67.8319
60.8405
54.3147
48.2833
42.7652
37.7685
33.2902
29.3166
25.8246
22.7832
20.1556
17.9018
15.9806
14.351
12.9746
11.8157
10.8425
10.0273
9.34592
8.77822
8.30725
7.91905
7.60221
7.34753
7.1477
6.99698
6.89099
6.82649
6.80121
6.81371
6.86325
6.94962
7.07304
7.23398
7.43302
7.67058
7.94672
8.26083
8.61128
8.99517
9.40788
9.84294
10.2917
10.7435
11.1852
11.6053
11.9659
12.407
12.3746
12.4409
12.5234
12.6277
12.7672
12.9629
13.2378
13.6235
14.1349
14.8028
15.6758
16.8135
18.2837
20.1614
22.5259
25.455
29.0173
33.2603
38.1985
43.8022
49.9908
56.6327
63.5517
70.5409
77.3795
83.8519
89.7642
94.9582
99.3181
102.773
105.294
106.889
107.592
107.457
106.55
104.941
102.701
99.9002
96.605
92.8797
88.7869
84.3887
79.7474
74.926
69.9879
64.9958
60.0108
55.0913
50.2911
45.659
41.2376
37.0632
33.1646
29.5633
26.273
23.2993
20.6402
18.2865
16.2226
14.4282
12.8798
11.5519
10.4188
9.45562
8.63905
7.94806
7.36404
6.87086
6.45476
6.10412
5.80929
5.56229
5.35661
5.18699
5.04923
4.94005
4.85697
4.79819
4.76253
4.74935
4.7585
4.79031
4.84552
4.92526
5.03098
5.16443
5.32751
5.52217
5.75022
6.01308
6.31147
6.64503
7.0119
7.40837
7.82841
8.26373
8.70243
9.13634
9.51794
10.0329
7.98255
7.99978
8.01607
8.03162
8.04763
8.06659
8.09212
8.12904
8.18227
8.25433
8.35084
8.47922
8.64846
8.86904
9.15282
9.51296
9.96359
10.5195
11.1954
12.0056
12.9623
14.0752
15.3494
16.7837
18.3691
20.087
21.9087
23.7952
25.6991
27.5663
29.3401
30.9642
32.3867
33.5631
34.4585
35.0491
35.3219
35.2752
34.9169
34.2639
33.3404
32.1772
30.8098
29.277
27.6197
25.8789
24.0943
22.3028
20.5373
18.8259
17.1918
15.6527
14.2215
12.9062
11.7105
10.6342
9.67396
8.82393
8.07644
7.4227
6.85341
6.35926
5.93133
5.56129
5.24161
4.96557
4.72728
4.52167
4.34438
4.19173
4.06064
3.94856
3.8534
3.77352
3.70762
3.65476
3.6143
3.58591
3.56951
3.56533
3.57383
3.59579
3.63225
3.68455
3.75433
3.8435
3.95424
4.08894
4.25009
4.44015
4.66128
4.91506
5.20206
5.52143
5.87023
6.24346
6.63195
7.03137
7.39078
7.91619
6.14668
6.15231
6.15579
6.15739
6.15734
6.15597
6.15378
6.15162
6.15047
6.15119
6.15489
6.16297
6.17705
6.19908
6.23127
6.27611
6.33629
6.41462
6.51397
6.63711
6.78664
6.9648
7.1734
7.41355
7.68556
7.98864
8.32072
8.67823
9.05596
9.44696
9.8426
10.2328
10.6063
10.9512
11.2555
11.5078
11.6982
11.8182
11.8619
11.8262
11.7108
11.5184
11.2545
10.9273
10.5467
10.1238
9.67038
9.1981
8.71773
8.23891
7.76985
7.31717
6.88599
6.47997
6.10151
5.75185
5.4313
5.1394
4.87509
4.63688
4.42299
4.2315
4.06042
3.90779
3.77176
3.65058
3.54267
3.44658
3.36107
3.28503
3.21753
3.15779
3.10518
3.05921
3.01955
2.98597
2.95841
2.93692
2.92173
2.91317
2.91177
2.91823
2.93343
2.95848
2.99471
3.04372
3.10736
3.18774
3.28721
3.40829
3.55354
3.72537
3.92576
4.15584
4.41534
4.70248
5.01153
5.34204
5.64613
6.12482
5.1949
5.19423
5.19219
5.18874
5.18388
5.17765
5.17014
5.16154
5.15203
5.14186
5.13133
5.12076
5.11054
5.10111
5.09299
5.08677
5.08314
5.08282
5.08657
5.09516
5.10933
5.12973
5.1569
5.19124
5.23291
5.28184
5.33769
5.39976
5.46705
5.53815
5.61134
5.68452
5.75533
5.82117
5.87933
5.9271
5.96186
5.98126
5.98331
5.96654
5.93005
5.87361
5.79769
5.70343
5.5926
5.46746
5.33061
5.18483
5.03295
4.87766
4.72145
4.5665
4.41471
4.2676
4.12639
3.99197
3.86496
3.74573
3.63439
3.53089
3.43503
3.34648
3.26484
3.18965
3.12044
3.05671
2.99801
2.9439
2.89396
2.84786
2.80527
2.76595
2.7297
2.69638
2.66593
2.63832
2.61362
2.59196
2.57355
2.55869
2.54778
2.54132
2.53997
2.54451
2.55589
2.57527
2.60402
2.64372
2.69622
2.76358
2.84807
2.95202
3.0777
3.22709
3.40139
3.60098
3.82316
4.07033
4.30251
4.69523
4.66042
4.65382
4.64646
4.63829
4.62928
4.61942
4.60871
4.59718
4.58486
4.57177
4.55797
4.54354
4.52854
4.5131
4.49732
4.48136
4.46537
4.44957
4.43417
4.41941
4.40553
4.39278
4.38136
4.37148
4.36325
4.35674
4.35194
4.34874
4.34691
4.34614
4.34597
4.34587
4.3452
4.34325
4.33926
4.33244
4.32204
4.30733
4.28768
4.26258
4.23166
4.19473
4.15179
4.10303
4.04882
3.98971
3.92638
3.85962
3.79026
3.71915
3.64712
3.57494
3.50331
3.43284
3.36404
3.29734
3.23304
3.17137
3.11248
3.05641
3.00317
2.95268
2.90484
2.85952
2.81654
2.77574
2.73695
2.69999
2.66471
2.63098
2.59867
2.5677
2.53799
2.5095
2.48225
2.45625
2.43157
2.40833
2.38669
2.36685
2.34908
2.33374
2.32124
2.31212
2.307
2.30666
2.31203
2.32421
2.34451
2.37443
2.41568
2.47014
2.53977
2.62651
2.732
2.85754
3.00231
3.17005
3.33059
3.62207
4.35412
4.34201
4.32959
4.31681
4.30362
4.29
4.27592
4.26136
4.24631
4.23076
4.21471
4.19817
4.18114
4.16363
4.14565
4.12722
4.10837
4.08913
4.06955
4.0497
4.02964
4.00945
3.98921
3.96899
3.94886
3.92889
3.9091
3.8895
3.87007
3.85076
3.83148
3.81207
3.79239
3.77222
3.75136
3.72955
3.70656
3.68217
3.65615
3.62834
3.5986
3.56685
3.53307
3.4973
3.45964
3.42026
3.37939
3.33729
3.29426
3.25059
3.20661
3.16262
3.11889
3.07566
3.03317
2.99156
2.95098
2.91152
2.87324
2.83614
2.80023
2.76547
2.73179
2.69914
2.66743
2.63657
2.60648
2.57706
2.54826
2.51999
2.4922
2.46486
2.43792
2.41139
2.38528
2.35961
2.33445
2.30986
2.28595
2.26287
2.24078
2.21991
2.20052
2.18295
2.1676
2.15497
2.14565
2.14037
2.13999
2.14553
2.15819
2.17931
2.21039
2.25298
2.30858
2.37861
2.46317
2.56595
2.66621
2.86211
4.18145
4.16459
4.14767
4.13066
4.11352
4.09622
4.07874
4.06105
4.04315
4.025
4.0066
3.98793
3.96897
3.94971
3.93014
3.91025
3.89002
3.86944
3.84852
3.82726
3.80566
3.78373
3.76149
3.73897
3.71618
3.69315
3.6699
3.64645
3.62281
3.59899
3.57498
3.55076
3.5263
3.50155
3.47648
3.45101
3.42509
3.39866
3.37166
3.34405
3.31579
3.28686
3.25726
3.22701
3.19616
3.16477
3.13292
3.10072
3.06829
3.03574
3.00321
2.97083
2.93869
2.9069
2.87555
2.8447
2.81438
2.78462
2.75542
2.72677
2.69864
2.67099
2.64379
2.61696
2.59046
2.56422
2.5382
2.51233
2.48657
2.46087
2.43521
2.40956
2.38391
2.35826
2.33261
2.30699
2.28143
2.256
2.23075
2.20579
2.18121
2.15715
2.13378
2.1113
2.08997
2.07008
2.05201
2.0362
2.02321
2.01369
2.00842
2.00832
2.01442
2.02785
2.04979
2.08143
2.12322
2.17808
2.23315
2.35083
4.08823
4.06766
4.04715
4.02668
4.00622
3.98576
3.96528
3.94475
3.92417
3.90352
3.88279
3.86195
3.84101
3.81993
3.79872
3.77734
3.75579
3.73404
3.71209
3.68991
3.66751
3.64486
3.62197
3.59882
3.57544
3.55181
3.52794
3.50384
3.47952
3.455
3.43027
3.40534
3.38023
3.35492
3.32943
3.30375
3.27787
3.25181
3.22554
3.19909
3.17245
3.14563
3.11865
3.09152
3.06426
3.03693
3.00954
2.98215
2.9548
2.92756
2.90046
2.87357
2.84692
2.82055
2.79449
2.76874
2.74331
2.71819
2.69335
2.66876
2.64439
2.6202
2.59614
2.57216
2.54821
2.52425
2.50024
2.47613
2.45189
2.42748
2.40289
2.3781
2.3531
2.3279
2.30249
2.2769
2.25115
2.22528
2.19934
2.17338
2.14747
2.1217
2.09617
2.07101
2.04636
2.02241
1.99939
1.97755
1.95724
1.93886
1.9229
1.90993
1.90065
1.89581
1.89624
1.90285
1.91615
1.93813
1.96188
2.02151
4.04095
4.01779
3.99471
3.9717
3.94877
3.92589
3.90305
3.88025
3.85747
3.83472
3.81197
3.78923
3.76648
3.74372
3.72092
3.69809
3.6752
3.65225
3.62922
3.6061
3.58288
3.55954
3.53608
3.51248
3.48874
3.46486
3.44084
3.41668
3.39237
3.36793
3.34336
3.31867
3.29387
3.26896
3.24397
3.21891
3.19378
3.1686
3.14339
3.11816
3.09292
3.0677
3.04252
3.01738
2.9923
2.96732
2.94244
2.91768
2.89308
2.86865
2.84441
2.82037
2.79656
2.77298
2.74962
2.72648
2.70354
2.68077
2.65814
2.63562
2.61316
2.59072
2.56826
2.54573
2.52309
2.5003
2.47733
2.45413
2.43069
2.40697
2.38295
2.35864
2.33401
2.30907
2.28383
2.2583
2.2325
2.20645
2.18019
2.15376
2.12721
2.10058
2.07396
2.04742
2.02104
1.99494
1.96926
1.94414
1.9198
1.89647
1.87444
1.85406
1.83576
1.82003
1.80741
1.79854
1.79385
1.79452
1.79785
1.81733
4.01871
3.99393
3.96922
3.94457
3.91999
3.89546
3.87099
3.84658
3.82221
3.7979
3.77363
3.7494
3.72522
3.70107
3.67696
3.65287
3.6288
3.60475
3.5807
3.55665
3.5326
3.50852
3.48442
3.46029
3.43612
3.4119
3.38765
3.36335
3.339
3.31461
3.29019
3.26573
3.24125
3.21675
3.19226
3.16777
3.14331
3.11888
3.09451
3.07021
3.046
3.02188
2.99789
2.97403
2.95031
2.92674
2.90334
2.88011
2.85707
2.83421
2.81155
2.78908
2.76681
2.74472
2.72281
2.70105
2.67942
2.65788
2.63641
2.61496
2.59349
2.57197
2.55034
2.52857
2.50662
2.48445
2.46203
2.43932
2.41631
2.39297
2.36929
2.34526
2.32086
2.29611
2.271
2.24555
2.21977
2.19369
2.16732
2.14071
2.11388
2.08688
2.05975
2.03255
2.00533
1.97816
1.95113
1.92434
1.89789
1.87193
1.84663
1.82221
1.7989
1.77701
1.75689
1.73892
1.72349
1.71106
1.70181
1.69512
4.00903
3.98336
3.95773
3.93213
3.90657
3.88106
3.85558
3.83015
3.80476
3.77942
3.75412
3.72888
3.70369
3.67855
3.65346
3.62843
3.60345
3.57852
3.55363
3.5288
3.504
3.47925
3.45453
3.42985
3.4052
3.38058
3.35599
3.33143
3.3069
3.28241
3.25795
3.23354
3.20917
3.18487
3.16063
3.13647
3.11239
3.08842
3.06456
3.04084
3.01725
2.99381
2.97054
2.94743
2.92451
2.90177
2.87922
2.85686
2.83469
2.81271
2.79092
2.7693
2.74786
2.72658
2.70543
2.6844
2.66346
2.64257
2.62169
2.6008
2.57985
2.55879
2.5376
2.51622
2.49463
2.47278
2.45066
2.42823
2.40546
2.38235
2.35886
2.33501
2.31077
2.28615
2.26116
2.2358
2.21009
2.18404
2.15768
2.13103
2.10412
2.07699
2.04966
2.02218
1.99459
1.96694
1.93928
1.91167
1.8842
1.85693
1.82997
1.80346
1.77752
1.75234
1.72813
1.70512
1.68362
1.66358
1.64702
1.62422
4.00509
3.97898
3.95289
3.9268
3.90073
3.87468
3.84865
3.82264
3.79666
3.77072
3.74481
3.71894
3.69312
3.66734
3.64162
3.61595
3.59034
3.56479
3.5393
3.51388
3.48852
3.46322
3.438
3.41284
3.38776
3.36274
3.3378
3.31293
3.28815
3.26344
3.23883
3.21431
3.1899
3.16559
3.1414
3.11733
3.0934
3.06962
3.04599
3.02253
2.99924
2.97614
2.95323
2.93052
2.90801
2.8857
2.86358
2.84167
2.81995
2.79842
2.77708
2.7559
2.73487
2.71399
2.69323
2.67255
2.65195
2.63137
2.61078
2.59016
2.56945
2.54862
2.52763
2.50645
2.48504
2.46336
2.4414
2.41911
2.39649
2.37351
2.35015
2.32642
2.30229
2.27778
2.25289
2.22762
2.20199
2.17601
2.1497
2.12309
2.0962
2.06905
2.04168
2.01412
1.98641
1.95857
1.93066
1.90271
1.87477
1.8469
1.81916
1.79164
1.76441
1.73757
1.71127
1.68562
1.6609
1.6367
1.61614
1.58402
4.00352
3.97722
3.9509
3.92459
3.89827
3.87196
3.84565
3.81935
3.79307
3.7668
3.74056
3.71435
3.68816
3.66202
3.63592
3.60987
3.58387
3.55792
3.53204
3.50622
3.48047
3.4548
3.4292
3.40368
3.37825
3.35291
3.32766
3.30251
3.27747
3.25254
3.22772
3.20303
3.17847
3.15405
3.12978
3.10566
3.08171
3.05794
3.03434
3.01094
2.98774
2.96474
2.94196
2.91938
2.89703
2.87488
2.85294
2.83121
2.80967
2.78833
2.76716
2.74616
2.7253
2.70458
2.68397
2.66343
2.64295
2.62249
2.60202
2.58149
2.56088
2.54014
2.51923
2.49813
2.4768
2.4552
2.43331
2.41111
2.38856
2.36566
2.34239
2.31874
2.29471
2.27029
2.24548
2.2203
2.19475
2.16886
2.14262
2.11608
2.08925
2.06215
2.03482
2.00728
1.97956
1.95169
1.92371
1.89564
1.86754
1.83943
1.81137
1.78341
1.75559
1.72799
1.7007
1.67377
1.64743
1.62111
1.5985
1.56133
4.00284
3.97644
3.95004
3.92362
3.89719
3.87075
3.84432
3.81788
3.79145
3.76502
3.73861
3.71222
3.68585
3.65951
3.6332
3.60693
3.58071
3.55453
3.52841
3.50235
3.47635
3.45043
3.42458
3.39881
3.37313
3.34755
3.32206
3.29669
3.27142
3.24628
3.22127
3.1964
3.17167
3.1471
3.12269
3.09845
3.0744
3.05053
3.02686
3.0034
2.98015
2.95712
2.93431
2.91172
2.88936
2.86721
2.84528
2.82357
2.80205
2.78072
2.75958
2.73859
2.71776
2.69705
2.67645
2.65593
2.63545
2.615
2.59452
2.574
2.55339
2.53266
2.51176
2.49067
2.46936
2.44779
2.42593
2.40376
2.38126
2.35842
2.33521
2.31162
2.28766
2.26331
2.23858
2.21349
2.18802
2.16221
2.13607
2.10961
2.08286
2.05584
2.02858
2.0011
1.97343
1.9456
1.91764
1.88958
1.86146
1.8333
1.80514
1.77702
1.74899
1.72109
1.69337
1.66587
1.63881
1.61148
1.58791
1.54819
4.00245
3.97602
3.94957
3.9231
3.89662
3.87013
3.84363
3.81712
3.79062
3.76412
3.73762
3.71114
3.68467
3.65823
3.63181
3.60542
3.57907
3.55276
3.5265
3.50029
3.47414
3.44806
3.42205
3.39611
3.37027
3.34451
3.31885
3.29331
3.26787
3.24256
3.21738
3.19234
3.16746
3.14273
3.11817
3.09379
3.06959
3.0456
3.0218
2.99822
2.97486
2.95172
2.9288
2.90612
2.88366
2.86142
2.83941
2.81761
2.79602
2.77462
2.7534
2.73234
2.71144
2.69067
2.67
2.64941
2.62887
2.60835
2.58782
2.56724
2.54658
2.52581
2.50488
2.48377
2.46244
2.44086
2.41901
2.39685
2.37438
2.35157
2.3284
2.30486
2.28096
2.25668
2.23203
2.20701
2.18163
2.1559
2.12985
2.10348
2.07682
2.04989
2.02271
1.99532
1.96773
1.93998
1.91209
1.88409
1.85601
1.82789
1.79974
1.77162
1.74354
1.71556
1.68771
1.66001
1.63267
1.60492
1.58095
1.54006
4.00217
3.97571
3.94923
3.92274
3.89623
3.8697
3.84317
3.81663
3.79009
3.76354
3.737
3.71047
3.68395
3.65744
3.63096
3.6045
3.57808
3.55169
3.52534
3.49904
3.47279
3.44661
3.42049
3.39444
3.36848
3.3426
3.31682
3.29114
3.26557
3.24013
3.21481
3.18963
3.1646
3.13973
3.11503
3.09051
3.06617
3.04203
3.01809
2.99437
2.97086
2.94758
2.92453
2.9017
2.87911
2.85674
2.8346
2.81267
2.79095
2.76942
2.74808
2.72691
2.70589
2.685
2.66422
2.64352
2.62288
2.60226
2.58164
2.56098
2.54024
2.5194
2.49841
2.47725
2.45589
2.43429
2.41242
2.39027
2.3678
2.34501
2.32188
2.29838
2.27453
2.25031
2.22573
2.20078
2.17549
2.14985
2.12388
2.0976
2.07103
2.0442
2.01712
1.98982
1.96232
1.93466
1.90686
1.87895
1.85096
1.82291
1.79483
1.76676
1.73873
1.71077
1.68293
1.6552
1.6278
1.59993
1.57583
1.53449
4.00191
3.97544
3.94895
3.92243
3.8959
3.86935
3.84279
3.81623
3.78966
3.76309
3.73651
3.70995
3.68339
3.65685
3.63032
3.60382
3.57734
3.5509
3.52449
3.49813
3.47181
3.44555
3.41936
3.39323
3.36718
3.34121
3.31533
3.28954
3.26387
3.23831
3.21288
3.18758
3.16243
3.13743
3.1126
3.08794
3.06347
3.03919
3.01511
2.99124
2.96759
2.94416
2.92095
2.89798
2.87523
2.85271
2.83041
2.80833
2.78646
2.76479
2.7433
2.72199
2.70083
2.6798
2.65889
2.63806
2.6173
2.59656
2.57583
2.55507
2.53424
2.51332
2.49226
2.47104
2.44963
2.42799
2.40611
2.38394
2.36148
2.33871
2.3156
2.29214
2.26834
2.24417
2.21966
2.19478
2.16956
2.14401
2.11813
2.09194
2.06547
2.03873
2.01175
1.98455
1.95716
1.9296
1.9019
1.87408
1.84618
1.81823
1.79025
1.76227
1.73432
1.70644
1.67866
1.65099
1.62363
1.59577
1.57168
1.53023
4.00168
3.97519
3.94868
3.92215
3.8956
3.86903
3.84245
3.81587
3.78928
3.76268
3.73608
3.70949
3.6829
3.65633
3.62977
3.60323
3.57671
3.55022
3.52377
3.49736
3.47099
3.44467
3.41841
3.39221
3.36609
3.34004
3.31408
3.28821
3.26245
3.2368
3.21127
3.18586
3.1606
3.13549
3.11054
3.08576
3.06116
3.03674
3.01253
2.98852
2.96472
2.94114
2.91779
2.89466
2.87176
2.84908
2.82663
2.80439
2.78236
2.76053
2.73889
2.71742
2.69611
2.67494
2.65389
2.63292
2.61203
2.59117
2.57032
2.54945
2.52853
2.50751
2.48638
2.4651
2.44363
2.42195
2.40004
2.37786
2.3554
2.33263
2.30955
2.28613
2.26236
2.23826
2.2138
2.189
2.16385
2.13838
2.11259
2.0865
2.06012
2.03348
2.0066
1.97951
1.95222
1.92476
1.89717
1.86946
1.84167
1.81382
1.78594
1.75806
1.73022
1.70243
1.67475
1.64717
1.61989
1.5921
1.56807
1.52667
4.00146
3.97496
3.94843
3.92188
3.89532
3.86873
3.84214
3.81553
3.78892
3.7623
3.73568
3.70906
3.68245
3.65584
3.62925
3.60268
3.57613
3.5496
3.52311
3.49665
3.47023
3.44386
3.41755
3.39129
3.3651
3.33899
3.31296
3.28702
3.26117
3.23543
3.20981
3.18432
3.15895
3.13374
3.10868
3.08378
3.05906
3.03452
3.01018
2.98603
2.9621
2.93838
2.91488
2.8916
2.86855
2.84572
2.82311
2.80071
2.77853
2.75655
2.73475
2.71313
2.69167
2.67035
2.64915
2.62805
2.60702
2.58604
2.56507
2.54409
2.52306
2.50196
2.48074
2.45939
2.43787
2.41615
2.39421
2.37201
2.34955
2.32679
2.30373
2.28034
2.25662
2.23257
2.20817
2.18344
2.15838
2.13299
2.10729
2.08129
2.05501
2.02848
2.0017
1.97471
1.94753
1.92018
1.89269
1.86509
1.83741
1.80967
1.7819
1.75413
1.72639
1.69871
1.67114
1.64365
1.61647
1.58878
1.56484
1.52355
4.00126
3.97474
3.9482
3.92163
3.89505
3.86845
3.84184
3.81521
3.78858
3.76194
3.7353
3.70865
3.68202
3.65539
3.62877
3.60216
3.57558
3.54902
3.52248
3.49598
3.46952
3.44311
3.41674
3.39043
3.36418
3.33801
3.31191
3.2859
3.25998
3.23416
3.20846
3.18287
3.15742
3.13211
3.10694
3.08194
3.05711
3.03245
3.00799
2.98372
2.95965
2.9358
2.91216
2.88874
2.86554
2.84256
2.8198
2.79725
2.77492
2.75278
2.73084
2.70907
2.68746
2.666
2.64466
2.62342
2.60226
2.58115
2.56006
2.53897
2.51784
2.49665
2.47536
2.45394
2.43236
2.4106
2.38863
2.36642
2.34395
2.3212
2.29816
2.27481
2.25113
2.22714
2.20281
2.17815
2.15317
2.12787
2.10226
2.07637
2.05019
2.02376
1.99709
1.97021
1.94314
1.9159
1.88852
1.86103
1.83346
1.80583
1.77816
1.7505
1.72287
1.6953
1.66783
1.64045
1.61337
1.58577
1.56192
1.52075
4.00107
3.97454
3.94798
3.9214
3.8948
3.86818
3.84155
3.81491
3.78826
3.7616
3.73493
3.70827
3.68161
3.65495
3.62831
3.60167
3.57505
3.54846
3.52189
3.49535
3.46885
3.44239
3.41597
3.38961
3.36331
3.33708
3.31092
3.28484
3.25885
3.23296
3.20718
3.18151
3.15597
3.13057
3.10531
3.08021
3.05527
3.0305
3.00592
2.98154
2.95735
2.93336
2.90959
2.88604
2.8627
2.83958
2.81668
2.79399
2.7715
2.74922
2.72713
2.70522
2.68347
2.66186
2.64039
2.61902
2.59773
2.5765
2.5553
2.5341
2.51288
2.49159
2.47023
2.44874
2.42712
2.40532
2.38332
2.3611
2.33863
2.3159
2.29289
2.26958