/*--------------------------------*- C++ -*----------------------------------*\
| =========                 |                                                 |
| \\      /  F ield         | OpenFOAM: The Open Source CFD Toolbox           |
|  \\    /   O peration     | Version:  2.1.1                                 |
|   \\  /    A nd           | Web:      www.OpenFOAM.org                      |
|    \\/     M anipulation  |                                                 |
\*---------------------------------------------------------------------------*/
FoamFile
{
    version     2.0;
    format      ascii;
    class       volScalarField;
    location    "0.19";
    object      k;
}
// * * * * * * * * * * * * * * * * * * * * * * * * * * * * * * * * * * * * * //

dimensions      [0 2 -2 0 0 0 0];

internalField   nonuniform List<scalar> 
6820
(
0.288909
0.351398
0.415005
0.477466
0.536859
0.591555
0.640367
0.68262
0.71811
0.747008
0.76976
0.786982
0.799373
0.807654
0.812514
0.814588
0.814438
0.812551
0.809339
0.805144
0.800245
0.794868
0.789195
0.783364
0.777488
0.771648
0.765904
0.760312
0.754836
0.749801
0.743714
0.74375
0.715251
0.265532
0.269396
0.270523
0.271341
0.272559
0.274217
0.276229
0.278482
0.280865
0.283293
0.285709
0.288084
0.290408
0.292685
0.294931
0.297164
0.299404
0.301669
0.303976
0.306337
0.308762
0.311258
0.313827
0.316472
0.319192
0.321989
0.324863
0.327823
0.330882
0.3341
0.33749
0.341563
0.345734
0.262038
0.264253
0.263596
0.261556
0.259
0.256318
0.253626
0.250938
0.24824
0.245524
0.242794
0.240061
0.237345
0.234668
0.232052
0.229518
0.227085
0.224769
0.222583
0.220534
0.21863
0.216875
0.21527
0.213816
0.212509
0.211348
0.21033
0.20945
0.208706
0.208101
0.207621
0.207297
0.207071
0.259885
0.260272
0.259797
0.258535
0.256829
0.254891
0.252833
0.250709
0.248546
0.246358
0.244151
0.241934
0.239712
0.237494
0.235285
0.233095
0.23093
0.228797
0.226704
0.224655
0.222656
0.220711
0.218823
0.216995
0.21523
0.213527
0.211888
0.210312
0.2088
0.20735
0.20596
0.204631
0.203353
0.259299
0.258404
0.2576
0.256567
0.255295
0.25385
0.252292
0.250661
0.248984
0.247277
0.245551
0.243814
0.242074
0.240334
0.2386
0.236876
0.235165
0.233471
0.231797
0.230146
0.228521
0.226924
0.225357
0.223821
0.222319
0.220851
0.219418
0.21802
0.216658
0.215333
0.214043
0.21279
0.211573
0.259224
0.257848
0.256623
0.255437
0.254227
0.25297
0.251663
0.250312
0.248929
0.247522
0.2461
0.24467
0.243237
0.241804
0.240377
0.238957
0.237548
0.236151
0.23477
0.233405
0.232058
0.230731
0.229425
0.228141
0.22688
0.225642
0.224428
0.223239
0.222075
0.220936
0.219823
0.218736
0.217677
0.259217
0.257715
0.256309
0.25498
0.253698
0.252442
0.251196
0.249951
0.248704
0.247455
0.246204
0.244955
0.243709
0.242469
0.241236
0.240012
0.2388
0.237599
0.236413
0.235241
0.234084
0.232945
0.231822
0.230718
0.229632
0.228565
0.227517
0.226489
0.225481
0.224493
0.223526
0.222579
0.221655
0.259218
0.25769
0.256225
0.254822
0.253477
0.252181
0.250924
0.249696
0.248492
0.247306
0.246136
0.244981
0.243839
0.24271
0.241594
0.240493
0.239405
0.238331
0.237272
0.236229
0.235201
0.234189
0.233194
0.232215
0.231253
0.230308
0.22938
0.228469
0.227576
0.226701
0.225843
0.225003
0.224182
0.259218
0.257686
0.256207
0.25478
0.253405
0.25208
0.250799
0.24956
0.248357
0.247185
0.246042
0.244924
0.24383
0.242757
0.241704
0.240671
0.239656
0.238659
0.23768
0.236718
0.235774
0.234846
0.233936
0.233042
0.232165
0.231305
0.230461
0.229634
0.228823
0.228029
0.227251
0.22649
0.225745
0.259218
0.257686
0.256203
0.254769
0.253384
0.252045
0.250751
0.2495
0.248288
0.247114
0.245974
0.244866
0.243788
0.242737
0.241712
0.240712
0.239734
0.238779
0.237844
0.23693
0.236035
0.235159
0.234302
0.233463
0.232641
0.231837
0.23105
0.230279
0.229525
0.228787
0.228065
0.227359
0.226669
0.259218
0.257686
0.256202
0.254767
0.253378
0.252035
0.250735
0.249477
0.248259
0.24708
0.245937
0.244829
0.243753
0.242708
0.241693
0.240705
0.239743
0.238806
0.237893
0.237003
0.236135
0.235288
0.234461
0.233653
0.232865
0.232094
0.231342
0.230607
0.22989
0.229188
0.228504
0.227835
0.227181
0.259218
0.257685
0.256201
0.254766
0.253376
0.252031
0.250729
0.249469
0.248248
0.247066
0.24592
0.244809
0.243732
0.242688
0.241674
0.240689
0.239732
0.238802
0.237898
0.237018
0.236162
0.235328
0.234516
0.233725
0.232954
0.232202
0.23147
0.230756
0.230059
0.22938
0.228717
0.228071
0.22744
0.259218
0.257685
0.256201
0.254765
0.253375
0.252029
0.250727
0.249465
0.248243
0.247059
0.245912
0.2448
0.243722
0.242676
0.241661
0.240676
0.23972
0.238792
0.23789
0.237014
0.236162
0.235333
0.234528
0.233744
0.232981
0.232238
0.231515
0.230811
0.230126
0.229458
0.228808
0.228174
0.227556
0.259218
0.257685
0.256201
0.254764
0.253374
0.252028
0.250725
0.249463
0.248241
0.247056
0.245908
0.244795
0.243716
0.242669
0.241653
0.240668
0.239712
0.238783
0.237882
0.237006
0.236155
0.235328
0.234524
0.233743
0.232983
0.232244
0.231525
0.230826
0.230145
0.229483
0.228838
0.228211
0.227599
0.259218
0.257685
0.2562
0.254764
0.253374
0.252028
0.250724
0.249462
0.248239
0.247054
0.245905
0.244792
0.243712
0.242665
0.241648
0.240663
0.239706
0.238777
0.237875
0.236999
0.236148
0.235321
0.234518
0.233737
0.232978
0.23224
0.231523
0.230825
0.230146
0.229485
0.228843
0.228218
0.227609
0.259218
0.257685
0.2562
0.254764
0.253373
0.252027
0.250723
0.249461
0.248237
0.247052
0.245903
0.244789
0.243709
0.242661
0.241645
0.240658
0.239701
0.238772
0.237869
0.236993
0.236142
0.235315
0.234511
0.23373
0.232971
0.232233
0.231516
0.230818
0.23014
0.22948
0.228838
0.228213
0.227606
0.259218
0.257685
0.2562
0.254763
0.253373
0.252026
0.250722
0.249459
0.248236
0.24705
0.245901
0.244787
0.243706
0.242658
0.241642
0.240655
0.239697
0.238768
0.237865
0.236988
0.236137
0.235309
0.234505
0.233724
0.232965
0.232227
0.231509
0.230811
0.230133
0.229473
0.228831
0.228206
0.227598
0.259218
0.257685
0.2562
0.254763
0.253372
0.252026
0.250722
0.249459
0.248235
0.247049
0.245899
0.244785
0.243704
0.242656
0.241639
0.240652
0.239694
0.238764
0.237861
0.236984
0.236132
0.235304
0.2345
0.233719
0.232959
0.232221
0.231503
0.230805
0.230126
0.229465
0.228823
0.228198
0.22759
0.259218
0.257684
0.2562
0.254763
0.253372
0.252025
0.250721
0.249458
0.248234
0.247048
0.245898
0.244783
0.243702
0.242654
0.241636
0.240649
0.239691
0.23876
0.237857
0.23698
0.236128
0.2353
0.234495
0.233713
0.232954
0.232215
0.231497
0.230798
0.230119
0.229458
0.228815
0.22819
0.227581
0.259218
0.257684
0.2562
0.254763
0.253371
0.252025
0.25072
0.249457
0.248233
0.247047
0.245897
0.244782
0.2437
0.242652
0.241634
0.240646
0.239688
0.238757
0.237854
0.236976
0.236124
0.235296
0.234491
0.233709
0.232948
0.232209
0.231491
0.230792
0.230112
0.229451
0.228808
0.228182
0.227573
0.259218
0.257684
0.256199
0.254762
0.253371
0.252024
0.25072
0.249456
0.248232
0.247046
0.245895
0.24478
0.243699
0.24265
0.241632
0.240644
0.239685
0.238755
0.237851
0.236973
0.23612
0.235292
0.234487
0.233704
0.232944
0.232204
0.231485
0.230786
0.230106
0.229445
0.228801
0.228175
0.227566
0.259218
0.257684
0.256199
0.254762
0.253371
0.252024
0.250719
0.249456
0.248231
0.247045
0.245894
0.244779
0.243697
0.242648
0.24163
0.240642
0.239683
0.238752
0.237848
0.23697
0.236117
0.235288
0.234483
0.2337
0.232939
0.2322
0.23148
0.230781
0.230101
0.229439
0.228795
0.228169
0.227559
0.259218
0.257684
0.256199
0.254762
0.253371
0.252024
0.250719
0.249455
0.248231
0.247044
0.245893
0.244778
0.243696
0.242647
0.241628
0.24064
0.239681
0.23875
0.237845
0.236967
0.236114
0.235285
0.234479
0.233696
0.232935
0.232195
0.231476
0.230776
0.230095
0.229433
0.228789
0.228162
0.227552
0.259218
0.257684
0.256199
0.254762
0.253371
0.252023
0.250719
0.249455
0.24823
0.247043
0.245893
0.244777
0.243695
0.242645
0.241627
0.240638
0.239679
0.238748
0.237843
0.236965
0.236111
0.235282
0.234476
0.233693
0.232932
0.232191
0.231471
0.230771
0.230091
0.229428
0.228784
0.228156
0.227546
0.259218
0.257684
0.256199
0.254762
0.25337
0.252023
0.250718
0.249454
0.24823
0.247043
0.245892
0.244776
0.243694
0.242644
0.241625
0.240637
0.239677
0.238746
0.237841
0.236962
0.236109
0.235279
0.234473
0.23369
0.232928
0.232188
0.231468
0.230767
0.230086
0.229423
0.228778
0.228151
0.22754
0.259218
0.257684
0.256199
0.254762
0.25337
0.252023
0.250718
0.249454
0.248229
0.247042
0.245891
0.244775
0.243693
0.242643
0.241624
0.240636
0.239676
0.238744
0.237839
0.23696
0.236106
0.235277
0.23447
0.233687
0.232925
0.232184
0.231464
0.230763
0.230082
0.229419
0.228774
0.228146
0.227535
0.259218
0.257684
0.256199
0.254762
0.25337
0.252023
0.250718
0.249454
0.248229
0.247042
0.245891
0.244775
0.243692
0.242642
0.241623
0.240634
0.239675
0.238743
0.237837
0.236958
0.236104
0.235274
0.234468
0.233684
0.232922
0.232181
0.231461
0.23076
0.230078
0.229415
0.22877
0.228141
0.22753
0.259218
0.257684
0.256199
0.254762
0.25337
0.252023
0.250718
0.249454
0.248229
0.247041
0.24589
0.244774
0.243692
0.242642
0.241623
0.240634
0.239674
0.238742
0.237836
0.236957
0.236103
0.235273
0.234466
0.233682
0.23292
0.232179
0.231458
0.230757
0.230075
0.229411
0.228766
0.228138
0.227526
0.259218
0.257684
0.256199
0.254762
0.25337
0.252023
0.250718
0.249453
0.248228
0.247041
0.24589
0.244774
0.243691
0.242641
0.241622
0.240633
0.239673
0.23874
0.237835
0.236956
0.236101
0.235271
0.234464
0.23368
0.232918
0.232176
0.231455
0.230754
0.230072
0.229408
0.228763
0.228134
0.227522
0.259218
0.257684
0.256199
0.254762
0.25337
0.252023
0.250718
0.249454
0.248229
0.247042
0.245891
0.244774
0.243692
0.242641
0.241622
0.240633
0.239673
0.238741
0.237835
0.236956
0.236101
0.235271
0.234464
0.233679
0.232917
0.232175
0.231454
0.230753
0.23007
0.229407
0.228761
0.228132
0.22752
0.259218
0.257684
0.256199
0.254762
0.25337
0.252023
0.250718
0.249453
0.248228
0.247041
0.24589
0.244774
0.243691
0.242641
0.241622
0.240633
0.239672
0.23874
0.237835
0.236955
0.236101
0.23527
0.234463
0.233679
0.232916
0.232175
0.231454
0.230752
0.23007
0.229405
0.228759
0.22813
0.227518
0.259218
0.257684
0.256199
0.254762
0.253371
0.252024
0.25072
0.249456
0.248232
0.247044
0.245894
0.244778
0.243695
0.242645
0.241626
0.240637
0.239676
0.238744
0.237838
0.236959
0.236104
0.235273
0.234466
0.233682
0.232919
0.232177
0.231456
0.230754
0.230071
0.229407
0.22876
0.228131
0.227518
0.259218
0.257685
0.2562
0.254764
0.253373
0.252026
0.250721
0.249457
0.248233
0.247046
0.245895
0.244779
0.243697
0.242647
0.241628
0.240639
0.239679
0.238747
0.237842
0.236962
0.236107
0.235277
0.23447
0.233685
0.232922
0.232179
0.231457
0.230755
0.230072
0.229407
0.228759
0.228129
0.227516
0.259218
0.257685
0.256201
0.254766
0.253378
0.252034
0.250731
0.249469
0.248246
0.24706
0.245911
0.244795
0.243713
0.242663
0.241644
0.240654
0.239694
0.238761
0.237854
0.236974
0.236118
0.235285
0.234476
0.23369
0.232924
0.23218
0.231455
0.23075
0.230064
0.229396
0.228745
0.228112
0.227495
0.259219
0.257689
0.25621
0.254777
0.25339
0.252045
0.250743
0.249482
0.248259
0.247074
0.245924
0.244809
0.243726
0.242676
0.241655
0.240664
0.239701
0.238765
0.237855
0.23697
0.236109
0.235272
0.234457
0.233663
0.232891
0.232139
0.231406
0.230692
0.229997
0.229319
0.228659
0.228015
0.227387
0.25922
0.257694
0.256221
0.254799
0.253423
0.252089
0.250795
0.249539
0.248318
0.247132
0.245979
0.244857
0.243767
0.242706
0.241674
0.24067
0.239692
0.238739
0.237812
0.236908
0.236027
0.235169
0.234332
0.233516
0.232721
0.231945
0.231188
0.23045
0.22973
0.229027
0.228342
0.227672
0.227019
0.259229
0.257738
0.256292
0.254882
0.253508
0.252172
0.250871
0.249603
0.248368
0.247162
0.245986
0.244837
0.243716
0.242622
0.241553
0.24051
0.239491
0.238496
0.237525
0.236577
0.23565
0.234746
0.233863
0.233
0.232158
0.231335
0.230531
0.229745
0.228978
0.228229
0.227496
0.226781
0.226081
0.259265
0.257822
0.256453
0.255125
0.253805
0.252483
0.251164
0.249855
0.248562
0.247292
0.246047
0.244829
0.243641
0.242482
0.241352
0.24025
0.239176
0.238129
0.237108
0.236112
0.23514
0.234191
0.233265
0.232361
0.231479
0.230617
0.229775
0.228952
0.228149
0.227364
0.226597
0.225848
0.225116
0.259599
0.258632
0.257578
0.256541
0.255587
0.254713
0.253904
0.253149
0.252442
0.251779
0.25116
0.250583
0.250049
0.249556
0.249102
0.248688
0.24831
0.247967
0.247658
0.24738
0.247132
0.246912
0.246719
0.24655
0.246404
0.24628
0.246177
0.246092
0.246024
0.245974
0.245939
0.245918
0.245911
0.266719
0.280569
0.294241
0.307622
0.320668
0.333362
0.345693
0.357649
0.369225
0.380414
0.391213
0.401622
0.411641
0.421275
0.430527
0.439404
0.447912
0.45606
0.463857
0.471312
0.478435
0.485236
0.491726
0.497916
0.503817
0.50944
0.514795
0.519893
0.524744
0.52936
0.53375
0.537922
0.541892
0.84387
1.01372
1.18232
1.35048
1.51716
1.67492
1.81395
1.92687
2.01077
2.0675
2.10218
2.12122
2.13063
2.13493
2.13696
2.13809
2.13877
2.13901
2.13878
2.13813
2.13725
2.13644
2.13596
2.13605
2.13682
2.13826
2.14029
2.14275
2.14543
2.14808
2.15045
2.15228
2.15327
2.15314
2.15155
2.14819
2.14271
2.13477
2.12403
2.11014
2.09281
2.07177
2.04678
2.01767
1.98431
1.94663
1.90464
1.85838
1.808
1.75368
1.69571
1.63443
1.57027
1.50375
1.43545
1.36599
1.29606
1.22634
1.15754
1.09033
1.02532
0.963091
0.904113
0.84877
0.797348
0.750023
0.706874
0.667887
0.632969
0.601964
0.574667
0.550844
0.530246
0.512621
0.497725
0.48533
0.475227
0.467231
0.46118
0.456936
0.454384
0.453426
0.453983
0.455989
0.459384
0.464117
0.470135
0.47738
0.485783
0.495259
0.5057
0.516972
0.528907
0.541298
0.553903
0.566426
0.578551
0.589938
0.599742
0.611455
0.354729
0.368559
0.388871
0.418609
0.460407
0.51658
0.588594
0.676414
0.778086
0.889803
1.00642
1.1222
1.23174
1.33071
1.41641
1.48787
1.54567
1.59142
1.62731
1.65557
1.67819
1.69672
1.71225
1.72549
1.73685
1.74656
1.75475
1.7615
1.76685
1.7708
1.77334
1.7744
1.77388
1.77162
1.76745
1.76115
1.7525
1.74125
1.72715
1.70997
1.68951
1.66559
1.6381
1.60695
1.57213
1.53369
1.49172
1.44639
1.39793
1.34662
1.2928
1.2369
1.17938
1.12078
1.06168
1.00268
0.94441
0.887468
0.832431
0.779819
0.730072
0.683545
0.64049
0.601062
0.565315
0.533214
0.50465
0.479454
0.457416
0.438299
0.42186
0.407856
0.396059
0.386258
0.378268
0.371926
0.367096
0.363666
0.361548
0.360673
0.360992
0.362472
0.365093
0.368846
0.373728
0.379739
0.386877
0.395134
0.404488
0.4149
0.426303
0.4386
0.451653
0.465283
0.479261
0.493306
0.507086
0.520315
0.531855
0.54663
0.206738
0.206543
0.206976
0.208439
0.211338
0.216202
0.223574
0.234249
0.249295
0.269892
0.297188
0.33215
0.375377
0.426921
0.486171
0.551839
0.622052
0.694545
0.766925
0.83694
0.902718
0.962921
1.0168
1.06413
1.10513
1.14026
1.17013
1.19535
1.21645
1.23387
1.24792
1.25882
1.26669
1.27159
1.27353
1.27248
1.2684
1.26122
1.25088
1.23729
1.22043
1.20026
1.17682
1.15017
1.12044
1.08779
1.05245
1.0147
0.974845
0.933257
0.890332
0.846509
0.802258
0.758071
0.714448
0.671881
0.630836
0.59173
0.554912
0.520656
0.489145
0.460476
0.434661
0.411639
0.391289
0.373449
0.357925
0.344515
0.333012
0.323221
0.314961
0.30807
0.302409
0.297857
0.294319
0.291715
0.289987
0.289095
0.289011
0.289725
0.291238
0.293565
0.296728
0.300759
0.305698
0.311585
0.318461
0.326361
0.335311
0.345318
0.356365
0.368399
0.381329
0.395011
0.409248
0.423786
0.43829
0.452528
0.46511
0.482137
0.201933
0.200412
0.198989
0.197667
0.19648
0.195492
0.194786
0.194477
0.194672
0.195529
0.197267
0.200161
0.204536
0.210769
0.219275
0.230491
0.244841
0.262684
0.284261
0.30963
0.338628
0.370847
0.405654
0.442239
0.479682
0.517039
0.553415
0.588025
0.620232
0.649559
0.675682
0.69841
0.717653
0.733393
0.745656
0.754493
0.759962
0.762125
0.761046
0.756794
0.749456
0.739144
0.726003
0.710216
0.692009
0.671644
0.649418
0.625655
0.600701
0.574912
0.548654
0.522291
0.496182
0.470668
0.446064
0.422644
0.400637
0.380209
0.36147
0.344466
0.329189
0.315585
0.303565
0.293016
0.283814
0.27583
0.268939
0.263022
0.257973
0.253698
0.250117
0.247163
0.244782
0.24293
0.241577
0.240703
0.240298
0.240359
0.240897
0.241928
0.243478
0.245583
0.248284
0.251634
0.25569
0.260514
0.266174
0.272736
0.28026
0.288797
0.298377
0.309002
0.320636
0.333192
0.346524
0.360425
0.374583
0.388832
0.401602
0.419793
0.210204
0.208681
0.207182
0.205699
0.204233
0.202795
0.201402
0.200075
0.198838
0.197711
0.19673
0.195935
0.19538
0.195128
0.195252
0.195837
0.19698
0.198788
0.201375
0.204863
0.209372
0.215013
0.221878
0.230028
0.239479
0.250192
0.262061
0.274913
0.288513
0.302569
0.316755
0.330724
0.344131
0.356652
0.367995
0.377914
0.386209
0.392732
0.397384
0.400113
0.400918
0.39984
0.396968
0.392431
0.386392
0.379047
0.370612
0.361314
0.351381
0.341039
0.330501
0.319964
0.309603
0.299571
0.289994
0.280967
0.272561
0.264814
0.257742
0.251339
0.245581
0.240434
0.235855
0.231799
0.228218
0.225069
0.22231
0.219903
0.217815
0.21602
0.214495
0.213223
0.212192
0.211394
0.210829
0.210498
0.21041
0.210579
0.211023
0.211766
0.21284
0.214281
0.216134
0.218449
0.221286
0.224711
0.228797
0.233619
0.239257
0.245787
0.253275
0.261769
0.27129
0.281815
0.293267
0.30551
0.318289
0.331515
0.343559
0.361624
0.216475
0.215113
0.213749
0.212386
0.211026
0.209669
0.208318
0.206976
0.205649
0.204347
0.203076
0.201849
0.20068
0.199583
0.198577
0.197684
0.196927
0.19633
0.195923
0.195731
0.195786
0.196116
0.196749
0.197711
0.199026
0.20071
0.202772
0.205211
0.208011
0.211145
0.214568
0.218218
0.222022
0.225889
0.229723
0.233421
0.236881
0.240004
0.242701
0.244899
0.246541
0.247591
0.248035
0.247882
0.247163
0.245925
0.244231
0.242151
0.239761
0.237137
0.23435
0.231468
0.22855
0.225648
0.222808
0.220063
0.217441
0.214962
0.212636
0.21047
0.208464
0.206613
0.204913
0.203353
0.201927
0.200624
0.199436
0.198355
0.197375
0.196492
0.195702
0.195004
0.1944
0.193892
0.193488
0.193195
0.193025
0.192993
0.193116
0.193416
0.193921
0.19466
0.195673
0.197001
0.198694
0.200811
0.203414
0.206576
0.210375
0.21489
0.220203
0.226387
0.233499
0.241573
0.250595
0.260508
0.271138
0.282484
0.292996
0.309632
0.220603
0.219408
0.218204
0.216992
0.215773
0.214546
0.213313
0.212077
0.210838
0.209602
0.208372
0.207151
0.205944
0.204758
0.203599
0.202474
0.201391
0.200361
0.199392
0.198496
0.197683
0.196963
0.196347
0.195844
0.195464
0.195212
0.195095
0.195114
0.195271
0.195561
0.195978
0.196512
0.197146
0.197863
0.198639
0.199451
0.200269
0.201066
0.201812
0.202482
0.203049
0.203493
0.203799
0.203956
0.203961
0.203815
0.203527
0.203107
0.202569
0.201932
0.201211
0.200425
0.199591
0.198723
0.197836
0.196943
0.196054
0.195177
0.194318
0.193482
0.19267
0.191884
0.191124
0.19039
0.189679
0.188992
0.188325
0.187679
0.187054
0.186449
0.185866
0.185307
0.184776
0.184278
0.183818
0.183406
0.18305
0.182762
0.182558
0.182453
0.182469
0.182629
0.182962
0.183499
0.184281
0.18535
0.18676
0.188569
0.19084
0.193648
0.197066
0.201172
0.206038
0.211722
0.218257
0.225645
0.233792
0.242771
0.251236
0.265399
0.223246
0.22218
0.221103
0.220016
0.218918
0.217811
0.216696
0.215573
0.214445
0.213311
0.212174
0.211036
0.209898
0.208765
0.207637
0.20652
0.205416
0.20433
0.203267
0.202231
0.201228
0.200263
0.199341
0.198467
0.197647
0.196884
0.196182
0.195545
0.194974
0.194471
0.194034
0.193662
0.193352
0.193099
0.192897
0.19274
0.192618
0.192523
0.192447
0.192378
0.192308
0.192229
0.192131
0.19201
0.191859
0.191676
0.191459
0.191207
0.190922
0.190605
0.190261
0.189891
0.189501
0.189092
0.188669
0.188234
0.187789
0.187336
0.186876
0.18641
0.185937
0.185458
0.184971
0.184476
0.183971
0.183457
0.182933
0.182398
0.181853
0.181298
0.180736
0.180167
0.179596
0.179026
0.178461
0.177909
0.177375
0.176869
0.176401
0.175983
0.17563
0.175359
0.175191
0.175148
0.17526
0.17556
0.176085
0.17688
0.177996
0.179489
0.181424
0.183865
0.186882
0.190538
0.194884
0.199954
0.205711
0.212269
0.218556
0.229683
0.224896
0.223928
0.22295
0.221962
0.220963
0.219955
0.218937
0.217911
0.216876
0.215834
0.214787
0.213734
0.212678
0.211619
0.21056
0.209502
0.208448
0.207398
0.206356
0.205325
0.204306
0.203303
0.20232
0.201359
0.200424
0.199516
0.198641
0.197799
0.196993
0.196226
0.195497
0.194809
0.194161
0.193553
0.192984
0.192451
0.191953
0.191487
0.19105
0.190638
0.190248
0.189876
0.189518
0.18917
0.188831
0.188496
0.188163
0.18783
0.187496
0.18716
0.186821
0.186479
0.186133
0.185783
0.185428
0.185067
0.184701
0.184326
0.183942
0.183548
0.183141
0.18272
0.182283
0.181829
0.181356
0.180863
0.180349
0.179814
0.179257
0.178679
0.17808
0.177462
0.176826
0.176175
0.175513
0.174843
0.17417
0.173501
0.172842
0.172202
0.17159
0.171019
0.170503
0.170059
0.169705
0.169465
0.169368
0.169444
0.169731
0.170272
0.171116
0.172315
0.173927
0.176006
0.178606
0.181771
0.185497
0.189904
0.1942
0.202259
0.225882
0.224987
0.224081
0.223167
0.222243
0.22131
0.220368
0.219417
0.218459
0.217493
0.21652
0.215541
0.214557
0.213569
0.212578
0.211584
0.210589
0.209594
0.2086
0.20761
0.206625
0.205646
0.204675
0.203715
0.202767
0.201834
0.200918
0.200021
0.199144
0.19829
0.19746
0.196656
0.195879
0.195129
0.194408
0.193715
0.193051
0.192414
0.191805
0.191222
0.190664
0.19013
0.189617
0.189125
0.18865
0.188192
0.187748
0.187316
0.186895
0.186483
0.186078
0.18568
0.185287
0.184896
0.184507
0.184118
0.183725
0.183328
0.182923
0.182508
0.182081
0.181639
0.181181
0.180703
0.180205
0.179684
0.17914
0.178571
0.177976
0.177356
0.17671
0.176039
0.175344
0.174626
0.173888
0.173131
0.17236
0.171578
0.170789
0.17
0.169217
0.168448
0.167702
0.16699
0.166326
0.165726
0.165208
0.164796
0.164514
0.164394
0.164471
0.164786
0.165382
0.166304
0.167599
0.169309
0.171445
0.174111
0.176771
0.182108
0.226437
0.225591
0.224737
0.223875
0.223005
0.222126
0.221241
0.220347
0.219446
0.218538
0.217624
0.216704
0.215778
0.214847
0.213912
0.212974
0.212032
0.211089
0.210145
0.209201
0.208258
0.207316
0.206379
0.205446
0.204519
0.2036
0.20269
0.201791
0.200904
0.200031
0.199173
0.198332
0.19751
0.196707
0.195924
0.195163
0.194423
0.193707
0.193013
0.192342
0.191694
0.191068
0.190465
0.189882
0.189319
0.188774
0.188247
0.187736
0.187239
0.186754
0.186282
0.185819
0.185364
0.184915
0.184471
0.184028
0.183586
0.18314
0.182689
0.18223
0.18176
0.181276
0.180777
0.18026
0.179722
0.179162
0.178579
0.17797
0.177336
0.176675
0.175987
0.175272
0.17453
0.173762
0.172969
0.172153
0.171315
0.170459
0.169587
0.168703
0.16781
0.166915
0.166023
0.165142
0.164281
0.163449
0.16266
0.161927
0.16127
0.16071
0.16027
0.15998
0.159873
0.159982
0.160344
0.160996
0.161956
0.163302
0.164708
0.167833
0.226723
0.225909
0.225088
0.224261
0.223427
0.222587
0.22174
0.220886
0.220026
0.219161
0.218289
0.217412
0.21653
0.215643
0.214752
0.213857
0.212959
0.212058
0.211156
0.210252
0.209347
0.208442
0.207539
0.206637
0.205738
0.204843
0.203954
0.203071
0.202195
0.201328
0.200471
0.199626
0.198793
0.197974
0.19717
0.196383
0.195612
0.194858
0.194124
0.193408
0.192712
0.192035
0.191378
0.190739
0.190119
0.189517
0.188932
0.188362
0.187807
0.187266
0.186737
0.186218
0.185708
0.185206
0.18471
0.184216
0.183724
0.18323
0.182732
0.182227
0.181713
0.181187
0.180647
0.18009
0.179514
0.178917
0.178297
0.177654
0.176986
0.176291
0.175569
0.174821
0.174044
0.173241
0.172411
0.171555
0.170675
0.169772
0.168847
0.167904
0.166945
0.165973
0.164993
0.164008
0.163026
0.162051
0.161093
0.160161
0.159267
0.158424
0.15765
0.156965
0.156389
0.15595
0.155674
0.15559
0.155717
0.156108
0.1566
0.158035
0.226855
0.226059
0.225258
0.224452
0.223641
0.222824
0.222002
0.221175
0.220342
0.219505
0.218662
0.217815
0.216964
0.216108
0.215248
0.214385
0.213519
0.212651
0.211779
0.210907
0.210032
0.209158
0.208283
0.207408
0.206535
0.205665
0.204797
0.203933
0.203074
0.20222
0.201374
0.200536
0.199707
0.198888
0.19808
0.197284
0.196501
0.195733
0.194979
0.194241
0.193519
0.192814
0.192125
0.191453
0.190797
0.190156
0.189532
0.188921
0.188325
0.187741
0.187168
0.186606
0.186053
0.185508
0.184968
0.184432
0.183898
0.183363
0.182824
0.182281
0.181729
0.181166
0.18059
0.179999
0.179391
0.178763
0.178115
0.177443
0.176748
0.176027
0.175281
0.174507
0.173707
0.172879
0.172024
0.171143
0.170236
0.169304
0.168348
0.16737
0.166371
0.165354
0.164322
0.163277
0.162222
0.161164
0.160105
0.159053
0.158015
0.157001
0.156019
0.155085
0.154213
0.153419
0.152725
0.15215
0.151713
0.151443
0.1513
0.151503
0.226906
0.226119
0.225329
0.224534
0.223736
0.222932
0.222125
0.221313
0.220497
0.219677
0.218853
0.218025
0.217193
0.216358
0.215519
0.214677
0.213833
0.212986
0.212137
0.211287
0.210435
0.209582
0.208728
0.207875
0.207022
0.20617
0.20532
0.204473
0.203629
0.20279
0.201955
0.201127
0.200305
0.199491
0.198685
0.197889
0.197104
0.19633
0.195568
0.194819
0.194083
0.193362
0.192654
0.19196
0.191281
0.190616
0.189964
0.189326
0.188699
0.188085
0.187481
0.186886
0.186301
0.185722
0.185149
0.184579
0.184012
0.183444
0.182874
0.182299
0.181716
0.181124
0.180521
0.179903
0.179269
0.178618
0.177946
0.177253
0.176537
0.175798
0.175033
0.174242
0.173425
0.172581
0.17171
0.170813
0.169889
0.16894
0.167965
0.166967
0.165946
0.164904
0.163842
0.162763
0.161668
0.160561
0.159446
0.158325
0.157204
0.156088
0.154984
0.1539
0.152847
0.151836
0.150879
0.149992
0.149191
0.148483
0.147918
0.147265
0.226918
0.226136
0.225351
0.224562
0.223769
0.222973
0.222173
0.221369
0.220562
0.219751
0.218937
0.21812
0.2173
0.216477
0.215651
0.214822
0.213991
0.213158
0.212323
0.211487
0.210649
0.209811
0.208972
0.208132
0.207293
0.206455
0.205618
0.204784
0.203951
0.203122
0.202297
0.201477
0.200662
0.199853
0.199051
0.198257
0.197472
0.196696
0.19593
0.195176
0.194432
0.193701
0.192981
0.192274
0.19158
0.190898
0.190227
0.189569
0.188922
0.188285
0.187658
0.18704
0.186429
0.185826
0.185227
0.184632
0.18404
0.183447
0.182852
0.182252
0.181647
0.181032
0.180407
0.179769
0.179115
0.178445
0.177757
0.177048
0.176317
0.175564
0.174786
0.173983
0.173155
0.172301
0.17142
0.170512
0.169579
0.16862
0.167635
0.166625
0.165592
0.164536
0.163458
0.162361
0.161244
0.160112
0.158965
0.157806
0.156638
0.155466
0.154292
0.153123
0.151965
0.150826
0.149713
0.148637
0.14761
0.146628
0.145795
0.144576
0.226916
0.226135
0.225352
0.224564
0.223774
0.222981
0.222184
0.221384
0.220581
0.219775
0.218966
0.218154
0.21734
0.216523
0.215703
0.214882
0.214058
0.213233
0.212406
0.211577
0.210748
0.209918
0.209087
0.208256
0.207426
0.206596
0.205767
0.20494
0.204115
0.203293
0.202474
0.201659
0.200848
0.200043
0.199244
0.198451
0.197666
0.19689
0.196121
0.195363
0.194614
0.193876
0.193149
0.192432
0.191727
0.191032
0.190349
0.189676
0.189013
0.18836
0.187716
0.18708
0.186451
0.185829
0.185211
0.184597
0.183985
0.183373
0.182759
0.182141
0.181517
0.180886
0.180244
0.17959
0.178923
0.178239
0.177537
0.176817
0.176075
0.175312
0.174525
0.173715
0.172879
0.172018
0.171131
0.170218
0.169278
0.168314
0.167323
0.166308
0.165268
0.164205
0.16312
0.162013
0.160886
0.15974
0.158577
0.157398
0.156206
0.155003
0.153792
0.152577
0.151361
0.150149
0.148947
0.147761
0.146603
0.145455
0.144463
0.142887
0.226909
0.226128
0.225344
0.224558
0.223768
0.222975
0.222179
0.221381
0.220579
0.219775
0.218968
0.218158
0.217346
0.216531
0.215715
0.214896
0.214076
0.213254
0.212431
0.211606
0.210781
0.209955
0.209128
0.208301
0.207475
0.206649
0.205824
0.205001
0.204179
0.20336
0.202544
0.201731
0.200923
0.200119
0.19932
0.198528
0.197742
0.196964
0.196193
0.195431
0.194678
0.193934
0.1932
0.192476
0.191762
0.191058
0.190364
0.18968
0.189005
0.188339
0.187682
0.187032
0.18639
0.185753
0.18512
0.184491
0.183864
0.183237
0.182609
0.181976
0.181339
0.180694
0.18004
0.179374
0.178695
0.178001
0.17729
0.176561
0.175812
0.175041
0.174248
0.173432
0.172592
0.171726
0.170835
0.169919
0.168977
0.168009
0.167016
0.165998
0.164956
0.163889
0.1628
0.161689
0.160557
0.159405
0.158234
0.157045
0.155841
0.154623
0.153393
0.152153
0.150907
0.149656
0.148407
0.147161
0.145929
0.144687
0.143604
0.141814
0.2269
0.226119
0.225335
0.224548
0.223758
0.222965
0.222169
0.22137
0.220569
0.219764
0.218958
0.218148
0.217337
0.216523
0.215707
0.214889
0.21407
0.213249
0.212427
0.211603
0.210779
0.209954
0.209128
0.208303
0.207477
0.206652
0.205828
0.205006
0.204185
0.203366
0.202551
0.201738
0.200929
0.200125
0.199325
0.198531
0.197743
0.196961
0.196187
0.195421
0.194663
0.193914
0.193174
0.192443
0.191721
0.191009
0.190307
0.189613
0.188928
0.188252
0.187584
0.186923
0.186269
0.18562
0.184976
0.184335
0.183696
0.183057
0.182416
0.181773
0.181124
0.180469
0.179804
0.179129
0.178442
0.17774
0.177022
0.176286
0.175531
0.174755
0.173958
0.173138
0.172294
0.171426
0.170533
0.169614
0.16867
0.167701
0.166707
0.165688
0.164644
0.163577
0.162486
0.161373
0.160239
0.159084
0.15791
0.156717
0.155507
0.154282
0.153043
0.151791
0.150529
0.14926
0.147986
0.146708
0.145438
0.144145
0.143012
0.141101
0.226891
0.226109
0.225325
0.224537
0.223747
0.222953
0.222157
0.221357
0.220555
0.219751
0.218944
0.218134
0.217322
0.216508
0.215692
0.214873
0.214053
0.213232
0.212409
0.211585
0.21076
0.209935
0.209108
0.208282
0.207456
0.20663
0.205806
0.204982
0.20416
0.20334
0.202523
0.201708
0.200897
0.20009
0.199288
0.198491
0.1977
0.196915
0.196136
0.195365
0.194602
0.193847
0.193101
0.192363
0.191634
0.190914
0.190204
0.189502
0.188808
0.188123
0.187445
0.186774
0.18611
0.185451
0.184797
0.184145
0.183496
0.182847
0.182197
0.181544
0.180886
0.180222
0.179549
0.178866
0.178172
0.177463
0.176739
0.175998
0.175238
0.174459
0.173658
0.172835
0.171989
0.171118
0.170224
0.169304
0.16836
0.16739
0.166395
0.165375
0.164331
0.163263
0.162172
0.161058
0.159923
0.158767
0.157591
0.156396
0.155184
0.153956
0.152712
0.151455
0.150186
0.148908
0.147621
0.146329
0.145039
0.143719
0.142561
0.140585
0.226883
0.226101
0.225315
0.224527
0.223736
0.222942
0.222144
0.221345
0.220542
0.219737
0.218929
0.218118
0.217305
0.21649
0.215673
0.214854
0.214033
0.213211
0.212387
0.211561
0.210735
0.209908
0.20908
0.208252
0.207425
0.206597
0.20577
0.204945
0.20412
0.203298
0.202478
0.20166
0.200846
0.200036
0.19923
0.198429
0.197634
0.196844
0.196061
0.195284
0.194516
0.193755
0.193002
0.192257
0.191521
0.190794
0.190075
0.189365
0.188663
0.187969
0.187283
0.186603
0.18593
0.185262
0.184598
0.183938
0.183279
0.182621
0.181962
0.181301
0.180635
0.179963
0.179283
0.178594
0.177893
0.177178
0.176449
0.175703
0.17494
0.174157
0.173353
0.172527
0.171679
0.170807