/*--------------------------------*- C++ -*----------------------------------*\
| =========                 |                                                 |
| \\      /  F ield         | OpenFOAM: The Open Source CFD Toolbox           |
|  \\    /   O peration     | Version:  2.1.1                                 |
|   \\  /    A nd           | Web:      www.OpenFOAM.org                      |
|    \\/     M anipulation  |                                                 |
\*---------------------------------------------------------------------------*/
FoamFile
{
    version     2.0;
    format      ascii;
    class       volScalarField;
    location    "0.19";
    object      nut;
}
// * * * * * * * * * * * * * * * * * * * * * * * * * * * * * * * * * * * * * //

dimensions      [0 2 -1 0 0 0 0];

internalField   nonuniform List<scalar> 
6820
(
4.96025e-05
5.47044e-05
5.94497e-05
6.37667e-05
6.76166e-05
7.09775e-05
7.38477e-05
7.62452e-05
7.82021e-05
7.97601e-05
8.09656e-05
8.18663e-05
8.25083e-05
8.29346e-05
8.31837e-05
8.32898e-05
8.32821e-05
8.31856e-05
8.3021e-05
8.28056e-05
8.25533e-05
8.22755e-05
8.19813e-05
8.16779e-05
8.1371e-05
8.10648e-05
8.07625e-05
8.04671e-05
8.01768e-05
7.9909e-05
7.95839e-05
7.95858e-05
7.80461e-05
0.000540296
0.00030497
0.000219955
0.000171552
0.000140513
0.00011965
0.000105125
9.4741e-05
8.71769e-05
8.15959e-05
7.74476e-05
7.43584e-05
7.20677e-05
7.03894e-05
6.91882e-05
6.83636e-05
6.78403e-05
6.75604e-05
6.74793e-05
6.75618e-05
6.77798e-05
6.81108e-05
6.85361e-05
6.90403e-05
6.96105e-05
7.02356e-05
7.09059e-05
7.16124e-05
7.23476e-05
7.30995e-05
7.38658e-05
7.46104e-05
7.52877e-05
0.00105857
0.000836089
0.000679241
0.000569618
0.000490058
0.000430121
0.000383707
0.000346861
0.000316961
0.000292244
0.000271497
0.000253857
0.000238697
0.000225549
0.000214057
0.000203945
0.000194997
0.000187038
0.000179929
0.000173553
0.000167817
0.000162641
0.000157959
0.000153713
0.000149856
0.000146346
0.000143148
0.00014023
0.000137566
0.000135137
0.000132904
0.000130915
0.000128864
0.00115953
0.00109653
0.00101167
0.00092642
0.000849815
0.000783626
0.000727074
0.000678747
0.00063723
0.000601299
0.000569952
0.000542385
0.000517959
0.000496163
0.00047659
0.000458912
0.000442863
0.000428224
0.000414816
0.000402488
0.000391113
0.000380585
0.000370813
0.000361718
0.000353233
0.0003453
0.000337869
0.000330898
0.000324352
0.000318202
0.000312433
0.000307031
0.000302002
0.00116966
0.00115863
0.00113363
0.00109757
0.00105569
0.0010122
0.000969675
0.000929418
0.000891977
0.000857477
0.000825827
0.000796836
0.000770278
0.000745919
0.000723539
0.000702934
0.000683921
0.000666337
0.000650037
0.000634892
0.000620791
0.000607633
0.000595329
0.000583802
0.000572982
0.000562807
0.00055322
0.000544174
0.000535624
0.000527533
0.000519868
0.000512605
0.000505724
0.00117006
0.00116839
0.00116306
0.00115261
0.00113713
0.00111767
0.00109554
0.00107191
0.00104771
0.0010236
0.000999997
0.000977183
0.000955313
0.000934467
0.00091467
0.000895918
0.00087818
0.000861418
0.000845582
0.000830623
0.000816486
0.000803122
0.000790479
0.000778511
0.000767172
0.000756419
0.000746212
0.000736514
0.00072729
0.000718508
0.00071014
0.000702164
0.000694556
0.00116996
0.00116938
0.00116821
0.00116569
0.00116123
0.00115458
0.00114584
0.00113528
0.00112328
0.00111023
0.00109649
0.00108233
0.00106802
0.00105372
0.00103958
0.00102569
0.00101215
0.000998982
0.000986233
0.000973919
0.000962049
0.000950624
0.000939639
0.000929086
0.000918953
0.000909226
0.000899892
0.000890933
0.000882334
0.00087408
0.000866155
0.000858549
0.000851249
0.00116994
0.0011694
0.00116883
0.00116803
0.00116674
0.00116472
0.0011618
0.00115791
0.00115304
0.00114728
0.00114074
0.00113354
0.00112581
0.00111769
0.00110928
0.00110068
0.00109198
0.00108325
0.00107454
0.00106591
0.00105738
0.001049
0.00104077
0.00103273
0.00102488
0.00101722
0.00100977
0.00100253
0.0009955
0.000988676
0.000982059
0.00097565
0.000969446
0.00116994
0.00116939
0.00116886
0.00116832
0.0011677
0.00116692
0.00116588
0.00116449
0.00116269
0.00116043
0.00115772
0.00115455
0.00115097
0.00114701
0.00114272
0.00113814
0.00113333
0.00112833
0.00112318
0.00111793
0.0011126
0.00110723
0.00110185
0.00109647
0.00109112
0.00108581
0.00108057
0.00107539
0.00107029
0.00106527
0.00106035
0.00105553
0.00105082
0.00116994
0.00116938
0.00116885
0.00116833
0.00116782
0.00116729
0.00116671
0.00116605
0.00116526
0.00116432
0.00116319
0.00116185
0.0011603
0.00115852
0.00115654
0.00115435
0.00115196
0.00114941
0.0011467
0.00114386
0.0011409
0.00113784
0.0011347
0.00113149
0.00112824
0.00112496
0.00112165
0.00111833
0.00111501
0.0011117
0.00110842
0.00110515
0.00110192
0.00116994
0.00116938
0.00116884
0.00116832
0.00116782
0.00116732
0.00116683
0.00116634
0.00116582
0.00116527
0.00116466
0.00116399
0.00116324
0.0011624
0.00116146
0.00116041
0.00115927
0.00115802
0.00115668
0.00115524
0.00115371
0.00115209
0.00115041
0.00114866
0.00114685
0.00114498
0.00114308
0.00114114
0.00113917
0.00113717
0.00113517
0.00113315
0.00113113
0.00116994
0.00116938
0.00116884
0.00116832
0.00116781
0.00116732
0.00116684
0.00116637
0.00116591
0.00116545
0.00116499
0.00116451
0.00116402
0.0011635
0.00116296
0.00116238
0.00116175
0.00116109
0.00116038
0.00115962
0.00115882
0.00115797
0.00115707
0.00115614
0.00115516
0.00115414
0.0011531
0.00115202
0.00115091
0.00114977
0.00114862
0.00114745
0.00114626
0.00116994
0.00116938
0.00116884
0.00116832
0.00116781
0.00116732
0.00116684
0.00116637
0.00116592
0.00116547
0.00116504
0.00116461
0.00116419
0.00116377
0.00116334
0.00116291
0.00116248
0.00116203
0.00116157
0.0011611
0.0011606
0.0011601
0.00115957
0.00115902
0.00115846
0.00115788
0.00115728
0.00115666
0.00115602
0.00115538
0.00115471
0.00115404
0.00115335
0.00116994
0.00116938
0.00116884
0.00116832
0.00116781
0.00116731
0.00116683
0.00116636
0.00116591
0.00116547
0.00116504
0.00116462
0.00116421
0.00116381
0.00116342
0.00116303
0.00116265
0.00116227
0.0011619
0.00116152
0.00116115
0.00116077
0.00116039
0.00116
0.00115962
0.00115922
0.00115883
0.00115842
0.00115802
0.0011576
0.00115719
0.00115676
0.00115633
0.00116994
0.00116938
0.00116884
0.00116832
0.00116781
0.00116731
0.00116683
0.00116636
0.00116591
0.00116546
0.00116503
0.00116462
0.00116421
0.00116381
0.00116343
0.00116305
0.00116268
0.00116232
0.00116197
0.00116162
0.00116128
0.00116095
0.00116062
0.00116029
0.00115997
0.00115965
0.00115933
0.00115901
0.0011587
0.00115839
0.00115808
0.00115777
0.00115746
0.00116994
0.00116938
0.00116884
0.00116831
0.0011678
0.00116731
0.00116683
0.00116636
0.0011659
0.00116546
0.00116503
0.00116461
0.0011642
0.00116381
0.00116342
0.00116305
0.00116268
0.00116232
0.00116198
0.00116164
0.00116131
0.00116098
0.00116067
0.00116036
0.00116006
0.00115976
0.00115947
0.00115918
0.0011589
0.00115863
0.00115836
0.00115809
0.00115783
0.00116994
0.00116938
0.00116884
0.00116831
0.0011678
0.00116731
0.00116683
0.00116636
0.0011659
0.00116546
0.00116503
0.00116461
0.0011642
0.0011638
0.00116342
0.00116304
0.00116267
0.00116232
0.00116197
0.00116163
0.0011613
0.00116098
0.00116067
0.00116036
0.00116007
0.00115978
0.00115949
0.00115922
0.00115895
0.00115868
0.00115843
0.00115818
0.00115793
0.00116994
0.00116938
0.00116884
0.00116831
0.0011678
0.00116731
0.00116682
0.00116635
0.0011659
0.00116545
0.00116502
0.0011646
0.0011642
0.0011638
0.00116341
0.00116303
0.00116267
0.00116231
0.00116196
0.00116163
0.0011613
0.00116098
0.00116066
0.00116036
0.00116006
0.00115977
0.00115949
0.00115922
0.00115895
0.00115869
0.00115843
0.00115819
0.00115795
0.00116994
0.00116938
0.00116884
0.00116831
0.0011678
0.0011673
0.00116682
0.00116635
0.0011659
0.00116545
0.00116502
0.0011646
0.00116419
0.00116379
0.00116341
0.00116303
0.00116266
0.00116231
0.00116196
0.00116162
0.00116129
0.00116097
0.00116065
0.00116035
0.00116005
0.00115976
0.00115948
0.00115921
0.00115894
0.00115868
0.00115843
0.00115818
0.00115794
0.00116994
0.00116938
0.00116884
0.00116831
0.0011678
0.0011673
0.00116682
0.00116635
0.00116589
0.00116545
0.00116502
0.0011646
0.00116419
0.00116379
0.0011634
0.00116302
0.00116266
0.0011623
0.00116195
0.00116161
0.00116128
0.00116096
0.00116065
0.00116034
0.00116004
0.00115975
0.00115947
0.0011592
0.00115893
0.00115867
0.00115841
0.00115817
0.00115792
0.00116994
0.00116938
0.00116884
0.00116831
0.0011678
0.0011673
0.00116682
0.00116635
0.00116589
0.00116545
0.00116502
0.00116459
0.00116419
0.00116379
0.0011634
0.00116302
0.00116265
0.0011623
0.00116195
0.00116161
0.00116128
0.00116095
0.00116064
0.00116033
0.00116004
0.00115975
0.00115946
0.00115919
0.00115892
0.00115866
0.0011584
0.00115815
0.00115791
0.00116994
0.00116938
0.00116884
0.00116831
0.0011678
0.0011673
0.00116682
0.00116635
0.00116589
0.00116545
0.00116501
0.00116459
0.00116418
0.00116378
0.0011634
0.00116302
0.00116265
0.00116229
0.00116194
0.0011616
0.00116127
0.00116095
0.00116063
0.00116033
0.00116003
0.00115974
0.00115945
0.00115918
0.00115891
0.00115865
0.00115839
0.00115814
0.0011579
0.00116994
0.00116938
0.00116884
0.00116831
0.0011678
0.0011673
0.00116682
0.00116635
0.00116589
0.00116545
0.00116501
0.00116459
0.00116418
0.00116378
0.00116339
0.00116301
0.00116265
0.00116229
0.00116194
0.0011616
0.00116126
0.00116094
0.00116063
0.00116032
0.00116002
0.00115973
0.00115945
0.00115917
0.0011589
0.00115864
0.00115838
0.00115813
0.00115789
0.00116994
0.00116938
0.00116884
0.00116831
0.0011678
0.0011673
0.00116682
0.00116635
0.00116589
0.00116544
0.00116501
0.00116459
0.00116418
0.00116378
0.00116339
0.00116301
0.00116264
0.00116228
0.00116193
0.00116159
0.00116126
0.00116094
0.00116062
0.00116031
0.00116001
0.00115972
0.00115944
0.00115916
0.00115889
0.00115863
0.00115837
0.00115812
0.00115788
0.00116994
0.00116938
0.00116884
0.00116831
0.0011678
0.0011673
0.00116682
0.00116635
0.00116589
0.00116544
0.00116501
0.00116459
0.00116418
0.00116378
0.00116339
0.00116301
0.00116264
0.00116228
0.00116193
0.00116159
0.00116126
0.00116093
0.00116062
0.00116031
0.00116001
0.00115972
0.00115943
0.00115915
0.00115888
0.00115862
0.00115836
0.00115811
0.00115787
0.00116994
0.00116938
0.00116884
0.00116831
0.0011678
0.0011673
0.00116682
0.00116635
0.00116589
0.00116544
0.00116501
0.00116459
0.00116418
0.00116378
0.00116339
0.00116301
0.00116264
0.00116228
0.00116193
0.00116159
0.00116125
0.00116093
0.00116061
0.0011603
0.00116
0.00115971
0.00115943
0.00115915
0.00115888
0.00115861
0.00115835
0.0011581
0.00115786
0.00116994
0.00116938
0.00116884
0.00116831
0.0011678
0.0011673
0.00116682
0.00116635
0.00116589
0.00116544
0.00116501
0.00116459
0.00116417
0.00116377
0.00116338
0.001163
0.00116264
0.00116228
0.00116192
0.00116158
0.00116125
0.00116092
0.00116061
0.0011603
0.00116
0.00115971
0.00115942
0.00115914
0.00115887
0.0011586
0.00115835
0.00115809
0.00115785
0.00116994
0.00116938
0.00116884
0.00116831
0.0011678
0.0011673
0.00116682
0.00116635
0.00116589
0.00116544
0.00116501
0.00116458
0.00116417
0.00116377
0.00116338
0.001163
0.00116263
0.00116227
0.00116192
0.00116158
0.00116125
0.00116092
0.00116061
0.0011603
0.00116
0.0011597
0.00115942
0.00115914
0.00115886
0.0011586
0.00115834
0.00115809
0.00115784
0.00116994
0.00116938
0.00116884
0.00116831
0.0011678
0.0011673
0.00116682
0.00116634
0.00116589
0.00116544
0.00116501
0.00116458
0.00116417
0.00116377
0.00116338
0.001163
0.00116263
0.00116227
0.00116192
0.00116158
0.00116125
0.00116092
0.0011606
0.00116029
0.00115999
0.0011597
0.00115941
0.00115913
0.00115886
0.00115859
0.00115834
0.00115808
0.00115784
0.00116994
0.00116938
0.00116884
0.00116831
0.0011678
0.0011673
0.00116682
0.00116635
0.00116589
0.00116544
0.00116501
0.00116459
0.00116417
0.00116377
0.00116338
0.001163
0.00116263
0.00116227
0.00116192
0.00116158
0.00116125
0.00116092
0.0011606
0.00116029
0.00115999
0.0011597
0.00115941
0.00115913
0.00115886
0.00115859
0.00115833
0.00115808
0.00115783
0.00116994
0.00116938
0.00116884
0.00116831
0.0011678
0.0011673
0.00116682
0.00116635
0.00116589
0.00116544
0.00116501
0.00116459
0.00116418
0.00116378
0.00116339
0.00116301
0.00116264
0.00116228
0.00116192
0.00116158
0.00116125
0.00116092
0.00116061
0.0011603
0.00115999
0.0011597
0.00115941
0.00115913
0.00115885
0.00115859
0.00115833
0.00115807
0.00115782
0.00116994
0.00116938
0.00116884
0.00116831
0.0011678
0.00116731
0.00116682
0.00116635
0.0011659
0.00116545
0.00116502
0.0011646
0.00116418
0.00116378
0.00116339
0.00116301
0.00116264
0.00116228
0.00116193
0.00116158
0.00116125
0.00116092
0.0011606
0.00116029
0.00115998
0.00115968
0.00115939
0.0011591
0.00115882
0.00115855
0.00115828
0.00115801
0.00115775
0.00116994
0.00116938
0.00116884
0.00116831
0.00116781
0.00116731
0.00116683
0.00116636
0.0011659
0.00116546
0.00116503
0.0011646
0.00116419
0.00116379
0.0011634
0.00116301
0.00116264
0.00116227
0.00116191
0.00116155
0.0011612
0.00116086
0.00116052
0.00116019
0.00115986
0.00115953
0.00115921
0.0011589
0.00115859
0.00115828
0.00115797
0.00115767
0.00115737
0.00116994
0.00116938
0.00116884
0.00116833
0.00116782
0.00116733
0.00116685
0.00116638
0.00116593
0.00116548
0.00116503
0.00116459
0.00116416
0.00116373
0.00116331
0.00116288
0.00116246
0.00116204
0.00116161
0.00116119
0.00116076
0.00116033
0.0011599
0.00115946
0.00115902
0.00115858
0.00115814
0.00115769
0.00115724
0.00115678
0.00115632
0.00115586
0.0011554
0.00116994
0.00116939
0.00116886
0.00116835
0.00116784
0.00116733
0.00116683
0.00116632
0.00116581
0.00116528
0.00116473
0.00116417
0.00116358
0.00116297
0.00116233
0.00116166
0.00116096
0.00116024
0.00115948
0.0011587
0.00115789
0.00115706
0.0011562
0.00115531
0.00115441
0.00115348
0.00115254
0.00115158
0.0011506
0.00114961
0.00114861
0.0011476
0.00114658
0.00116995
0.0011694
0.00116886
0.00116828
0.00116765
0.00116694
0.00116612
0.00116519
0.00116413
0.00116294
0.00116162
0.00116016
0.00115858
0.00115688
0.00115505
0.00115313
0.0011511
0.00114898
0.00114678
0.00114452
0.00114219
0.0011398
0.00113737
0.00113491
0.00113241
0.00112989
0.00112736
0.00112481
0.00112226
0.00111971
0.00111716
0.00111462
0.00111209
0.00116996
0.00116916
0.00116786
0.00116595
0.00116343
0.00116029
0.00115656
0.00115226
0.00114746
0.00114221
0.00113657
0.00113061
0.0011244
0.00111798
0.00111141
0.00110474
0.001098
0.00109123
0.00108446
0.00107772
0.00107102
0.00106439
0.00105783
0.00105137
0.00104501
0.00103877
0.00103264
0.00102663
0.00102074
0.00101499
0.00100936
0.00100387
0.000998501
0.00116831
0.00115866
0.001145
0.00112844
0.00110968
0.00108946
0.00106842
0.00104706
0.00102579
0.00100486
0.00098447
0.000964731
0.000945718
0.000927468
0.000909992
0.000893285
0.000877333
0.000862111
0.000847591
0.000833743
0.000820535
0.000807934
0.000795909
0.00078443
0.000773466
0.00076299
0.000752975
0.000743396
0.000734228
0.000725449
0.000717038
0.000708976
0.00070124
0.00107567
0.000936197
0.000835613
0.000756909
0.00069213
0.000638397
0.000593506
0.000555627
0.000523324
0.000495491
0.000471282
0.000450044
0.000431271
0.000414564
0.000399608
0.000386148
0.000373977
0.000362926
0.000352854
0.000343643
0.000335194
0.000327421
0.000320253
0.000313627
0.000307488
0.000301789
0.00029649
0.000291553
0.000286946
0.00028264
0.000278611
0.000274835
0.000271291
0.000142979
0.000146644
0.000150174
0.000153551
0.000156773
0.000159846
0.000162776
0.000165567
0.000168225
0.000170755
0.000173161
0.00017545
0.000177625
0.000179691
0.000181654
0.000183517
0.000185285
0.000186963
0.000188554
0.000190063
0.000191494
0.00019285
0.000194136
0.000195354
0.000196508
0.000197602
0.000198638
0.000199619
0.000200548
0.000201428
0.000202261
0.00020305
0.000203798
9.09938e-05
0.000110295
0.000133329
0.000160633
0.000191928
0.000225864
0.000260578
0.000294412
0.000326344
0.00035612
0.000384081
0.00041087
0.000437127
0.000463298
0.00048958
0.000515974
0.000542393
0.000568764
0.000595084
0.000621437
0.000647959
0.000674811
0.000702131
0.000730018
0.000758521
0.000787643
0.000817359
0.000847622
0.000878374
0.000909546
0.000941057
0.00097281
0.00100469
0.00103655
0.00106824
0.00109955
0.00113029
0.00116021
0.00118908
0.00121665
0.00124267
0.0012669
0.00128911
0.00130908
0.00132662
0.00134155
0.00135371
0.00136297
0.00136925
0.00137246
0.0013726
0.00136969
0.00136382
0.00135514
0.00134388
0.00133031
0.00131478
0.0012977
0.00127951
0.00126069
0.00124174
0.00122318
0.00120549
0.00118913
0.00117451
0.00116197
0.00115176
0.00114408
0.00113901
0.00113656
0.00113667
0.00113922
0.00114407
0.00115103
0.00115992
0.00117058
0.00118286
0.00119664
0.00121184
0.0012284
0.00124633
0.00126564
0.0012864
0.00130868
0.00133259
0.00135825
0.00138577
0.00141528
0.00144686
0.00148059
0.00151648
0.00155449
0.0015945
0.00163629
0.00167954
0.0017238
0.0017684
0.00181314
0.00185352
0.0019127
7.64495e-05
7.85473e-05
8.18609e-05
8.70234e-05
9.47721e-05
0.000105818
0.000120706
0.000139713
0.000162738
0.000189282
0.00021851
0.000249392
0.000280882
0.00031209
0.000342406
0.000371547
0.000399526
0.000426559
0.000452964
0.000479055
0.000505077
0.000531181
0.000557426
0.000583813
0.000610316
0.000636909
0.000663577
0.000690319
0.000717137
0.000744025
0.000770959
0.000797889
0.000824737
0.000851397
0.000877738
0.000903605
0.000928824
0.000953204
0.000976545
0.000998639
0.00101928
0.00103826
0.0010554
0.00107053
0.00108348
0.00109415
0.00110243
0.00110823
0.00111154
0.00111234
0.00111067
0.00110665
0.00110042
0.00109221
0.00108231
0.00107106
0.00105889
0.00104622
0.00103355
0.00102137
0.00101014
0.00100032
0.000992288
0.000986356
0.000982747
0.000981585
0.00098289
0.000986595
0.000992549
0.00100054
0.00101034
0.00102167
0.00103428
0.00104795
0.00106247
0.0010777
0.00109352
0.00110987
0.00112675
0.00114418
0.00116223
0.00118101
0.00120066
0.00122135
0.00124326
0.0012666
0.00129157
0.00131836
0.00134717
0.00137814
0.00141138
0.00144692
0.00148471
0.00152459
0.00156629
0.0016094
0.00165326
0.00169772
0.00173812
0.00179822
0.000126828
0.000124821
0.00012279
0.000120536
0.000118052
0.000115526
0.000113551
0.000112608
0.000113132
0.00011563
0.000120629
0.000128582
0.000139804
0.000154423
0.000172355
0.000193307
0.000216808
0.000242257
0.000269002
0.00029642
0.000323981
0.000351302
0.000378155
0.000404455
0.000430223
0.000455541
0.000480508
0.000505208
0.000529693
0.000553973
0.000578026
0.000601798
0.000625215
0.000648191
0.000670625
0.000692408
0.00071342
0.000733528
0.00075259
0.000770459
0.000786988
0.000802039
0.000815486
0.000827225
0.000837178
0.000845296
0.00085156
0.000855985
0.000858626
0.000859576
0.000858976
0.000857021
0.000853959
0.000850098
0.000845796
0.000841455
0.000837502
0.000834372
0.000832482
0.000832203
0.000833841
0.00083761
0.000843621
0.000851877
0.000862276
0.000874624
0.000888656
0.000904062
0.000920515
0.000937689
0.000955288
0.000973052
0.000990773
0.00100829
0.00102551
0.00104236
0.00105885
0.00107501
0.00109091
0.00110667
0.00112241
0.00113832
0.00115459
0.00117144
0.00118911
0.00120786
0.00122797
0.00124971
0.00127336
0.00129915
0.00132728
0.00135791
0.00139107
0.00142671
0.00146463
0.00150449
0.00154568
0.0015881
0.00162707
0.00168623
0.000296568
0.00029056
0.000284563
0.000278476
0.000272134
0.000265336
0.000257952
0.000249857
0.000241299
0.000232445
0.00022342
0.000214459
0.00020593
0.000198305
0.000192105
0.000187836
0.000185932
0.000186717
0.000190384
0.000196985
0.000206442
0.000218557
0.000233038
0.000249525
0.000267623
0.00028693
0.000307072
0.000327719
0.000348596
0.000369488
0.000390232
0.000410705
0.000430815
0.000450485
0.000469641
0.000488212
0.000506118
0.000523274
0.000539591
0.000554979
0.000569359
0.000582662
0.000594843
0.000605886
0.000615804
0.000624648
0.000632501
0.000639484
0.000645756
0.000651508
0.000656971
0.000662409
0.000668114
0.000674403
0.000681596
0.000690001
0.00069989
0.000711474
0.000724884
0.000740155
0.000757222
0.000775926
0.000796023
0.000817213
0.000839161
0.000861521
0.000883961
0.000906179
0.000927919
0.000948973
0.000969186
0.000988455
0.00100672
0.00102398
0.00104023
0.00105554
0.00106998
0.00108364
0.00109665
0.00110912
0.00112122
0.00113311
0.00114499
0.00115705
0.00116954
0.00118272
0.00119688
0.00121232
0.00122936
0.00124833
0.00126953
0.00129321
0.00131957
0.00134868
0.0013805
0.0014148
0.0014511
0.00148934
0.00152508
0.00158083
0.000498175
0.000489926
0.00048193
0.000474135
0.000466473
0.000458847
0.000451137
0.00044319
0.000434876
0.000426211
0.000417111
0.000407484
0.000397251
0.000386371
0.000374867
0.000362841
0.000350486
0.000338086
0.000325997
0.000314622
0.000304367
0.000295608
0.000288655
0.000283737
0.00028099
0.000280462
0.000282117
0.000285854
0.000291511
0.000298891
0.000307771
0.000317917
0.000329096
0.00034109
0.000353696
0.000366735
0.000380053
0.00039352
0.000407031
0.000420506
0.000433892
0.000447164
0.000460327
0.000473415
0.000486497
0.000499671
0.000513059
0.000526806
0.000541073
0.000556026
0.000571832
0.000588647
0.000606607
0.000625811
0.000646314
0.000668112
0.000691138
0.000715257
0.000740274
0.000765948
0.000791999
0.000818138
0.000844074
0.000869539
0.000894292
0.000918135
0.000940911
0.00096251
0.000982861
0.00100193
0.00101972
0.00103627
0.00105161
0.00106581
0.00107896
0.00109114
0.00110243
0.00111295
0.00112278
0.00113203
0.00114082
0.00114925
0.00115747
0.00116562
0.00117387
0.0011824
0.00119146
0.00120129
0.0012122
0.00122451
0.00123857
0.00125473
0.00127331
0.00129455
0.00131861
0.00134545
0.00137481
0.00140673
0.00143733
0.00148676
0.000686147
0.000676923
0.000667986
0.000659324
0.000650912
0.000642712
0.000634678
0.000626746
0.000618855
0.000610968
0.000603032
0.000594987
0.00058677
0.00057831
0.00056954
0.000560396
0.000550829
0.000540813
0.000530354
0.000519499
0.000508336
0.000497002
0.00048567
0.000474548
0.000463862
0.000453847
0.000444733
0.000436728
0.000430013
0.000424729
0.00042098
0.000418824
0.000418283
0.000419347
0.000421977
0.000426118
0.000431703
0.00043866
0.000446922
0.000456428
0.000467127
0.000478983
0.00049197
0.000506079
0.000521306
0.000537657
0.000555136
0.000573744
0.000593469
0.000614287
0.000636151
0.000658992
0.000682712
0.000707185
0.00073226
0.000757755
0.000783471
0.000809195
0.000834709
0.000859801
0.000884275
0.000907957
0.0009307
0.000952389
0.000972941
0.000992305
0.00101046
0.0010274
0.00104316
0.00105777
0.00107129
0.00108379
0.00109534
0.001106
0.00111586
0.00112499
0.00113348
0.00114138
0.00114878
0.00115574
0.00116234
0.00116863
0.0011747
0.00118062
0.00118648
0.00119237
0.00119843
0.00120482
0.00121172
0.00121938
0.00122808
0.00123815
0.00124995
0.0012638
0.00128004
0.00129885
0.00132024
0.00134438
0.0013684
0.00140877
0.000843115
0.000834112
0.000825309
0.00081671
0.000808314
0.000800111
0.000792094
0.00078424
0.00077654
0.000768977
0.000761534
0.00075419
0.000746922
0.000739709
0.000732522
0.000725333
0.000718111
0.000710826
0.000703451
0.000695966
0.00068836
0.000680639
0.000672824
0.000664957
0.0006571
0.000649337
0.00064177
0.00063452
0.000627717
0.000621502
0.000616016
0.000611399
0.000607782
0.000605285
0.000604011
0.000604048
0.000605464
0.000608312
0.000612628
0.00061843
0.000625726
0.000634506
0.000644749
0.000656416
0.000669456
0.000683803
0.000699374
0.000716071
0.000733784
0.000752386
0.000771742
0.000791705
0.000812121
0.000832827
0.000853661
0.000874457
0.000895055
0.000915301
0.000935056
0.000954194
0.000972611
0.00099022
0.00100696
0.00102279
0.00103769
0.00105165
0.0010647
0.00107684
0.00108813
0.00109861
0.00110832
0.00111733
0.00112569
0.00113346
0.0011407
0.00114747
0.00115382
0.00115981
0.0011655
0.00117093
0.00117614
0.0011812
0.00118613
0.00119099
0.0011958
0.00120062
0.0012055
0.0012105
0.00121571
0.00122122
0.0012272
0.00123384
0.0012414
0.00125015
0.00126043
0.00127254
0.00128671
0.00130318
0.00132033
0.00135015
0.000962465
0.00095465
0.000946915
0.000939272
0.000931733
0.000924304
0.000916989
0.000909789
0.000902707
0.000895746
0.000888906
0.000882187
0.000875593
0.000869123
0.000862778
0.000856557
0.000850459
0.00084448
0.000838617
0.000832864
0.000827219
0.000821681
0.000816253
0.000810944
0.00080577
0.000800756
0.000795938
0.000791359
0.000787077
0.000783156
0.000779671
0.000776702
0.000774335
0.000772657
0.000771753
0.000771705
0.000772587
0.000774465
0.000777393
0.000781413
0.000786552
0.000792819
0.000800209
0.000808697
0.00081824
0.000828778
0.000840236
0.000852522
0.000865534
0.000879162
0.000893287
0.000907787
0.00092254
0.000937423
0.000952317
0.000967106
0.000981684
0.000995951
0.00100982
0.00102322
0.00103609
0.00104837
0.00106005
0.00107109
0.0010815
0.00109127
0.00110042
0.00110897
0.00111694
0.00112438
0.0011313
0.00113776
0.00114379
0.00114944
0.00115475
0.00115975
0.0011645
0.00116904
0.0011734
0.00117764
0.00118179
0.0011859
0.00118999
0.00119411
0.00119829
0.00120257
0.00120696
0.0012115
0.00121621
0.00122112
0.00122628
0.00123175
0.00123762
0.00124402
0.00125116
0.00125924
0.00126853
0.00127923
0.00129076
0.00131083
0.00104545
0.00103937
0.00103327
0.00102716
0.00102105
0.00101497
0.00100891
0.00100289
0.000996907
0.000990982
0.00098512
0.000979331
0.000973625
0.000968012
0.000962505
0.000957112
0.000951847
0.000946719
0.000941739
0.000936917
0.000932263
0.000927785
0.000923494
0.000919402
0.00091552
0.000911864
0.000908453
0.000905307
0.000902455
0.000899926
0.000897756
0.000895984
0.000894654
0.000893811
0.000893502
0.000893773
0.000894668
0.000896227
0.000898487
0.000901474
0.000905207
0.000909694
0.000914933
0.000920909
0.000927592
0.000934943
0.000942911
0.000951432
0.000960438
0.000969854
0.000979598
0.000989589
0.000999744
0.00100998
0.00102023
0.0010304
0.00104043
0.00105026
0.00105983
0.00106909
0.001078
0.00108654
0.00109468
0.00110241
0.00110972
0.00111662
0.0011231
0.00112918
0.00113489
0.00114022
0.00114522
0.0011499
0.00115429
0.00115841
0.00116231
0.001166
0.00116952
0.0011729
0.00117618
0.00117939
0.00118257
0.00118576
0.001189
0.00119233
0.00119578
0.0011994
0.00120322
0.00120727
0.00121158
0.00121617
0.00122105
0.00122623
0.0012317
0.00123749
0.00124363
0.00125017
0.00125725
0.00126492
0.00127305
0.00128639
0.0010982
0.00109391
0.00108956
0.00108513
0.00108065
0.00107612
0.00107155
0.00106695
0.00106233
0.00105771
0.00105308
0.00104847
0.00104388
0.00103933
0.00103483
0.00103039
0.00102603
0.00102176
0.0010176
0.00101357
0.00100967
0.00100592
0.00100233
0.000998935
0.000995732
0.000992742
0.000989981
0.000987466
0.000985215
0.000983248
0.000981585
0.000980249
0.000979263
0.00097865
0.000978436
0.000978643
0.000979296
0.000980414
0.000982016
0.000984114
0.000986719
0.000989832
0.000993449
0.000997558
0.00100214
0.00100717
0.00101261
0.00101843
0.00102457
0.00103099
0.00103764
0.00104447
0.00105142
0.00105845
0.00106549
0.0010725
0.00107944
0.00108626
0.00109293
0.00109941
0.00110567
0.00111171
0.00111748
0.001123
0.00112824
0.0011332
0.00113789
0.00114232
0.00114648
0.00115039
0.00115406
0.0011575
0.00116074
0.00116378
0.00116665
0.00116936
0.00117195
0.00117443
0.00117683
0.00117917
0.0011815
0.00118384
0.00118623
0.00118871
0.00119131
0.00119409
0.00119709
0.00120036
0.00120394
0.00120787
0.00121218
0.00121688
0.00122199
0.00122748
0.00123332
0.00123948
0.00124594
0.00125263
0.00125935
0.00126963
0.00112876
0.00112601
0.00112316
0.00112023
0.00111721
0.00111412
0.00111096
0.00110774
0.00110446
0.00110114
0.00109777
0.00109438
0.00109096
0.00108754
0.00108412
0.00108071
0.00107732
0.00107398
0.00107069
0.00106746
0.00106432
0.00106128
0.00105835
0.00105554
0.00105288
0.00105038
0.00104806
0.00104592
0.00104399
0.00104229
0.00104082
0.00103961
0.00103866
0.001038
0.00103764
0.0010376
0.00103788
0.0010385
0.00103947
0.00104079
0.00104247
0.00104451
0.0010469
0.00104963
0.0010527
0.00105608
0.00105974
0.00106367
0.00106784
0.00107221
0.00107675
0.00108143
0.00108622
0.00109107
0.00109596
0.00110085
0.00110572
0.00111053
0.00111526
0.00111988
0.00112438
0.00112873
0.00113293
0.00113695
0.0011408
0.00114446
0.00114794
0.00115124
0.00115434
0.00115727
0.00116003
0.00116261
0.00116504
0.00116731
0.00116945
0.00117146
0.00117336
0.00117516
0.00117689
0.00117856
0.00118019
0.00118182
0.00118346
0.00118516
0.00118695
0.00118888
0.00119098
0.00119332
0.00119593
0.00119889
0.00120224
0.00120603
0.00121029
0.00121504
0.00122027
0.00122594
0.00123199
0.00123836
0.00124451
0.00125406
0.00114486
0.0011432
0.00114147
0.00113965
0.00113776
0.0011358
0.00113377
0.00113167
0.00112951
0.00112729
0.00112501
0.00112268
0.00112032
0.00111792
0.00111549
0.00111304
0.00111059
0.00110814
0.00110569
0.00110327
0.00110089
0.00109855
0.00109627
0.00109407
0.00109195
0.00108993
0.00108803
0.00108626
0.00108463
0.00108315
0.00108184
0.00108072
0.00107979
0.00107907
0.00107857
0.0010783
0.00107827
0.00107848
0.00107895
0.00107968
0.00108066
0.00108191
0.00108341
0.00108516
0.00108715
0.00108937
0.00109181
0.00109444
0.00109726
0.00110023
0.00110334
0.00110657
0.00110989
0.00111329
0.00111673
0.0011202
0.00112368
0.00112714
0.00113056
0.00113393
0.00113723
0.00114045
0.00114357
0.00114659
0.00114949
0.00115226
0.00115491
0.00115743
0.00115982
0.00116207
0.00116419
0.00116618
0.00116805
0.00116979
0.00117141
0.00117292
0.00117433
0.00117565
0.00117689
0.00117806
0.00117918
0.00118026
0.00118133
0.00118241
0.00118353
0.00118472
0.00118602
0.00118748
0.00118915
0.00119108
0.00119333
0.00119597
0.00119906
0.00120264
0.00120675
0.0012114
0.00121654
0.00122221
0.00122765
0.00123684
0.00115253
0.00115156
0.00115053
0.00114945
0.00114831
0.00114712
0.00114587
0.00114456
0.0011432
0.00114179
0.00114033
0.00113882
0.00113727
0.00113568
0.00113405
0.0011324
0.00113072
0.00112902
0.00112731
0.00112559
0.00112388
0.00112219
0.00112052
0.00111888
0.00111728
0.00111574
0.00111427
0.00111287
0.00111156
0.00111035
0.00110925
0.00110827
0.00110743
0.00110673
0.00110618
0.00110579
0.00110557
0.00110553
0.00110568
0.00110601
0.00110653
0.00110724
0.00110814
0.00110923
0.00111049
0.00111194
0.00111354
0.00111531
0.00111721
0.00111925
0.0011214
0.00112366
0.001126
0.00112842
0.00113089
0.0011334
0.00113594
0.00113849
0.00114103
0.00114356
0.00114605
0.0011485
0.00115089
0.00115321
0.00115546
0.00115763
0.00115971
0.0011617
0.00116359
0.00116537
0.00116706
0.00116864
0.00117011
0.00117148
0.00117275
0.00117392
0.001175
0.00117598
0.00117688
0.00117771